/*--------------------------------*- C++ -*----------------------------------*\
| =========                 |                                                 |
| \\      /  F ield         | OpenFOAM: The Open Source CFD Toolbox           |
|  \\    /   O peration     | Version:  3.0.x                                 |
|   \\  /    A nd           | Web:      www.OpenFOAM.org                      |
|    \\/     M anipulation  |                                                 |
\*---------------------------------------------------------------------------*/
FoamFile
{
    version     2.0;
    format      ascii;
    class       volScalarField;
    location    "0.29";
    object      p;
}
// * * * * * * * * * * * * * * * * * * * * * * * * * * * * * * * * * * * * * //

dimensions      [1 -1 -2 0 0 0 0];

internalField   nonuniform List<scalar> 
6900
(
1.81918e+07
1.81918e+07
1.81918e+07
1.81918e+07
1.81918e+07
1.81918e+07
1.81918e+07
1.81918e+07
1.81918e+07
1.81918e+07
1.81918e+07
1.81918e+07
1.81917e+07
1.81917e+07
1.81917e+07
1.81917e+07
1.81917e+07
1.81917e+07
1.81917e+07
1.81917e+07
1.81917e+07
1.81917e+07
1.81917e+07
1.81917e+07
1.81918e+07
1.81918e+07
1.81918e+07
1.81918e+07
1.81918e+07
1.81918e+07
1.81918e+07
1.81918e+07
1.81918e+07
1.81918e+07
1.81917e+07
1.81917e+07
1.81917e+07
1.81917e+07
1.81917e+07
1.81917e+07
1.81917e+07
1.81916e+07
1.81916e+07
1.81916e+07
1.81916e+07
1.81916e+07
1.81915e+07
1.81915e+07
1.81915e+07
1.81915e+07
1.81915e+07
1.81914e+07
1.81914e+07
1.81914e+07
1.81914e+07
1.81914e+07
1.81913e+07
1.81913e+07
1.81913e+07
1.81912e+07
1.81912e+07
1.81912e+07
1.81911e+07
1.81911e+07
1.8191e+07
1.81909e+07
1.81909e+07
1.81908e+07
1.81907e+07
1.81906e+07
1.81905e+07
1.81904e+07
1.81903e+07
1.81902e+07
1.81901e+07
1.81899e+07
1.81898e+07
1.81897e+07
1.81895e+07
1.81894e+07
1.81892e+07
1.81891e+07
1.81889e+07
1.81888e+07
1.81887e+07
1.81885e+07
1.81884e+07
1.81882e+07
1.81881e+07
1.81879e+07
1.81878e+07
1.81876e+07
1.81875e+07
1.81873e+07
1.81872e+07
1.8187e+07
1.81869e+07
1.81867e+07
1.81866e+07
1.81864e+07
1.81862e+07
1.8186e+07
1.81858e+07
1.81857e+07
1.81855e+07
1.81853e+07
1.8185e+07
1.81848e+07
1.81846e+07
1.81844e+07
1.81842e+07
1.81839e+07
1.81837e+07
1.81835e+07
1.81832e+07
1.8183e+07
1.81828e+07
1.81825e+07
1.81823e+07
1.81821e+07
1.81818e+07
1.81816e+07
1.81814e+07
1.81812e+07
1.8181e+07
1.81808e+07
1.81806e+07
1.81804e+07
1.81802e+07
1.818e+07
1.81798e+07
1.81796e+07
1.81794e+07
1.81792e+07
1.8179e+07
1.81788e+07
1.81786e+07
1.81783e+07
1.81781e+07
1.81778e+07
1.81776e+07
1.81773e+07
1.8177e+07
1.81767e+07
1.81765e+07
1.81762e+07
1.81759e+07
1.81756e+07
1.81753e+07
1.8175e+07
1.81747e+07
1.81745e+07
1.81742e+07
1.8174e+07
1.81737e+07
1.81735e+07
1.81733e+07
1.8173e+07
1.81729e+07
1.81727e+07
1.81725e+07
1.81724e+07
1.81723e+07
1.81721e+07
1.81721e+07
1.8172e+07
1.81719e+07
1.81718e+07
1.81718e+07
1.81717e+07
1.81716e+07
1.81716e+07
1.81715e+07
1.81714e+07
1.81713e+07
1.81712e+07
1.81711e+07
1.8171e+07
1.81709e+07
1.81707e+07
1.81706e+07
1.81705e+07
1.81704e+07
1.81703e+07
1.81701e+07
1.817e+07
1.81699e+07
1.81698e+07
1.81697e+07
1.81696e+07
1.81695e+07
1.81695e+07
1.81694e+07
1.81694e+07
1.81693e+07
1.81693e+07
1.81694e+07
1.81694e+07
1.81696e+07
1.81703e+07
1.81918e+07
1.81918e+07
1.81918e+07
1.81918e+07
1.81918e+07
1.81918e+07
1.81918e+07
1.81918e+07
1.81918e+07
1.81918e+07
1.81918e+07
1.81918e+07
1.81917e+07
1.81917e+07
1.81917e+07
1.81917e+07
1.81917e+07
1.81917e+07
1.81917e+07
1.81917e+07
1.81917e+07
1.81917e+07
1.81917e+07
1.81917e+07
1.81918e+07
1.81918e+07
1.81918e+07
1.81918e+07
1.81918e+07
1.81918e+07
1.81918e+07
1.81918e+07
1.81918e+07
1.81918e+07
1.81917e+07
1.81917e+07
1.81917e+07
1.81917e+07
1.81917e+07
1.81917e+07
1.81917e+07
1.81916e+07
1.81916e+07
1.81916e+07
1.81916e+07
1.81916e+07
1.81915e+07
1.81915e+07
1.81915e+07
1.81915e+07
1.81915e+07
1.81914e+07
1.81914e+07
1.81914e+07
1.81914e+07
1.81914e+07
1.81913e+07
1.81913e+07
1.81913e+07
1.81912e+07
1.81912e+07
1.81912e+07
1.81911e+07
1.81911e+07
1.8191e+07
1.81909e+07
1.81909e+07
1.81908e+07
1.81907e+07
1.81906e+07
1.81905e+07
1.81904e+07
1.81903e+07
1.81902e+07
1.81901e+07
1.81899e+07
1.81898e+07
1.81897e+07
1.81895e+07
1.81894e+07
1.81892e+07
1.81891e+07
1.81889e+07
1.81888e+07
1.81887e+07
1.81885e+07
1.81884e+07
1.81882e+07
1.81881e+07
1.81879e+07
1.81878e+07
1.81876e+07
1.81875e+07
1.81873e+07
1.81872e+07
1.8187e+07
1.81869e+07
1.81867e+07
1.81866e+07
1.81864e+07
1.81862e+07
1.8186e+07
1.81858e+07
1.81857e+07
1.81855e+07
1.81853e+07
1.8185e+07
1.81848e+07
1.81846e+07
1.81844e+07
1.81842e+07
1.81839e+07
1.81837e+07
1.81835e+07
1.81832e+07
1.8183e+07
1.81828e+07
1.81825e+07
1.81823e+07
1.81821e+07
1.81818e+07
1.81816e+07
1.81814e+07
1.81812e+07
1.8181e+07
1.81808e+07
1.81806e+07
1.81804e+07
1.81802e+07
1.818e+07
1.81798e+07
1.81796e+07
1.81794e+07
1.81792e+07
1.8179e+07
1.81788e+07
1.81786e+07
1.81783e+07
1.81781e+07
1.81778e+07
1.81776e+07
1.81773e+07
1.8177e+07
1.81767e+07
1.81765e+07
1.81762e+07
1.81759e+07
1.81756e+07
1.81753e+07
1.8175e+07
1.81747e+07
1.81745e+07
1.81742e+07
1.8174e+07
1.81737e+07
1.81735e+07
1.81733e+07
1.8173e+07
1.81729e+07
1.81727e+07
1.81725e+07
1.81724e+07
1.81723e+07
1.81721e+07
1.81721e+07
1.8172e+07
1.81719e+07
1.81718e+07
1.81718e+07
1.81717e+07
1.81716e+07
1.81716e+07
1.81715e+07
1.81714e+07
1.81713e+07
1.81712e+07
1.81711e+07
1.8171e+07
1.81709e+07
1.81707e+07
1.81706e+07
1.81705e+07
1.81704e+07
1.81703e+07
1.81701e+07
1.817e+07
1.81699e+07
1.81698e+07
1.81697e+07
1.81696e+07
1.81695e+07
1.81695e+07
1.81694e+07
1.81694e+07
1.81693e+07
1.81693e+07
1.81694e+07
1.81694e+07
1.81696e+07
1.81703e+07
1.81918e+07
1.81918e+07
1.81918e+07
1.81918e+07
1.81918e+07
1.81918e+07
1.81918e+07
1.81918e+07
1.81918e+07
1.81918e+07
1.81918e+07
1.81918e+07
1.81917e+07
1.81917e+07
1.81917e+07
1.81917e+07
1.81917e+07
1.81917e+07
1.81917e+07
1.81917e+07
1.81917e+07
1.81917e+07
1.81917e+07
1.81917e+07
1.81918e+07
1.81918e+07
1.81918e+07
1.81918e+07
1.81918e+07
1.81918e+07
1.81918e+07
1.81918e+07
1.81918e+07
1.81918e+07
1.81917e+07
1.81917e+07
1.81917e+07
1.81917e+07
1.81917e+07
1.81917e+07
1.81917e+07
1.81916e+07
1.81916e+07
1.81916e+07
1.81916e+07
1.81916e+07
1.81915e+07
1.81915e+07
1.81915e+07
1.81915e+07
1.81915e+07
1.81914e+07
1.81914e+07
1.81914e+07
1.81914e+07
1.81914e+07
1.81913e+07
1.81913e+07
1.81913e+07
1.81912e+07
1.81912e+07
1.81912e+07
1.81911e+07
1.81911e+07
1.8191e+07
1.81909e+07
1.81909e+07
1.81908e+07
1.81907e+07
1.81906e+07
1.81905e+07
1.81904e+07
1.81903e+07
1.81902e+07
1.81901e+07
1.81899e+07
1.81898e+07
1.81897e+07
1.81895e+07
1.81894e+07
1.81892e+07
1.81891e+07
1.81889e+07
1.81888e+07
1.81887e+07
1.81885e+07
1.81884e+07
1.81882e+07
1.81881e+07
1.81879e+07
1.81878e+07
1.81876e+07
1.81875e+07
1.81873e+07
1.81872e+07
1.8187e+07
1.81869e+07
1.81867e+07
1.81866e+07
1.81864e+07
1.81862e+07
1.8186e+07
1.81858e+07
1.81857e+07
1.81855e+07
1.81853e+07
1.8185e+07
1.81848e+07
1.81846e+07
1.81844e+07
1.81842e+07
1.81839e+07
1.81837e+07
1.81835e+07
1.81832e+07
1.8183e+07
1.81828e+07
1.81825e+07
1.81823e+07
1.81821e+07
1.81818e+07
1.81816e+07
1.81814e+07
1.81812e+07
1.8181e+07
1.81808e+07
1.81806e+07
1.81804e+07
1.81802e+07
1.818e+07
1.81798e+07
1.81796e+07
1.81794e+07
1.81792e+07
1.8179e+07
1.81788e+07
1.81786e+07
1.81783e+07
1.81781e+07
1.81778e+07
1.81776e+07
1.81773e+07
1.8177e+07
1.81767e+07
1.81765e+07
1.81762e+07
1.81759e+07
1.81756e+07
1.81753e+07
1.8175e+07
1.81747e+07
1.81745e+07
1.81742e+07
1.8174e+07
1.81737e+07
1.81735e+07
1.81733e+07
1.8173e+07
1.81729e+07
1.81727e+07
1.81725e+07
1.81724e+07
1.81723e+07
1.81721e+07
1.81721e+07
1.8172e+07
1.81719e+07
1.81718e+07
1.81718e+07
1.81717e+07
1.81716e+07
1.81716e+07
1.81715e+07
1.81714e+07
1.81713e+07
1.81712e+07
1.81711e+07
1.8171e+07
1.81709e+07
1.81707e+07
1.81706e+07
1.81705e+07
1.81704e+07
1.81703e+07
1.81701e+07
1.817e+07
1.81699e+07
1.81698e+07
1.81697e+07
1.81696e+07
1.81695e+07
1.81695e+07
1.81694e+07
1.81694e+07
1.81693e+07
1.81693e+07
1.81694e+07
1.81694e+07
1.81695e+07
1.81696e+07
1.81918e+07
1.81918e+07
1.81918e+07
1.81918e+07
1.81918e+07
1.81918e+07
1.81918e+07
1.81918e+07
1.81918e+07
1.81918e+07
1.81918e+07
1.81918e+07
1.81917e+07
1.81917e+07
1.81917e+07
1.81917e+07
1.81917e+07
1.81917e+07
1.81917e+07
1.81917e+07
1.81917e+07
1.81917e+07
1.81917e+07
1.81917e+07
1.81918e+07
1.81918e+07
1.81918e+07
1.81918e+07
1.81918e+07
1.81918e+07
1.81918e+07
1.81918e+07
1.81918e+07
1.81918e+07
1.81917e+07
1.81917e+07
1.81917e+07
1.81917e+07
1.81917e+07
1.81917e+07
1.81917e+07
1.81916e+07
1.81916e+07
1.81916e+07
1.81916e+07
1.81916e+07
1.81915e+07
1.81915e+07
1.81915e+07
1.81915e+07
1.81915e+07
1.81914e+07
1.81914e+07
1.81914e+07
1.81914e+07
1.81914e+07
1.81913e+07
1.81913e+07
1.81913e+07
1.81912e+07
1.81912e+07
1.81912e+07
1.81911e+07
1.81911e+07
1.8191e+07
1.81909e+07
1.81909e+07
1.81908e+07
1.81907e+07
1.81906e+07
1.81905e+07
1.81904e+07
1.81903e+07
1.81902e+07
1.81901e+07
1.81899e+07
1.81898e+07
1.81897e+07
1.81895e+07
1.81894e+07
1.81892e+07
1.81891e+07
1.81889e+07
1.81888e+07
1.81887e+07
1.81885e+07
1.81884e+07
1.81882e+07
1.81881e+07
1.81879e+07
1.81878e+07
1.81876e+07
1.81875e+07
1.81873e+07
1.81872e+07
1.8187e+07
1.81869e+07
1.81867e+07
1.81866e+07
1.81864e+07
1.81862e+07
1.8186e+07
1.81858e+07
1.81857e+07
1.81855e+07
1.81853e+07
1.8185e+07
1.81848e+07
1.81846e+07
1.81844e+07
1.81842e+07
1.81839e+07
1.81837e+07
1.81835e+07
1.81832e+07
1.8183e+07
1.81828e+07
1.81825e+07
1.81823e+07
1.81821e+07
1.81818e+07
1.81816e+07
1.81814e+07
1.81812e+07
1.8181e+07
1.81808e+07
1.81806e+07
1.81804e+07
1.81802e+07
1.818e+07
1.81798e+07
1.81796e+07
1.81794e+07
1.81792e+07
1.8179e+07
1.81788e+07
1.81786e+07
1.81783e+07
1.81781e+07
1.81778e+07
1.81776e+07
1.81773e+07
1.8177e+07
1.81767e+07
1.81765e+07
1.81762e+07
1.81759e+07
1.81756e+07
1.81753e+07
1.8175e+07
1.81747e+07
1.81745e+07
1.81742e+07
1.8174e+07
1.81737e+07
1.81735e+07
1.81733e+07
1.8173e+07
1.81729e+07
1.81727e+07
1.81725e+07
1.81724e+07
1.81723e+07
1.81721e+07
1.81721e+07
1.8172e+07
1.81719e+07
1.81718e+07
1.81718e+07
1.81717e+07
1.81716e+07
1.81716e+07
1.81715e+07
1.81714e+07
1.81713e+07
1.81712e+07
1.81711e+07
1.8171e+07
1.81709e+07
1.81707e+07
1.81706e+07
1.81705e+07
1.81704e+07
1.81703e+07
1.81701e+07
1.817e+07
1.81699e+07
1.81698e+07
1.81697e+07
1.81696e+07
1.81695e+07
1.81695e+07
1.81694e+07
1.81694e+07
1.81693e+07
1.81693e+07
1.81693e+07
1.81694e+07
1.81692e+07
1.81686e+07
1.81918e+07
1.81918e+07
1.81918e+07
1.81918e+07
1.81918e+07
1.81918e+07
1.81918e+07
1.81918e+07
1.81918e+07
1.81918e+07
1.81918e+07
1.81918e+07
1.81917e+07
1.81917e+07
1.81917e+07
1.81917e+07
1.81917e+07
1.81917e+07
1.81917e+07
1.81917e+07
1.81917e+07
1.81917e+07
1.81917e+07
1.81917e+07
1.81918e+07
1.81918e+07
1.81918e+07
1.81918e+07
1.81918e+07
1.81918e+07
1.81918e+07
1.81918e+07
1.81918e+07
1.81918e+07
1.81917e+07
1.81917e+07
1.81917e+07
1.81917e+07
1.81917e+07
1.81917e+07
1.81917e+07
1.81916e+07
1.81916e+07
1.81916e+07
1.81916e+07
1.81916e+07
1.81915e+07
1.81915e+07
1.81915e+07
1.81915e+07
1.81915e+07
1.81914e+07
1.81914e+07
1.81914e+07
1.81914e+07
1.81914e+07
1.81913e+07
1.81913e+07
1.81913e+07
1.81912e+07
1.81912e+07
1.81912e+07
1.81911e+07
1.81911e+07
1.8191e+07
1.81909e+07
1.81909e+07
1.81908e+07
1.81907e+07
1.81906e+07
1.81905e+07
1.81904e+07
1.81903e+07
1.81902e+07
1.81901e+07
1.81899e+07
1.81898e+07
1.81897e+07
1.81895e+07
1.81894e+07
1.81892e+07
1.81891e+07
1.81889e+07
1.81888e+07
1.81887e+07
1.81885e+07
1.81884e+07
1.81882e+07
1.81881e+07
1.81879e+07
1.81878e+07
1.81876e+07
1.81875e+07
1.81873e+07
1.81872e+07
1.8187e+07
1.81869e+07
1.81867e+07
1.81866e+07
1.81864e+07
1.81862e+07
1.8186e+07
1.81858e+07
1.81857e+07
1.81855e+07
1.81853e+07
1.8185e+07
1.81848e+07
1.81846e+07
1.81844e+07
1.81842e+07
1.81839e+07
1.81837e+07
1.81835e+07
1.81832e+07
1.8183e+07
1.81828e+07
1.81825e+07
1.81823e+07
1.81821e+07
1.81818e+07
1.81816e+07
1.81814e+07
1.81812e+07
1.8181e+07
1.81808e+07
1.81806e+07
1.81804e+07
1.81802e+07
1.818e+07
1.81798e+07
1.81796e+07
1.81794e+07
1.81792e+07
1.8179e+07
1.81788e+07
1.81786e+07
1.81783e+07
1.81781e+07
1.81778e+07
1.81776e+07
1.81773e+07
1.8177e+07
1.81767e+07
1.81765e+07
1.81762e+07
1.81759e+07
1.81756e+07
1.81753e+07
1.8175e+07
1.81747e+07
1.81745e+07
1.81742e+07
1.8174e+07
1.81737e+07
1.81735e+07
1.81733e+07
1.8173e+07
1.81729e+07
1.81727e+07
1.81725e+07
1.81724e+07
1.81723e+07
1.81721e+07
1.81721e+07
1.8172e+07
1.81719e+07
1.81718e+07
1.81718e+07
1.81717e+07
1.81716e+07
1.81716e+07
1.81715e+07
1.81714e+07
1.81713e+07
1.81712e+07
1.81711e+07
1.8171e+07
1.81709e+07
1.81707e+07
1.81706e+07
1.81705e+07
1.81704e+07
1.81703e+07
1.81701e+07
1.817e+07
1.81699e+07
1.81698e+07
1.81697e+07
1.81696e+07
1.81695e+07
1.81695e+07
1.81694e+07
1.81694e+07
1.81693e+07
1.81693e+07
1.81693e+07
1.81694e+07
1.81692e+07
1.81685e+07
1.81766e+07
1.81793e+07
1.81795e+07
1.81788e+07
1.81781e+07
1.81774e+07
1.81766e+07
1.8176e+07
1.81761e+07
1.81767e+07
1.81761e+07
1.81732e+07
1.81681e+07
1.8164e+07
1.81611e+07
1.81585e+07
1.81564e+07
1.81557e+07
1.81581e+07
1.81588e+07
1.8175e+07
1.81763e+07
1.81762e+07
1.81755e+07
1.81747e+07
1.8174e+07
1.81732e+07
1.81725e+07
1.81727e+07
1.81733e+07
1.81725e+07
1.81691e+07
1.81635e+07
1.81594e+07
1.81567e+07
1.81544e+07
1.81526e+07
1.81521e+07
1.81546e+07
1.81546e+07
1.817e+07
1.81699e+07
1.81695e+07
1.81687e+07
1.81675e+07
1.81662e+07
1.81645e+07
1.81625e+07
1.81601e+07
1.81574e+07
1.81546e+07
1.81519e+07
1.81491e+07
1.81459e+07
1.81423e+07
1.81384e+07
1.81342e+07
1.81297e+07
1.81249e+07
1.81204e+07
1.81601e+07
1.8159e+07
1.81595e+07
1.816e+07
1.81596e+07
1.8158e+07
1.81557e+07
1.81526e+07
1.81502e+07
1.8147e+07
1.81442e+07
1.81412e+07
1.81384e+07
1.81357e+07
1.81333e+07
1.81312e+07
1.81293e+07
1.81277e+07
1.81264e+07
1.81254e+07
1.81553e+07
1.81505e+07
1.81488e+07
1.81487e+07
1.81479e+07
1.81461e+07
1.81435e+07
1.81402e+07
1.81372e+07
1.81337e+07
1.81304e+07
1.81271e+07
1.81239e+07
1.81209e+07
1.81181e+07
1.81157e+07
1.81135e+07
1.81118e+07
1.81107e+07
1.81106e+07
1.8133e+07
1.81202e+07
1.81212e+07
1.81232e+07
1.8122e+07
1.81202e+07
1.81197e+07
1.81198e+07
1.81198e+07
1.81198e+07
1.81198e+07
1.81198e+07
1.81197e+07
1.81197e+07
1.81197e+07
1.81196e+07
1.81196e+07
1.81196e+07
1.81195e+07
1.81194e+07
1.81194e+07
1.81193e+07
1.81193e+07
1.81192e+07
1.81192e+07
1.81192e+07
1.81191e+07
1.81191e+07
1.81191e+07
1.81191e+07
1.81191e+07
1.81191e+07
1.81191e+07
1.81191e+07
1.8119e+07
1.8119e+07
1.8119e+07
1.8119e+07
1.81189e+07
1.81189e+07
1.81189e+07
1.81189e+07
1.81189e+07
1.81189e+07
1.81189e+07
1.81189e+07
1.81189e+07
1.81189e+07
1.81189e+07
1.81189e+07
1.81189e+07
1.81189e+07
1.81189e+07
1.81189e+07
1.8119e+07
1.8119e+07
1.81191e+07
1.81192e+07
1.81193e+07
1.81194e+07
1.81195e+07
1.81196e+07
1.81197e+07
1.81198e+07
1.81199e+07
1.812e+07
1.812e+07
1.81201e+07
1.81201e+07
1.81201e+07
1.81201e+07
1.812e+07
1.81199e+07
1.81198e+07
1.81198e+07
1.81197e+07
1.81196e+07
1.81195e+07
1.81194e+07
1.81192e+07
1.81191e+07
1.8119e+07
1.81189e+07
1.81188e+07
1.81187e+07
1.81186e+07
1.81185e+07
1.81183e+07
1.81182e+07
1.81181e+07
1.81179e+07
1.81178e+07
1.81176e+07
1.81175e+07
1.81173e+07
1.81172e+07
1.8117e+07
1.81169e+07
1.81167e+07
1.81165e+07
1.81164e+07
1.81162e+07
1.8116e+07
1.81159e+07
1.81157e+07
1.81155e+07
1.81153e+07
1.81152e+07
1.8115e+07
1.81148e+07
1.81146e+07
1.81145e+07
1.81143e+07
1.81141e+07
1.8114e+07
1.81138e+07
1.81137e+07
1.81135e+07
1.81134e+07
1.81132e+07
1.81131e+07
1.8113e+07
1.81128e+07
1.81127e+07
1.81126e+07
1.81124e+07
1.81123e+07
1.81122e+07
1.8112e+07
1.81119e+07
1.81118e+07
1.81116e+07
1.81114e+07
1.81113e+07
1.81111e+07
1.81109e+07
1.81108e+07
1.81106e+07
1.81104e+07
1.81102e+07
1.811e+07
1.81097e+07
1.81095e+07
1.81093e+07
1.8109e+07
1.81088e+07
1.81085e+07
1.81083e+07
1.8108e+07
1.81078e+07
1.81075e+07
1.81072e+07
1.8107e+07
1.81067e+07
1.81064e+07
1.81062e+07
1.81059e+07
1.81057e+07
1.81054e+07
1.81052e+07
1.81049e+07
1.81047e+07
1.81045e+07
1.81043e+07
1.81041e+07
1.81039e+07
1.81038e+07
1.81036e+07
1.81035e+07
1.81033e+07
1.81032e+07
1.81031e+07
1.8103e+07
1.81029e+07
1.81027e+07
1.81026e+07
1.81025e+07
1.81024e+07
1.81022e+07
1.81021e+07
1.81019e+07
1.81018e+07
1.81016e+07
1.81014e+07
1.81012e+07
1.8101e+07
1.81008e+07
1.81005e+07
1.81003e+07
1.81001e+07
1.80998e+07
1.80996e+07
1.80993e+07
1.8099e+07
1.80988e+07
1.80985e+07
1.80982e+07
1.80979e+07
1.80973e+07
1.80959e+07
1.81314e+07
1.812e+07
1.81212e+07
1.81232e+07
1.8122e+07
1.81203e+07
1.81197e+07
1.81198e+07
1.81198e+07
1.81198e+07
1.81198e+07
1.81198e+07
1.81197e+07
1.81197e+07
1.81197e+07
1.81196e+07
1.81196e+07
1.81195e+07
1.81195e+07
1.81194e+07
1.81194e+07
1.81193e+07
1.81193e+07
1.81192e+07
1.81192e+07
1.81192e+07
1.81191e+07
1.81191e+07
1.81191e+07
1.81191e+07
1.81191e+07
1.81191e+07
1.81191e+07
1.81191e+07
1.8119e+07
1.8119e+07
1.8119e+07
1.8119e+07
1.81189e+07
1.81189e+07
1.81189e+07
1.81189e+07
1.81189e+07
1.81189e+07
1.81189e+07
1.81189e+07
1.81189e+07
1.81189e+07
1.81189e+07
1.81189e+07
1.81189e+07
1.81189e+07
1.81189e+07
1.81189e+07
1.8119e+07
1.8119e+07
1.81191e+07
1.81192e+07
1.81193e+07
1.81194e+07
1.81195e+07
1.81196e+07
1.81197e+07
1.81198e+07
1.81199e+07
1.812e+07
1.812e+07
1.81201e+07
1.81201e+07
1.81201e+07
1.812e+07
1.812e+07
1.81199e+07
1.81198e+07
1.81198e+07
1.81197e+07
1.81196e+07
1.81195e+07
1.81194e+07
1.81192e+07
1.81191e+07
1.8119e+07
1.81189e+07
1.81188e+07
1.81187e+07
1.81186e+07
1.81185e+07
1.81183e+07
1.81182e+07
1.81181e+07
1.81179e+07
1.81178e+07
1.81176e+07
1.81175e+07
1.81173e+07
1.81172e+07
1.8117e+07
1.81169e+07
1.81167e+07
1.81165e+07
1.81164e+07
1.81162e+07
1.8116e+07
1.81159e+07
1.81157e+07
1.81155e+07
1.81153e+07
1.81152e+07
1.8115e+07
1.81148e+07
1.81146e+07
1.81145e+07
1.81143e+07
1.81141e+07
1.8114e+07
1.81138e+07
1.81137e+07
1.81135e+07
1.81134e+07
1.81132e+07
1.81131e+07
1.8113e+07
1.81128e+07
1.81127e+07
1.81126e+07
1.81124e+07
1.81123e+07
1.81122e+07
1.8112e+07
1.81119e+07
1.81118e+07
1.81116e+07
1.81114e+07
1.81113e+07
1.81111e+07
1.81109e+07
1.81108e+07
1.81106e+07
1.81104e+07
1.81102e+07
1.811e+07
1.81097e+07
1.81095e+07
1.81093e+07
1.8109e+07
1.81088e+07
1.81085e+07
1.81083e+07
1.8108e+07
1.81078e+07
1.81075e+07
1.81072e+07
1.8107e+07
1.81067e+07
1.81064e+07
1.81062e+07
1.81059e+07
1.81057e+07
1.81054e+07
1.81052e+07
1.81049e+07
1.81047e+07
1.81045e+07
1.81043e+07
1.81041e+07
1.81039e+07
1.81038e+07
1.81036e+07
1.81035e+07
1.81033e+07
1.81032e+07
1.81031e+07
1.8103e+07
1.81029e+07
1.81027e+07
1.81026e+07
1.81025e+07
1.81024e+07
1.81022e+07
1.81021e+07
1.81019e+07
1.81018e+07
1.81016e+07
1.81014e+07
1.81012e+07
1.8101e+07
1.81008e+07
1.81005e+07
1.81003e+07
1.81001e+07
1.80998e+07
1.80996e+07
1.80993e+07
1.8099e+07
1.80988e+07
1.80985e+07
1.80982e+07
1.80979e+07
1.80973e+07
1.80959e+07
1.81111e+07
1.81159e+07
1.81197e+07
1.81201e+07
1.81197e+07
1.81195e+07
1.81196e+07
1.81197e+07
1.81198e+07
1.81198e+07
1.81198e+07
1.81198e+07
1.81198e+07
1.81197e+07
1.81197e+07
1.81197e+07
1.81196e+07
1.81196e+07
1.81195e+07
1.81194e+07
1.81194e+07
1.81193e+07
1.81193e+07
1.81193e+07
1.81192e+07
1.81192e+07
1.81191e+07
1.81191e+07
1.81191e+07
1.81191e+07
1.81191e+07
1.8119e+07
1.8119e+07
1.8119e+07
1.8119e+07
1.8119e+07
1.8119e+07
1.8119e+07
1.81189e+07
1.81189e+07
1.81189e+07
1.81189e+07
1.81189e+07
1.81189e+07
1.81189e+07
1.81189e+07
1.81189e+07
1.81189e+07
1.81189e+07
1.8119e+07
1.8119e+07
1.8119e+07
1.8119e+07
1.81191e+07
1.81191e+07
1.81192e+07
1.81193e+07
1.81194e+07
1.81195e+07
1.81196e+07
1.81197e+07
1.81198e+07
1.81198e+07
1.81199e+07
1.812e+07
1.812e+07
1.81201e+07
1.81201e+07
1.81201e+07
1.81201e+07
1.81201e+07
1.812e+07
1.81199e+07
1.81198e+07
1.81198e+07
1.81197e+07
1.81196e+07
1.81195e+07
1.81194e+07
1.81192e+07
1.81191e+07
1.8119e+07
1.81189e+07
1.81188e+07
1.81187e+07
1.81186e+07
1.81185e+07
1.81183e+07
1.81182e+07
1.81181e+07
1.81179e+07
1.81178e+07
1.81176e+07
1.81175e+07
1.81173e+07
1.81172e+07
1.8117e+07
1.81169e+07
1.81167e+07
1.81165e+07
1.81164e+07
1.81162e+07
1.8116e+07
1.81159e+07
1.81157e+07
1.81155e+07
1.81153e+07
1.81152e+07
1.8115e+07
1.81148e+07
1.81146e+07
1.81145e+07
1.81143e+07
1.81141e+07
1.8114e+07
1.81138e+07
1.81137e+07
1.81135e+07
1.81134e+07
1.81132e+07
1.81131e+07
1.8113e+07
1.81128e+07
1.81127e+07
1.81126e+07
1.81124e+07
1.81123e+07
1.81122e+07
1.8112e+07
1.81119e+07
1.81118e+07
1.81116e+07
1.81114e+07
1.81113e+07
1.81111e+07
1.81109e+07
1.81108e+07
1.81106e+07
1.81104e+07
1.81102e+07
1.811e+07
1.81097e+07
1.81095e+07
1.81093e+07
1.8109e+07
1.81088e+07
1.81085e+07
1.81083e+07
1.8108e+07
1.81078e+07
1.81075e+07
1.81072e+07
1.8107e+07
1.81067e+07
1.81064e+07
1.81062e+07
1.81059e+07
1.81057e+07
1.81054e+07
1.81052e+07
1.81049e+07
1.81047e+07
1.81045e+07
1.81043e+07
1.81041e+07
1.81039e+07
1.81038e+07
1.81036e+07
1.81035e+07
1.81033e+07
1.81032e+07
1.81031e+07
1.8103e+07
1.81029e+07
1.81027e+07
1.81026e+07
1.81025e+07
1.81024e+07
1.81022e+07
1.81021e+07
1.81019e+07
1.81018e+07
1.81016e+07
1.81014e+07
1.81012e+07
1.8101e+07
1.81008e+07
1.81005e+07
1.81003e+07
1.81001e+07
1.80998e+07
1.80996e+07
1.80993e+07
1.8099e+07
1.80988e+07
1.80985e+07
1.80982e+07
1.80979e+07
1.80977e+07
1.80974e+07
1.8122e+07
1.81209e+07
1.81206e+07
1.81203e+07
1.81199e+07
1.81197e+07
1.81197e+07
1.81198e+07
1.81198e+07
1.81198e+07
1.81198e+07
1.81198e+07
1.81198e+07
1.81197e+07
1.81197e+07
1.81197e+07
1.81196e+07
1.81196e+07
1.81195e+07
1.81195e+07
1.81194e+07
1.81193e+07
1.81193e+07
1.81193e+07
1.81192e+07
1.81192e+07
1.81192e+07
1.81191e+07
1.81191e+07
1.81191e+07
1.81191e+07
1.8119e+07
1.8119e+07
1.8119e+07
1.8119e+07
1.8119e+07
1.8119e+07
1.8119e+07
1.8119e+07
1.8119e+07
1.81189e+07
1.81189e+07
1.81189e+07
1.8119e+07
1.8119e+07
1.8119e+07
1.8119e+07
1.8119e+07
1.8119e+07
1.8119e+07
1.81191e+07
1.81191e+07
1.81191e+07
1.81192e+07
1.81193e+07
1.81193e+07
1.81194e+07
1.81195e+07
1.81196e+07
1.81197e+07
1.81198e+07
1.81198e+07
1.81199e+07
1.812e+07
1.81201e+07
1.81201e+07
1.81201e+07
1.81201e+07
1.81201e+07
1.81201e+07
1.81201e+07
1.812e+07
1.81199e+07
1.81199e+07
1.81198e+07
1.81197e+07
1.81196e+07
1.81195e+07
1.81194e+07
1.81192e+07
1.81191e+07
1.8119e+07
1.81189e+07
1.81188e+07
1.81187e+07
1.81186e+07
1.81185e+07
1.81183e+07
1.81182e+07
1.81181e+07
1.81179e+07
1.81178e+07
1.81176e+07
1.81175e+07
1.81173e+07
1.81172e+07
1.8117e+07
1.81169e+07
1.81167e+07
1.81165e+07
1.81164e+07
1.81162e+07
1.8116e+07
1.81159e+07
1.81157e+07
1.81155e+07
1.81153e+07
1.81152e+07
1.8115e+07
1.81148e+07
1.81146e+07
1.81145e+07
1.81143e+07
1.81141e+07
1.8114e+07
1.81138e+07
1.81137e+07
1.81135e+07
1.81134e+07
1.81132e+07
1.81131e+07
1.8113e+07
1.81128e+07
1.81127e+07
1.81126e+07
1.81124e+07
1.81123e+07
1.81122e+07
1.8112e+07
1.81119e+07
1.81118e+07
1.81116e+07
1.81114e+07
1.81113e+07
1.81111e+07
1.81109e+07
1.81108e+07
1.81106e+07
1.81104e+07
1.81102e+07
1.811e+07
1.81097e+07
1.81095e+07
1.81093e+07
1.8109e+07
1.81088e+07
1.81085e+07
1.81083e+07
1.8108e+07
1.81078e+07
1.81075e+07
1.81072e+07
1.8107e+07
1.81067e+07
1.81064e+07
1.81062e+07
1.81059e+07
1.81057e+07
1.81054e+07
1.81052e+07
1.81049e+07
1.81047e+07
1.81045e+07
1.81043e+07
1.81041e+07
1.81039e+07
1.81038e+07
1.81036e+07
1.81035e+07
1.81033e+07
1.81032e+07
1.81031e+07
1.8103e+07
1.81029e+07
1.81027e+07
1.81026e+07
1.81025e+07
1.81024e+07
1.81022e+07
1.81021e+07
1.81019e+07
1.81018e+07
1.81016e+07
1.81014e+07
1.81012e+07
1.8101e+07
1.81008e+07
1.81005e+07
1.81003e+07
1.81001e+07
1.80998e+07
1.80996e+07
1.80993e+07
1.8099e+07
1.80988e+07
1.80985e+07
1.80982e+07
1.8098e+07
1.80979e+07
1.80984e+07
1.81193e+07
1.81206e+07
1.81205e+07
1.81202e+07
1.81198e+07
1.81197e+07
1.81197e+07
1.81198e+07
1.81198e+07
1.81198e+07
1.81198e+07
1.81198e+07
1.81198e+07
1.81197e+07
1.81197e+07
1.81197e+07
1.81196e+07
1.81196e+07
1.81195e+07
1.81195e+07
1.81194e+07
1.81193e+07
1.81193e+07
1.81193e+07
1.81192e+07
1.81192e+07
1.81192e+07
1.81191e+07
1.81191e+07
1.81191e+07
1.81191e+07
1.8119e+07
1.8119e+07
1.8119e+07
1.8119e+07
1.8119e+07
1.8119e+07
1.8119e+07
1.8119e+07
1.8119e+07
1.81189e+07
1.81189e+07
1.81189e+07
1.8119e+07
1.8119e+07
1.8119e+07
1.8119e+07
1.8119e+07
1.8119e+07
1.8119e+07
1.81191e+07
1.81191e+07
1.81191e+07
1.81192e+07
1.81193e+07
1.81193e+07
1.81194e+07
1.81195e+07
1.81196e+07
1.81197e+07
1.81198e+07
1.81198e+07
1.81199e+07
1.812e+07
1.812e+07
1.81201e+07
1.81201e+07
1.81201e+07
1.81201e+07
1.81201e+07
1.81201e+07
1.812e+07
1.81199e+07
1.81199e+07
1.81198e+07
1.81197e+07
1.81196e+07
1.81195e+07
1.81194e+07
1.81192e+07
1.81191e+07
1.8119e+07
1.81189e+07
1.81188e+07
1.81187e+07
1.81186e+07
1.81185e+07
1.81183e+07
1.81182e+07
1.81181e+07
1.81179e+07
1.81178e+07
1.81176e+07
1.81175e+07
1.81173e+07
1.81172e+07
1.8117e+07
1.81169e+07
1.81167e+07
1.81165e+07
1.81164e+07
1.81162e+07
1.8116e+07
1.81159e+07
1.81157e+07
1.81155e+07
1.81153e+07
1.81152e+07
1.8115e+07
1.81148e+07
1.81146e+07
1.81145e+07
1.81143e+07
1.81141e+07
1.8114e+07
1.81138e+07
1.81137e+07
1.81135e+07
1.81134e+07
1.81132e+07
1.81131e+07
1.8113e+07
1.81128e+07
1.81127e+07
1.81126e+07
1.81124e+07
1.81123e+07
1.81122e+07
1.8112e+07
1.81119e+07
1.81118e+07
1.81116e+07
1.81114e+07
1.81113e+07
1.81111e+07
1.81109e+07
1.81108e+07
1.81106e+07
1.81104e+07
1.81102e+07
1.811e+07
1.81097e+07
1.81095e+07
1.81093e+07
1.8109e+07
1.81088e+07
1.81085e+07
1.81083e+07
1.8108e+07
1.81078e+07
1.81075e+07
1.81072e+07
1.8107e+07
1.81067e+07
1.81064e+07
1.81062e+07
1.81059e+07
1.81057e+07
1.81054e+07
1.81052e+07
1.81049e+07
1.81047e+07
1.81045e+07
1.81043e+07
1.81041e+07
1.81039e+07
1.81038e+07
1.81036e+07
1.81035e+07
1.81033e+07
1.81032e+07
1.81031e+07
1.8103e+07
1.81029e+07
1.81027e+07
1.81026e+07
1.81025e+07
1.81024e+07
1.81022e+07
1.81021e+07
1.81019e+07
1.81018e+07
1.81016e+07
1.81014e+07
1.81012e+07
1.8101e+07
1.81008e+07
1.81005e+07
1.81003e+07
1.81001e+07
1.80998e+07
1.80996e+07
1.80993e+07
1.8099e+07
1.80988e+07
1.80985e+07
1.80982e+07
1.8098e+07
1.80979e+07
1.80984e+07
1.8084e+07
1.80789e+07
1.80771e+07
1.80767e+07
1.80758e+07
1.80738e+07
1.80711e+07
1.80683e+07
1.80649e+07
1.80618e+07
1.80584e+07
1.80552e+07
1.8052e+07
1.80491e+07
1.80464e+07
1.8044e+07
1.80417e+07
1.80399e+07
1.80387e+07
1.80388e+07
1.80883e+07
1.80871e+07
1.80873e+07
1.80877e+07
1.8087e+07
1.80853e+07
1.80828e+07
1.80804e+07
1.80773e+07
1.80747e+07
1.80717e+07
1.80688e+07
1.80661e+07
1.80635e+07
1.80612e+07
1.8059e+07
1.80571e+07
1.80553e+07
1.80539e+07
1.8053e+07
1.80975e+07
1.80974e+07
1.80969e+07
1.8096e+07
1.80948e+07
1.80934e+07
1.80917e+07
1.80896e+07
1.80874e+07
1.80851e+07
1.80825e+07
1.80795e+07
1.80761e+07
1.80724e+07
1.80684e+07
1.80642e+07
1.80602e+07
1.80565e+07
1.80529e+07
1.80494e+07
1.81022e+07
1.81035e+07
1.81033e+07
1.81026e+07
1.8102e+07
1.81014e+07
1.8101e+07
1.81006e+07
1.80993e+07
1.80965e+07
1.80934e+07
1.80912e+07
1.80897e+07
1.80889e+07
1.80896e+07
1.80922e+07
1.80937e+07
1.80916e+07
1.80851e+07
1.80763e+07
1.81037e+07
1.81064e+07
1.81066e+07
1.81059e+07
1.81052e+07
1.81047e+07
1.81043e+07
1.81039e+07
1.81028e+07
1.81002e+07
1.80972e+07
1.8095e+07
1.80934e+07
1.80923e+07
1.8093e+07
1.80955e+07
1.80976e+07
1.80964e+07
1.8091e+07
1.80824e+07
1.80481e+07
1.80496e+07
1.8049e+07
1.80482e+07
1.80475e+07
1.8047e+07
1.80468e+07
1.80465e+07
1.80463e+07
1.8046e+07
1.80458e+07
1.80456e+07
1.80454e+07
1.80452e+07
1.80451e+07
1.80449e+07
1.80447e+07
1.80446e+07
1.80444e+07
1.80443e+07
1.80441e+07
1.8044e+07
1.80438e+07
1.80437e+07
1.80436e+07
1.80435e+07
1.80433e+07
1.80432e+07
1.80431e+07
1.8043e+07
1.80429e+07
1.80428e+07
1.80426e+07
1.80425e+07
1.80424e+07
1.80423e+07
1.80422e+07
1.8042e+07
1.80419e+07
1.80417e+07
1.80416e+07
1.80414e+07
1.80413e+07
1.80411e+07
1.80409e+07
1.80408e+07
1.80406e+07
1.80404e+07
1.80402e+07
1.804e+07
1.80398e+07
1.80396e+07
1.80394e+07
1.80392e+07
1.8039e+07
1.80388e+07
1.80387e+07
1.80386e+07
1.80384e+07
1.80383e+07
1.80383e+07
1.80382e+07
1.80381e+07
1.80381e+07
1.8038e+07
1.8038e+07
1.80379e+07
1.80379e+07
1.80378e+07
1.80378e+07
1.80377e+07
1.80377e+07
1.80376e+07
1.80375e+07
1.80374e+07
1.80373e+07
1.80372e+07
1.80371e+07
1.8037e+07
1.80369e+07
1.80368e+07
1.80366e+07
1.80365e+07
1.80364e+07
1.80362e+07
1.80361e+07
1.80359e+07
1.80358e+07
1.80356e+07
1.80355e+07
1.80353e+07
1.80352e+07
1.8035e+07
1.80349e+07
1.80347e+07
1.80346e+07
1.80344e+07
1.80342e+07
1.80337e+07
1.80325e+07
1.80507e+07
1.805e+07
1.80491e+07
1.80482e+07
1.80475e+07
1.8047e+07
1.80468e+07
1.80465e+07
1.80463e+07
1.8046e+07
1.80458e+07
1.80456e+07
1.80454e+07
1.80452e+07
1.80451e+07
1.80449e+07
1.80447e+07
1.80446e+07
1.80444e+07
1.80443e+07
1.80441e+07
1.8044e+07
1.80438e+07
1.80437e+07
1.80436e+07
1.80435e+07
1.80433e+07
1.80432e+07
1.80431e+07
1.8043e+07
1.80429e+07
1.80428e+07
1.80426e+07
1.80425e+07
1.80424e+07
1.80423e+07
1.80422e+07
1.8042e+07
1.80419e+07
1.80417e+07
1.80416e+07
1.80414e+07
1.80413e+07
1.80411e+07
1.80409e+07
1.80408e+07
1.80406e+07
1.80404e+07
1.80402e+07
1.804e+07
1.80398e+07
1.80396e+07
1.80394e+07
1.80392e+07
1.8039e+07
1.80388e+07
1.80387e+07
1.80386e+07
1.80384e+07
1.80383e+07
1.80383e+07
1.80382e+07
1.80381e+07
1.80381e+07
1.8038e+07
1.8038e+07
1.80379e+07
1.80379e+07
1.80378e+07
1.80378e+07
1.80377e+07
1.80377e+07
1.80376e+07
1.80375e+07
1.80374e+07
1.80373e+07
1.80372e+07
1.80371e+07
1.8037e+07
1.80369e+07
1.80368e+07
1.80366e+07
1.80365e+07
1.80364e+07
1.80362e+07
1.80361e+07
1.80359e+07
1.80358e+07
1.80356e+07
1.80355e+07
1.80353e+07
1.80352e+07
1.8035e+07
1.80349e+07
1.80347e+07
1.80346e+07
1.80344e+07
1.80342e+07
1.80337e+07
1.80325e+07
1.8041e+07
1.80453e+07
1.80477e+07
1.80477e+07
1.80472e+07
1.80469e+07
1.80467e+07
1.80465e+07
1.80462e+07
1.8046e+07
1.80458e+07
1.80456e+07
1.80454e+07
1.80452e+07
1.8045e+07
1.80449e+07
1.80447e+07
1.80445e+07
1.80444e+07
1.80442e+07
1.80441e+07
1.8044e+07
1.80438e+07
1.80437e+07
1.80436e+07
1.80435e+07
1.80433e+07
1.80432e+07
1.80431e+07
1.8043e+07
1.80429e+07
1.80428e+07
1.80426e+07
1.80425e+07
1.80424e+07
1.80423e+07
1.80422e+07
1.8042e+07
1.80419e+07
1.80417e+07
1.80416e+07
1.80414e+07
1.80413e+07
1.80411e+07
1.80409e+07
1.80407e+07
1.80405e+07
1.80403e+07
1.80401e+07
1.80399e+07
1.80397e+07
1.80395e+07
1.80393e+07
1.80391e+07