/*--------------------------------*- C++ -*----------------------------------*\
| =========                 |                                                 |
| \\      /  F ield         | OpenFOAM: The Open Source CFD Toolbox           |
|  \\    /   O peration     | Version:  3.0.x                                 |
|   \\  /    A nd           | Web:      www.OpenFOAM.org                      |
|    \\/     M anipulation  |                                                 |
\*---------------------------------------------------------------------------*/
FoamFile
{
    version     2.0;
    format      ascii;
    class       volVectorField;
    location    "0.29";
    object      U;
}
// * * * * * * * * * * * * * * * * * * * * * * * * * * * * * * * * * * * * * //

dimensions      [0 1 -1 0 0 0 0];

internalField   nonuniform List<vector> 
6900
(
(42.6986 0.00010113 0)
(42.6975 9.25478e-05 0)
(42.6963 8.99809e-05 0)
(42.6951 9.0893e-05 0)
(42.6938 9.16469e-05 0)
(42.6925 9.2081e-05 0)
(42.6911 9.24135e-05 0)
(42.6897 9.26985e-05 0)
(42.6882 9.29257e-05 0)
(42.6866 9.31051e-05 0)
(42.6849 9.32488e-05 0)
(42.6831 9.33659e-05 0)
(42.6812 9.34603e-05 0)
(42.6792 9.35426e-05 0)
(42.6771 9.36148e-05 0)
(42.6749 9.36791e-05 0)
(42.6727 9.3771e-05 0)
(42.6704 9.37868e-05 0)
(42.668 9.38669e-05 0)
(42.6657 9.39312e-05 0)
(42.6633 9.3993e-05 0)
(42.6608 9.40534e-05 0)
(42.6584 9.41113e-05 0)
(42.656 9.41659e-05 0)
(42.6537 9.42159e-05 0)
(42.6514 9.42596e-05 0)
(42.6492 9.42947e-05 0)
(42.647 9.43173e-05 0)
(42.6449 9.43213e-05 0)
(42.643 9.42984e-05 0)
(42.6411 9.42338e-05 0)
(42.6393 9.41197e-05 0)
(42.6376 9.39188e-05 0)
(42.636 9.36056e-05 0)
(42.6344 9.31501e-05 0)
(42.633 9.25026e-05 0)
(42.6316 9.16139e-05 0)
(42.6303 9.0435e-05 0)
(42.629 8.89126e-05 0)
(42.6277 8.69975e-05 0)
(42.6265 8.46494e-05 0)
(42.6253 8.18404e-05 0)
(42.6241 7.85583e-05 0)
(42.6228 7.48104e-05 0)
(42.6216 7.06247e-05 0)
(42.6203 6.60517e-05 0)
(42.6189 6.11555e-05 0)
(42.6175 5.60268e-05 0)
(42.6161 5.07589e-05 0)
(42.6145 4.54538e-05 0)
(42.6129 4.02138e-05 0)
(42.6113 3.51352e-05 0)
(42.6095 3.03034e-05 0)
(42.6077 2.57893e-05 0)
(42.6057 2.16465e-05 0)
(42.6037 1.79103e-05 0)
(42.6016 1.45982e-05 0)
(42.5995 1.17111e-05 0)
(42.5972 9.23556e-06 0)
(42.595 7.14703e-06 0)
(42.5926 5.41266e-06 0)
(42.5903 3.99448e-06 0)
(42.5879 2.85222e-06 0)
(42.5855 1.94607e-06 0)
(42.5831 1.23811e-06 0)
(42.5806 6.93566e-07 0)
(42.5782 2.83181e-07 0)
(42.5758 -2.56065e-08 0)
(42.5734 -2.55332e-07 0)
(42.571 -4.21335e-07 0)
(42.5686 -5.4021e-07 0)
(42.5662 -6.24421e-07 0)
(42.5638 -6.83426e-07 0)
(42.5613 -7.24329e-07 0)
(42.5588 -7.5239e-07 0)
(42.5562 -7.71444e-07 0)
(42.5535 -7.84264e-07 0)
(42.5507 -7.92803e-07 0)
(42.5478 -7.98445e-07 0)
(42.5447 -8.02086e-07 0)
(42.5414 -8.04385e-07 0)
(42.538 -8.05783e-07 0)
(42.5343 -8.0655e-07 0)
(42.5304 -8.06835e-07 0)
(42.5263 -8.06738e-07 0)
(42.522 -8.06392e-07 0)
(42.5174 -8.05915e-07 0)
(42.5125 -8.05387e-07 0)
(42.5074 -8.04838e-07 0)
(42.5021 -8.04302e-07 0)
(42.4966 -8.03809e-07 0)
(42.4909 -8.03417e-07 0)
(42.485 -8.03167e-07 0)
(42.479 -8.03082e-07 0)
(42.4728 -8.0315e-07 0)
(42.4666 -8.03332e-07 0)
(42.4603 -8.03552e-07 0)
(42.4539 -8.03763e-07 0)
(42.4476 -8.03955e-07 0)
(42.4413 -8.0416e-07 0)
(42.435 -8.04448e-07 0)
(42.4289 -8.04846e-07 0)
(42.4228 -8.05325e-07 0)
(42.4168 -8.05813e-07 0)
(42.411 -8.0631e-07 0)
(42.4052 -8.06864e-07 0)
(42.3996 -8.07449e-07 0)
(42.394 -8.07998e-07 0)
(42.3886 -8.08433e-07 0)
(42.3832 -8.0869e-07 0)
(42.3779 -8.08794e-07 0)
(42.3725 -8.08696e-07 0)
(42.3672 -8.0839e-07 0)
(42.3619 -8.0789e-07 0)
(42.3565 -8.07211e-07 0)
(42.3511 -8.06381e-07 0)
(42.3455 -8.05409e-07 0)
(42.3397 -8.04301e-07 0)
(42.3338 -8.03074e-07 0)
(42.3277 -8.01795e-07 0)
(42.3213 -8.00337e-07 0)
(42.3148 -7.98667e-07 0)
(42.3079 -7.96773e-07 0)
(42.3008 -7.94839e-07 0)
(42.2934 -7.93024e-07 0)
(42.2857 -7.91327e-07 0)
(42.2778 -7.897e-07 0)
(42.2697 -7.88151e-07 0)
(42.2613 -7.86752e-07 0)
(42.2527 -7.85563e-07 0)
(42.2441 -7.84622e-07 0)
(42.2353 -7.83877e-07 0)
(42.2265 -7.833e-07 0)
(42.2177 -7.82892e-07 0)
(42.2089 -7.82668e-07 0)
(42.2002 -7.82643e-07 0)
(42.1917 -7.8281e-07 0)
(42.1833 -7.83271e-07 0)
(42.1751 -7.83655e-07 0)
(42.1671 -7.83844e-07 0)
(42.1594 -7.83908e-07 0)
(42.1518 -7.83969e-07 0)
(42.1445 -7.8404e-07 0)
(42.1373 -7.83957e-07 0)
(42.1304 -7.83584e-07 0)
(42.1236 -7.82935e-07 0)
(42.117 -7.81917e-07 0)
(42.1105 -7.80657e-07 0)
(42.1041 -7.79053e-07 0)
(42.0978 -7.77287e-07 0)
(42.0916 -7.75098e-07 0)
(42.0854 -7.72514e-07 0)
(42.0792 -7.69505e-07 0)
(42.0731 -7.66157e-07 0)
(42.0669 -7.62723e-07 0)
(42.0606 -7.58751e-07 0)
(42.0543 -7.5404e-07 0)
(42.0479 -7.48902e-07 0)
(42.0413 -7.44273e-07 0)
(42.0346 -7.39474e-07 0)
(42.0277 -7.34953e-07 0)
(42.0207 -7.29872e-07 0)
(42.0136 -7.25337e-07 0)
(42.0065 -7.20543e-07 0)
(41.9992 -7.16682e-07 0)
(41.992 -7.131e-07 0)
(41.9849 -7.10076e-07 0)
(41.9779 -7.07773e-07 0)
(41.9712 -7.06292e-07 0)
(41.9648 -7.05105e-07 0)
(41.9588 -7.055e-07 0)
(41.9534 -7.06406e-07 0)
(41.9485 -7.0791e-07 0)
(41.9442 -7.05064e-07 0)
(41.9404 -7.09611e-07 0)
(41.9373 -7.08168e-07 0)
(41.9348 -7.12389e-07 0)
(41.9328 -7.11638e-07 0)
(41.9312 -7.13754e-07 0)
(41.93 -7.12349e-07 0)
(41.9292 -7.14604e-07 0)
(41.9286 -7.11342e-07 0)
(41.9282 -7.13259e-07 0)
(41.9279 -7.09876e-07 0)
(41.9278 -7.11366e-07 0)
(41.9277 -7.07815e-07 0)
(41.9278 -7.09542e-07 0)
(41.928 -7.06789e-07 0)
(41.9282 -7.06881e-07 0)
(41.9285 -7.03994e-07 0)
(41.9287 -7.01675e-07 0)
(41.9288 -6.8052e-07 0)
(41.9287 -5.96155e-07 0)
(41.9282 4.08511e-08 0)
(41.9272 4.70073e-06 0)
(41.9251 3.72672e-05 0)
(41.9176 0.000265432 0)
(41.8761 0.00186115 0)
(41.6952 0.0164408 0)
(39.1777 0.0852993 0)
(42.7003 0.000128285 0)
(42.701 9.89738e-05 0)
(42.7017 8.6049e-05 0)
(42.7022 8.53975e-05 0)
(42.7027 8.54093e-05 0)
(42.7032 8.50358e-05 0)
(42.7037 8.4764e-05 0)
(42.704 8.46267e-05 0)
(42.7043 8.45336e-05 0)
(42.7045 8.44655e-05 0)
(42.7046 8.44184e-05 0)
(42.7045 8.43886e-05 0)
(42.7044 8.43673e-05 0)
(42.7042 8.43613e-05 0)
(42.704 8.43642e-05 0)
(42.7036 8.4373e-05 0)
(42.7031 8.44366e-05 0)
(42.7026 8.43938e-05 0)
(42.7021 8.44604e-05 0)
(42.7015 8.45054e-05 0)
(42.7009 8.45511e-05 0)
(42.7003 8.45994e-05 0)
(42.6997 8.46486e-05 0)
(42.6991 8.4697e-05 0)
(42.6986 8.47432e-05 0)
(42.6981 8.47853e-05 0)
(42.6976 8.4821e-05 0)
(42.6973 8.48463e-05 0)
(42.697 8.48555e-05 0)
(42.6969 8.48414e-05 0)
(42.6968 8.47886e-05 0)
(42.6968 8.46968e-05 0)
(42.6969 8.45223e-05 0)
(42.6971 8.42486e-05 0)
(42.6973 8.38484e-05 0)
(42.6976 8.32744e-05 0)
(42.698 8.24824e-05 0)
(42.6985 8.14304e-05 0)
(42.6989 8.00687e-05 0)
(42.6993 7.83522e-05 0)
(42.6997 7.62446e-05 0)
(42.7001 7.37207e-05 0)
(42.7004 7.07692e-05 0)
(42.7007 6.73965e-05 0)
(42.7008 6.36282e-05 0)
(42.7008 5.95104e-05 0)
(42.7007 5.50977e-05 0)
(42.7004 5.04768e-05 0)
(42.7 4.57299e-05 0)
(42.6994 4.09489e-05 0)
(42.6986 3.62266e-05 0)
(42.6977 3.16498e-05 0)
(42.6965 2.72959e-05 0)
(42.6952 2.32287e-05 0)
(42.6937 1.94964e-05 0)
(42.6921 1.6131e-05 0)
(42.6903 1.3148e-05 0)
(42.6884 1.05482e-05 0)
(42.6864 8.31948e-06 0)
(42.6843 6.43973e-06 0)
(42.682 4.87947e-06 0)
(42.6798 3.60466e-06 0)
(42.6774 2.57908e-06 0)
(42.6751 1.76638e-06 0)
(42.6727 1.1314e-06 0)
(42.6703 6.42065e-07 0)
(42.6679 2.70786e-07 0)
(42.6655 -8.9535e-09 0)
(42.6631 -2.16017e-07 0)
(42.6607 -3.66755e-07 0)
(42.6583 -4.75505e-07 0)
(42.6558 -5.53069e-07 0)
(42.6534 -6.07826e-07 0)
(42.6509 -6.46122e-07 0)
(42.6484 -6.72689e-07 0)
(42.6458 -6.90983e-07 0)
(42.643 -7.03493e-07 0)
(42.6402 -7.11992e-07 0)
(42.6373 -7.1772e-07 0)
(42.6342 -7.21512e-07 0)
(42.6309 -7.23967e-07 0)
(42.6274 -7.25483e-07 0)
(42.6238 -7.26304e-07 0)
(42.6199 -7.26561e-07 0)
(42.6157 -7.26373e-07 0)
(42.6114 -7.25906e-07 0)
(42.6068 -7.25311e-07 0)
(42.6019 -7.24657e-07 0)
(42.5968 -7.23992e-07 0)
(42.5915 -7.23375e-07 0)
(42.5859 -7.22876e-07 0)
(42.5802 -7.22556e-07 0)
(42.5743 -7.22467e-07 0)
(42.5682 -7.2266e-07 0)
(42.5621 -7.23135e-07 0)
(42.5558 -7.23841e-07 0)
(42.5495 -7.24708e-07 0)
(42.5431 -7.25704e-07 0)
(42.5368 -7.26812e-07 0)
(42.5305 -7.28059e-07 0)
(42.5242 -7.29502e-07 0)
(42.518 -7.31118e-07 0)
(42.5119 -7.32836e-07 0)
(42.5059 -7.34566e-07 0)
(42.5 -7.36311e-07 0)
(42.4943 -7.38111e-07 0)
(42.4886 -7.39918e-07 0)
(42.4831 -7.4162e-07 0)
(42.4776 -7.4311e-07 0)
(42.4722 -7.44352e-07 0)
(42.4668 -7.4531e-07 0)
(42.4615 -7.45941e-07 0)
(42.4562 -7.46229e-07 0)
(42.4509 -7.46181e-07 0)
(42.4455 -7.45818e-07 0)
(42.44 -7.45164e-07 0)
(42.4344 -7.44224e-07 0)
(42.4286 -7.43015e-07 0)
(42.4227 -7.41568e-07 0)
(42.4165 -7.39983e-07 0)
(42.4102 -7.38102e-07 0)
(42.4036 -7.35912e-07 0)
(42.3967 -7.33463e-07 0)
(42.3896 -7.31016e-07 0)
(42.3822 -7.28779e-07 0)
(42.3745 -7.26736e-07 0)
(42.3665 -7.24858e-07 0)
(42.3584 -7.23206e-07 0)
(42.35 -7.21908e-07 0)
(42.3414 -7.2107e-07 0)
(42.3327 -7.20709e-07 0)
(42.324 -7.2079e-07 0)
(42.3151 -7.21294e-07 0)
(42.3063 -7.22227e-07 0)
(42.2975 -7.23603e-07 0)
(42.2888 -7.25395e-07 0)
(42.2803 -7.27536e-07 0)
(42.2719 -7.30147e-07 0)
(42.2637 -7.3261e-07 0)
(42.2557 -7.34788e-07 0)
(42.2479 -7.36835e-07 0)
(42.2403 -7.3882e-07 0)
(42.2329 -7.40682e-07 0)
(42.2258 -7.42142e-07 0)
(42.2188 -7.43009e-07 0)
(42.212 -7.43307e-07 0)
(42.2054 -7.4291e-07 0)
(42.1989 -7.42007e-07 0)
(42.1925 -7.40436e-07 0)
(42.1862 -7.38464e-07 0)
(42.1799 -7.3577e-07 0)
(42.1737 -7.3243e-07 0)
(42.1675 -7.28366e-07 0)
(42.1614 -7.23488e-07 0)
(42.1552 -7.18617e-07 0)
(42.1489 -7.12555e-07 0)
(42.1425 -7.06212e-07 0)
(42.1361 -6.97805e-07 0)
(42.1295 -6.92083e-07 0)
(42.1228 -6.83706e-07 0)
(42.1159 -6.77234e-07 0)
(42.1089 -6.68957e-07 0)
(42.1018 -6.62154e-07 0)
(42.0946 -6.54203e-07 0)
(42.0874 -6.48254e-07 0)
(42.0801 -6.42641e-07 0)
(42.073 -6.38036e-07 0)
(42.066 -6.34814e-07 0)
(42.0593 -6.33167e-07 0)
(42.0529 -6.31647e-07 0)
(42.0469 -6.33747e-07 0)
(42.0414 -6.35189e-07 0)
(42.0365 -6.3939e-07 0)
(42.0322 -6.29933e-07 0)
(42.0284 -6.46073e-07 0)
(42.0253 -6.37187e-07 0)
(42.0227 -6.50743e-07 0)
(42.0207 -6.46673e-07 0)
(42.0191 -6.52562e-07 0)
(42.018 -6.46938e-07 0)
(42.0171 -6.55861e-07 0)
(42.0165 -6.45824e-07 0)
(42.016 -6.54246e-07 0)
(42.0157 -6.42223e-07 0)
(42.0156 -6.50482e-07 0)
(42.0156 -6.38617e-07 0)
(42.0156 -6.4522e-07 0)
(42.0158 -6.37553e-07 0)
(42.016 -6.38962e-07 0)
(42.0163 -6.31152e-07 0)
(42.0165 -6.21086e-07 0)
(42.0166 -5.26962e-07 0)
(42.0164 6.66084e-08 0)
(42.0159 4.07018e-06 0)
(42.0149 3.2098e-05 0)
(42.0128 0.000227399 0)
(42.0054 0.00158972 0)
(41.965 0.0109742 0)
(41.7891 0.0776297 0)
(39.8363 0.368203 0)
(42.7003 -1.90854e-12 0)
(42.701 -3.42093e-12 0)
(42.7016 -4.11736e-12 0)
(42.7022 -4.47013e-12 0)
(42.7027 -4.07598e-12 0)
(42.7032 -3.67398e-12 0)
(42.7036 -5.24461e-12 0)
(42.704 -4.44701e-12 0)
(42.7043 -1.8674e-12 0)
(42.7044 3.68655e-13 0)
(42.7045 1.53962e-12 0)
(42.7045 9.20893e-13 0)
(42.7044 -9.0385e-13 0)
(42.7042 -5.41829e-12 0)
(42.7039 -8.47343e-12 0)
(42.7036 -1.07753e-11 0)
(42.7031 -1.19842e-11 0)
(42.7026 -1.24933e-11 0)
(42.7021 -1.09702e-11 0)
(42.7015 -8.55614e-12 0)
(42.7009 -7.64022e-12 0)
(42.7003 -7.71426e-12 0)
(42.6997 -7.26722e-12 0)
(42.6991 -6.84453e-12 0)
(42.6985 -8.00264e-12 0)
(42.698 -8.69935e-12 0)
(42.6976 -9.16444e-12 0)
(42.6973 -1.03444e-11 0)
(42.697 -9.46005e-12 0)
(42.6968 -1.03154e-11 0)
(42.6968 -1.12162e-11 0)
(42.6968 -1.22902e-11 0)
(42.6969 -1.34959e-11 0)
(42.6971 -1.63782e-11 0)
(42.6973 -1.71073e-11 0)
(42.6976 -1.79956e-11 0)
(42.698 -2.04121e-11 0)
(42.6984 -1.9566e-11 0)
(42.6989 -1.86732e-11 0)
(42.6993 -1.92075e-11 0)
(42.6997 -1.92029e-11 0)
(42.7001 -1.89801e-11 0)
(42.7004 -1.78769e-11 0)
(42.7007 -1.74273e-11 0)
(42.7008 -1.55549e-11 0)
(42.7008 -1.39163e-11 0)
(42.7007 -1.36134e-11 0)
(42.7004 -1.52296e-11 0)
(42.7 -1.60974e-11 0)
(42.6994 -1.7529e-11 0)
(42.6986 -1.85025e-11 0)
(42.6977 -1.6919e-11 0)
(42.6965 -1.54321e-11 0)
(42.6952 -1.32016e-11 0)
(42.6937 -1.3378e-11 0)
(42.6921 -1.37299e-11 0)
(42.6903 -1.5506e-11 0)
(42.6884 -1.53395e-11 0)
(42.6864 -1.66076e-11 0)
(42.6843 -1.56657e-11 0)
(42.6821 -1.27476e-11 0)
(42.6798 -9.63172e-12 0)
(42.6775 -6.49968e-12 0)
(42.6751 -3.75516e-12 0)
(42.6727 -2.09485e-12 0)
(42.6703 5.9617e-13 0)
(42.6679 3.24948e-12 0)
(42.6655 3.25794e-12 0)
(42.6631 2.63011e-12 0)
(42.6607 7.2721e-13 0)
(42.6583 1.00862e-12 0)
(42.6559 1.44725e-12 0)
(42.6534 8.50554e-14 0)
(42.6509 1.65417e-12 0)
(42.6484 2.61527e-12 0)
(42.6458 3.19477e-12 0)
(42.6431 3.5502e-12 0)
(42.6402 3.00644e-12 0)
(42.6373 2.34776e-12 0)
(42.6342 3.64671e-13 0)
(42.6309 -3.70315e-12 0)
(42.6274 -5.57266e-12 0)
(42.6238 -7.22963e-12 0)
(42.6199 -8.56971e-12 0)
(42.6157 -9.75457e-12 0)
(42.6114 -1.0426e-11 0)
(42.6068 -1.16845e-11 0)
(42.6019 -1.24247e-11 0)
(42.5968 -1.46262e-11 0)
(42.5915 -1.55113e-11 0)
(42.586 -1.57317e-11 0)
(42.5802 -1.58803e-11 0)
(42.5743 -1.66191e-11 0)
(42.5683 -1.87398e-11 0)
(42.5621 -1.92607e-11 0)
(42.5558 -1.96771e-11 0)
(42.5495 -2.02876e-11 0)
(42.5432 -2.06254e-11 0)
(42.5368 -2.08977e-11 0)
(42.5305 -2.00404e-11 0)
(42.5242 -1.9451e-11 0)
(42.518 -1.80364e-11 0)
(42.5119 -1.65038e-11 0)
(42.5059 -1.65476e-11 0)
(42.5001 -1.68045e-11 0)
(42.4943 -1.77837e-11 0)
(42.4886 -2.16783e-11 0)
(42.4831 -2.39233e-11 0)
(42.4776 -2.27749e-11 0)
(42.4722 -2.2366e-11 0)
(42.4669 -2.07199e-11 0)
(42.4615 -1.75909e-11 0)
(42.4562 -1.38799e-11 0)
(42.4509 -1.05397e-11 0)
(42.4455 -9.49747e-12 0)
(42.44 -8.26528e-12 0)
(42.4344 -6.29267e-12 0)
(42.4286 -4.12894e-12 0)
(42.4227 -3.05663e-12 0)
(42.4166 -2.09424e-12 0)
(42.4102 -1.79832e-12 0)
(42.4036 -4.38886e-13 0)
(42.3967 5.13155e-13 0)
(42.3896 1.01635e-12 0)
(42.3822 1.48654e-12 0)
(42.3745 2.57163e-12 0)
(42.3666 2.59111e-12 0)
(42.3584 3.61691e-12 0)
(42.35 4.09964e-12 0)
(42.3415 3.88265e-12 0)
(42.3328 4.85025e-12 0)
(42.324 7.62796e-12 0)
(42.3151 9.20434e-12 0)
(42.3063 1.07688e-11 0)
(42.2975 1.19583e-11 0)
(42.2888 1.3265e-11 0)
(42.2803 1.43914e-11 0)
(42.2719 1.43392e-11 0)
(42.2637 1.33744e-11 0)
(42.2557 1.11369e-11 0)
(42.2479 1.14516e-11 0)
(42.2403 9.82838e-12 0)
(42.233 1.20952e-11 0)
(42.2258 6.69256e-12 0)
(42.2188 1.34944e-11 0)
(42.212 -1.81981e-12 0)
(42.2054 1.43257e-11 0)
(42.1989 -1.36102e-11 0)
(42.1925 1.48111e-11 0)
(42.1862 -1.82066e-11 0)
(42.1799 -2.98812e-11 0)
(42.1737 -1.59798e-10 0)
(42.1676 -2.30713e-10 0)
(42.1614 -8.36857e-11 0)
(42.1552 -2.83297e-10 0)
(42.1489 1.50462e-10 0)
(42.1426 -1.90991e-09 0)
(42.1361 8.22767e-10 0)
(42.1295 -2.67409e-09 0)
(42.1228 6.40915e-10 0)
(42.1159 -2.87769e-09 0)
(42.1089 6.68849e-10 0)
(42.1018 -2.64005e-09 0)
(42.0946 -6.6125e-10 0)
(42.0874 -2.08214e-09 0)
(42.0801 -1.37814e-09 0)
(42.073 -7.2492e-10 0)
(42.066 -6.31244e-10 0)
(42.0593 -4.11676e-10 0)
(42.0529 1.88882e-09 0)
(42.0469 -2.6111e-09 0)
(42.0414 -2.12093e-10 0)
(42.0365 -7.66235e-09 0)
(42.0322 4.04877e-09 0)
(42.0284 -2.61908e-08 0)
(42.0253 1.47497e-08 0)
(42.0228 -2.56827e-08 0)
(42.0207 1.20375e-08 0)
(42.0192 -2.12395e-08 0)
(42.018 -4.38937e-09 0)
(42.0171 -2.88291e-08 0)
(42.0165 6.86482e-09 0)
(42.016 -2.8524e-08 0)
(42.0158 1.55314e-09 0)
(42.0156 -3.57482e-08 0)
(42.0156 9.90087e-09 0)
(42.0156 -2.81641e-08 0)
(42.0158 2.21387e-09 0)
(42.016 -3.08961e-08 0)
(42.0163 8.2002e-09 0)
(42.0165 -1.20705e-08 0)
(42.0166 1.83228e-07 0)
(42.0164 1.26306e-06 0)
(42.0159 9.22525e-06 0)
(42.0151 6.52745e-05 0)
(42.0138 0.000459728 0)
(42.0117 0.00325387 0)
(42.0074 0.0228162 0)
(41.9879 0.159718 0)
(41.8345 0.730731 0)
(42.7003 -0.000128285 0)
(42.701 -9.89738e-05 0)
(42.7017 -8.6049e-05 0)
(42.7022 -8.53975e-05 0)
(42.7027 -8.54093e-05 0)
(42.7032 -8.50358e-05 0)
(42.7037 -8.4764e-05 0)
(42.704 -8.46267e-05 0)
(42.7043 -8.45336e-05 0)
(42.7045 -8.44655e-05 0)
(42.7046 -8.44184e-05 0)
(42.7045 -8.43886e-05 0)
(42.7044 -8.43673e-05 0)
(42.7042 -8.43613e-05 0)
(42.704 -8.43642e-05 0)
(42.7036 -8.4373e-05 0)
(42.7031 -8.44366e-05 0)
(42.7026 -8.43938e-05 0)
(42.7021 -8.44604e-05 0)
(42.7015 -8.45054e-05 0)
(42.7009 -8.45511e-05 0)
(42.7003 -8.45994e-05 0)
(42.6997 -8.46486e-05 0)
(42.6991 -8.4697e-05 0)
(42.6986 -8.47432e-05 0)
(42.6981 -8.47853e-05 0)
(42.6976 -8.4821e-05 0)
(42.6973 -8.48463e-05 0)
(42.697 -8.48555e-05 0)
(42.6969 -8.48414e-05 0)
(42.6968 -8.47886e-05 0)
(42.6968 -8.46968e-05 0)
(42.6969 -8.45223e-05 0)
(42.6971 -8.42486e-05 0)
(42.6973 -8.38484e-05 0)
(42.6976 -8.32744e-05 0)
(42.698 -8.24824e-05 0)
(42.6985 -8.14304e-05 0)
(42.6989 -8.00687e-05 0)
(42.6993 -7.83522e-05 0)
(42.6997 -7.62446e-05 0)
(42.7001 -7.37207e-05 0)
(42.7004 -7.07692e-05 0)
(42.7007 -6.73965e-05 0)
(42.7008 -6.36282e-05 0)
(42.7008 -5.95104e-05 0)
(42.7007 -5.50977e-05 0)
(42.7004 -5.04768e-05 0)
(42.7 -4.57299e-05 0)
(42.6994 -4.09489e-05 0)
(42.6986 -3.62266e-05 0)
(42.6977 -3.16498e-05 0)
(42.6965 -2.72959e-05 0)
(42.6952 -2.32286e-05 0)
(42.6937 -1.94964e-05 0)
(42.6921 -1.6131e-05 0)
(42.6903 -1.3148e-05 0)
(42.6884 -1.05482e-05 0)
(42.6864 -8.31948e-06 0)
(42.6843 -6.43973e-06 0)
(42.682 -4.87947e-06 0)
(42.6798 -3.60466e-06 0)
(42.6774 -2.57908e-06 0)
(42.6751 -1.76638e-06 0)
(42.6727 -1.1314e-06 0)
(42.6703 -6.42067e-07 0)
(42.6679 -2.70791e-07 0)
(42.6655 8.94989e-09 0)
(42.6631 2.16016e-07 0)
(42.6607 3.66751e-07 0)
(42.6583 4.75501e-07 0)
(42.6558 5.53069e-07 0)
(42.6534 6.07823e-07 0)
(42.6509 6.46118e-07 0)
(42.6484 6.72686e-07 0)
(42.6458 6.90981e-07 0)
(42.643 7.03494e-07 0)
(42.6402 7.11993e-07 0)
(42.6373 7.1772e-07 0)
(42.6342 7.21518e-07 0)
(42.6309 7.23975e-07 0)
(42.6274 7.25487e-07 0)
(42.6238 7.26307e-07 0)
(42.6199 7.26562e-07 0)
(42.6157 7.26375e-07 0)
(42.6114 7.25909e-07 0)
(42.6068 7.25311e-07 0)
(42.6019 7.2466e-07 0)
(42.5968 7.23993e-07 0)
(42.5915 7.23376e-07 0)
(42.5859 7.22878e-07 0)
(42.5802 7.22557e-07 0)
(42.5743 7.2247e-07 0)
(42.5682 7.22661e-07 0)
(42.5621 7.23136e-07 0)
(42.5558 7.23842e-07 0)
(42.5495 7.24711e-07 0)
(42.5431 7.25709e-07 0)
(42.5368 7.26814e-07 0)
(42.5305 7.28062e-07 0)
(42.5242 7.29508e-07 0)
(42.518 7.31124e-07 0)
(42.5119 7.32843e-07 0)
(42.5059 7.34569e-07 0)
(42.5 7.3631e-07 0)
(42.4943 7.38114e-07 0)
(42.4886 7.39923e-07 0)
(42.4831 7.41624e-07 0)
(42.4776 7.43114e-07 0)
(42.4722 7.44356e-07 0)
(42.4668 7.45312e-07 0)
(42.4615 7.4594e-07 0)
(42.4562 7.46229e-07 0)
(42.4509 7.46184e-07 0)
(42.4455 7.45819e-07 0)
(42.44 7.45164e-07 0)
(42.4344 7.44227e-07 0)
(42.4286 7.43016e-07 0)
(42.4227 7.41567e-07 0)
(42.4165 7.39986e-07 0)
(42.4102 7.38103e-07 0)
(42.4036 7.35915e-07 0)
(42.3967 7.33462e-07 0)
(42.3896 7.31017e-07 0)
(42.3822 7.28777e-07 0)
(42.3745 7.26734e-07 0)
(42.3665 7.24855e-07 0)
(42.3584 7.23204e-07 0)
(42.35 7.21907e-07 0)
(42.3414 7.21069e-07 0)
(42.3327 7.20706e-07 0)
(42.324 7.2079e-07 0)
(42.3151 7.2129e-07 0)
(42.3063 7.22228e-07 0)
(42.2975 7.23601e-07 0)
(42.2888 7.25389e-07 0)
(42.2803 7.27533e-07 0)
(42.2719 7.30144e-07 0)
(42.2637 7.32609e-07 0)
(42.2557 7.34785e-07 0)
(42.2479 7.36835e-07 0)
(42.2403 7.38816e-07 0)
(42.2329 7.40686e-07 0)
(42.2258 7.42133e-07 0)
(42.2188 7.43022e-07 0)
(42.212 7.43284e-07 0)
(42.2054 7.42936e-07 0)
(42.1989 7.4197e-07 0)
(42.1925 7.40466e-07 0)
(42.1862 7.38419e-07 0)
(42.1799 7.35789e-07 0)
(42.1737 7.32361e-07 0)
(42.1675 7.28277e-07 0)
(42.1614 7.23523e-07 0)
(42.1552 7.18305e-07 0)
(42.1489 7.1334e-07 0)
(42.1425 7.04027e-07 0)
(42.1361 6.99528e-07 0)
(42.1295 6.89369e-07 0)
(42.1228 6.8586e-07 0)
(42.1159 6.74348e-07 0)
(42.1089 6.70916e-07 0)
(42.1018 6.59558e-07 0)
(42.0946 6.55043e-07 0)
(42.0874 6.47011e-07 0)
(42.0801 6.4222e-07 0)
(42.073 6.38054e-07 0)
(42.066 6.34828e-07 0)
(42.0593 6.32855e-07 0)
(42.0529 6.34472e-07 0)
(42.0469 6.30428e-07 0)
(42.0414 6.37657e-07 0)
(42.0365 6.29434e-07 0)
(42.0322 6.4281e-07 0)
(42.0284 6.17168e-07 0)
(42.0253 6.61834e-07 0)
(42.0227 6.20755e-07 0)
(42.0207 6.68345e-07 0)
(42.0191 6.29671e-07 0)
(42.018 6.57094e-07 0)
(42.0171 6.25579e-07 0)
(42.0165 6.65982e-07 0)
(42.016 6.24587e-07 0)
(42.0157 6.588e-07 0)
(42.0156 6.14184e-07 0)
(42.0156 6.64492e-07 0)
(42.0156 6.17391e-07 0)
(42.0158 6.53268e-07 0)
(42.016 6.08747e-07 0)
(42.0163 6.57033e-07 0)
(42.0165 6.17116e-07 0)
(42.0166 7.70126e-07 0)
(42.0164 1.45426e-06 0)
(42.016 6.91321e-06 0)
(42.0153 4.56577e-05 0)
(42.0151 0.000319831 0)
(42.0211 0.00229224 0)
(42.0747 0.0165347 0)
(42.2781 0.135067 0)
(45.4087 0.56856 0)
(42.6986 -0.00010113 0)
(42.6975 -9.25478e-05 0)
(42.6963 -8.99809e-05 0)
(42.6951 -9.0893e-05 0)
(42.6938 -9.16469e-05 0)
(42.6925 -9.20811e-05 0)
(42.6911 -9.24135e-05 0)
(42.6897 -9.26985e-05 0)
(42.6882 -9.29257e-05 0)
(42.6866 -9.31051e-05 0)
(42.6849 -9.32488e-05 0)
(42.6831 -9.33659e-05 0)
(42.6812 -9.34603e-05 0)
(42.6792 -9.35426e-05 0)
(42.6771 -9.36148e-05 0)
(42.6749 -9.36791e-05 0)
(42.6727 -9.3771e-05 0)
(42.6704 -9.37868e-05 0)
(42.668 -9.38669e-05 0)
(42.6657 -9.39312e-05 0)
(42.6633 -9.3993e-05 0)
(42.6608 -9.40534e-05 0)
(42.6584 -9.41113e-05 0)
(42.656 -9.41659e-05 0)
(42.6537 -9.42159e-05 0)
(42.6514 -9.42596e-05 0)
(42.6492 -9.42948e-05 0)
(42.647 -9.43173e-05 0)
(42.6449 -9.43213e-05 0)
(42.643 -9.42984e-05 0)
(42.6411 -9.42338e-05 0)
(42.6393 -9.41197e-05 0)
(42.6376 -9.39188e-05 0)
(42.636 -9.36056e-05 0)
(42.6344 -9.31501e-05 0)
(42.633 -9.25026e-05 0)
(42.6316 -9.16139e-05 0)
(42.6303 -9.0435e-05 0)
(42.629 -8.89126e-05 0)
(42.6277 -8.69975e-05 0)
(42.6265 -8.46494e-05 0)
(42.6253 -8.18404e-05 0)
(42.6241 -7.85584e-05 0)
(42.6228 -7.48104e-05 0)
(42.6216 -7.06247e-05 0)
(42.6203 -6.60517e-05 0)
(42.6189 -6.11555e-05 0)
(42.6175 -5.60267e-05 0)
(42.6161 -5.07589e-05 0)
(42.6145 -4.54538e-05 0)
(42.6129 -4.02138e-05 0)
(42.6113 -3.51352e-05 0)
(42.6095 -3.03034e-05 0)
(42.6077 -2.57893e-05 0)
(42.6057 -2.16465e-05 0)
(42.6037 -1.79103e-05 0)
(42.6016 -1.45982e-05 0)
(42.5995 -1.17111e-05 0)
(42.5972 -9.23556e-06 0)
(42.595 -7.14703e-06 0)
(42.5926 -5.41267e-06 0)
(42.5903 -3.99447e-06 0)
(42.5879 -2.85222e-06 0)
(42.5855 -1.94607e-06 0)
(42.5831 -1.23812e-06 0)
(42.5806 -6.93563e-07 0)
(42.5782 -2.83175e-07 0)
(42.5758 2.56103e-08 0)
(42.5734 2.55334e-07 0)
(42.571 4.21339e-07 0)
(42.5686 5.40211e-07 0)
(42.5662 6.24425e-07 0)
(42.5638 6.83429e-07 0)
(42.5613 7.24333e-07 0)
(42.5588 7.52395e-07 0)
(42.5562 7.71445e-07 0)
(42.5535 7.84263e-07 0)
(42.5507 7.92802e-07 0)
(42.5478 7.98425e-07 0)
(42.5447 8.02068e-07 0)
(42.5414 8.04377e-07 0)
(42.538 8.05779e-07 0)
(42.5343 8.06546e-07 0)
(42.5304 8.06836e-07 0)
(42.5263 8.06738e-07 0)
(42.522 8.06391e-07 0)
(42.5174 8.05915e-07 0)
(42.5125 8.05391e-07 0)
(42.5074 8.0484e-07 0)
(42.5021 8.043e-07 0)
(42.4966 8.03808e-07 0)
(42.4909 8.03417e-07 0)
(42.485 8.03168e-07 0)
(42.479 8.03083e-07 0)
(42.4728 8.0315e-07 0)
(42.4666 8.0333e-07 0)
(42.4603 8.03549e-07 0)
(42.4539 8.03764e-07 0)
(42.4476 8.03955e-07 0)
(42.4413 8.04157e-07 0)
(42.435 8.04445e-07 0)
(42.4289 8.04846e-07 0)
(42.4228 8.05323e-07 0)
(42.4168 8.05814e-07 0)
(42.411 8.06311e-07 0)
(42.4052 8.0686e-07 0)
(42.3996 8.07448e-07 0)
(42.394 8.07996e-07 0)
(42.3886 8.08431e-07 0)
(42.3832 8.08704e-07 0)
(42.3779 8.08796e-07 0)
(42.3725 8.08699e-07 0)
(42.3672 8.08394e-07 0)
(42.3619 8.07893e-07 0)
(42.3565 8.07216e-07 0)
(42.3511 8.06379e-07 0)
(42.3455 8.05406e-07 0)
(42.3397 8.04304e-07 0)
(42.3338 8.03077e-07 0)
(42.3277 8.01793e-07 0)
(42.3213 8.00335e-07 0)
(42.3148 7.98667e-07 0)
(42.3079 7.96772e-07 0)
(42.3008 7.94839e-07 0)
(42.2934 7.93024e-07 0)
(42.2857 7.91325e-07 0)
(42.2778 7.89702e-07 0)
(42.2697 7.88153e-07 0)
(42.2613 7.86751e-07 0)
(42.2527 7.85568e-07 0)
(42.2441 7.84624e-07 0)
(42.2353 7.83879e-07 0)
(42.2265 7.83302e-07 0)
(42.2177 7.82888e-07 0)
(42.2089 7.82669e-07 0)
(42.2002 7.82651e-07 0)
(42.1917 7.82813e-07 0)
(42.1833 7.83275e-07 0)
(42.1751 7.83659e-07 0)
(42.1671 7.83844e-07 0)
(42.1594 7.8391e-07 0)
(42.1518 7.83965e-07 0)
(42.1445 7.84042e-07 0)
(42.1373 7.8395e-07 0)
(42.1304 7.83593e-07 0)
(42.1236 7.82921e-07 0)
(42.117 7.81932e-07 0)
(42.1105 7.80637e-07 0)
(42.1041 7.79074e-07 0)
(42.0978 7.77261e-07 0)
(42.0916 7.75155e-07 0)
(42.0854 7.72618e-07 0)
(42.0792 7.69651e-07 0)
(42.0731 7.66278e-07 0)
(42.0669 7.62695e-07 0)
(42.0606 7.59382e-07 0)
(42.0543 7.53757e-07 0)
(42.0479 7.49805e-07 0)
(42.0413 7.4423e-07 0)
(42.0346 7.40989e-07 0)
(42.0277 7.34948e-07 0)
(42.0207 7.31171e-07 0)
(42.0136 7.25388e-07 0)
(42.0065 7.2206e-07 0)
(41.9992 7.17533e-07 0)
(41.992 7.14071e-07 0)
(41.9849 7.10823e-07 0)
(41.9779 7.08416e-07 0)
(41.9712 7.06394e-07 0)
(41.9648 7.0604e-07 0)
(41.9588 7.04788e-07 0)
(41.9534 7.09074e-07 0)
(41.9485 7.05627e-07 0)
(41.9442 7.13867e-07 0)
(41.9404 7.06913e-07 0)
(41.9373 7.18075e-07 0)
(41.9348 7.08093e-07 0)
(41.9328 7.21279e-07 0)
(41.9312 7.12111e-07 0)
(41.93 7.26905e-07 0)
(41.9292 7.13181e-07 0)
(41.9286 7.24651e-07 0)
(41.9282 7.12139e-07 0)
(41.9279 7.24921e-07 0)
(41.9278 7.10827e-07 0)
(41.9277 7.23808e-07 0)
(41.9278 7.09884e-07 0)
(41.928 7.2032e-07 0)
(41.9282 7.07585e-07 0)
(41.9285 7.21718e-07 0)
(41.9287 7.09806e-07 0)
(41.9288 7.40556e-07 0)
(41.9287 8.54462e-07 0)
(41.9283 1.72074e-06 0)
(41.9276 7.80519e-06 0)
(41.9274 5.04168e-05 0)
(41.9338 0.000364319 0)
(41.9907 0.00286546 0)
(42.2121 0.0394556 0)
(47.4629 0.161229 0)
(37.7712 1.28314 -3.16403e-15)
(36.7002 3.68115 6.34652e-15)
(36.2862 6.41297 -1.18985e-14)
(35.8817 9.17992 2.45839e-14)
(35.2333 11.9193 -2.53634e-14)
(34.3354 14.6051 -1.58447e-15)
(33.1545 17.1844 6.21185e-20)
(31.6718 19.6122 -2.21837e-14)
(30.2066 22.0828 -1.02815e-13)
(29.184 25.0286 1.00676e-13)
(28.46 28.5745 -2.49932e-14)
(27.3297 32.1292 -5.13153e-14)
(25.2623 34.7155 2.64353e-14)
(22.3766 36.1138 0)
(19.1445 36.7323 2.49535e-14)
(15.8114 36.8303 2.50542e-14)
(12.5274 36.7128 -2.51726e-14)
(9.44763 37.3567 2.51926e-14)
(6.75634 40.2171 1.94205e-16)
(4.1445 46.9664 -1.88162e-16)
(38.9629 2.02561 0)
(38.3265 4.94032 0)
(37.9164 8.15473 -1.61089e-15)
(37.3989 11.3546 -3.21839e-15)
(36.6088 14.5094 8.03649e-15)
(35.5162 17.6385 1.60577e-14)
(34.0526 20.7121 0)
(32.2545 23.5272 9.62926e-15)
(30.6503 25.9608 1.60023e-14)
(29.6231 28.5925 -3.81178e-14)
(28.7524 32.0426 2.52016e-14)
(27.016 36.1994 1.25445e-14)
(23.9376 39.819 -1.25536e-14)
(20.0915 41.9231 1.25368e-14)
(15.9064 42.9354 0)
(11.7075 43.0037 -1.57275e-15)
(7.96446 42.2045 1.58195e-15)
(5.55598 41.2805 -5.5777e-15)
(4.79375 42.1087 -7.8665e-16)
(5.14181 45.8564 0)
(41.7844 1.60497 -4.10686e-17)
(41.7845 2.64736 -2.08715e-14)
(41.8873 3.7067 2.11975e-14)
(42.0754 4.75944 -2.03742e-14)
(42.3015 5.87568 -2.23479e-14)
(42.5308 7.1311 8.31813e-14)
(42.738 8.58665 -4.21057e-14)
(42.875 10.3023 4.08036e-14)
(42.8229 12.2918 -8.29643e-14)
(42.4993 14.4381 1.32537e-15)
(42.022 16.5375 4.09135e-14)
(41.6191 18.5223 0)
(41.3541 20.5798 -4.10262e-14)
(40.947 22.9501 4.10443e-14)
(40.167 25.6153 -3.3077e-16)
(38.8962 28.4899 0)
(37.0215 31.4769 3.30546e-16)
(34.3874 34.396 0)
(31.0002 36.9143 0)
(27.6844 38.7057 0)
(45.9423 2.60037 6.28234e-16)
(45.6684 5.97616 -6.3029e-15)
(44.6542 9.99166 -1.26323e-15)
(43.4553 14.1135 2.524e-15)
(42.3629 18.1793 -2.51332e-15)
(41.3139 22.1801 -4.70436e-19)
(40.1403 26.1102 -9.9376e-15)
(38.6892 29.925 0)
(36.9252 33.6095 0)
(34.8506 37.1597 -4.88885e-15)
(32.4382 40.5317 4.86417e-15)
(29.7007 43.7182 0)
(26.627 46.662 -4.81885e-15)
(23.2427 49.3158 4.80345e-15)
(19.5885 51.6449 -4.78809e-15)
(15.71 53.6232 9.54706e-15)
(11.6579 55.2286 -4.76354e-15)
(7.49981 56.4436 0)
(3.33437 57.2874 -2.37031e-15)
(-0.478317 57.7644 0)
(48.9122 1.79611 -9.5839e-16)
(49.8709 4.60234 7.34668e-15)
(49.5712 7.97344 5.11108e-15)
(48.7536 11.5063 1.0215e-14)
(47.9214 15.1689 0)
(47.0967 18.9615 0)
(46.1402 22.8346 1.01149e-14)
(44.924 26.7075 2.51736e-15)
(43.3835 30.5635 -5.01174e-15)
(41.5261 34.3374 2.49532e-15)
(39.3159 37.9913 1.98759e-14)
(36.7714 41.4625 -1.23751e-14)
(33.8854 44.6885 1.2338e-14)
(30.6677 47.6189 -2.46039e-15)
(27.1436 50.2155 -9.82243e-15)
(23.3483 52.4438 -1.71701e-14)
(19.3256 54.2632 -8.57934e-15)
(15.1261 55.6085 -1.22573e-15)
(10.8341 56.3386 7.05374e-15)
(6.71951 56.1068 3.07525e-16)
(1.23353 60.0283 0)
(1.16963 58.9839 0)
(1.14816 56.3716 0)
(1.01792 56.7423 0)
(1.01358 58.0925 0)
(1.06099 58.6007 0)
(1.0718 58.4483 0)
(1.07193 58.2632 0)
(1.06729 58.2312 0)
(1.06339 58.2635 0)
(1.06152 58.2674 0)
(1.05964 58.239 0)
(1.05709 58.2021 0)
(1.05418 58.1672 0)
(1.05121 58.1361 0)
(1.04839 58.1078 0)
(1.04579 58.0811 0)
(1.04343 58.056 0)
(1.04133 58.0331 0)
(1.03948 58.0131 0)
(1.03789 57.9964 0)
(1.03653 57.9831 0)
(1.03536 57.9729 0)
(1.03436 57.9652 0)
(1.03348 57.9591 0)
(1.03269 57.9536 0)
(1.03192 57.9476 0)
(1.0311 57.9401 0)
(1.03004 57.9316 0)
(1.02823 57.9268 0)
(1.02458 57.9404 0)
(1.02153 57.9777 0)
(1.02112 58.0182 0)
(1.02291 58.0384 0)
(1.02401 58.0336 0)
(1.02429 58.0163 0)
(1.0238 57.9979 0)
(1.02276 57.9807 0)
(1.02123 57.9654 0)
(1.01907 57.9529 0)
(1.01608 57.9433 0)
(1.01199 57.9366 0)
(1.00648 57.9322 0)
(0.999304 57.9288 0)
(0.990045 57.9255 0)
(0.978334 57.9211 0)
(0.963811 57.9148 0)
(0.946148 57.9059 0)
(0.924995 57.8938 0)
(0.900059 57.8764 0)
(0.871157 57.8505 0)
(0.838246 57.8111 0)
(0.801453 57.7519 0)
(0.761104 57.6657 0)
(0.71771 57.5454 0)
(0.671923 57.3846 0)
(0.624495 57.1779 0)
(0.576203 56.9208 0)
(0.527787 56.6089 0)
(0.479899 56.237 0)
(0.433066 55.7986 0)
(0.387674 55.2859 0)
(0.343951 54.6907 0)
(0.30207 54.0047 0)
(0.262426 53.223 0)
(0.224911 52.3471 0)
(0.190137 51.3864 0)
(0.158513 50.36 0)
(0.130331 49.2969 0)
(0.105729 48.2337 0)
(0.0850856 47.2078 0)
(0.0679563 46.254 0)
(0.0540436 45.3992 0)
(0.0428926 44.6592 0)
(0.0339995 44.0387 0)
(0.0269137 43.5328 0)
(0.0212246 43.1303 0)
(0.0166513 42.8166 0)
(0.0129691 42.5763 0)
(0.0100115 42.3947 0)
(0.00765029 42.259 0)
(0.00578232 42.1583 0)
(0.00432074 42.084 0)
(0.00319141 42.0293 0)
(0.00232931 41.9889 0)
(0.0016806 41.9589 0)
(0.00119863 41.9364 0)
(0.000845183 41.9193 0)
(0.000589331 41.9062 0)
(0.000406452 41.8958 0)
(0.000277338 41.8875 0)
(0.000187278 41.8806 0)
(0.000125197 41.8748 0)
(8.28938e-05 41.8699 0)
(5.43921e-05 41.8657 0)
(3.54008e-05 41.8619 0)
(2.28833e-05 41.8586 0)