/*--------------------------------*- C++ -*----------------------------------*\
| =========                 |                                                 |
| \\      /  F ield         | OpenFOAM: The Open Source CFD Toolbox           |
|  \\    /   O peration     | Version:  3.0.x                                 |
|   \\  /    A nd           | Web:      www.OpenFOAM.org                      |
|    \\/     M anipulation  |                                                 |
\*---------------------------------------------------------------------------*/
FoamFile
{
    version     2.0;
    format      ascii;
    class       volVectorField;
    location    "0.309925";
    object      U;
}
// * * * * * * * * * * * * * * * * * * * * * * * * * * * * * * * * * * * * * //

dimensions      [0 1 -1 0 0 0 0];

internalField   nonuniform List<vector> 
13800
(
(57.8962 0.000142473 0)
(57.8926 0.000123997 0)
(57.8889 0.000122704 0)
(57.8851 0.000124785 0)
(57.8814 0.000126576 0)
(57.8777 0.000128071 0)
(57.8739 0.000129319 0)
(57.8702 0.000130351 0)
(57.8665 0.000131203 0)
(57.8627 0.000131901 0)
(57.859 0.000132547 0)
(57.8553 0.000132986 0)
(57.8515 0.000133444 0)
(57.8478 0.00013382 0)
(57.8441 0.000134137 0)
(57.8403 0.000134453 0)
(57.8366 0.000134696 0)
(57.8329 0.000134906 0)
(57.8291 0.000135098 0)
(57.8254 0.000135264 0)
(57.8217 0.000135407 0)
(57.8179 0.000135531 0)
(57.8142 0.000135636 0)
(57.8105 0.000135713 0)
(57.8067 0.000135797 0)
(57.803 0.0001359 0)
(57.7993 0.000135938 0)
(57.7955 0.000135986 0)
(57.7918 0.00013602 0)
(57.7881 0.000136066 0)
(57.7844 0.000136144 0)
(57.7807 0.000136137 0)
(57.7769 0.000136179 0)
(57.7732 0.000136209 0)
(57.7695 0.000136236 0)
(57.7658 0.000136259 0)
(57.7621 0.000136279 0)
(57.7584 0.000136314 0)
(57.7547 0.000136314 0)
(57.751 0.000136332 0)
(57.7473 0.000136344 0)
(57.7436 0.000136352 0)
(57.7399 0.000136355 0)
(57.7362 0.000136351 0)
(57.7325 0.000136338 0)
(57.7288 0.000136311 0)
(57.7251 0.000136268 0)
(57.7214 0.000136178 0)
(57.7177 0.00013614 0)
(57.714 0.000135963 0)
(57.7103 0.000135756 0)
(57.7067 0.000135446 0)
(57.703 0.000135087 0)
(57.6994 0.000134597 0)
(57.6957 0.00013388 0)
(57.6921 0.000133001 0)
(57.6886 0.000131881 0)
(57.685 0.00013048 0)
(57.6815 0.000128758 0)
(57.678 0.000126675 0)
(57.6747 0.000124195 0)
(57.6713 0.00012129 0)
(57.6681 0.00011794 0)
(57.665 0.000114133 0)
(57.6619 0.000109872 0)
(57.659 0.00010517 0)
(57.6562 0.000100081 0)
(57.6536 9.46107e-05 0)
(57.6511 8.8838e-05 0)
(57.6488 8.2828e-05 0)
(57.6467 7.66561e-05 0)
(57.6447 7.04061e-05 0)
(57.6429 6.41461e-05 0)
(57.6413 5.79661e-05 0)
(57.6398 5.19607e-05 0)
(57.6385 4.61791e-05 0)
(57.6374 4.0688e-05 0)
(57.6364 3.55375e-05 0)
(57.6356 3.07656e-05 0)
(57.6349 2.63976e-05 0)
(57.6343 2.24468e-05 0)
(57.6338 1.89153e-05 0)
(57.6334 1.57952e-05 0)
(57.6331 1.30699e-05 0)
(57.6329 1.07166e-05 0)
(57.6327 8.70699e-06 0)
(57.6326 7.00989e-06 0)
(57.6326 5.59229e-06 0)
(57.6326 4.42138e-06 0)
(57.6326 3.46287e-06 0)
(57.6327 2.68866e-06 0)
(57.6327 2.0686e-06 0)
(57.6329 1.57731e-06 0)
(57.633 1.19211e-06 0)
(57.6332 8.93243e-07 0)
(57.6333 6.63825e-07 0)
(57.6335 4.89604e-07 0)
(57.6337 3.58685e-07 0)
(57.634 2.61313e-07 0)
(57.6342 1.89614e-07 0)
(57.6344 1.37335e-07 0)
(57.6347 9.9562e-08 0)
(57.635 7.25018e-08 0)
(57.6353 5.32795e-08 0)
(57.6356 3.97595e-08 0)
(57.6359 3.03685e-08 0)
(57.6362 2.39656e-08 0)
(57.6366 1.97468e-08 0)
(57.637 1.71329e-08 0)
(57.6374 1.57194e-08 0)
(57.6379 1.5185e-08 0)
(57.6383 1.5326e-08 0)
(57.6388 1.59712e-08 0)
(57.6394 1.6981e-08 0)
(57.64 1.82618e-08 0)
(57.6406 1.97334e-08 0)
(57.6413 2.1343e-08 0)
(57.6421 2.30658e-08 0)
(57.6429 2.48812e-08 0)
(57.6437 2.67779e-08 0)
(57.6447 2.87488e-08 0)
(57.6457 3.07876e-08 0)
(57.6468 3.28971e-08 0)
(57.648 3.50781e-08 0)
(57.6493 3.73214e-08 0)
(57.6507 3.96195e-08 0)
(57.6522 4.19564e-08 0)
(57.6538 4.431e-08 0)
(57.6555 4.66604e-08 0)
(57.6574 4.89891e-08 0)
(57.6594 5.12724e-08 0)
(57.6615 5.34901e-08 0)
(57.6638 5.56263e-08 0)
(57.6661 5.76638e-08 0)
(57.6687 5.95889e-08 0)
(57.6713 6.13982e-08 0)
(57.6742 6.30895e-08 0)
(57.6771 6.46668e-08 0)
(57.6802 6.61252e-08 0)
(57.6834 6.74524e-08 0)
(57.6868 6.86055e-08 0)
(57.6902 6.95648e-08 0)
(57.6938 7.0284e-08 0)
(57.6975 7.07443e-08 0)
(57.7013 7.09024e-08 0)
(57.7051 7.07313e-08 0)
(57.709 7.02039e-08 0)
(57.713 6.93147e-08 0)
(57.717 6.8012e-08 0)
(57.721 6.63443e-08 0)
(57.725 6.42163e-08 0)
(57.729 6.1716e-08 0)
(57.7329 5.87456e-08 0)
(57.7368 5.53968e-08 0)
(57.7406 5.1555e-08 0)
(57.7442 4.73914e-08 0)
(57.7477 4.2698e-08 0)
(57.7511 3.77552e-08 0)
(57.7543 3.21803e-08 0)
(57.7572 2.65083e-08 0)
(57.76 1.99984e-08 0)
(57.7625 1.36279e-08 0)
(57.7647 6.39338e-09 0)
(57.7666 -6.27256e-10 0)
(57.7683 -8.69897e-09 0)
(57.7696 -1.78115e-08 0)
(57.7706 -3.07339e-08 0)
(57.7712 -4.45282e-08 0)
(57.7714 -6.01086e-08 0)
(57.7713 -7.20969e-08 0)
(57.7708 -8.63252e-08 0)
(57.7699 -9.34786e-08 0)
(57.7685 -1.036e-07 0)
(57.7668 -1.1302e-07 0)
(57.7647 -1.21873e-07 0)
(57.7622 -1.30126e-07 0)
(57.7593 -1.37764e-07 0)
(57.7561 -1.44741e-07 0)
(57.7525 -1.51076e-07 0)
(57.7485 -1.56768e-07 0)
(57.7442 -1.61858e-07 0)
(57.7396 -1.66376e-07 0)
(57.7348 -1.70367e-07 0)
(57.7296 -1.73867e-07 0)
(57.7242 -1.76909e-07 0)
(57.7185 -1.79454e-07 0)
(57.7127 -1.81342e-07 0)
(57.7067 -1.82065e-07 0)
(57.7005 -1.79237e-07 0)
(57.6941 -1.6158e-07 0)
(57.6877 -6.58033e-08 0)
(57.6811 4.23664e-07 0)
(57.6744 2.73263e-06 0)
(57.6674 1.38001e-05 0)
(57.6588 6.69569e-05 0)
(57.6431 0.000321558 0)
(57.5937 0.0015365 0)
(57.3934 0.00723762 0)
(56.7607 0.0366396 0)
(50.8157 0.144514 0)
(57.9001 0.000222428 0)
(57.9004 0.000161891 0)
(57.9006 0.000149596 0)
(57.9007 0.000147502 0)
(57.9009 0.000145703 0)
(57.9011 0.000144284 0)
(57.9012 0.000143204 0)
(57.9014 0.000142339 0)
(57.9015 0.000141617 0)
(57.9017 0.000140987 0)
(57.9019 0.000140562 0)
(57.902 0.00014 0)
(57.9022 0.000139681 0)
(57.9024 0.000139366 0)
(57.9025 0.000139079 0)
(57.9027 0.000138903 0)
(57.9028 0.000138689 0)
(57.903 0.00013851 0)
(57.9032 0.000138367 0)
(57.9033 0.000138238 0)
(57.9035 0.000138125 0)
(57.9036 0.000138023 0)
(57.9038 0.000137932 0)
(57.904 0.000137826 0)
(57.9041 0.000137763 0)
(57.9043 0.000137762 0)
(57.9044 0.000137665 0)
(57.9046 0.000137613 0)
(57.9048 0.000137551 0)
(57.9049 0.000137527 0)
(57.9051 0.00013757 0)
(57.9053 0.000137472 0)
(57.9055 0.000137478 0)
(57.9056 0.000137468 0)
(57.9058 0.000137461 0)
(57.906 0.000137454 0)
(57.9062 0.00013745 0)
(57.9064 0.000137475 0)
(57.9065 0.000137457 0)
(57.9067 0.000137467 0)
(57.9069 0.000137472 0)
(57.9071 0.000137476 0)
(57.9073 0.000137477 0)
(57.9075 0.000137473 0)
(57.9077 0.000137463 0)
(57.9079 0.000137437 0)
(57.9081 0.000137399 0)
(57.9083 0.000137287 0)
(57.9085 0.000137311 0)
(57.9087 0.000137106 0)
(57.9089 0.000136899 0)
(57.9091 0.000136565 0)
(57.9093 0.000136221 0)
(57.9095 0.000135734 0)
(57.9097 0.000134978 0)
(57.9099 0.000134073 0)
(57.9101 0.000132915 0)
(57.9103 0.000131466 0)
(57.9105 0.000129684 0)
(57.9106 0.000127529 0)
(57.9108 0.000124966 0)
(57.911 0.000121966 0)
(57.9112 0.00011851 0)
(57.9114 0.000114589 0)
(57.9115 0.000110207 0)
(57.9117 0.000105376 0)
(57.9119 0.000100175 0)
(57.912 9.45768e-05 0)
(57.9122 8.86875e-05 0)
(57.9123 8.25708e-05 0)
(57.9124 7.63041e-05 0)
(57.9126 6.99766e-05 0)
(57.9127 6.36457e-05 0)
(57.9128 5.74098e-05 0)
(57.9129 5.13765e-05 0)
(57.913 4.55771e-05 0)
(57.9131 4.0083e-05 0)
(57.9132 3.49431e-05 0)
(57.9133 3.01931e-05 0)
(57.9134 2.58564e-05 0)
(57.9135 2.19439e-05 0)
(57.9136 1.84557e-05 0)
(57.9137 1.53816e-05 0)
(57.9138 1.27034e-05 0)
(57.9139 1.03966e-05 0)
(57.914 8.43169e-06 0)
(57.9142 6.77652e-06 0)
(57.9143 5.39742e-06 0)
(57.9144 4.26156e-06 0)
(57.9146 3.33287e-06 0)
(57.9147 2.58575e-06 0)
(57.9149 1.98858e-06 0)
(57.915 1.51657e-06 0)
(57.9152 1.14721e-06 0)
(57.9154 8.60952e-07 0)
(57.9156 6.41119e-07 0)
(57.9158 4.73791e-07 0)
(57.916 3.47544e-07 0)
(57.9162 2.53144e-07 0)
(57.9164 1.8324e-07 0)
(57.9167 1.32102e-07 0)
(57.9169 9.51857e-08 0)
(57.9172 6.88944e-08 0)
(57.9175 5.04218e-08 0)
(57.9178 3.76284e-08 0)
(57.9181 2.89354e-08 0)
(57.9185 2.31558e-08 0)
(57.9188 1.94415e-08 0)
(57.9192 1.71895e-08 0)
(57.9196 1.5974e-08 0)
(57.9201 1.55428e-08 0)
(57.9205 1.57031e-08 0)
(57.921 1.63376e-08 0)
(57.9216 1.7361e-08 0)
(57.9222 1.86927e-08 0)
(57.9228 2.02725e-08 0)
(57.9235 2.2077e-08 0)
(57.9242 2.40952e-08 0)
(57.925 2.63257e-08 0)
(57.9259 2.87809e-08 0)
(57.9268 3.14554e-08 0)
(57.9278 3.43461e-08 0)
(57.9289 3.74529e-08 0)
(57.9301 4.07665e-08 0)
(57.9314 4.42677e-08 0)
(57.9328 4.79321e-08 0)
(57.9343 5.17429e-08 0)
(57.9359 5.56761e-08 0)
(57.9376 5.97144e-08 0)
(57.9395 6.38554e-08 0)
(57.9415 6.80698e-08 0)
(57.9436 7.23249e-08 0)
(57.9458 7.66009e-08 0)
(57.9482 8.08814e-08 0)
(57.9507 8.51249e-08 0)
(57.9534 8.93143e-08 0)
(57.9562 9.34383e-08 0)
(57.9592 9.74726e-08 0)
(57.9622 1.01406e-07 0)
(57.9655 1.05205e-07 0)
(57.9688 1.08817e-07 0)
(57.9723 1.12187e-07 0)
(57.9758 1.15275e-07 0)
(57.9795 1.18026e-07 0)
(57.9833 1.20394e-07 0)
(57.9871 1.2231e-07 0)
(57.991 1.23743e-07 0)
(57.995 1.24665e-07 0)
(57.999 1.24988e-07 0)
(58.003 1.24758e-07 0)
(58.007 1.23864e-07 0)
(58.011 1.22344e-07 0)
(58.0149 1.20169e-07 0)
(58.0187 1.17239e-07 0)
(58.0225 1.13733e-07 0)
(58.0262 1.0959e-07 0)
(58.0297 1.04469e-07 0)
(58.033 9.88933e-08 0)
(58.0362 9.26427e-08 0)
(58.0392 8.53292e-08 0)
(58.0419 7.74206e-08 0)
(58.0444 6.93091e-08 0)
(58.0466 6.07172e-08 0)
(58.0485 5.12603e-08 0)
(58.0502 4.19489e-08 0)
(58.0515 3.25851e-08 0)
(58.0524 2.37639e-08 0)
(58.0531 1.3924e-08 0)
(58.0533 -2.35202e-10 0)
(58.0532 -1.88937e-08 0)
(58.0527 -3.54651e-08 0)
(58.0517 -4.523e-08 0)
(58.0504 -6.05588e-08 0)
(58.0486 -7.51629e-08 0)
(58.0465 -8.92995e-08 0)
(58.044 -1.02894e-07 0)
(58.0411 -1.15892e-07 0)
(58.0379 -1.28212e-07 0)
(58.0343 -1.39862e-07 0)
(58.0303 -1.50785e-07 0)
(58.026 -1.61003e-07 0)
(58.0214 -1.70484e-07 0)
(58.0165 -1.79257e-07 0)
(58.0114 -1.8729e-07 0)
(58.0059 -1.94616e-07 0)
(58.0003 -2.01123e-07 0)
(57.9944 -2.0628e-07 0)
(57.9884 -2.08153e-07 0)
(57.9822 -1.97302e-07 0)
(57.9758 -1.26669e-07 0)
(57.9694 2.00239e-07 0)
(57.9628 1.82602e-06 0)
(57.9561 9.65064e-06 0)
(57.9491 4.73147e-05 0)
(57.9405 0.000228329 0)
(57.9248 0.00109538 0)
(57.8756 0.00523308 0)
(57.676 0.0246091 0)
(57.0439 0.121959 0)
(51.4219 0.454553 0)
(57.9001 0.000163205 0)
(57.9003 0.000113255 0)
(57.9005 0.000107487 0)
(57.9007 0.000110524 0)
(57.9009 0.000111548 0)
(57.901 0.000112016 0)
(57.9012 0.000112407 0)
(57.9014 0.000112733 0)
(57.9015 0.000112994 0)
(57.9017 0.000113194 0)
(57.9019 0.000113449 0)
(57.902 0.000113509 0)
(57.9022 0.000113698 0)
(57.9024 0.000113827 0)
(57.9025 0.000113928 0)
(57.9027 0.000114076 0)
(57.9029 0.000114157 0)
(57.903 0.000114243 0)
(57.9032 0.000114326 0)
(57.9034 0.000114398 0)
(57.9035 0.000114463 0)
(57.9037 0.00011452 0)
(57.9039 0.000114571 0)
(57.904 0.000114597 0)
(57.9042 0.000114644 0)
(57.9044 0.000114729 0)
(57.9045 0.000114728 0)
(57.9047 0.000114759 0)
(57.9049 0.000114772 0)
(57.9051 0.00011481 0)
(57.9052 0.000114894 0)
(57.9054 0.00011486 0)
(57.9056 0.000114907 0)
(57.9058 0.000114936 0)
(57.906 0.000114964 0)
(57.9062 0.000114988 0)
(57.9063 0.000115012 0)
(57.9065 0.000115053 0)
(57.9067 0.000115068 0)
(57.9069 0.000115094 0)
(57.9071 0.000115114 0)
(57.9073 0.000115133 0)
(57.9075 0.000115148 0)
(57.9077 0.000115158 0)
(57.9079 0.000115161 0)
(57.9081 0.00011515 0)
(57.9083 0.000115127 0)
(57.9086 0.000115031 0)
(57.9088 0.000115073 0)
(57.909 0.000114899 0)
(57.9092 0.000114728 0)
(57.9094 0.000114449 0)
(57.9096 0.000114159 0)
(57.9098 0.000113737 0)
(57.91 0.000113112 0)
(57.9102 0.000112339 0)
(57.9105 0.000111354 0)
(57.9107 0.000110122 0)
(57.9109 0.000108607 0)
(57.9111 0.000106777 0)
(57.9113 0.000104602 0)
(57.9115 0.000102058 0)
(57.9116 9.91292e-05 0)
(57.9118 9.58101e-05 0)
(57.912 9.21053e-05 0)
(57.9121 8.80223e-05 0)
(57.9123 8.36315e-05 0)
(57.9124 7.89119e-05 0)
(57.9126 7.39522e-05 0)
(57.9127 6.88067e-05 0)
(57.9128 6.35408e-05 0)
(57.9129 5.82294e-05 0)
(57.9131 5.29214e-05 0)
(57.9132 4.76996e-05 0)
(57.9133 4.26527e-05 0)
(57.9133 3.78065e-05 0)
(57.9134 3.32208e-05 0)
(57.9135 2.89355e-05 0)
(57.9136 2.49796e-05 0)
(57.9137 2.13717e-05 0)
(57.9138 1.81203e-05 0)
(57.9139 1.52244e-05 0)
(57.914 1.26749e-05 0)
(57.9141 1.04559e-05 0)
(57.9142 8.54648e-06 0)
(57.9143 6.92159e-06 0)
(57.9144 5.55405e-06 0)
(57.9145 4.41559e-06 0)
(57.9146 3.47873e-06 0)
(57.9148 2.71319e-06 0)
(57.9149 2.0979e-06 0)
(57.9151 1.60638e-06 0)
(57.9152 1.21821e-06 0)
(57.9154 9.14856e-07 0)
(57.9156 6.80253e-07 0)
(57.9158 5.00701e-07 0)
(57.916 3.64719e-07 0)
(57.9162 2.62806e-07 0)
(57.9164 1.87205e-07 0)
(57.9166 1.3173e-07 0)
(57.9169 9.15594e-08 0)
(57.9171 6.28791e-08 0)
(57.9174 4.27073e-08 0)
(57.9177 2.86692e-08 0)
(57.918 1.89528e-08 0)
(57.9183 1.22811e-08 0)
(57.9187 7.77566e-09 0)
(57.919 4.82704e-09 0)
(57.9194 2.99302e-09 0)
(57.9198 1.97107e-09 0)
(57.9203 1.53009e-09 0)
(57.9207 1.50332e-09 0)
(57.9212 1.76943e-09 0)
(57.9218 2.22944e-09 0)
(57.9224 2.82053e-09 0)
(57.923 3.51701e-09 0)
(57.9237 4.31889e-09 0)
(57.9244 5.25469e-09 0)
(57.9252 6.33878e-09 0)
(57.9261 7.57642e-09 0)
(57.927 8.9636e-09 0)
(57.928 1.04957e-08 0)
(57.9291 1.21726e-08 0)
(57.9303 1.39907e-08 0)
(57.9316 1.59378e-08 0)
(57.933 1.8004e-08 0)
(57.9345 2.01747e-08 0)
(57.9361 2.24449e-08 0)
(57.9378 2.48254e-08 0)
(57.9397 2.73203e-08 0)
(57.9417 2.99093e-08 0)
(57.9438 3.25897e-08 0)
(57.946 3.535e-08 0)
(57.9484 3.81738e-08 0)
(57.9509 4.10243e-08 0)
(57.9536 4.38894e-08 0)
(57.9564 4.67349e-08 0)
(57.9594 4.95351e-08 0)
(57.9624 5.22532e-08 0)
(57.9657 5.48641e-08 0)
(57.969 5.73269e-08 0)
(57.9725 5.96174e-08 0)
(57.976 6.16976e-08 0)
(57.9797 6.35423e-08 0)
(57.9835 6.51007e-08 0)
(57.9873 6.6335e-08 0)
(57.9912 6.72231e-08 0)
(57.9952 6.77668e-08 0)
(57.9992 6.78291e-08 0)
(58.0032 6.75771e-08 0)
(58.0072 6.67617e-08 0)
(58.0112 6.55713e-08 0)
(58.0151 6.3832e-08 0)
(58.0189 6.15721e-08 0)
(58.0227 5.88203e-08 0)
(58.0264 5.57639e-08 0)
(58.0299 5.16302e-08 0)
(58.0332 4.74764e-08 0)
(58.0364 4.25907e-08 0)
(58.0394 3.70295e-08 0)
(58.0421 3.03323e-08 0)
(58.0446 2.43231e-08 0)
(58.0468 1.70707e-08 0)
(58.0487 9.76844e-09 0)
(58.0504 1.22546e-09 0)
(58.0517 -7.92811e-09 0)
(58.0526 -1.58624e-08 0)
(58.0533 -2.08494e-08 0)
(58.0535 -2.51611e-08 0)
(58.0534 -4.48915e-08 0)
(58.0529 -4.54618e-08 0)
(58.0519 -5.27352e-08 0)
(58.0506 -6.30206e-08 0)
(58.0488 -7.25408e-08 0)
(58.0467 -8.19115e-08 0)
(58.0442 -9.11029e-08 0)
(58.0413 -1.00117e-07 0)
(58.0381 -1.08877e-07 0)
(58.0345 -1.1735e-07 0)
(58.0305 -1.25478e-07 0)
(58.0262 -1.33224e-07 0)
(58.0216 -1.40505e-07 0)
(58.0167 -1.47317e-07 0)
(58.0116 -1.53521e-07 0)
(58.0061 -1.59146e-07 0)
(58.0005 -1.64016e-07 0)
(57.9946 -1.67209e-07 0)
(57.9886 -1.65182e-07 0)
(57.9824 -1.40597e-07 0)
(57.976 -3.99865e-09 0)
(57.9696 6.64438e-07 0)
(57.963 3.88137e-06 0)
(57.9563 1.93926e-05 0)
(57.9493 9.40823e-05 0)
(57.9408 0.000453071 0)
(57.9253 0.00217291 0)
(57.8772 0.0103846 0)
(57.6831 0.0488422 0)
(57.0713 0.240917 0)
(51.7612 0.878548 0)
(57.9001 0.000118904 0)
(57.9003 0.000103117 0)
(57.9005 0.000100127 0)
(57.9007 0.000104069 0)
(57.9009 0.000106158 0)
(57.901 0.000107393 0)
(57.9012 0.000108419 0)
(57.9014 0.000109292 0)
(57.9015 0.000110015 0)
(57.9017 0.000110612 0)
(57.9019 0.000111163 0)
(57.902 0.000111548 0)
(57.9022 0.000111952 0)
(57.9023 0.000112286 0)
(57.9025 0.000112568 0)
(57.9027 0.00011285 0)
(57.9028 0.000113069 0)
(57.903 0.00011327 0)
(57.9032 0.00011345 0)
(57.9033 0.000113608 0)
(57.9035 0.000113746 0)
(57.9037 0.000113868 0)
(57.9038 0.000113974 0)
(57.904 0.000114057 0)
(57.9042 0.000114143 0)
(57.9043 0.000114245 0)
(57.9045 0.000114292 0)
(57.9047 0.00011435 0)
(57.9048 0.000114395 0)
(57.905 0.000114451 0)
(57.9052 0.000114532 0)
(57.9054 0.000114543 0)
(57.9056 0.000114595 0)
(57.9057 0.000114637 0)
(57.9059 0.000114677 0)
(57.9061 0.000114712 0)
(57.9063 0.000114747 0)
(57.9065 0.00011479 0)
(57.9067 0.000114815 0)
(57.9069 0.000114845 0)
(57.9071 0.00011487 0)
(57.9073 0.000114893 0)
(57.9075 0.000114912 0)
(57.9077 0.000114926 0)
(57.9079 0.000114931 0)
(57.9081 0.000114926 0)
(57.9083 0.000114905 0)
(57.9085 0.000114822 0)
(57.9087 0.000114846 0)
(57.9089 0.000114697 0)
(57.9091 0.000114536 0)
(57.9094 0.000114288 0)
(57.9096 0.000114004 0)
(57.9098 0.000113595 0)
(57.91 0.000113027 0)
(57.9102 0.000112292 0)
(57.9104 0.00011136 0)
(57.9106 0.000110192 0)
(57.9108 0.000108753 0)
(57.911 0.000107008 0)
(57.9112 0.000104928 0)
(57.9114 0.000102489 0)
(57.9116 9.96716e-05 0)
(57.9118 9.64688e-05 0)
(57.912 9.28835e-05 0)
(57.9121 8.89193e-05 0)
(57.9123 8.46289e-05 0)
(57.9124 8.00208e-05 0)
(57.9126 7.51511e-05 0)
(57.9127 7.00814e-05 0)
(57.9128 6.48737e-05 0)
(57.9129 5.95995e-05 0)
(57.913 5.43137e-05 0)
(57.9131 4.90945e-05 0)
(57.9132 4.40236e-05 0)
(57.9133 3.91393e-05 0)
(57.9134 3.44993e-05 0)
(57.9135 3.01462e-05 0)
(57.9136 2.61119e-05 0)
(57.9137 2.2418e-05 0)
(57.9138 1.90759e-05 0)
(57.9139 1.60876e-05 0)
(57.914 1.34464e-05 0)
(57.9141 1.11387e-05 0)
(57.9142 9.14508e-06 0)
(57.9143 7.44202e-06 0)
(57.9144 6.00315e-06 0)
(57.9145 4.80073e-06 0)
(57.9146 3.8072e-06 0)
(57.9148 2.99313e-06 0)
(57.9149 2.33562e-06 0)
(57.9151 1.80866e-06 0)
(57.9152 1.39093e-06 0)
(57.9154 1.06326e-06 0)
(57.9156 8.08928e-07 0)
(57.9158 6.13646e-07 0)
(57.916 4.65342e-07 0)
(57.9162 3.53951e-07 0)
(57.9164 2.71197e-07 0)
(57.9166 2.10368e-07 0)
(57.9169 1.66113e-07 0)
(57.9171 1.34229e-07 0)
(57.9174 1.11492e-07 0)
(57.9177 9.53803e-08 0)
(57.918 8.39995e-08 0)
(57.9183 7.60204e-08 0)
(57.9187 7.05234e-08 0)
(57.919 6.68824e-08 0)
(57.9194 6.46353e-08 0)
(57.9198 6.34297e-08 0)
(57.9203 6.30054e-08 0)
(57.9207 6.31391e-08 0)
(57.9212 6.36508e-08 0)
(57.9218 6.44053e-08 0)
(57.9224 6.53065e-08 0)
(57.923 6.63031e-08 0)
(57.9237 6.73801e-08 0)
(57.9244 6.85429e-08 0)
(57.9252 6.97882e-08 0)
(57.9261 7.11044e-08 0)
(57.927 7.24824e-08 0)
(57.928 7.39209e-08 0)
(57.9291 7.54199e-08 0)
(57.9303 7.69847e-08 0)
(57.9316 7.86171e-08 0)
(57.933 8.03215e-08 0)
(57.9345 8.20905e-08 0)
(57.9361 8.39144e-08 0)
(57.9378 8.5792e-08 0)
(57.9397 8.77225e-08 0)
(57.9417 8.96886e-08 0)
(57.9438 9.16834e-08 0)
(57.946 9.37013e-08 0)
(57.9484 9.57241e-08 0)
(57.9509 9.7733e-08 0)
(57.9536 9.97142e-08 0)
(57.9564 1.01652e-07 0)
(57.9594 1.03525e-07 0)
(57.9624 1.05296e-07 0)
(57.9657 1.06956e-07 0)
(57.969 1.08463e-07 0)
(57.9725 1.09812e-07 0)
(57.976 1.10951e-07 0)
(57.9797 1.11886e-07 0)
(57.9835 1.12557e-07 0)
(57.9873 1.12939e-07 0)
(57.9912 1.1303e-07 0)
(57.9952 1.12888e-07 0)
(57.9992 1.12172e-07 0)
(58.0032 1.11428e-07 0)
(58.0072 1.09997e-07 0)
(58.0112 1.085e-07 0)
(58.0151 1.06427e-07 0)
(58.0189 1.03873e-07 0)
(58.0227 1.01032e-07 0)
(58.0264 9.85068e-08 0)
(58.0299 9.41178e-08 0)
(58.0332 9.09291e-08 0)
(58.0364 8.67474e-08 0)
(58.0394 8.14544e-08 0)
(58.0421 7.43198e-08 0)
(58.0446 7.07241e-08 0)
(58.0468 6.42331e-08 0)
(58.0487 5.86412e-08 0)
(58.0504 5.12055e-08 0)
(58.0517 3.98088e-08 0)
(58.0526 3.09829e-08 0)
(58.0533 2.96378e-08 0)
(58.0535 6.85127e-09 0)
(58.0534 -1.38968e-08 0)
(58.0529 2.30593e-10 0)
(58.0519 -1.12291e-08 0)
(58.0506 -2.10493e-08 0)
(58.0488 -2.85757e-08 0)
(58.0467 -3.57327e-08 0)
(58.0442 -4.25494e-08 0)
(58.0413 -4.92344e-08 0)
(58.0381 -5.56555e-08 0)
(58.0345 -6.17887e-08 0)
(58.0305 -6.75894e-08 0)
(58.0262 -7.31015e-08 0)
(58.0216 -7.81729e-08 0)
(58.0167 -8.29577e-08 0)
(58.0116 -8.70949e-08 0)
(58.0061 -9.07416e-08 0)
(58.0005 -9.3541e-08 0)
(57.9946 -9.30633e-08 0)
(57.9886 -7.96082e-08 0)
(57.9824 -7.09249e-09 0)
(57.976 3.37721e-07 0)
(57.9696 2.03403e-06 0)
(57.963 1.01948e-05 0)
(57.9563 4.95057e-05 0)
(57.9493 0.000238765 0)
(57.941 0.00114841 0)
(57.9265 0.00550391 0)
(57.8832 0.0262063 0)
(57.713 0.121907 0)
(57.1825 0.552877 0)
(53.1589 1.98112 0)
(57.9001 3.56558e-05 0)
(57.9003 2.77475e-05 0)
(57.9005 1.95131e-05 0)
(57.9007 1.62349e-05 0)
(57.9008 1.37001e-05 0)
(57.901 1.15429e-05 0)
(57.9012 9.84043e-06 0)
(57.9013 8.48018e-06 0)
(57.9015 7.35807e-06 0)
(57.9017 6.41817e-06 0)
(57.9018 5.63284e-06 0)
(57.902 4.94587e-06 0)
(57.9022 4.37047e-06 0)
(57.9023 3.86974e-06 0)
(57.9025 3.43346e-06 0)
(57.9026 3.05851e-06 0)
(57.9028 2.72403e-06 0)
(57.903 2.43301e-06 0)
(57.9031 2.17778e-06 0)
(57.9033 1.95238e-06 0)
(57.9035 1.75376e-06 0)
(57.9036 1.57828e-06 0)
(57.9038 1.42286e-06 0)
(57.904 1.28293e-06 0)
(57.9041 1.16107e-06 0)
(57.9043 1.06011e-06 0)
(57.9045 9.59486e-07 0)
(57.9046 8.72972e-07 0)
(57.9048 7.93852e-07 0)
(57.905 7.27492e-07 0)
(57.9052 6.75146e-07 0)
(57.9054 6.1238e-07 0)
(57.9055 5.65713e-07 0)
(57.9057 5.22809e-07 0)
(57.9059 4.84149e-07 0)
(57.9061 4.48868e-07 0)
(57.9063 4.17949e-07 0)
(57.9065 3.92996e-07 0)
(57.9067 3.67032e-07 0)
(57.9069 3.46149e-07 0)
(57.9071 3.2684e-07 0)
(57.9073 3.09983e-07 0)
(57.9075 2.95108e-07 0)
(57.9077 2.81939e-07 0)
(57.9079 2.70317e-07 0)
(57.9081 2.60374e-07 0)
(57.9083 2.49867e-07 0)
(57.9085 2.23752e-07 0)
(57.9087 2.4887e-07 0)
(57.9089 2.2545e-07 0)
(57.9091 2.13891e-07 0)
(57.9093 1.96198e-07 0)
(57.9095 1.91539e-07 0)
(57.9098 1.77307e-07 0)
(57.91 1.61835e-07 0)
(57.9102 1.3595e-07 0)
(57.9104 1.09188e-07 0)
(57.9106 7.7773e-08 0)
(57.9108 4.10156e-08 0)
(57.911 -1.3355e-09 0)
(57.9112 -4.91801e-08 0)
(57.9114 -1.02168e-07 0)
(57.9116 -1.59582e-07 0)
(57.9118 -2.20356e-07 0)
(57.9119 -2.82412e-07 0)
(57.9121 -3.488e-07 0)
(57.9123 -4.0988e-07 0)
(57.9124 -4.66113e-07 0)
(57.9125 -5.21916e-07 0)
(57.9127 -5.69298e-07 0)
(57.9128 -6.08209e-07 0)
(57.9129 -6.36648e-07 0)
(57.913 -6.58414e-07 0)
(57.9131 -6.70355e-07 0)
(57.9132 -6.67482e-07 0)
(57.9133 -6.56779e-07 0)
(57.9134 -6.37333e-07 0)
(57.9135 -6.10119e-07 0)
(57.9136 -5.76532e-07 0)
(57.9137 -5.38059e-07 0)
(57.9138 -4.96228e-07 0)
(57.9139 -4.5252e-07 0)
(57.914 -4.08302e-07 0)
(57.9141 -3.64767e-07 0)
(57.9142 -3.22914e-07 0)
(57.9143 -2.83519e-07 0)
(57.9144 -2.47146e-07 0)
(57.9145 -2.14143e-07 0)
(57.9146 -1.84541e-07 0)
(57.9148 -1.58971e-07 0)
(57.9149 -1.36383e-07 0)
(57.9151 -1.17186e-07 0)
(57.9152 -1.0109e-07 0)
(57.9154 -8.79143e-08 0)
(57.9156 -7.74893e-08 0)
(57.9158 -6.95785e-08 0)
(57.916 -6.38537e-08 0)
(57.9162 -5.99156e-08 0)
(57.9164 -5.73426e-08 0)
(57.9166 -5.57386e-08 0)
(57.9169 -5.47786e-08 0)
(57.9171 -5.4214e-08 0)
(57.9174 -5.38739e-08 0)
(57.9177 -5.3647e-08 0)
(57.918 -5.34637e-08 0)
(57.9183 -5.32899e-08 0)
(57.9187 -5.31162e-08 0)
(57.919 -5.2934e-08 0)
(57.9194 -5.2748e-08 0)
(57.9198 -5.25557e-08 0)
(57.9203 -5.23519e-08 0)
(57.9207 -5.21291e-08 0)
(57.9212 -5.18819e-08 0)
(57.9218 -5.16036e-08 0)
(57.9224 -5.12865e-08 0)
(57.923 -5.093e-08 0)
(57.9237 -5.05334e-08 0)
(57.9244 -5.00948e-08 0)
(57.9252 -4.96117e-08 0)
(57.9261 -4.90779e-08 0)
(57.927 -4.8494e-08 0)
(57.928 -4.78588e-08 0)
(57.9291 -4.71735e-08 0)
(57.9303 -4.64371e-08 0)
(57.9316 -4.565e-08 0)
(57.933 -4.48067e-08 0)
(57.9345 -4.39121e-08 0)
(57.9361 -4.29672e-08 0)
(57.9378 -4.19729e-08 0)
(57.9397 -4.09308e-08 0)
(57.9417 -3.98506e-08 0)
(57.9438 -3.87321e-08 0)
(57.946 -3.75832e-08 0)
(57.9484 -3.64034e-08 0)
(57.9509 -3.52141e-08 0)
(57.9536 -3.40072e-08 0)
(57.9564 -3.28062e-08 0)
(57.9594 -3.15875e-08 0)
(57.9624 -3.04087e-08 0)
(57.9657 -2.92276e-08 0)
(57.969 -2.81037e-08 0)
(57.9725 -2.69944e-08 0)
(57.976 -2.59691e-08 0)
(57.9797 -2.49656e-08 0)
(57.9835 -2.40453e-08 0)
(57.9873 -2.32432e-08 0)
(57.9912 -2.25154e-08 0)
(57.9952 -2.17074e-08 0)
(57.9992 -2.14707e-08 0)
(58.0032 -2.07038e-08 0)
(58.0072 -2.06991e-08 0)
(58.0112 -2.02149e-08 0)
(58.0151 -2.02286e-08 0)
(58.0189 -2.0579e-08 0)
(58.0227 -2.0726e-08 0)
(58.0264 -1.98868e-08 0)
(58.0299 -2.20395e-08 0)
(58.0332 -2.13449e-08 0)
(58.0364 -2.1747e-08 0)
(58.0394 -2.32147e-08 0)
(58.0421 -2.75359e-08 0)
(58.0446 -2.47923e-08 0)
(58.0468 -2.65244e-08 0)
(58.0487 -2.59455e-08 0)
(58.0504 -2.70848e-08 0)
(58.0517 -2.93194e-08 0)
(58.0526 -2.76924e-08 0)
(58.0533 -1.69719e-08 0)
(58.0535 -2.33239e-08 0)
(58.0534 -9.75601e-08 0)
(58.0529 2.82628e-10 0)
(58.0519 -3.44087e-08 0)
(58.0506 -4.2725e-08 0)
(58.0488 -4.61182e-08 0)
(58.0467 -4.89252e-08 0)
(58.0442 -5.16627e-08 0)
(58.0413 -5.4297e-08 0)
(58.0381 -5.70298e-08 0)
(58.0345 -5.94765e-08 0)
(58.0305 -6.19787e-08 0)
(58.0262 -6.427e-08 0)
(58.0216 -6.65559e-08 0)
(58.0167 -6.86118e-08 0)
(58.0116 -7.05192e-08 0)
(58.0061 -7.18408e-08 0)
(58.0005 -7.24891e-08 0)
(57.9946 -6.8367e-08 0)
(57.9886 -4.37334e-08 0)
(57.9824 7.85999e-08 0)
(57.976 6.60995e-07 0)
(57.9696 3.4675e-06 0)
(57.963 1.70032e-05 0)
(57.9564 8.22453e-05 0)
(57.9496 0.000396494 0)
(57.9423 0.00190809 0)
(57.9326 0.00915557 0)
(57.9111 0.0436382 0)
(57.8347 0.203522 0)
(57.599 0.901341 0)
(55.1886 3.19564 0)
(57.9001 -3.56558e-05 0)
(57.9003 -2.77475e-05 0)
(57.9005 -1.95131e-05 0)
(57.9007 -1.62349e-05 0)
(57.9008 -1.37001e-05 0)
(57.901 -1.15429e-05 0)
(57.9012 -9.84043e-06 0)
(57.9013 -8.48018e-06 0)
(57.9015 -7.35807e-06 0)
(57.9017 -6.41817e-06 0)
(57.9018 -5.63284e-06 0)
(57.902 -4.94587e-06 0)
(57.9022 -4.37047e-06 0)
(57.9023 -3.86974e-06 0)
(57.9025 -3.43346e-06 0)
(57.9026 -3.05851e-06 0)
(57.9028 -2.72403e-06 0)
(57.903 -2.43301e-06 0)
(57.9031 -2.17778e-06 0)
(57.9033 -1.95238e-06 0)
(57.9035 -1.75376e-06 0)
(57.9036 -1.57828e-06 0)
(57.9038 -1.42286e-06 0)
(57.904 -1.28292e-06 0)
(57.9041 -1.16106e-06 0)
(57.9043 -1.06011e-06 0)
(57.9045 -9.59485e-07 0)
(57.9046 -8.72972e-07 0)
(57.9048 -7.93852e-07 0)
(57.905 -7.27493e-07 0)
(57.9052 -6.75146e-07 0)
(57.9054 -6.1238e-07 0)
(57.9055 -5.65712e-07 0)
(57.9057 -5.22808e-07 0)
(57.9059 -4.84149e-07 0)
(57.9061 -4.48868e-07 0)
(57.9063 -4.1795e-07 0)
(57.9065 -3.92997e-07 0)
(57.9067 -3.67034e-07 0)
(57.9069 -3.46149e-07 0)
(57.9071 -3.26841e-07 0)
(57.9073 -3.09983e-07 0)
(57.9075 -2.9511e-07 0)
(57.9077 -2.8194e-07 0)
(57.9079 -2.70316e-07 0)
(57.9081 -2.60374e-07 0)
(57.9083 -2.49866e-07 0)
(57.9085 -2.23753e-07 0)
(57.9087 -2.4887e-07 0)
(57.9089 -2.25451e-07 0)
(57.9091 -2.1389e-07 0)
(57.9093 -1.96198e-07 0)
(57.9095 -1.91539e-07 0)
(57.9098 -1.77308e-07 0)
(57.91 -1.61836e-07 0)
(57.9102 -1.35951e-07 0)
(57.9104 -1.09188e-07 0)
(57.9106 -7.77728e-08 0)
(57.9108 -4.10158e-08 0)
(57.911 1.33536e-09 0)
(57.9112 4.91808e-08 0)
(57.9114 1.02168e-07 0)
(57.9116 1.59583e-07 0)
(57.9118 2.20356e-07 0)
(57.9119 2.8241e-07 0)
(57.9121 3.48799e-07 0)
(57.9123 4.0988e-07 0)
(57.9124 4.66113e-07 0)
(57.9125 5.21916e-07 0)
(57.9127 5.69296e-07 0)
(57.9128 6.08208e-07 0)
(57.9129 6.36649e-07 0)
(57.913 6.58415e-07 0)
(57.9131 6.70355e-07 0)
(57.9132 6.67483e-07 0)
(57.9133 6.56779e-07 0)
(57.9134 6.37331e-07 0)
(57.9135 6.10118e-07 0)
(57.9136 5.76531e-07 0)
(57.9137 5.38059e-07 0)
(57.9138 4.96228e-07 0)
(57.9139 4.5252e-07 0)
(57.914 4.08302e-07 0)
(57.9141 3.64767e-07 0)
(57.9142 3.22913e-07 0)
(57.9143 2.83518e-07 0)
(57.9144 2.47146e-07 0)
(57.9145 2.14142e-07 0)
(57.9146 1.84542e-07 0)
(57.9148 1.5897e-07 0)
(57.9149 1.36383e-07 0)
(57.9151 1.17187e-07 0)
(57.9152 1.01091e-07 0)
(57.9154 8.79156e-08 0)
(57.9156 7.74889e-08 0)
(57.9158 6.95776e-08 0)
(57.916 6.38519e-08 0)
(57.9162 5.99148e-08 0)
(57.9164 5.7342e-08 0)
(57.9166 5.57369e-08 0)
(57.9169 5.47789e-08 0)
(57.9171 5.42143e-08 0)
(57.9174 5.38728e-08 0)
(57.9177 5.36453e-08 0)
(57.918 5.34613e-08 0)
(57.9183 5.32898e-08 0)
(57.9187 5.3116e-08 0)
(57.919 5.29355e-08 0)
(57.9194 5.27473e-08 0)
(57.9198 5.25555e-08 0)
(57.9203 5.23521e-08 0)
(57.9207 5.21298e-08 0)
(57.9212 5.18834e-08 0)
(57.9218 5.16044e-08 0)
(57.9224 5.1287e-08 0)
(57.923 5.09301e-08 0)
(57.9237 5.05339e-08 0)
(57.9244 5.00957e-08 0)
(57.9252 4.96121e-08 0)
(57.9261 4.90782e-08 0)
(57.927 4.84939e-08 0)
(57.928 4.78602e-08 0)
(57.9291 4.7173e-08 0)
(57.9303 4.64358e-08 0)
(57.9316 4.56473e-08 0)
(57.933 4.48081e-08 0)
(57.9345 4.39129e-08 0)
(57.9361 4.29671e-08 0)
(57.9378 4.19729e-08 0)
(57.9397 4.09316e-08 0)
(57.9417 3.98492e-08 0)
(57.9438 3.87328e-08 0)
(57.946 3.75823e-08 0)
(57.9484 3.64073e-08 0)
(57.9509 3.52119e-08 0)
(57.9536 3.40128e-08 0)
(57.9564 3.27934e-08 0)
(57.9594 3.1602e-08 0)
(57.9624 3.03944e-08 0)
(57.9657 2.92414e-08 0)
(57.969 2.80901e-08 0)
(57.9725 2.70194e-08 0)
(57.976 2.59452e-08 0)
(57.9797 2.49862e-08 0)
(57.9835 2.40783e-08 0)
(57.9873 2.32048e-08 0)
(57.9912 2.24621e-08 0)
(57.9952 2.20057e-08 0)
(57.9992 2.11062e-08 0)
(58.0032 2.10528e-08 0)
(58.0072 2.04063e-08 0)
(58.0112 2.06227e-08 0)
(58.0151 2.03439e-08 0)
(58.0189 2.02302e-08 0)
(58.0227 2.03097e-08 0)
(58.0264 2.19659e-08 0)
(58.0299 2.06681e-08 0)
(58.0332 2.27162e-08 0)
(58.0364 2.36544e-08 0)
(58.0394 2.37878e-08 0)
(58.0421 2.1402e-08 0)
(58.0446 2.62292e-08 0)
(58.0468 2.59253e-08 0)
(58.0487 2.87632e-08 0)
(58.0504 2.82691e-08 0)
(58.0517 2.61953e-08 0)
(58.0526 2.59944e-08 0)
(58.0533 3.76383e-08 0)
(58.0535 4.13993e-08 0)
(58.0534 -2.32257e-08 0)
(58.0529 7.39169e-08 0)
(58.0519 4.65267e-08 0)
(58.0506 4.40265e-08 0)
(58.0488 4.62111e-08 0)
(58.0467 4.89763e-08 0)
(58.0442 5.16519e-08 0)
(58.0413 5.43995e-08 0)
(58.0381 5.69532e-08 0)
(58.0345 5.95388e-08 0)
(58.0305 6.19622e-08 0)
(58.0262 6.43344e-08 0)
(58.0216 6.64752e-08 0)
(58.0167 6.86497e-08 0)
(58.0116 7.05218e-08 0)
(58.0061 7.27552e-08 0)
(58.0005 7.53805e-08 0)
(57.9946 8.2199e-08 0)
(57.9886 1.08536e-07 0)
(57.9824 2.28745e-07 0)
(57.976 8.11897e-07 0)
(57.9696 3.62336e-06 0)
(57.963 1.71719e-05 0)
(57.9564 8.25077e-05 0)
(57.9499 0.000397714 0)
(57.9439 0.0019196 0)
(57.9401 0.0092782 0)
(57.9463 0.0449254 0)
(57.9932 0.216455 0)
(58.1726 1.0238 0)
(58.8646 3.59196 0)
(57.9001 -0.000118904 0)
(57.9003 -0.000103117 0)
(57.9005 -0.000100127 0)
(57.9007 -0.000104069 0)
(57.9009 -0.000106158 0)
(57.901 -0.000107393 0)
(57.9012 -0.000108419 0)
(57.9014 -0.000109292 0)
(57.9015 -0.000110015 0)
(57.9017 -0.000110612 0)
(57.9019 -0.000111163 0)
(57.902 -0.000111548 0)
(57.9022 -0.000111952 0)
(57.9023 -0.000112286 0)
(57.9025 -0.000112568 0)