/*--------------------------------*- C++ -*----------------------------------*\
| =========                 |                                                 |
| \\      /  F ield         | OpenFOAM: The Open Source CFD Toolbox           |
|  \\    /   O peration     | Version:  3.0.x                                 |
|   \\  /    A nd           | Web:      www.OpenFOAM.org                      |
|    \\/     M anipulation  |                                                 |
\*---------------------------------------------------------------------------*/
FoamFile
{
    version     2.0;
    format      ascii;
    class       volScalarField;
    location    "0.23";
    object      p;
}
// * * * * * * * * * * * * * * * * * * * * * * * * * * * * * * * * * * * * * //

dimensions      [1 -1 -2 0 0 0 0];

internalField   nonuniform List<scalar> 
6900
(
1.81492e+07
1.81493e+07
1.81493e+07
1.81494e+07
1.81495e+07
1.81496e+07
1.81497e+07
1.81498e+07
1.81499e+07
1.81501e+07
1.81503e+07
1.81505e+07
1.81507e+07
1.81509e+07
1.81511e+07
1.81514e+07
1.81516e+07
1.81519e+07
1.81522e+07
1.81525e+07
1.81528e+07
1.81531e+07
1.81534e+07
1.81537e+07
1.8154e+07
1.81543e+07
1.81546e+07
1.81549e+07
1.81552e+07
1.81556e+07
1.81559e+07
1.81562e+07
1.81565e+07
1.81567e+07
1.8157e+07
1.81573e+07
1.81576e+07
1.81578e+07
1.81581e+07
1.81583e+07
1.81586e+07
1.81588e+07
1.8159e+07
1.81593e+07
1.81595e+07
1.81597e+07
1.81599e+07
1.81602e+07
1.81604e+07
1.81606e+07
1.81608e+07
1.81611e+07
1.81613e+07
1.81615e+07
1.81617e+07
1.8162e+07
1.81622e+07
1.81624e+07
1.81626e+07
1.81629e+07
1.81631e+07
1.81633e+07
1.81636e+07
1.81638e+07
1.8164e+07
1.81642e+07
1.81644e+07
1.81646e+07
1.81648e+07
1.8165e+07
1.81652e+07
1.81653e+07
1.81655e+07
1.81656e+07
1.81658e+07
1.81659e+07
1.8166e+07
1.81661e+07
1.81662e+07
1.81663e+07
1.81663e+07
1.81664e+07
1.81664e+07
1.81665e+07
1.81665e+07
1.81665e+07
1.81665e+07
1.81665e+07
1.81665e+07
1.81665e+07
1.81665e+07
1.81664e+07
1.81664e+07
1.81663e+07
1.81663e+07
1.81662e+07
1.81661e+07
1.8166e+07
1.81659e+07
1.81658e+07
1.81657e+07
1.81655e+07
1.81654e+07
1.81652e+07
1.81651e+07
1.81649e+07
1.81647e+07
1.81645e+07
1.81643e+07
1.81641e+07
1.81639e+07
1.81637e+07
1.81634e+07
1.81632e+07
1.8163e+07
1.81627e+07
1.81625e+07
1.81623e+07
1.81621e+07
1.81618e+07
1.81616e+07
1.81614e+07
1.81612e+07
1.8161e+07
1.81608e+07
1.81606e+07
1.81604e+07
1.81602e+07
1.816e+07
1.81598e+07
1.81596e+07
1.81594e+07
1.81593e+07
1.81591e+07
1.81589e+07
1.81587e+07
1.81585e+07
1.81583e+07
1.8158e+07
1.81578e+07
1.81576e+07
1.81573e+07
1.8157e+07
1.81568e+07
1.81565e+07
1.81562e+07
1.81559e+07
1.81556e+07
1.81552e+07
1.81549e+07
1.81546e+07
1.81542e+07
1.81539e+07
1.81535e+07
1.81532e+07
1.81528e+07
1.81525e+07
1.81521e+07
1.81518e+07
1.81515e+07
1.81511e+07
1.81508e+07
1.81505e+07
1.81502e+07
1.815e+07
1.81497e+07
1.81494e+07
1.81492e+07
1.81489e+07
1.81487e+07
1.81485e+07
1.81482e+07
1.8148e+07
1.81478e+07
1.81475e+07
1.81473e+07
1.8147e+07
1.81467e+07
1.81465e+07
1.81462e+07
1.81459e+07
1.81456e+07
1.81453e+07
1.81449e+07
1.81446e+07
1.81443e+07
1.8144e+07
1.81437e+07
1.81434e+07
1.81431e+07
1.81427e+07
1.81424e+07
1.81421e+07
1.81418e+07
1.81414e+07
1.81411e+07
1.81408e+07
1.81406e+07
1.81404e+07
1.81408e+07
1.81492e+07
1.81493e+07
1.81493e+07
1.81494e+07
1.81495e+07
1.81496e+07
1.81497e+07
1.81498e+07
1.81499e+07
1.81501e+07
1.81503e+07
1.81505e+07
1.81507e+07
1.81509e+07
1.81511e+07
1.81514e+07
1.81516e+07
1.81519e+07
1.81522e+07
1.81525e+07
1.81528e+07
1.81531e+07
1.81534e+07
1.81537e+07
1.8154e+07
1.81543e+07
1.81546e+07
1.81549e+07
1.81552e+07
1.81556e+07
1.81559e+07
1.81562e+07
1.81565e+07
1.81567e+07
1.8157e+07
1.81573e+07
1.81576e+07
1.81578e+07
1.81581e+07
1.81583e+07
1.81586e+07
1.81588e+07
1.8159e+07
1.81593e+07
1.81595e+07
1.81597e+07
1.81599e+07
1.81602e+07
1.81604e+07
1.81606e+07
1.81608e+07
1.81611e+07
1.81613e+07
1.81615e+07
1.81617e+07
1.8162e+07
1.81622e+07
1.81624e+07
1.81626e+07
1.81629e+07
1.81631e+07
1.81633e+07
1.81636e+07
1.81638e+07
1.8164e+07
1.81642e+07
1.81644e+07
1.81646e+07
1.81648e+07
1.8165e+07
1.81652e+07
1.81653e+07
1.81655e+07
1.81656e+07
1.81658e+07
1.81659e+07
1.8166e+07
1.81661e+07
1.81662e+07
1.81663e+07
1.81663e+07
1.81664e+07
1.81664e+07
1.81665e+07
1.81665e+07
1.81665e+07
1.81665e+07
1.81665e+07
1.81665e+07
1.81665e+07
1.81665e+07
1.81664e+07
1.81664e+07
1.81663e+07
1.81663e+07
1.81662e+07
1.81661e+07
1.8166e+07
1.81659e+07
1.81658e+07
1.81657e+07
1.81655e+07
1.81654e+07
1.81652e+07
1.81651e+07
1.81649e+07
1.81647e+07
1.81645e+07
1.81643e+07
1.81641e+07
1.81639e+07
1.81637e+07
1.81634e+07
1.81632e+07
1.8163e+07
1.81627e+07
1.81625e+07
1.81623e+07
1.81621e+07
1.81618e+07
1.81616e+07
1.81614e+07
1.81612e+07
1.8161e+07
1.81608e+07
1.81606e+07
1.81604e+07
1.81602e+07
1.816e+07
1.81598e+07
1.81596e+07
1.81594e+07
1.81593e+07
1.81591e+07
1.81589e+07
1.81587e+07
1.81585e+07
1.81583e+07
1.8158e+07
1.81578e+07
1.81576e+07
1.81573e+07
1.8157e+07
1.81568e+07
1.81565e+07
1.81562e+07
1.81559e+07
1.81556e+07
1.81552e+07
1.81549e+07
1.81546e+07
1.81542e+07
1.81539e+07
1.81535e+07
1.81532e+07
1.81528e+07
1.81525e+07
1.81521e+07
1.81518e+07
1.81515e+07
1.81511e+07
1.81508e+07
1.81505e+07
1.81502e+07
1.815e+07
1.81497e+07
1.81494e+07
1.81492e+07
1.81489e+07
1.81487e+07
1.81485e+07
1.81482e+07
1.8148e+07
1.81478e+07
1.81475e+07
1.81473e+07
1.8147e+07
1.81467e+07
1.81465e+07
1.81462e+07
1.81459e+07
1.81456e+07
1.81453e+07
1.81449e+07
1.81446e+07
1.81443e+07
1.8144e+07
1.81437e+07
1.81434e+07
1.81431e+07
1.81427e+07
1.81424e+07
1.81421e+07
1.81418e+07
1.81414e+07
1.81411e+07
1.81408e+07
1.81406e+07
1.81404e+07
1.81407e+07
1.81492e+07
1.81493e+07
1.81493e+07
1.81494e+07
1.81495e+07
1.81496e+07
1.81497e+07
1.81498e+07
1.81499e+07
1.81501e+07
1.81503e+07
1.81505e+07
1.81507e+07
1.81509e+07
1.81511e+07
1.81514e+07
1.81516e+07
1.81519e+07
1.81522e+07
1.81525e+07
1.81528e+07
1.81531e+07
1.81534e+07
1.81537e+07
1.8154e+07
1.81543e+07
1.81546e+07
1.81549e+07
1.81552e+07
1.81556e+07
1.81559e+07
1.81562e+07
1.81565e+07
1.81567e+07
1.8157e+07
1.81573e+07
1.81576e+07
1.81578e+07
1.81581e+07
1.81583e+07
1.81586e+07
1.81588e+07
1.8159e+07
1.81593e+07
1.81595e+07
1.81597e+07
1.81599e+07
1.81602e+07
1.81604e+07
1.81606e+07
1.81608e+07
1.81611e+07
1.81613e+07
1.81615e+07
1.81617e+07
1.8162e+07
1.81622e+07
1.81624e+07
1.81626e+07
1.81629e+07
1.81631e+07
1.81633e+07
1.81636e+07
1.81638e+07
1.8164e+07
1.81642e+07
1.81644e+07
1.81646e+07
1.81648e+07
1.8165e+07
1.81652e+07
1.81653e+07
1.81655e+07
1.81656e+07
1.81658e+07
1.81659e+07
1.8166e+07
1.81661e+07
1.81662e+07
1.81663e+07
1.81663e+07
1.81664e+07
1.81664e+07
1.81665e+07
1.81665e+07
1.81665e+07
1.81665e+07
1.81665e+07
1.81665e+07
1.81665e+07
1.81665e+07
1.81664e+07
1.81664e+07
1.81663e+07
1.81663e+07
1.81662e+07
1.81661e+07
1.8166e+07
1.81659e+07
1.81658e+07
1.81657e+07
1.81655e+07
1.81654e+07
1.81652e+07
1.81651e+07
1.81649e+07
1.81647e+07
1.81645e+07
1.81643e+07
1.81641e+07
1.81639e+07
1.81637e+07
1.81634e+07
1.81632e+07
1.8163e+07
1.81627e+07
1.81625e+07
1.81623e+07
1.81621e+07
1.81618e+07
1.81616e+07
1.81614e+07
1.81612e+07
1.8161e+07
1.81608e+07
1.81606e+07
1.81604e+07
1.81602e+07
1.816e+07
1.81598e+07
1.81596e+07
1.81594e+07
1.81593e+07
1.81591e+07
1.81589e+07
1.81587e+07
1.81585e+07
1.81583e+07
1.8158e+07
1.81578e+07
1.81576e+07
1.81573e+07
1.8157e+07
1.81568e+07
1.81565e+07
1.81562e+07
1.81559e+07
1.81556e+07
1.81552e+07
1.81549e+07
1.81546e+07
1.81542e+07
1.81539e+07
1.81535e+07
1.81532e+07
1.81528e+07
1.81525e+07
1.81521e+07
1.81518e+07
1.81515e+07
1.81511e+07
1.81508e+07
1.81505e+07
1.81502e+07
1.815e+07
1.81497e+07
1.81494e+07
1.81492e+07
1.81489e+07
1.81487e+07
1.81485e+07
1.81482e+07
1.8148e+07
1.81478e+07
1.81475e+07
1.81473e+07
1.8147e+07
1.81467e+07
1.81465e+07
1.81462e+07
1.81459e+07
1.81456e+07
1.81453e+07
1.81449e+07
1.81446e+07
1.81443e+07
1.8144e+07
1.81437e+07
1.81434e+07
1.81431e+07
1.81427e+07
1.81424e+07
1.81421e+07
1.81418e+07
1.81414e+07
1.81411e+07
1.81408e+07
1.81405e+07
1.81403e+07
1.81401e+07
1.81492e+07
1.81493e+07
1.81493e+07
1.81494e+07
1.81495e+07
1.81496e+07
1.81497e+07
1.81498e+07
1.81499e+07
1.81501e+07
1.81503e+07
1.81505e+07
1.81507e+07
1.81509e+07
1.81511e+07
1.81514e+07
1.81516e+07
1.81519e+07
1.81522e+07
1.81525e+07
1.81528e+07
1.81531e+07
1.81534e+07
1.81537e+07
1.8154e+07
1.81543e+07
1.81546e+07
1.81549e+07
1.81552e+07
1.81556e+07
1.81559e+07
1.81562e+07
1.81565e+07
1.81567e+07
1.8157e+07
1.81573e+07
1.81576e+07
1.81578e+07
1.81581e+07
1.81583e+07
1.81586e+07
1.81588e+07
1.8159e+07
1.81593e+07
1.81595e+07
1.81597e+07
1.81599e+07
1.81602e+07
1.81604e+07
1.81606e+07
1.81608e+07
1.81611e+07
1.81613e+07
1.81615e+07
1.81617e+07
1.8162e+07
1.81622e+07
1.81624e+07
1.81626e+07
1.81629e+07
1.81631e+07
1.81633e+07
1.81636e+07
1.81638e+07
1.8164e+07
1.81642e+07
1.81644e+07
1.81646e+07
1.81648e+07
1.8165e+07
1.81652e+07
1.81653e+07
1.81655e+07
1.81656e+07
1.81658e+07
1.81659e+07
1.8166e+07
1.81661e+07
1.81662e+07
1.81663e+07
1.81663e+07
1.81664e+07
1.81664e+07
1.81665e+07
1.81665e+07
1.81665e+07
1.81665e+07
1.81665e+07
1.81665e+07
1.81665e+07
1.81665e+07
1.81664e+07
1.81664e+07
1.81663e+07
1.81663e+07
1.81662e+07
1.81661e+07
1.8166e+07
1.81659e+07
1.81658e+07
1.81657e+07
1.81655e+07
1.81654e+07
1.81652e+07
1.81651e+07
1.81649e+07
1.81647e+07
1.81645e+07
1.81643e+07
1.81641e+07
1.81639e+07
1.81637e+07
1.81634e+07
1.81632e+07
1.8163e+07
1.81627e+07
1.81625e+07
1.81623e+07
1.81621e+07
1.81618e+07
1.81616e+07
1.81614e+07
1.81612e+07
1.8161e+07
1.81608e+07
1.81606e+07
1.81604e+07
1.81602e+07
1.816e+07
1.81598e+07
1.81596e+07
1.81594e+07
1.81593e+07
1.81591e+07
1.81589e+07
1.81587e+07
1.81585e+07
1.81583e+07
1.8158e+07
1.81578e+07
1.81576e+07
1.81573e+07
1.8157e+07
1.81568e+07
1.81565e+07
1.81562e+07
1.81559e+07
1.81556e+07
1.81552e+07
1.81549e+07
1.81546e+07
1.81542e+07
1.81539e+07
1.81535e+07
1.81532e+07
1.81528e+07
1.81525e+07
1.81521e+07
1.81518e+07
1.81515e+07
1.81511e+07
1.81508e+07
1.81505e+07
1.81502e+07
1.815e+07
1.81497e+07
1.81494e+07
1.81492e+07
1.81489e+07
1.81487e+07
1.81485e+07
1.81482e+07
1.8148e+07
1.81478e+07
1.81475e+07
1.81473e+07
1.8147e+07
1.81467e+07
1.81465e+07
1.81462e+07
1.81459e+07
1.81456e+07
1.81453e+07
1.81449e+07
1.81446e+07
1.81443e+07
1.8144e+07
1.81437e+07
1.81434e+07
1.81431e+07
1.81427e+07
1.81424e+07
1.81421e+07
1.81418e+07
1.81414e+07
1.81411e+07
1.81408e+07
1.81405e+07
1.814e+07
1.81391e+07
1.81492e+07
1.81493e+07
1.81493e+07
1.81494e+07
1.81495e+07
1.81496e+07
1.81497e+07
1.81498e+07
1.81499e+07
1.81501e+07
1.81503e+07
1.81505e+07
1.81507e+07
1.81509e+07
1.81511e+07
1.81514e+07
1.81516e+07
1.81519e+07
1.81522e+07
1.81525e+07
1.81528e+07
1.81531e+07
1.81534e+07
1.81537e+07
1.8154e+07
1.81543e+07
1.81546e+07
1.81549e+07
1.81552e+07
1.81556e+07
1.81559e+07
1.81562e+07
1.81565e+07
1.81567e+07
1.8157e+07
1.81573e+07
1.81576e+07
1.81578e+07
1.81581e+07
1.81583e+07
1.81586e+07
1.81588e+07
1.8159e+07
1.81593e+07
1.81595e+07
1.81597e+07
1.81599e+07
1.81602e+07
1.81604e+07
1.81606e+07
1.81608e+07
1.81611e+07
1.81613e+07
1.81615e+07
1.81617e+07
1.8162e+07
1.81622e+07
1.81624e+07
1.81626e+07
1.81629e+07
1.81631e+07
1.81633e+07
1.81636e+07
1.81638e+07
1.8164e+07
1.81642e+07
1.81644e+07
1.81646e+07
1.81648e+07
1.8165e+07
1.81652e+07
1.81653e+07
1.81655e+07
1.81656e+07
1.81658e+07
1.81659e+07
1.8166e+07
1.81661e+07
1.81662e+07
1.81663e+07
1.81663e+07
1.81664e+07
1.81664e+07
1.81665e+07
1.81665e+07
1.81665e+07
1.81665e+07
1.81665e+07
1.81665e+07
1.81665e+07
1.81665e+07
1.81664e+07
1.81664e+07
1.81663e+07
1.81663e+07
1.81662e+07
1.81661e+07
1.8166e+07
1.81659e+07
1.81658e+07
1.81657e+07
1.81655e+07
1.81654e+07
1.81652e+07
1.81651e+07
1.81649e+07
1.81647e+07
1.81645e+07
1.81643e+07
1.81641e+07
1.81639e+07
1.81637e+07
1.81634e+07
1.81632e+07
1.8163e+07
1.81627e+07
1.81625e+07
1.81623e+07
1.81621e+07
1.81618e+07
1.81616e+07
1.81614e+07
1.81612e+07
1.8161e+07
1.81608e+07
1.81606e+07
1.81604e+07
1.81602e+07
1.816e+07
1.81598e+07
1.81596e+07
1.81594e+07
1.81593e+07
1.81591e+07
1.81589e+07
1.81587e+07
1.81585e+07
1.81583e+07
1.8158e+07
1.81578e+07
1.81576e+07
1.81573e+07
1.8157e+07
1.81568e+07
1.81565e+07
1.81562e+07
1.81559e+07
1.81556e+07
1.81552e+07
1.81549e+07
1.81546e+07
1.81542e+07
1.81539e+07
1.81535e+07
1.81532e+07
1.81528e+07
1.81525e+07
1.81521e+07
1.81518e+07
1.81515e+07
1.81511e+07
1.81508e+07
1.81505e+07
1.81502e+07
1.815e+07
1.81497e+07
1.81494e+07
1.81492e+07
1.81489e+07
1.81487e+07
1.81485e+07
1.81482e+07
1.8148e+07
1.81478e+07
1.81475e+07
1.81473e+07
1.8147e+07
1.81467e+07
1.81465e+07
1.81462e+07
1.81459e+07
1.81456e+07
1.81453e+07
1.81449e+07
1.81446e+07
1.81443e+07
1.8144e+07
1.81437e+07
1.81434e+07
1.81431e+07
1.81427e+07
1.81424e+07
1.81421e+07
1.81418e+07
1.81414e+07
1.81411e+07
1.81408e+07
1.81405e+07
1.814e+07
1.81391e+07
1.81466e+07
1.81491e+07
1.81493e+07
1.81486e+07
1.81478e+07
1.81471e+07
1.81464e+07
1.8146e+07
1.81463e+07
1.81459e+07
1.81438e+07
1.81396e+07
1.81358e+07
1.81332e+07
1.81309e+07
1.81291e+07
1.81284e+07
1.81308e+07
1.8133e+07
1.81308e+07
1.81451e+07
1.81462e+07
1.81461e+07
1.81453e+07
1.81446e+07
1.81439e+07
1.81431e+07
1.81427e+07
1.8143e+07
1.81426e+07
1.81401e+07
1.81355e+07
1.81316e+07
1.81292e+07
1.81271e+07
1.81255e+07
1.81251e+07
1.81275e+07
1.81292e+07
1.81262e+07
1.81402e+07
1.81401e+07
1.81397e+07
1.81388e+07
1.81377e+07
1.81363e+07
1.81346e+07
1.81326e+07
1.81302e+07
1.81277e+07
1.81252e+07
1.81226e+07
1.81196e+07
1.81163e+07
1.81126e+07
1.81087e+07
1.81045e+07
1.80999e+07
1.80956e+07
1.80916e+07
1.81308e+07
1.81298e+07
1.81302e+07
1.81306e+07
1.813e+07
1.81284e+07
1.81262e+07
1.81232e+07
1.81208e+07
1.81177e+07
1.8115e+07
1.81121e+07
1.81094e+07
1.81069e+07
1.81046e+07
1.81025e+07
1.81007e+07
1.80991e+07
1.80978e+07
1.80968e+07
1.81262e+07
1.81216e+07
1.81199e+07
1.81197e+07
1.81189e+07
1.8117e+07
1.81145e+07
1.81113e+07
1.81084e+07
1.8105e+07
1.81018e+07
1.80986e+07
1.80955e+07
1.80926e+07
1.80899e+07
1.80876e+07
1.80855e+07
1.80838e+07
1.80827e+07
1.80826e+07
1.80993e+07
1.80903e+07
1.8094e+07
1.80951e+07
1.80927e+07
1.80909e+07
1.80904e+07
1.80903e+07
1.80902e+07
1.80899e+07
1.80895e+07
1.80893e+07
1.80891e+07
1.80888e+07
1.80886e+07
1.80884e+07
1.80881e+07
1.80879e+07
1.80876e+07
1.80874e+07
1.80872e+07
1.8087e+07
1.80868e+07
1.80866e+07
1.80864e+07
1.80862e+07
1.8086e+07
1.80859e+07
1.80857e+07
1.80854e+07
1.80852e+07
1.8085e+07
1.80848e+07
1.80847e+07
1.80845e+07
1.80843e+07
1.80843e+07
1.80841e+07
1.80838e+07
1.80835e+07
1.80834e+07
1.80833e+07
1.80832e+07
1.80831e+07
1.80831e+07
1.80831e+07
1.80831e+07
1.80831e+07
1.80831e+07
1.80831e+07
1.80831e+07
1.80831e+07
1.80831e+07
1.8083e+07
1.80829e+07
1.80828e+07
1.80826e+07
1.80824e+07
1.80822e+07
1.8082e+07
1.80818e+07
1.80816e+07
1.80813e+07
1.80811e+07
1.80809e+07
1.80807e+07
1.80805e+07
1.80802e+07
1.808e+07
1.80798e+07
1.80797e+07
1.80795e+07
1.80793e+07
1.80791e+07
1.8079e+07
1.80788e+07
1.80786e+07
1.80785e+07
1.80784e+07
1.80782e+07
1.80781e+07
1.8078e+07
1.80779e+07
1.80777e+07
1.80776e+07
1.80775e+07
1.80774e+07
1.80773e+07
1.80772e+07
1.80771e+07
1.8077e+07
1.80769e+07
1.80768e+07
1.80767e+07
1.80766e+07
1.80765e+07
1.80764e+07
1.80763e+07
1.80762e+07
1.80761e+07
1.80761e+07
1.8076e+07
1.80759e+07
1.80759e+07
1.80758e+07
1.80757e+07
1.80757e+07
1.80756e+07
1.80756e+07
1.80755e+07
1.80755e+07
1.80755e+07
1.80755e+07
1.80754e+07
1.80754e+07
1.80754e+07
1.80754e+07
1.80755e+07
1.80755e+07
1.80755e+07
1.80755e+07
1.80755e+07
1.80756e+07
1.80756e+07
1.80756e+07
1.80757e+07
1.80757e+07
1.80758e+07
1.80758e+07
1.80758e+07
1.80758e+07
1.80758e+07
1.80759e+07
1.80759e+07
1.80759e+07
1.80759e+07
1.80758e+07
1.80758e+07
1.80758e+07
1.80758e+07
1.80757e+07
1.80757e+07
1.80756e+07
1.80756e+07
1.80755e+07
1.80754e+07
1.80754e+07
1.80753e+07
1.80752e+07
1.80752e+07
1.80751e+07
1.8075e+07
1.8075e+07
1.80749e+07
1.80749e+07
1.80748e+07
1.80748e+07
1.80747e+07
1.80747e+07
1.80747e+07
1.80746e+07
1.80746e+07
1.80747e+07
1.80747e+07
1.80747e+07
1.80747e+07
1.80748e+07
1.80749e+07
1.80749e+07
1.8075e+07
1.80751e+07
1.80752e+07
1.80752e+07
1.80753e+07
1.80754e+07
1.80755e+07
1.80755e+07
1.80756e+07
1.80756e+07
1.80756e+07
1.80756e+07
1.80756e+07
1.80756e+07
1.80755e+07
1.80755e+07
1.80754e+07
1.80753e+07
1.80752e+07
1.80751e+07
1.8075e+07
1.80749e+07
1.80747e+07
1.80746e+07
1.80744e+07
1.80743e+07
1.80741e+07
1.80739e+07
1.80737e+07
1.80732e+07
1.80719e+07
1.80974e+07
1.80902e+07
1.80941e+07
1.80951e+07
1.80927e+07
1.80909e+07
1.80904e+07
1.80903e+07
1.80902e+07
1.80899e+07
1.80895e+07
1.80893e+07
1.80891e+07
1.80888e+07
1.80886e+07
1.80884e+07
1.80881e+07
1.80879e+07
1.80876e+07
1.80874e+07
1.80872e+07
1.8087e+07
1.80868e+07
1.80866e+07
1.80864e+07
1.80862e+07
1.8086e+07
1.80859e+07
1.80857e+07
1.80854e+07
1.80852e+07
1.8085e+07
1.80848e+07
1.80846e+07
1.80845e+07
1.80843e+07
1.80843e+07
1.80841e+07
1.80838e+07
1.80835e+07
1.80834e+07
1.80833e+07
1.80832e+07
1.80831e+07
1.80831e+07
1.80831e+07
1.80831e+07
1.80831e+07
1.80831e+07
1.80831e+07
1.80831e+07
1.80831e+07
1.80831e+07
1.8083e+07
1.80829e+07
1.80828e+07
1.80826e+07
1.80824e+07
1.80822e+07
1.8082e+07
1.80818e+07
1.80816e+07
1.80813e+07
1.80811e+07
1.80809e+07
1.80807e+07
1.80805e+07
1.80802e+07
1.808e+07
1.80798e+07
1.80797e+07
1.80795e+07
1.80793e+07
1.80791e+07
1.8079e+07
1.80788e+07
1.80786e+07
1.80785e+07
1.80784e+07
1.80782e+07
1.80781e+07
1.8078e+07
1.80779e+07
1.80777e+07
1.80776e+07
1.80775e+07
1.80774e+07
1.80773e+07
1.80772e+07
1.80771e+07
1.8077e+07
1.80769e+07
1.80768e+07
1.80767e+07
1.80766e+07
1.80765e+07
1.80764e+07
1.80763e+07
1.80762e+07
1.80761e+07
1.80761e+07
1.8076e+07
1.80759e+07
1.80759e+07
1.80758e+07
1.80757e+07
1.80757e+07
1.80756e+07
1.80756e+07
1.80755e+07
1.80755e+07
1.80755e+07
1.80755e+07
1.80754e+07
1.80754e+07
1.80754e+07
1.80754e+07
1.80755e+07
1.80755e+07
1.80755e+07
1.80755e+07
1.80755e+07
1.80756e+07
1.80756e+07
1.80756e+07
1.80757e+07
1.80757e+07
1.80758e+07
1.80758e+07
1.80758e+07
1.80758e+07
1.80758e+07
1.80759e+07
1.80759e+07
1.80759e+07
1.80759e+07
1.80758e+07
1.80758e+07
1.80758e+07
1.80758e+07
1.80757e+07
1.80757e+07
1.80756e+07
1.80756e+07
1.80755e+07
1.80754e+07
1.80754e+07
1.80753e+07
1.80752e+07
1.80752e+07
1.80751e+07
1.8075e+07
1.8075e+07
1.80749e+07
1.80749e+07
1.80748e+07
1.80748e+07
1.80747e+07
1.80747e+07
1.80747e+07
1.80746e+07
1.80746e+07
1.80747e+07
1.80747e+07
1.80747e+07
1.80747e+07
1.80748e+07
1.80749e+07
1.80749e+07
1.8075e+07
1.80751e+07
1.80752e+07
1.80752e+07
1.80753e+07
1.80754e+07
1.80755e+07
1.80755e+07
1.80756e+07
1.80756e+07
1.80756e+07
1.80756e+07
1.80756e+07
1.80756e+07
1.80755e+07
1.80755e+07
1.80754e+07
1.80753e+07
1.80752e+07
1.80751e+07
1.8075e+07
1.80749e+07
1.80747e+07
1.80746e+07
1.80744e+07
1.80743e+07
1.80741e+07
1.80739e+07
1.80737e+07
1.80732e+07
1.80719e+07
1.80836e+07
1.80881e+07
1.80912e+07
1.80913e+07
1.80907e+07
1.80904e+07
1.80903e+07
1.80902e+07
1.809e+07
1.80897e+07
1.80895e+07
1.80893e+07
1.8089e+07
1.80888e+07
1.80886e+07
1.80883e+07
1.80881e+07
1.80878e+07
1.80876e+07
1.80874e+07
1.80872e+07
1.8087e+07
1.80868e+07
1.80866e+07
1.80864e+07
1.80862e+07
1.8086e+07
1.80858e+07
1.80856e+07
1.80854e+07
1.80852e+07
1.8085e+07
1.80849e+07
1.80847e+07
1.80845e+07
1.80843e+07
1.80841e+07
1.80839e+07
1.80838e+07
1.80836e+07
1.80835e+07
1.80834e+07
1.80834e+07
1.80833e+07
1.80833e+07
1.80833e+07
1.80833e+07
1.80833e+07
1.80832e+07
1.80832e+07
1.80832e+07
1.80832e+07
1.80831e+07
1.8083e+07
1.80829e+07
1.80828e+07
1.80826e+07
1.80824e+07
1.80822e+07
1.8082e+07
1.80818e+07
1.80816e+07
1.80813e+07
1.80811e+07
1.80809e+07
1.80807e+07
1.80805e+07
1.80802e+07
1.808e+07
1.80798e+07
1.80797e+07
1.80795e+07
1.80793e+07
1.80791e+07
1.8079e+07
1.80788e+07
1.80786e+07
1.80785e+07
1.80784e+07
1.80782e+07
1.80781e+07
1.8078e+07
1.80779e+07
1.80777e+07
1.80776e+07
1.80775e+07
1.80774e+07
1.80773e+07
1.80772e+07
1.80771e+07
1.8077e+07
1.80769e+07
1.80768e+07
1.80767e+07
1.80766e+07
1.80765e+07
1.80764e+07
1.80763e+07
1.80762e+07
1.80761e+07
1.80761e+07
1.8076e+07
1.80759e+07
1.80759e+07
1.80758e+07
1.80757e+07
1.80757e+07
1.80756e+07
1.80756e+07
1.80755e+07
1.80755e+07
1.80755e+07
1.80755e+07
1.80754e+07
1.80754e+07
1.80754e+07
1.80754e+07
1.80755e+07
1.80755e+07
1.80755e+07
1.80755e+07
1.80755e+07
1.80756e+07
1.80756e+07
1.80756e+07
1.80757e+07
1.80757e+07
1.80758e+07
1.80758e+07
1.80758e+07
1.80758e+07
1.80758e+07
1.80759e+07
1.80759e+07
1.80759e+07
1.80759e+07
1.80758e+07
1.80758e+07
1.80758e+07
1.80758e+07
1.80757e+07
1.80757e+07
1.80756e+07
1.80756e+07
1.80755e+07
1.80754e+07
1.80754e+07
1.80753e+07
1.80752e+07
1.80752e+07
1.80751e+07
1.8075e+07
1.8075e+07
1.80749e+07
1.80749e+07
1.80748e+07
1.80748e+07
1.80747e+07
1.80747e+07
1.80747e+07
1.80746e+07
1.80746e+07
1.80747e+07
1.80747e+07
1.80747e+07
1.80747e+07
1.80748e+07
1.80749e+07
1.80749e+07
1.8075e+07
1.80751e+07
1.80752e+07
1.80752e+07
1.80753e+07
1.80754e+07
1.80755e+07
1.80755e+07
1.80756e+07
1.80756e+07
1.80756e+07
1.80756e+07
1.80756e+07
1.80756e+07
1.80755e+07
1.80755e+07
1.80754e+07
1.80753e+07
1.80752e+07
1.80751e+07
1.8075e+07
1.80749e+07
1.80747e+07
1.80746e+07
1.80744e+07
1.80743e+07
1.80741e+07
1.80739e+07
1.80737e+07
1.80735e+07
1.80734e+07
1.80934e+07
1.80925e+07
1.80921e+07
1.80916e+07
1.8091e+07
1.80905e+07
1.80903e+07
1.80902e+07
1.809e+07
1.80898e+07
1.80895e+07
1.80893e+07
1.8089e+07
1.80888e+07
1.80886e+07
1.80883e+07
1.80881e+07
1.80878e+07
1.80876e+07
1.80874e+07
1.80872e+07
1.8087e+07
1.80868e+07
1.80866e+07
1.80864e+07
1.80862e+07
1.8086e+07
1.80858e+07
1.80856e+07
1.80854e+07
1.80852e+07
1.80851e+07
1.80849e+07
1.80847e+07
1.80846e+07
1.80844e+07
1.80842e+07
1.8084e+07
1.80839e+07
1.80838e+07
1.80836e+07
1.80836e+07
1.80835e+07
1.80835e+07
1.80834e+07
1.80834e+07
1.80834e+07
1.80834e+07
1.80833e+07
1.80833e+07
1.80833e+07
1.80832e+07
1.80832e+07
1.80831e+07
1.80829e+07
1.80828e+07
1.80826e+07
1.80824e+07
1.80822e+07
1.8082e+07
1.80818e+07
1.80816e+07
1.80813e+07
1.80811e+07
1.80809e+07
1.80807e+07
1.80805e+07
1.80802e+07
1.808e+07
1.80798e+07
1.80797e+07
1.80795e+07
1.80793e+07
1.80791e+07
1.8079e+07
1.80788e+07
1.80786e+07
1.80785e+07
1.80784e+07
1.80782e+07
1.80781e+07
1.8078e+07
1.80779e+07
1.80777e+07
1.80776e+07
1.80775e+07
1.80774e+07
1.80773e+07
1.80772e+07
1.80771e+07
1.8077e+07
1.80769e+07
1.80768e+07
1.80767e+07
1.80766e+07
1.80765e+07
1.80764e+07
1.80763e+07
1.80762e+07
1.80761e+07
1.80761e+07
1.8076e+07
1.80759e+07
1.80759e+07
1.80758e+07
1.80757e+07
1.80757e+07
1.80756e+07
1.80756e+07
1.80755e+07
1.80755e+07
1.80755e+07
1.80755e+07
1.80754e+07
1.80754e+07
1.80754e+07
1.80754e+07
1.80755e+07
1.80755e+07
1.80755e+07
1.80755e+07
1.80755e+07
1.80756e+07
1.80756e+07
1.80756e+07
1.80757e+07
1.80757e+07
1.80758e+07
1.80758e+07
1.80758e+07
1.80758e+07
1.80758e+07
1.80759e+07
1.80759e+07
1.80759e+07
1.80759e+07
1.80758e+07
1.80758e+07
1.80758e+07
1.80758e+07
1.80757e+07
1.80757e+07
1.80756e+07
1.80756e+07
1.80755e+07
1.80754e+07
1.80754e+07
1.80753e+07
1.80752e+07
1.80752e+07
1.80751e+07
1.8075e+07
1.8075e+07
1.80749e+07
1.80749e+07
1.80748e+07
1.80748e+07
1.80747e+07
1.80747e+07
1.80747e+07
1.80746e+07
1.80746e+07
1.80747e+07
1.80747e+07
1.80747e+07
1.80747e+07
1.80748e+07
1.80749e+07
1.80749e+07
1.8075e+07
1.80751e+07
1.80752e+07
1.80752e+07
1.80753e+07
1.80754e+07
1.80755e+07
1.80755e+07
1.80756e+07
1.80756e+07
1.80756e+07
1.80756e+07
1.80756e+07
1.80756e+07
1.80755e+07
1.80755e+07
1.80754e+07
1.80753e+07
1.80752e+07
1.80751e+07
1.8075e+07
1.80749e+07
1.80747e+07
1.80746e+07
1.80744e+07
1.80743e+07
1.80741e+07
1.80739e+07
1.80738e+07
1.80738e+07
1.80743e+07
1.80909e+07
1.80922e+07
1.8092e+07
1.80915e+07
1.80909e+07
1.80905e+07
1.80903e+07
1.80902e+07
1.809e+07
1.80898e+07
1.80895e+07
1.80893e+07
1.8089e+07
1.80888e+07
1.80886e+07
1.80883e+07
1.80881e+07
1.80878e+07
1.80876e+07
1.80874e+07
1.80872e+07
1.8087e+07
1.80868e+07
1.80866e+07
1.80864e+07
1.80862e+07
1.8086e+07
1.80858e+07
1.80856e+07
1.80854e+07
1.80852e+07
1.80851e+07
1.80849e+07
1.80847e+07
1.80846e+07
1.80844e+07
1.80842e+07
1.8084e+07
1.80839e+07
1.80837e+07
1.80836e+07
1.80836e+07
1.80835e+07
1.80835e+07
1.80834e+07
1.80834e+07
1.80834e+07
1.80834e+07
1.80833e+07
1.80833e+07
1.80833e+07
1.80832e+07
1.80832e+07
1.80831e+07
1.80829e+07
1.80828e+07
1.80826e+07
1.80824e+07
1.80822e+07
1.8082e+07
1.80818e+07
1.80816e+07
1.80813e+07
1.80811e+07
1.80809e+07
1.80807e+07
1.80805e+07
1.80802e+07
1.808e+07
1.80798e+07
1.80797e+07
1.80795e+07
1.80793e+07
1.80791e+07
1.8079e+07
1.80788e+07
1.80786e+07
1.80785e+07
1.80784e+07
1.80782e+07
1.80781e+07
1.8078e+07
1.80779e+07
1.80777e+07
1.80776e+07
1.80775e+07
1.80774e+07
1.80773e+07
1.80772e+07
1.80771e+07
1.8077e+07
1.80769e+07
1.80768e+07
1.80767e+07
1.80766e+07
1.80765e+07
1.80764e+07
1.80763e+07
1.80762e+07
1.80761e+07
1.80761e+07
1.8076e+07
1.80759e+07
1.80759e+07
1.80758e+07
1.80757e+07
1.80757e+07
1.80756e+07
1.80756e+07
1.80755e+07
1.80755e+07
1.80755e+07
1.80755e+07
1.80754e+07
1.80754e+07
1.80754e+07
1.80754e+07
1.80755e+07
1.80755e+07
1.80755e+07
1.80755e+07
1.80755e+07
1.80756e+07
1.80756e+07
1.80756e+07
1.80757e+07
1.80757e+07
1.80758e+07
1.80758e+07
1.80758e+07
1.80758e+07
1.80758e+07
1.80759e+07
1.80759e+07
1.80759e+07
1.80759e+07
1.80758e+07
1.80758e+07
1.80758e+07
1.80758e+07
1.80757e+07
1.80757e+07
1.80756e+07
1.80756e+07
1.80755e+07
1.80754e+07
1.80754e+07
1.80753e+07
1.80752e+07
1.80752e+07
1.80751e+07
1.8075e+07
1.8075e+07
1.80749e+07
1.80749e+07
1.80748e+07
1.80748e+07
1.80747e+07
1.80747e+07
1.80747e+07
1.80746e+07
1.80746e+07
1.80747e+07
1.80747e+07
1.80747e+07
1.80747e+07
1.80748e+07
1.80749e+07
1.80749e+07
1.8075e+07
1.80751e+07
1.80752e+07
1.80752e+07
1.80753e+07
1.80754e+07
1.80755e+07
1.80755e+07
1.80756e+07
1.80756e+07
1.80756e+07
1.80756e+07
1.80756e+07
1.80756e+07
1.80755e+07
1.80755e+07
1.80754e+07
1.80753e+07
1.80752e+07
1.80751e+07
1.8075e+07
1.80749e+07
1.80747e+07
1.80746e+07
1.80744e+07
1.80743e+07
1.80741e+07
1.80739e+07
1.80738e+07
1.80738e+07
1.80743e+07
1.80605e+07
1.80556e+07
1.80539e+07
1.80535e+07
1.80526e+07
1.80507e+07
1.8048e+07
1.80453e+07
1.80421e+07
1.80391e+07
1.80358e+07
1.80327e+07
1.80297e+07
1.80269e+07
1.80243e+07
1.80219e+07
1.80197e+07
1.80179e+07
1.80168e+07
1.80169e+07
1.80647e+07
1.80635e+07
1.80638e+07
1.80641e+07
1.80635e+07
1.80618e+07
1.80593e+07
1.80571e+07
1.8054e+07
1.80516e+07
1.80486e+07
1.80459e+07
1.80433e+07
1.80408e+07
1.80386e+07
1.80365e+07
1.80346e+07
1.80329e+07
1.80315e+07
1.80306e+07
1.80735e+07
1.80734e+07
1.80729e+07
1.80721e+07
1.8071e+07
1.80696e+07
1.80679e+07
1.80659e+07
1.80639e+07
1.80616e+07
1.80591e+07
1.80562e+07
1.80529e+07
1.80493e+07
1.80455e+07
1.80414e+07
1.80376e+07
1.80339e+07
1.80305e+07
1.80271e+07
1.8078e+07
1.80792e+07
1.80791e+07
1.80784e+07
1.80778e+07
1.80773e+07
1.8077e+07
1.80766e+07
1.80752e+07
1.80724e+07
1.80696e+07
1.80675e+07
1.80661e+07
1.80654e+07
1.80662e+07
1.80688e+07
1.80702e+07
1.80681e+07
1.80616e+07
1.8053e+07
1.80795e+07
1.80821e+07
1.80822e+07
1.80816e+07
1.8081e+07
1.80805e+07
1.80801e+07
1.80798e+07
1.80786e+07
1.8076e+07
1.80733e+07
1.80712e+07
1.80696e+07
1.80687e+07
1.80695e+07
1.8072e+07
1.8074e+07
1.80727e+07
1.80674e+07
1.8059e+07
1.80259e+07
1.80274e+07
1.80269e+07
1.80261e+07
1.80255e+07
1.80251e+07
1.80249e+07
1.80247e+07
1.80245e+07
1.80243e+07
1.80242e+07
1.8024e+07
1.80238e+07
1.80237e+07
1.80235e+07
1.80234e+07
1.80232e+07
1.80231e+07
1.80229e+07
1.80228e+07
1.80227e+07
1.80225e+07
1.80224e+07
1.80223e+07
1.80221e+07
1.8022e+07
1.80218e+07
1.80217e+07
1.80216e+07
1.80214e+07
1.80213e+07
1.80212e+07
1.80211e+07
1.80209e+07
1.80208e+07
1.80207e+07
1.80205e+07
1.80204e+07
1.80203e+07
1.80202e+07
1.80201e+07
1.802e+07
1.80199e+07
1.80199e+07
1.80198e+07
1.80198e+07
1.80198e+07
1.80197e+07
1.80197e+07
1.80196e+07
1.80196e+07
1.80195e+07
1.80194e+07
1.80193e+07
1.80192e+07
1.80191e+07
1.80189e+07
1.80188e+07
1.80186e+07
1.80184e+07
1.80182e+07
1.8018e+07
1.80178e+07
1.80176e+07
1.80175e+07
1.80173e+07
1.80171e+07
1.8017e+07
1.80168e+07
1.80167e+07
1.80165e+07
1.80164e+07
1.80162e+07
1.80161e+07
1.80159e+07
1.80157e+07
1.80156e+07
1.80154e+07
1.80152e+07
1.8015e+07
1.80148e+07
1.80146e+07
1.80144e+07
1.80142e+07
1.80139e+07
1.80137e+07
1.80135e+07
1.80132e+07
1.8013e+07
1.80128e+07
1.80125e+07
1.80123e+07
1.80121e+07
1.80118e+07
1.80116e+07
1.80114e+07
1.80111e+07
1.80108e+07
1.80103e+07
1.8009e+07
1.80284e+07
1.80277e+07
1.8027e+07
1.80262e+07
1.80255e+07
1.80251e+07
1.80249e+07
1.80247e+07
1.80245e+07
1.80243e+07
1.80242e+07
1.8024e+07
1.80238e+07
1.80237e+07
1.80235e+07
1.80234e+07
1.80232e+07
1.80231e+07
1.80229e+07
1.80228e+07
1.80227e+07
1.80225e+07
1.80224e+07
1.80223e+07
1.80221e+07
1.8022e+07
1.80218e+07
1.80217e+07
1.80216e+07
1.80214e+07
1.80213e+07
1.80212e+07
1.80211e+07
1.8021e+07
1.80208e+07
1.80207e+07
1.80205e+07
1.80204e+07
1.80203e+07
1.80202e+07
1.80201e+07
1.802e+07
1.80199e+07
1.80199e+07
1.80198e+07
1.80198e+07
1.80198e+07
1.80197e+07
1.80197e+07
1.80196e+07
1.80196e+07
1.80195e+07
1.80194e+07
1.80193e+07
1.80192e+07
1.80191e+07
1.80189e+07
1.80188e+07
1.80186e+07
1.80184e+07
1.80182e+07
1.8018e+07
1.80178e+07
1.80176e+07
1.80175e+07
1.80173e+07
1.80171e+07
1.8017e+07
1.80168e+07
1.80167e+07
1.80165e+07
1.80164e+07
1.80162e+07
1.80161e+07
1.80159e+07
1.80157e+07
1.80156e+07
1.80154e+07
1.80152e+07
1.8015e+07
1.80148e+07
1.80146e+07
1.80144e+07
1.80142e+07
1.80139e+07
1.80137e+07
1.80135e+07
1.80132e+07
1.8013e+07
1.80128e+07
1.80125e+07
1.80123e+07
1.80121e+07
1.80118e+07
1.80116e+07
1.80114e+07
1.80111e+07
1.80108e+07
1.80103e+07
1.8009e+07
1.8019e+07
1.80233e+07
1.80256e+07
1.80257e+07
1.80252e+07
1.8025e+07
1.80248e+07
1.80247e+07
1.80245e+07
1.80243e+07
1.80241e+07
1.8024e+07
1.80238e+07
1.80237e+07
1.80235e+07
1.80234e+07
1.80232e+07
1.80231e+07
1.80229e+07
1.80228e+07
1.80227e+07
1.80225e+07
1.80224e+07
1.80222e+07
1.80221e+07
1.8022e+07
1.80218e+07
1.80217e+07
1.80216e+07
1.80214e+07
1.80213e+07
1.80212e+07
1.8021e+07
1.80209e+07
1.80208e+07
1.80206e+07
1.80205e+07
1.80203e+07
1.80202e+07
1.80201e+07
1.802e+07
1.80199e+07
1.80198e+07
1.80197e+07
1.80197e+07
1.80197e+07
1.80196e+07