/*--------------------------------*- C++ -*----------------------------------*\
| =========                 |                                                 |
| \\      /  F ield         | OpenFOAM: The Open Source CFD Toolbox           |
|  \\    /   O peration     | Version:  3.0.x                                 |
|   \\  /    A nd           | Web:      www.OpenFOAM.org                      |
|    \\/     M anipulation  |                                                 |
\*---------------------------------------------------------------------------*/
FoamFile
{
    version     2.0;
    format      ascii;
    class       surfaceScalarField;
    location    "0.23";
    object      phi;
}
// * * * * * * * * * * * * * * * * * * * * * * * * * * * * * * * * * * * * * //

dimensions      [1 0 -1 0 0 0 0];

internalField   nonuniform List<scalar> 
12415
(
5.78442
0.000327722
5.7831
0.000234751
5.78178
0.000225152
5.78044
0.000226852
5.77908
0.000227301
5.77771
0.000227183
5.77632
0.000227158
5.77493
0.000227528
5.77352
0.00022743
5.77208
0.000227671
5.77062
0.000227835
5.76913
0.000227999
5.76763
0.000228158
5.76611
0.000228311
5.76456
0.000228454
5.763
0.000228584
5.76141
0.000228687
5.75981
0.000228837
5.7582
0.000228905
5.75658
0.000228923
5.75496
0.000228958
5.75335
0.000228895
5.75176
0.000228711
5.75019
0.000228226
5.74864
0.000227848
5.74711
0.000226699
5.74561
0.000225144
5.74413
0.000222876
5.74268
0.000219776
5.74126
0.000215552
5.73989
0.000210138
5.73855
0.000203359
5.73725
0.000195142
5.736
0.000185478
5.7348
0.000174436
5.73364
0.000162167
5.73253
0.000148898
5.73146
0.000134918
5.73043
0.00012056
5.72944
0.000106174
5.72848
9.21038e-05
5.72755
7.86621e-05
5.72665
6.61116e-05
5.72576
5.46525e-05
5.72489
4.44159e-05
5.72403
3.54645e-05
5.72318
2.77986e-05
5.72232
2.13662e-05
5.72147
1.60752e-05
5.7206
1.18072e-05
5.71973
8.42929e-06
5.71884
5.8053e-06
5.71794
3.80386e-06
5.71703
2.30458e-06
5.71611
1.20105e-06
5.71517
4.02215e-07
5.71422
-1.66976e-07
5.71326
-5.64978e-07
5.7123
-8.39234e-07
5.71133
-1.02569e-06
5.71036
-1.15123e-06
5.7094
-1.23539e-06
5.70843
-1.29189e-06
5.70748
-1.33038e-06
5.70653
-1.35739e-06
5.7056
-1.37732e-06
5.70469
-1.39303e-06
5.70379
-1.4062e-06
5.70291
-1.418e-06
5.70205
-1.42905e-06
5.70121
-1.43973e-06
5.70039
-1.45024e-06
5.69959
-1.46073e-06
5.69881
-1.47119e-06
5.69804
-1.48167e-06
5.69729
-1.49212e-06
5.69655
-1.50254e-06
5.69582
-1.51292e-06
5.6951
-1.52327e-06
5.69439
-1.53354e-06
5.69367
-1.54372e-06
5.69295
-1.55371e-06
5.69222
-1.56338e-06
5.69148
-1.57156e-06
5.69073
-1.57845e-06
5.68997
-1.56924e-06
5.68918
-1.61395e-06
5.68838
-1.61725e-06
5.68756
-1.61644e-06
5.68672
-1.61903e-06
5.68585
-1.62693e-06
5.68497
-1.6343e-06
5.68407
-1.64187e-06
5.68315
-1.64921e-06
5.68221
-1.6569e-06
5.68127
-1.66458e-06
5.68031
-1.67236e-06
5.67935
-1.67972e-06
5.67839
-1.68792e-06
5.67742
-1.69863e-06
5.67647
-1.7049e-06
5.67552
-1.71099e-06
5.67457
-1.71718e-06
5.67365
-1.7242e-06
5.67273
-1.73138e-06
5.67183
-1.73802e-06
5.67094
-1.74397e-06
5.67007
-1.74924e-06
5.66922
-1.75378e-06
5.66838
-1.75751e-06
5.66756
-1.76038e-06
5.66674
-1.76235e-06
5.66594
-1.76341e-06
5.66515
-1.76361e-06
5.66436
-1.76295e-06
5.66357
-1.76148e-06
5.66278
-1.75924e-06
5.66199
-1.75628e-06
5.66119
-1.75261e-06
5.66038
-1.74832e-06
5.65955
-1.74349e-06
5.6587
-1.73823e-06
5.65783
-1.73272e-06
5.65693
-1.7271e-06
5.656
-1.7212e-06
5.65504
-1.71511e-06
5.65405
-1.70892e-06
5.65303
-1.70324e-06
5.65197
-1.69856e-06
5.65089
-1.69503e-06
5.64978
-1.69255e-06
5.64865
-1.69096e-06
5.64749
-1.69019e-06
5.64632
-1.69046e-06
5.64514
-1.69211e-06
5.64395
-1.69535e-06
5.64276
-1.70013e-06
5.64156
-1.70612e-06
5.64037
-1.71288e-06
5.63919
-1.71995e-06
5.63801
-1.72699e-06
5.63684
-1.73381e-06
5.63567
-1.74026e-06
5.63452
-1.7466e-06
5.63337
-1.75283e-06
5.63222
-1.75883e-06
5.63108
-1.76389e-06
5.62995
-1.76753e-06
5.62881
-1.76998e-06
5.62768
-1.77168e-06
5.62655
-1.77301e-06
5.62541
-1.77379e-06
5.62427
-1.77345e-06
5.62312
-1.7714e-06
5.62197
-1.76747e-06
5.6208
-1.76305e-06
5.61961
-1.75754e-06
5.61841
-1.75235e-06
5.61718
-1.74485e-06
5.61593
-1.73774e-06
5.61464
-1.72723e-06
5.61332
-1.71791e-06
5.61196
-1.70525e-06
5.61057
-1.69432e-06
5.60914
-1.68139e-06
5.60767
-1.66981e-06
5.60618
-1.6586e-06
5.60467
-1.64835e-06
5.60314
-1.63992e-06
5.6016
-1.63353e-06
5.60007
-1.62837e-06
5.59855
-1.62688e-06
5.59705
-1.62628e-06
5.59558
-1.6284e-06
5.59416
-1.63236e-06
5.59278
-1.63723e-06
5.59145
-1.64281e-06
5.59017
-1.64947e-06
5.58893
-1.65468e-06
5.58774
-1.65977e-06
5.58658
-1.66223e-06
5.58546
-1.66424e-06
5.58435
-1.66347e-06
5.58327
-1.66372e-06
5.5822
-1.66141e-06
5.58114
-1.65976e-06
5.5801
-1.6573e-06
5.57908
-1.6557e-06
5.57808
-1.65371e-06
5.57711
-1.65203e-06
5.57616
-1.63751e-06
5.57524
-1.55096e-06
5.57433
-1.00253e-06
5.57342
2.92374e-06
5.57248
3.03272e-05
5.57133
0.000222119
5.56881
0.00156164
5.55689
0.0109223
5.4689
0.0869454
0.426851
5.04094
11.5696
0.000260395
11.5674
0.000214833
11.5653
0.000190458
11.5631
0.000194266
11.5609
0.000195462
11.5586
0.000194958
11.5563
0.000194841
11.554
0.000195099
11.5517
0.000195099
11.5493
0.000195275
11.5468
0.000195425
11.5444
0.000195572
11.5418
0.000195718
11.5393
0.000195859
11.5367
0.000195991
11.534
0.000196113
11.5314
0.00019622
11.5287
0.000196344
11.5259
0.000196421
11.5232
0.000196458
11.5204
0.000196492
11.5177
0.000196453
11.515
0.000196306
11.5123
0.000195938
11.5097
0.000195573
11.5072
0.000194635
11.5046
0.000193319
11.5022
0.000191401
11.4997
0.000188743
11.4974
0.000185156
11.4951
0.000180526
11.4928
0.000174727
11.4906
0.000167692
11.4885
0.000159411
11.4865
0.000149943
11.4845
0.000139417
11.4826
0.000128026
11.4808
0.000116022
11.479
0.000103688
11.4772
9.13267e-05
11.4755
7.92337e-05
11.4738
6.76783e-05
11.4721
5.68869e-05
11.4705
4.70323e-05
11.4688
3.82277e-05
11.4672
3.05273e-05
11.4655
2.3932e-05
11.4639
1.83971e-05
11.4622
1.38439e-05
11.4605
1.01705e-05
11.4588
7.26295e-06
11.457
5.00404e-06
11.4552
3.2812e-06
11.4534
1.99139e-06
11.4515
1.04291e-06
11.4497
3.56049e-07
11.4478
-1.3487e-07
11.4459
-4.78255e-07
11.4439
-7.152e-07
11.442
-8.76262e-07
11.4401
-9.84763e-07
11.4381
-1.05756e-06
11.4362
-1.10649e-06
11.4343
-1.13983e-06
11.4324
-1.16322e-06
11.4305
-1.18044e-06
11.4287
-1.19404e-06
11.4269
-1.20539e-06
11.4251
-1.21554e-06
11.4234
-1.22504e-06
11.4217
-1.23421e-06
11.4201
-1.24323e-06
11.4185
-1.25222e-06
11.4169
-1.2612e-06
11.4154
-1.27019e-06
11.4139
-1.27915e-06
11.4124
-1.28809e-06
11.4109
-1.29698e-06
11.4095
-1.30585e-06
11.408
-1.31466e-06
11.4066
-1.32338e-06
11.4051
-1.33195e-06
11.4037
-1.34017e-06
11.4022
-1.34723e-06
11.4007
-1.35237e-06
11.3992
-1.34833e-06
11.3976
-1.38024e-06
11.396
-1.38776e-06
11.3943
-1.38542e-06
11.3927
-1.38824e-06
11.3909
-1.39465e-06
11.3892
-1.40108e-06
11.3873
-1.40751e-06
11.3855
-1.41388e-06
11.3836
-1.42042e-06
11.3817
-1.42702e-06
11.3798
-1.43366e-06
11.3779
-1.4401e-06
11.376
-1.44712e-06
11.374
-1.4558e-06
11.3721
-1.46192e-06
11.3702
-1.46678e-06
11.3683
-1.47215e-06
11.3665
-1.47816e-06
11.3646
-1.4843e-06
11.3628
-1.48999e-06
11.361
-1.49509e-06
11.3593
-1.49961e-06
11.3576
-1.5035e-06
11.3559
-1.5067e-06
11.3543
-1.50916e-06
11.3526
-1.51085e-06
11.351
-1.51177e-06
11.3494
-1.51193e-06
11.3478
-1.51136e-06
11.3463
-1.51011e-06
11.3447
-1.50819e-06
11.3431
-1.50565e-06
11.3415
-1.5025e-06
11.3399
-1.49883e-06
11.3382
-1.49469e-06
11.3365
-1.49018e-06
11.3347
-1.48546e-06
11.3329
-1.48063e-06
11.3311
-1.4756e-06
11.3292
-1.47035e-06
11.3272
-1.46507e-06
11.3251
-1.46021e-06
11.323
-1.45619e-06
11.3208
-1.45316e-06
11.3186
-1.45103e-06
11.3163
-1.44967e-06
11.314
-1.44902e-06
11.3117
-1.44926e-06
11.3093
-1.45067e-06
11.3069
-1.45345e-06
11.3045
-1.45754e-06
11.3022
-1.46269e-06
11.2998
-1.46848e-06
11.2974
-1.47454e-06
11.295
-1.48059e-06
11.2927
-1.48643e-06
11.2904
-1.49198e-06
11.288
-1.49738e-06
11.2857
-1.50275e-06
11.2834
-1.50786e-06
11.2812
-1.51219e-06
11.2789
-1.51534e-06
11.2766
-1.51745e-06
11.2743
-1.51891e-06
11.2721
-1.52002e-06
11.2698
-1.52071e-06
11.2675
-1.52039e-06
11.2652
-1.51866e-06
11.2629
-1.51533e-06
11.2605
-1.51148e-06
11.2582
-1.50681e-06
11.2558
-1.50226e-06
11.2533
-1.49597e-06
11.2508
-1.48972e-06
11.2482
-1.48087e-06
11.2456
-1.47275e-06
11.2428
-1.46194e-06
11.2401
-1.4527e-06
11.2372
-1.44123e-06
11.2343
-1.43206e-06
11.2313
-1.42131e-06
11.2282
-1.41394e-06
11.2252
-1.40523e-06
11.2221
-1.40106e-06
11.219
-1.3957e-06
11.216
-1.39499e-06
11.213
-1.39421e-06
11.21
-1.39601e-06
11.2072
-1.39954e-06
11.2044
-1.40378e-06
11.2018
-1.40821e-06
11.1992
-1.41462e-06
11.1967
-1.41817e-06
11.1943
-1.42355e-06
11.192
-1.42427e-06
11.1898
-1.42762e-06
11.1876
-1.42518e-06
11.1854
-1.4274e-06
11.1832
-1.42369e-06
11.1811
-1.42343e-06
11.179
-1.42059e-06
11.177
-1.41958e-06
11.175
-1.41677e-06
11.173
-1.41409e-06
11.1711
-1.37308e-06
11.1693
-1.1194e-06
11.1675
4.93954e-07
11.1656
1.21046e-05
11.1638
9.32221e-05
11.1615
0.00066102
11.1565
0.00462611
11.1332
0.0321796
10.9885
0.229591
1.07327
10.3399
138.835
-0.000260395
138.809
-0.000214833
138.783
-0.000190458
138.757
-0.000194266
138.73
-0.000195462
138.703
-0.000194958
138.676
-0.000194841
138.648
-0.000195099
138.62
-0.000195099
138.591
-0.000195275
138.562
-0.000195425
138.532
-0.000195572
138.502
-0.000195718
138.471
-0.000195859
138.44
-0.000195991
138.408
-0.000196113
138.376
-0.00019622
138.344
-0.000196344
138.311
-0.000196421
138.278
-0.000196458
138.245
-0.000196492
138.212
-0.000196453
138.18
-0.000196306
138.148
-0.000195938
138.117
-0.000195573
138.086
-0.000194635
138.056
-0.000193319
138.026
-0.000191401
137.997
-0.000188743
137.968
-0.000185156
137.941
-0.000180526
137.914
-0.000174727
137.888
-0.000167692
137.862
-0.000159411
137.838
-0.000149943
137.814
-0.000139417
137.791
-0.000128026
137.769
-0.000116022
137.748
-0.000103688
137.727
-9.13267e-05
137.706
-7.92337e-05
137.686
-6.76783e-05
137.666
-5.68869e-05
137.646
-4.70323e-05
137.626
-3.82277e-05
137.606
-3.05273e-05
137.587
-2.3932e-05
137.567
-1.83971e-05
137.546
-1.38439e-05
137.526
-1.01705e-05
137.505
-7.26295e-06
137.484
-5.00405e-06
137.463
-3.28119e-06
137.441
-1.99139e-06
137.419
-1.04291e-06
137.396
-3.56048e-07
137.373
1.34869e-07
137.35
4.78256e-07
137.327
7.152e-07
137.304
8.76264e-07
137.281
9.84763e-07
137.257
1.05756e-06
137.234
1.10649e-06
137.211
1.13982e-06
137.189
1.16322e-06
137.166
1.18044e-06
137.144
1.19404e-06
137.123
1.20539e-06
137.101
1.21553e-06
137.081
1.22504e-06
137.061
1.23421e-06
137.041
1.24323e-06
137.022
1.25222e-06
137.003
1.26121e-06
136.984
1.27019e-06
136.966
1.27915e-06
136.949
1.28809e-06
136.931
1.29698e-06
136.914
1.30585e-06
136.896
1.31466e-06
136.879
1.32338e-06
136.862
1.33194e-06
136.844
1.34017e-06
136.827
1.34724e-06
136.809
1.35237e-06
136.79
1.34833e-06
136.771
1.38024e-06
136.752
1.38776e-06
136.732
1.38542e-06
136.712
1.38824e-06
136.691
1.39465e-06
136.67
1.40108e-06
136.648
1.40751e-06
136.626
1.41387e-06
136.604
1.42042e-06
136.581
1.42702e-06
136.558
1.43366e-06
136.535
1.4401e-06
136.512
1.44712e-06
136.488
1.4558e-06
136.465
1.46192e-06
136.443
1.46678e-06
136.42
1.47216e-06
136.398
1.47816e-06
136.375
1.4843e-06
136.354
1.48998e-06
136.333
1.49509e-06
136.312
1.49961e-06
136.291
1.5035e-06
136.271
1.5067e-06
136.251
1.50916e-06
136.231
1.51085e-06
136.212
1.51177e-06
136.193
1.51193e-06
136.174
1.51137e-06
136.155
1.51011e-06
136.136
1.50819e-06
136.117
1.50565e-06
136.098
1.50251e-06
136.078
1.49883e-06
136.058
1.49469e-06
136.038
1.49018e-06
136.017
1.48546e-06
135.995
1.48063e-06
135.973
1.4756e-06
135.95
1.47035e-06
135.926
1.46507e-06
135.901
1.4602e-06
135.876
1.45618e-06
135.85
1.45316e-06
135.823
1.45103e-06
135.796
1.44967e-06
135.768
1.44902e-06
135.74
1.44926e-06
135.712
1.45067e-06
135.683
1.45345e-06
135.655
1.45754e-06
135.626
1.46268e-06
135.597
1.46848e-06
135.569
1.47454e-06
135.54
1.48059e-06
135.512
1.48643e-06
135.484
1.49197e-06
135.456
1.49737e-06
135.429
1.50275e-06
135.401
1.50786e-06
135.374
1.51219e-06
135.347
1.51534e-06
135.319
1.51745e-06
135.292
1.5189e-06
135.265
1.52003e-06
135.237
1.5207e-06
135.21
1.52041e-06
135.182
1.51862e-06
135.155
1.51539e-06
135.127
1.51138e-06
135.098
1.50697e-06
135.069
1.50202e-06
135.04
1.4963e-06
135.01
1.48926e-06
134.979
1.48148e-06
134.947
1.47197e-06
134.914
1.46292e-06
134.881
1.45148e-06
134.846
1.44277e-06
134.811
1.43009e-06
134.775
1.42384e-06
134.739
1.41081e-06
134.702
1.4088e-06
134.665
1.39733e-06
134.628
1.39914e-06
134.592
1.39223e-06
134.556
1.3959e-06
134.521
1.39527e-06
134.486
1.39995e-06
134.453
1.40281e-06
134.421
1.41024e-06
134.39
1.41139e-06
134.361
1.42212e-06
134.332
1.41974e-06
134.304
1.42793e-06
134.277
1.42362e-06
134.251
1.43003e-06
134.225
1.42185e-06
134.199
1.42857e-06
134.173
1.41972e-06
134.148
1.42451e-06
134.124
1.41484e-06
134.1
1.42464e-06
134.076
1.41544e-06
134.054
1.46813e-06
134.031
1.75217e-06
134.01
3.90075e-06
133.988
1.90648e-05
133.966
0.000127424
133.944
0.00090184
133.919
0.00644778
133.881
0.0463456
133.714
0.3706
1.58696
133.174
11.5696
-0.000327722
11.5674
-0.000234751
11.5653
-0.000225152
11.5631
-0.000226852
11.5609
-0.000227301
11.5586
-0.000227183
11.5563
-0.000227158
11.554
-0.000227528
11.5517
-0.00022743
11.5493
-0.000227671
11.5468
-0.000227835
11.5444
-0.000227999
11.5418
-0.000228158
11.5393
-0.000228311
11.5367
-0.000228454
11.534
-0.000228584
11.5314
-0.000228687
11.5287
-0.000228837
11.5259
-0.000228905
11.5232
-0.000228923
11.5204
-0.000228958
11.5177
-0.000228895
11.515
-0.000228711
11.5123
-0.000228226
11.5097
-0.000227848
11.5072
-0.000226699
11.5046
-0.000225144
11.5022
-0.000222876
11.4997
-0.000219776
11.4974
-0.000215552
11.4951
-0.000210138
11.4928
-0.000203359
11.4906
-0.000195142
11.4885
-0.000185478
11.4865
-0.000174436
11.4845
-0.000162167
11.4826
-0.000148898
11.4808
-0.000134918
11.479
-0.00012056
11.4772
-0.000106174
11.4755
-9.21038e-05
11.4738
-7.86621e-05
11.4721
-6.61116e-05
11.4705
-5.46525e-05
11.4688
-4.44159e-05
11.4672
-3.54645e-05
11.4655
-2.77986e-05
11.4639
-2.13662e-05
11.4622
-1.60752e-05
11.4605
-1.18072e-05
11.4588
-8.42929e-06
11.457
-5.8053e-06
11.4552
-3.80386e-06
11.4534
-2.30458e-06
11.4515
-1.20105e-06
11.4497
-4.02213e-07
11.4478
1.66976e-07
11.4459
5.64978e-07
11.4439
8.39234e-07
11.442
1.02569e-06
11.4401
1.15123e-06
11.4381
1.23538e-06
11.4362
1.29188e-06
11.4343
1.33038e-06
11.4324
1.35739e-06
11.4305
1.37732e-06
11.4287
1.39302e-06
11.4269
1.4062e-06
11.4251
1.418e-06
11.4234
1.42905e-06
11.4217
1.43973e-06
11.4201
1.45025e-06
11.4185
1.46073e-06
11.4169
1.4712e-06
11.4154
1.48167e-06
11.4139
1.49212e-06
11.4124
1.50255e-06
11.4109
1.51292e-06
11.4095
1.52327e-06
11.408
1.53354e-06
11.4066
1.54372e-06
11.4051
1.55371e-06
11.4037
1.56338e-06
11.4022
1.57156e-06
11.4007
1.57844e-06
11.3992
1.56924e-06
11.3976
1.61395e-06
11.396
1.61726e-06
11.3943
1.61644e-06
11.3927
1.61903e-06
11.3909
1.62692e-06
11.3892
1.6343e-06
11.3873
1.64187e-06
11.3855
1.64921e-06
11.3836
1.6569e-06
11.3817
1.66458e-06
11.3798
1.67237e-06
11.3779
1.67971e-06
11.376
1.68792e-06
11.374
1.69863e-06
11.3721
1.7049e-06
11.3702
1.71099e-06
11.3683
1.71718e-06
11.3665
1.7242e-06
11.3646
1.73139e-06
11.3628
1.73802e-06
11.361
1.74397e-06
11.3593
1.74924e-06
11.3576
1.75378e-06
11.3559
1.75751e-06
11.3543
1.76038e-06
11.3526
1.76235e-06
11.351
1.76342e-06
11.3494
1.76361e-06
11.3478
1.76295e-06
11.3463
1.76148e-06
11.3447
1.75924e-06
11.3431
1.75628e-06
11.3415
1.75261e-06
11.3399
1.74832e-06
11.3382
1.74349e-06
11.3365
1.73823e-06
11.3347
1.73272e-06
11.3329
1.7271e-06
11.3311
1.7212e-06
11.3292
1.71511e-06
11.3272
1.70892e-06
11.3251
1.70324e-06
11.323
1.69855e-06
11.3208
1.69503e-06
11.3186
1.69255e-06
11.3163
1.69095e-06
11.314
1.69019e-06
11.3117
1.69046e-06
11.3093
1.69211e-06
11.3069
1.69535e-06
11.3045
1.70013e-06
11.3022
1.70612e-06
11.2998
1.71288e-06
11.2974
1.71995e-06
11.295
1.72699e-06
11.2927
1.73381e-06
11.2904
1.74026e-06
11.288
1.7466e-06
11.2857
1.75283e-06
11.2834
1.75883e-06
11.2812
1.76388e-06
11.2789
1.76753e-06
11.2766
1.76999e-06
11.2743
1.77167e-06
11.2721
1.77302e-06
11.2698
1.77378e-06
11.2675
1.77348e-06
11.2652
1.77135e-06
11.2629
1.76756e-06
11.2605
1.76291e-06
11.2582
1.75776e-06
11.2558
1.75203e-06
11.2533
1.74527e-06
11.2508
1.7372e-06
11.2482
1.72788e-06
11.2456
1.71718e-06
11.2428
1.70599e-06
11.2401
1.69361e-06
11.2372
1.68203e-06
11.2343
1.66924e-06
11.2313
1.65919e-06
11.2282
1.64762e-06
11.2252
1.64088e-06
11.2221
1.63232e-06
11.219
1.62967e-06
11.216
1.62578e-06
11.213
1.62694e-06
11.21
1.62817e-06
11.2072
1.6324e-06
11.2044
1.63694e-06
11.2018
1.64357e-06
11.1992
1.64829e-06
11.1967
1.656e-06
11.1943
1.65853e-06
11.192
1.66344e-06
11.1898
1.66291e-06
11.1876
1.66517e-06
11.1854
1.66181e-06
11.1832
1.66297e-06
11.1811
1.65859e-06
11.179
1.65863e-06
11.177
1.65404e-06
11.175
1.65636e-06
11.173
1.65257e-06
11.1711
1.66995e-06
11.1693
1.76574e-06
11.1675
2.49423e-06
11.1657
7.64568e-06
11.1639
4.44845e-05
11.1627
0.000308112
11.165
0.00221315
11.1928
0.0164923
11.3803
0.181042
0.686711
12.2783
5.78442
5.7831
5.78178
5.78044
5.77908
5.77771
5.77632
5.77493
5.77352
5.77208
5.77062
5.76913
5.76763
5.76611
5.76456
5.763
5.76141
5.75981
5.7582
5.75658
5.75496
5.75335
5.75176
5.75019
5.74864
5.74711
5.74561
5.74413
5.74268
5.74126
5.73989
5.73855
5.73725
5.736
5.7348
5.73364
5.73253
5.73146
5.73043
5.72944
5.72848
5.72755
5.72665
5.72576
5.72489
5.72403
5.72318
5.72232
5.72147
5.7206
5.71973
5.71884
5.71794
5.71703
5.71611
5.71517
5.71422
5.71326
5.7123
5.71133
5.71036
5.7094
5.70843
5.70748
5.70653
5.7056
5.70469
5.70379
5.70291
5.70205
5.70121
5.70039
5.69959
5.69881
5.69804
5.69729
5.69655
5.69582
5.6951
5.69439
5.69367
5.69295
5.69222
5.69148
5.69073
5.68997
5.68918
5.68838
5.68756
5.68672
5.68585
5.68497
5.68407
5.68315
5.68221
5.68127
5.68031
5.67935
5.67839
5.67742
5.67647
5.67552
5.67457
5.67365
5.67273
5.67183
5.67094
5.67007
5.66922
5.66838
5.66756
5.66674
5.66594
5.66515
5.66436
5.66357
5.66278
5.66199
5.66119
5.66038
5.65955
5.6587
5.65783
5.65693
5.656
5.65504
5.65405
5.65303
5.65197
5.65089
5.64978
5.64865
5.64749
5.64632
5.64514
5.64395
5.64276
5.64156
5.64037
5.63919
5.63801
5.63684
5.63567
5.63452
5.63337
5.63222
5.63108
5.62995
5.62881
5.62768
5.62655
5.62541
5.62427
5.62312
5.62197
5.6208
5.61961
5.61841
5.61718
5.61593
5.61464
5.61332
5.61196
5.61057
5.60914
5.60767
5.60618
5.60467
5.60314
5.6016
5.60007
5.59855
5.59705
5.59558
5.59416
5.59278
5.59145
5.59017
5.58893
5.58774
5.58658
5.58546
5.58435
5.58327
5.5822
5.58114
5.5801
5.57908
5.57808
5.57711
5.57616
5.57524
5.57433
5.57344
5.57257
5.57195
5.57321
5.5887
5.76869
6.45429
4.9184
0.122261
4.9256
-0.00749634
4.9224
0.00292042
4.92729
-0.00517289
4.93971
-0.012678
4.94766
-0.00817741
4.94588
0.00167744
4.97945
-0.0335129
5.12455
-0.1452
5.34642
-0.222351
5.5271
-0.181484
5.54379
-0.0175334
5.46279
0.0804766
5.32808
0.13436
5.16101
0.166864
5.03125
0.130045
5.09877
-0.0658796
5.5038
-0.403128
6.20076
-0.695874
-1.16502
7.36545
10.289
0.172592
10.307
-0.0260645
10.3537
-0.0443176
10.4082
-0.0602622
10.4721
-0.0770764
10.5289
-0.0654113
10.564
-0.0336508
10.6591
-0.12843
10.9644
-0.450714
11.4398
-0.698753
11.8743
-0.617692
12.008
-0.152695
11.9403
0.147354
11.7328
0.341322
11.3925
0.506894
11.012
0.51122
10.8839
0.0651832
11.3438
-0.85919
12.2966
-1.6472
-3.018
14.1485
133.221
0.120515
133.288
-0.0983127
133.285
-0.0466819
133.122
0.0976935
132.812
0.227424
132.431
0.309564
132.03
0.363653
131.542
0.352016
130.7
0.386041
129.641
0.354863
128.667
0.352807
128.187
0.322808
128.038
0.290308
128.115
0.25764
128.388
0.225377
128.698
0.192618
128.595
0.158067
127.609
0.115885
125.909
0.046088
-0.154806
123.042
12.223
0.17559
12.1299
-0.0056331
12.0889
-0.00598177
12.1614
0.0248045
12.3323
0.0561726
12.5611
0.080302
12.8256
0.098208
13.0785
0.0993156
13.3548
0.108895
13.6074
0.102392
13.8602
0.0996794
14.0935
0.0892341
14.3071
0.076323
14.5018
0.0626567
14.678
0.048871
14.8358
0.0345444
14.9763
0.0173106
15.1023
-0.0103421
15.2146
-0.0664683
-0.242031
15.3016
6.62973
6.62394
6.6178
6.64244
6.69842
6.77849
6.87635
6.97564
7.08426
7.18662
7.28616
7.37524
7.45142
7.51395
7.56269
7.59712
7.61432
7.60386
7.53727
7.29511
7.55484
-0.197238
7.3474
0.205777
7.47961
-0.131439
7.66335
-0.184019
7.72595
-0.063538
7.71668
0.00862798
7.69762
0.0185909
7.69842
-0.00131218
7.70969
-0.0119536
7.71487
-0.00592158
7.71426
-0.000116725
7.71319
0.000266323
7.71388
-0.00153688
7.71544
-0.00244266
7.71666
-0.0021379
7.71715
-0.00141687
7.71636
-0.00017528
7.71461
0.000785227
7.71244
0.00120304
7.70982
0.00164193
7.70677
0.00206308
7.70335
0.0024226
7.69965
0.00269134
7.69584
0.00280245
7.69221
0.00261208
7.68944
0.00175169
7.68918
-0.000759408
7.69317
-0.00502196
7.69693
-0.00481753
7.69733
-0.00146939
7.69576
0.000521645
7.69208
0.00264267
7.68671
0.0043485
7.68064
0.00508662
7.67647
0.00324978
7.68156
-0.00598631
7.69933
-0.0186525
7.71295
-0.0145727
7.71254
-0.00051472
7.70157
0.0101364
7.68138
0.0194292
7.65256
0.0281038
7.61559
0.0363051
7.57039
0.0445699
7.51655
0.0532535
7.45323
0.0627638
7.37916
0.0735186
7.2927
0.0857984
7.19163
0.0997183
7.07491
0.113661
6.94413
0.128492
6.80149
0.141537
6.65005
0.150959
6.49531
0.155615
6.3425
0.154995
6.19648
0.14702
6.06248
0.134082
5.94458
0.117447
5.84483
0.0990832
5.76325
0.0807097
5.6985
0.0638147
5.64845
0.0491612
5.61054
0.0370253
5.58229
0.0273558
5.56149
0.0198821
5.54632
0.0142459
5.53528
0.0100782
5.52725
0.0070504
5.52138
0.00488112
5.51702
0.00334472
5.51373
0.00227058
5.51117
0.00152711
5.50912
0.00101768
5.50742
0.000671981
5.50596
0.000439626
5.50466
0.000284924
5.50349
0.00018289
5.5024
0.000116229
5.50138
7.30882e-05
5.50043
4.54367e-05
5.49952
2.78836e-05
5.49867
1.6849e-05
5.49787
9.97926e-06
5.49713
5.73998e-06
5.49644
3.15869e-06
5.4958
1.60022e-06
5.49522
6.62234e-07
5.49471
1.07788e-07
5.49425
-2.16367e-07
5.49386
-4.01838e-07
5.49352
-5.08899e-07
5.49325
-5.68409e-07
5.49304
-6.00907e-07
5.49288
-6.18373e-07
5.49278
-6.26136e-07
5.49273
-6.30022e-07
5.49273
-6.30151e-07
5.49277
-6.2935e-07
5.49285
-6.26535e-07
5.49296
-6.23704e-07
5.4931
-6.2188e-07
5.49326
-6.21683e-07
5.49344
-6.19248e-07
5.49362
-6.13525e-07
5.49381
-6.07422e-07
5.49399
-6.02347e-07
5.49416
-5.98135e-07
5.49431
-5.94091e-07
5.49444
-5.90126e-07
5.49454
-5.85354e-07
5.49461
-5.806e-07
5.49464
-5.75148e-07
5.49462
-5.6958e-07
5.49457
-5.64914e-07
5.49446
-5.57187e-07
5.49432
-5.61462e-07
5.49412
-5.4373e-07
5.49388
-5.55863e-07
5.4936
-5.30958e-07
5.49328
-5.33584e-07
5.49292
-5.34155e-07
5.49253
-5.30614e-07
5.49212
-5.28436e-07
5.49168
-5.2693e-07
5.49122
-5.26425e-07
5.49076
-5.26716e-07
5.4903
-5.27869e-07
5.48983
-5.31174e-07
5.48938
-5.33701e-07
5.48894
-5.35914e-07
5.48853
-5.38961e-07
5.48814
-5.43005e-07
5.48778
-5.48862e-07
5.48746
-5.49857e-07
5.48718
-5.66029e-07
5.48693
-5.63894e-07
5.48673
-5.72312e-07
5.48657
-5.77287e-07
5.48645
-5.8138e-07
5.48639
-5.87657e-07
5.48636
-5.90921e-07
5.48638
-5.95635e-07
5.48644
-5.99792e-07
5.48654
-6.0128e-07
5.48668
-6.05407e-07
5.48685
-6.0711e-07
5.48706
-6.08541e-07
5.4873
-6.0926e-07
5.48756
-6.09269e-07
5.48784
-6.09145e-07
5.48813
-6.07848e-07
5.48844
-6.0684e-07
5.48874
-6.04508e-07
5.48904
-6.0274e-07
5.48934
-5.97953e-07
5.48961
-5.93423e-07
5.48986
-5.86344e-07
5.49007
-5.80549e-07
5.49025
-5.72449e-07
5.49038
-5.65044e-07
5.49046
-5.56642e-07
5.49049
-5.48402e-07
5.49045
-5.43017e-07
5.49036
-5.35545e-07
5.4902
-5.09701e-07
5.48997
-5.22114e-07
5.48969
-5.02991e-07
5.48934
-5.05923e-07
5.48894
-4.93639e-07
5.48849
-4.95489e-07
5.48799
-4.82292e-07
5.48746
-4.96013e-07
5.48689
-4.84399e-07
5.48631
-4.95873e-07
5.48571
-4.90234e-07
5.48511
-5.10139e-07
5.48451
-5.00808e-07
5.48393
-5.29479e-07
5.48337
-5.23098e-07
5.48284
-5.53213e-07
5.48234
-5.82702e-07
5.48188
-3.84147e-07
5.48145
-6.8637e-07
5.48106
-6.43477e-07
5.48071
-5.79586e-07
5.48038
-6.54984e-07
5.48009
-5.91468e-07
5.47983
-6.74572e-07
5.47959
-6.1297e-07
5.47938
-7.37962e-07
5.47918
-8.32282e-07
5.47901
-1.84694e-06
5.47886
-6.46719e-06
5.47876
-3.08905e-05
5.47881
-0.000156186
5.47953
-0.000805985
5.48367
-0.0042053
5.50635
-0.0227235
5.67272
-0.166399
-0.646491
6.31921
14.892
-0.956799
14.394
0.700684
14.4212
-0.157332
14.6936
-0.456959
14.8346
-0.206355
14.8296
0.0122609
14.7805
0.0667261
14.7659
0.0122954
14.7807
-0.0281432
14.7918
-0.0184706
14.7907
-0.000491566
14.7862
0.00319791
14.785
-0.00202544
14.7871
-0.00630185
14.7901
-0.00703491
14.793
-0.00613293
14.794
-0.00311493
14.793
-0.000157062
14.7907
0.00159799
14.7869
0.00352957
14.7813
0.00561884
14.774
0.00776624
14.7648
0.00988929
14.7538
0.0117744
14.7414
0.0129387
14.729
0.0121394
14.7201
0.00601315
14.7208
-0.00778943
14.7242
-0.0102935
14.7215
-0.000941614
14.7128
0.00708891
14.6968
0.0165886
14.6732
0.0259142
14.6432
0.0331194
14.6118
0.0327731
14.5964
0.00755951
14.6148
-0.0389583
14.6432
-0.0448296
14.6539
-0.012984
14.6442
0.0181832
14.614
0.0481412
14.5639
0.0767337
14.4949
0.103977
14.4073
0.130991
14.301
0.158358
14.1758
0.186877
14.0308
0.217394
13.8647
0.250327
13.676
0.284927
13.4665
0.319557
13.24
0.352768
13.0004
0.37997
12.754
0.396932
12.5094
0.40207
12.2736
0.392302
12.0532
0.367838
11.8546
0.332167
11.6819
0.289065
11.5367
0.242984
11.4181
0.19787
11.3237
0.156652
11.2501
0.121057
11.1939
0.0915637
11.1515
0.067986
11.1199
0.0496705
11.0965
0.0357721
11.0793
0.0254357
11.0665
0.0178719
11.057
0.0124198
11.0498
0.00853964
11.0442
0.0058128
11.0397
0.00391764
11.0361
0.00261469
11.0329
0.00172825
11.0302
0.00113135
11.0277
0.000733479
11.0255
0.000470923
11.0233
0.000299391
11.0213
0.000188442
11.0194
0.000117392
11.0176
7.23476e-05
11.0159
4.40735e-05
11.0144
2.65023e-05
11.0129
1.5689e-05
11.0115
9.10582e-06
11.0102
5.13673e-06
11.0091
2.76348e-06
11.008
1.3612e-06
11.0071
5.40086e-07
11.0063
6.83397e-08
11.0056
-2.05387e-07
11.0051
-3.58687e-07
11.0047
-4.44125e-07
11.0044
-4.91505e-07
11.0041
-5.15755e-07
11.004
-5.2874e-07
11.004
-5.34348e-07
11.0041
-5.36341e-07
11.0043
-5.35401e-07
11.0045
-5.34057e-07
11.0048
-5.3257e-07
11.0051
-5.32616e-07
11.0055
-5.30616e-07
11.0058
-5.26011e-07
11.0062
-5.20863e-07
11.0066
-5.16455e-07
11.0069
-5.12747e-07
11.0072
-5.09293e-07
11.0075
-5.0584e-07
11.0077
-5.01851e-07
11.0078
-4.9767e-07
11.0078
-4.93102e-07
11.0078
-4.88285e-07
11.0077
-4.84175e-07
11.0075
-4.78397e-07
11.0072
-4.79246e-07
11.0068
-4.68508e-07
11.0063
-4.71681e-07
11.0058
-4.57423e-07
11.0051
-4.59335e-07
11.0044
-4.5746e-07
11.0036
-4.54975e-07
11.0028
-4.53077e-07
11.0019
-4.51745e-07
11.001
-4.51329e-07
11.0001
-4.51579e-07
10.9991
-4.5256e-07
10.9982
-4.5518e-07
10.9973
-4.5777e-07
10.9964
-4.59568e-07
10.9956
-4.62148e-07
10.9948
-4.65541e-07
10.9941
-4.70328e-07
10.9935
-4.72753e-07
10.9929
-4.838e-07
10.9924
-4.83809e-07
10.992
-4.9043e-07
10.9917
-4.95189e-07
10.9914
-4.98525e-07
10.9913
-5.03503e-07
10.9912
-5.06956e-07
10.9913
-5.10053e-07
10.9914
-5.15108e-07
10.9916
-5.14539e-07
10.9919
-5.19166e-07
10.9922
-5.2058e-07
10.9926
-5.21653e-07
10.9931
-5.2261e-07
10.9936
-5.21939e-07
10.9942
-5.22398e-07
10.9948
-5.20813e-07
10.9954
-5.20832e-07
10.996
-5.17518e-07
10.9966
-5.17514e-07
10.9972
-5.11649e-07
10.9977
-5.09734e-07
10.9982
-5.01755e-07
10.9986
-4.98736e-07
10.999
-4.90082e-07
10.9993
-4.84537e-07
10.9994
-4.76704e-07
10.9995
-4.63646e-07
10.9994
-4.74091e-07
10.9992
-4.72134e-07
10.9989
-4.07937e-07
10.9984
-4.61208e-07
10.9979
-4.23424e-07
10.9972
-4.43485e-07
10.9964
-4.16812e-07
10.9955
-4.33082e-07
10.9945
-3.99714e-07
10.9934
-4.40093e-07
10.9923
-4.06133e-07
10.9911
-4.35127e-07
10.9899
-4.0782e-07
10.9887
-4.54071e-07
10.9875
-4.09517e-07
10.9863
-4.74831e-07
10.9852
-4.34071e-07
10.9842
-4.96908e-07
10.9831
-5.4622e-07
10.9822
-3.7835e-10
10.9814
-7.78838e-07
10.9806
-6.57965e-07
10.9799
-4.4248e-07
10.9792
-6.40658e-07
10.9786
-4.34422e-07
10.9781
-6.57764e-07
10.9776
-4.61828e-07
10.9772
-8.10985e-07
10.9768
-1.07629e-06
10.9765
-4.05004e-06
10.9762
-1.76359e-05
10.976
-8.95035e-05
10.976
-0.000458113
10.9774
-0.00236663
10.9854
-0.0122572
11.0265
-0.063937
11.2185
-0.358472
-1.47971
12.0517
122.068
0.0246139
122.751
0.0120021
122.51
0.0718662
121.986
0.0548084
121.757
0.0120691
121.774
-0.0155946
121.835
-0.00754608
121.833
-0.000397812
121.79
-0.000963083
121.757
-0.00254427
121.74
-0.00153894
121.724
-0.00025913
121.701
0.000243288
121.674
0.00025169
121.645
0.000178324
121.616
0.00013119
121.59
0.000109446
121.567
0.000179627
121.545
0.00025137
121.524
0.000317273
121.505
0.000380872
121.488
0.00045174
121.473
0.00054609
121.46
0.000683477
121.447
0.00086978
121.433
0.00107279
121.413
0.00110496
121.379
0.000406392
121.346
-0.00228883
121.324
-0.00501789
121.313
-0.00673934
121.313
-0.00775282
121.323
-0.00852696
121.342
-0.0101236
121.368
-0.0146746
121.384
-0.025763
121.38
-0.0468058
121.398
-0.0747852
121.477
-0.105196
121.619
-0.137912
121.826
-0.174128
122.102
-0.214036
122.447
-0.256612
122.863
-0.299386
123.346
-0.338667
123.89
-0.370498
124.486
-0.391455
125.124
-0.399888
125.794
-0.396859
126.486
-0.383099
127.189
-0.360626
127.891
-0.331976
128.577
-0.299237
129.231
-0.263213
129.838
-0.226387
130.383
-0.190581
130.858
-0.157287
131.259
-0.127431
131.588
-0.101452
131.848
-0.079478
132.049
-0.0613241
132.198
-0.0466451
132.305
-0.0349859
132.378
-0.0258801
132.426
-0.0188828
132.453
-0.0135937
132.465
-0.00965138
132.467
-0.0067612
132.46
-0.00467352
132.448
-0.00318772
132.431
-0.00214593
132.412
-0.00142574
132.391
-0.000934935
132.368
-0.000605129
132.345
-0.000386568
132.322
-0.000243707
132.299
-0.000151595
132.276
-9.30044e-05
132.253
-5.62359e-05
132.232
-3.34713e-05
132.211
-1.95664e-05
132.191
-1.11872e-05
132.172
-6.20529e-06
132.154
-3.28108e-06
132.138
-1.5929e-06
132.122
-6.32488e-07
132.109
-9.06427e-08
132.096
2.12922e-07
132.085
3.75226e-07
132.076
4.61748e-07
132.068
5.06555e-07
132.061
5.29276e-07
132.056
5.3966e-07
132.052
5.44512e-07
132.05
5.44895e-07
132.049
5.44606e-07
132.049
5.42906e-07
132.049
5.40914e-07
132.051
5.37821e-07
132.054