/*--------------------------------*- C++ -*----------------------------------*\
| =========                 |                                                 |
| \\      /  F ield         | OpenFOAM: The Open Source CFD Toolbox           |
|  \\    /   O peration     | Version:  3.0.x                                 |
|   \\  /    A nd           | Web:      www.OpenFOAM.org                      |
|    \\/     M anipulation  |                                                 |
\*---------------------------------------------------------------------------*/
FoamFile
{
    version     2.0;
    format      ascii;
    class       volScalarField;
    location    "0.23";
    object      T;
}
// * * * * * * * * * * * * * * * * * * * * * * * * * * * * * * * * * * * * * //

dimensions      [0 0 0 1 0 0 0];

internalField   nonuniform List<scalar> 
6900
(
774.123
774.123
774.123
774.123
774.124
774.124
774.124
774.123
774.121
774.119
774.118
774.116
774.114
774.112
774.11
774.109
774.108
774.108
774.109
774.111
774.113
774.115
774.115
774.115
774.115
774.114
774.113
774.113
774.114
774.115
774.116
774.118
774.12
774.122
774.124
774.125
774.127
774.129
774.131
774.133
774.134
774.136
774.138
774.139
774.141
774.143
774.144
774.146
774.147
774.149
774.151
774.152
774.154
774.155
774.157
774.159
774.16
774.162
774.163
774.165
774.167
774.168
774.17
774.172
774.173
774.175
774.176
774.177
774.179
774.18
774.181
774.183
774.184
774.185
774.186
774.187
774.187
774.188
774.189
774.189
774.19
774.19
774.191
774.191
774.191
774.191
774.191
774.191
774.191
774.191
774.191
774.191
774.19
774.19
774.189
774.189
774.188
774.188
774.187
774.186
774.185
774.184
774.183
774.182
774.181
774.179
774.178
774.177
774.175
774.174
774.172
774.171
774.169
774.167
774.166
774.164
774.163
774.161
774.159
774.158
774.156
774.155
774.153
774.151
774.15
774.149
774.147
774.146
774.145
774.143
774.142
774.141
774.139
774.138
774.137
774.135
774.134
774.132
774.131
774.129
774.127
774.125
774.124
774.122
774.12
774.117
774.115
774.113
774.111
774.108
774.106
774.103
774.101
774.099
774.096
774.094
774.091
774.089
774.086
774.084
774.082
774.079
774.077
774.075
774.073
774.071
774.069
774.068
774.066
774.064
774.062
774.061
774.059
774.058
774.056
774.054
774.052
774.05
774.048
774.046
774.044
774.042
774.04
774.037
774.035
774.033
774.031
774.029
774.026
774.024
774.021
774.019
774.017
774.015
774.012
774.01
774.007
774.007
774.005
774.07
774.122
774.121
774.121
774.121
774.122
774.122
774.123
774.122
774.12
774.118
774.116
774.114
774.112
774.11
774.108
774.107
774.107
774.107
774.108
774.109
774.111
774.113
774.114
774.114
774.114
774.112
774.112
774.112
774.112
774.113
774.115
774.117
774.118
774.12
774.122
774.124
774.126
774.128
774.13
774.132
774.133
774.135
774.137
774.138
774.14
774.142
774.143
774.145
774.146
774.148
774.15
774.151
774.153
774.154
774.156
774.157
774.159
774.161
774.162
774.164
774.166
774.167
774.169
774.17
774.172
774.174
774.175
774.176
774.178
774.179
774.18
774.182
774.183
774.184
774.185
774.186
774.186
774.187
774.188
774.188
774.189
774.189
774.189
774.19
774.19
774.19
774.19
774.19
774.19
774.19
774.19
774.189
774.189
774.189
774.188
774.188
774.187
774.186
774.186
774.185
774.184
774.183
774.182
774.181
774.18
774.178
774.177
774.176
774.174
774.173
774.171
774.17
774.168
774.166
774.165
774.163
774.161
774.16
774.158
774.157
774.155
774.153
774.152
774.15
774.149
774.148
774.146
774.145
774.144
774.142
774.141
774.14
774.138
774.137
774.136
774.134
774.133
774.131
774.13
774.128
774.126
774.124
774.123
774.121
774.118
774.116
774.114
774.112
774.11
774.107
774.105
774.102
774.1
774.097
774.095
774.092
774.09
774.088
774.085
774.083
774.08
774.078
774.076
774.074
774.072
774.07
774.068
774.067
774.065
774.063
774.061
774.06
774.058
774.056
774.055
774.053
774.051
774.049
774.047
774.045
774.043
774.041
774.039
774.036
774.034
774.032
774.03
774.027
774.025
774.023
774.02
774.018
774.016
774.014
774.011
774.009
774.006
774.006
774.004
774.064
774.122
774.121
774.121
774.122
774.122
774.123
774.123
774.122
774.12
774.118
774.116
774.114
774.112
774.11
774.108
774.107
774.107
774.107
774.108
774.109
774.111
774.113
774.114
774.114
774.114
774.112
774.112
774.112
774.112
774.113
774.115
774.117
774.119
774.12
774.122
774.124
774.126
774.128
774.13
774.132
774.133
774.135
774.137
774.138
774.14
774.142
774.143
774.145
774.146
774.148
774.15
774.151
774.153
774.154
774.156
774.157
774.159
774.161
774.162
774.164
774.166
774.167
774.169
774.17
774.172
774.174
774.175
774.176
774.178
774.179
774.18
774.182
774.183
774.184
774.185
774.186
774.186
774.187
774.188
774.188
774.189
774.189
774.189
774.19
774.19
774.19
774.19
774.19
774.19
774.19
774.19
774.189
774.189
774.189
774.188
774.188
774.187
774.186
774.186
774.185
774.184
774.183
774.182
774.181
774.18
774.178
774.177
774.176
774.174
774.173
774.171
774.17
774.168
774.166
774.165
774.163
774.161
774.16
774.158
774.157
774.155
774.153
774.152
774.15
774.149
774.148
774.146
774.145
774.144
774.142
774.141
774.14
774.138
774.137
774.136
774.134
774.133
774.131
774.13
774.128
774.126
774.124
774.123
774.121
774.118
774.116
774.114
774.112
774.11
774.107
774.105
774.102
774.1
774.097
774.095
774.092
774.09
774.088
774.085
774.083
774.08
774.078
774.076
774.074
774.072
774.07
774.068
774.067
774.065
774.063
774.061
774.06
774.058
774.056
774.055
774.053
774.051
774.049
774.047
774.045
774.043
774.041
774.039
774.036
774.034
774.032
774.03
774.027
774.025
774.023
774.021
774.018
774.016
774.014
774.011
774.009
774.007
774.005
774.002
774.005
774.122
774.121
774.121
774.121
774.122
774.122
774.123
774.122
774.12
774.118
774.116
774.114
774.112
774.11
774.108
774.107
774.107
774.107
774.108
774.109
774.111
774.113
774.114
774.114
774.114
774.112
774.112
774.112
774.112
774.113
774.115
774.117
774.118
774.12
774.122
774.124
774.126
774.128
774.13
774.132
774.133
774.135
774.137
774.138
774.14
774.142
774.143
774.145
774.146
774.148
774.15
774.151
774.153
774.154
774.156
774.157
774.159
774.161
774.162
774.164
774.166
774.167
774.169
774.17
774.172
774.174
774.175
774.176
774.178
774.179
774.18
774.182
774.183
774.184
774.185
774.186
774.186
774.187
774.188
774.188
774.189
774.189
774.189
774.19
774.19
774.19
774.19
774.19
774.19
774.19
774.19
774.189
774.189
774.189
774.188
774.188
774.187
774.186
774.186
774.185
774.184
774.183
774.182
774.181
774.18
774.178
774.177
774.176
774.174
774.173
774.171
774.17
774.168
774.166
774.165
774.163
774.161
774.16
774.158
774.157
774.155
774.153
774.152
774.15
774.149
774.148
774.146
774.145
774.144
774.142
774.141
774.14
774.138
774.137
774.136
774.134
774.133
774.131
774.13
774.128
774.126
774.124
774.123
774.121
774.118
774.116
774.114
774.112
774.11
774.107
774.105
774.102
774.1
774.097
774.095
774.092
774.09
774.088
774.085
774.083
774.08
774.078
774.076
774.074
774.072
774.07
774.068
774.067
774.065
774.063
774.061
774.06
774.058
774.056
774.055
774.053
774.051
774.049
774.047
774.045
774.043
774.041
774.039
774.036
774.034
774.032
774.03
774.027
774.025
774.023
774.021
774.018
774.016
774.013
774.012
774.009
774.007
774.002
774.005
773.885
774.123
774.123
774.123
774.123
774.124
774.124
774.124
774.123
774.121
774.119
774.118
774.116
774.114
774.112
774.11
774.109
774.108
774.108
774.109
774.111
774.113
774.115
774.115
774.115
774.115
774.114
774.113
774.113
774.114
774.115
774.116
774.118
774.12
774.122
774.124
774.125
774.127
774.129
774.131
774.133
774.134
774.136
774.138
774.139
774.141
774.143
774.144
774.146
774.147
774.149
774.151
774.152
774.154
774.155
774.157
774.159
774.16
774.162
774.163
774.165
774.167
774.168
774.17
774.172
774.173
774.175
774.176
774.177
774.179
774.18
774.181
774.183
774.184
774.185
774.186
774.187
774.187
774.188
774.189
774.189
774.19
774.19
774.191
774.191
774.191
774.191
774.191
774.191
774.191
774.191
774.191
774.191
774.19
774.19
774.189
774.189
774.188
774.188
774.187
774.186
774.185
774.184
774.183
774.182
774.181
774.179
774.178
774.177
774.175
774.174
774.172
774.171
774.169
774.167
774.166
774.164
774.163
774.161
774.159
774.158
774.156
774.155
774.153
774.151
774.15
774.149
774.147
774.146
774.145
774.143
774.142
774.141
774.139
774.138
774.137
774.135
774.134
774.132
774.131
774.129
774.127
774.125
774.124
774.122
774.12
774.117
774.115
774.113
774.111
774.108
774.106
774.103
774.101
774.099
774.096
774.094
774.091
774.089
774.086
774.084
774.082
774.079
774.077
774.075
774.073
774.071
774.069
774.068
774.066
774.064
774.063
774.061
774.059
774.058
774.056
774.054
774.052
774.05
774.048
774.046
774.044
774.042
774.04
774.037
774.035
774.033
774.031
774.028
774.026
774.024
774.022
774.019
774.017
774.014
774.013
774.01
774.008
774.002
774.013
773.803
774.054
774.066
774.065
774.064
774.061
774.06
774.06
774.056
774.047
774.038
774.021
773.995
773.983
773.987
773.997
774.009
773.991
773.955
773.882
773.829
774.041
774.044
774.042
774.038
774.033
774.03
774.028
774.022
774.01
773.999
773.986
773.954
773.931
773.933
773.946
773.959
773.948
773.882
773.826
773.787
774.004
774.003
774
773.995
773.989
773.983
773.975
773.969
773.961
773.955
773.948
773.938
773.928
773.921
773.914
773.906
773.904
773.911
773.916
773.914
773.936
773.937
773.942
773.941
773.935
773.921
773.907
773.884
773.871
773.849
773.831
773.815
773.795
773.784
773.773
773.759
773.745
773.738
773.725
773.716
773.885
773.866
773.862
773.864
773.863
773.858
773.847
773.833
773.819
773.806
773.789
773.779
773.762
773.755
773.74
773.736
773.725
773.723
773.728
773.753
773.671
773.697
773.688
773.688
773.702
773.683
773.667
773.667
773.672
773.673
773.669
773.665
773.664
773.663
773.662
773.659
773.657
773.656
773.654
773.653
773.651
773.649
773.648
773.647
773.646
773.644
773.641
773.64
773.64
773.64
773.64
773.64
773.64
773.639
773.636
773.63
773.628
773.63
773.633
773.638
773.639
773.639
773.639
773.64
773.64
773.641
773.644
773.652
773.7
773.9
774.175
774.303
774.314
774.234
773.944
773.686
773.556
773.51
773.505
773.515
773.539
773.556
773.565
773.571
773.573
773.574
773.574
773.574
773.573
773.572
773.571
773.57
773.569
773.567
773.566
773.565
773.564
773.563
773.562
773.561
773.56
773.559
773.559
773.558
773.557
773.556
773.555
773.554
773.554
773.553
773.552
773.552
773.551
773.55
773.549
773.549
773.548
773.548
773.547
773.546
773.546
773.545
773.545
773.544
773.544
773.543
773.543
773.543
773.542
773.542
773.542
773.542
773.541
773.541
773.541
773.541
773.541
773.541
773.541
773.542
773.542
773.542
773.542
773.543
773.543
773.543
773.543
773.543
773.544
773.544
773.544
773.544
773.544
773.544
773.544
773.544
773.544
773.544
773.544
773.544
773.543
773.543
773.543
773.542
773.542
773.541
773.541
773.54
773.54
773.539
773.539
773.538
773.538
773.538
773.537
773.537
773.536
773.536
773.536
773.536
773.536
773.536
773.536
773.536
773.536
773.536
773.537
773.537
773.538
773.538
773.539
773.539
773.54
773.54
773.541
773.541
773.542
773.542
773.542
773.543
773.543
773.543
773.542
773.542
773.542
773.541
773.541
773.54
773.539
773.538
773.537
773.536
773.535
773.534
773.533
773.531
773.53
773.525
773.529
773.357
773.668
773.699
773.693
773.701
773.715
773.695
773.683
773.684
773.69
773.69
773.686
773.683
773.682
773.682
773.68
773.677
773.675
773.674
773.672
773.669
773.668
773.666
773.666
773.664
773.662
773.661
773.661
773.661
773.661
773.661
773.663
773.663
773.662
773.66
773.659
773.659
773.66
773.665
773.666
773.666
773.667
773.666
773.666
773.665
773.665
773.666
773.669
773.686
773.766
773.941
774.056
774.09
774.078
773.98
773.79
773.662
773.596
773.568
773.56
773.56
773.564
773.569
773.572
773.574
773.574
773.574
773.574
773.573
773.572
773.571
773.57
773.569
773.568
773.566
773.565
773.564
773.563
773.562
773.561
773.56
773.559
773.558
773.558
773.557
773.556
773.555
773.554
773.553
773.553
773.552
773.551
773.551
773.55
773.549
773.548
773.548
773.547
773.547
773.546
773.545
773.545
773.544
773.544
773.543
773.543
773.542
773.542
773.542
773.541
773.541
773.541
773.541
773.54
773.54
773.54
773.54
773.54
773.54
773.54
773.541
773.541
773.541
773.541
773.542
773.542
773.542
773.542
773.542
773.543
773.543
773.543
773.543
773.543
773.543
773.543
773.543
773.543
773.543
773.543
773.543
773.542
773.542
773.542
773.541
773.541
773.54
773.54
773.539
773.539
773.538
773.538
773.537
773.537
773.537
773.536
773.536
773.535
773.535
773.535
773.535
773.535
773.535
773.535
773.535
773.535
773.535
773.536
773.536
773.537
773.537
773.538
773.538
773.539
773.539
773.54
773.54
773.541
773.541
773.541
773.542
773.542
773.542
773.541
773.541
773.541
773.54
773.54
773.539
773.538
773.537
773.536
773.535
773.534
773.533
773.532
773.531
773.529
773.525
773.524
773.425
773.879
773.901
773.931
773.933
773.931
773.929
773.931
773.932
773.932
773.93
773.929
773.928
773.925
773.923
773.92
773.918
773.916
773.914
773.913
773.912
773.913
773.913
773.915
773.916
773.916
773.917
773.918
773.919
773.922
773.924
773.925
773.926
773.926
773.925
773.92
773.9
773.844
773.781
773.73
773.691
773.666
773.65
773.642
773.638
773.637
773.637
773.639
773.64
773.64
773.639
773.633
773.623
773.614
773.606
773.601
773.597
773.595
773.593
773.591
773.59
773.588
773.586
773.584
773.582
773.58
773.578
773.577
773.575
773.573
773.572
773.57
773.569
773.568
773.567
773.565
773.564
773.563
773.562
773.561
773.56
773.559
773.558
773.558
773.557
773.556
773.555
773.554
773.553
773.553
773.552
773.551
773.551
773.55
773.549
773.548
773.548
773.547
773.547
773.546
773.545
773.545
773.544
773.544
773.543
773.543
773.542
773.542
773.542
773.541
773.541
773.541
773.541
773.54
773.54
773.54
773.54
773.54
773.54
773.54
773.541
773.541
773.541
773.541
773.542
773.542
773.542
773.542
773.542
773.543
773.543
773.543
773.543
773.543
773.543
773.543
773.543
773.543
773.543
773.543
773.543
773.542
773.542
773.542
773.541
773.541
773.54
773.54
773.539
773.539
773.538
773.538
773.537
773.537
773.537
773.536
773.536
773.535
773.535
773.535
773.535
773.535
773.535
773.535
773.535
773.535
773.535
773.536
773.536
773.537
773.537
773.538
773.538
773.539
773.539
773.54
773.54
773.541
773.541
773.541
773.542
773.542
773.542
773.541
773.541
773.541
773.54
773.539
773.539
773.538
773.537
773.536
773.535
773.534
773.533
773.532
773.531
773.529
773.528
773.526
773.528
773.7
773.693
773.692
773.692
773.686
773.68
773.679
773.679
773.679
773.676
773.674
773.673
773.672
773.67
773.668
773.667
773.665
773.664
773.663
773.661
773.66
773.659
773.657
773.655
773.653
773.651
773.65
773.649
773.648
773.646
773.644
773.643
773.641
773.64
773.64
773.64
773.642
773.645
773.649
773.652
773.654
773.658
773.669
773.68
773.686
773.691
773.704
773.742
773.791
773.816
773.821
773.815
773.778
773.699
773.638
773.601
773.582
773.574
773.572
773.572
773.573
773.575
773.576
773.576
773.576
773.576
773.575
773.574
773.573
773.571
773.57
773.569
773.568
773.567
773.565
773.564
773.563
773.562
773.561
773.56
773.559
773.558
773.558
773.557
773.556
773.555
773.554
773.553
773.553
773.552
773.551
773.551
773.55
773.549
773.548
773.548
773.547
773.547
773.546
773.545
773.545
773.544
773.544
773.543
773.543
773.542
773.542
773.542
773.541
773.541
773.541
773.541
773.54
773.54
773.54
773.54
773.54
773.54
773.54
773.541
773.541
773.541
773.541
773.542
773.542
773.542
773.542
773.542
773.543
773.543
773.543
773.543
773.543
773.543
773.543
773.543
773.543
773.543
773.543
773.543
773.542
773.542
773.542
773.541
773.541
773.54
773.54
773.539
773.539
773.538
773.538
773.537
773.537
773.537
773.536
773.536
773.535
773.535
773.535
773.535
773.535
773.535
773.535
773.535
773.535
773.535
773.536
773.536
773.537
773.537
773.538
773.538
773.539
773.539
773.54
773.54
773.541
773.541
773.541
773.542
773.542
773.542
773.541
773.541
773.541
773.54
773.539
773.539
773.538
773.537
773.536
773.535
773.534
773.533
773.532
773.531
773.529
773.529
773.53
773.578
773.814
773.814
773.811
773.81
773.803
773.797
773.796
773.796
773.794
773.791
773.79
773.789
773.787
773.786
773.785
773.783
773.782
773.78
773.779
773.778
773.776
773.774
773.771
773.769
773.767
773.765
773.764
773.763
773.761
773.76
773.758
773.757
773.756
773.756
773.757
773.76
773.762
773.763
773.764
773.768
773.775
773.779
773.779
773.778
773.779
773.79
773.865
774.064
774.213
774.271
774.274
774.232
774.078
773.915
773.798
773.719
773.667
773.634
773.614
773.602
773.594
773.589
773.585
773.583
773.581
773.579
773.577
773.576
773.574
773.573
773.571
773.57
773.569
773.568
773.566
773.565
773.564
773.563
773.562
773.561
773.56
773.559
773.559
773.558
773.557
773.556
773.555
773.554
773.554
773.553
773.552
773.552
773.551
773.55
773.549
773.549
773.548
773.548
773.547
773.546
773.546
773.545
773.545
773.544
773.544
773.543
773.543
773.543
773.542
773.542
773.542
773.542
773.541
773.541
773.541
773.541
773.541
773.541
773.541
773.542
773.542
773.542
773.542
773.543
773.543
773.543
773.543
773.543
773.544
773.544
773.544
773.544
773.544
773.544
773.544
773.544
773.544
773.544
773.544
773.544
773.543
773.543
773.543
773.542
773.542
773.541
773.541
773.54
773.54
773.539
773.539
773.538
773.538
773.538
773.537
773.537
773.536
773.536
773.536
773.536
773.536
773.536
773.536
773.536
773.536
773.536
773.537
773.537
773.538
773.538
773.539
773.539
773.54
773.54
773.541
773.541
773.542
773.542
773.542
773.543
773.543
773.543
773.542
773.542
773.542
773.541
773.54
773.54
773.539
773.538
773.537
773.536
773.535
773.534
773.533
773.532
773.53
773.53
773.531
773.583
773.417
773.397
773.391
773.392
773.391
773.385
773.372
773.362
773.344
773.335
773.317
773.306
773.29
773.281
773.267
773.261
773.251
773.253
773.26
773.291
773.464
773.463
773.468
773.466
773.459
773.445
773.428
773.414
773.392
773.378
773.357
773.343
773.33
773.309
773.295
773.285
773.272
773.264
773.256
773.252
773.527
773.526
773.523
773.518
773.512
773.506
773.499
773.492
773.485
773.477
773.467
773.458
773.452
773.444
773.441
773.446
773.448
773.443
773.42
773.404
773.564
773.567
773.565
773.562
773.558
773.555
773.548
773.538
773.528
773.511
773.494
773.493
773.505
773.52
773.496
773.437
773.413
773.407
773.381
773.339
773.576
773.589
773.588
773.587
773.585
773.584
773.579
773.573
773.563
773.548
773.538
773.54
773.55
773.561
773.537
773.498
773.469
773.454
773.409
773.365
773.347
773.345
773.345
773.339
773.33
773.328
773.328
773.326
773.323
773.321
773.32
773.319
773.317
773.316
773.315
773.314
773.313
773.312
773.311
773.31
773.309
773.307
773.306
773.305
773.303
773.303
773.302
773.301
773.3
773.298
773.297
773.296
773.296
773.296
773.298
773.3
773.301
773.302
773.302
773.303
773.308
773.315
773.318
773.318
773.316
773.317
773.33
773.408
773.608
773.753
773.809
773.811
773.767
773.613
773.453
773.338
773.26
773.209
773.177
773.157
773.145
773.138
773.133
773.13
773.127
773.126
773.124
773.123
773.122
773.121
773.12
773.118
773.117
773.116
773.115
773.114
773.113
773.111
773.11
773.109
773.107
773.106
773.104
773.103
773.101
773.099
773.098
773.096
773.094
773.093
773.091
773.089
773.088
773.086
773.084
773.082
773.081
773.075
773.078
772.914
773.231
773.228
773.228
773.221
773.213
773.212
773.213
773.213
773.21
773.206
773.205
773.205
773.204
773.203
773.202
773.201
773.2
773.199
773.198
773.197
773.196
773.195
773.194
773.193
773.192
773.191
773.19
773.189
773.189
773.187
773.186
773.185
773.183
773.183
773.182
773.184
773.186
773.187
773.189
773.191
773.193
773.195
773.201
773.212
773.223
773.228
773.233
773.245
773.281
773.328
773.353
773.358
773.352
773.316
773.239
773.18
773.144
773.125
773.117
773.115
773.115
773.117
773.119
773.12
773.121
773.121
773.121
773.12
773.12
773.119
773.118
773.117
773.116
773.115
773.114
773.113
773.112
773.11
773.109
773.108
773.106
773.105
773.103
773.102
773.1
773.098
773.097
773.095
773.093
773.092
773.09
773.088
773.087
773.085
773.083
773.081
773.08
773.075
773.073
772.979
773.404
773.448
773.459
773.454
773.452
773.453
773.455
773.455
773.453
773.452
773.452
773.451
773.449
773.448
773.447
773.446
773.445
773.444
773.444
773.444
773.444
773.444
773.445
773.447
773.448
773.449
773.449
773.449
773.45
773.452
773.456
773.458
773.46
773.461
773.461
773.456
773.434
773.377
773.319
773.272
773.236
773.213
773.198
773.19
773.186
773.185
773.185
773.185
773.185
773.185
773.183
773.175
773.165
773.157
773.149
773.143
773.14
773.138
773.136
773.135
773.133
773.131
773.13
773.128
773.126
773.125
773.123
773.122
773.121
773.12
773.119
773.117
773.116
773.115
773.114
773.113
773.112
773.11
773.109
773.108
773.106
773.105
773.103
773.102
773.1
773.098
773.097
773.095
773.093
773.092
773.09
773.088
773.087
773.085
773.083
773.082
773.08
773.078
773.076
773.077
773.215
773.226
773.236
773.253
773.23
773.21
773.211
773.222
773.224
773.218
773.214
773.214
773.214
773.214
773.212
773.21
773.209
773.208
773.207
773.206
773.206
773.206
773.205
773.204
773.202
773.201
773.201
773.201
773.202
773.203
773.204
773.204
773.202
773.201
773.201
773.203
773.206
773.209
773.209
773.207
773.205
773.203
773.203
773.204
773.206
773.208
773.21
773.215
773.234
773.314
773.481
773.591
773.624
773.614
773.523
773.336
773.208
773.139
773.11
773.102
773.103
773.107
773.113
773.116
773.118
773.119
773.119
773.119
773.119
773.119
773.118
773.117
773.116
773.115
773.114
773.113
773.112
773.11
773.109
773.108
773.106
773.105
773.103
773.102
773.1
773.098
773.097
773.095
773.093
773.092
773.09
773.088
773.087
773.085
773.083
773.082
773.08
773.08
773.081
773.125
773.22
773.233
773.232
773.245
773.219
773.195
773.195
773.205
773.208
773.202
773.197
773.196
773.197
773.197
773.195
773.193
773.192
773.191
773.19
773.189
773.188
773.188
773.188
773.187
773.185
773.183
773.181
773.181
773.181
773.182
773.183
773.183
773.182
773.18
773.176
773.173
773.174
773.176
773.178
773.18
773.179
773.179
773.178
773.179
773.18
773.182
773.184
773.187
773.195
773.238
773.416
773.682
773.815
773.833
773.771
773.512
773.249
773.111
773.059
773.05
773.058
773.081
773.098
773.109
773.114
773.117
773.119
773.119
773.12
773.119
773.119
773.118
773.117
773.116
773.115
773.114
773.113
773.111
773.11
773.109
773.107
773.106
773.104
773.103
773.101
773.099
773.098
773.096
773.094
773.093
773.091
773.089
773.088
773.086
773.084
773.083
773.081
773.081
773.082
773.13
772.969
772.95
772.944
772.945
772.943
772.938
772.924
772.915
772.897
772.888
772.87
772.859
772.843
772.834
772.821
772.815
772.805
772.806
772.812
772.842
773.015
773.014
773.019
773.017
773.01
772.996
772.978
772.965
772.944
772.93
772.909
772.896
772.883
772.862
772.848
772.838
772.826
772.817
772.809
772.805
773.077
773.076
773.073
773.068
773.062
773.056
773.049
773.042
773.035
773.027
773.018
773.009
773.002
772.995
772.992
772.997
772.999
772.995
772.973
772.958
773.113
773.115
773.114
773.111
773.107
773.104
773.097
773.088
773.078
773.062
773.044
773.044
773.055
773.07
773.049
772.988
772.964
772.959
772.936
772.896
773.124
773.137
773.136
773.135
773.134
773.133
773.128
773.122
773.112
773.098
773.088
773.09
773.1
773.111
773.088
773.049
773.02
773.006
772.964
772.92
772.897
772.896
772.895
772.891
772.883
772.881
772.881
772.881
772.879
772.877
772.876
772.875
772.874
772.873
772.872
772.871
772.87
772.869
772.869
772.868
772.867
772.866
772.865
772.865
772.864
772.864
772.864
772.863
772.862
772.862
772.862
772.861
772.862
772.863
772.867
772.87
772.872
772.873
772.877
772.886
772.894
772.898
772.899
772.9
772.904
772.94
773.089
773.279
773.378
773.402
773.387
773.29
773.115
772.981
772.889
772.828
772.79
772.767
772.753
772.745
772.741
772.739
772.737
772.736
772.736
772.736
772.735
772.735
772.735
772.735
772.735
772.735
772.735
772.735
772.734
772.734
772.734
772.734
772.734
772.734
772.734
772.734
772.734
772.734
772.733
772.733
772.733
772.733
772.733
772.733
772.733
772.733
772.733
772.733
772.733
772.733
772.733
772.733
772.734
772.734
772.734
772.734
772.734
772.734
772.734
772.734
772.734
772.734
772.735
772.735
772.735
772.735
772.735
772.735
772.735
772.736
772.736
772.736
772.736
772.736
772.736
772.736
772.736
772.736
772.736
772.736
772.736
772.735
772.735
772.735
772.735
772.734
772.734
772.734
772.733
772.733
772.732
772.732
772.732
772.731
772.731
772.731
772.731
772.73
772.73
772.73
772.73
772.73
772.729
772.729
772.729
772.73
772.73
772.73
772.73
772.73
772.73
772.731
772.731
772.732
772.732
772.733
772.733
772.734
772.734
772.735
772.735
772.735
772.736
772.736
772.736
772.737
772.737
772.737
772.737
772.736
772.736
772.736
772.735
772.735
772.734
772.734
772.733
772.733
772.732
772.732
772.731
772.73
772.73
772.729
772.729
772.728
772.728
772.727
772.727
772.726
772.726
772.727
772.729
772.781
772.784
772.781
772.781
772.775
772.768
772.767
772.768
772.768
772.765
772.763
772.762
772.761
772.76
772.759
772.758
772.757
772.756
772.756
772.755
772.754
772.753
772.753
772.752
772.752
772.751
772.751
772.751
772.75
772.75
772.75
772.75
772.749
772.749
772.749
772.75
772.753
772.758
772.762
772.766
772.768
772.772
772.782
772.797
772.806
772.812
772.821
772.847
772.898
772.934
772.946
772.945
772.926
772.862
772.795
772.752
772.73
772.721
772.718
772.719
772.721
772.725
772.728
772.73
772.731
772.732
772.733
772.733
772.733
772.734
772.734
772.734
772.734
772.734
772.734
772.733
772.733
772.733
772.733
772.733
772.733
772.733
772.733
772.733
772.733
772.732
772.732
772.732
772.732
772.732
772.732
772.732
772.732
772.732
772.732
772.732
772.732
772.732
772.732
772.732
772.733
772.733
772.733
772.733
772.733
772.733
772.733
772.733
772.733
772.734
772.734
772.734
772.734
772.734
772.734
772.734
772.735
772.735
772.735
772.735
772.735
772.735
772.735
772.735
772.735
772.735
772.735
772.735
772.734
772.734
772.734
772.734
772.733
772.733
772.733
772.732
772.732
772.731
772.731
772.731
772.73
772.73
772.73
772.73
772.729
772.729
772.729
772.729
772.729
772.728
772.728
772.728
772.729
772.729
772.729
772.729
772.729
772.729
772.73
772.73
772.731
772.731
772.731
772.732
772.733
772.733
772.734
772.734
772.734
772.735
772.735
772.735
772.736
772.736
772.736
772.736
772.735
772.735
772.735
772.734
772.734
772.733
772.733
772.732
772.732
772.731
772.731
772.73
772.729
772.729
772.728
772.728
772.727
772.727
772.726
772.726
772.725
772.725
772.726
772.728
772.775
772.958
773.002
773.014
773.01
773.008
773.01
773.011
773.011
773.009
773.008
773.007
773.006
773.005
773.003
773.002
773.001
773
773
772.999
772.999
772.998
772.998
773
773.002
773.003
773.005
773.007
773.011
773.015
773.02
773.024
773.026
773.027
773.027
773.022
772.998
772.94
772.883
772.839
772.807
772.786
772.775
772.769
772.768
772.768
772.769
772.771
772.772
772.772
772.769
772.761
772.754
772.747
772.742
772.74
772.738
772.738
772.738
772.738
772.737
772.737
772.736
772.736
772.736
772.735
772.735
772.735
772.734
772.734
772.734
772.734
772.734
772.734
772.734
772.733
772.733
772.733
772.733
772.733
772.733
772.733
772.733
772.733
772.733
772.732
772.732
772.732
772.732
772.732
772.732
772.732
772.732
772.732
772.732
772.732
772.732
772.732
772.732
772.732
772.733
772.733
772.733
772.733
772.733
772.733
772.733
772.733
772.733
772.734
772.734
772.734
772.734
772.734
772.734
772.734
772.735
772.735
772.735
772.735
772.735
772.735
772.735
772.735
772.735
772.735
772.735
772.735
772.734
772.734
772.734
772.734
772.733
772.733
772.733
772.732
772.732
772.731
772.731
772.731
772.73
772.73
772.73
772.73
772.729
772.729
772.729
772.729
772.729
772.728
772.728
772.728
772.729
772.729
772.729
772.729
772.729
772.729
772.73
772.73
772.731
772.731
772.731
772.732
772.733
772.733
772.734
772.734
772.734
772.735
772.735
772.735
772.736
772.736
772.736
772.736
772.735
772.735
772.735
772.734
772.734
772.733
772.733
772.732
772.732
772.731
772.731
772.73
772.729
772.729
772.728
772.728
772.727
772.727
772.726
772.726
772.725
772.725
772.725
772.724
772.727
772.769
772.784
772.795
772.809
772.784
772.767
772.77
772.779
772.779
772.773
772.77
772.77
772.77
772.769
772.767
772.766
772.765
772.765
772.764
772.763
772.763
772.762
772.761
772.761
772.76
772.76
772.76
772.761
772.762
772.764
772.765
772.765
772.766
772.766
772.768
772.774
772.78
772.784
772.785
772.785
772.786
772.786
772.788
772.79
772.791
772.795
772.806
772.852
772.998
773.142
773.203
773.207
773.16
772.996
772.842
772.757
772.719
772.707
772.707
772.71
772.718
772.723
772.727
772.729
772.731
772.732
772.733
772.733
772.733
772.733
772.733
772.734
772.734
772.733
772.733
772.733
772.733
772.733
772.733
772.733
772.733
772.733
772.733
772.733
772.732
772.732
772.732
772.732
772.732
772.732
772.732
772.732
772.732
772.732
772.732
772.732
772.732
772.732
772.732
772.733
772.733
772.733
772.733
772.733
772.733
772.733
772.733
772.733
772.734
772.734
772.734
772.734
772.734
772.734
772.734
772.735
772.735
772.735
772.735
772.735
772.735
772.735
772.735
772.735
772.735
772.735
772.735
772.734
772.734
772.734
772.734
772.733
772.733
772.733
772.732
772.732
772.731
772.731
772.731
772.73
772.73
772.73
772.73
772.729
772.729
772.729
772.729
772.729
772.728
772.728
772.728
772.729
772.729
772.729
772.729
772.729
772.729
772.73
772.73
772.731
772.731
772.731
772.732
772.733
772.733
772.734
772.734
772.734
772.735
772.735
772.735
772.736
772.736
772.736
772.736
772.735
772.735
772.735
772.734
772.734
772.733
772.733
772.732
772.732
772.731
772.731
772.73
772.729
772.729
772.728
772.728
772.727
772.727
772.726
772.726
772.725
772.725
772.722
772.721
772.627
772.773
772.791
772.789
772.8
772.772
772.752
772.753
772.762
772.763
772.757
772.753
772.753
772.753
772.753
772.751
772.75
772.749
772.748
772.747
772.747
772.746
772.746
772.745
772.744
772.744
772.743
772.743
772.743
772.744
772.745
772.746
772.747
772.746
772.746
772.744
772.742
772.744
772.749
772.754
772.758
772.758
772.759
772.762
772.765
772.768
772.77
772.776
772.8
772.912
773.186
773.372
773.424
773.397
773.211
772.916
772.744
772.671
772.654
772.658
772.679
772.701
772.714
772.722
772.727
772.73
772.732
772.733
772.734
772.734
772.734
772.734
772.734
772.734
772.734
772.734
772.734
772.734
772.734
772.734
772.734
772.734
772.734
772.734
772.734
772.733
772.733
772.733
772.733
772.733
772.733
772.733
772.733
772.733