/*--------------------------------*- C++ -*----------------------------------*\
| =========                 |                                                 |
| \\      /  F ield         | OpenFOAM: The Open Source CFD Toolbox           |
|  \\    /   O peration     | Version:  3.0.x                                 |
|   \\  /    A nd           | Web:      www.OpenFOAM.org                      |
|    \\/     M anipulation  |                                                 |
\*---------------------------------------------------------------------------*/
FoamFile
{
    version     2.0;
    format      ascii;
    class       volVectorField;
    location    "0.23";
    object      U;
}
// * * * * * * * * * * * * * * * * * * * * * * * * * * * * * * * * * * * * * //

dimensions      [0 1 -1 0 0 0 0];

internalField   nonuniform List<vector> 
6900
(
(42.6949 0.000101329 0)
(42.6854 9.26906e-05 0)
(42.6749 9.02141e-05 0)
(42.6648 9.10809e-05 0)
(42.6547 9.18125e-05 0)
(42.6445 9.22519e-05 0)
(42.6341 9.25877e-05 0)
(42.6234 9.29317e-05 0)
(42.6126 9.31227e-05 0)
(42.6017 9.3341e-05 0)
(42.5904 9.35154e-05 0)
(42.579 9.36634e-05 0)
(42.5674 9.37903e-05 0)
(42.5557 9.38995e-05 0)
(42.5437 9.39933e-05 0)
(42.5316 9.40733e-05 0)
(42.5193 9.41382e-05 0)
(42.507 9.42032e-05 0)
(42.4945 9.42466e-05 0)
(42.482 9.42671e-05 0)
(42.4695 9.42787e-05 0)
(42.4569 9.42551e-05 0)
(42.4445 9.41796e-05 0)
(42.432 9.40029e-05 0)
(42.4198 9.37938e-05 0)
(42.4076 9.33378e-05 0)
(42.3957 9.26915e-05 0)
(42.3839 9.1753e-05 0)
(42.3724 9.0462e-05 0)
(42.3612 8.87208e-05 0)
(42.3502 8.64809e-05 0)
(42.3396 8.36809e-05 0)
(42.3293 8.02896e-05 0)
(42.3194 7.63033e-05 0)
(42.3097 7.17509e-05 0)
(42.3005 6.66948e-05 0)
(42.2916 6.12286e-05 0)
(42.283 5.54717e-05 0)
(42.2748 4.95608e-05 0)
(42.2669 4.36401e-05 0)
(42.2592 3.78507e-05 0)
(42.2518 3.23212e-05 0)
(42.2446 2.71594e-05 0)
(42.2375 2.24472e-05 0)
(42.2306 1.82385e-05 0)
(42.2238 1.45586e-05 0)
(42.2171 1.14076e-05 0)
(42.2103 8.76372e-06 0)
(42.2036 6.58908e-06 0)
(42.1968 4.8349e-06 0)
(42.19 3.4467e-06 0)
(42.1831 2.36882e-06 0)
(42.176 1.54784e-06 0)
(42.1689 9.34889e-07 0)
(42.1617 4.85407e-07 0)
(42.1544 1.57949e-07 0)
(42.147 -7.79276e-08 0)
(42.1396 -2.44408e-07 0)
(42.132 -3.59214e-07 0)
(42.1245 -4.3709e-07 0)
(42.1169 -4.89333e-07 0)
(42.1093 -5.24148e-07 0)
(42.1018 -5.47321e-07 0)
(42.0943 -5.6287e-07 0)
(42.0868 -5.7352e-07 0)
(42.0795 -5.81097e-07 0)
(42.0723 -5.86813e-07 0)
(42.0652 -5.91413e-07 0)
(42.0583 -5.95352e-07 0)
(42.0515 -5.98914e-07 0)
(42.0449 -6.02281e-07 0)
(42.0385 -6.05545e-07 0)
(42.0322 -6.08773e-07 0)
(42.0261 -6.11983e-07 0)
(42.0201 -6.15177e-07 0)
(42.0143 -6.18344e-07 0)
(42.0086 -6.21488e-07 0)
(42.003 -6.2462e-07 0)
(41.9975 -6.27774e-07 0)
(41.992 -6.30921e-07 0)
(41.9866 -6.34091e-07 0)
(41.9812 -6.37265e-07 0)
(41.9758 -6.40393e-07 0)
(41.9703 -6.43171e-07 0)
(41.9647 -6.4556e-07 0)
(41.9591 -6.44527e-07 0)
(41.9533 -6.54599e-07 0)
(41.9475 -6.57596e-07 0)
(41.9416 -6.5816e-07 0)
(41.9355 -6.59338e-07 0)
(41.9292 -6.61621e-07 0)
(41.9229 -6.63923e-07 0)
(41.9164 -6.66275e-07 0)
(41.9098 -6.68564e-07 0)
(41.903 -6.70867e-07 0)
(41.8962 -6.7312e-07 0)
(41.8894 -6.75349e-07 0)
(41.8825 -6.77401e-07 0)
(41.8756 -6.79575e-07 0)
(41.8687 -6.82481e-07 0)
(41.8619 -6.8444e-07 0)
(41.8551 -6.85938e-07 0)
(41.8484 -6.87436e-07 0)
(41.8418 -6.89229e-07 0)
(41.8354 -6.91151e-07 0)
(41.829 -6.92994e-07 0)
(41.8228 -6.94698e-07 0)
(41.8167 -6.96253e-07 0)
(41.8107 -6.97657e-07 0)
(41.8049 -6.98871e-07 0)
(41.7991 -6.99925e-07 0)
(41.7935 -7.00778e-07 0)
(41.788 -7.0143e-07 0)
(41.7825 -7.01884e-07 0)
(41.7772 -7.02155e-07 0)
(41.7718 -7.02258e-07 0)
(41.7664 -7.02194e-07 0)
(41.761 -7.01984e-07 0)
(41.7556 -7.01618e-07 0)
(41.7501 -7.01121e-07 0)
(41.7445 -7.00507e-07 0)
(41.7387 -6.9979e-07 0)
(41.7328 -6.99016e-07 0)
(41.7266 -6.98217e-07 0)
(41.7203 -6.97315e-07 0)
(41.7137 -6.96291e-07 0)
(41.7069 -6.9517e-07 0)
(41.6998 -6.94102e-07 0)
(41.6925 -6.93233e-07 0)
(41.685 -6.92603e-07 0)
(41.6773 -6.92168e-07 0)
(41.6694 -6.91846e-07 0)
(41.6613 -6.9159e-07 0)
(41.6531 -6.91455e-07 0)
(41.6448 -6.91565e-07 0)
(41.6364 -6.92024e-07 0)
(41.628 -6.92855e-07 0)
(41.6196 -6.9397e-07 0)
(41.6112 -6.95232e-07 0)
(41.6029 -6.96501e-07 0)
(41.5946 -6.97699e-07 0)
(41.5864 -6.988e-07 0)
(41.5783 -6.99787e-07 0)
(41.5703 -7.00772e-07 0)
(41.5623 -7.0181e-07 0)
(41.5544 -7.02876e-07 0)
(41.5466 -7.03749e-07 0)
(41.5388 -7.0426e-07 0)
(41.531 -7.04443e-07 0)
(41.5233 -7.04442e-07 0)
(41.5156 -7.04415e-07 0)
(41.5079 -7.04331e-07 0)
(41.5001 -7.04005e-07 0)
(41.4923 -7.03219e-07 0)
(41.4845 -7.01892e-07 0)
(41.4766 -7.00442e-07 0)
(41.4686 -6.98843e-07 0)
(41.4604 -6.97432e-07 0)
(41.4521 -6.95584e-07 0)
(41.4436 -6.93778e-07 0)
(41.4348 -6.9121e-07 0)
(41.4258 -6.88774e-07 0)
(41.4165 -6.85611e-07 0)
(41.4069 -6.82674e-07 0)
(41.397 -6.79323e-07 0)
(41.3869 -6.76148e-07 0)
(41.3764 -6.73013e-07 0)
(41.3658 -6.70095e-07 0)
(41.3551 -6.67471e-07 0)
(41.3442 -6.65328e-07 0)
(41.3333 -6.63417e-07 0)
(41.3225 -6.62223e-07 0)
(41.3118 -6.61307e-07 0)
(41.3013 -6.60945e-07 0)
(41.2911 -6.61008e-07 0)
(41.2812 -6.61329e-07 0)
(41.2717 -6.61799e-07 0)
(41.2625 -6.62493e-07 0)
(41.2538 -6.62962e-07 0)
(41.2454 -6.63405e-07 0)
(41.2373 -6.63288e-07 0)
(41.2294 -6.63099e-07 0)
(41.2218 -6.62394e-07 0)
(41.2143 -6.61977e-07 0)
(41.2069 -6.61149e-07 0)
(41.1997 -6.60471e-07 0)
(41.1925 -6.59629e-07 0)
(41.1855 -6.58951e-07 0)
(41.1787 -6.58251e-07 0)
(41.172 -6.57657e-07 0)
(41.1655 -6.54617e-07 0)
(41.1592 -6.39021e-07 0)
(41.1531 -5.66791e-07 0)
(41.147 2.79934e-08 0)
(41.1408 4.41802e-06 0)
(41.1338 3.52324e-05 0)
(41.1219 0.000251053 0)
(41.0766 0.00177624 0)
(40.8958 0.0161206 0)
(38.4345 0.0831817 0)
(42.6967 0.000128508 0)
(42.689 9.89487e-05 0)
(42.6803 8.64196e-05 0)
(42.672 8.56499e-05 0)
(42.6637 8.55809e-05 0)
(42.6552 8.52044e-05 0)
(42.6466 8.49263e-05 0)
(42.6378 8.48668e-05 0)
(42.6288 8.47109e-05 0)
(42.6196 8.46906e-05 0)
(42.6102 8.46741e-05 0)
(42.6006 8.46738e-05 0)
(42.5908 8.46862e-05 0)
(42.5808 8.47072e-05 0)
(42.5706 8.4733e-05 0)
(42.5603 8.47609e-05 0)
(42.5499 8.47855e-05 0)
(42.5393 8.48267e-05 0)
(42.5286 8.48474e-05 0)
(42.5179 8.48501e-05 0)
(42.5072 8.48585e-05 0)
(42.4965 8.48357e-05 0)
(42.4858 8.47679e-05 0)
(42.4752 8.45973e-05 0)
(42.4647 8.44531e-05 0)
(42.4544 8.40362e-05 0)
(42.4442 8.34679e-05 0)
(42.4343 8.26377e-05 0)
(42.4245 8.1495e-05 0)
(42.415 7.99441e-05 0)
(42.4057 7.79479e-05 0)
(42.3967 7.54464e-05 0)
(42.388 7.24117e-05 0)
(42.3795 6.88393e-05 0)
(42.3714 6.47545e-05 0)
(42.3634 6.02127e-05 0)
(42.3558 5.52977e-05 0)
(42.3483 5.01168e-05 0)
(42.3411 4.47934e-05 0)
(42.334 3.94576e-05 0)
(42.3271 3.42369e-05 0)
(42.3204 2.92479e-05 0)
(42.3138 2.45882e-05 0)
(42.3072 2.03326e-05 0)
(42.3007 1.65301e-05 0)
(42.2942 1.32042e-05 0)
(42.2877 1.03553e-05 0)
(42.2811 7.96445e-06 0)
(42.2745 5.99751e-06 0)
(42.2679 4.4106e-06 0)
(42.2611 3.15423e-06 0)
(42.2542 2.17756e-06 0)
(42.2473 1.43152e-06 0)
(42.2402 8.71356e-07 0)
(42.233 4.57789e-07 0)
(42.2257 1.5759e-07 0)
(42.2183 -5.28207e-08 0)
(42.2108 -1.987e-07 0)
(42.2033 -2.99393e-07 0)
(42.1957 -3.67998e-07 0)
(42.1881 -4.14305e-07 0)
(42.1805 -4.45433e-07 0)
(42.173 -4.66394e-07 0)
(42.1654 -4.80724e-07 0)
(42.158 -4.90834e-07 0)
(42.1507 -4.9834e-07 0)
(42.1435 -5.04332e-07 0)
(42.1364 -5.09416e-07 0)
(42.1294 -5.14015e-07 0)
(42.1226 -5.18379e-07 0)
(42.116 -5.22635e-07 0)
(42.1096 -5.26854e-07 0)
(42.1033 -5.31084e-07 0)
(42.0971 -5.35327e-07 0)
(42.0912 -5.39589e-07 0)
(42.0853 -5.43849e-07 0)
(42.0796 -5.48106e-07 0)
(42.074 -5.52352e-07 0)
(42.0685 -5.56598e-07 0)
(42.063 -5.60833e-07 0)
(42.0575 -5.65071e-07 0)
(42.0521 -5.69277e-07 0)
(42.0467 -5.73379e-07 0)
(42.0412 -5.76943e-07 0)
(42.0356 -5.79809e-07 0)
(42.0299 -5.77539e-07 0)
(42.0242 -5.93645e-07 0)
(42.0183 -5.97287e-07 0)
(42.0124 -5.96842e-07 0)
(42.0063 -5.98133e-07 0)
(42.0001 -6.01384e-07 0)
(41.9937 -6.04642e-07 0)
(41.9871 -6.07936e-07 0)
(41.9805 -6.11117e-07 0)
(41.9738 -6.14361e-07 0)
(41.967 -6.17604e-07 0)
(41.9601 -6.20847e-07 0)
(41.9532 -6.23921e-07 0)
(41.9463 -6.27316e-07 0)
(41.9394 -6.31794e-07 0)
(41.9326 -6.34649e-07 0)
(41.9258 -6.36948e-07 0)
(41.9191 -6.3949e-07 0)
(41.9125 -6.42486e-07 0)
(41.906 -6.45585e-07 0)
(41.8996 -6.4847e-07 0)
(41.8933 -6.51077e-07 0)
(41.8872 -6.53422e-07 0)
(41.8812 -6.55483e-07 0)
(41.8754 -6.57236e-07 0)
(41.8697 -6.5865e-07 0)
(41.864 -6.597e-07 0)
(41.8585 -6.60398e-07 0)
(41.853 -6.60747e-07 0)
(41.8476 -6.60752e-07 0)
(41.8422 -6.6043e-07 0)
(41.8369 -6.59796e-07 0)
(41.8315 -6.58861e-07 0)
(41.826 -6.57635e-07 0)
(41.8205 -6.56148e-07 0)
(41.8148 -6.54433e-07 0)
(41.809 -6.52527e-07 0)
(41.8031 -6.50499e-07 0)
(41.7969 -6.48406e-07 0)
(41.7906 -6.4618e-07 0)
(41.784 -6.43827e-07 0)
(41.7772 -6.41429e-07 0)
(41.7701 -6.39196e-07 0)
(41.7628 -6.37317e-07 0)
(41.7553 -6.35864e-07 0)
(41.7475 -6.34778e-07 0)
(41.7396 -6.34003e-07 0)
(41.7315 -6.33515e-07 0)
(41.7233 -6.3341e-07 0)
(41.7149 -6.33834e-07 0)
(41.7065 -6.34877e-07 0)
(41.6981 -6.36519e-07 0)
(41.6897 -6.38649e-07 0)
(41.6813 -6.41094e-07 0)
(41.673 -6.437e-07 0)
(41.6647 -6.46347e-07 0)
(41.6565 -6.48962e-07 0)
(41.6484 -6.51495e-07 0)
(41.6403 -6.54036e-07 0)
(41.6324 -6.56608e-07 0)
(41.6245 -6.5912e-07 0)
(41.6166 -6.61296e-07 0)
(41.6088 -6.6295e-07 0)
(41.601 -6.64154e-07 0)
(41.5933 -6.65085e-07 0)
(41.5855 -6.65888e-07 0)
(41.5778 -6.66482e-07 0)
(41.57 -6.66607e-07 0)
(41.5622 -6.66045e-07 0)
(41.5544 -6.64729e-07 0)
(41.5465 -6.63204e-07 0)
(41.5384 -6.61278e-07 0)
(41.5303 -6.59406e-07 0)
(41.5219 -6.56639e-07 0)
(41.5134 -6.53904e-07 0)
(41.5046 -6.49887e-07 0)
(41.4956 -6.46194e-07 0)
(41.4863 -6.41242e-07 0)
(41.4767 -6.36873e-07 0)
(41.4668 -6.31627e-07 0)
(41.4566 -6.27045e-07 0)
(41.4462 -6.22199e-07 0)
(41.4355 -6.1819e-07 0)
(41.4247 -6.14251e-07 0)
(41.4139 -6.11631e-07 0)
(41.403 -6.09048e-07 0)
(41.3921 -6.08097e-07 0)
(41.3814 -6.0741e-07 0)
(41.3709 -6.07751e-07 0)
(41.3607 -6.08836e-07 0)
(41.3508 -6.10376e-07 0)
(41.3413 -6.12116e-07 0)
(41.3321 -6.14592e-07 0)
(41.3233 -6.1636e-07 0)
(41.3149 -6.18546e-07 0)
(41.3068 -6.19356e-07 0)
(41.2989 -6.20637e-07 0)
(41.2913 -6.20339e-07 0)
(41.2838 -6.2107e-07 0)
(41.2764 -6.20267e-07 0)
(41.2691 -6.20093e-07 0)
(41.262 -6.19261e-07 0)
(41.255 -6.18928e-07 0)
(41.2481 -6.17972e-07 0)
(41.2414 -6.17087e-07 0)
(41.2349 -6.04857e-07 0)
(41.2286 -5.23114e-07 0)
(41.2224 5.00269e-08 0)
(41.2163 3.84825e-06 0)
(41.2101 3.04767e-05 0)
(41.2032 0.000216593 0)
(41.1913 0.00151437 0)
(41.1472 0.0105259 0)
(40.9713 0.0760537 0)
(39.0641 0.359403 0)
(42.6967 9.61675e-13 0)
(42.6889 1.49638e-12 0)
(42.6803 1.34401e-12 0)
(42.6719 -3.93444e-13 0)
(42.6636 -5.14655e-13 0)
(42.6552 -3.7966e-12 0)
(42.6466 -6.31373e-12 0)
(42.6377 -6.94507e-12 0)
(42.6287 -5.27295e-12 0)
(42.6195 -3.08326e-12 0)
(42.6101 -3.19224e-12 0)
(42.6005 -5.45925e-12 0)
(42.5907 -7.67747e-12 0)
(42.5807 -1.03939e-11 0)
(42.5706 -1.20029e-11 0)
(42.5603 -1.35472e-11 0)
(42.5498 -1.46684e-11 0)
(42.5393 -1.5978e-11 0)
(42.5286 -1.61382e-11 0)
(42.5179 -1.45845e-11 0)
(42.5072 -1.49099e-11 0)
(42.4965 -1.4745e-11 0)
(42.4858 -1.60282e-11 0)
(42.4752 -1.68223e-11 0)
(42.4647 -1.96109e-11 0)
(42.4544 -2.07938e-11 0)
(42.4442 -2.04326e-11 0)
(42.4342 -1.9113e-11 0)
(42.4245 -1.85529e-11 0)
(42.415 -1.78107e-11 0)
(42.4057 -1.69544e-11 0)
(42.3967 -1.59926e-11 0)
(42.388 -1.55594e-11 0)
(42.3795 -1.4726e-11 0)
(42.3714 -1.4574e-11 0)
(42.3634 -1.39817e-11 0)
(42.3558 -1.36068e-11 0)
(42.3483 -1.33941e-11 0)
(42.3411 -1.40207e-11 0)
(42.334 -1.50388e-11 0)
(42.3272 -1.45315e-11 0)
(42.3204 -1.50682e-11 0)
(42.3138 -1.5479e-11 0)
(42.3072 -1.45592e-11 0)
(42.3007 -1.45463e-11 0)
(42.2942 -1.42657e-11 0)
(42.2877 -1.19748e-11 0)
(42.2811 -1.16238e-11 0)
(42.2745 -1.20911e-11 0)
(42.2679 -1.2397e-11 0)
(42.2611 -1.28669e-11 0)
(42.2542 -1.24713e-11 0)
(42.2473 -7.39205e-12 0)
(42.2402 -2.88357e-12 0)
(42.233 1.28063e-12 0)
(42.2257 1.18121e-12 0)
(42.2183 1.04076e-12 0)
(42.2108 1.00604e-12 0)
(42.2033 -1.43266e-13 0)
(42.1957 -8.73462e-14 0)
(42.1881 -6.85341e-13 0)
(42.1805 5.1155e-13 0)
(42.173 2.88385e-12 0)
(42.1655 4.97585e-12 0)
(42.158 5.4743e-12 0)
(42.1507 6.62907e-12 0)
(42.1435 6.72211e-12 0)
(42.1364 5.22266e-12 0)
(42.1294 6.58061e-12 0)
(42.1227 6.9401e-12 0)
(42.116 4.29347e-12 0)
(42.1096 2.5489e-12 0)
(42.1033 1.73318e-12 0)
(42.0972 3.82932e-12 0)
(42.0912 4.0528e-12 0)
(42.0853 3.07418e-12 0)
(42.0796 2.02632e-12 0)
(42.074 7.66878e-13 0)
(42.0685 -6.71267e-13 0)
(42.063 -3.80309e-12 0)
(42.0576 -9.16741e-12 0)
(42.0521 -1.42749e-11 0)
(42.0467 -1.61347e-11 0)
(42.0412 -1.75184e-11 0)
(42.0356 -1.85059e-11 0)
(42.0299 -1.96703e-11 0)
(42.0242 -1.7742e-11 0)
(42.0184 -1.56491e-11 0)
(42.0124 -1.43161e-11 0)
(42.0063 -1.41874e-11 0)
(42.0001 -1.47154e-11 0)
(41.9937 -1.51774e-11 0)
(41.9872 -1.61718e-11 0)
(41.9805 -1.83879e-11 0)
(41.9738 -1.80614e-11 0)
(41.967 -1.77386e-11 0)
(41.9601 -1.78725e-11 0)
(41.9532 -1.78418e-11 0)
(41.9463 -1.92223e-11 0)
(41.9394 -2.03307e-11 0)
(41.9326 -2.00553e-11 0)
(41.9258 -1.92285e-11 0)
(41.9191 -1.86214e-11 0)
(41.9125 -1.91119e-11 0)
(41.906 -1.94263e-11 0)
(41.8996 -1.8685e-11 0)
(41.8933 -1.75756e-11 0)
(41.8872 -1.74347e-11 0)
(41.8813 -1.63479e-11 0)
(41.8754 -1.52703e-11 0)
(41.8697 -1.19814e-11 0)
(41.864 -6.68529e-12 0)
(41.8585 -1.48623e-12 0)
(41.853 3.05496e-12 0)
(41.8476 5.94876e-12 0)
(41.8422 7.58253e-12 0)
(41.8369 8.692e-12 0)
(41.8315 8.9913e-12 0)
(41.826 7.2524e-12 0)
(41.8205 5.52749e-12 0)
(41.8148 5.01694e-12 0)
(41.8091 4.81809e-12 0)
(41.8031 5.96408e-12 0)
(41.797 8.24759e-12 0)
(41.7906 1.03326e-11 0)
(41.784 1.25162e-11 0)
(41.7772 1.38125e-11 0)
(41.7701 1.38096e-11 0)
(41.7628 1.3959e-11 0)
(41.7553 1.28396e-11 0)
(41.7475 1.19961e-11 0)
(41.7396 9.69625e-12 0)
(41.7315 9.83315e-12 0)
(41.7233 9.14188e-12 0)
(41.7149 8.57456e-12 0)
(41.7065 1.04999e-11 0)
(41.6981 1.10833e-11 0)
(41.6897 9.9243e-12 0)
(41.6813 9.15267e-12 0)
(41.673 5.25956e-12 0)
(41.6647 3.67151e-12 0)
(41.6565 2.13063e-12 0)
(41.6484 -7.16456e-13 0)
(41.6403 -3.42519e-12 0)
(41.6324 -3.9825e-12 0)
(41.6245 -4.04768e-12 0)
(41.6166 -3.01489e-12 0)
(41.6088 -1.89164e-12 0)
(41.601 -6.19873e-13 0)
(41.5933 -2.26648e-12 0)
(41.5855 -5.43208e-13 0)
(41.5778 -2.13464e-12 0)
(41.57 4.85816e-12 0)
(41.5622 -3.02581e-12 0)
(41.5544 1.79696e-11 0)
(41.5465 -1.13583e-11 0)
(41.5384 4.02763e-11 0)
(41.5303 -3.88253e-11 0)
(41.5219 7.57475e-11 0)
(41.5134 -9.15801e-11 0)
(41.5046 1.30087e-10 0)
(41.4956 -1.74192e-10 0)
(41.4863 2.03605e-10 0)
(41.4767 -2.66294e-10 0)
(41.4668 3.22484e-10 0)
(41.4566 -3.99083e-10 0)
(41.4462 5.06817e-10 0)
(41.4355 -5.79191e-10 0)
(41.4247 6.88605e-10 0)
(41.4139 -6.64264e-10 0)
(41.403 6.36431e-10 0)
(41.3921 -5.1849e-10 0)
(41.3814 1.89153e-10 0)
(41.3709 -3.19926e-10 0)
(41.3607 -1.79478e-10 0)
(41.3508 -6.30469e-10 0)
(41.3413 -9.27687e-11 0)
(41.3321 -1.30966e-09 0)
(41.3233 -1.8824e-10 0)
(41.3149 -1.70335e-09 0)
(41.3068 -4.74984e-10 0)
(41.2989 -1.96299e-09 0)
(41.2913 -3.32277e-10 0)
(41.2838 -2.18839e-09 0)
(41.2764 -4.71051e-10 0)
(41.2691 -1.96823e-09 0)
(41.262 -5.77025e-10 0)
(41.255 -2.30715e-09 0)
(41.2481 2.25782e-10 0)
(41.2414 -4.64325e-10 0)
(41.2349 2.00422e-08 0)
(41.2286 1.56353e-07 0)
(41.2224 1.24331e-06 0)
(41.2164 8.75771e-06 0)
(41.2103 6.19803e-05 0)
(41.204 0.000438924 0)
(41.1974 0.00310556 0)
(41.1887 0.0218591 0)
(41.1653 0.155756 0)
(41.013 0.711243 0)
(42.6967 -0.000128508 0)
(42.689 -9.89487e-05 0)
(42.6803 -8.64196e-05 0)
(42.672 -8.56499e-05 0)
(42.6637 -8.55809e-05 0)
(42.6552 -8.52044e-05 0)
(42.6466 -8.49263e-05 0)
(42.6378 -8.48668e-05 0)
(42.6288 -8.47109e-05 0)
(42.6196 -8.46906e-05 0)
(42.6102 -8.46741e-05 0)
(42.6006 -8.46738e-05 0)
(42.5908 -8.46862e-05 0)
(42.5808 -8.47072e-05 0)
(42.5706 -8.4733e-05 0)
(42.5603 -8.47609e-05 0)
(42.5499 -8.47855e-05 0)
(42.5393 -8.48267e-05 0)
(42.5286 -8.48474e-05 0)
(42.5179 -8.48501e-05 0)
(42.5072 -8.48585e-05 0)
(42.4965 -8.48357e-05 0)
(42.4858 -8.47679e-05 0)
(42.4752 -8.45973e-05 0)
(42.4647 -8.44531e-05 0)
(42.4544 -8.40362e-05 0)
(42.4442 -8.34678e-05 0)
(42.4343 -8.26377e-05 0)
(42.4245 -8.1495e-05 0)
(42.415 -7.99441e-05 0)
(42.4057 -7.79479e-05 0)
(42.3967 -7.54464e-05 0)
(42.388 -7.24117e-05 0)
(42.3795 -6.88393e-05 0)
(42.3714 -6.47545e-05 0)
(42.3634 -6.02127e-05 0)
(42.3558 -5.52977e-05 0)
(42.3483 -5.01168e-05 0)
(42.3411 -4.47934e-05 0)
(42.334 -3.94576e-05 0)
(42.3271 -3.42369e-05 0)
(42.3204 -2.92479e-05 0)
(42.3138 -2.45882e-05 0)
(42.3072 -2.03326e-05 0)
(42.3007 -1.65301e-05 0)
(42.2942 -1.32042e-05 0)
(42.2877 -1.03553e-05 0)
(42.2811 -7.96444e-06 0)
(42.2745 -5.99751e-06 0)
(42.2679 -4.41059e-06 0)
(42.2611 -3.15422e-06 0)
(42.2542 -2.17756e-06 0)
(42.2473 -1.43151e-06 0)
(42.2402 -8.7136e-07 0)
(42.233 -4.57792e-07 0)
(42.2257 -1.57588e-07 0)
(42.2183 5.28208e-08 0)
(42.2108 1.98701e-07 0)
(42.2033 2.99393e-07 0)
(42.1957 3.67999e-07 0)
(42.1881 4.14307e-07 0)
(42.1805 4.45432e-07 0)
(42.173 4.66395e-07 0)
(42.1654 4.80722e-07 0)
(42.158 4.9083e-07 0)
(42.1507 4.98337e-07 0)
(42.1435 5.04333e-07 0)
(42.1364 5.09412e-07 0)
(42.1294 5.14009e-07 0)
(42.1226 5.18377e-07 0)
(42.116 5.22636e-07 0)
(42.1096 5.26856e-07 0)
(42.1033 5.31082e-07 0)
(42.0971 5.35327e-07 0)
(42.0912 5.39584e-07 0)
(42.0853 5.43847e-07 0)
(42.0796 5.48107e-07 0)
(42.074 5.52351e-07 0)
(42.0685 5.56597e-07 0)
(42.063 5.60837e-07 0)
(42.0575 5.65077e-07 0)
(42.0521 5.69281e-07 0)
(42.0467 5.73383e-07 0)
(42.0412 5.76948e-07 0)
(42.0356 5.79813e-07 0)
(42.0299 5.77546e-07 0)
(42.0242 5.93649e-07 0)
(42.0183 5.9729e-07 0)
(42.0124 5.96846e-07 0)
(42.0063 5.98135e-07 0)
(42.0001 6.01384e-07 0)
(41.9937 6.04641e-07 0)
(41.9871 6.07941e-07 0)
(41.9805 6.1112e-07 0)
(41.9738 6.14365e-07 0)
(41.967 6.17604e-07 0)
(41.9601 6.20851e-07 0)
(41.9532 6.23923e-07 0)
(41.9463 6.27321e-07 0)
(41.9394 6.318e-07 0)
(41.9326 6.34654e-07 0)
(41.9258 6.36953e-07 0)
(41.9191 6.39495e-07 0)
(41.9125 6.42492e-07 0)
(41.906 6.45592e-07 0)
(41.8996 6.48474e-07 0)
(41.8933 6.51083e-07 0)
(41.8872 6.53425e-07 0)
(41.8812 6.55487e-07 0)
(41.8754 6.57235e-07 0)
(41.8697 6.58643e-07 0)
(41.864 6.59698e-07 0)
(41.8585 6.60395e-07 0)
(41.853 6.60744e-07 0)
(41.8476 6.60749e-07 0)
(41.8422 6.60427e-07 0)
(41.8369 6.5979e-07 0)
(41.8315 6.58861e-07 0)
(41.826 6.57636e-07 0)
(41.8205 6.56149e-07 0)
(41.8148 6.54433e-07 0)
(41.809 6.52527e-07 0)
(41.8031 6.50502e-07 0)
(41.7969 6.48408e-07 0)
(41.7906 6.46179e-07 0)
(41.784 6.43825e-07 0)
(41.7772 6.41423e-07 0)
(41.7701 6.39192e-07 0)
(41.7628 6.37314e-07 0)
(41.7553 6.35862e-07 0)
(41.7475 6.34779e-07 0)
(41.7396 6.34002e-07 0)
(41.7315 6.33514e-07 0)
(41.7233 6.33411e-07 0)
(41.7149 6.33832e-07 0)
(41.7065 6.34875e-07 0)
(41.6981 6.36516e-07 0)
(41.6897 6.38644e-07 0)
(41.6813 6.41093e-07 0)
(41.673 6.43698e-07 0)
(41.6647 6.46346e-07 0)
(41.6565 6.48961e-07 0)
(41.6484 6.51495e-07 0)
(41.6403 6.54038e-07 0)
(41.6324 6.56611e-07 0)
(41.6245 6.59122e-07 0)
(41.6166 6.61297e-07 0)
(41.6088 6.62947e-07 0)
(41.601 6.64157e-07 0)
(41.5933 6.65082e-07 0)
(41.5855 6.65892e-07 0)
(41.5778 6.66476e-07 0)
(41.57 6.66616e-07 0)
(41.5622 6.66023e-07 0)
(41.5544 6.64757e-07 0)
(41.5465 6.63153e-07 0)
(41.5384 6.61355e-07 0)
(41.5303 6.5929e-07 0)
(41.5219 6.56795e-07 0)
(41.5134 6.53699e-07 0)
(41.5046 6.50146e-07 0)
(41.4956 6.45891e-07 0)
(41.4863 6.41589e-07 0)
(41.4767 6.36488e-07 0)
(41.4668 6.32071e-07 0)
(41.4566 6.26539e-07 0)
(41.4462 6.22825e-07 0)
(41.4355 6.17432e-07 0)
(41.4247 6.15135e-07 0)
(41.4139 6.10702e-07 0)
(41.403 6.09921e-07 0)
(41.3921 6.07394e-07 0)
(41.3814 6.07771e-07 0)
(41.3709 6.07505e-07 0)
(41.3607 6.08857e-07 0)
(41.3508 6.09928e-07 0)
(41.3413 6.12507e-07 0)
(41.3321 6.13498e-07 0)
(41.3233 6.16999e-07 0)
(41.3149 6.17262e-07 0)
(41.3068 6.1985e-07 0)
(41.2989 6.19166e-07 0)
(41.2913 6.21098e-07 0)
(41.2838 6.19276e-07 0)
(41.2764 6.20891e-07 0)
(41.2691 6.18699e-07 0)
(41.262 6.19777e-07 0)
(41.255 6.17134e-07 0)
(41.2481 6.19514e-07 0)
(41.2414 6.17399e-07 0)
(41.2349 6.31728e-07 0)
(41.2286 7.19399e-07 0)
(41.2224 1.43594e-06 0)
(41.2164 6.55413e-06 0)
(41.2104 4.31783e-05 0)
(41.2053 0.000305174 0)
(41.2064 0.0021852 0)
(41.2542 0.0157948 0)
(41.4474 0.13146 0)
(44.4818 0.552911 0)
(42.6949 -0.000101329 0)
(42.6854 -9.26906e-05 0)
(42.6749 -9.02141e-05 0)
(42.6648 -9.10809e-05 0)
(42.6547 -9.18125e-05 0)
(42.6445 -9.2252e-05 0)
(42.6341 -9.25877e-05 0)
(42.6234 -9.29317e-05 0)
(42.6126 -9.31227e-05 0)
(42.6017 -9.3341e-05 0)
(42.5904 -9.35154e-05 0)
(42.579 -9.36634e-05 0)
(42.5674 -9.37903e-05 0)
(42.5557 -9.38996e-05 0)
(42.5437 -9.39933e-05 0)
(42.5316 -9.40733e-05 0)
(42.5193 -9.41382e-05 0)
(42.507 -9.42032e-05 0)
(42.4945 -9.42466e-05 0)
(42.482 -9.42671e-05 0)
(42.4695 -9.42787e-05 0)
(42.4569 -9.42551e-05 0)
(42.4445 -9.41796e-05 0)
(42.432 -9.40029e-05 0)
(42.4198 -9.37938e-05 0)
(42.4076 -9.33378e-05 0)
(42.3957 -9.26915e-05 0)
(42.3839 -9.1753e-05 0)
(42.3724 -9.0462e-05 0)
(42.3612 -8.87208e-05 0)
(42.3502 -8.64809e-05 0)
(42.3396 -8.36809e-05 0)
(42.3293 -8.02896e-05 0)
(42.3194 -7.63033e-05 0)
(42.3097 -7.17509e-05 0)
(42.3005 -6.66948e-05 0)
(42.2916 -6.12286e-05 0)
(42.283 -5.54717e-05 0)
(42.2748 -4.95608e-05 0)
(42.2669 -4.36401e-05 0)
(42.2592 -3.78507e-05 0)
(42.2518 -3.23212e-05 0)
(42.2446 -2.71594e-05 0)
(42.2375 -2.24472e-05 0)
(42.2306 -1.82385e-05 0)
(42.2238 -1.45587e-05 0)
(42.2171 -1.14076e-05 0)
(42.2103 -8.76372e-06 0)
(42.2036 -6.58908e-06 0)
(42.1968 -4.8349e-06 0)
(42.19 -3.4467e-06 0)
(42.1831 -2.36882e-06 0)
(42.176 -1.54783e-06 0)
(42.1689 -9.34886e-07 0)
(42.1617 -4.85404e-07 0)
(42.1544 -1.5795e-07 0)
(42.147 7.79282e-08 0)
(42.1396 2.44413e-07 0)
(42.132 3.59214e-07 0)
(42.1245 4.37089e-07 0)
(42.1169 4.89331e-07 0)
(42.1093 5.24147e-07 0)
(42.1018 5.47322e-07 0)
(42.0943 5.62868e-07 0)
(42.0868 5.7352e-07 0)
(42.0795 5.81097e-07 0)
(42.0723 5.86815e-07 0)
(42.0652 5.91416e-07 0)
(42.0583 5.95355e-07 0)
(42.0515 5.98915e-07 0)
(42.0449 6.02279e-07 0)
(42.0385 6.05544e-07 0)
(42.0322 6.08775e-07 0)
(42.0261 6.11984e-07 0)
(42.0201 6.15179e-07 0)
(42.0143 6.18348e-07 0)
(42.0086 6.21489e-07 0)
(42.003 6.24624e-07 0)
(41.9975 6.27753e-07 0)
(41.992 6.30906e-07 0)
(41.9866 6.34081e-07 0)
(41.9812 6.37257e-07 0)
(41.9758 6.40387e-07 0)
(41.9703 6.43166e-07 0)
(41.9647 6.45554e-07 0)
(41.9591 6.4452e-07 0)
(41.9533 6.54598e-07 0)
(41.9475 6.57592e-07 0)
(41.9416 6.58157e-07 0)
(41.9355 6.59338e-07 0)
(41.9292 6.61622e-07 0)
(41.9229 6.63922e-07 0)
(41.9164 6.66273e-07 0)
(41.9098 6.68566e-07 0)
(41.903 6.70862e-07 0)
(41.8962 6.73124e-07 0)
(41.8894 6.75346e-07 0)
(41.8825 6.77401e-07 0)
(41.8756 6.79577e-07 0)
(41.8687 6.82479e-07 0)
(41.8619 6.84437e-07 0)
(41.8551 6.85934e-07 0)
(41.8484 6.87441e-07 0)
(41.8418 6.89226e-07 0)
(41.8354 6.91149e-07 0)
(41.829 6.92993e-07 0)
(41.8228 6.94692e-07 0)
(41.8167 6.96251e-07 0)
(41.8107 6.97656e-07 0)
(41.8049 6.98891e-07 0)
(41.7991 6.99936e-07 0)
(41.7935 7.00783e-07 0)
(41.788 7.01433e-07 0)
(41.7825 7.01889e-07 0)
(41.7772 7.02157e-07 0)
(41.7718 7.0226e-07 0)
(41.7664 7.02199e-07 0)
(41.761 7.01983e-07 0)
(41.7556 7.01618e-07 0)
(41.7501 7.01116e-07 0)
(41.7445 7.00503e-07 0)
(41.7387 6.99788e-07 0)
(41.7328 6.99016e-07 0)
(41.7266 6.98211e-07 0)
(41.7203 6.97315e-07 0)
(41.7137 6.96292e-07 0)
(41.7069 6.95173e-07 0)
(41.6998 6.94103e-07 0)
(41.6925 6.93232e-07 0)
(41.685 6.926e-07 0)
(41.6773 6.92166e-07 0)
(41.6694 6.91843e-07 0)
(41.6613 6.91592e-07 0)
(41.6531 6.91456e-07 0)
(41.6448 6.91565e-07 0)
(41.6364 6.92026e-07 0)
(41.628 6.92858e-07 0)
(41.6196 6.93974e-07 0)
(41.6112 6.95232e-07 0)
(41.6029 6.96507e-07 0)
(41.5946 6.97703e-07 0)
(41.5864 6.98799e-07 0)
(41.5783 6.99787e-07 0)
(41.5703 7.00769e-07 0)
(41.5623 7.01812e-07 0)
(41.5544 7.02872e-07 0)
(41.5466 7.03749e-07 0)
(41.5388 7.04261e-07 0)
(41.531 7.04444e-07 0)
(41.5233 7.04441e-07 0)
(41.5156 7.04417e-07 0)
(41.5079 7.04329e-07 0)
(41.5001 7.04017e-07 0)
(41.4923 7.0321e-07 0)
(41.4845 7.01916e-07 0)
(41.4766 7.00406e-07 0)
(41.4686 6.98887e-07 0)
(41.4604 6.97366e-07 0)
(41.4521 6.9567e-07 0)
(41.4436 6.93673e-07 0)
(41.4348 6.91336e-07 0)
(41.4258 6.88633e-07 0)
(41.4165 6.85743e-07 0)
(41.4069 6.82541e-07 0)
(41.397 6.79433e-07 0)
(41.3869 6.76029e-07 0)
(41.3764 6.73135e-07 0)
(41.3658 6.69918e-07 0)
(41.3551 6.67664e-07 0)
(41.3442 6.65064e-07 0)
(41.3333 6.63655e-07 0)
(41.3225 6.62049e-07 0)
(41.3118 6.61498e-07 0)
(41.3013 6.61036e-07 0)
(41.2911 6.6122e-07 0)
(41.2812 6.61533e-07 0)
(41.2717 6.62296e-07 0)
(41.2625 6.62723e-07 0)
(41.2538 6.63798e-07 0)
(41.2454 6.63828e-07 0)
(41.2373 6.64266e-07 0)
(41.2294 6.63593e-07 0)
(41.2218 6.63493e-07 0)
(41.2143 6.62369e-07 0)
(41.2069 6.62232e-07 0)
(41.1997 6.61043e-07 0)
(41.1925 6.60711e-07 0)
(41.1855 6.59457e-07 0)
(41.1787 6.59562e-07 0)
(41.172 6.58423e-07 0)
(41.1655 6.61446e-07 0)
(41.1592 6.79003e-07 0)
(41.1531 8.09813e-07 0)
(41.147 1.61928e-06 0)
(41.1411 7.27538e-06 0)
(41.136 4.77496e-05 0)
(41.1373 0.00034429 0)
(41.1883 0.00271502 0)
(41.3984 0.0384172 0)
(46.5006 0.156623 0)
(37.057 1.26078 -3.17108e-15)
(36.0036 3.61743 6.36047e-15)
(35.589 6.29781 -1.19247e-14)
(35.1769 9.00785 2.46405e-14)
(34.5161 11.6848 -2.54249e-14)
(33.5976 14.2996 -1.58858e-15)
(32.4179 16.8156 4.98728e-20)
(31.0973 19.2819 -2.22194e-14)
(30.0094 21.9817 -1.02768e-13)
(29.2633 25.1535 1.0061e-13)
(28.3527 28.5124 -2.50361e-14)
(26.657 31.2454 -5.16158e-14)
(24.1161 32.9711 2.65907e-14)
(21.1325 33.9221 0)
(17.9712 34.3387 2.51661e-14)
(14.8047 34.4792 2.52761e-14)
(11.8567 35.2155 -2.53176e-14)
(9.34486 37.7334 2.50549e-14)
(6.92867 42.4617 1.92325e-16)
(4.20502 49.7795 -1.86919e-16)
(38.2097 1.98668 0)
(37.5812 4.84789 0)
(37.1675 8.00003 -1.61489e-15)
(36.6422 11.1366 -3.22678e-15)
(35.8382 14.227 8.05877e-15)
(34.7234 17.2793 1.61057e-14)
(33.2848 20.2254 0)
(31.7621 22.8827 9.64195e-15)
(30.6016 25.4655 1.59867e-14)
(29.7519 28.5507 -3.80867e-14)
(28.4201 32.3262 2.52627e-14)
(25.8947 35.9768 1.26374e-14)
(22.4845 38.4194 -1.26239e-14)
(18.6189 39.8312 1.26263e-14)
(14.6252 40.3576 0)
(10.9552 40.0142 -1.58981e-15)
(8.46074 39.3958 1.60059e-15)
(7.42212 40.0346 -5.54878e-15)
(6.06617 43.0646 -7.80055e-16)
(4.89045 47.9587 0)
(40.964 1.56444 -4.12058e-17)
(40.9638 2.58118 -2.09409e-14)
(41.0645 3.61605 2.12682e-14)
(41.249 4.6488 -2.04421e-14)
(41.4703 5.74943 -2.24222e-14)
(41.6933 6.99476 8.3457e-14)
(41.8857 8.44548 -4.22439e-14)
(41.9823 10.1471 4.0938e-14)
(41.8858 12.0577 -8.32519e-14)
(41.6125 14.0225 1.3298e-15)
(41.3288 15.9303 4.10697e-14)
(41.1453 17.8785 0)
(40.8785 20.1008 -4.11338e-14)
(40.3018 22.6325 4.11393e-14)
(39.286 25.4065 -3.31501e-16)
(37.7137 28.3413 0)
(35.4166 31.2845 3.31532e-16)
(32.3435 33.9446 0)
(29.1352 36.0203 0)
(26.6555 37.479 0)
(44.9972 2.54723 6.31437e-16)
(44.7271 5.86052 -6.33493e-15)
(43.7445 9.80072 -1.26954e-15)
(42.5876 13.8394 2.53598e-15)
(41.5329 17.8227 -2.5253e-15)
(40.5104 21.7419 -4.53966e-19)
(39.3598 25.5916 -9.98689e-15)
(37.9373 29.3291 0)
(36.2073 32.94 0)
(34.1709 36.4207 -4.91462e-15)
(31.7991 39.7249 4.89037e-15)
(29.1083 42.8436 0)
(26.0927 45.7173 -4.84617e-15)
(22.7796 48.3047 4.83102e-15)
(19.2083 50.576 -4.81581e-15)
(15.4231 52.5068 9.60258e-15)
(11.4737 54.0759 -4.79116e-15)
(7.42045 55.2712 0)
(3.34446 56.1162 -2.38416e-15)
(-0.405755 56.5978 0)
(47.9142 1.76414 -9.63685e-16)
(48.8514 4.52171 7.38731e-15)
(48.5649 7.83268 5.13913e-15)
(47.7759 11.3024 1.02694e-14)
(46.9716 14.898 0)
(46.1682 18.617 0)
(45.2299 22.4159 1.01691e-14)
(44.0368 26.2135 2.53102e-15)
(42.5252 29.9951 -5.03912e-15)
(40.7037 33.6919 2.50918e-15)
(38.5332 37.2663 1.99884e-14)
(36.0322 40.6574 -1.24467e-14)
(33.1928 43.8077 1.24107e-14)
(30.0274 46.6729 -2.47509e-15)
(26.5627 49.2187 -9.88118e-15)
(22.833 51.4137 -1.72715e-14)
(18.8806 53.2188 -8.62878e-15)
(14.7612 54.5649 -1.23279e-15)
(10.5591 55.3011 7.09314e-15)
(6.54084 55.0772 3.09205e-16)
(1.31912 59.4663 0)
(1.22085 56.3341 0)
(1.06187 54.4721 0)
(0.953356 55.7577 0)
(0.9937 57.0941 0)
(1.03481 57.294 0)
(1.04115 57.038 0)
(1.03781 56.9232 0)
(1.02834 56.9969 0)
(1.02972 57.0847 0)
(1.03332 57.0989 0)
(1.03385 57.082 0)
(1.03244 57.0788 0)
(1.0313 57.0908 0)
(1.03118 57.1034 0)
(1.03161 57.1103 0)
(1.03218 57.1102 0)
(1.03236 57.1015 0)
(1.03222 57.0871 0)
(1.03177 57.0696 0)
(1.03105 57.0491 0)
(1.03014 57.0256 0)
(1.02911 56.9996 0)
(1.02803 56.9719 0)
(1.02692 56.944 0)
(1.02564 56.9192 0)
(1.02349 56.9061 0)
(1.01981 56.9201 0)
(1.01809 56.9548 0)
(1.01788 56.9759 0)
(1.016 56.9719 0)
(1.01186 56.9512 0)
(1.00505 56.917 0)
(0.994979 56.8721 0)
(0.980372 56.8286 0)
(0.957803 56.8229 0)
(0.92746 56.9086 0)
(0.901797 57.0468 0)
(0.878773 57.1155 0)
(0.850113 57.0725 0)
(0.814158 56.9515 0)
(0.771999 56.7693 0)
(0.725036 56.5262 0)
(0.674562 56.2229 0)
(0.621816 55.8577 0)
(0.567914 55.4261 0)
(0.513802 54.9204 0)
(0.460211 54.3305 0)
(0.407632 53.6445 0)
(0.356966 52.8517 0)
(0.308154 51.948 0)
(0.262266 50.9393 0)
(0.220025 49.8427 0)
(0.181871 48.6904 0)
(0.148161 47.5256 0)
(0.119498 46.3949 0)
(0.0953563 45.3421 0)
(0.0754879 44.4021 0)
(0.0593805 43.5951 0)
(0.0464579 42.9268 0)
(0.0361081 42.3905 0)
(0.0278425 41.9717 0)
(0.0212706 41.652 0)
(0.016073 41.4124 0)
(0.0119984 41.2353 0)
(0.00884081 41.1057 0)
(0.00642702 41.0116 0)
(0.00460795 40.9433 0)
(0.00325817 40.8936 0)
(0.00227263 40.8572 0)
(0.00156364 40.8299 0)
(0.00106148 40.8091 0)
(0.000711133 40.7928 0)
(0.000470284 40.7795 0)
(0.000307086 40.7682 0)
(0.000198052 40.7585 0)
(0.000126203 40.7497 0)
(7.94924e-05 40.7416 0)
(4.95229e-05 40.7341 0)
(3.05413e-05 40.7271 0)
(1.86699e-05 40.7205 0)
(1.13367e-05 40.7142 0)
(6.86164e-06 40.7083 0)
(4.16439e-06 40.7029 0)
(2.556e-06 40.6978 0)
(1.60686e-06 40.6931 0)
(1.05366e-06 40.6888 0)
(7.3958e-07 40.6849 0)
(5.5536e-07 40.6815 0)
(4.51317e-07 40.6786 0)
(3.936e-07 40.6761 0)
(3.61418e-07 40.674 0)
(3.43426e-07 40.6724 0)
(3.33653e-07 40.6712 0)
(3.27759e-07 40.6704 0)