/*--------------------------------*- C++ -*----------------------------------*\
| =========                 |                                                 |
| \\      /  F ield         | OpenFOAM: The Open Source CFD Toolbox           |
|  \\    /   O peration     | Version:  3.0.x                                 |
|   \\  /    A nd           | Web:      www.OpenFOAM.org                      |
|    \\/     M anipulation  |                                                 |
\*---------------------------------------------------------------------------*/
FoamFile
{
    version     2.0;
    format      ascii;
    class       volVectorField;
    location    "0.08";
    object      U;
}
// * * * * * * * * * * * * * * * * * * * * * * * * * * * * * * * * * * * * * //

dimensions      [0 1 -1 0 0 0 0];

internalField   nonuniform List<vector> 
13800
(
(42.6914 0.0001419 0)
(42.6748 0.000123644 0)
(42.656 0.000122338 0)
(42.6396 0.000124386 0)
(42.6252 0.000125803 0)
(42.6121 0.000126337 0)
(42.6002 0.0001256 0)
(42.5898 0.000123066 0)
(42.581 0.000118259 0)
(42.5738 0.000110878 0)
(42.5683 0.000100965 0)
(42.5644 8.89459e-05 0)
(42.562 7.55808e-05 0)
(42.561 6.18481e-05 0)
(42.5611 4.86545e-05 0)
(42.5623 3.67774e-05 0)
(42.5642 2.67278e-05 0)
(42.5666 1.86743e-05 0)
(42.5693 1.25546e-05 0)
(42.5721 8.13044e-06 0)
(42.5749 5.07999e-06 0)
(42.5774 3.06858e-06 0)
(42.5796 1.79827e-06 0)
(42.5814 1.0277e-06 0)
(42.5828 5.78916e-07 0)
(42.5837 3.27122e-07 0)
(42.5843 1.91459e-07 0)
(42.5844 1.21761e-07 0)
(42.5842 8.76206e-08 0)
(42.5836 7.30908e-08 0)
(42.5828 6.83856e-08 0)
(42.5818 6.83759e-08 0)
(42.5806 7.03488e-08 0)
(42.5793 7.26114e-08 0)
(42.578 7.49816e-08 0)
(42.5767 7.70753e-08 0)
(42.5754 7.87596e-08 0)
(42.5741 7.97935e-08 0)
(42.573 8.1244e-08 0)
(42.5719 8.26666e-08 0)
(42.5708 8.31858e-08 0)
(42.5699 8.36413e-08 0)
(42.5692 8.40859e-08 0)
(42.5685 8.44119e-08 0)
(42.5679 8.46623e-08 0)
(42.5674 8.48966e-08 0)
(42.5671 8.50201e-08 0)
(42.5668 8.5108e-08 0)
(42.5666 8.5266e-08 0)
(42.5664 8.53565e-08 0)
(42.5664 8.54324e-08 0)
(42.5664 8.55119e-08 0)
(42.5664 8.55864e-08 0)
(42.5665 8.57082e-08 0)
(42.5667 8.58105e-08 0)
(42.5668 8.58896e-08 0)
(42.567 8.60079e-08 0)
(42.5673 8.61287e-08 0)
(42.5675 8.62787e-08 0)
(42.5678 8.64311e-08 0)
(42.5681 8.65643e-08 0)
(42.5684 8.67259e-08 0)
(42.5687 8.68944e-08 0)
(42.569 8.70744e-08 0)
(42.5694 8.72497e-08 0)
(42.5697 8.74186e-08 0)
(42.57 8.76179e-08 0)
(42.5703 8.78133e-08 0)
(42.5706 8.80033e-08 0)
(42.5709 8.81999e-08 0)
(42.5712 8.83869e-08 0)
(42.5715 8.85865e-08 0)
(42.5717 8.87856e-08 0)
(42.572 8.89707e-08 0)
(42.5722 8.91639e-08 0)
(42.5724 8.9357e-08 0)
(42.5727 8.95448e-08 0)
(42.5729 8.97326e-08 0)
(42.5731 8.98752e-08 0)
(42.5732 9.00591e-08 0)
(42.5734 9.02286e-08 0)
(42.5736 9.03985e-08 0)
(42.5737 9.05642e-08 0)
(42.5738 9.07223e-08 0)
(42.574 9.0868e-08 0)
(42.5741 9.102e-08 0)
(42.5742 9.11683e-08 0)
(42.5743 9.1302e-08 0)
(42.5744 9.143e-08 0)
(42.5745 9.1557e-08 0)
(42.5746 9.16783e-08 0)
(42.5747 9.17995e-08 0)
(42.5747 9.19177e-08 0)
(42.5748 9.2028e-08 0)
(42.5749 9.21342e-08 0)
(42.575 9.22385e-08 0)
(42.575 9.23459e-08 0)
(42.5751 9.24476e-08 0)
(42.5751 9.25431e-08 0)
(42.5752 9.2638e-08 0)
(42.5753 9.27287e-08 0)
(42.5753 9.28177e-08 0)
(42.5754 9.29068e-08 0)
(42.5754 9.29936e-08 0)
(42.5755 9.30802e-08 0)
(42.5755 9.31596e-08 0)
(42.5756 9.32487e-08 0)
(42.5756 9.33151e-08 0)
(42.5757 9.34048e-08 0)
(42.5757 9.35115e-08 0)
(42.5758 9.35767e-08 0)
(42.5758 9.3651e-08 0)
(42.5759 9.37273e-08 0)
(42.5759 9.38012e-08 0)
(42.5759 9.38848e-08 0)
(42.5759 9.39795e-08 0)
(42.5759 9.40665e-08 0)
(42.5759 9.41537e-08 0)
(42.5759 9.42389e-08 0)
(42.5759 9.43567e-08 0)
(42.5758 9.4489e-08 0)
(42.5757 9.46164e-08 0)
(42.5756 9.47703e-08 0)
(42.5754 9.49356e-08 0)
(42.5752 9.51331e-08 0)
(42.5749 9.53612e-08 0)
(42.5745 9.56247e-08 0)
(42.574 9.59189e-08 0)
(42.5734 9.6268e-08 0)
(42.5726 9.66688e-08 0)
(42.5716 9.71305e-08 0)
(42.5704 9.76578e-08 0)
(42.569 9.82684e-08 0)
(42.5672 9.89587e-08 0)
(42.5652 9.9739e-08 0)
(42.5627 1.00617e-07 0)
(42.5598 1.01594e-07 0)
(42.5564 1.02657e-07 0)
(42.5525 1.03819e-07 0)
(42.5479 1.05075e-07 0)
(42.5427 1.06411e-07 0)
(42.5368 1.07818e-07 0)
(42.5302 1.09263e-07 0)
(42.5228 1.10704e-07 0)
(42.5145 1.12112e-07 0)
(42.5054 1.13444e-07 0)
(42.4956 1.14645e-07 0)
(42.4849 1.15653e-07 0)
(42.4735 1.16402e-07 0)
(42.4614 1.16812e-07 0)
(42.4487 1.16825e-07 0)
(42.4355 1.16358e-07 0)
(42.422 1.15365e-07 0)
(42.4083 1.1378e-07 0)
(42.3946 1.11559e-07 0)
(42.3811 1.08674e-07 0)
(42.3681 1.05125e-07 0)
(42.3557 1.0092e-07 0)
(42.3441 9.61105e-08 0)
(42.3336 9.0779e-08 0)
(42.3244 8.50215e-08 0)
(42.3167 7.88052e-08 0)
(42.3106 7.20836e-08 0)
(42.3063 6.4789e-08 0)
(42.3038 5.68629e-08 0)
(42.3032 4.99137e-08 0)
(42.3044 4.10051e-08 0)
(42.3075 2.96749e-08 0)
(42.3123 1.87184e-08 0)
(42.3189 1.03816e-08 0)
(42.327 2.58636e-09 0)
(42.3364 -1.05598e-09 0)
(42.3468 -3.78395e-09 0)
(42.3582 -5.6983e-09 0)
(42.3702 -6.08631e-09 0)
(42.3825 -6.0008e-09 0)
(42.3949 -4.63379e-09 0)
(42.4072 -2.24626e-09 0)
(42.4192 3.09345e-10 0)
(42.4307 4.10538e-09 0)
(42.4414 7.78822e-09 0)
(42.4514 1.22824e-08 0)
(42.4604 1.71987e-08 0)
(42.4685 2.18628e-08 0)
(42.4756 2.7075e-08 0)
(42.4818 3.23123e-08 0)
(42.487 3.70232e-08 0)
(42.4912 4.21933e-08 0)
(42.4947 4.91785e-08 0)
(42.4974 6.82161e-08 0)
(42.4994 1.44629e-07 0)
(42.5009 4.9589e-07 0)
(42.5018 2.15029e-06 0)
(42.502 1.00122e-05 0)
(42.5008 4.83727e-05 0)
(42.4942 0.000231098 0)
(42.4633 0.00109823 0)
(42.3193 0.00517878 0)
(41.8579 0.0267005 0)
(37.4686 0.105348 0)
(42.6953 0.000222615 0)
(42.6826 0.000162369 0)
(42.6677 0.000149853 0)
(42.6552 0.000147785 0)
(42.6448 0.000145526 0)
(42.6355 0.000143006 0)
(42.6274 0.000139756 0)
(42.6208 0.000135059 0)
(42.6156 0.000128331 0)
(42.6119 0.000119213 0)
(42.6095 0.000107721 0)
(42.6084 9.42804e-05 0)
(42.6084 7.9661e-05 0)
(42.6094 6.48805e-05 0)
(42.6111 5.08168e-05 0)
(42.6135 3.82516e-05 0)
(42.6163 2.76996e-05 0)
(42.6194 1.92837e-05 0)
(42.6226 1.29165e-05 0)
(42.6256 8.33083e-06 0)
(42.6286 5.18043e-06 0)
(42.6312 3.1099e-06 0)
(42.6334 1.80709e-06 0)
(42.6353 1.01991e-06 0)
(42.6367 5.64922e-07 0)
(42.6377 3.13367e-07 0)
(42.6382 1.82123e-07 0)
(42.6383 1.19203e-07 0)
(42.6381 9.3385e-08 0)
(42.6375 8.59787e-08 0)
(42.6367 8.57079e-08 0)
(42.6357 8.81432e-08 0)
(42.6345 9.16499e-08 0)
(42.6333 9.48488e-08 0)
(42.6319 9.79722e-08 0)
(42.6306 1.00578e-07 0)
(42.6293 1.02475e-07 0)
(42.6281 1.03271e-07 0)
(42.6269 1.04943e-07 0)
(42.6258 1.06576e-07 0)
(42.6248 1.06597e-07 0)
(42.6239 1.06605e-07 0)
(42.6231 1.0665e-07 0)
(42.6224 1.06512e-07 0)
(42.6218 1.063e-07 0)
(42.6213 1.0606e-07 0)
(42.621 1.0567e-07 0)
(42.6207 1.05269e-07 0)
(42.6205 1.04993e-07 0)
(42.6203 1.04634e-07 0)
(42.6203 1.04256e-07 0)
(42.6203 1.03903e-07 0)
(42.6203 1.03576e-07 0)
(42.6204 1.0333e-07 0)
(42.6206 1.03069e-07 0)
(42.6207 1.02792e-07 0)
(42.621 1.02595e-07 0)
(42.6212 1.0241e-07 0)
(42.6214 1.02272e-07 0)
(42.6217 1.02152e-07 0)
(42.622 1.02026e-07 0)
(42.6223 1.01952e-07 0)
(42.6226 1.01906e-07 0)
(42.623 1.01875e-07 0)
(42.6233 1.01845e-07 0)
(42.6236 1.01821e-07 0)
(42.6239 1.01852e-07 0)
(42.6242 1.01872e-07 0)
(42.6245 1.01912e-07 0)
(42.6248 1.01961e-07 0)
(42.6251 1.01989e-07 0)
(42.6254 1.02062e-07 0)
(42.6256 1.02131e-07 0)
(42.6259 1.02181e-07 0)
(42.6261 1.02257e-07 0)
(42.6263 1.02325e-07 0)
(42.6266 1.02392e-07 0)
(42.6268 1.02475e-07 0)
(42.627 1.02532e-07 0)
(42.6271 1.02601e-07 0)
(42.6273 1.02652e-07 0)
(42.6275 1.02713e-07 0)
(42.6276 1.02767e-07 0)
(42.6277 1.02802e-07 0)
(42.6279 1.02848e-07 0)
(42.628 1.02885e-07 0)
(42.6281 1.02912e-07 0)
(42.6282 1.02943e-07 0)
(42.6283 1.02955e-07 0)
(42.6284 1.02969e-07 0)
(42.6285 1.02989e-07 0)
(42.6285 1.02998e-07 0)
(42.6286 1.02995e-07 0)
(42.6287 1.02993e-07 0)
(42.6288 1.02982e-07 0)
(42.6288 1.02989e-07 0)
(42.6289 1.0298e-07 0)
(42.629 1.02967e-07 0)
(42.629 1.02958e-07 0)
(42.6291 1.02951e-07 0)
(42.6292 1.02932e-07 0)
(42.6292 1.02926e-07 0)
(42.6293 1.0291e-07 0)
(42.6293 1.02887e-07 0)
(42.6294 1.02879e-07 0)
(42.6294 1.02875e-07 0)
(42.6295 1.02868e-07 0)
(42.6295 1.02841e-07 0)
(42.6296 1.02854e-07 0)
(42.6296 1.0283e-07 0)
(42.6297 1.02817e-07 0)
(42.6297 1.02817e-07 0)
(42.6297 1.0281e-07 0)
(42.6298 1.02818e-07 0)
(42.6298 1.02833e-07 0)
(42.6298 1.02848e-07 0)
(42.6298 1.0288e-07 0)
(42.6298 1.02917e-07 0)
(42.6298 1.02951e-07 0)
(42.6298 1.03049e-07 0)
(42.6297 1.03183e-07 0)
(42.6296 1.03314e-07 0)
(42.6295 1.03503e-07 0)
(42.6293 1.03722e-07 0)
(42.6291 1.04005e-07 0)
(42.6288 1.04351e-07 0)
(42.6284 1.04783e-07 0)
(42.6279 1.05299e-07 0)
(42.6272 1.05936e-07 0)
(42.6264 1.06684e-07 0)
(42.6255 1.07596e-07 0)
(42.6243 1.08647e-07 0)
(42.6228 1.09875e-07 0)
(42.6211 1.113e-07 0)
(42.619 1.12928e-07 0)
(42.6166 1.14784e-07 0)
(42.6137 1.16871e-07 0)
(42.6103 1.19202e-07 0)
(42.6063 1.21771e-07 0)
(42.6018 1.24566e-07 0)
(42.5966 1.27565e-07 0)
(42.5907 1.30739e-07 0)
(42.5841 1.34049e-07 0)
(42.5766 1.37439e-07 0)
(42.5684 1.40828e-07 0)
(42.5593 1.44128e-07 0)
(42.5494 1.47242e-07 0)
(42.5388 1.50057e-07 0)
(42.5273 1.52437e-07 0)
(42.5152 1.54255e-07 0)
(42.5025 1.55369e-07 0)
(42.4894 1.55654e-07 0)
(42.4758 1.54966e-07 0)
(42.4621 1.5321e-07 0)
(42.4485 1.50273e-07 0)
(42.435 1.46092e-07 0)
(42.4219 1.40645e-07 0)
(42.4095 1.33928e-07 0)
(42.398 1.26001e-07 0)
(42.3875 1.16972e-07 0)
(42.3783 1.06949e-07 0)
(42.3706 9.59957e-08 0)
(42.3645 8.41438e-08 0)
(42.3601 7.1436e-08 0)
(42.3577 5.79919e-08 0)
(42.3571 4.70187e-08 0)
(42.3583 3.24382e-08 0)
(42.3613 1.50138e-08 0)
(42.3662 3.79897e-10 0)
(42.3727 -8.3002e-09 0)
(42.3808 -1.73634e-08 0)
(42.3902 -2.24424e-08 0)
(42.4007 -2.6906e-08 0)
(42.412 -2.9996e-08 0)
(42.424 -3.03241e-08 0)
(42.4363 -2.99891e-08 0)
(42.4487 -2.73639e-08 0)
(42.4611 -2.27434e-08 0)
(42.473 -1.76733e-08 0)
(42.4845 -9.75633e-09 0)
(42.4952 -1.26013e-09 0)
(42.5052 6.7135e-09 0)
(42.5142 1.46027e-08 0)
(42.5223 2.22749e-08 0)
(42.5294 3.03776e-08 0)
(42.5356 3.8498e-08 0)
(42.5407 4.62111e-08 0)
(42.545 5.57585e-08 0)
(42.5485 7.20732e-08 0)
(42.5512 1.24567e-07 0)
(42.5532 3.68569e-07 0)
(42.5547 1.54592e-06 0)
(42.5556 7.17478e-06 0)
(42.5558 3.39351e-05 0)
(42.5546 0.000164668 0)
(42.5481 0.000787347 0)
(42.5173 0.00374291 0)
(42.3741 0.017618 0)
(41.9151 0.0890752 0)
(37.762 0.332518 0)
(42.6953 0.000163902 0)
(42.6826 0.000113426 0)
(42.6677 0.000107162 0)
(42.6552 0.000110411 0)
(42.6447 0.000111131 0)
(42.6355 0.000110751 0)
(42.6274 0.000109449 0)
(42.6208 0.000106738 0)
(42.6156 0.000102192 0)
(42.6119 9.55486e-05 0)
(42.6095 8.68291e-05 0)
(42.6084 7.63821e-05 0)
(42.6084 6.48373e-05 0)
(42.6094 5.3037e-05 0)
(42.6112 4.17084e-05 0)
(42.6135 3.15155e-05 0)
(42.6163 2.29074e-05 0)
(42.6194 1.60047e-05 0)
(42.6226 1.0757e-05 0)
(42.6257 6.96082e-06 0)
(42.6286 4.34231e-06 0)
(42.6312 2.61521e-06 0)
(42.6335 1.5255e-06 0)
(42.6353 8.66231e-07 0)
(42.6367 4.85559e-07 0)
(42.6377 2.76143e-07 0)
(42.6382 1.67277e-07 0)
(42.6383 1.12837e-07 0)
(42.6381 8.6942e-08 0)
(42.6375 7.63918e-08 0)
(42.6367 7.33068e-08 0)
(42.6357 7.36628e-08 0)
(42.6345 7.54703e-08 0)
(42.6333 7.73034e-08 0)
(42.6319 7.91113e-08 0)
(42.6306 8.05379e-08 0)
(42.6293 8.14403e-08 0)
(42.6281 8.14514e-08 0)
(42.6269 8.23145e-08 0)
(42.6258 8.31417e-08 0)
(42.6248 8.2633e-08 0)
(42.6239 8.22321e-08 0)
(42.6231 8.1894e-08 0)
(42.6224 8.14662e-08 0)
(42.6218 8.10216e-08 0)
(42.6214 8.05983e-08 0)
(42.621 8.01002e-08 0)
(42.6207 7.96301e-08 0)
(42.6205 7.9284e-08 0)
(42.6204 7.89259e-08 0)
(42.6203 7.8553e-08 0)
(42.6203 7.82349e-08 0)
(42.6203 7.79642e-08 0)
(42.6204 7.77635e-08 0)
(42.6206 7.75783e-08 0)
(42.6208 7.73861e-08 0)
(42.621 7.72676e-08 0)
(42.6212 7.71818e-08 0)
(42.6215 7.71348e-08 0)
(42.6217 7.71061e-08 0)
(42.622 7.70797e-08 0)
(42.6223 7.70987e-08 0)
(42.6226 7.71406e-08 0)
(42.623 7.71962e-08 0)
(42.6233 7.7262e-08 0)
(42.6236 7.73309e-08 0)
(42.6239 7.74443e-08 0)
(42.6242 7.75489e-08 0)
(42.6245 7.76664e-08 0)
(42.6248 7.77833e-08 0)
(42.6251 7.78964e-08 0)
(42.6254 7.80368e-08 0)
(42.6256 7.81688e-08 0)
(42.6259 7.82862e-08 0)
(42.6261 7.84266e-08 0)
(42.6264 7.85541e-08 0)
(42.6266 7.86824e-08 0)
(42.6268 7.88085e-08 0)
(42.627 7.89173e-08 0)
(42.6271 7.90336e-08 0)
(42.6273 7.91414e-08 0)
(42.6275 7.92484e-08 0)
(42.6276 7.93514e-08 0)
(42.6277 7.9441e-08 0)
(42.6279 7.95325e-08 0)
(42.628 7.96201e-08 0)
(42.6281 7.96979e-08 0)
(42.6282 7.97708e-08 0)
(42.6283 7.98362e-08 0)
(42.6284 7.98957e-08 0)
(42.6285 7.9959e-08 0)
(42.6286 8.00148e-08 0)
(42.6286 8.00626e-08 0)
(42.6287 8.01071e-08 0)
(42.6288 8.01505e-08 0)
(42.6289 8.01975e-08 0)
(42.6289 8.02401e-08 0)
(42.629 8.02718e-08 0)
(42.629 8.03043e-08 0)
(42.6291 8.03517e-08 0)
(42.6292 8.03767e-08 0)
(42.6292 8.04147e-08 0)
(42.6293 8.04416e-08 0)
(42.6293 8.04713e-08 0)
(42.6294 8.05064e-08 0)
(42.6294 8.05424e-08 0)
(42.6295 8.05738e-08 0)
(42.6295 8.05931e-08 0)
(42.6296 8.06415e-08 0)
(42.6296 8.0666e-08 0)
(42.6297 8.07049e-08 0)
(42.6297 8.07407e-08 0)
(42.6297 8.07829e-08 0)
(42.6298 8.08215e-08 0)
(42.6298 8.08699e-08 0)
(42.6298 8.09305e-08 0)
(42.6298 8.09938e-08 0)
(42.6298 8.10627e-08 0)
(42.6298 8.11312e-08 0)
(42.6298 8.12464e-08 0)
(42.6297 8.14034e-08 0)
(42.6296 8.15481e-08 0)
(42.6295 8.17463e-08 0)
(42.6293 8.19613e-08 0)
(42.6291 8.22439e-08 0)
(42.6288 8.25723e-08 0)
(42.6284 8.29762e-08 0)
(42.6279 8.34388e-08 0)
(42.6272 8.40068e-08 0)
(42.6264 8.46632e-08 0)
(42.6255 8.54402e-08 0)
(42.6243 8.63351e-08 0)
(42.6229 8.73772e-08 0)
(42.6211 8.8564e-08 0)
(42.619 8.99092e-08 0)
(42.6166 9.14215e-08 0)
(42.6137 9.31e-08 0)
(42.6103 9.49441e-08 0)
(42.6064 9.69521e-08 0)
(42.6018 9.90983e-08 0)
(42.5966 1.01367e-07 0)
(42.5907 1.03727e-07 0)
(42.5841 1.0613e-07 0)
(42.5766 1.08523e-07 0)
(42.5684 1.10837e-07 0)
(42.5593 1.12995e-07 0)
(42.5494 1.14917e-07 0)
(42.5388 1.16508e-07 0)
(42.5273 1.17663e-07 0)
(42.5152 1.18272e-07 0)
(42.5025 1.18241e-07 0)
(42.4894 1.17464e-07 0)
(42.4758 1.15851e-07 0)
(42.4622 1.13332e-07 0)
(42.4485 1.09837e-07 0)
(42.435 1.05332e-07 0)
(42.4219 9.98075e-08 0)
(42.4095 9.3295e-08 0)
(42.398 8.58399e-08 0)
(42.3875 7.75263e-08 0)
(42.3783 6.84771e-08 0)
(42.3706 5.88496e-08 0)
(42.3645 4.8833e-08 0)
(42.3602 3.86583e-08 0)
(42.3577 2.86704e-08 0)
(42.3571 2.1698e-08 0)
(42.3583 1.20145e-08 0)
(42.3613 1.74176e-09 0)
(42.3662 -4.32841e-09 0)
(42.3727 -6.73312e-09 0)
(42.3808 -1.12403e-08 0)
(42.3902 -1.46515e-08 0)
(42.4007 -1.75243e-08 0)
(42.412 -1.91216e-08 0)
(42.424 -1.86458e-08 0)
(42.4363 -1.75197e-08 0)
(42.4488 -1.47222e-08 0)
(42.4611 -1.0676e-08 0)
(42.473 -6.46638e-09 0)
(42.4845 -1.07729e-09 0)
(42.4952 4.55569e-09 0)
(42.5052 1.02053e-08 0)
(42.5142 1.69313e-08 0)
(42.5223 2.34373e-08 0)
(42.5294 3.00922e-08 0)
(42.5356 3.67388e-08 0)
(42.5408 4.33841e-08 0)
(42.545 5.35685e-08 0)
(42.5485 7.98048e-08 0)
(42.5512 1.84253e-07 0)
(42.5532 6.68425e-07 0)
(42.5547 2.99866e-06 0)
(42.5556 1.4176e-05 0)
(42.5558 6.72506e-05 0)
(42.5547 0.000326813 0)
(42.5483 0.00156318 0)
(42.5181 0.00743638 0)
(42.3782 0.0350024 0)
(41.9306 0.176171 0)
(37.9952 0.642912 0)
(42.6952 0.000119228 0)
(42.6825 0.00010281 0)
(42.6677 9.94224e-05 0)
(42.6552 0.00010371 0)
(42.6447 0.000105601 0)
(42.6354 0.000106061 0)
(42.6274 0.000105498 0)
(42.6208 0.000103479 0)
(42.6156 9.95766e-05 0)
(42.6118 9.35288e-05 0)
(42.6095 8.53496e-05 0)
(42.6084 7.53735e-05 0)
(42.6084 6.42213e-05 0)
(42.6094 5.27111e-05 0)
(42.6111 4.15949e-05 0)
(42.6135 3.15414e-05 0)
(42.6163 2.30014e-05 0)
(42.6194 1.61265e-05 0)
(42.6226 1.08796e-05 0)
(42.6257 7.07022e-06 0)
(42.6286 4.4331e-06 0)
(42.6312 2.68772e-06 0)
(42.6334 1.58207e-06 0)
(42.6353 9.10246e-07 0)
(42.6367 5.19005e-07 0)
(42.6377 3.00002e-07 0)
(42.6382 1.81901e-07 0)
(42.6383 1.19082e-07 0)
(42.6381 8.70019e-08 0)
(42.6375 7.24606e-08 0)
(42.6367 6.71621e-08 0)
(42.6357 6.63233e-08 0)
(42.6345 6.73569e-08 0)
(42.6333 6.87839e-08 0)
(42.6319 7.02822e-08 0)
(42.6306 7.1579e-08 0)
(42.6293 7.2538e-08 0)
(42.6281 7.28909e-08 0)
(42.6269 7.38322e-08 0)
(42.6258 7.47179e-08 0)
(42.6248 7.47185e-08 0)
(42.6239 7.47666e-08 0)
(42.6231 7.48408e-08 0)
(42.6224 7.48633e-08 0)
(42.6218 7.48625e-08 0)
(42.6214 7.48601e-08 0)
(42.621 7.48087e-08 0)
(42.6207 7.47623e-08 0)
(42.6205 7.47921e-08 0)
(42.6204 7.48079e-08 0)
(42.6203 7.48013e-08 0)
(42.6203 7.48164e-08 0)
(42.6203 7.48616e-08 0)
(42.6204 7.49491e-08 0)
(42.6206 7.50419e-08 0)
(42.6208 7.51132e-08 0)
(42.621 7.52337e-08 0)
(42.6212 7.53679e-08 0)
(42.6215 7.55128e-08 0)
(42.6217 7.56673e-08 0)
(42.622 7.58173e-08 0)
(42.6223 7.59865e-08 0)
(42.6226 7.6171e-08 0)
(42.623 7.63538e-08 0)
(42.6233 7.65299e-08 0)
(42.6236 7.67122e-08 0)
(42.6239 7.69081e-08 0)
(42.6242 7.7103e-08 0)
(42.6245 7.72998e-08 0)
(42.6248 7.74915e-08 0)
(42.6251 7.76749e-08 0)
(42.6254 7.78687e-08 0)
(42.6256 7.80574e-08 0)
(42.6259 7.82364e-08 0)
(42.6261 7.84196e-08 0)
(42.6264 7.85959e-08 0)
(42.6266 7.8766e-08 0)
(42.6268 7.89354e-08 0)
(42.627 7.90932e-08 0)
(42.6271 7.92486e-08 0)
(42.6273 7.93964e-08 0)
(42.6275 7.95419e-08 0)
(42.6276 7.9685e-08 0)
(42.6277 7.98176e-08 0)
(42.6279 7.99421e-08 0)
(42.628 8.00665e-08 0)
(42.6281 8.01835e-08 0)
(42.6282 8.0292e-08 0)
(42.6283 8.03965e-08 0)
(42.6284 8.04938e-08 0)
(42.6285 8.05921e-08 0)
(42.6286 8.06871e-08 0)
(42.6286 8.07746e-08 0)
(42.6287 8.08578e-08 0)
(42.6288 8.09396e-08 0)
(42.6289 8.10217e-08 0)
(42.6289 8.11e-08 0)
(42.629 8.11702e-08 0)
(42.629 8.12427e-08 0)
(42.6291 8.13183e-08 0)
(42.6292 8.1381e-08 0)
(42.6292 8.14491e-08 0)
(42.6293 8.15122e-08 0)
(42.6293 8.15761e-08 0)
(42.6294 8.16426e-08 0)
(42.6294 8.17126e-08 0)
(42.6295 8.17761e-08 0)
(42.6295 8.18324e-08 0)
(42.6296 8.19064e-08 0)
(42.6296 8.19644e-08 0)
(42.6297 8.20276e-08 0)
(42.6297 8.20878e-08 0)
(42.6297 8.21486e-08 0)
(42.6298 8.22121e-08 0)
(42.6298 8.2283e-08 0)
(42.6298 8.23598e-08 0)
(42.6298 8.24396e-08 0)
(42.6298 8.25181e-08 0)
(42.6298 8.26072e-08 0)
(42.6298 8.27107e-08 0)
(42.6297 8.28588e-08 0)
(42.6296 8.29974e-08 0)
(42.6295 8.31707e-08 0)
(42.6293 8.33563e-08 0)
(42.6291 8.35851e-08 0)
(42.6288 8.38498e-08 0)
(42.6284 8.41642e-08 0)
(42.6279 8.45262e-08 0)
(42.6272 8.49583e-08 0)
(42.6264 8.54578e-08 0)
(42.6255 8.60445e-08 0)
(42.6243 8.67144e-08 0)
(42.6229 8.74857e-08 0)
(42.6211 8.83671e-08 0)
(42.619 8.93612e-08 0)
(42.6166 9.04794e-08 0)
(42.6137 9.17183e-08 0)
(42.6103 9.3083e-08 0)
(42.6064 9.4569e-08 0)
(42.6018 9.6159e-08 0)
(42.5966 9.78485e-08 0)
(42.5907 9.96121e-08 0)
(42.5841 1.01417e-07 0)
(42.5766 1.03234e-07 0)
(42.5684 1.05011e-07 0)
(42.5593 1.06701e-07 0)
(42.5494 1.08244e-07 0)
(42.5388 1.09574e-07 0)
(42.5273 1.10623e-07 0)
(42.5152 1.11314e-07 0)
(42.5025 1.1158e-07 0)
(42.4894 1.11347e-07 0)
(42.4758 1.1055e-07 0)
(42.4622 1.09138e-07 0)
(42.4485 1.07059e-07 0)
(42.435 1.04281e-07 0)
(42.4219 1.00803e-07 0)
(42.4095 9.66323e-08 0)
(42.398 9.17996e-08 0)
(42.3875 8.63607e-08 0)
(42.3783 8.03969e-08 0)
(42.3706 7.40157e-08 0)
(42.3645 6.73393e-08 0)
(42.3602 6.05068e-08 0)
(42.3577 5.37509e-08 0)
(42.3571 4.88108e-08 0)
(42.3583 4.21044e-08 0)
(42.3613 3.44781e-08 0)
(42.3662 2.88811e-08 0)
(42.3727 2.34111e-08 0)
(42.3808 1.74252e-08 0)
(42.3902 1.34499e-08 0)
(42.4007 1.04571e-08 0)
(42.412 8.38858e-09 0)
(42.424 7.646e-09 0)
(42.4363 7.57926e-09 0)
(42.4488 8.56734e-09 0)
(42.4611 1.03686e-08 0)
(42.473 1.24122e-08 0)
(42.4845 1.50344e-08 0)
(42.4952 1.78157e-08 0)
(42.5052 2.16869e-08 0)
(42.5142 2.65446e-08 0)
(42.5223 3.10461e-08 0)
(42.5294 3.58394e-08 0)
(42.5356 4.09248e-08 0)
(42.5408 4.71018e-08 0)
(42.545 6.17535e-08 0)
(42.5485 1.1786e-07 0)
(42.5512 3.76825e-07 0)
(42.5532 1.60522e-06 0)
(42.5547 7.52006e-06 0)
(42.5556 3.59082e-05 0)
(42.5559 0.000170523 0)
(42.5549 0.000828994 0)
(42.5492 0.00396377 0)
(42.5224 0.0188104 0)
(42.4001 0.087489 0)
(42.0119 0.405947 0)
(39.0206 1.45657 0)
(42.6952 3.60285e-05 0)
(42.6825 2.80591e-05 0)
(42.6676 1.9701e-05 0)
(42.6552 1.66078e-05 0)
(42.6447 1.40885e-05 0)
(42.6354 1.18591e-05 0)
(42.6274 1.00696e-05 0)
(42.6207 8.58243e-06 0)
(42.6156 7.2883e-06 0)
(42.6118 6.1286e-06 0)
(42.6095 5.07452e-06 0)
(42.6083 4.11423e-06 0)
(42.6084 3.25026e-06 0)
(42.6094 2.49952e-06 0)
(42.6111 1.85736e-06 0)
(42.6135 1.33074e-06 0)
(42.6163 9.22348e-07 0)
(42.6194 6.14507e-07 0)
(42.6226 3.92561e-07 0)
(42.6257 2.3926e-07 0)
(42.6286 1.37972e-07 0)
(42.6312 7.37726e-08 0)
(42.6334 3.49888e-08 0)
(42.6353 1.26078e-08 0)
(42.6367 4.80464e-10 0)
(42.6377 -5.72869e-09 0)
(42.6382 -8.42935e-09 0)
(42.6383 -8.60535e-09 0)
(42.6381 -5.49542e-09 0)
(42.6375 -1.6773e-09 0)
(42.6367 1.03231e-09 0)
(42.6357 2.62744e-09 0)
(42.6345 3.63967e-09 0)
(42.6333 4.33682e-09 0)
(42.6319 4.89311e-09 0)
(42.6306 5.3462e-09 0)
(42.6293 5.66291e-09 0)
(42.6281 5.78099e-09 0)
(42.6269 6.08187e-09 0)
(42.6258 6.34377e-09 0)
(42.6248 6.33032e-09 0)
(42.6239 6.32144e-09 0)
(42.6231 6.30557e-09 0)
(42.6224 6.27475e-09 0)
(42.6218 6.2274e-09 0)
(42.6214 6.16615e-09 0)
(42.621 6.08873e-09 0)
(42.6207 6.00358e-09 0)
(42.6205 5.93449e-09 0)
(42.6204 5.86399e-09 0)
(42.6203 5.7803e-09 0)
(42.6203 5.70275e-09 0)
(42.6203 5.63228e-09 0)
(42.6204 5.5686e-09 0)
(42.6206 5.50958e-09 0)
(42.6208 5.442e-09 0)
(42.621 5.38141e-09 0)
(42.6212 5.32599e-09 0)
(42.6215 5.27146e-09 0)
(42.6217 5.21972e-09 0)
(42.622 5.16597e-09 0)
(42.6223 5.11687e-09 0)
(42.6226 5.07292e-09 0)
(42.623 5.02936e-09 0)
(42.6233 4.98454e-09 0)
(42.6236 4.93837e-09 0)
(42.6239 4.89667e-09 0)
(42.6242 4.85559e-09 0)
(42.6245 4.81101e-09 0)
(42.6248 4.7638e-09 0)
(42.6251 4.71702e-09 0)
(42.6254 4.67371e-09 0)
(42.6256 4.62959e-09 0)
(42.6259 4.57981e-09 0)
(42.6261 4.53485e-09 0)
(42.6264 4.48683e-09 0)
(42.6266 4.43952e-09 0)
(42.6268 4.39143e-09 0)
(42.627 4.34107e-09 0)
(42.6271 4.28912e-09 0)
(42.6273 4.23779e-09 0)
(42.6275 4.18305e-09 0)
(42.6276 4.12578e-09 0)
(42.6277 4.06852e-09 0)
(42.6279 4.01131e-09 0)
(42.628 3.95561e-09 0)
(42.6281 3.89682e-09 0)
(42.6282 3.83689e-09 0)
(42.6283 3.77683e-09 0)
(42.6284 3.7177e-09 0)
(42.6285 3.65856e-09 0)
(42.6286 3.5982e-09 0)
(42.6286 3.53714e-09 0)
(42.6287 3.47664e-09 0)
(42.6288 3.41493e-09 0)
(42.6289 3.35301e-09 0)
(42.6289 3.2937e-09 0)
(42.629 3.2324e-09 0)
(42.629 3.17413e-09 0)
(42.6291 3.11972e-09 0)
(42.6292 3.05974e-09 0)
(42.6292 3.00112e-09 0)
(42.6293 2.94213e-09 0)
(42.6293 2.884e-09 0)
(42.6294 2.83002e-09 0)
(42.6294 2.77406e-09 0)
(42.6295 2.71808e-09 0)
(42.6295 2.65925e-09 0)
(42.6296 2.60827e-09 0)
(42.6296 2.55427e-09 0)
(42.6297 2.50184e-09 0)
(42.6297 2.45172e-09 0)
(42.6297 2.40276e-09 0)
(42.6298 2.35542e-09 0)
(42.6298 2.31234e-09 0)
(42.6298 2.27232e-09 0)
(42.6298 2.23182e-09 0)
(42.6298 2.19339e-09 0)
(42.6298 2.16035e-09 0)
(42.6298 2.12564e-09 0)
(42.6297 2.11085e-09 0)
(42.6296 2.09361e-09 0)
(42.6295 2.08787e-09 0)
(42.6293 2.08813e-09 0)
(42.6291 2.10362e-09 0)
(42.6288 2.13281e-09 0)
(42.6284 2.17776e-09 0)
(42.6279 2.24043e-09 0)
(42.6272 2.32714e-09 0)
(42.6264 2.43699e-09 0)
(42.6255 2.57627e-09 0)
(42.6243 2.74407e-09 0)
(42.6229 2.94909e-09 0)
(42.6211 3.18888e-09 0)
(42.619 3.46706e-09 0)
(42.6166 3.78676e-09 0)
(42.6137 4.14634e-09 0)
(42.6103 4.54851e-09 0)
(42.6064 4.99167e-09 0)
(42.6018 5.46936e-09 0)
(42.5966 5.98247e-09 0)
(42.5907 6.5166e-09 0)
(42.5841 7.06627e-09 0)
(42.5766 7.61674e-09 0)
(42.5684 8.15582e-09 0)
(42.5593 8.66131e-09 0)
(42.5494 9.11711e-09 0)
(42.5388 9.4999e-09 0)
(42.5273 9.78858e-09 0)
(42.5152 9.95174e-09 0)
(42.5025 9.97024e-09 0)
(42.4894 9.81412e-09 0)
(42.4758 9.46578e-09 0)
(42.4622 8.90377e-09 0)
(42.4485 8.11125e-09 0)
(42.435 7.07452e-09 0)
(42.4219 5.79366e-09 0)
(42.4095 4.26935e-09 0)
(42.398 2.51027e-09 0)
(42.3875 5.33195e-10 0)
(42.3783 -1.63767e-09 0)
(42.3706 -3.96952e-09 0)
(42.3645 -6.42764e-09 0)
(42.3602 -8.9693e-09 0)
(42.3577 -1.15185e-08 0)
(42.3571 -1.35862e-08 0)
(42.3583 -1.61489e-08 0)
(42.3613 -1.92576e-08 0)
(42.3662 -2.19235e-08 0)
(42.3727 -2.46078e-08 0)
(42.3808 -2.64755e-08 0)
(42.3902 -2.74472e-08 0)
(42.4007 -2.81471e-08 0)
(42.412 -2.85686e-08 0)
(42.424 -2.84149e-08 0)
(42.4363 -2.8008e-08 0)
(42.4488 -2.71932e-08 0)
(42.4611 -2.58665e-08 0)
(42.473 -2.42038e-08 0)
(42.4845 -2.16059e-08 0)
(42.4952 -1.84768e-08 0)
(42.5052 -1.56793e-08 0)
(42.5142 -1.35864e-08 0)
(42.5223 -1.16787e-08 0)
(42.5294 -9.81314e-09 0)
(42.5356 -7.43777e-09 0)
(42.5408 -2.36765e-09 0)
(42.545 1.66202e-08 0)
(42.5485 1.03189e-07 0)
(42.5512 5.22467e-07 0)
(42.5532 2.55443e-06 0)
(42.5547 1.23946e-05 0)
(42.5556 5.98699e-05 0)
(42.556 0.000282064 0)
(42.5558 0.00138059 0)
(42.5535 0.006606 0)
(42.5425 0.0314556 0)
(42.4897 0.14665 0)
(42.3192 0.661555 0)
(40.5369 2.34926 0)
(42.6952 -3.60285e-05 0)
(42.6825 -2.80591e-05 0)
(42.6676 -1.9701e-05 0)
(42.6552 -1.66078e-05 0)
(42.6447 -1.40885e-05 0)
(42.6354 -1.18591e-05 0)
(42.6274 -1.00696e-05 0)
(42.6207 -8.58243e-06 0)
(42.6156 -7.2883e-06 0)
(42.6118 -6.1286e-06 0)
(42.6095 -5.07452e-06 0)
(42.6083 -4.11423e-06 0)
(42.6084 -3.25026e-06 0)
(42.6094 -2.49952e-06 0)
(42.6111 -1.85736e-06 0)
(42.6135 -1.33074e-06 0)
(42.6163 -9.22348e-07 0)
(42.6194 -6.14506e-07 0)
(42.6226 -3.92559e-07 0)
(42.6257 -2.39261e-07 0)
(42.6286 -1.37971e-07 0)
(42.6312 -7.3773e-08 0)
(42.6334 -3.49899e-08 0)
(42.6353 -1.2609e-08 0)
(42.6367 -4.79442e-10 0)
(42.6377 5.73069e-09 0)
(42.6382 8.43343e-09 0)
(42.6383 8.60504e-09 0)
(42.6381 5.49535e-09 0)
(42.6375 1.67676e-09 0)
(42.6367 -1.03223e-09 0)
(42.6357 -2.62619e-09 0)
(42.6345 -3.63957e-09 0)
(42.6333 -4.33718e-09 0)
(42.6319 -4.89427e-09 0)
(42.6306 -5.34663e-09 0)
(42.6293 -5.66388e-09 0)
(42.6281 -5.78261e-09 0)
(42.6269 -6.08044e-09 0)
(42.6258 -6.34318e-09 0)
(42.6248 -6.32998e-09 0)
(42.6239 -6.32301e-09 0)
(42.6231 -6.30688e-09 0)
(42.6224 -6.273e-09 0)
(42.6218 -6.22675e-09 0)
(42.6214 -6.16441e-09 0)
(42.621 -6.08658e-09 0)
(42.6207 -6.00321e-09 0)
(42.6205 -5.93412e-09 0)
(42.6204 -5.86166e-09 0)
(42.6203 -5.77904e-09 0)
(42.6203 -5.70174e-09 0)
(42.6203 -5.6308e-09 0)
(42.6204 -5.5695e-09 0)
(42.6206 -5.50832e-09 0)
(42.6208 -5.44132e-09 0)
(42.621 -5.38175e-09 0)
(42.6212 -5.32607e-09 0)
(42.6215 -5.27317e-09 0)
(42.6217 -5.2223e-09 0)
(42.622 -5.16694e-09 0)
(42.6223 -5.11931e-09 0)
(42.6226 -5.07605e-09 0)
(42.623 -5.03161e-09 0)
(42.6233 -4.98537e-09 0)
(42.6236 -4.93926e-09 0)
(42.6239 -4.8964e-09 0)
(42.6242 -4.85419e-09 0)
(42.6245 -4.80917e-09 0)
(42.6248 -4.76364e-09 0)
(42.6251 -4.71853e-09 0)
(42.6254 -4.67366e-09 0)
(42.6256 -4.6305e-09 0)
(42.6259 -4.58139e-09 0)
(42.6261 -4.53342e-09 0)
(42.6264 -4.48581e-09 0)
(42.6266 -4.43927e-09 0)
(42.6268 -4.39207e-09 0)
(42.627 -4.34093e-09 0)
(42.6271 -4.28716e-09 0)
(42.6273 -4.23565e-09 0)
(42.6275 -4.18331e-09 0)
(42.6276 -4.12614e-09 0)
(42.6277 -4.06937e-09 0)
(42.6279 -4.01087e-09 0)
(42.628 -3.95455e-09 0)
(42.6281 -3.89719e-09 0)
(42.6282 -3.83763e-09 0)
(42.6283 -3.77649e-09 0)
(42.6284 -3.71809e-09 0)
(42.6285 -3.65983e-09 0)
(42.6286 -3.59977e-09 0)
(42.6286 -3.53863e-09 0)
(42.6287 -3.47632e-09 0)
(42.6288 -3.41454e-09 0)
(42.6289 -3.35258e-09 0)
(42.6289 -3.29287e-09 0)
(42.629 -3.23232e-09 0)
(42.629 -3.17309e-09 0)
(42.6291 -3.11773e-09 0)
(42.6292 -3.05771e-09 0)
(42.6292 -3.00138e-09 0)
(42.6293 -2.94356e-09 0)
(42.6293 -2.88677e-09 0)
(42.6294 -2.83078e-09 0)
(42.6294 -2.77308e-09 0)
(42.6295 -2.71774e-09 0)
(42.6295 -2.65964e-09 0)
(42.6296 -2.60831e-09 0)
(42.6296 -2.55454e-09 0)
(42.6297 -2.50066e-09 0)
(42.6297 -2.45068e-09 0)
(42.6297 -2.40259e-09 0)
(42.6298 -2.35749e-09 0)
(42.6298 -2.31419e-09 0)
(42.6298 -2.27282e-09 0)
(42.6298 -2.23144e-09 0)
(42.6298 -2.19213e-09 0)
(42.6298 -2.16011e-09 0)
(42.6298 -2.12564e-09 0)
(42.6297 -2.1135e-09 0)
(42.6296 -2.09486e-09 0)
(42.6295 -2.08973e-09 0)
(42.6293 -2.0881e-09 0)
(42.6291 -2.10657e-09 0)
(42.6288 -2.13257e-09 0)
(42.6284 -2.17651e-09 0)
(42.6279 -2.24147e-09 0)
(42.6272 -2.32627e-09 0)
(42.6264 -2.43426e-09 0)
(42.6255 -2.57497e-09 0)
(42.6243 -2.74426e-09 0)
(42.6229 -2.94707e-09 0)
(42.6211 -3.18701e-09 0)
(42.619 -3.46572e-09 0)
(42.6166 -3.78533e-09 0)
(42.6137 -4.14693e-09 0)
(42.6103 -4.54766e-09 0)
(42.6064 -4.9911e-09 0)
(42.6018 -5.47083e-09 0)
(42.5966 -5.98012e-09 0)
(42.5907 -6.5151e-09 0)
(42.5841 -7.06562e-09 0)
(42.5766 -7.61821e-09 0)
(42.5684 -8.15525e-09 0)
(42.5593 -8.66161e-09 0)
(42.5494 -9.11944e-09 0)
(42.5388 -9.50209e-09 0)
(42.5273 -9.78748e-09 0)
(42.5152 -9.95287e-09 0)
(42.5025 -9.96944e-09 0)
(42.4894 -9.8153e-09 0)
(42.4758 -9.46685e-09 0)
(42.4622 -8.90407e-09 0)
(42.4485 -8.11146e-09 0)
(42.435 -7.07666e-09 0)
(42.4219 -5.7946e-09 0)
(42.4095 -4.26884e-09 0)
(42.398 -2.50928e-09 0)
(42.3875 -5.32645e-10 0)
(42.3783 1.63586e-09 0)
(42.3706 3.96859e-09 0)
(42.3645 6.42748e-09 0)
(42.3602 8.97143e-09 0)
(42.3577 1.15203e-08 0)
(42.3571 1.3587e-08 0)
(42.3583 1.61493e-08 0)
(42.3613 1.92586e-08 0)
(42.3662 2.19226e-08 0)
(42.3727 2.4606e-08 0)
(42.3808 2.64747e-08 0)
(42.3902 2.7448e-08 0)
(42.4007 2.81471e-08 0)
(42.412 2.85693e-08 0)
(42.424 2.84147e-08 0)
(42.4363 2.8011e-08 0)
(42.4488 2.71942e-08 0)
(42.4611 2.58666e-08 0)
(42.473 2.42034e-08 0)
(42.4845 2.16054e-08 0)
(42.4952 1.84759e-08 0)
(42.5052 1.56824e-08 0)
(42.5142 1.36018e-08 0)
(42.5223 1.17624e-08 0)
(42.5294 1.01847e-08 0)
(42.5356 9.28355e-09 0)
(42.5408 1.14348e-08 0)
(42.545 2.81795e-08 0)
(42.5485 1.15986e-07 0)
(42.5512 5.36667e-07 0)
(42.5532 2.57246e-06 0)
(42.5547 1.24545e-05 0)
(42.5557 6.05374e-05 0)
(42.5563 0.000281708 0)
(42.5569 0.00139085 0)
(42.5589 0.00669685 0)
(42.5679 0.0324455 0)
(42.606 0.156299 0)
(42.7408 0.752045 0)
(43.2462 2.64313 0)
(42.6952 -0.000119228 0)
(42.6825 -0.00010281 0)
(42.6677 -9.94224e-05 0)
(42.6552 -0.00010371 0)
(42.6447 -0.000105601 0)
(42.6354 -0.000106061 0)
(42.6274 -0.000105498 0)
(42.6208 -0.000103479 0)
(42.6156 -9.95766e-05 0)
(42.6118 -9.35288e-05 0)
(42.6095 -8.53496e-05 0)
(42.6084 -7.53735e-05 0)
(42.6084 -6.42213e-05 0)
(42.6094 -5.27111e-05 0)
(42.6111 -4.15949e-05 0)
(42.6135 -3.15414e-05 0)
(42.6163 -2.30014e-05 0)