/*--------------------------------*- C++ -*----------------------------------*\
| =========                 |                                                 |
| \\      /  F ield         | OpenFOAM: The Open Source CFD Toolbox           |
|  \\    /   O peration     | Version:  3.0.x                                 |
|   \\  /    A nd           | Web:      www.OpenFOAM.org                      |
|    \\/     M anipulation  |                                                 |
\*---------------------------------------------------------------------------*/
FoamFile
{
    version     2.0;
    format      ascii;
    class       volScalarField;
    location    "0.42";
    object      rho;
}
// * * * * * * * * * * * * * * * * * * * * * * * * * * * * * * * * * * * * * //

dimensions      [1 -3 0 0 0 0 0];

internalField   nonuniform List<scalar> 
13800
(
50.5465
50.5465
50.5465
50.5465
50.5465
50.5465
50.5465
50.5465
50.5465
50.5466
50.5466
50.5466
50.5466
50.5466
50.5466
50.5466
50.5466
50.5466
50.5466
50.5466
50.5466
50.5466
50.5466
50.5466
50.5466
50.5466
50.5466
50.5466
50.5466
50.5466
50.5466
50.5466
50.5466
50.5466
50.5465
50.5465
50.5465
50.5465
50.5464
50.5464
50.5464
50.5465
50.5465
50.5466
50.5466
50.5467
50.5467
50.5467
50.5467
50.5467
50.5467
50.5466
50.5466
50.5466
50.5466
50.5466
50.5466
50.5466
50.5466
50.5466
50.5466
50.5467
50.5467
50.5468
50.5468
50.5469
50.547
50.547
50.547
50.547
50.5471
50.5471
50.547
50.547
50.547
50.547
50.547
50.547
50.547
50.547
50.5471
50.5472
50.5472
50.5472
50.5473
50.5473
50.5473
50.5473
50.5474
50.5474
50.5474
50.5474
50.5474
50.5474
50.5474
50.5474
50.5474
50.5474
50.5474
50.5474
50.5474
50.5474
50.5474
50.5474
50.5474
50.5474
50.5474
50.5474
50.5474
50.5474
50.5474
50.5474
50.5474
50.5475
50.5475
50.5475
50.5475
50.5475
50.5475
50.5475
50.5475
50.5475
50.5475
50.5475
50.5475
50.5475
50.5475
50.5475
50.5475
50.5475
50.5475
50.5475
50.5475
50.5475
50.5475
50.5475
50.5475
50.5475
50.5475
50.5475
50.5475
50.5475
50.5475
50.5475
50.5475
50.5475
50.5475
50.5475
50.5476
50.5476
50.5476
50.5476
50.5476
50.5476
50.5477
50.5477
50.5477
50.5477
50.5478
50.5478
50.5478
50.5479
50.5479
50.548
50.548
50.5481
50.5482
50.5482
50.5483
50.5484
50.5485
50.5486
50.5487
50.5488
50.549
50.5491
50.5493
50.5495
50.5496
50.5498
50.5501
50.5503
50.5505
50.5508
50.5511
50.5514
50.5518
50.5521
50.5525
50.5529
50.5534
50.5538
50.5543
50.5549
50.5555
50.5561
50.5568
50.5575
50.5606
50.5557
50.5473
50.5473
50.5473
50.5473
50.5473
50.5473
50.5473
50.5473
50.5473
50.5473
50.5473
50.5473
50.5473
50.5473
50.5473
50.5473
50.5473
50.5473
50.5473
50.5473
50.5473
50.5473
50.5473
50.5473
50.5473
50.5473
50.5473
50.5473
50.5473
50.5473
50.5473
50.5473
50.5473
50.5473
50.5473
50.5472
50.5472
50.5472
50.5471
50.5471
50.5471
50.5471
50.5472
50.5473
50.5473
50.5473
50.5474
50.5474
50.5474
50.5473
50.5473
50.5473
50.5473
50.5472
50.5472
50.5472
50.5472
50.5473
50.5473
50.5473
50.5473
50.5473
50.5473
50.5474
50.5474
50.5475
50.5476
50.5476
50.5476
50.5476
50.5477
50.5476
50.5476
50.5476
50.5476
50.5476
50.5476
50.5476
50.5476
50.5476
50.5476
50.5477
50.5478
50.5478
50.5478
50.5479
50.5479
50.5479
50.5479
50.5479
50.5479
50.5479
50.5479
50.5479
50.5479
50.5479
50.5479
50.5479
50.5479
50.5479
50.5479
50.5479
50.5479
50.5479
50.548
50.548
50.548
50.548
50.548
50.548
50.548
50.548
50.548
50.548
50.548
50.548
50.548
50.548
50.548
50.548
50.548
50.548
50.548
50.548
50.548
50.548
50.548
50.548
50.548
50.548
50.548
50.548
50.548
50.548
50.548
50.548
50.548
50.548
50.548
50.548
50.548
50.548
50.548
50.548
50.548
50.548
50.5481
50.5481
50.5481
50.5481
50.5481
50.5481
50.5481
50.5482
50.5482
50.5482
50.5482
50.5483
50.5483
50.5483
50.5484
50.5484
50.5484
50.5485
50.5486
50.5486
50.5487
50.5488
50.5488
50.5489
50.549
50.5491
50.5492
50.5494
50.5495
50.5496
50.5498
50.55
50.5502
50.5504
50.5506
50.5508
50.5511
50.5513
50.5516
50.5519
50.5523
50.5526
50.553
50.5534
50.5539
50.5544
50.5549
50.5554
50.556
50.5566
50.5573
50.558
50.5612
50.5542
50.5473
50.5473
50.5473
50.5473
50.5473
50.5473
50.5473
50.5473
50.5473
50.5473
50.5473
50.5473
50.5473
50.5473
50.5473
50.5473
50.5473
50.5473
50.5473
50.5473
50.5473
50.5473
50.5473
50.5473
50.5473
50.5473
50.5473
50.5473
50.5473
50.5473
50.5473
50.5473
50.5473
50.5473
50.5473
50.5472
50.5472
50.5472
50.5471
50.5471
50.5471
50.5471
50.5472
50.5473
50.5473
50.5473
50.5474
50.5474
50.5474
50.5473
50.5473
50.5473
50.5473
50.5472
50.5472
50.5472
50.5472
50.5473
50.5473
50.5473
50.5473
50.5473
50.5473
50.5474
50.5474
50.5475
50.5476
50.5476
50.5476
50.5476
50.5477
50.5477
50.5476
50.5476
50.5476
50.5476
50.5476
50.5476
50.5476
50.5476
50.5477
50.5477
50.5478
50.5478
50.5478
50.5479
50.5479
50.5479
50.5479
50.5479
50.5479
50.5479
50.5479
50.5479
50.5479
50.5479
50.5479
50.5479
50.5479
50.5479
50.5479
50.5479
50.5479
50.5479
50.548
50.548
50.548
50.548
50.548
50.548
50.548
50.548
50.548
50.548
50.548
50.548
50.548
50.548
50.548
50.548
50.548
50.548
50.548
50.548
50.548
50.548
50.548
50.548
50.548
50.548
50.548
50.548
50.548
50.548
50.548
50.548
50.548
50.548
50.548
50.548
50.548
50.548
50.548
50.548
50.548
50.548
50.5481
50.5481
50.5481
50.5481
50.5481
50.5481
50.5481
50.5482
50.5482
50.5482
50.5482
50.5483
50.5483
50.5483
50.5484
50.5484
50.5484
50.5485
50.5486
50.5486
50.5487
50.5488
50.5488
50.5489
50.549
50.5491
50.5492
50.5494
50.5495
50.5496
50.5498
50.55
50.5502
50.5504
50.5506
50.5508
50.5511
50.5513
50.5516
50.5519
50.5523
50.5526
50.553
50.5534
50.5539
50.5544
50.5549
50.5554
50.556
50.5566
50.5573
50.558
50.5611
50.5545
50.5473
50.5473
50.5473
50.5473
50.5473
50.5473
50.5473
50.5473
50.5473
50.5473
50.5473
50.5473
50.5473
50.5473
50.5473
50.5473
50.5473
50.5473
50.5473
50.5473
50.5473
50.5473
50.5473
50.5473
50.5473
50.5473
50.5473
50.5473
50.5473
50.5473
50.5473
50.5473
50.5473
50.5473
50.5473
50.5472
50.5472
50.5472
50.5471
50.5471
50.5471
50.5471
50.5472
50.5473
50.5473
50.5473
50.5474
50.5474
50.5474
50.5473
50.5473
50.5473
50.5473
50.5472
50.5472
50.5472
50.5472
50.5473
50.5473
50.5473
50.5473
50.5473
50.5473
50.5474
50.5474
50.5475
50.5476
50.5476
50.5476
50.5476
50.5477
50.5476
50.5476
50.5476
50.5476
50.5476
50.5476
50.5476
50.5476
50.5476
50.5477
50.5477
50.5478
50.5478
50.5478
50.5479
50.5479
50.5479
50.5479
50.5479
50.5479
50.5479
50.5479
50.5479
50.5479
50.5479
50.5479
50.5479
50.5479
50.5479
50.5479
50.5479
50.5479
50.5479
50.548
50.548
50.548
50.548
50.548
50.548
50.548
50.548
50.548
50.548
50.548
50.548
50.548
50.548
50.548
50.548
50.548
50.548
50.548
50.548
50.548
50.548
50.548
50.548
50.548
50.548
50.548
50.548
50.548
50.548
50.548
50.548
50.548
50.548
50.548
50.548
50.548
50.548
50.548
50.548
50.548
50.548
50.5481
50.5481
50.5481
50.5481
50.5481
50.5481
50.5481
50.5482
50.5482
50.5482
50.5482
50.5483
50.5483
50.5483
50.5484
50.5484
50.5484
50.5485
50.5486
50.5486
50.5487
50.5488
50.5488
50.5489
50.549
50.5491
50.5492
50.5494
50.5495
50.5496
50.5498
50.55
50.5502
50.5504
50.5506
50.5508
50.5511
50.5513
50.5516
50.5519
50.5523
50.5526
50.553
50.5534
50.5539
50.5544
50.5549
50.5554
50.556
50.5566
50.5573
50.558
50.5608
50.5568
50.5473
50.5473
50.5473
50.5473
50.5473
50.5473
50.5473
50.5473
50.5473
50.5473
50.5473
50.5473
50.5473
50.5473
50.5473
50.5473
50.5473
50.5473
50.5473
50.5473
50.5473
50.5473
50.5473
50.5473
50.5473
50.5473
50.5473
50.5473
50.5473
50.5473
50.5473
50.5473
50.5473
50.5473
50.5473
50.5472
50.5472
50.5472
50.5471
50.5471
50.5471
50.5471
50.5472
50.5473
50.5473
50.5473
50.5474
50.5474
50.5474
50.5473
50.5473
50.5473
50.5473
50.5472
50.5472
50.5472
50.5472
50.5473
50.5473
50.5473
50.5473
50.5473
50.5473
50.5474
50.5474
50.5475
50.5475
50.5476
50.5476
50.5476
50.5476
50.5476
50.5476
50.5476
50.5476
50.5476
50.5476
50.5476
50.5476
50.5476
50.5476
50.5477
50.5478
50.5478
50.5478
50.5479
50.5479
50.5479
50.5479
50.5479
50.5479
50.5479
50.5479
50.5479
50.5479
50.5479
50.5479
50.5479
50.5479
50.5479
50.5479
50.5479
50.5479
50.5479
50.548
50.548
50.548
50.548
50.548
50.548
50.548
50.548
50.548
50.548
50.548
50.548
50.548
50.548
50.548
50.548
50.548
50.548
50.548
50.548
50.548
50.548
50.548
50.548
50.548
50.548
50.548
50.548
50.548
50.548
50.548
50.548
50.548
50.548
50.548
50.548
50.548
50.548
50.548
50.548
50.548
50.548
50.5481
50.5481
50.5481
50.5481
50.5481
50.5481
50.5481
50.5482
50.5482
50.5482
50.5482
50.5483
50.5483
50.5483
50.5484
50.5484
50.5484
50.5485
50.5486
50.5486
50.5487
50.5488
50.5488
50.5489
50.549
50.5491
50.5492
50.5494
50.5495
50.5496
50.5498
50.55
50.5502
50.5504
50.5506
50.5508
50.5511
50.5513
50.5516
50.5519
50.5523
50.5526
50.553
50.5534
50.5539
50.5544
50.5549
50.5554
50.556
50.5566
50.5573
50.5579
50.5597
50.5558
50.5473
50.5473
50.5473
50.5473
50.5473
50.5473
50.5473
50.5473
50.5473
50.5473
50.5473
50.5473
50.5473
50.5473
50.5473
50.5473
50.5473
50.5473
50.5473
50.5473
50.5473
50.5473
50.5473
50.5473
50.5473
50.5473
50.5473
50.5473
50.5473
50.5473
50.5473
50.5473
50.5473
50.5473
50.5473
50.5472
50.5472
50.5472
50.5471
50.5471
50.5471
50.5471
50.5472
50.5473
50.5473
50.5473
50.5474
50.5474
50.5474
50.5473
50.5473
50.5473
50.5473
50.5472
50.5472
50.5472
50.5472
50.5473
50.5473
50.5473
50.5473
50.5473
50.5473
50.5474
50.5474
50.5475
50.5475
50.5476
50.5476
50.5476
50.5476
50.5476
50.5476
50.5476
50.5476
50.5476
50.5476
50.5476
50.5476
50.5476
50.5476
50.5477
50.5478
50.5478
50.5478
50.5479
50.5479
50.5479
50.5479
50.5479
50.5479
50.5479
50.5479
50.5479
50.5479
50.5479
50.5479
50.5479
50.5479
50.5479
50.5479
50.5479
50.5479
50.5479
50.548
50.548
50.548
50.548
50.548
50.548
50.548
50.548
50.548
50.548
50.548
50.548
50.548
50.548
50.548
50.548
50.548
50.548
50.548
50.548
50.548
50.548
50.548
50.548
50.548
50.548
50.548
50.548
50.548
50.548
50.548
50.548
50.548
50.548
50.548
50.548
50.548
50.548
50.548
50.548
50.548
50.548
50.5481
50.5481
50.5481
50.5481
50.5481
50.5481
50.5481
50.5482
50.5482
50.5482
50.5482
50.5483
50.5483
50.5483
50.5484
50.5484
50.5484
50.5485
50.5486
50.5486
50.5487
50.5488
50.5488
50.5489
50.549
50.5491
50.5492
50.5494
50.5495
50.5496
50.5498
50.55
50.5502
50.5504
50.5506
50.5508
50.5511
50.5513
50.5516
50.5519
50.5523
50.5526
50.553
50.5534
50.5539
50.5544
50.5549
50.5554
50.556
50.5566
50.5572
50.5578
50.5581
50.5581
50.5473
50.5473
50.5473
50.5473
50.5473
50.5473
50.5473
50.5473
50.5473
50.5473
50.5473
50.5473
50.5473
50.5473
50.5473
50.5473
50.5473
50.5473
50.5473
50.5473
50.5473
50.5473
50.5473
50.5473
50.5473
50.5473
50.5473
50.5473
50.5473
50.5473
50.5473
50.5473
50.5473
50.5473
50.5473
50.5472
50.5472
50.5472
50.5471
50.5471
50.5471
50.5471
50.5472
50.5473
50.5473
50.5473
50.5474
50.5474
50.5474
50.5473
50.5473
50.5473
50.5473
50.5472
50.5472
50.5472
50.5472
50.5473
50.5473
50.5473
50.5473
50.5473
50.5473
50.5474
50.5474
50.5475
50.5476
50.5476
50.5476
50.5476
50.5477
50.5476
50.5476
50.5476
50.5476
50.5476
50.5476
50.5476
50.5476
50.5476
50.5477
50.5477
50.5478
50.5478
50.5478
50.5479
50.5479
50.5479
50.5479
50.5479
50.5479
50.5479
50.5479
50.5479
50.5479
50.5479
50.5479
50.5479
50.5479
50.5479
50.5479
50.5479
50.5479
50.5479
50.548
50.548
50.548
50.548
50.548
50.548
50.548
50.548
50.548
50.548
50.548
50.548
50.548
50.548
50.548
50.548
50.548
50.548
50.548
50.548
50.548
50.548
50.548
50.548
50.548
50.548
50.548
50.548
50.548
50.548
50.548
50.548
50.548
50.548
50.548
50.548
50.548
50.548
50.548
50.548
50.548
50.548
50.5481
50.5481
50.5481
50.5481
50.5481
50.5481
50.5481
50.5482
50.5482
50.5482
50.5482
50.5483
50.5483
50.5483
50.5484
50.5484
50.5484
50.5485
50.5486
50.5486
50.5487
50.5488
50.5488
50.5489
50.549
50.5491
50.5492
50.5494
50.5495
50.5496
50.5498
50.55
50.5502
50.5504
50.5506
50.5508
50.5511
50.5513
50.5516
50.5519
50.5523
50.5526
50.553
50.5534
50.5539
50.5544
50.5549
50.5554
50.556
50.5565
50.5571
50.5579
50.5564
50.5643
50.5473
50.5473
50.5473
50.5473
50.5473
50.5473
50.5473
50.5473
50.5473
50.5473
50.5473
50.5473
50.5473
50.5473
50.5473
50.5473
50.5473
50.5473
50.5473
50.5473
50.5473
50.5473
50.5473
50.5473
50.5473
50.5473
50.5473
50.5473
50.5473
50.5473
50.5473
50.5473
50.5473
50.5473
50.5473
50.5472
50.5472
50.5472
50.5471
50.5471
50.5471
50.5471
50.5472
50.5473
50.5473
50.5473
50.5474
50.5474
50.5474
50.5473
50.5473
50.5473
50.5473
50.5472
50.5472
50.5472
50.5472
50.5473
50.5473
50.5473
50.5473
50.5473
50.5473
50.5474
50.5474
50.5475
50.5476
50.5476
50.5476
50.5476
50.5477
50.5477
50.5476
50.5476
50.5476
50.5476
50.5476
50.5476
50.5476
50.5476
50.5477
50.5477
50.5478
50.5478
50.5478
50.5479
50.5479
50.5479
50.5479
50.5479
50.5479
50.5479
50.5479
50.5479
50.5479
50.5479
50.5479
50.5479
50.5479
50.5479
50.5479
50.5479
50.5479
50.5479
50.548
50.548
50.548
50.548
50.548
50.548
50.548
50.548
50.548
50.548
50.548
50.548
50.548
50.548
50.548
50.548
50.548
50.548
50.548
50.548
50.548
50.548
50.548
50.548
50.548
50.548
50.548
50.548
50.548
50.548
50.548
50.548
50.548
50.548
50.548
50.548
50.548
50.548
50.548
50.548
50.548
50.548
50.5481
50.5481
50.5481
50.5481
50.5481
50.5481
50.5481
50.5482
50.5482
50.5482
50.5482
50.5483
50.5483
50.5483
50.5484
50.5484
50.5484
50.5485
50.5486
50.5486
50.5487
50.5488
50.5488
50.5489
50.549
50.5491
50.5492
50.5494
50.5495
50.5496
50.5498
50.55
50.5502
50.5504
50.5506
50.5508
50.5511
50.5513
50.5516
50.5519
50.5523
50.5526
50.553
50.5534
50.5539
50.5544
50.5549
50.5554
50.556
50.5565
50.5571
50.5581
50.5544
50.5814
50.5473
50.5473
50.5473
50.5473
50.5473
50.5473
50.5473
50.5473
50.5473
50.5473
50.5473
50.5473
50.5473
50.5473
50.5473
50.5473
50.5473
50.5473
50.5473
50.5473
50.5473
50.5473
50.5473
50.5473
50.5473
50.5473
50.5473
50.5473
50.5473
50.5473
50.5473
50.5473
50.5473
50.5473
50.5473
50.5472
50.5472
50.5472
50.5471
50.5471
50.5471
50.5471
50.5472
50.5473
50.5473
50.5473
50.5474
50.5474
50.5474
50.5473
50.5473
50.5473
50.5473
50.5472
50.5472
50.5472
50.5472
50.5473
50.5473
50.5473
50.5473
50.5473
50.5473
50.5474
50.5474
50.5475
50.5476
50.5476
50.5476
50.5476
50.5477
50.5476
50.5476
50.5476
50.5476
50.5476
50.5476
50.5476
50.5476
50.5476
50.5476
50.5477
50.5478
50.5478
50.5478
50.5479
50.5479
50.5479
50.5479
50.5479
50.5479
50.5479
50.5479
50.5479
50.5479
50.5479
50.5479
50.5479
50.5479
50.5479
50.5479
50.5479
50.5479
50.5479
50.548
50.548
50.548
50.548
50.548
50.548
50.548
50.548
50.548
50.548
50.548
50.548
50.548
50.548
50.548
50.548
50.548
50.548
50.548
50.548
50.548
50.548
50.548
50.548
50.548
50.548
50.548
50.548
50.548
50.548
50.548
50.548
50.548
50.548
50.548
50.548
50.548
50.548
50.548
50.548
50.548
50.548
50.5481
50.5481
50.5481
50.5481
50.5481
50.5481
50.5481
50.5482
50.5482
50.5482
50.5482
50.5483
50.5483
50.5483
50.5484
50.5484
50.5484
50.5485
50.5486
50.5486
50.5487
50.5488
50.5488
50.5489
50.549
50.5491
50.5492
50.5494
50.5495
50.5496
50.5498
50.55
50.5502
50.5504
50.5506
50.5508
50.5511
50.5513
50.5516
50.5519
50.5523
50.5526
50.553
50.5534
50.5539
50.5544
50.5549
50.5554
50.556
50.5565
50.5571
50.5582
50.5534
50.5904
50.5465
50.5465
50.5465
50.5465
50.5465
50.5465
50.5465
50.5465
50.5465
50.5466
50.5466
50.5466
50.5466
50.5466
50.5466
50.5466
50.5466
50.5466
50.5466
50.5466
50.5466
50.5466
50.5466
50.5466
50.5466
50.5466
50.5466
50.5466
50.5466
50.5466
50.5466
50.5466
50.5466
50.5466
50.5465
50.5465
50.5465
50.5465
50.5464
50.5464
50.5464
50.5465
50.5465
50.5466
50.5466
50.5467
50.5467
50.5467
50.5467
50.5467
50.5467
50.5466
50.5466
50.5466
50.5466
50.5466
50.5466
50.5466
50.5466
50.5466
50.5466
50.5467
50.5467
50.5468
50.5468
50.5469
50.547
50.547
50.547
50.547
50.5471
50.5471
50.547
50.547
50.547
50.547
50.547
50.547
50.547
50.547
50.5471
50.5472
50.5472
50.5472
50.5473
50.5473
50.5473
50.5473
50.5474
50.5474
50.5474
50.5474
50.5474
50.5474
50.5474
50.5474
50.5474
50.5474
50.5474
50.5474
50.5474
50.5474
50.5474
50.5474
50.5474
50.5474
50.5474
50.5474
50.5474
50.5474
50.5474
50.5474
50.5474
50.5475
50.5475
50.5475
50.5475
50.5475
50.5475
50.5475
50.5475
50.5475
50.5475
50.5475
50.5475
50.5475
50.5475
50.5475
50.5475
50.5475
50.5475
50.5475
50.5475
50.5475
50.5475
50.5475
50.5475
50.5475
50.5475
50.5475
50.5475
50.5475
50.5475
50.5475
50.5475
50.5475
50.5475
50.5475
50.5476
50.5476
50.5476
50.5476
50.5476
50.5476
50.5477
50.5477
50.5477
50.5477
50.5478
50.5478
50.5478
50.5479
50.5479
50.548
50.548
50.5481
50.5482
50.5482
50.5483
50.5484
50.5485
50.5486
50.5487
50.5488
50.549
50.5491
50.5493
50.5495
50.5496
50.5498
50.5501
50.5503
50.5505
50.5508
50.5511
50.5514
50.5518
50.5521
50.5525
50.5529
50.5534
50.5538
50.5543
50.5549
50.5554
50.556
50.5566
50.5578
50.5519
50.5986
50.6117
50.6339
50.6414
50.6426
50.6425
50.6425
50.6424
50.6419
50.6412
50.6403
50.6395
50.6385
50.6374
50.636
50.6343
50.6321
50.6291
50.625
50.6193
50.6103
50.6087
50.6282
50.6361
50.6376
50.6377
50.6379
50.6379
50.6375
50.6369
50.6363
50.6355
50.6346
50.6335
50.6322
50.6305
50.6283
50.6253
50.6212
50.6153
50.6064
50.6056
50.6255
50.6344
50.6364
50.6366
50.6368
50.6367
50.6363
50.6357
50.6349
50.6341
50.6332
50.6321
50.6308
50.6291
50.6269
50.6237
50.6193
50.6131
50.6033
50.5948
50.6057
50.6091
50.609
50.6084
50.6082
50.6078
50.6071
50.6062
50.6053
50.6044
50.6033
50.602
50.6003
50.5983
50.5959
50.593
50.5888
50.5833
50.5755
50.5774
50.5847
50.5904
50.5945
50.5975
50.5994
50.6003
50.6007
50.6007
50.6005
50.6
50.5994
50.5977
50.5961
50.594
50.5913
50.5877
50.5835
50.5786
50.5727
50.5459
50.5403
50.5341
50.5278
50.5221
50.5174
50.5141
50.5114
50.5092
50.5074
50.506
50.5048
50.5044
50.5039
50.5032
50.5027
50.5026
50.5032
50.5039
50.5064
50.5128
50.5018
50.4984
50.4994
50.5005
50.5012
50.5014
50.502
50.5022
50.5026
50.5026
50.5028
50.5027
50.5028
50.5028
50.5035
50.5043
50.5063
50.5099
50.5163
50.4714
50.4398
50.4151
50.398
50.3864
50.3778
50.3711
50.3664
50.3633
50.3616
50.3608
50.3611
50.3624
50.3653
50.37
50.3765
50.3845
50.3966
50.4106
50.4291
50.4629
50.4292
50.4077
50.3949
50.3863
50.38
50.375
50.3719
50.37
50.3695
50.3697
50.371
50.3732
50.3766
50.3816
50.3884
50.3969
50.4074
50.4213
50.4386
50.452
50.404
50.3768
50.3603
50.3492
50.34
50.3327
50.3275
50.324
50.3216
50.3207
50.3204
50.3219
50.3243
50.3292
50.3359
50.3448
50.3565
50.3718
50.3925
50.5711
50.5492
50.5438
50.5428
50.5431
50.5439
50.5448
50.5458
50.5468
50.5479
50.549
50.5502
50.5514
50.5526
50.5539
50.5552
50.5565
50.5579
50.5593
50.5608
50.5624
50.564
50.5656
50.5673
50.569
50.5708
50.5726
50.5744
50.5763
50.5783
50.5803
50.5823
50.5844
50.5866
50.5888
50.591
50.5933
50.5957
50.5981
50.6006
50.6031
50.6057
50.6084
50.611
50.6138
50.6166
50.6194
50.6223
50.6253
50.6284
50.6315
50.6346
50.6379
50.6411
50.6445
50.6479
50.6513
50.6548
50.6584
50.6621
50.6658
50.6695
50.6734
50.6772
50.6811
50.6851
50.6892
50.6933
50.6975
50.7018
50.7061
50.7105
50.715
50.7195
50.7241
50.7288
50.7335
50.7383
50.7432
50.7481
50.7531
50.7582
50.7633
50.7685
50.7738
50.7791
50.7846
50.7901
50.7956
50.8012
50.8069
50.8127
50.8185
50.8245
50.8305
50.8366
50.8428
50.849
50.8553
50.8617
50.8682
50.8749
50.8818
50.8888
50.8958
50.9029
50.91
50.9171
50.9243
50.9316
50.9392
50.9468
50.9539
50.9591
50.9581
50.9393
50.9094
50.8806
50.856
50.8376
50.8265
50.8229
50.8258
50.8338
50.8448
50.8645
50.908
50.9597
51.0045
51.0418
51.0717
51.0949
51.1127
51.1263
51.1378
51.1484
51.1584
51.1665
51.1741
51.1822
51.1906
51.1994
51.2084
51.2177
51.2271
51.2367
51.2463
51.2561
51.266
51.276
51.2861
51.2962
51.3065
51.3168
51.3272
51.3377
51.3482
51.3589
51.3696
51.3804
51.3912
51.4022
51.4132
51.4243
51.4354
51.4467
51.458
51.4693
51.4808
51.4923
51.5039
51.5156
51.5273
51.5391
51.551
51.5629
51.5749
51.587
51.5991
51.6114
51.6236
51.636
51.6484
51.6609
51.6733
51.6862
51.6985
51.7116
51.724
51.7373
51.7497
51.7633
51.7756
51.7895
51.8018
51.8159
51.8281
51.8422
51.8509
51.8836
50.5709
50.5504
50.5452
50.5444
50.5448
50.5456
50.5465
50.5475
50.5485
50.5496
50.5507
50.5519
50.5531
50.5544
50.5556
50.5569
50.5582
50.5596
50.5611
50.5626
50.5641
50.5657
50.5673
50.569
50.5707
50.5725
50.5743
50.5762
50.5781
50.58
50.582
50.5841
50.5862
50.5884
50.5906
50.5928
50.5951
50.5974
50.5999
50.6023
50.6049
50.6075
50.6101
50.6128
50.6156
50.6184
50.6212
50.6242
50.6271
50.6302
50.6333
50.6364
50.6397
50.6429
50.6463
50.6497
50.6531
50.6566
50.6602
50.6639
50.6676
50.6714
50.6752
50.6791
50.683
50.687
50.6911
50.6952
50.6994
50.7036
50.708
50.7124
50.7169
50.7214
50.726
50.7306
50.7354
50.7402
50.745
50.75
50.755
50.7601
50.7652
50.7704
50.7756
50.781
50.7864
50.7919
50.7974
50.8031
50.8088
50.8146
50.8204
50.8263
50.8323
50.8384
50.8445
50.8507
50.857
50.8635
50.87
50.8766
50.8833
50.8901
50.8969
50.9038
50.9107
50.9177
50.9248
50.9323
50.9401
50.9486
50.9575
50.9669
50.976
50.985
50.9938
51.0024
51.0109
51.0187
51.0243
51.0259
51.0263
51.0274
51.0298
51.0339
51.04
51.0479
51.0574
51.0678
51.08
51.0946
51.1082
51.1201
51.1311
51.1417
51.1522
51.162
51.1713
51.1806
51.1898
51.1991
51.2085
51.2179
51.2275
51.2371
51.2468
51.2566
51.2665
51.2765
51.2866
51.2968
51.307
51.3173
51.3277
51.3382
51.3487
51.3594
51.3701
51.3809
51.3917
51.4027
51.4137
51.4248
51.4359
51.4472
51.4585
51.4699
51.4813
51.4928
51.5044
51.5161
51.5278
51.5396
51.5515
51.5634
51.5754
51.5875
51.5997
51.6119
51.6241
51.6365
51.6489
51.6615
51.6738
51.6867
51.699
51.7122
51.7245
51.7378
51.7502
51.7638
51.7762
51.79
51.8024
51.8164
51.8287
51.8427
51.8518
51.8803
50.571
50.5512
50.5456
50.5444
50.5446
50.5453
50.5462
50.5472
50.5483
50.5493
50.5505
50.5516
50.5528
50.5541
50.5553
50.5566
50.558
50.5593
50.5608
50.5623
50.5638
50.5654
50.567
50.5687
50.5704
50.5722
50.574
50.5759
50.5778
50.5797
50.5817
50.5838
50.5859
50.5881
50.5903
50.5925
50.5948
50.5972
50.5996
50.602
50.6046
50.6072
50.6098
50.6125
50.6153
50.6181
50.6209
50.6239
50.6268
50.6299
50.633
50.6361
50.6394
50.6426
50.646
50.6494
50.6528
50.6563
50.6599
50.6636
50.6673
50.6711
50.6749
50.6788
50.6827
50.6867
50.6908
50.6949
50.6991
50.7034
50.7077
50.7121
50.7166
50.7211
50.7257
50.7303
50.7351
50.7399
50.7448
50.7497
50.7547
50.7598
50.7649
50.7701
50.7754
50.7807
50.7861
50.7916
50.7972
50.8028
50.8085
50.8142
50.8201
50.826
50.832
50.838
50.8442
50.8504
50.8567
50.8631
50.8696
50.8762
50.8829
50.8896
50.8965
50.9034
50.9104
50.9174
50.9243
50.9315
50.9391
50.9473
50.9561
50.9659
50.9778
50.9897
51.0003
51.0098
51.019
51.0281
51.0368
51.045
51.0512
51.0541
51.0565
51.0593
51.0631
51.0681
51.0743
51.0817
51.09
51.0993
51.1092
51.1194
51.1298
51.1402
51.1504
51.1603
51.1701
51.1796
51.1892
51.1987
51.2082
51.2177
51.2273
51.237
51.2467
51.2566
51.2665
51.2765
51.2866
51.2967
51.307
51.3173
51.3277
51.3382
51.3487
51.3594
51.3701
51.3809
51.3917
51.4027
51.4137
51.4248
51.4359
51.4472
51.4585
51.4699
51.4813
51.4928
51.5044
51.5161
51.5278
51.5396
51.5515
51.5634
51.5754
51.5875
51.5997
51.6119
51.6241
51.6365
51.6489
51.6615
51.6738
51.6867
51.699
51.7122
51.7245
51.7378
51.7502
51.7638
51.7762
51.79
51.8024
51.8164
51.8287
51.8426
51.8523
51.8755
50.5534
50.5403
50.5373
50.5381
50.5393
50.5405
50.5416
50.5427
50.5438
50.5449
50.546
50.5471
50.5484
50.5496
50.5509
50.5522
50.5535
50.5549
50.5563
50.5578
50.5593
50.5609
50.5625
50.5642
50.5659
50.5677
50.5695
50.5714
50.5733
50.5753
50.5773
50.5793
50.5814
50.5836
50.5858
50.588
50.5903
50.5927
50.5951
50.5976
50.6001
50.6027
50.6054
50.6081
50.6108
50.6136
50.6165
50.6194
50.6224
50.6254
50.6285
50.6317
50.6349
50.6381
50.6415
50.6449
50.6483
50.6519
50.6555
50.6591
50.6628
50.6666
50.6704
50.6743
50.6782
50.6822
50.6863
50.6904
50.6946
50.6989
50.7032
50.7076
50.7121
50.7166
50.7212
50.7259
50.7306
50.7354
50.7403
50.7452
50.7502
50.7553
50.7604
50.7656
50.7709
50.7763
50.7817
50.7872
50.7927
50.7984
50.8041
50.8099
50.8158
50.8217
50.8277
50.8338
50.84
50.8463
50.8527
50.8592
50.8658
50.8726
50.8794
50.8862
50.8931
50.9
50.9069
50.9138
50.921
50.9287
50.9369
50.9455
50.9548
50.9649
50.9743
50.9833
50.9922
51.0008
51.0093
51.0178
51.0254
51.0321
51.0382
51.0442
51.0503
51.0568
51.0638
51.0712
51.0791
51.0873
51.096
51.1049
51.1141
51.1234
51.1327
51.1421
51.1514
51.1608
51.1701
51.1794
51.1888
51.1983
51.2078
51.2173
51.227
51.2367
51.2465
51.2564
51.2663
51.2763
51.2864
51.2966
51.3069
51.3172
51.3277
51.3381
51.3487
51.3594
51.3701
51.3809
51.3917
51.4027
51.4137
51.4248
51.4359
51.4472
51.4585
51.4699
51.4813
51.4928
51.5044
51.5161
51.5278
51.5396
51.5515
51.5634
51.5754
51.5875
51.5997
51.6119
51.6242
51.6365
51.6489
51.6614
51.6738
51.6867
51.699
51.7121
51.7246
51.7376
51.7504
51.7637
51.7762
51.79
51.8024
51.8164
51.8288
51.8427
51.8535
51.8677
50.5587
50.5534
50.5507
50.5484
50.5473
50.5473
50.5479
50.5487
50.5496
50.5507
50.5517
50.5529
50.5541
50.5553
50.5566
50.5579
50.5593
50.5607
50.5621
50.5636
50.5651
50.5667
50.5683
50.5699
50.5717
50.5734
50.5752
50.5771
50.579
50.581
50.583
50.585
50.5871
50.5893
50.5915
50.5938
50.5961
50.5985
50.6009
50.6033
50.6059
50.6084
50.6111
50.6138
50.6165
50.6193
50.6222
50.6251
50.6281
50.6311
50.6342
50.6374
50.6406
50.6439
50.6472
50.6506
50.6541
50.6576
50.6611
50.6648
50.6685
50.6722
50.6761
50.68
50.6839
50.688
50.692
50.6962
50.7004
50.7046
50.7089
50.7133
50.7178
50.7223
50.7269
50.7316
50.7363
50.7411
50.7459
50.7509
50.7559
50.7609
50.7661
50.7713
50.7765
50.7819
50.7873
50.7927
50.7983
50.8039
50.8096
50.8154
50.8212
50.8271
50.8331
50.8391
50.8452
50.8514
50.8576
50.8639
50.8703
50.8768
50.8834
50.8901
50.8968
50.9036
50.9105
50.9175
50.9245
50.9316
50.9387
50.946
50.9535
50.9614
50.9695
50.9779
50.9864
50.9947
51.0031
51.0114
51.0195
51.0275
51.0352
51.0428
51.0504
51.0581
51.0659
51.0739
51.082
51.0903
51.0987
51.1073
51.116
51.1248
51.1337
51.1427
51.1517
51.1608
51.17
51.1793
51.1887
51.1981
51.2076
51.2172
51.2268
51.2366
51.2464
51.2563
51.2662
51.2763
51.2864
51.2966
51.3069
51.3172
51.3276
51.3381
51.3487
51.3593
51.3701
51.3809
51.3917
51.4027
51.4137
51.4248
51.4359
51.4472
51.4585
51.4699
51.4813
51.4928
51.5044
51.5161
51.5278
51.5396
51.5515
51.5634
51.5754
51.5875
51.5997
51.6119
51.6241
51.6365
51.6489
51.6614
51.674
51.6865
51.6993
51.7118
51.7248
51.7376
51.7504
51.7636
51.7764
51.7897
51.8027
51.816
51.8294
51.8422
51.8558
51.8674
50.5114
50.5185
50.5231
50.5267
50.5294
50.5312
50.5326
50.5338
50.5349
50.536
50.5372
50.5383
50.5395
50.5408
50.5421
50.5434
50.5447
50.5461
50.5475
50.549
50.5505
50.5521
50.5537
50.5554
50.5571
50.5589
50.5607
50.5626
50.5645
50.5665
50.5685
50.5705
50.5726
50.5748
50.577
50.5792
50.5815
50.5839
50.5863
50.5888
50.5913
50.5939
50.5965
50.5992
50.602
50.6048
50.6077
50.6106
50.6136
50.6166
50.6197
50.6229
50.6261
50.6294
50.6327
50.6361
50.6396
50.6431
50.6467
50.6504
50.6541
50.6578
50.6617
50.6656
50.6695
50.6735
50.6776
50.6818
50.686
50.6902
50.6946
50.699
50.7035
50.708
50.7127
50.7174
50.7222
50.727
50.7319
50.7369
50.742
50.7471
50.7523
50.7576
50.763
50.7685
50.7741
50.7798
50.7855
50.7913
50.7971
50.803
50.8091
50.8152
50.8215
50.8279
50.8344
50.8409
50.8476
50.8543
50.861
50.8677
50.8744
50.8811
50.8879
50.8949
50.9022
50.9098
50.9179
50.9263
50.935
50.944
50.9528
50.9615
50.9702
50.9787
50.987
50.9953
51.0035
51.0118
51.0198
51.0277
51.0353
51.0428
51.0503
51.0579
51.0656
51.0735
51.0816
51.0898
51.0982
51.1067
51.1153
51.1241
51.133
51.142
51.151
51.1602
51.1694
51.1788
51.1882
51.1977
51.2072
51.2168
51.2265
51.2363
51.2462
51.2561
51.2661
51.2762
51.2863
51.2965
51.3068
51.3172
51.3276
51.3381
51.3487
51.3593
51.37
51.3808
51.3917
51.4027
51.4137
51.4248
51.4359
51.4472
51.4585
51.4699
51.4813
51.4928
51.5044
51.5161
51.5278
51.5396
51.5515
51.5634
51.5754
51.5875
51.5997
51.6118
51.6242
51.6364
51.649
51.6613
51.674
51.6864
51.6993
51.7118
51.7249
51.7374
51.7508
51.7632
51.7768
51.7893
51.8032
51.8156
51.8297
51.8423
51.857
51.8696
50.5375
50.5505
50.5529
50.5528
50.5529
50.5535
50.5542
50.5551
50.556
50.5571
50.5582
50.5593
50.5605
50.5617
50.563
50.5643
50.5657
50.5671
50.5685
50.57
50.5716
50.5731
50.5748
50.5764
50.5781
50.5799
50.5817
50.5835
50.5854
50.5874
50.5894
50.5915
50.5936
50.5957
50.598
50.6002
50.6025
50.6049
50.6073
50.6098
50.6123
50.6149
50.6175
50.6202
50.623
50.6258
50.6286
50.6315
50.6345
50.6376
50.6406
50.6438
50.647
50.6503
50.6536
50.657
50.6605
50.664
50.6675
50.6712
50.6749
50.6786
50.6824
50.6863
50.6903
50.6943
50.6984
50.7025
50.7067
50.711
50.7153
50.7197
50.7241
50.7287
50.7333
50.738
50.7427
50.7475
50.7524
50.7573
50.7623
50.7674
50.7725
50.7777
50.783
50.7884
50.7938
50.7993
50.8048
50.8105
50.8161
50.8219
50.8277
50.8337
50.8397
50.8457
50.8519
50.8581
50.8644
50.8707
50.8771
50.8836
50.8902
50.8968
50.9035
50.9101
50.9168
50.9237
50.9308
50.9379
50.9451
50.9521
50.9591
50.9661
50.9731
50.9803
50.9876
50.9954
51.0036
51.0122
51.0209
51.0297
51.0387
51.0477
51.0561
51.0639
51.0712
51.0784
51.0856
51.093
51.1007
51.1086
51.1168
51.1252
51.1338
51.1426
51.1515
51.1605
51.1696
51.1789
51.1883
51.1977
51.2072
51.2169
51.2265
51.2363
51.2462
51.2561
51.2661
51.2761
51.2863
51.2965
51.3068
51.3171
51.3276
51.3381
51.3487
51.3593
51.37
51.3808
51.3917
51.4027
51.4137
51.4248
51.4359
51.4472
51.4585
51.4699
51.4813
51.4928
51.5044
51.5161
51.5278
51.5396
51.5515
51.5634
51.5754
51.5875
51.5997
51.6119
51.6242
51.6365
51.649
51.6613
51.674
51.6864
51.6993
51.7118
51.7249
51.7374
51.7507
51.7632
51.7768
51.7893
51.8032
51.8156
51.8298
51.8425
51.8578
51.8715
50.4925
50.5193
50.527
50.5301
50.5316
50.5326
50.5335
50.5345
50.5356
50.5366
50.5377
50.5389
50.5401
50.5413
50.5426
50.5439
50.5453
50.5467
50.5481
50.5496
50.5511
50.5527
50.5543
50.5559
50.5576
50.5594
50.5612
50.5631
50.565
50.567
50.569
50.5711
50.5732
50.5754
50.5776
50.5798
50.5821
50.5845
50.5869
50.5893
50.5919
50.5945
50.5971
50.5998
50.6026
50.6054
50.6082
50.6112
50.6141
50.6172
50.6203
50.6235
50.6267
50.63
50.6334
50.6368
50.6403
50.6438
50.6475
50.6512
50.6549
50.6588
50.6626
50.6665
50.6705
50.6746
50.6787
50.6828
50.687
50.6913
50.6956
50.7
50.7044
50.709
50.7136
50.7182
50.723
50.7278
50.7327
50.7376
50.7426
50.7477
50.7529
50.7582
50.7636
50.769
50.7745
50.7801
50.7858
50.7916
50.7976
50.8037
50.8098
50.8161
50.8224
50.8287
50.8351
50.8415
50.848
50.8545
50.861
50.8676
50.8743
50.8809
50.8876
50.8944
50.9015
50.9089
50.9168
50.9251
50.9338
50.9428
50.9521
50.961
50.9699