/*--------------------------------*- C++ -*----------------------------------*\
| =========                 |                                                 |
| \\      /  F ield         | OpenFOAM: The Open Source CFD Toolbox           |
|  \\    /   O peration     | Version:  3.0.x                                 |
|   \\  /    A nd           | Web:      www.OpenFOAM.org                      |
|    \\/     M anipulation  |                                                 |
\*---------------------------------------------------------------------------*/
FoamFile
{
    version     2.0;
    format      ascii;
    class       volScalarField;
    location    "0.42";
    object      T;
}
// * * * * * * * * * * * * * * * * * * * * * * * * * * * * * * * * * * * * * //

dimensions      [0 0 0 1 0 0 0];

internalField   nonuniform List<scalar> 
13800
(
773.272
773.272
773.272
773.272
773.272
773.272
773.272
773.272
773.272
773.272
773.272
773.272
773.272
773.272
773.272
773.271
773.271
773.271
773.271
773.271
773.271
773.271
773.271
773.271
773.271
773.271
773.271
773.271
773.271
773.271
773.271
773.271
773.271
773.271
773.271
773.271
773.272
773.272
773.272
773.272
773.272
773.271
773.27
773.269
773.268
773.268
773.267
773.267
773.267
773.267
773.267
773.267
773.268
773.268
773.268
773.268
773.267
773.267
773.267
773.266
773.266
773.266
773.265
773.264
773.263
773.262
773.261
773.26
773.26
773.259
773.259
773.259
773.259
773.26
773.26
773.26
773.26
773.26
773.26
773.259
773.258
773.258
773.257
773.256
773.256
773.255
773.255
773.255
773.255
773.255
773.254
773.254
773.254
773.254
773.254
773.254
773.254
773.254
773.254
773.254
773.254
773.254
773.254
773.254
773.254
773.254
773.254
773.254
773.254
773.254
773.254
773.254
773.254
773.254
773.254
773.254
773.255
773.255
773.255
773.255
773.255
773.255
773.255
773.255
773.255
773.255
773.255
773.255
773.255
773.255
773.255
773.255
773.255
773.255
773.255
773.255
773.255
773.255
773.255
773.255
773.255
773.255
773.255
773.255
773.255
773.255
773.255
773.255
773.255
773.255
773.255
773.255
773.255
773.255
773.255
773.255
773.255
773.255
773.255
773.256
773.256
773.256
773.256
773.256
773.256
773.256
773.257
773.257
773.257
773.257
773.258
773.258
773.258
773.259
773.259
773.26
773.26
773.261
773.261
773.262
773.263
773.263
773.264
773.265
773.266
773.267
773.268
773.269
773.27
773.271
773.273
773.274
773.276
773.277
773.279
773.281
773.283
773.294
773.3
773.504
773.26
773.26
773.26
773.26
773.26
773.26
773.26
773.26
773.26
773.26
773.26
773.26
773.26
773.26
773.26
773.26
773.26
773.26
773.26
773.26
773.26
773.26
773.26
773.26
773.26
773.26
773.26
773.26
773.26
773.26
773.26
773.26
773.26
773.26
773.26
773.26
773.261
773.261
773.261
773.261
773.261
773.261
773.26
773.259
773.258
773.257
773.257
773.257
773.257
773.257
773.257
773.257
773.258
773.258
773.258
773.258
773.257
773.257
773.257
773.257
773.256
773.256
773.256
773.255
773.254
773.253
773.252
773.251
773.25
773.25
773.25
773.25
773.25
773.251
773.251
773.251
773.251
773.251
773.251
773.251
773.25
773.249
773.248
773.248
773.247
773.247
773.247
773.247
773.246
773.246
773.246
773.246
773.246
773.246
773.246
773.246
773.246
773.246
773.246
773.246
773.246
773.246
773.246
773.246
773.246
773.247
773.247
773.247
773.247
773.247
773.247
773.247
773.247
773.247
773.247
773.247
773.247
773.247
773.247
773.247
773.247
773.247
773.247
773.247
773.247
773.247
773.247
773.247
773.247
773.247
773.247
773.247
773.247
773.247
773.247
773.247
773.247
773.247
773.247
773.247
773.247
773.247
773.247
773.247
773.247
773.247
773.247
773.247
773.247
773.247
773.247
773.247
773.247
773.247
773.247
773.247
773.247
773.247
773.248
773.248
773.248
773.248
773.248
773.248
773.248
773.249
773.249
773.249
773.249
773.249
773.25
773.25
773.25
773.251
773.251
773.252
773.252
773.253
773.253
773.254
773.255
773.255
773.256
773.257
773.258
773.259
773.26
773.261
773.262
773.263
773.265
773.266
773.268
773.269
773.271
773.273
773.275
773.286
773.291
773.526
773.26
773.26
773.26
773.26
773.26
773.26
773.26
773.26
773.26
773.26
773.26
773.26
773.26
773.26
773.26
773.26
773.26
773.26
773.26
773.26
773.26
773.26
773.26
773.26
773.26
773.26
773.26
773.26
773.26
773.26
773.26
773.26
773.26
773.26
773.26
773.26
773.261
773.261
773.261
773.261
773.261
773.261
773.26
773.259
773.258
773.257
773.257
773.257
773.257
773.257
773.257
773.257
773.258
773.258
773.258
773.258
773.257
773.257
773.257
773.257
773.256
773.256
773.256
773.255
773.254
773.253
773.252
773.251
773.25
773.25
773.25
773.25
773.25
773.251
773.251
773.251
773.251
773.251
773.251
773.251
773.25
773.249
773.248
773.248
773.247
773.247
773.247
773.247
773.246
773.246
773.246
773.246
773.246
773.246
773.246
773.246
773.246
773.246
773.246
773.246
773.246
773.246
773.246
773.246
773.246
773.246
773.246
773.247
773.247
773.247
773.247
773.247
773.247
773.247
773.247
773.247
773.247
773.247
773.247
773.247
773.247
773.247
773.247
773.247
773.247
773.247
773.247
773.247
773.247
773.247
773.247
773.247
773.247
773.247
773.247
773.247
773.247
773.247
773.247
773.247
773.247
773.247
773.247
773.247
773.247
773.247
773.247
773.247
773.247
773.247
773.247
773.247
773.247
773.247
773.247
773.247
773.247
773.247
773.248
773.248
773.248
773.248
773.248
773.248
773.248
773.249
773.249
773.249
773.249
773.249
773.25
773.25
773.25
773.251
773.251
773.252
773.252
773.253
773.253
773.254
773.255
773.255
773.256
773.257
773.258
773.259
773.26
773.261
773.262
773.263
773.265
773.266
773.268
773.269
773.271
773.273
773.275
773.286
773.291
773.519
773.26
773.26
773.26
773.26
773.26
773.26
773.26
773.26
773.26
773.26
773.26
773.26
773.26
773.26
773.26
773.26
773.26
773.26
773.26
773.26
773.26
773.26
773.26
773.26
773.26
773.26
773.26
773.26
773.26
773.26
773.26
773.26
773.26
773.26
773.26
773.26
773.261
773.261
773.261
773.261
773.261
773.261
773.26
773.259
773.258
773.257
773.257
773.257
773.257
773.257
773.257
773.257
773.258
773.258
773.258
773.258
773.257
773.257
773.257
773.257
773.257
773.256
773.256
773.255
773.254
773.253
773.252
773.251
773.25
773.25
773.25
773.25
773.25
773.251
773.251
773.251
773.251
773.251
773.251
773.251
773.25
773.249
773.248
773.248
773.247
773.247
773.247
773.247
773.246
773.246
773.246
773.246
773.246
773.246
773.246
773.246
773.246
773.246
773.246
773.246
773.246
773.246
773.246
773.246
773.246
773.246
773.246
773.247
773.247
773.247
773.247
773.247
773.247
773.247
773.247
773.247
773.247
773.247
773.247
773.247
773.247
773.247
773.247
773.247
773.247
773.247
773.247
773.247
773.247
773.247
773.247
773.247
773.247
773.247
773.247
773.247
773.247
773.247
773.247
773.247
773.247
773.247
773.247
773.247
773.247
773.247
773.247
773.247
773.247
773.247
773.247
773.247
773.247
773.247
773.247
773.247
773.247
773.247
773.248
773.248
773.248
773.248
773.248
773.248
773.248
773.249
773.249
773.249
773.249
773.249
773.25
773.25
773.25
773.251
773.251
773.252
773.252
773.253
773.253
773.254
773.255
773.255
773.256
773.257
773.258
773.259
773.26
773.261
773.262
773.263
773.265
773.266
773.268
773.269
773.271
773.273
773.275
773.284
773.29
773.461
773.26
773.26
773.26
773.26
773.26
773.26
773.26
773.26
773.26
773.26
773.26
773.26
773.26
773.26
773.26
773.26
773.26
773.26
773.26
773.26
773.26
773.26
773.26
773.26
773.26
773.26
773.26
773.26
773.26
773.26
773.26
773.26
773.26
773.26
773.26
773.26
773.261
773.261
773.261
773.261
773.261
773.261
773.26
773.259
773.258
773.257
773.257
773.257
773.257
773.257
773.257
773.257
773.258
773.258
773.258
773.258
773.257
773.257
773.257
773.257
773.257
773.256
773.256
773.255
773.254
773.253
773.252
773.251
773.25
773.25
773.25
773.25
773.25
773.251
773.251
773.251
773.251
773.251
773.251
773.251
773.25
773.249
773.248
773.248
773.247
773.247
773.247
773.247
773.246
773.246
773.246
773.246
773.246
773.246
773.246
773.246
773.246
773.246
773.246
773.246
773.246
773.246
773.246
773.246
773.246
773.246
773.246
773.247
773.247
773.247
773.247
773.247
773.247
773.247
773.247
773.247
773.247
773.247
773.247
773.247
773.247
773.247
773.247
773.247
773.247
773.247
773.247
773.247
773.247
773.247
773.247
773.247
773.247
773.247
773.247
773.247
773.247
773.247
773.247
773.247
773.247
773.247
773.247
773.247
773.247
773.247
773.247
773.247
773.247
773.247
773.247
773.247
773.247
773.247
773.247
773.247
773.247
773.247
773.248
773.248
773.248
773.248
773.248
773.248
773.248
773.249
773.249
773.249
773.249
773.249
773.25
773.25
773.25
773.251
773.251
773.252
773.252
773.253
773.253
773.254
773.255
773.255
773.256
773.257
773.258
773.259
773.26
773.261
773.262
773.263
773.265
773.266
773.268
773.269
773.271
773.273
773.275
773.281
773.282
773.395
773.26
773.26
773.26
773.26
773.26
773.26
773.26
773.26
773.26
773.26
773.26
773.26
773.26
773.26
773.26
773.26
773.26
773.26
773.26
773.26
773.26
773.26
773.26
773.26
773.26
773.26
773.26
773.26
773.26
773.26
773.26
773.26
773.26
773.26
773.26
773.26
773.261
773.261
773.261
773.261
773.261
773.261
773.26
773.259
773.258
773.257
773.257
773.257
773.257
773.257
773.257
773.257
773.258
773.258
773.258
773.258
773.257
773.257
773.257
773.257
773.257
773.256
773.256
773.255
773.254
773.253
773.252
773.251
773.25
773.25
773.25
773.25
773.25
773.251
773.251
773.251
773.251
773.251
773.251
773.251
773.25
773.249
773.248
773.248
773.247
773.247
773.247
773.247
773.246
773.246
773.246
773.246
773.246
773.246
773.246
773.246
773.246
773.246
773.246
773.246
773.246
773.246
773.246
773.246
773.246
773.246
773.246
773.247
773.247
773.247
773.247
773.247
773.247
773.247
773.247
773.247
773.247
773.247
773.247
773.247
773.247
773.247
773.247
773.247
773.247
773.247
773.247
773.247
773.247
773.247
773.247
773.247
773.247
773.247
773.247
773.247
773.247
773.247
773.247
773.247
773.247
773.247
773.247
773.247
773.247
773.247
773.247
773.247
773.247
773.247
773.247
773.247
773.247
773.247
773.247
773.247
773.247
773.247
773.248
773.248
773.248
773.248
773.248
773.248
773.248
773.249
773.249
773.249
773.249
773.249
773.25
773.25
773.25
773.251
773.251
773.252
773.252
773.253
773.253
773.254
773.255
773.255
773.256
773.257
773.258
773.259
773.26
773.261
773.262
773.263
773.265
773.266
773.268
773.269
773.271
773.273
773.275
773.275
773.273
773.246
773.26
773.26
773.26
773.26
773.26
773.26
773.26
773.26
773.26
773.26
773.26
773.26
773.26
773.26
773.26
773.26
773.26
773.26
773.26
773.26
773.26
773.26
773.26
773.26
773.26
773.26
773.26
773.26
773.26
773.26
773.26
773.26
773.26
773.26
773.26
773.26
773.261
773.261
773.261
773.261
773.261
773.261
773.26
773.259
773.258
773.257
773.257
773.257
773.257
773.257
773.257
773.257
773.258
773.258
773.258
773.258
773.257
773.257
773.257
773.257
773.257
773.256
773.256
773.255
773.254
773.253
773.252
773.251
773.25
773.25
773.25
773.25
773.25
773.251
773.251
773.251
773.251
773.251
773.251
773.251
773.25
773.249
773.248
773.248
773.247
773.247
773.247
773.247
773.246
773.246
773.246
773.246
773.246
773.246
773.246
773.246
773.246
773.246
773.246
773.246
773.246
773.246
773.246
773.246
773.246
773.246
773.246
773.247
773.247
773.247
773.247
773.247
773.247
773.247
773.247
773.247
773.247
773.247
773.247
773.247
773.247
773.247
773.247
773.247
773.247
773.247
773.247
773.247
773.247
773.247
773.247
773.247
773.247
773.247
773.247
773.247
773.247
773.247
773.247
773.247
773.247
773.247
773.247
773.247
773.247
773.247
773.247
773.247
773.247
773.247
773.247
773.247
773.247
773.247
773.247
773.247
773.247
773.247
773.248
773.248
773.248
773.248
773.248
773.248
773.248
773.249
773.249
773.249
773.249
773.249
773.25
773.25
773.25
773.251
773.251
773.252
773.252
773.253
773.253
773.254
773.255
773.255
773.256
773.257
773.258
773.259
773.26
773.261
773.262
773.263
773.265
773.266
773.268
773.269
773.271
773.273
773.274
773.267
773.267
773.051
773.26
773.26
773.26
773.26
773.26
773.26
773.26
773.26
773.26
773.26
773.26
773.26
773.26
773.26
773.26
773.26
773.26
773.26
773.26
773.26
773.26
773.26
773.26
773.26
773.26
773.26
773.26
773.26
773.26
773.26
773.26
773.26
773.26
773.26
773.26
773.26
773.261
773.261
773.261
773.261
773.261
773.261
773.26
773.259
773.258
773.257
773.257
773.257
773.257
773.257
773.257
773.257
773.258
773.258
773.258
773.258
773.257
773.257
773.257
773.257
773.256
773.256
773.256
773.255
773.254
773.253
773.252
773.251
773.25
773.25
773.25
773.25
773.25
773.251
773.251
773.251
773.251
773.251
773.251
773.251
773.25
773.249
773.248
773.248
773.247
773.247
773.247
773.247
773.246
773.246
773.246
773.246
773.246
773.246
773.246
773.246
773.246
773.246
773.246
773.246
773.246
773.246
773.246
773.246
773.246
773.246
773.246
773.247
773.247
773.247
773.247
773.247
773.247
773.247
773.247
773.247
773.247
773.247
773.247
773.247
773.247
773.247
773.247
773.247
773.247
773.247
773.247
773.247
773.247
773.247
773.247
773.247
773.247
773.247
773.247
773.247
773.247
773.247
773.247
773.247
773.247
773.247
773.247
773.247
773.247
773.247
773.247
773.247
773.247
773.247
773.247
773.247
773.247
773.247
773.247
773.247
773.247
773.247
773.248
773.248
773.248
773.248
773.248
773.248
773.248
773.249
773.249
773.249
773.249
773.249
773.25
773.25
773.25
773.251
773.251
773.252
773.252
773.253
773.253
773.254
773.255
773.255
773.256
773.257
773.258
773.259
773.26
773.261
773.262
773.263
773.265
773.266
773.268
773.269
773.271
773.273
773.274
773.262
773.286
772.768
773.26
773.26
773.26
773.26
773.26
773.26
773.26
773.26
773.26
773.26
773.26
773.26
773.26
773.26
773.26
773.26
773.26
773.26
773.26
773.26
773.26
773.26
773.26
773.26
773.26
773.26
773.26
773.26
773.26
773.26
773.26
773.26
773.26
773.26
773.26
773.26
773.261
773.261
773.261
773.261
773.261
773.261
773.26
773.259
773.258
773.257
773.257
773.257
773.257
773.257
773.257
773.257
773.258
773.258
773.258
773.258
773.257
773.257
773.257
773.257
773.256
773.256
773.256
773.255
773.254
773.253
773.252
773.251
773.25
773.25
773.25
773.25
773.25
773.251
773.251
773.251
773.251
773.251
773.251
773.251
773.25
773.249
773.248
773.248
773.247
773.247
773.247
773.247
773.246
773.246
773.246
773.246
773.246
773.246
773.246
773.246
773.246
773.246
773.246
773.246
773.246
773.246
773.246
773.246
773.246
773.247
773.247
773.247
773.247
773.247
773.247
773.247
773.247
773.247
773.247
773.247
773.247
773.247
773.247
773.247
773.247
773.247
773.247
773.247
773.247
773.247
773.247
773.247
773.247
773.247
773.247
773.247
773.247
773.247
773.247
773.247
773.247
773.247
773.247
773.247
773.247
773.247
773.247
773.247
773.247
773.247
773.247
773.247
773.247
773.247
773.247
773.247
773.247
773.247
773.247
773.247
773.247
773.247
773.248
773.248
773.248
773.248
773.248
773.248
773.248
773.249
773.249
773.249
773.249
773.249
773.25
773.25
773.25
773.251
773.251
773.252
773.252
773.253
773.253
773.254
773.255
773.255
773.256
773.257
773.258
773.259
773.26
773.261
773.262
773.263
773.265
773.266
773.268
773.269
773.271
773.273
773.275
773.26
773.3
772.628
773.272
773.272
773.272
773.272
773.272
773.272
773.272
773.272
773.272
773.272
773.272
773.272
773.272
773.272
773.272
773.271
773.271
773.271
773.271
773.271
773.271
773.271
773.271
773.271
773.271
773.271
773.271
773.271
773.271
773.271
773.271
773.271
773.271
773.271
773.271
773.271
773.272
773.272
773.272
773.272
773.272
773.271
773.27
773.269
773.268
773.268
773.267
773.267
773.267
773.267
773.267
773.267
773.268
773.268
773.268
773.268
773.267
773.267
773.267
773.266
773.266
773.266
773.265
773.264
773.263
773.262
773.261
773.26
773.26
773.259
773.259
773.259
773.259
773.26
773.26
773.26
773.26
773.26
773.26
773.259
773.258
773.258
773.257
773.256
773.256
773.255
773.255
773.255
773.255
773.255
773.254
773.254
773.254
773.254
773.254
773.254
773.254
773.254
773.254
773.254
773.254
773.254
773.254
773.254
773.254
773.254
773.254
773.254
773.254
773.254
773.254
773.254
773.254
773.254
773.254
773.254
773.255
773.255
773.255
773.255
773.255
773.255
773.255
773.255
773.255
773.255
773.255
773.255
773.255
773.255
773.255
773.255
773.255
773.255
773.255
773.255
773.255
773.255
773.255
773.255
773.255
773.255
773.255
773.255
773.255
773.255
773.255
773.255
773.255
773.255
773.255
773.255
773.255
773.255
773.255
773.255
773.255
773.255
773.255
773.256
773.256
773.256
773.256
773.256
773.256
773.256
773.257
773.257
773.257
773.257
773.258
773.258
773.258
773.259
773.259
773.26
773.26
773.261
773.261
773.262
773.263
773.263
773.264
773.265
773.266
773.267
773.268
773.269
773.27
773.271
773.273
773.274
773.276
773.277
773.279
773.281
773.283
773.267
773.322
772.502
773.469
773.506
773.531
773.539
773.544
773.548
773.55
773.552
773.554
773.555
773.556
773.556
773.555
773.554
773.551
773.545
773.536
773.523
773.5
773.455
773.46
773.487
773.501
773.506
773.508
773.509
773.51
773.51
773.51
773.509
773.509
773.508
773.507
773.504
773.501
773.495
773.487
773.473
773.451
773.41
773.458
773.485
773.503
773.508
773.512
773.514
773.516
773.518
773.518
773.518
773.517
773.516
773.513
773.509
773.503
773.495
773.484
773.467
773.442
773.404
773.413
773.428
773.434
773.435
773.437
773.439
773.442
773.444
773.447
773.451
773.455
773.459
773.463
773.467
773.47
773.471
773.467
773.459
773.441
773.416
773.362
773.38
773.395
773.405
773.412
773.417
773.418
773.415
773.413
773.407
773.399
773.389
773.377
773.363
773.349
773.334
773.32
773.306
773.295
773.286
773.26
773.252
773.239
773.228
773.22
773.216
773.216
773.219
773.224
773.233
773.244
773.258
773.276
773.293
773.312
773.331
773.351
773.366
773.384
773.389
773.138
773.127
773.127
773.131
773.132
773.127
773.124
773.114
773.104
773.088
773.073
773.053
773.036
773.016
773.002
772.987
772.985
772.989
773.007
773.023
772.972
772.926
772.884
772.861
772.849
772.842
772.84
772.841
772.849
772.862
772.879
772.901
772.928
772.958
772.991
773.023
773.07
773.105
773.164
773.214
772.863
772.816
772.772
772.74
772.72
772.7
772.687
772.674
772.667
772.66
772.66
772.663
772.672
772.686
772.704
772.725
772.754
772.796
772.852
772.926
772.804
772.739
772.664
772.636
772.615
772.613
772.621
772.631
772.647
772.671
772.694
772.731
772.762
772.808
772.847
772.894
772.945
773.005
773.082
773.166
773.328
773.287
773.278
773.278
773.279
773.281
773.284
773.287
773.291
773.294
773.297
773.301
773.304
773.308
773.312
773.317
773.321
773.326
773.33
773.335
773.339
773.344
773.348
773.353
773.359
773.364
773.37
773.375
773.381
773.387
773.393
773.4
773.406
773.413
773.42
773.427
773.435
773.442
773.449
773.457
773.464
773.472
773.48
773.488
773.497
773.506
773.515
773.524
773.533
773.542
773.551
773.561
773.571
773.581
773.591
773.601
773.612
773.623
773.633
773.644
773.655
773.667
773.679
773.691
773.704
773.716
773.729
773.742
773.755
773.768
773.781
773.795
773.808
773.822
773.836
773.85
773.865
773.879
773.894
773.909
773.925
773.94
773.956
773.972
773.989
774.005
774.021
774.038
774.055
774.073
774.09
774.108
774.126
774.144
774.162
774.18
774.198
774.217
774.236
774.255
774.273
774.291
774.307
774.322
774.338
774.354
774.372
774.391
774.411
774.43
774.446
774.463
774.489
774.545
774.698
775.121
775.716
776.295
776.813
777.238
777.551
777.753
777.855
777.881
777.863
777.712
777.201
776.565
776.037
775.625
775.328
775.134
775.025
774.979
774.968
774.97
774.985
775.028
775.08
775.127
775.17
775.209
775.245
775.279
775.313
775.345
775.377
775.409
775.44
775.472
775.503
775.535
775.567
775.599
775.63
775.663
775.695
775.727
775.76
775.793
775.826
775.859
775.892
775.926
775.96
775.994
776.028
776.063
776.097
776.132
776.167
776.202
776.238
776.273
776.309
776.345
776.382
776.418
776.455
776.492
776.529
776.566
776.604
776.64
776.681
776.714
776.758
776.79
776.835
776.867
776.914
776.944
776.993
777.021
777.073
777.099
777.153
777.175
777.253
776.933
773.297
773.26
773.251
773.252
773.253
773.255
773.258
773.261
773.264
773.268
773.271
773.275
773.278
773.282
773.286
773.29
773.295
773.299
773.304
773.308
773.313
773.317
773.322
773.327
773.332
773.337
773.343
773.348
773.354
773.36
773.366
773.373
773.379
773.386
773.393
773.4
773.407
773.415
773.422
773.43
773.437
773.445
773.453
773.461
773.469
773.478
773.487
773.496
773.505
773.514
773.524
773.533
773.543
773.553
773.563
773.574
773.584
773.595
773.606
773.617
773.628
773.639
773.651
773.663
773.675
773.688
773.701
773.714
773.727
773.74
773.753
773.767
773.78
773.794
773.808
773.822
773.837
773.851
773.866
773.881
773.896
773.912
773.928
773.944
773.96
773.977
773.993
774.01
774.027
774.044
774.062
774.08
774.098
774.116
774.135
774.153
774.172
774.191
774.21
774.228
774.247
774.265
774.283
774.302
774.321
774.34
774.361
774.383
774.403
774.42
774.431
774.436
774.434
774.427
774.425
774.427
774.432
774.442
774.454
774.479
774.537
774.659
774.799
774.931
775.043
775.13
775.19
775.223
775.234
775.231
775.202
775.139
775.093
775.073
775.07
775.071
775.078
775.097
775.123
775.152
775.182
775.213
775.244
775.276
775.307
775.339
775.37
775.401
775.433
775.464
775.496
775.527
775.559
775.591
775.623
775.655
775.687
775.72
775.752
775.785
775.818
775.851
775.885
775.918
775.952
775.986
776.02
776.055
776.089
776.124
776.159
776.194
776.23
776.266
776.301
776.338
776.374
776.41
776.447
776.484
776.521
776.558
776.596
776.632
776.673
776.706
776.75
776.782
776.828
776.859
776.906
776.936
776.985
777.014
777.065
777.092
777.145
777.168
777.24
776.982
773.301
773.266
773.257
773.257
773.258
773.26
773.263
773.266
773.269
773.272
773.276
773.279
773.283
773.286
773.29
773.295
773.299
773.304
773.308
773.313
773.317
773.322
773.327
773.332
773.337
773.342
773.347
773.353
773.359
773.365
773.371
773.377
773.384
773.39
773.397
773.404
773.412
773.419
773.427
773.434
773.442
773.45
773.457
773.465
773.474
773.483
773.491
773.501
773.51
773.519
773.528
773.538
773.548
773.558
773.568
773.578
773.589
773.599
773.61
773.621
773.633
773.644
773.655
773.667
773.68
773.692
773.705
773.718
773.731
773.744
773.758
773.771
773.785
773.798
773.812
773.827
773.841
773.856
773.87
773.885
773.901
773.916
773.932
773.948
773.965
773.981
773.998
774.014
774.032
774.049
774.067
774.084
774.103
774.121
774.139
774.158
774.177
774.196
774.215
774.234
774.253
774.272
774.29
774.309
774.327
774.346
774.366
774.388
774.41
774.431
774.447
774.455
774.455
774.442
774.398
774.355
774.333
774.329
774.331
774.336
774.347
774.369
774.422
774.524
774.638
774.746
774.84
774.917
774.976
775.02
775.051
775.069
775.078
775.083
775.089
775.094
775.105
775.121
775.142
775.165
775.192
775.22
775.249
775.279
775.309
775.34
775.371
775.402
775.433
775.464
775.496
775.527
775.559
775.591
775.623
775.655
775.687
775.72
775.752
775.785
775.818
775.851
775.885
775.918
775.952
775.986
776.02
776.055
776.089
776.124
776.159
776.194
776.23
776.266
776.301
776.337
776.374
776.41
776.447
776.484
776.521
776.558
776.596
776.632
776.673
776.706
776.75
776.782
776.828
776.859
776.906
776.936
776.985
777.014
777.065
777.092
777.145
777.168
777.233
777.056
773.345
773.321
773.32
773.321
773.324
773.327
773.331
773.334
773.337
773.34
773.344
773.347
773.351
773.355
773.359
773.363
773.367
773.372
773.376
773.381
773.386
773.39
773.395
773.4
773.405
773.411
773.416
773.422
773.427
773.433
773.439
773.445
773.452
773.459
773.466
773.473
773.48
773.488
773.495
773.503
773.51
773.518
773.526
773.534
773.543
773.551
773.56
773.569
773.578
773.587
773.597
773.606
773.616
773.626
773.636
773.647
773.657
773.668
773.678
773.689
773.7
773.712
773.724
773.736
773.749
773.761
773.774
773.786
773.799
773.813
773.826
773.839
773.853
773.867
773.881
773.895
773.909
773.924
773.938
773.954
773.969
773.985
774.001
774.016
774.033
774.049
774.066
774.082
774.099
774.117
774.134
774.151
774.168
774.186
774.204
774.222
774.241
774.259
774.277
774.293
774.31
774.327
774.344
774.361
774.379
774.399
774.42
774.442
774.46
774.474
774.481
774.482
774.474
774.456
774.451
774.451
774.455
774.466
774.478
774.492
774.52
774.564
774.618
774.676
774.731
774.782
774.828
774.869
774.904
774.934
774.961
774.983
775.004
775.024
775.044
775.066
775.09
775.115
775.141
775.168
775.197
775.226
775.255
775.285
775.314
775.345
775.375
775.405
775.436
775.467
775.498
775.529
775.56
775.592
775.624
775.655
775.688
775.72
775.752
775.785
775.818
775.851
775.885
775.918
775.952
775.986
776.02
776.055
776.089
776.124
776.159
776.194
776.23
776.266
776.301
776.338
776.374
776.41
776.447
776.484
776.521
776.558
776.596
776.632
776.673
776.707
776.75
776.783
776.825
776.862
776.903
776.938
776.985
777.013
777.065
777.092
777.144
777.169
777.223
777.188
773.26
773.252
773.246
773.242
773.241
773.243
773.244
773.247
773.25
773.253
773.256
773.26
773.264
773.267
773.271
773.275
773.279
773.284
773.288
773.293
773.298
773.303
773.308
773.313
773.318
773.323
773.329
773.334
773.34
773.346
773.352
773.358
773.365
773.371
773.378
773.385
773.392
773.399
773.407
773.415
773.422
773.43
773.439
773.447
773.455
773.464
773.472
773.481
773.49
773.499
773.509
773.519
773.529
773.539
773.549
773.559
773.57
773.58
773.591
773.603
773.614
773.625
773.637
773.649
773.661
773.673
773.686
773.698
773.711
773.725
773.738
773.752
773.765
773.779
773.794
773.808
773.822
773.837
773.852
773.867
773.883
773.898
773.914
773.93
773.946
773.963
773.98
773.997
774.014
774.031
774.049
774.067
774.085
774.104
774.122
774.141
774.161
774.18
774.2
774.221
774.241
774.262
774.282
774.302
774.322
774.344
774.365
774.386
774.408
774.43
774.453
774.476
774.495
774.511
774.523
774.533
774.545
774.558
774.573
774.589
774.61
774.634
774.664
774.696
774.729
774.763
774.796
774.829
774.86
774.889
774.918
774.946
774.974
775.002
775.029
775.057
775.085
775.113
775.142
775.17
775.199
775.228
775.257
775.287
775.317
775.346
775.376
775.407
775.437
775.468
775.499
775.53
775.561
775.592
775.624
775.656
775.688
775.72
775.753
775.785
775.818
775.851
775.885
775.918
775.952
775.986
776.02
776.055
776.089
776.124
776.159
776.194
776.23
776.266
776.301
776.338
776.374
776.41
776.447
776.484
776.521
776.558
776.596
776.633
776.67
776.71
776.745
776.787
776.823
776.862
776.903
776.939
776.982
777.018
777.06
777.099
777.136
777.182
777.211
777.254
773.411
773.427
773.439
773.449
773.456
773.461
773.465
773.468
773.472
773.475
773.479
773.482
773.486
773.49
773.493
773.497
773.502
773.506
773.511
773.516
773.521
773.526
773.53
773.535
773.541
773.546
773.551
773.557
773.562
773.568
773.574
773.58
773.587
773.593
773.6
773.607
773.615
773.622
773.63
773.637
773.645
773.653
773.661
773.669
773.677
773.686
773.695
773.703
773.712
773.722
773.731
773.74
773.75
773.76
773.77
773.78
773.791
773.801
773.812
773.823
773.834
773.846
773.858
773.87
773.882
773.894
773.906
773.919
773.932
773.945
773.958
773.971
773.984
773.998
774.011
774.025
774.039
774.052
774.066
774.08
774.095
774.109
774.124
774.138
774.153
774.167
774.181
774.195
774.21
774.225
774.24
774.255
774.271
774.286
774.3
774.314
774.327
774.34
774.354
774.369
774.385
774.401
774.42
774.439
774.459
774.477
774.493
774.503
774.509
774.511
774.51
774.506
774.506
774.508
774.513
774.522
774.535
774.55
774.566
774.584
774.605
774.632
774.663
774.696
774.731
774.766
774.801
774.834
774.866
774.897
774.927
774.956
774.985
775.013
775.04
775.068
775.096
775.123
775.151
775.179
775.207
775.235
775.263
775.292
775.321
775.35
775.38
775.409
775.439
775.47
775.5
775.531
775.562
775.593
775.625
775.656
775.688
775.72
775.753
775.786
775.818
775.852
775.885
775.918
775.952
775.986
776.02
776.055
776.089
776.124
776.159
776.195
776.23
776.266
776.301
776.338
776.374
776.41
776.447
776.484
776.52
776.559
776.595
776.634
776.669
776.711
776.745
776.788
776.821
776.866
776.898
776.945
776.975
777.025
777.053
777.105
777.133
777.187
777.217
777.294
773.108
773.134
773.139
773.139
773.141
773.142
773.145
773.148
773.151
773.155
773.158
773.161
773.165
773.169
773.173
773.177
773.181
773.185
773.19
773.194
773.199
773.203
773.208
773.214
773.219
773.225
773.23
773.236
773.242
773.248
773.254
773.26
773.266
773.273
773.28
773.287
773.294
773.301
773.309
773.316
773.324
773.332
773.34
773.348
773.356
773.365
773.374
773.383
773.392
773.402
773.411
773.421
773.43
773.44
773.45
773.461
773.472
773.483
773.494
773.505
773.517
773.528
773.54
773.552
773.564
773.576
773.589
773.602
773.615
773.628
773.641
773.655
773.669
773.683
773.696
773.711
773.725
773.739
773.754
773.769
773.785
773.8
773.816
773.832
773.848
773.864
773.881
773.898
773.915
773.932
773.95
773.968
773.986
774.005
774.023
774.042
774.06
774.079
774.099
774.119
774.139
774.16
774.18
774.201
774.223
774.246
774.27
774.293
774.313
774.334
774.357
774.383
774.411
774.44
774.469
774.499
774.526
774.549
774.566
774.578
774.589
774.601
774.61
774.623
774.644
774.676
774.716
774.761
774.805
774.848
774.889
774.927
774.962
774.996
775.028
775.059
775.089
775.119
775.148
775.177
775.205
775.234
775.263
775.292
775.321
775.35
775.38
775.41
775.44
775.47
775.5
775.531
775.562
775.593
775.625
775.656
775.688
775.721
775.753
775.786
775.818
775.852
775.885
775.918
775.952
775.986
776.02
776.055
776.089
776.124
776.159
776.195
776.23
776.266
776.301
776.338
776.374
776.41
776.447
776.484
776.52
776.559
776.595
776.634
776.669
776.711
776.745
776.788
776.821
776.866
776.898
776.945
776.976
777.024
777.054
777.105
777.133
777.189
777.223
777.313
773.391
773.429
773.442
773.448
773.452
773.455
773.458
773.461
773.464
773.467
773.471
773.474
773.478
773.482
773.485
773.489
773.493
773.498
773.502
773.507
773.512
773.517
773.522
773.527
773.533
773.538
773.543
773.549
773.554
773.56
773.566
773.572
773.578
773.584
773.591
773.598
773.605
773.613
773.621
773.628
773.636
773.644
773.652
773.66
773.668
773.677
773.686
773.695
773.704
773.713
773.722
773.732
773.741
773.751
773.76
773.771
773.781
773.791
773.801
773.811
773.821
773.832
773.843
773.854
773.866
773.878
773.89
773.903
773.916
773.929
773.942
773.956
773.97
773.984
773.998
774.012
774.026
774.04
774.055
774.07
774.085
774.1
774.115
774.13
774.145
774.16
774.176
774.191
774.206
774.22
774.233
774.246
774.26
774.273
774.287
774.301
774.316
774.332
774.349
774.367
774.385
774.404
774.423
774.443
774.464
774.485
774.504
774.518
774.527
774.53
774.529
774.525
774.518
774.517
774.519
774.522
774.53
774.542
774.556