/*--------------------------------*- C++ -*----------------------------------*\
| =========                 |                                                 |
| \\      /  F ield         | OpenFOAM: The Open Source CFD Toolbox           |
|  \\    /   O peration     | Version:  3.0.x                                 |
|   \\  /    A nd           | Web:      www.OpenFOAM.org                      |
|    \\/     M anipulation  |                                                 |
\*---------------------------------------------------------------------------*/
FoamFile
{
    version     2.0;
    format      ascii;
    class       surfaceScalarField;
    location    "0.28";
    object      phi;
}
// * * * * * * * * * * * * * * * * * * * * * * * * * * * * * * * * * * * * * //

dimensions      [1 0 -1 0 0 0 0];

internalField   nonuniform List<scalar> 
26210
(
3.90826
0.000503898
3.90793
0.000346028
3.9076
0.000339629
3.90727
0.000341261
3.90694
0.000341324
3.90661
0.000341228
3.90629
0.000341195
3.90596
0.000341237
3.90564
0.000341292
3.90531
0.000341269
3.90499
0.000341276
3.90466
0.000341276
3.90434
0.000341234
3.90401
0.000341264
3.90368
0.000341274
3.90335
0.000341228
3.90303
0.000341194
3.9027
0.000341193
3.90237
0.000341238
3.90205
0.000341202
3.90172
0.000341204
3.9014
0.000341207
3.90108
0.000341206
3.90075
0.000341203
3.90043
0.000341184
3.90011
0.000341143
3.89979
0.000341061
3.89947
0.000340913
3.89915
0.000340637
3.89882
0.00034024
3.8985
0.000339662
3.89818
0.000338656
3.89786
0.000337207
3.89755
0.000335295
3.89724
0.000332548
3.89694
0.000328716
3.89664
0.000323926
3.89636
0.000317742
3.89608
0.000310056
3.89581
0.000300738
3.89555
0.00028971
3.89531
0.00027695
3.89509
0.000262468
3.89488
0.000246807
3.8947
0.000229345
3.89454
0.000211211
3.8944
0.000192338
3.89428
0.000173171
3.89419
0.000154092
3.89412
0.000135468
3.89407
0.000117631
3.89405
0.000100866
3.89405
8.53968e-05
3.89407
7.13759e-05
3.89411
5.88773e-05
3.89416
4.79519e-05
3.89424
3.85451e-05
3.89432
3.05837e-05
3.89443
2.3955e-05
3.89454
1.85244e-05
3.89467
1.41446e-05
3.89481
1.06674e-05
3.89497
7.94834e-06
3.89513
5.85408e-06
3.8953
4.26502e-06
3.89548
3.07644e-06
3.89567
2.20069e-06
3.89587
1.56411e-06
3.89608
1.10826e-06
3.89629
7.86189e-07
3.89651
5.61675e-07
3.89674
4.07668e-07
3.89697
3.02796e-07
3.89721
2.331e-07
3.89745
1.86636e-07
3.89769
1.56357e-07
3.89794
1.36584e-07
3.89818
1.23226e-07
3.89843
1.14687e-07
3.89868
1.07793e-07
3.89892
1.03035e-07
3.89916
9.83891e-08
3.8994
9.4009e-08
3.89963
8.98181e-08
3.89985
8.4503e-08
3.90007
7.98609e-08
3.90027
7.35818e-08
3.90047
6.76337e-08
3.90065
6.08306e-08
3.90082
5.3391e-08
3.90098
4.65625e-08
3.90112
3.78095e-08
3.90125
3.0479e-08
3.90136
2.09002e-08
3.90145
1.17398e-08
3.90152
1.64437e-09
3.90158
-9.27685e-09
3.90161
-1.8892e-08
3.90162
-3.08683e-08
3.90162
-4.14257e-08
3.90159
-5.2798e-08
3.90154
-6.56146e-08
3.90146
-7.32434e-08
3.90137
-8.35316e-08
3.90126
-9.36743e-08
3.90112
-1.03679e-07
3.90096
-1.1345e-07
3.90079
-1.22938e-07
3.90059
-1.32073e-07
3.90038
-1.4079e-07
3.90015
-1.49044e-07
3.8999
-1.56793e-07
3.89963
-1.64007e-07
3.89935
-1.70632e-07
3.89906
-1.76646e-07
3.89875
-1.82023e-07
3.89843
-1.86741e-07
3.8981
-1.90794e-07
3.89777
-1.94173e-07
3.89742
-1.96873e-07
3.89706
-1.9891e-07
3.89671
-2.00278e-07
3.89634
-2.0098e-07
3.89597
-2.01038e-07
3.8956
-2.00467e-07
3.89523
-1.99278e-07
3.89486
-1.97513e-07
3.8945
-1.95181e-07
3.89413
-1.92314e-07
3.89377
-1.88935e-07
3.89341
-1.85068e-07
3.89306
-1.80764e-07
3.89271
-1.76042e-07
3.89237
-1.70963e-07
3.89204
-1.65634e-07
3.89171
-1.60166e-07
3.8914
-1.54607e-07
3.89109
-1.48895e-07
3.89079
-1.4298e-07
3.89051
-1.36806e-07
3.89023
-1.3036e-07
3.88996
-1.23695e-07
3.88971
-1.16848e-07
3.88946
-1.0998e-07
3.88923
-1.03188e-07
3.889
-9.65701e-08
3.88879
-9.01673e-08
3.88859
-8.39536e-08
3.8884
-7.79255e-08
3.88821
-7.2032e-08
3.88804
-6.62731e-08
3.88788
-6.06415e-08
3.88773
-5.51336e-08
3.88758
-4.97639e-08
3.88745
-4.45471e-08
3.88732
-3.94939e-08
3.88721
-3.4619e-08
3.8871
-2.99624e-08
3.887
-2.55241e-08
3.8869
-2.12494e-08
3.88681
-1.72658e-08
3.88673
-1.33841e-08
3.88666
-9.80799e-09
3.88659
-6.36282e-09
3.88653
-3.17232e-09
3.88647
-8.73115e-11
3.88642
2.67755e-09
3.88637
5.40604e-09
3.88632
7.79619e-09
3.88628
1.03028e-08
3.88625
1.23036e-08
3.88621
1.45665e-08
3.88618
1.61672e-08
3.88616
1.82299e-08
3.88613
1.95942e-08
3.88611
2.15514e-08
3.88609
2.22499e-08
3.88608
2.47455e-08
3.88606
2.47273e-08
3.88605
2.66264e-08
3.88604
2.79506e-08
3.88603
2.81689e-08
3.88603
3.15194e-08
3.88602
3.21525e-08
3.88602
2.28501e-08
3.88602
4.09491e-08
3.88602
2.52658e-08
3.88602
4.89745e-08
3.88602
4.08545e-08
3.88602
1.51198e-07
3.88602
4.69667e-07
3.88603
2.23509e-06
3.88602
1.0675e-05
3.88598
5.12739e-05
3.88574
0.000246667
3.88456
0.00118235
3.87901
0.00556273
3.85306
0.025963
3.72059
0.132483
0.503257
3.21734
5.5279
0.000460536
5.52794
0.000328464
5.52798
0.000314986
5.52802
0.000318524
5.52806
0.000318755
5.5281
0.000318588
5.52814
0.000318601
5.52818
0.000318687
5.52823
0.000318778
5.52828
0.000318802
5.52832
0.000318851
5.52837
0.000318892
5.52841
0.000318897
5.52845
0.000318963
5.52849
0.000319015
5.52853
0.000319014
5.52857
0.000319026
5.52861
0.000319069
5.52866
0.000319147
5.5287
0.000319157
5.52875
0.000319201
5.52879
0.000319246
5.52884
0.000319285
5.52888
0.000319325
5.52893
0.000319347
5.52898
0.000319349
5.52903
0.000319312
5.52908
0.00031921
5.52913
0.000318989
5.52918
0.000318645
5.52922
0.000318123
5.52927
0.0003172
5.52931
0.000315852
5.52937
0.000314047
5.52942
0.000311452
5.52948
0.000307827
5.52954
0.000303274
5.5296
0.000297402
5.52966
0.000290102
5.52973
0.000281256
5.52979
0.000270794
5.52986
0.000258704
5.52993
0.000244995
5.53001
0.000230185
5.53009
0.000213715
5.53017
0.000196621
5.53026
0.000178865
5.53035
0.000160863
5.53045
0.000142974
5.53055
0.000125542
5.53066
0.000108878
5.53078
9.32421e-05
5.5309
7.88399e-05
5.53104
6.58093e-05
5.53118
5.4214e-05
5.53133
4.40955e-05
5.53149
3.53983e-05
5.53166
2.80499e-05
5.53184
2.19416e-05
5.53203
1.69454e-05
5.53224
1.29225e-05
5.53245
9.7335e-06
5.53268
7.24374e-06
5.53292
5.32899e-06
5.53317
3.87828e-06
5.53343
2.79482e-06
5.5337
1.99766e-06
5.53398
1.41907e-06
5.53428
1.00536e-06
5.53458
7.13513e-07
5.53489
5.10399e-07
5.53521
3.71274e-07
5.53554
2.76705e-07
5.53588
2.13897e-07
5.53622
1.72053e-07
5.53656
1.44768e-07
5.53691
1.26935e-07
5.53726
1.14858e-07
5.5376
1.07106e-07
5.53795
1.00841e-07
5.5383
9.64501e-08
5.53864
9.21773e-08
5.53897
8.811e-08
5.5393
8.41865e-08
5.53961
7.92679e-08
5.53992
7.48969e-08
5.54021
6.9067e-08
5.54048
6.35009e-08
5.54074
5.71563e-08
5.54099
5.02387e-08
5.54121
4.38304e-08
5.54141
3.5725e-08
5.54159
2.88455e-08
5.54174
1.99598e-08
5.54187
1.13796e-08
5.54197
1.92995e-09
5.54205
-8.12906e-09
5.5421
-1.72004e-08
5.54211
-2.81743e-08
5.5421
-3.83116e-08
5.54206
-4.88108e-08
5.54199
-6.05905e-08
5.54189
-6.7872e-08
5.54175
-7.74562e-08
5.54159
-8.69295e-08
5.5414
-9.62737e-08
5.54118
-1.05405e-07
5.54093
-1.14263e-07
5.54065
-1.22804e-07
5.54035
-1.30951e-07
5.54002
-1.38663e-07
5.53967
-1.45898e-07
5.53929
-1.52644e-07
5.53889
-1.58829e-07
5.53848
-1.64448e-07
5.53804
-1.69479e-07
5.53759
-1.7389e-07
5.53712
-1.77677e-07
5.53664
-1.80846e-07
5.53615
-1.83367e-07
5.53565
-1.85284e-07
5.53514
-1.86572e-07
5.53463
-1.87236e-07
5.53411
-1.87303e-07
5.53358
-1.86777e-07
5.53306
-1.85681e-07
5.53254
-1.84051e-07
5.53201
-1.81881e-07
5.5315
-1.7922e-07
5.53098
-1.76073e-07
5.53047
-1.72475e-07
5.52997
-1.68455e-07
5.52948
-1.64058e-07
5.529
-1.59316e-07
5.52853
-1.54356e-07
5.52807
-1.49248e-07
5.52762
-1.44053e-07
5.52719
-1.38711e-07
5.52677
-1.33175e-07
5.52636
-1.27393e-07
5.52597
-1.21358e-07
5.52559
-1.15104e-07
5.52523
-1.08696e-07
5.52488
-1.02265e-07
5.52455
-9.59062e-08
5.52423
-8.97307e-08
5.52393
-8.3739e-08
5.52365
-7.79364e-08
5.52337
-7.22957e-08
5.52312
-6.6786e-08
5.52287
-6.14109e-08
5.52264
-5.61467e-08
5.52243
-5.10081e-08
5.52222
-4.59913e-08
5.52203
-4.11183e-08
5.52186
-3.6398e-08
5.52169
-3.18378e-08
5.52153
-2.74849e-08
5.52139
-2.33958e-08
5.52126
-1.93522e-08
5.52113
-1.57343e-08
5.52102
-1.20181e-08
5.52091
-8.74752e-09
5.52081
-5.48971e-09
5.52072
-2.57933e-09
5.52064
3.83807e-10
5.52056
2.87037e-09
5.5205
5.46788e-09
5.52043
7.55063e-09
5.52038
1.01354e-08
5.52032
1.17379e-08
5.52028
1.41463e-08
5.52023
1.52377e-08
5.5202
1.75187e-08
5.52016
1.84264e-08
5.52013
2.07983e-08
5.52011
2.04418e-08
5.52008
2.4329e-08
5.52006
2.26155e-08
5.52005
2.53094e-08
5.52003
2.7072e-08
5.52002
2.60061e-08
5.52001
3.22434e-08
5.52
3.56067e-08
5.52
8.2091e-09
5.51999
4.29518e-08
5.51999
2.0329e-08
5.51999
5.14738e-08
5.51999
6.66187e-08
5.52
3.11789e-07
5.52
1.08396e-06
5.52
5.34065e-06
5.52
2.57251e-05
5.51993
0.000123637
5.5196
0.000595108
5.51794
0.00285309
5.51008
0.013434
5.47334
0.0627199
5.29058
0.315261
1.1644
4.62945
7.81763
0.000402747
7.81769
0.00030096
7.81775
0.000280813
7.8178
0.000285962
7.81785
0.000286433
7.81791
0.000286143
7.81797
0.000286161
7.81803
0.000286249
7.8181
0.000286331
7.81817
0.000286356
7.81823
0.000286402
7.8183
0.00028644
7.81836
0.00028645
7.81842
0.000286505
7.81847
0.000286552
7.81853
0.000286553
7.81859
0.000286565
7.81865
0.000286607
7.81871
0.00028667
7.81878
0.000286683
7.81884
0.000286723
7.81891
0.000286763
7.81897
0.000286798
7.81904
0.000286836
7.81911
0.000286855
7.81919
0.000286858
7.81926
0.000286825
7.81933
0.000286735
7.8194
0.000286541
7.81946
0.000286234
7.81953
0.000285765
7.81959
0.000284947
7.81967
0.000283748
7.81974
0.000282131
7.81982
0.000279818
7.8199
0.000276586
7.81999
0.000272515
7.82008
0.00026727
7.82017
0.000260743
7.82026
0.000252831
7.82035
0.000243469
7.82045
0.000232649
7.82055
0.000220368
7.82066
0.000207092
7.82077
0.000192337
7.82088
0.000176999
7.82101
0.000161067
7.82113
0.000144905
7.82127
0.000128837
7.82142
0.000113171
7.82157
9.81871e-05
7.82174
8.4121e-05
7.82191
7.11577e-05
7.8221
5.94227e-05
7.8223
4.89752e-05
7.82251
3.98527e-05
7.82274
3.20077e-05
7.82298
2.53755e-05
7.82323
1.98595e-05
7.8235
1.53451e-05
7.82379
1.17081e-05
7.82409
8.82336e-06
7.82441
6.56979e-06
7.82475
4.83564e-06
7.8251
3.52097e-06
7.82547
2.53852e-06
7.82586
1.81519e-06
7.82626
1.2899e-06
7.82667
9.14067e-07
7.8271
6.48759e-07
7.82754
4.64005e-07
7.828
3.37313e-07
7.82846
2.51172e-07
7.82893
1.93875e-07
7.82941
1.55713e-07
7.8299
1.30792e-07
7.83039
1.14502e-07
7.83089
1.03498e-07
7.83138
9.63873e-08
7.83187
9.07257e-08
7.83236
8.67003e-08
7.83284
8.28504e-08
7.83331
7.9187e-08
7.83377
7.56254e-08
7.83422
7.12416e-08
7.83465
6.72617e-08
7.83506
6.20685e-08
7.83545
5.70399e-08
7.83582
5.13401e-08
7.83616
4.51555e-08
7.83647
3.93429e-08
7.83676
3.21324e-08
7.83701
2.58869e-08
7.83723
1.79934e-08
7.83741
1.01736e-08
7.83756
1.62436e-09
7.83766
-7.21684e-09
7.83773
-1.55087e-08
7.83776
-2.5153e-08
7.83774
-3.45808e-08
7.83768
-4.3894e-08
7.83758
-5.42677e-08
7.83743
-6.10025e-08
7.83724
-6.95754e-08
7.83701
-7.80901e-08
7.83674
-8.64784e-08
7.83643
-9.4682e-08
7.83608
-1.02643e-07
7.83569
-1.10312e-07
7.83526
-1.17627e-07
7.83479
-1.2456e-07
7.83429
-1.31056e-07
7.83376
-1.37111e-07
7.8332
-1.42667e-07
7.83261
-1.47719e-07
7.832
-1.52235e-07
7.83136
-1.56199e-07
7.8307
-1.59604e-07
7.83002
-1.62447e-07
7.82933
-1.64712e-07
7.82862
-1.6643e-07
7.8279
-1.67592e-07
7.82717
-1.68188e-07
7.82643
-1.68245e-07
7.82569
-1.67769e-07
7.82495
-1.6679e-07
7.82421
-1.65328e-07
7.82347
-1.63379e-07
7.82274
-1.6099e-07
7.82201
-1.5816e-07
7.82129
-1.54924e-07
7.82059
-1.51315e-07
7.81989
-1.47372e-07
7.81921
-1.4311e-07
7.81855
-1.38652e-07
7.8179
-1.3407e-07
7.81726
-1.29399e-07
7.81665
-1.24602e-07
7.81605
-1.19627e-07
7.81548
-1.14425e-07
7.81492
-1.09008e-07
7.81439
-1.0339e-07
7.81388
-9.76379e-08
7.81339
-9.18617e-08
7.81292
-8.61482e-08
7.81247
-8.06012e-08
7.81204
-7.52198e-08
7.81164
-7.00084e-08
7.81125
-6.49434e-08
7.81089
-5.99903e-08
7.81054
-5.51645e-08
7.81022
-5.04324e-08
7.80991
-4.58149e-08
7.80963
-4.1312e-08
7.80936
-3.69419e-08
7.80911
-3.27e-08
7.80887
-2.85763e-08
7.80865
-2.46464e-08
7.80845
-2.10566e-08
7.80826
-1.73341e-08
7.80808
-1.42263e-08
7.80792
-1.07548e-08
7.80777
-7.90533e-09
7.80763
-4.89308e-09
7.8075
-2.36105e-09
7.80739
4.502e-10
7.80728
2.52749e-09
7.80718
4.95947e-09
7.80709
6.61385e-09
7.80701
9.32596e-09
7.80694
1.03564e-08
7.80687
1.30058e-08
7.80681
1.33577e-08
7.80676
1.59862e-08
7.80671
1.61972e-08
7.80667
1.92204e-08
7.80663
1.7335e-08
7.8066
2.32139e-08
7.80657
1.91085e-08
7.80655
2.29338e-08
7.80652
2.52458e-08
7.80651
2.25045e-08
7.80649
3.24562e-08
7.80648
4.03506e-08
7.80648
-1.33205e-08
7.80647
4.09818e-08
7.80647
1.6722e-08
7.80647
3.31802e-08
7.80647
1.22389e-07
7.80648
5.33066e-07
7.80648
1.92626e-06
7.80649
9.60818e-06
7.80648
4.64137e-05
7.80639
0.000223091
7.80593
0.0010741
7.80365
0.00515059
7.79283
0.0242674
7.74237
0.113206
7.49526
0.562394
2.03399
6.6257
34.5087
0.000186245
34.5089
0.000157103
34.5092
0.000139034
34.5094
0.000142525
34.5097
0.000143561
34.5099
0.000143233
34.5102
0.000143155
34.5104
0.000143188
34.5107
0.000143212
34.511
0.000143217
34.5113
0.000143232
34.5116
0.000143245
34.5119
0.00014325
34.5121
0.000143269
34.5124
0.000143289
34.5126
0.000143289
34.5129
0.000143294
34.5132
0.000143318
34.5134
0.000143338
34.5137
0.000143348
34.514
0.000143367
34.5143
0.000143387
34.5146
0.000143402
34.5149
0.000143423
34.5152
0.000143432
34.5155
0.000143434
34.5158
0.000143418
34.5162
0.000143375
34.5165
0.000143287
34.5168
0.000143135
34.517
0.000142902
34.5173
0.000142509
34.5176
0.000141928
34.518
0.00014113
34.5183
0.00014
34.5187
0.000138421
34.5191
0.000136414
34.5195
0.000133833
34.5199
0.000130613
34.5203
0.000126703
34.5207
0.00012207
34.5211
0.000116709
34.5216
0.000110608
34.522
0.000104002
34.5225
9.66679e-05
34.523
8.90143e-05
34.5236
8.10615e-05
34.5241
7.2982e-05
34.5248
6.49392e-05
34.5254
5.70881e-05
34.5261
4.95694e-05
34.5268
4.25028e-05
34.5276
3.59825e-05
34.5284
3.00732e-05
34.5293
2.48068e-05
34.5302
2.02025e-05
34.5312
1.62391e-05
34.5323
1.28848e-05
34.5334
1.00922e-05
34.5346
7.80432e-06
34.5359
5.95929e-06
34.5372
4.49441e-06
34.5386
3.34898e-06
34.5401
2.46673e-06
34.5417
1.79725e-06
34.5433
1.29654e-06
34.545
9.27523e-07
34.5468
6.5938e-07
34.5486
4.67219e-07
34.5505
3.31461e-07
34.5524
2.36776e-07
34.5544
1.71809e-07
34.5565
1.27752e-07
34.5586
9.83887e-08
34.5607
7.88791e-08
34.5629
6.60943e-08
34.565
5.77147e-08
34.5672
5.20795e-08
34.5694
4.83788e-08
34.5715
4.55125e-08
34.5737
4.34129e-08
34.5758
4.14834e-08
34.5779
3.9623e-08
34.5799
3.78159e-08
34.5819
3.56481e-08
34.5838
3.36113e-08
34.5856
3.10606e-08
34.5874
2.85045e-08
34.589
2.56832e-08
34.5905
2.25837e-08
34.5919
1.96464e-08
34.5931
1.60867e-08
34.5942
1.2903e-08
34.5952
9.07903e-09
34.596
5.1291e-09
34.5966
7.51697e-10
34.5971
-3.61115e-09
34.5974
-7.8162e-09
34.5975
-1.24328e-08
34.5975
-1.74737e-08
34.5972
-2.20139e-08
34.5967
-2.69474e-08
34.5961
-3.05331e-08
34.5953
-3.47918e-08
34.5943
-3.90482e-08
34.5931
-4.32415e-08
34.5917
-4.73424e-08
34.5901
-5.13237e-08
34.5884
-5.51581e-08
34.5865
-5.88166e-08
34.5844
-6.22817e-08
34.5822
-6.55291e-08
34.5799
-6.85573e-08
34.5774
-7.13358e-08
34.5748
-7.38628e-08
34.5721
-7.61188e-08
34.5693
-7.80983e-08
34.5664
-7.98022e-08
34.5634
-8.12238e-08
34.5603
-8.23557e-08
34.5572
-8.32165e-08
34.554
-8.37977e-08
34.5508
-8.4096e-08
34.5475
-8.41233e-08
34.5443
-8.38841e-08
34.541
-8.33943e-08
34.5377
-8.26649e-08
34.5345
-8.16904e-08
34.5312
-8.04935e-08
34.528
-7.90819e-08
34.5249
-7.7463e-08
34.5217
-7.56577e-08
34.5187
-7.36859e-08
34.5157
-7.1555e-08
34.5127
-6.93271e-08
34.5099
-6.70339e-08
34.5071
-6.47001e-08
34.5044
-6.22999e-08
34.5017
-5.98138e-08
34.4992
-5.72104e-08
34.4967
-5.4506e-08
34.4944
-5.16934e-08
34.4921
-4.8818e-08
34.49
-4.59299e-08
34.4879
-4.30764e-08
34.4859
-4.03024e-08
34.484
-3.76126e-08
34.4822
-3.50042e-08
34.4805
-3.24694e-08
34.4789
-2.99933e-08
34.4774
-2.7585e-08
34.476
-2.52135e-08
34.4746
-2.29015e-08
34.4734
-2.06801e-08
34.4722
-1.84937e-08
34.4711
-1.63745e-08
34.47
-1.41781e-08
34.4691
-1.21549e-08
34.4682
-1.06925e-08
34.4673
-8.48195e-09
34.4665
-7.49878e-09
34.4658
-5.19231e-09
34.4652
-4.06317e-09
34.4646
-2.36469e-09
34.464
-1.38925e-09
34.4635
5.45242e-10
34.463
1.13278e-09
34.4626
2.68892e-09
34.4622
2.58478e-09
34.4618
5.6757e-09
34.4615
4.30191e-09
34.4612
7.88441e-09
34.4609
5.33464e-09
34.4607
8.87485e-09
34.4605
6.99401e-09
34.4603
1.14296e-08
34.4601
4.10182e-09
34.46
1.82681e-08
34.4599
3.35058e-09
34.4598
1.20344e-08
34.4597
1.91999e-08
34.4596
1.76124e-09
34.4595
3.90955e-08
34.4595
6.07893e-08
34.4594
-1.11362e-07
34.4594
6.22667e-08
34.4594
-2.23476e-08
34.4594
1.01824e-07
34.4594
1.84027e-07
34.4595
1.44567e-06
34.4595
5.16315e-06
34.4595
2.62946e-05
34.4595
0.000127261
34.4591
0.000612067
34.4573
0.00294836
34.4484
0.0141375
34.4062
0.0665306
34.2131
0.3064
33.393
1.38268
4.88094
30.5461
34.5086
-1.36424e-12
34.5089
4.54747e-13
34.5092
5.00222e-12
34.5094
4.09273e-12
34.5096
-1.36424e-12
34.5099
9.09495e-13
34.5101
4.54747e-13
34.5104
4.54747e-13
34.5107
-9.09495e-13
34.511
1.36424e-12
34.5113
0
34.5116
-4.54747e-13
34.5119
0
34.5121
-9.09495e-13
34.5124
-9.09495e-13
34.5126
1.36424e-12
34.5129
-9.09495e-13
34.5131
-3.18323e-12
34.5134
9.09495e-13
34.5137
-1.81899e-12
34.514
0
34.5143
-1.81899e-12
34.5146
-4.54747e-13
34.5149
-1.36424e-12
34.5152
-9.09495e-13
34.5155
-2.72848e-12
34.5158
-1.36424e-12
34.5161
-1.36424e-12
34.5164
-9.09495e-13
34.5167
1.36424e-12
34.517
-4.54747e-13
34.5173
-2.27374e-12
34.5176
-1.36424e-12
34.518
0
34.5183
0
34.5187
0
34.5191
2.72848e-12
34.5195
4.54747e-13
34.5199
-9.09495e-13
34.5203
-9.09495e-13
34.5207
1.36424e-12
34.5211
1.81899e-12
34.5216
-1.36424e-12
34.522
-1.36424e-12
34.5225
-2.72848e-12
34.523
-9.09495e-13
34.5236
4.54747e-13
34.5241
-1.81899e-12
34.5247
-1.36424e-12
34.5254
-2.27374e-12
34.5261
-1.36424e-12
34.5268
-3.63798e-12
34.5276
-3.18323e-12
34.5284
-4.54747e-13
34.5293
1.36424e-12
34.5302
4.54747e-13
34.5312
0
34.5323
-4.54747e-12
34.5334
-2.72848e-12
34.5346
-2.72848e-12
34.5359
2.27374e-12
34.5372
1.81899e-12
34.5386
1.81899e-12
34.5401
9.09495e-13
34.5417
2.27374e-12
34.5433
1.81899e-12
34.545
1.36424e-12
34.5468
-4.54747e-13
34.5486
-9.09495e-13
34.5505
-3.63798e-12
34.5524
0
34.5544
-9.09495e-13
34.5565
-9.09495e-13
34.5586
4.54747e-13
34.5607
-9.09495e-13
34.5629
2.27374e-12
34.565
4.54747e-13
34.5672
2.72848e-12
34.5694
9.09495e-13
34.5715
-3.18323e-12
34.5737
-2.72848e-12
34.5758
-1.81899e-12
34.5779
-4.54747e-13
34.5799
-3.18323e-12
34.5819
-1.36424e-12
34.5838
-1.36424e-12
34.5856
-4.54747e-13
34.5874
-4.54747e-13
34.589
9.09495e-13
34.5905
0
34.5919
0
34.5931
-4.54747e-13
34.5942
-1.81899e-12
34.5952
-2.72848e-12
34.596
-3.18323e-12
34.5966
-4.54747e-13
34.5971
-2.27374e-12
34.5974
-9.09495e-13
34.5975
2.27374e-12
34.5975
0
34.5972
-9.09495e-13
34.5967
-1.36424e-12
34.5961
-1.36424e-12
34.5953
9.09495e-13
34.5943
-9.09495e-13
34.5931
-1.81899e-12
34.5917
-2.27374e-12
34.5901
-2.72848e-12
34.5884
-2.72848e-12
34.5865
-3.63798e-12
34.5844
-2.72848e-12
34.5822
9.09495e-13
34.5799
-1.36424e-12
34.5774
0
34.5748
-4.54747e-13
34.5721
1.36424e-12
34.5693
1.81899e-12
34.5664
1.36424e-12
34.5634
1.81899e-12
34.5603
2.72848e-12
34.5572
0
34.554
-9.09495e-13
34.5508
-1.81899e-12
34.5475
-1.81899e-12
34.5443
1.81899e-12
34.541
1.81899e-12
34.5377
-4.54747e-13
34.5345
9.09495e-13
34.5312
1.81899e-12
34.528
-2.72848e-12
34.5249
-1.81899e-12
34.5217
1.81899e-12
34.5187
-4.54747e-12
34.5157
-4.54747e-13
34.5127
-1.36424e-12
34.5099
-9.09495e-13
34.5071
-3.18323e-12
34.5044
-3.18323e-12
34.5017
-1.36424e-12
34.4992
-4.54747e-13
34.4967
-4.09273e-12
34.4944
-4.54747e-13
34.4921
1.81899e-12
34.49
1.81899e-12
34.4879
0
34.4859
-3.18323e-12
34.484
-2.72848e-12
34.4822
-1.36424e-12
34.4805
-3.18323e-12
34.4789
1.81899e-12
34.4774
-5.45697e-12
34.476
-1.36424e-12
34.4746
7.7307e-12
34.4734
-3.81988e-11
34.4722
-5.50244e-11
34.4711
-2.27374e-11
34.47
1.09594e-10
34.4691
4.08363e-10
34.4682
-4.48836e-10
34.4673
6.02995e-10
34.4665
-9.69521e-10
34.4658
5.51609e-10
34.4652
-5.02041e-10
34.4646
4.23825e-10
34.464
-4.95675e-10
34.4635
1.02227e-09
34.463
-1.03819e-09
34.4626
1.41381e-09
34.4622
-2.49292e-09
34.4618
3.23553e-09
34.4615
-3.60933e-09
34.4612
5.11454e-09
34.4609
-6.0304e-09
34.4607
6.41739e-09
34.4605
-8.14225e-09
34.4603
9.72113e-09
34.4601
-1.22291e-08
34.46
1.15938e-08
34.4599
-6.95491e-09
34.4598
9.06766e-10
34.4597
1.64755e-09
34.4596
1.5697e-08
34.4595
-2.24532e-08
34.4595
-2.40661e-08
34.4594
7.37887e-08
34.4594
-1.12962e-07
34.4594
1.48921e-07
34.4594
-1.21326e-07
34.4594
5.12764e-07
34.4595
1.3596e-06
34.4595
6.81655e-06
34.4595
3.23924e-05
34.4595
0.000157977
34.4594
0.000761787
34.4588
0.00367766
34.4553
0.0177054
34.4377
0.0841882
34.35
0.394249
33.9186
1.8141
6.49408
32.3056
34.5086
-0.000186245
34.5089
-0.000157103
34.5092
-0.000139034
34.5094
-0.000142525
34.5096
-0.000143561
34.5099
-0.000143233
34.5101
-0.000143155
34.5104
-0.000143188
34.5107
-0.000143212
34.511
-0.000143217
34.5113
-0.000143232
34.5116
-0.000143245
34.5119
-0.00014325
34.5121
-0.000143269
34.5124
-0.000143289
34.5126
-0.000143289
34.5129
-0.000143294
34.5131
-0.000143318
34.5134
-0.000143338
34.5137
-0.000143348
34.514
-0.000143367
34.5143
-0.000143387
34.5146
-0.000143402
34.5149
-0.000143423
34.5152
-0.000143432
34.5155
-0.000143434
34.5158
-0.000143418
34.5161
-0.000143375
34.5164
-0.000143287
34.5167
-0.000143135
34.517
-0.000142902
34.5173
-0.000142509
34.5176
-0.000141928
34.518
-0.00014113
34.5183
-0.00014
34.5187
-0.000138421
34.5191
-0.000136414
34.5195
-0.000133833
34.5199
-0.000130613
34.5203
-0.000126703
34.5207
-0.00012207
34.5211
-0.000116709
34.5216
-0.000110608
34.522
-0.000104002
34.5225
-9.66679e-05
34.523
-8.90143e-05
34.5236
-8.10615e-05
34.5241
-7.2982e-05
34.5247
-6.49392e-05
34.5254
-5.70881e-05
34.5261
-4.95694e-05
34.5268
-4.25028e-05
34.5276
-3.59825e-05
34.5284
-3.00732e-05
34.5293
-2.48068e-05
34.5302
-2.02025e-05
34.5312
-1.62391e-05
34.5323
-1.28848e-05
34.5334
-1.00922e-05
34.5346
-7.80432e-06
34.5359
-5.95929e-06
34.5372
-4.4944e-06
34.5386
-3.34898e-06
34.5401
-2.46673e-06
34.5417
-1.79725e-06
34.5433
-1.29653e-06
34.545
-9.27522e-07
34.5468
-6.59383e-07
34.5486
-4.67222e-07
34.5505
-3.31469e-07
34.5524
-2.36776e-07
34.5544
-1.71813e-07
34.5565
-1.27753e-07
34.5586
-9.83878e-08
34.5607
-7.888e-08
34.5629
-6.60871e-08
34.565
-5.77134e-08
34.5672
-5.20736e-08
34.5694
-4.83783e-08
34.5715
-4.55175e-08
34.5737
-4.34165e-08
34.5758
-4.1488e-08
34.5779
-3.9623e-08
34.5799
-3.78232e-08
34.5819
-3.56522e-08
34.5838
-3.36149e-08
34.5856
-3.10615e-08
34.5874
-2.85017e-08
34.589
-2.56823e-08
34.5905
-2.25832e-08
34.5919
-1.96455e-08
34.5931
-1.60908e-08
34.5942
-1.29089e-08
34.5952
-9.08585e-09
34.596
-5.1391e-09
34.5966
-7.53062e-10
34.5971
3.60751e-09
34.5974
7.81347e-09
34.5975
1.24369e-08
34.5975
1.74737e-08
34.5972
2.20134e-08
34.5967
2.69465e-08
34.5961
3.0534e-08
34.5953
3.47909e-08
34.5943
3.90478e-08
34.5931
4.32378e-08
34.5917
4.73392e-08
34.5901
5.13187e-08
34.5884
5.51545e-08
34.5865
5.88093e-08
34.5844
6.22758e-08
34.5822
6.55318e-08
34.5799
6.85532e-08
34.5774
7.13358e-08
34.5748
7.38614e-08
34.5721
7.6122e-08
34.5693
7.81024e-08
34.5664
7.98041e-08
34.5634
8.12261e-08
34.5603
8.23647e-08
34.5572
8.3216e-08
34.554
8.3794e-08
34.5508
8.40928e-08
34.5475
8.41214e-08
34.5443
8.389e-08
34.541
8.33979e-08
34.5377
8.26631e-08
34.5345
8.16922e-08
34.5312
8.04962e-08
34.528
7.90778e-08
34.5249
7.74594e-08
34.5217
7.56581e-08
34.5187
7.3675e-08
34.5157
7.1554e-08
34.5127
6.93253e-08
34.5099
6.70343e-08
34.5071
6.46942e-08
34.5044
6.22949e-08
34.5017
5.98097e-08
34.4992
5.7209e-08
34.4967
5.44978e-08
34.4944
5.16911e-08
34.4921
4.88221e-08
34.49
4.59331e-08
34.4879
4.30773e-08
34.4859
4.02915e-08
34.484
3.76062e-08
34.4822
3.5001e-08
34.4805
3.24644e-08
34.4789
2.99956e-08
34.4774
2.75768e-08
34.476
2.52116e-08
34.4746
2.29138e-08
34.4734
2.06096e-08
34.4722
1.84273e-08
34.4711
1.63359e-08
34.47
1.44132e-08
34.4691
1.26556e-08
34.4682
1.01541e-08
34.4673
9.12996e-09
34.4665
6.34873e-09
34.4658
5.79485e-09
34.4652
3.37559e-09
34.4646
2.89174e-09
34.464
6.8394e-10
34.4635
8.88122e-10
34.463
-2.20416e-09
34.4626
-1.79398e-09
34.4622
-4.95857e-09
34.4618
-2.17733e-09
34.4615
-8.09496e-09
34.4612
-2.01953e-09
34.4609
-1.2174e-08
34.4607
-1.71485e-09
34.4605
-1.59498e-08
34.4603
-3.66981e-10
34.4601
-2.00339e-08
34.46
8.81755e-10
34.4599
-2.24272e-08
34.4598
-1.85537e-09
34.4597
-1.66388e-08
34.4596
-9.93168e-10
34.4595
-2.58619e-08
34.4595
-4.02279e-08
34.4594
4.55179e-08
34.4594
-4.55452e-08
34.4594
3.59109e-08
34.4594
-2.47987e-08
34.4594
3.01904e-07
34.4595
1.05349e-06
34.4595
5.50286e-06
34.4595
2.63231e-05
34.4596
0.000127046
34.4598
0.000616612
34.4606
0.00299135
34.4638
0.0145736
34.4778
0.0702878
34.53
0.342154
34.6042
1.73999
5.9344
35.164
34.5087
-0.000402747
34.5089
-0.00030096
34.5092
-0.000280813
34.5094
-0.000285962
34.5097
-0.000286433
34.5099
-0.000286143
34.5102
-0.000286161
34.5104
-0.000286249
34.5107
-0.000286331
34.511
-0.000286356
34.5113
-0.000286402
34.5116
-0.00028644
34.5119
-0.00028645
34.5121
-0.000286505
34.5124
-0.000286552
34.5126
-0.000286553
34.5129
-0.000286565
34.5132
-0.000286607
34.5134
-0.00028667
34.5137
-0.000286683
34.514
-0.000286723
34.5143
-0.000286763
34.5146
-0.000286798
34.5149
-0.000286836
34.5152
-0.000286855
34.5155
-0.000286858
34.5158
-0.000286825
34.5162
-0.000286735
34.5165
-0.000286541
34.5168
-0.000286234
34.517
-0.000285765
34.5173
-0.000284947
34.5176
-0.000283748
34.518
-0.000282131
34.5183
-0.000279818
34.5187
-0.000276586
34.5191
-0.000272515
34.5195
-0.00026727
34.5199
-0.000260743
34.5203
-0.000252831
34.5207
-0.000243469
34.5211
-0.000232649
34.5216
-0.000220368
34.522
-0.000207092
34.5225
-0.000192337
34.523
-0.000176999
34.5236
-0.000161067
34.5241
-0.000144905
34.5248
-0.000128837
34.5254
-0.000113171
34.5261
-9.81871e-05
34.5268
-8.4121e-05
34.5276
-7.11577e-05
34.5284
-5.94227e-05
34.5293
-4.89752e-05
34.5302
-3.98527e-05
34.5312
-3.20077e-05
34.5323
-2.53755e-05
34.5334
-1.98595e-05
34.5346
-1.53451e-05
34.5359
-1.17081e-05
34.5372
-8.82336e-06
34.5386
-6.56979e-06
34.5401
-4.83564e-06
34.5417
-3.52096e-06
34.5433
-2.53851e-06
34.545
-1.81519e-06
34.5468
-1.2899e-06
34.5486
-9.14069e-07
34.5505
-6.48766e-07
34.5524
-4.64003e-07
34.5544
-3.37319e-07
34.5565
-2.51178e-07
34.5586
-1.93876e-07
34.5607
-1.55715e-07
34.5629
-1.30783e-07
34.565
-1.14502e-07
34.5672
-1.0349e-07
34.5694
-9.63873e-08
34.5715
-9.07312e-08
34.5737
-8.67039e-08
34.5758
-8.28568e-08
34.5779
-7.91815e-08
34.5799
-7.56299e-08
34.5819
-7.1238e-08
34.5838
-6.72644e-08
34.5856
-6.20685e-08
34.5874
-5.70381e-08
34.589
-5.13346e-08
34.5905
-4.51555e-08
34.5919
-3.9342e-08
34.5931
-3.2137e-08
34.5942
-2.58951e-08
34.5952
-1.80007e-08
34.596
-1.01873e-08
34.5966
-1.62618e-09
34.5971
7.21229e-09
34.5974
1.5506e-08
34.5975
2.51594e-08
34.5975
3.45808e-08
34.5972
4.38977e-08
34.5967
5.42686e-08
34.5961
6.10025e-08
34.5953
6.95736e-08
34.5943
7.80938e-08
34.5931
8.64711e-08
34.5917
9.46766e-08
34.5901
1.02636e-07
34.5884
1.10312e-07
34.5865
1.17622e-07
34.5844
1.24553e-07
34.5822
1.31062e-07
34.5799
1.37107e-07
34.5774
1.42672e-07
34.5748
1.47725e-07
34.5721
1.5224e-07
34.5693
1.56198e-07
34.5664
1.59608e-07
34.5634
1.62448e-07
34.5603
1.64725e-07
34.5572
1.6643e-07
34.554
1.67585e-07
34.5508
1.68184e-07
34.5475
1.68245e-07
34.5443
1.67777e-07
34.541
1.66795e-07
34.5377
1.65325e-07
34.5345
1.63387e-07
34.5312
1.60992e-07
34.528
1.58156e-07
34.5249
1.5492e-07
34.5217
1.51314e-07
34.5187
1.47354e-07
34.5157
1.43109e-07
34.5127
1.38648e-07
34.5099
1.34068e-07
34.5071
1.29392e-07
34.5044
1.24596e-07
34.5017
1.19621e-07
34.4992
1.14422e-07
34.4967
1.08997e-07
34.4944
1.03385e-07
34.4921
9.76406e-08
34.49
9.18635e-08
34.4879
8.6151e-08
34.4859
8.05885e-08
34.484
7.52134e-08
34.4822
7.00011e-08
34.4805
6.49343e-08
34.4789
5.99894e-08
34.4774
5.51599e-08
34.476
5.04315e-08
34.4746
4.58176e-08
34.4734
4.12892e-08
34.4722
3.69209e-08
34.4711
3.26963e-08
34.47
2.86482e-08
34.4691
2.48374e-08
34.4682
2.08474e-08
34.4673
1.75869e-08
34.4665
1.37925e-08
34.4658
1.09903e-08
34.4652
7.63885e-09
34.4646
5.11955e-09
34.464
2.09184e-09
34.4635
1.59162e-10
34.463
-3.03044e-09
34.4626
-4.54202e-09
34.4622
-7.63521e-09
34.4618
-7.73707e-09
34.4615
-1.21627e-08
34.4612
-1.03919e-08
34.4609
-1.64473e-08
34.4607
-1.27793e-08
34.4605
-2.00234e-08
34.4603
-1.49566e-08
34.4601
-2.28383e-08
34.46
-1.69966e-08
34.4599
-2.52257e-08
34.4598
-1.86228e-08
34.4597
-2.68874e-08
34.4596
-1.71094e-08
34.4595
-3.50983e-08
34.4595
-2.46109e-08
34.4594
-2.07647e-08
34.4594
-4.93073e-08
34.4594
5.28598e-09
34.4594
-5.81022e-08
34.4594
1.06777e-07
34.4595
3.41043e-07
34.4595
2.00159e-06
34.4595
9.50291e-06
34.4597
4.66086e-05
34.4601
0.000224838
34.4621
0.00109453
34.4714
0.00535454
34.5155
0.0262651
34.7219
0.135796
35.5169
0.945163
3.03896
38.4124
7.81763
-0.000460536
7.81769
-0.000328464
7.81775
-0.000314986
7.8178
-0.000318524
7.81785
-0.000318755
7.81791
-0.000318588
7.81797
-0.000318601
7.81803
-0.000318687
7.8181
-0.000318778
7.81817
-0.000318802
7.81823
-0.000318851
7.8183
-0.000318892
7.81836
-0.000318897
7.81842
-0.000318963
7.81847
-0.000319015
7.81853
-0.000319014
7.81859
-0.000319026
7.81865
-0.000319069
7.81871
-0.000319147
7.81878
-0.000319157
7.81884
-0.000319201
7.81891
-0.000319246
7.81897
-0.000319285
7.81904
-0.000319325
7.81911
-0.000319347
7.81919
-0.000319349
7.81926
-0.000319312
7.81933
-0.00031921
7.8194
-0.000318989
7.81946
-0.000318645
7.81953
-0.000318123
7.81959
-0.0003172
7.81967
-0.000315852
7.81974
-0.000314047
7.81982
-0.000311452
7.8199
-0.000307827
7.81999
-0.000303274
7.82008
-0.000297402
7.82017
-0.000290102
7.82026
-0.000281256
7.82035
-0.000270794
7.82045
-0.000258704
7.82055
-0.000244995
7.82066
-0.000230185
7.82077
-0.000213715
7.82088
-0.000196621
7.82101
-0.000178865
7.82113
-0.000160863
7.82127
-0.000142974
7.82142
-0.000125542
7.82157
-0.000108878
7.82174