/*--------------------------------*- C++ -*----------------------------------*\
| =========                 |                                                 |
| \\      /  F ield         | OpenFOAM: The Open Source CFD Toolbox           |
|  \\    /   O peration     | Version:  3.0.x                                 |
|   \\  /    A nd           | Web:      www.OpenFOAM.org                      |
|    \\/     M anipulation  |                                                 |
\*---------------------------------------------------------------------------*/
FoamFile
{
    version     2.0;
    format      ascii;
    class       volScalarField;
    location    "0.04";
    object      rho;
}
// * * * * * * * * * * * * * * * * * * * * * * * * * * * * * * * * * * * * * //

dimensions      [1 -3 0 0 0 0 0];

internalField   nonuniform List<scalar> 
6900
(
50.4677
50.4677
50.4677
50.4677
50.4677
50.4677
50.4677
50.4677
50.4677
50.4677
50.4677
50.4677
50.4677
50.4677
50.4677
50.4677
50.4677
50.4677
50.4677
50.4677
50.4677
50.4677
50.4677
50.4677
50.4677
50.4677
50.4677
50.4677
50.4677
50.4677
50.4677
50.4677
50.4677
50.4677
50.4677
50.4677
50.4677
50.4677
50.4677
50.4677
50.4677
50.4677
50.4677
50.4677
50.4677
50.4677
50.4677
50.4677
50.4677
50.4677
50.4677
50.4677
50.4677
50.4677
50.4677
50.4677
50.4677
50.4677
50.4677
50.4677
50.4677
50.4677
50.4677
50.4677
50.4677
50.4677
50.4677
50.4677
50.4677
50.4677
50.4677
50.4678
50.4678
50.4678
50.4679
50.468
50.4681
50.4682
50.4684
50.4687
50.469
50.4694
50.4699
50.4705
50.4712
50.4721
50.4731
50.4744
50.4758
50.4774
50.4792
50.4812
50.4834
50.4857
50.4881
50.4906
50.493
50.4954
50.4977
50.4998
50.5016
50.5031
50.5042
50.505
50.5053
50.5053
50.505
50.5043
50.5035
50.5024
50.5013
50.5001
50.4991
50.4982
50.4974
50.4969
50.4967
50.4967
50.497
50.4974
50.4981
50.499
50.4999
50.501
50.5022
50.5034
50.5046
50.5058
50.507
50.5081
50.5093
50.5104
50.5115
50.5125
50.5135
50.5145
50.5155
50.5164
50.5173
50.5181
50.519
50.5198
50.5205
50.5212
50.5219
50.5226
50.5232
50.5238
50.5244
50.5249
50.5253
50.5257
50.5261
50.5264
50.5267
50.5269
50.5271
50.5273
50.5274
50.5274
50.5275
50.5275
50.5274
50.5273
50.5272
50.5271
50.5269
50.5267
50.5265
50.5263
50.5261
50.5259
50.5256
50.5254
50.5252
50.525
50.5248
50.5246
50.5245
50.5244
50.5244
50.5243
50.5244
50.5244
50.5246
50.5247
50.525
50.5252
50.5255
50.5259
50.5263
50.5266
50.527
50.5274
50.5278
50.5282
50.5285
50.5287
50.5293
50.5267
50.4677
50.4677
50.4677
50.4677
50.4677
50.4677
50.4677
50.4677
50.4677
50.4677
50.4677
50.4677
50.4677
50.4677
50.4677
50.4677
50.4677
50.4677
50.4677
50.4677
50.4677
50.4677
50.4677
50.4677
50.4677
50.4677
50.4677
50.4677
50.4677
50.4677
50.4677
50.4677
50.4677
50.4677
50.4677
50.4677
50.4677
50.4677
50.4677
50.4677
50.4677
50.4677
50.4677
50.4677
50.4677
50.4677
50.4677
50.4677
50.4677
50.4677
50.4677
50.4677
50.4677
50.4677
50.4677
50.4677
50.4677
50.4677
50.4677
50.4677
50.4677
50.4677
50.4677
50.4677
50.4677
50.4677
50.4677
50.4677
50.4677
50.4677
50.4677
50.4678
50.4678
50.4678
50.4679
50.468
50.4681
50.4682
50.4684
50.4687
50.469
50.4694
50.4699
50.4705
50.4712
50.4721
50.4731
50.4744
50.4758
50.4774
50.4792
50.4812
50.4834
50.4857
50.4881
50.4906
50.4931
50.4955
50.4977
50.4998
50.5016
50.5031
50.5042
50.505
50.5053
50.5053
50.505
50.5043
50.5035
50.5024
50.5013
50.5002
50.4991
50.4982
50.4975
50.497
50.4967
50.4967
50.497
50.4974
50.4981
50.499
50.5
50.501
50.5022
50.5034
50.5046
50.5058
50.507
50.5082
50.5093
50.5104
50.5115
50.5125
50.5135
50.5145
50.5155
50.5164
50.5173
50.5181
50.519
50.5198
50.5205
50.5213
50.522
50.5226
50.5232
50.5238
50.5244
50.5249
50.5253
50.5257
50.5261
50.5264
50.5267
50.5269
50.5271
50.5273
50.5274
50.5275
50.5275
50.5275
50.5274
50.5273
50.5272
50.5271
50.5269
50.5267
50.5265
50.5263
50.5261
50.5259
50.5256
50.5254
50.5252
50.525
50.5248
50.5247
50.5245
50.5244
50.5244
50.5244
50.5244
50.5245
50.5246
50.5248
50.525
50.5252
50.5255
50.5259
50.5263
50.5267
50.5271
50.5275
50.5278
50.5282
50.5285
50.5287
50.5293
50.527
50.4677
50.4677
50.4677
50.4677
50.4677
50.4677
50.4677
50.4677
50.4677
50.4677
50.4677
50.4677
50.4677
50.4677
50.4677
50.4677
50.4677
50.4677
50.4677
50.4677
50.4677
50.4677
50.4677
50.4677
50.4677
50.4677
50.4677
50.4677
50.4677
50.4677
50.4677
50.4677
50.4677
50.4677
50.4677
50.4677
50.4677
50.4677
50.4677
50.4677
50.4677
50.4677
50.4677
50.4677
50.4677
50.4677
50.4677
50.4677
50.4677
50.4677
50.4677
50.4677
50.4677
50.4677
50.4677
50.4677
50.4677
50.4677
50.4677
50.4677
50.4677
50.4677
50.4677
50.4677
50.4677
50.4677
50.4677
50.4677
50.4677
50.4677
50.4677
50.4678
50.4678
50.4678
50.4679
50.468
50.4681
50.4682
50.4684
50.4687
50.469
50.4694
50.4699
50.4705
50.4712
50.4721
50.4731
50.4744
50.4758
50.4774
50.4792
50.4812
50.4834
50.4857
50.4881
50.4906
50.4931
50.4955
50.4977
50.4998
50.5016
50.5031
50.5042
50.505
50.5053
50.5053
50.505
50.5043
50.5035
50.5024
50.5013
50.5002
50.4991
50.4982
50.4975
50.497
50.4967
50.4967
50.497
50.4974
50.4981
50.499
50.5
50.501
50.5022
50.5034
50.5046
50.5058
50.507
50.5082
50.5093
50.5104
50.5115
50.5125
50.5135
50.5145
50.5155
50.5164
50.5173
50.5181
50.519
50.5198
50.5205
50.5213
50.522
50.5226
50.5232
50.5238
50.5244
50.5249
50.5253
50.5257
50.5261
50.5264
50.5267
50.5269
50.5271
50.5273
50.5274
50.5275
50.5275
50.5275
50.5274
50.5273
50.5272
50.5271
50.5269
50.5267
50.5265
50.5263
50.5261
50.5259
50.5256
50.5254
50.5252
50.525
50.5248
50.5247
50.5245
50.5244
50.5244
50.5244
50.5244
50.5245
50.5246
50.5248
50.525
50.5252
50.5255
50.5259
50.5263
50.5267
50.5271
50.5275
50.5278
50.5282
50.5285
50.5287
50.529
50.529
50.4677
50.4677
50.4677
50.4677
50.4677
50.4677
50.4677
50.4677
50.4677
50.4677
50.4677
50.4677
50.4677
50.4677
50.4677
50.4677
50.4677
50.4677
50.4677
50.4677
50.4677
50.4677
50.4677
50.4677
50.4677
50.4677
50.4677
50.4677
50.4677
50.4677
50.4677
50.4677
50.4677
50.4677
50.4677
50.4677
50.4677
50.4677
50.4677
50.4677
50.4677
50.4677
50.4677
50.4677
50.4677
50.4677
50.4677
50.4677
50.4677
50.4677
50.4677
50.4677
50.4677
50.4677
50.4677
50.4677
50.4677
50.4677
50.4677
50.4677
50.4677
50.4677
50.4677
50.4677
50.4677
50.4677
50.4677
50.4677
50.4677
50.4677
50.4677
50.4678
50.4678
50.4678
50.4679
50.468
50.4681
50.4682
50.4684
50.4687
50.469
50.4694
50.4699
50.4705
50.4712
50.4721
50.4731
50.4744
50.4758
50.4774
50.4792
50.4812
50.4834
50.4857
50.4881
50.4906
50.4931
50.4955
50.4977
50.4998
50.5016
50.5031
50.5042
50.505
50.5053
50.5053
50.505
50.5043
50.5035
50.5024
50.5013
50.5002
50.4991
50.4982
50.4975
50.497
50.4967
50.4967
50.497
50.4974
50.4981
50.499
50.5
50.501
50.5022
50.5034
50.5046
50.5058
50.507
50.5082
50.5093
50.5104
50.5115
50.5125
50.5135
50.5145
50.5155
50.5164
50.5173
50.5181
50.519
50.5198
50.5205
50.5213
50.522
50.5226
50.5232
50.5238
50.5244
50.5249
50.5253
50.5257
50.5261
50.5264
50.5267
50.5269
50.5271
50.5273
50.5274
50.5275
50.5275
50.5275
50.5274
50.5273
50.5272
50.5271
50.5269
50.5267
50.5265
50.5263
50.5261
50.5259
50.5256
50.5254
50.5252
50.525
50.5248
50.5247
50.5245
50.5244
50.5244
50.5244
50.5244
50.5245
50.5246
50.5248
50.525
50.5252
50.5255
50.5259
50.5263
50.5267
50.5271
50.5275
50.5278
50.5282
50.5285
50.5288
50.5281
50.5343
50.4677
50.4677
50.4677
50.4677
50.4677
50.4677
50.4677
50.4677
50.4677
50.4677
50.4677
50.4677
50.4677
50.4677
50.4677
50.4677
50.4677
50.4677
50.4677
50.4677
50.4677
50.4677
50.4677
50.4677
50.4677
50.4677
50.4677
50.4677
50.4677
50.4677
50.4677
50.4677
50.4677
50.4677
50.4677
50.4677
50.4677
50.4677
50.4677
50.4677
50.4677
50.4677
50.4677
50.4677
50.4677
50.4677
50.4677
50.4677
50.4677
50.4677
50.4677
50.4677
50.4677
50.4677
50.4677
50.4677
50.4677
50.4677
50.4677
50.4677
50.4677
50.4677
50.4677
50.4677
50.4677
50.4677
50.4677
50.4677
50.4677
50.4677
50.4677
50.4678
50.4678
50.4678
50.4679
50.468
50.4681
50.4682
50.4684
50.4687
50.469
50.4694
50.4699
50.4705
50.4712
50.4721
50.4731
50.4744
50.4758
50.4774
50.4792
50.4812
50.4834
50.4857
50.4881
50.4906
50.493
50.4954
50.4977
50.4998
50.5016
50.5031
50.5042
50.505
50.5053
50.5053
50.505
50.5043
50.5035
50.5024
50.5013
50.5001
50.4991
50.4982
50.4974
50.4969
50.4967
50.4967
50.497
50.4974
50.4981
50.499
50.4999
50.501
50.5022
50.5034
50.5046
50.5058
50.507
50.5081
50.5093
50.5104
50.5115
50.5125
50.5135
50.5145
50.5155
50.5164
50.5173
50.5181
50.519
50.5198
50.5205
50.5212
50.5219
50.5226
50.5232
50.5238
50.5244
50.5249
50.5253
50.5257
50.5261
50.5264
50.5267
50.5269
50.5271
50.5273
50.5274
50.5274
50.5275
50.5275
50.5274
50.5273
50.5272
50.5271
50.5269
50.5267
50.5265
50.5263
50.5261
50.5259
50.5256
50.5254
50.5252
50.525
50.5248
50.5246
50.5245
50.5244
50.5244
50.5243
50.5244
50.5244
50.5246
50.5247
50.525
50.5252
50.5255
50.5259
50.5262
50.5266
50.527
50.5274
50.5278
50.5282
50.5284
50.5288
50.5276
50.5399
50.5448
50.5515
50.5522
50.5503
50.5485
50.5465
50.5437
50.5403
50.5372
50.5362
50.5415
50.5462
50.5458
50.538
50.5229
50.5084
50.4977
50.4883
50.4789
50.4788
50.5412
50.5445
50.5443
50.5425
50.5407
50.5389
50.5361
50.5327
50.5297
50.5287
50.5349
50.5395
50.5373
50.5264
50.5078
50.4959
50.4873
50.4826
50.4762
50.4755
50.5299
50.5298
50.5287
50.5266
50.5239
50.5204
50.5162
50.5114
50.5053
50.4982
50.4897
50.4809
50.4724
50.4646
50.4571
50.4484
50.4382
50.4272
50.4157
50.4026
50.5071
50.5042
50.505
50.5065
50.5055
50.5017
50.4964
50.4892
50.4832
50.4759
50.469
50.4618
50.4547
50.448
50.4413
50.4356
50.4306
50.4266
50.4235
50.4212
50.4975
50.4854
50.4809
50.4802
50.4781
50.4731
50.4666
50.4583
50.4508
50.4419
50.4339
50.4251
50.4168
50.4084
50.4009
50.3937
50.3878
50.3827
50.379
50.3772
50.4564
50.3821
50.1374
49.9841
50.0076
50.2221
50.4724
50.5702
50.5826
50.556
50.4902
50.4491
50.4296
50.4214
50.4183
50.4173
50.4171
50.4171
50.4173
50.4175
50.4177
50.418
50.4182
50.4184
50.4185
50.4187
50.4189
50.419
50.4191
50.4192
50.4193
50.4193
50.4193
50.4193
50.4193
50.4193
50.4193
50.4192
50.4192
50.4191
50.4191
50.419
50.419
50.4189
50.4189
50.4189
50.4189
50.419
50.4191
50.4193
50.4195
50.4198
50.4202
50.4207
50.4213
50.422
50.4228
50.4237
50.4248
50.4261
50.4274
50.4289
50.4306
50.4323
50.4342
50.4361
50.4381
50.4402
50.4422
50.4443
50.4463
50.4482
50.4499
50.4516
50.453
50.4543
50.4553
50.4561
50.4567
50.4571
50.4573
50.4573
50.4571
50.4569
50.4565
50.4561
50.4557
50.4553
50.455
50.4548
50.4548
50.4548
50.455
50.4554
50.456
50.4567
50.4577
50.4587
50.4599
50.4613
50.4627
50.4642
50.4658
50.4675
50.4692
50.4709
50.4727
50.4744
50.4762
50.4779
50.4796
50.4812
50.4828
50.4844
50.4858
50.4872
50.4884
50.4896
50.4906
50.4915
50.4922
50.4928
50.4932
50.4935
50.4936
50.4935
50.4934
50.4931
50.4927
50.4923
50.4918
50.4913
50.4909
50.4904
50.4901
50.4898
50.4897
50.4898
50.49
50.4903
50.4909
50.4916
50.4926
50.4937
50.4949
50.4963
50.4979
50.4996
50.5013
50.5032
50.5051
50.5071
50.5091
50.5112
50.5133
50.5154
50.5175
50.5196
50.5217
50.5239
50.5261
50.5283
50.5305
50.5327
50.535
50.5373
50.5396
50.5419
50.5441
50.5464
50.5485
50.5506
50.5526
50.5544
50.5561
50.5576
50.5589
50.5599
50.5607
50.5613
50.5617
50.5619
50.5618
50.5616
50.5613
50.5608
50.5603
50.5597
50.5591
50.5585
50.558
50.5576
50.5572
50.557
50.5569
50.557
50.5571
50.5574
50.5565
50.5657
50.4614
50.4332
50.3938
50.369
50.3747
50.3957
50.4
50.3943
50.391
50.3937
50.4032
50.4109
50.4145
50.4159
50.4165
50.4167
50.4169
50.4171
50.4173
50.4175
50.4178
50.418
50.4182
50.4184
50.4186
50.4187
50.4189
50.419
50.4191
50.4192
50.4193
50.4193
50.4193
50.4194
50.4194
50.4193
50.4193
50.4193
50.4192
50.4191
50.4191
50.419
50.419
50.4189
50.4189
50.4189
50.4189
50.419
50.4191
50.4193
50.4195
50.4198
50.4202
50.4207
50.4213
50.422
50.4228
50.4238
50.4248
50.4261
50.4274
50.4289
50.4306
50.4323
50.4342
50.4361
50.4381
50.4402
50.4422
50.4443
50.4463
50.4482
50.4499
50.4516
50.453
50.4543
50.4553
50.4561
50.4567
50.4571
50.4573
50.4573
50.4572
50.4569
50.4565
50.4561
50.4557
50.4554
50.4551
50.4548
50.4548
50.4548
50.455
50.4554
50.456
50.4568
50.4577
50.4587
50.46
50.4613
50.4627
50.4642
50.4658
50.4675
50.4692
50.4709
50.4727
50.4744
50.4762
50.4779
50.4796
50.4812
50.4828
50.4844
50.4858
50.4872
50.4885
50.4896
50.4906
50.4915
50.4922
50.4928
50.4932
50.4935
50.4936
50.4936
50.4934
50.4931
50.4927
50.4923
50.4918
50.4913
50.4909
50.4904
50.4901
50.4899
50.4897
50.4898
50.49
50.4904
50.4909
50.4917
50.4926
50.4937
50.4949
50.4964
50.4979
50.4996
50.5014
50.5032
50.5051
50.5071
50.5091
50.5112
50.5133
50.5154
50.5175
50.5196
50.5217
50.5239
50.5261
50.5283
50.5305
50.5328
50.535
50.5373
50.5396
50.5419
50.5442
50.5464
50.5486
50.5506
50.5526
50.5544
50.5561
50.5576
50.5589
50.5599
50.5608
50.5614
50.5617
50.5619
50.5619
50.5616
50.5613
50.5608
50.5603
50.5597
50.5591
50.5585
50.558
50.5576
50.5572
50.557
50.5569
50.557
50.5571
50.5574
50.5569
50.5611
50.3666
50.3846
50.4049
50.4133
50.4155
50.4158
50.4146
50.4147
50.4155
50.4161
50.4165
50.4166
50.4164
50.4163
50.4164
50.4166
50.4168
50.417
50.4173
50.4175
50.4177
50.418
50.4182
50.4184
50.4186
50.4187
50.4189
50.419
50.4191
50.4192
50.4193
50.4193
50.4193
50.4194
50.4194
50.4193
50.4193
50.4193
50.4192
50.4191
50.4191
50.419
50.419
50.4189
50.4189
50.4189
50.4189
50.419
50.4191
50.4193
50.4195
50.4198
50.4202
50.4207
50.4213
50.422
50.4228
50.4238
50.4248
50.4261
50.4274
50.4289
50.4306
50.4323
50.4342
50.4361
50.4381
50.4402
50.4422
50.4443
50.4463
50.4482
50.4499
50.4516
50.453
50.4543
50.4553
50.4561
50.4567
50.4571
50.4573
50.4573
50.4572
50.4569
50.4565
50.4561
50.4557
50.4554
50.4551
50.4548
50.4548
50.4548
50.455
50.4554
50.456
50.4568
50.4577
50.4587
50.46
50.4613
50.4627
50.4642
50.4658
50.4675
50.4692
50.4709
50.4727
50.4744
50.4762
50.4779
50.4796
50.4812
50.4828
50.4844
50.4858
50.4872
50.4885
50.4896
50.4906
50.4915
50.4922
50.4928
50.4932
50.4935
50.4936
50.4936
50.4934
50.4931
50.4927
50.4923
50.4918
50.4913
50.4909
50.4904
50.4901
50.4899
50.4897
50.4898
50.49
50.4904
50.4909
50.4917
50.4926
50.4937
50.4949
50.4964
50.4979
50.4996
50.5014
50.5032
50.5051
50.5071
50.5091
50.5112
50.5133
50.5154
50.5175
50.5196
50.5217
50.5239
50.5261
50.5283
50.5305
50.5328
50.535
50.5373
50.5396
50.5419
50.5442
50.5464
50.5486
50.5506
50.5526
50.5544
50.5561
50.5576
50.5589
50.5599
50.5608
50.5614
50.5617
50.5619
50.5619
50.5616
50.5613
50.5608
50.5603
50.5597
50.5591
50.5585
50.558
50.5576
50.5572
50.557
50.5569
50.557
50.5571
50.5574
50.5578
50.5583
50.414
50.4079
50.4037
50.4046
50.4048
50.3997
50.3945
50.3954
50.402
50.4122
50.4168
50.4179
50.4178
50.4171
50.4168
50.4167
50.4169
50.417
50.4173
50.4175
50.4177
50.418
50.4182
50.4184
50.4186
50.4187
50.4189
50.419
50.4191
50.4192
50.4193
50.4193
50.4193
50.4194
50.4194
50.4193
50.4193
50.4193
50.4192
50.4191
50.4191
50.419
50.419
50.4189
50.4189
50.4189
50.4189
50.419
50.4191
50.4193
50.4195
50.4198
50.4202
50.4207
50.4213
50.422
50.4228
50.4238
50.4248
50.4261
50.4274
50.4289
50.4306
50.4323
50.4342
50.4361
50.4381
50.4402
50.4422
50.4443
50.4463
50.4482
50.4499
50.4516
50.453
50.4543
50.4553
50.4561
50.4567
50.4571
50.4573
50.4573
50.4572
50.4569
50.4565
50.4561
50.4557
50.4554
50.4551
50.4548
50.4548
50.4548
50.455
50.4554
50.456
50.4568
50.4577
50.4587
50.46
50.4613
50.4627
50.4642
50.4658
50.4675
50.4692
50.4709
50.4727
50.4744
50.4762
50.4779
50.4796
50.4812
50.4828
50.4844
50.4858
50.4872
50.4885
50.4896
50.4906
50.4915
50.4922
50.4928
50.4932
50.4935
50.4936
50.4936
50.4934
50.4931
50.4927
50.4923
50.4918
50.4913
50.4909
50.4904
50.4901
50.4899
50.4897
50.4898
50.49
50.4904
50.4909
50.4917
50.4926
50.4937
50.4949
50.4964
50.4979
50.4996
50.5014
50.5032
50.5051
50.5071
50.5091
50.5112
50.5133
50.5154
50.5175
50.5196
50.5217
50.5239
50.5261
50.5283
50.5305
50.5328
50.535
50.5373
50.5396
50.5419
50.5442
50.5464
50.5486
50.5506
50.5526
50.5544
50.5561
50.5576
50.5589
50.5599
50.5608
50.5614
50.5617
50.5619
50.5619
50.5616
50.5613
50.5608
50.5603
50.5597
50.5591
50.5585
50.558
50.5576
50.5572
50.557
50.5569
50.557
50.5572
50.5574
50.5582
50.5576
50.3984
50.3972
50.3963
50.4141
50.4423
50.4397
50.3827
50.2988
50.2776
50.2883
50.3365
50.3798
50.4013
50.4106
50.4144
50.4159
50.4166
50.417
50.4172
50.4175
50.4177
50.418
50.4182
50.4184
50.4185
50.4187
50.4189
50.419
50.4191
50.4192
50.4193
50.4193
50.4193
50.4193
50.4193
50.4193
50.4193
50.4192
50.4192
50.4191
50.4191
50.419
50.419
50.4189
50.4189
50.4189
50.4189
50.419
50.4191
50.4193
50.4195
50.4198
50.4202
50.4207
50.4213
50.422
50.4228
50.4237
50.4248
50.4261
50.4274
50.4289
50.4306
50.4323
50.4342
50.4361
50.4381
50.4402
50.4422
50.4443
50.4463
50.4482
50.4499
50.4516
50.453
50.4543
50.4553
50.4561
50.4567
50.4571
50.4573
50.4573
50.4571
50.4569
50.4565
50.4561
50.4557
50.4553
50.455
50.4548
50.4548
50.4548
50.455
50.4554
50.456
50.4567
50.4577
50.4587
50.4599
50.4613
50.4627
50.4642
50.4658
50.4675
50.4692
50.4709
50.4727
50.4744
50.4762
50.4779
50.4796
50.4812
50.4828
50.4844
50.4858
50.4872
50.4884
50.4896
50.4906
50.4915
50.4922
50.4928
50.4932
50.4935
50.4936
50.4935
50.4934
50.4931
50.4927
50.4923
50.4918
50.4913
50.4909
50.4904
50.4901
50.4898
50.4897
50.4898
50.49
50.4903
50.4909
50.4916
50.4926
50.4937
50.4949
50.4963
50.4979
50.4996
50.5013
50.5032
50.5051
50.5071
50.5091
50.5112
50.5133
50.5154
50.5175
50.5196
50.5217
50.5239
50.5261
50.5283
50.5305
50.5327
50.535
50.5373
50.5396
50.5419
50.5441
50.5464
50.5485
50.5506
50.5526
50.5544
50.5561
50.5576
50.5589
50.5599
50.5607
50.5613
50.5617
50.5619
50.5618
50.5616
50.5613
50.5608
50.5603
50.5597
50.5591
50.5585
50.558
50.5575
50.5572
50.557
50.5569
50.5569
50.5572
50.5574
50.5582
50.5573
50.5293
50.5166
50.5119
50.5112
50.509
50.5041
50.4975
50.4905
50.4825
50.4747
50.4667
50.4583
50.4504
50.4424
50.4352
50.4285
50.4229
50.4181
50.4147
50.4131
50.5381
50.535
50.5357
50.5371
50.5361
50.5324
50.5267
50.5214
50.5142
50.5085
50.5012
50.4945
50.4878
50.4816
50.4751
50.4698
50.465
50.4614
50.4585
50.4564
50.5594
50.5595
50.5586
50.5567
50.5541
50.5509
50.547
50.5423
50.5366
50.5297
50.5216
50.5131
50.505
50.4975
50.4903
50.4818
50.4719
50.4611
50.4498
50.4371
50.5699
50.5736
50.5735
50.5719
50.5702
50.5685
50.5661
50.5629
50.5602
50.5595
50.5658
50.5704
50.5683
50.5577
50.5394
50.5277
50.5191
50.5139
50.5076
50.5064
50.5734
50.5804
50.5812
50.5794
50.5778
50.576
50.5734
50.5703
50.5675
50.5668
50.5724
50.5771
50.5766
50.5686
50.5539
50.5403
50.5302
50.5213
50.5122
50.5109
50.4355
50.4348
50.4331
50.447
50.4804
50.4837
50.4426
50.3504
50.3195
50.3256
50.3671
50.4166
50.4428
50.455
50.4605
50.4631
50.4646
50.4658
50.4668
50.4677
50.4686
50.4694
50.4703
50.4711
50.4718
50.4726
50.4733
50.4739
50.4745
50.4751
50.4756
50.4761
50.4766
50.477
50.4773
50.4776
50.4778
50.4781
50.4782
50.4783
50.4784
50.4785
50.4785
50.4784
50.4784
50.4783
50.4781
50.478
50.4778
50.4776
50.4773
50.4771
50.4768
50.4765
50.4762
50.4759
50.4756
50.4752
50.4749
50.4746
50.4743
50.474
50.4737
50.4735
50.4732
50.473
50.4729
50.4727
50.4726
50.4725
50.4725
50.4725
50.4726
50.4727
50.4728
50.4731
50.4733
50.4736
50.474
50.4744
50.4749
50.4754
50.4759
50.4765
50.4772
50.4778
50.4786
50.4793
50.4801
50.4809
50.4816
50.4825
50.4832
50.4841
50.4848
50.4856
50.4863
50.4871
50.4867
50.4956
50.4504
50.4458
50.4399
50.4409
50.4431
50.4438
50.4403
50.4401
50.4436
50.4526
50.4592
50.4618
50.4629
50.4633
50.4636
50.4642
50.465
50.4659
50.4668
50.4677
50.4686
50.4694
50.4703
50.4711
50.4719
50.4726
50.4733
50.4739
50.4746
50.4751
50.4757
50.4761
50.4766
50.477
50.4773
50.4776
50.4779
50.4781
50.4782
50.4784
50.4784
50.4785
50.4785
50.4785
50.4784
50.4783
50.4782
50.478
50.4778
50.4776
50.4774
50.4771
50.4768
50.4765
50.4762
50.4759
50.4756
50.4752
50.4749
50.4746
50.4743
50.474
50.4737
50.4735
50.4732
50.473
50.4729
50.4727
50.4726
50.4725
50.4725
50.4725
50.4726
50.4727
50.4729
50.4731
50.4733
50.4736
50.474
50.4744
50.4749
50.4754
50.4759
50.4765
50.4772
50.4779
50.4786
50.4793
50.4801
50.4809
50.4816
50.4825
50.4832
50.4841
50.4848
50.4857
50.4863
50.487
50.487
50.491
50.4023
50.4188
50.4395
50.4495
50.4531
50.4548
50.4546
50.4554
50.457
50.4586
50.46
50.4611
50.4617
50.4623
50.4631
50.464
50.4649
50.4659
50.4668
50.4677
50.4686
50.4694
50.4703
50.4711
50.4719
50.4726
50.4733
50.4739
50.4746
50.4751
50.4757
50.4761
50.4766
50.477
50.4773
50.4776
50.4779
50.4781
50.4782
50.4784
50.4784
50.4785
50.4785
50.4785
50.4784
50.4783
50.4782
50.478
50.4778
50.4776
50.4774
50.4771
50.4768
50.4765
50.4762
50.4759
50.4756
50.4752
50.4749
50.4746
50.4743
50.474
50.4737
50.4735
50.4732
50.473
50.4729
50.4727
50.4726
50.4725
50.4725
50.4725
50.4726
50.4727
50.4729
50.4731
50.4733
50.4736
50.474
50.4744
50.4749
50.4754
50.4759
50.4765
50.4772
50.4779
50.4786
50.4793
50.4801
50.4809
50.4816
50.4825
50.4833
50.484
50.4849
50.4856
50.4864
50.4871
50.4879
50.4885
50.4964
50.4726
50.4354
50.4047
50.4077
50.4304
50.4414
50.4397
50.4366
50.439
50.4469
50.4551
50.4596
50.4619
50.4632
50.4643
50.4651
50.4659
50.4668
50.4677
50.4686
50.4694
50.4703
50.4711
50.4719
50.4726
50.4733
50.4739
50.4746
50.4751
50.4757
50.4761
50.4766
50.477
50.4773
50.4776
50.4779
50.4781
50.4782
50.4784
50.4784
50.4785
50.4785
50.4785
50.4784
50.4783
50.4782
50.478
50.4778
50.4776
50.4774
50.4771
50.4768
50.4765
50.4762
50.4759
50.4756
50.4752
50.4749
50.4746
50.4743
50.474
50.4737
50.4735
50.4732
50.473
50.4729
50.4727
50.4726
50.4725
50.4725
50.4725
50.4726
50.4727
50.4729
50.4731
50.4733
50.4736
50.474
50.4744
50.4749
50.4754
50.4759
50.4765
50.4772
50.4779
50.4786
50.4793
50.4801
50.4809
50.4816
50.4825
50.4832
50.4841
50.4849
50.4856
50.4864
50.4872
50.4884
50.4879
50.4936
50.4376
50.2283
50.0454
50.0477
50.2124
50.4795
50.5988
50.6225
50.6063
50.5461
50.5001
50.4779
50.4687
50.4656
50.465
50.4653
50.466
50.4668
50.4677
50.4686
50.4694
50.4703
50.4711
50.4718
50.4726
50.4733
50.4739
50.4745
50.4751
50.4756
50.4761
50.4766
50.477
50.4773
50.4776
50.4778
50.4781
50.4782
50.4783
50.4784
50.4785
50.4785
50.4784
50.4784
50.4783
50.4781
50.478
50.4778
50.4776
50.4773
50.4771
50.4768
50.4765
50.4762
50.4759
50.4756
50.4752
50.4749
50.4746
50.4743
50.474
50.4737
50.4735
50.4732
50.473
50.4729
50.4727
50.4726
50.4725
50.4725
50.4725
50.4726
50.4727
50.4728
50.4731
50.4733
50.4736
50.474
50.4744
50.4749
50.4754
50.4759
50.4765
50.4772
50.4778
50.4786
50.4793
50.4801
50.4808
50.4816
50.4824
50.4832
50.484
50.4849
50.4856
50.4864
50.4872
50.4884
50.4877
50.4599
50.4473
50.4426
50.4418
50.4397
50.4347
50.4284
50.4209
50.4131
50.4052
50.3971
50.3887
50.3808
50.3727
50.3654
50.3586
50.353
50.3482
50.3448
50.3431
50.4686
50.4655
50.4662
50.4675
50.4665
50.4627
50.4575
50.4516
50.4446
50.4389
50.4315
50.4248
50.4181
50.4118
50.4053
50.3999
50.3951
50.3914
50.3885
50.3863
50.4896
50.4898
50.4889
50.4871
50.4846
50.4814
50.4775
50.4728
50.467
50.4601
50.452
50.4436
50.4355
50.4281
50.4208
50.4123
50.4024
50.3917
50.3803
50.3676
50.4999
50.5035
50.5036
50.5021
50.5006
50.4989
50.4963
50.4932
50.4905
50.4898
50.4962
50.5007
50.4984
50.4876
50.4693
50.4579
50.4494
50.444
50.4376
50.4365
50.5033
50.5103
50.5113
50.5096
50.5081
50.5062
50.5036
50.5005
50.4977
50.497
50.5027
50.5073
50.5066
50.4984
50.4836
50.4703
50.4603
50.4514
50.4424
50.4416
50.365
50.3644
50.3642
50.3826
50.4089
50.4057
50.3465
50.2684
50.2512
50.2645
50.3144
50.3558
50.3764
50.3856
50.3895
50.3913
50.3922
50.3927
50.393
50.3932
50.3932
50.3931
50.3928
50.3925
50.392
50.3914
50.3907
50.3899
50.3892
50.3884
50.3876
50.3868
50.3862
50.3856
50.3851
50.3848
50.3847
50.3847
50.3849
50.3853
50.3859
50.3866
50.3876
50.3887
50.3899
50.3913
50.3928
50.3944
50.3962
50.398
50.3998
50.4017
50.4037
50.4058
50.4078
50.41
50.4121
50.4144
50.4166
50.419
50.4214
50.4238
50.4263
50.4289
50.4315
50.4341
50.4367
50.4393
50.4418
50.4443
50.4467
50.4489
50.451
50.4529
50.4546
50.456
50.4572
50.4581
50.4588
50.4592
50.4593
50.4593
50.4591
50.4587
50.4582
50.4577
50.4571
50.4566
50.4561
50.4557
50.4555
50.4554
50.4555
50.4557
50.4562
50.4568
50.4576
50.4586
50.4597
50.461
50.4624
50.4639
50.4654
50.4671
50.4688
50.4705
50.4722
50.4739
50.4756
50.4773
50.479
50.4806
50.4822
50.4837
50.4851
50.4865
50.4877
50.4888
50.4899
50.4907
50.4915
50.4921
50.4925
50.4928
50.4929
50.493
50.4929
50.4927
50.4924
50.492
50.4917
50.4913
50.4909
50.4906
50.4903
50.4902
50.4902
50.4903
50.4905
50.491
50.4915
50.4923
50.4932
50.4943
50.4955
50.4968
50.4982
50.4997
50.5013
50.5029
50.5045
50.5061
50.5077
50.5093
50.5108
50.5122
50.5135
50.5147
50.5159
50.5169
50.5178
50.5187
50.5194
50.5201
50.5206
50.5211
50.5215
50.5218
50.5221
50.5223
50.5225
50.5227
50.5228
50.5229
50.523
50.5232
50.5233
50.5234
50.5236
50.5237
50.5239
50.5242
50.5244
50.5247
50.525
50.5253
50.5256
50.526
50.5263
50.5267
50.5271
50.5274
50.5278
50.5281
50.5284
50.5287
50.529
50.5292
50.5298
50.5284
50.38
50.3749
50.3706
50.3725
50.3745
50.3739
50.3701
50.3711
50.3757
50.3843
50.3892
50.3909
50.3916
50.3915
50.3917
50.392
50.3924
50.3928
50.393
50.3932
50.3932
50.3931
50.3929
50.3925
50.392
50.3914
50.3907
50.39
50.3892
50.3884
50.3876
50.3868
50.3862
50.3856
50.3852
50.3848
50.3847
50.3847
50.3849
50.3853
50.3859
50.3867
50.3876
50.3887
50.3899
50.3913
50.3928
50.3945
50.3962
50.398
50.3998
50.4018
50.4037
50.4058
50.4078
50.41
50.4121
50.4144
50.4167
50.419
50.4214
50.4238
50.4263
50.4289
50.4315
50.4341
50.4367
50.4393
50.4418
50.4443
50.4467
50.449
50.451
50.4529
50.4546
50.456
50.4572
50.4581
50.4588
50.4592
50.4594
50.4593
50.4591
50.4587
50.4582
50.4577
50.4571
50.4566
50.4561
50.4558
50.4555
50.4554
50.4555
50.4557
50.4562
50.4568
50.4576
50.4586
50.4598
50.461
50.4624
50.4639
50.4655
50.4671
50.4688
50.4705
50.4722
50.4739
50.4757
50.4773
50.479
50.4806
50.4822
50.4837
50.4852
50.4865
50.4877
50.4889
50.4899
50.4908
50.4915
50.4921
50.4925
50.4928
50.493
50.493
50.4929
50.4927
50.4924
50.4921
50.4917
50.4913
50.4909
50.4906
50.4903
50.4902
50.4902
50.4903
50.4905
50.491
50.4916
50.4923
50.4932
50.4943
50.4955
50.4968
50.4982
50.4998
50.5013
50.5029
50.5045
50.5062
50.5078
50.5093
50.5108
50.5122
50.5135
50.5147
50.5159
50.5169
50.5179
50.5187
50.5194
50.5201
50.5206
50.5211
50.5215
50.5218
50.5221
50.5223
50.5225
50.5227
50.5228
50.5229
50.5231
50.5232
50.5233
50.5234
50.5236
50.5238
50.5239
50.5242
50.5244
50.5247
50.525
50.5253
50.5256
50.526
50.5263
50.5267
50.5271
50.5274
50.5278
50.5281
50.5284
50.5287
50.529
50.5292
50.5298
50.5286
50.332
50.3499
50.3707
50.3798
50.3829
50.3841
50.384
50.385
50.3865
50.388
50.3891
50.3899
50.3904
50.3908
50.3913
50.3919
50.3924
50.3927
50.393
50.3932
50.3932
50.3931
50.3929
50.3925
50.392
50.3914
50.3907
50.39
50.3892
50.3884
50.3876
50.3868
50.3862
50.3856
50.3852
50.3848
50.3847
50.3847
50.3849
50.3853
50.3859
50.3867
50.3876
50.3887
50.3899
50.3913
50.3928
50.3945
50.3962
50.398
50.3998
50.4018
50.4037
50.4058
50.4078
50.41
50.4121
50.4144
50.4167
50.419
50.4214
50.4238
50.4263
50.4289
50.4315
50.4341
50.4367
50.4393
50.4418
50.4443
50.4467
50.449
50.451
50.4529
50.4546
50.456
50.4572
50.4581
50.4588
50.4592
50.4594
50.4593
50.4591
50.4587
50.4582
50.4577
50.4571
50.4566
50.4561
50.4558
50.4555
50.4554
50.4555
50.4557
50.4562
50.4568
50.4576
50.4586
50.4598
50.461
50.4624
50.4639
50.4655
50.4671
50.4688
50.4705
50.4722
50.4739
50.4757
50.4773
50.479
50.4806
50.4822
50.4837
50.4852
50.4865
50.4877
50.4889
50.4899
50.4908
50.4915
50.4921
50.4925
50.4928
50.493
50.493
50.4929
50.4927
50.4924
50.4921
50.4917
50.4913
50.4909
50.4906
50.4903
50.4902
50.4902
50.4903
50.4905
50.491
50.4916
50.4923
50.4932
50.4943
50.4955
50.4968
50.4982
50.4998
50.5013
50.5029
50.5045
50.5062
50.5078
50.5093
50.5108
50.5122
50.5135
50.5147
50.5159
50.5169
50.5179
50.5187
50.5194
50.5201
50.5206
50.5211
50.5215
50.5218
50.5221
50.5223
50.5225
50.5227
50.5228
50.5229
50.5231
50.5232
50.5233
50.5234
50.5236
50.5238
50.5239
50.5242
50.5244
50.5247
50.525
50.5253
50.5256
50.526
50.5263
50.5267
50.5271
50.5274
50.5278
50.5281
50.5284
50.5287
50.5289
50.5291
50.5293
50.5293
50.4249
50.3992
50.3607
50.3342
50.3399
50.3629
50.3708
50.3688
50.3674
50.3705
50.379
50.3857
50.389
50.3906
50.3915
50.3921
50.3925
50.3928
50.3931
50.3932
50.3932
50.3931
50.3929
50.3925
50.392
50.3914
50.3907
50.39
50.3892
50.3884
50.3876
50.3868
50.3862
50.3856
50.3852
50.3848
50.3847
50.3847
50.3849
50.3853
50.3859
50.3867
50.3876
50.3887
50.3899
50.3913
50.3928
50.3945
50.3962
50.398
50.3998
50.4018
50.4037
50.4058
50.4078
50.41
50.4121
50.4144
50.4167
50.419
50.4214
50.4238
50.4263
50.4289
50.4315
50.4341
50.4367
50.4393
50.4418
50.4443
50.4467
50.449
50.451
50.4529
50.4546
50.456
50.4572
50.4581
50.4588
50.4592
50.4594
50.4593
50.4591
50.4587
50.4582
50.4577
50.4571
50.4566
50.4561
50.4558
50.4555
50.4554
50.4555
50.4557
50.4562
50.4568
50.4576
50.4586
50.4598
50.461
50.4624
50.4639
50.4655
50.4671
50.4688
50.4705
50.4722
50.4739
50.4757
50.4773
50.479
50.4806
50.4822
50.4837
50.4852
50.4865
50.4877
50.4889
50.4899
50.4908
50.4915
50.4921
50.4925
50.4928
50.493
50.493
50.4929
50.4927
50.4924
50.4921
50.4917
50.4913
50.4909
50.4906
50.4903
50.4902
50.4902
50.4903
50.4905
50.491
50.4916
50.4923
50.4932
50.4943
50.4955
50.4968
50.4982
50.4998
50.5013
50.5029
50.5045
50.5062
50.5078
50.5093
50.5108
50.5122
50.5135
50.5147
50.5159
50.5169
50.5179
50.5187
50.5194
50.5201
50.5206
50.5211
50.5215
50.5218
50.5221
50.5223
50.5225
50.5227
50.5228
50.5229
50.5231
50.5232
50.5233
50.5234
50.5236
50.5238
50.5239
50.5242
50.5244
50.5247
50.525
50.5253
50.5256
50.526
50.5263
50.5267
50.5271
50.5274
50.5278
50.5281
50.5284
50.5287
50.5289
50.5291
50.5285
50.5322
50.4219
50.3578
50.136
49.9829
50.0017
50.1992
50.4391
50.5322
50.5437
50.5177
50.4563
50.4194
50.4023
50.3954
50.3931
50.3926
50.3926
50.3929
50.3931
50.3932
50.3932
50.3931
50.3928
50.3925
50.392
50.3914
50.3907
50.3899
50.3892
50.3884
50.3876
50.3868
50.3862
50.3856
50.3851
50.3848
50.3847
50.3847
50.3849
50.3853
50.3859
50.3866
50.3876
50.3887
50.3899
50.3913
50.3928
50.3944
50.3962
50.398
50.3998
50.4017
50.4037
50.4058
50.4078
50.41
50.4121
50.4144
50.4166
50.419
50.4214
50.4238
50.4263
50.4289
50.4315
50.4341
50.4367
50.4393
50.4418
50.4443
50.4467
50.4489
50.451
50.4529
50.4546
50.456
50.4572
50.4581
50.4588
50.4592
50.4593
50.4593