/*--------------------------------*- C++ -*----------------------------------*\
| =========                 |                                                 |
| \\      /  F ield         | OpenFOAM: The Open Source CFD Toolbox           |
|  \\    /   O peration     | Version:  3.0.x                                 |
|   \\  /    A nd           | Web:      www.OpenFOAM.org                      |
|    \\/     M anipulation  |                                                 |
\*---------------------------------------------------------------------------*/
FoamFile
{
    version     2.0;
    format      ascii;
    class       volVectorField;
    location    "0.04";
    object      U;
}
// * * * * * * * * * * * * * * * * * * * * * * * * * * * * * * * * * * * * * //

dimensions      [0 1 -1 0 0 0 0];

internalField   nonuniform List<vector> 
6900
(
(42.6983 0.000101581 0)
(42.6967 9.13393e-05 0)
(42.6951 8.51294e-05 0)
(42.6935 7.89099e-05 0)
(42.6921 6.9083e-05 0)
(42.691 5.64761e-05 0)
(42.69 4.29998e-05 0)
(42.6894 3.04572e-05 0)
(42.6889 2.00876e-05 0)
(42.6886 1.23685e-05 0)
(42.6885 7.1381e-06 0)
(42.6884 3.88324e-06 0)
(42.6883 2.00861e-06 0)
(42.6883 1.00279e-06 0)
(42.6883 4.9775e-07 0)
(42.6882 2.59162e-07 0)
(42.6882 1.52703e-07 0)
(42.6882 1.07669e-07 0)
(42.6882 8.95484e-08 0)
(42.6882 8.2597e-08 0)
(42.6882 8.00484e-08 0)
(42.6882 7.91508e-08 0)
(42.6882 7.88471e-08 0)
(42.6882 7.87494e-08 0)
(42.6882 7.87164e-08 0)
(42.6882 7.87084e-08 0)
(42.6882 7.87079e-08 0)
(42.6882 7.87093e-08 0)
(42.6881 7.87092e-08 0)
(42.6881 7.87079e-08 0)
(42.6881 7.87102e-08 0)
(42.6881 7.87126e-08 0)
(42.6881 7.87118e-08 0)
(42.6881 7.87136e-08 0)
(42.6881 7.8714e-08 0)
(42.6881 7.87166e-08 0)
(42.6881 7.87171e-08 0)
(42.6881 7.8717e-08 0)
(42.6881 7.8717e-08 0)
(42.6881 7.87215e-08 0)
(42.6881 7.87204e-08 0)
(42.6881 7.87224e-08 0)
(42.688 7.87194e-08 0)
(42.688 7.87193e-08 0)
(42.688 7.87237e-08 0)
(42.688 7.87255e-08 0)
(42.688 7.87233e-08 0)
(42.688 7.87216e-08 0)
(42.688 7.87248e-08 0)
(42.688 7.87263e-08 0)
(42.688 7.87277e-08 0)
(42.688 7.8727e-08 0)
(42.688 7.8727e-08 0)
(42.688 7.87303e-08 0)
(42.688 7.87304e-08 0)
(42.6879 7.87344e-08 0)
(42.6879 7.87352e-08 0)
(42.6879 7.87389e-08 0)
(42.6879 7.87378e-08 0)
(42.6879 7.87418e-08 0)
(42.6879 7.87404e-08 0)
(42.6879 7.87417e-08 0)
(42.6879 7.87471e-08 0)
(42.6878 7.87495e-08 0)
(42.6878 7.87581e-08 0)
(42.6878 7.87684e-08 0)
(42.6877 7.8781e-08 0)
(42.6876 7.87963e-08 0)
(42.6875 7.88202e-08 0)
(42.6873 7.88489e-08 0)
(42.6871 7.88931e-08 0)
(42.6868 7.89496e-08 0)
(42.6863 7.9026e-08 0)
(42.6857 7.91228e-08 0)
(42.6849 7.92489e-08 0)
(42.6838 7.94105e-08 0)
(42.6824 7.96115e-08 0)
(42.6805 7.98666e-08 0)
(42.678 8.0157e-08 0)
(42.6748 8.05449e-08 0)
(42.6707 8.09963e-08 0)
(42.6656 8.15193e-08 0)
(42.6592 8.21166e-08 0)
(42.6513 8.27847e-08 0)
(42.6417 8.35003e-08 0)
(42.6302 8.42621e-08 0)
(42.6165 8.50184e-08 0)
(42.6005 8.57285e-08 0)
(42.582 8.63263e-08 0)
(42.561 8.67326e-08 0)
(42.5375 8.6854e-08 0)
(42.5115 8.65828e-08 0)
(42.4834 8.58045e-08 0)
(42.4534 8.44051e-08 0)
(42.4222 8.22839e-08 0)
(42.3902 7.93618e-08 0)
(42.3583 7.55813e-08 0)
(42.3273 7.09446e-08 0)
(42.298 6.55034e-08 0)
(42.2713 5.9402e-08 0)
(42.248 5.28399e-08 0)
(42.2287 4.5887e-08 0)
(42.2141 3.83552e-08 0)
(42.2045 2.98235e-08 0)
(42.1998 1.97185e-08 0)
(42.1999 1.08426e-08 0)
(42.2043 1.08098e-09 0)
(42.2125 -4.19979e-09 0)
(42.2238 -7.56095e-09 0)
(42.2372 -9.89905e-09 0)
(42.2517 -1.06064e-08 0)
(42.2663 -9.5221e-09 0)
(42.2799 -7.84408e-09 0)
(42.2917 -5.13201e-09 0)
(42.3011 -1.28684e-09 0)
(42.3074 2.6814e-09 0)
(42.3106 6.53734e-09 0)
(42.3105 9.69625e-09 0)
(42.3073 1.45231e-08 0)
(42.3012 1.78324e-08 0)
(42.2925 2.05755e-08 0)
(42.2815 2.2813e-08 0)
(42.2688 2.38121e-08 0)
(42.2548 2.43154e-08 0)
(42.2399 2.44012e-08 0)
(42.2245 2.34823e-08 0)
(42.2089 2.23627e-08 0)
(42.1932 2.10093e-08 0)
(42.1778 1.90336e-08 0)
(42.1627 1.71197e-08 0)
(42.1479 1.51417e-08 0)
(42.1335 1.28333e-08 0)
(42.1196 1.06946e-08 0)
(42.106 8.58157e-09 0)
(42.0929 6.30656e-09 0)
(42.0802 4.20953e-09 0)
(42.0679 2.12355e-09 0)
(42.056 -3.98714e-10 0)
(42.0444 -2.63114e-09 0)
(42.0333 -4.68268e-09 0)
(42.0226 -6.81805e-09 0)
(42.0122 -8.95359e-09 0)
(42.0023 -1.10273e-08 0)
(41.9929 -1.30758e-08 0)
(41.9839 -1.51655e-08 0)
(41.9753 -1.71716e-08 0)
(41.9673 -1.91076e-08 0)
(41.9598 -2.11007e-08 0)
(41.9527 -2.30229e-08 0)
(41.9463 -2.48032e-08 0)
(41.9404 -2.66214e-08 0)
(41.935 -2.842e-08 0)
(41.9302 -3.00297e-08 0)
(41.926 -3.16341e-08 0)
(41.9224 -3.32303e-08 0)
(41.9194 -3.46426e-08 0)
(41.9169 -3.60108e-08 0)
(41.915 -3.73196e-08 0)
(41.9136 -3.85081e-08 0)
(41.9128 -3.96151e-08 0)
(41.9125 -4.05646e-08 0)
(41.9126 -4.13003e-08 0)
(41.9132 -4.23668e-08 0)
(41.9143 -4.29933e-08 0)
(41.9157 -4.3623e-08 0)
(41.9175 -4.4136e-08 0)
(41.9196 -4.45508e-08 0)
(41.922 -4.48339e-08 0)
(41.9247 -4.48701e-08 0)
(41.9275 -4.58484e-08 0)
(41.9304 -4.50678e-08 0)
(41.9334 -4.50647e-08 0)
(41.9363 -4.4944e-08 0)
(41.9393 -4.47238e-08 0)
(41.9421 -4.44129e-08 0)
(41.9447 -4.40531e-08 0)
(41.947 -4.36081e-08 0)
(41.9491 -4.31376e-08 0)
(41.9507 -4.26554e-08 0)
(41.952 -4.21256e-08 0)
(41.9527 -4.15868e-08 0)
(41.9529 -4.1249e-08 0)
(41.9525 -4.04384e-08 0)
(41.9515 -4.10285e-08 0)
(41.9499 -3.91027e-08 0)
(41.9477 -3.95789e-08 0)
(41.9448 -3.01011e-08 0)
(41.9414 -4.1543e-08 0)
(41.9374 -2.63777e-08 0)
(41.933 -4.71721e-08 0)
(41.9282 -2.76351e-08 0)
(41.9231 -3.47899e-08 0)
(41.918 6.03877e-08 0)
(41.9128 6.49968e-07 0)
(41.9078 5.04939e-06 0)
(41.9024 3.61877e-05 0)
(41.8928 0.000255119 0)
(41.8509 0.00180264 0)
(41.6721 0.0161981 0)
(39.1899 0.0845233 0)
(42.7001 0.000128948 0)
(42.7003 9.77051e-05 0)
(42.7004 8.19855e-05 0)
(42.7005 7.49137e-05 0)
(42.7006 6.53318e-05 0)
(42.7006 5.31799e-05 0)
(42.7007 4.04132e-05 0)
(42.7007 2.86305e-05 0)
(42.7007 1.89102e-05 0)
(42.7007 1.16668e-05 0)
(42.7007 6.74964e-06 0)
(42.7007 3.6823e-06 0)
(42.7007 1.91013e-06 0)
(42.7007 9.5586e-07 0)
(42.7007 4.7498e-07 0)
(42.7007 2.46886e-07 0)
(42.7007 1.44659e-07 0)
(42.7007 1.01208e-07 0)
(42.7007 8.36432e-08 0)
(42.7007 7.68671e-08 0)
(42.7007 7.43658e-08 0)
(42.7007 7.34855e-08 0)
(42.7007 7.31848e-08 0)
(42.7007 7.3088e-08 0)
(42.7007 7.30585e-08 0)
(42.7006 7.30501e-08 0)
(42.7006 7.30478e-08 0)
(42.7006 7.30467e-08 0)
(42.7006 7.30491e-08 0)
(42.7006 7.3048e-08 0)
(42.7006 7.30492e-08 0)
(42.7006 7.30497e-08 0)
(42.7006 7.30508e-08 0)
(42.7006 7.3052e-08 0)
(42.7006 7.30508e-08 0)
(42.7006 7.30515e-08 0)
(42.7006 7.3054e-08 0)
(42.7006 7.30566e-08 0)
(42.7005 7.30538e-08 0)
(42.7005 7.30541e-08 0)
(42.7005 7.30531e-08 0)
(42.7005 7.30577e-08 0)
(42.7005 7.30572e-08 0)
(42.7005 7.30597e-08 0)
(42.7005 7.30593e-08 0)
(42.7005 7.30583e-08 0)
(42.7005 7.306e-08 0)
(42.7005 7.30627e-08 0)
(42.7005 7.30627e-08 0)
(42.7005 7.30639e-08 0)
(42.7005 7.30637e-08 0)
(42.7005 7.30666e-08 0)
(42.7004 7.30676e-08 0)
(42.7004 7.30705e-08 0)
(42.7004 7.30709e-08 0)
(42.7004 7.30702e-08 0)
(42.7004 7.30725e-08 0)
(42.7004 7.30721e-08 0)
(42.7004 7.3075e-08 0)
(42.7004 7.30775e-08 0)
(42.7004 7.30812e-08 0)
(42.7004 7.30829e-08 0)
(42.7003 7.30936e-08 0)
(42.7003 7.31041e-08 0)
(42.7003 7.31161e-08 0)
(42.7002 7.31362e-08 0)
(42.7002 7.31628e-08 0)
(42.7001 7.32028e-08 0)
(42.7 7.32557e-08 0)
(42.6998 7.33293e-08 0)
(42.6996 7.343e-08 0)
(42.6992 7.35668e-08 0)
(42.6988 7.3746e-08 0)
(42.6982 7.39866e-08 0)
(42.6974 7.43001e-08 0)
(42.6963 7.47049e-08 0)
(42.6948 7.52244e-08 0)
(42.6929 7.58776e-08 0)
(42.6905 7.66926e-08 0)
(42.6873 7.76894e-08 0)
(42.6832 7.88916e-08 0)
(42.6781 8.03222e-08 0)
(42.6717 8.19957e-08 0)
(42.6638 8.39152e-08 0)
(42.6542 8.60696e-08 0)
(42.6427 8.8426e-08 0)
(42.629 9.09313e-08 0)
(42.613 9.34971e-08 0)
(42.5945 9.60111e-08 0)
(42.5735 9.83156e-08 0)
(42.5499 1.00228e-07 0)
(42.524 1.01538e-07 0)
(42.4959 1.02015e-07 0)
(42.4659 1.01424e-07 0)
(42.4346 9.95464e-08 0)
(42.4027 9.61965e-08 0)
(42.3708 9.12478e-08 0)
(42.3398 8.4648e-08 0)
(42.3105 7.64582e-08 0)
(42.2838 6.68417e-08 0)
(42.2604 5.60965e-08 0)
(42.2412 4.44007e-08 0)
(42.2266 3.17926e-08 0)
(42.2169 1.82754e-08 0)
(42.2123 4.03828e-09 0)
(42.2124 -5.52666e-09 0)
(42.2167 -1.60905e-08 0)
(42.225 -2.2148e-08 0)
(42.2363 -2.57101e-08 0)
(42.2497 -2.78357e-08 0)
(42.2642 -2.74703e-08 0)
(42.2787 -2.41904e-08 0)
(42.2923 -1.95955e-08 0)
(42.3042 -1.32602e-08 0)
(42.3135 -5.03896e-09 0)
(42.3199 3.34171e-09 0)
(42.323 1.01036e-08 0)
(42.3229 1.53374e-08 0)
(42.3198 2.35202e-08 0)
(42.3137 2.93908e-08 0)
(42.3049 3.39748e-08 0)
(42.294 3.75571e-08 0)
(42.2812 3.91495e-08 0)
(42.2672 3.97622e-08 0)
(42.2523 3.95371e-08 0)
(42.2369 3.77864e-08 0)
(42.2213 3.56233e-08 0)
(42.2057 3.30609e-08 0)
(42.1902 2.96784e-08 0)
(42.1751 2.6391e-08 0)
(42.1603 2.30693e-08 0)
(42.1459 1.93978e-08 0)
(42.132 1.60226e-08 0)
(42.1185 1.27677e-08 0)
(42.1053 9.3614e-09 0)
(42.0926 6.19808e-09 0)
(42.0803 3.05416e-09 0)
(42.0684 -5.34564e-10 0)
(42.0568 -3.14074e-09 0)
(42.0457 -5.399e-09 0)
(42.035 -7.75761e-09 0)
(42.0247 -1.01143e-08 0)
(42.0148 -1.24086e-08 0)
(42.0053 -1.47183e-08 0)
(41.9963 -1.70775e-08 0)
(41.9877 -1.93429e-08 0)
(41.9797 -2.15473e-08 0)
(41.9722 -2.38368e-08 0)
(41.9651 -2.60549e-08 0)
(41.9587 -2.81362e-08 0)
(41.9528 -3.02613e-08 0)
(41.9474 -3.2356e-08 0)
(41.9426 -3.42526e-08 0)
(41.9384 -3.61459e-08 0)
(41.9348 -3.80122e-08 0)
(41.9317 -3.96655e-08 0)
(41.9293 -4.12647e-08 0)
(41.9273 -4.27789e-08 0)
(41.926 -4.41482e-08 0)
(41.9252 -4.54088e-08 0)
(41.9248 -4.64441e-08 0)
(41.925 -4.71386e-08 0)
(41.9256 -4.84402e-08 0)
(41.9266 -4.90521e-08 0)
(41.9281 -4.96771e-08 0)
(41.9299 -5.01275e-08 0)
(41.932 -5.04422e-08 0)
(41.9344 -5.05749e-08 0)
(41.937 -5.01328e-08 0)
(41.9398 -5.11055e-08 0)
(41.9427 -5.00208e-08 0)
(41.9457 -4.98847e-08 0)
(41.9487 -4.93249e-08 0)
(41.9516 -4.86781e-08 0)
(41.9544 -4.79157e-08 0)
(41.957 -4.70713e-08 0)
(41.9594 -4.60875e-08 0)
(41.9614 -4.50493e-08 0)
(41.9631 -4.3968e-08 0)
(41.9643 -4.27954e-08 0)
(41.965 -4.15959e-08 0)
(41.9652 -4.06932e-08 0)
(41.9648 -3.90586e-08 0)
(41.9638 -3.95767e-08 0)
(41.9622 -3.59461e-08 0)
(41.96 -3.63111e-08 0)
(41.9571 -3.16014e-08 0)
(41.9537 -3.60405e-08 0)
(41.9497 -3.24107e-08 0)
(41.9453 -2.31216e-08 0)
(41.9405 -2.87264e-08 0)
(41.9354 7.94308e-08 0)
(41.9303 5.65134e-07 0)
(41.9251 4.28531e-06 0)
(41.9201 3.03193e-05 0)
(41.9148 0.000214213 0)
(41.9053 0.00150589 0)
(41.8645 0.0105087 0)
(41.691 0.0758331 0)
(39.773 0.362973 0)
(42.7001 -5.76325e-13 0)
(42.7002 -6.73271e-13 0)
(42.7003 -1.67323e-12 0)
(42.7004 -3.14739e-12 0)
(42.7005 -4.02295e-12 0)
(42.7006 -5.98318e-12 0)
(42.7007 -8.73072e-12 0)
(42.7007 -9.57792e-12 0)
(42.7007 -7.11963e-12 0)
(42.7007 -3.82824e-12 0)
(42.7007 -2.23805e-12 0)
(42.7007 -4.73728e-12 0)
(42.7007 -8.35787e-12 0)
(42.7007 -1.09666e-11 0)
(42.7007 -1.22248e-11 0)
(42.7007 -1.1127e-11 0)
(42.7007 -9.10132e-12 0)
(42.7007 -6.31806e-12 0)
(42.7007 -1.7371e-12 0)
(42.7007 1.39044e-12 0)
(42.7007 3.54067e-12 0)
(42.7007 4.68843e-12 0)
(42.7007 5.44707e-12 0)
(42.7007 4.89417e-12 0)
(42.7007 4.60228e-12 0)
(42.7006 3.3104e-12 0)
(42.7006 4.59601e-13 0)
(42.7006 -3.20796e-13 0)
(42.7006 -6.05984e-13 0)
(42.7006 -1.85375e-13 0)
(42.7006 3.93089e-14 0)
(42.7006 -1.03152e-12 0)
(42.7006 -1.64254e-12 0)
(42.7006 -1.40808e-12 0)
(42.7006 5.12617e-13 0)
(42.7006 1.88872e-12 0)
(42.7006 1.35133e-12 0)
(42.7006 1.0798e-13 0)
(42.7005 5.39485e-13 0)
(42.7005 1.54258e-12 0)
(42.7005 2.99256e-12 0)
(42.7005 4.9673e-12 0)
(42.7005 6.51052e-12 0)
(42.7005 5.81494e-12 0)
(42.7005 4.84641e-12 0)
(42.7005 5.84546e-12 0)
(42.7005 4.32166e-12 0)
(42.7005 2.81464e-12 0)
(42.7005 2.25222e-12 0)
(42.7005 1.25802e-12 0)
(42.7005 8.23196e-13 0)
(42.7005 -1.8712e-12 0)
(42.7004 -3.04177e-12 0)
(42.7004 -3.86126e-12 0)
(42.7004 -4.27572e-12 0)
(42.7004 -2.92135e-12 0)
(42.7004 -2.02667e-12 0)
(42.7004 -1.24189e-12 0)
(42.7004 -7.59273e-13 0)
(42.7004 9.33605e-14 0)
(42.7004 5.49537e-13 0)
(42.7004 7.45041e-13 0)
(42.7003 -4.06166e-13 0)
(42.7003 -1.34971e-12 0)
(42.7003 -1.24844e-12 0)
(42.7002 1.59433e-12 0)
(42.7002 4.59636e-12 0)
(42.7001 4.92437e-12 0)
(42.7 3.78506e-12 0)
(42.6998 1.76418e-12 0)
(42.6996 1.39116e-13 0)
(42.6992 -3.16535e-14 0)
(42.6988 3.66554e-14 0)
(42.6982 7.97289e-13 0)
(42.6974 1.64677e-12 0)
(42.6963 2.25092e-12 0)
(42.6948 1.69457e-12 0)
(42.6929 4.17041e-13 0)
(42.6905 -4.76874e-13 0)
(42.6873 -3.40511e-12 0)
(42.6832 -6.41825e-12 0)
(42.6781 -9.52684e-12 0)
(42.6717 -1.14997e-11 0)
(42.6638 -1.22749e-11 0)
(42.6542 -1.19452e-11 0)
(42.6427 -9.49205e-12 0)
(42.629 -7.2138e-12 0)
(42.613 -4.19551e-12 0)
(42.5945 -1.72146e-12 0)
(42.5735 1.68811e-12 0)
(42.5499 3.47115e-12 0)
(42.524 4.53671e-12 0)
(42.4959 2.74283e-12 0)
(42.4659 8.89635e-13 0)
(42.4346 -5.40977e-13 0)
(42.4027 4.5731e-13 0)
(42.3708 1.15195e-12 0)
(42.3398 1.75318e-12 0)
(42.3105 2.5615e-12 0)
(42.2838 1.77127e-12 0)
(42.2604 -2.67524e-13 0)
(42.2412 -4.97354e-12 0)
(42.2266 -4.96692e-12 0)
(42.2169 -2.88268e-12 0)
(42.2123 4.17121e-13 0)
(42.2124 4.22614e-12 0)
(42.2167 3.15021e-12 0)
(42.225 3.00175e-12 0)
(42.2363 2.15698e-12 0)
(42.2497 9.789e-12 0)
(42.2642 1.23898e-11 0)
(42.2787 1.23418e-11 0)
(42.2923 1.42756e-11 0)
(42.3042 1.40384e-11 0)
(42.3135 1.32319e-11 0)
(42.3199 9.70647e-12 0)
(42.323 4.69887e-12 0)
(42.3229 1.62631e-12 0)
(42.3198 1.85274e-12 0)
(42.3137 -5.9292e-13 0)
(42.3049 -7.9457e-13 0)
(42.294 -2.73432e-12 0)
(42.2812 -4.82964e-12 0)
(42.2672 -6.67483e-12 0)
(42.2523 -9.02077e-12 0)
(42.2369 -9.26587e-12 0)
(42.2213 -8.66447e-12 0)
(42.2057 -5.75413e-12 0)
(42.1902 -3.66313e-12 0)
(42.1751 -2.42773e-12 0)
(42.1603 1.34938e-12 0)
(42.1459 1.56977e-12 0)
(42.132 1.66022e-12 0)
(42.1185 -3.75773e-13 0)
(42.1053 -2.06042e-12 0)
(42.0926 -1.4972e-12 0)
(42.0803 1.43745e-12 0)
(42.0684 1.43525e-12 0)
(42.0568 1.44151e-12 0)
(42.0457 1.15054e-12 0)
(42.035 2.20173e-13 0)
(42.0247 2.0754e-12 0)
(42.0148 4.38414e-12 0)
(42.0053 5.58672e-12 0)
(41.9963 4.14044e-12 0)
(41.9877 4.93952e-12 0)
(41.9797 5.67549e-12 0)
(41.9722 5.76362e-12 0)
(41.9651 5.93261e-12 0)
(41.9587 3.17374e-12 0)
(41.9528 2.01022e-12 0)
(41.9474 1.42991e-12 0)
(41.9426 -3.65638e-13 0)
(41.9384 -1.64398e-12 0)
(41.9348 -2.85225e-12 0)
(41.9317 -3.53452e-12 0)
(41.9293 -1.05774e-12 0)
(41.9273 -1.94645e-12 0)
(41.926 -1.58614e-12 0)
(41.9252 -4.68142e-12 0)
(41.9248 -3.64239e-12 0)
(41.925 -2.64234e-14 0)
(41.9256 -2.99322e-14 0)
(41.9266 -3.24494e-13 0)
(41.9281 1.05802e-12 0)
(41.9299 2.85381e-12 0)
(41.932 1.53412e-12 0)
(41.9344 5.11206e-13 0)
(41.937 -1.45162e-12 0)
(41.9398 -2.46785e-12 0)
(41.9427 -3.70899e-12 0)
(41.9457 -3.69605e-12 0)
(41.9487 -3.47806e-12 0)
(41.9516 -1.00588e-12 0)
(41.9544 -1.24164e-12 0)
(41.957 -1.49152e-12 0)
(41.9594 -1.36543e-12 0)
(41.9614 -1.56024e-12 0)
(41.9631 -1.85846e-12 0)
(41.9643 -3.49489e-12 0)
(41.965 -3.88501e-12 0)
(41.9652 -8.27965e-12 0)
(41.9648 3.8147e-11 0)
(41.9638 -2.4721e-10 0)
(41.9622 1.15968e-10 0)
(41.96 -4.22665e-10 0)
(41.9571 -6.27874e-09 0)
(41.9537 1.44362e-10 0)
(41.9497 -1.0378e-08 0)
(41.9453 1.64616e-08 0)
(41.9405 9.23086e-09 0)
(41.9354 2.02081e-07 0)
(41.9303 1.19711e-06 0)
(41.9252 8.70646e-06 0)
(41.9202 6.18197e-05 0)
(41.9156 0.000440932 0)
(41.9113 0.00313859 0)
(41.9057 0.0221975 0)
(41.8858 0.157387 0)
(41.7328 0.722542 0)
(42.7001 -0.000128948 0)
(42.7003 -9.77051e-05 0)
(42.7004 -8.19855e-05 0)
(42.7005 -7.49137e-05 0)
(42.7006 -6.53318e-05 0)
(42.7006 -5.31799e-05 0)
(42.7007 -4.04131e-05 0)
(42.7007 -2.86305e-05 0)
(42.7007 -1.89102e-05 0)
(42.7007 -1.16668e-05 0)
(42.7007 -6.74963e-06 0)
(42.7007 -3.68229e-06 0)
(42.7007 -1.91012e-06 0)
(42.7007 -9.55855e-07 0)
(42.7007 -4.74975e-07 0)
(42.7007 -2.46882e-07 0)
(42.7007 -1.44655e-07 0)
(42.7007 -1.01211e-07 0)
(42.7007 -8.36442e-08 0)
(42.7007 -7.68696e-08 0)
(42.7007 -7.43697e-08 0)
(42.7007 -7.34853e-08 0)
(42.7007 -7.31854e-08 0)
(42.7007 -7.30848e-08 0)
(42.7007 -7.30575e-08 0)
(42.7006 -7.30485e-08 0)
(42.7006 -7.30471e-08 0)
(42.7006 -7.30468e-08 0)
(42.7006 -7.30483e-08 0)
(42.7006 -7.30502e-08 0)
(42.7006 -7.30493e-08 0)
(42.7006 -7.3051e-08 0)
(42.7006 -7.30489e-08 0)
(42.7006 -7.30512e-08 0)
(42.7006 -7.30529e-08 0)
(42.7006 -7.3053e-08 0)
(42.7006 -7.30533e-08 0)
(42.7006 -7.30529e-08 0)
(42.7005 -7.30555e-08 0)
(42.7005 -7.30552e-08 0)
(42.7005 -7.30555e-08 0)
(42.7005 -7.30579e-08 0)
(42.7005 -7.30586e-08 0)
(42.7005 -7.30593e-08 0)
(42.7005 -7.30602e-08 0)
(42.7005 -7.30615e-08 0)
(42.7005 -7.30626e-08 0)
(42.7005 -7.30625e-08 0)
(42.7005 -7.30639e-08 0)
(42.7005 -7.30627e-08 0)
(42.7005 -7.30625e-08 0)
(42.7005 -7.30651e-08 0)
(42.7004 -7.30636e-08 0)
(42.7004 -7.30661e-08 0)
(42.7004 -7.3068e-08 0)
(42.7004 -7.30685e-08 0)
(42.7004 -7.30697e-08 0)
(42.7004 -7.30715e-08 0)
(42.7004 -7.30744e-08 0)
(42.7004 -7.30787e-08 0)
(42.7004 -7.30786e-08 0)
(42.7004 -7.30821e-08 0)
(42.7003 -7.30912e-08 0)
(42.7003 -7.31035e-08 0)
(42.7003 -7.3118e-08 0)
(42.7002 -7.31405e-08 0)
(42.7002 -7.31629e-08 0)
(42.7001 -7.32061e-08 0)
(42.7 -7.32568e-08 0)
(42.6998 -7.33301e-08 0)
(42.6996 -7.34304e-08 0)
(42.6992 -7.35639e-08 0)
(42.6988 -7.3747e-08 0)
(42.6982 -7.3989e-08 0)
(42.6974 -7.43007e-08 0)
(42.6963 -7.47064e-08 0)
(42.6948 -7.52253e-08 0)
(42.6929 -7.58777e-08 0)
(42.6905 -7.66898e-08 0)
(42.6873 -7.76851e-08 0)
(42.6832 -7.88881e-08 0)
(42.6781 -8.03207e-08 0)
(42.6717 -8.19946e-08 0)
(42.6638 -8.3914e-08 0)
(42.6542 -8.60674e-08 0)
(42.6427 -8.84245e-08 0)
(42.629 -9.09298e-08 0)
(42.613 -9.34964e-08 0)
(42.5945 -9.60119e-08 0)
(42.5735 -9.83174e-08 0)
(42.5499 -1.00228e-07 0)
(42.524 -1.01538e-07 0)
(42.4959 -1.02016e-07 0)
(42.4659 -1.01424e-07 0)
(42.4346 -9.95423e-08 0)
(42.4027 -9.6196e-08 0)
(42.3708 -9.12481e-08 0)
(42.3398 -8.4649e-08 0)
(42.3105 -7.64575e-08 0)
(42.2838 -6.68424e-08 0)
(42.2604 -5.60981e-08 0)
(42.2412 -4.43986e-08 0)
(42.2266 -3.17921e-08 0)
(42.2169 -1.82732e-08 0)
(42.2123 -4.03902e-09 0)
(42.2124 5.52654e-09 0)
(42.2167 1.60909e-08 0)
(42.225 2.21469e-08 0)
(42.2363 2.57118e-08 0)
(42.2497 2.78305e-08 0)
(42.2642 2.74669e-08 0)
(42.2787 2.41886e-08 0)
(42.2923 1.95918e-08 0)
(42.3042 1.32588e-08 0)
(42.3135 5.03571e-09 0)
(42.3199 -3.34402e-09 0)
(42.323 -1.0103e-08 0)
(42.3229 -1.53377e-08 0)
(42.3198 -2.35195e-08 0)
(42.3137 -2.93902e-08 0)
(42.3049 -3.39755e-08 0)
(42.294 -3.75559e-08 0)
(42.2812 -3.91495e-08 0)
(42.2672 -3.97603e-08 0)
(42.2523 -3.95371e-08 0)
(42.2369 -3.77848e-08 0)
(42.2213 -3.56215e-08 0)
(42.2057 -3.306e-08 0)
(42.1902 -2.96782e-08 0)
(42.1751 -2.63894e-08 0)
(42.1603 -2.30719e-08 0)
(42.1459 -1.93984e-08 0)
(42.132 -1.60239e-08 0)
(42.1185 -1.27664e-08 0)
(42.1053 -9.35844e-09 0)
(42.0926 -6.19779e-09 0)
(42.0803 -3.05488e-09 0)
(42.0684 5.33067e-10 0)
(42.0568 3.13923e-09 0)
(42.0457 5.39673e-09 0)
(42.035 7.75777e-09 0)
(42.0247 1.01147e-08 0)
(42.0148 1.24085e-08 0)
(42.0053 1.47165e-08 0)
(41.9963 1.70768e-08 0)
(41.9877 1.93425e-08 0)
(41.9797 2.15461e-08 0)
(41.9722 2.38335e-08 0)
(41.9651 2.60549e-08 0)
(41.9587 2.81369e-08 0)
(41.9528 3.02636e-08 0)
(41.9474 3.23597e-08 0)
(41.9426 3.42534e-08 0)
(41.9384 3.61458e-08 0)
(41.9348 3.80106e-08 0)
(41.9317 3.96687e-08 0)
(41.9293 4.12649e-08 0)
(41.9273 4.27798e-08 0)
(41.926 4.41459e-08 0)
(41.9252 4.54115e-08 0)
(41.9248 4.64451e-08 0)
(41.925 4.71389e-08 0)
(41.9256 4.84388e-08 0)
(41.9266 4.90537e-08 0)
(41.9281 4.96761e-08 0)
(41.9299 5.01263e-08 0)
(41.932 5.04425e-08 0)
(41.9344 5.05751e-08 0)
(41.937 5.01358e-08 0)
(41.9398 5.11075e-08 0)
(41.9427 5.00224e-08 0)
(41.9457 4.98832e-08 0)
(41.9487 4.93266e-08 0)
(41.9516 4.86764e-08 0)
(41.9544 4.79153e-08 0)
(41.957 4.70711e-08 0)
(41.9594 4.60888e-08 0)
(41.9614 4.50478e-08 0)
(41.9631 4.39683e-08 0)
(41.9643 4.27959e-08 0)
(41.965 4.15956e-08 0)
(41.9652 4.06608e-08 0)
(41.9648 3.92532e-08 0)
(41.9638 3.87082e-08 0)
(41.9622 3.65521e-08 0)
(41.96 3.5613e-08 0)
(41.9571 3.42754e-08 0)
(41.9537 3.34244e-08 0)
(41.9497 3.25407e-08 0)
(41.9453 3.17665e-08 0)
(41.9405 4.92555e-08 0)
(41.9354 1.45367e-07 0)
(41.9303 8.62762e-07 0)
(41.9252 6.03947e-06 0)
(41.9204 4.32039e-05 0)
(41.9169 0.000310383 0)
(41.9205 0.00223448 0)
(41.9726 0.0162144 0)
(42.1742 0.133765 0)
(45.2788 0.564007 0)
(42.6983 -0.000101581 0)
(42.6967 -9.13393e-05 0)
(42.6951 -8.51294e-05 0)
(42.6935 -7.89099e-05 0)
(42.6921 -6.90831e-05 0)
(42.691 -5.64761e-05 0)
(42.69 -4.29998e-05 0)
(42.6894 -3.04571e-05 0)
(42.6889 -2.00876e-05 0)
(42.6886 -1.23685e-05 0)
(42.6885 -7.13811e-06 0)
(42.6884 -3.88325e-06 0)
(42.6883 -2.00861e-06 0)
(42.6883 -1.00279e-06 0)
(42.6883 -4.97755e-07 0)
(42.6882 -2.59166e-07 0)
(42.6882 -1.52704e-07 0)
(42.6882 -1.07668e-07 0)
(42.6882 -8.95466e-08 0)
(42.6882 -8.25948e-08 0)
(42.6882 -8.00444e-08 0)
(42.6882 -7.91477e-08 0)
(42.6882 -7.88512e-08 0)
(42.6882 -7.87517e-08 0)
(42.6882 -7.87177e-08 0)
(42.6882 -7.87084e-08 0)
(42.6882 -7.87062e-08 0)
(42.6882 -7.87086e-08 0)
(42.6881 -7.87076e-08 0)
(42.6881 -7.87079e-08 0)
(42.6881 -7.87116e-08 0)
(42.6881 -7.87106e-08 0)
(42.6881 -7.87126e-08 0)
(42.6881 -7.87121e-08 0)
(42.6881 -7.87164e-08 0)
(42.6881 -7.87142e-08 0)
(42.6881 -7.87144e-08 0)
(42.6881 -7.87189e-08 0)
(42.6881 -7.87163e-08 0)
(42.6881 -7.87159e-08 0)
(42.6881 -7.87171e-08 0)
(42.6881 -7.87194e-08 0)
(42.688 -7.87223e-08 0)
(42.688 -7.87226e-08 0)
(42.688 -7.87238e-08 0)
(42.688 -7.87224e-08 0)
(42.688 -7.87252e-08 0)
(42.688 -7.87247e-08 0)
(42.688 -7.87257e-08 0)
(42.688 -7.87273e-08 0)
(42.688 -7.87262e-08 0)
(42.688 -7.87288e-08 0)
(42.688 -7.87311e-08 0)
(42.688 -7.87319e-08 0)
(42.688 -7.87309e-08 0)
(42.6879 -7.87341e-08 0)
(42.6879 -7.87336e-08 0)
(42.6879 -7.87354e-08 0)
(42.6879 -7.87384e-08 0)
(42.6879 -7.87384e-08 0)
(42.6879 -7.87393e-08 0)
(42.6879 -7.87405e-08 0)
(42.6879 -7.87481e-08 0)
(42.6878 -7.87517e-08 0)
(42.6878 -7.87561e-08 0)
(42.6878 -7.87664e-08 0)
(42.6877 -7.87769e-08 0)
(42.6876 -7.87967e-08 0)
(42.6875 -7.88235e-08 0)
(42.6873 -7.88504e-08 0)
(42.6871 -7.88991e-08 0)
(42.6868 -7.89526e-08 0)
(42.6863 -7.90269e-08 0)
(42.6857 -7.91218e-08 0)
(42.6849 -7.92492e-08 0)
(42.6838 -7.94135e-08 0)
(42.6824 -7.9613e-08 0)
(42.6805 -7.98671e-08 0)
(42.678 -8.01779e-08 0)
(42.6748 -8.05532e-08 0)
(42.6707 -8.09987e-08 0)
(42.6656 -8.1521e-08 0)
(42.6592 -8.21136e-08 0)
(42.6513 -8.27846e-08 0)
(42.6417 -8.35059e-08 0)
(42.6302 -8.42596e-08 0)
(42.6165 -8.50177e-08 0)
(42.6005 -8.57261e-08 0)
(42.582 -8.63269e-08 0)
(42.561 -8.67333e-08 0)
(42.5375 -8.68542e-08 0)
(42.5115 -8.65811e-08 0)
(42.4834 -8.58041e-08 0)
(42.4534 -8.44064e-08 0)
(42.4222 -8.22899e-08 0)
(42.3902 -7.93614e-08 0)
(42.3583 -7.55802e-08 0)
(42.3273 -7.09427e-08 0)
(42.298 -6.55055e-08 0)
(42.2713 -5.93986e-08 0)
(42.248 -5.28381e-08 0)
(42.2287 -4.58909e-08 0)
(42.2141 -3.83565e-08 0)
(42.2045 -2.98241e-08 0)
(42.1998 -1.97172e-08 0)
(42.1999 -1.08414e-08 0)
(42.2043 -1.08243e-09 0)
(42.2125 4.20082e-09 0)
(42.2238 7.5619e-09 0)
(42.2372 9.90474e-09 0)
(42.2517 1.06096e-08 0)
(42.2663 9.52181e-09 0)
(42.2799 7.84665e-09 0)
(42.2917 5.13411e-09 0)
(42.3011 1.28826e-09 0)
(42.3074 -2.67943e-09 0)
(42.3106 -6.5362e-09 0)
(42.3105 -9.69779e-09 0)
(42.3073 -1.45253e-08 0)
(42.3012 -1.78315e-08 0)
(42.2925 -2.05768e-08 0)
(42.2815 -2.28149e-08 0)
(42.2688 -2.38143e-08 0)
(42.2548 -2.43153e-08 0)
(42.2399 -2.44024e-08 0)
(42.2245 -2.34824e-08 0)
(42.2089 -2.23651e-08 0)
(42.1932 -2.10085e-08 0)
(42.1778 -1.90342e-08 0)
(42.1627 -1.71206e-08 0)
(42.1479 -1.51408e-08 0)
(42.1335 -1.28307e-08 0)
(42.1196 -1.06928e-08 0)
(42.106 -8.58003e-09 0)
(42.0929 -6.3099e-09 0)
(42.0802 -4.20779e-09 0)
(42.0679 -2.12018e-09 0)
(42.056 4.00504e-10 0)
(42.0444 2.63184e-09 0)
(42.0333 4.68315e-09 0)
(42.0226 6.8177e-09 0)
(42.0122 8.95241e-09 0)
(42.0023 1.10258e-08 0)
(41.9929 1.30779e-08 0)
(41.9839 1.51647e-08 0)
(41.9753 1.71703e-08 0)
(41.9673 1.91103e-08 0)
(41.9598 2.1104e-08 0)
(41.9527 2.30239e-08 0)
(41.9463 2.48046e-08 0)
(41.9404 2.66186e-08 0)
(41.935 2.84158e-08 0)
(41.9302 3.00295e-08 0)
(41.926 3.16336e-08 0)
(41.9224 3.32302e-08 0)
(41.9194 3.46402e-08 0)
(41.9169 3.60082e-08 0)
(41.915 3.73173e-08 0)
(41.9136 3.85103e-08 0)
(41.9128 3.96136e-08 0)
(41.9125 4.0563e-08 0)
(41.9126 4.13e-08 0)
(41.9132 4.23699e-08 0)
(41.9143 4.29885e-08 0)
(41.9157 4.36226e-08 0)
(41.9175 4.41364e-08 0)
(41.9196 4.45472e-08 0)
(41.922 4.48313e-08 0)
(41.9247 4.48683e-08 0)
(41.9275 4.58478e-08 0)
(41.9304 4.50652e-08 0)
(41.9334 4.50636e-08 0)
(41.9363 4.49432e-08 0)
(41.9393 4.47243e-08 0)
(41.9421 4.44109e-08 0)
(41.9447 4.40517e-08 0)
(41.947 4.36093e-08 0)
(41.9491 4.31382e-08 0)
(41.9507 4.26555e-08 0)
(41.952 4.21238e-08 0)
(41.9527 4.15843e-08 0)
(41.9529 4.12211e-08 0)
(41.9525 4.06003e-08 0)
(41.9515 4.04002e-08 0)
(41.9499 3.9587e-08 0)
(41.9477 3.93037e-08 0)
(41.9448 3.90563e-08 0)
(41.9414 3.8775e-08 0)
(41.9374 3.68915e-08 0)
(41.933 3.93319e-08 0)
(41.9282 3.8951e-08 0)
(41.9231 5.7476e-08 0)
(41.918 1.70474e-07 0)
(41.9129 9.68619e-07 0)
(41.9081 6.65651e-06 0)
(41.9046 4.75004e-05 0)
(41.9085 0.000347175 0)
(41.9635 0.00274764 0)
(42.1801 0.0387392 0)
(47.3809 0.159487 0)
(37.8024 1.28463 -3.15949e-15)
(36.7478 3.68511 6.33695e-15)
(36.3483 6.42213 -1.18802e-14)
(35.9673 9.20014 2.45421e-14)
(35.3624 11.9621 -2.53145e-14)
(34.5429 14.6942 -1.58078e-15)
(33.469 17.345 1.01007e-19)
(32.0297 19.8167 -2.21226e-14)
(30.2016 22.0304 -1.02769e-13)
(28.243 24.1357 1.01279e-13)
(26.7581 26.7292 -2.51906e-14)
(25.9113 30.2971 -5.14915e-14)
(25.1352 34.6465 2.62566e-14)
(23.7229 38.9148 0)
(21.3172 41.803 2.45123e-14)
(18.0749 43.0267 2.45121e-14)
(14.532 43.2665 -2.45719e-14)
(10.9675 42.976 2.4664e-14)
(7.52479 42.2298 1.93611e-16)
(4.32233 43.085 -1.91662e-16)
(38.9171 2.01876 0)
(38.2973 4.93054 0)
(37.9051 8.14274 -1.60875e-15)
(37.415 11.3397 -3.21361e-15)
(36.6755 14.4934 8.02235e-15)
(35.6749 17.6351 1.60218e-14)
(34.3204 20.7852 0)
(32.4957 23.7873 9.604e-15)
(30.253 26.3951 1.60071e-14)
(28.0244 28.4735 -3.84564e-14)
(26.6032 30.4652 2.54606e-14)
(25.8365 33.3538 1.26019e-14)
(24.8803 37.4096 -1.24602e-14)
(22.7491 42.1985 1.23685e-14)
(19.0565 46.2985 0)
(14.6055 48.3878 -1.54471e-15)
(9.97578 48.9987 1.54468e-15)
(5.3584 48.6152 -5.41877e-15)
(0.9895 47.1836 -7.77983e-16)
(0.753019 45.6126 0)
(41.6847 1.58829 -4.10324e-17)
(41.6864 2.61896 -2.08529e-14)
(41.7908 3.66484 2.11789e-14)
(41.9811 4.70289 -2.03564e-14)
(42.2097 5.80098 -2.23288e-14)
(42.4432 7.02895 8.31132e-14)
(42.664 8.43775 -4.20737e-14)
(42.8429 10.0888 4.07739e-14)
(42.9007 12.0369 -8.28915e-14)
(42.6999 14.3055 1.32402e-15)
(42.0702 16.8112 4.08296e-14)
(41.0963 19.2698 0)
(40.0963 21.4649 -4.09438e-14)
(39.4089 23.3904 4.10362e-14)
(39.0815 25.3284 -3.31336e-16)
(38.6926 27.5987 0)
(37.8871 30.1907 3.31515e-16)
(36.5288 32.9818 0)
(34.53 35.8725 0)
(31.849 38.6692 0)
(45.8091 2.59305 6.27881e-16)
(45.5356 5.96367 -6.2993e-15)
(44.5274 9.97349 -1.26249e-15)
(43.338 14.0884 2.52224e-15)
(42.2562 18.1478 -2.51146e-15)
(41.2153 22.1425 -4.74201e-19)
(40.0479 26.067 -9.92979e-15)
(38.6024 29.8772 0)
(36.843 33.5571 0)
(34.7733 37.1019 -4.88502e-15)
(32.3733 40.467 4.8598e-15)
(29.6634 43.6528 0)
(26.6293 46.6137 -4.81192e-15)
(23.278 49.3078 4.79527e-15)
(19.6285 51.6896 -4.77932e-15)
(15.7236 53.7155 9.52913e-15)
(11.6216 55.3558 -4.75465e-15)
(7.39901 56.5929 0)
(3.15334 57.4424 -2.36563e-15)
(-0.698412 57.8797 0)
(48.8222 1.79219 -9.57633e-16)
(49.7777 4.59365 7.34086e-15)
(49.4818 7.95923 5.10696e-15)
(48.6716 11.4873 1.02061e-14)
(47.8472 15.1456 0)
(47.0286 18.9326 0)
(46.0761 22.8006 1.01055e-14)
(44.8635 26.6667 2.51507e-15)
(43.3245 30.5153 -5.00725e-15)
(41.4671 34.2828 2.49314e-15)
(39.2567 37.9433 1.98566e-14)
(36.7182 41.4445 -1.236e-14)
(33.8494 44.7233 1.23185e-14)
(30.6607 47.7142 -2.4556e-15)
(27.1703 50.3572 -9.8011e-15)
(23.4063 52.6028 -1.7132e-14)
(19.4123 54.4046 -8.56178e-15)
(15.2336 55.7005 -1.22322e-15)
(10.9595 56.3641 7.04167e-15)
(6.85172 56.0604 3.07115e-16)
(1.17888 53.7984 0)
(0.754323 60.7004 0)
(0.957585 62.0768 0)
(0.962486 59.6859 0)
(0.935732 56.2369 0)
(0.875377 53.09 0)
(0.777532 50.636 0)
(0.646427 48.8023 0)
(0.505128 47.3778 0)
(0.371817 46.1835 0)
(0.255776 45.1419 0)
(0.164227 44.251 0)
(0.0987698 43.5303 0)
(0.0557154 42.9873 0)
(0.0295578 42.6079 0)
(0.0147863 42.3612 0)
(0.00698753 42.2115 0)
(0.00312263 42.1265 0)
(0.00131902 42.0816 0)
(0.000525718 42.0598 0)
(0.000196936 42.0505 0)
(6.88151e-05 42.0476 0)
(2.20669e-05 42.0477 0)
(6.28732e-06 42.0491 0)
(1.40394e-06 42.051 0)
(8.77902e-08 42.0529 0)
(-1.88516e-07 42.0547 0)
(-2.09834e-07 42.0563 0)
(-1.89201e-07 42.0576 0)
(-1.72291e-07 42.0587 0)
(-1.63202e-07 42.0595 0)
(-1.58968e-07 42.06 0)
(-1.571e-07 42.0603 0)
(-1.56187e-07 42.0602 0)
(-1.55767e-07 42.0599 0)
(-1.55435e-07 42.0593 0)
(-1.55532e-07 42.0584 0)
(-1.55393e-07 42.0573 0)
(-1.55405e-07 42.0558 0)
(-1.55471e-07 42.0541 0)
(-1.55583e-07 42.0521 0)
(-1.55772e-07 42.0498 0)
(-1.56057e-07 42.0472 0)
(-1.56417e-07 42.0442 0)
(-1.56839e-07 42.0409 0)
(-1.57179e-07 42.0371 0)
(-1.57818e-07 42.0329 0)
(-1.58404e-07 42.0281 0)
(-1.59139e-07 42.0228 0)
(-1.59814e-07 42.0167 0)
(-1.60588e-07 42.0099 0)
(-1.62078e-07 42.0022 0)
(-1.62695e-07 41.9936 0)
(-1.63397e-07 41.9839 0)
(-1.64364e-07 41.9731 0)
(-1.65377e-07 41.961 0)
(-1.66345e-07 41.9477 0)
(-1.67248e-07 41.9329 0)
(-1.68055e-07 41.9168 0)
(-1.68733e-07 41.8992 0)
(-1.69238e-07 41.8802 0)
(-1.69518e-07 41.8598 0)
(-1.69486e-07 41.8382 0)
(-1.69084e-07 41.8155 0)
(-1.68287e-07 41.7919 0)
(-1.67051e-07 41.7677 0)
(-1.65334e-07 41.7431 0)
(-1.63057e-07 41.7186 0)
(-1.60216e-07 41.6945 0)
(-1.5683e-07 41.6712 0)
(-1.52928e-07 41.6492 0)
(-1.48569e-07 41.6289 0)
(-1.43798e-07 41.6107 0)
(-1.38719e-07 41.5951 0)
(-1.3341e-07 41.5823 0)
(-1.27936e-07 41.5727 0)
(-1.22353e-07 41.5663 0)
(-1.16722e-07 41.5635 0)
(-1.11092e-07 41.564 0)
(-1.05653e-07 41.568 0)
(-1.00536e-07 41.5751 0)
(-9.66114e-08 41.5851 0)
(-9.178e-08 41.5975 0)
(-8.85424e-08 41.6121 0)
(-8.60862e-08 41.6282 0)
(-8.45247e-08 41.6455 0)