/*--------------------------------*- C++ -*----------------------------------*\
| =========                 |                                                 |
| \\      /  F ield         | OpenFOAM: The Open Source CFD Toolbox           |
|  \\    /   O peration     | Version:  3.0.x                                 |
|   \\  /    A nd           | Web:      www.OpenFOAM.org                      |
|    \\/     M anipulation  |                                                 |
\*---------------------------------------------------------------------------*/
FoamFile
{
    version     2.0;
    format      ascii;
    class       volVectorField;
    location    "0.39";
    object      U;
}
// * * * * * * * * * * * * * * * * * * * * * * * * * * * * * * * * * * * * * //

dimensions      [0 1 -1 0 0 0 0];

internalField   nonuniform List<vector> 
27600
(
(42.685 0.000288118 0)
(42.6702 0.000241396 0)
(42.6554 0.000238368 0)
(42.6405 0.000240609 0)
(42.6255 0.000242861 0)
(42.6106 0.000244883 0)
(42.5957 0.000246654 0)
(42.5808 0.000248189 0)
(42.5659 0.000249526 0)
(42.551 0.000250701 0)
(42.5361 0.000251744 0)
(42.5212 0.000252677 0)
(42.5063 0.000253517 0)
(42.4914 0.00025428 0)
(42.4765 0.000254975 0)
(42.4616 0.000255611 0)
(42.4467 0.000256196 0)
(42.4318 0.000256735 0)
(42.4169 0.000257234 0)
(42.4021 0.000257696 0)
(42.3872 0.000258119 0)
(42.3723 0.000258536 0)
(42.3575 0.000258904 0)
(42.3426 0.000259252 0)
(42.3277 0.000259573 0)
(42.3129 0.00025988 0)
(42.298 0.000260222 0)
(42.2832 0.000260432 0)
(42.2683 0.0002607 0)
(42.2535 0.000260939 0)
(42.2387 0.000261159 0)
(42.2238 0.000261364 0)
(42.209 0.000261548 0)
(42.1942 0.000261736 0)
(42.1794 0.000261888 0)
(42.1645 0.000262058 0)
(42.1497 0.00026218 0)
(42.1349 0.000262306 0)
(42.1201 0.000262416 0)
(42.1053 0.000262517 0)
(42.0905 0.000262561 0)
(42.0757 0.0002626 0)
(42.0609 0.000262593 0)
(42.0462 0.000262523 0)
(42.0314 0.00026237 0)
(42.0167 0.000262104 0)
(42.0019 0.000261687 0)
(41.9872 0.000261071 0)
(41.9726 0.000260192 0)
(41.958 0.000259007 0)
(41.9435 0.000257393 0)
(41.9292 0.000255296 0)
(41.9149 0.000252681 0)
(41.9009 0.000249295 0)
(41.887 0.000245159 0)
(41.8735 0.000240233 0)
(41.8602 0.000234376 0)
(41.8474 0.000227562 0)
(41.8349 0.000219773 0)
(41.823 0.000211018 0)
(41.8116 0.000201339 0)
(41.8008 0.000190809 0)
(41.7906 0.000179535 0)
(41.781 0.000167651 0)
(41.7722 0.000155316 0)
(41.7641 0.000142704 0)
(41.7567 0.000129999 0)
(41.75 0.000117385 0)
(41.744 0.00010504 0)
(41.7387 9.31256e-05 0)
(41.734 8.17914e-05 0)
(41.7299 7.11514e-05 0)
(41.7264 6.12976e-05 0)
(41.7234 5.22923e-05 0)
(41.7208 4.41696e-05 0)
(41.7187 3.69369e-05 0)
(41.7169 3.05782e-05 0)
(41.7155 2.50575e-05 0)
(41.7143 2.03234e-05 0)
(41.7133 1.63132e-05 0)
(41.7125 1.29566e-05 0)
(41.7119 1.01805e-05 0)
(41.7114 7.91183e-06 0)
(41.711 6.07833e-06 0)
(41.7107 4.61351e-06 0)
(41.7105 3.45765e-06 0)
(41.7103 2.55447e-06 0)
(41.7102 1.85671e-06 0)
(41.7101 1.32364e-06 0)
(41.71 9.20677e-07 0)
(41.7099 6.19262e-07 0)
(41.7099 3.96118e-07 0)
(41.7098 2.32491e-07 0)
(41.7098 1.13061e-07 0)
(41.7098 2.67697e-08 0)
(41.7097 -3.38163e-08 0)
(41.7097 -7.52001e-08 0)
(41.7097 -1.03091e-07 0)
(41.7097 -1.21721e-07 0)
(41.7097 -1.34061e-07 0)
(41.7097 -1.42154e-07 0)
(41.7097 -1.47427e-07 0)
(41.7097 -1.50818e-07 0)
(41.7097 -1.53014e-07 0)
(41.7097 -1.54411e-07 0)
(41.7097 -1.55279e-07 0)
(41.7097 -1.55827e-07 0)
(41.7097 -1.56179e-07 0)
(41.7098 -1.56423e-07 0)
(41.7098 -1.56512e-07 0)
(41.7098 -1.56638e-07 0)
(41.7098 -1.56695e-07 0)
(41.7098 -1.56723e-07 0)
(41.7098 -1.56724e-07 0)
(41.7098 -1.56684e-07 0)
(41.7098 -1.56599e-07 0)
(41.7099 -1.56495e-07 0)
(41.7099 -1.56352e-07 0)
(41.7099 -1.56181e-07 0)
(41.7099 -1.55991e-07 0)
(41.7099 -1.55812e-07 0)
(41.7099 -1.55647e-07 0)
(41.7099 -1.55485e-07 0)
(41.7099 -1.55337e-07 0)
(41.7099 -1.55222e-07 0)
(41.7099 -1.55115e-07 0)
(41.7099 -1.5503e-07 0)
(41.7099 -1.5496e-07 0)
(41.7099 -1.54906e-07 0)
(41.7099 -1.54889e-07 0)
(41.7099 -1.54872e-07 0)
(41.7099 -1.54873e-07 0)
(41.7099 -1.54863e-07 0)
(41.7099 -1.54848e-07 0)
(41.7099 -1.54826e-07 0)
(41.7099 -1.54793e-07 0)
(41.7098 -1.54733e-07 0)
(41.7098 -1.54678e-07 0)
(41.7098 -1.54588e-07 0)
(41.7098 -1.54487e-07 0)
(41.7097 -1.54374e-07 0)
(41.7097 -1.54156e-07 0)
(41.7097 -1.54178e-07 0)
(41.7096 -1.54038e-07 0)
(41.7096 -1.53868e-07 0)
(41.7096 -1.53741e-07 0)
(41.7095 -1.53617e-07 0)
(41.7095 -1.53492e-07 0)
(41.7094 -1.5338e-07 0)
(41.7094 -1.53284e-07 0)
(41.7094 -1.5318e-07 0)
(41.7093 -1.52912e-07 0)
(41.7093 -1.53226e-07 0)
(41.7092 -1.52925e-07 0)
(41.7092 -1.53264e-07 0)
(41.7091 -1.52787e-07 0)
(41.7091 -1.53101e-07 0)
(41.709 -1.52334e-07 0)
(41.709 -1.52763e-07 0)
(41.7089 -1.52737e-07 0)
(41.7089 -1.52843e-07 0)
(41.7089 -1.52996e-07 0)
(41.7088 -1.52186e-07 0)
(41.7088 -1.5311e-07 0)
(41.7088 -1.52849e-07 0)
(41.7087 -1.52915e-07 0)
(41.7087 -1.52975e-07 0)
(41.7087 -1.5302e-07 0)
(41.7087 -1.53094e-07 0)
(41.7086 -1.53121e-07 0)
(41.7086 -1.53187e-07 0)
(41.7086 -1.53238e-07 0)
(41.7086 -1.53282e-07 0)
(41.7086 -1.53332e-07 0)
(41.7086 -1.53377e-07 0)
(41.7086 -1.534e-07 0)
(41.7086 -1.53426e-07 0)
(41.7086 -1.53465e-07 0)
(41.7086 -1.53484e-07 0)
(41.7086 -1.53508e-07 0)
(41.7086 -1.53535e-07 0)
(41.7087 -1.53541e-07 0)
(41.7087 -1.5354e-07 0)
(41.7087 -1.53539e-07 0)
(41.7087 -1.53502e-07 0)
(41.7087 -1.53496e-07 0)
(41.7088 -1.5338e-07 0)
(41.7088 -1.53005e-07 0)
(41.7088 -1.51272e-07 0)
(41.7088 -1.42847e-07 0)
(41.7088 -1.03515e-07 0)
(41.7088 8.73945e-08 0)
(41.7087 1.04163e-06 0)
(41.7084 5.80716e-06 0)
(41.7069 2.88127e-05 0)
(41.6994 0.000139363 0)
(41.6642 0.00066569 0)
(41.4968 0.00311752 0)
(41.0215 0.0157822 0)
(36.382 0.0566484 0)
(42.7002 0.000462907 0)
(42.7007 0.000329771 0)
(42.701 0.0003134 0)
(42.7013 0.000310389 0)
(42.7016 0.00030806 0)
(42.7018 0.00030621 0)
(42.7021 0.000304699 0)
(42.7024 0.000303384 0)
(42.7026 0.000302207 0)
(42.7028 0.000301141 0)
(42.7031 0.000300166 0)
(42.7033 0.000299269 0)
(42.7035 0.000298438 0)
(42.7037 0.000297665 0)
(42.7039 0.000296944 0)
(42.7041 0.000296269 0)
(42.7043 0.000295636 0)
(42.7045 0.000295042 0)
(42.7047 0.000294482 0)
(42.7049 0.000293956 0)
(42.705 0.000293448 0)
(42.7052 0.000293011 0)
(42.7054 0.000292558 0)
(42.7055 0.000292143 0)
(42.7057 0.000291741 0)
(42.7058 0.000291374 0)
(42.7059 0.000291131 0)
(42.7061 0.00029069 0)
(42.7062 0.000290421 0)
(42.7063 0.000290137 0)
(42.7064 0.000289866 0)
(42.7066 0.000289609 0)
(42.7067 0.000289355 0)
(42.7068 0.000289146 0)
(42.7069 0.000288904 0)
(42.707 0.000288734 0)
(42.7071 0.000288506 0)
(42.7072 0.000288321 0)
(42.7072 0.000288135 0)
(42.7073 0.000287966 0)
(42.7074 0.000287722 0)
(42.7075 0.000287514 0)
(42.7075 0.000287254 0)
(42.7076 0.000286927 0)
(42.7076 0.000286508 0)
(42.7077 0.000285955 0)
(42.7077 0.000285219 0)
(42.7078 0.000284238 0)
(42.7078 0.000282926 0)
(42.7078 0.000281248 0)
(42.7079 0.000279022 0)
(42.708 0.000276206 0)
(42.708 0.000272799 0)
(42.7081 0.000268394 0)
(42.7082 0.000263112 0)
(42.7083 0.000256931 0)
(42.7085 0.000249652 0)
(42.7087 0.000241285 0)
(42.7089 0.000231832 0)
(42.7091 0.000221329 0)
(42.7094 0.000209854 0)
(42.7097 0.000197519 0)
(42.71 0.000184472 0)
(42.7104 0.000170887 0)
(42.7108 0.000156968 0)
(42.7111 0.000142918 0)
(42.7115 0.000128951 0)
(42.7119 0.000115269 0)
(42.7123 0.000102063 0)
(42.7127 8.94954e-05 0)
(42.713 7.77119e-05 0)
(42.7134 6.68084e-05 0)
(42.7137 5.68586e-05 0)
(42.7139 4.79006e-05 0)
(42.7142 3.99416e-05 0)
(42.7144 3.29625e-05 0)
(42.7145 2.69207e-05 0)
(42.7147 2.17563e-05 0)
(42.7148 1.73966e-05 0)
(42.7149 1.37622e-05 0)
(42.715 1.0768e-05 0)
(42.715 8.33065e-06 0)
(42.715 6.37158e-06 0)
(42.715 4.81339e-06 0)
(42.715 3.58838e-06 0)
(42.715 2.6387e-06 0)
(42.715 1.90825e-06 0)
(42.715 1.35314e-06 0)
(42.7149 9.36168e-07 0)
(42.7149 6.26156e-07 0)
(42.7149 3.98059e-07 0)
(42.7148 2.31872e-07 0)
(42.7148 1.11774e-07 0)
(42.7148 2.54634e-08 0)
(42.7148 -3.08266e-08 0)
(42.7147 -7.12983e-08 0)
(42.7147 -9.90795e-08 0)
(42.7147 -1.17897e-07 0)
(42.7146 -1.30533e-07 0)
(42.7146 -1.38939e-07 0)
(42.7146 -1.44468e-07 0)
(42.7146 -1.48102e-07 0)
(42.7146 -1.50459e-07 0)
(42.7145 -1.51978e-07 0)
(42.7145 -1.52897e-07 0)
(42.7145 -1.53437e-07 0)
(42.7145 -1.53752e-07 0)
(42.7145 -1.53912e-07 0)
(42.7145 -1.53989e-07 0)
(42.7145 -1.53963e-07 0)
(42.7145 -1.53897e-07 0)
(42.7145 -1.5378e-07 0)
(42.7144 -1.53636e-07 0)
(42.7144 -1.53475e-07 0)
(42.7144 -1.53314e-07 0)
(42.7144 -1.5314e-07 0)
(42.7144 -1.52969e-07 0)
(42.7144 -1.52799e-07 0)
(42.7144 -1.52641e-07 0)
(42.7144 -1.52487e-07 0)
(42.7144 -1.5233e-07 0)
(42.7144 -1.52204e-07 0)
(42.7143 -1.5209e-07 0)
(42.7143 -1.52017e-07 0)
(42.7143 -1.51947e-07 0)
(42.7143 -1.51909e-07 0)
(42.7143 -1.51874e-07 0)
(42.7143 -1.51859e-07 0)
(42.7142 -1.51824e-07 0)
(42.7142 -1.518e-07 0)
(42.7142 -1.51788e-07 0)
(42.7142 -1.5177e-07 0)
(42.7141 -1.51758e-07 0)
(42.7141 -1.51752e-07 0)
(42.7141 -1.51738e-07 0)
(42.714 -1.51713e-07 0)
(42.714 -1.51685e-07 0)
(42.7139 -1.51652e-07 0)
(42.7139 -1.51611e-07 0)
(42.7139 -1.5155e-07 0)
(42.7138 -1.51485e-07 0)
(42.7138 -1.51255e-07 0)
(42.7137 -1.5147e-07 0)
(42.7137 -1.51396e-07 0)
(42.7136 -1.51265e-07 0)
(42.7135 -1.51223e-07 0)
(42.7135 -1.51197e-07 0)
(42.7134 -1.51183e-07 0)
(42.7134 -1.5116e-07 0)
(42.7133 -1.51139e-07 0)
(42.7132 -1.51112e-07 0)
(42.7132 -1.50706e-07 0)
(42.7131 -1.51431e-07 0)
(42.713 -1.50902e-07 0)
(42.713 -1.51572e-07 0)
(42.7129 -1.50653e-07 0)
(42.7128 -1.51317e-07 0)
(42.7128 -1.49795e-07 0)
(42.7127 -1.50675e-07 0)
(42.7126 -1.50564e-07 0)
(42.7126 -1.50682e-07 0)
(42.7125 -1.50909e-07 0)
(42.7124 -1.49243e-07 0)
(42.7124 -1.50954e-07 0)
(42.7123 -1.50382e-07 0)
(42.7123 -1.5043e-07 0)
(42.7122 -1.50486e-07 0)
(42.7122 -1.50521e-07 0)
(42.7121 -1.50632e-07 0)
(42.7121 -1.50649e-07 0)
(42.7121 -1.50754e-07 0)
(42.712 -1.50863e-07 0)
(42.712 -1.50958e-07 0)
(42.712 -1.51046e-07 0)
(42.712 -1.51152e-07 0)
(42.7119 -1.51249e-07 0)
(42.7119 -1.51351e-07 0)
(42.7119 -1.5145e-07 0)
(42.7119 -1.51543e-07 0)
(42.7119 -1.51667e-07 0)
(42.7119 -1.51754e-07 0)
(42.7119 -1.51805e-07 0)
(42.7119 -1.5185e-07 0)
(42.7119 -1.5191e-07 0)
(42.7119 -1.51896e-07 0)
(42.7119 -1.51932e-07 0)
(42.7119 -1.51711e-07 0)
(42.7119 -1.507e-07 0)
(42.7119 -1.45636e-07 0)
(42.7119 -1.20699e-07 0)
(42.7119 1.37967e-09 0)
(42.7118 6.03425e-07 0)
(42.7117 3.6182e-06 0)
(42.7114 1.86762e-05 0)
(42.7098 9.1367e-05 0)
(42.7022 0.000440512 0)
(42.6664 0.00210137 0)
(42.4963 0.00982797 0)
(41.9997 0.0484118 0)
(37.4512 0.163811 0)
(42.7002 0.000369096 0)
(42.7007 0.000238547 0)
(42.701 0.000231862 0)
(42.7014 0.000235249 0)
(42.7017 0.00023659 0)
(42.702 0.000237558 0)
(42.7023 0.000238523 0)
(42.7026 0.000239452 0)
(42.7029 0.000240348 0)
(42.7032 0.000241218 0)
(42.7035 0.000242063 0)
(42.7038 0.000242881 0)
(42.7041 0.000243672 0)
(42.7044 0.000244436 0)
(42.7047 0.000245173 0)
(42.7051 0.000245883 0)
(42.7054 0.000246568 0)
(42.7057 0.000247228 0)
(42.706 0.000247865 0)
(42.7063 0.00024848 0)
(42.7066 0.000249063 0)
(42.7069 0.000249664 0)
(42.7072 0.000250206 0)
(42.7075 0.000250744 0)
(42.7078 0.000251256 0)
(42.7082 0.000251763 0)
(42.7085 0.000252348 0)
(42.7088 0.000252712 0)
(42.7091 0.000253219 0)
(42.7095 0.000253673 0)
(42.7098 0.000254111 0)
(42.7101 0.000254538 0)
(42.7104 0.000254943 0)
(42.7108 0.000255363 0)
(42.7111 0.000255732 0)
(42.7115 0.000256145 0)
(42.7118 0.000256482 0)
(42.7121 0.000256844 0)
(42.7125 0.00025718 0)
(42.7128 0.000257514 0)
(42.7132 0.000257754 0)
(42.7135 0.000258023 0)
(42.7139 0.000258207 0)
(42.7142 0.000258311 0)
(42.7145 0.000258305 0)
(42.7149 0.000258148 0)
(42.7152 0.00025779 0)
(42.7156 0.00025717 0)
(42.7159 0.000256201 0)
(42.7162 0.000254849 0)
(42.7166 0.000252937 0)
(42.7169 0.000250425 0)
(42.7172 0.000247306 0)
(42.7175 0.000243201 0)
(42.7178 0.000238236 0)
(42.7181 0.000232377 0)
(42.7184 0.000225452 0)
(42.7186 0.000217485 0)
(42.7189 0.000208487 0)
(42.7191 0.000198509 0)
(42.7194 0.000187638 0)
(42.7196 0.000175997 0)
(42.7198 0.000163739 0)
(42.7199 0.00015104 0)
(42.7201 0.000138101 0)
(42.7202 0.000125119 0)
(42.7203 0.000112295 0)
(42.7204 9.98175e-05 0)
(42.7205 8.78591e-05 0)
(42.7205 7.65622e-05 0)
(42.7206 6.60493e-05 0)
(42.7206 5.63964e-05 0)
(42.7206 4.76581e-05 0)
(42.7206 3.98548e-05 0)
(42.7206 3.29792e-05 0)
(42.7205 2.70016e-05 0)
(42.7205 2.18714e-05 0)
(42.7205 1.75248e-05 0)
(42.7204 1.38884e-05 0)
(42.7204 1.08849e-05 0)
(42.7203 8.43388e-06 0)
(42.7203 6.45694e-06 0)
(42.7202 4.88407e-06 0)
(42.7202 3.64529e-06 0)
(42.7201 2.68133e-06 0)
(42.7201 1.94234e-06 0)
(42.72 1.37999e-06 0)
(42.72 9.57484e-07 0)
(42.7199 6.44046e-07 0)
(42.7199 4.14045e-07 0)
(42.7198 2.47274e-07 0)
(42.7198 1.27775e-07 0)
(42.7197 4.32521e-08 0)
(42.7197 -1.5925e-08 0)
(42.7197 -5.91553e-08 0)
(42.7196 -8.86495e-08 0)
(42.7196 -1.08859e-07 0)
(42.7196 -1.22674e-07 0)
(42.7196 -1.32086e-07 0)
(42.7195 -1.38427e-07 0)
(42.7195 -1.42682e-07 0)
(42.7195 -1.45522e-07 0)
(42.7195 -1.47397e-07 0)
(42.7195 -1.48615e-07 0)
(42.7194 -1.4936e-07 0)
(42.7194 -1.4983e-07 0)
(42.7194 -1.50137e-07 0)
(42.7194 -1.50308e-07 0)
(42.7194 -1.50399e-07 0)
(42.7194 -1.50429e-07 0)
(42.7194 -1.504e-07 0)
(42.7194 -1.50318e-07 0)
(42.7194 -1.50223e-07 0)
(42.7194 -1.50095e-07 0)
(42.7193 -1.49924e-07 0)
(42.7193 -1.49724e-07 0)
(42.7193 -1.49494e-07 0)
(42.7193 -1.49238e-07 0)
(42.7193 -1.48944e-07 0)
(42.7193 -1.48644e-07 0)
(42.7193 -1.48351e-07 0)
(42.7193 -1.48074e-07 0)
(42.7193 -1.47819e-07 0)
(42.7192 -1.47573e-07 0)
(42.7192 -1.47355e-07 0)
(42.7192 -1.4717e-07 0)
(42.7192 -1.47015e-07 0)
(42.7192 -1.46891e-07 0)
(42.7192 -1.4677e-07 0)
(42.7191 -1.46691e-07 0)
(42.7191 -1.46628e-07 0)
(42.7191 -1.46589e-07 0)
(42.719 -1.46544e-07 0)
(42.719 -1.46505e-07 0)
(42.719 -1.46478e-07 0)
(42.7189 -1.46441e-07 0)
(42.7189 -1.46396e-07 0)
(42.7189 -1.46355e-07 0)
(42.7188 -1.46318e-07 0)
(42.7188 -1.46264e-07 0)
(42.7187 -1.462e-07 0)
(42.7187 -1.45997e-07 0)
(42.7186 -1.46197e-07 0)
(42.7186 -1.46143e-07 0)
(42.7185 -1.46021e-07 0)
(42.7184 -1.45981e-07 0)
(42.7184 -1.45942e-07 0)
(42.7183 -1.45908e-07 0)
(42.7183 -1.45882e-07 0)
(42.7182 -1.45857e-07 0)
(42.7181 -1.45835e-07 0)
(42.7181 -1.45463e-07 0)
(42.718 -1.46145e-07 0)
(42.7179 -1.45638e-07 0)
(42.7179 -1.46286e-07 0)
(42.7178 -1.45403e-07 0)
(42.7177 -1.46071e-07 0)
(42.7177 -1.44632e-07 0)
(42.7176 -1.45564e-07 0)
(42.7175 -1.45435e-07 0)
(42.7175 -1.45543e-07 0)
(42.7174 -1.4577e-07 0)
(42.7173 -1.44236e-07 0)
(42.7173 -1.45875e-07 0)
(42.7172 -1.45344e-07 0)
(42.7172 -1.45344e-07 0)
(42.7171 -1.4537e-07 0)
(42.7171 -1.45377e-07 0)
(42.7171 -1.45524e-07 0)
(42.717 -1.45463e-07 0)
(42.717 -1.45532e-07 0)
(42.7169 -1.45633e-07 0)
(42.7169 -1.45686e-07 0)
(42.7169 -1.45759e-07 0)
(42.7169 -1.45843e-07 0)
(42.7169 -1.45857e-07 0)
(42.7168 -1.45935e-07 0)
(42.7168 -1.46008e-07 0)
(42.7168 -1.46072e-07 0)
(42.7168 -1.46171e-07 0)
(42.7168 -1.46217e-07 0)
(42.7168 -1.46253e-07 0)
(42.7168 -1.46299e-07 0)
(42.7168 -1.46351e-07 0)
(42.7168 -1.46269e-07 0)
(42.7168 -1.46292e-07 0)
(42.7168 -1.45864e-07 0)
(42.7168 -1.44101e-07 0)
(42.7168 -1.35364e-07 0)
(42.7168 -9.2252e-08 0)
(42.7168 1.23128e-07 0)
(42.7167 1.19504e-06 0)
(42.7167 6.5628e-06 0)
(42.7163 3.33819e-05 0)
(42.7148 0.000162866 0)
(42.7075 0.00078481 0)
(42.6732 0.0037459 0)
(42.5102 0.017531 0)
(42.0456 0.0858797 0)
(37.6614 0.287107 0)
(42.7002 0.000375192 0)
(42.7007 0.000276267 0)
(42.701 0.000271758 0)
(42.7014 0.000276036 0)
(42.7017 0.000276926 0)
(42.702 0.000277095 0)
(42.7023 0.000277139 0)
(42.7026 0.00027704 0)
(42.7029 0.000276834 0)
(42.7032 0.000276562 0)
(42.7035 0.00027625 0)
(42.7038 0.000275915 0)
(42.7041 0.000275568 0)
(42.7044 0.000275217 0)
(42.7047 0.000274868 0)
(42.705 0.000274525 0)
(42.7054 0.000274191 0)
(42.7057 0.000273867 0)
(42.706 0.000273555 0)
(42.7063 0.000273255 0)
(42.7066 0.000272959 0)
(42.7069 0.000272712 0)
(42.7072 0.000272442 0)
(42.7075 0.000272197 0)
(42.7078 0.000271957 0)
(42.7082 0.000271741 0)
(42.7085 0.000271625 0)
(42.7088 0.000271327 0)
(42.7091 0.000271186 0)
(42.7095 0.00027102 0)
(42.7098 0.000270862 0)
(42.7101 0.000270714 0)
(42.7104 0.000270567 0)
(42.7108 0.000270449 0)
(42.7111 0.000270307 0)
(42.7115 0.000270222 0)
(42.7118 0.00027008 0)
(42.7121 0.000269983 0)
(42.7125 0.000269874 0)
(42.7128 0.000269778 0)
(42.7132 0.000269603 0)
(42.7135 0.000269484 0)
(42.7139 0.000269285 0)
(42.7142 0.000269028 0)
(42.7146 0.000268679 0)
(42.7149 0.000268199 0)
(42.7153 0.000267541 0)
(42.7156 0.000266645 0)
(42.7159 0.000265429 0)
(42.7163 0.000263856 0)
(42.7166 0.000261762 0)
(42.7169 0.000259101 0)
(42.7172 0.000255863 0)
(42.7176 0.000251682 0)
(42.7179 0.000246678 0)
(42.7182 0.000240802 0)
(42.7184 0.000233891 0)
(42.7187 0.000225954 0)
(42.719 0.000216996 0)
(42.7192 0.000207054 0)
(42.7194 0.000196203 0)
(42.7196 0.000184555 0)
(42.7198 0.000172251 0)
(42.72 0.000159458 0)
(42.7201 0.000146365 0)
(42.7202 0.000133171 0)
(42.7203 0.000120068 0)
(42.7204 0.000107251 0)
(42.7205 9.48957e-05 0)
(42.7205 8.31526e-05 0)
(42.7206 7.21538e-05 0)
(42.7206 6.19878e-05 0)
(42.7206 5.2721e-05 0)
(42.7206 4.43864e-05 0)
(42.7206 3.6988e-05 0)
(42.7206 3.05068e-05 0)
(42.7205 2.49006e-05 0)
(42.7205 2.01124e-05 0)
(42.7204 1.60733e-05 0)
(42.7204 1.27088e-05 0)
(42.7203 9.93914e-06 0)
(42.7203 7.68545e-06 0)
(42.7202 5.87553e-06 0)
(42.7202 4.43672e-06 0)
(42.7201 3.30626e-06 0)
(42.7201 2.43047e-06 0)
(42.72 1.75719e-06 0)
(42.72 1.24582e-06 0)
(42.7199 8.61973e-07 0)
(42.7199 5.7683e-07 0)
(42.7198 3.67261e-07 0)
(42.7198 2.14849e-07 0)
(42.7198 1.05168e-07 0)
(42.7197 2.73108e-08 0)
(42.7197 -2.67801e-08 0)
(42.7197 -6.42272e-08 0)
(42.7196 -9.00081e-08 0)
(42.7196 -1.07585e-07 0)
(42.7196 -1.19427e-07 0)
(42.7195 -1.27323e-07 0)
(42.7195 -1.32553e-07 0)
(42.7195 -1.35991e-07 0)
(42.7195 -1.38226e-07 0)
(42.7195 -1.39644e-07 0)
(42.7195 -1.40499e-07 0)
(42.7194 -1.41011e-07 0)
(42.7194 -1.41319e-07 0)
(42.7194 -1.41459e-07 0)
(42.7194 -1.41501e-07 0)
(42.7194 -1.4147e-07 0)
(42.7194 -1.41387e-07 0)
(42.7194 -1.41264e-07 0)
(42.7194 -1.41122e-07 0)
(42.7194 -1.40969e-07 0)
(42.7194 -1.40811e-07 0)
(42.7193 -1.40641e-07 0)
(42.7193 -1.40463e-07 0)
(42.7193 -1.40284e-07 0)
(42.7193 -1.40111e-07 0)
(42.7193 -1.39957e-07 0)
(42.7193 -1.39793e-07 0)
(42.7193 -1.39658e-07 0)
(42.7193 -1.39551e-07 0)
(42.7193 -1.3947e-07 0)
(42.7192 -1.39398e-07 0)
(42.7192 -1.39339e-07 0)
(42.7192 -1.39296e-07 0)
(42.7192 -1.39266e-07 0)
(42.7192 -1.39224e-07 0)
(42.7191 -1.3921e-07 0)
(42.7191 -1.392e-07 0)
(42.7191 -1.39192e-07 0)
(42.7191 -1.39186e-07 0)
(42.719 -1.39182e-07 0)
(42.719 -1.39173e-07 0)
(42.719 -1.39153e-07 0)
(42.7189 -1.39133e-07 0)
(42.7189 -1.39107e-07 0)
(42.7188 -1.39064e-07 0)
(42.7188 -1.39007e-07 0)
(42.7187 -1.38946e-07 0)
(42.7187 -1.38743e-07 0)
(42.7186 -1.38925e-07 0)
(42.7186 -1.38883e-07 0)
(42.7185 -1.38766e-07 0)
(42.7185 -1.38726e-07 0)
(42.7184 -1.38709e-07 0)
(42.7183 -1.38697e-07 0)
(42.7183 -1.3868e-07 0)
(42.7182 -1.38669e-07 0)
(42.7181 -1.38645e-07 0)
(42.7181 -1.38294e-07 0)
(42.718 -1.38935e-07 0)
(42.7179 -1.38473e-07 0)
(42.7179 -1.39084e-07 0)
(42.7178 -1.3825e-07 0)
(42.7177 -1.38863e-07 0)
(42.7177 -1.37483e-07 0)
(42.7176 -1.38344e-07 0)
(42.7175 -1.38219e-07 0)
(42.7175 -1.38321e-07 0)
(42.7174 -1.38495e-07 0)
(42.7174 -1.37027e-07 0)
(42.7173 -1.38588e-07 0)
(42.7173 -1.38078e-07 0)
(42.7172 -1.38068e-07 0)
(42.7172 -1.38121e-07 0)
(42.7171 -1.38121e-07 0)
(42.7171 -1.38319e-07 0)
(42.717 -1.38207e-07 0)
(42.717 -1.3831e-07 0)
(42.717 -1.38446e-07 0)
(42.7169 -1.38493e-07 0)
(42.7169 -1.38592e-07 0)
(42.7169 -1.3869e-07 0)
(42.7169 -1.38687e-07 0)
(42.7169 -1.38779e-07 0)
(42.7168 -1.38861e-07 0)
(42.7168 -1.38919e-07 0)
(42.7168 -1.39028e-07 0)
(42.7168 -1.39078e-07 0)
(42.7168 -1.39077e-07 0)
(42.7168 -1.3914e-07 0)
(42.7168 -1.39187e-07 0)
(42.7168 -1.3904e-07 0)
(42.7168 -1.39081e-07 0)
(42.7168 -1.3846e-07 0)
(42.7168 -1.35849e-07 0)
(42.7168 -1.229e-07 0)
(42.7168 -5.87706e-08 0)
(42.7168 2.60134e-07 0)
(42.7167 1.84994e-06 0)
(42.7167 9.80783e-06 0)
(42.7163 4.95821e-05 0)
(42.7148 0.000241658 0)
(42.7076 0.00116444 0)
(42.6735 0.00556287 0)
(42.5118 0.0260249 0)
(42.0527 0.127485 0)
(37.7861 0.423185 0)
(42.7002 0.000351875 0)
(42.7006 0.000251264 0)
(42.701 0.000235085 0)
(42.7014 0.000235175 0)
(42.7017 0.00023371 0)
(42.702 0.000232611 0)
(42.7023 0.000232123 0)
(42.7026 0.000231927 0)
(42.7029 0.000231896 0)
(42.7032 0.000231978 0)
(42.7035 0.000232137 0)
(42.7038 0.000232349 0)
(42.7041 0.000232596 0)
(42.7044 0.000232866 0)
(42.7047 0.000233151 0)
(42.705 0.000233445 0)
(42.7053 0.000233744 0)
(42.7056 0.000234045 0)
(42.706 0.000234345 0)
(42.7063 0.000234643 0)
(42.7066 0.000234929 0)
(42.7069 0.000235242 0)
(42.7072 0.000235519 0)
(42.7075 0.000235802 0)
(42.7078 0.000236072 0)
(42.7081 0.000236348 0)
(42.7085 0.000236701 0)
(42.7088 0.000236867 0)
(42.7091 0.000237165 0)
(42.7094 0.000237425 0)
(42.7098 0.000237677 0)
(42.7101 0.000237925 0)
(42.7104 0.000238162 0)
(42.7108 0.000238409 0)
(42.7111 0.000238625 0)
(42.7115 0.000238881 0)
(42.7118 0.000239071 0)
(42.7121 0.000239297 0)
(42.7125 0.000239496 0)
(42.7128 0.000239699 0)
(42.7132 0.000239811 0)
(42.7135 0.000239981 0)
(42.7139 0.000240051 0)
(42.7142 0.000240061 0)
(42.7146 0.000239974 0)
(42.7149 0.000239754 0)
(42.7152 0.000239355 0)
(42.7156 0.000238722 0)
(42.7159 0.000237775 0)
(42.7163 0.000236479 0)
(42.7166 0.000234682 0)
(42.7169 0.000232342 0)
(42.7172 0.000229446 0)
(42.7175 0.000225653 0)
(42.7178 0.000221086 0)
(42.7181 0.000215692 0)
(42.7184 0.000209328 0)
(42.7187 0.000202006 0)
(42.7189 0.000193738 0)
(42.7192 0.000184566 0)
(42.7194 0.000174567 0)
(42.7196 0.00016385 0)
(42.7198 0.000152556 0)
(42.72 0.000140845 0)
(42.7201 0.000128894 0)
(42.7202 0.000116896 0)
(42.7203 0.000105024 0)
(42.7204 9.3458e-05 0)
(42.7205 8.23575e-05 0)
(42.7205 7.18558e-05 0)
(42.7206 6.20679e-05 0)
(42.7206 5.30672e-05 0)
(42.7206 4.49062e-05 0)
(42.7206 3.76069e-05 0)
(42.7206 3.11645e-05 0)
(42.7206 2.55543e-05 0)
(42.7205 2.07313e-05 0)
(42.7205 1.6638e-05 0)
(42.7204 1.32074e-05 0)
(42.7204 1.03689e-05 0)
(42.7203 8.04829e-06 0)
(42.7203 6.17321e-06 0)
(42.7202 4.67846e-06 0)
(42.7202 3.49897e-06 0)
(42.7201 2.57936e-06 0)
(42.7201 1.87287e-06 0)
(42.72 1.33413e-06 0)
(42.72 9.28464e-07 0)
(42.7199 6.26755e-07 0)
(42.7199 4.04765e-07 0)
(42.7198 2.43291e-07 0)
(42.7198 1.27112e-07 0)
(42.7198 4.44106e-08 0)
(42.7197 -1.39313e-08 0)
(42.7197 -5.46424e-08 0)
(42.7197 -8.2966e-08 0)
(42.7196 -1.02437e-07 0)
(42.7196 -1.15709e-07 0)
(42.7196 -1.24706e-07 0)
(42.7195 -1.30751e-07 0)
(42.7195 -1.34778e-07 0)
(42.7195 -1.37462e-07 0)
(42.7195 -1.39217e-07 0)
(42.7195 -1.40373e-07 0)
(42.7195 -1.41077e-07 0)
(42.7194 -1.4152e-07 0)
(42.7194 -1.41791e-07 0)
(42.7194 -1.41954e-07 0)
(42.7194 -1.42038e-07 0)
(42.7194 -1.42051e-07 0)
(42.7194 -1.42036e-07 0)
(42.7194 -1.41972e-07 0)
(42.7194 -1.4189e-07 0)
(42.7194 -1.41759e-07 0)
(42.7194 -1.41608e-07 0)
(42.7193 -1.41443e-07 0)
(42.7193 -1.4124e-07 0)
(42.7193 -1.41027e-07 0)
(42.7193 -1.40798e-07 0)
(42.7193 -1.40555e-07 0)
(42.7193 -1.40308e-07 0)
(42.7193 -1.40089e-07 0)
(42.7193 -1.39874e-07 0)
(42.7193 -1.39684e-07 0)
(42.7192 -1.39534e-07 0)
(42.7192 -1.39398e-07 0)
(42.7192 -1.39287e-07 0)
(42.7192 -1.39199e-07 0)
(42.7192 -1.39112e-07 0)
(42.7191 -1.39056e-07 0)
(42.7191 -1.39011e-07 0)
(42.7191 -1.38972e-07 0)
(42.7191 -1.38942e-07 0)
(42.719 -1.38916e-07 0)
(42.719 -1.38892e-07 0)
(42.719 -1.38872e-07 0)
(42.7189 -1.38847e-07 0)
(42.7189 -1.38818e-07 0)
(42.7188 -1.38787e-07 0)
(42.7188 -1.38743e-07 0)
(42.7187 -1.38693e-07 0)
(42.7187 -1.38516e-07 0)
(42.7186 -1.38688e-07 0)
(42.7186 -1.38644e-07 0)
(42.7185 -1.38548e-07 0)
(42.7185 -1.38522e-07 0)
(42.7184 -1.38497e-07 0)
(42.7183 -1.38471e-07 0)
(42.7183 -1.38456e-07 0)
(42.7182 -1.38434e-07 0)
(42.7181 -1.38418e-07 0)
(42.7181 -1.38099e-07 0)
(42.718 -1.38691e-07 0)
(42.7179 -1.3826e-07 0)
(42.7179 -1.38841e-07 0)
(42.7178 -1.3806e-07 0)
(42.7177 -1.38635e-07 0)
(42.7177 -1.37356e-07 0)
(42.7176 -1.38166e-07 0)
(42.7175 -1.38077e-07 0)
(42.7175 -1.38188e-07 0)
(42.7174 -1.38332e-07 0)
(42.7174 -1.36983e-07 0)
(42.7173 -1.38446e-07 0)
(42.7173 -1.37967e-07 0)
(42.7172 -1.37954e-07 0)
(42.7172 -1.38018e-07 0)
(42.7171 -1.37984e-07 0)
(42.7171 -1.3823e-07 0)
(42.717 -1.38051e-07 0)
(42.717 -1.38151e-07 0)
(42.717 -1.38311e-07 0)
(42.7169 -1.38356e-07 0)
(42.7169 -1.38448e-07 0)
(42.7169 -1.38558e-07 0)
(42.7169 -1.38512e-07 0)
(42.7169 -1.38595e-07 0)
(42.7168 -1.38697e-07 0)
(42.7168 -1.38752e-07 0)
(42.7168 -1.38889e-07 0)
(42.7168 -1.38936e-07 0)
(42.7168 -1.38935e-07 0)
(42.7168 -1.39023e-07 0)
(42.7168 -1.39113e-07 0)
(42.7168 -1.3892e-07 0)
(42.7168 -1.38987e-07 0)
(42.7168 -1.38161e-07 0)
(42.7168 -1.34621e-07 0)
(42.7168 -1.16908e-07 0)
(42.7168 -2.92423e-08 0)
(42.7168 4.08355e-07 0)
(42.7167 2.58977e-06 0)
(42.7167 1.35076e-05 0)
(42.7163 6.80849e-05 0)
(42.7148 0.000331726 0)
(42.7077 0.0015985 0)
(42.6739 0.00764157 0)
(42.514 0.0357168 0)
(42.0601 0.174488 0)
(37.9091 0.574037 0)
(42.7002 0.00033042 0)
(42.7006 0.00024413 0)
(42.701 0.000231446 0)
(42.7013 0.000236552 0)
(42.7016 0.000238278 0)
(42.7019 0.000239068 0)
(42.7023 0.000239776 0)
(42.7026 0.000240319 0)
(42.7029 0.000240719 0)
(42.7032 0.000241024 0)
(42.7035 0.000241263 0)
(42.7038 0.000241452 0)
(42.7041 0.000241603 0)
(42.7044 0.000241727 0)
(42.7047 0.000241829 0)
(42.705 0.000241915 0)
(42.7053 0.000241989 0)
(42.7056 0.000242055 0)
(42.7059 0.000242115 0)
(42.7063 0.00024217 0)
(42.7066 0.000242216 0)
(42.7069 0.000242286 0)
(42.7072 0.000242328 0)
(42.7075 0.000242379 0)
(42.7078 0.000242424 0)
(42.7081 0.00024248 0)
(42.7085 0.000242611 0)
(42.7088 0.000242575 0)
(42.7091 0.000242667 0)
(42.7094 0.000242731 0)
(42.7098 0.000242791 0)
(42.7101 0.000242853 0)
(42.7104 0.000242913 0)
(42.7108 0.000242981 0)
(42.7111 0.000243032 0)
(42.7114 0.000243122 0)
(42.7118 0.000243153 0)
(42.7121 0.000243227 0)
(42.7125 0.000243276 0)
(42.7128 0.000243335 0)
(42.7132 0.000243306 0)
(42.7135 0.000243351 0)
(42.7139 0.000243291 0)
(42.7142 0.000243181 0)
(42.7145 0.000242982 0)
(42.7149 0.000242659 0)
(42.7152 0.000242168 0)
(42.7156 0.000241455 0)
(42.7159 0.000240444 0)
(42.7162 0.000239097 0)
(42.7166 0.000237273 0)
(42.7169 0.000234925 0)
(42.7172 0.000232037 0)
(42.7175 0.000228284 0)
(42.7178 0.000223782 0)
(42.7181 0.000218467 0)
(42.7184 0.000212204 0)
(42.7187 0.000205 0)
(42.7189 0.000196859 0)
(42.7192 0.000187818 0)
(42.7194 0.000177946 0)
(42.7196 0.000167346 0)
(42.7198 0.00015615 0)
(42.72 0.000144511 0)
(42.7201 0.000132598 0)
(42.7202 0.000120603 0)
(42.7203 0.000108693 0)
(42.7204 9.70485e-05 0)
(42.7205 8.58299e-05 0)
(42.7205 7.51736e-05 0)
(42.7206 6.51987e-05 0)
(42.7206 5.5985e-05 0)
(42.7206 4.75917e-05 0)
(42.7206 4.00479e-05 0)
(42.7206 3.33556e-05 0)
(42.7205 2.7497e-05 0)
(42.7205 2.24328e-05 0)
(42.7205 1.81102e-05 0)
(42.7204 1.44663e-05 0)
(42.7204 1.14328e-05 0)
(42.7203 8.9372e-06 0)
(42.7203 6.90779e-06 0)
(42.7202 5.2789e-06 0)
(42.7202 3.9848e-06 0)
(42.7201 2.96867e-06 0)
(42.7201 2.1819e-06 0)
(42.72 1.57743e-06 0)
(42.72 1.11864e-06 0)
(42.7199 7.74517e-07 0)
(42.7199 5.19103e-07 0)
(42.7198 3.31592e-07 0)
(42.7198 1.95418e-07 0)
(42.7198 9.76336e-08 0)
(42.7197 2.82678e-08 0)
(42.7197 -2.10511e-08 0)
(42.7197 -5.50323e-08 0)
(42.7196 -7.8433e-08 0)
(42.7196 -9.44286e-08 0)
(42.7196 -1.05258e-07 0)
(42.7195 -1.12523e-07 0)
(42.7195 -1.17358e-07 0)
(42.7195 -1.2056e-07 0)
(42.7195 -1.22643e-07 0)
(42.7195 -1.24001e-07 0)
(42.7195 -1.24817e-07 0)
(42.7194 -1.25326e-07 0)
(42.7194 -1.25636e-07 0)
(42.7194 -1.25795e-07 0)
(42.7194 -1.25854e-07 0)
(42.7194 -1.2586e-07 0)
(42.7194 -1.25811e-07 0)
(42.7194 -1.25717e-07 0)
(42.7194 -1.25608e-07 0)
(42.7194 -1.25479e-07 0)
(42.7194 -1.25331e-07 0)
(42.7193 -1.2518e-07 0)
(42.7193 -1.25006e-07 0)
(42.7193 -1.2483e-07 0)
(42.7193 -1.2463e-07 0)
(42.7193 -1.24437e-07 0)
(42.7193 -1.24253e-07 0)
(42.7193 -1.24088e-07 0)
(42.7193 -1.23935e-07 0)
(42.7193 -1.23809e-07 0)
(42.7192 -1.23695e-07 0)
(42.7192 -1.23597e-07 0)
(42.7192 -1.23519e-07 0)
(42.7192 -1.23457e-07 0)
(42.7192 -1.23401e-07 0)
(42.7191 -1.23366e-07 0)
(42.7191 -1.2334e-07 0)
(42.7191 -1.23322e-07 0)
(42.7191 -1.23298e-07 0)
(42.719 -1.23283e-07 0)
(42.719 -1.23268e-07 0)
(42.719 -1.23245e-07 0)
(42.7189 -1.23217e-07 0)
(42.7189 -1.23187e-07 0)
(42.7188 -1.2314e-07 0)
(42.7188 -1.23091e-07 0)
(42.7187 -1.23039e-07 0)
(42.7187 -1.22858e-07 0)
(42.7186 -1.23007e-07 0)
(42.7186 -1.2296e-07 0)
(42.7185 -1.22848e-07 0)
(42.7185 -1.22805e-07 0)
(42.7184 -1.22775e-07 0)
(42.7183 -1.22754e-07 0)
(42.7183 -1.22736e-07 0)
(42.7182 -1.22712e-07 0)
(42.7181 -1.22682e-07 0)
(42.7181 -1.22381e-07 0)
(42.718 -1.22905e-07 0)
(42.7179 -1.22505e-07 0)
(42.7179 -1.23052e-07 0)
(42.7178 -1.2233e-07 0)
(42.7177 -1.22829e-07 0)
(42.7177 -1.21642e-07 0)
(42.7176 -1.22362e-07 0)
(42.7175 -1.22291e-07 0)
(42.7175 -1.22401e-07 0)
(42.7174 -1.22502e-07 0)
(42.7174 -1.21247e-07 0)
(42.7173 -1.2261e-07 0)
(42.7173 -1.22157e-07 0)
(42.7172 -1.2213e-07 0)
(42.7172 -1.22204e-07 0)
(42.7171 -1.22153e-07 0)
(42.7171 -1.22452e-07 0)
(42.717 -1.22185e-07 0)
(42.717 -1.22303e-07 0)
(42.717 -1.22483e-07 0)
(42.7169 -1.22505e-07 0)
(42.7169 -1.22607e-07 0)
(42.7169 -1.22724e-07 0)
(42.7169 -1.22619e-07 0)
(42.7169 -1.2271e-07 0)
(42.7168 -1.22801e-07 0)
(42.7168 -1.22837e-07 0)
(42.7168 -1.22969e-07 0)
(42.7168 -1.22994e-07 0)
(42.7168 -1.22966e-07 0)
(42.7168 -1.23062e-07 0)
(42.7168 -1.23145e-07 0)
(42.7168 -1.2287e-07 0)
(42.7168 -1.22938e-07 0)
(42.7168 -1.21835e-07 0)
(42.7168 -1.17192e-07 0)
(42.7168 -9.40307e-08 0)
(42.7168 2.06268e-08 0)
(42.7168 5.92862e-07 0)
(42.7167 3.44563e-06 0)
(42.7167 1.77221e-05 0)
(42.7163 8.90924e-05 0)
(42.7149 0.000433997 0)
(42.7078 0.00209142 0)
(42.6746 0.0100043 0)
(42.5173 0.0467088 0)
(42.0711 0.227366 0)
(38.0507 0.738102 0)
(42.7002 0.000273349 0)
(42.7006 0.000210592 0)