/*--------------------------------*- C++ -*----------------------------------*\
| =========                 |                                                 |
| \\      /  F ield         | OpenFOAM: The Open Source CFD Toolbox           |
|  \\    /   O peration     | Version:  3.0.x                                 |
|   \\  /    A nd           | Web:      www.OpenFOAM.org                      |
|    \\/     M anipulation  |                                                 |
\*---------------------------------------------------------------------------*/
FoamFile
{
    version     2.0;
    format      ascii;
    class       surfaceScalarField;
    location    "0.02";
    object      phi;
}
// * * * * * * * * * * * * * * * * * * * * * * * * * * * * * * * * * * * * * //

dimensions      [1 0 -1 0 0 0 0];

internalField   nonuniform List<scalar> 
52430
(
3.90527
0.00024265
3.9051
0.000172316
3.90494
0.000158199
3.90479
0.000146439
3.90466
0.000127821
3.90456
0.000104466
3.90448
7.98729e-05
3.90442
5.7096e-05
3.90438
3.81962e-05
3.90436
2.39734e-05
3.90434
1.41745e-05
3.90433
7.93483e-06
3.90433
4.23826e-06
3.90433
2.18707e-06
3.90433
1.11441e-06
3.90433
5.846e-07
3.90432
3.35955e-07
3.90432
2.24736e-07
3.90432
1.77171e-07
3.90432
1.57668e-07
3.90432
1.49977e-07
3.90432
1.47058e-07
3.90432
1.45988e-07
3.90432
1.45608e-07
3.90432
1.45479e-07
3.90432
1.45437e-07
3.90432
1.45423e-07
3.90432
1.45421e-07
3.90432
1.45421e-07
3.90432
1.45421e-07
3.90432
1.45425e-07
3.90432
1.45425e-07
3.90432
1.45423e-07
3.90432
1.45428e-07
3.90431
1.45426e-07
3.90431
1.45426e-07
3.90431
1.45428e-07
3.90431
1.4543e-07
3.90431
1.45432e-07
3.90431
1.45432e-07
3.90431
1.45434e-07
3.90431
1.45435e-07
3.90431
1.45435e-07
3.90431
1.45439e-07
3.90431
1.45439e-07
3.90431
1.45441e-07
3.90431
1.45443e-07
3.90431
1.45445e-07
3.90431
1.45445e-07
3.90431
1.45446e-07
3.90431
1.45446e-07
3.90431
1.45448e-07
3.90431
1.45448e-07
3.9043
1.4545e-07
3.9043
1.45452e-07
3.9043
1.45454e-07
3.9043
1.45452e-07
3.9043
1.45455e-07
3.9043
1.45455e-07
3.9043
1.45457e-07
3.9043
1.45457e-07
3.9043
1.45459e-07
3.9043
1.45461e-07
3.9043
1.45463e-07
3.9043
1.45463e-07
3.9043
1.45463e-07
3.9043
1.45466e-07
3.9043
1.45466e-07
3.9043
1.45468e-07
3.9043
1.4547e-07
3.9043
1.4547e-07
3.9043
1.45472e-07
3.90429
1.45472e-07
3.90429
1.45475e-07
3.90429
1.45474e-07
3.90429
1.45477e-07
3.90429
1.45477e-07
3.90429
1.45479e-07
3.90429
1.45479e-07
3.90429
1.45479e-07
3.90429
1.45481e-07
3.90429
1.45483e-07
3.90429
1.45485e-07
3.90429
1.45485e-07
3.90429
1.45488e-07
3.90429
1.45486e-07
3.90429
1.45492e-07
3.90429
1.45492e-07
3.90429
1.45494e-07
3.90429
1.45492e-07
3.90429
1.45492e-07
3.90428
1.45496e-07
3.90428
1.45496e-07
3.90428
1.45497e-07
3.90428
1.45497e-07
3.90428
1.45503e-07
3.90428
1.45503e-07
3.90428
1.45503e-07
3.90428
1.45503e-07
3.90428
1.45506e-07
3.90428
1.45506e-07
3.90428
1.45508e-07
3.90428
1.4551e-07
3.90428
1.45512e-07
3.90428
1.45512e-07
3.90428
1.45512e-07
3.90428
1.45514e-07
3.90428
1.45516e-07
3.90428
1.45517e-07
3.90428
1.45519e-07
3.90428
1.45519e-07
3.90428
1.45523e-07
3.90428
1.45523e-07
3.90428
1.45528e-07
3.90428
1.45525e-07
3.90428
1.4553e-07
3.90428
1.45528e-07
3.90428
1.45528e-07
3.90428
1.4553e-07
3.90428
1.45532e-07
3.90427
1.45532e-07
3.90427
1.45532e-07
3.90427
1.45534e-07
3.90427
1.45534e-07
3.90427
1.45536e-07
3.90427
1.45536e-07
3.90427
1.45536e-07
3.90427
1.45537e-07
3.90427
1.45536e-07
3.90427
1.45537e-07
3.90427
1.45539e-07
3.90427
1.45536e-07
3.90427
1.45537e-07
3.90427
1.45537e-07
3.90427
1.45541e-07
3.90427
1.45537e-07
3.90427
1.45539e-07
3.90427
1.45537e-07
3.90427
1.45539e-07
3.90427
1.45539e-07
3.90427
1.45537e-07
3.90427
1.45541e-07
3.90427
1.45539e-07
3.90427
1.45537e-07
3.90427
1.45539e-07
3.90427
1.45539e-07
3.90427
1.45539e-07
3.90427
1.45539e-07
3.90427
1.45539e-07
3.90427
1.45541e-07
3.90427
1.45541e-07
3.90427
1.45537e-07
3.90427
1.45539e-07
3.90427
1.45541e-07
3.90427
1.45539e-07
3.90427
1.45541e-07
3.90427
1.45539e-07
3.90427
1.45541e-07
3.90427
1.45541e-07
3.90427
1.45541e-07
3.90427
1.45539e-07
3.90427
1.45541e-07
3.90427
1.45539e-07
3.90427
1.45541e-07
3.90427
1.45541e-07
3.90427
1.45539e-07
3.90427
1.45541e-07
3.90427
1.45539e-07
3.90427
1.45539e-07
3.90427
1.45541e-07
3.90427
1.45541e-07
3.90427
1.45541e-07
3.90427
1.45539e-07
3.90427
1.45539e-07
3.90427
1.45539e-07
3.90427
1.45539e-07
3.90427
1.45539e-07
3.90427
1.45541e-07
3.90427
1.45541e-07
3.90427
1.45539e-07
3.90427
1.45541e-07
3.90427
1.45541e-07
3.90427
1.45541e-07
3.90427
1.45539e-07
3.90427
1.45541e-07
3.90427
1.45539e-07
3.90427
1.45541e-07
3.90427
1.45539e-07
3.90427
1.45541e-07
3.90427
1.45541e-07
3.90427
1.45539e-07
3.90427
1.45539e-07
3.90427
1.45541e-07
3.90427
1.45539e-07
3.90427
1.45539e-07
3.90427
1.45541e-07
3.90427
1.45539e-07
3.90427
1.45541e-07
3.90427
1.45541e-07
3.90427
1.45537e-07
3.90427
1.45541e-07
3.90427
1.45539e-07
3.90427
1.45541e-07
3.90427
1.45541e-07
3.90427
1.45539e-07
3.90427
1.45539e-07
3.90427
1.45539e-07
3.90427
1.45539e-07
3.90427
1.45539e-07
3.90427
1.45541e-07
3.90427
1.45541e-07
3.90427
1.45541e-07
3.90427
1.45539e-07
3.90427
1.45539e-07
3.90427
1.45539e-07
3.90427
1.45541e-07
3.90427
1.45541e-07
3.90427
1.45541e-07
3.90427
1.45539e-07
3.90427
1.45541e-07
3.90427
1.45541e-07
3.90427
1.45541e-07
3.90427
1.45537e-07
3.90427
1.45539e-07
3.90427
1.45539e-07
3.90427
1.45543e-07
3.90427
1.45541e-07
3.90427
1.45541e-07
3.90427
1.45537e-07
3.90427
1.45539e-07
3.90427
1.45539e-07
3.90427
1.45539e-07
3.90427
1.45539e-07
3.90427
1.45539e-07
3.90427
1.45541e-07
3.90427
1.45541e-07
3.90427
1.45541e-07
3.90427
1.45543e-07
3.90427
1.45543e-07
3.90427
1.45543e-07
3.90427
1.45545e-07
3.90427
1.45545e-07
3.90427
1.45548e-07
3.90427
1.45552e-07
3.90427
1.45554e-07
3.90427
1.45556e-07
3.90427
1.45561e-07
3.90427
1.45568e-07
3.90427
1.45577e-07
3.90427
1.4559e-07
3.90426
1.45601e-07
3.90426
1.45623e-07
3.90426
1.45646e-07
3.90425
1.45676e-07
3.90425
1.45712e-07
3.90424
1.45756e-07
3.90423
1.45814e-07
3.90421
1.45883e-07
3.9042
1.45972e-07
3.90418
1.46078e-07
3.90415
1.46209e-07
3.90412
1.46361e-07
3.90408
1.46551e-07
3.90403
1.46774e-07
3.90396
1.4704e-07
3.90389
1.47355e-07
3.9038
1.47724e-07
3.90369
1.48151e-07
3.90355
1.4865e-07
3.90339
1.49214e-07
3.9032
1.49859e-07
3.90298
1.50585e-07
3.90271
1.51389e-07
3.9024
1.5228e-07
3.90203
1.53252e-07
3.90161
1.54296e-07
3.90112
1.55398e-07
3.90055
1.5655e-07
3.89991
1.57723e-07
3.89919
1.58885e-07
3.89837
1.60007e-07
3.89745
1.61041e-07
3.89643
1.6193e-07
3.89531
1.62614e-07
3.89408
1.63023e-07
3.89274
1.63078e-07
3.8913
1.62696e-07
3.88975
1.6179e-07
3.88812
1.60262e-07
3.8864
1.5803e-07
3.88461
1.54998e-07
3.88277
1.51093e-07
3.88089
1.46241e-07
3.879
1.40393e-07
3.87713
1.3351e-07
3.8753
1.25594e-07
3.87353
1.1665e-07
3.87187
1.06738e-07
3.87034
9.59353e-08
3.86896
8.43611e-08
3.86778
7.21684e-08
3.86681
5.95337e-08
3.86608
4.66734e-08
3.8656
3.38296e-08
3.86539
2.13095e-08
3.86546
1.25037e-08
3.86581
-2.77032e-09
3.86643
-1.24946e-08
3.86733
-2.12258e-08
3.86848
-2.83126e-08
3.86986
-3.5232e-08
3.87145
-3.88209e-08
3.87321
-4.05926e-08
3.87512
-4.07672e-08
3.87714
-3.87026e-08
3.87922
-3.55431e-08
3.88134
-3.00515e-08
3.88346
-2.26009e-08
3.88553
-1.41299e-08
3.88755
-4.38922e-09
3.88947
5.98993e-09
3.89127
1.71058e-08
3.89294
2.90765e-08
3.89446
4.08672e-08
3.89583
5.25288e-08
3.89704
6.38338e-08
3.89809
7.42784e-08
3.89899
8.46576e-08
3.89975
9.40363e-08
3.90037
1.02382e-07
3.90087
1.0988e-07
3.90126
1.15973e-07
3.90155
1.21587e-07
3.90177
1.26336e-07
3.90192
1.30107e-07
3.90201
1.33095e-07
3.90206
1.35164e-07
3.90208
1.36795e-07
3.90207
1.37921e-07
3.90205
1.39009e-07
3.90202
1.39455e-07
3.90198
1.3956e-07
3.90193
1.3946e-07
3.90189
1.3942e-07
3.90185
1.39271e-07
3.90181
1.39044e-07
3.90177
1.38738e-07
3.90173
1.38312e-07
3.9017
1.38058e-07
3.90168
1.37845e-07
3.90165
1.37654e-07
3.90163
1.37479e-07
3.90161
1.37157e-07
3.90159
1.3701e-07
3.90157
1.36859e-07
3.90156
1.36792e-07
3.90154
1.36743e-07
3.90153
1.36613e-07
3.90152
1.36442e-07
3.9015
1.36426e-07
3.90149
1.36357e-07
3.90148
1.36359e-07
3.90146
1.36321e-07
3.90145
1.36237e-07
3.90144
1.36102e-07
3.90142
1.3604e-07
3.90141
1.36108e-07
3.9014
1.36066e-07
3.90138
1.36e-07
3.90137
1.35935e-07
3.90136
1.35793e-07
3.90135
1.35782e-07
3.90133
1.35789e-07
3.90132
1.35797e-07
3.90131
1.35775e-07
3.9013
1.35831e-07
3.90129
1.36035e-07
3.90128
1.36833e-07
3.90127
1.38802e-07
3.90126
1.43544e-07
3.90125
1.55069e-07
3.90124
1.82892e-07
3.90123
2.27175e-07
3.90123
4.34158e-07
3.90122
7.80336e-07
3.90122
1.69886e-06
3.90121
3.87833e-06
3.9012
9.13415e-06
3.90118
2.17119e-05
3.90114
5.18159e-05
3.90102
0.000123962
3.90073
0.000296739
3.90003
0.00070914
3.89835
0.00169395
3.89432
0.00403793
3.88474
0.00960004
3.86197
0.0227843
3.80757
0.0544087
3.67116
0.136414
0.372539
3.29868
5.52326
0.000212198
5.52326
0.000166985
5.52328
0.000146448
5.52328
0.000136871
5.52329
0.000120434
5.5233
9.88277e-05
5.5233
7.59253e-05
5.5233
5.46058e-05
5.5233
3.67749e-05
5.5233
2.32463e-05
5.5233
1.38481e-05
5.5233
7.81248e-06
5.5233
4.20475e-06
5.5233
2.18434e-06
5.5233
1.11761e-06
5.5233
5.85334e-07
5.5233
3.32891e-07
5.5233
2.1872e-07
5.5233
1.69329e-07
5.52329
1.4883e-07
5.52329
1.40643e-07
5.52329
1.37497e-07
5.52329
1.36326e-07
5.52329
1.35905e-07
5.52329
1.35758e-07
5.52329
1.35708e-07
5.52329
1.35692e-07
5.52329
1.35689e-07
5.52329
1.35689e-07
5.52329
1.35689e-07
5.52329
1.35693e-07
5.52329
1.35692e-07
5.52328
1.35692e-07
5.52328
1.35697e-07
5.52328
1.35694e-07
5.52328
1.35694e-07
5.52328
1.35694e-07
5.52328
1.35697e-07
5.52328
1.35698e-07
5.52328
1.35699e-07
5.52328
1.35699e-07
5.52328
1.35702e-07
5.52328
1.35704e-07
5.52328
1.35705e-07
5.52328
1.35708e-07
5.52328
1.35709e-07
5.52327
1.35708e-07
5.52327
1.3571e-07
5.52327
1.3571e-07
5.52327
1.35712e-07
5.52327
1.35715e-07
5.52327
1.35714e-07
5.52327
1.35714e-07
5.52327
1.35717e-07
5.52327
1.35716e-07
5.52327
1.35718e-07
5.52327
1.35718e-07
5.52327
1.3572e-07
5.52327
1.35719e-07
5.52326
1.35724e-07
5.52326
1.35723e-07
5.52326
1.35721e-07
5.52326
1.35725e-07
5.52326
1.35725e-07
5.52326
1.35728e-07
5.52326
1.35729e-07
5.52326
1.35734e-07
5.52326
1.35731e-07
5.52326
1.35732e-07
5.52326
1.35733e-07
5.52326
1.35735e-07
5.52326
1.35732e-07
5.52325
1.35736e-07
5.52325
1.35735e-07
5.52325
1.3573e-07
5.52325
1.35737e-07
5.52325
1.35736e-07
5.52325
1.35738e-07
5.52325
1.35738e-07
5.52325
1.35741e-07
5.52325
1.35743e-07
5.52325
1.3574e-07
5.52325
1.35743e-07
5.52325
1.35744e-07
5.52325
1.35749e-07
5.52325
1.35747e-07
5.52324
1.35748e-07
5.52324
1.35753e-07
5.52324
1.35753e-07
5.52324
1.35753e-07
5.52324
1.35752e-07
5.52324
1.35753e-07
5.52324
1.35756e-07
5.52324
1.35757e-07
5.52324
1.35758e-07
5.52324
1.35761e-07
5.52324
1.35761e-07
5.52324
1.35759e-07
5.52324
1.35761e-07
5.52324
1.35764e-07
5.52323
1.35766e-07
5.52323
1.35768e-07
5.52323
1.35771e-07
5.52323
1.35771e-07
5.52323
1.35772e-07
5.52323
1.35768e-07
5.52323
1.3577e-07
5.52323
1.35774e-07
5.52323
1.35777e-07
5.52323
1.35777e-07
5.52323
1.35778e-07
5.52323
1.35779e-07
5.52323
1.35781e-07
5.52323
1.35783e-07
5.52323
1.35783e-07
5.52323
1.35783e-07
5.52323
1.35788e-07
5.52323
1.35787e-07
5.52323
1.35788e-07
5.52323
1.35788e-07
5.52323
1.35787e-07
5.52323
1.35791e-07
5.52323
1.35792e-07
5.52323
1.35789e-07
5.52323
1.3579e-07
5.52323
1.3579e-07
5.52323
1.3579e-07
5.52323
1.35791e-07
5.52323
1.3579e-07
5.52323
1.35794e-07
5.52323
1.35794e-07
5.52323
1.35793e-07
5.52323
1.35796e-07
5.52323
1.35795e-07
5.52323
1.35798e-07
5.52323
1.35792e-07
5.52323
1.35798e-07
5.52323
1.35794e-07
5.52323
1.35795e-07
5.52323
1.35798e-07
5.52323
1.35796e-07
5.52323
1.35799e-07
5.52323
1.35798e-07
5.52323
1.35795e-07
5.52323
1.35795e-07
5.52323
1.35797e-07
5.52323
1.35796e-07
5.52323
1.35794e-07
5.52323
1.35798e-07
5.52323
1.35796e-07
5.52323
1.35797e-07
5.52323
1.35795e-07
5.52323
1.35795e-07
5.52323
1.35796e-07
5.52323
1.35794e-07
5.52323
1.35791e-07
5.52323
1.35795e-07
5.52323
1.35796e-07
5.52323
1.35798e-07
5.52323
1.35799e-07
5.52323
1.35798e-07
5.52323
1.35797e-07
5.52323
1.35795e-07
5.52323
1.35793e-07
5.52323
1.35798e-07
5.52323
1.35798e-07
5.52323
1.35797e-07
5.52323
1.35794e-07
5.52323
1.35798e-07
5.52323
1.35796e-07
5.52323
1.35795e-07
5.52323
1.35797e-07
5.52323
1.35795e-07
5.52323
1.35796e-07
5.52323
1.35793e-07
5.52323
1.35796e-07
5.52323
1.35795e-07
5.52323
1.35795e-07
5.52323
1.35798e-07
5.52323
1.35796e-07
5.52323
1.35798e-07
5.52323
1.35798e-07
5.52323
1.35798e-07
5.52323
1.35794e-07
5.52323
1.35797e-07
5.52323
1.35797e-07
5.52323
1.35795e-07
5.52323
1.35798e-07
5.52323
1.35798e-07
5.52323
1.35797e-07
5.52323
1.35797e-07
5.52323
1.35798e-07
5.52323
1.35797e-07
5.52323
1.35797e-07
5.52323
1.35797e-07
5.52323
1.35798e-07
5.52323
1.35797e-07
5.52323
1.35796e-07
5.52323
1.35797e-07
5.52323
1.35795e-07
5.52323
1.35798e-07
5.52323
1.35795e-07
5.52323
1.35796e-07
5.52323
1.35798e-07
5.52323
1.35798e-07
5.52323
1.35798e-07
5.52323
1.35795e-07
5.52323
1.35796e-07
5.52323
1.35796e-07
5.52323
1.35798e-07
5.52323
1.35798e-07
5.52323
1.35796e-07
5.52323
1.35793e-07
5.52323
1.35792e-07
5.52323
1.35796e-07
5.52323
1.35796e-07
5.52323
1.35798e-07
5.52323
1.35795e-07
5.52323
1.35794e-07
5.52323
1.35797e-07
5.52323
1.35798e-07
5.52323
1.35798e-07
5.52323
1.35797e-07
5.52323
1.35796e-07
5.52323
1.35795e-07
5.52323
1.35799e-07
5.52323
1.35798e-07
5.52323
1.35796e-07
5.52323
1.35795e-07
5.52323
1.35798e-07
5.52323
1.35794e-07
5.52323
1.35798e-07
5.52322
1.35796e-07
5.52322
1.35795e-07
5.52322
1.35797e-07
5.52322
1.35798e-07
5.52322
1.35797e-07
5.52322
1.35798e-07
5.52322
1.35796e-07
5.52322
1.35798e-07
5.52322
1.358e-07
5.52322
1.358e-07
5.52322
1.35804e-07
5.52322
1.35807e-07
5.52322
1.35807e-07
5.52322
1.35809e-07
5.52322
1.35818e-07
5.52322
1.35825e-07
5.52322
1.35829e-07
5.52321
1.35839e-07
5.52321
1.35853e-07
5.52321
1.35873e-07
5.5232
1.35894e-07
5.52319
1.35922e-07
5.52318
1.35957e-07
5.52317
1.35999e-07
5.52316
1.36053e-07
5.52314
1.36117e-07
5.52312
1.36198e-07
5.52309
1.36297e-07
5.52305
1.36421e-07
5.523
1.36566e-07
5.52295
1.3674e-07
5.52287
1.36951e-07
5.52279
1.37199e-07
5.52268
1.37491e-07
5.52255
1.37838e-07
5.5224
1.38237e-07
5.52221
1.38702e-07
5.52198
1.39229e-07
5.52171
1.39834e-07
5.52139
1.4051e-07
5.52102
1.41263e-07
5.52057
1.42094e-07
5.52006
1.43001e-07
5.51945
1.43976e-07
5.51876
1.45006e-07
5.51797
1.4608e-07
5.51706
1.47174e-07
5.51603
1.4826e-07
5.51487
1.49307e-07
5.51358
1.5027e-07
5.51214
1.51099e-07
5.51055
1.51734e-07
5.50881
1.52119e-07
5.50691
1.52167e-07
5.50487
1.51806e-07
5.50269
1.50959e-07
5.50038
1.4953e-07
5.49794
1.47442e-07
5.49541
1.44607e-07
5.49281
1.40957e-07
5.49016
1.36422e-07
5.48749
1.30962e-07
5.48484
1.24534e-07
5.48224
1.17141e-07
5.47975
1.08793e-07
5.4774
9.95387e-08
5.47523
8.94561e-08
5.47329
7.8654e-08
5.47161
6.72762e-08
5.47024
5.54892e-08
5.46921
4.34929e-08
5.46853
3.15258e-08
5.46824
1.99352e-08
5.46834
1.13141e-08
5.46883
-2.35741e-09
5.46971
-1.16588e-08
5.47098
-1.98124e-08
5.4726
-2.64472e-08
5.47455
-3.27645e-08
5.4768
-3.62006e-08
5.4793
-3.7805e-08
5.48199
-3.79305e-08
5.48484
-3.60387e-08
5.48779
-3.30292e-08
5.49079
-2.79233e-08
5.49378
-2.0982e-08
5.49672
-1.30485e-08
5.49957
-4.00723e-09
5.50228
5.66433e-09
5.50483
1.61926e-08
5.50719
2.72275e-08
5.50934
3.82242e-08
5.51128
4.90973e-08
5.51299
5.96174e-08
5.51448
6.9389e-08
5.51575
7.90105e-08
5.51682
8.77817e-08
5.51769
9.55661e-08
5.5184
1.02517e-07
5.51895
1.08231e-07
5.51937
1.13401e-07
5.51968
1.17842e-07
5.51989
1.21383e-07
5.52002
1.24151e-07
5.52009
1.2608e-07
5.52012
1.27577e-07
5.52011
1.28653e-07
5.52008
1.29642e-07
5.52003
1.30075e-07
5.51997
1.30179e-07
5.51991
1.30085e-07
5.51985
1.30031e-07
5.51979
1.29919e-07
5.51973
1.29708e-07
5.51968
1.29418e-07
5.51963
1.29029e-07
5.51958
1.28773e-07
5.51955
1.286e-07
5.51951
1.28432e-07
5.51948
1.28261e-07
5.51945
1.27971e-07
5.51943
1.27809e-07
5.5194
1.27682e-07
5.51938
1.27631e-07
5.51936
1.27586e-07
5.51934
1.27464e-07
5.51932
1.27304e-07
5.5193
1.27271e-07
5.51928
1.2723e-07
5.51926
1.27233e-07
5.51924
1.27194e-07
5.51923
1.2711e-07
5.51921
1.26979e-07
5.51919
1.26932e-07
5.51917
1.26995e-07
5.51915
1.26965e-07
5.51913
1.26901e-07
5.51911
1.26825e-07
5.51909
1.26699e-07
5.51908
1.26703e-07
5.51906
1.26731e-07
5.51904
1.26774e-07
5.51903
1.26839e-07
5.51901
1.27112e-07
5.51899
1.27756e-07
5.51898
1.29733e-07
5.51897
1.34487e-07
5.51895
1.45927e-07
5.51894
1.73757e-07
5.51893
2.41132e-07
5.51892
3.46542e-07
5.51891
8.47311e-07
5.5189
1.67792e-06
5.5189
3.88933e-06
5.51889
9.12848e-06
5.51888
2.18003e-05
5.51885
5.2033e-05
5.51878
0.000124488
5.51862
0.000298097
5.51821
0.000713843
5.51723
0.00170633
5.51486
0.00407636
5.5092
0.00971799
5.49571
0.0231086
5.46366
0.0548565
5.38709
0.131001
5.19653
0.326999
0.853392
4.71572
7.81106
0.000175421
7.81107
0.000155785
7.81109
0.000130604
7.8111
0.000122946
7.81111
0.000109393
7.81112
9.02843e-05
7.81112
6.98133e-05
7.81113
5.06279e-05
7.81113
3.44095e-05
7.81113
2.19648e-05
7.81113
1.32196e-05
7.81113
7.53757e-06
7.81113
4.09898e-06
7.81112
2.14905e-06
7.81112
1.10614e-06
7.81112
5.78632e-07
7.81112
3.24978e-07
7.81112
2.08619e-07
7.81112
1.57543e-07
7.81112
1.36026e-07
7.81112
1.27301e-07
7.81112
1.23894e-07
7.81111
1.22604e-07
7.81111
1.22134e-07
7.81111
1.21966e-07
7.81111
1.2191e-07
7.81111
1.2189e-07
7.81111
1.21885e-07
7.81111
1.21885e-07
7.81111
1.21884e-07
7.81111
1.21885e-07
7.81111
1.21887e-07
7.8111
1.21887e-07
7.8111
1.21889e-07
7.8111
1.21886e-07
7.8111
1.2189e-07
7.8111
1.21888e-07
7.8111
1.2189e-07
7.8111
1.21892e-07
7.8111
1.21893e-07
7.8111
1.21892e-07
7.81109
1.21894e-07
7.81109
1.21897e-07
7.81109
1.21896e-07
7.81109
1.21901e-07
7.81109
1.21902e-07
7.81109
1.21901e-07
7.81109
1.21902e-07
7.81109
1.21903e-07
7.81109
1.21905e-07
7.81109
1.21908e-07
7.81108
1.21906e-07
7.81108
1.21908e-07
7.81108
1.21909e-07
7.81108
1.2191e-07
7.81108
1.21911e-07
7.81108
1.21912e-07
7.81108
1.21913e-07
7.81108
1.21911e-07
7.81108
1.21915e-07
7.81107
1.21915e-07
7.81107
1.21914e-07
7.81107
1.21916e-07
7.81107
1.21917e-07
7.81107
1.21918e-07
7.81107
1.2192e-07
7.81107
1.21922e-07
7.81107
1.21921e-07
7.81107
1.21922e-07
7.81107
1.21924e-07
7.81106
1.21926e-07
7.81106
1.21924e-07
7.81106
1.21925e-07
7.81106
1.21923e-07
7.81106
1.2192e-07
7.81106
1.21925e-07
7.81106
1.21925e-07
7.81106
1.21929e-07
7.81106
1.21926e-07
7.81105
1.21929e-07
7.81105
1.21931e-07
7.81105
1.21929e-07
7.81105
1.2193e-07
7.81105
1.21932e-07
7.81105
1.21935e-07
7.81105
1.21935e-07
7.81105
1.21935e-07
7.81105
1.2194e-07
7.81105
1.21939e-07
7.81104
1.21941e-07
7.81104
1.21939e-07
7.81104
1.21941e-07
7.81104
1.21942e-07
7.81104
1.21944e-07
7.81104
1.21946e-07
7.81104
1.21946e-07
7.81104
1.21947e-07
7.81104
1.21946e-07
7.81104
1.21947e-07
7.81103
1.21951e-07
7.81103
1.21953e-07
7.81103
1.21955e-07
7.81103
1.21958e-07
7.81103
1.21957e-07
7.81103
1.21956e-07
7.81103
1.21955e-07
7.81103
1.21956e-07
7.81103
1.21959e-07
7.81103
1.21961e-07
7.81103
1.21961e-07
7.81103
1.21964e-07
7.81103
1.21965e-07
7.81103
1.21966e-07
7.81102
1.21967e-07
7.81102
1.21968e-07
7.81102
1.21969e-07
7.81102
1.21971e-07
7.81102
1.21971e-07
7.81102
1.21971e-07
7.81102
1.21971e-07
7.81102
1.21972e-07
7.81102
1.21976e-07
7.81102
1.21976e-07
7.81102
1.21971e-07
7.81102
1.21973e-07
7.81102
1.21973e-07
7.81102
1.21973e-07
7.81102
1.21976e-07
7.81102
1.21975e-07
7.81102
1.21977e-07
7.81102
1.21977e-07
7.81102
1.21976e-07
7.81102
1.21979e-07
7.81102
1.2198e-07
7.81102
1.21982e-07
7.81102
1.21978e-07
7.81102
1.21981e-07
7.81102
1.21978e-07
7.81102
1.21978e-07
7.81102
1.21978e-07
7.81102
1.21977e-07
7.81102
1.21979e-07
7.81102
1.21981e-07
7.81102
1.21977e-07
7.81102
1.21977e-07
7.81102
1.21977e-07
7.81102
1.21979e-07
7.81102
1.21977e-07
7.81102
1.21981e-07
7.81102
1.21978e-07
7.81102
1.21978e-07
7.81102
1.21978e-07
7.81102
1.21978e-07
7.81102
1.21978e-07
7.81102
1.21977e-07
7.81102
1.21975e-07
7.81102
1.21977e-07
7.81102
1.21977e-07
7.81102
1.21981e-07
7.81102
1.21982e-07
7.81102
1.2198e-07
7.81102
1.21979e-07
7.81102
1.21978e-07
7.81102
1.21976e-07
7.81102
1.2198e-07
7.81102
1.2198e-07
7.81102
1.21979e-07
7.81102
1.21979e-07
7.81102
1.21982e-07
7.81102
1.21979e-07
7.81102
1.21977e-07
7.81102
1.21978e-07
7.81102
1.21979e-07
7.81102
1.21978e-07
7.81102
1.21977e-07
7.81102
1.21979e-07
7.81102
1.21979e-07
7.81102
1.21978e-07
7.81102
1.21981e-07
7.81102
1.21978e-07
7.81102
1.21981e-07
7.81102
1.2198e-07
7.81102
1.21981e-07
7.81102
1.21978e-07
7.81102
1.2198e-07
7.81102
1.21979e-07
7.81102
1.21977e-07
7.81102
1.2198e-07
7.81102
1.21981e-07
7.81102
1.2198e-07
7.81102
1.21981e-07
7.81102
1.21981e-07
7.81102
1.21981e-07
7.81102
1.21981e-07
7.81102
1.2198e-07
7.81102
1.21982e-07
7.81102
1.2198e-07
7.81102
1.21979e-07
7.81102
1.21979e-07
7.81102
1.21978e-07
7.81102
1.21981e-07
7.81102
1.21979e-07
7.81102
1.21978e-07
7.81102
1.2198e-07
7.81102
1.21981e-07
7.81102
1.2198e-07
7.81102
1.2198e-07
7.81102
1.21978e-07
7.81102
1.2198e-07
7.81102
1.21981e-07
7.81102
1.21979e-07
7.81102
1.21978e-07
7.81102
1.21977e-07
7.81102
1.21976e-07
7.81102
1.21979e-07
7.81102
1.21979e-07
7.81102
1.21979e-07
7.81102
1.21978e-07
7.81102
1.21976e-07
7.81102
1.21978e-07
7.81102
1.2198e-07
7.81102
1.21981e-07
7.81102
1.21981e-07
7.81102
1.21978e-07
7.81102
1.21977e-07
7.81102
1.2198e-07
7.81102
1.2198e-07
7.81102
1.2198e-07
7.81102
1.21978e-07
7.81102
1.21979e-07
7.81102
1.21976e-07
7.81102
1.21981e-07
7.81102
1.2198e-07
7.81102
1.21977e-07
7.81102
1.21978e-07
7.81102
1.21981e-07
7.81102
1.2198e-07
7.81102
1.21981e-07
7.81102
1.21978e-07
7.81102
1.21979e-07
7.81102
1.21982e-07
7.81102
1.21982e-07
7.81102
1.21986e-07
7.81102
1.21987e-07
7.81102
1.21988e-07
7.81102
1.21991e-07
7.81101
1.21997e-07
7.81101
1.22005e-07
7.81101
1.22011e-07
7.811
1.22018e-07
7.811
1.22032e-07
7.81099
1.22049e-07
7.81099
1.22067e-07
7.81098
1.22091e-07
7.81096
1.22121e-07
7.81095
1.22162e-07
7.81093
1.22209e-07
7.8109
1.22268e-07
7.81087
1.2234e-07
7.81082
1.22429e-07
7.81077
1.2254e-07
7.81071
1.22671e-07
7.81062
1.22829e-07
7.81052
1.23017e-07
7.8104
1.2324e-07
7.81025
1.23505e-07
7.81007
1.23815e-07
7.80985
1.24176e-07
7.80958
1.2459e-07
7.80926
1.25066e-07
7.80888
1.25608e-07
7.80843
1.26216e-07
7.80789
1.26892e-07
7.80727
1.27639e-07
7.80654
1.28455e-07
7.80569
1.29332e-07
7.80471
1.30256e-07
7.80358
1.31221e-07
7.8023
1.32204e-07
7.80084
1.3318e-07
7.79921
1.3412e-07
7.79737
1.34986e-07
7.79534
1.35728e-07
7.79309
1.36298e-07
7.79063
1.36641e-07
7.78795
1.36683e-07
7.78507
1.36358e-07
7.78198
1.35591e-07
7.77871
1.34306e-07
7.77527
1.32428e-07
7.77169
1.29881e-07
7.768
1.26596e-07
7.76425
1.22519e-07
7.76048
1.1761e-07
7.75673
1.11835e-07
7.75307
1.05189e-07
7.74954
9.76906e-08
7.74621
8.93747e-08
7.74315
8.03161e-08
7.7404
7.06118e-08
7.73803
6.03955e-08
7.73609
4.98094e-08
7.73463
3.90396e-08
7.73367
2.83044e-08
7.73326
1.79834e-08
7.7334
9.80299e-09
7.73409
-1.87492e-09
7.73534
-1.0542e-08
7.73713
-1.7767e-08
7.73942
-2.37892e-08
7.74219
-2.93339e-08
7.74536
-3.25322e-08
7.74889
-3.39201e-08
7.75271
-3.40165e-08
7.75674
-3.23507e-08
7.76091
-2.95781e-08
7.76515
-2.50157e-08
7.76938
-1.88093e-08
7.77354
-1.16602e-08
7.77756
-3.62297e-09
7.7814
5.15092e-09
7.78501
1.48361e-08
7.78834
2.44568e-08
7.79139
3.43534e-08
7.79412
4.41264e-08
7.79654
5.35588e-08
7.79865
6.23768e-08
7.80045
7.09811e-08
7.80196
7.88596e-08
7.8032
8.58558e-08
7.8042
9.20631e-08
7.80498
9.72377e-08
7.80557
1.01827e-07
7.806
1.05817e-07
7.8063
1.09037e-07
7.80649
1.11489e-07
7.80659
1.1324e-07
7.80663
1.14563e-07
7.80661
1.15553e-07
7.80657
1.16405e-07
7.8065
1.1681e-07
7.80642
1.16923e-07
7.80633
1.16838e-07
7.80624
1.16774e-07
7.80616
1.16688e-07
7.80607
1.16495e-07
7.806
1.16229e-07
7.80593
1.15893e-07
7.80587
1.1565e-07
7.80582
1.15509e-07
7.80577
1.15365e-07
7.80572
1.15203e-07
7.80568
1.14953e-07
7.80565
1.14788e-07
7.80561
1.14684e-07
7.80558
1.14646e-07
7.80555
1.14604e-07
7.80552
1.14497e-07
7.8055
1.14352e-07
7.80547
1.1431e-07
7.80544
1.14289e-07
7.80542
1.14286e-07
7.80539
1.14248e-07
7.80536
1.14177e-07
7.80534
1.14057e-07
7.80531
1.14025e-07
7.80528
1.14076e-07
7.80526
1.14049e-07
7.80523
1.13991e-07
7.8052
1.13913e-07
7.80518
1.13812e-07
7.80515
1.13827e-07
7.80513
1.13878e-07
7.8051
1.13972e-07
7.80508
1.14163e-07
7.80506
1.1469e-07
7.80504
1.1606e-07
7.80502
1.19605e-07
7.805
1.28208e-07
7.80498
1.48922e-07
7.80496
1.9935e-07
7.80494
3.26093e-07
7.80493
4.89845e-07
7.80492
1.44958e-06
7.80491
2.90889e-06
7.8049
6.92685e-06
7.80489
1.64016e-05
7.80487
3.93638e-05
7.80483
9.40629e-05
7.80474
0.000225227
7.80451
0.000539492
7.80395
0.0012921
7.80259
0.00308891
7.79931
0.00737981
7.79146
0.0175957
7.77274
0.0418481
7.72828
0.0993447
7.62234
0.236977
7.36234
0.587034
1.469
6.74679
34.4796
7.13805e-05
34.4797
8.05185e-05
34.4798
6.60969e-05
34.4798
6.17709e-05
34.4799
5.63733e-05
34.4799
4.73509e-05
34.4799
3.70462e-05
34.48
2.72209e-05
34.48
1.87712e-05
34.48
1.21553e-05
34.48
7.41795e-06
34.48
4.2875e-06
34.48
2.3618e-06
34.48
1.25158e-06
34.48
6.48241e-07
34.48
3.37966e-07
34.48
1.86258e-07
34.48
1.15453e-07
34.4799
8.38022e-08
34.4799
7.02064e-08
34.4799
6.45764e-08
34.4799
6.23259e-08
34.4799
6.1453e-08
34.4799
6.11249e-08
34.4799
6.1005e-08
34.4799
6.09623e-08
34.4799
6.09468e-08
34.4799
6.09427e-08
34.4799
6.09421e-08
34.4799
6.09416e-08
34.4799
6.09418e-08
34.4799
6.0943e-08
34.4799
6.09436e-08
34.4799
6.09443e-08
34.4799
6.09434e-08
34.4799
6.09443e-08
34.4799
6.09436e-08
34.4799
6.09441e-08
34.4799
6.0945e-08
34.4799
6.09459e-08
34.4798
6.09455e-08
34.4798
6.09466e-08
34.4798
6.09475e-08
34.4798
6.09482e-08
34.4798
6.09496e-08
34.4798
6.09493e-08
34.4798
6.09498e-08
34.4798
6.09496e-08
34.4798
6.09507e-08
34.4798
6.09516e-08
34.4798
6.09525e-08
34.4798
6.09523e-08
34.4798
6.0953e-08
34.4798
6.09539e-08
34.4798
6.09546e-08
34.4798
6.0955e-08
34.4798
6.09559e-08
34.4798
6.09562e-08
34.4798
6.09564e-08
34.4798
6.09573e-08
34.4798
6.09575e-08
34.4797
6.09564e-08
34.4797
6.0958e-08
34.4797
6.09587e-08
34.4797
6.09584e-08
34.4797
6.09589e-08
34.4797
6.09602e-08
34.4797
6.09605e-08
34.4797
6.09605e-08
34.4797
6.09609e-08
34.4797
6.09614e-08
34.4797
6.09614e-08
34.4797
6.09616e-08
34.4797
6.09609e-08
34.4797
6.09605e-08
34.4797
6.09609e-08
34.4797
6.09621e-08
34.4797
6.09625e-08
34.4797
6.09623e-08
34.4797
6.0963e-08
34.4797
6.09637e-08
34.4797
6.09632e-08
34.4796
6.09641e-08
34.4796
6.09657e-08
34.4796
6.09666e-08
34.4796
6.09666e-08
34.4796
6.09675e-08
34.4796
6.09684e-08
34.4796
6.09691e-08
34.4796
6.09693e-08
34.4796
6.09689e-08
34.4796
6.097e-08
34.4796
6.09705e-08
34.4796
6.09709e-08
34.4796
6.09714e-08
34.4796
6.09718e-08
34.4796
6.09721e-08
34.4796
6.09718e-08
34.4796
6.09737e-08
34.4796
6.09748e-08
34.4796
6.09764e-08
34.4796
6.09768e-08
34.4796
6.09778e-08
34.4796
6.0978e-08
34.4796
6.09775e-08
34.4796
6.09759e-08
34.4795
6.09773e-08
34.4795
6.09782e-08
34.4795
6.09798e-08
34.4795
6.09803e-08
34.4795
6.09812e-08
34.4795
6.09816e-08
34.4795
6.09821e-08
34.4795
6.0983e-08
34.4795
6.09839e-08
34.4795
6.09841e-08
34.4795
6.09846e-08
34.4795
6.09859e-08
34.4795
6.09853e-08
34.4795
6.0985e-08
34.4795
6.09855e-08
34.4795
6.09868e-08
34.4795
6.09864e-08
34.4795
6.0985e-08
34.4795
6.09862e-08
34.4795
6.09857e-08
34.4795
6.09855e-08
34.4795
6.09862e-08
34.4795
6.09859e-08
34.4795
6.09875e-08
34.4795
6.09878e-08
34.4795
6.09873e-08
34.4795
6.09889e-08
34.4795
6.09898e-08
34.4795
6.09905e-08
34.4795
6.09884e-08
34.4795
6.09898e-08
34.4795
6.09884e-08
34.4795
6.09891e-08
34.4795
6.09889e-08
34.4795
6.09884e-08
34.4795
6.09889e-08
34.4795
6.09896e-08
34.4795
6.09878e-08
34.4795
6.09878e-08
34.4795
6.09878e-08
34.4795
6.09882e-08
34.4795
6.09873e-08
34.4795
6.09887e-08
34.4795
6.09887e-08
34.4795
6.09889e-08
34.4795
6.09889e-08
34.4795
6.09884e-08
34.4795
6.09884e-08
34.4795
6.09878e-08
34.4795
6.09864e-08
34.4795
6.09875e-08
34.4795
6.09875e-08
34.4795
6.09891e-08
34.4795
6.09898e-08
34.4795
6.09894e-08
34.4795
6.09887e-08
34.4795
6.09887e-08
34.4795
6.09884e-08
34.4795
6.09894e-08
34.4795
6.09903e-08
34.4795
6.09896e-08
34.4795
6.09889e-08
34.4795
6.09896e-08
34.4795
6.09891e-08
34.4795
6.09882e-08
34.4795
6.09884e-08
34.4795
6.09887e-08
34.4795
6.09882e-08
34.4795
6.09878e-08
34.4795
6.09882e-08
34.4795
6.09887e-08
34.4795
6.09889e-08
34.4795
6.09896e-08
34.4795
6.09889e-08
34.4795
6.099e-08
34.4795
6.09898e-08
34.4795
6.09896e-08
34.4795
6.09882e-08
34.4795
6.09894e-08
34.4795
6.09882e-08
34.4795
6.0988e-08
34.4795
6.09889e-08
34.4795
6.099e-08
34.4795
6.09898e-08
34.4795
6.09898e-08
34.4795
6.09903e-08
34.4795
6.099e-08
34.4795
6.099e-08
34.4795
6.099e-08
34.4795
6.09905e-08
34.4795
6.09896e-08
34.4795
6.09891e-08
34.4795
6.09887e-08
34.4795
6.09884e-08
34.4795
6.09896e-08
34.4795
6.09894e-08
34.4795
6.09882e-08
34.4795
6.09889e-08
34.4795
6.09887e-08
34.4795
6.09887e-08
34.4795
6.09887e-08
34.4795
6.09884e-08
34.4795
6.09887e-08
34.4795
6.09898e-08
34.4795
6.09891e-08
34.4795
6.09887e-08
34.4795
6.0988e-08
34.4795
6.09868e-08
34.4795
6.0988e-08
34.4795
6.09889e-08
34.4795
6.09887e-08
34.4795
6.09889e-08
34.4795
6.09882e-08
34.4795
6.09887e-08
34.4795
6.09898e-08
34.4795
6.09898e-08
34.4795
6.09898e-08
34.4795
6.09887e-08
34.4795
6.09875e-08
34.4795
6.09889e-08
34.4795
6.09889e-08
34.4795
6.09889e-08
34.4795
6.09884e-08
34.4795
6.09882e-08
34.4795
6.0988e-08
34.4795
6.09891e-08
34.4795
6.09891e-08
34.4795
6.09889e-08
34.4795
6.09889e-08
34.4795
6.09894e-08
34.4795
6.09891e-08
34.4795
6.09894e-08
34.4795
6.09887e-08
34.4795
6.09896e-08
34.4795
6.099e-08
34.4795
6.09894e-08
34.4795
6.09919e-08
34.4795
6.09932e-08
34.4795
6.09939e-08
34.4795
6.09955e-08
34.4795
6.09975e-08
34.4795
6.10016e-08
34.4795
6.1005e-08
34.4794
6.10078e-08
34.4794
6.10146e-08
34.4794
6.10235e-08
34.4794
6.10323e-08
34.4793
6.10448e-08
34.4793
6.10596e-08
34.4792
6.10798e-08
34.4791
6.11044e-08
34.479
6.11335e-08
34.4788
6.11692e-08
34.4786
6.12138e-08
34.4784
6.1269e-08
34.4781
6.13347e-08
34.4778
6.14139e-08
34.4773
6.1508e-08
34.4768
6.16201e-08
34.4761
6.17524e-08
34.4753
6.19079e-08
34.4743
6.2088e-08
34.4732
6.22945e-08
34.4717
6.25325e-08
34.4701