/*--------------------------------*- C++ -*----------------------------------*\
| =========                 |                                                 |
| \\      /  F ield         | OpenFOAM: The Open Source CFD Toolbox           |
|  \\    /   O peration     | Version:  3.0.x                                 |
|   \\  /    A nd           | Web:      www.OpenFOAM.org                      |
|    \\/     M anipulation  |                                                 |
\*---------------------------------------------------------------------------*/
FoamFile
{
    version     2.0;
    format      ascii;
    class       volScalarField;
    location    "0.52";
    object      p;
}
// * * * * * * * * * * * * * * * * * * * * * * * * * * * * * * * * * * * * * //

dimensions      [1 -1 -2 0 0 0 0];

internalField   nonuniform List<scalar> 
13800
(
1.81865e+07
1.81867e+07
1.81871e+07
1.81876e+07
1.8188e+07
1.81886e+07
1.81892e+07
1.81898e+07
1.81905e+07
1.81913e+07
1.81921e+07
1.81929e+07
1.81939e+07
1.81948e+07
1.81959e+07
1.8197e+07
1.81981e+07
1.81993e+07
1.82006e+07
1.82019e+07
1.82033e+07
1.82047e+07
1.82062e+07
1.82077e+07
1.82093e+07
1.8211e+07
1.82127e+07
1.82145e+07
1.82163e+07
1.82182e+07
1.82201e+07
1.82221e+07
1.82241e+07
1.82262e+07
1.82284e+07
1.82306e+07
1.82329e+07
1.82352e+07
1.82376e+07
1.824e+07
1.82425e+07
1.8245e+07
1.82476e+07
1.82502e+07
1.82529e+07
1.82557e+07
1.82585e+07
1.82614e+07
1.82643e+07
1.82672e+07
1.82702e+07
1.82733e+07
1.82764e+07
1.82796e+07
1.82828e+07
1.82861e+07
1.82894e+07
1.82928e+07
1.82962e+07
1.82997e+07
1.83033e+07
1.83068e+07
1.83105e+07
1.83141e+07
1.83179e+07
1.83216e+07
1.83255e+07
1.83293e+07
1.83332e+07
1.83372e+07
1.83412e+07
1.83453e+07
1.83494e+07
1.83535e+07
1.83577e+07
1.83619e+07
1.83662e+07
1.83705e+07
1.83749e+07
1.83793e+07
1.83837e+07
1.83882e+07
1.83927e+07
1.83973e+07
1.84019e+07
1.84065e+07
1.84112e+07
1.84159e+07
1.84207e+07
1.84255e+07
1.84303e+07
1.84352e+07
1.84401e+07
1.84451e+07
1.845e+07
1.8455e+07
1.84601e+07
1.84652e+07
1.84703e+07
1.84754e+07
1.84806e+07
1.84858e+07
1.8491e+07
1.84963e+07
1.85016e+07
1.85069e+07
1.85122e+07
1.85176e+07
1.8523e+07
1.85284e+07
1.85338e+07
1.85393e+07
1.85448e+07
1.85503e+07
1.85559e+07
1.85614e+07
1.8567e+07
1.85726e+07
1.85782e+07
1.85839e+07
1.85895e+07
1.85952e+07
1.86009e+07
1.86066e+07
1.86124e+07
1.86181e+07
1.86239e+07
1.86296e+07
1.86354e+07
1.86412e+07
1.8647e+07
1.86529e+07
1.86587e+07
1.86645e+07
1.86704e+07
1.86763e+07
1.86821e+07
1.8688e+07
1.86939e+07
1.86998e+07
1.87057e+07
1.87116e+07
1.87175e+07
1.87234e+07
1.87294e+07
1.87353e+07
1.87412e+07
1.87471e+07
1.87531e+07
1.8759e+07
1.87649e+07
1.87709e+07
1.87768e+07
1.87827e+07
1.87886e+07
1.87945e+07
1.88005e+07
1.88064e+07
1.88123e+07
1.88182e+07
1.88241e+07
1.883e+07
1.88359e+07
1.88417e+07
1.88476e+07
1.88535e+07
1.88593e+07
1.88651e+07
1.8871e+07
1.88768e+07
1.88826e+07
1.88884e+07
1.88942e+07
1.88999e+07
1.89057e+07
1.89114e+07
1.89172e+07
1.89229e+07
1.89286e+07
1.89342e+07
1.89399e+07
1.89455e+07
1.89512e+07
1.89568e+07
1.89624e+07
1.8968e+07
1.89735e+07
1.8979e+07
1.89846e+07
1.899e+07
1.89955e+07
1.9001e+07
1.90064e+07
1.90118e+07
1.90172e+07
1.90226e+07
1.90279e+07
1.90332e+07
1.90385e+07
1.90438e+07
1.81865e+07
1.81867e+07
1.81871e+07
1.81876e+07
1.8188e+07
1.81886e+07
1.81892e+07
1.81898e+07
1.81905e+07
1.81913e+07
1.81921e+07
1.81929e+07
1.81939e+07
1.81948e+07
1.81959e+07
1.8197e+07
1.81981e+07
1.81993e+07
1.82006e+07
1.82019e+07
1.82033e+07
1.82047e+07
1.82062e+07
1.82077e+07
1.82093e+07
1.8211e+07
1.82127e+07
1.82145e+07
1.82163e+07
1.82182e+07
1.82201e+07
1.82221e+07
1.82241e+07
1.82262e+07
1.82284e+07
1.82306e+07
1.82329e+07
1.82352e+07
1.82376e+07
1.824e+07
1.82425e+07
1.8245e+07
1.82476e+07
1.82502e+07
1.82529e+07
1.82557e+07
1.82585e+07
1.82614e+07
1.82643e+07
1.82672e+07
1.82702e+07
1.82733e+07
1.82764e+07
1.82796e+07
1.82828e+07
1.82861e+07
1.82894e+07
1.82928e+07
1.82962e+07
1.82997e+07
1.83033e+07
1.83068e+07
1.83105e+07
1.83141e+07
1.83179e+07
1.83216e+07
1.83255e+07
1.83293e+07
1.83332e+07
1.83372e+07
1.83412e+07
1.83453e+07
1.83494e+07
1.83535e+07
1.83577e+07
1.83619e+07
1.83662e+07
1.83705e+07
1.83749e+07
1.83793e+07
1.83837e+07
1.83882e+07
1.83927e+07
1.83973e+07
1.84019e+07
1.84065e+07
1.84112e+07
1.84159e+07
1.84207e+07
1.84255e+07
1.84303e+07
1.84352e+07
1.84401e+07
1.84451e+07
1.845e+07
1.8455e+07
1.84601e+07
1.84652e+07
1.84703e+07
1.84754e+07
1.84806e+07
1.84858e+07
1.8491e+07
1.84963e+07
1.85016e+07
1.85069e+07
1.85122e+07
1.85176e+07
1.8523e+07
1.85284e+07
1.85338e+07
1.85393e+07
1.85448e+07
1.85503e+07
1.85559e+07
1.85614e+07
1.8567e+07
1.85726e+07
1.85782e+07
1.85839e+07
1.85895e+07
1.85952e+07
1.86009e+07
1.86066e+07
1.86124e+07
1.86181e+07
1.86239e+07
1.86296e+07
1.86354e+07
1.86412e+07
1.8647e+07
1.86529e+07
1.86587e+07
1.86645e+07
1.86704e+07
1.86763e+07
1.86821e+07
1.8688e+07
1.86939e+07
1.86998e+07
1.87057e+07
1.87116e+07
1.87175e+07
1.87234e+07
1.87294e+07
1.87353e+07
1.87412e+07
1.87471e+07
1.87531e+07
1.8759e+07
1.87649e+07
1.87709e+07
1.87768e+07
1.87827e+07
1.87886e+07
1.87945e+07
1.88005e+07
1.88064e+07
1.88123e+07
1.88182e+07
1.88241e+07
1.883e+07
1.88359e+07
1.88417e+07
1.88476e+07
1.88535e+07
1.88593e+07
1.88651e+07
1.8871e+07
1.88768e+07
1.88826e+07
1.88884e+07
1.88942e+07
1.88999e+07
1.89057e+07
1.89114e+07
1.89172e+07
1.89229e+07
1.89286e+07
1.89342e+07
1.89399e+07
1.89455e+07
1.89512e+07
1.89568e+07
1.89624e+07
1.8968e+07
1.89735e+07
1.8979e+07
1.89846e+07
1.899e+07
1.89955e+07
1.9001e+07
1.90064e+07
1.90118e+07
1.90172e+07
1.90226e+07
1.90279e+07
1.90332e+07
1.90385e+07
1.90438e+07
1.81865e+07
1.81867e+07
1.81871e+07
1.81876e+07
1.8188e+07
1.81886e+07
1.81892e+07
1.81898e+07
1.81905e+07
1.81913e+07
1.81921e+07
1.81929e+07
1.81939e+07
1.81948e+07
1.81959e+07
1.8197e+07
1.81981e+07
1.81993e+07
1.82006e+07
1.82019e+07
1.82033e+07
1.82047e+07
1.82062e+07
1.82077e+07
1.82093e+07
1.8211e+07
1.82127e+07
1.82145e+07
1.82163e+07
1.82182e+07
1.82201e+07
1.82221e+07
1.82241e+07
1.82262e+07
1.82284e+07
1.82306e+07
1.82329e+07
1.82352e+07
1.82376e+07
1.824e+07
1.82425e+07
1.8245e+07
1.82476e+07
1.82502e+07
1.82529e+07
1.82557e+07
1.82585e+07
1.82614e+07
1.82643e+07
1.82672e+07
1.82702e+07
1.82733e+07
1.82764e+07
1.82796e+07
1.82828e+07
1.82861e+07
1.82894e+07
1.82928e+07
1.82962e+07
1.82997e+07
1.83033e+07
1.83068e+07
1.83105e+07
1.83141e+07
1.83179e+07
1.83216e+07
1.83255e+07
1.83293e+07
1.83332e+07
1.83372e+07
1.83412e+07
1.83453e+07
1.83494e+07
1.83535e+07
1.83577e+07
1.83619e+07
1.83662e+07
1.83705e+07
1.83749e+07
1.83793e+07
1.83837e+07
1.83882e+07
1.83927e+07
1.83973e+07
1.84019e+07
1.84065e+07
1.84112e+07
1.84159e+07
1.84207e+07
1.84255e+07
1.84303e+07
1.84352e+07
1.84401e+07
1.84451e+07
1.845e+07
1.8455e+07
1.84601e+07
1.84652e+07
1.84703e+07
1.84754e+07
1.84806e+07
1.84858e+07
1.8491e+07
1.84963e+07
1.85016e+07
1.85069e+07
1.85122e+07
1.85176e+07
1.8523e+07
1.85284e+07
1.85338e+07
1.85393e+07
1.85448e+07
1.85503e+07
1.85559e+07
1.85614e+07
1.8567e+07
1.85726e+07
1.85782e+07
1.85839e+07
1.85895e+07
1.85952e+07
1.86009e+07
1.86066e+07
1.86124e+07
1.86181e+07
1.86239e+07
1.86296e+07
1.86354e+07
1.86412e+07
1.8647e+07
1.86529e+07
1.86587e+07
1.86645e+07
1.86704e+07
1.86763e+07
1.86821e+07
1.8688e+07
1.86939e+07
1.86998e+07
1.87057e+07
1.87116e+07
1.87175e+07
1.87234e+07
1.87294e+07
1.87353e+07
1.87412e+07
1.87471e+07
1.87531e+07
1.8759e+07
1.87649e+07
1.87709e+07
1.87768e+07
1.87827e+07
1.87886e+07
1.87945e+07
1.88005e+07
1.88064e+07
1.88123e+07
1.88182e+07
1.88241e+07
1.883e+07
1.88359e+07
1.88417e+07
1.88476e+07
1.88535e+07
1.88593e+07
1.88651e+07
1.8871e+07
1.88768e+07
1.88826e+07
1.88884e+07
1.88942e+07
1.88999e+07
1.89057e+07
1.89114e+07
1.89172e+07
1.89229e+07
1.89286e+07
1.89342e+07
1.89399e+07
1.89455e+07
1.89512e+07
1.89568e+07
1.89624e+07
1.8968e+07
1.89735e+07
1.8979e+07
1.89846e+07
1.899e+07
1.89955e+07
1.9001e+07
1.90064e+07
1.90118e+07
1.90172e+07
1.90226e+07
1.90279e+07
1.90332e+07
1.90385e+07
1.90438e+07
1.81865e+07
1.81867e+07
1.81871e+07
1.81876e+07
1.8188e+07
1.81886e+07
1.81892e+07
1.81898e+07
1.81905e+07
1.81913e+07
1.81921e+07
1.81929e+07
1.81939e+07
1.81948e+07
1.81959e+07
1.8197e+07
1.81981e+07
1.81993e+07
1.82006e+07
1.82019e+07
1.82033e+07
1.82047e+07
1.82062e+07
1.82077e+07
1.82093e+07
1.8211e+07
1.82127e+07
1.82145e+07
1.82163e+07
1.82182e+07
1.82201e+07
1.82221e+07
1.82241e+07
1.82262e+07
1.82284e+07
1.82306e+07
1.82329e+07
1.82352e+07
1.82376e+07
1.824e+07
1.82425e+07
1.8245e+07
1.82476e+07
1.82502e+07
1.82529e+07
1.82557e+07
1.82585e+07
1.82614e+07
1.82643e+07
1.82672e+07
1.82702e+07
1.82733e+07
1.82764e+07
1.82796e+07
1.82828e+07
1.82861e+07
1.82894e+07
1.82928e+07
1.82962e+07
1.82997e+07
1.83033e+07
1.83068e+07
1.83105e+07
1.83141e+07
1.83179e+07
1.83216e+07
1.83255e+07
1.83293e+07
1.83332e+07
1.83372e+07
1.83412e+07
1.83453e+07
1.83494e+07
1.83535e+07
1.83577e+07
1.83619e+07
1.83662e+07
1.83705e+07
1.83749e+07
1.83793e+07
1.83837e+07
1.83882e+07
1.83927e+07
1.83973e+07
1.84019e+07
1.84065e+07
1.84112e+07
1.84159e+07
1.84207e+07
1.84255e+07
1.84303e+07
1.84352e+07
1.84401e+07
1.84451e+07
1.845e+07
1.8455e+07
1.84601e+07
1.84652e+07
1.84703e+07
1.84754e+07
1.84806e+07
1.84858e+07
1.8491e+07
1.84963e+07
1.85016e+07
1.85069e+07
1.85122e+07
1.85176e+07
1.8523e+07
1.85284e+07
1.85338e+07
1.85393e+07
1.85448e+07
1.85503e+07
1.85559e+07
1.85614e+07
1.8567e+07
1.85726e+07
1.85782e+07
1.85839e+07
1.85895e+07
1.85952e+07
1.86009e+07
1.86066e+07
1.86124e+07
1.86181e+07
1.86239e+07
1.86296e+07
1.86354e+07
1.86412e+07
1.8647e+07
1.86529e+07
1.86587e+07
1.86645e+07
1.86704e+07
1.86763e+07
1.86821e+07
1.8688e+07
1.86939e+07
1.86998e+07
1.87057e+07
1.87116e+07
1.87175e+07
1.87234e+07
1.87294e+07
1.87353e+07
1.87412e+07
1.87471e+07
1.87531e+07
1.8759e+07
1.87649e+07
1.87709e+07
1.87768e+07
1.87827e+07
1.87886e+07
1.87945e+07
1.88005e+07
1.88064e+07
1.88123e+07
1.88182e+07
1.88241e+07
1.883e+07
1.88359e+07
1.88417e+07
1.88476e+07
1.88535e+07
1.88593e+07
1.88651e+07
1.8871e+07
1.88768e+07
1.88826e+07
1.88884e+07
1.88942e+07
1.88999e+07
1.89057e+07
1.89114e+07
1.89172e+07
1.89229e+07
1.89286e+07
1.89342e+07
1.89399e+07
1.89455e+07
1.89512e+07
1.89568e+07
1.89624e+07
1.8968e+07
1.89735e+07
1.8979e+07
1.89846e+07
1.899e+07
1.89955e+07
1.9001e+07
1.90064e+07
1.90118e+07
1.90172e+07
1.90226e+07
1.90279e+07
1.90332e+07
1.90385e+07
1.90438e+07
1.81865e+07
1.81867e+07
1.81871e+07
1.81876e+07
1.8188e+07
1.81886e+07
1.81892e+07
1.81898e+07
1.81905e+07
1.81913e+07
1.81921e+07
1.81929e+07
1.81939e+07
1.81948e+07
1.81959e+07
1.8197e+07
1.81981e+07
1.81993e+07
1.82006e+07
1.82019e+07
1.82033e+07
1.82047e+07
1.82062e+07
1.82077e+07
1.82093e+07
1.8211e+07
1.82127e+07
1.82145e+07
1.82163e+07
1.82182e+07
1.82201e+07
1.82221e+07
1.82241e+07
1.82262e+07
1.82284e+07
1.82306e+07
1.82329e+07
1.82352e+07
1.82376e+07
1.824e+07
1.82425e+07
1.8245e+07
1.82476e+07
1.82502e+07
1.82529e+07
1.82557e+07
1.82585e+07
1.82614e+07
1.82643e+07
1.82672e+07
1.82702e+07
1.82733e+07
1.82764e+07
1.82796e+07
1.82828e+07
1.82861e+07
1.82894e+07
1.82928e+07
1.82962e+07
1.82997e+07
1.83033e+07
1.83068e+07
1.83105e+07
1.83141e+07
1.83179e+07
1.83216e+07
1.83255e+07
1.83293e+07
1.83332e+07
1.83372e+07
1.83412e+07
1.83453e+07
1.83494e+07
1.83535e+07
1.83577e+07
1.83619e+07
1.83662e+07
1.83705e+07
1.83749e+07
1.83793e+07
1.83837e+07
1.83882e+07
1.83927e+07
1.83973e+07
1.84019e+07
1.84065e+07
1.84112e+07
1.84159e+07
1.84207e+07
1.84255e+07
1.84303e+07
1.84352e+07
1.84401e+07
1.84451e+07
1.845e+07
1.8455e+07
1.84601e+07
1.84652e+07
1.84703e+07
1.84754e+07
1.84806e+07
1.84858e+07
1.8491e+07
1.84963e+07
1.85016e+07
1.85069e+07
1.85122e+07
1.85176e+07
1.8523e+07
1.85284e+07
1.85338e+07
1.85393e+07
1.85448e+07
1.85503e+07
1.85559e+07
1.85614e+07
1.8567e+07
1.85726e+07
1.85782e+07
1.85839e+07
1.85895e+07
1.85952e+07
1.86009e+07
1.86066e+07
1.86124e+07
1.86181e+07
1.86239e+07
1.86296e+07
1.86354e+07
1.86412e+07
1.8647e+07
1.86529e+07
1.86587e+07
1.86645e+07
1.86704e+07
1.86763e+07
1.86821e+07
1.8688e+07
1.86939e+07
1.86998e+07
1.87057e+07
1.87116e+07
1.87175e+07
1.87234e+07
1.87294e+07
1.87353e+07
1.87412e+07
1.87471e+07
1.87531e+07
1.8759e+07
1.87649e+07
1.87709e+07
1.87768e+07
1.87827e+07
1.87886e+07
1.87945e+07
1.88005e+07
1.88064e+07
1.88123e+07
1.88182e+07
1.88241e+07
1.883e+07
1.88359e+07
1.88417e+07
1.88476e+07
1.88535e+07
1.88593e+07
1.88651e+07
1.8871e+07
1.88768e+07
1.88826e+07
1.88884e+07
1.88942e+07
1.88999e+07
1.89057e+07
1.89114e+07
1.89172e+07
1.89229e+07
1.89286e+07
1.89342e+07
1.89399e+07
1.89455e+07
1.89512e+07
1.89568e+07
1.89624e+07
1.8968e+07
1.89735e+07
1.8979e+07
1.89846e+07
1.899e+07
1.89955e+07
1.9001e+07
1.90064e+07
1.90118e+07
1.90172e+07
1.90226e+07
1.90279e+07
1.90332e+07
1.90385e+07
1.90438e+07
1.81865e+07
1.81867e+07
1.81871e+07
1.81876e+07
1.8188e+07
1.81886e+07
1.81892e+07
1.81898e+07
1.81905e+07
1.81913e+07
1.81921e+07
1.81929e+07
1.81939e+07
1.81948e+07
1.81959e+07
1.8197e+07
1.81981e+07
1.81993e+07
1.82006e+07
1.82019e+07
1.82033e+07
1.82047e+07
1.82062e+07
1.82077e+07
1.82093e+07
1.8211e+07
1.82127e+07
1.82145e+07
1.82163e+07
1.82182e+07
1.82201e+07
1.82221e+07
1.82241e+07
1.82262e+07
1.82284e+07
1.82306e+07
1.82329e+07
1.82352e+07
1.82376e+07
1.824e+07
1.82425e+07
1.8245e+07
1.82476e+07
1.82502e+07
1.82529e+07
1.82557e+07
1.82585e+07
1.82614e+07
1.82643e+07
1.82672e+07
1.82702e+07
1.82733e+07
1.82764e+07
1.82796e+07
1.82828e+07
1.82861e+07
1.82894e+07
1.82928e+07
1.82962e+07
1.82997e+07
1.83033e+07
1.83068e+07
1.83105e+07
1.83141e+07
1.83179e+07
1.83216e+07
1.83255e+07
1.83293e+07
1.83332e+07
1.83372e+07
1.83412e+07
1.83453e+07
1.83494e+07
1.83535e+07
1.83577e+07
1.83619e+07
1.83662e+07
1.83705e+07
1.83749e+07
1.83793e+07
1.83837e+07
1.83882e+07
1.83927e+07
1.83973e+07
1.84019e+07
1.84065e+07
1.84112e+07
1.84159e+07
1.84207e+07
1.84255e+07
1.84303e+07
1.84352e+07
1.84401e+07
1.84451e+07
1.845e+07
1.8455e+07
1.84601e+07
1.84652e+07
1.84703e+07
1.84754e+07
1.84806e+07
1.84858e+07
1.8491e+07
1.84963e+07
1.85016e+07
1.85069e+07
1.85122e+07
1.85176e+07
1.8523e+07
1.85284e+07
1.85338e+07
1.85393e+07
1.85448e+07
1.85503e+07
1.85559e+07
1.85614e+07
1.8567e+07
1.85726e+07
1.85782e+07
1.85839e+07
1.85895e+07
1.85952e+07
1.86009e+07
1.86066e+07
1.86124e+07
1.86181e+07
1.86239e+07
1.86296e+07
1.86354e+07
1.86412e+07
1.8647e+07
1.86529e+07
1.86587e+07
1.86645e+07
1.86704e+07
1.86763e+07
1.86821e+07
1.8688e+07
1.86939e+07
1.86998e+07
1.87057e+07
1.87116e+07
1.87175e+07
1.87234e+07
1.87294e+07
1.87353e+07
1.87412e+07
1.87471e+07
1.87531e+07
1.8759e+07
1.87649e+07
1.87709e+07
1.87768e+07
1.87827e+07
1.87886e+07
1.87945e+07
1.88005e+07
1.88064e+07
1.88123e+07
1.88182e+07
1.88241e+07
1.883e+07
1.88359e+07
1.88417e+07
1.88476e+07
1.88535e+07
1.88593e+07
1.88651e+07
1.8871e+07
1.88768e+07
1.88826e+07
1.88884e+07
1.88942e+07
1.88999e+07
1.89057e+07
1.89114e+07
1.89172e+07
1.89229e+07
1.89286e+07
1.89342e+07
1.89399e+07
1.89455e+07
1.89512e+07
1.89568e+07
1.89624e+07
1.8968e+07
1.89735e+07
1.8979e+07
1.89846e+07
1.899e+07
1.89955e+07
1.9001e+07
1.90064e+07
1.90118e+07
1.90172e+07
1.90226e+07
1.90279e+07
1.90332e+07
1.90385e+07
1.90437e+07
1.81865e+07
1.81867e+07
1.81871e+07
1.81876e+07
1.8188e+07
1.81886e+07
1.81892e+07
1.81898e+07
1.81905e+07
1.81913e+07
1.81921e+07
1.81929e+07
1.81939e+07
1.81948e+07
1.81959e+07
1.8197e+07
1.81981e+07
1.81993e+07
1.82006e+07
1.82019e+07
1.82033e+07
1.82047e+07
1.82062e+07
1.82077e+07
1.82093e+07
1.8211e+07
1.82127e+07
1.82145e+07
1.82163e+07
1.82182e+07
1.82201e+07
1.82221e+07
1.82241e+07
1.82262e+07
1.82284e+07
1.82306e+07
1.82329e+07
1.82352e+07
1.82376e+07
1.824e+07
1.82425e+07
1.8245e+07
1.82476e+07
1.82502e+07
1.82529e+07
1.82557e+07
1.82585e+07
1.82614e+07
1.82643e+07
1.82672e+07
1.82702e+07
1.82733e+07
1.82764e+07
1.82796e+07
1.82828e+07
1.82861e+07
1.82894e+07
1.82928e+07
1.82962e+07
1.82997e+07
1.83033e+07
1.83068e+07
1.83105e+07
1.83141e+07
1.83179e+07
1.83216e+07
1.83255e+07
1.83293e+07
1.83332e+07
1.83372e+07
1.83412e+07
1.83453e+07
1.83494e+07
1.83535e+07
1.83577e+07
1.83619e+07
1.83662e+07
1.83705e+07
1.83749e+07
1.83793e+07
1.83837e+07
1.83882e+07
1.83927e+07
1.83973e+07
1.84019e+07
1.84065e+07
1.84112e+07
1.84159e+07
1.84207e+07
1.84255e+07
1.84303e+07
1.84352e+07
1.84401e+07
1.84451e+07
1.845e+07
1.8455e+07
1.84601e+07
1.84652e+07
1.84703e+07
1.84754e+07
1.84806e+07
1.84858e+07
1.8491e+07
1.84963e+07
1.85016e+07
1.85069e+07
1.85122e+07
1.85176e+07
1.8523e+07
1.85284e+07
1.85338e+07
1.85393e+07
1.85448e+07
1.85503e+07
1.85559e+07
1.85614e+07
1.8567e+07
1.85726e+07
1.85782e+07
1.85839e+07
1.85895e+07
1.85952e+07
1.86009e+07
1.86066e+07
1.86124e+07
1.86181e+07
1.86239e+07
1.86296e+07
1.86354e+07
1.86412e+07
1.8647e+07
1.86529e+07
1.86587e+07
1.86645e+07
1.86704e+07
1.86763e+07
1.86821e+07
1.8688e+07
1.86939e+07
1.86998e+07
1.87057e+07
1.87116e+07
1.87175e+07
1.87234e+07
1.87294e+07
1.87353e+07
1.87412e+07
1.87471e+07
1.87531e+07
1.8759e+07
1.87649e+07
1.87709e+07
1.87768e+07
1.87827e+07
1.87886e+07
1.87945e+07
1.88005e+07
1.88064e+07
1.88123e+07
1.88182e+07
1.88241e+07
1.883e+07
1.88359e+07
1.88417e+07
1.88476e+07
1.88535e+07
1.88593e+07
1.88651e+07
1.8871e+07
1.88768e+07
1.88826e+07
1.88884e+07
1.88942e+07
1.88999e+07
1.89057e+07
1.89114e+07
1.89172e+07
1.89229e+07
1.89286e+07
1.89342e+07
1.89399e+07
1.89455e+07
1.89512e+07
1.89568e+07
1.89624e+07
1.8968e+07
1.89735e+07
1.8979e+07
1.89846e+07
1.899e+07
1.89955e+07
1.9001e+07
1.90064e+07
1.90118e+07
1.90172e+07
1.90226e+07
1.90279e+07
1.90332e+07
1.90385e+07
1.90437e+07
1.81865e+07
1.81867e+07
1.81871e+07
1.81876e+07
1.8188e+07
1.81886e+07
1.81892e+07
1.81898e+07
1.81905e+07
1.81913e+07
1.81921e+07
1.81929e+07
1.81939e+07
1.81948e+07
1.81959e+07
1.8197e+07
1.81981e+07
1.81993e+07
1.82006e+07
1.82019e+07
1.82033e+07
1.82047e+07
1.82062e+07
1.82077e+07
1.82093e+07
1.8211e+07
1.82127e+07
1.82145e+07
1.82163e+07
1.82182e+07
1.82201e+07
1.82221e+07
1.82241e+07
1.82262e+07
1.82284e+07
1.82306e+07
1.82329e+07
1.82352e+07
1.82376e+07
1.824e+07
1.82425e+07
1.8245e+07
1.82476e+07
1.82502e+07
1.82529e+07
1.82557e+07
1.82585e+07
1.82614e+07
1.82643e+07
1.82672e+07
1.82702e+07
1.82733e+07
1.82764e+07
1.82796e+07
1.82828e+07
1.82861e+07
1.82894e+07
1.82928e+07
1.82962e+07
1.82997e+07
1.83033e+07
1.83068e+07
1.83105e+07
1.83141e+07
1.83179e+07
1.83216e+07
1.83255e+07
1.83293e+07
1.83332e+07
1.83372e+07
1.83412e+07
1.83453e+07
1.83494e+07
1.83535e+07
1.83577e+07
1.83619e+07
1.83662e+07
1.83705e+07
1.83749e+07
1.83793e+07
1.83837e+07
1.83882e+07
1.83927e+07
1.83973e+07
1.84019e+07
1.84065e+07
1.84112e+07
1.84159e+07
1.84207e+07
1.84255e+07
1.84303e+07
1.84352e+07
1.84401e+07
1.84451e+07
1.845e+07
1.8455e+07
1.84601e+07
1.84652e+07
1.84703e+07
1.84754e+07
1.84806e+07
1.84858e+07
1.8491e+07
1.84963e+07
1.85016e+07
1.85069e+07
1.85122e+07
1.85176e+07
1.8523e+07
1.85284e+07
1.85338e+07
1.85393e+07
1.85448e+07
1.85503e+07
1.85559e+07
1.85614e+07
1.8567e+07
1.85726e+07
1.85782e+07
1.85839e+07
1.85895e+07
1.85952e+07
1.86009e+07
1.86066e+07
1.86124e+07
1.86181e+07
1.86239e+07
1.86296e+07
1.86354e+07
1.86412e+07
1.8647e+07
1.86529e+07
1.86587e+07
1.86645e+07
1.86704e+07
1.86763e+07
1.86821e+07
1.8688e+07
1.86939e+07
1.86998e+07
1.87057e+07
1.87116e+07
1.87175e+07
1.87234e+07
1.87294e+07
1.87353e+07
1.87412e+07
1.87471e+07
1.87531e+07
1.8759e+07
1.87649e+07
1.87709e+07
1.87768e+07
1.87827e+07
1.87886e+07
1.87945e+07
1.88005e+07
1.88064e+07
1.88123e+07
1.88182e+07
1.88241e+07
1.883e+07
1.88359e+07
1.88417e+07
1.88476e+07
1.88535e+07
1.88593e+07
1.88651e+07
1.8871e+07
1.88768e+07
1.88826e+07
1.88884e+07
1.88942e+07
1.88999e+07
1.89057e+07
1.89114e+07
1.89172e+07
1.89229e+07
1.89286e+07
1.89342e+07
1.89399e+07
1.89455e+07
1.89512e+07
1.89568e+07
1.89624e+07
1.8968e+07
1.89735e+07
1.8979e+07
1.89846e+07
1.899e+07
1.89955e+07
1.9001e+07
1.90064e+07
1.90118e+07
1.90172e+07
1.90226e+07
1.90279e+07
1.90332e+07
1.90384e+07
1.90437e+07
1.81865e+07
1.81867e+07
1.81871e+07
1.81876e+07
1.8188e+07
1.81886e+07
1.81892e+07
1.81898e+07
1.81905e+07
1.81913e+07
1.81921e+07
1.81929e+07
1.81939e+07
1.81948e+07
1.81959e+07
1.8197e+07
1.81981e+07
1.81993e+07
1.82006e+07
1.82019e+07
1.82033e+07
1.82047e+07
1.82062e+07
1.82077e+07
1.82093e+07
1.8211e+07
1.82127e+07
1.82145e+07
1.82163e+07
1.82182e+07
1.82201e+07
1.82221e+07
1.82241e+07
1.82262e+07
1.82284e+07
1.82306e+07
1.82329e+07
1.82352e+07
1.82376e+07
1.824e+07
1.82425e+07
1.8245e+07
1.82476e+07
1.82502e+07
1.82529e+07
1.82557e+07
1.82585e+07
1.82614e+07
1.82643e+07
1.82672e+07
1.82702e+07
1.82733e+07
1.82764e+07
1.82796e+07
1.82828e+07
1.82861e+07
1.82894e+07
1.82928e+07
1.82962e+07
1.82997e+07
1.83033e+07
1.83068e+07
1.83105e+07
1.83141e+07
1.83179e+07
1.83216e+07
1.83255e+07
1.83293e+07
1.83332e+07
1.83372e+07
1.83412e+07
1.83453e+07
1.83494e+07
1.83535e+07
1.83577e+07
1.83619e+07
1.83662e+07
1.83705e+07
1.83749e+07
1.83793e+07
1.83837e+07
1.83882e+07
1.83927e+07
1.83973e+07
1.84019e+07
1.84065e+07
1.84112e+07
1.84159e+07
1.84207e+07
1.84255e+07
1.84303e+07
1.84352e+07
1.84401e+07
1.84451e+07
1.845e+07
1.8455e+07
1.84601e+07
1.84652e+07
1.84703e+07
1.84754e+07
1.84806e+07
1.84858e+07
1.8491e+07
1.84963e+07
1.85016e+07
1.85069e+07
1.85122e+07
1.85176e+07
1.8523e+07
1.85284e+07
1.85338e+07
1.85393e+07
1.85448e+07
1.85503e+07
1.85559e+07
1.85614e+07
1.8567e+07
1.85726e+07
1.85782e+07
1.85839e+07
1.85895e+07
1.85952e+07
1.86009e+07
1.86066e+07
1.86124e+07
1.86181e+07
1.86239e+07
1.86296e+07
1.86354e+07
1.86412e+07
1.8647e+07
1.86529e+07
1.86587e+07
1.86645e+07
1.86704e+07
1.86763e+07
1.86821e+07
1.8688e+07
1.86939e+07
1.86998e+07
1.87057e+07
1.87116e+07
1.87175e+07
1.87234e+07
1.87294e+07
1.87353e+07
1.87412e+07
1.87471e+07
1.87531e+07
1.8759e+07
1.87649e+07
1.87709e+07
1.87768e+07
1.87827e+07
1.87886e+07
1.87945e+07
1.88005e+07
1.88064e+07
1.88123e+07
1.88182e+07
1.88241e+07
1.883e+07
1.88359e+07
1.88417e+07
1.88476e+07
1.88535e+07
1.88593e+07
1.88651e+07
1.8871e+07
1.88768e+07
1.88826e+07
1.88884e+07
1.88942e+07
1.88999e+07
1.89057e+07
1.89114e+07
1.89172e+07
1.89229e+07
1.89286e+07
1.89342e+07
1.89399e+07
1.89455e+07
1.89512e+07
1.89568e+07
1.89624e+07
1.8968e+07
1.89735e+07
1.8979e+07
1.89846e+07
1.899e+07
1.89955e+07
1.9001e+07
1.90064e+07
1.90118e+07
1.90172e+07
1.90226e+07
1.90279e+07
1.90332e+07
1.90384e+07
1.90437e+07
1.81865e+07
1.81867e+07
1.81871e+07
1.81876e+07
1.8188e+07
1.81886e+07
1.81892e+07
1.81898e+07
1.81905e+07
1.81913e+07
1.81921e+07
1.81929e+07
1.81939e+07
1.81948e+07
1.81959e+07
1.8197e+07
1.81981e+07
1.81993e+07
1.82006e+07
1.82019e+07
1.82033e+07
1.82047e+07
1.82062e+07
1.82077e+07
1.82093e+07
1.8211e+07
1.82127e+07
1.82145e+07
1.82163e+07
1.82182e+07
1.82201e+07
1.82221e+07
1.82241e+07
1.82262e+07
1.82284e+07
1.82306e+07
1.82329e+07
1.82352e+07
1.82376e+07
1.824e+07
1.82425e+07
1.8245e+07
1.82476e+07
1.82502e+07
1.82529e+07
1.82557e+07
1.82585e+07
1.82614e+07
1.82643e+07
1.82672e+07
1.82702e+07
1.82733e+07
1.82764e+07
1.82796e+07
1.82828e+07
1.82861e+07
1.82894e+07
1.82928e+07
1.82962e+07
1.82997e+07
1.83033e+07
1.83068e+07
1.83105e+07
1.83141e+07
1.83179e+07
1.83216e+07
1.83255e+07
1.83293e+07
1.83332e+07
1.83372e+07
1.83412e+07
1.83453e+07
1.83494e+07
1.83535e+07
1.83577e+07
1.83619e+07
1.83662e+07
1.83705e+07
1.83749e+07
1.83793e+07
1.83837e+07
1.83882e+07
1.83927e+07
1.83973e+07
1.84019e+07
1.84065e+07
1.84112e+07
1.84159e+07
1.84207e+07
1.84255e+07
1.84303e+07
1.84352e+07
1.84401e+07
1.84451e+07
1.845e+07
1.8455e+07
1.84601e+07
1.84652e+07
1.84703e+07
1.84754e+07
1.84806e+07
1.84858e+07
1.8491e+07
1.84963e+07
1.85016e+07
1.85069e+07
1.85122e+07
1.85176e+07
1.8523e+07
1.85284e+07
1.85338e+07
1.85393e+07
1.85448e+07
1.85503e+07
1.85559e+07
1.85614e+07
1.8567e+07
1.85726e+07
1.85782e+07
1.85839e+07
1.85895e+07
1.85952e+07
1.86009e+07
1.86066e+07
1.86124e+07
1.86181e+07
1.86239e+07
1.86296e+07
1.86354e+07
1.86412e+07
1.8647e+07
1.86529e+07
1.86587e+07
1.86645e+07
1.86704e+07
1.86763e+07
1.86821e+07
1.8688e+07
1.86939e+07
1.86998e+07
1.87057e+07
1.87116e+07
1.87175e+07
1.87234e+07
1.87294e+07
1.87353e+07
1.87412e+07
1.87471e+07
1.87531e+07
1.8759e+07
1.87649e+07
1.87709e+07
1.87768e+07
1.87827e+07
1.87886e+07
1.87945e+07
1.88005e+07
1.88064e+07
1.88123e+07
1.88182e+07
1.88241e+07
1.883e+07
1.88359e+07
1.88417e+07
1.88476e+07
1.88535e+07
1.88593e+07
1.88651e+07
1.8871e+07
1.88768e+07
1.88826e+07
1.88884e+07
1.88942e+07
1.88999e+07
1.89057e+07
1.89114e+07
1.89172e+07
1.89229e+07
1.89286e+07
1.89342e+07
1.89399e+07
1.89455e+07
1.89512e+07
1.89568e+07
1.89624e+07
1.8968e+07
1.89735e+07
1.8979e+07
1.89846e+07
1.899e+07
1.89955e+07
1.9001e+07
1.90064e+07
1.90118e+07
1.90172e+07
1.90226e+07
1.90279e+07
1.90332e+07
1.90384e+07
1.90437e+07
1.90476e+07
1.90491e+07
1.90503e+07
1.90513e+07
1.90523e+07
1.90532e+07
1.90542e+07
1.90552e+07
1.90562e+07
1.90572e+07
1.90581e+07
1.90591e+07
1.906e+07
1.9061e+07
1.90619e+07
1.90628e+07
1.90637e+07
1.90646e+07
1.90655e+07
1.90664e+07
1.90475e+07
1.9049e+07
1.90501e+07
1.90512e+07
1.90521e+07
1.90531e+07
1.90541e+07
1.90551e+07
1.90561e+07
1.9057e+07
1.9058e+07
1.9059e+07
1.90599e+07
1.90609e+07
1.90618e+07
1.90627e+07
1.90636e+07
1.90645e+07
1.90654e+07
1.90662e+07
1.90475e+07
1.9049e+07
1.90501e+07
1.90512e+07
1.90522e+07
1.90531e+07
1.90541e+07
1.90551e+07
1.90561e+07
1.9057e+07
1.9058e+07
1.90589e+07
1.90599e+07
1.90608e+07
1.90618e+07
1.90627e+07
1.90636e+07
1.90645e+07
1.90654e+07
1.90662e+07
1.90472e+07
1.90484e+07
1.90495e+07
1.90505e+07
1.90515e+07
1.90525e+07
1.90535e+07
1.90545e+07
1.90555e+07
1.90564e+07
1.90574e+07
1.90584e+07
1.90593e+07
1.90603e+07
1.90612e+07
1.90621e+07
1.9063e+07
1.90638e+07
1.90647e+07
1.90655e+07
1.90473e+07
1.90485e+07
1.90497e+07
1.90507e+07
1.90517e+07
1.90527e+07
1.90537e+07
1.90546e+07
1.90555e+07
1.90565e+07
1.90574e+07
1.90583e+07
1.90592e+07
1.90601e+07
1.90611e+07
1.9062e+07
1.90629e+07
1.90638e+07
1.90647e+07
1.90655e+07
1.90464e+07
1.90472e+07
1.9048e+07
1.90488e+07
1.90497e+07
1.90506e+07
1.90515e+07
1.90525e+07
1.90535e+07
1.90545e+07
1.90554e+07
1.90564e+07
1.90574e+07
1.90583e+07
1.90593e+07
1.90602e+07
1.90612e+07
1.90621e+07
1.90631e+07
1.90641e+07
1.90465e+07
1.90473e+07
1.90482e+07
1.90492e+07
1.90501e+07
1.9051e+07
1.90519e+07
1.90528e+07
1.90537e+07
1.90546e+07
1.90555e+07
1.90564e+07
1.90573e+07
1.90582e+07
1.90591e+07
1.906e+07
1.9061e+07
1.9062e+07
1.9063e+07
1.9064e+07
1.90453e+07
1.90455e+07
1.90458e+07
1.90463e+07
1.9047e+07
1.90478e+07
1.90487e+07
1.90496e+07
1.90506e+07
1.90516e+07
1.90526e+07
1.90536e+07
1.90547e+07
1.90557e+07
1.90568e+07
1.9058e+07
1.90591e+07
1.90603e+07
1.90615e+07
1.90627e+07
1.90451e+07
1.90453e+07
1.90457e+07
1.90463e+07
1.90471e+07
1.90479e+07
1.90488e+07
1.90497e+07
1.90506e+07
1.90516e+07
1.90526e+07
1.90536e+07
1.90546e+07
1.90557e+07
1.90568e+07
1.90579e+07
1.9059e+07
1.90602e+07
1.90614e+07
1.90626e+07
1.90448e+07
1.90446e+07
1.90449e+07
1.90455e+07
1.90462e+07
1.9047e+07
1.90478e+07
1.90488e+07
1.90497e+07
1.90507e+07
1.90517e+07
1.90527e+07
1.90538e+07
1.90549e+07
1.9056e+07
1.90572e+07
1.90583e+07
1.90595e+07
1.90608e+07
1.90621e+07
1.90679e+07
1.90714e+07
1.90752e+07
1.90791e+07
1.9083e+07
1.90869e+07
1.90907e+07
1.90946e+07
1.90985e+07
1.91023e+07
1.91062e+07
1.911e+07
1.91138e+07
1.91176e+07
1.91214e+07
1.91251e+07
1.91289e+07
1.91326e+07
1.91363e+07
1.914e+07
1.91437e+07
1.91474e+07
1.9151e+07
1.91546e+07
1.91582e+07
1.91618e+07
1.91654e+07
1.91689e+07
1.91724e+07
1.91759e+07
1.91794e+07
1.91829e+07
1.91863e+07
1.91898e+07
1.91932e+07
1.91965e+07
1.91999e+07
1.92032e+07
1.92066e+07
1.92099e+07
1.92131e+07
1.92164e+07
1.92196e+07
1.92229e+07
1.9226e+07
1.92292e+07
1.92324e+07
1.92355e+07
1.92386e+07
1.92417e+07
1.92448e+07
1.92478e+07
1.92509e+07
1.92539e+07
1.92568e+07
1.92598e+07
1.92627e+07
1.92656e+07
1.92685e+07
1.92714e+07
1.92743e+07
1.92771e+07
1.92799e+07
1.92827e+07
1.92854e+07
1.92882e+07
1.92909e+07
1.92936e+07
1.92963e+07
1.92989e+07
1.93016e+07
1.93042e+07
1.93068e+07
1.93094e+07
1.93119e+07
1.93144e+07
1.93169e+07
1.93194e+07
1.93219e+07
1.93243e+07
1.93268e+07
1.93292e+07
1.93315e+07
1.93339e+07
1.93362e+07
1.93385e+07
1.93408e+07
1.93431e+07
1.93453e+07
1.93476e+07
1.93498e+07
1.93519e+07
1.93541e+07
1.93562e+07
1.93584e+07
1.93604e+07
1.93625e+07
1.93646e+07
1.93666e+07
1.93686e+07
1.93705e+07
1.93725e+07
1.93744e+07
1.93763e+07
1.93781e+07
1.938e+07
1.93818e+07
1.93836e+07
1.93854e+07
1.93872e+07
1.93889e+07
1.93906e+07
1.93923e+07
1.9394e+07
1.93957e+07
1.93973e+07
1.93989e+07
1.94005e+07
1.9402e+07
1.94036e+07
1.94051e+07
1.94066e+07
1.94081e+07
1.94096e+07
1.9411e+07
1.94124e+07
1.94138e+07
1.94152e+07
1.94165e+07
1.94179e+07
1.94192e+07
1.94205e+07
1.94218e+07
1.9423e+07
1.94243e+07
1.94255e+07
1.94267e+07
1.94278e+07
1.9429e+07
1.94301e+07
1.94312e+07
1.94323e+07
1.94334e+07
1.94345e+07
1.94355e+07
1.94365e+07
1.94375e+07
1.94385e+07
1.94395e+07
1.94404e+07
1.94413e+07
1.94422e+07
1.94431e+07
1.9444e+07
1.94448e+07
1.94457e+07
1.94465e+07
1.94473e+07
1.94481e+07
1.94488e+07
1.94496e+07
1.94503e+07
1.9451e+07
1.94517e+07
1.94524e+07
1.94531e+07
1.94537e+07
1.94544e+07
1.9455e+07
1.94556e+07
1.94562e+07
1.94567e+07
1.94573e+07
1.94578e+07
1.94584e+07
1.94589e+07
1.94594e+07
1.94599e+07
1.94603e+07
1.94608e+07
1.94612e+07
1.94617e+07
1.94621e+07
1.94625e+07
1.94629e+07
1.94633e+07
1.94637e+07
1.9464e+07
1.94644e+07
1.94647e+07
1.94651e+07
1.94654e+07
1.94657e+07
1.9466e+07
1.94663e+07
1.94666e+07
1.94669e+07
1.94671e+07
1.94674e+07
1.94676e+07
1.90678e+07
1.90714e+07
1.90752e+07
1.90791e+07
1.9083e+07
1.90869e+07
1.90907e+07
1.90946e+07
1.90985e+07
1.91023e+07
1.91062e+07
1.911e+07
1.91138e+07
1.91176e+07
1.91214e+07
1.91251e+07
1.91289e+07
1.91326e+07
1.91363e+07
1.914e+07
1.91437e+07
1.91474e+07
1.9151e+07
1.91546e+07
1.91582e+07
1.91618e+07
1.91654e+07
1.91689e+07
1.91724e+07
1.91759e+07
1.91794e+07
1.91829e+07
1.91863e+07
1.91898e+07
1.91932e+07
1.91965e+07
1.91999e+07
1.92032e+07
1.92066e+07
1.92099e+07
1.92131e+07
1.92164e+07
1.92196e+07
1.92229e+07
1.9226e+07
1.92292e+07
1.92324e+07
1.92355e+07
1.92386e+07
1.92417e+07
1.92448e+07