/*--------------------------------*- C++ -*----------------------------------*\
| =========                 |                                                 |
| \\      /  F ield         | OpenFOAM: The Open Source CFD Toolbox           |
|  \\    /   O peration     | Version:  3.0.x                                 |
|   \\  /    A nd           | Web:      www.OpenFOAM.org                      |
|    \\/     M anipulation  |                                                 |
\*---------------------------------------------------------------------------*/
FoamFile
{
    version     2.0;
    format      ascii;
    class       volScalarField;
    location    "0.52";
    object      T;
}
// * * * * * * * * * * * * * * * * * * * * * * * * * * * * * * * * * * * * * //

dimensions      [0 0 0 1 0 0 0];

internalField   nonuniform List<scalar> 
13800
(
774.41
774.398
774.384
774.374
774.369
774.369
774.369
774.371
774.375
774.38
774.386
774.392
774.399
774.406
774.413
774.42
774.429
774.438
774.446
774.456
774.466
774.475
774.486
774.497
774.508
774.52
774.532
774.544
774.557
774.571
774.584
774.599
774.613
774.627
774.644
774.659
774.675
774.691
774.708
774.725
774.743
774.761
774.779
774.798
774.819
774.837
774.858
774.877
774.898
774.918
774.94
774.961
774.982
775.006
775.028
775.051
775.074
775.098
775.123
775.148
775.172
775.197
775.222
775.248
775.273
775.3
775.326
775.352
775.381
775.408
775.437
775.465
775.495
775.524
775.553
775.582
775.612
775.642
775.672
775.703
775.734
775.765
775.797
775.829
775.862
775.894
775.927
775.96
775.994
776.028
776.061
776.096
776.131
776.165
776.2
776.236
776.271
776.306
776.342
776.379
776.415
776.451
776.488
776.524
776.562
776.599
776.637
776.675
776.712
776.75
776.788
776.826
776.865
776.903
776.942
776.981
777.021
777.059
777.098
777.138
777.178
777.216
777.257
777.297
777.337
777.377
777.417
777.457
777.497
777.538
777.578
777.62
777.66
777.7
777.741
777.782
777.822
777.864
777.905
777.946
777.987
778.028
778.069
778.11
778.151
778.192
778.233
778.274
778.315
778.356
778.397
778.438
778.479
778.521
778.562
778.603
778.644
778.685
778.725
778.766
778.807
778.847
778.889
778.929
778.97
779.01
779.05
779.09
779.131
779.17
779.21
779.251
779.291
779.33
779.37
779.41
779.449
779.488
779.528
779.566
779.606
779.645
779.682
779.722
779.759
779.8
779.834
779.877
779.909
779.953
779.983
780.03
780.057
780.105
780.13
780.179
780.205
780.249
780.287
780.312
774.401
774.39
774.376
774.366
774.361
774.361
774.361
774.363
774.367
774.373
774.378
774.384
774.39
774.398
774.406
774.413
774.421
774.43
774.439
774.448
774.458
774.468
774.478
774.489
774.501
774.513
774.525
774.537
774.55
774.564
774.577
774.592
774.606
774.62
774.636
774.651
774.668
774.685
774.701
774.718
774.736
774.754
774.772
774.792
774.811
774.83
774.85
774.87
774.891
774.911
774.932
774.954
774.976
774.999
775.021
775.045
775.068
775.092
775.116
775.141
775.166
775.191
775.216
775.242
775.268
775.293
775.32
775.346
775.375
775.403
775.431
775.459
775.488
775.518
775.547
775.577
775.606
775.636
775.666
775.698
775.729
775.76
775.792
775.824
775.857
775.889
775.922
775.955
775.989
776.022
776.056
776.091
776.126
776.16
776.195
776.23
776.265
776.301
776.337
776.374
776.409
776.446
776.483
776.519
776.556
776.594
776.631
776.669
776.707
776.744
776.782
776.82
776.86
776.898
776.936
776.975
777.015
777.055
777.093
777.132
777.172
777.212
777.251
777.291
777.331
777.371
777.412
777.452
777.492
777.532
777.573
777.614
777.655
777.695
777.736
777.777
777.818
777.859
777.899
777.94
777.982
778.023
778.064
778.105
778.146
778.187
778.228
778.268
778.31
778.351
778.392
778.433
778.474
778.516
778.557
778.598
778.639
778.679
778.72
778.761
778.802
778.842
778.884
778.924
778.965
779.005
779.045
779.085
779.126
779.165
779.205
779.246
779.285
779.325
779.365
779.405
779.444
779.483
779.522
779.561
779.6
779.64
779.677
779.717
779.754
779.795
779.829
779.872
779.904
779.948
779.978
780.025
780.052
780.1
780.124
780.175
780.198
780.247
780.272
780.325
774.401
774.39
774.376
774.366
774.361
774.361
774.361
774.363
774.367
774.373
774.378
774.384
774.39
774.398
774.406
774.413
774.421
774.43
774.439
774.448
774.458
774.468
774.478
774.489
774.501
774.513
774.525
774.537
774.55
774.564
774.577
774.591
774.606
774.62
774.636
774.652
774.668
774.684
774.701
774.718
774.736
774.754
774.772
774.792
774.811
774.83
774.85
774.87
774.891
774.911
774.932
774.954
774.976
774.999
775.021
775.045
775.068
775.092
775.116
775.141
775.166
775.191
775.216
775.242
775.267
775.293
775.32
775.347
775.375
775.402
775.431
775.459
775.488
775.518
775.547
775.577
775.606
775.636
775.666
775.698
775.729
775.76
775.792
775.824
775.857
775.889
775.922
775.955
775.989
776.022
776.056
776.091
776.126
776.16
776.195
776.23
776.265
776.301
776.337
776.374
776.409
776.446
776.483
776.519
776.556
776.594
776.631
776.669
776.707
776.744
776.782
776.82
776.86
776.898
776.936
776.975
777.015
777.055
777.093
777.132
777.172
777.212
777.251
777.291
777.331
777.371
777.412
777.452
777.492
777.532
777.573
777.614
777.655
777.695
777.736
777.777
777.818
777.859
777.899
777.94
777.982
778.023
778.064
778.105
778.146
778.187
778.228
778.268
778.31
778.351
778.392
778.433
778.474
778.516
778.557
778.598
778.639
778.679
778.72
778.761
778.802
778.842
778.884
778.924
778.965
779.005
779.045
779.085
779.126
779.165
779.205
779.246
779.285
779.325
779.365
779.405
779.444
779.483
779.522
779.561
779.6
779.64
779.677
779.717
779.754
779.795
779.829
779.872
779.904
779.948
779.978
780.025
780.052
780.1
780.124
780.175
780.198
780.247
780.272
780.326
774.401
774.39
774.376
774.366
774.361
774.361
774.361
774.363
774.367
774.373
774.378
774.384
774.39
774.398
774.406
774.413
774.421
774.43
774.439
774.448
774.458
774.468
774.478
774.489
774.501
774.513
774.525
774.537
774.55
774.564
774.577
774.592
774.606
774.62
774.636
774.651
774.668
774.685
774.701
774.718
774.736
774.754
774.772
774.792
774.811
774.83
774.85
774.87
774.891
774.911
774.932
774.954
774.976
774.999
775.021
775.045
775.068
775.092
775.116
775.141
775.166
775.191
775.216
775.242
775.268
775.293
775.32
775.346
775.375
775.403
775.431
775.459
775.488
775.518
775.547
775.577
775.606
775.636
775.666
775.698
775.729
775.76
775.792
775.824
775.857
775.889
775.922
775.955
775.989
776.022
776.056
776.091
776.126
776.16
776.195
776.23
776.265
776.301
776.337
776.374
776.409
776.446
776.483
776.519
776.556
776.594
776.631
776.669
776.707
776.744
776.782
776.82
776.86
776.898
776.936
776.975
777.015
777.055
777.093
777.132
777.172
777.212
777.251
777.291
777.331
777.371
777.412
777.452
777.492
777.532
777.573
777.614
777.655
777.695
777.736
777.777
777.818
777.859
777.899
777.94
777.982
778.023
778.064
778.105
778.146
778.187
778.228
778.268
778.31
778.351
778.392
778.433
778.474
778.516
778.557
778.598
778.639
778.679
778.72
778.761
778.802
778.842
778.884
778.924
778.965
779.005
779.045
779.085
779.126
779.165
779.205
779.246
779.285
779.325
779.365
779.405
779.444
779.483
779.522
779.561
779.6
779.64
779.677
779.717
779.754
779.795
779.829
779.872
779.904
779.948
779.978
780.025
780.052
780.1
780.124
780.174
780.199
780.248
780.272
780.32
774.401
774.39
774.376
774.366
774.361
774.361
774.361
774.364
774.367
774.373
774.378
774.384
774.39
774.398
774.406
774.413
774.421
774.43
774.439
774.448
774.458
774.468
774.478
774.489
774.501
774.513
774.525
774.537
774.55
774.564
774.577
774.592
774.606
774.62
774.636
774.651
774.668
774.685
774.701
774.718
774.736
774.754
774.772
774.792
774.811
774.83
774.85
774.87
774.891
774.911
774.932
774.954
774.976
774.999
775.021
775.045
775.068
775.092
775.116
775.141
775.166
775.191
775.216
775.242
775.268
775.293
775.32
775.346
775.375
775.403
775.431
775.459
775.488
775.518
775.547
775.577
775.606
775.636
775.666
775.698
775.729
775.76
775.792
775.824
775.857
775.889
775.922
775.955
775.989
776.022
776.056
776.091
776.126
776.16
776.195
776.23
776.265
776.301
776.337
776.374
776.409
776.446
776.483
776.519
776.556
776.594
776.631
776.669
776.707
776.744
776.782
776.82
776.86
776.898
776.936
776.975
777.015
777.055
777.093
777.132
777.172
777.212
777.251
777.291
777.331
777.371
777.412
777.452
777.492
777.532
777.573
777.614
777.655
777.695
777.736
777.777
777.818
777.859
777.899
777.94
777.982
778.023
778.064
778.105
778.146
778.187
778.228
778.268
778.31
778.351
778.392
778.433
778.474
778.516
778.557
778.598
778.639
778.679
778.72
778.761
778.802
778.842
778.884
778.924
778.965
779.005
779.045
779.085
779.126
779.165
779.205
779.246
779.285
779.325
779.365
779.405
779.444
779.483
779.522
779.561
779.6
779.64
779.677
779.717
779.754
779.795
779.829
779.872
779.904
779.948
779.978
780.024
780.052
780.099
780.125
780.174
780.198
780.247
780.271
780.323
774.401
774.39
774.376
774.366
774.361
774.361
774.361
774.364
774.367
774.373
774.378
774.384
774.39
774.398
774.406
774.413
774.421
774.43
774.439
774.448
774.458
774.468
774.478
774.489
774.501
774.513
774.525
774.537
774.55
774.564
774.577
774.592
774.606
774.62
774.636
774.651
774.668
774.685
774.701
774.718
774.736
774.754
774.772
774.792
774.811
774.83
774.85
774.87
774.891
774.911
774.932
774.954
774.976
774.999
775.021
775.045
775.068
775.092
775.116
775.141
775.166
775.191
775.216
775.242
775.268
775.293
775.32
775.346
775.375
775.403
775.431
775.459
775.488
775.518
775.547
775.577
775.606
775.636
775.666
775.698
775.729
775.76
775.792
775.824
775.857
775.889
775.922
775.955
775.989
776.022
776.056
776.091
776.126
776.16
776.195
776.23
776.265
776.301
776.337
776.374
776.409
776.446
776.483
776.519
776.556
776.594
776.631
776.669
776.707
776.744
776.782
776.82
776.86
776.898
776.936
776.975
777.015
777.055
777.093
777.132
777.172
777.212
777.251
777.291
777.331
777.371
777.412
777.452
777.492
777.532
777.573
777.614
777.655
777.695
777.736
777.777
777.818
777.859
777.899
777.94
777.982
778.023
778.064
778.105
778.146
778.187
778.228
778.268
778.31
778.351
778.392
778.433
778.474
778.516
778.557
778.598
778.639
778.679
778.72
778.761
778.802
778.842
778.884
778.924
778.965
779.005
779.045
779.085
779.126
779.165
779.205
779.246
779.285
779.325
779.365
779.405
779.444
779.483
779.522
779.561
779.6
779.64
779.678
779.716
779.755
779.793
779.832
779.869
779.908
779.943
779.985
780.017
780.058
780.095
780.129
780.17
780.203
780.24
780.279
780.31
774.401
774.39
774.376
774.366
774.361
774.361
774.361
774.363
774.367
774.373
774.378
774.384
774.39
774.398
774.406
774.413
774.421
774.43
774.439
774.448
774.458
774.468
774.478
774.489
774.501
774.513
774.525
774.537
774.55
774.564
774.577
774.592
774.606
774.62
774.636
774.651
774.668
774.685
774.701
774.718
774.736
774.754
774.772
774.792
774.811
774.83
774.85
774.87
774.891
774.911
774.932
774.954
774.976
774.999
775.021
775.045
775.068
775.092
775.116
775.141
775.166
775.191
775.216
775.242
775.268
775.293
775.32
775.346
775.375
775.403
775.431
775.459
775.488
775.518
775.547
775.577
775.606
775.636
775.666
775.698
775.729
775.76
775.792
775.824
775.857
775.889
775.922
775.955
775.989
776.022
776.056
776.091
776.126
776.16
776.195
776.23
776.265
776.301
776.337
776.374
776.409
776.446
776.483
776.519
776.556
776.594
776.631
776.669
776.707
776.744
776.782
776.82
776.86
776.898
776.936
776.975
777.015
777.055
777.093
777.132
777.172
777.212
777.251
777.291
777.331
777.371
777.412
777.452
777.492
777.532
777.573
777.614
777.655
777.695
777.736
777.777
777.818
777.859
777.899
777.94
777.982
778.023
778.064
778.105
778.146
778.187
778.228
778.268
778.31
778.351
778.392
778.433
778.474
778.516
778.557
778.598
778.639
778.679
778.72
778.761
778.802
778.842
778.884
778.924
778.965
779.005
779.045
779.085
779.126
779.165
779.205
779.246
779.285
779.325
779.365
779.405
779.444
779.483
779.522
779.561
779.601
779.639
779.679
779.715
779.756
779.792
779.834
779.867
779.91
779.941
779.986
780.016
780.062
780.089
780.138
780.161
780.211
780.234
780.284
780.308
774.401
774.39
774.376
774.366
774.361
774.361
774.361
774.363
774.367
774.373
774.378
774.384
774.39
774.398
774.406
774.413
774.421
774.43
774.439
774.448
774.458
774.468
774.478
774.489
774.501
774.513
774.525
774.537
774.55
774.564
774.577
774.591
774.606
774.62
774.636
774.652
774.668
774.684
774.701
774.718
774.736
774.754
774.772
774.792
774.811
774.83
774.85
774.87
774.891
774.911
774.932
774.954
774.976
774.999
775.021
775.045
775.068
775.092
775.116
775.141
775.166
775.191
775.216
775.242
775.267
775.293
775.32
775.347
775.375
775.402
775.431
775.459
775.488
775.518
775.547
775.577
775.606
775.636
775.666
775.698
775.729
775.76
775.792
775.824
775.857
775.889
775.922
775.955
775.989
776.022
776.056
776.091
776.126
776.16
776.195
776.23
776.265
776.301
776.337
776.374
776.409
776.446
776.483
776.519
776.556
776.594
776.631
776.669
776.707
776.744
776.782
776.82
776.86
776.898
776.936
776.975
777.015
777.055
777.093
777.132
777.172
777.212
777.251
777.291
777.331
777.371
777.412
777.452
777.492
777.532
777.573
777.614
777.655
777.695
777.736
777.777
777.818
777.859
777.899
777.94
777.982
778.023
778.064
778.105
778.146
778.187
778.228
778.268
778.31
778.351
778.392
778.433
778.474
778.516
778.557
778.598
778.639
778.679
778.72
778.761
778.802
778.842
778.884
778.924
778.965
779.005
779.045
779.085
779.126
779.165
779.205
779.246
779.285
779.325
779.365
779.405
779.444
779.483
779.522
779.561
779.601
779.639
779.679
779.715
779.756
779.792
779.834
779.867
779.91
779.941
779.987
780.015
780.062
780.089
780.137
780.161
780.211
780.234
780.293
780.306
774.401
774.39
774.376
774.366
774.361
774.361
774.361
774.363
774.367
774.373
774.378
774.384
774.39
774.398
774.406
774.413
774.421
774.43
774.439
774.448
774.458
774.468
774.478
774.489
774.501
774.513
774.525
774.537
774.55
774.564
774.577
774.592
774.606
774.62
774.636
774.651
774.668
774.685
774.701
774.718
774.736
774.754
774.772
774.792
774.811
774.83
774.85
774.87
774.891
774.911
774.932
774.954
774.976
774.999
775.021
775.045
775.068
775.092
775.116
775.141
775.166
775.191
775.216
775.242
775.268
775.293
775.32
775.346
775.375
775.403
775.431
775.459
775.488
775.518
775.547
775.577
775.606
775.636
775.666
775.698
775.729
775.76
775.792
775.824
775.857
775.889
775.922
775.955
775.989
776.022
776.056
776.091
776.126
776.16
776.195
776.23
776.265
776.301
776.337
776.374
776.409
776.446
776.483
776.519
776.556
776.594
776.631
776.669
776.707
776.744
776.782
776.82
776.86
776.898
776.936
776.975
777.015
777.055
777.093
777.132
777.172
777.212
777.251
777.291
777.331
777.371
777.412
777.452
777.492
777.532
777.573
777.614
777.655
777.695
777.736
777.777
777.818
777.859
777.899
777.94
777.982
778.023
778.064
778.105
778.146
778.187
778.228
778.268
778.31
778.351
778.392
778.433
778.474
778.516
778.557
778.598
778.639
778.679
778.72
778.761
778.802
778.842
778.884
778.924
778.965
779.005
779.045
779.085
779.126
779.165
779.205
779.246
779.285
779.325
779.365
779.405
779.444
779.483
779.522
779.561
779.601
779.639
779.679
779.715
779.756
779.792
779.834
779.866
779.911
779.941
779.988
780.015
780.063
780.089
780.138
780.162
780.212
780.233
780.296
780.301
774.41
774.398
774.384
774.374
774.369
774.369
774.369
774.371
774.375
774.38
774.386
774.392
774.399
774.406
774.413
774.42
774.429
774.438
774.446
774.456
774.466
774.475
774.486
774.497
774.508
774.52
774.532
774.544
774.557
774.571
774.584
774.599
774.613
774.627
774.644
774.659
774.675
774.691
774.708
774.725
774.743
774.761
774.779
774.798
774.819
774.837
774.858
774.877
774.898
774.918
774.94
774.961
774.982
775.006
775.028
775.051
775.074
775.098
775.123
775.148
775.172
775.197
775.222
775.248
775.273
775.3
775.326
775.352
775.381
775.408
775.437
775.465
775.495
775.524
775.553
775.582
775.612
775.642
775.672
775.703
775.734
775.765
775.797
775.829
775.862
775.894
775.927
775.96
775.994
776.028
776.061
776.096
776.131
776.165
776.2
776.236
776.271
776.306
776.342
776.379
776.415
776.451
776.488
776.524
776.562
776.599
776.637
776.675
776.712
776.75
776.788
776.826
776.865
776.903
776.942
776.981
777.021
777.059
777.098
777.138
777.178
777.216
777.257
777.297
777.337
777.377
777.417
777.457
777.497
777.538
777.578
777.62
777.66
777.7
777.741
777.782
777.822
777.864
777.905
777.946
777.987
778.028
778.069
778.11
778.151
778.192
778.233
778.274
778.315
778.356
778.397
778.438
778.479
778.521
778.562
778.603
778.644
778.685
778.725
778.766
778.807
778.847
778.889
778.929
778.97
779.01
779.05
779.09
779.131
779.17
779.21
779.251
779.291
779.33
779.37
779.41
779.449
779.488
779.528
779.566
779.606
779.644
779.684
779.72
779.761
779.797
779.839
779.872
779.915
779.946
779.993
780.019
780.067
780.093
780.143
780.167
780.217
780.238
780.304
780.292
780.347
780.362
780.377
780.392
780.405
780.417
780.426
780.434
780.441
780.449
780.456
780.464
780.471
780.479
780.486
780.494
780.501
780.507
780.514
780.517
780.347
780.36
780.371
780.382
780.393
780.404
780.414
780.424
780.433
780.441
780.448
780.454
780.46
780.467
780.473
780.48
780.486
780.492
780.498
780.502
780.349
780.361
780.372
780.38
780.391
780.401
780.411
780.422
780.43
780.44
780.448
780.453
780.46
780.464
780.471
780.475
780.483
780.487
780.494
780.498
780.344
780.353
780.36
780.37
780.378
780.387
780.396
780.405
780.415
780.424
780.435
780.445
780.456
780.465
780.474
780.482
780.491
780.496
780.502
780.506
780.34
780.349
780.357
780.364
780.372
780.379
780.386
780.392
780.398
780.404
780.411
780.417
780.423
780.429
780.434
780.44
780.446
780.453
780.459
780.467
780.333
780.338
780.344
780.349
780.356
780.362
780.37
780.377
780.386
780.394
780.404
780.412
780.422
780.431
780.442
780.452
780.463
780.472
780.482
780.49
780.331
780.335
780.342
780.348
780.353
780.358
780.362
780.366
780.37
780.374
780.378
780.382
780.386
780.389
780.393
780.396
780.4
780.403
780.407
780.411
780.32
780.322
780.324
780.327
780.33
780.333
780.338
780.342
780.348
780.354
780.362
780.37
780.378
780.386
780.395
780.403
780.411
780.419
780.427
780.433
780.304
780.305
780.305
780.307
780.31
780.313
780.316
780.32
780.323
780.327
780.332
780.336
780.342
780.347
780.353
780.359
780.365
780.372
780.379
780.387
780.295
780.293
780.293
780.294
780.296
780.3
780.303
780.309
780.314
780.321
780.327
780.335
780.342
780.349
780.356
780.365
780.373
780.382
780.392
780.403
780.528
780.552
780.571
780.595
780.619
780.644
780.668
780.689
780.714
780.74
780.766
780.792
780.817
780.842
780.867
780.892
780.917
780.943
780.967
780.993
781.017
781.043
781.068
781.093
781.118
781.142
781.167
781.191
781.215
781.238
781.262
781.285
781.308
781.332
781.356
781.378
781.402
781.425
781.447
781.47
781.492
781.514
781.536
781.558
781.579
781.601
781.623
781.643
781.665
781.686
781.706
781.727
781.747
781.768
781.789
781.808
781.829
781.848
781.868
781.887
781.907
781.926
781.946
781.964
781.982
782.002
782.02
782.038
782.056
782.074
782.093
782.11
782.128
782.145
782.161
782.178
782.196
782.213
782.23
782.245
782.26
782.273
782.286
782.3
782.316
782.333
782.348
782.358
782.359
782.36
782.369
782.404
782.536
782.991
783.794
784.582
785.276
785.825
786.197
786.393
786.448
786.434
786.286
785.651
784.652
783.829
783.223
782.825
782.595
782.481
782.433
782.424
782.452
782.534
782.602
782.651
782.687
782.714
782.734
782.751
782.765
782.778
782.789
782.8
782.811
782.821
782.829
782.84
782.849
782.858
782.867
782.876
782.885
782.893
782.901
782.909
782.918
782.925
782.934
782.941
782.948
782.956
782.963
782.97
782.978
782.984
782.99
782.997
783.005
783.01
783.016
783.023
783.029
783.034
783.041
783.046
783.051
783.056
783.063
783.067
783.072
783.076
783.082
783.086
783.091
783.095
783.1
783.105
783.108
783.112
783.117
783.12
783.124
783.128
783.131
783.134
783.138
783.14
783.145
783.147
783.151
783.152
783.159
783.157
783.165
783.162
783.17
783.166
783.175
783.171
783.18
783.175
783.183
783.18
783.188
783.184
783.191
783.186
783.198
783.195
780.514
780.54
780.563
780.582
780.607
780.632
780.655
780.678
780.701
780.726
780.752
780.778
780.802
780.827
780.852
780.877
780.902
780.927
780.953
780.977
781.002
781.027
781.052
781.077
781.102
781.126
781.15
781.175
781.198
781.223
781.246
781.27
781.293
781.316
781.34
781.362
781.386
781.409
781.431
781.453
781.476
781.498
781.52
781.542
781.563
781.585
781.607
781.627
781.649
781.67
781.691
781.711
781.731
781.752
781.772
781.792
781.811
781.832
781.851
781.871
781.891
781.91
781.93
781.948
781.967
781.985
782.004
782.022
782.04
782.057
782.075
782.093
782.111
782.129
782.146
782.162
782.18
782.197
782.213
782.229
782.245
782.26
782.275
782.29
782.307
782.325
782.341
782.352
782.359
782.364
782.366
782.367
782.362
782.353
782.342
782.336
782.342
782.389
782.512
782.656
782.795
782.914
782.997
783.032
783.033
783.018
782.949
782.83
782.744
782.688
782.653
782.633
782.627
782.638
782.665
782.687
782.707
782.723
782.736
782.75
782.762
782.774
782.785
782.795
782.806
782.816
782.825
782.835
782.845
782.854
782.863
782.871
782.88
782.889
782.897
782.905
782.914
782.92
782.929
782.936
782.944
782.952
782.959
782.965
782.973
782.98
782.986
782.993
783
783.006
783.012
783.018
783.024
783.03
783.036
783.041
783.047
783.053
783.058
783.063
783.068
783.072
783.078
783.082
783.086
783.091
783.095
783.1
783.103
783.107
783.112
783.116
783.119
783.124
783.127
783.13
783.134
783.136
783.141
783.143
783.148
783.147
783.154
783.152
783.159
783.157
783.166
783.162
783.169
783.167
783.174
783.171
783.179
783.176
783.182
783.18
783.187
783.182
783.191
783.192
780.511
780.539
780.561
780.583
780.608
780.634
780.658
780.681
780.704
780.729
780.755
780.78
780.805
780.83
780.855
780.88
780.905
780.931
780.955
780.98
781.005
781.03
781.055
781.08
781.105
781.129
781.153
781.178
781.201
781.226
781.249
781.272
781.296
781.319
781.342
781.365
781.389
781.412
781.434
781.457
781.478
781.5
781.522
781.545
781.566
781.588
781.61
781.63
781.651
781.673
781.693
781.714
781.735
781.754
781.774
781.795
781.814
781.834
781.854
781.874
781.893
781.912
781.931
781.95
781.969
781.988
782.006
782.025
782.043
782.06
782.078
782.096
782.114
782.131
782.149
782.165
782.183
782.2
782.216
782.233
782.249
782.265
782.28
782.293
782.307
782.324
782.344
782.363
782.38
782.381
782.375
782.361
782.329
782.278
782.238
782.209
782.188
782.173
782.162
782.166
782.209
782.316
782.423
782.519
782.599
782.656
782.692
782.71
782.713
782.708
782.701
782.696
782.694
782.696
782.702
782.71
782.72
782.731
782.742
782.753
782.763
782.775
782.786
782.795
782.807
782.816
782.825
782.835
782.845
782.854
782.863
782.871
782.88
782.889
782.897
782.905
782.914
782.92
782.929
782.936
782.944
782.952
782.959
782.965
782.973
782.979
782.986
782.993
783
783.006
783.012
783.018
783.024
783.03
783.036
783.041
783.047
783.053
783.058
783.063
783.068
783.072
783.078
783.082
783.086
783.091
783.095
783.1
783.103
783.107
783.112
783.116
783.119
783.124
783.127
783.13
783.134
783.136
783.141
783.143
783.148
783.147
783.154
783.152
783.159
783.157
783.166
783.162
783.169
783.167
783.174
783.171
783.178
783.176
783.182
783.18
783.187
783.182
783.19
783.189
780.516
780.547
780.576
780.602
780.627
780.654
780.682
780.709
780.735
780.76
780.786
780.812
780.839
780.864
780.89
780.915
780.941
780.967
780.991
781.016
781.042
781.067
781.091
781.117
781.142
781.166
781.19
781.214
781.238
781.262
781.286
781.309
781.333
781.356
781.379
781.402
781.425
781.448
781.47
781.493
781.515
781.537
781.56
781.581
781.603
781.624
781.646
781.667
781.689
781.709
781.73
781.751
781.771
781.791
781.812
781.831
781.852
781.871
781.891
781.911
781.93
781.949
781.969
781.987
782.006
782.024
782.043
782.061
782.079
782.097
782.114
782.133
782.15
782.167
782.184
782.202
782.218
782.234
782.25
782.266
782.28
782.295
782.308
782.322
782.338
782.356
782.374
782.391
782.397
782.392
782.381
782.358
782.318
782.283
782.258
782.239
782.222
782.212
782.211
782.237
782.301
782.37
782.434
782.493
782.541
782.579
782.608
782.63
782.645
782.656
782.666
782.674
782.682
782.692
782.702
782.713
782.723
782.734
782.745
782.756
782.766
782.777
782.788
782.797
782.808
782.817
782.826
782.836
782.845
782.854
782.864
782.871
782.881
782.889
782.897
782.905
782.914
782.921
782.929
782.936
782.944
782.952
782.959
782.965
782.973
782.979
782.986
782.993
783
783.006
783.012
783.018
783.024
783.03
783.036
783.041
783.047
783.053
783.058
783.063
783.068
783.072
783.078
783.082
783.086
783.091
783.095
783.1
783.103
783.107
783.112
783.116
783.119
783.124
783.127
783.13
783.134
783.137
783.14
783.143
783.147
783.148
783.153
783.153
783.159
783.159
783.165
783.162
783.17
783.167
783.174
783.171
783.178
783.176
783.183
783.18
783.186
783.182
783.187
783.189
780.484
780.51
780.537
780.564
780.591
780.616
780.639
780.663
780.689
780.715
780.742
780.767
780.793
780.819
780.844
780.87
780.896
780.921
780.947
780.971
780.996
781.021
781.046
781.071
781.096
781.12
781.144
781.168
781.192
781.217
781.24
781.263
781.287
781.31
781.333
781.356
781.379
781.402
781.424
781.446
781.469
781.491
781.513
781.535
781.557
781.578
781.6
781.621
781.642
781.663
781.684
781.704
781.725
781.746
781.766
781.786
781.805
781.825
781.845
781.864
781.884
781.903
781.922
781.941
781.96
781.979
781.998
782.016
782.034
782.052
782.07
782.088
782.106
782.123
782.141
782.157
782.175
782.192
782.209
782.226
782.242
782.259
782.276
782.292
782.308
782.323
782.338
782.356
782.376
782.394
782.404
782.403
782.396
782.384
782.371
782.357
782.346
782.34
782.342
782.357
782.382
782.414
782.449
782.485
782.519
782.549
782.575
782.598
782.618
782.635
782.65
782.665
782.677
782.689
782.701
782.712
782.725
782.736
782.746
782.757
782.767
782.777
782.788
782.797
782.808
782.817
782.826
782.836
782.845
782.854
782.864
782.871
782.881
782.889
782.897
782.905
782.914
782.921
782.929
782.936
782.944
782.952
782.959
782.965
782.973
782.979
782.986
782.993
783
783.006
783.012
783.018
783.024
783.03
783.036
783.041
783.047
783.053
783.058
783.063
783.068
783.072
783.078
783.082
783.086
783.091
783.095
783.1
783.103
783.107
783.112
783.116
783.119
783.124
783.127
783.13
783.134
783.137
783.14
783.144
783.146
783.149
783.151
783.155
783.157
783.16
783.163
783.165
783.167
783.17
783.17
783.176
783.175
783.178
783.181
783.18
783.185
783.185
783.188
783.188
780.51
780.548
780.586
780.625
780.661
780.695
780.728
780.76
780.793
780.823
780.853
780.881
780.91
780.936
780.963
780.989
781.015
781.04
781.066
781.09
781.116
781.141
781.166
781.191
781.215
781.239
781.264
781.289
781.312
781.336
781.36
781.383
781.406
781.43
781.453
781.476
781.498
781.522
781.544
781.567
781.589
781.611
781.633
781.655
781.676
781.698
781.72
781.741
781.761
781.782
781.803
781.824
781.845
781.865
781.885
781.904
781.924
781.943
781.962
781.982
782.001
782.02
782.039
782.057
782.074
782.092
782.109
782.126
782.143
782.16
782.177
782.193
782.209
782.224
782.238
782.253
782.268
782.281
782.295
782.309
782.323
782.34
782.357
782.372
782.388
782.399
782.402
782.397
782.389
782.377
782.364
782.353
782.348
782.348
782.346
782.348
782.353
782.367
782.385
782.408
782.436
782.466
782.496
782.526
782.551
782.575
782.596
782.614
782.629
782.645
782.658
782.672
782.684
782.695
782.707
782.717
782.729
782.739
782.749
782.759
782.769
782.779
782.79
782.798
782.809
782.818
782.827
782.836
782.845
782.854
782.864
782.871
782.881
782.889
782.897
782.905
782.914
782.921
782.929
782.936
782.944
782.952
782.959
782.965
782.973
782.979
782.986
782.993
783
783.006
783.012
783.018
783.024
783.03
783.036
783.041
783.047
783.053
783.058
783.063
783.068
783.072
783.078
783.082
783.086
783.091
783.095
783.1
783.103
783.107
783.112
783.116
783.119
783.124
783.127
783.131
783.133
783.137
783.139
783.144
783.145
783.15
783.15
783.157
783.155
783.162
783.16
783.167
783.164
783.172
783.169
783.177
783.174
783.181
783.177
783.185
783.182
783.188
783.185
783.191
780.426
780.45
780.476
780.503
780.529
780.555
780.581
780.607
780.633
780.658
780.685
780.712
780.739
780.766
780.791
780.818
780.844
780.868
780.894
780.92
780.944
780.968
780.993
781.017
781.042
781.065
781.09
781.115
781.138
781.162
781.185
781.209
781.232
781.256
781.28
781.302
781.325
781.348
781.37
781.394
781.415
781.437
781.459
781.482
781.503
781.525
781.546
781.567
781.589
781.61
781.631
781.651
781.672
781.693
781.713
781.733
781.752
781.772
781.792
781.811
781.831
781.849
781.869
781.888
781.906
781.926
781.943
781.963
781.981
781.998
782.015
782.033
782.051
782.068
782.086
782.103
782.12
782.137
782.154
782.172
782.188
782.203
782.219
782.236
782.253
782.271
782.287
782.301
782.316
782.332
782.347
782.366
782.388
782.414
782.434
782.445
782.447
782.443
782.434
782.42
782.408
782.406
782.421
782.456
782.492
782.528
782.56
782.589
782.612
782.633
782.65
782.666
782.68
782.694
782.705
782.717
782.729
782.739
782.749
782.76
782.769
782.779
782.79
782.799
782.809
782.818
782.826
782.837
782.845
782.854
782.864
782.871
782.881
782.889
782.897
782.905
782.914
782.921
782.929
782.936
782.944
782.952
782.959
782.965
782.973
782.979
782.986
782.993
783
783.006
783.012
783.018
783.024
783.03
783.036
783.041
783.047
783.053
783.058
783.063
783.068
783.072
783.078
783.082
783.086
783.091
783.095
783.1
783.103
783.107
783.112
783.116
783.119
783.124
783.127
783.131
783.133
783.137
783.139
783.144
783.145
783.15
783.15
783.157
783.155
783.162
783.16
783.167
783.164
783.172
783.169
783.177
783.174
783.181
783.177
783.184
783.182
783.186
783.188
783.189
780.456
780.494
780.536
780.576
780.616
780.655
780.693
780.732
780.769
780.805
780.839
780.871
780.901
780.93
780.957
780.984
781.01
781.036
781.062
781.087
781.111
781.136
781.161
781.186
781.21
781.234
781.259
781.284
781.307
781.332
781.356
781.379
781.402
781.426
781.448
781.472
781.495
781.517
781.539
781.562
781.584
781.605
781.628
781.649
781.67
781.691
781.713
781.734
781.755
781.775
781.796
781.816
781.836
781.856
781.875
781.896
781.916
781.936
781.955
781.975
781.995
782.014
782.033
782.052
782.071
782.089
782.107
782.125
782.143
782.158
782.174
782.19
782.206
782.221
782.235
782.249
782.263
782.279
782.295
782.313
782.329
782.345
782.362
782.381
782.398
782.414
782.43
782.44
782.444
782.441
782.434
782.425
782.414
782.405
782.399