/*--------------------------------*- C++ -*----------------------------------*\
| =========                 |                                                 |
| \\      /  F ield         | OpenFOAM: The Open Source CFD Toolbox           |
|  \\    /   O peration     | Version:  3.0.x                                 |
|   \\  /    A nd           | Web:      www.OpenFOAM.org                      |
|    \\/     M anipulation  |                                                 |
\*---------------------------------------------------------------------------*/
FoamFile
{
    version     2.0;
    format      ascii;
    class       volScalarField;
    location    "0.55";
    object      p;
}
// * * * * * * * * * * * * * * * * * * * * * * * * * * * * * * * * * * * * * //

dimensions      [1 -1 -2 0 0 0 0];

internalField   nonuniform List<scalar> 
6900
(
1.88239e+07
1.88244e+07
1.88251e+07
1.88258e+07
1.88265e+07
1.88273e+07
1.88281e+07
1.8829e+07
1.88299e+07
1.88309e+07
1.88319e+07
1.8833e+07
1.88342e+07
1.88353e+07
1.88366e+07
1.88379e+07
1.88392e+07
1.88406e+07
1.88421e+07
1.88436e+07
1.88452e+07
1.88468e+07
1.88485e+07
1.88502e+07
1.8852e+07
1.88538e+07
1.88557e+07
1.88577e+07
1.88597e+07
1.88618e+07
1.88639e+07
1.88661e+07
1.88683e+07
1.88705e+07
1.88729e+07
1.88752e+07
1.88776e+07
1.88801e+07
1.88826e+07
1.88851e+07
1.88877e+07
1.88903e+07
1.8893e+07
1.88957e+07
1.88984e+07
1.89012e+07
1.8904e+07
1.89068e+07
1.89097e+07
1.89126e+07
1.89155e+07
1.89185e+07
1.89215e+07
1.89246e+07
1.89277e+07
1.89308e+07
1.89339e+07
1.89371e+07
1.89403e+07
1.89436e+07
1.89468e+07
1.89501e+07
1.89535e+07
1.89569e+07
1.89603e+07
1.89637e+07
1.89672e+07
1.89707e+07
1.89742e+07
1.89778e+07
1.89814e+07
1.8985e+07
1.89886e+07
1.89923e+07
1.8996e+07
1.89997e+07
1.90035e+07
1.90072e+07
1.9011e+07
1.90149e+07
1.90187e+07
1.90226e+07
1.90265e+07
1.90304e+07
1.90343e+07
1.90382e+07
1.90422e+07
1.90462e+07
1.90502e+07
1.90542e+07
1.90582e+07
1.90623e+07
1.90663e+07
1.90704e+07
1.90745e+07
1.90786e+07
1.90827e+07
1.90868e+07
1.90909e+07
1.9095e+07
1.90992e+07
1.91033e+07
1.91075e+07
1.91117e+07
1.91158e+07
1.912e+07
1.91242e+07
1.91284e+07
1.91326e+07
1.91368e+07
1.9141e+07
1.91451e+07
1.91493e+07
1.91535e+07
1.91577e+07
1.91619e+07
1.91661e+07
1.91703e+07
1.91745e+07
1.91786e+07
1.91828e+07
1.9187e+07
1.91911e+07
1.91953e+07
1.91994e+07
1.92036e+07
1.92077e+07
1.92118e+07
1.92159e+07
1.922e+07
1.92241e+07
1.92282e+07
1.92323e+07
1.92363e+07
1.92404e+07
1.92444e+07
1.92485e+07
1.92525e+07
1.92565e+07
1.92605e+07
1.92645e+07
1.92684e+07
1.92724e+07
1.92764e+07
1.92803e+07
1.92842e+07
1.92881e+07
1.9292e+07
1.92958e+07
1.92997e+07
1.93035e+07
1.93073e+07
1.93111e+07
1.93149e+07
1.93187e+07
1.93224e+07
1.93261e+07
1.93298e+07
1.93335e+07
1.93372e+07
1.93408e+07
1.93444e+07
1.9348e+07
1.93516e+07
1.93551e+07
1.93587e+07
1.93622e+07
1.93656e+07
1.93691e+07
1.93725e+07
1.93759e+07
1.93793e+07
1.93826e+07
1.93859e+07
1.93892e+07
1.93925e+07
1.93957e+07
1.93989e+07
1.94021e+07
1.94052e+07
1.94083e+07
1.94114e+07
1.94145e+07
1.94175e+07
1.94205e+07
1.94235e+07
1.94264e+07
1.94293e+07
1.94322e+07
1.94351e+07
1.94379e+07
1.94407e+07
1.94434e+07
1.94462e+07
1.94489e+07
1.94515e+07
1.94542e+07
1.94568e+07
1.94593e+07
1.94619e+07
1.88239e+07
1.88244e+07
1.88251e+07
1.88258e+07
1.88265e+07
1.88273e+07
1.88281e+07
1.8829e+07
1.88299e+07
1.88309e+07
1.88319e+07
1.8833e+07
1.88342e+07
1.88353e+07
1.88366e+07
1.88379e+07
1.88392e+07
1.88406e+07
1.88421e+07
1.88436e+07
1.88452e+07
1.88468e+07
1.88485e+07
1.88502e+07
1.8852e+07
1.88538e+07
1.88557e+07
1.88577e+07
1.88597e+07
1.88618e+07
1.88639e+07
1.88661e+07
1.88683e+07
1.88705e+07
1.88729e+07
1.88752e+07
1.88776e+07
1.88801e+07
1.88826e+07
1.88851e+07
1.88877e+07
1.88903e+07
1.8893e+07
1.88957e+07
1.88984e+07
1.89012e+07
1.8904e+07
1.89068e+07
1.89097e+07
1.89126e+07
1.89155e+07
1.89185e+07
1.89215e+07
1.89246e+07
1.89277e+07
1.89308e+07
1.89339e+07
1.89371e+07
1.89403e+07
1.89436e+07
1.89468e+07
1.89501e+07
1.89535e+07
1.89569e+07
1.89603e+07
1.89637e+07
1.89672e+07
1.89707e+07
1.89742e+07
1.89778e+07
1.89814e+07
1.8985e+07
1.89886e+07
1.89923e+07
1.8996e+07
1.89997e+07
1.90035e+07
1.90072e+07
1.9011e+07
1.90149e+07
1.90187e+07
1.90226e+07
1.90265e+07
1.90304e+07
1.90343e+07
1.90382e+07
1.90422e+07
1.90462e+07
1.90502e+07
1.90542e+07
1.90582e+07
1.90623e+07
1.90663e+07
1.90704e+07
1.90745e+07
1.90786e+07
1.90827e+07
1.90868e+07
1.90909e+07
1.9095e+07
1.90992e+07
1.91033e+07
1.91075e+07
1.91117e+07
1.91158e+07
1.912e+07
1.91242e+07
1.91284e+07
1.91326e+07
1.91368e+07
1.9141e+07
1.91451e+07
1.91493e+07
1.91535e+07
1.91577e+07
1.91619e+07
1.91661e+07
1.91703e+07
1.91745e+07
1.91786e+07
1.91828e+07
1.9187e+07
1.91911e+07
1.91953e+07
1.91994e+07
1.92036e+07
1.92077e+07
1.92118e+07
1.92159e+07
1.922e+07
1.92241e+07
1.92282e+07
1.92323e+07
1.92363e+07
1.92404e+07
1.92444e+07
1.92485e+07
1.92525e+07
1.92565e+07
1.92605e+07
1.92645e+07
1.92684e+07
1.92724e+07
1.92764e+07
1.92803e+07
1.92842e+07
1.92881e+07
1.9292e+07
1.92958e+07
1.92997e+07
1.93035e+07
1.93073e+07
1.93111e+07
1.93149e+07
1.93187e+07
1.93224e+07
1.93261e+07
1.93298e+07
1.93335e+07
1.93372e+07
1.93408e+07
1.93444e+07
1.9348e+07
1.93516e+07
1.93551e+07
1.93587e+07
1.93622e+07
1.93656e+07
1.93691e+07
1.93725e+07
1.93759e+07
1.93793e+07
1.93826e+07
1.93859e+07
1.93892e+07
1.93925e+07
1.93957e+07
1.93989e+07
1.94021e+07
1.94052e+07
1.94083e+07
1.94114e+07
1.94145e+07
1.94175e+07
1.94205e+07
1.94235e+07
1.94264e+07
1.94293e+07
1.94322e+07
1.94351e+07
1.94379e+07
1.94407e+07
1.94434e+07
1.94462e+07
1.94489e+07
1.94515e+07
1.94542e+07
1.94568e+07
1.94593e+07
1.94619e+07
1.88239e+07
1.88244e+07
1.88251e+07
1.88258e+07
1.88265e+07
1.88273e+07
1.88281e+07
1.8829e+07
1.88299e+07
1.88309e+07
1.88319e+07
1.8833e+07
1.88342e+07
1.88353e+07
1.88366e+07
1.88379e+07
1.88392e+07
1.88406e+07
1.88421e+07
1.88436e+07
1.88452e+07
1.88468e+07
1.88485e+07
1.88502e+07
1.8852e+07
1.88538e+07
1.88557e+07
1.88577e+07
1.88597e+07
1.88618e+07
1.88639e+07
1.88661e+07
1.88683e+07
1.88705e+07
1.88729e+07
1.88752e+07
1.88776e+07
1.88801e+07
1.88826e+07
1.88851e+07
1.88877e+07
1.88903e+07
1.8893e+07
1.88957e+07
1.88984e+07
1.89012e+07
1.8904e+07
1.89068e+07
1.89097e+07
1.89126e+07
1.89155e+07
1.89185e+07
1.89215e+07
1.89246e+07
1.89277e+07
1.89308e+07
1.89339e+07
1.89371e+07
1.89403e+07
1.89436e+07
1.89468e+07
1.89501e+07
1.89535e+07
1.89569e+07
1.89603e+07
1.89637e+07
1.89672e+07
1.89707e+07
1.89742e+07
1.89778e+07
1.89814e+07
1.8985e+07
1.89886e+07
1.89923e+07
1.8996e+07
1.89997e+07
1.90035e+07
1.90072e+07
1.9011e+07
1.90149e+07
1.90187e+07
1.90226e+07
1.90265e+07
1.90304e+07
1.90343e+07
1.90382e+07
1.90422e+07
1.90462e+07
1.90502e+07
1.90542e+07
1.90582e+07
1.90623e+07
1.90663e+07
1.90704e+07
1.90745e+07
1.90786e+07
1.90827e+07
1.90868e+07
1.90909e+07
1.9095e+07
1.90992e+07
1.91033e+07
1.91075e+07
1.91117e+07
1.91158e+07
1.912e+07
1.91242e+07
1.91284e+07
1.91326e+07
1.91368e+07
1.9141e+07
1.91451e+07
1.91493e+07
1.91535e+07
1.91577e+07
1.91619e+07
1.91661e+07
1.91703e+07
1.91745e+07
1.91786e+07
1.91828e+07
1.9187e+07
1.91911e+07
1.91953e+07
1.91994e+07
1.92036e+07
1.92077e+07
1.92118e+07
1.92159e+07
1.922e+07
1.92241e+07
1.92282e+07
1.92323e+07
1.92363e+07
1.92404e+07
1.92444e+07
1.92485e+07
1.92525e+07
1.92565e+07
1.92605e+07
1.92645e+07
1.92684e+07
1.92724e+07
1.92764e+07
1.92803e+07
1.92842e+07
1.92881e+07
1.9292e+07
1.92958e+07
1.92997e+07
1.93035e+07
1.93073e+07
1.93111e+07
1.93149e+07
1.93187e+07
1.93224e+07
1.93261e+07
1.93298e+07
1.93335e+07
1.93372e+07
1.93408e+07
1.93444e+07
1.9348e+07
1.93516e+07
1.93551e+07
1.93587e+07
1.93622e+07
1.93656e+07
1.93691e+07
1.93725e+07
1.93759e+07
1.93793e+07
1.93826e+07
1.93859e+07
1.93892e+07
1.93925e+07
1.93957e+07
1.93989e+07
1.94021e+07
1.94052e+07
1.94083e+07
1.94114e+07
1.94145e+07
1.94175e+07
1.94205e+07
1.94235e+07
1.94264e+07
1.94293e+07
1.94322e+07
1.94351e+07
1.94379e+07
1.94407e+07
1.94434e+07
1.94462e+07
1.94489e+07
1.94515e+07
1.94542e+07
1.94568e+07
1.94593e+07
1.94619e+07
1.88239e+07
1.88244e+07
1.88251e+07
1.88258e+07
1.88265e+07
1.88273e+07
1.88281e+07
1.8829e+07
1.88299e+07
1.88309e+07
1.88319e+07
1.8833e+07
1.88342e+07
1.88353e+07
1.88366e+07
1.88379e+07
1.88392e+07
1.88406e+07
1.88421e+07
1.88436e+07
1.88452e+07
1.88468e+07
1.88485e+07
1.88502e+07
1.8852e+07
1.88538e+07
1.88557e+07
1.88577e+07
1.88597e+07
1.88618e+07
1.88639e+07
1.88661e+07
1.88683e+07
1.88705e+07
1.88729e+07
1.88752e+07
1.88776e+07
1.88801e+07
1.88826e+07
1.88851e+07
1.88877e+07
1.88903e+07
1.8893e+07
1.88957e+07
1.88984e+07
1.89012e+07
1.8904e+07
1.89068e+07
1.89097e+07
1.89126e+07
1.89155e+07
1.89185e+07
1.89215e+07
1.89246e+07
1.89277e+07
1.89308e+07
1.89339e+07
1.89371e+07
1.89403e+07
1.89436e+07
1.89468e+07
1.89501e+07
1.89535e+07
1.89569e+07
1.89603e+07
1.89637e+07
1.89672e+07
1.89707e+07
1.89742e+07
1.89778e+07
1.89814e+07
1.8985e+07
1.89886e+07
1.89923e+07
1.8996e+07
1.89997e+07
1.90035e+07
1.90072e+07
1.9011e+07
1.90149e+07
1.90187e+07
1.90226e+07
1.90265e+07
1.90304e+07
1.90343e+07
1.90382e+07
1.90422e+07
1.90462e+07
1.90502e+07
1.90542e+07
1.90582e+07
1.90623e+07
1.90663e+07
1.90704e+07
1.90745e+07
1.90786e+07
1.90827e+07
1.90868e+07
1.90909e+07
1.9095e+07
1.90992e+07
1.91033e+07
1.91075e+07
1.91117e+07
1.91158e+07
1.912e+07
1.91242e+07
1.91284e+07
1.91326e+07
1.91368e+07
1.9141e+07
1.91451e+07
1.91493e+07
1.91535e+07
1.91577e+07
1.91619e+07
1.91661e+07
1.91703e+07
1.91745e+07
1.91786e+07
1.91828e+07
1.9187e+07
1.91911e+07
1.91953e+07
1.91994e+07
1.92036e+07
1.92077e+07
1.92118e+07
1.92159e+07
1.922e+07
1.92241e+07
1.92282e+07
1.92323e+07
1.92363e+07
1.92404e+07
1.92444e+07
1.92485e+07
1.92525e+07
1.92565e+07
1.92605e+07
1.92645e+07
1.92684e+07
1.92724e+07
1.92764e+07
1.92803e+07
1.92842e+07
1.92881e+07
1.9292e+07
1.92958e+07
1.92997e+07
1.93035e+07
1.93073e+07
1.93111e+07
1.93149e+07
1.93187e+07
1.93224e+07
1.93261e+07
1.93298e+07
1.93335e+07
1.93372e+07
1.93408e+07
1.93444e+07
1.9348e+07
1.93516e+07
1.93551e+07
1.93587e+07
1.93622e+07
1.93656e+07
1.93691e+07
1.93725e+07
1.93759e+07
1.93793e+07
1.93826e+07
1.93859e+07
1.93892e+07
1.93925e+07
1.93957e+07
1.93989e+07
1.94021e+07
1.94052e+07
1.94083e+07
1.94114e+07
1.94145e+07
1.94175e+07
1.94205e+07
1.94235e+07
1.94264e+07
1.94293e+07
1.94322e+07
1.94351e+07
1.94379e+07
1.94407e+07
1.94434e+07
1.94462e+07
1.94489e+07
1.94515e+07
1.94542e+07
1.94568e+07
1.94594e+07
1.94619e+07
1.88239e+07
1.88244e+07
1.88251e+07
1.88258e+07
1.88265e+07
1.88273e+07
1.88281e+07
1.8829e+07
1.88299e+07
1.88309e+07
1.88319e+07
1.8833e+07
1.88342e+07
1.88353e+07
1.88366e+07
1.88379e+07
1.88392e+07
1.88406e+07
1.88421e+07
1.88436e+07
1.88452e+07
1.88468e+07
1.88485e+07
1.88502e+07
1.8852e+07
1.88538e+07
1.88557e+07
1.88577e+07
1.88597e+07
1.88618e+07
1.88639e+07
1.88661e+07
1.88683e+07
1.88705e+07
1.88729e+07
1.88752e+07
1.88776e+07
1.88801e+07
1.88826e+07
1.88851e+07
1.88877e+07
1.88903e+07
1.8893e+07
1.88957e+07
1.88984e+07
1.89012e+07
1.8904e+07
1.89068e+07
1.89097e+07
1.89126e+07
1.89155e+07
1.89185e+07
1.89215e+07
1.89246e+07
1.89277e+07
1.89308e+07
1.89339e+07
1.89371e+07
1.89403e+07
1.89436e+07
1.89468e+07
1.89501e+07
1.89535e+07
1.89569e+07
1.89603e+07
1.89637e+07
1.89672e+07
1.89707e+07
1.89742e+07
1.89778e+07
1.89814e+07
1.8985e+07
1.89886e+07
1.89923e+07
1.8996e+07
1.89997e+07
1.90035e+07
1.90072e+07
1.9011e+07
1.90149e+07
1.90187e+07
1.90226e+07
1.90265e+07
1.90304e+07
1.90343e+07
1.90382e+07
1.90422e+07
1.90462e+07
1.90502e+07
1.90542e+07
1.90582e+07
1.90623e+07
1.90663e+07
1.90704e+07
1.90745e+07
1.90786e+07
1.90827e+07
1.90868e+07
1.90909e+07
1.9095e+07
1.90992e+07
1.91033e+07
1.91075e+07
1.91117e+07
1.91158e+07
1.912e+07
1.91242e+07
1.91284e+07
1.91326e+07
1.91368e+07
1.9141e+07
1.91451e+07
1.91493e+07
1.91535e+07
1.91577e+07
1.91619e+07
1.91661e+07
1.91703e+07
1.91745e+07
1.91786e+07
1.91828e+07
1.9187e+07
1.91911e+07
1.91953e+07
1.91994e+07
1.92036e+07
1.92077e+07
1.92118e+07
1.92159e+07
1.922e+07
1.92241e+07
1.92282e+07
1.92323e+07
1.92363e+07
1.92404e+07
1.92444e+07
1.92485e+07
1.92525e+07
1.92565e+07
1.92605e+07
1.92645e+07
1.92684e+07
1.92724e+07
1.92764e+07
1.92803e+07
1.92842e+07
1.92881e+07
1.9292e+07
1.92958e+07
1.92997e+07
1.93035e+07
1.93073e+07
1.93111e+07
1.93149e+07
1.93187e+07
1.93224e+07
1.93261e+07
1.93298e+07
1.93335e+07
1.93372e+07
1.93408e+07
1.93444e+07
1.9348e+07
1.93516e+07
1.93551e+07
1.93587e+07
1.93622e+07
1.93656e+07
1.93691e+07
1.93725e+07
1.93759e+07
1.93793e+07
1.93826e+07
1.93859e+07
1.93892e+07
1.93925e+07
1.93957e+07
1.93989e+07
1.94021e+07
1.94052e+07
1.94083e+07
1.94114e+07
1.94145e+07
1.94175e+07
1.94205e+07
1.94235e+07
1.94264e+07
1.94293e+07
1.94322e+07
1.94351e+07
1.94379e+07
1.94407e+07
1.94434e+07
1.94462e+07
1.94489e+07
1.94515e+07
1.94542e+07
1.94568e+07
1.94594e+07
1.94619e+07
1.94634e+07
1.9464e+07
1.94646e+07
1.94651e+07
1.94656e+07
1.94661e+07
1.94667e+07
1.94674e+07
1.94679e+07
1.94682e+07
1.94684e+07
1.94687e+07
1.94692e+07
1.94696e+07
1.947e+07
1.94708e+07
1.94716e+07
1.94724e+07
1.9473e+07
1.94732e+07
1.94634e+07
1.9464e+07
1.94645e+07
1.9465e+07
1.94655e+07
1.9466e+07
1.94666e+07
1.94673e+07
1.94678e+07
1.9468e+07
1.94682e+07
1.94686e+07
1.9469e+07
1.94695e+07
1.947e+07
1.94708e+07
1.94716e+07
1.94722e+07
1.94727e+07
1.94728e+07
1.94634e+07
1.94638e+07
1.94643e+07
1.94647e+07
1.94652e+07
1.94656e+07
1.9466e+07
1.94664e+07
1.94667e+07
1.94671e+07
1.94675e+07
1.94678e+07
1.94682e+07
1.94685e+07
1.94688e+07
1.94691e+07
1.94693e+07
1.94696e+07
1.94699e+07
1.94702e+07
1.94635e+07
1.94639e+07
1.94643e+07
1.94646e+07
1.9465e+07
1.94653e+07
1.94656e+07
1.94659e+07
1.94662e+07
1.94665e+07
1.94668e+07
1.94672e+07
1.94675e+07
1.94678e+07
1.94681e+07
1.94684e+07
1.94687e+07
1.9469e+07
1.94693e+07
1.94695e+07
1.94634e+07
1.94637e+07
1.94641e+07
1.94644e+07
1.94648e+07
1.94651e+07
1.94654e+07
1.94657e+07
1.9466e+07
1.94663e+07
1.94665e+07
1.94668e+07
1.94671e+07
1.94674e+07
1.94677e+07
1.9468e+07
1.94683e+07
1.94686e+07
1.94688e+07
1.94691e+07
1.9471e+07
1.94737e+07
1.94767e+07
1.94793e+07
1.94794e+07
1.94803e+07
1.94827e+07
1.94856e+07
1.94855e+07
1.94867e+07
1.94898e+07
1.94926e+07
1.94917e+07
1.94925e+07
1.94948e+07
1.94997e+07
1.95022e+07
1.94995e+07
1.94996e+07
1.95015e+07
1.95042e+07
1.95113e+07
1.95111e+07
1.95073e+07
1.95076e+07
1.95095e+07
1.95129e+07
1.95165e+07
1.95147e+07
1.9514e+07
1.95149e+07
1.95161e+07
1.95173e+07
1.95184e+07
1.95196e+07
1.95207e+07
1.95219e+07
1.95232e+07
1.95251e+07
1.95287e+07
1.9532e+07
1.95297e+07
1.95286e+07
1.95293e+07
1.95303e+07
1.95312e+07
1.95322e+07
1.95331e+07
1.9534e+07
1.95348e+07
1.95357e+07
1.95366e+07
1.95374e+07
1.95382e+07
1.9539e+07
1.95398e+07
1.95405e+07
1.95413e+07
1.9542e+07
1.95427e+07
1.95434e+07
1.95441e+07
1.95448e+07
1.95454e+07
1.9546e+07
1.95467e+07
1.95473e+07
1.95478e+07
1.95484e+07
1.9549e+07
1.95495e+07
1.955e+07
1.95505e+07
1.9551e+07
1.95515e+07
1.9552e+07
1.95524e+07
1.95529e+07
1.95533e+07
1.95537e+07
1.95541e+07
1.95545e+07
1.95549e+07
1.95553e+07
1.95556e+07
1.9556e+07
1.95564e+07
1.95567e+07
1.95571e+07
1.95576e+07
1.95581e+07
1.9559e+07
1.95609e+07
1.95624e+07
1.95611e+07
1.95596e+07
1.95595e+07
1.95599e+07
1.95603e+07
1.95606e+07
1.95611e+07
1.95615e+07
1.95619e+07
1.95623e+07
1.95626e+07
1.9563e+07
1.95633e+07
1.95637e+07
1.9564e+07
1.95643e+07
1.95646e+07
1.95649e+07
1.95652e+07
1.95655e+07
1.95658e+07
1.9566e+07
1.95663e+07
1.95665e+07
1.95667e+07
1.95669e+07
1.95671e+07
1.95672e+07
1.95674e+07
1.95675e+07
1.95677e+07
1.95678e+07
1.9568e+07
1.95681e+07
1.95683e+07
1.95684e+07
1.95685e+07
1.95687e+07
1.95688e+07
1.95689e+07
1.9569e+07
1.95692e+07
1.95693e+07
1.95694e+07
1.95695e+07
1.95696e+07
1.95697e+07
1.95698e+07
1.95699e+07
1.957e+07
1.95701e+07
1.95702e+07
1.95703e+07
1.95704e+07
1.95705e+07
1.95705e+07
1.95706e+07
1.95707e+07
1.95708e+07
1.95709e+07
1.9571e+07
1.95711e+07
1.95712e+07
1.95714e+07
1.95715e+07
1.95716e+07
1.95717e+07
1.95718e+07
1.95719e+07
1.9572e+07
1.95721e+07
1.95723e+07
1.95724e+07
1.95725e+07
1.95726e+07
1.95727e+07
1.95728e+07
1.95729e+07
1.95729e+07
1.9573e+07
1.95731e+07
1.95731e+07
1.95732e+07
1.95733e+07
1.95733e+07
1.95733e+07
1.95734e+07
1.95734e+07
1.95735e+07
1.95735e+07
1.95735e+07
1.95736e+07
1.95736e+07
1.95736e+07
1.95736e+07
1.95737e+07
1.95737e+07
1.95737e+07
1.95738e+07
1.95738e+07
1.95738e+07
1.95739e+07
1.95739e+07
1.95739e+07
1.9574e+07
1.9574e+07
1.94709e+07
1.94737e+07
1.94767e+07
1.94793e+07
1.94794e+07
1.94803e+07
1.94827e+07
1.94856e+07
1.94856e+07
1.94867e+07
1.94898e+07
1.94926e+07
1.94917e+07
1.94925e+07
1.94948e+07
1.94997e+07
1.95022e+07
1.94995e+07
1.94996e+07
1.95015e+07
1.95041e+07
1.95113e+07
1.95111e+07
1.95074e+07
1.95076e+07
1.95095e+07
1.9513e+07
1.95165e+07
1.95147e+07
1.9514e+07
1.95149e+07
1.95161e+07
1.95173e+07
1.95184e+07
1.95196e+07
1.95207e+07
1.95219e+07
1.95232e+07
1.9525e+07
1.95287e+07
1.9532e+07
1.95297e+07
1.95287e+07
1.95293e+07
1.95303e+07
1.95312e+07
1.95322e+07
1.95331e+07
1.9534e+07
1.95348e+07
1.95357e+07
1.95366e+07
1.95374e+07
1.95382e+07
1.9539e+07
1.95398e+07
1.95405e+07
1.95413e+07
1.9542e+07
1.95427e+07
1.95434e+07
1.95441e+07
1.95448e+07
1.95454e+07
1.9546e+07
1.95467e+07
1.95472e+07
1.95478e+07
1.95484e+07
1.9549e+07
1.95495e+07
1.955e+07
1.95505e+07
1.9551e+07
1.95515e+07
1.9552e+07
1.95524e+07
1.95529e+07
1.95533e+07
1.95537e+07
1.95541e+07
1.95545e+07
1.95549e+07
1.95553e+07
1.95556e+07
1.9556e+07
1.95564e+07
1.95567e+07
1.95571e+07
1.95575e+07
1.95581e+07
1.9559e+07
1.95609e+07
1.95624e+07
1.95611e+07
1.95596e+07
1.95595e+07
1.95599e+07
1.95603e+07
1.95606e+07
1.9561e+07
1.95615e+07
1.95619e+07
1.95623e+07
1.95626e+07
1.9563e+07
1.95633e+07
1.95637e+07
1.9564e+07
1.95643e+07
1.95646e+07
1.95649e+07
1.95652e+07
1.95655e+07
1.95658e+07
1.9566e+07
1.95663e+07
1.95665e+07
1.95667e+07
1.95669e+07
1.9567e+07
1.95672e+07
1.95674e+07
1.95675e+07
1.95677e+07
1.95678e+07
1.9568e+07
1.95681e+07
1.95683e+07
1.95684e+07
1.95685e+07
1.95687e+07
1.95688e+07
1.95689e+07
1.9569e+07
1.95692e+07
1.95693e+07
1.95694e+07
1.95695e+07
1.95696e+07
1.95697e+07
1.95698e+07
1.95699e+07
1.957e+07
1.95701e+07
1.95702e+07
1.95703e+07
1.95704e+07
1.95705e+07
1.95705e+07
1.95706e+07
1.95707e+07
1.95708e+07
1.95709e+07
1.9571e+07
1.95711e+07
1.95712e+07
1.95714e+07
1.95715e+07
1.95716e+07
1.95717e+07
1.95718e+07
1.95719e+07
1.9572e+07
1.95721e+07
1.95723e+07
1.95724e+07
1.95725e+07
1.95726e+07
1.95727e+07
1.95728e+07
1.95729e+07
1.95729e+07
1.9573e+07
1.95731e+07
1.95731e+07
1.95732e+07
1.95733e+07
1.95733e+07
1.95733e+07
1.95734e+07
1.95734e+07
1.95735e+07
1.95735e+07
1.95735e+07
1.95736e+07
1.95736e+07
1.95736e+07
1.95736e+07
1.95737e+07
1.95737e+07
1.95737e+07
1.95738e+07
1.95738e+07
1.95738e+07
1.95739e+07
1.95739e+07
1.95739e+07
1.9574e+07
1.9574e+07
1.9471e+07
1.94735e+07
1.94752e+07
1.94766e+07
1.94781e+07
1.94799e+07
1.94816e+07
1.9483e+07
1.94846e+07
1.94863e+07
1.94879e+07
1.94891e+07
1.94906e+07
1.94922e+07
1.9494e+07
1.94953e+07
1.94962e+07
1.94976e+07
1.94992e+07
1.95011e+07
1.95028e+07
1.95034e+07
1.95041e+07
1.95055e+07
1.95071e+07
1.95089e+07
1.95102e+07
1.95109e+07
1.95121e+07
1.95134e+07
1.95147e+07
1.9516e+07
1.95172e+07
1.95184e+07
1.95196e+07
1.95207e+07
1.95218e+07
1.9523e+07
1.95245e+07
1.95255e+07
1.95257e+07
1.95271e+07
1.95281e+07
1.95292e+07
1.95302e+07
1.95312e+07
1.95322e+07
1.95331e+07
1.9534e+07
1.95348e+07
1.95357e+07
1.95366e+07
1.95374e+07
1.95382e+07
1.9539e+07
1.95398e+07
1.95406e+07
1.95413e+07
1.9542e+07
1.95427e+07
1.95434e+07
1.95441e+07
1.95448e+07
1.95454e+07
1.9546e+07
1.95467e+07
1.95473e+07
1.95478e+07
1.95484e+07
1.9549e+07
1.95495e+07
1.955e+07
1.95505e+07
1.9551e+07
1.95515e+07
1.9552e+07
1.95524e+07
1.95529e+07
1.95533e+07
1.95537e+07
1.95542e+07
1.95546e+07
1.9555e+07
1.95553e+07
1.95557e+07
1.95561e+07
1.95565e+07
1.95569e+07
1.95572e+07
1.95576e+07
1.95581e+07
1.95587e+07
1.9559e+07
1.95588e+07
1.95588e+07
1.95592e+07
1.95595e+07
1.956e+07
1.95604e+07
1.95608e+07
1.95612e+07
1.95616e+07
1.9562e+07
1.95624e+07
1.95628e+07
1.95631e+07
1.95634e+07
1.95637e+07
1.9564e+07
1.95643e+07
1.95646e+07
1.95649e+07
1.95652e+07
1.95655e+07
1.95658e+07
1.9566e+07
1.95663e+07
1.95665e+07
1.95667e+07
1.95669e+07
1.9567e+07
1.95672e+07
1.95674e+07
1.95675e+07
1.95677e+07
1.95678e+07
1.9568e+07
1.95681e+07
1.95683e+07
1.95684e+07
1.95685e+07
1.95687e+07
1.95688e+07
1.95689e+07
1.9569e+07
1.95692e+07
1.95693e+07
1.95694e+07
1.95695e+07
1.95696e+07
1.95697e+07
1.95698e+07
1.95699e+07
1.957e+07
1.95701e+07
1.95702e+07
1.95703e+07
1.95704e+07
1.95705e+07
1.95705e+07
1.95706e+07
1.95707e+07
1.95708e+07
1.95709e+07
1.9571e+07
1.95711e+07
1.95712e+07
1.95714e+07
1.95715e+07
1.95716e+07
1.95717e+07
1.95718e+07
1.95719e+07
1.9572e+07
1.95721e+07
1.95723e+07
1.95724e+07
1.95725e+07
1.95726e+07
1.95727e+07
1.95728e+07
1.95729e+07
1.95729e+07
1.9573e+07
1.95731e+07
1.95731e+07
1.95732e+07
1.95733e+07
1.95733e+07
1.95733e+07
1.95734e+07
1.95734e+07
1.95735e+07
1.95735e+07
1.95735e+07
1.95736e+07
1.95736e+07
1.95736e+07
1.95736e+07
1.95737e+07
1.95737e+07
1.95737e+07
1.95738e+07
1.95738e+07
1.95738e+07
1.95739e+07
1.95739e+07
1.95739e+07
1.9574e+07
1.9574e+07
1.94703e+07
1.94725e+07
1.94742e+07
1.94757e+07
1.94773e+07
1.9479e+07
1.94807e+07
1.94822e+07
1.94837e+07
1.94854e+07
1.9487e+07
1.94884e+07
1.94899e+07
1.94916e+07
1.94932e+07
1.94947e+07
1.94959e+07
1.94973e+07
1.9499e+07
1.95006e+07
1.9502e+07
1.95031e+07
1.95041e+07
1.95054e+07
1.9507e+07
1.95085e+07
1.95098e+07
1.95108e+07
1.95119e+07
1.95132e+07
1.95145e+07
1.95157e+07
1.9517e+07
1.95182e+07
1.95194e+07
1.95206e+07
1.95218e+07
1.9523e+07
1.95243e+07
1.95253e+07
1.9526e+07
1.9527e+07
1.9528e+07
1.95291e+07
1.95301e+07
1.95311e+07
1.95321e+07
1.9533e+07
1.95339e+07
1.95348e+07
1.95357e+07
1.95365e+07
1.95374e+07
1.95382e+07
1.9539e+07
1.95398e+07
1.95406e+07
1.95413e+07
1.9542e+07
1.95428e+07
1.95435e+07
1.95441e+07
1.95448e+07
1.95454e+07
1.95461e+07
1.95467e+07
1.95473e+07
1.95478e+07
1.95484e+07
1.9549e+07
1.95495e+07
1.955e+07
1.95505e+07
1.9551e+07
1.95515e+07
1.9552e+07
1.95525e+07
1.95529e+07
1.95534e+07
1.95538e+07
1.95542e+07
1.95546e+07
1.9555e+07
1.95554e+07
1.95558e+07
1.95562e+07
1.95566e+07
1.9557e+07
1.95575e+07
1.95579e+07
1.95584e+07
1.95588e+07
1.9559e+07
1.95591e+07
1.9559e+07
1.95593e+07
1.95597e+07
1.95601e+07
1.95605e+07
1.95609e+07
1.95613e+07
1.95617e+07
1.95621e+07
1.95625e+07
1.95628e+07
1.95631e+07
1.95634e+07
1.95637e+07
1.9564e+07
1.95643e+07
1.95646e+07
1.9565e+07
1.95652e+07
1.95655e+07
1.95658e+07
1.9566e+07
1.95663e+07
1.95665e+07
1.95667e+07
1.95669e+07
1.9567e+07
1.95672e+07
1.95674e+07
1.95675e+07
1.95677e+07
1.95678e+07
1.9568e+07
1.95681e+07
1.95683e+07
1.95684e+07
1.95685e+07
1.95687e+07
1.95688e+07
1.95689e+07
1.9569e+07
1.95692e+07
1.95693e+07
1.95694e+07
1.95695e+07
1.95696e+07
1.95697e+07
1.95698e+07
1.95699e+07
1.957e+07
1.95701e+07
1.95702e+07
1.95703e+07
1.95704e+07
1.95705e+07
1.95705e+07
1.95706e+07
1.95707e+07
1.95708e+07
1.95709e+07
1.9571e+07
1.95711e+07
1.95712e+07
1.95714e+07
1.95715e+07
1.95716e+07
1.95717e+07
1.95718e+07
1.95719e+07
1.9572e+07
1.95721e+07
1.95723e+07
1.95724e+07
1.95725e+07
1.95726e+07
1.95727e+07
1.95728e+07
1.95729e+07
1.95729e+07
1.9573e+07
1.95731e+07
1.95731e+07
1.95732e+07
1.95733e+07
1.95733e+07
1.95733e+07
1.95734e+07
1.95734e+07
1.95735e+07
1.95735e+07
1.95735e+07
1.95736e+07
1.95736e+07
1.95736e+07
1.95736e+07
1.95737e+07
1.95737e+07
1.95737e+07
1.95738e+07
1.95738e+07
1.95738e+07
1.95739e+07
1.95739e+07
1.95739e+07
1.9574e+07
1.9574e+07
1.94703e+07
1.94724e+07
1.94742e+07
1.94757e+07
1.94773e+07
1.9479e+07
1.94807e+07
1.94822e+07
1.94837e+07
1.94854e+07
1.9487e+07
1.94884e+07
1.94899e+07
1.94916e+07
1.94932e+07
1.94947e+07
1.94959e+07
1.94973e+07
1.9499e+07
1.95006e+07
1.9502e+07
1.95031e+07
1.95041e+07
1.95054e+07
1.9507e+07
1.95085e+07
1.95098e+07
1.95108e+07
1.95119e+07
1.95132e+07
1.95145e+07
1.95157e+07
1.9517e+07
1.95182e+07
1.95194e+07
1.95206e+07
1.95218e+07
1.9523e+07
1.95243e+07
1.95253e+07
1.9526e+07
1.9527e+07
1.95281e+07
1.95291e+07
1.95301e+07
1.95311e+07
1.95321e+07
1.9533e+07
1.95339e+07
1.95348e+07
1.95357e+07
1.95365e+07
1.95374e+07
1.95382e+07
1.9539e+07
1.95398e+07
1.95406e+07
1.95413e+07
1.9542e+07
1.95428e+07
1.95434e+07
1.95441e+07
1.95448e+07
1.95454e+07
1.95461e+07
1.95467e+07
1.95473e+07
1.95478e+07
1.95484e+07
1.9549e+07
1.95495e+07
1.955e+07
1.95505e+07
1.9551e+07
1.95515e+07
1.9552e+07
1.95525e+07
1.95529e+07
1.95533e+07
1.95538e+07
1.95542e+07
1.95546e+07
1.9555e+07
1.95554e+07
1.95558e+07
1.95562e+07
1.95566e+07
1.9557e+07
1.95574e+07
1.95579e+07
1.95584e+07
1.95588e+07
1.9559e+07
1.95591e+07
1.9559e+07
1.95593e+07
1.95597e+07
1.95601e+07
1.95605e+07
1.95609e+07
1.95613e+07
1.95617e+07
1.95621e+07
1.95625e+07
1.95628e+07
1.95631e+07
1.95634e+07
1.95637e+07
1.9564e+07
1.95643e+07
1.95646e+07
1.9565e+07
1.95652e+07
1.95655e+07
1.95658e+07
1.9566e+07
1.95663e+07
1.95665e+07
1.95667e+07
1.95669e+07
1.9567e+07
1.95672e+07
1.95674e+07
1.95675e+07
1.95677e+07
1.95678e+07
1.9568e+07
1.95681e+07
1.95683e+07
1.95684e+07
1.95685e+07
1.95687e+07
1.95688e+07
1.95689e+07
1.9569e+07
1.95692e+07
1.95693e+07
1.95694e+07
1.95695e+07
1.95696e+07
1.95697e+07
1.95698e+07
1.95699e+07
1.957e+07
1.95701e+07
1.95702e+07
1.95703e+07
1.95704e+07
1.95705e+07
1.95705e+07
1.95706e+07
1.95707e+07
1.95708e+07
1.95709e+07
1.9571e+07
1.95711e+07
1.95712e+07
1.95714e+07
1.95715e+07
1.95716e+07
1.95717e+07
1.95718e+07
1.95719e+07
1.9572e+07
1.95721e+07
1.95723e+07
1.95724e+07
1.95725e+07
1.95726e+07
1.95727e+07
1.95728e+07
1.95729e+07
1.95729e+07
1.9573e+07
1.95731e+07
1.95731e+07
1.95732e+07
1.95733e+07
1.95733e+07
1.95733e+07
1.95734e+07
1.95734e+07
1.95735e+07
1.95735e+07
1.95735e+07
1.95736e+07
1.95736e+07
1.95736e+07
1.95736e+07
1.95737e+07
1.95737e+07
1.95737e+07
1.95738e+07
1.95738e+07
1.95738e+07
1.95739e+07
1.95739e+07
1.95739e+07
1.9574e+07
1.9574e+07
1.9574e+07
1.95739e+07
1.95739e+07
1.95739e+07
1.95739e+07
1.95739e+07
1.95739e+07
1.95739e+07
1.95738e+07
1.95738e+07
1.95738e+07
1.95738e+07
1.95738e+07
1.95738e+07
1.95737e+07
1.95737e+07
1.95737e+07
1.95737e+07
1.95737e+07
1.95737e+07
1.9574e+07
1.9574e+07
1.9574e+07
1.9574e+07
1.95739e+07
1.95739e+07
1.95739e+07
1.95739e+07
1.95739e+07
1.95739e+07
1.95739e+07
1.95738e+07
1.95738e+07
1.95738e+07
1.95738e+07
1.95738e+07
1.95738e+07
1.95738e+07
1.95738e+07
1.95738e+07
1.9574e+07
1.9574e+07
1.9574e+07
1.9574e+07
1.9574e+07
1.9574e+07
1.9574e+07
1.9574e+07
1.9574e+07
1.9574e+07
1.9574e+07
1.95739e+07
1.95739e+07
1.95739e+07
1.95739e+07
1.95739e+07
1.95738e+07
1.95738e+07
1.95738e+07
1.95739e+07
1.9574e+07
1.9574e+07
1.95741e+07
1.95741e+07
1.95741e+07
1.95741e+07
1.95741e+07
1.95741e+07
1.95741e+07
1.95741e+07
1.95742e+07
1.95743e+07
1.95743e+07
1.95745e+07
1.95745e+07
1.95744e+07
1.95741e+07
1.95741e+07
1.95741e+07
1.95741e+07
1.9574e+07
1.9574e+07
1.95741e+07
1.95741e+07
1.95741e+07
1.95741e+07
1.95741e+07
1.95741e+07
1.95741e+07
1.95741e+07
1.95742e+07
1.95743e+07
1.95744e+07
1.95745e+07
1.95746e+07
1.95745e+07
1.95742e+07
1.95742e+07
1.95742e+07
1.95742e+07
1.95737e+07
1.95737e+07
1.95735e+07
1.95735e+07
1.95735e+07
1.95735e+07
1.95734e+07
1.95733e+07
1.95733e+07
1.95734e+07
1.95733e+07
1.95732e+07
1.95733e+07
1.95735e+07
1.95735e+07
1.95732e+07
1.95731e+07
1.95734e+07
1.95737e+07
1.95736e+07
1.95732e+07
1.95727e+07
1.95728e+07
1.95733e+07
1.95735e+07
1.95733e+07
1.95728e+07
1.95722e+07
1.95721e+07
1.95727e+07
1.95731e+07
1.95729e+07
1.95725e+07
1.95719e+07
1.95711e+07
1.95702e+07
1.95695e+07
1.95698e+07
1.95702e+07
1.95705e+07
1.95706e+07
1.95707e+07
1.95708e+07
1.95708e+07
1.95709e+07
1.95709e+07
1.95709e+07
1.95709e+07
1.95709e+07
1.95709e+07
1.95709e+07
1.95709e+07
1.95709e+07
1.95708e+07
1.95708e+07
1.95708e+07
1.95707e+07
1.95707e+07
1.95707e+07
1.95706e+07
1.95706e+07
1.95706e+07
1.95705e+07
1.95705e+07
1.95704e+07
1.95704e+07
1.95704e+07
1.95704e+07
1.95704e+07
1.95706e+07
1.95709e+07
1.95714e+07
1.95717e+07
1.95718e+07
1.95715e+07
1.95707e+07
1.957e+07
1.95691e+07
1.9569e+07
1.95694e+07
1.95697e+07
1.957e+07
1.95702e+07
1.95704e+07
1.95705e+07
1.95706e+07
1.95707e+07
1.95708e+07
1.9571e+07
1.95712e+07
1.95714e+07
1.95717e+07
1.95719e+07
1.95721e+07
1.95722e+07
1.95723e+07
1.95724e+07
1.95726e+07
1.95727e+07
1.95725e+07
1.95737e+07
1.95737e+07
1.95735e+07
1.95735e+07
1.95735e+07
1.95735e+07
1.95734e+07
1.95733e+07
1.95733e+07
1.95734e+07
1.95733e+07
1.95731e+07
1.95733e+07
1.95735e+07
1.95735e+07
1.95732e+07
1.95731e+07
1.95734e+07
1.95737e+07
1.95736e+07
1.95732e+07
1.95727e+07
1.95728e+07
1.95733e+07
1.95735e+07
1.95733e+07
1.95728e+07
1.95722e+07
1.95721e+07
1.95727e+07
1.95731e+07
1.95729e+07
1.95725e+07
1.95719e+07
1.95711e+07
1.95702e+07
1.95695e+07
1.95698e+07
1.95702e+07
1.95705e+07
1.95706e+07
1.95707e+07
1.95708e+07
1.95708e+07
1.95709e+07
1.95709e+07
1.95709e+07
1.95709e+07
1.95709e+07
1.95709e+07
1.95709e+07
1.95709e+07
1.95709e+07
1.95708e+07
1.95708e+07
1.95708e+07
1.95707e+07
1.95707e+07
1.95707e+07
1.95706e+07
1.95706e+07
1.95706e+07
1.95705e+07
1.95705e+07
1.95704e+07
1.95704e+07
1.95704e+07
1.95704e+07
1.95704e+07
1.95706e+07
1.95709e+07
1.95714e+07
1.95717e+07
1.95718e+07
1.95715e+07
1.95708e+07
1.957e+07
1.95691e+07
1.9569e+07
1.95694e+07
1.95698e+07
1.957e+07
1.95702e+07
1.95704e+07
1.95705e+07
1.95706e+07
1.95707e+07
1.95708e+07
1.9571e+07
1.95712e+07
1.95714e+07
1.95717e+07
1.95719e+07
1.95721e+07
1.95722e+07
1.95723e+07
1.95724e+07
1.95726e+07
1.95727e+07
1.95725e+07
1.95739e+07
1.95739e+07
1.95737e+07
1.95737e+07
1.95738e+07
1.95739e+07
1.95738e+07
1.95736e+07
1.95735e+07
1.95738e+07
1.95738e+07
1.95734e+07
1.95733e+07
1.95736e+07
1.9574e+07
1.95735e+07
1.9573e+07
1.95731e+07
1.95736e+07
1.95739e+07
1.95736e+07
1.95726e+07
1.95725e+07
1.95729e+07
1.95735e+07
1.95736e+07
1.95733e+07
1.95722e+07
1.95718e+07
1.95722e+07
1.9573e+07
1.95733e+07
1.95731e+07
1.95728e+07
1.95715e+07
1.957e+07
1.95695e+07
1.95698e+07
1.95703e+07
1.95708e+07
1.95711e+07
1.95713e+07
1.95713e+07
1.95714e+07
1.95713e+07
1.95713e+07
1.95713e+07
1.95712e+07
1.95712e+07
1.95712e+07
1.95711e+07
1.95711e+07
1.9571e+07