/*--------------------------------*- C++ -*----------------------------------*\
| =========                 |                                                 |
| \\      /  F ield         | OpenFOAM: The Open Source CFD Toolbox           |
|  \\    /   O peration     | Version:  3.0.x                                 |
|   \\  /    A nd           | Web:      www.OpenFOAM.org                      |
|    \\/     M anipulation  |                                                 |
\*---------------------------------------------------------------------------*/
FoamFile
{
    version     2.0;
    format      ascii;
    class       volScalarField;
    location    "0.55";
    object      rho;
}
// * * * * * * * * * * * * * * * * * * * * * * * * * * * * * * * * * * * * * //

dimensions      [1 -3 0 0 0 0 0];

internalField   nonuniform List<scalar> 
6900
(
52.3641
52.367
52.3713
52.3754
52.3791
52.3825
52.3859
52.389
52.3919
52.3946
52.3975
52.4003
52.403
52.4058
52.4087
52.4117
52.4149
52.4181
52.4215
52.425
52.4287
52.4325
52.4364
52.4404
52.4446
52.4489
52.4533
52.4578
52.4625
52.4673
52.4722
52.4772
52.4824
52.4876
52.493
52.4985
52.504
52.5097
52.5155
52.5214
52.5274
52.5334
52.5396
52.5458
52.5521
52.5585
52.565
52.5717
52.5784
52.5853
52.5923
52.5994
52.6065
52.6136
52.6208
52.6281
52.6354
52.6428
52.6504
52.658
52.6657
52.6735
52.6815
52.6895
52.6977
52.7059
52.7142
52.7225
52.7308
52.7391
52.7475
52.7559
52.7644
52.7731
52.7818
52.7906
52.7994
52.8083
52.8173
52.8262
52.8352
52.8443
52.8533
52.8624
52.8715
52.8807
52.8899
52.8991
52.9083
52.9176
52.9269
52.9363
52.9457
52.9551
52.9645
52.974
52.9835
52.993
53.0026
53.0121
53.0217
53.0313
53.0409
53.0506
53.0602
53.0699
53.0795
53.0892
53.0989
53.1086
53.1183
53.1279
53.1376
53.1473
53.157
53.1667
53.1764
53.186
53.1957
53.2053
53.215
53.2246
53.2342
53.2438
53.2534
53.2629
53.2725
53.282
53.2915
53.301
53.3104
53.3199
53.3293
53.3387
53.348
53.3574
53.3667
53.3759
53.3852
53.3944
53.4036
53.4128
53.4219
53.431
53.4401
53.4491
53.4582
53.4671
53.476
53.4849
53.4938
53.5026
53.5114
53.5201
53.5288
53.5374
53.546
53.5545
53.563
53.5714
53.5798
53.5882
53.5965
53.6047
53.6129
53.621
53.6291
53.6371
53.645
53.6529
53.6607
53.6685
53.6762
53.6839
53.6914
53.699
53.7064
53.7138
53.7211
53.7284
53.7356
53.7426
53.7498
53.7567
53.7638
53.7704
53.7775
53.7838
53.7909
53.797
53.804
53.8099
53.8168
53.8226
53.8293
53.8351
53.8412
53.8476
53.8529
53.8589
52.3644
52.3673
52.3716
52.3757
52.3793
52.3828
52.3862
52.3893
52.3921
52.3949
52.3977
52.4005
52.4033
52.4061
52.409
52.412
52.4151
52.4184
52.4218
52.4253
52.4289
52.4327
52.4366
52.4407
52.4448
52.4491
52.4535
52.4581
52.4627
52.4675
52.4724
52.4774
52.4826
52.4878
52.4932
52.4987
52.5043
52.51
52.5157
52.5216
52.5276
52.5337
52.5398
52.5461
52.5524
52.5588
52.5652
52.5719
52.5786
52.5855
52.5925
52.5996
52.6067
52.6139
52.621
52.6283
52.6356
52.643
52.6506
52.6582
52.6659
52.6737
52.6817
52.6897
52.6979
52.7061
52.7144
52.7226
52.7309
52.7393
52.7476
52.7561
52.7646
52.7732
52.7819
52.7907
52.7996
52.8085
52.8174
52.8264
52.8354
52.8444
52.8535
52.8626
52.8717
52.8808
52.89
52.8992
52.9085
52.9178
52.9271
52.9365
52.9458
52.9552
52.9647
52.9742
52.9837
52.9932
53.0027
53.0123
53.0219
53.0315
53.0411
53.0507
53.0604
53.07
53.0797
53.0894
53.099
53.1087
53.1184
53.1281
53.1378
53.1475
53.1572
53.1669
53.1765
53.1862
53.1959
53.2055
53.2151
53.2248
53.2344
53.244
53.2535
53.2631
53.2726
53.2822
53.2917
53.3011
53.3106
53.32
53.3294
53.3388
53.3482
53.3575
53.3668
53.3761
53.3854
53.3946
53.4038
53.413
53.4221
53.4312
53.4403
53.4493
53.4583
53.4673
53.4762
53.4851
53.4939
53.5028
53.5115
53.5202
53.5289
53.5376
53.5461
53.5547
53.5632
53.5716
53.58
53.5883
53.5966
53.6049
53.613
53.6212
53.6292
53.6372
53.6452
53.6531
53.6609
53.6687
53.6764
53.684
53.6916
53.6991
53.7066
53.7139
53.7213
53.7285
53.7358
53.7428
53.75
53.7568
53.7639
53.7705
53.7776
53.784
53.7911
53.7971
53.8042
53.81
53.817
53.8227
53.8295
53.8351
53.8417
53.8472
53.8536
53.859
52.3644
52.3673
52.3716
52.3757
52.3793
52.3828
52.3861
52.3893
52.3921
52.3949
52.3977
52.4005
52.4033
52.4061
52.409
52.412
52.4151
52.4184
52.4218
52.4253
52.4289
52.4327
52.4366
52.4407
52.4448
52.4491
52.4535
52.4581
52.4627
52.4675
52.4724
52.4774
52.4826
52.4878
52.4932
52.4987
52.5043
52.5099
52.5157
52.5216
52.5276
52.5337
52.5398
52.5461
52.5524
52.5587
52.5652
52.5719
52.5786
52.5855
52.5925
52.5996
52.6067
52.6138
52.621
52.6283
52.6356
52.643
52.6505
52.6582
52.6659
52.6737
52.6817
52.6897
52.6979
52.7061
52.7144
52.7226
52.7309
52.7393
52.7476
52.7561
52.7646
52.7732
52.7819
52.7907
52.7996
52.8085
52.8174
52.8264
52.8354
52.8444
52.8535
52.8626
52.8717
52.8808
52.89
52.8992
52.9085
52.9178
52.9271
52.9365
52.9458
52.9552
52.9647
52.9742
52.9837
52.9932
53.0027
53.0123
53.0219
53.0315
53.0411
53.0507
53.0604
53.07
53.0797
53.0894
53.099
53.1087
53.1184
53.1281
53.1378
53.1475
53.1572
53.1669
53.1765
53.1862
53.1959
53.2055
53.2151
53.2248
53.2344
53.244
53.2535
53.2631
53.2726
53.2822
53.2917
53.3011
53.3106
53.32
53.3294
53.3388
53.3482
53.3575
53.3668
53.3761
53.3854
53.3946
53.4038
53.413
53.4221
53.4312
53.4403
53.4493
53.4583
53.4673
53.4762
53.4851
53.4939
53.5028
53.5115
53.5202
53.5289
53.5376
53.5461
53.5547
53.5632
53.5716
53.58
53.5883
53.5966
53.6049
53.613
53.6212
53.6292
53.6372
53.6452
53.6531
53.6609
53.6687
53.6764
53.684
53.6916
53.6991
53.7066
53.7139
53.7213
53.7285
53.7357
53.7428
53.7499
53.7569
53.7639
53.7706
53.7775
53.7841
53.7908
53.7974
53.8039
53.8103
53.8168
53.8229
53.8293
53.8354
53.8414
53.8474
53.8535
53.8592
52.3644
52.3673
52.3716
52.3757
52.3793
52.3828
52.3862
52.3893
52.3921
52.3949
52.3977
52.4005
52.4033
52.4061
52.409
52.412
52.4151
52.4184
52.4218
52.4253
52.4289
52.4327
52.4366
52.4407
52.4448
52.4491
52.4535
52.4581
52.4627
52.4675
52.4724
52.4774
52.4826
52.4878
52.4932
52.4987
52.5043
52.51
52.5157
52.5216
52.5276
52.5337
52.5398
52.5461
52.5524
52.5588
52.5652
52.5719
52.5786
52.5855
52.5925
52.5996
52.6067
52.6139
52.621
52.6283
52.6356
52.643
52.6506
52.6582
52.6659
52.6737
52.6817
52.6897
52.6979
52.7061
52.7144
52.7226
52.7309
52.7393
52.7476
52.7561
52.7646
52.7732
52.7819
52.7907
52.7996
52.8085
52.8174
52.8264
52.8354
52.8444
52.8535
52.8626
52.8717
52.8808
52.89
52.8992
52.9085
52.9178
52.9271
52.9365
52.9458
52.9552
52.9647
52.9742
52.9837
52.9932
53.0027
53.0123
53.0219
53.0315
53.0411
53.0507
53.0604
53.07
53.0797
53.0894
53.099
53.1087
53.1184
53.1281
53.1378
53.1475
53.1572
53.1669
53.1765
53.1862
53.1959
53.2055
53.2151
53.2248
53.2344
53.244
53.2535
53.2631
53.2726
53.2822
53.2917
53.3011
53.3106
53.32
53.3294
53.3388
53.3482
53.3575
53.3668
53.3761
53.3854
53.3946
53.4038
53.413
53.4221
53.4312
53.4403
53.4493
53.4583
53.4673
53.4762
53.4851
53.4939
53.5028
53.5115
53.5202
53.5289
53.5376
53.5461
53.5547
53.5632
53.5716
53.58
53.5883
53.5966
53.6049
53.613
53.6212
53.6292
53.6372
53.6452
53.6531
53.6609
53.6687
53.6764
53.684
53.6916
53.6991
53.7066
53.714
53.7213
53.7286
53.7357
53.7429
53.7498
53.757
53.7637
53.7708
53.7773
53.7844
53.7906
53.7977
53.8036
53.8106
53.8164
53.8233
53.8289
53.8357
53.8412
53.8477
53.8535
53.8588
52.3641
52.367
52.3713
52.3754
52.3791
52.3825
52.3859
52.389
52.3919
52.3946
52.3975
52.4003
52.403
52.4058
52.4087
52.4117
52.4149
52.4181
52.4215
52.425
52.4287
52.4325
52.4364
52.4404
52.4446
52.4489
52.4533
52.4578
52.4625
52.4673
52.4722
52.4772
52.4824
52.4876
52.493
52.4985
52.504
52.5097
52.5155
52.5214
52.5274
52.5334
52.5396
52.5458
52.5521
52.5585
52.565
52.5717
52.5784
52.5853
52.5923
52.5994
52.6065
52.6136
52.6208
52.6281
52.6354
52.6428
52.6504
52.658
52.6657
52.6735
52.6815
52.6895
52.6977
52.7059
52.7142
52.7225
52.7308
52.7391
52.7475
52.7559
52.7644
52.7731
52.7818
52.7906
52.7994
52.8083
52.8173
52.8262
52.8352
52.8443
52.8533
52.8624
52.8715
52.8807
52.8899
52.8991
52.9083
52.9176
52.9269
52.9363
52.9457
52.9551
52.9645
52.974
52.9835
52.993
53.0026
53.0121
53.0217
53.0313
53.0409
53.0506
53.0602
53.0699
53.0795
53.0892
53.0989
53.1086
53.1183
53.1279
53.1376
53.1473
53.157
53.1667
53.1764
53.186
53.1957
53.2053
53.215
53.2246
53.2342
53.2438
53.2534
53.2629
53.2725
53.282
53.2915
53.301
53.3104
53.3199
53.3293
53.3387
53.348
53.3574
53.3667
53.3759
53.3852
53.3944
53.4036
53.4128
53.4219
53.431
53.4401
53.4491
53.4582
53.4671
53.476
53.4849
53.4938
53.5026
53.5114
53.5201
53.5288
53.5374
53.546
53.5545
53.563
53.5714
53.5798
53.5882
53.5965
53.6047
53.6129
53.621
53.6291
53.6371
53.645
53.6529
53.6607
53.6685
53.6762
53.6839
53.6914
53.699
53.7064
53.7138
53.7211
53.7284
53.7355
53.7427
53.7497
53.7568
53.7635
53.7707
53.7771
53.7842
53.7904
53.7975
53.8035
53.8105
53.8162
53.8231
53.8288
53.8355
53.841
53.8475
53.8537
53.8582
53.8626
53.864
53.8652
53.8662
53.8672
53.8684
53.8696
53.871
53.8722
53.8728
53.873
53.8731
53.8728
53.8732
53.8744
53.877
53.8798
53.8821
53.8841
53.8851
53.8624
53.8637
53.8649
53.8659
53.8669
53.868
53.8694
53.8709
53.872
53.8725
53.8727
53.8734
53.8736
53.8739
53.8751
53.8777
53.8801
53.8819
53.8833
53.8834
53.8626
53.8636
53.8646
53.8657
53.8666
53.8675
53.8684
53.8692
53.8699
53.8707
53.8716
53.8721
53.8725
53.873
53.8735
53.8734
53.8732
53.8736
53.8736
53.8737
53.863
53.8639
53.8649
53.8658
53.8667
53.8676
53.8685
53.8693
53.8702
53.871
53.8718
53.8725
53.8733
53.8742
53.875
53.8758
53.8763
53.8768
53.8771
53.8775
53.8619
53.8627
53.8636
53.8646
53.8655
53.8664
53.8673
53.8681
53.869
53.8698
53.8706
53.8714
53.8722
53.873
53.8739
53.8747
53.8755
53.8761
53.8768
53.8774
53.8767
53.883
53.8904
53.8959
53.8952
53.8977
53.9043
53.9119
53.9102
53.9126
53.9202
53.9284
53.9255
53.9267
53.9313
53.9439
53.9513
53.9434
53.9432
53.9476
53.9532
53.9728
53.9718
53.9614
53.962
53.967
53.9748
53.9848
53.9794
53.9771
53.9795
53.9823
53.9849
53.9875
53.9901
53.9926
53.9953
53.9983
54.0022
54.011
54.0206
54.0138
54.0109
54.0127
54.0148
54.0169
54.019
54.0211
54.0232
54.0252
54.0272
54.0292
54.0311
54.033
54.0349
54.0367
54.0385
54.0402
54.0419
54.0435
54.0451
54.0466
54.0481
54.0495
54.051
54.0524
54.0538
54.0551
54.0564
54.0578
54.059
54.0603
54.0615
54.0626
54.0638
54.0649
54.066
54.067
54.068
54.069
54.0699
54.0708
54.0717
54.0725
54.0733
54.074
54.0748
54.0756
54.0766
54.0776
54.0789
54.0804
54.0853
54.0896
54.0856
54.0816
54.0816
54.0827
54.0836
54.0846
54.0857
54.0866
54.087
54.0878
54.0889
54.09
54.0908
54.0904
54.0906
54.0914
54.0927
54.0936
54.0925
54.0875
54.0858
54.0865
54.0896
54.0959
54.1005
54.1028
54.1035
54.1034
54.1031
54.1032
54.1033
54.1035
54.1037
54.104
54.1043
54.1045
54.1048
54.1051
54.1054
54.1057
54.106
54.1062
54.1065
54.1068
54.107
54.1073
54.1075
54.1077
54.108
54.1082
54.1084
54.1086
54.1088
54.109
54.1092
54.1094
54.1097
54.1099
54.1101
54.1103
54.1106
54.1108
54.111
54.1113
54.1115
54.1118
54.1121
54.1123
54.1126
54.1129
54.1131
54.1134
54.1136
54.1139
54.1141
54.1143
54.1146
54.1148
54.1149
54.1151
54.1153
54.1154
54.1155
54.1157
54.1157
54.1159
54.1159
54.1161
54.1161
54.1163
54.1162
54.1164
54.1164
54.1166
54.1165
54.1167
54.1167
54.1169
54.1168
54.117
54.117
54.1171
54.1172
54.1171
54.1174
54.1174
53.8764
53.883
53.8868
53.8916
53.8927
53.896
53.8998
53.9043
53.9051
53.9091
53.9144
53.9202
53.919
53.9227
53.9277
53.9353
53.9417
53.9368
53.9397
53.9448
53.9474
53.9626
53.9626
53.9563
53.9593
53.9645
53.9698
53.9781
53.9745
53.9747
53.9778
53.9809
53.9835
53.9862
53.9888
53.9913
53.9941
53.9973
54.0014
54.0067
54.0146
54.0095
54.0088
54.0112
54.0136
54.0157
54.0179
54.02
54.0221
54.0241
54.0262
54.0282
54.0301
54.032
54.0338
54.0356
54.0374
54.0391
54.0407
54.0423
54.0439
54.0455
54.047
54.0485
54.0499
54.0514
54.0528
54.0542
54.0555
54.0569
54.0581
54.0594
54.0606
54.0617
54.0629
54.064
54.065
54.066
54.067
54.0679
54.0688
54.0697
54.0704
54.0712
54.0721
54.073
54.0738
54.0745
54.0751
54.0757
54.0764
54.0776
54.0825
54.0869
54.0832
54.0797
54.0801
54.0813
54.0822
54.0828
54.0835
54.0846
54.0858
54.0868
54.0867
54.0867
54.0876
54.0887
54.0899
54.0904
54.0882
54.0842
54.0829
54.0835
54.0851
54.0897
54.0953
54.0995
54.1019
54.1028
54.103
54.1028
54.1029
54.1031
54.1033
54.1035
54.1038
54.1041
54.1044
54.1047
54.105
54.1053
54.1055
54.1058
54.1061
54.1064
54.1067
54.1069
54.1072
54.1074
54.1076
54.1079
54.1081
54.1083
54.1085
54.1087
54.109
54.1092
54.1094
54.1096
54.1098
54.11
54.1102
54.1105
54.1107
54.1109
54.1112
54.1114
54.1117
54.1119
54.1122
54.1125
54.1127
54.113
54.1133
54.1135
54.1138
54.114
54.1143
54.1145
54.1147
54.1149
54.1151
54.1153
54.1154
54.1156
54.1157
54.1158
54.1159
54.1161
54.1161
54.1162
54.1162
54.1164
54.1164
54.1166
54.1165
54.1167
54.1166
54.1169
54.1168
54.117
54.1169
54.1171
54.1171
54.1173
54.1173
54.1174
54.1176
54.1173
53.8728
53.8753
53.8764
53.8774
53.8793
53.8814
53.8832
53.885
53.8878
53.8907
53.8933
53.896
53.8998
53.9034
53.9068
53.9091
53.9121
53.9165
53.9203
53.924
53.927
53.9281
53.9314
53.9361
53.9397
53.9434
53.9459
53.948
53.952
53.9556
53.9589
53.962
53.965
53.9679
53.9706
53.9733
53.9758
53.9782
53.9811
53.9824
53.9834
53.9878
53.9908
53.9935
53.996
53.9985
54.0008
54.0031
54.0053
54.0075
54.0096
54.0116
54.0135
54.0154
54.0172
54.019
54.0207
54.0224
54.024
54.0256
54.0272
54.0288
54.0303
54.0318
54.0332
54.0346
54.0359
54.0372
54.0384
54.0396
54.0407
54.0417
54.0427
54.0435
54.0444
54.0453
54.0461
54.0468
54.0474
54.0483
54.0495
54.0517
54.0543
54.0574
54.0613
54.0649
54.068
54.0708
54.0733
54.0753
54.0769
54.0785
54.0791
54.079
54.0796
54.0804
54.0812
54.0819
54.0827
54.0835
54.0844
54.0853
54.0863
54.0873
54.0883
54.0892
54.0902
54.0911
54.0921
54.0931
54.094
54.095
54.096
54.097
54.0979
54.0987
54.0994
54.1
54.1006
54.101
54.1014
54.1018
54.1022
54.1025
54.1029
54.1033
54.1036
54.1039
54.1043
54.1046
54.1049
54.1052
54.1055
54.1058
54.1061
54.1064
54.1066
54.1069
54.1072
54.1074
54.1076
54.1079
54.1081
54.1083
54.1085
54.1087
54.109
54.1092
54.1094
54.1096
54.1098
54.11
54.1102
54.1105
54.1107
54.1109
54.1112
54.1114
54.1117
54.1119
54.1122
54.1125
54.1127
54.113
54.1133
54.1135
54.1138
54.114
54.1143
54.1145
54.1147
54.1149
54.1151
54.1152
54.1154
54.1155
54.1157
54.1158
54.1159
54.116
54.1161
54.1162
54.1163
54.1164
54.1164
54.1165
54.1166
54.1166
54.1168
54.1167
54.1169
54.1169
54.117
54.1171
54.1171
54.1172
54.1173
54.1173
54.1174
54.1174
53.8791
53.8825
53.8859
53.8895
53.8928
53.8957
53.8983
53.9016
53.9054
53.9089
53.9117
53.9148
53.9186
53.9225
53.9256
53.9284
53.9315
53.9353
53.9395
53.9428
53.9452
53.9476
53.9505
53.9542
53.9581
53.9613
53.964
53.9665
53.9694
53.9727
53.9759
53.9789
53.9818
53.9848
53.9877
53.9906
53.9936
53.9966
53.9993
54.0015
54.0032
54.0057
54.0085
54.0111
54.0135
54.0158
54.0181
54.0202
54.0224
54.0244
54.0265
54.0285
54.0304
54.0324
54.0342
54.0361
54.0378
54.0396
54.0413
54.043
54.0446
54.0461
54.0476
54.0491
54.0506
54.0519
54.0533
54.0546
54.0559
54.0572
54.0584
54.0596
54.0608
54.062
54.0631
54.0642
54.0653
54.0663
54.0674
54.0684
54.0693
54.0703
54.0713
54.0722
54.0731
54.074
54.0751
54.0761
54.0771
54.0782
54.0794
54.0802
54.0802
54.0796
54.0792
54.0801
54.0812
54.082
54.0825
54.083
54.0835
54.0841
54.0841
54.0836
54.0835
54.0838
54.0836
54.0822
54.0813
54.0818
54.083
54.0855
54.0903
54.0949
54.0984
54.1006
54.1016
54.1018
54.1018
54.1019
54.1021
54.1023
54.1026
54.1028
54.1031
54.1034
54.1037
54.104
54.1043
54.1046
54.1049
54.1052
54.1055
54.1058
54.1061
54.1064
54.1067
54.1069
54.1072
54.1074
54.1076
54.1079
54.1081
54.1083
54.1085
54.1087
54.109
54.1092
54.1094
54.1096
54.1098
54.11
54.1102
54.1105
54.1107
54.1109
54.1112
54.1114
54.1117
54.1119
54.1122
54.1125
54.1127
54.113
54.1133
54.1135
54.1138
54.114
54.1143
54.1145
54.1147
54.1149
54.1151
54.1152
54.1154
54.1155
54.1157
54.1158
54.1159
54.116
54.1162
54.1162
54.1163
54.1163
54.1165
54.1164
54.1166
54.1166
54.1168
54.1167
54.1169
54.1169
54.1171
54.117
54.1172
54.1172
54.1173
54.1173
54.1175
54.1175
53.8803
53.8854
53.889
53.892
53.8952
53.8984
53.9013
53.9038
53.9068
53.91
53.9127
53.9151
53.918
53.9215
53.9246
53.927
53.9291
53.9321
53.9357
53.9391
53.9415
53.9432
53.9452
53.9484
53.952
53.9553
53.9579
53.9601
53.9627
53.9657
53.9687
53.9716
53.9744
53.9772
53.98
53.9828
53.9856
53.9885
53.9914
53.9935
53.995
53.9973
53.9999
54.0024
54.0047
54.007
54.0092
54.0114
54.0135
54.0156
54.0177
54.0197
54.0217
54.0236
54.0255
54.0273
54.0291
54.0308
54.0325
54.0341
54.0357
54.0373
54.0388
54.0403
54.0418
54.0432
54.0446
54.046
54.0474
54.0487
54.05
54.0512
54.0525
54.0537
54.0549
54.0561
54.0572
54.0582
54.0593
54.0604
54.0614
54.0623
54.0632
54.0642
54.0651
54.0659
54.0668
54.0676
54.0686
54.0697
54.0709
54.0719
54.072
54.0719
54.0718
54.073
54.0742
54.0746
54.0744
54.0754
54.0771
54.0783
54.0769
54.0718
54.0712
54.0728
54.0776
54.0835
54.0877
54.0909
54.0933
54.0951
54.0964
54.0973
54.0981
54.0988
54.0994
54.1
54.1004
54.1009
54.1013
54.1017
54.1021
54.1024
54.1028
54.1031
54.1035
54.1038
54.1041
54.1045
54.1048
54.1051
54.1054
54.1057
54.106
54.1062
54.1065
54.1068
54.107
54.1073
54.1075
54.1077
54.108
54.1082
54.1084
54.1086
54.1088
54.109
54.1092
54.1094
54.1097
54.1099
54.1101
54.1103
54.1106
54.1108
54.111
54.1113
54.1115
54.1118
54.1121
54.1123
54.1126
54.1129
54.1131
54.1134
54.1136
54.1139
54.1141
54.1143
54.1146
54.1148
54.115
54.1151
54.1153
54.1154
54.1156
54.1157
54.1158
54.1159
54.116
54.116
54.1162
54.1162
54.1164
54.1163
54.1165
54.1164
54.1167
54.1166
54.1168
54.1167
54.1169
54.117
54.117
54.1172
54.1171
54.1172
54.1174
54.1174
54.1173
54.1172
54.1171
54.117
54.117
54.1169
54.1169
54.1169
54.1169
54.117
54.117
54.1171
54.1172
54.1173
54.1173
54.1174
54.1174
54.1175
54.1175
54.1176
54.1173
54.1173
54.1173
54.1174
54.1174
54.1175
54.1175
54.1175
54.1176
54.1176
54.1178
54.1178
54.1177
54.1176
54.1176
54.1176
54.1176
54.1175
54.1174
54.1173
54.1175
54.1175
54.1175
54.1176
54.1176
54.1176
54.1176
54.1175
54.1173
54.1171
54.117
54.1168
54.1166
54.1164
54.1159
54.1154
54.1149
54.1147
54.1143
54.1141
54.1175
54.1175
54.1175
54.1175
54.1175
54.1175
54.1174
54.1173
54.1169
54.1168
54.1168
54.1172
54.1176
54.1179
54.118
54.1173
54.1165
54.1161
54.1155
54.1153
54.1173
54.1173
54.1173
54.1173
54.1173
54.1173
54.1172
54.1171
54.1169
54.1167
54.1167
54.1171
54.1175
54.1179
54.1182
54.1179
54.1171
54.1164
54.1151
54.115
54.1179
54.118
54.1178
54.1177
54.1174
54.1166
54.116
54.1155
54.1156
54.1153
54.1138
54.1127
54.1129
54.1132
54.1124
54.1102
54.1093
54.1102
54.1108
54.1099
54.1071
54.105
54.1055
54.1073
54.1079
54.1064
54.1035
54.1014
54.1016
54.1043
54.1057
54.1047
54.1022
54.1
54.0978
54.0963
54.0955
54.0965
54.0975
54.0979
54.0982
54.0984
54.0986
54.0987
54.0989
54.099
54.0991
54.0992
54.0993
54.0993
54.0994
54.0994
54.0994
54.0993
54.0993
54.0992
54.0992
54.0991
54.099
54.0989
54.0989
54.0988
54.0988
54.0987
54.0987
54.0986
54.0986
54.0987
54.0988
54.0992
54.1
54.1015
54.1031
54.1034
54.1018
54.0992
54.0971
54.0952
54.0956
54.0966
54.0974
54.0979
54.0984
54.0988
54.0989
54.0991
54.0995
54.0999
54.0998
54.0997
54.1003
54.1008
54.0972
54.0907
54.0911
54.0981
54.1036
54.1052
54.1054
54.1064
54.1161
54.1148
54.1141
54.1131
54.1107
54.1091
54.1088
54.1094
54.1095
54.1074
54.1065
54.1069
54.1081
54.1073
54.1056
54.1053
54.1072
54.1088
54.1081
54.1051
54.1039
54.1043
54.1071
54.1088
54.1073
54.104
54.1025
54.1022
54.105
54.1079
54.1079
54.1045
54.102
54.1005
54.1002
54.1011
54.1014
54.1029
54.104
54.1042
54.1044
54.1047
54.1049
54.1053
54.1056
54.1059
54.1061
54.1064
54.1066
54.1067
54.1069
54.107
54.1071
54.1071
54.1072
54.1072
54.1072
54.1072
54.1072
54.1072
54.1072
54.1071
54.107
54.1069
54.1068
54.1067
54.1067
54.1066
54.1067
54.107
54.1077
54.1089
54.1097
54.1087
54.1067
54.1046
54.1029
54.1013
54.1026
54.1042
54.1053
54.1057
54.1061
54.1065
54.1067
54.1067
54.1068
54.107
54.1072
54.1072
54.107
54.1071
54.107
54.1054
54.104
54.1041
54.1041
54.1028
54.1013
54.1019
54.112
54.108
54.1048
54.1026
54.1002
54.0978
54.0955
54.0937
54.0925
54.0913
54.0902
54.0895
54.0894
54.0889
54.0888
54.0882
54.0883
54.0883
54.0882
54.0881
54.0884
54.0876
54.0878
54.088
54.0879
54.0881
54.0886
54.0874
54.0874
54.0875
54.088
54.0876
54.0874
54.0871
54.0852
54.0839
54.0853
54.087
54.0885
54.0899
54.0908
54.0912
54.0915
54.0916
54.0916
54.0917
54.0916
54.0916
54.0915
54.0914
54.0914
54.0913
54.0912
54.0911
54.091
54.0908
54.0905
54.0903
54.0901
54.0899
54.0897
54.0894
54.0891
54.0889
54.0886
54.0883
54.0878
54.0874
54.0873
54.0875
54.0882
54.089
54.0906
54.0929
54.0952
54.0972
54.0977
54.0995
54.1022
54.1038
54.105
54.1058
54.1062
54.1062
54.1062
54.1061
54.1062
54.1063
54.1067
54.107
54.1077
54.1081
54.109
54.1096
54.1102
54.1109
54.1115
54.1121
54.1129
54.1137
54.1138
54.1119
54.1119
54.1118
54.1119
54.1076
54.1052
54.1058
54.1077
54.1074
54.104
54.1046
54.1049
54.1064
54.1008
54.1059
54.1021
54.1054
54.106
54.0993
54.1046
54.1049
54.1007
54.1061
54.1038
54.1003
54.1061
54.1081
54.0985
54.1043
54.1062
54.1028
54.1037
54.1111
54.1254
54.1289
54.1097
54.1045
54.1073
54.1088
54.109
54.1089
54.1087
54.1086
54.1085
54.1084
54.1084
54.1083
54.1082
54.1081
54.108
54.1079
54.1078
54.1077
54.1076
54.1074
54.1073
54.1071
54.1069
54.1068
54.1067
54.1065
54.1065
54.1064
54.1063
54.1062
54.1061
54.106
54.1059
54.1059
54.106
54.107
54.1089
54.107
54.1095
54.1202
54.1292
54.1202
54.1052
54.1036
54.1049
54.1053
54.1054
54.1054
54.1055
54.1057
54.1058
54.1061
54.1065
54.1069
54.1072
54.1077
54.1084
54.109
54.1092
54.1087
54.1086
54.109
54.1095
54.1095
54.1148
54.1155
54.1157
54.1136
54.1137
54.1141
54.115
54.1143
54.1114
54.1123
54.1157
54.1166
54.1117
54.1118
54.1131
54.1196
54.1135
54.1097
54.112
54.1131
54.1174
54.1165
54.1066
54.1081
54.1129
54.114
54.1176
54.1186
54.1054
54.1046
54.1115
54.1141
54.115
54.1207
54.1347
54.1378
54.1156
54.105
54.108
54.1099
54.1103
54.1101
54.1099
54.1097
54.1096
54.1095
54.1094
54.1093
54.1092
54.1091
54.109
54.1089
54.1088
54.1087
54.1086
54.1085
54.1083
54.1082
54.1081
54.1079
54.1078
54.1076
54.1075
54.1073
54.1072
54.1071
54.107
54.1069
54.1068
54.1067
54.1068
54.1075
54.1091
54.1114
54.1157
54.1252
54.1337
54.1247
54.1082
54.1053
54.1065
54.1068
54.1068
54.1067
54.1066
54.1068
54.107
54.1074
54.1079
54.1083
54.1088
54.1095
54.11
54.1103
54.1107
54.1112
54.1115
54.1118
54.1114
54.111
54.1041
54.1039
54.1041
54.1049
54.1057
54.1067
54.1082
54.1102
54.1123
54.1139
54.1144
54.1141
54.1146
54.1154
54.1161
54.1167
54.1171
54.1173
54.1175
54.1176
54.1001
54.0998
54.0998
54.1002
54.1007
54.1014
54.1023
54.1036
54.1052
54.1073
54.1088
54.1102
54.112
54.1134
54.1146
54.1159
54.1169
54.1173
54.1174
54.1167
54.1139
54.1134
54.1132
54.1132
54.1133
54.1135
54.1138
54.1141
54.1145
54.1148
54.115
54.1151
54.1151
54.1149
54.1146
54.1143
54.1139
54.1137
54.1139
54.1139
54.1087
54.1081
54.1069
54.1054
54.1039
54.1025
54.1014
54.1007
54.1002
54.0998
54.0994
54.099
54.0989
54.0989
54.0991
54.1
54.1022
54.1033
54.1067
54.1124
54.111
54.1111
54.111
54.111
54.1111
54.1113
54.1116
54.1121
54.1126
54.1125
54.111
54.1087
54.1063
54.1039
54.1017
54.0999
54.099
54.0992
54.1014
54.1092
54.118
54.1183
54.1182
54.1179
54.117
54.1166
54.1164
54.1164
54.1162
54.1151
54.1142
54.1142
54.1146
54.1145
54.1131
54.1115
54.1107
54.1113
54.1122
54.1124
54.1112
54.1092
54.1074
54.1071
54.1084
54.11
54.1106
54.1098
54.1082
54.1069
54.1058
54.1048
54.1039
54.1032
54.1018
54.1023
54.1037
54.1044
54.105
54.1055
54.106
54.1064
54.1068
54.1072
54.1076
54.108
54.1084
54.1088
54.1093
54.1098
54.1103
54.1109
54.1116
54.1126
54.1137
54.1153
54.1175
54.1195
54.1199
54.1196
54.1184
54.116
54.115
54.1173
54.1202
54.1208
54.1195
54.1175
54.1161
54.1151
54.1144
54.1153
54.1166
54.1177
54.1184
54.1191
54.12
54.1207
54.1215
54.1219
54.1223
54.1232
54.1225
54.1139
54.1122
54.122
54.1291
54.1322
54.1347
54.137
54.1389
54.1404
54.1415
54.1424
54.1431
54.1437
54.1443
54.1448
54.1453
54.1457
54.1462
54.1466
54.1471
54.1475
54.1479
54.1484
54.1488
54.1492
54.1497
54.1501
54.1505
54.1509
54.1514
54.1518
54.1522
54.1526
54.1531
54.1535
54.1539
54.1543
54.1548
54.1552
54.1556
54.156
54.1565
54.1569
54.1573
54.1578
54.1582
54.1586
54.1591
54.1595
54.16
54.1604
54.1608
54.1613
54.1617
54.1621
54.1626
54.163
54.1634
54.1638
54.1642
54.1646
54.165
54.1654
54.1658
54.1662
54.1665
54.1669
54.1673
54.1676
54.168
54.1683
54.1687
54.169
54.1693
54.1696
54.17
54.1703
54.1706
54.1709
54.1712
54.1715
54.1718
54.1721
54.1724
54.1727
54.173
54.1733
54.1736
54.1739
54.1742
54.1745
54.1748
54.1751
54.1754
54.1756
54.176
54.1762
54.1765
54.1767
54.177
54.1771
54.1775
54.1776
54.178
54.178
54.1784
54.1784
54.1788
54.1788
54.1791
54.1792
54.1793
54.1796
54.1795
54.1798
54.18
54.18
54.1154
54.1152
54.1146
54.1123
54.1098
54.1092
54.1096
54.1096
54.1074
54.1059
54.1065
54.108
54.1083
54.1058
54.1039
54.104
54.107
54.1093
54.1096
54.1069
54.1038
54.1027
54.1031
54.1067
54.11
54.1112
54.1096
54.1059
54.1038
54.1028
54.1023
54.103
54.1059
54.107
54.1064
54.1073
54.1085
54.1089
54.1093
54.1099
54.1105
54.1112
54.1119
54.1126
54.1133
54.1139
54.1146
54.1152
54.1159
54.1165
54.1172
54.1181
54.1189
54.1198
54.121
54.1226
54.124
54.1246
54.124
54.1214
54.1187
54.1179
54.1176
54.1206
54.1236
54.1238
54.1226
54.1212
54.1201
54.1198
54.1206
54.1226
54.1243
54.1254
54.1262
54.1269
54.1276
54.128
54.1285
54.1291
54.1294
54.1296
54.13
54.1293
54.127
54.127
54.1275
54.1275
54.1261
54.1257
54.1267
54.131
54.1389
54.1432
54.1447
54.1452
54.1453
54.1455
54.1458
54.1462
54.1465
54.1469
54.1473
54.1477
54.1481
54.1485
54.1489
54.1494
54.1498
54.1502
54.1506
54.1511
54.1515
54.1519
54.1523
54.1527
54.1532
54.1536
54.154
54.1544
54.1549
54.1553
54.1557
54.1561
54.1566
54.157
54.1574
54.1579
54.1583
54.1588
54.1592
54.1596
54.1601
54.1605
54.1609
54.1614
54.1618
54.1622
54.1627
54.1631
54.1635
54.1639
54.1643
54.1647
54.1651
54.1655
54.1659
54.1663
54.1666
54.167
54.1674
54.1677
54.1681
54.1684
54.1688
54.1691
54.1694
54.1697
54.1701
54.1704
54.1707
54.171
54.1713
54.1716
54.1719
54.1722
54.1725
54.1728
54.1731
54.1734
54.1737
54.174
54.1743
54.1746
54.1749
54.1752
54.1755
54.1757
54.176
54.1763
54.1766
54.1768
54.1771
54.1772
54.1776
54.1777
54.178
54.1781
54.1785
54.1785
54.1789
54.1789
54.1792
54.1792
54.1795
54.1795
54.1798
54.1798
54.18
54.1801
54.1117
54.108
54.105
54.1025
54.1
54.0975
54.0954
54.0939
54.0924
54.0914
54.0908
54.0906
54.0902
54.0897
54.0899
54.0905
54.0902
54.0901
54.09
54.0901
54.0908
54.0918
54.0917
54.0913
54.091
54.0913
54.0917
54.0921
54.0925
54.0926
54.0926
54.0925
54.0914
54.0897
54.09
54.0919
54.0935
54.0951
54.0965
54.0974
54.0981
54.0985
54.0989
54.0993
54.0997
54.1
54.1003
54.1006
54.1009
54.1012
54.1013
54.1017
54.1019
54.1019
54.1017
54.1017
54.1013
54.0996
54.0988
54.0992
54.1003
54.1013
54.1029
54.1054
54.109
54.1131
54.1164
54.1188
54.1199
54.12
54.1211
54.1226
54.1241
54.1253
54.1261
54.1266
54.127
54.1274
54.128
54.1286
54.1294
54.1303
54.1313
54.1323
54.1334
54.1343
54.1352
54.1359
54.1367
54.1376
54.1386
54.1396
54.1407
54.1417
54.1427
54.1437
54.1444
54.1449
54.1454
54.1458
54.1463
54.1467
54.1472
54.1476
54.148
54.1485
54.1489
54.1493
54.1498
54.1502
54.1506
54.151
54.1515
54.1519
54.1523
54.1527
54.1532
54.1536
54.154
54.1544
54.1549
54.1553
54.1557
54.1561
54.1566
54.157
54.1574
54.1579
54.1583
54.1588
54.1592
54.1596
54.1601
54.1605
54.1609
54.1614
54.1618
54.1622
54.1627
54.1631
54.1635
54.1639
54.1643
54.1647
54.1651
54.1655
54.1659
54.1663
54.1666
54.167
54.1674
54.1677
54.1681
54.1684
54.1688
54.1691
54.1694
54.1697
54.1701
54.1704
54.1707
54.171
54.1713
54.1716
54.1719
54.1722
54.1725
54.1728
54.1731
54.1734
54.1737
54.174
54.1743
54.1746
54.1749
54.1752
54.1755
54.1757
54.176
54.1763
54.1766
54.1768
54.1771
54.1773
54.1775
54.1778
54.178
54.1782
54.1784
54.1785
54.1788
54.1789
54.1791
54.1793
54.1794
54.1796
54.1798
54.1798
54.18
54.1801
54.1131
54.1115
54.1119
54.1128
54.1103
54.1047
54.1051
54.1074
54.1074
54.1009
54.1014
54.1021
54.1063
54.1017
54.0965
54.0994
54.0988
54.1034
54.1051
54.1008
54.097
54.0989
54.1011
54.0992
54.1034
54.1066
54.1054
54.1033
54.1021
54.1029
54.1054
54.1109
54.1223
54.131
54.1195
54.1087
54.1115
54.1147
54.1157
54.1161
54.1161
54.1163
54.1164
54.1166
54.1168
54.1171
54.1173
54.1176
54.118
54.1186
54.1201
54.1187
54.1184
54.1184
54.1188
54.1198
54.1228
54.119
54.1101
54.1071
54.1091
54.1141
54.1127
54.1147
54.1197
54.1225
54.1258
54.1328
54.1425
54.1445
54.1302
54.1217
54.1234
54.1252
54.126
54.1265
54.1269
54.1273
54.1279
54.1286
54.1293
54.1301
54.1311
54.1321
54.133
54.1333
54.1331
54.1333
54.134
54.1347
54.1348
54.1317
54.128
54.1276
54.1301
54.138
54.1441
54.1462
54.1466
54.1465
54.1467
54.147
54.1473
54.1477
54.1481
54.1485
54.1489
54.1494
54.1498
54.1502
54.1506
54.1511
54.1515
54.1519
54.1523
54.1527
54.1532
54.1536
54.154
54.1544
54.1549
54.1553
54.1557
54.1561
54.1566
54.157
54.1574
54.1579
54.1583
54.1588
54.1592
54.1596
54.1601
54.1605
54.1609
54.1614
54.1618
54.1622
54.1627
54.1631
54.1635
54.1639
54.1643
54.1647
54.1651
54.1655
54.1659
54.1663
54.1666
54.167
54.1674
54.1677
54.1681
54.1684
54.1688
54.1691
54.1694
54.1697
54.1701
54.1704
54.1707
54.171
54.1713
54.1716
54.1719
54.1722
54.1725
54.1728
54.1731
54.1734
54.1737
54.174
54.1743
54.1746
54.1749
54.1752
54.1755
54.1758
54.176
54.1763
54.1765
54.1769
54.177
54.1774
54.1775
54.1778
54.1779
54.1783
54.1783
54.1787
54.1787
54.179
54.179
54.1794
54.1794
54.1797
54.1797
54.1798
54.1802
54.18
54.1145
54.1153
54.1152
54.1151
54.1152
54.1141
54.1136
54.1116
54.112
54.1127
54.1138
54.11
54.111
54.1122
54.1111
54.1103
54.1079
54.1053
54.1095
54.1123
54.1096
54.1078
54.1091
54.1055
54.103
54.1073
54.1134
54.1133
54.111
54.111
54.1128
54.1178
54.129
54.1375
54.1236
54.1066
54.1093
54.1147
54.1167
54.1173
54.1174
54.1175
54.1176
54.1178
54.118
54.1182
54.1184
54.1186
54.1189
54.1195
54.1215
54.1197
54.1193
54.1194
54.1197
54.1205
54.1227
54.1257
54.1236
54.1175
54.1176
54.1222
54.1194
54.1152
54.1195
54.1267
54.1304
54.136
54.1451
54.1468
54.1324
54.1224
54.1244
54.1267
54.1275
54.1279
54.1281
54.1285
54.1292
54.1299
54.1307
54.1316
54.1325
54.1333
54.1341
54.1348
54.1355
54.1362
54.1367
54.1368
54.1371
54.1378
54.1383
54.1361
54.1309
54.1314