/*--------------------------------*- C++ -*----------------------------------*\
| =========                 |                                                 |
| \\      /  F ield         | OpenFOAM: The Open Source CFD Toolbox           |
|  \\    /   O peration     | Version:  3.0.x                                 |
|   \\  /    A nd           | Web:      www.OpenFOAM.org                      |
|    \\/     M anipulation  |                                                 |
\*---------------------------------------------------------------------------*/
FoamFile
{
    version     2.0;
    format      ascii;
    class       volVectorField;
    location    "0.55";
    object      U;
}
// * * * * * * * * * * * * * * * * * * * * * * * * * * * * * * * * * * * * * //

dimensions      [0 1 -1 0 0 0 0];

internalField   nonuniform List<vector> 
6900
(
(42.6062 9.90218e-05 0)
(42.3762 9.12122e-05 0)
(42.1077 8.94017e-05 0)
(41.8546 9.06933e-05 0)
(41.6138 9.17795e-05 0)
(41.3747 9.25425e-05 0)
(41.1338 9.3152e-05 0)
(40.8919 9.36329e-05 0)
(40.65 9.39996e-05 0)
(40.4082 9.42754e-05 0)
(40.1664 9.44906e-05 0)
(39.9245 9.46556e-05 0)
(39.6826 9.47629e-05 0)
(39.4407 9.48548e-05 0)
(39.1988 9.49235e-05 0)
(38.9569 9.49767e-05 0)
(38.715 9.50198e-05 0)
(38.473 9.50558e-05 0)
(38.2311 9.50869e-05 0)
(37.9891 9.51154e-05 0)
(37.7472 9.51413e-05 0)
(37.5052 9.5167e-05 0)
(37.2632 9.5191e-05 0)
(37.0213 9.52154e-05 0)
(36.7793 9.52396e-05 0)
(36.5372 9.52636e-05 0)
(36.2952 9.52882e-05 0)
(36.0532 9.53136e-05 0)
(35.8112 9.53379e-05 0)
(35.5691 9.53651e-05 0)
(35.3271 9.5391e-05 0)
(35.0851 9.54182e-05 0)
(34.8432 9.54474e-05 0)
(34.6013 9.54754e-05 0)
(34.3595 9.55069e-05 0)
(34.1177 9.55375e-05 0)
(33.876 9.557e-05 0)
(33.6345 9.5605e-05 0)
(33.3931 9.56398e-05 0)
(33.1519 9.56768e-05 0)
(32.9109 9.57183e-05 0)
(32.6701 9.57622e-05 0)
(32.4295 9.58082e-05 0)
(32.1892 9.58547e-05 0)
(31.9492 9.59019e-05 0)
(31.7095 9.5949e-05 0)
(31.4701 9.59983e-05 0)
(31.2311 9.60556e-05 0)
(30.9925 9.61188e-05 0)
(30.7543 9.61938e-05 0)
(30.5166 9.62725e-05 0)
(30.2793 9.63533e-05 0)
(30.0425 9.64332e-05 0)
(29.8061 9.65096e-05 0)
(29.5703 9.65834e-05 0)
(29.335 9.66587e-05 0)
(29.1002 9.67364e-05 0)
(28.866 9.68155e-05 0)
(28.6324 9.68953e-05 0)
(28.3994 9.6975e-05 0)
(28.1669 9.70533e-05 0)
(27.9351 9.71313e-05 0)
(27.7038 9.72103e-05 0)
(27.4732 9.72891e-05 0)
(27.2433 9.73609e-05 0)
(27.0139 9.74145e-05 0)
(26.7852 9.74373e-05 0)
(26.5572 9.74167e-05 0)
(26.3298 9.73413e-05 0)
(26.1031 9.72012e-05 0)
(25.8771 9.69871e-05 0)
(25.6517 9.66871e-05 0)
(25.427 9.6286e-05 0)
(25.203 9.57646e-05 0)
(24.9796 9.50999e-05 0)
(24.757 9.42664e-05 0)
(24.535 9.32375e-05 0)
(24.3138 9.19871e-05 0)
(24.0932 9.04918e-05 0)
(23.8734 8.87322e-05 0)
(23.6543 8.66933e-05 0)
(23.436 8.4366e-05 0)
(23.2184 8.17471e-05 0)
(23.0016 7.88406e-05 0)
(22.7856 7.5658e-05 0)
(22.5704 7.22176e-05 0)
(22.3561 6.85451e-05 0)
(22.1426 6.46723e-05 0)
(21.93 6.06367e-05 0)
(21.7182 5.64805e-05 0)
(21.5075 5.22495e-05 0)
(21.2976 4.79913e-05 0)
(21.0888 4.37539e-05 0)
(20.8809 3.95843e-05 0)
(20.6741 3.55269e-05 0)
(20.4683 3.1622e-05 0)
(20.2636 2.7905e-05 0)
(20.0599 2.44052e-05 0)
(19.8574 2.1145e-05 0)
(19.656 1.814e-05 0)
(19.4557 1.53982e-05 0)
(19.2566 1.29216e-05 0)
(19.0586 1.07063e-05 0)
(18.8618 8.74316e-06 0)
(18.6663 7.01881e-06 0)
(18.4719 5.51648e-06 0)
(18.2788 4.21751e-06 0)
(18.0869 3.10173e-06 0)
(17.8962 2.14888e-06 0)
(17.7067 1.33762e-06 0)
(17.5185 6.33085e-07 0)
(17.3316 -1.88972e-08 0)
(17.1459 -3.94265e-07 0)
(16.9614 -7.14442e-07 0)
(16.7782 -9.76249e-07 0)
(16.5963 -1.18824e-06 0)
(16.4156 -1.35919e-06 0)
(16.2362 -1.49682e-06 0)
(16.058 -1.60806e-06 0)
(15.8811 -1.69832e-06 0)
(15.7055 -1.77203e-06 0)
(15.5311 -1.833e-06 0)
(15.358 -1.88422e-06 0)
(15.1862 -1.92854e-06 0)
(15.0156 -1.96763e-06 0)
(14.8463 -2.00256e-06 0)
(14.6783 -2.03432e-06 0)
(14.5115 -2.06365e-06 0)
(14.346 -2.09176e-06 0)
(14.1819 -2.11937e-06 0)
(14.019 -2.14661e-06 0)
(13.8574 -2.17358e-06 0)
(13.6971 -2.20012e-06 0)
(13.5381 -2.22641e-06 0)
(13.3804 -2.25269e-06 0)
(13.224 -2.27926e-06 0)
(13.0689 -2.30634e-06 0)
(12.9151 -2.3338e-06 0)
(12.7627 -2.36145e-06 0)
(12.6116 -2.38894e-06 0)
(12.4618 -2.41617e-06 0)
(12.3134 -2.44347e-06 0)
(12.1663 -2.47123e-06 0)
(12.0205 -2.49927e-06 0)
(11.8761 -2.52775e-06 0)
(11.7331 -2.55677e-06 0)
(11.5913 -2.58632e-06 0)
(11.451 -2.61625e-06 0)
(11.312 -2.64648e-06 0)
(11.1743 -2.67672e-06 0)
(11.038 -2.70698e-06 0)
(10.903 -2.73719e-06 0)
(10.7693 -2.76751e-06 0)
(10.637 -2.79841e-06 0)
(10.506 -2.8297e-06 0)
(10.3763 -2.86147e-06 0)
(10.2479 -2.8935e-06 0)
(10.1208 -2.92561e-06 0)
(9.99498 -2.95727e-06 0)
(9.87047 -2.98941e-06 0)
(9.74724 -3.02208e-06 0)
(9.62528 -3.0555e-06 0)
(9.50459 -3.08866e-06 0)
(9.38517 -3.12197e-06 0)
(9.26701 -3.15504e-06 0)
(9.15012 -3.18825e-06 0)
(9.03449 -3.22128e-06 0)
(8.92011 -3.25516e-06 0)
(8.807 -3.28868e-06 0)
(8.69515 -3.32358e-06 0)
(8.58456 -3.35689e-06 0)
(8.47523 -3.39241e-06 0)
(8.36717 -3.42495e-06 0)
(8.26036 -3.4614e-06 0)
(8.15482 -3.49271e-06 0)
(8.05054 -3.5321e-06 0)
(7.94752 -3.56058e-06 0)
(7.84575 -3.60634e-06 0)
(7.74523 -3.62423e-06 0)
(7.64596 -3.68577e-06 0)
(7.54794 -3.67962e-06 0)
(7.45114 -3.77988e-06 0)
(7.35559 -3.72769e-06 0)
(7.26125 -3.89923e-06 0)
(7.16815 -3.76988e-06 0)
(7.07623 -4.06817e-06 0)
(6.98556 -3.81725e-06 0)
(6.89604 -4.26952e-06 0)
(6.80777 -3.87024e-06 0)
(6.72062 -4.53586e-06 0)
(6.63473 -3.85423e-06 0)
(6.54994 -4.85591e-06 0)
(6.4664 -4.08936e-06 0)
(6.38392 -4.48619e-06 0)
(6.30265 -5.13613e-06 0)
(6.22228 2.15581e-06 0)
(6.14204 1.98577e-05 0)
(6.05673 0.000156461 0)
(5.97082 0.00382829 0)
(5.47646 0.00939748 0)
(42.6079 0.00012557 0)
(42.3797 9.7543e-05 0)
(42.113 8.6372e-05 0)
(41.8616 8.61865e-05 0)
(41.6227 8.6523e-05 0)
(41.3854 8.6546e-05 0)
(41.1463 8.66249e-05 0)
(40.9063 8.67339e-05 0)
(40.6662 8.68231e-05 0)
(40.4262 8.68887e-05 0)
(40.1862 8.69496e-05 0)
(39.9462 8.69992e-05 0)
(39.7061 8.70128e-05 0)
(39.4661 8.70414e-05 0)
(39.226 8.70622e-05 0)
(38.9859 8.70805e-05 0)
(38.7458 8.70996e-05 0)
(38.5057 8.71195e-05 0)
(38.2656 8.71407e-05 0)
(38.0255 8.71648e-05 0)
(37.7854 8.71898e-05 0)
(37.5453 8.72183e-05 0)
(37.3052 8.72469e-05 0)
(37.065 8.72785e-05 0)
(36.8249 8.73112e-05 0)
(36.5847 8.73448e-05 0)
(36.3445 8.73802e-05 0)
(36.1043 8.74175e-05 0)
(35.8641 8.74532e-05 0)
(35.624 8.7494e-05 0)
(35.3838 8.75322e-05 0)
(35.1437 8.75728e-05 0)
(34.9036 8.76159e-05 0)
(34.6635 8.76568e-05 0)
(34.4235 8.77026e-05 0)
(34.1836 8.77462e-05 0)
(33.9438 8.77922e-05 0)
(33.7041 8.78409e-05 0)
(33.4646 8.78883e-05 0)
(33.2252 8.79378e-05 0)
(32.986 8.7993e-05 0)
(32.7471 8.80495e-05 0)
(32.5084 8.81076e-05 0)
(32.2699 8.81651e-05 0)
(32.0318 8.82224e-05 0)
(31.7939 8.82784e-05 0)
(31.5564 8.83365e-05 0)
(31.3193 8.8405e-05 0)
(31.0825 8.84789e-05 0)
(30.8462 8.85673e-05 0)
(30.6103 8.86576e-05 0)
(30.3748 8.8749e-05 0)
(30.1399 8.88383e-05 0)
(29.9054 8.89224e-05 0)
(29.6714 8.9003e-05 0)
(29.438 8.90856e-05 0)
(29.2051 8.91709e-05 0)
(28.9728 8.92568e-05 0)
(28.741 8.93429e-05 0)
(28.5098 8.9429e-05 0)
(28.2792 8.95139e-05 0)
(28.0493 8.96001e-05 0)
(27.8199 8.96898e-05 0)
(27.5912 8.97824e-05 0)
(27.3631 8.98692e-05 0)
(27.1356 8.99371e-05 0)
(26.9088 8.99728e-05 0)
(26.6827 8.99633e-05 0)
(26.4572 8.9898e-05 0)
(26.2323 8.97689e-05 0)
(26.0081 8.95691e-05 0)
(25.7846 8.92887e-05 0)
(25.5618 8.89143e-05 0)
(25.3396 8.84278e-05 0)
(25.1181 8.7807e-05 0)
(24.8973 8.70272e-05 0)
(24.6771 8.60622e-05 0)
(24.4576 8.48871e-05 0)
(24.2388 8.34797e-05 0)
(24.0208 8.1822e-05 0)
(23.8033 7.99008e-05 0)
(23.5867 7.77084e-05 0)
(23.3707 7.52433e-05 0)
(23.1554 7.25105e-05 0)
(22.9409 6.95219e-05 0)
(22.7271 6.62961e-05 0)
(22.5141 6.28578e-05 0)
(22.3019 5.92378e-05 0)
(22.0905 5.54717e-05 0)
(21.8799 5.15993e-05 0)
(21.6701 4.76635e-05 0)
(21.4612 4.37086e-05 0)
(21.2532 3.97793e-05 0)
(21.0461 3.59189e-05 0)
(20.84 3.2168e-05 0)
(20.6348 2.85637e-05 0)
(20.4306 2.51377e-05 0)
(20.2275 2.19164e-05 0)
(20.0253 1.89196e-05 0)
(19.8243 1.61603e-05 0)
(19.6243 1.36451e-05 0)
(19.4254 1.13748e-05 0)
(19.2276 9.34558e-06 0)
(19.031 7.54844e-06 0)
(18.8356 5.97099e-06 0)
(18.6413 4.5979e-06 0)
(18.4482 3.41237e-06 0)
(18.2563 2.39588e-06 0)
(18.0657 1.52984e-06 0)
(17.8762 8.03222e-07 0)
(17.688 2.18776e-07 0)
(17.501 -2.56888e-07 0)
(17.3153 -6.24455e-07 0)
(17.1308 -9.46782e-07 0)
(16.9475 -1.21088e-06 0)
(16.7655 -1.42366e-06 0)
(16.5848 -1.59443e-06 0)
(16.4053 -1.73166e-06 0)
(16.2271 -1.84264e-06 0)
(16.0501 -1.93309e-06 0)
(15.8744 -2.00739e-06 0)
(15.6999 -2.06945e-06 0)
(15.5268 -2.12217e-06 0)
(15.3549 -2.16836e-06 0)
(15.1842 -2.20955e-06 0)
(15.0148 -2.24669e-06 0)
(14.8467 -2.28067e-06 0)
(14.6799 -2.31221e-06 0)
(14.5144 -2.34246e-06 0)
(14.3501 -2.37229e-06 0)
(14.1871 -2.4016e-06 0)
(14.0254 -2.43058e-06 0)
(13.8651 -2.45895e-06 0)
(13.706 -2.48693e-06 0)
(13.5482 -2.51479e-06 0)
(13.3917 -2.54278e-06 0)
(13.2366 -2.57125e-06 0)
(13.0827 -2.59999e-06 0)
(12.9302 -2.62877e-06 0)
(12.779 -2.65738e-06 0)
(12.6292 -2.68538e-06 0)
(12.4806 -2.7136e-06 0)
(12.3335 -2.74207e-06 0)
(12.1876 -2.77087e-06 0)
(12.0431 -2.80011e-06 0)
(11.9 -2.82979e-06 0)
(11.7582 -2.86001e-06 0)
(11.6177 -2.89062e-06 0)
(11.4786 -2.92159e-06 0)
(11.3409 -2.95236e-06 0)
(11.2045 -2.98313e-06 0)
(11.0694 -3.01403e-06 0)
(10.9356 -3.04464e-06 0)
(10.8032 -3.07617e-06 0)
(10.6721 -3.10782e-06 0)
(10.5423 -3.14023e-06 0)
(10.4138 -3.17246e-06 0)
(10.2867 -3.20539e-06 0)
(10.1608 -3.23694e-06 0)
(10.0362 -3.26985e-06 0)
(9.91283 -3.30224e-06 0)
(9.79078 -3.33666e-06 0)
(9.67 -3.36994e-06 0)
(9.55049 -3.40397e-06 0)
(9.43224 -3.43665e-06 0)
(9.31525 -3.47077e-06 0)
(9.19952 -3.50311e-06 0)
(9.08505 -3.53962e-06 0)
(8.97184 -3.56969e-06 0)
(8.8599 -3.60997e-06 0)
(8.74921 -3.63723e-06 0)
(8.63978 -3.68188e-06 0)
(8.53162 -3.70267e-06 0)
(8.42472 -3.75527e-06 0)
(8.31908 -3.76424e-06 0)
(8.2147 -3.83698e-06 0)
(8.11157 -3.81509e-06 0)
(8.0097 -3.93918e-06 0)
(7.90908 -3.83099e-06 0)
(7.80971 -4.08837e-06 0)
(7.71158 -3.76958e-06 0)
(7.61469 -4.32284e-06 0)
(7.51903 -3.59261e-06 0)
(7.42459 -4.66124e-06 0)
(7.33138 -3.2402e-06 0)
(7.23936 -5.1549e-06 0)
(7.14858 -2.50915e-06 0)
(7.05896 -6.01977e-06 0)
(6.97058 -9.65994e-07 0)
(6.88333 -7.2159e-06 0)
(6.79733 1.07674e-06 0)
(6.71243 -8.41211e-06 0)
(6.62878 6.16848e-07 0)
(6.5462 -5.98798e-06 0)
(6.46483 1.08439e-05 0)
(6.38433 6.4703e-05 0)
(6.30403 0.000430662 0)
(6.2188 0.00254427 0)
(6.13203 0.0177137 0)
(5.81691 0.043808 0)
(42.6079 -1.64873e-12 0)
(42.3796 -1.95923e-12 0)
(42.113 -4.12301e-12 0)
(41.8616 -5.5098e-12 0)
(41.6227 -5.61246e-12 0)
(41.3853 -7.3772e-12 0)
(41.1463 -9.84804e-12 0)
(40.9062 -1.02625e-11 0)
(40.6661 -9.48094e-12 0)
(40.4261 -7.36833e-12 0)
(40.1862 -7.34819e-12 0)
(39.9462 -8.23617e-12 0)
(39.7061 -7.76578e-12 0)
(39.466 -8.37488e-12 0)
(39.226 -1.0223e-11 0)
(38.9859 -1.02613e-11 0)
(38.7458 -8.77515e-12 0)
(38.5057 -1.07152e-11 0)
(38.2656 -1.25607e-11 0)
(38.0255 -1.38955e-11 0)
(37.7854 -1.6604e-11 0)
(37.5453 -1.86403e-11 0)
(37.3051 -2.0323e-11 0)
(37.065 -2.06331e-11 0)
(36.8248 -2.26068e-11 0)
(36.5847 -2.51972e-11 0)
(36.3445 -2.86442e-11 0)
(36.1043 -2.88554e-11 0)
(35.8641 -2.72925e-11 0)
(35.624 -2.53825e-11 0)
(35.3838 -2.1994e-11 0)
(35.1437 -1.97501e-11 0)
(34.9036 -1.90574e-11 0)
(34.6635 -1.79247e-11 0)
(34.4235 -1.80964e-11 0)
(34.1836 -1.90592e-11 0)
(33.9438 -2.05409e-11 0)
(33.7041 -2.33481e-11 0)
(33.4646 -2.51199e-11 0)
(33.2252 -2.61785e-11 0)
(32.986 -2.53186e-11 0)
(32.7471 -2.43605e-11 0)
(32.5084 -2.30462e-11 0)
(32.2699 -2.0394e-11 0)
(32.0318 -2.0017e-11 0)
(31.7939 -1.8502e-11 0)
(31.5564 -1.62524e-11 0)
(31.3193 -1.56679e-11 0)
(31.0825 -1.57936e-11 0)
(30.8462 -1.42905e-11 0)
(30.6103 -1.38463e-11 0)
(30.3749 -1.18166e-11 0)
(30.1399 -9.76552e-12 0)
(29.9054 -8.54484e-12 0)
(29.6715 -7.14106e-12 0)
(29.438 -5.77442e-12 0)
(29.2051 -2.70844e-12 0)
(28.9728 -1.20194e-12 0)
(28.7411 6.48798e-13 0)
(28.5099 -8.84031e-14 0)
(28.2793 -1.05492e-12 0)
(28.0493 -2.85301e-13 0)
(27.82 1.2679e-12 0)
(27.5913 4.53866e-13 0)
(27.3632 -1.76986e-12 0)
(27.1357 -5.38916e-12 0)
(26.9089 -8.30453e-12 0)
(26.6828 -1.03574e-11 0)
(26.4573 -1.16539e-11 0)
(26.2324 -1.1515e-11 0)
(26.0082 -1.08613e-11 0)
(25.7847 -1.20149e-11 0)
(25.5619 -1.16307e-11 0)
(25.3397 -1.01899e-11 0)
(25.1182 -9.56078e-12 0)
(24.8974 -1.01049e-11 0)
(24.6772 -1.15886e-11 0)
(24.4578 -1.25568e-11 0)
(24.239 -1.51322e-11 0)
(24.0209 -2.12556e-11 0)
(23.8035 -2.98567e-11 0)
(23.5868 -3.71674e-11 0)
(23.3708 -4.26058e-11 0)
(23.1555 -4.61356e-11 0)
(22.941 -4.75569e-11 0)
(22.7272 -4.71481e-11 0)
(22.5142 -4.78504e-11 0)
(22.302 -4.79407e-11 0)
(22.0906 -4.6628e-11 0)
(21.88 -4.42861e-11 0)
(21.6702 -4.13277e-11 0)
(21.4613 -3.87278e-11 0)
(21.2533 -3.61164e-11 0)
(21.0462 -3.39498e-11 0)
(20.8401 -3.09742e-11 0)
(20.6349 -2.85866e-11 0)
(20.4307 -2.40306e-11 0)
(20.2276 -2.17467e-11 0)
(20.0254 -2.02078e-11 0)
(19.8243 -2.20381e-11 0)
(19.6244 -1.92181e-11 0)
(19.4255 -2.02986e-11 0)
(19.2277 -1.31413e-11 0)
(19.0311 -2.20725e-11 0)
(18.8356 -8.83829e-12 0)
(18.6414 -2.79791e-11 0)
(18.4483 -3.06765e-12 0)
(18.2564 -2.83728e-11 0)
(18.0657 1.13822e-11 0)
(17.8763 -2.19833e-11 0)
(17.6881 2.71457e-11 0)
(17.5011 -3.28058e-11 0)
(17.3153 4.4239e-11 0)
(17.1308 -4.01334e-11 0)
(16.9476 5.01021e-11 0)
(16.7656 -5.08325e-11 0)
(16.5848 4.29986e-11 0)
(16.4054 -5.19225e-11 0)
(16.2271 2.34018e-11 0)
(16.0502 -3.19061e-11 0)
(15.8745 -1.75929e-12 0)
(15.7 -1.68683e-11 0)
(15.5268 -2.61192e-12 0)
(15.3549 -1.33616e-11 0)
(15.1843 1.68825e-11 0)
(15.0149 -3.39978e-11 0)
(14.8468 6.27519e-11 0)
(14.68 -9.36448e-11 0)
(14.5144 1.41972e-10 0)
(14.3502 -1.3241e-10 0)
(14.1872 1.53271e-10 0)
(14.0255 -9.06798e-11 0)
(13.8651 9.04698e-11 0)
(13.706 -3.27452e-12 0)
(13.5483 2.88279e-13 0)
(13.3918 1.22278e-11 0)
(13.2366 2.9493e-11 0)
(13.0828 -7.44122e-11 0)
(12.9303 1.86021e-10 0)
(12.7791 -2.83749e-10 0)
(12.6292 3.54798e-10 0)
(12.4807 -2.4784e-10 0)
(12.3335 6.06827e-11 0)
(12.1877 8.39006e-11 0)
(12.0432 3.40658e-12 0)
(11.9 -2.29732e-10 0)
(11.7582 3.3414e-10 0)
(11.6178 -2.63206e-10 0)
(11.4787 1.53846e-10 0)
(11.3409 -1.74278e-10 0)
(11.2045 2.49233e-10 0)
(11.0694 -2.98807e-10 0)
(10.9357 2.51317e-10 0)
(10.8033 -2.62925e-10 0)
(10.6722 4.45084e-10 0)
(10.5424 -7.47616e-10 0)
(10.4139 1.1099e-09 0)
(10.2867 -1.25556e-09 0)
(10.1608 1.26245e-09 0)
(10.0362 -2.19037e-09 0)
(9.91289 2.95872e-09 0)
(9.79084 -1.86916e-09 0)
(9.67006 1.39585e-09 0)
(9.55055 -3.13832e-09 0)
(9.43229 3.5064e-09 0)
(9.31531 -2.84484e-09 0)
(9.19958 4.56483e-09 0)
(9.08511 -6.99012e-09 0)
(8.9719 8.80232e-09 0)
(8.85995 -1.08743e-08 0)
(8.74927 1.45458e-08 0)
(8.63984 -2.05877e-08 0)
(8.53168 2.67113e-08 0)
(8.42478 -3.59552e-08 0)
(8.31914 5.23585e-08 0)
(8.21475 -7.79618e-08 0)
(8.11163 1.15772e-07 0)
(8.00976 -1.87971e-07 0)
(7.90914 2.86319e-07 0)
(7.80977 -4.69997e-07 0)
(7.71164 6.49042e-07 0)
(7.61475 -1.06555e-06 0)
(7.51909 1.24415e-06 0)
(7.42465 -1.98701e-06 0)
(7.33144 2.14032e-06 0)
(7.23943 -3.02537e-06 0)
(7.14863 3.29188e-06 0)
(7.05903 -4.16097e-06 0)
(6.97063 5.04969e-06 0)
(6.88341 -6.5247e-06 0)
(6.79737 8.38377e-06 0)
(6.71251 -1.00045e-05 0)
(6.62883 1.07968e-05 0)
(6.54628 -7.49026e-06 0)
(6.46492 2.80915e-05 0)
(6.38469 9.20832e-05 0)
(6.30571 0.000556359 0)
(6.22864 0.00273466 0)
(6.15775 0.0135169 0)
(6.08063 0.0111903 0)
(42.6079 -0.00012557 0)
(42.3797 -9.7543e-05 0)
(42.113 -8.6372e-05 0)
(41.8616 -8.61865e-05 0)
(41.6227 -8.6523e-05 0)
(41.3854 -8.6546e-05 0)
(41.1463 -8.66249e-05 0)
(40.9063 -8.67339e-05 0)
(40.6662 -8.68231e-05 0)
(40.4262 -8.68887e-05 0)
(40.1862 -8.69496e-05 0)
(39.9462 -8.69992e-05 0)
(39.7061 -8.70128e-05 0)
(39.4661 -8.70413e-05 0)
(39.226 -8.70622e-05 0)
(38.9859 -8.70805e-05 0)
(38.7458 -8.70996e-05 0)
(38.5057 -8.71195e-05 0)
(38.2656 -8.71407e-05 0)
(38.0255 -8.71648e-05 0)
(37.7854 -8.71898e-05 0)
(37.5453 -8.72183e-05 0)
(37.3052 -8.72469e-05 0)
(37.065 -8.72785e-05 0)
(36.8249 -8.73112e-05 0)
(36.5847 -8.73448e-05 0)
(36.3445 -8.73802e-05 0)
(36.1043 -8.74175e-05 0)
(35.8641 -8.74532e-05 0)
(35.624 -8.7494e-05 0)
(35.3838 -8.75322e-05 0)
(35.1437 -8.75728e-05 0)
(34.9036 -8.76159e-05 0)
(34.6635 -8.76568e-05 0)
(34.4235 -8.77026e-05 0)
(34.1836 -8.77462e-05 0)
(33.9438 -8.77922e-05 0)
(33.7041 -8.78409e-05 0)
(33.4646 -8.78883e-05 0)
(33.2252 -8.79378e-05 0)
(32.986 -8.79929e-05 0)
(32.7471 -8.80495e-05 0)
(32.5084 -8.81076e-05 0)
(32.2699 -8.81651e-05 0)
(32.0318 -8.82224e-05 0)
(31.7939 -8.82784e-05 0)
(31.5564 -8.83365e-05 0)
(31.3193 -8.8405e-05 0)
(31.0825 -8.84789e-05 0)
(30.8462 -8.85673e-05 0)
(30.6103 -8.86576e-05 0)
(30.3748 -8.8749e-05 0)
(30.1399 -8.88383e-05 0)
(29.9054 -8.89224e-05 0)
(29.6714 -8.9003e-05 0)
(29.438 -8.90856e-05 0)
(29.2051 -8.91709e-05 0)
(28.9728 -8.92568e-05 0)
(28.741 -8.93429e-05 0)
(28.5098 -8.9429e-05 0)
(28.2792 -8.95139e-05 0)
(28.0493 -8.96001e-05 0)
(27.8199 -8.96898e-05 0)
(27.5912 -8.97824e-05 0)
(27.3631 -8.98692e-05 0)
(27.1356 -8.99371e-05 0)
(26.9088 -8.99728e-05 0)
(26.6827 -8.99633e-05 0)
(26.4572 -8.9898e-05 0)
(26.2323 -8.97689e-05 0)
(26.0081 -8.95691e-05 0)
(25.7846 -8.92887e-05 0)
(25.5618 -8.89143e-05 0)
(25.3396 -8.84278e-05 0)
(25.1181 -8.7807e-05 0)
(24.8973 -8.70272e-05 0)
(24.6771 -8.60622e-05 0)
(24.4576 -8.48871e-05 0)
(24.2388 -8.34797e-05 0)
(24.0208 -8.1822e-05 0)
(23.8033 -7.99008e-05 0)
(23.5867 -7.77084e-05 0)
(23.3707 -7.52433e-05 0)
(23.1554 -7.25105e-05 0)
(22.9409 -6.95219e-05 0)
(22.7271 -6.62961e-05 0)
(22.5141 -6.28578e-05 0)
(22.3019 -5.92378e-05 0)
(22.0905 -5.54717e-05 0)
(21.8799 -5.15993e-05 0)
(21.6701 -4.76635e-05 0)
(21.4612 -4.37086e-05 0)
(21.2532 -3.97793e-05 0)
(21.0461 -3.59189e-05 0)
(20.84 -3.2168e-05 0)
(20.6348 -2.85637e-05 0)
(20.4306 -2.51377e-05 0)
(20.2275 -2.19164e-05 0)
(20.0253 -1.89196e-05 0)
(19.8243 -1.61603e-05 0)
(19.6243 -1.36451e-05 0)
(19.4254 -1.13748e-05 0)
(19.2276 -9.34557e-06 0)
(19.031 -7.54845e-06 0)
(18.8356 -5.97097e-06 0)
(18.6413 -4.59792e-06 0)
(18.4482 -3.41233e-06 0)
(18.2563 -2.39592e-06 0)
(18.0657 -1.52979e-06 0)
(17.8762 -8.03285e-07 0)
(17.688 -2.18734e-07 0)
(17.501 2.56843e-07 0)
(17.3153 6.24493e-07 0)
(17.1308 9.46751e-07 0)
(16.9475 1.21091e-06 0)
(16.7655 1.42363e-06 0)
(16.5848 1.59445e-06 0)
(16.4053 1.73164e-06 0)
(16.2271 1.84267e-06 0)
(16.0501 1.93306e-06 0)
(15.8744 2.00744e-06 0)
(15.6999 2.0694e-06 0)
(15.5268 2.12222e-06 0)
(15.3549 2.16834e-06 0)
(15.1842 2.20955e-06 0)
(15.0148 2.24669e-06 0)
(14.8467 2.2807e-06 0)
(14.6799 2.31211e-06 0)
(14.5144 2.34264e-06 0)
(14.3501 2.37208e-06 0)
(14.1871 2.40178e-06 0)
(14.0254 2.43045e-06 0)
(13.8651 2.45903e-06 0)
(13.706 2.4869e-06 0)
(13.5482 2.51478e-06 0)
(13.3917 2.54279e-06 0)
(13.2366 2.57127e-06 0)
(13.0827 2.59993e-06 0)
(12.9302 2.62895e-06 0)
(12.779 2.65703e-06 0)
(12.6292 2.68577e-06 0)
(12.4806 2.7134e-06 0)
(12.3335 2.74205e-06 0)
(12.1876 2.77091e-06 0)
(12.0431 2.80017e-06 0)
(11.9 2.82958e-06 0)
(11.7582 2.86034e-06 0)
(11.6177 2.89026e-06 0)
(11.4786 2.92182e-06 0)
(11.3409 2.95226e-06 0)
(11.2045 2.98342e-06 0)
(11.0694 3.01359e-06 0)
(10.9356 3.04493e-06 0)
(10.8032 3.07591e-06 0)
(10.6721 3.10833e-06 0)
(10.5423 3.13948e-06 0)
(10.4138 3.17365e-06 0)
(10.2867 3.20385e-06 0)
(10.1608 3.2384e-06 0)
(10.0362 3.26761e-06 0)
(9.91283 3.30562e-06 0)
(9.79078 3.33438e-06 0)
(9.67 3.37132e-06 0)
(9.55049 3.40043e-06 0)
(9.43224 3.4407e-06 0)
(9.31525 3.46769e-06 0)
(9.19952 3.50823e-06 0)
(9.08505 3.53167e-06 0)
(8.97184 3.57958e-06 0)
(8.8599 3.59777e-06 0)
(8.74921 3.65376e-06 0)
(8.63978 3.65865e-06 0)
(8.53162 3.73259e-06 0)
(8.42472 3.7147e-06 0)
(8.31908 3.82322e-06 0)
(8.2147 3.75005e-06 0)
(8.11157 3.94574e-06 0)
(8.0097 3.72915e-06 0)
(7.90908 4.15581e-06 0)
(7.80971 3.56424e-06 0)
(7.71158 4.52355e-06 0)
(7.61469 3.13981e-06 0)
(7.51902 5.08103e-06 0)
(7.4246 2.45916e-06 0)
(7.33137 5.78913e-06 0)
(7.23938 1.77302e-06 0)
(7.14856 6.35358e-06 0)
(7.05899 1.35355e-06 0)
(6.97055 6.63904e-06 0)
(6.88337 -2.36453e-07 0)
(6.79729 8.36063e-06 0)
(6.71247 -2.68869e-06 0)
(6.62874 1.14881e-05 0)
(6.54626 -1.96684e-06 0)
(6.46485 1.82084e-05 0)
(6.38475 3.53365e-05 0)
(6.30585 0.000157856 0)
(6.22797 0.000508814 0)
(6.13892 0.00752781 0)
(5.91082 -0.00311325 0)
(42.6062 -9.90218e-05 0)
(42.3762 -9.12122e-05 0)
(42.1077 -8.94017e-05 0)
(41.8546 -9.06933e-05 0)
(41.6138 -9.17795e-05 0)
(41.3747 -9.25425e-05 0)
(41.1338 -9.3152e-05 0)
(40.8919 -9.36329e-05 0)
(40.65 -9.39996e-05 0)
(40.4082 -9.42754e-05 0)
(40.1664 -9.44906e-05 0)
(39.9245 -9.46557e-05 0)
(39.6826 -9.47629e-05 0)
(39.4407 -9.48548e-05 0)
(39.1988 -9.49235e-05 0)
(38.9569 -9.49767e-05 0)
(38.715 -9.50198e-05 0)
(38.473 -9.50559e-05 0)
(38.2311 -9.50869e-05 0)
(37.9891 -9.51154e-05 0)
(37.7472 -9.51413e-05 0)
(37.5052 -9.5167e-05 0)
(37.2632 -9.5191e-05 0)
(37.0213 -9.52154e-05 0)
(36.7793 -9.52396e-05 0)
(36.5372 -9.52636e-05 0)
(36.2952 -9.52882e-05 0)
(36.0532 -9.53136e-05 0)
(35.8112 -9.53379e-05 0)
(35.5691 -9.53651e-05 0)
(35.3271 -9.53909e-05 0)
(35.0851 -9.54182e-05 0)
(34.8432 -9.54474e-05 0)
(34.6013 -9.54754e-05 0)
(34.3595 -9.55069e-05 0)
(34.1177 -9.55375e-05 0)
(33.876 -9.557e-05 0)
(33.6345 -9.5605e-05 0)
(33.3931 -9.56398e-05 0)
(33.1519 -9.56768e-05 0)
(32.9109 -9.57183e-05 0)
(32.6701 -9.57622e-05 0)
(32.4295 -9.58082e-05 0)
(32.1892 -9.58547e-05 0)
(31.9492 -9.59019e-05 0)
(31.7095 -9.5949e-05 0)
(31.4701 -9.59983e-05 0)
(31.2311 -9.60556e-05 0)
(30.9925 -9.61188e-05 0)
(30.7543 -9.61938e-05 0)
(30.5166 -9.62725e-05 0)
(30.2793 -9.63533e-05 0)
(30.0425 -9.64332e-05 0)
(29.8061 -9.65096e-05 0)
(29.5703 -9.65834e-05 0)
(29.335 -9.66587e-05 0)
(29.1002 -9.67364e-05 0)
(28.866 -9.68155e-05 0)
(28.6324 -9.68953e-05 0)
(28.3994 -9.6975e-05 0)
(28.1669 -9.70533e-05 0)
(27.9351 -9.71313e-05 0)
(27.7038 -9.72102e-05 0)
(27.4732 -9.72891e-05 0)
(27.2433 -9.73609e-05 0)
(27.0139 -9.74145e-05 0)
(26.7852 -9.74373e-05 0)
(26.5572 -9.74167e-05 0)
(26.3298 -9.73413e-05 0)
(26.1031 -9.72012e-05 0)
(25.8771 -9.69871e-05 0)
(25.6517 -9.66871e-05 0)
(25.427 -9.6286e-05 0)
(25.203 -9.57646e-05 0)
(24.9796 -9.50999e-05 0)
(24.757 -9.42664e-05 0)
(24.535 -9.32375e-05 0)
(24.3138 -9.19871e-05 0)
(24.0932 -9.04919e-05 0)
(23.8734 -8.87322e-05 0)
(23.6543 -8.66934e-05 0)
(23.436 -8.4366e-05 0)
(23.2184 -8.17471e-05 0)
(23.0016 -7.88406e-05 0)
(22.7856 -7.5658e-05 0)
(22.5704 -7.22176e-05 0)
(22.3561 -6.85451e-05 0)
(22.1426 -6.46723e-05 0)
(21.93 -6.06367e-05 0)
(21.7182 -5.64805e-05 0)
(21.5075 -5.22495e-05 0)
(21.2976 -4.79913e-05 0)
(21.0888 -4.37539e-05 0)
(20.8809 -3.95843e-05 0)
(20.6741 -3.55269e-05 0)
(20.4683 -3.1622e-05 0)
(20.2636 -2.7905e-05 0)
(20.0599 -2.44052e-05 0)
(19.8574 -2.1145e-05 0)
(19.656 -1.814e-05 0)
(19.4557 -1.53982e-05 0)
(19.2566 -1.29216e-05 0)
(19.0586 -1.07063e-05 0)
(18.8618 -8.74317e-06 0)
(18.6663 -7.0188e-06 0)
(18.4719 -5.51649e-06 0)
(18.2788 -4.2175e-06 0)
(18.0869 -3.10176e-06 0)
(17.8962 -2.14886e-06 0)
(17.7067 -1.33764e-06 0)
(17.5185 -6.33058e-07 0)
(17.3316 1.88917e-08 0)
(17.1459 3.9426e-07 0)
(16.9614 7.14449e-07 0)
(16.7782 9.7623e-07 0)
(16.5963 1.18827e-06 0)
(16.4156 1.35916e-06 0)
(16.2362 1.49684e-06 0)
(16.058 1.60805e-06 0)
(15.8811 1.69831e-06 0)
(15.7055 1.77206e-06 0)
(15.5311 1.83294e-06 0)
(15.358 1.88427e-06 0)
(15.1862 1.92853e-06 0)
(15.0156 1.96762e-06 0)
(14.8463 2.0026e-06 0)
(14.6783 2.0343e-06 0)
(14.5115 2.06364e-06 0)
(14.346 2.0918e-06 0)
(14.1819 2.11932e-06 0)
(14.019 2.14665e-06 0)
(13.8574 2.17356e-06 0)
(13.6971 2.20014e-06 0)
(13.5381 2.22641e-06 0)
(13.3804 2.25269e-06 0)
(13.224 2.27926e-06 0)
(13.0689 2.30634e-06 0)
(12.9151 2.33381e-06 0)
(12.7627 2.36146e-06 0)
(12.6116 2.38889e-06 0)
(12.4618 2.41622e-06 0)
(12.3134 2.44351e-06 0)
(12.1663 2.47117e-06 0)
(12.0205 2.49924e-06 0)
(11.8761 2.52782e-06 0)
(11.7331 2.55679e-06 0)
(11.5913 2.58631e-06 0)
(11.451 2.61615e-06 0)
(11.312 2.64654e-06 0)
(11.1743 2.6768e-06 0)
(11.038 2.707e-06 0)
(10.903 2.73705e-06 0)
(10.7693 2.76754e-06 0)
(10.637 2.7984e-06 0)
(10.506 2.82977e-06 0)
(10.3763 2.86146e-06 0)
(10.2479 2.89358e-06 0)
(10.1208 2.92533e-06 0)
(9.99498 2.95747e-06 0)
(9.87047 2.98937e-06 0)
(9.74724 3.02251e-06 0)
(9.62528 3.05508e-06 0)
(9.50459 3.08866e-06 0)
(9.38517 3.12156e-06 0)
(9.26701 3.1556e-06 0)
(9.15012 3.18802e-06 0)
(9.03449 3.22185e-06 0)
(8.92011 3.25418e-06 0)
(8.807 3.28979e-06 0)
(8.69515 3.32223e-06 0)
(8.58456 3.35889e-06 0)
(8.47523 3.38973e-06 0)
(8.36717 3.4282e-06 0)
(8.26036 3.45674e-06 0)
(8.15482 3.49942e-06 0)
(8.05054 3.52301e-06 0)
(7.94752 3.57564e-06 0)
(7.84575 3.58398e-06 0)
(7.74523 3.66323e-06 0)
(7.64596 3.63089e-06 0)
(7.54793 3.78585e-06 0)
(7.45115 3.66062e-06 0)
(7.35558 3.97486e-06 0)
(7.26126 3.68064e-06 0)
(7.16813 4.18358e-06 0)
(7.07625 3.70577e-06 0)
(6.98554 4.37714e-06 0)
(6.89607 3.75558e-06 0)
(6.80774 4.50257e-06 0)
(6.72066 3.59642e-06 0)
(6.63469 4.9211e-06 0)
(6.54998 3.74314e-06 0)
(6.46635 5.41818e-06 0)
(6.38398 4.01049e-06 0)
(6.30268 6.14496e-06 0)
(6.22271 6.0607e-06 0)
(6.14399 1.38821e-05 0)
(6.06733 0.000175186 0)
(5.98474 0.00859202 0)
(6.34165 0.024153 0)
(5.30208 0.201649 -3.61092e-15)
(5.19577 0.558052 7.22108e-15)
(5.20969 0.958717 -1.35339e-14)
(5.21725 1.36674 2.79614e-14)
(5.12865 1.75612 -2.88623e-14)
(4.98602 2.1151 -1.80343e-15)
(4.98033 2.55494 -5.77464e-20)
(5.2676 3.25313 -2.51294e-14)
(5.71219 4.22314 -1.16257e-13)
(5.86985 5.12411 1.14332e-13)
(5.50777 5.54732 -2.85852e-14)
(4.77602 5.47469 -5.90384e-14)
(3.87371 5.04332 3.0498e-14)
(2.89987 4.25606 0)
(2.12551 3.56838 2.89494e-14)
(1.83636 4.01676 2.89063e-14)
(1.86705 5.47539 -2.87255e-14)
(1.8155 7.39722 2.85099e-14)
(1.54377 9.69435 2.20647e-16)
(0.943937 12.7166 -2.18288e-16)
(5.75132 0.266552 0)
(5.73453 0.695539 0)
(5.7678 1.20231 -1.84537e-15)
(5.76729 1.75292 -3.68895e-15)
(5.63949 2.32134 9.22248e-15)
(5.43139 2.78367 1.84395e-14)
(5.37563 3.11246 0)
(5.62139 3.53445 1.10055e-14)
(6.0014 4.38311 1.82697e-14)
(6.01248 5.76112 -4.37998e-14)
(5.41956 6.83478 2.92016e-14)
(4.42444 7.25001 1.45924e-14)
(3.20079 7.1718 -1.46093e-14)
(1.89931 6.43234 1.46589e-14)
(1.10532 5.16336 0)
(1.54668 4.52065 -1.84861e-15)
(1.9326 5.11397 1.83971e-15)
(1.98589 6.23475 -6.40613e-15)
(1.9586 7.6644 -9.08436e-16)
(1.68141 9.76901 0)
(6.05916 -0.0454968 -4.92141e-17)
(6.07911 -0.108164 -2.49989e-14)
(6.14745 -0.182007 2.53927e-14)
(6.26298 -0.258787 -2.44109e-14)
(6.42706 -0.31375 -2.67768e-14)
(6.62167 -0.306404 9.96325e-14)
(6.80698 -0.223841 -5.04145e-14)
(6.97001 -0.122487 4.88577e-14)
(7.17693 -0.100898 -9.93553e-14)
(7.54033 -0.16608 1.57744e-15)
(8.00196 -0.105339 4.89512e-14)
(8.38161 0.223817 0)
(8.58731 0.786802 -4.89307e-14)
(8.60252 1.51524 4.89037e-14)
(8.36884 2.34637 -3.94271e-16)
(7.64396 3.19195 0)
(6.65451 3.8288 3.94653e-16)
(5.93549 4.18433 0)
(5.90224 4.31779 0)
(6.67842 4.34019 0)
(5.8018 0.257411 8.21757e-16)
(5.65858 0.728518 -8.22203e-15)
(5.52792 1.29329 -1.64428e-15)
(5.42438 1.86118 3.28571e-15)
(5.32892 2.42492 -3.28177e-15)
(5.22792 2.98681 4.66245e-20)
(5.10895 3.54597 -1.3087e-14)
(4.95876 4.10107 0)
(4.76432 4.64951 0)
(4.51407 5.1864 -6.51262e-15)
(4.20339 5.70338 6.50351e-15)
(3.83883 6.19338 0)
(3.42996 6.6558 -6.48546e-15)
(2.98328 7.09168 6.47616e-15)
(2.50177 7.49892 -6.46636e-15)
(1.98599 7.87633 1.29112e-14)
(1.42897 8.23425 -6.44378e-15)
(0.825816 8.57725 0)
(0.17794 8.89394 -3.21054e-15)
(-0.496496 9.19632 0)
(6.40527 0.295414 -1.28422e-15)
(6.45126 0.715218 9.8452e-15)
(6.40675 1.18533 6.84634e-15)
(6.34725 1.65407 1.36823e-14)
(6.30182 2.13951 0)
(6.25441 2.65386 0)
(6.18821 3.1965 1.36329e-14)
(6.09207 3.76147 3.40297e-15)
(5.95612 4.33875 -6.79511e-15)
(5.76981 4.91564 3.39234e-15)
(5.52387 5.4829 2.70997e-14)
(5.21482 6.03708 -1.69137e-14)
(4.84499 6.57788 1.68902e-14)
(4.41788 7.10609 -3.37315e-15)
(3.93469 7.62439 -1.34712e-14)
(3.39557 8.13972 -2.35313e-14)
(2.8076 8.6579 -1.17402e-14)
(2.18082 9.16685 -1.67332e-15)
(1.52987 9.61065 9.60479e-15)
(0.912667 9.87828 4.17677e-16)
(0.34322 15.28 0)
(0.39598 11.9861 0)
(0.291535 11.6777 0)
(0.215876 14.6424 0)
(0.372826 17.0311 0)
(0.473106 16.8128 0)
(0.463218 16.1585 0)
(0.362972 17.5248 0)
(0.526827 19.1083 0)
(0.594503 18.5438 0)
(0.531075 18.0429 0)
(0.453712 19.7784 0)
(0.640037 21.2795 0)
(0.700984 20.5875 0)
(0.69718 18.6541 0)
(0.505951 18.4741 0)
(0.455536 21.5971 0)
(0.716029 23.4643 0)
(0.787436 22.5338 0)
(0.795128 20.3192 0)
(0.75573 18.1556 0)
(0.434947 19.6764 0)
(0.541283 23.7901 0)
(0.818302 24.9459 0)
(0.890301 23.582 0)
(0.909748 21.5748 0)
(0.834878 20.6981 0)
(0.707754 22.3941 0)
(0.87965 23.9786 0)
(0.973395 23.7258 0)
(1.0124 23.0272 0)
(1.03268 22.5605 0)
(1.04466 22.2818 0)
(1.05075 22.0965 0)
(1.05323 21.9548 0)
(1.05296 21.8116 0)
(1.04794 21.5857 0)
(1.02976 21.054 0)
(1.00396 19.7458 0)
(0.86472 19.2688 0)
(0.722788 21.383 0)
(0.913502 23.1336 0)
(1.00466 22.8891 0)
(1.03751 22.2335 0)
(1.05208 21.8264 0)
(1.05939 21.5979 0)
(1.06228 21.4542 0)
(1.06265 21.3546 0)
(1.06203 21.2787 0)
(1.06092 21.2149 0)
(1.05947 21.1579 0)
(1.05777 21.1047 0)
(1.05583 21.0538 0)
(1.05368 21.0043 0)
(1.05135 20.956 0)
(1.04896 20.9091 0)
(1.04658 20.8639 0)
(1.04425 20.82 0)
(1.04199 20.7771 0)
(1.03982 20.7349 0)
(1.03776 20.6931 0)
(1.03581 20.6516 0)
(1.03397 20.6103 0)
(1.03223 20.569 0)
(1.03057 20.5277 0)
(1.02896 20.4865 0)
(1.02738 20.4452 0)
(1.02579 20.404 0)
(1.02414 20.3629 0)
(1.02239 20.3221 0)
(1.02049 20.2817 0)
(1.01837 20.2417 0)
(1.01597 20.2023 0)
(1.0132 20.1635 0)
(1.00997 20.1256 0)
(1.00616 20.0886 0)
(1.00163 20.0524 0)
(0.996205 20.017 0)
(0.989691 19.9823 0)
(0.98187 19.9479 0)
(0.9725 19.9134 0)
(0.961311 19.8779 0)
(0.948012 19.8401 0)
(0.932287 19.798 0)
(0.913793 19.7482 0)
(0.89214 19.6849 0)
(0.8669 19.5968 0)
(0.837669 19.4602 0)
(0.804399 19.2245 0)
(0.767968 18.7883 0)
(0.725017 17.9892 0)
(0.661537 16.8435 0)
(0.516257 16.728 0)
(0.372301 18.8013 0)
(0.411081 20.897 0)
(0.480795 21.1617 0)
(0.498664 20.4569 0)
(0.479115 19.7784 0)