/*--------------------------------*- C++ -*----------------------------------*\
| =========                 |                                                 |
| \\      /  F ield         | OpenFOAM: The Open Source CFD Toolbox           |
|  \\    /   O peration     | Version:  3.0.x                                 |
|   \\  /    A nd           | Web:      www.OpenFOAM.org                      |
|    \\/     M anipulation  |                                                 |
\*---------------------------------------------------------------------------*/
FoamFile
{
    version     2.0;
    format      ascii;
    class       volVectorField;
    location    "0.16995";
    object      U;
}
// * * * * * * * * * * * * * * * * * * * * * * * * * * * * * * * * * * * * * //

dimensions      [0 1 -1 0 0 0 0];

internalField   nonuniform List<vector> 
27600
(
(42.6792 0.000288279 0)
(42.6507 0.000241683 0)
(42.6207 0.000238376 0)
(42.5915 0.000240749 0)
(42.5625 0.000243049 0)
(42.5334 0.00024511 0)
(42.5044 0.000246923 0)
(42.4756 0.000248493 0)
(42.4469 0.000249855 0)
(42.4185 0.000251046 0)
(42.3905 0.000252091 0)
(42.3629 0.000253005 0)
(42.3359 0.000253785 0)
(42.3095 0.000254409 0)
(42.2839 0.000254818 0)
(42.2592 0.000254911 0)
(42.2354 0.000254534 0)
(42.2127 0.000253469 0)
(42.1913 0.000251442 0)
(42.1711 0.000248135 0)
(42.1524 0.000243214 0)
(42.1354 0.000236347 0)
(42.12 0.000227387 0)
(42.1064 0.000216075 0)
(42.0948 0.000202547 0)
(42.0852 0.000186993 0)
(42.0777 0.000169781 0)
(42.0724 0.000151442 0)
(42.0691 0.000132579 0)
(42.0678 0.000113828 0)
(42.0684 9.57866e-05 0)
(42.0707 7.8962e-05 0)
(42.0745 6.376e-05 0)
(42.0797 5.04121e-05 0)
(42.086 3.90255e-05 0)
(42.0932 2.95783e-05 0)
(42.1011 2.19489e-05 0)
(42.1096 1.5947e-05 0)
(42.1184 1.13447e-05 0)
(42.1275 7.90273e-06 0)
(42.1367 5.39004e-06 0)
(42.146 3.5999e-06 0)
(42.1551 2.37683e-06 0)
(42.1642 1.49306e-06 0)
(42.1734 8.86148e-07 0)
(42.1825 5.82452e-07 0)
(42.1913 3.58638e-07 0)
(42.1999 2.21179e-07 0)
(42.2082 1.39403e-07 0)
(42.2164 9.40724e-08 0)
(42.2243 7.06438e-08 0)
(42.2319 5.87566e-08 0)
(42.2392 5.14026e-08 0)
(42.2461 4.63046e-08 0)
(42.2527 4.2061e-08 0)
(42.2588 3.6291e-08 0)
(42.2645 2.99233e-08 0)
(42.2696 2.2047e-08 0)
(42.2741 1.33199e-08 0)
(42.278 2.02357e-09 0)
(42.2812 -9.04918e-09 0)
(42.2837 -2.29163e-08 0)
(42.2855 -4.54892e-08 0)
(42.2864 -7.12483e-08 0)
(42.2866 -9.30268e-08 0)
(42.2859 -1.16443e-07 0)
(42.2844 -1.38069e-07 0)
(42.282 -1.46594e-07 0)
(42.2788 -1.60021e-07 0)
(42.2749 -1.71371e-07 0)
(42.2701 -1.80924e-07 0)
(42.2647 -1.89043e-07 0)
(42.2586 -1.95876e-07 0)
(42.2519 -2.01574e-07 0)
(42.2447 -2.06115e-07 0)
(42.237 -2.09411e-07 0)
(42.2289 -2.11332e-07 0)
(42.2205 -2.11758e-07 0)
(42.2119 -2.10656e-07 0)
(42.2031 -2.07926e-07 0)
(42.1942 -2.03941e-07 0)
(42.1853 -1.98917e-07 0)
(42.1765 -1.92958e-07 0)
(42.1678 -1.8611e-07 0)
(42.1592 -1.78701e-07 0)
(42.1509 -1.70565e-07 0)
(42.1429 -1.60592e-07 0)
(42.1351 -1.51379e-07 0)
(42.1277 -1.42143e-07 0)
(42.1207 -1.32646e-07 0)
(42.114 -1.22472e-07 0)
(42.1077 -1.12022e-07 0)
(42.1018 -1.01886e-07 0)
(42.0963 -9.23567e-08 0)
(42.0912 -8.34528e-08 0)
(42.0865 -7.49717e-08 0)
(42.0822 -6.67284e-08 0)
(42.0782 -5.8659e-08 0)
(42.0745 -5.08555e-08 0)
(42.0712 -4.34572e-08 0)
(42.0682 -3.66127e-08 0)
(42.0654 -3.03761e-08 0)
(42.063 -2.47292e-08 0)
(42.0608 -1.96338e-08 0)
(42.0588 -1.50866e-08 0)
(42.057 -1.10106e-08 0)
(42.0554 -7.41547e-09 0)
(42.054 -3.9412e-09 0)
(42.0528 1.1172e-10 0)
(42.0516 3.19147e-09 0)
(42.0507 5.00434e-09 0)
(42.0498 7.13928e-09 0)
(42.049 9.46087e-09 0)
(42.0484 1.03889e-08 0)
(42.0478 1.13e-08 0)
(42.0473 1.22424e-08 0)
(42.0468 1.31349e-08 0)
(42.0464 1.38959e-08 0)
(42.0461 1.4587e-08 0)
(42.0458 1.51938e-08 0)
(42.0456 1.56899e-08 0)
(42.0453 1.61249e-08 0)
(42.0452 1.64144e-08 0)
(42.045 1.66319e-08 0)
(42.0448 1.6763e-08 0)
(42.0447 1.68764e-08 0)
(42.0446 1.69778e-08 0)
(42.0445 1.71615e-08 0)
(42.0444 1.75167e-08 0)
(42.0443 1.73778e-08 0)
(42.0442 1.73991e-08 0)
(42.0441 1.74599e-08 0)
(42.044 1.91563e-08 0)
(42.0439 1.8406e-08 0)
(42.0437 1.79753e-08 0)
(42.0435 1.79223e-08 0)
(42.0433 1.73667e-08 0)
(42.043 1.79987e-08 0)
(42.0427 1.92742e-08 0)
(42.0423 2.07257e-08 0)
(42.0418 2.2099e-08 0)
(42.0412 2.34516e-08 0)
(42.0405 2.48867e-08 0)
(42.0396 2.6593e-08 0)
(42.0386 2.86412e-08 0)
(42.0374 3.10862e-08 0)
(42.0361 3.39132e-08 0)
(42.0345 3.71233e-08 0)
(42.0326 4.07314e-08 0)
(42.0304 4.47626e-08 0)
(42.0279 4.92333e-08 0)
(42.0251 5.42082e-08 0)
(42.0218 5.96484e-08 0)
(42.0181 6.54448e-08 0)
(42.0139 7.15242e-08 0)
(42.0093 7.79927e-08 0)
(42.0041 8.52476e-08 0)
(41.9984 9.26979e-08 0)
(41.9921 1.00156e-07 0)
(41.9852 1.07503e-07 0)
(41.9778 1.14709e-07 0)
(41.9697 1.21678e-07 0)
(41.9612 1.2827e-07 0)
(41.9521 1.34251e-07 0)
(41.9426 1.39463e-07 0)
(41.9326 1.43715e-07 0)
(41.9223 1.46785e-07 0)
(41.9117 1.48539e-07 0)
(41.901 1.48856e-07 0)
(41.8901 1.47596e-07 0)
(41.8793 1.44659e-07 0)
(41.8686 1.3985e-07 0)
(41.8582 1.3289e-07 0)
(41.8483 1.25086e-07 0)
(41.8388 1.15334e-07 0)
(41.83 1.02766e-07 0)
(41.822 8.84509e-08 0)
(41.8149 7.22292e-08 0)
(41.8088 5.3399e-08 0)
(41.8037 3.02362e-08 0)
(41.7998 -7.8928e-11 0)
(41.7972 -2.49788e-08 0)
(41.7957 -4.54636e-08 0)
(41.7954 -5.88057e-08 0)
(41.7963 -7.73726e-08 0)
(41.7983 -1.03981e-07 0)
(41.8015 -1.25615e-07 0)
(41.8057 -1.41032e-07 0)
(41.811 -1.56732e-07 0)
(41.8171 -1.66447e-07 0)
(41.8239 -1.5611e-07 0)
(41.8314 1.11249e-08 0)
(41.8392 8.73836e-07 0)
(41.847 5.07961e-06 0)
(41.8539 2.58883e-05 0)
(41.8551 0.000128702 0)
(41.8288 0.000630729 0)
(41.6726 0.0030332 0)
(41.2178 0.0152554 0)
(36.6942 0.0549883 0)
(42.6945 0.00046319 0)
(42.6812 0.000330466 0)
(42.6663 0.000313233 0)
(42.6524 0.000310582 0)
(42.6386 0.000308354 0)
(42.6247 0.000306553 0)
(42.6109 0.000305101 0)
(42.5972 0.000303838 0)
(42.5837 0.0003027 0)
(42.5705 0.00030166 0)
(42.5576 0.000300694 0)
(42.5452 0.000299777 0)
(42.5333 0.000298877 0)
(42.5221 0.000297938 0)
(42.5116 0.000296874 0)
(42.5019 0.000295548 0)
(42.4932 0.000293767 0)
(42.4855 0.000291268 0)
(42.4788 0.000287726 0)
(42.4733 0.000282775 0)
(42.469 0.000276033 0)
(42.466 0.000267116 0)
(42.4641 0.000255948 0)
(42.4635 0.000242155 0)
(42.4641 0.000225982 0)
(42.4658 0.000207677 0)
(42.4687 0.000187668 0)
(42.4727 0.000166582 0)
(42.4777 0.000145104 0)
(42.4835 0.000123943 0)
(42.4902 0.000103753 0)
(42.4976 8.50666e-05 0)
(42.5055 6.83192e-05 0)
(42.514 5.37189e-05 0)
(42.5228 4.13526e-05 0)
(42.532 3.11641e-05 0)
(42.5414 2.29927e-05 0)
(42.5509 1.66086e-05 0)
(42.5605 1.1747e-05 0)
(42.5702 8.13712e-06 0)
(42.5797 5.52148e-06 0)
(42.5892 3.67511e-06 0)
(42.5985 2.44358e-06 0)
(42.6077 1.50612e-06 0)
(42.617 8.88954e-07 0)
(42.6261 6.54327e-07 0)
(42.6349 4.34568e-07 0)
(42.6435 2.98481e-07 0)
(42.6519 2.17319e-07 0)
(42.66 1.737e-07 0)
(42.6679 1.53379e-07 0)
(42.6755 1.4503e-07 0)
(42.6828 1.40142e-07 0)
(42.6897 1.37075e-07 0)
(42.6963 1.33986e-07 0)
(42.7024 1.27342e-07 0)
(42.708 1.19358e-07 0)
(42.7131 1.08596e-07 0)
(42.7176 9.59906e-08 0)
(42.7215 7.9075e-08 0)
(42.7247 6.26957e-08 0)
(42.7272 4.36013e-08 0)
(42.7289 2.21721e-08 0)
(42.7299 -1.51447e-09 0)
(42.73 -2.70389e-08 0)
(42.7293 -6.14004e-08 0)
(42.7278 -9.88514e-08 0)
(42.7254 -1.12659e-07 0)
(42.7222 -1.37567e-07 0)
(42.7182 -1.60091e-07 0)
(42.7135 -1.803e-07 0)
(42.708 -1.98493e-07 0)
(42.7019 -2.14761e-07 0)
(42.6952 -2.29211e-07 0)
(42.6879 -2.41772e-07 0)
(42.6802 -2.52229e-07 0)
(42.6721 -2.6041e-07 0)
(42.6637 -2.66247e-07 0)
(42.6551 -2.69784e-07 0)
(42.6463 -2.71166e-07 0)
(42.6374 -2.70341e-07 0)
(42.6284 -2.67297e-07 0)
(42.6196 -2.62218e-07 0)
(42.6109 -2.5534e-07 0)
(42.6023 -2.47237e-07 0)
(42.594 -2.37662e-07 0)
(42.5859 -2.25045e-07 0)
(42.5781 -2.13458e-07 0)
(42.5707 -2.0149e-07 0)
(42.5636 -1.88759e-07 0)
(42.5569 -1.74718e-07 0)
(42.5506 -1.6001e-07 0)
(42.5447 -1.45482e-07 0)
(42.5392 -1.31541e-07 0)
(42.5341 -1.18265e-07 0)
(42.5294 -1.05399e-07 0)
(42.525 -9.28148e-08 0)
(42.521 -8.04621e-08 0)
(42.5173 -6.85221e-08 0)
(42.514 -5.71944e-08 0)
(42.511 -4.67087e-08 0)
(42.5082 -3.70971e-08 0)
(42.5058 -2.836e-08 0)
(42.5035 -2.04438e-08 0)
(42.5015 -1.33134e-08 0)
(42.4997 -7.01348e-09 0)
(42.4981 -1.39544e-09 0)
(42.4967 3.518e-09 0)
(42.4955 8.80982e-09 0)
(42.4943 1.31626e-08 0)
(42.4933 1.58111e-08 0)
(42.4925 1.91145e-08 0)
(42.4917 2.27781e-08 0)
(42.491 2.4013e-08 0)
(42.4904 2.53707e-08 0)
(42.4899 2.68011e-08 0)
(42.4894 2.81042e-08 0)
(42.489 2.92137e-08 0)
(42.4887 3.01786e-08 0)
(42.4884 3.09982e-08 0)
(42.4881 3.16417e-08 0)
(42.4879 3.21975e-08 0)
(42.4877 3.25102e-08 0)
(42.4875 3.2699e-08 0)
(42.4874 3.27573e-08 0)
(42.4872 3.27504e-08 0)
(42.4871 3.27221e-08 0)
(42.487 3.27532e-08 0)
(42.4869 3.29586e-08 0)
(42.4868 3.2337e-08 0)
(42.4867 3.21142e-08 0)
(42.4866 3.18938e-08 0)
(42.4864 3.49398e-08 0)
(42.4863 3.34718e-08 0)
(42.4861 3.31813e-08 0)
(42.4859 3.39316e-08 0)
(42.4857 3.33974e-08 0)
(42.4854 3.47617e-08 0)
(42.485 3.7041e-08 0)
(42.4846 3.95454e-08 0)
(42.4841 4.20153e-08 0)
(42.4835 4.45421e-08 0)
(42.4828 4.72358e-08 0)
(42.4819 5.04032e-08 0)
(42.4809 5.41036e-08 0)
(42.4797 5.84683e-08 0)
(42.4783 6.34978e-08 0)
(42.4767 6.91907e-08 0)
(42.4748 7.55825e-08 0)
(42.4727 8.27319e-08 0)
(42.4701 9.06913e-08 0)
(42.4673 9.9566e-08 0)
(42.464 1.09298e-07 0)
(42.4603 1.19713e-07 0)
(42.4561 1.30671e-07 0)
(42.4515 1.424e-07 0)
(42.4463 1.55427e-07 0)
(42.4405 1.68791e-07 0)
(42.4342 1.82206e-07 0)
(42.4274 1.95425e-07 0)
(42.4199 2.08417e-07 0)
(42.4119 2.2097e-07 0)
(42.4033 2.32756e-07 0)
(42.3942 2.4345e-07 0)
(42.3847 2.52739e-07 0)
(42.3747 2.60263e-07 0)
(42.3644 2.657e-07 0)
(42.3538 2.68756e-07 0)
(42.343 2.69224e-07 0)
(42.3322 2.66819e-07 0)
(42.3214 2.61362e-07 0)
(42.3107 2.52506e-07 0)
(42.3003 2.39887e-07 0)
(42.2903 2.25489e-07 0)
(42.2808 2.07355e-07 0)
(42.272 1.84243e-07 0)
(42.264 1.58113e-07 0)
(42.2569 1.28978e-07 0)
(42.2508 9.65306e-08 0)
(42.2457 5.92741e-08 0)
(42.2418 1.48936e-08 0)
(42.2391 -2.20834e-08 0)
(42.2376 -5.70447e-08 0)
(42.2374 -7.79965e-08 0)
(42.2382 -1.045e-07 0)
(42.2402 -1.56998e-07 0)
(42.2433 -1.93462e-07 0)
(42.2476 -2.14668e-07 0)
(42.2528 -2.368e-07 0)
(42.2589 -2.35697e-07 0)
(42.2657 -1.45664e-07 0)
(42.2731 3.70479e-07 0)
(42.2809 3.02784e-06 0)
(42.2887 1.62569e-05 0)
(42.2956 8.18158e-05 0)
(42.2967 0.000405672 0)
(42.2702 0.00198666 0)
(42.113 0.00952992 0)
(41.6494 0.0470033 0)
(37.2232 0.160367 0)
(42.6945 0.000369333 0)
(42.6812 0.000239454 0)
(42.6664 0.00023137 0)
(42.6524 0.000235354 0)
(42.6386 0.000236836 0)
(42.6248 0.000237829 0)
(42.6111 0.000238832 0)
(42.5975 0.000239802 0)
(42.584 0.000240728 0)
(42.5709 0.000241616 0)
(42.5581 0.000242466 0)
(42.5458 0.000243267 0)
(42.534 0.000243995 0)
(42.5228 0.000244609 0)
(42.5124 0.000245038 0)
(42.5029 0.000245166 0)
(42.4942 0.000244822 0)
(42.4866 0.000243775 0)
(42.4801 0.000241741 0)
(42.4747 0.000238393 0)
(42.4705 0.000233395 0)
(42.4675 0.000226406 0)
(42.4657 0.00021737 0)
(42.4652 0.000205959 0)
(42.4658 0.000192382 0)
(42.4675 0.000176894 0)
(42.4704 0.000159866 0)
(42.4744 0.000141863 0)
(42.4793 0.000123494 0)
(42.4851 0.000105387 0)
(42.4917 8.81147e-05 0)
(42.499 7.2141e-05 0)
(42.5068 5.78456e-05 0)
(42.5152 4.54017e-05 0)
(42.524 3.48812e-05 0)
(42.5331 2.62307e-05 0)
(42.5425 1.93076e-05 0)
(42.552 1.3911e-05 0)
(42.5616 9.8113e-06 0)
(42.5712 6.77519e-06 0)
(42.5807 4.58145e-06 0)
(42.5902 3.03905e-06 0)
(42.5995 2.01528e-06 0)
(42.6087 1.2208e-06 0)
(42.618 7.29882e-07 0)
(42.6271 5.46446e-07 0)
(42.6359 3.54852e-07 0)
(42.6444 2.35394e-07 0)
(42.6528 1.63028e-07 0)
(42.6609 1.22854e-07 0)
(42.6688 1.02884e-07 0)
(42.6764 9.3639e-08 0)
(42.6837 8.79745e-08 0)
(42.6907 8.42542e-08 0)
(42.6972 8.07908e-08 0)
(42.7033 7.4727e-08 0)
(42.709 6.76691e-08 0)
(42.7141 5.84444e-08 0)
(42.7186 4.75725e-08 0)
(42.7225 3.32831e-08 0)
(42.7257 1.95959e-08 0)
(42.7282 3.52747e-09 0)
(42.7299 -9.58138e-09 0)
(42.7308 -1.82608e-08 0)
(42.7309 -3.1379e-08 0)
(42.7303 -5.44771e-08 0)
(42.7288 -8.45242e-08 0)
(42.7264 -9.30176e-08 0)
(42.7232 -1.12883e-07 0)
(42.7192 -1.31877e-07 0)
(42.7144 -1.4978e-07 0)
(42.709 -1.66464e-07 0)
(42.7029 -1.81641e-07 0)
(42.6961 -1.95165e-07 0)
(42.6889 -2.06843e-07 0)
(42.6812 -2.16568e-07 0)
(42.6731 -2.24272e-07 0)
(42.6647 -2.2994e-07 0)
(42.656 -2.33608e-07 0)
(42.6472 -2.35191e-07 0)
(42.6383 -2.34695e-07 0)
(42.6294 -2.32279e-07 0)
(42.6205 -2.28205e-07 0)
(42.6118 -2.22633e-07 0)
(42.6032 -2.16013e-07 0)
(42.5949 -2.08097e-07 0)
(42.5868 -1.97744e-07 0)
(42.5791 -1.88074e-07 0)
(42.5716 -1.77989e-07 0)
(42.5646 -1.67247e-07 0)
(42.5579 -1.55445e-07 0)
(42.5516 -1.43128e-07 0)
(42.5457 -1.30996e-07 0)
(42.5402 -1.19423e-07 0)
(42.5351 -1.08433e-07 0)
(42.5303 -9.78276e-08 0)
(42.526 -8.74538e-08 0)
(42.522 -7.72756e-08 0)
(42.5183 -6.74026e-08 0)
(42.515 -5.80259e-08 0)
(42.5119 -4.93028e-08 0)
(42.5092 -4.13008e-08 0)
(42.5067 -3.39832e-08 0)
(42.5045 -2.73092e-08 0)
(42.5025 -2.12979e-08 0)
(42.5007 -1.58837e-08 0)
(42.4991 -1.11222e-08 0)
(42.4977 -7.37073e-09 0)
(42.4964 -4.25667e-09 0)
(42.4953 -1.19388e-09 0)
(42.4943 8.83443e-10 0)
(42.4934 3.59486e-09 0)
(42.4926 6.61688e-09 0)
(42.492 7.67349e-09 0)
(42.4914 8.91599e-09 0)
(42.4908 1.02066e-08 0)
(42.4904 1.13843e-08 0)
(42.49 1.23747e-08 0)
(42.4896 1.32452e-08 0)
(42.4893 1.39864e-08 0)
(42.4891 1.45822e-08 0)
(42.4888 1.51096e-08 0)
(42.4886 1.54401e-08 0)
(42.4885 1.56866e-08 0)
(42.4883 1.58416e-08 0)
(42.4882 1.59768e-08 0)
(42.488 1.61133e-08 0)
(42.4879 1.63365e-08 0)
(42.4878 1.66964e-08 0)
(42.4877 1.64691e-08 0)
(42.4876 1.65909e-08 0)
(42.4875 1.66048e-08 0)
(42.4874 1.95709e-08 0)
(42.4872 1.81569e-08 0)
(42.4871 1.79889e-08 0)
(42.4869 1.8875e-08 0)
(42.4866 1.8375e-08 0)
(42.4863 1.95369e-08 0)
(42.486 2.13717e-08 0)
(42.4856 2.33993e-08 0)
(42.485 2.54639e-08 0)
(42.4844 2.76017e-08 0)
(42.4837 2.99473e-08 0)
(42.4829 3.26846e-08 0)
(42.4819 3.58637e-08 0)
(42.4807 3.95748e-08 0)
(42.4793 4.3793e-08 0)
(42.4777 4.85361e-08 0)
(42.4758 5.38281e-08 0)
(42.4736 5.97194e-08 0)
(42.4711 6.62238e-08 0)
(42.4682 7.34228e-08 0)
(42.465 8.12489e-08 0)
(42.4613 8.95393e-08 0)
(42.4571 9.82087e-08 0)
(42.4524 1.07395e-07 0)
(42.4472 1.175e-07 0)
(42.4415 1.27713e-07 0)
(42.4352 1.37793e-07 0)
(42.4283 1.47558e-07 0)
(42.4208 1.56957e-07 0)
(42.4128 1.65818e-07 0)
(42.4043 1.73881e-07 0)
(42.3952 1.80874e-07 0)
(42.3856 1.86554e-07 0)
(42.3757 1.90639e-07 0)
(42.3654 1.92836e-07 0)
(42.3548 1.9296e-07 0)
(42.344 1.90826e-07 0)
(42.3331 1.86235e-07 0)
(42.3223 1.79055e-07 0)
(42.3116 1.69013e-07 0)
(42.3012 1.55926e-07 0)
(42.2912 1.41234e-07 0)
(42.2818 1.23366e-07 0)
(42.273 1.01408e-07 0)
(42.265 7.71575e-08 0)
(42.2578 5.12178e-08 0)
(42.2517 2.44294e-08 0)
(42.2466 -2.93507e-09 0)
(42.2427 -2.89836e-08 0)
(42.24 -5.43622e-08 0)
(42.2386 -8.40307e-08 0)
(42.2383 -1.00699e-07 0)
(42.2391 -1.12023e-07 0)
(42.2411 -1.69834e-07 0)
(42.2442 -2.00191e-07 0)
(42.2485 -2.08164e-07 0)
(42.2537 -2.20076e-07 0)
(42.2598 -1.95112e-07 0)
(42.2667 -1.51053e-08 0)
(42.2741 9.18958e-07 0)
(42.2818 5.60628e-06 0)
(42.2897 2.91471e-05 0)
(42.2966 0.000145917 0)
(42.2978 0.000722889 0)
(42.272 0.00354225 0)
(42.1181 0.0169932 0)
(41.6691 0.0835625 0)
(37.3512 0.281568 0)
(42.6945 0.00037545 0)
(42.6812 0.000277472 0)
(42.6664 0.000271008 0)
(42.6524 0.000276112 0)
(42.6386 0.000277207 0)
(42.6248 0.0002774 0)
(42.6111 0.000277492 0)
(42.5975 0.000277442 0)
(42.584 0.000277271 0)
(42.5709 0.00027702 0)
(42.5581 0.000276714 0)
(42.5457 0.000276359 0)
(42.534 0.000275945 0)
(42.5228 0.000275437 0)
(42.5124 0.000274766 0)
(42.5028 0.000273812 0)
(42.4942 0.0002724 0)
(42.4866 0.000270289 0)
(42.4801 0.000267181 0)
(42.4747 0.000262732 0)
(42.4705 0.000256591 0)
(42.4675 0.000248402 0)
(42.4657 0.000238078 0)
(42.4652 0.000225315 0)
(42.4658 0.000210284 0)
(42.4675 0.000193274 0)
(42.4704 0.00017466 0)
(42.4744 0.000155037 0)
(42.4793 0.000135044 0)
(42.4851 0.000115346 0)
(42.4917 9.65527e-05 0)
(42.499 7.91605e-05 0)
(42.5068 6.35749e-05 0)
(42.5152 4.99888e-05 0)
(42.524 3.84827e-05 0)
(42.5331 2.90037e-05 0)
(42.5425 2.14017e-05 0)
(42.552 1.54628e-05 0)
(42.5616 1.09402e-05 0)
(42.5712 7.58205e-06 0)
(42.5807 5.14866e-06 0)
(42.5902 3.43195e-06 0)
(42.5995 2.28168e-06 0)
(42.6087 1.40679e-06 0)
(42.618 8.50468e-07 0)
(42.6271 6.08393e-07 0)
(42.6359 3.92759e-07 0)
(42.6445 2.61742e-07 0)
(42.6528 1.84281e-07 0)
(42.6609 1.42338e-07 0)
(42.6688 1.21979e-07 0)
(42.6764 1.12893e-07 0)
(42.6837 1.07458e-07 0)
(42.6907 1.03741e-07 0)
(42.6972 1.00266e-07 0)
(42.7033 9.4343e-08 0)
(42.709 8.72832e-08 0)
(42.7141 7.79341e-08 0)
(42.7186 6.71976e-08 0)
(42.7225 5.26732e-08 0)
(42.7257 3.80253e-08 0)
(42.7282 2.00839e-08 0)
(42.7299 -3.62233e-09 0)
(42.7308 -2.43174e-08 0)
(42.7309 -4.31712e-08 0)
(42.7303 -6.82561e-08 0)
(42.7288 -9.73697e-08 0)
(42.7264 -1.05535e-07 0)
(42.7232 -1.23934e-07 0)
(42.7192 -1.41458e-07 0)
(42.7144 -1.57965e-07 0)
(42.709 -1.73316e-07 0)
(42.7029 -1.87201e-07 0)
(42.6961 -1.99388e-07 0)
(42.6889 -2.09717e-07 0)
(42.6812 -2.18111e-07 0)
(42.6731 -2.2451e-07 0)
(42.6647 -2.28793e-07 0)
(42.656 -2.30938e-07 0)
(42.6472 -2.3084e-07 0)
(42.6383 -2.28946e-07 0)
(42.6294 -2.25552e-07 0)
(42.6205 -2.20732e-07 0)
(42.6118 -2.1458e-07 0)
(42.6032 -2.07478e-07 0)
(42.5949 -1.99183e-07 0)
(42.5868 -1.88448e-07 0)
(42.5791 -1.78397e-07 0)
(42.5717 -1.68164e-07 0)
(42.5646 -1.57339e-07 0)
(42.5579 -1.45467e-07 0)
(42.5516 -1.33036e-07 0)
(42.5457 -1.2074e-07 0)
(42.5402 -1.08996e-07 0)
(42.5351 -9.77983e-08 0)
(42.5303 -8.69827e-08 0)
(42.526 -7.64254e-08 0)
(42.522 -6.60332e-08 0)
(42.5183 -5.59624e-08 0)
(42.515 -4.64024e-08 0)
(42.5119 -3.75288e-08 0)
(42.5092 -2.93678e-08 0)
(42.5067 -2.19082e-08 0)
(42.5045 -1.51107e-08 0)
(42.5025 -9.08853e-09 0)
(42.5007 -3.49803e-09 0)
(42.4991 1.38572e-09 0)
(42.4977 5.94619e-09 0)
(42.4964 9.84605e-09 0)
(42.4953 1.304e-08 0)
(42.4943 1.51528e-08 0)
(42.4934 1.78207e-08 0)
(42.4926 2.08319e-08 0)
(42.492 2.19276e-08 0)
(42.4914 2.31202e-08 0)
(42.4908 2.43898e-08 0)
(42.4904 2.55694e-08 0)
(42.49 2.65722e-08 0)
(42.4896 2.74581e-08 0)
(42.4893 2.82297e-08 0)
(42.4891 2.88518e-08 0)
(42.4888 2.93912e-08 0)
(42.4886 2.97058e-08 0)
(42.4885 2.99235e-08 0)
(42.4883 3.00223e-08 0)
(42.4882 3.00693e-08 0)
(42.4881 3.00967e-08 0)
(42.4879 3.0185e-08 0)
(42.4878 3.03742e-08 0)
(42.4877 2.99241e-08 0)
(42.4876 2.97568e-08 0)
(42.4875 2.97317e-08 0)
(42.4874 3.25859e-08 0)
(42.4872 3.13217e-08 0)
(42.4871 3.11752e-08 0)
(42.4869 3.1979e-08 0)
(42.4866 3.15976e-08 0)
(42.4863 3.29337e-08 0)
(42.486 3.49988e-08 0)
(42.4856 3.72339e-08 0)
(42.485 3.93996e-08 0)
(42.4844 4.1567e-08 0)
(42.4837 4.38598e-08 0)
(42.4829 4.65212e-08 0)
(42.4819 4.96414e-08 0)
(42.4807 5.32955e-08 0)
(42.4793 5.74817e-08 0)
(42.4777 6.22152e-08 0)
(42.4758 6.75143e-08 0)
(42.4736 7.34219e-08 0)
(42.4711 7.99706e-08 0)
(42.4682 8.72408e-08 0)
(42.465 9.51812e-08 0)
(42.4613 1.03626e-07 0)
(42.4571 1.12454e-07 0)
(42.4524 1.21831e-07 0)
(42.4472 1.32217e-07 0)
(42.4415 1.42847e-07 0)
(42.4352 1.53456e-07 0)
(42.4283 1.63841e-07 0)
(42.4208 1.73968e-07 0)
(42.4128 1.83675e-07 0)
(42.4043 1.92724e-07 0)
(42.3952 2.00835e-07 0)
(42.3856 2.07758e-07 0)
(42.3757 2.1322e-07 0)
(42.3654 2.16941e-07 0)
(42.3548 2.18721e-07 0)
(42.344 2.18375e-07 0)
(42.3331 2.15709e-07 0)
(42.3223 2.10564e-07 0)
(42.3116 2.02665e-07 0)
(42.3012 1.91727e-07 0)
(42.2912 1.79324e-07 0)
(42.2818 1.63938e-07 0)
(42.273 1.44315e-07 0)
(42.265 1.22239e-07 0)
(42.2578 9.84323e-08 0)
(42.2517 7.35421e-08 0)
(42.2466 4.73021e-08 0)
(42.2427 1.98152e-08 0)
(42.24 -1.05565e-08 0)
(42.2386 -4.09929e-08 0)
(42.2383 -5.93865e-08 0)
(42.2391 -5.95371e-08 0)
(42.2411 -1.30382e-07 0)
(42.2443 -1.64127e-07 0)
(42.2485 -1.657e-07 0)
(42.2537 -1.76048e-07 0)
(42.2598 -1.35115e-07 0)
(42.2667 1.24973e-07 0)
(42.2741 1.55019e-06 0)
(42.2818 8.56194e-06 0)
(42.2897 4.37275e-05 0)
(42.2966 0.00021816 0)
(42.2979 0.00108032 0)
(42.2723 0.00529766 0)
(42.1195 0.0254059 0)
(41.6745 0.124815 0)
(37.4595 0.416249 0)
(42.6945 0.000352139 0)
(42.6812 0.000252747 0)
(42.6664 0.000234056 0)
(42.6524 0.000235176 0)
(42.6386 0.000233973 0)
(42.6248 0.000232874 0)
(42.6111 0.000232421 0)
(42.5974 0.000232266 0)
(42.584 0.000232264 0)
(42.5709 0.000232365 0)
(42.5581 0.00023253 0)
(42.5457 0.000232726 0)
(42.5339 0.000232915 0)
(42.5228 0.000233048 0)
(42.5124 0.00023305 0)
(42.5028 0.000232806 0)
(42.4942 0.000232154 0)
(42.4866 0.000230876 0)
(42.4801 0.000228705 0)
(42.4747 0.000225333 0)
(42.4705 0.000220448 0)
(42.4675 0.000213733 0)
(42.4657 0.000205112 0)
(42.4652 0.000194319 0)
(42.4658 0.000181488 0)
(42.4675 0.000166901 0)
(42.4704 0.000150871 0)
(42.4744 0.000133933 0)
(42.4793 0.000116649 0)
(42.4851 9.96055e-05 0)
(42.4917 8.33386e-05 0)
(42.4989 6.82843e-05 0)
(42.5068 5.47995e-05 0)
(42.5152 4.30508e-05 0)
(42.524 3.31078e-05 0)
(42.5331 2.49233e-05 0)
(42.5425 1.83659e-05 0)
(42.552 1.32485e-05 0)
(42.5616 9.35602e-06 0)
(42.5712 6.46965e-06 0)
(42.5807 4.38127e-06 0)
(42.5902 2.91155e-06 0)
(42.5995 1.93144e-06 0)
(42.6087 1.17853e-06 0)
(42.618 7.02798e-07 0)
(42.6271 5.10274e-07 0)
(42.6359 3.33347e-07 0)
(42.6445 2.22548e-07 0)
(42.6528 1.56019e-07 0)
(42.6609 1.19818e-07 0)
(42.6688 1.02635e-07 0)
(42.6764 9.53923e-08 0)
(42.6837 9.13311e-08 0)
(42.6907 8.85586e-08 0)
(42.6972 8.59124e-08 0)
(42.7033 8.07143e-08 0)
(42.709 7.43884e-08 0)
(42.7141 6.58174e-08 0)
(42.7186 5.57741e-08 0)
(42.7225 4.23661e-08 0)
(42.7257 2.88212e-08 0)
(42.7282 1.31538e-08 0)
(42.7299 -4.38472e-09 0)
(42.7308 -2.3182e-08 0)
(42.7309 -4.11395e-08 0)
(42.7303 -6.58425e-08 0)
(42.7288 -9.3802e-08 0)
(42.7264 -1.02482e-07 0)
(42.7232 -1.20587e-07 0)
(42.7192 -1.37845e-07 0)
(42.7144 -1.53986e-07 0)
(42.709 -1.68919e-07 0)
(42.7029 -1.8238e-07 0)
(42.6961 -1.94236e-07 0)
(42.6889 -2.04351e-07 0)
(42.6812 -2.12638e-07 0)
(42.6731 -2.19022e-07 0)
(42.6647 -2.23436e-07 0)
(42.656 -2.2598e-07 0)
(42.6472 -2.26762e-07 0)
(42.6383 -2.25929e-07 0)
(42.6294 -2.23452e-07 0)
(42.6205 -2.1939e-07 0)
(42.6118 -2.13912e-07 0)
(42.6032 -2.07443e-07 0)
(42.5949 -1.9972e-07 0)
(42.5868 -1.89676e-07 0)
(42.5791 -1.8026e-07 0)
(42.5717 -1.70622e-07 0)
(42.5646 -1.60304e-07 0)
(42.5579 -1.48971e-07 0)
(42.5516 -1.37157e-07 0)
(42.5457 -1.25529e-07 0)
(42.5402 -1.14408e-07 0)
(42.5351 -1.03827e-07 0)
(42.5303 -9.36177e-08 0)
(42.526 -8.36203e-08 0)
(42.522 -7.38173e-08 0)
(42.5183 -6.43436e-08 0)
(42.515 -5.5348e-08 0)
(42.5119 -4.70044e-08 0)
(42.5092 -3.93535e-08 0)
(42.5067 -3.2391e-08 0)
(42.5045 -2.60578e-08 0)
(42.5025 -2.03071e-08 0)
(42.5007 -1.52269e-08 0)
(42.4991 -1.06713e-08 0)
(42.4977 -6.72403e-09 0)
(42.4964 -3.27794e-09 0)
(42.4953 -2.96419e-10 0)
(42.4943 1.70867e-09 0)
(42.4934 4.26704e-09 0)
(42.4926 7.13305e-09 0)
(42.492 8.19129e-09 0)
(42.4914 9.33033e-09 0)
(42.4908 1.05358e-08 0)
(42.4904 1.16339e-08 0)
(42.49 1.25725e-08 0)
(42.4896 1.33802e-08 0)
(42.4893 1.40715e-08 0)
(42.4891 1.46473e-08 0)
(42.4888 1.51325e-08 0)
(42.4886 1.54074e-08 0)
(42.4885 1.56257e-08 0)
(42.4883 1.57348e-08 0)
(42.4882 1.58265e-08 0)
(42.4881 1.59097e-08 0)
(42.4879 1.60715e-08 0)
(42.4878 1.63191e-08 0)
(42.4877 1.60621e-08 0)
(42.4876 1.60238e-08 0)
(42.4875 1.61253e-08 0)
(42.4874 1.87055e-08 0)
(42.4872 1.73849e-08 0)
(42.4871 1.71614e-08 0)
(42.4869 1.78461e-08 0)
(42.4866 1.73898e-08 0)
(42.4863 1.84528e-08 0)
(42.486 2.01774e-08 0)
(42.4856 2.20907e-08 0)
(42.485 2.40385e-08 0)
(42.4844 2.60339e-08 0)
(42.4837 2.82112e-08 0)
(42.4829 3.0756e-08 0)
(42.4819 3.37076e-08 0)
(42.4807 3.71564e-08 0)
(42.4793 4.11051e-08 0)
(42.4777 4.55547e-08 0)
(42.4758 5.05403e-08 0)
(42.4736 5.60931e-08 0)
(42.4711 6.22475e-08 0)
(42.4682 6.9093e-08 0)
(42.465 7.6559e-08 0)
(42.4613 8.4505e-08 0)
(42.4571 9.28363e-08 0)
(42.4524 1.01718e-07 0)
(42.4472 1.11538e-07 0)
(42.4415 1.21575e-07 0)
(42.4352 1.31552e-07 0)
(42.4283 1.41309e-07 0)
(42.4208 1.508e-07 0)
(42.4128 1.59862e-07 0)
(42.4043 1.68253e-07 0)
(42.3952 1.75701e-07 0)
(42.3856 1.81954e-07 0)
(42.3757 1.86766e-07 0)
(42.3654 1.89849e-07 0)
(42.3548 1.91002e-07 0)
(42.344 1.90036e-07 0)
(42.3331 1.86771e-07 0)
(42.3223 1.81029e-07 0)
(42.3116 1.72562e-07 0)
(42.3012 1.61167e-07 0)
(42.2912 1.4822e-07 0)
(42.2818 1.32292e-07 0)
(42.273 1.12228e-07 0)
(42.265 8.98081e-08 0)
(42.2578 6.56518e-08 0)
(42.2517 4.03576e-08 0)
(42.2466 1.34869e-08 0)
(42.2427 -1.53336e-08 0)
(42.24 -4.44266e-08 0)
(42.2386 -7.3908e-08 0)
(42.2383 -9.27382e-08 0)
(42.2391 -7.82427e-08 0)
(42.2411 -1.62807e-07 0)
(42.2443 -1.97841e-07 0)
(42.2485 -1.90134e-07 0)
(42.2537 -1.94582e-07 0)
(42.2598 -1.28031e-07 0)
(42.2667 2.39108e-07 0)
(42.2741 2.20659e-06 0)
(42.2818 1.18663e-05 0)
(42.2897 6.02912e-05 0)
(42.2966 0.000300488 0)
(42.298 0.00148801 0)
(42.2727 0.00730186 0)
(42.1216 0.0349954 0)
(41.6817 0.171502 0)
(37.5777 0.565723 0)
(42.6944 0.000330692 0)
(42.6812 0.000245847 0)
(42.6663 0.000230195 0)
(42.6524 0.000236478 0)
(42.6386 0.000238551 0)
(42.6248 0.000239338 0)
(42.611 0.00024008 0)
(42.5974 0.000240667 0)
(42.584 0.000241098 0)
(42.5709 0.000241423 0)
(42.5581 0.000241667 0)
(42.5457 0.000241839 0)
(42.5339 0.000241932 0)
(42.5228 0.000241917 0)
(42.5124 0.000241733 0)
(42.5028 0.000241278 0)
(42.4942 0.000240396 0)
(42.4866 0.000238872 0)
(42.48 0.000236442 0)
(42.4747 0.000232799 0)
(42.4705 0.000227625 0)
(42.4675 0.000220607 0)
(42.4657 0.000211648 0)
(42.4652 0.000200507 0)
(42.4658 0.000187286 0)
(42.4675 0.000172284 0)
(42.4704 0.000155812 0)
(42.4744 0.000138406 0)
(42.4793 0.00012064 0)
(42.4851 0.000103109 0)
(42.4917 8.6362e-05 0)
(42.4989 7.08468e-05 0)
(42.5068 5.69297e-05 0)
(42.5152 4.4788e-05 0)
(42.524 3.44969e-05 0)
(42.5331 2.60127e-05 0)
(42.5425 1.92038e-05 0)
(42.552 1.38809e-05 0)
(42.5616 9.82497e-06 0)
(42.5712 6.81157e-06 0)
(42.5807 4.62685e-06 0)
(42.5902 3.0857e-06 0)
(42.5995 2.05056e-06 0)
(42.6087 1.2656e-06 0)
(42.618 7.65755e-07 0)
(42.6271 5.46895e-07 0)
(42.6359 3.58787e-07 0)
(42.6445 2.40356e-07 0)
(42.6528 1.69997e-07 0)
(42.6609 1.31341e-07 0)
(42.6688 1.12174e-07 0)
(42.6764 1.03301e-07 0)
(42.6837 9.80309e-08 0)
(42.6907 9.45756e-08 0)
(42.6972 9.1394e-08 0)
(42.7033 8.58043e-08 0)
(42.709 7.92692e-08 0)
(42.7141 7.09969e-08 0)
(42.7186 6.07527e-08 0)
(42.7225 4.79175e-08 0)
(42.7257 3.51507e-08 0)
(42.7282 1.95346e-08 0)
(42.7299 4.3239e-09 0)
(42.7308 -1.24704e-08 0)
(42.7309 -2.88656e-08 0)
(42.7303 -5.22287e-08 0)
(42.7288 -7.81101e-08 0)
(42.7264 -8.64862e-08 0)
(42.7232 -1.03541e-07 0)
(42.7192 -1.19929e-07 0)
(42.7144 -1.35365e-07 0)
(42.709 -1.49728e-07 0)
(42.7029 -1.62763e-07 0)
(42.6961 -1.74313e-07 0)
(42.6889 -1.84225e-07 0)
(42.6812 -1.92413e-07 0)
(42.6731 -1.98826e-07 0)
(42.6647 -2.03397e-07 0)
(42.656 -2.06167e-07 0)
(42.6472 -2.07224e-07 0)
(42.6383 -2.06429e-07 0)
(42.6294 -2.03875e-07 0)
(42.6205 -1.99774e-07 0)
(42.6118 -1.94372e-07 0)
(42.6032 -1.8805e-07 0)
(42.5949 -1.80585e-07 0)
(42.5868 -1.70961e-07 0)
(42.5791 -1.61841e-07 0)
(42.5717 -1.52586e-07 0)
(42.5646 -1.42746e-07 0)
(42.5579 -1.31957e-07 0)
(42.5516 -1.20684e-07 0)
(42.5457 -1.09542e-07 0)
(42.5402 -9.88972e-08 0)
(42.5351 -8.87763e-08 0)
(42.5303 -7.90038e-08 0)
(42.526 -6.94572e-08 0)
(42.522 -6.00805e-08 0)
(42.5183 -5.0992e-08 0)
(42.515 -4.23643e-08 0)
(42.5119 -3.43597e-08 0)
(42.5092 -2.70039e-08 0)
(42.5067 -2.02871e-08 0)
(42.5045 -1.41788e-08 0)
(42.5025 -8.69199e-09 0)
(42.5007 -3.74133e-09 0)
(42.4991 6.55013e-10 0)
(42.4977 4.52805e-09 0)
(42.4964 7.87133e-09 0)
(42.4953 1.07102e-08 0)
(42.4943 1.26374e-08 0)
(42.4934 1.5054e-08 0)
(42.4926 1.77671e-08 0)
(42.492 1.88007e-08 0)
(42.4914 1.98746e-08 0)
(42.4908 2.10335e-08 0)
(42.4904 2.20892e-08 0)
(42.49 2.29911e-08 0)
(42.4896 2.37884e-08 0)
(42.4893 2.44677e-08 0)
(42.4891 2.50509e-08 0)
(42.4888 2.55296e-08 0)
(42.4886 2.581e-08 0)
(42.4885 2.60214e-08 0)
(42.4883 2.61357e-08 0)
(42.4882 2.62102e-08 0)
(42.4881 2.62692e-08 0)
(42.4879 2.64124e-08 0)
(42.4878 2.65954e-08 0)
(42.4877 2.63371e-08 0)
(42.4876 2.61932e-08 0)
(42.4875 2.63473e-08 0)
(42.4874 2.88162e-08 0)
(42.4872 2.76994e-08 0)
(42.4871 2.75725e-08 0)
(42.4869 2.8254e-08 0)
(42.4866 2.79363e-08 0)
(42.4863 2.90647e-08 0)
(42.486 3.08524e-08 0)
(42.4856 3.28038e-08 0)
(42.485 3.47409e-08 0)
(42.4844 3.66857e-08 0)
(42.4837 3.87889e-08 0)
(42.4829 4.12205e-08 0)
(42.4819 4.40649e-08 0)
(42.4807 4.73922e-08 0)
(42.4793 5.1197e-08 0)
(42.4777 5.54954e-08 0)
(42.4758 6.03082e-08 0)
(42.4736 6.56663e-08 0)
(42.4711 7.15998e-08 0)
(42.4682 7.81895e-08 0)
(42.465 8.53867e-08 0)
(42.4613 9.30332e-08 0)
(42.4571 1.01033e-07 0)
(42.4524 1.09527e-07 0)
(42.4472 1.18922e-07 0)
(42.4415 1.28533e-07 0)
(42.4352 1.38088e-07 0)
(42.4283 1.47426e-07 0)
(42.4208 1.56508e-07 0)
(42.4128 1.65182e-07 0)
(42.4043 1.73221e-07 0)
(42.3952 1.80384e-07 0)
(42.3856 1.86429e-07 0)
(42.3757 1.91107e-07 0)
(42.3654 1.94166e-07 0)
(42.3548 1.9541e-07 0)
(42.344 1.94675e-07 0)
(42.3331 1.91785e-07 0)
(42.3223 1.86572e-07 0)
(42.3116 1.78797e-07 0)
(42.3012 1.68274e-07 0)
(42.2912 1.56282e-07 0)
(42.2818 1.41553e-07 0)
(42.273 1.2293e-07 0)
(42.265 1.02051e-07 0)
(42.2578 7.95637e-08 0)
(42.2517 5.61058e-08 0)
(42.2466 3.13711e-08 0)
(42.2427 6.08109e-09 0)
(42.24 -1.99403e-08 0)
(42.2386 -4.7874e-08 0)
(42.2383 -6.74087e-08 0)
(42.2391 -3.66554e-08 0)
(42.2411 -1.36904e-07 0)
(42.2443 -1.73584e-07 0)
(42.2485 -1.55576e-07 0)
(42.2537 -1.55006e-07 0)
(42.2598 -6.49494e-08 0)
(42.2667 4.18992e-07 0)
(42.2741 2.998e-06 0)
(42.2818 1.56579e-05 0)
(42.2897 7.91296e-05 0)
(42.2966 0.000393989 0)
(42.2981 0.00195109 0)
(42.2734 0.00958041 0)
(42.125 0.0458738 0)
(41.6924 0.224061 0)
(37.7168 0.728331 0)
(42.6944 0.000273634 0)
(42.6811 0.000212612 0)
(42.6663 0.00019306 0)
(42.6524 0.000196563 0)
(42.6386 0.000196072 0)
(42.6248 0.000194078 0)
(42.611 0.00019242 0)
(42.5974 0.000190993 0)
(42.584 0.000189718 0)
(42.5708 0.000188601 0)
(42.558 0.000187625 0)
(42.5457 0.00018676 0)
(42.5339 0.000185971 0)
(42.5228 0.00018521 0)