/*--------------------------------*- C++ -*----------------------------------*\
| =========                 |                                                 |
| \\      /  F ield         | OpenFOAM: The Open Source CFD Toolbox           |
|  \\    /   O peration     | Version:  3.0.x                                 |
|   \\  /    A nd           | Web:      www.OpenFOAM.org                      |
|    \\/     M anipulation  |                                                 |
\*---------------------------------------------------------------------------*/
FoamFile
{
    version     2.0;
    format      ascii;
    class       volScalarField;
    location    "0.51";
    object      p;
}
// * * * * * * * * * * * * * * * * * * * * * * * * * * * * * * * * * * * * * //

dimensions      [1 -1 -2 0 0 0 0];

internalField   nonuniform List<scalar> 
6900
(
1.82809e+07
1.8281e+07
1.82813e+07
1.82816e+07
1.82819e+07
1.82823e+07
1.82827e+07
1.82832e+07
1.82837e+07
1.82843e+07
1.82849e+07
1.82856e+07
1.82863e+07
1.8287e+07
1.82878e+07
1.82886e+07
1.82895e+07
1.82904e+07
1.82914e+07
1.82924e+07
1.82934e+07
1.82945e+07
1.82956e+07
1.82967e+07
1.82979e+07
1.82992e+07
1.83004e+07
1.83017e+07
1.83031e+07
1.83045e+07
1.83059e+07
1.83074e+07
1.83089e+07
1.83105e+07
1.83121e+07
1.83138e+07
1.83155e+07
1.83172e+07
1.8319e+07
1.83209e+07
1.83228e+07
1.83247e+07
1.83267e+07
1.83287e+07
1.83308e+07
1.8333e+07
1.83351e+07
1.83374e+07
1.83396e+07
1.83419e+07
1.83443e+07
1.83467e+07
1.83491e+07
1.83516e+07
1.83541e+07
1.83566e+07
1.83592e+07
1.83618e+07
1.83645e+07
1.83672e+07
1.83699e+07
1.83727e+07
1.83754e+07
1.83783e+07
1.83811e+07
1.8384e+07
1.83869e+07
1.83899e+07
1.83929e+07
1.83959e+07
1.83989e+07
1.8402e+07
1.84052e+07
1.84083e+07
1.84116e+07
1.84148e+07
1.84181e+07
1.84214e+07
1.84248e+07
1.84282e+07
1.84317e+07
1.84352e+07
1.84387e+07
1.84423e+07
1.84459e+07
1.84496e+07
1.84533e+07
1.84571e+07
1.84609e+07
1.84647e+07
1.84685e+07
1.84724e+07
1.84764e+07
1.84803e+07
1.84843e+07
1.84883e+07
1.84924e+07
1.84965e+07
1.85006e+07
1.85047e+07
1.85088e+07
1.8513e+07
1.85172e+07
1.85214e+07
1.85257e+07
1.85299e+07
1.85342e+07
1.85386e+07
1.85429e+07
1.85473e+07
1.85517e+07
1.85561e+07
1.85605e+07
1.8565e+07
1.85695e+07
1.8574e+07
1.85786e+07
1.85831e+07
1.85877e+07
1.85924e+07
1.85971e+07
1.86018e+07
1.86065e+07
1.86112e+07
1.8616e+07
1.86209e+07
1.86257e+07
1.86306e+07
1.86355e+07
1.86404e+07
1.86454e+07
1.86504e+07
1.86554e+07
1.86605e+07
1.86655e+07
1.86706e+07
1.86757e+07
1.86809e+07
1.86861e+07
1.86912e+07
1.86964e+07
1.87016e+07
1.87069e+07
1.87121e+07
1.87174e+07
1.87226e+07
1.87279e+07
1.87332e+07
1.87385e+07
1.87438e+07
1.87491e+07
1.87545e+07
1.87598e+07
1.87651e+07
1.87705e+07
1.87759e+07
1.87812e+07
1.87866e+07
1.8792e+07
1.87974e+07
1.88028e+07
1.88082e+07
1.88136e+07
1.88191e+07
1.88245e+07
1.88299e+07
1.88354e+07
1.88408e+07
1.88463e+07
1.88518e+07
1.88572e+07
1.88627e+07
1.88682e+07
1.88737e+07
1.88792e+07
1.88847e+07
1.88901e+07
1.88956e+07
1.89011e+07
1.89066e+07
1.89121e+07
1.89176e+07
1.89231e+07
1.89286e+07
1.89341e+07
1.89396e+07
1.89451e+07
1.89506e+07
1.89561e+07
1.89616e+07
1.89671e+07
1.89726e+07
1.89781e+07
1.89836e+07
1.89891e+07
1.89946e+07
1.90001e+07
1.90055e+07
1.9011e+07
1.90165e+07
1.82809e+07
1.8281e+07
1.82813e+07
1.82816e+07
1.82819e+07
1.82823e+07
1.82827e+07
1.82832e+07
1.82837e+07
1.82843e+07
1.82849e+07
1.82856e+07
1.82863e+07
1.8287e+07
1.82878e+07
1.82886e+07
1.82895e+07
1.82904e+07
1.82914e+07
1.82924e+07
1.82934e+07
1.82945e+07
1.82956e+07
1.82967e+07
1.82979e+07
1.82992e+07
1.83004e+07
1.83017e+07
1.83031e+07
1.83045e+07
1.83059e+07
1.83074e+07
1.83089e+07
1.83105e+07
1.83121e+07
1.83138e+07
1.83155e+07
1.83172e+07
1.8319e+07
1.83209e+07
1.83228e+07
1.83247e+07
1.83267e+07
1.83287e+07
1.83308e+07
1.8333e+07
1.83351e+07
1.83374e+07
1.83396e+07
1.83419e+07
1.83443e+07
1.83467e+07
1.83491e+07
1.83516e+07
1.83541e+07
1.83566e+07
1.83592e+07
1.83618e+07
1.83645e+07
1.83672e+07
1.83699e+07
1.83727e+07
1.83754e+07
1.83783e+07
1.83811e+07
1.8384e+07
1.83869e+07
1.83899e+07
1.83929e+07
1.83959e+07
1.83989e+07
1.8402e+07
1.84052e+07
1.84083e+07
1.84116e+07
1.84148e+07
1.84181e+07
1.84214e+07
1.84248e+07
1.84282e+07
1.84317e+07
1.84352e+07
1.84387e+07
1.84423e+07
1.84459e+07
1.84496e+07
1.84533e+07
1.84571e+07
1.84609e+07
1.84647e+07
1.84685e+07
1.84724e+07
1.84764e+07
1.84803e+07
1.84843e+07
1.84883e+07
1.84924e+07
1.84965e+07
1.85006e+07
1.85047e+07
1.85088e+07
1.8513e+07
1.85172e+07
1.85214e+07
1.85257e+07
1.85299e+07
1.85342e+07
1.85386e+07
1.85429e+07
1.85473e+07
1.85517e+07
1.85561e+07
1.85605e+07
1.8565e+07
1.85695e+07
1.8574e+07
1.85786e+07
1.85831e+07
1.85877e+07
1.85924e+07
1.85971e+07
1.86018e+07
1.86065e+07
1.86112e+07
1.8616e+07
1.86209e+07
1.86257e+07
1.86306e+07
1.86355e+07
1.86404e+07
1.86454e+07
1.86504e+07
1.86554e+07
1.86605e+07
1.86655e+07
1.86706e+07
1.86757e+07
1.86809e+07
1.86861e+07
1.86912e+07
1.86964e+07
1.87016e+07
1.87069e+07
1.87121e+07
1.87174e+07
1.87226e+07
1.87279e+07
1.87332e+07
1.87385e+07
1.87438e+07
1.87491e+07
1.87545e+07
1.87598e+07
1.87651e+07
1.87705e+07
1.87759e+07
1.87812e+07
1.87866e+07
1.8792e+07
1.87974e+07
1.88028e+07
1.88082e+07
1.88136e+07
1.88191e+07
1.88245e+07
1.88299e+07
1.88354e+07
1.88408e+07
1.88463e+07
1.88518e+07
1.88572e+07
1.88627e+07
1.88682e+07
1.88737e+07
1.88792e+07
1.88847e+07
1.88901e+07
1.88956e+07
1.89011e+07
1.89066e+07
1.89121e+07
1.89176e+07
1.89231e+07
1.89286e+07
1.89341e+07
1.89396e+07
1.89451e+07
1.89506e+07
1.89561e+07
1.89616e+07
1.89671e+07
1.89726e+07
1.89781e+07
1.89836e+07
1.89891e+07
1.89946e+07
1.90001e+07
1.90055e+07
1.9011e+07
1.90165e+07
1.82809e+07
1.8281e+07
1.82813e+07
1.82816e+07
1.82819e+07
1.82823e+07
1.82827e+07
1.82832e+07
1.82837e+07
1.82843e+07
1.82849e+07
1.82856e+07
1.82863e+07
1.8287e+07
1.82878e+07
1.82886e+07
1.82895e+07
1.82904e+07
1.82914e+07
1.82924e+07
1.82934e+07
1.82945e+07
1.82956e+07
1.82967e+07
1.82979e+07
1.82992e+07
1.83004e+07
1.83017e+07
1.83031e+07
1.83045e+07
1.83059e+07
1.83074e+07
1.83089e+07
1.83105e+07
1.83121e+07
1.83138e+07
1.83155e+07
1.83172e+07
1.8319e+07
1.83209e+07
1.83228e+07
1.83247e+07
1.83267e+07
1.83287e+07
1.83308e+07
1.8333e+07
1.83351e+07
1.83374e+07
1.83396e+07
1.83419e+07
1.83443e+07
1.83467e+07
1.83491e+07
1.83516e+07
1.83541e+07
1.83566e+07
1.83592e+07
1.83618e+07
1.83645e+07
1.83672e+07
1.83699e+07
1.83727e+07
1.83754e+07
1.83783e+07
1.83811e+07
1.8384e+07
1.83869e+07
1.83899e+07
1.83929e+07
1.83959e+07
1.83989e+07
1.8402e+07
1.84052e+07
1.84083e+07
1.84116e+07
1.84148e+07
1.84181e+07
1.84214e+07
1.84248e+07
1.84282e+07
1.84317e+07
1.84352e+07
1.84387e+07
1.84423e+07
1.84459e+07
1.84496e+07
1.84533e+07
1.84571e+07
1.84609e+07
1.84647e+07
1.84685e+07
1.84724e+07
1.84764e+07
1.84803e+07
1.84843e+07
1.84883e+07
1.84924e+07
1.84965e+07
1.85006e+07
1.85047e+07
1.85088e+07
1.8513e+07
1.85172e+07
1.85214e+07
1.85257e+07
1.85299e+07
1.85342e+07
1.85386e+07
1.85429e+07
1.85473e+07
1.85517e+07
1.85561e+07
1.85605e+07
1.8565e+07
1.85695e+07
1.8574e+07
1.85786e+07
1.85831e+07
1.85877e+07
1.85924e+07
1.85971e+07
1.86018e+07
1.86065e+07
1.86112e+07
1.8616e+07
1.86209e+07
1.86257e+07
1.86306e+07
1.86355e+07
1.86404e+07
1.86454e+07
1.86504e+07
1.86554e+07
1.86605e+07
1.86655e+07
1.86706e+07
1.86757e+07
1.86809e+07
1.86861e+07
1.86912e+07
1.86964e+07
1.87016e+07
1.87069e+07
1.87121e+07
1.87174e+07
1.87226e+07
1.87279e+07
1.87332e+07
1.87385e+07
1.87438e+07
1.87491e+07
1.87545e+07
1.87598e+07
1.87651e+07
1.87705e+07
1.87759e+07
1.87812e+07
1.87866e+07
1.8792e+07
1.87974e+07
1.88028e+07
1.88082e+07
1.88136e+07
1.88191e+07
1.88245e+07
1.88299e+07
1.88354e+07
1.88408e+07
1.88463e+07
1.88518e+07
1.88572e+07
1.88627e+07
1.88682e+07
1.88737e+07
1.88792e+07
1.88847e+07
1.88901e+07
1.88956e+07
1.89011e+07
1.89066e+07
1.89121e+07
1.89176e+07
1.89231e+07
1.89286e+07
1.89341e+07
1.89396e+07
1.89451e+07
1.89506e+07
1.89561e+07
1.89616e+07
1.89671e+07
1.89726e+07
1.89781e+07
1.89836e+07
1.89891e+07
1.89946e+07
1.90001e+07
1.90055e+07
1.9011e+07
1.90164e+07
1.82809e+07
1.8281e+07
1.82813e+07
1.82816e+07
1.82819e+07
1.82823e+07
1.82827e+07
1.82832e+07
1.82837e+07
1.82843e+07
1.82849e+07
1.82856e+07
1.82863e+07
1.8287e+07
1.82878e+07
1.82886e+07
1.82895e+07
1.82904e+07
1.82914e+07
1.82924e+07
1.82934e+07
1.82945e+07
1.82956e+07
1.82967e+07
1.82979e+07
1.82992e+07
1.83004e+07
1.83017e+07
1.83031e+07
1.83045e+07
1.83059e+07
1.83074e+07
1.83089e+07
1.83105e+07
1.83121e+07
1.83138e+07
1.83155e+07
1.83172e+07
1.8319e+07
1.83209e+07
1.83228e+07
1.83247e+07
1.83267e+07
1.83287e+07
1.83308e+07
1.8333e+07
1.83351e+07
1.83374e+07
1.83396e+07
1.83419e+07
1.83443e+07
1.83467e+07
1.83491e+07
1.83516e+07
1.83541e+07
1.83566e+07
1.83592e+07
1.83618e+07
1.83645e+07
1.83672e+07
1.83699e+07
1.83727e+07
1.83754e+07
1.83783e+07
1.83811e+07
1.8384e+07
1.83869e+07
1.83899e+07
1.83929e+07
1.83959e+07
1.83989e+07
1.8402e+07
1.84052e+07
1.84083e+07
1.84116e+07
1.84148e+07
1.84181e+07
1.84214e+07
1.84248e+07
1.84282e+07
1.84317e+07
1.84352e+07
1.84387e+07
1.84423e+07
1.84459e+07
1.84496e+07
1.84533e+07
1.84571e+07
1.84609e+07
1.84647e+07
1.84685e+07
1.84724e+07
1.84764e+07
1.84803e+07
1.84843e+07
1.84883e+07
1.84924e+07
1.84965e+07
1.85006e+07
1.85047e+07
1.85088e+07
1.8513e+07
1.85172e+07
1.85214e+07
1.85257e+07
1.85299e+07
1.85342e+07
1.85386e+07
1.85429e+07
1.85473e+07
1.85517e+07
1.85561e+07
1.85605e+07
1.8565e+07
1.85695e+07
1.8574e+07
1.85786e+07
1.85831e+07
1.85877e+07
1.85924e+07
1.85971e+07
1.86018e+07
1.86065e+07
1.86112e+07
1.8616e+07
1.86209e+07
1.86257e+07
1.86306e+07
1.86355e+07
1.86404e+07
1.86454e+07
1.86504e+07
1.86554e+07
1.86605e+07
1.86655e+07
1.86706e+07
1.86757e+07
1.86809e+07
1.86861e+07
1.86912e+07
1.86964e+07
1.87016e+07
1.87069e+07
1.87121e+07
1.87174e+07
1.87226e+07
1.87279e+07
1.87332e+07
1.87385e+07
1.87438e+07
1.87491e+07
1.87545e+07
1.87598e+07
1.87651e+07
1.87705e+07
1.87759e+07
1.87812e+07
1.87866e+07
1.8792e+07
1.87974e+07
1.88028e+07
1.88082e+07
1.88136e+07
1.88191e+07
1.88245e+07
1.88299e+07
1.88354e+07
1.88408e+07
1.88463e+07
1.88518e+07
1.88572e+07
1.88627e+07
1.88682e+07
1.88737e+07
1.88792e+07
1.88847e+07
1.88901e+07
1.88956e+07
1.89011e+07
1.89066e+07
1.89121e+07
1.89176e+07
1.89231e+07
1.89286e+07
1.89341e+07
1.89396e+07
1.89451e+07
1.89506e+07
1.89561e+07
1.89616e+07
1.89671e+07
1.89726e+07
1.89781e+07
1.89836e+07
1.89891e+07
1.89946e+07
1.90001e+07
1.90055e+07
1.9011e+07
1.90164e+07
1.82809e+07
1.8281e+07
1.82813e+07
1.82816e+07
1.82819e+07
1.82823e+07
1.82827e+07
1.82832e+07
1.82837e+07
1.82843e+07
1.82849e+07
1.82856e+07
1.82863e+07
1.8287e+07
1.82878e+07
1.82886e+07
1.82895e+07
1.82904e+07
1.82914e+07
1.82924e+07
1.82934e+07
1.82945e+07
1.82956e+07
1.82967e+07
1.82979e+07
1.82992e+07
1.83004e+07
1.83017e+07
1.83031e+07
1.83045e+07
1.83059e+07
1.83074e+07
1.83089e+07
1.83105e+07
1.83121e+07
1.83138e+07
1.83155e+07
1.83172e+07
1.8319e+07
1.83209e+07
1.83228e+07
1.83247e+07
1.83267e+07
1.83287e+07
1.83308e+07
1.8333e+07
1.83351e+07
1.83374e+07
1.83396e+07
1.83419e+07
1.83443e+07
1.83467e+07
1.83491e+07
1.83516e+07
1.83541e+07
1.83566e+07
1.83592e+07
1.83618e+07
1.83645e+07
1.83672e+07
1.83699e+07
1.83727e+07
1.83754e+07
1.83783e+07
1.83811e+07
1.8384e+07
1.83869e+07
1.83899e+07
1.83929e+07
1.83959e+07
1.83989e+07
1.8402e+07
1.84052e+07
1.84083e+07
1.84116e+07
1.84148e+07
1.84181e+07
1.84214e+07
1.84248e+07
1.84282e+07
1.84317e+07
1.84352e+07
1.84387e+07
1.84423e+07
1.84459e+07
1.84496e+07
1.84533e+07
1.84571e+07
1.84609e+07
1.84647e+07
1.84685e+07
1.84724e+07
1.84764e+07
1.84803e+07
1.84843e+07
1.84883e+07
1.84924e+07
1.84965e+07
1.85006e+07
1.85047e+07
1.85088e+07
1.8513e+07
1.85172e+07
1.85214e+07
1.85257e+07
1.85299e+07
1.85342e+07
1.85386e+07
1.85429e+07
1.85473e+07
1.85517e+07
1.85561e+07
1.85605e+07
1.8565e+07
1.85695e+07
1.8574e+07
1.85786e+07
1.85831e+07
1.85877e+07
1.85924e+07
1.85971e+07
1.86018e+07
1.86065e+07
1.86112e+07
1.8616e+07
1.86209e+07
1.86257e+07
1.86306e+07
1.86355e+07
1.86404e+07
1.86454e+07
1.86504e+07
1.86554e+07
1.86605e+07
1.86655e+07
1.86706e+07
1.86757e+07
1.86809e+07
1.86861e+07
1.86912e+07
1.86964e+07
1.87016e+07
1.87069e+07
1.87121e+07
1.87174e+07
1.87226e+07
1.87279e+07
1.87332e+07
1.87385e+07
1.87438e+07
1.87491e+07
1.87545e+07
1.87598e+07
1.87651e+07
1.87705e+07
1.87759e+07
1.87812e+07
1.87866e+07
1.8792e+07
1.87974e+07
1.88028e+07
1.88082e+07
1.88136e+07
1.88191e+07
1.88245e+07
1.88299e+07
1.88354e+07
1.88408e+07
1.88463e+07
1.88518e+07
1.88572e+07
1.88627e+07
1.88682e+07
1.88737e+07
1.88792e+07
1.88847e+07
1.88901e+07
1.88956e+07
1.89011e+07
1.89066e+07
1.89121e+07
1.89176e+07
1.89231e+07
1.89286e+07
1.89341e+07
1.89396e+07
1.89451e+07
1.89506e+07
1.89561e+07
1.89616e+07
1.89671e+07
1.89726e+07
1.89781e+07
1.89836e+07
1.89891e+07
1.89946e+07
1.90001e+07
1.90055e+07
1.9011e+07
1.90164e+07
1.90208e+07
1.90225e+07
1.90237e+07
1.90247e+07
1.90256e+07
1.90265e+07
1.90274e+07
1.90285e+07
1.90302e+07
1.90317e+07
1.90326e+07
1.90324e+07
1.90317e+07
1.90319e+07
1.90324e+07
1.90328e+07
1.90335e+07
1.9035e+07
1.90373e+07
1.90389e+07
1.90204e+07
1.90218e+07
1.9023e+07
1.9024e+07
1.90249e+07
1.90258e+07
1.90267e+07
1.90278e+07
1.90295e+07
1.9031e+07
1.90317e+07
1.90313e+07
1.90306e+07
1.90308e+07
1.90313e+07
1.9032e+07
1.90328e+07
1.90344e+07
1.90366e+07
1.90378e+07
1.90197e+07
1.90207e+07
1.90216e+07
1.90225e+07
1.90232e+07
1.9024e+07
1.90246e+07
1.90251e+07
1.90254e+07
1.90258e+07
1.90262e+07
1.90266e+07
1.9027e+07
1.90272e+07
1.90273e+07
1.90274e+07
1.90274e+07
1.90273e+07
1.90271e+07
1.90271e+07
1.90191e+07
1.902e+07
1.90209e+07
1.90218e+07
1.90222e+07
1.90227e+07
1.9023e+07
1.90233e+07
1.90236e+07
1.90239e+07
1.90242e+07
1.90244e+07
1.90247e+07
1.9025e+07
1.90253e+07
1.90257e+07
1.90262e+07
1.90265e+07
1.9027e+07
1.90273e+07
1.90181e+07
1.90182e+07
1.90188e+07
1.90195e+07
1.902e+07
1.90203e+07
1.90206e+07
1.90209e+07
1.90211e+07
1.90212e+07
1.90214e+07
1.90216e+07
1.90217e+07
1.9022e+07
1.90222e+07
1.90225e+07
1.90229e+07
1.90231e+07
1.90236e+07
1.90241e+07
1.90358e+07
1.90353e+07
1.90392e+07
1.9045e+07
1.90487e+07
1.90509e+07
1.90545e+07
1.90596e+07
1.90638e+07
1.90668e+07
1.90706e+07
1.90755e+07
1.90799e+07
1.90831e+07
1.90865e+07
1.90906e+07
1.90954e+07
1.90999e+07
1.91032e+07
1.91064e+07
1.91103e+07
1.91143e+07
1.91187e+07
1.91226e+07
1.91261e+07
1.91298e+07
1.91337e+07
1.91376e+07
1.91414e+07
1.91453e+07
1.91491e+07
1.9153e+07
1.91568e+07
1.91606e+07
1.91644e+07
1.91683e+07
1.91722e+07
1.91758e+07
1.91793e+07
1.9183e+07
1.91866e+07
1.91903e+07
1.9194e+07
1.91976e+07
1.92012e+07
1.92048e+07
1.92084e+07
1.9212e+07
1.92156e+07
1.92191e+07
1.92226e+07
1.92261e+07
1.92296e+07
1.92331e+07
1.92366e+07
1.924e+07
1.92434e+07
1.92469e+07
1.92502e+07
1.92536e+07
1.9257e+07
1.92603e+07
1.92636e+07
1.92669e+07
1.92702e+07
1.92735e+07
1.92767e+07
1.92799e+07
1.92831e+07
1.92863e+07
1.92895e+07
1.92927e+07
1.92958e+07
1.92989e+07
1.9302e+07
1.93051e+07
1.93081e+07
1.93112e+07
1.93142e+07
1.93172e+07
1.93202e+07
1.93232e+07
1.93262e+07
1.93291e+07
1.9332e+07
1.9335e+07
1.93379e+07
1.93409e+07
1.93442e+07
1.93477e+07
1.93502e+07
1.93522e+07
1.93547e+07
1.93575e+07
1.93603e+07
1.93631e+07
1.93659e+07
1.93687e+07
1.93714e+07
1.93742e+07
1.9377e+07
1.93797e+07
1.93824e+07
1.93851e+07
1.93877e+07
1.93903e+07
1.93929e+07
1.93954e+07
1.9398e+07
1.94005e+07
1.94029e+07
1.94054e+07
1.94078e+07
1.94101e+07
1.94125e+07
1.94147e+07
1.9417e+07
1.94192e+07
1.94214e+07
1.94235e+07
1.94256e+07
1.94277e+07
1.94298e+07
1.94318e+07
1.94339e+07
1.94359e+07
1.94378e+07
1.94398e+07
1.94417e+07
1.94437e+07
1.94456e+07
1.94474e+07
1.94493e+07
1.94512e+07
1.9453e+07
1.94548e+07
1.94566e+07
1.94583e+07
1.94601e+07
1.94618e+07
1.94635e+07
1.94652e+07
1.94669e+07
1.94685e+07
1.94702e+07
1.94718e+07
1.94734e+07
1.9475e+07
1.94766e+07
1.94781e+07
1.94797e+07
1.94812e+07
1.94827e+07
1.94841e+07
1.94856e+07
1.94871e+07
1.94885e+07
1.94899e+07
1.94913e+07
1.94926e+07
1.9494e+07
1.94953e+07
1.94966e+07
1.94978e+07
1.94991e+07
1.95003e+07
1.95015e+07
1.95027e+07
1.95038e+07
1.95049e+07
1.9506e+07
1.95071e+07
1.95082e+07
1.95092e+07
1.95102e+07
1.95112e+07
1.95122e+07
1.95131e+07
1.9514e+07
1.9515e+07
1.95158e+07
1.95167e+07
1.95176e+07
1.95184e+07
1.95193e+07
1.95201e+07
1.95209e+07
1.95217e+07
1.95225e+07
1.95232e+07
1.9524e+07
1.95247e+07
1.95254e+07
1.95261e+07
1.95268e+07
1.95274e+07
1.95281e+07
1.95287e+07
1.95293e+07
1.95299e+07
1.90353e+07
1.90352e+07
1.90392e+07
1.9045e+07
1.90487e+07
1.90509e+07
1.90545e+07
1.90596e+07
1.90638e+07
1.90668e+07
1.90706e+07
1.90755e+07
1.90799e+07
1.90831e+07
1.90865e+07
1.90906e+07
1.90954e+07
1.90999e+07
1.91032e+07
1.91064e+07
1.91103e+07
1.91143e+07
1.91187e+07
1.91226e+07
1.91261e+07
1.91298e+07
1.91337e+07
1.91376e+07
1.91414e+07
1.91453e+07
1.91491e+07
1.9153e+07
1.91568e+07
1.91606e+07
1.91644e+07
1.91683e+07
1.91722e+07
1.91758e+07
1.91793e+07
1.9183e+07
1.91866e+07
1.91903e+07
1.9194e+07
1.91976e+07
1.92012e+07
1.92048e+07
1.92084e+07
1.9212e+07
1.92156e+07
1.92191e+07
1.92226e+07
1.92261e+07
1.92296e+07
1.92331e+07
1.92366e+07
1.924e+07
1.92434e+07
1.92469e+07
1.92502e+07
1.92536e+07
1.9257e+07
1.92603e+07
1.92636e+07
1.92669e+07
1.92702e+07
1.92735e+07
1.92767e+07
1.92799e+07
1.92831e+07
1.92863e+07
1.92895e+07
1.92927e+07
1.92958e+07
1.92989e+07
1.9302e+07
1.93051e+07
1.93081e+07
1.93112e+07
1.93142e+07
1.93172e+07
1.93202e+07
1.93232e+07
1.93262e+07
1.93291e+07
1.9332e+07
1.9335e+07
1.93379e+07
1.93409e+07
1.93442e+07
1.93477e+07
1.93502e+07
1.93522e+07
1.93547e+07
1.93575e+07
1.93603e+07
1.93631e+07
1.93659e+07
1.93686e+07
1.93714e+07
1.93742e+07
1.9377e+07
1.93797e+07
1.93824e+07
1.93851e+07
1.93877e+07
1.93903e+07
1.93929e+07
1.93954e+07
1.9398e+07
1.94005e+07
1.94029e+07
1.94054e+07
1.94078e+07
1.94101e+07
1.94125e+07
1.94147e+07
1.9417e+07
1.94192e+07
1.94214e+07
1.94235e+07
1.94256e+07
1.94277e+07
1.94298e+07
1.94318e+07
1.94339e+07
1.94359e+07
1.94378e+07
1.94398e+07
1.94417e+07
1.94437e+07
1.94456e+07
1.94474e+07
1.94493e+07
1.94512e+07
1.9453e+07
1.94548e+07
1.94566e+07
1.94583e+07
1.94601e+07
1.94618e+07
1.94635e+07
1.94652e+07
1.94669e+07
1.94685e+07
1.94702e+07
1.94718e+07
1.94734e+07
1.9475e+07
1.94766e+07
1.94781e+07
1.94797e+07
1.94812e+07
1.94827e+07
1.94841e+07
1.94856e+07
1.94871e+07
1.94885e+07
1.94899e+07
1.94913e+07
1.94926e+07
1.9494e+07
1.94953e+07
1.94966e+07
1.94978e+07
1.94991e+07
1.95003e+07
1.95015e+07
1.95027e+07
1.95038e+07
1.95049e+07
1.9506e+07
1.95071e+07
1.95082e+07
1.95092e+07
1.95102e+07
1.95112e+07
1.95122e+07
1.95131e+07
1.9514e+07
1.9515e+07
1.95158e+07
1.95167e+07
1.95176e+07
1.95184e+07
1.95193e+07
1.95201e+07
1.95209e+07
1.95217e+07
1.95225e+07
1.95232e+07
1.9524e+07
1.95247e+07
1.95254e+07
1.95261e+07
1.95268e+07
1.95274e+07
1.95281e+07
1.95287e+07
1.95293e+07
1.95299e+07
1.90275e+07
1.90333e+07
1.90383e+07
1.90421e+07
1.90459e+07
1.905e+07
1.90541e+07
1.90582e+07
1.90622e+07
1.90662e+07
1.90703e+07
1.90743e+07
1.90782e+07
1.90822e+07
1.90863e+07
1.90904e+07
1.90944e+07
1.90982e+07
1.91022e+07
1.91062e+07
1.91102e+07
1.91142e+07
1.91181e+07
1.9122e+07
1.91259e+07
1.91298e+07
1.91337e+07
1.91376e+07
1.91415e+07
1.91453e+07
1.91491e+07
1.9153e+07
1.91568e+07
1.91606e+07
1.91644e+07
1.91681e+07
1.91718e+07
1.91755e+07
1.91792e+07
1.91829e+07
1.91866e+07
1.91903e+07
1.9194e+07
1.91976e+07
1.92012e+07
1.92048e+07
1.92084e+07
1.9212e+07
1.92156e+07
1.92191e+07
1.92226e+07
1.92262e+07
1.92296e+07
1.92331e+07
1.92366e+07
1.924e+07
1.92435e+07
1.92469e+07
1.92502e+07
1.92536e+07
1.9257e+07
1.92603e+07
1.92636e+07
1.92669e+07
1.92702e+07
1.92735e+07
1.92767e+07
1.92799e+07
1.92831e+07
1.92863e+07
1.92895e+07
1.92927e+07
1.92958e+07
1.92989e+07
1.9302e+07
1.93051e+07
1.93082e+07
1.93112e+07
1.93142e+07
1.93173e+07
1.93203e+07
1.93232e+07
1.93262e+07
1.93292e+07
1.93321e+07
1.9335e+07
1.9338e+07
1.93409e+07
1.93438e+07
1.93464e+07
1.93492e+07
1.9352e+07
1.93548e+07
1.93576e+07
1.93604e+07
1.93632e+07
1.9366e+07
1.93688e+07
1.93716e+07
1.93743e+07
1.93771e+07
1.93798e+07
1.93825e+07
1.93852e+07
1.93878e+07
1.93904e+07
1.9393e+07
1.93955e+07
1.9398e+07
1.94005e+07
1.94029e+07
1.94054e+07
1.94078e+07
1.94101e+07
1.94124e+07
1.94147e+07
1.9417e+07
1.94192e+07
1.94214e+07
1.94235e+07
1.94256e+07
1.94277e+07
1.94298e+07
1.94318e+07
1.94339e+07
1.94359e+07
1.94378e+07
1.94398e+07
1.94417e+07
1.94437e+07
1.94456e+07
1.94474e+07
1.94493e+07
1.94512e+07
1.9453e+07
1.94548e+07
1.94566e+07
1.94583e+07
1.94601e+07
1.94618e+07
1.94635e+07
1.94652e+07
1.94669e+07
1.94685e+07
1.94702e+07
1.94718e+07
1.94734e+07
1.9475e+07
1.94766e+07
1.94781e+07
1.94797e+07
1.94812e+07
1.94827e+07
1.94841e+07
1.94856e+07
1.94871e+07
1.94885e+07
1.94899e+07
1.94913e+07
1.94926e+07
1.9494e+07
1.94953e+07
1.94966e+07
1.94978e+07
1.94991e+07
1.95003e+07
1.95015e+07
1.95027e+07
1.95038e+07
1.95049e+07
1.9506e+07
1.95071e+07
1.95082e+07
1.95092e+07
1.95102e+07
1.95112e+07
1.95122e+07
1.95131e+07
1.9514e+07
1.9515e+07
1.95158e+07
1.95167e+07
1.95176e+07
1.95184e+07
1.95193e+07
1.95201e+07
1.95209e+07
1.95217e+07
1.95225e+07
1.95232e+07
1.9524e+07
1.95247e+07
1.95254e+07
1.95261e+07
1.95268e+07
1.95274e+07
1.95281e+07
1.95287e+07
1.95293e+07
1.95299e+07
1.90283e+07
1.90327e+07
1.9037e+07
1.9041e+07
1.90449e+07
1.90489e+07
1.90531e+07
1.90572e+07
1.90613e+07
1.90653e+07
1.90694e+07
1.90735e+07
1.90776e+07
1.90816e+07
1.90857e+07
1.90897e+07
1.90938e+07
1.90978e+07
1.91017e+07
1.91057e+07
1.91098e+07
1.91138e+07
1.91177e+07
1.91216e+07
1.91256e+07
1.91295e+07
1.91334e+07
1.91373e+07
1.91412e+07
1.91451e+07
1.9149e+07
1.91528e+07
1.91566e+07
1.91604e+07
1.91642e+07
1.9168e+07
1.91717e+07
1.91755e+07
1.91792e+07
1.91829e+07
1.91866e+07
1.91903e+07
1.91939e+07
1.91976e+07
1.92012e+07
1.92048e+07
1.92084e+07
1.9212e+07
1.92156e+07
1.92191e+07
1.92226e+07
1.92262e+07
1.92297e+07
1.92331e+07
1.92366e+07
1.924e+07
1.92435e+07
1.92469e+07
1.92503e+07
1.92536e+07
1.9257e+07
1.92603e+07
1.92636e+07
1.92669e+07
1.92702e+07
1.92735e+07
1.92767e+07
1.92799e+07
1.92832e+07
1.92863e+07
1.92895e+07
1.92927e+07
1.92958e+07
1.92989e+07
1.9302e+07
1.93051e+07
1.93082e+07
1.93112e+07
1.93143e+07
1.93173e+07
1.93203e+07
1.93233e+07
1.93263e+07
1.93293e+07
1.93322e+07
1.93352e+07
1.93381e+07
1.9341e+07
1.93439e+07
1.93467e+07
1.93494e+07
1.93521e+07
1.93549e+07
1.93578e+07
1.93606e+07
1.93634e+07
1.93662e+07
1.9369e+07
1.93717e+07
1.93745e+07
1.93772e+07
1.93799e+07
1.93826e+07
1.93852e+07
1.93878e+07
1.93904e+07
1.9393e+07
1.93955e+07
1.9398e+07
1.94005e+07
1.9403e+07
1.94054e+07
1.94078e+07
1.94101e+07
1.94125e+07
1.94147e+07
1.9417e+07
1.94192e+07
1.94214e+07
1.94235e+07
1.94256e+07
1.94277e+07
1.94298e+07
1.94318e+07
1.94339e+07
1.94359e+07
1.94378e+07
1.94398e+07
1.94417e+07
1.94437e+07
1.94456e+07
1.94474e+07
1.94493e+07
1.94512e+07
1.9453e+07
1.94548e+07
1.94566e+07
1.94583e+07
1.94601e+07
1.94618e+07
1.94635e+07
1.94652e+07
1.94669e+07
1.94685e+07
1.94702e+07
1.94718e+07
1.94734e+07
1.9475e+07
1.94766e+07
1.94781e+07
1.94797e+07
1.94812e+07
1.94827e+07
1.94841e+07
1.94856e+07
1.94871e+07
1.94885e+07
1.94899e+07
1.94913e+07
1.94926e+07
1.9494e+07
1.94953e+07
1.94966e+07
1.94978e+07
1.94991e+07
1.95003e+07
1.95015e+07
1.95027e+07
1.95038e+07
1.95049e+07
1.9506e+07
1.95071e+07
1.95082e+07
1.95092e+07
1.95102e+07
1.95112e+07
1.95122e+07
1.95131e+07
1.9514e+07
1.9515e+07
1.95158e+07
1.95167e+07
1.95176e+07
1.95184e+07
1.95193e+07
1.95201e+07
1.95209e+07
1.95217e+07
1.95225e+07
1.95232e+07
1.9524e+07
1.95247e+07
1.95254e+07
1.95261e+07
1.95268e+07
1.95274e+07
1.95281e+07
1.95287e+07
1.95293e+07
1.95299e+07
1.90277e+07
1.90326e+07
1.9037e+07
1.9041e+07
1.90449e+07
1.90489e+07
1.90531e+07
1.90572e+07
1.90613e+07
1.90653e+07
1.90694e+07
1.90735e+07
1.90776e+07
1.90816e+07
1.90857e+07
1.90897e+07
1.90938e+07
1.90978e+07
1.91017e+07
1.91057e+07
1.91098e+07
1.91138e+07
1.91177e+07
1.91216e+07
1.91256e+07
1.91295e+07
1.91334e+07
1.91373e+07
1.91412e+07
1.91451e+07
1.9149e+07
1.91528e+07
1.91566e+07
1.91604e+07
1.91642e+07
1.9168e+07
1.91717e+07
1.91755e+07
1.91792e+07
1.91829e+07
1.91866e+07
1.91903e+07
1.91939e+07
1.91976e+07
1.92012e+07
1.92048e+07
1.92084e+07
1.9212e+07
1.92156e+07
1.92191e+07
1.92226e+07
1.92262e+07
1.92297e+07
1.92331e+07
1.92366e+07
1.924e+07
1.92435e+07
1.92469e+07
1.92503e+07
1.92536e+07
1.9257e+07
1.92603e+07
1.92636e+07
1.92669e+07
1.92702e+07
1.92735e+07
1.92767e+07
1.92799e+07
1.92832e+07
1.92863e+07
1.92895e+07
1.92927e+07
1.92958e+07
1.92989e+07
1.9302e+07
1.93051e+07
1.93082e+07
1.93112e+07
1.93143e+07
1.93173e+07
1.93203e+07
1.93233e+07
1.93263e+07
1.93293e+07
1.93322e+07
1.93352e+07
1.93381e+07
1.9341e+07
1.93439e+07
1.93467e+07
1.93493e+07
1.93521e+07
1.93549e+07
1.93578e+07
1.93606e+07
1.93634e+07
1.93662e+07
1.93689e+07
1.93717e+07
1.93745e+07
1.93772e+07
1.93799e+07
1.93826e+07
1.93852e+07
1.93878e+07
1.93904e+07
1.9393e+07
1.93955e+07
1.9398e+07
1.94005e+07
1.9403e+07
1.94054e+07
1.94078e+07
1.94101e+07
1.94125e+07
1.94147e+07
1.9417e+07
1.94192e+07
1.94214e+07
1.94235e+07
1.94256e+07
1.94277e+07
1.94298e+07
1.94318e+07
1.94339e+07
1.94359e+07
1.94378e+07
1.94398e+07
1.94417e+07
1.94437e+07
1.94456e+07
1.94474e+07
1.94493e+07
1.94512e+07
1.9453e+07
1.94548e+07
1.94566e+07
1.94583e+07
1.94601e+07
1.94618e+07
1.94635e+07
1.94652e+07
1.94669e+07
1.94685e+07
1.94702e+07
1.94718e+07
1.94734e+07
1.9475e+07
1.94766e+07
1.94781e+07
1.94797e+07
1.94812e+07
1.94827e+07
1.94841e+07
1.94856e+07
1.94871e+07
1.94885e+07
1.94899e+07
1.94913e+07
1.94926e+07
1.9494e+07
1.94953e+07
1.94966e+07
1.94978e+07
1.94991e+07
1.95003e+07
1.95015e+07
1.95027e+07
1.95038e+07
1.95049e+07
1.9506e+07
1.95071e+07
1.95082e+07
1.95092e+07
1.95102e+07
1.95112e+07
1.95122e+07
1.95131e+07
1.9514e+07
1.9515e+07
1.95158e+07
1.95167e+07
1.95176e+07
1.95184e+07
1.95193e+07
1.95201e+07
1.95209e+07
1.95217e+07
1.95225e+07
1.95232e+07
1.9524e+07
1.95247e+07
1.95254e+07
1.95261e+07
1.95268e+07
1.95274e+07
1.95281e+07
1.95287e+07
1.95293e+07
1.95299e+07
1.95303e+07
1.95304e+07
1.95305e+07
1.95306e+07
1.95306e+07
1.95307e+07
1.95308e+07
1.95308e+07
1.95309e+07
1.9531e+07
1.9531e+07
1.95311e+07
1.95312e+07
1.95312e+07
1.95313e+07
1.95314e+07
1.95314e+07
1.95315e+07
1.95316e+07
1.95316e+07
1.95303e+07
1.95304e+07
1.95305e+07
1.95306e+07
1.95307e+07
1.95307e+07
1.95308e+07
1.95309e+07
1.9531e+07
1.9531e+07
1.95311e+07
1.95312e+07
1.95312e+07
1.95313e+07
1.95314e+07
1.95315e+07
1.95315e+07
1.95316e+07
1.95317e+07
1.95317e+07
1.95303e+07
1.95304e+07
1.95306e+07
1.95307e+07
1.95308e+07
1.95309e+07
1.95311e+07
1.95312e+07
1.95313e+07
1.95314e+07
1.95314e+07
1.95315e+07
1.95316e+07
1.95317e+07
1.95318e+07
1.95319e+07
1.9532e+07
1.95321e+07
1.95322e+07
1.95323e+07
1.95303e+07
1.95305e+07
1.95306e+07
1.95308e+07
1.95309e+07
1.95311e+07
1.95312e+07
1.95314e+07
1.95316e+07
1.9532e+07
1.95323e+07
1.95326e+07
1.95326e+07
1.95323e+07
1.95323e+07
1.95324e+07
1.95326e+07
1.95327e+07
1.95329e+07
1.95332e+07
1.95303e+07
1.95305e+07
1.95307e+07
1.95308e+07
1.9531e+07
1.95311e+07
1.95313e+07
1.95314e+07
1.95316e+07
1.9532e+07
1.95324e+07
1.95326e+07
1.95327e+07
1.95325e+07
1.95324e+07
1.95326e+07
1.95327e+07
1.95328e+07
1.95329e+07
1.95332e+07
1.95319e+07
1.95322e+07
1.95326e+07
1.95331e+07
1.95334e+07
1.95336e+07
1.95338e+07
1.95343e+07
1.95346e+07
1.95348e+07
1.9535e+07
1.95355e+07
1.9536e+07
1.95361e+07
1.95363e+07
1.95368e+07
1.95373e+07
1.95377e+07
1.95375e+07
1.95375e+07
1.95381e+07
1.95387e+07
1.9539e+07
1.95389e+07
1.95382e+07
1.95378e+07
1.95385e+07
1.95394e+07
1.95397e+07
1.95396e+07
1.95389e+07
1.95384e+07
1.95388e+07
1.95394e+07
1.95398e+07
1.95401e+07
1.95404e+07
1.95406e+07
1.95409e+07
1.95411e+07
1.95413e+07
1.95415e+07
1.95416e+07
1.95418e+07
1.9542e+07
1.95421e+07
1.95423e+07
1.95424e+07
1.95426e+07
1.95428e+07
1.95429e+07
1.95431e+07
1.95433e+07
1.95434e+07
1.95436e+07
1.95438e+07
1.9544e+07
1.95442e+07
1.95444e+07
1.95445e+07
1.95447e+07
1.95449e+07
1.95451e+07
1.95453e+07
1.95454e+07
1.95456e+07
1.95458e+07
1.95459e+07
1.95462e+07
1.95465e+07
1.95468e+07
1.9547e+07
1.95467e+07
1.95463e+07
1.95463e+07
1.95466e+07
1.95469e+07
1.95471e+07
1.95473e+07
1.95474e+07
1.95476e+07
1.95477e+07
1.95479e+07
1.9548e+07
1.95482e+07
1.95484e+07
1.95487e+07
1.95489e+07
1.95492e+07
1.95495e+07
1.95498e+07
1.95501e+07
1.95504e+07
1.95507e+07
1.95509e+07
1.95512e+07
1.95514e+07
1.95517e+07
1.95519e+07
1.95519e+07
1.95319e+07
1.95322e+07
1.95326e+07
1.95331e+07
1.95334e+07
1.95336e+07
1.95338e+07
1.95343e+07
1.95347e+07
1.95348e+07
1.9535e+07
1.95355e+07
1.9536e+07
1.95361e+07
1.95362e+07
1.95368e+07
1.95373e+07
1.95378e+07
1.95375e+07
1.95374e+07
1.95381e+07
1.95388e+07
1.95391e+07
1.9539e+07
1.95382e+07
1.95378e+07
1.95385e+07
1.95394e+07
1.95397e+07
1.95396e+07
1.95389e+07
1.95384e+07
1.95388e+07
1.95394e+07
1.95398e+07
1.95401e+07
1.95404e+07
1.95406e+07
1.95409e+07
1.95411e+07
1.95413e+07
1.95415e+07
1.95416e+07
1.95418e+07
1.9542e+07
1.95421e+07
1.95423e+07
1.95424e+07
1.95426e+07
1.95428e+07
1.95429e+07
1.95431e+07
1.95433e+07
1.95434e+07
1.95436e+07
1.95438e+07
1.9544e+07
1.95442e+07
1.95444e+07
1.95445e+07
1.95447e+07
1.95449e+07
1.95451e+07
1.95453e+07
1.95454e+07
1.95456e+07
1.95458e+07
1.95459e+07
1.95462e+07
1.95465e+07
1.95468e+07
1.9547e+07
1.95468e+07
1.95463e+07
1.95463e+07
1.95466e+07
1.95469e+07
1.95471e+07
1.95473e+07
1.95474e+07
1.95476e+07
1.95477e+07
1.95479e+07
1.9548e+07
1.95482e+07
1.95484e+07
1.95487e+07
1.95489e+07
1.95492e+07
1.95495e+07
1.95498e+07
1.95501e+07
1.95504e+07
1.95507e+07
1.95509e+07
1.95512e+07
1.95514e+07
1.95517e+07
1.95519e+07
1.95519e+07
1.95324e+07
1.95328e+07
1.95332e+07
1.95338e+07
1.95342e+07
1.95342e+07
1.95344e+07
1.95349e+07
1.95355e+07
1.95353e+07
1.95356e+07
1.9536e+07
1.9537e+07
1.95365e+07
1.95365e+07
1.95368e+07
1.95376e+07
1.95387e+07
1.95377e+07
1.95374e+07
1.95378e+07
1.95386e+07
1.95396e+07
1.95396e+07
1.95379e+07
1.95377e+07
1.95382e+07
1.95391e+07
1.95405e+07
1.95402e+07
1.95388e+07
1.95384e+07
1.95389e+07
1.95395e+07
1.954e+07
1.95404e+07
1.95407e+07
1.9541e+07
1.95412e+07
1.95413e+07
1.95415e+07
1.95417e+07
1.95418e+07
1.9542e+07
1.95421e+07
1.95423e+07