/*--------------------------------*- C++ -*----------------------------------*\
| =========                 |                                                 |
| \\      /  F ield         | OpenFOAM: The Open Source CFD Toolbox           |
|  \\    /   O peration     | Version:  3.0.x                                 |
|   \\  /    A nd           | Web:      www.OpenFOAM.org                      |
|    \\/     M anipulation  |                                                 |
\*---------------------------------------------------------------------------*/
FoamFile
{
    version     2.0;
    format      ascii;
    class       surfaceScalarField;
    location    "0.51";
    object      phi;
}
// * * * * * * * * * * * * * * * * * * * * * * * * * * * * * * * * * * * * * //

dimensions      [1 0 -1 0 0 0 0];

internalField   nonuniform List<scalar> 
12415
(
5.81084
0.000328205
5.80138
0.000235571
5.79187
0.000226455
5.78232
0.000228196
5.77272
0.00022864
5.76308
0.000228575
5.7534
0.000228594
5.74368
0.000228622
5.73392
0.000228673
5.72412
0.00022871
5.71428
0.000228746
5.70439
0.000228784
5.69447
0.000228823
5.6845
0.000228865
5.67449
0.000228909
5.66445
0.000228955
5.65437
0.000229004
5.64425
0.000229054
5.6341
0.000229106
5.62392
0.000229159
5.61371
0.000229215
5.60348
0.000229273
5.59322
0.000229332
5.58293
0.000229394
5.57262
0.000229458
5.56229
0.000229526
5.55193
0.000229594
5.54155
0.000229668
5.53114
0.000229744
5.5207
0.000229823
5.51023
0.000229908
5.49973
0.000229996
5.48918
0.000230089
5.4786
0.000230191
5.46797
0.000230295
5.45728
0.000230411
5.44655
0.000230533
5.43575
0.000230664
5.42489
0.000230803
5.41396
0.000230943
5.40296
0.000231093
5.39189
0.000231252
5.38074
0.000231422
5.36952
0.000231608
5.35822
0.000231808
5.34683
0.000232019
5.33534
0.000232236
5.32377
0.000232452
5.31211
0.000232668
5.30036
0.000232884
5.28852
0.000233106
5.2766
0.000233333
5.26459
0.000233563
5.25251
0.000233801
5.24035
0.000234032
5.22812
0.000234262
5.21582
0.000234487
5.20345
0.000234707
5.19101
0.000234918
5.1785
0.00023511
5.16592
0.000235267
5.15327
0.000235367
5.14055
0.000235384
5.12776
0.000235295
5.11489
0.000235077
5.10196
0.000234701
5.08895
0.000234134
5.07588
0.000233337
5.06273
0.000232265
5.04951
0.000230864
5.03621
0.000229074
5.02282
0.000226837
5.00934
0.000224094
4.99577
0.00022079
4.9821
0.000216875
4.96834
0.000212312
4.95446
0.000207073
4.94048
0.000201146
4.92639
0.000194532
4.91218
0.00018725
4.89786
0.000179338
4.88342
0.00017085
4.86887
0.000161858
4.85419
0.000152445
4.83939
0.00014271
4.82448
0.000132758
4.80944
0.000122703
4.79429
0.000112659
4.77902
0.000102738
4.76364
9.30482e-05
4.74815
8.3687e-05
4.73254
7.47419e-05
4.71683
6.62858e-05
4.70102
5.83769e-05
4.68511
5.10571e-05
4.66911
4.43524e-05
4.65301
3.82737e-05
4.63682
3.28183e-05
4.62055
2.79712e-05
4.60419
2.37076e-05
4.58775
1.99938e-05
4.57122
1.67899e-05
4.55462
1.40523e-05
4.53793
1.17352e-05
4.52117
9.79282e-06
4.50432
8.17959e-06
4.48739
6.85214e-06
4.47038
5.76962e-06
4.45329
4.89489e-06
4.43611
4.1941e-06
4.41884
3.63783e-06
4.40148
3.20022e-06
4.38404
2.85941e-06
4.3665
2.5961e-06
4.34886
2.39426e-06
4.33113
2.24018e-06
4.3133
2.12347e-06
4.29537
2.0357e-06
4.27733
1.97009e-06
4.25919
1.92116e-06
4.24094
1.88427e-06
4.22257
1.85644e-06
4.2041
1.83538e-06
4.18551
1.81956e-06
4.16681
1.80753e-06
4.14798
1.79734e-06
4.12904
1.78799e-06
4.10998
1.77855e-06
4.09081
1.76893e-06
4.07151
1.75918e-06
4.0521
1.74856e-06
4.03257
1.73663e-06
4.01294
1.72279e-06
3.99319
1.70645e-06
3.97334
1.68766e-06
3.9534
1.6664e-06
3.93335
1.64302e-06
3.91322
1.61754e-06
3.893
1.5897e-06
3.87271
1.55917e-06
3.85234
1.52548e-06
3.8319
1.48894e-06
3.81141
1.44997e-06
3.79085
1.40835e-06
3.77024
1.36431e-06
3.74959
1.31855e-06
3.72888
1.27136e-06
3.70814
1.2232e-06
3.68736
1.17433e-06
3.66654
1.12484e-06
3.64568
1.07462e-06
3.62479
1.0238e-06
3.60386
9.72108e-07
3.5829
9.20112e-07
3.5619
8.68304e-07
3.54087
8.16397e-07
3.5198
7.65018e-07
3.4987
7.13202e-07
3.47757
6.60513e-07
3.4564
6.0646e-07
3.4352
5.52869e-07
3.41396
4.98905e-07
3.39269
4.45461e-07
3.37139
3.90477e-07
3.35005
3.35374e-07
3.32868
2.7838e-07
3.30729
2.20791e-07
3.28586
1.61477e-07
3.26441
1.01845e-07
3.24293
4.00778e-08
3.22142
-1.97233e-08
3.1999
-8.54961e-08
3.17835
-1.45325e-07
3.15678
-2.15729e-07
3.1352
-2.74435e-07
3.11359
-3.50512e-07
3.09196
-4.02382e-07
3.07032
-4.8754e-07
3.04866
-5.22556e-07
3.02698
-6.36977e-07
3.00529
-6.26233e-07
2.98358
-8.22536e-07
2.96186
-6.83764e-07
2.94013
-1.0705e-06
2.91838
-6.73797e-07
2.89663
-1.40019e-06
2.87488
-5.67306e-07
2.85312
-1.87091e-06
2.83135
-2.44916e-07
2.80959
-2.66101e-06
2.78784
4.19686e-07
2.76609
-3.52973e-06
2.74436
1.1888e-06
2.72264
-7.07127e-07
2.70093
1.96286e-05
2.67912
0.000125574
2.65664
0.000843669
2.62949
0.00552068
2.56149
0.0464206
0.175754
2.36419
11.6225
0.000260759
11.604
0.000215278
11.5855
0.000191762
11.5669
0.00019552
11.5482
0.000196585
11.5294
0.000196134
11.5105
0.000196047
11.4916
0.00019609
11.4725
0.000196135
11.4534
0.000196171
11.4342
0.000196209
11.4149
0.000196249
11.3956
0.000196292
11.3761
0.000196338
11.3566
0.000196385
11.337
0.000196435
11.3173
0.000196487
11.2976
0.000196541
11.2778
0.000196596
11.2579
0.000196653
11.238
0.000196712
11.218
0.000196772
11.198
0.000196834
11.1779
0.000196899
11.1578
0.000196965
11.1376
0.000197034
11.1174
0.000197104
11.0971
0.000197178
11.0768
0.000197255
11.0564
0.000197335
11.0359
0.000197418
11.0154
0.000197506
10.9948
0.000197597
10.9741
0.000197695
10.9534
0.000197797
10.9325
0.000197907
10.9115
0.000198023
10.8904
0.000198147
10.8692
0.000198278
10.8478
0.00019841
10.8263
0.00019855
10.8047
0.000198699
10.7829
0.000198858
10.7609
0.000199029
10.7388
0.000199212
10.7165
0.000199404
10.6941
0.0001996
10.6714
0.000199798
10.6486
0.000199996
10.6256
0.000200195
10.6024
0.000200398
10.5791
0.000200606
10.5555
0.000200815
10.5319
0.00020103
10.5081
0.000201241
10.4841
0.00020145
10.46
0.000201655
10.4358
0.000201856
10.4114
0.000202048
10.3869
0.000202222
10.3622
0.000202365
10.3374
0.000202458
10.3125
0.000202479
10.2874
0.000202406
10.2622
0.00020222
10.2368
0.000201896
10.2113
0.000201403
10.1856
0.000200708
10.1598
0.00019977
10.1339
0.000198542
10.1078
0.000196975
10.0815
0.000195017
10.055
0.000192617
10.0283
0.000189727
10.0015
0.000186306
9.97439
0.000182321
9.94709
0.000177751
9.91955
0.000172584
9.89179
0.000166825
9.86378
0.000160492
9.83552
0.000153618
9.80701
0.000146252
9.77824
0.000138458
9.74922
0.000130309
9.71993
0.000121893
9.69038
0.0001133
9.66058
0.00010463
9.63051
9.59805e-05
9.6002
8.74492e-05
9.56963
7.91277e-05
9.53882
7.10999e-05
9.50778
6.34395e-05
9.4765
5.6208e-05
9.44501
4.94539e-05
9.4133
4.32117e-05
9.38138
3.75021e-05
9.34927
3.23329e-05
9.31697
2.77001e-05
9.28448
2.35898e-05
9.25181
1.99793e-05
9.21897
1.68389e-05
9.18596
1.41336e-05
9.15277
1.18253e-05
9.11943
9.87453e-06
9.08592
8.24151e-06
9.05224
6.88721e-06
9.0184
5.77436e-06
8.98439
4.86803e-06
8.95021
4.13645e-06
8.91586
3.55084e-06
8.88133
3.08623e-06
8.84663
2.72074e-06
8.81174
2.43599e-06
8.77666
2.2158e-06
8.7414
2.0468e-06
8.70594
1.91758e-06
8.67028
1.81955e-06
8.63442
1.74563e-06
8.59835
1.69031e-06
8.56207
1.64891e-06
8.52557
1.61773e-06
8.48885
1.5941e-06
8.45191
1.57624e-06
8.41473
1.56277e-06
8.37732
1.55251e-06
8.33968
1.54383e-06
8.3018
1.53584e-06
8.26369
1.5278e-06
8.22534
1.5196e-06
8.18675
1.51121e-06
8.14793
1.50218e-06
8.10888
1.49191e-06
8.06961
1.4801e-06
8.03013
1.46606e-06
7.99043
1.45001e-06
7.95054
1.43178e-06
7.91046
1.41174e-06
7.8702
1.38992e-06
7.82977
1.36603e-06
7.78918
1.33987e-06
7.74845
1.31103e-06
7.70758
1.27963e-06
7.66658
1.24633e-06
7.62548
1.21046e-06
7.58426
1.17292e-06
7.54295
1.1336e-06
7.50155
1.0931e-06
7.46006
1.05184e-06
7.4185
1.01001e-06
7.37686
9.67521e-07
7.33515
9.24387e-07
7.29336
8.80917e-07
7.25151
8.36623e-07
7.20959
7.91875e-07
7.16759
7.47649e-07
7.12553
7.02966e-07
7.08341
6.59035e-07
7.04121
6.14413e-07
6.99894
5.69686e-07
6.9566
5.22849e-07
6.9142
4.7725e-07
6.87173
4.3013e-07
6.82919
3.8553e-07
6.78658
3.37714e-07
6.74391
2.91003e-07
6.70117
2.41048e-07
6.65838
1.92626e-07
6.61553
1.41056e-07
6.57262
9.09376e-08
6.52966
3.55574e-08
6.48665
-1.0534e-08
6.4436
-7.4042e-08
6.40051
-1.16559e-07
6.35737
-1.89065e-07
6.31419
-2.23279e-07
6.27098
-3.10248e-07
6.22773
-3.23627e-07
6.18444
-4.41476e-07
6.14112
-4.03479e-07
6.09776
-6.09313e-07
6.05437
-4.25992e-07
6.01095
-8.78871e-07
5.96751
-3.03942e-07
5.92404
-1.33198e-06
5.88055
2.24975e-08
5.83705
-2.02547e-06
5.79353
6.48622e-07
5.75001
-3.14535e-06
5.70648
1.93904e-06
5.66296
-5.23684e-06
5.61944
4.28613e-06
5.57595
-7.57767e-06
5.53248
6.97461e-06
5.48904
1.00028e-06
5.44561
6.26742e-05
5.40201
0.000376701
5.35703
0.00252247
5.30301
0.0162983
5.19345
0.112818
0.414944
4.91113
139.469
-0.000260759
139.248
-0.000215278
139.026
-0.000191762
138.802
-0.00019552
138.578
-0.000196585
138.353
-0.000196134
138.126
-0.000196047
137.899
-0.00019609
137.67
-0.000196135
137.441
-0.000196171
137.211
-0.000196209
136.979
-0.000196249
136.747
-0.000196292
136.513
-0.000196338
136.279
-0.000196385
136.044
-0.000196435
135.808
-0.000196487
135.571
-0.000196541
135.333
-0.000196596
135.095
-0.000196653
134.856
-0.000196712
134.616
-0.000196772
134.376
-0.000196834
134.135
-0.000196899
133.893
-0.000196965
133.651
-0.000197034
133.408
-0.000197104
133.165
-0.000197178
132.921
-0.000197255
132.677
-0.000197335
132.431
-0.000197418
132.185
-0.000197506
131.938
-0.000197597
131.69
-0.000197695
131.441
-0.000197797
131.19
-0.000197907
130.938
-0.000198023
130.685
-0.000198147
130.43
-0.000198278
130.174
-0.00019841
129.916
-0.00019855
129.656
-0.000198699
129.395
-0.000198858
129.131
-0.000199029
128.866
-0.000199212
128.598
-0.000199404
128.329
-0.0001996
128.057
-0.000199798
127.783
-0.000199996
127.507
-0.000200195
127.229
-0.000200398
126.949
-0.000200606
126.667
-0.000200815
126.383
-0.00020103
126.097
-0.000201241
125.809
-0.00020145
125.52
-0.000201655
125.229
-0.000201856
124.937
-0.000202048
124.643
-0.000202222
124.347
-0.000202365
124.049
-0.000202458
123.75
-0.000202479
123.449
-0.000202406
123.146
-0.00020222
122.842
-0.000201896
122.536
-0.000201403
122.228
-0.000200708
121.918
-0.00019977
121.607
-0.000198542
121.294
-0.000196975
120.978
-0.000195017
120.66
-0.000192617
120.34
-0.000189727
120.018
-0.000186306
119.693
-0.000182321
119.365
-0.000177751
119.035
-0.000172584
118.702
-0.000166825
118.366
-0.000160492
118.027
-0.000153618
117.684
-0.000146252
117.339
-0.000138458
116.991
-0.000130309
116.639
-0.000121893
116.285
-0.0001133
115.927
-0.00010463
115.566
-9.59805e-05
115.203
-8.74492e-05
114.836
-7.91277e-05
114.466
-7.10999e-05
114.094
-6.34395e-05
113.718
-5.6208e-05
113.34
-4.9454e-05
112.96
-4.32117e-05
112.577
-3.75021e-05
112.191
-3.23329e-05
111.804
-2.77001e-05
111.414
-2.35898e-05
111.022
-1.99793e-05
110.628
-1.68389e-05
110.232
-1.41336e-05
109.833
-1.18253e-05
109.433
-9.87453e-06
109.031
-8.24151e-06
108.627
-6.88722e-06
108.221
-5.77436e-06
107.813
-4.86804e-06
107.403
-4.13643e-06
106.99
-3.55087e-06
106.576
-3.0862e-06
106.16
-2.72078e-06
105.741
-2.43595e-06
105.32
-2.21584e-06
104.897
-2.04675e-06
104.471
-1.91763e-06
104.044
-1.8195e-06
103.613
-1.74568e-06
103.18
-1.69025e-06
102.745
-1.64896e-06
102.307
-1.61768e-06
101.866
-1.59414e-06
101.423
-1.5762e-06
100.977
-1.56282e-06
100.528
-1.55246e-06
100.076
-1.54388e-06
99.6218
-1.53582e-06
99.1644
-1.52779e-06
98.7042
-1.5196e-06
98.2412
-1.51127e-06
97.7753
-1.50204e-06
97.3068
-1.49212e-06
96.8355
-1.47986e-06
96.3617
-1.4663e-06
95.8854
-1.44981e-06
95.4067
-1.4319e-06
94.9257
-1.41171e-06
94.4425
-1.38993e-06
93.9574
-1.36603e-06
93.4703
-1.33983e-06
92.9815
-1.31095e-06
92.4911
-1.28001e-06
91.9992
-1.24574e-06
91.5059
-1.21095e-06
91.0113
-1.17273e-06
90.5156
-1.13357e-06
90.0187
-1.09313e-06
89.5209
-1.05198e-06
89.0221
-1.00954e-06
88.5225
-9.68065e-07
88.0219
-9.24143e-07
87.5205
-8.81102e-07
87.0183
-8.36111e-07
86.5152
-7.92363e-07
86.0113
-7.47292e-07
85.5066
-7.03427e-07
85.001
-6.58719e-07
84.4947
-6.15333e-07
83.9875
-5.67609e-07
83.4794
-5.24074e-07
82.9706
-4.7599e-07
82.4609
-4.34928e-07
81.9504
-3.81036e-07
81.4391
-3.39361e-07
80.9271
-2.87216e-07
80.4143
-2.46469e-07
79.9007
-1.88601e-07
79.3865
-1.45205e-07
78.8716
-8.42285e-08
78.3561
-4.54972e-08
77.84
2.30427e-08
77.3234
5.60358e-08
76.8062
1.4284e-07
76.2886
1.54525e-07
75.7705
2.67379e-07
75.2519
2.46869e-07
74.7329
4.12547e-07
74.2134
3.13055e-07
73.6936
6.03565e-07
73.1733
2.86791e-07
72.6526
9.43717e-07
72.1316
4.33679e-08
71.6103
1.62131e-06
71.0887
-6.56534e-07
70.5668
2.82083e-06
70.0448
-1.83664e-06
69.5226
4.36545e-06
69.0003
-3.09971e-06
68.478
5.64718e-06
67.9556
-3.85905e-06
67.4335
6.60809e-06
66.9116
-4.71329e-06
66.3899
1.04207e-05
65.8688
1.02596e-06
65.348
7.62423e-05
64.8277
0.000397513
64.3082
0.00266932
63.7882
0.0172985
63.248
0.134811
0.442297
62.7032
11.6225
-0.000328205
11.604
-0.000235571
11.5855
-0.000226455
11.5669
-0.000228196
11.5482
-0.00022864
11.5294
-0.000228575
11.5105
-0.000228594
11.4916
-0.000228622
11.4725
-0.000228673
11.4534
-0.00022871
11.4342
-0.000228746
11.4149
-0.000228784
11.3956
-0.000228823
11.3761
-0.000228865
11.3566
-0.000228909
11.337
-0.000228955
11.3173
-0.000229004
11.2976
-0.000229054
11.2778
-0.000229106
11.2579
-0.000229159
11.238
-0.000229215
11.218
-0.000229273
11.198
-0.000229332
11.1779
-0.000229394
11.1578
-0.000229458
11.1376
-0.000229526
11.1174
-0.000229594
11.0971
-0.000229668
11.0768
-0.000229744
11.0564
-0.000229823
11.0359
-0.000229908
11.0154
-0.000229996
10.9948
-0.000230089
10.9741
-0.000230191
10.9534
-0.000230295
10.9325
-0.000230411
10.9115
-0.000230533
10.8904
-0.000230664
10.8692
-0.000230803
10.8478
-0.000230943
10.8263
-0.000231093
10.8047
-0.000231252
10.7829
-0.000231422
10.7609
-0.000231608
10.7388
-0.000231808
10.7165
-0.000232019
10.6941
-0.000232236
10.6714
-0.000232452
10.6486
-0.000232668
10.6256
-0.000232884
10.6024
-0.000233106
10.5791
-0.000233333
10.5555
-0.000233563
10.5319
-0.000233801
10.5081
-0.000234032
10.4841
-0.000234262
10.46
-0.000234487
10.4358
-0.000234707
10.4114
-0.000234918
10.3869
-0.00023511
10.3622
-0.000235267
10.3374
-0.000235367
10.3125
-0.000235384
10.2874
-0.000235295
10.2622
-0.000235077
10.2368
-0.000234701
10.2113
-0.000234134
10.1856
-0.000233337
10.1598
-0.000232265
10.1339
-0.000230864
10.1078
-0.000229074
10.0815
-0.000226837
10.055
-0.000224094
10.0283
-0.00022079
10.0015
-0.000216875
9.97439
-0.000212312
9.94709
-0.000207073
9.91955
-0.000201146
9.89179
-0.000194532
9.86378
-0.00018725
9.83552
-0.000179338
9.80701
-0.00017085
9.77824
-0.000161858
9.74922
-0.000152445
9.71993
-0.00014271
9.69038
-0.000132758
9.66058
-0.000122703
9.63051
-0.000112659
9.6002
-0.000102738
9.56963
-9.30482e-05
9.53882
-8.3687e-05
9.50778
-7.47419e-05
9.4765
-6.62858e-05
9.44501
-5.83769e-05
9.4133
-5.10571e-05
9.38138
-4.43524e-05
9.34927
-3.82737e-05
9.31697
-3.28183e-05
9.28448
-2.79712e-05
9.25181
-2.37076e-05
9.21897
-1.99938e-05
9.18596
-1.67899e-05
9.15277
-1.40523e-05
9.11943
-1.17352e-05
9.08592
-9.79281e-06
9.05224
-8.1796e-06
9.0184
-6.85213e-06
8.98439
-5.76963e-06
8.95021
-4.89487e-06
8.91586
-4.19413e-06
8.88133
-3.63781e-06
8.84663
-3.20025e-06
8.81174
-2.85937e-06
8.77666
-2.59613e-06
8.7414
-2.39423e-06
8.70594
-2.24019e-06
8.67028
-2.12346e-06
8.63442
-2.0357e-06
8.59835
-1.9701e-06
8.56207
-1.92114e-06
8.52557
-1.8843e-06
8.48885
-1.85643e-06
8.45191
-1.83537e-06
8.41473
-1.8196e-06
8.37732
-1.80746e-06
8.33968
-1.79741e-06
8.3018
-1.78795e-06
8.26369
-1.77854e-06
8.22534
-1.76897e-06
8.18675
-1.75916e-06
8.14793
-1.74852e-06
8.10888
-1.73672e-06
8.06961
-1.72268e-06
8.03013
-1.70655e-06
7.99043
-1.68758e-06
7.95054
-1.66645e-06
7.91046
-1.64301e-06
7.8702
-1.61755e-06
7.82977
-1.5897e-06
7.78918
-1.55912e-06
7.74845
-1.52549e-06
7.70758
-1.48912e-06
7.66658
-1.44974e-06
7.62548
-1.40839e-06
7.58426
-1.36437e-06
7.54295
-1.3186e-06
7.50155
-1.27131e-06
7.46006
-1.22314e-06
7.4185
-1.17418e-06
7.37686
-1.12514e-06
7.33515
-1.07459e-06
7.29336
-1.02377e-06
7.25151
-9.71881e-07
7.20959
-9.20309e-07
7.16759
-8.68198e-07
7.12553
-8.1665e-07
7.08341
-7.6492e-07
7.04121
-7.13264e-07
6.99894
-6.59713e-07
6.9566
-6.07062e-07
6.9142
-5.52754e-07
6.87173
-5.00515e-07
6.82919
-4.43762e-07
6.78658
-3.90804e-07
6.74391
-3.34105e-07
6.70117
-2.80343e-07
6.65838
-2.19539e-07
6.61553
-1.6275e-07
6.57262
-9.94805e-08
6.52966
-4.35321e-08
6.48665
2.37669e-08
6.4436
7.91497e-08
6.40051
1.54459e-07
6.35737
2.04243e-07
6.31419
2.89805e-07
6.27098
3.28828e-07
6.22773
4.32248e-07
6.18444
4.43659e-07
6.14112
5.90344e-07
6.09776
5.27332e-07
6.05437
8.03593e-07
6.01095
5.3546e-07
5.96751
1.13987e-06
5.92404
3.78715e-07
5.88056
1.66972e-06
5.83705
4.0809e-08
5.79354
2.33801e-06
5.75001
-3.34405e-07
5.70649
2.91213e-06
5.66295
-5.05001e-07
5.61945
3.32119e-06
5.57595
-6.37605e-07
5.53249
4.66694e-06
5.48905
1.52085e-06
5.44571
2.74901e-05
5.40262
0.000138688
5.36105
0.000936763
5.32867
0.00643825
5.3415
0.0787819
0.234518
5.50627
5.81084
5.80138
5.79187
5.78232
5.77272
5.76308
5.7534
5.74368
5.73392
5.72412
5.71428
5.70439
5.69447
5.6845
5.67449
5.66445
5.65437
5.64425
5.6341
5.62392
5.61371
5.60348
5.59322
5.58293
5.57262
5.56229
5.55193
5.54155
5.53114
5.5207
5.51023
5.49973
5.48918
5.4786
5.46797
5.45728
5.44655
5.43575
5.42489
5.41396
5.40296
5.39189
5.38074
5.36952
5.35822
5.34683
5.33534
5.32377
5.31211
5.30036
5.28852
5.2766
5.26459
5.25251
5.24035
5.22812
5.21582
5.20345
5.19101
5.1785
5.16592
5.15327
5.14055
5.12776
5.11489
5.10196
5.08895
5.07588
5.06273
5.04951
5.03621
5.02282
5.00934
4.99577
4.9821
4.96834
4.95446
4.94048
4.92639
4.91218
4.89786
4.88342
4.86887
4.85419
4.83939
4.82448
4.80944
4.79429
4.77902
4.76364
4.74815
4.73254
4.71683
4.70102
4.68511
4.66911
4.65301
4.63682
4.62055
4.60419
4.58775
4.57122
4.55462
4.53793
4.52117
4.50432
4.48739
4.47038
4.45329
4.43611
4.41884
4.40148
4.38404
4.3665
4.34886
4.33113
4.3133
4.29537
4.27733
4.25919
4.24094
4.22257
4.2041
4.18551
4.16681
4.14798
4.12904
4.10998
4.09081
4.07151
4.0521
4.03257
4.01294
3.99319
3.97334
3.9534
3.93335
3.91322
3.893
3.87271
3.85234
3.8319
3.81141
3.79085
3.77024
3.74959
3.72888
3.70814
3.68736
3.66654
3.64568
3.62479
3.60386
3.5829
3.5619
3.54087
3.5198
3.4987
3.47757
3.4564
3.4352
3.41396
3.39269
3.37139
3.35005
3.32868
3.30729
3.28586
3.26441
3.24293
3.22142
3.1999
3.17835
3.15678
3.1352
3.11359
3.09196
3.07032
3.04866
3.02698
3.00529
2.98358
2.96186
2.94013
2.91839
2.89663
2.87488
2.85311
2.83135
2.80959
2.78784
2.76609
2.74436
2.72265
2.70098
2.67944
2.65873
2.64355
2.70071
2.91376
2.30668
0.0520958
2.3116
-0.0103116
2.31479
-0.00856783
2.32891
-0.0195
2.34157
-0.0180483
2.32847
0.00771918
2.29965
0.0234314
2.29693
-0.00269102
2.41531
-0.123725
2.63961
-0.229666
2.85641
-0.222286
2.9238
-0.0729657
2.85253
0.0657778
2.72314
0.12394
2.54907
0.168557
2.35979
0.183815
2.23501
0.119427
2.35616
-0.126261
2.77054
-0.419437
-0.779824
3.54513
4.8928
0.059867
4.90094
-0.0289784
4.93592
-0.0540515
4.99061
-0.0846838
5.03941
-0.0773565
5.03576
0.000868674
4.99768
0.0510036
4.97893
0.0054973
5.18327
-0.338495
5.59238
-0.649302
6.07215
-0.712803
6.31291
-0.324632
6.28828
0.0797196
6.12252
0.279093
5.80992
0.470444
5.37518
0.607923
4.93102
0.553143
4.89634
-0.101561
5.34552
-0.878504
-1.88813
6.44345
62.627
0.0373753
62.5191
-0.019476
62.3348
0.0322228
62.0545
0.0982799
61.7491
0.129747
61.4923
0.159198
61.2665
0.17805
60.9843
0.188904
60.3524
0.194548
59.4086
0.195483
58.4066
0.190274
57.8039
0.179186
57.6172
0.166988
57.6396
0.156688
57.8597
0.150163
58.2303
0.136696
58.537
0.146247
58.2079
0.124839
57.1
0.127749
0.0760693
55.0345
5.45967
0.0782341
5.43075
0.00352932
5.44234
0.0145434
5.5039
0.0303575
5.58978
0.0378223
5.69745
0.0455808
5.81767
0.0519133
5.94438
0.0562984
6.07403
0.0589975
6.2037
0.0599164
6.32968
0.0583911
6.44845
0.054511
6.55983
0.0496916
6.66534
0.045268
6.76758
0.041974
6.86065
0.0378806
6.9616
0.0389692
7.05056
0.0301699
7.16112
0.0110911
-0.0654277
7.2966
2.98924
2.98994
3.00157
3.02892
3.06384
3.10657
3.15564
3.20911
3.26528
3.32236
3.37791
3.42958
3.47643
3.51885
3.55796
3.59302
3.62901
3.65637
3.66455
3.59622
4.19881
-0.672333
4.02355
0.157717
3.98259
0.0239969
4.23786
-0.27217
4.42875
-0.208195
4.43371
-0.0221137
4.40789
0.0089349
4.49901
-0.107941
4.58927
-0.107341
4.57707
-0.00481995
4.54605
0.0142226
4.60687
-0.0774665
4.68631
-0.0963298
4.68576
-0.0163633
4.64275
0.0263035
4.59618
0.0299751
4.63634
-0.056575
4.70655
-0.0868883
4.7145
-0.0246755
4.67886
0.0191432
4.63659
0.0258558
4.61204
0.00816275
4.62549
-0.0297883
4.62896
-0.0198862
4.60839
0.0042195
4.58163
0.0105306
4.55631
0.0091328
4.53344
0.00672414
4.51278
0.00455039
4.4934
0.00332145
4.47443
0.00296832
4.45507
0.00339999
4.43441
0.00475736
4.41124
0.00732049
4.38573
0.0097209
4.37718
-0.00715276
4.38506
-0.0235929
4.37814
-0.00878312
4.35864
0.00389571
4.33792
0.00520261
4.31752
0.00493264
4.29802
0.00410972
4.27931
0.00337158
4.26114
0.0029064
4.24331
0.00262404
4.22572
0.00244581
4.20833
0.0023246
4.1911
0.00222126
4.17404
0.00211029
4.15717
0.0020023
4.14044
0.00191578
4.12384
0.00185654
4.10734
0.00182547
4.09091
0.00182241
4.07453
0.00184695
4.05816
0.00189783
4.04178
0.00197261
4.02538
0.00206727
4.00895
0.00217645
3.99246
0.00229368
3.97593
0.00241154
3.95937
0.00252266
3.94278
0.0026202
3.92619
0.00269823
3.90961
0.00275231
3.89309
0.00278006
3.87664
0.00278125
3.8603
0.00275788
3.84407
0.00271316
3.82799
0.00265051
3.81207
0.002573
3.79631
0.00248403
3.78074
0.0023894
3.76534
0.00229601
3.7501
0.00221678
3.735
0.00216641
3.71999
0.00216341
3.70499
0.00223288
3.6899
0.00240955
3.67456
0.00274476
3.65873
0.00331842
3.64205
0.00426192
3.62392
0.00580261
3.60332
0.00835963
3.57846
0.0127089
3.54629
0.0201096
3.50326
0.031053
3.45105
0.0403316
3.4761
-0.0366671
3.5753
-0.110955
3.62044
-0.0569432
3.59627
0.0125005
3.55419
0.0305851
3.50751
0.0352834
3.4601
0.03609
3.41256
0.0363025
3.36415
0.0372427
3.31455
0.0385008
3.26387
0.0396409
3.21244
0.0404713
3.1605
0.0410864
3.10787
0.0418614
3.0538
0.0433484
2.99698
0.046131
2.93565
0.0507037
2.86778
0.0573596
2.79119
0.0662014
2.70366
0.0772289
2.60315
0.0902393
2.48807
0.104734
2.35781
0.119886
2.21306
0.134607
2.05608
0.147023
1.89132
0.154931
1.7253
0.156361
1.5655
0.150212
1.41883
0.137118
1.29015
0.119161
1.1816
0.0990994
1.09281
0.0793805
1.0217
0.0617892
0.96541
0.0470666
0.920981
0.0352974
0.885762
0.0261785
0.857556
0.0192573
0.834623
0.0140759
0.815626
0.0102331
0.799551
0.00740265
0.785643
0.00532921
0.773341
0.00381769
0.76223
0.00272089
0.752005
0.0019287
0.742446
0.00135925
0.733388
0.000951934
0.724717
0.000662084
0.716346
0.00045692
0.708215
0.000312492
0.700282
0.000211389
0.692514
0.000141015
0.684891
9.23154e-05
0.677396
5.8809e-05
0.670019
3.58943e-05
0.662751
2.03098e-05
0.655587
9.77202e-06
0.648522
2.65737e-06
0.641554
-2.11382e-06
0.634679
-5.2746e-06
0.627895
-7.40997e-06
0.6212
-8.73896e-06
0.614592
-9.6498e-06
0.608069
-1.02624e-05
0.601631
-1.06603e-05
0.595275
-1.09418e-05
0.589
-1.11206e-05
0.582805
-1.12663e-05
0.57669
-1.13615e-05
0.570653
-1.1459e-05
0.564693
-1.15252e-05
0.558812
-1.15943e-05
0.553008
-1.16427e-05
0.547281
-1.16964e-05
0.541633
-1.17391e-05
0.536063
-1.18101e-05
0.530572
-1.18489e-05
0.52516
-1.19348e-05
0.519828
-1.19568e-05
0.514575
-1.20434e-05
0.509403
-1.20508e-05
0.504309
-1.21459e-05
0.499295
-1.21442e-05
0.494358
-1.22669e-05
0.489498
-1.22269e-05
0.484712
-1.24037e-05
0.48
-1.2272e-05
0.475358
-1.25815e-05
0.470786
-1.22574e-05
0.466282
-1.28248e-05
0.461843
-1.2143e-05
0.45747
-1.31321e-05
0.453159
-1.18474e-05
0.448913
-1.35071e-05
0.444728
-1.12983e-05
0.440608
-1.41345e-05
0.43655
-1.10316e-05
0.432558
-1.44744e-05
0.428632
-1.1013e-05
0.424775
-1.46873e-05
0.420988
-1.08432e-05
0.417277
-1.51972e-05
0.413641
-1.0501e-05
0.410088
-1.60561e-05
0.406616
-1.02389e-05
0.40323
-1.42224e-05
0.39993
-8.87971e-06
0.396703
1.68642e-06
0.393486
8.35628e-05
0.389933
0.000501018
0.384666
0.00230312
0.389109
-0.00732426
-0.000898426
0.387198
7.80991
-2.07599
7.52929
0.403212
7.24462
0.274581
7.58102
-0.642159
7.96847
-0.630018
8.00173
-0.0896023
7.87889
0.0979221
7.98824
-0.251094
8.18595
-0.338984
8.19686
-0.0496014
8.09868
0.0787544
8.16913
-0.181313
8.34724
-0.308027
8.40619
-0.108924
8.34332
0.0557665
8.2162
0.123832
8.25235
-0.125621
8.4115
-0.279214
8.49929
-0.145713
8.48598
-0.000453804
8.4215
0.0575028
8.36795
0.0289203
8.39747
-0.0919571
8.43722
-0.0923621
8.43682
-0.0280101
8.41207
0.00283105
8.37905
0.00979495
8.34445
0.00903346
8.31033
0.00646286
8.27623
0.0053138
8.24106
0.00613078
8.20336
0.00918851
8.16083
0.0154824
8.10951
0.0269431
8.04465
0.0429692
8.0092
-0.00313236
8.02089
-0.0666803
8.02267
-0.0419243
8.00064
-0.00526195
7.96991
0.00490409
7.93597
0.00796784
7.90157
0.00772228
7.86741
0.00686685
7.83345
0.00633132
7.79961
0.00605688
7.76586
0.00592608
7.73217
0.00586393
7.69859
0.00578971
7.66517
0.0056456
7.63195
0.00547415
7.5989
0.00533611
7.56602
0.00524972
7.53328
0.00521786
7.50064
0.00524111
7.46809
0.00532029
7.43559
0.00545468
7.40312
0.00564135
7.37065
0.00587303
7.33817
0.00613909
7.30567
0.00642618
7.27313
0.00671808
7.24057
0.00699815
7.20801
0.00725157
7.17545
0.00746574
7.14294
0.00763243
7.11048
0.00774907
7.07811
0.00781933
7.04584
0.00785407
7.01366
0.0078679
6.98157
0.00787598
6.94955
0.00789283
6.91756
0.00793494
6.88554
0.00802817
6.85343
0.00820352
6.82108
0.00851383
6.78835
0.00902071
6.75501
0.00980256
6.72074
0.0109655
6.68513
0.0126568
6.64759
0.0150916
6.6073
0.0186014
6.56301
0.0237259
6.51277
0.0313882
6.45334
0.0432877
6.37907
0.0626343
6.27988
0.0951224
6.14039
0.146541
5.94528
0.211666
5.88908
-0.00371664
6.0506
-0.295914
6.21109
-0.241
6.25588
-0.0555603
6.23371
0.0297881
6.17719
0.0690069
6.10405
0.0865833
6.02011
0.097733
5.92679
0.108202
5.82533
0.117755
5.71733
0.125633
5.60437
0.13157
5.48767
0.136022
5.36765
0.140206
5.24364
0.145845
5.11379
0.154703
4.97534
0.168083
4.82527
0.18649
4.66094
0.20965
4.48048
0.236685
4.28335
0.266486
4.07014
0.297333
3.84271
0.32703
3.60459
0.352712
3.36101
0.370822
3.11868
0.377779
2.88571
0.369963
2.66987
0.346759
2.47701
0.310782
2.31023
0.266863
2.16983
0.220527
2.05392
0.176493
1.95932
0.137767
1.88242
0.105526
1.81974
0.0797173
1.76823
0.0596107
1.72536
0.0442304
1.68911
0.0326118
1.65791
0.0239127
1.63052
0.0174438
1.60603
0.0126606
1.58374
0.00914207
1.56311
0.00656675
1.54376
0.00469126
1.52538
0.00333246
1.50777
0.00235326
1.49076
0.00165149
1.47424
0.00115141
1.45812
0.000797135
1.44234
0.000547648
1.42685
0.000373015
1.41163
0.000251536
1.39665
0.000167552
1.3819
0.000109863
1.36735
7.04771e-05
1.35301
4.37626e-05
1.33886
2.569e-05
1.3249
1.36038e-05
1.31113
5.60786e-06
1.29754
1.37824e-07
1.28413
-3.21304e-06
1.27089
-5.52069e-06
1.25782
-7.05135e-06
1.24492
-8.0195e-06
1.23218
-8.68849e-06
1.21961
-9.08561e-06
1.2072
-9.39675e-06
1.19494
-9.56044e-06
1.18284
-9.73075e-06
1.1709
-9.81024e-06
1.15911
-9.90706e-06
1.14748
-9.95377e-06
1.136
-1.00204e-05
1.12468
-1.00443e-05
1.11351
-1.01394e-05
1.1025
-1.01296e-05
1.09165
-1.02617e-05
1.08096
-1.02148e-05
1.07043
-1.03633e-05
1.06006
-1.02903e-05
1.04985
-1.04591e-05
1.0398
-1.03569e-05
1.0299
-1.05869e-05
1.02015
-1.03852e-05
1.01055
-1.07735e-05
1.0011
-1.03172e-05
0.99179
-1.10867e-05
0.982618
-1.00734e-05
0.973583
-1.16037e-05
0.964678
-9.58405e-06
0.955905
-1.23094e-05
0.947256
-8.84491e-06
0.938737
-1.29588e-05
0.93034
-7.31579e-06
0.922072
-1.44305e-05
0.913929
-6.44077e-06
0.905918
-1.52955e-05
0.898038
-5.90988e-06
0.890296
-1.61719e-05
0.882696
-4.94557e-06
0.875245
-1.78629e-05
0.867946
-3.69313e-06
0.860812
-2.03908e-05
0.85384
-2.6567e-06
0.84704
-1.46761e-05
0.84041
1.95107e-06
0.833928
3.48149e-05
0.827454
0.00028937
0.820255
0.00159824
0.808611
0.00801939
0.771784
0.0237358
0.0807765
0.684495
52.2335
0.311748
51.96
0.264423
51.5014
0.322564
50.1646
0.283467
48.9184
0.206662
48.252
0.168753
47.7736
0.168942
46.9501
0.165689
46.0657
0.140245
45.4902
0.121912
45.0428
0.122653
44.3366
0.122007
43.5241
0.103232
42.9302
0.0849148
42.5052
0.0814676
42.1444
0.0860344
41.5341
0.086634
40.7872
0.0711023
40.1911
0.055312
39.7462
0.0497778
39.3594
0.0505068
38.9433
0.0520716
38.4113
0.04788
37.8883
0.0396098
37.4365
0.03385
37.0188
0.0314287
36.6108
0.0296404
36.2051
0.0276252
35.8001
0.0254468
35.3972
0.0232262
34.9984
0.0210573
34.6059
0.0190438
34.2225
0.017351
33.8529
0.0162684
33.5006
0.016225
33.1026
0.0169255
32.6469
0.0126346
32.2217
0.0083993
31.8365
0.00638116
31.4636
0.00562913
31.0958
0.00502587
30.7299
0.00431336
30.3655
0.00354096
30.0028
0.0027609
29.6421
0.00200157
29.2835
0.00132526
28.9272
0.00057648
28.5736
-0.000721964
28.2228
-0.0020057
27.8742
-0.00285559
27.5277
-0.00339786
27.1831
-0.00383099
26.8404
-0.00422242
26.4998
-0.00459683
26.1612
-0.0049536
25.8248
-0.00528081
25.4905
-0.00556556
25.1583
-0.00579453
24.8283
-0.00595725
24.5003
-0.00604829
24.1744
-0.00606412
23.8505
-0.00600663
23.5284
-0.00588278
23.2082
-0.0057018
22.8896
-0.00547687
22.5728
-0.00522195
22.2576
-0.00495384
21.944
-0.00469182
21.6321
-0.00446232
21.3219
-0.00430016
21.0136
-0.00423661
20.7074
-0.00428417
20.4034
-0.00448124
20.1019
-0.00477079
19.8031
-0.00515642
19.5073
-0.00564695
19.2149
-0.00624626
18.9265
-0.00696678
18.6428
-0.00781908
18.3646
-0.00881113
18.0935
-0.00994285
17.831
-0.0111793
17.5796
-0.0124119
17.3433
-0.0132875
17.1277
-0.0126624
16.941
-0.00709487
16.8007
-0.000174928
16.7207
0.00651393
16.4219
0.0112643
15.8809
-0.0364584
15.4558
-0.0952446
15.2368
-0.11393
15.1096
-0.118635
15.0344
-0.129567
14.999
-0.149882
15.0056
-0.178945
15.0607
-0.215044
15.1681
-0.255952
15.3279
-0.298616
15.5357
-0.338788
15.7819
-0.371011
16.0534
-0.390283
16.3358
-0.393758
16.6172
-0.382088
16.8915
-0.359845
17.1599
-0.333765
17.4288
-0.309317
17.7061
-0.288825
17.9974
-0.271145
18.3035
-0.253219
18.6227
-0.234884
18.9471
-0.212488
19.2633
-0.1844
19.5573
-0.153379
19.8153
-0.123264
20.0255