/*--------------------------------*- C++ -*----------------------------------*\
| =========                 |                                                 |
| \\      /  F ield         | OpenFOAM: The Open Source CFD Toolbox           |
|  \\    /   O peration     | Version:  3.0.x                                 |
|   \\  /    A nd           | Web:      www.OpenFOAM.org                      |
|    \\/     M anipulation  |                                                 |
\*---------------------------------------------------------------------------*/
FoamFile
{
    version     2.0;
    format      ascii;
    class       volScalarField;
    location    "0.55995";
    object      rho;
}
// * * * * * * * * * * * * * * * * * * * * * * * * * * * * * * * * * * * * * //

dimensions      [1 -3 0 0 0 0 0];

internalField   nonuniform List<scalar> 
13800
(
52.3097
52.3159
52.3258
52.3354
52.3446
52.3541
52.3635
52.3733
52.3835
52.394
52.4047
52.4157
52.4272
52.439
52.4513
52.4641
52.4774
52.4912
52.5055
52.5204
52.5358
52.5517
52.5682
52.5852
52.6027
52.6208
52.6394
52.6585
52.6781
52.6982
52.7188
52.7399
52.7615
52.7835
52.8061
52.8291
52.8526
52.8765
52.9008
52.9256
52.9509
52.9765
53.0025
53.029
53.0558
53.083
53.1105
53.1385
53.1667
53.1953
53.2242
53.2534
53.2829
53.3127
53.3427
53.373
53.4035
53.4343
53.4653
53.4965
53.5279
53.5594
53.5912
53.623
53.6551
53.6872
53.7194
53.7518
53.7842
53.8167
53.8493
53.8819
53.9145
53.9472
53.9799
54.0126
54.0453
54.0779
54.1106
54.1431
54.1756
54.2081
54.2405
54.2727
54.3049
54.337
54.369
54.4008
54.4326
54.4644
54.4959
54.5274
54.5587
54.5898
54.6207
54.6515
54.682
54.7124
54.7425
54.7724
54.8022
54.8317
54.861
54.89
54.9189
54.9475
54.976
55.0043
55.0323
55.0601
55.0877
55.115
55.142
55.1688
55.1954
55.2218
55.2479
55.2738
55.2994
55.3248
55.35
55.3748
55.3995
55.4238
55.4479
55.4717
55.4952
55.5185
55.5414
55.5641
55.5866
55.6087
55.6306
55.6523
55.6737
55.6949
55.7159
55.7366
55.7571
55.7773
55.7973
55.817
55.8365
55.8557
55.8746
55.8932
55.9116
55.9297
55.9476
55.9653
55.9827
55.9998
56.0167
56.0333
56.0498
56.0659
56.0818
56.0975
56.113
56.1282
56.1432
56.1579
56.1724
56.1867
56.2007
56.2145
56.2281
56.2415
56.2546
56.2675
56.2802
56.2926
56.305
56.3169
56.3289
56.3403
56.352
56.3629
56.3743
56.3846
56.3957
56.4055
56.4164
56.4256
56.4363
56.4449
56.4554
56.4635
56.4736
56.4813
56.4911
56.4985
56.5079
56.5149
56.5239
56.5308
56.5388
56.5469
56.5522
56.5604
52.3116
52.3178
52.3277
52.3373
52.3465
52.356
52.3655
52.3752
52.3854
52.3959
52.4066
52.4176
52.4291
52.4409
52.4532
52.466
52.4793
52.4931
52.5074
52.5223
52.5377
52.5536
52.5701
52.5871
52.6046
52.6226
52.6412
52.6603
52.6799
52.7
52.7206
52.7417
52.7633
52.7854
52.8079
52.8309
52.8544
52.8783
52.9026
52.9274
52.9526
52.9783
53.0043
53.0307
53.0576
53.0848
53.1123
53.1402
53.1685
53.197
53.2259
53.2551
53.2846
53.3144
53.3444
53.3747
53.4053
53.436
53.467
53.4982
53.5296
53.5612
53.5929
53.6247
53.6567
53.6889
53.7211
53.7535
53.7859
53.8184
53.851
53.8836
53.9162
53.9489
53.9815
54.0142
54.0469
54.0796
54.1122
54.1448
54.1773
54.2097
54.2421
54.2743
54.3065
54.3386
54.3706
54.4024
54.4342
54.4659
54.4975
54.5289
54.5602
54.5913
54.6222
54.653
54.6835
54.7139
54.744
54.774
54.8037
54.8332
54.8625
54.8915
54.9204
54.949
54.9775
55.0057
55.0338
55.0616
55.0891
55.1164
55.1435
55.1703
55.1969
55.2232
55.2493
55.2752
55.3008
55.3262
55.3513
55.3762
55.4008
55.4252
55.4493
55.4731
55.4966
55.5199
55.5428
55.5655
55.5879
55.6101
55.632
55.6536
55.675
55.6962
55.7172
55.7379
55.7584
55.7786
55.7986
55.8183
55.8377
55.8569
55.8758
55.8945
55.9129
55.931
55.9489
55.9665
55.9839
56.001
56.0179
56.0346
56.051
56.0671
56.083
56.0987
56.1142
56.1294
56.1443
56.1591
56.1736
56.1878
56.2019
56.2157
56.2293
56.2426
56.2558
56.2687
56.2814
56.2938
56.3062
56.3181
56.3301
56.3415
56.3532
56.3641
56.3755
56.3858
56.3969
56.4067
56.4176
56.4268
56.4375
56.4461
56.4565
56.4646
56.4748
56.4825
56.4923
56.4997
56.509
56.5161
56.5251
56.5318
56.5404
56.5469
56.5549
56.5606
52.3116
52.3178
52.3277
52.3373
52.3465
52.356
52.3655
52.3752
52.3854
52.3959
52.4066
52.4176
52.4291
52.4409
52.4532
52.466
52.4793
52.4931
52.5074
52.5223
52.5377
52.5536
52.5701
52.5871
52.6046
52.6226
52.6412
52.6603
52.6799
52.7
52.7206
52.7417
52.7633
52.7854
52.8079
52.8309
52.8544
52.8783
52.9026
52.9274
52.9527
52.9783
53.0043
53.0308
53.0576
53.0848
53.1123
53.1402
53.1685
53.197
53.2259
53.2551
53.2846
53.3144
53.3444
53.3747
53.4053
53.436
53.467
53.4982
53.5296
53.5612
53.5929
53.6247
53.6567
53.6889
53.7211
53.7535
53.7859
53.8184
53.851
53.8836
53.9162
53.9489
53.9816
54.0142
54.0469
54.0796
54.1122
54.1448
54.1773
54.2097
54.2421
54.2743
54.3065
54.3386
54.3706
54.4024
54.4342
54.4659
54.4975
54.5289
54.5602
54.5913
54.6222
54.653
54.6836
54.7139
54.7441
54.774
54.8037
54.8332
54.8625
54.8915
54.9204
54.949
54.9775
55.0057
55.0338
55.0616
55.0891
55.1164
55.1435
55.1703
55.1969
55.2232
55.2493
55.2752
55.3008
55.3262
55.3514
55.3762
55.4008
55.4252
55.4493
55.4731
55.4966
55.5199
55.5428
55.5655
55.5879
55.6101
55.632
55.6536
55.675
55.6962
55.7172
55.7379
55.7584
55.7786
55.7986
55.8183
55.8377
55.8569
55.8758
55.8945
55.9129
55.931
55.9489
55.9665
55.9839
56.001
56.0179
56.0346
56.051
56.0671
56.083
56.0987
56.1142
56.1294
56.1443
56.1591
56.1736
56.1879
56.2019
56.2157
56.2293
56.2426
56.2558
56.2687
56.2814
56.2938
56.3062
56.3181
56.3301
56.3415
56.3532
56.3641
56.3755
56.3858
56.3969
56.4067
56.4176
56.4268
56.4375
56.4461
56.4566
56.4647
56.4748
56.4825
56.4923
56.4997
56.5091
56.5161
56.5251
56.5318
56.5404
56.5468
56.555
56.561
52.3116
52.3178
52.3277
52.3373
52.3465
52.356
52.3654
52.3752
52.3854
52.3958
52.4065
52.4176
52.429
52.4409
52.4532
52.466
52.4793
52.4931
52.5074
52.5223
52.5377
52.5536
52.5701
52.5871
52.6046
52.6226
52.6412
52.6603
52.6799
52.7
52.7206
52.7417
52.7633
52.7853
52.8079
52.8309
52.8544
52.8783
52.9026
52.9274
52.9526
52.9783
53.0043
53.0307
53.0576
53.0847
53.1123
53.1402
53.1685
53.197
53.2259
53.2551
53.2846
53.3144
53.3444
53.3747
53.4053
53.436
53.467
53.4982
53.5296
53.5611
53.5929
53.6247
53.6567
53.6889
53.7211
53.7535
53.7859
53.8184
53.8509
53.8836
53.9162
53.9489
53.9815
54.0142
54.0469
54.0796
54.1122
54.1448
54.1773
54.2097
54.2421
54.2743
54.3065
54.3386
54.3706
54.4024
54.4342
54.4659
54.4975
54.5289
54.5602
54.5913
54.6222
54.653
54.6835
54.7139
54.744
54.774
54.8037
54.8332
54.8625
54.8915
54.9204
54.949
54.9775
55.0057
55.0338
55.0616
55.0891
55.1164
55.1435
55.1703
55.1969
55.2232
55.2493
55.2752
55.3008
55.3262
55.3513
55.3762
55.4008
55.4252
55.4493
55.4731
55.4966
55.5199
55.5428
55.5655
55.5879
55.6101
55.632
55.6536
55.675
55.6962
55.7172
55.7379
55.7584
55.7786
55.7986
55.8183
55.8377
55.8569
55.8758
55.8945
55.9129
55.931
55.9489
55.9665
55.9839
56.001
56.0179
56.0346
56.051
56.0671
56.083
56.0987
56.1142
56.1294
56.1443
56.1591
56.1736
56.1879
56.2019
56.2157
56.2293
56.2426
56.2558
56.2687
56.2814
56.2938
56.3062
56.3181
56.3301
56.3415
56.3532
56.3641
56.3755
56.3858
56.3969
56.4067
56.4176
56.4268
56.4375
56.4461
56.4566
56.4647
56.4748
56.4825
56.4923
56.4997
56.5091
56.5161
56.5251
56.5318
56.5404
56.5469
56.555
56.5614
52.3116
52.3178
52.3277
52.3373
52.3465
52.356
52.3654
52.3752
52.3854
52.3958
52.4065
52.4176
52.429
52.4409
52.4532
52.466
52.4793
52.4931
52.5074
52.5222
52.5376
52.5536
52.57
52.587
52.6046
52.6226
52.6412
52.6603
52.6799
52.7
52.7206
52.7417
52.7633
52.7853
52.8079
52.8309
52.8543
52.8783
52.9026
52.9274
52.9526
52.9783
53.0043
53.0307
53.0575
53.0847
53.1123
53.1402
53.1684
53.197
53.2259
53.2551
53.2846
53.3144
53.3444
53.3747
53.4053
53.436
53.467
53.4982
53.5296
53.5611
53.5929
53.6247
53.6567
53.6889
53.7211
53.7535
53.7859
53.8184
53.8509
53.8836
53.9162
53.9489
53.9815
54.0142
54.0469
54.0796
54.1122
54.1448
54.1773
54.2097
54.2421
54.2743
54.3065
54.3386
54.3705
54.4024
54.4342
54.4659
54.4975
54.5289
54.5602
54.5913
54.6222
54.653
54.6835
54.7139
54.744
54.774
54.8037
54.8332
54.8625
54.8915
54.9204
54.949
54.9775
55.0057
55.0338
55.0616
55.0891
55.1164
55.1435
55.1703
55.1968
55.2232
55.2493
55.2752
55.3008
55.3262
55.3513
55.3762
55.4008
55.4252
55.4493
55.4731
55.4966
55.5198
55.5428
55.5655
55.5879
55.6101
55.632
55.6536
55.675
55.6962
55.7172
55.7379
55.7584
55.7786
55.7986
55.8183
55.8377
55.8569
55.8758
55.8945
55.9129
55.931
55.9489
55.9665
55.9839
56.001
56.0179
56.0346
56.051
56.0671
56.083
56.0987
56.1142
56.1294
56.1443
56.1591
56.1736
56.1879
56.2019
56.2157
56.2293
56.2426
56.2558
56.2687
56.2814
56.2938
56.3062
56.3181
56.3301
56.3415
56.3532
56.3641
56.3755
56.3858
56.3969
56.4067
56.4176
56.4268
56.4375
56.4461
56.4566
56.4647
56.4748
56.4825
56.4923
56.4997
56.5091
56.5161
56.5251
56.5318
56.5404
56.5468
56.5551
56.5611
52.3116
52.3178
52.3277
52.3373
52.3465
52.356
52.3654
52.3752
52.3854
52.3958
52.4065
52.4176
52.429
52.4409
52.4532
52.466
52.4793
52.4931
52.5074
52.5222
52.5376
52.5536
52.57
52.587
52.6046
52.6226
52.6412
52.6603
52.6799
52.7
52.7206
52.7417
52.7633
52.7853
52.8079
52.8309
52.8543
52.8783
52.9026
52.9274
52.9526
52.9783
53.0043
53.0307
53.0575
53.0847
53.1123
53.1402
53.1684
53.197
53.2259
53.2551
53.2846
53.3144
53.3444
53.3747
53.4053
53.436
53.467
53.4982
53.5296
53.5611
53.5929
53.6247
53.6567
53.6889
53.7211
53.7535
53.7859
53.8184
53.8509
53.8836
53.9162
53.9489
53.9815
54.0142
54.0469
54.0796
54.1122
54.1448
54.1773
54.2097
54.2421
54.2743
54.3065
54.3386
54.3705
54.4024
54.4342
54.4659
54.4975
54.5289
54.5602
54.5913
54.6222
54.653
54.6835
54.7139
54.744
54.774
54.8037
54.8332
54.8625
54.8915
54.9204
54.949
54.9775
55.0057
55.0338
55.0616
55.0891
55.1164
55.1435
55.1703
55.1968
55.2232
55.2493
55.2752
55.3008
55.3262
55.3513
55.3762
55.4008
55.4252
55.4493
55.4731
55.4966
55.5198
55.5428
55.5655
55.5879
55.6101
55.632
55.6536
55.675
55.6962
55.7172
55.7379
55.7584
55.7786
55.7986
55.8183
55.8377
55.8569
55.8758
55.8945
55.9129
55.931
55.9489
55.9665
55.9839
56.001
56.0179
56.0346
56.051
56.0671
56.083
56.0987
56.1142
56.1294
56.1443
56.1591
56.1736
56.1879
56.2019
56.2157
56.2293
56.2426
56.2558
56.2687
56.2814
56.2939
56.3061
56.3182
56.33
56.3416
56.3531
56.3642
56.3754
56.386
56.3966
56.4072
56.4169
56.4276
56.4365
56.4471
56.4555
56.4657
56.4739
56.4833
56.4919
56.4999
56.5091
56.516
56.525
56.5322
56.5401
56.547
56.5549
56.562
52.3116
52.3178
52.3277
52.3373
52.3465
52.356
52.3654
52.3752
52.3854
52.3958
52.4065
52.4176
52.429
52.4409
52.4532
52.466
52.4793
52.4931
52.5074
52.5223
52.5377
52.5536
52.5701
52.5871
52.6046
52.6226
52.6412
52.6603
52.6799
52.7
52.7206
52.7417
52.7633
52.7853
52.8079
52.8309
52.8544
52.8783
52.9026
52.9274
52.9526
52.9783
53.0043
53.0307
53.0576
53.0847
53.1123
53.1402
53.1685
53.197
53.2259
53.2551
53.2846
53.3144
53.3444
53.3747
53.4053
53.436
53.467
53.4982
53.5296
53.5611
53.5929
53.6247
53.6567
53.6889
53.7211
53.7535
53.7859
53.8184
53.8509
53.8836
53.9162
53.9489
53.9815
54.0142
54.0469
54.0796
54.1122
54.1448
54.1773
54.2097
54.2421
54.2743
54.3065
54.3386
54.3706
54.4024
54.4342
54.4659
54.4975
54.5289
54.5602
54.5913
54.6222
54.653
54.6835
54.7139
54.744
54.774
54.8037
54.8332
54.8625
54.8915
54.9204
54.949
54.9775
55.0057
55.0338
55.0616
55.0891
55.1164
55.1435
55.1703
55.1969
55.2232
55.2493
55.2752
55.3008
55.3262
55.3513
55.3762
55.4008
55.4252
55.4493
55.4731
55.4966
55.5199
55.5428
55.5655
55.5879
55.6101
55.632
55.6536
55.675
55.6962
55.7172
55.7379
55.7584
55.7786
55.7986
55.8183
55.8377
55.8569
55.8758
55.8945
55.9129
55.931
55.9489
55.9665
55.9839
56.001
56.0179
56.0346
56.051
56.0671
56.083
56.0987
56.1142
56.1294
56.1443
56.1591
56.1736
56.1879
56.2019
56.2157
56.2293
56.2426
56.2558
56.2687
56.2814
56.2939
56.3061
56.3182
56.3299
56.3418
56.3528
56.3645
56.375
56.3864
56.3963
56.4074
56.4168
56.4277
56.4365
56.4471
56.4555
56.4658
56.4737
56.4837
56.4912
56.5008
56.508
56.5172
56.524
56.5329
56.5394
56.5479
56.5545
56.5622
52.3116
52.3178
52.3277
52.3373
52.3465
52.356
52.3655
52.3752
52.3854
52.3959
52.4066
52.4176
52.4291
52.4409
52.4532
52.466
52.4793
52.4931
52.5074
52.5223
52.5377
52.5536
52.5701
52.5871
52.6046
52.6226
52.6412
52.6603
52.6799
52.7
52.7206
52.7417
52.7633
52.7854
52.8079
52.8309
52.8544
52.8783
52.9026
52.9274
52.9527
52.9783
53.0043
53.0308
53.0576
53.0848
53.1123
53.1402
53.1685
53.197
53.2259
53.2551
53.2846
53.3144
53.3444
53.3747
53.4053
53.436
53.467
53.4982
53.5296
53.5612
53.5929
53.6247
53.6567
53.6889
53.7211
53.7535
53.7859
53.8184
53.851
53.8836
53.9162
53.9489
53.9816
54.0142
54.0469
54.0796
54.1122
54.1448
54.1773
54.2097
54.2421
54.2743
54.3065
54.3386
54.3706
54.4024
54.4342
54.4659
54.4975
54.5289
54.5602
54.5913
54.6222
54.653
54.6836
54.7139
54.7441
54.774
54.8037
54.8332
54.8625
54.8915
54.9204
54.949
54.9775
55.0057
55.0338
55.0616
55.0891
55.1164
55.1435
55.1703
55.1969
55.2232
55.2493
55.2752
55.3008
55.3262
55.3514
55.3762
55.4008
55.4252
55.4493
55.4731
55.4966
55.5199
55.5428
55.5655
55.5879
55.6101
55.632
55.6536
55.675
55.6962
55.7172
55.7379
55.7584
55.7786
55.7986
55.8183
55.8377
55.8569
55.8758
55.8945
55.9129
55.931
55.9489
55.9665
55.9839
56.001
56.0179
56.0346
56.051
56.0671
56.083
56.0987
56.1142
56.1294
56.1443
56.1591
56.1736
56.1879
56.2019
56.2157
56.2293
56.2427
56.2558
56.2687
56.2814
56.2939
56.3061
56.3183
56.3299
56.3418
56.3528
56.3645
56.3749
56.3864
56.3963
56.4074
56.4168
56.4277
56.4365
56.4471
56.4555
56.4658
56.4737
56.4837
56.4912
56.5008
56.508
56.5172
56.524
56.5329
56.5393
56.5479
56.5537
56.5619
52.3116
52.3178
52.3277
52.3373
52.3465
52.356
52.3655
52.3752
52.3854
52.3959
52.4066
52.4176
52.4291
52.4409
52.4532
52.466
52.4793
52.4931
52.5074
52.5223
52.5377
52.5536
52.5701
52.5871
52.6046
52.6226
52.6412
52.6603
52.6799
52.7
52.7206
52.7417
52.7633
52.7854
52.8079
52.8309
52.8544
52.8783
52.9026
52.9274
52.9526
52.9783
53.0043
53.0307
53.0576
53.0848
53.1123
53.1402
53.1685
53.197
53.2259
53.2551
53.2846
53.3144
53.3444
53.3747
53.4053
53.436
53.467
53.4982
53.5296
53.5612
53.5929
53.6247
53.6567
53.6889
53.7211
53.7535
53.7859
53.8184
53.851
53.8836
53.9162
53.9489
53.9815
54.0142
54.0469
54.0796
54.1122
54.1448
54.1773
54.2097
54.2421
54.2743
54.3065
54.3386
54.3706
54.4024
54.4342
54.4659
54.4975
54.5289
54.5602
54.5913
54.6222
54.653
54.6835
54.7139
54.744
54.774
54.8037
54.8332
54.8625
54.8915
54.9204
54.949
54.9775
55.0057
55.0338
55.0616
55.0891
55.1164
55.1435
55.1703
55.1969
55.2232
55.2493
55.2752
55.3008
55.3262
55.3513
55.3762
55.4008
55.4252
55.4493
55.4731
55.4966
55.5199
55.5428
55.5655
55.5879
55.6101
55.632
55.6536
55.675
55.6962
55.7172
55.7379
55.7584
55.7786
55.7986
55.8183
55.8377
55.8569
55.8758
55.8945
55.9129
55.931
55.9489
55.9665
55.9839
56.001
56.0179
56.0346
56.051
56.0671
56.083
56.0987
56.1142
56.1294
56.1443
56.1591
56.1736
56.1879
56.2019
56.2157
56.2293
56.2426
56.2558
56.2687
56.2814
56.2939
56.3061
56.3183
56.3299
56.3418
56.3528
56.3645
56.3749
56.3864
56.3963
56.4074
56.4168
56.4277
56.4365
56.4471
56.4554
56.4658
56.4737
56.4836
56.4912
56.5008
56.508
56.5172
56.524
56.5329
56.5393
56.5479
56.5536
56.5614
52.3097
52.3159
52.3258
52.3354
52.3446
52.3541
52.3635
52.3733
52.3835
52.394
52.4047
52.4157
52.4272
52.439
52.4513
52.4641
52.4774
52.4912
52.5055
52.5204
52.5358
52.5517
52.5682
52.5852
52.6027
52.6208
52.6394
52.6585
52.6781
52.6982
52.7188
52.7399
52.7615
52.7835
52.8061
52.8291
52.8526
52.8765
52.9008
52.9256
52.9509
52.9765
53.0025
53.029
53.0558
53.083
53.1105
53.1385
53.1667
53.1953
53.2242
53.2534
53.2829
53.3127
53.3427
53.373
53.4035
53.4343
53.4653
53.4965
53.5279
53.5594
53.5912
53.623
53.6551
53.6872
53.7194
53.7518
53.7842
53.8167
53.8493
53.8819
53.9145
53.9472
53.9799
54.0126
54.0453
54.0779
54.1106
54.1431
54.1756
54.2081
54.2405
54.2727
54.3049
54.337
54.369
54.4008
54.4326
54.4644
54.4959
54.5274
54.5587
54.5898
54.6207
54.6515
54.682
54.7124
54.7425
54.7724
54.8022
54.8317
54.861
54.89
54.9189
54.9475
54.976
55.0043
55.0323
55.0601
55.0877
55.115
55.142
55.1688
55.1954
55.2218
55.2479
55.2738
55.2994
55.3248
55.35
55.3748
55.3995
55.4238
55.4479
55.4717
55.4952
55.5185
55.5414
55.5641
55.5866
55.6087
55.6306
55.6523
55.6737
55.6949
55.7159
55.7366
55.7571
55.7773
55.7973
55.817
55.8365
55.8557
55.8746
55.8932
55.9116
55.9297
55.9476
55.9653
55.9827
55.9998
56.0167
56.0333
56.0498
56.0659
56.0818
56.0975
56.113
56.1282
56.1432
56.1579
56.1724
56.1867
56.2007
56.2145
56.2281
56.2415
56.2546
56.2675
56.2802
56.2927
56.3049
56.3171
56.3287
56.3406
56.3517
56.3633
56.3738
56.3852
56.3951
56.4062
56.4156
56.4265
56.4353
56.446
56.4542
56.4646
56.4725
56.4825
56.49
56.4996
56.5068
56.516
56.5228
56.5317
56.5381
56.5468
56.5519
56.5604
56.5648
56.5662
56.5674
56.5685
56.5692
56.5695
56.5694
56.5694
56.5698
56.5706
56.5716
56.5729
56.5741
56.5753
56.5765
56.5776
56.5786
56.5797
56.5807
56.5819
56.5646
56.5659
56.5671
56.5682
56.5693
56.5703
56.5712
56.5719
56.5726
56.5734
56.5741
56.5749
56.5758
56.5767
56.5778
56.579
56.5801
56.5813
56.5824
56.5837
56.5642
56.5655
56.5668
56.568
56.5692
56.5703
56.5713
56.5724
56.5732
56.5741
56.5747
56.5756
56.5763
56.5773
56.5781
56.5793
56.5803
56.5815
56.5828
56.5839
56.5649
56.5663
56.5675
56.5689
56.5699
56.5712
56.5721
56.5734
56.5744
56.5755
56.5764
56.5774
56.5781
56.5789
56.5792
56.5799
56.5803
56.5811
56.582
56.5829
56.5651
56.5665
56.5678
56.5692
56.5705
56.5718
56.573
56.5743
56.5756
56.5768
56.5781
56.5793
56.5806
56.5818
56.583
56.5842
56.5854
56.5865
56.5876
56.5886
56.5654
56.5667
56.5678
56.5692
56.5703
56.5716
56.5727
56.5739
56.5749
56.5761
56.5771
56.5782
56.5792
56.5803
56.5811
56.5819
56.5825
56.583
56.5837
56.5842
56.5663
56.5675
56.5687
56.57
56.5711
56.5724
56.5736
56.5749
56.5762
56.5775
56.5787
56.5799
56.5812
56.5825
56.5838
56.5852
56.5866
56.588
56.5895
56.5908
56.5661
56.5669
56.568
56.5691
56.5703
56.5715
56.5727
56.5739
56.5752
56.5764
56.5775
56.5788
56.5801
56.5815
56.583
56.5846
56.5863
56.588
56.5897
56.5912
56.5656
56.5667
56.5678
56.5691
56.5704
56.5717
56.5731
56.5744
56.5758
56.5772
56.5787
56.5803
56.582
56.5838
56.5855
56.5872
56.589
56.5906
56.5922
56.5938
56.5646
56.5656
56.5668
56.5682
56.5696
56.5711
56.5726
56.5742
56.5758
56.5774
56.579
56.5807
56.5823
56.584
56.5857
56.5874
56.5891
56.5907
56.5922
56.5936
56.5844
56.5878
56.5922
56.5974
56.6023
56.6064
56.61
56.6138
56.618
56.6223
56.6265
56.6303
56.6339
56.6372
56.6404
56.6438
56.6472
56.6507
56.6541
56.6573
56.6605
56.6635
56.6664
56.6694
56.6722
56.675
56.6777
56.6803
56.6829
56.6854
56.6879
56.6902
56.6926
56.6948
56.697
56.6992
56.7012
56.7033
56.7052
56.7072
56.709
56.7108
56.7126
56.7143
56.716
56.7176
56.7192
56.7207
56.7221
56.7235
56.7249
56.7262
56.7275
56.7288
56.7301
56.7313
56.7324
56.7336
56.7347
56.7357
56.7368
56.7377
56.7387
56.7396
56.7405
56.7413
56.7421
56.7429
56.7437
56.7444
56.7451
56.7458
56.7464
56.747
56.7475
56.7481
56.7486
56.7491
56.7496
56.7501
56.7505
56.751
56.7513
56.7517
56.752
56.7522
56.7525
56.7527
56.7529
56.7531
56.7533
56.7535
56.7536
56.7537
56.7538
56.7539
56.7539
56.7539
56.7539
56.7539
56.7539
56.7539
56.7538
56.7537
56.7536
56.7535
56.7533
56.7531
56.7529
56.7527
56.7525
56.7523
56.7521
56.7519
56.7517
56.7515
56.7513
56.7511
56.7509
56.7506
56.7504
56.7502
56.75
56.7498
56.7496
56.7494
56.7492
56.749
56.7487
56.7485
56.7483
56.7481
56.7479
56.7477
56.7475
56.7473
56.7471
56.7469
56.7467
56.7465
56.7464
56.7462
56.746
56.7459
56.7458
56.7457
56.7457
56.7457
56.7456
56.7455
56.7454
56.7453
56.7453
56.7455
56.7458
56.7463
56.7469
56.7476
56.7481
56.7483
56.7477
56.7472
56.7484
56.7505
56.7533
56.7552
56.7547
56.7462
56.7209
56.6891
56.6564
56.6246
56.5955
56.5699
56.5487
56.5326
56.5236
56.5216
56.5216
56.5239
56.5338
56.5646
56.6049
56.642
56.6736
56.6981
56.7154
56.7278
56.7365
56.7433
56.7476
56.7506
56.7511
56.7513
56.7504
56.7504
56.7496
56.7498
56.749
56.749
56.5866
56.5911
56.5948
56.5994
56.6042
56.6087
56.6126
56.6164
56.6205
56.6248
56.6291
56.6333
56.6371
56.6406
56.6439
56.6472
56.6506
56.654
56.6575
56.6608
56.6641
56.6671
56.6701
56.673
56.6759
56.6787
56.6814
56.6841
56.6867
56.6892
56.6917
56.694
56.6964
56.6986
56.7008
56.703
56.7051
56.7071
56.7091
56.711
56.7129
56.7147
56.7165
56.7182
56.7198
56.7215
56.723
56.7246
56.7261
56.7275
56.7288
56.7302
56.7315
56.7327
56.7339
56.7351
56.7363
56.7374
56.7385
56.7396
56.7407
56.7417
56.7426
56.7435
56.7444
56.7453
56.7461
56.7469
56.7476
56.7484
56.7491
56.7497
56.7504
56.751
56.7515
56.7521
56.7526
56.7531
56.7535
56.754
56.7544
56.7549
56.7553
56.7556
56.756
56.7563
56.7565
56.7567
56.7569
56.7571
56.7573
56.7574
56.7576
56.7577
56.7578
56.7579
56.7579
56.7579
56.7579
56.7579
56.7578
56.7578
56.7577
56.7576
56.7576
56.7575
56.7574
56.7572
56.757
56.7568
56.7566
56.7564
56.7561
56.7559
56.7557
56.7555
56.7553
56.7551
56.7549
56.7547
56.7544
56.7542
56.754
56.7538
56.7536
56.7534
56.7532
56.753
56.7528
56.7526
56.7524
56.7521
56.7519
56.7517
56.7514
56.7512
56.7511
56.7509
56.7507
56.7505
56.7503
56.7502
56.75
56.7498
56.7496
56.7494
56.7494
56.7493
56.7491
56.7491
56.749
56.7488
56.7488
56.7489
56.7489
56.7491
56.7494
56.7497
56.7499
56.7497
56.7496
56.7494
56.7494
56.7499
56.7514
56.7543
56.7572
56.7592
56.7613
56.7639
56.7673
56.7707
56.7733
56.774
56.7726
56.7673
56.7594
56.7511
56.7427
56.7344
56.7275
56.7212
56.7183
56.7181
56.719
56.7224
56.7274
56.7331
56.7383
56.7432
56.7465
56.7491
56.75
56.7509
56.7507
56.7509
56.7505
56.7507
56.7502
56.7499
56.5868
56.5912
56.5948
56.5992
56.6039
56.6082
56.6121
56.6159
56.6199
56.6242
56.6285
56.6326
56.6363
56.6398
56.6431
56.6465
56.65
56.6535
56.6569
56.6602
56.6633
56.6664
56.6694
56.6723
56.6752
56.678
56.6807
56.6834
56.6859
56.6885
56.6909
56.6933
56.6956
56.6979
56.7001
56.7022
56.7043
56.7063
56.7083
56.7102
56.7121
56.7139
56.7157
56.7174
56.7191
56.7207
56.7223
56.7238
56.7253
56.7267
56.7281
56.7294
56.7307
56.7319
56.7332
56.7344
56.7355
56.7367
56.7378
56.7388
56.7399
56.7409
56.7418
56.7428
56.7436
56.7445
56.7453
56.7461
56.7468
56.7476
56.7483
56.749
56.7496
56.7502
56.7508
56.7513
56.7518
56.7523
56.7528
56.7532
56.7537
56.7541
56.7545
56.7549
56.7552
56.7555
56.7558
56.756
56.7562
56.7564
56.7565
56.7567
56.7568
56.7569
56.757
56.7571
56.7572
56.7572
56.7572
56.7571
56.7571
56.757
56.757
56.7569
56.7568
56.7567
56.7566
56.7565
56.7563
56.7561
56.7559
56.7556
56.7554
56.7552
56.755
56.7548
56.7546
56.7543
56.7541
56.7539
56.7537
56.7535
56.7533
56.7531
56.7529
56.7527
56.7525
56.7523
56.7521
56.7519
56.7517
56.7515
56.7513
56.7511
56.7509
56.7507
56.7505
56.7503
56.7501
56.75
56.7498
56.7496
56.7494
56.7492
56.7491
56.7489
56.7488
56.7487
56.7486
56.7484
56.7483
56.7483
56.7482
56.7481
56.7482
56.7486
56.7487
56.7489
56.7493
56.749
56.7484
56.7482
56.7483
56.7494
56.7515
56.7549
56.7587
56.7623
56.7652
56.7681
56.7708
56.7735
56.7752
56.7763
56.7755
56.7735
56.7689
56.7652
56.7595
56.7555
56.75
56.7469
56.7427
56.7411
56.7397
56.7399
56.7408
56.7425
56.7442
56.7463
56.7477
56.7492
56.7497
56.7505
56.7504
56.7507
56.7503
56.7505
56.75
56.75
56.5857
56.59
56.5935
56.5969
56.6006
56.6046
56.6084
56.6119
56.6153
56.6188
56.6225
56.6262
56.6299
56.6333
56.6366
56.6397
56.6429
56.646
56.6492
56.6524
56.6555
56.6586
56.6616
56.6645
56.6673
56.6701
56.6728
56.6754
56.6779
56.6804
56.6829
56.6852
56.6876
56.6898
56.692
56.6942
56.6962
56.6983
56.7003
56.7022
56.704
56.7059
56.7076
56.7094
56.711
56.7126
56.7142
56.7157
56.7172
56.7186
56.72
56.7213
56.7226
56.7239
56.7251
56.7263
56.7275
56.7286
56.7297
56.7308
56.7318
56.7328
56.7338
56.7347
56.7356
56.7364
56.7372
56.738
56.7388
56.7395
56.7402
56.7409
56.7415
56.7421
56.7426
56.7432
56.7437
56.7442
56.7447
56.7452
56.7456
56.7461
56.7464
56.7468
56.7471
56.7474
56.7476
56.7479
56.7481
56.7483
56.7485
56.7486
56.7488
56.7489
56.749
56.749
56.7491
56.7491
56.7491
56.7491
56.7491
56.749
56.749
56.7489
56.7488
56.7486
56.7485
56.7483
56.7481
56.7479
56.7477
56.7475
56.7473
56.7471
56.7469
56.7467
56.7465
56.7463
56.7461
56.7459
56.7457
56.7455
56.7453
56.7451
56.7449
56.7446
56.7444
56.7442
56.744
56.7437
56.7435
56.7433
56.7432
56.743
56.7428
56.7426
56.7424
56.7422
56.742
56.7418
56.7417
56.7416
56.7415
56.7415
56.7414
56.7413
56.7412
56.7411
56.741
56.7411
56.7413
56.7415
56.7419
56.7423
56.7425
56.7425
56.7425
56.7425
56.7425
56.7428
56.7436
56.7451
56.7469
56.7488
56.7505
56.752
56.7535
56.7549
56.7562
56.7573
56.7578
56.758
56.7572
56.7567
56.755
56.7541
56.7524
56.7512
56.7499
56.7489
56.7479
56.7477
56.7471
56.7475
56.7473
56.7479
56.7481
56.7489
56.749
56.7497
56.7496
56.7501
56.7498
56.7501
56.7497
56.75
56.7496
56.7498
56.7496
56.7496
56.5913
56.595
56.5988
56.6026
56.6063
56.61
56.614
56.6182
56.6225
56.6267
56.6308
56.6347
56.6384
56.642
56.6454
56.6488
56.6522
56.6556
56.6588
56.662
56.6651
56.6681
56.6711
56.674
56.6768
56.6796
56.6824
56.6851
56.6877
56.6902
56.6927
56.6951
56.6974
56.6997
56.7019
56.704
56.7061
56.7082
56.7101
56.7121
56.7139
56.7158
56.7175
56.7192
56.7209
56.7225
56.7241
56.7256
56.7271
56.7285
56.7299
56.7313
56.7326
56.7338
56.7351
56.7362
56.7374
56.7385
56.7396
56.7406
56.7416
56.7426
56.7436
56.7445
56.7454
56.7462
56.7471
56.7479
56.7486
56.7494
56.7501
56.7507
56.7514
56.752
56.7526
56.7531
56.7537
56.7542
56.7546
56.7551
56.7555
56.7559
56.7562
56.7566
56.7569
56.7572
56.7575
56.7577
56.7579
56.7581
56.7583
56.7585
56.7586
56.7587
56.7587
56.7588
56.7588
56.7589
56.7589
56.7589
56.7588
56.7588
56.7587
56.7586
56.7585
56.7584
56.7583
56.7581
56.758
56.7578
56.7576
56.7575
56.7573
56.757
56.7568
56.7566
56.7564
56.7561
56.7559
56.7556
56.7554
56.7552
56.7549
56.7547
56.7545
56.7542
56.754
56.7538
56.7536
56.7534
56.7531
56.7529
56.7527
56.7525
56.7523
56.7521
56.7519
56.7517
56.7514
56.7512
56.7511
56.7509
56.7507
56.7505
56.7503
56.7501
56.7499
56.7497
56.7496
56.7495
56.7493
56.7492
56.749
56.7489
56.7488
56.7487
56.7486
56.7487
56.7488
56.7489
56.7488
56.7487
56.7486
56.7487
56.7489
56.7494
56.75
56.7508
56.7516
56.7522
56.7528
56.7531
56.7534
56.7531
56.7532
56.7525
56.7525
56.7519
56.7515
56.7513
56.7507
56.7507
56.7503
56.7504
56.7501
56.7501
56.7502
56.7498
56.7502
56.7497
56.75
56.7498
56.7497
56.7497
56.7495
56.7495
56.7494
56.7494
56.7492
56.7492
56.5869
56.5894
56.5911
56.5926
56.5943
56.5963
56.5985
56.6009
56.6035
56.6063
56.6091
56.6119
56.6148
56.6178
56.6208
56.6238
56.6269
56.6299
56.633
56.636
56.6391
56.6421
56.645
56.6479
56.6507
56.6534
56.6561
56.6587
56.6613
56.6638
56.6662
56.6686
56.6709
56.6731
56.6753
56.6775
56.6795
56.6816
56.6835
56.6855
56.6873
56.6892
56.6909
56.6927
56.6943
56.6959
56.6974
56.6989
56.7004
56.7018
56.7032
56.7045
56.7059
56.7071
56.7084
56.7096
56.7108
56.712
56.7131
56.7141
56.7151
56.7161
56.7171
56.718
56.7189
56.7198
56.7206
56.7213
56.7221
56.7228
56.7235
56.7241
56.7248
56.7255
56.7261
56.7267
56.7273
56.7278
56.7283
56.7287
56.7291
56.7295
56.7299
56.7303
56.7306
56.731
56.7313
56.7315
56.7318
56.732
56.7322
56.7323
56.7325
56.7326
56.7327
56.7328
56.7329
56.7329
56.7329
56.7328
56.7328
56.7327
56.7326
56.7324
56.7323
56.7322
56.7321
56.732
56.7318
56.7317
56.7315
56.7314
56.7312
56.7311
56.7309
56.7308
56.7307
56.7306
56.7305
56.7304
56.7302
56.7301
56.73
56.73
56.7299
56.7299
56.7298
56.7298
56.7298
56.7299
56.7299
56.73
56.7302
56.7303
56.7305
56.7306
56.7307
56.7308
56.7309
56.7311
56.7313
56.7316
56.7319
56.7324
56.7328
56.7334
56.7339
56.7344
56.7347
56.735
56.7351
56.7352
56.7352
56.7354
56.7357
56.7363
56.7373
56.7385
56.74
56.7416
56.7433
56.7451
56.7469
56.7485
56.7501
56.7513
56.7525
56.7534
56.7544
56.755
56.7557
56.7558
56.7564
56.7562
56.7565
56.7559
56.7558
56.7546
56.7542
56.7527
56.7524
56.7508
56.7509
56.7496
56.7499
56.7489
56.7494
56.7486
56.7492
56.7485
56.7491
56.7485
56.7491
56.7485
56.749
56.7485
56.7491
56.7486
56.749
56.7487
56.5947
56.6
56.6053
56.6103
56.6148
56.6191
56.6232
56.6273
56.6314
56.6354
56.6395
56.6434
56.6473
56.6511
56.6548
56.6585
56.6621
56.6656
56.669
56.6724
56.6757
56.6789
56.682
56.685
56.688
56.6909
56.6937
56.6964
56.6991
56.7017
56.7042
56.7067
56.7091
56.7114
56.7137
56.7159
56.7181
56.7201
56.7222
56.7241
56.726
56.7278
56.7296
56.7314
56.733
56.7347
56.7362
56.7378
56.7392
56.7407
56.7421
56.7434
56.7447
56.746
56.7472
56.7484
56.7496
56.7507
56.7518
56.7529
56.7539
56.7549
56.7558
56.7567
56.7576
56.7584
56.7592
56.7599
56.7607
56.7614
56.7621
56.7628
56.7634
56.7641
56.7646
56.7652
56.7657
56.7662
56.7667
56.7671
56.7675
56.7679
56.7682
56.7686
56.7689
56.7692
56.7695
56.7697
56.7699
56.7701
56.7702
56.7703
56.7704
56.7705
56.7706
56.7706
56.7707
56.7707
56.7707
56.7707
56.7707
56.7706
56.7705
56.7704
56.7703
56.7701
56.77
56.7698
56.7697
56.7695
56.7694
56.7692
56.769
56.7688
56.7686
56.7684
56.7682
56.7679
56.7677
56.7674
56.7672
56.767
56.7668
56.7666
56.7664
56.7662
56.766
56.7658
56.7656
56.7654
56.7652
56.7649
56.7647
56.7645
56.7643
56.7642
56.764
56.7638
56.7637
56.7635
56.7634
56.7632
56.763
56.7629
56.7627
56.7626
56.7624
56.7623
56.7622
56.7621
56.762
56.7619
56.7619
56.762
56.7619
56.7619
56.7616
56.7616
56.7616
56.7616
56.7615
56.7613
56.7612
56.761
56.7609
56.7608
56.7609
56.7608
56.7605
56.7597
56.7591
56.7581
56.7576
56.7576
56.7581
56.7597
56.7619
56.7632
56.7636
56.7628
56.7615
56.7588
56.7575
56.7548
56.7541
56.7521
56.7518
56.7505
56.7505
56.7496
56.7498
56.7491
56.7494
56.7488
56.7492
56.7487
56.7491
56.7489
56.7489
56.7487
56.5957
56.5988
56.6009
56.6023
56.6035
56.6047
56.606
56.6075
56.6092
56.6111
56.6131
56.6153
56.6177
56.6201
56.6227
56.6253
56.6281
56.6309
56.6338
56.6367
56.6397
56.6426
56.6455
56.6484
56.6512
56.654
56.6567
56.6593
56.6619
56.6644
56.6668
56.6692
56.6715
56.6738
56.676
56.6781
56.6802
56.6823
56.6842
56.6862
56.6881
56.6899
56.6917
56.6934
56.6951
56.6967
56.6982
56.6997
56.7012
56.7026
56.7039
56.7053
56.7066
56.7079
56.7092
56.7104
56.7116
56.7128
56.7139
56.7149
56.716
56.717
56.718
56.719
56.7199
56.7208
56.7217
56.7225
56.7233
56.724
56.7247
56.7255
56.7262
56.727
56.7277
56.7284
56.729
56.7296
56.7302
56.7307
56.7312
56.7317
56.7322
56.7326
56.7331
56.7336
56.734
56.7343
56.7346