/*--------------------------------*- C++ -*----------------------------------*\
| =========                 |                                                 |
| \\      /  F ield         | OpenFOAM: The Open Source CFD Toolbox           |
|  \\    /   O peration     | Version:  3.0.x                                 |
|   \\  /    A nd           | Web:      www.OpenFOAM.org                      |
|    \\/     M anipulation  |                                                 |
\*---------------------------------------------------------------------------*/
FoamFile
{
    version     2.0;
    format      ascii;
    class       volScalarField;
    location    "0.55995";
    object      T;
}
// * * * * * * * * * * * * * * * * * * * * * * * * * * * * * * * * * * * * * //

dimensions      [0 0 0 1 0 0 0];

internalField   nonuniform List<scalar> 
13800
(
779.067
779.035
778.997
778.97
778.95
778.934
778.93
778.931
778.936
778.947
778.964
778.986
779.012
779.042
779.075
779.111
779.149
779.189
779.231
779.275
779.321
779.368
779.417
779.467
779.519
779.573
779.628
779.684
779.742
779.802
779.863
779.926
779.989
780.055
780.121
780.19
780.259
780.33
780.402
780.475
780.549
780.625
780.702
780.78
780.859
780.939
781.02
781.102
781.186
781.27
781.355
781.441
781.528
781.615
781.703
781.792
781.882
781.972
782.063
782.155
782.247
782.339
782.432
782.525
782.619
782.713
782.807
782.901
782.996
783.091
783.186
783.281
783.376
783.471
783.566
783.661
783.756
783.851
783.946
784.04
784.135
784.229
784.324
784.418
784.512
784.605
784.698
784.791
784.882
784.972
785.062
785.151
785.24
785.328
785.416
785.503
785.591
785.678
785.764
785.85
785.936
786.021
786.106
786.19
786.274
786.356
786.437
786.517
786.597
786.675
786.754
786.831
786.908
786.985
787.06
787.134
787.208
787.28
787.352
787.422
787.492
787.562
787.63
787.698
787.766
787.833
787.899
787.965
788.031
788.096
788.16
788.224
788.287
788.349
788.41
788.469
788.528
788.585
788.641
788.697
788.752
788.807
788.861
788.914
788.967
789.019
789.071
789.122
789.172
789.222
789.271
789.319
789.367
789.413
789.46
789.505
789.55
789.594
789.638
789.681
789.723
789.764
789.805
789.846
789.885
789.924
789.962
790
790.037
790.074
790.109
790.145
790.178
790.214
790.245
790.28
790.309
790.345
790.37
790.407
790.429
790.467
790.486
790.525
790.54
790.581
790.593
790.634
790.644
790.685
790.693
790.732
790.74
790.778
790.785
790.819
790.835
790.845
790.894
790.895
779.038
779.006
778.968
778.941
778.922
778.906
778.901
778.903
778.908
778.919
778.936
778.958
778.984
779.014
779.047
779.083
779.121
779.161
779.203
779.247
779.293
779.34
779.389
779.44
779.492
779.545
779.601
779.657
779.715
779.775
779.836
779.899
779.963
780.028
780.095
780.163
780.232
780.303
780.375
780.448
780.523
780.599
780.676
780.754
780.833
780.913
780.994
781.077
781.16
781.244
781.329
781.415
781.502
781.59
781.678
781.767
781.857
781.947
782.038
782.13
782.222
782.314
782.407
782.5
782.594
782.688
782.782
782.877
782.972
783.066
783.161
783.256
783.352
783.447
783.542
783.637
783.732
783.827
783.922
784.017
784.111
784.206
784.3
784.395
784.489
784.582
784.675
784.768
784.859
784.95
785.04
785.129
785.218
785.306
785.394
785.481
785.569
785.655
785.742
785.828
785.914
785.999
786.084
786.168
786.252
786.334
786.416
786.496
786.576
786.655
786.733
786.811
786.888
786.964
787.04
787.114
787.188
787.26
787.332
787.403
787.473
787.542
787.611
787.679
787.746
787.813
787.88
787.946
788.011
788.076
788.141
788.204
788.267
788.33
788.391
788.451
788.509
788.567
788.624
788.679
788.734
788.789
788.843
788.896
788.949
789.001
789.053
789.104
789.154
789.204
789.253
789.302
789.349
789.396
789.443
789.488
789.533
789.577
789.621
789.664
789.706
789.748
789.789
789.829
789.868
789.907
789.946
789.983
790.02
790.057
790.092
790.128
790.161
790.197
790.228
790.264
790.292
790.328
790.353
790.39
790.413
790.451
790.469
790.509
790.523
790.565
790.576
790.618
790.627
790.668
790.677
790.716
790.724
790.761
790.769
790.805
790.812
790.846
790.856
790.892
779.038
779.006
778.968
778.941
778.922
778.906
778.901
778.903
778.908
778.919
778.936
778.958
778.984
779.014
779.047
779.083
779.121
779.161
779.203
779.247
779.293
779.34
779.389
779.44
779.492
779.545
779.601
779.657
779.715
779.775
779.836
779.899
779.963
780.028
780.095
780.163
780.232
780.303
780.375
780.448
780.523
780.599
780.676
780.754
780.833
780.913
780.994
781.077
781.16
781.244
781.329
781.415
781.502
781.59
781.678
781.767
781.857
781.947
782.038
782.13
782.222
782.314
782.407
782.5
782.594
782.688
782.782
782.877
782.971
783.066
783.161
783.256
783.352
783.447
783.542
783.637
783.732
783.827
783.922
784.017
784.111
784.206
784.3
784.394
784.489
784.582
784.675
784.768
784.859
784.95
785.04
785.129
785.217
785.306
785.394
785.481
785.569
785.655
785.742
785.828
785.914
785.999
786.084
786.168
786.252
786.334
786.416
786.496
786.576
786.655
786.733
786.81
786.888
786.964
787.039
787.114
787.188
787.26
787.332
787.403
787.473
787.542
787.611
787.679
787.746
787.813
787.88
787.946
788.011
788.076
788.14
788.204
788.267
788.33
788.391
788.451
788.509
788.567
788.624
788.679
788.734
788.789
788.843
788.896
788.949
789.001
789.053
789.104
789.154
789.204
789.253
789.301
789.349
789.396
789.443
789.488
789.533
789.577
789.621
789.664
789.706
789.748
789.789
789.829
789.868
789.907
789.946
789.983
790.02
790.057
790.092
790.128
790.161
790.197
790.228
790.264
790.292
790.328
790.353
790.39
790.412
790.451
790.469
790.509
790.523
790.565
790.576
790.618
790.627
790.668
790.677
790.716
790.724
790.761
790.769
790.805
790.812
790.847
790.854
790.886
779.038
779.007
778.969
778.942
778.922
778.906
778.902
778.903
778.908
778.919
778.936
778.958
778.984
779.014
779.047
779.083
779.121
779.161
779.204
779.247
779.293
779.34
779.389
779.44
779.492
779.546
779.601
779.657
779.716
779.775
779.836
779.899
779.963
780.028
780.095
780.163
780.232
780.303
780.375
780.449
780.523
780.599
780.676
780.754
780.833
780.913
780.994
781.077
781.16
781.244
781.329
781.415
781.502
781.59
781.678
781.767
781.857
781.947
782.038
782.13
782.222
782.314
782.407
782.5
782.594
782.688
782.782
782.877
782.972
783.067
783.161
783.257
783.352
783.447
783.542
783.638
783.732
783.827
783.922
784.017
784.111
784.206
784.3
784.395
784.489
784.582
784.675
784.768
784.859
784.95
785.04
785.129
785.218
785.306
785.394
785.482
785.569
785.656
785.742
785.828
785.914
785.999
786.084
786.168
786.252
786.334
786.416
786.496
786.576
786.655
786.733
786.811
786.888
786.964
787.04
787.114
787.188
787.26
787.332
787.403
787.473
787.542
787.611
787.679
787.746
787.813
787.88
787.946
788.011
788.076
788.14
788.204
788.267
788.33
788.391
788.451
788.509
788.567
788.624
788.679
788.734
788.789
788.843
788.896
788.949
789.001
789.053
789.104
789.154
789.204
789.253
789.301
789.349
789.396
789.443
789.488
789.533
789.577
789.621
789.664
789.706
789.748
789.789
789.829
789.868
789.907
789.946
789.983
790.02
790.057
790.092
790.128
790.161
790.197
790.228
790.264
790.292
790.328
790.353
790.39
790.413
790.45
790.469
790.509
790.523
790.565
790.576
790.618
790.627
790.668
790.677
790.715
790.724
790.761
790.769
790.805
790.812
790.846
790.854
790.881
779.038
779.007
778.969
778.942
778.922
778.906
778.902
778.903
778.908
778.919
778.936
778.958
778.984
779.014
779.047
779.083
779.121
779.162
779.204
779.248
779.293
779.341
779.39
779.44
779.492
779.546
779.601
779.658
779.716
779.775
779.836
779.899
779.963
780.028
780.095
780.163
780.233
780.303
780.375
780.449
780.523
780.599
780.676
780.754
780.833
780.913
780.995
781.077
781.16
781.244
781.329
781.415
781.502
781.59
781.678
781.767
781.857
781.947
782.038
782.13
782.222
782.314
782.407
782.501
782.594
782.688
782.782
782.877
782.972
783.067
783.162
783.257
783.352
783.447
783.542
783.638
783.733
783.827
783.922
784.017
784.112
784.206
784.3
784.395
784.489
784.582
784.676
784.768
784.859
784.95
785.04
785.129
785.218
785.306
785.394
785.482
785.569
785.656
785.742
785.828
785.914
785.999
786.084
786.168
786.252
786.335
786.416
786.496
786.576
786.655
786.733
786.811
786.888
786.964
787.04
787.114
787.188
787.26
787.332
787.403
787.473
787.542
787.611
787.679
787.746
787.813
787.88
787.946
788.011
788.076
788.141
788.204
788.267
788.33
788.391
788.451
788.509
788.567
788.624
788.679
788.734
788.789
788.843
788.896
788.949
789.001
789.053
789.104
789.154
789.204
789.253
789.301
789.349
789.396
789.443
789.488
789.533
789.577
789.621
789.664
789.706
789.748
789.789
789.829
789.868
789.907
789.946
789.983
790.02
790.057
790.092
790.128
790.161
790.197
790.228
790.264
790.292
790.328
790.353
790.39
790.412
790.451
790.469
790.509
790.523
790.565
790.576
790.618
790.627
790.668
790.677
790.715
790.724
790.761
790.769
790.805
790.812
790.847
790.854
790.888
779.038
779.007
778.969
778.942
778.922
778.906
778.902
778.903
778.908
778.919
778.936
778.958
778.984
779.014
779.047
779.083
779.121
779.162
779.204
779.248
779.293
779.341
779.39
779.44
779.492
779.546
779.601
779.658
779.716
779.775
779.836
779.899
779.963
780.028
780.095
780.163
780.233
780.303
780.375
780.449
780.523
780.599
780.676
780.754
780.833
780.913
780.995
781.077
781.16
781.244
781.329
781.415
781.502
781.59
781.678
781.767
781.857
781.947
782.038
782.13
782.222
782.314
782.407
782.501
782.594
782.688
782.782
782.877
782.972
783.067
783.162
783.257
783.352
783.447
783.542
783.638
783.733
783.827
783.922
784.017
784.112
784.206
784.3
784.395
784.489
784.582
784.676
784.768
784.859
784.95
785.04
785.129
785.218
785.306
785.394
785.482
785.569
785.656
785.742
785.828
785.914
785.999
786.084
786.168
786.252
786.335
786.416
786.496
786.576
786.655
786.733
786.811
786.888
786.964
787.04
787.114
787.188
787.26
787.332
787.403
787.473
787.542
787.611
787.679
787.746
787.813
787.88
787.946
788.011
788.076
788.141
788.204
788.267
788.33
788.391
788.451
788.509
788.567
788.624
788.679
788.734
788.789
788.843
788.896
788.949
789.001
789.053
789.104
789.154
789.204
789.253
789.301
789.349
789.396
789.443
789.488
789.533
789.577
789.621
789.664
789.706
789.748
789.789
789.829
789.868
789.907
789.946
789.983
790.02
790.057
790.092
790.127
790.162
790.196
790.229
790.262
790.293
790.327
790.355
790.388
790.417
790.444
790.478
790.497
790.538
790.55
790.59
790.603
790.639
790.657
790.683
790.713
790.723
790.762
790.77
790.799
790.817
790.844
790.856
790.876
779.038
779.007
778.969
778.942
778.922
778.906
778.902
778.903
778.908
778.919
778.936
778.958
778.984
779.014
779.047
779.083
779.121
779.161
779.204
779.247
779.293
779.34
779.389
779.44
779.492
779.546
779.601
779.657
779.716
779.775
779.836
779.899
779.963
780.028
780.095
780.163
780.232
780.303
780.375
780.449
780.523
780.599
780.676
780.754
780.833
780.913
780.994
781.077
781.16
781.244
781.329
781.415
781.502
781.59
781.678
781.767
781.857
781.947
782.038
782.13
782.222
782.314
782.407
782.5
782.594
782.688
782.782
782.877
782.972
783.067
783.161
783.257
783.352
783.447
783.542
783.638
783.732
783.827
783.922
784.017
784.111
784.206
784.3
784.395
784.489
784.582
784.675
784.768
784.859
784.95
785.04
785.129
785.218
785.306
785.394
785.482
785.569
785.656
785.742
785.828
785.914
785.999
786.084
786.168
786.252
786.334
786.416
786.496
786.576
786.655
786.733
786.811
786.888
786.964
787.04
787.114
787.188
787.26
787.332
787.403
787.473
787.542
787.611
787.679
787.746
787.813
787.88
787.946
788.011
788.076
788.14
788.204
788.267
788.33
788.391
788.451
788.509
788.567
788.624
788.679
788.734
788.789
788.843
788.896
788.949
789.001
789.053
789.104
789.154
789.204
789.253
789.301
789.349
789.396
789.443
789.488
789.533
789.577
789.621
789.664
789.706
789.748
789.789
789.829
789.868
789.907
789.946
789.983
790.02
790.057
790.093
790.127
790.163
790.195
790.231
790.26
790.297
790.322
790.361
790.382
790.422
790.441
790.48
790.496
790.537
790.55
790.591
790.602
790.643
790.652
790.692
790.701
790.739
790.747
790.784
790.79
790.826
790.833
790.863
790.876
779.038
779.006
778.968
778.941
778.922
778.906
778.901
778.903
778.908
778.919
778.936
778.958
778.984
779.014
779.047
779.083
779.121
779.161
779.203
779.247
779.293
779.34
779.389
779.44
779.492
779.545
779.601
779.657
779.715
779.775
779.836
779.899
779.963
780.028
780.095
780.163
780.232
780.303
780.375
780.448
780.523
780.599
780.676
780.754
780.833
780.913
780.994
781.077
781.16
781.244
781.329
781.415
781.502
781.59
781.678
781.767
781.857
781.947
782.038
782.13
782.222
782.314
782.407
782.5
782.594
782.688
782.782
782.877
782.971
783.066
783.161
783.256
783.352
783.447
783.542
783.637
783.732
783.827
783.922
784.017
784.111
784.206
784.3
784.394
784.489
784.582
784.675
784.768
784.859
784.95
785.04
785.129
785.217
785.306
785.394
785.481
785.569
785.655
785.742
785.828
785.914
785.999
786.084
786.168
786.252
786.334
786.416
786.496
786.576
786.655
786.733
786.81
786.888
786.964
787.039
787.114
787.188
787.26
787.332
787.403
787.473
787.542
787.611
787.679
787.746
787.813
787.88
787.946
788.011
788.076
788.14
788.204
788.267
788.33
788.391
788.451
788.509
788.567
788.624
788.679
788.734
788.789
788.843
788.896
788.949
789.001
789.053
789.104
789.154
789.204
789.253
789.301
789.349
789.396
789.443
789.488
789.533
789.577
789.621
789.664
789.706
789.748
789.789
789.829
789.868
789.907
789.946
789.983
790.02
790.056
790.093
790.127
790.163
790.195
790.231
790.26
790.297
790.322
790.361
790.382
790.422
790.44
790.481
790.496
790.538
790.55
790.591
790.602
790.643
790.652
790.692
790.7
790.739
790.747
790.784
790.79
790.827
790.832
790.873
790.879
779.038
779.006
778.968
778.941
778.922
778.906
778.901
778.903
778.908
778.919
778.936
778.958
778.984
779.014
779.047
779.083
779.121
779.161
779.203
779.247
779.293
779.34
779.389
779.44
779.492
779.545
779.601
779.657
779.715
779.775
779.836
779.899
779.963
780.028
780.095
780.163
780.232
780.303
780.375
780.448
780.523
780.599
780.676
780.754
780.833
780.913
780.994
781.077
781.16
781.244
781.329
781.415
781.502
781.59
781.678
781.767
781.857
781.947
782.038
782.13
782.222
782.314
782.407
782.5
782.594
782.688
782.782
782.877
782.972
783.066
783.161
783.256
783.352
783.447
783.542
783.637
783.732
783.827
783.922
784.017
784.111
784.206
784.3
784.395
784.489
784.582
784.675
784.768
784.859
784.95
785.04
785.129
785.218
785.306
785.394
785.481
785.569
785.655
785.742
785.828
785.914
785.999
786.084
786.168
786.252
786.334
786.416
786.496
786.576
786.655
786.733
786.811
786.888
786.964
787.04
787.114
787.188
787.26
787.332
787.403
787.473
787.542
787.611
787.679
787.746
787.813
787.88
787.946
788.011
788.076
788.141
788.204
788.267
788.33
788.391
788.451
788.509
788.567
788.624
788.679
788.734
788.789
788.843
788.896
788.949
789.001
789.053
789.104
789.154
789.204
789.253
789.302
789.349
789.396
789.443
789.488
789.533
789.577
789.621
789.664
789.706
789.748
789.789
789.829
789.869
789.907
789.946
789.983
790.02
790.056
790.093
790.127
790.163
790.195
790.231
790.26
790.297
790.322
790.361
790.382
790.422
790.44
790.481
790.496
790.538
790.55
790.592
790.602
790.643
790.652
790.692
790.7
790.739
790.747
790.784
790.79
790.828
790.832
790.874
790.887
779.067
779.035
778.997
778.97
778.95
778.934
778.93
778.931
778.936
778.947
778.964
778.986
779.012
779.042
779.075
779.111
779.149
779.189
779.231
779.275
779.321
779.368
779.417
779.467
779.519
779.573
779.628
779.684
779.742
779.802
779.863
779.926
779.989
780.055
780.121
780.19
780.259
780.33
780.402
780.475
780.549
780.625
780.702
780.78
780.859
780.939
781.02
781.102
781.186
781.27
781.355
781.441
781.528
781.615
781.703
781.792
781.882
781.972
782.063
782.155
782.247
782.339
782.432
782.525
782.619
782.713
782.807
782.901
782.996
783.091
783.186
783.281
783.376
783.471
783.566
783.661
783.756
783.851
783.946
784.04
784.135
784.229
784.324
784.418
784.512
784.605
784.698
784.791
784.882
784.972
785.062
785.151
785.24
785.328
785.416
785.503
785.591
785.678
785.764
785.85
785.936
786.021
786.106
786.19
786.274
786.356
786.437
786.517
786.597
786.675
786.754
786.831
786.908
786.985
787.06
787.134
787.208
787.28
787.352
787.422
787.492
787.562
787.63
787.698
787.766
787.833
787.899
787.965
788.031
788.096
788.16
788.224
788.287
788.349
788.41
788.469
788.528
788.585
788.641
788.697
788.752
788.807
788.861
788.914
788.967
789.019
789.071
789.122
789.172
789.222
789.271
789.319
789.366
789.413
789.46
789.505
789.55
789.594
789.638
789.681
789.723
789.764
789.805
789.846
789.885
789.924
789.962
790
790.037
790.073
790.11
790.144
790.18
790.212
790.248
790.277
790.314
790.339
790.377
790.399
790.439
790.457
790.498
790.512
790.555
790.566
790.609
790.618
790.66
790.668
790.709
790.717
790.756
790.763
790.8
790.807
790.845
790.848
790.898
790.901
790.9
790.905
790.911
790.918
790.93
790.949
790.972
790.993
791.009
791.019
791.026
791.03
791.034
791.038
791.042
791.046
791.05
791.054
791.059
791.062
790.903
790.909
790.915
790.922
790.929
790.937
790.947
790.958
790.97
790.981
790.991
791.001
791.01
791.017
791.022
791.025
791.029
791.031
791.034
791.037
790.909
790.915
790.919
790.926
790.931
790.936
790.945
790.951
790.962
790.97
790.984
790.992
791.003
791.009
791.018
791.022
791.026
791.029
791.03
791.034
790.899
790.903
790.909
790.912
790.92
790.924
790.932
790.937
790.944
790.949
790.957
790.964
790.974
790.983
790.998
791.008
791.021
791.029
791.036
791.042
790.9
790.903
790.907
790.909
790.913
790.915
790.919
790.922
790.925
790.929
790.932
790.935
790.938
790.941
790.945
790.948
790.951
790.956
790.959
790.964
790.894
790.897
790.902
790.905
790.91
790.914
790.92
790.924
790.93
790.935
790.942
790.946
790.953
790.958
790.966
790.973
790.983
790.994
791.004
791.014
790.89
790.893
790.897
790.899
790.903
790.904
790.907
790.908
790.911
790.912
790.915
790.918
790.919
790.921
790.922
790.923
790.922
790.922
790.922
790.921
790.889
790.892
790.896
790.899
790.903
790.906
790.91
790.913
790.916
790.919
790.923
790.926
790.928
790.929
790.929
790.927
790.924
790.921
790.918
790.916
790.895
790.897
790.899
790.9
790.902
790.903
790.904
790.906
790.907
790.907
790.906
790.904
790.901
790.898
790.894
790.891
790.887
790.884
790.882
790.88
790.908
790.908
790.909
790.909
790.908
790.907
790.906
790.905
790.903
790.901
790.898
790.896
790.893
790.891
790.888
790.886
790.883
790.881
790.881
790.881
791.069
791.095
791.104
791.099
791.099
791.11
791.127
791.139
791.145
791.148
791.153
791.161
791.172
791.186
791.199
791.21
791.218
791.225
791.232
791.239
791.248
791.257
791.265
791.273
791.281
791.288
791.295
791.303
791.31
791.317
791.324
791.331
791.337
791.344
791.35
791.356
791.362
791.368
791.373
791.379
791.384
791.389
791.394
791.399
791.403
791.408
791.412
791.417
791.421
791.426
791.43
791.434
791.438
791.441
791.444
791.447
791.45
791.453
791.456
791.459
791.461
791.464
791.467
791.47
791.472
791.475
791.477
791.479
791.481
791.483
791.485
791.487
791.49
791.492
791.494
791.496
791.497
791.498
791.499
791.5
791.501
791.502
791.503
791.504
791.505
791.506
791.507
791.508
791.509
791.509
791.509
791.509
791.51
791.51
791.51
791.51
791.51
791.511
791.511
791.51
791.51
791.509
791.509
791.508
791.508
791.508
791.508
791.508
791.508
791.508
791.508
791.508
791.507
791.507
791.506
791.505
791.505
791.504
791.504
791.503
791.502
791.502
791.501
791.5
791.499
791.498
791.498
791.497
791.497
791.497
791.497
791.497
791.496
791.496
791.495
791.495
791.495
791.494
791.494
791.494
791.494
791.494
791.494
791.493
791.493
791.491
791.489
791.487
791.486
791.486
791.486
791.485
791.483
791.479
791.473
791.465
791.456
791.446
791.437
791.435
791.442
791.449
791.432
791.403
791.364
791.337
791.345
791.463
791.817
792.262
792.719
793.164
793.573
793.932
794.231
794.457
794.582
794.611
794.609
794.576
794.436
794.002
793.436
792.915
792.473
792.129
791.885
791.711
791.589
791.493
791.432
791.39
791.382
791.378
791.39
791.389
791.399
791.396
791.407
791.406
791.038
791.05
791.067
791.072
791.072
791.078
791.09
791.103
791.11
791.114
791.116
791.12
791.127
791.138
791.15
791.162
791.171
791.178
791.184
791.191
791.198
791.205
791.214
791.221
791.229
791.236
791.243
791.25
791.257
791.264
791.271
791.278
791.284
791.291
791.297
791.303
791.309
791.314
791.32
791.325
791.33
791.336
791.341
791.345
791.35
791.354
791.358
791.363
791.367
791.371
791.375
791.379
791.383
791.387
791.39
791.394
791.397
791.399
791.402
791.405
791.407
791.41
791.412
791.415
791.417
791.42
791.422
791.424
791.426
791.428
791.43
791.432
791.434
791.436
791.438
791.44
791.442
791.443
791.445
791.446
791.447
791.448
791.448
791.449
791.449
791.45
791.451
791.452
791.453
791.454
791.454
791.455
791.455
791.455
791.455
791.455
791.455
791.455
791.455
791.455
791.455
791.455
791.454
791.454
791.453
791.452
791.452
791.451
791.451
791.451
791.451
791.451
791.451
791.451
791.45
791.45
791.449
791.449
791.448
791.447
791.446
791.446
791.445
791.444
791.444
791.443
791.442
791.441
791.441
791.44
791.44
791.44
791.44
791.44
791.44
791.44
791.44
791.439
791.439
791.439
791.438
791.439
791.439
791.439
791.439
791.439
791.438
791.437
791.437
791.436
791.435
791.435
791.434
791.431
791.43
791.427
791.421
791.416
791.414
791.415
791.417
791.418
791.419
791.411
791.39
791.35
791.31
791.282
791.253
791.217
791.17
791.123
791.089
791.079
791.099
791.172
791.282
791.396
791.514
791.628
791.723
791.81
791.849
791.852
791.838
791.788
791.717
791.637
791.563
791.494
791.447
791.41
791.397
791.384
791.386
791.381
791.387
791.384
791.39
791.393
791.036
791.048
791.067
791.075
791.077
791.084
791.097
791.109
791.118
791.122
791.125
791.13
791.138
791.149
791.161
791.172
791.179
791.186
791.192
791.2
791.208
791.216
791.224
791.232
791.239
791.246
791.253
791.261
791.268
791.275
791.281
791.288
791.295
791.301
791.307
791.313
791.319
791.325
791.33
791.336
791.341
791.346
791.351
791.356
791.361
791.365
791.369
791.373
791.377
791.382
791.386
791.39
791.394
791.398
791.401
791.404
791.407
791.41
791.413
791.415
791.418
791.42
791.423
791.426
791.428
791.43
791.433
791.435
791.437
791.439
791.441
791.443
791.445
791.447
791.449
791.45
791.452
791.454
791.455
791.456
791.457
791.458
791.458
791.459
791.46
791.461
791.462
791.462
791.463
791.464
791.465
791.465
791.465
791.465
791.465
791.465
791.465
791.465
791.465
791.465
791.465
791.465
791.465
791.464
791.463
791.463
791.462
791.462
791.462
791.462
791.462
791.462
791.461
791.461
791.461
791.46
791.459
791.459
791.458
791.457
791.456
791.456
791.455
791.454
791.453
791.452
791.451
791.451
791.45
791.449
791.449
791.449
791.449
791.448
791.448
791.448
791.448
791.447
791.447
791.446
791.446
791.446
791.446
791.446
791.447
791.446
791.446
791.445
791.445
791.445
791.444
791.443
791.443
791.442
791.439
791.434
791.431
791.427
791.422
791.425
791.433
791.435
791.433
791.418
791.389
791.342
791.289
791.24
791.199
791.159
791.122
791.085
791.061
791.047
791.058
791.086
791.149
791.201
791.279
791.334
791.41
791.452
791.509
791.53
791.548
791.545
791.531
791.506
791.481
791.451
791.431
791.409
791.401
791.39
791.39
791.385
791.39
791.386
791.393
791.393
791.048
791.063
791.085
791.107
791.123
791.135
791.148
791.165
791.182
791.198
791.209
791.219
791.228
791.24
791.253
791.266
791.279
791.29
791.3
791.309
791.317
791.324
791.332
791.341
791.349
791.357
791.365
791.372
791.38
791.387
791.394
791.401
791.407
791.414
791.42
791.426
791.432
791.437
791.443
791.448
791.454
791.459
791.464
791.468
791.473
791.477
791.482
791.486
791.49
791.495
791.499
791.503
791.507
791.51
791.514
791.517
791.52
791.523
791.525
791.528
791.531
791.533
791.536
791.538
791.541
791.543
791.545
791.548
791.55
791.552
791.554
791.556
791.558
791.56
791.562
791.564
791.565
791.567
791.568
791.569
791.569
791.57
791.571
791.572
791.573
791.574
791.575
791.576
791.576
791.577
791.577
791.578
791.578
791.578
791.578
791.578
791.578
791.578
791.578
791.577
791.577
791.577
791.576
791.576
791.576
791.576
791.576
791.576
791.576
791.575
791.575
791.575
791.574
791.573
791.573
791.572
791.571
791.571
791.57
791.569
791.568
791.567
791.567
791.566
791.565
791.565
791.565
791.564
791.564
791.563
791.563
791.563
791.562
791.562
791.561
791.561
791.56
791.56
791.56
791.56
791.559
791.558
791.557
791.554
791.554
791.553
791.552
791.552
791.55
791.547
791.542
791.538
791.531
791.524
791.52
791.518
791.517
791.517
791.516
791.512
791.5
791.479
791.453
791.427
791.402
791.382
791.362
791.342
791.324
791.31
791.303
791.301
791.312
791.32
791.343
791.356
791.379
791.395
791.413
791.426
791.439
791.441
791.449
791.441
791.442
791.433
791.429
791.417
791.415
791.404
791.404
791.397
791.4
791.394
791.399
791.394
791.4
791.396
791.398
791.398
790.973
790.993
791.01
791.026
791.042
791.057
791.068
791.075
791.081
791.086
791.091
791.099
791.108
791.118
791.128
791.138
791.147
791.156
791.164
791.173
791.182
791.191
791.2
791.208
791.215
791.223
791.23
791.237
791.243
791.25
791.257
791.263
791.269
791.276
791.282
791.288
791.294
791.299
791.305
791.31
791.316
791.321
791.326
791.33
791.335
791.34
791.344
791.348
791.352
791.356
791.36
791.364
791.367
791.371
791.375
791.378
791.381
791.385
791.388
791.391
791.393
791.396
791.399
791.401
791.403
791.406
791.408
791.41
791.412
791.414
791.416
791.418
791.42
791.421
791.423
791.424
791.426
791.427
791.429
791.43
791.432
791.433
791.434
791.435
791.436
791.437
791.437
791.438
791.438
791.439
791.439
791.44
791.44
791.44
791.441
791.441
791.441
791.441
791.441
791.441
791.441
791.44
791.44
791.44
791.44
791.439
791.439
791.438
791.438
791.437
791.436
791.436
791.435
791.435
791.434
791.434
791.434
791.433
791.433
791.433
791.433
791.432
791.432
791.431
791.431
791.43
791.43
791.43
791.429
791.428
791.428
791.428
791.428
791.428
791.427
791.427
791.428
791.428
791.428
791.428
791.428
791.428
791.428
791.428
791.429
791.429
791.43
791.43
791.43
791.43
791.43
791.43
791.431
791.431
791.431
791.431
791.432
791.431
791.428
791.427
791.427
791.428
791.43
791.429
791.426
791.419
791.411
791.4
791.39
791.38
791.373
791.37
791.365
791.37
791.368
791.378
791.378
791.386
791.39
791.392
791.4
791.398
791.404
791.401
791.403
791.402
791.4
791.404
791.398
791.404
791.399
791.401
791.401
791.4
791.402
791.402
791.402
791.401
791.404
791.403
791.029
791.07
791.118
791.165
791.209
791.249
791.285
791.317
791.346
791.372
791.395
791.417
791.438
791.456
791.473
791.488
791.502
791.515
791.526
791.537
791.546
791.556
791.565
791.573
791.581
791.59
791.597
791.605
791.612
791.62
791.627
791.633
791.64
791.647
791.653
791.659
791.665
791.671
791.676
791.682
791.687
791.692
791.697
791.702
791.706
791.711
791.716
791.721
791.725
791.73
791.734
791.737
791.74
791.744
791.746
791.749
791.752
791.755
791.758
791.761
791.763
791.766
791.768
791.771
791.773
791.776
791.778
791.781
791.783
791.786
791.788
791.79
791.791
791.792
791.793
791.794
791.795
791.797
791.798
791.799
791.8
791.801
791.802
791.803
791.803
791.803
791.804
791.804
791.804
791.805
791.805
791.805
791.805
791.805
791.805
791.804
791.804
791.804
791.804
791.805
791.805
791.806
791.806
791.806
791.805
791.805
791.804
791.804
791.803
791.802
791.801
791.8
791.799
791.798
791.796
791.794
791.792
791.79
791.788
791.786
791.784
791.782
791.78
791.777
791.774
791.771
791.768
791.765
791.761
791.758
791.753
791.748
791.743
791.738
791.733
791.728
791.724
791.72
791.715
791.71
791.705
791.698
791.691
791.682
791.673
791.664
791.654
791.646
791.638
791.633
791.629
791.627
791.625
791.621
791.616
791.606
791.592
791.573
791.552
791.529
791.505
791.48
791.454
791.431
791.409
791.392
791.375
791.363
791.35
791.342
791.332
791.331
791.324
791.326
791.322
791.331
791.332
791.348
791.353
791.374
791.376
791.397
791.395
791.412
791.406
791.419
791.411
791.421
791.412
791.42
791.411
791.419
791.41
791.417
791.409
791.415
791.407
791.413
791.406
791.411
790.923
790.918
790.913
790.912
790.917
790.926
790.936
790.945
790.953
790.96
790.967
790.974
790.981
790.988
790.995
791.002
791.008
791.015
791.021
791.027
791.034
791.04
791.046
791.053
791.059
791.065
791.072
791.078
791.084
791.09
791.095
791.101
791.106
791.111
791.117
791.122
791.127
791.132
791.137
791.142
791.147
791.152
791.157
791.161
791.166
791.17
791.174
791.179
791.183
791.187
791.19
791.194
791.198
791.201
791.205
791.208
791.211
791.214
791.217
791.22
791.223
791.225
791.228
791.231
791.233
791.236
791.239
791.241
791.244
791.246
791.248
791.249
791.251
791.253
791.255
791.256
791.258
791.26
791.261
791.262
791.264
791.265
791.266
791.267
791.268
791.269
791.27
791.271
791.271
791.272
791.273
791.274
791.275
791.275
791.276
791.276
791.276
791.276
791.276
791.275
791.275
791.275
791.275
791.275
791.275
791.275
791.275
791.275
791.274
791.274
791.273
791.272
791.272
791.271
791.27
791.27
791.269
791.269
791.269
791.268
791.268
791.268
791.267
791.266
791.265
791.264
791.263
791.263
791.262
791.262
791.262
791.261
791.261
791.261
791.26
791.26
791.259
791.259
791.259
791.258
791.257
791.257
791.257
791.257
791.257
791.257
791.257
791.256
791.255
791.255
791.255
791.254
791.252
791.25
791.249
791.25
791.252
791.252
791.251
791.251
791.252
791.254
791.255
791.258
791.26
791.26
791.26
791.261
791.265
791.278
791.286
791.3
791.308
791.307
791.3
791.278
791.247
791.229
791.222
791.233
791.249
791.287
791.304
791.34
791.349
791.375
791.377
791.395
791.393
791.405
791.401
791.411
791.405
791.413
791.406
791.412
791.406
791.409
791.409
791.41
790.912
790.937
790.976
791.025
791.076
791.127
791.176
791.221
791.262
791.3
791.335
791.366
791.395
791.42
791.444
791.464
791.483
791.499
791.513
791.525
791.537
791.547
791.556
791.565
791.573
791.581
791.589
791.596
791.603
791.61
791.617
791.624
791.63
791.637
791.643
791.649
791.655
791.661
791.666
791.672
791.677
791.682
791.686
791.691
791.695
791.7
791.705
791.709
791.714
791.719
791.723
791.726
791.73
791.733
791.736
791.738
791.741
791.744
791.746
791.749
791.751
791.754
791.755
791.757
791.759
791.761
791.763
791.765
791.766
791.768
791.77
791.77
791.771
791.771
791.771
791.771
791.771
791.771
791.771
791.771
791.771
791.771
791.77
791.77
791.768
791.767
791.766
791.765
791.764
791.764
791.763
791.762
791.761
791.759
791.758