/*--------------------------------*- C++ -*----------------------------------*\
| =========                 |                                                 |
| \\      /  F ield         | OpenFOAM: The Open Source CFD Toolbox           |
|  \\    /   O peration     | Version:  3.0.x                                 |
|   \\  /    A nd           | Web:      www.OpenFOAM.org                      |
|    \\/     M anipulation  |                                                 |
\*---------------------------------------------------------------------------*/
FoamFile
{
    version     2.0;
    format      ascii;
    class       volScalarField;
    location    "0.12";
    object      rho;
}
// * * * * * * * * * * * * * * * * * * * * * * * * * * * * * * * * * * * * * //

dimensions      [1 -3 0 0 0 0 0];

internalField   nonuniform List<scalar> 
6900
(
50.5857
50.5857
50.5857
50.5857
50.5857
50.5858
50.586
50.5861
50.5862
50.5863
50.5862
50.5862
50.5861
50.586
50.5859
50.5858
50.5857
50.5856
50.5856
50.5855
50.5855
50.5855
50.5855
50.5856
50.5857
50.5858
50.5859
50.5861
50.5863
50.5865
50.5867
50.587
50.5873
50.5876
50.5879
50.5883
50.5887
50.5891
50.5895
50.5899
50.5904
50.5909
50.5914
50.5919
50.5924
50.593
50.5936
50.5942
50.5948
50.5954
50.596
50.5966
50.5972
50.5979
50.5985
50.5991
50.5997
50.6002
50.6008
50.6013
50.6017
50.6022
50.6026
50.6029
50.6032
50.6034
50.6036
50.6037
50.6037
50.6037
50.6037
50.6036
50.6035
50.6033
50.6031
50.6029
50.6026
50.6024
50.6021
50.6019
50.6016
50.6014
50.6012
50.6011
50.601
50.6009
50.6009
50.601
50.601
50.6012
50.6014
50.6016
50.6019
50.6022
50.6025
50.6029
50.6033
50.6037
50.6041
50.6045
50.6049
50.6053
50.6057
50.606
50.6063
50.6066
50.6068
50.607
50.6071
50.6072
50.6072
50.6072
50.6071
50.6069
50.6067
50.6065
50.6062
50.606
50.6056
50.6053
50.605
50.6047
50.6044
50.6041
50.6039
50.6037
50.6036
50.6035
50.6035
50.6035
50.6036
50.6038
50.6041
50.6044
50.6048
50.6053
50.6058
50.6064
50.6071
50.6077
50.6084
50.6092
50.6099
50.6106
50.6114
50.6121
50.6128
50.6134
50.614
50.6146
50.6151
50.6156
50.616
50.6164
50.6168
50.6171
50.6174
50.6176
50.6179
50.6181
50.6184
50.6186
50.6188
50.6191
50.6194
50.6197
50.62
50.6204
50.6208
50.6213
50.6218
50.6223
50.6229
50.6236
50.6243
50.625
50.6258
50.6266
50.6275
50.6283
50.6292
50.6301
50.631
50.6318
50.6326
50.6334
50.6341
50.6348
50.6354
50.6359
50.6363
50.6367
50.6371
50.6373
50.6376
50.6378
50.638
50.638
50.6385
50.6359
50.5858
50.5858
50.5858
50.5858
50.5858
50.5859
50.586
50.5862
50.5863
50.5863
50.5863
50.5862
50.5861
50.586
50.5859
50.5858
50.5857
50.5856
50.5856
50.5856
50.5855
50.5855
50.5856
50.5856
50.5857
50.5858
50.586
50.5861
50.5863
50.5865
50.5867
50.587
50.5873
50.5876
50.5879
50.5883
50.5887
50.5891
50.5895
50.59
50.5904
50.5909
50.5914
50.5919
50.5925
50.593
50.5936
50.5942
50.5948
50.5954
50.596
50.5966
50.5973
50.5979
50.5985
50.5991
50.5997
50.6003
50.6008
50.6013
50.6018
50.6022
50.6026
50.6029
50.6032
50.6034
50.6036
50.6037
50.6038
50.6038
50.6037
50.6036
50.6035
50.6033
50.6031
50.6029
50.6027
50.6024
50.6022
50.6019
50.6017
50.6015
50.6013
50.6011
50.601
50.601
50.601
50.601
50.6011
50.6012
50.6014
50.6016
50.6019
50.6022
50.6026
50.6029
50.6033
50.6037
50.6041
50.6046
50.605
50.6054
50.6057
50.6061
50.6064
50.6067
50.6069
50.607
50.6072
50.6072
50.6073
50.6072
50.6071
50.607
50.6068
50.6065
50.6063
50.606
50.6057
50.6054
50.605
50.6047
50.6044
50.6042
50.6039
50.6037
50.6036
50.6035
50.6035
50.6036
50.6037
50.6039
50.6041
50.6045
50.6049
50.6053
50.6059
50.6065
50.6071
50.6078
50.6085
50.6092
50.6099
50.6107
50.6114
50.6121
50.6128
50.6134
50.6141
50.6146
50.6151
50.6156
50.6161
50.6164
50.6168
50.6171
50.6174
50.6177
50.6179
50.6182
50.6184
50.6186
50.6189
50.6192
50.6194
50.6197
50.6201
50.6205
50.6209
50.6213
50.6218
50.6224
50.623
50.6236
50.6243
50.625
50.6258
50.6267
50.6275
50.6284
50.6293
50.6301
50.631
50.6319
50.6327
50.6334
50.6342
50.6348
50.6354
50.6359
50.6364
50.6368
50.6371
50.6374
50.6376
50.6378
50.638
50.6381
50.6386
50.6363
50.5858
50.5858
50.5858
50.5858
50.5858
50.5859
50.586
50.5862
50.5863
50.5863
50.5863
50.5862
50.5861
50.586
50.5859
50.5858
50.5857
50.5856
50.5856
50.5856
50.5855
50.5855
50.5856
50.5856
50.5857
50.5858
50.586
50.5861
50.5863
50.5865
50.5867
50.587
50.5873
50.5876
50.5879
50.5883
50.5887
50.5891
50.5895
50.59
50.5904
50.5909
50.5914
50.5919
50.5925
50.593
50.5936
50.5942
50.5948
50.5954
50.596
50.5966
50.5973
50.5979
50.5985
50.5991
50.5997
50.6003
50.6008
50.6013
50.6018
50.6022
50.6026
50.6029
50.6032
50.6034
50.6036
50.6037
50.6038
50.6038
50.6037
50.6036
50.6035
50.6033
50.6031
50.6029
50.6027
50.6024
50.6022
50.6019
50.6017
50.6015
50.6013
50.6011
50.601
50.601
50.601
50.601
50.6011
50.6012
50.6014
50.6016
50.6019
50.6022
50.6026
50.6029
50.6033
50.6037
50.6041
50.6046
50.605
50.6054
50.6057
50.6061
50.6064
50.6067
50.6069
50.607
50.6072
50.6072
50.6073
50.6072
50.6071
50.607
50.6068
50.6065
50.6063
50.606
50.6057
50.6054
50.605
50.6047
50.6044
50.6042
50.6039
50.6037
50.6036
50.6035
50.6035
50.6036
50.6037
50.6039
50.6041
50.6045
50.6049
50.6053
50.6059
50.6065
50.6071
50.6078
50.6085
50.6092
50.6099
50.6107
50.6114
50.6121
50.6128
50.6134
50.6141
50.6146
50.6151
50.6156
50.6161
50.6164
50.6168
50.6171
50.6174
50.6177
50.6179
50.6182
50.6184
50.6186
50.6189
50.6192
50.6194
50.6197
50.6201
50.6205
50.6209
50.6213
50.6218
50.6224
50.623
50.6236
50.6243
50.625
50.6258
50.6267
50.6275
50.6284
50.6293
50.6301
50.631
50.6319
50.6327
50.6334
50.6342
50.6348
50.6354
50.6359
50.6364
50.6368
50.6371
50.6374
50.6376
50.6378
50.638
50.6381
50.6382
50.6382
50.5858
50.5858
50.5858
50.5858
50.5858
50.5859
50.586
50.5862
50.5863
50.5863
50.5863
50.5862
50.5861
50.586
50.5859
50.5858
50.5857
50.5856
50.5856
50.5856
50.5855
50.5855
50.5856
50.5856
50.5857
50.5858
50.586
50.5861
50.5863
50.5865
50.5867
50.587
50.5873
50.5876
50.5879
50.5883
50.5887
50.5891
50.5895
50.59
50.5904
50.5909
50.5914
50.5919
50.5925
50.593
50.5936
50.5942
50.5948
50.5954
50.596
50.5966
50.5973
50.5979
50.5985
50.5991
50.5997
50.6003
50.6008
50.6013
50.6018
50.6022
50.6026
50.6029
50.6032
50.6034
50.6036
50.6037
50.6038
50.6038
50.6037
50.6036
50.6035
50.6033
50.6031
50.6029
50.6027
50.6024
50.6022
50.6019
50.6017
50.6015
50.6013
50.6011
50.601
50.601
50.601
50.601
50.6011
50.6012
50.6014
50.6016
50.6019
50.6022
50.6026
50.6029
50.6033
50.6037
50.6041
50.6046
50.605
50.6054
50.6057
50.6061
50.6064
50.6067
50.6069
50.607
50.6072
50.6072
50.6073
50.6072
50.6071
50.607
50.6068
50.6065
50.6063
50.606
50.6057
50.6054
50.605
50.6047
50.6044
50.6042
50.6039
50.6037
50.6036
50.6035
50.6035
50.6036
50.6037
50.6039
50.6041
50.6045
50.6049
50.6053
50.6059
50.6065
50.6071
50.6078
50.6085
50.6092
50.6099
50.6107
50.6114
50.6121
50.6128
50.6134
50.6141
50.6146
50.6151
50.6156
50.6161
50.6164
50.6168
50.6171
50.6174
50.6177
50.6179
50.6182
50.6184
50.6186
50.6189
50.6192
50.6194
50.6197
50.6201
50.6205
50.6209
50.6213
50.6218
50.6224
50.623
50.6236
50.6243
50.625
50.6258
50.6267
50.6275
50.6284
50.6293
50.6301
50.631
50.6319
50.6327
50.6335
50.6342
50.6348
50.6354
50.6359
50.6364
50.6368
50.6371
50.6374
50.6376
50.6379
50.6379
50.6381
50.6374
50.6431
50.5857
50.5857
50.5857
50.5857
50.5857
50.5858
50.586
50.5861
50.5862
50.5863
50.5862
50.5862
50.5861
50.586
50.5859
50.5858
50.5857
50.5856
50.5856
50.5855
50.5855
50.5855
50.5855
50.5856
50.5857
50.5858
50.5859
50.5861
50.5863
50.5865
50.5867
50.587
50.5873
50.5876
50.5879
50.5883
50.5887
50.5891
50.5895
50.5899
50.5904
50.5909
50.5914
50.5919
50.5924
50.593
50.5936
50.5942
50.5948
50.5954
50.596
50.5966
50.5972
50.5979
50.5985
50.5991
50.5997
50.6002
50.6008
50.6013
50.6017
50.6022
50.6026
50.6029
50.6032
50.6034
50.6036
50.6037
50.6037
50.6037
50.6037
50.6036
50.6035
50.6033
50.6031
50.6029
50.6026
50.6024
50.6021
50.6019
50.6016
50.6014
50.6012
50.6011
50.601
50.6009
50.6009
50.601
50.601
50.6012
50.6014
50.6016
50.6019
50.6022
50.6025
50.6029
50.6033
50.6037
50.6041
50.6045
50.6049
50.6053
50.6057
50.606
50.6063
50.6066
50.6068
50.607
50.6071
50.6072
50.6072
50.6072
50.6071
50.6069
50.6067
50.6065
50.6062
50.606
50.6056
50.6053
50.605
50.6047
50.6044
50.6041
50.6039
50.6037
50.6036
50.6035
50.6035
50.6035
50.6036
50.6038
50.6041
50.6044
50.6048
50.6053
50.6058
50.6064
50.6071
50.6077
50.6084
50.6092
50.6099
50.6106
50.6114
50.6121
50.6128
50.6134
50.614
50.6146
50.6151
50.6156
50.616
50.6164
50.6168
50.6171
50.6174
50.6176
50.6179
50.6181
50.6184
50.6186
50.6188
50.6191
50.6194
50.6197
50.62
50.6204
50.6208
50.6213
50.6218
50.6223
50.6229
50.6236
50.6243
50.625
50.6258
50.6266
50.6275
50.6283
50.6292
50.6301
50.631
50.6318
50.6326
50.6334
50.6341
50.6348
50.6354
50.6359
50.6363
50.6367
50.6371
50.6374
50.6376
50.6378
50.6379
50.6381
50.6369
50.6483
50.6528
50.659
50.6597
50.658
50.6566
50.6557
50.6552
50.6538
50.6498
50.6433
50.6373
50.6327
50.6289
50.63
50.6396
50.6478
50.6456
50.6318
50.6098
50.5884
50.6495
50.6526
50.6524
50.6509
50.6496
50.6486
50.6483
50.647
50.6426
50.6358
50.6302
50.6258
50.6224
50.6236
50.6344
50.6412
50.6364
50.6182
50.5944
50.5748
50.6389
50.6388
50.6377
50.6358
50.6331
50.6298
50.6256
50.621
50.6157
50.6101
50.6034
50.5956
50.5868
50.5771
50.5661
50.5553
50.5459
50.538
50.5305
50.5215
50.618
50.6153
50.616
50.6172
50.6161
50.6125
50.6076
50.6009
50.5952
50.5882
50.5819
50.5752
50.5692
50.5635
50.5577
50.5525
50.5475
50.5432
50.5399
50.5377
50.6089
50.5976
50.5934
50.5926
50.5904
50.5857
50.5797
50.5719
50.5648
50.5565
50.549
50.5411
50.5338
50.5265
50.52
50.5134
50.5077
50.5024
50.4987
50.4969
50.5344
50.5319
50.5397
50.5323
50.5283
50.5277
50.5281
50.5272
50.5261
50.5256
50.5254
50.5251
50.525
50.525
50.5246
50.5242
50.524
50.5239
50.524
50.5242
50.5233
50.5138
50.4712
50.42
50.4033
50.4088
50.452
50.5214
50.5561
50.5651
50.5637
50.5536
50.5439
50.5388
50.5363
50.5353
50.5349
50.5348
50.5348
50.535
50.5351
50.5352
50.5354
50.5355
50.5355
50.5356
50.5356
50.5356
50.5355
50.5355
50.5354
50.5352
50.5351
50.5349
50.5347
50.5345
50.5343
50.5341
50.5338
50.5336
50.5333
50.5331
50.5328
50.5326
50.5324
50.5322
50.532
50.5318
50.5316
50.5315
50.5313
50.5313
50.5312
50.5312
50.5312
50.5312
50.5313
50.5314
50.5315
50.5317
50.5319
50.5321
50.5324
50.5327
50.533
50.5333
50.5336
50.534
50.5344
50.5348
50.5352
50.5356
50.536
50.5364
50.5368
50.5372
50.5376
50.538
50.5384
50.5389
50.5393
50.5397
50.5401
50.5406
50.541
50.5415
50.5419
50.5424
50.5429
50.5434
50.5439
50.5445
50.5451
50.5456
50.5462
50.5469
50.5475
50.5482
50.5489
50.5496
50.5503
50.551
50.5518
50.5525
50.5533
50.5541
50.5548
50.5556
50.5564
50.5571
50.5578
50.5586
50.5593
50.5599
50.5606
50.5612
50.5618
50.5623
50.5628
50.5633
50.5638
50.5642
50.5645
50.5648
50.5651
50.5654
50.5657
50.5659
50.5661
50.5662
50.5664
50.5666
50.5667
50.5668
50.567
50.5671
50.5672
50.5674
50.5675
50.5677
50.5679
50.5681
50.5683
50.5686
50.5688
50.5691
50.5695
50.5698
50.5702
50.5707
50.5711
50.5716
50.5722
50.5728
50.5734
50.574
50.5747
50.5754
50.5761
50.5768
50.5775
50.5782
50.5789
50.5796
50.5803
50.581
50.5816
50.5821
50.5826
50.5831
50.5835
50.5839
50.5842
50.5845
50.5847
50.5849
50.585
50.5851
50.5841
50.5921
50.5308
50.5321
50.5392
50.5316
50.5273
50.5266
50.5267
50.5259
50.5248
50.5244
50.5241
50.5238
50.5236
50.5236
50.5231
50.5227
50.5225
50.5227
50.5231
50.5234
50.5233
50.5199
50.5042
50.4865
50.4806
50.4823
50.4945
50.5161
50.5284
50.5336
50.535
50.5352
50.5349
50.5346
50.5344
50.5345
50.5345
50.5347
50.5348
50.535
50.5351
50.5353
50.5354
50.5355
50.5356
50.5356
50.5356
50.5356
50.5356
50.5355
50.5354
50.5353
50.5351
50.535
50.5348
50.5346
50.5343
50.5341
50.5339
50.5336
50.5334
50.5331
50.5329
50.5326
50.5324
50.5322
50.532
50.5318
50.5316
50.5315
50.5314
50.5313
50.5312
50.5312
50.5312
50.5312
50.5313
50.5314
50.5316
50.5317
50.5319
50.5322
50.5324
50.5327
50.533
50.5333
50.5337
50.534
50.5344
50.5348
50.5352
50.5356
50.536
50.5364
50.5368
50.5372
50.5377
50.5381
50.5385
50.5389
50.5393
50.5397
50.5402
50.5406
50.541
50.5415
50.542
50.5424
50.5429
50.5434
50.544
50.5445
50.5451
50.5457
50.5463
50.5469
50.5476
50.5482
50.5489
50.5496
50.5503
50.5511
50.5518
50.5526
50.5533
50.5541
50.5549
50.5556
50.5564
50.5571
50.5579
50.5586
50.5593
50.56
50.5606
50.5612
50.5618
50.5624
50.5629
50.5633
50.5638
50.5642
50.5646
50.5649
50.5652
50.5654
50.5657
50.5659
50.5661
50.5663
50.5664
50.5666
50.5667
50.5669
50.567
50.5671
50.5673
50.5674
50.5676
50.5678
50.5679
50.5681
50.5684
50.5686
50.5689
50.5692
50.5695
50.5699
50.5703
50.5707
50.5712
50.5717
50.5722
50.5728
50.5734
50.5741
50.5747
50.5754
50.5761
50.5768
50.5775
50.5783
50.579
50.5797
50.5803
50.581
50.5816
50.5822
50.5827
50.5831
50.5836
50.5839
50.5842
50.5845
50.5847
50.5849
50.585
50.5851
50.5845
50.5879
50.4942
50.5029
50.5098
50.5107
50.5096
50.5087
50.5083
50.5081
50.5079
50.5075
50.507
50.5068
50.5065
50.5064
50.5067
50.5086
50.5137
50.5186
50.5219
50.5239
50.5251
50.5258
50.5264
50.527
50.5278
50.5289
50.5302
50.5313
50.5321
50.5325
50.5328
50.5329
50.5332
50.5334
50.5337
50.5339
50.5342
50.5344
50.5347
50.5349
50.5351
50.5352
50.5354
50.5355
50.5356
50.5356
50.5356
50.5356
50.5356
50.5355
50.5354
50.5353
50.5351
50.535
50.5348
50.5346
50.5343
50.5341
50.5339
50.5336
50.5334
50.5331
50.5329
50.5326
50.5324
50.5322
50.532
50.5318
50.5316
50.5315
50.5314
50.5313
50.5312
50.5312
50.5312
50.5312
50.5313
50.5314
50.5316
50.5317
50.5319
50.5322
50.5324
50.5327
50.533
50.5333
50.5337
50.534
50.5344
50.5348
50.5352
50.5356
50.536
50.5364
50.5368
50.5372
50.5377
50.5381
50.5385
50.5389
50.5393
50.5397
50.5402
50.5406
50.541
50.5415
50.542
50.5424
50.5429
50.5434
50.544
50.5445
50.5451
50.5457
50.5463
50.5469
50.5476
50.5482
50.5489
50.5496
50.5503
50.5511
50.5518
50.5526
50.5533
50.5541
50.5549
50.5556
50.5564
50.5571
50.5579
50.5586
50.5593
50.56
50.5606
50.5612
50.5618
50.5624
50.5629
50.5633
50.5638
50.5642
50.5646
50.5649
50.5652
50.5654
50.5657
50.5659
50.5661
50.5663
50.5664
50.5666
50.5667
50.5669
50.567
50.5671
50.5673
50.5674
50.5676
50.5678
50.5679
50.5681
50.5684
50.5686
50.5689
50.5692
50.5695
50.5699
50.5703
50.5707
50.5712
50.5717
50.5722
50.5728
50.5734
50.5741
50.5747
50.5754
50.5761
50.5768
50.5775
50.5783
50.579
50.5797
50.5803
50.581
50.5816
50.5822
50.5827
50.5831
50.5836
50.5839
50.5843
50.5845
50.5848
50.5849
50.5851
50.5852
50.5853
50.5853
50.5327
50.5313
50.5296
50.5281
50.527
50.5262
50.5257
50.5254
50.5253
50.5251
50.5249
50.5247
50.5246
50.5243
50.5239
50.5236
50.5234
50.5232
50.5224
50.5215
50.5214
50.5216
50.5213
50.5187
50.5163
50.5162
50.5175
50.5216
50.5276
50.5313
50.5332
50.534
50.5343
50.5344
50.5343
50.5343
50.5344
50.5346
50.5348
50.5349
50.5351
50.5353
50.5354
50.5355
50.5356
50.5356
50.5356
50.5356
50.5356
50.5355
50.5354
50.5353
50.5351
50.535
50.5348
50.5346
50.5343
50.5341
50.5339
50.5336
50.5334
50.5331
50.5329
50.5326
50.5324
50.5322
50.532
50.5318
50.5316
50.5315
50.5314
50.5313
50.5312
50.5312
50.5312
50.5312
50.5313
50.5314
50.5316
50.5317
50.5319
50.5322
50.5324
50.5327
50.533
50.5333
50.5337
50.534
50.5344
50.5348
50.5352
50.5356
50.536
50.5364
50.5368
50.5372
50.5377
50.5381
50.5385
50.5389
50.5393
50.5397
50.5402
50.5406
50.541
50.5415
50.542
50.5424
50.5429
50.5434
50.544
50.5445
50.5451
50.5457
50.5463
50.5469
50.5476
50.5482
50.5489
50.5496
50.5503
50.5511
50.5518
50.5526
50.5533
50.5541
50.5549
50.5556
50.5564
50.5571
50.5579
50.5586
50.5593
50.56
50.5606
50.5612
50.5618
50.5624
50.5629
50.5633
50.5638
50.5642
50.5646
50.5649
50.5652
50.5654
50.5657
50.5659
50.5661
50.5663
50.5664
50.5666
50.5667
50.5669
50.567
50.5671
50.5673
50.5674
50.5676
50.5678
50.5679
50.5681
50.5684
50.5686
50.5689
50.5692
50.5695
50.5699
50.5703
50.5707
50.5712
50.5717
50.5722
50.5728
50.5734
50.5741
50.5747
50.5754
50.5761
50.5768
50.5776
50.5783
50.579
50.5797
50.5803
50.581
50.5816
50.5822
50.5827
50.5831
50.5836
50.5839
50.5843
50.5845
50.5848
50.5849
50.5851
50.5852
50.5857
50.5847
50.5183
50.5227
50.5217
50.5204
50.5194
50.5186
50.5181
50.5178
50.5176
50.5174
50.5172
50.517
50.5167
50.5163
50.516
50.5156
50.5147
50.5143
50.5146
50.5162
50.5193
50.5202
50.5172
50.4979
50.4719
50.4607
50.4598
50.4652
50.4842
50.5037
50.5165
50.5243
50.5288
50.5313
50.5327
50.5335
50.534
50.5343
50.5346
50.5348
50.535
50.5352
50.5353
50.5354
50.5355
50.5356
50.5356
50.5356
50.5355
50.5355
50.5354
50.5352
50.5351
50.5349
50.5347
50.5345
50.5343
50.5341
50.5338
50.5336
50.5333
50.5331
50.5328
50.5326
50.5324
50.5322
50.532
50.5318
50.5316
50.5315
50.5313
50.5313
50.5312
50.5312
50.5312
50.5312
50.5313
50.5314
50.5315
50.5317
50.5319
50.5321
50.5324
50.5327
50.533
50.5333
50.5336
50.534
50.5344
50.5348
50.5352
50.5356
50.536
50.5364
50.5368
50.5372
50.5376
50.538
50.5384
50.5389
50.5393
50.5397
50.5401
50.5406
50.541
50.5415
50.5419
50.5424
50.5429
50.5434
50.5439
50.5445
50.5451
50.5456
50.5462
50.5469
50.5475
50.5482
50.5489
50.5496
50.5503
50.551
50.5518
50.5525
50.5533
50.5541
50.5548
50.5556
50.5564
50.5571
50.5578
50.5586
50.5593
50.5599
50.5606
50.5612
50.5618
50.5623
50.5628
50.5633
50.5638
50.5642
50.5645
50.5648
50.5651
50.5654
50.5657
50.5659
50.5661
50.5662
50.5664
50.5666
50.5667
50.5668
50.567
50.5671
50.5672
50.5674
50.5675
50.5677
50.5679
50.5681
50.5683
50.5686
50.5688
50.5691
50.5695
50.5698
50.5702
50.5707
50.5711
50.5716
50.5722
50.5728
50.5734
50.574
50.5747
50.5754
50.5761
50.5768
50.5775
50.5782
50.5789
50.5796
50.5803
50.581
50.5816
50.5821
50.5826
50.5831
50.5835
50.5839
50.5842
50.5845
50.5847
50.5849
50.5851
50.5852
50.5857
50.5844
50.5584
50.5466
50.5422
50.5413
50.539
50.5343
50.5278
50.5212
50.5137
50.5064
50.4988
50.4912
50.4841
50.477
50.4704
50.4639
50.4583
50.4534
50.45
50.4484
50.5666
50.5637
50.5642
50.5652
50.564
50.5604
50.5547
50.5497
50.5429
50.5375
50.5305
50.5247
50.5188
50.5127
50.5071
50.5018
50.4971
50.4931
50.4902
50.4883
50.5859
50.5859
50.5849
50.583
50.5804
50.5772
50.5734
50.5688
50.564
50.558
50.5513
50.5434
50.5346
50.5246
50.5148
50.5062
50.4993
50.4918
50.4834
50.4735
50.5957
50.5989
50.5988
50.5974
50.5962
50.5954
50.5946
50.5919
50.5867
50.5818
50.578
50.575
50.5758
50.5855
50.5903
50.5838
50.565
50.5427
50.5267
50.5126
50.5989
50.6052
50.6059
50.6044
50.6031
50.6022
50.6012
50.5987
50.5938
50.5887
50.5845
50.5813
50.5821
50.5906
50.5967
50.5926
50.5775
50.5564
50.5384
50.5231
50.4692
50.4724
50.4708
50.4696
50.4686
50.4678
50.4671
50.4668
50.4666
50.4664
50.4662
50.466
50.4659
50.4655
50.4652
50.4648
50.4644
50.4638
50.4638
50.4646
50.4674
50.4696
50.4693
50.4602
50.4328
50.4141
50.4091
50.4111
50.4227
50.4446
50.4605
50.4707
50.4767
50.4802
50.4821
50.4832
50.4838
50.4843
50.4845
50.4848
50.4849
50.485
50.4851
50.4851
50.4852
50.4852
50.4851
50.485
50.485
50.4848
50.4847
50.4845
50.4844
50.4842
50.484
50.4837
50.4835
50.4832
50.483
50.4827
50.4825
50.4822
50.482
50.4818
50.4815
50.4813
50.4811
50.481
50.4808
50.4807
50.4807
50.4806
50.4806
50.4806
50.4807
50.4808
50.4809
50.4811
50.4812
50.4814
50.4817
50.4819
50.4821
50.4824
50.4826
50.4829
50.4831
50.4833
50.4834
50.4836
50.4837
50.4838
50.4839
50.484
50.484
50.484
50.484
50.484
50.4829
50.4903
50.4834
50.4808
50.4785
50.4772
50.4761
50.4752
50.4746
50.4743
50.4742
50.474
50.4738
50.4736
50.4735
50.4733
50.4729
50.4725
50.4723
50.4722
50.4721
50.4712
50.4707
50.4709
50.4711
50.47
50.4672
50.4664
50.4672
50.4694
50.4749
50.4796
50.4823
50.4836
50.4842
50.4844
50.4845
50.4844
50.4845
50.4846
50.4847
50.4849
50.485
50.4851
50.4851
50.4852
50.4852
50.4852
50.4851
50.4851
50.485
50.4849
50.4847
50.4846
50.4844
50.4842
50.484
50.4838
50.4835
50.4833
50.483
50.4828
50.4825
50.4823
50.482
50.4818
50.4816
50.4814
50.4812
50.481
50.4809
50.4808
50.4807
50.4807
50.4806
50.4807
50.4807
50.4808
50.4809
50.4811
50.4813
50.4815
50.4817
50.4819
50.4822
50.4824
50.4827
50.4829
50.4831
50.4833
50.4835
50.4836
50.4838
50.4839
50.4839
50.484
50.484
50.484
50.484
50.484
50.4832
50.4862
50.4435
50.4519
50.4592
50.4603
50.4592
50.4584
50.4578
50.4576
50.4575
50.4572
50.4566
50.456
50.4556
50.4553
50.4552
50.456
50.4596
50.465
50.469
50.4716
50.4731
50.4741
50.4749
50.4756
50.4765
50.4775
50.479
50.4804
50.4814
50.4821
50.4826
50.4828
50.4831
50.4834
50.4836
50.4839
50.4842
50.4844
50.4846
50.4848
50.4849
50.485
50.4851
50.4852
50.4852
50.4852
50.4851
50.4851
50.485
50.4849
50.4847
50.4846
50.4844
50.4842
50.484
50.4838
50.4835
50.4833
50.483
50.4828
50.4825
50.4823
50.482
50.4818
50.4816
50.4814
50.4812
50.481
50.4809
50.4808
50.4807
50.4807
50.4806
50.4807
50.4807
50.4808
50.4809
50.4811
50.4813
50.4815
50.4817
50.4819
50.4822
50.4824
50.4827
50.4829
50.4831
50.4833
50.4835
50.4836
50.4838
50.4839
50.4839
50.484
50.484
50.484
50.484
50.484
50.484
50.4839
50.4904
50.4896
50.4862
50.4792
50.4769
50.4765
50.4764
50.4749
50.4738
50.4734
50.4731
50.4727
50.4725
50.4727
50.4727
50.4718
50.471
50.471
50.4715
50.4719
50.4722
50.4713
50.4633
50.4434
50.4319
50.4305
50.4358
50.4551
50.4733
50.482
50.4851
50.4857
50.4855
50.485
50.4847
50.4846
50.4846
50.4847
50.4848
50.4849
50.485
50.4851
50.4852
50.4852
50.4852
50.4852
50.4852
50.4851
50.485
50.4849
50.4847
50.4846
50.4844
50.4842
50.484
50.4838
50.4835
50.4833
50.483
50.4828
50.4825
50.4823
50.482
50.4818
50.4816
50.4814
50.4812
50.481
50.4809
50.4808
50.4807
50.4807
50.4806
50.4807
50.4807
50.4808
50.4809
50.4811
50.4813
50.4815
50.4817
50.4819
50.4822
50.4824
50.4827
50.4829
50.4831
50.4833
50.4835
50.4836
50.4838
50.4839
50.4839
50.484
50.484
50.484
50.4841
50.4841
50.4844
50.4834
50.4925
50.4894
50.4868
50.4798
50.4778
50.4776
50.4778
50.4762
50.4749
50.4745
50.4742
50.4738
50.4737
50.4741
50.4745
50.4737
50.4728
50.4725
50.4726
50.4728
50.4729
50.4701
50.4508
50.3974
50.3631
50.3582
50.3737
50.4348
50.4894
50.511
50.5143
50.51
50.4986
50.4913
50.4876
50.4859
50.4852
50.4849
50.4849
50.4849
50.485
50.4851
50.4851
50.4852
50.4852
50.4852
50.4851
50.485
50.485
50.4848
50.4847
50.4845
50.4844
50.4842
50.484
50.4837
50.4835
50.4832
50.483
50.4827
50.4825
50.4822
50.482
50.4818
50.4815
50.4813
50.4811
50.481
50.4808
50.4807
50.4807
50.4806
50.4806
50.4806
50.4807
50.4808
50.4809
50.4811
50.4812
50.4814
50.4817
50.4819
50.4821
50.4824
50.4826
50.4829
50.4831
50.4833
50.4835
50.4836
50.4837
50.4838
50.4839
50.484
50.484
50.484
50.484
50.484
50.4844
50.4832
50.4569
50.445
50.4406
50.4396
50.4373
50.4326
50.4261
50.4195
50.412
50.4046
50.397
50.3893
50.3823
50.3751
50.3685
50.362
50.3564
50.3514
50.348
50.3463
50.4651
50.4622
50.4626
50.4636
50.4624
50.4588
50.4531
50.4481
50.4413
50.4359
50.4288
50.423
50.4171
50.411
50.4053
50.4001
50.3953
50.3913
50.3884
50.3864
50.4845
50.4845
50.4835
50.4816
50.479
50.4758
50.4719
50.4673
50.4624
50.4565
50.4497
50.4418
50.4331
50.4231
50.4133
50.4047
50.3978
50.3903
50.3818
50.3719
50.4943
50.4975
50.4974
50.496
50.4948
50.4939
50.493
50.4903
50.4852
50.4803
50.4764
50.4734
50.4743
50.4839
50.4886
50.4819
50.4632
50.4411
50.4253
50.4113
50.4975
50.5038
50.5045
50.503
50.5017
50.5007
50.4997
50.4971
50.4923
50.4872
50.483
50.4798
50.4806
50.489
50.495
50.4908
50.4758
50.4547
50.4368
50.4217
50.3671
50.3705
50.3692
50.3681
50.3671
50.3663
50.3658
50.3656
50.3654
50.3652
50.3649
50.3647
50.3644
50.364
50.3637
50.3632
50.3625
50.3624
50.3629
50.365
50.3675
50.3679
50.3621
50.338
50.3162
50.309
50.3098
50.3187
50.34
50.357
50.3679
50.3744
50.3781
50.3802
50.3813
50.382
50.3824
50.3827
50.3829
50.3831
50.3833
50.3834
50.3836
50.3837
50.3838
50.3838
50.3839
50.3839
50.384
50.384
50.384
50.384
50.3841
50.3841
50.3841
50.3841
50.3841
50.3842
50.3842
50.3843
50.3844
50.3845
50.3846
50.3848
50.385
50.3852
50.3854
50.3857
50.386
50.3864
50.3867
50.3872
50.3876
50.3881
50.3886
50.3891
50.3896
50.3902
50.3908
50.3914
50.392
50.3926
50.3933
50.3939
50.3945
50.3951
50.3956
50.3962
50.3967
50.3971
50.3976
50.398
50.3983
50.3987
50.3989
50.3992
50.3994
50.3995
50.3996
50.3997
50.3998
50.3998
50.3998
50.3997
50.3997
50.3996
50.3996
50.3995
50.3995
50.3994
50.3994
50.3994
50.3994
50.3994
50.3995
50.3996
50.3998
50.4
50.4002
50.4005
50.4008
50.4012
50.4017
50.4022
50.4027
50.4033
50.4039
50.4046
50.4053
50.406
50.4068
50.4076
50.4083
50.4092
50.41
50.4108
50.4116
50.4123
50.4131
50.4139
50.4146
50.4153
50.4159
50.4165
50.4171
50.4177
50.4182
50.4187
50.4191
50.4195
50.4199
50.4202
50.4205
50.4208
50.421
50.4212
50.4214
50.4216
50.4217
50.4218
50.4219
50.422
50.422
50.4221
50.4222
50.4222
50.4223
50.4224
50.4225
50.4226
50.4227
50.4229
50.423
50.4232
50.4234
50.4236
50.4238
50.424
50.4242
50.4244
50.4246
50.4248
50.425
50.4251
50.4252
50.4253
50.4254
50.4255
50.4255
50.4255
50.4255
50.4254
50.4254
50.4253
50.4253
50.4252
50.4251
50.4251
50.4254
50.424
50.3812
50.3788
50.3769
50.3757
50.3745
50.3737
50.3731
50.3729
50.3729
50.3727
50.3724
50.3722
50.3721
50.3718
50.3714
50.3711
50.371
50.3708
50.3701
50.3695
50.3696
50.3698
50.3693
50.3667
50.3656
50.3662
50.368
50.3728
50.3777
50.3805
50.3819
50.3824
50.3827
50.3827
50.3826
50.3827
50.3828
50.3829
50.3831
50.3832
50.3834
50.3835
50.3836
50.3837
50.3838
50.3839
50.3839
50.384
50.384
50.384
50.3841
50.3841
50.3841
50.3841
50.3841
50.3841
50.3842
50.3842
50.3843
50.3843
50.3844
50.3845
50.3847
50.3848
50.385
50.3852
50.3855
50.3858
50.3861
50.3864
50.3868
50.3872
50.3876
50.3881
50.3886
50.3891
50.3897
50.3903
50.3908
50.3914
50.3921
50.3927
50.3933
50.3939
50.3945
50.3951
50.3957
50.3962
50.3967
50.3972
50.3976
50.398
50.3984
50.3987
50.399
50.3992
50.3994
50.3996
50.3997
50.3997
50.3998
50.3998
50.3998
50.3998
50.3997
50.3997
50.3996
50.3996
50.3995
50.3994
50.3994
50.3994
50.3994
50.3995
50.3995
50.3996
50.3998
50.4
50.4002
50.4005
50.4009
50.4013
50.4017
50.4022
50.4027
50.4033
50.404
50.4046
50.4053
50.406
50.4068
50.4076
50.4084
50.4092
50.41
50.4108
50.4116
50.4124
50.4131
50.4139
50.4146
50.4153
50.416
50.4166
50.4172
50.4177
50.4182
50.4187
50.4192
50.4196
50.4199
50.4203
50.4206
50.4208
50.4211
50.4213
50.4214
50.4216
50.4217
50.4218
50.4219
50.422
50.4221
50.4221
50.4222
50.4223
50.4224
50.4224
50.4225
50.4226
50.4228
50.4229
50.4231
50.4232
50.4234
50.4236
50.4238
50.424
50.4242
50.4244
50.4247
50.4248
50.425
50.4251
50.4253
50.4254
50.4255
50.4255
50.4255
50.4255
50.4255
50.4255
50.4254
50.4254
50.4253
50.4252
50.4252
50.4251
50.4255
50.4243
50.3413
50.3505
50.3579
50.359
50.3578
50.3569
50.3563
50.3561
50.3559
50.3556
50.355
50.3546
50.3544
50.3542
50.3544
50.3565
50.3617
50.3662
50.3694
50.3713
50.3725
50.3733
50.3741
50.3749
50.3759
50.3773
50.3787
50.3797
50.3804
50.3809
50.3811
50.3813
50.3816
50.3818
50.3821
50.3823
50.3825
50.3828
50.383
50.3832
50.3833
50.3835
50.3836
50.3837
50.3838
50.3839
50.3839
50.384
50.384
50.384
50.3841
50.3841
50.3841
50.3841
50.3841
50.3841
50.3842
50.3842
50.3843
50.3843
50.3844
50.3845
50.3847
50.3848
50.385
50.3852
50.3855
50.3858
50.3861
50.3864
50.3868
50.3872
50.3876
50.3881
50.3886
50.3891
50.3897
50.3903
50.3908
50.3914
50.3921
50.3927
50.3933
50.3939
50.3945
50.3951
50.3957
50.3962
50.3967
50.3972
50.3976
50.398
50.3984
50.3987
50.399
50.3992
50.3994
50.3996
50.3997
50.3997
50.3998
50.3998
50.3998
50.3998
50.3997
50.3997
50.3996
50.3996
50.3995
50.3994
50.3994
50.3994
50.3994
50.3995
50.3995
50.3996
50.3998
50.4
50.4002
50.4005
50.4009
50.4013
50.4017
50.4022
50.4027
50.4033
50.404
50.4046
50.4053
50.406
50.4068
50.4076
50.4084
50.4092
50.41
50.4108
50.4116
50.4124
50.4131
50.4139
50.4146
50.4153
50.416
50.4166
50.4172
50.4177
50.4182
50.4187
50.4192
50.4196
50.4199
50.4203
50.4206
50.4208
50.4211
50.4213
50.4214
50.4216
50.4217
50.4218
50.4219
50.422
50.4221
50.4221
50.4222
50.4223
50.4224
50.4224
50.4225
50.4226
50.4228
50.4229
50.4231
50.4232
50.4234
50.4236
50.4238
50.424
50.4242
50.4244
50.4246
50.4248
50.425
50.4251
50.4253
50.4254
50.4255
50.4255
50.4255
50.4255
50.4255
50.4255
50.4254
50.4254
50.4253
50.4252
50.4252
50.4251
50.425
50.4249
50.3882
50.3867
50.3837
50.3775
50.3753
50.3748
50.3744
50.3732
50.3722
50.3719
50.3715
50.3712
50.3712
50.3713
50.3708
50.3701
50.37
50.3702
50.3705
50.3709
50.3705
50.365
50.3469
50.3332
50.3304
50.334
50.3504
50.3696
50.3794
50.383
50.3838
50.3838
50.3832
50.3829
50.3828
50.3828
50.3829
50.383
50.3831
50.3832
50.3834
50.3835
50.3836
50.3837
50.3838
50.3839
50.3839
50.384
50.384
50.384
50.3841
50.3841
50.3841
50.3841
50.3841
50.3841
50.3842
50.3842
50.3843
50.3843
50.3844
50.3845
50.3847
50.3848
50.385
50.3852
50.3855
50.3858
50.3861
50.3864
50.3868
50.3872
50.3876
50.3881
50.3886
50.3891
50.3897
50.3903
50.3908
50.3914
50.3921
50.3927
50.3933
50.3939
50.3945
50.3951
50.3957
50.3962
50.3967
50.3972
50.3976
50.398
50.3984
50.3987
50.399
50.3992
50.3994
50.3996
50.3997
50.3997
50.3998
50.3998
50.3998
50.3998
50.3997
50.3997
50.3996
50.3996
50.3995
50.3994
50.3994
50.3994
50.3994
50.3995
50.3995
50.3996
50.3998
50.4
50.4002
50.4005
50.4009
50.4013
50.4017
50.4022
50.4027
50.4033
50.404
50.4046
50.4053
50.406
50.4068
50.4076
50.4084
50.4092
50.41
50.4108
50.4116
50.4124
50.4131
50.4139
50.4146
50.4153
50.416
50.4166
50.4172
50.4177
50.4182
50.4187
50.4192
50.4196
50.4199
50.4203
50.4206
50.4208
50.4211
50.4213
50.4214
50.4216
50.4217
50.4218
50.4219
50.422
50.4221
50.4221
50.4222
50.4223
50.4224
50.4224
50.4225
50.4226
50.4228
50.4229
50.4231
50.4232
50.4234
50.4236
50.4238
50.424
50.4242
50.4244
50.4246
50.4248
50.425
50.4252
50.4253
50.4254
50.4254
50.4255
50.4255
50.4255
50.4255
50.4255
50.4254
50.4254
50.4253
50.4252
50.4251
50.4251
50.4243
50.4277
50.3902
50.3866
50.3843
50.3781
50.3762
50.3758
50.3758
50.3744
50.3734
50.373
50.3727
50.3724
50.3725
50.3728
50.3723
50.3716
50.3714
50.3714
50.3716
50.3718
50.3701
50.3567
50.3089
50.2685
50.2595
50.2699
50.3224
50.381
50.4063
50.4113
50.4083
50.3977
50.39
50.386
50.3842
50.3834
50.3831
50.3831
50.3831
50.3832
50.3834
50.3835
50.3836
50.3837
50.3838
50.3838
50.3839
50.3839
50.384
50.384
50.384
50.384
50.3841
50.3841
50.3841
50.3841
50.3841
50.3842
50.3842
50.3843
50.3844
50.3845
50.3846
50.3848
50.385
50.3852
50.3854
50.3857
50.386
50.3864
50.3867
50.3872
50.3876
50.3881
50.3886
50.3891
50.3896
50.3902
50.3908
50.3914
50.392
50.3926
50.3933
50.3939
50.3945
50.3951
50.3956
50.3962
50.3967
50.3971
50.3976