/*--------------------------------*- C++ -*----------------------------------*\
| =========                 |                                                 |
| \\      /  F ield         | OpenFOAM: The Open Source CFD Toolbox           |
|  \\    /   O peration     | Version:  3.0.x                                 |
|   \\  /    A nd           | Web:      www.OpenFOAM.org                      |
|    \\/     M anipulation  |                                                 |
\*---------------------------------------------------------------------------*/
FoamFile
{
    version     2.0;
    format      ascii;
    class       surfaceScalarField;
    location    "0.13";
    object      phi;
}
// * * * * * * * * * * * * * * * * * * * * * * * * * * * * * * * * * * * * * //

dimensions      [1 0 -1 0 0 0 0];

internalField   nonuniform List<scalar> 
12415
(
5.75942
0.000327758
5.75884
0.000235255
5.75826
0.000224561
5.75766
0.000226764
5.75704
0.000227282
5.7564
0.000227147
5.75574
0.000227321
5.75507
0.000227267
5.75436
0.000227289
5.75361
0.000227103
5.75281
0.000226586
5.75196
0.000225489
5.75105
0.000223571
5.7501
0.000220312
5.74909
0.000215374
5.74803
0.00020832
5.74692
0.000198847
5.74575
0.000186836
5.74454
0.000172395
5.74327
0.000155889
5.74196
0.000137904
5.7406
0.000119178
5.73919
0.00010051
5.73774
8.26548e-05
5.73624
6.62411e-05
5.7347
5.17148e-05
5.73312
3.93204e-05
5.73151
2.911e-05
5.72986
2.09791e-05
5.72818
1.47118e-05
5.72649
1.00307e-05
5.72478
6.6382e-06
5.72307
4.24983e-06
5.72137
2.61448e-06
5.71967
1.52413e-06
5.718
8.15271e-07
5.71636
3.64931e-07
5.71476
8.54216e-08
5.7132
-8.79645e-08
5.7117
-1.93248e-07
5.71026
-2.57782e-07
5.70889
-2.98385e-07
5.70758
-3.25241e-07
5.70635
-3.44306e-07
5.70518
-3.59005e-07
5.70409
-3.71201e-07
5.70308
-3.81824e-07
5.70212
-3.91339e-07
5.70124
-3.99996e-07
5.70041
-4.07652e-07
5.69963
-4.14602e-07
5.69889
-4.20847e-07
5.69819
-4.26036e-07
5.69752
-4.30624e-07
5.69687
-4.34158e-07
5.69622
-4.3709e-07
5.69558
-4.3922e-07
5.69492
-4.40668e-07
5.69425
-4.41605e-07
5.69355
-4.42114e-07
5.69281
-4.43353e-07
5.69204
-4.41201e-07
5.69121
-4.38891e-07
5.69033
-4.37572e-07
5.6894
-4.37871e-07
5.6884
-4.39317e-07
5.68733
-4.3884e-07
5.6862
-4.34038e-07
5.68499
-4.46753e-07
5.68372
-4.4475e-07
5.68238
-4.41849e-07
5.68096
-4.4266e-07
5.67948
-4.45347e-07
5.67794
-4.49232e-07
5.67633
-4.53605e-07
5.67466
-4.58409e-07
5.67293
-4.64011e-07
5.67115
-4.70347e-07
5.66933
-4.76792e-07
5.66746
-4.84388e-07
5.66555
-4.92411e-07
5.6636
-5.00781e-07
5.66162
-5.0963e-07
5.65962
-5.19218e-07
5.65759
-5.29506e-07
5.65553
-5.41108e-07
5.65346
-5.53086e-07
5.65137
-5.42723e-07
5.64926
-5.56009e-07
5.64713
-5.73149e-07
5.64499
-5.85751e-07
5.64283
-5.92319e-07
5.64064
-5.95066e-07
5.63844
-5.98629e-07
5.63621
-6.02882e-07
5.63396
-6.06367e-07
5.63168
-6.08461e-07
5.62937
-6.09356e-07
5.62702
-6.0908e-07
5.62465
-6.07639e-07
5.62224
-6.05307e-07
5.6198
-6.02047e-07
5.61732
-5.97865e-07
5.61482
-5.92911e-07
5.61228
-5.8763e-07
5.60972
-5.81636e-07
5.60714
-5.75754e-07
5.60454
-5.69667e-07
5.60193
-5.63732e-07
5.59931
-5.58326e-07
5.5967
-5.54124e-07
5.5941
-5.51803e-07
5.59152
-5.4826e-07
5.58897
-5.43594e-07
5.58645
-5.40931e-07
5.58398
-5.42494e-07
5.58157
-5.47254e-07
5.57921
-5.53109e-07
5.57692
-5.59157e-07
5.57471
-5.66501e-07
5.57257
-5.74975e-07
5.57051
-5.8524e-07
5.56852
-5.96559e-07
5.56661
-6.094e-07
5.56477
-6.22596e-07
5.563
-6.36814e-07
5.56128
-6.51453e-07
5.55961
-6.66865e-07
5.55798
-6.83562e-07
5.55637
-6.78019e-07
5.55478
-6.77572e-07
5.55318
-7.39166e-07
5.55157
-7.48387e-07
5.54993
-7.45213e-07
5.54826
-7.49667e-07
5.54653
-7.57032e-07
5.54474
-7.63595e-07
5.54289
-7.6932e-07
5.54096
-7.72317e-07
5.53895
-7.74919e-07
5.53685
-7.74799e-07
5.53466
-7.74753e-07
5.53239
-7.72168e-07
5.53002
-7.68465e-07
5.52757
-7.64339e-07
5.52504
-7.58344e-07
5.52242
-7.51545e-07
5.51974
-7.4436e-07
5.51699
-7.36458e-07
5.5142
-7.28243e-07
5.51136
-7.20071e-07
5.5085
-7.12125e-07
5.50562
-7.04777e-07
5.50276
-6.99934e-07
5.49991
-7.27712e-07
5.49711
-6.51196e-07
5.49436
-6.70516e-07
5.49169
-6.8492e-07
5.48912
-6.83085e-07
5.48665
-6.80571e-07
5.48431
-6.81313e-07
5.48209
-6.83804e-07
5.48003
-6.87205e-07
5.47811
-6.91254e-07
5.47634
-6.94798e-07
5.47472
-7.00824e-07
5.47326
-7.05875e-07
5.47194
-7.08655e-07
5.47077
-7.15503e-07
5.46974
-7.17782e-07
5.46884
-7.26428e-07
5.46807
-7.22812e-07
5.46742
-7.33417e-07
5.46689
-7.29569e-07
5.46647
-7.40178e-07
5.46615
-7.35437e-07
5.46593
-7.46508e-07
5.46579
-7.36409e-07
5.46572
-7.50393e-07
5.46572
-7.38113e-07
5.46576
-7.49969e-07
5.46583
-7.31685e-07
5.4659
-7.5153e-07
5.46598
-7.11856e-07
5.46603
-7.44682e-07
5.46605
-6.95616e-07
5.46603
-7.38601e-07
5.46596
-6.91913e-07
5.46583
-6.47844e-07
5.46565
-7.43268e-07
5.46541
-6.04305e-07
5.46512
-5.84332e-07
5.46478
-5.34856e-08
5.46441
3.95368e-06
5.46398
3.10921e-05
5.46336
0.000221253
5.46143
0.00154408
5.45034
0.0107466
5.36527
0.0847822
0.415817
4.94924
11.5196
0.000260531
11.5189
0.0002161
11.5182
0.000189126
11.5175
0.000194061
11.5168
0.000195466
11.516
0.000194932
11.5151
0.000194933
11.5143
0.00019494
11.5133
0.000194956
11.5123
0.000194812
11.5112
0.000194389
11.51
0.000193486
11.5087
0.000191871
11.5072
0.00018914
11.5057
0.000184968
11.504
0.000178993
11.5022
0.000170945
11.5003
0.000160717
11.4982
0.000148394
11.496
0.000134282
11.4937
0.000118879
11.4912
0.000102817
11.4886
8.67819e-05
11.4859
7.14237e-05
11.483
5.72882e-05
11.4801
4.47627e-05
11.477
3.40635e-05
11.4738
2.524e-05
11.4706
1.8206e-05
11.4672
1.27786e-05
11.4639
8.72082e-06
11.4605
5.77716e-06
11.4571
3.70264e-06
11.4536
2.28074e-06
11.4503
1.33207e-06
11.4469
7.15126e-07
11.4436
3.23353e-07
11.4404
8.27906e-08
11.4373
-7.09988e-08
11.4343
-1.6323e-07
11.4314
-2.19783e-07
11.4287
-2.55194e-07
11.4261
-2.78442e-07
11.4236
-2.94913e-07
11.4213
-3.07579e-07
11.4191
-3.1807e-07
11.4171
-3.27197e-07
11.4152
-3.35365e-07
11.4134
-3.4279e-07
11.4117
-3.49366e-07
11.4102
-3.55316e-07
11.4087
-3.60676e-07
11.4073
-3.65147e-07
11.4059
-3.69046e-07
11.4046
-3.72119e-07
11.4033
-3.7461e-07
11.4021
-3.76461e-07
11.4007
-3.7771e-07
11.3994
-3.7852e-07
11.398
-3.78988e-07
11.3965
-3.79908e-07
11.395
-3.78458e-07
11.3933
-3.76081e-07
11.3916
-3.7495e-07
11.3897
-3.75339e-07
11.3877
-3.7642e-07
11.3855
-3.76011e-07
11.3833
-3.73043e-07
11.3809
-3.8144e-07
11.3783
-3.81698e-07
11.3756
-3.78852e-07
11.3728
-3.79375e-07
11.3698
-3.81732e-07
11.3667
-3.85002e-07
11.3635
-3.88761e-07
11.3602
-3.92903e-07
11.3567
-3.97683e-07
11.3532
-4.03113e-07
11.3495
-4.08693e-07
11.3458
-4.1517e-07
11.342
-4.22054e-07
11.3381
-4.29259e-07
11.3341
-4.3686e-07
11.3301
-4.45082e-07
11.326
-4.5394e-07
11.3219
-4.63751e-07
11.3178
-4.73129e-07
11.3136
-4.67493e-07
11.3094
-4.74902e-07
11.3051
-4.91272e-07
11.3008
-5.02296e-07
11.2965
-5.07538e-07
11.2921
-5.10144e-07
11.2877
-5.13192e-07
11.2833
-5.16776e-07
11.2788
-5.19733e-07
11.2742
-5.21549e-07
11.2696
-5.22311e-07
11.2649
-5.22075e-07
11.2601
-5.20849e-07
11.2553
-5.18835e-07
11.2504
-5.16049e-07
11.2455
-5.12473e-07
11.2405
-5.0824e-07
11.2354
-5.03672e-07
11.2303
-4.98603e-07
11.2251
-4.93486e-07
11.2199
-4.88296e-07
11.2147
-4.83196e-07
11.2094
-4.78554e-07
11.2042
-4.74953e-07
11.199
-4.7284e-07
11.1939
-4.70005e-07
11.1887
-4.65948e-07
11.1837
-4.63657e-07
11.1788
-4.64997e-07
11.1739
-4.69047e-07
11.1692
-4.74048e-07
11.1646
-4.79301e-07
11.1602
-4.85552e-07
11.1559
-4.92884e-07
11.1518
-5.0163e-07
11.1478
-5.11405e-07
11.144
-5.22328e-07
11.1403
-5.33742e-07
11.1368
-5.45855e-07
11.1334
-5.58459e-07
11.13
-5.71581e-07
11.1267
-5.84789e-07
11.1235
-5.82378e-07
11.1203
-5.83045e-07
11.1171
-6.30378e-07
11.1139
-6.41281e-07
11.1106
-6.39514e-07
11.1073
-6.4269e-07
11.1038
-6.4889e-07
11.1003
-6.54545e-07
11.0965
-6.59369e-07
11.0927
-6.62093e-07
11.0887
-6.64166e-07
11.0845
-6.64255e-07
11.0801
-6.64021e-07
11.0755
-6.61967e-07
11.0708
-6.58756e-07
11.0659
-6.5515e-07
11.0608
-6.50104e-07
11.0556
-6.44244e-07
11.0502
-6.38064e-07
11.0447
-6.3131e-07
11.0391
-6.24271e-07
11.0335
-6.17258e-07
11.0277
-6.10472e-07
11.022
-6.04336e-07
11.0162
-6.01208e-07
11.0106
-6.18717e-07
11.0049
-5.64677e-07
10.9995
-5.72246e-07
10.9941
-5.86685e-07
10.989
-5.85623e-07
10.984
-5.83428e-07
10.9793
-5.84051e-07
10.9749
-5.86168e-07
10.9708
-5.89076e-07
10.9669
-5.92522e-07
10.9634
-5.95817e-07
10.9602
-6.00649e-07
10.9572
-6.04984e-07
10.9546
-6.08121e-07
10.9522
-6.1257e-07
10.9502
-6.14858e-07
10.9484
-6.26577e-07
10.9468
-6.15366e-07
10.9455
-6.35282e-07
10.9445
-6.18347e-07
10.9436
-6.40069e-07
10.943
-6.24204e-07
10.9425
-6.48293e-07
10.9423
-6.18395e-07
10.9421
-6.53364e-07
10.9421
-6.20783e-07
10.9422
-6.56473e-07
10.9423
-6.06577e-07
10.9425
-6.78207e-07
10.9426
-5.68672e-07
10.9427
-6.81767e-07
10.9428
-5.52067e-07
10.9427
-6.99657e-07
10.9426
-7.93681e-07
10.9423
-3.03252e-07
10.942
-7.08965e-07
10.9415
-3.47628e-07
10.9409
-3.58112e-07
10.9402
1.22347e-06
10.9395
1.30652e-05
10.9386
9.33692e-05
10.9374
0.000656102
10.9336
0.00456917
10.912
0.0316286
10.7729
0.223335
1.04351
10.1448
138.235
-0.000260531
138.227
-0.0002161
138.219
-0.000189126
138.21
-0.000194061
138.201
-0.000195466
138.191
-0.000194932
138.182
-0.000194933
138.171
-0.00019494
138.16
-0.000194956
138.148
-0.000194812
138.134
-0.000194389
138.12
-0.000193486
138.104
-0.000191871
138.087
-0.00018914
138.068
-0.000184968
138.048
-0.000178993
138.026
-0.000170945
138.003
-0.000160717
137.978
-0.000148394
137.952
-0.000134282
137.924
-0.000118879
137.894
-0.000102817
137.863
-8.67819e-05
137.83
-7.14237e-05
137.796
-5.72882e-05
137.761
-4.47627e-05
137.724
-3.40635e-05
137.686
-2.524e-05
137.647
-1.8206e-05
137.607
-1.27786e-05
137.566
-8.72082e-06
137.526
-5.77716e-06
137.485
-3.70263e-06
137.444
-2.28074e-06
137.403
-1.33207e-06
137.363
-7.15124e-07
137.324
-3.23353e-07
137.285
-8.2789e-08
137.248
7.10015e-08
137.212
1.63226e-07
137.177
2.19784e-07
137.144
2.55189e-07
137.113
2.7844e-07
137.083
2.94912e-07
137.055
3.07575e-07
137.029
3.18068e-07
137.005
3.27198e-07
136.982
3.35363e-07
136.961
3.42795e-07
136.941
3.49369e-07
136.922
3.55315e-07
136.904
3.60676e-07
136.888
3.65146e-07
136.871
3.69049e-07
136.856
3.72119e-07
136.84
3.74608e-07
136.825
3.76461e-07
136.809
3.7771e-07
136.793
3.7852e-07
136.776
3.78985e-07
136.758
3.79908e-07
136.74
3.7846e-07
136.72
3.76084e-07
136.699
3.74951e-07
136.676
3.75337e-07
136.652
3.76423e-07
136.627
3.76013e-07
136.599
3.73046e-07
136.57
3.81443e-07
136.54
3.81699e-07
136.508
3.78851e-07
136.474
3.79372e-07
136.438
3.81733e-07
136.401
3.85004e-07
136.362
3.8876e-07
136.322
3.929e-07
136.281
3.97686e-07
136.238
4.03115e-07
136.194
4.08691e-07
136.149
4.15167e-07
136.104
4.22054e-07
136.057
4.29262e-07
136.009
4.36861e-07
135.961
4.45084e-07
135.912
4.53939e-07
135.863
4.63754e-07
135.813
4.73133e-07
135.763
4.67495e-07
135.712
4.74906e-07
135.661
4.91273e-07
135.61
5.02294e-07
135.558
5.07537e-07
135.506
5.10141e-07
135.453
5.13191e-07
135.399
5.16777e-07
135.345
5.19734e-07
135.29
5.21547e-07
135.235
5.22308e-07
135.179
5.22072e-07
135.122
5.20849e-07
135.064
5.18834e-07
135.005
5.16049e-07
134.946
5.12472e-07
134.886
5.08236e-07
134.825
5.03671e-07
134.763
4.98604e-07
134.701
4.93488e-07
134.639
4.88297e-07
134.576
4.83197e-07
134.513
4.78556e-07
134.451
4.74952e-07
134.388
4.72841e-07
134.326
4.70004e-07
134.265
4.65943e-07
134.205
4.63658e-07
134.145
4.64999e-07
134.087
4.6905e-07
134.031
4.74049e-07
133.976
4.79302e-07
133.923
4.85552e-07
133.871
4.92884e-07
133.822
5.01627e-07
133.774
5.114e-07
133.728
5.22324e-07
133.684
5.33741e-07
133.641
5.45852e-07
133.6
5.58458e-07
133.56
5.7158e-07
133.521
5.84791e-07
133.482
5.8238e-07
133.444
5.83049e-07
133.406
6.30383e-07
133.367
6.41279e-07
133.328
6.39514e-07
133.287
6.42692e-07
133.246
6.48889e-07
133.203
6.54546e-07
133.159
6.5937e-07
133.112
6.62091e-07
133.064
6.64165e-07
133.014
6.64255e-07
132.961
6.64019e-07
132.906
6.61966e-07
132.85
6.58755e-07
132.791
6.55151e-07
132.73
6.50104e-07
132.667
6.44244e-07
132.603
6.38064e-07
132.537
6.31311e-07
132.47
6.24268e-07
132.402
6.17255e-07
132.333
6.10472e-07
132.264
6.04337e-07
132.195
6.01208e-07
132.127
6.18718e-07
132.059
5.64677e-07
131.993
5.72245e-07
131.929
5.86687e-07
131.868
5.85625e-07
131.808
5.83425e-07
131.752
5.84047e-07
131.699
5.86168e-07
131.649
5.89079e-07
131.603
5.92533e-07
131.561
5.95955e-07
131.522
6.00504e-07
131.487
6.04887e-07
131.455
6.0775e-07
131.427
6.13006e-07
131.402
6.15645e-07
131.381
6.20768e-07
131.362
6.21764e-07
131.346
6.25613e-07
131.334
6.29332e-07
131.324
6.30582e-07
131.316
6.35105e-07
131.311
6.33822e-07
131.307
6.423e-07
131.306
6.26488e-07
131.306
6.56223e-07
131.306
5.99236e-07
131.308
6.89884e-07
131.31
5.55413e-07
131.312
7.30518e-07
131.313
4.93528e-07
131.313
7.68703e-07
131.313
4.20465e-07
131.311
5.99511e-07
131.308
2.05472e-06
131.304
-2.03854e-06
131.298
2.96718e-06
131.291
-3.09894e-08
131.283
2.56076e-06
131.274
1.88821e-05
131.264
0.00012563
131.254
0.000895732
131.243
0.00638326
131.221
0.0458229
131.076
0.361062
1.5382
130.577
11.5196
-0.000327758
11.5189
-0.000235255
11.5182
-0.000224561
11.5175
-0.000226764
11.5168
-0.000227282
11.516
-0.000227147
11.5151
-0.000227321
11.5143
-0.000227267
11.5133
-0.000227289
11.5123
-0.000227103
11.5112
-0.000226586
11.51
-0.000225489
11.5087
-0.000223571
11.5072
-0.000220312
11.5057
-0.000215374
11.504
-0.00020832
11.5022
-0.000198847
11.5003
-0.000186836
11.4982
-0.000172395
11.496
-0.000155889
11.4937
-0.000137904
11.4912
-0.000119178
11.4886
-0.00010051
11.4859
-8.26548e-05
11.483
-6.62411e-05
11.4801
-5.17148e-05
11.477
-3.93204e-05
11.4738
-2.911e-05
11.4706
-2.09791e-05
11.4672
-1.47118e-05
11.4639
-1.00307e-05
11.4605
-6.6382e-06
11.4571
-4.24983e-06
11.4536
-2.61448e-06
11.4503
-1.52413e-06
11.4469
-8.15271e-07
11.4436
-3.64929e-07
11.4404
-8.54216e-08
11.4373
8.79645e-08
11.4343
1.93246e-07
11.4314
2.57782e-07
11.4287
2.98385e-07
11.4261
3.25239e-07
11.4236
3.44307e-07
11.4213
3.59005e-07
11.4191
3.71198e-07
11.4171
3.81822e-07
11.4152
3.91337e-07
11.4134
3.99998e-07
11.4117
4.07652e-07
11.4102
4.14604e-07
11.4087
4.20849e-07
11.4073
4.26035e-07
11.4059
4.30624e-07
11.4046
4.34158e-07
11.4033
4.37089e-07
11.4021
4.3922e-07
11.4007
4.4067e-07
11.3994
4.41605e-07
11.398
4.42113e-07
11.3965
4.43353e-07
11.395
4.41203e-07
11.3933
4.38895e-07
11.3916
4.37574e-07
11.3897
4.37867e-07
11.3877
4.39317e-07
11.3855
4.3884e-07
11.3833
4.3404e-07
11.3809
4.46753e-07
11.3783
4.4475e-07
11.3756
4.41849e-07
11.3728
4.42657e-07
11.3698
4.45349e-07
11.3667
4.49234e-07
11.3635
4.53605e-07
11.3602
4.58409e-07
11.3567
4.64011e-07
11.3532
4.70347e-07
11.3495
4.76788e-07
11.3458
4.84384e-07
11.342
4.92411e-07
11.3381
5.00779e-07
11.3341
5.0963e-07
11.3301
5.19218e-07
11.326
5.29508e-07
11.3219
5.41111e-07
11.3178
5.53087e-07
11.3136
5.42723e-07
11.3094
5.56009e-07
11.3051
5.73149e-07
11.3008
5.85749e-07
11.2965
5.92318e-07
11.2921
5.95064e-07
11.2877
5.98631e-07
11.2833
6.02882e-07
11.2788
6.06367e-07
11.2742
6.08456e-07
11.2696
6.09354e-07
11.2649
6.0908e-07
11.2601
6.07641e-07
11.2553
6.05307e-07
11.2504
6.02047e-07
11.2455
5.97865e-07
11.2405
5.92909e-07
11.2354
5.8763e-07
11.2303
5.81635e-07
11.2251
5.75756e-07
11.2199
5.69669e-07
11.2147
5.63732e-07
11.2094
5.58328e-07
11.2042
5.54122e-07
11.199
5.51803e-07
11.1939
5.4826e-07
11.1887
5.43592e-07
11.1837
5.40933e-07
11.1788
5.42494e-07
11.1739
5.47252e-07
11.1692
5.53109e-07
11.1646
5.59159e-07
11.1602
5.66501e-07
11.1559
5.74975e-07
11.1518
5.85238e-07
11.1478
5.96558e-07
11.144
6.094e-07
11.1403
6.22596e-07
11.1368
6.3681e-07
11.1334
6.51451e-07
11.13
6.66863e-07
11.1267
6.83562e-07
11.1235
6.78019e-07
11.1203
6.77574e-07
11.1171
7.3917e-07
11.1139
7.48385e-07
11.1106
7.45211e-07
11.1073
7.49666e-07
11.1038
7.57034e-07
11.1003
7.63597e-07
11.0965
7.69322e-07
11.0927
7.72316e-07
11.0887
7.74917e-07
11.0845
7.748e-07
11.0801
7.74753e-07
11.0755
7.72168e-07
11.0708
7.68467e-07
11.0659
7.64338e-07
11.0608
7.58344e-07
11.0556
7.51546e-07
11.0502
7.44356e-07
11.0447
7.36456e-07
11.0391
7.28243e-07
11.0335
7.20069e-07
11.0277
7.12125e-07
11.022
7.04777e-07
11.0162
6.99934e-07
11.0106
7.27712e-07
11.0049
6.51193e-07
10.9995
6.70516e-07
10.9941
6.84919e-07
10.989
6.83087e-07
10.984
6.80569e-07
10.9793
6.81312e-07
10.9749
6.83802e-07
10.9708
6.87205e-07
10.9669
6.9126e-07
10.9634
6.95065e-07
10.9602
7.00555e-07
10.9572
7.05842e-07
10.9546
7.08926e-07
10.9522
7.15268e-07
10.9502
7.18141e-07
10.9484
7.23374e-07
10.9468
7.25931e-07
10.9455
7.30166e-07
10.9445
7.33213e-07
10.9436
7.36778e-07
10.943
7.39628e-07
10.9425
7.41014e-07
10.9423
7.45225e-07
10.9421
7.40698e-07
10.9421
7.50337e-07
10.9422
7.30874e-07
10.9423
7.59133e-07
10.9425
7.10957e-07
10.9426
7.65816e-07
10.9427
6.81826e-07
10.9428
7.67874e-07
10.9427
6.45417e-07
10.9426
7.10465e-07
10.9423
1.1679e-06
10.942
-1.90366e-07
10.9415
1.46546e-06
10.9409
4.6254e-07
10.9402
1.342e-06
10.9395
6.86439e-06
10.9388
4.30647e-05
10.9386
0.000304546
10.942
0.00218421
10.9709
0.016257
11.1549
0.176481
0.667456
12.0252
5.75942
5.75884
5.75826
5.75766
5.75704
5.7564
5.75574
5.75507
5.75436
5.75361
5.75281
5.75196
5.75105
5.7501
5.74909
5.74803
5.74692
5.74575
5.74454
5.74327
5.74196
5.7406
5.73919
5.73774
5.73624
5.7347
5.73312
5.73151
5.72986
5.72818
5.72649
5.72478
5.72307
5.72137
5.71967
5.718
5.71636
5.71476
5.7132
5.7117
5.71026
5.70889
5.70758
5.70635
5.70518
5.70409
5.70308
5.70212
5.70124
5.70041
5.69963
5.69889
5.69819
5.69752
5.69687
5.69622
5.69558
5.69492
5.69425
5.69355
5.69281
5.69204
5.69121
5.69033
5.6894
5.6884
5.68733
5.6862
5.68499
5.68372
5.68238
5.68096
5.67948
5.67794
5.67633
5.67466
5.67293
5.67115
5.66933
5.66746
5.66555
5.6636
5.66162
5.65962
5.65759
5.65553
5.65346
5.65137
5.64926
5.64713
5.64499
5.64283
5.64064
5.63844
5.63621
5.63396
5.63168
5.62937
5.62702
5.62465
5.62224
5.6198
5.61732
5.61482
5.61228
5.60972
5.60714
5.60454
5.60193
5.59931
5.5967
5.5941
5.59152
5.58897
5.58645
5.58398
5.58157
5.57921
5.57692
5.57471
5.57257
5.57051
5.56852
5.56661
5.56477
5.563
5.56128
5.55961
5.55798
5.55637
5.55478
5.55318
5.55157
5.54993
5.54826
5.54653
5.54474
5.54289
5.54096
5.53895
5.53685
5.53466
5.53239
5.53002
5.52757
5.52504
5.52242
5.51974
5.51699
5.5142
5.51136
5.5085
5.50562
5.50276
5.49991
5.49711
5.49436
5.49169
5.48912
5.48665
5.48431
5.48209
5.48003
5.47811
5.47634
5.47472
5.47326
5.47194
5.47077
5.46974
5.46884
5.46807
5.46742
5.46689
5.46647
5.46615
5.46593
5.46579
5.46572
5.46572
5.46576
5.46583
5.4659
5.46598
5.46603
5.46605
5.46603
5.46596
5.46583
5.46565
5.46541
5.46512
5.46478
5.46442
5.46407
5.46397
5.46577
5.48168
5.65788
6.32512
4.82975
0.119441
4.83797
-0.00826895
4.8371
0.000823969
4.84748
-0.0104382
4.87357
-0.026147
4.91441
-0.0409171
4.94548
-0.0311563
4.93632
0.00906938
4.8851
0.0512346
4.82869
0.0566483
4.90914
-0.0795132
5.20266
-0.29294
5.61572
-0.413407
5.95015
-0.335828
6.02287
-0.0749632
5.91543
0.106231
5.74204
0.172851
5.52344
0.218228
5.34026
0.183149
-0.641837
5.98323
10.0967
0.167412
10.117
-0.0286546
10.1679
-0.0501209
10.233
-0.0756448
10.3228
-0.116111
10.4468
-0.165082
10.5534
-0.137894
10.5846
-0.0223603
10.5257
0.110262
10.4269
0.155804
10.5462
-0.196804
11.0607
-0.806435
11.8525
-1.20616
12.6199
-1.10641
12.9569
-0.416371
12.93
0.131361
12.7098
0.392164
12.2966
0.631128
11.7007
0.779247
-1.25776
12.3189
130.626
0.117548
130.69
-0.0940677
130.68
-0.040758
130.503
0.101229
130.158
0.227921
129.689
0.303463
129.193
0.359403
128.825
0.344664
128.558
0.377505
128.367
0.344507
127.819
0.350328
126.68
0.331391
125.168
0.308507
123.788
0.277734
123.138
0.239498
123.073
0.199009
123.308
0.156665
123.831
0.107654
124.568
0.0393821
-0.143496
123.45
11.9706
0.172152
11.8813
-0.00479254
11.8447
-0.00422497
11.9197
0.026172
12.0909
0.0566502
12.3152
0.0791628
12.5768
0.0970511
12.8248
0.0970977
13.0958
0.105927
13.3414
0.0992789
13.5916
0.0999135
13.8288
0.0941168
14.0519
0.0853529
14.2573
0.0723879
14.4411
0.055671
14.6036
0.036544
14.7463
0.0139686
14.8707
-0.0167678
14.9812
-0.0710428
-0.237744
15.0754
6.49725
6.49244
6.4882
6.51435
6.57097
6.65008
6.7469
6.84408
6.94984
7.0492
7.14907
7.24315
7.32848
7.40085
7.45652
7.49307
7.50704
7.49029
7.41925
7.18151
7.35727
-1.37175
7.62383
-0.26784
7.57076
0.0518878
7.51051
0.0603083
7.54775
-0.0369762
7.61005
-0.0625521
7.63117
-0.0213719
7.62613
0.00508718
7.6252
0.00103367
7.641
-0.0156663
7.65708
-0.0160266
7.66191
-0.00471028
7.65997
0.00215158
7.65728
0.00294376
7.65857
-0.00101632
7.66577
-0.00689706
7.66811
-0.00205128
7.66604
0.00238784
7.65663
0.00972537
7.63758
0.0193965
7.60681
0.0311325
7.56181
0.0453413
7.49962
0.0624101
7.41616
0.0827057
7.3061
0.10505
7.17062
0.129246
7.01377
0.154699
6.83824
0.175684
6.65176
0.190781
6.46231
0.197915
6.27593
0.190663
6.10281
0.174483
5.95141
0.151529
5.82558
0.124925
5.72579
0.0986917
5.64988
0.0752621
5.59392
0.0555659
5.55368
0.0399671
5.52534
0.0281216
5.50571
0.0194134
5.49232
0.0131746
5.48329
0.00879943
5.47724
0.00578759
5.47321
0.00374927
5.47052
0.00239206
5.46868
0.00150275
5.4674
0.000929483
5.46646
0.000565731
5.46571
0.000339001
5.46509
0.000199767
5.46453
0.000115833
5.46401
6.6054e-05
5.4635
3.70427e-05
5.46299
2.04152e-05
5.46249
1.10496e-05
5.46199
5.86175e-06
5.46149
3.0359e-06
5.46098
1.52262e-06
5.46048
7.2568e-07
5.45998
3.13568e-07
5.45948
1.04887e-07
5.45898
1.23873e-09
5.45848
-4.81377e-08
5.45798
-7.16846e-08
5.45747
-8.20892e-08
5.45696
-8.58308e-08
5.45643
-8.68204e-08
5.45589
-8.64948e-08
5.45533
-8.60036e-08
5.45475
-8.54525e-08
5.45414
-8.48977e-08
5.4535
-8.44757e-08
5.45283
-8.44557e-08
5.45211
-8.53233e-08
5.45136
-8.63183e-08
5.45055
-8.70259e-08
5.4497
-8.73315e-08
5.4488
-8.79845e-08
5.44785
-8.91723e-08
5.44684
-9.07676e-08
5.44579
-9.24501e-08
5.44468
-9.41491e-08
5.44353
-9.58971e-08
5.44233
-9.77689e-08
5.44108
-9.96915e-08
5.4398
-1.01852e-07
5.43848
-1.04117e-07
5.43713
-1.06593e-07
5.43575
-1.09298e-07
5.43436
-1.12188e-07
5.43295
-1.15371e-07
5.43153
-1.18845e-07
5.43011
-1.226e-07
5.4287
-1.26694e-07
5.4273
-1.31125e-07
5.42592
-1.3586e-07
5.42456
-1.40943e-07
5.42324
-1.46349e-07
5.42195
-1.52157e-07
5.4207
-1.58367e-07
5.4195
-1.6488e-07
5.41836
-1.71502e-07
5.41727
-1.78126e-07
5.41625
-1.8476e-07
5.41528
-1.91496e-07
5.41439
-1.9829e-07
5.41356
-2.04995e-07
5.41279
-2.11445e-07
5.4121
-2.17597e-07
5.41147
-2.23437e-07
5.4109
-2.28982e-07
5.41039
-2.34231e-07
5.40994
-2.39083e-07
5.40954
-2.43499e-07
5.40919
-2.47424e-07
5.40888
-2.50875e-07
5.40861
-2.53813e-07
5.40836
-2.56221e-07
5.40813
-2.581e-07
5.40792
-2.59466e-07
5.40772
-2.60341e-07
5.40752
-2.6075e-07
5.40732
-2.60765e-07
5.4071
-2.60465e-07
5.40686
-2.5993e-07
5.4066
-2.59186e-07
5.40631
-2.582e-07
5.40599
-2.5691e-07
5.40562
-2.55337e-07
5.40521
-2.53554e-07
5.40475
-2.51637e-07
5.40423
-2.49633e-07
5.40366
-2.4757e-07
5.40304
-2.45453e-07
5.40235
-2.4331e-07
5.4016
-2.41182e-07
5.40079
-2.39104e-07
5.39992
-2.37111e-07
5.39899
-2.35255e-07
5.39801
-2.33569e-07
5.39697
-2.32105e-07
5.39589
-2.30943e-07
5.39476
-2.30162e-07
5.3936
-2.29853e-07
5.39241
-2.30102e-07
5.3912
-2.30981e-07
5.38998
-2.32552e-07
5.38875
-2.34881e-07
5.38753
-2.37986e-07
5.38633
-2.41875e-07
5.38515
-2.46542e-07
5.384
-2.51941e-07
5.3829
-2.58031e-07
5.38185
-2.64778e-07
5.38086
-2.72081e-07
5.37993
-2.79799e-07
5.37907
-2.87833e-07
5.37829
-2.96128e-07
5.37759
-3.04561e-07
5.37697
-3.12988e-07
5.37643
-3.21312e-07
5.37597
-3.29454e-07
5.37559
-3.3735e-07
5.3753
-3.44951e-07
5.37507
-3.52236e-07
5.37492
-3.59147e-07
5.37484
-3.65633e-07
5.37483
-3.71479e-07
5.37488
-3.78966e-07
5.37499
-3.74448e-07
5.37516
-3.91183e-07
5.37537
-3.94273e-07
5.37563
-3.89058e-07
5.37594
-4.07575e-07
5.37628
-3.91179e-07
5.37665
-4.2566e-07
5.37704
-3.74566e-07
5.37744
-4.43306e-07
5.37785
-3.80891e-07
5.37825
-4.35215e-07
5.37863
-3.83227e-07
5.37899
-4.31195e-07
5.37932
-3.79679e-07
5.3796
-4.17953e-07
5.37983
-3.77782e-07
5.38
-4.00603e-07
5.3801
-3.61861e-07
5.38014
-2.72928e-07
5.3801
-7.52727e-07
5.37999
2.86409e-07
5.3798
-1.26089e-06
5.37954
-1.22841e-06
5.37922
-5.98517e-06
5.37885
-3.01438e-05
5.37854
-0.000152878
5.37882
-0.000788825
5.38237
-0.00410688
5.40393
-0.0221479
5.56497
-0.161658
-0.627385
6.19173
14.1129
-3.16162
14.6847
-0.842329
14.6327
0.101308
14.4582
0.235001
14.4614
-0.0398631
14.5629
-0.164444
14.6122
-0.0711165
14.5989
0.0183918
14.582
0.01814
14.6014
-0.0348273
14.6354
-0.0498267
14.6533
-0.0223747
14.6529
0.0029525
14.6436
0.0127636
14.6373
0.00586835
14.6438
-0.0128832
14.6438
-0.00142695
14.6355
0.0112899
14.6128
0.0331125
14.571
0.0618905
14.5067
0.096177
14.4164
0.136399
14.2965
0.182968
14.1427
0.236232
13.9496
0.294321
13.7183
0.356854
13.4533
0.418812
13.1596
0.469959
12.8495
0.503994
12.5376
0.515535
12.2359
0.495488
11.9593
0.452359
11.7187
0.39242
11.5192
0.324425
11.3607
0.25697
11.2393
0.196321
11.1493
0.145273
11.0843
0.10464
11.0384
0.073651
11.0067
0.0507987
10.985
0.034402
10.9705
0.0229053
10.9607
0.0150051
10.9542
0.00967537
10.9499
0.00614164
10.9469
0.00383779
10.9447
0.00236102
10.9431
0.00142934
10.9418
0.000852175
10.9407
0.000499721
10.9396
0.00028845
10.9386
0.000163846
10.9376
9.15951e-05
10.9366
5.03761e-05
10.9356
2.72585e-05
10.9346
1.45019e-05
10.9336
7.5759e-06
10.9326
3.87638e-06
10.9316
1.93132e-06
10.9306
9.25597e-07
10.9296
4.15248e-07
10.9286
1.60162e-07
10.9276
3.66363e-08
10.9266
-2.5025e-08
10.9256
-5.35172e-08
10.9245
-6.583e-08
10.9235
-7.08629e-08
10.9224
-7.25146e-08
10.9213
-7.29515e-08
10.9201
-7.28903e-08
10.9189
-7.25914e-08
10.9176
-7.22986e-08
10.9163
-7.22844e-08
10.9148
-7.30341e-08
10.9133
-7.39853e-08
10.9117
-7.45626e-08
10.91
-7.4795e-08
10.9082
-7.53409e-08
10.9063
-7.63896e-08
10.9043
-7.77684e-08
10.9022
-7.92152e-08
10.9
-8.06701e-08
10.8977
-8.21726e-08
10.8953
-8.37792e-08
10.8928
-8.54318e-08
10.8902
-8.72731e-08
10.8876
-8.92311e-08
10.8849
-9.13458e-08
10.8821
-9.36661e-08
10.8793
-9.61498e-08
10.8765
-9.88757e-08
10.8737
-1.01861e-07
10.8708
-1.05083e-07
10.868
-1.08587e-07
10.8652
-1.1239e-07
10.8624
-1.16446e-07
10.8597
-1.20795e-07
10.8571
-1.25425e-07
10.8545
-1.30394e-07
10.852
-1.35715e-07
10.8496
-1.41294e-07
10.8473
-1.46961e-07
10.8451
-1.52634e-07
10.8431
-1.58319e-07
10.8412
-1.64096e-07
10.8394
-1.69921e-07
10.8377
-1.75666e-07
10.8362
-1.81204e-07
10.8348
-1.86482e-07
10.8335
-1.91493e-07
10.8324
-1.96255e-07
10.8314
-2.0076e-07
10.8305
-2.04927e-07
10.8297
-2.08716e-07
10.829
-2.12091e-07
10.8283
-2.15054e-07
10.8278
-2.17575e-07
10.8273
-2.19635e-07
10.8268
-2.21241e-07
10.8264
-2.22404e-07
10.826
-2.23144e-07
10.8256
-2.23487e-07
10.8252
-2.23494e-07
10.8248
-2.23236e-07
10.8243
-2.22776e-07
10.8238
-2.22136e-07
10.8232
-2.21288e-07
10.8226
-2.20188e-07
10.8218
-2.18846e-07
10.821
-2.17325e-07
10.8201
-2.15683e-07
10.819
-2.13967e-07
10.8179
-2.12199e-07
10.8166
-2.10385e-07
10.8153
-2.08554e-07
10.8138
-2.06735e-07
10.8121
-2.04955e-07
10.8104
-2.0325e-07
10.8085
-2.01664e-07
10.8066
-2.00218e-07
10.8045
-1.98967e-07
10.8023
-1.97972e-07
10.8001
-1.97301e-07
10.7978
-1.97037e-07
10.7954
-1.97249e-07
10.793
-1.97998e-07
10.7905
-1.99344e-07
10.7881
-2.01339e-07
10.7856
-2.04e-07
10.7832
-2.07338e-07
10.7808
-2.11341e-07
10.7786
-2.15974e-07
10.7764
-2.21199e-07
10.7742
-2.26988e-07
10.7723
-2.33244e-07
10.7704
-2.39853e-07
10.7687
-2.46744e-07
10.7671
-2.53851e-07
10.7657
-2.61074e-07
10.7645
-2.68293e-07
10.7634
-2.75427e-07
10.7625
-2.82407e-07
10.7617
-2.89171e-07
10.7611
-2.95693e-07
10.7607
-3.01931e-07
10.7604
-3.0786e-07
10.7602
-3.13411e-07
10.7602
-3.18266e-07
10.7603
-3.17082e-07
10.7605
-3.5178e-07
10.7608
-3.1205e-07
10.7613
-3.21373e-07
10.7618
-3.45441e-07
10.7624
-3.60388e-07
10.7631
-3.11248e-07
10.7638
-4.09474e-07
10.7646
-2.51012e-07
10.7654
-4.52602e-07
10.7662
-2.661e-07
10.767
-4.28624e-07
10.7678
-2.75712e-07
10.7685
-4.22807e-07
10.7692
-2.7688e-07
10.7697
-3.98669e-07
10.7702
-2.88535e-07
10.7705
-3.67706e-07
10.7707
-2.64191e-07
10.7708
-1.30175e-08
10.7707
-1.46951e-06
10.7705
1.68244e-06
10.7701
-3.03526e-06
10.7696
-2.9269e-06
10.7689
-1.686e-05
10.7682
-8.82939e-05
10.7676
-0.000449935
10.7681
-0.00232185
10.7749
-0.0119988
10.814
-0.0624888
10.999
-0.347864
-1.43124
11.8016
120.218
0.0631885
119.403
-0.0303686
119.481
0.0210536
119.66
0.052998
119.572
0.0437821
119.384
0.0202759
119.304
0.00770307
119.315
0.00639839
119.326
0.0080448
119.286
0.00726164
119.235
0.00438452
119.215
0.00197161
119.222
0.00084409
119.242
-0.00137327
119.265
-0.0108636
119.289
-0.0297369
119.356
-0.0582387
119.482
-0.0962405
119.68
-0.144603
119.962
-0.203342
120.343
-0.270311
120.831
-0.340964
121.432
-0.40764
122.138
-0.461693
122.936
-0.49579
123.806
-0.504792
124.724
-0.491932
125.661
-0.46006
126.587
-0.414291
127.469
-0.361018
128.273
-0.305721
128.978
-0.250763
129.571
-0.200192
130.051
-0.155635
130.425
-0.117992
130.707
-0.0872416
130.912
-0.0629057
131.058
-0.0442507
131.159
-0.0303683
131.226
-0.0203378
131.269
-0.0132951
131.295
-0.00848502
131.309
-0.00528701
131.316
-0.00321612
131.316
-0.00190976
131.314
-0.00110594
131.308
-0.000624739
131.301
-0.000343457
131.292
-0.000184011
131.283
-9.54759e-05
131.272
-4.79537e-05
131.261
-2.31794e-05
131.25
-1.06876e-05
131.239
-4.6258e-06
131.227
-1.81415e-06
131.215
-5.82001e-07
131.203
-8.48738e-08
131.191
9.1009e-08
131.179
1.35928e-07
131.167
1.34577e-07
131.155
1.20888e-07
131.143
1.07035e-07
131.131
9.6312e-08
131.119
8.84327e-08
131.107
8.32995e-08
131.094
7.97512e-08
131.082
7.72834e-08
131.069
7.54496e-08
131.055
7.42722e-08
131.041
7.34784e-08
131.027
7.28502e-08
131.011
7.2409e-08
130.995
7.23354e-08
130.978
7.30557e-08
130.96
7.39958e-08
130.941
7.45665e-08
130.92
7.4798e-08
130.899
7.53428e-08
130.876
7.63896e-08
130.852
7.77712e-08
130.826
7.92164e-08
130.8
8.06714e-08
130.772
8.21699e-08
130.743
8.37787e-08
130.713
8.54311e-08
130.682
8.72716e-08
130.651
8.92301e-08
130.618
9.13454e-08
130.585
9.36683e-08
130.552
9.61522e-08
130.518
9.88753e-08
130.484
1.01863e-07
130.45
1.05082e-07
130.416
1.08586e-07
130.382
1.12388e-07
130.349