/*--------------------------------*- C++ -*----------------------------------*\
| =========                 |                                                 |
| \\      /  F ield         | OpenFOAM: The Open Source CFD Toolbox           |
|  \\    /   O peration     | Version:  3.0.x                                 |
|   \\  /    A nd           | Web:      www.OpenFOAM.org                      |
|    \\/     M anipulation  |                                                 |
\*---------------------------------------------------------------------------*/
FoamFile
{
    version     2.0;
    format      ascii;
    class       surfaceScalarField;
    location    "0.75";
    object      phi;
}
// * * * * * * * * * * * * * * * * * * * * * * * * * * * * * * * * * * * * * //

dimensions      [1 0 -1 0 0 0 0];

internalField   nonuniform List<scalar> 
999
(
2523.38
2523.38
2523.38
2523.38
2523.38
2523.38
2523.38
2523.38
2523.38
2523.38
2523.38
2523.38
2523.38
2523.38
2523.38
2523.38
2523.38
2523.38
2523.38
2523.38
2523.38
2523.38
2523.38
2523.38
2523.38
2523.38
2523.38
2523.38
2523.38
2523.38
2523.38
2523.38
2523.38
2523.38
2523.38
2523.38
2523.38
2523.38
2523.38
2523.38
2523.38
2523.38
2523.38
2523.38
2523.38
2523.38
2523.38
2523.38
2523.38
2523.38
2523.38
2523.38
2523.38
2523.38
2523.38
2523.38
2523.38
2523.38
2523.38
2523.38
2523.38
2523.38
2523.38
2523.38
2523.38
2523.38
2523.38
2523.38
2523.38
2523.38
2523.38
2523.38
2523.38
2523.38
2523.38
2523.38
2523.38
2523.38
2523.38
2523.38
2523.38
2523.38
2523.38
2523.38
2523.38
2523.38
2523.38
2523.38
2523.38
2523.38
2523.38
2523.38
2523.38
2523.38
2523.38
2523.38
2523.38
2523.38
2523.38
2523.38
2523.38
2523.38
2523.38
2523.38
2523.38
2523.38
2523.38
2523.38
2523.38
2523.38
2523.38
2523.38
2523.38
2523.38
2523.38
2523.38
2523.38
2523.38
2523.38
2523.38
2523.38
2523.38
2523.38
2523.38
2523.38
2523.38
2523.38
2523.38
2523.38
2523.38
2523.38
2523.38
2523.38
2523.38
2523.38
2523.38
2523.38
2523.38
2523.38
2523.38
2523.38
2523.38
2523.38
2523.38
2523.38
2523.38
2523.38
2523.38
2523.38
2523.38
2523.38
2523.38
2523.38
2523.38
2523.38
2523.38
2523.38
2523.38
2523.38
2523.38
2523.38
2523.38
2523.38
2523.38
2523.38
2523.38
2523.38
2523.38
2523.38
2523.38
2523.38
2523.38
2523.38
2523.38
2523.38
2523.38
2523.38
2523.38
2523.38
2523.38
2523.38
2523.38
2523.38
2523.38
2523.38
2523.38
2523.38
2523.38
2523.38
2523.38
2523.38
2523.38
2523.38
2523.38
2523.38
2523.38
2523.38
2523.38
2523.38
2523.38
2523.38
2523.38
2523.38
2523.38
2523.38
2523.38
2523.38
2523.38
2523.38
2523.38
2523.38
2523.38
2523.38
2523.38
2523.38
2523.38
2523.38
2523.38
2523.38
2523.38
2523.38
2523.38
2523.38
2523.38
2523.38
2523.38
2523.38
2523.38
2523.38
2523.38
2523.38
2523.38
2523.38
2523.38
2523.38
2523.38
2523.38
2523.38
2523.38
2523.38
2523.38
2523.38
2523.38
2523.38
2523.38
2523.38
2523.38
2523.38
2523.38
2523.38
2523.38
2523.38
2523.38
2523.38
2523.38
2523.38
2523.38
2523.38
2523.38
2523.38
2523.38
2523.38
2523.38
2523.38
2523.38
2523.38
2523.38
2523.38
2523.38
2523.38
2523.38
2523.38
2523.38
2523.38
2523.38
2523.38
2523.38
2523.38
2523.38
2523.38
2523.38
2523.38
2523.38
2523.38
2523.38
2523.38
2523.38
2523.38
2523.38
2523.38
2523.38
2523.38
2523.38
2523.38
2523.38
2523.38
2523.38
2523.38
2523.38
2523.38
2523.38
2523.38
2523.38
2523.38
2523.38
2523.38
2523.38
2523.38
2523.38
2523.38
2523.38
2523.38
2523.38
2523.38
2523.38
2523.38
2523.38
2523.38
2523.38
2523.38
2523.38
2523.38
2523.38
2523.38
2523.38
2523.38
2523.38
2523.38
2523.38
2523.38
2523.38
2523.38
2523.38
2523.38
2523.38
2523.38
2523.38
2523.38
2523.38
2523.38
2523.38
2523.38
2523.38
2523.38
2523.38
2523.38
2523.38
2523.38
2523.38
2523.38
2523.38
2523.38
2523.38
2523.38
2523.38
2523.38
2523.38
2523.38
2523.38
2523.38
2523.38
2523.38
2523.38
2523.38
2523.38
2523.38
2523.38
2523.38
2523.38
2523.38
2523.38
2523.38
2523.38
2523.38
2523.38
2523.38
2523.38
2523.38
2523.38
2523.38
2523.38
2523.38
2523.38
2523.38
2523.38
2523.38
2523.38
2523.38
2523.38
2523.38
2523.38
2523.38
2523.38
2523.38
2523.38
2523.38
2523.38
2523.38
2523.38
2523.38
2523.38
2523.38
2523.38
2523.38
2523.38
2523.38
2523.38
2523.38
2523.38
2523.38
2523.38
2523.38
2523.38
2523.38
2523.38
2523.38
2523.38
2523.38
2523.38
2523.38
2523.38
2523.38
2523.38
2523.38
2523.38
2523.38
2523.38
2523.38
2523.38
2523.38
2523.38
2523.38
2523.38
2523.38
2523.38
2523.38
2523.38
2523.38
2523.38
2523.38
2523.38
2523.38
2523.38
2523.38
2523.38
2523.38
2523.38
2523.38
2523.38
2523.38
2523.38
2523.38
2523.38
2523.38
2523.38
2523.38
2523.38
2523.38
2523.38
2523.38
2523.38
2523.38
2523.38
2523.38
2523.38
2523.38
2523.38
2523.38
2523.38
2523.38
2523.38
2523.38
2523.38
2523.38
2523.38
2523.38
2523.38
2523.38
2523.38
2523.38
2523.38
2523.38
2523.38
2523.38
2523.38
2523.38
2523.38
2523.38
2523.38
2523.38
2523.38
2523.38
2523.38
2523.38
2523.38
2523.38
2523.38
2523.38
2523.38
2523.38
2523.38
2523.38
2523.38
2523.38
2523.38
2523.38
2523.38
2523.38
2523.38
2523.38
2523.38
2523.38
2523.38
2523.38
2523.38
2523.38
2523.38
2523.38
2523.38
2523.38
2523.38
2523.38
2523.38
2523.38
2523.38
2523.38
2523.38
2523.38
2523.38
2523.38
2523.38
2523.38
2523.38
2523.38
2523.38
2523.38
2523.38
2523.38
2523.38
2523.38
2523.38
2523.38
2523.38
2523.38
2523.38
2523.38
2523.38
2523.38
2523.38
2523.38
2523.38
2523.38
2523.38
2523.38
2523.38
2523.38
2523.38
2523.38
2523.38
2523.38
2523.38
2523.38
2523.38
2523.38
2523.38
2523.38
2523.38
2523.38
2523.38
2523.38
2523.38
2523.38
2523.38
2523.38
2523.38
2523.38
2523.38
2523.38
2523.38
2523.38
2523.38
2523.38
2523.38
2523.38
2523.38
2523.37
2523.37
2523.37
2523.36
2523.36
2523.35
2523.34
2523.33
2523.31
2523.29
2523.27
2523.24
2523.2
2523.15
2523.1
2523.03
2522.94
2522.84
2522.72
2522.57
2522.39
2522.17
2521.91
2521.6
2521.23
2520.79
2520.28
2519.67
2518.96
2518.12
2517.15
2516.02
2514.71
2513.2
2511.46
2509.47
2507.18
2504.58
2501.62
2498.26
2494.47
2490.2
2485.41
2480.04
2474.05
2467.38
2459.98
2451.8
2442.77
2432.85
2421.96
2410.06
2397.1
2383
2367.73
2351.23
2333.46
2314.38
2293.94
2272.13
2248.9
2224.26
2198.18
2170.66
2141.71
2111.34
2079.58
2046.46
2012.01
1976.29
1939.34
1901.23
1862.03
1821.8
1780.63
1738.59
1695.78
1652.27
1608.16
1563.54
1518.49
1473.09
1427.45
1381.64
1335.74
1289.84
1244.02
1198.34
1152.89
1107.74
1062.94
1018.57
974.694
931.361
888.632
846.561
805.201
764.602
724.811
685.875
647.836
610.736
574.614
539.507
505.45
472.475
440.612
409.887
380.324
351.944
324.762
298.793
274.046
250.525
228.232
207.162
187.307
168.655
151.188
134.883
119.716
105.654
92.665
80.7101
69.7486
59.7371
50.6298
42.3796
34.9382
28.2569
22.2875
16.9828
12.2978
8.18976
4.61992
1.55285
-1.0518
-2.92371
-4.53891
-5.90094
-7.04594
-8.00603
-8.80777
-9.47308
-10.0207
-10.4672
-10.8278
-11.1159
-11.3434
-11.5209
-11.6573
-11.7603
-11.8364
-11.891
-11.9288
-11.9535
-11.968
-11.975
-11.9763
-11.9736
-11.9679
-11.9604
-11.9516
-11.9421
-11.9323
-11.9225
-11.9129
-11.9036
-11.8949
-11.8867
-11.8791
-11.8723
-11.866
-11.8603
-11.855
-11.85
-11.8452
-11.8405
-11.836
-11.8317
-11.8275
-11.8235
-11.8197
-11.8161
-11.8128
-11.8096
-11.8066
-11.8036
-11.8007
-11.7977
-11.7947
-11.7917
-11.7886
-11.7855
-11.7824
-11.7793
-11.7764
-11.7735
-11.7708
-11.7683
-11.7659
-11.7636
-11.7615
-11.7594
-11.7575
-11.7557
-11.754
-11.7524
-11.7509
-11.7494
-11.748
-11.7467
-11.7454
-11.7442
-11.7431
-11.7419
-11.7409
-11.7398
-11.7388
-11.7379
-11.737
-11.7362
-11.7354
-11.7347
-11.734
-11.7335
-11.733
-11.7327
-11.7325
-11.7324
-11.7323
-11.7324
-11.7325
-11.7326
-11.7327
-11.7329
-11.7329
-11.733
-11.7329
-11.7329
-11.7328
-11.7326
-11.7325
-11.7322
-11.732
-11.7317
-11.7313
-11.7309
-11.7303
-11.7297
-11.729
-11.7282
-11.7273
-11.7264
-11.7254
-11.7244
-11.7233
-11.7222
-11.7212
-11.7202
-11.7192
-11.7182
-11.7173
-11.7164
-11.7156
-11.7148
-11.7141
-11.7133
-11.7127
-11.712
-11.7114
-11.7108
-11.7103
-11.7097
-11.7092
-11.7087
-11.7082
-11.7078
-11.7073
-11.7069
-11.7065
-11.7062
-11.7058
-11.7056
-11.7053
-11.7051
-11.7049
-11.7048
-11.7048
-11.7048
-11.7049
-11.705
-11.7053
-11.7056
-11.706
-11.7064
-11.7069
-11.7075
-11.7081
-11.7087
-11.7093
-11.7099
-11.7105
-11.711
-11.7115
-11.712
-11.7125
-11.7129
-11.7132
-11.7135
-11.7137
-11.7139
-11.7139
-11.7139
-11.7138
-11.7137
-11.7134
-11.7131
-11.7126
-11.7121
-11.7115
-11.7109
-11.7102
-11.7094
-11.7086
-11.7079
-11.7071
-11.7063
-11.7055
-11.7047
-11.704
-11.7032
-11.7026
-11.7019
-11.7013
-11.7007
-11.7002
-11.6997
-11.6992
-11.6988
-11.6984
-11.698
-11.6977
-11.6973
-11.697
-11.6968
-11.6965
-11.6962
-11.696
-11.6958
-11.6956
-11.6954
-11.6952
-11.6951
-11.6949
-11.6948
-11.6947
-11.6946
-11.6945
-11.6945
-11.6945
-11.6945
-11.6946
-11.6946
-11.6948
-11.695
-11.6952
-11.6954
-11.6958
-11.6961
-11.6966
-11.697
-11.6976
-11.6981
-11.6987
-11.6993
-11.7
-11.7006
-11.7013
-11.7019
-11.7026
-11.7033
-11.7039
-11.7045
-11.7051
-11.7057
-11.7063
-11.7068
-11.7073
-11.7078
-11.7083
-11.7087
-11.709
-11.7093
-11.7096
-11.7098
-11.71
-11.7102
-11.7102
-11.7103
-11.7103
-11.7103
-11.7102
-11.7101
-11.71
-11.7099
-11.7097
-11.7096
-11.7094
-11.7093
-11.7092
-11.7092
-11.709
-11.7091
)
;

boundaryField
{
    inlet
    {
        type            calculated;
        value           uniform -2523.38;
    }
    backWall
    {
        type            calculated;
        value           uniform -11.7091;
    }
    sides
    {
        type            empty;
        value           nonuniform 0();
    }
}


// ************************************************************************* //
