/*--------------------------------*- C++ -*----------------------------------*\
| =========                 |                                                 |
| \\      /  F ield         | OpenFOAM: The Open Source CFD Toolbox           |
|  \\    /   O peration     | Version:  3.0.x                                 |
|   \\  /    A nd           | Web:      www.OpenFOAM.org                      |
|    \\/     M anipulation  |                                                 |
\*---------------------------------------------------------------------------*/
FoamFile
{
    version     2.0;
    format      ascii;
    class       volVectorField;
    location    "0.75";
    object      U;
}
// * * * * * * * * * * * * * * * * * * * * * * * * * * * * * * * * * * * * * //

dimensions      [0 1 -1 0 0 0 0];

internalField   nonuniform List<vector> 
1000
(
(50 0 0)
(50 0 0)
(50 0 0)
(50 0 0)
(50 0 0)
(50 0 0)
(50 0 0)
(50 0 0)
(50 0 0)
(50 0 0)
(50 0 0)
(50 0 0)
(50 0 0)
(50 0 0)
(50 0 0)
(50 0 0)
(50 0 0)
(50 0 0)
(50 0 0)
(50 0 0)
(50 0 0)
(50 0 0)
(50 0 0)
(50 0 0)
(50 0 0)
(50 0 0)
(50 0 0)
(50 0 0)
(50 0 0)
(50 0 0)
(50 0 0)
(50 0 0)
(50 0 0)
(50 0 0)
(50 0 0)
(50 0 0)
(50 0 0)
(50 0 0)
(50 0 0)
(50 0 0)
(50 0 0)
(50 0 0)
(50 0 0)
(50 0 0)
(50 0 0)
(50 0 0)
(50 0 0)
(50 0 0)
(50 0 0)
(50 0 0)
(50 0 0)
(50 0 0)
(50 0 0)
(50 0 0)
(50 0 0)
(50 0 0)
(50 0 0)
(50 0 0)
(50 0 0)
(50 0 0)
(50 0 0)
(50 0 0)
(50 0 0)
(50 0 0)
(50 0 0)
(50 0 0)
(50 0 0)
(50 0 0)
(50 0 0)
(50 0 0)
(50 0 0)
(50 0 0)
(50 0 0)
(50 0 0)
(50 0 0)
(50 0 0)
(50 0 0)
(50 0 0)
(50 0 0)
(50 0 0)
(50 0 0)
(50 0 0)
(50 0 0)
(50 0 0)
(50 0 0)
(50 0 0)
(50 0 0)
(50 0 0)
(50 0 0)
(50 0 0)
(50 0 0)
(50 0 0)
(50 0 0)
(50 0 0)
(50 0 0)
(50 0 0)
(50 0 0)
(50 0 0)
(50 0 0)
(50 0 0)
(50 0 0)
(50 0 0)
(50 0 0)
(50 0 0)
(50 0 0)
(50 0 0)
(50 0 0)
(50 0 0)
(50 0 0)
(50 0 0)
(50 0 0)
(50 0 0)
(50 0 0)
(50 0 0)
(50 0 0)
(50 0 0)
(50 0 0)
(50 0 0)
(50 0 0)
(50 0 0)
(50 0 0)
(50 0 0)
(50 0 0)
(50 0 0)
(50 0 0)
(50 0 0)
(50 0 0)
(50 0 0)
(50 0 0)
(50 0 0)
(50 0 0)
(50 0 0)
(50 0 0)
(50 0 0)
(50 0 0)
(50 0 0)
(50 0 0)
(50 0 0)
(50 0 0)
(50 0 0)
(50 0 0)
(50 0 0)
(50 0 0)
(50 0 0)
(50 0 0)
(50 0 0)
(50 0 0)
(50 0 0)
(50 0 0)
(50 0 0)
(50 0 0)
(50 0 0)
(50 0 0)
(50 0 0)
(50 0 0)
(50 0 0)
(50 0 0)
(50 0 0)
(50 0 0)
(50 0 0)
(50 0 0)
(50 0 0)
(50 0 0)
(50 0 0)
(50 0 0)
(50 0 0)
(50 0 0)
(50 0 0)
(50 0 0)
(50 0 0)
(50 0 0)
(50 0 0)
(50 0 0)
(50 0 0)
(50 0 0)
(50 0 0)
(50 0 0)
(50 0 0)
(50 0 0)
(50 0 0)
(50 0 0)
(50 0 0)
(50 0 0)
(50 0 0)
(50 0 0)
(50 0 0)
(50 0 0)
(50 0 0)
(50 0 0)
(50 0 0)
(50 0 0)
(50 0 0)
(50 0 0)
(50 0 0)
(50 0 0)
(50 0 0)
(50 0 0)
(50 0 0)
(50 0 0)
(50 0 0)
(50 0 0)
(50 0 0)
(50 0 0)
(50 0 0)
(50 0 0)
(50 0 0)
(50 0 0)
(50 0 0)
(50 0 0)
(50 0 0)
(50 0 0)
(50 0 0)
(50 0 0)
(50 0 0)
(50 0 0)
(50 0 0)
(50 0 0)
(50 0 0)
(50 0 0)
(50 0 0)
(50 0 0)
(50 0 0)
(50 0 0)
(50 0 0)
(50 0 0)
(50 0 0)
(50 0 0)
(50 0 0)
(50 0 0)
(50 0 0)
(50 0 0)
(50 0 0)
(50 0 0)
(50 0 0)
(50 0 0)
(50 0 0)
(50 0 0)
(50 0 0)
(50 0 0)
(50 0 0)
(50 0 0)
(50 0 0)
(50 0 0)
(50 0 0)
(50 0 0)
(50 0 0)
(50 0 0)
(50 0 0)
(50 0 0)
(50 0 0)
(50 0 0)
(50 0 0)
(50 0 0)
(50 0 0)
(50 0 0)
(50 0 0)
(50 0 0)
(50 0 0)
(50 0 0)
(50 0 0)
(50 0 0)
(50 0 0)
(50 0 0)
(50 0 0)
(50 0 0)
(50 0 0)
(50 0 0)
(50 0 0)
(50 0 0)
(50 0 0)
(50 0 0)
(50 0 0)
(50 0 0)
(50 0 0)
(50 0 0)
(50 0 0)
(50 0 0)
(50 0 0)
(50 0 0)
(50 0 0)
(50 0 0)
(50 0 0)
(50 0 0)
(50 0 0)
(50 0 0)
(50 0 0)
(50 0 0)
(50 0 0)
(50 0 0)
(50 0 0)
(50 0 0)
(50 0 0)
(50 0 0)
(50 0 0)
(50 0 0)
(50 0 0)
(50 0 0)
(50 0 0)
(50 0 0)
(50 0 0)
(50 0 0)
(50 0 0)
(50 0 0)
(50 0 0)
(50 0 0)
(50 0 0)
(50 0 0)
(50 0 0)
(50 0 0)
(50 0 0)
(50 0 0)
(50 0 0)
(50 0 0)
(50 0 0)
(50 0 0)
(50 0 0)
(50 0 0)
(50 0 0)
(50 0 0)
(50 0 0)
(50 0 0)
(50 0 0)
(50 0 0)
(50 0 0)
(50 0 0)
(50 0 0)
(50 0 0)
(50 0 0)
(50 0 0)
(50 0 0)
(50 0 0)
(50 0 0)
(50 0 0)
(50 0 0)
(50 0 0)
(50 0 0)
(50 0 0)
(50 0 0)
(50 0 0)
(50 0 0)
(50 0 0)
(50 0 0)
(50 0 0)
(50 0 0)
(50 0 0)
(50 0 0)
(50 0 0)
(50 0 0)
(50 0 0)
(50 0 0)
(50 0 0)
(50 0 0)
(50 0 0)
(50 0 0)
(50 0 0)
(50 0 0)
(50 0 0)
(50 0 0)
(50 0 0)
(50 0 0)
(50 0 0)
(50 0 0)
(50 0 0)
(50 0 0)
(50 0 0)
(50 0 0)
(50 0 0)
(50 0 0)
(50 0 0)
(50 0 0)
(50 0 0)
(50 0 0)
(50 0 0)
(50 0 0)
(50 0 0)
(50 0 0)
(50 0 0)
(50 0 0)
(50 0 0)
(50 0 0)
(50 0 0)
(50 0 0)
(50 0 0)
(50 0 0)
(50 0 0)
(50 0 0)
(50 0 0)
(50 0 0)
(50 0 0)
(50 0 0)
(50 0 0)
(50 0 0)
(50 0 0)
(50 0 0)
(50 0 0)
(50 0 0)
(50 0 0)
(50 0 0)
(50 0 0)
(50 0 0)
(50 0 0)
(50 0 0)
(50 0 0)
(50 0 0)
(50 0 0)
(50 0 0)
(50 0 0)
(50 0 0)
(50 0 0)
(50 0 0)
(50 0 0)
(50 0 0)
(50 0 0)
(50 0 0)
(50 0 0)
(50 0 0)
(50 0 0)
(50 0 0)
(50 0 0)
(50 0 0)
(50 0 0)
(50 0 0)
(50 0 0)
(50 0 0)
(50 0 0)
(50 0 0)
(50 0 0)
(50 0 0)
(50 0 0)
(50 0 0)
(50 0 0)
(50 0 0)
(50 0 0)
(50 0 0)
(50 0 0)
(50 0 0)
(50 0 0)
(50 0 0)
(50 0 0)
(50 0 0)
(50 0 0)
(50 0 0)
(50 0 0)
(50 0 0)
(50 0 0)
(50 0 0)
(50 0 0)
(50 0 0)
(50 0 0)
(50 0 0)
(50 0 0)
(50 0 0)
(50 0 0)
(50 0 0)
(50 0 0)
(50 0 0)
(50 0 0)
(50 0 0)
(50 0 0)
(50 0 0)
(50 0 0)
(50 0 0)
(50 0 0)
(50 0 0)
(50 0 0)
(50 0 0)
(50 0 0)
(50 0 0)
(50 0 0)
(50 0 0)
(50 0 0)
(50 0 0)
(50 0 0)
(50 0 0)
(50 0 0)
(50 0 0)
(50 0 0)
(50 0 0)
(50 0 0)
(50 0 0)
(50 0 0)
(50 0 0)
(50 0 0)
(50 0 0)
(50 0 0)
(50 0 0)
(50 0 0)
(50 0 0)
(50 0 0)
(50 0 0)
(50 0 0)
(50 0 0)
(50 0 0)
(50 0 0)
(50 0 0)
(50 0 0)
(50 0 0)
(50 0 0)
(50 0 0)
(50 0 0)
(50 0 0)
(50 0 0)
(50 0 0)
(50 0 0)
(50 0 0)
(50 0 0)
(50 0 0)
(50 0 0)
(50 0 0)
(50 0 0)
(50 0 0)
(50 0 0)
(50 0 0)
(50 0 0)
(50 0 0)
(50 0 0)
(50 0 0)
(50 0 0)
(50 0 0)
(50 0 0)
(50 0 0)
(50 0 0)
(50 0 0)
(50 0 0)
(50 0 0)
(50 0 0)
(50 0 0)
(50 0 0)
(50 0 0)
(50 0 0)
(50 0 0)
(50 0 0)
(50 0 0)
(50 0 0)
(50 0 0)
(50 0 0)
(50 0 0)
(50 0 0)
(50 0 0)
(50 0 0)
(50 0 0)
(50 0 0)
(50 0 0)
(50 0 0)
(50 0 0)
(50 0 0)
(50 0 0)
(50 0 0)
(50 0 0)
(50 0 0)
(50 0 0)
(50 0 0)
(50 0 0)
(50 0 0)
(50 0 0)
(50 0 0)
(50 0 0)
(50 0 0)
(50 0 0)
(50 0 0)
(50 0 0)
(50 0 0)
(50 0 0)
(50 0 0)
(50 0 0)
(50 0 0)
(50 0 0)
(50 0 0)
(50 0 0)
(50 0 0)
(50 0 0)
(50 0 0)
(50 0 0)
(50 0 0)
(50 0 0)
(50 0 0)
(50 0 0)
(50 0 0)
(50 0 0)
(50 0 0)
(50 0 0)
(49.9999 0 0)
(49.9999 0 0)
(49.9999 0 0)
(49.9999 0 0)
(49.9998 0 0)
(49.9998 0 0)
(49.9997 0 0)
(49.9996 0 0)
(49.9995 0 0)
(49.9993 0 0)
(49.9991 0 0)
(49.9989 0 0)
(49.9986 0 0)
(49.9982 0 0)
(49.9978 0 0)
(49.9972 0 0)
(49.9965 0 0)
(49.9956 0 0)
(49.9945 0 0)
(49.9932 0 0)
(49.9915 0 0)
(49.9895 0 0)
(49.9871 0 0)
(49.9842 0 0)
(49.9806 0 0)
(49.9764 0 0)
(49.9713 0 0)
(49.9652 0 0)
(49.9579 0 0)
(49.9493 0 0)
(49.9391 0 0)
(49.927 0 0)
(49.9129 0 0)
(49.8964 0 0)
(49.877 0 0)
(49.8545 0 0)
(49.8284 0 0)
(49.7982 0 0)
(49.7635 0 0)
(49.7235 0 0)
(49.6777 0 0)
(49.6254 0 0)
(49.5659 0 0)
(49.4983 0 0)
(49.4219 0 0)
(49.3358 0 0)
(49.2389 0 0)
(49.1303 0 0)
(49.009 0 0)
(48.8738 0 0)
(48.7236 0 0)
(48.5574 0 0)
(48.3738 0 0)
(48.1718 0 0)
(47.9502 0 0)
(47.7077 0 0)
(47.4432 0 0)
(47.1556 0 0)
(46.8438 0 0)
(46.5068 0 0)
(46.1437 0 0)
(45.7536 0 0)
(45.3358 0 0)
(44.8897 0 0)
(44.4148 0 0)
(43.9109 0 0)
(43.3777 0 0)
(42.8153 0 0)
(42.2239 0 0)
(41.6038 0 0)
(40.9555 0 0)
(40.2799 0 0)
(39.5778 0 0)
(38.8502 0 0)
(38.0985 0 0)
(37.3239 0 0)
(36.528 0 0)
(35.7123 0 0)
(34.8785 0 0)
(34.0285 0 0)
(33.164 0 0)
(32.2869 0 0)
(31.399 0 0)
(30.5023 0 0)
(29.5986 0 0)
(28.6898 0 0)
(27.7775 0 0)
(26.8637 0 0)
(25.95 0 0)
(25.038 0 0)
(24.1293 0 0)
(23.2254 0 0)
(22.3277 0 0)
(21.4376 0 0)
(20.5563 0 0)
(19.6851 0 0)
(18.8252 0 0)
(17.9776 0 0)
(17.1434 0 0)
(16.3235 0 0)
(15.5189 0 0)
(14.7304 0 0)
(13.9589 0 0)
(13.2052 0 0)
(12.4698 0 0)
(11.7537 0 0)
(11.0573 0 0)
(10.3814 0 0)
(9.72632 0 0)
(9.09275 0 0)
(8.48108 0 0)
(7.89173 0 0)
(7.32506 0 0)
(6.78135 0 0)
(6.26084 0 0)
(5.76371 0 0)
(5.29006 0 0)
(4.83991 0 0)
(4.41323 0 0)
(4.0099 0 0)
(3.62971 0 0)
(3.2724 0 0)
(2.9376 0 0)
(2.62488 0 0)
(2.33374 0 0)
(2.06359 0 0)
(1.81378 0 0)
(1.58361 0 0)
(1.37232 0 0)
(1.17908 0 0)
(1.00306 0 0)
(0.843362 0 0)
(0.6991 0 0)
(0.569366 0 0)
(0.453261 0 0)
(0.349909 0 0)
(0.258469 0 0)
(0.178154 0 0)
(0.108267 0 0)
(0.0482511 0 0)
(-0.00110801 0 0)
(-0.0401318 0 0)
(-0.0722282 0 0)
(-0.0995567 0 0)
(-0.122538 0 0)
(-0.141806 0 0)
(-0.157909 0 0)
(-0.171297 0 0)
(-0.182348 0 0)
(-0.191388 0 0)
(-0.19871 0 0)
(-0.204575 0 0)
(-0.209219 0 0)
(-0.212846 0 0)
(-0.215636 0 0)
(-0.217737 0 0)
(-0.219289 0 0)
(-0.220367 0 0)
(-0.22114 0 0)
(-0.221511 0 0)
(-0.221673 0 0)
(-0.221863 0 0)
(-0.221903 0 0)
(-0.221855 0 0)
(-0.221742 0 0)
(-0.221592 0 0)
(-0.221399 0 0)
(-0.221182 0 0)
(-0.221062 0 0)
(-0.220956 0 0)
(-0.220779 0 0)
(-0.2206 0 0)
(-0.220419 0 0)
(-0.220241 0 0)
(-0.220072 0 0)
(-0.219913 0 0)
(-0.219764 0 0)
(-0.219624 0 0)
(-0.219493 0 0)
(-0.219367 0 0)
(-0.219246 0 0)
(-0.219127 0 0)
(-0.219011 0 0)
(-0.218898 0 0)
(-0.218784 0 0)
(-0.218679 0 0)
(-0.218558 0 0)
(-0.218474 0 0)
(-0.218339 0 0)
(-0.218184 0 0)
(-0.218124 0 0)
(-0.218058 0 0)
(-0.217986 0 0)
(-0.217919 0 0)
(-0.217842 0 0)
(-0.21779 0 0)
(-0.217683 0 0)
(-0.21762 0 0)
(-0.217627 0 0)
(-0.217568 0 0)
(-0.217511 0 0)
(-0.217452 0 0)
(-0.217393 0 0)
(-0.217334 0 0)
(-0.217277 0 0)
(-0.217222 0 0)
(-0.217169 0 0)
(-0.217117 0 0)
(-0.217068 0 0)
(-0.21702 0 0)
(-0.216974 0 0)
(-0.21693 0 0)
(-0.216887 0 0)
(-0.216845 0 0)
(-0.216805 0 0)
(-0.216765 0 0)
(-0.216726 0 0)
(-0.216688 0 0)
(-0.216649 0 0)
(-0.216609 0 0)
(-0.216579 0 0)
(-0.216506 0 0)
(-0.216464 0 0)
(-0.21646 0 0)
(-0.216426 0 0)
(-0.216403 0 0)
(-0.216383 0 0)
(-0.216353 0 0)
(-0.216351 0 0)
(-0.216304 0 0)
(-0.216289 0 0)
(-0.216326 0 0)
(-0.21631 0 0)
(-0.216307 0 0)
(-0.216302 0 0)
(-0.216298 0 0)
(-0.216294 0 0)
(-0.21629 0 0)
(-0.216286 0 0)
(-0.216281 0 0)
(-0.216276 0 0)
(-0.21627 0 0)
(-0.216263 0 0)
(-0.216255 0 0)
(-0.216247 0 0)
(-0.216237 0 0)
(-0.216227 0 0)
(-0.216217 0 0)
(-0.216205 0 0)
(-0.216192 0 0)
(-0.216179 0 0)
(-0.216164 0 0)
(-0.216148 0 0)
(-0.216129 0 0)
(-0.216111 0 0)
(-0.216086 0 0)
(-0.216069 0 0)
(-0.216029 0 0)
(-0.216025 0 0)
(-0.215975 0 0)
(-0.215927 0 0)
(-0.215932 0 0)
(-0.215895 0 0)
(-0.215875 0 0)
(-0.215851 0 0)
(-0.215828 0 0)
(-0.215808 0 0)
(-0.215782 0 0)
(-0.215775 0 0)
(-0.215734 0 0)
(-0.215722 0 0)
(-0.215734 0 0)
(-0.215706 0 0)
(-0.215697 0 0)
(-0.215682 0 0)
(-0.215669 0 0)
(-0.215655 0 0)
(-0.215641 0 0)
(-0.215628 0 0)
(-0.215615 0 0)
(-0.215602 0 0)
(-0.21559 0 0)
(-0.215578 0 0)
(-0.215566 0 0)
(-0.215555 0 0)
(-0.215544 0 0)
(-0.215534 0 0)
(-0.215525 0 0)
(-0.215516 0 0)
(-0.215507 0 0)
(-0.2155 0 0)
(-0.215494 0 0)
(-0.215488 0 0)
(-0.215484 0 0)
(-0.215482 0 0)
(-0.21548 0 0)
(-0.215481 0 0)
(-0.215482 0 0)
(-0.215485 0 0)
(-0.215489 0 0)
(-0.215494 0 0)
(-0.2155 0 0)
(-0.215507 0 0)
(-0.215514 0 0)
(-0.215522 0 0)
(-0.215529 0 0)
(-0.215537 0 0)
(-0.215544 0 0)
(-0.21555 0 0)
(-0.215556 0 0)
(-0.215561 0 0)
(-0.215566 0 0)
(-0.215569 0 0)
(-0.215571 0 0)
(-0.215573 0 0)
(-0.215573 0 0)
(-0.215571 0 0)
(-0.215568 0 0)
(-0.215565 0 0)
(-0.215558 0 0)
(-0.215551 0 0)
(-0.215544 0 0)
(-0.215527 0 0)
(-0.215517 0 0)
(-0.215508 0 0)
(-0.215491 0 0)
(-0.215477 0 0)
(-0.215461 0 0)
(-0.215445 0 0)
(-0.215428 0 0)
(-0.215412 0 0)
(-0.215395 0 0)
(-0.215378 0 0)
(-0.215361 0 0)
(-0.215345 0 0)
(-0.21533 0 0)
(-0.215315 0 0)
(-0.2153 0 0)
(-0.215287 0 0)
(-0.215274 0 0)
(-0.215262 0 0)
(-0.21525 0 0)
(-0.215239 0 0)
(-0.215229 0 0)
(-0.215219 0 0)
(-0.21521 0 0)
(-0.215201 0 0)
(-0.215193 0 0)
(-0.215185 0 0)
(-0.215178 0 0)
(-0.215171 0 0)
(-0.215164 0 0)
(-0.215158 0 0)
(-0.215152 0 0)
(-0.215146 0 0)
(-0.215141 0 0)
(-0.215136 0 0)
(-0.215131 0 0)
(-0.215126 0 0)
(-0.215122 0 0)
(-0.215118 0 0)
(-0.215114 0 0)
(-0.215111 0 0)
(-0.215109 0 0)
(-0.215106 0 0)
(-0.215106 0 0)
(-0.215101 0 0)
(-0.215107 0 0)
(-0.215101 0 0)
(-0.215101 0 0)
(-0.215112 0 0)
(-0.215109 0 0)
(-0.215117 0 0)
(-0.215121 0 0)
(-0.215127 0 0)
(-0.215134 0 0)
(-0.215142 0 0)
(-0.215151 0 0)
(-0.21516 0 0)
(-0.215169 0 0)
(-0.215179 0 0)
(-0.21519 0 0)
(-0.2152 0 0)
(-0.215211 0 0)
(-0.215222 0 0)
(-0.215232 0 0)
(-0.215243 0 0)
(-0.215253 0 0)
(-0.215263 0 0)
(-0.215272 0 0)
(-0.215281 0 0)
(-0.21529 0 0)
(-0.215298 0 0)
(-0.215305 0 0)
(-0.215312 0 0)
(-0.215318 0 0)
(-0.215323 0 0)
(-0.215332 0 0)
(-0.215322 0 0)
(-0.215355 0 0)
(-0.215321 0 0)
(-0.215331 0 0)
(-0.215359 0 0)
(-0.215326 0 0)
(-0.215345 0 0)
(-0.215335 0 0)
(-0.215335 0 0)
(-0.215331 0 0)
(-0.21533 0 0)
(-0.215316 0 0)
(-0.215359 0 0)
(-0.215174 0 0)
(-0.215732 0 0)
(-0.213106 0 0)
(-0.219063 0 0)
(-0.20841 0 0)
(-0.222437 0 0)
(-0.210688 0 0)
(-0.214959 0 0)
)
;

boundaryField
{
    inlet
    {
        type            fixedValue;
        value           uniform (50 0 0);
    }
    backWall
    {
        type            zeroGradient;
    }
    sides
    {
        type            empty;
    }
}


// ************************************************************************* //
