/*--------------------------------*- C++ -*----------------------------------*\
| =========                 |                                                 |
| \\      /  F ield         | OpenFOAM: The Open Source CFD Toolbox           |
|  \\    /   O peration     | Version:  3.0.x                                 |
|   \\  /    A nd           | Web:      www.OpenFOAM.org                      |
|    \\/     M anipulation  |                                                 |
\*---------------------------------------------------------------------------*/
FoamFile
{
    version     2.0;
    format      ascii;
    class       volScalarField;
    location    "0.2";
    object      rho;
}
// * * * * * * * * * * * * * * * * * * * * * * * * * * * * * * * * * * * * * //

dimensions      [1 -3 0 0 0 0 0];

internalField   nonuniform List<scalar> 
6900
(
50.8017
50.8017
50.8018
50.8019
50.802
50.802
50.802
50.802
50.802
50.8019
50.8018
50.8016
50.8014
50.801
50.8007
50.8003
50.7999
50.7995
50.7992
50.799
50.7988
50.7985
50.7982
50.7979
50.7975
50.797
50.7966
50.7961
50.7957
50.7952
50.7947
50.7942
50.7938
50.7933
50.7928
50.7923
50.7918
50.7913
50.7908
50.7903
50.7898
50.7893
50.7888
50.7883
50.7878
50.7873
50.7868
50.7863
50.7857
50.7852
50.7847
50.7842
50.7837
50.7831
50.7826
50.7821
50.7815
50.781
50.7804
50.7799
50.7794
50.7788
50.7783
50.7777
50.7772
50.7766
50.7761
50.7755
50.775
50.7745
50.774
50.7735
50.773
50.7725
50.772
50.7716
50.7712
50.7708
50.7705
50.7702
50.7699
50.7697
50.7695
50.7693
50.7692
50.7691
50.769
50.769
50.769
50.7691
50.7692
50.7693
50.7695
50.7696
50.7698
50.77
50.7702
50.7704
50.7706
50.7708
50.771
50.7712
50.7714
50.7715
50.7716
50.7717
50.7718
50.7718
50.7719
50.7719
50.7718
50.7718
50.7717
50.7716
50.7715
50.7714
50.7713
50.7712
50.7711
50.771
50.7709
50.7708
50.7707
50.7707
50.7707
50.7707
50.7707
50.7707
50.7708
50.7709
50.771
50.7711
50.7712
50.7713
50.7715
50.7716
50.7717
50.7718
50.7719
50.772
50.772
50.772
50.772
50.772
50.7719
50.7718
50.7716
50.7714
50.7712
50.7709
50.7706
50.7703
50.7699
50.7695
50.7691
50.7686
50.7682
50.7677
50.7672
50.7667
50.7662
50.7657
50.7652
50.7647
50.7642
50.7638
50.7633
50.7629
50.7625
50.7621
50.7617
50.7613
50.7609
50.7605
50.7601
50.7597
50.7592
50.7588
50.7583
50.7579
50.7574
50.7569
50.7565
50.756
50.7556
50.7551
50.7547
50.7543
50.7539
50.7535
50.7531
50.7527
50.7523
50.752
50.7516
50.7513
50.7511
50.7508
50.751
50.7482
50.8017
50.8018
50.8019
50.802
50.802
50.8021
50.8021
50.8021
50.802
50.802
50.8019
50.8017
50.8014
50.8011
50.8008
50.8004
50.8
50.7996
50.7993
50.7991
50.7989
50.7986
50.7983
50.7979
50.7975
50.7971
50.7967
50.7962
50.7957
50.7953
50.7948
50.7943
50.7938
50.7933
50.7929
50.7924
50.7919
50.7914
50.7909
50.7904
50.7899
50.7894
50.7889
50.7884
50.7879
50.7874
50.7868
50.7863
50.7858
50.7853
50.7848
50.7842
50.7837
50.7832
50.7827
50.7821
50.7816
50.7811
50.7805
50.78
50.7794
50.7789
50.7783
50.7778
50.7772
50.7767
50.7761
50.7756
50.7751
50.7745
50.774
50.7735
50.773
50.7726
50.7721
50.7717
50.7713
50.7709
50.7706
50.7702
50.77
50.7697
50.7695
50.7694
50.7692
50.7691
50.7691
50.7691
50.7691
50.7692
50.7693
50.7694
50.7695
50.7697
50.7699
50.7701
50.7703
50.7705
50.7707
50.7709
50.7711
50.7713
50.7714
50.7716
50.7717
50.7718
50.7719
50.7719
50.7719
50.7719
50.7719
50.7718
50.7718
50.7717
50.7716
50.7715
50.7714
50.7713
50.7712
50.7711
50.771
50.7709
50.7708
50.7708
50.7707
50.7707
50.7707
50.7708
50.7708
50.7709
50.771
50.7711
50.7713
50.7714
50.7715
50.7716
50.7718
50.7719
50.772
50.772
50.7721
50.7721
50.7721
50.772
50.7719
50.7718
50.7717
50.7715
50.7712
50.771
50.7707
50.7703
50.77
50.7696
50.7691
50.7687
50.7682
50.7677
50.7672
50.7667
50.7662
50.7657
50.7652
50.7648
50.7643
50.7638
50.7634
50.763
50.7626
50.7622
50.7618
50.7614
50.761
50.7606
50.7602
50.7597
50.7593
50.7588
50.7584
50.7579
50.7574
50.757
50.7565
50.7561
50.7556
50.7552
50.7548
50.7543
50.754
50.7536
50.7532
50.7528
50.7524
50.752
50.7517
50.7514
50.7511
50.7508
50.751
50.7486
50.8017
50.8018
50.8019
50.8019
50.802
50.8021
50.8021
50.8021
50.802
50.802
50.8019
50.8017
50.8014
50.8011
50.8008
50.8004
50.8
50.7996
50.7993
50.7991
50.7989
50.7986
50.7983
50.7979
50.7975
50.7971
50.7967
50.7962
50.7957
50.7953
50.7948
50.7943
50.7938
50.7933
50.7929
50.7924
50.7919
50.7914
50.7909
50.7904
50.7899
50.7894
50.7889
50.7884
50.7879
50.7874
50.7868
50.7863
50.7858
50.7853
50.7848
50.7842
50.7837
50.7832
50.7827
50.7821
50.7816
50.7811
50.7805
50.78
50.7794
50.7789
50.7783
50.7778
50.7772
50.7767
50.7761
50.7756
50.7751
50.7745
50.774
50.7735
50.773
50.7726
50.7721
50.7717
50.7713
50.7709
50.7706
50.7702
50.77
50.7697
50.7695
50.7694
50.7692
50.7691
50.7691
50.7691
50.7691
50.7692
50.7693
50.7694
50.7695
50.7697
50.7699
50.7701
50.7703
50.7705
50.7707
50.7709
50.7711
50.7713
50.7714
50.7716
50.7717
50.7718
50.7719
50.7719
50.7719
50.7719
50.7719
50.7718
50.7718
50.7717
50.7716
50.7715
50.7714
50.7713
50.7712
50.7711
50.771
50.7709
50.7708
50.7708
50.7707
50.7707
50.7707
50.7708
50.7708
50.7709
50.771
50.7711
50.7713
50.7714
50.7715
50.7716
50.7718
50.7719
50.772
50.772
50.7721
50.7721
50.7721
50.772
50.7719
50.7718
50.7717
50.7715
50.7712
50.771
50.7707
50.7703
50.77
50.7696
50.7691
50.7687
50.7682
50.7677
50.7672
50.7667
50.7662
50.7657
50.7652
50.7648
50.7643
50.7638
50.7634
50.763
50.7626
50.7622
50.7618
50.7614
50.761
50.7606
50.7602
50.7597
50.7593
50.7588
50.7584
50.7579
50.7574
50.757
50.7565
50.7561
50.7556
50.7552
50.7548
50.7543
50.7539
50.7535
50.7532
50.7528
50.7524
50.752
50.7517
50.7514
50.7511
50.7509
50.7507
50.7505
50.8017
50.8018
50.8019
50.802
50.802
50.8021
50.8021
50.8021
50.802
50.802
50.8019
50.8017
50.8014
50.8011
50.8008
50.8004
50.8
50.7996
50.7993
50.7991
50.7989
50.7986
50.7983
50.7979
50.7975
50.7971
50.7967
50.7962
50.7957
50.7953
50.7948
50.7943
50.7938
50.7933
50.7929
50.7924
50.7919
50.7914
50.7909
50.7904
50.7899
50.7894
50.7889
50.7884
50.7879
50.7874
50.7868
50.7863
50.7858
50.7853
50.7848
50.7842
50.7837
50.7832
50.7827
50.7821
50.7816
50.7811
50.7805
50.78
50.7794
50.7789
50.7783
50.7778
50.7772
50.7767
50.7761
50.7756
50.7751
50.7745
50.774
50.7735
50.773
50.7726
50.7721
50.7717
50.7713
50.7709
50.7706
50.7702
50.77
50.7697
50.7695
50.7694
50.7692
50.7691
50.7691
50.7691
50.7691
50.7692
50.7693
50.7694
50.7695
50.7697
50.7699
50.7701
50.7703
50.7705
50.7707
50.7709
50.7711
50.7713
50.7714
50.7716
50.7717
50.7718
50.7719
50.7719
50.7719
50.7719
50.7719
50.7718
50.7718
50.7717
50.7716
50.7715
50.7714
50.7713
50.7712
50.7711
50.771
50.7709
50.7708
50.7708
50.7707
50.7707
50.7707
50.7708
50.7708
50.7709
50.771
50.7711
50.7713
50.7714
50.7715
50.7716
50.7718
50.7719
50.772
50.772
50.7721
50.7721
50.7721
50.772
50.7719
50.7718
50.7717
50.7715
50.7712
50.771
50.7707
50.7703
50.77
50.7696
50.7691
50.7687
50.7682
50.7677
50.7672
50.7667
50.7662
50.7657
50.7652
50.7648
50.7643
50.7638
50.7634
50.763
50.7626
50.7622
50.7618
50.7614
50.761
50.7606
50.7601
50.7597
50.7593
50.7588
50.7584
50.7579
50.7574
50.757
50.7565
50.7561
50.7556
50.7552
50.7548
50.7544
50.7539
50.7536
50.7532
50.7528
50.7524
50.752
50.7517
50.7514
50.7511
50.7509
50.7499
50.7555
50.8017
50.8017
50.8018
50.8019
50.802
50.802
50.802
50.802
50.802
50.8019
50.8018
50.8016
50.8014
50.801
50.8007
50.8003
50.7999
50.7995
50.7992
50.799
50.7988
50.7985
50.7982
50.7979
50.7975
50.797
50.7966
50.7961
50.7957
50.7952
50.7947
50.7942
50.7938
50.7933
50.7928
50.7923
50.7918
50.7913
50.7908
50.7903
50.7898
50.7893
50.7888
50.7883
50.7878
50.7873
50.7868
50.7863
50.7857
50.7852
50.7847
50.7842
50.7837
50.7831
50.7826
50.7821
50.7815
50.781
50.7804
50.7799
50.7794
50.7788
50.7783
50.7777
50.7772
50.7766
50.7761
50.7755
50.775
50.7745
50.774
50.7735
50.773
50.7725
50.772
50.7716
50.7712
50.7708
50.7705
50.7702
50.7699
50.7697
50.7695
50.7693
50.7692
50.7691
50.769
50.769
50.769
50.7691
50.7692
50.7693
50.7695
50.7696
50.7698
50.77
50.7702
50.7704
50.7706
50.7708
50.771
50.7712
50.7714
50.7715
50.7716
50.7717
50.7718
50.7718
50.7719
50.7719
50.7718
50.7718
50.7717
50.7716
50.7715
50.7714
50.7713
50.7712
50.7711
50.771
50.7709
50.7708
50.7707
50.7707
50.7707
50.7707
50.7707
50.7707
50.7708
50.7709
50.771
50.7711
50.7712
50.7713
50.7715
50.7716
50.7717
50.7718
50.7719
50.772
50.772
50.772
50.772
50.772
50.7719
50.7718
50.7716
50.7714
50.7712
50.7709
50.7706
50.7703
50.7699
50.7695
50.7691
50.7686
50.7682
50.7677
50.7672
50.7667
50.7662
50.7657
50.7652
50.7647
50.7642
50.7638
50.7633
50.7629
50.7625
50.7621
50.7617
50.7613
50.7609
50.7605
50.7601
50.7597
50.7592
50.7588
50.7583
50.7579
50.7574
50.7569
50.7564
50.756
50.7555
50.7551
50.7547
50.7543
50.7539
50.7535
50.7531
50.7527
50.7523
50.752
50.7516
50.7513
50.751
50.7509
50.7494
50.7607
50.7652
50.7715
50.7721
50.7703
50.7686
50.7668
50.765
50.7642
50.7657
50.7655
50.7608
50.751
50.7414
50.7341
50.7273
50.7214
50.7209
50.7297
50.7408
50.7388
50.7619
50.765
50.7648
50.7631
50.7614
50.7598
50.758
50.7573
50.7592
50.7588
50.7529
50.7423
50.7333
50.7264
50.72
50.7148
50.7145
50.7255
50.7344
50.729
50.7512
50.7511
50.7501
50.7481
50.7455
50.7422
50.7381
50.7332
50.7272
50.7209
50.7144
50.708
50.7007
50.6921
50.6826
50.6724
50.6611
50.6483
50.6361
50.6255
50.7302
50.7274
50.7282
50.7295
50.7284
50.7248
50.7199
50.7133
50.7077
50.7006
50.6944
50.6877
50.6816
50.6755
50.6699
50.6652
50.6612
50.6574
50.6548
50.6526
50.721
50.7096
50.7054
50.7046
50.7025
50.6978
50.6918
50.6841
50.677
50.6687
50.6612
50.6531
50.6457
50.6384
50.6322
50.626
50.6212
50.6167
50.6133
50.6116
50.6627
50.6366
50.6478
50.6513
50.6441
50.6405
50.6405
50.6407
50.6405
50.6399
50.6396
50.6395
50.6394
50.6392
50.639
50.6388
50.6387
50.6386
50.6385
50.6385
50.6386
50.6383
50.6379
50.6377
50.6376
50.6376
50.6376
50.6378
50.6385
50.6386
50.6379
50.6371
50.6368
50.6368
50.6369
50.637
50.6371
50.6373
50.6377
50.6378
50.637
50.6304
50.6083
50.5895
50.584
50.5862
50.6019
50.6295
50.6457
50.6522
50.6534
50.6527
50.65
50.6479
50.6466
50.6459
50.6455
50.6452
50.645
50.6449
50.6448
50.6447
50.6446
50.6445
50.6445
50.6444
50.6443
50.6442
50.6442
50.6441
50.644
50.6439
50.6438
50.6438
50.6437
50.6436
50.6435
50.6434
50.6433
50.6431
50.643
50.6429
50.6427
50.6425
50.6423
50.6421
50.6419
50.6416
50.6414
50.6411
50.6408
50.6405
50.6402
50.6399
50.6395
50.6392
50.6388
50.6385
50.6381
50.6377
50.6373
50.6369
50.6365
50.6361
50.6357
50.6353
50.6349
50.6345
50.6341
50.6338
50.6334
50.633
50.6326
50.6323
50.6319
50.6316
50.6312
50.6309
50.6305
50.6302
50.6299
50.6295
50.6292
50.6289
50.6285
50.6282
50.6278
50.6275
50.6271
50.6267
50.6263
50.6259
50.6255
50.625
50.6246
50.6241
50.6236
50.6231
50.6226
50.6221
50.6216
50.621
50.6205
50.6199
50.6193
50.6187
50.6182
50.6176
50.617
50.6164
50.6159
50.6153
50.6147
50.6142
50.6136
50.6131
50.6126
50.6121
50.6116
50.6111
50.6107
50.6103
50.6099
50.6095
50.6091
50.6087
50.6084
50.6081
50.6078
50.6074
50.6071
50.6068
50.6065
50.6061
50.6058
50.6054
50.605
50.6045
50.6041
50.6036
50.6031
50.6025
50.6019
50.6013
50.6007
50.6001
50.5994
50.5987
50.5981
50.5974
50.5967
50.596
50.5953
50.5946
50.5939
50.5933
50.5925
50.592
50.5901
50.5975
50.6578
50.636
50.6475
50.6503
50.6432
50.6397
50.6394
50.6395
50.6392
50.6388
50.6385
50.6384
50.6383
50.6381
50.6379
50.6377
50.6375
50.6374
50.6373
50.6373
50.6372
50.6369
50.6365
50.6363
50.6362
50.6362
50.6362
50.6362
50.6365
50.6365
50.6358
50.6352
50.6351
50.6351
50.6352
50.6354
50.6355
50.6358
50.6362
50.6363
50.635
50.6274
50.6147
50.608
50.6071
50.6097
50.621
50.6345
50.6423
50.6458
50.647
50.6471
50.6468
50.6462
50.6458
50.6455
50.6453
50.6452
50.645
50.6449
50.6448
50.6447
50.6447
50.6446
50.6445
50.6444
50.6444
50.6443
50.6442
50.6441
50.6441
50.644
50.6439
50.6438
50.6437
50.6436
50.6435
50.6434
50.6433
50.6432
50.6431
50.6429
50.6427
50.6426
50.6424
50.6422
50.6419
50.6417
50.6414
50.6412
50.6409
50.6406
50.6403
50.6399
50.6396
50.6392
50.6389
50.6385
50.6381
50.6378
50.6374
50.637
50.6366
50.6362
50.6358
50.6354
50.635
50.6346
50.6342
50.6338
50.6334
50.6331
50.6327
50.6323
50.632
50.6316
50.6313
50.6309
50.6306
50.6303
50.6299
50.6296
50.6293
50.6289
50.6286
50.6282
50.6279
50.6275
50.6272
50.6268
50.6264
50.626
50.6255
50.6251
50.6246
50.6242
50.6237
50.6232
50.6227
50.6221
50.6216
50.6211
50.6205
50.62
50.6194
50.6188
50.6182
50.6177
50.6171
50.6165
50.6159
50.6154
50.6148
50.6142
50.6137
50.6131
50.6126
50.6121
50.6116
50.6112
50.6107
50.6103
50.6099
50.6095
50.6092
50.6088
50.6085
50.6081
50.6078
50.6075
50.6072
50.6069
50.6065
50.6062
50.6058
50.6054
50.605
50.6046
50.6041
50.6036
50.6031
50.6026
50.602
50.6014
50.6008
50.6001
50.5995
50.5988
50.5981
50.5974
50.5968
50.5961
50.5954
50.5947
50.594
50.5933
50.5926
50.592
50.5905
50.5932
50.6059
50.6171
50.6239
50.6243
50.6232
50.6228
50.6228
50.6229
50.6228
50.6228
50.6227
50.6225
50.6223
50.6222
50.6219
50.6216
50.6213
50.621
50.6207
50.6205
50.6203
50.62
50.6197
50.6194
50.6192
50.619
50.6188
50.6187
50.6187
50.6193
50.6221
50.6266
50.6304
50.6332
50.6352
50.6366
50.6374
50.6379
50.6384
50.6388
50.6391
50.6395
50.6401
50.6408
50.6419
50.6429
50.6437
50.6442
50.6445
50.6447
50.6448
50.6449
50.6449
50.6449
50.6449
50.6449
50.6449
50.6449
50.6448
50.6448
50.6447
50.6447
50.6446
50.6446
50.6445
50.6444
50.6444
50.6443
50.6442
50.6441
50.6441
50.644
50.6439
50.6438
50.6437
50.6436
50.6435
50.6434
50.6433
50.6432
50.6431
50.6429
50.6427
50.6426
50.6424
50.6422
50.6419
50.6417
50.6414
50.6412
50.6409
50.6406
50.6403
50.6399
50.6396
50.6392
50.6389
50.6385
50.6381
50.6378
50.6374
50.637
50.6366
50.6362
50.6358
50.6354
50.635
50.6346
50.6342
50.6338
50.6334
50.6331
50.6327
50.6323
50.632
50.6316
50.6313
50.6309
50.6306
50.6303
50.6299
50.6296
50.6293
50.6289
50.6286
50.6282
50.6279
50.6275
50.6272
50.6268
50.6264
50.626
50.6255
50.6251
50.6246
50.6242
50.6237
50.6232
50.6227
50.6221
50.6216
50.6211
50.6205
50.62
50.6194
50.6188
50.6182
50.6177
50.6171
50.6165
50.6159
50.6154
50.6148
50.6142
50.6137
50.6131
50.6126
50.6121
50.6116
50.6112
50.6107
50.6103
50.6099
50.6095
50.6092
50.6088
50.6085
50.6081
50.6078
50.6075
50.6072
50.6069
50.6065
50.6062
50.6058
50.6054
50.605
50.6046
50.6041
50.6036
50.6031
50.6026
50.602
50.6014
50.6008
50.6001
50.5995
50.5988
50.5981
50.5974
50.5968
50.5961
50.5954
50.5947
50.594
50.5933
50.5926
50.5919
50.5913
50.5906
50.6445
50.6429
50.6422
50.641
50.64
50.6396
50.6395
50.6394
50.6393
50.6391
50.639
50.6389
50.6387
50.6385
50.6384
50.6383
50.6382
50.6381
50.638
50.6379
50.6378
50.6376
50.6376
50.6375
50.6375
50.6375
50.6375
50.6375
50.6373
50.6369
50.6368
50.6366
50.6365
50.6365
50.6365
50.636
50.6354
50.6352
50.6353
50.6352
50.6337
50.6306
50.6288
50.6287
50.6294
50.6319
50.6374
50.6417
50.6443
50.6456
50.646
50.6461
50.646
50.6458
50.6455
50.6453
50.6452
50.6451
50.645
50.6449
50.6448
50.6447
50.6447
50.6446
50.6445
50.6444
50.6444
50.6443
50.6442
50.6441
50.6441
50.644
50.6439
50.6438
50.6437
50.6436
50.6435
50.6434
50.6433
50.6432
50.6431
50.6429
50.6427
50.6426
50.6424
50.6422
50.6419
50.6417
50.6414
50.6412
50.6409
50.6406
50.6403
50.6399
50.6396
50.6392
50.6389
50.6385
50.6381
50.6378
50.6374
50.637
50.6366
50.6362
50.6358
50.6354
50.635
50.6346
50.6342
50.6338
50.6334
50.6331
50.6327
50.6323
50.632
50.6316
50.6313
50.6309
50.6306
50.6303
50.6299
50.6296
50.6293
50.6289
50.6286
50.6282
50.6279
50.6275
50.6272
50.6268
50.6264
50.626
50.6255
50.6251
50.6246
50.6242
50.6237
50.6232
50.6227
50.6221
50.6216
50.6211
50.6205
50.62
50.6194
50.6188
50.6182
50.6177
50.6171
50.6165
50.6159
50.6154
50.6148
50.6142
50.6137
50.6131
50.6126
50.6121
50.6116
50.6112
50.6107
50.6103
50.6099
50.6095
50.6092
50.6088
50.6085
50.6081
50.6078
50.6075
50.6072
50.6069
50.6065
50.6062
50.6058
50.6054
50.605
50.6046
50.6041
50.6036
50.6031
50.6026
50.602
50.6014
50.6008
50.6001
50.5995
50.5988
50.5981
50.5974
50.5968
50.5961
50.5954
50.5947
50.594
50.5933
50.5927
50.592
50.5917
50.59
50.6303
50.6342
50.6344
50.6334
50.6323
50.632
50.6319
50.6318
50.6317
50.6315
50.6314
50.6312
50.6311
50.631
50.6309
50.6308
50.6307
50.6306
50.6305
50.6304
50.6303
50.6302
50.6301
50.6301
50.63
50.63
50.6299
50.6297
50.6294
50.6292
50.6291
50.629
50.6289
50.6284
50.6281
50.6283
50.6288
50.6293
50.6296
50.6277
50.6173
50.6025
50.595
50.5935
50.5951
50.603
50.6167
50.627
50.6341
50.6386
50.6414
50.643
50.6439
50.6444
50.6447
50.6448
50.6448
50.6448
50.6448
50.6447
50.6447
50.6446
50.6446
50.6445
50.6444
50.6444
50.6443
50.6442
50.6442
50.6441
50.644
50.6439
50.6438
50.6438
50.6437
50.6436
50.6435
50.6434
50.6433
50.6431
50.643
50.6429
50.6427
50.6425
50.6423
50.6421
50.6419
50.6416
50.6414
50.6411
50.6408
50.6405
50.6402
50.6399
50.6395
50.6392
50.6388
50.6385
50.6381
50.6377
50.6373
50.6369
50.6365
50.6361
50.6357
50.6353
50.6349
50.6345
50.6341
50.6338
50.6334
50.633
50.6326
50.6323
50.6319
50.6316
50.6312
50.6309
50.6305
50.6302
50.6299
50.6295
50.6292
50.6289
50.6285
50.6282
50.6278
50.6275
50.6271
50.6267
50.6263
50.6259
50.6255
50.625
50.6246
50.6241
50.6236
50.6231
50.6226
50.6221
50.6216
50.621
50.6205
50.6199
50.6193
50.6187
50.6182
50.6176
50.617
50.6164
50.6159
50.6153
50.6147
50.6142
50.6136
50.6131
50.6126
50.6121
50.6116
50.6111
50.6107
50.6103
50.6099
50.6095
50.6091
50.6087
50.6084
50.6081
50.6078
50.6074
50.6071
50.6068
50.6065
50.6061
50.6058
50.6054
50.605
50.6045
50.6041
50.6036
50.6031
50.6025
50.6019
50.6013
50.6007
50.6001
50.5994
50.5987
50.5981
50.5974
50.5967
50.596
50.5953
50.5946
50.594
50.5933
50.5926
50.5919
50.5916
50.5897
50.5628
50.5507
50.5462
50.5451
50.5428
50.5379
50.5314
50.5246
50.5169
50.5094
50.5016
50.4938
50.4867
50.4796
50.4734
50.4673
50.4622
50.4572
50.4537
50.4518
50.5711
50.568
50.5684
50.5693
50.568
50.5643
50.5585
50.5534
50.5464
50.5407
50.5339
50.5275
50.5211
50.5157
50.5106
50.5055
50.5012
50.4972
50.4941
50.4917
50.5908
50.5906
50.5895
50.5874
50.5848
50.5814
50.5773
50.5722
50.567
50.5612
50.5551
50.5478
50.5394
50.5303
50.5203
50.5088
50.4976
50.4875
50.4792
50.471
50.6008
50.6038
50.6036
50.6019
50.6005
50.5992
50.5986
50.5985
50.5962
50.5902
50.5825
50.5764
50.5713
50.5671
50.5676
50.5786
50.5868
50.5852
50.5728
50.5524
50.604
50.6102
50.6107
50.6089
50.6073
50.606
50.6053
50.605
50.603
50.5976
50.5899
50.5834
50.578
50.5735
50.5738
50.5835
50.5928
50.5939
50.5851
50.5664
50.4725
50.4767
50.4754
50.4737
50.4726
50.4718
50.4713
50.4708
50.4705
50.4703
50.47
50.4698
50.4696
50.4695
50.4694
50.4693
50.4692
50.4691
50.4691
50.469
50.4689
50.4689
50.4689
50.4689
50.4689
50.4688
50.4686
50.4684
50.4682
50.4681
50.4681
50.4681
50.4681
50.4678
50.4674
50.4673
50.4676
50.4682
50.4687
50.4688
50.4661
50.4539
50.44
50.4335
50.4326
50.4347
50.4438
50.4569
50.4666
50.4731
50.4772
50.4797
50.4812
50.482
50.4824
50.4826
50.4827
50.4827
50.4827
50.4827
50.4827
50.4828
50.4828
50.4829
50.4829
50.483
50.4831
50.4832
50.4834
50.4835
50.4836
50.4837
50.4838
50.4839
50.484
50.4841
50.4841
50.4842
50.4842
50.4842
50.4841
50.4841
50.484
50.484
50.4839
50.4838
50.4837
50.4836
50.4835
50.4834
50.4833
50.4832
50.4831
50.4829
50.4828
50.4827
50.4825
50.4824
50.4812
50.4886
50.4866
50.4851
50.4832
50.4813
50.4801
50.4792
50.4787
50.4782
50.4778
50.4777
50.4774
50.4772
50.477
50.4768
50.4767
50.4766
50.4765
50.4764
50.4764
50.4763
50.4762
50.4762
50.4761
50.4762
50.4762
50.4761
50.4761
50.476
50.4757
50.4756
50.4755
50.4755
50.4755
50.4754
50.4754
50.4753
50.4747
50.4743
50.4743
50.4744
50.4742
50.4724
50.4694
50.4678
50.4678
50.4686
50.4714
50.4766
50.4805
50.4828
50.4838
50.4841
50.4841
50.484
50.4837
50.4834
50.4832
50.4831
50.483
50.4829
50.4829
50.4829
50.4829
50.4829
50.483
50.4831
50.4832
50.4833
50.4834
50.4835
50.4837
50.4838
50.4839
50.484
50.4841
50.4841
50.4842
50.4842
50.4842
50.4842
50.4842
50.4842
50.4841
50.484
50.484
50.4839
50.4838
50.4837
50.4836
50.4835
50.4833
50.4832
50.4831
50.483
50.4829
50.4827
50.4826
50.4824
50.4815
50.4845
50.45
50.4591
50.4645
50.4648
50.4637
50.4629
50.4625
50.4622
50.4619
50.4616
50.4614
50.4612
50.4609
50.4607
50.4605
50.4603
50.4601
50.4599
50.4597
50.4595
50.4593
50.4592
50.4591
50.4589
50.4586
50.4583
50.458
50.4578
50.4577
50.4579
50.4588
50.462
50.4662
50.4696
50.4722
50.474
50.4752
50.476
50.4765
50.477
50.4774
50.4777
50.4782
50.4788
50.4796
50.4806
50.4815
50.4822
50.4826
50.4828
50.4829
50.4829
50.4829
50.4829
50.4828
50.4828
50.4828
50.4828
50.4828
50.4828
50.4828
50.4828
50.4829
50.4829
50.483
50.4831
50.4832
50.4833
50.4834
50.4835
50.4837
50.4838
50.4839
50.484
50.4841
50.4841
50.4842
50.4842
50.4842
50.4842
50.4842
50.4842
50.4841
50.484
50.484
50.4839
50.4838
50.4837
50.4836
50.4835
50.4833
50.4832
50.4831
50.483
50.4829
50.4827
50.4826
50.4825
50.4823
50.4821
50.4858
50.477
50.4931
50.4884
50.4812
50.4794
50.479
50.4785
50.4776
50.4771
50.4769
50.4767
50.4765
50.4762
50.476
50.4759
50.4758
50.4758
50.4757
50.4758
50.4755
50.4752
50.475
50.475
50.4749
50.475
50.475
50.4753
50.4753
50.4748
50.4743
50.4742
50.4742
50.4743
50.4744
50.4743
50.4742
50.4742
50.4745
50.4748
50.4747
50.4729
50.4644
50.4526
50.4469
50.4464
50.4494
50.4611
50.4739
50.4811
50.4843
50.4852
50.4853
50.4849
50.4842
50.4837
50.4834
50.4832
50.4831
50.483
50.4829
50.4829
50.4829
50.483
50.483
50.4831
50.4832
50.4833
50.4834
50.4835
50.4837
50.4838
50.4839
50.484
50.4841
50.4841
50.4842
50.4842
50.4842
50.4842
50.4842
50.4842
50.4841
50.484
50.484
50.4839
50.4838
50.4837
50.4836
50.4835
50.4833
50.4832
50.4831
50.483
50.4829
50.4827
50.4826
50.4825
50.4828
50.4817
50.4904
50.4766
50.4936
50.489
50.4819
50.4804
50.48
50.4797
50.4787
50.4781
50.4781
50.4779
50.4776
50.4773
50.4771
50.477
50.477
50.4769
50.4769
50.4771
50.4769
50.4766
50.4764
50.4763
50.4763
50.4763
50.4765
50.4771
50.4773
50.4767
50.4761
50.4757
50.4757
50.4758
50.4759
50.476
50.476
50.476
50.4762
50.4764
50.4765
50.4755
50.4684
50.4468
50.4298
50.425
50.4272
50.4426
50.4687
50.484
50.4901
50.4912
50.4904
50.4879
50.4858
50.4846
50.4838
50.4834
50.4831
50.483
50.4829
50.4829
50.4829
50.4829
50.483
50.483
50.4831
50.4832
50.4834
50.4835
50.4836
50.4837
50.4838
50.4839
50.484
50.4841
50.4841
50.4842
50.4842
50.4842
50.4841
50.4841
50.484
50.484
50.4839
50.4838
50.4837
50.4836
50.4835
50.4834
50.4833
50.4832
50.4831
50.4829
50.4828
50.4827
50.4826
50.4825
50.4827
50.4814
50.4549
50.4429
50.4385
50.4375
50.4352
50.4304
50.424
50.4174
50.4098
50.4024
50.3947
50.387
50.3799
50.3729
50.3668
50.3608
50.3558
50.3509
50.3474
50.3456
50.4632
50.4602
50.4606
50.4616
50.4604
50.4569
50.4511
50.4461
50.4393
50.4337
50.427
50.4207
50.4143
50.4089
50.404
50.3991
50.3948
50.3909
50.3879
50.3855
50.4827
50.4826
50.4816
50.4797
50.4771
50.4738
50.4699
50.4649
50.4597
50.454
50.4481
50.441
50.4328
50.4239
50.4141
50.4026
50.3913
50.3811
50.3726
50.3646
50.4925
50.4957
50.4956
50.4941
50.4927
50.4916
50.491
50.4912
50.4892
50.4835
50.4756
50.4693
50.464
50.4592
50.4578
50.4694
50.4791
50.479
50.468
50.4484
50.4957
50.502
50.5027
50.5011
50.4996
50.4984
50.4977
50.4976
50.496
50.4909
50.4831
50.4764
50.4708
50.4656
50.4641
50.4744
50.4847
50.4873
50.4798
50.4622
50.3663
50.3708
50.3703
50.3689
50.3681
50.3675
50.3672
50.3669
50.3668
50.3667
50.3665
50.3664
50.3663
50.3662
50.3661
50.366
50.3659
50.3658
50.3657
50.3656
50.3656
50.3655
50.3655
50.3654
50.3654
50.3653
50.3652
50.365
50.3647
50.3646
50.3646
50.3645
50.3641
50.3637
50.3637
50.3641
50.3647
50.3652
50.365
50.3606
50.3463
50.3348
50.3305
50.3306
50.3343
50.346
50.3584
50.367
50.3727
50.3764
50.3785
50.3798
50.3805
50.3809
50.3811
50.3812
50.3812
50.3812
50.3812
50.3812
50.3811
50.3811
50.3811
50.381
50.381
50.3809
50.3809
50.3808
50.3808
50.3807
50.3806
50.3806
50.3805
50.3804
50.3803
50.3802
50.3802
50.3801
50.38
50.3799
50.3798
50.3797
50.3796
50.3795
50.3794
50.3793
50.3792
50.3791
50.3791
50.379
50.379
50.3789
50.3789
50.3789
50.3789
50.3788
50.3789
50.3789
50.3789
50.3789
50.379
50.379
50.3791
50.3792
50.3792
50.3793
50.3794
50.3795
50.3796
50.3797
50.3798
50.3798
50.3799
50.38
50.3801
50.3801
50.3802
50.3802
50.3803
50.3803
50.3803
50.3803
50.3803
50.3802
50.3802
50.3801
50.38
50.3799
50.3798
50.3797
50.3795
50.3794
50.3792
50.3791
50.3789
50.3788
50.3786
50.3784
50.3783
50.3782
50.378
50.3779
50.3778
50.3777
50.3776
50.3775
50.3775
50.3775
50.3774
50.3775
50.3775
50.3775
50.3776
50.3777
50.3778
50.3779
50.378
50.3782
50.3784
50.3785
50.3787
50.3789
50.3791
50.3793
50.3795
50.3797
50.3798
50.38
50.3801
50.3802
50.3802
50.3803
50.3803
50.3802
50.3802
50.3801
50.38
50.3798
50.3797
50.3795
50.3793
50.3791
50.3789
50.3787
50.3785
50.3783
50.3781
50.3778
50.3776
50.3774
50.3772
50.377
50.3768
50.3767
50.3765
50.3763
50.3762
50.3761
50.3765
50.3751
50.3802
50.3793
50.378
50.3765
50.3756
50.3749
50.3746
50.3743
50.3742
50.3741
50.374
50.3738
50.3737
50.3736
50.3735
50.3734
50.3733
50.3732
50.3731
50.373
50.3729
50.3728
50.3728
50.3727
50.3727
50.3727
50.3726
50.3725
50.3722
50.372
50.3719
50.3718
50.3719
50.3719
50.3717
50.3712
50.3708
50.3709
50.371
50.3706
50.3682
50.3658
50.3652
50.3656
50.367
50.3712
50.3762
50.3795
50.3813
50.3821
50.3823
50.3823
50.3822
50.3819
50.3818
50.3816
50.3815
50.3814
50.3814
50.3813
50.3812
50.3812
50.3811
50.3811
50.381
50.381
50.3809
50.3809
50.3808
50.3808
50.3807
50.3806
50.3805
50.3805
50.3804
50.3803
50.3802
50.3801
50.38
50.3799
50.3798
50.3797
50.3796
50.3795
50.3794
50.3793
50.3793
50.3792
50.3791
50.3791
50.379
50.379
50.3789
50.3789
50.3789
50.3789
50.3789
50.3789
50.379
50.379
50.379
50.3791
50.3792
50.3792
50.3793
50.3794
50.3795
50.3795
50.3796
50.3797
50.3798
50.3799
50.38
50.3801
50.3801
50.3802
50.3803
50.3803
50.3803
50.3804
50.3804
50.3804
50.3803
50.3803
50.3802
50.3802
50.3801
50.38
50.3799
50.3797
50.3796
50.3794
50.3793
50.3791
50.379
50.3788
50.3787
50.3785
50.3784
50.3782
50.3781
50.378
50.3779
50.3778
50.3777
50.3776
50.3775
50.3775
50.3775
50.3775
50.3775
50.3776
50.3776
50.3777
50.3778
50.378
50.3781
50.3783
50.3784
50.3786
50.3788
50.379
50.3792
50.3794
50.3796
50.3797
50.3799
50.38
50.3802
50.3802
50.3803
50.3803
50.3803
50.3803
50.3802
50.3802
50.38
50.3799
50.3797
50.3796
50.3794
50.3792
50.379
50.3787
50.3785
50.3783
50.3781
50.3779
50.3777
50.3775
50.3773
50.3771
50.3769
50.3767
50.3765
50.3764
50.3763
50.3762
50.3765
50.3753
50.3435
50.3537
50.3595
50.3601
50.3592
50.3587
50.3585
50.3584
50.3583
50.3582
50.358
50.3579
50.3578
50.3576
50.3575
50.3574
50.3572
50.3569
50.3566
50.3564
50.3562
50.3559
50.3556
50.3552
50.3549
50.3546
50.3544
50.3542
50.3542
50.3551
50.3583
50.3625
50.366
50.3686
50.3705
50.3717
50.3726
50.3732
50.3738
50.3744
50.3749
50.3755
50.3762
50.3773
50.3784
50.3793
50.38
50.3805
50.3808
50.381
50.3811
50.3811
50.3812
50.3812
50.3812
50.3813
50.3813
50.3813
50.3812
50.3812
50.3812
50.3812
50.3811
50.3811
50.381
50.381
50.3809
50.3809
50.3808
50.3808
50.3807
50.3806
50.3805
50.3805
50.3804
50.3803
50.3802
50.3801
50.38
50.3799
50.3798
50.3797
50.3796
50.3795
50.3794
50.3793
50.3793
50.3792
50.3791
50.3791
50.379
50.379
50.3789
50.3789
50.3789
50.3789
50.3789
50.3789
50.379
50.379
50.379
50.3791
50.3792
50.3792
50.3793
50.3794
50.3795
50.3795
50.3796
50.3797
50.3798
50.3799
50.38
50.3801
50.3801
50.3802
50.3803
50.3803
50.3803
50.3804
50.3804
50.3804
50.3803
50.3803
50.3802
50.3802
50.3801
50.38
50.3799
50.3797
50.3796
50.3794
50.3793
50.3791
50.379
50.3788
50.3787
50.3785
50.3784
50.3782
50.3781
50.378
50.3779
50.3778
50.3777
50.3776
50.3775
50.3775
50.3775
50.3775
50.3775
50.3776
50.3776
50.3777
50.3778
50.378
50.3781
50.3783
50.3784
50.3786
50.3788
50.379
50.3792
50.3794
50.3796
50.3797
50.3799
50.38
50.3802
50.3802
50.3803
50.3803
50.3803
50.3803
50.3802
50.3802
50.38
50.3799
50.3797
50.3796
50.3794
50.3792
50.379
50.3787
50.3785
50.3783
50.3781
50.3779
50.3777
50.3775
50.3773
50.3771
50.3769
50.3767
50.3765
50.3764
50.3763
50.3761
50.3761
50.376
50.3791
50.371
50.3873
50.3832
50.3766
50.375
50.3748
50.3745
50.3739
50.3735
50.3735
50.3733
50.3732
50.373
50.3729
50.3728
50.3727
50.3726
50.3725
50.3723
50.3721
50.3719
50.3718
50.3717
50.3716
50.3715
50.3715
50.3716
50.3717
50.3712
50.3706
50.3704
50.3704
50.3705
50.3707
50.3707
50.371
50.3714
50.3717
50.3714
50.3682
50.3571
50.3475
50.3443
50.3452
50.351
50.3651
50.3754
50.3807
50.3829
50.3834
50.3833
50.3828
50.3823
50.382
50.3818
50.3816
50.3815
50.3814
50.3813
50.3813
50.3812
50.3811
50.3811
50.381
50.381
50.3809
50.3809
50.3808
50.3808
50.3807
50.3806
50.3805
50.3805
50.3804
50.3803
50.3802
50.3801
50.38
50.3799
50.3798
50.3797
50.3796
50.3795
50.3794
50.3793
50.3793
50.3792
50.3791
50.3791
50.379
50.379
50.3789
50.3789
50.3789
50.3789
50.3789
50.3789
50.379
50.379
50.379
50.3791
50.3792
50.3792
50.3793
50.3794
50.3795
50.3795
50.3796
50.3797
50.3798
50.3799
50.38
50.3801
50.3801
50.3802
50.3803
50.3803
50.3803
50.3804
50.3804
50.3804
50.3803
50.3803
50.3802
50.3802
50.3801
50.38
50.3799
50.3797
50.3796
50.3794
50.3793
50.3791
50.379
50.3788
50.3787
50.3785
50.3784
50.3782
50.3781
50.378
50.3779
50.3778
50.3777
50.3776
50.3775
50.3775
50.3775
50.3775
50.3775
50.3776
50.3776
50.3777
50.3778
50.378
50.3781
50.3783
50.3784
50.3786
50.3788
50.379
50.3792
50.3794
50.3796
50.3797
50.3799
50.38
50.3802
50.3802
50.3803
50.3803
50.3803
50.3803
50.3802
50.3801
50.38
50.3799
50.3797
50.3796
50.3794
50.3792
50.379
50.3788
50.3785
50.3783
50.3781
50.3779
50.3777
50.3775
50.3773
50.3771
50.3769
50.3767
50.3765
50.3764
50.3762
50.3761
50.3753
50.3787
50.3836
50.3707
50.3879
50.3837
50.3772
50.376
50.3758
50.3757
50.3749
50.3745
50.3746
50.3744
50.3743
50.3741
50.3739
50.3739
50.3738
50.3737
50.3736
50.3734
50.3733
50.3731
50.373
50.3729
50.3728
50.3728
50.3729
50.3735
50.3739
50.3733
50.3725
50.372
50.372
50.3722
50.3723
50.3723
50.3725
50.3728
50.3732
50.3732
50.371
50.3585
50.3361
50.3246
50.3234
50.3294
50.3524
50.3745
50.3854
50.3888
50.389
50.3875
50.385
50.3835
50.3826
50.382
50.3817
50.3815
50.3814
50.3813
50.3812
50.3812
50.3811
50.381
50.381
50.3809
50.3809
50.3808
50.3808
50.3807
50.3806
50.3806
50.3805
50.3804
50.3803
50.3802
50.3802
50.3801
50.38
50.3799
50.3798
50.3797
50.3796
50.3795
50.3794
50.3793
50.3792
50.3791
50.3791
50.379
50.379
50.3789
50.3789
50.3789
50.3789
50.3788
50.3789