/*--------------------------------*- C++ -*----------------------------------*\
| =========                 |                                                 |
| \\      /  F ield         | OpenFOAM: The Open Source CFD Toolbox           |
|  \\    /   O peration     | Version:  3.0.x                                 |
|   \\  /    A nd           | Web:      www.OpenFOAM.org                      |
|    \\/     M anipulation  |                                                 |
\*---------------------------------------------------------------------------*/
FoamFile
{
    version     2.0;
    format      ascii;
    class       volScalarField;
    location    "0.54";
    object      rho;
}
// * * * * * * * * * * * * * * * * * * * * * * * * * * * * * * * * * * * * * //

dimensions      [1 -3 0 0 0 0 0];

internalField   nonuniform List<scalar> 
6900
(
51.9119
51.9142
51.9177
51.9209
51.9239
51.9268
51.9295
51.932
51.9345
51.9371
51.9397
51.9423
51.9449
51.9477
51.9507
51.9537
51.9569
51.9602
51.9636
51.9671
51.9708
51.9746
51.9785
51.9825
51.9867
51.9909
51.9953
51.9998
52.0044
52.0091
52.0139
52.0189
52.024
52.0292
52.0345
52.0399
52.0455
52.0511
52.0569
52.0628
52.0689
52.075
52.0813
52.0877
52.0942
52.1008
52.1076
52.1146
52.1218
52.1291
52.1365
52.144
52.1515
52.1592
52.1669
52.1747
52.1827
52.1908
52.199
52.2074
52.2159
52.2245
52.2333
52.2422
52.2512
52.2602
52.2692
52.2783
52.2875
52.2967
52.306
52.3154
52.3249
52.3345
52.3442
52.354
52.3638
52.3737
52.3837
52.3937
52.4037
52.4139
52.424
52.4342
52.4445
52.4548
52.4651
52.4756
52.4861
52.4966
52.5072
52.5179
52.5286
52.5393
52.5501
52.561
52.5719
52.5828
52.5939
52.6049
52.616
52.6271
52.6383
52.6495
52.6608
52.6721
52.6834
52.6948
52.7062
52.7177
52.7291
52.7407
52.7522
52.7638
52.7754
52.787
52.7986
52.8103
52.822
52.8337
52.8454
52.8571
52.8689
52.8806
52.8924
52.9041
52.9159
52.9276
52.9394
52.9511
52.9628
52.9745
52.9862
52.9979
53.0095
53.0212
53.0328
53.0443
53.0559
53.0674
53.0789
53.0904
53.1019
53.1133
53.1247
53.136
53.1473
53.1586
53.1698
53.181
53.1922
53.2033
53.2144
53.2254
53.2364
53.2473
53.2583
53.2691
53.2799
53.2907
53.3014
53.3121
53.3227
53.3333
53.3438
53.3542
53.3646
53.375
53.3853
53.3955
53.4057
53.4158
53.4258
53.4358
53.4457
53.4556
53.4654
53.4751
53.4847
53.4943
53.5038
53.5132
53.5227
53.5319
53.5413
53.5502
53.5596
53.5682
53.5776
53.586
53.5953
53.6035
53.6128
53.6207
53.6298
53.6378
53.6463
53.6548
53.6625
53.6708
51.9121
51.9145
51.918
51.9212
51.9242
51.9271
51.9298
51.9323
51.9348
51.9374
51.9399
51.9425
51.9452
51.948
51.9509
51.9539
51.9571
51.9604
51.9638
51.9674
51.971
51.9748
51.9787
51.9828
51.9869
51.9911
51.9955
52
52.0046
52.0093
52.0142
52.0191
52.0242
52.0294
52.0347
52.0401
52.0457
52.0514
52.0571
52.0631
52.0691
52.0753
52.0815
52.0879
52.0944
52.101
52.1079
52.1149
52.122
52.1293
52.1367
52.1442
52.1517
52.1594
52.1671
52.1749
52.1829
52.191
52.1992
52.2076
52.2161
52.2247
52.2335
52.2424
52.2513
52.2604
52.2694
52.2785
52.2877
52.2969
52.3062
52.3156
52.3251
52.3347
52.3443
52.3541
52.364
52.3739
52.3839
52.3939
52.4039
52.414
52.4242
52.4344
52.4446
52.4549
52.4653
52.4757
52.4862
52.4968
52.5074
52.518
52.5287
52.5395
52.5503
52.5611
52.5721
52.583
52.594
52.6051
52.6162
52.6273
52.6385
52.6497
52.661
52.6723
52.6836
52.695
52.7064
52.7178
52.7293
52.7408
52.7524
52.7639
52.7755
52.7872
52.7988
52.8105
52.8222
52.8339
52.8456
52.8573
52.869
52.8808
52.8925
52.9043
52.916
52.9278
52.9395
52.9512
52.963
52.9747
52.9864
52.998
53.0097
53.0213
53.0329
53.0445
53.0561
53.0676
53.0791
53.0906
53.102
53.1134
53.1248
53.1362
53.1475
53.1587
53.17
53.1812
53.1923
53.2035
53.2145
53.2256
53.2366
53.2475
53.2584
53.2693
53.2801
53.2908
53.3016
53.3122
53.3229
53.3334
53.3439
53.3544
53.3648
53.3751
53.3854
53.3957
53.4058
53.416
53.426
53.436
53.4459
53.4557
53.4655
53.4752
53.4849
53.4945
53.504
53.5134
53.5228
53.532
53.5414
53.5504
53.5597
53.5684
53.5778
53.5861
53.5955
53.6036
53.6129
53.6208
53.63
53.6378
53.6468
53.6544
53.6632
53.6707
51.9121
51.9145
51.918
51.9212
51.9242
51.9271
51.9298
51.9323
51.9348
51.9373
51.9399
51.9425
51.9452
51.948
51.9509
51.9539
51.9571
51.9604
51.9638
51.9674
51.971
51.9748
51.9787
51.9827
51.9869
51.9911
51.9955
52
52.0046
52.0093
52.0142
52.0191
52.0242
52.0294
52.0347
52.0401
52.0457
52.0514
52.0571
52.063
52.0691
52.0752
52.0815
52.0879
52.0944
52.101
52.1078
52.1148
52.122
52.1293
52.1367
52.1442
52.1517
52.1594
52.1671
52.1749
52.1829
52.191
52.1992
52.2076
52.2161
52.2247
52.2335
52.2424
52.2513
52.2604
52.2694
52.2785
52.2877
52.2969
52.3062
52.3155
52.325
52.3346
52.3443
52.3541
52.364
52.3739
52.3839
52.3939
52.4039
52.414
52.4242
52.4344
52.4446
52.4549
52.4653
52.4757
52.4862
52.4968
52.5074
52.518
52.5287
52.5395
52.5503
52.5611
52.5721
52.583
52.594
52.6051
52.6162
52.6273
52.6385
52.6497
52.661
52.6723
52.6836
52.695
52.7064
52.7178
52.7293
52.7408
52.7524
52.7639
52.7755
52.7872
52.7988
52.8105
52.8222
52.8339
52.8456
52.8573
52.869
52.8808
52.8925
52.9043
52.916
52.9278
52.9395
52.9512
52.963
52.9747
52.9864
52.998
53.0097
53.0213
53.0329
53.0445
53.0561
53.0676
53.0791
53.0906
53.102
53.1134
53.1248
53.1362
53.1475
53.1587
53.17
53.1812
53.1923
53.2035
53.2145
53.2256
53.2366
53.2475
53.2584
53.2693
53.2801
53.2908
53.3016
53.3122
53.3229
53.3334
53.3439
53.3544
53.3648
53.3751
53.3854
53.3957
53.4058
53.416
53.426
53.436
53.4459
53.4557
53.4655
53.4752
53.4849
53.4945
53.504
53.5134
53.5228
53.5321
53.5414
53.5504
53.5596
53.5685
53.5775
53.5864
53.5952
53.6039
53.6127
53.621
53.6298
53.6381
53.6464
53.6547
53.663
53.671
51.9121
51.9145
51.918
51.9212
51.9242
51.9271
51.9298
51.9323
51.9348
51.9374
51.9399
51.9425
51.9452
51.948
51.9509
51.9539
51.9571
51.9604
51.9638
51.9674
51.971
51.9748
51.9787
51.9828
51.9869
51.9911
51.9955
52
52.0046
52.0093
52.0142
52.0191
52.0242
52.0294
52.0347
52.0401
52.0457
52.0514
52.0571
52.0631
52.0691
52.0753
52.0815
52.0879
52.0944
52.101
52.1079
52.1149
52.122
52.1293
52.1367
52.1442
52.1517
52.1594
52.1671
52.1749
52.1829
52.191
52.1992
52.2076
52.2161
52.2247
52.2335
52.2424
52.2513
52.2604
52.2694
52.2785
52.2877
52.2969
52.3062
52.3156
52.3251
52.3347
52.3443
52.3541
52.364
52.3739
52.3839
52.3939
52.4039
52.414
52.4242
52.4344
52.4446
52.4549
52.4653
52.4757
52.4862
52.4968
52.5074
52.518
52.5287
52.5395
52.5503
52.5611
52.5721
52.583
52.594
52.6051
52.6162
52.6273
52.6385
52.6497
52.661
52.6723
52.6836
52.695
52.7064
52.7178
52.7293
52.7408
52.7524
52.7639
52.7755
52.7872
52.7988
52.8105
52.8222
52.8339
52.8456
52.8573
52.869
52.8808
52.8925
52.9043
52.916
52.9278
52.9395
52.9512
52.963
52.9747
52.9864
52.998
53.0097
53.0213
53.0329
53.0445
53.0561
53.0676
53.0791
53.0906
53.102
53.1134
53.1248
53.1362
53.1475
53.1587
53.17
53.1812
53.1923
53.2035
53.2145
53.2256
53.2366
53.2475
53.2584
53.2693
53.2801
53.2908
53.3016
53.3122
53.3229
53.3334
53.3439
53.3544
53.3648
53.3751
53.3854
53.3957
53.4058
53.416
53.426
53.436
53.4459
53.4557
53.4655
53.4753
53.4849
53.4945
53.5039
53.5135
53.5227
53.5322
53.5412
53.5506
53.5594
53.5688
53.5773
53.5867
53.5949
53.6043
53.6122
53.6215
53.6293
53.6384
53.6461
53.655
53.663
53.6707
51.9119
51.9142
51.9177
51.9209
51.9239
51.9268
51.9295
51.932
51.9345
51.9371
51.9397
51.9423
51.9449
51.9477
51.9507
51.9537
51.9569
51.9602
51.9636
51.9671
51.9708
51.9746
51.9785
51.9825
51.9867
51.9909
51.9953
51.9998
52.0044
52.0091
52.0139
52.0189
52.024
52.0292
52.0345
52.0399
52.0455
52.0511
52.0569
52.0628
52.0689
52.075
52.0813
52.0877
52.0942
52.1008
52.1076
52.1146
52.1218
52.1291
52.1365
52.144
52.1515
52.1592
52.1669
52.1747
52.1827
52.1908
52.199
52.2074
52.2159
52.2245
52.2333
52.2422
52.2512
52.2602
52.2692
52.2783
52.2875
52.2967
52.306
52.3154
52.3249
52.3345
52.3442
52.354
52.3638
52.3737
52.3837
52.3937
52.4037
52.4139
52.424
52.4342
52.4445
52.4548
52.4651
52.4756
52.4861
52.4966
52.5072
52.5179
52.5286
52.5393
52.5501
52.561
52.5719
52.5828
52.5939
52.6049
52.616
52.6271
52.6383
52.6495
52.6608
52.6721
52.6834
52.6948
52.7062
52.7177
52.7291
52.7407
52.7522
52.7638
52.7754
52.787
52.7986
52.8103
52.822
52.8337
52.8454
52.8571
52.8689
52.8806
52.8924
52.9041
52.9159
52.9276
52.9394
52.9511
52.9628
52.9745
52.9862
52.9979
53.0095
53.0212
53.0328
53.0443
53.0559
53.0674
53.0789
53.0904
53.1019
53.1133
53.1247
53.136
53.1473
53.1586
53.1698
53.181
53.1922
53.2033
53.2144
53.2254
53.2364
53.2473
53.2583
53.2691
53.2799
53.2907
53.3014
53.3121
53.3227
53.3333
53.3438
53.3542
53.3646
53.375
53.3853
53.3955
53.4057
53.4158
53.4258
53.4358
53.4457
53.4556
53.4654
53.4751
53.4847
53.4943
53.5038
53.5133
53.5226
53.532
53.541
53.5505
53.5592
53.5686
53.5771
53.5865
53.5947
53.6041
53.6121
53.6213
53.6292
53.6383
53.646
53.6548
53.6631
53.67
53.676
53.678
53.6796
53.6811
53.6827
53.6844
53.686
53.6875
53.6885
53.689
53.6895
53.6898
53.6906
53.6925
53.6963
53.7005
53.7039
53.7059
53.7058
53.704
53.6757
53.6775
53.6792
53.6807
53.6822
53.684
53.6858
53.6873
53.6881
53.6887
53.6897
53.6904
53.6912
53.6931
53.6969
53.7008
53.7036
53.7051
53.7041
53.7017
53.6757
53.6772
53.6786
53.68
53.6813
53.6826
53.6838
53.6849
53.6861
53.6873
53.6882
53.6888
53.6895
53.6902
53.6901
53.6902
53.6906
53.6913
53.6912
53.6917
53.6764
53.6777
53.679
53.6803
53.6815
53.6826
53.6837
53.6848
53.6859
53.6869
53.6879
53.689
53.69
53.6911
53.692
53.6928
53.6935
53.6941
53.6948
53.6956
53.6751
53.6762
53.6774
53.6787
53.6799
53.681
53.6822
53.6832
53.6842
53.6852
53.6862
53.6873
53.6883
53.6893
53.6903
53.6913
53.6921
53.6929
53.6937
53.6946
53.6961
53.7049
53.7166
53.7186
53.7205
53.7273
53.7377
53.741
53.7425
53.7487
53.7603
53.7627
53.764
53.7692
53.7798
53.7905
53.7883
53.7892
53.7944
53.8014
53.8175
53.8205
53.8158
53.8184
53.8237
53.8307
53.8402
53.8408
53.8417
53.8457
53.8502
53.8546
53.859
53.8632
53.8674
53.8717
53.8761
53.8806
53.8859
53.8963
53.8965
53.8965
53.8998
53.9037
53.9074
53.9112
53.9149
53.9185
53.9222
53.9257
53.9293
53.9328
53.9362
53.9396
53.9429
53.9462
53.9495
53.9526
53.9557
53.9588
53.9618
53.9648
53.9677
53.9706
53.9734
53.9762
53.9789
53.9817
53.9843
53.987
53.9895
53.9921
53.9945
53.9969
53.9993
54.0016
54.0039
54.0061
54.0083
54.0105
54.0126
54.0146
54.0166
54.0185
54.0204
54.0223
54.0242
54.0262
54.0284
54.0306
54.033
54.0371
54.0425
54.041
54.0384
54.0391
54.0409
54.0426
54.0445
54.0464
54.0482
54.0494
54.0508
54.0527
54.0547
54.0564
54.0569
54.0573
54.0587
54.0606
54.0624
54.063
54.0594
54.0563
54.0569
54.059
54.0644
54.0705
54.0745
54.0765
54.0773
54.0773
54.0775
54.0779
54.0783
54.0787
54.0792
54.0797
54.0802
54.0807
54.0811
54.0816
54.082
54.0825
54.0829
54.0833
54.0837
54.084
54.0844
54.0847
54.0851
54.0854
54.0857
54.086
54.0864
54.0867
54.087
54.0872
54.0875
54.0878
54.0881
54.0884
54.0887
54.0889
54.0892
54.0895
54.0897
54.09
54.0902
54.0905
54.0907
54.091
54.0912
54.0914
54.0916
54.0919
54.0921
54.0923
54.0925
54.0926
54.0928
54.093
54.0932
54.0933
54.0935
54.0937
54.0937
54.094
54.094
54.0943
54.0943
54.0946
54.0946
54.0949
54.095
54.0953
54.0954
54.0957
54.0958
54.0962
54.0963
54.0968
54.0969
54.0974
54.0975
54.098
54.0983
54.0984
54.0991
54.0993
53.6967
53.704
53.7126
53.7162
53.7191
53.7249
53.7311
53.7357
53.7392
53.7452
53.7531
53.7564
53.76
53.7663
53.7735
53.7824
53.7822
53.7858
53.7919
53.7969
53.8092
53.8132
53.8114
53.8158
53.8217
53.8271
53.8353
53.8371
53.8396
53.8442
53.8488
53.8532
53.8576
53.8619
53.8662
53.8704
53.875
53.8796
53.8836
53.8921
53.8933
53.8946
53.8984
53.9024
53.9062
53.91
53.9138
53.9175
53.9211
53.9247
53.9282
53.9317
53.9352
53.9386
53.9419
53.9451
53.9483
53.9515
53.9546
53.9577
53.9607
53.9637
53.9666
53.9695
53.9724
53.9752
53.978
53.9807
53.9834
53.9861
53.9886
53.9911
53.9936
53.996
53.9984
54.0007
54.003
54.0051
54.0073
54.0094
54.0114
54.0134
54.0153
54.0173
54.0193
54.0213
54.0231
54.0248
54.0265
54.0283
54.0302
54.0342
54.0397
54.0386
54.0364
54.0376
54.0395
54.0413
54.0429
54.0442
54.046
54.0481
54.05
54.0511
54.0514
54.0528
54.0546
54.0567
54.0582
54.0581
54.0546
54.0524
54.0529
54.0546
54.0578
54.0638
54.0692
54.073
54.0753
54.0763
54.0767
54.0769
54.0773
54.0778
54.0783
54.0788
54.0793
54.0798
54.0803
54.0808
54.0813
54.0817
54.0822
54.0826
54.083
54.0834
54.0838
54.0842
54.0845
54.0849
54.0852
54.0855
54.0859
54.0862
54.0865
54.0868
54.0871
54.0874
54.0877
54.088
54.0882
54.0885
54.0888
54.0891
54.0893
54.0896
54.0899
54.0901
54.0904
54.0906
54.0909
54.0911
54.0913
54.0916
54.0918
54.092
54.0922
54.0924
54.0926
54.0928
54.093
54.0931
54.0933
54.0935
54.0936
54.0938
54.0939
54.0941
54.0942
54.0944
54.0945
54.0947
54.0948
54.0951
54.0951
54.0954
54.0955
54.0959
54.096
54.0964
54.0965
54.0969
54.0971
54.0975
54.0977
54.0981
54.0983
54.0987
54.0992
54.0992
53.6906
53.6962
53.6988
53.702
53.7058
53.7095
53.7129
53.717
53.7217
53.7261
53.7304
53.7355
53.7409
53.746
53.7506
53.7551
53.7609
53.7665
53.7717
53.7767
53.7804
53.7853
53.7912
53.7965
53.8016
53.8062
53.8104
53.8155
53.8206
53.8254
53.8302
53.8348
53.8394
53.8438
53.8482
53.8525
53.8566
53.8607
53.8646
53.8678
53.8722
53.8767
53.8809
53.885
53.889
53.8929
53.8968
53.9006
53.9043
53.908
53.9116
53.9152
53.9186
53.922
53.9253
53.9285
53.9317
53.9348
53.9379
53.941
53.944
53.947
53.95
53.9529
53.9557
53.9584
53.9611
53.9637
53.9663
53.9688
53.9712
53.9735
53.9757
53.9778
53.98
53.9821
53.984
53.9859
53.9877
53.9897
53.9922
53.9955
53.9991
54.0033
54.0083
54.013
54.0173
54.0212
54.0249
54.0281
54.031
54.0331
54.0335
54.0353
54.0372
54.0389
54.0404
54.042
54.0436
54.0452
54.0469
54.0486
54.0503
54.0521
54.0538
54.0555
54.0571
54.0588
54.0604
54.0619
54.0635
54.065
54.0666
54.068
54.0694
54.0706
54.0718
54.0728
54.0736
54.0744
54.0752
54.0759
54.0766
54.0773
54.0779
54.0785
54.0791
54.0797
54.0802
54.0807
54.0812
54.0817
54.0822
54.0826
54.083
54.0834
54.0838
54.0842
54.0845
54.0849
54.0852
54.0855
54.0859
54.0862
54.0865
54.0868
54.0871
54.0874
54.0877
54.088
54.0882
54.0885
54.0888
54.0891
54.0893
54.0896
54.0899
54.0901
54.0904
54.0906
54.0909
54.0911
54.0913
54.0916
54.0918
54.092
54.0922
54.0924
54.0926
54.0928
54.093
54.0931
54.0933
54.0935
54.0936
54.0938
54.0939
54.094
54.0942
54.0943
54.0945
54.0946
54.0948
54.095
54.0952
54.0954
54.0956
54.0958
54.0961
54.0962
54.0966
54.0968
54.0971
54.0975
54.0977
54.098
54.0984
54.0987
54.099
54.0993
53.6982
53.7042
53.7095
53.7145
53.7192
53.7236
53.7285
53.7339
53.7393
53.7441
53.7488
53.754
53.7595
53.7647
53.7694
53.7741
53.7794
53.7849
53.7901
53.7947
53.7991
53.8037
53.8089
53.8142
53.8192
53.8238
53.8282
53.8329
53.8377
53.8425
53.8472
53.8518
53.8564
53.8609
53.8654
53.8699
53.8744
53.8787
53.8828
53.8865
53.8904
53.8945
53.8986
53.9026
53.9065
53.9103
53.9141
53.9178
53.9215
53.9251
53.9286
53.9321
53.9356
53.939
53.9423
53.9456
53.9489
53.9521
53.9552
53.9583
53.9613
53.9643
53.9673
53.9701
53.973
53.9757
53.9785
53.9811
53.9837
53.9864
53.9889
53.9914
53.9939
53.9963
53.9986
54.001
54.0033
54.0055
54.0077
54.0099
54.012
54.0142
54.0163
54.0183
54.0203
54.0225
54.0246
54.0266
54.0287
54.031
54.0328
54.0341
54.0344
54.0351
54.0368
54.0388
54.0404
54.0418
54.0432
54.0445
54.0458
54.047
54.0476
54.0481
54.049
54.0497
54.0495
54.0487
54.0491
54.0507
54.0529
54.0569
54.0623
54.0669
54.0705
54.0727
54.0739
54.0744
54.0748
54.0753
54.0759
54.0764
54.077
54.0776
54.0781
54.0787
54.0792
54.0798
54.0803
54.0808
54.0813
54.0817
54.0822
54.0826
54.083
54.0834
54.0838
54.0842
54.0845
54.0849
54.0852
54.0855
54.0859
54.0862
54.0865
54.0868
54.0871
54.0874
54.0877
54.088
54.0882
54.0885
54.0888
54.0891
54.0893
54.0896
54.0899
54.0901
54.0904
54.0906
54.0909
54.0911
54.0913
54.0916
54.0918
54.092
54.0922
54.0924
54.0926
54.0928
54.093
54.0931
54.0933
54.0934
54.0936
54.0937
54.0939
54.094
54.0942
54.0943
54.0946
54.0946
54.0949
54.0949
54.0952
54.0953
54.0957
54.0957
54.0961
54.0962
54.0966
54.0968
54.0972
54.0974
54.0978
54.098
54.0984
54.0986
54.0991
54.0994
53.6993
53.7065
53.7114
53.7161
53.721
53.7257
53.7302
53.7347
53.7396
53.7443
53.7485
53.753
53.758
53.7629
53.7673
53.7713
53.7758
53.7809
53.7859
53.7903
53.7941
53.7981
53.8029
53.8079
53.8128
53.8173
53.8215
53.8259
53.8306
53.8352
53.8398
53.8442
53.8487
53.8531
53.8575
53.8619
53.8662
53.8705
53.8745
53.8781
53.8819
53.8859
53.8899
53.8938
53.8976
53.9014
53.9052
53.9089
53.9126
53.9162
53.9198
53.9234
53.9268
53.9303
53.9336
53.9369
53.9401
53.9433
53.9464
53.9495
53.9525
53.9555
53.9585
53.9614
53.9642
53.9671
53.9698
53.9726
53.9752
53.9779
53.9805
53.983
53.9855
53.988
53.9905
53.9929
53.9952
53.9974
53.9997
54.0019
54.0041
54.0061
54.0082
54.0103
54.0123
54.0142
54.0161
54.0181
54.0202
54.0225
54.0244
54.026
54.0266
54.0275
54.0294
54.0317
54.0334
54.0338
54.0351
54.0373
54.0399
54.0414
54.0387
54.0355
54.0366
54.0394
54.0453
54.0514
54.0561
54.0599
54.0628
54.0651
54.0669
54.0683
54.0696
54.0707
54.0717
54.0727
54.0735
54.0743
54.0751
54.0758
54.0765
54.0772
54.0778
54.0784
54.079
54.0795
54.0801
54.0806
54.0811
54.0816
54.082
54.0825
54.0829
54.0833
54.0837
54.084
54.0844
54.0847
54.0851
54.0854
54.0857
54.086
54.0864
54.0867
54.087
54.0872
54.0875
54.0878
54.0881
54.0884
54.0887
54.0889
54.0892
54.0895
54.0897
54.09
54.0902
54.0905
54.0907
54.091
54.0912
54.0914
54.0916
54.0918
54.0921
54.0923
54.0925
54.0926
54.0928
54.093
54.0932
54.0933
54.0935
54.0936
54.0938
54.0939
54.0941
54.0942
54.0944
54.0945
54.0948
54.0948
54.0951
54.0952
54.0955
54.0956
54.096
54.0961
54.0965
54.0966
54.0971
54.0973
54.0975
54.098
54.0981
54.0986
54.099
54.0992
54.0992
54.0992
54.0991
54.0991
54.0991
54.0992
54.0992
54.0993
54.0993
54.0995
54.0996
54.0997
54.0998
54.0999
54.1
54.1001
54.1002
54.1003
54.1004
54.1005
54.0993
54.0994
54.0995
54.0996
54.0997
54.0998
54.0998
54.0999
54.1
54.1002
54.1003
54.1003
54.1003
54.1003
54.1003
54.1003
54.1003
54.1003
54.1002
54.1
54.0995
54.0996
54.0997
54.0998
54.0998
54.0999
54.0999
54.0998
54.0997
54.0996
54.0995
54.0993
54.0991
54.099
54.0985
54.0981
54.0977
54.0975
54.0971
54.0969
54.0995
54.0995
54.0996
54.0997
54.0998
54.0998
54.0997
54.0996
54.0994
54.0994
54.0997
54.1002
54.1006
54.1009
54.1006
54.0997
54.0992
54.0988
54.0984
54.0983
54.0993
54.0994
54.0994
54.0995
54.0996
54.0996
54.0995
54.0995
54.0993
54.0993
54.0996
54.1
54.1006
54.101
54.101
54.1003
54.0997
54.0985
54.0979
54.0982
54.1008
54.1011
54.101
54.1009
54.1005
54.0997
54.099
54.0986
54.0986
54.0978
54.0962
54.0956
54.096
54.0959
54.0941
54.0922
54.0923
54.0933
54.0936
54.0915
54.089
54.0882
54.0901
54.0915
54.091
54.0882
54.0857
54.0847
54.0871
54.0895
54.0895
54.0872
54.0847
54.0822
54.0806
54.0806
54.0819
54.0829
54.0833
54.0837
54.084
54.0842
54.0845
54.0847
54.085
54.0852
54.0855
54.0857
54.086
54.0862
54.0864
54.0866
54.0868
54.087
54.0872
54.0873
54.0875
54.0876
54.0877
54.0879
54.088
54.0881
54.0882
54.0883
54.0884
54.0885
54.0886
54.0888
54.0891
54.0895
54.0905
54.092
54.0931
54.0926
54.0901
54.0879
54.0857
54.0862
54.0872
54.0879
54.0882
54.0886
54.0889
54.089
54.089
54.0893
54.0896
54.0897
54.0892
54.0893
54.0899
54.0899
54.0843
54.0792
54.0804
54.0876
54.0928
54.0944
54.0946
54.0957
54.0989
54.0981
54.0974
54.096
54.0939
54.0928
54.0928
54.0932
54.0926
54.0905
54.0901
54.0909
54.0915
54.0901
54.0891
54.0893
54.0912
54.092
54.09
54.0883
54.0878
54.0897
54.0923
54.0926
54.0896
54.0875
54.0865
54.088
54.0914
54.0929
54.0907
54.088
54.0862
54.0855
54.0858
54.0868
54.0886
54.0895
54.0898
54.0901
54.0905
54.0909
54.0913
54.0917
54.0921
54.0925
54.0929
54.0932
54.0935
54.0939
54.0942
54.0944
54.0947
54.095
54.0952
54.0954
54.0956
54.0959
54.096
54.0962
54.0963
54.0964
54.0965
54.0965
54.0966
54.0966
54.0966
54.0967
54.0969
54.0973
54.0982
54.0993
54.0995
54.0979
54.096
54.0942
54.0922
54.0934
54.0949
54.0958
54.0962
54.0964
54.0967
54.0968
54.0967
54.0967
54.0968
54.0968
54.0969
54.0966
54.0964
54.0965
54.0959
54.0939
54.093
54.0931
54.0925
54.0906
54.0897
54.0906
54.0946
54.0908
54.0879
54.0858
54.0835
54.081
54.0786
54.077
54.0757
54.0747
54.0732
54.073
54.0724
54.0722
54.0715
54.0708
54.0713
54.0713
54.0715
54.0712
54.071
54.0713
54.0716
54.0721
54.0719
54.0721
54.0712
54.0712
54.0716
54.0725
54.0725
54.0721
54.0716
54.0694
54.0688
54.0709
54.0726
54.0741
54.0754
54.0762
54.0767
54.077
54.0773
54.0774
54.0775
54.0777
54.0778
54.0779
54.0781
54.0782
54.0783
54.0784
54.0786
54.0787
54.0788
54.0788
54.0788
54.0787
54.0788
54.0788
54.0788
54.0787
54.0786
54.0785
54.0784
54.0782
54.0778
54.0775
54.0774
54.0777
54.0783
54.0792
54.0807
54.0833
54.0848
54.0856
54.0881
54.0915
54.0938
54.0953
54.0961
54.0964
54.0965
54.0964
54.0963
54.0962
54.0962
54.0962
54.0965
54.0967
54.0973
54.0976
54.0983
54.0988
54.0993
54.0999
54.1004
54.101
54.1017
54.1025
54.0972
54.0959
54.0959
54.0959
54.0951
54.0897
54.0904
54.0901
54.0918
54.0899
54.09
54.0876
54.0899
54.0897
54.0884
54.0916
54.0863
54.0905
54.0884
54.0874
54.0947
54.087
54.0886
54.0917
54.087
54.0901
54.0988
54.0903
54.0872
54.0926
54.0904
54.0896
54.0993
54.114
54.1108
54.0921
54.0904
54.0931
54.094
54.0942
54.0941
54.0941
54.0942
54.0942
54.0943
54.0944
54.0945
54.0946
54.0947
54.0948
54.0949
54.095
54.0951
54.0952
54.0953
54.0954
54.0954
54.0955
54.0955
54.0956
54.0957
54.0958
54.0959
54.096
54.096
54.0961
54.0961
54.0962
54.0962
54.0962
54.0966
54.0978
54.0991
54.0967
54.111
54.1203
54.1094
54.0955
54.0945
54.0954
54.0956
54.0955
54.0955
54.0955
54.0956
54.0957
54.0957
54.096
54.0963
54.0965
54.0967
54.0972
54.0977
54.0981
54.0977
54.0973
54.0975
54.098
54.0984
54.098
54.0986
54.0995
54.099
54.0972
54.0974
54.0976
54.0996
54.0965
54.0948
54.0965
54.1023
54.098
54.095
54.0963
54.1014
54.1049
54.0946
54.0941
54.0969
54.1011
54.1075
54.0976
54.0916
54.0958
54.0986
54.1027
54.1105
54.1001
54.0902
54.0944
54.0994
54.1018
54.1099
54.1242
54.1202
54.0971
54.0916
54.0942
54.0953
54.0955
54.0953
54.0952
54.0952
54.0952
54.0953
54.0954
54.0955
54.0956
54.0957
54.0958
54.0959
54.096
54.0961
54.0963
54.0963
54.0964
54.0965
54.0966
54.0967
54.0967
54.0968
54.0968
54.0969
54.0969
54.097
54.097
54.0971
54.0971
54.0971
54.0971
54.0974
54.0981
54.1001
54.1027
54.1176
54.1261
54.1148
54.0988
54.0963
54.097
54.0971
54.0969
54.0967
54.0967
54.0967
54.0968
54.097
54.0973
54.0976
54.0979
54.0984
54.0989
54.0991
54.0994
54.0999
54.1002
54.1005
54.1004
54.0997
54.0997
54.0936
54.0935
54.0938
54.0944
54.0953
54.0965
54.098
54.0997
54.1012
54.1024
54.1029
54.1029
54.1035
54.1042
54.1048
54.1053
54.1056
54.1059
54.106
54.1061
54.0888
54.0886
54.0886
54.0891
54.0898
54.0908
54.092
54.0935
54.0952
54.0971
54.0984
54.0998
54.1013
54.1025
54.1037
54.1049
54.1057
54.1059
54.1058
54.1051
54.1026
54.1023
54.1021
54.1021
54.1022
54.1024
54.1027
54.103
54.1033
54.1036
54.1038
54.1038
54.1037
54.1035
54.1032
54.1029
54.1025
54.1024
54.1026
54.1024
54.0965
54.0947
54.0928
54.0912
54.0899
54.0889
54.0883
54.0879
54.0876
54.0873
54.0871
54.0871
54.0873
54.0877
54.0891
54.0913
54.093
54.0949
54.0997
54.1029
54.0997
54.0999
54.0998
54.0998
54.1001
54.1004
54.1008
54.1008
54.0998
54.0977
54.0953
54.093
54.091
54.0892
54.0878
54.0873
54.088
54.0904
54.0958
54.102
54.1065
54.1068
54.1066
54.1061
54.1053
54.1049
54.1046
54.1046
54.104
54.1026
54.1018
54.1019
54.1021
54.1014
54.0996
54.0981
54.0978
54.0987
54.0993
54.0985
54.0964
54.0942
54.0927
54.0928
54.0945
54.0955
54.0951
54.0933
54.0916
54.0902
54.0889
54.0876
54.0865
54.0853
54.0861
54.0873
54.0878
54.0882
54.0886
54.0889
54.0892
54.0895
54.0899
54.0902
54.0905
54.0908
54.0912
54.0916
54.092
54.0924
54.0929
54.0935
54.0942
54.0951
54.0963
54.0981
54.1005
54.102
54.1019
54.101
54.0988
54.0966
54.0969
54.1002
54.102
54.1012
54.0989
54.0971
54.0958
54.0954
54.0965
54.0978
54.0987
54.0995
54.1001
54.1009
54.1015
54.1022
54.1028
54.1029
54.1035
54.1043
54.1023
54.0933
54.0932
54.1029
54.1099
54.1131
54.1155
54.1179
54.1197
54.1212
54.1222
54.123
54.1236
54.1242
54.1247
54.1251
54.1256
54.126
54.1263
54.1267
54.1271
54.1275
54.1278
54.1282
54.1286
54.129
54.1293
54.1297
54.1301
54.1305
54.1308
54.1312
54.1316
54.132
54.1324
54.1327
54.1331
54.1335
54.1339
54.1343
54.1347
54.1351
54.1355
54.1359
54.1363
54.1367
54.1371
54.1375
54.1379
54.1383
54.1388
54.1392
54.1396
54.14
54.1405
54.1409
54.1414
54.1418
54.1422
54.1427
54.1431
54.1436
54.144
54.1444
54.1449
54.1453
54.1458
54.1462
54.1466
54.147
54.1475
54.1479
54.1483
54.1487
54.1491
54.1496
54.15
54.1504
54.1508
54.1512
54.1516
54.152
54.1524
54.1528
54.1531
54.1535
54.1539
54.1543
54.1547
54.1551
54.1554
54.1558
54.1562
54.1566
54.1569
54.1573
54.1577
54.158
54.1584
54.1587
54.1592
54.1594
54.1599
54.1601
54.1606
54.1608
54.1612
54.1614
54.1619
54.162
54.1625
54.1627
54.163
54.1634
54.1635
54.1639
54.1642
54.1643
54.1041
54.1039
54.103
54.1002
54.0983
54.098
54.0983
54.0979
54.0951
54.0943
54.0951
54.0962
54.0956
54.0926
54.0915
54.0925
54.0955
54.0969
54.096
54.0921
54.0899
54.0892
54.0911
54.0943
54.0963
54.0961
54.0925
54.0896
54.0881
54.0872
54.0876
54.0899
54.0905
54.0902
54.0913
54.0923
54.0925
54.0928
54.0932
54.0937
54.0943
54.0949
54.0955
54.0961
54.0967
54.0972
54.0978
54.0983
54.0989
54.0994
54.1001
54.1009
54.1016
54.1025
54.1037
54.1054
54.1067
54.1069
54.1054
54.102
54.1003
54.0995
54.1003
54.1044
54.1056
54.1044
54.1028
54.1015
54.101
54.1018
54.1039
54.1055
54.1065
54.1072
54.1079
54.1086
54.109
54.1094
54.1099
54.1103
54.1103
54.1107
54.1109
54.1097
54.1078
54.108
54.1083
54.1075
54.1063
54.1064
54.1079
54.1136
54.1206
54.1241
54.1252
54.1256
54.1257
54.1259
54.1261
54.1264
54.1267
54.127
54.1273
54.1276
54.128
54.1283
54.1287
54.1291
54.1294
54.1298
54.1302
54.1306
54.131
54.1313
54.1317
54.1321
54.1325
54.1328
54.1332
54.1336
54.134
54.1344
54.1348
54.1352
54.1356
54.136
54.1364
54.1368
54.1372
54.1376
54.138
54.1384
54.1389
54.1393
54.1397
54.1401
54.1406
54.141
54.1415
54.1419
54.1423
54.1428
54.1432
54.1437
54.1441
54.1445
54.145
54.1454
54.1459
54.1463
54.1467
54.1472
54.1476
54.148
54.1484
54.1488
54.1492
54.1497
54.1501
54.1505
54.1509
54.1513
54.1517
54.1521
54.1525
54.1529
54.1532
54.1536
54.154
54.1544
54.1548
54.1552
54.1555
54.1559
54.1563
54.1567
54.157
54.1574
54.1578
54.1581
54.1585
54.1588
54.1593
54.1595
54.16
54.1602
54.1607
54.1609
54.1613
54.1615
54.162
54.1621
54.1626
54.1627
54.1632
54.1633
54.1638
54.1639
54.1643
54.1645
54.0998
54.0962
54.0932
54.0908
54.0882
54.0857
54.0837
54.082
54.0805
54.0793
54.0785
54.0783
54.0776
54.0771
54.0773
54.0773
54.0773
54.0771
54.0769
54.0768
54.0773
54.0778
54.077
54.0766
54.0763
54.0765
54.0767
54.077
54.077
54.0768
54.0765
54.075
54.0734
54.0742
54.0759
54.0774
54.0788
54.0798
54.0805
54.081
54.0814
54.0817
54.0819
54.0822
54.0825
54.0828
54.083
54.0833
54.0835
54.0838
54.084
54.0843
54.0844
54.0842
54.084
54.084
54.0835
54.0817
54.0809
54.0814
54.0821
54.0824
54.0844
54.0869
54.0907
54.0947
54.0973
54.0987
54.0997
54.1018
54.1037
54.1053
54.1066
54.1074
54.1079
54.1081
54.1084
54.1088
54.1093
54.1099
54.1107
54.1115
54.1125
54.1134
54.1144
54.1153
54.1161
54.1168
54.1176
54.1184
54.1194
54.1204
54.1214
54.1224
54.1234
54.1242
54.1248
54.1252
54.1257
54.126
54.1264
54.1268
54.1272
54.1276
54.1279
54.1283
54.1287
54.1291
54.1294
54.1298
54.1302
54.1306
54.1309
54.1313
54.1317
54.1321
54.1325
54.1328
54.1332
54.1336
54.134
54.1344
54.1348
54.1352
54.1356
54.136
54.1364
54.1368
54.1372
54.1376
54.138
54.1384
54.1389
54.1393
54.1397
54.1401
54.1406
54.141
54.1415
54.1419
54.1423
54.1428
54.1432
54.1437
54.1441
54.1445
54.145
54.1454
54.1459
54.1463
54.1467
54.1472
54.1476
54.148
54.1484
54.1488
54.1492
54.1497
54.1501
54.1505
54.1509
54.1513
54.1517
54.1521
54.1525
54.1529
54.1532
54.1536
54.154
54.1544
54.1548
54.1552
54.1555
54.1559
54.1563
54.1567
54.157
54.1574
54.1578
54.1581
54.1585
54.1588
54.1592
54.1596
54.1599
54.1603
54.1606
54.1609
54.1613
54.1615
54.162
54.1622
54.1625
54.1629
54.1631
54.1634
54.1637
54.1639
54.1642
54.1645
54.1015
54.1005
54.101
54.1012
54.0974
54.0939
54.0944
54.0968
54.0951
54.0899
54.0905
54.0924
54.0943
54.0876
54.0864
54.089
54.0873
54.0927
54.0917
54.0865
54.0852
54.0884
54.0886
54.0858
54.0914
54.0922
54.0897
54.0875
54.0879
54.0906
54.0972
54.1098
54.1151
54.0993
54.0928
54.0959
54.0982
54.0988
54.0989
54.0989
54.0989
54.099
54.0992
54.0993
54.0995
54.0997
54.0999
54.1002
54.1004
54.1007
54.1011
54.1009
54.1009
54.101
54.1014
54.1028
54.1058
54.0989
54.0914
54.0911
54.0952
54.0993
54.0934
54.0992
54.1026
54.1046
54.1135
54.1245
54.1254
54.1095
54.1029
54.1049
54.1064
54.107
54.1074
54.1078
54.1082
54.1086
54.1092
54.1098
54.1105
54.1113
54.1123
54.1132
54.1139
54.1137
54.1136
54.1141
54.1148
54.1154
54.1145
54.1099
54.1075
54.1081
54.1123
54.1207
54.1254
54.1267
54.1268
54.1267
54.1268
54.1271
54.1274
54.1277
54.128
54.1284
54.1287
54.1291
54.1295
54.1298
54.1302
54.1306
54.131
54.1313
54.1317
54.1321
54.1325
54.1328
54.1332
54.1336
54.134
54.1344
54.1348
54.1352
54.1356
54.136
54.1364
54.1368
54.1372
54.1376
54.138
54.1384
54.1389
54.1393
54.1397
54.1401
54.1406
54.141
54.1415
54.1419
54.1423
54.1428
54.1432
54.1437
54.1441
54.1445
54.145
54.1454
54.1459
54.1463
54.1467
54.1472
54.1476
54.148
54.1484
54.1488
54.1492
54.1497
54.1501
54.1505
54.1509
54.1513
54.1517
54.1521
54.1525
54.1529
54.1532
54.1536
54.154
54.1544
54.1548
54.1552
54.1555
54.1559
54.1563
54.1567
54.157
54.1574
54.1577
54.1582
54.1585
54.1589
54.1592
54.1596
54.1599
54.1603
54.1605
54.161
54.1612
54.1617
54.1618
54.1623
54.1624
54.1629
54.163
54.1635
54.1637
54.1639
54.1644
54.1644
54.1037
54.1043
54.1037
54.1036
54.1035
54.1028
54.1017
54.1001
54.1006
54.1021
54.1024
54.0986
54.0994
54.1
54.0993
54.1002
54.0945
54.0946
54.0988
54.0996
54.0963
54.0974
54.0969
54.0898
54.0905
54.0972
54.0999
54.0975
54.0966
54.0985
54.1045
54.1169
54.122
54.1032
54.0908
54.095
54.0988
54.0999
54.1002
54.1001
54.1001
54.1002
54.1003
54.1004
54.1006
54.1008
54.101
54.1012
54.1014
54.1017
54.1021
54.1019
54.1018
54.1019
54.1023
54.1033
54.106
54.1083
54.1046
54.1012
54.1043
54.1083
54.0985
54.0989
54.1059
54.1106
54.1183
54.1285
54.1293
54.1129
54.1042
54.1063
54.1079
54.1085
54.1087
54.1089
54.1092
54.1098
54.1105
54.1111
54.1119
54.1128
54.1136
54.1143
54.115
54.1158
54.1164
54.117
54.1172
54.1172
54.1177
54.1184
54.1183