/*--------------------------------*- C++ -*----------------------------------*\
| =========                 |                                                 |
| \\      /  F ield         | OpenFOAM: The Open Source CFD Toolbox           |
|  \\    /   O peration     | Version:  3.0.x                                 |
|   \\  /    A nd           | Web:      www.OpenFOAM.org                      |
|    \\/     M anipulation  |                                                 |
\*---------------------------------------------------------------------------*/
FoamFile
{
    version     2.0;
    format      ascii;
    class       volVectorField;
    location    "0.54";
    object      U;
}
// * * * * * * * * * * * * * * * * * * * * * * * * * * * * * * * * * * * * * //

dimensions      [0 1 -1 0 0 0 0];

internalField   nonuniform List<vector> 
6900
(
(42.6239 9.97301e-05 0)
(42.4382 9.1703e-05 0)
(42.2219 8.97253e-05 0)
(42.0179 9.08787e-05 0)
(41.8233 9.18325e-05 0)
(41.6296 9.24687e-05 0)
(41.4343 9.29623e-05 0)
(41.2379 9.33405e-05 0)
(41.0412 9.36316e-05 0)
(40.8442 9.38426e-05 0)
(40.6469 9.40057e-05 0)
(40.4493 9.41244e-05 0)
(40.2512 9.42167e-05 0)
(40.0529 9.42884e-05 0)
(39.8541 9.43455e-05 0)
(39.6551 9.43922e-05 0)
(39.4558 9.44318e-05 0)
(39.2562 9.4466e-05 0)
(39.0564 9.44968e-05 0)
(38.8564 9.45253e-05 0)
(38.6561 9.45518e-05 0)
(38.4558 9.45776e-05 0)
(38.2552 9.4602e-05 0)
(38.0546 9.46267e-05 0)
(37.8539 9.46507e-05 0)
(37.6531 9.46749e-05 0)
(37.4523 9.46996e-05 0)
(37.2515 9.47244e-05 0)
(37.0507 9.47494e-05 0)
(36.8499 9.47762e-05 0)
(36.6492 9.48021e-05 0)
(36.4484 9.48306e-05 0)
(36.2477 9.48594e-05 0)
(36.0471 9.4889e-05 0)
(35.8464 9.49212e-05 0)
(35.6459 9.49531e-05 0)
(35.4453 9.49884e-05 0)
(35.2448 9.50249e-05 0)
(35.0442 9.50629e-05 0)
(34.8437 9.51053e-05 0)
(34.6431 9.51512e-05 0)
(34.4425 9.51986e-05 0)
(34.2418 9.52477e-05 0)
(34.0411 9.52975e-05 0)
(33.8402 9.5349e-05 0)
(33.6393 9.54032e-05 0)
(33.4383 9.5464e-05 0)
(33.2371 9.55329e-05 0)
(33.0358 9.56083e-05 0)
(32.8343 9.5691e-05 0)
(32.6327 9.57727e-05 0)
(32.4309 9.58549e-05 0)
(32.229 9.59348e-05 0)
(32.0269 9.60133e-05 0)
(31.8246 9.60931e-05 0)
(31.6223 9.61761e-05 0)
(31.4198 9.62609e-05 0)
(31.2172 9.6346e-05 0)
(31.0146 9.64307e-05 0)
(30.8119 9.65144e-05 0)
(30.6092 9.65968e-05 0)
(30.4064 9.66789e-05 0)
(30.2038 9.67591e-05 0)
(30.0011 9.68318e-05 0)
(29.7986 9.68864e-05 0)
(29.5962 9.69114e-05 0)
(29.394 9.68954e-05 0)
(29.192 9.68276e-05 0)
(28.9902 9.66979e-05 0)
(28.7887 9.6496e-05 0)
(28.5875 9.62099e-05 0)
(28.3866 9.58238e-05 0)
(28.186 9.53185e-05 0)
(27.9858 9.46715e-05 0)
(27.786 9.3858e-05 0)
(27.5866 9.28525e-05 0)
(27.3876 9.163e-05 0)
(27.1891 9.01677e-05 0)
(26.991 8.84468e-05 0)
(26.7933 8.64527e-05 0)
(26.5962 8.41759e-05 0)
(26.3995 8.16134e-05 0)
(26.2032 7.87685e-05 0)
(26.0075 7.5652e-05 0)
(25.8122 7.22814e-05 0)
(25.6175 6.86817e-05 0)
(25.4232 6.48836e-05 0)
(25.2294 6.09237e-05 0)
(25.0362 5.68433e-05 0)
(24.8434 5.2687e-05 0)
(24.6511 4.85015e-05 0)
(24.4594 4.43339e-05 0)
(24.2681 4.02301e-05 0)
(24.0773 3.62339e-05 0)
(23.887 3.23848e-05 0)
(23.6973 2.87177e-05 0)
(23.508 2.52614e-05 0)
(23.3192 2.20384e-05 0)
(23.1309 1.90642e-05 0)
(22.9432 1.63481e-05 0)
(22.7559 1.38932e-05 0)
(22.5691 1.16969e-05 0)
(22.3829 9.75203e-06 0)
(22.1972 8.04684e-06 0)
(22.0119 6.56643e-06 0)
(21.8273 5.29325e-06 0)
(21.6431 4.2084e-06 0)
(21.4595 3.29202e-06 0)
(21.2765 2.52424e-06 0)
(21.094 1.88541e-06 0)
(20.9121 1.35673e-06 0)
(20.7308 9.2023e-07 0)
(20.5501 5.59137e-07 0)
(20.3701 2.56307e-07 0)
(20.1907 -1.37365e-08 0)
(20.0119 -1.72289e-07 0)
(19.8338 -3.03271e-07 0)
(19.6564 -4.09478e-07 0)
(19.4797 -4.95834e-07 0)
(19.3038 -5.66337e-07 0)
(19.1285 -6.24377e-07 0)
(18.954 -6.72972e-07 0)
(18.7803 -7.1457e-07 0)
(18.6074 -7.51358e-07 0)
(18.4352 -7.84472e-07 0)
(18.2639 -8.14728e-07 0)
(18.0933 -8.42994e-07 0)
(17.9236 -8.70096e-07 0)
(17.7547 -8.96959e-07 0)
(17.5867 -9.23944e-07 0)
(17.4194 -9.5105e-07 0)
(17.2531 -9.78288e-07 0)
(17.0876 -1.00555e-06 0)
(16.923 -1.03312e-06 0)
(16.7592 -1.06113e-06 0)
(16.5964 -1.08983e-06 0)
(16.4344 -1.11925e-06 0)
(16.2733 -1.14913e-06 0)
(16.1131 -1.17927e-06 0)
(15.9538 -1.20936e-06 0)
(15.7954 -1.23945e-06 0)
(15.6379 -1.26991e-06 0)
(15.4814 -1.30086e-06 0)
(15.3257 -1.33211e-06 0)
(15.171 -1.36384e-06 0)
(15.0172 -1.39605e-06 0)
(14.8643 -1.42871e-06 0)
(14.7124 -1.46165e-06 0)
(14.5614 -1.49476e-06 0)
(14.4114 -1.52783e-06 0)
(14.2623 -1.56094e-06 0)
(14.1142 -1.59407e-06 0)
(13.9671 -1.62743e-06 0)
(13.8209 -1.66136e-06 0)
(13.6757 -1.69561e-06 0)
(13.5314 -1.7303e-06 0)
(13.3881 -1.76514e-06 0)
(13.2458 -1.79998e-06 0)
(13.1045 -1.83457e-06 0)
(12.9641 -1.86981e-06 0)
(12.8247 -1.90557e-06 0)
(12.6863 -1.94191e-06 0)
(12.5488 -1.97797e-06 0)
(12.4123 -2.01422e-06 0)
(12.2768 -2.05035e-06 0)
(12.1422 -2.08672e-06 0)
(12.0086 -2.12313e-06 0)
(11.876 -2.16038e-06 0)
(11.7443 -2.19738e-06 0)
(11.6136 -2.23567e-06 0)
(11.4839 -2.27257e-06 0)
(11.3552 -2.31164e-06 0)
(11.2274 -2.34798e-06 0)
(11.1006 -2.38819e-06 0)
(10.9748 -2.42371e-06 0)
(10.85 -2.46676e-06 0)
(10.7262 -2.49982e-06 0)
(10.6033 -2.54837e-06 0)
(10.4814 -2.57194e-06 0)
(10.3605 -2.63489e-06 0)
(10.2406 -2.63643e-06 0)
(10.1217 -2.73636e-06 0)
(10.0038 -2.69307e-06 0)
(9.88678 -2.86373e-06 0)
(9.7708 -2.74381e-06 0)
(9.65579 -3.02473e-06 0)
(9.54179 -2.79751e-06 0)
(9.42875 -3.22304e-06 0)
(9.31675 -2.90109e-06 0)
(9.20568 -3.47646e-06 0)
(9.09569 -2.90271e-06 0)
(8.98662 -3.60405e-06 0)
(8.87866 -3.04381e-06 0)
(8.77161 -3.42833e-06 0)
(8.66563 -3.49684e-06 0)
(8.56039 5.07493e-06 0)
(8.45493 3.60819e-05 0)
(8.34258 0.000256445 0)
(8.22357 0.00464616 0)
(7.5849 0.0131875 0)
(42.6256 0.000126467 0)
(42.4417 9.80055e-05 0)
(42.2272 8.65345e-05 0)
(42.025 8.61746e-05 0)
(41.8322 8.63571e-05 0)
(41.6403 8.6233e-05 0)
(41.4468 8.61772e-05 0)
(41.2523 8.6167e-05 0)
(41.0574 8.61724e-05 0)
(40.8622 8.61626e-05 0)
(40.6667 8.61615e-05 0)
(40.4709 8.6155e-05 0)
(40.2747 8.61538e-05 0)
(40.0781 8.61549e-05 0)
(39.8812 8.61596e-05 0)
(39.684 8.61682e-05 0)
(39.4866 8.61806e-05 0)
(39.2888 8.61962e-05 0)
(39.0908 8.62153e-05 0)
(38.8926 8.62375e-05 0)
(38.6942 8.62617e-05 0)
(38.4956 8.62888e-05 0)
(38.2969 8.63168e-05 0)
(38.0981 8.63479e-05 0)
(37.8993 8.63793e-05 0)
(37.7003 8.64127e-05 0)
(37.5013 8.64477e-05 0)
(37.3024 8.64835e-05 0)
(37.1034 8.65202e-05 0)
(36.9044 8.656e-05 0)
(36.7055 8.65982e-05 0)
(36.5066 8.66407e-05 0)
(36.3077 8.66831e-05 0)
(36.1089 8.67265e-05 0)
(35.9101 8.67737e-05 0)
(35.7113 8.68195e-05 0)
(35.5126 8.687e-05 0)
(35.3139 8.69212e-05 0)
(35.1152 8.69738e-05 0)
(34.9165 8.70319e-05 0)
(34.7177 8.70936e-05 0)
(34.519 8.71558e-05 0)
(34.3201 8.72195e-05 0)
(34.1212 8.7283e-05 0)
(33.9222 8.73479e-05 0)
(33.7231 8.74156e-05 0)
(33.5239 8.74915e-05 0)
(33.3246 8.75772e-05 0)
(33.1251 8.76693e-05 0)
(32.9255 8.77698e-05 0)
(32.7257 8.78665e-05 0)
(32.5258 8.79636e-05 0)
(32.3257 8.80569e-05 0)
(32.1254 8.8148e-05 0)
(31.9251 8.82407e-05 0)
(31.7246 8.83372e-05 0)
(31.5239 8.8435e-05 0)
(31.3232 8.85324e-05 0)
(31.1224 8.86295e-05 0)
(30.9216 8.8726e-05 0)
(30.7207 8.88224e-05 0)
(30.5198 8.89207e-05 0)
(30.319 8.90197e-05 0)
(30.1182 8.91127e-05 0)
(29.9176 8.91872e-05 0)
(29.7171 8.92308e-05 0)
(29.5167 8.92321e-05 0)
(29.3166 8.91811e-05 0)
(29.1166 8.90694e-05 0)
(28.917 8.88892e-05 0)
(28.7176 8.86305e-05 0)
(28.5185 8.82791e-05 0)
(28.3198 8.78172e-05 0)
(28.1214 8.72232e-05 0)
(27.9234 8.64731e-05 0)
(27.7258 8.55422e-05 0)
(27.5286 8.44066e-05 0)
(27.3318 8.30449e-05 0)
(27.1354 8.14397e-05 0)
(26.9394 7.9578e-05 0)
(26.7439 7.74521e-05 0)
(26.5488 7.50601e-05 0)
(26.3541 7.24063e-05 0)
(26.1598 6.95017e-05 0)
(25.966 6.6364e-05 0)
(25.7726 6.30172e-05 0)
(25.5796 5.94906e-05 0)
(25.387 5.58188e-05 0)
(25.1948 5.20405e-05 0)
(25.0031 4.81973e-05 0)
(24.8118 4.43324e-05 0)
(24.6209 4.04893e-05 0)
(24.4304 3.67102e-05 0)
(24.2403 3.30352e-05 0)
(24.0507 2.95e-05 0)
(23.8615 2.61363e-05 0)
(23.6727 2.29699e-05 0)
(23.4843 2.00203e-05 0)
(23.2964 1.73012e-05 0)
(23.109 1.48199e-05 0)
(22.9219 1.25786e-05 0)
(22.7354 1.05745e-05 0)
(22.5493 8.80013e-06 0)
(22.3637 7.2444e-06 0)
(22.1786 5.89325e-06 0)
(21.994 4.73036e-06 0)
(21.8099 3.73842e-06 0)
(21.6264 2.89933e-06 0)
(21.4433 2.19516e-06 0)
(21.2609 1.60816e-06 0)
(21.079 1.12177e-06 0)
(20.8977 7.20089e-07 0)
(20.717 3.88876e-07 0)
(20.5369 1.14556e-07 0)
(20.3574 -1.04474e-07 0)
(20.1786 -2.54979e-07 0)
(20.0005 -3.81861e-07 0)
(19.823 -4.85045e-07 0)
(19.6463 -5.68815e-07 0)
(19.4703 -6.37286e-07 0)
(19.295 -6.94033e-07 0)
(19.1205 -7.42241e-07 0)
(18.9467 -7.84251e-07 0)
(18.7737 -8.22124e-07 0)
(18.6015 -8.56751e-07 0)
(18.4301 -8.88944e-07 0)
(18.2595 -9.19436e-07 0)
(18.0897 -9.48917e-07 0)
(17.9207 -9.78388e-07 0)
(17.7526 -1.00826e-06 0)
(17.5854 -1.03827e-06 0)
(17.4189 -1.06852e-06 0)
(17.2534 -1.09879e-06 0)
(17.0887 -1.12936e-06 0)
(16.9249 -1.1604e-06 0)
(16.762 -1.19212e-06 0)
(16.5999 -1.22459e-06 0)
(16.4388 -1.25751e-06 0)
(16.2785 -1.29059e-06 0)
(16.1192 -1.32361e-06 0)
(15.9607 -1.35642e-06 0)
(15.8032 -1.38974e-06 0)
(15.6465 -1.42337e-06 0)
(15.4908 -1.45741e-06 0)
(15.336 -1.49187e-06 0)
(15.1822 -1.52675e-06 0)
(15.0292 -1.56207e-06 0)
(14.8772 -1.59765e-06 0)
(14.7262 -1.63338e-06 0)
(14.5761 -1.66885e-06 0)
(14.427 -1.70437e-06 0)
(14.2788 -1.7399e-06 0)
(14.1316 -1.77533e-06 0)
(13.9853 -1.81159e-06 0)
(13.84 -1.84791e-06 0)
(13.6957 -1.88482e-06 0)
(13.5523 -1.92149e-06 0)
(13.41 -1.95856e-06 0)
(13.2686 -1.99457e-06 0)
(13.1281 -2.03194e-06 0)
(12.9887 -2.06899e-06 0)
(12.8501 -2.10774e-06 0)
(12.7126 -2.14525e-06 0)
(12.576 -2.18353e-06 0)
(12.4404 -2.22078e-06 0)
(12.3058 -2.25945e-06 0)
(12.1721 -2.29706e-06 0)
(12.0394 -2.33777e-06 0)
(11.9076 -2.37389e-06 0)
(11.7769 -2.41818e-06 0)
(11.6471 -2.45213e-06 0)
(11.5182 -2.50014e-06 0)
(11.3904 -2.52912e-06 0)
(11.2635 -2.58389e-06 0)
(11.1376 -2.60425e-06 0)
(11.0127 -2.67475e-06 0)
(10.8888 -2.67184e-06 0)
(10.7658 -2.78107e-06 0)
(10.6439 -2.71169e-06 0)
(10.5229 -2.9245e-06 0)
(10.4029 -2.68621e-06 0)
(10.2839 -3.14024e-06 0)
(10.1659 -2.55881e-06 0)
(10.0488 -3.43935e-06 0)
(9.93274 -2.28279e-06 0)
(9.81764 -3.87002e-06 0)
(9.70355 -1.69632e-06 0)
(9.59042 -4.66463e-06 0)
(9.47832 -5.81139e-07 0)
(9.36717 -5.78212e-06 0)
(9.25708 1.72154e-07 0)
(9.14792 -5.92663e-06 0)
(9.03986 1.21091e-06 0)
(8.93272 -4.2465e-06 0)
(8.82665 1.31035e-05 0)
(8.72131 7.69161e-05 0)
(8.6158 0.000509969 0)
(8.50361 0.0030823 0)
(8.38412 0.0215273 0)
(7.95198 0.0602444 0)
(42.6256 -2.90799e-12 0)
(42.4416 -3.24924e-12 0)
(42.2272 -3.24126e-12 0)
(42.0249 -1.79206e-12 0)
(41.8321 -1.95354e-12 0)
(41.6403 -4.905e-12 0)
(41.4468 -9.21683e-12 0)
(41.2522 -1.08673e-11 0)
(41.0573 -9.22634e-12 0)
(40.8622 -6.38049e-12 0)
(40.6667 -4.04423e-12 0)
(40.4708 -4.32733e-12 0)
(40.2746 -5.77635e-12 0)
(40.0781 -6.78381e-12 0)
(39.8812 -7.76511e-12 0)
(39.684 -8.45519e-12 0)
(39.4865 -9.59977e-12 0)
(39.2888 -1.24126e-11 0)
(39.0908 -1.5421e-11 0)
(38.8926 -1.83649e-11 0)
(38.6942 -2.05071e-11 0)
(38.4956 -2.20309e-11 0)
(38.2969 -2.38948e-11 0)
(38.0981 -2.37755e-11 0)
(37.8992 -2.82228e-11 0)
(37.7003 -2.96773e-11 0)
(37.5013 -2.98623e-11 0)
(37.3023 -2.78693e-11 0)
(37.1034 -2.56934e-11 0)
(36.9044 -2.2876e-11 0)
(36.7055 -2.01835e-11 0)
(36.5066 -1.9734e-11 0)
(36.3077 -2.01862e-11 0)
(36.1089 -2.00958e-11 0)
(35.9101 -2.02669e-11 0)
(35.7113 -2.13476e-11 0)
(35.5126 -2.3022e-11 0)
(35.3139 -2.51396e-11 0)
(35.1152 -2.61694e-11 0)
(34.9165 -2.54779e-11 0)
(34.7177 -2.40126e-11 0)
(34.519 -2.24626e-11 0)
(34.3201 -2.06269e-11 0)
(34.1212 -1.90464e-11 0)
(33.9222 -1.76824e-11 0)
(33.7231 -1.64855e-11 0)
(33.5239 -1.61411e-11 0)
(33.3246 -1.58349e-11 0)
(33.1251 -1.43364e-11 0)
(32.9255 -1.32091e-11 0)
(32.7257 -1.10423e-11 0)
(32.5258 -8.74723e-12 0)
(32.3257 -6.89224e-12 0)
(32.1255 -5.87436e-12 0)
(31.9251 -5.52441e-12 0)
(31.7246 -3.5302e-12 0)
(31.524 -2.35897e-12 0)
(31.3233 -1.82026e-12 0)
(31.1225 -1.59751e-12 0)
(30.9216 -1.15884e-12 0)
(30.7208 -6.46773e-13 0)
(30.5199 1.15359e-12 0)
(30.3191 4.63935e-13 0)
(30.1183 -3.04969e-12 0)
(29.9177 -7.4784e-12 0)
(29.7171 -9.50421e-12 0)
(29.5168 -9.95481e-12 0)
(29.3166 -1.15398e-11 0)
(29.1167 -1.17554e-11 0)
(28.9171 -1.06981e-11 0)
(28.7177 -1.01996e-11 0)
(28.5186 -1.04809e-11 0)
(28.3199 -1.02954e-11 0)
(28.1215 -1.02837e-11 0)
(27.9235 -1.06934e-11 0)
(27.7259 -1.25861e-11 0)
(27.5287 -1.31513e-11 0)
(27.3319 -1.41387e-11 0)
(27.1355 -1.56509e-11 0)
(26.9396 -2.22775e-11 0)
(26.744 -3.16052e-11 0)
(26.5489 -3.81176e-11 0)
(26.3542 -4.24827e-11 0)
(26.1599 -4.54855e-11 0)
(25.9661 -4.75171e-11 0)
(25.7727 -4.92902e-11 0)
(25.5797 -4.78792e-11 0)
(25.3871 -4.5637e-11 0)
(25.1949 -4.24879e-11 0)
(25.0032 -3.93378e-11 0)
(24.8119 -3.67775e-11 0)
(24.621 -3.45537e-11 0)
(24.4305 -3.25179e-11 0)
(24.2404 -3.00828e-11 0)
(24.0508 -2.74874e-11 0)
(23.8615 -2.4923e-11 0)
(23.6728 -2.27221e-11 0)
(23.4844 -2.13184e-11 0)
(23.2965 -1.94462e-11 0)
(23.109 -2.16773e-11 0)
(22.922 -1.8698e-11 0)
(22.7355 -1.78358e-11 0)
(22.5494 -1.42575e-11 0)
(22.3638 -1.84381e-11 0)
(22.1787 -1.1042e-11 0)
(21.9941 -2.19528e-11 0)
(21.81 -2.72601e-12 0)
(21.6264 -2.23418e-11 0)
(21.4434 5.55118e-12 0)
(21.2609 -2.31177e-11 0)
(21.079 2.11668e-11 0)
(20.8977 -1.649e-11 0)
(20.717 3.02066e-11 0)
(20.5369 -2.62044e-11 0)
(20.3575 4.58592e-11 0)
(20.1787 -4.79079e-11 0)
(20.0005 3.59064e-11 0)
(19.8231 -4.47508e-11 0)
(19.6464 1.88061e-11 0)
(19.4703 -3.26148e-11 0)
(19.2951 3.48599e-12 0)
(19.1205 -1.73292e-11 0)
(18.9467 2.57604e-12 0)
(18.7737 -1.21338e-11 0)
(18.6015 5.84502e-12 0)
(18.4301 -1.6877e-11 0)
(18.2595 2.92659e-11 0)
(18.0897 -4.62387e-11 0)
(17.9208 9.67376e-11 0)
(17.7527 -9.42919e-11 0)
(17.5854 1.24151e-10 0)
(17.419 -7.98779e-11 0)
(17.2535 8.56839e-11 0)
(17.0888 -1.94873e-11 0)
(16.925 1.13672e-11 0)
(16.762 1.62006e-11 0)
(16.6 1.00599e-11 0)
(16.4389 -2.63576e-11 0)
(16.2786 9.76832e-11 0)
(16.1192 -1.77815e-10 0)
(15.9608 2.74241e-10 0)
(15.8032 -2.34617e-10 0)
(15.6466 1.05632e-10 0)
(15.4909 4.22682e-11 0)
(15.3361 -4.26912e-11 0)
(15.1822 -1.1709e-10 0)
(15.0293 2.43e-10 0)
(14.8773 -2.38829e-10 0)
(14.7263 1.42886e-10 0)
(14.5762 -1.24575e-10 0)
(14.427 1.7277e-10 0)
(14.2788 -2.48904e-10 0)
(14.1316 2.13533e-10 0)
(13.9854 -1.81814e-10 0)
(13.8401 2.84402e-10 0)
(13.6958 -4.9051e-10 0)
(13.5524 8.06041e-10 0)
(13.41 -1.02186e-09 0)
(13.2686 9.05014e-10 0)
(13.1282 -1.49242e-09 0)
(12.9887 2.48495e-09 0)
(12.8502 -1.87693e-09 0)
(12.7127 9.79563e-10 0)
(12.5761 -2.27834e-09 0)
(12.4405 3.03396e-09 0)
(12.3058 -2.28242e-09 0)
(12.1721 3.22343e-09 0)
(12.0394 -5.28145e-09 0)
(11.9077 6.91649e-09 0)
(11.7769 -8.47815e-09 0)
(11.6471 1.10203e-08 0)
(11.5183 -1.59344e-08 0)
(11.3904 2.08226e-08 0)
(11.2636 -2.75212e-08 0)
(11.1377 3.93399e-08 0)
(11.0128 -5.90357e-08 0)
(10.8888 8.52064e-08 0)
(10.7659 -1.40664e-07 0)
(10.6439 2.09601e-07 0)
(10.523 -3.61898e-07 0)
(10.403 4.7916e-07 0)
(10.284 -8.47608e-07 0)
(10.1659 1.00234e-06 0)
(10.0489 -1.63709e-06 0)
(9.93279 1.79813e-06 0)
(9.8177 -2.60844e-06 0)
(9.7036 2.81444e-06 0)
(9.59048 -3.70326e-06 0)
(9.47836 4.25994e-06 0)
(9.36724 -4.95267e-06 0)
(9.25712 5.58809e-06 0)
(9.148 -7.24529e-06 0)
(9.0399 9.30475e-06 0)
(8.93279 -6.50364e-06 0)
(8.82674 3.16074e-05 0)
(8.72171 0.000121731 0)
(8.61778 0.000777021 0)
(8.51549 0.00432335 0)
(8.41847 0.0236008 0)
(8.30734 0.047854 0)
(42.6256 -0.000126467 0)
(42.4417 -9.80055e-05 0)
(42.2272 -8.65345e-05 0)
(42.025 -8.61746e-05 0)
(41.8322 -8.63571e-05 0)
(41.6403 -8.6233e-05 0)
(41.4468 -8.61772e-05 0)
(41.2523 -8.6167e-05 0)
(41.0574 -8.61724e-05 0)
(40.8622 -8.61626e-05 0)
(40.6667 -8.61615e-05 0)
(40.4709 -8.6155e-05 0)
(40.2747 -8.61538e-05 0)
(40.0781 -8.61549e-05 0)
(39.8812 -8.61596e-05 0)
(39.684 -8.61682e-05 0)
(39.4866 -8.61806e-05 0)
(39.2888 -8.61962e-05 0)
(39.0908 -8.62153e-05 0)
(38.8926 -8.62375e-05 0)
(38.6942 -8.62617e-05 0)
(38.4956 -8.62888e-05 0)
(38.2969 -8.63169e-05 0)
(38.0981 -8.63479e-05 0)
(37.8993 -8.63793e-05 0)
(37.7003 -8.64127e-05 0)
(37.5013 -8.64477e-05 0)
(37.3024 -8.64835e-05 0)
(37.1034 -8.65202e-05 0)
(36.9044 -8.656e-05 0)
(36.7055 -8.65982e-05 0)
(36.5066 -8.66407e-05 0)
(36.3077 -8.66831e-05 0)
(36.1089 -8.67265e-05 0)
(35.9101 -8.67737e-05 0)
(35.7113 -8.68195e-05 0)
(35.5126 -8.687e-05 0)
(35.3139 -8.69212e-05 0)
(35.1152 -8.69738e-05 0)
(34.9165 -8.70319e-05 0)
(34.7177 -8.70936e-05 0)
(34.519 -8.71558e-05 0)
(34.3201 -8.72195e-05 0)
(34.1212 -8.7283e-05 0)
(33.9222 -8.73479e-05 0)
(33.7231 -8.74156e-05 0)
(33.5239 -8.74915e-05 0)
(33.3246 -8.75772e-05 0)
(33.1251 -8.76693e-05 0)
(32.9255 -8.77698e-05 0)
(32.7257 -8.78665e-05 0)
(32.5258 -8.79636e-05 0)
(32.3257 -8.80569e-05 0)
(32.1254 -8.8148e-05 0)
(31.9251 -8.82407e-05 0)
(31.7246 -8.83372e-05 0)
(31.5239 -8.8435e-05 0)
(31.3232 -8.85324e-05 0)
(31.1224 -8.86295e-05 0)
(30.9216 -8.8726e-05 0)
(30.7207 -8.88224e-05 0)
(30.5198 -8.89207e-05 0)
(30.319 -8.90197e-05 0)
(30.1182 -8.91127e-05 0)
(29.9176 -8.91872e-05 0)
(29.7171 -8.92308e-05 0)
(29.5167 -8.92321e-05 0)
(29.3166 -8.91811e-05 0)
(29.1166 -8.90694e-05 0)
(28.917 -8.88892e-05 0)
(28.7176 -8.86305e-05 0)
(28.5185 -8.82791e-05 0)
(28.3198 -8.78172e-05 0)
(28.1214 -8.72232e-05 0)
(27.9234 -8.64731e-05 0)
(27.7258 -8.55422e-05 0)
(27.5286 -8.44066e-05 0)
(27.3318 -8.30449e-05 0)
(27.1354 -8.14397e-05 0)
(26.9394 -7.9578e-05 0)
(26.7439 -7.74521e-05 0)
(26.5488 -7.50601e-05 0)
(26.3541 -7.24062e-05 0)
(26.1598 -6.95017e-05 0)
(25.966 -6.6364e-05 0)
(25.7726 -6.30172e-05 0)
(25.5796 -5.94906e-05 0)
(25.387 -5.58188e-05 0)
(25.1948 -5.20405e-05 0)
(25.0031 -4.81973e-05 0)
(24.8118 -4.43324e-05 0)
(24.6209 -4.04892e-05 0)
(24.4304 -3.67102e-05 0)
(24.2403 -3.30352e-05 0)
(24.0507 -2.95e-05 0)
(23.8615 -2.61363e-05 0)
(23.6727 -2.29698e-05 0)
(23.4843 -2.00203e-05 0)
(23.2964 -1.73012e-05 0)
(23.109 -1.48199e-05 0)
(22.9219 -1.25786e-05 0)
(22.7354 -1.05745e-05 0)
(22.5493 -8.80013e-06 0)
(22.3637 -7.2444e-06 0)
(22.1786 -5.89323e-06 0)
(21.994 -4.73036e-06 0)
(21.8099 -3.7384e-06 0)
(21.6264 -2.89935e-06 0)
(21.4433 -2.19513e-06 0)
(21.2609 -1.6082e-06 0)
(21.079 -1.12174e-06 0)
(20.8977 -7.20128e-07 0)
(20.717 -3.88843e-07 0)
(20.5369 -1.14584e-07 0)
(20.3574 1.04506e-07 0)
(20.1786 2.54957e-07 0)
(20.0005 3.81884e-07 0)
(19.823 4.85034e-07 0)
(19.6463 5.68831e-07 0)
(19.4703 6.37267e-07 0)
(19.295 6.94072e-07 0)
(19.1205 7.422e-07 0)
(18.9467 7.84299e-07 0)
(18.7737 8.22082e-07 0)
(18.6015 8.56761e-07 0)
(18.4301 8.88947e-07 0)
(18.2595 9.19435e-07 0)
(18.0897 9.4887e-07 0)
(17.9207 9.78492e-07 0)
(17.7526 1.0081e-06 0)
(17.5854 1.03842e-06 0)
(17.4189 1.06839e-06 0)
(17.2534 1.09887e-06 0)
(17.0887 1.12931e-06 0)
(16.9249 1.1604e-06 0)
(16.762 1.19213e-06 0)
(16.5999 1.22459e-06 0)
(16.4388 1.25748e-06 0)
(16.2785 1.29067e-06 0)
(16.1192 1.32338e-06 0)
(15.9607 1.35676e-06 0)
(15.8032 1.38949e-06 0)
(15.6465 1.42341e-06 0)
(15.4908 1.45745e-06 0)
(15.336 1.49189e-06 0)
(15.1822 1.52663e-06 0)
(15.0292 1.5623e-06 0)
(14.8772 1.59734e-06 0)
(14.7262 1.63362e-06 0)
(14.5761 1.66877e-06 0)
(14.427 1.70454e-06 0)
(14.2788 1.73953e-06 0)
(14.1316 1.77561e-06 0)
(13.9853 1.81141e-06 0)
(13.84 1.84827e-06 0)
(13.6957 1.88429e-06 0)
(13.5523 1.92235e-06 0)
(13.41 1.95729e-06 0)
(13.2686 1.99574e-06 0)
(13.1281 2.03039e-06 0)
(12.9887 2.07186e-06 0)
(12.8501 2.10535e-06 0)
(12.7126 2.14629e-06 0)
(12.576 2.18091e-06 0)
(12.4404 2.22444e-06 0)
(12.3058 2.25686e-06 0)
(12.1721 2.30077e-06 0)
(12.0394 2.33155e-06 0)
(11.9076 2.38196e-06 0)
(11.7769 2.40837e-06 0)
(11.6471 2.46507e-06 0)
(11.5182 2.48153e-06 0)
(11.3904 2.55319e-06 0)
(11.2635 2.55192e-06 0)
(11.1376 2.65012e-06 0)
(11.0127 2.60713e-06 0)
(10.8888 2.77113e-06 0)
(10.7658 2.61996e-06 0)
(10.6439 2.95783e-06 0)
(10.5229 2.51279e-06 0)
(10.4029 3.2652e-06 0)
(10.2839 2.18386e-06 0)
(10.1659 3.77613e-06 0)
(10.0488 1.60003e-06 0)
(9.93273 4.44927e-06 0)
(9.81765 9.4396e-07 0)
(9.70353 5.02767e-06 0)
(9.59044 5.06128e-07 0)
(9.47829 5.40324e-06 0)
(9.3672 1.4928e-07 0)
(9.25704 6.1199e-06 0)
(9.14797 -2.34281e-06 0)
(9.03982 9.35257e-06 0)
(8.93278 -2.73392e-06 0)
(8.82669 2.07105e-05 0)
(8.72188 5.86536e-05 0)
(8.6187 0.000341103 0)
(8.51967 0.00174865 0)
(8.41516 0.0155603 0)
(8.27528 0.0217027 0)
(42.6239 -9.97301e-05 0)
(42.4382 -9.1703e-05 0)
(42.2219 -8.97253e-05 0)
(42.0179 -9.08787e-05 0)
(41.8233 -9.18325e-05 0)
(41.6296 -9.24687e-05 0)
(41.4343 -9.29623e-05 0)
(41.2379 -9.33405e-05 0)
(41.0412 -9.36316e-05 0)
(40.8442 -9.38427e-05 0)
(40.6469 -9.40057e-05 0)
(40.4493 -9.41244e-05 0)
(40.2512 -9.42167e-05 0)
(40.0529 -9.42884e-05 0)
(39.8541 -9.43455e-05 0)
(39.6551 -9.43922e-05 0)
(39.4558 -9.44318e-05 0)
(39.2562 -9.4466e-05 0)
(39.0564 -9.44968e-05 0)
(38.8564 -9.45253e-05 0)
(38.6561 -9.45518e-05 0)
(38.4558 -9.45776e-05 0)
(38.2552 -9.4602e-05 0)
(38.0546 -9.46267e-05 0)
(37.8539 -9.46507e-05 0)
(37.6531 -9.46749e-05 0)
(37.4523 -9.46996e-05 0)
(37.2515 -9.47243e-05 0)
(37.0507 -9.47494e-05 0)
(36.8499 -9.47762e-05 0)
(36.6492 -9.48021e-05 0)
(36.4484 -9.48306e-05 0)
(36.2477 -9.48594e-05 0)
(36.0471 -9.4889e-05 0)
(35.8464 -9.49212e-05 0)
(35.6459 -9.49531e-05 0)
(35.4453 -9.49884e-05 0)
(35.2448 -9.50249e-05 0)
(35.0442 -9.50629e-05 0)
(34.8437 -9.51053e-05 0)
(34.6431 -9.51512e-05 0)
(34.4425 -9.51986e-05 0)
(34.2418 -9.52477e-05 0)
(34.0411 -9.52975e-05 0)
(33.8402 -9.5349e-05 0)
(33.6393 -9.54033e-05 0)
(33.4383 -9.5464e-05 0)
(33.2371 -9.55329e-05 0)
(33.0358 -9.56084e-05 0)
(32.8343 -9.5691e-05 0)
(32.6327 -9.57727e-05 0)
(32.4309 -9.58549e-05 0)
(32.229 -9.59348e-05 0)
(32.0269 -9.60133e-05 0)
(31.8246 -9.60931e-05 0)
(31.6223 -9.61761e-05 0)
(31.4198 -9.62609e-05 0)
(31.2172 -9.6346e-05 0)
(31.0146 -9.64307e-05 0)
(30.8119 -9.65144e-05 0)
(30.6092 -9.65968e-05 0)
(30.4064 -9.66789e-05 0)
(30.2038 -9.67591e-05 0)
(30.0011 -9.68318e-05 0)
(29.7986 -9.68864e-05 0)
(29.5962 -9.69114e-05 0)
(29.394 -9.68954e-05 0)
(29.192 -9.68276e-05 0)
(28.9902 -9.66979e-05 0)
(28.7887 -9.6496e-05 0)
(28.5875 -9.62099e-05 0)
(28.3866 -9.58238e-05 0)
(28.186 -9.53185e-05 0)
(27.9858 -9.46715e-05 0)
(27.786 -9.3858e-05 0)
(27.5866 -9.28525e-05 0)
(27.3876 -9.163e-05 0)
(27.1891 -9.01678e-05 0)
(26.991 -8.84469e-05 0)
(26.7933 -8.64527e-05 0)
(26.5962 -8.4176e-05 0)
(26.3995 -8.16134e-05 0)
(26.2032 -7.87686e-05 0)
(26.0075 -7.5652e-05 0)
(25.8122 -7.22814e-05 0)
(25.6175 -6.86817e-05 0)
(25.4232 -6.48836e-05 0)
(25.2294 -6.09237e-05 0)
(25.0362 -5.68433e-05 0)
(24.8434 -5.26871e-05 0)
(24.6511 -4.85015e-05 0)
(24.4594 -4.43339e-05 0)
(24.2681 -4.02302e-05 0)
(24.0773 -3.62339e-05 0)
(23.887 -3.23848e-05 0)
(23.6973 -2.87177e-05 0)
(23.508 -2.52614e-05 0)
(23.3192 -2.20384e-05 0)
(23.1309 -1.90642e-05 0)
(22.9432 -1.63481e-05 0)
(22.7559 -1.38932e-05 0)
(22.5691 -1.16969e-05 0)
(22.3829 -9.75203e-06 0)
(22.1972 -8.04684e-06 0)
(22.0119 -6.56643e-06 0)
(21.8273 -5.29326e-06 0)
(21.6431 -4.20839e-06 0)
(21.4595 -3.29203e-06 0)
(21.2765 -2.52422e-06 0)
(21.094 -1.8854e-06 0)
(20.9121 -1.35671e-06 0)
(20.7308 -9.2024e-07 0)
(20.5501 -5.59128e-07 0)
(20.3701 -2.56305e-07 0)
(20.1907 1.37234e-08 0)
(20.0119 1.72308e-07 0)
(19.8338 3.03247e-07 0)
(19.6564 4.09499e-07 0)
(19.4797 4.9582e-07 0)
(19.3038 5.66337e-07 0)
(19.1285 6.24391e-07 0)
(18.954 6.72935e-07 0)
(18.7803 7.14612e-07 0)
(18.6074 7.51328e-07 0)
(18.4352 7.84481e-07 0)
(18.2639 8.14751e-07 0)
(18.0933 8.42969e-07 0)
(17.9236 8.70101e-07 0)
(17.7547 8.96989e-07 0)
(17.5867 9.239e-07 0)
(17.4194 9.511e-07 0)
(17.2531 9.78261e-07 0)
(17.0876 1.00558e-06 0)
(16.923 1.03311e-06 0)
(16.7592 1.06113e-06 0)
(16.5964 1.08983e-06 0)
(16.4344 1.11925e-06 0)
(16.2733 1.14913e-06 0)
(16.1131 1.17927e-06 0)
(15.9538 1.20932e-06 0)
(15.7954 1.23953e-06 0)
(15.6379 1.2699e-06 0)
(15.4814 1.3008e-06 0)
(15.3257 1.33212e-06 0)
(15.171 1.3639e-06 0)
(15.0172 1.39604e-06 0)
(14.8643 1.42869e-06 0)
(14.7124 1.46156e-06 0)
(14.5614 1.49486e-06 0)
(14.4114 1.52788e-06 0)
(14.2623 1.56093e-06 0)
(14.1142 1.59394e-06 0)
(13.9671 1.62749e-06 0)
(13.8209 1.66134e-06 0)
(13.6757 1.69569e-06 0)
(13.5314 1.73026e-06 0)
(13.3881 1.76519e-06 0)
(13.2458 1.79972e-06 0)
(13.1045 1.83483e-06 0)
(12.9641 1.86975e-06 0)
(12.8247 1.90596e-06 0)
(12.6863 1.94139e-06 0)
(12.5488 1.97803e-06 0)
(12.4123 2.01389e-06 0)
(12.2768 2.05098e-06 0)
(12.1422 2.08641e-06 0)
(12.0086 2.12363e-06 0)
(11.876 2.15943e-06 0)
(11.7443 2.19854e-06 0)
(11.6136 2.23433e-06 0)
(11.4839 2.2745e-06 0)
(11.3552 2.30894e-06 0)
(11.2274 2.35126e-06 0)
(11.1006 2.38369e-06 0)
(10.9748 2.43031e-06 0)
(10.85 2.4581e-06 0)
(10.7262 2.51403e-06 0)
(10.6033 2.52771e-06 0)
(10.4814 2.60882e-06 0)
(10.3605 2.58455e-06 0)
(10.2406 2.73715e-06 0)
(10.1217 2.62636e-06 0)
(10.0037 2.91001e-06 0)
(9.88679 2.65909e-06 0)
(9.77079 3.11571e-06 0)
(9.65581 2.70301e-06 0)
(9.54177 3.31965e-06 0)
(9.42877 2.76144e-06 0)
(9.31672 3.47002e-06 0)
(9.20572 2.78762e-06 0)
(9.09565 3.61597e-06 0)
(8.98667 2.56855e-06 0)
(8.87861 4.3169e-06 0)
(8.77167 2.94435e-06 0)
(8.66568 5.75557e-06 0)
(8.56097 9.02505e-06 0)
(8.45798 3.96929e-05 0)
(8.36026 0.000265667 0)
(8.26253 0.00963564 0)
(8.80029 0.0260862 0)
(7.3311 0.275874 -3.57973e-15)
(7.15285 0.771857 7.1607e-15)
(7.11427 1.31784 -1.34226e-14)
(7.07002 1.85981 2.77332e-14)
(6.97447 2.39031 -2.86165e-14)
(6.93116 2.95252 -1.78646e-15)
(7.08442 3.6734 -6.8059e-20)
(7.37126 4.6017 -2.48779e-14)
(7.42303 5.50053 -1.15394e-13)
(7.01876 6.03789 1.13628e-13)
(6.26006 6.15941 -2.84397e-14)
(5.30051 5.95006 -5.87987e-14)
(4.22857 5.42292 3.03991e-14)
(3.39118 5.08653 0)
(3.17033 5.91488 2.8603e-14)
(3.32895 7.88188 2.83615e-14)
(3.40254 10.4975 -2.80755e-14)
(3.13155 13.4643 2.77831e-14)
(2.32558 16.1288 2.15629e-16)
(1.16995 17.5356 -2.1556e-16)
(7.83678 0.374983 0)
(7.77139 0.968706 0)
(7.74792 1.64733 -1.82937e-15)
(7.68209 2.34637 -3.65711e-15)
(7.54381 3.01779 9.13785e-15)
(7.45597 3.60556 1.82482e-14)
(7.57596 4.21372 0)
(7.81453 5.12192 1.08796e-14)
(7.72761 6.45057 1.81191e-14)
(7.09132 7.53132 -4.34888e-14)
(6.04954 8.09053 2.8982e-14)
(4.74936 8.20747 1.45075e-14)
(3.35568 7.69606 -1.45536e-14)
(2.57178 6.7138 1.46468e-14)
(3.06374 6.36318 0)
(3.53756 7.31925 -1.81519e-15)
(3.71187 8.98867 1.80079e-15)
(3.52534 11.1982 -6.24333e-15)
(2.36306 13.9733 -8.85618e-16)
(-0.00131821 16.5215 0)
(8.27708 0.0220655 -4.86257e-17)
(8.29298 -9.2998e-05 -2.47011e-14)
(8.36542 -0.024201 2.50903e-14)
(8.48899 -0.0386652 -2.41209e-14)
(8.6531 -0.0186624 -2.64597e-14)
(8.83454 0.0560738 9.84617e-14)
(9.01454 0.163816 -4.98318e-14)
(9.22411 0.240828 4.83048e-14)
(9.54488 0.273982 -9.82389e-14)
(9.95581 0.413417 1.5588e-15)
(10.3257 0.784647 4.83582e-14)
(10.5597 1.38592 0)
(10.6056 2.18143 -4.83269e-14)
(10.3598 3.11889 4.83243e-14)
(9.61362 4.0858 -3.89837e-16)
(8.7015 4.80585 0)
(8.17591 5.17948 3.90761e-16)
(8.41441 5.28411 0)
(9.34754 5.38068 0)
(10.282 5.84476 0)
(8.1752 0.393313 8.07346e-16)
(8.01879 1.04845 -8.07916e-15)
(7.85784 1.82219 -1.61533e-15)
(7.71241 2.60219 3.22738e-15)
(7.56895 3.37116 -3.22279e-15)
(7.40962 4.13499 6.1586e-20)
(7.21831 4.89291 -1.28457e-14)
(6.97934 5.64153 0)
(6.67875 6.37627 0)
(6.30859 7.08955 -6.38833e-15)
(5.87004 7.77326 6.37737e-15)
(5.369 8.42332 0)
(4.81177 9.03753 -6.35551e-15)
(4.20304 9.61252 6.34446e-15)
(3.54524 10.1482 -6.33229e-15)
(2.83352 10.6526 1.26389e-14)
(2.06242 11.123 -6.30741e-15)
(1.22625 11.5393 0)
(0.32781 11.8769 -3.14476e-15)
(-0.580679 12.1486 0)
(8.9208 0.398939 -1.25921e-15)
(9.01176 0.985114 9.65294e-15)
(8.96232 1.6469 6.71161e-15)
(8.87162 2.31122 1.34116e-14)
(8.78636 2.99026 0)
(8.6935 3.70003 0)
(8.57011 4.43846 1.33556e-14)
(8.40077 5.19589 3.33314e-15)
(8.17263 5.96024 -6.65463e-15)
(7.87458 6.72057 3.32163e-15)
(7.50049 7.46937 2.65293e-14)
(7.05009 8.20208 -1.65536e-14)
(6.52578 8.91678 1.65257e-14)
(5.92981 9.61471 -3.29919e-15)
(5.26532 10.3003 -1.317e-14)
(4.54122 10.9724 -2.29958e-14)
(3.76482 11.6108 -1.1472e-14)
(2.939 12.165 -1.63592e-15)
(2.08272 12.5594 9.39947e-15)
(1.26163 12.7008 4.08754e-16)
(0.544438 15.0932 0)
(0.435321 13.1315 0)
(0.258787 15.6453 0)
(0.338025 18.7913 0)
(0.48351 19.4572 0)
(0.527087 18.6234 0)
(0.418476 19.0731 0)
(0.480494 20.812 0)
(0.603414 21.2077 0)
(0.645557 20.6148 0)
(0.526616 21.3232 0)
(0.628361 22.8259 0)
(0.721307 22.8523 0)
(0.74958 21.6548 0)
(0.656265 21.218 0)
(0.566635 23.0688 0)
(0.747348 24.6848 0)
(0.82655 24.3022 0)
(0.850594 22.9181 0)
(0.839306 21.4781 0)
(0.620907 22.252 0)
(0.672337 24.8704 0)
(0.867678 25.7289 0)
(0.932318 24.8987 0)
(0.954805 23.7017 0)
(0.937165 23.0725 0)
(0.846939 23.839 0)
(0.934523 24.7591 0)
(0.999013 24.6543 0)
(1.02785 24.2042 0)
(1.04279 23.8708 0)
(1.05174 23.6507 0)
(1.05644 23.4895 0)
(1.05879 23.3587 0)
(1.05965 23.2344 0)
(1.05876 23.0818 0)
(1.05375 22.8235 0)
(1.04185 22.2742 0)
(1.02018 21.7818 0)
(0.891374 22.4714 0)
(0.963559 23.5375 0)
(1.02814 23.5667 0)
(1.05053 23.1942 0)
(1.05973 22.9156 0)
(1.06399 22.7388 0)
(1.06537 22.6111 0)
(1.06517 22.51 0)
(1.06432 22.4239 0)
(1.06311 22.3462 0)
(1.06163 22.2732 0)
(1.0599 22.2031 0)
(1.05794 22.1349 0)
(1.05577 22.0681 0)
(1.05344 22.0025 0)
(1.05106 21.9385 0)
(1.04868 21.8759 0)
(1.04632 21.8145 0)
(1.04401 21.7539 0)
(1.04178 21.6939 0)
(1.03965 21.6343 0)
(1.03762 21.575 0)
(1.03571 21.5158 0)
(1.0339 21.4567 0)
(1.03218 21.3977 0)
(1.03054 21.3386 0)
(1.02895 21.2797 0)
(1.02738 21.2209 0)
(1.02579 21.1624 0)
(1.02413 21.1042 0)
(1.02237 21.0466 0)
(1.02044 20.9896 0)
(1.01829 20.9333 0)
(1.01584 20.878 0)
(1.01302 20.8236 0)
(1.00972 20.7703 0)
(1.00584 20.7181 0)
(1.0012 20.667 0)
(0.995665 20.6168 0)
(0.989025 20.5673 0)
(0.981064 20.5182 0)
(0.97154 20.4686 0)
(0.960191 20.4176 0)
(0.946737 20.3637 0)
(0.93088 20.3045 0)
(0.912336 20.2355 0)
(0.890766 20.1493 0)
(0.86592 20.0309 0)
(0.837654 19.8483 0)
(0.806041 19.5335 0)
(0.769944 18.9684 0)
(0.720519 18.0999 0)
(0.615432 17.8246 0)
(0.465755 19.2413 0)
(0.47549 20.9676 0)
(0.530025 21.2904 0)
(0.542241 20.7336 0)
(0.519926 20.1575 0)