/*--------------------------------*- C++ -*----------------------------------*\
| =========                 |                                                 |
| \\      /  F ield         | OpenFOAM: The Open Source CFD Toolbox           |
|  \\    /   O peration     | Version:  3.0.x                                 |
|   \\  /    A nd           | Web:      www.OpenFOAM.org                      |
|    \\/     M anipulation  |                                                 |
\*---------------------------------------------------------------------------*/
FoamFile
{
    version     2.0;
    format      ascii;
    class       volScalarField;
    location    "0.49";
    object      p;
}
// * * * * * * * * * * * * * * * * * * * * * * * * * * * * * * * * * * * * * //

dimensions      [1 -1 -2 0 0 0 0];

internalField   nonuniform List<scalar> 
6900
(
1.82105e+07
1.82106e+07
1.82106e+07
1.82107e+07
1.82108e+07
1.82109e+07
1.82111e+07
1.82112e+07
1.82114e+07
1.82116e+07
1.82118e+07
1.8212e+07
1.82123e+07
1.82126e+07
1.82129e+07
1.82132e+07
1.82136e+07
1.8214e+07
1.82144e+07
1.82148e+07
1.82153e+07
1.82158e+07
1.82164e+07
1.82169e+07
1.82175e+07
1.82181e+07
1.82188e+07
1.82194e+07
1.82201e+07
1.82208e+07
1.82216e+07
1.82223e+07
1.82231e+07
1.82239e+07
1.82247e+07
1.82256e+07
1.82265e+07
1.82273e+07
1.82282e+07
1.82292e+07
1.82301e+07
1.8231e+07
1.8232e+07
1.8233e+07
1.8234e+07
1.82351e+07
1.82361e+07
1.82372e+07
1.82383e+07
1.82395e+07
1.82407e+07
1.82419e+07
1.82431e+07
1.82443e+07
1.82456e+07
1.8247e+07
1.82483e+07
1.82497e+07
1.82511e+07
1.82526e+07
1.82541e+07
1.82556e+07
1.82572e+07
1.82588e+07
1.82604e+07
1.8262e+07
1.82637e+07
1.82654e+07
1.82671e+07
1.82689e+07
1.82706e+07
1.82724e+07
1.82742e+07
1.82761e+07
1.82779e+07
1.82798e+07
1.82817e+07
1.82836e+07
1.82856e+07
1.82875e+07
1.82895e+07
1.82915e+07
1.82936e+07
1.82956e+07
1.82977e+07
1.82998e+07
1.8302e+07
1.83041e+07
1.83064e+07
1.83086e+07
1.83109e+07
1.83132e+07
1.83156e+07
1.8318e+07
1.83204e+07
1.83229e+07
1.83254e+07
1.83279e+07
1.83305e+07
1.83331e+07
1.83358e+07
1.83385e+07
1.83412e+07
1.8344e+07
1.83467e+07
1.83495e+07
1.83524e+07
1.83552e+07
1.83581e+07
1.8361e+07
1.8364e+07
1.83669e+07
1.83699e+07
1.83729e+07
1.83759e+07
1.83789e+07
1.8382e+07
1.83851e+07
1.83882e+07
1.83913e+07
1.83945e+07
1.83977e+07
1.84009e+07
1.84041e+07
1.84074e+07
1.84107e+07
1.84141e+07
1.84174e+07
1.84208e+07
1.84243e+07
1.84278e+07
1.84313e+07
1.84349e+07
1.84385e+07
1.84421e+07
1.84458e+07
1.84496e+07
1.84533e+07
1.84571e+07
1.8461e+07
1.84649e+07
1.84688e+07
1.84727e+07
1.84767e+07
1.84807e+07
1.84847e+07
1.84888e+07
1.84929e+07
1.8497e+07
1.85011e+07
1.85052e+07
1.85094e+07
1.85135e+07
1.85177e+07
1.8522e+07
1.85262e+07
1.85304e+07
1.85347e+07
1.8539e+07
1.85433e+07
1.85477e+07
1.8552e+07
1.85564e+07
1.85608e+07
1.85652e+07
1.85697e+07
1.85742e+07
1.85787e+07
1.85832e+07
1.85877e+07
1.85923e+07
1.85969e+07
1.86016e+07
1.86062e+07
1.86109e+07
1.86156e+07
1.86204e+07
1.86252e+07
1.863e+07
1.86349e+07
1.86397e+07
1.86447e+07
1.86496e+07
1.86546e+07
1.86596e+07
1.86646e+07
1.86697e+07
1.86747e+07
1.86798e+07
1.8685e+07
1.86901e+07
1.86953e+07
1.87004e+07
1.87056e+07
1.87108e+07
1.8716e+07
1.87212e+07
1.87264e+07
1.87317e+07
1.87371e+07
1.82105e+07
1.82106e+07
1.82106e+07
1.82107e+07
1.82108e+07
1.82109e+07
1.82111e+07
1.82112e+07
1.82114e+07
1.82116e+07
1.82118e+07
1.8212e+07
1.82123e+07
1.82126e+07
1.82129e+07
1.82132e+07
1.82136e+07
1.8214e+07
1.82144e+07
1.82148e+07
1.82153e+07
1.82158e+07
1.82164e+07
1.82169e+07
1.82175e+07
1.82181e+07
1.82188e+07
1.82194e+07
1.82201e+07
1.82208e+07
1.82216e+07
1.82223e+07
1.82231e+07
1.82239e+07
1.82247e+07
1.82256e+07
1.82265e+07
1.82273e+07
1.82282e+07
1.82292e+07
1.82301e+07
1.8231e+07
1.8232e+07
1.8233e+07
1.8234e+07
1.82351e+07
1.82361e+07
1.82372e+07
1.82383e+07
1.82395e+07
1.82407e+07
1.82419e+07
1.82431e+07
1.82443e+07
1.82456e+07
1.8247e+07
1.82483e+07
1.82497e+07
1.82511e+07
1.82526e+07
1.82541e+07
1.82556e+07
1.82572e+07
1.82588e+07
1.82604e+07
1.8262e+07
1.82637e+07
1.82654e+07
1.82671e+07
1.82689e+07
1.82706e+07
1.82724e+07
1.82742e+07
1.82761e+07
1.82779e+07
1.82798e+07
1.82817e+07
1.82836e+07
1.82856e+07
1.82875e+07
1.82895e+07
1.82915e+07
1.82936e+07
1.82956e+07
1.82977e+07
1.82998e+07
1.8302e+07
1.83041e+07
1.83064e+07
1.83086e+07
1.83109e+07
1.83132e+07
1.83156e+07
1.8318e+07
1.83204e+07
1.83229e+07
1.83254e+07
1.83279e+07
1.83305e+07
1.83331e+07
1.83358e+07
1.83385e+07
1.83412e+07
1.8344e+07
1.83467e+07
1.83495e+07
1.83524e+07
1.83552e+07
1.83581e+07
1.8361e+07
1.8364e+07
1.83669e+07
1.83699e+07
1.83729e+07
1.83759e+07
1.83789e+07
1.8382e+07
1.83851e+07
1.83882e+07
1.83913e+07
1.83945e+07
1.83977e+07
1.84009e+07
1.84041e+07
1.84074e+07
1.84107e+07
1.84141e+07
1.84174e+07
1.84208e+07
1.84243e+07
1.84278e+07
1.84313e+07
1.84349e+07
1.84385e+07
1.84421e+07
1.84458e+07
1.84496e+07
1.84533e+07
1.84571e+07
1.8461e+07
1.84649e+07
1.84688e+07
1.84727e+07
1.84767e+07
1.84807e+07
1.84847e+07
1.84888e+07
1.84929e+07
1.8497e+07
1.85011e+07
1.85052e+07
1.85094e+07
1.85135e+07
1.85177e+07
1.8522e+07
1.85262e+07
1.85304e+07
1.85347e+07
1.8539e+07
1.85433e+07
1.85477e+07
1.8552e+07
1.85564e+07
1.85608e+07
1.85652e+07
1.85697e+07
1.85742e+07
1.85787e+07
1.85832e+07
1.85877e+07
1.85923e+07
1.85969e+07
1.86016e+07
1.86062e+07
1.86109e+07
1.86156e+07
1.86204e+07
1.86252e+07
1.863e+07
1.86349e+07
1.86397e+07
1.86447e+07
1.86496e+07
1.86546e+07
1.86596e+07
1.86646e+07
1.86697e+07
1.86747e+07
1.86798e+07
1.8685e+07
1.86901e+07
1.86953e+07
1.87004e+07
1.87056e+07
1.87108e+07
1.8716e+07
1.87212e+07
1.87264e+07
1.87317e+07
1.87371e+07
1.82105e+07
1.82106e+07
1.82106e+07
1.82107e+07
1.82108e+07
1.82109e+07
1.82111e+07
1.82112e+07
1.82114e+07
1.82116e+07
1.82118e+07
1.8212e+07
1.82123e+07
1.82126e+07
1.82129e+07
1.82132e+07
1.82136e+07
1.8214e+07
1.82144e+07
1.82148e+07
1.82153e+07
1.82158e+07
1.82164e+07
1.82169e+07
1.82175e+07
1.82181e+07
1.82188e+07
1.82194e+07
1.82201e+07
1.82208e+07
1.82216e+07
1.82223e+07
1.82231e+07
1.82239e+07
1.82247e+07
1.82256e+07
1.82265e+07
1.82273e+07
1.82282e+07
1.82292e+07
1.82301e+07
1.8231e+07
1.8232e+07
1.8233e+07
1.8234e+07
1.82351e+07
1.82361e+07
1.82372e+07
1.82383e+07
1.82395e+07
1.82407e+07
1.82419e+07
1.82431e+07
1.82443e+07
1.82456e+07
1.8247e+07
1.82483e+07
1.82497e+07
1.82511e+07
1.82526e+07
1.82541e+07
1.82556e+07
1.82572e+07
1.82588e+07
1.82604e+07
1.8262e+07
1.82637e+07
1.82654e+07
1.82671e+07
1.82689e+07
1.82706e+07
1.82724e+07
1.82742e+07
1.82761e+07
1.82779e+07
1.82798e+07
1.82817e+07
1.82836e+07
1.82856e+07
1.82875e+07
1.82895e+07
1.82915e+07
1.82936e+07
1.82956e+07
1.82977e+07
1.82998e+07
1.8302e+07
1.83041e+07
1.83064e+07
1.83086e+07
1.83109e+07
1.83132e+07
1.83156e+07
1.8318e+07
1.83204e+07
1.83229e+07
1.83254e+07
1.83279e+07
1.83305e+07
1.83331e+07
1.83358e+07
1.83385e+07
1.83412e+07
1.8344e+07
1.83467e+07
1.83495e+07
1.83524e+07
1.83552e+07
1.83581e+07
1.8361e+07
1.8364e+07
1.83669e+07
1.83699e+07
1.83729e+07
1.83759e+07
1.83789e+07
1.8382e+07
1.83851e+07
1.83882e+07
1.83913e+07
1.83945e+07
1.83977e+07
1.84009e+07
1.84041e+07
1.84074e+07
1.84107e+07
1.84141e+07
1.84174e+07
1.84208e+07
1.84243e+07
1.84278e+07
1.84313e+07
1.84349e+07
1.84385e+07
1.84421e+07
1.84458e+07
1.84496e+07
1.84533e+07
1.84571e+07
1.8461e+07
1.84649e+07
1.84688e+07
1.84727e+07
1.84767e+07
1.84807e+07
1.84847e+07
1.84888e+07
1.84929e+07
1.8497e+07
1.85011e+07
1.85052e+07
1.85094e+07
1.85135e+07
1.85177e+07
1.8522e+07
1.85262e+07
1.85304e+07
1.85347e+07
1.8539e+07
1.85433e+07
1.85477e+07
1.8552e+07
1.85564e+07
1.85608e+07
1.85652e+07
1.85697e+07
1.85742e+07
1.85787e+07
1.85832e+07
1.85877e+07
1.85923e+07
1.85969e+07
1.86016e+07
1.86062e+07
1.86109e+07
1.86156e+07
1.86204e+07
1.86252e+07
1.863e+07
1.86349e+07
1.86397e+07
1.86447e+07
1.86496e+07
1.86546e+07
1.86596e+07
1.86646e+07
1.86697e+07
1.86747e+07
1.86798e+07
1.8685e+07
1.86901e+07
1.86953e+07
1.87004e+07
1.87056e+07
1.87108e+07
1.8716e+07
1.87212e+07
1.87264e+07
1.87316e+07
1.87369e+07
1.82105e+07
1.82106e+07
1.82106e+07
1.82107e+07
1.82108e+07
1.82109e+07
1.82111e+07
1.82112e+07
1.82114e+07
1.82116e+07
1.82118e+07
1.8212e+07
1.82123e+07
1.82126e+07
1.82129e+07
1.82132e+07
1.82136e+07
1.8214e+07
1.82144e+07
1.82148e+07
1.82153e+07
1.82158e+07
1.82164e+07
1.82169e+07
1.82175e+07
1.82181e+07
1.82188e+07
1.82194e+07
1.82201e+07
1.82208e+07
1.82216e+07
1.82223e+07
1.82231e+07
1.82239e+07
1.82247e+07
1.82256e+07
1.82265e+07
1.82273e+07
1.82282e+07
1.82292e+07
1.82301e+07
1.8231e+07
1.8232e+07
1.8233e+07
1.8234e+07
1.82351e+07
1.82361e+07
1.82372e+07
1.82383e+07
1.82395e+07
1.82407e+07
1.82419e+07
1.82431e+07
1.82443e+07
1.82456e+07
1.8247e+07
1.82483e+07
1.82497e+07
1.82511e+07
1.82526e+07
1.82541e+07
1.82556e+07
1.82572e+07
1.82588e+07
1.82604e+07
1.8262e+07
1.82637e+07
1.82654e+07
1.82671e+07
1.82689e+07
1.82706e+07
1.82724e+07
1.82742e+07
1.82761e+07
1.82779e+07
1.82798e+07
1.82817e+07
1.82836e+07
1.82856e+07
1.82875e+07
1.82895e+07
1.82915e+07
1.82936e+07
1.82956e+07
1.82977e+07
1.82998e+07
1.8302e+07
1.83041e+07
1.83064e+07
1.83086e+07
1.83109e+07
1.83132e+07
1.83156e+07
1.8318e+07
1.83204e+07
1.83229e+07
1.83254e+07
1.83279e+07
1.83305e+07
1.83331e+07
1.83358e+07
1.83385e+07
1.83412e+07
1.8344e+07
1.83467e+07
1.83495e+07
1.83524e+07
1.83552e+07
1.83581e+07
1.8361e+07
1.8364e+07
1.83669e+07
1.83699e+07
1.83729e+07
1.83759e+07
1.83789e+07
1.8382e+07
1.83851e+07
1.83882e+07
1.83913e+07
1.83945e+07
1.83977e+07
1.84009e+07
1.84041e+07
1.84074e+07
1.84107e+07
1.84141e+07
1.84174e+07
1.84208e+07
1.84243e+07
1.84278e+07
1.84313e+07
1.84349e+07
1.84385e+07
1.84421e+07
1.84458e+07
1.84496e+07
1.84533e+07
1.84571e+07
1.8461e+07
1.84649e+07
1.84688e+07
1.84727e+07
1.84767e+07
1.84807e+07
1.84847e+07
1.84888e+07
1.84929e+07
1.8497e+07
1.85011e+07
1.85052e+07
1.85094e+07
1.85135e+07
1.85177e+07
1.8522e+07
1.85262e+07
1.85304e+07
1.85347e+07
1.8539e+07
1.85433e+07
1.85477e+07
1.8552e+07
1.85564e+07
1.85608e+07
1.85652e+07
1.85697e+07
1.85742e+07
1.85787e+07
1.85832e+07
1.85877e+07
1.85923e+07
1.85969e+07
1.86016e+07
1.86062e+07
1.86109e+07
1.86156e+07
1.86204e+07
1.86252e+07
1.863e+07
1.86349e+07
1.86397e+07
1.86447e+07
1.86496e+07
1.86546e+07
1.86596e+07
1.86646e+07
1.86697e+07
1.86747e+07
1.86798e+07
1.8685e+07
1.86901e+07
1.86953e+07
1.87004e+07
1.87056e+07
1.87108e+07
1.8716e+07
1.87212e+07
1.87264e+07
1.87316e+07
1.87367e+07
1.82105e+07
1.82106e+07
1.82106e+07
1.82107e+07
1.82108e+07
1.82109e+07
1.82111e+07
1.82112e+07
1.82114e+07
1.82116e+07
1.82118e+07
1.8212e+07
1.82123e+07
1.82126e+07
1.82129e+07
1.82132e+07
1.82136e+07
1.8214e+07
1.82144e+07
1.82148e+07
1.82153e+07
1.82158e+07
1.82164e+07
1.82169e+07
1.82175e+07
1.82181e+07
1.82188e+07
1.82194e+07
1.82201e+07
1.82208e+07
1.82216e+07
1.82223e+07
1.82231e+07
1.82239e+07
1.82247e+07
1.82256e+07
1.82265e+07
1.82273e+07
1.82282e+07
1.82292e+07
1.82301e+07
1.8231e+07
1.8232e+07
1.8233e+07
1.8234e+07
1.82351e+07
1.82361e+07
1.82372e+07
1.82383e+07
1.82395e+07
1.82407e+07
1.82419e+07
1.82431e+07
1.82443e+07
1.82456e+07
1.8247e+07
1.82483e+07
1.82497e+07
1.82511e+07
1.82526e+07
1.82541e+07
1.82556e+07
1.82572e+07
1.82588e+07
1.82604e+07
1.8262e+07
1.82637e+07
1.82654e+07
1.82671e+07
1.82689e+07
1.82706e+07
1.82724e+07
1.82742e+07
1.82761e+07
1.82779e+07
1.82798e+07
1.82817e+07
1.82836e+07
1.82856e+07
1.82875e+07
1.82895e+07
1.82915e+07
1.82936e+07
1.82956e+07
1.82977e+07
1.82998e+07
1.8302e+07
1.83041e+07
1.83064e+07
1.83086e+07
1.83109e+07
1.83132e+07
1.83156e+07
1.8318e+07
1.83204e+07
1.83229e+07
1.83254e+07
1.83279e+07
1.83305e+07
1.83331e+07
1.83358e+07
1.83385e+07
1.83412e+07
1.8344e+07
1.83467e+07
1.83495e+07
1.83524e+07
1.83552e+07
1.83581e+07
1.8361e+07
1.8364e+07
1.83669e+07
1.83699e+07
1.83729e+07
1.83759e+07
1.83789e+07
1.8382e+07
1.83851e+07
1.83882e+07
1.83913e+07
1.83945e+07
1.83977e+07
1.84009e+07
1.84041e+07
1.84074e+07
1.84107e+07
1.84141e+07
1.84174e+07
1.84208e+07
1.84243e+07
1.84278e+07
1.84313e+07
1.84349e+07
1.84385e+07
1.84421e+07
1.84458e+07
1.84496e+07
1.84533e+07
1.84571e+07
1.8461e+07
1.84649e+07
1.84688e+07
1.84727e+07
1.84767e+07
1.84807e+07
1.84847e+07
1.84888e+07
1.84929e+07
1.8497e+07
1.85011e+07
1.85052e+07
1.85094e+07
1.85135e+07
1.85177e+07
1.8522e+07
1.85262e+07
1.85304e+07
1.85347e+07
1.8539e+07
1.85433e+07
1.85477e+07
1.8552e+07
1.85564e+07
1.85608e+07
1.85652e+07
1.85697e+07
1.85742e+07
1.85787e+07
1.85832e+07
1.85877e+07
1.85923e+07
1.85969e+07
1.86016e+07
1.86062e+07
1.86109e+07
1.86156e+07
1.86204e+07
1.86252e+07
1.863e+07
1.86349e+07
1.86397e+07
1.86447e+07
1.86496e+07
1.86546e+07
1.86596e+07
1.86646e+07
1.86697e+07
1.86747e+07
1.86798e+07
1.8685e+07
1.86901e+07
1.86953e+07
1.87004e+07
1.87056e+07
1.87108e+07
1.8716e+07
1.87212e+07
1.87264e+07
1.87316e+07
1.87366e+07
1.87426e+07
1.87448e+07
1.8746e+07
1.87468e+07
1.87477e+07
1.87484e+07
1.87489e+07
1.87493e+07
1.87501e+07
1.87512e+07
1.8753e+07
1.87552e+07
1.87562e+07
1.87551e+07
1.87523e+07
1.87508e+07
1.87504e+07
1.87502e+07
1.87502e+07
1.8751e+07
1.87419e+07
1.87435e+07
1.87446e+07
1.87454e+07
1.87463e+07
1.8747e+07
1.87474e+07
1.87478e+07
1.87486e+07
1.87497e+07
1.87517e+07
1.87537e+07
1.87545e+07
1.8753e+07
1.87498e+07
1.87483e+07
1.87481e+07
1.87481e+07
1.87484e+07
1.87496e+07
1.87401e+07
1.87411e+07
1.87419e+07
1.87425e+07
1.87429e+07
1.87433e+07
1.87436e+07
1.87437e+07
1.87436e+07
1.87433e+07
1.87428e+07
1.87423e+07
1.87418e+07
1.87415e+07
1.87412e+07
1.87408e+07
1.874e+07
1.87392e+07
1.87382e+07
1.87371e+07
1.87376e+07
1.87383e+07
1.87393e+07
1.87402e+07
1.87407e+07
1.87405e+07
1.87403e+07
1.874e+07
1.87397e+07
1.87394e+07
1.8739e+07
1.87387e+07
1.87384e+07
1.87378e+07
1.87376e+07
1.87374e+07
1.87373e+07
1.87373e+07
1.87374e+07
1.87376e+07
1.87356e+07
1.87347e+07
1.87349e+07
1.87356e+07
1.87359e+07
1.87357e+07
1.87353e+07
1.87349e+07
1.87344e+07
1.87339e+07
1.87334e+07
1.87329e+07
1.87323e+07
1.87317e+07
1.87313e+07
1.8731e+07
1.87307e+07
1.87307e+07
1.87308e+07
1.87314e+07
1.87511e+07
1.87479e+07
1.87478e+07
1.87513e+07
1.87565e+07
1.87605e+07
1.87633e+07
1.87669e+07
1.87715e+07
1.87759e+07
1.87797e+07
1.87834e+07
1.87877e+07
1.87922e+07
1.87965e+07
1.88004e+07
1.88043e+07
1.88085e+07
1.88129e+07
1.88172e+07
1.88214e+07
1.88255e+07
1.88297e+07
1.8834e+07
1.88383e+07
1.88426e+07
1.88469e+07
1.88511e+07
1.88554e+07
1.88597e+07
1.8864e+07
1.88683e+07
1.88727e+07
1.8877e+07
1.88813e+07
1.88855e+07
1.88897e+07
1.8894e+07
1.88983e+07
1.89025e+07
1.89068e+07
1.8911e+07
1.89153e+07
1.89195e+07
1.89238e+07
1.8928e+07
1.89323e+07
1.89365e+07
1.89408e+07
1.8945e+07
1.89492e+07
1.89534e+07
1.89576e+07
1.89619e+07
1.89661e+07
1.89703e+07
1.89745e+07
1.89787e+07
1.89829e+07
1.89871e+07
1.89913e+07
1.89954e+07
1.89996e+07
1.90038e+07
1.90079e+07
1.90121e+07
1.90162e+07
1.90204e+07
1.90245e+07
1.90286e+07
1.90328e+07
1.90369e+07
1.9041e+07
1.90451e+07
1.90492e+07
1.90533e+07
1.90574e+07
1.90615e+07
1.90655e+07
1.90696e+07
1.90737e+07
1.90777e+07
1.90818e+07
1.90858e+07
1.90899e+07
1.9094e+07
1.90985e+07
1.91026e+07
1.91062e+07
1.91098e+07
1.91137e+07
1.91177e+07
1.91217e+07
1.91257e+07
1.91297e+07
1.91336e+07
1.91376e+07
1.91416e+07
1.91456e+07
1.91496e+07
1.91535e+07
1.91574e+07
1.91613e+07
1.91652e+07
1.91691e+07
1.91729e+07
1.91767e+07
1.91805e+07
1.91843e+07
1.9188e+07
1.91917e+07
1.91954e+07
1.91991e+07
1.92027e+07
1.92063e+07
1.92098e+07
1.92134e+07
1.92169e+07
1.92204e+07
1.92238e+07
1.92273e+07
1.92307e+07
1.92341e+07
1.92375e+07
1.92409e+07
1.92443e+07
1.92476e+07
1.9251e+07
1.92543e+07
1.92576e+07
1.92609e+07
1.92642e+07
1.92675e+07
1.92707e+07
1.9274e+07
1.92772e+07
1.92804e+07
1.92836e+07
1.92868e+07
1.92899e+07
1.92931e+07
1.92962e+07
1.92993e+07
1.93024e+07
1.93055e+07
1.93085e+07
1.93116e+07
1.93146e+07
1.93176e+07
1.93205e+07
1.93235e+07
1.93264e+07
1.93293e+07
1.93322e+07
1.9335e+07
1.93379e+07
1.93407e+07
1.93435e+07
1.93462e+07
1.9349e+07
1.93517e+07
1.93544e+07
1.93571e+07
1.93597e+07
1.93623e+07
1.93649e+07
1.93675e+07
1.93701e+07
1.93726e+07
1.93751e+07
1.93776e+07
1.93801e+07
1.93826e+07
1.9385e+07
1.93874e+07
1.93898e+07
1.93922e+07
1.93946e+07
1.93969e+07
1.93993e+07
1.94016e+07
1.94039e+07
1.94061e+07
1.94084e+07
1.94106e+07
1.94128e+07
1.9415e+07
1.94172e+07
1.94194e+07
1.94215e+07
1.94236e+07
1.94258e+07
1.94278e+07
1.94299e+07
1.94319e+07
1.9434e+07
1.9436e+07
1.94379e+07
1.94399e+07
1.94419e+07
1.87505e+07
1.87478e+07
1.87478e+07
1.87513e+07
1.87565e+07
1.87605e+07
1.87633e+07
1.87669e+07
1.87715e+07
1.87759e+07
1.87797e+07
1.87834e+07
1.87877e+07
1.87922e+07
1.87965e+07
1.88003e+07
1.88043e+07
1.88085e+07
1.88129e+07
1.88172e+07
1.88214e+07
1.88255e+07
1.88297e+07
1.8834e+07
1.88383e+07
1.88426e+07
1.88469e+07
1.88511e+07
1.88554e+07
1.88597e+07
1.8864e+07
1.88683e+07
1.88727e+07
1.8877e+07
1.88813e+07
1.88855e+07
1.88897e+07
1.8894e+07
1.88983e+07
1.89025e+07
1.89068e+07
1.8911e+07
1.89153e+07
1.89195e+07
1.89238e+07
1.8928e+07
1.89323e+07
1.89365e+07
1.89407e+07
1.8945e+07
1.89492e+07
1.89534e+07
1.89576e+07
1.89619e+07
1.89661e+07
1.89703e+07
1.89745e+07
1.89787e+07
1.89829e+07
1.89871e+07
1.89913e+07
1.89954e+07
1.89996e+07
1.90038e+07
1.90079e+07
1.90121e+07
1.90162e+07
1.90204e+07
1.90245e+07
1.90286e+07
1.90328e+07
1.90369e+07
1.9041e+07
1.90451e+07
1.90492e+07
1.90533e+07
1.90574e+07
1.90615e+07
1.90655e+07
1.90696e+07
1.90737e+07
1.90777e+07
1.90818e+07
1.90858e+07
1.90899e+07
1.9094e+07
1.90985e+07
1.91026e+07
1.91062e+07
1.91098e+07
1.91137e+07
1.91177e+07
1.91217e+07
1.91257e+07
1.91296e+07
1.91336e+07
1.91376e+07
1.91416e+07
1.91456e+07
1.91496e+07
1.91535e+07
1.91574e+07
1.91613e+07
1.91652e+07
1.91691e+07
1.91729e+07
1.91767e+07
1.91805e+07
1.91843e+07
1.9188e+07
1.91917e+07
1.91954e+07
1.91991e+07
1.92027e+07
1.92063e+07
1.92098e+07
1.92134e+07
1.92169e+07
1.92203e+07
1.92238e+07
1.92273e+07
1.92307e+07
1.92341e+07
1.92375e+07
1.92409e+07
1.92443e+07
1.92476e+07
1.9251e+07
1.92543e+07
1.92576e+07
1.92609e+07
1.92642e+07
1.92675e+07
1.92707e+07
1.9274e+07
1.92772e+07
1.92804e+07
1.92836e+07
1.92868e+07
1.92899e+07
1.92931e+07
1.92962e+07
1.92993e+07
1.93024e+07
1.93055e+07
1.93085e+07
1.93116e+07
1.93146e+07
1.93176e+07
1.93205e+07
1.93235e+07
1.93264e+07
1.93293e+07
1.93322e+07
1.9335e+07
1.93379e+07
1.93407e+07
1.93435e+07
1.93462e+07
1.9349e+07
1.93517e+07
1.93544e+07
1.93571e+07
1.93597e+07
1.93623e+07
1.93649e+07
1.93675e+07
1.93701e+07
1.93726e+07
1.93751e+07
1.93776e+07
1.93801e+07
1.93826e+07
1.9385e+07
1.93874e+07
1.93898e+07
1.93922e+07
1.93946e+07
1.93969e+07
1.93993e+07
1.94016e+07
1.94039e+07
1.94061e+07
1.94084e+07
1.94106e+07
1.94128e+07
1.9415e+07
1.94172e+07
1.94194e+07
1.94215e+07
1.94236e+07
1.94258e+07
1.94278e+07
1.94299e+07
1.94319e+07
1.9434e+07
1.9436e+07
1.94379e+07
1.94399e+07
1.94419e+07
1.87337e+07
1.87405e+07
1.87462e+07
1.87506e+07
1.87544e+07
1.87583e+07
1.87624e+07
1.87666e+07
1.87707e+07
1.87748e+07
1.8779e+07
1.87832e+07
1.87874e+07
1.87915e+07
1.87957e+07
1.87999e+07
1.88042e+07
1.88084e+07
1.88127e+07
1.88169e+07
1.88212e+07
1.88254e+07
1.88297e+07
1.8834e+07
1.88383e+07
1.88426e+07
1.88469e+07
1.88511e+07
1.88554e+07
1.88597e+07
1.8864e+07
1.88683e+07
1.88726e+07
1.88769e+07
1.88811e+07
1.88854e+07
1.88897e+07
1.8894e+07
1.88983e+07
1.89025e+07
1.89068e+07
1.8911e+07
1.89153e+07
1.89196e+07
1.89238e+07
1.8928e+07
1.89323e+07
1.89365e+07
1.89408e+07
1.8945e+07
1.89492e+07
1.89534e+07
1.89577e+07
1.89619e+07
1.89661e+07
1.89703e+07
1.89745e+07
1.89787e+07
1.89829e+07
1.89871e+07
1.89913e+07
1.89954e+07
1.89996e+07
1.90038e+07
1.90079e+07
1.90121e+07
1.90162e+07
1.90204e+07
1.90245e+07
1.90286e+07
1.90328e+07
1.90369e+07
1.9041e+07
1.90451e+07
1.90492e+07
1.90533e+07
1.90574e+07
1.90615e+07
1.90656e+07
1.90696e+07
1.90737e+07
1.90778e+07
1.90818e+07
1.90859e+07
1.90899e+07
1.9094e+07
1.90979e+07
1.91019e+07
1.91058e+07
1.91098e+07
1.91138e+07
1.91178e+07
1.91218e+07
1.91258e+07
1.91298e+07
1.91338e+07
1.91378e+07
1.91418e+07
1.91457e+07
1.91497e+07
1.91536e+07
1.91575e+07
1.91614e+07
1.91653e+07
1.91691e+07
1.9173e+07
1.91768e+07
1.91805e+07
1.91843e+07
1.9188e+07
1.91917e+07
1.91954e+07
1.91991e+07
1.92027e+07
1.92063e+07
1.92098e+07
1.92134e+07
1.92169e+07
1.92203e+07
1.92238e+07
1.92273e+07
1.92307e+07
1.92341e+07
1.92375e+07
1.92409e+07
1.92443e+07
1.92476e+07
1.9251e+07
1.92543e+07
1.92576e+07
1.92609e+07
1.92642e+07
1.92675e+07
1.92707e+07
1.9274e+07
1.92772e+07
1.92804e+07
1.92836e+07
1.92868e+07
1.92899e+07
1.92931e+07
1.92962e+07
1.92993e+07
1.93024e+07
1.93055e+07
1.93085e+07
1.93116e+07
1.93146e+07
1.93176e+07
1.93205e+07
1.93235e+07
1.93264e+07
1.93293e+07
1.93322e+07
1.9335e+07
1.93379e+07
1.93407e+07
1.93435e+07
1.93462e+07
1.9349e+07
1.93517e+07
1.93544e+07
1.93571e+07
1.93597e+07
1.93623e+07
1.93649e+07
1.93675e+07
1.93701e+07
1.93726e+07
1.93751e+07
1.93776e+07
1.93801e+07
1.93826e+07
1.9385e+07
1.93874e+07
1.93898e+07
1.93922e+07
1.93946e+07
1.93969e+07
1.93993e+07
1.94016e+07
1.94039e+07
1.94061e+07
1.94084e+07
1.94106e+07
1.94128e+07
1.9415e+07
1.94172e+07
1.94194e+07
1.94215e+07
1.94236e+07
1.94258e+07
1.94278e+07
1.94299e+07
1.94319e+07
1.9434e+07
1.9436e+07
1.94379e+07
1.94399e+07
1.94418e+07
1.8738e+07
1.87416e+07
1.87456e+07
1.87496e+07
1.87535e+07
1.87575e+07
1.87616e+07
1.87658e+07
1.877e+07
1.87742e+07
1.87784e+07
1.87826e+07
1.87868e+07
1.8791e+07
1.87953e+07
1.87995e+07
1.88038e+07
1.8808e+07
1.88123e+07
1.88166e+07
1.88209e+07
1.88252e+07
1.88295e+07
1.88338e+07
1.88381e+07
1.88424e+07
1.88467e+07
1.8851e+07
1.88553e+07
1.88596e+07
1.88639e+07
1.88682e+07
1.88725e+07
1.88768e+07
1.88811e+07
1.88854e+07
1.88897e+07
1.8894e+07
1.88982e+07
1.89025e+07
1.89068e+07
1.8911e+07
1.89153e+07
1.89196e+07
1.89238e+07
1.89281e+07
1.89323e+07
1.89365e+07
1.89408e+07
1.8945e+07
1.89492e+07
1.89534e+07
1.89577e+07
1.89619e+07
1.89661e+07
1.89703e+07
1.89745e+07
1.89787e+07
1.89829e+07
1.89871e+07
1.89913e+07
1.89954e+07
1.89996e+07
1.90038e+07
1.90079e+07
1.90121e+07
1.90162e+07
1.90204e+07
1.90245e+07
1.90287e+07
1.90328e+07
1.90369e+07
1.9041e+07
1.90451e+07
1.90492e+07
1.90533e+07
1.90574e+07
1.90615e+07
1.90656e+07
1.90697e+07
1.90738e+07
1.90779e+07
1.90819e+07
1.9086e+07
1.90901e+07
1.90941e+07
1.90981e+07
1.9102e+07
1.9106e+07
1.911e+07
1.9114e+07
1.9118e+07
1.9122e+07
1.9126e+07
1.913e+07
1.91339e+07
1.91379e+07
1.91419e+07
1.91458e+07
1.91498e+07
1.91537e+07
1.91576e+07
1.91615e+07
1.91653e+07
1.91692e+07
1.9173e+07
1.91768e+07
1.91806e+07
1.91843e+07
1.91881e+07
1.91918e+07
1.91954e+07
1.91991e+07
1.92027e+07
1.92063e+07
1.92098e+07
1.92134e+07
1.92169e+07
1.92203e+07
1.92238e+07
1.92273e+07
1.92307e+07
1.92341e+07
1.92375e+07
1.92409e+07
1.92443e+07
1.92476e+07
1.9251e+07
1.92543e+07
1.92576e+07
1.92609e+07
1.92642e+07
1.92675e+07
1.92707e+07
1.9274e+07
1.92772e+07
1.92804e+07
1.92836e+07
1.92868e+07
1.92899e+07
1.92931e+07
1.92962e+07
1.92993e+07
1.93024e+07
1.93055e+07
1.93085e+07
1.93116e+07
1.93146e+07
1.93176e+07
1.93205e+07
1.93235e+07
1.93264e+07
1.93293e+07
1.93322e+07
1.9335e+07
1.93379e+07
1.93407e+07
1.93435e+07
1.93462e+07
1.9349e+07
1.93517e+07
1.93544e+07
1.93571e+07
1.93597e+07
1.93623e+07
1.93649e+07
1.93675e+07
1.93701e+07
1.93726e+07
1.93751e+07
1.93776e+07
1.93801e+07
1.93826e+07
1.9385e+07
1.93874e+07
1.93898e+07
1.93922e+07
1.93946e+07
1.93969e+07
1.93993e+07
1.94016e+07
1.94039e+07
1.94061e+07
1.94084e+07
1.94106e+07
1.94128e+07
1.9415e+07
1.94172e+07
1.94194e+07
1.94215e+07
1.94236e+07
1.94258e+07
1.94278e+07
1.94299e+07
1.94319e+07
1.9434e+07
1.9436e+07
1.94379e+07
1.94399e+07
1.94418e+07
1.87368e+07
1.87414e+07
1.87456e+07
1.87496e+07
1.87535e+07
1.87575e+07
1.87616e+07
1.87658e+07
1.877e+07
1.87742e+07
1.87784e+07
1.87826e+07
1.87868e+07
1.8791e+07
1.87953e+07
1.87995e+07
1.88038e+07
1.8808e+07
1.88123e+07
1.88166e+07
1.88209e+07
1.88252e+07
1.88295e+07
1.88338e+07
1.88381e+07
1.88424e+07
1.88467e+07
1.8851e+07
1.88553e+07
1.88596e+07
1.88639e+07
1.88682e+07
1.88725e+07
1.88768e+07
1.88811e+07
1.88854e+07
1.88897e+07
1.8894e+07
1.88982e+07
1.89025e+07
1.89068e+07
1.8911e+07
1.89153e+07
1.89196e+07
1.89238e+07
1.89281e+07
1.89323e+07
1.89365e+07
1.89408e+07
1.8945e+07
1.89492e+07
1.89534e+07
1.89577e+07
1.89619e+07
1.89661e+07
1.89703e+07
1.89745e+07
1.89787e+07
1.89829e+07
1.89871e+07
1.89913e+07
1.89954e+07
1.89996e+07
1.90038e+07
1.90079e+07
1.90121e+07
1.90162e+07
1.90204e+07
1.90245e+07
1.90287e+07
1.90328e+07
1.90369e+07
1.9041e+07
1.90451e+07
1.90492e+07
1.90533e+07
1.90574e+07
1.90615e+07
1.90656e+07
1.90697e+07
1.90738e+07
1.90778e+07
1.90819e+07
1.9086e+07
1.90901e+07
1.90941e+07
1.90981e+07
1.9102e+07
1.9106e+07
1.91099e+07
1.9114e+07
1.9118e+07
1.9122e+07
1.9126e+07
1.913e+07
1.91339e+07
1.91379e+07
1.91419e+07
1.91458e+07
1.91498e+07
1.91537e+07
1.91576e+07
1.91615e+07
1.91653e+07
1.91692e+07
1.9173e+07
1.91768e+07
1.91806e+07
1.91843e+07
1.91881e+07
1.91918e+07
1.91954e+07
1.91991e+07
1.92027e+07
1.92063e+07
1.92098e+07
1.92134e+07
1.92169e+07
1.92203e+07
1.92238e+07
1.92273e+07
1.92307e+07
1.92341e+07
1.92375e+07
1.92409e+07
1.92443e+07
1.92476e+07
1.9251e+07
1.92543e+07
1.92576e+07
1.92609e+07
1.92642e+07
1.92675e+07
1.92707e+07
1.9274e+07
1.92772e+07
1.92804e+07
1.92836e+07
1.92868e+07
1.92899e+07
1.92931e+07
1.92962e+07
1.92993e+07
1.93024e+07
1.93055e+07
1.93085e+07
1.93116e+07
1.93146e+07
1.93176e+07
1.93205e+07
1.93235e+07
1.93264e+07
1.93293e+07
1.93322e+07
1.9335e+07
1.93379e+07
1.93407e+07
1.93435e+07
1.93462e+07
1.9349e+07
1.93517e+07
1.93544e+07
1.93571e+07
1.93597e+07
1.93623e+07
1.93649e+07
1.93675e+07
1.93701e+07
1.93726e+07
1.93751e+07
1.93776e+07
1.93801e+07
1.93826e+07
1.9385e+07
1.93874e+07
1.93898e+07
1.93922e+07
1.93946e+07
1.93969e+07
1.93993e+07
1.94016e+07
1.94039e+07
1.94061e+07
1.94084e+07
1.94106e+07
1.94128e+07
1.9415e+07
1.94172e+07
1.94194e+07
1.94215e+07
1.94236e+07
1.94258e+07
1.94278e+07
1.94299e+07
1.94319e+07
1.9434e+07
1.9436e+07
1.94379e+07
1.94399e+07
1.94418e+07
1.94431e+07
1.94434e+07
1.94438e+07
1.94441e+07
1.94445e+07
1.94448e+07
1.94451e+07
1.94454e+07
1.94457e+07
1.9446e+07
1.94463e+07
1.94466e+07
1.94469e+07
1.94472e+07
1.94475e+07
1.94478e+07
1.94481e+07
1.94484e+07
1.94487e+07
1.94489e+07
1.94431e+07
1.94435e+07
1.94439e+07
1.94443e+07
1.94446e+07
1.94449e+07
1.94452e+07
1.94456e+07
1.94459e+07
1.94462e+07
1.94465e+07
1.94468e+07
1.94471e+07
1.94474e+07
1.94478e+07
1.94481e+07
1.94484e+07
1.94487e+07
1.9449e+07
1.94493e+07
1.9443e+07
1.94435e+07
1.94439e+07
1.94443e+07
1.94448e+07
1.94452e+07
1.94456e+07
1.9446e+07
1.94463e+07
1.94467e+07
1.94471e+07
1.94474e+07
1.94478e+07
1.94482e+07
1.94485e+07
1.94488e+07
1.94492e+07
1.94494e+07
1.94497e+07
1.945e+07
1.9443e+07
1.94436e+07
1.94441e+07
1.94446e+07
1.9445e+07
1.94455e+07
1.9446e+07
1.94466e+07
1.94473e+07
1.94479e+07
1.94483e+07
1.94484e+07
1.94485e+07
1.94489e+07
1.94493e+07
1.94498e+07
1.94503e+07
1.9451e+07
1.94517e+07
1.94523e+07
1.9443e+07
1.94436e+07
1.94441e+07
1.94446e+07
1.94451e+07
1.94456e+07
1.94461e+07
1.94467e+07
1.94474e+07
1.9448e+07
1.94485e+07
1.94486e+07
1.94487e+07
1.94491e+07
1.94495e+07
1.94499e+07
1.94503e+07
1.9451e+07
1.94518e+07
1.94525e+07
1.945e+07
1.94519e+07
1.94536e+07
1.94551e+07
1.94566e+07
1.9458e+07
1.94596e+07
1.94611e+07
1.94625e+07
1.94638e+07
1.94654e+07
1.94669e+07
1.94681e+07
1.94694e+07
1.94709e+07
1.94725e+07
1.94739e+07
1.94749e+07
1.94762e+07
1.94778e+07
1.94794e+07
1.94808e+07
1.94816e+07
1.94825e+07
1.94839e+07
1.94855e+07
1.94871e+07
1.94882e+07
1.94888e+07
1.94897e+07
1.94908e+07
1.94921e+07
1.94933e+07
1.94944e+07
1.94956e+07
1.94967e+07
1.94978e+07
1.94989e+07
1.94999e+07
1.9501e+07
1.95019e+07
1.95029e+07
1.95039e+07
1.95048e+07
1.95057e+07
1.95066e+07
1.95075e+07
1.95083e+07
1.95092e+07
1.951e+07
1.95108e+07
1.95116e+07
1.95124e+07
1.95132e+07
1.95139e+07
1.95146e+07
1.95154e+07
1.95161e+07
1.95167e+07
1.95174e+07
1.95181e+07
1.95187e+07
1.95193e+07
1.95199e+07
1.95205e+07
1.95211e+07
1.95217e+07
1.95222e+07
1.95228e+07
1.95234e+07
1.95239e+07
1.95243e+07
1.95246e+07
1.9525e+07
1.95256e+07
1.95261e+07
1.95265e+07
1.9527e+07
1.95275e+07
1.95279e+07
1.95284e+07
1.95288e+07
1.95293e+07
1.95297e+07
1.95302e+07
1.95306e+07
1.95311e+07
1.95316e+07
1.9532e+07
1.95325e+07
1.9533e+07
1.95334e+07
1.95338e+07
1.95342e+07
1.95346e+07
1.95349e+07
1.95353e+07
1.95356e+07
1.95359e+07
1.9536e+07
1.94501e+07
1.94519e+07
1.94536e+07
1.94551e+07
1.94566e+07
1.9458e+07
1.94596e+07
1.94611e+07
1.94625e+07
1.94638e+07
1.94654e+07
1.94669e+07
1.94681e+07
1.94694e+07
1.94709e+07
1.94725e+07
1.94739e+07
1.94749e+07
1.94762e+07
1.94778e+07
1.94795e+07
1.94808e+07
1.94816e+07
1.94825e+07
1.94839e+07
1.94855e+07
1.94871e+07
1.94882e+07
1.94889e+07
1.94897e+07
1.94908e+07
1.94921e+07
1.94933e+07
1.94944e+07
1.94956e+07
1.94967e+07
1.94978e+07
1.94989e+07
1.94999e+07
1.9501e+07
1.95019e+07
1.95029e+07
1.95039e+07
1.95048e+07
1.95057e+07
1.95066e+07
1.95075e+07
1.95083e+07
1.95092e+07
1.951e+07
1.95108e+07
1.95116e+07
1.95124e+07
1.95132e+07
1.95139e+07
1.95146e+07
1.95154e+07
1.95161e+07
1.95167e+07
1.95174e+07
1.95181e+07
1.95187e+07
1.95193e+07
1.95199e+07
1.95205e+07
1.95211e+07
1.95217e+07
1.95222e+07
1.95228e+07
1.95234e+07
1.95239e+07
1.95243e+07
1.95246e+07
1.9525e+07
1.95256e+07
1.95261e+07
1.95265e+07
1.9527e+07
1.95275e+07
1.95279e+07
1.95284e+07
1.95288e+07
1.95293e+07
1.95297e+07
1.95302e+07
1.95306e+07
1.95311e+07
1.95316e+07
1.9532e+07
1.95325e+07
1.9533e+07
1.95334e+07
1.95338e+07
1.95342e+07
1.95346e+07
1.95349e+07
1.95353e+07
1.95356e+07
1.95359e+07
1.9536e+07
1.94507e+07
1.94528e+07
1.94545e+07
1.94561e+07
1.94574e+07
1.94588e+07
1.94605e+07
1.94621e+07
1.94633e+07
1.94646e+07
1.94662e+07
1.94678e+07
1.94687e+07
1.947e+07
1.94715e+07
1.94733e+07
1.94745e+07
1.94752e+07
1.94765e+07
1.9478e+07
1.94799e+07
1.94815e+07
1.94816e+07
1.94825e+07
1.94839e+07
1.94855e+07
1.94876e+07
1.94888e+07
1.94888e+07
1.94897e+07
1.94909e+07
1.94922e+07
1.94935e+07
1.94947e+07
1.94958e+07
1.94969e+07
1.9498e+07
1.94991e+07
1.95001e+07
1.95011e+07
1.95021e+07
1.95031e+07
1.9504e+07
1.95049e+07
1.95058e+07
1.95067e+07
1.95075e+07
1.95084e+07
1.95092e+07
1.951e+07
1.95108e+07