/*--------------------------------*- C++ -*----------------------------------*\
| =========                 |                                                 |
| \\      /  F ield         | OpenFOAM: The Open Source CFD Toolbox           |
|  \\    /   O peration     | Version:  3.0.x                                 |
|   \\  /    A nd           | Web:      www.OpenFOAM.org                      |
|    \\/     M anipulation  |                                                 |
\*---------------------------------------------------------------------------*/
FoamFile
{
    version     2.0;
    format      ascii;
    class       volScalarField;
    location    "0.49";
    object      T;
}
// * * * * * * * * * * * * * * * * * * * * * * * * * * * * * * * * * * * * * //

dimensions      [0 0 0 1 0 0 0];

internalField   nonuniform List<scalar> 
6900
(
774.584
774.582
774.581
774.581
774.581
774.582
774.583
774.584
774.585
774.586
774.587
774.589
774.591
774.592
774.594
774.597
774.599
774.602
774.605
774.608
774.611
774.615
774.618
774.622
774.626
774.631
774.635
774.64
774.645
774.65
774.655
774.66
774.666
774.671
774.677
774.683
774.69
774.696
774.702
774.707
774.712
774.716
774.72
774.725
774.731
774.737
774.744
774.751
774.759
774.766
774.773
774.78
774.786
774.793
774.799
774.804
774.81
774.816
774.823
774.831
774.84
774.85
774.86
774.87
774.881
774.891
774.9
774.91
774.92
774.93
774.94
774.951
774.962
774.974
774.986
774.998
775.011
775.024
775.038
775.052
775.066
775.08
775.094
775.109
775.123
775.138
775.154
775.169
775.185
775.201
775.217
775.233
775.25
775.267
775.284
775.302
775.319
775.337
775.356
775.374
775.393
775.412
775.431
775.45
775.47
775.49
775.51
775.53
775.55
775.571
775.592
775.612
775.633
775.655
775.676
775.697
775.719
775.741
775.762
775.785
775.807
775.829
775.852
775.875
775.898
775.921
775.945
775.968
775.992
776.017
776.041
776.066
776.091
776.117
776.142
776.168
776.194
776.221
776.248
776.275
776.302
776.329
776.357
776.385
776.413
776.441
776.47
776.498
776.527
776.556
776.585
776.614
776.644
776.673
776.702
776.732
776.762
776.792
776.822
776.852
776.882
776.913
776.944
776.974
777.005
777.036
777.068
777.099
777.131
777.163
777.195
777.227
777.259
777.292
777.324
777.357
777.391
777.424
777.458
777.491
777.525
777.56
777.594
777.629
777.663
777.699
777.733
777.77
777.803
777.842
777.873
777.915
777.944
777.988
778.015
778.061
778.087
778.134
778.161
778.206
774.58
774.579
774.578
774.578
774.578
774.579
774.579
774.58
774.581
774.583
774.584
774.585
774.587
774.589
774.591
774.593
774.596
774.598
774.601
774.605
774.608
774.611
774.615
774.619
774.623
774.627
774.632
774.637
774.641
774.647
774.652
774.657
774.663
774.668
774.674
774.68
774.687
774.693
774.699
774.704
774.709
774.713
774.718
774.722
774.728
774.734
774.741
774.748
774.756
774.763
774.77
774.777
774.784
774.79
774.796
774.802
774.808
774.814
774.821
774.829
774.838
774.847
774.858
774.868
774.878
774.888
774.898
774.908
774.917
774.927
774.938
774.948
774.96
774.971
774.983
774.996
775.009
775.022
775.036
775.049
775.063
775.077
775.092
775.106
775.121
775.136
775.151
775.167
775.182
775.198
775.215
775.231
775.248
775.265
775.282
775.299
775.317
775.335
775.353
775.372
775.391
775.41
775.429
775.448
775.468
775.488
775.508
775.528
775.548
775.569
775.589
775.61
775.631
775.652
775.674
775.695
775.717
775.738
775.76
775.782
775.805
775.827
775.85
775.872
775.896
775.919
775.942
775.966
775.99
776.015
776.039
776.064
776.089
776.114
776.14
776.166
776.192
776.219
776.245
776.272
776.3
776.327
776.355
776.383
776.411
776.439
776.468
776.496
776.525
776.554
776.583
776.612
776.641
776.671
776.7
776.73
776.76
776.79
776.82
776.85
776.88
776.911
776.941
776.972
777.003
777.034
777.065
777.097
777.129
777.16
777.192
777.225
777.257
777.29
777.322
777.355
777.388
777.422
777.455
777.489
777.523
777.558
777.592
777.627
777.661
777.697
777.731
777.768
777.801
777.84
777.871
777.913
777.942
777.986
778.013
778.059
778.085
778.132
778.158
778.216
774.58
774.579
774.578
774.578
774.578
774.579
774.579
774.58
774.582
774.583
774.584
774.586
774.587
774.589
774.591
774.593
774.596
774.599
774.602
774.605
774.608
774.611
774.615
774.619
774.623
774.627
774.632
774.637
774.642
774.647
774.652
774.657
774.663
774.668
774.674
774.68
774.687
774.693
774.699
774.704
774.709
774.713
774.718
774.722
774.728
774.734
774.741
774.748
774.756
774.763
774.77
774.777
774.784
774.79
774.796
774.802
774.808
774.814
774.821
774.829
774.838
774.847
774.858
774.868
774.878
774.888
774.898
774.908
774.918
774.927
774.938
774.948
774.96
774.971
774.983
774.996
775.009
775.022
775.036
775.049
775.063
775.077
775.092
775.106
775.121
775.136
775.151
775.167
775.182
775.198
775.215
775.231
775.248
775.265
775.282
775.299
775.317
775.335
775.353
775.372
775.391
775.41
775.429
775.448
775.468
775.488
775.508
775.528
775.548
775.569
775.589
775.61
775.631
775.652
775.674
775.695
775.717
775.738
775.76
775.782
775.805
775.827
775.85
775.872
775.896
775.919
775.942
775.966
775.99
776.015
776.039
776.064
776.089
776.114
776.14
776.166
776.192
776.219
776.245
776.272
776.3
776.327
776.355
776.383
776.411
776.439
776.468
776.496
776.525
776.554
776.583
776.612
776.641
776.671
776.7
776.73
776.76
776.79
776.82
776.85
776.88
776.911
776.941
776.972
777.003
777.034
777.065
777.097
777.129
777.16
777.192
777.225
777.257
777.29
777.322
777.355
777.388
777.422
777.455
777.489
777.523
777.557
777.592
777.627
777.661
777.697
777.731
777.767
777.802
777.839
777.873
777.91
777.946
777.981
778.018
778.055
778.087
778.128
778.163
778.199
774.58
774.579
774.578
774.578
774.578
774.579
774.579
774.58
774.581
774.583
774.584
774.585
774.587
774.589
774.591
774.593
774.596
774.598
774.601
774.605
774.608
774.611
774.615
774.619
774.623
774.627
774.632
774.637
774.641
774.647
774.652
774.657
774.663
774.668
774.674
774.68
774.687
774.693
774.699
774.704
774.709
774.713
774.718
774.722
774.728
774.734
774.741
774.748
774.756
774.763
774.77
774.777
774.784
774.79
774.796
774.802
774.808
774.814
774.821
774.829
774.838
774.847
774.858
774.868
774.878
774.888
774.898
774.908
774.917
774.927
774.938
774.948
774.96
774.971
774.983
774.996
775.009
775.022
775.036
775.049
775.063
775.077
775.092
775.106
775.121
775.136
775.151
775.167
775.182
775.198
775.215
775.231
775.248
775.265
775.282
775.299
775.317
775.335
775.353
775.372
775.391
775.41
775.429
775.448
775.468
775.488
775.508
775.528
775.548
775.569
775.589
775.61
775.631
775.652
775.674
775.695
775.717
775.738
775.76
775.782
775.805
775.827
775.85
775.872
775.896
775.919
775.942
775.966
775.99
776.015
776.039
776.064
776.089
776.114
776.14
776.166
776.192
776.219
776.245
776.272
776.3
776.327
776.355
776.383
776.411
776.439
776.468
776.496
776.525
776.554
776.583
776.612
776.641
776.671
776.7
776.73
776.76
776.79
776.82
776.85
776.88
776.911
776.941
776.972
777.003
777.034
777.065
777.097
777.129
777.16
777.192
777.225
777.257
777.289
777.322
777.355
777.388
777.422
777.455
777.489
777.523
777.557
777.592
777.626
777.662
777.696
777.733
777.766
777.804
777.836
777.876
777.907
777.949
777.977
778.022
778.048
778.096
778.119
778.175
778.188
774.584
774.582
774.581
774.581
774.581
774.582
774.583
774.584
774.585
774.586
774.587
774.589
774.591
774.592
774.594
774.597
774.599
774.602
774.605
774.608
774.611
774.615
774.618
774.622
774.626
774.631
774.635
774.64
774.645
774.65
774.655
774.66
774.666
774.671
774.677
774.683
774.69
774.696
774.702
774.707
774.712
774.716
774.72
774.725
774.731
774.737
774.744
774.751
774.759
774.766
774.773
774.78
774.786
774.793
774.799
774.804
774.81
774.816
774.823
774.831
774.84
774.85
774.86
774.87
774.881
774.891
774.9
774.91
774.92
774.93
774.94
774.951
774.962
774.974
774.986
774.998
775.011
775.024
775.038
775.052
775.066
775.08
775.094
775.109
775.123
775.138
775.154
775.169
775.185
775.201
775.217
775.233
775.25
775.267
775.284
775.302
775.319
775.337
775.356
775.374
775.393
775.412
775.431
775.45
775.47
775.49
775.51
775.53
775.55
775.571
775.592
775.612
775.633
775.655
775.676
775.697
775.719
775.741
775.762
775.785
775.807
775.829
775.852
775.875
775.898
775.921
775.945
775.968
775.992
776.017
776.041
776.066
776.091
776.117
776.142
776.168
776.194
776.221
776.248
776.275
776.302
776.329
776.357
776.385
776.413
776.441
776.47
776.498
776.527
776.556
776.585
776.614
776.644
776.673
776.702
776.732
776.762
776.792
776.822
776.852
776.882
776.913
776.944
776.974
777.005
777.036
777.068
777.099
777.131
777.163
777.195
777.227
777.259
777.292
777.324
777.357
777.391
777.424
777.458
777.491
777.526
777.56
777.594
777.628
777.664
777.698
777.735
777.768
777.806
777.838
777.879
777.909
777.951
777.98
778.025
778.05
778.098
778.121
778.183
778.161
778.249
778.269
778.28
778.288
778.296
778.303
778.31
778.319
778.335
778.347
778.348
778.339
778.333
778.337
778.332
778.334
778.345
778.371
778.398
778.343
778.237
778.251
778.259
778.267
778.274
778.28
778.288
778.297
778.311
778.328
778.325
778.313
778.309
778.316
778.31
778.307
778.317
778.34
778.359
778.335
778.22
778.225
778.231
778.237
778.241
778.247
778.252
778.256
778.261
778.266
778.274
778.282
778.291
778.296
778.3
778.308
778.319
778.329
778.335
778.348
778.202
778.206
778.209
778.21
778.21
778.203
778.2
778.195
778.194
778.189
778.187
778.187
778.184
778.182
778.183
778.183
778.184
778.186
778.187
778.184
778.167
778.164
778.168
778.17
778.173
778.172
778.172
778.17
778.17
778.167
778.167
778.166
778.165
778.164
778.166
778.167
778.17
778.172
778.18
778.193
778.283
778.308
778.326
778.322
778.353
778.411
778.431
778.442
778.466
778.502
778.53
778.556
778.585
778.613
778.641
778.669
778.698
778.726
778.756
778.785
778.814
778.843
778.872
778.901
778.93
778.96
778.99
779.02
779.05
779.079
779.109
779.138
779.169
779.199
779.229
779.258
779.287
779.316
779.346
779.375
779.404
779.433
779.462
779.491
779.52
779.549
779.578
779.607
779.636
779.665
779.694
779.724
779.753
779.782
779.812
779.841
779.87
779.899
779.928
779.956
779.984
780.013
780.041
780.069
780.097
780.125
780.153
780.181
780.209
780.237
780.265
780.293
780.321
780.349
780.377
780.406
780.435
780.464
780.492
780.52
780.547
780.575
780.601
780.628
780.657
780.688
780.718
780.748
780.776
780.803
780.827
780.853
780.878
780.905
780.932
780.959
780.989
781.021
781.05
781.072
781.094
781.125
781.167
781.206
781.228
781.238
781.255
781.299
781.398
781.49
781.54
781.551
781.543
781.508
781.47
781.452
781.448
781.458
781.49
781.523
781.553
781.58
781.606
781.632
781.656
781.68
781.703
781.727
781.75
781.772
781.795
781.817
781.84
781.862
781.884
781.906
781.928
781.949
781.971
781.992
782.013
782.035
782.056
782.077
782.097
782.118
782.138
782.159
782.179
782.199
782.219
782.239
782.258
782.278
782.297
782.316
782.335
782.354
782.373
782.391
782.41
782.428
782.446
782.464
782.482
782.499
782.517
782.534
782.551
782.568
782.585
782.602
782.618
782.635
782.651
782.667
782.684
782.699
782.716
782.73
782.747
782.76
782.779
782.79
782.809
782.82
782.84
782.849
782.869
782.877
782.898
782.906
782.926
782.934
782.954
782.961
782.98
782.992
782.998
783.022
778.28
778.323
778.337
778.345
778.401
778.446
778.456
778.468
778.508
778.544
778.563
778.585
778.618
778.65
778.676
778.698
778.724
778.752
778.782
778.811
778.837
778.864
778.891
778.92
778.949
778.979
779.009
779.039
779.068
779.097
779.127
779.157
779.189
779.219
779.248
779.276
779.305
779.333
779.362
779.391
779.42
779.449
779.478
779.507
779.535
779.564
779.593
779.622
779.652
779.681
779.711
779.74
779.769
779.799
779.828
779.857
779.885
779.914
779.942
779.97
779.998
780.026
780.054
780.082
780.11
780.138
780.167
780.195
780.223
780.251
780.279
780.307
780.336
780.365
780.394
780.423
780.452
780.481
780.509
780.536
780.564
780.593
780.624
780.657
780.691
780.724
780.756
780.78
780.802
780.824
780.848
780.873
780.9
780.928
780.957
780.988
781.016
781.04
781.065
781.099
781.142
781.177
781.197
781.208
781.229
781.278
781.357
781.441
781.504
781.533
781.535
781.524
781.486
781.454
781.438
781.434
781.441
781.469
781.501
781.529
781.556
781.582
781.607
781.631
781.655
781.679
781.702
781.725
781.748
781.771
781.793
781.816
781.838
781.86
781.882
781.904
781.926
781.947
781.969
781.99
782.011
782.033
782.054
782.075
782.095
782.116
782.136
782.157
782.177
782.197
782.217
782.237
782.256
782.276
782.295
782.314
782.333
782.352
782.371
782.389
782.408
782.426
782.444
782.462
782.48
782.497
782.515
782.532
782.549
782.566
782.583
782.6
782.616
782.633
782.649
782.665
782.682
782.697
782.714
782.728
782.745
782.758
782.777
782.788
782.807
782.818
782.838
782.847
782.867
782.876
782.896
782.904
782.924
782.932
782.952
782.959
782.979
782.987
783
783.02
778.424
778.45
778.508
778.568
778.616
778.654
778.692
778.728
778.763
778.794
778.823
778.852
778.881
778.91
778.937
778.963
778.99
779.018
779.046
779.074
779.102
779.131
779.159
779.188
779.217
779.246
779.274
779.302
779.33
779.358
779.386
779.415
779.444
779.473
779.501
779.531
779.56
779.589
779.617
779.646
779.674
779.701
779.729
779.756
779.783
779.811
779.838
779.865
779.893
779.921
779.95
779.979
780.008
780.038
780.067
780.097
780.127
780.156
780.185
780.213
780.242
780.27
780.299
780.328
780.357
780.386
780.416
780.445
780.475
780.506
780.537
780.569
780.601
780.633
780.664
780.696
780.729
780.762
780.791
780.813
780.825
780.826
780.822
780.807
780.795
780.79
780.789
780.789
780.794
780.812
780.834
780.859
780.886
780.914
780.944
780.974
781.004
781.033
781.061
781.089
781.115
781.14
781.164
781.188
781.211
781.233
781.254
781.275
781.296
781.317
781.337
781.358
781.38
781.403
781.426
781.449
781.473
781.497
781.52
781.543
781.566
781.589
781.612
781.635
781.658
781.681
781.704
781.726
781.749
781.771
781.794
781.816
781.838
781.86
781.882
781.904
781.926
781.947
781.969
781.99
782.011
782.033
782.054
782.075
782.095
782.116
782.136
782.157
782.177
782.197
782.217
782.237
782.256
782.276
782.295
782.314
782.333
782.352
782.371
782.389
782.408
782.426
782.444
782.462
782.48
782.497
782.515
782.532
782.549
782.566
782.583
782.6
782.616
782.633
782.649
782.665
782.681
782.698
782.713
782.729
782.744
782.76
782.775
782.791
782.805
782.82
782.835
782.85
782.864
782.88
782.891
782.909
782.92
782.935
782.95
782.962
782.975
782.99
783.002
783.016
778.209
778.227
778.256
778.295
778.334
778.366
778.397
778.43
778.465
778.498
778.529
778.56
778.592
778.623
778.653
778.683
778.712
778.743
778.772
778.802
778.831
778.859
778.888
778.917
778.946
778.975
779.003
779.032
779.061
779.09
779.119
779.148
779.178
779.207
779.236
779.265
779.295
779.324
779.353
779.383
779.412
779.442
779.471
779.5
779.529
779.559
779.588
779.617
779.645
779.674
779.703
779.732
779.761
779.789
779.818
779.847
779.877
779.906
779.935
779.964
779.992
780.021
780.05
780.079
780.107
780.136
780.164
780.192
780.22
780.248
780.276
780.304
780.332
780.36
780.388
780.415
780.443
780.47
780.498
780.525
780.552
780.578
780.606
780.637
780.667
780.695
780.725
780.756
780.785
780.81
780.835
780.866
780.899
780.93
780.959
780.99
781.026
781.062
781.097
781.131
781.165
781.204
781.253
781.309
781.363
781.404
781.422
781.423
781.416
781.394
781.373
781.362
781.36
781.367
781.395
781.426
781.455
781.482
781.509
781.535
781.56
781.585
781.609
781.633
781.656
781.679
781.703
781.725
781.748
781.771
781.793
781.816
781.838
781.86
781.882
781.904
781.926
781.947
781.969
781.99
782.011
782.033
782.054
782.075
782.095
782.116
782.136
782.157
782.177
782.197
782.217
782.237
782.256
782.276
782.295
782.314
782.333
782.352
782.371
782.389
782.408
782.426
782.444
782.462
782.48
782.497
782.515
782.532
782.549
782.566
782.583
782.6
782.616
782.633
782.649
782.666
782.681
782.698
782.713
782.729
782.743
782.761
782.774
782.792
782.803
782.823
782.832
782.853
782.861
782.882
782.89
782.91
782.918
782.938
782.946
782.966
782.973
782.992
783
783.017
778.227
778.275
778.309
778.352
778.393
778.429
778.466
778.505
778.544
778.58
778.616
778.651
778.688
778.724
778.758
778.791
778.823
778.855
778.887
778.918
778.948
778.978
779.008
779.038
779.068
779.097
779.127
779.157
779.187
779.216
779.246
779.276
779.306
779.336
779.366
779.395
779.425
779.454
779.484
779.513
779.542
779.571
779.6
779.629
779.657
779.686
779.714
779.743
779.772
779.801
779.83
779.859
779.888
779.917
779.946
779.975
780.004
780.032
780.061
780.089
780.117
780.145
780.173
780.201
780.229
780.257
780.284
780.312
780.339
780.366
780.394
780.421
780.448
780.476
780.504
780.531
780.559
780.588
780.616
780.644
780.672
780.702
780.731
780.76
780.787
780.814
780.841
780.868
780.896
780.925
780.951
780.974
781
781.038
781.081
781.112
781.125
781.137
781.167
781.249
781.345
781.409
781.431
781.43
781.409
781.366
781.341
781.329
781.325
781.326
781.339
781.361
781.382
781.405
781.428
781.451
781.475
781.498
781.521
781.545
781.568
781.591
781.614
781.637
781.66
781.683
781.705
781.728
781.751
781.773
781.795
781.818
781.84
781.862
781.884
781.906
781.928
781.949
781.971
781.992
782.013
782.035
782.056
782.077
782.097
782.118
782.138
782.159
782.179
782.199
782.219
782.239
782.258
782.278
782.297
782.316
782.335
782.354
782.373
782.391
782.41
782.428
782.446
782.464
782.482
782.499
782.517
782.534
782.551
782.568
782.585
782.602
782.618
782.635
782.651
782.667
782.683
782.7
782.714
782.731
782.745
782.763
782.776
782.794
782.805
782.825
782.834
782.855
782.863
782.884
782.892
782.912
782.92
782.939
782.951
782.962
782.982
782.988
783.004
783.019
783.031
783.033
783.035
783.036
783.037
783.037
783.037
783.037
783.037
783.037
783.037
783.038
783.038
783.038
783.039
783.039
783.039
783.039
783.04
783.04
783.024
783.026
783.028
783.029
783.029
783.029
783.03
783.03
783.03
783.031
783.032
783.032
783.034
783.037
783.039
783.039
783.041
783.043
783.047
783.053
783.023
783.026
783.028
783.032
783.035
783.039
783.044
783.048
783.052
783.057
783.061
783.065
783.071
783.082
783.089
783.093
783.104
783.115
783.13
783.137
783.026
783.03
783.034
783.038
783.043
783.05
783.057
783.062
783.064
783.067
783.072
783.077
783.078
783.084
783.102
783.112
783.112
783.11
783.111
783.114
783.028
783.033
783.037
783.041
783.046
783.052
783.057
783.062
783.067
783.071
783.073
783.075
783.08
783.096
783.118
783.126
783.124
783.116
783.113
783.101
783.048
783.057
783.076
783.097
783.114
783.129
783.15
783.176
783.198
783.213
783.23
783.254
783.277
783.292
783.307
783.327
783.351
783.368
783.379
783.391
783.407
783.428
783.443
783.45
783.458
783.468
783.481
783.496
783.504
783.507
783.513
783.521
783.529
783.537
783.544
783.551
783.558
783.565
783.571
783.577
783.583
783.589
783.594
783.6
783.605
783.61
783.615
783.62
783.625
783.63
783.636
783.641
783.646
783.651
783.656
783.661
783.665
783.67
783.674
783.678
783.681
783.685
783.688
783.692
783.695
783.699
783.702
783.705
783.709
783.713
783.717
783.72
783.722
783.724
783.727
783.73
783.735
783.738
783.74
783.742
783.746
783.754
783.755
783.754
783.755
783.767
783.789
783.792
783.785
783.781
783.815
783.934
783.984
783.979
783.923
783.828
783.767
783.74
783.73
783.705
783.066
783.093
783.122
783.142
783.149
783.161
783.187
783.217
783.228
783.232
783.243
783.268
783.28
783.282
783.29
783.311
783.329
783.331
783.33
783.335
783.355
783.376
783.378
783.374
783.373
783.38
783.398
783.412
783.412
783.41
783.41
783.415
783.422
783.429
783.435
783.441
783.446
783.452
783.457
783.462
783.467
783.472
783.476
783.481
783.486
783.491
783.496
783.5
783.505
783.511
783.516
783.52
783.525
783.53
783.535
783.54
783.545
783.55
783.554
783.559
783.564
783.568
783.572
783.577
783.58
783.584
783.588
783.591
783.595
783.598
783.603
783.605
783.608
783.611
783.612
783.615
783.621
783.625
783.626
783.628
783.635
783.642
783.644
783.646
783.652
783.663
783.67
783.676
783.687
783.697
783.712
783.737
783.751
783.766
783.799
783.836
783.85
783.848
783.835
783.782
783.182
783.237
783.286
783.333
783.371
783.405
783.442
783.479
783.502
783.517
783.538
783.563
783.572
783.571
783.581
783.604
783.622
783.614
783.603
783.611
783.633
783.656
783.651
783.627
783.623
783.635
783.657
783.677
783.667
783.648
783.645
783.651
783.658
783.665
783.672
783.678
783.684
783.689
783.694
783.699
783.704
783.709
783.714
783.72
783.726
783.731
783.737
783.743
783.748
783.754
783.759
783.765
783.77
783.775
783.781
783.786
783.793
783.8
783.805
783.811
783.816
783.823
783.83
783.836
783.842
783.849
783.858
783.868
783.877
783.883
783.883
783.866
783.834
783.796
783.755
783.721
783.692
783.668
783.649
783.638
783.635
783.637
783.639
783.644
783.649
783.656
783.662
783.667
783.671
783.676
783.676
783.682
783.68
783.681
783.682
783.678
783.677
783.675
783.671
783.665
783.146
783.146
783.158
783.23
783.26
783.244
783.228
783.27
783.329
783.313
783.292
783.324
783.378
783.361
783.328
783.339
783.423
783.435
783.397
783.358
783.361
783.435
783.484
783.47
783.408
783.384
783.396
783.479
783.498
783.477
783.424
783.408
783.408
783.415
783.422
783.429
783.436
783.443
783.449
783.456
783.462
783.469
783.475
783.481
783.487
783.493
783.499
783.504
783.51
783.516
783.522
783.527
783.533
783.538
783.544
783.549
783.554
783.558
783.562
783.566
783.57
783.574
783.577
783.581
783.584
783.588
783.591
783.598
783.6
783.603
783.62
783.651
783.64
783.625
783.622
783.624
783.628
783.631
783.634
783.636
783.638
783.642
783.647
783.653
783.656
783.659
783.665
783.673
783.675
783.676
783.68
783.695
783.714
783.717
783.714
783.706
783.707
783.738
783.827
783.876
783.117
783.142
783.145
783.158
783.187
783.201
783.199
783.198
783.205
783.224
783.238
783.25
783.249
783.251
783.261
783.286
783.302
783.293
783.296
783.304
783.32
783.339
783.338
783.346
783.345
783.348
783.363
783.387
783.379
783.385
783.383
783.382
783.388
783.397
783.405
783.413
783.42
783.428
783.434
783.441
783.447
783.454
783.46
783.466
783.472
783.478
783.484
783.489
783.495
783.5
783.506
783.512
783.517
783.522
783.528
783.533
783.538
783.543
783.548
783.552
783.556
783.56
783.564
783.567
783.571
783.574
783.577
783.581
783.585
783.59
783.6
783.6
783.602
783.602
783.603
783.607
783.61
783.614
783.617
783.62
783.624
783.627
783.629
783.631
783.635
783.641
783.645
783.646
783.651
783.66
783.663
783.663
783.662
783.666
783.686
783.698
783.698
783.692
783.689
783.705
783.698
783.691
783.685
783.68
783.674
783.669
783.664
783.659
783.655
783.651
783.648
783.644
783.64
783.637
783.634
783.632
783.63
783.629
783.627
783.626
783.751
783.74
783.73
783.719
783.709
783.699
783.69
783.68
783.67
783.661
783.653
783.644
783.635
783.627
783.626
783.626
783.627
783.628
783.631
783.636
783.665
783.666
783.668
783.668
783.668
783.668
783.667
783.667
783.667
783.668
783.669
783.672
783.677
783.679
783.685
783.689
783.696
783.701
783.715
783.727
783.886
783.889
783.891
783.892
783.892
783.89
783.878
783.859
783.835
783.81
783.786
783.763
783.741
783.723
783.706
783.688
783.673
783.67
783.687
783.712
783.755
783.788
783.819
783.845
783.866
783.88
783.891
783.901
783.905
783.895
783.872
783.844
783.812
783.775
783.74
783.711
783.685
783.667
783.664
783.675
783.625
783.625
783.633
783.642
783.645
783.649
783.66
783.675
783.684
783.688
783.695
783.712
783.729
783.735
783.738
783.744
783.757
783.776
783.793
783.798
783.795
783.795
783.801
783.815
783.832
783.839
783.837
783.823
783.818
783.821
783.824
783.826
783.828
783.829
783.829
783.83
783.831
783.831
783.832
783.832
783.833
783.833
783.833
783.833
783.833
783.833
783.833
783.833
783.833
783.834
783.834
783.835
783.838
783.84
783.837
783.833
783.836
783.85
783.853
783.842
783.835
783.839
783.849
783.851
783.846
783.844
783.846
783.85
783.852
783.853
783.853
783.853
783.856
783.858
783.857
783.855
783.858
783.874
783.881
783.876
783.876
783.938
784.076
784.106
784.057
783.933
783.856
783.813
783.786
783.761
783.745
783.737
783.735
783.735
783.736
783.736
783.736
783.736
783.737
783.737
783.737
783.737
783.738
783.738
783.738
783.738
783.738
783.738
783.738
783.738
783.738
783.738
783.738
783.738
783.738
783.738
783.738
783.738
783.738
783.737
783.737
783.737
783.737
783.737
783.736
783.736
783.736
783.736
783.736
783.736
783.736
783.735
783.735
783.735
783.735
783.735
783.735
783.735
783.735
783.735
783.735
783.734
783.734
783.734
783.734
783.734
783.734
783.734
783.733
783.733
783.733
783.733
783.732
783.732
783.732
783.731
783.731
783.731
783.73
783.73
783.73
783.729
783.729
783.728
783.728
783.728
783.727
783.727
783.726
783.726
783.725
783.725
783.724
783.724
783.723
783.723
783.722
783.722
783.721
783.721
783.72
783.721
783.718
783.72
783.717
783.719
783.716
783.719
783.715
783.718
783.714
783.717
783.713
783.715
783.715
783.712
783.716
783.712
783.713
783.714
783.638
783.657
783.69
783.704
783.702
783.705
783.733
783.751
783.746
783.738
783.748
783.778
783.778
783.76
783.747
783.752
783.784
783.806
783.803
783.775
783.75
783.746
783.761
783.799
783.813
783.808
783.777
783.747
783.734
783.735
783.74
783.742
783.743
783.742
783.74
783.738
783.736
783.733
783.731
783.729
783.727
783.726
783.724
783.723
783.723
783.722
783.721
783.721
783.721
783.72
783.72
783.722
783.725
783.726
783.728
783.737
783.765
783.769
783.763
783.743
783.733
783.745
783.749
783.747
783.738
783.733
783.733
783.734
783.736
783.739
783.74
783.74
783.742
783.747
783.749
783.751
783.754
783.764
783.769
783.777
783.784
783.8
783.833
783.849
783.864
783.899
783.926
783.934
783.93
783.894
783.813
783.751
783.717
783.707
783.71
783.718
783.724
783.727
783.73
783.732
783.733
783.734
783.735
783.735
783.736
783.736
783.736
783.736
783.737
783.737
783.737
783.737
783.737
783.737
783.737
783.736
783.736
783.736
783.736
783.736
783.736
783.735
783.735
783.735
783.735
783.735
783.735
783.734
783.734
783.734
783.734
783.734
783.734
783.734
783.734
783.734
783.733
783.733
783.733
783.733
783.733
783.733
783.733
783.733
783.732
783.732
783.732
783.732
783.732
783.732
783.731
783.731
783.731
783.731
783.73
783.73
783.73
783.729
783.729
783.729
783.728
783.728
783.727
783.727
783.727
783.726
783.726
783.725
783.725
783.724
783.724
783.723
783.723
783.723
783.722
783.722
783.721
783.721
783.72
783.72
783.718
783.719
783.717
783.718
783.716
783.718
783.715
783.717
783.714
783.716
783.713
783.716
783.712
783.715
783.711
783.714
783.711
783.713
783.711
783.712
783.755
783.799
783.841
783.881
783.909
783.935
783.967
783.998
784.008
784.013
784.026
784.05
784.055
784.035
784.025
784.034
784.054
784.072
784.065
784.029
784.006
784.012
784.035
784.063
784.075
784.062
784.02
783.975
783.959
783.958
783.96
783.961
783.961
783.961
783.961
783.961
783.961
783.962
783.962
783.961
783.961
783.962
783.962
783.962
783.962
783.961
783.962
783.963
783.964
783.966
783.967
783.969
783.976
783.99
784.013
784.052
784.094
784.097
784.059
784.028
784.036
784.056
784.042
783.984
783.922
783.871
783.833
783.802
783.775
783.754
783.743
783.74
783.739
783.741
783.745
783.749
783.753
783.757
783.76
783.763
783.764
783.766
783.766
783.765
783.763
783.761
783.759
783.756
783.753
783.75
783.746
783.742
783.737
783.735
783.734
783.734
783.735
783.735
783.736
783.736
783.736
783.736
783.736
783.736
783.736
783.737
783.737
783.737
783.737
783.737
783.737
783.737
783.737
783.737
783.737
783.736
783.736
783.736
783.736
783.736
783.736
783.735
783.735
783.735
783.735
783.735
783.735
783.734
783.734
783.734
783.734
783.734
783.734
783.734
783.734
783.734
783.733
783.733
783.733
783.733
783.733
783.733
783.733
783.733
783.732
783.732
783.732
783.732
783.732
783.732
783.731
783.731
783.731
783.731
783.73
783.73
783.73
783.729
783.729
783.729
783.728
783.728
783.727
783.727
783.727
783.726
783.726
783.725
783.725
783.724
783.724
783.723
783.723
783.722
783.722
783.722
783.721
783.721
783.72
783.72
783.719
783.719
783.718
783.718
783.717
783.716
783.716
783.716
783.714
783.716
783.713
783.715
783.713
783.713
783.714
783.713
783.711
783.713
783.712
783.712
783.725
783.703
783.713
783.788
783.809
783.771
783.758
783.826
783.863
783.816
783.782
783.828
783.922
783.916
783.829
783.776
783.809
783.908
783.944
783.938
783.873
783.774
783.759
783.841
783.919
783.929
783.923
783.895
783.775
783.722
783.708
783.708
783.71
783.712
783.714
783.715
783.716
783.717
783.718
783.718
783.719
783.719
783.72
783.72
783.72
783.72
783.721
783.721
783.721
783.722
783.723
783.723
783.726
783.729
783.734
783.761
783.869
783.941
783.937
783.877
783.789
783.788
783.87
783.878
783.822
783.762
783.745
783.742
783.742
783.744
783.744
783.744
783.745
783.747
783.751
783.753
783.754
783.757
783.76
783.762
783.762
783.764
783.775
783.792
783.797
783.796
783.792
783.796
783.841
783.931
783.974
783.977
783.932
783.823
783.746
783.714
783.71
783.717
783.725
783.729
783.731
783.733
783.734
783.735
783.735
783.736
783.736
783.736
783.737
783.737
783.737
783.737
783.737
783.737
783.737
783.736
783.736
783.736
783.736
783.736
783.736
783.735
783.735
783.735
783.735
783.735
783.735
783.734
783.734
783.734
783.734
783.734
783.734
783.734
783.734
783.734
783.733
783.733
783.733
783.733
783.733
783.733
783.733
783.733
783.732
783.732
783.732
783.732
783.732
783.732
783.731
783.731
783.731
783.731
783.73
783.73
783.73
783.729
783.729
783.729
783.728
783.728
783.727
783.727
783.727
783.726
783.726
783.725
783.725
783.724
783.724
783.723
783.723
783.722
783.722
783.721
783.721
783.72
783.72
783.719
783.72
783.717
783.719
783.716
783.718
783.715
783.717
783.714
783.717
783.713
783.716
783.712
783.715
783.712
783.715
783.711
783.713
783.713
783.709
783.715
783.68
783.677
783.684
783.711
783.724
783.725
783.72
783.717
783.719
783.721
783.728
783.733
783.749
783.746
783.732
783.731
783.73
783.748
783.774
783.773
783.763
783.748
783.725
783.732
783.757
783.772
783.771
783.772
783.733
783.699
783.688
783.688
783.693
783.696
783.698
783.699
783.7
783.701
783.701
783.702
783.703
783.704
783.705
783.706
783.706
783.706
783.707
783.707
783.708
783.708
783.709
783.71
783.711
783.716
783.728
783.753
783.751
783.77
783.774
783.766
783.763
783.749
783.741
783.741
783.738
783.728
783.723
783.723
783.724
783.726
783.728
783.73
783.731
783.732
783.732
783.733
783.736
783.738
783.74
783.742
783.747
783.749
783.748
783.747
783.748
783.761
783.774
783.776
783.773
783.775
783.819
783.929
783.966