/*--------------------------------*- C++ -*----------------------------------*\
| =========                 |                                                 |
| \\      /  F ield         | OpenFOAM: The Open Source CFD Toolbox           |
|  \\    /   O peration     | Version:  3.0.x                                 |
|   \\  /    A nd           | Web:      www.OpenFOAM.org                      |
|    \\/     M anipulation  |                                                 |
\*---------------------------------------------------------------------------*/
FoamFile
{
    version     2.0;
    format      ascii;
    class       volScalarField;
    location    "0.48";
    object      p;
}
// * * * * * * * * * * * * * * * * * * * * * * * * * * * * * * * * * * * * * //

dimensions      [1 -1 -2 0 0 0 0];

internalField   nonuniform List<scalar> 
13800
(
1.80645e+07
1.80645e+07
1.80645e+07
1.80645e+07
1.80645e+07
1.80645e+07
1.80645e+07
1.80645e+07
1.80645e+07
1.80645e+07
1.80645e+07
1.80645e+07
1.80645e+07
1.80645e+07
1.80645e+07
1.80645e+07
1.80645e+07
1.80645e+07
1.80645e+07
1.80645e+07
1.80645e+07
1.80645e+07
1.80646e+07
1.80646e+07
1.80646e+07
1.80646e+07
1.80646e+07
1.80646e+07
1.80646e+07
1.80646e+07
1.80646e+07
1.80646e+07
1.80646e+07
1.80646e+07
1.80646e+07
1.80646e+07
1.80646e+07
1.80646e+07
1.80646e+07
1.80646e+07
1.80646e+07
1.80646e+07
1.80646e+07
1.80646e+07
1.80646e+07
1.80646e+07
1.80646e+07
1.80646e+07
1.80647e+07
1.80647e+07
1.80647e+07
1.80647e+07
1.80647e+07
1.80648e+07
1.80648e+07
1.80648e+07
1.80648e+07
1.80649e+07
1.80649e+07
1.8065e+07
1.8065e+07
1.80651e+07
1.80651e+07
1.80652e+07
1.80653e+07
1.80654e+07
1.80654e+07
1.80655e+07
1.80656e+07
1.80658e+07
1.80659e+07
1.8066e+07
1.80662e+07
1.80663e+07
1.80665e+07
1.80667e+07
1.80669e+07
1.80671e+07
1.80673e+07
1.80675e+07
1.80678e+07
1.80681e+07
1.80684e+07
1.80687e+07
1.8069e+07
1.80694e+07
1.80698e+07
1.80702e+07
1.80706e+07
1.80711e+07
1.80716e+07
1.80721e+07
1.80726e+07
1.80732e+07
1.80738e+07
1.80745e+07
1.80751e+07
1.80758e+07
1.80766e+07
1.80774e+07
1.80782e+07
1.8079e+07
1.80799e+07
1.80809e+07
1.80819e+07
1.80829e+07
1.80839e+07
1.80851e+07
1.80862e+07
1.80874e+07
1.80887e+07
1.809e+07
1.80913e+07
1.80927e+07
1.80942e+07
1.80957e+07
1.80973e+07
1.80989e+07
1.81005e+07
1.81023e+07
1.8104e+07
1.81059e+07
1.81078e+07
1.81098e+07
1.81118e+07
1.81139e+07
1.8116e+07
1.81182e+07
1.81205e+07
1.81228e+07
1.81252e+07
1.81277e+07
1.81302e+07
1.81328e+07
1.81355e+07
1.81382e+07
1.81411e+07
1.81439e+07
1.81469e+07
1.81499e+07
1.8153e+07
1.81562e+07
1.81595e+07
1.81628e+07
1.81662e+07
1.81697e+07
1.81733e+07
1.81769e+07
1.81806e+07
1.81845e+07
1.81883e+07
1.81923e+07
1.81964e+07
1.82005e+07
1.82048e+07
1.82091e+07
1.82135e+07
1.8218e+07
1.82225e+07
1.82272e+07
1.8232e+07
1.82368e+07
1.82418e+07
1.82468e+07
1.8252e+07
1.82572e+07
1.82625e+07
1.82679e+07
1.82735e+07
1.82791e+07
1.82848e+07
1.82906e+07
1.82965e+07
1.83026e+07
1.83087e+07
1.83149e+07
1.83213e+07
1.83277e+07
1.83342e+07
1.83409e+07
1.83476e+07
1.83545e+07
1.83615e+07
1.83686e+07
1.83758e+07
1.83831e+07
1.83905e+07
1.8398e+07
1.84057e+07
1.84134e+07
1.84213e+07
1.84293e+07
1.84374e+07
1.84456e+07
1.84539e+07
1.84624e+07
1.8471e+07
1.84799e+07
1.84898e+07
1.85017e+07
1.80645e+07
1.80645e+07
1.80645e+07
1.80645e+07
1.80645e+07
1.80645e+07
1.80645e+07
1.80645e+07
1.80645e+07
1.80645e+07
1.80645e+07
1.80645e+07
1.80645e+07
1.80645e+07
1.80645e+07
1.80645e+07
1.80645e+07
1.80645e+07
1.80645e+07
1.80645e+07
1.80645e+07
1.80645e+07
1.80646e+07
1.80646e+07
1.80646e+07
1.80646e+07
1.80646e+07
1.80646e+07
1.80646e+07
1.80646e+07
1.80646e+07
1.80646e+07
1.80646e+07
1.80646e+07
1.80646e+07
1.80646e+07
1.80646e+07
1.80646e+07
1.80646e+07
1.80646e+07
1.80646e+07
1.80646e+07
1.80646e+07
1.80646e+07
1.80646e+07
1.80646e+07
1.80646e+07
1.80646e+07
1.80647e+07
1.80647e+07
1.80647e+07
1.80647e+07
1.80647e+07
1.80648e+07
1.80648e+07
1.80648e+07
1.80648e+07
1.80649e+07
1.80649e+07
1.8065e+07
1.8065e+07
1.80651e+07
1.80651e+07
1.80652e+07
1.80653e+07
1.80654e+07
1.80654e+07
1.80655e+07
1.80656e+07
1.80658e+07
1.80659e+07
1.8066e+07
1.80662e+07
1.80663e+07
1.80665e+07
1.80667e+07
1.80669e+07
1.80671e+07
1.80673e+07
1.80675e+07
1.80678e+07
1.80681e+07
1.80684e+07
1.80687e+07
1.8069e+07
1.80694e+07
1.80698e+07
1.80702e+07
1.80706e+07
1.80711e+07
1.80716e+07
1.80721e+07
1.80726e+07
1.80732e+07
1.80738e+07
1.80745e+07
1.80751e+07
1.80758e+07
1.80766e+07
1.80774e+07
1.80782e+07
1.8079e+07
1.80799e+07
1.80809e+07
1.80819e+07
1.80829e+07
1.80839e+07
1.80851e+07
1.80862e+07
1.80874e+07
1.80887e+07
1.809e+07
1.80913e+07
1.80927e+07
1.80942e+07
1.80957e+07
1.80973e+07
1.80989e+07
1.81005e+07
1.81023e+07
1.8104e+07
1.81059e+07
1.81078e+07
1.81098e+07
1.81118e+07
1.81139e+07
1.8116e+07
1.81182e+07
1.81205e+07
1.81228e+07
1.81252e+07
1.81277e+07
1.81302e+07
1.81328e+07
1.81355e+07
1.81382e+07
1.81411e+07
1.81439e+07
1.81469e+07
1.81499e+07
1.8153e+07
1.81562e+07
1.81595e+07
1.81628e+07
1.81662e+07
1.81697e+07
1.81733e+07
1.81769e+07
1.81806e+07
1.81845e+07
1.81883e+07
1.81923e+07
1.81964e+07
1.82005e+07
1.82048e+07
1.82091e+07
1.82135e+07
1.8218e+07
1.82225e+07
1.82272e+07
1.8232e+07
1.82368e+07
1.82418e+07
1.82468e+07
1.8252e+07
1.82572e+07
1.82625e+07
1.82679e+07
1.82735e+07
1.82791e+07
1.82848e+07
1.82906e+07
1.82965e+07
1.83026e+07
1.83087e+07
1.83149e+07
1.83213e+07
1.83277e+07
1.83342e+07
1.83409e+07
1.83476e+07
1.83545e+07
1.83615e+07
1.83686e+07
1.83758e+07
1.83831e+07
1.83905e+07
1.8398e+07
1.84057e+07
1.84134e+07
1.84213e+07
1.84293e+07
1.84374e+07
1.84456e+07
1.84539e+07
1.84624e+07
1.8471e+07
1.84799e+07
1.84898e+07
1.85017e+07
1.80645e+07
1.80645e+07
1.80645e+07
1.80645e+07
1.80645e+07
1.80645e+07
1.80645e+07
1.80645e+07
1.80645e+07
1.80645e+07
1.80645e+07
1.80645e+07
1.80645e+07
1.80645e+07
1.80645e+07
1.80645e+07
1.80645e+07
1.80645e+07
1.80645e+07
1.80645e+07
1.80645e+07
1.80645e+07
1.80646e+07
1.80646e+07
1.80646e+07
1.80646e+07
1.80646e+07
1.80646e+07
1.80646e+07
1.80646e+07
1.80646e+07
1.80646e+07
1.80646e+07
1.80646e+07
1.80646e+07
1.80646e+07
1.80646e+07
1.80646e+07
1.80646e+07
1.80646e+07
1.80646e+07
1.80646e+07
1.80646e+07
1.80646e+07
1.80646e+07
1.80646e+07
1.80646e+07
1.80646e+07
1.80647e+07
1.80647e+07
1.80647e+07
1.80647e+07
1.80647e+07
1.80648e+07
1.80648e+07
1.80648e+07
1.80648e+07
1.80649e+07
1.80649e+07
1.8065e+07
1.8065e+07
1.80651e+07
1.80651e+07
1.80652e+07
1.80653e+07
1.80654e+07
1.80654e+07
1.80655e+07
1.80656e+07
1.80658e+07
1.80659e+07
1.8066e+07
1.80662e+07
1.80663e+07
1.80665e+07
1.80667e+07
1.80669e+07
1.80671e+07
1.80673e+07
1.80675e+07
1.80678e+07
1.80681e+07
1.80684e+07
1.80687e+07
1.8069e+07
1.80694e+07
1.80698e+07
1.80702e+07
1.80706e+07
1.80711e+07
1.80716e+07
1.80721e+07
1.80726e+07
1.80732e+07
1.80738e+07
1.80745e+07
1.80751e+07
1.80758e+07
1.80766e+07
1.80774e+07
1.80782e+07
1.8079e+07
1.80799e+07
1.80809e+07
1.80819e+07
1.80829e+07
1.80839e+07
1.80851e+07
1.80862e+07
1.80874e+07
1.80887e+07
1.809e+07
1.80913e+07
1.80927e+07
1.80942e+07
1.80957e+07
1.80973e+07
1.80989e+07
1.81005e+07
1.81023e+07
1.8104e+07
1.81059e+07
1.81078e+07
1.81098e+07
1.81118e+07
1.81139e+07
1.8116e+07
1.81182e+07
1.81205e+07
1.81228e+07
1.81252e+07
1.81277e+07
1.81302e+07
1.81328e+07
1.81355e+07
1.81382e+07
1.81411e+07
1.81439e+07
1.81469e+07
1.81499e+07
1.8153e+07
1.81562e+07
1.81595e+07
1.81628e+07
1.81662e+07
1.81697e+07
1.81733e+07
1.81769e+07
1.81806e+07
1.81845e+07
1.81883e+07
1.81923e+07
1.81964e+07
1.82005e+07
1.82048e+07
1.82091e+07
1.82135e+07
1.8218e+07
1.82225e+07
1.82272e+07
1.8232e+07
1.82368e+07
1.82418e+07
1.82468e+07
1.8252e+07
1.82572e+07
1.82625e+07
1.82679e+07
1.82735e+07
1.82791e+07
1.82848e+07
1.82906e+07
1.82965e+07
1.83026e+07
1.83087e+07
1.83149e+07
1.83213e+07
1.83277e+07
1.83342e+07
1.83409e+07
1.83476e+07
1.83545e+07
1.83615e+07
1.83686e+07
1.83758e+07
1.83831e+07
1.83905e+07
1.8398e+07
1.84057e+07
1.84134e+07
1.84213e+07
1.84293e+07
1.84374e+07
1.84456e+07
1.84539e+07
1.84624e+07
1.8471e+07
1.84799e+07
1.84898e+07
1.85016e+07
1.80645e+07
1.80645e+07
1.80645e+07
1.80645e+07
1.80645e+07
1.80645e+07
1.80645e+07
1.80645e+07
1.80645e+07
1.80645e+07
1.80645e+07
1.80645e+07
1.80645e+07
1.80645e+07
1.80645e+07
1.80645e+07
1.80645e+07
1.80645e+07
1.80645e+07
1.80645e+07
1.80645e+07
1.80645e+07
1.80646e+07
1.80646e+07
1.80646e+07
1.80646e+07
1.80646e+07
1.80646e+07
1.80646e+07
1.80646e+07
1.80646e+07
1.80646e+07
1.80646e+07
1.80646e+07
1.80646e+07
1.80646e+07
1.80646e+07
1.80646e+07
1.80646e+07
1.80646e+07
1.80646e+07
1.80646e+07
1.80646e+07
1.80646e+07
1.80646e+07
1.80646e+07
1.80646e+07
1.80646e+07
1.80647e+07
1.80647e+07
1.80647e+07
1.80647e+07
1.80647e+07
1.80648e+07
1.80648e+07
1.80648e+07
1.80648e+07
1.80649e+07
1.80649e+07
1.8065e+07
1.8065e+07
1.80651e+07
1.80651e+07
1.80652e+07
1.80653e+07
1.80654e+07
1.80654e+07
1.80655e+07
1.80656e+07
1.80658e+07
1.80659e+07
1.8066e+07
1.80662e+07
1.80663e+07
1.80665e+07
1.80667e+07
1.80669e+07
1.80671e+07
1.80673e+07
1.80675e+07
1.80678e+07
1.80681e+07
1.80684e+07
1.80687e+07
1.8069e+07
1.80694e+07
1.80698e+07
1.80702e+07
1.80706e+07
1.80711e+07
1.80716e+07
1.80721e+07
1.80726e+07
1.80732e+07
1.80738e+07
1.80745e+07
1.80751e+07
1.80758e+07
1.80766e+07
1.80774e+07
1.80782e+07
1.8079e+07
1.80799e+07
1.80809e+07
1.80819e+07
1.80829e+07
1.80839e+07
1.80851e+07
1.80862e+07
1.80874e+07
1.80887e+07
1.809e+07
1.80913e+07
1.80927e+07
1.80942e+07
1.80957e+07
1.80973e+07
1.80989e+07
1.81005e+07
1.81023e+07
1.8104e+07
1.81059e+07
1.81078e+07
1.81098e+07
1.81118e+07
1.81139e+07
1.8116e+07
1.81182e+07
1.81205e+07
1.81228e+07
1.81252e+07
1.81277e+07
1.81302e+07
1.81328e+07
1.81355e+07
1.81382e+07
1.81411e+07
1.81439e+07
1.81469e+07
1.81499e+07
1.8153e+07
1.81562e+07
1.81595e+07
1.81628e+07
1.81662e+07
1.81697e+07
1.81733e+07
1.81769e+07
1.81806e+07
1.81845e+07
1.81883e+07
1.81923e+07
1.81964e+07
1.82005e+07
1.82048e+07
1.82091e+07
1.82135e+07
1.8218e+07
1.82225e+07
1.82272e+07
1.8232e+07
1.82368e+07
1.82418e+07
1.82468e+07
1.8252e+07
1.82572e+07
1.82625e+07
1.82679e+07
1.82735e+07
1.82791e+07
1.82848e+07
1.82906e+07
1.82965e+07
1.83026e+07
1.83087e+07
1.83149e+07
1.83213e+07
1.83277e+07
1.83342e+07
1.83409e+07
1.83476e+07
1.83545e+07
1.83615e+07
1.83686e+07
1.83758e+07
1.83831e+07
1.83905e+07
1.8398e+07
1.84057e+07
1.84134e+07
1.84213e+07
1.84293e+07
1.84374e+07
1.84456e+07
1.84539e+07
1.84624e+07
1.8471e+07
1.84799e+07
1.84896e+07
1.8501e+07
1.80645e+07
1.80645e+07
1.80645e+07
1.80645e+07
1.80645e+07
1.80645e+07
1.80645e+07
1.80645e+07
1.80645e+07
1.80645e+07
1.80645e+07
1.80645e+07
1.80645e+07
1.80645e+07
1.80645e+07
1.80645e+07
1.80645e+07
1.80645e+07
1.80645e+07
1.80645e+07
1.80645e+07
1.80645e+07
1.80646e+07
1.80646e+07
1.80646e+07
1.80646e+07
1.80646e+07
1.80646e+07
1.80646e+07
1.80646e+07
1.80646e+07
1.80646e+07
1.80646e+07
1.80646e+07
1.80646e+07
1.80646e+07
1.80646e+07
1.80646e+07
1.80646e+07
1.80646e+07
1.80646e+07
1.80646e+07
1.80646e+07
1.80646e+07
1.80646e+07
1.80646e+07
1.80646e+07
1.80646e+07
1.80647e+07
1.80647e+07
1.80647e+07
1.80647e+07
1.80647e+07
1.80648e+07
1.80648e+07
1.80648e+07
1.80648e+07
1.80649e+07
1.80649e+07
1.8065e+07
1.8065e+07
1.80651e+07
1.80651e+07
1.80652e+07
1.80653e+07
1.80654e+07
1.80654e+07
1.80655e+07
1.80656e+07
1.80658e+07
1.80659e+07
1.8066e+07
1.80662e+07
1.80663e+07
1.80665e+07
1.80667e+07
1.80669e+07
1.80671e+07
1.80673e+07
1.80675e+07
1.80678e+07
1.80681e+07
1.80684e+07
1.80687e+07
1.8069e+07
1.80694e+07
1.80698e+07
1.80702e+07
1.80706e+07
1.80711e+07
1.80716e+07
1.80721e+07
1.80726e+07
1.80732e+07
1.80738e+07
1.80745e+07
1.80751e+07
1.80758e+07
1.80766e+07
1.80774e+07
1.80782e+07
1.8079e+07
1.80799e+07
1.80809e+07
1.80819e+07
1.80829e+07
1.80839e+07
1.80851e+07
1.80862e+07
1.80874e+07
1.80887e+07
1.809e+07
1.80913e+07
1.80927e+07
1.80942e+07
1.80957e+07
1.80973e+07
1.80989e+07
1.81005e+07
1.81023e+07
1.8104e+07
1.81059e+07
1.81078e+07
1.81098e+07
1.81118e+07
1.81139e+07
1.8116e+07
1.81182e+07
1.81205e+07
1.81228e+07
1.81252e+07
1.81277e+07
1.81302e+07
1.81328e+07
1.81355e+07
1.81382e+07
1.81411e+07
1.81439e+07
1.81469e+07
1.81499e+07
1.8153e+07
1.81562e+07
1.81595e+07
1.81628e+07
1.81662e+07
1.81697e+07
1.81733e+07
1.81769e+07
1.81806e+07
1.81845e+07
1.81883e+07
1.81923e+07
1.81964e+07
1.82005e+07
1.82048e+07
1.82091e+07
1.82135e+07
1.8218e+07
1.82225e+07
1.82272e+07
1.8232e+07
1.82368e+07
1.82418e+07
1.82468e+07
1.8252e+07
1.82572e+07
1.82625e+07
1.82679e+07
1.82735e+07
1.82791e+07
1.82848e+07
1.82906e+07
1.82965e+07
1.83026e+07
1.83087e+07
1.83149e+07
1.83213e+07
1.83277e+07
1.83342e+07
1.83409e+07
1.83476e+07
1.83545e+07
1.83615e+07
1.83686e+07
1.83758e+07
1.83831e+07
1.83905e+07
1.8398e+07
1.84057e+07
1.84134e+07
1.84213e+07
1.84293e+07
1.84374e+07
1.84456e+07
1.84539e+07
1.84624e+07
1.8471e+07
1.84797e+07
1.84889e+07
1.84988e+07
1.80645e+07
1.80645e+07
1.80645e+07
1.80645e+07
1.80645e+07
1.80645e+07
1.80645e+07
1.80645e+07
1.80645e+07
1.80645e+07
1.80645e+07
1.80645e+07
1.80645e+07
1.80645e+07
1.80645e+07
1.80645e+07
1.80645e+07
1.80645e+07
1.80645e+07
1.80645e+07
1.80645e+07
1.80645e+07
1.80646e+07
1.80646e+07
1.80646e+07
1.80646e+07
1.80646e+07
1.80646e+07
1.80646e+07
1.80646e+07
1.80646e+07
1.80646e+07
1.80646e+07
1.80646e+07
1.80646e+07
1.80646e+07
1.80646e+07
1.80646e+07
1.80646e+07
1.80646e+07
1.80646e+07
1.80646e+07
1.80646e+07
1.80646e+07
1.80646e+07
1.80646e+07
1.80646e+07
1.80646e+07
1.80647e+07
1.80647e+07
1.80647e+07
1.80647e+07
1.80647e+07
1.80648e+07
1.80648e+07
1.80648e+07
1.80648e+07
1.80649e+07
1.80649e+07
1.8065e+07
1.8065e+07
1.80651e+07
1.80651e+07
1.80652e+07
1.80653e+07
1.80654e+07
1.80654e+07
1.80655e+07
1.80656e+07
1.80658e+07
1.80659e+07
1.8066e+07
1.80662e+07
1.80663e+07
1.80665e+07
1.80667e+07
1.80669e+07
1.80671e+07
1.80673e+07
1.80675e+07
1.80678e+07
1.80681e+07
1.80684e+07
1.80687e+07
1.8069e+07
1.80694e+07
1.80698e+07
1.80702e+07
1.80706e+07
1.80711e+07
1.80716e+07
1.80721e+07
1.80726e+07
1.80732e+07
1.80738e+07
1.80745e+07
1.80751e+07
1.80758e+07
1.80766e+07
1.80774e+07
1.80782e+07
1.8079e+07
1.80799e+07
1.80809e+07
1.80819e+07
1.80829e+07
1.80839e+07
1.80851e+07
1.80862e+07
1.80874e+07
1.80887e+07
1.809e+07
1.80913e+07
1.80927e+07
1.80942e+07
1.80957e+07
1.80973e+07
1.80989e+07
1.81005e+07
1.81023e+07
1.8104e+07
1.81059e+07
1.81078e+07
1.81098e+07
1.81118e+07
1.81139e+07
1.8116e+07
1.81182e+07
1.81205e+07
1.81228e+07
1.81252e+07
1.81277e+07
1.81302e+07
1.81328e+07
1.81355e+07
1.81382e+07
1.81411e+07
1.81439e+07
1.81469e+07
1.81499e+07
1.8153e+07
1.81562e+07
1.81595e+07
1.81628e+07
1.81662e+07
1.81697e+07
1.81733e+07
1.81769e+07
1.81806e+07
1.81845e+07
1.81883e+07
1.81923e+07
1.81964e+07
1.82005e+07
1.82048e+07
1.82091e+07
1.82135e+07
1.8218e+07
1.82225e+07
1.82272e+07
1.8232e+07
1.82368e+07
1.82418e+07
1.82468e+07
1.8252e+07
1.82572e+07
1.82625e+07
1.82679e+07
1.82735e+07
1.82791e+07
1.82848e+07
1.82906e+07
1.82965e+07
1.83026e+07
1.83087e+07
1.83149e+07
1.83213e+07
1.83277e+07
1.83342e+07
1.83409e+07
1.83476e+07
1.83545e+07
1.83615e+07
1.83686e+07
1.83758e+07
1.83831e+07
1.83905e+07
1.8398e+07
1.84057e+07
1.84134e+07
1.84213e+07
1.84293e+07
1.84374e+07
1.84456e+07
1.84539e+07
1.84624e+07
1.84709e+07
1.84795e+07
1.8488e+07
1.84957e+07
1.80645e+07
1.80645e+07
1.80645e+07
1.80645e+07
1.80645e+07
1.80645e+07
1.80645e+07
1.80645e+07
1.80645e+07
1.80645e+07
1.80645e+07
1.80645e+07
1.80645e+07
1.80645e+07
1.80645e+07
1.80645e+07
1.80645e+07
1.80645e+07
1.80645e+07
1.80645e+07
1.80645e+07
1.80645e+07
1.80646e+07
1.80646e+07
1.80646e+07
1.80646e+07
1.80646e+07
1.80646e+07
1.80646e+07
1.80646e+07
1.80646e+07
1.80646e+07
1.80646e+07
1.80646e+07
1.80646e+07
1.80646e+07
1.80646e+07
1.80646e+07
1.80646e+07
1.80646e+07
1.80646e+07
1.80646e+07
1.80646e+07
1.80646e+07
1.80646e+07
1.80646e+07
1.80646e+07
1.80646e+07
1.80647e+07
1.80647e+07
1.80647e+07
1.80647e+07
1.80647e+07
1.80648e+07
1.80648e+07
1.80648e+07
1.80648e+07
1.80649e+07
1.80649e+07
1.8065e+07
1.8065e+07
1.80651e+07
1.80651e+07
1.80652e+07
1.80653e+07
1.80654e+07
1.80654e+07
1.80655e+07
1.80656e+07
1.80658e+07
1.80659e+07
1.8066e+07
1.80662e+07
1.80663e+07
1.80665e+07
1.80667e+07
1.80669e+07
1.80671e+07
1.80673e+07
1.80675e+07
1.80678e+07
1.80681e+07
1.80684e+07
1.80687e+07
1.8069e+07
1.80694e+07
1.80698e+07
1.80702e+07
1.80706e+07
1.80711e+07
1.80716e+07
1.80721e+07
1.80726e+07
1.80732e+07
1.80738e+07
1.80745e+07
1.80751e+07
1.80758e+07
1.80766e+07
1.80774e+07
1.80782e+07
1.8079e+07
1.80799e+07
1.80809e+07
1.80819e+07
1.80829e+07
1.80839e+07
1.80851e+07
1.80862e+07
1.80874e+07
1.80887e+07
1.809e+07
1.80913e+07
1.80927e+07
1.80942e+07
1.80957e+07
1.80973e+07
1.80989e+07
1.81005e+07
1.81023e+07
1.8104e+07
1.81059e+07
1.81078e+07
1.81098e+07
1.81118e+07
1.81139e+07
1.8116e+07
1.81182e+07
1.81205e+07
1.81228e+07
1.81252e+07
1.81277e+07
1.81302e+07
1.81328e+07
1.81355e+07
1.81382e+07
1.81411e+07
1.81439e+07
1.81469e+07
1.81499e+07
1.8153e+07
1.81562e+07
1.81595e+07
1.81628e+07
1.81662e+07
1.81697e+07
1.81733e+07
1.81769e+07
1.81806e+07
1.81845e+07
1.81883e+07
1.81923e+07
1.81964e+07
1.82005e+07
1.82048e+07
1.82091e+07
1.82135e+07
1.8218e+07
1.82225e+07
1.82272e+07
1.8232e+07
1.82368e+07
1.82418e+07
1.82468e+07
1.8252e+07
1.82572e+07
1.82625e+07
1.82679e+07
1.82735e+07
1.82791e+07
1.82848e+07
1.82906e+07
1.82965e+07
1.83026e+07
1.83087e+07
1.83149e+07
1.83213e+07
1.83277e+07
1.83342e+07
1.83409e+07
1.83476e+07
1.83545e+07
1.83615e+07
1.83686e+07
1.83758e+07
1.83831e+07
1.83905e+07
1.8398e+07
1.84057e+07
1.84134e+07
1.84213e+07
1.84293e+07
1.84374e+07
1.84456e+07
1.84539e+07
1.84624e+07
1.84709e+07
1.84793e+07
1.84871e+07
1.8493e+07
1.80645e+07
1.80645e+07
1.80645e+07
1.80645e+07
1.80645e+07
1.80645e+07
1.80645e+07
1.80645e+07
1.80645e+07
1.80645e+07
1.80645e+07
1.80645e+07
1.80645e+07
1.80645e+07
1.80645e+07
1.80645e+07
1.80645e+07
1.80645e+07
1.80645e+07
1.80645e+07
1.80645e+07
1.80645e+07
1.80646e+07
1.80646e+07
1.80646e+07
1.80646e+07
1.80646e+07
1.80646e+07
1.80646e+07
1.80646e+07
1.80646e+07
1.80646e+07
1.80646e+07
1.80646e+07
1.80646e+07
1.80646e+07
1.80646e+07
1.80646e+07
1.80646e+07
1.80646e+07
1.80646e+07
1.80646e+07
1.80646e+07
1.80646e+07
1.80646e+07
1.80646e+07
1.80646e+07
1.80646e+07
1.80647e+07
1.80647e+07
1.80647e+07
1.80647e+07
1.80647e+07
1.80648e+07
1.80648e+07
1.80648e+07
1.80648e+07
1.80649e+07
1.80649e+07
1.8065e+07
1.8065e+07
1.80651e+07
1.80651e+07
1.80652e+07
1.80653e+07
1.80654e+07
1.80654e+07
1.80655e+07
1.80656e+07
1.80658e+07
1.80659e+07
1.8066e+07
1.80662e+07
1.80663e+07
1.80665e+07
1.80667e+07
1.80669e+07
1.80671e+07
1.80673e+07
1.80675e+07
1.80678e+07
1.80681e+07
1.80684e+07
1.80687e+07
1.8069e+07
1.80694e+07
1.80698e+07
1.80702e+07
1.80706e+07
1.80711e+07
1.80716e+07
1.80721e+07
1.80726e+07
1.80732e+07
1.80738e+07
1.80745e+07
1.80751e+07
1.80758e+07
1.80766e+07
1.80774e+07
1.80782e+07
1.8079e+07
1.80799e+07
1.80809e+07
1.80819e+07
1.80829e+07
1.80839e+07
1.80851e+07
1.80862e+07
1.80874e+07
1.80887e+07
1.809e+07
1.80913e+07
1.80927e+07
1.80942e+07
1.80957e+07
1.80973e+07
1.80989e+07
1.81005e+07
1.81023e+07
1.8104e+07
1.81059e+07
1.81078e+07
1.81098e+07
1.81118e+07
1.81139e+07
1.8116e+07
1.81182e+07
1.81205e+07
1.81228e+07
1.81252e+07
1.81277e+07
1.81302e+07
1.81328e+07
1.81355e+07
1.81382e+07
1.81411e+07
1.81439e+07
1.81469e+07
1.81499e+07
1.8153e+07
1.81562e+07
1.81595e+07
1.81628e+07
1.81662e+07
1.81697e+07
1.81733e+07
1.81769e+07
1.81806e+07
1.81845e+07
1.81883e+07
1.81923e+07
1.81964e+07
1.82005e+07
1.82048e+07
1.82091e+07
1.82135e+07
1.8218e+07
1.82225e+07
1.82272e+07
1.8232e+07
1.82368e+07
1.82418e+07
1.82468e+07
1.8252e+07
1.82572e+07
1.82625e+07
1.82679e+07
1.82735e+07
1.82791e+07
1.82848e+07
1.82906e+07
1.82965e+07
1.83026e+07
1.83087e+07
1.83149e+07
1.83213e+07
1.83277e+07
1.83342e+07
1.83409e+07
1.83476e+07
1.83545e+07
1.83615e+07
1.83686e+07
1.83758e+07
1.83831e+07
1.83905e+07
1.8398e+07
1.84057e+07
1.84134e+07
1.84213e+07
1.84293e+07
1.84374e+07
1.84456e+07
1.84539e+07
1.84624e+07
1.84709e+07
1.84793e+07
1.84868e+07
1.84924e+07
1.80645e+07
1.80645e+07
1.80645e+07
1.80645e+07
1.80645e+07
1.80645e+07
1.80645e+07
1.80645e+07
1.80645e+07
1.80645e+07
1.80645e+07
1.80645e+07
1.80645e+07
1.80645e+07
1.80645e+07
1.80645e+07
1.80645e+07
1.80645e+07
1.80645e+07
1.80645e+07
1.80645e+07
1.80645e+07
1.80646e+07
1.80646e+07
1.80646e+07
1.80646e+07
1.80646e+07
1.80646e+07
1.80646e+07
1.80646e+07
1.80646e+07
1.80646e+07
1.80646e+07
1.80646e+07
1.80646e+07
1.80646e+07
1.80646e+07
1.80646e+07
1.80646e+07
1.80646e+07
1.80646e+07
1.80646e+07
1.80646e+07
1.80646e+07
1.80646e+07
1.80646e+07
1.80646e+07
1.80646e+07
1.80647e+07
1.80647e+07
1.80647e+07
1.80647e+07
1.80647e+07
1.80648e+07
1.80648e+07
1.80648e+07
1.80648e+07
1.80649e+07
1.80649e+07
1.8065e+07
1.8065e+07
1.80651e+07
1.80651e+07
1.80652e+07
1.80653e+07
1.80654e+07
1.80654e+07
1.80655e+07
1.80656e+07
1.80658e+07
1.80659e+07
1.8066e+07
1.80662e+07
1.80663e+07
1.80665e+07
1.80667e+07
1.80669e+07
1.80671e+07
1.80673e+07
1.80675e+07
1.80678e+07
1.80681e+07
1.80684e+07
1.80687e+07
1.8069e+07
1.80694e+07
1.80698e+07
1.80702e+07
1.80706e+07
1.80711e+07
1.80716e+07
1.80721e+07
1.80726e+07
1.80732e+07
1.80738e+07
1.80745e+07
1.80751e+07
1.80758e+07
1.80766e+07
1.80774e+07
1.80782e+07
1.8079e+07
1.80799e+07
1.80809e+07
1.80819e+07
1.80829e+07
1.80839e+07
1.80851e+07
1.80862e+07
1.80874e+07
1.80887e+07
1.809e+07
1.80913e+07
1.80927e+07
1.80942e+07
1.80957e+07
1.80973e+07
1.80989e+07
1.81005e+07
1.81023e+07
1.8104e+07
1.81059e+07
1.81078e+07
1.81098e+07
1.81118e+07
1.81139e+07
1.8116e+07
1.81182e+07
1.81205e+07
1.81228e+07
1.81252e+07
1.81277e+07
1.81302e+07
1.81328e+07
1.81355e+07
1.81382e+07
1.81411e+07
1.81439e+07
1.81469e+07
1.81499e+07
1.8153e+07
1.81562e+07
1.81595e+07
1.81628e+07
1.81662e+07
1.81697e+07
1.81733e+07
1.81769e+07
1.81806e+07
1.81845e+07
1.81883e+07
1.81923e+07
1.81964e+07
1.82005e+07
1.82048e+07
1.82091e+07
1.82135e+07
1.8218e+07
1.82225e+07
1.82272e+07
1.8232e+07
1.82368e+07
1.82418e+07
1.82468e+07
1.8252e+07
1.82572e+07
1.82625e+07
1.82679e+07
1.82735e+07
1.82791e+07
1.82848e+07
1.82906e+07
1.82965e+07
1.83026e+07
1.83087e+07
1.83149e+07
1.83213e+07
1.83277e+07
1.83342e+07
1.83409e+07
1.83476e+07
1.83545e+07
1.83615e+07
1.83686e+07
1.83758e+07
1.83831e+07
1.83905e+07
1.8398e+07
1.84057e+07
1.84134e+07
1.84213e+07
1.84293e+07
1.84374e+07
1.84456e+07
1.84539e+07
1.84624e+07
1.84709e+07
1.84793e+07
1.84867e+07
1.84924e+07
1.80645e+07
1.80645e+07
1.80645e+07
1.80645e+07
1.80645e+07
1.80645e+07
1.80645e+07
1.80645e+07
1.80645e+07
1.80645e+07
1.80645e+07
1.80645e+07
1.80645e+07
1.80645e+07
1.80645e+07
1.80645e+07
1.80645e+07
1.80645e+07
1.80645e+07
1.80645e+07
1.80645e+07
1.80645e+07
1.80646e+07
1.80646e+07
1.80646e+07
1.80646e+07
1.80646e+07
1.80646e+07
1.80646e+07
1.80646e+07
1.80646e+07
1.80646e+07
1.80646e+07
1.80646e+07
1.80646e+07
1.80646e+07
1.80646e+07
1.80646e+07
1.80646e+07
1.80646e+07
1.80646e+07
1.80646e+07
1.80646e+07
1.80646e+07
1.80646e+07
1.80646e+07
1.80646e+07
1.80646e+07
1.80647e+07
1.80647e+07
1.80647e+07
1.80647e+07
1.80647e+07
1.80648e+07
1.80648e+07
1.80648e+07
1.80648e+07
1.80649e+07
1.80649e+07
1.8065e+07
1.8065e+07
1.80651e+07
1.80651e+07
1.80652e+07
1.80653e+07
1.80654e+07
1.80654e+07
1.80655e+07
1.80656e+07
1.80658e+07
1.80659e+07
1.8066e+07
1.80662e+07
1.80663e+07
1.80665e+07
1.80667e+07
1.80669e+07
1.80671e+07
1.80673e+07
1.80675e+07
1.80678e+07
1.80681e+07
1.80684e+07
1.80687e+07
1.8069e+07
1.80694e+07
1.80698e+07
1.80702e+07
1.80706e+07
1.80711e+07
1.80716e+07
1.80721e+07
1.80726e+07
1.80732e+07
1.80738e+07
1.80745e+07
1.80751e+07
1.80758e+07
1.80766e+07
1.80774e+07
1.80782e+07
1.8079e+07
1.80799e+07
1.80809e+07
1.80819e+07
1.80829e+07
1.80839e+07
1.80851e+07
1.80862e+07
1.80874e+07
1.80887e+07
1.809e+07
1.80913e+07
1.80927e+07
1.80942e+07
1.80957e+07
1.80973e+07
1.80989e+07
1.81005e+07
1.81023e+07
1.8104e+07
1.81059e+07
1.81078e+07
1.81098e+07
1.81118e+07
1.81139e+07
1.8116e+07
1.81182e+07
1.81205e+07
1.81228e+07
1.81252e+07
1.81277e+07
1.81302e+07
1.81328e+07
1.81355e+07
1.81382e+07
1.81411e+07
1.81439e+07
1.81469e+07
1.81499e+07
1.8153e+07
1.81562e+07
1.81595e+07
1.81628e+07
1.81662e+07
1.81697e+07
1.81733e+07
1.81769e+07
1.81806e+07
1.81845e+07
1.81883e+07
1.81923e+07
1.81964e+07
1.82005e+07
1.82048e+07
1.82091e+07
1.82135e+07
1.8218e+07
1.82225e+07
1.82272e+07
1.8232e+07
1.82368e+07
1.82418e+07
1.82468e+07
1.8252e+07
1.82572e+07
1.82625e+07
1.82679e+07
1.82735e+07
1.82791e+07
1.82848e+07
1.82906e+07
1.82965e+07
1.83026e+07
1.83087e+07
1.83149e+07
1.83213e+07
1.83277e+07
1.83342e+07
1.83409e+07
1.83476e+07
1.83545e+07
1.83615e+07
1.83686e+07
1.83758e+07
1.83831e+07
1.83905e+07
1.8398e+07
1.84057e+07
1.84134e+07
1.84213e+07
1.84293e+07
1.84374e+07
1.84456e+07
1.84539e+07
1.84624e+07
1.84709e+07
1.84793e+07
1.84867e+07
1.84923e+07
1.85301e+07
1.85426e+07
1.85482e+07
1.85505e+07
1.85522e+07
1.85539e+07
1.85555e+07
1.85569e+07
1.85582e+07
1.85595e+07
1.85608e+07
1.8562e+07
1.85631e+07
1.85641e+07
1.85649e+07
1.85654e+07
1.85655e+07
1.85651e+07
1.85637e+07
1.85605e+07
1.85286e+07
1.85396e+07
1.85451e+07
1.85474e+07
1.85491e+07
1.85508e+07
1.85524e+07
1.85539e+07
1.85552e+07
1.85565e+07
1.85578e+07
1.8559e+07
1.85601e+07
1.85611e+07
1.85619e+07
1.85624e+07
1.85625e+07
1.85621e+07
1.85607e+07
1.85576e+07
1.85272e+07
1.85384e+07
1.85444e+07
1.85471e+07
1.85488e+07
1.85505e+07
1.85521e+07
1.85536e+07
1.85549e+07
1.85562e+07
1.85574e+07
1.85586e+07
1.85597e+07
1.85606e+07
1.85614e+07
1.85618e+07
1.85618e+07
1.85611e+07
1.85595e+07
1.85561e+07
1.85213e+07
1.85281e+07
1.85313e+07
1.85329e+07
1.85343e+07
1.85359e+07
1.85373e+07
1.85387e+07
1.85401e+07
1.85414e+07
1.85428e+07
1.85441e+07
1.85453e+07
1.85463e+07
1.85472e+07
1.85478e+07
1.85481e+07
1.85478e+07
1.85466e+07
1.85444e+07
1.85128e+07
1.85182e+07
1.85229e+07
1.85266e+07
1.85297e+07
1.85322e+07
1.85342e+07
1.85359e+07
1.85374e+07
1.85387e+07
1.85399e+07
1.85409e+07
1.85414e+07
1.85419e+07
1.85423e+07
1.85423e+07
1.8542e+07
1.85415e+07
1.85408e+07
1.85397e+07
1.8496e+07
1.84949e+07
1.84933e+07
1.84917e+07
1.84906e+07
1.84901e+07
1.84903e+07
1.84909e+07
1.84918e+07
1.84929e+07
1.84944e+07
1.84959e+07
1.8498e+07
1.85e+07
1.85019e+07
1.85039e+07
1.85061e+07
1.85084e+07
1.85109e+07
1.85138e+07
1.84792e+07
1.84759e+07
1.84761e+07
1.84782e+07
1.84803e+07
1.84821e+07
1.84838e+07
1.84853e+07
1.84867e+07
1.84881e+07
1.84892e+07
1.84903e+07
1.84914e+07
1.84924e+07
1.84936e+07
1.84951e+07
1.84969e+07
1.84996e+07
1.85032e+07
1.85079e+07
1.84566e+07
1.84427e+07
1.84321e+07
1.84255e+07
1.84217e+07
1.84195e+07
1.84183e+07
1.84181e+07
1.84187e+07
1.84201e+07
1.8422e+07
1.84246e+07
1.84278e+07
1.84318e+07
1.84365e+07
1.8442e+07
1.84485e+07
1.84563e+07
1.84655e+07
1.84763e+07
1.84499e+07
1.84351e+07
1.84259e+07
1.8421e+07
1.84184e+07
1.84168e+07
1.8416e+07
1.8416e+07
1.84168e+07
1.84181e+07
1.842e+07
1.84224e+07
1.84255e+07
1.84292e+07
1.84336e+07
1.84388e+07
1.8445e+07
1.84523e+07
1.84614e+07
1.84724e+07
1.84434e+07
1.84218e+07
1.84093e+07
1.84029e+07
1.83992e+07
1.83969e+07
1.83957e+07
1.83955e+07
1.83962e+07
1.83977e+07
1.83998e+07
1.84025e+07
1.84059e+07
1.84101e+07
1.84152e+07
1.84211e+07
1.84281e+07
1.84365e+07
1.84469e+07
1.84596e+07
1.85444e+07
1.85407e+07
1.8545e+07
1.85519e+07
1.85594e+07
1.8567e+07
1.85748e+07
1.85827e+07
1.85907e+07
1.85988e+07
1.86069e+07
1.86151e+07
1.86234e+07
1.86318e+07
1.86402e+07
1.86487e+07
1.86573e+07
1.8666e+07
1.86747e+07
1.86835e+07
1.86923e+07
1.87012e+07
1.87102e+07
1.87193e+07
1.87284e+07
1.87376e+07
1.87468e+07
1.87561e+07
1.87655e+07
1.8775e+07
1.87845e+07
1.8794e+07
1.88036e+07
1.88133e+07
1.88231e+07
1.88328e+07
1.88427e+07
1.88526e+07
1.88626e+07
1.88726e+07
1.88826e+07
1.88928e+07
1.89029e+07
1.89131e+07
1.89234e+07
1.89337e+07
1.89441e+07
1.89545e+07
1.89649e+07
1.89754e+07
1.89859e+07
1.89965e+07
1.90071e+07
1.90178e+07
1.90284e+07
1.90392e+07
1.90499e+07
1.90607e+07
1.90715e+07
1.90823e+07
1.90932e+07
1.91041e+07
1.9115e+07
1.9126e+07
1.91369e+07
1.91479e+07
1.9159e+07
1.917e+07
1.9181e+07
1.91921e+07
1.92032e+07
1.92143e+07
1.92254e+07
1.92365e+07
1.92476e+07
1.92587e+07
1.92699e+07
1.9281e+07
1.92921e+07
1.93033e+07
1.93144e+07
1.93256e+07
1.93367e+07
1.93479e+07
1.9359e+07
1.93701e+07
1.93812e+07
1.93923e+07
1.94034e+07
1.94145e+07
1.94256e+07
1.94367e+07
1.94477e+07
1.94587e+07
1.94697e+07
1.94807e+07
1.94917e+07
1.95026e+07
1.95135e+07
1.95244e+07
1.95353e+07
1.95461e+07
1.9557e+07
1.95677e+07
1.95785e+07
1.95892e+07
1.95999e+07
1.96106e+07
1.96212e+07
1.96318e+07
1.96423e+07
1.96528e+07
1.96633e+07
1.96737e+07
1.96841e+07
1.96945e+07
1.97048e+07
1.97151e+07
1.97253e+07
1.97355e+07
1.97457e+07
1.97558e+07
1.97658e+07
1.97758e+07
1.97858e+07
1.97957e+07
1.98056e+07
1.98154e+07
1.98252e+07
1.98349e+07
1.98446e+07
1.98542e+07
1.98638e+07
1.98733e+07
1.98828e+07
1.98922e+07
1.99016e+07
1.99109e+07
1.99202e+07
1.99294e+07
1.99385e+07
1.99476e+07
1.99567e+07
1.99657e+07
1.99746e+07
1.99835e+07
1.99923e+07
2.00011e+07
2.00098e+07
2.00184e+07
2.0027e+07
2.00355e+07
2.0044e+07
2.00524e+07
2.00608e+07
2.00691e+07
2.00774e+07
2.00856e+07
2.00937e+07
2.01018e+07
2.01098e+07
2.01178e+07
2.01257e+07
2.01335e+07
2.01413e+07
2.01491e+07
2.01567e+07
2.01643e+07
2.01719e+07
2.01794e+07
2.01868e+07
2.01941e+07
2.02014e+07
2.02087e+07
2.02158e+07
2.02229e+07
2.02299e+07
2.02369e+07
2.02438e+07
2.02507e+07
2.02574e+07
2.02642e+07
2.02708e+07
2.02774e+07
2.0284e+07
2.02904e+07
2.02969e+07
2.03032e+07
2.03095e+07
2.03158e+07
2.0322e+07
2.03281e+07
2.03342e+07
2.03402e+07
2.03461e+07
2.0352e+07
2.03579e+07
2.03637e+07
2.03694e+07
2.03751e+07
1.85434e+07
1.85405e+07
1.85449e+07
1.85519e+07
1.85594e+07
1.8567e+07
1.85748e+07
1.85827e+07
1.85907e+07
1.85988e+07
1.86069e+07
1.86151e+07
1.86234e+07
1.86318e+07
1.86402e+07
1.86487e+07
1.86573e+07
1.8666e+07
1.86747e+07
1.86835e+07
1.86923e+07
1.87012e+07
1.87102e+07
1.87193e+07
1.87284e+07
1.87376e+07
1.87468e+07
1.87561e+07
1.87655e+07
1.8775e+07
1.87845e+07
1.8794e+07
1.88036e+07
1.88133e+07
1.88231e+07
1.88328e+07
1.88427e+07
1.88526e+07
1.88626e+07
1.88726e+07
1.88826e+07
1.88928e+07
1.89029e+07
1.89131e+07