/*--------------------------------*- C++ -*----------------------------------*\
| =========                 |                                                 |
| \\      /  F ield         | OpenFOAM: The Open Source CFD Toolbox           |
|  \\    /   O peration     | Version:  3.0.x                                 |
|   \\  /    A nd           | Web:      www.OpenFOAM.org                      |
|    \\/     M anipulation  |                                                 |
\*---------------------------------------------------------------------------*/
FoamFile
{
    version     2.0;
    format      ascii;
    class       volScalarField;
    location    "0.48";
    object      rho;
}
// * * * * * * * * * * * * * * * * * * * * * * * * * * * * * * * * * * * * * //

dimensions      [1 -3 0 0 0 0 0];

internalField   nonuniform List<scalar> 
13800
(
50.6148
50.6148
50.6148
50.6149
50.6149
50.6149
50.6149
50.6149
50.6149
50.6149
50.6149
50.6149
50.6149
50.6149
50.6149
50.6149
50.6149
50.615
50.615
50.615
50.615
50.615
50.615
50.615
50.615
50.615
50.615
50.615
50.615
50.615
50.615
50.615
50.6151
50.6151
50.6151
50.6151
50.6151
50.6151
50.6151
50.6151
50.6151
50.6152
50.6152
50.6152
50.6152
50.6152
50.6153
50.6153
50.6153
50.6154
50.6154
50.6155
50.6155
50.6156
50.6156
50.6157
50.6158
50.6159
50.616
50.6161
50.6162
50.6163
50.6164
50.6165
50.6167
50.6169
50.6171
50.6173
50.6175
50.6178
50.6182
50.6186
50.6191
50.6195
50.62
50.6205
50.621
50.6215
50.622
50.6226
50.6232
50.6239
50.6245
50.6253
50.626
50.6268
50.6277
50.6287
50.6297
50.6308
50.632
50.6333
50.6346
50.636
50.6374
50.6389
50.6405
50.6422
50.644
50.6459
50.6479
50.65
50.6522
50.6545
50.6568
50.6593
50.6619
50.6645
50.6672
50.6701
50.673
50.6761
50.6792
50.6824
50.6858
50.6893
50.6929
50.6966
50.7005
50.7046
50.7088
50.7131
50.7177
50.7223
50.7271
50.7321
50.7371
50.7423
50.7477
50.7532
50.7588
50.7646
50.7705
50.7766
50.7828
50.7892
50.7958
50.8026
50.8095
50.8165
50.8238
50.8312
50.8388
50.8466
50.8545
50.8627
50.871
50.8795
50.8882
50.897
50.9061
50.9154
50.9248
50.9345
50.9444
50.9544
50.9647
50.9752
50.9858
50.9967
51.0078
51.0191
51.0307
51.0424
51.0544
51.0665
51.0789
51.0916
51.1044
51.1175
51.1309
51.1444
51.1582
51.1722
51.1865
51.201
51.2157
51.2307
51.246
51.2615
51.2772
51.2932
51.3094
51.3259
51.3427
51.3596
51.3771
51.3943
51.4124
51.4301
51.4488
51.4669
51.4864
51.5047
51.525
51.5436
51.5648
51.5837
51.6082
51.6205
50.6165
50.6165
50.6165
50.6165
50.6165
50.6165
50.6165
50.6165
50.6165
50.6165
50.6165
50.6165
50.6165
50.6165
50.6165
50.6165
50.6165
50.6165
50.6165
50.6165
50.6165
50.6165
50.6165
50.6165
50.6165
50.6165
50.6165
50.6165
50.6165
50.6165
50.6165
50.6165
50.6166
50.6166
50.6166
50.6166
50.6166
50.6166
50.6166
50.6166
50.6166
50.6166
50.6166
50.6167
50.6167
50.6167
50.6167
50.6167
50.6168
50.6168
50.6169
50.6169
50.6169
50.617
50.6171
50.6171
50.6172
50.6173
50.6174
50.6175
50.6176
50.6177
50.6178
50.6179
50.6181
50.6182
50.6184
50.6186
50.6189
50.6192
50.6195
50.6199
50.6204
50.6208
50.6213
50.6218
50.6223
50.6228
50.6233
50.6239
50.6245
50.6252
50.6259
50.6266
50.6273
50.6281
50.629
50.63
50.631
50.6321
50.6333
50.6345
50.6359
50.6372
50.6387
50.6402
50.6418
50.6434
50.6452
50.6471
50.6491
50.6512
50.6533
50.6556
50.658
50.6605
50.663
50.6657
50.6684
50.6712
50.6742
50.6772
50.6804
50.6836
50.6869
50.6904
50.694
50.6978
50.7017
50.7057
50.7099
50.7142
50.7187
50.7234
50.7282
50.7331
50.7382
50.7434
50.7488
50.7542
50.7599
50.7656
50.7716
50.7777
50.7839
50.7903
50.7969
50.8036
50.8105
50.8176
50.8248
50.8322
50.8398
50.8476
50.8555
50.8637
50.872
50.8805
50.8892
50.8981
50.9071
50.9164
50.9259
50.9355
50.9454
50.9554
50.9657
50.9762
50.9869
50.9977
51.0088
51.0202
51.0317
51.0434
51.0554
51.0676
51.08
51.0926
51.1055
51.1186
51.1319
51.1454
51.1592
51.1733
51.1875
51.202
51.2168
51.2318
51.247
51.2625
51.2782
51.2942
51.3105
51.3269
51.3438
51.3606
51.3781
51.3953
51.4135
51.4311
51.4499
51.4679
51.4874
51.5057
51.526
51.5446
51.5658
51.5846
51.6093
51.6185
50.6165
50.6165
50.6165
50.6165
50.6165
50.6165
50.6165
50.6165
50.6165
50.6165
50.6165
50.6165
50.6165
50.6165
50.6165
50.6165
50.6165
50.6165
50.6165
50.6165
50.6165
50.6165
50.6165
50.6165
50.6165
50.6165
50.6165
50.6165
50.6165
50.6165
50.6165
50.6166
50.6166
50.6166
50.6166
50.6166
50.6166
50.6166
50.6166
50.6166
50.6166
50.6166
50.6166
50.6167
50.6167
50.6167
50.6167
50.6168
50.6168
50.6168
50.6169
50.6169
50.617
50.617
50.6171
50.6171
50.6172
50.6173
50.6174
50.6175
50.6176
50.6177
50.6178
50.6179
50.6181
50.6182
50.6184
50.6186
50.6189
50.6192
50.6195
50.6199
50.6204
50.6208
50.6213
50.6218
50.6223
50.6228
50.6233
50.6239
50.6245
50.6252
50.6259
50.6266
50.6273
50.6281
50.629
50.63
50.631
50.6321
50.6333
50.6345
50.6359
50.6372
50.6387
50.6402
50.6418
50.6434
50.6452
50.6471
50.6491
50.6512
50.6534
50.6556
50.658
50.6605
50.663
50.6657
50.6684
50.6712
50.6742
50.6772
50.6804
50.6836
50.6869
50.6904
50.694
50.6978
50.7017
50.7057
50.7099
50.7142
50.7187
50.7234
50.7282
50.7331
50.7382
50.7434
50.7488
50.7542
50.7599
50.7657
50.7716
50.7777
50.7839
50.7903
50.7969
50.8036
50.8105
50.8176
50.8248
50.8322
50.8398
50.8476
50.8555
50.8637
50.872
50.8805
50.8892
50.8981
50.9071
50.9164
50.9259
50.9355
50.9454
50.9554
50.9657
50.9762
50.9869
50.9977
51.0088
51.0202
51.0317
51.0434
51.0554
51.0676
51.08
51.0926
51.1055
51.1186
51.1319
51.1454
51.1592
51.1733
51.1875
51.202
51.2168
51.2318
51.247
51.2625
51.2782
51.2942
51.3105
51.3269
51.3438
51.3606
51.3781
51.3953
51.4135
51.4311
51.4499
51.4679
51.4874
51.5057
51.526
51.5446
51.5658
51.5846
51.6092
51.6189
50.6164
50.6164
50.6164
50.6165
50.6165
50.6165
50.6165
50.6165
50.6165
50.6165
50.6165
50.6165
50.6165
50.6165
50.6165
50.6165
50.6165
50.6165
50.6165
50.6165
50.6165
50.6165
50.6165
50.6165
50.6165
50.6165
50.6165
50.6165
50.6165
50.6165
50.6165
50.6165
50.6165
50.6165
50.6166
50.6166
50.6166
50.6166
50.6166
50.6166
50.6166
50.6166
50.6166
50.6167
50.6167
50.6167
50.6167
50.6167
50.6168
50.6168
50.6168
50.6169
50.6169
50.617
50.6171
50.6171
50.6172
50.6173
50.6174
50.6175
50.6176
50.6177
50.6178
50.6179
50.6181
50.6182
50.6184
50.6186
50.6189
50.6192
50.6195
50.6199
50.6204
50.6208
50.6213
50.6218
50.6223
50.6228
50.6233
50.6239
50.6245
50.6252
50.6259
50.6266
50.6273
50.6281
50.629
50.63
50.631
50.6321
50.6333
50.6345
50.6358
50.6372
50.6387
50.6402
50.6418
50.6434
50.6452
50.6471
50.6491
50.6512
50.6533
50.6556
50.658
50.6605
50.663
50.6657
50.6684
50.6712
50.6742
50.6772
50.6804
50.6836
50.6869
50.6904
50.694
50.6978
50.7017
50.7057
50.7099
50.7142
50.7187
50.7234
50.7282
50.7331
50.7382
50.7434
50.7488
50.7542
50.7599
50.7657
50.7716
50.7777
50.7839
50.7903
50.7969
50.8036
50.8105
50.8176
50.8248
50.8322
50.8398
50.8476
50.8555
50.8637
50.872
50.8805
50.8892
50.8981
50.9071
50.9164
50.9259
50.9355
50.9454
50.9554
50.9657
50.9762
50.9869
50.9977
51.0088
51.0202
51.0317
51.0434
51.0554
51.0676
51.08
51.0926
51.1055
51.1186
51.1319
51.1454
51.1592
51.1733
51.1875
51.202
51.2168
51.2318
51.247
51.2625
51.2782
51.2942
51.3105
51.3269
51.3438
51.3606
51.3781
51.3953
51.4135
51.4311
51.4499
51.4679
51.4874
51.5057
51.526
51.5446
51.5658
51.5847
51.6088
51.6221
50.6164
50.6164
50.6164
50.6164
50.6164
50.6164
50.6165
50.6165
50.6165
50.6165
50.6165
50.6165
50.6165
50.6165
50.6165
50.6165
50.6165
50.6165
50.6165
50.6165
50.6165
50.6165
50.6165
50.6165
50.6165
50.6165
50.6165
50.6165
50.6165
50.6165
50.6165
50.6165
50.6165
50.6165
50.6165
50.6166
50.6166
50.6166
50.6166
50.6166
50.6166
50.6166
50.6166
50.6166
50.6167
50.6167
50.6167
50.6167
50.6168
50.6168
50.6168
50.6169
50.6169
50.617
50.6171
50.6171
50.6172
50.6173
50.6174
50.6175
50.6176
50.6177
50.6178
50.6179
50.618
50.6182
50.6184
50.6186
50.6189
50.6192
50.6195
50.6199
50.6204
50.6208
50.6213
50.6218
50.6223
50.6228
50.6233
50.6239
50.6245
50.6252
50.6258
50.6265
50.6273
50.6281
50.629
50.6299
50.631
50.6321
50.6333
50.6345
50.6358
50.6372
50.6387
50.6402
50.6418
50.6434
50.6452
50.6471
50.6491
50.6512
50.6533
50.6556
50.658
50.6605
50.663
50.6657
50.6684
50.6712
50.6742
50.6772
50.6804
50.6836
50.6869
50.6904
50.694
50.6978
50.7017
50.7057
50.7099
50.7142
50.7187
50.7234
50.7282
50.7331
50.7382
50.7434
50.7488
50.7542
50.7599
50.7657
50.7716
50.7777
50.7839
50.7903
50.7969
50.8036
50.8105
50.8176
50.8248
50.8322
50.8398
50.8476
50.8555
50.8637
50.872
50.8805
50.8892
50.8981
50.9071
50.9164
50.9259
50.9355
50.9454
50.9554
50.9657
50.9762
50.9869
50.9977
51.0088
51.0202
51.0317
51.0434
51.0554
51.0676
51.08
51.0926
51.1055
51.1186
51.1319
51.1454
51.1592
51.1733
51.1875
51.202
51.2168
51.2318
51.247
51.2625
51.2782
51.2942
51.3105
51.3269
51.3438
51.3606
51.3781
51.3954
51.4135
51.4311
51.4499
51.4679
51.4874
51.5057
51.526
51.5446
51.5657
51.5846
51.6074
51.6213
50.6164
50.6164
50.6164
50.6164
50.6164
50.6164
50.6165
50.6165
50.6165
50.6165
50.6165
50.6165
50.6165
50.6165
50.6165
50.6165
50.6165
50.6165
50.6165
50.6165
50.6165
50.6165
50.6165
50.6165
50.6165
50.6165
50.6165
50.6165
50.6165
50.6165
50.6165
50.6165
50.6165
50.6165
50.6165
50.6166
50.6166
50.6166
50.6166
50.6166
50.6166
50.6166
50.6166
50.6166
50.6167
50.6167
50.6167
50.6167
50.6168
50.6168
50.6168
50.6169
50.6169
50.617
50.6171
50.6171
50.6172
50.6173
50.6174
50.6175
50.6176
50.6177
50.6178
50.6179
50.618
50.6182
50.6184
50.6186
50.6189
50.6192
50.6195
50.6199
50.6204
50.6208
50.6213
50.6218
50.6223
50.6228
50.6233
50.6239
50.6245
50.6252
50.6258
50.6265
50.6273
50.6281
50.629
50.6299
50.631
50.6321
50.6333
50.6345
50.6358
50.6372
50.6387
50.6402
50.6418
50.6434
50.6452
50.6471
50.6491
50.6512
50.6533
50.6556
50.658
50.6605
50.663
50.6657
50.6684
50.6712
50.6742
50.6772
50.6804
50.6836
50.6869
50.6904
50.694
50.6978
50.7017
50.7057
50.7099
50.7142
50.7187
50.7234
50.7282
50.7331
50.7382
50.7434
50.7488
50.7542
50.7599
50.7657
50.7716
50.7777
50.7839
50.7903
50.7969
50.8036
50.8105
50.8176
50.8248
50.8322
50.8398
50.8476
50.8555
50.8637
50.872
50.8805
50.8892
50.8981
50.9071
50.9164
50.9259
50.9355
50.9454
50.9554
50.9657
50.9762
50.9869
50.9977
51.0088
51.0202
51.0317
51.0434
51.0554
51.0676
51.08
51.0926
51.1055
51.1186
51.1319
51.1454
51.1592
51.1733
51.1875
51.202
51.2168
51.2318
51.247
51.2625
51.2782
51.2942
51.3105
51.327
51.3437
51.3607
51.378
51.3954
51.4134
51.4312
51.4497
51.4683
51.4868
51.5066
51.525
51.5457
51.5644
51.5858
51.6044
51.6228
50.6164
50.6164
50.6164
50.6165
50.6165
50.6165
50.6165
50.6165
50.6165
50.6165
50.6165
50.6165
50.6165
50.6165
50.6165
50.6165
50.6165
50.6165
50.6165
50.6165
50.6165
50.6165
50.6165
50.6165
50.6165
50.6165
50.6165
50.6165
50.6165
50.6165
50.6165
50.6165
50.6165
50.6165
50.6166
50.6166
50.6166
50.6166
50.6166
50.6166
50.6166
50.6166
50.6166
50.6167
50.6167
50.6167
50.6167
50.6167
50.6168
50.6168
50.6168
50.6169
50.6169
50.617
50.6171
50.6171
50.6172
50.6173
50.6174
50.6175
50.6176
50.6177
50.6178
50.6179
50.6181
50.6182
50.6184
50.6186
50.6189
50.6192
50.6195
50.6199
50.6204
50.6208
50.6213
50.6218
50.6223
50.6228
50.6233
50.6239
50.6245
50.6252
50.6259
50.6266
50.6273
50.6281
50.629
50.63
50.631
50.6321
50.6333
50.6345
50.6358
50.6372
50.6387
50.6402
50.6418
50.6434
50.6452
50.6471
50.6491
50.6512
50.6533
50.6556
50.658
50.6605
50.663
50.6657
50.6684
50.6712
50.6742
50.6772
50.6804
50.6836
50.6869
50.6904
50.694
50.6978
50.7017
50.7057
50.7099
50.7142
50.7187
50.7234
50.7282
50.7331
50.7382
50.7434
50.7488
50.7542
50.7599
50.7657
50.7716
50.7777
50.7839
50.7903
50.7969
50.8036
50.8105
50.8176
50.8248
50.8322
50.8398
50.8476
50.8555
50.8637
50.872
50.8805
50.8892
50.8981
50.9071
50.9164
50.9259
50.9355
50.9454
50.9554
50.9657
50.9762
50.9869
50.9977
51.0088
51.0202
51.0317
51.0434
51.0554
51.0676
51.08
51.0926
51.1055
51.1186
51.1319
51.1454
51.1592
51.1733
51.1875
51.202
51.2168
51.2318
51.247
51.2625
51.2782
51.2942
51.3105
51.327
51.3437
51.3608
51.3778
51.3957
51.413
51.4316
51.4493
51.4686
51.4866
51.5066
51.5251
51.5456
51.5644
51.5855
51.601
51.6304
50.6165
50.6165
50.6165
50.6165
50.6165
50.6165
50.6165
50.6165
50.6165
50.6165
50.6165
50.6165
50.6165
50.6165
50.6165
50.6165
50.6165
50.6165
50.6165
50.6165
50.6165
50.6165
50.6165
50.6165
50.6165
50.6165
50.6165
50.6165
50.6165
50.6165
50.6165
50.6166
50.6166
50.6166
50.6166
50.6166
50.6166
50.6166
50.6166
50.6166
50.6166
50.6166
50.6166
50.6167
50.6167
50.6167
50.6167
50.6168
50.6168
50.6168
50.6169
50.6169
50.617
50.617
50.6171
50.6171
50.6172
50.6173
50.6174
50.6175
50.6176
50.6177
50.6178
50.6179
50.6181
50.6182
50.6184
50.6186
50.6189
50.6192
50.6195
50.6199
50.6204
50.6208
50.6213
50.6218
50.6223
50.6228
50.6233
50.6239
50.6245
50.6252
50.6259
50.6266
50.6273
50.6281
50.629
50.63
50.631
50.6321
50.6333
50.6345
50.6359
50.6372
50.6387
50.6402
50.6418
50.6434
50.6452
50.6471
50.6491
50.6512
50.6534
50.6556
50.658
50.6605
50.663
50.6657
50.6684
50.6712
50.6742
50.6772
50.6804
50.6836
50.6869
50.6904
50.694
50.6978
50.7017
50.7057
50.7099
50.7142
50.7187
50.7234
50.7282
50.7331
50.7382
50.7434
50.7488
50.7542
50.7599
50.7657
50.7716
50.7777
50.7839
50.7903
50.7969
50.8036
50.8105
50.8176
50.8248
50.8322
50.8398
50.8476
50.8555
50.8637
50.872
50.8805
50.8892
50.8981
50.9071
50.9164
50.9259
50.9355
50.9454
50.9554
50.9657
50.9762
50.9869
50.9977
51.0088
51.0202
51.0317
51.0434
51.0554
51.0676
51.08
51.0926
51.1055
51.1186
51.1319
51.1454
51.1592
51.1733
51.1875
51.202
51.2168
51.2318
51.247
51.2625
51.2782
51.2942
51.3104
51.327
51.3436
51.3608
51.3778
51.3957
51.413
51.4316
51.4493
51.4686
51.4866
51.5067
51.5249
51.5458
51.5643
51.5855
51.5984
51.652
50.6165
50.6165
50.6165
50.6165
50.6165
50.6165
50.6165
50.6165
50.6165
50.6165
50.6165
50.6165
50.6165
50.6165
50.6165
50.6165
50.6165
50.6165
50.6165
50.6165
50.6165
50.6165
50.6165
50.6165
50.6165
50.6165
50.6165
50.6165
50.6165
50.6165
50.6165
50.6165
50.6166
50.6166
50.6166
50.6166
50.6166
50.6166
50.6166
50.6166
50.6166
50.6166
50.6166
50.6167
50.6167
50.6167
50.6167
50.6167
50.6168
50.6168
50.6169
50.6169
50.6169
50.617
50.6171
50.6171
50.6172
50.6173
50.6174
50.6175
50.6176
50.6177
50.6178
50.6179
50.6181
50.6182
50.6184
50.6186
50.6189
50.6192
50.6195
50.6199
50.6204
50.6208
50.6213
50.6218
50.6223
50.6228
50.6233
50.6239
50.6245
50.6252
50.6259
50.6266
50.6273
50.6281
50.629
50.63
50.631
50.6321
50.6333
50.6345
50.6359
50.6372
50.6387
50.6402
50.6418
50.6434
50.6452
50.6471
50.6491
50.6512
50.6533
50.6556
50.658
50.6605
50.663
50.6657
50.6684
50.6712
50.6742
50.6772
50.6804
50.6836
50.6869
50.6904
50.694
50.6978
50.7017
50.7057
50.7099
50.7142
50.7187
50.7234
50.7282
50.7331
50.7382
50.7434
50.7488
50.7542
50.7599
50.7657
50.7716
50.7777
50.7839
50.7903
50.7969
50.8036
50.8105
50.8176
50.8248
50.8322
50.8398
50.8476
50.8555
50.8637
50.872
50.8805
50.8892
50.8981
50.9071
50.9164
50.9259
50.9355
50.9454
50.9554
50.9657
50.9762
50.9869
50.9977
51.0088
51.0202
51.0317
51.0434
51.0554
51.0676
51.08
51.0926
51.1055
51.1186
51.1319
51.1454
51.1592
51.1733
51.1875
51.202
51.2168
51.2318
51.247
51.2625
51.2782
51.2942
51.3104
51.327
51.3436
51.3608
51.3778
51.3957
51.413
51.4316
51.4493
51.4686
51.4866
51.5067
51.5249
51.5458
51.5643
51.5855
51.597
51.6636
50.6148
50.6148
50.6148
50.6149
50.6149
50.6149
50.6149
50.6149
50.6149
50.6149
50.6149
50.6149
50.6149
50.6149
50.6149
50.6149
50.6149
50.615
50.615
50.615
50.615
50.615
50.615
50.615
50.615
50.615
50.615
50.615
50.615
50.615
50.615
50.615
50.6151
50.6151
50.6151
50.6151
50.6151
50.6151
50.6151
50.6151
50.6151
50.6152
50.6152
50.6152
50.6152
50.6152
50.6153
50.6153
50.6153
50.6154
50.6154
50.6155
50.6155
50.6156
50.6156
50.6157
50.6158
50.6159
50.616
50.6161
50.6162
50.6163
50.6164
50.6165
50.6167
50.6169
50.6171
50.6173
50.6175
50.6178
50.6182
50.6186
50.6191
50.6195
50.62
50.6205
50.621
50.6215
50.622
50.6226
50.6232
50.6239
50.6245
50.6253
50.626
50.6268
50.6277
50.6287
50.6297
50.6308
50.632
50.6333
50.6346
50.636
50.6374
50.6389
50.6405
50.6422
50.644
50.6459
50.6479
50.65
50.6522
50.6545
50.6568
50.6593
50.6619
50.6645
50.6672
50.6701
50.673
50.6761
50.6792
50.6824
50.6858
50.6893
50.6929
50.6966
50.7005
50.7046
50.7088
50.7131
50.7177
50.7223
50.7271
50.7321
50.7371
50.7423
50.7477
50.7532
50.7588
50.7646
50.7705
50.7766
50.7828
50.7892
50.7958
50.8026
50.8095
50.8165
50.8238
50.8312
50.8388
50.8466
50.8545
50.8627
50.871
50.8795
50.8882
50.897
50.9061
50.9154
50.9248
50.9345
50.9444
50.9544
50.9647
50.9752
50.9858
50.9967
51.0078
51.0191
51.0307
51.0424
51.0544
51.0665
51.0789
51.0916
51.1044
51.1175
51.1309
51.1444
51.1582
51.1722
51.1865
51.201
51.2157
51.2307
51.246
51.2615
51.2772
51.2932
51.3094
51.326
51.3426
51.3598
51.3768
51.3947
51.412
51.4306
51.4483
51.4676
51.4856
51.5056
51.5239
51.5448
51.5632
51.5845
51.5948
51.6734
51.6987
51.7304
51.7432
51.7485
51.752
51.7556
51.7589
51.7619
51.7645
51.7671
51.7696
51.7721
51.7745
51.7766
51.7784
51.7795
51.7802
51.7791
51.7764
51.7701
51.6957
51.7239
51.7371
51.7427
51.7464
51.7502
51.7538
51.7569
51.7598
51.7627
51.7655
51.7682
51.7707
51.7729
51.7748
51.776
51.7766
51.7755
51.7727
51.7662
51.692
51.7206
51.7354
51.7414
51.7455
51.7493
51.7528
51.756
51.7588
51.7615
51.7643
51.7668
51.7693
51.7713
51.7731
51.7743
51.7746
51.7733
51.77
51.7626
51.6793
51.6968
51.7045
51.7081
51.7112
51.7146
51.7178
51.7207
51.7233
51.726
51.7286
51.7311
51.7332
51.735
51.736
51.7371
51.7374
51.7365
51.7337
51.7288
51.6596
51.6731
51.684
51.6931
51.7002
51.7063
51.711
51.715
51.7186
51.7219
51.7249
51.7282
51.7298
51.7318
51.7331
51.7339
51.7332
51.7322
51.7301
51.7272
51.6226
51.6198
51.6157
51.6111
51.6076
51.6056
51.6053
51.6059
51.6071
51.6087
51.6107
51.6132
51.6166
51.6198
51.6228
51.6259
51.6295
51.634
51.6387
51.6456
51.5857
51.5764
51.5762
51.5812
51.5862
51.5905
51.5949
51.5991
51.6034
51.6074
51.6115
51.6152
51.6191
51.6226
51.6266
51.6308
51.6356
51.6423
51.651
51.6617
51.5364
51.5011
51.4738
51.4566
51.4462
51.4396
51.4356
51.4339
51.4342
51.436
51.4393
51.444
51.4502
51.4586
51.468
51.4805
51.4935
51.5118
51.5321
51.5577
51.527
51.4891
51.4667
51.4545
51.4482
51.4443
51.4427
51.4427
51.4445
51.4477
51.4523
51.458
51.465
51.4745
51.4845
51.497
51.5109
51.5273
51.5474
51.5713
51.5138
51.4587
51.4286
51.4127
51.4028
51.3956
51.3913
51.3892
51.3889
51.3903
51.3931
51.3974
51.4035
51.4115
51.4217
51.4337
51.448
51.4658
51.4878
51.516
51.7333
51.7216
51.7322
51.7482
51.7653
51.783
51.8011
51.8196
51.8384
51.8573
51.8762
51.8952
51.9144
51.9338
51.9534
51.9732
51.9931
52.0132
52.0334
52.0538
52.0744
52.0951
52.1159
52.1369
52.1581
52.1794
52.2008
52.2224
52.2442
52.266
52.2881
52.3102
52.3325
52.3549
52.3775
52.4002
52.423
52.446
52.4691
52.4923
52.5156
52.539
52.5625
52.5861
52.6099
52.6338
52.6577
52.6818
52.706
52.7303
52.7547
52.7792
52.8038
52.8284
52.8531
52.8779
52.9028
52.9277
52.9527
52.9778
53.0029
53.0281
53.0534
53.0787
53.104
53.1294
53.1548
53.1803
53.2058
53.2313
53.2569
53.2825
53.3082
53.3338
53.3596
53.3853
53.411
53.4367
53.4624
53.4881
53.5139
53.5395
53.5652
53.5909
53.6166
53.6423
53.668
53.6936
53.7192
53.7448
53.7703
53.7958
53.8212
53.8466
53.872
53.8973
53.9226
53.9479
53.973
53.9982
54.0232
54.0481
54.073
54.0978
54.1225
54.1472
54.1718
54.1963
54.2207
54.2451
54.2694
54.2936
54.3177
54.3417
54.3656
54.3894
54.4132
54.4368
54.4603
54.4838
54.5071
54.5304
54.5535
54.5765
54.5994
54.6222
54.6449
54.6674
54.6899
54.7122
54.7344
54.7565
54.7785
54.8004
54.8222
54.8438
54.8653
54.8867
54.9079
54.929
54.95
54.9709
54.9917
55.0123
55.0329
55.0534
55.0737
55.0939
55.1138
55.1336
55.1534
55.1731
55.1929
55.2127
55.2324
55.2521
55.2717
55.2909
55.3097
55.3278
55.3459
55.3653
55.3861
55.4069
55.4262
55.4409
55.4419
55.4288
55.4122
55.3946
55.3787
55.3663
55.3585
55.3564
55.361
55.373
55.3907
55.4106
55.4351
55.4763
55.5335
55.5871
55.635
55.676
55.7097
55.7376
55.7612
55.7827
55.8021
55.8202
55.8361
55.8511
55.8633
55.878
55.8901
55.9045
55.9164
55.9307
55.9414
55.9566
51.7339
51.724
51.735
51.7513
51.7684
51.7861
51.8043
51.8228
51.8416
51.8605
51.8795
51.8986
51.9179
51.9372
51.9568
51.9766
51.9966
52.0167
52.0369
52.0573
52.0778
52.0985
52.1194
52.1404
52.1616
52.1829
52.2043
52.2259
52.2477
52.2696
52.2916
52.3138
52.336
52.3585
52.381
52.4037
52.4266
52.4495
52.4726
52.4958
52.5192
52.5426
52.5661
52.5897
52.6135
52.6374
52.6613
52.6854
52.7096
52.7339
52.7583
52.7828
52.8074
52.832
52.8567
52.8816
52.9064
52.9314
52.9564
52.9814
53.0066
53.0318
53.057
53.0823
53.1077
53.1331
53.1585
53.184
53.2095
53.235
53.2606
53.2862
53.3118
53.3375
53.3632
53.3889
53.4147
53.4404
53.4662
53.4919
53.5176
53.5433
53.569
53.5947
53.6204
53.646
53.6717
53.6973
53.7229
53.7485
53.7741
53.7996
53.825
53.8504
53.8758
53.9011
53.9264
53.9516
53.9768
54.0019
54.027
54.0519
54.0769
54.1017
54.1264
54.1511
54.1757
54.2002
54.2246
54.2489
54.2732
54.2974
54.3215
54.3455
54.3695
54.3933
54.417
54.4407
54.4642
54.4876
54.511
54.5342
54.5573
54.5804
54.6033
54.6261
54.6488
54.6714
54.6938
54.7161
54.7383
54.7604
54.7824
54.8043
54.826
54.8477
54.8692
54.8905
54.9118
54.9329
54.9538
54.9747
54.9954
55.0161
55.0366
55.057
55.0772
55.0973
55.1174
55.1372
55.1569
55.1766
55.1963
55.2157
55.2352
55.2546
55.2738
55.2926
55.3111
55.3295
55.3479
55.3665
55.3856
55.4058
55.4267
55.4469
55.4661
55.4854
55.5058
55.5263
55.5463
55.5644
55.5787
55.5898
55.5986
55.6062
55.6137
55.6219
55.631
55.6417
55.6547
55.6698
55.6878
55.7064
55.7258
55.7459
55.7655
55.7846
55.8025
55.8196
55.8347
55.8501
55.8634
55.8783
55.8908
55.9053
55.9174
55.9317
55.9428
55.957
51.7338
51.7247
51.7351
51.751
51.768
51.7856
51.8037
51.8222
51.841
51.8599
51.8788
51.8979
51.9171
51.9365
51.9561
51.9759
51.9959
52.016
52.0362
52.0566
52.0771
52.0978
52.1187
52.1397
52.1609
52.1822
52.2036
52.2252
52.247
52.2688
52.2909
52.313
52.3353
52.3578
52.3803
52.403
52.4259
52.4488
52.4719
52.4951
52.5184
52.5419
52.5654
52.589
52.6128
52.6367
52.6606
52.6847
52.7089
52.7332
52.7576
52.7821
52.8066
52.8313
52.856
52.8808
52.9057
52.9306
52.9556
52.9807
53.0058
53.031
53.0563
53.0816
53.107
53.1324
53.1578
53.1833
53.2088
53.2343
53.2599
53.2855
53.3111
53.3368
53.3625
53.3882
53.414
53.4397
53.4654
53.4912
53.5169
53.5426
53.5683
53.594
53.6197
53.6453
53.671
53.6966
53.7222
53.7478
53.7733
53.7989
53.8243
53.8497
53.8751
53.9004
53.9257
53.9509
53.9761
54.0012
54.0262
54.0512
54.0761
54.101
54.1257
54.1504
54.1749
54.1994
54.2239
54.2482
54.2725
54.2967
54.3208
54.3448
54.3687
54.3926
54.4163
54.44
54.4635
54.4869
54.5103
54.5335
54.5567
54.5797
54.6026
54.6254
54.6481
54.6707
54.6931
54.7154
54.7377
54.7598
54.7817
54.8036
54.8254
54.847
54.8685
54.8899
54.9111
54.9323
54.9532
54.9741
54.9948
55.0154
55.0359
55.0563
55.0766
55.0967
55.1166
55.1365
55.1563
55.1759
55.1954
55.215
55.2345
55.2538
55.2729
55.2919
55.3104
55.3283
55.3467
55.3654
55.3847
55.405
55.4265
55.448
55.4691
55.4896
55.5097
55.5299
55.5497
55.5687
55.5856
55.6009
55.6133
55.6255
55.6356
55.6468
55.6568
55.6689
55.6801
55.6941
55.7072
55.7233
55.7384
55.7554
55.7713
55.7881
55.8037
55.8199
55.8342
55.8497
55.863
55.8779
55.8906
55.9051
55.9172
55.9315
55.943
55.9572
51.7115
51.7103
51.7247
51.7428
51.761
51.779
51.7971
51.8153
51.8338
51.8526
51.8715
51.8907
51.91
51.9294
51.949
51.9687
51.9886
52.0086
52.0289
52.0492
52.0698
52.0905
52.1113
52.1323
52.1535
52.1748
52.1962
52.2178
52.2395
52.2614
52.2834
52.3056
52.3279
52.3503
52.3729
52.3956
52.4184
52.4414
52.4645
52.4877
52.511
52.5344
52.5579
52.5815
52.6053
52.6292
52.6531
52.6772
52.7014
52.7257
52.7501
52.7745
52.7991
52.8238
52.8485
52.8733
52.8982
52.9231
52.9481
52.9732
52.9983
53.0235
53.0488
53.0741
53.0994
53.1248
53.1502
53.1757
53.2012
53.2267
53.2523
53.2779
53.3036
53.3292
53.3549
53.3806
53.4064
53.4321
53.4578
53.4836
53.5093
53.535
53.5607
53.5863
53.612
53.6377
53.6633
53.689
53.7146
53.7402
53.7657
53.7912
53.8167
53.8421
53.8674
53.8928
53.918
53.9433
53.9685
53.9936
54.0186
54.0435
54.0684
54.0932
54.118
54.1426
54.1672
54.1917
54.2162
54.2405
54.2648
54.289
54.3131
54.3371
54.361
54.3849
54.4086
54.4322
54.4558
54.4792
54.5026
54.5258
54.5489
54.5719
54.5948
54.6176
54.6403
54.6628
54.6853
54.7076
54.7299
54.752
54.774
54.7959
54.8176
54.8392
54.8607
54.8821
54.9033
54.9245
54.9456
54.9665
54.9874
55.008
55.0285
55.0489
55.0692
55.0893
55.1095
55.1296
55.1496
55.1696
55.1895
55.2092
55.2285
55.2476
55.2665
55.2853
55.3041
55.3233
55.343
55.363
55.3832
55.403
55.4225
55.4417
55.4608
55.4796
55.4981
55.5159
55.5329
55.5494
55.5647
55.5803
55.5948
55.61
55.6243
55.6393
55.6539
55.669
55.6841
55.6995
55.7147
55.7307
55.7454
55.7617
55.7758
55.7918
55.8057
55.8212
55.8345
55.8497
55.8625
55.8773
55.8898
55.9044
55.9166
55.9308
55.9432
55.9567
51.7191
51.7292
51.7423
51.7563
51.772
51.7887
51.8064
51.8246
51.8431
51.8617
51.8805
51.8995
51.9187
51.9382
51.9578
51.9776
51.9975
52.0176
52.0378
52.0582
52.0788
52.0995
52.1204
52.1414
52.1626
52.1839
52.2053
52.2269
52.2487
52.2705
52.2926
52.3147
52.337
52.3595
52.382
52.4047
52.4276
52.4505
52.4736
52.4968
52.5201
52.5436
52.5671
52.5908
52.6145
52.6384
52.6624
52.6865
52.7106
52.7349
52.7593
52.7837
52.8083
52.8329
52.8577
52.8825
52.9073
52.9323
52.9573
52.9824
53.0075
53.0327
53.058
53.0833
53.1087
53.1341
53.1595
53.185
53.2105
53.2361
53.2617
53.2873
53.3129
53.3386
53.3642
53.3899
53.4156
53.4414
53.4671
53.4928
53.5185
53.5443
53.57
53.5957
53.6214
53.6471
53.6727
53.6983
53.7239
53.7495
53.775
53.8005
53.8259
53.8514
53.8767
53.9021
53.9273
53.9526
53.9777
54.0028
54.0279
54.0528
54.0777
54.1026
54.1273
54.152
54.1767
54.2012
54.2257
54.25
54.2743
54.2985
54.3226
54.3466
54.3705
54.3943
54.418
54.4416
54.4651
54.4886
54.5119
54.5351
54.5582
54.5813
54.6042
54.627
54.6496
54.6722
54.6947
54.717
54.7392
54.7613
54.7833
54.8051
54.8269
54.8485
54.87
54.8913
54.9126
54.9337
54.9546
54.9754
54.9961
55.0167
55.0372
55.0575
55.0777
55.0978
55.1177
55.1375
55.1571
55.1767
55.1961
55.2154
55.2345
55.2536
55.2727
55.2916
55.3103
55.3288
55.3471
55.3653
55.3836
55.4019
55.4202
55.4385
55.4567
55.4748
55.4927
55.5104
55.5276
55.5445
55.5613
55.5774
55.5938
55.6093
55.6254
55.6408
55.6565
55.672
55.6871
55.7028
55.7176
55.7331
55.7477
55.7628
55.7774
55.7919
55.8067
55.8204
55.8352
55.8486
55.8628
55.8765
55.8899
55.9036
55.9169
55.9301
55.943
55.9561
51.6614
51.6855
51.7068
51.7271
51.7465
51.765
51.7832
51.8014
51.8196
51.8381
51.8568
51.8757
51.8949
51.9142
51.9337
51.9534
51.9733
51.9933
52.0135
52.0339
52.0544
52.0751
52.096
52.117
52.1381
52.1594
52.1808
52.2024
52.2242
52.246
52.2681
52.2902
52.3125
52.3349
52.3575
52.3801
52.403
52.4259
52.449
52.4722
52.4955
52.5189
52.5424
52.566
52.5898
52.6136
52.6376
52.6616
52.6858
52.7101
52.7345
52.759
52.7836
52.8082
52.8329
52.8577
52.8826
52.9075
52.9325
52.9576
52.9827
53.0079
53.0332
53.0585
53.0838
53.1091
53.1346
53.16
53.1855
53.2111
53.2366
53.2623
53.2879
53.3136
53.3393
53.365
53.3907
53.4164
53.4421
53.4678
53.4936
53.5193
53.545
53.5707
53.5965
53.6221
53.6478
53.6734
53.699
53.7246
53.7501
53.7756
53.8011
53.8265
53.8519
53.8773
53.9025
53.9277
53.9529
53.9779
54.0029
54.0279
54.0527
54.0775
54.1023
54.127
54.1516
54.1761
54.2006
54.225
54.2492
54.2735
54.2976
54.3216
54.3455
54.3694
54.3932
54.4169
54.4405
54.464
54.4873
54.5106
54.5338
54.5569
54.5799
54.6028
54.6256
54.6483
54.671
54.6935
54.7159
54.7383
54.7606
54.7827
54.8048
54.8267
54.8484
54.8701
54.8916
54.913
54.9343
54.9556
54.9769
54.998
55.0191
55.0401
55.0611
55.0818
55.1023
55.1225
55.1425
55.1622
55.1818
55.2013
55.2208
55.2406
55.2605
55.2807
55.301
55.3212
55.3415
55.3617
55.3817
55.4014
55.4207
55.4396
55.4583
55.4766
55.4949
55.5126
55.5303
55.5472
55.5643
55.5803
55.5966
55.6118
55.6276
55.6422
55.6579
55.6722
55.6879
55.702
55.7178
55.7317
55.7475
55.7611
55.7769
55.7903
55.8059
55.8191
55.8344
55.8474
55.8624
55.8751
55.8899
55.9024
55.9168
55.9291
55.9432
55.9551
51.6975
51.7286
51.7476
51.7644
51.7816
51.7992
51.8172
51.8355
51.854
51.8727
51.8916
51.9107
51.9299
51.9493
51.9689
51.9887
52.0086
52.0287
52.049
52.0694
52.09
52.1107
52.1316
52.1526
52.1738
52.1951
52.2166
52.2382
52.2599
52.2818
52.3039
52.326
52.3483
52.3708
52.3934
52.4161
52.4389
52.4619
52.4849
52.5081
52.5315
52.5549
52.5785
52.6021
52.6259
52.6498
52.6738
52.6979
52.7221
52.7464
52.7707
52.7952
52.8198
52.8444
52.8691
52.8939
52.9188
52.9437
52.9687
52.9938
53.0189
53.0441
53.0694
53.0947
53.1201
53.1455
53.171
53.1965
53.222
53.2475
53.2731
53.2988
53.3244
53.3501
53.3757
53.4015
53.4272
53.4529
53.4786
53.5044
53.5301
53.5558
53.5815
53.6071
53.6328
53.6585
53.6841
53.7097
53.7353
53.7609
53.7864
53.812
53.8374
53.8628
53.8882
53.9135
53.9387
53.9639
53.989
54.0141
54.0392
54.0641
54.0891
54.1139
54.1387
54.1634
54.188
54.2125
54.237
54.2613
54.2856
54.3098
54.3339
54.3579
54.3818
54.4056
54.4294
54.453
54.4766
54.5001
54.5234
54.5467
54.5698
54.5928
54.6157
54.6385
54.6611
54.6837
54.7062
54.7285
54.7508
54.7729
54.795
54.8168
54.8386
54.8602
54.8817
54.9031
54.9244
54.9455
54.9665
54.9874
55.0081
55.0288
55.0493
55.0697
55.09
55.1101
55.1302
55.1501
55.1697
55.1892
55.2086
55.2279
55.2471
55.2663
55.2851
55.3036
55.3222
55.3407
55.3589
55.3771
55.3952
55.4132
55.4308
55.4479
55.4648
55.4814
55.4983
55.5149
55.532
55.5491
55.5673
55.5852
55.6035
55.6204
55.6371
55.6519
55.667
55.6804
55.6948
55.7078
55.7225
55.7354
55.7504
55.7634
55.7787
55.7916
55.807
55.8198
55.835
55.8478
55.8627
55.8754
55.8901
55.9025
55.9168
55.9294
55.9427
55.9552
51.6434
51.6897
51.7142
51.7336
51.7513
51.7686
51.786
51.8036
51.8215
51.8397
51.8582
51.8769
51.8958
51.915
51.9344
51.9541
51.9739
51.9939
52.0141
52.0345
52.055
52.0757
52.0966
52.1176
52.1387
52.16
52.1815
52.2031
52.2248
52.2467
52.2687
52.2908
52.3131
52.3356
52.3581
52.3808
52.4036
52.4266
52.4496
52.4729
52.4962
52.5196
52.5431
52.5668
52.5905
52.6143
52.6383
52.6623
52.6865
52.7108
52.7352
52.7597
52.7842
52.8089
52.8336
52.8584
52.8833
52.9082
52.9332
52.9583
52.9835
53.0087
53.0339
53.0592
53.0846
53.1099
53.1353
53.1608
53.1862
53.2118
53.2374
53.263
53.2887
53.3144
53.3401
53.3659
53.3916
53.4174
53.4431
53.4689
53.4946
53.5204
53.5462
53.572
53.5978
53.6236
53.6493