/*--------------------------------*- C++ -*----------------------------------*\
| =========                 |                                                 |
| \\      /  F ield         | OpenFOAM: The Open Source CFD Toolbox           |
|  \\    /   O peration     | Version:  3.0.x                                 |
|   \\  /    A nd           | Web:      www.OpenFOAM.org                      |
|    \\/     M anipulation  |                                                 |
\*---------------------------------------------------------------------------*/
FoamFile
{
    version     2.0;
    format      ascii;
    class       volScalarField;
    location    "0.48";
    object      T;
}
// * * * * * * * * * * * * * * * * * * * * * * * * * * * * * * * * * * * * * //

dimensions      [0 0 0 1 0 0 0];

internalField   nonuniform List<scalar> 
13800
(
773.516
773.516
773.516
773.516
773.516
773.516
773.515
773.515
773.515
773.515
773.515
773.515
773.515
773.515
773.515
773.515
773.515
773.514
773.514
773.514
773.514
773.514
773.514
773.514
773.514
773.514
773.514
773.514
773.514
773.514
773.514
773.514
773.514
773.514
773.514
773.514
773.513
773.513
773.513
773.513
773.513
773.513
773.513
773.513
773.513
773.513
773.513
773.513
773.513
773.513
773.514
773.514
773.514
773.514
773.514
773.514
773.514
773.515
773.515
773.515
773.515
773.516
773.517
773.518
773.519
773.52
773.521
773.521
773.522
773.522
773.522
773.521
773.521
773.52
773.52
773.521
773.522
773.523
773.524
773.525
773.527
773.529
773.532
773.535
773.538
773.54
773.543
773.546
773.549
773.552
773.555
773.557
773.56
773.564
773.568
773.572
773.577
773.581
773.586
773.59
773.595
773.6
773.605
773.61
773.616
773.622
773.628
773.636
773.643
773.651
773.66
773.669
773.679
773.69
773.701
773.712
773.724
773.735
773.748
773.76
773.772
773.784
773.796
773.809
773.822
773.835
773.85
773.865
773.88
773.896
773.913
773.93
773.948
773.967
773.986
774.005
774.025
774.045
774.066
774.088
774.11
774.132
774.156
774.179
774.204
774.228
774.254
774.28
774.306
774.333
774.361
774.389
774.418
774.448
774.478
774.508
774.54
774.572
774.604
774.637
774.671
774.706
774.741
774.777
774.813
774.85
774.888
774.926
774.965
775.005
775.046
775.087
775.129
775.171
775.215
775.259
775.304
775.349
775.395
775.442
775.49
775.539
775.588
775.638
775.688
775.741
775.791
775.848
775.897
775.957
776.006
776.07
776.117
776.187
776.232
776.307
776.35
776.44
776.487
776.801
773.491
773.491
773.491
773.491
773.491
773.491
773.491
773.491
773.491
773.491
773.491
773.491
773.491
773.491
773.491
773.491
773.491
773.491
773.491
773.491
773.491
773.491
773.491
773.49
773.49
773.49
773.491
773.491
773.491
773.491
773.491
773.491
773.491
773.491
773.491
773.491
773.491
773.491
773.491
773.491
773.491
773.491
773.491
773.491
773.491
773.491
773.491
773.491
773.491
773.491
773.492
773.492
773.492
773.492
773.492
773.493
773.493
773.493
773.493
773.494
773.494
773.495
773.496
773.497
773.498
773.499
773.5
773.501
773.501
773.502
773.501
773.501
773.5
773.5
773.5
773.501
773.501
773.503
773.504
773.505
773.507
773.509
773.512
773.515
773.518
773.521
773.524
773.527
773.53
773.533
773.536
773.539
773.542
773.545
773.549
773.553
773.558
773.563
773.567
773.572
773.577
773.582
773.587
773.592
773.598
773.604
773.61
773.618
773.626
773.634
773.642
773.651
773.661
773.672
773.683
773.694
773.706
773.718
773.73
773.743
773.755
773.767
773.78
773.792
773.805
773.819
773.833
773.848
773.864
773.88
773.897
773.914
773.932
773.95
773.969
773.989
774.009
774.029
774.05
774.072
774.094
774.117
774.14
774.164
774.188
774.213
774.238
774.264
774.291
774.318
774.346
774.374
774.403
774.432
774.462
774.493
774.524
774.556
774.589
774.622
774.656
774.69
774.725
774.761
774.797
774.834
774.872
774.911
774.95
774.99
775.03
775.071
775.113
775.156
775.199
775.243
775.288
775.334
775.38
775.427
775.474
775.523
775.572
775.623
775.672
775.726
775.775
775.832
775.881
775.942
775.99
776.055
776.102
776.171
776.216
776.291
776.334
776.426
776.471
776.829
773.491
773.491
773.491
773.491
773.491
773.491
773.491
773.491
773.491
773.491
773.491
773.491
773.491
773.491
773.491
773.491
773.491
773.491
773.491
773.491
773.491
773.491
773.49
773.49
773.49
773.49
773.49
773.491
773.491
773.491
773.491
773.491
773.491
773.491
773.491
773.491
773.491
773.491
773.491
773.491
773.491
773.491
773.491
773.491
773.491
773.491
773.491
773.491
773.491
773.491
773.492
773.492
773.492
773.492
773.492
773.492
773.493
773.493
773.493
773.494
773.494
773.495
773.496
773.497
773.498
773.499
773.5
773.501
773.501
773.502
773.501
773.501
773.5
773.5
773.5
773.501
773.501
773.502
773.504
773.505
773.507
773.509
773.512
773.515
773.518
773.521
773.524
773.527
773.53
773.533
773.536
773.538
773.542
773.545
773.549
773.553
773.558
773.563
773.567
773.572
773.577
773.582
773.587
773.592
773.598
773.604
773.61
773.618
773.625
773.634
773.642
773.651
773.661
773.672
773.683
773.694
773.706
773.718
773.73
773.743
773.755
773.767
773.78
773.792
773.805
773.819
773.833
773.848
773.864
773.88
773.897
773.914
773.932
773.95
773.969
773.989
774.009
774.029
774.05
774.072
774.094
774.117
774.14
774.164
774.188
774.213
774.238
774.264
774.291
774.318
774.346
774.374
774.403
774.432
774.462
774.493
774.524
774.556
774.589
774.622
774.656
774.69
774.725
774.761
774.797
774.834
774.872
774.911
774.95
774.99
775.03
775.071
775.113
775.156
775.199
775.243
775.288
775.334
775.38
775.427
775.474
775.523
775.572
775.623
775.672
775.726
775.775
775.832
775.881
775.942
775.99
776.055
776.102
776.171
776.216
776.291
776.334
776.426
776.47
776.82
773.492
773.491
773.491
773.491
773.491
773.491
773.491
773.491
773.491
773.491
773.491
773.491
773.491
773.491
773.491
773.491
773.491
773.491
773.491
773.491
773.491
773.491
773.491
773.491
773.491
773.491
773.491
773.491
773.491
773.491
773.491
773.491
773.491
773.491
773.491
773.491
773.491
773.491
773.491
773.491
773.491
773.491
773.491
773.491
773.491
773.491
773.491
773.491
773.491
773.492
773.492
773.492
773.492
773.492
773.492
773.493
773.493
773.493
773.493
773.494
773.494
773.495
773.496
773.497
773.498
773.499
773.5
773.501
773.501
773.502
773.502
773.501
773.5
773.5
773.5
773.501
773.502
773.503
773.504
773.506
773.507
773.509
773.512
773.515
773.518
773.521
773.524
773.527
773.53
773.533
773.536
773.539
773.542
773.545
773.549
773.553
773.558
773.563
773.568
773.572
773.577
773.582
773.587
773.592
773.598
773.604
773.61
773.618
773.626
773.634
773.642
773.651
773.661
773.672
773.683
773.694
773.706
773.718
773.73
773.743
773.755
773.767
773.78
773.792
773.805
773.819
773.833
773.848
773.864
773.88
773.897
773.914
773.932
773.95
773.969
773.989
774.009
774.029
774.05
774.072
774.094
774.117
774.14
774.164
774.188
774.213
774.238
774.264
774.291
774.318
774.346
774.374
774.403
774.432
774.462
774.493
774.524
774.556
774.589
774.622
774.656
774.69
774.725
774.761
774.797
774.834
774.872
774.911
774.95
774.99
775.03
775.071
775.113
775.156
775.199
775.243
775.288
775.334
775.38
775.427
775.474
775.523
775.572
775.623
775.672
775.726
775.775
775.832
775.881
775.942
775.99
776.054
776.102
776.171
776.216
776.291
776.334
776.423
776.469
776.746
773.492
773.492
773.492
773.492
773.492
773.491
773.491
773.491
773.491
773.491
773.491
773.491
773.491
773.491
773.491
773.491
773.491
773.491
773.491
773.491
773.491
773.491
773.491
773.491
773.491
773.491
773.491
773.491
773.491
773.491
773.491
773.491
773.491
773.491
773.491
773.491
773.491
773.491
773.491
773.491
773.491
773.491
773.491
773.491
773.491
773.491
773.491
773.492
773.492
773.492
773.492
773.492
773.492
773.492
773.493
773.493
773.493
773.493
773.493
773.494
773.494
773.495
773.496
773.497
773.498
773.499
773.5
773.501
773.501
773.502
773.502
773.501
773.5
773.5
773.5
773.501
773.502
773.503
773.504
773.506
773.507
773.509
773.512
773.515
773.518
773.521
773.524
773.527
773.53
773.533
773.536
773.539
773.542
773.545
773.549
773.554
773.558
773.563
773.568
773.572
773.577
773.582
773.587
773.592
773.598
773.604
773.611
773.618
773.626
773.634
773.642
773.651
773.661
773.672
773.683
773.694
773.706
773.718
773.73
773.743
773.755
773.767
773.78
773.792
773.805
773.819
773.833
773.848
773.864
773.88
773.897
773.914
773.932
773.95
773.969
773.989
774.009
774.029
774.05
774.072
774.094
774.117
774.14
774.164
774.188
774.213
774.238
774.264
774.291
774.318
774.346
774.374
774.403
774.432
774.462
774.493
774.524
774.556
774.589
774.622
774.656
774.69
774.725
774.761
774.797
774.834
774.872
774.911
774.95
774.99
775.03
775.071
775.113
775.156
775.199
775.243
775.288
775.334
775.38
775.427
775.474
775.523
775.572
775.623
775.672
775.726
775.775
775.832
775.881
775.942
775.99
776.055
776.101
776.171
776.216
776.291
776.333
776.418
776.461
776.666
773.492
773.492
773.492
773.492
773.492
773.491
773.491
773.491
773.491
773.491
773.491
773.491
773.491
773.491
773.491
773.491
773.491
773.491
773.491
773.491
773.491
773.491
773.491
773.491
773.491
773.491
773.491
773.491
773.491
773.491
773.491
773.491
773.491
773.491
773.491
773.491
773.491
773.491
773.491
773.491
773.491
773.491
773.491
773.491
773.491
773.491
773.491
773.492
773.492
773.492
773.492
773.492
773.492
773.492
773.493
773.493
773.493
773.493
773.493
773.494
773.494
773.495
773.496
773.497
773.498
773.499
773.5
773.501
773.501
773.502
773.502
773.501
773.5
773.5
773.5
773.501
773.502
773.503
773.504
773.506
773.507
773.509
773.512
773.515
773.518
773.521
773.524
773.527
773.53
773.533
773.536
773.539
773.542
773.545
773.549
773.554
773.558
773.563
773.568
773.572
773.577
773.582
773.587
773.592
773.598
773.604
773.611
773.618
773.626
773.634
773.642
773.651
773.661
773.672
773.683
773.694
773.706
773.718
773.73
773.743
773.755
773.767
773.78
773.792
773.805
773.819
773.833
773.848
773.864
773.88
773.897
773.914
773.932
773.95
773.969
773.989
774.009
774.029
774.05
774.072
774.094
774.117
774.14
774.164
774.188
774.213
774.238
774.264
774.291
774.318
774.346
774.374
774.403
774.432
774.462
774.493
774.524
774.556
774.589
774.622
774.656
774.69
774.725
774.761
774.797
774.834
774.872
774.911
774.95
774.99
775.03
775.071
775.113
775.156
775.199
775.243
775.288
775.334
775.38
775.427
775.475
775.523
775.572
775.622
775.673
775.725
775.776
775.831
775.882
775.941
775.993
776.049
776.111
776.158
776.231
776.274
776.351
776.392
776.468
776.514
773.492
773.491
773.491
773.491
773.491
773.491
773.491
773.491
773.491
773.491
773.491
773.491
773.491
773.491
773.491
773.491
773.491
773.491
773.491
773.491
773.491
773.491
773.491
773.491
773.491
773.491
773.491
773.491
773.491
773.491
773.491
773.491
773.491
773.491
773.491
773.491
773.491
773.491
773.491
773.491
773.491
773.491
773.491
773.491
773.491
773.491
773.491
773.491
773.491
773.492
773.492
773.492
773.492
773.492
773.492
773.493
773.493
773.493
773.493
773.494
773.494
773.495
773.496
773.497
773.498
773.499
773.5
773.501
773.501
773.502
773.502
773.501
773.5
773.5
773.5
773.501
773.502
773.503
773.504
773.506
773.507
773.509
773.512
773.515
773.518
773.521
773.524
773.527
773.53
773.533
773.536
773.539
773.542
773.545
773.549
773.553
773.558
773.563
773.568
773.572
773.577
773.582
773.587
773.592
773.598
773.604
773.61
773.618
773.626
773.634
773.642
773.651
773.661
773.672
773.683
773.694
773.706
773.718
773.73
773.743
773.755
773.767
773.78
773.792
773.805
773.819
773.833
773.848
773.864
773.88
773.897
773.914
773.932
773.95
773.969
773.989
774.009
774.029
774.05
774.072
774.094
774.117
774.14
774.164
774.188
774.213
774.238
774.264
774.291
774.318
774.346
774.374
774.403
774.432
774.462
774.493
774.524
774.556
774.589
774.622
774.656
774.69
774.725
774.761
774.797
774.834
774.872
774.911
774.95
774.99
775.03
775.071
775.113
775.156
775.199
775.243
775.288
775.334
775.38
775.427
775.475
775.523
775.572
775.622
775.674
775.723
775.779
775.827
775.888
775.934
775.998
776.045
776.113
776.158
776.23
776.275
776.35
776.387
776.479
776.285
773.491
773.491
773.491
773.491
773.491
773.491
773.491
773.491
773.491
773.491
773.491
773.491
773.491
773.491
773.491
773.491
773.491
773.491
773.491
773.491
773.491
773.491
773.49
773.49
773.49
773.49
773.49
773.491
773.491
773.491
773.491
773.491
773.491
773.491
773.491
773.491
773.491
773.491
773.491
773.491
773.491
773.491
773.491
773.491
773.491
773.491
773.491
773.491
773.491
773.491
773.492
773.492
773.492
773.492
773.492
773.492
773.493
773.493
773.493
773.494
773.494
773.495
773.496
773.497
773.498
773.499
773.5
773.501
773.501
773.502
773.501
773.501
773.5
773.5
773.5
773.501
773.501
773.502
773.504
773.505
773.507
773.509
773.512
773.515
773.518
773.521
773.524
773.527
773.53
773.533
773.536
773.538
773.542
773.545
773.549
773.553
773.558
773.563
773.567
773.572
773.577
773.582
773.587
773.592
773.598
773.604
773.61
773.618
773.625
773.634
773.642
773.651
773.661
773.672
773.683
773.694
773.706
773.718
773.73
773.743
773.755
773.767
773.78
773.792
773.805
773.819
773.833
773.848
773.864
773.88
773.897
773.914
773.932
773.95
773.969
773.989
774.009
774.029
774.05
774.072
774.094
774.117
774.14
774.164
774.188
774.213
774.238
774.264
774.291
774.318
774.346
774.374
774.403
774.432
774.462
774.493
774.524
774.556
774.589
774.622
774.656
774.69
774.725
774.761
774.797
774.834
774.872
774.911
774.95
774.99
775.03
775.071
775.113
775.156
775.199
775.243
775.288
775.334
775.38
775.427
775.475
775.523
775.573
775.622
775.674
775.723
775.779
775.827
775.888
775.934
775.999
776.044
776.114
776.157
776.232
776.273
776.351
776.386
776.506
775.938
773.491
773.491
773.491
773.491
773.491
773.491
773.491
773.491
773.491
773.491
773.491
773.491
773.491
773.491
773.491
773.491
773.491
773.491
773.491
773.491
773.491
773.491
773.491
773.49
773.49
773.49
773.491
773.491
773.491
773.491
773.491
773.491
773.491
773.491
773.491
773.491
773.491
773.491
773.491
773.491
773.491
773.491
773.491
773.491
773.491
773.491
773.491
773.491
773.491
773.491
773.492
773.492
773.492
773.492
773.492
773.493
773.493
773.493
773.493
773.494
773.494
773.495
773.496
773.497
773.498
773.499
773.5
773.501
773.501
773.502
773.501
773.501
773.5
773.5
773.5
773.501
773.501
773.503
773.504
773.505
773.507
773.509
773.512
773.515
773.518
773.521
773.524
773.527
773.53
773.533
773.536
773.539
773.542
773.545
773.549
773.553
773.558
773.563
773.567
773.572
773.577
773.582
773.587
773.592
773.598
773.604
773.61
773.618
773.626
773.634
773.642
773.651
773.661
773.672
773.683
773.694
773.706
773.718
773.73
773.743
773.755
773.767
773.78
773.792
773.805
773.819
773.833
773.848
773.864
773.88
773.897
773.914
773.932
773.95
773.969
773.989
774.009
774.029
774.05
774.072
774.094
774.117
774.14
774.164
774.188
774.213
774.238
774.264
774.291
774.318
774.346
774.374
774.403
774.432
774.462
774.493
774.524
774.556
774.589
774.622
774.656
774.69
774.725
774.761
774.797
774.834
774.872
774.911
774.95
774.99
775.03
775.071
775.113
775.156
775.199
775.243
775.288
775.334
775.38
775.427
775.475
775.523
775.573
775.622
775.674
775.723
775.779
775.827
775.888
775.934
775.999
776.044
776.114
776.157
776.232
776.272
776.352
776.386
776.525
775.76
773.516
773.516
773.516
773.516
773.516
773.516
773.515
773.515
773.515
773.515
773.515
773.515
773.515
773.515
773.515
773.515
773.515
773.514
773.514
773.514
773.514
773.514
773.514
773.514
773.514
773.514
773.514
773.514
773.514
773.514
773.514
773.514
773.514
773.514
773.514
773.514
773.513
773.513
773.513
773.513
773.513
773.513
773.513
773.513
773.513
773.513
773.513
773.513
773.513
773.513
773.514
773.514
773.514
773.514
773.514
773.514
773.514
773.515
773.515
773.515
773.515
773.516
773.517
773.518
773.519
773.52
773.521
773.521
773.522
773.522
773.522
773.521
773.521
773.52
773.52
773.521
773.522
773.523
773.524
773.525
773.527
773.529
773.532
773.535
773.538
773.54
773.543
773.546
773.549
773.552
773.555
773.557
773.56
773.564
773.568
773.572
773.577
773.581
773.586
773.59
773.595
773.6
773.605
773.61
773.616
773.622
773.628
773.636
773.643
773.651
773.66
773.669
773.679
773.69
773.701
773.712
773.724
773.735
773.748
773.76
773.772
773.784
773.796
773.809
773.822
773.835
773.85
773.865
773.88
773.896
773.913
773.93
773.948
773.967
773.986
774.005
774.025
774.045
774.066
774.088
774.11
774.132
774.156
774.179
774.204
774.228
774.254
774.28
774.306
774.333
774.361
774.389
774.418
774.448
774.478
774.508
774.54
774.572
774.604
774.637
774.671
774.706
774.741
774.777
774.813
774.85
774.888
774.926
774.965
775.005
775.046
775.087
775.129
775.171
775.215
775.259
775.304
775.349
775.396
775.442
775.49
775.538
775.588
775.637
775.69
775.739
775.795
775.842
775.903
775.95
776.014
776.06
776.129
776.172
776.248
776.288
776.368
776.401
776.557
775.613
776.817
776.866
776.907
776.925
776.942
776.959
776.975
776.991
777.007
777.022
777.037
777.049
777.06
777.069
777.076
777.08
777.076
777.075
777.058
777.018
776.798
776.836
776.867
776.882
776.896
776.911
776.924
776.937
776.95
776.961
776.972
776.982
776.992
777
777.006
777.009
777.005
777.003
776.987
776.955
776.795
776.836
776.866
776.886
776.898
776.913
776.927
776.94
776.953
776.966
776.976
776.987
776.995
777.005
777.008
777.007
777.004
776.996
776.978
776.947
776.737
776.759
776.779
776.791
776.805
776.819
776.833
776.848
776.864
776.88
776.898
776.915
776.934
776.95
776.971
776.983
776.99
776.99
776.985
776.965
776.677
776.704
776.734
776.755
776.777
776.79
776.803
776.814
776.823
776.828
776.832
776.826
776.823
776.814
776.81
776.799
776.797
776.791
776.792
776.792
776.531
776.527
776.522
776.524
776.53
776.54
776.552
776.568
776.587
776.61
776.64
776.669
776.705
776.739
776.777
776.813
776.851
776.88
776.913
776.932
776.379
776.379
776.392
776.406
776.419
776.43
776.433
776.434
776.43
776.424
776.413
776.403
776.389
776.38
776.369
776.368
776.375
776.383
776.406
776.443
776.171
776.119
776.083
776.064
776.063
776.069
776.078
776.095
776.119
776.149
776.181
776.216
776.258
776.299
776.358
776.4
776.476
776.53
776.611
776.681
776.03
775.981
775.932
775.91
775.891
775.884
775.875
775.876
775.881
775.89
775.9
775.915
775.937
775.951
775.987
776.019
776.066
776.13
776.21
776.308
775.958
775.879
775.805
775.774
775.767
775.779
775.794
775.818
775.852
775.893
775.939
775.989
776.04
776.098
776.158
776.227
776.305
776.392
776.494
776.606
776.894
776.916
776.937
776.987
777.042
777.097
777.152
777.205
777.257
777.311
777.368
777.426
777.484
777.543
777.602
777.66
777.72
777.78
777.84
777.902
777.963
778.025
778.088
778.151
778.214
778.278
778.342
778.407
778.472
778.538
778.603
778.67
778.736
778.803
778.871
778.938
779.006
779.075
779.143
779.213
779.282
779.352
779.423
779.493
779.564
779.635
779.707
779.778
779.849
779.921
779.993
780.066
780.138
780.211
780.284
780.357
780.431
780.505
780.579
780.653
780.728
780.802
780.876
780.951
781.026
781.101
781.177
781.252
781.328
781.403
781.479
781.554
781.629
781.705
781.78
781.855
781.93
782.005
782.081
782.157
782.232
782.308
782.384
782.459
782.534
782.609
782.684
782.759
782.833
782.908
782.983
783.057
783.131
783.206
783.28
783.354
783.427
783.5
783.573
783.646
783.719
783.791
783.864
783.937
784.009
784.082
784.154
784.225
784.296
784.367
784.437
784.507
784.577
784.646
784.716
784.785
784.853
784.922
784.99
785.057
785.124
785.191
785.258
785.324
785.39
785.457
785.522
785.588
785.653
785.718
785.782
785.846
785.909
785.972
786.035
786.097
786.159
786.221
786.283
786.344
786.404
786.464
786.524
786.582
786.639
786.696
786.753
786.81
786.867
786.925
786.98
787.034
787.085
787.134
787.181
787.226
787.271
787.318
787.371
787.429
787.485
787.522
787.535
787.547
787.577
787.67
787.957
788.439
788.971
789.514
790.032
790.497
790.893
791.206
791.421
791.528
791.55
791.538
791.458
791.137
790.588
790.087
789.666
789.342
789.119
788.976
788.891
788.834
788.805
788.792
788.808
788.833
788.896
788.923
788.982
789.007
789.066
789.088
789.159
789.169
776.847
776.871
776.89
776.939
776.995
777.049
777.104
777.157
777.21
777.263
777.318
777.375
777.433
777.492
777.55
777.609
777.669
777.728
777.789
777.85
777.912
777.974
778.036
778.099
778.162
778.226
778.29
778.355
778.42
778.485
778.551
778.617
778.684
778.751
778.818
778.886
778.954
779.022
779.091
779.16
779.229
779.299
779.369
779.44
779.511
779.582
779.653
779.725
779.796
779.868
779.94
780.012
780.085
780.157
780.23
780.304
780.377
780.451
780.525
780.599
780.674
780.748
780.823
780.897
780.972
781.047
781.122
781.197
781.273
781.349
781.424
781.5
781.575
781.651
781.726
781.801
781.876
781.951
782.026
782.102
782.177
782.253
782.328
782.404
782.479
782.555
782.63
782.704
782.779
782.853
782.928
783.002
783.076
783.15
783.225
783.299
783.372
783.446
783.519
783.592
783.664
783.736
783.809
783.881
783.953
784.025
784.097
784.169
784.24
784.311
784.382
784.452
784.522
784.591
784.66
784.729
784.798
784.866
784.934
785.002
785.069
785.136
785.203
785.269
785.335
785.4
785.466
785.531
785.596
785.661
785.726
785.79
785.854
785.917
785.98
786.042
786.104
786.166
786.227
786.288
786.349
786.41
786.47
786.529
786.587
786.645
786.703
786.761
786.817
786.874
786.93
786.984
787.037
787.09
787.142
787.19
787.241
787.295
787.351
787.406
787.458
787.505
787.542
787.562
787.57
787.585
787.612
787.635
787.641
787.642
787.649
787.679
787.76
787.885
788.038
788.207
788.376
788.532
788.672
788.786
788.866
788.913
788.918
788.911
788.89
788.858
788.83
788.807
788.8
788.8
788.827
788.847
788.896
788.919
788.972
788.996
789.053
789.075
789.139
789.162
776.855
776.879
776.9
776.949
777.005
777.059
777.113
777.166
777.218
777.272
777.328
777.386
777.444
777.503
777.561
777.619
777.679
777.739
777.799
777.86
777.922
777.984
778.047
778.109
778.173
778.237
778.301
778.365
778.43
778.496
778.562
778.628
778.694
778.761
778.829
778.896
778.964
779.033
779.101
779.17
779.24
779.309
779.38
779.45
779.521
779.593
779.664
779.735
779.807
779.879
779.951
780.023
780.095
780.168
780.241
780.314
780.388
780.462
780.536
780.61
780.684
780.759
780.833
780.908
780.983
781.058
781.133
781.208
781.283
781.359
781.435
781.51
781.586
781.661
781.736
781.812
781.887
781.962
782.037
782.112
782.188
782.263
782.339
782.414
782.49
782.565
782.64
782.715
782.789
782.864
782.938
783.013
783.087
783.161
783.235
783.309
783.383
783.456
783.529
783.602
783.674
783.747
783.819
783.891
783.963
784.036
784.108
784.179
784.251
784.322
784.392
784.462
784.532
784.602
784.671
784.739
784.808
784.876
784.944
785.012
785.079
785.146
785.212
785.279
785.345
785.41
785.476
785.541
785.606
785.671
785.735
785.799
785.863
785.926
785.989
786.051
786.113
786.175
786.236
786.297
786.358
786.418
786.478
786.538
786.596
786.655
786.712
786.77
786.827
786.884
786.94
786.995
787.05
787.101
787.151
787.202
787.254
787.304
787.36
787.422
787.475
787.52
787.556
787.574
787.573
787.569
787.569
787.576
787.586
787.591
787.6
787.617
787.663
787.727
787.831
787.935
788.065
788.178
788.305
788.401
788.506
788.569
788.643
788.672
788.713
788.724
788.749
788.758
788.783
788.796
788.834
788.853
788.901
788.923
788.976
789
789.055
789.078
789.136
789.159
776.921
776.963
776.984
777.034
777.09
777.149
777.208
777.267
777.325
777.382
777.438
777.494
777.551
777.609
777.668
777.727
777.788
777.848
777.909
777.971
778.032
778.094
778.157
778.22
778.283
778.347
778.411
778.476
778.541
778.606
778.672
778.738
778.805
778.872
778.939
779.007
779.075
779.143
779.212
779.281
779.351
779.42
779.491
779.561
779.632
779.704
779.775
779.846
779.918
779.99
780.062
780.134
780.207
780.279
780.352
780.426
780.499
780.573
780.647
780.721
780.795
780.87
780.944
781.019
781.094
781.169
781.244
781.32
781.395
781.471
781.546
781.622
781.697
781.772
781.847
781.923
781.998
782.073
782.148
782.224
782.299
782.375
782.451
782.526
782.601
782.676
782.751
782.826
782.901
782.975
783.05
783.124
783.198
783.272
783.346
783.42
783.493
783.567
783.64
783.713
783.785
783.858
783.931
784.004
784.076
784.148
784.22
784.291
784.362
784.433
784.503
784.573
784.643
784.713
784.782
784.851
784.919
784.987
785.055
785.123
785.19
785.257
785.324
785.39
785.457
785.523
785.589
785.654
785.719
785.783
785.847
785.911
785.974
786.038
786.1
786.163
786.225
786.287
786.348
786.409
786.468
786.527
786.585
786.644
786.703
786.76
786.818
786.875
786.93
786.982
787.034
787.085
787.134
787.184
787.237
787.291
787.345
787.399
787.45
787.493
787.527
787.554
787.577
787.602
787.63
787.659
787.688
787.718
787.75
787.789
787.838
787.891
787.958
788.018
788.093
788.154
788.226
788.284
788.346
788.4
788.45
788.493
788.537
788.568
788.614
788.635
788.684
788.706
788.755
788.778
788.83
788.854
788.908
788.932
788.986
789.01
789.064
789.087
789.135
789.167
776.813
776.831
776.872
776.923
776.97
777.025
777.079
777.133
777.189
777.246
777.303
777.361
777.42
777.478
777.536
777.595
777.654
777.714
777.774
777.835
777.897
777.959
778.021
778.084
778.147
778.211
778.275
778.34
778.405
778.47
778.536
778.603
778.669
778.736
778.803
778.871
778.939
779.007
779.076
779.145
779.215
779.284
779.354
779.425
779.495
779.566
779.638
779.709
779.781
779.853
779.926
779.998
780.071
780.144
780.217
780.29
780.364
780.437
780.511
780.585
780.659
780.734
780.808
780.883
780.958
781.033
781.108
781.183
781.258
781.333
781.408
781.484
781.559
781.635
781.711
781.786
781.862
781.937
782.013
782.088
782.163
782.239
782.314
782.389
782.464
782.539
782.614
782.69
782.764
782.839
782.914
782.988
783.063
783.137
783.21
783.284
783.358
783.431
783.504
783.578
783.65
783.723
783.795
783.868
783.939
784.011
784.082
784.153
784.224
784.295
784.366
784.436
784.506
784.576
784.646
784.715
784.784
784.852
784.92
784.988
785.055
785.123
785.189
785.256
785.322
785.388
785.453
785.518
785.584
785.648
785.712
785.776
785.84
785.904
785.967
786.03
786.092
786.154
786.215
786.276
786.337
786.398
786.459
786.519
786.578
786.637
786.695
786.753
786.811
786.869
786.927
786.984
787.04
787.096
787.151
787.205
787.257
787.309
787.362
787.415
787.469
787.522
787.572
787.619
787.663
787.705
787.746
787.786
787.827
787.868
787.913
787.96
788.007
788.061
788.107
788.164
788.209
788.263
788.31
788.357
788.406
788.447
788.496
788.533
788.581
788.619
788.662
788.705
788.74
788.79
788.82
788.869
788.904
788.944
788.985
789.021
789.06
789.098
789.137
789.17
776.995
777.071
777.145
777.217
777.285
777.35
777.413
777.475
777.536
777.597
777.658
777.718
777.777
777.837
777.897
777.957
778.017
778.078
778.138
778.2
778.262
778.324
778.386
778.449
778.513
778.576
778.641
778.705
778.77
778.836
778.902
778.968
779.034
779.102
779.169
779.237
779.305
779.373
779.442
779.511
779.58
779.65
779.721
779.792
779.863
779.934
780.005
780.077
780.148
780.22
780.292
780.364
780.436
780.509
780.582
780.655
780.729
780.803
780.877
780.951
781.025
781.099
781.174
781.249
781.324
781.399
781.475
781.55
781.626
781.701
781.776
781.851
781.926
782.001
782.076
782.151
782.227
782.303
782.378
782.454
782.529
782.604
782.679
782.754
782.829
782.904
782.978
783.053
783.128
783.202
783.277
783.351
783.425
783.499
783.572
783.646
783.719
783.793
783.866
783.94
784.013
784.086
784.159
784.231
784.303
784.375
784.446
784.517
784.588
784.658
784.728
784.798
784.868
784.937
785.006
785.074
785.142
785.209
785.276
785.343
785.41
785.476
785.542
785.607
785.671
785.736
785.799
785.862
785.925
785.987
786.048
786.108
786.167
786.226
786.285
786.343
786.401
786.459
786.516
786.573
786.629
786.683
786.736
786.787
786.837
786.886
786.934
786.983
787.033
787.084
787.137
787.191
787.244
787.297
787.347
787.392
787.431
787.465
787.496
787.524
787.549
787.574
787.598
787.626
787.655
787.689
787.723
787.76
787.795
787.836
787.874
787.921
787.964
788.019
788.067
788.129
788.179
788.243
788.291
788.354
788.396
788.458
788.494
788.553
788.584
788.643
788.669
788.727
788.752
788.808
788.832
788.886
788.909
788.963
788.986
789.038
789.06
789.112
789.135
789.186
776.573
776.649
776.704
776.756
776.807
776.86
776.914
776.968
777.024
777.08
777.137
777.194
777.252
777.31
777.369
777.428
777.488
777.548
777.608
777.669
777.73
777.792
777.854
777.916
777.98
778.043
778.107
778.172
778.237
778.302
778.368
778.434
778.501
778.568
778.635
778.703
778.771
778.839
778.908
778.977
779.046
779.116
779.186
779.256
779.327
779.398
779.469
779.541
779.612
779.684
779.756
779.829
779.901
779.975
780.048
780.122
780.195
780.269
780.343
780.417
780.492
780.566
780.64
780.715
780.789
780.864
780.939
781.014
781.09
781.165
781.24
781.316
781.391
781.467
781.542
781.618
781.693
781.768
781.844
781.919
781.995
782.071
782.146
782.222
782.297
782.373
782.448
782.523
782.598
782.672
782.747
782.821
782.896
782.97
783.044
783.118
783.192
783.266
783.34
783.413
783.486
783.559
783.631
783.703
783.775
783.847
783.918
783.99
784.061
784.132
784.202
784.273
784.343
784.413
784.482
784.551
784.619
784.687
784.755
784.822
784.89
784.957
785.024
785.09
785.157
785.223
785.289
785.354
785.419
785.483
785.547
785.611
785.674
785.737
785.8
785.862
785.924
785.986
786.047
786.108
786.169
786.229
786.288
786.347
786.405
786.464
786.521
786.579
786.635
786.691
786.749
786.806
786.863
786.919
786.973
787.026
787.082
787.139
787.194
787.248
787.302
787.356
787.407
787.459
787.513
787.573
787.632
787.693
787.748
787.805
787.851
787.895
787.922
787.951
787.97
788.008
788.044
788.106
788.162
788.238
788.298
788.375
788.427
788.5
788.542
788.61
788.643
788.708
788.736
788.797
788.823
788.88
788.905
788.96
788.983
789.036
789.06
789.107
789.141
789.18
776.922
777.026
777.105
777.177
777.245
777.312
777.378
777.444
777.509
777.573
777.637
777.7
777.762
777.824
777.885
777.946
778.007
778.068
778.129
778.19
778.252
778.314
778.377
778.44
778.503
778.567
778.631
778.696
778.761
778.826
778.892
778.958
779.025
779.092
779.159
779.227
779.295
779.363
779.432
779.501
779.57
779.64
779.71
779.781
779.852
779.923
779.995
780.067
780.139
780.211
780.282
780.354
780.427
780.499
780.572
780.645
780.719
780.792
780.866
780.94
781.014
781.088
781.162
781.237
781.312
781.387
781.463
781.539
781.614
781.69
781.765
781.84
781.915
781.989
782.064
782.139
782.214
782.289
782.364
782.439
782.514
782.588
782.662
782.736
782.809
782.883
782.956
783.03
783.104
783.178
783.251
783.324
783.396
783.468
783.54
783.612
783.684