/*--------------------------------*- C++ -*----------------------------------*\
| =========                 |                                                 |
| \\      /  F ield         | OpenFOAM: The Open Source CFD Toolbox           |
|  \\    /   O peration     | Version:  3.0.x                                 |
|   \\  /    A nd           | Web:      www.OpenFOAM.org                      |
|    \\/     M anipulation  |                                                 |
\*---------------------------------------------------------------------------*/
FoamFile
{
    version     2.0;
    format      ascii;
    class       volVectorField;
    location    "0.48";
    object      U;
}
// * * * * * * * * * * * * * * * * * * * * * * * * * * * * * * * * * * * * * //

dimensions      [0 1 -1 0 0 0 0];

internalField   nonuniform List<vector> 
13800
(
(76.1961 0.000140775 0)
(76.1922 0.000123166 0)
(76.1882 0.000121751 0)
(76.1841 0.000124031 0)
(76.1801 0.000125937 0)
(76.1761 0.000127501 0)
(76.1721 0.000128819 0)
(76.1681 0.000129917 0)
(76.164 0.00013083 0)
(76.16 0.000131596 0)
(76.156 0.000132242 0)
(76.1519 0.000132791 0)
(76.1479 0.000133259 0)
(76.1438 0.000133661 0)
(76.1398 0.000134007 0)
(76.1357 0.000134307 0)
(76.1316 0.000134566 0)
(76.1275 0.000134792 0)
(76.1235 0.000134989 0)
(76.1194 0.00013516 0)
(76.1153 0.000135311 0)
(76.1112 0.000135442 0)
(76.1071 0.000135557 0)
(76.103 0.000135657 0)
(76.0988 0.000135743 0)
(76.0947 0.000135822 0)
(76.0906 0.000135891 0)
(76.0864 0.000135949 0)
(76.0823 0.000136 0)
(76.0781 0.000136044 0)
(76.0739 0.000136083 0)
(76.0698 0.000136116 0)
(76.0656 0.000136145 0)
(76.0614 0.000136169 0)
(76.0572 0.00013619 0)
(76.0529 0.000136208 0)
(76.0487 0.000136223 0)
(76.0445 0.000136235 0)
(76.0402 0.000136245 0)
(76.0359 0.000136253 0)
(76.0316 0.00013626 0)
(76.0273 0.000136264 0)
(76.0229 0.000136267 0)
(76.0186 0.000136272 0)
(76.0141 0.000136271 0)
(76.0097 0.000136265 0)
(76.0052 0.000136267 0)
(76.0007 0.000136265 0)
(75.9962 0.000136262 0)
(75.9915 0.000136258 0)
(75.9869 0.000136252 0)
(75.9821 0.000136248 0)
(75.9773 0.000136242 0)
(75.9725 0.000136236 0)
(75.9675 0.00013623 0)
(75.9624 0.000136224 0)
(75.9573 0.000136217 0)
(75.952 0.00013621 0)
(75.9467 0.000136204 0)
(75.9411 0.000136198 0)
(75.9355 0.00013619 0)
(75.9297 0.000136193 0)
(75.9237 0.000136189 0)
(75.9176 0.000136184 0)
(75.9112 0.000136182 0)
(75.9047 0.000136181 0)
(75.8979 0.00013618 0)
(75.8909 0.00013618 0)
(75.8837 0.000136181 0)
(75.8761 0.000136073 0)
(75.8683 0.000136423 0)
(75.8601 0.000136106 0)
(75.8517 0.000136194 0)
(75.8428 0.000136185 0)
(75.8336 0.000136276 0)
(75.824 0.000136217 0)
(75.814 0.000136236 0)
(75.8035 0.000136254 0)
(75.7925 0.000136265 0)
(75.7811 0.000136277 0)
(75.7691 0.00013629 0)
(75.7566 0.000136304 0)
(75.7434 0.000136318 0)
(75.7297 0.000136333 0)
(75.7154 0.000136348 0)
(75.7003 0.000136364 0)
(75.6846 0.000136382 0)
(75.6682 0.000136401 0)
(75.651 0.000136422 0)
(75.633 0.000136446 0)
(75.6141 0.000136473 0)
(75.5945 0.000136499 0)
(75.5739 0.000136527 0)
(75.5525 0.000136559 0)
(75.5301 0.000136592 0)
(75.5067 0.000136627 0)
(75.4823 0.000136664 0)
(75.4568 0.000136703 0)
(75.4303 0.000136744 0)
(75.4027 0.000136786 0)
(75.3739 0.00013683 0)
(75.3439 0.000136875 0)
(75.3128 0.000136922 0)
(75.2804 0.000136969 0)
(75.2468 0.000137016 0)
(75.2118 0.000137063 0)
(75.1756 0.000137109 0)
(75.138 0.000137152 0)
(75.0989 0.000137192 0)
(75.0585 0.000137227 0)
(75.0166 0.000137256 0)
(74.9733 0.000137273 0)
(74.9284 0.000137277 0)
(74.882 0.000137265 0)
(74.8341 0.000137233 0)
(74.7845 0.000137176 0)
(74.7334 0.000137088 0)
(74.6806 0.000136961 0)
(74.6261 0.000136787 0)
(74.57 0.000136559 0)
(74.5122 0.000136269 0)
(74.4526 0.000135905 0)
(74.3912 0.000135456 0)
(74.3281 0.000134908 0)
(74.2632 0.000134248 0)
(74.1965 0.000133462 0)
(74.1279 0.000132536 0)
(74.0574 0.000131456 0)
(73.9851 0.000130209 0)
(73.9108 0.000128782 0)
(73.8346 0.000127162 0)
(73.7565 0.00012534 0)
(73.6764 0.000123307 0)
(73.5944 0.000121057 0)
(73.5103 0.000118586 0)
(73.4242 0.000115892 0)
(73.3361 0.000112979 0)
(73.2459 0.000109852 0)
(73.1537 0.00010652 0)
(73.0593 0.000102995 0)
(72.9629 9.92919e-05 0)
(72.8643 9.54299e-05 0)
(72.7636 9.14301e-05 0)
(72.6607 8.73165e-05 0)
(72.5556 8.31148e-05 0)
(72.4483 7.88524e-05 0)
(72.3388 7.45575e-05 0)
(72.227 7.02592e-05 0)
(72.1129 6.59861e-05 0)
(71.9965 6.17664e-05 0)
(71.8778 5.76272e-05 0)
(71.7567 5.35935e-05 0)
(71.6332 4.96888e-05 0)
(71.5073 4.59337e-05 0)
(71.379 4.23464e-05 0)
(71.2481 3.8942e-05 0)
(71.1148 3.57325e-05 0)
(70.979 3.2727e-05 0)
(70.8406 2.9931e-05 0)
(70.6996 2.73475e-05 0)
(70.556 2.49765e-05 0)
(70.4098 2.28155e-05 0)
(70.2609 2.08598e-05 0)
(70.1092 1.91027e-05 0)
(69.9549 1.75351e-05 0)
(69.7978 1.61476e-05 0)
(69.6379 1.49284e-05 0)
(69.4751 1.38667e-05 0)
(69.3096 1.29496e-05 0)
(69.1411 1.21652e-05 0)
(68.9698 1.15007e-05 0)
(68.7955 1.09448e-05 0)
(68.6182 1.04849e-05 0)
(68.438 1.01111e-05 0)
(68.2548 9.81214e-06 0)
(68.0686 9.57969e-06 0)
(67.8793 9.40395e-06 0)
(67.6869 9.27866e-06 0)
(67.4915 9.19475e-06 0)
(67.2929 9.14953e-06 0)
(67.0912 9.13114e-06 0)
(66.8864 9.14509e-06 0)
(66.6784 9.17226e-06 0)
(66.4672 9.22401e-06 0)
(66.2528 9.2945e-06 0)
(66.0352 9.3529e-06 0)
(65.8144 9.47678e-06 0)
(65.5904 9.52182e-06 0)
(65.3631 9.68931e-06 0)
(65.1325 9.74728e-06 0)
(64.8986 1.00473e-05 0)
(64.6614 1.05056e-05 0)
(64.4209 1.31899e-05 0)
(64.1767 2.47382e-05 0)
(63.9276 8.22613e-05 0)
(63.6674 0.000355932 0)
(63.3676 0.00165801 0)
(62.8913 0.00780667 0)
(61.9551 0.0412092 0)
(55.0638 0.159914 0)
(76.2 0.00022185 0)
(76.2 0.00016317 0)
(76.1999 0.000149841 0)
(76.1997 0.000148009 0)
(76.1996 0.000146265 0)
(76.1995 0.000144763 0)
(76.1993 0.00014363 0)
(76.1992 0.000142719 0)
(76.1991 0.000141958 0)
(76.1989 0.000141318 0)
(76.1988 0.000140775 0)
(76.1986 0.000140311 0)
(76.1985 0.000139912 0)
(76.1983 0.000139568 0)
(76.1981 0.000139269 0)
(76.198 0.000139009 0)
(76.1978 0.000138782 0)
(76.1976 0.000138583 0)
(76.1974 0.000138409 0)
(76.1972 0.000138256 0)
(76.197 0.000138121 0)
(76.1968 0.000138002 0)
(76.1966 0.000137897 0)
(76.1964 0.000137804 0)
(76.1961 0.000137719 0)
(76.1959 0.000137648 0)
(76.1956 0.00013759 0)
(76.1954 0.00013753 0)
(76.1951 0.000137479 0)
(76.1948 0.000137435 0)
(76.1946 0.000137396 0)
(76.1943 0.000137362 0)
(76.194 0.000137332 0)
(76.1937 0.000137306 0)
(76.1933 0.000137284 0)
(76.193 0.000137264 0)
(76.1926 0.000137247 0)
(76.1923 0.000137233 0)
(76.1919 0.00013722 0)
(76.1915 0.00013721 0)
(76.1911 0.000137201 0)
(76.1906 0.000137194 0)
(76.1902 0.000137189 0)
(76.1897 0.000137191 0)
(76.1892 0.000137184 0)
(76.1886 0.00013717 0)
(76.188 0.000137177 0)
(76.1874 0.000137177 0)
(76.1867 0.000137178 0)
(76.186 0.000137179 0)
(76.1852 0.00013718 0)
(76.1843 0.000137183 0)
(76.1834 0.000137186 0)
(76.1824 0.000137189 0)
(76.1813 0.000137193 0)
(76.1802 0.000137198 0)
(76.1789 0.000137203 0)
(76.1775 0.00013721 0)
(76.176 0.000137218 0)
(76.1744 0.000137226 0)
(76.1726 0.000137232 0)
(76.1707 0.000137253 0)
(76.1686 0.000137263 0)
(76.1663 0.000137274 0)
(76.1639 0.000137289 0)
(76.1612 0.000137306 0)
(76.1583 0.000137324 0)
(76.1552 0.000137343 0)
(76.1518 0.000137361 0)
(76.1481 0.000137175 0)
(76.1442 0.00013784 0)
(76.1399 0.000137249 0)
(76.1353 0.000137456 0)
(76.1304 0.000137452 0)
(76.125 0.000137633 0)
(76.1193 0.000137538 0)
(76.1131 0.000137587 0)
(76.1065 0.000137637 0)
(76.0995 0.000137674 0)
(76.0919 0.000137713 0)
(76.0838 0.000137753 0)
(76.0751 0.000137795 0)
(76.0659 0.000137836 0)
(76.0561 0.000137879 0)
(76.0456 0.000137924 0)
(76.0344 0.000137971 0)
(76.0226 0.00013802 0)
(76.01 0.000138071 0)
(75.9967 0.000138124 0)
(75.9826 0.000138182 0)
(75.9677 0.000138242 0)
(75.9519 0.000138304 0)
(75.9352 0.000138371 0)
(75.9177 0.000138442 0)
(75.8991 0.000138515 0)
(75.8796 0.000138589 0)
(75.8591 0.000138666 0)
(75.8376 0.000138746 0)
(75.8149 0.000138828 0)
(75.7912 0.000138915 0)
(75.7663 0.000139004 0)
(75.7403 0.000139095 0)
(75.713 0.000139189 0)
(75.6845 0.000139283 0)
(75.6548 0.000139379 0)
(75.6237 0.000139475 0)
(75.5914 0.00013957 0)
(75.5577 0.000139663 0)
(75.5225 0.000139753 0)
(75.486 0.000139839 0)
(75.448 0.000139917 0)
(75.4086 0.000139983 0)
(75.3676 0.000140034 0)
(75.3251 0.000140068 0)
(75.2811 0.000140078 0)
(75.2355 0.000140063 0)
(75.1882 0.000140012 0)
(75.1393 0.000139917 0)
(75.0888 0.00013977 0)
(75.0365 0.000139562 0)
(74.9825 0.000139286 0)
(74.9268 0.00013893 0)
(74.8693 0.000138481 0)
(74.8101 0.000137924 0)
(74.749 0.000137244 0)
(74.686 0.000136426 0)
(74.6212 0.000135456 0)
(74.5545 0.000134319 0)
(74.4859 0.000133002 0)
(74.4153 0.000131492 0)
(74.3427 0.000129778 0)
(74.2682 0.000127849 0)
(74.1916 0.000125699 0)
(74.113 0.000123322 0)
(74.0324 0.000120715 0)
(73.9496 0.00011788 0)
(73.8647 0.000114821 0)
(73.7777 0.000111546 0)
(73.6885 0.000108067 0)
(73.5971 0.000104398 0)
(73.5036 0.000100557 0)
(73.4077 9.65643e-05 0)
(73.3096 9.24448e-05 0)
(73.2093 8.82239e-05 0)
(73.1066 8.39294e-05 0)
(73.0015 7.95904e-05 0)
(72.8941 7.52359e-05 0)
(72.7844 7.08962e-05 0)
(72.6722 6.65999e-05 0)
(72.5576 6.23757e-05 0)
(72.4405 5.825e-05 0)
(72.3209 5.42468e-05 0)
(72.1989 5.03892e-05 0)
(72.0743 4.66953e-05 0)
(71.9472 4.31825e-05 0)
(71.8174 3.98637e-05 0)
(71.6851 3.67484e-05 0)
(71.5502 3.38447e-05 0)
(71.4126 3.11545e-05 0)
(71.2724 2.86802e-05 0)
(71.1295 2.64187e-05 0)
(70.9838 2.43665e-05 0)
(70.8355 2.25169e-05 0)
(70.6843 2.08629e-05 0)
(70.5304 1.93928e-05 0)
(70.3737 1.80988e-05 0)
(70.2141 1.69665e-05 0)
(70.0517 1.59869e-05 0)
(69.8864 1.51458e-05 0)
(69.7182 1.44333e-05 0)
(69.5471 1.38351e-05 0)
(69.373 1.33423e-05 0)
(69.196 1.29408e-05 0)
(69.0159 1.26234e-05 0)
(68.8329 1.2377e-05 0)
(68.6468 1.21957e-05 0)
(68.4576 1.20682e-05 0)
(68.2654 1.19902e-05 0)
(68.0701 1.19512e-05 0)
(67.8717 1.19511e-05 0)
(67.6701 1.19738e-05 0)
(67.4654 1.20316e-05 0)
(67.2575 1.21006e-05 0)
(67.0465 1.21789e-05 0)
(66.8322 1.23267e-05 0)
(66.6147 1.2346e-05 0)
(66.394 1.26303e-05 0)
(66.1701 1.25542e-05 0)
(65.9429 1.2952e-05 0)
(65.7124 1.29027e-05 0)
(65.4787 1.37667e-05 0)
(65.2417 1.52077e-05 0)
(65.0013 2.4595e-05 0)
(64.7572 6.44524e-05 0)
(64.5083 0.00026084 0)
(64.2482 0.00119259 0)
(63.9486 0.00562614 0)
(63.4731 0.0265231 0)
(62.5338 0.136677 0)
(56.0035 0.500074 0)
(76.2 0.000163467 0)
(76.2 0.000114543 0)
(76.1998 0.000106561 0)
(76.1997 0.000110094 0)
(76.1996 0.000111358 0)
(76.1994 0.000111803 0)
(76.1993 0.000112208 0)
(76.1992 0.000112558 0)
(76.1991 0.00011284 0)
(76.1989 0.000113075 0)
(76.1988 0.000113277 0)
(76.1986 0.000113451 0)
(76.1985 0.000113603 0)
(76.1983 0.000113737 0)
(76.1982 0.000113854 0)
(76.198 0.000113959 0)
(76.1978 0.000114051 0)
(76.1976 0.000114134 0)
(76.1974 0.000114209 0)
(76.1973 0.000114275 0)
(76.1971 0.000114335 0)
(76.1968 0.000114389 0)
(76.1966 0.000114438 0)
(76.1964 0.000114482 0)
(76.1962 0.000114522 0)
(76.1959 0.000114556 0)
(76.1957 0.000114596 0)
(76.1955 0.000114623 0)
(76.1952 0.00011465 0)
(76.1949 0.000114676 0)
(76.1947 0.000114699 0)
(76.1944 0.000114721 0)
(76.1941 0.000114741 0)
(76.1938 0.00011476 0)
(76.1934 0.000114777 0)
(76.1931 0.000114794 0)
(76.1928 0.000114809 0)
(76.1924 0.000114824 0)
(76.192 0.000114837 0)
(76.1916 0.00011485 0)
(76.1912 0.000114862 0)
(76.1908 0.000114874 0)
(76.1903 0.000114886 0)
(76.1899 0.000114902 0)
(76.1893 0.000114909 0)
(76.1888 0.000114908 0)
(76.1882 0.000114926 0)
(76.1876 0.000114936 0)
(76.1869 0.000114945 0)
(76.1862 0.000114954 0)
(76.1854 0.000114962 0)
(76.1846 0.000114971 0)
(76.1837 0.00011498 0)
(76.1827 0.000114988 0)
(76.1816 0.000114997 0)
(76.1805 0.000115005 0)
(76.1792 0.000115014 0)
(76.1778 0.000115024 0)
(76.1763 0.000115034 0)
(76.1747 0.000115045 0)
(76.173 0.000115055 0)
(76.171 0.000115071 0)
(76.169 0.000115082 0)
(76.1667 0.000115095 0)
(76.1643 0.000115111 0)
(76.1616 0.000115127 0)
(76.1587 0.000115144 0)
(76.1556 0.000115163 0)
(76.1522 0.000115177 0)
(76.1486 0.000115023 0)
(76.1446 0.000115587 0)
(76.1404 0.00011507 0)
(76.1358 0.000115266 0)
(76.1309 0.000115264 0)
(76.1256 0.000115409 0)
(76.1198 0.000115334 0)
(76.1137 0.000115368 0)
(76.1071 0.000115414 0)
(76.1 0.000115446 0)
(76.0925 0.000115479 0)
(76.0844 0.000115512 0)
(76.0758 0.000115546 0)
(76.0666 0.00011558 0)
(76.0567 0.000115615 0)
(76.0463 0.000115653 0)
(76.0352 0.000115691 0)
(76.0233 0.000115732 0)
(76.0108 0.000115773 0)
(75.9975 0.000115817 0)
(75.9834 0.000115862 0)
(75.9685 0.00011591 0)
(75.9527 0.000115961 0)
(75.9361 0.000116016 0)
(75.9185 0.000116074 0)
(75.9 0.000116131 0)
(75.8805 0.00011619 0)
(75.86 0.000116251 0)
(75.8385 0.000116314 0)
(75.8159 0.000116379 0)
(75.7921 0.000116448 0)
(75.7673 0.000116518 0)
(75.7413 0.000116589 0)
(75.714 0.000116662 0)
(75.6856 0.000116735 0)
(75.6559 0.000116809 0)
(75.6248 0.000116883 0)
(75.5925 0.000116955 0)
(75.5588 0.000117026 0)
(75.5237 0.000117092 0)
(75.4872 0.000117155 0)
(75.4492 0.00011721 0)
(75.4098 0.000117255 0)
(75.3689 0.000117286 0)
(75.3264 0.000117301 0)
(75.2824 0.000117295 0)
(75.2368 0.000117266 0)
(75.1895 0.000117205 0)
(75.1407 0.000117106 0)
(75.0901 0.00011696 0)
(75.0379 0.000116762 0)
(74.9839 0.000116502 0)
(74.9282 0.000116173 0)
(74.8708 0.000115762 0)
(74.8115 0.000115256 0)
(74.7504 0.000114644 0)
(74.6875 0.000113913 0)
(74.6227 0.00011305 0)
(74.556 0.000112043 0)
(74.4874 0.000110881 0)
(74.4168 0.000109554 0)
(74.3443 0.000108052 0)
(74.2697 0.000106367 0)
(74.1932 0.000104493 0)
(74.1146 0.000102427 0)
(74.0339 0.000100168 0)
(73.9511 9.77153e-05 0)
(73.8663 9.50757e-05 0)
(73.7792 9.22556e-05 0)
(73.69 8.92659e-05 0)
(73.5986 8.61192e-05 0)
(73.505 8.28319e-05 0)
(73.4092 7.94219e-05 0)
(73.311 7.59104e-05 0)
(73.2106 7.23195e-05 0)
(73.1079 6.86731e-05 0)
(73.0029 6.49961e-05 0)
(72.8954 6.13128e-05 0)
(72.7856 5.76492e-05 0)
(72.6734 5.40289e-05 0)
(72.5587 5.04761e-05 0)
(72.4416 4.70127e-05 0)
(72.322 4.3658e-05 0)
(72.2 4.04317e-05 0)
(72.0753 3.73474e-05 0)
(71.9482 3.44198e-05 0)
(71.8184 3.16593e-05 0)
(71.6861 2.90719e-05 0)
(71.5511 2.66658e-05 0)
(71.4135 2.44398e-05 0)
(71.2733 2.23972e-05 0)
(71.1303 2.05338e-05 0)
(70.9846 1.88468e-05 0)
(70.8362 1.73294e-05 0)
(70.6851 1.59768e-05 0)
(70.5312 1.47761e-05 0)
(70.3744 1.37241e-05 0)
(70.2148 1.28045e-05 0)
(70.0524 1.20127e-05 0)
(69.8871 1.13336e-05 0)
(69.7189 1.07613e-05 0)
(69.5478 1.02806e-05 0)
(69.3737 9.88712e-06 0)
(69.1966 9.5653e-06 0)
(69.0166 9.31272e-06 0)
(68.8335 9.11508e-06 0)
(68.6474 8.97039e-06 0)
(68.4583 8.86685e-06 0)
(68.2661 8.80201e-06 0)
(68.0708 8.76931e-06 0)
(67.8723 8.7635e-06 0)
(67.6708 8.78005e-06 0)
(67.4661 8.81404e-06 0)
(67.2582 8.88104e-06 0)
(67.0471 8.89418e-06 0)
(66.8329 9.09577e-06 0)
(66.6154 8.94801e-06 0)
(66.3947 9.39657e-06 0)
(66.1708 9.04111e-06 0)
(65.9436 9.68503e-06 0)
(65.7131 9.36661e-06 0)
(65.4794 1.0906e-05 0)
(65.2423 1.3456e-05 0)
(65.0019 3.18265e-05 0)
(64.7579 0.00011058 0)
(64.509 0.00049977 0)
(64.2492 0.00234614 0)
(63.9511 0.0111413 0)
(63.483 0.0525858 0)
(62.5723 0.269548 0)
(56.4069 0.965965 0)
(76.2 0.000118131 0)
(76.1999 0.000103905 0)
(76.1998 9.81284e-05 0)
(76.1997 0.000102992 0)
(76.1995 0.000105585 0)
(76.1994 0.00010688 0)
(76.1993 0.000107958 0)
(76.1992 0.000108893 0)
(76.199 0.000109669 0)
(76.1989 0.000110319 0)
(76.1987 0.000110873 0)
(76.1986 0.000111345 0)
(76.1984 0.000111752 0)
(76.1983 0.000112103 0)
(76.1981 0.000112408 0)
(76.198 0.000112674 0)
(76.1978 0.000112906 0)
(76.1976 0.00011311 0)
(76.1974 0.00011329 0)
(76.1972 0.000113449 0)
(76.197 0.000113589 0)
(76.1968 0.000113713 0)
(76.1966 0.000113823 0)
(76.1964 0.000113921 0)
(76.1961 0.00011401 0)
(76.1959 0.000114081 0)
(76.1957 0.000114155 0)
(76.1954 0.000114215 0)
(76.1952 0.000114272 0)
(76.1949 0.000114321 0)
(76.1946 0.000114365 0)
(76.1943 0.000114406 0)
(76.194 0.000114442 0)
(76.1937 0.000114474 0)
(76.1934 0.000114504 0)
(76.1931 0.000114531 0)
(76.1927 0.000114555 0)
(76.1924 0.000114577 0)
(76.192 0.000114598 0)
(76.1916 0.000114617 0)
(76.1912 0.000114633 0)
(76.1908 0.000114649 0)
(76.1903 0.000114663 0)
(76.1898 0.00011468 0)
(76.1893 0.00011469 0)
(76.1888 0.000114694 0)
(76.1882 0.000114709 0)
(76.1876 0.000114719 0)
(76.1869 0.000114728 0)
(76.1862 0.000114737 0)
(76.1854 0.000114744 0)
(76.1845 0.000114751 0)
(76.1836 0.000114758 0)
(76.1826 0.000114765 0)
(76.1816 0.000114771 0)
(76.1804 0.000114777 0)
(76.1792 0.000114784 0)
(76.1778 0.00011479 0)
(76.1763 0.000114797 0)
(76.1747 0.000114805 0)
(76.1729 0.000114814 0)
(76.171 0.00011482 0)
(76.1689 0.000114832 0)
(76.1667 0.000114841 0)
(76.1642 0.000114852 0)
(76.1616 0.000114864 0)
(76.1587 0.000114877 0)
(76.1556 0.000114892 0)
(76.1522 0.000114902 0)
(76.1486 0.000114814 0)
(76.1446 0.000115175 0)
(76.1404 0.00011485 0)
(76.1358 0.000114972 0)
(76.1308 0.000114984 0)
(76.1255 0.000115068 0)
(76.1198 0.00011504 0)
(76.1137 0.000115056 0)
(76.1071 0.000115093 0)
(76.1 0.000115119 0)
(76.0925 0.000115145 0)
(76.0844 0.00011517 0)
(76.0757 0.000115196 0)
(76.0665 0.000115223 0)
(76.0567 0.000115251 0)
(76.0462 0.00011528 0)
(76.0351 0.000115309 0)
(76.0233 0.00011534 0)
(76.0108 0.000115372 0)
(75.9974 0.000115406 0)
(75.9834 0.000115442 0)
(75.9684 0.00011548 0)
(75.9527 0.000115521 0)
(75.936 0.000115564 0)
(75.9185 0.000115608 0)
(75.9 0.000115653 0)
(75.8805 0.0001157 0)
(75.86 0.00011575 0)
(75.8384 0.000115801 0)
(75.8158 0.000115854 0)
(75.7921 0.000115908 0)
(75.7673 0.000115964 0)
(75.7412 0.000116021 0)
(75.714 0.00011608 0)
(75.6855 0.000116138 0)
(75.6558 0.000116198 0)
(75.6248 0.000116257 0)
(75.5925 0.000116315 0)
(75.5588 0.00011637 0)
(75.5237 0.000116423 0)
(75.4872 0.000116471 0)
(75.4492 0.000116514 0)
(75.4098 0.000116547 0)
(75.3688 0.000116569 0)
(75.3264 0.000116577 0)
(75.2823 0.000116566 0)
(75.2367 0.000116534 0)
(75.1895 0.000116475 0)
(75.1406 0.000116382 0)
(75.0901 0.000116249 0)
(75.0379 0.000116069 0)
(74.9839 0.000115834 0)
(74.9282 0.000115537 0)
(74.8707 0.000115165 0)
(74.8115 0.000114708 0)
(74.7504 0.000114154 0)
(74.6875 0.000113492 0)
(74.6227 0.000112709 0)
(74.556 0.000111793 0)
(74.4874 0.000110734 0)
(74.4168 0.00010952 0)
(74.3443 0.00010814 0)
(74.2697 0.000106588 0)
(74.1932 0.000104855 0)
(74.1146 0.000102937 0)
(74.0339 0.00010083 0)
(73.9511 9.85337e-05 0)
(73.8662 9.60509e-05 0)
(73.7792 9.33862e-05 0)
(73.69 9.0548e-05 0)
(73.5986 8.75463e-05 0)
(73.505 8.43949e-05 0)
(73.4091 8.11099e-05 0)
(73.311 7.7709e-05 0)
(73.2106 7.42144e-05 0)
(73.1079 7.06453e-05 0)
(73.0028 6.70291e-05 0)
(72.8954 6.33852e-05 0)
(72.7856 5.97427e-05 0)
(72.6734 5.61221e-05 0)
(72.5587 5.25501e-05 0)
(72.4416 4.90478e-05 0)
(72.322 4.56369e-05 0)
(72.1999 4.23372e-05 0)
(72.0753 3.9166e-05 0)
(71.9482 3.61373e-05 0)
(71.8184 3.32667e-05 0)
(71.6861 3.05594e-05 0)
(71.5511 2.80288e-05 0)
(71.4135 2.5673e-05 0)
(71.2733 2.35003e-05 0)
(71.1303 2.15055e-05 0)
(70.9846 1.9691e-05 0)
(70.8362 1.80468e-05 0)
(70.6851 1.6576e-05 0)
(70.5312 1.52578e-05 0)
(70.3744 1.41009e-05 0)
(70.2148 1.30772e-05 0)
(70.0524 1.21945e-05 0)
(69.8871 1.14268e-05 0)
(69.7189 1.07784e-05 0)
(69.5478 1.02229e-05 0)
(69.3737 9.7689e-06 0)
(69.1966 9.38524e-06 0)
(69.0166 9.08519e-06 0)
(68.8335 8.83796e-06 0)
(68.6474 8.65684e-06 0)
(68.4583 8.51446e-06 0)
(68.2661 8.42301e-06 0)
(68.0708 8.35722e-06 0)
(67.8723 8.33947e-06 0)
(67.6708 8.31658e-06 0)
(67.4661 8.35618e-06 0)
(67.2582 8.39867e-06 0)
(67.0471 8.33931e-06 0)
(66.8329 8.71574e-06 0)
(66.6154 8.17148e-06 0)
(66.3947 9.23649e-06 0)
(66.1708 8.11008e-06 0)
(65.9436 9.71617e-06 0)
(65.7131 8.66114e-06 0)
(65.4794 1.25272e-05 0)
(65.2423 1.86068e-05 0)
(65.002 6.47718e-05 0)
(64.7579 0.000263136 0)
(64.5093 0.00124654 0)
(64.2506 0.00590873 0)
(63.9575 0.0280396 0)
(63.5165 0.13069 0)
(62.6951 0.613787 0)
(57.9636 2.16927 0)
(76.2 3.57428e-05 0)
(76.1999 2.93627e-05 0)
(76.1998 1.96458e-05 0)
(76.1996 1.68584e-05 0)
(76.1995 1.45289e-05 0)
(76.1994 1.2305e-05 0)
(76.1993 1.05182e-05 0)
(76.1991 9.08535e-06 0)
(76.199 7.89625e-06 0)
(76.1989 6.89642e-06 0)
(76.1987 6.04927e-06 0)
(76.1986 5.32556e-06 0)
(76.1984 4.70325e-06 0)
(76.1983 4.16515e-06 0)
(76.1981 3.69767e-06 0)
(76.1979 3.28998e-06 0)
(76.1978 2.9331e-06 0)
(76.1976 2.61982e-06 0)
(76.1974 2.34408e-06 0)
(76.1972 2.1008e-06 0)
(76.197 1.88578e-06 0)
(76.1968 1.69538e-06 0)
(76.1966 1.52649e-06 0)
(76.1964 1.37669e-06 0)
(76.1961 1.24535e-06 0)
(76.1959 1.12242e-06 0)
(76.1956 1.01852e-06 0)
(76.1954 9.24523e-07 0)
(76.1951 8.41781e-07 0)
(76.1949 7.66597e-07 0)
(76.1946 6.99979e-07 0)
(76.1943 6.40656e-07 0)
(76.194 5.87832e-07 0)
(76.1937 5.40794e-07 0)
(76.1934 4.98915e-07 0)
(76.1931 4.61817e-07 0)
(76.1927 4.2855e-07 0)
(76.1924 3.99027e-07 0)
(76.192 3.72906e-07 0)
(76.1916 3.49955e-07 0)
(76.1912 3.28934e-07 0)
(76.1907 3.11391e-07 0)
(76.1903 2.95258e-07 0)
(76.1898 2.82362e-07 0)
(76.1893 2.69502e-07 0)
(76.1887 2.56084e-07 0)
(76.1882 2.48372e-07 0)
(76.1875 2.40495e-07 0)
(76.1869 2.33509e-07 0)
(76.1861 2.27655e-07 0)
(76.1854 2.22702e-07 0)
(76.1845 2.18647e-07 0)
(76.1836 2.15341e-07 0)
(76.1826 2.12617e-07 0)
(76.1816 2.10685e-07 0)
(76.1804 2.09279e-07 0)
(76.1791 2.08471e-07 0)
(76.1778 2.08204e-07 0)
(76.1763 2.08379e-07 0)
(76.1747 2.0897e-07 0)
(76.1729 2.1139e-07 0)
(76.171 2.08996e-07 0)
(76.1689 2.12317e-07 0)
(76.1667 2.13567e-07 0)
(76.1642 2.15492e-07 0)
(76.1616 2.17664e-07 0)
(76.1587 2.20026e-07 0)
(76.1556 2.22329e-07 0)
(76.1522 2.22341e-07 0)
(76.1485 1.97683e-07 0)
(76.1446 2.97273e-07 0)
(76.1403 2.01842e-07 0)
(76.1358 2.33439e-07 0)
(76.1308 2.39716e-07 0)
(76.1255 2.55759e-07 0)
(76.1198 2.52108e-07 0)
(76.1136 2.50312e-07 0)
(76.1071 2.60875e-07 0)
(76.1 2.67109e-07 0)
(76.0924 2.73172e-07 0)
(76.0844 2.79361e-07 0)
(76.0757 2.86022e-07 0)
(76.0665 2.9285e-07 0)
(76.0567 2.99901e-07 0)
(76.0462 3.07267e-07 0)
(76.0351 3.15112e-07 0)
(76.0233 3.23461e-07 0)
(76.0107 3.32117e-07 0)
(75.9974 3.40977e-07 0)
(75.9833 3.50088e-07 0)
(75.9684 3.59608e-07 0)
(75.9527 3.69823e-07 0)
(75.936 3.80839e-07 0)
(75.9184 3.9227e-07 0)
(75.8999 4.0394e-07 0)
(75.8805 4.15816e-07 0)
(75.86 4.27782e-07 0)
(75.8384 4.39941e-07 0)
(75.8158 4.52572e-07 0)
(75.7921 4.65894e-07 0)
(75.7672 4.79962e-07 0)
(75.7412 4.94538e-07 0)
(75.714 5.09544e-07 0)
(75.6855 5.24714e-07 0)
(75.6558 5.40237e-07 0)
(75.6248 5.56129e-07 0)
(75.5924 5.72202e-07 0)
(75.5587 5.88409e-07 0)
(75.5236 6.04747e-07 0)
(75.4871 6.21111e-07 0)
(75.4492 6.37228e-07 0)
(75.4097 6.52707e-07 0)
(75.3688 6.6709e-07 0)
(75.3263 6.80262e-07 0)
(75.2823 6.91898e-07 0)
(75.2367 7.02002e-07 0)
(75.1895 7.09822e-07 0)
(75.1406 7.14728e-07 0)
(75.0901 7.16087e-07 0)
(75.0378 7.13709e-07 0)
(74.9839 7.07167e-07 0)
(74.9282 6.96439e-07 0)
(74.8707 6.80656e-07 0)
(74.8115 6.59379e-07 0)
(74.7504 6.31563e-07 0)
(74.6875 5.96883e-07 0)
(74.6227 5.54688e-07 0)
(74.556 5.05125e-07 0)
(74.4873 4.47773e-07 0)
(74.4168 3.83309e-07 0)
(74.3442 3.11748e-07 0)
(74.2697 2.33657e-07 0)
(74.1931 1.5012e-07 0)
(74.1145 6.15748e-08 0)
(74.0339 -3.04561e-08 0)
(73.9511 -1.2503e-07 0)
(73.8662 -2.20022e-07 0)
(73.7792 -3.14961e-07 0)
(73.69 -4.06438e-07 0)
(73.5986 -4.94731e-07 0)
(73.505 -5.7631e-07 0)
(73.4091 -6.50785e-07 0)
(73.311 -7.16167e-07 0)
(73.2106 -7.70195e-07 0)
(73.1079 -8.14009e-07 0)
(73.0028 -8.43034e-07 0)
(72.8954 -8.60709e-07 0)
(72.7856 -8.62955e-07 0)
(72.6734 -8.52102e-07 0)
(72.5587 -8.27198e-07 0)
(72.4416 -7.88553e-07 0)
(72.322 -7.38147e-07 0)
(72.1999 -6.75102e-07 0)
(72.0753 -6.02121e-07 0)
(71.9481 -5.20476e-07 0)
(71.8184 -4.29896e-07 0)
(71.6861 -3.35334e-07 0)
(71.5511 -2.34182e-07 0)
(71.4135 -1.32787e-07 0)
(71.2733 -2.83924e-08 0)
(71.1303 7.33175e-08 0)
(70.9846 1.75855e-07 0)
(70.8362 2.70387e-07 0)
(70.6851 3.67448e-07 0)
(70.5312 4.50625e-07 0)
(70.3744 5.37414e-07 0)
(70.2148 6.0931e-07 0)
(70.0524 6.82807e-07 0)
(69.8871 7.42514e-07 0)
(69.7189 8.05661e-07 0)
(69.5478 8.51919e-07 0)
(69.3737 9.06404e-07 0)
(69.1966 9.42355e-07 0)
(69.0166 9.87418e-07 0)
(68.8335 1.01969e-06 0)
(68.6474 1.05014e-06 0)
(68.4583 1.08747e-06 0)
(68.2661 1.09688e-06 0)
(68.0708 1.15164e-06 0)
(67.8723 1.12356e-06 0)
(67.6708 1.23648e-06 0)
(67.4661 1.06771e-06 0)
(67.2582 1.46649e-06 0)
(67.0471 7.46006e-07 0)
(66.8329 2.02378e-06 0)
(66.6154 1.31124e-07 0)
(66.3947 2.66438e-06 0)
(66.1708 -3.39654e-07 0)
(65.9436 2.92152e-06 0)
(65.7131 -2.15396e-07 0)
(65.4794 8.23986e-06 0)
(65.2423 1.47669e-05 0)
(65.002 9.66132e-05 0)
(64.7582 0.000419161 0)
(64.5106 0.00206302 0)
(64.2571 0.00982462 0)
(63.9874 0.0468467 0)
(63.6512 0.218934 0)
(63.1499 0.996198 0)
(60.133 3.49426 0)
(76.2 -3.57428e-05 0)
(76.1999 -2.93627e-05 0)
(76.1998 -1.96458e-05 0)
(76.1996 -1.68584e-05 0)
(76.1995 -1.45289e-05 0)
(76.1994 -1.2305e-05 0)
(76.1993 -1.05182e-05 0)
(76.1991 -9.08535e-06 0)
(76.199 -7.89625e-06 0)
(76.1989 -6.89642e-06 0)
(76.1987 -6.04927e-06 0)
(76.1986 -5.32556e-06 0)
(76.1984 -4.70325e-06 0)
(76.1983 -4.16515e-06 0)
(76.1981 -3.69767e-06 0)
(76.1979 -3.28998e-06 0)
(76.1978 -2.9331e-06 0)
(76.1976 -2.61981e-06 0)
(76.1974 -2.34408e-06 0)
(76.1972 -2.1008e-06 0)
(76.197 -1.88578e-06 0)
(76.1968 -1.69538e-06 0)
(76.1966 -1.52649e-06 0)
(76.1964 -1.37669e-06 0)
(76.1961 -1.24535e-06 0)
(76.1959 -1.12242e-06 0)
(76.1956 -1.01852e-06 0)
(76.1954 -9.24524e-07 0)
(76.1951 -8.41783e-07 0)
(76.1949 -7.66598e-07 0)
(76.1946 -6.9998e-07 0)
(76.1943 -6.40657e-07 0)
(76.194 -5.87832e-07 0)
(76.1937 -5.40795e-07 0)
(76.1934 -4.98915e-07 0)
(76.1931 -4.61818e-07 0)
(76.1927 -4.28551e-07 0)
(76.1924 -3.99026e-07 0)
(76.192 -3.72907e-07 0)
(76.1916 -3.49955e-07 0)
(76.1912 -3.28933e-07 0)
(76.1907 -3.11391e-07 0)
(76.1903 -2.95258e-07 0)
(76.1898 -2.82364e-07 0)
(76.1893 -2.69502e-07 0)
(76.1887 -2.56084e-07 0)
(76.1882 -2.48372e-07 0)
(76.1875 -2.40496e-07 0)
(76.1869 -2.33509e-07 0)
(76.1861 -2.27653e-07 0)
(76.1854 -2.22701e-07 0)
(76.1845 -2.18648e-07 0)
(76.1836 -2.15341e-07 0)
(76.1826 -2.12619e-07 0)
(76.1816 -2.10685e-07 0)
(76.1804 -2.09279e-07 0)
(76.1791 -2.08471e-07 0)
(76.1778 -2.08206e-07 0)
(76.1763 -2.08379e-07 0)
(76.1747 -2.08971e-07 0)
(76.1729 -2.1139e-07 0)
(76.171 -2.08995e-07 0)
(76.1689 -2.12317e-07 0)
(76.1667 -2.13567e-07 0)
(76.1642 -2.15492e-07 0)
(76.1616 -2.17664e-07 0)
(76.1587 -2.20026e-07 0)
(76.1556 -2.2233e-07 0)
(76.1522 -2.2234e-07 0)
(76.1485 -1.97683e-07 0)
(76.1446 -2.97274e-07 0)
(76.1403 -2.01842e-07 0)
(76.1358 -2.33439e-07 0)
(76.1308 -2.39717e-07 0)
(76.1255 -2.5576e-07 0)
(76.1198 -2.52107e-07 0)
(76.1136 -2.50311e-07 0)
(76.1071 -2.60875e-07 0)
(76.1 -2.6711e-07 0)
(76.0924 -2.73173e-07 0)
(76.0844 -2.79362e-07 0)
(76.0757 -2.86023e-07 0)
(76.0665 -2.92849e-07 0)
(76.0567 -2.999e-07 0)
(76.0462 -3.07266e-07 0)
(76.0351 -3.15112e-07 0)
(76.0233 -3.23461e-07 0)
(76.0107 -3.32118e-07 0)
(75.9974 -3.40977e-07 0)
(75.9833 -3.50088e-07 0)
(75.9684 -3.59608e-07 0)
(75.9527 -3.69823e-07 0)
(75.936 -3.80838e-07 0)
(75.9184 -3.92269e-07 0)
(75.8999 -4.03939e-07 0)
(75.8805 -4.15816e-07 0)
(75.86 -4.27782e-07 0)
(75.8384 -4.3994e-07 0)
(75.8158 -4.52572e-07 0)
(75.7921 -4.65893e-07 0)
(75.7672 -4.79962e-07 0)
(75.7412 -4.94538e-07 0)
(75.714 -5.09544e-07 0)
(75.6855 -5.24713e-07 0)
(75.6558 -5.40237e-07 0)
(75.6248 -5.56129e-07 0)
(75.5924 -5.72202e-07 0)
(75.5587 -5.88409e-07 0)
(75.5236 -6.04748e-07 0)
(75.4871 -6.21111e-07 0)
(75.4492 -6.37228e-07 0)
(75.4097 -6.52708e-07 0)
(75.3688 -6.6709e-07 0)
(75.3263 -6.80262e-07 0)
(75.2823 -6.919e-07 0)
(75.2367 -7.01997e-07 0)
(75.1895 -7.0983e-07 0)
(75.1406 -7.14713e-07 0)
(75.0901 -7.16113e-07 0)
(75.0378 -7.13673e-07 0)
(74.9839 -7.07207e-07 0)
(74.9282 -6.96404e-07 0)
(74.8707 -6.80683e-07 0)
(74.8115 -6.59357e-07 0)
(74.7504 -6.31577e-07 0)
(74.6875 -5.96873e-07 0)
(74.6227 -5.54717e-07 0)
(74.556 -5.05036e-07 0)
(74.4873 -4.47877e-07 0)
(74.4168 -3.83311e-07 0)
(74.3442 -3.11646e-07 0)
(74.2697 -2.3383e-07 0)
(74.1931 -1.49947e-07 0)
(74.1145 -6.17008e-08 0)
(74.0339 3.06021e-08 0)
(73.9511 1.24724e-07 0)
(73.8662 2.20559e-07 0)
(73.7792 3.14216e-07 0)
(73.69 4.0726e-07 0)
(73.5986 4.9389e-07 0)
(73.505 5.77187e-07 0)
(73.4091 6.49956e-07 0)
(73.311 7.16798e-07 0)
(73.2106 7.69927e-07 0)
(73.1079 8.13943e-07 0)
(73.0028 8.43286e-07 0)
(72.8954 8.60509e-07 0)
(72.7856 8.63028e-07 0)
(72.6734 8.52123e-07 0)
(72.5587 8.26985e-07 0)
(72.4416 7.89138e-07 0)
(72.322 7.37254e-07 0)
(72.1999 6.7596e-07 0)
(72.0753 6.01718e-07 0)
(71.9481 5.20367e-07 0)
(71.8184 4.3042e-07 0)
(71.6861 3.3446e-07 0)
(71.5511 2.3525e-07 0)
(71.4135 1.31965e-07 0)
(71.2733 2.88763e-08 0)
(71.1303 -7.40131e-08 0)
(70.9846 -1.74292e-07 0)
(70.8362 -2.72984e-07 0)
(70.6851 -3.64028e-07 0)
(70.5312 -4.54429e-07 0)
(70.3744 -5.34005e-07 0)
(70.2148 -6.11997e-07 0)
(70.0524 -6.80129e-07 0)
(69.8871 -7.46255e-07 0)
(69.7189 -8.00659e-07 0)
(69.5478 -8.57362e-07 0)
(69.3737 -9.00783e-07 0)
(69.1966 -9.48105e-07 0)
(69.0166 -9.82765e-07 0)
(68.8335 -1.02054e-06 0)
(68.6474 -1.05446e-06 0)
(68.4583 -1.07277e-06 0)
(68.2661 -1.12817e-06 0)
(68.0708 -1.09708e-06 0)
(67.8723 -1.21388e-06 0)
(67.6708 -1.07792e-06 0)
(67.4661 -1.36904e-06 0)
(67.2582 -8.8814e-07 0)
(67.0471 -1.81911e-06 0)
(66.8329 -1.93434e-07 0)
(66.6154 -2.89327e-06 0)
(66.3947 1.32976e-06 0)
(66.1708 -4.3136e-06 0)
(65.9436 3.51972e-06 0)
(65.7131 -5.01973e-06 0)
(65.4794 8.65713e-06 0)
(65.2424 1.06538e-05 0)
(65.0021 9.5701e-05 0)
(64.7586 0.000417269 0)
(64.5123 0.00207455 0)
(64.2651 0.00997042 0)
(64.0253 0.0483538 0)
(63.8263 0.233515 0)
(63.778 1.1322 0)
(64.2471 3.93271 0)
(76.2 -0.000118131 0)
(76.1999 -0.000103905 0)
(76.1998 -9.81284e-05 0)
(76.1997 -0.000102992 0)
(76.1995 -0.000105585 0)
(76.1994 -0.00010688 0)
(76.1993 -0.000107958 0)
(76.1992 -0.000108893 0)
(76.199 -0.000109669 0)
(76.1989 -0.000110319 0)
(76.1987 -0.000110873 0)
(76.1986 -0.000111345 0)
(76.1984 -0.000111752 0)
(76.1983 -0.000112103 0)
(76.1981 -0.000112408 0)
(76.198 -0.000112674 0)
(76.1978 -0.000112906 0)
(76.1976 -0.00011311 0)
(76.1974 -0.00011329 0)
(76.1972 -0.000113449 0)