/*--------------------------------*- C++ -*----------------------------------*\
| =========                 |                                                 |
| \\      /  F ield         | OpenFOAM: The Open Source CFD Toolbox           |
|  \\    /   O peration     | Version:  3.0.x                                 |
|   \\  /    A nd           | Web:      www.OpenFOAM.org                      |
|    \\/     M anipulation  |                                                 |
\*---------------------------------------------------------------------------*/
FoamFile
{
    version     2.0;
    format      ascii;
    class       volVectorField;
    location    "0.5";
    object      U;
}
// * * * * * * * * * * * * * * * * * * * * * * * * * * * * * * * * * * * * * //

dimensions      [0 1 -1 0 0 0 0];

internalField   nonuniform List<vector> 
1000
(
(50 0 0)
(50 0 0)
(50 0 0)
(50 0 0)
(50 0 0)
(50 0 0)
(50 0 0)
(50 0 0)
(50 0 0)
(50 0 0)
(50 0 0)
(50 0 0)
(50 0 0)
(50 0 0)
(50 0 0)
(50 0 0)
(50 0 0)
(50 0 0)
(50 0 0)
(50 0 0)
(50 0 0)
(50 0 0)
(50 0 0)
(50 0 0)
(50 0 0)
(50 0 0)
(50 0 0)
(50 0 0)
(50 0 0)
(50 0 0)
(50 0 0)
(50 0 0)
(50 0 0)
(50 0 0)
(50 0 0)
(50 0 0)
(50 0 0)
(50 0 0)
(50 0 0)
(50 0 0)
(50 0 0)
(50 0 0)
(50 0 0)
(50 0 0)
(50 0 0)
(50 0 0)
(50 0 0)
(50 0 0)
(50 0 0)
(50 0 0)
(50 0 0)
(50 0 0)
(50 0 0)
(50 0 0)
(50 0 0)
(50 0 0)
(50 0 0)
(50 0 0)
(50 0 0)
(50 0 0)
(50 0 0)
(50 0 0)
(50 0 0)
(50 0 0)
(50 0 0)
(50 0 0)
(50 0 0)
(50 0 0)
(50 0 0)
(50 0 0)
(50 0 0)
(50 0 0)
(50 0 0)
(50 0 0)
(50 0 0)
(50 0 0)
(50 0 0)
(50 0 0)
(50 0 0)
(50 0 0)
(50 0 0)
(50 0 0)
(50 0 0)
(50 0 0)
(50 0 0)
(50 0 0)
(50 0 0)
(50 0 0)
(50 0 0)
(50 0 0)
(50 0 0)
(50 0 0)
(50 0 0)
(50 0 0)
(50 0 0)
(50 0 0)
(50 0 0)
(50 0 0)
(50 0 0)
(50 0 0)
(50 0 0)
(50 0 0)
(50 0 0)
(50 0 0)
(50 0 0)
(50 0 0)
(50 0 0)
(50 0 0)
(50 0 0)
(50 0 0)
(50 0 0)
(50 0 0)
(50 0 0)
(50 0 0)
(50 0 0)
(50 0 0)
(50 0 0)
(50 0 0)
(50 0 0)
(50 0 0)
(50 0 0)
(50 0 0)
(50 0 0)
(50 0 0)
(50 0 0)
(50 0 0)
(50 0 0)
(50 0 0)
(50 0 0)
(50 0 0)
(50 0 0)
(50 0 0)
(50 0 0)
(50 0 0)
(50 0 0)
(50 0 0)
(50 0 0)
(50 0 0)
(50 0 0)
(50 0 0)
(50 0 0)
(50 0 0)
(50 0 0)
(50 0 0)
(50 0 0)
(50 0 0)
(50 0 0)
(50 0 0)
(50 0 0)
(50 0 0)
(50 0 0)
(50 0 0)
(50 0 0)
(50 0 0)
(50 0 0)
(50 0 0)
(50 0 0)
(50 0 0)
(50 0 0)
(50 0 0)
(50 0 0)
(50 0 0)
(50 0 0)
(50 0 0)
(50 0 0)
(50 0 0)
(50 0 0)
(50 0 0)
(50 0 0)
(50 0 0)
(50 0 0)
(50 0 0)
(50 0 0)
(50 0 0)
(50 0 0)
(50 0 0)
(50 0 0)
(50 0 0)
(50 0 0)
(50 0 0)
(50 0 0)
(50 0 0)
(50 0 0)
(50 0 0)
(50 0 0)
(50 0 0)
(50 0 0)
(50 0 0)
(50 0 0)
(50 0 0)
(50 0 0)
(50 0 0)
(50 0 0)
(50 0 0)
(50 0 0)
(50 0 0)
(50 0 0)
(50 0 0)
(50 0 0)
(50 0 0)
(50 0 0)
(50 0 0)
(50 0 0)
(50 0 0)
(50 0 0)
(50 0 0)
(50 0 0)
(50 0 0)
(50 0 0)
(50 0 0)
(50 0 0)
(50 0 0)
(50 0 0)
(50 0 0)
(50 0 0)
(50 0 0)
(50 0 0)
(50 0 0)
(50 0 0)
(50 0 0)
(50 0 0)
(50 0 0)
(50 0 0)
(50 0 0)
(50 0 0)
(50 0 0)
(50 0 0)
(50 0 0)
(50 0 0)
(50 0 0)
(50 0 0)
(50 0 0)
(50 0 0)
(50 0 0)
(50 0 0)
(50 0 0)
(50 0 0)
(50 0 0)
(50 0 0)
(50 0 0)
(50 0 0)
(50 0 0)
(50 0 0)
(50 0 0)
(50 0 0)
(50 0 0)
(50 0 0)
(50 0 0)
(50 0 0)
(50 0 0)
(50 0 0)
(50 0 0)
(50 0 0)
(50 0 0)
(50 0 0)
(50 0 0)
(50 0 0)
(50 0 0)
(50 0 0)
(50 0 0)
(50 0 0)
(50 0 0)
(50 0 0)
(50 0 0)
(50 0 0)
(50 0 0)
(50 0 0)
(50 0 0)
(50 0 0)
(50 0 0)
(50 0 0)
(50 0 0)
(50 0 0)
(50 0 0)
(50 0 0)
(50 0 0)
(50 0 0)
(50 0 0)
(50 0 0)
(50 0 0)
(50 0 0)
(50 0 0)
(50 0 0)
(50 0 0)
(50 0 0)
(50 0 0)
(50 0 0)
(50 0 0)
(50 0 0)
(50 0 0)
(50 0 0)
(50 0 0)
(50 0 0)
(50 0 0)
(50 0 0)
(50 0 0)
(50 0 0)
(50 0 0)
(50 0 0)
(50 0 0)
(50 0 0)
(50 0 0)
(50 0 0)
(50 0 0)
(50 0 0)
(50 0 0)
(50 0 0)
(50 0 0)
(50 0 0)
(50 0 0)
(50 0 0)
(50 0 0)
(50 0 0)
(50 0 0)
(50 0 0)
(50 0 0)
(50 0 0)
(50 0 0)
(50 0 0)
(50 0 0)
(50 0 0)
(50 0 0)
(50 0 0)
(50 0 0)
(50 0 0)
(50 0 0)
(50 0 0)
(50 0 0)
(50 0 0)
(50 0 0)
(50 0 0)
(50 0 0)
(50 0 0)
(50 0 0)
(50 0 0)
(50 0 0)
(50 0 0)
(50 0 0)
(50 0 0)
(50 0 0)
(50 0 0)
(50 0 0)
(50 0 0)
(50 0 0)
(50 0 0)
(50 0 0)
(50 0 0)
(50 0 0)
(50 0 0)
(50 0 0)
(50 0 0)
(50 0 0)
(50 0 0)
(50 0 0)
(50 0 0)
(50 0 0)
(50 0 0)
(50 0 0)
(50 0 0)
(50 0 0)
(50 0 0)
(50 0 0)
(50 0 0)
(50 0 0)
(50 0 0)
(50 0 0)
(50 0 0)
(50 0 0)
(50 0 0)
(50 0 0)
(50 0 0)
(50 0 0)
(50 0 0)
(50 0 0)
(50 0 0)
(50 0 0)
(50 0 0)
(50 0 0)
(50 0 0)
(50 0 0)
(50 0 0)
(50 0 0)
(50 0 0)
(50 0 0)
(50 0 0)
(50 0 0)
(50 0 0)
(50 0 0)
(50 0 0)
(50 0 0)
(50 0 0)
(50 0 0)
(50 0 0)
(50 0 0)
(50 0 0)
(50 0 0)
(50 0 0)
(50 0 0)
(50 0 0)
(50 0 0)
(50 0 0)
(50 0 0)
(50 0 0)
(50 0 0)
(50 0 0)
(50 0 0)
(50 0 0)
(50 0 0)
(50 0 0)
(50 0 0)
(50 0 0)
(50 0 0)
(50 0 0)
(50 0 0)
(50 0 0)
(50 0 0)
(50 0 0)
(50 0 0)
(50 0 0)
(50 0 0)
(50 0 0)
(50 0 0)
(50 0 0)
(50 0 0)
(50 0 0)
(50 0 0)
(50 0 0)
(50 0 0)
(50 0 0)
(50 0 0)
(50 0 0)
(50 0 0)
(50 0 0)
(50 0 0)
(50 0 0)
(50 0 0)
(50 0 0)
(50 0 0)
(50 0 0)
(50 0 0)
(50 0 0)
(50 0 0)
(50 0 0)
(50 0 0)
(50 0 0)
(50 0 0)
(50 0 0)
(50 0 0)
(50 0 0)
(50 0 0)
(50 0 0)
(50 0 0)
(50 0 0)
(50 0 0)
(50 0 0)
(50 0 0)
(50 0 0)
(50 0 0)
(50 0 0)
(50 0 0)
(50 0 0)
(50 0 0)
(50 0 0)
(50 0 0)
(50 0 0)
(50 0 0)
(50 0 0)
(50 0 0)
(50 0 0)
(50 0 0)
(50 0 0)
(50 0 0)
(50 0 0)
(50 0 0)
(50 0 0)
(50 0 0)
(50 0 0)
(50 0 0)
(50 0 0)
(50 0 0)
(50 0 0)
(50 0 0)
(50 0 0)
(50 0 0)
(50 0 0)
(50 0 0)
(50 0 0)
(50 0 0)
(50 0 0)
(50 0 0)
(50 0 0)
(50 0 0)
(50 0 0)
(50 0 0)
(50 0 0)
(50 0 0)
(50 0 0)
(50 0 0)
(50 0 0)
(50 0 0)
(50 0 0)
(50 0 0)
(50 0 0)
(50 0 0)
(50 0 0)
(50 0 0)
(50 0 0)
(50 0 0)
(50 0 0)
(50 0 0)
(50 0 0)
(50 0 0)
(50 0 0)
(50 0 0)
(50 0 0)
(50 0 0)
(50 0 0)
(50 0 0)
(50 0 0)
(50 0 0)
(50 0 0)
(50 0 0)
(50 0 0)
(50 0 0)
(50 0 0)
(50 0 0)
(50 0 0)
(50 0 0)
(50 0 0)
(50 0 0)
(50 0 0)
(50 0 0)
(50 0 0)
(50 0 0)
(50 0 0)
(50 0 0)
(50 0 0)
(50 0 0)
(50 0 0)
(50 0 0)
(50 0 0)
(50 0 0)
(50 0 0)
(50 0 0)
(50 0 0)
(50 0 0)
(50 0 0)
(50 0 0)
(50 0 0)
(50 0 0)
(50 0 0)
(50 0 0)
(50 0 0)
(50 0 0)
(50 0 0)
(50 0 0)
(50 0 0)
(50 0 0)
(50 0 0)
(50 0 0)
(50 0 0)
(50 0 0)
(50 0 0)
(50 0 0)
(50 0 0)
(50 0 0)
(50 0 0)
(50 0 0)
(50 0 0)
(50 0 0)
(50 0 0)
(50 0 0)
(50 0 0)
(50 0 0)
(50 0 0)
(50 0 0)
(50 0 0)
(50 0 0)
(50 0 0)
(50 0 0)
(50 0 0)
(50 0 0)
(50 0 0)
(50 0 0)
(50 0 0)
(50 0 0)
(50 0 0)
(50 0 0)
(50 0 0)
(50 0 0)
(50 0 0)
(50 0 0)
(50 0 0)
(50 0 0)
(50 0 0)
(50 0 0)
(50 0 0)
(50 0 0)
(50 0 0)
(50 0 0)
(50 0 0)
(50 0 0)
(50 0 0)
(50 0 0)
(50 0 0)
(50 0 0)
(50 0 0)
(50 0 0)
(50 0 0)
(50 0 0)
(50 0 0)
(50 0 0)
(50 0 0)
(50 0 0)
(50 0 0)
(50 0 0)
(50 0 0)
(50 0 0)
(50 0 0)
(50 0 0)
(50 0 0)
(50 0 0)
(50 0 0)
(50 0 0)
(50 0 0)
(50 0 0)
(50 0 0)
(50 0 0)
(50 0 0)
(50 0 0)
(50 0 0)
(50 0 0)
(50 0 0)
(50 0 0)
(50 0 0)
(50 0 0)
(50 0 0)
(50 0 0)
(50 0 0)
(50 0 0)
(50 0 0)
(50 0 0)
(50 0 0)
(50 0 0)
(50 0 0)
(50 0 0)
(50 0 0)
(50 0 0)
(50 0 0)
(50 0 0)
(50 0 0)
(50 0 0)
(50 0 0)
(50 0 0)
(50 0 0)
(50 0 0)
(50 0 0)
(50 0 0)
(50 0 0)
(50 0 0)
(50 0 0)
(50 0 0)
(50 0 0)
(50 0 0)
(50 0 0)
(50 0 0)
(50 0 0)
(50 0 0)
(50 0 0)
(50 0 0)
(50 0 0)
(50 0 0)
(50 0 0)
(50 0 0)
(50 0 0)
(50 0 0)
(50 0 0)
(50 0 0)
(50 0 0)
(50 0 0)
(50 0 0)
(50 0 0)
(50 0 0)
(50 0 0)
(50 0 0)
(50 0 0)
(50 0 0)
(50 0 0)
(50 0 0)
(50 0 0)
(50 0 0)
(50 0 0)
(50 0 0)
(50 0 0)
(50 0 0)
(50 0 0)
(50 0 0)
(50 0 0)
(50 0 0)
(50 0 0)
(50 0 0)
(50 0 0)
(50 0 0)
(50 0 0)
(50 0 0)
(50 0 0)
(50 0 0)
(50 0 0)
(50 0 0)
(50 0 0)
(50 0 0)
(50 0 0)
(49.9999 0 0)
(49.9999 0 0)
(49.9999 0 0)
(49.9999 0 0)
(49.9998 0 0)
(49.9997 0 0)
(49.9996 0 0)
(49.9995 0 0)
(49.9993 0 0)
(49.9991 0 0)
(49.9988 0 0)
(49.9985 0 0)
(49.998 0 0)
(49.9973 0 0)
(49.9965 0 0)
(49.9955 0 0)
(49.9941 0 0)
(49.9925 0 0)
(49.9903 0 0)
(49.9876 0 0)
(49.9843 0 0)
(49.9801 0 0)
(49.9749 0 0)
(49.9685 0 0)
(49.9607 0 0)
(49.9511 0 0)
(49.9395 0 0)
(49.9255 0 0)
(49.9086 0 0)
(49.8883 0 0)
(49.8642 0 0)
(49.8356 0 0)
(49.8019 0 0)
(49.7623 0 0)
(49.716 0 0)
(49.6621 0 0)
(49.5997 0 0)
(49.5278 0 0)
(49.4453 0 0)
(49.3512 0 0)
(49.2442 0 0)
(49.1231 0 0)
(48.9868 0 0)
(48.834 0 0)
(48.6635 0 0)
(48.474 0 0)
(48.2646 0 0)
(48.0339 0 0)
(47.7811 0 0)
(47.5051 0 0)
(47.2052 0 0)
(46.8806 0 0)
(46.5308 0 0)
(46.1554 0 0)
(45.7541 0 0)
(45.3269 0 0)
(44.8737 0 0)
(44.3949 0 0)
(43.891 0 0)
(43.3623 0 0)
(42.8097 0 0)
(42.234 0 0)
(41.6361 0 0)
(41.0171 0 0)
(40.3782 0 0)
(39.7205 0 0)
(39.0453 0 0)
(38.3538 0 0)
(37.6474 0 0)
(36.9273 0 0)
(36.1949 0 0)
(35.4513 0 0)
(34.6979 0 0)
(33.9359 0 0)
(33.1663 0 0)
(32.3904 0 0)
(31.6091 0 0)
(30.8237 0 0)
(30.0349 0 0)
(29.2439 0 0)
(28.4515 0 0)
(27.6585 0 0)
(26.8658 0 0)
(26.0743 0 0)
(25.2846 0 0)
(24.4975 0 0)
(23.7138 0 0)
(22.9339 0 0)
(22.1587 0 0)
(21.3888 0 0)
(20.6246 0 0)
(19.8669 0 0)
(19.1161 0 0)
(18.3728 0 0)
(17.6375 0 0)
(16.9108 0 0)
(16.193 0 0)
(15.4848 0 0)
(14.7866 0 0)
(14.0988 0 0)
(13.4219 0 0)
(12.7564 0 0)
(12.1028 0 0)
(11.4616 0 0)
(10.8331 0 0)
(10.218 0 0)
(9.61667 0 0)
(9.02965 0 0)
(8.45746 0 0)
(7.90063 0 0)
(7.3597 0 0)
(6.83523 0 0)
(6.32776 0 0)
(5.83787 0 0)
(5.3661 0 0)
(4.913 0 0)
(4.47909 0 0)
(4.06487 0 0)
(3.6708 0 0)
(3.29726 0 0)
(2.94459 0 0)
(2.61304 0 0)
(2.30276 0 0)
(2.01379 0 0)
(1.74606 0 0)
(1.49937 0 0)
(1.27339 0 0)
(1.06766 0 0)
(0.881569 0 0)
(0.714409 0 0)
(0.565344 0 0)
(0.433439 0 0)
(0.317682 0 0)
(0.217009 0 0)
(0.130347 0 0)
(0.0567006 0 0)
(-0.00340461 0 0)
(-0.0500522 0 0)
(-0.0871999 0 0)
(-0.118191 0 0)
(-0.143484 0 0)
(-0.163545 0 0)
(-0.179246 0 0)
(-0.191368 0 0)
(-0.20058 0 0)
(-0.207455 0 0)
(-0.212478 0 0)
(-0.216054 0 0)
(-0.218516 0 0)
(-0.220138 0 0)
(-0.221138 0 0)
(-0.221688 0 0)
(-0.221921 0 0)
(-0.221939 0 0)
(-0.221816 0 0)
(-0.221606 0 0)
(-0.221347 0 0)
(-0.221065 0 0)
(-0.220777 0 0)
(-0.220493 0 0)
(-0.22022 0 0)
(-0.21996 0 0)
(-0.219715 0 0)
(-0.219486 0 0)
(-0.219271 0 0)
(-0.21907 0 0)
(-0.218881 0 0)
(-0.218705 0 0)
(-0.218538 0 0)
(-0.218382 0 0)
(-0.218235 0 0)
(-0.218096 0 0)
(-0.217964 0 0)
(-0.21784 0 0)
(-0.217723 0 0)
(-0.217612 0 0)
(-0.217507 0 0)
(-0.217407 0 0)
(-0.217313 0 0)
(-0.217224 0 0)
(-0.217139 0 0)
(-0.217059 0 0)
(-0.216983 0 0)
(-0.216911 0 0)
(-0.216842 0 0)
(-0.216777 0 0)
(-0.216714 0 0)
(-0.216654 0 0)
(-0.216595 0 0)
(-0.216541 0 0)
(-0.216488 0 0)
(-0.216423 0 0)
(-0.216379 0 0)
(-0.216347 0 0)
(-0.216307 0 0)
(-0.216272 0 0)
(-0.216238 0 0)
(-0.216205 0 0)
(-0.216173 0 0)
(-0.216143 0 0)
(-0.216114 0 0)
(-0.216087 0 0)
(-0.21606 0 0)
(-0.216035 0 0)
(-0.216011 0 0)
(-0.215988 0 0)
(-0.215966 0 0)
(-0.215944 0 0)
(-0.215924 0 0)
(-0.215905 0 0)
(-0.215887 0 0)
(-0.21587 0 0)
(-0.215853 0 0)
(-0.215838 0 0)
(-0.215823 0 0)
(-0.215809 0 0)
(-0.215796 0 0)
(-0.215783 0 0)
(-0.215771 0 0)
(-0.215759 0 0)
(-0.215748 0 0)
(-0.215737 0 0)
(-0.215727 0 0)
(-0.215717 0 0)
(-0.215707 0 0)
(-0.215696 0 0)
(-0.215686 0 0)
(-0.215676 0 0)
(-0.215665 0 0)
(-0.215654 0 0)
(-0.215642 0 0)
(-0.21563 0 0)
(-0.215618 0 0)
(-0.215606 0 0)
(-0.215594 0 0)
(-0.215578 0 0)
(-0.215574 0 0)
(-0.215551 0 0)
(-0.215538 0 0)
(-0.215544 0 0)
(-0.215529 0 0)
(-0.215525 0 0)
(-0.215517 0 0)
(-0.215511 0 0)
(-0.215504 0 0)
(-0.215498 0 0)
(-0.215493 0 0)
(-0.215487 0 0)
(-0.215481 0 0)
(-0.215475 0 0)
(-0.215469 0 0)
(-0.215463 0 0)
(-0.215457 0 0)
(-0.21545 0 0)
(-0.215443 0 0)
(-0.215436 0 0)
(-0.215428 0 0)
(-0.215421 0 0)
(-0.215413 0 0)
(-0.215406 0 0)
(-0.215398 0 0)
(-0.215391 0 0)
(-0.215383 0 0)
(-0.215376 0 0)
(-0.215369 0 0)
(-0.215362 0 0)
(-0.215358 0 0)
(-0.215338 0 0)
(-0.215366 0 0)
(-0.215309 0 0)
(-0.215315 0 0)
(-0.215351 0 0)
(-0.215304 0 0)
(-0.215319 0 0)
(-0.215306 0 0)
(-0.215302 0 0)
(-0.215296 0 0)
(-0.215292 0 0)
(-0.21528 0 0)
(-0.215308 0 0)
(-0.215156 0 0)
(-0.215667 0 0)
(-0.213526 0 0)
(-0.218956 0 0)
(-0.206482 0 0)
(-0.225152 0 0)
(-0.208421 0 0)
(-0.214637 0 0)
)
;

boundaryField
{
    inlet
    {
        type            fixedValue;
        value           uniform (50 0 0);
    }
    backWall
    {
        type            zeroGradient;
    }
    sides
    {
        type            empty;
    }
}


// ************************************************************************* //
