/*--------------------------------*- C++ -*----------------------------------*\
| =========                 |                                                 |
| \\      /  F ield         | OpenFOAM: The Open Source CFD Toolbox           |
|  \\    /   O peration     | Version:  3.0.x                                 |
|   \\  /    A nd           | Web:      www.OpenFOAM.org                      |
|    \\/     M anipulation  |                                                 |
\*---------------------------------------------------------------------------*/
FoamFile
{
    version     2.0;
    format      ascii;
    class       surfaceScalarField;
    location    "0.24";
    object      phi;
}
// * * * * * * * * * * * * * * * * * * * * * * * * * * * * * * * * * * * * * //

dimensions      [1 0 -1 0 0 0 0];

internalField   nonuniform List<scalar> 
53800
(
1.97738
0.00102736
1.97613
0.000696124
1.97489
0.000688873
1.97367
0.000690679
1.97247
0.000690624
1.97129
0.000690395
1.97014
0.000690233
1.96902
0.000690076
1.96793
0.000689917
1.96687
0.000689769
1.96585
0.000689637
1.96487
0.000689521
1.96392
0.000689415
1.963
0.000689313
1.96213
0.000689214
1.96128
0.000689115
1.96048
0.000689013
1.9597
0.000688901
1.95895
0.000688772
1.95824
0.000688599
1.95754
0.000688395
1.95687
0.000688058
1.95621
0.000687552
1.95557
0.000686762
1.95494
0.000685524
1.95433
0.000683615
1.95373
0.000680738
1.95313
0.000676519
1.95255
0.000670515
1.95197
0.000662224
1.9514
0.000651127
1.95084
0.000636723
1.9503
0.00061858
1.94977
0.000596391
1.94927
0.000570022
1.94879
0.000539548
1.94833
0.00050528
1.9479
0.000467753
1.94751
0.000427704
1.94715
0.000386026
1.94683
0.000343701
1.94655
0.000301733
1.9463
0.000261076
1.94608
0.000222572
1.94589
0.000186907
1.94573
0.000154575
1.9456
0.00012588
1.94549
0.000100927
1.9454
7.96685e-05
1.94533
6.19078e-05
1.94526
4.73531e-05
1.94521
3.56539e-05
1.94517
2.64049e-05
1.94514
1.92504e-05
1.94511
1.37974e-05
1.94509
9.71814e-06
1.94507
6.71445e-06
1.94505
4.54268e-06
1.94503
2.99756e-06
1.94502
1.91561e-06
1.94501
1.1683e-06
1.945
6.63669e-07
1.94499
3.25956e-07
1.94498
1.00415e-07
1.94497
-4.32046e-08
1.94496
-1.34522e-07
1.94495
-1.91361e-07
1.94495
-2.26362e-07
1.94494
-2.47641e-07
1.94493
-2.60403e-07
1.94492
-2.67923e-07
1.94492
-2.72175e-07
1.94491
-2.74646e-07
1.9449
-2.75781e-07
1.9449
-2.76399e-07
1.94489
-2.76301e-07
1.94488
-2.76003e-07
1.94488
-2.75344e-07
1.94487
-2.74551e-07
1.94486
-2.73547e-07
1.94486
-2.72517e-07
1.94485
-2.71626e-07
1.94484
-2.70873e-07
1.94484
-2.70105e-07
1.94483
-2.68021e-07
1.94482
-2.63644e-07
1.94482
-2.63906e-07
1.94481
-2.55142e-07
1.94481
-2.59544e-07
1.9448
-2.70495e-07
1.9448
-2.71797e-07
1.94479
-2.68577e-07
1.94479
-2.61472e-07
1.94478
-2.54822e-07
1.94478
-2.54164e-07
1.94478
-2.53869e-07
1.94478
-2.55568e-07
1.94477
-2.57074e-07
1.94477
-2.5798e-07
1.94477
-2.58329e-07
1.94477
-2.58373e-07
1.94477
-2.58475e-07
1.94477
-2.58529e-07
1.94477
-2.58704e-07
1.94476
-2.60523e-07
1.94476
-2.62138e-07
1.94476
-2.63168e-07
1.94476
-2.64201e-07
1.94476
-2.65612e-07
1.94476
-2.67031e-07
1.94475
-2.67883e-07
1.94475
-2.69491e-07
1.94475
-2.7147e-07
1.94475
-2.72175e-07
1.94474
-2.73529e-07
1.94474
-2.72299e-07
1.94473
-2.74766e-07
1.94473
-2.7402e-07
1.94473
-2.74042e-07
1.94472
-2.73965e-07
1.94472
-2.73449e-07
1.94472
-2.73147e-07
1.94471
-2.70786e-07
1.94471
-2.70571e-07
1.94471
-2.66798e-07
1.94472
-2.63091e-07
1.94472
-2.59639e-07
1.94473
-2.55761e-07
1.94474
-2.49969e-07
1.94475
-2.44512e-07
1.94477
-2.39459e-07
1.9448
-2.32842e-07
1.94483
-2.21549e-07
1.94487
-2.09424e-07
1.94491
-1.98081e-07
1.94496
-1.87669e-07
1.94502
-1.76649e-07
1.94509
-1.63054e-07
1.94517
-1.48855e-07
1.94526
-1.33081e-07
1.94535
-1.17408e-07
1.94546
-1.01933e-07
1.94558
-8.56089e-08
1.94571
-7.07369e-08
1.94585
-5.48134e-08
1.946
-3.97049e-08
1.94616
-2.54186e-08
1.94633
-1.08303e-08
1.94651
1.08776e-09
1.9467
1.26238e-08
1.94689
2.23881e-08
1.94709
2.8951e-08
1.9473
3.51138e-08
1.94751
3.64998e-08
1.94772
3.64998e-08
1.94793
3.35531e-08
1.94814
2.62553e-08
1.94834
1.81171e-08
1.94854
4.79849e-09
1.94873
-1.15469e-08
1.94891
-2.89838e-08
1.94908
-5.31873e-08
1.94924
-7.74126e-08
1.94938
-1.05334e-07
1.9495
-1.37788e-07
1.94961
-1.68759e-07
1.94969
-2.06262e-07
1.94976
-2.44065e-07
1.9498
-2.80859e-07
1.94981
-3.22281e-07
1.9498
-3.65399e-07
1.94976
-4.40137e-07
1.9497
-4.6453e-07
1.94961
-5.02831e-07
1.9495
-5.44827e-07
1.94936
-5.85234e-07
1.94919
-6.24052e-07
1.94901
-6.60737e-07
1.9488
-6.9501e-07
1.94857
-7.26643e-07
1.94833
-7.55412e-07
1.94806
-7.8095e-07
1.94778
-8.0312e-07
1.94749
-8.22038e-07
1.94719
-8.37361e-07
1.94687
-8.4945e-07
1.94655
-8.57675e-07
1.94623
-8.61059e-07
1.9459
-8.55405e-07
1.94557
-8.17501e-07
1.94523
-6.37803e-07
1.9449
2.25544e-07
1.94457
4.49442e-06
1.94423
2.57381e-05
1.94378
0.000131336
1.94282
0.000653719
1.93932
0.00320449
1.92377
0.0152578
1.84826
0.0752425
0.260291
1.5877
2.27267
0.000991681
2.27204
0.000683752
2.27144
0.000669571
2.27084
0.00067368
2.27027
0.000674076
2.26973
0.000674103
2.26921
0.000674291
2.26873
0.000674495
2.26828
0.000674693
2.26788
0.0006749
2.26751
0.000675123
2.26718
0.000675361
2.2669
0.000675609
2.26665
0.00067586
2.26645
0.000676115
2.26628
0.000676369
2.26616
0.000676618
2.26607
0.000676857
2.26601
0.000677077
2.26599
0.000677246
2.26599
0.000677389
2.26602
0.000677374
2.26606
0.000677182
2.26612
0.000676677
2.2662
0.000675686
2.26629
0.000673969
2.26639
0.00067121
2.26649
0.000667013
2.2666
0.000660914
2.2667
0.000652398
2.26681
0.000640935
2.26691
0.000626025
2.26701
0.000607252
2.2671
0.000584339
2.26718
0.000557199
2.26726
0.000525967
2.26733
0.000491015
2.26739
0.000452946
2.26745
0.000412554
2.26749
0.00037078
2.26753
0.00032863
2.26757
0.000287115
2.26759
0.000247172
2.26761
0.000209609
2.26762
0.00017506
2.26763
0.000143966
2.26763
0.000116568
2.26763
9.29079e-05
2.26762
7.29037e-05
2.26761
5.63063e-05
2.2676
4.28028e-05
2.26758
3.20258e-05
2.26757
2.35648e-05
2.26755
1.70686e-05
2.26754
1.21505e-05
2.26752
8.49608e-06
2.26751
5.82531e-06
2.26749
3.90739e-06
2.26748
2.55253e-06
2.26746
1.61068e-06
2.26745
9.65181e-07
2.26744
5.32626e-07
2.26743
2.45014e-07
2.26741
5.3551e-08
2.2674
-6.76482e-08
2.26739
-1.45046e-07
2.26738
-1.93511e-07
2.26737
-2.23474e-07
2.26737
-2.41758e-07
2.26736
-2.52778e-07
2.26735
-2.59304e-07
2.26734
-2.6308e-07
2.26733
-2.65274e-07
2.26732
-2.66355e-07
2.26731
-2.66969e-07
2.2673
-2.6694e-07
2.26729
-2.66726e-07
2.26729
-2.66169e-07
2.26728
-2.65482e-07
2.26727
-2.64579e-07
2.26726
-2.63633e-07
2.26725
-2.62797e-07
2.26724
-2.62073e-07
2.26723
-2.61258e-07
2.26722
-2.5913e-07
2.26722
-2.54786e-07
2.26721
-2.5484e-07
2.2672
-2.46262e-07
2.26719
-2.50082e-07
2.26719
-2.6069e-07
2.26718
-2.6204e-07
2.26717
-2.58817e-07
2.26717
-2.51883e-07
2.26716
-2.45385e-07
2.26716
-2.44632e-07
2.26716
-2.44305e-07
2.26715
-2.45869e-07
2.26715
-2.47263e-07
2.26715
-2.48099e-07
2.26714
-2.48398e-07
2.26714
-2.4843e-07
2.26714
-2.48529e-07
2.26714
-2.48572e-07
2.26713
-2.48747e-07
2.26713
-2.50508e-07
2.26713
-2.52076e-07
2.26713
-2.53061e-07
2.26712
-2.54058e-07
2.26712
-2.55415e-07
2.26712
-2.56794e-07
2.26711
-2.57656e-07
2.26711
-2.59246e-07
2.2671
-2.6124e-07
2.2671
-2.61989e-07
2.2671
-2.63375e-07
2.26709
-2.62309e-07
2.26708
-2.64798e-07
2.26708
-2.64219e-07
2.26707
-2.64354e-07
2.26707
-2.64434e-07
2.26706
-2.64059e-07
2.26706
-2.63855e-07
2.26705
-2.61767e-07
2.26705
-2.61643e-07
2.26705
-2.58067e-07
2.26705
-2.5456e-07
2.26706
-2.51246e-07
2.26707
-2.47514e-07
2.26708
-2.41886e-07
2.26709
-2.3656e-07
2.26712
-2.31514e-07
2.26714
-2.24863e-07
2.26718
-2.13699e-07
2.26722
-2.017e-07
2.26727
-1.90474e-07
2.26733
-1.8016e-07
2.26739
-1.69246e-07
2.26747
-1.55862e-07
2.26756
-1.4187e-07
2.26766
-1.26387e-07
2.26777
-1.10966e-07
2.2679
-9.57371e-08
2.26803
-7.97263e-08
2.26818
-6.50798e-08
2.26834
-4.94692e-08
2.26851
-3.46226e-08
2.2687
-2.06019e-08
2.26889
-6.31917e-09
2.2691
5.36602e-09
2.26931
1.66256e-08
2.26953
2.61425e-08
2.26976
3.25381e-08
2.27
3.84825e-08
2.27024
3.9814e-08
2.27048
3.97376e-08
2.27072
3.68018e-08
2.27096
2.96386e-08
2.27119
2.16278e-08
2.27142
8.57472e-09
2.27164
-7.45422e-09
2.27185
-2.45418e-08
2.27204
-4.81959e-08
2.27222
-7.19483e-08
2.27238
-9.92186e-08
2.27252
-1.30971e-07
2.27264
-1.61028e-07
2.27274
-1.97841e-07
2.27281
-2.35184e-07
2.27286
-2.71473e-07
2.27287
-3.10156e-07
2.27286
-3.51134e-07
2.27282
-4.2851e-07
2.27274
-4.50284e-07
2.27264
-4.87555e-07
2.27251
-5.28536e-07
2.27234
-5.6799e-07
2.27216
-6.05927e-07
2.27194
-6.41725e-07
2.2717
-6.75191e-07
2.27144
-7.06088e-07
2.27115
-7.34202e-07
2.27085
-7.59137e-07
2.27053
-7.80798e-07
2.27019
-7.99315e-07
2.26984
-8.14249e-07
2.26948
-8.26018e-07
2.26911
-8.33774e-07
2.26873
-8.35487e-07
2.26835
-8.22038e-07
2.26797
-7.45164e-07
2.26758
-3.68029e-07
2.2672
1.49774e-06
2.26682
1.07702e-05
2.26642
5.69393e-05
2.2659
0.000286482
2.26478
0.00142198
2.26068
0.00696781
2.24241
0.0331874
2.15549
0.161851
0.548434
1.86704
2.61061
0.000950691
2.60989
0.000667737
2.6092
0.000646222
2.60852
0.000652212
2.60787
0.000652751
2.60724
0.000652661
2.60665
0.000652837
2.6061
0.000653043
2.6056
0.000653237
2.60513
0.000653438
2.60471
0.000653655
2.60434
0.000653888
2.60402
0.00065413
2.60375
0.000654376
2.60352
0.000654624
2.60334
0.000654873
2.6032
0.000655117
2.60311
0.00065535
2.60305
0.000655566
2.60303
0.000655734
2.60304
0.000655875
2.60308
0.000655865
2.60314
0.000655683
2.60322
0.0006552
2.60332
0.000654246
2.60343
0.000652591
2.60355
0.000649929
2.60368
0.000645875
2.60381
0.000639982
2.60395
0.000631752
2.60408
0.00062067
2.6042
0.000606253
2.60432
0.000588098
2.60443
0.000565937
2.60453
0.000539683
2.60462
0.000509466
2.6047
0.000475647
2.60477
0.000438807
2.60482
0.000399715
2.60487
0.000359278
2.60491
0.000318474
2.60494
0.000278277
2.60496
0.000239597
2.60497
0.000203215
2.60498
0.000169748
2.60498
0.00013962
2.60497
0.000113069
2.60496
9.01365e-05
2.60495
7.07426e-05
2.60493
5.46485e-05
2.60491
4.15514e-05
2.60489
3.10963e-05
2.60487
2.28863e-05
2.60485
1.65811e-05
2.60484
1.18065e-05
2.60482
8.25785e-06
2.6048
5.66368e-06
2.60478
3.80032e-06
2.60476
2.48367e-06
2.60475
1.56812e-06
2.60473
9.40556e-07
2.60472
5.19762e-07
2.6047
2.39954e-07
2.60469
5.36893e-08
2.60468
-6.4294e-08
2.60467
-1.39658e-07
2.60466
-1.86872e-07
2.60464
-2.16063e-07
2.60463
-2.33878e-07
2.60462
-2.44614e-07
2.60461
-2.50973e-07
2.6046
-2.5468e-07
2.60459
-2.56794e-07
2.60458
-2.57871e-07
2.60457
-2.58471e-07
2.60456
-2.58442e-07
2.60455
-2.58235e-07
2.60454
-2.577e-07
2.60453
-2.57023e-07
2.60452
-2.56154e-07
2.60451
-2.55237e-07
2.6045
-2.54433e-07
2.60449
-2.53734e-07
2.60448
-2.5293e-07
2.60447
-2.50879e-07
2.60446
-2.46753e-07
2.60445
-2.46746e-07
2.60444
-2.38608e-07
2.60444
-2.41966e-07
2.60443
-2.5225e-07
2.60442
-2.53705e-07
2.60441
-2.50544e-07
2.60441
-2.43872e-07
2.6044
-2.37618e-07
2.6044
-2.36829e-07
2.60439
-2.36534e-07
2.60439
-2.38048e-07
2.60439
-2.39394e-07
2.60438
-2.40198e-07
2.60438
-2.40478e-07
2.60438
-2.40507e-07
2.60437
-2.40601e-07
2.60437
-2.40649e-07
2.60437
-2.40812e-07
2.60436
-2.42508e-07
2.60436
-2.44028e-07
2.60436
-2.44996e-07
2.60436
-2.45949e-07
2.60435
-2.47273e-07
2.60435
-2.48598e-07
2.60434
-2.49456e-07
2.60434
-2.50981e-07
2.60433
-2.52916e-07
2.60433
-2.53654e-07
2.60432
-2.54971e-07
2.60432
-2.53971e-07
2.60431
-2.56343e-07
2.6043
-2.55812e-07
2.6043
-2.55935e-07
2.60429
-2.56023e-07
2.60429
-2.5567e-07
2.60428
-2.5543e-07
2.60428
-2.53487e-07
2.60427
-2.53331e-07
2.60427
-2.49849e-07
2.60428
-2.46495e-07
2.60428
-2.43261e-07
2.60429
-2.39637e-07
2.6043
-2.34213e-07
2.60432
-2.29076e-07
2.60435
-2.24161e-07
2.60438
-2.17678e-07
2.60442
-2.06899e-07
2.60447
-1.95276e-07
2.60452
-1.84427e-07
2.60459
-1.74434e-07
2.60467
-1.63862e-07
2.60476
-1.50896e-07
2.60486
-1.3733e-07
2.60497
-1.22356e-07
2.6051
-1.07419e-07
2.60524
-9.26702e-08
2.6054
-7.71652e-08
2.60557
-6.29589e-08
2.60575
-4.78685e-08
2.60595
-3.34767e-08
2.60616
-1.98997e-08
2.60639
-6.0827e-09
2.60662
5.26052e-09
2.60687
1.61417e-08
2.60713
2.53604e-08
2.60739
3.15849e-08
2.60766
3.72966e-08
2.60793
3.86171e-08
2.60821
3.85298e-08
2.60849
3.56922e-08
2.60876
2.87764e-08
2.60903
2.09875e-08
2.60929
8.36008e-09
2.60955
-7.17409e-09
2.60978
-2.37378e-08
2.61001
-4.66061e-08
2.61021
-6.96564e-08
2.6104
-9.60172e-08
2.61056
-1.26798e-07
2.6107
-1.55676e-07
2.61081
-1.91507e-07
2.61089
-2.28138e-07
2.61094
-2.63684e-07
2.61096
-2.99053e-07
2.61095
-3.37353e-07
2.6109
-4.17596e-07
2.61081
-4.36085e-07
2.61069
-4.72082e-07
2.61054
-5.11725e-07
2.61035
-5.49935e-07
2.61014
-5.86686e-07
2.60989
-6.21341e-07
2.60961
-6.53719e-07
2.60931
-6.83649e-07
2.60898
-7.1089e-07
2.60863
-7.35014e-07
2.60826
-7.55994e-07
2.60788
-7.73929e-07
2.60747
-7.88343e-07
2.60706
-7.99653e-07
2.60663
-8.06824e-07
2.6062
-8.06569e-07
2.60576
-7.8417e-07
2.60532
-6.62894e-07
2.60488
-6.42431e-08
2.60445
2.90803e-06
2.60401
1.76984e-05
2.60355
9.13697e-05
2.60296
0.000457718
2.60171
0.00227065
2.59715
0.0111366
2.5769
0.0530511
2.4796
0.258784
0.868391
2.15929
2.9988
0.000904798
2.99798
0.000648529
2.99718
0.000619751
2.9964
0.000627516
2.99565
0.000628249
2.99493
0.00062803
2.99426
0.00062819
2.99363
0.000628396
2.99304
0.000628582
2.99251
0.000628775
2.99203
0.000628984
2.99161
0.000629208
2.99123
0.00062944
2.99092
0.000629677
2.99066
0.000629916
2.99045
0.000630155
2.99029
0.00063039
2.99018
0.000630614
2.99012
0.000630823
2.99009
0.000630984
2.99011
0.00063112
2.99015
0.000631112
2.99022
0.000630938
2.99032
0.000630476
2.99043
0.000629562
2.99056
0.000627974
2.9907
0.000625421
2.99085
0.000621531
2.991
0.000615877
2.99115
0.000607976
2.9913
0.000597337
2.99144
0.000583493
2.99158
0.000566055
2.9917
0.000544766
2.99182
0.000519539
2.99192
0.000490499
2.99201
0.00045799
2.99209
0.00042257
2.99216
0.000384976
2.99221
0.000346082
2.99226
0.000306824
2.99229
0.000268143
2.99231
0.000230913
2.99233
0.000195887
2.99233
0.000163658
2.99233
0.000134639
2.99233
0.000109059
2.99231
8.6959e-05
2.9923
6.82642e-05
2.99228
5.27468e-05
2.99226
4.01154e-05
2.99224
3.00292e-05
2.99222
2.2107e-05
2.99219
1.60209e-05
2.99217
1.14109e-05
2.99215
7.98378e-06
2.99213
5.47762e-06
2.99211
3.67696e-06
2.99209
2.40424e-06
2.99207
1.51898e-06
2.99205
9.12045e-07
2.99203
5.04802e-07
2.99202
2.33998e-07
2.992
5.37511e-08
2.99199
-6.05251e-08
2.99198
-1.33528e-07
2.99196
-1.79294e-07
2.99195
-2.07579e-07
2.99194
-2.24856e-07
2.99193
-2.35254e-07
2.99192
-2.41434e-07
2.9919
-2.45036e-07
2.99189
-2.4707e-07
2.99188
-2.48128e-07
2.99187
-2.48707e-07
2.99186
-2.48674e-07
2.99185
-2.48485e-07
2.99183
-2.47968e-07
2.99182
-2.47324e-07
2.99181
-2.46491e-07
2.9918
-2.45611e-07
2.99179
-2.44825e-07
2.99177
-2.44163e-07
2.99176
-2.43366e-07
2.99175
-2.41405e-07
2.99174
-2.3752e-07
2.99173
-2.37433e-07
2.99172
-2.29807e-07
2.99171
-2.32685e-07
2.9917
-2.42591e-07
2.99169
-2.44145e-07
2.99169
-2.41063e-07
2.99168
-2.34682e-07
2.99167
-2.28709e-07
2.99167
-2.27876e-07
2.99166
-2.27617e-07
2.99166
-2.29069e-07
2.99165
-2.3035e-07
2.99165
-2.31128e-07
2.99165
-2.31397e-07
2.99164
-2.31419e-07
2.99164
-2.3151e-07
2.99164
-2.31546e-07
2.99163
-2.3171e-07
2.99163
-2.33333e-07
2.99163
-2.34802e-07
2.99162
-2.35737e-07
2.99162
-2.36661e-07
2.99162
-2.37931e-07
2.99161
-2.39208e-07
2.99161
-2.40037e-07
2.9916
-2.41504e-07
2.99159
-2.43381e-07
2.99159
-2.44087e-07
2.99158
-2.45338e-07
2.99157
-2.44414e-07
2.99157
-2.46655e-07
2.99156
-2.46167e-07
2.99155
-2.4628e-07
2.99154
-2.46368e-07
2.99154
-2.4604e-07
2.99153
-2.45745e-07
2.99153
-2.43963e-07
2.99152
-2.43788e-07
2.99152
-2.40427e-07
2.99153
-2.37211e-07
2.99153
-2.34093e-07
2.99154
-2.30608e-07
2.99156
-2.25391e-07
2.99158
-2.20476e-07
2.99161
-2.15729e-07
2.99165
-2.09431e-07
2.99169
-1.99092e-07
2.99175
-1.87909e-07
2.99181
-1.77486e-07
2.99189
-1.6786e-07
2.99198
-1.57677e-07
2.99208
-1.45199e-07
2.9922
-1.3212e-07
2.99233
-1.17743e-07
2.99248
-1.03351e-07
2.99264
-8.91559e-08
2.99282
-7.42584e-08
2.99302
-6.05396e-08
2.99323
-4.60386e-08
2.99345
-3.21816e-08
2.9937
-1.91139e-08
2.99395
-5.83532e-09
2.99422
5.12591e-09
2.99451
1.55596e-08
2.9948
2.44363e-08
2.9951
3.04426e-08
2.99541
3.59105e-08
2.99573
3.72202e-08
2.99605
3.71037e-08
2.99637
3.43789e-08
2.99668
2.77323e-08
2.99699
2.02272e-08
2.99729
8.08723e-09
2.99758
-6.86487e-09
2.99786
-2.28465e-08
2.99811
-4.48053e-08
2.99835
-6.70698e-08
2.99856
-9.23574e-08
2.99875
-1.22029e-07
2.9989
-1.49521e-07
2.99903
-1.84238e-07
2.99912
-2.20054e-07
2.99918
-2.54724e-07
2.99921
-2.86313e-07
2.99919
-3.21485e-07
2.99913
-4.05053e-07
2.99903
-4.19794e-07
2.9989
-4.54318e-07
2.99872
-4.92415e-07
2.99851
-5.29184e-07
2.99826
-5.64578e-07
2.99798
-5.9792e-07
2.99766
-6.29054e-07
2.99731
-6.5787e-07
2.99694
-6.84107e-07
2.99653
-7.07289e-07
2.99611
-7.27494e-07
2.99566
-7.44767e-07
2.9952
-7.58577e-07
2.99472
-7.69363e-07
2.99423
-7.75857e-07
2.99374
-7.73358e-07
2.99324
-7.40754e-07
2.99273
-5.68783e-07
2.99223
2.82555e-07
2.99172
4.51752e-06
2.99122
2.56044e-05
2.99069
0.000130659
2.99002
0.000653135
2.98859
0.00323943
2.98337
0.015899
2.9603
0.0756869
2.85016
0.368503
1.22367
2.49448
3.44472
0.000853637
3.44378
0.000625451
3.44286
0.00058975
3.44196
0.000599113
3.4411
0.000600089
3.44028
0.000599735
3.4395
0.000599876
3.43877
0.000600082
3.4381
0.00060026
3.43749
0.000600444
3.43694
0.000600643
3.43645
0.000600857
3.43603
0.000601078
3.43566
0.000601304
3.43536
0.000601533
3.43512
0.000601761
3.43494
0.000601985
3.43482
0.0006022
3.43474
0.000602399
3.43472
0.000602554
3.43473
0.000602684
3.43478
0.000602677
3.43486
0.000602512
3.43497
0.000602073
3.4351
0.000601205
3.43525
0.000599694
3.43541
0.000597265
3.43558
0.000593562
3.43575
0.000588178
3.43593
0.000580654
3.4361
0.000570519
3.43626
0.000557327
3.43642
0.000540709
3.43656
0.000520416
3.43669
0.000496364
3.43681
0.00046867
3.43692
0.000437661
3.43701
0.000403868
3.43709
0.000367994
3.43715
0.000330868
3.4372
0.000293388
3.43724
0.000256448
3.43726
0.000220885
3.43728
0.00018742
3.43729
0.000156618
3.43729
0.000128877
3.43728
0.000104417
3.43727
8.32785e-05
3.43725
6.53916e-05
3.43723
5.0541e-05
3.4372
3.84485e-05
3.43718
2.87897e-05
3.43715
2.1201e-05
3.43713
1.53691e-05
3.4371
1.09504e-05
3.43708
7.66435e-06
3.43705
5.26054e-06
3.43703
3.53288e-06
3.437
2.31133e-06
3.43698
1.46136e-06
3.43696
8.78488e-07
3.43694
4.87116e-07
3.43693
2.26823e-07
3.43691
5.35838e-08
3.43689
-5.63341e-08
3.43688
-1.26582e-07
3.43686
-1.70632e-07
3.43685
-1.97857e-07
3.43684
-2.14506e-07
3.43682
-2.24518e-07
3.43681
-2.30477e-07
3.4368
-2.3396e-07
3.43678
-2.35894e-07
3.43677
-2.36936e-07
3.43676
-2.37496e-07
3.43674
-2.37467e-07
3.43673
-2.37287e-07
3.43671
-2.36792e-07
3.4367
-2.36176e-07
3.43669
-2.35395e-07
3.43667
-2.34544e-07
3.43666
-2.33793e-07
3.43665
-2.33165e-07
3.43663
-2.32389e-07
3.43662
-2.30533e-07
3.43661
-2.26888e-07
3.4366
-2.26728e-07
3.43659
-2.19658e-07
3.43657
-2.22068e-07
3.43656
-2.31525e-07
3.43655
-2.33156e-07
3.43655
-2.30166e-07
3.43654
-2.2412e-07
3.43653
-2.18453e-07
3.43652
-2.17602e-07
3.43652
-2.17375e-07
3.43651
-2.18755e-07
3.43651
-2.19969e-07
3.4365
-2.20714e-07
3.4365
-2.20978e-07
3.43649
-2.20985e-07
3.43649
-2.21069e-07
3.43649
-2.21098e-07
3.43648
-2.21267e-07
3.43648
-2.22808e-07
3.43648
-2.24209e-07
3.43647
-2.25116e-07
3.43647
-2.25991e-07
3.43646
-2.27201e-07
3.43646
-2.28427e-07
3.43645
-2.2922e-07
3.43645
-2.30615e-07
3.43644
-2.32421e-07
3.43643
-2.33093e-07
3.43643
-2.34271e-07
3.43642
-2.33424e-07
3.43641
-2.35528e-07
3.4364
-2.35092e-07
3.43639
-2.35186e-07
3.43638
-2.35281e-07
3.43637
-2.34972e-07
3.43637
-2.34641e-07
3.43636
-2.33027e-07
3.43636
-2.32811e-07
3.43636
-2.29602e-07
3.43636
-2.26537e-07
3.43637
-2.23557e-07
3.43638
-2.20232e-07
3.4364
-2.15254e-07
3.43642
-2.10579e-07
3.43646
-2.06024e-07
3.4365
-1.99965e-07
3.43655
-1.90123e-07
3.43661
-1.79438e-07
3.43669
-1.69501e-07
3.43678
-1.60304e-07
3.43688
-1.50563e-07
3.437
-1.38656e-07
3.43713
-1.26149e-07
3.43728
-1.12441e-07
3.43745
-9.86875e-08
3.43764
-8.51232e-08
3.43785
-7.08987e-08
3.43807
-5.77766e-08
3.43831
-4.39595e-08
3.43858
-3.07082e-08
3.43885
-1.82172e-08
3.43915
-5.55701e-09
3.43946
4.94765e-09
3.43979
1.48884e-08
3.44012
2.33595e-08
3.44047
2.91147e-08
3.44083
3.43098e-08
3.44119
3.5594e-08
3.44155
3.54576e-08
3.44192
3.28564e-08
3.44228
2.65372e-08
3.44264
1.93359e-08
3.44298
7.75435e-09
3.44332
-6.5138e-09
3.44363
-2.18242e-08
3.44393
-4.27408e-08
3.4442
-6.40975e-08
3.44444
-8.8161e-08
3.44466
-1.16552e-07
3.44484
-1.42461e-07
3.44498
-1.75891e-07
3.44509
-2.10764e-07
3.44516
-2.44416e-07
3.44518
-2.71693e-07
3.44517
-3.03229e-07
3.4451
-3.90637e-07
3.44498
-4.01102e-07
3.44483
-4.33896e-07
3.44463
-4.70231e-07
3.44438
-5.05353e-07
3.4441
-5.39181e-07
3.44377
-5.71014e-07
3.44341
-6.00718e-07
3.44301
-6.2825e-07
3.44258
-6.53332e-07
3.44211
-6.75434e-07
3.44163
-6.94743e-07
3.44111
-7.1127e-07
3.44058
-7.2438e-07
3.44003
-7.34561e-07
3.43947
-7.40285e-07
3.4389
-7.35245e-07
3.43832
-6.91041e-07
3.43774
-4.61449e-07
3.43717
6.77104e-07
3.43659
6.34722e-06
3.43601
3.45906e-05
3.43541
0.000175318
3.43463
0.000875277
3.433
0.00434106
3.42706
0.0213194
3.40082
0.101424
3.27652
0.492325
1.61717
2.88255
3.95694
0.000796754
3.95586
0.000597715
3.9548
0.000555749
3.95377
0.000566461
3.95278
0.00056772
3.95184
0.000567234
3.95095
0.000567353
3.95011
0.000567558
3.94934
0.000567728
3.94864
0.000567901
3.948
0.000568089
3.94744
0.000568291
3.94696
0.0005685
3.94654
0.000568714
3.94619
0.00056893
3.94592
0.000569146
3.94571
0.000569358
3.94557
0.000569561
3.94548
0.000569749
3.94545
0.000569897
3.94547
0.000570019
3.94553
0.000570014
3.94562
0.00056986
3.94574
0.000569447
3.94589
0.00056863
3.94606
0.000567207
3.94625
0.00056492
3.94644
0.000561429
3.94664
0.000556353
3.94684
0.000549258
3.94704
0.000539698
3.94723
0.000527252
3.94741
0.00051157
3.94757
0.000492414
3.94772
0.000469705
3.94786
0.000443551
3.94798
0.00041426
3.94809
0.00038233
3.94817
0.000348425
3.94825
0.000313328
3.9483
0.000277887
3.94835
0.000242948
3.94838
0.000209301
3.9484
0.00017763
3.94841
0.000148472
3.9484
0.000122204
3.9484
9.90351e-05
3.94838
7.90069e-05
3.94836
6.2054e-05
3.94834
4.79751e-05
3.94831
3.6507e-05
3.94828
2.7344e-05
3.94825
2.01428e-05
3.94822
1.46067e-05
3.94819
1.04107e-05
3.94816
7.28941e-06
3.94813
5.00522e-06
3.94811
3.36297e-06
3.94808
2.20146e-06
3.94806
1.39294e-06
3.94803
8.38379e-07
3.94801
4.6574e-07
3.94799
2.17856e-07
3.94797
5.29126e-08
3.94795
-5.18348e-08
3.94794
-1.18794e-07
3.94792
-1.6082e-07
3.9479
-1.86775e-07
3.94789
-2.02662e-07
3.94787
-2.12212e-07
3.94786
-2.17905e-07
3.94784
-2.21246e-07
3.94783
-2.23066e-07
3.94781
-2.24079e-07
3.9478
-2.24616e-07
3.94778
-2.24592e-07
3.94776
-2.24428e-07
3.94775
-2.23958e-07
3.94773
-2.23368e-07
3.94772
-2.22641e-07
3.9477
-2.21835e-07
3.94769
-2.21117e-07
3.94767
-2.20532e-07
3.94766
-2.19778e-07
3.94764
-2.18026e-07
3.94763
-2.14637e-07
3.94761
-2.14402e-07
3.9476
-2.07955e-07
3.94759
-2.09935e-07
3.94758
-2.18864e-07
3.94756
-2.20536e-07
3.94755
-2.17659e-07
3.94755
-2.11985e-07
3.94754
-2.0667e-07
3.94753
-2.05799e-07
3.94752
-2.056e-07
3.94752
-2.06897e-07
3.94751
-2.0804e-07
3.9475
-2.08744e-07
3.9475
-2.08992e-07
3.9475
-2.09004e-07
3.94749
-2.09082e-07
3.94749
-2.09112e-07
3.94748
-2.09278e-07
3.94748
-2.10718e-07
3.94747
-2.12049e-07
3.94747
-2.12911e-07
3.94747
-2.13743e-07
3.94746
-2.14887e-07
3.94745
-2.16045e-07
3.94745
-2.168e-07
3.94744
-2.1811e-07
3.94743
-2.1983e-07
3.94742
-2.20466e-07
3.94742
-2.2156e-07
3.94741
-2.20798e-07
3.9474
-2.2275e-07
3.94739
-2.22367e-07
3.94738
-2.22449e-07
3.94737
-2.22532e-07
3.94736
-2.22246e-07
3.94735
-2.21887e-07
3.94734
-2.20443e-07
3.94734
-2.20202e-07
3.94734
-2.17157e-07
3.94734
-2.14271e-07
3.94735
-2.11445e-07
3.94737
-2.083e-07
3.94739
-2.03594e-07
3.94741
-1.9919e-07
3.94745
-1.94867e-07
3.9475
-1.89088e-07
3.94756
-1.79826e-07
3.94763
-1.69716e-07
3.94772
-1.60328e-07
3.94782
-1.51625e-07
3.94794
-1.42388e-07
3.94807
-1.31148e-07
3.94823
-1.19293e-07
3.9484
-1.0635e-07
3.9486
-9.33369e-08
3.94881
-8.04966e-08
3.94905
-6.70598e-08
3.94931
-5.46115e-08
3.94959
-4.1573e-08
3.94989
-2.90238e-08
3.95021
-1.72122e-08
3.95055
-5.2496e-09
3.9509
4.71755e-09
3.95128
1.40926e-08
3.95166
2.21062e-08
3.95206
2.75741e-08
3.95247
3.24499e-08
3.95289
3.37004e-08
3.95331
3.35513e-08
3.95373
3.10947e-08
3.95414
2.51366e-08
3.95455
1.82999e-08
3.95495
7.35236e-09
3.95533
-6.12636e-09
3.95569
-2.06683e-08
3.95603
-4.03816e-08
3.95634
-6.07006e-08
3.95662
-8.33406e-08
3.95687
-1.10263e-07
3.95708
-1.34359e-07
3.95724
-1.66299e-07
3.95737
-2.00078e-07
3.95745
-2.32548e-07
3.95748
-2.54914e-07
3.95746
-2.82202e-07
3.95738
-3.74117e-07
3.95725
-3.79608e-07
3.95707
-4.10414e-07
3.95684
-4.4474e-07
3.95655
-4.77969e-07
3.95623
-5.09996e-07
3.95585
-5.40088e-07
3.95544
-5.6815e-07
3.95498
-5.94207e-07
3.95448
-6.17961e-07
3.95395
-6.3883e-07
3.95339
-6.571e-07
3.9528
-6.72786e-07
3.95219
-6.85082e-07
3.95156
-6.94577e-07
3.95092
-6.99426e-07
3.95026
-6.91501e-07
3.9496
-6.34191e-07
3.94893
-3.39491e-07
3.94827
1.12356e-06
3.9476
8.41517e-06
3.94694
4.47445e-05
3.94625
0.000225779
3.94536
0.00112631
3.94351
0.00558639
3.93677
0.0274517
3.90711
0.130517
3.76773
0.631145
2.05099
3.33338
17.2622
0.000570357
17.2575
0.000463069
17.2529
0.000412547
17.2484
0.000423986
17.244
0.000426296
17.2399
0.000425487
17.236
0.000425498
17.2324
0.000425678
17.229
0.000425804
17.226
0.000425928
17.2232
0.000426066
17.2208
0.000426216
17.2186
0.000426371
17.2168
0.000426531
17.2153
0.000426693
17.2141
0.000426855
17.2132
0.000427013
17.2126
0.000427165
17.2122
0.000427307
17.2121
0.000427419
17.2121
0.000427511
17.2124
0.000427511
17.2128
0.000427397
17.2133
0.000427095
17.214
0.000426491
17.2147
0.000425438
17.2155
0.000423745
17.2164
0.000421155
17.2173
0.000417388
17.2181
0.000412119
17.219
0.000405013
17.2198
0.000395756
17.2206
0.000384083
17.2213
0.000369814
17.222
0.000352885
17.2226
0.000333373
17.2231
0.000311503
17.2236
0.000287643
17.2239
0.000262286
17.2243
0.000236016
17.2245
0.000209463
17.2247
0.000183261
17.2248
0.000158005
17.2249
0.000134208
17.225
0.000112277
17.225
9.2498e-05
17.2249
7.50349e-05
17.2249
5.9922e-05
17.2248
4.71136e-05
17.2247
3.64657e-05
17.2245
2.77812e-05
17.2244
2.08333e-05
17.2243
1.53668e-05
17.2242
1.11581e-05
17.224
7.96418e-06
17.2239
5.58515e-06
17.2238
3.84156e-06
17.2237
2.58633e-06
17.2236
1.69699e-06
17.2234
1.07716e-06
17.2233
6.51394e-07
17.2232
3.64604e-07
17.2232
1.73678e-07
17.2231
4.64588e-08
17.223
-3.42829e-08
17.2229
-8.61428e-08
17.2228
-1.18758e-07
17.2228
-1.38916e-07
17.2227
-1.51285e-07
17.2226
-1.58719e-07
17.2226
-1.63162e-07
17.2225
-1.65811e-07
17.2224
-1.67182e-07
17.2224
-1.68017e-07
17.2223
-1.68432e-07
17.2222
-1.68418e-07
17.2222
-1.68314e-07
17.2221
-1.67965e-07
17.222
-1.67514e-07
17.222
-1.66981e-07
17.2219
-1.66374e-07
17.2218
-1.65829e-07
17.2218
-1.65418e-07
17.2217
-1.64838e-07
17.2216
-1.63532e-07
17.2216
-1.61038e-07
17.2215
-1.60613e-07
17.2215
-1.56426e-07
17.2214
-1.57338e-07
17.2213
-1.63884e-07
17.2213
-1.65435e-07
17.2213
-1.63142e-07
17.2212
-1.58969e-07
17.2212
-1.55097e-07
17.2211
-1.54305e-07
17.2211
-1.54207e-07
17.2211
-1.55189e-07
17.2211
-1.56048e-07
17.221
-1.56571e-07
17.221
-1.56757e-07
17.221
-1.56753e-07
17.221
-1.56805e-07
17.221
-1.56832e-07
17.2209
-1.56987e-07
17.2209
-1.58021e-07
17.2209
-1.59027e-07
17.2209
-1.59683e-07
17.2209
-1.60313e-07
17.2208
-1.61168e-07
17.2208
-1.62034e-07
17.2208
-1.6262e-07
17.2208
-1.63578e-07
17.2207
-1.64895e-07
17.2207
-1.65345e-07
17.2206
-1.66124e-07
17.2206
-1.65654e-07
17.2206
-1.67021e-07
17.2205
-1.668e-07
17.2205
-1.66835e-07
17.2204
-1.66891e-07
17.2204
-1.66696e-07
17.2204
-1.66326e-07
17.2203
-1.65434e-07
17.2203
-1.65131e-07
17.2203
-1.62865e-07
17.2203
-1.60712e-07
17.2204
-1.58586e-07
17.2204
-1.56218e-07
17.2205
-1.52696e-07
17.2206
-1.49423e-07
17.2208
-1.46162e-07
17.221
-1.41745e-07
17.2213
-1.34881e-07
17.2216
-1.2729e-07
17.222
-1.20262e-07
17.2224
-1.13718e-07
17.2229
-1.06765e-07
17.2235
-9.83709e-08
17.2242
-8.94352e-08
17.225
-7.97891e-08
17.2258
-7.00043e-08
17.2267
-6.03613e-08
17.2278
-5.03155e-08
17.2289
-4.09104e-08
17.2301
-3.11902e-08
17.2314
-2.1766e-08
17.2328
-1.28703e-08
17.2343
-4.00814e-09
17.2359
3.59705e-09
17.2375
1.05761e-08
17.2392
1.65714e-08
17.2409
2.07219e-08
17.2427
2.42981e-08
17.2445
2.53217e-08
17.2464
2.51493e-08
17.2482
2.32999e-08
17.25
1.88888e-08
17.2518
1.36993e-08
17.2535
5.48425e-09
17.2552
-4.5361e-09
17.2568
-1.56674e-08
17.2582
-3.0142e-08
17.2596
-4.5965e-08
17.2608
-6.23149e-08
17.2619
-8.28959e-08
17.2628
-9.90794e-08
17.2635
-1.24495e-07
17.2641
-1.53281e-07
17.2644
-1.80416e-07
17.2645
-1.82049e-07
17.2645
-1.89897e-07
17.2641
-3.02978e-07
17.2635
-2.85359e-07
17.2628
-3.07811e-07
17.2617
-3.33485e-07
17.2605
-3.58432e-07
17.2591
-3.82606e-07
17.2575
-4.05112e-07
17.2556
-4.25995e-07
17.2536
-4.45641e-07
17.2515
-4.63549e-07
17.2492
-4.79078e-07
17.2467
-4.92782e-07
17.2441
-5.04808e-07
17.2415
-5.13554e-07
17.2387
-5.20102e-07
17.2359
-5.21261e-07
17.2331
-5.01467e-07
17.2302
-3.90529e-07
17.2273
1.70567e-07
17.2244
2.96224e-06
17.2215
1.68925e-05
17.2186
8.63294e-05
17.2156
0.000432417
17.2118
0.00215422
17.204
0.0106813
17.1764
0.0524195
17.0556
0.248883
16.5375
1.14681
3.74382
14.8423
17.2621
0.00036793
17.2575
0.000314895
17.2528
0.00027356
17.2484
0.000282033
17.244
0.000284427
17.2399
0.000283668
17.236
0.00028363
17.2324
0.00028377
17.229
0.000283859
17.226
0.000283943
17.2232
0.000284038
17.2207
0.00028414
17.2186
0.000284245
17.2168
0.000284353
17.2153
0.000284462
17.2141
0.000284571
17.2132
0.000284677
17.2126
0.000284779
17.2122
0.000284874
17.2121
0.00028495
17.2121
0.000285011
17.2124
0.000285012
17.2128
0.000284939
17.2133
0.00028474
17.214
0.000284343
17.2147
0.000283649
17.2155
0.000282532
17.2164
0.000280821
17.2173
0.000278331
17.2181
0.000274845
17.219
0.000270141
17.2198
0.000264008
17.2206
0.000256269
17.2213
0.000246804
17.222
0.000235567
17.2226
0.000222607
17.2231