/*--------------------------------*- C++ -*----------------------------------*\
| =========                 |                                                 |
| \\      /  F ield         | OpenFOAM: The Open Source CFD Toolbox           |
|  \\    /   O peration     | Version:  3.0.x                                 |
|   \\  /    A nd           | Web:      www.OpenFOAM.org                      |
|    \\/     M anipulation  |                                                 |
\*---------------------------------------------------------------------------*/
FoamFile
{
    version     2.0;
    format      ascii;
    class       surfaceScalarField;
    location    "0.14";
    object      phi;
}
// * * * * * * * * * * * * * * * * * * * * * * * * * * * * * * * * * * * * * //

dimensions      [1 0 -1 0 0 0 0];

internalField   nonuniform List<scalar> 
12415
(
5.75966
0.000327788
5.75672
0.000234858
5.75379
0.000225276
5.75088
0.000226993
5.74798
0.000227404
5.74511
0.000227265
5.74228
0.00022724
5.73951
0.000227445
5.73679
0.000227388
5.73414
0.000227458
5.73156
0.000227305
5.72904
0.000226905
5.72659
0.00022605
5.72423
0.000224452
5.72195
0.00022191
5.71976
0.000217793
5.71766
0.000211959
5.71567
0.000203976
5.71378
0.000193666
5.71201
0.000181012
5.71034
0.000166211
5.70877
0.000149674
5.70732
0.000131983
5.70596
0.000113829
5.7047
9.59277e-05
5.70353
7.89362e-05
5.70244
6.33886e-05
5.70143
4.96551e-05
5.70047
3.79295e-05
5.69957
2.82413e-05
5.69871
2.04862e-05
5.69788
1.44657e-05
5.69707
9.92837e-06
5.69628
6.6055e-06
5.6955
4.23887e-06
5.69471
2.59837e-06
5.6939
1.49094e-06
5.69309
7.62951e-07
5.69225
2.94887e-07
5.69138
2.57933e-09
5.69048
-1.74901e-07
5.68954
-2.80756e-07
5.68857
-3.41915e-07
5.68756
-3.7638e-07
5.68651
-3.95337e-07
5.68542
-4.05631e-07
5.6843
-4.11323e-07
5.68313
-4.14771e-07
5.68193
-4.17322e-07
5.6807
-4.19657e-07
5.67944
-4.22189e-07
5.67815
-4.25141e-07
5.67684
-4.28567e-07
5.67551
-4.32561e-07
5.67417
-4.37012e-07
5.67282
-4.41949e-07
5.67147
-4.47293e-07
5.67011
-4.52983e-07
5.66876
-4.58962e-07
5.66741
-4.65174e-07
5.66608
-4.71877e-07
5.66475
-4.78163e-07
5.66344
-4.83707e-07
5.66214
-4.88169e-07
5.66086
-4.92571e-07
5.65959
-4.97921e-07
5.65833
-5.03325e-07
5.65708
-5.06854e-07
5.65584
-5.1288e-07
5.65461
-5.16877e-07
5.65338
-5.19462e-07
5.65215
-5.2002e-07
5.65091
-5.19574e-07
5.64967
-5.19281e-07
5.6484
-5.19027e-07
5.64712
-5.18485e-07
5.64582
-5.17623e-07
5.64449
-5.16495e-07
5.64314
-5.15101e-07
5.64175
-5.13737e-07
5.64033
-5.12495e-07
5.63888
-5.1152e-07
5.6374
-5.10981e-07
5.63588
-5.11145e-07
5.63434
-5.12326e-07
5.63277
-5.15027e-07
5.63117
-5.19534e-07
5.62956
-5.19498e-07
5.62793
-5.20871e-07
5.6263
-5.24948e-07
5.62467
-5.35423e-07
5.62304
-5.48889e-07
5.62142
-5.60503e-07
5.61982
-5.70833e-07
5.61824
-5.82097e-07
5.61669
-5.94981e-07
5.61517
-6.09132e-07
5.61368
-6.24197e-07
5.61223
-6.39868e-07
5.61082
-6.55838e-07
5.60945
-6.7192e-07
5.60811
-6.87893e-07
5.6068
-7.03569e-07
5.60551
-7.1869e-07
5.60425
-7.33147e-07
5.603
-7.46688e-07
5.60176
-7.59313e-07
5.60052
-7.70808e-07
5.59927
-7.81009e-07
5.598
-7.86411e-07
5.5967
-7.82544e-07
5.59537
-8.18392e-07
5.59399
-8.17692e-07
5.59256
-8.15935e-07
5.59108
-8.15897e-07
5.58953
-8.15911e-07
5.58791
-8.15759e-07
5.58622
-8.16097e-07
5.58445
-8.15866e-07
5.58261
-8.1446e-07
5.58068
-8.12232e-07
5.57868
-8.09336e-07
5.57661
-8.06516e-07
5.57446
-8.0107e-07
5.57226
-7.99413e-07
5.57
-7.95406e-07
5.56769
-7.92837e-07
5.56535
-7.91189e-07
5.56299
-7.90624e-07
5.56061
-7.84326e-07
5.55824
-7.77905e-07
5.55589
-7.84174e-07
5.55357
-7.91566e-07
5.55129
-7.94864e-07
5.54907
-7.96552e-07
5.54692
-7.99162e-07
5.54486
-8.04263e-07
5.54288
-8.10163e-07
5.541
-8.1697e-07
5.53923
-8.23087e-07
5.53756
-8.31242e-07
5.536
-8.38838e-07
5.53455
-8.45868e-07
5.53321
-8.53348e-07
5.53197
-8.60875e-07
5.53083
-8.68298e-07
5.52978
-8.74648e-07
5.52882
-8.81006e-07
5.52793
-8.8563e-07
5.52711
-8.90237e-07
5.52634
-9.21566e-07
5.52562
-9.13022e-07
5.52493
-9.09253e-07
5.52425
-9.15203e-07
5.52357
-9.29062e-07
5.52289
-9.18149e-07
5.52217
-9.19779e-07
5.52142
-9.26155e-07
5.52061
-9.32201e-07
5.51973
-9.33833e-07
5.51877
-9.31888e-07
5.51772
-9.29223e-07
5.51658
-9.27079e-07
5.51534
-9.24578e-07
5.51401
-9.21935e-07
5.51258
-9.19807e-07
5.51106
-9.17902e-07
5.50946
-9.16021e-07
5.50779
-9.15226e-07
5.50606
-9.14812e-07
5.50428
-9.14941e-07
5.50248
-9.16416e-07
5.50067
-9.17678e-07
5.49886
-9.20007e-07
5.49706
-9.21909e-07
5.49529
-9.24505e-07
5.49356
-9.26062e-07
5.49186
-9.27021e-07
5.49022
-9.27892e-07
5.48862
-9.25818e-07
5.48708
-9.2554e-07
5.48559
-9.20709e-07
5.48417
-9.18819e-07
5.4828
-9.10652e-07
5.4815
-9.10804e-07
5.48027
-8.98215e-07
5.47913
-9.05749e-07
5.47807
-8.80593e-07
5.4771
-8.91034e-07
5.47622
-8.76096e-07
5.47544
-8.64553e-07
5.47474
-7.70196e-07
5.4741
-2.22813e-07
5.47352
3.68087e-06
5.47296
3.07977e-05
5.47223
0.00022023
5.47019
0.00154102
5.45892
0.0107655
5.37319
0.0852121
0.417055
4.95561
11.5201
0.000260441
11.5147
0.000214867
11.5093
0.000190623
11.5039
0.00019439
11.4986
0.000195546
11.4934
0.000195026
11.4882
0.000194903
11.4832
0.000195061
11.4782
0.000195048
11.4734
0.000195102
11.4687
0.000194986
11.4642
0.000194665
11.4598
0.000193957
11.4555
0.000192634
11.4514
0.000190479
11.4475
0.000187019
11.4438
0.000182074
11.4402
0.000175297
11.4369
0.000166521
11.4337
0.000155728
11.4307
0.000143082
11.4279
0.00012893
11.4253
0.000113768
11.4228
9.81882e-05
11.4205
8.28061e-05
11.4183
6.81885e-05
11.4163
5.47985e-05
11.4143
4.29584e-05
11.4125
3.28393e-05
11.4108
2.44704e-05
11.4091
1.77651e-05
11.4075
1.25549e-05
11.4059
8.62471e-06
11.4043
5.74398e-06
11.4027
3.69056e-06
11.4012
2.26613e-06
11.3996
1.3041e-06
11.3979
6.72492e-07
11.3963
2.63043e-07
11.3945
8.6211e-09
11.3927
-1.45013e-07
11.3908
-2.37825e-07
11.3889
-2.91435e-07
11.3869
-3.21689e-07
11.3848
-3.38342e-07
11.3826
-3.47387e-07
11.3803
-3.52385e-07
11.378
-3.55409e-07
11.3756
-3.57634e-07
11.3731
-3.59662e-07
11.3706
-3.61842e-07
11.368
-3.64381e-07
11.3654
-3.67328e-07
11.3628
-3.70745e-07
11.3601
-3.7457e-07
11.3574
-3.78799e-07
11.3547
-3.83387e-07
11.352
-3.88273e-07
11.3493
-3.93406e-07
11.3466
-3.98747e-07
11.3439
-4.04457e-07
11.3412
-4.09921e-07
11.3386
-4.14587e-07
11.336
-4.18433e-07
11.3334
-4.22231e-07
11.3309
-4.26758e-07
11.3284
-4.31384e-07
11.3259
-4.34589e-07
11.3234
-4.39257e-07
11.3209
-4.43196e-07
11.3185
-4.45239e-07
11.316
-4.45681e-07
11.3135
-4.45346e-07
11.311
-4.45077e-07
11.3085
-4.44852e-07
11.306
-4.44389e-07
11.3034
-4.43645e-07
11.3007
-4.42682e-07
11.298
-4.41502e-07
11.2952
-4.40323e-07
11.2924
-4.39268e-07
11.2895
-4.38443e-07
11.2865
-4.37988e-07
11.2835
-4.38134e-07
11.2804
-4.39151e-07
11.2772
-4.41422e-07
11.274
-4.45078e-07
11.2708
-4.45728e-07
11.2676
-4.46078e-07
11.2643
-4.50044e-07
11.261
-4.58973e-07
11.2578
-4.70313e-07
11.2545
-4.80392e-07
11.2513
-4.89317e-07
11.2482
-4.98966e-07
11.2451
-5.09998e-07
11.242
-5.22127e-07
11.239
-5.35038e-07
11.2361
-5.48474e-07
11.2333
-5.62172e-07
11.2306
-5.75953e-07
11.2279
-5.89648e-07
11.2253
-6.03075e-07
11.2227
-6.16034e-07
11.2202
-6.28416e-07
11.2177
-6.40043e-07
11.2152
-6.50845e-07
11.2127
-6.60692e-07
11.2102
-6.69245e-07
11.2076
-6.73764e-07
11.205
-6.72747e-07
11.2024
-6.99434e-07
11.1996
-7.01162e-07
11.1968
-6.99572e-07
11.1938
-6.99444e-07
11.1907
-6.99357e-07
11.1875
-6.99281e-07
11.1841
-6.99514e-07
11.1805
-6.99333e-07
11.1768
-6.98147e-07
11.173
-6.96236e-07
11.169
-6.93765e-07
11.1648
-6.91164e-07
11.1605
-6.87059e-07
11.1561
-6.85076e-07
11.1516
-6.8178e-07
11.147
-6.79686e-07
11.1423
-6.78206e-07
11.1376
-6.77367e-07
11.1328
-6.72701e-07
11.1281
-6.67025e-07
11.1234
-6.71594e-07
11.1187
-6.7859e-07
11.1142
-6.81431e-07
11.1097
-6.82787e-07
11.1054
-6.85104e-07
11.1013
-6.89386e-07
11.0974
-6.94504e-07
11.0936
-7.00272e-07
11.09
-7.05747e-07
11.0867
-7.12395e-07
11.0836
-7.18758e-07
11.0807
-7.25385e-07
11.078
-7.31642e-07
11.0755
-7.37928e-07
11.0732
-7.44277e-07
11.0711
-7.49777e-07
11.0692
-7.55098e-07
11.0674
-7.59261e-07
11.0658
-7.64371e-07
11.0642
-7.87049e-07
11.0628
-7.84051e-07
11.0614
-7.79756e-07
11.0601
-7.84493e-07
11.0587
-7.95248e-07
11.0573
-7.89013e-07
11.0559
-7.8733e-07
11.0544
-7.93758e-07
11.0528
-7.99139e-07
11.051
-8.00417e-07
11.0491
-7.98816e-07
11.047
-7.9657e-07
11.0447
-7.9469e-07
11.0422
-7.92595e-07
11.0395
-7.90333e-07
11.0367
-7.88476e-07
11.0336
-7.86869e-07
11.0304
-7.85296e-07
11.0271
-7.84542e-07
11.0236
-7.84235e-07
11.0201
-7.84403e-07
11.0165
-7.85531e-07
11.0128
-7.87427e-07
11.0092
-7.87893e-07
11.0056
-7.9123e-07
11.0021
-7.91531e-07
10.9986
-7.9503e-07
10.9952
-7.93502e-07
10.9919
-7.95886e-07
10.9887
-7.92878e-07
10.9857
-7.93749e-07
10.9827
-7.88065e-07
10.9798
-7.905e-07
10.9771
-7.75464e-07
10.9745
-7.88316e-07
10.972
-7.57216e-07
10.9697
-7.93346e-07
10.9676
-7.38694e-07
10.9657
-7.76227e-07
10.9639
-7.39814e-07
10.9623
-7.17291e-07
10.9609
-4.49955e-07
10.9597
1.14779e-06
10.9585
1.26847e-05
10.9574
9.29111e-05
10.9559
0.000653504
10.9519
0.00456146
10.93
0.0316894
10.7895
0.22463
1.0472
10.1583
138.24
-0.000260441
138.176
-0.000214867
138.111
-0.000190623
138.047
-0.00019439
137.983
-0.000195546
137.921
-0.000195026
137.859
-0.000194903
137.798
-0.000195061
137.738
-0.000195048
137.681
-0.000195102
137.625
-0.000194986
137.57
-0.000194665
137.517
-0.000193957
137.466
-0.000192634
137.417
-0.000190479
137.37
-0.000187019
137.325
-0.000182074
137.283
-0.000175297
137.242
-0.000166521
137.204
-0.000155728
137.168
-0.000143082
137.135
-0.00012893
137.103
-0.000113768
137.074
-9.81882e-05
137.046
-8.28061e-05
137.02
-6.81885e-05
136.995
-5.47985e-05
136.972
-4.29584e-05
136.95
-3.28393e-05
136.929
-2.44704e-05
136.909
-1.77651e-05
136.89
-1.25549e-05
136.871
-8.62471e-06
136.852
-5.74397e-06
136.833
-3.69056e-06
136.814
-2.26613e-06
136.795
-1.30411e-06
136.775
-6.72497e-07
136.755
-2.63043e-07
136.734
-8.62315e-09
136.713
1.45012e-07
136.69
2.37822e-07
136.667
2.9143e-07
136.643
3.2169e-07
136.617
3.38345e-07
136.591
3.47388e-07
136.564
3.52388e-07
136.536
3.55411e-07
136.507
3.57632e-07
136.478
3.59658e-07
136.447
3.61843e-07
136.417
3.6438e-07
136.385
3.67328e-07
136.353
3.70744e-07
136.321
3.7457e-07
136.289
3.78797e-07
136.256
3.83387e-07
136.224
3.88271e-07
136.191
3.93406e-07
136.159
3.98744e-07
136.127
4.04456e-07
136.095
4.09919e-07
136.063
4.14587e-07
136.032
4.18431e-07
136.001
4.22231e-07
135.971
4.26759e-07
135.941
4.31381e-07
135.911
4.34586e-07
135.881
4.39257e-07
135.851
4.432e-07
135.822
4.45238e-07
135.792
4.45685e-07
135.762
4.45345e-07
135.733
4.45069e-07
135.702
4.44847e-07
135.671
4.44385e-07
135.64
4.4364e-07
135.608
4.4268e-07
135.576
4.41501e-07
135.542
4.40322e-07
135.508
4.39271e-07
135.474
4.38446e-07
135.438
4.37987e-07
135.402
4.38134e-07
135.364
4.39147e-07
135.327
4.41421e-07
135.288
4.45081e-07
135.25
4.45732e-07
135.211
4.46079e-07
135.172
4.50045e-07
135.132
4.58972e-07
135.093
4.70319e-07
135.054
4.80394e-07
135.016
4.89315e-07
134.978
4.98967e-07
134.941
5.09995e-07
134.904
5.22129e-07
134.868
5.35039e-07
134.834
5.48474e-07
134.8
5.62171e-07
134.767
5.75952e-07
134.735
5.89647e-07
134.703
6.03078e-07
134.672
6.16037e-07
134.642
6.28418e-07
134.612
6.40043e-07
134.582
6.50847e-07
134.552
6.60692e-07
134.522
6.69246e-07
134.492
6.73763e-07
134.461
6.72748e-07
134.429
6.9943e-07
134.396
7.01158e-07
134.361
6.99569e-07
134.326
6.99441e-07
134.288
6.99355e-07
134.25
6.99283e-07
134.209
6.99514e-07
134.166
6.99333e-07
134.122
6.9815e-07
134.076
6.96236e-07
134.028
6.93767e-07
133.978
6.91163e-07
133.927
6.87059e-07
133.874
6.85076e-07
133.819
6.81777e-07
133.764
6.79686e-07
133.708
6.78206e-07
133.651
6.77368e-07
133.594
6.72702e-07
133.537
6.67025e-07
133.481
6.71592e-07
133.425
6.78592e-07
133.37
6.81431e-07
133.317
6.82786e-07
133.265
6.85102e-07
133.216
6.89388e-07
133.168
6.94506e-07
133.123
7.00272e-07
133.081
7.0575e-07
133.041
7.12398e-07
133.003
7.18757e-07
132.968
7.25384e-07
132.936
7.31642e-07
132.906
7.37928e-07
132.879
7.44275e-07
132.854
7.49779e-07
132.831
7.551e-07
132.809
7.59263e-07
132.789
7.64372e-07
132.771
7.87053e-07
132.754
7.8405e-07
132.737
7.79755e-07
132.721
7.84494e-07
132.704
7.95248e-07
132.688
7.89015e-07
132.671
7.8733e-07
132.653
7.93758e-07
132.633
7.99138e-07
132.612
8.00418e-07
132.589
7.98817e-07
132.564
7.9657e-07
132.536
7.94691e-07
132.507
7.92597e-07
132.475
7.9033e-07
132.44
7.8847e-07
132.404
7.8688e-07
132.365
7.85283e-07
132.325
7.84591e-07
132.284
7.84197e-07
132.241
7.84484e-07
132.198
7.8534e-07
132.154
7.86742e-07
132.111
7.88467e-07
132.068
7.90562e-07
132.025
7.92386e-07
131.983
7.93927e-07
131.943
7.94767e-07
131.903
7.94841e-07
131.865
7.94711e-07
131.828
7.8982e-07
131.792
7.94505e-07
131.758
7.79097e-07
131.725
7.92611e-07
131.694
7.58803e-07
131.664
8.16407e-07
131.637
6.8442e-07
131.611
8.81553e-07
131.588
6.45256e-07
131.567
8.64972e-07
131.548
7.06105e-07
131.531
1.18112e-06
131.516
3.11927e-06
131.502
1.84237e-05
131.489
0.000125844
131.477
0.00089213
131.463
0.00636041
131.437
0.045573
131.288
0.361582
1.54293
130.779
11.5201
-0.000327788
11.5147
-0.000234858
11.5093
-0.000225276
11.5039
-0.000226993
11.4986
-0.000227404
11.4934
-0.000227265
11.4882
-0.00022724
11.4832
-0.000227445
11.4782
-0.000227388
11.4734
-0.000227458
11.4687
-0.000227305
11.4642
-0.000226905
11.4598
-0.00022605
11.4555
-0.000224452
11.4514
-0.00022191
11.4475
-0.000217793
11.4438
-0.000211959
11.4402
-0.000203976
11.4369
-0.000193666
11.4337
-0.000181012
11.4307
-0.000166211
11.4279
-0.000149674
11.4253
-0.000131983
11.4228
-0.000113829
11.4205
-9.59277e-05
11.4183
-7.89362e-05
11.4163
-6.33886e-05
11.4143
-4.9655e-05
11.4125
-3.79295e-05
11.4108
-2.82413e-05
11.4091
-2.04862e-05
11.4075
-1.44657e-05
11.4059
-9.92836e-06
11.4043
-6.6055e-06
11.4027
-4.23887e-06
11.4012
-2.59837e-06
11.3996
-1.49095e-06
11.3979
-7.62953e-07
11.3963
-2.94887e-07
11.3945
-2.57569e-09
11.3927
1.74899e-07
11.3908
2.80756e-07
11.3889
3.41914e-07
11.3869
3.7638e-07
11.3848
3.95339e-07
11.3826
4.05631e-07
11.3803
4.11323e-07
11.378
4.14771e-07
11.3756
4.17322e-07
11.3731
4.19654e-07
11.3706
4.22191e-07
11.368
4.25141e-07
11.3654
4.28567e-07
11.3628
4.32561e-07
11.3601
4.37012e-07
11.3574
4.41947e-07
11.3547
4.47293e-07
11.352
4.52983e-07
11.3493
4.58964e-07
11.3466
4.65172e-07
11.3439
4.71877e-07
11.3412
4.7816e-07
11.3386
4.83707e-07
11.336
4.88169e-07
11.3334
4.92573e-07
11.3309
4.97925e-07
11.3284
5.03325e-07
11.3259
5.06852e-07
11.3234
5.12879e-07
11.3209
5.16879e-07
11.3185
5.19462e-07
11.316
5.20022e-07
11.3135
5.19572e-07
11.311
5.19278e-07
11.3085
5.19025e-07
11.306
5.18485e-07
11.3034
5.17621e-07
11.3007
5.16495e-07
11.298
5.151e-07
11.2952
5.13734e-07
11.2924
5.12498e-07
11.2895
5.11522e-07
11.2865
5.1098e-07
11.2835
5.11145e-07
11.2804
5.12322e-07
11.2772
5.15027e-07
11.274
5.19536e-07
11.2708
5.195e-07
11.2676
5.20873e-07
11.2643
5.24948e-07
11.261
5.35427e-07
11.2578
5.48893e-07
11.2545
5.60505e-07
11.2513
5.70835e-07
11.2482
5.82097e-07
11.2451
5.94977e-07
11.242
6.0913e-07
11.239
6.24195e-07
11.2361
6.39866e-07
11.2333
6.5584e-07
11.2306
6.7192e-07
11.2279
6.87894e-07
11.2253
7.03572e-07
11.2227
7.1869e-07
11.2202
7.33147e-07
11.2177
7.46686e-07
11.2152
7.59313e-07
11.2127
7.70808e-07
11.2102
7.81007e-07
11.2076
7.86409e-07
11.205
7.82544e-07
11.2024
8.18391e-07
11.1996
8.1769e-07
11.1968
8.15933e-07
11.1938
8.15893e-07
11.1907
8.1591e-07
11.1875
8.1576e-07
11.1841
8.16097e-07
11.1805
8.15866e-07
11.1768
8.14462e-07
11.173
8.1223e-07
11.169
8.09336e-07
11.1648
8.06514e-07
11.1605
8.01068e-07
11.1561
7.99413e-07
11.1516
7.95404e-07
11.147
7.92837e-07
11.1423
7.91189e-07
11.1376
7.90624e-07
11.1328
7.84326e-07
11.1281
7.77905e-07
11.1234
7.84174e-07
11.1187
7.91564e-07
11.1142
7.94862e-07
11.1097
7.96552e-07
11.1054
7.99162e-07
11.1013
8.04263e-07
11.0974
8.10165e-07
11.0936
8.16972e-07
11.09
8.23089e-07
11.0867
8.31244e-07
11.0836
8.38836e-07
11.0807
8.45868e-07
11.078
8.5335e-07
11.0755
8.60879e-07
11.0732
8.68295e-07
11.0711
8.74648e-07
11.0692
8.81006e-07
11.0674
8.8563e-07
11.0658
8.90237e-07
11.0642
9.21571e-07
11.0628
9.13022e-07
11.0614
9.09251e-07
11.0601
9.15203e-07
11.0587
9.29063e-07
11.0573
9.18148e-07
11.0559
9.19777e-07
11.0544
9.26155e-07
11.0528
9.32199e-07
11.051
9.33833e-07
11.0491
9.31888e-07
11.047
9.29223e-07
11.0447
9.27081e-07
11.0422
9.2458e-07
11.0395
9.21935e-07
11.0367
9.19797e-07
11.0336
9.17917e-07
11.0304
9.1599e-07
11.0271
9.15292e-07
11.0236
9.14717e-07
11.0201
9.15115e-07
11.0165
9.16112e-07
11.0128
9.17777e-07
11.0092
9.19743e-07
11.0056
9.22215e-07
11.0021
9.24289e-07
10.9986
9.26111e-07
10.9952
9.27213e-07
10.9919
9.27481e-07
10.9887
9.26786e-07
10.9857
9.23787e-07
10.9827
9.2311e-07
10.9798
9.1505e-07
10.9771
9.16149e-07
10.9745
9.01277e-07
10.972
9.17809e-07
10.9697
8.69441e-07
10.9676
9.28332e-07
10.9657
8.47256e-07
10.9639
9.18069e-07
10.9623
8.611e-07
10.9609
1.01733e-06
10.9597
1.66934e-06
10.9585
6.85307e-06
10.9575
4.32837e-05
10.9571
0.000303526
10.9603
0.00217732
10.9887
0.0161727
11.1725
0.176754
0.669115
12.0452
5.75966
5.75672
5.75379
5.75088
5.74798
5.74511
5.74228
5.73951
5.73679
5.73414
5.73156
5.72904
5.72659
5.72423
5.72195
5.71976
5.71766
5.71567
5.71378
5.71201
5.71034
5.70877
5.70732
5.70596
5.7047
5.70353
5.70244
5.70143
5.70047
5.69957
5.69871
5.69788
5.69707
5.69628
5.6955
5.69471
5.6939
5.69309
5.69225
5.69138
5.69048
5.68954
5.68857
5.68756
5.68651
5.68542
5.6843
5.68313
5.68193
5.6807
5.67944
5.67815
5.67684
5.67551
5.67417
5.67282
5.67147
5.67011
5.66876
5.66741
5.66608
5.66475
5.66344
5.66214
5.66086
5.65959
5.65833
5.65708
5.65584
5.65461
5.65338
5.65215
5.65091
5.64967
5.6484
5.64712
5.64582
5.64449
5.64314
5.64175
5.64033
5.63888
5.6374
5.63588
5.63434
5.63277
5.63117
5.62956
5.62793
5.6263
5.62467
5.62304
5.62142
5.61982
5.61824
5.61669
5.61517
5.61368
5.61223
5.61082
5.60945
5.60811
5.6068
5.60551
5.60425
5.603
5.60176
5.60052
5.59927
5.598
5.5967
5.59537
5.59399
5.59256
5.59108
5.58953
5.58791
5.58622
5.58445
5.58261
5.58068
5.57868
5.57661
5.57446
5.57226
5.57
5.56769
5.56535
5.56299
5.56061
5.55824
5.55589
5.55357
5.55129
5.54907
5.54692
5.54486
5.54288
5.541
5.53923
5.53756
5.536
5.53455
5.53321
5.53197
5.53083
5.52978
5.52882
5.52793
5.52711
5.52634
5.52562
5.52493
5.52425
5.52357
5.52289
5.52217
5.52142
5.52061
5.51973
5.51877
5.51772
5.51658
5.51534
5.51401
5.51258
5.51106
5.50946
5.50779
5.50606
5.50428
5.50248
5.50067
5.49886
5.49706
5.49529
5.49356
5.49186
5.49022
5.48862
5.48708
5.48559
5.48417
5.4828
5.4815
5.48027
5.47913
5.47807
5.4771
5.47622
5.47544
5.47474
5.4741
5.47353
5.47304
5.47284
5.47452
5.49019
5.66643
6.33501
4.83563
0.119838
4.84309
-0.00759628
4.8403
0.00265042
4.84571
-0.00553515
4.85869
-0.013094
4.86687
-0.00825668
4.86278
0.00412967
4.88474
-0.0217619
5.0214
-0.136566
5.24605
-0.224963
5.44836
-0.203024
5.4861
-0.0387262
5.41422
0.0711931
5.28552
0.128345
5.11878
0.166526
4.97091
0.14794
4.97528
-0.00344264
5.31372
-0.336657
5.9813
-0.666151
-1.18482
7.16625
10.1095
0.16839
10.1278
-0.0261677
10.1746
-0.044367
10.2296
-0.060781
10.2941
-0.0778865
10.3511
-0.0653253
10.3824
-0.0271562
10.4526
-0.0915162
10.7386
-0.422374
11.2149
-0.701984
11.6861
-0.675689
11.8628
-0.217236
11.819
0.11382
11.6318
0.315032
11.3058
0.49223
10.9114
0.542688
10.6769
0.23282
11.0089
-0.664779
11.8867
-1.54172
-3.03899
13.7407
130.827
0.11775
130.893
-0.0946192
130.888
-0.0416922
130.724
0.10019
130.417
0.226835
130.045
0.303484
129.658
0.359109
129.215
0.346263
128.411
0.38086
127.357
0.348218
126.332
0.348952
125.795
0.319461
125.619
0.287135
125.676
0.254643
125.941
0.222616
126.289
0.190169
126.359
0.155842
125.571
0.114882
123.977
0.0482498
-0.143644
121.08
11.9905
0.172384
11.9007
-0.00497572
11.8634
-0.00455023
11.9376
0.0258034
12.1079
0.0562952
12.3321
0.0790858
12.5933
0.0970969
12.842
0.0979058
13.1146
0.107529
13.3623
0.100768
13.6121
0.0988914
13.8427
0.0886333
14.0539
0.0758703
14.2461
0.0622381
14.4201
0.0484772
14.576
0.0342155
14.7145
0.0172812
14.8388
-0.00951021
14.9511
-0.0640414
-0.235133
15.0424
6.50732
6.50227
6.49764
6.52336
6.57956
6.65853
6.75534
6.85327
6.96057
7.06137
7.16018
7.24872
7.32452
7.38671
7.43514
7.46932
7.48657
7.47703
7.41294
7.17775
7.4784
-0.317556
7.26577
0.211586
7.36675
-0.09982
7.55153
-0.184328
7.6279
-0.0767259
7.62699
0.000978754
7.61107
0.0160352
7.61423
-0.00311049
7.62599
-0.0119177
7.63008
-0.00429784
7.63066
-0.000782888
7.63936
-0.00892738
7.65437
-0.0153729
7.66533
-0.0114483
7.66816
-0.00334767
7.66718
0.000452315
7.66637
0.000293147
7.66593
-0.000121433
7.66448
0.000872376
7.65965
0.00422803
7.64878
0.0102475
7.62952
0.0186401
7.59964
0.0292705
7.55687
0.0421519
7.49876
0.0574457
7.42228
0.0754598
7.32303
0.0962234
7.19852
0.117346
7.05256
0.141458
6.88788
0.163098
6.70897
0.17926
6.52464
0.190456
6.34036
0.188805
6.16414
0.177788
6.00505
0.15884
5.86903
0.135138
5.75794
0.10926
5.67107
0.0853997
5.60551
0.0644002
5.55732
0.0471965
5.52266
0.0337728
5.49813
0.0236826
5.481
0.0163164
5.46913
0.011064
5.46093
0.00739171
5.45526
0.00486813
5.45129
0.00316103
5.44845
0.00202381
5.44635
0.00127731
5.44471
0.000794565
5.44336
0.000487059
5.44218
0.000294152
5.44109
0.000174998
5.44006
0.000102542
5.43904
5.91721e-05
5.43801
3.36193e-05
5.43698
1.87997e-05
5.43593
1.03384e-05
5.43485
5.58134e-06
5.43375
2.94674e-06
5.43264
1.50835e-06
5.4315
7.33364e-07
5.43035
3.2006e-07
5.42919
1.01107e-07
5.42802
-1.54141e-08
5.42685
-7.79746e-08
5.42569
-1.14889e-07
5.42454
-1.36968e-07
5.4234
-1.52333e-07
5.42228
-1.643e-07
5.42119
-1.74572e-07
5.42012
-1.8392e-07
5.41909
-1.92691e-07
5.4181
-2.01206e-07
5.41714
-2.09604e-07
5.41623
-2.17797e-07
5.41536
-2.25369e-07
5.41454
-2.3215e-07
5.41376
-2.38293e-07
5.41302
-2.44052e-07
5.41232
-2.49442e-07
5.41167
-2.54333e-07
5.41105
-2.58591e-07
5.41047
-2.62162e-07
5.40993
-2.65007e-07
5.40941
-2.67124e-07
5.40893
-2.68523e-07
5.40847
-2.69232e-07
5.40802
-2.6926e-07
5.4076
-2.68628e-07
5.40719
-2.6739e-07
5.4068
-2.65563e-07
5.4064
-2.6321e-07
5.40601
-2.6039e-07
5.40562
-2.57163e-07
5.40523
-2.53585e-07
5.40482
-2.49725e-07
5.4044
-2.45653e-07
5.40396
-2.41478e-07
5.40351
-2.37296e-07
5.40302
-2.33205e-07
5.40251
-2.29256e-07
5.40197
-2.25486e-07
5.4014
-2.21915e-07
5.40079
-2.18617e-07
5.40014
-2.15732e-07
5.39945
-2.13382e-07
5.39872
-2.11599e-07
5.39796
-2.10395e-07
5.39715
-2.09795e-07
5.39631
-2.09857e-07
5.39543
-2.10679e-07
5.39453
-2.12349e-07
5.3936
-2.14883e-07
5.39264
-2.18242e-07
5.39167
-2.22413e-07
5.39069
-2.27381e-07
5.3897
-2.33116e-07
5.38871
-2.39563e-07
5.38773
-2.46657e-07
5.38677
-2.54335e-07
5.38582
-2.62509e-07
5.3849
-2.71088e-07
5.38402
-2.79982e-07
5.38318
-2.89132e-07
5.38237
-2.98491e-07
5.38162
-3.07984e-07
5.38092
-3.1749e-07
5.38027
-3.26863e-07
5.37968
-3.35986e-07
5.37915
-3.44791e-07
5.37869
-3.53246e-07
5.37828
-3.61326e-07
5.37793
-3.69006e-07
5.37764
-3.77271e-07
5.37742
-3.77944e-07
5.37725
-3.91228e-07
5.37713
-3.93953e-07
5.37707
-3.99272e-07
5.37706
-4.03094e-07
5.3771
-4.06852e-07
5.37718
-4.089e-07
5.3773
-4.10953e-07
5.37746
-4.1259e-07
5.37765
-4.12776e-07
5.37786
-4.12212e-07
5.37809
-4.11099e-07
5.37833
-4.09209e-07
5.37857
-4.06546e-07
5.37882
-4.0307e-07
5.37905
-3.99277e-07
5.37927
-3.9473e-07
5.37947
-3.89773e-07
5.37964
-3.84414e-07
5.37977
-3.80503e-07
5.37987
-3.72573e-07
5.37992
-3.59965e-07
5.37993
-3.65662e-07
5.3799
-3.54063e-07
5.37981
-3.48196e-07
5.37968
-3.43043e-07
5.3795
-3.38623e-07
5.37928
-3.34956e-07
5.37901
-3.31926e-07
5.37872
-3.29974e-07
5.37839
-3.28919e-07
5.37804
-3.28848e-07
5.37767
-3.30167e-07
5.37729
-3.32409e-07
5.37691
-3.35778e-07
5.37654
-3.39176e-07
5.37618
-3.46537e-07
5.37584
-3.46145e-07
5.37553
-3.61984e-07
5.37524
-3.55649e-07
5.37498
-3.80389e-07
5.37475
-3.65017e-07
5.37456
-3.80256e-07
5.37441
-4.71391e-07
5.37428
-3.43509e-07
5.37419
-3.40515e-07
5.37412
-4.70014e-07
5.37409
-3.66595e-07
5.37409
-4.45081e-07
5.37412
-3.87576e-07
5.37417
-4.5247e-07
5.37426
-3.93909e-07
5.37438
-4.55688e-07
5.37453
-4.07799e-07
5.37472
-5.06121e-07
5.37494
-6.16881e-07
5.3752
-1.58216e-06
5.37549
-6.17556e-06
5.37584
-3.01848e-05
5.37634
-0.000153558
5.37748
-0.000791272
5.38196
-0.00411705
5.40447
-0.0221614
5.56678
-0.161977
-0.628742
6.19583
14.6895
-1.27744
14.2202
0.679003
14.1959
-0.0734804
14.457
-0.444479
14.6196
-0.240016
14.6335
-0.0126869
14.5911
0.0585611
14.5805
0.00754877
14.5947
-0.0263701
14.5985
-0.00850868
14.5899
0.0073792
14.5945
-0.0140456
14.6187
-0.0402609
14.6447
-0.0384031
14.6572
-0.016896
14.6582
-0.00151709
14.655
0.00237502
14.6503
0.00344574
14.6428
0.00727129
14.6283
0.0174997
14.6017
0.0355841
14.5586
0.0605104
14.4951
0.0916403
14.4075
0.128481
14.2929
0.17088
14.1476
0.219064
13.9675
0.272664
13.7501
0.328316
13.5006
0.387142
13.2228
0.43914
12.9248
0.476849
12.621
0.497629
12.3221
0.490089
12.0412
0.45897
11.7902
0.408941
11.5764
0.3474
11.402
0.282077
11.2649
0.220612
11.1607
0.166872
11.0836
0.122625
11.0278
0.0879296
10.9882
0.0617287
10.9604
0.0425304
10.941
0.0288088
10.9276
0.0192066
10.9183
0.0126119
10.9116
0.00815923
10.9068
0.00520199
10.9032
0.00326832
10.9003
0.00202348
10.8978
0.00123442
10.8956
0.000741976
10.8935
0.000439391
10.8915
0.000256346
10.8895
0.000147334
10.8874
8.34185e-05
10.8854
4.65232e-05
10.8833
2.55521e-05
10.8811
1.38133e-05
10.8789
7.34085e-06
10.8767
3.82428e-06
10.8744
1.9411e-06
10.8721
9.45439e-07
10.8698
4.25618e-07
10.8675
1.55713e-07
10.8651
1.77323e-08
10.8628
-5.86975e-08
10.8605
-9.83139e-08
10.8582
-1.21614e-07
10.856
-1.36661e-07
10.8538
-1.47703e-07
10.8517
-1.56751e-07
10.8496
-1.6474e-07
10.8476
-1.72251e-07
10.8457
-1.79551e-07
10.8439
-1.86603e-07
10.8421
-1.93106e-07
10.8405
-1.98922e-07
10.8389
-2.04194e-07
10.8374
-2.09123e-07
10.836
-2.13742e-07
10.8347
-2.17941e-07
10.8335
-2.21602e-07
10.8323
-2.24675e-07
10.8313
-2.27123e-07
10.8302
-2.28947e-07
10.8293
-2.30163e-07
10.8283
-2.30778e-07
10.8274
-2.30811e-07
10.8266
-2.30281e-07
10.8258
-2.29218e-07
10.825
-2.27651e-07
10.8242
-2.25627e-07
10.8234
-2.23198e-07
10.8226
-2.20422e-07
10.8218
-2.17345e-07
10.821
-2.14024e-07
10.8202
-2.10533e-07
10.8193
-2.06949e-07
10.8184
-2.0336e-07
10.8174
-1.99855e-07
10.8164
-1.96474e-07
10.8153
-1.93247e-07
10.8142
-1.90189e-07
10.813
-1.87367e-07
10.8117
-1.84901e-07
10.8103
-1.82888e-07
10.8088
-1.81363e-07
10.8073
-1.80332e-07
10.8057
-1.79821e-07
10.804
-1.79879e-07
10.8023
-1.80592e-07
10.8004
-1.82024e-07
10.7986
-1.84193e-07
10.7967
-1.87074e-07
10.7947
-1.90648e-07
10.7927
-1.94912e-07
10.7908
-1.99827e-07
10.7888
-2.05354e-07
10.7868
-2.11435e-07
10.7849
-2.18012e-07
10.783
-2.25014e-07
10.7812
-2.32364e-07
10.7794
-2.39987e-07
10.7777
-2.47834e-07
10.7761
-2.5586e-07
10.7746
-2.63999e-07
10.7732
-2.72148e-07
10.7719
-2.80183e-07
10.7707
-2.88004e-07
10.7697
-2.95555e-07
10.7687
-3.02802e-07
10.7679
-3.09729e-07
10.7672
-3.16335e-07
10.7666
-3.22914e-07
10.7662
-3.25261e-07
10.7659
-3.33848e-07
10.7656
-3.38188e-07
10.7655
-3.42348e-07
10.7655
-3.45619e-07
10.7656
-3.48717e-07
10.7657
-3.50536e-07
10.766
-3.52306e-07
10.7663
-3.53619e-07
10.7666
-3.53859e-07
10.7671
-3.53365e-07
10.7675
-3.52385e-07
10.768
-3.50765e-07
10.7685
-3.48487e-07
10.769
-3.45516e-07
10.7694
-3.42226e-07
10.7699
-3.3838e-07
10.7703
-3.34076e-07
10.7706
-3.29627e-07
10.7709
-3.26009e-07
10.7711
-3.19478e-07
10.7712
-3.10014e-07
10.7712
-3.1177e-07
10.7711
-3.03602e-07
10.771
-2.98599e-07
10.7707
-2.94017e-07
10.7703
-2.90278e-07
10.7699
-2.87196e-07
10.7694
-2.84423e-07
10.7688
-2.82621e-07
10.7681
-2.82396e-07
10.7674
-2.8188e-07
10.7667
-2.82978e-07
10.7659
-2.84986e-07
10.7652
-2.88092e-07
10.7644
-2.89383e-07
10.7637
-3.00331e-07
10.763
-2.88075e-07
10.7624
-3.21176e-07
10.7618
-2.89198e-07
10.7613
-3.48534e-07
10.7608
-2.89059e-07
10.7604
-3.16703e-07
10.7601
-5.96626e-07
10.7599
-1.74198e-07
10.7597
-1.63329e-07
10.7596
-5.38891e-07
10.7595
-2.23394e-07
10.7595
-4.46935e-07
10.7595
-2.69101e-07
10.7597
-4.56178e-07
10.7598
-2.75473e-07
10.7601
-4.53475e-07
10.7604
-3.05499e-07
10.7607
-5.92722e-07
10.7612
-9.12068e-07
10.7617
-3.75532e-06
10.7623
-1.72972e-05
10.763
-8.8087e-05
10.764
-0.000451752
10.7662
-0.00232835
10.7748
-0.012025
10.8159
-0.062504
11.0032
-0.348597
-1.43544
11.8105
119.784
0.0349562
120.453
0.0159054
120.303
0.0781098
119.794
0.0652629
119.535
0.0205407
119.525
-0.0016637
119.583
0.00086304
119.583
0.00536824
119.548
0.00613615
119.529
0.00578493
119.524
0.00656082
119.495
0.00683733
119.441
0.00528402
119.389
0.00267351
119.361
0.000118769
119.353
-0.00522436
119.358
-0.0149101
119.381
-0.0321152
119.436
-0.0580755
119.544
-0.0932199
119.714
-0.13843
119.962
-0.193218
120.299
-0.255684
120.738
-0.321935
121.28
-0.385537
121.924
-0.438824
122.656
-0.474936
123.458
-0.488893
124.312
-0.482113
125.193
-0.456877
126.073
-0.417416
126.924
-0.368953
127.715
-0.317274
128.42
-0.264248
129.025
-0.214254
129.523
-0.169328
129.916
-0.130589
130.216
-0.098361
130.436
-0.0723579
130.592
-0.0520164
130.698
-0.0365409
130.766
-0.025092
130.806
-0.0168479
130.827
-0.011061
130.834
-0.00710481
130.832
-0.00446407
130.824
-0.00274312
130.811
-0.00164886
130.795
-0.000969054
130.778
-0.000556597
130.759
-0.00031224
130.738
-0.000170915
130.717
-9.11624e-05
130.695
-4.7286e-05
130.672
-2.37807e-05
130.648
-1.15403e-05
130.624
-5.35952e-06
130.599
-2.34417e-06
130.573
-9.304e-07
130.547
-2.9893e-07
130.52
-3.6314e-08
130.493
7.00554e-08
130.465
1.05174e-07
130.438
1.15909e-07
130.41
1.19393e-07
130.381
1.22236e-07
130.354
1.25965e-07
130.326
1.31137e-07
130.299
1.37291e-07
130.272
1.44064e-07
130.245
1.51169e-07
130.22
1.58352e-07
130.195
1.6547e-07
130.171
1.72577e-07
130.148
1.79697e-07
130.126
1.86665e-07
130.106
1.93134e-07
130.086
1.98935e-07
130.067
2.04198e-07
130.049
2.09127e-07
130.033
2.13747e-07
130.017
2.17941e-07
130.002
2.21602e-07
129.988
2.24675e-07
129.975
2.27122e-07
129.963
2.28948e-07
129.951
2.30164e-07
129.94
2.30777e-07
129.929
2.30809e-07
129.919
2.30279e-07
129.909
2.29218e-07
129.9
2.27652e-07
129.89
2.25625e-07
129.881
2.23199e-07