/*--------------------------------*- C++ -*----------------------------------*\
| =========                 |                                                 |
| \\      /  F ield         | OpenFOAM: The Open Source CFD Toolbox           |
|  \\    /   O peration     | Version:  3.0.x                                 |
|   \\  /    A nd           | Web:      www.OpenFOAM.org                      |
|    \\/     M anipulation  |                                                 |
\*---------------------------------------------------------------------------*/
FoamFile
{
    version     2.0;
    format      ascii;
    class       volScalarField;
    location    "0.28";
    object      rho;
}
// * * * * * * * * * * * * * * * * * * * * * * * * * * * * * * * * * * * * * //

dimensions      [1 -3 0 0 0 0 0];

internalField   nonuniform List<scalar> 
6900
(
50.9098
50.9098
50.9099
50.9099
50.91
50.9102
50.9105
50.9107
50.9109
50.911
50.9111
50.9112
50.9112
50.9113
50.9113
50.9114
50.9116
50.9117
50.9119
50.9121
50.9123
50.9125
50.9126
50.9128
50.9128
50.9129
50.9128
50.9127
50.9126
50.9125
50.9124
50.9124
50.9124
50.9125
50.9125
50.9125
50.9124
50.9124
50.9123
50.9121
50.912
50.9118
50.9117
50.9115
50.9113
50.9111
50.9109
50.9107
50.9105
50.9102
50.91
50.9097
50.9095
50.9092
50.9089
50.9086
50.9082
50.9079
50.9075
50.9071
50.9067
50.9063
50.9059
50.9055
50.905
50.9045
50.9041
50.9036
50.9031
50.9027
50.9022
50.9017
50.9013
50.9008
50.9004
50.8999
50.8995
50.899
50.8986
50.8982
50.8978
50.8973
50.8969
50.8965
50.8961
50.8957
50.8952
50.8948
50.8943
50.8939
50.8934
50.8929
50.8924
50.8919
50.8914
50.8908
50.8903
50.8897
50.8891
50.8885
50.8879
50.8872
50.8866
50.886
50.8853
50.8847
50.8841
50.8834
50.8828
50.8822
50.8816
50.881
50.8804
50.8798
50.8792
50.8787
50.8781
50.8776
50.8771
50.8766
50.8761
50.8756
50.8751
50.8746
50.8741
50.8736
50.8731
50.8726
50.8721
50.8716
50.8711
50.8706
50.8701
50.8696
50.8691
50.8686
50.8681
50.8677
50.8672
50.8668
50.8664
50.866
50.8657
50.8653
50.865
50.8647
50.8645
50.8643
50.8641
50.8639
50.8638
50.8637
50.8637
50.8636
50.8636
50.8636
50.8636
50.8636
50.8637
50.8637
50.8637
50.8637
50.8636
50.8636
50.8635
50.8634
50.8633
50.8632
50.8631
50.863
50.8629
50.8627
50.8626
50.8625
50.8624
50.8622
50.8621
50.862
50.8619
50.8618
50.8618
50.8617
50.8617
50.8618
50.8618
50.8619
50.862
50.8622
50.8624
50.8626
50.8628
50.8631
50.8633
50.8636
50.8638
50.864
50.8642
50.8643
50.8647
50.8619
50.91
50.91
50.91
50.9101
50.9102
50.9104
50.9106
50.9108
50.911
50.9112
50.9113
50.9113
50.9114
50.9114
50.9114
50.9116
50.9117
50.9119
50.912
50.9122
50.9124
50.9126
50.9127
50.9129
50.9129
50.913
50.9129
50.9128
50.9127
50.9126
50.9125
50.9125
50.9125
50.9126
50.9126
50.9126
50.9125
50.9125
50.9124
50.9122
50.9121
50.9119
50.9117
50.9116
50.9114
50.9112
50.911
50.9108
50.9106
50.9103
50.9101
50.9098
50.9096
50.9093
50.909
50.9087
50.9083
50.908
50.9076
50.9072
50.9068
50.9064
50.906
50.9055
50.9051
50.9046
50.9042
50.9037
50.9032
50.9028
50.9023
50.9018
50.9014
50.9009
50.9004
50.9
50.8996
50.8991
50.8987
50.8983
50.8978
50.8974
50.897
50.8966
50.8962
50.8957
50.8953
50.8949
50.8944
50.894
50.8935
50.893
50.8925
50.892
50.8915
50.8909
50.8903
50.8898
50.8892
50.8886
50.888
50.8873
50.8867
50.8861
50.8854
50.8848
50.8841
50.8835
50.8829
50.8823
50.8816
50.881
50.8804
50.8799
50.8793
50.8788
50.8782
50.8777
50.8772
50.8766
50.8761
50.8756
50.8751
50.8746
50.8742
50.8737
50.8732
50.8727
50.8722
50.8717
50.8712
50.8707
50.8702
50.8697
50.8692
50.8687
50.8682
50.8678
50.8673
50.8669
50.8665
50.8661
50.8657
50.8654
50.8651
50.8648
50.8646
50.8644
50.8642
50.864
50.8639
50.8638
50.8637
50.8637
50.8637
50.8637
50.8637
50.8637
50.8637
50.8638
50.8638
50.8637
50.8637
50.8637
50.8636
50.8635
50.8634
50.8633
50.8632
50.8631
50.8629
50.8628
50.8627
50.8626
50.8624
50.8623
50.8622
50.8621
50.862
50.8619
50.8619
50.8618
50.8618
50.8618
50.8619
50.862
50.8621
50.8623
50.8624
50.8627
50.8629
50.8631
50.8634
50.8637
50.8639
50.8641
50.8643
50.8644
50.8648
50.8622
50.91
50.91
50.91
50.9101
50.9102
50.9104
50.9106
50.9108
50.911
50.9112
50.9113
50.9113
50.9114
50.9114
50.9114
50.9116
50.9117
50.9119
50.912
50.9122
50.9124
50.9126
50.9127
50.9129
50.9129
50.913
50.9129
50.9128
50.9127
50.9126
50.9125
50.9125
50.9125
50.9126
50.9126
50.9126
50.9125
50.9125
50.9124
50.9122
50.9121
50.9119
50.9117
50.9116
50.9114
50.9112
50.911
50.9108
50.9106
50.9103
50.9101
50.9098
50.9096
50.9093
50.909
50.9087
50.9083
50.908
50.9076
50.9072
50.9068
50.9064
50.906
50.9055
50.9051
50.9046
50.9042
50.9037
50.9032
50.9028
50.9023
50.9018
50.9014
50.9009
50.9004
50.9
50.8996
50.8991
50.8987
50.8983
50.8978
50.8974
50.897
50.8966
50.8962
50.8957
50.8953
50.8949
50.8944
50.894
50.8935
50.893
50.8925
50.892
50.8915
50.8909
50.8903
50.8898
50.8892
50.8886
50.888
50.8873
50.8867
50.8861
50.8854
50.8848
50.8841
50.8835
50.8829
50.8823
50.8816
50.881
50.8804
50.8799
50.8793
50.8788
50.8782
50.8777
50.8772
50.8766
50.8761
50.8756
50.8751
50.8746
50.8742
50.8737
50.8732
50.8727
50.8722
50.8717
50.8712
50.8707
50.8702
50.8697
50.8692
50.8687
50.8682
50.8678
50.8673
50.8669
50.8665
50.8661
50.8657
50.8654
50.8651
50.8648
50.8646
50.8644
50.8642
50.864
50.8639
50.8638
50.8637
50.8637
50.8637
50.8637
50.8637
50.8637
50.8637
50.8638
50.8638
50.8637
50.8637
50.8637
50.8636
50.8635
50.8634
50.8633
50.8632
50.8631
50.8629
50.8628
50.8627
50.8626
50.8624
50.8623
50.8622
50.8621
50.862
50.8619
50.8619
50.8618
50.8618
50.8618
50.8619
50.862
50.8621
50.8623
50.8624
50.8627
50.8629
50.8631
50.8634
50.8637
50.8639
50.8641
50.8643
50.8644
50.8644
50.8643
50.91
50.91
50.91
50.9101
50.9102
50.9104
50.9106
50.9108
50.911
50.9112
50.9113
50.9113
50.9114
50.9114
50.9114
50.9116
50.9117
50.9119
50.912
50.9122
50.9124
50.9126
50.9127
50.9129
50.9129
50.913
50.9129
50.9128
50.9127
50.9126
50.9125
50.9125
50.9125
50.9126
50.9126
50.9126
50.9125
50.9125
50.9124
50.9122
50.9121
50.9119
50.9117
50.9116
50.9114
50.9112
50.911
50.9108
50.9106
50.9103
50.9101
50.9098
50.9096
50.9093
50.909
50.9087
50.9083
50.908
50.9076
50.9072
50.9068
50.9064
50.906
50.9055
50.9051
50.9046
50.9042
50.9037
50.9032
50.9028
50.9023
50.9018
50.9014
50.9009
50.9004
50.9
50.8996
50.8991
50.8987
50.8983
50.8978
50.8974
50.897
50.8966
50.8962
50.8957
50.8953
50.8949
50.8944
50.894
50.8935
50.893
50.8925
50.892
50.8915
50.8909
50.8903
50.8898
50.8892
50.8886
50.888
50.8873
50.8867
50.8861
50.8854
50.8848
50.8841
50.8835
50.8829
50.8823
50.8816
50.881
50.8804
50.8799
50.8793
50.8788
50.8782
50.8777
50.8772
50.8766
50.8761
50.8756
50.8751
50.8746
50.8742
50.8737
50.8732
50.8727
50.8722
50.8717
50.8712
50.8707
50.8702
50.8697
50.8692
50.8687
50.8682
50.8678
50.8673
50.8669
50.8665
50.8661
50.8657
50.8654
50.8651
50.8648
50.8646
50.8644
50.8642
50.864
50.8639
50.8638
50.8637
50.8637
50.8637
50.8637
50.8637
50.8637
50.8637
50.8638
50.8638
50.8637
50.8637
50.8637
50.8636
50.8635
50.8634
50.8633
50.8632
50.8631
50.8629
50.8628
50.8627
50.8626
50.8624
50.8623
50.8622
50.8621
50.862
50.8619
50.8619
50.8618
50.8618
50.8618
50.8619
50.862
50.8621
50.8623
50.8624
50.8627
50.8629
50.8632
50.8634
50.8637
50.8639
50.8641
50.8642
50.8644
50.8636
50.8697
50.9098
50.9098
50.9099
50.9099
50.91
50.9102
50.9105
50.9107
50.9109
50.911
50.9111
50.9112
50.9112
50.9113
50.9113
50.9114
50.9116
50.9117
50.9119
50.9121
50.9123
50.9125
50.9126
50.9128
50.9128
50.9129
50.9128
50.9127
50.9126
50.9125
50.9124
50.9124
50.9124
50.9125
50.9125
50.9125
50.9124
50.9124
50.9123
50.9121
50.912
50.9118
50.9117
50.9115
50.9113
50.9111
50.9109
50.9107
50.9105
50.9102
50.91
50.9097
50.9095
50.9092
50.9089
50.9086
50.9082
50.9079
50.9075
50.9071
50.9067
50.9063
50.9059
50.9055
50.905
50.9045
50.9041
50.9036
50.9031
50.9027
50.9022
50.9017
50.9013
50.9008
50.9004
50.8999
50.8995
50.899
50.8986
50.8982
50.8978
50.8973
50.8969
50.8965
50.8961
50.8957
50.8952
50.8948
50.8943
50.8939
50.8934
50.8929
50.8924
50.8919
50.8914
50.8908
50.8903
50.8897
50.8891
50.8885
50.8879
50.8872
50.8866
50.886
50.8853
50.8847
50.8841
50.8834
50.8828
50.8822
50.8816
50.881
50.8804
50.8798
50.8792
50.8787
50.8781
50.8776
50.8771
50.8766
50.8761
50.8756
50.8751
50.8746
50.8741
50.8736
50.8731
50.8726
50.8721
50.8716
50.8711
50.8706
50.8701
50.8696
50.8691
50.8686
50.8681
50.8677
50.8672
50.8668
50.8664
50.866
50.8657
50.8653
50.865
50.8647
50.8645
50.8643
50.8641
50.8639
50.8638
50.8637
50.8637
50.8636
50.8636
50.8636
50.8636
50.8636
50.8637
50.8637
50.8637
50.8637
50.8636
50.8636
50.8635
50.8634
50.8633
50.8632
50.8631
50.863
50.8629
50.8627
50.8626
50.8625
50.8624
50.8622
50.8621
50.862
50.8619
50.8618
50.8618
50.8618
50.8617
50.8618
50.8618
50.8619
50.862
50.8622
50.8624
50.8626
50.8628
50.8631
50.8633
50.8636
50.8638
50.864
50.8641
50.8644
50.863
50.8754
50.8802
50.8869
50.8877
50.8859
50.8842
50.8828
50.8805
50.8765
50.8721
50.8683
50.8671
50.8735
50.8788
50.8765
50.8647
50.8471
50.8339
50.8242
50.8145
50.811
50.8766
50.88
50.8798
50.8782
50.8767
50.8752
50.873
50.869
50.8646
50.8611
50.8598
50.8673
50.8722
50.8678
50.8529
50.8346
50.8229
50.8139
50.8057
50.8021
50.8651
50.865
50.8639
50.8618
50.8589
50.8554
50.8511
50.8464
50.8405
50.8337
50.8257
50.8162
50.8066
50.7977
50.7898
50.7819
50.7723
50.7614
50.7499
50.7369
50.842
50.8389
50.8398
50.8412
50.8403
50.8365
50.831
50.8239
50.8177
50.81
50.8037
50.7964
50.7892
50.7829
50.7764
50.7707
50.7655
50.7616
50.7585
50.7562
50.8322
50.8199
50.8154
50.8147
50.8125
50.8075
50.8009
50.7926
50.785
50.776
50.768
50.7594
50.7513
50.7431
50.7356
50.7284
50.7225
50.7173
50.7137
50.7118
50.7898
50.7604
50.7467
50.7453
50.7448
50.7438
50.7422
50.7417
50.742
50.742
50.7419
50.7419
50.7422
50.7424
50.7426
50.7428
50.743
50.7432
50.7433
50.7435
50.7436
50.7437
50.7438
50.7438
50.7438
50.7438
50.7438
50.7438
50.7437
50.7435
50.7431
50.7428
50.7425
50.7422
50.7419
50.7415
50.7411
50.7407
50.7404
50.74
50.7395
50.739
50.7385
50.738
50.7374
50.7369
50.7365
50.7362
50.7359
50.7355
50.7351
50.7347
50.7341
50.7337
50.7335
50.7334
50.7334
50.7335
50.7336
50.7336
50.7327
50.7276
50.7154
50.7071
50.7048
50.7059
50.7132
50.727
50.7358
50.7401
50.7415
50.7414
50.7409
50.7398
50.7388
50.7381
50.7375
50.7369
50.7364
50.7359
50.7354
50.7349
50.7344
50.7338
50.7333
50.7327
50.7321
50.7315
50.7309
50.7303
50.7296
50.729
50.7284
50.7277
50.7271
50.7265
50.7259
50.7253
50.7247
50.7242
50.7236
50.7231
50.7226
50.7221
50.7217
50.7212
50.7208
50.7204
50.72
50.7196
50.7193
50.7189
50.7186
50.7182
50.7179
50.7176
50.7172
50.7168
50.7165
50.7161
50.7157
50.7153
50.7148
50.7144
50.7139
50.7134
50.7129
50.7123
50.7118
50.7112
50.7106
50.7099
50.7093
50.7086
50.708
50.7073
50.7066
50.7059
50.7052
50.7045
50.7038
50.7031
50.7024
50.7017
50.7011
50.7005
50.6999
50.6993
50.6988
50.6983
50.6978
50.6973
50.6969
50.6965
50.6962
50.6958
50.6955
50.6952
50.6949
50.6947
50.6944
50.6942
50.6939
50.6936
50.6934
50.6931
50.6928
50.6925
50.6921
50.6918
50.6914
50.6911
50.6907
50.6902
50.6898
50.6894
50.6889
50.6884
50.6879
50.6874
50.6869
50.6863
50.6857
50.6852
50.6846
50.684
50.6833
50.6827
50.6821
50.6815
50.681
50.6804
50.6799
50.6794
50.6789
50.6785
50.678
50.6778
50.6762
50.6845
50.7882
50.7595
50.7465
50.7446
50.744
50.7427
50.7412
50.7407
50.741
50.741
50.7409
50.7409
50.7412
50.7414
50.7416
50.7418
50.7419
50.7421
50.7423
50.7424
50.7425
50.7426
50.7426
50.7427
50.7427
50.7426
50.7426
50.7425
50.7424
50.7422
50.7419
50.7417
50.7414
50.741
50.7407
50.7404
50.74
50.7397
50.7392
50.7388
50.7382
50.7377
50.7371
50.7365
50.7359
50.7354
50.735
50.7346
50.7342
50.7337
50.7332
50.7325
50.732
50.7317
50.7315
50.7315
50.7315
50.7316
50.7317
50.7313
50.7283
50.7203
50.714
50.7116
50.7118
50.7149
50.724
50.7322
50.7369
50.7391
50.7398
50.7398
50.7395
50.7389
50.7384
50.7378
50.7374
50.7369
50.7364
50.7359
50.7354
50.7349
50.7344
50.7339
50.7333
50.7328
50.7322
50.7316
50.731
50.7303
50.7297
50.7291
50.7284
50.7278
50.7272
50.7266
50.726
50.7254
50.7248
50.7242
50.7237
50.7232
50.7227
50.7222
50.7217
50.7213
50.7209
50.7205
50.7201
50.7197
50.7194
50.719
50.7187
50.7183
50.718
50.7176
50.7173
50.7169
50.7166
50.7162
50.7158
50.7154
50.7149
50.7145
50.714
50.7135
50.713
50.7124
50.7119
50.7113
50.7107
50.71
50.7094
50.7087
50.708
50.7074
50.7067
50.706
50.7052
50.7045
50.7038
50.7031
50.7025
50.7018
50.7012
50.7005
50.7
50.6994
50.6988
50.6983
50.6979
50.6974
50.697
50.6966
50.6962
50.6959
50.6956
50.6953
50.695
50.6948
50.6945
50.6942
50.694
50.6937
50.6934
50.6932
50.6929
50.6926
50.6922
50.6919
50.6915
50.6911
50.6907
50.6903
50.6899
50.6894
50.689
50.6885
50.688
50.6875
50.6869
50.6864
50.6858
50.6852
50.6846
50.684
50.6834
50.6828
50.6822
50.6816
50.681
50.6805
50.6799
50.6795
50.679
50.6786
50.6781
50.6778
50.6767
50.68
50.7012
50.7144
50.7241
50.7258
50.7248
50.724
50.7239
50.7243
50.7245
50.7247
50.7249
50.7251
50.7253
50.7255
50.7256
50.7258
50.726
50.7261
50.7262
50.7263
50.7264
50.7266
50.7267
50.7268
50.7268
50.7268
50.7268
50.7266
50.7264
50.7262
50.7258
50.7255
50.7251
50.7246
50.7242
50.7236
50.723
50.7224
50.7217
50.7211
50.7205
50.72
50.7195
50.7192
50.7193
50.7211
50.7244
50.7275
50.7299
50.7317
50.7329
50.7337
50.7341
50.7342
50.7342
50.7343
50.7343
50.7343
50.7344
50.7346
50.7348
50.7352
50.7358
50.7365
50.7371
50.7377
50.738
50.7382
50.7383
50.7383
50.7382
50.7381
50.7379
50.7377
50.7375
50.7372
50.7369
50.7365
50.7362
50.7358
50.7353
50.7349
50.7344
50.7339
50.7333
50.7327
50.7322
50.7316
50.731
50.7303
50.7297
50.7291
50.7284
50.7278
50.7272
50.7266
50.726
50.7254
50.7248
50.7242
50.7237
50.7232
50.7227
50.7222
50.7217
50.7213
50.7209
50.7205
50.7201
50.7197
50.7194
50.719
50.7187
50.7183
50.718
50.7176
50.7173
50.7169
50.7166
50.7162
50.7158
50.7154
50.7149
50.7145
50.714
50.7135
50.713
50.7124
50.7119
50.7113
50.7107
50.71
50.7094
50.7087
50.708
50.7074
50.7067
50.706
50.7052
50.7045
50.7038
50.7031
50.7025
50.7018
50.7012
50.7005
50.7
50.6994
50.6988
50.6983
50.6979
50.6974
50.697
50.6966
50.6962
50.6959
50.6956
50.6953
50.695
50.6948
50.6945
50.6942
50.694
50.6937
50.6934
50.6932
50.6929
50.6926
50.6922
50.6919
50.6915
50.6911
50.6907
50.6903
50.6899
50.6894
50.689
50.6885
50.688
50.6875
50.6869
50.6864
50.6858
50.6852
50.6846
50.684
50.6834
50.6828
50.6822
50.6816
50.681
50.6805
50.68
50.6794
50.679
50.6785
50.6782
50.6778
50.6775
50.6772
50.749
50.7455
50.744
50.7428
50.7416
50.7408
50.7407
50.7409
50.7411
50.7411
50.7412
50.7414
50.7416
50.7418
50.7419
50.7421
50.7424
50.7426
50.7428
50.7429
50.7431
50.7432
50.7433
50.7434
50.7434
50.7434
50.7434
50.7432
50.743
50.7428
50.7426
50.7423
50.742
50.7417
50.7413
50.741
50.7406
50.7402
50.7399
50.7394
50.739
50.7385
50.7381
50.7378
50.7374
50.737
50.7366
50.7361
50.7357
50.735
50.7344
50.734
50.7334
50.7326
50.7319
50.7316
50.7313
50.7309
50.7293
50.7265
50.7245
50.7237
50.7238
50.7247
50.7279
50.7328
50.7364
50.7384
50.7394
50.7397
50.7396
50.7394
50.739
50.7385
50.7381
50.7376
50.7372
50.7368
50.7363
50.7359
50.7354
50.7349
50.7344
50.7339
50.7333
50.7328
50.7322
50.7316
50.731
50.7303
50.7297
50.7291
50.7284
50.7278
50.7272
50.7266
50.726
50.7254
50.7248
50.7242
50.7237
50.7232
50.7227
50.7222
50.7217
50.7213
50.7209
50.7205
50.7201
50.7197
50.7194
50.719
50.7187
50.7183
50.718
50.7176
50.7173
50.7169
50.7166
50.7162
50.7158
50.7154
50.7149
50.7145
50.714
50.7135
50.713
50.7124
50.7119
50.7113
50.7107
50.71
50.7094
50.7087
50.708
50.7074
50.7067
50.706
50.7052
50.7045
50.7038
50.7031
50.7025
50.7018
50.7012
50.7005
50.7
50.6994
50.6988
50.6983
50.6979
50.6974
50.697
50.6966
50.6962
50.6959
50.6956
50.6953
50.695
50.6948
50.6945
50.6942
50.694
50.6937
50.6934
50.6932
50.6929
50.6926
50.6922
50.6919
50.6915
50.6911
50.6907
50.6903
50.6899
50.6894
50.689
50.6885
50.688
50.6875
50.6869
50.6864
50.6858
50.6852
50.6846
50.684
50.6834
50.6828
50.6822
50.6816
50.681
50.6805
50.68
50.6794
50.679
50.6785
50.6782
50.6779
50.6779
50.6765
50.7334
50.7363
50.7352
50.7345
50.7334
50.7327
50.7326
50.7328
50.7329
50.7331
50.7332
50.7334
50.7336
50.7338
50.7341
50.7344
50.7346
50.7349
50.7351
50.7353
50.7355
50.7356
50.7357
50.7358
50.7358
50.7358
50.7357
50.7356
50.7354
50.7351
50.7349
50.7347
50.7344
50.7341
50.7338
50.7335
50.7331
50.7328
50.7323
50.7319
50.7315
50.7311
50.7307
50.7303
50.7299
50.7294
50.7289
50.7284
50.7279
50.7273
50.7266
50.7261
50.7257
50.7255
50.7255
50.7254
50.7248
50.721
50.7113
50.7041
50.7012
50.7011
50.7031
50.7107
50.7197
50.7263
50.7308
50.7338
50.7357
50.7368
50.7374
50.7376
50.7377
50.7376
50.7374
50.7371
50.7368
50.7365
50.7361
50.7357
50.7353
50.7348
50.7343
50.7338
50.7332
50.7327
50.7321
50.7315
50.7309
50.7302
50.7296
50.729
50.7284
50.7277
50.7271
50.7265
50.7259
50.7253
50.7247
50.7242
50.7236
50.7231
50.7226
50.7221
50.7217
50.7212
50.7208
50.7204
50.72
50.7196
50.7193
50.7189
50.7186
50.7182
50.7179
50.7176
50.7172
50.7168
50.7165
50.7161
50.7157
50.7153
50.7148
50.7144
50.7139
50.7134
50.7129
50.7123
50.7118
50.7112
50.7106
50.7099
50.7093
50.7086
50.708
50.7073
50.7066
50.7059
50.7052
50.7045
50.7038
50.7031
50.7024
50.7017
50.7011
50.7005
50.6999
50.6993
50.6988
50.6983
50.6978
50.6973
50.6969
50.6965
50.6962
50.6958
50.6955
50.6952
50.6949
50.6947
50.6944
50.6942
50.6939
50.6936
50.6934
50.6931
50.6928
50.6925
50.6922
50.6918
50.6914
50.6911
50.6907
50.6902
50.6898
50.6894
50.6889
50.6884
50.6879
50.6874
50.6869
50.6863
50.6857
50.6852
50.6846
50.6839
50.6833
50.6827
50.6821
50.6815
50.681
50.6804
50.6799
50.6794
50.6789
50.6785
50.6781
50.6778
50.6779
50.6762
50.648
50.6353
50.6306
50.6297
50.6274
50.6225
50.6159
50.6089
50.6009
50.593
50.585
50.5765
50.5689
50.5612
50.5547
50.5482
50.5432
50.5385
50.5352
50.5336
50.6567
50.6535
50.654
50.6552
50.654
50.6503
50.6445
50.6392
50.6322
50.6259
50.6191
50.6123
50.6056
50.5995
50.5939
50.5885
50.5842
50.5805
50.5776
50.5757
50.6778
50.6777
50.6766
50.6746
50.6719
50.6684
50.6645
50.6594
50.6534
50.6463
50.6391
50.6321
50.6254
50.6174
50.6081
50.5981
50.5873
50.5755
50.5619
50.5491
50.6882
50.6916
50.6915
50.6898
50.688
50.6863
50.684
50.682
50.6825
50.6855
50.6844
50.6768
50.6642
50.654
50.6462
50.6388
50.6328
50.6309
50.6413
50.6511
50.6916
50.6983
50.699
50.697
50.6953
50.6934
50.6911
50.6891
50.6892
50.6919
50.6914
50.6854
50.6736
50.6627
50.6544
50.6465
50.6397
50.637
50.6466
50.6587
50.5531
50.5556
50.5551
50.554
50.5528
50.5524
50.5521
50.5521
50.5518
50.5516
50.5514
50.5511
50.5509
50.5506
50.5503
50.55
50.5497
50.5493
50.5489
50.5485
50.548
50.5476
50.547
50.5465
50.5459
50.5454
50.5448
50.5442
50.5436
50.543
50.5423
50.5417
50.5411
50.5405
50.5399
50.5393
50.5387
50.5381
50.5376
50.537
50.5365
50.536
50.5356
50.5352
50.5348
50.5344
50.534
50.5335
50.5331
50.5328
50.5326
50.5323
50.532
50.5318
50.5319
50.5322
50.5324
50.5322
50.5293
50.5203
50.5127
50.5095
50.5093
50.511
50.5178
50.5269
50.5337
50.5385
50.5416
50.5436
50.5447
50.5453
50.5456
50.5456
50.5455
50.5453
50.5451
50.5448
50.5445
50.5442
50.5438
50.5435
50.5432
50.5428
50.5425
50.5422
50.5418
50.5415
50.5412
50.5409
50.5407
50.5404
50.5402
50.5401
50.54
50.5399
50.5398
50.5399
50.5387
50.5468
50.5677
50.5646
50.5633
50.5619
50.5606
50.5602
50.5599
50.5599
50.5596
50.5593
50.5591
50.5589
50.5586
50.5583
50.558
50.5576
50.5573
50.5569
50.5564
50.556
50.5555
50.555
50.5545
50.554
50.5534
50.5528
50.5522
50.5516
50.551
50.5504
50.5498
50.5491
50.5485
50.5479
50.5472
50.5466
50.5461
50.5455
50.5449
50.5444
50.5438
50.5433
50.5428
50.5424
50.5421
50.5418
50.5414
50.5411
50.5408
50.5405
50.54
50.5396
50.5395
50.5394
50.539
50.5385
50.5384
50.5384
50.5383
50.5373
50.5347
50.5327
50.5319
50.5321
50.5328
50.5355
50.5403
50.544
50.5462
50.5473
50.5477
50.5476
50.5474
50.547
50.5465
50.546
50.5456
50.5452
50.5448
50.5444
50.544
50.5437
50.5433
50.543
50.5426
50.5423
50.5419
50.5416
50.5413
50.541
50.5407
50.5405
50.5403
50.5402
50.54
50.5399
50.5399
50.5399
50.5392
50.5425
50.5258
50.5373
50.5449
50.5455
50.5439
50.5433
50.5433
50.5433
50.5432
50.543
50.5429
50.5428
50.5427
50.5425
50.5422
50.5419
50.5415
50.541
50.5406
50.5401
50.5396
50.539
50.5385
50.5379
50.5374
50.5368
50.5362
50.5355
50.5349
50.5342
50.5335
50.5328
50.532
50.5313
50.5305
50.5298
50.5292
50.5285
50.5277
50.5269
50.5261
50.5254
50.5248
50.5243
50.524
50.5241
50.5256
50.5289
50.5319
50.5345
50.5365
50.5379
50.5389
50.5395
50.54
50.5404
50.5407
50.541
50.5413
50.5417
50.542
50.5425
50.543
50.5437
50.5445
50.5451
50.5457
50.5461
50.5463
50.5464
50.5464
50.5463
50.5461
50.5459
50.5457
50.5454
50.5451
50.5448
50.5445
50.5442
50.5439
50.5436
50.5432
50.5429
50.5426
50.5422
50.5419
50.5416
50.5413
50.541
50.5407
50.5405
50.5403
50.5402
50.54
50.5399
50.5399
50.5399
50.54
50.54
50.598
50.5633
50.5645
50.5694
50.5656
50.5607
50.5597
50.5598
50.5595
50.559
50.5586
50.5584
50.5582
50.5579
50.5575
50.5572
50.5569
50.5565
50.5561
50.5556
50.5551
50.5545
50.554
50.5534
50.5528
50.5522
50.5516
50.5509
50.5503
50.5497
50.5491
50.5485
50.5478
50.5472
50.5466
50.5459
50.5454
50.5448
50.5442
50.5436
50.543
50.5424
50.5417
50.5412
50.5407
50.5403
50.54
50.5397
50.5394
50.539
50.5385
50.5381
50.5379
50.5379
50.538
50.5382
50.5385
50.5388
50.5392
50.5395
50.5392
50.5368
50.5294
50.5229
50.5201
50.5202
50.5223
50.5303
50.5389
50.5442
50.5468
50.5478
50.5478
50.5475
50.547
50.5464
50.5458
50.5453
50.5449
50.5445
50.5441
50.5437
50.5433
50.543
50.5426
50.5423
50.5419
50.5416
50.5413
50.541
50.5407
50.5405
50.5403
50.5402
50.54
50.54
50.5399
50.54
50.5404
50.5395
50.6024
50.564
50.5649
50.5702
50.5665
50.5616
50.5606
50.5609
50.5607
50.5602
50.5597
50.5595
50.5593
50.559
50.5586
50.5582
50.5579
50.5575
50.5571
50.5566
50.5561
50.5556
50.555
50.5544
50.5539
50.5533
50.5527
50.5521
50.5514
50.5508
50.5502
50.5496
50.549
50.5483
50.5477
50.5471
50.5464
50.5459
50.5453
50.5448
50.5443
50.5437
50.5431
50.5426
50.5421
50.5417
50.5414
50.5412
50.5411
50.5408
50.5406
50.5402
50.5399
50.5398
50.5399
50.5401
50.5403
50.5405
50.5409
50.5413
50.5415
50.5411
50.5377
50.5268
50.5175
50.5141
50.5144
50.5191
50.5318
50.5419
50.5472
50.5491
50.5494
50.549
50.548
50.5469
50.5461
50.5455
50.545
50.5445
50.5441
50.5437
50.5433
50.5429
50.5425
50.5422
50.5418
50.5415
50.5412
50.5409
50.5407
50.5404
50.5402
50.5401
50.54
50.5399
50.5398
50.5399
50.5404
50.5393
50.5119
50.4995
50.4949
50.494
50.4918
50.487
50.4806
50.4738
50.466
50.4583
50.4505
50.4423
50.4348
50.4274
50.421
50.4148
50.4099
50.4054
50.4021
50.4006
50.5204
50.5173
50.5179
50.5191
50.518
50.5144
50.5087
50.5036
50.4967
50.4907
50.484
50.4774
50.471
50.4651
50.4595
50.4543
50.4502
50.4466
50.4439
50.442
50.5408
50.5408
50.5398
50.5379
50.5353
50.5321
50.5282
50.5233
50.5174
50.5106
50.5037
50.497
50.4904
50.4825
50.4734
50.4635
50.4529
50.4411
50.4278
50.4156
50.551
50.5544
50.5543
50.5528
50.5512
50.5496
50.5475
50.5458
50.5468
50.5496
50.5479
50.5399
50.5277
50.5183
50.5109
50.5039
50.4985
50.498
50.5099
50.5167
50.5543
50.5609
50.5617
50.5599
50.5583
50.5566
50.5545
50.5527
50.5534
50.5559
50.5549
50.5485
50.5368
50.5267
50.5188
50.5113
50.5052
50.504
50.5149
50.5246
50.4197
50.4227
50.423
50.4223
50.4215
50.4213
50.4215
50.4218
50.4221
50.4223
50.4225
50.4226
50.4228
50.4229
50.4229
50.423
50.4229
50.4229
50.4227
50.4226
50.4225
50.4223
50.4221
50.4219
50.4217
50.4215
50.4213
50.4211
50.4209
50.4207
50.4204
50.4202
50.42
50.4198
50.4196
50.4194
50.4192
50.419
50.4188
50.4187
50.4187
50.4186
50.4186
50.4186
50.4186
50.4185
50.4184
50.4183
50.4183
50.4182
50.418
50.418
50.4182
50.4186
50.419
50.419
50.4168
50.4084
50.4005
50.3971
50.3968
50.3985
50.405
50.4145
50.4216
50.4265
50.4299
50.432
50.4332
50.4339
50.4343
50.4344
50.4344
50.4343
50.4341
50.4339
50.4336
50.4333
50.4331
50.4328
50.4325
50.4322
50.432
50.4317
50.4315
50.4312
50.431
50.4308
50.4307
50.4305
50.4304
50.4303
50.4303
50.4302
50.4303
50.4303
50.4304
50.4305
50.4307
50.4309
50.4312
50.4314
50.4317
50.4321
50.4324
50.4328
50.4333
50.4337
50.4341
50.4346
50.4351
50.4356
50.4361
50.4366
50.4371
50.4376
50.4381
50.4386
50.4391
50.4396
50.4401
50.4407
50.4412
50.4417
50.4423
50.4429
50.4434
50.444
50.4446
50.4453
50.4459
50.4466
50.4473
50.448
50.4488
50.4496
50.4504
50.4513
50.4522
50.4532
50.4542
50.4553
50.4564
50.4576
50.4588
50.4601
50.4615
50.4629
50.4643
50.4658
50.4674
50.4689
50.4706
50.4723
50.474
50.4757
50.4775
50.4793
50.4812
50.483
50.4849
50.4868
50.4888
50.4907
50.4927
50.4947
50.4967
50.4987
50.5008
50.5029
50.505
50.5071
50.5093
50.5115
50.5137
50.516
50.5183
50.5206
50.523
50.5254
50.5279
50.5304
50.5329
50.5355
50.5381
50.5408
50.5435
50.5463
50.5491
50.552
50.555
50.558
50.5612
50.5643
50.5677
50.5709
50.5745
50.5778
50.5819
50.5844
50.434
50.4316
50.4311
50.4301
50.4292
50.4291
50.4293
50.4296
50.4297
50.4299
50.4301
50.4302
50.4303
50.4304
50.4304
50.4304
50.4304
50.4303
50.4302
50.4301
50.4299
50.4298
50.4296
50.4294
50.4292
50.429
50.4288
50.4285
50.4283
50.4281
50.4279
50.4276
50.4274
50.4272
50.427
50.4268
50.4266
50.4264
50.4263
50.4261
50.426
50.4259
50.4259
50.4259
50.4259
50.4259
50.4259
50.4259
50.4257
50.4256
50.4256
50.4256
50.4254
50.4251
50.4252
50.4254
50.4254
50.4245
50.4221
50.4202
50.4196
50.4199
50.4208
50.4237
50.4287
50.4324
50.4347
50.4359
50.4363
50.4363
50.4361
50.4358
50.4353
50.435
50.4346
50.4342
50.4339
50.4336
50.4332
50.4329
50.4327
50.4324
50.4321
50.4318
50.4316
50.4313
50.4311
50.4309
50.4307
50.4306
50.4305
50.4304
50.4303
50.4303
50.4303
50.4304
50.4305
50.4306
50.4308
50.431
50.4312
50.4315
50.4318
50.4322
50.4325
50.4329
50.4333
50.4338
50.4342
50.4347
50.4352
50.4356
50.4361
50.4366
50.4371
50.4376
50.4382
50.4387
50.4392
50.4397
50.4402
50.4408
50.4413
50.4418
50.4424
50.4429
50.4435
50.4441
50.4447
50.4453
50.446
50.4467
50.4474
50.4481
50.4489
50.4497
50.4505
50.4514
50.4523
50.4533
50.4543
50.4554
50.4565
50.4577
50.4589
50.4602
50.4615
50.4629
50.4644
50.4659
50.4674
50.469
50.4707
50.4723
50.4741
50.4758
50.4776
50.4794
50.4813
50.4831
50.485
50.4869
50.4888
50.4908
50.4928
50.4948
50.4968
50.4988
50.5009
50.5029
50.5051
50.5072
50.5094
50.5116
50.5138
50.5161
50.5184
50.5207
50.5231
50.5255
50.528
50.5304
50.533
50.5355
50.5382
50.5408
50.5436
50.5464
50.5492
50.5521
50.5551
50.5581
50.5613
50.5644
50.5678
50.5709
50.5746
50.5778
50.582
50.5844
50.3931
50.4053
50.4131
50.414
50.413
50.4129
50.4132
50.4136
50.4139
50.4141
50.4142
50.4143
50.4144
50.4145
50.4145
50.4145
50.4144
50.4143
50.4142
50.4141
50.414
50.4138
50.4136
50.4135
50.4133
50.4131
50.4128
50.4126
50.4124
50.4121
50.4118
50.4115
50.4112
50.4108
50.4105
50.4101
50.4097
50.4092
50.4087
50.4083
50.4081
50.4079
50.4078
50.408
50.409
50.4119
50.4155
50.4186
50.4211
50.423
50.4244
50.4254
50.4262
50.4268
50.4273
50.4279
50.4283
50.4288
50.4293
50.4299
50.4306
50.4314
50.4323
50.4331
50.4338
50.4343
50.4347
50.4348
50.4349
50.4349
50.4348
50.4347
50.4345
50.4343
50.4341
50.4339
50.4337
50.4334
50.4331
50.4329
50.4326
50.4323
50.4321
50.4318
50.4315
50.4313
50.4311
50.4309
50.4307
50.4306
50.4305
50.4304
50.4303
50.4303
50.4303
50.4304
50.4305
50.4306
50.4308
50.431
50.4312
50.4315
50.4318
50.4322
50.4325
50.4329
50.4333
50.4338
50.4342
50.4347
50.4352
50.4356
50.4361
50.4366
50.4371
50.4376
50.4382
50.4387
50.4392
50.4397
50.4402
50.4408
50.4413
50.4418
50.4424
50.4429
50.4435
50.4441
50.4447
50.4453
50.446
50.4467
50.4474
50.4481
50.4489
50.4497
50.4505
50.4514
50.4523
50.4533
50.4543
50.4554
50.4565
50.4577
50.4589
50.4602
50.4615
50.4629
50.4644
50.4659
50.4674
50.469
50.4707
50.4723
50.4741
50.4758
50.4776
50.4794
50.4813
50.4831
50.485
50.4869
50.4888
50.4908
50.4928
50.4948
50.4968
50.4988
50.5009
50.5029
50.5051
50.5072
50.5094
50.5116
50.5138
50.5161
50.5184
50.5207
50.5231
50.5255
50.528
50.5304
50.533
50.5355
50.5382
50.5408
50.5436
50.5464
50.5492
50.5521
50.5551
50.5581
50.5613
50.5644
50.5677
50.571
50.5745
50.5779
50.5814
50.5852
50.4599
50.4289
50.4329
50.4377
50.4334
50.4295
50.4292
50.4296
50.4296
50.4295
50.4296
50.4298
50.4299
50.4299
50.4299
50.4299
50.4298
50.4297
50.4296
50.4295
50.4293
50.4291
50.429
50.4288
50.4286
50.4284
50.4281
50.4279
50.4277
50.4275
50.4273
50.4271
50.4268
50.4266
50.4264
50.4262
50.426
50.4258
50.4256
50.4254
50.4252
50.4249
50.4248
50.4246
50.4246
50.4246
50.4246
50.4247
50.4246
50.4243
50.424
50.424
50.4241
50.4244
50.4248
50.4253
50.4259
50.4263
50.4263
50.4242
50.4171
50.4108
50.4083
50.4085
50.4111
50.4195
50.428
50.4331
50.4356
50.4365
50.4365
50.4363
50.4358
50.4353
50.4348
50.4344
50.434
50.4336
50.4333
50.433
50.4327
50.4324
50.4321
50.4318
50.4316
50.4313
50.4311
50.4309
50.4307
50.4306
50.4305
50.4304
50.4303
50.4303
50.4303
50.4304
50.4305
50.4306
50.4308
50.431
50.4312
50.4315
50.4318
50.4322
50.4325
50.4329
50.4333
50.4338
50.4342
50.4347
50.4352
50.4356
50.4361
50.4366
50.4371
50.4376
50.4382
50.4387
50.4392
50.4397
50.4402
50.4408
50.4413
50.4418
50.4424
50.4429
50.4435
50.4441
50.4447
50.4453
50.446
50.4467
50.4474
50.4481
50.4489
50.4497
50.4505
50.4514
50.4523
50.4533
50.4543
50.4554
50.4565
50.4577
50.4589
50.4602
50.4615
50.4629
50.4644
50.4659
50.4674
50.469
50.4707
50.4723
50.4741
50.4758
50.4776
50.4794
50.4813
50.4831
50.485
50.4869
50.4888
50.4908
50.4928
50.4948
50.4968
50.4988
50.5009
50.5029
50.5051
50.5072
50.5094
50.5116
50.5138
50.5161
50.5184
50.5207
50.5231
50.5255
50.528
50.5304
50.533
50.5355
50.5382
50.5408
50.5436
50.5464
50.5492
50.5521
50.5551
50.5582
50.5612
50.5645
50.5676
50.5711
50.5743
50.5779
50.5805
50.5873
50.4642
50.4295
50.4332
50.4386
50.4342
50.4302
50.4301
50.4306
50.4306
50.4304
50.4305
50.4308
50.4309
50.4309
50.4309
50.4309
50.4309
50.4308
50.4307
50.4305
50.4304
50.4302
50.43
50.4298
50.4296
50.4294
50.4292
50.429
50.4288
50.4285
50.4283
50.4281
50.4279
50.4276
50.4274
50.4272
50.427
50.4268
50.4266
50.4265
50.4263
50.4262
50.426
50.4259
50.4259
50.4259
50.4261
50.4262
50.4263
50.4264
50.4263
50.4261
50.4262
50.4264
50.4267
50.4271
50.4276
50.4281
50.4285
50.4282
50.4246
50.4136
50.4049
50.4021
50.4028
50.4086
50.4219
50.4314
50.4362
50.4379
50.4381
50.4377
50.4367
50.4357
50.4351
50.4345
50.4341
50.4336
50.4333
50.4329
50.4326
50.4323
50.432
50.4317
50.4315
50.4312
50.431
50.4308
50.4307
50.4305
50.4304
50.4303