/*--------------------------------*- C++ -*----------------------------------*\
| =========                 |                                                 |
| \\      /  F ield         | OpenFOAM: The Open Source CFD Toolbox           |
|  \\    /   O peration     | Version:  3.0.x                                 |
|   \\  /    A nd           | Web:      www.OpenFOAM.org                      |
|    \\/     M anipulation  |                                                 |
\*---------------------------------------------------------------------------*/
FoamFile
{
    version     2.0;
    format      ascii;
    class       volVectorField;
    location    "0.28";
    object      U;
}
// * * * * * * * * * * * * * * * * * * * * * * * * * * * * * * * * * * * * * //

dimensions      [0 1 -1 0 0 0 0];

internalField   nonuniform List<vector> 
6900
(
(42.6983 0.000101142 0)
(42.6964 9.2613e-05 0)
(42.6944 8.99721e-05 0)
(42.6922 9.09393e-05 0)
(42.6901 9.16923e-05 0)
(42.6881 9.21334e-05 0)
(42.6861 9.24803e-05 0)
(42.684 9.27622e-05 0)
(42.682 9.29832e-05 0)
(42.6799 9.31565e-05 0)
(42.6778 9.32947e-05 0)
(42.6757 9.34076e-05 0)
(42.6736 9.35027e-05 0)
(42.6714 9.35849e-05 0)
(42.6693 9.36781e-05 0)
(42.6672 9.37308e-05 0)
(42.6651 9.38046e-05 0)
(42.663 9.38765e-05 0)
(42.6609 9.39445e-05 0)
(42.6588 9.40099e-05 0)
(42.6567 9.40722e-05 0)
(42.6545 9.41307e-05 0)
(42.6524 9.41846e-05 0)
(42.6501 9.42326e-05 0)
(42.6479 9.4273e-05 0)
(42.6456 9.43031e-05 0)
(42.6432 9.43185e-05 0)
(42.6407 9.43122e-05 0)
(42.6381 9.42741e-05 0)
(42.6355 9.41892e-05 0)
(42.6327 9.40367e-05 0)
(42.6298 9.37892e-05 0)
(42.6267 9.34116e-05 0)
(42.6236 9.28617e-05 0)
(42.6202 9.20906e-05 0)
(42.6167 9.10447e-05 0)
(42.6131 8.96685e-05 0)
(42.6093 8.79084e-05 0)
(42.6054 8.57172e-05 0)
(42.6013 8.30587e-05 0)
(42.5971 7.99126e-05 0)
(42.5928 7.62781e-05 0)
(42.5884 7.21764e-05 0)
(42.5839 6.76514e-05 0)
(42.5794 6.27689e-05 0)
(42.5748 5.7613e-05 0)
(42.5701 5.22821e-05 0)
(42.5655 4.68825e-05 0)
(42.5608 4.15225e-05 0)
(42.5562 3.63056e-05 0)
(42.5515 3.1325e-05 0)
(42.5469 2.6659e-05 0)
(42.5423 2.23678e-05 0)
(42.5377 1.84925e-05 0)
(42.5332 1.50544e-05 0)
(42.5287 1.2057e-05 0)
(42.5242 9.48813e-06 0)
(42.5197 7.32325e-06 0)
(42.5152 5.52852e-06 0)
(42.5107 4.06426e-06 0)
(42.5062 2.88799e-06 0)
(42.5016 1.95708e-06 0)
(42.497 1.23135e-06 0)
(42.4924 6.75463e-07 0)
(42.4877 2.56329e-07 0)
(42.4829 -5.35777e-08 0)
(42.4781 -2.79295e-07 0)
(42.4731 -4.4191e-07 0)
(42.468 -5.57381e-07 0)
(42.4628 -6.3815e-07 0)
(42.4575 -6.93752e-07 0)
(42.452 -7.31383e-07 0)
(42.4464 -7.56366e-07 0)
(42.4406 -7.72574e-07 0)
(42.4347 -7.82786e-07 0)
(42.4286 -7.88956e-07 0)
(42.4224 -7.92453e-07 0)
(42.4161 -7.94213e-07 0)
(42.4097 -7.94885e-07 0)
(42.4031 -7.94869e-07 0)
(42.3964 -7.94521e-07 0)
(42.3897 -7.94003e-07 0)
(42.3829 -7.93391e-07 0)
(42.3761 -7.92705e-07 0)
(42.3693 -7.92064e-07 0)
(42.3624 -7.91624e-07 0)
(42.3556 -7.91414e-07 0)
(42.3488 -7.91371e-07 0)
(42.3421 -7.91459e-07 0)
(42.3354 -7.91711e-07 0)
(42.3288 -7.92147e-07 0)
(42.3223 -7.92769e-07 0)
(42.3158 -7.93533e-07 0)
(42.3094 -7.94377e-07 0)
(42.303 -7.95187e-07 0)
(42.2967 -7.95835e-07 0)
(42.2904 -7.96239e-07 0)
(42.2841 -7.96406e-07 0)
(42.2779 -7.96385e-07 0)
(42.2716 -7.9627e-07 0)
(42.2652 -7.96182e-07 0)
(42.2588 -7.95917e-07 0)
(42.2524 -7.95449e-07 0)
(42.2458 -7.94755e-07 0)
(42.239 -7.93961e-07 0)
(42.2322 -7.93083e-07 0)
(42.2251 -7.91963e-07 0)
(42.2179 -7.90535e-07 0)
(42.2105 -7.88803e-07 0)
(42.2029 -7.86814e-07 0)
(42.1951 -7.84616e-07 0)
(42.1871 -7.82191e-07 0)
(42.1789 -7.79593e-07 0)
(42.1705 -7.76908e-07 0)
(42.162 -7.74198e-07 0)
(42.1533 -7.71517e-07 0)
(42.1446 -7.68884e-07 0)
(42.1358 -7.66325e-07 0)
(42.127 -7.63897e-07 0)
(42.1182 -7.61797e-07 0)
(42.1095 -7.5934e-07 0)
(42.101 -7.57013e-07 0)
(42.0926 -7.54988e-07 0)
(42.0844 -7.53356e-07 0)
(42.0765 -7.51958e-07 0)
(42.0689 -7.50617e-07 0)
(42.0616 -7.49339e-07 0)
(42.0547 -7.48147e-07 0)
(42.0481 -7.47103e-07 0)
(42.0418 -7.46141e-07 0)
(42.036 -7.45122e-07 0)
(42.0305 -7.43927e-07 0)
(42.0253 -7.42553e-07 0)
(42.0205 -7.41085e-07 0)
(42.016 -7.39527e-07 0)
(42.0117 -7.3787e-07 0)
(42.0078 -7.36074e-07 0)
(42.004 -7.3466e-07 0)
(42.0005 -7.32008e-07 0)
(41.9971 -7.29067e-07 0)
(41.9939 -7.26615e-07 0)
(41.9907 -7.24123e-07 0)
(41.9877 -7.2145e-07 0)
(41.9846 -7.18417e-07 0)
(41.9816 -7.15309e-07 0)
(41.9785 -7.12024e-07 0)
(41.9754 -7.08688e-07 0)
(41.9721 -7.05313e-07 0)
(41.9688 -7.02204e-07 0)
(41.9654 -6.98935e-07 0)
(41.9619 -6.95709e-07 0)
(41.9582 -6.92049e-07 0)
(41.9545 -6.89969e-07 0)
(41.9508 -6.8697e-07 0)
(41.947 -6.82125e-07 0)
(41.9433 -6.88176e-07 0)
(41.9397 -6.86539e-07 0)
(41.9363 -6.75488e-07 0)
(41.9331 -6.80976e-07 0)
(41.9302 -6.82758e-07 0)
(41.9277 -6.7633e-07 0)
(41.9255 -6.99508e-07 0)
(41.9237 -6.71149e-07 0)
(41.9224 -6.82239e-07 0)
(41.9214 -6.89425e-07 0)
(41.9208 -6.88597e-07 0)
(41.9206 -6.90069e-07 0)
(41.9207 -6.9183e-07 0)
(41.9211 -6.93256e-07 0)
(41.9217 -6.9196e-07 0)
(41.9225 -6.96484e-07 0)
(41.9234 -6.9265e-07 0)
(41.9244 -6.9637e-07 0)
(41.9255 -6.92954e-07 0)
(41.9266 -6.96554e-07 0)
(41.9277 -6.92372e-07 0)
(41.9288 -6.9696e-07 0)
(41.9299 -6.93289e-07 0)
(41.9308 -6.94507e-07 0)
(41.9317 -6.91886e-07 0)
(41.9323 -6.92275e-07 0)
(41.9327 -6.91465e-07 0)
(41.9327 -6.73556e-07 0)
(41.9323 -6.99541e-07 0)
(41.9316 -6.60217e-07 0)
(41.9304 -6.97406e-07 0)
(41.9287 -6.86185e-07 0)
(41.9265 -6.73755e-07 0)
(41.9239 -6.76032e-07 0)
(41.921 -6.68914e-07 0)
(41.9177 -6.70765e-07 0)
(41.9142 -6.48006e-07 0)
(41.9107 -5.58542e-07 0)
(41.9071 7.52556e-08 0)
(41.9036 4.62881e-06 0)
(41.8997 3.66204e-05 0)
(41.8915 0.000260355 0)
(41.8502 0.00183499 0)
(41.6709 0.0164203 0)
(39.1598 0.0851932 0)
(42.7 0.000128308 0)
(42.7 9.9145e-05 0)
(42.6997 8.59167e-05 0)
(42.6993 8.54391e-05 0)
(42.6991 8.54701e-05 0)
(42.6988 8.51083e-05 0)
(42.6986 8.48551e-05 0)
(42.6984 8.471e-05 0)
(42.6981 8.46096e-05 0)
(42.6978 8.45359e-05 0)
(42.6974 8.44837e-05 0)
(42.6971 8.44493e-05 0)
(42.6968 8.44299e-05 0)
(42.6965 8.44225e-05 0)
(42.6962 8.44528e-05 0)
(42.6959 8.44373e-05 0)
(42.6956 8.4474e-05 0)
(42.6953 8.45132e-05 0)
(42.695 8.45539e-05 0)
(42.6947 8.45982e-05 0)
(42.6944 8.46445e-05 0)
(42.694 8.46907e-05 0)
(42.6936 8.47358e-05 0)
(42.6932 8.47779e-05 0)
(42.6928 8.48149e-05 0)
(42.6923 8.48444e-05 0)
(42.6917 8.48617e-05 0)
(42.691 8.48604e-05 0)
(42.6903 8.48315e-05 0)
(42.6894 8.47613e-05 0)
(42.6884 8.4631e-05 0)
(42.6873 8.44159e-05 0)
(42.6861 8.40844e-05 0)
(42.6847 8.35984e-05 0)
(42.6831 8.29137e-05 0)
(42.6814 8.19819e-05 0)
(42.6795 8.07525e-05 0)
(42.6774 7.91769e-05 0)
(42.6751 7.72123e-05 0)
(42.6727 7.48257e-05 0)
(42.67 7.19986e-05 0)
(42.6672 6.87298e-05 0)
(42.6643 6.50384e-05 0)
(42.6611 6.0964e-05 0)
(42.6578 5.65658e-05 0)
(42.6544 5.19199e-05 0)
(42.6508 4.71151e-05 0)
(42.6471 4.22475e-05 0)
(42.6433 3.7415e-05 0)
(42.6394 3.27112e-05 0)
(42.6354 2.82202e-05 0)
(42.6313 2.40128e-05 0)
(42.6272 2.01435e-05 0)
(42.623 1.66492e-05 0)
(42.6188 1.35492e-05 0)
(42.6145 1.08468e-05 0)
(42.6102 8.53089e-06 0)
(42.6059 6.57943e-06 0)
(42.6015 4.96213e-06 0)
(42.5971 3.64355e-06 0)
(42.5926 2.58585e-06 0)
(42.5882 1.75088e-06 0)
(42.5836 1.10197e-06 0)
(42.579 6.05173e-07 0)
(42.5743 2.2839e-07 0)
(42.5695 -5.22026e-08 0)
(42.5646 -2.57843e-07 0)
(42.5597 -4.06483e-07 0)
(42.5546 -5.12132e-07 0)
(42.5494 -5.85999e-07 0)
(42.544 -6.36772e-07 0)
(42.5385 -6.7102e-07 0)
(42.5329 -6.93625e-07 0)
(42.5271 -7.0813e-07 0)
(42.5212 -7.17093e-07 0)
(42.5151 -7.22322e-07 0)
(42.5089 -7.25088e-07 0)
(42.5025 -7.26281e-07 0)
(42.4961 -7.26504e-07 0)
(42.4895 -7.26185e-07 0)
(42.4828 -7.25671e-07 0)
(42.4761 -7.25111e-07 0)
(42.4693 -7.24568e-07 0)
(42.4624 -7.24068e-07 0)
(42.4556 -7.23783e-07 0)
(42.4487 -7.23894e-07 0)
(42.4419 -7.24402e-07 0)
(42.4351 -7.2522e-07 0)
(42.4283 -7.26311e-07 0)
(42.4216 -7.27713e-07 0)
(42.415 -7.2942e-07 0)
(42.4084 -7.31394e-07 0)
(42.4019 -7.33578e-07 0)
(42.3955 -7.35903e-07 0)
(42.3891 -7.38214e-07 0)
(42.3828 -7.40332e-07 0)
(42.3765 -7.42176e-07 0)
(42.3702 -7.43742e-07 0)
(42.3639 -7.45071e-07 0)
(42.3576 -7.46223e-07 0)
(42.3513 -7.47308e-07 0)
(42.3449 -7.48007e-07 0)
(42.3384 -7.4832e-07 0)
(42.3318 -7.48252e-07 0)
(42.325 -7.47975e-07 0)
(42.3181 -7.47463e-07 0)
(42.3111 -7.46528e-07 0)
(42.3038 -7.45108e-07 0)
(42.2964 -7.4325e-07 0)
(42.2888 -7.41034e-07 0)
(42.2809 -7.3845e-07 0)
(42.2729 -7.3553e-07 0)
(42.2647 -7.3237e-07 0)
(42.2563 -7.29092e-07 0)
(42.2478 -7.25799e-07 0)
(42.2391 -7.22552e-07 0)
(42.2304 -7.19403e-07 0)
(42.2216 -7.16412e-07 0)
(42.2128 -7.13687e-07 0)
(42.204 -7.1147e-07 0)
(42.1953 -7.08756e-07 0)
(42.1867 -7.06394e-07 0)
(42.1783 -7.04617e-07 0)
(42.1701 -7.03409e-07 0)
(42.1622 -7.02481e-07 0)
(42.1545 -7.01583e-07 0)
(42.1472 -7.00776e-07 0)
(42.1403 -7.00065e-07 0)
(42.1337 -6.9948e-07 0)
(42.1274 -6.98893e-07 0)
(42.1215 -6.98089e-07 0)
(42.116 -6.96942e-07 0)
(42.1108 -6.95482e-07 0)
(42.106 -6.93813e-07 0)
(42.1015 -6.91903e-07 0)
(42.0972 -6.89719e-07 0)
(42.0932 -6.87253e-07 0)
(42.0895 -6.85238e-07 0)
(42.0859 -6.81084e-07 0)
(42.0825 -6.76576e-07 0)
(42.0793 -6.72955e-07 0)
(42.0761 -6.69105e-07 0)
(42.073 -6.64807e-07 0)
(42.07 -6.59816e-07 0)
(42.0669 -6.54656e-07 0)
(42.0638 -6.49115e-07 0)
(42.0607 -6.43447e-07 0)
(42.0575 -6.37591e-07 0)
(42.0541 -6.3218e-07 0)
(42.0507 -6.26248e-07 0)
(42.0471 -6.20978e-07 0)
(42.0435 -6.14705e-07 0)
(42.0397 -6.10936e-07 0)
(42.036 -6.0386e-07 0)
(42.0322 -5.92799e-07 0)
(42.0285 -6.13317e-07 0)
(42.0249 -6.00001e-07 0)
(42.0215 -5.90101e-07 0)
(42.0183 -6.01938e-07 0)
(42.0153 -5.97948e-07 0)
(42.0128 -5.81519e-07 0)
(42.0106 -6.3753e-07 0)
(42.0088 -5.72361e-07 0)
(42.0074 -6.00573e-07 0)
(42.0065 -6.12671e-07 0)
(42.0059 -6.09468e-07 0)
(42.0057 -6.1184e-07 0)
(42.0058 -6.14756e-07 0)
(42.0061 -6.17933e-07 0)
(42.0067 -6.13186e-07 0)
(42.0075 -6.2444e-07 0)
(42.0084 -6.10804e-07 0)
(42.0094 -6.24085e-07 0)
(42.0104 -6.10552e-07 0)
(42.0115 -6.23111e-07 0)
(42.0126 -6.03701e-07 0)
(42.0137 -6.19532e-07 0)
(42.0147 -6.06288e-07 0)
(42.0157 -6.12178e-07 0)
(42.0165 -6.03626e-07 0)
(42.0171 -6.08474e-07 0)
(42.0175 -6.09336e-07 0)
(42.0175 -5.37849e-07 0)
(42.0171 -6.49344e-07 0)
(42.0163 -4.978e-07 0)
(42.0151 -6.34971e-07 0)
(42.0134 -6.01112e-07 0)
(42.0112 -5.57234e-07 0)
(42.0087 -5.72025e-07 0)
(42.0057 -5.44425e-07 0)
(42.0024 -5.45959e-07 0)
(41.9989 -4.49842e-07 0)
(41.9953 1.18951e-07 0)
(41.9917 4.08405e-06 0)
(41.9882 3.163e-05 0)
(41.9844 0.00022423 0)
(41.9763 0.00156502 0)
(41.9361 0.0108349 0)
(41.7618 0.0775167 0)
(39.8153 0.367597 0)
(42.7 -1.64736e-12 0)
(42.6999 -1.12617e-12 0)
(42.6997 -1.34856e-12 0)
(42.6993 -3.54715e-14 0)
(42.699 1.0023e-12 0)
(42.6988 1.55621e-13 0)
(42.6986 -1.7824e-12 0)
(42.6983 -2.14617e-12 0)
(42.698 1.35787e-13 0)
(42.6977 2.65181e-12 0)
(42.6974 2.37458e-12 0)
(42.6971 -7.57307e-13 0)
(42.6968 -4.45473e-12 0)
(42.6965 -7.95714e-12 0)
(42.6962 -1.07574e-11 0)
(42.6959 -1.0963e-11 0)
(42.6956 -1.13464e-11 0)
(42.6953 -1.04612e-11 0)
(42.695 -8.67766e-12 0)
(42.6947 -7.93165e-12 0)
(42.6943 -8.24554e-12 0)
(42.694 -8.53299e-12 0)
(42.6936 -7.53918e-12 0)
(42.6932 -8.52296e-12 0)
(42.6928 -9.69006e-12 0)
(42.6922 -9.31708e-12 0)
(42.6917 -8.85913e-12 0)
(42.691 -9.87798e-12 0)
(42.6903 -9.97507e-12 0)
(42.6894 -1.20106e-11 0)
(42.6884 -1.40929e-11 0)
(42.6873 -1.59221e-11 0)
(42.6861 -1.81642e-11 0)
(42.6847 -1.87057e-11 0)
(42.6831 -1.97158e-11 0)
(42.6814 -1.97621e-11 0)
(42.6795 -2.03118e-11 0)
(42.6774 -1.94363e-11 0)
(42.6751 -1.98484e-11 0)
(42.6727 -1.90734e-11 0)
(42.67 -1.76839e-11 0)
(42.6672 -1.75242e-11 0)
(42.6643 -1.58083e-11 0)
(42.6611 -1.5379e-11 0)
(42.6578 -1.37953e-11 0)
(42.6544 -1.3355e-11 0)
(42.6508 -1.41499e-11 0)
(42.6471 -1.70216e-11 0)
(42.6433 -1.72822e-11 0)
(42.6394 -1.75031e-11 0)
(42.6354 -1.63144e-11 0)
(42.6313 -1.40077e-11 0)
(42.6272 -1.17228e-11 0)
(42.623 -1.29076e-11 0)
(42.6188 -1.50569e-11 0)
(42.6145 -1.55724e-11 0)
(42.6102 -1.60025e-11 0)
(42.6059 -1.68002e-11 0)
(42.6015 -1.45983e-11 0)
(42.5971 -1.14419e-11 0)
(42.5927 -9.14002e-12 0)
(42.5882 -5.97449e-12 0)
(42.5836 -3.52754e-12 0)
(42.579 -1.54156e-12 0)
(42.5743 6.76561e-13 0)
(42.5695 1.03665e-12 0)
(42.5647 2.41262e-13 0)
(42.5597 3.64514e-13 0)
(42.5546 7.50845e-13 0)
(42.5494 1.49728e-13 0)
(42.544 -3.5284e-13 0)
(42.5385 -3.71663e-13 0)
(42.5329 1.48535e-12 0)
(42.5271 3.87546e-12 0)
(42.5212 4.9474e-12 0)
(42.5151 4.30502e-12 0)
(42.5089 3.35961e-12 0)
(42.5025 2.23496e-12 0)
(42.4961 1.76435e-12 0)
(42.4895 -6.83549e-13 0)
(42.4828 -3.693e-12 0)
(42.4761 -6.59468e-12 0)
(42.4693 -7.86527e-12 0)
(42.4624 -9.37464e-12 0)
(42.4556 -1.12822e-11 0)
(42.4487 -1.25951e-11 0)
(42.4419 -1.37981e-11 0)
(42.4351 -1.51445e-11 0)
(42.4283 -1.56841e-11 0)
(42.4216 -1.64974e-11 0)
(42.415 -1.83919e-11 0)
(42.4085 -1.896e-11 0)
(42.402 -1.97348e-11 0)
(42.3955 -2.06558e-11 0)
(42.3892 -2.11131e-11 0)
(42.3828 -2.05996e-11 0)
(42.3765 -1.97269e-11 0)
(42.3702 -1.95238e-11 0)
(42.364 -1.97474e-11 0)
(42.3577 -1.90626e-11 0)
(42.3513 -1.78078e-11 0)
(42.3449 -1.62626e-11 0)
(42.3384 -1.55675e-11 0)
(42.3318 -1.74885e-11 0)
(42.325 -1.85645e-11 0)
(42.3181 -2.10837e-11 0)
(42.3111 -2.30591e-11 0)
(42.3038 -2.35736e-11 0)
(42.2964 -2.4613e-11 0)
(42.2888 -2.26146e-11 0)
(42.281 -2.01613e-11 0)
(42.2729 -1.56753e-11 0)
(42.2647 -1.15749e-11 0)
(42.2563 -9.28292e-12 0)
(42.2478 -6.65354e-12 0)
(42.2392 -6.33798e-12 0)
(42.2304 -4.22541e-12 0)
(42.2216 -2.09506e-12 0)
(42.2128 -4.27895e-13 0)
(42.204 1.99917e-13 0)
(42.1953 2.97957e-13 0)
(42.1867 1.86227e-12 0)
(42.1783 2.53698e-12 0)
(42.1701 1.9673e-12 0)
(42.1622 3.60913e-12 0)
(42.1546 3.27528e-12 0)
(42.1472 2.57718e-12 0)
(42.1403 2.90683e-12 0)
(42.1337 3.33565e-12 0)
(42.1274 4.11875e-12 0)
(42.1216 5.28766e-12 0)
(42.116 9.65484e-12 0)
(42.1109 1.31723e-11 0)
(42.106 1.47972e-11 0)
(42.1015 1.35159e-11 0)
(42.0972 1.34706e-11 0)
(42.0932 1.20602e-11 0)
(42.0895 1.16189e-11 0)
(42.0859 1.07943e-11 0)
(42.0826 1.08883e-11 0)
(42.0793 9.63205e-12 0)
(42.0761 1.30035e-11 0)
(42.0731 8.12692e-12 0)
(42.07 1.18807e-11 0)
(42.0669 3.12786e-12 0)
(42.0639 1.33723e-11 0)
(42.0607 -2.80483e-11 0)
(42.0575 3.68859e-11 0)
(42.0541 -1.0661e-10 0)
(42.0507 1.08272e-10 0)
(42.0471 -3.79912e-10 0)
(42.0435 -7.22002e-11 0)
(42.0398 -3.28911e-10 0)
(42.036 4.51135e-09 0)
(42.0322 1.52323e-08 0)
(42.0285 -4.5083e-08 0)
(42.0249 3.11875e-08 0)
(42.0215 -4.50088e-09 0)
(42.0183 -2.01886e-08 0)
(42.0154 -1.21413e-08 0)
(42.0128 6.48687e-08 0)
(42.0106 -6.70591e-08 0)
(42.0088 5.69907e-08 0)
(42.0074 -2.90044e-08 0)
(42.0065 -2.36021e-08 0)
(42.0059 1.13681e-09 0)
(42.0057 -1.49271e-09 0)
(42.0058 -9.22804e-10 0)
(42.0061 5.36537e-10 0)
(42.0067 9.98057e-09 0)
(42.0075 -1.87403e-08 0)
(42.0084 1.02553e-09 0)
(42.0094 -3.19703e-08 0)
(42.0104 1.39991e-08 0)
(42.0115 -1.9678e-08 0)
(42.0126 1.36721e-08 0)
(42.0137 -3.05144e-08 0)
(42.0148 8.64912e-09 0)
(42.0157 -2.32249e-08 0)
(42.0165 1.18517e-08 0)
(42.0171 -2.62017e-08 0)
(42.0175 -4.69646e-08 0)
(42.0175 1.90658e-07 0)
(42.0171 -4.36617e-07 0)
(42.0164 3.43138e-07 0)
(42.0151 -1.83953e-07 0)
(42.0134 -1.11495e-07 0)
(42.0113 8.7977e-09 0)
(42.0087 -7.49476e-08 0)
(42.0057 1.33407e-08 0)
(42.0024 -4.20689e-08 0)
(41.9989 1.93893e-07 0)
(41.9953 1.21491e-06 0)
(41.9918 9.13215e-06 0)
(41.9884 6.41626e-05 0)
(41.9853 0.000455025 0)
(41.9825 0.00322079 0)
(41.9785 0.0226694 0)
(41.9603 0.159573 0)
(41.8092 0.730036 0)
(42.7 -0.000128308 0)
(42.7 -9.9145e-05 0)
(42.6997 -8.59167e-05 0)
(42.6993 -8.54391e-05 0)
(42.6991 -8.54701e-05 0)
(42.6988 -8.51083e-05 0)
(42.6986 -8.48551e-05 0)
(42.6984 -8.471e-05 0)
(42.6981 -8.46096e-05 0)
(42.6978 -8.45359e-05 0)
(42.6974 -8.44837e-05 0)
(42.6971 -8.44493e-05 0)
(42.6968 -8.44299e-05 0)
(42.6965 -8.44225e-05 0)
(42.6962 -8.44528e-05 0)
(42.6959 -8.44373e-05 0)
(42.6956 -8.4474e-05 0)
(42.6953 -8.45132e-05 0)
(42.695 -8.45539e-05 0)
(42.6947 -8.45982e-05 0)
(42.6944 -8.46445e-05 0)
(42.694 -8.46907e-05 0)
(42.6936 -8.47358e-05 0)
(42.6932 -8.47779e-05 0)
(42.6928 -8.48149e-05 0)
(42.6923 -8.48444e-05 0)
(42.6917 -8.48617e-05 0)
(42.691 -8.48604e-05 0)
(42.6903 -8.48315e-05 0)
(42.6894 -8.47613e-05 0)
(42.6884 -8.4631e-05 0)
(42.6873 -8.44159e-05 0)
(42.6861 -8.40844e-05 0)
(42.6847 -8.35984e-05 0)
(42.6831 -8.29137e-05 0)
(42.6814 -8.19818e-05 0)
(42.6795 -8.07525e-05 0)
(42.6774 -7.91769e-05 0)
(42.6751 -7.72123e-05 0)
(42.6727 -7.48257e-05 0)
(42.67 -7.19986e-05 0)
(42.6672 -6.87298e-05 0)
(42.6643 -6.50384e-05 0)
(42.6611 -6.0964e-05 0)
(42.6578 -5.65658e-05 0)
(42.6544 -5.19199e-05 0)
(42.6508 -4.71151e-05 0)
(42.6471 -4.22475e-05 0)
(42.6433 -3.7415e-05 0)
(42.6394 -3.27112e-05 0)
(42.6354 -2.82202e-05 0)
(42.6313 -2.40128e-05 0)
(42.6272 -2.01435e-05 0)
(42.623 -1.66492e-05 0)
(42.6188 -1.35492e-05 0)
(42.6145 -1.08468e-05 0)
(42.6102 -8.53089e-06 0)
(42.6059 -6.57943e-06 0)
(42.6015 -4.96213e-06 0)
(42.5971 -3.64355e-06 0)
(42.5926 -2.58585e-06 0)
(42.5882 -1.75088e-06 0)
(42.5836 -1.10197e-06 0)
(42.579 -6.05176e-07 0)
(42.5743 -2.28394e-07 0)
(42.5695 5.22004e-08 0)
(42.5646 2.57841e-07 0)
(42.5597 4.06482e-07 0)
(42.5546 5.12131e-07 0)
(42.5494 5.85996e-07 0)
(42.544 6.36772e-07 0)
(42.5385 6.71022e-07 0)
(42.5329 6.93623e-07 0)
(42.5271 7.08127e-07 0)
(42.5212 7.17092e-07 0)
(42.5151 7.22321e-07 0)
(42.5089 7.25087e-07 0)
(42.5025 7.26283e-07 0)
(42.4961 7.26508e-07 0)
(42.4895 7.26192e-07 0)
(42.4828 7.25675e-07 0)
(42.4761 7.25112e-07 0)
(42.4693 7.24571e-07 0)
(42.4624 7.24071e-07 0)
(42.4556 7.23785e-07 0)
(42.4487 7.23897e-07 0)
(42.4419 7.24407e-07 0)
(42.4351 7.25223e-07 0)
(42.4283 7.26311e-07 0)
(42.4216 7.27715e-07 0)
(42.415 7.29421e-07 0)
(42.4084 7.31396e-07 0)
(42.4019 7.33583e-07 0)
(42.3955 7.35908e-07 0)
(42.3891 7.38216e-07 0)
(42.3828 7.40338e-07 0)
(42.3765 7.4218e-07 0)
(42.3702 7.43746e-07 0)
(42.3639 7.45076e-07 0)
(42.3576 7.46229e-07 0)
(42.3513 7.47311e-07 0)
(42.3449 7.48009e-07 0)
(42.3384 7.4832e-07 0)
(42.3318 7.48256e-07 0)
(42.325 7.47976e-07 0)
(42.3181 7.47469e-07 0)
(42.3111 7.46533e-07 0)
(42.3038 7.45113e-07 0)
(42.2964 7.43255e-07 0)
(42.2888 7.41035e-07 0)
(42.2809 7.38447e-07 0)
(42.2729 7.35527e-07 0)
(42.2647 7.3237e-07 0)
(42.2563 7.29091e-07 0)
(42.2478 7.25801e-07 0)
(42.2391 7.22553e-07 0)
(42.2304 7.19402e-07 0)
(42.2216 7.16413e-07 0)
(42.2128 7.13688e-07 0)
(42.204 7.11469e-07 0)
(42.1953 7.08756e-07 0)
(42.1867 7.06392e-07 0)
(42.1783 7.04618e-07 0)
(42.1701 7.03407e-07 0)
(42.1622 7.0248e-07 0)
(42.1545 7.01584e-07 0)
(42.1472 7.00775e-07 0)
(42.1403 7.00063e-07 0)
(42.1337 6.99482e-07 0)
(42.1274 6.98894e-07 0)
(42.1215 6.98086e-07 0)
(42.116 6.96939e-07 0)
(42.1108 6.9548e-07 0)
(42.106 6.93811e-07 0)
(42.1015 6.91898e-07 0)
(42.0972 6.89718e-07 0)
(42.0932 6.87251e-07 0)
(42.0895 6.85235e-07 0)
(42.0859 6.81083e-07 0)
(42.0825 6.76575e-07 0)
(42.0793 6.72951e-07 0)
(42.0761 6.69105e-07 0)
(42.073 6.64802e-07 0)
(42.07 6.59823e-07 0)
(42.0669 6.54647e-07 0)
(42.0638 6.49133e-07 0)
(42.0607 6.43407e-07 0)
(42.0575 6.37652e-07 0)
(42.0541 6.31978e-07 0)
(42.0507 6.26437e-07 0)
(42.0471 6.20786e-07 0)
(42.0435 6.15422e-07 0)
(42.0397 6.10744e-07 0)
(42.036 6.09916e-07 0)
(42.0322 6.15118e-07 0)
(42.0285 5.53794e-07 0)
(42.0249 6.35939e-07 0)
(42.0215 5.91533e-07 0)
(42.0183 5.78228e-07 0)
(42.0153 5.83425e-07 0)
(42.0128 6.69767e-07 0)
(42.0106 5.41272e-07 0)
(42.0088 6.59462e-07 0)
(42.0074 5.68933e-07 0)
(42.0065 5.82784e-07 0)
(42.0059 6.12199e-07 0)
(42.0057 6.10886e-07 0)
(42.0058 6.15443e-07 0)
(42.0061 6.16889e-07 0)
(42.0067 6.29721e-07 0)
(42.0075 5.99644e-07 0)
(42.0084 6.23044e-07 0)
(42.0094 5.87825e-07 0)
(42.0104 6.34984e-07 0)
(42.0115 5.98605e-07 0)
(42.0126 6.28903e-07 0)
(42.0137 5.85146e-07 0)
(42.0147 6.27306e-07 0)
(42.0157 5.88186e-07 0)
(42.0165 6.25495e-07 0)
(42.0171 5.7898e-07 0)
(42.0175 5.56292e-07 0)
(42.0175 7.98938e-07 0)
(42.0171 1.03944e-07 0)
(42.0163 9.57301e-07 0)
(42.0151 4.44763e-07 0)
(42.0134 4.56242e-07 0)
(42.0112 6.01444e-07 0)
(42.0087 4.86341e-07 0)
(42.0057 5.93655e-07 0)
(42.0024 5.0073e-07 0)
(41.9989 7.20538e-07 0)
(41.9953 1.33715e-06 0)
(41.9918 6.79873e-06 0)
(41.9885 4.4701e-05 0)
(41.9866 0.000317308 0)
(41.9919 0.00227655 0)
(42.0457 0.0164982 0)
(42.2504 0.134992 0)
(45.3823 0.568353 0)
(42.6983 -0.000101142 0)
(42.6964 -9.2613e-05 0)
(42.6944 -8.99721e-05 0)
(42.6922 -9.09393e-05 0)
(42.6901 -9.16923e-05 0)
(42.6881 -9.21334e-05 0)
(42.6861 -9.24802e-05 0)
(42.684 -9.27622e-05 0)
(42.682 -9.29832e-05 0)
(42.6799 -9.31565e-05 0)
(42.6778 -9.32947e-05 0)
(42.6757 -9.34076e-05 0)
(42.6736 -9.35027e-05 0)
(42.6714 -9.35849e-05 0)
(42.6693 -9.36781e-05 0)
(42.6672 -9.37308e-05 0)
(42.6651 -9.38046e-05 0)
(42.663 -9.38765e-05 0)
(42.6609 -9.39445e-05 0)
(42.6588 -9.40099e-05 0)
(42.6567 -9.40722e-05 0)
(42.6545 -9.41307e-05 0)
(42.6524 -9.41846e-05 0)
(42.6501 -9.42326e-05 0)
(42.6479 -9.4273e-05 0)
(42.6456 -9.43031e-05 0)
(42.6432 -9.43185e-05 0)
(42.6407 -9.43122e-05 0)
(42.6381 -9.42741e-05 0)
(42.6355 -9.41892e-05 0)
(42.6327 -9.40367e-05 0)
(42.6298 -9.37892e-05 0)
(42.6267 -9.34116e-05 0)
(42.6236 -9.28617e-05 0)
(42.6202 -9.20906e-05 0)
(42.6167 -9.10447e-05 0)
(42.6131 -8.96685e-05 0)
(42.6093 -8.79084e-05 0)
(42.6054 -8.57172e-05 0)
(42.6013 -8.30587e-05 0)
(42.5971 -7.99126e-05 0)
(42.5928 -7.62781e-05 0)
(42.5884 -7.21764e-05 0)
(42.5839 -6.76514e-05 0)
(42.5794 -6.27689e-05 0)
(42.5748 -5.7613e-05 0)
(42.5701 -5.22821e-05 0)
(42.5655 -4.68825e-05 0)
(42.5608 -4.15225e-05 0)
(42.5562 -3.63056e-05 0)
(42.5515 -3.1325e-05 0)
(42.5469 -2.6659e-05 0)
(42.5423 -2.23678e-05 0)
(42.5377 -1.84925e-05 0)
(42.5332 -1.50544e-05 0)
(42.5287 -1.2057e-05 0)
(42.5242 -9.48814e-06 0)
(42.5197 -7.32325e-06 0)
(42.5152 -5.52852e-06 0)
(42.5107 -4.06426e-06 0)
(42.5062 -2.88799e-06 0)
(42.5016 -1.95708e-06 0)
(42.497 -1.23135e-06 0)
(42.4924 -6.75458e-07 0)
(42.4877 -2.56327e-07 0)
(42.4829 5.35816e-08 0)
(42.4781 2.79293e-07 0)
(42.4731 4.41909e-07 0)
(42.468 5.57384e-07 0)
(42.4628 6.38152e-07 0)
(42.4575 6.93754e-07 0)
(42.452 7.31385e-07 0)
(42.4464 7.56365e-07 0)
(42.4406 7.72577e-07 0)
(42.4347 7.82785e-07 0)
(42.4286 7.88959e-07 0)
(42.4224 7.92454e-07 0)
(42.4161 7.9421e-07 0)
(42.4097 7.94866e-07 0)
(42.4031 7.94857e-07 0)
(42.3964 7.94516e-07 0)
(42.3897 7.94003e-07 0)
(42.3829 7.93392e-07 0)
(42.3761 7.92706e-07 0)
(42.3693 7.92064e-07 0)
(42.3624 7.91624e-07 0)
(42.3556 7.91414e-07 0)
(42.3488 7.91369e-07 0)
(42.3421 7.91458e-07 0)
(42.3354 7.9171e-07 0)
(42.3288 7.92149e-07 0)
(42.3223 7.92769e-07 0)
(42.3158 7.93532e-07 0)
(42.3094 7.94376e-07 0)
(42.303 7.95183e-07 0)
(42.2967 7.95833e-07 0)
(42.2904 7.96237e-07 0)
(42.2841 7.96402e-07 0)
(42.2779 7.96381e-07 0)
(42.2716 7.96268e-07 0)
(42.2652 7.96181e-07 0)
(42.2588 7.95915e-07 0)
(42.2524 7.95447e-07 0)
(42.2458 7.94754e-07 0)
(42.239 7.93962e-07 0)
(42.2322 7.93079e-07 0)
(42.2251 7.91963e-07 0)
(42.2179 7.90532e-07 0)
(42.2105 7.88798e-07 0)
(42.2029 7.8683e-07 0)
(42.1951 7.84621e-07 0)
(42.1871 7.82194e-07 0)
(42.1789 7.79594e-07 0)
(42.1705 7.7691e-07 0)
(42.162 7.74202e-07 0)
(42.1533 7.71516e-07 0)
(42.1446 7.68882e-07 0)
(42.1358 7.6632e-07 0)
(42.127 7.63898e-07 0)
(42.1182 7.61795e-07 0)
(42.1095 7.59343e-07 0)
(42.101 7.57015e-07 0)
(42.0926 7.54987e-07 0)
(42.0844 7.53355e-07 0)
(42.0765 7.51961e-07 0)
(42.0689 7.50621e-07 0)
(42.0616 7.49338e-07 0)
(42.0547 7.4815e-07 0)
(42.0481 7.47102e-07 0)
(42.0418 7.46144e-07 0)
(42.036 7.45125e-07 0)
(42.0305 7.43927e-07 0)
(42.0253 7.42554e-07 0)
(42.0205 7.41087e-07 0)
(42.016 7.39529e-07 0)
(42.0117 7.3787e-07 0)
(42.0078 7.36079e-07 0)
(42.004 7.34661e-07 0)
(42.0005 7.32009e-07 0)
(41.9971 7.29068e-07 0)
(41.9939 7.26618e-07 0)
(41.9907 7.24127e-07 0)
(41.9877 7.21445e-07 0)
(41.9846 7.18414e-07 0)
(41.9816 7.15303e-07 0)
(41.9785 7.12035e-07 0)
(41.9754 7.08681e-07 0)
(41.9721 7.0534e-07 0)
(41.9688 7.02116e-07 0)
(41.9654 6.9902e-07 0)
(41.9619 6.95905e-07 0)
(41.9582 6.92835e-07 0)
(41.9545 6.90095e-07 0)
(41.9508 6.88508e-07 0)
(41.947 6.89222e-07 0)
(41.9433 6.73728e-07 0)
(41.9397 6.91316e-07 0)
(41.9363 6.81402e-07 0)
(41.9331 6.77455e-07 0)
(41.9302 6.8038e-07 0)
(41.9277 6.99723e-07 0)
(41.9255 6.70317e-07 0)
(41.9237 7.01278e-07 0)
(41.9224 6.79612e-07 0)
(41.9214 6.83155e-07 0)
(41.9208 6.90198e-07 0)
(41.9206 6.90596e-07 0)
(41.9207 6.93442e-07 0)
(41.9211 6.91688e-07 0)
(41.9217 6.98488e-07 0)
(41.9225 6.90445e-07 0)
(41.9234 7.03842e-07 0)
(41.9244 6.92092e-07 0)
(41.9255 7.03384e-07 0)
(41.9266 6.91742e-07 0)
(41.9277 7.03898e-07 0)
(41.9288 6.931e-07 0)
(41.9299 7.05674e-07 0)
(41.9308 6.93752e-07 0)
(41.9317 7.01923e-07 0)
(41.9323 6.88989e-07 0)
(41.9327 6.854e-07 0)
(41.9327 7.44013e-07 0)
(41.9323 5.90751e-07 0)
(41.9316 7.76639e-07 0)
(41.9304 6.91106e-07 0)
(41.9287 6.52888e-07 0)
(41.9265 7.09172e-07 0)
(41.9239 6.65343e-07 0)
(41.921 7.04813e-07 0)
(41.9177 6.6767e-07 0)
(41.9142 7.24854e-07 0)
(41.9107 8.00257e-07 0)
(41.9071 1.67859e-06 0)
(41.9039 7.56317e-06 0)
(41.902 5.00657e-05 0)
(41.9075 0.000362022 0)
(41.9647 0.00286196 0)
(42.1873 0.0394216 0)
(47.4373 0.161149 0)
(37.7566 1.28296 -3.16419e-15)
(36.6872 3.68067 6.34682e-15)
(36.2745 6.41213 -1.1899e-14)
(35.8793 9.18189 2.4583e-14)
(35.2665 11.9363 -2.53564e-14)
(34.4964 14.684 -1.58274e-15)
(33.5868 17.4314 1.08626e-19)
(32.3698 20.0575 -2.21249e-14)
(30.6807 22.3976 -1.02715e-13)
(28.5515 24.3647 1.01239e-13)
(26.2855 26.1859 -2.53537e-14)
(24.6231 28.6874 -5.19999e-14)
(23.6856 32.5061 2.65077e-14)
(22.7052 37.1369 0)
(20.8745 41.1837 2.45486e-14)
(18.0116 43.3058 2.45472e-14)
(14.5128 43.6597 -2.45824e-14)
(10.8986 43.1421 2.46799e-14)
(7.43591 42.0905 1.93867e-16)
(4.25267 42.7741 -1.92171e-16)
(38.9449 2.02473 0)
(38.3104 4.93736 0)
(37.9038 8.14776 -1.61095e-15)
(37.3997 11.3384 -3.21817e-15)
(36.656 14.4735 8.03345e-15)
(35.7325 17.5762 1.60338e-14)
(34.6069 20.7287 0)
(33.0223 23.9218 9.59755e-15)
(30.8564 26.8332 1.59928e-14)
(28.2266 29.2184 -3.83773e-14)
(25.6791 30.9387 2.56377e-14)
(24.2921 32.5619 1.27292e-14)
(23.5993 35.503 -1.25754e-14)
(22.3567 39.9188 1.24324e-14)
(19.4434 44.8504 0)
(15.0578 48.2772 -1.54818e-15)
(10.3119 49.4011 1.54551e-15)
(5.5434 49.1731 -5.4159e-15)
(1.05423 47.8014 -7.77239e-16)
(0.771492 46.1487 0)
(41.7612 1.60555 -4.10726e-17)
(41.7622 2.64786 -2.08735e-14)
(41.8648 3.70657 2.11996e-14)
(42.0517 4.7586 -2.03761e-14)
(42.2738 5.8721 -2.23502e-14)
(42.4909 7.11323 8.31928e-14)
(42.6867 8.50948 -4.21167e-14)
(42.8649 10.0907 4.08234e-14)
(42.9785 11.9256 -8.30037e-14)
(42.9206 14.0746 1.3252e-15)
(42.5528 16.5365 4.08705e-14)
(41.6555 19.2123 0)
(40.3786 21.756 -4.09331e-14)
(39.1601 23.9498 4.10221e-14)
(38.3663 25.897 -3.3138e-16)
(37.8623 27.9833 0)
(37.1081 30.4397 3.31903e-16)
(35.8541 33.1423 0)
(34.0239 35.9648 0)
(31.6095 38.7133 0)
(45.9191 2.60073 6.2831e-16)
(45.6486 5.97708 -6.30371e-15)
(44.639 9.99317 -1.26337e-15)
(43.4454 14.115 2.52406e-15)
(42.3582 18.1816 -2.51331e-15)
(41.3124 22.1839 -4.78159e-19)
(40.1401 26.1163 -9.93726e-15)
(38.6883 29.9344 0)
(36.9199 33.621 0)
(34.8393 37.17 -4.88917e-15)
(32.425 40.5346 4.86458e-15)
(29.7007 43.709 0)
(26.6596 46.6519 -4.81738e-15)
(23.3132 49.3318 4.80046e-15)
(19.6771 51.711 -4.78416e-15)
(15.7797 53.7442 9.53845e-15)
(11.676 55.3931 -4.75928e-15)
(7.44252 56.6367 0)
(3.18098 57.492 -2.36806e-15)
(-0.701312 57.9423 0)
(48.8894 1.79552 -9.58511e-16)
(49.8514 4.60141 7.34758e-15)
(49.5562 7.97242 5.11158e-15)
(48.744 11.5059 1.02154e-14)
(47.9174 15.1698 0)
(47.0974 18.9631 0)
(46.1444 22.8372 1.01145e-14)
(44.9309 26.7083 2.51729e-15)
(43.3898 30.5583 -5.01182e-15)
(41.527 34.3223 2.49555e-15)
(39.3064 37.9706 1.98784e-14)
(36.7507 41.4562 -1.23752e-14)
(33.862 44.7273 1.23343e-14)
(30.6572 47.7267 -2.4586e-15)
(27.1597 50.3932 -9.81166e-15)
(23.3958 52.6687 -1.71477e-14)
(19.404 54.5 -8.56822e-15)
(15.23 55.8223 -1.22414e-15)
(10.959 56.5085 7.04594e-15)
(6.85298 56.2233 3.07264e-16)
(1.16889 53.1612 0)
(0.883139 58.7706 0)
(1.06442 59.0877 0)
(1.09201 57.8421 0)
(1.08036 57.4932 0)
(1.04302 57.9202 0)
(1.04969 58.2873 0)
(1.06083 58.3127 0)
(1.06211 58.2091 0)
(1.05985 58.1428 0)
(1.05659 58.1187 0)
(1.05342 58.1039 0)
(1.05066 58.0831 0)
(1.04807 58.0567 0)
(1.04556 58.0296 0)
(1.04318 58.0053 0)
(1.04103 57.9852 0)
(1.03915 57.9693 0)
(1.03756 57.9572 0)
(1.03621 57.9486 0)
(1.03509 57.9431 0)
(1.03415 57.9397 0)
(1.03337 57.9374 0)
(1.03268 57.9349 0)
(1.03201 57.931 0)
(1.03117 57.9255 0)
(1.02971 57.922 0)
(1.02657 57.9331 0)
(1.02366 57.9659 0)
(1.02306 58.0035 0)
(1.02462 58.0234 0)
(1.02563 58.0192 0)
(1.02588 58.002 0)
(1.02543 57.9827 0)
(1.02456 57.9635 0)
(1.02337 57.9452 0)
(1.02182 57.9292 0)
(1.01974 57.9161 0)
(1.01687 57.9065 0)
(1.01294 57.8998 0)
(1.00771 57.895 0)
(1.00074 57.8906 0)
(0.991634 57.8847 0)
(0.980013 57.8763 0)
(0.965501 57.865 0)
(0.947708 57.8517 0)
(0.926313 57.8365 0)
(0.901072 57.8181 0)
(0.871846 57.7927 0)
(0.838585 57.7537 0)
(0.801386 57.6926 0)
(0.760566 57.6002 0)
(0.716617 57.4679 0)
(0.670215 57.2889 0)
(0.622134 57.0582 0)
(0.573175 56.7715 0)
(0.524093 56.4249 0)
(0.475551 56.014 0)
(0.428077 55.5321 0)
(0.382047 54.9715 0)
(0.337655 54.3239 0)
(0.295315 53.5818 0)
(0.255091 52.7426 0)
(0.217334 51.8112 0)
(0.182585 50.8014 0)
(0.151286 49.7375 0)
(0.123534 48.654 0)
(0.0998771 47.5892 0)
(0.0800298 46.5812 0)
(0.0637285 45.6625 0)
(0.0505709 44.8552 0)
(0.0400439 44.1696 0)
(0.0316511 43.6049 0)
(0.0249364 43.1522 0)
(0.0195454 42.7977 0)
(0.0152154 42.5254 0)
(0.0117423 42.3198 0)
(0.00897119 42.1665 0)
(0.00677902 42.0535 0)
(0.00506363 41.9707 0)
(0.00373769 41.9105 0)
(0.00272528 41.8666 0)
(0.00196399 41.8347 0)
(0.00139855 41.8112 0)
(0.000984258 41.7937 0)
(0.000684753 41.7803 0)
(0.000471029 41.7698 0)
(0.00032045 41.7613 0)
(0.000215673 41.754 0)
(0.000143649 41.7475 0)
(9.47254e-05 41.7415 0)
(6.1878e-05 41.7357 0)
(4.00744e-05 41.7301 0)
(2.57623e-05 41.7245 0)
(1.647e-05 41.7187 0)
(1.05014e-05 41.7129 0)