/*--------------------------------*- C++ -*----------------------------------*\
| =========                 |                                                 |
| \\      /  F ield         | OpenFOAM: The Open Source CFD Toolbox           |
|  \\    /   O peration     | Version:  3.0.x                                 |
|   \\  /    A nd           | Web:      www.OpenFOAM.org                      |
|    \\/     M anipulation  |                                                 |
\*---------------------------------------------------------------------------*/
FoamFile
{
    version     2.0;
    format      ascii;
    class       surfaceScalarField;
    location    "0.36";
    object      phi;
}
// * * * * * * * * * * * * * * * * * * * * * * * * * * * * * * * * * * * * * //

dimensions      [1 0 -1 0 0 0 0];

internalField   nonuniform List<scalar> 
12415
(
5.79695
0.000327747
5.79663
0.000235074
5.79631
0.000224672
5.796
0.000226692
5.79569
0.000227129
5.79539
0.000226913
5.79508
0.000226848
5.79479
0.000226845
5.79449
0.000226842
5.7942
0.000226839
5.79391
0.000226842
5.79362
0.000226851
5.79334
0.000226868
5.79305
0.000226895
5.79277
0.000226932
5.79248
0.000226979
5.79219
0.000227019
5.79191
0.000227113
5.79164
0.000227183
5.79136
0.000227257
5.79108
0.000227343
5.79079
0.000227432
5.79049
0.000227521
5.79019
0.00022761
5.78987
0.000227701
5.78956
0.000227794
5.78924
0.000227904
5.78893
0.000228084
5.78862
0.000227982
5.78832
0.000228197
5.78802
0.000228311
5.78774
0.000228425
5.78746
0.00022854
5.78719
0.000228653
5.78694
0.000228761
5.78669
0.000228859
5.78644
0.000228939
5.7862
0.000228993
5.78597
0.000229
5.78574
0.00022895
5.78551
0.000228817
5.7853
0.000228562
5.78509
0.000228149
5.78489
0.000227529
5.78471
0.000226635
5.78453
0.000225403
5.78436
0.000223744
5.78418
0.000221575
5.784
0.000218805
5.78382
0.000215343
5.78363
0.000211107
5.78344
0.000206029
5.78324
0.000200057
5.78303
0.000193168
5.78281
0.000185356
5.7826
0.000176665
5.78237
0.000167164
5.78215
0.000156945
5.78193
0.000146129
5.7817
0.000134947
5.78148
0.000123447
5.78126
0.000111876
5.78105
0.000100409
5.78085
8.92148e-05
5.78066
7.84495e-05
5.78049
6.82479e-05
5.78033
5.87224e-05
5.78019
4.99535e-05
5.78006
4.1994e-05
5.77996
3.48697e-05
5.77988
2.85797e-05
5.77982
2.30995e-05
5.77979
1.83888e-05
5.77977
1.43945e-05
5.77978
1.10384e-05
5.77981
8.28486e-06
5.77985
6.01181e-06
5.77992
4.18902e-06
5.77999
2.73538e-06
5.78008
1.59043e-06
5.78018
7.00524e-07
5.78028
1.61162e-08
5.78038
-5.01901e-07
5.78047
-8.88993e-07
5.78056
-1.17382e-06
5.78064
-1.38057e-06
5.7807
-1.5283e-06
5.78074
-1.63152e-06
5.78077
-1.70189e-06
5.78077
-1.74787e-06
5.78075
-1.77911e-06
5.7807
-1.79602e-06
5.78063
-1.80712e-06
5.78053
-1.80443e-06
5.78041
-1.80475e-06
5.78027
-1.80044e-06
5.78011
-1.79565e-06
5.77993
-1.79079e-06
5.77974
-1.78655e-06
5.77955
-1.78359e-06
5.77935
-1.78167e-06
5.77916
-1.78197e-06
5.77897
-1.78342e-06
5.77879
-1.78712e-06
5.77864
-1.79183e-06
5.7785
-1.79868e-06
5.7784
-1.80642e-06
5.77832
-1.8157e-06
5.77827
-1.82538e-06
5.77825
-1.83558e-06
5.77826
-1.84447e-06
5.77831
-1.85589e-06
5.77837
-1.86344e-06
5.77847
-1.8758e-06
5.77859
-1.88352e-06
5.77872
-1.89029e-06
5.77887
-1.8956e-06
5.77902
-1.89909e-06
5.77918
-1.90089e-06
5.77933
-1.90076e-06
5.77946
-1.89859e-06
5.77959
-1.89451e-06
5.77968
-1.88894e-06
5.77976
-1.88045e-06
5.77979
-1.8713e-06
5.7798
-1.85886e-06
5.77976
-1.85498e-06
5.77969
-1.83329e-06
5.77957
-1.82248e-06
5.77941
-1.80613e-06
5.7792
-1.79419e-06
5.77896
-1.78047e-06
5.77868
-1.76896e-06
5.77838
-1.75913e-06
5.77805
-1.7509e-06
5.7777
-1.74482e-06
5.77735
-1.74302e-06
5.777
-1.74182e-06
5.77666
-1.74658e-06
5.77635
-1.75175e-06
5.77606
-1.76227e-06
5.77581
-1.77306e-06
5.7756
-1.7877e-06
5.77545
-1.80237e-06
5.77534
-1.81895e-06
5.77528
-1.83588e-06
5.77528
-1.85092e-06
5.77532
-1.86683e-06
5.77541
-1.88089e-06
5.77553
-1.89466e-06
5.7757
-1.90885e-06
5.77589
-1.91717e-06
5.7761
-1.92635e-06
5.77632
-1.92998e-06
5.77655
-1.93245e-06
5.77678
-1.93186e-06
5.777
-1.93069e-06
5.7772
-1.92343e-06
5.77737
-1.9184e-06
5.77751
-1.90491e-06
5.77761
-1.89563e-06
5.77766
-1.87819e-06
5.77765
-1.86665e-06
5.77759
-1.85555e-06
5.77746
-1.82201e-06
5.77727
-1.79598e-06
5.77701
-1.78579e-06
5.77669
-1.75853e-06
5.77631
-1.74357e-06
5.77587
-1.72355e-06
5.7754
-1.71402e-06
5.77491
-1.70066e-06
5.7744
-1.70149e-06
5.77389
-1.69905e-06
5.77341
-1.70776e-06
5.77296
-1.71899e-06
5.77258
-1.73785e-06
5.77226
-1.76138e-06
5.77202
-1.78519e-06
5.77186
-1.81392e-06
5.7718
-1.84531e-06
5.77181
-1.8727e-06
5.7719
-1.87722e-06
5.77206
-1.91215e-06
5.77227
-1.95915e-06
5.77252
-1.93884e-06
5.77281
-1.98507e-06
5.77312
-1.95381e-06
5.77345
-1.99095e-06
5.77378
-1.96357e-06
5.77413
-1.97364e-06
5.77448
-1.86116e-06
5.77483
-1.30007e-06
5.77518
2.90899e-06
5.77548
3.20523e-05
5.77554
0.000235835
5.77413
0.00166069
5.7627
0.0116026
5.67214
0.0906599
0.447598
5.22455
11.5947
0.000260487
11.5945
0.000215695
11.5944
0.00018946
11.5942
0.00019405
11.5941
0.00019533
11.594
0.000194728
11.5938
0.000194556
11.5937
0.000194565
11.5936
0.000194569
11.5935
0.000194569
11.5934
0.000194578
11.5934
0.000194594
11.5933
0.000194617
11.5932
0.000194649
11.5931
0.00019469
11.593
0.000194739
11.5929
0.000194788
11.5928
0.00019487
11.5928
0.000194948
11.5927
0.000195015
11.5926
0.000195104
11.5925
0.00019519
11.5924
0.000195277
11.5923
0.000195366
11.5922
0.000195455
11.592
0.000195547
11.5919
0.000195651
11.5917
0.000195788
11.5916
0.000195775
11.5915
0.000195933
11.5914
0.000196046
11.5913
0.000196155
11.5912
0.000196265
11.5912
0.000196374
11.5912
0.000196478
11.5912
0.000196574
11.5912
0.000196654
11.5912
0.000196711
11.5912
0.000196728
11.5912
0.000196696
11.5913
0.000196592
11.5913
0.000196383
11.5914
0.000196035
11.5915
0.000195513
11.5916
0.000194745
11.5917
0.000193692
11.5919
0.000192266
11.592
0.000190398
11.5921
0.000188011
11.5922
0.000185024
11.5923
0.00018137
11.5923
0.000176986
11.5923
0.000171832
11.5923
0.000165885
11.5923
0.000159145
11.5922
0.000151646
11.5922
0.000143452
11.592
0.000134646
11.5919
0.00012532
11.5918
0.000115693
11.5916
0.00010579
11.5914
9.58366e-05
11.5912
8.59773e-05
11.591
7.63574e-05
11.5908
6.71127e-05
11.5905
5.8356e-05
11.5904
5.01859e-05
11.5902
4.26697e-05
11.59
3.58508e-05
11.5899
2.97519e-05
11.5898
2.43712e-05
11.5897
1.96852e-05
11.5897
1.56605e-05
11.5897
1.22493e-05
11.5897
9.38882e-06
11.5898
7.03674e-06
11.5899
5.10244e-06
11.59
3.54986e-06
11.5902
2.31371e-06
11.5904
1.34023e-06
11.5906
5.85703e-07
11.5908
4.41219e-09
11.591
-4.35236e-07
11.5912
-7.64345e-07
11.5913
-1.00714e-06
11.5915
-1.18369e-06
11.5916
-1.30991e-06
11.5917
-1.39839e-06
11.5917
-1.45882e-06
11.5917
-1.49848e-06
11.5917
-1.52487e-06
11.5916
-1.54004e-06
11.5914
-1.54912e-06
11.5912
-1.54738e-06
11.591
-1.54743e-06
11.5907
-1.54381e-06
11.5904
-1.53974e-06
11.59
-1.5356e-06
11.5896
-1.53201e-06
11.5892
-1.52942e-06
11.5888
-1.52783e-06
11.5885
-1.52808e-06
11.5881
-1.52935e-06
11.5877
-1.53242e-06
11.5874
-1.53659e-06
11.5871
-1.54236e-06
11.5869
-1.54902e-06
11.5868
-1.55754e-06
11.5866
-1.56487e-06
11.5866
-1.57393e-06
11.5866
-1.58186e-06
11.5867
-1.5913e-06
11.5868
-1.59826e-06
11.587
-1.60832e-06
11.5873
-1.61522e-06
11.5875
-1.62089e-06
11.5878
-1.62545e-06
11.5881
-1.6285e-06
11.5884
-1.63007e-06
11.5887
-1.62989e-06
11.589
-1.62809e-06
11.5892
-1.62458e-06
11.5894
-1.61974e-06
11.5896
-1.6126e-06
11.5896
-1.60456e-06
11.5896
-1.59443e-06
11.5896
-1.58965e-06
11.5894
-1.57309e-06
11.5892
-1.56226e-06
11.5888
-1.54899e-06
11.5884
-1.5384e-06
11.5879
-1.52685e-06
11.5874
-1.51712e-06
11.5868
-1.50812e-06
11.5861
-1.50195e-06
11.5854
-1.49552e-06
11.5847
-1.49555e-06
11.584
-1.49261e-06
11.5833
-1.49904e-06
11.5827
-1.50094e-06
11.5821
-1.51272e-06
11.5816
-1.51902e-06
11.5812
-1.53416e-06
11.5809
-1.54459e-06
11.5806
-1.56038e-06
11.5805
-1.57429e-06
11.5805
-1.58703e-06
11.5806
-1.60489e-06
11.5808
-1.60771e-06
11.581
-1.62504e-06
11.5813
-1.63783e-06
11.5817
-1.64361e-06
11.5821
-1.65257e-06
11.5826
-1.65454e-06
11.583
-1.65719e-06
11.5835
-1.65605e-06
11.5839
-1.65706e-06
11.5843
-1.64693e-06
11.5846
-1.64907e-06
11.5849
-1.62955e-06
11.5851
-1.62799e-06
11.5852
-1.60883e-06
11.5852
-1.60222e-06
11.585
-1.58914e-06
11.5848
-1.56524e-06
11.5844
-1.53199e-06
11.5839
-1.53949e-06
11.5832
-1.50405e-06
11.5825
-1.49944e-06
11.5816
-1.47394e-06
11.5807
-1.47412e-06
11.5796
-1.45285e-06
11.5786
-1.46467e-06
11.5776
-1.45443e-06
11.5766
-1.46495e-06
11.5758
-1.47371e-06
11.575
-1.49087e-06
11.5743
-1.51257e-06
11.5738
-1.52902e-06
11.5735
-1.55365e-06
11.5734
-1.58653e-06
11.5734
-1.62954e-06
11.5736
-1.5667e-06
11.5739
-1.62586e-06
11.5743
-1.7216e-06
11.5748
-1.63117e-06
11.5754
-1.74607e-06
11.576
-1.63496e-06
11.5767
-1.73962e-06
11.5773
-1.65324e-06
11.578
-1.68043e-06
11.5787
-1.34719e-06
11.5794
3.04944e-07
11.5801
1.27636e-05
11.5807
9.90839e-05
11.5808
0.000702723
11.5781
0.00492196
11.5558
0.0341978
11.4065
0.240212
1.12746
10.7266
139.136
-0.000260487
139.134
-0.000215695
139.132
-0.00018946
139.131
-0.00019405
139.129
-0.00019533
139.127
-0.000194728
139.126
-0.000194556
139.125
-0.000194565
139.123
-0.000194569
139.122
-0.000194569
139.121
-0.000194578
139.12
-0.000194594
139.119
-0.000194617
139.118
-0.000194649
139.117
-0.00019469
139.116
-0.000194739
139.115
-0.000194788
139.114
-0.00019487
139.113
-0.000194948
139.112
-0.000195015
139.112
-0.000195104
139.11
-0.00019519
139.109
-0.000195277
139.108
-0.000195366
139.106
-0.000195455
139.104
-0.000195547
139.102
-0.000195651
139.101
-0.000195788
139.099
-0.000195775
139.098
-0.000195933
139.097
-0.000196046
139.096
-0.000196155
139.095
-0.000196265
139.094
-0.000196374
139.094
-0.000196478
139.094
-0.000196574
139.094
-0.000196654
139.094
-0.000196711
139.094
-0.000196728
139.095
-0.000196696
139.095
-0.000196592
139.096
-0.000196383
139.097
-0.000196035
139.098
-0.000195513
139.099
-0.000194745
139.101
-0.000193692
139.102
-0.000192266
139.104
-0.000190398
139.105
-0.000188011
139.106
-0.000185024
139.107
-0.00018137
139.108
-0.000176986
139.108
-0.000171832
139.108
-0.000165885
139.108
-0.000159145
139.107
-0.000151646
139.106
-0.000143452
139.105
-0.000134646
139.103
-0.00012532
139.101
-0.000115693
139.099
-0.00010579
139.097
-9.58366e-05
139.094
-8.59773e-05
139.092
-7.63574e-05
139.089
-6.71127e-05
139.087
-5.8356e-05
139.084
-5.01859e-05
139.082
-4.26697e-05
139.08
-3.58508e-05
139.079
-2.97518e-05
139.078
-2.43712e-05
139.077
-1.96852e-05
139.076
-1.56605e-05
139.076
-1.22493e-05
139.077
-9.38882e-06
139.078
-7.03674e-06
139.079
-5.10245e-06
139.081
-3.54986e-06
139.083
-2.31371e-06
139.085
-1.34023e-06
139.087
-5.857e-07
139.089
-4.40878e-09
139.092
4.35238e-07
139.094
7.64344e-07
139.096
1.00714e-06
139.098
1.18369e-06
139.099
1.30991e-06
139.1
1.39839e-06
139.101
1.45882e-06
139.101
1.49847e-06
139.1
1.52487e-06
139.099
1.54004e-06
139.097
1.54912e-06
139.095
1.54738e-06
139.092
1.54743e-06
139.089
1.54381e-06
139.085
1.53974e-06
139.08
1.5356e-06
139.076
1.53201e-06
139.071
1.52942e-06
139.066
1.52783e-06
139.062
1.52807e-06
139.057
1.52935e-06
139.053
1.53243e-06
139.049
1.53659e-06
139.046
1.54236e-06
139.043
1.54902e-06
139.041
1.55755e-06
139.04
1.56487e-06
139.039
1.57393e-06
139.04
1.58187e-06
139.041
1.5913e-06
139.042
1.59825e-06
139.044
1.60832e-06
139.047
1.61522e-06
139.05
1.62089e-06
139.054
1.62546e-06
139.057
1.6285e-06
139.061
1.63007e-06
139.065
1.62989e-06
139.068
1.6281e-06
139.071
1.62458e-06
139.073
1.61974e-06
139.075
1.61261e-06
139.076
1.60456e-06
139.076
1.59444e-06
139.075
1.58969e-06
139.073
1.57286e-06
139.07
1.56231e-06
139.066
1.54925e-06
139.061
1.53828e-06
139.055
1.52697e-06
139.049
1.5169e-06
139.041
1.50849e-06
139.033
1.50124e-06
139.025
1.49676e-06
139.016
1.4939e-06
139.008
1.4948e-06
139
1.4964e-06
138.992
1.50339e-06
138.985
1.50963e-06
138.979
1.52214e-06
138.974
1.53139e-06
138.97
1.54754e-06
138.968
1.5569e-06
138.966
1.57947e-06
138.966
1.5967e-06
138.967
1.53633e-06
138.969
1.657e-06
138.972
1.63377e-06
138.976
1.63495e-06
138.981
1.64514e-06
138.986
1.65076e-06
138.991
1.65562e-06
138.996
1.65636e-06
139.002
1.65941e-06
139.007
1.64906e-06
139.012
1.66041e-06
139.016
1.6241e-06
139.019
1.65468e-06
139.021
1.61097e-06
139.022
1.62351e-06
139.022
1.60652e-06
139.021
1.49482e-06
139.018
1.58792e-06
139.013
1.65157e-06
139.007
1.46867e-06
138.999
1.53505e-06
138.99
1.46924e-06
138.979
1.4966e-06
138.968
1.44985e-06
138.956
1.47878e-06
138.944
1.42956e-06
138.931
1.48069e-06
138.92
1.45363e-06
138.909
1.48617e-06
138.9
1.47458e-06
138.892
1.52743e-06
138.886
1.51919e-06
138.882
1.56729e-06
138.881
1.558e-06
138.881
1.46565e-06
138.883
1.92605e-06
138.887
1.67151e-06
138.892
1.41346e-06
138.898
1.81781e-06
138.905
1.52507e-06
138.912
1.86218e-06
138.92
1.50992e-06
138.928
1.90429e-06
138.936
1.55923e-06
138.945
2.26146e-06
138.953
4.17685e-06
138.961
2.07735e-05
138.969
0.00013649
138.976
0.000964928
138.98
0.0068925
138.969
0.049527
138.821
0.390234
1.67774
138.271
11.5947
-0.000327747
11.5945
-0.000235074
11.5944
-0.000224672
11.5942
-0.000226692
11.5941
-0.000227129
11.594
-0.000226913
11.5938
-0.000226848
11.5937
-0.000226845
11.5936
-0.000226842
11.5935
-0.000226839
11.5934
-0.000226842
11.5934
-0.000226851
11.5933
-0.000226868
11.5932
-0.000226895
11.5931
-0.000226932
11.593
-0.000226979
11.5929
-0.000227019
11.5928
-0.000227113
11.5928
-0.000227183
11.5927
-0.000227257
11.5926
-0.000227343
11.5925
-0.000227432
11.5924
-0.000227521
11.5923
-0.00022761
11.5922
-0.000227701
11.592
-0.000227794
11.5919
-0.000227904
11.5917
-0.000228084
11.5916
-0.000227982
11.5915
-0.000228197
11.5914
-0.000228311
11.5913
-0.000228425
11.5912
-0.00022854
11.5912
-0.000228653
11.5912
-0.000228761
11.5912
-0.000228859
11.5912
-0.000228939
11.5912
-0.000228993
11.5912
-0.000229
11.5912
-0.00022895
11.5913
-0.000228817
11.5913
-0.000228562
11.5914
-0.000228149
11.5915
-0.000227529
11.5916
-0.000226635
11.5917
-0.000225403
11.5919
-0.000223744
11.592
-0.000221575
11.5921
-0.000218805
11.5922
-0.000215343
11.5923
-0.000211107
11.5923
-0.000206029
11.5923
-0.000200057
11.5923
-0.000193168
11.5923
-0.000185356
11.5922
-0.000176665
11.5922
-0.000167164
11.592
-0.000156945
11.5919
-0.000146129
11.5918
-0.000134947
11.5916
-0.000123447
11.5914
-0.000111876
11.5912
-0.000100409
11.591
-8.92148e-05
11.5908
-7.84495e-05
11.5905
-6.82479e-05
11.5904
-5.87224e-05
11.5902
-4.99535e-05
11.59
-4.1994e-05
11.5899
-3.48697e-05
11.5898
-2.85797e-05
11.5897
-2.30995e-05
11.5897
-1.83888e-05
11.5897
-1.43945e-05
11.5897
-1.10384e-05
11.5898
-8.28486e-06
11.5899
-6.01181e-06
11.59
-4.18902e-06
11.5902
-2.73538e-06
11.5904
-1.59044e-06
11.5906
-7.0052e-07
11.5908
-1.61181e-08
11.591
5.01901e-07
11.5912
8.88991e-07
11.5913
1.17382e-06
11.5915
1.38056e-06
11.5916
1.5283e-06
11.5917
1.63152e-06
11.5917
1.70189e-06
11.5917
1.74787e-06
11.5917
1.7791e-06
11.5916
1.79603e-06
11.5914
1.80712e-06
11.5912
1.80443e-06
11.591
1.80475e-06
11.5907
1.80044e-06
11.5904
1.79565e-06
11.59
1.79079e-06
11.5896
1.78655e-06
11.5892
1.78359e-06
11.5888
1.78167e-06
11.5885
1.78197e-06
11.5881
1.78342e-06
11.5877
1.78712e-06
11.5874
1.79183e-06
11.5871
1.79868e-06
11.5869
1.80641e-06
11.5868
1.8157e-06
11.5866
1.82538e-06
11.5866
1.83557e-06
11.5866
1.84447e-06
11.5867
1.85589e-06
11.5868
1.86343e-06
11.587
1.8758e-06
11.5873
1.88352e-06
11.5875
1.89029e-06
11.5878
1.8956e-06
11.5881
1.89909e-06
11.5884
1.90089e-06
11.5887
1.90076e-06
11.589
1.89859e-06
11.5892
1.89451e-06
11.5894
1.88894e-06
11.5896
1.88045e-06
11.5896
1.8713e-06
11.5896
1.85886e-06
11.5896
1.85504e-06
11.5894
1.83303e-06
11.5892
1.82255e-06
11.5888
1.80631e-06
11.5884
1.79414e-06
11.5879
1.78052e-06
11.5874
1.76888e-06
11.5868
1.75926e-06
11.5861
1.75064e-06
11.5854
1.74527e-06
11.5847
1.74243e-06
11.584
1.7426e-06
11.5833
1.74562e-06
11.5827
1.75263e-06
11.5821
1.76115e-06
11.5816
1.77418e-06
11.5812
1.7867e-06
11.5809
1.8034e-06
11.5806
1.81776e-06
11.5805
1.83762e-06
11.5805
1.85464e-06
11.5806
1.84135e-06
11.5808
1.89816e-06
11.581
1.89887e-06
11.5813
1.90786e-06
11.5817
1.91772e-06
11.5821
1.9257e-06
11.5826
1.93036e-06
11.583
1.93215e-06
11.5835
1.93302e-06
11.5839
1.92795e-06
11.5843
1.92806e-06
11.5846
1.90985e-06
11.5849
1.91348e-06
11.5851
1.8898e-06
11.5852
1.88323e-06
11.5852
1.86876e-06
11.585
1.81875e-06
11.5848
1.83338e-06
11.5844
1.83715e-06
11.5839
1.76159e-06
11.5832
1.76913e-06
11.5825
1.73321e-06
11.5816
1.7313e-06
11.5807
1.70572e-06
11.5796
1.70953e-06
11.5786
1.68947e-06
11.5776
1.70805e-06
11.5766
1.70389e-06
11.5758
1.72325e-06
11.575
1.73231e-06
11.5743
1.76646e-06
11.5738
1.78181e-06
11.5735
1.81859e-06
11.5734
1.83553e-06
11.5734
1.81813e-06
11.5736
2.00215e-06
11.5739
1.92359e-06
11.5743
1.85479e-06
11.5748
2.00192e-06
11.5754
1.91027e-06
11.576
2.03082e-06
11.5767
1.91324e-06
11.5773
2.04845e-06
11.578
1.93298e-06
11.5787
2.17228e-06
11.5794
2.82483e-06
11.5801
8.4844e-06
11.5809
4.79651e-05
11.5821
0.000330896
11.5871
0.00237431
11.6193
0.017702
11.8194
0.190367
0.723958
12.7731
5.79695
5.79663
5.79631
5.796
5.79569
5.79539
5.79508
5.79479
5.79449
5.7942
5.79391
5.79362
5.79334
5.79305
5.79277
5.79248
5.79219
5.79191
5.79164
5.79136
5.79108
5.79079
5.79049
5.79019
5.78987
5.78956
5.78924
5.78893
5.78862
5.78832
5.78802
5.78774
5.78746
5.78719
5.78694
5.78669
5.78644
5.7862
5.78597
5.78574
5.78551
5.7853
5.78509
5.78489
5.78471
5.78453
5.78436
5.78418
5.784
5.78382
5.78363
5.78344
5.78324
5.78303
5.78281
5.7826
5.78237
5.78215
5.78193
5.7817
5.78148
5.78126
5.78105
5.78085
5.78066
5.78049
5.78033
5.78019
5.78006
5.77996
5.77988
5.77982
5.77979
5.77977
5.77978
5.77981
5.77985
5.77992
5.77999
5.78008
5.78018
5.78028
5.78038
5.78047
5.78056
5.78064
5.7807
5.78074
5.78077
5.78077
5.78075
5.7807
5.78063
5.78053
5.78041
5.78027
5.78011
5.77993
5.77974
5.77955
5.77935
5.77916
5.77897
5.77879
5.77864
5.7785
5.7784
5.77832
5.77827
5.77825
5.77826
5.77831
5.77837
5.77847
5.77859
5.77872
5.77887
5.77902
5.77918
5.77933
5.77946
5.77959
5.77968
5.77976
5.77979
5.7798
5.77976
5.77969
5.77957
5.77941
5.7792
5.77896
5.77868
5.77838
5.77805
5.7777
5.77735
5.777
5.77666
5.77635
5.77606
5.77581
5.7756
5.77545
5.77534
5.77528
5.77528
5.77532
5.77541
5.77553
5.7757
5.77589
5.7761
5.77632
5.77655
5.77678
5.777
5.7772
5.77737
5.77751
5.77761
5.77766
5.77765
5.77759
5.77746
5.77727
5.77701
5.77669
5.77631
5.77587
5.7754
5.77491
5.7744
5.77389
5.77341
5.77296
5.77258
5.77226
5.77202
5.77186
5.7718
5.77181
5.7719
5.77206
5.77227
5.77252
5.77281
5.77312
5.77345
5.77378
5.77413
5.77448
5.77483
5.77519
5.77557
5.7762
5.77882
5.7967
5.98717
6.71112
5.09731
0.127222
5.10501
-0.00771944
5.10193
0.00306621
5.10659
-0.00468106
5.11867
-0.0120821
5.12717
-0.00846739
5.13328
-0.00598436
5.19767
-0.0641746
5.36432
-0.166605
5.5754
-0.211392
5.69521
-0.120425
5.66883
0.0258767
5.56751
0.101028
5.41754
0.149711
5.25952
0.157842
5.20626
0.0537354
5.45751
-0.249321
6.01315
-0.553679
6.75146
-0.737608
-1.08159
7.83251
10.6733
0.180546
10.6934
-0.0279316
10.7429
-0.0464405
10.7994
-0.0612308
10.8647
-0.0773317
10.9241
-0.0678254
10.9737
-0.0553449
11.1342
-0.224202
11.4904
-0.522786
11.958
-0.679734
12.2829
-0.446653
12.329
-0.0209577
12.209
0.220659
11.9475
0.41087
11.5825
0.522619
11.2869
0.35023
11.4869
-0.444965
12.2451
-1.30863
13.3534
-1.84504
-2.86766
15.1378
138.326
0.125517
138.406
-0.108294
138.418
-0.0594235
138.265
0.091385
137.958
0.229039
137.567
0.323074
137.136
0.37544
136.541
0.368356
135.619
0.399817
134.567
0.371311
133.756
0.363582
133.402
0.332482
133.321
0.299743
133.462
0.267138
133.746
0.234837
133.89
0.202019
133.27
0.167541
131.835
0.122147
129.944
0.0443414
-0.175358
127.255
12.7165
0.182114
12.6155
-0.0073822
12.5655
-0.0095044
12.6343
0.0224104
12.8072
0.0559614
13.0468
0.0830747
13.3204
0.101175
13.5856
0.103516
13.8723
0.112644
14.1374
0.106561
14.3989
0.10213
14.6401
0.0912762
14.8616
0.0781449
15.064
0.0645924
15.2479
0.0509944
15.4131
0.0367398
15.5617
0.018923
15.6949
-0.0111067
15.8106
-0.0714482
-0.256965
15.8921
6.89322
6.8858
6.87625
6.89858
6.95443
7.03732
7.13826
7.24186
7.35435
7.461
7.56317
7.65444
7.73256
7.79713
7.8481
7.88482
7.90371
7.89257
7.82108
7.56406
7.75716
0.0690277
7.58335
0.172895
7.81045
-0.225912
8.00495
-0.194942
8.04684
-0.0424726
8.02565
0.0210987
8.00662
0.0188983
8.01028
-0.00385382
8.01836
-0.00841466
8.01878
-0.000776873
8.01507
0.00341419
8.01032
0.00442322
8.00654
0.00343851
8.00403
0.00219332
8.00243
0.00131135
8.00143
0.000731695
8.00082
0.000370693
8.00039
0.000210005
7.99995
0.000245908
7.99927
0.000503102
7.99821
0.000899877
7.9967
0.00135709
7.9947
0.00186855
7.99219
0.00238569
7.98921
0.00287544
7.9858
0.00331001
7.98204
0.0036678
7.97802
0.00393703
7.97383
0.00411327
7.96958
0.00419814
7.96533
0.0041974
7.96118
0.00412062
7.95719
0.00397526
7.95341
0.00377257
7.9499
0.00352389
7.94669
0.00324381
7.94379
0.00294287
7.9412
0.00263699
7.93893
0.00234045
7.93693
0.0020687
7.93517
0.00183615
7.93359
0.00165471
7.93212
0.00153176
7.93072
0.00147248
7.92929
0.00147714
7.92779
0.00154092
7.92617
0.00165225
7.92442
0.00177224
7.92261
0.0018035
7.92117
0.00141683
7.92148
-0.000347023
7.92719
-0.0057476
7.93708
-0.00998727
7.94619
-0.00926176
7.95078
-0.00477294
7.95076
-0.000167363
7.94793
0.0026425
7.94482
0.00290555
7.94171
0.00288342
7.93867
0.00281108
7.93553
0.00289724
7.93206
0.00321259
7.92793
0.00386535
7.9228
0.00485754
7.91629
0.0062292
7.908
0.00800468
7.89752
0.0101996
7.88445
0.0127961
7.86843
0.0157551
7.84914
0.0190182
7.82636
0.0225262
7.79986
0.0262465
7.76942
0.0301787
7.73473
0.0344113
7.69531
0.0391099
7.65049
0.0445142
7.59933
0.0508709
7.54065
0.0583974
7.47315
0.0671931
7.3956
0.077214
7.3068
0.0882909
7.20619
0.0995177
7.09446
0.11055
6.9734
0.120289
6.84532
0.127612
6.71364
0.131395
6.58261
0.131403
6.45609
0.127107
6.33757
0.118702
6.23011
0.107334
6.13572
0.0940516
6.05523
0.0800467
5.98838
0.0663642
5.93411
0.053726
5.89093
0.0426341
5.85715
0.0332354
5.8311
0.0255152
5.81123
0.0193312
5.79622
0.0144778
5.78495
0.0107329
5.77652
0.00788423
5.77023
0.00574345
5.76553
0.00415169
5.76199
0.00297878
5.75931
0.00212292
5.75723
0.00150265
5.7556
0.0010563
5.75428
0.000737754
5.75317
0.000511887
5.75222
0.000352814
5.75136
0.000241525
5.75057
0.000164178
5.74983
0.00011077
5.74911
7.41318e-05
5.7484
4.91596e-05
5.7477
3.2249e-05
5.74699
2.08718e-05
5.74627
1.32673e-05
5.74553
8.21804e-06
5.74478
4.88796e-06
5.74401
2.70731e-06
5.74321
1.29044e-06
5.74238
3.77488e-07
5.74153
-2.05688e-07
5.74064
-5.71084e-07
5.73972
-7.97099e-07
5.73877
-9.32629e-07
5.73777
-1.01082e-06
5.73674
-1.05241e-06
5.73568
-1.07093e-06
5.73457
-1.07508e-06
5.73343
-1.07064e-06
5.73225
-1.06125e-06
5.73103
-1.04912e-06
5.72979
-1.03527e-06
5.72851
-1.0212e-06
5.72721
-1.02298e-06
5.72589
-9.85352e-07
5.72455
-9.77336e-07
5.72319
-9.69354e-07
5.72181
-9.61532e-07
5.72043
-9.56099e-07
5.71903
-9.50729e-07
5.71763
-9.48197e-07
5.71623
-9.46289e-07
5.71482
-9.45412e-07
5.7134
-9.45885e-07
5.71198
-9.47828e-07
5.71056
-9.50149e-07
5.70913
-9.53029e-07
5.70769
-9.56899e-07
5.70624
-9.60224e-07
5.70477
-9.64415e-07
5.7033
-9.68019e-07
5.7018
-9.72244e-07
5.70029
-9.76012e-07
5.69876
-9.79759e-07
5.6972
-9.8417e-07
5.69562
-9.86147e-07
5.69401
-9.86905e-07
5.69237
-9.82936e-07
5.69071
-9.87457e-07
5.689
-9.8332e-07
5.68726
-9.84521e-07
5.68548
-9.74742e-07
5.68365
-9.74593e-07
5.68177
-9.61056e-07
5.67984
-9.52317e-07
5.67784
-9.36991e-07
5.67578
-9.21062e-07
5.67365
-9.02062e-07
5.67145
-8.81091e-07
5.66917
-8.57704e-07
5.6668
-8.32186e-07
5.66436
-8.05141e-07
5.66184
-7.77602e-07
5.65923
-7.4711e-07
5.65654
-7.19063e-07
5.65377
-6.88042e-07
5.65093
-6.59791e-07
5.64802
-6.31146e-07
5.64504
-6.04201e-07
5.64201
-5.79616e-07
5.63892
-5.55847e-07
5.6358
-5.36336e-07
5.63265
-5.17301e-07
5.62947
-5.03769e-07
5.62628
-4.91182e-07
5.62308
-4.90183e-07
5.61989
-5.15607e-07
5.6167
-6.95452e-07
5.61352
-1.62425e-06
5.61035
-6.46893e-06
5.60721
-3.14181e-05
5.60419
-0.000160321
5.60184
-0.000826103
5.60297
-0.00431822
5.62312
-0.0233612
5.79095
-0.171055
-0.663541
6.45125
15.393
-0.198891
14.8533
0.711126
15.0395
-0.410021
15.3629
-0.519053
15.4775
-0.15819
15.4463
0.0521115
15.3966
0.0683025
15.3911
0.00113698
15.4052
-0.0230894
15.4099
-0.00615058
15.4045
0.00815124
15.3949
0.0133444
15.3861
0.0116186
15.3793
0.00834811
15.3743
0.00573354
15.3707
0.00375848
15.3684
0.00224247
15.3669
0.0011874
15.3661
0.000688173
15.3653
0.000905484
15.3643
0.00162976
15.3627
0.00263873
15.3604
0.00391895
15.3572
0.00531902
15.3532
0.00673114
15.3482
0.00805853
15.3425
0.00922098
15.3361
0.0101665
15.3292
0.0108671
15.322
0.0113153
15.3146
0.0115195
15.3071
0.0115027
15.2998
0.0112838
15.2926
0.0108954
15.2858
0.0103721
15.2794
0.00975859
15.2733
0.00909054
15.2676
0.00841833
15.2623
0.00779476
15.2572
0.00727314
15.2523
0.00690892
15.2473
0.006752
15.2422
0.00684087
15.2365
0.007209
15.2302
0.00787577
15.223
0.00884493
15.2146
0.0100997
15.2049
0.0115424
15.1938
0.0129032
15.1819
0.0131854
15.172
0.00950112
15.1732
-0.0070503
15.1879
-0.024919
15.2089
-0.0305801
15.2268
-0.0229454
15.2368
-0.0105363
15.239
0.000118328
15.2376
0.00392788
15.2338
0.00626038
15.2281
0.00801856
15.2205
0.0099683
15.2108
0.012412
15.1984
0.0157312
15.1827
0.0199575
15.1631
0.0252442
15.1389
0.0316499
15.1093
0.0391985
15.0737
0.0478292
15.0316
0.0573971
14.9823
0.0677008
14.9258
0.0785389
14.8617
0.0897637
14.7899
0.101372
14.7101
0.113574
14.6219
0.126786
14.5242
0.141598
14.416
0.158592
14.2956
0.178185
14.1617
0.200438
14.0129
0.224922
13.8487
0.250444
13.6707
0.275755
13.4812
0.298763
13.2835
0.317171
13.0819
0.328664
12.882
0.331735
12.689
0.325422
12.507
0.309435
12.3402
0.285312
12.1916
0.255375
12.0626
0.222161
11.9535
0.188232
11.8632
0.155722
11.7898
0.126079
11.7312
0.100214
11.685
0.0783604
11.6491
0.0604029
11.6214
0.0459831
11.6002
0.0346208
11.584
0.0258093
11.5718
0.0190679
11.5624
0.0139704
11.5553
0.0101556
11.5499
0.00732761
11.5456
0.00525004
11.5422
0.00373468
11.5395
0.00263844
11.5372
0.00185141
11.5353
0.0012904
11.5335
0.000893329
11.5319
0.000614258
11.5304
0.000419481
11.529
0.000284473
11.5276
0.000191536
11.5262
0.000127997
11.5248
8.48532e-05
11.5234
5.57572e-05
11.5219
3.62691e-05
11.5205
2.33051e-05
11.5189
1.47399e-05
11.5174
9.12086e-06
11.5158
5.46174e-06
11.5141
3.09552e-06
11.5124
1.5761e-06
11.5107
6.12288e-07
11.5088
4.2387e-09
11.5069
-3.72767e-07
11.5049
-6.03651e-07
11.5029
-7.41304e-07
11.5007
-8.20255e-07
11.4985
-8.6258e-07
11.4962
-8.82396e-07
11.4938
-8.887e-07
11.4914
-8.86873e-07
11.4889
-8.79941e-07
11.4864
-8.68731e-07
11.4838
-8.89852e-07
11.4811
-8.3581e-07
11.4784
-8.32872e-07
11.4757
-8.3086e-07
11.473
-8.23073e-07
11.4702
-8.20292e-07
11.4674
-8.14501e-07
11.4646
-8.13651e-07
11.4618
-8.10567e-07
11.459
-8.116e-07
11.4561
-8.10506e-07
11.4533
-8.12588e-07
11.4504
-8.14883e-07
11.4476
-8.16694e-07
11.4447
-8.20463e-07
11.4418
-8.23489e-07
11.4389
-8.26793e-07
11.4359
-8.30007e-07
11.4329
-8.33613e-07
11.4299
-8.36617e-07
11.4268
-8.40179e-07
11.4237
-8.44003e-07
11.4205
-8.44137e-07
11.4173
-8.49946e-07
11.414
-8.38296e-07
11.4107
-8.50651e-07
11.4073
-8.39987e-07
11.4038
-8.4834e-07
11.4002
-8.28805e-07
11.3966
-8.41821e-07
11.3928
-8.20879e-07
11.3889
-8.18303e-07
11.3849
-8.02463e-07
11.3808
-7.89617e-07
11.3766
-7.72901e-07
11.3722
-7.55772e-07
11.3676
-7.35538e-07
11.3629
-7.13477e-07
11.358
-6.89931e-07
11.3529
-6.67777e-07
11.3477
-6.38835e-07
11.3423
-6.18167e-07
11.3368
-5.88722e-07
11.3311
-5.66567e-07
11.3253
-5.41048e-07
11.3193
-5.17744e-07
11.3133
-4.97753e-07
11.3071
-4.75667e-07
11.3008
-4.6125e-07
11.2945
-4.42489e-07
11.2882
-4.34088e-07
11.2818
-4.22914e-07
11.2754
-4.39668e-07
11.269
-5.30408e-07
11.2626
-1.06805e-06
11.2563
-3.80565e-06
11.2499
-1.80318e-05
11.2436
-9.12715e-05
11.2376
-0.000469532
11.2328
-0.0024219
11.2347
-0.0125556
11.2704
-0.065533
11.4608
-0.367856
-1.51754
12.3083
127.041
0.0284989
127.73
0.026074
127.24
0.0771346
126.665
0.052383
126.495
0.010291
126.554
-0.0104403
126.621
-0.00376344
126.615
0.000313677
126.588
-0.00264008
126.579
-0.00552649
126.585
-0.005416
126.595
-0.00483942
126.603
-0.00464865
126.609
-0.00475683
126.612
-0.00489543
126.615
-0.00500608
126.616
-0.00516221
126.618
-0.00538722
126.62
-0.00564222
126.623
-0.00586777
126.627
-0.00604511
126.633
-0.00619176
126.64
-0.00632142
126.649
-0.00643971
126.66
-0.00655127
126.672
-0.00665706
126.686
-0.00675711
126.701
-0.00684738
126.717
-0.00691997
126.734
-0.00696409
126.751
-0.00696896
126.769
-0.00693178
126.786
-0.00683857
126.803
-0.00669544
126.82
-0.00649828
126.837
-0.00626242
126.853
-0.00598837
126.868
-0.00567819
126.883
-0.00533611
126.897
-0.00496177
126.91
-0.00455904
126.923
-0.00414084
126.935
-0.00370198
126.947
-0.0032238
126.959
-0.00269227
126.971
-0.00207442
126.983
-0.00135977
126.995
-0.000692994
127.008
-5.55638e-05
127.019
0.000383725
127.026
0.000732537
127.016
0.000405126
126.99
-0.00209764
126.962
-0.00587321
126.944
-0.00828975
126.938
-0.00943954
126.944
-0.00985296
126.953
-0.0105619
126.966
-0.0120524
126.984
-0.014525
127.011
-0.0180795
127.048
-0.0228189
127.095
-0.0292633
127.153
-0.037602
127.225
-0.0483509
127.317
-0.0620239
127.432
-0.0790957
127.575
-0.0999749
127.752
-0.124855
127.968
-0.153597
128.226
-0.185527
128.529
-0.219318
128.878
-0.253113
129.269
-0.28447
129.701
-0.310808
130.166
-0.329822
130.658
-0.34034
131.172
-0.342198
131.702
-0.336341
132.245
-0.324222
132.796
-0.307608
133.353
-0.287782
133.911
-0.265351
134.462
-0.241377
134.999
-0.215899
135.512
-0.189858
135.993
-0.164234
136.432
-0.139796
136.825
-0.117125
137.166
-0.0967758
137.457
-0.0790256
137.698
-0.0638764
137.893
-0.0511893
138.049
-0.0406913
138.169
-0.032089
138.261
-0.0251032
138.328
-0.0194777
138.377
-0.0149857
138.411
-0.0114298
138.433
-0.00864128
138.445
-0.00647515
138.451
-0.0048088
138.452
-0.00353947
138.448
-0.00258294
138.442
-0.00186741
138.433
-0.00133857
138.423
-0.000951146
138.412
-0.000669978
138.399
-0.000467825
138.386
-0.000323817