/*--------------------------------*- C++ -*----------------------------------*\
| =========                 |                                                 |
| \\      /  F ield         | OpenFOAM: The Open Source CFD Toolbox           |
|  \\    /   O peration     | Version:  3.0.x                                 |
|   \\  /    A nd           | Web:      www.OpenFOAM.org                      |
|    \\/     M anipulation  |                                                 |
\*---------------------------------------------------------------------------*/
FoamFile
{
    version     2.0;
    format      ascii;
    class       volScalarField;
    location    "0.35";
    object      rho;
}
// * * * * * * * * * * * * * * * * * * * * * * * * * * * * * * * * * * * * * //

dimensions      [1 -3 0 0 0 0 0];

internalField   nonuniform List<scalar> 
6900
(
50.9121
50.9121
50.9121
50.9121
50.9121
50.9121
50.9121
50.9122
50.9122
50.9122
50.9122
50.9123
50.9123
50.9123
50.9123
50.9124
50.9125
50.9128
50.913
50.9132
50.9134
50.9135
50.9135
50.9136
50.9136
50.9136
50.9137
50.9138
50.9139
50.9141
50.9143
50.9145
50.9147
50.9149
50.9151
50.9153
50.9154
50.9155
50.9156
50.9156
50.9156
50.9157
50.9158
50.916
50.9162
50.9164
50.9166
50.9168
50.9169
50.9171
50.9172
50.9173
50.9174
50.9175
50.9175
50.9176
50.9176
50.9177
50.9177
50.9177
50.9177
50.9177
50.9177
50.9177
50.9177
50.9176
50.9176
50.9175
50.9175
50.9174
50.9174
50.9173
50.9172
50.9172
50.9171
50.9171
50.917
50.917
50.917
50.917
50.917
50.917
50.917
50.9171
50.9171
50.9172
50.9173
50.9174
50.9174
50.9175
50.9176
50.9177
50.9178
50.9178
50.9179
50.9179
50.918
50.918
50.918
50.918
50.9179
50.9179
50.9178
50.9178
50.9177
50.9176
50.9175
50.9174
50.9173
50.9172
50.9171
50.917
50.9169
50.9169
50.9168
50.9168
50.9168
50.9169
50.9169
50.917
50.9171
50.9172
50.9173
50.9174
50.9176
50.9178
50.9179
50.9181
50.9182
50.9183
50.9184
50.9185
50.9186
50.9187
50.9187
50.9187
50.9186
50.9186
50.9185
50.9184
50.9183
50.9182
50.9181
50.9179
50.9178
50.9177
50.9175
50.9174
50.9174
50.9173
50.9172
50.9172
50.9172
50.9173
50.9174
50.9175
50.9177
50.9178
50.9181
50.9183
50.9185
50.9188
50.9191
50.9193
50.9196
50.9198
50.92
50.9202
50.9203
50.9204
50.9204
50.9204
50.9204
50.9203
50.9202
50.9201
50.9199
50.9197
50.9196
50.9194
50.9192
50.919
50.9189
50.9187
50.9185
50.9184
50.9183
50.9183
50.9183
50.9183
50.9184
50.9185
50.9187
50.9189
50.9193
50.9196
50.92
50.9203
50.9212
50.9186
50.9123
50.9123
50.9123
50.9123
50.9123
50.9123
50.9123
50.9123
50.9123
50.9124
50.9124
50.9124
50.9124
50.9125
50.9125
50.9126
50.9127
50.9129
50.9131
50.9133
50.9135
50.9136
50.9137
50.9137
50.9138
50.9138
50.9138
50.9139
50.9141
50.9142
50.9144
50.9146
50.9148
50.915
50.9152
50.9154
50.9156
50.9157
50.9157
50.9157
50.9157
50.9158
50.9159
50.9161
50.9163
50.9165
50.9167
50.9169
50.9171
50.9172
50.9173
50.9174
50.9175
50.9176
50.9176
50.9177
50.9177
50.9178
50.9178
50.9178
50.9179
50.9179
50.9178
50.9178
50.9178
50.9178
50.9177
50.9177
50.9176
50.9175
50.9175
50.9174
50.9173
50.9173
50.9172
50.9172
50.9171
50.9171
50.9171
50.9171
50.9171
50.9171
50.9171
50.9172
50.9172
50.9173
50.9174
50.9175
50.9175
50.9176
50.9177
50.9178
50.9179
50.918
50.918
50.9181
50.9181
50.9181
50.9181
50.9181
50.918
50.918
50.9179
50.9179
50.9178
50.9177
50.9176
50.9175
50.9174
50.9173
50.9172
50.9171
50.917
50.917
50.917
50.9169
50.9169
50.917
50.917
50.9171
50.9172
50.9173
50.9174
50.9176
50.9177
50.9179
50.918
50.9182
50.9183
50.9184
50.9186
50.9186
50.9187
50.9188
50.9188
50.9188
50.9188
50.9187
50.9186
50.9185
50.9184
50.9183
50.9182
50.918
50.9179
50.9178
50.9177
50.9175
50.9175
50.9174
50.9174
50.9173
50.9174
50.9174
50.9175
50.9176
50.9178
50.9179
50.9182
50.9184
50.9186
50.9189
50.9192
50.9194
50.9197
50.9199
50.9201
50.9203
50.9204
50.9205
50.9205
50.9205
50.9205
50.9204
50.9203
50.9202
50.92
50.9198
50.9197
50.9195
50.9193
50.9191
50.919
50.9188
50.9187
50.9185
50.9184
50.9184
50.9184
50.9184
50.9185
50.9186
50.9188
50.9191
50.9194
50.9197
50.9201
50.9204
50.9212
50.919
50.9123
50.9123
50.9123
50.9123
50.9123
50.9123
50.9123
50.9123
50.9123
50.9124
50.9124
50.9124
50.9124
50.9125
50.9125
50.9126
50.9127
50.9129
50.9131
50.9133
50.9135
50.9136
50.9137
50.9137
50.9137
50.9138
50.9138
50.9139
50.9141
50.9142
50.9144
50.9146
50.9148
50.915
50.9152
50.9154
50.9156
50.9157
50.9157
50.9157
50.9157
50.9158
50.9159
50.9161
50.9163
50.9165
50.9167
50.9169
50.9171
50.9172
50.9173
50.9174
50.9175
50.9176
50.9176
50.9177
50.9177
50.9178
50.9178
50.9178
50.9179
50.9179
50.9178
50.9178
50.9178
50.9178
50.9177
50.9177
50.9176
50.9175
50.9175
50.9174
50.9173
50.9173
50.9172
50.9172
50.9171
50.9171
50.9171
50.9171
50.9171
50.9171
50.9171
50.9172
50.9172
50.9173
50.9174
50.9175
50.9175
50.9176
50.9177
50.9178
50.9179
50.918
50.918
50.9181
50.9181
50.9181
50.9181
50.9181
50.918
50.918
50.9179
50.9179
50.9178
50.9177
50.9176
50.9175
50.9174
50.9173
50.9172
50.9171
50.917
50.917
50.917
50.9169
50.9169
50.917
50.917
50.9171
50.9172
50.9173
50.9174
50.9176
50.9177
50.9179
50.918
50.9182
50.9183
50.9184
50.9186
50.9186
50.9187
50.9188
50.9188
50.9188
50.9188
50.9187
50.9186
50.9185
50.9184
50.9183
50.9182
50.918
50.9179
50.9178
50.9177
50.9175
50.9175
50.9174
50.9174
50.9173
50.9174
50.9174
50.9175
50.9176
50.9178
50.9179
50.9182
50.9184
50.9186
50.9189
50.9192
50.9194
50.9197
50.9199
50.9201
50.9203
50.9204
50.9205
50.9205
50.9205
50.9205
50.9204
50.9203
50.9202
50.92
50.9198
50.9197
50.9195
50.9193
50.9191
50.919
50.9188
50.9187
50.9185
50.9184
50.9184
50.9184
50.9184
50.9185
50.9186
50.9188
50.9191
50.9194
50.9197
50.9201
50.9204
50.9209
50.9212
50.9123
50.9123
50.9123
50.9123
50.9123
50.9123
50.9123
50.9123
50.9123
50.9124
50.9124
50.9124
50.9124
50.9125
50.9125
50.9126
50.9127
50.9129
50.9131
50.9133
50.9135
50.9136
50.9137
50.9137
50.9138
50.9138
50.9138
50.9139
50.9141
50.9142
50.9144
50.9146
50.9148
50.915
50.9152
50.9154
50.9156
50.9157
50.9157
50.9157
50.9157
50.9158
50.9159
50.9161
50.9163
50.9165
50.9167
50.9169
50.9171
50.9172
50.9173
50.9174
50.9175
50.9176
50.9176
50.9177
50.9177
50.9178
50.9178
50.9178
50.9179
50.9179
50.9178
50.9178
50.9178
50.9178
50.9177
50.9177
50.9176
50.9175
50.9175
50.9174
50.9173
50.9173
50.9172
50.9172
50.9171
50.9171
50.9171
50.9171
50.9171
50.9171
50.9171
50.9172
50.9172
50.9173
50.9174
50.9175
50.9175
50.9176
50.9177
50.9178
50.9179
50.918
50.918
50.9181
50.9181
50.9181
50.9181
50.9181
50.918
50.918
50.9179
50.9179
50.9178
50.9177
50.9176
50.9175
50.9174
50.9173
50.9172
50.9171
50.917
50.917
50.917
50.9169
50.9169
50.917
50.917
50.9171
50.9172
50.9173
50.9174
50.9176
50.9177
50.9179
50.918
50.9182
50.9183
50.9184
50.9186
50.9186
50.9187
50.9188
50.9188
50.9188
50.9188
50.9187
50.9186
50.9185
50.9184
50.9183
50.9182
50.918
50.9179
50.9178
50.9177
50.9175
50.9175
50.9174
50.9174
50.9173
50.9174
50.9174
50.9175
50.9176
50.9178
50.9179
50.9182
50.9184
50.9186
50.9189
50.9192
50.9194
50.9197
50.9199
50.9201
50.9203
50.9204
50.9205
50.9205
50.9205
50.9205
50.9204
50.9203
50.9202
50.92
50.9198
50.9197
50.9195
50.9193
50.9191
50.919
50.9188
50.9186
50.9185
50.9184
50.9184
50.9184
50.9184
50.9185
50.9186
50.9188
50.9191
50.9193
50.9197
50.92
50.9205
50.92
50.9268
50.9121
50.9121
50.9121
50.9121
50.9121
50.9121
50.9121
50.9122
50.9122
50.9122
50.9122
50.9123
50.9123
50.9123
50.9123
50.9124
50.9125
50.9128
50.913
50.9132
50.9134
50.9135
50.9135
50.9136
50.9136
50.9136
50.9137
50.9138
50.9139
50.9141
50.9143
50.9145
50.9147
50.9149
50.9151
50.9153
50.9154
50.9155
50.9156
50.9156
50.9156
50.9157
50.9158
50.916
50.9162
50.9164
50.9166
50.9168
50.9169
50.9171
50.9172
50.9173
50.9174
50.9175
50.9175
50.9176
50.9176
50.9177
50.9177
50.9177
50.9177
50.9177
50.9177
50.9177
50.9177
50.9176
50.9176
50.9175
50.9175
50.9174
50.9174
50.9173
50.9172
50.9172
50.9171
50.9171
50.917
50.917
50.917
50.917
50.917
50.917
50.917
50.9171
50.9171
50.9172
50.9173
50.9174
50.9174
50.9175
50.9176
50.9177
50.9178
50.9178
50.9179
50.9179
50.918
50.918
50.918
50.918
50.9179
50.9179
50.9178
50.9178
50.9177
50.9176
50.9175
50.9174
50.9173
50.9172
50.9171
50.917
50.9169
50.9169
50.9168
50.9168
50.9168
50.9169
50.9169
50.917
50.9171
50.9172
50.9173
50.9174
50.9176
50.9178
50.9179
50.9181
50.9182
50.9183
50.9184
50.9185
50.9186
50.9187
50.9187
50.9187
50.9186
50.9186
50.9185
50.9184
50.9183
50.9182
50.9181
50.9179
50.9178
50.9177
50.9175
50.9174
50.9174
50.9173
50.9172
50.9172
50.9172
50.9173
50.9174
50.9175
50.9177
50.9178
50.9181
50.9183
50.9185
50.9188
50.9191
50.9193
50.9196
50.9198
50.92
50.9202
50.9203
50.9204
50.9204
50.9204
50.9204
50.9203
50.9202
50.9201
50.9199
50.9197
50.9196
50.9194
50.9192
50.919
50.9189
50.9187
50.9185
50.9184
50.9183
50.9183
50.9183
50.9183
50.9184
50.9185
50.9187
50.919
50.9192
50.9196
50.9199
50.9205
50.9193
50.9327
50.9378
50.9449
50.9457
50.9437
50.9419
50.9401
50.9374
50.9342
50.9313
50.9313
50.9366
50.9386
50.9331
50.9209
50.9057
50.8946
50.8853
50.8767
50.8718
50.8849
50.9342
50.9378
50.9377
50.9359
50.9341
50.9323
50.9298
50.9265
50.9238
50.9241
50.93
50.9312
50.9239
50.9095
50.8951
50.8848
50.8761
50.8686
50.8645
50.8767
50.9224
50.9223
50.9212
50.9191
50.9163
50.9128
50.9085
50.9036
50.8973
50.8901
50.8815
50.8728
50.8646
50.857
50.8486
50.8387
50.8277
50.8159
50.803
50.7881
50.8984
50.8953
50.8963
50.898
50.8971
50.8934
50.8879
50.8805
50.8743
50.8667
50.8594
50.8522
50.8453
50.8383
50.8319
50.8264
50.8213
50.8172
50.8138
50.8116
50.8883
50.8758
50.8711
50.8706
50.8686
50.8636
50.8568
50.8484
50.8405
50.8314
50.8231
50.8141
50.8058
50.7972
50.7898
50.7827
50.7769
50.7717
50.768
50.7662
50.8532
50.8089
50.7994
50.8022
50.802
50.7986
50.797
50.7973
50.7976
50.7974
50.7974
50.7975
50.7977
50.7978
50.7979
50.798
50.798
50.798
50.798
50.798
50.798
50.798
50.7979
50.7979
50.7978
50.7978
50.7977
50.7976
50.7976
50.7975
50.7974
50.7973
50.7972
50.7971
50.797
50.7969
50.7968
50.7967
50.7965
50.7964
50.7962
50.796
50.7958
50.7957
50.7955
50.7953
50.7952
50.7951
50.795
50.795
50.7947
50.7943
50.794
50.7937
50.7935
50.7934
50.7932
50.7931
50.793
50.7928
50.7926
50.7924
50.7922
50.792
50.7918
50.7917
50.7916
50.7915
50.7915
50.7915
50.7915
50.7914
50.7911
50.7909
50.7909
50.7909
50.7909
50.7907
50.7891
50.7833
50.7766
50.7734
50.7729
50.7742
50.7806
50.7884
50.7931
50.7953
50.7959
50.7957
50.7952
50.7944
50.7935
50.7928
50.7922
50.7916
50.791
50.7905
50.79
50.7895
50.789
50.7886
50.7881
50.7877
50.7873
50.7868
50.7864
50.786
50.7856
50.7853
50.7849
50.7845
50.7842
50.7839
50.7836
50.7833
50.783
50.7827
50.7824
50.7822
50.7819
50.7817
50.7814
50.7812
50.7809
50.7807
50.7804
50.7801
50.7798
50.7795
50.7792
50.7789
50.7785
50.7782
50.7778
50.7774
50.777
50.7766
50.7761
50.7757
50.7752
50.7748
50.7743
50.7738
50.7733
50.7729
50.7724
50.7719
50.7715
50.771
50.7706
50.7702
50.7698
50.7694
50.7691
50.7688
50.7685
50.7682
50.768
50.7679
50.7678
50.7677
50.7677
50.7677
50.7677
50.7678
50.768
50.7681
50.7683
50.7686
50.7688
50.7691
50.7694
50.7696
50.7699
50.7702
50.7705
50.7708
50.7711
50.7713
50.7716
50.7719
50.7722
50.7724
50.7727
50.773
50.7733
50.7736
50.7739
50.7742
50.7745
50.7749
50.7752
50.7755
50.7759
50.7763
50.7766
50.7771
50.7763
50.7859
50.8501
50.808
50.7988
50.8016
50.8009
50.7976
50.7961
50.7963
50.7965
50.7963
50.7963
50.7965
50.7966
50.7967
50.7968
50.7968
50.7969
50.7969
50.7969
50.7969
50.7969
50.7969
50.7969
50.7969
50.7968
50.7968
50.7967
50.7967
50.7966
50.7965
50.7964
50.7963
50.7962
50.7961
50.796
50.7959
50.7958
50.7957
50.7955
50.7953
50.7951
50.7949
50.7947
50.7945
50.7944
50.7942
50.7939
50.7937
50.7936
50.7935
50.7933
50.7929
50.7927
50.7925
50.7924
50.7923
50.7922
50.792
50.7918
50.7916
50.7913
50.791
50.7907
50.7905
50.7903
50.7902
50.79
50.79
50.7898
50.7896
50.7892
50.789
50.7889
50.7889
50.789
50.789
50.7887
50.7869
50.7818
50.7771
50.7748
50.7744
50.7754
50.7804
50.7872
50.7917
50.7942
50.7952
50.7953
50.795
50.7946
50.7939
50.7933
50.7927
50.7921
50.7916
50.791
50.7905
50.7901
50.7896
50.7891
50.7887
50.7882
50.7878
50.7874
50.7869
50.7865
50.7861
50.7857
50.7854
50.785
50.7846
50.7843
50.784
50.7837
50.7834
50.7831
50.7828
50.7826
50.7823
50.782
50.7818
50.7815
50.7813
50.781
50.7808
50.7805
50.7802
50.7799
50.7796
50.7793
50.779
50.7786
50.7783
50.7779
50.7775
50.7771
50.7767
50.7762
50.7758
50.7753
50.7749
50.7744
50.7739
50.7734
50.773
50.7725
50.772
50.7716
50.7711
50.7707
50.7703
50.7699
50.7695
50.7692
50.7689
50.7686
50.7683
50.7682
50.768
50.7679
50.7678
50.7678
50.7678
50.7679
50.7679
50.7681
50.7682
50.7684
50.7687
50.7689
50.7692
50.7695
50.7697
50.77
50.7703
50.7706
50.7709
50.7712
50.7714
50.7717
50.772
50.7723
50.7725
50.7728
50.7731
50.7734
50.7737
50.774
50.7743
50.7746
50.775
50.7753
50.7756
50.776
50.7764
50.7767
50.7771
50.7769
50.7811
50.7547
50.7689
50.7788
50.7803
50.779
50.7784
50.7787
50.779
50.7793
50.7794
50.7795
50.7796
50.7797
50.7799
50.78
50.7802
50.7803
50.7805
50.7806
50.7808
50.7809
50.7809
50.781
50.781
50.781
50.781
50.7809
50.7808
50.7807
50.7806
50.7804
50.7803
50.7801
50.78
50.7799
50.7797
50.7797
50.7796
50.7795
50.7793
50.7792
50.779
50.7788
50.7785
50.7782
50.7779
50.7776
50.7773
50.7769
50.7765
50.776
50.7756
50.7753
50.775
50.7747
50.7745
50.7743
50.7744
50.7752
50.7778
50.781
50.7839
50.7863
50.7881
50.7895
50.7903
50.7909
50.7912
50.7914
50.7915
50.7916
50.7916
50.7916
50.7917
50.7917
50.7919
50.792
50.7924
50.7928
50.7932
50.7936
50.794
50.7943
50.7945
50.7945
50.7945
50.7943
50.7941
50.7938
50.7935
50.7932
50.7928
50.7924
50.7921
50.7917
50.7912
50.7908
50.7904
50.79
50.7895
50.7891
50.7886
50.7882
50.7878
50.7873
50.7869
50.7865
50.7861
50.7857
50.7854
50.785
50.7846
50.7843
50.784
50.7837
50.7834
50.7831
50.7828
50.7826
50.7823
50.782
50.7818
50.7815
50.7813
50.781
50.7808
50.7805
50.7802
50.7799
50.7796
50.7793
50.779
50.7786
50.7783
50.7779
50.7775
50.7771
50.7767
50.7762
50.7758
50.7753
50.7749
50.7744
50.7739
50.7734
50.773
50.7725
50.772
50.7716
50.7711
50.7707
50.7703
50.7699
50.7695
50.7692
50.7689
50.7686
50.7683
50.7682
50.768
50.7679
50.7678
50.7678
50.7678
50.7679
50.7679
50.7681
50.7682
50.7684
50.7687
50.7689
50.7692
50.7695
50.7697
50.77
50.7703
50.7706
50.7709
50.7712
50.7714
50.7717
50.772
50.7723
50.7725
50.7728
50.7731
50.7734
50.7737
50.774
50.7743
50.7746
50.775
50.7753
50.7756
50.776
50.7764
50.7768
50.7772
50.7777
50.7781
50.8033
50.7998
50.7986
50.7976
50.7965
50.7961
50.7961
50.7965
50.7967
50.7968
50.7969
50.7971
50.7972
50.7973
50.7974
50.7975
50.7975
50.7976
50.7976
50.7975
50.7975
50.7975
50.7974
50.7973
50.7972
50.7971
50.7971
50.797
50.7969
50.7968
50.7967
50.7966
50.7965
50.7964
50.7963
50.7962
50.7961
50.796
50.7959
50.7958
50.7957
50.7956
50.7955
50.7954
50.7952
50.795
50.7948
50.7946
50.7944
50.7942
50.7939
50.7937
50.7935
50.7933
50.7932
50.793
50.7929
50.7927
50.7926
50.7924
50.7923
50.7921
50.792
50.7918
50.7916
50.7914
50.7912
50.791
50.7906
50.7899
50.7892
50.7888
50.7886
50.7883
50.7872
50.7849
50.7828
50.7817
50.7815
50.7817
50.7828
50.7866
50.7907
50.7935
50.7951
50.7958
50.7958
50.7956
50.7952
50.7947
50.7941
50.7935
50.793
50.7924
50.7919
50.7915
50.791
50.7905
50.79
50.7896
50.7891
50.7887
50.7882
50.7878
50.7874
50.7869
50.7865
50.7861
50.7857
50.7854
50.785
50.7846
50.7843
50.784
50.7837
50.7834
50.7831
50.7828
50.7826
50.7823
50.782
50.7818
50.7815
50.7813
50.781
50.7808
50.7805
50.7802
50.7799
50.7796
50.7793
50.779
50.7786
50.7783
50.7779
50.7775
50.7771
50.7767
50.7762
50.7758
50.7753
50.7749
50.7744
50.7739
50.7734
50.773
50.7725
50.772
50.7716
50.7711
50.7707
50.7703
50.7699
50.7695
50.7692
50.7689
50.7686
50.7683
50.7682
50.768
50.7679
50.7678
50.7678
50.7678
50.7679
50.7679
50.7681
50.7682
50.7684
50.7687
50.7689
50.7692
50.7695
50.7697
50.77
50.7703
50.7706
50.7709
50.7712
50.7714
50.7717
50.772
50.7723
50.7725
50.7728
50.7731
50.7734
50.7737
50.774
50.7743
50.7746
50.775
50.7753
50.7756
50.776
50.7764
50.7768
50.7772
50.7782
50.7773
50.7874
50.7901
50.7897
50.789
50.788
50.7876
50.7877
50.788
50.7883
50.7884
50.7886
50.7888
50.7889
50.7891
50.7892
50.7892
50.7893
50.7893
50.7893
50.7893
50.7893
50.7892
50.7892
50.7891
50.7891
50.789
50.789
50.7889
50.7889
50.7888
50.7887
50.7887
50.7886
50.7886
50.7885
50.7885
50.7884
50.7884
50.7883
50.7882
50.7881
50.788
50.7878
50.7877
50.7875
50.7873
50.7871
50.7869
50.7866
50.7864
50.7862
50.786
50.7859
50.7857
50.7856
50.7855
50.7853
50.7852
50.7851
50.785
50.7848
50.7847
50.7845
50.7844
50.7842
50.784
50.7834
50.783
50.7828
50.7827
50.7828
50.7828
50.782
50.7782
50.7715
50.7675
50.7662
50.7664
50.7686
50.7752
50.7815
50.7861
50.7893
50.7913
50.7926
50.7933
50.7936
50.7937
50.7936
50.7934
50.7931
50.7927
50.7924
50.792
50.7916
50.7912
50.7907
50.7903
50.7899
50.7894
50.789
50.7885
50.7881
50.7877
50.7872
50.7868
50.7864
50.786
50.7856
50.7852
50.7849
50.7845
50.7842
50.7839
50.7836
50.7833
50.783
50.7827
50.7824
50.7822
50.7819
50.7817
50.7814
50.7812
50.7809
50.7807
50.7804
50.7801
50.7798
50.7795
50.7792
50.7789
50.7785
50.7782
50.7778
50.7774
50.777
50.7766
50.7761
50.7757
50.7752
50.7748
50.7743
50.7738
50.7733
50.7729
50.7724
50.7719
50.7715
50.771
50.7706
50.7702
50.7698
50.7694
50.7691
50.7688
50.7685
50.7682
50.768
50.7679
50.7678
50.7677
50.7677
50.7677
50.7677
50.7678
50.768
50.7681
50.7683
50.7686
50.7688
50.7691
50.7694
50.7696
50.7699
50.7702
50.7705
50.7708
50.7711
50.7713
50.7716
50.7719
50.7722
50.7724
50.7727
50.773
50.7733
50.7736
50.7739
50.7742
50.7745
50.7749
50.7752
50.7755
50.7759
50.7763
50.7767
50.7771
50.7781
50.7771
50.7485
50.7355
50.7308
50.7301
50.7279
50.723
50.7164
50.7093
50.7012
50.6932
50.685
50.6768
50.6692
50.6618
50.6554
50.6493
50.6442
50.6395
50.6361
50.6345
50.7574
50.7542
50.7549
50.7564
50.7554
50.7518
50.746
50.7406
50.7334
50.7273
50.7202
50.7136
50.7069
50.7008
50.6958
50.6909
50.6866
50.683
50.6802
50.6779
50.7792
50.7793
50.7784
50.7764
50.7738
50.7704
50.7663
50.761
50.7554
50.7492
50.743
50.7358
50.7274
50.718
50.7077
50.6962
50.6835
50.6716
50.6609
50.6523
50.79
50.7937
50.7938
50.7922
50.7908
50.7896
50.7887
50.7893
50.789
50.7845
50.7755
50.7675
50.7613
50.7558
50.7521
50.7552
50.7678
50.7747
50.7709
50.7532
50.7934
50.8005
50.8015
50.7998
50.7983
50.7969
50.7961
50.7963
50.796
50.7922
50.784
50.7756
50.769
50.7631
50.759
50.7621
50.7729
50.7815
50.7812
50.7665
50.657
50.662
50.6622
50.6618
50.6618
50.6622
50.6631
50.6639
50.6649
50.6659
50.6669
50.668
50.6692
50.6704
50.6717
50.673
50.6744
50.6758
50.6773
50.6788
50.6803
50.6819
50.6836
50.6852
50.6869
50.6885
50.6903
50.692
50.6938
50.6956
50.6974
50.6993
50.7012
50.7031
50.7051
50.7071
50.7092
50.7113
50.7134
50.7155
50.7177
50.7199
50.7221
50.7243
50.7266
50.7288
50.7311
50.7334
50.7357
50.738
50.7403
50.7427
50.7451
50.7476
50.75
50.7525
50.755
50.7575
50.7601
50.7627
50.7655
50.7681
50.7708
50.7736
50.7764
50.7792
50.782
50.7847
50.7875
50.7905
50.7938
50.7974
50.8009
50.8038
50.8039
50.8007
50.7995
50.8012
50.8051
50.8104
50.8193
50.8297
50.8383
50.8454
50.8515
50.8566
50.8611
50.8654
50.8695
50.8733
50.8771
50.8809
50.8845
50.8884
50.892
50.896
50.8995
50.9035
50.9059
50.9172
50.6724
50.6715
50.6709
50.6702
50.6701
50.6706
50.6714
50.6722
50.6731
50.6741
50.6752
50.6762
50.6773
50.6785
50.6798
50.6811
50.6824
50.6838
50.6853
50.6867
50.6882
50.6898
50.6914
50.693
50.6947
50.6964
50.6981
50.6998
50.7016
50.7034
50.7052
50.707
50.7089
50.7108
50.7128
50.7147
50.7168
50.7188
50.7209
50.723
50.7252
50.7274
50.7296
50.7318
50.734
50.7363
50.7385
50.7408
50.7432
50.7455
50.7478
50.7502
50.7525
50.755
50.7574
50.7599
50.7624
50.7649
50.7674
50.7701
50.7727
50.7754
50.7781
50.781
50.7838
50.7866
50.7894
50.7923
50.7953
50.7982
50.8008
50.8035
50.8064
50.8098
50.8132
50.8156
50.817
50.8184
50.8204
50.8235
50.8276
50.8322
50.8384
50.8464
50.8533
50.8588
50.8634
50.8677
50.8716
50.8751
50.8784
50.8819
50.8853
50.889
50.8925
50.8963
50.8999
50.9038
50.9065
50.9134
50.6324
50.6436
50.651
50.6524
50.6526
50.6531
50.6541
50.6552
50.6562
50.6573
50.6584
50.6596
50.6608
50.6621
50.6633
50.6647
50.666
50.6674
50.6688
50.6703
50.6718
50.6734
50.675
50.6767
50.6785
50.6803
50.6821
50.6839
50.6857
50.6875
50.6893
50.6912
50.6931
50.695
50.6969
50.6989
50.7009
50.7029
50.705
50.7071
50.7092
50.7113
50.7135
50.7156
50.7177
50.7199
50.722
50.7242
50.7264
50.7287
50.7308
50.733
50.7352
50.7373
50.7396
50.7419
50.7442
50.7468
50.7497
50.753
50.7575
50.7635
50.7693
50.7745
50.7794
50.7839
50.7878
50.7915
50.7952
50.7987
50.8021
50.8055
50.8089
50.8124
50.8159
50.8194
50.8231
50.8269
50.8308
50.8348
50.8388
50.8428
50.8469
50.8509
50.8549
50.8587
50.8625
50.8662
50.8699
50.8736
50.8772
50.8809
50.8847
50.8884
50.8922
50.8959
50.8998
50.9036
50.9074
50.9114
50.671
50.6615
50.6801
50.6801
50.6723
50.6706
50.6717
50.6726
50.673
50.6737
50.6748
50.676
50.677
50.6781
50.6794
50.6807
50.682
50.6834
50.6848
50.6863
50.6878
50.6893
50.6909
50.6925
50.6941
50.6958
50.6974
50.6992
50.7009
50.7027
50.7046
50.7065
50.7084
50.7103
50.7123
50.7144
50.7164
50.7185
50.7206
50.7227
50.7248
50.727
50.7291
50.7313
50.7335
50.7357
50.7379
50.7402
50.7425
50.7448
50.7471
50.7494
50.7518
50.7542
50.7566
50.7591
50.7616
50.7641
50.7666
50.7691
50.7717
50.7743
50.7769
50.7796
50.7824
50.7853
50.7883
50.7912
50.7941
50.7971
50.8001
50.8033
50.8066
50.8099
50.8134
50.8171
50.821
50.8244
50.8265
50.8252
50.8237
50.8244
50.8274
50.8321
50.839
50.8497
50.8587
50.8654
50.8705
50.8749
50.879
50.8825
50.8859
50.8892
50.8929
50.8963
50.9003
50.9037
50.9081
50.9109
50.6765
50.6615
50.6807
50.6808
50.6729
50.6714
50.6727
50.6737
50.6741
50.6747
50.6758
50.677
50.678
50.6791
50.6804
50.6817
50.683
50.6844
50.6858
50.6873
50.6888
50.6904
50.6919
50.6935
50.6952
50.6968
50.6985
50.7002
50.702
50.7038
50.7056
50.7075
50.7094
50.7113
50.7133
50.7153
50.7174
50.7195
50.7215
50.7237
50.7258
50.728
50.7301
50.7323
50.7345
50.7368
50.739
50.7412
50.7435
50.7458
50.7482
50.7506
50.7529
50.7553
50.7577
50.7602
50.7627
50.7652
50.7678
50.7704
50.773
50.7756
50.7783
50.781
50.7838
50.7867
50.7897
50.7928
50.7959
50.7991
50.8022
50.8054
50.8087
50.812
50.8153
50.8188
50.8224
50.8263
50.83
50.8326
50.8317
50.8281
50.8273
50.8298
50.8345
50.8422
50.8541
50.8636
50.8702
50.8752
50.8795
50.8833
50.8864
50.8895
50.8931
50.8964
50.9003
50.9037
50.9081
50.911
50.8899
50.8799
50.8766
50.8767
50.8754
50.8719
50.8667
50.8614
50.8553
50.8495
50.8429
50.8368
50.831
50.8255
50.8203
50.8156
50.8112
50.8073
50.8047
50.8036
50.8977
50.8958
50.8971
50.8991
50.8987
50.8963
50.8918
50.8879
50.8826
50.8783
50.8726
50.8676
50.8629
50.8589
50.8545
50.8508
50.8472
50.8442
50.8417
50.8406
50.9145
50.9154
50.9154
50.9145
50.913
50.9109
50.9081
50.9045
50.9008
50.8965
50.8916
50.8856
50.8785
50.8705
50.8616
50.852
50.8434
50.8361
50.8302
50.8231
50.9231
50.9272
50.9282
50.9279
50.9277
50.9278
50.9287
50.9291
50.9266
50.9207
50.9155
50.912
50.9091
50.9093
50.918
50.9296
50.9334
50.9251
50.9069
50.8877
50.9262
50.933
50.9346
50.9341
50.9338
50.9339
50.9347
50.9351
50.9329
50.9275
50.9221
50.9183
50.9151
50.9151
50.9231
50.9347
50.9406
50.9352
50.921
50.9012
50.8257
50.8334
50.8367
50.84
50.8431
50.8467
50.8508
50.8552
50.8596
50.8641
50.8686
50.8732
50.8779
50.8826
50.8873
50.8921
50.8968
50.9017
50.9065
50.9114
50.9163
50.9213
50.9264
50.9315
50.9367
50.942
50.9473
50.9527
50.9582
50.9638
50.9694
50.975
50.9807
50.9864
50.9922
50.998
51.0039
51.0098
51.0157
51.0217
51.0277
51.0337
51.0397
51.0458
51.0519
51.0579
51.064
51.0702
51.0763
51.0824
51.0886
51.0948
51.101
51.1072
51.1134
51.1196
51.126
51.1323
51.1386
51.145
51.1513
51.1578
51.1642
51.1706
51.1767
51.1828
51.1892
51.1962
51.2038
51.211
51.2166
51.2174
51.2175
51.2207
51.2273
51.2359
51.2464
51.2607
51.2744
51.2862
51.2964
51.3055
51.3144
51.323
51.331
51.3388
51.3465
51.3542
51.3619
51.3696
51.3774
51.3852
51.393
51.4008
51.4086
51.4165
51.4244
51.4323
51.4403
51.4482
51.4562
51.4641
51.4721
51.4801
51.4881
51.4961
51.5041
51.5122
51.5202
51.5283
51.5363
51.5444
51.5525
51.5606
51.5687
51.5769
51.5851
51.5933
51.6015
51.6097
51.618
51.6263
51.6346
51.6429
51.6513
51.6597
51.6681
51.6765
51.685
51.6935
51.7021
51.7107
51.7193
51.7279
51.7366
51.7452
51.754
51.7627
51.7715
51.7803
51.7891
51.798
51.8069
51.8157
51.8247
51.8336
51.8426
51.8515
51.8605
51.8695
51.8785
51.8875
51.8965
51.9056
51.9146
51.9237
51.9327
51.9417
51.9508
51.9598
51.9689
51.9779
51.987
51.996
52.0051
52.0141
52.0232
52.0322
52.0413
52.0503
52.0594
52.0684
52.0775
52.0865
52.0956
52.1047
52.1137
52.1228
52.1319
52.1409
52.15
52.1591
52.1682
52.1772
52.1865
52.1954
52.2047
52.2136
52.223
52.2319
52.2414
52.2501
52.2597
52.2685
52.2781
52.2869
52.2963
52.3055
52.3143
52.3239
50.8379
50.8417
50.8443
50.8474
50.851
50.8545
50.8586
50.863
50.8675
50.8719
50.8765
50.8811
50.8857
50.8904
50.8951
50.8999
50.9047
50.9095
50.9144
50.9193
50.9242
50.9292
50.9342
50.9393
50.9445
50.9497
50.9551
50.9604
50.9659
50.9714
50.977
50.9826
50.9883
50.994
50.9998
51.0056
51.0115
51.0174
51.0233
51.0293
51.0352
51.0412
51.0473
51.0533
51.0594
51.0655
51.0716
51.0777
51.0839
51.09
51.0961
51.1023
51.1085
51.1147
51.1209
51.1272
51.1335
51.1397
51.1459
51.1523
51.1588
51.1652
51.1715
51.1778
51.1843
51.1909
51.1973
51.2031
51.2091
51.216
51.2232
51.2297
51.2349
51.2395
51.2444
51.2503
51.2578
51.2664
51.2758
51.287
51.2981
51.3077
51.3167
51.3255
51.3334
51.3406
51.3479
51.3552
51.3627
51.3702
51.3778
51.3855
51.3932
51.401
51.4088
51.4167
51.4246
51.4325
51.4404
51.4483
51.4563
51.4642
51.4722
51.4802
51.4882
51.4962
51.5042
51.5123
51.5203
51.5284
51.5364
51.5445
51.5526
51.5607
51.5688
51.577
51.5852
51.5934
51.6016
51.6098
51.6181
51.6263
51.6347
51.643
51.6514
51.6598
51.6682
51.6766
51.6851
51.6936
51.7022
51.7107
51.7194
51.728
51.7366
51.7453
51.7541
51.7628
51.7716
51.7804
51.7892
51.7981
51.8069
51.8158
51.8248
51.8337
51.8427
51.8516
51.8606
51.8696
51.8786
51.8876
51.8966
51.9057
51.9147
51.9237
51.9328
51.9418
51.9509
51.9599
51.969
51.978
51.9871
51.9961
52.0052
52.0142
52.0233
52.0323
52.0414
52.0504
52.0595
52.0685
52.0776
52.0866
52.0957
52.1047
52.1138
52.1229
52.132
52.141
52.1501
52.1592
52.1683
52.1773
52.1866
52.1955
52.2048
52.2137
52.2231
52.232
52.2415
52.2502
52.2598
52.2685
52.2782
52.2869
52.2966
52.3052
52.315
52.3237
50.8024
50.8156
50.8256
50.8304
50.834
50.8379
50.8422
50.8466
50.8512
50.8557
50.8603
50.8648
50.8694
50.8741
50.8788
50.8835
50.8883
50.8932
50.8982
50.9032
50.9082
50.9132
50.9183
50.9234
50.9286
50.9338
50.9391
50.9445
50.9499
50.9554
50.9609
50.9665
50.9722
50.9779
50.9837
50.9895
50.9953
51.0012
51.0072
51.0131
51.0191
51.0251
51.031
51.0371
51.0431
51.0491
51.0551
51.061
51.0668
51.0727
51.0786
51.0845
51.0904
51.0964
51.1026
51.1092
51.1165
51.1242
51.133
51.1428
51.1521
51.1605
51.1683
51.1761
51.1836
51.1907
51.1977
51.2046
51.2114
51.2183
51.2253
51.2323
51.2395
51.2469
51.2543
51.2618
51.2695
51.2773
51.2851
51.2929
51.3007
51.3085
51.3161
51.3238
51.3314
51.339
51.3466
51.3543
51.362
51.3697
51.3774
51.3852
51.393
51.4009
51.4087
51.4166
51.4245
51.4324
51.4404
51.4483
51.4563
51.4642
51.4722
51.4802
51.4882
51.4962
51.5042
51.5123
51.5203
51.5284
51.5364
51.5445
51.5526
51.5607
51.5688
51.577
51.5852
51.5934
51.6016
51.6098
51.6181
51.6263
51.6347
51.643
51.6514
51.6598
51.6682
51.6766
51.6851
51.6936
51.7022
51.7107
51.7194
51.728
51.7366
51.7453
51.7541
51.7628
51.7716
51.7804
51.7892
51.7981
51.8069
51.8158
51.8248
51.8337
51.8427
51.8516
51.8606
51.8696
51.8786
51.8876
51.8966
51.9057
51.9147
51.9237
51.9328
51.9418
51.9509
51.9599
51.969
51.978
51.9871
51.9961
52.0052
52.0142
52.0233
52.0323
52.0414
52.0504
52.0595
52.0685
52.0776
52.0866
52.0957
52.1047
52.1138
52.1229
52.132
52.141
52.1501
52.1592
52.1683
52.1774
52.1865
52.1956
52.2047
52.2138
52.223
52.2321
52.2413
52.2504
52.2597
52.2686
52.278
52.2872
52.2963
52.3055
52.3147
52.3238
50.8369
50.8409
50.8552
50.8526
50.8515
50.8553
50.8599
50.8636
50.8676
50.872
50.8766
50.8809
50.8855
50.8901
50.8948
50.8995
50.9042
50.909
50.9138
50.9187
50.9236
50.9286
50.9337
50.9389
50.9441
50.9493
50.9547
50.9601
50.9655
50.971
50.9766
50.9822
50.9878
50.9935
50.9993
51.005
51.0109
51.0167
51.0227
51.0287
51.0347
51.0407
51.0467
51.0527
51.0588
51.0649
51.071
51.0771
51.0832
51.0893
51.0955
51.1016
51.1078
51.114
51.1202
51.1264
51.1326
51.1388
51.145
51.1512
51.1575
51.1639
51.1705
51.177
51.1835
51.1899
51.1963
51.2028
51.2093
51.2158
51.2225
51.2297
51.2374
51.2451
51.2517
51.2549
51.2561
51.2592
51.2651
51.2736
51.2837
51.2975
51.3111
51.3221
51.3316
51.3405
51.3487
51.3559
51.3631
51.3705
51.3781
51.3857
51.3934
51.4011
51.4089
51.4167
51.4246
51.4325
51.4404
51.4483
51.4563
51.4642
51.4722
51.4802
51.4882
51.4962
51.5042
51.5123
51.5203
51.5284
51.5364
51.5445
51.5526
51.5607
51.5688
51.577
51.5852
51.5934
51.6016
51.6098
51.6181
51.6263
51.6347
51.643
51.6514
51.6598
51.6682
51.6766
51.6851
51.6936
51.7022
51.7107
51.7194
51.728
51.7366
51.7453
51.7541
51.7628
51.7716
51.7804
51.7892
51.7981
51.8069
51.8158
51.8248
51.8337
51.8427
51.8516
51.8606
51.8696
51.8786
51.8876
51.8966
51.9057
51.9147
51.9237
51.9328
51.9418
51.9509
51.9599
51.969
51.978
51.9871
51.9961
52.0052
52.0142
52.0233
52.0323
52.0414
52.0504
52.0595
52.0685
52.0776
52.0866
52.0957
52.1048
52.1138
52.1229
52.1319
52.141
52.1501
52.1592
52.1682
52.1775
52.1864
52.1957
52.2046
52.214
52.2228
52.2323
52.2411
52.2507
52.2594
52.2691
52.2777
52.2874
52.296
52.3058
52.3143
52.3238
50.841
50.8406
50.8557
50.8534
50.8523
50.8564
50.8612
50.8649
50.8686
50.873
50.8777
50.8819
50.8865
50.8912
50.8958
50.9005
50.9053
50.91
50.9149
50.9197
50.9247
50.9297
50.9347
50.9399
50.9451
50.9503
50.9556
50.961
50.9665
50.972
50.9775
50.9832
50.9888
50.9945
51.0003
51.0061
51.0119
51.0178
51.0238
51.0297
51.0357
51.0417
51.0477
51.0538
51.0598
51.0659
51.072
51.0781
51.0842
51.0904
51.0965
51.1027
51.1088
51.115
51.1212
51.1274
51.1337
51.1399
51.1462
51.1525
51.1588
51.1651
51.1716
51.1782
51.1848
51.1915
51.1982
51.2049
51.2116
51.2183
51.2249
51.2315
51.2385
51.2462
51.2541
51.2612
51.2653
51.2645
51.2657
51.271
51.2795
51.2903
51.3058
51.32
51.3311
51.3406
51.3493
51.3569
51.3637
51.3709