/*--------------------------------*- C++ -*----------------------------------*\
| =========                 |                                                 |
| \\      /  F ield         | OpenFOAM: The Open Source CFD Toolbox           |
|  \\    /   O peration     | Version:  3.0.x                                 |
|   \\  /    A nd           | Web:      www.OpenFOAM.org                      |
|    \\/     M anipulation  |                                                 |
\*---------------------------------------------------------------------------*/
FoamFile
{
    version     2.0;
    format      ascii;
    class       volScalarField;
    location    "0.35";
    object      T;
}
// * * * * * * * * * * * * * * * * * * * * * * * * * * * * * * * * * * * * * //

dimensions      [0 0 0 1 0 0 0];

internalField   nonuniform List<scalar> 
6900
(
774.448
774.448
774.448
774.448
774.448
774.448
774.448
774.448
774.448
774.448
774.448
774.448
774.448
774.448
774.448
774.448
774.446
774.443
774.441
774.438
774.436
774.434
774.434
774.433
774.433
774.433
774.432
774.43
774.428
774.425
774.422
774.419
774.415
774.411
774.408
774.404
774.402
774.4
774.399
774.399
774.399
774.398
774.396
774.394
774.391
774.388
774.386
774.384
774.382
774.381
774.38
774.38
774.379
774.379
774.379
774.379
774.379
774.379
774.38
774.38
774.38
774.38
774.38
774.379
774.379
774.379
774.379
774.379
774.379
774.379
774.378
774.378
774.378
774.378
774.378
774.378
774.377
774.377
774.377
774.377
774.377
774.377
774.377
774.378
774.378
774.378
774.378
774.378
774.379
774.379
774.379
774.379
774.38
774.38
774.38
774.38
774.38
774.38
774.38
774.38
774.38
774.38
774.38
774.38
774.379
774.379
774.379
774.378
774.378
774.378
774.378
774.377
774.377
774.377
774.377
774.377
774.377
774.377
774.377
774.377
774.378
774.378
774.378
774.379
774.379
774.38
774.38
774.381
774.381
774.381
774.382
774.382
774.382
774.382
774.382
774.382
774.382
774.382
774.382
774.382
774.381
774.381
774.381
774.38
774.38
774.379
774.379
774.379
774.378
774.378
774.378
774.378
774.378
774.378
774.378
774.379
774.379
774.38
774.381
774.381
774.382
774.383
774.384
774.384
774.385
774.386
774.386
774.387
774.387
774.388
774.388
774.388
774.388
774.387
774.387
774.387
774.386
774.386
774.385
774.385
774.384
774.383
774.383
774.382
774.382
774.382
774.381
774.381
774.381
774.381
774.381
774.382
774.382
774.383
774.384
774.385
774.386
774.389
774.39
774.463
774.446
774.445
774.445
774.445
774.445
774.445
774.445
774.445
774.445
774.446
774.446
774.446
774.446
774.446
774.446
774.445
774.444
774.441
774.438
774.436
774.434
774.432
774.431
774.431
774.431
774.43
774.43
774.428
774.426
774.423
774.42
774.417
774.413
774.409
774.406
774.403
774.4
774.398
774.397
774.397
774.397
774.396
774.394
774.392
774.389
774.387
774.384
774.382
774.38
774.379
774.378
774.378
774.378
774.378
774.378
774.378
774.378
774.378
774.378
774.378
774.378
774.378
774.378
774.378
774.378
774.378
774.378
774.377
774.377
774.377
774.377
774.377
774.376
774.376
774.376
774.376
774.376
774.376
774.376
774.376
774.376
774.376
774.376
774.376
774.376
774.376
774.377
774.377
774.377
774.377
774.378
774.378
774.378
774.378
774.378
774.379
774.379
774.379
774.379
774.379
774.379
774.378
774.378
774.378
774.378
774.377
774.377
774.377
774.377
774.376
774.376
774.376
774.376
774.375
774.375
774.375
774.375
774.375
774.375
774.376
774.376
774.376
774.377
774.377
774.378
774.378
774.378
774.379
774.379
774.38
774.38
774.38
774.381
774.381
774.381
774.381
774.381
774.381
774.38
774.38
774.38
774.379
774.379
774.379
774.378
774.378
774.377
774.377
774.377
774.377
774.376
774.376
774.376
774.377
774.377
774.377
774.378
774.378
774.379
774.38
774.38
774.381
774.382
774.383
774.384
774.384
774.385
774.385
774.386
774.386
774.386
774.386
774.386
774.386
774.385
774.385
774.385
774.384
774.384
774.383
774.382
774.382
774.381
774.381
774.38
774.38
774.38
774.38
774.38
774.38
774.38
774.38
774.381
774.382
774.382
774.384
774.385
774.387
774.388
774.456
774.446
774.446
774.445
774.445
774.445
774.445
774.445
774.446
774.446
774.446
774.446
774.446
774.446
774.446
774.446
774.445
774.444
774.441
774.438
774.436
774.434
774.432
774.431
774.431
774.431
774.43
774.43
774.428
774.426
774.423
774.42
774.417
774.413
774.409
774.406
774.403
774.4
774.398
774.398
774.397
774.397
774.396
774.394
774.392
774.389
774.387
774.384
774.382
774.38
774.379
774.378
774.378
774.378
774.378
774.378
774.378
774.378
774.378
774.378
774.378
774.378
774.378
774.378
774.378
774.378
774.378
774.378
774.377
774.377
774.377
774.377
774.377
774.376
774.376
774.376
774.376
774.376
774.376
774.376
774.376
774.376
774.376
774.376
774.376
774.376
774.376
774.377
774.377
774.377
774.377
774.378
774.378
774.378
774.378
774.378
774.379
774.379
774.379
774.379
774.379
774.379
774.378
774.378
774.378
774.378
774.377
774.377
774.377
774.377
774.376
774.376
774.376
774.376
774.375
774.375
774.375
774.375
774.375
774.375
774.376
774.376
774.376
774.377
774.377
774.378
774.378
774.378
774.379
774.379
774.38
774.38
774.38
774.381
774.381
774.381
774.381
774.381
774.381
774.38
774.38
774.38
774.379
774.379
774.379
774.378
774.378
774.377
774.377
774.377
774.377
774.376
774.376
774.376
774.377
774.377
774.377
774.378
774.378
774.379
774.38
774.38
774.381
774.382
774.383
774.384
774.384
774.385
774.385
774.386
774.386
774.386
774.386
774.386
774.386
774.385
774.385
774.385
774.384
774.384
774.383
774.382
774.382
774.381
774.381
774.38
774.38
774.38
774.38
774.38
774.38
774.38
774.38
774.381
774.382
774.383
774.384
774.385
774.386
774.387
774.392
774.446
774.445
774.445
774.445
774.445
774.445
774.445
774.445
774.445
774.446
774.446
774.446
774.446
774.446
774.446
774.445
774.444
774.441
774.438
774.436
774.434
774.432
774.431
774.431
774.431
774.43
774.43
774.428
774.426
774.423
774.42
774.417
774.413
774.409
774.406
774.403
774.4
774.398
774.397
774.397
774.397
774.396
774.394
774.392
774.389
774.387
774.384
774.382
774.38
774.379
774.378
774.378
774.378
774.378
774.378
774.378
774.378
774.378
774.378
774.378
774.378
774.378
774.378
774.378
774.378
774.378
774.378
774.377
774.377
774.377
774.377
774.377
774.376
774.376
774.376
774.376
774.376
774.376
774.376
774.376
774.376
774.376
774.376
774.376
774.376
774.376
774.377
774.377
774.377
774.377
774.378
774.378
774.378
774.378
774.378
774.379
774.379
774.379
774.379
774.379
774.379
774.378
774.378
774.378
774.378
774.377
774.377
774.377
774.377
774.376
774.376
774.376
774.376
774.375
774.375
774.375
774.375
774.375
774.375
774.376
774.376
774.376
774.377
774.377
774.378
774.378
774.378
774.379
774.379
774.38
774.38
774.38
774.381
774.381
774.381
774.381
774.381
774.381
774.38
774.38
774.38
774.379
774.379
774.379
774.378
774.378
774.377
774.377
774.377
774.377
774.376
774.376
774.376
774.377
774.377
774.377
774.378
774.378
774.379
774.38
774.38
774.381
774.382
774.383
774.384
774.384
774.385
774.385
774.386
774.386
774.386
774.386
774.386
774.386
774.385
774.385
774.385
774.384
774.384
774.383
774.382
774.382
774.381
774.381
774.38
774.38
774.38
774.38
774.38
774.38
774.38
774.38
774.381
774.382
774.383
774.383
774.385
774.383
774.389
774.261
774.448
774.448
774.448
774.448
774.448
774.448
774.448
774.448
774.448
774.448
774.448
774.448
774.448
774.448
774.448
774.448
774.446
774.443
774.441
774.438
774.436
774.434
774.434
774.433
774.433
774.433
774.432
774.43
774.428
774.425
774.422
774.419
774.415
774.411
774.408
774.404
774.402
774.4
774.399
774.399
774.399
774.398
774.396
774.394
774.391
774.388
774.386
774.384
774.382
774.381
774.38
774.38
774.379
774.379
774.379
774.379
774.379
774.379
774.38
774.38
774.38
774.38
774.38
774.379
774.379
774.379
774.379
774.379
774.379
774.379
774.378
774.378
774.378
774.378
774.378
774.378
774.377
774.377
774.377
774.377
774.377
774.377
774.377
774.378
774.378
774.378
774.378
774.378
774.379
774.379
774.379
774.379
774.38
774.38
774.38
774.38
774.38
774.38
774.38
774.38
774.38
774.38
774.38
774.38
774.379
774.379
774.379
774.378
774.378
774.378
774.378
774.377
774.377
774.377
774.377
774.377
774.377
774.377
774.377
774.377
774.378
774.378
774.378
774.379
774.379
774.38
774.38
774.381
774.381
774.381
774.382
774.382
774.382
774.382
774.382
774.382
774.382
774.382
774.382
774.382
774.381
774.381
774.381
774.38
774.38
774.379
774.379
774.379
774.378
774.378
774.378
774.378
774.378
774.378
774.378
774.379
774.379
774.38
774.381
774.381
774.382
774.383
774.384
774.384
774.385
774.386
774.386
774.387
774.387
774.388
774.388
774.388
774.388
774.387
774.387
774.387
774.386
774.386
774.385
774.385
774.384
774.383
774.383
774.382
774.382
774.382
774.381
774.381
774.381
774.381
774.382
774.382
774.383
774.383
774.384
774.385
774.386
774.384
774.399
774.171
774.448
774.462
774.459
774.459
774.457
774.453
774.45
774.45
774.454
774.45
774.429
774.418
774.404
774.369
774.341
774.34
774.348
774.364
774.367
774.219
774.434
774.438
774.436
774.431
774.427
774.42
774.414
774.413
774.416
774.408
774.383
774.375
774.366
774.332
774.282
774.274
774.285
774.299
774.309
774.192
774.393
774.392
774.39
774.386
774.38
774.374
774.367
774.358
774.35
774.343
774.337
774.334
774.326
774.315
774.305
774.298
774.292
774.284
774.279
774.289
774.318
774.32
774.326
774.325
774.319
774.306
774.288
774.267
774.251
774.227
774.213
774.194
774.172
774.158
774.142
774.126
774.116
774.105
774.098
774.087
774.263
774.242
774.24
774.242
774.241
774.238
774.225
774.211
774.195
774.182
774.163
774.153
774.135
774.127
774.113
774.109
774.099
774.1
774.106
774.131
774.101
774.065
774.06
774.036
774.043
774.06
774.051
774.04
774.039
774.044
774.046
774.046
774.045
774.045
774.046
774.047
774.047
774.047
774.047
774.047
774.047
774.047
774.046
774.046
774.045
774.045
774.044
774.043
774.043
774.042
774.042
774.041
774.041
774.041
774.04
774.04
774.039
774.039
774.039
774.038
774.038
774.038
774.039
774.038
774.038
774.037
774.036
774.036
774.036
774.036
774.037
774.037
774.035
774.034
774.033
774.032
774.031
774.03
774.029
774.028
774.028
774.029
774.029
774.03
774.032
774.033
774.034
774.035
774.035
774.036
774.038
774.043
774.05
774.055
774.059
774.061
774.063
774.07
774.096
774.185
774.288
774.338
774.345
774.323
774.223
774.101
774.025
773.986
773.971
773.968
773.969
773.975
773.98
773.984
773.986
773.987
773.988
773.988
773.987
773.986
773.985
773.984
773.983
773.982
773.981
773.98
773.978
773.977
773.976
773.975
773.974
773.973
773.972
773.971
773.97
773.969
773.968
773.967
773.966
773.966
773.965
773.964
773.963
773.963
773.962
773.961
773.96
773.959
773.958
773.958
773.957
773.956
773.954
773.953
773.952
773.951
773.95
773.948
773.947
773.946
773.944
773.943
773.941
773.94
773.939
773.937
773.936
773.934
773.933
773.931
773.93
773.929
773.928
773.927
773.926
773.925
773.924
773.923
773.922
773.922
773.922
773.921
773.921
773.921
773.921
773.922
773.922
773.923
773.923
773.924
773.925
773.926
773.926
773.927
773.928
773.929
773.93
773.931
773.932
773.932
773.933
773.934
773.935
773.936
773.937
773.937
773.938
773.939
773.94
773.941
773.942
773.943
773.944
773.945
773.947
773.947
773.949
773.947
773.953
773.77
774.084
774.072
774.067
774.047
774.061
774.075
774.065
774.056
774.056
774.06
774.063
774.062
774.062
774.062
774.063
774.064
774.064
774.064
774.064
774.064
774.064
774.063
774.062
774.062
774.061
774.06
774.059
774.058
774.058
774.057
774.057
774.056
774.056
774.055
774.055
774.055
774.055
774.054
774.054
774.055
774.055
774.055
774.055
774.055
774.055
774.055
774.055
774.056
774.058
774.058
774.059
774.058
774.055
774.052
774.05
774.048
774.047
774.047
774.047
774.047
774.048
774.05
774.052
774.053
774.055
774.056
774.057
774.058
774.06
774.066
774.073
774.079
774.083
774.086
774.087
774.09
774.098
774.127
774.207
774.28
774.316
774.321
774.306
774.229
774.123
774.051
774.009
773.988
773.981
773.979
773.979
773.982
773.985
773.986
773.987
773.988
773.987
773.987
773.986
773.985
773.984
773.983
773.982
773.981
773.979
773.978
773.977
773.976
773.975
773.973
773.972
773.971
773.97
773.969
773.968
773.967
773.967
773.966
773.965
773.964
773.963
773.963
773.962
773.961
773.96
773.959
773.959
773.958
773.957
773.956
773.955
773.954
773.953
773.952
773.951
773.949
773.948
773.947
773.946
773.944
773.943
773.941
773.94
773.938
773.937
773.936
773.934
773.933
773.931
773.93
773.929
773.927
773.926
773.925
773.924
773.923
773.922
773.921
773.921
773.92
773.92
773.92
773.92
773.92
773.92
773.92
773.921
773.921
773.922
773.922
773.923
773.924
773.925
773.926
773.927
773.928
773.928
773.929
773.93
773.931
773.932
773.933
773.933
773.934
773.935
773.936
773.937
773.938
773.939
773.94
773.941
773.942
773.943
773.944
773.945
773.946
773.947
773.946
773.946
773.843
774.28
774.283
774.304
774.315
774.319
774.316
774.315
774.316
774.317
774.318
774.318
774.319
774.319
774.319
774.319
774.318
774.316
774.314
774.313
774.311
774.309
774.307
774.305
774.304
774.302
774.301
774.3
774.3
774.3
774.3
774.301
774.301
774.302
774.302
774.302
774.301
774.301
774.3
774.299
774.299
774.299
774.299
774.299
774.3
774.302
774.303
774.304
774.306
774.308
774.311
774.313
774.316
774.318
774.32
774.321
774.321
774.321
774.317
774.302
774.26
774.209
774.163
774.124
774.095
774.073
774.059
774.05
774.045
774.043
774.043
774.044
774.045
774.048
774.05
774.051
774.051
774.051
774.047
774.042
774.037
774.031
774.025
774.019
774.014
774.011
774.008
774.006
774.005
774.003
774.002
774
773.999
773.997
773.995
773.994
773.992
773.991
773.989
773.988
773.986
773.985
773.984
773.982
773.981
773.98
773.978
773.977
773.976
773.975
773.973
773.972
773.971
773.97
773.969
773.968
773.967
773.967
773.966
773.965
773.964
773.963
773.963
773.962
773.961
773.96
773.959
773.959
773.958
773.957
773.956
773.955
773.954
773.953
773.952
773.951
773.949
773.948
773.947
773.946
773.944
773.943
773.941
773.94
773.938
773.937
773.936
773.934
773.933
773.931
773.93
773.929
773.927
773.926
773.925
773.924
773.923
773.922
773.921
773.921
773.92
773.92
773.92
773.92
773.92
773.92
773.92
773.921
773.921
773.922
773.922
773.923
773.924
773.925
773.926
773.927
773.928
773.928
773.929
773.93
773.931
773.932
773.933
773.933
773.934
773.935
773.936
773.937
773.938
773.939
773.94
773.941
773.942
773.943
773.944
773.945
773.946
773.947
773.949
773.95
773.954
774.064
774.057
774.052
774.053
774.055
774.053
774.052
774.051
774.053
774.054
774.054
774.053
774.053
774.054
774.054
774.054
774.054
774.054
774.055
774.055
774.055
774.055
774.055
774.055
774.055
774.055
774.055
774.054
774.054
774.053
774.053
774.052
774.052
774.051
774.051
774.05
774.05
774.049
774.048
774.047
774.046
774.046
774.044
774.044
774.043
774.042
774.042
774.042
774.042
774.042
774.042
774.041
774.041
774.041
774.04
774.04
774.04
774.04
774.04
774.04
774.04
774.041
774.042
774.043
774.046
774.049
774.051
774.054
774.061
774.074
774.086
774.093
774.098
774.106
774.124
774.161
774.194
774.212
774.216
774.214
774.197
774.139
774.075
774.03
774.003
773.989
773.983
773.982
773.982
773.984
773.986
773.988
773.989
773.99
773.989
773.989
773.988
773.988
773.987
773.986
773.984
773.983
773.982
773.981
773.979
773.978
773.977
773.976
773.975
773.973
773.972
773.971
773.97
773.969
773.968
773.967
773.967
773.966
773.965
773.964
773.963
773.963
773.962
773.961
773.96
773.959
773.959
773.958
773.957
773.956
773.955
773.954
773.953
773.952
773.951
773.949
773.948
773.947
773.946
773.944
773.943
773.941
773.94
773.938
773.937
773.936
773.934
773.933
773.931
773.93
773.929
773.927
773.926
773.925
773.924
773.923
773.922
773.921
773.921
773.92
773.92
773.92
773.92
773.92
773.92
773.92
773.921
773.921
773.922
773.922
773.923
773.924
773.925
773.926
773.927
773.928
773.928
773.929
773.93
773.931
773.932
773.933
773.933
773.934
773.935
773.936
773.937
773.938
773.939
773.94
773.941
773.942
773.943
773.944
773.945
773.946
773.947
773.95
773.953
774.008
774.186
774.188
774.183
774.183
774.184
774.182
774.181
774.18
774.181
774.181
774.181
774.18
774.18
774.179
774.179
774.18
774.18
774.18
774.181
774.181
774.181
774.181
774.181
774.18
774.18
774.179
774.178
774.177
774.176
774.175
774.174
774.173
774.172
774.171
774.17
774.168
774.167
774.166
774.164
774.163
774.162
774.162
774.161
774.161
774.16
774.16
774.16
774.161
774.161
774.16
774.16
774.158
774.157
774.156
774.156
774.155
774.155
774.154
774.154
774.154
774.154
774.154
774.155
774.156
774.158
774.162
774.17
774.177
774.181
774.182
774.183
774.185
774.199
774.259
774.363
774.426
774.448
774.446
774.412
774.313
774.216
774.146
774.097
774.063
774.041
774.027
774.017
774.011
774.007
774.004
774.002
774
773.998
773.997
773.995
773.994
773.992
773.991
773.989
773.988
773.987
773.985
773.984
773.982
773.981
773.98
773.979
773.977
773.976
773.975
773.974
773.973
773.972
773.971
773.97
773.969
773.968
773.967
773.966
773.966
773.965
773.964
773.963
773.963
773.962
773.961
773.96
773.959
773.958
773.958
773.957
773.956
773.954
773.953
773.952
773.951
773.95
773.948
773.947
773.946
773.944
773.943
773.941
773.94
773.939
773.937
773.936
773.934
773.933
773.931
773.93
773.929
773.928
773.927
773.926
773.925
773.924
773.923
773.922
773.922
773.922
773.921
773.921
773.921
773.921
773.922
773.922
773.923
773.923
773.924
773.925
773.926
773.926
773.927
773.928
773.929
773.93
773.931
773.932
773.932
773.933
773.934
773.935
773.936
773.937
773.937
773.938
773.939
773.94
773.941
773.942
773.943
773.944
773.945
773.946
773.948
773.949
773.951
773.954
774.013
773.837
773.815
773.811
773.813
773.812
773.807
773.794
773.785
773.768
773.757
773.741
773.729
773.714
773.705
773.692
773.686
773.677
773.678
773.685
773.718
773.886
773.887
773.893
773.891
773.886
773.871
773.853
773.84
773.818
773.803
773.784
773.764
773.752
773.74
773.721
773.71
773.699
773.689
773.68
773.677
773.956
773.955
773.953
773.95
773.944
773.938
773.931
773.925
773.919
773.912
773.904
773.894
773.887
773.881
773.875
773.874
773.881
773.885
773.882
773.86
773.996
774
773.999
773.996
773.993
773.99
773.987
773.978
773.967
773.955
773.932
773.914
773.917
773.932
773.948
773.926
773.857
773.827
773.812
773.783
774.009
774.023
774.022
774.023
774.021
774.022
774.021
774.015
774.006
773.994
773.974
773.966
773.971
773.983
773.996
773.971
773.927
773.895
773.858
773.813
773.783
773.79
773.791
773.793
773.791
773.792
773.795
773.799
773.802
773.803
773.806
773.809
773.812
773.815
773.818
773.822
773.825
773.829
773.832
773.836
773.84
773.844
773.848
773.852
773.857
773.862
773.867
773.873
773.878
773.884
773.889
773.895
773.9
773.906
773.912
773.917
773.923
773.928
773.933
773.939
773.945
773.951
773.958
773.964
773.971
773.977
773.984
773.991
773.998
774.006
774.013
774.02
774.027
774.034
774.042
774.049
774.057
774.065
774.073
774.08
774.088
774.098
774.107
774.117
774.128
774.139
774.153
774.169
774.185
774.199
774.21
774.217
774.226
774.246
774.31
774.425
774.509
774.55
774.558
774.543
774.474
774.383
774.318
774.277
774.252
774.24
774.238
774.239
774.243
774.25
774.26
774.269
774.281
774.29
774.304
774.312
774.327
774.333
774.356
774.215
773.663
773.661
773.664
773.665
773.664
773.664
773.667
773.673
773.676
773.678
773.68
773.684
773.688
773.691
773.694
773.698
773.702
773.706
773.71
773.715
773.719
773.724
773.729
773.733
773.738
773.743
773.748
773.753
773.759
773.765
773.77
773.776
773.782
773.788
773.794
773.801
773.807
773.813
773.819
773.825
773.831
773.837
773.844
773.85
773.857
773.863
773.87
773.877
773.884
773.891
773.898
773.906
773.914
773.921
773.929
773.936
773.944
773.952
773.961
773.969
773.977
773.987
773.996
774.005
774.015
774.028
774.041
774.053
774.066
774.082
774.102
774.125
774.143
774.155
774.169
774.199
774.243
774.289
774.324
774.343
774.348
774.345
774.318
774.262
774.223
774.206
774.203
774.204
774.21
774.224
774.24
774.253
774.269
774.281
774.296
774.307
774.322
774.329
774.348
774.274
773.853
773.893
773.92
773.923
773.921
773.923
773.928
773.93
773.931
773.933
773.935
773.937
773.939
773.942
773.945
773.948
773.952
773.956
773.961
773.965
773.97
773.974
773.978
773.981
773.985
773.988
773.992
773.997
774.001
774.006
774.012
774.018
774.024
774.03
774.036
774.042
774.049
774.055
774.061
774.068
774.075
774.082
774.089
774.097
774.105
774.114
774.123
774.131
774.139
774.148
774.157
774.168
774.178
774.189
774.2
774.21
774.22
774.227
774.229
774.227
774.208
774.166
774.128
774.099
774.078
774.064
774.059
774.059
774.062
774.068
774.077
774.088
774.1
774.112
774.124
774.136
774.147
774.156
774.163
774.17
774.176
774.182
774.187
774.193
774.199
774.207
774.216
774.226
774.236
774.247
774.257
774.268
774.279
774.291
774.301
774.313
774.323
774.335
774.348
774.359
773.623
773.661
773.674
773.693
773.691
773.671
773.666
773.676
773.686
773.687
773.686
773.687
773.692
773.697
773.7
773.704
773.708
773.712
773.717
773.721
773.726
773.73
773.735
773.741
773.746
773.751
773.757
773.763
773.768
773.773
773.779
773.784
773.79
773.795
773.801
773.806
773.812
773.818
773.824
773.83
773.837
773.843
773.85
773.857
773.865
773.872
773.88
773.887
773.894
773.901
773.909
773.916
773.924
773.931
773.938
773.946
773.953
773.961
773.969
773.979
773.988
773.998
774.008
774.018
774.027
774.036
774.046
774.058
774.071
774.086
774.101
774.115
774.129
774.143
774.156
774.165
774.174
774.189
774.225
774.313
774.403
774.461
774.482
774.479
774.44
774.345
774.274
774.239
774.228
774.227
774.231
774.245
774.261
774.278
774.29
774.307
774.317
774.335
774.345
774.402
773.624
773.666
773.666
773.682
773.68
773.658
773.65
773.658
773.67
773.671
773.671
773.671
773.676
773.681
773.685
773.688
773.692
773.697
773.701
773.706
773.71
773.715
773.72
773.725
773.73
773.735
773.741
773.746
773.752
773.757
773.763
773.769
773.774
773.78
773.786
773.791
773.797
773.803
773.809
773.815
773.822
773.828
773.835
773.841
773.848
773.856
773.863
773.871
773.878
773.885
773.892
773.899
773.907
773.914
773.922
773.93
773.937
773.945
773.952
773.96
773.968
773.977
773.986
773.996
774.006
774.015
774.025
774.034
774.044
774.056
774.069
774.083
774.097
774.112
774.127
774.141
774.152
774.161
774.172
774.2
774.282
774.404
774.484
774.513
774.509
774.459
774.345
774.266
774.231
774.222
774.223
774.233
774.253
774.273
774.287
774.306
774.316
774.335
774.346
774.401
774.266
774.249
774.248
774.251
774.251
774.248
774.238
774.231
774.22
774.212
774.199
774.189
774.18
774.172
774.165
774.159
774.156
774.159
774.168
774.2
774.306
774.311
774.318
774.316
774.313
774.304
774.289
774.278
774.263
774.252
774.236
774.226
774.215
774.197
774.193
774.184
774.178
774.171
774.17
774.166
774.367
774.37
774.37
774.37
774.368
774.366
774.364
774.361
774.357
774.354
774.349
774.344
774.343
774.344
774.346
774.356
774.361
774.357
774.339
774.336
774.403
774.409
774.411
774.411
774.412
774.414
774.41
774.404
774.398
774.386
774.38
774.387
774.407
774.417
774.38
774.334
774.32
774.32
774.301
774.262
774.413
774.43
774.435
774.439
774.442
774.444
774.441
774.438
774.433
774.424
774.423
774.43
774.447
774.454
774.422
774.387
774.367
774.36
774.325
774.295
774.255
774.283
774.3
774.309
774.326
774.344
774.361
774.375
774.388
774.402
774.416
774.43
774.444
774.458
774.471
774.485
774.499
774.514
774.529
774.544
774.559
774.574
774.59
774.605
774.621
774.636
774.652
774.668
774.683
774.699
774.716
774.732
774.749
774.766
774.783
774.801
774.819
774.837
774.855
774.873
774.891
774.909
774.928
774.946
774.964
774.983
775.002
775.02
775.039
775.058
775.077
775.095
775.114
775.133
775.153
775.172
775.19
775.209
775.228
775.249
775.269
775.289
775.31
775.334
775.361
775.391
775.418
775.436
775.447
775.464
775.507
775.624
775.752
775.833
775.866
775.868
775.841
775.76
775.687
775.643
775.625
775.622
775.624
775.631
775.647
775.666
775.687
775.709
775.732
775.754
775.777
775.801
775.824
775.848
775.872
775.895
775.919
775.943
775.967
775.991
776.015
776.039
776.063
776.087
776.112
776.136
776.16
776.184
776.209
776.233
776.257
776.282
776.306
776.331
776.355
776.38
776.405
776.429
776.454
776.479
776.504
776.529
776.554
776.579
776.604
776.63
776.655
776.681
776.706
776.732
776.758
776.783
776.809
776.835
776.861
776.888
776.914
776.94
776.967
776.993
777.02
777.046
777.073
777.1
777.127
777.153
777.18
777.207
777.234
777.261
777.288
777.316
777.343
777.37
777.397
777.424
777.451
777.478
777.505
777.533
777.56
777.587
777.614
777.641
777.668
777.696
777.723
777.75
777.777
777.804
777.831
777.858
777.886
777.913
777.94
777.967
777.994
778.021
778.048
778.076
778.102
778.13
778.156
778.185
778.21
778.24
778.264
778.295
778.318
778.351
778.373
778.406
778.427
778.461
778.482
778.515
778.539
778.565
778.599
778.622
774.164
774.169
774.189
774.198
774.207
774.227
774.243
774.256
774.269
774.283
774.297
774.31
774.324
774.338
774.352
774.366
774.38
774.394
774.409
774.424
774.439
774.455
774.471
774.486
774.502
774.518
774.535
774.551
774.567
774.584
774.6
774.617
774.634
774.651
774.668
774.686
774.703
774.721
774.739
774.758
774.776
774.794
774.813
774.831
774.85
774.868
774.887
774.906
774.924
774.943
774.962
774.981
775
775.019
775.039
775.057
775.076
775.097
775.118
775.138
775.156
775.177
775.2
775.224
775.247
775.268
775.295
775.331
775.366
775.389
775.406
775.438
775.488
775.549
775.607
775.649
775.669
775.673
775.665
775.631
775.599
775.589
775.589
775.593
775.611
775.639
775.666
775.693
775.72
775.745
775.77
775.795
775.82
775.844
775.869
775.893
775.917
775.941
775.965
775.989
776.013
776.038
776.062
776.086
776.11
776.134
776.159
776.183
776.207
776.232
776.256
776.28
776.305
776.329
776.354
776.378
776.403
776.428
776.453
776.478
776.502
776.527
776.553
776.578
776.603
776.628
776.654
776.679
776.705
776.73
776.756
776.782
776.808
776.834
776.86
776.886
776.912
776.939
776.965
776.992
777.018
777.045
777.072
777.098
777.125
777.152
777.179
777.206
777.233
777.26
777.287
777.314
777.341
777.368
777.395
777.423
777.45
777.477
777.504
777.531
777.558
777.586
777.613
777.64
777.667
777.694
777.721
777.748
777.776
777.803
777.83
777.857
777.884
777.911
777.938
777.965
777.993
778.02
778.047
778.074
778.101
778.129
778.155
778.184
778.209
778.239
778.263
778.294
778.317
778.349
778.371
778.404
778.425
778.46
778.48
778.515
778.534
778.57
778.59
778.626
774.364
774.417
774.44
774.454
774.467
774.483
774.498
774.51
774.521
774.534
774.547
774.561
774.574
774.588
774.602
774.616
774.629
774.642
774.655
774.669
774.683
774.697
774.712
774.728
774.744
774.76
774.776
774.793
774.81
774.827
774.844
774.861
774.878
774.896
774.913
774.931
774.949
774.967
774.985
775.002
775.021
775.04
775.059
775.078
775.098
775.117
775.138
775.16
775.182
775.205
775.228
775.251
775.274
775.296
775.315
775.327
775.331
775.329
775.311
775.278
775.254
775.244
775.243
775.245
775.252
775.266
775.283
775.303
775.325
775.348
775.371
775.393
775.415
775.435
775.454
775.473
775.49
775.507
775.523
775.54
775.558
775.576
775.597
775.618
775.64
775.662
775.685
775.708
775.73
775.753
775.776
775.8
775.823
775.847
775.87
775.894
775.918
775.942
775.966
775.99
776.014
776.038
776.062
776.086
776.11
776.134
776.159
776.183
776.207
776.232
776.256
776.28
776.305
776.329
776.354
776.378
776.403
776.428
776.453
776.478
776.502
776.527
776.553
776.578
776.603
776.628
776.654
776.679
776.705
776.73
776.756
776.782
776.808
776.834
776.86
776.886
776.912
776.939
776.965
776.992
777.018
777.045
777.072
777.098
777.125
777.152
777.179
777.206
777.233
777.26
777.287
777.314
777.341
777.368
777.395
777.423
777.45
777.477
777.504
777.531
777.558
777.586
777.613
777.64
777.667
777.694
777.721
777.748
777.776
777.803
777.83
777.857
777.884
777.911
777.938
777.965
777.993
778.02
778.047
778.074
778.101
778.129
778.155
778.183
778.21
778.238
778.264
778.292
778.319
778.346
778.374
778.402
778.427
778.458
778.482
778.511
778.539
778.566
778.592
778.621
774.182
774.191
774.228
774.244
774.232
774.228
774.248
774.274
774.283
774.288
774.299
774.316
774.33
774.344
774.358
774.373
774.387
774.402
774.417
774.432
774.447
774.462
774.478
774.493
774.508
774.524
774.54
774.556
774.572
774.589
774.606
774.623
774.64
774.658
774.676
774.694
774.713
774.731
774.75
774.768
774.787
774.805
774.823
774.841
774.859
774.878
774.896
774.915
774.933
774.952
774.971
774.99
775.009
775.027
775.046
775.066
775.085
775.105
775.126
775.147
775.168
775.187
775.206
775.225
775.247
775.272
775.297
775.324
775.351
775.38
775.407
775.428
775.442
775.457
775.49
775.575
775.69
775.778
775.824
775.832
775.815
775.743
775.674
775.643
775.637
775.639
775.653
775.683
775.713
775.741
775.767
775.793
775.818
775.843
775.868
775.892
775.917
775.941
775.965
775.989
776.013
776.038
776.062
776.086
776.11
776.134
776.159
776.183
776.207
776.232
776.256
776.28
776.305
776.329
776.354
776.378
776.403
776.428
776.453
776.478
776.502
776.527
776.553
776.578
776.603
776.628
776.654
776.679
776.705
776.73
776.756
776.782
776.808
776.834
776.86
776.886
776.912
776.939
776.965
776.992
777.018
777.045
777.072
777.098
777.125
777.152
777.179
777.206
777.233
777.26
777.287
777.314
777.341
777.368
777.395
777.423
777.45
777.477
777.504
777.531
777.558
777.586
777.613
777.64
777.667
777.694
777.721
777.748
777.776
777.803
777.83
777.857
777.884
777.911
777.938
777.965
777.993
778.02
778.047
778.074
778.102
778.128
778.157
778.182
778.212
778.236
778.266
778.29
778.321
778.344
778.377
778.398
778.432
778.452
778.488
778.506
778.543
778.561
778.597
778.62
774.182
774.196
774.221
774.231
774.22
774.212
774.228
774.255
774.267
774.273
774.283
774.301
774.315
774.328
774.342
774.357
774.371
774.386
774.401
774.416
774.432
774.447
774.462
774.478
774.493
774.509
774.525
774.541
774.557
774.574
774.591
774.608
774.625
774.643
774.661
774.679
774.697
774.715
774.734
774.752
774.77
774.788
774.807
774.825
774.844
774.862
774.881
774.899
774.918
774.936
774.955
774.974
774.993
775.012
775.031
775.049
775.069
775.088
775.107
775.127
775.148
775.169
775.189
775.208
775.227
775.247
775.269
775.292
775.316
775.342
775.371
775.401
775.425
775.441
775.454
775.48
775.552
775.699
775.815
775.871
775.878
775.851
775.753
775.675
775.644
775.639
775.644
775.669
775.704
775.735
775.764
775.792
775.818
775.843
775.868
775.893
775.918