/*--------------------------------*- C++ -*----------------------------------*\
| =========                 |                                                 |
| \\      /  F ield         | OpenFOAM: The Open Source CFD Toolbox           |
|  \\    /   O peration     | Version:  3.0.x                                 |
|   \\  /    A nd           | Web:      www.OpenFOAM.org                      |
|    \\/     M anipulation  |                                                 |
\*---------------------------------------------------------------------------*/
FoamFile
{
    version     2.0;
    format      ascii;
    class       volScalarField;
    location    "0.1";
    object      rho;
}
// * * * * * * * * * * * * * * * * * * * * * * * * * * * * * * * * * * * * * //

dimensions      [1 -3 0 0 0 0 0];

internalField   nonuniform List<scalar> 
6900
(
50.5765
50.5766
50.5767
50.5768
50.5769
50.5769
50.5767
50.5764
50.576
50.5755
50.575
50.5744
50.5738
50.5732
50.5725
50.5718
50.5711
50.5703
50.5696
50.5688
50.5681
50.5673
50.5666
50.5659
50.5652
50.5645
50.5639
50.5633
50.5628
50.5623
50.5618
50.5614
50.5611
50.5608
50.5605
50.5603
50.5601
50.56
50.5598
50.5597
50.5596
50.5595
50.5594
50.5593
50.5591
50.5589
50.5587
50.5584
50.558
50.5576
50.5571
50.5565
50.5558
50.5551
50.5543
50.5535
50.5526
50.5516
50.5506
50.5495
50.5484
50.5473
50.5461
50.545
50.5438
50.5427
50.5416
50.5405
50.5394
50.5384
50.5375
50.5366
50.5357
50.535
50.5343
50.5337
50.5331
50.5326
50.5322
50.5319
50.5317
50.5315
50.5314
50.5313
50.5313
50.5314
50.5315
50.5317
50.532
50.5323
50.5327
50.5331
50.5336
50.5341
50.5347
50.5353
50.5361
50.5368
50.5376
50.5385
50.5394
50.5404
50.5414
50.5424
50.5435
50.5446
50.5457
50.5468
50.5479
50.549
50.5501
50.5511
50.5521
50.5531
50.554
50.5549
50.5557
50.5564
50.5571
50.5577
50.5583
50.5588
50.5592
50.5596
50.56
50.5603
50.5606
50.5609
50.5611
50.5614
50.5616
50.5619
50.5622
50.5625
50.5629
50.5632
50.5637
50.5641
50.5646
50.5651
50.5657
50.5663
50.567
50.5677
50.5684
50.5691
50.5699
50.5707
50.5715
50.5724
50.5732
50.5741
50.575
50.5759
50.5768
50.5777
50.5786
50.5794
50.5803
50.5811
50.5819
50.5826
50.5833
50.5839
50.5846
50.5852
50.5857
50.5863
50.5868
50.5874
50.5879
50.5885
50.589
50.5896
50.5902
50.5909
50.5915
50.5923
50.593
50.5938
50.5947
50.5956
50.5966
50.5976
50.5987
50.5998
50.601
50.6022
50.6034
50.6047
50.606
50.6072
50.6084
50.6096
50.6108
50.6118
50.6129
50.6136
50.6149
50.6128
50.5766
50.5767
50.5768
50.5769
50.5769
50.5769
50.5767
50.5764
50.576
50.5755
50.575
50.5745
50.5739
50.5732
50.5725
50.5718
50.5711
50.5704
50.5696
50.5689
50.5681
50.5673
50.5666
50.5659
50.5652
50.5645
50.5639
50.5633
50.5628
50.5623
50.5618
50.5614
50.5611
50.5608
50.5605
50.5603
50.5602
50.56
50.5599
50.5598
50.5597
50.5596
50.5594
50.5593
50.5591
50.5589
50.5587
50.5584
50.558
50.5576
50.5571
50.5565
50.5559
50.5552
50.5544
50.5535
50.5526
50.5516
50.5506
50.5495
50.5484
50.5473
50.5461
50.545
50.5438
50.5427
50.5416
50.5405
50.5394
50.5384
50.5375
50.5366
50.5358
50.535
50.5343
50.5337
50.5332
50.5327
50.5323
50.532
50.5317
50.5315
50.5314
50.5313
50.5314
50.5314
50.5316
50.5318
50.532
50.5323
50.5327
50.5331
50.5336
50.5341
50.5347
50.5354
50.5361
50.5368
50.5377
50.5385
50.5395
50.5404
50.5414
50.5425
50.5435
50.5446
50.5457
50.5468
50.5479
50.549
50.5501
50.5512
50.5522
50.5531
50.5541
50.5549
50.5557
50.5565
50.5572
50.5578
50.5583
50.5588
50.5593
50.5597
50.56
50.5603
50.5606
50.5609
50.5611
50.5614
50.5617
50.5619
50.5622
50.5625
50.5629
50.5633
50.5637
50.5641
50.5646
50.5652
50.5657
50.5664
50.567
50.5677
50.5684
50.5691
50.5699
50.5707
50.5716
50.5724
50.5733
50.5742
50.5751
50.576
50.5769
50.5777
50.5786
50.5795
50.5803
50.5811
50.5819
50.5826
50.5833
50.584
50.5846
50.5852
50.5858
50.5863
50.5869
50.5874
50.5879
50.5885
50.5891
50.5896
50.5903
50.5909
50.5916
50.5923
50.5931
50.5939
50.5947
50.5957
50.5966
50.5976
50.5987
50.5998
50.601
50.6022
50.6035
50.6047
50.606
50.6072
50.6085
50.6096
50.6108
50.6118
50.6129
50.6136
50.6149
50.6132
50.5766
50.5767
50.5768
50.5769
50.5769
50.5769
50.5767
50.5764
50.576
50.5755
50.575
50.5745
50.5739
50.5732
50.5725
50.5718
50.5711
50.5704
50.5696
50.5689
50.5681
50.5673
50.5666
50.5659
50.5652
50.5645
50.5639
50.5633
50.5628
50.5623
50.5618
50.5614
50.5611
50.5608
50.5605
50.5603
50.5602
50.56
50.5599
50.5598
50.5597
50.5596
50.5594
50.5593
50.5591
50.5589
50.5587
50.5584
50.558
50.5576
50.5571
50.5565
50.5559
50.5552
50.5544
50.5535
50.5526
50.5516
50.5506
50.5495
50.5484
50.5473
50.5461
50.545
50.5438
50.5427
50.5416
50.5405
50.5394
50.5384
50.5375
50.5366
50.5358
50.535
50.5343
50.5337
50.5332
50.5327
50.5323
50.532
50.5317
50.5315
50.5314
50.5313
50.5314
50.5314
50.5316
50.5318
50.532
50.5323
50.5327
50.5331
50.5336
50.5341
50.5347
50.5354
50.5361
50.5368
50.5377
50.5385
50.5395
50.5404
50.5414
50.5425
50.5435
50.5446
50.5457
50.5468
50.5479
50.549
50.5501
50.5512
50.5522
50.5531
50.5541
50.5549
50.5557
50.5565
50.5572
50.5578
50.5583
50.5588
50.5593
50.5597
50.56
50.5603
50.5606
50.5609
50.5611
50.5614
50.5617
50.5619
50.5622
50.5625
50.5629
50.5633
50.5637
50.5641
50.5646
50.5652
50.5657
50.5664
50.567
50.5677
50.5684
50.5691
50.5699
50.5707
50.5716
50.5724
50.5733
50.5742
50.5751
50.576
50.5769
50.5777
50.5786
50.5795
50.5803
50.5811
50.5819
50.5826
50.5833
50.584
50.5846
50.5852
50.5858
50.5863
50.5869
50.5874
50.5879
50.5885
50.5891
50.5896
50.5903
50.5909
50.5916
50.5923
50.5931
50.5939
50.5947
50.5957
50.5966
50.5976
50.5987
50.5999
50.601
50.6022
50.6035
50.6047
50.606
50.6072
50.6085
50.6096
50.6108
50.6118
50.6129
50.6137
50.6145
50.6151
50.5766
50.5767
50.5768
50.5769
50.5769
50.5769
50.5767
50.5764
50.576
50.5755
50.575
50.5745
50.5739
50.5732
50.5725
50.5718
50.5711
50.5704
50.5696
50.5689
50.5681
50.5673
50.5666
50.5659
50.5652
50.5645
50.5639
50.5633
50.5628
50.5623
50.5618
50.5614
50.5611
50.5608
50.5605
50.5603
50.5602
50.56
50.5599
50.5598
50.5597
50.5596
50.5594
50.5593
50.5591
50.5589
50.5587
50.5584
50.558
50.5576
50.5571
50.5565
50.5559
50.5552
50.5544
50.5535
50.5526
50.5516
50.5506
50.5495
50.5484
50.5473
50.5461
50.545
50.5438
50.5427
50.5416
50.5405
50.5394
50.5384
50.5375
50.5366
50.5358
50.535
50.5343
50.5337
50.5332
50.5327
50.5323
50.532
50.5317
50.5315
50.5314
50.5313
50.5314
50.5314
50.5316
50.5318
50.532
50.5323
50.5327
50.5331
50.5336
50.5341
50.5347
50.5354
50.5361
50.5368
50.5377
50.5385
50.5395
50.5404
50.5414
50.5425
50.5435
50.5446
50.5457
50.5468
50.5479
50.549
50.5501
50.5512
50.5522
50.5531
50.5541
50.5549
50.5557
50.5565
50.5572
50.5578
50.5583
50.5588
50.5593
50.5597
50.56
50.5603
50.5606
50.5609
50.5611
50.5614
50.5617
50.5619
50.5622
50.5625
50.5629
50.5633
50.5637
50.5641
50.5646
50.5652
50.5657
50.5664
50.567
50.5677
50.5684
50.5691
50.5699
50.5707
50.5716
50.5724
50.5733
50.5742
50.5751
50.576
50.5769
50.5777
50.5786
50.5795
50.5803
50.5811
50.5819
50.5826
50.5833
50.584
50.5846
50.5852
50.5858
50.5863
50.5869
50.5874
50.5879
50.5885
50.5891
50.5896
50.5903
50.5909
50.5916
50.5923
50.5931
50.5939
50.5947
50.5957
50.5966
50.5976
50.5987
50.5999
50.601
50.6022
50.6035
50.6047
50.606
50.6072
50.6084
50.6097
50.6108
50.6119
50.6128
50.6137
50.6136
50.6202
50.5765
50.5766
50.5767
50.5768
50.5769
50.5769
50.5767
50.5764
50.576
50.5755
50.575
50.5744
50.5738
50.5732
50.5725
50.5718
50.5711
50.5703
50.5696
50.5688
50.5681
50.5673
50.5666
50.5659
50.5652
50.5645
50.5639
50.5633
50.5628
50.5623
50.5618
50.5614
50.5611
50.5608
50.5605
50.5603
50.5601
50.56
50.5598
50.5597
50.5596
50.5595
50.5594
50.5593
50.5591
50.5589
50.5587
50.5584
50.558
50.5576
50.5571
50.5565
50.5558
50.5551
50.5543
50.5535
50.5526
50.5516
50.5506
50.5495
50.5484
50.5473
50.5461
50.545
50.5438
50.5427
50.5416
50.5405
50.5394
50.5384
50.5375
50.5366
50.5357
50.535
50.5343
50.5337
50.5331
50.5326
50.5322
50.5319
50.5317
50.5315
50.5314
50.5313
50.5313
50.5314
50.5315
50.5317
50.532
50.5323
50.5327
50.5331
50.5336
50.5341
50.5347
50.5353
50.5361
50.5368
50.5376
50.5385
50.5394
50.5404
50.5414
50.5424
50.5435
50.5446
50.5457
50.5468
50.5479
50.549
50.5501
50.5511
50.5521
50.5531
50.554
50.5549
50.5557
50.5564
50.5571
50.5577
50.5583
50.5588
50.5592
50.5596
50.56
50.5603
50.5606
50.5609
50.5611
50.5614
50.5616
50.5619
50.5622
50.5625
50.5629
50.5632
50.5637
50.5641
50.5646
50.5651
50.5657
50.5663
50.567
50.5677
50.5684
50.5691
50.5699
50.5707
50.5715
50.5724
50.5732
50.5741
50.575
50.5759
50.5768
50.5777
50.5786
50.5794
50.5803
50.5811
50.5819
50.5826
50.5833
50.5839
50.5846
50.5852
50.5857
50.5863
50.5868
50.5874
50.5879
50.5885
50.589
50.5896
50.5902
50.5909
50.5915
50.5923
50.593
50.5938
50.5947
50.5956
50.5966
50.5976
50.5987
50.5998
50.601
50.6022
50.6034
50.6047
50.6059
50.6072
50.6084
50.6096
50.6107
50.6119
50.6127
50.6137
50.6131
50.6255
50.6302
50.6367
50.6375
50.6358
50.6344
50.633
50.6306
50.6272
50.6237
50.6211
50.6218
50.6285
50.6319
50.6267
50.6138
50.5979
50.5868
50.578
50.5693
50.5689
50.6268
50.6301
50.63
50.6286
50.6272
50.6259
50.6235
50.6201
50.6167
50.6144
50.6152
50.6227
50.625
50.6178
50.6022
50.5868
50.5768
50.5688
50.5616
50.5606
50.6162
50.6162
50.6153
50.6134
50.6108
50.6076
50.6037
50.5992
50.5936
50.5872
50.5794
50.5706
50.5619
50.554
50.5468
50.5391
50.5298
50.5194
50.5083
50.4957
50.5951
50.5924
50.5933
50.5947
50.5936
50.5901
50.5852
50.5784
50.5728
50.5657
50.5598
50.5527
50.5462
50.5401
50.5339
50.5286
50.5238
50.5202
50.5172
50.515
50.5859
50.5746
50.5704
50.5698
50.5676
50.5629
50.5569
50.5491
50.542
50.5337
50.5262
50.5181
50.5104
50.5026
50.4956
50.4888
50.4833
50.4785
50.475
50.4732
50.5508
50.5194
50.5061
50.5053
50.5058
50.5045
50.5027
50.5026
50.5035
50.5042
50.5041
50.5042
50.5049
50.5058
50.5065
50.5059
50.4943
50.4397
50.3743
50.3549
50.3651
50.4303
50.5199
50.5604
50.5686
50.5638
50.5467
50.5345
50.5285
50.5258
50.5249
50.5246
50.5248
50.5251
50.5254
50.5258
50.5262
50.5266
50.527
50.5274
50.5277
50.5281
50.5285
50.5288
50.5292
50.5295
50.5299
50.5302
50.5305
50.5308
50.531
50.5313
50.5315
50.5317
50.532
50.5321
50.5323
50.5325
50.5326
50.5327
50.5328
50.5329
50.533
50.5331
50.5331
50.5331
50.5332
50.5332
50.5331
50.5331
50.5331
50.533
50.5329
50.5328
50.5327
50.5326
50.5325
50.5324
50.5323
50.5322
50.532
50.5319
50.5318
50.5317
50.5315
50.5314
50.5314
50.5313
50.5312
50.5312
50.5312
50.5311
50.5312
50.5312
50.5312
50.5313
50.5313
50.5314
50.5315
50.5316
50.5317
50.5318
50.5319
50.532
50.5321
50.5322
50.5323
50.5323
50.5324
50.5324
50.5325
50.5325
50.5325
50.5325
50.5324
50.5324
50.5323
50.5323
50.5322
50.5321
50.532
50.5319
50.5317
50.5316
50.5314
50.5313
50.5311
50.531
50.5308
50.5307
50.5305
50.5304
50.5303
50.5301
50.53
50.53
50.5299
50.5299
50.5299
50.5299
50.5299
50.53
50.53
50.5302
50.5303
50.5305
50.5306
50.5308
50.5311
50.5313
50.5315
50.5318
50.532
50.5323
50.5326
50.5329
50.5332
50.5335
50.5338
50.5341
50.5345
50.5348
50.5352
50.5356
50.536
50.5364
50.5369
50.5374
50.5379
50.5385
50.539
50.5396
50.5403
50.5409
50.5416
50.5423
50.5431
50.5439
50.5447
50.5455
50.5463
50.5472
50.5481
50.549
50.5499
50.5508
50.5517
50.5527
50.5536
50.5545
50.5554
50.5563
50.5572
50.558
50.5588
50.5596
50.5602
50.5609
50.5605
50.5692
50.5491
50.5184
50.5058
50.5046
50.5048
50.5032
50.5015
50.5014
50.5021
50.5026
50.5025
50.5027
50.5037
50.505
50.5059
50.5066
50.5043
50.4894
50.4695
50.4629
50.4654
50.4792
50.5023
50.5153
50.5206
50.5223
50.5229
50.5231
50.5233
50.5236
50.5239
50.5243
50.5246
50.525
50.5254
50.5258
50.5262
50.5266
50.527
50.5274
50.5278
50.5281
50.5285
50.5289
50.5292
50.5296
50.5299
50.5302
50.5305
50.5308
50.5311
50.5313
50.5316
50.5318
50.532
50.5322
50.5323
50.5325
50.5326
50.5328
50.5329
50.533
50.533
50.5331
50.5331
50.5332
50.5332
50.5332
50.5332
50.5331
50.5331
50.533
50.533
50.5329
50.5328
50.5327
50.5326
50.5324
50.5323
50.5322
50.5321
50.5319
50.5318
50.5317
50.5316
50.5315
50.5314
50.5313
50.5313
50.5312
50.5312
50.5312
50.5312
50.5312
50.5312
50.5313
50.5314
50.5314
50.5315
50.5316
50.5317
50.5318
50.5319
50.532
50.5321
50.5322
50.5323
50.5324
50.5324
50.5325
50.5325
50.5325
50.5325
50.5325
50.5325
50.5324
50.5324
50.5323
50.5322
50.5321
50.532
50.5319
50.5318
50.5316
50.5315
50.5313
50.5312
50.531
50.5308
50.5307
50.5306
50.5304
50.5303
50.5302
50.5301
50.53
50.5299
50.5299
50.5299
50.5299
50.5299
50.53
50.5301
50.5302
50.5303
50.5305
50.5307
50.5309
50.5311
50.5313
50.5316
50.5318
50.5321
50.5323
50.5326
50.5329
50.5332
50.5335
50.5338
50.5342
50.5345
50.5348
50.5352
50.5356
50.536
50.5365
50.5369
50.5374
50.5379
50.5385
50.5391
50.5397
50.5403
50.541
50.5417
50.5424
50.5431
50.5439
50.5447
50.5455
50.5464
50.5472
50.5481
50.549
50.5499
50.5508
50.5518
50.5527
50.5536
50.5546
50.5554
50.5563
50.5572
50.558
50.5588
50.5596
50.5602
50.5609
50.5609
50.5649
50.4617
50.4748
50.4842
50.4857
50.4846
50.484
50.484
50.4842
50.4846
50.4851
50.4858
50.4875
50.4924
50.4991
50.5039
50.507
50.509
50.5104
50.5117
50.5131
50.5147
50.5164
50.5181
50.5194
50.5203
50.521
50.5215
50.522
50.5225
50.523
50.5235
50.524
50.5244
50.5249
50.5253
50.5258
50.5262
50.5266
50.527
50.5274
50.5278
50.5281
50.5285
50.5289
50.5292
50.5296
50.5299
50.5302
50.5305
50.5308
50.5311
50.5313
50.5316
50.5318
50.532
50.5322
50.5323
50.5325
50.5326
50.5328
50.5329
50.533
50.533
50.5331
50.5331
50.5332
50.5332
50.5332
50.5332
50.5331
50.5331
50.533
50.533
50.5329
50.5328
50.5327
50.5326
50.5324
50.5323
50.5322
50.5321
50.5319
50.5318
50.5317
50.5316
50.5315
50.5314
50.5313
50.5313
50.5312
50.5312
50.5312
50.5312
50.5312
50.5312
50.5313
50.5314
50.5314
50.5315
50.5316
50.5317
50.5318
50.5319
50.532
50.5321
50.5322
50.5323
50.5324
50.5324
50.5325
50.5325
50.5325
50.5325
50.5325
50.5325
50.5324
50.5324
50.5323
50.5322
50.5321
50.532
50.5319
50.5318
50.5316
50.5315
50.5313
50.5312
50.531
50.5308
50.5307
50.5306
50.5304
50.5303
50.5302
50.5301
50.53
50.5299
50.5299
50.5299
50.5299
50.5299
50.53
50.5301
50.5302
50.5303
50.5305
50.5307
50.5309
50.5311
50.5313
50.5316
50.5318
50.5321
50.5323
50.5326
50.5329
50.5332
50.5335
50.5338
50.5342
50.5345
50.5348
50.5352
50.5356
50.536
50.5365
50.5369
50.5374
50.5379
50.5385
50.5391
50.5397
50.5403
50.541
50.5417
50.5424
50.5431
50.5439
50.5447
50.5455
50.5464
50.5472
50.5481
50.549
50.5499
50.5508
50.5518
50.5527
50.5536
50.5545
50.5555
50.5563
50.5572
50.558
50.5588
50.5596
50.5603
50.561
50.5616
50.5622
50.5079
50.5048
50.5035
50.5027
50.5019
50.5014
50.5017
50.5023
50.5028
50.5029
50.5031
50.5035
50.5041
50.5044
50.5037
50.5036
50.5045
50.5056
50.5056
50.5028
50.5019
50.5032
50.5064
50.5131
50.5183
50.5211
50.5224
50.5231
50.5235
50.5236
50.5239
50.5242
50.5246
50.525
50.5254
50.5258
50.5262
50.5266
50.527
50.5274
50.5278
50.5281
50.5285
50.5289
50.5292
50.5296
50.5299
50.5302
50.5305
50.5308
50.5311
50.5313
50.5316
50.5318
50.532
50.5322
50.5323
50.5325
50.5326
50.5328
50.5329
50.533
50.533
50.5331
50.5331
50.5332
50.5332
50.5332
50.5332
50.5331
50.5331
50.533
50.533
50.5329
50.5328
50.5327
50.5326
50.5324
50.5323
50.5322
50.5321
50.5319
50.5318
50.5317
50.5316
50.5315
50.5314
50.5313
50.5313
50.5312
50.5312
50.5312
50.5312
50.5312
50.5312
50.5313
50.5314
50.5314
50.5315
50.5316
50.5317
50.5318
50.5319
50.532
50.5321
50.5322
50.5323
50.5324
50.5324
50.5325
50.5325
50.5325
50.5325
50.5325
50.5325
50.5324
50.5324
50.5323
50.5322
50.5321
50.532
50.5319
50.5318
50.5316
50.5315
50.5313
50.5312
50.531
50.5308
50.5307
50.5306
50.5304
50.5303
50.5302
50.5301
50.53
50.5299
50.5299
50.5299
50.5299
50.5299
50.53
50.5301
50.5302
50.5303
50.5305
50.5307
50.5309
50.5311
50.5313
50.5316
50.5318
50.5321
50.5323
50.5326
50.5329
50.5332
50.5335
50.5338
50.5342
50.5345
50.5348
50.5352
50.5356
50.536
50.5365
50.5369
50.5374
50.5379
50.5385
50.5391
50.5397
50.5403
50.541
50.5417
50.5424
50.5431
50.5439
50.5447
50.5455
50.5464
50.5472
50.5481
50.549
50.5499
50.5508
50.5518
50.5527
50.5536
50.5545
50.5555
50.5563
50.5572
50.558
50.5589
50.5596
50.5604
50.561
50.5621
50.5615
50.4934
50.496
50.4954
50.4949
50.4941
50.4936
50.4939
50.4944
50.4947
50.4948
50.4951
50.4954
50.4951
50.4952
50.4965
50.5001
50.5055
50.5072
50.5017
50.4731
50.446
50.4376
50.4394
50.4516
50.4776
50.4968
50.5087
50.5156
50.5195
50.5216
50.5229
50.5237
50.5243
50.5248
50.5253
50.5257
50.5262
50.5266
50.527
50.5274
50.5277
50.5281
50.5285
50.5288
50.5292
50.5295
50.5299
50.5302
50.5305
50.5308
50.531
50.5313
50.5315
50.5317
50.532
50.5321
50.5323
50.5325
50.5326
50.5327
50.5328
50.5329
50.533
50.5331
50.5331
50.5331
50.5332
50.5332
50.5331
50.5331
50.5331
50.533
50.5329
50.5328
50.5327
50.5326
50.5325
50.5324
50.5323
50.5322
50.532
50.5319
50.5318
50.5317
50.5315
50.5314
50.5314
50.5313
50.5312
50.5312
50.5312
50.5311
50.5312
50.5312
50.5312
50.5313
50.5313
50.5314
50.5315
50.5316
50.5317
50.5318
50.5319
50.532
50.5321
50.5322
50.5323
50.5323
50.5324
50.5324
50.5325
50.5325
50.5325
50.5325
50.5324
50.5324
50.5323
50.5323
50.5322
50.5321
50.532
50.5319
50.5317
50.5316
50.5314
50.5313
50.5311
50.531
50.5308
50.5307
50.5305
50.5304
50.5303
50.5301
50.53
50.53
50.5299
50.5299
50.5299
50.5299
50.5299
50.53
50.53
50.5302
50.5303
50.5305
50.5306
50.5308
50.5311
50.5313
50.5315
50.5318
50.532
50.5323
50.5326
50.5329
50.5332
50.5335
50.5338
50.5341
50.5345
50.5348
50.5352
50.5356
50.536
50.5364
50.5369
50.5374
50.5379
50.5385
50.539
50.5396
50.5403
50.5409
50.5416
50.5423
50.5431
50.5439
50.5447
50.5455
50.5463
50.5472
50.5481
50.549
50.5499
50.5508
50.5517
50.5527
50.5536
50.5545
50.5554
50.5563
50.5572
50.558
50.5588
50.5595
50.5603
50.561
50.5621
50.5613
50.5353
50.5235
50.5192
50.5183
50.5162
50.5115
50.5051
50.4984
50.4909
50.4835
50.4758
50.4679
50.4605
50.4529
50.4463
50.4398
50.4347
50.43
50.4267
50.425
50.5436
50.5407
50.5414
50.5425
50.5414
50.5379
50.5323
50.5273
50.5204
50.515
50.5081
50.5016
50.4956
50.4894
50.4835
50.4786
50.4741
50.4704
50.4674
50.4654
50.5631
50.5632
50.5623
50.5605
50.5581
50.555
50.5513
50.5467
50.5414
50.5348
50.5271
50.5191
50.5116
50.5047
50.4977
50.4891
50.4794
50.469
50.4577
50.4447
50.5729
50.5762
50.5762
50.5748
50.5733
50.5718
50.5695
50.5664
50.5637
50.5629
50.569
50.5725
50.568
50.5553
50.5408
50.531
50.5231
50.5162
50.5113
50.5187
50.5761
50.5826
50.5834
50.5818
50.5803
50.5787
50.5764
50.5733
50.5704
50.5695
50.5749
50.5787
50.5759
50.5656
50.5509
50.5401
50.5318
50.5239
50.518
50.5263
50.4443
50.4462
50.4456
50.4451
50.4443
50.4439
50.4442
50.4446
50.4449
50.4449
50.4451
50.4454
50.4454
50.4451
50.4457
50.4478
50.4532
50.4563
50.455
50.437
50.4034
50.3877
50.3861
50.3922
50.414
50.4371
50.4519
50.4607
50.4658
50.4686
50.4702
50.4713
50.472
50.4727
50.4733
50.4738
50.4744
50.4749
50.4755
50.476
50.4766
50.4771
50.4776
50.4781
50.4786
50.4791
50.4796
50.48
50.4804
50.4808
50.4812
50.4815
50.4818
50.482
50.4823
50.4825
50.4826
50.4828
50.4829
50.483
50.4831
50.4832
50.4832
50.4833
50.4833
50.4833
50.4833
50.4833
50.4832
50.4832
50.4832
50.4831
50.4831
50.483
50.4829
50.4829
50.4828
50.4828
50.4827
50.4827
50.4827
50.4827
50.4828
50.4829
50.483
50.4831
50.4833
50.4836
50.4838
50.4841
50.4845
50.4849
50.4853
50.4858
50.4863
50.4869
50.4873
50.488
50.4875
50.4958
50.4583
50.4549
50.4536
50.4527
50.4518
50.4514
50.4518
50.4523
50.4527
50.4527
50.4528
50.4531
50.4536
50.4541
50.4538
50.453
50.4533
50.4542
50.4548
50.4534
50.4515
50.4521
50.4539
50.4587
50.4645
50.4679
50.4697
50.4706
50.4712
50.4714
50.4716
50.472
50.4724
50.4729
50.4734
50.4739
50.4744
50.475
50.4755
50.4761
50.4766
50.4771
50.4777
50.4782
50.4787
50.4792
50.4796
50.48
50.4804
50.4808
50.4812
50.4815
50.4818
50.4821
50.4823
50.4825
50.4827
50.4828
50.4829
50.483
50.4831
50.4832
50.4832
50.4833
50.4833
50.4833
50.4833
50.4833
50.4833
50.4832
50.4832
50.4832
50.4831
50.483
50.483
50.4829
50.4829
50.4828
50.4828
50.4828
50.4828
50.4828
50.4828
50.4829
50.483
50.4832
50.4833
50.4836
50.4838
50.4842
50.4845
50.4849
50.4853
50.4858
50.4863
50.4869
50.4874
50.488
50.4879
50.4916
50.4138
50.4263
50.4351
50.4364
50.4353
50.4347
50.4348
50.4347
50.4347
50.4348
50.4352
50.4363
50.4394
50.4459
50.4512
50.4546
50.4568
50.4582
50.4594
50.4607
50.4621
50.4637
50.4654
50.4668
50.4679
50.4687
50.4691
50.4696
50.4701
50.4706
50.4711
50.4717
50.4722
50.4728
50.4733
50.4739
50.4744
50.475
50.4755
50.4761
50.4766
50.4771
50.4777
50.4782
50.4787
50.4792
50.4796
50.48
50.4804
50.4808
50.4812
50.4815
50.4818
50.4821
50.4823
50.4825
50.4827
50.4828
50.4829
50.483
50.4831
50.4832
50.4832
50.4833
50.4833
50.4833
50.4833
50.4833
50.4833
50.4832
50.4832
50.4832
50.4831
50.483
50.483
50.4829
50.4829
50.4828
50.4828
50.4828
50.4828
50.4828
50.4828
50.4829
50.483
50.4832
50.4833
50.4836
50.4839
50.4842
50.4845
50.4849
50.4854
50.4858
50.4864
50.4869
50.4874
50.488
50.4887
50.4892
50.504
50.4663
50.4541
50.4554
50.4558
50.453
50.4511
50.4515
50.4526
50.4532
50.4525
50.4519
50.4526
50.4537
50.4546
50.4553
50.4547
50.4466
50.425
50.4126
50.4118
50.4189
50.4415
50.4597
50.4679
50.4706
50.4713
50.4714
50.4713
50.4715
50.4717
50.4721
50.4725
50.4729
50.4734
50.4739
50.4744
50.475
50.4755
50.4761
50.4766
50.4771
50.4777
50.4782
50.4787
50.4792
50.4796
50.48
50.4804
50.4808
50.4812
50.4815
50.4818
50.4821
50.4823
50.4825
50.4827
50.4828
50.4829
50.483
50.4831
50.4832
50.4832
50.4833
50.4833
50.4833
50.4833
50.4833
50.4833
50.4832
50.4832
50.4832
50.4831
50.483
50.483
50.4829
50.4829
50.4828
50.4828
50.4828
50.4828
50.4828
50.4828
50.4829
50.483
50.4832
50.4833
50.4836
50.4839
50.4842
50.4845
50.4849
50.4854
50.4858
50.4864
50.4869
50.4875
50.4881
50.4891
50.4887
50.5062
50.4674
50.4546
50.456
50.4568
50.454
50.452
50.4526
50.4539
50.4549
50.4541
50.4535
50.4539
50.4546
50.4553
50.4555
50.4513
50.4232
50.353
50.3141
50.312
50.3412
50.4309
50.4934
50.5138
50.5144
50.5031
50.4872
50.4787
50.4747
50.4731
50.4726
50.4727
50.473
50.4734
50.4739
50.4744
50.475
50.4755
50.476
50.4766
50.4771
50.4776
50.4781
50.4786
50.4791
50.4796
50.48
50.4804
50.4808
50.4812
50.4815
50.4818
50.482
50.4823
50.4825
50.4826
50.4828
50.4829
50.483
50.4831
50.4832
50.4832
50.4833
50.4833
50.4833
50.4833
50.4833
50.4832
50.4832
50.4832
50.4831
50.4831
50.483
50.4829
50.4829
50.4828
50.4828
50.4828
50.4827
50.4827
50.4827
50.4828
50.4829
50.483
50.4831
50.4833
50.4835
50.4838
50.4841
50.4845
50.4849
50.4853
50.4858
50.4863
50.4868
50.4874
50.4881
50.4891
50.4885
50.4628
50.451
50.4468
50.4459
50.4438
50.4392
50.4328
50.4263
50.4188
50.4116
50.404
50.3962
50.389
50.3815
50.375
50.3686
50.3635
50.359
50.3557
50.3541
50.471
50.4682
50.4688
50.47
50.4689
50.4654
50.4599
50.455
50.4483
50.443
50.4362
50.4298
50.4239
50.4179
50.4121
50.4073
50.4028
50.3993
50.3963
50.3943
50.4903
50.4904
50.4896
50.4878
50.4855
50.4825
50.4789
50.4744
50.4692
50.4627
50.4551
50.4472
50.4398
50.433
50.4261
50.4177
50.4082
50.398
50.3869
50.3741
50.4999
50.5032
50.5033
50.502
50.5006
50.4991
50.4969
50.4939
50.4913
50.4905
50.4964
50.5
50.4958
50.4834
50.4688
50.4592
50.4515
50.4447
50.44
50.4472
50.5031
50.5096
50.5105
50.509
50.5076
50.506
50.5037
50.5007
50.4979
50.4971
50.5022
50.5061
50.5036
50.4935
50.479
50.4683
50.4601
50.4524
50.4466
50.4548
50.3734
50.376
50.3761
50.3762
50.3756
50.3756
50.3763
50.3772
50.3778
50.3783
50.3789
50.3795
50.3795
50.38
50.3816
50.3857
50.3901
50.3908
50.3814
50.3493
50.3271
50.3219
50.325
50.3414
50.366
50.3824
50.3922
50.3975
50.4003
50.4015
50.4021
50.4022
50.4023
50.4022
50.402
50.4019
50.4018
50.4017
50.4016
50.4016
50.4015
50.4015
50.4016
50.4017
50.4018
50.4019
50.4021
50.4024
50.4027
50.4031
50.4035
50.4039
50.4044
50.405
50.4056
50.4062
50.4069
50.4076
50.4083
50.4091
50.4099
50.4107
50.4115
50.4123
50.4131
50.4139
50.4147
50.4155
50.4163
50.4171
50.4178
50.4185
50.4192
50.4198
50.4204
50.421
50.4216
50.4221
50.4225
50.423
50.4234
50.4237
50.4241
50.4244
50.4246
50.4249
50.4251
50.4253
50.4255
50.4256
50.4258
50.4259
50.426
50.4261
50.4262
50.4263
50.4264
50.4264
50.4265
50.4265
50.4266
50.4266
50.4266
50.4266
50.4266
50.4266
50.4266
50.4266
50.4266
50.4266
50.4265
50.4265
50.4264
50.4264
50.4264
50.4263
50.4263
50.4262
50.4262
50.4261
50.4261
50.426
50.426
50.426
50.426
50.4259
50.4259
50.4259
50.4259
50.4259
50.4259
50.4259
50.4259
50.4259
50.4259
50.426
50.426
50.4261
50.4261
50.4262
50.4262
50.4263
50.4264
50.4265
50.4265
50.4266
50.4266
50.4267
50.4267
50.4267
50.4267
50.4267
50.4266
50.4266
50.4265
50.4264
50.4263
50.4261
50.426
50.4258
50.4256
50.4255
50.4253
50.4251
50.4249
50.4247
50.4246
50.4244
50.4243
50.4242
50.424
50.4239
50.4238
50.4238
50.4237
50.4237
50.4237
50.4237
50.4238
50.4239
50.424
50.4241
50.4243
50.4246
50.4248
50.4252
50.4255
50.4259
50.4263
50.4268
50.4273
50.4278
50.4283
50.4289
50.4294
50.43
50.4306
50.4311
50.4321
50.4312
50.3872
50.3844
50.3839
50.3837
50.3832
50.3832
50.3839
50.3849
50.3856
50.3862
50.3867
50.3875
50.3883
50.3887
50.3882
50.3883
50.3893
50.3902
50.39
50.3878
50.3877
50.3889
50.3922
50.3979
50.4015
50.4031
50.4037
50.4038
50.4035
50.4031
50.4029
50.4026
50.4024
50.4023
50.4021
50.402
50.4019
50.4017
50.4017
50.4016
50.4016
50.4016
50.4016
50.4017
50.4018
50.402
50.4022
50.4024
50.4027
50.4031
50.4035
50.404
50.4045
50.405
50.4056
50.4062
50.4069
50.4076
50.4083
50.4091
50.4099
50.4107
50.4115
50.4123
50.4131
50.4139
50.4148
50.4156
50.4163
50.4171
50.4178
50.4185
50.4192
50.4199
50.4205
50.4211
50.4216
50.4221
50.4226
50.423
50.4234
50.4238
50.4241
50.4244
50.4247
50.4249
50.4251
50.4253
50.4255
50.4257
50.4258
50.4259
50.426
50.4261
50.4262
50.4263
50.4264
50.4265
50.4265
50.4266
50.4266
50.4266
50.4266
50.4267
50.4267
50.4267
50.4266
50.4266
50.4266
50.4266
50.4266
50.4265
50.4265
50.4264
50.4264
50.4263
50.4263
50.4262
50.4262
50.4262
50.4261
50.4261
50.426
50.426
50.426
50.4259
50.4259
50.4259
50.4259
50.4259
50.4259
50.4259
50.4259
50.4259
50.426
50.426
50.426
50.4261
50.4262
50.4262
50.4263
50.4263
50.4264
50.4265
50.4266
50.4266
50.4267
50.4267
50.4267
50.4267
50.4267
50.4267
50.4267
50.4266
50.4265
50.4264
50.4263
50.4262
50.426
50.4258
50.4257
50.4255
50.4253
50.4251
50.425
50.4248
50.4246
50.4245
50.4243
50.4242
50.4241
50.424
50.4239
50.4238
50.4238
50.4237
50.4237
50.4237
50.4238
50.4239
50.424
50.4242
50.4244
50.4246
50.4249
50.4252
50.4255
50.4259
50.4264
50.4268
50.4273
50.4278
50.4284
50.4289
50.4295
50.43
50.4306
50.4312
50.4321
50.4314
50.3431
50.3564
50.3655
50.3672
50.3664
50.3663
50.3668
50.3674
50.368
50.3686
50.3697
50.3717
50.3768
50.3833
50.388
50.391
50.3929
50.3943
50.3956
50.3969
50.3984
50.4
50.4012
50.4021
50.4025
50.4027
50.4027
50.4027
50.4027
50.4026
50.4025
50.4024
50.4023
50.4022
50.4021
50.402
50.4018
50.4017
50.4017
50.4016
50.4016
50.4016
50.4016
50.4017
50.4018
50.402
50.4022
50.4024
50.4027
50.4031
50.4035
50.404
50.4045
50.405
50.4056
50.4062
50.4069
50.4076
50.4083
50.4091
50.4099
50.4107
50.4115
50.4123
50.4131
50.4139
50.4148
50.4156
50.4163
50.4171
50.4178
50.4185
50.4192
50.4199
50.4205
50.4211
50.4216
50.4221
50.4226
50.423
50.4234
50.4238
50.4241
50.4244
50.4247
50.4249
50.4251
50.4253
50.4255
50.4257
50.4258
50.4259
50.426
50.4261
50.4262
50.4263
50.4264
50.4265
50.4265
50.4266
50.4266
50.4266
50.4266
50.4267
50.4267
50.4267
50.4266
50.4266
50.4266
50.4266
50.4266
50.4265
50.4265
50.4264
50.4264
50.4263
50.4263
50.4262
50.4262
50.4262
50.4261
50.4261
50.426
50.426
50.426
50.4259
50.4259
50.4259
50.4259
50.4259
50.4259
50.4259
50.4259
50.4259
50.426
50.426
50.426
50.4261
50.4262
50.4262
50.4263
50.4263
50.4264
50.4265
50.4266
50.4266
50.4267
50.4267
50.4267
50.4267
50.4267
50.4267
50.4267
50.4266
50.4265
50.4264
50.4263
50.4262
50.426
50.4258
50.4257
50.4255
50.4253
50.4251
50.425
50.4248
50.4246
50.4245
50.4243
50.4242
50.4241
50.424
50.4239
50.4238
50.4238
50.4237
50.4237
50.4237
50.4238
50.4239
50.424
50.4242
50.4244
50.4246
50.4249
50.4252
50.4255
50.4259
50.4264
50.4268
50.4273
50.4278
50.4284
50.4289
50.4295
50.43
50.4306
50.4311
50.4317
50.4321
50.431
50.3948
50.3843
50.386
50.3867
50.3844
50.3833
50.3843
50.3856
50.3862
50.3861
50.3865
50.3877
50.3889
50.3899
50.3903
50.3865
50.369
50.3522
50.3482
50.3519
50.3693
50.3903
50.4006
50.4041
50.4047
50.4046
50.404
50.4036
50.4032
50.403
50.4027
50.4025
50.4023
50.4021
50.402
50.4019
50.4018
50.4017
50.4016
50.4016
50.4016
50.4016
50.4017
50.4018
50.402
50.4022
50.4024
50.4027
50.4031
50.4035
50.404
50.4045
50.405
50.4056
50.4062
50.4069
50.4076
50.4083
50.4091
50.4099
50.4107
50.4115
50.4123
50.4131
50.4139
50.4148
50.4156
50.4163
50.4171
50.4178
50.4185
50.4192
50.4199
50.4205
50.4211
50.4216
50.4221
50.4226
50.423
50.4234
50.4238
50.4241
50.4244
50.4247
50.4249
50.4251
50.4253
50.4255
50.4257
50.4258
50.4259
50.426
50.4261
50.4262
50.4263
50.4264
50.4265
50.4265
50.4266
50.4266
50.4266
50.4266
50.4267
50.4267
50.4267
50.4266
50.4266
50.4266
50.4266
50.4266
50.4265
50.4265
50.4264
50.4264
50.4263
50.4263
50.4262
50.4262
50.4262
50.4261
50.4261
50.426
50.426
50.426
50.4259
50.4259
50.4259
50.4259
50.4259
50.4259
50.4259
50.4259
50.4259
50.426
50.426
50.426
50.4261
50.4262
50.4262
50.4263
50.4263
50.4264
50.4265
50.4266
50.4266
50.4267
50.4267
50.4267
50.4267
50.4267
50.4267
50.4267
50.4266
50.4265
50.4264
50.4263
50.4262
50.426
50.4258
50.4257
50.4255
50.4253
50.4251
50.425
50.4248
50.4246
50.4245
50.4243
50.4242
50.4241
50.424
50.4239
50.4238
50.4238
50.4237
50.4237
50.4237
50.4238
50.4239
50.424
50.4242
50.4244
50.4246
50.4249
50.4252
50.4255
50.4259
50.4264
50.4268
50.4273
50.4278
50.4283
50.4289
50.4295
50.43
50.4305
50.4311
50.4309
50.4349
50.4332
50.3958
50.3848
50.3866
50.3878
50.3855
50.3843
50.3854
50.3869
50.3878
50.3875
50.3879
50.3889
50.3899
50.3906
50.3893
50.3745
50.3156
50.2617
50.2498
50.2647
50.337
50.413
50.4431
50.4471
50.4399
50.4231
50.4128
50.4075
50.4049
50.4036
50.403
50.4026
50.4023
50.4021
50.402
50.4018
50.4017
50.4016
50.4016
50.4015
50.4015
50.4016
50.4017
50.4018
50.4019
50.4021
50.4024
50.4027
50.4031
50.4035
50.4039
50.4044
50.405
50.4056
50.4062
50.4069
50.4076
50.4083
50.4091
50.4099
50.4107
50.4115
50.4123
50.4131
50.4139
50.4147
50.4155
50.4163
50.4171
50.4178
50.4185
50.4192
50.4198
50.4204
50.421
50.4216
50.4221
50.4225
50.423
50.4234
50.4237
50.4241
50.4244
50.4246
50.4249
50.4251
50.4253
50.4255
50.4256
50.4258