/*--------------------------------*- C++ -*----------------------------------*\
| =========                 |                                                 |
| \\      /  F ield         | OpenFOAM: The Open Source CFD Toolbox           |
|  \\    /   O peration     | Version:  3.0.x                                 |
|   \\  /    A nd           | Web:      www.OpenFOAM.org                      |
|    \\/     M anipulation  |                                                 |
\*---------------------------------------------------------------------------*/
FoamFile
{
    version     2.0;
    format      ascii;
    class       surfaceScalarField;
    location    "0.008";
    object      phi;
}
// * * * * * * * * * * * * * * * * * * * * * * * * * * * * * * * * * * * * * //

dimensions      [1 0 -1 0 0 0 0];

internalField   nonuniform List<scalar> 
999
(
2154.97
2154.97
2154.97
2154.97
2154.97
2154.97
2154.97
2154.97
2154.97
2154.97
2154.97
2154.97
2154.97
2154.97
2154.97
2154.97
2154.97
2154.97
2154.97
2154.97
2154.97
2154.97
2154.97
2154.97
2154.97
2154.97
2154.97
2154.97
2154.97
2154.97
2154.97
2154.97
2154.97
2154.97
2154.97
2154.97
2154.97
2154.97
2154.97
2154.97
2154.97
2154.97
2154.97
2154.97
2154.97
2154.97
2154.97
2154.97
2154.97
2154.97
2154.97
2154.97
2154.97
2154.97
2154.97
2154.97
2154.97
2154.97
2154.97
2154.97
2154.97
2154.97
2154.97
2154.97
2154.97
2154.97
2154.97
2154.97
2154.97
2154.97
2154.97
2154.97
2154.97
2154.97
2154.97
2154.97
2154.97
2154.97
2154.97
2154.97
2154.97
2154.97
2154.97
2154.97
2154.97
2154.97
2154.97
2154.97
2154.97
2154.97
2154.97
2154.97
2154.97
2154.97
2154.97
2154.97
2154.97
2154.97
2154.97
2154.97
2154.97
2154.97
2154.97
2154.97
2154.97
2154.97
2154.97
2154.97
2154.97
2154.97
2154.97
2154.97
2154.97
2154.97
2154.97
2154.97
2154.97
2154.97
2154.97
2154.97
2154.97
2154.97
2154.97
2154.97
2154.97
2154.97
2154.97
2154.97
2154.97
2154.97
2154.97
2154.97
2154.97
2154.97
2154.97
2154.97
2154.97
2154.97
2154.97
2154.97
2154.97
2154.97
2154.97
2154.97
2154.97
2154.97
2154.97
2154.97
2154.97
2154.97
2154.97
2154.97
2154.97
2154.97
2154.97
2154.97
2154.97
2154.97
2154.97
2154.97
2154.97
2154.97
2154.97
2154.97
2154.97
2154.97
2154.97
2154.97
2154.97
2154.97
2154.97
2154.97
2154.97
2154.97
2154.97
2154.97
2154.97
2154.97
2154.97
2154.97
2154.97
2154.97
2154.97
2154.97
2154.97
2154.97
2154.97
2154.97
2154.97
2154.97
2154.97
2154.97
2154.97
2154.97
2154.97
2154.97
2154.97
2154.97
2154.97
2154.97
2154.97
2154.97
2154.97
2154.97
2154.97
2154.97
2154.97
2154.97
2154.97
2154.97
2154.97
2154.97
2154.97
2154.97
2154.97
2154.97
2154.97
2154.97
2154.97
2154.97
2154.97
2154.97
2154.97
2154.97
2154.97
2154.97
2154.97
2154.97
2154.97
2154.97
2154.97
2154.97
2154.97
2154.97
2154.97
2154.97
2154.97
2154.97
2154.97
2154.97
2154.97
2154.97
2154.97
2154.97
2154.97
2154.97
2154.97
2154.97
2154.97
2154.97
2154.97
2154.97
2154.97
2154.97
2154.97
2154.97
2154.97
2154.97
2154.97
2154.97
2154.97
2154.97
2154.97
2154.97
2154.97
2154.97
2154.97
2154.97
2154.97
2154.97
2154.97
2154.97
2154.97
2154.97
2154.97
2154.97
2154.97
2154.97
2154.97
2154.97
2154.97
2154.97
2154.97
2154.97
2154.97
2154.97
2154.97
2154.97
2154.97
2154.97
2154.97
2154.97
2154.97
2154.97
2154.97
2154.97
2154.97
2154.97
2154.97
2154.97
2154.97
2154.97
2154.97
2154.97
2154.97
2154.97
2154.97
2154.97
2154.97
2154.97
2154.97
2154.97
2154.97
2154.97
2154.97
2154.97
2154.97
2154.97
2154.97
2154.97
2154.97
2154.97
2154.97
2154.97
2154.97
2154.97
2154.97
2154.97
2154.97
2154.97
2154.97
2154.97
2154.97
2154.97
2154.97
2154.97
2154.97
2154.97
2154.97
2154.97
2154.97
2154.97
2154.97
2154.97
2154.97
2154.97
2154.97
2154.97
2154.97
2154.97
2154.97
2154.97
2154.97
2154.97
2154.97
2154.97
2154.97
2154.97
2154.97
2154.97
2154.97
2154.97
2154.97
2154.97
2154.97
2154.97
2154.97
2154.97
2154.97
2154.97
2154.97
2154.97
2154.97
2154.97
2154.97
2154.97
2154.97
2154.97
2154.97
2154.97
2154.97
2154.97
2154.97
2154.97
2154.97
2154.97
2154.97
2154.97
2154.97
2154.97
2154.97
2154.97
2154.97
2154.97
2154.97
2154.97
2154.97
2154.97
2154.97
2154.97
2154.97
2154.97
2154.97
2154.97
2154.97
2154.97
2154.97
2154.97
2154.97
2154.97
2154.97
2154.97
2154.97
2154.97
2154.97
2154.97
2154.97
2154.97
2154.97
2154.97
2154.96
2154.96
2154.96
2154.96
2154.96
2154.95
2154.95
2154.94
2154.94
2154.93
2154.92
2154.91
2154.89
2154.87
2154.84
2154.81
2154.78
2154.73
2154.67
2154.6
2154.52
2154.41
2154.29
2154.14
2153.95
2153.73
2153.45
2153.13
2152.73
2152.26
2151.7
2151.02
2150.21
2149.25
2148.11
2146.76
2145.15
2143.26
2141.03
2138.41
2135.33
2131.72
2127.5
2122.58
2116.86
2110.21
2102.52
2093.63
2083.38
2071.61
2058.12
2042.71
2025.16
2005.23
1982.7
1957.31
1928.82
1896.99
1861.59
1822.43
1779.35
1732.21
1680.96
1625.6
1566.24
1503.05
1436.32
1366.41
1293.82
1219.09
1142.87
1065.86
988.764
912.324
837.247
764.2
693.783
626.51
562.805
502.985
447.268
395.775
348.533
305.495
266.544
231.512
200.188
172.336
147.699
126.013
107.015
90.4439
76.0515
63.6024
52.8772
43.6736
35.8072
29.1117
23.4379
18.6538
14.6431
11.3043
8.54924
6.30208
4.49744
3.07881
1.99662
1.20606
0.664837
0.330856
0.160021
0.104535
0.113707
0.146569
0.183764
0.21857
0.248878
0.27425
0.294901
0.311295
0.323976
0.333486
0.340335
0.344977
0.347812
0.349183
0.349382
0.348652
0.347197
0.345182
0.342742
0.339989
0.337009
0.333873
0.330635
0.327339
0.324017
0.320695
0.317391
0.314121
0.310893
0.307715
0.304592
0.301526
0.298519
0.295573
0.292685
0.289857
0.287086
0.284372
0.281712
0.279106
0.276552
0.274047
0.27159
0.269181
0.266816
0.264495
0.262216
0.259978
0.25778
0.25562
0.253496
0.251409
0.249356
0.247337
0.245351
0.243396
0.241472
0.239578
0.237713
0.235877
0.234067
0.232285
0.230528
0.228796
0.227089
0.225406
0.223747
0.22211
0.220495
0.218901
0.217329
0.215777
0.214245
0.212733
0.211239
0.209764
0.208308
0.206869
0.205447
0.204042
0.202654
0.201282
0.199926
0.198585
0.19726
0.195949
0.194653
0.193371
0.192103
0.190848
0.189607
0.188379
0.187164
0.185962
0.184772
0.183594
0.182428
0.181274
0.180131
0.178999
0.177879
0.176769
0.17567
0.174582
0.173504
0.172436
0.171378
0.170329
0.16929
0.168261
0.16724
0.166229
0.165227
0.164233
0.163248
0.162272
0.161303
0.160343
0.159391
0.158447
0.157511
0.156583
0.155662
0.154748
0.153842
0.152943
0.152052
0.151167
0.15029
0.149419
0.148555
0.147698
0.146848
0.146004
0.145167
0.144336
0.143511
0.142692
0.14188
0.141074
0.140273
0.139479
0.13869
0.137907
0.13713
0.136358
0.135592
0.134831
0.134076
0.133325
0.13258
0.13184
0.131105
0.130375
0.129649
0.128929
0.128213
0.127502
0.126795
0.126093
0.125395
0.124702
0.124013
0.123328
0.122647
0.121971
0.121298
0.12063
0.119965
0.119305
0.118648
0.117995
0.117347
0.116701
0.11606
0.115422
0.114788
0.114158
0.113531
0.112908
0.112288
0.111672
0.11106
0.11045
0.109845
0.109242
0.108643
0.108047
0.107455
0.106865
0.106279
0.105696
0.105116
0.104539
0.103965
0.103394
0.102826
0.102261
0.101699
0.10114
0.100583
0.100029
0.0994782
0.0989298
0.0983841
0.0978411
0.0973006
0.0967628
0.0962275
0.0956948
0.0951646
0.0946369
0.0941116
0.0935889
0.0930685
0.0925506
0.0920351
0.0915219
0.091011
0.0905025
0.0899962
0.0894921
0.0889902
0.0884905
0.0879929
0.0874974
0.087004
0.0865126
0.0860231
0.0855357
0.0850502
0.0845667
0.0840851
0.0836055
0.0831278
0.0826519
0.082178
0.081706
0.0812359
0.0807677
0.0803013
0.0798368
0.0793741
0.0789132
0.078454
0.0779966
0.0775409
0.0770869
0.0766346
0.0761839
0.0757348
0.0752874
0.0748416
0.0743974
0.0739549
0.0735141
0.0730749
0.0726374
0.0722016
0.0717675
0.071335
0.0709042
0.0704751
0.0700476
0.0696217
0.0691974
0.0687745
0.068353
0.067933
0.0675143
0.0670968
0.0666806
0.0662657
0.0658519
0.0654394
0.0650281
0.064618
0.0642093
0.0638018
0.0633957
0.062991
0.0625877
0.0621859
0.0617856
0.0613867
0.0609893
0.0605932
0.0601986
0.0598053
0.0594133
0.0590224
0.0586326
0.0582439
0.0578561
0.0574692
0.0570832
0.056698
0.0563136
0.05593
0.0555472
0.0551653
0.0547841
0.0544039
0.0540245
0.0536461
0.0532686
0.0528921
0.0525166
0.0521421
0.0517685
0.0513959
0.0510242
0.0506535
0.0502836
0.0499147
0.0495465
0.0491793
0.0488129
0.0484473
0.0480827
0.0477191
0.0473564
0.0469948
0.0466343
0.0462748
0.0459165
0.0455593
0.0452033
0.0448483
0.0444943
0.0441413
0.0437891
0.0434377
0.0430869
0.0427367
0.0423869
0.0420376
0.0416887
0.0413401
0.0409919
0.0406442
0.040297
0.0399505
0.0396049
0.0392601
0.0389165
0.0385741
0.0382331
0.0378935
0.0375555
0.0372189
0.0368838
0.03655
0.0362174
0.0358858
0.0355549
0.0352245
0.0348942
0.0345639
0.0342332
0.0339019
0.0335699
0.033237
0.0329034
0.0325691
0.0322343
0.0318993
0.0315643
0.0312298
0.0308962
0.0305638
0.0302329
0.0299041
0.0295774
0.0292531
0.0289313
0.0286118
0.0282944
0.0279787
0.0276643
0.0273507
0.0270373
0.0267238
0.0264097
0.0260948
0.0257787
0.0254611
0.0251416
0.0248196
0.024495
0.0241674
0.0238373
0.0235053
0.0231679
0.0228806
0.0225035
0.0222553
0.0218496
0.0216219
0.0211837
0.0209464
0.0207292
0.0216294
0.0200894
0.0196865
0.0192356
0.0190609
0.0185903
0.0184299
0.0179294
0.017796
0.0172692
0.0171684
0.0166214
0.0165556
0.0159907
0.0159544
0.0153707
0.0153535
0.0147531
0.0147442
0.014135
0.0141234
0.0135179
0.0134904
0.0129035
0.0128438
0.0122926
0.012182
0.0116853
0.0115043
0.0110829
0.0108121
0.0104871
0.0101084
0.00989975
0.00939706
0.00932151
0.00868245
0.00875223
0.00796956
0.00819084
0.00726381
0.00763531
0.00657043
0.00708223
0.00589375
0.0065268
0.00523685
0.00596327
0.00460159
0.00538578
0.00398892
0.00478924
0.00339903
0.00416996
0.00283134
0.00352601
0.00228442
0.00285737
0.00175596
0.00216594
0.00124276
0.00145547
0.000740998
0.000731457
0.000245876
)
;

boundaryField
{
    inlet
    {
        type            calculated;
        value           uniform -2154.97;
    }
    backWall
    {
        type            calculated;
        value           uniform 0;
    }
    sides
    {
        type            empty;
        value           nonuniform 0();
    }
}


// ************************************************************************* //
