/*--------------------------------*- C++ -*----------------------------------*\
| =========                 |                                                 |
| \\      /  F ield         | OpenFOAM: The Open Source CFD Toolbox           |
|  \\    /   O peration     | Version:  3.0.x                                 |
|   \\  /    A nd           | Web:      www.OpenFOAM.org                      |
|    \\/     M anipulation  |                                                 |
\*---------------------------------------------------------------------------*/
FoamFile
{
    version     2.0;
    format      ascii;
    class       volVectorField;
    location    "0.008";
    object      U;
}
// * * * * * * * * * * * * * * * * * * * * * * * * * * * * * * * * * * * * * //

dimensions      [0 1 -1 0 0 0 0];

internalField   nonuniform List<vector> 
1000
(
(42.7 0 0)
(42.7 0 0)
(42.7 0 0)
(42.7 0 0)
(42.7 0 0)
(42.7 0 0)
(42.7 0 0)
(42.7 0 0)
(42.7 0 0)
(42.7 0 0)
(42.7 0 0)
(42.7 0 0)
(42.7 0 0)
(42.7 0 0)
(42.7 0 0)
(42.7 0 0)
(42.7 0 0)
(42.7 0 0)
(42.7 0 0)
(42.7 0 0)
(42.7 0 0)
(42.7 0 0)
(42.7 0 0)
(42.7 0 0)
(42.7 0 0)
(42.7 0 0)
(42.7 0 0)
(42.7 0 0)
(42.7 0 0)
(42.7 0 0)
(42.7 0 0)
(42.7 0 0)
(42.7 0 0)
(42.7 0 0)
(42.7 0 0)
(42.7 0 0)
(42.7 0 0)
(42.7 0 0)
(42.7 0 0)
(42.7 0 0)
(42.7 0 0)
(42.7 0 0)
(42.7 0 0)
(42.7 0 0)
(42.7 0 0)
(42.7 0 0)
(42.7 0 0)
(42.7 0 0)
(42.7 0 0)
(42.7 0 0)
(42.7 0 0)
(42.7 0 0)
(42.7 0 0)
(42.7 0 0)
(42.7 0 0)
(42.7 0 0)
(42.7 0 0)
(42.7 0 0)
(42.7 0 0)
(42.7 0 0)
(42.7 0 0)
(42.7 0 0)
(42.7 0 0)
(42.7 0 0)
(42.7 0 0)
(42.7 0 0)
(42.7 0 0)
(42.7 0 0)
(42.7 0 0)
(42.7 0 0)
(42.7 0 0)
(42.7 0 0)
(42.7 0 0)
(42.7 0 0)
(42.7 0 0)
(42.7 0 0)
(42.7 0 0)
(42.7 0 0)
(42.7 0 0)
(42.7 0 0)
(42.7 0 0)
(42.7 0 0)
(42.7 0 0)
(42.7 0 0)
(42.7 0 0)
(42.7 0 0)
(42.7 0 0)
(42.7 0 0)
(42.7 0 0)
(42.7 0 0)
(42.7 0 0)
(42.7 0 0)
(42.7 0 0)
(42.7 0 0)
(42.7 0 0)
(42.7 0 0)
(42.7 0 0)
(42.7 0 0)
(42.7 0 0)
(42.7 0 0)
(42.7 0 0)
(42.7 0 0)
(42.7 0 0)
(42.7 0 0)
(42.7 0 0)
(42.7 0 0)
(42.7 0 0)
(42.7 0 0)
(42.7 0 0)
(42.7 0 0)
(42.7 0 0)
(42.7 0 0)
(42.7 0 0)
(42.7 0 0)
(42.7 0 0)
(42.7 0 0)
(42.7 0 0)
(42.7 0 0)
(42.7 0 0)
(42.7 0 0)
(42.7 0 0)
(42.7 0 0)
(42.7 0 0)
(42.7 0 0)
(42.7 0 0)
(42.7 0 0)
(42.7 0 0)
(42.7 0 0)
(42.7 0 0)
(42.7 0 0)
(42.7 0 0)
(42.7 0 0)
(42.7 0 0)
(42.7 0 0)
(42.7 0 0)
(42.7 0 0)
(42.7 0 0)
(42.7 0 0)
(42.7 0 0)
(42.7 0 0)
(42.7 0 0)
(42.7 0 0)
(42.7 0 0)
(42.7 0 0)
(42.7 0 0)
(42.7 0 0)
(42.7 0 0)
(42.7 0 0)
(42.7 0 0)
(42.7 0 0)
(42.7 0 0)
(42.7 0 0)
(42.7 0 0)
(42.7 0 0)
(42.7 0 0)
(42.7 0 0)
(42.7 0 0)
(42.7 0 0)
(42.7 0 0)
(42.7 0 0)
(42.7 0 0)
(42.7 0 0)
(42.7 0 0)
(42.7 0 0)
(42.7 0 0)
(42.7 0 0)
(42.7 0 0)
(42.7 0 0)
(42.7 0 0)
(42.7 0 0)
(42.7 0 0)
(42.7 0 0)
(42.7 0 0)
(42.7 0 0)
(42.7 0 0)
(42.7 0 0)
(42.7 0 0)
(42.7 0 0)
(42.7 0 0)
(42.7 0 0)
(42.7 0 0)
(42.7 0 0)
(42.7 0 0)
(42.7 0 0)
(42.7 0 0)
(42.7 0 0)
(42.7 0 0)
(42.7 0 0)
(42.7 0 0)
(42.7 0 0)
(42.7 0 0)
(42.7 0 0)
(42.7 0 0)
(42.7 0 0)
(42.7 0 0)
(42.7 0 0)
(42.7 0 0)
(42.7 0 0)
(42.7 0 0)
(42.7 0 0)
(42.7 0 0)
(42.7 0 0)
(42.7 0 0)
(42.7 0 0)
(42.7 0 0)
(42.7 0 0)
(42.7 0 0)
(42.7 0 0)
(42.7 0 0)
(42.7 0 0)
(42.7 0 0)
(42.7 0 0)
(42.7 0 0)
(42.7 0 0)
(42.7 0 0)
(42.7 0 0)
(42.7 0 0)
(42.7 0 0)
(42.7 0 0)
(42.7 0 0)
(42.7 0 0)
(42.7 0 0)
(42.7 0 0)
(42.7 0 0)
(42.7 0 0)
(42.7 0 0)
(42.7 0 0)
(42.7 0 0)
(42.7 0 0)
(42.7 0 0)
(42.7 0 0)
(42.7 0 0)
(42.7 0 0)
(42.7 0 0)
(42.7 0 0)
(42.7 0 0)
(42.7 0 0)
(42.7 0 0)
(42.7 0 0)
(42.7 0 0)
(42.7 0 0)
(42.7 0 0)
(42.7 0 0)
(42.7 0 0)
(42.7 0 0)
(42.7 0 0)
(42.7 0 0)
(42.7 0 0)
(42.7 0 0)
(42.7 0 0)
(42.7 0 0)
(42.7 0 0)
(42.7 0 0)
(42.7 0 0)
(42.7 0 0)
(42.7 0 0)
(42.7 0 0)
(42.7 0 0)
(42.7 0 0)
(42.7 0 0)
(42.7 0 0)
(42.7 0 0)
(42.7 0 0)
(42.7 0 0)
(42.7 0 0)
(42.7 0 0)
(42.7 0 0)
(42.7 0 0)
(42.7 0 0)
(42.7 0 0)
(42.7 0 0)
(42.7 0 0)
(42.7 0 0)
(42.7 0 0)
(42.7 0 0)
(42.7 0 0)
(42.7 0 0)
(42.7 0 0)
(42.7 0 0)
(42.7 0 0)
(42.7 0 0)
(42.7 0 0)
(42.7 0 0)
(42.7 0 0)
(42.7 0 0)
(42.7 0 0)
(42.7 0 0)
(42.7 0 0)
(42.7 0 0)
(42.7 0 0)
(42.7 0 0)
(42.7 0 0)
(42.7 0 0)
(42.7 0 0)
(42.7 0 0)
(42.7 0 0)
(42.7 0 0)
(42.7 0 0)
(42.7 0 0)
(42.7 0 0)
(42.7 0 0)
(42.7 0 0)
(42.7 0 0)
(42.7 0 0)
(42.7 0 0)
(42.7 0 0)
(42.7 0 0)
(42.7 0 0)
(42.7 0 0)
(42.7 0 0)
(42.7 0 0)
(42.7 0 0)
(42.7 0 0)
(42.7 0 0)
(42.7 0 0)
(42.7 0 0)
(42.7 0 0)
(42.7 0 0)
(42.7 0 0)
(42.7 0 0)
(42.7 0 0)
(42.7 0 0)
(42.7 0 0)
(42.7 0 0)
(42.7 0 0)
(42.7 0 0)
(42.7 0 0)
(42.7 0 0)
(42.7 0 0)
(42.7 0 0)
(42.7 0 0)
(42.7 0 0)
(42.7 0 0)
(42.7 0 0)
(42.7 0 0)
(42.7 0 0)
(42.7 0 0)
(42.7 0 0)
(42.7 0 0)
(42.7 0 0)
(42.7 0 0)
(42.7 0 0)
(42.7 0 0)
(42.7 0 0)
(42.7 0 0)
(42.7 0 0)
(42.7 0 0)
(42.7 0 0)
(42.7 0 0)
(42.7 0 0)
(42.7 0 0)
(42.7 0 0)
(42.7 0 0)
(42.7 0 0)
(42.7 0 0)
(42.7 0 0)
(42.7 0 0)
(42.7 0 0)
(42.7 0 0)
(42.7 0 0)
(42.7 0 0)
(42.7 0 0)
(42.7 0 0)
(42.7 0 0)
(42.7 0 0)
(42.7 0 0)
(42.7 0 0)
(42.7 0 0)
(42.7 0 0)
(42.7 0 0)
(42.7 0 0)
(42.7 0 0)
(42.7 0 0)
(42.7 0 0)
(42.7 0 0)
(42.7 0 0)
(42.7 0 0)
(42.7 0 0)
(42.7 0 0)
(42.7 0 0)
(42.7 0 0)
(42.7 0 0)
(42.7 0 0)
(42.7 0 0)
(42.7 0 0)
(42.7 0 0)
(42.7 0 0)
(42.7 0 0)
(42.7 0 0)
(42.7 0 0)
(42.7 0 0)
(42.7 0 0)
(42.7 0 0)
(42.7 0 0)
(42.7 0 0)
(42.7 0 0)
(42.7 0 0)
(42.7 0 0)
(42.7 0 0)
(42.7 0 0)
(42.7 0 0)
(42.7 0 0)
(42.7 0 0)
(42.7 0 0)
(42.7 0 0)
(42.7 0 0)
(42.7 0 0)
(42.7 0 0)
(42.7 0 0)
(42.7 0 0)
(42.7 0 0)
(42.7 0 0)
(42.7 0 0)
(42.7 0 0)
(42.7 0 0)
(42.7 0 0)
(42.7 0 0)
(42.7 0 0)
(42.6999 0 0)
(42.6999 0 0)
(42.6999 0 0)
(42.6999 0 0)
(42.6999 0 0)
(42.6998 0 0)
(42.6998 0 0)
(42.6997 0 0)
(42.6996 0 0)
(42.6995 0 0)
(42.6994 0 0)
(42.6992 0 0)
(42.699 0 0)
(42.6988 0 0)
(42.6985 0 0)
(42.6981 0 0)
(42.6976 0 0)
(42.697 0 0)
(42.6963 0 0)
(42.6954 0 0)
(42.6943 0 0)
(42.693 0 0)
(42.6914 0 0)
(42.6894 0 0)
(42.6869 0 0)
(42.684 0 0)
(42.6804 0 0)
(42.6761 0 0)
(42.6708 0 0)
(42.6645 0 0)
(42.6569 0 0)
(42.6477 0 0)
(42.6367 0 0)
(42.6236 0 0)
(42.6079 0 0)
(42.5892 0 0)
(42.567 0 0)
(42.5406 0 0)
(42.5094 0 0)
(42.4724 0 0)
(42.4288 0 0)
(42.3775 0 0)
(42.3172 0 0)
(42.2465 0 0)
(42.1638 0 0)
(42.0673 0 0)
(41.9549 0 0)
(41.8244 0 0)
(41.6731 0 0)
(41.4981 0 0)
(41.2964 0 0)
(41.0645 0 0)
(40.7986 0 0)
(40.4947 0 0)
(40.1483 0 0)
(39.755 0 0)
(39.3099 0 0)
(38.8083 0 0)
(38.2452 0 0)
(37.6159 0 0)
(36.9161 0 0)
(36.1416 0 0)
(35.2894 0 0)
(34.3569 0 0)
(33.3431 0 0)
(32.2481 0 0)
(31.0739 0 0)
(29.824 0 0)
(28.5041 0 0)
(27.1217 0 0)
(25.6861 0 0)
(24.2085 0 0)
(22.7014 0 0)
(21.1785 0 0)
(19.6539 0 0)
(18.1421 0 0)
(16.657 0 0)
(15.2117 0 0)
(13.8179 0 0)
(12.4858 0 0)
(11.2237 0 0)
(10.0379 0 0)
(8.93276 0 0)
(7.91062 0 0)
(6.97216 0 0)
(6.11647 0 0)
(5.34135 0 0)
(4.64353 0 0)
(4.01896 0 0)
(3.463 0 0)
(2.97069 0 0)
(2.53685 0 0)
(2.15632 0 0)
(1.824 0 0)
(1.53501 0 0)
(1.28473 0 0)
(1.06882 0 0)
(0.883296 0 0)
(0.724525 0 0)
(0.58921 0 0)
(0.474404 0 0)
(0.377485 0 0)
(0.296147 0 0)
(0.228373 0 0)
(0.172411 0 0)
(0.126749 0 0)
(0.0900804 0 0)
(0.0612735 0 0)
(0.0393277 0 0)
(0.0233319 0 0)
(0.0124172 0 0)
(0.00570933 0 0)
(0.00228499 0 0)
(0.00114565 0 0)
(0.00129051 0 0)
(0.00194951 0 0)
(0.00272049 0 0)
(0.00345181 0 0)
(0.00409445 0 0)
(0.00463716 0 0)
(0.00508323 0 0)
(0.00544162 0 0)
(0.00572314 0 0)
(0.00593875 0 0)
(0.00609876 0 0)
(0.00621248 0 0)
(0.00628809 0 0)
(0.00633269 0 0)
(0.00635227 0 0)
(0.00635191 0 0)
(0.00633583 0 0)
(0.00630751 0 0)
(0.0062698 0 0)
(0.00622502 0 0)
(0.00617502 0 0)
(0.00612129 0 0)
(0.00606501 0 0)
(0.0060071 0 0)
(0.00594829 0 0)
(0.00588912 0 0)
(0.00583002 0 0)
(0.00577129 0 0)
(0.00571318 0 0)
(0.00565584 0 0)
(0.00559939 0 0)
(0.0055439 0 0)
(0.00548943 0 0)
(0.00543599 0 0)
(0.0053836 0 0)
(0.00533225 0 0)
(0.00528192 0 0)
(0.00523259 0 0)
(0.00518424 0 0)
(0.00513685 0 0)
(0.00509038 0 0)
(0.00504481 0 0)
(0.0050001 0 0)
(0.00495624 0 0)
(0.00491318 0 0)
(0.00487091 0 0)
(0.00482941 0 0)
(0.00478863 0 0)
(0.00474857 0 0)
(0.0047092 0 0)
(0.00467049 0 0)
(0.00463244 0 0)
(0.004595 0 0)
(0.00455818 0 0)
(0.00452194 0 0)
(0.00448627 0 0)
(0.00445117 0 0)
(0.00441659 0 0)
(0.00438255 0 0)
(0.00434901 0 0)
(0.00431597 0 0)
(0.0042834 0 0)
(0.00425131 0 0)
(0.00421968 0 0)
(0.00418848 0 0)
(0.00415772 0 0)
(0.00412738 0 0)
(0.00409745 0 0)
(0.00406792 0 0)
(0.00403877 0 0)
(0.00401001 0 0)
(0.00398162 0 0)
(0.00395359 0 0)
(0.00392592 0 0)
(0.00389858 0 0)
(0.00387159 0 0)
(0.00384492 0 0)
(0.00381857 0 0)
(0.00379254 0 0)
(0.00376681 0 0)
(0.00374138 0 0)
(0.00371625 0 0)
(0.0036914 0 0)
(0.00366683 0 0)
(0.00364254 0 0)
(0.00361851 0 0)
(0.00359475 0 0)
(0.00357125 0 0)
(0.003548 0 0)
(0.003525 0 0)
(0.00350224 0 0)
(0.00347972 0 0)
(0.00345743 0 0)
(0.00343537 0 0)
(0.00341354 0 0)
(0.00339192 0 0)
(0.00337052 0 0)
(0.00334934 0 0)
(0.00332836 0 0)
(0.00330759 0 0)
(0.00328702 0 0)
(0.00326664 0 0)
(0.00324646 0 0)
(0.00322648 0 0)
(0.00320667 0 0)
(0.00318705 0 0)
(0.00316761 0 0)
(0.00314835 0 0)
(0.00312926 0 0)
(0.00311034 0 0)
(0.0030916 0 0)
(0.00307301 0 0)
(0.00305459 0 0)
(0.00303633 0 0)
(0.00301821 0 0)
(0.00300027 0 0)
(0.00298246 0 0)
(0.00296481 0 0)
(0.00294731 0 0)
(0.00292994 0 0)
(0.00291273 0 0)
(0.00289564 0 0)
(0.00287871 0 0)
(0.0028619 0 0)
(0.00284523 0 0)
(0.0028287 0 0)
(0.00281229 0 0)
(0.00279602 0 0)
(0.00277986 0 0)
(0.00276384 0 0)
(0.00274794 0 0)
(0.00273216 0 0)
(0.00271651 0 0)
(0.00270097 0 0)
(0.00268556 0 0)
(0.00267026 0 0)
(0.00265507 0 0)
(0.00264 0 0)
(0.00262504 0 0)
(0.00261019 0 0)
(0.00259545 0 0)
(0.00258082 0 0)
(0.00256629 0 0)
(0.00255187 0 0)
(0.00253755 0 0)
(0.00252332 0 0)
(0.00250921 0 0)
(0.00249519 0 0)
(0.00248127 0 0)
(0.00246745 0 0)
(0.00245371 0 0)
(0.00244008 0 0)
(0.00242652 0 0)
(0.00241307 0 0)
(0.0023997 0 0)
(0.00238642 0 0)
(0.00237322 0 0)
(0.00236012 0 0)
(0.00234709 0 0)
(0.00233414 0 0)
(0.00232129 0 0)
(0.00230849 0 0)
(0.00229579 0 0)
(0.00228317 0 0)
(0.00227061 0 0)
(0.00225815 0 0)
(0.00224575 0 0)
(0.00223341 0 0)
(0.00222117 0 0)
(0.00220898 0 0)
(0.00219687 0 0)
(0.00218484 0 0)
(0.00217286 0 0)
(0.00216096 0 0)
(0.00214915 0 0)
(0.00213736 0 0)
(0.00212567 0 0)
(0.00211406 0 0)
(0.00210247 0 0)
(0.00209099 0 0)
(0.00207957 0 0)
(0.00206816 0 0)
(0.0020569 0 0)
(0.00204564 0 0)
(0.00203443 0 0)
(0.00202337 0 0)
(0.00201228 0 0)
(0.00200126 0 0)
(0.00199039 0 0)
(0.00197945 0 0)
(0.00196863 0 0)
(0.00195795 0 0)
(0.00194714 0 0)
(0.00193653 0 0)
(0.00192602 0 0)
(0.00191531 0 0)
(0.00190496 0 0)
(0.00189458 0 0)
(0.00188396 0 0)
(0.00187391 0 0)
(0.00186355 0 0)
(0.00185314 0 0)
(0.00184323 0 0)
(0.00183322 0 0)
(0.00182221 0 0)
(0.00181413 0 0)
(0.0018015 0 0)
(0.001794 0 0)
(0.00178355 0 0)
(0.00177083 0 0)
(0.00176756 0 0)
(0.00175028 0 0)
(0.00174478 0 0)
(0.00173751 0 0)
(0.00172001 0 0)
(0.00171916 0 0)
(0.00170457 0 0)
(0.00169471 0 0)
(0.00169001 0 0)
(0.00167423 0 0)
(0.00167004 0 0)
(0.00165873 0 0)
(0.00164709 0 0)
(0.00164493 0 0)
(0.00162672 0 0)
(0.00162274 0 0)
(0.001618 0 0)
(0.00159676 0 0)
(0.00159881 0 0)
(0.0015889 0 0)
(0.00156951 0 0)
(0.00157475 0 0)
(0.00155807 0 0)
(0.00154536 0 0)
(0.00154892 0 0)
(0.00152883 0 0)
(0.00152208 0 0)
(0.00151995 0 0)
(0.00150318 0 0)
(0.0014975 0 0)
(0.00149084 0 0)
(0.00147876 0 0)
(0.00147337 0 0)
(0.00146121 0 0)
(0.00145681 0 0)
(0.00144692 0 0)
(0.0014344 0 0)
(0.00143506 0 0)
(0.00141834 0 0)
(0.00141082 0 0)
(0.00141337 0 0)
(0.00138881 0 0)
(0.00138972 0 0)
(0.0013936 0 0)
(0.0013583 0 0)
(0.00137023 0 0)
(0.00137216 0 0)
(0.00132985 0 0)
(0.00134996 0 0)
(0.00134552 0 0)
(0.00130589 0 0)
(0.00132819 0 0)
(0.00131499 0 0)
(0.00128724 0 0)
(0.00130269 0 0)
(0.0012873 0 0)
(0.00126896 0 0)
(0.00127329 0 0)
(0.00126388 0 0)
(0.00124807 0 0)
(0.00124642 0 0)
(0.00123976 0 0)
(0.00123104 0 0)
(0.00121553 0 0)
(0.00122244 0 0)
(0.00121612 0 0)
(0.00118531 0 0)
(0.00120226 0 0)
(0.00119612 0 0)
(0.00116071 0 0)
(0.00117812 0 0)
(0.001179 0 0)
(0.00113146 0 0)
(0.00116054 0 0)
(0.00115628 0 0)
(0.00110521 0 0)
(0.00114428 0 0)
(0.0011286 0 0)
(0.00108747 0 0)
(0.00112163 0 0)
(0.00110339 0 0)
(0.00107267 0 0)
(0.00109415 0 0)
(0.0010797 0 0)
(0.00106266 0 0)
(0.00105844 0 0)
(0.00106218 0 0)
(0.00105538 0 0)
(0.00102461 0 0)
(0.00103811 0 0)
(0.00104249 0 0)
(0.000994497 0 0)
(0.00102227 0 0)
(0.0010194 0 0)
(0.000970914 0 0)
(0.00100728 0 0)
(0.000990071 0 0)
(0.000958162 0 0)
(0.000983313 0 0)
(0.000967141 0 0)
(0.000943295 0 0)
(0.000957431 0 0)
(0.000941731 0 0)
(0.000936178 0 0)
(0.000920793 0 0)
(0.000927602 0 0)
(0.000923253 0 0)
(0.000892198 0 0)
(0.000910432 0 0)
(0.000901992 0 0)
(0.000876037 0 0)
(0.000882984 0 0)
(0.000886986 0 0)
(0.000869831 0 0)
(0.000847823 0 0)
(0.000867428 0 0)
(0.000854709 0 0)
(0.000820815 0 0)
(0.000850418 0 0)
(0.000831832 0 0)
(0.000804645 0 0)
(0.000830971 0 0)
(0.000805561 0 0)
(0.000801923 0 0)
(0.000790958 0 0)
(0.000788039 0 0)
(0.000797492 0 0)
(0.000758316 0 0)
(0.000776079 0 0)
(0.000772738 0 0)
(0.000754785 0 0)
(0.000743077 0 0)
(0.000758958 0 0)
(0.000738668 0 0)
(0.000717283 0 0)
(0.000745681 0 0)
(0.000713099 0 0)
(0.000705534 0 0)
(0.000717329 0 0)
(0.00070058 0 0)
(0.00068456 0 0)
(0.000691467 0 0)
(0.000687736 0 0)
(0.000663358 0 0)
(0.000685214 0 0)
(0.000656595 0 0)
(0.000653029 0 0)
(0.000664736 0 0)
(0.000634042 0 0)
(0.000642971 0 0)
(0.000633126 0 0)
(0.000634687 0 0)
(0.00060292 0 0)
(0.000627237 0 0)
(0.000607409 0 0)
(0.000589312 0 0)
(0.000611866 0 0)
(0.000583538 0 0)
(0.000577402 0 0)
(0.000587801 0 0)
(0.000569246 0 0)
(0.000554711 0 0)
(0.000576094 0 0)
(0.00054116 0 0)
(0.000548474 0 0)
(0.000543936 0 0)
(0.000537826 0 0)
(0.000516139 0 0)
(0.000540224 0 0)
(0.000505008 0 0)
(0.000516063 0 0)
(0.000505146 0 0)
(0.000500455 0 0)
(0.000498278 0 0)
(0.000476511 0 0)
(0.00049509 0 0)
(0.000469647 0 0)
(0.000467846 0 0)
(0.00047163 0 0)
(0.000454381 0 0)
(0.000450845 0 0)
(0.000452258 0 0)
(0.000429717 0 0)
(0.000464937 0 0)
(0.000305363 0 0)
(0.00071502 0 0)
(-0.00012682 0 0)
(0.00127475 0 0)
(-0.000854267 0 0)
(0.00211569 0 0)
(-0.00184901 0 0)
(0.00321072 0 0)
(-0.00308429 0 0)
(0.00453011 0 0)
(-0.00453189 0 0)
(0.00611938 0 0)
(-0.00638955 0 0)
(0.0082291 0 0)
(-0.00883611 0 0)
(0.0110038 0 0)
(-0.0120291 0 0)
(0.0146126 0 0)
(-0.0161509 0 0)
(0.0192522 0 0)
(-0.0214119 0 0)
(0.0251475 0 0)
(-0.0280507 0 0)
(0.0325503 0 0)
(-0.0363318 0 0)
(0.0417359 0 0)
(-0.0465411 0 0)
(0.0529986 0 0)
(-0.0589791 0 0)
(0.0666427 0 0)
(-0.0739515 0 0)
(0.0829719 0 0)
(-0.0917564 0 0)
(0.102275 0 0)
(-0.112669 0 0)
(0.12481 0 0)
(-0.136926 0 0)
(0.150785 0 0)
(-0.164702 0 0)
(0.180338 0 0)
(-0.196092 0 0)
(0.213516 0 0)
(-0.231092 0 0)
(0.250259 0 0)
(-0.269578 0 0)
(0.290377 0 0)
(-0.311292 0 0)
(0.333539 0 0)
(-0.355831 0 0)
(0.379267 0 0)
(-0.402639 0 0)
(0.426933 0 0)
(-0.451015 0 0)
(0.475763 0 0)
(-0.500119 0 0)
(0.524856 0 0)
(-0.548993 0 0)
(0.573205 0 0)
(-0.596589 0 0)
(0.619727 0 0)
(-0.641803 0 0)
(0.663307 0 0)
(-0.683515 0 0)
(0.702834 0 0)
(-0.720638 0 0)
(0.737253 0 0)
(-0.752158 0 0)
(0.765609 0 0)
(-0.77719 0 0)
(0.787089 0 0)
(-0.795007 0 0)
(0.801067 0 0)
(-0.805087 0 0)
(0.807127 0 0)
)
;

boundaryField
{
    inlet
    {
        type            fixedValue;
        value           uniform (42.7 0 0);
    }
    backWall
    {
        type            fixedValue;
        value           uniform (0 0 0);
    }
    sides
    {
        type            empty;
    }
}


// ************************************************************************* //
