/*--------------------------------*- C++ -*----------------------------------*\
| =========                 |                                                 |
| \\      /  F ield         | OpenFOAM: The Open Source CFD Toolbox           |
|  \\    /   O peration     | Version:  3.0.x                                 |
|   \\  /    A nd           | Web:      www.OpenFOAM.org                      |
|    \\/     M anipulation  |                                                 |
\*---------------------------------------------------------------------------*/
FoamFile
{
    version     2.0;
    format      ascii;
    class       volScalarField;
    location    "0.34005";
    object      rho;
}
// * * * * * * * * * * * * * * * * * * * * * * * * * * * * * * * * * * * * * //

dimensions      [1 -3 0 0 0 0 0];

internalField   nonuniform List<scalar> 
13800
(
50.609
50.609
50.6091
50.6091
50.6091
50.6091
50.6091
50.6091
50.6091
50.6091
50.6091
50.6091
50.6091
50.6091
50.6091
50.6091
50.6092
50.6092
50.6092
50.6092
50.6092
50.6091
50.609
50.609
50.609
50.609
50.609
50.6091
50.6093
50.6095
50.6096
50.6096
50.6097
50.6097
50.6098
50.6098
50.6098
50.6098
50.6098
50.6098
50.6098
50.6097
50.6097
50.6096
50.6096
50.6096
50.6096
50.6097
50.6098
50.6099
50.61
50.61
50.61
50.6101
50.6101
50.6101
50.6101
50.6102
50.6103
50.6105
50.6106
50.6106
50.6107
50.6108
50.6108
50.6109
50.6109
50.611
50.611
50.611
50.611
50.6109
50.6108
50.6107
50.6107
50.6107
50.6107
50.6107
50.6108
50.6109
50.611
50.6111
50.6112
50.6113
50.6113
50.6113
50.6114
50.6114
50.6114
50.6114
50.6114
50.6114
50.6114
50.6114
50.6114
50.6114
50.6114
50.6114
50.6114
50.6114
50.6114
50.6114
50.6114
50.6114
50.6114
50.6114
50.6114
50.6114
50.6114
50.6113
50.6113
50.6113
50.6113
50.6113
50.6113
50.6113
50.6113
50.6113
50.6113
50.6113
50.6113
50.6113
50.6113
50.6113
50.6113
50.6112
50.6112
50.6112
50.6112
50.6112
50.6112
50.6112
50.6112
50.6112
50.6112
50.6112
50.6112
50.6112
50.6112
50.6112
50.6112
50.6112
50.6112
50.6113
50.6113
50.6113
50.6113
50.6113
50.6113
50.6113
50.6113
50.6114
50.6114
50.6114
50.6114
50.6114
50.6115
50.6115
50.6115
50.6115
50.6115
50.6116
50.6116
50.6116
50.6117
50.6117
50.6117
50.6117
50.6118
50.6118
50.6119
50.6119
50.6119
50.612
50.612
50.6121
50.6121
50.6122
50.6123
50.6123
50.6124
50.6125
50.6126
50.6126
50.6127
50.6128
50.6129
50.613
50.6131
50.6133
50.6134
50.6135
50.6137
50.6138
50.614
50.6142
50.6146
50.615
50.619
50.6102
50.6102
50.6102
50.6102
50.6102
50.6102
50.6102
50.6102
50.6102
50.6102
50.6102
50.6102
50.6102
50.6102
50.6102
50.6102
50.6103
50.6103
50.6103
50.6103
50.6103
50.6102
50.6102
50.6101
50.6101
50.6101
50.6101
50.6101
50.6102
50.6103
50.6105
50.6106
50.6107
50.6107
50.6108
50.6108
50.6108
50.6108
50.6108
50.6108
50.6108
50.6108
50.6107
50.6106
50.6106
50.6106
50.6106
50.6106
50.6106
50.6108
50.6109
50.6109
50.611
50.611
50.611
50.611
50.611
50.611
50.6111
50.6112
50.6113
50.6115
50.6115
50.6116
50.6117
50.6117
50.6118
50.6118
50.6118
50.6118
50.6118
50.6118
50.6118
50.6117
50.6116
50.6115
50.6115
50.6115
50.6115
50.6116
50.6117
50.6118
50.6119
50.612
50.6121
50.6121
50.6121
50.6122
50.6122
50.6122
50.6122
50.6122
50.6122
50.6122
50.6122
50.6122
50.6121
50.6121
50.6121
50.6121
50.6121
50.6121
50.6121
50.6121
50.6121
50.6121
50.6121
50.6121
50.6121
50.6121
50.6121
50.6121
50.6121
50.612
50.612
50.612
50.612
50.612
50.612
50.612
50.612
50.612
50.612
50.612
50.612
50.612
50.612
50.612
50.612
50.612
50.612
50.612
50.612
50.612
50.612
50.612
50.612
50.612
50.612
50.612
50.612
50.612
50.612
50.612
50.612
50.612
50.612
50.612
50.612
50.612
50.6121
50.6121
50.6121
50.6121
50.6121
50.6121
50.6122
50.6122
50.6122
50.6122
50.6123
50.6123
50.6123
50.6123
50.6124
50.6124
50.6124
50.6124
50.6125
50.6125
50.6125
50.6126
50.6126
50.6127
50.6127
50.6128
50.6128
50.6129
50.6129
50.613
50.6131
50.6131
50.6132
50.6133
50.6134
50.6135
50.6135
50.6136
50.6138
50.6139
50.614
50.6141
50.6143
50.6144
50.6146
50.6147
50.615
50.6153
50.6156
50.6198
50.6073
50.6102
50.6102
50.6102
50.6102
50.6102
50.6102
50.6102
50.6102
50.6102
50.6102
50.6102
50.6102
50.6102
50.6102
50.6102
50.6103
50.6103
50.6103
50.6103
50.6103
50.6102
50.6102
50.6101
50.6101
50.6101
50.6101
50.6101
50.6102
50.6103
50.6105
50.6106
50.6107
50.6107
50.6108
50.6108
50.6108
50.6108
50.6108
50.6108
50.6108
50.6108
50.6107
50.6106
50.6106
50.6106
50.6106
50.6106
50.6106
50.6108
50.6109
50.6109
50.611
50.611
50.611
50.611
50.611
50.611
50.6111
50.6112
50.6113
50.6115
50.6115
50.6116
50.6117
50.6117
50.6118
50.6118
50.6118
50.6118
50.6118
50.6118
50.6118
50.6117
50.6116
50.6115
50.6115
50.6115
50.6115
50.6116
50.6117
50.6118
50.6119
50.612
50.6121
50.6121
50.6121
50.6122
50.6122
50.6122
50.6122
50.6122
50.6122
50.6122
50.6122
50.6122
50.6121
50.6121
50.6121
50.6121
50.6121
50.6121
50.6121
50.6121
50.6121
50.6121
50.6121
50.6121
50.6121
50.6121
50.6121
50.6121
50.6121
50.612
50.612
50.612
50.612
50.612
50.612
50.612
50.612
50.612
50.612
50.612
50.612
50.612
50.612
50.612
50.612
50.612
50.612
50.612
50.612
50.612
50.612
50.612
50.612
50.612
50.612
50.612
50.612
50.612
50.612
50.612
50.612
50.612
50.612
50.612
50.612
50.612
50.6121
50.6121
50.6121
50.6121
50.6121
50.6121
50.6122
50.6122
50.6122
50.6122
50.6123
50.6123
50.6123
50.6123
50.6124
50.6124
50.6124
50.6124
50.6125
50.6125
50.6125
50.6126
50.6126
50.6127
50.6127
50.6128
50.6128
50.6129
50.6129
50.613
50.6131
50.6131
50.6132
50.6133
50.6134
50.6135
50.6135
50.6136
50.6138
50.6139
50.614
50.6141
50.6143
50.6144
50.6146
50.6147
50.615
50.6153
50.6156
50.6198
50.6077
50.6102
50.6102
50.6102
50.6102
50.6102
50.6102
50.6102
50.6102
50.6102
50.6102
50.6102
50.6102
50.6102
50.6102
50.6102
50.6102
50.6103
50.6103
50.6103
50.6103
50.6102
50.6102
50.6101
50.6101
50.61
50.6101
50.6101
50.6102
50.6103
50.6105
50.6106
50.6107
50.6107
50.6107
50.6108
50.6108
50.6108
50.6108
50.6108
50.6108
50.6108
50.6107
50.6106
50.6106
50.6106
50.6106
50.6106
50.6106
50.6108
50.6109
50.6109
50.611
50.611
50.611
50.611
50.611
50.611
50.6111
50.6112
50.6113
50.6114
50.6115
50.6116
50.6117
50.6117
50.6118
50.6118
50.6118
50.6118
50.6118
50.6118
50.6118
50.6117
50.6116
50.6115
50.6115
50.6115
50.6115
50.6116
50.6117
50.6118
50.6119
50.612
50.6121
50.6121
50.6121
50.6122
50.6122
50.6122
50.6122
50.6122
50.6122
50.6122
50.6122
50.6122
50.6121
50.6121
50.6121
50.6121
50.6121
50.6121
50.6121
50.6121
50.6121
50.6121
50.6121
50.6121
50.6121
50.6121
50.6121
50.6121
50.6121
50.612
50.612
50.612
50.612
50.612
50.612
50.612
50.612
50.612
50.612
50.612
50.612
50.612
50.612
50.612
50.612
50.612
50.612
50.612
50.612
50.612
50.612
50.612
50.612
50.612
50.612
50.612
50.612
50.612
50.612
50.612
50.612
50.612
50.612
50.612
50.612
50.612
50.6121
50.6121
50.6121
50.6121
50.6121
50.6121
50.6122
50.6122
50.6122
50.6122
50.6123
50.6123
50.6123
50.6123
50.6124
50.6124
50.6124
50.6124
50.6125
50.6125
50.6125
50.6126
50.6126
50.6127
50.6127
50.6128
50.6128
50.6129
50.6129
50.613
50.6131
50.6131
50.6132
50.6133
50.6134
50.6135
50.6135
50.6136
50.6138
50.6139
50.614
50.6141
50.6143
50.6144
50.6146
50.6147
50.615
50.6153
50.6156
50.6192
50.6116
50.6102
50.6102
50.6102
50.6102
50.6102
50.6102
50.6102
50.6102
50.6102
50.6102
50.6102
50.6102
50.6102
50.6102
50.6102
50.6102
50.6102
50.6103
50.6103
50.6103
50.6102
50.6102
50.6101
50.6101
50.61
50.6101
50.6101
50.6102
50.6103
50.6105
50.6106
50.6107
50.6107
50.6107
50.6108
50.6108
50.6108
50.6108
50.6108
50.6108
50.6108
50.6107
50.6106
50.6106
50.6106
50.6105
50.6106
50.6106
50.6108
50.6109
50.6109
50.611
50.611
50.611
50.611
50.611
50.611
50.6111
50.6112
50.6113
50.6114
50.6115
50.6116
50.6116
50.6117
50.6118
50.6118
50.6118
50.6118
50.6118
50.6118
50.6118
50.6117
50.6116
50.6115
50.6115
50.6115
50.6115
50.6116
50.6117
50.6118
50.6119
50.612
50.612
50.6121
50.6121
50.6122
50.6122
50.6122
50.6122
50.6122
50.6122
50.6122
50.6122
50.6122
50.6121
50.6121
50.6121
50.6121
50.6121
50.6121
50.6121
50.6121
50.6121
50.6121
50.6121
50.6121
50.6121
50.6121
50.6121
50.6121
50.6121
50.612
50.612
50.612
50.612
50.612
50.612
50.612
50.612
50.612
50.612
50.612
50.612
50.612
50.612
50.612
50.612
50.612
50.612
50.612
50.612
50.612
50.612
50.612
50.612
50.612
50.612
50.612
50.612
50.612
50.612
50.612
50.612
50.612
50.612
50.612
50.612
50.612
50.6121
50.6121
50.6121
50.6121
50.6121
50.6121
50.6122
50.6122
50.6122
50.6122
50.6123
50.6123
50.6123
50.6123
50.6124
50.6124
50.6124
50.6124
50.6125
50.6125
50.6125
50.6126
50.6126
50.6127
50.6127
50.6128
50.6128
50.6129
50.6129
50.613
50.6131
50.6131
50.6132
50.6133
50.6134
50.6135
50.6135
50.6136
50.6138
50.6139
50.614
50.6141
50.6143
50.6144
50.6146
50.6147
50.6149
50.6152
50.6153
50.6173
50.6097
50.6102
50.6102
50.6102
50.6102
50.6102
50.6102
50.6102
50.6102
50.6102
50.6102
50.6102
50.6102
50.6102
50.6102
50.6102
50.6102
50.6102
50.6103
50.6103
50.6103
50.6102
50.6102
50.6101
50.6101
50.61
50.6101
50.6101
50.6102
50.6103
50.6105
50.6106
50.6107
50.6107
50.6107
50.6108
50.6108
50.6108
50.6108
50.6108
50.6108
50.6108
50.6107
50.6106
50.6106
50.6106
50.6105
50.6106
50.6106
50.6108
50.6109
50.6109
50.611
50.611
50.611
50.611
50.611
50.611
50.6111
50.6112
50.6113
50.6114
50.6115
50.6116
50.6116
50.6117
50.6118
50.6118
50.6118
50.6118
50.6118
50.6118
50.6118
50.6117
50.6116
50.6115
50.6115
50.6115
50.6115
50.6116
50.6117
50.6118
50.6119
50.612
50.612
50.6121
50.6121
50.6122
50.6122
50.6122
50.6122
50.6122
50.6122
50.6122
50.6122
50.6122
50.6121
50.6121
50.6121
50.6121
50.6121
50.6121
50.6121
50.6121
50.6121
50.6121
50.6121
50.6121
50.6121
50.6121
50.6121
50.6121
50.6121
50.612
50.612
50.612
50.612
50.612
50.612
50.612
50.612
50.612
50.612
50.612
50.612
50.612
50.612
50.612
50.612
50.612
50.612
50.612
50.612
50.612
50.612
50.612
50.612
50.612
50.612
50.612
50.612
50.612
50.612
50.612
50.612
50.612
50.612
50.612
50.612
50.612
50.6121
50.6121
50.6121
50.6121
50.6121
50.6121
50.6122
50.6122
50.6122
50.6122
50.6123
50.6123
50.6123
50.6123
50.6124
50.6124
50.6124
50.6124
50.6125
50.6125
50.6125
50.6126
50.6126
50.6127
50.6127
50.6128
50.6128
50.6129
50.6129
50.613
50.6131
50.6131
50.6132
50.6133
50.6134
50.6135
50.6135
50.6136
50.6138
50.6139
50.614
50.6141
50.6143
50.6144
50.6146
50.6147
50.6149
50.6151
50.6151
50.6147
50.6131
50.6102
50.6102
50.6102
50.6102
50.6102
50.6102
50.6102
50.6102
50.6102
50.6102
50.6102
50.6102
50.6102
50.6102
50.6102
50.6102
50.6103
50.6103
50.6103
50.6103
50.6102
50.6102
50.6101
50.6101
50.61
50.6101
50.6101
50.6102
50.6103
50.6105
50.6106
50.6107
50.6107
50.6107
50.6108
50.6108
50.6108
50.6108
50.6108
50.6108
50.6108
50.6107
50.6106
50.6106
50.6106
50.6106
50.6106
50.6106
50.6108
50.6109
50.6109
50.611
50.611
50.611
50.611
50.611
50.611
50.6111
50.6112
50.6113
50.6114
50.6115
50.6116
50.6117
50.6117
50.6118
50.6118
50.6118
50.6118
50.6118
50.6118
50.6118
50.6117
50.6116
50.6115
50.6115
50.6115
50.6115
50.6116
50.6117
50.6118
50.6119
50.612
50.6121
50.6121
50.6121
50.6122
50.6122
50.6122
50.6122
50.6122
50.6122
50.6122
50.6122
50.6122
50.6121
50.6121
50.6121
50.6121
50.6121
50.6121
50.6121
50.6121
50.6121
50.6121
50.6121
50.6121
50.6121
50.6121
50.6121
50.6121
50.6121
50.612
50.612
50.612
50.612
50.612
50.612
50.612
50.612
50.612
50.612
50.612
50.612
50.612
50.612
50.612
50.612
50.612
50.612
50.612
50.612
50.612
50.612
50.612
50.612
50.612
50.612
50.612
50.612
50.612
50.612
50.612
50.612
50.612
50.612
50.612
50.612
50.612
50.6121
50.6121
50.6121
50.6121
50.6121
50.6121
50.6122
50.6122
50.6122
50.6122
50.6123
50.6123
50.6123
50.6123
50.6124
50.6124
50.6124
50.6124
50.6125
50.6125
50.6125
50.6126
50.6126
50.6127
50.6127
50.6128
50.6128
50.6129
50.6129
50.613
50.6131
50.6131
50.6132
50.6133
50.6134
50.6135
50.6135
50.6136
50.6138
50.6139
50.614
50.6141
50.6143
50.6144
50.6146
50.6147
50.6149
50.615
50.6152
50.6116
50.6237
50.6102
50.6102
50.6102
50.6102
50.6102
50.6102
50.6102
50.6102
50.6102
50.6102
50.6102
50.6102
50.6102
50.6102
50.6102
50.6103
50.6103
50.6103
50.6103
50.6103
50.6102
50.6102
50.6101
50.6101
50.6101
50.6101
50.6101
50.6102
50.6103
50.6105
50.6106
50.6107
50.6107
50.6108
50.6108
50.6108
50.6108
50.6108
50.6108
50.6108
50.6108
50.6107
50.6106
50.6106
50.6106
50.6106
50.6106
50.6106
50.6108
50.6109
50.6109
50.611
50.611
50.611
50.611
50.611
50.611
50.6111
50.6112
50.6113
50.6115
50.6115
50.6116
50.6117
50.6117
50.6118
50.6118
50.6118
50.6118
50.6118
50.6118
50.6118
50.6117
50.6116
50.6115
50.6115
50.6115
50.6115
50.6116
50.6117
50.6118
50.6119
50.612
50.6121
50.6121
50.6121
50.6122
50.6122
50.6122
50.6122
50.6122
50.6122
50.6122
50.6122
50.6122
50.6121
50.6121
50.6121
50.6121
50.6121
50.6121
50.6121
50.6121
50.6121
50.6121
50.6121
50.6121
50.6121
50.6121
50.6121
50.6121
50.6121
50.612
50.612
50.612
50.612
50.612
50.612
50.612
50.612
50.612
50.612
50.612
50.612
50.612
50.612
50.612
50.612
50.612
50.612
50.612
50.612
50.612
50.612
50.612
50.612
50.612
50.612
50.612
50.612
50.612
50.612
50.612
50.612
50.612
50.612
50.612
50.612
50.612
50.6121
50.6121
50.6121
50.6121
50.6121
50.6121
50.6122
50.6122
50.6122
50.6122
50.6123
50.6123
50.6123
50.6123
50.6124
50.6124
50.6124
50.6124
50.6125
50.6125
50.6125
50.6126
50.6126
50.6127
50.6127
50.6128
50.6128
50.6129
50.6129
50.613
50.6131
50.6131
50.6132
50.6133
50.6134
50.6134
50.6135
50.6136
50.6138
50.6139
50.614
50.6141
50.6143
50.6144
50.6146
50.6147
50.6149
50.6149
50.6156
50.6086
50.6529
50.6102
50.6102
50.6102
50.6102
50.6102
50.6102
50.6102
50.6102
50.6102
50.6102
50.6102
50.6102
50.6102
50.6102
50.6102
50.6103
50.6103
50.6103
50.6103
50.6103
50.6102
50.6102
50.6101
50.6101
50.6101
50.6101
50.6101
50.6102
50.6103
50.6105
50.6106
50.6107
50.6107
50.6108
50.6108
50.6108
50.6108
50.6108
50.6108
50.6108
50.6108
50.6107
50.6106
50.6106
50.6106
50.6106
50.6106
50.6106
50.6108
50.6109
50.6109
50.611
50.611
50.611
50.611
50.611
50.611
50.6111
50.6112
50.6113
50.6115
50.6115
50.6116
50.6117
50.6117
50.6118
50.6118
50.6118
50.6118
50.6118
50.6118
50.6118
50.6117
50.6116
50.6115
50.6115
50.6115
50.6115
50.6116
50.6117
50.6118
50.6119
50.612
50.6121
50.6121
50.6121
50.6122
50.6122
50.6122
50.6122
50.6122
50.6122
50.6122
50.6122
50.6122
50.6121
50.6121
50.6121
50.6121
50.6121
50.6121
50.6121
50.6121
50.6121
50.6121
50.6121
50.6121
50.6121
50.6121
50.6121
50.6121
50.6121
50.612
50.612
50.612
50.612
50.612
50.612
50.612
50.612
50.612
50.612
50.612
50.612
50.612
50.612
50.612
50.612
50.612
50.612
50.612
50.612
50.612
50.612
50.612
50.612
50.612
50.612
50.612
50.612
50.612
50.612
50.612
50.612
50.612
50.612
50.612
50.612
50.612
50.6121
50.6121
50.6121
50.6121
50.6121
50.6121
50.6122
50.6122
50.6122
50.6122
50.6123
50.6123
50.6123
50.6123
50.6124
50.6124
50.6124
50.6124
50.6125
50.6125
50.6125
50.6126
50.6126
50.6127
50.6127
50.6128
50.6128
50.6129
50.6129
50.613
50.6131
50.6131
50.6132
50.6133
50.6134
50.6134
50.6135
50.6136
50.6138
50.6139
50.614
50.6141
50.6143
50.6144
50.6146
50.6147
50.6149
50.6149
50.6158
50.6068
50.6683
50.609
50.609
50.6091
50.6091
50.6091
50.6091
50.6091
50.6091
50.6091
50.6091
50.6091
50.6091
50.6091
50.6091
50.6091
50.6091
50.6092
50.6092
50.6092
50.6092
50.6092
50.6091
50.609
50.609
50.609
50.609
50.609
50.6091
50.6093
50.6095
50.6096
50.6096
50.6097
50.6097
50.6098
50.6098
50.6098
50.6098
50.6098
50.6098
50.6098
50.6097
50.6097
50.6096
50.6096
50.6096
50.6096
50.6097
50.6098
50.6099
50.61
50.61
50.61
50.6101
50.6101
50.6101
50.6101
50.6102
50.6103
50.6105
50.6106
50.6106
50.6107
50.6108
50.6108
50.6109
50.6109
50.611
50.611
50.611
50.611
50.6109
50.6108
50.6107
50.6107
50.6107
50.6107
50.6107
50.6108
50.6109
50.611
50.6111
50.6112
50.6113
50.6113
50.6113
50.6114
50.6114
50.6114
50.6114
50.6114
50.6114
50.6114
50.6114
50.6114
50.6114
50.6114
50.6114
50.6114
50.6114
50.6114
50.6114
50.6114
50.6114
50.6114
50.6114
50.6114
50.6114
50.6114
50.6113
50.6113
50.6113
50.6113
50.6113
50.6113
50.6113
50.6113
50.6113
50.6113
50.6113
50.6113
50.6113
50.6113
50.6113
50.6113
50.6112
50.6112
50.6112
50.6112
50.6112
50.6112
50.6112
50.6112
50.6112
50.6112
50.6112
50.6112
50.6112
50.6112
50.6112
50.6112
50.6112
50.6112
50.6113
50.6113
50.6113
50.6113
50.6113
50.6113
50.6113
50.6113
50.6114
50.6114
50.6114
50.6114
50.6114
50.6115
50.6115
50.6115
50.6115
50.6115
50.6116
50.6116
50.6116
50.6117
50.6117
50.6117
50.6117
50.6118
50.6118
50.6119
50.6119
50.6119
50.612
50.612
50.6121
50.6121
50.6122
50.6123
50.6123
50.6124
50.6125
50.6126
50.6126
50.6127
50.6128
50.6129
50.613
50.6131
50.6133
50.6134
50.6135
50.6137
50.6138
50.614
50.6142
50.6142
50.6153
50.6045
50.6816
50.7056
50.7451
50.7581
50.7599
50.7595
50.7592
50.7587
50.7575
50.756
50.7543
50.7524
50.7504
50.7482
50.7456
50.7424
50.7383
50.7329
50.7255
50.7152
50.6992
50.7003
50.7351
50.7488
50.7512
50.7511
50.7511
50.7508
50.7501
50.7487
50.7473
50.7456
50.7439
50.7417
50.7393
50.7361
50.7321
50.7265
50.7192
50.7086
50.6926
50.6948
50.7299
50.7455
50.7489
50.7489
50.749
50.7486
50.7476
50.7462
50.7446
50.7428
50.741
50.7388
50.7363
50.7331
50.7291
50.7233
50.7155
50.7042
50.6869
50.6765
50.6962
50.7026
50.702
50.7007
50.6999
50.6988
50.6973
50.6956
50.6937
50.6917
50.6895
50.6871
50.6841
50.6804
50.676
50.6709
50.6635
50.6536
50.6396
50.6454
50.6578
50.6672
50.6739
50.6787
50.6817
50.683
50.6835
50.6834
50.6828
50.6816
50.6797
50.6773
50.6742
50.6703
50.6653
50.6587
50.6511
50.6423
50.6318
50.5924
50.5828
50.5724
50.5617
50.5517
50.5434
50.5371
50.5321
50.5278
50.5243
50.5215
50.5195
50.5178
50.5166
50.5151
50.5141
50.5136
50.5143
50.5154
50.5193
50.5338
50.5124
50.5052
50.5059
50.5075
50.5084
50.5088
50.5096
50.51
50.5105
50.5105
50.5107
50.5104
50.5104
50.5103
50.5113
50.5125
50.5159
50.5219
50.5328
50.4642
50.407
50.3636
50.3344
50.3144
50.299
50.287
50.2783
50.2725
50.269
50.2673
50.2674
50.2694
50.2736
50.2817
50.292
50.3077
50.3256
50.3516
50.3833
50.4495
50.3873
50.3486
50.3267
50.3119
50.3009
50.2919
50.2861
50.2825
50.2815
50.2817
50.2836
50.287
50.2926
50.301
50.3124
50.3272
50.3451
50.3689
50.399
50.4308
50.344
50.2955
50.267
50.248
50.2318
50.2185
50.2087
50.203
50.1977
50.1958
50.1948
50.197
50.2006
50.2086
50.22
50.2353
50.2554
50.2817
50.3175
50.6301
50.5903
50.5795
50.5767
50.5759
50.5758
50.576
50.5763
50.5766
50.5769
50.5772
50.5775
50.5778
50.5781
50.5784
50.5787
50.579
50.5792
50.5795
50.5798
50.5801
50.5804
50.5807
50.581
50.5814
50.5817
50.582
50.5822
50.5825
50.5827
50.5829
50.583
50.5832
50.5834
50.5835
50.5837
50.5838
50.584
50.5841
50.5842
50.5842
50.5842
50.5842
50.5842
50.5841
50.584
50.5839
50.5838
50.5837
50.5836
50.5834
50.5832
50.583
50.5827
50.5824
50.582
50.5817
50.5813
50.5809
50.5805
50.5801
50.5797
50.5793
50.5789
50.5785
50.578
50.5775
50.577
50.5765
50.576
50.5755
50.575
50.5745
50.574
50.5735
50.573
50.5724
50.5719
50.5714
50.5708
50.5702
50.5697
50.5691
50.5686
50.5681
50.5676
50.5671
50.5666
50.5662
50.5657
50.5653
50.5648
50.5644
50.564
50.5636
50.5632
50.5629
50.5626
50.5623
50.562
50.5618
50.5616
50.5614
50.5612
50.5611
50.5609
50.5608
50.5607
50.5607
50.5609
50.5613
50.5617
50.5622
50.5626
50.563
50.5632
50.5633
50.5634
50.5634
50.5634
50.563
50.5613
50.5545
50.532
50.4917
50.4509
50.4129
50.3803
50.3546
50.3367
50.3263
50.3221
50.3216
50.3242
50.3385
50.3781
50.422
50.4602
50.4916
50.5161
50.5343
50.5471
50.5557
50.5611
50.5643
50.566
50.5667
50.5669
50.5669
50.5667
50.5663
50.5658
50.5655
50.5652
50.565
50.5648
50.5646
50.5645
50.5644
50.5643
50.5642
50.5642
50.5641
50.5641
50.564
50.564
50.564
50.564
50.564
50.564
50.564
50.564
50.564
50.564
50.564
50.564
50.564
50.564
50.564
50.564
50.564
50.564
50.5641
50.5641
50.5641
50.5641
50.5641
50.5641
50.5642
50.5642
50.5642
50.5642
50.5642
50.5642
50.5642
50.5642
50.5639
50.5641
50.5542
50.6087
50.6301
50.5928
50.5824
50.5797
50.579
50.579
50.5792
50.5795
50.5798
50.5801
50.5804
50.5807
50.581
50.5813
50.5816
50.5819
50.5822
50.5825
50.5828
50.5831
50.5833
50.5836
50.5839
50.5843
50.5846
50.5849
50.5852
50.5855
50.5858
50.586
50.5862
50.5864
50.5865
50.5867
50.5868
50.587
50.5871
50.5872
50.5873
50.5874
50.5875
50.5875
50.5875
50.5875
50.5875
50.5874
50.5873
50.5871
50.587
50.5868
50.5867
50.5865
50.5863
50.586
50.5857
50.5854
50.5851
50.5847
50.5843
50.5839
50.5835
50.583
50.5826
50.5822
50.5818
50.5813
50.5809
50.5804
50.5799
50.5794
50.5789
50.5784
50.5779
50.5774
50.5768
50.5763
50.5758
50.5753
50.5747
50.5742
50.5737
50.5731
50.5726
50.572
50.5715
50.571
50.5705
50.57
50.5695
50.5691
50.5687
50.5682
50.5678
50.5674
50.567
50.5666
50.5663
50.5659
50.5656
50.5653
50.5651
50.5648
50.5646
50.5644
50.5642
50.5641
50.5639
50.5638
50.5638
50.5639
50.564
50.5641
50.5642
50.5642
50.5643
50.5643
50.5644
50.5646
50.5651
50.5667
50.5695
50.5726
50.5754
50.5778
50.5796
50.5806
50.581
50.581
50.5806
50.5783
50.5707
50.5597
50.5498
50.5419
50.5364
50.5332
50.532
50.5319
50.5327
50.5367
50.5438
50.5501
50.5552
50.559
50.5618
50.5637
50.5649
50.5656
50.566
50.5661
50.5662
50.5662
50.5661
50.5658
50.5657
50.5655
50.5654
50.5652
50.5651
50.565
50.565
50.5649
50.5648
50.5648
50.5648
50.5647
50.5647
50.5647
50.5647
50.5647
50.5647
50.5647
50.5647
50.5647
50.5647
50.5647
50.5647
50.5647
50.5647
50.5647
50.5647
50.5648
50.5648
50.5648
50.5648
50.5648
50.5648
50.5649
50.5649
50.5649
50.5649
50.5649
50.565
50.565
50.565
50.5649
50.5646
50.5647
50.5561
50.5994
50.63
50.5939
50.5828
50.5796
50.5786
50.5784
50.5786
50.5789
50.5791
50.5794
50.5797
50.58
50.5803
50.5806
50.5809
50.5812
50.5816
50.5818
50.5821
50.5824
50.5827
50.583
50.5833
50.5836
50.5839
50.5842
50.5845
50.5848
50.5851
50.5853
50.5855
50.5857
50.5858
50.586
50.5861
50.5863
50.5864
50.5865
50.5866
50.5867
50.5868
50.5868
50.5868
50.5868
50.5868
50.5867
50.5866
50.5864
50.5863
50.5862
50.586
50.5858
50.5856
50.5853
50.5851
50.5848
50.5844
50.584
50.5836
50.5832
50.5828
50.5824
50.5819
50.5815
50.5811
50.5806
50.5802
50.5797
50.5792
50.5787
50.5782
50.5777
50.5772
50.5767
50.5762
50.5756
50.5751
50.5746
50.5741
50.5735
50.573
50.5725
50.5719
50.5714
50.5708
50.5703
50.5698
50.5693
50.5689
50.5684
50.568
50.5676
50.5672
50.5668
50.5664
50.566
50.5656
50.5653
50.565
50.5647
50.5644
50.5641
50.5639
50.5637
50.5635
50.5633
50.5632
50.5631
50.563
50.563
50.5631
50.5632
50.5633
50.5634
50.5635
50.5635
50.5636
50.5637
50.5639
50.5645
50.5664
50.5709
50.5761
50.5807
50.5847
50.5877
50.5896
50.5907
50.591
50.591
50.5905
50.5881
50.5813
50.5737
50.567
50.5618
50.558
50.5558
50.5547
50.5545
50.5546
50.5556
50.5579
50.5603
50.5621
50.5635
50.5645
50.5651
50.5655
50.5657
50.5658
50.5658
50.5658
50.5657
50.5655
50.5654
50.5653
50.5652
50.5651
50.565
50.5649
50.5649
50.5648
50.5648
50.5648
50.5647
50.5647
50.5647
50.5647
50.5647
50.5647
50.5647
50.5647
50.5647
50.5647
50.5647
50.5647
50.5647
50.5647
50.5647
50.5647
50.5648
50.5648
50.5648
50.5648
50.5648
50.5648
50.5649
50.5649
50.5649
50.5649
50.5649
50.565
50.565
50.565
50.5649
50.5646
50.5646
50.5575
50.5855
50.6002
50.5752
50.5689
50.5688
50.5697
50.5704
50.571
50.5715
50.5719
50.5722
50.5725
50.5728
50.5731
50.5734
50.5737
50.574
50.5743
50.5746
50.5749
50.5752
50.5755
50.5758
50.5761
50.5764
50.5767
50.577
50.5773
50.5776
50.5778
50.5781
50.5783
50.5785
50.5787
50.5788
50.579
50.5791
50.5792
50.5793
50.5794
50.5795
50.5796
50.5796
50.5796
50.5796
50.5796
50.5795
50.5794
50.5793
50.5792
50.579
50.5788
50.5786
50.5784
50.5782
50.5779
50.5775
50.5772
50.5768
50.5764
50.5761
50.5757
50.5752
50.5748
50.5744
50.5739
50.5735
50.573
50.5726
50.5721
50.5716
50.5711
50.5706
50.57
50.5695
50.569
50.5685
50.5679
50.5674
50.5669
50.5663
50.5658
50.5652
50.5647
50.5642
50.5636
50.5632
50.5627
50.5622
50.5617
50.5613
50.5608
50.5604
50.56
50.5596
50.5592
50.5588
50.5585
50.5582
50.5579
50.5577
50.5575
50.5573
50.5571
50.5569
50.5567
50.5566
50.5566
50.5567
50.557
50.5572
50.5574
50.5576
50.5577
50.5577
50.5578
50.5578
50.558
50.5585
50.5598
50.5621
50.5645
50.5668
50.5688
50.5705
50.5717
50.5725
50.573
50.5731
50.5731
50.5728
50.5716
50.5692
50.567
50.5652
50.5638
50.5628
50.5622
50.562
50.5619
50.562
50.5622
50.5629
50.5636
50.5642
50.5646
50.5649
50.5651
50.5652
50.5652
50.5652
50.5652
50.5652
50.5651
50.565
50.565
50.5649
50.5649
50.5648
50.5648
50.5648
50.5647
50.5647
50.5647
50.5647
50.5647
50.5647
50.5647
50.5647
50.5647
50.5647
50.5647
50.5647
50.5647
50.5647
50.5647
50.5647
50.5647
50.5647
50.5647
50.5647
50.5647
50.5648
50.5648
50.5648
50.5648
50.5648
50.5648
50.5649
50.5649
50.5649
50.5649
50.5649
50.565
50.565
50.565
50.5649
50.5647
50.5639
50.5595
50.5619
50.607
50.5971
50.5915
50.5862
50.5829
50.5815
50.581
50.5809
50.581
50.5812
50.5814
50.5817
50.582
50.5823
50.5826
50.5829
50.5832
50.5835
50.5838
50.5841
50.5844
50.5847
50.585
50.5852
50.5855
50.5858
50.5861
50.5863
50.5866
50.5869
50.5871
50.5873
50.5875
50.5877
50.5879
50.588
50.5881
50.5882
50.5883
50.5883
50.5884
50.5884
50.5884
50.5884
50.5884
50.5883
50.5882
50.5881
50.588
50.5878
50.5876
50.5874
50.5871
50.5869
50.5866
50.5863
50.586
50.5857
50.5853
50.5849
50.5845
50.5841
50.5837
50.5832
50.5827
50.5823
50.5818
50.5813
50.5808
50.5803
50.5798
50.5793
50.5788
50.5782
50.5777
50.5772
50.5767
50.5761
50.5756
50.5751
50.5745
50.574
50.5735
50.573
50.5724
50.5719
50.5714
50.5709
50.5704
50.57
50.5695
50.5691
50.5687
50.5682
50.5678
50.5675
50.5671
50.5667
50.5664
50.566
50.5657
50.5654
50.5652
50.5649
50.5647
50.5644
50.5642
50.5639
50.5637
50.5635
50.5634
50.5633
50.5633
50.5632
50.5632
50.5632
50.5631
50.5631
50.5631
50.5632
50.5632
50.5634
50.5639
50.5647
50.5655
50.5661
50.5666
50.5669
50.567
50.567
50.567
50.5668
50.5663
50.566
50.5656
50.5654
50.5652
50.5651
50.565
50.565
50.565
50.565
50.565
50.5651
50.5651
50.5651
50.565
50.565
50.5649
50.5649
50.5649
50.5648
50.5648
50.5648
50.5647
50.5647
50.5647
50.5647
50.5647
50.5647
50.5647
50.5646
50.5646
50.5646
50.5646
50.5646
50.5646
50.5646
50.5646
50.5646
50.5647
50.5647
50.5647
50.5647
50.5647
50.5647
50.5647
50.5647
50.5647
50.5647
50.5647
50.5648
50.5648
50.5648
50.5648
50.5648
50.5648
50.5649
50.5649
50.5649
50.5649
50.5649
50.565
50.565
50.565
50.565
50.5649
50.5646
50.5635
50.5597
50.5273
50.5377
50.5441
50.5493
50.5528
50.5547
50.5558
50.5564
50.5569
50.5573
50.5577
50.558
50.5583
50.5585
50.5588
50.5592
50.5595
50.5598
50.5601
50.5604
50.5607
50.5609
50.5612
50.5615
50.5617
50.562
50.5623
50.5626
50.5629
50.5632
50.5634
50.5636
50.5638
50.564
50.5641
50.5643
50.5644
50.5645
50.5646
50.5647
50.5648
50.5648
50.5649
50.5649
50.5648
50.5648
50.5647
50.5645
50.5644
50.5643
50.5641
50.5639
50.5637
50.5635
50.5632
50.5629
50.5625
50.5621
50.5617
50.5613
50.5609
50.5605
50.5601
50.5597
50.5593
50.5588
50.5584
50.5579
50.5574
50.5569
50.5564
50.5559
50.5554
50.5549
50.5544
50.5539
50.5534
50.5529
50.5524
50.5519
50.5514
50.5508
50.5503
50.5499
50.5494
50.549
50.5486
50.5482
50.5479
50.5476
50.5473
50.547
50.5468
50.5467
50.5466
50.5465
50.5464
50.5463
50.5462
50.5462
50.5462
50.5463
50.5466
50.5469
50.5473
50.5478
50.5482
50.5486
50.5489
50.549
50.5491
50.5491
50.5492
50.5493
50.5498
50.551
50.5527
50.5546
50.5567
50.5587
50.5608
50.5627
50.5644
50.5658
50.567
50.568
50.5687
50.5692
50.5694
50.5695
50.5695
50.5692
50.5685
50.5675
50.5667
50.566
50.5654
50.565
50.5646
50.5643
50.5641
50.564
50.564
50.5639
50.5639
50.5639
50.5639
50.564
50.564
50.5641
50.5641
50.5642
50.5642
50.5643
50.5643
50.5643
50.5644
50.5644
50.5644
50.5645
50.5645
50.5645
50.5645
50.5645
50.5646
50.5646
50.5646
50.5646
50.5646
50.5646
50.5646
50.5646
50.5647
50.5647
50.5647
50.5647
50.5647
50.5647
50.5647
50.5647
50.5647
50.5648
50.5648
50.5648
50.5648
50.5648
50.5648
50.5649
50.5649
50.5649
50.5649
50.5649
50.565
50.565
50.565
50.5651
50.5652
50.5654
50.5674
50.5635
50.5696
50.5918
50.5952
50.5935
50.5923
50.5919
50.5917
50.5918
50.5919
50.5921
50.5924
50.5926
50.5929
50.5932
50.5935
50.5938
50.5941
50.5944
50.5947
50.595
50.5953
50.5957
50.596
50.5963
50.5965
50.5968
50.5971
50.5973
50.5975
50.5977
50.5979
50.5982
50.5984
50.5986
50.5987
50.5989
50.5991
50.5992
50.5993
50.5993
50.5993
50.5993
50.5993
50.5993
50.5992
50.5991
50.599
50.5989
50.5988
50.5986
50.5985
50.5983
50.598
50.5977
50.5975
50.5971
50.5968
50.5964
50.596
50.5957
50.5952
50.5948
50.5944
50.594
50.5935
50.5931
50.5926
50.5921
50.5917
50.5911
50.5906
50.5901
50.5895
50.5889
50.5884
50.5878
50.5873
50.5868
50.5863
50.5857
50.5852
50.5847
50.5842
50.5837
50.5831
50.5826
50.5821
50.5816
50.5812
50.5807
50.5803
50.5799
50.5795
50.5791
50.5788
50.5785
50.5781
50.5778
50.5775
50.5772
50.5769
50.5766
50.5764
50.5761
50.5759
50.5757
50.5754
50.5753
50.5751
50.575
50.5748
50.5747
50.5746
50.5743
50.574
50.5738
50.5737
50.5736
50.5735
50.5732
50.5726
50.5718
50.5713
50.5709
50.5708
50.5708
50.571
50.5716
50.5731
50.5746
50.5756
50.5762
50.5763
50.5763
50.5759
50.5744
50.5724
50.5706
50.5691
50.5679
50.5669
50.5661
50.5656
50.5651
50.5648
50.5646
50.5644
50.5643
50.5643
50.5642
50.5642
50.5642
50.5642
50.5643
50.5643
50.5643
50.5644
50.5644
50.5644
50.5645
50.5645
50.5645
50.5645
50.5645
50.5646
50.5646
50.5646
50.5646
50.5646
50.5646
50.5646
50.5646
50.5647
50.5647
50.5647
50.5647
50.5647
50.5647
50.5647
50.5647
50.5647
50.5648
50.5648
50.5648
50.5648
50.5648
50.5648
50.5649
50.5649
50.5649
50.5649
50.5649
50.565
50.565
50.565
50.5651
50.5654
50.5663
50.5703
50.5698
50.4929
50.5387
50.5509
50.555
50.5562
50.5567
50.5571
50.5574
50.5577
50.558
50.5583
50.5586
50.5589
50.5592
50.5595
50.5598
50.5601
50.5604
50.5608
50.5611
50.5614
50.5617
50.5619
50.5622
50.5624
50.5627
50.5629
50.5632
50.5635
50.5638
50.5641
50.5643
50.5645
50.5647
50.5648
50.5649
50.565
50.5651
50.5652
50.5653
50.5654
50.5654
50.5655
50.5655
50.5655
50.5654
50.5653
50.5652
50.565
50.5649
50.5647
50.5646
50.5644
50.5643
50.5641
50.5638
50.5635
50.5632
50.5629
50.5625
50.5621
50.5617
50.5613
50.561
50.5606
50.5603
50.5599
50.5595
50.559
50.5586
50.5581
50.5577
50.5572
50.5567
50.5563
50.5558
50.5553
50.5548
50.5542
50.5537
50.5531
50.5525
50.5519
50.5513
50.5508
50.5503
50.5498
50.5494
50.549
50.5487
50.5485
50.5482
50.5479
50.5476
50.5474
50.5472
50.5471
50.5472
50.5473
50.5474
50.5477
50.548
50.5483
50.5486
50.5488
50.5491
50.5493
50.5494
50.5494
50.5495
50.5494
50.5494
50.5495
50.5497
50.5503
50.5519
50.5541
50.5564
50.5588
50.5611