/*--------------------------------*- C++ -*----------------------------------*\
| =========                 |                                                 |
| \\      /  F ield         | OpenFOAM: The Open Source CFD Toolbox           |
|  \\    /   O peration     | Version:  3.0.x                                 |
|   \\  /    A nd           | Web:      www.OpenFOAM.org                      |
|    \\/     M anipulation  |                                                 |
\*---------------------------------------------------------------------------*/
FoamFile
{
    version     2.0;
    format      ascii;
    class       volVectorField;
    location    "0.28";
    object      U;
}
// * * * * * * * * * * * * * * * * * * * * * * * * * * * * * * * * * * * * * //

dimensions      [0 1 -1 0 0 0 0];

internalField   nonuniform List<vector> 
27600
(
(42.6982 0.000129711 0)
(42.6965 0.000119184 0)
(42.6948 0.000117662 0)
(42.6931 0.00012045 0)
(42.6914 0.000122863 0)
(42.6897 0.000124737 0)
(42.6879 0.00012632 0)
(42.6862 0.000127673 0)
(42.6845 0.000128812 0)
(42.6828 0.000129787 0)
(42.681 0.000130623 0)
(42.6793 0.000131345 0)
(42.6776 0.000131971 0)
(42.6758 0.000132505 0)
(42.6741 0.000133001 0)
(42.6724 0.000133418 0)
(42.6707 0.00013378 0)
(42.6689 0.000134105 0)
(42.6672 0.000134389 0)
(42.6655 0.00013464 0)
(42.6638 0.00013486 0)
(42.662 0.000135053 0)
(42.6603 0.000135222 0)
(42.6586 0.00013537 0)
(42.6568 0.0001355 0)
(42.6551 0.00013561 0)
(42.6534 0.000135714 0)
(42.6517 0.000135801 0)
(42.6499 0.000135879 0)
(42.6482 0.000135938 0)
(42.6465 0.000135995 0)
(42.6448 0.000136047 0)
(42.643 0.000136091 0)
(42.6413 0.000136129 0)
(42.6396 0.000136161 0)
(42.6379 0.000136177 0)
(42.6361 0.000136238 0)
(42.6344 0.000136244 0)
(42.6327 0.000136261 0)
(42.631 0.000136281 0)
(42.6293 0.000136298 0)
(42.6276 0.000136306 0)
(42.6258 0.000136313 0)
(42.6241 0.000136352 0)
(42.6224 0.000136346 0)
(42.6207 0.000136345 0)
(42.619 0.000136356 0)
(42.6173 0.000136368 0)
(42.6156 0.000136378 0)
(42.6138 0.000136369 0)
(42.6121 0.000136374 0)
(42.6104 0.000136376 0)
(42.6087 0.000136377 0)
(42.607 0.000136377 0)
(42.6053 0.000136376 0)
(42.6036 0.000136373 0)
(42.6019 0.00013637 0)
(42.6002 0.000136365 0)
(42.5985 0.000136359 0)
(42.5968 0.000136352 0)
(42.5952 0.000136342 0)
(42.5935 0.000136295 0)
(42.5918 0.000136336 0)
(42.5901 0.000136287 0)
(42.5884 0.000136256 0)
(42.5868 0.000136215 0)
(42.5851 0.00013616 0)
(42.5834 0.00013608 0)
(42.5818 0.00013599 0)
(42.5801 0.00013586 0)
(42.5785 0.000135709 0)
(42.5768 0.000135468 0)
(42.5752 0.000135182 0)
(42.5736 0.000134813 0)
(42.572 0.000134345 0)
(42.5704 0.000133758 0)
(42.5688 0.000133029 0)
(42.5672 0.000132137 0)
(42.5657 0.000131055 0)
(42.5642 0.00012976 0)
(42.5627 0.000128225 0)
(42.5612 0.00012642 0)
(42.5598 0.000124374 0)
(42.5584 0.000121964 0)
(42.557 0.000119279 0)
(42.5557 0.000116263 0)
(42.5545 0.000112921 0)
(42.5533 0.000109258 0)
(42.5522 0.000105284 0)
(42.5511 0.000101017 0)
(42.5501 9.64839e-05 0)
(42.5492 9.17154e-05 0)
(42.5484 8.67497e-05 0)
(42.5476 8.16296e-05 0)
(42.547 7.64018e-05 0)
(42.5464 7.11154e-05 0)
(42.5459 6.58208e-05 0)
(42.5455 6.05679e-05 0)
(42.5452 5.5405e-05 0)
(42.5449 5.03774e-05 0)
(42.5448 4.55262e-05 0)
(42.5447 4.08875e-05 0)
(42.5447 3.64924e-05 0)
(42.5448 3.23613e-05 0)
(42.5449 2.85177e-05 0)
(42.5451 2.49692e-05 0)
(42.5454 2.17219e-05 0)
(42.5458 1.87755e-05 0)
(42.5462 1.61244e-05 0)
(42.5466 1.37591e-05 0)
(42.5471 1.16659e-05 0)
(42.5476 9.82874e-06 0)
(42.5482 8.22929e-06 0)
(42.5488 6.84793e-06 0)
(42.5495 5.66437e-06 0)
(42.5502 4.65826e-06 0)
(42.5509 3.80963e-06 0)
(42.5517 3.09937e-06 0)
(42.5525 2.50944e-06 0)
(42.5533 2.02319e-06 0)
(42.5541 1.62542e-06 0)
(42.555 1.30244e-06 0)
(42.5559 1.04216e-06 0)
(42.5568 8.33942e-07 0)
(42.5578 6.68598e-07 0)
(42.5588 5.38268e-07 0)
(42.5597 4.36283e-07 0)
(42.5608 3.57068e-07 0)
(42.5618 2.95977e-07 0)
(42.5629 2.49202e-07 0)
(42.5639 2.13648e-07 0)
(42.565 1.86807e-07 0)
(42.5662 1.66687e-07 0)
(42.5673 1.51707e-07 0)
(42.5685 1.40626e-07 0)
(42.5696 1.32473e-07 0)
(42.5708 1.26518e-07 0)
(42.572 1.22179e-07 0)
(42.5733 1.19041e-07 0)
(42.5745 1.1677e-07 0)
(42.5758 1.1513e-07 0)
(42.5771 1.13932e-07 0)
(42.5784 1.13042e-07 0)
(42.5797 1.12376e-07 0)
(42.581 1.11847e-07 0)
(42.5823 1.11412e-07 0)
(42.5837 1.11037e-07 0)
(42.5851 1.10679e-07 0)
(42.5864 1.10326e-07 0)
(42.5878 1.09973e-07 0)
(42.5892 1.09607e-07 0)
(42.5906 1.0921e-07 0)
(42.592 1.08788e-07 0)
(42.5934 1.08337e-07 0)
(42.5948 1.07836e-07 0)
(42.5962 1.0731e-07 0)
(42.5976 1.06761e-07 0)
(42.599 1.06146e-07 0)
(42.6004 1.05501e-07 0)
(42.6018 1.04822e-07 0)
(42.6032 1.04101e-07 0)
(42.6045 1.03324e-07 0)
(42.6059 1.02521e-07 0)
(42.6073 1.01699e-07 0)
(42.6086 1.00784e-07 0)
(42.61 9.98542e-08 0)
(42.6113 9.89131e-08 0)
(42.6126 9.7892e-08 0)
(42.6139 9.68336e-08 0)
(42.6152 9.57587e-08 0)
(42.6164 9.46581e-08 0)
(42.6177 9.34583e-08 0)
(42.6189 9.2266e-08 0)
(42.6201 9.10771e-08 0)
(42.6212 8.97636e-08 0)
(42.6224 8.84539e-08 0)
(42.6235 8.71511e-08 0)
(42.6245 8.57769e-08 0)
(42.6256 8.43342e-08 0)
(42.6266 8.29165e-08 0)
(42.6276 8.152e-08 0)
(42.6285 7.99406e-08 0)
(42.6294 7.8461e-08 0)
(42.6303 7.69914e-08 0)
(42.6311 7.54362e-08 0)
(42.6319 7.38497e-08 0)
(42.6326 7.23307e-08 0)
(42.6333 7.08281e-08 0)
(42.6339 6.90973e-08 0)
(42.6346 6.75274e-08 0)
(42.6351 6.59513e-08 0)
(42.6356 6.4213e-08 0)
(42.6361 6.24928e-08 0)
(42.6365 6.08532e-08 0)
(42.6369 5.92265e-08 0)
(42.6372 5.73551e-08 0)
(42.6375 5.57718e-08 0)
(42.6377 5.41763e-08 0)
(42.6378 5.24267e-08 0)
(42.6379 5.07796e-08 0)
(42.638 4.92319e-08 0)
(42.638 4.77727e-08 0)
(42.638 4.55218e-08 0)
(42.6379 4.4492e-08 0)
(42.6377 4.2861e-08 0)
(42.6375 4.1319e-08 0)
(42.6373 3.98061e-08 0)
(42.637 3.83129e-08 0)
(42.6366 3.68446e-08 0)
(42.6362 3.54036e-08 0)
(42.6357 3.39913e-08 0)
(42.6352 3.26121e-08 0)
(42.6347 3.12673e-08 0)
(42.634 2.99576e-08 0)
(42.6334 2.86914e-08 0)
(42.6327 2.74608e-08 0)
(42.6319 2.62692e-08 0)
(42.6311 2.51203e-08 0)
(42.6302 2.40051e-08 0)
(42.6294 2.29536e-08 0)
(42.6284 2.19439e-08 0)
(42.6274 2.09827e-08 0)
(42.6264 2.00742e-08 0)
(42.6253 1.92159e-08 0)
(42.6242 1.84086e-08 0)
(42.6231 1.76592e-08 0)
(42.6219 1.69608e-08 0)
(42.6207 1.63177e-08 0)
(42.6194 1.57303e-08 0)
(42.6181 1.51982e-08 0)
(42.6168 1.47261e-08 0)
(42.6155 1.43003e-08 0)
(42.6141 1.39228e-08 0)
(42.6127 1.35975e-08 0)
(42.6113 1.331e-08 0)
(42.6098 1.30756e-08 0)
(42.6083 1.2881e-08 0)
(42.6068 1.27352e-08 0)
(42.6053 1.2648e-08 0)
(42.6038 1.26041e-08 0)
(42.6022 1.26221e-08 0)
(42.6006 1.26885e-08 0)
(42.5991 1.28214e-08 0)
(42.5975 1.30085e-08 0)
(42.5958 1.32488e-08 0)
(42.5942 1.35499e-08 0)
(42.5926 1.39122e-08 0)
(42.591 1.43293e-08 0)
(42.5893 1.48056e-08 0)
(42.5877 1.53345e-08 0)
(42.586 1.59127e-08 0)
(42.5844 1.6543e-08 0)
(42.5827 1.72254e-08 0)
(42.5811 1.79452e-08 0)
(42.5795 1.87126e-08 0)
(42.5778 1.95167e-08 0)
(42.5762 2.03593e-08 0)
(42.5746 2.12348e-08 0)
(42.5729 2.21382e-08 0)
(42.5713 2.30761e-08 0)
(42.5697 2.40403e-08 0)
(42.5682 2.50289e-08 0)
(42.5666 2.60402e-08 0)
(42.565 2.70756e-08 0)
(42.5635 2.81306e-08 0)
(42.5619 2.91933e-08 0)
(42.5604 3.02814e-08 0)
(42.5589 3.13796e-08 0)
(42.5574 3.24892e-08 0)
(42.556 3.36137e-08 0)
(42.5545 3.4744e-08 0)
(42.5531 3.58828e-08 0)
(42.5517 3.70199e-08 0)
(42.5503 3.81674e-08 0)
(42.549 3.93058e-08 0)
(42.5476 4.04365e-08 0)
(42.5463 4.15688e-08 0)
(42.545 4.26949e-08 0)
(42.5437 4.38145e-08 0)
(42.5425 4.49303e-08 0)
(42.5413 4.60396e-08 0)
(42.5401 4.71531e-08 0)
(42.5389 4.82621e-08 0)
(42.5377 4.93691e-08 0)
(42.5366 5.04721e-08 0)
(42.5355 5.15627e-08 0)
(42.5344 5.2649e-08 0)
(42.5334 5.37216e-08 0)
(42.5324 5.47831e-08 0)
(42.5314 5.58249e-08 0)
(42.5304 5.68475e-08 0)
(42.5294 5.78506e-08 0)
(42.5285 5.88376e-08 0)
(42.5276 5.98018e-08 0)
(42.5267 6.07537e-08 0)
(42.5259 6.16831e-08 0)
(42.525 6.26014e-08 0)
(42.5242 6.35001e-08 0)
(42.5234 6.43864e-08 0)
(42.5227 6.52538e-08 0)
(42.5219 6.61073e-08 0)
(42.5212 6.69441e-08 0)
(42.5205 6.77675e-08 0)
(42.5199 6.85662e-08 0)
(42.5192 6.93596e-08 0)
(42.5186 7.01289e-08 0)
(42.518 7.0884e-08 0)
(42.5174 7.16167e-08 0)
(42.5168 7.23366e-08 0)
(42.5163 7.30391e-08 0)
(42.5158 7.37237e-08 0)
(42.5153 7.43876e-08 0)
(42.5148 7.50351e-08 0)
(42.5143 7.56711e-08 0)
(42.5139 7.62887e-08 0)
(42.5134 7.6887e-08 0)
(42.513 7.74734e-08 0)
(42.5126 7.80345e-08 0)
(42.5122 7.85849e-08 0)
(42.5119 7.91207e-08 0)
(42.5115 7.96389e-08 0)
(42.5112 8.01458e-08 0)
(42.5109 8.06314e-08 0)
(42.5106 8.11037e-08 0)
(42.5103 8.15613e-08 0)
(42.51 8.20096e-08 0)
(42.5097 8.24364e-08 0)
(42.5095 8.28589e-08 0)
(42.5092 8.32642e-08 0)
(42.509 8.36559e-08 0)
(42.5088 8.4041e-08 0)
(42.5086 8.44069e-08 0)
(42.5084 8.47581e-08 0)
(42.5082 8.5111e-08 0)
(42.508 8.54393e-08 0)
(42.5079 8.57717e-08 0)
(42.5077 8.60591e-08 0)
(42.5076 8.63863e-08 0)
(42.5074 8.66472e-08 0)
(42.5073 8.69767e-08 0)
(42.5072 8.72099e-08 0)
(42.5071 8.75144e-08 0)
(42.507 8.77399e-08 0)
(42.5069 8.79754e-08 0)
(42.5068 8.82314e-08 0)
(42.5067 8.84228e-08 0)
(42.5066 8.87253e-08 0)
(42.5065 8.88038e-08 0)
(42.5065 8.91723e-08 0)
(42.5064 8.9172e-08 0)
(42.5064 8.9598e-08 0)
(42.5063 8.95772e-08 0)
(42.5063 8.99024e-08 0)
(42.5062 8.99402e-08 0)
(42.5062 9.02142e-08 0)
(42.5062 9.03778e-08 0)
(42.5062 9.05472e-08 0)
(42.5061 9.05993e-08 0)
(42.5061 9.07705e-08 0)
(42.5061 9.17326e-08 0)
(42.5061 9.04726e-08 0)
(42.5061 9.12568e-08 0)
(42.5061 9.15145e-08 0)
(42.5061 9.14585e-08 0)
(42.5061 9.27287e-08 0)
(42.5061 9.04683e-08 0)
(42.5062 9.15223e-08 0)
(42.5062 9.17811e-08 0)
(42.5062 9.18836e-08 0)
(42.5062 9.20529e-08 0)
(42.5063 9.28849e-08 0)
(42.5063 9.1064e-08 0)
(42.5063 9.26245e-08 0)
(42.5064 9.27709e-08 0)
(42.5064 9.31543e-08 0)
(42.5064 9.33296e-08 0)
(42.5065 9.32394e-08 0)
(42.5065 9.35322e-08 0)
(42.5066 9.51285e-08 0)
(42.5066 9.56782e-08 0)
(42.5067 1.02325e-07 0)
(42.5067 1.13633e-07 0)
(42.5068 1.43051e-07 0)
(42.5069 2.10519e-07 0)
(42.5069 3.7516e-07 0)
(42.507 7.70525e-07 0)
(42.507 1.71053e-06 0)
(42.507 3.95917e-06 0)
(42.5069 9.3376e-06 0)
(42.5066 2.21895e-05 0)
(42.5057 5.28889e-05 0)
(42.5036 0.000126158 0)
(42.4983 0.000300826 0)
(42.4856 0.000716766 0)
(42.4554 0.00170397 0)
(42.3835 0.00404188 0)
(42.2137 0.00957737 0)
(41.8114 0.0228722 0)
(40.9129 0.0575204 0)
(37.2792 0.159212 0)
(42.7001 0.000208892 0)
(42.7004 0.000168668 0)
(42.7007 0.000152635 0)
(42.7009 0.000150627 0)
(42.7011 0.000149163 0)
(42.7014 0.000147439 0)
(42.7016 0.000146016 0)
(42.7018 0.000144874 0)
(42.702 0.000143893 0)
(42.7022 0.000143058 0)
(42.7025 0.000142336 0)
(42.7027 0.000141711 0)
(42.7029 0.000141171 0)
(42.7031 0.000140681 0)
(42.7034 0.000140304 0)
(42.7036 0.000139942 0)
(42.7038 0.000139622 0)
(42.704 0.000139349 0)
(42.7043 0.000139107 0)
(42.7045 0.000138892 0)
(42.7047 0.000138702 0)
(42.7049 0.000138532 0)
(42.7051 0.00013838 0)
(42.7054 0.000138244 0)
(42.7056 0.000138122 0)
(42.7058 0.000138007 0)
(42.706 0.000137916 0)
(42.7063 0.000137828 0)
(42.7065 0.000137753 0)
(42.7067 0.00013767 0)
(42.7069 0.000137608 0)
(42.7072 0.000137553 0)
(42.7074 0.000137502 0)
(42.7076 0.000137457 0)
(42.7078 0.000137415 0)
(42.7081 0.000137357 0)
(42.7083 0.000137386 0)
(42.7085 0.000137328 0)
(42.7087 0.000137304 0)
(42.709 0.00013729 0)
(42.7092 0.000137275 0)
(42.7094 0.000137254 0)
(42.7097 0.000137232 0)
(42.7099 0.000137276 0)
(42.7101 0.000137242 0)
(42.7103 0.000137223 0)
(42.7106 0.000137229 0)
(42.7108 0.000137237 0)
(42.711 0.000137244 0)
(42.7113 0.000137228 0)
(42.7115 0.000137233 0)
(42.7118 0.000137236 0)
(42.712 0.000137239 0)
(42.7122 0.000137242 0)
(42.7125 0.000137245 0)
(42.7127 0.000137248 0)
(42.713 0.000137251 0)
(42.7132 0.000137253 0)
(42.7135 0.000137255 0)
(42.7137 0.00013726 0)
(42.714 0.000137255 0)
(42.7143 0.000137189 0)
(42.7145 0.000137296 0)
(42.7148 0.000137233 0)
(42.7151 0.000137209 0)
(42.7153 0.000137177 0)
(42.7156 0.000137131 0)
(42.7159 0.000137053 0)
(42.7162 0.000136979 0)
(42.7164 0.000136849 0)
(42.7167 0.000136711 0)
(42.717 0.000136467 0)
(42.7173 0.00013618 0)
(42.7176 0.000135805 0)
(42.7179 0.000135328 0)
(42.7183 0.000134726 0)
(42.7186 0.000133977 0)
(42.7189 0.000133058 0)
(42.7192 0.000131942 0)
(42.7196 0.000130605 0)
(42.7199 0.000129021 0)
(42.7203 0.000127148 0)
(42.7207 0.000125062 0)
(42.721 0.000122555 0)
(42.7214 0.000119796 0)
(42.7218 0.000116693 0)
(42.7222 0.000113259 0)
(42.7226 0.000109499 0)
(42.723 0.000105427 0)
(42.7234 0.000101062 0)
(42.7238 9.64313e-05 0)
(42.7243 9.15691e-05 0)
(42.7247 8.65148e-05 0)
(42.7251 8.13129e-05 0)
(42.7256 7.60116e-05 0)
(42.7261 7.06614e-05 0)
(42.7266 6.53133e-05 0)
(42.7271 6.00181e-05 0)
(42.7276 5.48242e-05 0)
(42.7281 4.97768e-05 0)
(42.7286 4.49166e-05 0)
(42.7291 4.0279e-05 0)
(42.7297 3.58948e-05 0)
(42.7303 3.17806e-05 0)
(42.7308 2.79629e-05 0)
(42.7314 2.44451e-05 0)
(42.732 2.12327e-05 0)
(42.7327 1.83241e-05 0)
(42.7333 1.57126e-05 0)
(42.734 1.33875e-05 0)
(42.7346 1.13343e-05 0)
(42.7353 9.53606e-06 0)
(42.736 7.97379e-06 0)
(42.7368 6.62739e-06 0)
(42.7375 5.47623e-06 0)
(42.7383 4.49973e-06 0)
(42.7391 3.67785e-06 0)
(42.7399 2.99146e-06 0)
(42.7407 2.42262e-06 0)
(42.7416 1.95478e-06 0)
(42.7424 1.57294e-06 0)
(42.7433 1.26363e-06 0)
(42.7442 1.01495e-06 0)
(42.7452 8.16518e-07 0)
(42.7461 6.59365e-07 0)
(42.7471 5.35817e-07 0)
(42.7481 4.39427e-07 0)
(42.7491 3.64775e-07 0)
(42.7502 3.07408e-07 0)
(42.7512 2.63667e-07 0)
(42.7523 2.30586e-07 0)
(42.7534 2.05779e-07 0)
(42.7545 1.87343e-07 0)
(42.7557 1.73785e-07 0)
(42.7568 1.63919e-07 0)
(42.758 1.5684e-07 0)
(42.7592 1.51842e-07 0)
(42.7604 1.48377e-07 0)
(42.7616 1.46029e-07 0)
(42.7629 1.44503e-07 0)
(42.7642 1.4355e-07 0)
(42.7654 1.4301e-07 0)
(42.7667 1.42747e-07 0)
(42.768 1.42667e-07 0)
(42.7694 1.42707e-07 0)
(42.7707 1.42813e-07 0)
(42.7721 1.42969e-07 0)
(42.7734 1.43102e-07 0)
(42.7748 1.43244e-07 0)
(42.7762 1.4337e-07 0)
(42.7775 1.43445e-07 0)
(42.7789 1.43477e-07 0)
(42.7803 1.43469e-07 0)
(42.7817 1.43413e-07 0)
(42.7831 1.43286e-07 0)
(42.7845 1.43102e-07 0)
(42.7859 1.42896e-07 0)
(42.7873 1.42576e-07 0)
(42.7887 1.42216e-07 0)
(42.7901 1.41813e-07 0)
(42.7915 1.41324e-07 0)
(42.7929 1.40751e-07 0)
(42.7943 1.4014e-07 0)
(42.7956 1.39483e-07 0)
(42.797 1.38689e-07 0)
(42.7983 1.37876e-07 0)
(42.7997 1.37026e-07 0)
(42.801 1.36046e-07 0)
(42.8023 1.35007e-07 0)
(42.8035 1.33933e-07 0)
(42.8048 1.32794e-07 0)
(42.806 1.31521e-07 0)
(42.8072 1.30249e-07 0)
(42.8084 1.28958e-07 0)
(42.8096 1.27466e-07 0)
(42.8107 1.25985e-07 0)
(42.8118 1.24487e-07 0)
(42.8129 1.22875e-07 0)
(42.8139 1.21143e-07 0)
(42.8149 1.19453e-07 0)
(42.8159 1.17762e-07 0)
(42.8168 1.15781e-07 0)
(42.8177 1.13938e-07 0)
(42.8186 1.12091e-07 0)
(42.8194 1.10071e-07 0)
(42.8202 1.08005e-07 0)
(42.8209 1.06014e-07 0)
(42.8216 1.0403e-07 0)
(42.8223 1.01674e-07 0)
(42.8229 9.95932e-08 0)
(42.8235 9.7473e-08 0)
(42.824 9.50817e-08 0)
(42.8244 9.27165e-08 0)
(42.8248 9.04728e-08 0)
(42.8252 8.82259e-08 0)
(42.8255 8.55591e-08 0)
(42.8258 8.33397e-08 0)
(42.826 8.10768e-08 0)
(42.8262 7.84994e-08 0)
(42.8263 7.60999e-08 0)
(42.8263 7.38063e-08 0)
(42.8264 7.16455e-08 0)
(42.8263 6.80478e-08 0)
(42.8262 6.66247e-08 0)
(42.8261 6.41126e-08 0)
(42.8259 6.1724e-08 0)
(42.8256 5.93503e-08 0)
(42.8253 5.69973e-08 0)
(42.8249 5.46561e-08 0)
(42.8245 5.23426e-08 0)
(42.8241 5.00522e-08 0)
(42.8235 4.77965e-08 0)
(42.823 4.55739e-08 0)
(42.8224 4.33816e-08 0)
(42.8217 4.12332e-08 0)
(42.821 3.91285e-08 0)
(42.8202 3.70679e-08 0)
(42.8194 3.50586e-08 0)
(42.8186 3.31004e-08 0)
(42.8177 3.11981e-08 0)
(42.8167 2.93567e-08 0)
(42.8157 2.7576e-08 0)
(42.8147 2.58595e-08 0)
(42.8137 2.42042e-08 0)
(42.8125 2.26199e-08 0)
(42.8114 2.1108e-08 0)
(42.8102 1.96643e-08 0)
(42.809 1.82916e-08 0)
(42.8077 1.69882e-08 0)
(42.8065 1.57598e-08 0)
(42.8051 1.4596e-08 0)
(42.8038 1.35039e-08 0)
(42.8024 1.2475e-08 0)
(42.801 1.15074e-08 0)
(42.7996 1.06045e-08 0)
(42.7981 9.75009e-09 0)
(42.7966 8.95461e-09 0)
(42.7951 8.22242e-09 0)
(42.7936 7.54168e-09 0)
(42.7921 6.92925e-09 0)
(42.7905 6.36668e-09 0)
(42.7889 5.87077e-09 0)
(42.7874 5.42742e-09 0)
(42.7858 5.04648e-09 0)
(42.7841 4.72475e-09 0)
(42.7825 4.4637e-09 0)
(42.7809 4.26297e-09 0)
(42.7793 4.1199e-09 0)
(42.7776 4.03758e-09 0)
(42.776 4.01668e-09 0)
(42.7743 4.06244e-09 0)
(42.7727 4.16232e-09 0)
(42.771 4.32192e-09 0)
(42.7694 4.55176e-09 0)
(42.7677 4.8423e-09 0)
(42.7661 5.19539e-09 0)
(42.7645 5.60412e-09 0)
(42.7628 6.07258e-09 0)
(42.7612 6.60202e-09 0)
(42.7596 7.18853e-09 0)
(42.758 7.82558e-09 0)
(42.7564 8.51529e-09 0)
(42.7549 9.25819e-09 0)
(42.7533 1.00488e-08 0)
(42.7517 1.08843e-08 0)
(42.7502 1.17662e-08 0)
(42.7487 1.26904e-08 0)
(42.7472 1.36554e-08 0)
(42.7457 1.46638e-08 0)
(42.7443 1.5704e-08 0)
(42.7428 1.67724e-08 0)
(42.7414 1.78732e-08 0)
(42.74 1.90072e-08 0)
(42.7386 2.01642e-08 0)
(42.7372 2.13401e-08 0)
(42.7359 2.25333e-08 0)
(42.7346 2.37389e-08 0)
(42.7333 2.49621e-08 0)
(42.732 2.61971e-08 0)
(42.7308 2.74484e-08 0)
(42.7295 2.87166e-08 0)
(42.7283 2.99945e-08 0)
(42.7272 3.12862e-08 0)
(42.726 3.25845e-08 0)
(42.7249 3.3885e-08 0)
(42.7238 3.51966e-08 0)
(42.7227 3.65097e-08 0)
(42.7216 3.78256e-08 0)
(42.7206 3.91256e-08 0)
(42.7196 4.042e-08 0)
(42.7186 4.17046e-08 0)
(42.7177 4.29725e-08 0)
(42.7168 4.42292e-08 0)
(42.7158 4.54705e-08 0)
(42.715 4.67003e-08 0)
(42.7141 4.79133e-08 0)
(42.7133 4.91101e-08 0)
(42.7125 5.02917e-08 0)
(42.7117 5.14572e-08 0)
(42.7109 5.261e-08 0)
(42.7102 5.37458e-08 0)
(42.7095 5.48643e-08 0)
(42.7088 5.59669e-08 0)
(42.7081 5.70502e-08 0)
(42.7075 5.81143e-08 0)
(42.7068 5.91645e-08 0)
(42.7062 6.01925e-08 0)
(42.7056 6.11993e-08 0)
(42.7051 6.21798e-08 0)
(42.7045 6.3145e-08 0)
(42.704 6.40905e-08 0)
(42.7035 6.50161e-08 0)
(42.703 6.59166e-08 0)
(42.7026 6.67981e-08 0)
(42.7021 6.7656e-08 0)
(42.7017 6.84952e-08 0)
(42.7013 6.93082e-08 0)
(42.7009 7.00992e-08 0)
(42.7005 7.0874e-08 0)
(42.7001 7.16276e-08 0)
(42.6998 7.23577e-08 0)
(42.6994 7.30697e-08 0)
(42.6991 7.37615e-08 0)
(42.6988 7.44264e-08 0)
(42.6985 7.5076e-08 0)
(42.6982 7.57035e-08 0)
(42.698 7.63118e-08 0)
(42.6977 7.69111e-08 0)
(42.6975 7.74806e-08 0)
(42.6972 7.80468e-08 0)
(42.697 7.85807e-08 0)
(42.6968 7.91046e-08 0)
(42.6966 7.96048e-08 0)
(42.6964 8.01018e-08 0)
(42.6963 8.0558e-08 0)
(42.6961 8.10502e-08 0)
(42.6959 8.14178e-08 0)
(42.6958 8.19436e-08 0)
(42.6956 8.22573e-08 0)
(42.6955 8.27764e-08 0)
(42.6954 8.30073e-08 0)
(42.6953 8.35012e-08 0)
(42.6952 8.37449e-08 0)
(42.6951 8.40732e-08 0)
(42.695 8.45187e-08 0)
(42.6949 8.47249e-08 0)
(42.6948 8.53184e-08 0)
(42.6948 8.51623e-08 0)
(42.6947 8.59922e-08 0)
(42.6946 8.55706e-08 0)
(42.6946 8.66304e-08 0)
(42.6945 8.61903e-08 0)
(42.6945 8.69296e-08 0)
(42.6945 8.67212e-08 0)
(42.6944 8.73296e-08 0)
(42.6944 8.75763e-08 0)
(42.6944 8.7848e-08 0)
(42.6944 8.77551e-08 0)
(42.6943 8.78828e-08 0)
(42.6943 9.08997e-08 0)
(42.6943 8.6475e-08 0)
(42.6943 8.8794e-08 0)
(42.6943 8.97846e-08 0)
(42.6943 8.85759e-08 0)
(42.6943 9.29186e-08 0)
(42.6944 8.5189e-08 0)
(42.6944 8.84314e-08 0)
(42.6944 8.9047e-08 0)
(42.6944 8.94424e-08 0)
(42.6944 8.92202e-08 0)
(42.6945 9.16699e-08 0)
(42.6945 8.60966e-08 0)
(42.6945 9.08109e-08 0)
(42.6946 9.1417e-08 0)
(42.6946 9.18132e-08 0)
(42.6946 9.2573e-08 0)
(42.6947 9.25859e-08 0)
(42.6947 9.22185e-08 0)
(42.6948 9.76562e-08 0)
(42.6948 9.98943e-08 0)
(42.6949 1.22296e-07 0)
(42.6949 1.60143e-07 0)
(42.695 2.59735e-07 0)
(42.6951 4.89438e-07 0)
(42.6951 1.04895e-06 0)
(42.6952 2.39403e-06 0)
(42.6952 5.59199e-06 0)
(42.6952 1.32417e-05 0)
(42.6951 3.15378e-05 0)
(42.6948 7.52588e-05 0)
(42.6939 0.000179692 0)
(42.6918 0.000428936 0)
(42.6865 0.00102308 0)
(42.6739 0.00243778 0)
(42.6438 0.00579457 0)
(42.5724 0.0137387 0)
(42.4035 0.0325156 0)
(42.0035 0.077396 0)
(41.1112 0.192448 0)
(37.6992 0.502801 0)
(42.7001 0.000149851 0)
(42.7004 0.000119671 0)
(42.7007 0.000105965 0)
(42.7009 0.000108391 0)
(42.7011 0.000110388 0)
(42.7013 0.000110954 0)
(42.7016 0.000111347 0)
(42.7018 0.000111762 0)
(42.702 0.000112121 0)
(42.7022 0.000112429 0)
(42.7025 0.000112692 0)
(42.7027 0.000112924 0)
(42.7029 0.000113131 0)
(42.7031 0.000113304 0)
(42.7033 0.000113489 0)
(42.7036 0.000113634 0)
(42.7038 0.000113764 0)
(42.704 0.000113886 0)
(42.7043 0.000113994 0)
(42.7045 0.000114091 0)
(42.7047 0.000114177 0)
(42.7049 0.000114255 0)
(42.7052 0.000114323 0)
(42.7054 0.000114384 0)
(42.7056 0.000114438 0)
(42.7058 0.000114484 0)
(42.7061 0.000114531 0)
(42.7063 0.000114568 0)
(42.7065 0.000114605 0)
(42.7067 0.00011463 0)
(42.707 0.00011466 0)
(42.7072 0.000114685 0)
(42.7074 0.000114708 0)
(42.7076 0.000114728 0)
(42.7079 0.000114746 0)
(42.7081 0.000114751 0)
(42.7083 0.000114807 0)
(42.7086 0.000114799 0)
(42.7088 0.000114817 0)
(42.709 0.000114836 0)
(42.7093 0.000114851 0)
(42.7095 0.000114862 0)
(42.7097 0.000114861 0)
(42.71 0.000114917 0)
(42.7102 0.000114909 0)
(42.7104 0.000114912 0)
(42.7107 0.000114931 0)
(42.7109 0.000114949 0)
(42.7111 0.000114964 0)
(42.7114 0.000114967 0)
(42.7116 0.000114982 0)
(42.7119 0.000114992 0)
(42.7121 0.000115002 0)
(42.7124 0.000115013 0)
(42.7126 0.000115022 0)
(42.7129 0.000115031 0)
(42.7131 0.000115039 0)
(42.7134 0.000115046 0)
(42.7136 0.000115052 0)
(42.7139 0.000115063 0)
(42.7141 0.000115057 0)
(42.7144 0.000115 0)
(42.7147 0.000115106 0)
(42.7149 0.000115054 0)
(42.7152 0.000115034 0)
(42.7155 0.00011501 0)
(42.7158 0.000114973 0)
(42.7161 0.00011491 0)
(42.7163 0.000114851 0)
(42.7166 0.000114739 0)
(42.7169 0.000114614 0)
(42.7172 0.000114429 0)
(42.7175 0.000114182 0)
(42.7179 0.000113866 0)
(42.7182 0.000113464 0)
(42.7185 0.000112957 0)
(42.7188 0.000112327 0)
(42.7192 0.000111553 0)
(42.7195 0.000110614 0)
(42.7198 0.000109489 0)
(42.7202 0.000108157 0)
(42.7205 0.000106582 0)
(42.7209 0.00010482 0)
(42.7213 0.000102718 0)
(42.7217 0.000100396 0)
(42.722 9.7788e-05 0)
(42.7224 9.49019e-05 0)
(42.7228 9.17433e-05 0)
(42.7232 8.83229e-05 0)
(42.7237 8.46577e-05 0)
(42.7241 8.07708e-05 0)
(42.7245 7.66904e-05 0)
(42.7249 7.245e-05 0)
(42.7254 6.8087e-05 0)
(42.7258 6.36417e-05 0)
(42.7263 5.91566e-05 0)
(42.7268 5.46743e-05 0)
(42.7273 5.02374e-05 0)
(42.7278 4.58863e-05 0)
(42.7283 4.16587e-05 0)
(42.7288 3.75887e-05 0)
(42.7293 3.37059e-05 0)
(42.7299 3.00355e-05 0)
(42.7304 2.65918e-05 0)
(42.731 2.33964e-05 0)
(42.7316 2.04525e-05 0)
(42.7322 1.77642e-05 0)
(42.7328 1.53302e-05 0)
(42.7335 1.31449e-05 0)
(42.7341 1.11992e-05 0)
(42.7348 9.481e-06 0)
(42.7355 7.97603e-06 0)
(42.7362 6.66845e-06 0)
(42.7369 5.54141e-06 0)
(42.7377 4.57765e-06 0)
(42.7384 3.75999e-06 0)
(42.7392 3.07165e-06 0)
(42.74 2.49663e-06 0)
(42.7408 2.01995e-06 0)
(42.7417 1.62777e-06 0)
(42.7426 1.30754e-06 0)
(42.7434 1.04801e-06 0)
(42.7444 8.39229e-07 0)
(42.7453 6.72514e-07 0)
(42.7462 5.40363e-07 0)
(42.7472 4.36383e-07 0)
(42.7482 3.5517e-07 0)
(42.7492 2.92215e-07 0)
(42.7503 2.43773e-07 0)
(42.7513 2.06792e-07 0)
(42.7524 1.78785e-07 0)
(42.7535 1.57745e-07 0)
(42.7546 1.42075e-07 0)
(42.7558 1.30517e-07 0)
(42.7569 1.22066e-07 0)
(42.7581 1.15964e-07 0)
(42.7593 1.11612e-07 0)
(42.7605 1.08558e-07 0)
(42.7618 1.06451e-07 0)
(42.763 1.05045e-07 0)
(42.7643 1.04132e-07 0)
(42.7656 1.0357e-07 0)
(42.7669 1.03255e-07 0)
(42.7682 1.03111e-07 0)
(42.7695 1.03072e-07 0)
(42.7708 1.03104e-07 0)
(42.7722 1.03175e-07 0)
(42.7735 1.03258e-07 0)
(42.7749 1.03342e-07 0)
(42.7763 1.03417e-07 0)
(42.7777 1.03473e-07 0)
(42.7791 1.035e-07 0)
(42.7804 1.03497e-07 0)
(42.7818 1.03461e-07 0)
(42.7832 1.03377e-07 0)
(42.7846 1.03268e-07 0)
(42.7861 1.03128e-07 0)
(42.7875 1.02926e-07 0)
(42.7889 1.02688e-07 0)
(42.7902 1.0242e-07 0)
(42.7916 1.02092e-07 0)
(42.793 1.01711e-07 0)
(42.7944 1.013e-07 0)
(42.7958 1.00854e-07 0)
(42.7971 1.00323e-07 0)
(42.7985 9.97727e-08 0)
(42.7998 9.91907e-08 0)
(42.8011 9.85278e-08 0)
(42.8024 9.7824e-08 0)
(42.8037 9.70914e-08 0)
(42.8049 9.63143e-08 0)
(42.8062 9.54473e-08 0)
(42.8074 9.45736e-08 0)
(42.8085 9.36797e-08 0)
(42.8097 9.26635e-08 0)
(42.8108 9.16452e-08 0)
(42.8119 9.06123e-08 0)
(42.813 8.94968e-08 0)
(42.8141 8.8302e-08 0)
(42.8151 8.71348e-08 0)
(42.816 8.59526e-08 0)
(42.817 8.4591e-08 0)
(42.8179 8.33189e-08 0)
(42.8187 8.20372e-08 0)
(42.8196 8.06432e-08 0)
(42.8203 7.9214e-08 0)
(42.8211 7.78474e-08 0)
(42.8218 7.64631e-08 0)
(42.8224 7.4834e-08 0)
(42.823 7.33886e-08 0)
(42.8236 7.18967e-08 0)
(42.8241 7.02168e-08 0)
(42.8246 6.85538e-08 0)
(42.825 6.69742e-08 0)
(42.8253 6.53765e-08 0)
(42.8257 6.35088e-08 0)
(42.8259 6.19377e-08 0)
(42.8261 6.03502e-08 0)
(42.8263 5.85216e-08 0)
(42.8264 5.6862e-08 0)
(42.8265 5.52454e-08 0)
(42.8265 5.36912e-08 0)
(42.8264 5.10945e-08 0)
(42.8263 5.01292e-08 0)
(42.8262 4.83725e-08 0)
(42.826 4.66756e-08 0)
(42.8257 4.49877e-08 0)
(42.8254 4.33069e-08 0)
(42.8251 4.16362e-08 0)
(42.8246 3.99796e-08 0)
(42.8242 3.8336e-08 0)
(42.8237 3.6708e-08 0)
(42.8231 3.51044e-08 0)
(42.8225 3.35236e-08 0)
(42.8218 3.19702e-08 0)
(42.8211 3.04443e-08 0)
(42.8204 2.8948e-08 0)
(42.8195 2.74851e-08 0)
(42.8187 2.60543e-08 0)
(42.8178 2.46617e-08 0)
(42.8169 2.33129e-08 0)
(42.8159 2.20088e-08 0)
(42.8148 2.07507e-08 0)
(42.8138 1.95306e-08 0)
(42.8127 1.83611e-08 0)
(42.8115 1.72445e-08 0)
(42.8103 1.61761e-08 0)
(42.8091 1.51579e-08 0)
(42.8079 1.41922e-08 0)
(42.8066 1.32805e-08 0)
(42.8053 1.24222e-08 0)
(42.8039 1.16256e-08 0)
(42.8025 1.08799e-08 0)
(42.8011 1.01948e-08 0)
(42.7997 9.57347e-09 0)
(42.7982 9.0023e-09 0)
(42.7968 8.49311e-09 0)
(42.7953 8.04302e-09 0)
(42.7937 7.65201e-09 0)
(42.7922 7.31597e-09 0)
(42.7906 7.03478e-09 0)
(42.7891 6.81351e-09 0)
(42.7875 6.64914e-09 0)
(42.7859 6.53979e-09 0)
(42.7843 6.48136e-09 0)
(42.7826 6.47793e-09 0)
(42.781 6.52316e-09 0)
(42.7794 6.61825e-09 0)
(42.7777 6.76498e-09 0)
(42.7761 6.95306e-09 0)
(42.7744 7.18634e-09 0)
(42.7728 7.45973e-09 0)
(42.7712 7.77555e-09 0)
(42.7695 8.13308e-09 0)
(42.7679 8.52546e-09 0)
(42.7662 8.95379e-09 0)
(42.7646 9.41616e-09 0)
(42.763 9.90917e-09 0)
(42.7613 1.04313e-08 0)
(42.7597 1.0989e-08 0)
(42.7581 1.15723e-08 0)
(42.7566 1.21842e-08 0)
(42.755 1.28211e-08 0)
(42.7534 1.34843e-08 0)
(42.7519 1.41705e-08 0)
(42.7503 1.48799e-08 0)
(42.7488 1.56105e-08 0)
(42.7473 1.63638e-08 0)
(42.7458 1.71405e-08 0)
(42.7444 1.79327e-08 0)
(42.7429 1.87431e-08 0)
(42.7415 1.95711e-08 0)
(42.7401 2.04172e-08 0)
(42.7387 2.12765e-08 0)
(42.7374 2.21439e-08 0)
(42.736 2.30228e-08 0)
(42.7347 2.39073e-08 0)
(42.7334 2.48e-08 0)
(42.7321 2.5701e-08 0)
(42.7309 2.66169e-08 0)
(42.7297 2.75391e-08 0)
(42.7285 2.84679e-08 0)
(42.7273 2.94133e-08 0)
(42.7261 3.03655e-08 0)
(42.725 3.13239e-08 0)
(42.7239 3.22843e-08 0)
(42.7228 3.32486e-08 0)
(42.7218 3.42084e-08 0)
(42.7207 3.51723e-08 0)
(42.7197 3.61281e-08 0)
(42.7188 3.70792e-08 0)
(42.7178 3.80193e-08 0)
(42.7169 3.89518e-08 0)
(42.716 3.98775e-08 0)
(42.7151 4.07953e-08 0)
(42.7142 4.17024e-08 0)
(42.7134 4.2602e-08 0)
(42.7126 4.34965e-08 0)
(42.7118 4.43822e-08 0)
(42.7111 4.52514e-08 0)
(42.7103 4.61136e-08 0)
(42.7096 4.69616e-08 0)
(42.7089 4.78088e-08 0)
(42.7082 4.86369e-08 0)
(42.7076 4.94533e-08 0)
(42.707 5.02579e-08 0)
(42.7064 5.10532e-08 0)
(42.7058 5.18284e-08 0)
(42.7052 5.25931e-08 0)
(42.7047 5.33395e-08 0)
(42.7041 5.4075e-08 0)
(42.7036 5.47952e-08 0)
(42.7031 5.55019e-08 0)
(42.7027 5.61861e-08 0)
(42.7022 5.68638e-08 0)
(42.7018 5.7522e-08 0)
(42.7014 5.81627e-08 0)
(42.701 5.87875e-08 0)
(42.7006 5.94037e-08 0)
(42.7002 5.99965e-08 0)
(42.6999 6.05698e-08 0)
(42.6995 6.11387e-08 0)
(42.6992 6.16925e-08 0)
(42.6989 6.22207e-08 0)
(42.6986 6.27294e-08 0)
(42.6983 6.32311e-08 0)
(42.6981 6.37148e-08 0)
(42.6978 6.41894e-08 0)
(42.6976 6.46441e-08 0)
(42.6974 6.51137e-08 0)
(42.6971 6.55508e-08 0)
(42.6969 6.59766e-08 0)
(42.6967 6.63507e-08 0)
(42.6965 6.67601e-08 0)
(42.6964 6.7099e-08 0)
(42.6962 6.75175e-08 0)
(42.6961 6.771e-08 0)
(42.6959 6.82087e-08 0)
(42.6958 6.84401e-08 0)
(42.6956 6.91047e-08 0)
(42.6955 6.93253e-08 0)
(42.6954 6.98075e-08 0)
(42.6953 6.98461e-08 0)
(42.6952 6.99437e-08 0)
(42.6951 7.03451e-08 0)
(42.695 7.03782e-08 0)
(42.695 7.12298e-08 0)
(42.6949 7.0846e-08 0)
(42.6948 7.20369e-08 0)
(42.6948 7.10079e-08 0)
(42.6947 7.26254e-08 0)
(42.6947 7.16535e-08 0)
(42.6946 7.26674e-08 0)
(42.6946 7.1987e-08 0)
(42.6945 7.26476e-08 0)
(42.6945 7.2918e-08 0)
(42.6945 7.32165e-08 0)
(42.6945 7.30368e-08 0)
(42.6945 7.23061e-08 0)
(42.6945 7.85876e-08 0)
(42.6945 6.95965e-08 0)
(42.6944 7.40453e-08 0)
(42.6945 7.64561e-08 0)
(42.6945 7.23769e-08 0)
(42.6945 8.1108e-08 0)
(42.6945 6.6541e-08 0)
(42.6945 7.21254e-08 0)
(42.6945 7.34159e-08 0)
(42.6945 7.39595e-08 0)
(42.6946 7.33019e-08 0)
(42.6946 7.58584e-08 0)
(42.6946 6.89447e-08 0)
(42.6947 7.61883e-08 0)
(42.6947 7.82966e-08 0)
(42.6947 7.59168e-08 0)
(42.6948 7.98923e-08 0)
(42.6948 8.04988e-08 0)
(42.6949 7.62796e-08 0)
(42.6949 8.83488e-08 0)
(42.695 9.38117e-08 0)
(42.695 1.3815e-07 0)
(42.6951 2.12023e-07 0)
(42.6951 4.09217e-07 0)
(42.6952 8.67302e-07 0)
(42.6952 1.97479e-06 0)
(42.6953 4.64247e-06 0)
(42.6953 1.09851e-05 0)
(42.6953 2.61614e-05 0)
(42.6953 6.24545e-05 0)
(42.6949 0.000149187 0)
(42.6941 0.000356358 0)
(42.692 0.00085082 0)
(42.6869 0.00202955 0)
(42.6746 0.00483633 0)
(42.6452 0.0114972 0)
(42.5755 0.0272621 0)
(42.4106 0.0645237 0)
(42.0211 0.153485 0)
(41.1567 0.380373 0)
(37.9915 0.961581 0)
(42.7001 9.72831e-05 0)
(42.7003 9.88126e-05 0)
(42.7006 9.45336e-05 0)
(42.7008 9.8813e-05 0)
(42.7011 0.000102573 0)
(42.7013 0.000104497 0)
(42.7015 0.000105813 0)
(42.7017 0.000106958 0)
(42.702 0.000107944 0)
(42.7022 0.000108775 0)
(42.7024 0.000109486 0)
(42.7026 0.0001101 0)
(42.7029 0.000110637 0)
(42.7031 0.000111103 0)
(42.7033 0.000111524 0)
(42.7035 0.000111888 0)
(42.7037 0.00011221 0)
(42.704 0.000112496 0)
(42.7042 0.000112749 0)
(42.7044 0.000112973 0)
(42.7046 0.000113172 0)
(42.7049 0.000113347 0)
(42.7051 0.000113503 0)
(42.7053 0.00011364 0)
(42.7055 0.000113761 0)
(42.7058 0.000113868 0)