/*--------------------------------*- C++ -*----------------------------------*\
| =========                 |                                                 |
| \\      /  F ield         | OpenFOAM: The Open Source CFD Toolbox           |
|  \\    /   O peration     | Version:  3.0.x                                 |
|   \\  /    A nd           | Web:      www.OpenFOAM.org                      |
|    \\/     M anipulation  |                                                 |
\*---------------------------------------------------------------------------*/
FoamFile
{
    version     2.0;
    format      ascii;
    class       volVectorField;
    location    "0.9";
    object      U;
}
// * * * * * * * * * * * * * * * * * * * * * * * * * * * * * * * * * * * * * //

dimensions      [0 1 -1 0 0 0 0];

internalField   nonuniform List<vector> 
1000
(
(50 0 0)
(50 0 0)
(50 0 0)
(50 0 0)
(50 0 0)
(50 0 0)
(50 0 0)
(50 0 0)
(50 0 0)
(50 0 0)
(50 0 0)
(50 0 0)
(50 0 0)
(50 0 0)
(50 0 0)
(50 0 0)
(50 0 0)
(50 0 0)
(50 0 0)
(50 0 0)
(50 0 0)
(50 0 0)
(50 0 0)
(50 0 0)
(50 0 0)
(50 0 0)
(50 0 0)
(50 0 0)
(50 0 0)
(50 0 0)
(50 0 0)
(50 0 0)
(50 0 0)
(50 0 0)
(50 0 0)
(50 0 0)
(50 0 0)
(50 0 0)
(50 0 0)
(50 0 0)
(50 0 0)
(50 0 0)
(50 0 0)
(50 0 0)
(50 0 0)
(50 0 0)
(50 0 0)
(50 0 0)
(50 0 0)
(50 0 0)
(50 0 0)
(50 0 0)
(50 0 0)
(50 0 0)
(50 0 0)
(50 0 0)
(50 0 0)
(50 0 0)
(50 0 0)
(50 0 0)
(50 0 0)
(50 0 0)
(50 0 0)
(50 0 0)
(50 0 0)
(50 0 0)
(50 0 0)
(50 0 0)
(50 0 0)
(50 0 0)
(50 0 0)
(50 0 0)
(50 0 0)
(50 0 0)
(50 0 0)
(50 0 0)
(50 0 0)
(50 0 0)
(50 0 0)
(50 0 0)
(50 0 0)
(50 0 0)
(50 0 0)
(50 0 0)
(50 0 0)
(50 0 0)
(50 0 0)
(50 0 0)
(50 0 0)
(50 0 0)
(50 0 0)
(50 0 0)
(50 0 0)
(50 0 0)
(50 0 0)
(50 0 0)
(50 0 0)
(50 0 0)
(50 0 0)
(50 0 0)
(50 0 0)
(50 0 0)
(50 0 0)
(50 0 0)
(50 0 0)
(50 0 0)
(50 0 0)
(50 0 0)
(50 0 0)
(50 0 0)
(50 0 0)
(50 0 0)
(50 0 0)
(50 0 0)
(50 0 0)
(50 0 0)
(50 0 0)
(50 0 0)
(50 0 0)
(50 0 0)
(50 0 0)
(50 0 0)
(50 0 0)
(50 0 0)
(50 0 0)
(50 0 0)
(50 0 0)
(50 0 0)
(50 0 0)
(50 0 0)
(50 0 0)
(50 0 0)
(50 0 0)
(50 0 0)
(50 0 0)
(50 0 0)
(50 0 0)
(50 0 0)
(50 0 0)
(50 0 0)
(50 0 0)
(50 0 0)
(50 0 0)
(50 0 0)
(50 0 0)
(50 0 0)
(50 0 0)
(50 0 0)
(50 0 0)
(50 0 0)
(50 0 0)
(50 0 0)
(50 0 0)
(50 0 0)
(50 0 0)
(50 0 0)
(50 0 0)
(50 0 0)
(50 0 0)
(50 0 0)
(50 0 0)
(50 0 0)
(50 0 0)
(50 0 0)
(50 0 0)
(50 0 0)
(50 0 0)
(50 0 0)
(50 0 0)
(50 0 0)
(50 0 0)
(50 0 0)
(50 0 0)
(50 0 0)
(50 0 0)
(50 0 0)
(50 0 0)
(50 0 0)
(50 0 0)
(50 0 0)
(50 0 0)
(50 0 0)
(50 0 0)
(50 0 0)
(50 0 0)
(50 0 0)
(50 0 0)
(50 0 0)
(50 0 0)
(50 0 0)
(50 0 0)
(50 0 0)
(50 0 0)
(50 0 0)
(50 0 0)
(50 0 0)
(50 0 0)
(50 0 0)
(50 0 0)
(50 0 0)
(50 0 0)
(50 0 0)
(50 0 0)
(50 0 0)
(50 0 0)
(50 0 0)
(50 0 0)
(50 0 0)
(50 0 0)
(50 0 0)
(50 0 0)
(50 0 0)
(50 0 0)
(50 0 0)
(50 0 0)
(50 0 0)
(50 0 0)
(50 0 0)
(50 0 0)
(50 0 0)
(50 0 0)
(50 0 0)
(50 0 0)
(50 0 0)
(50 0 0)
(50 0 0)
(50 0 0)
(50 0 0)
(50 0 0)
(50 0 0)
(50 0 0)
(50 0 0)
(50 0 0)
(50 0 0)
(50 0 0)
(50 0 0)
(50 0 0)
(50 0 0)
(50 0 0)
(50 0 0)
(50 0 0)
(50 0 0)
(50 0 0)
(50 0 0)
(50 0 0)
(50 0 0)
(50 0 0)
(50 0 0)
(50 0 0)
(50 0 0)
(50 0 0)
(50 0 0)
(50 0 0)
(50 0 0)
(50 0 0)
(50 0 0)
(50 0 0)
(50 0 0)
(50 0 0)
(50 0 0)
(50 0 0)
(50 0 0)
(50 0 0)
(50 0 0)
(50 0 0)
(50 0 0)
(50 0 0)
(50 0 0)
(50 0 0)
(50 0 0)
(50 0 0)
(50 0 0)
(50 0 0)
(50 0 0)
(50 0 0)
(50 0 0)
(50 0 0)
(50 0 0)
(50 0 0)
(50 0 0)
(50 0 0)
(50 0 0)
(50 0 0)
(50 0 0)
(50 0 0)
(50 0 0)
(50 0 0)
(50 0 0)
(50 0 0)
(50 0 0)
(50 0 0)
(50 0 0)
(50 0 0)
(50 0 0)
(50 0 0)
(50 0 0)
(50 0 0)
(50 0 0)
(50 0 0)
(50 0 0)
(50 0 0)
(50 0 0)
(50 0 0)
(50 0 0)
(50 0 0)
(50 0 0)
(50 0 0)
(50 0 0)
(50 0 0)
(50 0 0)
(50 0 0)
(50 0 0)
(50 0 0)
(50 0 0)
(50 0 0)
(50 0 0)
(50 0 0)
(50 0 0)
(50 0 0)
(50 0 0)
(50 0 0)
(50 0 0)
(50 0 0)
(50 0 0)
(50 0 0)
(50 0 0)
(50 0 0)
(50 0 0)
(50 0 0)
(50 0 0)
(50 0 0)
(50 0 0)
(50 0 0)
(50 0 0)
(50 0 0)
(50 0 0)
(50 0 0)
(50 0 0)
(50 0 0)
(50 0 0)
(50 0 0)
(50 0 0)
(50 0 0)
(50 0 0)
(50 0 0)
(50 0 0)
(50 0 0)
(50 0 0)
(50 0 0)
(50 0 0)
(50 0 0)
(50 0 0)
(50 0 0)
(50 0 0)
(50 0 0)
(50 0 0)
(50 0 0)
(50 0 0)
(50 0 0)
(50 0 0)
(50 0 0)
(50 0 0)
(50 0 0)
(50 0 0)
(50 0 0)
(50 0 0)
(50 0 0)
(50 0 0)
(50 0 0)
(50 0 0)
(50 0 0)
(50 0 0)
(50 0 0)
(50 0 0)
(50 0 0)
(50 0 0)
(50 0 0)
(50 0 0)
(50 0 0)
(50 0 0)
(50 0 0)
(50 0 0)
(50 0 0)
(50 0 0)
(50 0 0)
(50 0 0)
(50 0 0)
(50 0 0)
(50 0 0)
(50 0 0)
(50 0 0)
(50 0 0)
(50 0 0)
(50 0 0)
(50 0 0)
(50 0 0)
(50 0 0)
(50 0 0)
(50 0 0)
(50 0 0)
(50 0 0)
(50 0 0)
(50 0 0)
(50 0 0)
(50 0 0)
(50 0 0)
(50 0 0)
(50 0 0)
(50 0 0)
(50 0 0)
(50 0 0)
(50 0 0)
(50 0 0)
(50 0 0)
(50 0 0)
(50 0 0)
(50 0 0)
(50 0 0)
(50 0 0)
(50 0 0)
(50 0 0)
(50 0 0)
(50 0 0)
(50 0 0)
(50 0 0)
(50 0 0)
(50 0 0)
(50 0 0)
(50 0 0)
(50 0 0)
(50 0 0)
(50 0 0)
(50 0 0)
(50 0 0)
(50 0 0)
(50 0 0)
(50 0 0)
(50 0 0)
(50 0 0)
(50 0 0)
(50 0 0)
(50 0 0)
(50 0 0)
(50 0 0)
(50 0 0)
(50 0 0)
(50 0 0)
(50 0 0)
(50 0 0)
(50 0 0)
(50 0 0)
(50 0 0)
(50 0 0)
(50 0 0)
(50 0 0)
(50 0 0)
(50 0 0)
(50 0 0)
(50 0 0)
(50 0 0)
(50 0 0)
(50 0 0)
(50 0 0)
(50 0 0)
(50 0 0)
(50 0 0)
(50 0 0)
(50 0 0)
(50 0 0)
(50 0 0)
(50 0 0)
(50 0 0)
(50 0 0)
(50 0 0)
(50 0 0)
(50 0 0)
(50 0 0)
(50 0 0)
(50 0 0)
(50 0 0)
(50 0 0)
(50 0 0)
(50 0 0)
(50 0 0)
(50 0 0)
(50 0 0)
(50 0 0)
(50 0 0)
(50 0 0)
(50 0 0)
(50 0 0)
(50 0 0)
(50 0 0)
(50 0 0)
(50 0 0)
(50 0 0)
(50 0 0)
(50 0 0)
(50 0 0)
(50 0 0)
(50 0 0)
(50 0 0)
(49.9999 0 0)
(49.9999 0 0)
(49.9999 0 0)
(49.9999 0 0)
(49.9999 0 0)
(49.9998 0 0)
(49.9998 0 0)
(49.9997 0 0)
(49.9996 0 0)
(49.9995 0 0)
(49.9994 0 0)
(49.9993 0 0)
(49.9991 0 0)
(49.9988 0 0)
(49.9985 0 0)
(49.9982 0 0)
(49.9978 0 0)
(49.9972 0 0)
(49.9966 0 0)
(49.9958 0 0)
(49.9948 0 0)
(49.9936 0 0)
(49.9922 0 0)
(49.9905 0 0)
(49.9885 0 0)
(49.986 0 0)
(49.9831 0 0)
(49.9796 0 0)
(49.9754 0 0)
(49.9705 0 0)
(49.9648 0 0)
(49.9579 0 0)
(49.9499 0 0)
(49.9405 0 0)
(49.9296 0 0)
(49.9168 0 0)
(49.902 0 0)
(49.8848 0 0)
(49.865 0 0)
(49.8421 0 0)
(49.8158 0 0)
(49.7856 0 0)
(49.7512 0 0)
(49.7119 0 0)
(49.6671 0 0)
(49.6164 0 0)
(49.559 0 0)
(49.4942 0 0)
(49.4213 0 0)
(49.3393 0 0)
(49.2475 0 0)
(49.1449 0 0)
(49.0306 0 0)
(48.9034 0 0)
(48.7624 0 0)
(48.6063 0 0)
(48.4341 0 0)
(48.2444 0 0)
(48.0362 0 0)
(47.808 0 0)
(47.5587 0 0)
(47.287 0 0)
(46.9915 0 0)
(46.6711 0 0)
(46.3246 0 0)
(45.9508 0 0)
(45.5485 0 0)
(45.1169 0 0)
(44.655 0 0)
(44.162 0 0)
(43.6373 0 0)
(43.0804 0 0)
(42.491 0 0)
(41.869 0 0)
(41.2145 0 0)
(40.5279 0 0)
(39.8096 0 0)
(39.0604 0 0)
(38.2813 0 0)
(37.4735 0 0)
(36.6385 0 0)
(35.778 0 0)
(34.8937 0 0)
(33.9877 0 0)
(33.0622 0 0)
(32.1195 0 0)
(31.1619 0 0)
(30.192 0 0)
(29.2124 0 0)
(28.2255 0 0)
(27.2339 0 0)
(26.2402 0 0)
(25.2468 0 0)
(24.2562 0 0)
(23.2706 0 0)
(22.2923 0 0)
(21.3234 0 0)
(20.366 0 0)
(19.4218 0 0)
(18.4926 0 0)
(17.5801 0 0)
(16.6857 0 0)
(15.8107 0 0)
(14.9565 0 0)
(14.1241 0 0)
(13.3146 0 0)
(12.5288 0 0)
(11.7674 0 0)
(11.0312 0 0)
(10.3207 0 0)
(9.63633 0 0)
(8.97845 0 0)
(8.34733 0 0)
(7.74313 0 0)
(7.16591 0 0)
(6.61564 0 0)
(6.09222 0 0)
(5.59546 0 0)
(5.12506 0 0)
(4.68068 0 0)
(4.26187 0 0)
(3.86812 0 0)
(3.49887 0 0)
(3.15346 0 0)
(2.8312 0 0)
(2.53134 0 0)
(2.25309 0 0)
(1.99559 0 0)
(1.75799 0 0)
(1.53938 0 0)
(1.33884 0 0)
(1.15546 0 0)
(0.988291 0 0)
(0.836409 0 0)
(0.698897 0 0)
(0.574857 0 0)
(0.463423 0 0)
(0.363763 0 0)
(0.275097 0 0)
(0.196706 0 0)
(0.127949 0 0)
(0.068326 0 0)
(0.0177148 0 0)
(-0.0223116 0 0)
(-0.0537988 0 0)
(-0.0811844 0 0)
(-0.105082 0 0)
(-0.125411 0 0)
(-0.142644 0 0)
(-0.157253 0 0)
(-0.169598 0 0)
(-0.179974 0 0)
(-0.188634 0 0)
(-0.195809 0 0)
(-0.201706 0 0)
(-0.206511 0 0)
(-0.210387 0 0)
(-0.213474 0 0)
(-0.215909 0 0)
(-0.217765 0 0)
(-0.219219 0 0)
(-0.220149 0 0)
(-0.220802 0 0)
(-0.221425 0 0)
(-0.221803 0 0)
(-0.222036 0 0)
(-0.222141 0 0)
(-0.222181 0 0)
(-0.222076 0 0)
(-0.222033 0 0)
(-0.222059 0 0)
(-0.221936 0 0)
(-0.22179 0 0)
(-0.221622 0 0)
(-0.221445 0 0)
(-0.221265 0 0)
(-0.221088 0 0)
(-0.220917 0 0)
(-0.220753 0 0)
(-0.220595 0 0)
(-0.220441 0 0)
(-0.22029 0 0)
(-0.220142 0 0)
(-0.219987 0 0)
(-0.219846 0 0)
(-0.219682 0 0)
(-0.219468 0 0)
(-0.219335 0 0)
(-0.219249 0 0)
(-0.219143 0 0)
(-0.219044 0 0)
(-0.218958 0 0)
(-0.218852 0 0)
(-0.218748 0 0)
(-0.218724 0 0)
(-0.218687 0 0)
(-0.218606 0 0)
(-0.218527 0 0)
(-0.218443 0 0)
(-0.218358 0 0)
(-0.218273 0 0)
(-0.218189 0 0)
(-0.218108 0 0)
(-0.218028 0 0)
(-0.217952 0 0)
(-0.217878 0 0)
(-0.217808 0 0)
(-0.217734 0 0)
(-0.217676 0 0)
(-0.217585 0 0)
(-0.217559 0 0)
(-0.217443 0 0)
(-0.217326 0 0)
(-0.217331 0 0)
(-0.21727 0 0)
(-0.217232 0 0)
(-0.217184 0 0)
(-0.21716 0 0)
(-0.217097 0 0)
(-0.217059 0 0)
(-0.217086 0 0)
(-0.217069 0 0)
(-0.217047 0 0)
(-0.217028 0 0)
(-0.21701 0 0)
(-0.216992 0 0)
(-0.216977 0 0)
(-0.216963 0 0)
(-0.21695 0 0)
(-0.216937 0 0)
(-0.216925 0 0)
(-0.216912 0 0)
(-0.216897 0 0)
(-0.216883 0 0)
(-0.216863 0 0)
(-0.216853 0 0)
(-0.216812 0 0)
(-0.216821 0 0)
(-0.216766 0 0)
(-0.2167 0 0)
(-0.216718 0 0)
(-0.216686 0 0)
(-0.216666 0 0)
(-0.216639 0 0)
(-0.216616 0 0)
(-0.216587 0 0)
(-0.216538 0 0)
(-0.216535 0 0)
(-0.21653 0 0)
(-0.216492 0 0)
(-0.216466 0 0)
(-0.216434 0 0)
(-0.216402 0 0)
(-0.216371 0 0)
(-0.21634 0 0)
(-0.216309 0 0)
(-0.216279 0 0)
(-0.21625 0 0)
(-0.216223 0 0)
(-0.216196 0 0)
(-0.21617 0 0)
(-0.216144 0 0)
(-0.216121 0 0)
(-0.216094 0 0)
(-0.216077 0 0)
(-0.216042 0 0)
(-0.216038 0 0)
(-0.216005 0 0)
(-0.215954 0 0)
(-0.215959 0 0)
(-0.215945 0 0)
(-0.215931 0 0)
(-0.215926 0 0)
(-0.215909 0 0)
(-0.215922 0 0)
(-0.215894 0 0)
(-0.215892 0 0)
(-0.215932 0 0)
(-0.215925 0 0)
(-0.215934 0 0)
(-0.21594 0 0)
(-0.215946 0 0)
(-0.215952 0 0)
(-0.215957 0 0)
(-0.215962 0 0)
(-0.215966 0 0)
(-0.21597 0 0)
(-0.215972 0 0)
(-0.215974 0 0)
(-0.215974 0 0)
(-0.215973 0 0)
(-0.21597 0 0)
(-0.215966 0 0)
(-0.215959 0 0)
(-0.215952 0 0)
(-0.215942 0 0)
(-0.21593 0 0)
(-0.215916 0 0)
(-0.215898 0 0)
(-0.215891 0 0)
(-0.21585 0 0)
(-0.215828 0 0)
(-0.215826 0 0)
(-0.2158 0 0)
(-0.215783 0 0)
(-0.215767 0 0)
(-0.21574 0 0)
(-0.215739 0 0)
(-0.2157 0 0)
(-0.215681 0 0)
(-0.215696 0 0)
(-0.215668 0 0)
(-0.215658 0 0)
(-0.215643 0 0)
(-0.215629 0 0)
(-0.215615 0 0)
(-0.215601 0 0)
(-0.215588 0 0)
(-0.215575 0 0)
(-0.215563 0 0)
(-0.215551 0 0)
(-0.21554 0 0)
(-0.21553 0 0)
(-0.215521 0 0)
(-0.215512 0 0)
(-0.215505 0 0)
(-0.215498 0 0)
(-0.215493 0 0)
(-0.21549 0 0)
(-0.215487 0 0)
(-0.215486 0 0)
(-0.215486 0 0)
(-0.215487 0 0)
(-0.215491 0 0)
(-0.215491 0 0)
(-0.215502 0 0)
(-0.215492 0 0)
(-0.215516 0 0)
(-0.215505 0 0)
(-0.215496 0 0)
(-0.215526 0 0)
(-0.215518 0 0)
(-0.215528 0 0)
(-0.215531 0 0)
(-0.215535 0 0)
(-0.215539 0 0)
(-0.215535 0 0)
(-0.215548 0 0)
(-0.21553 0 0)
(-0.215532 0 0)
(-0.215549 0 0)
(-0.215533 0 0)
(-0.215534 0 0)
(-0.215526 0 0)
(-0.215519 0 0)
(-0.21551 0 0)
(-0.2155 0 0)
(-0.215489 0 0)
(-0.215478 0 0)
(-0.215467 0 0)
(-0.215455 0 0)
(-0.215442 0 0)
(-0.21543 0 0)
(-0.215418 0 0)
(-0.215406 0 0)
(-0.215395 0 0)
(-0.215383 0 0)
(-0.215373 0 0)
(-0.215362 0 0)
(-0.215352 0 0)
(-0.215343 0 0)
(-0.215334 0 0)
(-0.215326 0 0)
(-0.215318 0 0)
(-0.215311 0 0)
(-0.215305 0 0)
(-0.215299 0 0)
(-0.215293 0 0)
(-0.215289 0 0)
(-0.215285 0 0)
(-0.215282 0 0)
(-0.21528 0 0)
(-0.215278 0 0)
(-0.215278 0 0)
(-0.215279 0 0)
(-0.215281 0 0)
(-0.215284 0 0)
(-0.215288 0 0)
(-0.215293 0 0)
(-0.215299 0 0)
(-0.215306 0 0)
(-0.215315 0 0)
(-0.215324 0 0)
(-0.215333 0 0)
(-0.215344 0 0)
(-0.215355 0 0)
(-0.215366 0 0)
(-0.215377 0 0)
(-0.215388 0 0)
(-0.215399 0 0)
(-0.215412 0 0)
(-0.215418 0 0)
(-0.215429 0 0)
(-0.215441 0 0)
(-0.215448 0 0)
(-0.215457 0 0)
(-0.215464 0 0)
(-0.21547 0 0)
(-0.215476 0 0)
(-0.21548 0 0)
(-0.215483 0 0)
(-0.215485 0 0)
(-0.215486 0 0)
(-0.215486 0 0)
(-0.215485 0 0)
(-0.215483 0 0)
(-0.215481 0 0)
(-0.215477 0 0)
(-0.215474 0 0)
(-0.21547 0 0)
(-0.215465 0 0)
(-0.215461 0 0)
(-0.215456 0 0)
(-0.215451 0 0)
(-0.215446 0 0)
(-0.215441 0 0)
(-0.215435 0 0)
(-0.21543 0 0)
(-0.215425 0 0)
(-0.215419 0 0)
(-0.215414 0 0)
(-0.215408 0 0)
(-0.215402 0 0)
(-0.215396 0 0)
(-0.21539 0 0)
(-0.215383 0 0)
(-0.215377 0 0)
(-0.215369 0 0)
(-0.215362 0 0)
(-0.215354 0 0)
(-0.215346 0 0)
(-0.215337 0 0)
(-0.215329 0 0)
(-0.21532 0 0)
(-0.215313 0 0)
(-0.2153 0 0)
(-0.215298 0 0)
(-0.215284 0 0)
(-0.215275 0 0)
(-0.215275 0 0)
(-0.215263 0 0)
(-0.21526 0 0)
(-0.215253 0 0)
(-0.215249 0 0)
(-0.215245 0 0)
(-0.215242 0 0)
(-0.21524 0 0)
(-0.215238 0 0)
(-0.215238 0 0)
(-0.215238 0 0)
(-0.215239 0 0)
(-0.21524 0 0)
(-0.215243 0 0)
(-0.215246 0 0)
(-0.21525 0 0)
(-0.215254 0 0)
(-0.215258 0 0)
(-0.215263 0 0)
(-0.215267 0 0)
(-0.215272 0 0)
(-0.215277 0 0)
(-0.215282 0 0)
(-0.215286 0 0)
(-0.21529 0 0)
(-0.215294 0 0)
(-0.215296 0 0)
(-0.215303 0 0)
(-0.215291 0 0)
(-0.215319 0 0)
(-0.215289 0 0)
(-0.215297 0 0)
(-0.215319 0 0)
(-0.215288 0 0)
(-0.215306 0 0)
(-0.215295 0 0)
(-0.215295 0 0)
(-0.215291 0 0)
(-0.21529 0 0)
(-0.215275 0 0)
(-0.215321 0 0)
(-0.215131 0 0)
(-0.215738 0 0)
(-0.213032 0 0)
(-0.218881 0 0)
(-0.209132 0 0)
(-0.221371 0 0)
(-0.211382 0 0)
(-0.214997 0 0)
)
;

boundaryField
{
    inlet
    {
        type            fixedValue;
        value           uniform (50 0 0);
    }
    backWall
    {
        type            zeroGradient;
    }
    sides
    {
        type            empty;
    }
}


// ************************************************************************* //
