/*--------------------------------*- C++ -*----------------------------------*\
| =========                 |                                                 |
| \\      /  F ield         | OpenFOAM: The Open Source CFD Toolbox           |
|  \\    /   O peration     | Version:  3.0.x                                 |
|   \\  /    A nd           | Web:      www.OpenFOAM.org                      |
|    \\/     M anipulation  |                                                 |
\*---------------------------------------------------------------------------*/
FoamFile
{
    version     2.0;
    format      ascii;
    class       surfaceScalarField;
    location    "0.25995";
    object      phi;
}
// * * * * * * * * * * * * * * * * * * * * * * * * * * * * * * * * * * * * * //

dimensions      [1 0 -1 0 0 0 0];

internalField   nonuniform List<scalar> 
53800
(
1.97751
0.00102702
1.97683
0.000695945
1.97615
0.000687431
1.97547
0.000689868
1.97481
0.000690081
1.97414
0.000690001
1.97348
0.000689898
1.97283
0.000689829
1.97219
0.000689625
1.97155
0.000689889
1.97092
0.000689432
1.9703
0.00068943
1.96969
0.000689334
1.9691
0.000689251
1.96851
0.000689183
1.96793
0.000689228
1.96737
0.000688979
1.96681
0.000689038
1.96627
0.000689001
1.96574
0.00068896
1.96521
0.000688908
1.9647
0.000688834
1.96419
0.000688802
1.96369
0.000688442
1.9632
0.000688211
1.96271
0.000687695
1.96223
0.000686866
1.96174
0.000685564
1.96126
0.000683574
1.96079
0.000680619
1.96031
0.000676357
1.95984
0.000670386
1.95936
0.000662261
1.95889
0.000651524
1.95842
0.000637728
1.95796
0.000620491
1.9575
0.00059953
1.95705
0.000574705
1.95662
0.000546058
1.95619
0.000513823
1.95579
0.000478428
1.9554
0.000440489
1.95502
0.000400764
1.95467
0.000360106
1.95433
0.000319415
1.95401
0.00027952
1.9537
0.000241296
1.95341
0.000205428
1.95312
0.0001724
1.95284
0.000142604
1.95257
0.000116239
1.9523
9.33496e-05
1.95202
7.38442e-05
1.95175
5.75224e-05
1.95147
4.4107e-05
1.95119
3.32718e-05
1.9509
2.46697e-05
1.9506
1.79549e-05
1.9503
1.27997e-05
1.94999
8.90634e-06
1.94968
6.01342e-06
1.94937
3.89826e-06
1.94905
2.3766e-06
1.94873
1.29981e-06
1.94842
5.50695e-07
1.9481
3.7664e-08
1.94779
-3.05979e-07
1.94748
-5.28165e-07
1.94718
-6.66594e-07
1.94689
-7.48041e-07
1.9466
-7.91359e-07
1.94632
-8.09508e-07
1.94606
-8.11229e-07
1.9458
-8.02345e-07
1.94555
-7.86738e-07
1.94532
-7.66911e-07
1.94509
-7.44523e-07
1.94488
-7.20654e-07
1.94468
-6.96033e-07
1.9445
-6.71142e-07
1.94432
-6.46331e-07
1.94415
-6.21872e-07
1.944
-5.97975e-07
1.94386
-5.74808e-07
1.94373
-5.52311e-07
1.94361
-5.30661e-07
1.9435
-5.10099e-07
1.94339
-4.90443e-07
1.9433
-4.71646e-07
1.94322
-4.53481e-07
1.94314
-4.37085e-07
1.94307
-4.23381e-07
1.94301
-4.11401e-07
1.94295
-3.99592e-07
1.9429
-3.87136e-07
1.94286
-3.74355e-07
1.94282
-3.62172e-07
1.94278
-3.51429e-07
1.94275
-3.42494e-07
1.94272
-3.35131e-07
1.9427
-3.28913e-07
1.94267
-3.23402e-07
1.94265
-3.18323e-07
1.94264
-3.1359e-07
1.94262
-3.09294e-07
1.94261
-3.05561e-07
1.9426
-3.02505e-07
1.94259
-3.00017e-07
1.94258
-2.9791e-07
1.94257
-2.96113e-07
1.94256
-2.94553e-07
1.94255
-2.93254e-07
1.94255
-2.92235e-07
1.94254
-2.91438e-07
1.94253
-2.90755e-07
1.94253
-2.90034e-07
1.94252
-2.89245e-07
1.94252
-2.88412e-07
1.94251
-2.87579e-07
1.9425
-2.86811e-07
1.9425
-2.86102e-07
1.94249
-2.85523e-07
1.94249
-2.8501e-07
1.94248
-2.84661e-07
1.94247
-2.84432e-07
1.94247
-2.84235e-07
1.94246
-2.84032e-07
1.94246
-2.83766e-07
1.94245
-2.83428e-07
1.94244
-2.83108e-07
1.94244
-2.83057e-07
1.94243
-2.83286e-07
1.94243
-2.83373e-07
1.94242
-2.82987e-07
1.94242
-2.82085e-07
1.94241
-2.80936e-07
1.94241
-2.79917e-07
1.9424
-2.79098e-07
1.9424
-2.78622e-07
1.9424
-2.78189e-07
1.9424
-2.77683e-07
1.94239
-2.76941e-07
1.94239
-2.76097e-07
1.94239
-2.7534e-07
1.94239
-2.74682e-07
1.94239
-2.74151e-07
1.94239
-2.73682e-07
1.94239
-2.73409e-07
1.94239
-2.73179e-07
1.94239
-2.72732e-07
1.94239
-2.72241e-07
1.94239
-2.71972e-07
1.9424
-2.71539e-07
1.9424
-2.71746e-07
1.9424
-2.70964e-07
1.9424
-2.69774e-07
1.94241
-2.71062e-07
1.94241
-2.70513e-07
1.94241
-2.71124e-07
1.94241
-2.71681e-07
1.94242
-2.72197e-07
1.94242
-2.70182e-07
1.94242
-2.72936e-07
1.94242
-2.72172e-07
1.94242
-2.73954e-07
1.94242
-2.741e-07
1.94242
-2.7478e-07
1.94242
-2.7541e-07
1.94243
-2.76097e-07
1.94243
-2.76556e-07
1.94243
-2.7661e-07
1.94242
-2.76363e-07
1.94242
-2.7605e-07
1.94242
-2.75384e-07
1.94242
-2.74493e-07
1.94242
-2.73772e-07
1.94242
-2.71917e-07
1.94242
-2.65652e-07
1.94242
-2.5854e-07
1.94242
-2.64972e-07
1.94243
-2.58518e-07
1.94243
-2.53589e-07
1.94244
-2.48656e-07
1.94245
-2.4309e-07
1.94247
-2.36731e-07
1.94249
-2.30433e-07
1.94251
-2.23597e-07
1.94254
-2.1503e-07
1.94258
-2.06579e-07
1.94262
-1.43096e-07
1.94267
3.23344e-08
1.94272
9.03598e-07
1.94278
5.16041e-06
1.94282
2.64625e-05
1.94277
0.000132031
1.9422
0.000654783
1.9391
0.00320141
1.92395
0.015262
1.84845
0.0756091
0.261173
1.5874
2.27283
0.000991428
2.27285
0.000684267
2.27288
0.000667456
2.27291
0.000672839
2.27295
0.000673551
2.273
0.000673715
2.27305
0.000673962
2.27311
0.000674253
2.27317
0.000674409
2.27325
0.000675009
2.27333
0.000674921
2.27342
0.000675268
2.27353
0.000675525
2.27365
0.000675795
2.27378
0.00067608
2.27392
0.000676473
2.27407
0.000676582
2.27424
0.000676989
2.27442
0.000677302
2.27461
0.00067761
2.27481
0.000677906
2.27502
0.000678177
2.27523
0.00067848
2.27546
0.000678459
2.27569
0.000678542
2.27593
0.000678323
2.27617
0.000677758
2.27641
0.000676674
2.27665
0.000674839
2.27689
0.000671955
2.27713
0.000667659
2.27736
0.000661529
2.27759
0.000653101
2.27781
0.00064191
2.27801
0.000627507
2.2782
0.000609527
2.27837
0.000587715
2.27853
0.000561976
2.27867
0.000532407
2.27878
0.000499308
2.27888
0.000463174
2.27895
0.000424684
2.279
0.000384647
2.27902
0.000343952
2.27902
0.000303515
2.27899
0.00026417
2.27892
0.000226739
2.27883
0.000191896
2.27871
0.000160058
2.27857
0.000131559
2.27839
0.00010654
2.2782
8.49907e-05
2.27798
6.67714e-05
2.27773
5.16458e-05
2.27747
3.93112e-05
2.27718
2.94268e-05
2.27688
2.16409e-05
2.27656
1.56105e-05
2.27623
1.10167e-05
2.27589
7.57442e-06
2.27554
5.03668e-06
2.27518
3.19595e-06
2.27482
1.8825e-06
2.27446
9.60863e-07
2.27409
3.25421e-07
2.27373
-1.04374e-07
2.27337
-3.885e-07
2.27302
-5.71028e-07
2.27267
-6.83722e-07
2.27233
-7.48973e-07
2.272
-7.8242e-07
2.27168
-7.94767e-07
2.27137
-7.93236e-07
2.27108
-7.82693e-07
2.27079
-7.66384e-07
2.27052
-7.46448e-07
2.27026
-7.24296e-07
2.27002
-7.00871e-07
2.26979
-6.76806e-07
2.26957
-6.52537e-07
2.26937
-6.28374e-07
2.26917
-6.04563e-07
2.269
-5.81305e-07
2.26883
-5.58739e-07
2.26868
-5.36813e-07
2.26854
-5.15665e-07
2.26841
-4.95547e-07
2.26829
-4.76291e-07
2.26819
-4.57814e-07
2.26809
-4.39959e-07
2.268
-4.23821e-07
2.26792
-4.10317e-07
2.26785
-3.98515e-07
2.26778
-3.86899e-07
2.26772
-3.74668e-07
2.26767
-3.62139e-07
2.26762
-3.50181e-07
2.26758
-3.39645e-07
2.26754
-3.30849e-07
2.26751
-3.23613e-07
2.26748
-3.17468e-07
2.26745
-3.12029e-07
2.26743
-3.07034e-07
2.26741
-3.02392e-07
2.26739
-2.98198e-07
2.26737
-2.94542e-07
2.26736
-2.91551e-07
2.26734
-2.8911e-07
2.26733
-2.8704e-07
2.26732
-2.85276e-07
2.26731
-2.83737e-07
2.2673
-2.82467e-07
2.26729
-2.81463e-07
2.26728
-2.80696e-07
2.26728
-2.80063e-07
2.26727
-2.79393e-07
2.26726
-2.78669e-07
2.26725
-2.77942e-07
2.26725
-2.77221e-07
2.26724
-2.7657e-07
2.26723
-2.75977e-07
2.26722
-2.75555e-07
2.26721
-2.75173e-07
2.26721
-2.74973e-07
2.2672
-2.74875e-07
2.26719
-2.74813e-07
2.26718
-2.74729e-07
2.26717
-2.74584e-07
2.26717
-2.74347e-07
2.26716
-2.74118e-07
2.26715
-2.74129e-07
2.26714
-2.74362e-07
2.26714
-2.74438e-07
2.26713
-2.73994e-07
2.26712
-2.73012e-07
2.26712
-2.71772e-07
2.26711
-2.70651e-07
2.26711
-2.69698e-07
2.2671
-2.69101e-07
2.2671
-2.6853e-07
2.26709
-2.67923e-07
2.26709
-2.67089e-07
2.26708
-2.66162e-07
2.26708
-2.65318e-07
2.26708
-2.6459e-07
2.26708
-2.63979e-07
2.26708
-2.63448e-07
2.26708
-2.63102e-07
2.26708
-2.62797e-07
2.26708
-2.62335e-07
2.26708
-2.61811e-07
2.26708
-2.6152e-07
2.26708
-2.61094e-07
2.26708
-2.6132e-07
2.26708
-2.6057e-07
2.26709
-2.59479e-07
2.26709
-2.60734e-07
2.26709
-2.60461e-07
2.26709
-2.60905e-07
2.26709
-2.61949e-07
2.2671
-2.62051e-07
2.2671
-2.60585e-07
2.2671
-2.62542e-07
2.2671
-2.62207e-07
2.2671
-2.64085e-07
2.2671
-2.64332e-07
2.2671
-2.65038e-07
2.2671
-2.65685e-07
2.2671
-2.66424e-07
2.2671
-2.66922e-07
2.2671
-2.66962e-07
2.2671
-2.66704e-07
2.26709
-2.665e-07
2.26709
-2.65911e-07
2.26709
-2.65056e-07
2.26709
-2.64557e-07
2.26709
-2.6172e-07
2.26708
-2.58467e-07
2.26708
-2.44803e-07
2.26709
-2.57252e-07
2.26709
-2.50297e-07
2.2671
-2.44665e-07
2.2671
-2.39685e-07
2.26712
-2.3426e-07
2.26713
-2.28185e-07
2.26716
-2.22692e-07
2.26718
-2.17551e-07
2.26722
-2.09162e-07
2.26725
-2.02192e-07
2.2673
-7.84421e-08
2.26736
2.8891e-07
2.26742
2.16752e-06
2.26748
1.1413e-05
2.26753
5.77491e-05
2.26747
0.000287532
2.2668
0.00142466
2.26314
0.00696713
2.2453
0.0332292
2.15836
0.162684
0.550251
1.86942
2.61079
0.000950521
2.61082
0.000668969
2.61086
0.000643427
2.6109
0.000651341
2.61095
0.000652248
2.611
0.000652282
2.61106
0.000652518
2.61113
0.000652809
2.61121
0.000652964
2.6113
0.000653538
2.6114
0.000653464
2.61151
0.000653797
2.61164
0.000654049
2.61178
0.000654312
2.61194
0.000654591
2.61211
0.00065497
2.61229
0.000655085
2.61249
0.000655477
2.6127
0.000655784
2.61293
0.000656085
2.61317
0.000656375
2.61342
0.000656641
2.61368
0.000656936
2.61395
0.000656923
2.61422
0.000657006
2.61451
0.000656798
2.61479
0.000656257
2.61508
0.000655214
2.61537
0.000653445
2.61566
0.000650659
2.61594
0.00064651
2.61622
0.000640585
2.61649
0.000632438
2.61675
0.000621616
2.61699
0.000607688
2.61721
0.000590296
2.61742
0.000569195
2.6176
0.000544293
2.61776
0.000515683
2.6179
0.000483654
2.618
0.000448684
2.61808
0.000411431
2.61813
0.000372676
2.61815
0.000333279
2.61813
0.000294135
2.61808
0.000256029
2.618
0.000219785
2.61789
0.000186036
2.61774
0.000155193
2.61757
0.000127581
2.61736
0.000103336
2.61713
8.24497e-05
2.61687
6.47875e-05
2.61658
5.01214e-05
2.61627
3.8159e-05
2.61594
2.85709e-05
2.61559
2.10167e-05
2.61522
1.51644e-05
2.61484
1.07053e-05
2.61445
7.36319e-06
2.61404
4.8987e-06
2.61363
3.11065e-06
2.61322
1.83449e-06
2.6128
9.38766e-07
2.61238
3.21026e-07
2.61197
-9.69085e-08
2.61155
-3.73311e-07
2.61115
-5.5095e-07
2.61075
-6.60701e-07
2.61036
-7.24311e-07
2.60998
-7.56991e-07
2.60961
-7.69141e-07
2.60926
-7.67785e-07
2.60892
-7.5766e-07
2.60859
-7.41926e-07
2.60828
-7.22641e-07
2.60798
-7.01217e-07
2.6077
-6.78549e-07
2.60743
-6.55251e-07
2.60718
-6.3176e-07
2.60695
-6.08365e-07
2.60673
-5.85318e-07
2.60653
-5.62803e-07
2.60634
-5.40942e-07
2.60617
-5.19722e-07
2.606
-4.99247e-07
2.60586
-4.79773e-07
2.60572
-4.61125e-07
2.6056
-4.43219e-07
2.60548
-4.25949e-07
2.60538
-4.10324e-07
2.60529
-3.97256e-07
2.60521
-3.85822e-07
2.60513
-3.74577e-07
2.60506
-3.62721e-07
2.605
-3.50603e-07
2.60495
-3.39031e-07
2.6049
-3.28826e-07
2.60485
-3.20313e-07
2.60482
-3.13306e-07
2.60478
-3.07358e-07
2.60475
-3.0209e-07
2.60472
-2.97256e-07
2.6047
-2.92752e-07
2.60468
-2.88685e-07
2.60466
-2.85163e-07
2.60464
-2.8226e-07
2.60463
-2.79906e-07
2.60461
-2.77902e-07
2.6046
-2.76188e-07
2.60459
-2.747e-07
2.60458
-2.73474e-07
2.60457
-2.72496e-07
2.60456
-2.71746e-07
2.60455
-2.71149e-07
2.60454
-2.70498e-07
2.60453
-2.69782e-07
2.60452
-2.69083e-07
2.60452
-2.68396e-07
2.60451
-2.67766e-07
2.6045
-2.67195e-07
2.60449
-2.66784e-07
2.60448
-2.66413e-07
2.60447
-2.66213e-07
2.60446
-2.66129e-07
2.60445
-2.66056e-07
2.60444
-2.65987e-07
2.60443
-2.65842e-07
2.60443
-2.6562e-07
2.60442
-2.65391e-07
2.60441
-2.65412e-07
2.6044
-2.65631e-07
2.60439
-2.657e-07
2.60438
-2.65267e-07
2.60438
-2.64317e-07
2.60437
-2.6311e-07
2.60436
-2.62036e-07
2.60435
-2.61105e-07
2.60435
-2.60527e-07
2.60434
-2.5997e-07
2.60434
-2.59399e-07
2.60433
-2.58591e-07
2.60433
-2.57682e-07
2.60433
-2.5687e-07
2.60433
-2.56165e-07
2.60432
-2.55572e-07
2.60432
-2.55048e-07
2.60432
-2.5472e-07
2.60432
-2.54415e-07
2.60432
-2.53985e-07
2.60432
-2.53483e-07
2.60432
-2.53189e-07
2.60433
-2.52781e-07
2.60433
-2.53003e-07
2.60433
-2.52257e-07
2.60433
-2.51213e-07
2.60433
-2.52367e-07
2.60434
-2.52367e-07
2.60434
-2.52501e-07
2.60434
-2.54047e-07
2.60434
-2.53582e-07
2.60434
-2.52679e-07
2.60435
-2.53607e-07
2.60435
-2.53705e-07
2.60435
-2.5559e-07
2.60435
-2.55917e-07
2.60435
-2.5659e-07
2.60435
-2.57198e-07
2.60435
-2.57936e-07
2.60435
-2.58453e-07
2.60434
-2.58431e-07
2.60434
-2.58147e-07
2.60434
-2.58056e-07
2.60434
-2.57518e-07
2.60434
-2.56747e-07
2.60433
-2.56474e-07
2.60433
-2.52508e-07
2.60433
-2.52843e-07
2.60433
-2.31506e-07
2.60433
-2.50995e-07
2.60434
-2.43472e-07
2.60434
-2.37083e-07
2.60435
-2.32088e-07
2.60437
-2.26861e-07
2.60439
-2.21167e-07
2.60441
-2.16613e-07
2.60444
-2.13488e-07
2.60448
-2.0532e-07
2.60453
-2.00351e-07
2.60458
-8.50559e-09
2.60464
5.70424e-07
2.60471
3.55893e-06
2.60479
1.82932e-05
2.60485
9.21771e-05
2.60478
0.000458753
2.60405
0.00227269
2.60002
0.0111268
2.58031
0.0530792
2.48319
0.259952
0.871004
2.1626
2.99901
0.000904713
2.99904
0.000650485
2.99908
0.00061628
2.99913
0.000626614
2.99919
0.00062777
2.99925
0.000627661
2.99932
0.000627881
2.9994
0.000628171
2.99949
0.000628322
2.9996
0.000628865
2.99971
0.000628804
2.99984
0.00062912
2.99999
0.000629362
3.00015
0.000629616
3.00033
0.000629884
3.00052
0.000630244
3.00074
0.000630363
3.00096
0.000630736
3.00121
0.000631031
3.00146
0.000631322
3.00174
0.0006316
3.00203
0.000631857
3.00233
0.000632139
3.00264
0.00063213
3.00296
0.000632209
3.00328
0.000632011
3.00361
0.000631493
3.00394
0.000630494
3.00427
0.000628797
3.0046
0.000626124
3.00493
0.000622143
3.00525
0.000616456
3.00556
0.000608634
3.00585
0.000598243
3.00613
0.000584866
3.00639
0.00056816
3.00663
0.000547889
3.00684
0.000523959
3.00702
0.000496463
3.00717
0.000465675
3.0073
0.000432054
3.00739
0.000396231
3.00744
0.000358955
3.00746
0.000321053
3.00745
0.000283394
3.00739
0.000246714
3.0073
0.00021183
3.00716
0.000179334
3.007
0.000149631
3.00679
0.000123033
3.00656
9.96737e-05
3.00629
7.95448e-05
3.00599
6.25193e-05
3.00566
4.83783e-05
3.00531
3.68413e-05
3.00493
2.75919e-05
3.00452
2.03026e-05
3.0041
1.4654e-05
3.00366
1.0349e-05
3.00321
7.12136e-06
3.00275
4.7407e-06
3.00228
3.01296e-06
3.0018
1.77947e-06
3.00132
9.13453e-07
3.00084
3.15995e-07
3.00036
-8.83847e-08
2.99989
-3.55914e-07
2.99942
-5.27947e-07
2.99896
-6.34296e-07
2.99852
-6.96011e-07
2.99808
-7.27803e-07
2.99766
-7.39725e-07
2.99725
-7.38575e-07
2.99686
-7.28916e-07
2.99648
-7.13841e-07
2.99612
-6.95316e-07
2.99578
-6.74721e-07
2.99546
-6.52915e-07
2.99516
-6.30502e-07
2.99487
-6.0791e-07
2.9946
-5.85398e-07
2.99435
-5.63214e-07
2.99412
-5.4156e-07
2.9939
-5.20522e-07
2.9937
-5.00098e-07
2.99351
-4.80399e-07
2.99334
-4.61652e-07
2.99319
-4.43713e-07
2.99304
-4.26469e-07
2.99292
-4.09858e-07
2.9928
-3.94837e-07
2.99269
-3.8225e-07
2.99259
-3.71252e-07
2.99251
-3.60425e-07
2.99243
-3.49031e-07
2.99236
-3.37368e-07
2.9923
-3.26232e-07
2.99224
-3.1642e-07
2.99219
-3.08224e-07
2.99215
-3.01479e-07
2.99211
-2.95757e-07
2.99207
-2.90689e-07
2.99204
-2.8604e-07
2.99202
-2.817e-07
2.99199
-2.77778e-07
2.99197
-2.74398e-07
2.99195
-2.71611e-07
2.99193
-2.69334e-07
2.99192
-2.67402e-07
2.9919
-2.65773e-07
2.99189
-2.64336e-07
2.99188
-2.63157e-07
2.99186
-2.62207e-07
2.99185
-2.61502e-07
2.99184
-2.60912e-07
2.99183
-2.60297e-07
2.99182
-2.59606e-07
2.99181
-2.58933e-07
2.9918
-2.5826e-07
2.99179
-2.57667e-07
2.99178
-2.57114e-07
2.99177
-2.56714e-07
2.99176
-2.56368e-07
2.99175
-2.56172e-07
2.99174
-2.56085e-07
2.99173
-2.56015e-07
2.99172
-2.5595e-07
2.99171
-2.55815e-07
2.9917
-2.55601e-07
2.99169
-2.55379e-07
2.99168
-2.55393e-07
2.99167
-2.55604e-07
2.99166
-2.55677e-07
2.99165
-2.55248e-07
2.99164
-2.54357e-07
2.99163
-2.53174e-07
2.99163
-2.52163e-07
2.99162
-2.51257e-07
2.99161
-2.50708e-07
2.99161
-2.50166e-07
2.9916
-2.4962e-07
2.99159
-2.48834e-07
2.99159
-2.47954e-07
2.99159
-2.47179e-07
2.99158
-2.46499e-07
2.99158
-2.45927e-07
2.99158
-2.45414e-07
2.99158
-2.45116e-07
2.99158
-2.44803e-07
2.99158
-2.4441e-07
2.99158
-2.43912e-07
2.99158
-2.43628e-07
2.99158
-2.4325e-07
2.99159
-2.43461e-07
2.99159
-2.42722e-07
2.99159
-2.41736e-07
2.99159
-2.4277e-07
2.9916
-2.43072e-07
2.9916
-2.42868e-07
2.9916
-2.45e-07
2.9916
-2.43854e-07
2.99161
-2.43621e-07
2.99161
-2.43363e-07
2.99161
-2.43956e-07
2.99161
-2.45866e-07
2.99161
-2.46266e-07
2.99161
-2.46891e-07
2.99161
-2.47455e-07
2.99161
-2.48194e-07
2.99161
-2.48725e-07
2.99161
-2.48656e-07
2.9916
-2.48321e-07
2.9916
-2.48361e-07
2.9916
-2.47892e-07
2.9916
-2.47201e-07
2.99159
-2.47212e-07
2.99159
-2.41929e-07
2.99159
-2.46411e-07
2.99159
-2.16201e-07
2.99159
-2.43879e-07
2.9916
-2.35636e-07
2.99161
-2.28389e-07
2.99162
-2.23361e-07
2.99163
-2.18373e-07
2.99166
-2.13109e-07
2.99168
-2.0966e-07
2.99172
-2.08827e-07
2.99176
-2.00915e-07
2.99182
-1.98423e-07
2.99188
7.15045e-08
2.99195
8.91632e-07
2.99203
5.1467e-06
2.99211
2.61434e-05
2.99218
0.000131463
2.99211
0.000654145
2.99127
0.00324074
2.98667
0.0158789
2.96421
0.0756959
2.85434
0.37
1.2271
2.49843
3.44496
0.000853635
3.44499
0.000628112
3.44504
0.000585639
3.4451
0.000598182
3.44516
0.000599638
3.44523
0.000599379
3.44532
0.00059958
3.44541
0.000599868
3.44551
0.000600015
3.44563
0.000600523
3.44576
0.000600475
3.44591
0.000600772
3.44608
0.000601004
3.44627
0.000601246
3.44647
0.000601503
3.4467
0.000601842
3.44694
0.000601964
3.4472
0.000602315
3.44748
0.000602598
3.44778
0.000602875
3.44809
0.000603141
3.44842
0.000603387
3.44877
0.000603655
3.44912
0.00060365
3.44949
0.000603724
3.44986
0.000603537
3.45024
0.000603045
3.45062
0.000602095
3.451
0.00060048
3.45138
0.000597936
3.45176
0.000594145
3.45213
0.00058873
3.45248
0.000581279
3.45282
0.000571379
3.45314
0.000558632
3.45343
0.000542709
3.4537
0.000523385
3.45395
0.000500569
3.45416
0.000474347
3.45433
0.00044498
3.45447
0.000412904
3.45458
0.00037872
3.45464
0.000343142
3.45467
0.000306957
3.45465
0.000271003
3.45458
0.000235963
3.45447
0.000202644
3.45432
0.00017159
3.45413
0.0001432
3.4539
0.000117772
3.45363
9.54338e-05
3.45332
7.61799e-05
3.45298
5.98901e-05
3.4526
4.63564e-05
3.45219
3.53118e-05
3.45175
2.64545e-05
3.45129
1.94722e-05
3.45081
1.40599e-05
3.4503
9.93366e-06
3.44978
6.83917e-06
3.44925
4.55596e-06
3.44871
2.89841e-06
3.44816
1.71462e-06
3.44761
8.83207e-07
3.44706
3.09406e-07
3.44651
-7.91279e-08
3.44597
-3.36284e-07
3.44543
-5.01752e-07
3.4449
-6.04115e-07
3.44439
-6.63613e-07
3.44389
-6.94345e-07
3.4434
-7.05972e-07
3.44294
-7.05033e-07
3.44249
-6.95907e-07
3.44205
-6.81575e-07
3.44164
-6.63918e-07
3.44125
-6.44281e-07
3.44088
-6.23468e-07
3.44053
-6.02075e-07
3.4402
-5.80505e-07
3.43989
-5.59019e-07
3.4396
-5.37832e-07
3.43934
-5.17153e-07
3.43909
-4.97064e-07
3.43886
-4.77552e-07
3.43864
-4.58753e-07
3.43845
-4.40848e-07
3.43827
-4.23715e-07
3.43811
-4.07237e-07
3.43796
-3.91386e-07
3.43782
-3.7706e-07
3.4377
-3.65024e-07
3.43759
-3.54521e-07
3.43749
-3.44167e-07
3.4374
-3.33293e-07
3.43732
-3.22159e-07
3.43725
-3.11533e-07
3.43718
-3.02161e-07
3.43713
-2.94338e-07
3.43708
-2.87893e-07
3.43703
-2.82429e-07
3.43699
-2.77592e-07
3.43696
-2.73145e-07
3.43692
-2.69003e-07
3.4369
-2.65258e-07
3.43687
-2.62029e-07
3.43685
-2.59375e-07
3.43683
-2.57205e-07
3.43681
-2.55355e-07
3.43679
-2.53794e-07
3.43678
-2.5243e-07
3.43676
-2.51299e-07
3.43675
-2.50398e-07
3.43674
-2.49722e-07
3.43673
-2.49154e-07
3.43671
-2.48569e-07
3.4367
-2.47914e-07
3.43669
-2.4727e-07
3.43668
-2.46626e-07
3.43667
-2.4606e-07
3.43666
-2.45533e-07
3.43664
-2.45151e-07
3.43663
-2.44816e-07
3.43662
-2.4463e-07
3.43661
-2.44547e-07
3.4366
-2.44481e-07
3.43658
-2.44418e-07
3.43657
-2.4429e-07
3.43656
-2.44085e-07
3.43655
-2.43881e-07
3.43654
-2.43886e-07
3.43653
-2.44083e-07
3.43651
-2.44152e-07
3.4365
-2.43745e-07
3.43649
-2.42901e-07
3.43648
-2.41766e-07
3.43648
-2.40807e-07
3.43647
-2.39932e-07
3.43646
-2.39414e-07
3.43645
-2.38886e-07
3.43645
-2.38369e-07
3.43644
-2.37624e-07
3.43644
-2.36783e-07
3.43643
-2.36043e-07
3.43643
-2.35388e-07
3.43643
-2.34853e-07
3.43642
-2.34351e-07
3.43642
-2.3408e-07
3.43642
-2.33764e-07
3.43642
-2.3342e-07
3.43642
-2.32929e-07
3.43643
-2.32651e-07
3.43643
-2.32296e-07
3.43643
-2.325e-07
3.43643
-2.31759e-07
3.43644
-2.30852e-07
3.43644
-2.31745e-07
3.43644
-2.324e-07
3.43645
-2.31827e-07
3.43645
-2.34602e-07
3.43645
-2.32687e-07
3.43645
-2.33196e-07
3.43646
-2.31616e-07
3.43646
-2.32754e-07
3.43646
-2.34691e-07
3.43646
-2.35175e-07
3.43646
-2.35761e-07
3.43646
-2.36279e-07
3.43646
-2.37007e-07
3.43646
-2.3756e-07
3.43645
-2.37425e-07
3.43645
-2.37036e-07
3.43645
-2.37229e-07
3.43645
-2.36834e-07
3.43644
-2.36229e-07
3.43644
-2.36554e-07
3.43644
-2.29742e-07
3.43643
-2.39088e-07
3.43643
-1.98474e-07
3.43644
-2.35814e-07
3.43644
-2.26622e-07
3.43645
-2.18392e-07
3.43647
-2.13338e-07
3.43649
-2.08614e-07
3.43651
-2.03838e-07
3.43654
-2.0167e-07
3.43658
-2.03496e-07
3.43663
-1.95851e-07
3.43669
-1.96578e-07
3.43676
1.62832e-07
3.43685
1.25672e-06
3.43694
6.95157e-06
3.43704
3.50654e-05
3.43712
0.000176117
3.43703
0.000876261
3.43608
0.00434163
3.43084
0.0212883
3.40531
0.101413
3.28134
0.494177
1.62148
2.88717
3.95721
0.000796832
3.95726
0.000601026
3.95731
0.000551068
3.95738
0.000565503
3.95745
0.0005673
3.95753
0.000566892
3.95763
0.000567072
3.95773
0.000567357
3.95785
0.000567498
3.95799
0.000567968
3.95814
0.000567934
3.95831
0.000568211
3.9585
0.000568431
3.95872
0.000568659
3.95895
0.000568902
3.95921
0.000569218
3.95949
0.000569342
3.95979
0.000569669
3.96011
0.000569937
3.96045
0.000570199
3.96082
0.000570451
3.9612
0.000570684
3.96159
0.000570936
3.962
0.000570935
3.96242
0.000571003
3.96285
0.00057083
3.96328
0.000570367
3.96372
0.000569472
3.96416
0.000567951
3.9646
0.000565553
3.96503
0.00056198
3.96545
0.000556874
3.96586
0.000549846
3.96625
0.000540507
3.96661
0.000528479
3.96695
0.000513451
3.96726
0.000495209
3.96754
0.000473666
3.96778
0.000448901
3.96799
0.000421161
3.96815
0.000390854
3.96827
0.000358548
3.96834
0.000324916
3.96837
0.000290702
3.96835
0.000256705
3.96827
0.00022355
3.96815
0.000192028
3.96798
0.000162634
3.96776
0.000135757
3.96749
0.000111677
3.96718
9.05175e-05
3.96682
7.22742e-05
3.96643
5.68349e-05
3.96599
4.40041e-05
3.96552
3.35299e-05
3.96502
2.51276e-05
3.96449
1.85019e-05
3.96394
1.33645e-05
3.96336
9.44653e-06
3.96276
6.50731e-06
3.96215
4.33795e-06
3.96153
2.76251e-06
3.9609
1.63698e-06
3.96027
8.46197e-07
3.95963
3.0026e-07
3.959
-6.95863e-08
3.95838
-3.145e-07
3.95776
-4.72171e-07
3.95716
-5.69802e-07
3.95657
-6.26621e-07
3.95599
-6.56055e-07
3.95543
-6.67291e-07
3.95489
-6.66558e-07
3.95438
-6.58025e-07
3.95388
-6.44539e-07
3.95341
-6.27875e-07
3.95296
-6.09326e-07
3.95253
-5.89654e-07
3.95213
-5.69425e-07
3.95175
-5.49028e-07
3.9514
-5.28715e-07
3.95107
-5.08675e-07
3.95076
-4.8912e-07
3.95047
-4.70121e-07
3.95021
-4.51665e-07
3.94996
-4.33884e-07
3.94974
-4.1695e-07
3.94953
-4.00745e-07
3.94935
-3.85149e-07
3.94918
-3.70168e-07
3.94902
-3.56627e-07
3.94888
-3.45244e-07
3.94875
-3.35298e-07
3.94864
-3.25505e-07
3.94854
-3.15224e-07
3.94844
-3.04702e-07
3.94836
-2.94645e-07
3.94829
-2.85788e-07
3.94822
-2.78385e-07
3.94816
-2.72291e-07
3.94811
-2.67119e-07
3.94807
-2.62544e-07
3.94802
-2.58337e-07
3.94799
-2.54421e-07
3.94796
-2.50882e-07
3.94793
-2.47827e-07
3.9479
-2.45315e-07
3.94788
-2.43262e-07
3.94786
-2.41514e-07
3.94784
-2.40034e-07
3.94782
-2.38753e-07
3.9478
-2.37679e-07
3.94779
-2.36827e-07
3.94778
-2.36185e-07
3.94776
-2.35647e-07
3.94775
-2.35094e-07
3.94773
-2.34473e-07
3.94772
-2.33867e-07
3.94771
-2.33256e-07
3.94769
-2.32723e-07
3.94768
-2.32229e-07
3.94767
-2.31863e-07
3.94765
-2.3155e-07
3.94764
-2.31371e-07
3.94763
-2.31291e-07
3.94761
-2.31234e-07
3.9476
-2.31173e-07
3.94758
-2.31048e-07
3.94757
-2.30864e-07
3.94756
-2.30666e-07
3.94754
-2.30668e-07
3.94753
-2.30851e-07
3.94752
-2.30917e-07
3.94751
-2.30531e-07
3.94749
-2.29737e-07
3.94748
-2.28654e-07
3.94747
-2.27765e-07
3.94746
-2.26927e-07
3.94745
-2.26438e-07
3.94745
-2.25933e-07
3.94744
-2.25452e-07
3.94743
-2.24747e-07
3.94743
-2.23944e-07
3.94742
-2.23253e-07
3.94742
-2.2263e-07
3.94742
-2.22122e-07
3.94741
-2.2164e-07
3.94741
-2.21396e-07
3.94741
-2.21085e-07
3.94741
-2.20775e-07
3.94742
-2.20299e-07
3.94742
-2.20037e-07
3.94742
-2.19714e-07
3.94742
-2.1991e-07
3.94743
-2.19178e-07
3.94743
-2.18338e-07
3.94743
-2.19078e-07
3.94744
-2.20141e-07
3.94744
-2.1914e-07
3.94744
-2.22677e-07
3.94745
-2.19845e-07
3.94745
-2.21235e-07
3.94745
-2.18114e-07
3.94745
-2.1989e-07
3.94745
-2.21852e-07
3.94745
-2.22436e-07
3.94745
-2.22974e-07
3.94745
-2.23443e-07
3.94745
-2.24153e-07
3.94745
-2.24742e-07
3.94745
-2.24517e-07
3.94745
-2.24071e-07
3.94744
-2.24434e-07
3.94744
-2.24122e-07
3.94744
-2.23615e-07
3.94743
-2.2431e-07
3.94743
-2.15688e-07
3.94743
-2.30777e-07
3.94743
-1.77939e-07
3.94743
-2.26661e-07
3.94744
-2.16256e-07
3.94745
-2.06895e-07
3.94746
-2.0181e-07
3.94748
-1.97392e-07
3.94751
-1.93184e-07
3.94755
-1.92491e-07
3.9476
-1.97409e-07
3.94766
-1.90003e-07
3.94772
-1.95066e-07
3.9478
2.66725e-07
3.9479
1.66921e-06
3.94801
8.99122e-06
3.94812
4.5145e-05
3.94821
0.000226575
3.94812
0.00112728
3.94705
0.00558627
3.94112
0.0274094
3.91226
0.130486
3.77329
0.633385
2.05627
3.33874
17.2634
0.00057059
17.2636
0.000467466
17.2638
0.000407202
17.2641
0.000423028
17.2644
0.000425995
17.2648
0.000425215
17.2652
0.000425285
17.2656
0.00042553
17.2662
0.000425637
17.2668
0.000425962
17.2674
0.00042596
17.2682
0.000426154
17.269
0.000426319
17.2699
0.00042649
17.271
0.000426672
17.2721
0.000426897
17.2733
0.000427011
17.2746
0.000427244
17.276
0.000427447
17.2775
0.000427643
17.2791
0.000427832
17.2808
0.000428009
17.2825
0.000428193
17.2843
0.000428203
17.2861
0.000428251
17.288
0.000428126
17.2899
0.000427785
17.2918
0.000427125
17.2937
0.000425998
17.2956
0.000424219
17.2975
0.000421569
17.2993
0.000417777
17.3011
0.000412554
17.3028
0.000405609
17.3044
0.000396659
17.3059
0.000385469
17.3072
0.000371877
17.3084
0.000355814
17.3095
0.000337337
17.3104
0.000316625
17.3111
0.000293979
17.3116
0.000269823
17.3119
0.00024465
17.3121
0.000219024
17.312
0.00019355
17.3116
0.000168659
17.3111
0.000144998
17.3103
0.0001229
17.3094
0.000102679
17.3082
8.45429e-05
17.3069
6.85903e-05
17.3053
5.48217e-05
17.3036
4.31566e-05
17.3017
3.34515e-05
17.2996
2.55198e-05
17.2975
1.91494e-05
17.2951
1.41199e-05
17.2927
1.02153e-05
17.2902
7.23368e-06
17.2876
4.99394e-06
17.2849
3.33859e-06
17.2822
2.13476e-06
17.2795
1.27345e-06
17.2767
6.67417e-07
17.2739
2.48259e-07
17.2712
-3.63298e-08
17.2685
-2.24826e-07
17.2658
-3.4672e-07
17.2631
-4.22396e-07
17.2606
-4.66705e-07
17.2581
-4.89928e-07
17.2556
-4.99119e-07
17.2533
-4.9907e-07
17.251
-4.92994e-07
17.2489
-4.8308e-07
17.2468
-4.70714e-07
17.2448
-4.56874e-07
17.243
-4.4217e-07
17.2412
-4.27025e-07
17.2396
-4.11747e-07
17.238
-3.96519e-07
17.2366
-3.81493e-07
17.2352
-3.6683e-07
17.234
-3.52584e-07
17.2328
-3.38753e-07
17.2318
-3.25423e-07
17.2308
-3.12724e-07
17.2299
-3.00589e-07
17.2291
-2.88866e-07
17.2283
-2.77643e-07
17.2276
-2.675e-07
17.227
-2.58925e-07
17.2265
-2.51438e-07
17.226
-2.44078e-07
17.2255
-2.36367e-07
17.2251
-2.28495e-07
17.2248
-2.20966e-07
17.2245
-2.14344e-07
17.2242
-2.08799e-07
17.2239
-2.04228e-07
17.2237
-2.00352e-07
17.2235
-1.96922e-07
17.2233
-1.93764e-07
17.2231
-1.90822e-07
17.223
-1.88167e-07
17.2229
-1.85871e-07
17.2228
-1.83985e-07
17.2227
-1.82448e-07
17.2226
-1.81135e-07
17.2225
-1.80025e-07
17.2224
-1.79066e-07
17.2223
-1.78261e-07
17.2223
-1.77626e-07
17.2222
-1.7714e-07
17.2222
-1.76734e-07
17.2221
-1.7632e-07
17.222
-1.75857e-07
17.222
-1.75401e-07
17.2219
-1.74941e-07
17.2219
-1.74542e-07
17.2218
-1.74175e-07
17.2217
-1.73895e-07
17.2217
-1.73663e-07
17.2216
-1.73527e-07
17.2216
-1.73466e-07
17.2215
-1.73423e-07
17.2214
-1.73375e-07
17.2214
-1.7328e-07
17.2213
-1.73148e-07
17.2213
-1.73006e-07
17.2212
-1.73006e-07
17.2212
-1.73134e-07
17.2211
-1.73189e-07
17.221
-1.72898e-07
17.221
-1.72306e-07
17.2209
-1.71472e-07
17.2209
-1.70835e-07
17.2209
-1.70194e-07
17.2208
-1.69831e-07
17.2208
-1.69435e-07
17.2208
-1.69092e-07
17.2207
-1.68568e-07
17.2207
-1.67955e-07
17.2207
-1.67446e-07
17.2207
-1.66973e-07
17.2207
-1.66598e-07
17.2206
-1.66215e-07
17.2206
-1.66053e-07
17.2206
-1.65793e-07
17.2206
-1.6564e-07
17.2206
-1.65213e-07
17.2207
-1.65022e-07
17.2207
-1.64812e-07
17.2207
-1.64969e-07
17.2207
-1.64296e-07
17.2207
-1.63728e-07
17.2207
-1.63846e-07
17.2207
-1.66642e-07
17.2208
-1.6374e-07
17.2208
-1.70768e-07
17.2208
-1.63586e-07
17.2208
-1.69225e-07
17.2208
-1.59168e-07
17.2208
-1.63854e-07
17.2208
-1.65795e-07
17.2208
-1.66838e-07
17.2208
-1.67189e-07
17.2208
-1.67416e-07
17.2208
-1.68066e-07
17.2208
-1.68844e-07
17.2208
-1.68187e-07
17.2208
-1.67486e-07
17.2208
-1.68585e-07
17.2208
-1.68642e-07
17.2207
-1.68508e-07
17.2207
-1.70819e-07
17.2207
-1.53564e-07
17.2207
-1.962e-07
17.2207
-8.61396e-08
17.2207
-1.88417e-07
17.2207
-1.70821e-07
17.2208
-1.56624e-07
17.2209
-1.51484e-07
17.2209
-1.48386e-07
17.2211
-1.4666e-07
17.2212
-1.52546e-07
17.2214
-1.71518e-07
17.2217
-1.64135e-07
17.222
-1.9928e-07
17.2223
7.04119e-07
17.2228
3.35819e-06
17.2232
1.73493e-05
17.2237
8.63989e-05
17.2241
0.000433222
17.2238
0.00215546
17.2195
0.0106807
17.1954
0.0523446
17.078
0.248761
16.5621
1.15028
3.75303
14.8665
17.2633
0.000368182
17.2636
0.000318622
17.2638
0.000269239
17.2641
0.000281265
17.2644
0.000284234
17.2648
0.00028348
17.2652
0.000283486
17.2656
0.000283673
17.2662
0.00028375
17.2667
0.000283958
17.2674
0.000283971
17.2682
0.000284098
17.269
0.000284211
17.2699
0.000284326
17.271
0.000284449
17.2721
0.000284594
17.2733
0.00028468
17.2746
0.000284831
17.276
0.000284966
17.2775
0.000285098
17.2791
0.000285224
17.2807
0.000285342
17.2825
0.000285463
17.2843
0.000285474
17.2861
0.000285505
17.288
0.000285424
17.2898
0.000285201
17.2918
0.000284767
17.2937
0.000284023
17.2956
0.000282847
17.2975
0.000281097
17.2993
0.000278588
17.3011
0.000275131
17.3028
0.000270531
17.3044