/*--------------------------------*- C++ -*----------------------------------*\
| =========                 |                                                 |
| \\      /  F ield         | OpenFOAM: The Open Source CFD Toolbox           |
|  \\    /   O peration     | Version:  3.0.x                                 |
|   \\  /    A nd           | Web:      www.OpenFOAM.org                      |
|    \\/     M anipulation  |                                                 |
\*---------------------------------------------------------------------------*/
FoamFile
{
    version     2.0;
    format      ascii;
    class       volScalarField;
    location    "0.16995";
    object      rho;
}
// * * * * * * * * * * * * * * * * * * * * * * * * * * * * * * * * * * * * * //

dimensions      [1 -3 0 0 0 0 0];

internalField   nonuniform List<scalar> 
13800
(
50.5445
50.5445
50.5444
50.5443
50.5444
50.5446
50.545
50.5456
50.5462
50.5467
50.5473
50.5479
50.5485
50.5493
50.5501
50.551
50.552
50.5531
50.5544
50.5557
50.5571
50.5586
50.5602
50.5619
50.5637
50.5657
50.5678
50.5701
50.5725
50.5749
50.5773
50.5796
50.5819
50.5841
50.5863
50.5883
50.5903
50.592
50.5936
50.595
50.5962
50.5972
50.598
50.5984
50.5987
50.5987
50.5984
50.5978
50.597
50.596
50.5948
50.5933
50.5916
50.5898
50.5878
50.5858
50.5836
50.5813
50.579
50.5767
50.5744
50.5722
50.57
50.5678
50.5657
50.5637
50.5618
50.5601
50.5584
50.5568
50.5553
50.554
50.5527
50.5516
50.5506
50.5496
50.5487
50.5479
50.5472
50.5466
50.546
50.5454
50.545
50.5445
50.5441
50.5438
50.5434
50.5431
50.5429
50.5426
50.5424
50.5422
50.542
50.5418
50.5417
50.5415
50.5414
50.5413
50.5412
50.5411
50.541
50.5409
50.5408
50.5408
50.5407
50.5407
50.5406
50.5406
50.5405
50.5405
50.5405
50.5404
50.5404
50.5404
50.5404
50.5403
50.5403
50.5403
50.5403
50.5403
50.5403
50.5403
50.5403
50.5403
50.5403
50.5403
50.5403
50.5403
50.5404
50.5404
50.5404
50.5404
50.5404
50.5404
50.5404
50.5404
50.5404
50.5404
50.5404
50.5404
50.5404
50.5404
50.5404
50.5405
50.5405
50.5405
50.5405
50.5405
50.5405
50.5405
50.5405
50.5405
50.5406
50.5406
50.5406
50.5406
50.5407
50.5407
50.5407
50.5408
50.5409
50.5409
50.541
50.5411
50.5412
50.5413
50.5414
50.5416
50.5418
50.542
50.5422
50.5425
50.5428
50.5432
50.5436
50.5441
50.5446
50.5452
50.5458
50.5466
50.5474
50.5483
50.5493
50.5503
50.5515
50.5528
50.5541
50.5556
50.5571
50.5586
50.5603
50.562
50.5637
50.5654
50.5672
50.5689
50.5708
50.5726
50.5782
50.5705
50.545
50.545
50.545
50.5449
50.5449
50.5452
50.5455
50.5461
50.5467
50.5472
50.5478
50.5484
50.549
50.5498
50.5506
50.5515
50.5525
50.5536
50.5548
50.5562
50.5576
50.5591
50.5607
50.5623
50.5641
50.5661
50.5683
50.5706
50.5729
50.5753
50.5777
50.5801
50.5823
50.5846
50.5867
50.5888
50.5907
50.5924
50.594
50.5955
50.5966
50.5976
50.5984
50.5988
50.5991
50.599
50.5988
50.5982
50.5974
50.5964
50.5951
50.5936
50.592
50.5902
50.5882
50.5861
50.5839
50.5817
50.5794
50.5771
50.5748
50.5725
50.5703
50.5682
50.5661
50.5641
50.5622
50.5604
50.5587
50.5572
50.5557
50.5544
50.5531
50.552
50.5509
50.55
50.5491
50.5483
50.5476
50.5469
50.5463
50.5458
50.5453
50.5449
50.5445
50.5441
50.5438
50.5435
50.5432
50.543
50.5428
50.5426
50.5424
50.5422
50.542
50.5419
50.5418
50.5417
50.5416
50.5414
50.5414
50.5413
50.5412
50.5411
50.5411
50.541
50.541
50.5409
50.5409
50.5408
50.5408
50.5408
50.5408
50.5407
50.5407
50.5407
50.5407
50.5407
50.5407
50.5407
50.5407
50.5407
50.5407
50.5407
50.5407
50.5407
50.5407
50.5407
50.5407
50.5407
50.5407
50.5407
50.5407
50.5408
50.5408
50.5408
50.5408
50.5408
50.5408
50.5408
50.5408
50.5408
50.5408
50.5408
50.5408
50.5408
50.5408
50.5409
50.5409
50.5409
50.5409
50.5409
50.5409
50.541
50.541
50.541
50.541
50.5411
50.5411
50.5412
50.5412
50.5413
50.5414
50.5414
50.5415
50.5417
50.5418
50.542
50.5421
50.5424
50.5426
50.5429
50.5432
50.5436
50.544
50.5444
50.545
50.5455
50.5462
50.5469
50.5477
50.5486
50.5496
50.5507
50.5519
50.5531
50.5545
50.5559
50.5574
50.559
50.5607
50.5623
50.5641
50.5658
50.5676
50.5692
50.5712
50.5729
50.5786
50.5675
50.545
50.545
50.545
50.5449
50.5449
50.5452
50.5455
50.5461
50.5467
50.5472
50.5478
50.5484
50.549
50.5498
50.5506
50.5515
50.5525
50.5536
50.5548
50.5562
50.5576
50.5591
50.5607
50.5623
50.5641
50.5661
50.5683
50.5706
50.5729
50.5753
50.5777
50.5801
50.5823
50.5846
50.5867
50.5888
50.5907
50.5924
50.594
50.5955
50.5966
50.5976
50.5984
50.5988
50.5991
50.599
50.5988
50.5982
50.5974
50.5964
50.5951
50.5936
50.592
50.5902
50.5882
50.5861
50.5839
50.5817
50.5794
50.5771
50.5748
50.5725
50.5703
50.5682
50.5661
50.5641
50.5622
50.5604
50.5587
50.5572
50.5557
50.5544
50.5531
50.552
50.5509
50.55
50.5491
50.5483
50.5476
50.5469
50.5463
50.5458
50.5453
50.5449
50.5445
50.5441
50.5438
50.5435
50.5432
50.543
50.5428
50.5426
50.5424
50.5422
50.542
50.5419
50.5418
50.5417
50.5416
50.5414
50.5414
50.5413
50.5412
50.5411
50.5411
50.541
50.541
50.5409
50.5409
50.5408
50.5408
50.5408
50.5408
50.5407
50.5407
50.5407
50.5407
50.5407
50.5407
50.5407
50.5407
50.5407
50.5407
50.5407
50.5407
50.5407
50.5407
50.5407
50.5407
50.5407
50.5407
50.5407
50.5407
50.5408
50.5408
50.5408
50.5408
50.5408
50.5408
50.5408
50.5408
50.5408
50.5408
50.5408
50.5408
50.5408
50.5408
50.5409
50.5409
50.5409
50.5409
50.5409
50.5409
50.541
50.541
50.541
50.541
50.5411
50.5411
50.5412
50.5412
50.5413
50.5414
50.5414
50.5415
50.5417
50.5418
50.542
50.5421
50.5424
50.5426
50.5429
50.5432
50.5436
50.544
50.5444
50.545
50.5455
50.5462
50.5469
50.5477
50.5486
50.5496
50.5507
50.5519
50.5531
50.5545
50.5559
50.5574
50.559
50.5607
50.5623
50.5641
50.5658
50.5676
50.5692
50.5712
50.5729
50.5785
50.5678
50.545
50.545
50.545
50.5449
50.5449
50.5451
50.5455
50.5461
50.5467
50.5472
50.5478
50.5484
50.549
50.5498
50.5506
50.5515
50.5525
50.5536
50.5548
50.5562
50.5576
50.5591
50.5607
50.5623
50.5641
50.5661
50.5683
50.5706
50.5729
50.5753
50.5777
50.5801
50.5823
50.5846
50.5867
50.5888
50.5907
50.5924
50.594
50.5954
50.5966
50.5976
50.5984
50.5988
50.5991
50.599
50.5988
50.5982
50.5974
50.5964
50.5951
50.5936
50.592
50.5902
50.5882
50.5861
50.5839
50.5817
50.5794
50.5771
50.5748
50.5725
50.5703
50.5682
50.5661
50.5641
50.5622
50.5604
50.5587
50.5572
50.5557
50.5544
50.5531
50.552
50.5509
50.55
50.5491
50.5483
50.5476
50.5469
50.5463
50.5458
50.5453
50.5449
50.5445
50.5441
50.5438
50.5435
50.5432
50.543
50.5428
50.5426
50.5424
50.5422
50.542
50.5419
50.5418
50.5417
50.5416
50.5414
50.5414
50.5413
50.5412
50.5411
50.5411
50.541
50.541
50.5409
50.5409
50.5408
50.5408
50.5408
50.5408
50.5407
50.5407
50.5407
50.5407
50.5407
50.5407
50.5407
50.5407
50.5407
50.5407
50.5407
50.5407
50.5407
50.5407
50.5407
50.5407
50.5407
50.5407
50.5407
50.5407
50.5408
50.5408
50.5408
50.5408
50.5408
50.5408
50.5408
50.5408
50.5408
50.5408
50.5408
50.5408
50.5408
50.5408
50.5409
50.5409
50.5409
50.5409
50.5409
50.5409
50.541
50.541
50.541
50.541
50.5411
50.5411
50.5412
50.5412
50.5413
50.5414
50.5414
50.5415
50.5417
50.5418
50.542
50.5421
50.5424
50.5426
50.5429
50.5432
50.5436
50.544
50.5444
50.545
50.5455
50.5462
50.5469
50.5477
50.5486
50.5496
50.5507
50.5519
50.5531
50.5545
50.5559
50.5574
50.559
50.5607
50.5623
50.5641
50.5658
50.5676
50.5692
50.5711
50.5729
50.5779
50.5716
50.545
50.545
50.545
50.5449
50.5449
50.5451
50.5455
50.5461
50.5467
50.5472
50.5478
50.5484
50.549
50.5498
50.5506
50.5515
50.5525
50.5536
50.5548
50.5562
50.5576
50.5591
50.5607
50.5623
50.5641
50.5661
50.5683
50.5706
50.5729
50.5753
50.5777
50.5801
50.5823
50.5846
50.5867
50.5888
50.5907
50.5924
50.594
50.5954
50.5966
50.5976
50.5984
50.5988
50.5991
50.599
50.5988
50.5982
50.5974
50.5964
50.5951
50.5936
50.592
50.5902
50.5882
50.5861
50.5839
50.5817
50.5794
50.5771
50.5748
50.5725
50.5703
50.5682
50.5661
50.5641
50.5622
50.5604
50.5587
50.5572
50.5557
50.5544
50.5531
50.552
50.5509
50.55
50.5491
50.5483
50.5476
50.5469
50.5463
50.5458
50.5453
50.5449
50.5445
50.5441
50.5438
50.5435
50.5432
50.543
50.5428
50.5426
50.5424
50.5422
50.542
50.5419
50.5418
50.5417
50.5416
50.5414
50.5414
50.5413
50.5412
50.5411
50.5411
50.541
50.541
50.5409
50.5409
50.5408
50.5408
50.5408
50.5408
50.5407
50.5407
50.5407
50.5407
50.5407
50.5407
50.5407
50.5407
50.5407
50.5407
50.5407
50.5407
50.5407
50.5407
50.5407
50.5407
50.5407
50.5407
50.5407
50.5407
50.5408
50.5408
50.5408
50.5408
50.5408
50.5408
50.5408
50.5408
50.5408
50.5408
50.5408
50.5408
50.5408
50.5408
50.5409
50.5409
50.5409
50.5409
50.5409
50.5409
50.541
50.541
50.541
50.541
50.5411
50.5411
50.5412
50.5412
50.5413
50.5414
50.5414
50.5415
50.5417
50.5418
50.542
50.5421
50.5424
50.5426
50.5429
50.5432
50.5436
50.544
50.5444
50.545
50.5455
50.5462
50.5469
50.5477
50.5486
50.5496
50.5507
50.5519
50.5531
50.5545
50.5559
50.5574
50.559
50.5607
50.5623
50.5641
50.5658
50.5676
50.5692
50.5711
50.5725
50.576
50.5699
50.545
50.545
50.545
50.5449
50.5449
50.5451
50.5455
50.5461
50.5467
50.5472
50.5478
50.5484
50.549
50.5498
50.5506
50.5515
50.5525
50.5536
50.5548
50.5562
50.5576
50.5591
50.5607
50.5623
50.5641
50.5661
50.5683
50.5706
50.5729
50.5753
50.5777
50.5801
50.5823
50.5846
50.5867
50.5888
50.5907
50.5924
50.594
50.5954
50.5966
50.5976
50.5984
50.5988
50.5991
50.599
50.5988
50.5982
50.5974
50.5964
50.5951
50.5936
50.592
50.5902
50.5882
50.5861
50.5839
50.5817
50.5794
50.5771
50.5748
50.5725
50.5703
50.5682
50.5661
50.5641
50.5622
50.5604
50.5587
50.5572
50.5557
50.5544
50.5531
50.552
50.5509
50.55
50.5491
50.5483
50.5476
50.5469
50.5463
50.5458
50.5453
50.5449
50.5445
50.5441
50.5438
50.5435
50.5432
50.543
50.5428
50.5426
50.5424
50.5422
50.542
50.5419
50.5418
50.5417
50.5416
50.5414
50.5414
50.5413
50.5412
50.5411
50.5411
50.541
50.541
50.5409
50.5409
50.5408
50.5408
50.5408
50.5408
50.5407
50.5407
50.5407
50.5407
50.5407
50.5407
50.5407
50.5407
50.5407
50.5407
50.5407
50.5407
50.5407
50.5407
50.5407
50.5407
50.5407
50.5407
50.5407
50.5407
50.5408
50.5408
50.5408
50.5408
50.5408
50.5408
50.5408
50.5408
50.5408
50.5408
50.5408
50.5408
50.5408
50.5408
50.5409
50.5409
50.5409
50.5409
50.5409
50.5409
50.541
50.541
50.541
50.541
50.5411
50.5411
50.5412
50.5412
50.5413
50.5414
50.5414
50.5415
50.5417
50.5418
50.542
50.5421
50.5424
50.5426
50.5429
50.5432
50.5436
50.544
50.5444
50.5449
50.5455
50.5462
50.5469
50.5477
50.5486
50.5496
50.5507
50.5519
50.5531
50.5545
50.5559
50.5574
50.559
50.5606
50.5623
50.564
50.5658
50.5675
50.5693
50.5709
50.5723
50.5733
50.5732
50.545
50.545
50.545
50.5449
50.5449
50.5451
50.5455
50.5461
50.5467
50.5472
50.5478
50.5484
50.549
50.5498
50.5506
50.5515
50.5525
50.5536
50.5548
50.5562
50.5576
50.5591
50.5607
50.5623
50.5641
50.5661
50.5683
50.5706
50.5729
50.5753
50.5777
50.5801
50.5823
50.5846
50.5867
50.5888
50.5907
50.5924
50.594
50.5954
50.5966
50.5976
50.5984
50.5988
50.5991
50.599
50.5988
50.5982
50.5974
50.5964
50.5951
50.5936
50.592
50.5902
50.5882
50.5861
50.5839
50.5817
50.5794
50.5771
50.5748
50.5725
50.5703
50.5682
50.5661
50.5641
50.5622
50.5604
50.5587
50.5572
50.5557
50.5544
50.5531
50.552
50.5509
50.55
50.5491
50.5483
50.5476
50.5469
50.5463
50.5458
50.5453
50.5449
50.5445
50.5441
50.5438
50.5435
50.5432
50.543
50.5428
50.5426
50.5424
50.5422
50.542
50.5419
50.5418
50.5417
50.5416
50.5414
50.5414
50.5413
50.5412
50.5411
50.5411
50.541
50.541
50.5409
50.5409
50.5408
50.5408
50.5408
50.5408
50.5407
50.5407
50.5407
50.5407
50.5407
50.5407
50.5407
50.5407
50.5407
50.5407
50.5407
50.5407
50.5407
50.5407
50.5407
50.5407
50.5407
50.5407
50.5407
50.5407
50.5408
50.5408
50.5408
50.5408
50.5408
50.5408
50.5408
50.5408
50.5408
50.5408
50.5408
50.5408
50.5408
50.5408
50.5409
50.5409
50.5409
50.5409
50.5409
50.5409
50.541
50.541
50.541
50.541
50.5411
50.5411
50.5412
50.5412
50.5413
50.5414
50.5414
50.5415
50.5417
50.5418
50.542
50.5421
50.5424
50.5426
50.5429
50.5432
50.5436
50.544
50.5444
50.5449
50.5455
50.5462
50.5469
50.5477
50.5486
50.5496
50.5507
50.5519
50.5531
50.5545
50.5559
50.5574
50.559
50.5606
50.5623
50.5641
50.5658
50.5675
50.5693
50.5707
50.5723
50.5705
50.5837
50.545
50.545
50.545
50.5449
50.5449
50.5452
50.5455
50.5461
50.5467
50.5472
50.5478
50.5484
50.549
50.5498
50.5506
50.5515
50.5525
50.5536
50.5548
50.5562
50.5576
50.5591
50.5607
50.5623
50.5641
50.5661
50.5683
50.5706
50.5729
50.5753
50.5777
50.5801
50.5823
50.5846
50.5867
50.5888
50.5907
50.5924
50.594
50.5955
50.5966
50.5976
50.5984
50.5988
50.5991
50.599
50.5988
50.5982
50.5974
50.5964
50.5951
50.5936
50.592
50.5902
50.5882
50.5861
50.5839
50.5817
50.5794
50.5771
50.5748
50.5725
50.5703
50.5682
50.5661
50.5641
50.5622
50.5604
50.5587
50.5572
50.5557
50.5544
50.5531
50.552
50.5509
50.55
50.5491
50.5483
50.5476
50.5469
50.5463
50.5458
50.5453
50.5449
50.5445
50.5441
50.5438
50.5435
50.5432
50.543
50.5428
50.5426
50.5424
50.5422
50.542
50.5419
50.5418
50.5417
50.5416
50.5414
50.5414
50.5413
50.5412
50.5411
50.5411
50.541
50.541
50.5409
50.5409
50.5408
50.5408
50.5408
50.5408
50.5407
50.5407
50.5407
50.5407
50.5407
50.5407
50.5407
50.5407
50.5407
50.5407
50.5407
50.5407
50.5407
50.5407
50.5407
50.5407
50.5407
50.5407
50.5407
50.5407
50.5408
50.5408
50.5408
50.5408
50.5408
50.5408
50.5408
50.5408
50.5408
50.5408
50.5408
50.5408
50.5408
50.5408
50.5409
50.5409
50.5409
50.5409
50.5409
50.5409
50.541
50.541
50.541
50.541
50.5411
50.5411
50.5412
50.5412
50.5413
50.5414
50.5414
50.5415
50.5417
50.5418
50.542
50.5421
50.5424
50.5426
50.5429
50.5432
50.5436
50.544
50.5444
50.5449
50.5455
50.5462
50.5469
50.5477
50.5486
50.5496
50.5507
50.5519
50.5531
50.5545
50.5559
50.5574
50.559
50.5606
50.5623
50.564
50.5658
50.5675
50.5693
50.5706
50.5727
50.5674
50.6123
50.545
50.545
50.545
50.5449
50.5449
50.5452
50.5455
50.5461
50.5467
50.5472
50.5478
50.5484
50.549
50.5498
50.5506
50.5515
50.5525
50.5536
50.5548
50.5562
50.5576
50.5591
50.5607
50.5623
50.5641
50.5661
50.5683
50.5706
50.5729
50.5753
50.5777
50.5801
50.5823
50.5846
50.5867
50.5888
50.5907
50.5924
50.594
50.5955
50.5966
50.5976
50.5984
50.5988
50.5991
50.599
50.5988
50.5982
50.5974
50.5964
50.5951
50.5936
50.592
50.5902
50.5882
50.5861
50.5839
50.5817
50.5794
50.5771
50.5748
50.5725
50.5703
50.5682
50.5661
50.5641
50.5622
50.5604
50.5587
50.5572
50.5557
50.5544
50.5531
50.552
50.5509
50.55
50.5491
50.5483
50.5476
50.5469
50.5463
50.5458
50.5453
50.5449
50.5445
50.5441
50.5438
50.5435
50.5432
50.543
50.5428
50.5426
50.5424
50.5422
50.542
50.5419
50.5418
50.5417
50.5416
50.5414
50.5414
50.5413
50.5412
50.5411
50.5411
50.541
50.541
50.5409
50.5409
50.5408
50.5408
50.5408
50.5408
50.5407
50.5407
50.5407
50.5407
50.5407
50.5407
50.5407
50.5407
50.5407
50.5407
50.5407
50.5407
50.5407
50.5407
50.5407
50.5407
50.5407
50.5407
50.5407
50.5407
50.5408
50.5408
50.5408
50.5408
50.5408
50.5408
50.5408
50.5408
50.5408
50.5408
50.5408
50.5408
50.5408
50.5408
50.5409
50.5409
50.5409
50.5409
50.5409
50.5409
50.541
50.541
50.541
50.541
50.5411
50.5411
50.5412
50.5412
50.5413
50.5414
50.5414
50.5415
50.5417
50.5418
50.542
50.5421
50.5424
50.5426
50.5429
50.5432
50.5436
50.544
50.5444
50.5449
50.5455
50.5462
50.5469
50.5477
50.5486
50.5496
50.5507
50.5519
50.5531
50.5545
50.5559
50.5574
50.559
50.5606
50.5624
50.564
50.5658
50.5675
50.5693
50.5706
50.5729
50.5656
50.6274
50.5445
50.5445
50.5444
50.5443
50.5444
50.5446
50.545
50.5456
50.5462
50.5467
50.5473
50.5479
50.5485
50.5493
50.5501
50.551
50.552
50.5531
50.5544
50.5557
50.5571
50.5586
50.5602
50.5619
50.5637
50.5657
50.5678
50.5701
50.5725
50.5749
50.5773
50.5796
50.5819
50.5841
50.5863
50.5883
50.5903
50.592
50.5936
50.595
50.5962
50.5972
50.598
50.5984
50.5987
50.5987
50.5984
50.5978
50.597
50.596
50.5948
50.5933
50.5916
50.5898
50.5878
50.5858
50.5836
50.5813
50.579
50.5767
50.5744
50.5722
50.57
50.5678
50.5657
50.5637
50.5618
50.5601
50.5584
50.5568
50.5553
50.554
50.5527
50.5516
50.5506
50.5496
50.5487
50.5479
50.5472
50.5466
50.546
50.5454
50.545
50.5445
50.5441
50.5438
50.5434
50.5431
50.5429
50.5426
50.5424
50.5422
50.542
50.5418
50.5417
50.5415
50.5414
50.5413
50.5412
50.5411
50.541
50.5409
50.5408
50.5408
50.5407
50.5407
50.5406
50.5406
50.5405
50.5405
50.5405
50.5404
50.5404
50.5404
50.5404
50.5403
50.5403
50.5403
50.5403
50.5403
50.5403
50.5403
50.5403
50.5403
50.5403
50.5403
50.5403
50.5403
50.5404
50.5404
50.5404
50.5404
50.5404
50.5404
50.5404
50.5404
50.5404
50.5404
50.5404
50.5404
50.5404
50.5404
50.5404
50.5405
50.5405
50.5405
50.5405
50.5405
50.5405
50.5405
50.5405
50.5405
50.5406
50.5406
50.5406
50.5406
50.5407
50.5407
50.5407
50.5408
50.5409
50.5409
50.541
50.5411
50.5412
50.5413
50.5414
50.5416
50.5418
50.542
50.5422
50.5425
50.5428
50.5432
50.5436
50.5441
50.5446
50.5452
50.5458
50.5466
50.5474
50.5483
50.5493
50.5504
50.5515
50.5528
50.5541
50.5556
50.5571
50.5587
50.5603
50.562
50.5637
50.5655
50.5671
50.5689
50.5702
50.5727
50.5637
50.6406
50.6642
50.7029
50.7158
50.7178
50.7175
50.7174
50.7171
50.7161
50.7147
50.7132
50.7116
50.7098
50.7077
50.7054
50.7024
50.6986
50.6934
50.6863
50.6764
50.6609
50.6586
50.6928
50.7064
50.7089
50.709
50.7092
50.7092
50.7085
50.7073
50.7061
50.7046
50.7031
50.7012
50.699
50.696
50.6923
50.687
50.68
50.6698
50.6543
50.6533
50.6878
50.7032
50.7067
50.707
50.7072
50.707
50.7062
50.705
50.7036
50.702
50.7004
50.6983
50.6961
50.6931
50.6894
50.6839
50.6764
50.6655
50.6487
50.6354
50.6548
50.661
50.6606
50.6596
50.6589
50.6581
50.6568
50.6552
50.6535
50.6518
50.6498
50.6476
50.6448
50.6414
50.6372
50.6323
50.6253
50.6157
50.6023
50.6053
50.6178
50.6272
50.634
50.6389
50.6419
50.6434
50.6442
50.6441
50.6437
50.6427
50.641
50.6389
50.636
50.6323
50.6275
50.6211
50.6138
50.6053
50.5952
50.5536
50.5442
50.5341
50.5238
50.5142
50.5063
50.5004
50.4956
50.4916
50.4884
50.4859
50.4841
50.4826
50.4815
50.4802
50.4793
50.4789
50.4798
50.4809
50.4848
50.4968
50.4763
50.4694
50.4705
50.4722
50.4733
50.4739
50.4749
50.4754
50.4762
50.4763
50.4767
50.4765
50.4766
50.4766
50.4777
50.479
50.4823
50.4883
50.499
50.4288
50.3731
50.3308
50.3024
50.283
50.2682
50.2567
50.2484
50.243
50.2397
50.2383
50.2386
50.2407
50.245
50.2531
50.2633
50.2788
50.2964
50.3219
50.3529
50.4145
50.3541
50.3165
50.2953
50.2811
50.2705
50.262
50.2565
50.2532
50.2524
50.2528
50.2549
50.2584
50.264
50.2724
50.2837
50.2983
50.3159
50.3392
50.3686
50.3965
50.3119
50.2648
50.2371
50.2188
50.2031
50.1904
50.181
50.1757
50.1708
50.1691
50.1683
50.1707
50.1744
50.1824
50.1937
50.2088
50.2285
50.2542
50.2892
50.5938
50.5552
50.545
50.5422
50.5414
50.5414
50.5414
50.5414
50.5412
50.5411
50.5409
50.5407
50.5404
50.5399
50.5394
50.5389
50.5384
50.5379
50.5374
50.5369
50.5365
50.5361
50.5358
50.5355
50.5352
50.535
50.5348
50.5347
50.5346
50.5345
50.5346
50.5347
50.5349
50.5351
50.5354
50.5357
50.536
50.5363
50.5367
50.5371
50.5375
50.5379
50.5383
50.5387
50.5392
50.5397
50.5407
50.5416
50.5424
50.5433
50.544
50.5443
50.5443
50.544
50.5428
50.5378
50.5183
50.46
50.3828
50.3157
50.2648
50.2324
50.2171
50.2134
50.2169
50.2446
50.3209
50.3975
50.4563
50.4973
50.5229
50.5369
50.5429
50.5441
50.5431
50.541
50.537
50.5335
50.5308
50.5286
50.5268
50.5253
50.5239
50.5227
50.5216
50.5206
50.5196
50.5187
50.5178
50.517
50.5163
50.5156
50.5149
50.5143
50.5137
50.5132
50.5127
50.5122
50.5118
50.5114
50.511
50.5106
50.5103
50.51
50.5097
50.5095
50.5092
50.509
50.5088
50.5086
50.5085
50.5083
50.5082
50.5081
50.508
50.5079
50.5078
50.5077
50.5076
50.5076
50.5075
50.5074
50.5074
50.5074
50.5073
50.5073
50.5073
50.5072
50.5072
50.5072
50.5072
50.5072
50.5072
50.5072
50.5071
50.5071
50.5071
50.5071
50.5071
50.5071
50.5071
50.5071
50.5071
50.5071
50.5071
50.5071
50.5071
50.5071
50.5071
50.5071
50.5071
50.5071
50.5071
50.507
50.507
50.507
50.507
50.507
50.507
50.507
50.507
50.507
50.507
50.5069
50.5069
50.5069
50.5069
50.5069
50.5069
50.5069
50.5069
50.5069
50.5069
50.5069
50.5068
50.5068
50.5068
50.5068
50.5068
50.5068
50.5068
50.5068
50.5068
50.5068
50.5068
50.5068
50.5069
50.5069
50.5069
50.5069
50.5069
50.5069
50.5069
50.5069
50.5069
50.5068
50.5065
50.5067
50.4969
50.5503
50.5936
50.5575
50.5477
50.545
50.5444
50.5443
50.5445
50.5445
50.5443
50.5441
50.5439
50.5437
50.5434
50.543
50.5425
50.542
50.5415
50.5409
50.5404
50.54
50.5396
50.5392
50.5388
50.5386
50.5383
50.5381
50.538
50.5378
50.5377
50.5377
50.5377
50.5378
50.538
50.5382
50.5385
50.5388
50.5391
50.5395
50.5398
50.5402
50.5405
50.5409
50.5413
50.5418
50.5423
50.5428
50.5432
50.5438
50.5442
50.5445
50.5447
50.5453
50.5466
50.5494
50.5525
50.5558
50.5587
50.5607
50.5615
50.5611
50.56
50.556
50.5434
50.525
50.5098
50.4994
50.4939
50.4918
50.4914
50.4952
50.506
50.5156
50.5225
50.5268
50.5293
50.5303
50.5304
50.5298
50.5289
50.5278
50.5267
50.5254
50.5242
50.523
50.5219
50.5209
50.5199
50.519
50.5182
50.5174
50.5166
50.5159
50.5153
50.5147
50.5141
50.5136
50.513
50.5126
50.5121
50.5117
50.5113
50.511
50.5107
50.5104
50.5101
50.5098
50.5096
50.5094
50.5092
50.509
50.5088
50.5087
50.5086
50.5084
50.5083
50.5082
50.5081
50.5081
50.508
50.5079
50.5079
50.5078
50.5078
50.5077
50.5077
50.5077
50.5076
50.5076
50.5076
50.5076
50.5076
50.5075
50.5075
50.5075
50.5075
50.5075
50.5075
50.5075
50.5075
50.5075
50.5075
50.5075
50.5075
50.5075
50.5075
50.5075
50.5074
50.5074
50.5074
50.5074
50.5074
50.5074
50.5074
50.5074
50.5074
50.5074
50.5074
50.5074
50.5074
50.5074
50.5073
50.5073
50.5073
50.5073
50.5073
50.5073
50.5073
50.5073
50.5073
50.5072
50.5072
50.5072
50.5072
50.5072
50.5072
50.5072
50.5072
50.5072
50.5072
50.5072
50.5072
50.5072
50.5072
50.5072
50.5072
50.5072
50.5072
50.5072
50.5072
50.5072
50.5072
50.5072
50.5073
50.5073
50.5072
50.5072
50.5068
50.507
50.4984
50.541
50.5935
50.5586
50.5481
50.545
50.544
50.5438
50.5438
50.5438
50.5436
50.5434
50.5432
50.543
50.5427
50.5423
50.5418
50.5413
50.5408
50.5403
50.5398
50.5393
50.5389
50.5385
50.5381
50.5378
50.5376
50.5374
50.5372
50.5371
50.537
50.537
50.537
50.5371
50.5373
50.5375
50.5378
50.5381
50.5384
50.5387
50.5391
50.5394
50.5398
50.5402
50.5406
50.5409
50.5413
50.5417
50.5422
50.5428
50.5433
50.5438
50.5442
50.5443
50.5444
50.5447
50.5456
50.5491
50.5577
50.5666
50.5739
50.5787
50.5809
50.5811
50.5801
50.5773
50.5679
50.551
50.5368
50.5267
50.521
50.5183
50.5172
50.5175
50.5211
50.5248
50.5272
50.5286
50.529
50.5288
50.5282
50.5273
50.5263
50.5252
50.524
50.5229
50.5218
50.5208
50.5199
50.519
50.5182
50.5174
50.5166
50.5159
50.5153
50.5147
50.5141
50.5135
50.513
50.5126
50.5121
50.5117
50.5113
50.511
50.5107
50.5104
50.5101
50.5098
50.5096
50.5094
50.5092
50.509
50.5088
50.5087
50.5086
50.5084
50.5083
50.5082
50.5081
50.5081
50.508
50.5079
50.5079
50.5078
50.5078
50.5077
50.5077
50.5077
50.5076
50.5076
50.5076
50.5076
50.5076
50.5075
50.5075
50.5075
50.5075
50.5075
50.5075
50.5075
50.5075
50.5075
50.5075
50.5075
50.5075
50.5075
50.5075
50.5075
50.5074
50.5074
50.5074
50.5074
50.5074
50.5074
50.5074
50.5074
50.5074
50.5074
50.5074
50.5074
50.5074
50.5074
50.5073
50.5073
50.5073
50.5073
50.5073
50.5073
50.5073
50.5073
50.5073
50.5072
50.5072
50.5072
50.5072
50.5072
50.5072
50.5072
50.5072
50.5072
50.5072
50.5072
50.5072
50.5072
50.5072
50.5072
50.5072
50.5072
50.5072
50.5072
50.5072
50.5072
50.5072
50.5072
50.5073
50.5073
50.5072
50.5072
50.5068
50.5068
50.4998
50.5273
50.564
50.5404
50.5342
50.5343
50.5352
50.5359
50.5362
50.5364
50.5364
50.5362
50.536
50.5357
50.5354
50.535
50.5346
50.5342
50.5337
50.5331
50.5326
50.5321
50.5317
50.5313
50.531
50.5307
50.5304
50.5302
50.5301
50.5299
50.5299
50.5298
50.5299
50.53
50.5301
50.5304
50.5306
50.5309
50.5312
50.5316
50.532
50.5324
50.5328
50.5332
50.5336
50.5341
50.5346
50.5353
50.536
50.5366
50.5372
50.5377
50.5381
50.5383
50.5385
50.5389
50.5404
50.5444
50.549
50.5529
50.5559
50.5577
50.5582
50.5578
50.5568
50.5545
50.549
50.5429
50.5382
50.5349
50.5328
50.5315
50.5304
50.5301
50.5306
50.5308
50.5307
50.5303
50.5296
50.5287
50.5277
50.5267
50.5256
50.5245
50.5235
50.5225
50.5215
50.5206
50.5197
50.5188
50.5181
50.5173
50.5166
50.5159
50.5152
50.5146
50.5141
50.5135
50.513
50.5126
50.5121
50.5117
50.5113
50.511
50.5107
50.5104
50.5101
50.5098
50.5096
50.5094
50.5092
50.509
50.5088
50.5087
50.5086
50.5084
50.5083
50.5082
50.5081
50.5081
50.508
50.5079
50.5079
50.5078
50.5078
50.5077
50.5077
50.5077
50.5076
50.5076
50.5076
50.5076
50.5076
50.5075
50.5075
50.5075
50.5075
50.5075
50.5075
50.5075
50.5075
50.5075
50.5075
50.5075
50.5075
50.5075
50.5075
50.5075
50.5074
50.5074
50.5074
50.5074
50.5074
50.5074
50.5074
50.5074
50.5074
50.5074
50.5074
50.5074
50.5074
50.5074
50.5073
50.5073
50.5073
50.5073
50.5073
50.5073
50.5073
50.5073
50.5073
50.5072
50.5072
50.5072
50.5072
50.5072
50.5072
50.5072
50.5072
50.5072
50.5072
50.5072
50.5072
50.5072
50.5072
50.5072
50.5072
50.5072
50.5072
50.5072
50.5072
50.5072
50.5072
50.5072
50.5073
50.5073
50.5072
50.5072
50.5069
50.5061
50.5018
50.5042
50.5712
50.5618
50.5565
50.5516
50.5483
50.5467
50.546
50.5458
50.5455
50.5453
50.545
50.5446
50.5442
50.5438
50.5434
50.543
50.5425
50.542
50.5415
50.541
50.5406
50.5402
50.5398
50.5395
50.5392
50.539
50.5388
50.5387
50.5387
50.5387
50.5387
50.5388
50.5389
50.5391
50.5394
50.5397
50.54
50.5403
50.5406
50.541
50.5413
50.5416
50.542
50.5422
50.5424
50.5426
50.5428
50.5431
50.5434
50.5436
50.5437
50.5436
50.5434
50.5431
50.5427
50.5424
50.5422
50.5425
50.5436
50.5446
50.5453
50.5455
50.5451
50.5443
50.5432
50.5419
50.5403
50.539
50.5378
50.5366
50.5355
50.5346
50.5337
50.5327
50.5317
50.5307
50.5296
50.5285
50.5274
50.5263
50.5253
50.5242
50.5232
50.5223
50.5213
50.5205
50.5196
50.5188
50.518
50.5173
50.5165
50.5159
50.5152
50.5146
50.5141
50.5135
50.513
50.5126
50.5121
50.5117
50.5113
50.511
50.5107
50.5104
50.5101
50.5098
50.5096
50.5094
50.5092
50.509
50.5088
50.5087
50.5086
50.5084
50.5083
50.5082
50.5081
50.5081
50.508
50.5079
50.5079
50.5078
50.5078
50.5077
50.5077
50.5077
50.5076
50.5076
50.5076
50.5076
50.5076
50.5075
50.5075
50.5075
50.5075
50.5075
50.5075
50.5075
50.5075
50.5075
50.5075
50.5075
50.5075
50.5075
50.5075
50.5075
50.5074
50.5074
50.5074
50.5074
50.5074
50.5074
50.5074
50.5074
50.5074
50.5074
50.5074
50.5074
50.5074
50.5074
50.5073
50.5073
50.5073
50.5073
50.5073
50.5073
50.5073
50.5073
50.5073
50.5072
50.5072
50.5072
50.5072
50.5072
50.5072
50.5072
50.5072
50.5072
50.5072
50.5072
50.5072
50.5072
50.5072
50.5072
50.5072
50.5072
50.5072
50.5072
50.5072
50.5072
50.5072
50.5072
50.5073
50.5073
50.5073
50.5072
50.5072
50.5068
50.5058
50.502
50.4928
50.5035
50.5099
50.5151
50.5185
50.5203
50.5211
50.5214
50.5216
50.5215
50.5213
50.521
50.5206
50.5202
50.5198
50.5193
50.5189
50.5185
50.5181
50.5176
50.5172
50.5167
50.5163
50.516
50.5157
50.5154
50.5152
50.5151
50.5151
50.5152
50.5153
50.5155
50.5157
50.516
50.5164
50.5167
50.5172
50.5177
50.5183
50.519
50.5196
50.5203
50.521
50.5217
50.5226
50.5235
50.5246
50.5254
50.5262
50.5269
50.5274
50.5276
50.5279
50.5285
50.5302
50.5332
50.5368
50.5401
50.5429
50.545
50.5465
50.5473
50.5473
50.5466
50.5456
50.5443
50.5422
50.54
50.5381
50.5365
50.5351
50.5338
50.5326
50.5314
50.5303
50.5293
50.5283
50.5273
50.5263
50.5254
50.5245
50.5236
50.5227
50.5219
50.521
50.5202
50.5194
50.5186
50.5179
50.5172
50.5165
50.5158
50.5152
50.5146
50.514
50.5135
50.513
50.5126
50.5121
50.5117
50.5113
50.511
50.5107
50.5104
50.5101
50.5098
50.5096
50.5094
50.5092
50.509
50.5088
50.5087
50.5086
50.5084
50.5083
50.5082
50.5081
50.5081
50.508
50.5079
50.5079
50.5078
50.5078
50.5077
50.5077
50.5077
50.5076
50.5076
50.5076
50.5076
50.5076
50.5075
50.5075
50.5075
50.5075
50.5075
50.5075
50.5075
50.5075
50.5075
50.5075
50.5075
50.5075
50.5075
50.5075
50.5075
50.5074
50.5074
50.5074
50.5074
50.5074
50.5074
50.5074
50.5074
50.5074
50.5074
50.5074
50.5074
50.5074
50.5074
50.5073
50.5073
50.5073
50.5073
50.5073
50.5073
50.5073
50.5073
50.5073
50.5072
50.5072
50.5072
50.5072
50.5072
50.5072
50.5072
50.5072
50.5072
50.5072
50.5072
50.5072
50.5072
50.5072
50.5072
50.5072
50.5072
50.5072
50.5072
50.5072
50.5072
50.5072
50.5072
50.5073
50.5073
50.5073
50.5073
50.5074
50.5076
50.5095
50.5056
50.5348
50.5571
50.5602
50.5587
50.5575
50.557
50.5569
50.5567
50.5565
50.5561
50.5558
50.5554
50.555
50.5546
50.5542
50.5537
50.5532
50.5527
50.5523
50.5518
50.5514
50.551
50.5507
50.5504
50.5502
50.55
50.5498
50.5496
50.5496
50.5495
50.5495
50.5496
50.5497
50.55
50.5503
50.5506
50.5509
50.5513
50.5517
50.5521
50.5525
50.5529
50.5531
50.5533
50.5536
50.5539
50.5541
50.5543
50.5543
50.5541
50.554
50.5539
50.5537
50.5534
50.5526
50.5511
50.5497
50.5488
50.5481
50.5477
50.548
50.5503
50.5528
50.5541
50.5542
50.5534
50.5521
50.5495
50.5455
50.5418
50.5387
50.5362
50.5341
50.5324
50.5309
50.5296
50.5284
50.5272
50.5262
50.5253
50.5244
50.5235
50.5227
50.5218
50.521
50.5202
50.5194
50.5186
50.5179
50.5172
50.5165
50.5158
50.5152
50.5146
50.514
50.5135
50.513
50.5126
50.5121
50.5117
50.5113
50.511
50.5107
50.5104
50.5101
50.5098
50.5096
50.5094
50.5092
50.509
50.5088
50.5087
50.5086
50.5084
50.5083
50.5082
50.5081
50.5081
50.508
50.5079
50.5079
50.5078
50.5078
50.5077
50.5077
50.5077
50.5076
50.5076
50.5076
50.5076
50.5076
50.5075
50.5075
50.5075
50.5075
50.5075
50.5075
50.5075
50.5075
50.5075
50.5075
50.5075
50.5075
50.5075
50.5075
50.5075
50.5074
50.5074
50.5074
50.5074
50.5074
50.5074
50.5074
50.5074
50.5074
50.5074
50.5074
50.5074
50.5074
50.5074
50.5073
50.5073
50.5073
50.5073
50.5073
50.5073
50.5073
50.5073
50.5073
50.5072
50.5072
50.5072
50.5072
50.5072
50.5072
50.5072
50.5072
50.5072
50.5072
50.5072
50.5072
50.5072
50.5072
50.5072
50.5072
50.5072
50.5072
50.5072
50.5072
50.5072
50.5072
50.5072
50.5073
50.5073
50.5073
50.5074
50.5076
50.5085
50.5124
50.5118
50.4601
50.5048
50.5166
50.5206
50.5218
50.5222
50.5224
50.5225
50.5224
50.5222
50.522
50.5216
50.5212
50.5208
50.5203
50.5199
50.5195
50.5191
50.5187
50.5183
50.518
50.5176
50.5172
50.5168
50.5164
50.5161
50.5159
50.5158
50.5158
50.5159
50.5161
50.5163
50.5165
50.5167
50.5169
50.5171
50.5173
50.5175
50.5178
50.5182
50.5186
50.519
50.5197
50.5206
50.5214
50.5221
50.5228
50.5232
50.5235
50.5238
50.524
50.5242
50.5244
50.525
50.527
50.5316
50.5367
50.5413
50.5452
50.5481
50.5501
50.5513
50.5516
50.5511
50.5501
50.5487
50.5461
50.5429
50.54
50.5375
50.5354
50.5336
50.5321
50.5308
50.5296
50.5284
50.5274
50.5266
50.5257
50.5249
50.5241
50.5233
50.5224
50.5216
50.5208
50.5201
50.5193