/*--------------------------------*- C++ -*----------------------------------*\
| =========                 |                                                 |
| \\      /  F ield         | OpenFOAM: The Open Source CFD Toolbox           |
|  \\    /   O peration     | Version:  3.0.x                                 |
|   \\  /    A nd           | Web:      www.OpenFOAM.org                      |
|    \\/     M anipulation  |                                                 |
\*---------------------------------------------------------------------------*/
FoamFile
{
    version     2.0;
    format      ascii;
    class       volVectorField;
    location    "0.55";
    object      U;
}
// * * * * * * * * * * * * * * * * * * * * * * * * * * * * * * * * * * * * * //

dimensions      [0 1 -1 0 0 0 0];

internalField   nonuniform List<vector> 
1000
(
(50 0 0)
(50 0 0)
(50 0 0)
(50 0 0)
(50 0 0)
(50 0 0)
(50 0 0)
(50 0 0)
(50 0 0)
(50 0 0)
(50 0 0)
(50 0 0)
(50 0 0)
(50 0 0)
(50 0 0)
(50 0 0)
(50 0 0)
(50 0 0)
(50 0 0)
(50 0 0)
(50 0 0)
(50 0 0)
(50 0 0)
(50 0 0)
(50 0 0)
(50 0 0)
(50 0 0)
(50 0 0)
(50 0 0)
(50 0 0)
(50 0 0)
(50 0 0)
(50 0 0)
(50 0 0)
(50 0 0)
(50 0 0)
(50 0 0)
(50 0 0)
(50 0 0)
(50 0 0)
(50 0 0)
(50 0 0)
(50 0 0)
(50 0 0)
(50 0 0)
(50 0 0)
(50 0 0)
(50 0 0)
(50 0 0)
(50 0 0)
(50 0 0)
(50 0 0)
(50 0 0)
(50 0 0)
(50 0 0)
(50 0 0)
(50 0 0)
(50 0 0)
(50 0 0)
(50 0 0)
(50 0 0)
(50 0 0)
(50 0 0)
(50 0 0)
(50 0 0)
(50 0 0)
(50 0 0)
(50 0 0)
(50 0 0)
(50 0 0)
(50 0 0)
(50 0 0)
(50 0 0)
(50 0 0)
(50 0 0)
(50 0 0)
(50 0 0)
(50 0 0)
(50 0 0)
(50 0 0)
(50 0 0)
(50 0 0)
(50 0 0)
(50 0 0)
(50 0 0)
(50 0 0)
(50 0 0)
(50 0 0)
(50 0 0)
(50 0 0)
(50 0 0)
(50 0 0)
(50 0 0)
(50 0 0)
(50 0 0)
(50 0 0)
(50 0 0)
(50 0 0)
(50 0 0)
(50 0 0)
(50 0 0)
(50 0 0)
(50 0 0)
(50 0 0)
(50 0 0)
(50 0 0)
(50 0 0)
(50 0 0)
(50 0 0)
(50 0 0)
(50 0 0)
(50 0 0)
(50 0 0)
(50 0 0)
(50 0 0)
(50 0 0)
(50 0 0)
(50 0 0)
(50 0 0)
(50 0 0)
(50 0 0)
(50 0 0)
(50 0 0)
(50 0 0)
(50 0 0)
(50 0 0)
(50 0 0)
(50 0 0)
(50 0 0)
(50 0 0)
(50 0 0)
(50 0 0)
(50 0 0)
(50 0 0)
(50 0 0)
(50 0 0)
(50 0 0)
(50 0 0)
(50 0 0)
(50 0 0)
(50 0 0)
(50 0 0)
(50 0 0)
(50 0 0)
(50 0 0)
(50 0 0)
(50 0 0)
(50 0 0)
(50 0 0)
(50 0 0)
(50 0 0)
(50 0 0)
(50 0 0)
(50 0 0)
(50 0 0)
(50 0 0)
(50 0 0)
(50 0 0)
(50 0 0)
(50 0 0)
(50 0 0)
(50 0 0)
(50 0 0)
(50 0 0)
(50 0 0)
(50 0 0)
(50 0 0)
(50 0 0)
(50 0 0)
(50 0 0)
(50 0 0)
(50 0 0)
(50 0 0)
(50 0 0)
(50 0 0)
(50 0 0)
(50 0 0)
(50 0 0)
(50 0 0)
(50 0 0)
(50 0 0)
(50 0 0)
(50 0 0)
(50 0 0)
(50 0 0)
(50 0 0)
(50 0 0)
(50 0 0)
(50 0 0)
(50 0 0)
(50 0 0)
(50 0 0)
(50 0 0)
(50 0 0)
(50 0 0)
(50 0 0)
(50 0 0)
(50 0 0)
(50 0 0)
(50 0 0)
(50 0 0)
(50 0 0)
(50 0 0)
(50 0 0)
(50 0 0)
(50 0 0)
(50 0 0)
(50 0 0)
(50 0 0)
(50 0 0)
(50 0 0)
(50 0 0)
(50 0 0)
(50 0 0)
(50 0 0)
(50 0 0)
(50 0 0)
(50 0 0)
(50 0 0)
(50 0 0)
(50 0 0)
(50 0 0)
(50 0 0)
(50 0 0)
(50 0 0)
(50 0 0)
(50 0 0)
(50 0 0)
(50 0 0)
(50 0 0)
(50 0 0)
(50 0 0)
(50 0 0)
(50 0 0)
(50 0 0)
(50 0 0)
(50 0 0)
(50 0 0)
(50 0 0)
(50 0 0)
(50 0 0)
(50 0 0)
(50 0 0)
(50 0 0)
(50 0 0)
(50 0 0)
(50 0 0)
(50 0 0)
(50 0 0)
(50 0 0)
(50 0 0)
(50 0 0)
(50 0 0)
(50 0 0)
(50 0 0)
(50 0 0)
(50 0 0)
(50 0 0)
(50 0 0)
(50 0 0)
(50 0 0)
(50 0 0)
(50 0 0)
(50 0 0)
(50 0 0)
(50 0 0)
(50 0 0)
(50 0 0)
(50 0 0)
(50 0 0)
(50 0 0)
(50 0 0)
(50 0 0)
(50 0 0)
(50 0 0)
(50 0 0)
(50 0 0)
(50 0 0)
(50 0 0)
(50 0 0)
(50 0 0)
(50 0 0)
(50 0 0)
(50 0 0)
(50 0 0)
(50 0 0)
(50 0 0)
(50 0 0)
(50 0 0)
(50 0 0)
(50 0 0)
(50 0 0)
(50 0 0)
(50 0 0)
(50 0 0)
(50 0 0)
(50 0 0)
(50 0 0)
(50 0 0)
(50 0 0)
(50 0 0)
(50 0 0)
(50 0 0)
(50 0 0)
(50 0 0)
(50 0 0)
(50 0 0)
(50 0 0)
(50 0 0)
(50 0 0)
(50 0 0)
(50 0 0)
(50 0 0)
(50 0 0)
(50 0 0)
(50 0 0)
(50 0 0)
(50 0 0)
(50 0 0)
(50 0 0)
(50 0 0)
(50 0 0)
(50 0 0)
(50 0 0)
(50 0 0)
(50 0 0)
(50 0 0)
(50 0 0)
(50 0 0)
(50 0 0)
(50 0 0)
(50 0 0)
(50 0 0)
(50 0 0)
(50 0 0)
(50 0 0)
(50 0 0)
(50 0 0)
(50 0 0)
(50 0 0)
(50 0 0)
(50 0 0)
(50 0 0)
(50 0 0)
(50 0 0)
(50 0 0)
(50 0 0)
(50 0 0)
(50 0 0)
(50 0 0)
(50 0 0)
(50 0 0)
(50 0 0)
(50 0 0)
(50 0 0)
(50 0 0)
(50 0 0)
(50 0 0)
(50 0 0)
(50 0 0)
(50 0 0)
(50 0 0)
(50 0 0)
(50 0 0)
(50 0 0)
(50 0 0)
(50 0 0)
(50 0 0)
(50 0 0)
(50 0 0)
(50 0 0)
(50 0 0)
(50 0 0)
(50 0 0)
(50 0 0)
(50 0 0)
(50 0 0)
(50 0 0)
(50 0 0)
(50 0 0)
(50 0 0)
(50 0 0)
(50 0 0)
(50 0 0)
(50 0 0)
(50 0 0)
(50 0 0)
(50 0 0)
(50 0 0)
(50 0 0)
(50 0 0)
(50 0 0)
(50 0 0)
(50 0 0)
(50 0 0)
(50 0 0)
(50 0 0)
(50 0 0)
(50 0 0)
(50 0 0)
(50 0 0)
(50 0 0)
(50 0 0)
(50 0 0)
(50 0 0)
(50 0 0)
(50 0 0)
(50 0 0)
(50 0 0)
(50 0 0)
(50 0 0)
(50 0 0)
(50 0 0)
(50 0 0)
(50 0 0)
(50 0 0)
(50 0 0)
(50 0 0)
(50 0 0)
(50 0 0)
(50 0 0)
(50 0 0)
(50 0 0)
(50 0 0)
(50 0 0)
(50 0 0)
(50 0 0)
(50 0 0)
(50 0 0)
(50 0 0)
(50 0 0)
(50 0 0)
(50 0 0)
(50 0 0)
(50 0 0)
(50 0 0)
(50 0 0)
(50 0 0)
(50 0 0)
(50 0 0)
(50 0 0)
(50 0 0)
(50 0 0)
(50 0 0)
(50 0 0)
(50 0 0)
(50 0 0)
(50 0 0)
(50 0 0)
(50 0 0)
(50 0 0)
(50 0 0)
(50 0 0)
(50 0 0)
(50 0 0)
(50 0 0)
(50 0 0)
(50 0 0)
(50 0 0)
(50 0 0)
(50 0 0)
(50 0 0)
(50 0 0)
(50 0 0)
(50 0 0)
(50 0 0)
(50 0 0)
(50 0 0)
(50 0 0)
(50 0 0)
(50 0 0)
(50 0 0)
(50 0 0)
(50 0 0)
(50 0 0)
(50 0 0)
(50 0 0)
(50 0 0)
(50 0 0)
(50 0 0)
(50 0 0)
(50 0 0)
(50 0 0)
(50 0 0)
(50 0 0)
(50 0 0)
(50 0 0)
(50 0 0)
(50 0 0)
(50 0 0)
(50 0 0)
(50 0 0)
(50 0 0)
(50 0 0)
(50 0 0)
(50 0 0)
(50 0 0)
(50 0 0)
(50 0 0)
(50 0 0)
(50 0 0)
(50 0 0)
(50 0 0)
(50 0 0)
(50 0 0)
(50 0 0)
(50 0 0)
(50 0 0)
(50 0 0)
(50 0 0)
(50 0 0)
(50 0 0)
(50 0 0)
(50 0 0)
(50 0 0)
(50 0 0)
(50 0 0)
(50 0 0)
(50 0 0)
(50 0 0)
(50 0 0)
(50 0 0)
(50 0 0)
(50 0 0)
(50 0 0)
(50 0 0)
(50 0 0)
(50 0 0)
(50 0 0)
(50 0 0)
(50 0 0)
(50 0 0)
(50 0 0)
(50 0 0)
(50 0 0)
(50 0 0)
(50 0 0)
(50 0 0)
(50 0 0)
(50 0 0)
(50 0 0)
(50 0 0)
(50 0 0)
(50 0 0)
(50 0 0)
(50 0 0)
(50 0 0)
(50 0 0)
(50 0 0)
(50 0 0)
(50 0 0)
(50 0 0)
(50 0 0)
(50 0 0)
(50 0 0)
(50 0 0)
(50 0 0)
(50 0 0)
(50 0 0)
(50 0 0)
(50 0 0)
(50 0 0)
(50 0 0)
(50 0 0)
(50 0 0)
(50 0 0)
(50 0 0)
(50 0 0)
(50 0 0)
(50 0 0)
(50 0 0)
(50 0 0)
(50 0 0)
(50 0 0)
(50 0 0)
(50 0 0)
(50 0 0)
(50 0 0)
(50 0 0)
(50 0 0)
(50 0 0)
(50 0 0)
(50 0 0)
(50 0 0)
(50 0 0)
(50 0 0)
(50 0 0)
(50 0 0)
(50 0 0)
(50 0 0)
(50 0 0)
(50 0 0)
(50 0 0)
(50 0 0)
(50 0 0)
(50 0 0)
(50 0 0)
(50 0 0)
(50 0 0)
(50 0 0)
(50 0 0)
(50 0 0)
(50 0 0)
(50 0 0)
(50 0 0)
(50 0 0)
(50 0 0)
(50 0 0)
(50 0 0)
(50 0 0)
(50 0 0)
(50 0 0)
(50 0 0)
(50 0 0)
(50 0 0)
(50 0 0)
(50 0 0)
(50 0 0)
(50 0 0)
(50 0 0)
(50 0 0)
(50 0 0)
(50 0 0)
(50 0 0)
(50 0 0)
(50 0 0)
(50 0 0)
(50 0 0)
(50 0 0)
(50 0 0)
(50 0 0)
(50 0 0)
(50 0 0)
(50 0 0)
(50 0 0)
(50 0 0)
(50 0 0)
(50 0 0)
(50 0 0)
(50 0 0)
(50 0 0)
(50 0 0)
(50 0 0)
(50 0 0)
(50 0 0)
(50 0 0)
(50 0 0)
(50 0 0)
(50 0 0)
(50 0 0)
(50 0 0)
(50 0 0)
(50 0 0)
(50 0 0)
(50 0 0)
(50 0 0)
(50 0 0)
(50 0 0)
(50 0 0)
(50 0 0)
(50 0 0)
(50 0 0)
(50 0 0)
(50 0 0)
(50 0 0)
(50 0 0)
(50 0 0)
(50 0 0)
(50 0 0)
(50 0 0)
(50 0 0)
(50 0 0)
(50 0 0)
(50 0 0)
(50 0 0)
(50 0 0)
(50 0 0)
(50 0 0)
(50 0 0)
(50 0 0)
(50 0 0)
(50 0 0)
(50 0 0)
(50 0 0)
(50 0 0)
(50 0 0)
(49.9999 0 0)
(49.9999 0 0)
(49.9999 0 0)
(49.9998 0 0)
(49.9998 0 0)
(49.9997 0 0)
(49.9996 0 0)
(49.9995 0 0)
(49.9993 0 0)
(49.9991 0 0)
(49.9988 0 0)
(49.9984 0 0)
(49.998 0 0)
(49.9974 0 0)
(49.9966 0 0)
(49.9956 0 0)
(49.9943 0 0)
(49.9928 0 0)
(49.9908 0 0)
(49.9883 0 0)
(49.9853 0 0)
(49.9815 0 0)
(49.9769 0 0)
(49.9712 0 0)
(49.9642 0 0)
(49.9558 0 0)
(49.9455 0 0)
(49.9332 0 0)
(49.9185 0 0)
(49.9009 0 0)
(49.88 0 0)
(49.8552 0 0)
(49.826 0 0)
(49.7918 0 0)
(49.7519 0 0)
(49.7055 0 0)
(49.6517 0 0)
(49.5898 0 0)
(49.5187 0 0)
(49.4374 0 0)
(49.3449 0 0)
(49.2401 0 0)
(49.1219 0 0)
(48.989 0 0)
(48.8403 0 0)
(48.6745 0 0)
(48.4906 0 0)
(48.2873 0 0)
(48.0634 0 0)
(47.818 0 0)
(47.55 0 0)
(47.2585 0 0)
(46.9427 0 0)
(46.6018 0 0)
(46.2354 0 0)
(45.843 0 0)
(45.4243 0 0)
(44.9792 0 0)
(44.5078 0 0)
(44.0103 0 0)
(43.487 0 0)
(42.9385 0 0)
(42.3655 0 0)
(41.7688 0 0)
(41.1494 0 0)
(40.5082 0 0)
(39.8465 0 0)
(39.1653 0 0)
(38.4662 0 0)
(37.7502 0 0)
(37.0189 0 0)
(36.2735 0 0)
(35.5154 0 0)
(34.746 0 0)
(33.9667 0 0)
(33.1786 0 0)
(32.3831 0 0)
(31.5814 0 0)
(30.7748 0 0)
(29.9642 0 0)
(29.1509 0 0)
(28.3359 0 0)
(27.5202 0 0)
(26.7048 0 0)
(25.8906 0 0)
(25.0784 0 0)
(24.2692 0 0)
(23.4637 0 0)
(22.6626 0 0)
(21.8668 0 0)
(21.077 0 0)
(20.2938 0 0)
(19.5178 0 0)
(18.7498 0 0)
(17.9902 0 0)
(17.2398 0 0)
(16.4991 0 0)
(15.7686 0 0)
(15.0488 0 0)
(14.3404 0 0)
(13.6439 0 0)
(12.9597 0 0)
(12.2885 0 0)
(11.6306 0 0)
(10.9867 0 0)
(10.3573 0 0)
(9.74283 0 0)
(9.14392 0 0)
(8.56107 0 0)
(7.99483 0 0)
(7.44572 0 0)
(6.91429 0 0)
(6.40105 0 0)
(5.90653 0 0)
(5.43121 0 0)
(4.97557 0 0)
(4.54003 0 0)
(4.12498 0 0)
(3.73075 0 0)
(3.35761 0 0)
(3.00574 0 0)
(2.67524 0 0)
(2.36612 0 0)
(2.07826 0 0)
(1.81148 0 0)
(1.56542 0 0)
(1.33967 0 0)
(1.13367 0 0)
(0.946753 0 0)
(0.778164 0 0)
(0.627057 0 0)
(0.492517 0 0)
(0.373585 0 0)
(0.26928 0 0)
(0.178643 0 0)
(0.100799 0 0)
(0.0351282 0 0)
(-0.0181482 0 0)
(-0.0603571 0 0)
(-0.0944978 0 0)
(-0.122394 0 0)
(-0.145093 0 0)
(-0.163431 0 0)
(-0.178101 0 0)
(-0.189687 0 0)
(-0.1987 0 0)
(-0.205589 0 0)
(-0.210753 0 0)
(-0.214538 0 0)
(-0.217238 0 0)
(-0.219095 0 0)
(-0.220317 0 0)
(-0.22104 0 0)
(-0.221442 0 0)
(-0.221497 0 0)
(-0.22141 0 0)
(-0.221354 0 0)
(-0.221183 0 0)
(-0.220971 0 0)
(-0.220735 0 0)
(-0.220488 0 0)
(-0.220243 0 0)
(-0.22 0 0)
(-0.21978 0 0)
(-0.219527 0 0)
(-0.219365 0 0)
(-0.21928 0 0)
(-0.219132 0 0)
(-0.218995 0 0)
(-0.218863 0 0)
(-0.218737 0 0)
(-0.218617 0 0)
(-0.218502 0 0)
(-0.218391 0 0)
(-0.218283 0 0)
(-0.218178 0 0)
(-0.218077 0 0)
(-0.217978 0 0)
(-0.217884 0 0)
(-0.217794 0 0)
(-0.217708 0 0)
(-0.217627 0 0)
(-0.21755 0 0)
(-0.217478 0 0)
(-0.217411 0 0)
(-0.217347 0 0)
(-0.217288 0 0)
(-0.217232 0 0)
(-0.21718 0 0)
(-0.217129 0 0)
(-0.217079 0 0)
(-0.21703 0 0)
(-0.21698 0 0)
(-0.216929 0 0)
(-0.216877 0 0)
(-0.216825 0 0)
(-0.216772 0 0)
(-0.21672 0 0)
(-0.216669 0 0)
(-0.216619 0 0)
(-0.216571 0 0)
(-0.216526 0 0)
(-0.216482 0 0)
(-0.216441 0 0)
(-0.216401 0 0)
(-0.216364 0 0)
(-0.216329 0 0)
(-0.216295 0 0)
(-0.216264 0 0)
(-0.216233 0 0)
(-0.216204 0 0)
(-0.216177 0 0)
(-0.21615 0 0)
(-0.216126 0 0)
(-0.2161 0 0)
(-0.216077 0 0)
(-0.216056 0 0)
(-0.216023 0 0)
(-0.216005 0 0)
(-0.215995 0 0)
(-0.215977 0 0)
(-0.215962 0 0)
(-0.215947 0 0)
(-0.215933 0 0)
(-0.215918 0 0)
(-0.215904 0 0)
(-0.215889 0 0)
(-0.215874 0 0)
(-0.215859 0 0)
(-0.215844 0 0)
(-0.215828 0 0)
(-0.215812 0 0)
(-0.215796 0 0)
(-0.215779 0 0)
(-0.215762 0 0)
(-0.215745 0 0)
(-0.215727 0 0)
(-0.21571 0 0)
(-0.215692 0 0)
(-0.215674 0 0)
(-0.215656 0 0)
(-0.215639 0 0)
(-0.215622 0 0)
(-0.215605 0 0)
(-0.215588 0 0)
(-0.215572 0 0)
(-0.215556 0 0)
(-0.215541 0 0)
(-0.215526 0 0)
(-0.215512 0 0)
(-0.215498 0 0)
(-0.215485 0 0)
(-0.215472 0 0)
(-0.21546 0 0)
(-0.215448 0 0)
(-0.215436 0 0)
(-0.215425 0 0)
(-0.215414 0 0)
(-0.215403 0 0)
(-0.215393 0 0)
(-0.215384 0 0)
(-0.21537 0 0)
(-0.215369 0 0)
(-0.21535 0 0)
(-0.215341 0 0)
(-0.215346 0 0)
(-0.215333 0 0)
(-0.215329 0 0)
(-0.215322 0 0)
(-0.215315 0 0)
(-0.215308 0 0)
(-0.215302 0 0)
(-0.215295 0 0)
(-0.215288 0 0)
(-0.215282 0 0)
(-0.215275 0 0)
(-0.215269 0 0)
(-0.215263 0 0)
(-0.215257 0 0)
(-0.215251 0 0)
(-0.215246 0 0)
(-0.215241 0 0)
(-0.215236 0 0)
(-0.215231 0 0)
(-0.215227 0 0)
(-0.215223 0 0)
(-0.21522 0 0)
(-0.215217 0 0)
(-0.215215 0 0)
(-0.215213 0 0)
(-0.215212 0 0)
(-0.215211 0 0)
(-0.215214 0 0)
(-0.215201 0 0)
(-0.215236 0 0)
(-0.21519 0 0)
(-0.215203 0 0)
(-0.215243 0 0)
(-0.215205 0 0)
(-0.215228 0 0)
(-0.215222 0 0)
(-0.215225 0 0)
(-0.215226 0 0)
(-0.215227 0 0)
(-0.21522 0 0)
(-0.215257 0 0)
(-0.215097 0 0)
(-0.215625 0 0)
(-0.213338 0 0)
(-0.218989 0 0)
(-0.206908 0 0)
(-0.224405 0 0)
(-0.209012 0 0)
(-0.214688 0 0)
)
;

boundaryField
{
    inlet
    {
        type            fixedValue;
        value           uniform (50 0 0);
    }
    backWall
    {
        type            zeroGradient;
    }
    sides
    {
        type            empty;
    }
}


// ************************************************************************* //
