/*--------------------------------*- C++ -*----------------------------------*\
| =========                 |                                                 |
| \\      /  F ield         | OpenFOAM: The Open Source CFD Toolbox           |
|  \\    /   O peration     | Version:  3.0.x                                 |
|   \\  /    A nd           | Web:      www.OpenFOAM.org                      |
|    \\/     M anipulation  |                                                 |
\*---------------------------------------------------------------------------*/
FoamFile
{
    version     2.0;
    format      ascii;
    class       surfaceScalarField;
    location    "0.85";
    object      phi;
}
// * * * * * * * * * * * * * * * * * * * * * * * * * * * * * * * * * * * * * //

dimensions      [1 0 -1 0 0 0 0];

internalField   nonuniform List<scalar> 
999
(
2523.38
2523.38
2523.38
2523.38
2523.38
2523.38
2523.38
2523.38
2523.38
2523.38
2523.38
2523.38
2523.38
2523.38
2523.38
2523.38
2523.38
2523.38
2523.38
2523.38
2523.38
2523.38
2523.38
2523.38
2523.38
2523.38
2523.38
2523.38
2523.38
2523.38
2523.38
2523.38
2523.38
2523.38
2523.38
2523.38
2523.38
2523.38
2523.38
2523.38
2523.38
2523.38
2523.38
2523.38
2523.38
2523.38
2523.38
2523.38
2523.38
2523.38
2523.38
2523.38
2523.38
2523.38
2523.38
2523.38
2523.38
2523.38
2523.38
2523.38
2523.38
2523.38
2523.38
2523.38
2523.38
2523.38
2523.38
2523.38
2523.38
2523.38
2523.38
2523.38
2523.38
2523.38
2523.38
2523.38
2523.38
2523.38
2523.38
2523.38
2523.38
2523.38
2523.38
2523.38
2523.38
2523.38
2523.38
2523.38
2523.38
2523.38
2523.38
2523.38
2523.38
2523.38
2523.38
2523.38
2523.38
2523.38
2523.38
2523.38
2523.38
2523.38
2523.38
2523.38
2523.38
2523.38
2523.38
2523.38
2523.38
2523.38
2523.38
2523.38
2523.38
2523.38
2523.38
2523.38
2523.38
2523.38
2523.38
2523.38
2523.38
2523.38
2523.38
2523.38
2523.38
2523.38
2523.38
2523.38
2523.38
2523.38
2523.38
2523.38
2523.38
2523.38
2523.38
2523.38
2523.38
2523.38
2523.38
2523.38
2523.38
2523.38
2523.38
2523.38
2523.38
2523.38
2523.38
2523.38
2523.38
2523.38
2523.38
2523.38
2523.38
2523.38
2523.38
2523.38
2523.38
2523.38
2523.38
2523.38
2523.38
2523.38
2523.38
2523.38
2523.38
2523.38
2523.38
2523.38
2523.38
2523.38
2523.38
2523.38
2523.38
2523.38
2523.38
2523.38
2523.38
2523.38
2523.38
2523.38
2523.38
2523.38
2523.38
2523.38
2523.38
2523.38
2523.38
2523.38
2523.38
2523.38
2523.38
2523.38
2523.38
2523.38
2523.38
2523.38
2523.38
2523.38
2523.38
2523.38
2523.38
2523.38
2523.38
2523.38
2523.38
2523.38
2523.38
2523.38
2523.38
2523.38
2523.38
2523.38
2523.38
2523.38
2523.38
2523.38
2523.38
2523.38
2523.38
2523.38
2523.38
2523.38
2523.38
2523.38
2523.38
2523.38
2523.38
2523.38
2523.38
2523.38
2523.38
2523.38
2523.38
2523.38
2523.38
2523.38
2523.38
2523.38
2523.38
2523.38
2523.38
2523.38
2523.38
2523.38
2523.38
2523.38
2523.38
2523.38
2523.38
2523.38
2523.38
2523.38
2523.38
2523.38
2523.38
2523.38
2523.38
2523.38
2523.38
2523.38
2523.38
2523.38
2523.38
2523.38
2523.38
2523.38
2523.38
2523.38
2523.38
2523.38
2523.38
2523.38
2523.38
2523.38
2523.38
2523.38
2523.38
2523.38
2523.38
2523.38
2523.38
2523.38
2523.38
2523.38
2523.38
2523.38
2523.38
2523.38
2523.38
2523.38
2523.38
2523.38
2523.38
2523.38
2523.38
2523.38
2523.38
2523.38
2523.38
2523.38
2523.38
2523.38
2523.38
2523.38
2523.38
2523.38
2523.38
2523.38
2523.38
2523.38
2523.38
2523.38
2523.38
2523.38
2523.38
2523.38
2523.38
2523.38
2523.38
2523.38
2523.38
2523.38
2523.38
2523.38
2523.38
2523.38
2523.38
2523.38
2523.38
2523.38
2523.38
2523.38
2523.38
2523.38
2523.38
2523.38
2523.38
2523.38
2523.38
2523.38
2523.38
2523.38
2523.38
2523.38
2523.38
2523.38
2523.38
2523.38
2523.38
2523.38
2523.38
2523.38
2523.38
2523.38
2523.38
2523.38
2523.38
2523.38
2523.38
2523.38
2523.38
2523.38
2523.38
2523.38
2523.38
2523.38
2523.38
2523.38
2523.38
2523.38
2523.38
2523.38
2523.38
2523.38
2523.38
2523.38
2523.38
2523.38
2523.38
2523.38
2523.38
2523.38
2523.38
2523.38
2523.38
2523.38
2523.38
2523.38
2523.38
2523.38
2523.38
2523.38
2523.38
2523.38
2523.38
2523.38
2523.38
2523.38
2523.38
2523.38
2523.38
2523.38
2523.38
2523.38
2523.38
2523.38
2523.38
2523.38
2523.38
2523.38
2523.38
2523.38
2523.38
2523.38
2523.38
2523.38
2523.38
2523.38
2523.38
2523.38
2523.38
2523.38
2523.38
2523.38
2523.38
2523.38
2523.38
2523.38
2523.38
2523.38
2523.38
2523.38
2523.38
2523.38
2523.38
2523.38
2523.38
2523.38
2523.38
2523.38
2523.38
2523.38
2523.38
2523.38
2523.38
2523.38
2523.38
2523.38
2523.38
2523.38
2523.38
2523.38
2523.38
2523.38
2523.38
2523.38
2523.38
2523.38
2523.38
2523.38
2523.38
2523.38
2523.38
2523.38
2523.38
2523.38
2523.38
2523.38
2523.38
2523.38
2523.38
2523.38
2523.38
2523.38
2523.38
2523.38
2523.38
2523.38
2523.38
2523.38
2523.38
2523.38
2523.38
2523.38
2523.38
2523.38
2523.38
2523.38
2523.38
2523.38
2523.38
2523.38
2523.38
2523.38
2523.38
2523.38
2523.38
2523.38
2523.38
2523.38
2523.38
2523.38
2523.38
2523.38
2523.38
2523.38
2523.38
2523.38
2523.38
2523.38
2523.38
2523.38
2523.38
2523.38
2523.38
2523.38
2523.38
2523.38
2523.38
2523.38
2523.38
2523.38
2523.38
2523.38
2523.38
2523.38
2523.38
2523.38
2523.38
2523.38
2523.38
2523.38
2523.38
2523.37
2523.37
2523.37
2523.36
2523.36
2523.35
2523.34
2523.33
2523.32
2523.3
2523.28
2523.26
2523.23
2523.19
2523.14
2523.09
2523.02
2522.94
2522.84
2522.72
2522.58
2522.41
2522.21
2521.97
2521.69
2521.36
2520.96
2520.5
2519.96
2519.33
2518.59
2517.74
2516.75
2515.61
2514.29
2512.78
2511.06
2509.08
2506.84
2504.29
2501.41
2498.15
2494.48
2490.36
2485.74
2480.58
2474.83
2468.44
2461.35
2453.52
2444.87
2435.37
2424.94
2413.52
2401.06
2387.5
2372.77
2356.83
2339.6
2321.05
2301.12
2279.77
2256.96
2232.65
2206.83
2179.46
2150.55
2120.09
2088.08
2054.55
2019.53
1983.04
1945.15
1905.89
1865.35
1823.59
1780.71
1736.78
1691.9
1646.18
1599.72
1552.62
1505
1456.98
1408.65
1360.13
1311.53
1262.95
1214.49
1166.26
1118.36
1070.86
1023.87
977.457
931.706
886.69
842.478
799.135
756.723
715.296
674.907
635.604
597.43
560.424
524.621
490.052
456.743
424.715
393.986
364.569
336.472
309.699
284.249
260.116
237.29
215.757
195.498
176.489
158.703
142.11
126.674
112.359
99.1236
86.9248
75.7178
65.4558
56.0912
47.5753
39.8596
32.8955
26.6355
21.0334
16.0449
11.6286
7.7462
4.3631
1.44775
-1.04058
-2.79539
-4.33562
-5.64689
-6.76117
-7.70725
-8.50837
-9.18328
-9.74795
-10.2168
-10.6029
-10.9184
-11.1738
-11.3786
-11.541
-11.6681
-11.7662
-11.8404
-11.8953
-11.9347
-11.9617
-11.9791
-11.9889
-11.993
-11.9928
-11.9895
-11.9839
-11.9767
-11.9687
-11.9601
-11.9515
-11.9431
-11.9349
-11.9272
-11.9199
-11.9128
-11.9061
-11.8995
-11.8931
-11.8869
-11.8809
-11.8752
-11.8697
-11.8646
-11.8597
-11.855
-11.8505
-11.8462
-11.8419
-11.8377
-11.8334
-11.8292
-11.8249
-11.8207
-11.8165
-11.8125
-11.8086
-11.8049
-11.8014
-11.7981
-11.7949
-11.792
-11.7891
-11.7865
-11.784
-11.7816
-11.7793
-11.7771
-11.7751
-11.7731
-11.7713
-11.7695
-11.7678
-11.7663
-11.7648
-11.7634
-11.7621
-11.7609
-11.7598
-11.7589
-11.7581
-11.7575
-11.7571
-11.7568
-11.7566
-11.7565
-11.7564
-11.7564
-11.7563
-11.7562
-11.7561
-11.7558
-11.7556
-11.7552
-11.7548
-11.7544
-11.7538
-11.7532
-11.7526
-11.7518
-11.7509
-11.7499
-11.7488
-11.7476
-11.7464
-11.745
-11.7436
-11.7421
-11.7407
-11.7392
-11.7378
-11.7364
-11.7351
-11.7338
-11.7325
-11.7314
-11.7303
-11.7292
-11.7282
-11.7272
-11.7263
-11.7255
-11.7247
-11.7239
-11.7232
-11.7225
-11.7219
-11.7213
-11.7208
-11.7204
-11.72
-11.7197
-11.7195
-11.7194
-11.7193
-11.7194
-11.7196
-11.7199
-11.7202
-11.7206
-11.7211
-11.7216
-11.7221
-11.7227
-11.7232
-11.7237
-11.7241
-11.7245
-11.7249
-11.7252
-11.7255
-11.7256
-11.7257
-11.7257
-11.7257
-11.7255
-11.7253
-11.7249
-11.7245
-11.724
-11.7234
-11.7227
-11.722
-11.7213
-11.7205
-11.7197
-11.7189
-11.7181
-11.7173
-11.7165
-11.7157
-11.715
-11.7142
-11.7135
-11.7128
-11.7121
-11.7115
-11.7109
-11.7102
-11.7097
-11.7091
-11.7085
-11.708
-11.7075
-11.707
-11.7066
-11.7062
-11.7058
-11.7055
-11.7053
-11.7051
-11.705
-11.705
-11.7051
-11.7052
-11.7054
-11.7057
-11.706
-11.7064
-11.7069
-11.7073
-11.7079
-11.7084
-11.709
-11.7095
-11.71
-11.7106
-11.711
-11.7115
-11.7119
-11.7123
-11.7126
-11.7128
-11.713
-11.7131
-11.7132
-11.7131
-11.713
-11.7129
-11.7126
-11.7123
-11.712
-11.7116
-11.7111
-11.7107
-11.7102
-11.7097
-11.7092
-11.7087
-11.7082
-11.7077
-11.7073
-11.7068
-11.7064
-11.706
-11.7056
-11.7052
-11.7049
-11.7046
-11.7043
-11.704
-11.7038
-11.7035
-11.7033
-11.7031
-11.703
-11.7028
-11.7027
-11.7026
-11.7026
-11.7026
-11.7026
-11.7027
-11.7028
-11.703
-11.7032
-11.7035
-11.7038
-11.7042
-11.7046
-11.7051
-11.7057
-11.7063
-11.707
-11.7077
-11.7084
-11.7092
-11.7099
-11.7107
-11.7116
-11.7124
-11.7132
-11.714
-11.7148
-11.7155
-11.7163
-11.717
-11.7176
-11.7182
-11.7188
-11.7193
-11.7198
-11.7201
-11.7204
-11.7207
-11.7208
-11.7209
-11.721
-11.7209
-11.7208
-11.7206
-11.7203
-11.72
-11.7196
-11.7192
-11.7187
-11.7182
-11.7176
-11.717
-11.7163
-11.7157
-11.715
-11.7142
-11.7135
-11.7127
-11.7119
-11.7112
-11.7104
-11.7096
-11.7088
-11.708
-11.7072
-11.7064
-11.7056
-11.7049
-11.7042
-11.7034
-11.7028
-11.7021
-11.7015
-11.701
-11.7005
-11.7
-11.6996
-11.6993
-11.699
-11.6988
-11.6986
-11.6986
)
;

boundaryField
{
    inlet
    {
        type            calculated;
        value           uniform -2523.38;
    }
    backWall
    {
        type            calculated;
        value           uniform -11.6986;
    }
    sides
    {
        type            empty;
        value           nonuniform 0();
    }
}


// ************************************************************************* //
