/*--------------------------------*- C++ -*----------------------------------*\
| =========                 |                                                 |
| \\      /  F ield         | OpenFOAM: The Open Source CFD Toolbox           |
|  \\    /   O peration     | Version:  3.0.x                                 |
|   \\  /    A nd           | Web:      www.OpenFOAM.org                      |
|    \\/     M anipulation  |                                                 |
\*---------------------------------------------------------------------------*/
FoamFile
{
    version     2.0;
    format      ascii;
    class       volScalarField;
    location    "0.26";
    object      p;
}
// * * * * * * * * * * * * * * * * * * * * * * * * * * * * * * * * * * * * * //

dimensions      [1 -1 -2 0 0 0 0];

internalField   nonuniform List<scalar> 
6900
(
1.81859e+07
1.81859e+07
1.81859e+07
1.81859e+07
1.81858e+07
1.81858e+07
1.81858e+07
1.81857e+07
1.81857e+07
1.81856e+07
1.81855e+07
1.81854e+07
1.81854e+07
1.81853e+07
1.81852e+07
1.81851e+07
1.81849e+07
1.81848e+07
1.81847e+07
1.81846e+07
1.81844e+07
1.81843e+07
1.81842e+07
1.8184e+07
1.81839e+07
1.81837e+07
1.81836e+07
1.81834e+07
1.81832e+07
1.81831e+07
1.81829e+07
1.81827e+07
1.81825e+07
1.81823e+07
1.81821e+07
1.81819e+07
1.81817e+07
1.81815e+07
1.81813e+07
1.8181e+07
1.81808e+07
1.81806e+07
1.81803e+07
1.81801e+07
1.81799e+07
1.81796e+07
1.81794e+07
1.81791e+07
1.81788e+07
1.81786e+07
1.81783e+07
1.81781e+07
1.81778e+07
1.81776e+07
1.81773e+07
1.81771e+07
1.81768e+07
1.81766e+07
1.81763e+07
1.81761e+07
1.81758e+07
1.81756e+07
1.81753e+07
1.81751e+07
1.81748e+07
1.81746e+07
1.81743e+07
1.81741e+07
1.81738e+07
1.81736e+07
1.81734e+07
1.81731e+07
1.81729e+07
1.81727e+07
1.81724e+07
1.81722e+07
1.8172e+07
1.81718e+07
1.81716e+07
1.81714e+07
1.81712e+07
1.8171e+07
1.81709e+07
1.81707e+07
1.81706e+07
1.81704e+07
1.81703e+07
1.81702e+07
1.81701e+07
1.817e+07
1.81699e+07
1.81698e+07
1.81698e+07
1.81697e+07
1.81697e+07
1.81696e+07
1.81696e+07
1.81695e+07
1.81695e+07
1.81695e+07
1.81694e+07
1.81694e+07
1.81694e+07
1.81693e+07
1.81693e+07
1.81693e+07
1.81692e+07
1.81692e+07
1.81692e+07
1.81691e+07
1.81691e+07
1.81691e+07
1.8169e+07
1.8169e+07
1.81689e+07
1.81689e+07
1.81689e+07
1.81688e+07
1.81688e+07
1.81688e+07
1.81687e+07
1.81687e+07
1.81687e+07
1.81687e+07
1.81687e+07
1.81687e+07
1.81687e+07
1.81688e+07
1.81688e+07
1.81688e+07
1.81689e+07
1.81689e+07
1.81689e+07
1.8169e+07
1.8169e+07
1.81691e+07
1.81691e+07
1.81691e+07
1.81691e+07
1.81691e+07
1.81691e+07
1.81691e+07
1.81691e+07
1.81691e+07
1.81691e+07
1.8169e+07
1.8169e+07
1.81689e+07
1.81689e+07
1.81688e+07
1.81688e+07
1.81687e+07
1.81686e+07
1.81686e+07
1.81685e+07
1.81684e+07
1.81684e+07
1.81683e+07
1.81682e+07
1.81682e+07
1.81681e+07
1.81681e+07
1.81681e+07
1.8168e+07
1.8168e+07
1.8168e+07
1.8168e+07
1.81679e+07
1.81679e+07
1.81679e+07
1.81679e+07
1.81679e+07
1.81678e+07
1.81677e+07
1.81677e+07
1.81676e+07
1.81675e+07
1.81673e+07
1.81672e+07
1.8167e+07
1.81668e+07
1.81667e+07
1.81665e+07
1.81663e+07
1.8166e+07
1.81658e+07
1.81656e+07
1.81654e+07
1.81652e+07
1.81649e+07
1.81647e+07
1.81644e+07
1.81642e+07
1.8164e+07
1.81637e+07
1.81635e+07
1.81633e+07
1.81631e+07
1.81631e+07
1.81635e+07
1.81859e+07
1.81859e+07
1.81859e+07
1.81859e+07
1.81858e+07
1.81858e+07
1.81858e+07
1.81857e+07
1.81857e+07
1.81856e+07
1.81855e+07
1.81854e+07
1.81854e+07
1.81853e+07
1.81852e+07
1.81851e+07
1.81849e+07
1.81848e+07
1.81847e+07
1.81846e+07
1.81844e+07
1.81843e+07
1.81842e+07
1.8184e+07
1.81839e+07
1.81837e+07
1.81836e+07
1.81834e+07
1.81832e+07
1.81831e+07
1.81829e+07
1.81827e+07
1.81825e+07
1.81823e+07
1.81821e+07
1.81819e+07
1.81817e+07
1.81815e+07
1.81813e+07
1.8181e+07
1.81808e+07
1.81806e+07
1.81803e+07
1.81801e+07
1.81799e+07
1.81796e+07
1.81794e+07
1.81791e+07
1.81788e+07
1.81786e+07
1.81783e+07
1.81781e+07
1.81778e+07
1.81776e+07
1.81773e+07
1.81771e+07
1.81768e+07
1.81766e+07
1.81763e+07
1.81761e+07
1.81758e+07
1.81756e+07
1.81753e+07
1.81751e+07
1.81748e+07
1.81746e+07
1.81743e+07
1.81741e+07
1.81738e+07
1.81736e+07
1.81734e+07
1.81731e+07
1.81729e+07
1.81727e+07
1.81724e+07
1.81722e+07
1.8172e+07
1.81718e+07
1.81716e+07
1.81714e+07
1.81712e+07
1.8171e+07
1.81709e+07
1.81707e+07
1.81706e+07
1.81704e+07
1.81703e+07
1.81702e+07
1.81701e+07
1.817e+07
1.81699e+07
1.81698e+07
1.81698e+07
1.81697e+07
1.81697e+07
1.81696e+07
1.81696e+07
1.81695e+07
1.81695e+07
1.81695e+07
1.81694e+07
1.81694e+07
1.81694e+07
1.81693e+07
1.81693e+07
1.81693e+07
1.81692e+07
1.81692e+07
1.81692e+07
1.81691e+07
1.81691e+07
1.81691e+07
1.8169e+07
1.8169e+07
1.81689e+07
1.81689e+07
1.81689e+07
1.81688e+07
1.81688e+07
1.81688e+07
1.81687e+07
1.81687e+07
1.81687e+07
1.81687e+07
1.81687e+07
1.81687e+07
1.81687e+07
1.81688e+07
1.81688e+07
1.81688e+07
1.81689e+07
1.81689e+07
1.81689e+07
1.8169e+07
1.8169e+07
1.81691e+07
1.81691e+07
1.81691e+07
1.81691e+07
1.81691e+07
1.81691e+07
1.81691e+07
1.81691e+07
1.81691e+07
1.81691e+07
1.8169e+07
1.8169e+07
1.81689e+07
1.81689e+07
1.81688e+07
1.81688e+07
1.81687e+07
1.81686e+07
1.81686e+07
1.81685e+07
1.81684e+07
1.81684e+07
1.81683e+07
1.81682e+07
1.81682e+07
1.81681e+07
1.81681e+07
1.81681e+07
1.8168e+07
1.8168e+07
1.8168e+07
1.8168e+07
1.81679e+07
1.81679e+07
1.81679e+07
1.81679e+07
1.81679e+07
1.81678e+07
1.81677e+07
1.81677e+07
1.81676e+07
1.81675e+07
1.81673e+07
1.81672e+07
1.8167e+07
1.81668e+07
1.81667e+07
1.81665e+07
1.81663e+07
1.8166e+07
1.81658e+07
1.81656e+07
1.81654e+07
1.81652e+07
1.81649e+07
1.81647e+07
1.81644e+07
1.81642e+07
1.8164e+07
1.81637e+07
1.81635e+07
1.81633e+07
1.81631e+07
1.81631e+07
1.81635e+07
1.81859e+07
1.81859e+07
1.81859e+07
1.81859e+07
1.81858e+07
1.81858e+07
1.81858e+07
1.81857e+07
1.81857e+07
1.81856e+07
1.81855e+07
1.81854e+07
1.81854e+07
1.81853e+07
1.81852e+07
1.81851e+07
1.81849e+07
1.81848e+07
1.81847e+07
1.81846e+07
1.81844e+07
1.81843e+07
1.81842e+07
1.8184e+07
1.81839e+07
1.81837e+07
1.81836e+07
1.81834e+07
1.81832e+07
1.81831e+07
1.81829e+07
1.81827e+07
1.81825e+07
1.81823e+07
1.81821e+07
1.81819e+07
1.81817e+07
1.81815e+07
1.81813e+07
1.8181e+07
1.81808e+07
1.81806e+07
1.81803e+07
1.81801e+07
1.81799e+07
1.81796e+07
1.81794e+07
1.81791e+07
1.81788e+07
1.81786e+07
1.81783e+07
1.81781e+07
1.81778e+07
1.81776e+07
1.81773e+07
1.81771e+07
1.81768e+07
1.81766e+07
1.81763e+07
1.81761e+07
1.81758e+07
1.81756e+07
1.81753e+07
1.81751e+07
1.81748e+07
1.81746e+07
1.81743e+07
1.81741e+07
1.81738e+07
1.81736e+07
1.81734e+07
1.81731e+07
1.81729e+07
1.81727e+07
1.81724e+07
1.81722e+07
1.8172e+07
1.81718e+07
1.81716e+07
1.81714e+07
1.81712e+07
1.8171e+07
1.81709e+07
1.81707e+07
1.81706e+07
1.81704e+07
1.81703e+07
1.81702e+07
1.81701e+07
1.817e+07
1.81699e+07
1.81698e+07
1.81698e+07
1.81697e+07
1.81697e+07
1.81696e+07
1.81696e+07
1.81695e+07
1.81695e+07
1.81695e+07
1.81694e+07
1.81694e+07
1.81694e+07
1.81693e+07
1.81693e+07
1.81693e+07
1.81692e+07
1.81692e+07
1.81692e+07
1.81691e+07
1.81691e+07
1.81691e+07
1.8169e+07
1.8169e+07
1.81689e+07
1.81689e+07
1.81689e+07
1.81688e+07
1.81688e+07
1.81688e+07
1.81687e+07
1.81687e+07
1.81687e+07
1.81687e+07
1.81687e+07
1.81687e+07
1.81687e+07
1.81688e+07
1.81688e+07
1.81688e+07
1.81689e+07
1.81689e+07
1.81689e+07
1.8169e+07
1.8169e+07
1.81691e+07
1.81691e+07
1.81691e+07
1.81691e+07
1.81691e+07
1.81691e+07
1.81691e+07
1.81691e+07
1.81691e+07
1.81691e+07
1.8169e+07
1.8169e+07
1.81689e+07
1.81689e+07
1.81688e+07
1.81688e+07
1.81687e+07
1.81686e+07
1.81686e+07
1.81685e+07
1.81684e+07
1.81684e+07
1.81683e+07
1.81682e+07
1.81682e+07
1.81681e+07
1.81681e+07
1.81681e+07
1.8168e+07
1.8168e+07
1.8168e+07
1.8168e+07
1.81679e+07
1.81679e+07
1.81679e+07
1.81679e+07
1.81679e+07
1.81678e+07
1.81677e+07
1.81677e+07
1.81676e+07
1.81675e+07
1.81673e+07
1.81672e+07
1.8167e+07
1.81668e+07
1.81667e+07
1.81665e+07
1.81663e+07
1.8166e+07
1.81658e+07
1.81656e+07
1.81654e+07
1.81652e+07
1.81649e+07
1.81647e+07
1.81644e+07
1.81642e+07
1.8164e+07
1.81637e+07
1.81635e+07
1.81633e+07
1.81631e+07
1.81629e+07
1.81628e+07
1.81859e+07
1.81859e+07
1.81859e+07
1.81859e+07
1.81858e+07
1.81858e+07
1.81858e+07
1.81857e+07
1.81857e+07
1.81856e+07
1.81855e+07
1.81854e+07
1.81854e+07
1.81853e+07
1.81852e+07
1.81851e+07
1.81849e+07
1.81848e+07
1.81847e+07
1.81846e+07
1.81844e+07
1.81843e+07
1.81842e+07
1.8184e+07
1.81839e+07
1.81837e+07
1.81836e+07
1.81834e+07
1.81832e+07
1.81831e+07
1.81829e+07
1.81827e+07
1.81825e+07
1.81823e+07
1.81821e+07
1.81819e+07
1.81817e+07
1.81815e+07
1.81813e+07
1.8181e+07
1.81808e+07
1.81806e+07
1.81803e+07
1.81801e+07
1.81799e+07
1.81796e+07
1.81794e+07
1.81791e+07
1.81788e+07
1.81786e+07
1.81783e+07
1.81781e+07
1.81778e+07
1.81776e+07
1.81773e+07
1.81771e+07
1.81768e+07
1.81766e+07
1.81763e+07
1.81761e+07
1.81758e+07
1.81756e+07
1.81753e+07
1.81751e+07
1.81748e+07
1.81746e+07
1.81743e+07
1.81741e+07
1.81738e+07
1.81736e+07
1.81734e+07
1.81731e+07
1.81729e+07
1.81727e+07
1.81724e+07
1.81722e+07
1.8172e+07
1.81718e+07
1.81716e+07
1.81714e+07
1.81712e+07
1.8171e+07
1.81709e+07
1.81707e+07
1.81706e+07
1.81704e+07
1.81703e+07
1.81702e+07
1.81701e+07
1.817e+07
1.81699e+07
1.81698e+07
1.81698e+07
1.81697e+07
1.81697e+07
1.81696e+07
1.81696e+07
1.81695e+07
1.81695e+07
1.81695e+07
1.81694e+07
1.81694e+07
1.81694e+07
1.81693e+07
1.81693e+07
1.81693e+07
1.81692e+07
1.81692e+07
1.81692e+07
1.81691e+07
1.81691e+07
1.81691e+07
1.8169e+07
1.8169e+07
1.81689e+07
1.81689e+07
1.81689e+07
1.81688e+07
1.81688e+07
1.81688e+07
1.81687e+07
1.81687e+07
1.81687e+07
1.81687e+07
1.81687e+07
1.81687e+07
1.81687e+07
1.81688e+07
1.81688e+07
1.81688e+07
1.81689e+07
1.81689e+07
1.81689e+07
1.8169e+07
1.8169e+07
1.81691e+07
1.81691e+07
1.81691e+07
1.81691e+07
1.81691e+07
1.81691e+07
1.81691e+07
1.81691e+07
1.81691e+07
1.81691e+07
1.8169e+07
1.8169e+07
1.81689e+07
1.81689e+07
1.81688e+07
1.81688e+07
1.81687e+07
1.81686e+07
1.81686e+07
1.81685e+07
1.81684e+07
1.81684e+07
1.81683e+07
1.81682e+07
1.81682e+07
1.81681e+07
1.81681e+07
1.81681e+07
1.8168e+07
1.8168e+07
1.8168e+07
1.8168e+07
1.81679e+07
1.81679e+07
1.81679e+07
1.81679e+07
1.81679e+07
1.81678e+07
1.81677e+07
1.81677e+07
1.81676e+07
1.81675e+07
1.81673e+07
1.81672e+07
1.8167e+07
1.81668e+07
1.81667e+07
1.81665e+07
1.81663e+07
1.8166e+07
1.81658e+07
1.81656e+07
1.81654e+07
1.81652e+07
1.81649e+07
1.81647e+07
1.81644e+07
1.81642e+07
1.8164e+07
1.81637e+07
1.81635e+07
1.81633e+07
1.81631e+07
1.81627e+07
1.81618e+07
1.81859e+07
1.81859e+07
1.81859e+07
1.81859e+07
1.81858e+07
1.81858e+07
1.81858e+07
1.81857e+07
1.81857e+07
1.81856e+07
1.81855e+07
1.81854e+07
1.81854e+07
1.81853e+07
1.81852e+07
1.81851e+07
1.81849e+07
1.81848e+07
1.81847e+07
1.81846e+07
1.81844e+07
1.81843e+07
1.81842e+07
1.8184e+07
1.81839e+07
1.81837e+07
1.81836e+07
1.81834e+07
1.81832e+07
1.81831e+07
1.81829e+07
1.81827e+07
1.81825e+07
1.81823e+07
1.81821e+07
1.81819e+07
1.81817e+07
1.81815e+07
1.81813e+07
1.8181e+07
1.81808e+07
1.81806e+07
1.81803e+07
1.81801e+07
1.81799e+07
1.81796e+07
1.81794e+07
1.81791e+07
1.81788e+07
1.81786e+07
1.81783e+07
1.81781e+07
1.81778e+07
1.81776e+07
1.81773e+07
1.81771e+07
1.81768e+07
1.81766e+07
1.81763e+07
1.81761e+07
1.81758e+07
1.81756e+07
1.81753e+07
1.81751e+07
1.81748e+07
1.81746e+07
1.81743e+07
1.81741e+07
1.81738e+07
1.81736e+07
1.81734e+07
1.81731e+07
1.81729e+07
1.81727e+07
1.81724e+07
1.81722e+07
1.8172e+07
1.81718e+07
1.81716e+07
1.81714e+07
1.81712e+07
1.8171e+07
1.81709e+07
1.81707e+07
1.81706e+07
1.81704e+07
1.81703e+07
1.81702e+07
1.81701e+07
1.817e+07
1.81699e+07
1.81698e+07
1.81698e+07
1.81697e+07
1.81697e+07
1.81696e+07
1.81696e+07
1.81695e+07
1.81695e+07
1.81695e+07
1.81694e+07
1.81694e+07
1.81694e+07
1.81693e+07
1.81693e+07
1.81693e+07
1.81692e+07
1.81692e+07
1.81692e+07
1.81691e+07
1.81691e+07
1.81691e+07
1.8169e+07
1.8169e+07
1.81689e+07
1.81689e+07
1.81689e+07
1.81688e+07
1.81688e+07
1.81688e+07
1.81687e+07
1.81687e+07
1.81687e+07
1.81687e+07
1.81687e+07
1.81687e+07
1.81687e+07
1.81688e+07
1.81688e+07
1.81688e+07
1.81689e+07
1.81689e+07
1.81689e+07
1.8169e+07
1.8169e+07
1.81691e+07
1.81691e+07
1.81691e+07
1.81691e+07
1.81691e+07
1.81691e+07
1.81691e+07
1.81691e+07
1.81691e+07
1.81691e+07
1.8169e+07
1.8169e+07
1.81689e+07
1.81689e+07
1.81688e+07
1.81688e+07
1.81687e+07
1.81686e+07
1.81686e+07
1.81685e+07
1.81684e+07
1.81684e+07
1.81683e+07
1.81682e+07
1.81682e+07
1.81681e+07
1.81681e+07
1.81681e+07
1.8168e+07
1.8168e+07
1.8168e+07
1.8168e+07
1.81679e+07
1.81679e+07
1.81679e+07
1.81679e+07
1.81679e+07
1.81678e+07
1.81677e+07
1.81677e+07
1.81676e+07
1.81675e+07
1.81673e+07
1.81672e+07
1.8167e+07
1.81668e+07
1.81667e+07
1.81665e+07
1.81663e+07
1.8166e+07
1.81658e+07
1.81656e+07
1.81654e+07
1.81652e+07
1.81649e+07
1.81647e+07
1.81644e+07
1.81642e+07
1.8164e+07
1.81637e+07
1.81635e+07
1.81633e+07
1.81631e+07
1.81626e+07
1.81618e+07
1.81696e+07
1.81723e+07
1.81724e+07
1.81717e+07
1.81709e+07
1.81702e+07
1.81695e+07
1.8169e+07
1.81693e+07
1.81693e+07
1.81678e+07
1.81641e+07
1.81595e+07
1.81562e+07
1.81536e+07
1.81514e+07
1.81503e+07
1.81517e+07
1.81542e+07
1.81529e+07
1.8168e+07
1.81693e+07
1.81691e+07
1.81683e+07
1.81676e+07
1.81668e+07
1.81661e+07
1.81656e+07
1.81659e+07
1.81659e+07
1.8164e+07
1.81599e+07
1.81551e+07
1.81519e+07
1.81495e+07
1.81475e+07
1.81467e+07
1.81483e+07
1.81505e+07
1.81484e+07
1.8163e+07
1.81629e+07
1.81625e+07
1.81616e+07
1.81604e+07
1.8159e+07
1.81573e+07
1.81553e+07
1.81528e+07
1.81502e+07
1.81475e+07
1.81448e+07
1.81419e+07
1.81385e+07
1.81348e+07
1.81308e+07
1.81265e+07
1.81219e+07
1.81173e+07
1.81131e+07
1.81532e+07
1.81521e+07
1.81526e+07
1.81531e+07
1.81525e+07
1.81509e+07
1.81486e+07
1.81455e+07
1.8143e+07
1.81398e+07
1.8137e+07
1.81341e+07
1.81312e+07
1.81286e+07
1.81262e+07
1.81241e+07
1.81222e+07
1.81206e+07
1.81193e+07
1.81183e+07
1.81485e+07
1.81436e+07
1.8142e+07
1.81418e+07
1.8141e+07
1.81391e+07
1.81365e+07
1.81332e+07
1.81302e+07
1.81267e+07
1.81234e+07
1.812e+07
1.81168e+07
1.81139e+07
1.81111e+07
1.81087e+07
1.81066e+07
1.81049e+07
1.81037e+07
1.81037e+07
1.81227e+07
1.8112e+07
1.8115e+07
1.81163e+07
1.81142e+07
1.81124e+07
1.81118e+07
1.81117e+07
1.81116e+07
1.81113e+07
1.81111e+07
1.81109e+07
1.81107e+07
1.81104e+07
1.81102e+07
1.811e+07
1.81097e+07
1.81095e+07
1.81093e+07
1.8109e+07
1.81088e+07
1.81086e+07
1.81084e+07
1.81082e+07
1.8108e+07
1.81077e+07
1.81075e+07
1.81073e+07
1.81071e+07
1.81069e+07
1.81067e+07
1.81065e+07
1.81063e+07
1.81061e+07
1.81059e+07
1.81057e+07
1.81055e+07
1.81053e+07
1.81051e+07
1.81049e+07
1.81048e+07
1.81046e+07
1.81044e+07
1.81042e+07
1.8104e+07
1.81039e+07
1.81037e+07
1.81036e+07
1.81035e+07
1.81034e+07
1.81034e+07
1.81033e+07
1.81033e+07
1.81033e+07
1.81033e+07
1.81033e+07
1.81032e+07
1.81032e+07
1.81031e+07
1.81031e+07
1.8103e+07
1.81028e+07
1.81027e+07
1.81025e+07
1.81023e+07
1.81021e+07
1.81019e+07
1.81017e+07
1.81014e+07
1.81012e+07
1.8101e+07
1.81007e+07
1.81005e+07
1.81003e+07
1.81001e+07
1.80999e+07
1.80997e+07
1.80995e+07
1.80993e+07
1.80991e+07
1.80989e+07
1.80987e+07
1.80985e+07
1.80983e+07
1.80981e+07
1.80979e+07
1.80978e+07
1.80976e+07
1.80974e+07
1.80972e+07
1.8097e+07
1.80968e+07
1.80966e+07
1.80964e+07
1.80962e+07
1.8096e+07
1.80958e+07
1.80956e+07
1.80954e+07
1.80952e+07
1.8095e+07
1.80948e+07
1.80945e+07
1.80943e+07
1.80941e+07
1.80939e+07
1.80937e+07
1.80935e+07
1.80933e+07
1.80931e+07
1.80929e+07
1.80927e+07
1.80925e+07
1.80924e+07
1.80922e+07
1.8092e+07
1.80918e+07
1.80917e+07
1.80915e+07
1.80914e+07
1.80912e+07
1.80911e+07
1.80909e+07
1.80908e+07
1.80907e+07
1.80905e+07
1.80904e+07
1.80902e+07
1.80901e+07
1.809e+07
1.80898e+07
1.80897e+07
1.80895e+07
1.80893e+07
1.80892e+07
1.8089e+07
1.80888e+07
1.80886e+07
1.80884e+07
1.80882e+07
1.8088e+07
1.80877e+07
1.80875e+07
1.80873e+07
1.8087e+07
1.80868e+07
1.80865e+07
1.80862e+07
1.8086e+07
1.80857e+07
1.80854e+07
1.80852e+07
1.80849e+07
1.80846e+07
1.80844e+07
1.80841e+07
1.80838e+07
1.80836e+07
1.80833e+07
1.80831e+07
1.80829e+07
1.80826e+07
1.80824e+07
1.80822e+07
1.80821e+07
1.80819e+07
1.80817e+07
1.80816e+07
1.80815e+07
1.80813e+07
1.80812e+07
1.80811e+07
1.8081e+07
1.80809e+07
1.80808e+07
1.80807e+07
1.80806e+07
1.80805e+07
1.80804e+07
1.80803e+07
1.80802e+07
1.80801e+07
1.808e+07
1.80798e+07
1.80797e+07
1.80795e+07
1.80793e+07
1.80792e+07
1.8079e+07
1.80788e+07
1.80786e+07
1.80784e+07
1.80783e+07
1.80781e+07
1.80779e+07
1.80777e+07
1.80775e+07
1.80773e+07
1.80768e+07
1.80755e+07
1.81208e+07
1.81118e+07
1.81151e+07
1.81163e+07
1.81142e+07
1.81124e+07
1.81118e+07
1.81117e+07
1.81116e+07
1.81113e+07
1.81111e+07
1.81109e+07
1.81107e+07
1.81104e+07
1.81102e+07
1.811e+07
1.81097e+07
1.81095e+07
1.81093e+07
1.8109e+07
1.81088e+07
1.81086e+07
1.81084e+07
1.81082e+07
1.8108e+07
1.81077e+07
1.81075e+07
1.81073e+07
1.81071e+07
1.81069e+07
1.81067e+07
1.81065e+07
1.81063e+07
1.81061e+07
1.81059e+07
1.81057e+07
1.81055e+07
1.81053e+07
1.81051e+07
1.81049e+07
1.81048e+07
1.81046e+07
1.81044e+07
1.81042e+07
1.8104e+07
1.81039e+07
1.81037e+07
1.81036e+07
1.81035e+07
1.81034e+07
1.81034e+07
1.81033e+07
1.81033e+07
1.81033e+07
1.81033e+07
1.81033e+07
1.81032e+07
1.81032e+07
1.81031e+07
1.81031e+07
1.8103e+07
1.81028e+07
1.81027e+07
1.81025e+07
1.81023e+07
1.81021e+07
1.81019e+07
1.81017e+07
1.81014e+07
1.81012e+07
1.8101e+07
1.81007e+07
1.81005e+07
1.81003e+07
1.81001e+07
1.80999e+07
1.80997e+07
1.80995e+07
1.80993e+07
1.80991e+07
1.80989e+07
1.80987e+07
1.80985e+07
1.80983e+07
1.80981e+07
1.80979e+07
1.80978e+07
1.80976e+07
1.80974e+07
1.80972e+07
1.8097e+07
1.80968e+07
1.80966e+07
1.80964e+07
1.80962e+07
1.8096e+07
1.80958e+07
1.80956e+07
1.80954e+07
1.80952e+07
1.8095e+07
1.80948e+07
1.80945e+07
1.80943e+07
1.80941e+07
1.80939e+07
1.80937e+07
1.80935e+07
1.80933e+07
1.80931e+07
1.80929e+07
1.80927e+07
1.80925e+07
1.80924e+07
1.80922e+07
1.8092e+07
1.80918e+07
1.80917e+07
1.80915e+07
1.80914e+07
1.80912e+07
1.80911e+07
1.80909e+07
1.80908e+07
1.80907e+07
1.80905e+07
1.80904e+07
1.80902e+07
1.80901e+07
1.809e+07
1.80898e+07
1.80897e+07
1.80895e+07
1.80893e+07
1.80892e+07
1.8089e+07
1.80888e+07
1.80886e+07
1.80884e+07
1.80882e+07
1.8088e+07
1.80877e+07
1.80875e+07
1.80873e+07
1.8087e+07
1.80868e+07
1.80865e+07
1.80862e+07
1.8086e+07
1.80857e+07
1.80854e+07
1.80852e+07
1.80849e+07
1.80846e+07
1.80844e+07
1.80841e+07
1.80838e+07
1.80836e+07
1.80833e+07
1.80831e+07
1.80829e+07
1.80826e+07
1.80824e+07
1.80822e+07
1.80821e+07
1.80819e+07
1.80817e+07
1.80816e+07
1.80815e+07
1.80813e+07
1.80812e+07
1.80811e+07
1.8081e+07
1.80809e+07
1.80808e+07
1.80807e+07
1.80806e+07
1.80805e+07
1.80804e+07
1.80803e+07
1.80802e+07
1.80801e+07
1.808e+07
1.80798e+07
1.80797e+07
1.80795e+07
1.80793e+07
1.80792e+07
1.8079e+07
1.80788e+07
1.80786e+07
1.80784e+07
1.80783e+07
1.80781e+07
1.80779e+07
1.80777e+07
1.80775e+07
1.80773e+07
1.80768e+07
1.80756e+07
1.81045e+07
1.81092e+07
1.81125e+07
1.81127e+07
1.81121e+07
1.81118e+07
1.81117e+07
1.81116e+07
1.81115e+07
1.81113e+07
1.81111e+07
1.81109e+07
1.81107e+07
1.81104e+07
1.81102e+07
1.811e+07
1.81097e+07
1.81095e+07
1.81093e+07
1.8109e+07
1.81088e+07
1.81086e+07
1.81083e+07
1.81081e+07
1.81079e+07
1.81077e+07
1.81075e+07
1.81073e+07
1.81071e+07
1.81069e+07
1.81067e+07
1.81065e+07
1.81063e+07
1.81061e+07
1.81059e+07
1.81057e+07
1.81055e+07
1.81053e+07
1.81052e+07
1.8105e+07
1.81048e+07
1.81046e+07
1.81045e+07
1.81043e+07
1.81041e+07
1.8104e+07
1.81039e+07
1.81038e+07
1.81037e+07
1.81036e+07
1.81035e+07
1.81035e+07
1.81035e+07
1.81034e+07
1.81034e+07
1.81034e+07
1.81033e+07
1.81033e+07
1.81032e+07
1.81031e+07
1.8103e+07
1.81028e+07
1.81027e+07
1.81025e+07
1.81023e+07
1.81021e+07
1.81019e+07
1.81017e+07
1.81014e+07
1.81012e+07
1.8101e+07
1.81007e+07
1.81005e+07
1.81003e+07
1.81001e+07
1.80999e+07
1.80997e+07
1.80995e+07
1.80993e+07
1.80991e+07
1.80989e+07
1.80987e+07
1.80985e+07
1.80983e+07
1.80981e+07
1.80979e+07
1.80978e+07
1.80976e+07
1.80974e+07
1.80972e+07
1.8097e+07
1.80968e+07
1.80966e+07
1.80964e+07
1.80962e+07
1.8096e+07
1.80958e+07
1.80956e+07
1.80954e+07
1.80952e+07
1.8095e+07
1.80948e+07
1.80945e+07
1.80943e+07
1.80941e+07
1.80939e+07
1.80937e+07
1.80935e+07
1.80933e+07
1.80931e+07
1.80929e+07
1.80927e+07
1.80925e+07
1.80924e+07
1.80922e+07
1.8092e+07
1.80918e+07
1.80917e+07
1.80915e+07
1.80914e+07
1.80912e+07
1.80911e+07
1.80909e+07
1.80908e+07
1.80907e+07
1.80905e+07
1.80904e+07
1.80902e+07
1.80901e+07
1.809e+07
1.80898e+07
1.80897e+07
1.80895e+07
1.80893e+07
1.80892e+07
1.8089e+07
1.80888e+07
1.80886e+07
1.80884e+07
1.80882e+07
1.8088e+07
1.80877e+07
1.80875e+07
1.80873e+07
1.8087e+07
1.80868e+07
1.80865e+07
1.80862e+07
1.8086e+07
1.80857e+07
1.80854e+07
1.80852e+07
1.80849e+07
1.80846e+07
1.80844e+07
1.80841e+07
1.80838e+07
1.80836e+07
1.80833e+07
1.80831e+07
1.80829e+07
1.80826e+07
1.80824e+07
1.80822e+07
1.80821e+07
1.80819e+07
1.80817e+07
1.80816e+07
1.80815e+07
1.80813e+07
1.80812e+07
1.80811e+07
1.8081e+07
1.80809e+07
1.80808e+07
1.80807e+07
1.80806e+07
1.80805e+07
1.80804e+07
1.80803e+07
1.80802e+07
1.80801e+07
1.808e+07
1.80798e+07
1.80797e+07
1.80795e+07
1.80793e+07
1.80792e+07
1.8079e+07
1.80788e+07
1.80786e+07
1.80784e+07
1.80783e+07
1.80781e+07
1.80779e+07
1.80777e+07
1.80775e+07
1.80773e+07
1.80771e+07
1.8077e+07
1.81149e+07
1.81139e+07
1.81135e+07
1.81129e+07
1.81124e+07
1.81119e+07
1.81118e+07
1.81117e+07
1.81115e+07
1.81113e+07
1.81111e+07
1.81109e+07
1.81107e+07
1.81104e+07
1.81102e+07
1.811e+07
1.81097e+07
1.81095e+07
1.81093e+07
1.8109e+07
1.81088e+07
1.81086e+07
1.81083e+07
1.81081e+07
1.81079e+07
1.81077e+07
1.81075e+07
1.81073e+07
1.81071e+07
1.81069e+07
1.81067e+07
1.81065e+07
1.81063e+07
1.81061e+07
1.81059e+07
1.81057e+07
1.81056e+07
1.81054e+07
1.81052e+07
1.8105e+07
1.81049e+07
1.81047e+07
1.81046e+07
1.81044e+07
1.81042e+07
1.81041e+07
1.8104e+07
1.81039e+07
1.81038e+07
1.81037e+07
1.81037e+07
1.81036e+07
1.81036e+07
1.81036e+07
1.81035e+07
1.81035e+07
1.81034e+07
1.81033e+07
1.81032e+07
1.81031e+07
1.8103e+07
1.81029e+07
1.81027e+07
1.81025e+07
1.81023e+07
1.81021e+07
1.81019e+07
1.81017e+07
1.81014e+07
1.81012e+07
1.8101e+07
1.81007e+07
1.81005e+07
1.81003e+07
1.81001e+07
1.80999e+07
1.80997e+07
1.80995e+07
1.80993e+07
1.80991e+07
1.80989e+07
1.80987e+07
1.80985e+07
1.80983e+07
1.80981e+07
1.80979e+07
1.80978e+07
1.80976e+07
1.80974e+07
1.80972e+07
1.8097e+07
1.80968e+07
1.80966e+07
1.80964e+07
1.80962e+07
1.8096e+07
1.80958e+07
1.80956e+07
1.80954e+07
1.80952e+07
1.8095e+07
1.80948e+07
1.80945e+07
1.80943e+07
1.80941e+07
1.80939e+07
1.80937e+07
1.80935e+07
1.80933e+07
1.80931e+07
1.80929e+07
1.80927e+07
1.80925e+07
1.80924e+07
1.80922e+07
1.8092e+07
1.80918e+07
1.80917e+07
1.80915e+07
1.80914e+07
1.80912e+07
1.80911e+07
1.80909e+07
1.80908e+07
1.80907e+07
1.80905e+07
1.80904e+07
1.80902e+07
1.80901e+07
1.809e+07
1.80898e+07
1.80897e+07
1.80895e+07
1.80893e+07
1.80892e+07
1.8089e+07
1.80888e+07
1.80886e+07
1.80884e+07
1.80882e+07
1.8088e+07
1.80877e+07
1.80875e+07
1.80873e+07
1.8087e+07
1.80868e+07
1.80865e+07
1.80862e+07
1.8086e+07
1.80857e+07
1.80854e+07
1.80852e+07
1.80849e+07
1.80846e+07
1.80844e+07
1.80841e+07
1.80838e+07
1.80836e+07
1.80833e+07
1.80831e+07
1.80829e+07
1.80826e+07
1.80824e+07
1.80822e+07
1.80821e+07
1.80819e+07
1.80817e+07
1.80816e+07
1.80815e+07
1.80813e+07
1.80812e+07
1.80811e+07
1.8081e+07
1.80809e+07
1.80808e+07
1.80807e+07
1.80806e+07
1.80805e+07
1.80804e+07
1.80803e+07
1.80802e+07
1.80801e+07
1.808e+07
1.80798e+07
1.80797e+07
1.80795e+07
1.80793e+07
1.80792e+07
1.8079e+07
1.80788e+07
1.80786e+07
1.80784e+07
1.80783e+07
1.80781e+07
1.80779e+07
1.80777e+07
1.80775e+07
1.80774e+07
1.80774e+07
1.80779e+07
1.81123e+07
1.81136e+07
1.81134e+07
1.81129e+07
1.81123e+07
1.81119e+07
1.81118e+07
1.81117e+07
1.81115e+07
1.81113e+07
1.81111e+07
1.81109e+07
1.81107e+07
1.81104e+07
1.81102e+07
1.811e+07
1.81097e+07
1.81095e+07
1.81093e+07
1.8109e+07
1.81088e+07
1.81086e+07
1.81083e+07
1.81081e+07
1.81079e+07
1.81077e+07
1.81075e+07
1.81073e+07
1.81071e+07
1.81069e+07
1.81067e+07
1.81065e+07
1.81063e+07
1.81061e+07
1.81059e+07
1.81057e+07
1.81056e+07
1.81054e+07
1.81052e+07
1.8105e+07
1.81049e+07
1.81047e+07
1.81045e+07
1.81044e+07
1.81042e+07
1.81041e+07
1.8104e+07
1.81039e+07
1.81038e+07
1.81037e+07
1.81037e+07
1.81036e+07
1.81036e+07
1.81036e+07
1.81035e+07
1.81035e+07
1.81034e+07
1.81033e+07
1.81032e+07
1.81031e+07
1.8103e+07
1.81029e+07
1.81027e+07
1.81025e+07
1.81023e+07
1.81021e+07
1.81019e+07
1.81017e+07
1.81014e+07
1.81012e+07
1.8101e+07
1.81007e+07
1.81005e+07
1.81003e+07
1.81001e+07
1.80999e+07
1.80997e+07
1.80995e+07
1.80993e+07
1.80991e+07
1.80989e+07
1.80987e+07
1.80985e+07
1.80983e+07
1.80981e+07
1.80979e+07
1.80978e+07
1.80976e+07
1.80974e+07
1.80972e+07
1.8097e+07
1.80968e+07
1.80966e+07
1.80964e+07
1.80962e+07
1.8096e+07
1.80958e+07
1.80956e+07
1.80954e+07
1.80952e+07
1.8095e+07
1.80948e+07
1.80945e+07
1.80943e+07
1.80941e+07
1.80939e+07
1.80937e+07
1.80935e+07
1.80933e+07
1.80931e+07
1.80929e+07
1.80927e+07
1.80925e+07
1.80924e+07
1.80922e+07
1.8092e+07
1.80918e+07
1.80917e+07
1.80915e+07
1.80914e+07
1.80912e+07
1.80911e+07
1.80909e+07
1.80908e+07
1.80907e+07
1.80905e+07
1.80904e+07
1.80902e+07
1.80901e+07
1.809e+07
1.80898e+07
1.80897e+07
1.80895e+07
1.80893e+07
1.80892e+07
1.8089e+07
1.80888e+07
1.80886e+07
1.80884e+07
1.80882e+07
1.8088e+07
1.80877e+07
1.80875e+07
1.80873e+07
1.8087e+07
1.80868e+07
1.80865e+07
1.80862e+07
1.8086e+07
1.80857e+07
1.80854e+07
1.80852e+07
1.80849e+07
1.80846e+07
1.80844e+07
1.80841e+07
1.80838e+07
1.80836e+07
1.80833e+07
1.80831e+07
1.80829e+07
1.80826e+07
1.80824e+07
1.80822e+07
1.80821e+07
1.80819e+07
1.80817e+07
1.80816e+07
1.80815e+07
1.80813e+07
1.80812e+07
1.80811e+07
1.8081e+07
1.80809e+07
1.80808e+07
1.80807e+07
1.80806e+07
1.80805e+07
1.80804e+07
1.80803e+07
1.80802e+07
1.80801e+07
1.808e+07
1.80798e+07
1.80797e+07
1.80795e+07
1.80793e+07
1.80792e+07
1.8079e+07
1.80788e+07
1.80786e+07
1.80784e+07
1.80783e+07
1.80781e+07
1.80779e+07
1.80777e+07
1.80775e+07
1.80774e+07
1.80774e+07
1.8078e+07
1.80641e+07
1.80592e+07
1.80574e+07
1.8057e+07
1.80562e+07
1.80543e+07
1.80516e+07
1.80489e+07
1.80456e+07
1.80426e+07
1.80393e+07
1.80361e+07
1.80331e+07
1.80303e+07
1.80277e+07
1.80253e+07
1.80231e+07
1.80213e+07
1.80202e+07
1.80202e+07
1.80683e+07
1.80671e+07
1.80674e+07
1.80677e+07
1.80671e+07
1.80654e+07
1.80629e+07
1.80607e+07
1.80576e+07
1.80551e+07
1.80522e+07
1.80494e+07
1.80468e+07
1.80443e+07
1.80421e+07
1.804e+07
1.8038e+07
1.80363e+07
1.8035e+07
1.80341e+07
1.80771e+07
1.80771e+07
1.80766e+07
1.80757e+07
1.80746e+07
1.80732e+07
1.80716e+07
1.80696e+07
1.80675e+07
1.80652e+07
1.80627e+07
1.80598e+07
1.80565e+07
1.80529e+07
1.8049e+07
1.8045e+07
1.80411e+07
1.80375e+07
1.80341e+07
1.80307e+07
1.80817e+07
1.80829e+07
1.80828e+07
1.80822e+07
1.80816e+07
1.80811e+07
1.80807e+07
1.80803e+07
1.80789e+07
1.8076e+07
1.80732e+07
1.80712e+07
1.80699e+07
1.80693e+07
1.80703e+07
1.80729e+07
1.80741e+07
1.80718e+07
1.8065e+07
1.80564e+07
1.80831e+07
1.80858e+07
1.8086e+07
1.80853e+07
1.80847e+07
1.80843e+07
1.80839e+07
1.80835e+07
1.80823e+07
1.80796e+07
1.80769e+07
1.80749e+07
1.80734e+07
1.80726e+07
1.80735e+07
1.80761e+07
1.8078e+07
1.80765e+07
1.80709e+07
1.80624e+07
1.80294e+07
1.80309e+07
1.80305e+07
1.80298e+07
1.80292e+07
1.8029e+07
1.80288e+07
1.80287e+07
1.80286e+07
1.80285e+07
1.80285e+07
1.80284e+07
1.80284e+07
1.80283e+07
1.80283e+07
1.80283e+07
1.80283e+07
1.80283e+07
1.80283e+07
1.80283e+07
1.80283e+07
1.80283e+07
1.80283e+07
1.80283e+07
1.80283e+07
1.80284e+07
1.80284e+07
1.80284e+07
1.80285e+07
1.80285e+07
1.80286e+07
1.80286e+07
1.80286e+07
1.80287e+07
1.80287e+07
1.80288e+07
1.80288e+07
1.80288e+07
1.80289e+07
1.80289e+07
1.80289e+07
1.8029e+07
1.8029e+07
1.8029e+07
1.8029e+07
1.8029e+07
1.8029e+07
1.80291e+07
1.80291e+07
1.80292e+07
1.80292e+07
1.80293e+07
1.80294e+07
1.80295e+07
1.80296e+07
1.80296e+07
1.80297e+07
1.80298e+07
1.80299e+07
1.803e+07
1.80301e+07
1.80302e+07
1.80302e+07
1.80303e+07
1.80303e+07
1.80304e+07
1.80304e+07
1.80305e+07
1.80305e+07
1.80305e+07
1.80306e+07
1.80306e+07
1.80307e+07
1.80307e+07
1.80308e+07
1.80308e+07
1.80308e+07
1.80309e+07
1.80309e+07
1.80309e+07
1.80309e+07
1.80309e+07
1.80309e+07
1.80309e+07
1.80309e+07
1.80308e+07
1.80308e+07
1.80307e+07
1.80307e+07
1.80306e+07
1.80305e+07
1.80305e+07
1.80304e+07
1.80303e+07
1.80302e+07
1.80301e+07
1.803e+07
1.80298e+07
1.80294e+07
1.80282e+07
1.80319e+07
1.80313e+07
1.80306e+07
1.80298e+07
1.80293e+07
1.8029e+07
1.80288e+07
1.80287e+07
1.80286e+07
1.80285e+07
1.80285e+07
1.80284e+07
1.80284e+07
1.80283e+07
1.80283e+07
1.80283e+07
1.80283e+07
1.80283e+07
1.80283e+07
1.80283e+07
1.80283e+07
1.80283e+07
1.80283e+07
1.80283e+07
1.80283e+07
1.80284e+07
1.80284e+07
1.80284e+07
1.80285e+07
1.80285e+07
1.80286e+07
1.80286e+07
1.80286e+07
1.80287e+07
1.80287e+07
1.80288e+07
1.80288e+07
1.80288e+07
1.80289e+07
1.80289e+07
1.80289e+07
1.8029e+07
1.8029e+07
1.8029e+07
1.8029e+07
1.8029e+07
1.8029e+07
1.80291e+07
1.80291e+07
1.80292e+07
1.80292e+07
1.80293e+07
1.80294e+07
1.80295e+07
1.80296e+07
1.80296e+07
1.80297e+07
1.80298e+07
1.80299e+07
1.803e+07
1.80301e+07
1.80302e+07
1.80302e+07
1.80303e+07
1.80303e+07
1.80304e+07
1.80304e+07
1.80305e+07
1.80305e+07
1.80305e+07
1.80306e+07
1.80306e+07
1.80307e+07
1.80307e+07
1.80308e+07
1.80308e+07
1.80308e+07
1.80309e+07
1.80309e+07
1.80309e+07
1.80309e+07
1.80309e+07
1.80309e+07
1.80309e+07
1.80309e+07
1.80308e+07
1.80308e+07
1.80307e+07
1.80307e+07
1.80306e+07
1.80305e+07
1.80305e+07
1.80304e+07
1.80303e+07
1.80302e+07
1.80301e+07
1.803e+07
1.80298e+07
1.80294e+07
1.80282e+07
1.80225e+07
1.80268e+07
1.80292e+07
1.80294e+07
1.8029e+07
1.80288e+07
1.80287e+07
1.80287e+07
1.80286e+07
1.80285e+07
1.80284e+07
1.80284e+07
1.80284e+07
1.80283e+07
1.80283e+07
1.80283e+07
1.80283e+07
1.80283e+07
1.80282e+07
1.80282e+07
1.80283e+07
1.80283e+07
1.80283e+07
1.80283e+07
1.80283e+07
1.80284e+07
1.80284e+07
1.80284e+07
1.80285e+07
1.80285e+07
1.80285e+07
1.80286e+07
1.80286e+07
1.80287e+07
1.80287e+07
1.80287e+07
1.80288e+07
1.80288e+07
1.80288e+07
1.80289e+07
1.80289e+07
1.80289e+07
1.80289e+07
1.80289e+07
1.80289e+07
1.80289e+07
1.80289e+07
1.80289e+07
1.8029e+07