/*--------------------------------*- C++ -*----------------------------------*\
| =========                 |                                                 |
| \\      /  F ield         | OpenFOAM: The Open Source CFD Toolbox           |
|  \\    /   O peration     | Version:  3.0.x                                 |
|   \\  /    A nd           | Web:      www.OpenFOAM.org                      |
|    \\/     M anipulation  |                                                 |
\*---------------------------------------------------------------------------*/
FoamFile
{
    version     2.0;
    format      ascii;
    class       volVectorField;
    location    "0.26";
    object      U;
}
// * * * * * * * * * * * * * * * * * * * * * * * * * * * * * * * * * * * * * //

dimensions      [0 1 -1 0 0 0 0];

internalField   nonuniform List<vector> 
6900
(
(42.695 0.000101197 0)
(42.6847 9.25857e-05 0)
(42.6724 9.02054e-05 0)
(42.6607 9.10583e-05 0)
(42.6498 9.17941e-05 0)
(42.6391 9.22208e-05 0)
(42.6284 9.25538e-05 0)
(42.6177 9.28205e-05 0)
(42.6069 9.30309e-05 0)
(42.5963 9.32003e-05 0)
(42.5856 9.33423e-05 0)
(42.575 9.34687e-05 0)
(42.5645 9.35731e-05 0)
(42.554 9.36753e-05 0)
(42.5436 9.37698e-05 0)
(42.5333 9.38567e-05 0)
(42.523 9.39376e-05 0)
(42.5128 9.40119e-05 0)
(42.5027 9.40793e-05 0)
(42.4927 9.41397e-05 0)
(42.4828 9.41927e-05 0)
(42.473 9.42376e-05 0)
(42.4634 9.4272e-05 0)
(42.4539 9.42924e-05 0)
(42.4445 9.4293e-05 0)
(42.4353 9.42632e-05 0)
(42.4262 9.41886e-05 0)
(42.4173 9.40477e-05 0)
(42.4085 9.3811e-05 0)
(42.3999 9.34408e-05 0)
(42.3914 9.28903e-05 0)
(42.383 9.21054e-05 0)
(42.3747 9.10259e-05 0)
(42.3666 8.95896e-05 0)
(42.3585 8.77365e-05 0)
(42.3506 8.54144e-05 0)
(42.3427 8.25849e-05 0)
(42.3349 7.92282e-05 0)
(42.3271 7.53482e-05 0)
(42.3194 7.09745e-05 0)
(42.3117 6.6163e-05 0)
(42.304 6.09942e-05 0)
(42.2962 5.5568e-05 0)
(42.2885 4.99986e-05 0)
(42.2807 4.44064e-05 0)
(42.2729 3.89105e-05 0)
(42.265 3.36213e-05 0)
(42.257 2.86343e-05 0)
(42.2489 2.40257e-05 0)
(42.2407 1.98495e-05 0)
(42.2324 1.61374e-05 0)
(42.224 1.28992e-05 0)
(42.2155 1.01261e-05 0)
(42.2068 7.79391e-06 0)
(42.1981 5.86705e-06 0)
(42.1893 4.30246e-06 0)
(42.1805 3.05335e-06 0)
(42.1716 2.07216e-06 0)
(42.1627 1.31279e-06 0)
(42.1538 7.3194e-07 0)
(42.145 2.91538e-07 0)
(42.1363 -2.49609e-08 0)
(42.1277 -2.45324e-07 0)
(42.1193 -4.03082e-07 0)
(42.111 -5.14109e-07 0)
(42.1029 -5.90816e-07 0)
(42.0951 -6.42758e-07 0)
(42.0875 -6.77196e-07 0)
(42.0802 -6.99518e-07 0)
(42.0731 -7.13539e-07 0)
(42.0663 -7.21992e-07 0)
(42.0599 -7.26739e-07 0)
(42.0537 -7.29021e-07 0)
(42.0478 -7.29705e-07 0)
(42.0421 -7.29326e-07 0)
(42.0368 -7.28237e-07 0)
(42.0317 -7.26655e-07 0)
(42.0268 -7.24735e-07 0)
(42.0221 -7.22596e-07 0)
(42.0177 -7.20296e-07 0)
(42.0134 -7.18355e-07 0)
(42.0093 -7.15113e-07 0)
(42.0053 -7.12212e-07 0)
(42.0015 -7.09782e-07 0)
(41.9977 -7.07467e-07 0)
(41.994 -7.04844e-07 0)
(41.9904 -7.02025e-07 0)
(41.9868 -6.99351e-07 0)
(41.9833 -6.97113e-07 0)
(41.9799 -6.95268e-07 0)
(41.9764 -6.93388e-07 0)
(41.973 -6.91544e-07 0)
(41.9697 -6.89762e-07 0)
(41.9665 -6.87999e-07 0)
(41.9633 -6.86093e-07 0)
(41.9602 -6.84227e-07 0)
(41.9573 -6.82672e-07 0)
(41.9545 -6.8159e-07 0)
(41.9518 -6.80941e-07 0)
(41.9494 -6.80821e-07 0)
(41.9471 -6.81683e-07 0)
(41.9451 -6.79788e-07 0)
(41.9432 -6.80254e-07 0)
(41.9417 -6.81104e-07 0)
(41.9403 -6.81536e-07 0)
(41.9392 -6.81753e-07 0)
(41.9384 -6.81957e-07 0)
(41.9378 -6.82552e-07 0)
(41.9374 -6.82949e-07 0)
(41.9372 -6.83203e-07 0)
(41.9372 -6.83883e-07 0)
(41.9374 -6.83776e-07 0)
(41.9378 -6.84306e-07 0)
(41.9383 -6.84605e-07 0)
(41.9389 -6.8484e-07 0)
(41.9395 -6.84877e-07 0)
(41.9402 -6.84776e-07 0)
(41.9409 -6.84584e-07 0)
(41.9415 -6.84222e-07 0)
(41.9422 -6.83751e-07 0)
(41.9427 -6.8319e-07 0)
(41.9431 -6.82475e-07 0)
(41.9434 -6.81689e-07 0)
(41.9435 -6.81313e-07 0)
(41.9434 -6.8038e-07 0)
(41.9432 -6.78991e-07 0)
(41.9428 -6.78384e-07 0)
(41.9421 -6.78061e-07 0)
(41.9414 -6.77645e-07 0)
(41.9404 -6.76856e-07 0)
(41.9393 -6.76222e-07 0)
(41.9382 -6.7608e-07 0)
(41.9369 -6.76307e-07 0)
(41.9356 -6.76787e-07 0)
(41.9344 -6.77483e-07 0)
(41.9332 -6.78387e-07 0)
(41.932 -6.79522e-07 0)
(41.931 -6.8088e-07 0)
(41.9302 -6.82419e-07 0)
(41.9295 -6.84122e-07 0)
(41.9289 -6.85632e-07 0)
(41.9286 -6.8742e-07 0)
(41.9284 -6.90237e-07 0)
(41.9284 -6.91775e-07 0)
(41.9286 -6.9402e-07 0)
(41.9289 -6.95766e-07 0)
(41.9293 -6.97014e-07 0)
(41.9298 -6.99842e-07 0)
(41.9304 -7.01576e-07 0)
(41.931 -7.01984e-07 0)
(41.9317 -7.03373e-07 0)
(41.9323 -7.04488e-07 0)
(41.9329 -7.05435e-07 0)
(41.9334 -7.0621e-07 0)
(41.9337 -7.06718e-07 0)
(41.934 -7.07074e-07 0)
(41.934 -7.06963e-07 0)
(41.9338 -7.07227e-07 0)
(41.9332 -7.06322e-07 0)
(41.9324 -7.05788e-07 0)
(41.9312 -7.04958e-07 0)
(41.9295 -7.04123e-07 0)
(41.9275 -7.03223e-07 0)
(41.925 -7.02433e-07 0)
(41.9221 -7.01875e-07 0)
(41.9187 -7.12957e-07 0)
(41.915 -6.8886e-07 0)
(41.9109 -7.00388e-07 0)
(41.9066 -7.00827e-07 0)
(41.902 -7.01536e-07 0)
(41.8973 -7.02674e-07 0)
(41.8925 -7.04304e-07 0)
(41.8877 -7.06166e-07 0)
(41.883 -7.09507e-07 0)
(41.8785 -7.12158e-07 0)
(41.8741 -7.15446e-07 0)
(41.87 -7.18699e-07 0)
(41.866 -7.22095e-07 0)
(41.8623 -7.25033e-07 0)
(41.8586 -7.27873e-07 0)
(41.8551 -7.30076e-07 0)
(41.8516 -7.32009e-07 0)
(41.8481 -7.33363e-07 0)
(41.8446 -7.34467e-07 0)
(41.8409 -7.35041e-07 0)
(41.8372 -7.35829e-07 0)
(41.8334 -7.36021e-07 0)
(41.8295 -7.37087e-07 0)
(41.8256 -7.37199e-07 0)
(41.8216 -7.32834e-07 0)
(41.8176 -7.39269e-07 0)
(41.8136 -7.18745e-07 0)
(41.8094 -6.49909e-07 0)
(41.8051 -4.34562e-08 0)
(41.8003 4.41617e-06 0)
(41.7945 3.57254e-05 0)
(41.7834 0.000256476 0)
(41.738 0.00181452 0)
(41.5542 0.016411 0)
(39.0465 0.0848598 0)
(42.6968 0.000128314 0)
(42.6883 9.87155e-05 0)
(42.6777 8.64998e-05 0)
(42.6678 8.56943e-05 0)
(42.6587 8.5653e-05 0)
(42.6499 8.5246e-05 0)
(42.641 8.49725e-05 0)
(42.632 8.48087e-05 0)
(42.6231 8.46949e-05 0)
(42.6142 8.46143e-05 0)
(42.6053 8.45633e-05 0)
(42.5966 8.45409e-05 0)
(42.5878 8.45249e-05 0)
(42.5791 8.45371e-05 0)
(42.5705 8.45588e-05 0)
(42.562 8.45879e-05 0)
(42.5535 8.46236e-05 0)
(42.5451 8.46623e-05 0)
(42.5368 8.47019e-05 0)
(42.5286 8.47408e-05 0)
(42.5205 8.47776e-05 0)
(42.5126 8.48107e-05 0)
(42.5047 8.48371e-05 0)
(42.497 8.48533e-05 0)
(42.4895 8.48536e-05 0)
(42.4821 8.48276e-05 0)
(42.4748 8.47628e-05 0)
(42.4677 8.46398e-05 0)
(42.4607 8.4432e-05 0)
(42.4538 8.41051e-05 0)
(42.4471 8.36173e-05 0)
(42.4405 8.29192e-05 0)
(42.434 8.19565e-05 0)
(42.4276 8.0673e-05 0)
(42.4212 7.90141e-05 0)
(42.4149 7.69324e-05 0)
(42.4087 7.43927e-05 0)
(42.4024 7.13769e-05 0)
(42.3961 6.78881e-05 0)
(42.3898 6.39526e-05 0)
(42.3834 5.96207e-05 0)
(42.3769 5.49648e-05 0)
(42.3703 5.0075e-05 0)
(42.3636 4.50543e-05 0)
(42.3567 4.00118e-05 0)
(42.3497 3.5055e-05 0)
(42.3425 3.02837e-05 0)
(42.3351 2.57845e-05 0)
(42.3275 2.16263e-05 0)
(42.3197 1.78579e-05 0)
(42.3118 1.4508e-05 0)
(42.3036 1.15858e-05 0)
(42.2953 9.08332e-06 0)
(42.2868 6.9787e-06 0)
(42.2782 5.23977e-06 0)
(42.2695 3.82777e-06 0)
(42.2608 2.7008e-06 0)
(42.2519 1.81674e-06 0)
(42.2431 1.13551e-06 0)
(42.2342 6.20165e-07 0)
(42.2255 2.36204e-07 0)
(42.2167 -4.70637e-08 0)
(42.2081 -2.54224e-07 0)
(42.1997 -4.02261e-07 0)
(42.1914 -5.0556e-07 0)
(42.1833 -5.7654e-07 0)
(42.1755 -6.24396e-07 0)
(42.1679 -6.56011e-07 0)
(42.1605 -6.7641e-07 0)
(42.1534 -6.89095e-07 0)
(42.1467 -6.96577e-07 0)
(42.1402 -7.00542e-07 0)
(42.1339 -7.02117e-07 0)
(42.128 -7.02093e-07 0)
(42.1224 -7.00953e-07 0)
(42.117 -6.99009e-07 0)
(42.1119 -6.96462e-07 0)
(42.107 -6.9346e-07 0)
(42.1023 -6.90084e-07 0)
(42.0979 -6.86494e-07 0)
(42.0936 -6.83282e-07 0)
(42.0895 -6.77971e-07 0)
(42.0855 -6.73299e-07 0)
(42.0816 -6.69333e-07 0)
(42.0778 -6.65306e-07 0)
(42.0741 -6.60656e-07 0)
(42.0705 -6.55759e-07 0)
(42.0669 -6.51121e-07 0)
(42.0634 -6.47024e-07 0)
(42.0599 -6.43326e-07 0)
(42.0564 -6.39506e-07 0)
(42.053 -6.35824e-07 0)
(42.0497 -6.32321e-07 0)
(42.0464 -6.28881e-07 0)
(42.0432 -6.25317e-07 0)
(42.0402 -6.21948e-07 0)
(42.0372 -6.1914e-07 0)
(42.0344 -6.17013e-07 0)
(42.0317 -6.15493e-07 0)
(42.0292 -6.14824e-07 0)
(42.027 -6.15615e-07 0)
(42.0249 -6.11591e-07 0)
(42.0231 -6.11965e-07 0)
(42.0215 -6.1288e-07 0)
(42.0201 -6.1306e-07 0)
(42.019 -6.12985e-07 0)
(42.0182 -6.12956e-07 0)
(42.0175 -6.13535e-07 0)
(42.0171 -6.13635e-07 0)
(42.0169 -6.13508e-07 0)
(42.017 -6.14093e-07 0)
(42.0171 -6.13262e-07 0)
(42.0175 -6.135e-07 0)
(42.018 -6.13263e-07 0)
(42.0185 -6.12858e-07 0)
(42.0191 -6.12134e-07 0)
(42.0198 -6.11157e-07 0)
(42.0205 -6.10002e-07 0)
(42.0211 -6.08553e-07 0)
(42.0217 -6.06907e-07 0)
(42.0222 -6.05058e-07 0)
(42.0226 -6.02907e-07 0)
(42.0229 -6.00624e-07 0)
(42.023 -5.99002e-07 0)
(42.0229 -5.9632e-07 0)
(42.0227 -5.92948e-07 0)
(42.0222 -5.90922e-07 0)
(42.0216 -5.89213e-07 0)
(42.0208 -5.87288e-07 0)
(42.0199 -5.84912e-07 0)
(42.0188 -5.83027e-07 0)
(42.0176 -5.82045e-07 0)
(42.0163 -5.81654e-07 0)
(42.015 -5.81731e-07 0)
(42.0137 -5.82234e-07 0)
(42.0125 -5.83185e-07 0)
(42.0114 -5.84596e-07 0)
(42.0103 -5.86449e-07 0)
(42.0095 -5.88645e-07 0)
(42.0087 -5.91133e-07 0)
(42.0082 -5.93275e-07 0)
(42.0078 -5.95817e-07 0)
(42.0076 -5.99979e-07 0)
(42.0076 -6.02255e-07 0)
(42.0078 -6.05433e-07 0)
(42.0081 -6.07671e-07 0)
(42.0085 -6.095e-07 0)
(42.009 -6.13582e-07 0)
(42.0096 -6.15628e-07 0)
(42.0102 -6.15197e-07 0)
(42.0108 -6.16619e-07 0)
(42.0114 -6.17664e-07 0)
(42.012 -6.18493e-07 0)
(42.0125 -6.18987e-07 0)
(42.0128 -6.18985e-07 0)
(42.013 -6.18735e-07 0)
(42.013 -6.17714e-07 0)
(42.0128 -6.17414e-07 0)
(42.0123 -6.15102e-07 0)
(42.0114 -6.13529e-07 0)
(42.0102 -6.11356e-07 0)
(42.0085 -6.09226e-07 0)
(42.0065 -6.06878e-07 0)
(42.004 -6.04817e-07 0)
(42.001 -6.03413e-07 0)
(41.9977 -6.20802e-07 0)
(41.9939 -5.80136e-07 0)
(41.9898 -5.98399e-07 0)
(41.9855 -5.99181e-07 0)
(41.9809 -6.00241e-07 0)
(41.9761 -6.02111e-07 0)
(41.9713 -6.04886e-07 0)
(41.9665 -6.07466e-07 0)
(41.9618 -6.15038e-07 0)
(41.9573 -6.19067e-07 0)
(41.9529 -6.25049e-07 0)
(41.9487 -6.30723e-07 0)
(41.9448 -6.37084e-07 0)
(41.941 -6.42212e-07 0)
(41.9374 -6.47611e-07 0)
(41.9338 -6.51522e-07 0)
(41.9303 -6.55289e-07 0)
(41.9268 -6.57718e-07 0)
(41.9232 -6.60097e-07 0)
(41.9196 -6.60952e-07 0)
(41.9158 -6.63129e-07 0)
(41.912 -6.63112e-07 0)
(41.9081 -6.66268e-07 0)
(41.9042 -6.68304e-07 0)
(41.9002 -6.67646e-07 0)
(41.8962 -6.64974e-07 0)
(41.8921 -5.4895e-07 0)
(41.888 -8.34973e-09 0)
(41.8836 3.87255e-06 0)
(41.8788 3.08539e-05 0)
(41.873 0.000219454 0)
(41.862 0.0015414 0)
(41.8178 0.0107174 0)
(41.6389 0.0774388 0)
(39.693 0.366402 0)
(42.6967 -5.51394e-13 0)
(42.6882 2.7469e-12 0)
(42.6777 5.26069e-12 0)
(42.6678 5.91483e-12 0)
(42.6587 4.99005e-12 0)
(42.6498 1.73156e-12 0)
(42.6409 -2.3706e-12 0)
(42.632 -3.61986e-12 0)
(42.623 -3.2089e-12 0)
(42.6141 -3.17943e-12 0)
(42.6053 -4.37807e-12 0)
(42.5965 -5.17732e-12 0)
(42.5878 -7.28409e-12 0)
(42.5791 -9.24653e-12 0)
(42.5705 -9.97839e-12 0)
(42.5619 -1.02116e-11 0)
(42.5535 -9.76672e-12 0)
(42.5451 -1.16856e-11 0)
(42.5368 -1.26926e-11 0)
(42.5286 -1.23674e-11 0)
(42.5205 -1.15563e-11 0)
(42.5126 -1.11425e-11 0)
(42.5047 -1.19906e-11 0)
(42.497 -1.18641e-11 0)
(42.4895 -1.19404e-11 0)
(42.4821 -1.19254e-11 0)
(42.4748 -1.37397e-11 0)
(42.4677 -1.60359e-11 0)
(42.4607 -1.85592e-11 0)
(42.4538 -1.94751e-11 0)
(42.4471 -1.92404e-11 0)
(42.4405 -1.87265e-11 0)
(42.434 -1.86381e-11 0)
(42.4276 -1.86747e-11 0)
(42.4212 -1.94237e-11 0)
(42.4149 -1.78136e-11 0)
(42.4087 -1.81883e-11 0)
(42.4024 -1.76451e-11 0)
(42.3961 -1.66251e-11 0)
(42.3898 -1.51434e-11 0)
(42.3834 -1.32437e-11 0)
(42.3769 -1.30256e-11 0)
(42.3703 -1.3841e-11 0)
(42.3636 -1.46476e-11 0)
(42.3568 -1.55412e-11 0)
(42.3497 -1.699e-11 0)
(42.3425 -1.73223e-11 0)
(42.3351 -1.56661e-11 0)
(42.3275 -1.47262e-11 0)
(42.3197 -1.4316e-11 0)
(42.3118 -1.42092e-11 0)
(42.3036 -1.35381e-11 0)
(42.2953 -1.38787e-11 0)
(42.2869 -1.57478e-11 0)
(42.2783 -1.52342e-11 0)
(42.2696 -1.23845e-11 0)
(42.2608 -9.57525e-12 0)
(42.2519 -7.19166e-12 0)
(42.2431 -4.68605e-12 0)
(42.2343 -3.30044e-12 0)
(42.2255 -1.70881e-12 0)
(42.2168 -3.94862e-12 0)
(42.2082 -3.50029e-12 0)
(42.1997 -2.98858e-12 0)
(42.1914 -2.12953e-12 0)
(42.1833 -1.96535e-12 0)
(42.1755 -6.08352e-13 0)
(42.1679 -6.15215e-14 0)
(42.1605 1.00195e-12 0)
(42.1535 1.90811e-12 0)
(42.1467 5.00367e-12 0)
(42.1402 7.5829e-12 0)
(42.134 8.73134e-12 0)
(42.128 6.31174e-12 0)
(42.1224 3.99606e-12 0)
(42.117 2.63729e-12 0)
(42.1119 2.95763e-12 0)
(42.107 3.72394e-12 0)
(42.1023 3.31218e-12 0)
(42.0979 8.85076e-13 0)
(42.0936 -3.28795e-12 0)
(42.0895 -7.18899e-12 0)
(42.0855 -1.1073e-11 0)
(42.0816 -1.41519e-11 0)
(42.0778 -1.56181e-11 0)
(42.0741 -1.70764e-11 0)
(42.0705 -1.69998e-11 0)
(42.0669 -1.69189e-11 0)
(42.0634 -1.80781e-11 0)
(42.0599 -1.91508e-11 0)
(42.0564 -2.01253e-11 0)
(42.0531 -2.06898e-11 0)
(42.0497 -1.87103e-11 0)
(42.0464 -1.67581e-11 0)
(42.0433 -1.53657e-11 0)
(42.0402 -1.57281e-11 0)
(42.0372 -1.58549e-11 0)
(42.0344 -1.51609e-11 0)
(42.0317 -1.46043e-11 0)
(42.0292 -1.50229e-11 0)
(42.027 -1.69692e-11 0)
(42.0249 -1.77106e-11 0)
(42.0231 -2.0099e-11 0)
(42.0215 -2.25921e-11 0)
(42.0201 -2.37984e-11 0)
(42.019 -2.36519e-11 0)
(42.0182 -2.17211e-11 0)
(42.0175 -2.05781e-11 0)
(42.0171 -2.0088e-11 0)
(42.017 -2.09997e-11 0)
(42.017 -1.93739e-11 0)
(42.0172 -1.52868e-11 0)
(42.0175 -1.02058e-11 0)
(42.018 -6.19397e-12 0)
(42.0185 -3.58349e-12 0)
(42.0192 -1.95725e-12 0)
(42.0198 -4.68925e-13 0)
(42.0205 2.12029e-12 0)
(42.0212 4.27744e-12 0)
(42.0218 5.21284e-12 0)
(42.0223 6.40959e-12 0)
(42.0227 6.57229e-12 0)
(42.0229 5.29831e-12 0)
(42.023 3.36817e-12 0)
(42.0229 3.09182e-12 0)
(42.0227 3.44124e-12 0)
(42.0223 3.00665e-12 0)
(42.0216 4.74029e-12 0)
(42.0208 8.89772e-12 0)
(42.0199 1.13964e-11 0)
(42.0188 1.30019e-11 0)
(42.0176 1.37169e-11 0)
(42.0163 1.42939e-11 0)
(42.015 1.13971e-11 0)
(42.0138 9.27775e-12 0)
(42.0125 8.143e-12 0)
(42.0114 7.85102e-12 0)
(42.0104 9.7606e-12 0)
(42.0095 1.11914e-11 0)
(42.0088 1.24566e-11 0)
(42.0082 2.37839e-11 0)
(42.0078 -4.59229e-12 0)
(42.0077 -1.28891e-11 0)
(42.0077 3.19854e-11 0)
(42.0078 -3.44321e-12 0)
(42.0081 3.80061e-11 0)
(42.0085 -6.20133e-11 0)
(42.009 8.27872e-12 0)
(42.0096 -1.42277e-10 0)
(42.0102 -6.97986e-12 0)
(42.0108 -6.26532e-11 0)
(42.0114 6.56816e-11 0)
(42.012 4.78647e-11 0)
(42.0125 -1.46137e-11 0)
(42.0128 2.6853e-11 0)
(42.013 -3.2478e-11 0)
(42.013 5.211e-11 0)
(42.0128 -5.61907e-11 0)
(42.0123 8.48763e-11 0)
(42.0114 -8.95747e-11 0)
(42.0102 1.23178e-10 0)
(42.0085 -1.31113e-10 0)
(42.0065 1.65212e-10 0)
(42.004 -2.24521e-10 0)
(42.001 -3.97977e-10 0)
(41.9977 -8.62249e-09 0)
(41.9939 8.52929e-09 0)
(41.9899 5.0652e-10 0)
(41.9855 1.92874e-10 0)
(41.9809 -1.14626e-10 0)
(41.9761 2.40134e-10 0)
(41.9713 8.68719e-10 0)
(41.9665 1.4108e-08 0)
(41.9618 -1.40652e-08 0)
(41.9573 -7.49063e-10 0)
(41.9529 -6.17226e-10 0)
(41.9487 5.10049e-10 0)
(41.9448 -6.34424e-10 0)
(41.941 6.01873e-10 0)
(41.9374 -7.63127e-10 0)
(41.9338 5.68192e-10 0)
(41.9303 -8.09488e-10 0)
(41.9268 6.32528e-10 0)
(41.9232 -1.192e-09 0)
(41.9196 1.14766e-09 0)
(41.9158 -1.756e-09 0)
(41.912 1.72731e-09 0)
(41.9081 -1.54469e-09 0)
(41.9042 5.10273e-09 0)
(41.9002 -9.42113e-10 0)
(41.8962 1.53542e-08 0)
(41.8921 1.98192e-07 0)
(41.888 1.21837e-06 0)
(41.8836 8.91789e-06 0)
(41.8789 6.29121e-05 0)
(41.8739 0.000445728 0)
(41.8681 0.00316207 0)
(41.8601 0.022272 0)
(41.8367 0.158888 0)
(41.6801 0.727125 0)
(42.6968 -0.000128314 0)
(42.6883 -9.87155e-05 0)
(42.6777 -8.64998e-05 0)
(42.6678 -8.56943e-05 0)
(42.6587 -8.5653e-05 0)
(42.6499 -8.5246e-05 0)
(42.641 -8.49725e-05 0)
(42.632 -8.48087e-05 0)
(42.6231 -8.46949e-05 0)
(42.6142 -8.46143e-05 0)
(42.6053 -8.45633e-05 0)
(42.5966 -8.45409e-05 0)
(42.5878 -8.45249e-05 0)
(42.5791 -8.45371e-05 0)
(42.5705 -8.45588e-05 0)
(42.562 -8.45879e-05 0)
(42.5535 -8.46235e-05 0)
(42.5451 -8.46623e-05 0)
(42.5368 -8.47019e-05 0)
(42.5286 -8.47408e-05 0)
(42.5205 -8.47776e-05 0)
(42.5126 -8.48107e-05 0)
(42.5047 -8.48371e-05 0)
(42.497 -8.48533e-05 0)
(42.4895 -8.48536e-05 0)
(42.4821 -8.48276e-05 0)
(42.4748 -8.47628e-05 0)
(42.4677 -8.46398e-05 0)
(42.4607 -8.4432e-05 0)
(42.4538 -8.41051e-05 0)
(42.4471 -8.36173e-05 0)
(42.4405 -8.29192e-05 0)
(42.434 -8.19565e-05 0)
(42.4276 -8.0673e-05 0)
(42.4212 -7.90141e-05 0)
(42.4149 -7.69324e-05 0)
(42.4087 -7.43927e-05 0)
(42.4024 -7.13769e-05 0)
(42.3961 -6.78881e-05 0)
(42.3898 -6.39526e-05 0)
(42.3834 -5.96207e-05 0)
(42.3769 -5.49648e-05 0)
(42.3703 -5.00749e-05 0)
(42.3636 -4.50543e-05 0)
(42.3567 -4.00118e-05 0)
(42.3497 -3.5055e-05 0)
(42.3425 -3.02837e-05 0)
(42.3351 -2.57845e-05 0)
(42.3275 -2.16263e-05 0)
(42.3197 -1.78579e-05 0)
(42.3118 -1.4508e-05 0)
(42.3036 -1.15858e-05 0)
(42.2953 -9.08331e-06 0)
(42.2868 -6.97869e-06 0)
(42.2782 -5.23977e-06 0)
(42.2695 -3.82777e-06 0)
(42.2608 -2.7008e-06 0)
(42.2519 -1.81673e-06 0)
(42.2431 -1.1355e-06 0)
(42.2342 -6.20166e-07 0)
(42.2255 -2.36205e-07 0)
(42.2167 4.70652e-08 0)
(42.2081 2.54223e-07 0)
(42.1997 4.02261e-07 0)
(42.1914 5.05559e-07 0)
(42.1833 5.76538e-07 0)
(42.1755 6.24396e-07 0)
(42.1679 6.56009e-07 0)
(42.1605 6.76409e-07 0)
(42.1534 6.89096e-07 0)
(42.1467 6.96576e-07 0)
(42.1402 7.0054e-07 0)
(42.1339 7.02116e-07 0)
(42.128 7.02091e-07 0)
(42.1224 7.00955e-07 0)
(42.117 6.99009e-07 0)
(42.1119 6.9646e-07 0)
(42.107 6.93456e-07 0)
(42.1023 6.90087e-07 0)
(42.0979 6.865e-07 0)
(42.0936 6.8329e-07 0)
(42.0895 6.77977e-07 0)
(42.0855 6.73304e-07 0)
(42.0816 6.69339e-07 0)
(42.0778 6.65308e-07 0)
(42.0741 6.60657e-07 0)
(42.0705 6.55761e-07 0)
(42.0669 6.51123e-07 0)
(42.0634 6.47026e-07 0)
(42.0599 6.43332e-07 0)
(42.0564 6.39513e-07 0)
(42.053 6.35828e-07 0)
(42.0497 6.32322e-07 0)
(42.0464 6.28882e-07 0)
(42.0432 6.2532e-07 0)
(42.0402 6.21952e-07 0)
(42.0372 6.19143e-07 0)
(42.0344 6.17013e-07 0)
(42.0317 6.15497e-07 0)
(42.0292 6.14827e-07 0)
(42.027 6.15616e-07 0)
(42.0249 6.11596e-07 0)
(42.0231 6.11972e-07 0)
(42.0215 6.12886e-07 0)
(42.0201 6.13065e-07 0)
(42.019 6.12988e-07 0)
(42.0182 6.1296e-07 0)
(42.0175 6.13539e-07 0)
(42.0171 6.13641e-07 0)
(42.0169 6.13507e-07 0)
(42.017 6.14089e-07 0)
(42.0171 6.13256e-07 0)
(42.0175 6.13495e-07 0)
(42.018 6.13262e-07 0)
(42.0185 6.12859e-07 0)
(42.0191 6.12134e-07 0)
(42.0198 6.11159e-07 0)
(42.0205 6.10002e-07 0)
(42.0211 6.08555e-07 0)
(42.0217 6.06907e-07 0)
(42.0222 6.05057e-07 0)
(42.0226 6.02908e-07 0)
(42.0229 6.00628e-07 0)
(42.023 5.99007e-07 0)
(42.0229 5.96322e-07 0)
(42.0227 5.9295e-07 0)
(42.0222 5.90924e-07 0)
(42.0216 5.89208e-07 0)
(42.0208 5.87285e-07 0)
(42.0199 5.84905e-07 0)
(42.0188 5.83022e-07 0)
(42.0176 5.82041e-07 0)
(42.0163 5.81653e-07 0)
(42.015 5.81728e-07 0)
(42.0137 5.82233e-07 0)
(42.0125 5.83184e-07 0)
(42.0114 5.84593e-07 0)
(42.0103 5.86444e-07 0)
(42.0095 5.88643e-07 0)
(42.0087 5.91132e-07 0)
(42.0082 5.93305e-07 0)
(42.0078 5.95795e-07 0)
(42.0076 5.99928e-07 0)
(42.0076 6.02291e-07 0)
(42.0078 6.05399e-07 0)
(42.0081 6.07703e-07 0)
(42.0085 6.09456e-07 0)
(42.009 6.13721e-07 0)
(42.0096 6.15658e-07 0)
(42.0102 6.15355e-07 0)
(42.0108 6.16382e-07 0)
(42.0114 6.17654e-07 0)
(42.012 6.18539e-07 0)
(42.0125 6.18952e-07 0)
(42.0128 6.19027e-07 0)
(42.013 6.18678e-07 0)
(42.013 6.17785e-07 0)
(42.0128 6.17323e-07 0)
(42.0123 6.15212e-07 0)
(42.0114 6.13389e-07 0)
(42.0102 6.11517e-07 0)
(42.0085 6.09026e-07 0)
(42.0065 6.07104e-07 0)
(42.004 6.04494e-07 0)
(42.001 6.02866e-07 0)
(41.9977 6.00047e-07 0)
(41.9939 6.00761e-07 0)
(41.9898 5.99086e-07 0)
(41.9855 5.9946e-07 0)
(41.9809 6.00087e-07 0)
(41.9761 6.02427e-07 0)
(41.9713 6.06077e-07 0)
(41.9665 6.29257e-07 0)
(41.9618 5.93251e-07 0)
(41.9573 6.18107e-07 0)
(41.9529 6.242e-07 0)
(41.9487 6.31439e-07 0)
(41.9448 6.3625e-07 0)
(41.941 6.43078e-07 0)
(41.9374 6.46612e-07 0)
(41.9338 6.52423e-07 0)
(41.9303 6.54307e-07 0)
(41.9268 6.58696e-07 0)
(41.9232 6.58654e-07 0)
(41.9196 6.62715e-07 0)
(41.9158 6.60895e-07 0)
(41.912 6.65702e-07 0)
(41.9081 6.64168e-07 0)
(41.9042 6.73112e-07 0)
(41.9002 6.72416e-07 0)
(41.8962 6.74579e-07 0)
(41.8921 7.97873e-07 0)
(41.888 1.46794e-06 0)
(41.8836 6.7325e-06 0)
(41.8791 4.39983e-05 0)
(41.8752 0.000310796 0)
(41.8773 0.00222897 0)
(41.9269 0.0161234 0)
(42.1257 0.134197 0)
(45.2348 0.565875 0)
(42.695 -0.000101197 0)
(42.6847 -9.25857e-05 0)
(42.6724 -9.02054e-05 0)
(42.6607 -9.10583e-05 0)
(42.6498 -9.17941e-05 0)
(42.6391 -9.22209e-05 0)
(42.6284 -9.25538e-05 0)
(42.6177 -9.28204e-05 0)
(42.6069 -9.30309e-05 0)
(42.5963 -9.32003e-05 0)
(42.5856 -9.33423e-05 0)
(42.575 -9.34687e-05 0)
(42.5645 -9.35731e-05 0)
(42.554 -9.36753e-05 0)
(42.5436 -9.37698e-05 0)
(42.5333 -9.38567e-05 0)
(42.523 -9.39376e-05 0)
(42.5128 -9.40119e-05 0)
(42.5027 -9.40793e-05 0)
(42.4927 -9.41397e-05 0)
(42.4828 -9.41927e-05 0)
(42.473 -9.42376e-05 0)
(42.4634 -9.4272e-05 0)
(42.4539 -9.42924e-05 0)
(42.4445 -9.4293e-05 0)
(42.4353 -9.42632e-05 0)
(42.4262 -9.41886e-05 0)
(42.4173 -9.40477e-05 0)
(42.4085 -9.3811e-05 0)
(42.3999 -9.34408e-05 0)
(42.3914 -9.28904e-05 0)
(42.383 -9.21054e-05 0)
(42.3747 -9.10259e-05 0)
(42.3666 -8.95896e-05 0)
(42.3585 -8.77365e-05 0)
(42.3506 -8.54144e-05 0)
(42.3427 -8.25849e-05 0)
(42.3349 -7.92282e-05 0)
(42.3271 -7.53482e-05 0)
(42.3194 -7.09745e-05 0)
(42.3117 -6.6163e-05 0)
(42.304 -6.09942e-05 0)
(42.2962 -5.5568e-05 0)
(42.2885 -4.99986e-05 0)
(42.2807 -4.44064e-05 0)
(42.2729 -3.89105e-05 0)
(42.265 -3.36213e-05 0)
(42.257 -2.86343e-05 0)
(42.2489 -2.40257e-05 0)
(42.2407 -1.98495e-05 0)
(42.2324 -1.61374e-05 0)
(42.224 -1.28992e-05 0)
(42.2155 -1.01261e-05 0)
(42.2068 -7.79391e-06 0)
(42.1981 -5.86705e-06 0)
(42.1893 -4.30247e-06 0)
(42.1805 -3.05335e-06 0)
(42.1716 -2.07216e-06 0)
(42.1627 -1.31279e-06 0)
(42.1538 -7.31939e-07 0)
(42.145 -2.91535e-07 0)
(42.1363 2.49609e-08 0)
(42.1277 2.45323e-07 0)
(42.1193 4.03082e-07 0)
(42.111 5.14111e-07 0)
(42.1029 5.90819e-07 0)
(42.0951 6.42761e-07 0)
(42.0875 6.77198e-07 0)
(42.0802 6.99519e-07 0)
(42.0731 7.13538e-07 0)
(42.0663 7.21994e-07 0)
(42.0599 7.26739e-07 0)
(42.0537 7.29022e-07 0)
(42.0478 7.29702e-07 0)
(42.0421 7.29326e-07 0)
(42.0368 7.28236e-07 0)
(42.0317 7.26654e-07 0)
(42.0268 7.24739e-07 0)
(42.0221 7.22581e-07 0)
(42.0177 7.20285e-07 0)
(42.0134 7.18346e-07 0)
(42.0093 7.1511e-07 0)
(42.0053 7.12204e-07 0)
(42.0015 7.0978e-07 0)
(41.9977 7.0747e-07 0)
(41.994 7.04845e-07 0)
(41.9904 7.02025e-07 0)
(41.9868 6.99354e-07 0)
(41.9833 6.97112e-07 0)
(41.9799 6.95261e-07 0)
(41.9764 6.93388e-07 0)
(41.973 6.91541e-07 0)
(41.9697 6.89762e-07 0)
(41.9665 6.88e-07 0)
(41.9633 6.86088e-07 0)
(41.9602 6.84221e-07 0)
(41.9573 6.82669e-07 0)
(41.9545 6.81588e-07 0)
(41.9518 6.80939e-07 0)
(41.9494 6.80824e-07 0)
(41.9471 6.81681e-07 0)
(41.9451 6.79785e-07 0)
(41.9432 6.80249e-07 0)
(41.9417 6.81097e-07 0)
(41.9403 6.81532e-07 0)
(41.9392 6.8175e-07 0)
(41.9384 6.81948e-07 0)
(41.9378 6.82544e-07 0)
(41.9374 6.82943e-07 0)
(41.9372 6.83222e-07 0)
(41.9372 6.83892e-07 0)
(41.9374 6.83786e-07 0)
(41.9378 6.84314e-07 0)
(41.9383 6.84609e-07 0)
(41.9389 6.84844e-07 0)
(41.9395 6.84876e-07 0)
(41.9402 6.84774e-07 0)
(41.9409 6.84585e-07 0)
(41.9415 6.84224e-07 0)
(41.9422 6.8375e-07 0)
(41.9427 6.83187e-07 0)
(41.9431 6.8247e-07 0)
(41.9434 6.81688e-07 0)
(41.9435 6.81311e-07 0)
(41.9434 6.80382e-07 0)
(41.9432 6.7899e-07 0)
(41.9428 6.78382e-07 0)
(41.9421 6.78064e-07 0)
(41.9414 6.77649e-07 0)
(41.9404 6.76861e-07 0)
(41.9393 6.7623e-07 0)
(41.9382 6.76086e-07 0)
(41.9369 6.76309e-07 0)
(41.9356 6.76789e-07 0)
(41.9344 6.77482e-07 0)
(41.9332 6.78389e-07 0)
(41.932 6.79524e-07 0)
(41.931 6.80885e-07 0)
(41.9302 6.8242e-07 0)
(41.9295 6.84128e-07 0)
(41.9289 6.85653e-07 0)
(41.9286 6.87412e-07 0)
(41.9284 6.90208e-07 0)
(41.9284 6.91791e-07 0)
(41.9286 6.93999e-07 0)
(41.9289 6.9577e-07 0)
(41.9293 6.97041e-07 0)
(41.9298 6.99975e-07 0)
(41.9304 7.01751e-07 0)
(41.931 7.02143e-07 0)
(41.9317 7.03195e-07 0)
(41.9323 7.04404e-07 0)
(41.9329 7.05428e-07 0)
(41.9334 7.06189e-07 0)
(41.9337 7.06737e-07 0)
(41.934 7.07054e-07 0)
(41.934 7.06989e-07 0)
(41.9338 7.07198e-07 0)
(41.9332 7.06362e-07 0)
(41.9324 7.05753e-07 0)
(41.9312 7.05007e-07 0)
(41.9295 7.0407e-07 0)
(41.9275 7.03292e-07 0)
(41.925 7.02343e-07 0)
(41.9221 7.01734e-07 0)
(41.9187 7.00826e-07 0)
(41.915 7.00964e-07 0)
(41.9109 7.00571e-07 0)
(41.9066 7.00907e-07 0)
(41.902 7.0149e-07 0)
(41.8973 7.02744e-07 0)
(41.8925 7.0462e-07 0)
(41.8877 7.13851e-07 0)
(41.883 7.01786e-07 0)
(41.8785 7.11959e-07 0)
(41.8741 7.15227e-07 0)
(41.87 7.18918e-07 0)
(41.866 7.21912e-07 0)
(41.8623 7.25321e-07 0)
(41.8586 7.27654e-07 0)
(41.8551 7.30421e-07 0)
(41.8516 7.31856e-07 0)
(41.8481 7.33728e-07 0)
(41.8446 7.3423e-07 0)
(41.8409 7.35679e-07 0)
(41.8372 7.35364e-07 0)
(41.8334 7.3689e-07 0)
(41.8295 7.36527e-07 0)
(41.8256 7.36914e-07 0)
(41.8216 7.38519e-07 0)
(41.8176 7.33527e-07 0)
(41.8136 7.69539e-07 0)
(41.8094 8.91542e-07 0)
(41.8051 1.7336e-06 0)
(41.8006 7.54537e-06 0)
(41.7967 4.89556e-05 0)
(41.7991 0.000353304 0)
(41.852 0.00278583 0)
(42.0684 0.039199 0)
(47.2829 0.160278 0)
(37.6439 1.27904 -3.16525e-15)
(36.5733 3.66952 6.349e-15)
(36.1557 6.39141 -1.19032e-14)
(35.7436 9.14599 2.45951e-14)
(35.0821 11.8693 -2.53768e-14)
(34.1632 14.533 -1.58548e-15)
(32.9699 17.0926 5.1967e-20)
(31.5599 19.559 -2.21893e-14)
(30.3241 22.1928 -1.02681e-13)
(29.4988 25.3307 1.00513e-13)
(28.675 28.8401 -2.49844e-14)
(27.1772 31.8952 -5.14437e-14)
(24.7564 33.905 2.65022e-14)
(21.7652 34.9944 0)
(18.5505 35.4819 2.50629e-14)
(15.2886 35.5746 2.51718e-14)
(12.1622 35.8871 -2.5276e-14)
(9.41592 37.7066 2.50917e-14)
(6.90447 41.9079 1.92782e-16)
(4.21731 49.2089 -1.87066e-16)
(38.8213 2.01877 0)
(38.1827 4.924 0)
(37.7672 8.12665 -1.61168e-15)
(37.2408 11.3142 -3.22019e-15)
(36.4351 14.4553 8.04177e-15)
(35.3185 17.5624 1.60704e-14)
(33.8552 20.5825 0)
(32.198 23.3129 9.6291e-15)
(30.8746 25.837 1.59738e-14)
(29.9939 28.7911 -3.80442e-14)
(28.8496 32.5279 2.51981e-14)
(26.558 36.4585 1.25873e-14)
(23.2089 39.3085 -1.25852e-14)
(19.3083 40.9392 1.25777e-14)
(15.2008 41.6455 0)
(11.2695 41.4339 -1.58164e-15)
(8.20454 40.637 1.59276e-15)
(6.85659 40.5878 -5.55565e-15)
(5.75761 42.9408 -7.81419e-16)
(5.0952 47.5548 0)
(41.6294 1.59905 -4.10941e-17)
(41.628 2.6386 -2.08844e-14)
(41.729 3.69579 2.12108e-14)
(41.9149 4.74808 -2.03869e-14)
(42.1383 5.86617 -2.23617e-14)
(42.3635 7.12721 8.32325e-14)
(42.5608 8.59321 -4.2131e-14)
(42.6725 10.3167 4.08283e-14)
(42.5845 12.2804 -8.30227e-14)
(42.2793 14.3306 1.32638e-15)
(41.9172 16.3154 4.09539e-14)
(41.664 18.278 0)
(41.4089 20.4567 -4.10371e-14)
(40.8891 22.9575 4.10453e-14)
(39.9477 25.7181 -3.30749e-16)
(38.4747 28.658 0)
(36.3243 31.654 3.30643e-16)
(33.3395 34.4513 0)
(29.9714 36.7009 0)
(27.1298 38.2698 0)
(45.7652 2.59125 6.28824e-16)
(45.4922 5.95582 -6.30883e-15)
(44.4852 9.95749 -1.26439e-15)
(43.2958 14.0633 2.52614e-15)
(42.2116 18.113 -2.51547e-15)
(41.1679 22.0978 -4.71493e-19)
(39.9985 26.012 -9.94652e-15)
(38.5526 29.8116 0)
(36.7948 33.4817 0)
(34.7263 37.0189 -4.89358e-15)
(32.3188 40.3777 4.86918e-15)
(29.5855 43.5486 0)
(26.5197 46.4723 -4.82448e-15)
(23.1495 49.1052 4.80924e-15)
(19.5153 51.4161 -4.79395e-15)
(15.6621 53.3797 9.55879e-15)
(11.64 54.9735 -4.76938e-15)
(7.51446 56.1826 0)
(3.37289 57.0307 -2.37325e-15)
(-0.428317 57.5104 0)
(48.7251 1.79002 -9.5937e-16)
(49.6796 4.58729 7.35421e-15)
(49.3827 7.94745 5.11626e-15)
(48.5711 11.469 1.02249e-14)
(47.7445 15.1196 0)
(46.9235 18.8986 0)
(45.9698 22.7581 1.01248e-14)
(44.7573 26.6171 2.51986e-15)
(43.222 30.4593 -5.01676e-15)
(41.3711 34.2176 2.49788e-15)
(39.1676 37.8521 1.98974e-14)
(36.6286 41.3005 -1.23894e-14)
(33.7467 44.5036 1.23531e-14)
(30.5337 47.4148 -2.46354e-15)
(27.0164 49.9986 -9.83511e-15)
(23.23 52.2217 -1.71917e-14)
(19.2176 54.0438 -8.58957e-15)
(15.0324 55.3972 -1.22719e-15)
(10.7601 56.1342 7.06159e-15)
(6.67121 55.9031 3.07854e-16)
(1.28679 60.2839 0)
(1.21462 57.7595 0)
(1.10285 55.5373 0)
(0.981278 56.5175 0)
(1.00643 57.8732 0)
(1.05064 58.1709 0)
(1.05641 57.9335 0)
(1.05408 57.7696 0)
(1.04686 57.7728 0)
(1.04432 57.8148 0)
(1.04339 57.8133 0)
(1.04208 57.7853 0)
(1.04028 57.7577 0)
(1.03839 57.7381 0)
(1.03668 57.7257 0)
(1.03531 57.7181 0)
(1.03435 57.7132 0)
(1.03365 57.7092 0)
(1.03313 57.7044 0)
(1.03266 57.6976 0)
(1.03187 57.6899 0)
(1.02991 57.69 0)
(1.02756 57.706 0)
(1.02667 57.7298 0)
(1.02769 57.7437 0)
(1.02858 57.7377 0)
(1.02882 57.7183 0)
(1.02841 57.6954 0)
(1.02762 57.6712 0)
(1.02662 57.6458 0)
(1.02549 57.6204 0)
(1.02422 57.5966 0)
(1.02269 57.5769 0)
(1.02069 57.5635 0)
(1.01823 57.5569 0)
(1.01493 57.5555 0)
(1.01036 57.555 0)
(1.00406 57.5508 0)
(0.995645 57.54 0)
(0.984581 57.5221 0)
(0.970176 57.4994 0)
(0.951651 57.4788 0)
(0.92911 57.4704 0)
(0.902764 57.4766 0)
(0.872812 57.4827 0)
(0.839307 57.4672 0)
(0.802263 57.4142 0)
(0.761133 57.3117 0)
(0.716411 57.1521 0)
(0.668866 56.9321 0)
(0.619392 56.6502 0)
(0.568899 56.3049 0)
(0.518223 55.8935 0)
(0.46807 55.4106 0)
(0.418982 54.8487 0)
(0.371285 54.1989 0)
(0.325486 53.4522 0)
(0.281778 52.6042 0)
(0.240541 51.6584 0)
(0.202458 50.6277 0)
(0.168028 49.5367 0)
(0.137385 48.4215 0)
(0.111181 47.3231 0)
(0.0890985 46.282 0)
(0.0708891 45.3335 0)
(0.0561337 44.5014 0)
(0.0442914 43.7965 0)
(0.0348399 43.2179 0)
(0.027266 42.7556 0)
(0.0212055 42.3949 0)
(0.0163579 42.1185 0)
(0.0124953 41.9098 0)
(0.00943994 41.7541 0)
(0.00704751 41.6385 0)
(0.00519723 41.5531 0)
(0.00378386 41.4898 0)
(0.00272059 41.4425 0)
(0.00193165 41.4068 0)
(0.00135443 41.3793 0)
(0.000938087 41.3577 0)
(0.000641919 41.3401 0)
(0.000434079 41.3254 0)
(0.00029015 41.3128 0)
(0.000191766 41.3016 0)
(0.000125364 41.2916 0)
(8.10995e-05 41.2824 0)
(5.19495e-05 41.2738 0)
(3.29801e-05 41.2658 0)
(2.07791e-05 41.2584 0)
(1.30212e-05 41.2513 0)
(8.14379e-06 41.2447 0)
(5.11145e-06 41.2386 0)
(3.24705e-06 41.2328 0)
(2.11202e-06 41.2274 0)
(1.42697e-06 41.2224 0)
(1.02516e-06 41.2177 0)
(7.80279e-07 41.2134 0)