/*--------------------------------*- C++ -*----------------------------------*\
| =========                 |                                                 |
| \\      /  F ield         | OpenFOAM: The Open Source CFD Toolbox           |
|  \\    /   O peration     | Version:  3.0.x                                 |
|   \\  /    A nd           | Web:      www.OpenFOAM.org                      |
|    \\/     M anipulation  |                                                 |
\*---------------------------------------------------------------------------*/
FoamFile
{
    version     2.0;
    format      ascii;
    class       volScalarField;
    location    "0.25";
    object      T;
}
// * * * * * * * * * * * * * * * * * * * * * * * * * * * * * * * * * * * * * //

dimensions      [0 0 0 1 0 0 0];

internalField   nonuniform List<scalar> 
6900
(
774.318
774.317
774.314
774.311
774.31
774.309
774.309
774.309
774.309
774.309
774.307
774.305
774.302
774.299
774.296
774.292
774.288
774.284
774.281
774.278
774.276
774.274
774.273
774.272
774.271
774.269
774.267
774.263
774.259
774.255
774.251
774.248
774.246
774.244
774.242
774.241
774.239
774.238
774.237
774.236
774.235
774.234
774.233
774.231
774.23
774.229
774.228
774.227
774.227
774.226
774.225
774.224
774.223
774.222
774.221
774.22
774.22
774.219
774.218
774.217
774.216
774.216
774.215
774.214
774.214
774.213
774.212
774.212
774.211
774.211
774.21
774.21
774.209
774.209
774.209
774.208
774.208
774.208
774.208
774.208
774.208
774.208
774.208
774.208
774.208
774.208
774.208
774.209
774.209
774.209
774.209
774.209
774.209
774.209
774.209
774.209
774.209
774.209
774.209
774.208
774.208
774.208
774.208
774.208
774.207
774.207
774.207
774.207
774.207
774.207
774.206
774.206
774.206
774.206
774.206
774.206
774.207
774.207
774.207
774.207
774.207
774.207
774.207
774.207
774.208
774.208
774.207
774.207
774.207
774.207
774.207
774.207
774.206
774.206
774.205
774.205
774.204
774.203
774.202
774.202
774.201
774.2
774.199
774.198
774.197
774.196
774.195
774.194
774.193
774.192
774.191
774.191
774.19
774.189
774.188
774.187
774.186
774.186
774.185
774.184
774.183
774.182
774.181
774.18
774.178
774.177
774.175
774.174
774.172
774.171
774.169
774.168
774.166
774.164
774.162
774.16
774.159
774.157
774.155
774.153
774.151
774.149
774.147
774.146
774.144
774.142
774.141
774.139
774.138
774.137
774.135
774.134
774.133
774.132
774.13
774.13
774.128
774.128
774.127
774.193
774.317
774.315
774.312
774.309
774.308
774.307
774.307
774.307
774.307
774.307
774.306
774.303
774.3
774.298
774.294
774.291
774.287
774.283
774.28
774.277
774.274
774.273
774.271
774.271
774.27
774.268
774.265
774.261
774.257
774.254
774.25
774.247
774.245
774.243
774.241
774.239
774.238
774.237
774.236
774.235
774.234
774.232
774.231
774.23
774.229
774.228
774.227
774.226
774.225
774.224
774.224
774.223
774.222
774.221
774.22
774.219
774.218
774.218
774.217
774.216
774.215
774.215
774.214
774.213
774.212
774.212
774.211
774.21
774.21
774.209
774.209
774.208
774.208
774.208
774.207
774.207
774.207
774.207
774.207
774.207
774.207
774.207
774.207
774.207
774.207
774.207
774.207
774.207
774.207
774.208
774.208
774.208
774.208
774.208
774.208
774.208
774.208
774.208
774.207
774.207
774.207
774.207
774.207
774.206
774.206
774.206
774.206
774.206
774.206
774.205
774.205
774.205
774.205
774.205
774.205
774.205
774.205
774.206
774.206
774.206
774.206
774.206
774.206
774.206
774.206
774.206
774.206
774.206
774.206
774.206
774.206
774.205
774.205
774.205
774.204
774.203
774.203
774.202
774.201
774.2
774.2
774.199
774.198
774.197
774.196
774.195
774.194
774.193
774.192
774.191
774.19
774.189
774.189
774.188
774.187
774.186
774.185
774.184
774.184
774.183
774.182
774.181
774.18
774.178
774.177
774.176
774.174
774.173
774.171
774.17
774.168
774.166
774.165
774.163
774.161
774.159
774.157
774.156
774.154
774.152
774.15
774.148
774.146
774.145
774.143
774.141
774.14
774.138
774.137
774.136
774.134
774.133
774.132
774.131
774.129
774.129
774.127
774.127
774.126
774.187
774.317
774.315
774.312
774.31
774.308
774.307
774.307
774.307
774.307
774.307
774.306
774.303
774.3
774.298
774.294
774.291
774.287
774.283
774.28
774.277
774.274
774.273
774.271
774.271
774.27
774.268
774.265
774.261
774.258
774.254
774.25
774.247
774.245
774.243
774.241
774.239
774.238
774.237
774.236
774.235
774.234
774.232
774.231
774.23
774.229
774.228
774.227
774.226
774.225
774.224
774.224
774.223
774.222
774.221
774.22
774.219
774.218
774.218
774.217
774.216
774.215
774.215
774.214
774.213
774.212
774.212
774.211
774.21
774.21
774.209
774.209
774.208
774.208
774.208
774.207
774.207
774.207
774.207
774.207
774.207
774.207
774.207
774.207
774.207
774.207
774.207
774.207
774.207
774.207
774.208
774.208
774.208
774.208
774.208
774.208
774.208
774.208
774.208
774.207
774.207
774.207
774.207
774.207
774.206
774.206
774.206
774.206
774.206
774.206
774.205
774.205
774.205
774.205
774.205
774.205
774.205
774.205
774.206
774.206
774.206
774.206
774.206
774.206
774.206
774.206
774.206
774.206
774.206
774.206
774.206
774.206
774.205
774.205
774.205
774.204
774.203
774.203
774.202
774.201
774.2
774.2
774.199
774.198
774.197
774.196
774.195
774.194
774.193
774.192
774.191
774.19
774.189
774.189
774.188
774.187
774.186
774.185
774.184
774.184
774.183
774.182
774.181
774.18
774.178
774.177
774.176
774.174
774.173
774.171
774.17
774.168
774.166
774.165
774.163
774.161
774.159
774.157
774.156
774.154
774.152
774.15
774.148
774.146
774.145
774.143
774.141
774.14
774.138
774.137
774.135
774.134
774.133
774.132
774.131
774.129
774.129
774.127
774.126
774.124
774.126
774.317
774.315
774.312
774.309
774.308
774.307
774.307
774.307
774.307
774.307
774.306
774.303
774.3
774.298
774.294
774.291
774.287
774.283
774.28
774.277
774.274
774.273
774.271
774.271
774.27
774.268
774.265
774.261
774.257
774.254
774.25
774.247
774.245
774.243
774.241
774.239
774.238
774.237
774.236
774.235
774.234
774.232
774.231
774.23
774.229
774.228
774.227
774.226
774.225
774.224
774.224
774.223
774.222
774.221
774.22
774.219
774.218
774.218
774.217
774.216
774.215
774.215
774.214
774.213
774.212
774.212
774.211
774.21
774.21
774.209
774.209
774.208
774.208
774.208
774.207
774.207
774.207
774.207
774.207
774.207
774.207
774.207
774.207
774.207
774.207
774.207
774.207
774.207
774.207
774.208
774.208
774.208
774.208
774.208
774.208
774.208
774.208
774.208
774.207
774.207
774.207
774.207
774.207
774.206
774.206
774.206
774.206
774.206
774.206
774.205
774.205
774.205
774.205
774.205
774.205
774.205
774.205
774.206
774.206
774.206
774.206
774.206
774.206
774.206
774.206
774.206
774.206
774.206
774.206
774.206
774.206
774.205
774.205
774.205
774.204
774.203
774.203
774.202
774.201
774.2
774.2
774.199
774.198
774.197
774.196
774.195
774.194
774.193
774.192
774.191
774.19
774.189
774.189
774.188
774.187
774.186
774.185
774.184
774.184
774.183
774.182
774.181
774.18
774.178
774.177
774.176
774.174
774.173
774.171
774.17
774.168
774.166
774.165
774.163
774.161
774.159
774.157
774.156
774.154
774.152
774.15
774.148
774.146
774.145
774.143
774.141
774.14
774.138
774.137
774.135
774.134
774.133
774.132
774.13
774.13
774.128
774.128
774.123
774.127
774.004
774.318
774.317
774.314
774.311
774.31
774.309
774.309
774.309
774.309
774.309
774.307
774.305
774.302
774.299
774.296
774.292
774.288
774.284
774.281
774.278
774.276
774.274
774.273
774.272
774.271
774.269
774.267
774.263
774.259
774.255
774.251
774.248
774.246
774.244
774.242
774.241
774.239
774.238
774.237
774.236
774.235
774.234
774.233
774.231
774.23
774.229
774.228
774.227
774.227
774.226
774.225
774.224
774.223
774.222
774.221
774.22
774.22
774.219
774.218
774.217
774.216
774.216
774.215
774.214
774.214
774.213
774.212
774.212
774.211
774.211
774.21
774.21
774.209
774.209
774.209
774.208
774.208
774.208
774.208
774.208
774.208
774.208
774.208
774.208
774.208
774.208
774.208
774.209
774.209
774.209
774.209
774.209
774.209
774.209
774.209
774.209
774.209
774.209
774.209
774.208
774.208
774.208
774.208
774.208
774.207
774.207
774.207
774.207
774.207
774.207
774.206
774.206
774.206
774.206
774.206
774.206
774.207
774.207
774.207
774.207
774.207
774.207
774.207
774.207
774.208
774.208
774.207
774.207
774.207
774.207
774.207
774.207
774.206
774.206
774.205
774.205
774.204
774.203
774.202
774.202
774.201
774.2
774.199
774.198
774.197
774.196
774.195
774.194
774.193
774.192
774.191
774.191
774.19
774.189
774.188
774.187
774.186
774.186
774.185
774.184
774.183
774.182
774.181
774.179
774.178
774.177
774.176
774.174
774.172
774.171
774.169
774.167
774.166
774.164
774.162
774.16
774.159
774.157
774.155
774.153
774.151
774.149
774.148
774.146
774.144
774.142
774.141
774.139
774.138
774.136
774.136
774.134
774.133
774.132
774.131
774.129
774.129
774.124
774.135
773.919
774.177
774.19
774.188
774.187
774.184
774.179
774.174
774.17
774.172
774.179
774.167
774.144
774.131
774.114
774.072
774.044
774.046
774.057
774.078
773.994
774.164
774.167
774.165
774.16
774.155
774.149
774.14
774.134
774.135
774.141
774.127
774.096
774.09
774.08
774.041
773.988
773.985
773.996
774.015
773.98
774.125
774.124
774.121
774.117
774.111
774.104
774.097
774.089
774.079
774.071
774.064
774.061
774.057
774.048
774.036
774.027
774.019
774.012
774.002
774.003
774.056
774.057
774.062
774.061
774.053
774.04
774.025
774.001
773.988
773.965
773.945
773.934
773.915
773.894
773.882
773.867
773.856
773.842
773.835
773.826
774.004
773.984
773.98
773.982
773.981
773.976
773.964
773.949
773.934
773.921
773.903
773.892
773.875
773.867
773.853
773.848
773.839
773.84
773.846
773.871
773.849
773.805
773.797
773.765
773.765
773.78
773.78
773.768
773.762
773.763
773.765
773.765
773.763
773.762
773.761
773.761
773.76
773.759
773.758
773.757
773.756
773.755
773.754
773.752
773.751
773.749
773.747
773.746
773.744
773.742
773.739
773.736
773.734
773.733
773.732
773.731
773.731
773.73
773.729
773.724
773.718
773.716
773.716
773.718
773.723
773.725
773.726
773.726
773.727
773.727
773.728
773.73
773.738
773.783
773.963
774.19
774.294
774.303
774.235
773.994
773.775
773.661
773.618
773.611
773.616
773.634
773.649
773.658
773.664
773.667
773.668
773.669
773.67
773.669
773.669
773.668
773.667
773.666
773.665
773.663
773.662
773.661
773.659
773.657
773.656
773.654
773.652
773.651
773.649
773.647
773.645
773.643
773.642
773.64
773.638
773.637
773.635
773.633
773.632
773.631
773.629
773.628
773.627
773.625
773.624
773.623
773.622
773.621
773.62
773.619
773.618
773.618
773.617
773.616
773.615
773.614
773.613
773.612
773.611
773.61
773.609
773.608
773.607
773.605
773.604
773.603
773.601
773.6
773.598
773.596
773.594
773.593
773.591
773.589
773.587
773.585
773.583
773.581
773.579
773.577
773.576
773.574
773.572
773.57
773.569
773.567
773.566
773.565
773.564
773.562
773.561
773.561
773.56
773.559
773.559
773.558
773.558
773.558
773.558
773.557
773.557
773.557
773.557
773.557
773.557
773.557
773.556
773.556
773.556
773.556
773.555
773.555
773.554
773.554
773.553
773.553
773.552
773.551
773.551
773.55
773.549
773.548
773.548
773.547
773.546
773.545
773.544
773.543
773.542
773.541
773.541
773.54
773.539
773.539
773.539
773.538
773.538
773.534
773.54
773.368
773.822
773.813
773.804
773.776
773.78
773.796
773.794
773.782
773.778
773.78
773.782
773.781
773.779
773.779
773.779
773.779
773.778
773.777
773.777
773.776
773.775
773.773
773.771
773.769
773.767
773.766
773.765
773.763
773.761
773.758
773.756
773.755
773.754
773.754
773.754
773.754
773.754
773.753
773.75
773.747
773.746
773.746
773.747
773.751
773.755
773.755
773.755
773.754
773.754
773.754
773.754
773.757
773.777
773.865
774.02
774.113
774.137
774.123
774.024
773.854
773.741
773.682
773.657
773.651
773.651
773.655
773.661
773.664
773.667
773.668
773.669
773.669
773.669
773.669
773.668
773.667
773.666
773.665
773.664
773.662
773.661
773.659
773.658
773.656
773.655
773.653
773.651
773.65
773.648
773.646
773.644
773.642
773.641
773.639
773.637
773.636
773.634
773.632
773.631
773.629
773.628
773.627
773.625
773.624
773.623
773.622
773.621
773.62
773.619
773.618
773.617
773.616
773.616
773.615
773.614
773.613
773.612
773.611
773.61
773.609
773.608
773.607
773.606
773.604
773.603
773.602
773.6
773.598
773.597
773.595
773.593
773.592
773.59
773.588
773.586
773.584
773.582
773.58
773.578
773.576
773.575
773.573
773.571
773.569
773.568
773.566
773.565
773.564
773.562
773.561
773.56
773.56
773.559
773.558
773.558
773.557
773.557
773.557
773.556
773.556
773.556
773.556
773.556
773.556
773.556
773.555
773.555
773.555
773.555
773.554
773.554
773.554
773.553
773.553
773.552
773.552
773.551
773.55
773.55
773.549
773.548
773.547
773.547
773.546
773.545
773.544
773.543
773.542
773.541
773.54
773.54
773.539
773.538
773.538
773.538
773.537
773.537
773.534
773.534
773.437
774.008
774.01
774.021
774.025
774.03
774.029
774.026
774.025
774.025
774.025
774.024
774.024
774.024
774.024
774.023
774.022
774.021
774.019
774.018
774.016
774.014
774.013
774.012
774.012
774.012
774.013
774.014
774.014
774.014
774.015
774.015
774.017
774.019
774.02
774.02
774.02
774.019
774.016
774.009
773.981
773.922
773.863
773.814
773.778
773.753
773.737
773.728
773.724
773.722
773.722
773.723
773.724
773.725
773.724
773.722
773.714
773.705
773.697
773.69
773.686
773.683
773.682
773.681
773.68
773.679
773.678
773.677
773.676
773.675
773.674
773.673
773.672
773.671
773.67
773.669
773.668
773.666
773.665
773.664
773.662
773.661
773.66
773.658
773.656
773.655
773.653
773.651
773.65
773.648
773.646
773.644
773.642
773.641
773.639
773.637
773.636
773.634
773.632
773.631
773.629
773.628
773.627
773.625
773.624
773.623
773.622
773.621
773.62
773.619
773.618
773.617
773.616
773.616
773.615
773.614
773.613
773.612
773.611
773.61
773.609
773.608
773.607
773.606
773.604
773.603
773.602
773.6
773.598
773.597
773.595
773.593
773.592
773.59
773.588
773.586
773.584
773.582
773.58
773.578
773.576
773.575
773.573
773.571
773.569
773.568
773.566
773.565
773.564
773.562
773.561
773.56
773.56
773.559
773.558
773.558
773.557
773.557
773.557
773.556
773.556
773.556
773.556
773.556
773.556
773.556
773.555
773.555
773.555
773.555
773.554
773.554
773.554
773.553
773.553
773.552
773.552
773.551
773.55
773.55
773.549
773.548
773.547
773.547
773.546
773.545
773.544
773.543
773.542
773.541
773.54
773.54
773.539
773.538
773.538
773.537
773.537
773.537
773.537
773.537
773.54
773.803
773.796
773.787
773.783
773.784
773.783
773.779
773.776
773.775
773.775
773.774
773.772
773.77
773.769
773.768
773.767
773.766
773.765
773.765
773.764
773.763
773.762
773.761
773.76
773.758
773.757
773.756
773.754
773.752
773.75
773.747
773.745
773.743
773.741
773.74
773.737
773.734
773.732
773.73
773.729
773.729
773.73
773.734
773.738
773.74
773.743
773.75
773.761
773.768
773.773
773.78
773.802
773.85
773.887
773.902
773.903
773.891
773.837
773.762
773.71
773.68
773.665
773.66
773.66
773.661
773.664
773.666
773.668
773.669
773.67
773.67
773.67
773.67
773.669
773.668
773.667
773.666
773.665
773.664
773.662
773.661
773.659
773.658
773.656
773.655
773.653
773.651
773.65
773.648
773.646
773.644
773.642
773.641
773.639
773.637
773.636
773.634
773.632
773.631
773.629
773.628
773.627
773.625
773.624
773.623
773.622
773.621
773.62
773.619
773.618
773.617
773.616
773.616
773.615
773.614
773.613
773.612
773.611
773.61
773.609
773.608
773.607
773.606
773.604
773.603
773.602
773.6
773.598
773.597
773.595
773.593
773.592
773.59
773.588
773.586
773.584
773.582
773.58
773.578
773.576
773.575
773.573
773.571
773.569
773.568
773.566
773.565
773.564
773.562
773.561
773.56
773.56
773.559
773.558
773.558
773.557
773.557
773.557
773.556
773.556
773.556
773.556
773.556
773.556
773.556
773.555
773.555
773.555
773.555
773.554
773.554
773.554
773.553
773.553
773.552
773.552
773.551
773.55
773.55
773.549
773.548
773.547
773.547
773.546
773.545
773.544
773.543
773.542
773.541
773.54
773.54
773.539
773.538
773.538
773.537
773.537
773.537
773.538
773.541
773.59
773.919
773.917
773.911
773.905
773.905
773.902
773.898
773.896
773.894
773.892
773.89
773.888
773.887
773.885
773.884
773.883
773.882
773.882
773.881
773.88
773.88
773.879
773.878
773.877
773.875
773.873
773.871
773.869
773.866
773.864
773.861
773.859
773.858
773.856
773.853
773.85
773.848
773.847
773.847
773.847
773.849
773.85
773.851
773.854
773.859
773.863
773.864
773.863
773.863
773.868
773.905
774.05
774.214
774.294
774.312
774.295
774.199
774.037
773.913
773.827
773.77
773.733
773.71
773.696
773.687
773.682
773.679
773.677
773.676
773.675
773.674
773.673
773.672
773.671
773.67
773.669
773.667
773.666
773.665
773.664
773.662
773.661
773.659
773.657
773.656
773.654
773.652
773.651
773.649
773.647
773.645
773.643
773.642
773.64
773.638
773.637
773.635
773.633
773.632
773.631
773.629
773.628
773.627
773.625
773.624
773.623
773.622
773.621
773.62
773.619
773.618
773.618
773.617
773.616
773.615
773.614
773.613
773.612
773.611
773.61
773.609
773.608
773.607
773.605
773.604
773.603
773.601
773.6
773.598
773.596
773.594
773.593
773.591
773.589
773.587
773.585
773.583
773.581
773.579
773.577
773.576
773.574
773.572
773.57
773.569
773.567
773.566
773.565
773.564
773.562
773.561
773.561
773.56
773.559
773.559
773.558
773.558
773.558
773.558
773.557
773.557
773.557
773.557
773.557
773.557
773.557
773.556
773.556
773.556
773.556
773.555
773.555
773.554
773.554
773.553
773.553
773.552
773.551
773.551
773.55
773.549
773.548
773.548
773.547
773.546
773.545
773.544
773.543
773.542
773.541
773.541
773.54
773.539
773.539
773.539
773.538
773.538
773.54
773.542
773.596
773.429
773.409
773.404
773.406
773.405
773.4
773.387
773.378
773.361
773.352
773.334
773.325
773.309
773.302
773.288
773.284
773.274
773.274
773.279
773.302
773.477
773.477
773.482
773.48
773.474
773.461
773.443
773.43
773.408
773.397
773.375
773.358
773.343
773.326
773.313
773.306
773.294
773.284
773.275
773.263
773.541
773.541
773.538
773.534
773.528
773.523
773.515
773.507
773.501
773.495
773.49
773.483
773.473
773.465
773.459
773.453
773.446
773.445
773.454
773.461
773.578
773.581
773.579
773.576
773.572
773.568
773.566
773.567
773.559
773.541
773.535
773.52
773.482
773.457
773.461
773.473
773.484
773.479
773.415
773.289
773.59
773.603
773.601
773.602
773.599
773.598
773.598
773.6
773.595
773.58
773.573
773.554
773.524
773.512
773.516
773.527
773.536
773.532
773.472
773.338
773.359
773.36
773.357
773.359
773.359
773.356
773.355
773.356
773.357
773.357
773.356
773.356
773.355
773.355
773.354
773.354
773.354
773.354
773.353
773.353
773.352
773.352
773.351
773.351
773.35
773.35
773.349
773.347
773.346
773.346
773.345
773.345
773.344
773.343
773.342
773.341
773.34
773.341
773.341
773.344
773.347
773.349
773.35
773.352
773.355
773.362
773.367
773.37
773.371
773.372
773.378
773.415
773.555
773.723
773.809
773.831
773.818
773.732
773.573
773.45
773.364
773.307
773.27
773.247
773.233
773.225
773.22
773.217
773.215
773.214
773.213
773.212
773.21
773.209
773.208
773.207
773.205
773.204
773.203
773.201
773.2
773.198
773.196
773.195
773.193
773.191
773.189
773.188
773.186
773.184
773.183
773.181
773.18
773.178
773.178
773.176
773.175
773.17
773.174
773.007
773.247
773.239
773.239
773.241
773.241
773.238
773.237
773.238
773.241
773.241
773.241
773.24
773.241
773.241
773.241
773.24
773.24
773.24
773.24
773.24
773.239
773.239
773.238
773.238
773.237
773.237
773.236
773.236
773.235
773.234
773.233
773.232
773.232
773.232
773.231
773.23
773.229
773.228
773.228
773.228
773.229
773.232
773.236
773.24
773.243
773.246
773.25
773.259
773.272
773.281
773.287
773.295
773.316
773.363
773.403
773.421
773.424
773.416
773.371
773.298
773.246
773.216
773.202
773.197
773.197
773.198
773.201
773.204
773.206
773.207
773.208
773.208
773.208
773.207
773.206
773.205
773.204
773.203
773.201
773.2
773.198
773.197
773.195
773.193
773.192
773.19
773.188
773.187
773.185
773.183
773.182
773.18
773.179
773.177
773.176
773.175
773.174
773.171
773.169
773.074
773.435
773.444
773.474
773.482
773.483
773.479
773.479
773.481
773.482
773.483
773.483
773.484
773.485
773.485
773.486
773.486
773.486
773.485
773.485
773.485
773.484
773.484
773.484
773.485
773.485
773.486
773.488
773.489
773.49
773.491
773.492
773.493
773.494
773.497
773.501
773.503
773.505
773.506
773.505
773.5
773.476
773.42
773.365
773.32
773.287
773.265
773.251
773.244
773.241
773.241
773.241
773.244
773.246
773.248
773.249
773.247
773.241
773.234
773.228
773.223
773.219
773.218
773.217
773.217
773.216
773.216
773.215
773.215
773.214
773.213
773.212
773.211
773.21
773.208
773.207
773.206
773.204
773.203
773.202
773.2
773.198
773.197
773.195
773.193
773.192
773.19
773.188
773.187
773.185
773.183
773.182
773.18
773.179
773.178
773.176
773.175
773.174
773.174
773.172
773.174
773.241
773.251
773.238
773.24
773.261
773.259
773.243
773.238
773.242
773.249
773.249
773.247
773.247
773.248
773.249
773.25
773.25
773.25
773.25
773.25
773.249
773.249
773.248
773.247
773.247
773.247
773.247
773.246
773.245
773.244
773.243
773.243
773.243
773.244
773.246
773.247
773.247
773.247
773.246
773.246
773.247
773.25
773.255
773.256
773.258
773.259
773.259
773.259
773.261
773.263
773.266
773.269
773.276
773.298
773.382
773.533
773.629
773.659
773.65
773.571
773.403
773.286
773.222
773.195
773.187
773.187
773.191
773.197
773.202
773.204
773.206
773.206
773.207
773.206
773.206
773.205
773.204
773.203
773.201
773.2
773.198
773.197
773.195
773.193
773.192
773.19
773.188
773.187
773.185
773.183
773.182
773.18
773.179
773.178
773.176
773.176
773.174
773.175
773.177
773.224
773.242
773.249
773.233
773.227
773.247
773.246
773.23
773.222
773.226
773.233
773.234
773.232
773.231
773.232
773.233
773.233
773.233
773.233
773.233
773.233
773.232
773.232
773.231
773.23
773.23
773.229
773.229
773.229
773.229
773.228
773.226
773.224
773.224
773.224
773.224
773.226
773.226
773.226
773.225
773.223
773.219
773.218
773.221
773.225
773.229
773.231
773.232
773.233
773.235
773.237
773.24
773.243
773.247
773.256
773.294
773.444
773.672
773.793
773.815
773.772
773.573
773.342
773.214
773.161
773.15
773.153
773.169
773.185
773.195
773.201
773.204
773.206
773.207
773.207
773.207
773.206
773.205
773.204
773.202
773.201
773.199
773.198
773.196
773.194
773.193
773.191
773.189
773.188
773.186
773.184
773.183
773.181
773.18
773.179
773.177
773.177
773.175
773.176
773.178
773.229
773.065
773.045
773.039
773.041
773.04
773.035
773.022
773.013
772.995
772.986
772.968
772.959
772.943
772.936
772.922
772.918
772.908
772.907
772.911
772.933
773.111
773.111
773.116
773.114
773.108
773.094
773.077
773.063
773.041
773.03
773.008
772.992
772.976
772.959
772.946
772.94
772.926
772.917
772.908
772.896
773.174
773.174
773.171
773.167
773.161
773.156
773.148
773.14
773.134
773.127
773.122
773.115
773.104
773.096
773.09
773.083
773.076
773.075
773.084
773.09
773.212
773.214
773.212
773.209
773.204
773.2
773.198
773.199
773.189
773.172
773.167
773.149
773.111
773.09
773.095
773.107
773.117
773.108
773.036
772.928
773.223
773.236
773.234
773.234
773.231
773.229
773.23
773.231
773.225
773.211
773.204
773.183
773.154
773.144
773.149
773.159
773.168
773.16
773.095
772.975
772.99
772.99
772.986
772.986
772.984
772.978
772.977
772.977
772.977
772.976
772.975
772.974
772.974
772.973
772.972
772.97
772.969
772.968
772.966
772.965
772.963
772.961
772.96
772.958
772.956
772.954
772.952
772.95
772.948
772.946
772.945
772.942
772.94
772.938
772.936
772.933
772.932
772.931
772.931
772.933
772.934
772.935
772.936
772.94
772.947
772.951
772.951
772.951
772.953
772.972
773.07
773.251
773.361
773.398
773.394
773.337
773.182
773.045
772.947
772.881
772.839
772.812
772.796
772.786
772.78
772.776
772.773
772.771
772.769
772.768
772.766
772.765
772.763
772.762
772.761
772.759
772.758
772.756
772.755
772.753
772.752
772.75
772.749
772.748
772.747
772.745
772.744
772.743
772.742
772.741
772.74
772.74
772.739
772.738
772.738
772.738
772.737
772.737
772.737
772.737
772.737
772.737
772.737
772.737
772.737
772.738
772.738
772.738
772.739
772.739
772.739
772.739
772.739
772.74
772.74
772.74
772.74
772.74
772.74
772.74
772.74
772.739
772.739
772.739
772.738
772.738
772.738
772.737
772.737
772.736
772.736
772.735
772.735
772.734
772.734
772.734
772.733
772.733
772.733
772.732
772.732
772.732
772.732
772.732
772.733
772.733
772.733
772.733
772.734
772.734
772.735
772.735
772.736
772.736
772.737
772.737
772.738
772.738
772.739
772.739
772.74
772.74
772.74
772.741
772.741
772.741
772.741
772.742
772.742
772.742
772.742
772.742
772.742
772.743
772.743
772.743
772.743
772.743
772.743
772.744
772.744
772.744
772.745
772.745
772.746
772.746
772.747
772.748
772.749
772.75
772.751
772.752
772.754
772.755
772.757
772.759
772.761
772.764
772.767
772.823
772.879
772.871
772.869
772.87
772.868
772.862
772.861
772.862
772.863
772.863
772.861
772.86
772.86
772.859
772.858
772.857
772.855
772.854
772.852
772.851
772.849
772.847
772.846
772.844
772.842
772.841
772.839
772.837
772.835
772.833
772.831
772.829
772.828
772.826
772.824
772.822
772.82
772.818
772.817
772.817
772.817
772.821
772.825
772.827
772.829
772.834
772.845
772.854
772.859
772.865
772.88
772.922
772.966
772.987
772.991
772.984
772.947
772.873
772.816
772.782
772.765
772.758
772.756
772.756
772.759
772.761
772.763
772.764
772.764
772.764
772.763
772.763
772.762
772.76
772.759
772.758
772.756
772.755
772.754
772.752
772.751
772.749
772.748
772.747
772.745
772.744
772.743
772.742
772.741
772.74
772.739
772.739
772.738
772.737
772.737
772.737
772.736
772.736
772.736
772.736
772.736
772.736
772.736
772.736
772.736
772.737
772.737
772.737
772.737
772.738
772.738
772.738
772.738
772.739
772.739
772.739
772.739
772.739
772.739
772.739
772.738
772.738
772.738
772.738
772.737
772.737
772.737
772.736
772.736
772.735
772.735
772.734
772.734
772.733
772.733
772.733
772.732
772.732
772.732
772.731
772.731
772.731
772.731
772.731
772.731
772.732
772.732
772.732
772.733
772.733
772.734
772.734
772.735
772.735
772.736
772.736
772.737
772.737
772.738
772.738
772.738
772.739
772.739
772.739
772.74
772.74
772.74
772.74
772.741
772.741
772.741
772.741
772.741
772.741
772.742
772.742
772.742
772.742
772.742
772.743
772.743
772.743
772.744
772.744
772.745
772.745
772.746
772.747
772.748
772.749
772.75
772.751
772.753
772.754
772.756
772.758
772.76
772.763
772.766
772.817
773.061
773.07
773.1
773.106
773.107
773.104
773.105
773.107
773.107
773.107
773.106
773.105
773.104
773.103
773.102
773.101
773.1
773.098
773.097
773.095
773.093
773.092
773.09
773.088
773.087
773.087
773.087
773.087
773.087
773.087
773.088
773.091
773.094
773.097
773.098
773.098
773.097
773.094
773.084
773.048
772.988
772.935
772.893
772.862
772.841
772.829
772.822
772.819
772.818
772.818
772.818
772.819
772.819
772.817
772.81
772.802
772.795
772.788
772.783
772.78
772.779
772.777
772.776
772.775
772.774
772.773
772.771
772.77
772.768
772.767
772.765
772.764
772.763
772.761
772.76
772.758
772.757
772.755
772.754
772.752
772.751
772.749
772.748
772.747
772.745
772.744
772.743
772.742
772.741
772.74
772.739
772.739
772.738
772.737
772.737
772.737
772.736
772.736
772.736
772.736
772.736
772.736
772.736
772.736
772.736
772.737
772.737
772.737
772.737
772.738
772.738
772.738
772.738
772.739
772.739
772.739
772.739
772.739
772.739
772.739
772.738
772.738
772.738
772.738
772.737
772.737
772.737
772.736
772.736
772.735
772.735
772.734
772.734
772.733
772.733
772.733
772.732
772.732
772.732
772.731
772.731
772.731
772.731
772.731
772.731
772.732
772.732
772.732
772.733
772.733
772.734
772.734
772.735
772.735
772.736
772.736
772.737
772.737
772.738
772.738
772.738
772.739
772.739
772.739
772.74
772.74
772.74
772.74
772.741
772.741
772.741
772.741
772.741
772.741
772.742
772.742
772.742
772.742
772.742
772.743
772.743
772.743
772.744
772.744
772.745
772.745
772.746
772.747
772.748
772.749
772.75
772.751
772.753
772.754
772.756
772.758
772.76
772.762
772.764
772.769
772.866
772.88
772.865
772.871
772.891
772.883
772.868
772.866
772.871
772.874
772.872
772.869
772.868
772.868
772.868
772.866
772.864
772.863
772.862
772.86
772.858
772.857
772.855
772.853
772.851
772.85
772.848
772.846
772.844
772.842
772.84
772.839
772.838
772.837
772.837
772.837
772.836
772.834
772.832
772.832
772.834
772.838
772.841
772.844
772.845
772.845
772.844
772.844
772.844
772.844
772.847
772.86
772.92
773.067
773.177
773.217
773.214
773.152
772.989
772.862
772.79
772.758
772.748
772.747
772.749
772.755
772.759
772.761
772.762
772.763
772.762
772.762
772.761
772.76
772.759
772.758
772.756
772.755
772.754
772.752
772.751
772.749
772.748
772.747
772.745
772.744
772.743
772.742
772.741
772.74
772.739
772.739
772.738
772.737
772.737
772.737
772.736
772.736
772.736
772.736
772.736
772.736
772.736
772.736
772.736
772.737
772.737
772.737
772.737
772.738
772.738
772.738
772.738
772.739
772.739
772.739
772.739
772.739
772.739
772.739
772.738
772.738
772.738
772.738
772.737
772.737
772.737
772.736
772.736
772.735
772.735
772.734
772.734
772.733
772.733
772.733
772.732
772.732
772.732
772.731
772.731
772.731
772.731
772.731
772.731
772.732
772.732
772.732
772.733
772.733
772.734
772.734
772.735
772.735
772.736
772.736
772.737
772.737
772.738
772.738
772.738
772.739
772.739
772.739
772.74
772.74
772.74
772.74
772.741
772.741
772.741
772.741
772.741
772.741
772.742
772.742
772.742
772.742
772.742
772.743
772.743
772.743
772.744
772.744
772.745
772.745
772.746
772.747
772.748
772.749
772.75
772.751
772.753
772.754
772.756
772.758
772.76
772.759
772.76
772.67
772.867
772.879
772.86
772.858
772.877
772.871
772.854
772.85
772.854
772.858
772.857
772.853
772.851
772.851
772.851
772.85
772.848
772.847
772.845
772.844
772.842
772.84
772.838
772.837
772.835
772.833
772.832
772.83
772.828
772.826
772.824
772.822
772.82
772.819
772.819
772.818
772.817
772.815
772.812
772.807
772.803
772.804
772.807
772.813
772.816
772.816
772.816
772.817
772.818
772.819
772.821
772.826
772.852
772.972
773.208
773.346
773.378
773.347
773.169
772.926
772.786
772.725
772.709
772.711
772.725
772.742
772.752
772.757
772.76
772.762
772.762
772.762
772.762
772.761
772.76
772.759
772.757
772.756
772.755
772.753
772.752
772.75
772.749
772.748
772.747
772.745
772.744