/*--------------------------------*- C++ -*----------------------------------*\
| =========                 |                                                 |
| \\      /  F ield         | OpenFOAM: The Open Source CFD Toolbox           |
|  \\    /   O peration     | Version:  3.0.x                                 |
|   \\  /    A nd           | Web:      www.OpenFOAM.org                      |
|    \\/     M anipulation  |                                                 |
\*---------------------------------------------------------------------------*/
FoamFile
{
    version     2.0;
    format      ascii;
    class       surfaceScalarField;
    location    "0.014";
    object      phi;
}
// * * * * * * * * * * * * * * * * * * * * * * * * * * * * * * * * * * * * * //

dimensions      [1 0 -1 0 0 0 0];

internalField   nonuniform List<scalar> 
999
(
3845.64
3845.64
3845.64
3845.64
3845.64
3845.64
3845.64
3845.64
3845.64
3845.64
3845.64
3845.64
3845.64
3845.64
3845.64
3845.64
3845.64
3845.64
3845.64
3845.64
3845.64
3845.64
3845.64
3845.64
3845.64
3845.64
3845.64
3845.64
3845.64
3845.64
3845.64
3845.64
3845.64
3845.64
3845.64
3845.64
3845.64
3845.64
3845.64
3845.64
3845.64
3845.64
3845.64
3845.64
3845.64
3845.64
3845.64
3845.64
3845.64
3845.64
3845.64
3845.64
3845.64
3845.64
3845.64
3845.64
3845.64
3845.64
3845.64
3845.64
3845.63
3845.63
3845.63
3845.63
3845.63
3845.63
3845.63
3845.63
3845.63
3845.63
3845.62
3845.62
3845.62
3845.61
3845.6
3845.6
3845.59
3845.57
3845.56
3845.54
3845.51
3845.48
3845.45
3845.4
3845.34
3845.27
3845.18
3845.07
3844.94
3844.77
3844.57
3844.31
3844
3843.61
3843.13
3842.54
3841.82
3840.92
3839.82
3838.46
3836.79
3834.74
3832.21
3829.11
3825.3
3820.63
3814.89
3807.87
3799.28
3788.76
3775.93
3760.28
3741.23
3718.1
3690.08
3656.23
3615.51
3566.72
3508.57
3439.69
3358.7
3264.25
3155.22
3030.77
2890.56
2734.89
2564.84
2382.35
2190.23
1991.98
1791.65
1593.45
1401.45
1219.24
1049.67
894.752
755.604
632.529
525.159
432.619
353.697
286.998
231.067
184.479
145.9
114.124
88.0885
66.8758
49.7091
35.9405
25.0362
16.5596
10.1531
5.51845
2.39708
0.551794
-0.247244
-0.285799
-0.209316
-0.0886917
0.0481342
0.200162
0.327771
0.429465
0.510553
0.575759
0.626564
0.665554
0.695377
0.718105
0.735178
0.74747
0.755768
0.760926
0.763668
0.764495
0.763775
0.761846
0.759024
0.755542
0.751521
0.747024
0.742116
0.736888
0.731441
0.725866
0.72024
0.714619
0.70904
0.703517
0.698043
0.692607
0.6872
0.681824
0.67649
0.671213
0.666006
0.660878
0.655831
0.650859
0.645959
0.641125
0.636356
0.631655
0.627023
0.62246
0.617963
0.613527
0.609149
0.604824
0.600554
0.59634
0.592188
0.588098
0.584072
0.580105
0.576191
0.572324
0.568498
0.564711
0.560964
0.557259
0.553601
0.549993
0.546435
0.542927
0.539466
0.536049
0.532674
0.529337
0.526039
0.522776
0.51955
0.516358
0.513202
0.510079
0.50699
0.503933
0.50091
0.49792
0.494961
0.492035
0.489139
0.486274
0.483438
0.480632
0.477856
0.475109
0.472392
0.469702
0.467039
0.464402
0.46179
0.459199
0.456631
0.454084
0.451558
0.449053
0.446571
0.444113
0.441677
0.439266
0.436879
0.434516
0.432176
0.429859
0.427564
0.425291
0.423039
0.420807
0.418596
0.416405
0.414233
0.41208
0.409946
0.407829
0.40573
0.403647
0.401581
0.399531
0.397496
0.395477
0.393474
0.391487
0.389516
0.387561
0.385621
0.383698
0.38179
0.379897
0.378019
0.376156
0.374306
0.372471
0.370651
0.368844
0.367051
0.365273
0.363508
0.361758
0.360021
0.358297
0.356587
0.354889
0.353204
0.351531
0.34987
0.348221
0.346585
0.34496
0.343347
0.341747
0.340158
0.338581
0.337016
0.335462
0.333919
0.332387
0.330866
0.329355
0.327855
0.326364
0.324884
0.323413
0.321953
0.320502
0.31906
0.317628
0.316205
0.314792
0.313388
0.311993
0.310607
0.309231
0.307863
0.306505
0.305156
0.303816
0.302485
0.301163
0.299849
0.298544
0.297248
0.29596
0.29468
0.293408
0.292144
0.290887
0.289637
0.288395
0.28716
0.285932
0.284711
0.283496
0.282289
0.281088
0.279894
0.278707
0.277527
0.276354
0.275187
0.274028
0.272876
0.271731
0.270592
0.269461
0.268336
0.267219
0.266108
0.265003
0.263905
0.262813
0.261728
0.260648
0.259575
0.258507
0.257446
0.25639
0.25534
0.254296
0.253258
0.252225
0.251198
0.250177
0.249161
0.248151
0.247146
0.246146
0.245151
0.244162
0.243177
0.242198
0.241223
0.240254
0.239289
0.238329
0.237374
0.236425
0.23548
0.23454
0.233605
0.232675
0.231751
0.230831
0.229917
0.229008
0.228104
0.227205
0.22631
0.225421
0.224537
0.223657
0.222782
0.221911
0.221045
0.220183
0.219325
0.218471
0.217621
0.216775
0.215933
0.215095
0.214261
0.21343
0.212604
0.211781
0.210962
0.210147
0.209336
0.208529
0.207726
0.206926
0.206131
0.205339
0.204552
0.203768
0.202988
0.202212
0.20144
0.200671
0.199905
0.199143
0.198385
0.19763
0.196878
0.196129
0.195383
0.19464
0.193901
0.193164
0.19243
0.191699
0.190971
0.190245
0.189523
0.188803
0.188087
0.187373
0.186662
0.185955
0.18525
0.184548
0.18385
0.183155
0.182463
0.181774
0.181089
0.180407
0.179728
0.179052
0.17838
0.17771
0.177044
0.176381
0.175721
0.175064
0.17441
0.173759
0.17311
0.172464
0.171821
0.171181
0.170543
0.169908
0.169276
0.168646
0.168019
0.167394
0.166772
0.166153
0.165536
0.164922
0.164311
0.163702
0.163096
0.162492
0.161891
0.161293
0.160697
0.160104
0.159514
0.158926
0.15834
0.157757
0.157176
0.156597
0.156021
0.155446
0.154874
0.154304
0.153736
0.153171
0.152607
0.152045
0.151485
0.150927
0.150371
0.149816
0.149264
0.148714
0.148165
0.147619
0.147074
0.146532
0.145991
0.145452
0.144915
0.144381
0.143848
0.143317
0.142788
0.142261
0.141735
0.141212
0.140691
0.140171
0.139653
0.139137
0.138622
0.13811
0.137599
0.137089
0.136582
0.136075
0.135571
0.135068
0.134567
0.134067
0.133569
0.133072
0.132577
0.132084
0.131592
0.131102
0.130614
0.130128
0.129643
0.12916
0.128678
0.128199
0.127721
0.127245
0.126771
0.126298
0.125828
0.125359
0.124892
0.124427
0.123963
0.123501
0.123041
0.122583
0.122126
0.121671
0.121218
0.120766
0.120316
0.119867
0.11942
0.118975
0.118532
0.11809
0.117649
0.11721
0.116773
0.116338
0.115904
0.115471
0.11504
0.114611
0.114183
0.113757
0.113332
0.112909
0.112487
0.112066
0.111647
0.111229
0.110812
0.110397
0.109983
0.109571
0.10916
0.10875
0.108341
0.107934
0.107528
0.107123
0.106719
0.106317
0.105916
0.105517
0.105118
0.104721
0.104326
0.103931
0.103538
0.103147
0.102756
0.102367
0.101978
0.101591
0.101205
0.100821
0.100437
0.100055
0.099673
0.0992925
0.0989131
0.0985347
0.0981573
0.0977809
0.0974055
0.0970311
0.0966577
0.0962853
0.095914
0.0955436
0.0951743
0.094806
0.0944388
0.0940725
0.0937073
0.0933431
0.0929798
0.0926176
0.0922563
0.0918961
0.0915367
0.0911783
0.0908207
0.0904641
0.0901084
0.0897535
0.0893994
0.0890461
0.0886937
0.0883421
0.0879913
0.0876413
0.087292
0.0869435
0.0865958
0.0862489
0.0859027
0.0855573
0.0852127
0.0848689
0.0845258
0.0841836
0.0838421
0.0835015
0.0831616
0.0828226
0.0824844
0.0821471
0.0818106
0.081475
0.0811402
0.0808064
0.0804734
0.0801414
0.0798102
0.07948
0.0791506
0.0788222
0.0784946
0.0781679
0.0778422
0.0775172
0.0771931
0.0768699
0.0765474
0.0762257
0.0759047
0.0755845
0.075265
0.0749461
0.074628
0.0743104
0.0739936
0.0736773
0.0733617
0.0730467
0.0727324
0.0724187
0.0721058
0.0717935
0.0714819
0.0711711
0.0708611
0.070552
0.0702436
0.0699362
0.0696296
0.069324
0.0690193
0.0687156
0.0684128
0.068111
0.06781
0.06751
0.0672109
0.0669126
0.0666152
0.0663185
0.0660225
0.0657272
0.0654325
0.0651383
0.0648448
0.0645517
0.0642591
0.0639669
0.0636752
0.0633839
0.0630931
0.0628028
0.062513
0.0622236
0.0619349
0.0616468
0.0613593
0.0610725
0.0607865
0.0605014
0.060217
0.0599336
0.059651
0.0593694
0.0590886
0.0588088
0.0585299
0.0582518
0.0579745
0.057698
0.0574221
0.0571468
0.0568721
0.0565978
0.0563239
0.0560503
0.055777
0.0555038
0.0552309
0.054958
0.0546853
0.0544127
0.0541402
0.0538679
0.0535959
0.0533242
0.0530528
0.0527819
0.0525115
0.0522417
0.0519727
0.0517044
0.051437
0.0511706
0.0509051
0.0506405
0.050377
0.0501144
0.0498528
0.0495921
0.0493322
0.0490731
0.0488146
0.0485566
0.0482991
0.0480419
0.0477849
0.0475281
0.0472713
0.0470146
0.0467577
0.0465007
0.0462436
0.0459863
0.0457289
0.0454715
0.0452141
0.0449568
0.0446997
0.0444429
0.0441865
0.0439306
0.0436753
0.0434207
0.043167
0.0429141
0.0426622
0.0424112
0.0421611
0.041912
0.0416638
0.0414164
0.0411698
0.0409238
0.0406785
0.0404336
0.0401891
0.0399448
0.0397006
0.0394565
0.0392124
0.0389681
0.0387236
0.0384789
0.038234
0.0379888
0.0377434
0.0374978
0.037252
0.0370063
0.0367606
0.0365151
0.0362699
0.0360251
0.0357809
0.0355374
0.0352946
0.0350527
0.0348118
0.0345718
0.0343328
0.0340948
0.0338577
0.0336215
0.033386
0.0331512
0.0329169
0.0326831
0.0324497
0.0322164
0.0319832
0.03175
0.0315166
0.0312831
0.0310493
0.0308151
0.0305806
0.0303456
0.0301102
0.0298743
0.0296379
0.0294012
0.0291641
0.0289268
0.0286893
0.028452
0.0282149
0.0279782
0.0277421
0.0275069
0.0272725
0.027039
0.0268065
0.026575
0.0263443
0.0261145
0.0258854
0.025657
0.0254291
0.0252017
0.0249745
0.0247476
0.0245207
0.0242937
0.0240664
0.0238388
0.0236109
0.0233827
0.0231543
0.0229259
0.0226977
0.0224695
0.0222415
0.0220133
0.0217848
0.0215428
0.0213346
0.0210694
0.0208764
0.0205939
0.0204164
0.0201258
0.0199584
0.0196547
0.0194404
0.0194181
0.0203601
0.0189892
0.0186234
0.018329
0.0181716
0.0178753
0.0177305
0.0174271
0.0173034
0.0169962
0.0168868
0.016567
0.0164654
0.0161283
0.0160336
0.0156803
0.0155942
0.0152274
0.0151509
0.014773
0.0147056
0.0143186
0.0142583
0.0138643
0.0138082
0.0134098
0.0133543
0.0129549
0.0128962
0.0125006
0.0124346
0.0120487
0.0119709
0.0116009
0.0115062
0.0111588
0.0110412
0.0107233
0.0105768
0.0102955
0.0101137
0.00987572
0.00965244
0.009464
0.00919286
0.00905918
0.00873416
0.00865924
0.00827508
0.00826171
0.00781452
0.00786422
0.00735189
0.00746482
0.0068873
0.00706203
0.00642146
0.00665474
0.00595549
0.00624208
0.00549073
0.00582338
0.00502869
0.00539828
0.00457104
0.00496671
0.00411954
0.004529
0.00367602
0.00408582
0.00324217
0.00363809
0.00281945
0.00318689
0.00240888
0.0027333
0.00201089
0.00227828
0.00162522
0.0018226
0.00125085
0.00136676
0.000886084
0.000911032
0.000528682
0.000455763
0.000175785
)
;

boundaryField
{
    inlet
    {
        type            calculated;
        value           uniform -3845.64;
    }
    backWall
    {
        type            calculated;
        value           uniform 0;
    }
    sides
    {
        type            empty;
        value           nonuniform 0();
    }
}


// ************************************************************************* //
