/*--------------------------------*- C++ -*----------------------------------*\
| =========                 |                                                 |
| \\      /  F ield         | OpenFOAM: The Open Source CFD Toolbox           |
|  \\    /   O peration     | Version:  3.0.x                                 |
|   \\  /    A nd           | Web:      www.OpenFOAM.org                      |
|    \\/     M anipulation  |                                                 |
\*---------------------------------------------------------------------------*/
FoamFile
{
    version     2.0;
    format      ascii;
    class       volScalarField;
    location    "0.49";
    object      p;
}
// * * * * * * * * * * * * * * * * * * * * * * * * * * * * * * * * * * * * * //

dimensions      [1 -1 -2 0 0 0 0];

internalField   nonuniform List<scalar> 
13800
(
1.80288e+07
1.80289e+07
1.8029e+07
1.80291e+07
1.80292e+07
1.80293e+07
1.80295e+07
1.80297e+07
1.80299e+07
1.80301e+07
1.80304e+07
1.80307e+07
1.8031e+07
1.80313e+07
1.80317e+07
1.8032e+07
1.80324e+07
1.80329e+07
1.80333e+07
1.80338e+07
1.80343e+07
1.80348e+07
1.80354e+07
1.80359e+07
1.80365e+07
1.80372e+07
1.80378e+07
1.80385e+07
1.80392e+07
1.80399e+07
1.80407e+07
1.80414e+07
1.80422e+07
1.80431e+07
1.80439e+07
1.80448e+07
1.80457e+07
1.80467e+07
1.80476e+07
1.80486e+07
1.80496e+07
1.80507e+07
1.80517e+07
1.80528e+07
1.8054e+07
1.80551e+07
1.80563e+07
1.80575e+07
1.80588e+07
1.806e+07
1.80613e+07
1.80626e+07
1.8064e+07
1.80654e+07
1.80668e+07
1.80682e+07
1.80697e+07
1.80712e+07
1.80727e+07
1.80743e+07
1.80759e+07
1.80775e+07
1.80791e+07
1.80808e+07
1.80825e+07
1.80843e+07
1.8086e+07
1.80878e+07
1.80896e+07
1.80915e+07
1.80934e+07
1.80953e+07
1.80973e+07
1.80992e+07
1.81012e+07
1.81033e+07
1.81054e+07
1.81075e+07
1.81096e+07
1.81118e+07
1.8114e+07
1.81162e+07
1.81185e+07
1.81208e+07
1.81231e+07
1.81254e+07
1.81278e+07
1.81303e+07
1.81327e+07
1.81352e+07
1.81377e+07
1.81403e+07
1.81429e+07
1.81455e+07
1.81481e+07
1.81508e+07
1.81535e+07
1.81563e+07
1.81591e+07
1.81619e+07
1.81648e+07
1.81676e+07
1.81706e+07
1.81735e+07
1.81765e+07
1.81795e+07
1.81826e+07
1.81856e+07
1.81888e+07
1.81919e+07
1.81951e+07
1.81983e+07
1.82016e+07
1.82049e+07
1.82082e+07
1.82115e+07
1.82149e+07
1.82184e+07
1.82218e+07
1.82253e+07
1.82288e+07
1.82324e+07
1.8236e+07
1.82396e+07
1.82433e+07
1.82469e+07
1.82507e+07
1.82544e+07
1.82582e+07
1.8262e+07
1.82659e+07
1.82698e+07
1.82737e+07
1.82777e+07
1.82817e+07
1.82857e+07
1.82897e+07
1.82938e+07
1.82979e+07
1.83021e+07
1.83063e+07
1.83105e+07
1.83148e+07
1.8319e+07
1.83233e+07
1.83277e+07
1.83321e+07
1.83365e+07
1.83409e+07
1.83454e+07
1.83499e+07
1.83544e+07
1.8359e+07
1.83635e+07
1.83682e+07
1.83728e+07
1.83775e+07
1.83822e+07
1.83869e+07
1.83917e+07
1.83965e+07
1.84013e+07
1.84061e+07
1.8411e+07
1.84159e+07
1.84208e+07
1.84258e+07
1.84308e+07
1.84358e+07
1.84408e+07
1.84459e+07
1.8451e+07
1.84561e+07
1.84612e+07
1.84664e+07
1.84715e+07
1.84768e+07
1.8482e+07
1.84872e+07
1.84925e+07
1.84978e+07
1.85031e+07
1.85084e+07
1.85138e+07
1.85192e+07
1.85246e+07
1.853e+07
1.85354e+07
1.85409e+07
1.85464e+07
1.85519e+07
1.85574e+07
1.85629e+07
1.85684e+07
1.8574e+07
1.85796e+07
1.85852e+07
1.85908e+07
1.85966e+07
1.86026e+07
1.80288e+07
1.80289e+07
1.8029e+07
1.80291e+07
1.80292e+07
1.80293e+07
1.80295e+07
1.80297e+07
1.80299e+07
1.80301e+07
1.80304e+07
1.80307e+07
1.8031e+07
1.80313e+07
1.80317e+07
1.8032e+07
1.80324e+07
1.80329e+07
1.80333e+07
1.80338e+07
1.80343e+07
1.80348e+07
1.80354e+07
1.80359e+07
1.80365e+07
1.80372e+07
1.80378e+07
1.80385e+07
1.80392e+07
1.80399e+07
1.80407e+07
1.80414e+07
1.80422e+07
1.80431e+07
1.80439e+07
1.80448e+07
1.80457e+07
1.80467e+07
1.80476e+07
1.80486e+07
1.80496e+07
1.80507e+07
1.80517e+07
1.80528e+07
1.8054e+07
1.80551e+07
1.80563e+07
1.80575e+07
1.80588e+07
1.806e+07
1.80613e+07
1.80626e+07
1.8064e+07
1.80654e+07
1.80668e+07
1.80682e+07
1.80697e+07
1.80712e+07
1.80727e+07
1.80743e+07
1.80759e+07
1.80775e+07
1.80791e+07
1.80808e+07
1.80825e+07
1.80843e+07
1.8086e+07
1.80878e+07
1.80896e+07
1.80915e+07
1.80934e+07
1.80953e+07
1.80973e+07
1.80992e+07
1.81012e+07
1.81033e+07
1.81054e+07
1.81075e+07
1.81096e+07
1.81118e+07
1.8114e+07
1.81162e+07
1.81185e+07
1.81208e+07
1.81231e+07
1.81254e+07
1.81278e+07
1.81303e+07
1.81327e+07
1.81352e+07
1.81377e+07
1.81403e+07
1.81429e+07
1.81455e+07
1.81481e+07
1.81508e+07
1.81535e+07
1.81563e+07
1.81591e+07
1.81619e+07
1.81648e+07
1.81676e+07
1.81706e+07
1.81735e+07
1.81765e+07
1.81795e+07
1.81826e+07
1.81856e+07
1.81888e+07
1.81919e+07
1.81951e+07
1.81983e+07
1.82016e+07
1.82049e+07
1.82082e+07
1.82115e+07
1.82149e+07
1.82184e+07
1.82218e+07
1.82253e+07
1.82288e+07
1.82324e+07
1.8236e+07
1.82396e+07
1.82433e+07
1.82469e+07
1.82507e+07
1.82544e+07
1.82582e+07
1.8262e+07
1.82659e+07
1.82698e+07
1.82737e+07
1.82777e+07
1.82817e+07
1.82857e+07
1.82897e+07
1.82938e+07
1.82979e+07
1.83021e+07
1.83063e+07
1.83105e+07
1.83148e+07
1.8319e+07
1.83233e+07
1.83277e+07
1.83321e+07
1.83365e+07
1.83409e+07
1.83454e+07
1.83499e+07
1.83544e+07
1.8359e+07
1.83635e+07
1.83682e+07
1.83728e+07
1.83775e+07
1.83822e+07
1.83869e+07
1.83917e+07
1.83965e+07
1.84013e+07
1.84061e+07
1.8411e+07
1.84159e+07
1.84208e+07
1.84258e+07
1.84308e+07
1.84358e+07
1.84408e+07
1.84459e+07
1.8451e+07
1.84561e+07
1.84612e+07
1.84664e+07
1.84715e+07
1.84768e+07
1.8482e+07
1.84872e+07
1.84925e+07
1.84978e+07
1.85031e+07
1.85084e+07
1.85138e+07
1.85192e+07
1.85246e+07
1.853e+07
1.85354e+07
1.85409e+07
1.85464e+07
1.85519e+07
1.85574e+07
1.85629e+07
1.85684e+07
1.8574e+07
1.85796e+07
1.85852e+07
1.85908e+07
1.85966e+07
1.86025e+07
1.80288e+07
1.80289e+07
1.8029e+07
1.80291e+07
1.80292e+07
1.80293e+07
1.80295e+07
1.80297e+07
1.80299e+07
1.80301e+07
1.80304e+07
1.80307e+07
1.8031e+07
1.80313e+07
1.80317e+07
1.8032e+07
1.80324e+07
1.80329e+07
1.80333e+07
1.80338e+07
1.80343e+07
1.80348e+07
1.80354e+07
1.80359e+07
1.80365e+07
1.80372e+07
1.80378e+07
1.80385e+07
1.80392e+07
1.80399e+07
1.80407e+07
1.80414e+07
1.80422e+07
1.80431e+07
1.80439e+07
1.80448e+07
1.80457e+07
1.80467e+07
1.80476e+07
1.80486e+07
1.80496e+07
1.80507e+07
1.80517e+07
1.80528e+07
1.8054e+07
1.80551e+07
1.80563e+07
1.80575e+07
1.80588e+07
1.806e+07
1.80613e+07
1.80626e+07
1.8064e+07
1.80654e+07
1.80668e+07
1.80682e+07
1.80697e+07
1.80712e+07
1.80727e+07
1.80743e+07
1.80759e+07
1.80775e+07
1.80791e+07
1.80808e+07
1.80825e+07
1.80843e+07
1.8086e+07
1.80878e+07
1.80896e+07
1.80915e+07
1.80934e+07
1.80953e+07
1.80973e+07
1.80992e+07
1.81012e+07
1.81033e+07
1.81054e+07
1.81075e+07
1.81096e+07
1.81118e+07
1.8114e+07
1.81162e+07
1.81185e+07
1.81208e+07
1.81231e+07
1.81254e+07
1.81278e+07
1.81303e+07
1.81327e+07
1.81352e+07
1.81377e+07
1.81403e+07
1.81429e+07
1.81455e+07
1.81481e+07
1.81508e+07
1.81535e+07
1.81563e+07
1.81591e+07
1.81619e+07
1.81648e+07
1.81676e+07
1.81706e+07
1.81735e+07
1.81765e+07
1.81795e+07
1.81826e+07
1.81856e+07
1.81888e+07
1.81919e+07
1.81951e+07
1.81983e+07
1.82016e+07
1.82049e+07
1.82082e+07
1.82115e+07
1.82149e+07
1.82184e+07
1.82218e+07
1.82253e+07
1.82288e+07
1.82324e+07
1.8236e+07
1.82396e+07
1.82433e+07
1.82469e+07
1.82507e+07
1.82544e+07
1.82582e+07
1.8262e+07
1.82659e+07
1.82698e+07
1.82737e+07
1.82777e+07
1.82817e+07
1.82857e+07
1.82897e+07
1.82938e+07
1.82979e+07
1.83021e+07
1.83063e+07
1.83105e+07
1.83148e+07
1.8319e+07
1.83233e+07
1.83277e+07
1.83321e+07
1.83365e+07
1.83409e+07
1.83454e+07
1.83499e+07
1.83544e+07
1.8359e+07
1.83635e+07
1.83682e+07
1.83728e+07
1.83775e+07
1.83822e+07
1.83869e+07
1.83917e+07
1.83965e+07
1.84013e+07
1.84061e+07
1.8411e+07
1.84159e+07
1.84208e+07
1.84258e+07
1.84308e+07
1.84358e+07
1.84408e+07
1.84459e+07
1.8451e+07
1.84561e+07
1.84612e+07
1.84664e+07
1.84715e+07
1.84768e+07
1.8482e+07
1.84872e+07
1.84925e+07
1.84978e+07
1.85031e+07
1.85084e+07
1.85138e+07
1.85192e+07
1.85246e+07
1.853e+07
1.85354e+07
1.85409e+07
1.85464e+07
1.85519e+07
1.85574e+07
1.85629e+07
1.85684e+07
1.8574e+07
1.85796e+07
1.85852e+07
1.85908e+07
1.85966e+07
1.86025e+07
1.80288e+07
1.80289e+07
1.8029e+07
1.80291e+07
1.80292e+07
1.80293e+07
1.80295e+07
1.80297e+07
1.80299e+07
1.80301e+07
1.80304e+07
1.80307e+07
1.8031e+07
1.80313e+07
1.80317e+07
1.8032e+07
1.80324e+07
1.80329e+07
1.80333e+07
1.80338e+07
1.80343e+07
1.80348e+07
1.80354e+07
1.80359e+07
1.80365e+07
1.80372e+07
1.80378e+07
1.80385e+07
1.80392e+07
1.80399e+07
1.80407e+07
1.80414e+07
1.80422e+07
1.80431e+07
1.80439e+07
1.80448e+07
1.80457e+07
1.80467e+07
1.80476e+07
1.80486e+07
1.80496e+07
1.80507e+07
1.80517e+07
1.80528e+07
1.8054e+07
1.80551e+07
1.80563e+07
1.80575e+07
1.80588e+07
1.806e+07
1.80613e+07
1.80626e+07
1.8064e+07
1.80654e+07
1.80668e+07
1.80682e+07
1.80697e+07
1.80712e+07
1.80727e+07
1.80743e+07
1.80759e+07
1.80775e+07
1.80791e+07
1.80808e+07
1.80825e+07
1.80843e+07
1.8086e+07
1.80878e+07
1.80896e+07
1.80915e+07
1.80934e+07
1.80953e+07
1.80973e+07
1.80992e+07
1.81012e+07
1.81033e+07
1.81054e+07
1.81075e+07
1.81096e+07
1.81118e+07
1.8114e+07
1.81162e+07
1.81185e+07
1.81208e+07
1.81231e+07
1.81254e+07
1.81278e+07
1.81303e+07
1.81327e+07
1.81352e+07
1.81377e+07
1.81403e+07
1.81429e+07
1.81455e+07
1.81481e+07
1.81508e+07
1.81535e+07
1.81563e+07
1.81591e+07
1.81619e+07
1.81648e+07
1.81676e+07
1.81706e+07
1.81735e+07
1.81765e+07
1.81795e+07
1.81826e+07
1.81856e+07
1.81888e+07
1.81919e+07
1.81951e+07
1.81983e+07
1.82016e+07
1.82049e+07
1.82082e+07
1.82115e+07
1.82149e+07
1.82184e+07
1.82218e+07
1.82253e+07
1.82288e+07
1.82324e+07
1.8236e+07
1.82396e+07
1.82433e+07
1.82469e+07
1.82507e+07
1.82544e+07
1.82582e+07
1.8262e+07
1.82659e+07
1.82698e+07
1.82737e+07
1.82777e+07
1.82817e+07
1.82857e+07
1.82897e+07
1.82938e+07
1.82979e+07
1.83021e+07
1.83063e+07
1.83105e+07
1.83148e+07
1.8319e+07
1.83233e+07
1.83277e+07
1.83321e+07
1.83365e+07
1.83409e+07
1.83454e+07
1.83499e+07
1.83544e+07
1.8359e+07
1.83635e+07
1.83682e+07
1.83728e+07
1.83775e+07
1.83822e+07
1.83869e+07
1.83917e+07
1.83965e+07
1.84013e+07
1.84061e+07
1.8411e+07
1.84159e+07
1.84208e+07
1.84258e+07
1.84308e+07
1.84358e+07
1.84408e+07
1.84459e+07
1.8451e+07
1.84561e+07
1.84612e+07
1.84664e+07
1.84715e+07
1.84768e+07
1.8482e+07
1.84872e+07
1.84925e+07
1.84978e+07
1.85031e+07
1.85084e+07
1.85138e+07
1.85192e+07
1.85246e+07
1.853e+07
1.85354e+07
1.85409e+07
1.85464e+07
1.85519e+07
1.85574e+07
1.85629e+07
1.85684e+07
1.8574e+07
1.85796e+07
1.85852e+07
1.85908e+07
1.85966e+07
1.86025e+07
1.80288e+07
1.80289e+07
1.8029e+07
1.80291e+07
1.80292e+07
1.80293e+07
1.80295e+07
1.80297e+07
1.80299e+07
1.80301e+07
1.80304e+07
1.80307e+07
1.8031e+07
1.80313e+07
1.80317e+07
1.8032e+07
1.80324e+07
1.80329e+07
1.80333e+07
1.80338e+07
1.80343e+07
1.80348e+07
1.80354e+07
1.80359e+07
1.80365e+07
1.80372e+07
1.80378e+07
1.80385e+07
1.80392e+07
1.80399e+07
1.80407e+07
1.80414e+07
1.80422e+07
1.80431e+07
1.80439e+07
1.80448e+07
1.80457e+07
1.80467e+07
1.80476e+07
1.80486e+07
1.80496e+07
1.80507e+07
1.80517e+07
1.80528e+07
1.8054e+07
1.80551e+07
1.80563e+07
1.80575e+07
1.80588e+07
1.806e+07
1.80613e+07
1.80626e+07
1.8064e+07
1.80654e+07
1.80668e+07
1.80682e+07
1.80697e+07
1.80712e+07
1.80727e+07
1.80743e+07
1.80759e+07
1.80775e+07
1.80791e+07
1.80808e+07
1.80825e+07
1.80843e+07
1.8086e+07
1.80878e+07
1.80896e+07
1.80915e+07
1.80934e+07
1.80953e+07
1.80973e+07
1.80992e+07
1.81012e+07
1.81033e+07
1.81054e+07
1.81075e+07
1.81096e+07
1.81118e+07
1.8114e+07
1.81162e+07
1.81185e+07
1.81208e+07
1.81231e+07
1.81254e+07
1.81278e+07
1.81303e+07
1.81327e+07
1.81352e+07
1.81377e+07
1.81403e+07
1.81429e+07
1.81455e+07
1.81481e+07
1.81508e+07
1.81535e+07
1.81563e+07
1.81591e+07
1.81619e+07
1.81648e+07
1.81676e+07
1.81706e+07
1.81735e+07
1.81765e+07
1.81795e+07
1.81826e+07
1.81856e+07
1.81888e+07
1.81919e+07
1.81951e+07
1.81983e+07
1.82016e+07
1.82049e+07
1.82082e+07
1.82115e+07
1.82149e+07
1.82184e+07
1.82218e+07
1.82253e+07
1.82288e+07
1.82324e+07
1.8236e+07
1.82396e+07
1.82433e+07
1.82469e+07
1.82507e+07
1.82544e+07
1.82582e+07
1.8262e+07
1.82659e+07
1.82698e+07
1.82737e+07
1.82777e+07
1.82817e+07
1.82857e+07
1.82897e+07
1.82938e+07
1.82979e+07
1.83021e+07
1.83063e+07
1.83105e+07
1.83148e+07
1.8319e+07
1.83233e+07
1.83277e+07
1.83321e+07
1.83365e+07
1.83409e+07
1.83454e+07
1.83499e+07
1.83544e+07
1.8359e+07
1.83635e+07
1.83682e+07
1.83728e+07
1.83775e+07
1.83822e+07
1.83869e+07
1.83917e+07
1.83965e+07
1.84013e+07
1.84061e+07
1.8411e+07
1.84159e+07
1.84208e+07
1.84258e+07
1.84308e+07
1.84358e+07
1.84408e+07
1.84459e+07
1.8451e+07
1.84561e+07
1.84612e+07
1.84664e+07
1.84715e+07
1.84768e+07
1.8482e+07
1.84872e+07
1.84925e+07
1.84978e+07
1.85031e+07
1.85084e+07
1.85138e+07
1.85192e+07
1.85246e+07
1.853e+07
1.85354e+07
1.85409e+07
1.85464e+07
1.85519e+07
1.85574e+07
1.85629e+07
1.85684e+07
1.8574e+07
1.85796e+07
1.85852e+07
1.85908e+07
1.85965e+07
1.86022e+07
1.80288e+07
1.80289e+07
1.8029e+07
1.80291e+07
1.80292e+07
1.80293e+07
1.80295e+07
1.80297e+07
1.80299e+07
1.80301e+07
1.80304e+07
1.80307e+07
1.8031e+07
1.80313e+07
1.80317e+07
1.8032e+07
1.80324e+07
1.80329e+07
1.80333e+07
1.80338e+07
1.80343e+07
1.80348e+07
1.80354e+07
1.80359e+07
1.80365e+07
1.80372e+07
1.80378e+07
1.80385e+07
1.80392e+07
1.80399e+07
1.80407e+07
1.80414e+07
1.80422e+07
1.80431e+07
1.80439e+07
1.80448e+07
1.80457e+07
1.80467e+07
1.80476e+07
1.80486e+07
1.80496e+07
1.80507e+07
1.80517e+07
1.80528e+07
1.8054e+07
1.80551e+07
1.80563e+07
1.80575e+07
1.80588e+07
1.806e+07
1.80613e+07
1.80626e+07
1.8064e+07
1.80654e+07
1.80668e+07
1.80682e+07
1.80697e+07
1.80712e+07
1.80727e+07
1.80743e+07
1.80759e+07
1.80775e+07
1.80791e+07
1.80808e+07
1.80825e+07
1.80843e+07
1.8086e+07
1.80878e+07
1.80896e+07
1.80915e+07
1.80934e+07
1.80953e+07
1.80973e+07
1.80992e+07
1.81012e+07
1.81033e+07
1.81054e+07
1.81075e+07
1.81096e+07
1.81118e+07
1.8114e+07
1.81162e+07
1.81185e+07
1.81208e+07
1.81231e+07
1.81254e+07
1.81278e+07
1.81303e+07
1.81327e+07
1.81352e+07
1.81377e+07
1.81403e+07
1.81429e+07
1.81455e+07
1.81481e+07
1.81508e+07
1.81535e+07
1.81563e+07
1.81591e+07
1.81619e+07
1.81648e+07
1.81676e+07
1.81706e+07
1.81735e+07
1.81765e+07
1.81795e+07
1.81826e+07
1.81856e+07
1.81888e+07
1.81919e+07
1.81951e+07
1.81983e+07
1.82016e+07
1.82049e+07
1.82082e+07
1.82115e+07
1.82149e+07
1.82184e+07
1.82218e+07
1.82253e+07
1.82288e+07
1.82324e+07
1.8236e+07
1.82396e+07
1.82433e+07
1.82469e+07
1.82507e+07
1.82544e+07
1.82582e+07
1.8262e+07
1.82659e+07
1.82698e+07
1.82737e+07
1.82777e+07
1.82817e+07
1.82857e+07
1.82897e+07
1.82938e+07
1.82979e+07
1.83021e+07
1.83063e+07
1.83105e+07
1.83148e+07
1.8319e+07
1.83233e+07
1.83277e+07
1.83321e+07
1.83365e+07
1.83409e+07
1.83454e+07
1.83499e+07
1.83544e+07
1.8359e+07
1.83635e+07
1.83682e+07
1.83728e+07
1.83775e+07
1.83822e+07
1.83869e+07
1.83917e+07
1.83965e+07
1.84013e+07
1.84061e+07
1.8411e+07
1.84159e+07
1.84208e+07
1.84258e+07
1.84308e+07
1.84358e+07
1.84408e+07
1.84459e+07
1.8451e+07
1.84561e+07
1.84612e+07
1.84664e+07
1.84715e+07
1.84768e+07
1.8482e+07
1.84872e+07
1.84925e+07
1.84978e+07
1.85031e+07
1.85084e+07
1.85138e+07
1.85192e+07
1.85246e+07
1.853e+07
1.85354e+07
1.85409e+07
1.85464e+07
1.85519e+07
1.85574e+07
1.85629e+07
1.85684e+07
1.8574e+07
1.85796e+07
1.85851e+07
1.85907e+07
1.85963e+07
1.86018e+07
1.80288e+07
1.80289e+07
1.8029e+07
1.80291e+07
1.80292e+07
1.80293e+07
1.80295e+07
1.80297e+07
1.80299e+07
1.80301e+07
1.80304e+07
1.80307e+07
1.8031e+07
1.80313e+07
1.80317e+07
1.8032e+07
1.80324e+07
1.80329e+07
1.80333e+07
1.80338e+07
1.80343e+07
1.80348e+07
1.80354e+07
1.80359e+07
1.80365e+07
1.80372e+07
1.80378e+07
1.80385e+07
1.80392e+07
1.80399e+07
1.80407e+07
1.80414e+07
1.80422e+07
1.80431e+07
1.80439e+07
1.80448e+07
1.80457e+07
1.80467e+07
1.80476e+07
1.80486e+07
1.80496e+07
1.80507e+07
1.80517e+07
1.80528e+07
1.8054e+07
1.80551e+07
1.80563e+07
1.80575e+07
1.80588e+07
1.806e+07
1.80613e+07
1.80626e+07
1.8064e+07
1.80654e+07
1.80668e+07
1.80682e+07
1.80697e+07
1.80712e+07
1.80727e+07
1.80743e+07
1.80759e+07
1.80775e+07
1.80791e+07
1.80808e+07
1.80825e+07
1.80843e+07
1.8086e+07
1.80878e+07
1.80896e+07
1.80915e+07
1.80934e+07
1.80953e+07
1.80973e+07
1.80992e+07
1.81012e+07
1.81033e+07
1.81054e+07
1.81075e+07
1.81096e+07
1.81118e+07
1.8114e+07
1.81162e+07
1.81185e+07
1.81208e+07
1.81231e+07
1.81254e+07
1.81278e+07
1.81303e+07
1.81327e+07
1.81352e+07
1.81377e+07
1.81403e+07
1.81429e+07
1.81455e+07
1.81481e+07
1.81508e+07
1.81535e+07
1.81563e+07
1.81591e+07
1.81619e+07
1.81648e+07
1.81676e+07
1.81706e+07
1.81735e+07
1.81765e+07
1.81795e+07
1.81826e+07
1.81856e+07
1.81888e+07
1.81919e+07
1.81951e+07
1.81983e+07
1.82016e+07
1.82049e+07
1.82082e+07
1.82115e+07
1.82149e+07
1.82184e+07
1.82218e+07
1.82253e+07
1.82288e+07
1.82324e+07
1.8236e+07
1.82396e+07
1.82433e+07
1.82469e+07
1.82507e+07
1.82544e+07
1.82582e+07
1.8262e+07
1.82659e+07
1.82698e+07
1.82737e+07
1.82777e+07
1.82817e+07
1.82857e+07
1.82897e+07
1.82938e+07
1.82979e+07
1.83021e+07
1.83063e+07
1.83105e+07
1.83148e+07
1.8319e+07
1.83233e+07
1.83277e+07
1.83321e+07
1.83365e+07
1.83409e+07
1.83454e+07
1.83499e+07
1.83544e+07
1.8359e+07
1.83635e+07
1.83682e+07
1.83728e+07
1.83775e+07
1.83822e+07
1.83869e+07
1.83917e+07
1.83965e+07
1.84013e+07
1.84061e+07
1.8411e+07
1.84159e+07
1.84208e+07
1.84258e+07
1.84308e+07
1.84358e+07
1.84408e+07
1.84459e+07
1.8451e+07
1.84561e+07
1.84612e+07
1.84664e+07
1.84715e+07
1.84768e+07
1.8482e+07
1.84872e+07
1.84925e+07
1.84978e+07
1.85031e+07
1.85084e+07
1.85138e+07
1.85192e+07
1.85246e+07
1.853e+07
1.85354e+07
1.85409e+07
1.85464e+07
1.85519e+07
1.85574e+07
1.85629e+07
1.85684e+07
1.8574e+07
1.85796e+07
1.85851e+07
1.85907e+07
1.85962e+07
1.86015e+07
1.80288e+07
1.80289e+07
1.8029e+07
1.80291e+07
1.80292e+07
1.80293e+07
1.80295e+07
1.80297e+07
1.80299e+07
1.80301e+07
1.80304e+07
1.80307e+07
1.8031e+07
1.80313e+07
1.80317e+07
1.8032e+07
1.80324e+07
1.80329e+07
1.80333e+07
1.80338e+07
1.80343e+07
1.80348e+07
1.80354e+07
1.80359e+07
1.80365e+07
1.80372e+07
1.80378e+07
1.80385e+07
1.80392e+07
1.80399e+07
1.80407e+07
1.80414e+07
1.80422e+07
1.80431e+07
1.80439e+07
1.80448e+07
1.80457e+07
1.80467e+07
1.80476e+07
1.80486e+07
1.80496e+07
1.80507e+07
1.80517e+07
1.80528e+07
1.8054e+07
1.80551e+07
1.80563e+07
1.80575e+07
1.80588e+07
1.806e+07
1.80613e+07
1.80626e+07
1.8064e+07
1.80654e+07
1.80668e+07
1.80682e+07
1.80697e+07
1.80712e+07
1.80727e+07
1.80743e+07
1.80759e+07
1.80775e+07
1.80791e+07
1.80808e+07
1.80825e+07
1.80843e+07
1.8086e+07
1.80878e+07
1.80896e+07
1.80915e+07
1.80934e+07
1.80953e+07
1.80973e+07
1.80992e+07
1.81012e+07
1.81033e+07
1.81054e+07
1.81075e+07
1.81096e+07
1.81118e+07
1.8114e+07
1.81162e+07
1.81185e+07
1.81208e+07
1.81231e+07
1.81254e+07
1.81278e+07
1.81303e+07
1.81327e+07
1.81352e+07
1.81377e+07
1.81403e+07
1.81429e+07
1.81455e+07
1.81481e+07
1.81508e+07
1.81535e+07
1.81563e+07
1.81591e+07
1.81619e+07
1.81648e+07
1.81676e+07
1.81706e+07
1.81735e+07
1.81765e+07
1.81795e+07
1.81826e+07
1.81856e+07
1.81888e+07
1.81919e+07
1.81951e+07
1.81983e+07
1.82016e+07
1.82049e+07
1.82082e+07
1.82115e+07
1.82149e+07
1.82184e+07
1.82218e+07
1.82253e+07
1.82288e+07
1.82324e+07
1.8236e+07
1.82396e+07
1.82433e+07
1.82469e+07
1.82507e+07
1.82544e+07
1.82582e+07
1.8262e+07
1.82659e+07
1.82698e+07
1.82737e+07
1.82777e+07
1.82817e+07
1.82857e+07
1.82897e+07
1.82938e+07
1.82979e+07
1.83021e+07
1.83063e+07
1.83105e+07
1.83148e+07
1.8319e+07
1.83233e+07
1.83277e+07
1.83321e+07
1.83365e+07
1.83409e+07
1.83454e+07
1.83499e+07
1.83544e+07
1.8359e+07
1.83635e+07
1.83682e+07
1.83728e+07
1.83775e+07
1.83822e+07
1.83869e+07
1.83917e+07
1.83965e+07
1.84013e+07
1.84061e+07
1.8411e+07
1.84159e+07
1.84208e+07
1.84258e+07
1.84308e+07
1.84358e+07
1.84408e+07
1.84459e+07
1.8451e+07
1.84561e+07
1.84612e+07
1.84664e+07
1.84715e+07
1.84768e+07
1.8482e+07
1.84872e+07
1.84925e+07
1.84978e+07
1.85031e+07
1.85084e+07
1.85138e+07
1.85192e+07
1.85246e+07
1.853e+07
1.85354e+07
1.85409e+07
1.85464e+07
1.85519e+07
1.85574e+07
1.85629e+07
1.85684e+07
1.8574e+07
1.85796e+07
1.85851e+07
1.85907e+07
1.85961e+07
1.86014e+07
1.80288e+07
1.80289e+07
1.8029e+07
1.80291e+07
1.80292e+07
1.80293e+07
1.80295e+07
1.80297e+07
1.80299e+07
1.80301e+07
1.80304e+07
1.80307e+07
1.8031e+07
1.80313e+07
1.80317e+07
1.8032e+07
1.80324e+07
1.80329e+07
1.80333e+07
1.80338e+07
1.80343e+07
1.80348e+07
1.80354e+07
1.80359e+07
1.80365e+07
1.80372e+07
1.80378e+07
1.80385e+07
1.80392e+07
1.80399e+07
1.80407e+07
1.80414e+07
1.80422e+07
1.80431e+07
1.80439e+07
1.80448e+07
1.80457e+07
1.80467e+07
1.80476e+07
1.80486e+07
1.80496e+07
1.80507e+07
1.80517e+07
1.80528e+07
1.8054e+07
1.80551e+07
1.80563e+07
1.80575e+07
1.80588e+07
1.806e+07
1.80613e+07
1.80626e+07
1.8064e+07
1.80654e+07
1.80668e+07
1.80682e+07
1.80697e+07
1.80712e+07
1.80727e+07
1.80743e+07
1.80759e+07
1.80775e+07
1.80791e+07
1.80808e+07
1.80825e+07
1.80843e+07
1.8086e+07
1.80878e+07
1.80896e+07
1.80915e+07
1.80934e+07
1.80953e+07
1.80973e+07
1.80992e+07
1.81012e+07
1.81033e+07
1.81054e+07
1.81075e+07
1.81096e+07
1.81118e+07
1.8114e+07
1.81162e+07
1.81185e+07
1.81208e+07
1.81231e+07
1.81254e+07
1.81278e+07
1.81303e+07
1.81327e+07
1.81352e+07
1.81377e+07
1.81403e+07
1.81429e+07
1.81455e+07
1.81481e+07
1.81508e+07
1.81535e+07
1.81563e+07
1.81591e+07
1.81619e+07
1.81648e+07
1.81676e+07
1.81706e+07
1.81735e+07
1.81765e+07
1.81795e+07
1.81826e+07
1.81856e+07
1.81888e+07
1.81919e+07
1.81951e+07
1.81983e+07
1.82016e+07
1.82049e+07
1.82082e+07
1.82115e+07
1.82149e+07
1.82184e+07
1.82218e+07
1.82253e+07
1.82288e+07
1.82324e+07
1.8236e+07
1.82396e+07
1.82433e+07
1.82469e+07
1.82507e+07
1.82544e+07
1.82582e+07
1.8262e+07
1.82659e+07
1.82698e+07
1.82737e+07
1.82777e+07
1.82817e+07
1.82857e+07
1.82897e+07
1.82938e+07
1.82979e+07
1.83021e+07
1.83063e+07
1.83105e+07
1.83148e+07
1.8319e+07
1.83233e+07
1.83277e+07
1.83321e+07
1.83365e+07
1.83409e+07
1.83454e+07
1.83499e+07
1.83544e+07
1.8359e+07
1.83635e+07
1.83682e+07
1.83728e+07
1.83775e+07
1.83822e+07
1.83869e+07
1.83917e+07
1.83965e+07
1.84013e+07
1.84061e+07
1.8411e+07
1.84159e+07
1.84208e+07
1.84258e+07
1.84308e+07
1.84358e+07
1.84408e+07
1.84459e+07
1.8451e+07
1.84561e+07
1.84612e+07
1.84664e+07
1.84715e+07
1.84768e+07
1.8482e+07
1.84872e+07
1.84925e+07
1.84978e+07
1.85031e+07
1.85084e+07
1.85138e+07
1.85192e+07
1.85246e+07
1.853e+07
1.85354e+07
1.85409e+07
1.85464e+07
1.85519e+07
1.85574e+07
1.85629e+07
1.85684e+07
1.8574e+07
1.85796e+07
1.85851e+07
1.85907e+07
1.85961e+07
1.86014e+07
1.80288e+07
1.80289e+07
1.8029e+07
1.80291e+07
1.80292e+07
1.80293e+07
1.80295e+07
1.80297e+07
1.80299e+07
1.80301e+07
1.80304e+07
1.80307e+07
1.8031e+07
1.80313e+07
1.80317e+07
1.8032e+07
1.80324e+07
1.80329e+07
1.80333e+07
1.80338e+07
1.80343e+07
1.80348e+07
1.80354e+07
1.80359e+07
1.80365e+07
1.80372e+07
1.80378e+07
1.80385e+07
1.80392e+07
1.80399e+07
1.80407e+07
1.80414e+07
1.80422e+07
1.80431e+07
1.80439e+07
1.80448e+07
1.80457e+07
1.80467e+07
1.80476e+07
1.80486e+07
1.80496e+07
1.80507e+07
1.80517e+07
1.80528e+07
1.8054e+07
1.80551e+07
1.80563e+07
1.80575e+07
1.80588e+07
1.806e+07
1.80613e+07
1.80626e+07
1.8064e+07
1.80654e+07
1.80668e+07
1.80682e+07
1.80697e+07
1.80712e+07
1.80727e+07
1.80743e+07
1.80759e+07
1.80775e+07
1.80791e+07
1.80808e+07
1.80825e+07
1.80843e+07
1.8086e+07
1.80878e+07
1.80896e+07
1.80915e+07
1.80934e+07
1.80953e+07
1.80973e+07
1.80992e+07
1.81012e+07
1.81033e+07
1.81054e+07
1.81075e+07
1.81096e+07
1.81118e+07
1.8114e+07
1.81162e+07
1.81185e+07
1.81208e+07
1.81231e+07
1.81254e+07
1.81278e+07
1.81303e+07
1.81327e+07
1.81352e+07
1.81377e+07
1.81403e+07
1.81429e+07
1.81455e+07
1.81481e+07
1.81508e+07
1.81535e+07
1.81563e+07
1.81591e+07
1.81619e+07
1.81648e+07
1.81676e+07
1.81706e+07
1.81735e+07
1.81765e+07
1.81795e+07
1.81826e+07
1.81856e+07
1.81888e+07
1.81919e+07
1.81951e+07
1.81983e+07
1.82016e+07
1.82049e+07
1.82082e+07
1.82115e+07
1.82149e+07
1.82184e+07
1.82218e+07
1.82253e+07
1.82288e+07
1.82324e+07
1.8236e+07
1.82396e+07
1.82433e+07
1.82469e+07
1.82507e+07
1.82544e+07
1.82582e+07
1.8262e+07
1.82659e+07
1.82698e+07
1.82737e+07
1.82777e+07
1.82817e+07
1.82857e+07
1.82897e+07
1.82938e+07
1.82979e+07
1.83021e+07
1.83063e+07
1.83105e+07
1.83148e+07
1.8319e+07
1.83233e+07
1.83277e+07
1.83321e+07
1.83365e+07
1.83409e+07
1.83454e+07
1.83499e+07
1.83544e+07
1.8359e+07
1.83635e+07
1.83682e+07
1.83728e+07
1.83775e+07
1.83822e+07
1.83869e+07
1.83917e+07
1.83965e+07
1.84013e+07
1.84061e+07
1.8411e+07
1.84159e+07
1.84208e+07
1.84258e+07
1.84308e+07
1.84358e+07
1.84408e+07
1.84459e+07
1.8451e+07
1.84561e+07
1.84612e+07
1.84664e+07
1.84715e+07
1.84768e+07
1.8482e+07
1.84872e+07
1.84925e+07
1.84978e+07
1.85031e+07
1.85084e+07
1.85138e+07
1.85192e+07
1.85246e+07
1.853e+07
1.85354e+07
1.85409e+07
1.85464e+07
1.85519e+07
1.85574e+07
1.85629e+07
1.85684e+07
1.8574e+07
1.85796e+07
1.85851e+07
1.85907e+07
1.85961e+07
1.86014e+07
1.86095e+07
1.86123e+07
1.8614e+07
1.86152e+07
1.86162e+07
1.86173e+07
1.86183e+07
1.86194e+07
1.86204e+07
1.86214e+07
1.86223e+07
1.86233e+07
1.86243e+07
1.86252e+07
1.86261e+07
1.8627e+07
1.86278e+07
1.86286e+07
1.86292e+07
1.86295e+07
1.86092e+07
1.86118e+07
1.86135e+07
1.86147e+07
1.86157e+07
1.86168e+07
1.86178e+07
1.86189e+07
1.86199e+07
1.86209e+07
1.86218e+07
1.86229e+07
1.86238e+07
1.86248e+07
1.86257e+07
1.86265e+07
1.86274e+07
1.86281e+07
1.86287e+07
1.86291e+07
1.8609e+07
1.86117e+07
1.86134e+07
1.86146e+07
1.86157e+07
1.86168e+07
1.86178e+07
1.86189e+07
1.86199e+07
1.86209e+07
1.86218e+07
1.86228e+07
1.86238e+07
1.86247e+07
1.86256e+07
1.86265e+07
1.86272e+07
1.8628e+07
1.86285e+07
1.86288e+07
1.8608e+07
1.86099e+07
1.86111e+07
1.86122e+07
1.86132e+07
1.86143e+07
1.86153e+07
1.86164e+07
1.86174e+07
1.86184e+07
1.86194e+07
1.86204e+07
1.86214e+07
1.86223e+07
1.86233e+07
1.86241e+07
1.8625e+07
1.86257e+07
1.86263e+07
1.86268e+07
1.8607e+07
1.86088e+07
1.86104e+07
1.86119e+07
1.86131e+07
1.86143e+07
1.86153e+07
1.86164e+07
1.86174e+07
1.86183e+07
1.86192e+07
1.86202e+07
1.8621e+07
1.86219e+07
1.86227e+07
1.86235e+07
1.86242e+07
1.8625e+07
1.86256e+07
1.86263e+07
1.86041e+07
1.86046e+07
1.8605e+07
1.86055e+07
1.8606e+07
1.86067e+07
1.86076e+07
1.86085e+07
1.86095e+07
1.86106e+07
1.86116e+07
1.86127e+07
1.86137e+07
1.86148e+07
1.86159e+07
1.8617e+07
1.86181e+07
1.86192e+07
1.86204e+07
1.86216e+07
1.8602e+07
1.86024e+07
1.86033e+07
1.86045e+07
1.86056e+07
1.86066e+07
1.86076e+07
1.86086e+07
1.86095e+07
1.86104e+07
1.86115e+07
1.86122e+07
1.86132e+07
1.86141e+07
1.8615e+07
1.8616e+07
1.8617e+07
1.86182e+07
1.86195e+07
1.86209e+07
1.8598e+07
1.85965e+07
1.85954e+07
1.8595e+07
1.85951e+07
1.85955e+07
1.85962e+07
1.85969e+07
1.85979e+07
1.85989e+07
1.86001e+07
1.86013e+07
1.86027e+07
1.86041e+07
1.86056e+07
1.86073e+07
1.86092e+07
1.86112e+07
1.86134e+07
1.86158e+07
1.8597e+07
1.85955e+07
1.85947e+07
1.85946e+07
1.85949e+07
1.85954e+07
1.8596e+07
1.85968e+07
1.85978e+07
1.85988e+07
1.85999e+07
1.86011e+07
1.86024e+07
1.86038e+07
1.86053e+07
1.86069e+07
1.86087e+07
1.86106e+07
1.86128e+07
1.86152e+07
1.85958e+07
1.85932e+07
1.85919e+07
1.85915e+07
1.85916e+07
1.8592e+07
1.85926e+07
1.85934e+07
1.85943e+07
1.85954e+07
1.85965e+07
1.85978e+07
1.85992e+07
1.86007e+07
1.86023e+07
1.8604e+07
1.86059e+07
1.86081e+07
1.86105e+07
1.86132e+07
1.86289e+07
1.86315e+07
1.86355e+07
1.86398e+07
1.86442e+07
1.86486e+07
1.86531e+07
1.86576e+07
1.86621e+07
1.86666e+07
1.86711e+07
1.86756e+07
1.86801e+07
1.86846e+07
1.86892e+07
1.86937e+07
1.86983e+07
1.87028e+07
1.87074e+07
1.87119e+07
1.87165e+07
1.8721e+07
1.87256e+07
1.87302e+07
1.87347e+07
1.87393e+07
1.87438e+07
1.87484e+07
1.8753e+07
1.87575e+07
1.87621e+07
1.87667e+07
1.87712e+07
1.87758e+07
1.87804e+07
1.87849e+07
1.87895e+07
1.8794e+07
1.87986e+07
1.88031e+07
1.88077e+07
1.88122e+07
1.88168e+07
1.88213e+07
1.88259e+07
1.88304e+07
1.88349e+07
1.88394e+07
1.8844e+07
1.88485e+07
1.8853e+07
1.88575e+07
1.8862e+07
1.88665e+07
1.8871e+07
1.88754e+07
1.88799e+07
1.88844e+07
1.88888e+07
1.88933e+07
1.88977e+07
1.89022e+07
1.89066e+07
1.8911e+07
1.89154e+07
1.89198e+07
1.89242e+07
1.89286e+07
1.8933e+07
1.89374e+07
1.89417e+07
1.89461e+07
1.89504e+07
1.89548e+07
1.89591e+07
1.89634e+07
1.89677e+07
1.8972e+07
1.89763e+07
1.89806e+07
1.89848e+07
1.89891e+07
1.89933e+07
1.89975e+07
1.90017e+07
1.90059e+07
1.90101e+07
1.90143e+07
1.90185e+07
1.90226e+07
1.90268e+07
1.90309e+07
1.9035e+07
1.90391e+07
1.90432e+07
1.90472e+07
1.90513e+07
1.90553e+07
1.90593e+07
1.90633e+07
1.90672e+07
1.90712e+07
1.90751e+07
1.90791e+07
1.9083e+07
1.90869e+07
1.90907e+07
1.90946e+07
1.90984e+07
1.91022e+07
1.9106e+07
1.91098e+07
1.91136e+07
1.91174e+07
1.91211e+07
1.91248e+07
1.91285e+07
1.91322e+07
1.91358e+07
1.91395e+07
1.91431e+07
1.91467e+07
1.91503e+07
1.91539e+07
1.91574e+07
1.9161e+07
1.91645e+07
1.9168e+07
1.91715e+07
1.91749e+07
1.91783e+07
1.91818e+07
1.91852e+07
1.91885e+07
1.91919e+07
1.91952e+07
1.91986e+07
1.92019e+07
1.92052e+07
1.92084e+07
1.92117e+07
1.92149e+07
1.92181e+07
1.92213e+07
1.92244e+07
1.92276e+07
1.92307e+07
1.92338e+07
1.92369e+07
1.92399e+07
1.9243e+07
1.9246e+07
1.9249e+07
1.92519e+07
1.92549e+07
1.92578e+07
1.92607e+07
1.92636e+07
1.92665e+07
1.92694e+07
1.92722e+07
1.9275e+07
1.92778e+07
1.92806e+07
1.92833e+07
1.9286e+07
1.92887e+07
1.92914e+07
1.92941e+07
1.92967e+07
1.92993e+07
1.93019e+07
1.93045e+07
1.9307e+07
1.93096e+07
1.93121e+07
1.93146e+07
1.9317e+07
1.93195e+07
1.93219e+07
1.93243e+07
1.93267e+07
1.9329e+07
1.93314e+07
1.93337e+07
1.9336e+07
1.93382e+07
1.93405e+07
1.93427e+07
1.93449e+07
1.93471e+07
1.93493e+07
1.93514e+07
1.93535e+07
1.93556e+07
1.93577e+07
1.93598e+07
1.93618e+07
1.93638e+07
1.93659e+07
1.86287e+07
1.86314e+07
1.86354e+07
1.86398e+07
1.86442e+07
1.86486e+07
1.86531e+07
1.86576e+07
1.86621e+07
1.86666e+07
1.86711e+07
1.86756e+07
1.86801e+07
1.86846e+07
1.86892e+07
1.86937e+07
1.86983e+07
1.87028e+07
1.87074e+07
1.87119e+07
1.87165e+07
1.8721e+07
1.87256e+07
1.87302e+07
1.87347e+07
1.87393e+07
1.87438e+07
1.87484e+07
1.8753e+07
1.87575e+07
1.87621e+07
1.87667e+07
1.87712e+07
1.87758e+07
1.87804e+07
1.87849e+07
1.87895e+07
1.8794e+07
1.87986e+07
1.88031e+07
1.88077e+07
1.88122e+07
1.88168e+07
1.88213e+07
1.88259e+07
1.88304e+07
1.88349e+07
1.88394e+07