/*--------------------------------*- C++ -*----------------------------------*\
| =========                 |                                                 |
| \\      /  F ield         | OpenFOAM: The Open Source CFD Toolbox           |
|  \\    /   O peration     | Version:  3.0.x                                 |
|   \\  /    A nd           | Web:      www.OpenFOAM.org                      |
|    \\/     M anipulation  |                                                 |
\*---------------------------------------------------------------------------*/
FoamFile
{
    version     2.0;
    format      ascii;
    class       volScalarField;
    location    "0.49";
    object      T;
}
// * * * * * * * * * * * * * * * * * * * * * * * * * * * * * * * * * * * * * //

dimensions      [0 0 0 1 0 0 0];

internalField   nonuniform List<scalar> 
13800
(
773.225
773.223
773.223
773.223
773.223
773.224
773.225
773.227
773.228
773.23
773.232
773.234
773.236
773.238
773.241
773.243
773.246
773.249
773.252
773.256
773.259
773.263
773.267
773.271
773.275
773.28
773.284
773.289
773.294
773.299
773.305
773.31
773.316
773.322
773.328
773.334
773.341
773.348
773.355
773.362
773.369
773.377
773.385
773.392
773.4
773.408
773.416
773.424
773.433
773.442
773.451
773.461
773.47
773.48
773.491
773.501
773.511
773.522
773.532
773.542
773.553
773.564
773.575
773.587
773.599
773.611
773.624
773.637
773.65
773.663
773.676
773.69
773.703
773.717
773.731
773.745
773.76
773.774
773.79
773.805
773.821
773.836
773.853
773.869
773.885
773.902
773.919
773.937
773.954
773.972
773.99
774.008
774.027
774.045
774.064
774.083
774.103
774.122
774.142
774.162
774.183
774.203
774.224
774.245
774.266
774.288
774.309
774.331
774.353
774.376
774.399
774.421
774.445
774.468
774.492
774.515
774.539
774.564
774.588
774.613
774.638
774.663
774.689
774.715
774.74
774.767
774.793
774.82
774.847
774.874
774.901
774.929
774.956
774.984
775.013
775.041
775.07
775.099
775.128
775.157
775.187
775.217
775.247
775.277
775.308
775.338
775.369
775.4
775.432
775.463
775.495
775.527
775.559
775.591
775.624
775.657
775.69
775.723
775.756
775.79
775.824
775.858
775.892
775.926
775.961
775.995
776.03
776.065
776.1
776.136
776.171
776.207
776.243
776.279
776.315
776.352
776.388
776.425
776.462
776.499
776.536
776.573
776.611
776.648
776.686
776.724
776.761
776.801
776.836
776.878
776.912
776.956
776.988
777.035
777.064
777.114
777.141
777.194
777.223
777.288
773.217
773.215
773.215
773.215
773.216
773.217
773.218
773.219
773.221
773.222
773.224
773.226
773.228
773.231
773.233
773.236
773.239
773.242
773.245
773.249
773.252
773.256
773.26
773.264
773.268
773.273
773.277
773.282
773.287
773.292
773.298
773.303
773.309
773.315
773.321
773.327
773.334
773.341
773.348
773.355
773.363
773.371
773.378
773.386
773.393
773.401
773.409
773.418
773.427
773.436
773.445
773.455
773.464
773.474
773.484
773.495
773.505
773.516
773.526
773.536
773.547
773.558
773.57
773.581
773.594
773.606
773.619
773.631
773.645
773.658
773.671
773.684
773.698
773.712
773.726
773.74
773.755
773.769
773.785
773.8
773.816
773.832
773.848
773.864
773.881
773.897
773.914
773.932
773.949
773.967
773.985
774.003
774.022
774.04
774.059
774.078
774.098
774.117
774.137
774.157
774.178
774.198
774.219
774.24
774.261
774.283
774.304
774.326
774.348
774.371
774.393
774.416
774.44
774.463
774.486
774.51
774.534
774.559
774.583
774.608
774.633
774.658
774.684
774.71
774.735
774.762
774.788
774.815
774.842
774.869
774.896
774.924
774.951
774.979
775.008
775.036
775.065
775.094
775.123
775.152
775.182
775.212
775.242
775.272
775.303
775.333
775.364
775.395
775.427
775.458
775.49
775.522
775.554
775.587
775.619
775.652
775.685
775.718
775.751
775.785
775.819
775.853
775.887
775.921
775.956
775.99
776.025
776.06
776.096
776.131
776.166
776.202
776.238
776.274
776.31
776.347
776.383
776.42
776.457
776.494
776.531
776.568
776.606
776.643
776.681
776.719
776.756
776.796
776.831
776.873
776.907
776.951
776.983
777.03
777.059
777.109
777.136
777.19
777.218
777.302
773.217
773.215
773.215
773.215
773.216
773.217
773.218
773.219
773.221
773.222
773.224
773.226
773.228
773.231
773.233
773.236
773.239
773.242
773.245
773.249
773.252
773.256
773.26
773.264
773.268
773.273
773.277
773.282
773.287
773.292
773.298
773.303
773.309
773.315
773.321
773.327
773.334
773.341
773.348
773.355
773.363
773.371
773.378
773.386
773.393
773.401
773.409
773.418
773.427
773.436
773.445
773.455
773.464
773.474
773.484
773.495
773.505
773.516
773.526
773.536
773.547
773.558
773.57
773.581
773.593
773.606
773.618
773.631
773.645
773.658
773.671
773.684
773.698
773.712
773.726
773.74
773.755
773.769
773.785
773.8
773.816
773.831
773.848
773.864
773.881
773.897
773.914
773.932
773.949
773.967
773.985
774.003
774.022
774.04
774.059
774.078
774.098
774.117
774.137
774.157
774.178
774.198
774.219
774.24
774.261
774.283
774.304
774.326
774.348
774.371
774.393
774.416
774.44
774.463
774.486
774.51
774.534
774.559
774.583
774.608
774.633
774.658
774.684
774.71
774.735
774.762
774.788
774.815
774.842
774.869
774.896
774.924
774.951
774.979
775.008
775.036
775.065
775.094
775.123
775.152
775.182
775.212
775.242
775.272
775.303
775.333
775.364
775.395
775.427
775.458
775.49
775.522
775.554
775.587
775.619
775.652
775.685
775.718
775.751
775.785
775.819
775.853
775.887
775.921
775.956
775.99
776.025
776.06
776.096
776.131
776.166
776.202
776.238
776.274
776.31
776.347
776.383
776.42
776.457
776.494
776.531
776.568
776.606
776.643
776.681
776.719
776.756
776.796
776.831
776.873
776.907
776.951
776.983
777.03
777.059
777.109
777.136
777.19
777.218
777.3
773.217
773.216
773.215
773.215
773.216
773.217
773.218
773.219
773.221
773.222
773.224
773.226
773.229
773.231
773.233
773.236
773.239
773.242
773.245
773.249
773.252
773.256
773.26
773.264
773.268
773.273
773.277
773.282
773.287
773.292
773.298
773.303
773.309
773.315
773.321
773.328
773.334
773.341
773.348
773.355
773.363
773.371
773.378
773.386
773.393
773.401
773.409
773.418
773.427
773.436
773.445
773.455
773.464
773.474
773.484
773.495
773.505
773.516
773.526
773.536
773.547
773.558
773.57
773.581
773.594
773.606
773.618
773.631
773.645
773.658
773.671
773.684
773.698
773.712
773.726
773.74
773.755
773.769
773.785
773.8
773.816
773.831
773.848
773.864
773.881
773.897
773.914
773.932
773.949
773.967
773.985
774.003
774.022
774.04
774.059
774.078
774.098
774.117
774.137
774.157
774.178
774.198
774.219
774.24
774.261
774.283
774.304
774.326
774.348
774.371
774.393
774.416
774.44
774.463
774.486
774.51
774.534
774.559
774.583
774.608
774.633
774.658
774.684
774.71
774.735
774.762
774.788
774.815
774.842
774.869
774.896
774.924
774.951
774.979
775.008
775.036
775.065
775.094
775.123
775.152
775.182
775.212
775.242
775.272
775.303
775.333
775.364
775.395
775.427
775.458
775.49
775.522
775.554
775.587
775.619
775.652
775.685
775.718
775.751
775.785
775.819
775.853
775.887
775.921
775.956
775.99
776.025
776.06
776.096
776.131
776.166
776.202
776.238
776.274
776.31
776.347
776.383
776.42
776.457
776.494
776.531
776.568
776.606
776.643
776.681
776.719
776.756
776.796
776.831
776.873
776.907
776.951
776.983
777.03
777.059
777.109
777.136
777.189
777.218
777.283
773.217
773.216
773.215
773.215
773.216
773.217
773.218
773.219
773.221
773.222
773.224
773.226
773.229
773.231
773.233
773.236
773.239
773.242
773.245
773.249
773.252
773.256
773.26
773.264
773.268
773.273
773.277
773.282
773.287
773.292
773.298
773.303
773.309
773.315
773.321
773.328
773.334
773.341
773.348
773.355
773.363
773.371
773.378
773.386
773.393
773.401
773.409
773.418
773.427
773.436
773.445
773.455
773.464
773.474
773.485
773.495
773.505
773.516
773.526
773.536
773.547
773.558
773.57
773.581
773.594
773.606
773.619
773.631
773.645
773.658
773.671
773.684
773.698
773.712
773.726
773.74
773.755
773.769
773.785
773.8
773.816
773.831
773.848
773.864
773.881
773.897
773.914
773.932
773.949
773.967
773.985
774.003
774.022
774.04
774.059
774.078
774.098
774.117
774.137
774.157
774.178
774.198
774.219
774.24
774.261
774.283
774.304
774.326
774.348
774.371
774.393
774.416
774.44
774.463
774.486
774.51
774.534
774.559
774.583
774.608
774.633
774.658
774.684
774.71
774.735
774.762
774.788
774.815
774.842
774.869
774.896
774.924
774.951
774.979
775.008
775.036
775.065
775.094
775.123
775.152
775.182
775.212
775.242
775.272
775.303
775.333
775.364
775.395
775.427
775.458
775.49
775.522
775.554
775.587
775.619
775.652
775.685
775.718
775.751
775.785
775.819
775.853
775.887
775.921
775.956
775.99
776.025
776.06
776.096
776.131
776.166
776.202
776.238
776.274
776.31
776.347
776.383
776.42
776.457
776.494
776.531
776.568
776.606
776.643
776.681
776.719
776.756
776.796
776.831
776.873
776.907
776.952
776.983
777.03
777.06
777.109
777.137
777.188
777.216
777.279
773.217
773.216
773.215
773.215
773.216
773.217
773.218
773.219
773.221
773.222
773.224
773.226
773.229
773.231
773.233
773.236
773.239
773.242
773.245
773.249
773.252
773.256
773.26
773.264
773.268
773.273
773.277
773.282
773.287
773.292
773.298
773.303
773.309
773.315
773.321
773.328
773.334
773.341
773.348
773.355
773.363
773.371
773.378
773.386
773.393
773.401
773.409
773.418
773.427
773.436
773.445
773.455
773.464
773.474
773.485
773.495
773.505
773.516
773.526
773.536
773.547
773.558
773.57
773.581
773.594
773.606
773.619
773.631
773.645
773.658
773.671
773.684
773.698
773.712
773.726
773.74
773.755
773.769
773.785
773.8
773.816
773.831
773.848
773.864
773.881
773.897
773.914
773.932
773.949
773.967
773.985
774.003
774.022
774.04
774.059
774.078
774.098
774.117
774.137
774.157
774.178
774.198
774.219
774.24
774.261
774.283
774.304
774.326
774.348
774.371
774.393
774.416
774.44
774.463
774.486
774.51
774.534
774.559
774.583
774.608
774.633
774.658
774.684
774.71
774.735
774.762
774.788
774.815
774.842
774.869
774.896
774.924
774.951
774.979
775.008
775.036
775.065
775.094
775.123
775.152
775.182
775.212
775.242
775.272
775.303
775.333
775.364
775.395
775.427
775.458
775.49
775.522
775.554
775.587
775.619
775.652
775.685
775.718
775.751
775.785
775.819
775.853
775.887
775.921
775.956
775.99
776.025
776.06
776.096
776.131
776.166
776.202
776.238
776.274
776.31
776.347
776.383
776.42
776.457
776.494
776.531
776.568
776.606
776.643
776.681
776.719
776.757
776.795
776.833
776.871
776.911
776.946
776.99
777.022
777.067
777.103
777.141
777.183
777.219
777.255
773.217
773.216
773.215
773.215
773.216
773.217
773.218
773.219
773.221
773.222
773.224
773.226
773.229
773.231
773.233
773.236
773.239
773.242
773.245
773.249
773.252
773.256
773.26
773.264
773.268
773.273
773.277
773.282
773.287
773.292
773.298
773.303
773.309
773.315
773.321
773.328
773.334
773.341
773.348
773.355
773.363
773.371
773.378
773.386
773.393
773.401
773.409
773.418
773.427
773.436
773.445
773.455
773.464
773.474
773.484
773.495
773.505
773.516
773.526
773.536
773.547
773.558
773.57
773.581
773.594
773.606
773.618
773.631
773.645
773.658
773.671
773.684
773.698
773.712
773.726
773.74
773.755
773.769
773.785
773.8
773.816
773.831
773.848
773.864
773.881
773.897
773.914
773.932
773.949
773.967
773.985
774.003
774.022
774.04
774.059
774.078
774.098
774.117
774.137
774.157
774.178
774.198
774.219
774.24
774.261
774.283
774.304
774.326
774.348
774.371
774.393
774.416
774.44
774.463
774.486
774.51
774.534
774.559
774.583
774.608
774.633
774.658
774.684
774.71
774.735
774.762
774.788
774.815
774.842
774.869
774.896
774.924
774.951
774.979
775.008
775.036
775.065
775.094
775.123
775.152
775.182
775.212
775.242
775.272
775.303
775.333
775.364
775.395
775.427
775.458
775.49
775.522
775.554
775.587
775.619
775.652
775.685
775.718
775.751
775.785
775.819
775.853
775.887
775.921
775.956
775.99
776.025
776.06
776.096
776.131
776.166
776.202
776.238
776.274
776.31
776.347
776.383
776.42
776.457
776.494
776.531
776.568
776.606
776.643
776.681
776.718
776.758
776.793
776.835
776.869
776.913
776.945
776.99
777.021
777.069
777.098
777.148
777.174
777.233
777.241
773.217
773.215
773.215
773.215
773.216
773.217
773.218
773.219
773.221
773.222
773.224
773.226
773.228
773.231
773.233
773.236
773.239
773.242
773.245
773.249
773.252
773.256
773.26
773.264
773.268
773.273
773.277
773.282
773.287
773.292
773.298
773.303
773.309
773.315
773.321
773.327
773.334
773.341
773.348
773.355
773.363
773.371
773.378
773.386
773.393
773.401
773.409
773.418
773.427
773.436
773.445
773.455
773.464
773.474
773.484
773.495
773.505
773.516
773.526
773.536
773.547
773.558
773.57
773.581
773.593
773.606
773.618
773.631
773.645
773.658
773.671
773.684
773.698
773.712
773.726
773.74
773.755
773.769
773.785
773.8
773.816
773.831
773.848
773.864
773.881
773.897
773.914
773.932
773.949
773.967
773.985
774.003
774.022
774.04
774.059
774.078
774.098
774.117
774.137
774.157
774.178
774.198
774.219
774.24
774.261
774.283
774.304
774.326
774.348
774.371
774.393
774.416
774.44
774.463
774.486
774.51
774.534
774.559
774.583
774.608
774.633
774.658
774.684
774.71
774.735
774.762
774.788
774.815
774.842
774.869
774.896
774.924
774.951
774.979
775.008
775.036
775.065
775.094
775.123
775.152
775.182
775.212
775.242
775.272
775.303
775.333
775.364
775.395
775.427
775.458
775.49
775.522
775.554
775.587
775.619
775.652
775.685
775.718
775.751
775.785
775.819
775.853
775.887
775.921
775.956
775.99
776.025
776.06
776.096
776.131
776.166
776.202
776.238
776.274
776.31
776.347
776.383
776.42
776.457
776.494
776.531
776.568
776.606
776.643
776.681
776.718
776.758
776.793
776.835
776.868
776.913
776.944
776.991
777.021
777.07
777.098
777.149
777.173
777.24
777.188
773.217
773.215
773.215
773.215
773.216
773.217
773.218
773.219
773.221
773.222
773.224
773.226
773.228
773.231
773.233
773.236
773.239
773.242
773.245
773.249
773.252
773.256
773.26
773.264
773.268
773.273
773.277
773.282
773.287
773.292
773.298
773.303
773.309
773.315
773.321
773.327
773.334
773.341
773.348
773.355
773.363
773.371
773.378
773.386
773.393
773.401
773.409
773.418
773.427
773.436
773.445
773.455
773.464
773.474
773.484
773.495
773.505
773.516
773.526
773.536
773.547
773.558
773.57
773.581
773.594
773.606
773.619
773.631
773.645
773.658
773.671
773.684
773.698
773.712
773.726
773.74
773.755
773.769
773.785
773.8
773.816
773.832
773.848
773.864
773.881
773.897
773.914
773.932
773.949
773.967
773.985
774.003
774.022
774.04
774.059
774.078
774.098
774.117
774.137
774.157
774.178
774.198
774.219
774.24
774.261
774.283
774.304
774.326
774.348
774.371
774.393
774.416
774.44
774.463
774.486
774.51
774.534
774.559
774.583
774.608
774.633
774.658
774.684
774.71
774.735
774.762
774.788
774.815
774.842
774.869
774.896
774.924
774.951
774.979
775.008
775.036
775.065
775.094
775.123
775.152
775.182
775.212
775.242
775.272
775.303
775.333
775.364
775.395
775.427
775.458
775.49
775.522
775.554
775.587
775.619
775.652
775.685
775.718
775.751
775.785
775.819
775.853
775.887
775.921
775.956
775.99
776.025
776.06
776.096
776.131
776.166
776.202
776.238
776.274
776.31
776.347
776.383
776.42
776.457
776.494
776.531
776.568
776.606
776.643
776.681
776.718
776.758
776.793
776.835
776.868
776.913
776.944
776.991
777.021
777.07
777.098
777.149
777.173
777.244
777.15
773.225
773.223
773.223
773.223
773.223
773.224
773.225
773.227
773.228
773.23
773.232
773.234
773.236
773.238
773.241
773.243
773.246
773.249
773.252
773.256
773.259
773.263
773.267
773.271
773.275
773.28
773.284
773.289
773.294
773.299
773.305
773.31
773.316
773.322
773.328
773.334
773.341
773.348
773.355
773.362
773.369
773.377
773.385
773.392
773.4
773.408
773.416
773.424
773.433
773.442
773.451
773.461
773.47
773.48
773.491
773.501
773.511
773.522
773.532
773.542
773.553
773.564
773.575
773.587
773.599
773.611
773.624
773.637
773.65
773.663
773.676
773.69
773.703
773.717
773.731
773.745
773.76
773.774
773.79
773.805
773.821
773.836
773.853
773.869
773.885
773.902
773.919
773.937
773.954
773.972
773.99
774.008
774.027
774.045
774.064
774.083
774.103
774.122
774.142
774.162
774.183
774.203
774.224
774.245
774.266
774.288
774.309
774.331
774.353
774.376
774.399
774.421
774.445
774.468
774.492
774.515
774.539
774.564
774.588
774.613
774.638
774.663
774.689
774.715
774.74
774.767
774.793
774.82
774.847
774.874
774.901
774.929
774.956
774.984
775.013
775.041
775.07
775.099
775.128
775.157
775.187
775.217
775.247
775.277
775.308
775.338
775.369
775.4
775.432
775.463
775.495
775.527
775.559
775.591
775.624
775.657
775.69
775.723
775.756
775.79
775.824
775.858
775.892
775.926
775.961
775.995
776.03
776.065
776.1
776.136
776.171
776.207
776.243
776.279
776.315
776.352
776.388
776.425
776.462
776.499
776.536
776.573
776.611
776.648
776.686
776.723
776.763
776.798
776.84
776.873
776.918
776.949
776.996
777.025
777.075
777.102
777.154
777.178
777.254
777.119
777.342
777.361
777.372
777.381
777.39
777.399
777.407
777.416
777.424
777.433
777.441
777.449
777.455
777.461
777.466
777.471
777.477
777.482
777.488
777.484
777.333
777.352
777.364
777.372
777.38
777.386
777.393
777.4
777.408
777.415
777.422
777.429
777.436
777.442
777.449
777.456
777.462
777.469
777.474
777.471
777.331
777.352
777.365
777.374
777.382
777.389
777.395
777.402
777.407
777.413
777.421
777.427
777.434
777.441
777.447
777.454
777.459
777.464
777.468
777.467
777.316
777.329
777.341
777.35
777.361
777.369
777.379
777.387
777.396
777.405
777.411
777.42
777.428
777.435
777.444
777.452
777.461
777.466
777.473
777.475
777.3
777.314
777.325
777.335
777.345
777.353
777.361
777.368
777.376
777.382
777.387
777.394
777.399
777.403
777.407
777.411
777.415
777.419
777.424
777.429
777.277
777.281
777.286
777.291
777.298
777.304
777.313
777.321
777.332
777.342
777.354
777.365
777.377
777.389
777.403
777.415
777.43
777.441
777.453
777.462
777.254
777.258
777.261
777.266
777.271
777.276
777.281
777.285
777.29
777.291
777.297
777.297
777.3
777.302
777.304
777.308
777.313
777.318
777.327
777.338
777.212
777.207
777.205
777.208
777.213
777.218
777.224
777.231
777.239
777.248
777.258
777.269
777.283
777.295
777.309
777.324
777.34
777.355
777.372
777.388
777.18
777.176
777.171
777.172
777.175
777.178
777.182
777.186
777.19
777.195
777.201
777.207
777.215
777.223
777.232
777.243
777.255
777.27
777.287
777.307
777.163
777.154
777.144
777.145
777.148
777.154
777.16
777.168
777.177
777.188
777.2
777.212
777.226
777.241
777.256
777.273
777.291
777.311
777.332
777.356
777.495
777.505
777.529
777.558
777.585
777.612
777.642
777.673
777.705
777.735
777.766
777.796
777.827
777.858
777.89
777.921
777.952
777.984
778.016
778.048
778.08
778.111
778.143
778.175
778.207
778.238
778.27
778.301
778.333
778.364
778.396
778.428
778.46
778.491
778.523
778.555
778.586
778.618
778.649
778.681
778.712
778.744
778.775
778.807
778.838
778.869
778.901
778.932
778.963
778.994
779.025
779.056
779.087
779.118
779.149
779.18
779.211
779.242
779.273
779.304
779.334
779.365
779.395
779.426
779.456
779.487
779.517
779.547
779.577
779.607
779.637
779.667
779.697
779.726
779.756
779.786
779.816
779.845
779.873
779.901
779.927
779.954
779.981
780.009
780.039
780.067
780.09
780.105
780.119
780.147
780.212
780.409
780.996
781.832
782.628
783.314
783.84
784.184
784.354
784.396
784.371
784.152
783.371
782.411
781.654
781.113
780.771
780.585
780.503
780.48
780.485
780.538
780.636
780.715
780.778
780.828
780.869
780.904
780.935
780.964
780.991
781.018
781.043
781.068
781.093
781.118
781.142
781.166
781.19
781.213
781.237
781.26
781.283
781.306
781.329
781.352
781.375
781.397
781.419
781.442
781.464
781.486
781.507
781.529
781.55
781.572
781.593
781.614
781.635
781.656
781.676
781.697
781.717
781.737
781.757
781.777
781.797
781.816
781.836
781.855
781.874
781.893
781.912
781.931
781.95
781.968
781.986
782.005
782.023
782.04
782.058
782.076
782.093
782.11
782.128
782.144
782.161
782.178
782.195
782.21
782.228
782.242
782.261
782.272
782.293
782.303
782.325
782.333
782.355
782.363
782.385
782.393
782.414
782.421
782.442
782.45
782.471
782.477
782.503
782.508
777.482
777.491
777.516
777.545
777.573
777.599
777.628
777.659
777.69
777.721
777.751
777.782
777.812
777.843
777.875
777.906
777.937
777.969
778
778.032
778.064
778.096
778.128
778.159
778.191
778.223
778.254
778.286
778.317
778.349
778.38
778.412
778.444
778.475
778.507
778.539
778.57
778.602
778.633
778.665
778.696
778.728
778.759
778.791
778.822
778.853
778.884
778.916
778.947
778.978
779.009
779.04
779.071
779.102
779.133
779.164
779.195
779.226
779.257
779.287
779.318
779.349
779.379
779.41
779.44
779.47
779.501
779.531
779.561
779.591
779.621
779.651
779.681
779.711
779.74
779.77
779.8
779.829
779.857
779.886
779.915
779.943
779.971
780.001
780.032
780.06
780.084
780.104
780.12
780.135
780.149
780.159
780.165
780.169
780.18
780.211
780.302
780.452
780.61
780.757
780.877
780.958
780.994
780.999
780.985
780.914
780.814
780.752
780.72
780.705
780.702
780.709
780.741
780.78
780.815
780.848
780.879
780.908
780.935
780.962
780.988
781.014
781.039
781.064
781.089
781.113
781.137
781.161
781.185
781.209
781.232
781.256
781.279
781.302
781.325
781.348
781.37
781.393
781.415
781.437
781.459
781.481
781.503
781.524
781.546
781.567
781.588
781.609
781.63
781.651
781.672
781.692
781.713
781.733
781.753
781.773
781.792
781.812
781.832
781.851
781.87
781.889
781.908
781.927
781.945
781.964
781.982
782
782.018
782.036
782.054
782.071
782.089
782.106
782.123
782.14
782.157
782.173
782.191
782.206
782.224
782.237
782.257
782.268
782.289
782.299
782.32
782.329
782.351
782.359
782.381
782.388
782.409
782.417
782.438
782.445
782.466
782.473
782.496
782.506
777.48
777.491
777.517
777.547
777.575
777.602
777.631
777.662
777.693
777.724
777.754
777.784
777.815
777.846
777.877
777.909
777.94
777.972
778.003
778.035
778.067
778.099
778.131
778.162
778.194
778.226
778.257
778.289
778.32
778.352
778.383
778.415
778.446
778.478
778.51
778.542
778.573
778.605
778.636
778.668
778.699
778.731
778.762
778.793
778.825
778.856
778.887
778.919
778.95
778.981
779.012
779.043
779.074
779.105
779.136
779.167
779.198
779.229
779.259
779.29
779.321
779.352
779.382
779.412
779.443
779.473
779.503
779.533
779.564
779.594
779.624
779.654
779.684
779.713
779.743
779.773
779.803
779.832
779.861
779.891
779.919
779.947
779.974
780.002
780.032
780.064
780.097
780.125
780.141
780.144
780.14
780.121
780.081
780.056
780.044
780.039
780.038
780.042
780.066
780.145
780.266
780.384
780.491
780.579
780.645
780.691
780.721
780.738
780.747
780.755
780.764
780.777
780.794
780.815
780.837
780.862
780.887
780.912
780.938
780.963
780.989
781.014
781.039
781.064
781.089
781.113
781.137
781.161
781.185
781.209
781.232
781.256
781.279
781.302
781.325
781.348
781.37
781.393
781.415
781.437
781.459
781.481
781.503
781.524
781.546
781.567
781.588
781.609
781.63
781.651
781.672
781.692
781.713
781.733
781.753
781.773
781.792
781.812
781.831
781.851
781.87
781.889
781.908
781.927
781.945
781.964
781.982
782
782.018
782.036
782.054
782.071
782.089
782.106
782.123
782.14
782.157
782.173
782.191
782.206
782.224
782.237
782.257
782.268
782.289
782.299
782.32
782.329
782.351
782.359
782.381
782.388
782.409
782.417
782.438
782.445
782.466
782.473
782.494
782.503
777.492
777.51
777.536
777.569
777.601
777.633
777.663
777.693
777.724
777.756
777.788
777.819
777.851
777.882
777.913
777.945
777.976
778.008
778.04
778.071
778.103
778.135
778.167
778.199
778.23
778.262
778.294
778.325
778.357
778.388
778.42
778.451
778.483
778.515
778.546
778.578
778.61
778.641
778.673
778.704
778.736
778.767
778.799
778.83
778.861
778.893
778.924
778.955
778.986
779.017
779.048
779.079
779.11
779.141
779.172
779.203
779.234
779.265
779.296
779.327
779.357
779.388
779.418
779.449
779.479
779.509
779.54
779.57
779.6
779.63
779.66
779.689
779.719
779.749
779.779
779.808
779.837
779.865
779.894
779.922
779.949
779.975
780.003
780.032
780.063
780.095
780.123
780.144
780.152
780.151
780.142
780.113
780.091
780.081
780.076
780.075
780.077
780.092
780.142
780.219
780.301
780.38
780.451
780.513
780.565
780.607
780.642
780.671
780.697
780.72
780.744
780.767
780.79
780.815
780.84
780.865
780.89
780.916
780.941
780.966
780.991
781.016
781.041
781.065
781.09
781.114
781.138
781.162
781.185
781.209
781.232
781.256
781.279
781.302
781.325
781.348
781.37
781.393
781.415
781.437
781.459
781.481
781.503
781.524
781.546
781.567
781.588
781.609
781.63
781.651
781.672
781.692
781.713
781.733
781.753
781.773
781.792
781.812
781.831
781.851
781.87
781.889
781.908
781.927
781.945
781.964
781.982
782
782.018
782.036
782.054
782.071
782.089
782.106
782.123
782.14
782.157
782.173
782.19
782.206
782.223
782.238
782.256
782.269
782.288
782.3
782.319
782.329
782.351
782.359
782.381
782.388
782.409
782.417
782.438
782.445
782.466
782.473
782.491
782.503
777.442
777.473
777.502
777.529
777.556
777.585
777.617
777.648
777.68
777.711
777.742
777.774
777.805
777.837
777.868
777.9
777.931
777.963
777.994
778.026
778.058
778.089
778.121
778.153
778.184
778.216
778.248
778.28
778.311
778.343
778.374
778.406
778.438
778.469
778.501
778.532
778.564
778.595
778.627
778.658
778.69
778.721
778.753
778.784
778.815
778.847
778.878
778.909
778.941
778.972
779.003
779.034
779.065
779.096
779.127
779.158
779.188
779.219
779.25
779.281
779.312
779.342
779.373
779.404
779.434
779.464
779.495
779.525
779.555
779.585
779.616
779.646
779.675
779.705
779.735
779.765
779.795
779.825
779.855
779.884
779.914
779.944
779.973
780.002
780.03
780.06
780.091
780.123
780.154
780.176
780.189
780.195
780.196
780.196
780.197
780.201
780.209
780.226
780.255
780.294
780.34
780.39
780.44
780.488
780.533
780.573
780.61
780.644
780.675
780.705
780.733
780.761
780.788
780.814
780.84
780.866
780.891
780.917
780.942
780.967
780.992
781.017
781.041
781.066
781.09
781.114
781.138
781.162
781.186
781.209
781.233
781.256
781.279
781.302
781.325
781.348
781.37
781.393
781.415
781.437
781.459
781.481
781.503
781.524
781.546
781.567
781.588
781.609
781.63
781.651
781.672
781.692
781.713
781.733
781.753
781.773
781.792
781.812
781.831
781.851
781.87
781.889
781.908
781.927
781.945
781.964
781.982
782
782.018
782.036
782.054
782.071
782.089
782.106
782.123
782.14
782.157
782.174
782.19
782.207
782.222
782.239
782.254
782.271
782.286
782.302
782.317
782.332
782.347
782.363
782.375
782.394
782.404
782.421
782.435
782.447
782.464
782.476
782.491
782.501
777.488
777.529
777.57
777.609
777.647
777.684
777.721
777.756
777.791
777.825
777.858
777.891
777.923
777.955
777.987
778.018
778.05
778.082
778.113
778.145
778.177
778.208
778.24
778.272
778.304
778.335
778.367
778.399
778.43
778.462
778.494
778.525
778.557
778.588
778.62
778.651
778.683
778.715
778.746
778.778
778.809
778.841
778.872
778.903
778.935
778.966
778.997
779.028
779.059
779.09
779.121
779.152
779.183
779.214
779.245
779.276
779.306
779.337
779.367
779.398
779.428
779.458
779.488
779.518
779.547
779.576
779.605
779.635
779.664
779.693
779.721
779.75
779.777
779.805
779.832
779.859
779.886
779.912
779.939
779.966
779.995
780.025
780.055
780.083
780.108
780.126
780.136
780.141
780.142
780.142
780.143
780.15
780.163
780.175
780.19
780.209
780.234
780.267
780.305
780.347
780.392
780.437
780.48
780.52
780.558
780.593
780.625
780.656
780.685
780.713
780.741
780.768
780.794
780.819
780.845
780.87
780.895
780.92
780.945
780.969
780.994
781.018
781.043
781.067
781.091
781.115
781.139
781.162
781.186
781.209
781.233
781.256
781.279
781.302
781.325
781.348
781.37
781.393
781.415
781.437
781.459
781.481
781.503
781.524
781.546
781.567
781.588
781.609
781.63
781.651
781.672
781.692
781.713
781.733
781.753
781.773
781.792
781.812
781.831
781.851
781.87
781.889
781.908
781.927
781.945
781.964
781.982
782
782.018
782.036
782.054
782.071
782.089
782.106
782.123
782.14
782.157
782.174
782.189
782.207
782.222
782.24
782.253
782.272
782.284
782.304
782.314
782.335
782.344
782.366
782.374
782.395
782.403
782.424
782.431
782.452
782.459
782.479
782.487
782.506
777.372
777.406
777.437
777.467
777.497
777.528
777.559
777.591
777.623
777.656
777.688
777.72
777.752
777.784
777.815
777.847
777.879
777.91
777.941
777.973
778.004
778.036
778.068
778.099
778.131
778.162
778.194
778.226
778.257
778.289
778.321
778.352
778.384
778.416
778.447
778.479
778.51
778.542
778.573
778.605
778.636
778.668
778.699
778.731
778.762
778.793
778.825
778.856
778.887
778.918
778.95
778.981
779.012
779.043
779.074
779.105
779.136
779.166
779.197
779.228
779.259
779.289
779.32
779.35
779.381
779.411
779.441
779.471
779.501
779.531
779.561
779.591
779.621
779.651
779.681
779.71
779.74
779.771
779.801
779.83
779.858
779.888
779.919
779.949
779.979
780.008
780.036
780.065
780.094
780.125
780.159
780.196
780.233
780.263
780.284
780.297
780.307
780.311
780.312
780.316
780.331
780.367
780.413
780.463
780.512
780.558
780.6
780.638
780.673
780.705
780.735
780.764
780.792
780.818
780.844
780.87
780.895
780.92
780.945
780.97
780.994
781.018
781.043
781.067
781.091
781.115
781.139
781.162
781.186
781.209
781.233
781.256
781.279
781.302
781.325
781.348
781.37
781.393
781.415
781.437
781.459
781.481
781.503
781.524
781.546
781.567
781.588
781.609
781.63
781.651
781.672
781.692
781.713
781.733
781.753
781.773
781.792
781.812
781.831
781.851
781.87
781.889
781.908
781.927
781.945
781.964
781.982
782
782.018
782.036
782.054
782.071
782.089
782.106
782.123
782.14
782.157
782.174
782.19
782.207
782.222
782.24
782.253
782.272
782.284
782.304
782.314
782.335
782.344
782.366
782.374
782.395
782.403
782.424
782.431
782.452
782.459
782.478
782.49
782.504
777.442
777.488
777.532
777.574
777.615
777.657
777.698
777.738
777.777
777.814
777.849
777.884
777.917
777.95
777.982
778.014
778.046
778.077
778.109
778.141
778.172
778.204
778.235
778.267
778.299
778.331
778.363
778.395
778.426
778.458
778.49
778.521
778.552
778.584
778.615
778.647
778.678
778.71
778.742
778.773
778.804
778.836
778.867
778.898
778.929
778.96
778.991
779.022
779.053
779.084
779.114
779.145
779.175
779.206
779.237
779.268
779.299
779.33
779.361
779.392
779.423
779.454
779.484
779.515
779.544
779.574
779.604
779.634
779.663
779.692
779.72
779.748
779.775
779.802
779.829
779.856
779.884
779.913
779.942
779.972
780.002
780.032
780.063
780.095
780.125
780.153
780.179
780.198