/*--------------------------------*- C++ -*----------------------------------*\
| =========                 |                                                 |
| \\      /  F ield         | OpenFOAM: The Open Source CFD Toolbox           |
|  \\    /   O peration     | Version:  3.0.x                                 |
|   \\  /    A nd           | Web:      www.OpenFOAM.org                      |
|    \\/     M anipulation  |                                                 |
\*---------------------------------------------------------------------------*/
FoamFile
{
    version     2.0;
    format      ascii;
    class       volScalarField;
    location    "0.59";
    object      p;
}
// * * * * * * * * * * * * * * * * * * * * * * * * * * * * * * * * * * * * * //

dimensions      [1 -1 -2 0 0 0 0];

internalField   nonuniform List<scalar> 
6900
(
1.99364e+07
1.99369e+07
1.99377e+07
1.99384e+07
1.9939e+07
1.99395e+07
1.994e+07
1.99405e+07
1.9941e+07
1.99414e+07
1.99418e+07
1.99421e+07
1.99424e+07
1.99427e+07
1.9943e+07
1.99432e+07
1.99433e+07
1.99435e+07
1.99436e+07
1.99436e+07
1.99437e+07
1.99437e+07
1.99436e+07
1.99436e+07
1.99435e+07
1.99433e+07
1.99431e+07
1.99429e+07
1.99427e+07
1.99424e+07
1.99421e+07
1.99418e+07
1.99414e+07
1.9941e+07
1.99406e+07
1.99401e+07
1.99396e+07
1.99391e+07
1.99385e+07
1.9938e+07
1.99373e+07
1.99367e+07
1.9936e+07
1.99353e+07
1.99345e+07
1.99337e+07
1.99329e+07
1.9932e+07
1.99312e+07
1.99303e+07
1.99293e+07
1.99283e+07
1.99273e+07
1.99263e+07
1.99252e+07
1.99241e+07
1.9923e+07
1.99219e+07
1.99207e+07
1.99195e+07
1.99182e+07
1.9917e+07
1.99157e+07
1.99144e+07
1.9913e+07
1.99117e+07
1.99103e+07
1.99088e+07
1.99074e+07
1.99059e+07
1.99045e+07
1.99029e+07
1.99014e+07
1.98999e+07
1.98983e+07
1.98967e+07
1.98951e+07
1.98934e+07
1.98918e+07
1.98901e+07
1.98884e+07
1.98867e+07
1.9885e+07
1.98833e+07
1.98815e+07
1.98797e+07
1.98779e+07
1.98761e+07
1.98743e+07
1.98725e+07
1.98706e+07
1.98688e+07
1.98669e+07
1.9865e+07
1.98631e+07
1.98612e+07
1.98593e+07
1.98573e+07
1.98554e+07
1.98534e+07
1.98514e+07
1.98494e+07
1.98474e+07
1.98453e+07
1.98433e+07
1.98412e+07
1.98392e+07
1.98371e+07
1.9835e+07
1.98329e+07
1.98308e+07
1.98287e+07
1.98265e+07
1.98244e+07
1.98222e+07
1.98201e+07
1.98179e+07
1.98157e+07
1.98135e+07
1.98113e+07
1.98091e+07
1.98069e+07
1.98047e+07
1.98025e+07
1.98002e+07
1.9798e+07
1.97958e+07
1.97936e+07
1.97913e+07
1.97891e+07
1.97869e+07
1.97846e+07
1.97824e+07
1.97802e+07
1.97779e+07
1.97757e+07
1.97735e+07
1.97712e+07
1.9769e+07
1.97668e+07
1.97646e+07
1.97623e+07
1.97601e+07
1.97579e+07
1.97557e+07
1.97535e+07
1.97513e+07
1.97491e+07
1.97469e+07
1.97447e+07
1.97425e+07
1.97403e+07
1.97381e+07
1.97359e+07
1.97337e+07
1.97315e+07
1.97294e+07
1.97272e+07
1.9725e+07
1.97228e+07
1.97207e+07
1.97185e+07
1.97164e+07
1.97142e+07
1.97121e+07
1.971e+07
1.97079e+07
1.97058e+07
1.97038e+07
1.97017e+07
1.96997e+07
1.96977e+07
1.96957e+07
1.96937e+07
1.96917e+07
1.96898e+07
1.96878e+07
1.96859e+07
1.96841e+07
1.96822e+07
1.96804e+07
1.96786e+07
1.96768e+07
1.9675e+07
1.96733e+07
1.96716e+07
1.96699e+07
1.96682e+07
1.96665e+07
1.96649e+07
1.96633e+07
1.96617e+07
1.96601e+07
1.96585e+07
1.9657e+07
1.96554e+07
1.96539e+07
1.96524e+07
1.96509e+07
1.96495e+07
1.99364e+07
1.99369e+07
1.99377e+07
1.99384e+07
1.9939e+07
1.99395e+07
1.994e+07
1.99405e+07
1.9941e+07
1.99414e+07
1.99418e+07
1.99421e+07
1.99424e+07
1.99427e+07
1.9943e+07
1.99432e+07
1.99433e+07
1.99435e+07
1.99436e+07
1.99436e+07
1.99437e+07
1.99437e+07
1.99436e+07
1.99436e+07
1.99435e+07
1.99433e+07
1.99431e+07
1.99429e+07
1.99427e+07
1.99424e+07
1.99421e+07
1.99418e+07
1.99414e+07
1.9941e+07
1.99406e+07
1.99401e+07
1.99396e+07
1.99391e+07
1.99385e+07
1.9938e+07
1.99373e+07
1.99367e+07
1.9936e+07
1.99353e+07
1.99345e+07
1.99337e+07
1.99329e+07
1.9932e+07
1.99312e+07
1.99303e+07
1.99293e+07
1.99283e+07
1.99273e+07
1.99263e+07
1.99252e+07
1.99241e+07
1.9923e+07
1.99219e+07
1.99207e+07
1.99195e+07
1.99182e+07
1.9917e+07
1.99157e+07
1.99144e+07
1.9913e+07
1.99117e+07
1.99103e+07
1.99088e+07
1.99074e+07
1.99059e+07
1.99045e+07
1.99029e+07
1.99014e+07
1.98999e+07
1.98983e+07
1.98967e+07
1.98951e+07
1.98934e+07
1.98918e+07
1.98901e+07
1.98884e+07
1.98867e+07
1.9885e+07
1.98833e+07
1.98815e+07
1.98797e+07
1.98779e+07
1.98761e+07
1.98743e+07
1.98725e+07
1.98706e+07
1.98688e+07
1.98669e+07
1.9865e+07
1.98631e+07
1.98612e+07
1.98593e+07
1.98573e+07
1.98554e+07
1.98534e+07
1.98514e+07
1.98494e+07
1.98474e+07
1.98453e+07
1.98433e+07
1.98412e+07
1.98392e+07
1.98371e+07
1.9835e+07
1.98329e+07
1.98308e+07
1.98287e+07
1.98265e+07
1.98244e+07
1.98222e+07
1.98201e+07
1.98179e+07
1.98157e+07
1.98135e+07
1.98113e+07
1.98091e+07
1.98069e+07
1.98047e+07
1.98025e+07
1.98002e+07
1.9798e+07
1.97958e+07
1.97936e+07
1.97913e+07
1.97891e+07
1.97869e+07
1.97846e+07
1.97824e+07
1.97802e+07
1.97779e+07
1.97757e+07
1.97735e+07
1.97712e+07
1.9769e+07
1.97668e+07
1.97646e+07
1.97623e+07
1.97601e+07
1.97579e+07
1.97557e+07
1.97535e+07
1.97513e+07
1.97491e+07
1.97469e+07
1.97447e+07
1.97425e+07
1.97403e+07
1.97381e+07
1.97359e+07
1.97337e+07
1.97315e+07
1.97294e+07
1.97272e+07
1.9725e+07
1.97228e+07
1.97207e+07
1.97185e+07
1.97164e+07
1.97142e+07
1.97121e+07
1.971e+07
1.97079e+07
1.97058e+07
1.97038e+07
1.97017e+07
1.96997e+07
1.96977e+07
1.96957e+07
1.96937e+07
1.96917e+07
1.96898e+07
1.96878e+07
1.96859e+07
1.96841e+07
1.96822e+07
1.96804e+07
1.96786e+07
1.96768e+07
1.9675e+07
1.96733e+07
1.96716e+07
1.96699e+07
1.96682e+07
1.96665e+07
1.96649e+07
1.96633e+07
1.96617e+07
1.96601e+07
1.96585e+07
1.9657e+07
1.96554e+07
1.96539e+07
1.96524e+07
1.96509e+07
1.96495e+07
1.99364e+07
1.99369e+07
1.99377e+07
1.99384e+07
1.9939e+07
1.99395e+07
1.994e+07
1.99405e+07
1.9941e+07
1.99414e+07
1.99418e+07
1.99421e+07
1.99424e+07
1.99427e+07
1.9943e+07
1.99432e+07
1.99433e+07
1.99435e+07
1.99436e+07
1.99436e+07
1.99437e+07
1.99437e+07
1.99436e+07
1.99436e+07
1.99435e+07
1.99433e+07
1.99431e+07
1.99429e+07
1.99427e+07
1.99424e+07
1.99421e+07
1.99418e+07
1.99414e+07
1.9941e+07
1.99406e+07
1.99401e+07
1.99396e+07
1.99391e+07
1.99385e+07
1.9938e+07
1.99373e+07
1.99367e+07
1.9936e+07
1.99353e+07
1.99345e+07
1.99337e+07
1.99329e+07
1.9932e+07
1.99312e+07
1.99303e+07
1.99293e+07
1.99283e+07
1.99273e+07
1.99263e+07
1.99252e+07
1.99241e+07
1.9923e+07
1.99219e+07
1.99207e+07
1.99195e+07
1.99182e+07
1.9917e+07
1.99157e+07
1.99144e+07
1.9913e+07
1.99117e+07
1.99103e+07
1.99088e+07
1.99074e+07
1.99059e+07
1.99045e+07
1.99029e+07
1.99014e+07
1.98999e+07
1.98983e+07
1.98967e+07
1.98951e+07
1.98934e+07
1.98918e+07
1.98901e+07
1.98884e+07
1.98867e+07
1.9885e+07
1.98833e+07
1.98815e+07
1.98797e+07
1.98779e+07
1.98761e+07
1.98743e+07
1.98725e+07
1.98706e+07
1.98688e+07
1.98669e+07
1.9865e+07
1.98631e+07
1.98612e+07
1.98593e+07
1.98573e+07
1.98554e+07
1.98534e+07
1.98514e+07
1.98494e+07
1.98474e+07
1.98453e+07
1.98433e+07
1.98412e+07
1.98392e+07
1.98371e+07
1.9835e+07
1.98329e+07
1.98308e+07
1.98287e+07
1.98265e+07
1.98244e+07
1.98222e+07
1.98201e+07
1.98179e+07
1.98157e+07
1.98135e+07
1.98113e+07
1.98091e+07
1.98069e+07
1.98047e+07
1.98025e+07
1.98002e+07
1.9798e+07
1.97958e+07
1.97936e+07
1.97913e+07
1.97891e+07
1.97869e+07
1.97846e+07
1.97824e+07
1.97802e+07
1.97779e+07
1.97757e+07
1.97735e+07
1.97712e+07
1.9769e+07
1.97668e+07
1.97646e+07
1.97623e+07
1.97601e+07
1.97579e+07
1.97557e+07
1.97535e+07
1.97513e+07
1.97491e+07
1.97469e+07
1.97447e+07
1.97425e+07
1.97403e+07
1.97381e+07
1.97359e+07
1.97337e+07
1.97315e+07
1.97294e+07
1.97272e+07
1.9725e+07
1.97228e+07
1.97207e+07
1.97185e+07
1.97164e+07
1.97142e+07
1.97121e+07
1.971e+07
1.97079e+07
1.97058e+07
1.97038e+07
1.97017e+07
1.96997e+07
1.96977e+07
1.96957e+07
1.96937e+07
1.96917e+07
1.96898e+07
1.96878e+07
1.96859e+07
1.96841e+07
1.96822e+07
1.96804e+07
1.96786e+07
1.96768e+07
1.9675e+07
1.96733e+07
1.96716e+07
1.96699e+07
1.96682e+07
1.96665e+07
1.96649e+07
1.96633e+07
1.96617e+07
1.96601e+07
1.96585e+07
1.9657e+07
1.96554e+07
1.96539e+07
1.96524e+07
1.96509e+07
1.96494e+07
1.99364e+07
1.99369e+07
1.99377e+07
1.99384e+07
1.9939e+07
1.99395e+07
1.994e+07
1.99405e+07
1.9941e+07
1.99414e+07
1.99418e+07
1.99421e+07
1.99424e+07
1.99427e+07
1.9943e+07
1.99432e+07
1.99433e+07
1.99435e+07
1.99436e+07
1.99436e+07
1.99437e+07
1.99437e+07
1.99436e+07
1.99436e+07
1.99435e+07
1.99433e+07
1.99431e+07
1.99429e+07
1.99427e+07
1.99424e+07
1.99421e+07
1.99418e+07
1.99414e+07
1.9941e+07
1.99406e+07
1.99401e+07
1.99396e+07
1.99391e+07
1.99385e+07
1.9938e+07
1.99373e+07
1.99367e+07
1.9936e+07
1.99353e+07
1.99345e+07
1.99337e+07
1.99329e+07
1.9932e+07
1.99312e+07
1.99303e+07
1.99293e+07
1.99283e+07
1.99273e+07
1.99263e+07
1.99252e+07
1.99241e+07
1.9923e+07
1.99219e+07
1.99207e+07
1.99195e+07
1.99182e+07
1.9917e+07
1.99157e+07
1.99144e+07
1.9913e+07
1.99117e+07
1.99103e+07
1.99088e+07
1.99074e+07
1.99059e+07
1.99045e+07
1.99029e+07
1.99014e+07
1.98999e+07
1.98983e+07
1.98967e+07
1.98951e+07
1.98934e+07
1.98918e+07
1.98901e+07
1.98884e+07
1.98867e+07
1.9885e+07
1.98833e+07
1.98815e+07
1.98797e+07
1.98779e+07
1.98761e+07
1.98743e+07
1.98725e+07
1.98706e+07
1.98688e+07
1.98669e+07
1.9865e+07
1.98631e+07
1.98612e+07
1.98593e+07
1.98573e+07
1.98554e+07
1.98534e+07
1.98514e+07
1.98494e+07
1.98474e+07
1.98453e+07
1.98433e+07
1.98412e+07
1.98392e+07
1.98371e+07
1.9835e+07
1.98329e+07
1.98308e+07
1.98287e+07
1.98265e+07
1.98244e+07
1.98222e+07
1.98201e+07
1.98179e+07
1.98157e+07
1.98135e+07
1.98113e+07
1.98091e+07
1.98069e+07
1.98047e+07
1.98025e+07
1.98002e+07
1.9798e+07
1.97958e+07
1.97936e+07
1.97913e+07
1.97891e+07
1.97869e+07
1.97846e+07
1.97824e+07
1.97802e+07
1.97779e+07
1.97757e+07
1.97735e+07
1.97712e+07
1.9769e+07
1.97668e+07
1.97646e+07
1.97623e+07
1.97601e+07
1.97579e+07
1.97557e+07
1.97535e+07
1.97513e+07
1.97491e+07
1.97469e+07
1.97447e+07
1.97425e+07
1.97403e+07
1.97381e+07
1.97359e+07
1.97337e+07
1.97315e+07
1.97294e+07
1.97272e+07
1.9725e+07
1.97228e+07
1.97207e+07
1.97185e+07
1.97164e+07
1.97142e+07
1.97121e+07
1.971e+07
1.97079e+07
1.97058e+07
1.97038e+07
1.97017e+07
1.96997e+07
1.96977e+07
1.96957e+07
1.96937e+07
1.96917e+07
1.96898e+07
1.96878e+07
1.96859e+07
1.96841e+07
1.96822e+07
1.96804e+07
1.96786e+07
1.96768e+07
1.9675e+07
1.96733e+07
1.96716e+07
1.96699e+07
1.96682e+07
1.96665e+07
1.96649e+07
1.96633e+07
1.96617e+07
1.96601e+07
1.96585e+07
1.9657e+07
1.96554e+07
1.96539e+07
1.96524e+07
1.96509e+07
1.96494e+07
1.99364e+07
1.99369e+07
1.99377e+07
1.99384e+07
1.9939e+07
1.99395e+07
1.994e+07
1.99405e+07
1.9941e+07
1.99414e+07
1.99418e+07
1.99421e+07
1.99424e+07
1.99427e+07
1.9943e+07
1.99432e+07
1.99433e+07
1.99435e+07
1.99436e+07
1.99436e+07
1.99437e+07
1.99437e+07
1.99436e+07
1.99436e+07
1.99435e+07
1.99433e+07
1.99431e+07
1.99429e+07
1.99427e+07
1.99424e+07
1.99421e+07
1.99418e+07
1.99414e+07
1.9941e+07
1.99406e+07
1.99401e+07
1.99396e+07
1.99391e+07
1.99385e+07
1.9938e+07
1.99373e+07
1.99367e+07
1.9936e+07
1.99353e+07
1.99345e+07
1.99337e+07
1.99329e+07
1.9932e+07
1.99312e+07
1.99303e+07
1.99293e+07
1.99283e+07
1.99273e+07
1.99263e+07
1.99252e+07
1.99241e+07
1.9923e+07
1.99219e+07
1.99207e+07
1.99195e+07
1.99182e+07
1.9917e+07
1.99157e+07
1.99144e+07
1.9913e+07
1.99117e+07
1.99103e+07
1.99088e+07
1.99074e+07
1.99059e+07
1.99045e+07
1.99029e+07
1.99014e+07
1.98999e+07
1.98983e+07
1.98967e+07
1.98951e+07
1.98934e+07
1.98918e+07
1.98901e+07
1.98884e+07
1.98867e+07
1.9885e+07
1.98833e+07
1.98815e+07
1.98797e+07
1.98779e+07
1.98761e+07
1.98743e+07
1.98725e+07
1.98706e+07
1.98688e+07
1.98669e+07
1.9865e+07
1.98631e+07
1.98612e+07
1.98593e+07
1.98573e+07
1.98554e+07
1.98534e+07
1.98514e+07
1.98494e+07
1.98474e+07
1.98453e+07
1.98433e+07
1.98412e+07
1.98392e+07
1.98371e+07
1.9835e+07
1.98329e+07
1.98308e+07
1.98287e+07
1.98265e+07
1.98244e+07
1.98222e+07
1.98201e+07
1.98179e+07
1.98157e+07
1.98135e+07
1.98113e+07
1.98091e+07
1.98069e+07
1.98047e+07
1.98025e+07
1.98002e+07
1.9798e+07
1.97958e+07
1.97936e+07
1.97913e+07
1.97891e+07
1.97869e+07
1.97846e+07
1.97824e+07
1.97802e+07
1.97779e+07
1.97757e+07
1.97735e+07
1.97712e+07
1.9769e+07
1.97668e+07
1.97646e+07
1.97623e+07
1.97601e+07
1.97579e+07
1.97557e+07
1.97535e+07
1.97513e+07
1.97491e+07
1.97469e+07
1.97447e+07
1.97425e+07
1.97403e+07
1.97381e+07
1.97359e+07
1.97337e+07
1.97315e+07
1.97294e+07
1.97272e+07
1.9725e+07
1.97228e+07
1.97207e+07
1.97185e+07
1.97164e+07
1.97142e+07
1.97121e+07
1.971e+07
1.97079e+07
1.97058e+07
1.97038e+07
1.97017e+07
1.96997e+07
1.96977e+07
1.96957e+07
1.96937e+07
1.96917e+07
1.96898e+07
1.96878e+07
1.96859e+07
1.96841e+07
1.96822e+07
1.96804e+07
1.96786e+07
1.96768e+07
1.9675e+07
1.96733e+07
1.96716e+07
1.96699e+07
1.96682e+07
1.96665e+07
1.96649e+07
1.96633e+07
1.96617e+07
1.96601e+07
1.96585e+07
1.9657e+07
1.96554e+07
1.96539e+07
1.96524e+07
1.96509e+07
1.96494e+07
1.96487e+07
1.96485e+07
1.96482e+07
1.96479e+07
1.96477e+07
1.96474e+07
1.96471e+07
1.96468e+07
1.96466e+07
1.96465e+07
1.96463e+07
1.96461e+07
1.96458e+07
1.96453e+07
1.96449e+07
1.96446e+07
1.96443e+07
1.96439e+07
1.96435e+07
1.96433e+07
1.96487e+07
1.96484e+07
1.96482e+07
1.96479e+07
1.96476e+07
1.96473e+07
1.96471e+07
1.96468e+07
1.96466e+07
1.96464e+07
1.96463e+07
1.96461e+07
1.96457e+07
1.96451e+07
1.96447e+07
1.96445e+07
1.96442e+07
1.96438e+07
1.96435e+07
1.96433e+07
1.96486e+07
1.96483e+07
1.9648e+07
1.96477e+07
1.96474e+07
1.96471e+07
1.96468e+07
1.96465e+07
1.96462e+07
1.96459e+07
1.96456e+07
1.96452e+07
1.96449e+07
1.96446e+07
1.96443e+07
1.9644e+07
1.96436e+07
1.96433e+07
1.9643e+07
1.96426e+07
1.96483e+07
1.96481e+07
1.96478e+07
1.96475e+07
1.96472e+07
1.96469e+07
1.96466e+07
1.96463e+07
1.9646e+07
1.96457e+07
1.96454e+07
1.96451e+07
1.96448e+07
1.96445e+07
1.96442e+07
1.96439e+07
1.96436e+07
1.96433e+07
1.9643e+07
1.96427e+07
1.96482e+07
1.96479e+07
1.96477e+07
1.96474e+07
1.96471e+07
1.96468e+07
1.96465e+07
1.96461e+07
1.96458e+07
1.96455e+07
1.96452e+07
1.96449e+07
1.96445e+07
1.96442e+07
1.96439e+07
1.96436e+07
1.96433e+07
1.9643e+07
1.96427e+07
1.96424e+07
1.9643e+07
1.96418e+07
1.96399e+07
1.96388e+07
1.96384e+07
1.96382e+07
1.96359e+07
1.96345e+07
1.96344e+07
1.96346e+07
1.96317e+07
1.96305e+07
1.96303e+07
1.96334e+07
1.96302e+07
1.96267e+07
1.96262e+07
1.96262e+07
1.96297e+07
1.96303e+07
1.96232e+07
1.96212e+07
1.96216e+07
1.96216e+07
1.96256e+07
1.96282e+07
1.9621e+07
1.96164e+07
1.96167e+07
1.96175e+07
1.96242e+07
1.96273e+07
1.96201e+07
1.96128e+07
1.96111e+07
1.96106e+07
1.96101e+07
1.96096e+07
1.96092e+07
1.9609e+07
1.96095e+07
1.96102e+07
1.96125e+07
1.96182e+07
1.96206e+07
1.96119e+07
1.96051e+07
1.96039e+07
1.96035e+07
1.96032e+07
1.96028e+07
1.96024e+07
1.9602e+07
1.96016e+07
1.96012e+07
1.96009e+07
1.96005e+07
1.96001e+07
1.95997e+07
1.95994e+07
1.9599e+07
1.95987e+07
1.95984e+07
1.95981e+07
1.95978e+07
1.95975e+07
1.95972e+07
1.95969e+07
1.95966e+07
1.95963e+07
1.95961e+07
1.95959e+07
1.95956e+07
1.95954e+07
1.95952e+07
1.9595e+07
1.95948e+07
1.95946e+07
1.95944e+07
1.95942e+07
1.9594e+07
1.95938e+07
1.95936e+07
1.95935e+07
1.95933e+07
1.95931e+07
1.95929e+07
1.95928e+07
1.95926e+07
1.95925e+07
1.95924e+07
1.95924e+07
1.95926e+07
1.95929e+07
1.95934e+07
1.95944e+07
1.95957e+07
1.95955e+07
1.95936e+07
1.95919e+07
1.95916e+07
1.95918e+07
1.95919e+07
1.95921e+07
1.95922e+07
1.95923e+07
1.95924e+07
1.95925e+07
1.95926e+07
1.95926e+07
1.95927e+07
1.95927e+07
1.95928e+07
1.95929e+07
1.95929e+07
1.9593e+07
1.9593e+07
1.95931e+07
1.95931e+07
1.95931e+07
1.95931e+07
1.9593e+07
1.9593e+07
1.95929e+07
1.95928e+07
1.95928e+07
1.95928e+07
1.95927e+07
1.95927e+07
1.95927e+07
1.95926e+07
1.95926e+07
1.95926e+07
1.95926e+07
1.95926e+07
1.95926e+07
1.95926e+07
1.95926e+07
1.95926e+07
1.95926e+07
1.95926e+07
1.95927e+07
1.95927e+07
1.95927e+07
1.95927e+07
1.95927e+07
1.95928e+07
1.95928e+07
1.95928e+07
1.95928e+07
1.95929e+07
1.95929e+07
1.95929e+07
1.9593e+07
1.9593e+07
1.9593e+07
1.95931e+07
1.95931e+07
1.95931e+07
1.95932e+07
1.95932e+07
1.95933e+07
1.95933e+07
1.95934e+07
1.95934e+07
1.95934e+07
1.95935e+07
1.95935e+07
1.95936e+07
1.95937e+07
1.95937e+07
1.95938e+07
1.95938e+07
1.95939e+07
1.9594e+07
1.9594e+07
1.95941e+07
1.95942e+07
1.95943e+07
1.95944e+07
1.95945e+07
1.95946e+07
1.95947e+07
1.95948e+07
1.95949e+07
1.9595e+07
1.95951e+07
1.95952e+07
1.95953e+07
1.95954e+07
1.95956e+07
1.95957e+07
1.95958e+07
1.95959e+07
1.9596e+07
1.95962e+07
1.95963e+07
1.95964e+07
1.95965e+07
1.95966e+07
1.96429e+07
1.96418e+07
1.96399e+07
1.96388e+07
1.96384e+07
1.96382e+07
1.96359e+07
1.96345e+07
1.96344e+07
1.96346e+07
1.96317e+07
1.96305e+07
1.96303e+07
1.96333e+07
1.96302e+07
1.96267e+07
1.96262e+07
1.96262e+07
1.96297e+07
1.96302e+07
1.96233e+07
1.96212e+07
1.96216e+07
1.96216e+07
1.96256e+07
1.96281e+07
1.9621e+07
1.96164e+07
1.96167e+07
1.96175e+07
1.96242e+07
1.96271e+07
1.96201e+07
1.96128e+07
1.96111e+07
1.96106e+07
1.96101e+07
1.96096e+07
1.96092e+07
1.9609e+07
1.96095e+07
1.96102e+07
1.96125e+07
1.96181e+07
1.96204e+07
1.96119e+07
1.96051e+07
1.96039e+07
1.96035e+07
1.96032e+07
1.96028e+07
1.96024e+07
1.9602e+07
1.96016e+07
1.96012e+07
1.96008e+07
1.96005e+07
1.96001e+07
1.95997e+07
1.95994e+07
1.9599e+07
1.95987e+07
1.95984e+07
1.95981e+07
1.95978e+07
1.95975e+07
1.95972e+07
1.95969e+07
1.95966e+07
1.95963e+07
1.95961e+07
1.95959e+07
1.95956e+07
1.95954e+07
1.95952e+07
1.9595e+07
1.95948e+07
1.95946e+07
1.95944e+07
1.95942e+07
1.9594e+07
1.95938e+07
1.95936e+07
1.95935e+07
1.95933e+07
1.95931e+07
1.95929e+07
1.95928e+07
1.95926e+07
1.95925e+07
1.95924e+07
1.95924e+07
1.95926e+07
1.95929e+07
1.95934e+07
1.95944e+07
1.95957e+07
1.95955e+07
1.95936e+07
1.95919e+07
1.95916e+07
1.95918e+07
1.95919e+07
1.95921e+07
1.95922e+07
1.95923e+07
1.95924e+07
1.95925e+07
1.95926e+07
1.95926e+07
1.95927e+07
1.95927e+07
1.95928e+07
1.95929e+07
1.95929e+07
1.9593e+07
1.9593e+07
1.95931e+07
1.95931e+07
1.95931e+07
1.95931e+07
1.9593e+07
1.9593e+07
1.95929e+07
1.95928e+07
1.95928e+07
1.95928e+07
1.95927e+07
1.95927e+07
1.95927e+07
1.95926e+07
1.95926e+07
1.95926e+07
1.95926e+07
1.95926e+07
1.95926e+07
1.95926e+07
1.95926e+07
1.95926e+07
1.95926e+07
1.95926e+07
1.95927e+07
1.95927e+07
1.95927e+07
1.95927e+07
1.95927e+07
1.95928e+07
1.95928e+07
1.95928e+07
1.95928e+07
1.95929e+07
1.95929e+07
1.95929e+07
1.9593e+07
1.9593e+07
1.9593e+07
1.95931e+07
1.95931e+07
1.95931e+07
1.95932e+07
1.95932e+07
1.95933e+07
1.95933e+07
1.95934e+07
1.95934e+07
1.95934e+07
1.95935e+07
1.95935e+07
1.95936e+07
1.95937e+07
1.95937e+07
1.95938e+07
1.95938e+07
1.95939e+07
1.9594e+07
1.9594e+07
1.95941e+07
1.95942e+07
1.95943e+07
1.95944e+07
1.95945e+07
1.95946e+07
1.95947e+07
1.95948e+07
1.95949e+07
1.9595e+07
1.95951e+07
1.95952e+07
1.95953e+07
1.95954e+07
1.95956e+07
1.95957e+07
1.95958e+07
1.95959e+07
1.9596e+07
1.95962e+07
1.95963e+07
1.95964e+07
1.95965e+07
1.95966e+07
1.96417e+07
1.96406e+07
1.96396e+07
1.96386e+07
1.96376e+07
1.96363e+07
1.96352e+07
1.96343e+07
1.96333e+07
1.9632e+07
1.9631e+07
1.96302e+07
1.96296e+07
1.96282e+07
1.96268e+07
1.9626e+07
1.96257e+07
1.96253e+07
1.96241e+07
1.96222e+07
1.96211e+07
1.96206e+07
1.96207e+07
1.96204e+07
1.96193e+07
1.96171e+07
1.96157e+07
1.96152e+07
1.96157e+07
1.96158e+07
1.96145e+07
1.96121e+07
1.96109e+07
1.96105e+07
1.96104e+07
1.96102e+07
1.96099e+07
1.96096e+07
1.96092e+07
1.96089e+07
1.9609e+07
1.96092e+07
1.96085e+07
1.9607e+07
1.96045e+07
1.96034e+07
1.96032e+07
1.96032e+07
1.96032e+07
1.9603e+07
1.96027e+07
1.96024e+07
1.9602e+07
1.96016e+07
1.96012e+07
1.96009e+07
1.96005e+07
1.96001e+07
1.95997e+07
1.95994e+07
1.95991e+07
1.95987e+07
1.95984e+07
1.95981e+07
1.95978e+07
1.95975e+07
1.95972e+07
1.95969e+07
1.95966e+07
1.95964e+07
1.95961e+07
1.95959e+07
1.95956e+07
1.95954e+07
1.95952e+07
1.9595e+07
1.95948e+07
1.95946e+07
1.95944e+07
1.95942e+07
1.95941e+07
1.95939e+07
1.95937e+07
1.95935e+07
1.95934e+07
1.95932e+07
1.9593e+07
1.95929e+07
1.95928e+07
1.95927e+07
1.95926e+07
1.95926e+07
1.95927e+07
1.95929e+07
1.95931e+07
1.9593e+07
1.95924e+07
1.95918e+07
1.95915e+07
1.95915e+07
1.95916e+07
1.95918e+07
1.9592e+07
1.95922e+07
1.95923e+07
1.95924e+07
1.95925e+07
1.95926e+07
1.95926e+07
1.95927e+07
1.95927e+07
1.95928e+07
1.95928e+07
1.95929e+07
1.9593e+07
1.9593e+07
1.9593e+07
1.95931e+07
1.95931e+07
1.95931e+07
1.9593e+07
1.9593e+07
1.95929e+07
1.95929e+07
1.95928e+07
1.95928e+07
1.95928e+07
1.95927e+07
1.95927e+07
1.95927e+07
1.95926e+07
1.95926e+07
1.95926e+07
1.95926e+07
1.95926e+07
1.95926e+07
1.95926e+07
1.95926e+07
1.95926e+07
1.95926e+07
1.95926e+07
1.95927e+07
1.95927e+07
1.95927e+07
1.95927e+07
1.95927e+07
1.95928e+07
1.95928e+07
1.95928e+07
1.95928e+07
1.95929e+07
1.95929e+07
1.95929e+07
1.9593e+07
1.9593e+07
1.9593e+07
1.95931e+07
1.95931e+07
1.95931e+07
1.95932e+07
1.95932e+07
1.95933e+07
1.95933e+07
1.95934e+07
1.95934e+07
1.95934e+07
1.95935e+07
1.95935e+07
1.95936e+07
1.95937e+07
1.95937e+07
1.95938e+07
1.95938e+07
1.95939e+07
1.9594e+07
1.9594e+07
1.95941e+07
1.95942e+07
1.95943e+07
1.95944e+07
1.95945e+07
1.95946e+07
1.95947e+07
1.95948e+07
1.95949e+07
1.9595e+07
1.95951e+07
1.95952e+07
1.95953e+07
1.95954e+07
1.95956e+07
1.95957e+07
1.95958e+07
1.95959e+07
1.9596e+07
1.95962e+07
1.95963e+07
1.95964e+07
1.95965e+07
1.95966e+07
1.96417e+07
1.96404e+07
1.96392e+07
1.96381e+07
1.9637e+07
1.96358e+07
1.96347e+07
1.96337e+07
1.96327e+07
1.96315e+07
1.96306e+07
1.96298e+07
1.96289e+07
1.96278e+07
1.96268e+07
1.96262e+07
1.96256e+07
1.96247e+07
1.96236e+07
1.96223e+07
1.96213e+07
1.96211e+07
1.96207e+07
1.96199e+07
1.96187e+07
1.96173e+07
1.96158e+07
1.96157e+07
1.96156e+07
1.9615e+07
1.96139e+07
1.96124e+07
1.96109e+07
1.96104e+07
1.96104e+07
1.96101e+07
1.96099e+07
1.96097e+07
1.96096e+07
1.96096e+07
1.96095e+07
1.96091e+07
1.96081e+07
1.96065e+07
1.96048e+07
1.96033e+07
1.96031e+07
1.96031e+07
1.96029e+07
1.96027e+07
1.96024e+07
1.96021e+07
1.96018e+07
1.96014e+07
1.96011e+07
1.96007e+07
1.96004e+07
1.96e+07
1.95997e+07
1.95994e+07
1.9599e+07
1.95987e+07
1.95984e+07
1.95981e+07
1.95978e+07
1.95975e+07
1.95972e+07
1.95969e+07
1.95966e+07
1.95964e+07
1.95961e+07
1.95959e+07
1.95956e+07
1.95954e+07
1.95952e+07
1.9595e+07
1.95948e+07
1.95946e+07
1.95944e+07
1.95943e+07
1.95941e+07
1.95939e+07
1.95938e+07
1.95936e+07
1.95934e+07
1.95933e+07
1.95932e+07
1.95931e+07
1.9593e+07
1.95929e+07
1.95929e+07
1.9593e+07
1.95931e+07
1.95932e+07
1.95931e+07
1.95929e+07
1.95925e+07
1.9592e+07
1.95917e+07
1.95916e+07
1.95918e+07
1.95919e+07
1.95921e+07
1.95923e+07
1.95924e+07
1.95925e+07
1.95926e+07
1.95926e+07
1.95926e+07
1.95927e+07
1.95927e+07
1.95928e+07
1.95929e+07
1.95929e+07
1.9593e+07
1.9593e+07
1.95931e+07
1.95931e+07
1.95931e+07
1.95931e+07
1.9593e+07
1.9593e+07
1.95929e+07
1.95929e+07
1.95928e+07
1.95928e+07
1.95928e+07
1.95927e+07
1.95927e+07
1.95927e+07
1.95926e+07
1.95926e+07
1.95926e+07
1.95926e+07
1.95926e+07
1.95926e+07
1.95926e+07
1.95926e+07
1.95926e+07
1.95926e+07
1.95926e+07
1.95927e+07
1.95927e+07
1.95927e+07
1.95927e+07
1.95927e+07
1.95928e+07
1.95928e+07
1.95928e+07
1.95928e+07
1.95929e+07
1.95929e+07
1.95929e+07
1.9593e+07
1.9593e+07
1.9593e+07
1.95931e+07
1.95931e+07
1.95931e+07
1.95932e+07
1.95932e+07
1.95933e+07
1.95933e+07
1.95934e+07
1.95934e+07
1.95934e+07
1.95935e+07
1.95935e+07
1.95936e+07
1.95937e+07
1.95937e+07
1.95938e+07
1.95938e+07
1.95939e+07
1.9594e+07
1.9594e+07
1.95941e+07
1.95942e+07
1.95943e+07
1.95944e+07
1.95945e+07
1.95946e+07
1.95947e+07
1.95948e+07
1.95949e+07
1.9595e+07
1.95951e+07
1.95952e+07
1.95953e+07
1.95954e+07
1.95956e+07
1.95957e+07
1.95958e+07
1.95959e+07
1.9596e+07
1.95962e+07
1.95963e+07
1.95964e+07
1.95965e+07
1.95966e+07
1.96416e+07
1.96404e+07
1.96392e+07
1.96381e+07
1.9637e+07
1.96358e+07
1.96347e+07
1.96337e+07
1.96327e+07
1.96315e+07
1.96306e+07
1.96298e+07
1.96289e+07
1.96278e+07
1.96268e+07
1.96261e+07
1.96255e+07
1.96247e+07
1.96236e+07
1.96223e+07
1.96213e+07
1.96211e+07
1.96207e+07
1.96199e+07
1.96187e+07
1.96173e+07
1.96158e+07
1.96156e+07
1.96156e+07
1.9615e+07
1.96138e+07
1.96124e+07
1.96109e+07
1.96104e+07
1.96104e+07
1.96101e+07
1.96099e+07
1.96097e+07
1.96096e+07
1.96095e+07
1.96094e+07
1.9609e+07
1.96081e+07
1.96065e+07
1.96048e+07
1.96033e+07
1.96031e+07
1.96031e+07
1.96029e+07
1.96027e+07
1.96024e+07
1.96021e+07
1.96018e+07
1.96014e+07
1.96011e+07
1.96007e+07
1.96004e+07
1.96e+07
1.95997e+07
1.95994e+07
1.9599e+07
1.95987e+07
1.95984e+07
1.95981e+07
1.95978e+07
1.95975e+07
1.95972e+07
1.95969e+07
1.95966e+07
1.95964e+07
1.95961e+07
1.95959e+07
1.95956e+07
1.95954e+07
1.95952e+07
1.9595e+07
1.95948e+07
1.95946e+07
1.95944e+07
1.95943e+07
1.95941e+07
1.95939e+07
1.95938e+07
1.95936e+07
1.95934e+07
1.95933e+07
1.95932e+07
1.95931e+07
1.9593e+07
1.95929e+07
1.95929e+07
1.9593e+07
1.95931e+07
1.95931e+07
1.95931e+07
1.95929e+07
1.95925e+07
1.9592e+07
1.95917e+07
1.95916e+07
1.95918e+07
1.95919e+07
1.95921e+07
1.95923e+07
1.95924e+07
1.95925e+07
1.95926e+07
1.95926e+07
1.95926e+07
1.95927e+07
1.95927e+07
1.95928e+07
1.95929e+07
1.95929e+07
1.9593e+07
1.9593e+07
1.95931e+07
1.95931e+07
1.95931e+07
1.95931e+07
1.9593e+07
1.9593e+07
1.95929e+07
1.95929e+07
1.95928e+07
1.95928e+07
1.95928e+07
1.95927e+07
1.95927e+07
1.95927e+07
1.95926e+07
1.95926e+07
1.95926e+07
1.95926e+07
1.95926e+07
1.95926e+07
1.95926e+07
1.95926e+07
1.95926e+07
1.95926e+07
1.95926e+07
1.95927e+07
1.95927e+07
1.95927e+07
1.95927e+07
1.95927e+07
1.95928e+07
1.95928e+07
1.95928e+07
1.95928e+07
1.95929e+07
1.95929e+07
1.95929e+07
1.9593e+07
1.9593e+07
1.9593e+07
1.95931e+07
1.95931e+07
1.95931e+07
1.95932e+07
1.95932e+07
1.95933e+07
1.95933e+07
1.95934e+07
1.95934e+07
1.95934e+07
1.95935e+07
1.95935e+07
1.95936e+07
1.95937e+07
1.95937e+07
1.95938e+07
1.95938e+07
1.95939e+07
1.9594e+07
1.9594e+07
1.95941e+07
1.95942e+07
1.95943e+07
1.95944e+07
1.95945e+07
1.95946e+07
1.95947e+07
1.95948e+07
1.95949e+07
1.9595e+07
1.95951e+07
1.95952e+07
1.95953e+07
1.95954e+07
1.95956e+07
1.95957e+07
1.95958e+07
1.95959e+07
1.9596e+07
1.95962e+07
1.95963e+07
1.95964e+07
1.95965e+07
1.95966e+07
1.95967e+07
1.95967e+07
1.95967e+07
1.95967e+07
1.95968e+07
1.95968e+07
1.95968e+07
1.95968e+07
1.95968e+07
1.95968e+07
1.95968e+07
1.95969e+07
1.95969e+07
1.95969e+07
1.95969e+07
1.95969e+07
1.95969e+07
1.95969e+07
1.95969e+07
1.95969e+07
1.95967e+07
1.95967e+07
1.95968e+07
1.95968e+07
1.95968e+07
1.95968e+07
1.95968e+07
1.95968e+07
1.95969e+07
1.95969e+07
1.95969e+07
1.95969e+07
1.95969e+07
1.95969e+07
1.95969e+07
1.9597e+07
1.9597e+07
1.9597e+07
1.9597e+07
1.9597e+07
1.95967e+07
1.95967e+07
1.95968e+07
1.95968e+07
1.95968e+07
1.95968e+07
1.95969e+07
1.95969e+07
1.95969e+07
1.95969e+07
1.95969e+07
1.95969e+07
1.9597e+07
1.9597e+07
1.9597e+07
1.9597e+07
1.9597e+07
1.9597e+07
1.9597e+07
1.9597e+07
1.95967e+07
1.95968e+07
1.95968e+07
1.95968e+07
1.95969e+07
1.95969e+07
1.95969e+07
1.95969e+07
1.9597e+07
1.9597e+07
1.9597e+07
1.95971e+07
1.95971e+07
1.95972e+07
1.95972e+07
1.95973e+07
1.95974e+07
1.95974e+07
1.95973e+07
1.95972e+07
1.95967e+07
1.95968e+07
1.95968e+07
1.95968e+07
1.95969e+07
1.95969e+07
1.95969e+07
1.9597e+07
1.9597e+07
1.9597e+07
1.9597e+07
1.95971e+07
1.95971e+07
1.95972e+07
1.95972e+07
1.95973e+07
1.95975e+07
1.95975e+07
1.95974e+07
1.95972e+07
1.9597e+07
1.95972e+07
1.95972e+07
1.95972e+07
1.95973e+07
1.95974e+07
1.95975e+07
1.95975e+07
1.95975e+07
1.95976e+07
1.95978e+07
1.95979e+07
1.95978e+07
1.9598e+07
1.95982e+07
1.95984e+07
1.95984e+07
1.95983e+07
1.95984e+07
1.95988e+07
1.9599e+07
1.9599e+07
1.95988e+07
1.95988e+07
1.95991e+07
1.95994e+07
1.95996e+07
1.95996e+07
1.95994e+07
1.95993e+07
1.95994e+07
1.95998e+07
1.96001e+07
1.96003e+07
1.96003e+07
1.96002e+07
1.96001e+07
1.95999e+07
1.95996e+07
1.95992e+07
1.95984e+07
1.95976e+07
1.95978e+07
1.95984e+07
1.95988e+07
1.95991e+07
1.95994e+07
1.95996e+07
1.95998e+07
1.96e+07
1.96002e+07
1.96004e+07
1.96006e+07
1.96007e+07
1.96009e+07
1.96011e+07
1.96012e+07
1.96014e+07
1.96016e+07
1.96018e+07
1.96019e+07
1.96021e+07
1.96023e+07
1.96025e+07
1.96027e+07
1.96029e+07
1.96031e+07
1.96033e+07
1.96036e+07
1.96039e+07
1.96043e+07
1.96049e+07
1.96054e+07
1.9606e+07
1.96063e+07
1.96064e+07
1.96065e+07
1.96064e+07
1.96063e+07
1.9606e+07
1.96059e+07
1.96053e+07
1.96048e+07
1.9605e+07
1.96055e+07
1.9606e+07
1.96064e+07
1.96067e+07
1.9607e+07
1.96073e+07
1.96076e+07
1.9608e+07
1.96083e+07
1.96087e+07
1.96089e+07
1.9609e+07
1.96092e+07
1.96095e+07
1.96096e+07
1.96096e+07
1.9597e+07
1.95972e+07
1.95972e+07
1.95972e+07
1.95973e+07
1.95974e+07
1.95975e+07
1.95975e+07
1.95975e+07
1.95976e+07
1.95978e+07
1.95979e+07
1.95978e+07
1.9598e+07
1.95982e+07
1.95984e+07
1.95984e+07
1.95983e+07
1.95984e+07
1.95988e+07
1.9599e+07
1.9599e+07
1.95988e+07
1.95988e+07
1.95991e+07
1.95994e+07
1.95996e+07
1.95996e+07
1.95994e+07
1.95993e+07
1.95994e+07
1.95998e+07
1.96001e+07
1.96003e+07
1.96003e+07
1.96002e+07
1.96001e+07
1.95999e+07
1.95996e+07
1.95992e+07
1.95984e+07
1.95976e+07
1.95978e+07
1.95984e+07
1.95988e+07
1.95991e+07
1.95994e+07
1.95996e+07
1.95998e+07
1.96e+07
1.96002e+07
1.96004e+07
1.96006e+07
1.96007e+07
1.96009e+07
1.96011e+07
1.96012e+07
1.96014e+07
1.96016e+07
1.96018e+07
1.96019e+07
1.96021e+07
1.96023e+07
1.96025e+07
1.96027e+07
1.96029e+07
1.96031e+07
1.96033e+07
1.96036e+07
1.96039e+07
1.96044e+07
1.96049e+07
1.96054e+07
1.9606e+07
1.96063e+07
1.96064e+07
1.96065e+07
1.96064e+07
1.96063e+07
1.9606e+07
1.96059e+07
1.96053e+07
1.96048e+07
1.9605e+07
1.96055e+07
1.9606e+07
1.96064e+07
1.96067e+07
1.9607e+07
1.96073e+07
1.96076e+07
1.9608e+07
1.96083e+07
1.96087e+07
1.96089e+07
1.9609e+07
1.96092e+07
1.96095e+07
1.96096e+07
1.96096e+07
1.95971e+07
1.95973e+07
1.95973e+07
1.95974e+07
1.95974e+07
1.95975e+07
1.95977e+07
1.95978e+07
1.95977e+07
1.95978e+07
1.9598e+07
1.95982e+07
1.9598e+07
1.9598e+07
1.95982e+07
1.95985e+07
1.95986e+07
1.95984e+07
1.95984e+07
1.95986e+07
1.9599e+07
1.95992e+07
1.95991e+07
1.95988e+07
1.95989e+07
1.95993e+07
1.95996e+07
1.95998e+07
1.95998e+07
1.95994e+07
1.95993e+07
1.95996e+07
1.96001e+07
1.96004e+07
1.96006e+07
1.96007e+07
1.96006e+07
1.96005e+07
1.96003e+07
1.95994e+07
1.95981e+07
1.95974e+07
1.95977e+07
1.95984e+07
1.95991e+07
1.95997e+07
1.96e+07
1.96003e+07
1.96005e+07
1.96006e+07
1.96008e+07