/*--------------------------------*- C++ -*----------------------------------*\
| =========                 |                                                 |
| \\      /  F ield         | OpenFOAM: The Open Source CFD Toolbox           |
|  \\    /   O peration     | Version:  3.0.x                                 |
|   \\  /    A nd           | Web:      www.OpenFOAM.org                      |
|    \\/     M anipulation  |                                                 |
\*---------------------------------------------------------------------------*/
FoamFile
{
    version     2.0;
    format      ascii;
    class       volScalarField;
    location    "0.59";
    object      rho;
}
// * * * * * * * * * * * * * * * * * * * * * * * * * * * * * * * * * * * * * //

dimensions      [1 -3 0 0 0 0 0];

internalField   nonuniform List<scalar> 
6900
(
54.9024
54.906
54.9121
54.918
54.9236
54.9289
54.9339
54.9386
54.9427
54.9464
54.9498
54.9527
54.9551
54.9569
54.9584
54.9596
54.9605
54.9612
54.9617
54.9619
54.962
54.962
54.962
54.9618
54.9616
54.9613
54.9609
54.9605
54.96
54.9594
54.9587
54.9579
54.9571
54.9562
54.9552
54.9541
54.953
54.9518
54.9505
54.9491
54.9477
54.9462
54.9446
54.9429
54.9412
54.9394
54.9375
54.9356
54.9335
54.9314
54.9292
54.927
54.9248
54.9226
54.9204
54.918
54.9156
54.9131
54.9104
54.9077
54.9049
54.9021
54.8992
54.8963
54.8933
54.8904
54.8874
54.8844
54.8814
54.8783
54.8751
54.8718
54.8684
54.8649
54.8614
54.8578
54.8542
54.8506
54.847
54.8434
54.8397
54.8359
54.8321
54.8283
54.8243
54.8203
54.8163
54.8122
54.808
54.8039
54.7996
54.7954
54.7911
54.7867
54.7823
54.7779
54.7735
54.769
54.7645
54.76
54.7554
54.7508
54.7462
54.7415
54.7368
54.7321
54.7273
54.7226
54.7178
54.7129
54.7081
54.7032
54.6983
54.6933
54.6884
54.6834
54.6784
54.6734
54.6683
54.6633
54.6582
54.6532
54.6481
54.643
54.6379
54.6328
54.6277
54.6225
54.6174
54.6123
54.6071
54.602
54.5969
54.5917
54.5866
54.5815
54.5763
54.5712
54.5661
54.561
54.5559
54.5507
54.5457
54.5406
54.5355
54.5304
54.5253
54.5203
54.5152
54.5102
54.5051
54.5001
54.495
54.49
54.485
54.4799
54.4749
54.4699
54.4649
54.4599
54.4549
54.45
54.4451
54.4402
54.4353
54.4304
54.4256
54.4208
54.416
54.4113
54.4066
54.402
54.3974
54.3928
54.3883
54.3838
54.3794
54.375
54.3707
54.3664
54.3622
54.358
54.354
54.3498
54.346
54.3418
54.3381
54.3341
54.3305
54.3265
54.323
54.3191
54.3156
54.3118
54.3084
54.3049
54.3012
54.298
54.2944
54.2909
54.9027
54.9063
54.9124
54.9183
54.9239
54.9292
54.9342
54.9389
54.943
54.9467
54.9501
54.953
54.9554
54.9572
54.9587
54.9599
54.9608
54.9615
54.962
54.9622
54.9623
54.9623
54.9622
54.9621
54.9619
54.9616
54.9612
54.9608
54.9602
54.9596
54.9589
54.9582
54.9573
54.9564
54.9554
54.9544
54.9532
54.952
54.9507
54.9494
54.9479
54.9464
54.9448
54.9432
54.9414
54.9397
54.9378
54.9358
54.9338
54.9317
54.9295
54.9273
54.9251
54.9228
54.9206
54.9182
54.9158
54.9133
54.9106
54.9079
54.9051
54.9023
54.8994
54.8965
54.8935
54.8906
54.8876
54.8846
54.8816
54.8785
54.8753
54.872
54.8686
54.8651
54.8616
54.858
54.8544
54.8508
54.8472
54.8435
54.8398
54.8361
54.8323
54.8284
54.8245
54.8205
54.8165
54.8124
54.8082
54.804
54.7998
54.7955
54.7912
54.7869
54.7825
54.7781
54.7737
54.7692
54.7647
54.7601
54.7556
54.751
54.7463
54.7417
54.737
54.7323
54.7275
54.7227
54.7179
54.7131
54.7082
54.7033
54.6984
54.6935
54.6885
54.6836
54.6786
54.6735
54.6685
54.6635
54.6584
54.6533
54.6483
54.6432
54.6381
54.6329
54.6278
54.6227
54.6176
54.6124
54.6073
54.6022
54.597
54.5919
54.5868
54.5816
54.5765
54.5714
54.5662
54.5611
54.556
54.5509
54.5458
54.5407
54.5356
54.5306
54.5255
54.5204
54.5154
54.5103
54.5053
54.5002
54.4952
54.4902
54.4851
54.4801
54.4751
54.4701
54.4651
54.4601
54.4551
54.4502
54.4452
54.4403
54.4354
54.4306
54.4257
54.421
54.4162
54.4115
54.4068
54.4021
54.3975
54.393
54.3885
54.384
54.3796
54.3752
54.3709
54.3666
54.3624
54.3582
54.3542
54.35
54.3461
54.342
54.3383
54.3342
54.3306
54.3266
54.3231
54.3192
54.3158
54.312
54.3086
54.3048
54.3016
54.2979
54.2947
54.2913
54.9026
54.9063
54.9123
54.9183
54.9239
54.9292
54.9342
54.9389
54.943
54.9467
54.9501
54.953
54.9554
54.9572
54.9587
54.9598
54.9608
54.9615
54.9619
54.9622
54.9623
54.9623
54.9622
54.9621
54.9619
54.9616
54.9612
54.9607
54.9602
54.9596
54.9589
54.9582
54.9573
54.9564
54.9554
54.9544
54.9532
54.952
54.9507
54.9494
54.9479
54.9464
54.9448
54.9432
54.9414
54.9396
54.9378
54.9358
54.9338
54.9316
54.9295
54.9273
54.9251
54.9228
54.9206
54.9182
54.9158
54.9133
54.9106
54.9079
54.9051
54.9023
54.8994
54.8965
54.8935
54.8906
54.8876
54.8846
54.8816
54.8785
54.8753
54.872
54.8686
54.8651
54.8616
54.858
54.8544
54.8508
54.8472
54.8435
54.8398
54.8361
54.8323
54.8284
54.8245
54.8205
54.8165
54.8124
54.8082
54.804
54.7998
54.7955
54.7912
54.7869
54.7825
54.7781
54.7737
54.7692
54.7647
54.7601
54.7556
54.751
54.7463
54.7417
54.737
54.7323
54.7275
54.7227
54.7179
54.7131
54.7082
54.7033
54.6984
54.6935
54.6885
54.6836
54.6786
54.6735
54.6685
54.6635
54.6584
54.6533
54.6483
54.6432
54.6381
54.6329
54.6278
54.6227
54.6176
54.6124
54.6073
54.6022
54.597
54.5919
54.5868
54.5816
54.5765
54.5714
54.5662
54.5611
54.556
54.5509
54.5458
54.5407
54.5356
54.5306
54.5255
54.5204
54.5154
54.5103
54.5053
54.5002
54.4952
54.4902
54.4851
54.4801
54.4751
54.4701
54.4651
54.4601
54.4551
54.4502
54.4452
54.4403
54.4354
54.4306
54.4257
54.421
54.4162
54.4115
54.4068
54.4021
54.3975
54.393
54.3885
54.384
54.3796
54.3752
54.3709
54.3666
54.3624
54.3582
54.3541
54.35
54.3461
54.3421
54.3382
54.3343
54.3305
54.3268
54.3231
54.3193
54.3158
54.312
54.3085
54.305
54.3014
54.2979
54.2946
54.2912
54.9027
54.9063
54.9124
54.9183
54.9239
54.9292
54.9342
54.9389
54.943
54.9467
54.9501
54.953
54.9554
54.9572
54.9587
54.9599
54.9608
54.9615
54.962
54.9622
54.9623
54.9623
54.9622
54.9621
54.9619
54.9616
54.9612
54.9608
54.9602
54.9596
54.9589
54.9582
54.9573
54.9564
54.9554
54.9544
54.9532
54.952
54.9507
54.9494
54.9479
54.9464
54.9448
54.9432
54.9414
54.9397
54.9378
54.9358
54.9338
54.9317
54.9295
54.9273
54.9251
54.9228
54.9206
54.9182
54.9158
54.9133
54.9106
54.9079
54.9051
54.9023
54.8994
54.8965
54.8935
54.8906
54.8876
54.8846
54.8816
54.8785
54.8753
54.872
54.8686
54.8651
54.8616
54.858
54.8544
54.8508
54.8472
54.8435
54.8398
54.8361
54.8323
54.8284
54.8245
54.8205
54.8165
54.8124
54.8082
54.804
54.7998
54.7955
54.7912
54.7869
54.7825
54.7781
54.7737
54.7692
54.7647
54.7601
54.7556
54.751
54.7463
54.7417
54.737
54.7323
54.7275
54.7227
54.7179
54.7131
54.7082
54.7033
54.6984
54.6935
54.6885
54.6836
54.6786
54.6735
54.6685
54.6635
54.6584
54.6533
54.6483
54.6432
54.6381
54.6329
54.6278
54.6227
54.6176
54.6124
54.6073
54.6022
54.597
54.5919
54.5868
54.5816
54.5765
54.5714
54.5662
54.5611
54.556
54.5509
54.5458
54.5407
54.5356
54.5306
54.5255
54.5204
54.5154
54.5103
54.5053
54.5002
54.4952
54.4902
54.4851
54.4801
54.4751
54.4701
54.4651
54.4601
54.4551
54.4502
54.4452
54.4403
54.4354
54.4306
54.4257
54.421
54.4162
54.4115
54.4068
54.4021
54.3975
54.393
54.3885
54.384
54.3796
54.3752
54.3708
54.3666
54.3623
54.3583
54.354
54.3501
54.346
54.3422
54.3381
54.3345
54.3304
54.3269
54.3229
54.3195
54.3156
54.3122
54.3084
54.3051
54.3013
54.298
54.2948
54.2908
54.9024
54.906
54.9121
54.918
54.9236
54.9289
54.9339
54.9386
54.9427
54.9464
54.9498
54.9527
54.9551
54.9569
54.9584
54.9596
54.9605
54.9612
54.9617
54.9619
54.962
54.962
54.962
54.9618
54.9616
54.9613
54.9609
54.9605
54.96
54.9594
54.9587
54.9579
54.9571
54.9562
54.9552
54.9541
54.953
54.9518
54.9505
54.9491
54.9477
54.9462
54.9446
54.9429
54.9412
54.9394
54.9375
54.9356
54.9335
54.9314
54.9292
54.927
54.9248
54.9226
54.9204
54.918
54.9156
54.9131
54.9104
54.9077
54.9049
54.9021
54.8992
54.8963
54.8933
54.8904
54.8874
54.8844
54.8814
54.8783
54.8751
54.8718
54.8684
54.8649
54.8614
54.8578
54.8542
54.8506
54.847
54.8434
54.8397
54.8359
54.8321
54.8283
54.8243
54.8203
54.8163
54.8122
54.808
54.8039
54.7996
54.7954
54.7911
54.7867
54.7823
54.7779
54.7735
54.769
54.7645
54.76
54.7554
54.7508
54.7462
54.7415
54.7368
54.7321
54.7273
54.7226
54.7178
54.7129
54.7081
54.7032
54.6983
54.6933
54.6884
54.6834
54.6784
54.6734
54.6683
54.6633
54.6582
54.6532
54.6481
54.643
54.6379
54.6328
54.6277
54.6225
54.6174
54.6123
54.6071
54.602
54.5969
54.5917
54.5866
54.5815
54.5763
54.5712
54.5661
54.561
54.5559
54.5507
54.5457
54.5406
54.5355
54.5304
54.5253
54.5203
54.5152
54.5102
54.5051
54.5001
54.495
54.49
54.485
54.4799
54.4749
54.4699
54.4649
54.4599
54.4549
54.45
54.4451
54.4402
54.4353
54.4304
54.4256
54.4208
54.416
54.4113
54.4066
54.402
54.3974
54.3928
54.3883
54.3838
54.3794
54.375
54.3707
54.3665
54.3622
54.3581
54.3539
54.35
54.3458
54.342
54.3379
54.3343
54.3302
54.3267
54.3227
54.3193
54.3154
54.312
54.3082
54.3049
54.3012
54.2978
54.2948
54.2907
54.2893
54.2887
54.2881
54.2875
54.2868
54.2861
54.2853
54.2845
54.2838
54.2834
54.2833
54.2828
54.282
54.2807
54.2793
54.2773
54.276
54.2754
54.275
54.275
54.2895
54.2888
54.2881
54.2874
54.2867
54.2859
54.2851
54.2843
54.2837
54.2834
54.2833
54.2828
54.2817
54.2802
54.2791
54.2779
54.2766
54.2758
54.2753
54.2747
54.2892
54.2886
54.2879
54.2872
54.2865
54.2858
54.2851
54.2842
54.2834
54.2826
54.2817
54.2809
54.2801
54.2792
54.2781
54.277
54.2759
54.2749
54.2736
54.2724
54.2881
54.2875
54.2871
54.2866
54.286
54.2854
54.2848
54.2842
54.2835
54.283
54.2823
54.2817
54.281
54.2805
54.2798
54.2791
54.2785
54.2779
54.2772
54.2764
54.2877
54.2869
54.2863
54.2856
54.2849
54.2842
54.2836
54.2829
54.2823
54.2817
54.2811
54.2805
54.2798
54.2793
54.2787
54.2781
54.2775
54.277
54.2764
54.2759
54.2747
54.2712
54.266
54.2631
54.262
54.261
54.2548
54.2514
54.2524
54.2538
54.246
54.2426
54.2422
54.2512
54.2426
54.2342
54.2327
54.2327
54.2415
54.2434
54.2244
54.2197
54.2224
54.2226
54.2322
54.2397
54.2192
54.2074
54.2108
54.2145
54.2325
54.2411
54.2207
54.203
54.2007
54.2004
54.1991
54.1977
54.1963
54.1954
54.1957
54.1971
54.2031
54.2186
54.2253
54.2012
54.1851
54.1842
54.184
54.183
54.182
54.1809
54.1799
54.179
54.1781
54.1772
54.1764
54.1756
54.1748
54.174
54.1732
54.1724
54.1716
54.1709
54.1702
54.1694
54.1687
54.1681
54.1674
54.1668
54.1662
54.1657
54.1652
54.1647
54.1643
54.1638
54.1634
54.163
54.1626
54.1622
54.1617
54.1613
54.1609
54.1605
54.1601
54.1597
54.1592
54.1588
54.1584
54.158
54.1577
54.1576
54.158
54.1585
54.1594
54.1624
54.1663
54.1649
54.1596
54.1554
54.1553
54.1561
54.1566
54.1571
54.1574
54.1574
54.1575
54.1577
54.158
54.1579
54.1573
54.1572
54.1574
54.1577
54.1572
54.1532
54.15
54.1499
54.1532
54.1596
54.1626
54.163
54.1626
54.1619
54.1614
54.1611
54.1609
54.1607
54.1605
54.1604
54.1603
54.1603
54.1602
54.1602
54.1602
54.1602
54.1602
54.1602
54.1602
54.1603
54.1603
54.1603
54.1604
54.1604
54.1605
54.1605
54.1606
54.1607
54.1607
54.1608
54.1608
54.1609
54.161
54.1611
54.1611
54.1612
54.1613
54.1614
54.1615
54.1616
54.1617
54.1618
54.1619
54.162
54.1621
54.1622
54.1623
54.1624
54.1625
54.1626
54.1628
54.1629
54.163
54.1632
54.1634
54.1635
54.1637
54.1639
54.1641
54.1643
54.1645
54.1648
54.1649
54.1652
54.1654
54.1657
54.1659
54.1662
54.1664
54.1668
54.167
54.1673
54.1675
54.1679
54.1681
54.1684
54.1687
54.1689
54.1693
54.1696
54.2727
54.2691
54.265
54.2611
54.2556
54.2537
54.2504
54.2486
54.2449
54.2433
54.2387
54.2377
54.2338
54.2379
54.2309
54.2286
54.2284
54.2228
54.2277
54.2297
54.2156
54.2172
54.2176
54.211
54.2186
54.2264
54.2091
54.2049
54.2077
54.2049
54.2193
54.228
54.2104
54.1992
54.1987
54.1987
54.1976
54.1963
54.1951
54.1945
54.1956
54.1924
54.1919
54.2066
54.2139
54.1924
54.1822
54.1824
54.1825
54.1817
54.1807
54.1798
54.1789
54.178
54.1771
54.1763
54.1754
54.1746
54.1737
54.1729
54.1721
54.1713
54.1705
54.1698
54.169
54.1683
54.1677
54.167
54.1664
54.1658
54.1653
54.1648
54.1643
54.1639
54.1634
54.1629
54.1625
54.1621
54.1617
54.1613
54.1608
54.1604
54.1599
54.1595
54.159
54.1584
54.158
54.1576
54.1573
54.1569
54.1566
54.1564
54.1559
54.1561
54.1573
54.1605
54.1641
54.1629
54.1576
54.1539
54.154
54.1546
54.1549
54.1552
54.1556
54.156
54.1559
54.1552
54.1551
54.1554
54.1557
54.1557
54.1538
54.1498
54.1479
54.1478
54.1492
54.1543
54.1594
54.1622
54.1629
54.1627
54.1621
54.1616
54.1613
54.1611
54.1609
54.1608
54.1606
54.1605
54.1605
54.1604
54.1604
54.1603
54.1603
54.1603
54.1603
54.1603
54.1604
54.1604
54.1604
54.1605
54.1605
54.1606
54.1606
54.1607
54.1607
54.1608
54.1609
54.1609
54.161
54.1611
54.1611
54.1612
54.1613
54.1614
54.1614
54.1615
54.1616
54.1617
54.1618
54.1619
54.162
54.1621
54.1622
54.1623
54.1624
54.1625
54.1627
54.1628
54.1629
54.1631
54.1632
54.1633
54.1635
54.1637
54.1638
54.164
54.1642
54.1644
54.1646
54.1649
54.1651
54.1654
54.1656
54.1659
54.1661
54.1664
54.1666
54.1669
54.1671
54.1675
54.1677
54.168
54.1682
54.1686
54.1688
54.1691
54.1695
54.1697
54.2678
54.2615
54.2564
54.2514
54.2463
54.2413
54.237
54.233
54.2289
54.2252
54.2225
54.2198
54.217
54.2137
54.2119
54.21
54.2082
54.206
54.203
54.2004
54.1992
54.1976
54.1964
54.1942
54.1915
54.1884
54.1874
54.1858
54.1857
54.1845
54.1816
54.1783
54.1784
54.1791
54.1793
54.1791
54.1785
54.1776
54.1763
54.1745
54.1729
54.171
54.168
54.1651
54.1619
54.1628
54.1637
54.1641
54.1644
54.1642
54.1637
54.163
54.1622
54.1614
54.1604
54.1595
54.1586
54.1577
54.1569
54.156
54.1553
54.1545
54.1538
54.1531
54.1523
54.1516
54.1508
54.1501
54.1494
54.1487
54.148
54.1472
54.1465
54.1457
54.145
54.1443
54.1436
54.1428
54.1421
54.1416
54.1417
54.1427
54.1441
54.146
54.1488
54.1511
54.1529
54.1545
54.1557
54.1564
54.1566
54.1564
54.1564
54.1567
54.1572
54.1569
54.1555
54.1545
54.1541
54.1542
54.1544
54.1548
54.1553
54.1557
54.1562
54.1566
54.157
54.1574
54.1578
54.1581
54.1584
54.1588
54.1592
54.1596
54.1601
54.1605
54.1608
54.1611
54.1613
54.1613
54.1613
54.1612
54.1611
54.161
54.1609
54.1608
54.1607
54.1606
54.1605
54.1605
54.1604
54.1604
54.1603
54.1603
54.1603
54.1603
54.1603
54.1603
54.1604
54.1604
54.1604
54.1605
54.1605
54.1606
54.1606
54.1607
54.1607
54.1608
54.1609
54.1609
54.161
54.1611
54.1611
54.1612
54.1613
54.1614
54.1614
54.1615
54.1616
54.1617
54.1618
54.1619
54.162
54.1621
54.1622
54.1623
54.1624
54.1625
54.1627
54.1628
54.1629
54.163
54.1632
54.1633
54.1635
54.1637
54.1638
54.164
54.1642
54.1644
54.1647
54.1649
54.1651
54.1653
54.1656
54.1658
54.1661
54.1663
54.1666
54.1669
54.1672
54.1674
54.1677
54.168
54.1683
54.1685
54.1689
54.1691
54.1694
54.1696
54.2735
54.2696
54.2653
54.261
54.2577
54.255
54.2524
54.249
54.2454
54.2428
54.2411
54.2386
54.2353
54.2328
54.2318
54.231
54.2286
54.2247
54.2216
54.22
54.2197
54.2197
54.2174
54.213
54.2096
54.2074
54.2065
54.2075
54.2067
54.2033
54.2002
54.1978
54.1961
54.1962
54.1963
54.1958
54.1954
54.1951
54.1951
54.1953
54.195
54.1927
54.1891
54.1848
54.1816
54.18
54.1808
54.1812
54.1807
54.1801
54.1794
54.1788
54.1782
54.1775
54.1768
54.1761
54.1753
54.1746
54.1739
54.1732
54.1725
54.1718
54.171
54.1703
54.1696
54.169
54.1683
54.1676
54.167
54.1664
54.1658
54.1652
54.1647
54.1642
54.1637
54.1632
54.1628
54.1623
54.1619
54.1615
54.1611
54.1608
54.1604
54.16
54.1597
54.1594
54.1591
54.1588
54.1586
54.1585
54.1586
54.1588
54.1591
54.1594
54.1594
54.1586
54.1565
54.1545
54.1536
54.1538
54.1542
54.1543
54.1542
54.1542
54.1534
54.1518
54.1511
54.1511
54.1507
54.149
54.1477
54.1477
54.1484
54.1519
54.1572
54.161
54.1628
54.1632
54.163
54.1625
54.1621
54.1618
54.1616
54.1613
54.1611
54.161
54.1608
54.1607
54.1606
54.1605
54.1604
54.1604
54.1604
54.1603
54.1603
54.1603
54.1603
54.1603
54.1604
54.1604
54.1604
54.1605
54.1605
54.1606
54.1606
54.1607
54.1607
54.1608
54.1609
54.1609
54.161
54.1611
54.1611
54.1612
54.1613
54.1614
54.1614
54.1615
54.1616
54.1617
54.1618
54.1619
54.162
54.1621
54.1622
54.1623
54.1624
54.1625
54.1627
54.1628
54.1629
54.163
54.1632
54.1633
54.1635
54.1637
54.1639
54.164
54.1642
54.1644
54.1647
54.1648
54.1651
54.1653
54.1656
54.1658
54.1661
54.1663
54.1666
54.1669
54.1672
54.1674
54.1677
54.168
54.1683
54.1685
54.1689
54.1691
54.1694
54.1697
54.2745
54.2721
54.2695
54.2666
54.2636
54.2604
54.2577
54.255
54.2517
54.2481
54.2455
54.2433
54.2403
54.2364
54.2336
54.232
54.2305
54.2276
54.2235
54.2198
54.2174
54.2174
54.2164
54.2133
54.2091
54.2052
54.2021
54.2026
54.2029
54.2006
54.1969
54.1931
54.1903
54.1897
54.1896
54.189
54.1884
54.1879
54.1877
54.1879
54.1884
54.1875
54.1844
54.1797
54.1753
54.1728
54.1727
54.1728
54.1724
54.1717
54.1711
54.1704
54.1697
54.169
54.1682
54.1675
54.1668
54.166
54.1652
54.1645
54.1637
54.163
54.1623
54.1615
54.1608
54.1601
54.1595
54.1589
54.1583
54.1577
54.1571
54.1566
54.1561
54.1557
54.1553
54.1549
54.1545
54.1541
54.1538
54.1534
54.1531
54.1528
54.1524
54.1521
54.1517
54.1514
54.1511
54.1508
54.1506
54.1504
54.1503
54.1505
54.1511
54.1515
54.1514
54.1501
54.1488
54.1478
54.1474
54.1472
54.1468
54.1473
54.148
54.1473
54.1423
54.1403
54.142
54.1481
54.1528
54.1558
54.1575
54.1587
54.1596
54.1602
54.1606
54.161
54.1611
54.1612
54.1612
54.1612
54.1612
54.1611
54.161
54.1609
54.1608
54.1607
54.1606
54.1605
54.1604
54.1603
54.1603
54.1602
54.1602
54.1602
54.1602
54.1602
54.1602
54.1602
54.1602
54.1603
54.1603
54.1603
54.1604
54.1604
54.1605
54.1605
54.1606
54.1607
54.1607
54.1608
54.1608
54.1609
54.161
54.1611
54.1611
54.1612
54.1613
54.1614
54.1615
54.1616
54.1617
54.1618
54.1619
54.162
54.1621
54.1622
54.1623
54.1624
54.1625
54.1626
54.1628
54.1629
54.1631
54.1632
54.1634
54.1635
54.1637
54.1639
54.1641
54.1643
54.1645
54.1647
54.165
54.1652
54.1655
54.1657
54.166
54.1662
54.1665
54.1667
54.1671
54.1673
54.1676
54.1679
54.1681
54.1685
54.1686
54.1689
54.1693
54.1696
54.1698
54.1698
54.1698
54.1697
54.1697
54.1697
54.1697
54.1697
54.1698
54.1698
54.1699
54.1699
54.17
54.1701
54.1703
54.1704
54.1705
54.1706
54.1706
54.1707
54.1697
54.1697
54.1698
54.1698
54.1699
54.17
54.1701
54.1702
54.1703
54.1704
54.1705
54.1706
54.1707
54.1708
54.1708
54.1707
54.1707
54.1707
54.1707
54.1707
54.1698
54.1699
54.1699
54.17
54.1701
54.1702
54.1702
54.1702
54.1703
54.1701
54.17
54.17
54.1698
54.1698
54.1696
54.1694
54.1687
54.1684
54.168
54.1679
54.1699
54.1699
54.1699
54.17
54.1701
54.1701
54.1702
54.1701
54.17
54.1697
54.1695
54.1696
54.1699
54.1701
54.1703
54.1704
54.1703
54.1701
54.1696
54.1693
54.1697
54.1697
54.1697
54.1698
54.1698
54.1699
54.1699
54.1699
54.1698
54.1695
54.1694
54.1695
54.1697
54.17
54.1703
54.1706
54.1708
54.1708
54.1704
54.17
54.1712
54.1716
54.1717
54.172
54.1722
54.1721
54.1713
54.1709
54.1709
54.1713
54.1715
54.1709
54.1699
54.17
54.1705
54.1705
54.1695
54.168
54.168
54.1687
54.1692
54.1688
54.167
54.1655
54.1662
54.1674
54.1681
54.168
54.1662
54.1641
54.1644
54.1661
54.168
54.1684
54.1679
54.1664
54.1651
54.1641
54.1633
54.1628
54.1618
54.1604
54.1611
54.1625
54.1633
54.1639
54.1645
54.165
54.1655
54.166
54.1665
54.167
54.1675
54.168
54.1684
54.1689
54.1693
54.1697
54.1702
54.1706
54.171
54.1714
54.1718
54.1723
54.1728
54.1733
54.1739
54.1744
54.1749
54.1758
54.1768
54.1781
54.1797
54.1819
54.1836
54.184
54.1839
54.1827
54.1812
54.18
54.1797
54.1788
54.1781
54.1787
54.1799
54.1808
54.1815
54.1823
54.1831
54.1838
54.184
54.1847
54.1853
54.1813
54.1762
54.1803
54.187
54.1895
54.1898
54.1904
54.1703
54.1684
54.1676
54.1675
54.1669
54.1644
54.1621
54.1618
54.1629
54.1636
54.1623
54.1608
54.1613
54.1631
54.1635
54.1615
54.1604
54.1612
54.1645
54.1656
54.1644
54.1616
54.1609
54.1621
54.1659
54.1675
54.1669
54.1635
54.162
54.1619
54.1647
54.1681
54.1693
54.1683
54.165
54.1629
54.1619
54.1615
54.1626
54.1654
54.166
54.1657
54.1669
54.1682
54.1685
54.1689
54.1695
54.1702
54.1709
54.1717
54.1724
54.1731
54.1738
54.1745
54.1752
54.1758
54.1764
54.177
54.1775
54.1781
54.1787
54.1792
54.1798
54.1803
54.1809
54.1814
54.182
54.1825
54.1829
54.1837
54.1845
54.1856
54.1871
54.1884
54.189
54.1886
54.1874
54.1864
54.1854
54.1843
54.184
54.183
54.1841
54.1859
54.1875
54.1886
54.1894
54.19
54.1903
54.1907
54.1913
54.1914
54.1916
54.1917
54.1899
54.1893
54.1895
54.19
54.1893
54.1892
54.1667
54.163
54.1598
54.1573
54.1553
54.1531
54.1508
54.1492
54.1479
54.1471
54.1462
54.1458
54.1457
54.1457
54.1454
54.1454
54.146
54.1463
54.1462
54.146
54.1465
54.1477
54.1484
54.148
54.1477
54.1479
54.1487
54.1499
54.1506
54.1501
54.1496
54.1496
54.15
54.1503
54.1507
54.1511
54.1513
54.1514
54.1514
54.1502
54.1488
54.1494
54.1513
54.1531
54.1548
54.1562
54.1571
54.1578
54.1584
54.1588
54.1592
54.1595
54.1599
54.1603
54.1606
54.1608
54.161
54.1613
54.1616
54.1619
54.1621
54.1623
54.1625
54.1628
54.163
54.163
54.163
54.1631
54.1638
54.1649
54.1663
54.1677
54.1696
54.1722
54.1751
54.178
54.181
54.1835
54.1851
54.1855
54.1851
54.1847
54.185
54.1858
54.1868
54.1877
54.1885
54.1891
54.1896
54.1902
54.191
54.1917
54.1927
54.1936
54.1945
54.1956
54.1964
54.1972
54.1982
54.199
54.1685
54.1652
54.1631
54.1632
54.1648
54.1655
54.1604
54.1556
54.1565
54.1602
54.1608
54.1547
54.1549
54.157
54.1606
54.1552
54.153
54.1538
54.1568
54.1603
54.1561
54.1531
54.1549
54.1542
54.1597
54.1613
54.1579
54.1555
54.1574
54.1568
54.158
54.1634
54.1645
54.163
54.1612
54.161
54.1624
54.1656
54.1724
54.1848
54.1911
54.1767
54.1682
54.1712
54.1742
54.1753
54.1756
54.1757
54.1759
54.1761
54.1763
54.1766
54.1769
54.1772
54.1775
54.1778
54.1781
54.1784
54.1787
54.179
54.1793
54.1797
54.18
54.1803
54.1807
54.1811
54.1817
54.1826
54.1822
54.1822
54.1825
54.1831
54.1844
54.1869
54.1867
54.1864
54.1872
54.19
54.1936
54.1989
54.2051
54.2045
54.1933
54.1858
54.1865
54.1881
54.1889
54.1894
54.1898
54.1904
54.1911
54.1918
54.1924
54.1932
54.1939
54.1945
54.1948
54.1946
54.1946
54.1948
54.1685
54.1677
54.1673
54.1678
54.1673
54.1679
54.1683
54.1669
54.1663
54.165
54.1662
54.1673
54.1676
54.165
54.1664
54.1679
54.1675
54.1657
54.1624
54.1646
54.1679
54.168
54.1654
54.1625
54.1609
54.1644
54.169
54.1686
54.1665
54.1646
54.1611
54.1624
54.1683
54.1723
54.1711
54.1698
54.1703
54.1729
54.1792
54.1914
54.1973
54.18
54.1651
54.1689
54.1743
54.1762
54.1768
54.1769
54.177
54.1771
54.1774
54.1776
54.1779
54.1782
54.1785
54.1788
54.1791
54.1795
54.1798
54.1801
54.1804
54.1808
54.1811
54.1814
54.1818
54.1821
54.1826
54.1839
54.1832
54.1832
54.1835
54.1839
54.185
54.1868
54.1895
54.1909
54.1908
54.1924
54.1952
54.2
54.2062
54.2057
54.1942
54.1857
54.1871
54.1895
54.1904
54.1909
54.1911
54.1916
54.1923
54.1931
54.1939
54.1948
54.1956
54.196
54.1963
54.1968
54.1972
54.1975
54.1883
54.1878
54.1879
54.1886
54.1893
54.1904
54.1915
54.1929
54.1972
54.2009
54.1992
54.199
54.1999
54.2017
54.2026
54.2033
54.2038
54.2041
54.2043
54.2045
54.1874
54.1869
54.1869
54.1872
54.1876
54.188
54.1887
54.1893
54.1902
54.1921
54.1929
54.194
54.1963
54.1987
54.2004
54.2018
54.2031
54.2038
54.2041
54.204
54.199
54.1982
54.198
54.198
54.1982
54.1985
54.1988
54.1992
54.1996
54.2
54.2004
54.2008
54.2011
54.2011
54.2009
54.2006
54.2002
54.1998
54.1996
54.1998
54.1947
54.1943
54.194
54.1939
54.194
54.1943
54.1946
54.1949
54.1949
54.1942
54.1929
54.1916
54.1905
54.1896
54.1889
54.1883
54.1876
54.1875
54.1875
54.1873
54.1979
54.198
54.1976
54.1974
54.1972
54.1973
54.1973
54.1974
54.1975
54.1977
54.198
54.1983
54.1986
54.199
54.1995
54.2
54.1994
54.1977
54.1955
54.1901
54.2044
54.2052
54.2058
54.2061
54.2058
54.2049
54.2048
54.205
54.2055
54.2055
54.2047
54.2041
54.2043
54.2048
54.2049
54.204
54.2028
54.2019
54.202
54.2026
54.2031
54.2031
54.202
54.2002
54.1986
54.1984
54.1992
54.2003
54.2009
54.2008
54.1995
54.198
54.197
54.1963
54.1958
54.1952
54.1948
54.1951
54.1935
54.1916
54.1918
54.1928
54.1934
54.1937
54.1941
54.1945
54.195
54.1956
54.1965
54.1976
54.1983
54.1977
54.1966
54.1965
54.198
54.1994
54.2008
54.2025
54.2045
54.2056
54.2058
54.2054
54.2043
54.202
54.2013
54.2022
54.2038
54.2046
54.2045
54.2032
54.2016
54.2004
54.1997
54.1991
54.198
54.1975
54.1978
54.1984
54.1991
54.1998
54.2003
54.2007
54.2012
54.1978
54.1897
54.1988
54.2055
54.2076
54.2096
54.2111
54.2123
54.2133
54.2141
54.2147
54.215
54.2151
54.2153
54.2154
54.2154
54.2155
54.2154
54.2154
54.2153
54.2152
54.2152
54.2151
54.215
54.215
54.2149
54.2149
54.2148
54.2147
54.2147
54.2146
54.2146
54.2145
54.2145
54.2145
54.2144
54.2144
54.2144
54.2143
54.2143
54.2143
54.2142
54.2142
54.2142
54.2141
54.2141
54.2141
54.2141
54.214
54.214
54.214
54.2139
54.2139
54.2138
54.2138
54.2138
54.2137
54.2137
54.2137
54.2136
54.2136
54.2136
54.2135
54.2135
54.2135
54.2135
54.2135
54.2135
54.2135
54.2135
54.2135
54.2135
54.2136
54.2136
54.2137
54.2137
54.2138
54.2139
54.2139
54.214
54.2141
54.2142
54.2143
54.2144
54.2146
54.2147
54.2148
54.215
54.2151
54.2153
54.2154
54.2156
54.2157
54.2159
54.216
54.2162
54.2164
54.2166
54.2167
54.217
54.217
54.2173
54.2174
54.2177
54.2177
54.2181
54.2181
54.2185
54.2185
54.2188
54.219
54.2191
54.2195
54.2194
54.2198
54.22
54.2201
54.202
54.2013
54.2014
54.2011
54.1986
54.1962
54.1962
54.1971
54.1974
54.1953
54.1938
54.1945
54.1967
54.1973
54.1957
54.1928
54.1923
54.1938
54.1979
54.1994
54.1992
54.1958
54.1928
54.1919
54.1923
54.1962
54.1996
54.2007
54.2
54.1962
54.1933
54.1917
54.191
54.1906
54.1908
54.1927
54.1955
54.1978
54.197
54.1957
54.196
54.1966
54.1967
54.197
54.1975
54.1981
54.199
54.2001
54.2015
54.2027
54.2031
54.2029
54.2023
54.2027
54.2045
54.2061
54.2075
54.2087
54.2093
54.2093
54.2086
54.206
54.2034
54.2024
54.2025
54.2038
54.2059
54.2067
54.2066
54.2059
54.2046
54.2035
54.2027
54.2027
54.2034
54.2044
54.2054
54.2063
54.2069
54.207
54.2072
54.2073
54.2074
54.2072
54.2049
54.2033
54.203
54.2033
54.2033
54.202
54.2005
54.2009
54.2051
54.2131
54.2161
54.2166
54.2164
54.2162
54.216
54.2159
54.2158
54.2156
54.2155
54.2154
54.2153
54.2153
54.2152
54.2151
54.215
54.215
54.2149
54.2149
54.2148
54.2147
54.2147
54.2147
54.2146
54.2146
54.2145
54.2145
54.2145
54.2144
54.2144
54.2144
54.2143
54.2143
54.2143
54.2143
54.2142
54.2142
54.2142
54.2141
54.2141
54.2141
54.214
54.214
54.2139
54.2139
54.2139
54.2138
54.2138
54.2138
54.2137
54.2137
54.2137
54.2137
54.2136
54.2136
54.2136
54.2136
54.2136
54.2136
54.2136
54.2136
54.2137
54.2137
54.2137
54.2138
54.2138
54.2139
54.214
54.214
54.2141
54.2142
54.2143
54.2144
54.2146
54.2147
54.2148
54.2149
54.2151
54.2152
54.2154
54.2155
54.2157
54.2158
54.216
54.2161
54.2163
54.2165
54.2167
54.2168
54.2171
54.2172
54.2174
54.2175
54.2178
54.2179
54.2182
54.2182
54.2185
54.2186
54.2189
54.219
54.2193
54.2194
54.2197
54.2198
54.2201
54.2203
54.1994
54.1962
54.1932
54.1909
54.1886
54.1863
54.1844
54.1829
54.1818
54.1808
54.1805
54.1805
54.1804
54.18
54.1799
54.1807
54.1814
54.1812
54.1807
54.1807
54.1811
54.1821
54.1829
54.1829
54.1821
54.1816
54.1818
54.182
54.1822
54.1824
54.1827
54.1828
54.1829
54.183
54.1829
54.1827
54.1821
54.1808
54.1792
54.1793
54.1809
54.1822
54.1837
54.1849
54.1858
54.1863
54.1867
54.1869
54.1871
54.1874
54.1872
54.1851
54.1848
54.1863
54.187
54.1871
54.1865
54.1854
54.1849
54.1847
54.1856
54.1873
54.1894
54.191
54.1937
54.1971
54.1999
54.2027
54.2049
54.2061
54.2065
54.2065
54.206
54.2049
54.2041
54.2041
54.2045
54.2052
54.2058
54.2063
54.2068
54.2073
54.208
54.2087
54.2095
54.2102
54.2107
54.211
54.2112
54.2115
54.2119
54.2125
54.2132
54.2137
54.2142
54.2147
54.2152
54.2155
54.2156
54.2156
54.2155
54.2155
54.2154
54.2153
54.2153
54.2152
54.2151
54.2151
54.215
54.215
54.2149
54.2148
54.2148
54.2147
54.2147
54.2147
54.2146
54.2146
54.2145
54.2145
54.2145
54.2144
54.2144
54.2144
54.2143
54.2143
54.2143
54.2143
54.2142
54.2142
54.2142
54.2141
54.2141
54.2141
54.214
54.214
54.2139
54.2139
54.2139
54.2138
54.2138
54.2138
54.2137
54.2137
54.2137
54.2137
54.2136
54.2136
54.2136
54.2136
54.2136
54.2136
54.2136
54.2136
54.2137
54.2137
54.2137
54.2138
54.2138
54.2139
54.214
54.214
54.2141
54.2142
54.2143
54.2144
54.2146
54.2147
54.2148
54.2149
54.2151
54.2152
54.2154
54.2155
54.2157
54.2158
54.216
54.2161
54.2163
54.2165
54.2167
54.2168
54.217
54.2172
54.2174
54.2176
54.2177
54.2179
54.2181
54.2182
54.2185
54.2186
54.2189
54.2191
54.2192
54.2194
54.2197
54.2198
54.2201
54.2202
54.1941
54.1981
54.1975
54.1989
54.2
54.1957
54.1903
54.1913
54.1954
54.1942
54.1865
54.1868
54.1899
54.1938
54.1894
54.1844
54.1852
54.1855
54.1906
54.1933
54.1908
54.187
54.186
54.1865
54.1862
54.19
54.1944
54.195
54.1938
54.1923
54.1913
54.1911
54.1914
54.1918
54.1928
54.1952
54.2003
54.2109
54.2183
54.2075
54.1976
54.2004
54.2035
54.2047
54.2049
54.2048
54.2047
54.2047
54.205
54.2063
54.208
54.2193
54.2211
54.2062
54.2035
54.2044
54.2059
54.2085
54.2051
54.1944
54.1901
54.1908
54.1933
54.1942
54.1958
54.2018
54.2057
54.2078
54.2092
54.2115
54.2139
54.2165
54.2201
54.2212
54.2148
54.2056
54.2039
54.2056
54.2066
54.2071
54.2074
54.2077
54.2082
54.2087
54.2092
54.2096
54.2098
54.2097
54.209
54.2089
54.2091
54.2092
54.2081
54.2038
54.2018
54.2027
54.2084
54.2146
54.2166
54.2165
54.216
54.2158
54.2156
54.2155
54.2154
54.2153
54.2152
54.2151
54.215
54.215
54.2149
54.2149
54.2148
54.2147
54.2147
54.2147
54.2146
54.2146
54.2145
54.2145
54.2145
54.2144
54.2144
54.2144
54.2143
54.2143
54.2143
54.2143
54.2142
54.2142
54.2142
54.2141
54.2141
54.2141
54.214
54.214
54.2139
54.2139
54.2139
54.2138
54.2138
54.2138
54.2137
54.2137
54.2137
54.2137
54.2136
54.2136
54.2136
54.2136
54.2136
54.2136
54.2136
54.2136
54.2137
54.2137
54.2137
54.2138
54.2138
54.2139
54.214
54.214
54.2141
54.2142
54.2143
54.2144
54.2146
54.2147
54.2148
54.2149
54.2151
54.2152
54.2154
54.2155
54.2157
54.2158
54.216
54.2162
54.2163
54.2165
54.2166
54.2169
54.217
54.2172
54.2173
54.2176
54.2177
54.218
54.218
54.2184
54.2184
54.2187
54.2188
54.2191
54.2192
54.2195
54.2196
54.2198
54.2202
54.2202
54.1913
54.1994
54.2014
54.2022
54.2029
54.2033
54.2013
54.2003
54.1998
54.2008
54.2006
54.199
54.1973
54.199
54.201
54.2004
54.1956
54.1938
54.1924
54.1945
54.1992
54.1997
54.1953
54.193
54.1921
54.1908
54.1916
54.1962
54.2009
54.2007
54.1991
54.1984
54.1982
54.1984
54.1991
54.2011
54.2059
54.2163
54.2233
54.2091
54.1921
54.1948
54.2021
54.2052
54.206
54.2061
54.206
54.2059
54.206
54.2067
54.2092
54.2282
54.2308
54.2115
54.2053
54.2055
54.2067
54.2085
54.211
54.2073
54.1984
54.1965
54.1978
54.198
54.1955
54.1967
54.2021
54.2088
54.2107
54.2123
54.2141
54.2167
54.2208
54.222
54.2146
54.2048
54.2023
54.206
54.2078
54.2085
54.2088
54.209
54.2095
54.2102
54.2107
54.2109
54.211
54.2111
54.2113
54.2115
54.2117
54.2116
54.2115
54.2117
54.2113