/*--------------------------------*- C++ -*----------------------------------*\
| =========                 |                                                 |
| \\      /  F ield         | OpenFOAM: The Open Source CFD Toolbox           |
|  \\    /   O peration     | Version:  3.0.x                                 |
|   \\  /    A nd           | Web:      www.OpenFOAM.org                      |
|    \\/     M anipulation  |                                                 |
\*---------------------------------------------------------------------------*/
FoamFile
{
    version     2.0;
    format      ascii;
    class       volVectorField;
    location    "0.59";
    object      U;
}
// * * * * * * * * * * * * * * * * * * * * * * * * * * * * * * * * * * * * * //

dimensions      [0 1 -1 0 0 0 0];

internalField   nonuniform List<vector> 
6900
(
(42.5818 9.48063e-05 0)
(42.2867 8.77483e-05 0)
(41.9374 8.65614e-05 0)
(41.6079 8.83919e-05 0)
(41.2974 9.00693e-05 0)
(40.9906 9.1473e-05 0)
(40.6817 9.27381e-05 0)
(40.3715 9.38623e-05 0)
(40.0615 9.48418e-05 0)
(39.7521 9.56868e-05 0)
(39.4433 9.64084e-05 0)
(39.135 9.70143e-05 0)
(38.8271 9.75131e-05 0)
(38.5197 9.79158e-05 0)
(38.2129 9.82342e-05 0)
(37.9067 9.84804e-05 0)
(37.601 9.86655e-05 0)
(37.296 9.88009e-05 0)
(36.9916 9.88958e-05 0)
(36.6879 9.89595e-05 0)
(36.385 9.89967e-05 0)
(36.0827 9.90247e-05 0)
(35.7811 9.90337e-05 0)
(35.4804 9.90348e-05 0)
(35.1804 9.90295e-05 0)
(34.8813 9.90214e-05 0)
(34.583 9.90111e-05 0)
(34.2855 9.89966e-05 0)
(33.9889 9.89831e-05 0)
(33.6933 9.89679e-05 0)
(33.3985 9.89516e-05 0)
(33.1046 9.89347e-05 0)
(32.8117 9.8916e-05 0)
(32.5197 9.89003e-05 0)
(32.2287 9.88809e-05 0)
(31.9388 9.88618e-05 0)
(31.6498 9.88448e-05 0)
(31.3618 9.88247e-05 0)
(31.0749 9.88051e-05 0)
(30.789 9.87889e-05 0)
(30.5042 9.87709e-05 0)
(30.2205 9.87513e-05 0)
(29.9379 9.87335e-05 0)
(29.6564 9.87198e-05 0)
(29.376 9.87053e-05 0)
(29.0968 9.8696e-05 0)
(28.8187 9.86838e-05 0)
(28.5418 9.86725e-05 0)
(28.266 9.86604e-05 0)
(27.9915 9.86473e-05 0)
(27.7182 9.86391e-05 0)
(27.4461 9.86393e-05 0)
(27.1752 9.86458e-05 0)
(26.9056 9.86599e-05 0)
(26.6373 9.86782e-05 0)
(26.3703 9.8699e-05 0)
(26.1045 9.87168e-05 0)
(25.8401 9.87331e-05 0)
(25.577 9.87487e-05 0)
(25.3153 9.87621e-05 0)
(25.0549 9.87729e-05 0)
(24.796 9.87851e-05 0)
(24.5384 9.87962e-05 0)
(24.2822 9.88056e-05 0)
(24.0276 9.88177e-05 0)
(23.7743 9.88337e-05 0)
(23.5226 9.88494e-05 0)
(23.2724 9.88578e-05 0)
(23.0236 9.88509e-05 0)
(22.7765 9.88156e-05 0)
(22.5309 9.87357e-05 0)
(22.2869 9.86e-05 0)
(22.0444 9.8396e-05 0)
(21.8036 9.81119e-05 0)
(21.5645 9.77351e-05 0)
(21.327 9.72511e-05 0)
(21.0911 9.66401e-05 0)
(20.857 9.58782e-05 0)
(20.6246 9.49389e-05 0)
(20.3938 9.37919e-05 0)
(20.1649 9.24085e-05 0)
(19.9376 9.07626e-05 0)
(19.7121 8.88304e-05 0)
(19.4885 8.65933e-05 0)
(19.2665 8.40425e-05 0)
(19.0464 8.11737e-05 0)
(18.8281 7.79909e-05 0)
(18.6116 7.45079e-05 0)
(18.397 7.07463e-05 0)
(18.1841 6.67356e-05 0)
(17.9731 6.25115e-05 0)
(17.7639 5.81162e-05 0)
(17.5566 5.35923e-05 0)
(17.3511 4.89874e-05 0)
(17.1474 4.43515e-05 0)
(16.9456 3.97362e-05 0)
(16.7456 3.51932e-05 0)
(16.5474 3.07702e-05 0)
(16.3511 2.65124e-05 0)
(16.1566 2.2457e-05 0)
(15.9638 1.8633e-05 0)
(15.7729 1.50609e-05 0)
(15.5838 1.175e-05 0)
(15.3964 8.70297e-06 0)
(15.2109 5.91421e-06 0)
(15.0271 3.36035e-06 0)
(14.845 9.29694e-07 0)
(14.6648 -8.0611e-07 0)
(14.4863 -2.23841e-06 0)
(14.3096 -3.466e-06 0)
(14.1346 -4.50872e-06 0)
(13.9614 -5.38248e-06 0)
(13.7899 -6.10728e-06 0)
(13.6202 -6.70111e-06 0)
(13.4522 -7.18471e-06 0)
(13.286 -7.56974e-06 0)
(13.1215 -7.87506e-06 0)
(12.9588 -8.11396e-06 0)
(12.7978 -8.30074e-06 0)
(12.6386 -8.44135e-06 0)
(12.4811 -8.54743e-06 0)
(12.3254 -8.62675e-06 0)
(12.1714 -8.68581e-06 0)
(12.0191 -8.72629e-06 0)
(11.8686 -8.7549e-06 0)
(11.7199 -8.77424e-06 0)
(11.5729 -8.78782e-06 0)
(11.4276 -8.79345e-06 0)
(11.2841 -8.79546e-06 0)
(11.1423 -8.79411e-06 0)
(11.0022 -8.79317e-06 0)
(10.8638 -8.78843e-06 0)
(10.7271 -8.78303e-06 0)
(10.5922 -8.77689e-06 0)
(10.4589 -8.76951e-06 0)
(10.3272 -8.76359e-06 0)
(10.1972 -8.755e-06 0)
(10.0689 -8.74697e-06 0)
(9.94209 -8.73895e-06 0)
(9.81691 -8.73054e-06 0)
(9.69331 -8.72332e-06 0)
(9.57127 -8.71314e-06 0)
(9.45076 -8.7036e-06 0)
(9.3318 -8.69334e-06 0)
(9.21435 -8.68436e-06 0)
(9.09843 -8.67521e-06 0)
(8.98403 -8.66536e-06 0)
(8.87115 -8.65588e-06 0)
(8.75978 -8.64736e-06 0)
(8.64994 -8.63975e-06 0)
(8.54161 -8.63001e-06 0)
(8.43481 -8.62018e-06 0)
(8.32951 -8.61113e-06 0)
(8.22573 -8.60228e-06 0)
(8.12345 -8.59175e-06 0)
(8.02266 -8.58123e-06 0)
(7.92333 -8.57259e-06 0)
(7.82546 -8.56289e-06 0)
(7.72902 -8.55139e-06 0)
(7.63398 -8.53956e-06 0)
(7.54033 -8.52888e-06 0)
(7.44804 -8.51776e-06 0)
(7.35709 -8.50513e-06 0)
(7.26745 -8.4927e-06 0)
(7.1791 -8.47925e-06 0)
(7.09201 -8.46725e-06 0)
(7.00615 -8.4518e-06 0)
(6.9215 -8.43732e-06 0)
(6.83804 -8.42152e-06 0)
(6.75573 -8.4076e-06 0)
(6.67456 -8.39178e-06 0)
(6.5945 -8.37682e-06 0)
(6.51553 -8.35876e-06 0)
(6.43763 -8.34387e-06 0)
(6.36078 -8.32511e-06 0)
(6.28496 -8.31254e-06 0)
(6.21014 -8.28852e-06 0)
(6.1363 -8.28247e-06 0)
(6.0634 -8.24802e-06 0)
(5.99143 -8.25639e-06 0)
(5.92034 -8.20256e-06 0)
(5.85012 -8.23463e-06 0)
(5.78076 -8.16152e-06 0)
(5.71222 -8.21923e-06 0)
(5.64454 -8.14214e-06 0)
(5.57769 -8.20842e-06 0)
(5.51173 -8.1603e-06 0)
(5.44665 -8.22904e-06 0)
(5.38249 -8.18251e-06 0)
(5.31925 -8.26019e-06 0)
(5.25699 -8.1537e-06 0)
(5.19565 -8.18082e-06 0)
(5.13531 -8.14683e-06 0)
(5.07589 -7.83009e-06 0)
(5.01743 -8.54155e-06 0)
(4.95975 -4.24402e-06 0)
(4.90223 3.17442e-06 0)
(4.84045 8.03645e-05 0)
(4.7731 0.00313611 0)
(4.37395 0.00938508 0)
(42.5834 0.000120212 0)
(42.2901 9.39304e-05 0)
(41.9425 8.39557e-05 0)
(41.6147 8.4444e-05 0)
(41.306 8.54435e-05 0)
(41.001 8.61747e-05 0)
(40.6939 8.69664e-05 0)
(40.3855 8.7762e-05 0)
(40.0774 8.8496e-05 0)
(39.7699 8.91558e-05 0)
(39.463 8.97393e-05 0)
(39.1565 9.02424e-05 0)
(38.8506 9.06644e-05 0)
(38.5451 9.10106e-05 0)
(38.2402 9.12886e-05 0)
(37.9358 9.15066e-05 0)
(37.6321 9.16726e-05 0)
(37.329 9.17961e-05 0)
(37.0266 9.18842e-05 0)
(36.7249 9.19458e-05 0)
(36.4238 9.19822e-05 0)
(36.1235 9.20163e-05 0)
(35.8239 9.20256e-05 0)
(35.5251 9.20331e-05 0)
(35.227 9.20331e-05 0)
(34.9298 9.20315e-05 0)
(34.6335 9.20275e-05 0)
(34.3379 9.20184e-05 0)
(34.0433 9.20115e-05 0)
(33.7495 9.20015e-05 0)
(33.4567 9.19902e-05 0)
(33.1648 9.19782e-05 0)
(32.8738 9.19632e-05 0)
(32.5838 9.19528e-05 0)
(32.2947 9.19361e-05 0)
(32.0067 9.19197e-05 0)
(31.7196 9.1906e-05 0)
(31.4336 9.18868e-05 0)
(31.1486 9.18682e-05 0)
(30.8647 9.1854e-05 0)
(30.5818 9.18357e-05 0)
(30.3 9.1815e-05 0)
(30.0193 9.1796e-05 0)
(29.7397 9.17817e-05 0)
(29.4613 9.17635e-05 0)
(29.184 9.17525e-05 0)
(28.9078 9.17351e-05 0)
(28.6329 9.17182e-05 0)
(28.3591 9.17002e-05 0)
(28.0865 9.16807e-05 0)
(27.8151 9.16667e-05 0)
(27.5449 9.16608e-05 0)
(27.276 9.16595e-05 0)
(27.0083 9.16654e-05 0)
(26.7419 9.16739e-05 0)
(26.4768 9.16838e-05 0)
(26.213 9.16892e-05 0)
(25.9505 9.16938e-05 0)
(25.6894 9.1698e-05 0)
(25.4296 9.16984e-05 0)
(25.1711 9.16945e-05 0)
(24.9141 9.16924e-05 0)
(24.6585 9.16881e-05 0)
(24.4042 9.16812e-05 0)
(24.1515 9.1678e-05 0)
(23.9002 9.168e-05 0)
(23.6504 9.16814e-05 0)
(23.4021 9.16737e-05 0)
(23.1553 9.16501e-05 0)
(22.9101 9.15974e-05 0)
(22.6664 9.14982e-05 0)
(22.4243 9.13443e-05 0)
(22.1838 9.11229e-05 0)
(21.9449 9.08238e-05 0)
(21.7077 9.04343e-05 0)
(21.4721 8.99414e-05 0)
(21.2382 8.93252e-05 0)
(21.0059 8.85625e-05 0)
(20.7753 8.76291e-05 0)
(20.5465 8.64947e-05 0)
(20.3193 8.51318e-05 0)
(20.0938 8.35171e-05 0)
(19.8701 8.16281e-05 0)
(19.6481 7.94469e-05 0)
(19.4279 7.69684e-05 0)
(19.2094 7.4189e-05 0)
(18.9926 7.11129e-05 0)
(18.7776 6.77561e-05 0)
(18.5644 6.41404e-05 0)
(18.3529 6.02946e-05 0)
(18.1431 5.62525e-05 0)
(17.9351 5.2057e-05 0)
(17.7289 4.77485e-05 0)
(17.5244 4.33739e-05 0)
(17.3216 3.89818e-05 0)
(17.1206 3.46221e-05 0)
(16.9213 3.03441e-05 0)
(16.7238 2.61903e-05 0)
(16.528 2.22051e-05 0)
(16.3339 1.84334e-05 0)
(16.1416 1.49142e-05 0)
(15.951 1.16776e-05 0)
(15.7621 8.73925e-06 0)
(15.5749 6.1076e-06 0)
(15.3895 3.78558e-06 0)
(15.2058 1.77327e-06 0)
(15.0238 1.36995e-08 0)
(14.8436 -1.58895e-06 0)
(14.665 -2.98757e-06 0)
(14.4883 -4.20624e-06 0)
(14.3132 -5.22799e-06 0)
(14.1399 -6.07387e-06 0)
(13.9683 -6.76985e-06 0)
(13.7985 -7.33651e-06 0)
(13.6304 -7.79583e-06 0)
(13.464 -8.15949e-06 0)
(13.2994 -8.44696e-06 0)
(13.1365 -8.67143e-06 0)
(12.9753 -8.84672e-06 0)
(12.816 -8.97776e-06 0)
(12.6583 -9.07638e-06 0)
(12.5024 -9.14999e-06 0)
(12.3483 -9.20454e-06 0)
(12.1958 -9.24106e-06 0)
(12.0452 -9.26649e-06 0)
(11.8963 -9.28323e-06 0)
(11.7491 -9.29444e-06 0)
(11.6036 -9.2976e-06 0)
(11.4599 -9.29732e-06 0)
(11.318 -9.29389e-06 0)
(11.1777 -9.29098e-06 0)
(11.0392 -9.28375e-06 0)
(10.9023 -9.27591e-06 0)
(10.7672 -9.2673e-06 0)
(10.6337 -9.25741e-06 0)
(10.5019 -9.24899e-06 0)
(10.3717 -9.2374e-06 0)
(10.2432 -9.22654e-06 0)
(10.1162 -9.21539e-06 0)
(9.99088 -9.20397e-06 0)
(9.86711 -9.19362e-06 0)
(9.74489 -9.18014e-06 0)
(9.62422 -9.16739e-06 0)
(9.50508 -9.15394e-06 0)
(9.38747 -9.14208e-06 0)
(9.27138 -9.12985e-06 0)
(9.15681 -9.11697e-06 0)
(9.04376 -9.10461e-06 0)
(8.93222 -9.09365e-06 0)
(8.82221 -9.08351e-06 0)
(8.71372 -9.07096e-06 0)
(8.60674 -9.059e-06 0)
(8.50129 -9.04745e-06 0)
(8.39734 -9.03643e-06 0)
(8.29489 -9.0231e-06 0)
(8.19393 -9.0102e-06 0)
(8.09443 -8.99845e-06 0)
(7.99639 -8.98622e-06 0)
(7.89978 -8.97067e-06 0)
(7.80458 -8.9559e-06 0)
(7.71077 -8.94076e-06 0)
(7.61831 -8.92597e-06 0)
(7.5272 -8.90833e-06 0)
(7.43739 -8.89163e-06 0)
(7.34887 -8.87222e-06 0)
(7.26162 -8.85596e-06 0)
(7.17559 -8.83257e-06 0)
(7.09078 -8.81581e-06 0)
(7.00715 -8.78811e-06 0)
(6.92468 -8.77498e-06 0)
(6.84335 -8.74313e-06 0)
(6.76313 -8.73359e-06 0)
(6.684 -8.69161e-06 0)
(6.60593 -8.69239e-06 0)
(6.52892 -8.63373e-06 0)
(6.45294 -8.66188e-06 0)
(6.37796 -8.55673e-06 0)
(6.30395 -8.65632e-06 0)
(6.2309 -8.43665e-06 0)
(6.15876 -8.70598e-06 0)
(6.08752 -8.23933e-06 0)
(6.01714 -8.82824e-06 0)
(5.94761 -7.95487e-06 0)
(5.87892 -9.02575e-06 0)
(5.81107 -7.55572e-06 0)
(5.74407 -9.37527e-06 0)
(5.67795 -6.89317e-06 0)
(5.6127 -1.00084e-05 0)
(5.54839 -6.01685e-06 0)
(5.485 -1.0467e-05 0)
(5.42257 -5.92789e-06 0)
(5.36108 -9.71395e-06 0)
(5.30058 -6.68651e-06 0)
(5.24101 -7.35765e-06 0)
(5.18239 3.06371e-06 0)
(5.12456 4.93882e-05 0)
(5.06689 0.000336925 0)
(5.00514 0.00199405 0)
(4.93647 0.0144974 0)
(4.66065 0.0440407 0)
(42.5834 1.3305e-12 0)
(42.29 2.19203e-12 0)
(41.9425 -2.27469e-14 0)
(41.6147 -8.36405e-13 0)
(41.3059 -2.61718e-12 0)
(41.0009 -5.69958e-12 0)
(40.6939 -7.70786e-12 0)
(40.3855 -9.17868e-12 0)
(40.0773 -8.65109e-12 0)
(39.7698 -7.6326e-12 0)
(39.4629 -1.01157e-11 0)
(39.1565 -1.46237e-11 0)
(38.8505 -1.69961e-11 0)
(38.5451 -1.85152e-11 0)
(38.2401 -1.79228e-11 0)
(37.9358 -1.59379e-11 0)
(37.6321 -1.5454e-11 0)
(37.329 -1.51174e-11 0)
(37.0266 -1.39105e-11 0)
(36.7248 -1.36271e-11 0)
(36.4238 -1.36073e-11 0)
(36.1235 -1.40234e-11 0)
(35.8239 -1.44301e-11 0)
(35.525 -1.62954e-11 0)
(35.227 -1.73625e-11 0)
(34.9298 -1.84819e-11 0)
(34.6334 -1.98737e-11 0)
(34.3379 -2.25213e-11 0)
(34.0433 -2.39946e-11 0)
(33.7495 -2.45397e-11 0)
(33.4567 -2.54271e-11 0)
(33.1648 -2.53369e-11 0)
(32.8738 -2.30229e-11 0)
(32.5838 -2.04912e-11 0)
(32.2947 -1.96079e-11 0)
(32.0067 -1.83429e-11 0)
(31.7196 -1.57897e-11 0)
(31.4336 -1.43916e-11 0)
(31.1486 -1.39639e-11 0)
(30.8647 -1.46574e-11 0)
(30.5818 -1.66981e-11 0)
(30.3 -2.19743e-11 0)
(30.0193 -2.46854e-11 0)
(29.7398 -2.70646e-11 0)
(29.4613 -2.81587e-11 0)
(29.184 -2.82328e-11 0)
(28.9079 -2.53387e-11 0)
(28.6329 -2.37969e-11 0)
(28.3591 -2.23252e-11 0)
(28.0865 -2.01773e-11 0)
(27.8151 -1.80096e-11 0)
(27.5449 -1.57357e-11 0)
(27.276 -1.33633e-11 0)
(27.0084 -1.21078e-11 0)
(26.742 -1.15599e-11 0)
(26.4769 -1.36003e-11 0)
(26.2131 -1.25011e-11 0)
(25.9506 -1.09921e-11 0)
(25.6894 -6.69767e-12 0)
(25.4296 -3.51848e-12 0)
(25.1712 -3.388e-13 0)
(24.9142 -3.04906e-13 0)
(24.6585 -1.17511e-12 0)
(24.4043 -1.21301e-12 0)
(24.1516 -1.2987e-12 0)
(23.9003 -1.25369e-12 0)
(23.6505 -2.18909e-12 0)
(23.4022 -2.43888e-12 0)
(23.1554 -3.99013e-12 0)
(22.9102 -5.33679e-12 0)
(22.6665 -5.71216e-12 0)
(22.4244 -6.94618e-12 0)
(22.1839 -8.57838e-12 0)
(21.9451 -9.99695e-12 0)
(21.7078 -9.8414e-12 0)
(21.4722 -7.89743e-12 0)
(21.2383 -7.34462e-12 0)
(21.006 -9.27027e-12 0)
(20.7755 -1.33535e-11 0)
(20.5466 -2.05051e-11 0)
(20.3194 -2.80909e-11 0)
(20.094 -3.26315e-11 0)
(19.8703 -3.66403e-11 0)
(19.6483 -4.09937e-11 0)
(19.4281 -4.36438e-11 0)
(19.2096 -4.5072e-11 0)
(18.9928 -4.61198e-11 0)
(18.7778 -4.71108e-11 0)
(18.5645 -4.84287e-11 0)
(18.353 -5.07019e-11 0)
(18.1433 -5.26686e-11 0)
(17.9353 -5.25775e-11 0)
(17.729 -4.84793e-11 0)
(17.5245 -4.58899e-11 0)
(17.3217 -4.23916e-11 0)
(17.1207 -4.07201e-11 0)
(16.9214 -3.74046e-11 0)
(16.7239 -3.5015e-11 0)
(16.5281 -2.59784e-11 0)
(16.334 -2.83672e-11 0)
(16.1417 -1.84809e-11 0)
(15.9511 -3.11928e-11 0)
(15.7622 -1.58057e-11 0)
(15.575 -3.64829e-11 0)
(15.3896 -1.21733e-11 0)
(15.2059 -4.29092e-11 0)
(15.0239 -2.74948e-11 0)
(14.8436 -5.73096e-11 0)
(14.6651 3.2296e-11 0)
(14.4883 -2.75335e-11 0)
(14.3133 8.04449e-11 0)
(14.14 -3.47004e-11 0)
(13.9684 8.3016e-11 0)
(13.7985 -6.31737e-11 0)
(13.6304 8.06306e-11 0)
(13.4641 -5.99213e-11 0)
(13.2994 5.83815e-11 0)
(13.1366 -3.91119e-11 0)
(12.9754 1.51593e-11 0)
(12.816 -1.5424e-11 0)
(12.6584 -1.53188e-11 0)
(12.5025 -2.18742e-11 0)
(12.3483 6.14205e-12 0)
(12.1959 -5.02214e-11 0)
(12.0453 6.16438e-11 0)
(11.8963 -1.07737e-10 0)
(11.7492 1.51344e-10 0)
(11.6037 -1.91524e-10 0)
(11.46 2.25377e-10 0)
(11.318 -1.752e-10 0)
(11.1778 1.57433e-10 0)
(11.0392 -5.75386e-11 0)
(10.9024 3.77153e-11 0)
(10.7672 4.40864e-11 0)
(10.6338 2.13379e-12 0)
(10.5019 -2.9536e-11 0)
(10.3718 1.44217e-10 0)
(10.2432 -2.81913e-10 0)
(10.1163 3.97505e-10 0)
(9.99095 -4.26535e-10 0)
(9.86718 3.64759e-10 0)
(9.74496 -1.14538e-10 0)
(9.62429 -9.89527e-11 0)
(9.50515 1.02564e-10 0)
(9.38754 1.84894e-10 0)
(9.27145 -4.81637e-10 0)
(9.15688 4.77389e-10 0)
(9.04383 -2.97829e-10 0)
(8.93229 1.71847e-10 0)
(8.82228 -2.38783e-10 0)
(8.71379 3.69395e-10 0)
(8.60681 -4.30033e-10 0)
(8.50135 3.90808e-10 0)
(8.3974 -4.89741e-10 0)
(8.29496 8.3676e-10 0)
(8.19399 -1.3131e-09 0)
(8.0945 1.69272e-09 0)
(7.99646 -1.84509e-09 0)
(7.89985 2.25499e-09 0)
(7.80465 -3.25837e-09 0)
(7.71083 3.36489e-09 0)
(7.61838 -2.33761e-09 0)
(7.52726 2.56824e-09 0)
(7.43746 -3.9927e-09 0)
(7.34894 4.35283e-09 0)
(7.26168 -4.9082e-09 0)
(7.17566 7.11409e-09 0)
(7.09085 -9.81893e-09 0)
(7.00722 1.27538e-08 0)
(6.92475 -1.60671e-08 0)
(6.84341 2.12713e-08 0)
(6.76319 -2.90561e-08 0)
(6.68406 3.84079e-08 0)
(6.606 -5.30531e-08 0)
(6.52899 7.70768e-08 0)
(6.453 -1.14254e-07 0)
(6.37802 1.7337e-07 0)
(6.30402 -2.71744e-07 0)
(6.23096 4.13149e-07 0)
(6.15883 -6.3012e-07 0)
(6.08758 8.93323e-07 0)
(6.0172 -1.2807e-06 0)
(5.94767 1.6109e-06 0)
(5.87898 -2.1581e-06 0)
(5.81114 2.41793e-06 0)
(5.74414 -3.04951e-06 0)
(5.67801 3.27334e-06 0)
(5.61277 -3.84038e-06 0)
(5.54845 4.18554e-06 0)
(5.48507 -4.56943e-06 0)
(5.42263 4.76843e-06 0)
(5.36115 -4.97116e-06 0)
(5.30064 4.91763e-06 0)
(5.24108 -3.32837e-06 0)
(5.18249 1.38347e-05 0)
(5.12486 4.30569e-05 0)
(5.06828 0.000264235 0)
(5.01329 0.00142115 0)
(4.96273 0.00831396 0)
(4.91064 0.0439616 0)
(42.5834 -0.000120212 0)
(42.2901 -9.39304e-05 0)
(41.9425 -8.39557e-05 0)
(41.6147 -8.4444e-05 0)
(41.306 -8.54435e-05 0)
(41.001 -8.61747e-05 0)
(40.6939 -8.69664e-05 0)
(40.3855 -8.7762e-05 0)
(40.0774 -8.8496e-05 0)
(39.7699 -8.91558e-05 0)
(39.463 -8.97393e-05 0)
(39.1565 -9.02424e-05 0)
(38.8506 -9.06644e-05 0)
(38.5451 -9.10106e-05 0)
(38.2402 -9.12886e-05 0)
(37.9358 -9.15066e-05 0)
(37.6321 -9.16726e-05 0)
(37.329 -9.17961e-05 0)
(37.0266 -9.18842e-05 0)
(36.7249 -9.19458e-05 0)
(36.4238 -9.19822e-05 0)
(36.1235 -9.20163e-05 0)
(35.8239 -9.20256e-05 0)
(35.5251 -9.20331e-05 0)
(35.227 -9.20331e-05 0)
(34.9298 -9.20315e-05 0)
(34.6335 -9.20275e-05 0)
(34.3379 -9.20184e-05 0)
(34.0433 -9.20115e-05 0)
(33.7495 -9.20015e-05 0)
(33.4567 -9.19902e-05 0)
(33.1648 -9.19782e-05 0)
(32.8738 -9.19632e-05 0)
(32.5838 -9.19528e-05 0)
(32.2947 -9.19361e-05 0)
(32.0067 -9.19197e-05 0)
(31.7196 -9.1906e-05 0)
(31.4336 -9.18868e-05 0)
(31.1486 -9.18682e-05 0)
(30.8647 -9.1854e-05 0)
(30.5818 -9.18357e-05 0)
(30.3 -9.18149e-05 0)
(30.0193 -9.1796e-05 0)
(29.7397 -9.17816e-05 0)
(29.4613 -9.17635e-05 0)
(29.184 -9.17525e-05 0)
(28.9078 -9.17351e-05 0)
(28.6329 -9.17182e-05 0)
(28.3591 -9.17002e-05 0)
(28.0865 -9.16807e-05 0)
(27.8151 -9.16667e-05 0)
(27.5449 -9.16608e-05 0)
(27.276 -9.16595e-05 0)
(27.0083 -9.16654e-05 0)
(26.7419 -9.16739e-05 0)
(26.4768 -9.16838e-05 0)
(26.213 -9.16892e-05 0)
(25.9505 -9.16938e-05 0)
(25.6894 -9.1698e-05 0)
(25.4296 -9.16984e-05 0)
(25.1711 -9.16945e-05 0)
(24.9141 -9.16924e-05 0)
(24.6585 -9.16881e-05 0)
(24.4042 -9.16812e-05 0)
(24.1515 -9.1678e-05 0)
(23.9002 -9.168e-05 0)
(23.6504 -9.16814e-05 0)
(23.4021 -9.16737e-05 0)
(23.1553 -9.16501e-05 0)
(22.9101 -9.15974e-05 0)
(22.6664 -9.14982e-05 0)
(22.4243 -9.13443e-05 0)
(22.1838 -9.11229e-05 0)
(21.9449 -9.08238e-05 0)
(21.7077 -9.04342e-05 0)
(21.4721 -8.99414e-05 0)
(21.2382 -8.93252e-05 0)
(21.0059 -8.85625e-05 0)
(20.7753 -8.76291e-05 0)
(20.5465 -8.64947e-05 0)
(20.3193 -8.51318e-05 0)
(20.0938 -8.35171e-05 0)
(19.8701 -8.16281e-05 0)
(19.6481 -7.94469e-05 0)
(19.4279 -7.69684e-05 0)
(19.2094 -7.4189e-05 0)
(18.9926 -7.11129e-05 0)
(18.7776 -6.7756e-05 0)
(18.5644 -6.41404e-05 0)
(18.3529 -6.02946e-05 0)
(18.1431 -5.62525e-05 0)
(17.9351 -5.2057e-05 0)
(17.7289 -4.77485e-05 0)
(17.5244 -4.33739e-05 0)
(17.3216 -3.89818e-05 0)
(17.1206 -3.46221e-05 0)
(16.9213 -3.03441e-05 0)
(16.7238 -2.61903e-05 0)
(16.528 -2.22051e-05 0)
(16.3339 -1.84334e-05 0)
(16.1416 -1.49142e-05 0)
(15.951 -1.16776e-05 0)
(15.7621 -8.73922e-06 0)
(15.5749 -6.10763e-06 0)
(15.3895 -3.78553e-06 0)
(15.2058 -1.77332e-06 0)
(15.0238 -1.36416e-08 0)
(14.8436 1.58888e-06 0)
(14.665 2.98764e-06 0)
(14.4883 4.20616e-06 0)
(14.3132 5.22803e-06 0)
(14.1399 6.07382e-06 0)
(13.9683 6.76988e-06 0)
(13.7985 7.33647e-06 0)
(13.6304 7.79587e-06 0)
(13.464 8.15946e-06 0)
(13.2994 8.447e-06 0)
(13.1365 8.67139e-06 0)
(12.9753 8.84677e-06 0)
(12.816 8.97769e-06 0)
(12.6583 9.07647e-06 0)
(12.5024 9.14993e-06 0)
(12.3483 9.20458e-06 0)
(12.1958 9.24106e-06 0)
(12.0452 9.2665e-06 0)
(11.8963 9.28317e-06 0)
(11.7491 9.29461e-06 0)
(11.6036 9.29733e-06 0)
(11.4599 9.29762e-06 0)
(11.318 9.29364e-06 0)
(11.1777 9.29114e-06 0)
(11.0392 9.28367e-06 0)
(10.9023 9.27593e-06 0)
(10.7672 9.26731e-06 0)
(10.6337 9.25739e-06 0)
(10.5019 9.24896e-06 0)
(10.3717 9.23752e-06 0)
(10.2432 9.22627e-06 0)
(10.1162 9.21581e-06 0)
(9.99088 9.20348e-06 0)
(9.86711 9.19396e-06 0)
(9.74489 9.18012e-06 0)
(9.62422 9.16724e-06 0)
(9.50508 9.15398e-06 0)
(9.38747 9.14233e-06 0)
(9.27138 9.12939e-06 0)
(9.15681 9.11749e-06 0)
(9.04376 9.10422e-06 0)
(8.93222 9.09385e-06 0)
(8.82221 9.08332e-06 0)
(8.71372 9.07139e-06 0)
(8.60674 9.05846e-06 0)
(8.50129 9.0479e-06 0)
(8.39734 9.03592e-06 0)
(8.29489 9.02394e-06 0)
(8.19393 9.00888e-06 0)
(8.09443 9.00031e-06 0)
(7.99639 8.98407e-06 0)
(7.89978 8.97306e-06 0)
(7.80458 8.95253e-06 0)
(7.71077 8.94457e-06 0)
(7.61831 8.92332e-06 0)
(7.5272 8.91096e-06 0)
(7.43739 8.88721e-06 0)
(7.34887 8.87698e-06 0)
(7.26162 8.85072e-06 0)
(7.17559 8.84033e-06 0)
(7.09078 8.80509e-06 0)
(7.00715 8.80201e-06 0)
(6.92468 8.75745e-06 0)
(6.84335 8.76638e-06 0)
(6.76313 8.70198e-06 0)
(6.68399 8.7333e-06 0)
(6.60593 8.63473e-06 0)
(6.52892 8.71695e-06 0)
(6.45294 8.53892e-06 0)
(6.37796 8.7439e-06 0)
(6.30395 8.36427e-06 0)
(6.2309 8.88282e-06 0)
(6.15876 8.02976e-06 0)
(6.08751 9.20752e-06 0)
(6.01714 7.46476e-06 0)
(5.94761 9.71532e-06 0)
(5.87892 6.75626e-06 0)
(5.81107 1.02052e-05 0)
(5.74408 6.19621e-06 0)
(5.67794 1.04092e-05 0)
(5.61271 6.00944e-06 0)
(5.54838 1.03669e-05 0)
(5.48501 5.77112e-06 0)
(5.42256 1.08286e-05 0)
(5.36109 4.72158e-06 0)
(5.30057 1.17295e-05 0)
(5.24103 4.45538e-06 0)
(5.18241 1.08113e-05 0)
(5.12475 1.08598e-06 0)
(5.06787 -3.38155e-05 0)
(5.01093 -0.00016877 0)
(4.96806 0.00515548 0)
(4.91782 0.0282359 0)
(42.5818 -9.48063e-05 0)
(42.2867 -8.77483e-05 0)
(41.9374 -8.65614e-05 0)
(41.6079 -8.83919e-05 0)
(41.2974 -9.00693e-05 0)
(40.9906 -9.1473e-05 0)
(40.6817 -9.27381e-05 0)
(40.3715 -9.38623e-05 0)
(40.0615 -9.48418e-05 0)
(39.7521 -9.56868e-05 0)
(39.4433 -9.64084e-05 0)
(39.135 -9.70143e-05 0)
(38.8271 -9.75131e-05 0)
(38.5197 -9.79158e-05 0)
(38.2129 -9.82342e-05 0)
(37.9067 -9.84804e-05 0)
(37.601 -9.86655e-05 0)
(37.296 -9.88009e-05 0)
(36.9916 -9.88958e-05 0)
(36.6879 -9.89595e-05 0)
(36.385 -9.89967e-05 0)
(36.0827 -9.90247e-05 0)
(35.7811 -9.90337e-05 0)
(35.4804 -9.90348e-05 0)
(35.1804 -9.90295e-05 0)
(34.8813 -9.90214e-05 0)
(34.583 -9.90111e-05 0)
(34.2855 -9.89966e-05 0)
(33.9889 -9.89831e-05 0)
(33.6933 -9.89679e-05 0)
(33.3985 -9.89516e-05 0)
(33.1046 -9.89347e-05 0)
(32.8117 -9.8916e-05 0)
(32.5197 -9.89003e-05 0)
(32.2287 -9.8881e-05 0)
(31.9388 -9.88618e-05 0)
(31.6498 -9.88448e-05 0)
(31.3618 -9.88247e-05 0)
(31.0749 -9.88051e-05 0)
(30.789 -9.87889e-05 0)
(30.5042 -9.87709e-05 0)
(30.2205 -9.87513e-05 0)
(29.9379 -9.87335e-05 0)
(29.6564 -9.87198e-05 0)
(29.376 -9.87053e-05 0)
(29.0968 -9.8696e-05 0)
(28.8187 -9.86838e-05 0)
(28.5418 -9.86725e-05 0)
(28.266 -9.86604e-05 0)
(27.9915 -9.86473e-05 0)
(27.7182 -9.86391e-05 0)
(27.4461 -9.86393e-05 0)
(27.1752 -9.86458e-05 0)
(26.9056 -9.86599e-05 0)
(26.6373 -9.86782e-05 0)
(26.3703 -9.8699e-05 0)
(26.1045 -9.87168e-05 0)
(25.8401 -9.87331e-05 0)
(25.577 -9.87487e-05 0)
(25.3153 -9.87621e-05 0)
(25.0549 -9.87729e-05 0)
(24.796 -9.87851e-05 0)
(24.5384 -9.87962e-05 0)
(24.2822 -9.88056e-05 0)
(24.0276 -9.88177e-05 0)
(23.7743 -9.88337e-05 0)
(23.5226 -9.88494e-05 0)
(23.2724 -9.88578e-05 0)
(23.0236 -9.88509e-05 0)
(22.7765 -9.88156e-05 0)
(22.5309 -9.87357e-05 0)
(22.2869 -9.86e-05 0)
(22.0444 -9.8396e-05 0)
(21.8036 -9.81119e-05 0)
(21.5645 -9.77351e-05 0)
(21.327 -9.72511e-05 0)
(21.0911 -9.66401e-05 0)
(20.857 -9.58782e-05 0)
(20.6246 -9.4939e-05 0)
(20.3938 -9.37919e-05 0)
(20.1649 -9.24085e-05 0)
(19.9376 -9.07626e-05 0)
(19.7121 -8.88304e-05 0)
(19.4885 -8.65933e-05 0)
(19.2665 -8.40425e-05 0)
(19.0464 -8.11737e-05 0)
(18.8281 -7.79909e-05 0)
(18.6116 -7.45079e-05 0)
(18.397 -7.07463e-05 0)
(18.1841 -6.67356e-05 0)
(17.9731 -6.25115e-05 0)
(17.7639 -5.81162e-05 0)
(17.5566 -5.35923e-05 0)
(17.3511 -4.89874e-05 0)
(17.1474 -4.43515e-05 0)
(16.9456 -3.97362e-05 0)
(16.7456 -3.51932e-05 0)
(16.5474 -3.07702e-05 0)
(16.3511 -2.65124e-05 0)
(16.1566 -2.2457e-05 0)
(15.9638 -1.8633e-05 0)
(15.7729 -1.50609e-05 0)
(15.5838 -1.17499e-05 0)
(15.3964 -8.703e-06 0)
(15.2109 -5.91417e-06 0)
(15.0271 -3.3604e-06 0)
(14.845 -9.29627e-07 0)
(14.6648 8.06076e-07 0)
(14.4863 2.23843e-06 0)
(14.3096 3.466e-06 0)
(14.1346 4.50873e-06 0)
(13.9614 5.38249e-06 0)
(13.7899 6.10726e-06 0)
(13.6202 6.70115e-06 0)
(13.4522 7.18467e-06 0)
(13.286 7.56978e-06 0)
(13.1215 7.87504e-06 0)
(12.9588 8.11396e-06 0)
(12.7978 8.30078e-06 0)
(12.6386 8.44128e-06 0)
(12.4811 8.5475e-06 0)
(12.3254 8.62669e-06 0)
(12.1714 8.68583e-06 0)
(12.0191 8.72633e-06 0)
(11.8686 8.75484e-06 0)
(11.7199 8.77429e-06 0)
(11.5729 8.78783e-06 0)
(11.4276 8.79338e-06 0)
(11.2841 8.79555e-06 0)
(11.1423 8.79404e-06 0)
(11.0022 8.7932e-06 0)
(10.8638 8.78842e-06 0)
(10.7271 8.78303e-06 0)
(10.5922 8.77689e-06 0)
(10.4589 8.76951e-06 0)
(10.3272 8.76361e-06 0)
(10.1972 8.75498e-06 0)
(10.0689 8.74698e-06 0)
(9.94209 8.73901e-06 0)
(9.81691 8.73047e-06 0)
(9.69331 8.72329e-06 0)
(9.57127 8.71323e-06 0)
(9.45076 8.70355e-06 0)
(9.3318 8.69328e-06 0)
(9.21435 8.68443e-06 0)
(9.09843 8.67522e-06 0)
(8.98403 8.66538e-06 0)
(8.87115 8.65578e-06 0)
(8.75978 8.64737e-06 0)
(8.64994 8.6398e-06 0)
(8.54161 8.63008e-06 0)
(8.43481 8.62006e-06 0)
(8.32951 8.61117e-06 0)
(8.22573 8.60226e-06 0)
(8.12345 8.59175e-06 0)
(8.02266 8.58123e-06 0)
(7.92333 8.57277e-06 0)
(7.82546 8.56259e-06 0)
(7.72902 8.55153e-06 0)
(7.63398 8.53945e-06 0)
(7.54033 8.52935e-06 0)
(7.44804 8.51743e-06 0)
(7.35709 8.50522e-06 0)
(7.26745 8.49228e-06 0)
(7.1791 8.47968e-06 0)
(7.09201 8.46692e-06 0)
(7.00615 8.45246e-06 0)
(6.9215 8.43641e-06 0)
(6.83804 8.42271e-06 0)
(6.75573 8.4061e-06 0)
(6.67456 8.3938e-06 0)
(6.5945 8.3742e-06 0)
(6.51553 8.36214e-06 0)
(6.43763 8.33914e-06 0)
(6.36078 8.33142e-06 0)
(6.28496 8.30362e-06 0)
(6.21014 8.30272e-06 0)
(6.1363 8.26156e-06 0)
(6.0634 8.28202e-06 0)
(5.99143 8.20877e-06 0)
(5.92034 8.28002e-06 0)
(5.85013 8.14839e-06 0)
(5.78075 8.31714e-06 0)
(5.71223 8.10089e-06 0)
(5.64453 8.38422e-06 0)
(5.5777 8.06689e-06 0)
(5.51172 8.41701e-06 0)
(5.44665 8.05381e-06 0)
(5.38248 8.36312e-06 0)
(5.31926 8.11422e-06 0)
(5.25697 8.30561e-06 0)
(5.19567 8.14068e-06 0)
(5.1353 8.29421e-06 0)
(5.07591 8.25083e-06 0)
(5.01745 8.59785e-06 0)
(4.95995 1.1927e-05 0)
(4.90329 3.69995e-05 0)
(4.84739 0.000337167 0)
(4.81076 0.00872493 0)
(5.15169 0.0211549 0)
(4.13772 0.161127 -3.63261e-15)
(3.95872 0.444801 7.26887e-15)
(3.89927 0.73954 -1.36281e-14)
(3.91025 1.04582 2.81508e-14)
(3.91596 1.37314 -2.9048e-14)
(3.81776 1.66714 -1.81544e-15)
(3.56866 1.86234 2.46447e-20)
(3.18686 1.94868 -2.5441e-14)
(2.87992 2.06305 -1.18228e-13)
(2.95085 2.50452 1.16123e-13)
(3.35563 3.38034 -2.89066e-14)
(3.82068 4.5874 -5.93361e-14)
(4.03871 5.79684 3.04779e-14)
(3.75019 6.41131 0)
(3.0865 6.20937 2.87125e-14)
(2.29568 5.49172 2.87969e-14)
(1.59059 4.51753 -2.89145e-14)
(1.09481 3.79892 2.90313e-14)
(0.732859 3.70583 2.27309e-16)
(0.419381 3.8539 -2.26668e-16)
(4.5074 0.253148 0)
(4.39231 0.572345 0)
(4.34131 0.897524 -1.85969e-15)
(4.35003 1.23663 -3.71656e-15)
(4.3491 1.66217 9.28692e-15)
(4.21243 2.14303 1.85742e-14)
(3.8898 2.54422 0)
(3.39238 2.77186 1.11475e-14)
(2.98889 2.73229 1.8612e-14)
(3.10052 2.70248 -4.45826e-14)
(3.47461 3.11294 2.96074e-14)
(3.85542 3.96015 1.47394e-14)
(3.92323 5.28246 -1.46952e-14)
(3.33497 6.61425 1.47034e-14)
(2.44024 7.03045 0)
(1.45285 6.84336 -1.83617e-15)
(0.548764 6.10114 1.8411e-15)
(0.0275351 4.9843 -6.47647e-15)
(-0.074959 4.16948 -9.29906e-16)
(0.10788 3.77406 0)
(4.90373 0.164939 -4.95905e-17)
(4.89528 0.260255 -2.51907e-14)
(4.89823 0.330911 2.5587e-14)
(4.91483 0.384211 -2.45957e-14)
(4.95306 0.421108 -2.69786e-14)
(5.02614 0.462072 1.00389e-13)
(5.12342 0.556493 -5.07884e-14)
(5.21677 0.733622 4.91959e-14)
(5.25612 1.00727 -9.9984e-14)
(5.16598 1.35352 1.58814e-15)
(5.02871 1.61913 4.92261e-14)
(5.03835 1.6789 0)
(5.30777 1.5809 -4.93045e-14)
(5.6694 1.59957 4.93438e-14)
(5.78854 1.93166 -3.97937e-16)
(5.64417 2.43729 0)
(5.36754 2.98284 3.97655e-16)
(4.97739 3.51926 0)
(4.3215 4.00162 0)
(3.42447 4.38254 0)
(4.95468 0.310449 8.27571e-16)
(4.93982 0.724747 -8.27483e-15)
(4.90282 1.18149 -1.65379e-15)
(4.85823 1.63949 3.30476e-15)
(4.79808 2.09811 -3.30169e-15)
(4.71295 2.55714 -5.57714e-20)
(4.59709 3.01261 -1.31797e-14)
(4.44683 3.46102 0)
(4.25985 3.8995 0)
(4.03521 4.32614 -6.56903e-15)
(3.77183 4.74012 6.56231e-15)
(3.46548 5.13656 0)
(3.10772 5.50534 -6.55185e-15)
(2.69736 5.83387 6.54818e-15)
(2.25196 6.11803 -6.54438e-15)
(1.78755 6.36764 1.30801e-14)
(1.30786 6.58947 -6.5355e-15)
(0.812896 6.78038 0)
(0.306271 6.93768 -3.26291e-15)
(-0.195509 7.07405 0)
(5.31971 0.246387 -1.29638e-15)
(5.45772 0.613516 9.93119e-15)
(5.50014 1.03459 6.90227e-15)
(5.50675 1.46816 1.37904e-14)
(5.49538 1.91497 0)
(5.45517 2.37523 0)
(5.3767 2.84489 1.3747e-14)
(5.25587 3.32012 3.43309e-15)
(5.09174 3.79857 -6.85892e-15)
(4.88586 4.2787 3.42566e-15)
(4.64115 4.75541 2.73737e-14)
(4.35688 5.21639 -1.70903e-14)
(4.02722 5.64565 1.70752e-14)
(3.64706 6.03492 -3.41246e-15)
(3.21789 6.38854 -1.36405e-14)
(2.74786 6.71385 -2.38539e-14)
(2.24376 7.01314 -1.1918e-14)
(1.70742 7.28346 -1.70122e-15)
(1.14262 7.51396 9.77456e-15)
(0.592367 7.64582 4.25028e-16)
(0.143352 7.44026 0)
(0.112121 10.9038 0)
(0.214271 11.9568 0)
(0.233634 10.6133 0)
(0.175201 10.0754 0)
(0.120859 12.4538 0)
(0.284602 14.7646 0)
(0.353497 14.2287 0)
(0.29835 13.3594 0)
(0.221909 15.318 0)
(0.402583 17.1162 0)
(0.437595 15.7196 0)
(0.373981 13.2217 0)
(0.123457 15.0173 0)
(0.322072 19.4825 0)
(0.481668 19.8764 0)
(0.466726 16.6991 0)
(0.300845 11.6455 0)
(0.0437584 11.7438 0)
(0.0647491 18.6621 0)
(0.469295 23.0892 0)
(0.525374 21.5194 0)
(0.418356 16.2409 0)
(0.180273 9.53928 0)
(-0.00414421 9.98403 0)
(0.00132141 18.3072 0)
(0.411654 25.0324 0)
(0.584366 24.4522 0)
(0.544596 18.9047 0)
(0.368472 12.2766 0)
(0.0701283 13.1042 0)
(0.0530737 21.4189 0)
(0.48346 27.8219 0)
(0.803925 28.0371 0)
(0.903702 25.6858 0)
(0.954611 23.7706 0)
(0.987468 22.5856 0)
(0.993871 21.8109 0)
(0.957244 21.0142 0)
(0.875944 19.5177 0)
(0.757753 16.3154 0)
(0.52335 9.95284 0)
(0.257451 6.49125 0)
(0.0482088 12.3025 0)
(0.0564224 21.8442 0)
(0.548025 28.0005 0)
(0.827873 27.5644 0)
(0.92202 24.9879 0)
(0.973302 23.0508 0)
(1.01022 21.9205 0)
(1.03198 21.312 0)
(1.04221 20.9913 0)
(1.04606 20.8124 0)
(1.04713 20.7014 0)
(1.04694 20.6229 0)
(1.04609 20.5603 0)
(1.04484 20.5057 0)
(1.04334 20.4554 0)
(1.04165 20.4076 0)
(1.03983 20.3615 0)
(1.03789 20.3169 0)
(1.03587 20.2736 0)
(1.03391 20.232 0)
(1.03206 20.1922 0)
(1.03031 20.1537 0)
(1.02864 20.116 0)
(1.02701 20.0788 0)
(1.0254 20.0418 0)
(1.02377 20.0052 0)
(1.02206 19.9687 0)
(1.02022 19.9325 0)
(1.0182 19.8966 0)
(1.01593 19.8609 0)
(1.01333 19.8256 0)
(1.0103 19.7906 0)
(1.00674 19.7561 0)
(1.0025 19.722 0)
(0.997419 19.6886 0)
(0.991311 19.6556 0)
(0.983954 19.6232 0)
(0.975099 19.591 0)
(0.964464 19.5589 0)
(0.951733 19.5264 0)
(0.936538 19.4926 0)
(0.918437 19.4562 0)
(0.896869 19.415 0)
(0.871057 19.3653 0)
(0.83991 19.2991 0)
(0.802098 19.2003 0)
(0.756695 19.033 0)
(0.70481 18.7238 0)
(0.651976 18.1494 0)
(0.605934 17.1587 0)
(0.548477 15.6075 0)
(0.4477 13.6852 0)
(0.308143 12.9495 0)