/*--------------------------------*- C++ -*----------------------------------*\
| =========                 |                                                 |
| \\      /  F ield         | OpenFOAM: The Open Source CFD Toolbox           |
|  \\    /   O peration     | Version:  3.0.x                                 |
|   \\  /    A nd           | Web:      www.OpenFOAM.org                      |
|    \\/     M anipulation  |                                                 |
\*---------------------------------------------------------------------------*/
FoamFile
{
    version     2.0;
    format      ascii;
    class       surfaceScalarField;
    location    "0.004";
    object      phi;
}
// * * * * * * * * * * * * * * * * * * * * * * * * * * * * * * * * * * * * * //

dimensions      [1 0 -1 0 0 0 0];

internalField   nonuniform List<scalar> 
999
(
3845.64
3845.64
3845.64
3845.64
3845.64
3845.64
3845.64
3845.64
3845.64
3845.64
3845.64
3845.64
3845.64
3845.64
3845.64
3845.64
3845.64
3845.64
3845.64
3845.64
3845.64
3845.64
3845.64
3845.64
3845.64
3845.64
3845.64
3845.64
3845.64
3845.64
3845.64
3845.64
3845.64
3845.64
3845.64
3845.64
3845.64
3845.64
3845.64
3845.64
3845.64
3845.64
3845.64
3845.64
3845.64
3845.64
3845.64
3845.64
3845.64
3845.64
3845.64
3845.64
3845.64
3845.64
3845.64
3845.64
3845.64
3845.64
3845.64
3845.64
3845.64
3845.64
3845.64
3845.64
3845.64
3845.64
3845.64
3845.64
3845.64
3845.64
3845.64
3845.64
3845.64
3845.64
3845.64
3845.64
3845.64
3845.64
3845.64
3845.64
3845.64
3845.64
3845.64
3845.64
3845.64
3845.64
3845.64
3845.64
3845.64
3845.64
3845.64
3845.64
3845.64
3845.64
3845.64
3845.64
3845.64
3845.64
3845.64
3845.64
3845.64
3845.64
3845.64
3845.64
3845.64
3845.64
3845.64
3845.64
3845.64
3845.64
3845.64
3845.64
3845.64
3845.64
3845.64
3845.64
3845.64
3845.64
3845.64
3845.64
3845.64
3845.64
3845.64
3845.64
3845.64
3845.64
3845.64
3845.64
3845.64
3845.64
3845.64
3845.64
3845.64
3845.64
3845.64
3845.64
3845.64
3845.64
3845.64
3845.64
3845.64
3845.64
3845.64
3845.64
3845.64
3845.64
3845.64
3845.64
3845.64
3845.64
3845.64
3845.64
3845.64
3845.64
3845.64
3845.64
3845.64
3845.64
3845.64
3845.64
3845.64
3845.64
3845.64
3845.64
3845.64
3845.64
3845.64
3845.64
3845.64
3845.64
3845.64
3845.64
3845.64
3845.64
3845.64
3845.64
3845.64
3845.64
3845.64
3845.64
3845.64
3845.64
3845.64
3845.64
3845.64
3845.64
3845.64
3845.64
3845.64
3845.64
3845.64
3845.64
3845.64
3845.64
3845.64
3845.64
3845.64
3845.64
3845.64
3845.64
3845.64
3845.64
3845.64
3845.64
3845.64
3845.64
3845.64
3845.64
3845.64
3845.64
3845.64
3845.64
3845.64
3845.64
3845.64
3845.64
3845.64
3845.64
3845.64
3845.64
3845.64
3845.64
3845.64
3845.64
3845.64
3845.64
3845.64
3845.64
3845.64
3845.64
3845.64
3845.64
3845.64
3845.64
3845.64
3845.64
3845.64
3845.64
3845.64
3845.64
3845.64
3845.64
3845.64
3845.64
3845.64
3845.64
3845.64
3845.64
3845.64
3845.64
3845.64
3845.64
3845.64
3845.64
3845.64
3845.64
3845.64
3845.64
3845.64
3845.64
3845.64
3845.64
3845.64
3845.64
3845.64
3845.64
3845.64
3845.64
3845.64
3845.64
3845.64
3845.64
3845.64
3845.64
3845.64
3845.64
3845.64
3845.64
3845.64
3845.64
3845.64
3845.64
3845.64
3845.64
3845.64
3845.64
3845.64
3845.64
3845.64
3845.64
3845.64
3845.64
3845.64
3845.64
3845.64
3845.64
3845.64
3845.64
3845.64
3845.64
3845.64
3845.64
3845.64
3845.64
3845.64
3845.64
3845.64
3845.64
3845.64
3845.64
3845.64
3845.64
3845.64
3845.64
3845.64
3845.64
3845.64
3845.64
3845.64
3845.64
3845.64
3845.64
3845.64
3845.64
3845.64
3845.64
3845.64
3845.64
3845.64
3845.64
3845.64
3845.64
3845.64
3845.64
3845.64
3845.64
3845.64
3845.64
3845.64
3845.64
3845.64
3845.64
3845.64
3845.64
3845.64
3845.64
3845.64
3845.64
3845.64
3845.64
3845.64
3845.64
3845.64
3845.64
3845.64
3845.64
3845.64
3845.64
3845.64
3845.64
3845.64
3845.64
3845.64
3845.64
3845.64
3845.64
3845.64
3845.64
3845.64
3845.64
3845.64
3845.64
3845.64
3845.64
3845.64
3845.64
3845.64
3845.64
3845.64
3845.64
3845.64
3845.64
3845.64
3845.64
3845.64
3845.64
3845.64
3845.64
3845.64
3845.64
3845.64
3845.64
3845.64
3845.64
3845.64
3845.64
3845.64
3845.64
3845.64
3845.64
3845.64
3845.64
3845.64
3845.64
3845.64
3845.64
3845.64
3845.64
3845.64
3845.64
3845.64
3845.64
3845.64
3845.64
3845.64
3845.64
3845.64
3845.64
3845.64
3845.64
3845.64
3845.64
3845.64
3845.64
3845.64
3845.64
3845.64
3845.64
3845.64
3845.64
3845.64
3845.64
3845.64
3845.64
3845.64
3845.64
3845.64
3845.64
3845.64
3845.64
3845.64
3845.64
3845.64
3845.64
3845.64
3845.64
3845.64
3845.64
3845.64
3845.64
3845.64
3845.64
3845.64
3845.64
3845.64
3845.64
3845.64
3845.64
3845.64
3845.64
3845.64
3845.64
3845.64
3845.64
3845.64
3845.64
3845.64
3845.64
3845.64
3845.64
3845.64
3845.64
3845.64
3845.64
3845.64
3845.64
3845.64
3845.64
3845.64
3845.64
3845.64
3845.64
3845.64
3845.64
3845.64
3845.64
3845.64
3845.64
3845.64
3845.64
3845.64
3845.64
3845.64
3845.64
3845.64
3845.64
3845.64
3845.64
3845.64
3845.64
3845.64
3845.64
3845.64
3845.64
3845.64
3845.64
3845.64
3845.64
3845.64
3845.64
3845.64
3845.64
3845.64
3845.64
3845.64
3845.64
3845.64
3845.64
3845.64
3845.64
3845.64
3845.64
3845.64
3845.64
3845.64
3845.64
3845.64
3845.64
3845.64
3845.64
3845.64
3845.64
3845.64
3845.64
3845.64
3845.64
3845.64
3845.64
3845.64
3845.64
3845.64
3845.64
3845.64
3845.64
3845.64
3845.64
3845.64
3845.64
3845.64
3845.64
3845.64
3845.64
3845.64
3845.64
3845.64
3845.64
3845.64
3845.64
3845.64
3845.64
3845.64
3845.64
3845.64
3845.64
3845.64
3845.64
3845.64
3845.64
3845.64
3845.64
3845.64
3845.64
3845.64
3845.64
3845.64
3845.64
3845.64
3845.64
3845.64
3845.64
3845.64
3845.64
3845.64
3845.64
3845.64
3845.64
3845.64
3845.64
3845.64
3845.64
3845.64
3845.64
3845.64
3845.64
3845.64
3845.64
3845.64
3845.64
3845.64
3845.64
3845.64
3845.64
3845.64
3845.64
3845.64
3845.64
3845.64
3845.64
3845.64
3845.64
3845.64
3845.64
3845.64
3845.64
3845.64
3845.64
3845.64
3845.64
3845.64
3845.64
3845.64
3845.64
3845.64
3845.64
3845.64
3845.64
3845.64
3845.64
3845.64
3845.64
3845.64
3845.64
3845.64
3845.64
3845.64
3845.64
3845.64
3845.64
3845.64
3845.64
3845.64
3845.64
3845.64
3845.64
3845.64
3845.64
3845.64
3845.64
3845.64
3845.64
3845.64
3845.64
3845.64
3845.64
3845.64
3845.64
3845.64
3845.64
3845.64
3845.64
3845.64
3845.64
3845.64
3845.64
3845.64
3845.64
3845.64
3845.64
3845.64
3845.64
3845.64
3845.64
3845.64
3845.64
3845.64
3845.64
3845.64
3845.64
3845.64
3845.64
3845.64
3845.64
3845.64
3845.64
3845.64
3845.64
3845.64
3845.64
3845.64
3845.64
3845.64
3845.64
3845.64
3845.64
3845.64
3845.64
3845.64
3845.64
3845.64
3845.63
3845.63
3845.63
3845.63
3845.63
3845.63
3845.62
3845.62
3845.61
3845.6
3845.59
3845.57
3845.54
3845.51
3845.46
3845.39
3845.3
3845.17
3845.01
3844.79
3844.49
3844.1
3843.57
3842.88
3841.97
3840.76
3839.19
3837.13
3834.46
3830.99
3826.51
3820.74
3813.34
3803.87
3791.81
3776.5
3757.17
3732.87
3702.45
3664.61
3617.83
3560.4
3490.48
3406.14
3305.5
3186.9
3049.11
2891.59
2714.77
2520.25
2310.94
2090.99
1865.56
1640.39
1421.25
1213.38
1021.02
847.161
693.417
560.162
446.747
351.781
273.413
209.575
158.171
117.219
84.9302
59.7495
40.3682
25.7177
14.9479
7.39564
2.54145
-0.0395263
-0.637442
-0.576626
-0.344149
-0.0609989
0.240579
0.536674
0.757921
0.922685
1.03903
1.11964
1.17461
1.20946
1.22837
1.23471
1.23189
1.22294
1.21
1.19434
1.17676
1.15791
1.13843
1.11882
1.09934
1.0801
1.06116
1.04265
1.02466
1.00727
0.990455
0.974143
0.95828
0.942857
0.927893
0.9134
0.899363
0.885742
0.872498
0.859603
0.847045
0.834814
0.822898
0.811279
0.799939
0.788862
0.778036
0.767452
0.757102
0.74698
0.737081
0.727394
0.717912
0.708624
0.69952
0.690594
0.681841
0.673257
0.664839
0.656583
0.648481
0.64053
0.632722
0.625052
0.617514
0.610102
0.602811
0.595636
0.588572
0.581617
0.574767
0.568021
0.561377
0.554831
0.548383
0.542028
0.535764
0.529588
0.523496
0.517486
0.511555
0.505699
0.499918
0.494209
0.488572
0.483005
0.477507
0.472078
0.466715
0.461416
0.45618
0.451004
0.445885
0.440821
0.435811
0.430852
0.425942
0.421081
0.416268
0.411502
0.406783
0.402109
0.397482
0.3929
0.388364
0.383872
0.379425
0.375021
0.370661
0.366343
0.362068
0.357835
0.353644
0.349495
0.345389
0.341326
0.337305
0.333325
0.329387
0.325487
0.321623
0.317793
0.313992
0.310217
0.306466
0.302734
0.299021
0.295325
0.291645
0.287984
0.284344
0.280726
0.277136
0.273575
0.270046
0.266549
0.263086
0.259655
0.256252
0.252874
0.249516
0.246173
0.242841
0.239517
0.2362
0.23289
0.22959
0.226303
0.223034
0.219789
0.216574
0.213394
0.21025
0.207143
0.20407
0.201027
0.198008
0.195002
0.192002
0.189
0.185988
0.182964
0.179927
0.17688
0.173828
0.17078
0.167742
0.164725
0.161736
0.158779
0.155859
0.152974
0.150125
0.147305
0.144509
0.14173
0.138958
0.136182
0.133386
0.131103
0.127678
0.125714
0.121886
0.119994
0.116475
0.116996
0.110667
0.108638
0.104442
0.10316
0.0987281
0.0977717
0.0930722
0.0923548
0.087474
0.0869143
0.0820112
0.0814841
0.0767572
0.0760477
0.0717246
0.0705497
0.0668877
0.06493
0.0622004
0.0591469
0.0576067
0.0531969
0.0530508
0.0471222
0.0484764
0.041004
0.0438237
0.0349487
0.0390326
0.0290752
0.0340526
0.0235011
0.0288524
0.0183234
0.0234245
0.0135971
0.0177834
0.00931864
0.0119633
0.00542025
0.00601401
0.00177624
)
;

boundaryField
{
    inlet
    {
        type            calculated;
        value           uniform -3845.64;
    }
    backWall
    {
        type            calculated;
        value           uniform 0;
    }
    sides
    {
        type            empty;
        value           nonuniform 0();
    }
}


// ************************************************************************* //
