/*--------------------------------*- C++ -*----------------------------------*\
| =========                 |                                                 |
| \\      /  F ield         | OpenFOAM: The Open Source CFD Toolbox           |
|  \\    /   O peration     | Version:  3.0.x                                 |
|   \\  /    A nd           | Web:      www.OpenFOAM.org                      |
|    \\/     M anipulation  |                                                 |
\*---------------------------------------------------------------------------*/
FoamFile
{
    version     2.0;
    format      ascii;
    class       surfaceScalarField;
    location    "0.006";
    object      phi;
}
// * * * * * * * * * * * * * * * * * * * * * * * * * * * * * * * * * * * * * //

dimensions      [1 0 -1 0 0 0 0];

internalField   nonuniform List<scalar> 
999
(
2922.08
2922.08
2922.08
2922.08
2922.08
2922.08
2922.08
2922.08
2922.08
2922.08
2922.08
2922.08
2922.08
2922.08
2922.08
2922.08
2922.08
2922.08
2922.08
2922.08
2922.08
2922.08
2922.08
2922.08
2922.08
2922.08
2922.08
2922.08
2922.08
2922.08
2922.08
2922.08
2922.08
2922.08
2922.08
2922.08
2922.08
2922.08
2922.08
2922.08
2922.08
2922.08
2922.08
2922.08
2922.08
2922.08
2922.08
2922.08
2922.08
2922.08
2922.08
2922.08
2922.08
2922.08
2922.08
2922.08
2922.08
2922.08
2922.08
2922.08
2922.08
2922.08
2922.08
2922.08
2922.08
2922.08
2922.08
2922.08
2922.08
2922.08
2922.08
2922.08
2922.08
2922.08
2922.08
2922.08
2922.08
2922.08
2922.08
2922.08
2922.08
2922.08
2922.08
2922.08
2922.08
2922.08
2922.08
2922.08
2922.08
2922.08
2922.08
2922.08
2922.08
2922.08
2922.08
2922.08
2922.08
2922.08
2922.08
2922.08
2922.08
2922.08
2922.08
2922.08
2922.08
2922.08
2922.08
2922.08
2922.08
2922.08
2922.08
2922.08
2922.08
2922.08
2922.08
2922.08
2922.08
2922.08
2922.08
2922.08
2922.08
2922.08
2922.08
2922.08
2922.08
2922.08
2922.08
2922.08
2922.08
2922.08
2922.08
2922.08
2922.08
2922.08
2922.08
2922.08
2922.08
2922.08
2922.08
2922.08
2922.08
2922.08
2922.08
2922.08
2922.08
2922.08
2922.08
2922.08
2922.08
2922.08
2922.08
2922.08
2922.08
2922.08
2922.08
2922.08
2922.08
2922.08
2922.08
2922.08
2922.08
2922.08
2922.08
2922.08
2922.08
2922.08
2922.08
2922.08
2922.08
2922.08
2922.08
2922.08
2922.08
2922.08
2922.08
2922.08
2922.08
2922.08
2922.08
2922.08
2922.08
2922.08
2922.08
2922.08
2922.08
2922.08
2922.08
2922.08
2922.08
2922.08
2922.08
2922.08
2922.08
2922.08
2922.08
2922.08
2922.08
2922.08
2922.08
2922.08
2922.08
2922.08
2922.08
2922.08
2922.08
2922.08
2922.08
2922.08
2922.08
2922.08
2922.08
2922.08
2922.08
2922.08
2922.08
2922.08
2922.08
2922.08
2922.08
2922.08
2922.08
2922.08
2922.08
2922.08
2922.08
2922.08
2922.08
2922.08
2922.08
2922.08
2922.08
2922.08
2922.08
2922.08
2922.08
2922.08
2922.08
2922.08
2922.08
2922.08
2922.08
2922.08
2922.08
2922.08
2922.08
2922.08
2922.08
2922.08
2922.08
2922.08
2922.08
2922.08
2922.08
2922.08
2922.08
2922.08
2922.08
2922.08
2922.08
2922.08
2922.08
2922.08
2922.08
2922.08
2922.08
2922.08
2922.08
2922.08
2922.08
2922.08
2922.08
2922.08
2922.08
2922.08
2922.08
2922.08
2922.08
2922.08
2922.08
2922.08
2922.08
2922.08
2922.08
2922.08
2922.08
2922.08
2922.08
2922.08
2922.08
2922.08
2922.08
2922.08
2922.08
2922.08
2922.08
2922.08
2922.08
2922.08
2922.08
2922.08
2922.08
2922.08
2922.08
2922.08
2922.08
2922.08
2922.08
2922.08
2922.08
2922.08
2922.08
2922.08
2922.08
2922.08
2922.08
2922.08
2922.08
2922.08
2922.08
2922.08
2922.08
2922.08
2922.08
2922.08
2922.08
2922.08
2922.08
2922.08
2922.08
2922.08
2922.08
2922.08
2922.08
2922.08
2922.08
2922.08
2922.08
2922.08
2922.08
2922.08
2922.08
2922.08
2922.08
2922.08
2922.08
2922.08
2922.08
2922.08
2922.08
2922.08
2922.08
2922.08
2922.08
2922.08
2922.08
2922.08
2922.08
2922.08
2922.08
2922.08
2922.08
2922.08
2922.08
2922.08
2922.08
2922.08
2922.08
2922.08
2922.08
2922.08
2922.08
2922.08
2922.08
2922.08
2922.08
2922.08
2922.08
2922.08
2922.08
2922.08
2922.08
2922.08
2922.08
2922.08
2922.08
2922.08
2922.08
2922.08
2922.08
2922.08
2922.08
2922.08
2922.08
2922.08
2922.08
2922.08
2922.08
2922.08
2922.08
2922.08
2922.08
2922.08
2922.08
2922.08
2922.08
2922.08
2922.08
2922.08
2922.08
2922.08
2922.08
2922.08
2922.08
2922.08
2922.08
2922.08
2922.08
2922.08
2922.08
2922.08
2922.08
2922.08
2922.08
2922.08
2922.08
2922.08
2922.08
2922.08
2922.08
2922.08
2922.08
2922.08
2922.08
2922.08
2922.08
2922.08
2922.08
2922.08
2922.08
2922.08
2922.08
2922.08
2922.08
2922.08
2922.08
2922.08
2922.08
2922.08
2922.08
2922.08
2922.08
2922.08
2922.08
2922.08
2922.08
2922.08
2922.08
2922.08
2922.08
2922.08
2922.08
2922.08
2922.08
2922.08
2922.08
2922.08
2922.08
2922.08
2922.08
2922.08
2922.08
2922.08
2922.08
2922.08
2922.08
2922.08
2922.08
2922.08
2922.08
2922.08
2922.08
2922.08
2922.08
2922.08
2922.08
2922.08
2922.08
2922.08
2922.08
2922.08
2922.08
2922.08
2922.08
2922.08
2922.08
2922.08
2922.08
2922.08
2922.08
2922.08
2922.08
2922.08
2922.08
2922.08
2922.08
2922.08
2922.08
2922.08
2922.08
2922.08
2922.08
2922.08
2922.08
2922.08
2922.08
2922.08
2922.08
2922.08
2922.08
2922.08
2922.08
2922.08
2922.08
2922.08
2922.08
2922.08
2922.08
2922.08
2922.08
2922.08
2922.08
2922.08
2922.08
2922.08
2922.08
2922.08
2922.08
2922.08
2922.08
2922.08
2922.08
2922.08
2922.08
2922.08
2922.08
2922.08
2922.08
2922.08
2922.08
2922.08
2922.08
2922.08
2922.08
2922.08
2922.08
2922.08
2922.08
2922.08
2922.08
2922.08
2922.08
2922.07
2922.07
2922.07
2922.07
2922.07
2922.06
2922.06
2922.05
2922.05
2922.03
2922.02
2922
2921.98
2921.95
2921.92
2921.87
2921.81
2921.73
2921.64
2921.51
2921.36
2921.16
2920.91
2920.59
2920.2
2919.71
2919.1
2918.33
2917.39
2916.21
2914.76
2912.98
2910.78
2908.09
2904.79
2900.77
2895.87
2889.93
2882.74
2874.05
2863.6
2851.05
2836.05
2818.16
2796.91
2771.78
2742.18
2707.49
2667.04
2620.15
2566.14
2504.38
2434.3
2355.49
2267.7
2170.93
2065.48
1951.97
1831.4
1705.11
1574.73
1442.16
1309.42
1178.57
1051.55
930.117
815.716
709.454
612.068
523.933
445.103
375.36
314.272
261.258
215.637
176.682
143.655
115.839
92.5567
73.1866
57.1678
44.0039
33.2624
24.572
17.6185
12.1386
7.91396
4.7628
2.53092
1.08101
0.281022
-0.00883716
0.0514802
0.191907
0.315716
0.417227
0.49644
0.55749
0.603374
0.637231
0.661619
0.678267
0.68863
0.694036
0.695674
0.694491
0.691132
0.686061
0.679692
0.672415
0.664557
0.656343
0.64792
0.639392
0.630847
0.622354
0.613958
0.605691
0.597577
0.589642
0.581901
0.574357
0.567002
0.559823
0.552815
0.54598
0.53932
0.532836
0.526525
0.520376
0.51438
0.508527
0.50281
0.497221
0.491757
0.486413
0.481184
0.476066
0.471053
0.466141
0.461328
0.456609
0.451985
0.447452
0.443006
0.438644
0.434363
0.430158
0.426027
0.421966
0.417975
0.414049
0.410188
0.406389
0.40265
0.39897
0.395348
0.391781
0.388269
0.384812
0.381407
0.378053
0.374749
0.371493
0.368282
0.365116
0.361992
0.35891
0.355867
0.352863
0.349896
0.346966
0.344071
0.341212
0.338388
0.335598
0.332842
0.330119
0.32743
0.324773
0.322149
0.319555
0.316993
0.314461
0.311959
0.309485
0.30704
0.304623
0.302233
0.29987
0.297534
0.295222
0.292936
0.290673
0.288433
0.286215
0.284019
0.281843
0.279686
0.277549
0.27543
0.273329
0.271247
0.269182
0.267136
0.265108
0.263098
0.261106
0.259132
0.257175
0.255236
0.253314
0.251409
0.24952
0.247648
0.245792
0.243952
0.242129
0.240321
0.23853
0.236756
0.234997
0.233255
0.231528
0.229817
0.22812
0.226438
0.22477
0.223115
0.221473
0.219843
0.218224
0.216617
0.215021
0.213435
0.21186
0.210296
0.208742
0.207198
0.205665
0.204142
0.202629
0.201125
0.199632
0.198147
0.196672
0.195206
0.193748
0.192299
0.190858
0.189425
0.188
0.186583
0.185174
0.183773
0.18238
0.180994
0.179617
0.178248
0.176886
0.175533
0.174189
0.172852
0.171523
0.170203
0.16889
0.167585
0.166287
0.164996
0.163713
0.162436
0.161166
0.159902
0.158645
0.157393
0.156148
0.154909
0.153675
0.152448
0.151227
0.150013
0.148805
0.147603
0.146408
0.145221
0.14404
0.142866
0.141699
0.140539
0.139385
0.138238
0.137097
0.135961
0.134831
0.133705
0.132582
0.131464
0.130348
0.129235
0.128125
0.127018
0.125913
0.12481
0.123711
0.122616
0.121524
0.120438
0.119356
0.11828
0.117211
0.116147
0.11509
0.114039
0.112994
0.111955
0.11092
0.109889
0.108861
0.107835
0.106811
0.105788
0.104765
0.103743
0.10272
0.101699
0.100678
0.0996595
0.098644
0.0976325
0.0966262
0.0956261
0.0946329
0.0936473
0.0926694
0.0916991
0.0907358
0.0897788
0.0888268
0.0878786
0.0869327
0.0859877
0.085042
0.0840945
0.0831442
0.0821904
0.0812329
0.0802717
0.0793075
0.0783414
0.0773748
0.0764096
0.0754476
0.074491
0.0735415
0.0726006
0.071669
0.070747
0.0698341
0.0689292
0.0680307
0.0671366
0.0662449
0.065354
0.0644624
0.0635691
0.0626734
0.061775
0.0608739
0.0599698
0.0590625
0.0581518
0.0572375
0.0563202
0.055401
0.0544824
0.0535684
0.0525725
0.0518401
0.0507429
0.050128
0.0489802
0.0484318
0.0473837
0.0475172
0.045658
0.0450237
0.0437818
0.0433141
0.0420176
0.0416106
0.0402242
0.0398943
0.0384346
0.038192
0.0366828
0.0365167
0.0349677
0.0348439
0.0332689
0.0331451
0.0315772
0.0314104
0.0299013
0.029643
0.0282537
0.0278451
0.026638
0.0260113
0.0250483
0.0241351
0.0234764
0.0222178
0.021918
0.0202717
0.0203727
0.0183182
0.0188414
0.0163836
0.017322
0.0144939
0.0158068
0.0126694
0.0142809
0.0109227
0.0127242
0.00925835
0.0111158
0.00767485
0.00943869
0.00616635
0.00768308
0.00472358
0.00584838
0.00333441
0.00394339
0.00198467
0.00198575
0.000658511
)
;

boundaryField
{
    inlet
    {
        type            calculated;
        value           uniform -2922.08;
    }
    backWall
    {
        type            calculated;
        value           uniform 0;
    }
    sides
    {
        type            empty;
        value           nonuniform 0();
    }
}


// ************************************************************************* //
