/*--------------------------------*- C++ -*----------------------------------*\
| =========                 |                                                 |
| \\      /  F ield         | OpenFOAM: The Open Source CFD Toolbox           |
|  \\    /   O peration     | Version:  3.0.x                                 |
|   \\  /    A nd           | Web:      www.OpenFOAM.org                      |
|    \\/     M anipulation  |                                                 |
\*---------------------------------------------------------------------------*/
FoamFile
{
    version     2.0;
    format      ascii;
    class       surfaceScalarField;
    location    "0.9";
    object      phi;
}
// * * * * * * * * * * * * * * * * * * * * * * * * * * * * * * * * * * * * * //

dimensions      [1 0 -1 0 0 0 0];

internalField   nonuniform List<scalar> 
999
(
2523.38
2523.38
2523.38
2523.38
2523.38
2523.38
2523.38
2523.38
2523.38
2523.38
2523.38
2523.38
2523.38
2523.38
2523.38
2523.38
2523.38
2523.38
2523.38
2523.38
2523.38
2523.38
2523.38
2523.38
2523.38
2523.38
2523.38
2523.38
2523.38
2523.38
2523.38
2523.38
2523.38
2523.38
2523.38
2523.38
2523.38
2523.38
2523.38
2523.38
2523.38
2523.38
2523.38
2523.38
2523.38
2523.38
2523.38
2523.38
2523.38
2523.38
2523.38
2523.38
2523.38
2523.38
2523.38
2523.38
2523.38
2523.38
2523.38
2523.38
2523.38
2523.38
2523.38
2523.38
2523.38
2523.38
2523.38
2523.38
2523.38
2523.38
2523.38
2523.38
2523.38
2523.38
2523.38
2523.38
2523.38
2523.38
2523.38
2523.38
2523.38
2523.38
2523.38
2523.38
2523.38
2523.38
2523.38
2523.38
2523.38
2523.38
2523.38
2523.38
2523.38
2523.38
2523.38
2523.38
2523.38
2523.38
2523.38
2523.38
2523.38
2523.38
2523.38
2523.38
2523.38
2523.38
2523.38
2523.38
2523.38
2523.38
2523.38
2523.38
2523.38
2523.38
2523.38
2523.38
2523.38
2523.38
2523.38
2523.38
2523.38
2523.38
2523.38
2523.38
2523.38
2523.38
2523.38
2523.38
2523.38
2523.38
2523.38
2523.38
2523.38
2523.38
2523.38
2523.38
2523.38
2523.38
2523.38
2523.38
2523.38
2523.38
2523.38
2523.38
2523.38
2523.38
2523.38
2523.38
2523.38
2523.38
2523.38
2523.38
2523.38
2523.38
2523.38
2523.38
2523.38
2523.38
2523.38
2523.38
2523.38
2523.38
2523.38
2523.38
2523.38
2523.38
2523.38
2523.38
2523.38
2523.38
2523.38
2523.38
2523.38
2523.38
2523.38
2523.38
2523.38
2523.38
2523.38
2523.38
2523.38
2523.38
2523.38
2523.38
2523.38
2523.38
2523.38
2523.38
2523.38
2523.38
2523.38
2523.38
2523.38
2523.38
2523.38
2523.38
2523.38
2523.38
2523.38
2523.38
2523.38
2523.38
2523.38
2523.38
2523.38
2523.38
2523.38
2523.38
2523.38
2523.38
2523.38
2523.38
2523.38
2523.38
2523.38
2523.38
2523.38
2523.38
2523.38
2523.38
2523.38
2523.38
2523.38
2523.38
2523.38
2523.38
2523.38
2523.38
2523.38
2523.38
2523.38
2523.38
2523.38
2523.38
2523.38
2523.38
2523.38
2523.38
2523.38
2523.38
2523.38
2523.38
2523.38
2523.38
2523.38
2523.38
2523.38
2523.38
2523.38
2523.38
2523.38
2523.38
2523.38
2523.38
2523.38
2523.38
2523.38
2523.38
2523.38
2523.38
2523.38
2523.38
2523.38
2523.38
2523.38
2523.38
2523.38
2523.38
2523.38
2523.38
2523.38
2523.38
2523.38
2523.38
2523.38
2523.38
2523.38
2523.38
2523.38
2523.38
2523.38
2523.38
2523.38
2523.38
2523.38
2523.38
2523.38
2523.38
2523.38
2523.38
2523.38
2523.38
2523.38
2523.38
2523.38
2523.38
2523.38
2523.38
2523.38
2523.38
2523.38
2523.38
2523.38
2523.38
2523.38
2523.38
2523.38
2523.38
2523.38
2523.38
2523.38
2523.38
2523.38
2523.38
2523.38
2523.38
2523.38
2523.38
2523.38
2523.38
2523.38
2523.38
2523.38
2523.38
2523.38
2523.38
2523.38
2523.38
2523.38
2523.38
2523.38
2523.38
2523.38
2523.38
2523.38
2523.38
2523.38
2523.38
2523.38
2523.38
2523.38
2523.38
2523.38
2523.38
2523.38
2523.38
2523.38
2523.38
2523.38
2523.38
2523.38
2523.38
2523.38
2523.38
2523.38
2523.38
2523.38
2523.38
2523.38
2523.38
2523.38
2523.38
2523.38
2523.38
2523.38
2523.38
2523.38
2523.38
2523.38
2523.38
2523.38
2523.38
2523.38
2523.38
2523.38
2523.38
2523.38
2523.38
2523.38
2523.38
2523.38
2523.38
2523.38
2523.38
2523.38
2523.38
2523.38
2523.38
2523.38
2523.38
2523.38
2523.38
2523.38
2523.38
2523.38
2523.38
2523.38
2523.38
2523.38
2523.38
2523.38
2523.38
2523.38
2523.38
2523.38
2523.38
2523.38
2523.38
2523.38
2523.38
2523.38
2523.38
2523.38
2523.38
2523.38
2523.38
2523.38
2523.38
2523.38
2523.38
2523.38
2523.38
2523.38
2523.38
2523.38
2523.38
2523.38
2523.38
2523.38
2523.38
2523.38
2523.38
2523.38
2523.38
2523.38
2523.38
2523.38
2523.38
2523.38
2523.38
2523.38
2523.38
2523.38
2523.38
2523.38
2523.38
2523.38
2523.38
2523.38
2523.38
2523.38
2523.38
2523.38
2523.38
2523.38
2523.38
2523.38
2523.38
2523.38
2523.38
2523.38
2523.38
2523.38
2523.38
2523.38
2523.38
2523.38
2523.38
2523.38
2523.38
2523.38
2523.38
2523.38
2523.38
2523.38
2523.38
2523.38
2523.38
2523.38
2523.38
2523.38
2523.38
2523.38
2523.38
2523.38
2523.38
2523.38
2523.38
2523.38
2523.38
2523.38
2523.38
2523.38
2523.38
2523.38
2523.38
2523.38
2523.38
2523.38
2523.38
2523.38
2523.38
2523.38
2523.38
2523.38
2523.38
2523.38
2523.37
2523.37
2523.37
2523.36
2523.36
2523.35
2523.34
2523.34
2523.32
2523.31
2523.29
2523.27
2523.24
2523.21
2523.17
2523.12
2523.06
2522.98
2522.9
2522.79
2522.67
2522.52
2522.34
2522.13
2521.88
2521.59
2521.25
2520.84
2520.37
2519.82
2519.18
2518.43
2517.57
2516.58
2515.43
2514.12
2512.62
2510.9
2508.94
2506.72
2504.2
2501.36
2498.15
2494.53
2490.48
2485.95
2480.88
2475.24
2468.97
2462.03
2454.35
2445.88
2436.56
2426.33
2415.13
2402.9
2389.57
2375.09
2359.38
2342.4
2324.08
2304.37
2283.22
2260.59
2236.42
2210.7
2183.39
2154.47
2123.94
2091.8
2058.05
2022.72
1985.83
1947.44
1907.6
1866.37
1823.82
1780.04
1735.13
1689.19
1642.31
1594.63
1546.26
1497.31
1447.92
1398.21
1348.29
1298.3
1248.36
1198.57
1149.07
1099.94
1051.3
1003.24
955.862
909.247
863.476
818.625
774.762
731.953
690.253
649.716
610.387
572.307
535.512
500.032
465.891
433.109
401.7
371.672
343.029
315.771
289.891
265.378
242.216
220.386
199.864
180.621
162.625
145.841
130.23
115.751
102.361
90.0142
78.6628
68.2589
58.7532
50.0965
42.2394
35.1333
28.7306
22.9851
17.8527
13.2919
9.26396
5.73407
2.67345
0.0737297
-1.97588
-3.57056
-4.96321
-6.15153
-7.16401
-8.0258
-8.75731
-9.37517
-9.89367
-10.3257
-10.683
-10.9763
-11.2149
-11.4074
-11.5609
-11.6819
-11.7759
-11.8477
-11.9014
-11.9403
-11.9676
-11.9854
-11.996
-12.0009
-12.0015
-11.9988
-11.9938
-11.9872
-11.9795
-11.9712
-11.9626
-11.954
-11.9456
-11.9377
-11.9302
-11.9232
-11.9165
-11.9102
-11.904
-11.898
-11.8921
-11.8864
-11.8809
-11.8756
-11.8706
-11.8658
-11.8613
-11.8569
-11.8528
-11.8487
-11.8446
-11.8404
-11.8363
-11.8321
-11.828
-11.8239
-11.8199
-11.816
-11.8123
-11.8088
-11.8054
-11.8022
-11.7992
-11.7964
-11.7937
-11.7911
-11.7887
-11.7864
-11.7842
-11.7821
-11.7802
-11.7783
-11.7765
-11.7748
-11.7732
-11.7717
-11.7703
-11.769
-11.7679
-11.767
-11.7662
-11.7655
-11.765
-11.7646
-11.7644
-11.7641
-11.764
-11.7638
-11.7636
-11.7634
-11.7631
-11.7628
-11.7624
-11.7619
-11.7614
-11.7608
-11.7601
-11.7594
-11.7585
-11.7576
-11.7565
-11.7553
-11.754
-11.7527
-11.7512
-11.7498
-11.7482
-11.7467
-11.7452
-11.7437
-11.7422
-11.7408
-11.7395
-11.7382
-11.737
-11.7358
-11.7347
-11.7337
-11.7327
-11.7318
-11.7309
-11.73
-11.7293
-11.7286
-11.7279
-11.7273
-11.7268
-11.7264
-11.7261
-11.7258
-11.7257
-11.7257
-11.7257
-11.7259
-11.7262
-11.7265
-11.7269
-11.7274
-11.7278
-11.7283
-11.7288
-11.7292
-11.7296
-11.73
-11.7303
-11.7306
-11.7308
-11.7309
-11.7309
-11.7309
-11.7308
-11.7305
-11.7302
-11.7298
-11.7293
-11.7287
-11.728
-11.7273
-11.7265
-11.7257
-11.7248
-11.724
-11.7231
-11.7223
-11.7214
-11.7206
-11.7198
-11.719
-11.7183
-11.7176
-11.7169
-11.7162
-11.7156
-11.715
-11.7144
-11.7139
-11.7133
-11.7129
-11.7124
-11.712
-11.7117
-11.7114
-11.7112
-11.711
-11.7109
-11.7109
-11.711
-11.7111
-11.7113
-11.7116
-11.7119
-11.7123
-11.7127
-11.7131
-11.7136
-11.714
-11.7145
-11.7149
-11.7153
-11.7157
-11.716
-11.7163
-11.7165
-11.7167
-11.7168
-11.7168
-11.7168
-11.7167
-11.7165
-11.7163
-11.716
-11.7156
-11.7152
-11.7147
-11.7142
-11.7137
-11.7131
-11.7125
-11.712
-11.7114
-11.7108
-11.7103
-11.7098
-11.7093
-11.7088
-11.7083
-11.7079
-11.7075
-11.7072
-11.7068
-11.7065
-11.7062
-11.706
-11.7058
-11.7056
-11.7055
-11.7054
-11.7053
-11.7053
-11.7054
-11.7055
-11.7057
-11.7059
-11.7062
-11.7065
-11.7069
-11.7074
-11.7079
-11.7085
-11.7091
-11.7097
-11.7104
-11.7111
-11.7118
-11.7125
-11.7132
-11.7139
-11.7146
-11.7152
-11.7159
-11.7164
-11.717
-11.7175
-11.7179
-11.7183
-11.7186
-11.7189
-11.7191
-11.7192
-11.7193
-11.7193
-11.7193
-11.7193
-11.7192
-11.7191
-11.7189
-11.7188
-11.7186
-11.7184
-11.7182
-11.7179
-11.7177
-11.7175
-11.7173
-11.7171
-11.7168
-11.7166
-11.7163
-11.7161
-11.7158
-11.7155
-11.7152
-11.7149
-11.7146
-11.7143
-11.7139
-11.7135
-11.7131
-11.7127
-11.7123
-11.7119
-11.7115
-11.711
-11.7106
-11.7103
-11.7099
-11.7095
-11.7092
-11.709
-11.7087
-11.7085
-11.7084
-11.7083
-11.7082
-11.7082
-11.7082
-11.7083
-11.7084
-11.7086
-11.7088
-11.709
-11.7093
-11.7096
-11.7099
-11.7102
-11.7105
-11.7108
-11.7111
-11.7114
-11.7117
-11.7119
-11.7122
-11.7124
-11.7125
-11.7127
-11.7128
-11.7128
-11.7129
-11.7129
-11.7128
-11.7128
-11.7127
-11.7126
-11.7125
-11.7123
-11.7122
-11.7121
-11.7119
-11.7118
-11.7117
-11.7116
-11.7116
-11.7114
-11.7115
)
;

boundaryField
{
    inlet
    {
        type            calculated;
        value           uniform -2523.38;
    }
    backWall
    {
        type            calculated;
        value           uniform -11.7115;
    }
    sides
    {
        type            empty;
        value           nonuniform 0();
    }
}


// ************************************************************************* //
