/*--------------------------------*- C++ -*----------------------------------*\
| =========                 |                                                 |
| \\      /  F ield         | OpenFOAM: The Open Source CFD Toolbox           |
|  \\    /   O peration     | Version:  3.0.x                                 |
|   \\  /    A nd           | Web:      www.OpenFOAM.org                      |
|    \\/     M anipulation  |                                                 |
\*---------------------------------------------------------------------------*/
FoamFile
{
    version     2.0;
    format      ascii;
    class       surfaceScalarField;
    location    "0.15995";
    object      phi;
}
// * * * * * * * * * * * * * * * * * * * * * * * * * * * * * * * * * * * * * //

dimensions      [1 0 -1 0 0 0 0];

internalField   nonuniform List<scalar> 
26210
(
5.30138
0.000504168
5.30201
0.000346567
5.30265
0.000339411
5.30329
0.000341458
5.30394
0.000342033
5.30457
0.000341836
5.30519
0.000341841
5.3058
0.000341955
5.30639
0.000342025
5.30696
0.000341988
5.30752
0.000341994
5.30806
0.000341994
5.30856
0.000341993
5.30903
0.000341988
5.30944
0.000341983
5.3098
0.000341975
5.31011
0.000341959
5.31034
0.000341922
5.31051
0.000341838
5.31058
0.000341515
5.31056
0.000341324
5.31042
0.000341089
5.31017
0.000339632
5.30979
0.000338376
5.30928
0.000335876
5.30863
0.000332605
5.30784
0.000327924
5.30691
0.000321626
5.30583
0.000313442
5.3046
0.000303161
5.30324
0.00029065
5.30173
0.000275918
5.30009
0.000259046
5.29833
0.000240277
5.29645
0.00022002
5.29446
0.000198723
5.29237
0.00017691
5.2902
0.000155171
5.28795
0.000134007
5.28564
0.000113926
5.28329
9.53148e-05
5.2809
7.84548e-05
5.2785
6.35149e-05
5.27611
5.064e-05
5.27373
3.9775e-05
5.27139
3.06349e-05
5.26911
2.32203e-05
5.2669
1.73307e-05
5.26478
1.27337e-05
5.26277
9.20758e-06
5.26088
6.55447e-06
5.25913
4.57537e-06
5.25752
3.1427e-06
5.25607
2.10354e-06
5.25479
1.36828e-06
5.25367
8.50596e-07
5.25272
4.88599e-07
5.25195
2.36139e-07
5.25134
5.96519e-08
5.25089
-6.47906e-08
5.2506
-1.52782e-07
5.25046
-2.19134e-07
5.25047
-2.67928e-07
5.25061
-3.03002e-07
5.25086
-3.28617e-07
5.25122
-3.46947e-07
5.25166
-3.57824e-07
5.25218
-3.61153e-07
5.25276
-3.58434e-07
5.25338
-3.51059e-07
5.25403
-3.38287e-07
5.2547
-3.2044e-07
5.25537
-2.9822e-07
5.25603
-2.73538e-07
5.25667
-2.45791e-07
5.25729
-2.14892e-07
5.25788
-1.83465e-07
5.25843
-1.50891e-07
5.25894
-1.17223e-07
5.25941
-8.49177e-08
5.25984
-5.2647e-08
5.26022
-2.15387e-08
5.26056
7.47787e-09
5.26086
3.51502e-08
5.26112
6.03086e-08
5.26135
8.31624e-08
5.26155
1.04008e-07
5.26172
1.22123e-07
5.26186
1.38059e-07
5.26198
1.5162e-07
5.26209
1.62567e-07
5.26217
1.72067e-07
5.26225
1.80456e-07
5.26232
1.87614e-07
5.26238
1.93142e-07
5.26244
1.96496e-07
5.26249
1.98159e-07
5.26254
1.98914e-07
5.26259
1.99365e-07
5.26264
2.00105e-07
5.2627
2.01144e-07
5.26275
2.02162e-07
5.2628
2.02983e-07
5.26286
2.03408e-07
5.26291
2.03407e-07
5.26297
2.03265e-07
5.26303
2.03052e-07
5.26309
2.02916e-07
5.26315
2.03019e-07
5.26321
2.03203e-07
5.26327
2.0355e-07
5.26333
2.0396e-07
5.26339
2.04473e-07
5.26345
2.05129e-07
5.26351
2.0593e-07
5.26357
2.06923e-07
5.26363
2.08136e-07
5.26368
2.09555e-07
5.26373
2.11156e-07
5.26378
2.12918e-07
5.26383
2.14772e-07
5.26388
2.16625e-07
5.26392
2.18433e-07
5.26397
2.20189e-07
5.26401
2.21889e-07
5.26404
2.23532e-07
5.26408
2.25089e-07
5.26411
2.26535e-07
5.26415
2.28041e-07
5.26418
2.29031e-07
5.26421
2.29988e-07
5.26423
2.33085e-07
5.26426
2.32067e-07
5.26429
2.34373e-07
5.26431
2.33802e-07
5.26434
2.36883e-07
5.26436
2.37136e-07
5.26439
2.33907e-07
5.26441
2.32645e-07
5.26444
2.33238e-07
5.26446
2.36485e-07
5.26449
2.39794e-07
5.26452
2.41802e-07
5.26455
2.42431e-07
5.26458
2.42007e-07
5.26461
2.41285e-07
5.26464
2.4184e-07
5.26468
2.41433e-07
5.26471
2.40721e-07
5.26475
2.40199e-07
5.26479
2.40134e-07
5.26483
2.40401e-07
5.26487
2.40616e-07
5.26492
2.40658e-07
5.26496
2.40607e-07
5.265
2.4052e-07
5.26505
2.40465e-07
5.2651
2.40476e-07
5.26514
2.40565e-07
5.26519
2.40731e-07
5.26523
2.40971e-07
5.26528
2.41271e-07
5.26532
2.41642e-07
5.26536
2.42102e-07
5.2654
2.42684e-07
5.26543
2.43437e-07
5.26546
2.44405e-07
5.26549
2.45662e-07
5.26552
2.47266e-07
5.26554
2.49294e-07
5.26555
2.51837e-07
5.26556
2.54975e-07
5.26557
2.59048e-07
5.26557
2.63031e-07
5.26556
2.69285e-07
5.26555
2.75904e-07
5.26553
2.83944e-07
5.26551
2.93589e-07
5.26548
3.0495e-07
5.26544
3.1833e-07
5.26539
3.33763e-07
5.26533
3.5172e-07
5.26526
3.71463e-07
5.26518
3.9426e-07
5.26508
4.18533e-07
5.26498
4.45565e-07
5.26486
4.75495e-07
5.26472
5.10336e-07
5.26457
5.6329e-07
5.26441
6.97863e-07
5.26423
1.21334e-06
5.26403
3.5692e-06
5.2638
1.47727e-05
5.26349
6.85321e-05
5.26291
0.000326591
5.26108
0.00156028
5.25337
0.00741705
5.21802
0.0350316
5.03823
0.179452
0.68094
4.35694
7.49808
0.000460463
7.49948
0.000329745
7.50089
0.000314268
7.5023
0.000318665
7.50372
0.000319347
7.50512
0.000319088
7.5065
0.000319123
7.50787
0.000319263
7.50921
0.000319359
7.51053
0.00031936
7.51182
0.000319394
7.51308
0.000319427
7.5143
0.000319456
7.51546
0.000319483
7.51655
0.000319509
7.51757
0.000319533
7.5185
0.000319549
7.51934
0.000319545
7.52008
0.000319495
7.52069
0.000319229
7.52116
0.000319081
7.52147
0.000318831
7.52162
0.000317572
7.52158
0.000316368
7.52135
0.000314052
7.52093
0.000310989
7.52029
0.000306606
7.51945
0.000300696
7.51838
0.000293015
7.5171
0.000283354
7.51559
0.000271607
7.51387
0.00025778
7.51194
0.000241946
7.5098
0.000224331
7.50746
0.000205333
7.50494
0.000185401
7.50225
0.000164962
7.4994
0.000144628
7.49642
0.000124839
7.49333
0.000106079
7.49014
8.87032e-05
7.48688
7.29749e-05
7.48358
5.90488e-05
7.48027
4.70548e-05
7.47696
3.69389e-05
7.4737
2.84405e-05
7.47051
2.15453e-05
7.46741
1.60728e-05
7.46443
1.18043e-05
7.4616
8.53205e-06
7.45894
6.07069e-06
7.45647
4.23707e-06
7.4542
2.90876e-06
7.45215
1.94611e-06
7.45033
1.26513e-06
7.44875
7.86011e-07
7.44741
4.50987e-07
7.44631
2.17295e-07
7.44545
5.37821e-08
7.44482
-6.14509e-08
7.44441
-1.43005e-07
7.44421
-2.04493e-07
7.44422
-2.49824e-07
7.44441
-2.82469e-07
7.44477
-3.06303e-07
7.44528
-3.23347e-07
7.44591
-3.33459e-07
7.44664
-3.36544e-07
7.44746
-3.34037e-07
7.44833
-3.27133e-07
7.44925
-3.15249e-07
7.45019
-2.98589e-07
7.45114
-2.77862e-07
7.45207
-2.54817e-07
7.45298
-2.28942e-07
7.45386
-2.00129e-07
7.45469
-1.70776e-07
7.45546
-1.40399e-07
7.45619
-1.09016e-07
7.45685
-7.88186e-08
7.45745
-4.8758e-08
7.45799
-1.97288e-08
7.45847
7.37236e-09
7.4589
3.31602e-08
7.45927
5.66615e-08
7.45959
7.79764e-08
7.45986
9.74196e-08
7.4601
1.14343e-07
7.4603
1.29192e-07
7.46047
1.41848e-07
7.46062
1.52098e-07
7.46075
1.60955e-07
7.46086
1.68809e-07
7.46095
1.75498e-07
7.46104
1.80664e-07
7.46112
1.83818e-07
7.46119
1.85391e-07
7.46127
1.86126e-07
7.46134
1.86585e-07
7.46141
1.87298e-07
7.46148
1.8828e-07
7.46155
1.89239e-07
7.46163
1.90004e-07
7.46171
1.90392e-07
7.46179
1.90394e-07
7.46187
1.90246e-07
7.46195
1.90033e-07
7.46203
1.89904e-07
7.46212
1.8997e-07
7.46221
1.90135e-07
7.46229
1.90435e-07
7.46238
1.90807e-07
7.46246
1.91267e-07
7.46255
1.91862e-07
7.46263
1.92602e-07
7.46271
1.93513e-07
7.46279
1.94636e-07
7.46286
1.95952e-07
7.46294
1.97435e-07
7.46301
1.99079e-07
7.46308
2.008e-07
7.46314
2.02526e-07
7.46321
2.04211e-07
7.46326
2.05851e-07
7.46332
2.07434e-07
7.46337
2.08962e-07
7.46342
2.1041e-07
7.46347
2.11765e-07
7.46352
2.13151e-07
7.46356
2.14117e-07
7.4636
2.15008e-07
7.46364
2.17795e-07
7.46368
2.16991e-07
7.46371
2.18894e-07
7.46375
2.18884e-07
7.46378
2.21518e-07
7.46382
2.21815e-07
7.46385
2.1885e-07
7.46389
2.17708e-07
7.46392
2.1835e-07
7.46396
2.21344e-07
7.464
2.24423e-07
7.46404
2.26277e-07
7.46408
2.26848e-07
7.46412
2.2645e-07
7.46416
2.25791e-07
7.46421
2.26257e-07
7.46426
2.25918e-07
7.46431
2.25209e-07
7.46436
2.24696e-07
7.46442
2.24618e-07
7.46447
2.24851e-07
7.46453
2.25025e-07
7.46459
2.25044e-07
7.46466
2.24985e-07
7.46472
2.24896e-07
7.46478
2.24827e-07
7.46485
2.24829e-07
7.46491
2.24902e-07
7.46498
2.25053e-07
7.46504
2.25275e-07
7.4651
2.25546e-07
7.46516
2.25891e-07
7.46522
2.26317e-07
7.46527
2.26863e-07
7.46532
2.27568e-07
7.46536
2.28481e-07
7.4654
2.2966e-07
7.46544
2.31172e-07
7.46547
2.33069e-07
7.46549
2.3545e-07
7.4655
2.38389e-07
7.46551
2.4218e-07
7.46551
2.45933e-07
7.4655
2.51715e-07
7.46548
2.57976e-07
7.46546
2.6542e-07
7.46542
2.74464e-07
7.46538
2.85041e-07
7.46532
2.97567e-07
7.46525
3.11862e-07
7.46517
3.28922e-07
7.46507
3.46869e-07
7.46496
3.68775e-07
7.46482
3.9099e-07
7.46467
4.16589e-07
7.4645
4.46178e-07
7.46431
4.84755e-07
7.4641
5.64454e-07
7.46387
8.3835e-07
7.46361
2.0286e-06
7.46333
7.65217e-06
7.463
3.45984e-05
7.46257
0.000164107
7.46175
0.000786029
7.45917
0.00375999
7.44827
0.0178935
7.39835
0.0845023
7.15074
0.426584
1.57422
6.25696
10.6039
0.000402352
10.6059
0.000302958
10.6079
0.000279713
10.6099
0.000286054
10.6119
0.000286951
10.6138
0.0002866
10.6158
0.000286631
10.6177
0.000286765
10.6196
0.000286852
10.6215
0.000286859
10.6233
0.00028689
10.6251
0.000286921
10.6268
0.000286949
10.6285
0.000286974
10.63
0.000286997
10.6315
0.000287019
10.6328
0.000287034
10.634
0.000287032
10.635
0.000286987
10.6359
0.000286758
10.6365
0.000286632
10.637
0.000286353
10.6372
0.000285321
10.6371
0.000284198
10.6368
0.000282148
10.6362
0.000279414
10.6353
0.000275506
10.6341
0.000270228
10.6326
0.000263373
10.6308
0.000254731
10.6287
0.000244228
10.6262
0.000231862
10.6235
0.000217686
10.6205
0.000201895
10.6172
0.000184852
10.6136
0.000167007
10.6098
0.00014864
10.6058
0.000130382
10.6016
0.000112594
10.5972
9.57216e-05
10.5927
8.00838e-05
10.5881
6.59196e-05
10.5834
5.33709e-05
10.5787
4.25535e-05
10.574
3.34218e-05
10.5694
2.57526e-05
10.5649
1.952e-05
10.5605
1.45706e-05
10.5563
1.07079e-05
10.5523
7.74458e-06
10.5485
5.51343e-06
10.545
3.85173e-06
10.5418
2.64585e-06
10.5389
1.77164e-06
10.5364
1.15277e-06
10.5341
7.17448e-07
10.5322
4.12935e-07
10.5307
2.00391e-07
10.5295
5.15111e-08
10.5286
-5.28566e-08
10.528
-1.27095e-07
10.5277
-1.82761e-07
10.5277
-2.23808e-07
10.528
-2.53394e-07
10.5285
-2.74921e-07
10.5292
-2.90296e-07
10.5301
-2.99394e-07
10.5312
-3.02183e-07
10.5323
-2.9998e-07
10.5335
-2.93764e-07
10.5348
-2.83121e-07
10.5362
-2.68154e-07
10.5375
-2.49539e-07
10.5388
-2.28836e-07
10.5401
-2.0561e-07
10.5414
-1.79751e-07
10.5425
-1.53358e-07
10.5436
-1.26086e-07
10.5447
-9.7938e-08
10.5456
-7.07632e-08
10.5464
-4.38113e-08
10.5472
-1.77492e-08
10.5479
6.65932e-09
10.5485
2.97646e-08
10.549
5.08899e-08
10.5495
7.00293e-08
10.5499
8.74825e-08
10.5502
1.027e-07
10.5505
1.16022e-07
10.5507
1.27383e-07
10.5509
1.36624e-07
10.5511
1.44555e-07
10.5513
1.51627e-07
10.5514
1.5762e-07
10.5515
1.62244e-07
10.5516
1.6509e-07
10.5517
1.66511e-07
10.5518
1.67178e-07
10.5519
1.676e-07
10.552
1.68237e-07
10.5521
1.69115e-07
10.5522
1.69979e-07
10.5523
1.70657e-07
10.5525
1.71006e-07
10.5526
1.71015e-07
10.5527
1.70881e-07
10.5528
1.70697e-07
10.5529
1.70583e-07
10.553
1.70636e-07
10.5532
1.70791e-07
10.5533
1.71054e-07
10.5534
1.7139e-07
10.5535
1.71804e-07
10.5536
1.72338e-07
10.5538
1.73005e-07
10.5539
1.73826e-07
10.554
1.74835e-07
10.5541
1.76019e-07
10.5542
1.77349e-07
10.5543
1.78824e-07
10.5544
1.80369e-07
10.5545
1.81918e-07
10.5546
1.83433e-07
10.5547
1.84907e-07
10.5547
1.86327e-07
10.5548
1.87699e-07
10.5549
1.89002e-07
10.555
1.90221e-07
10.555
1.91451e-07
10.5551
1.9236e-07
10.5551
1.93152e-07
10.5552
1.95549e-07
10.5552
1.9502e-07
10.5553
1.96389e-07
10.5553
1.96856e-07
10.5554
1.98917e-07
10.5554
1.99225e-07
10.5555
1.96588e-07
10.5555
1.95557e-07
10.5556
1.96189e-07
10.5556
1.98818e-07
10.5557
2.01577e-07
10.5558
2.0323e-07
10.5558
2.03745e-07
10.5559
2.03402e-07
10.5559
2.02836e-07
10.556
2.03208e-07
10.5561
2.02962e-07
10.5561
2.02301e-07
10.5562
2.01831e-07
10.5563
2.01771e-07
10.5564
2.01974e-07
10.5565
2.02129e-07
10.5565
2.02144e-07
10.5566
2.02092e-07
10.5567
2.02014e-07
10.5568
2.01953e-07
10.5569
2.01955e-07
10.557
2.02021e-07
10.5571
2.02154e-07
10.5572
2.02354e-07
10.5573
2.02599e-07
10.5573
2.02905e-07
10.5574
2.0329e-07
10.5575
2.03779e-07
10.5576
2.04414e-07
10.5576
2.05232e-07
10.5577
2.06287e-07
10.5577
2.07645e-07
10.5578
2.09349e-07
10.5578
2.11489e-07
10.5578
2.1414e-07
10.5578
2.17517e-07
10.5578
2.20935e-07
10.5578
2.26044e-07
10.5578
2.31774e-07
10.5578
2.3838e-07
10.5577
2.46562e-07
10.5577
2.56025e-07
10.5576
2.67315e-07
10.5575
2.79997e-07
10.5574
2.95763e-07
10.5572
3.11152e-07
10.5571
3.31755e-07
10.5569
3.51051e-07
10.5566
3.74576e-07
10.5564
4.03608e-07
10.5561
4.47209e-07
10.5558
5.63687e-07
10.5555
1.02966e-06
10.5551
3.15085e-06
10.5547
1.32821e-05
10.5543
6.19464e-05
10.5537
0.000295966
10.5525
0.00142001
10.549
0.00679645
10.5339
0.0323645
10.4651
0.152683
10.1295
0.761525
2.75083
8.95215
46.8078
0.000185672
46.8166
0.000159057
46.8253
0.000138257
46.8341
0.000142307
46.843
0.000143844
46.8517
0.000143466
46.8604
0.000143389
46.8689
0.000143444
46.8772
0.000143472
46.8855
0.000143469
46.8936
0.000143475
46.9015
0.000143485
46.9091
0.000143494
46.9163
0.000143504
46.9231
0.000143512
46.9295
0.000143521
46.9353
0.000143529
46.9406
0.000143528
46.9451
0.000143506
46.949
0.000143402
46.9519
0.000143347
46.9539
0.000143154
46.9548
0.000142748
46.9546
0.000142147
46.9531
0.000141165
46.9505
0.000139825
46.9465
0.000137915
46.9412
0.000135323
46.9346
0.000131955
46.9266
0.000127685
46.9172
0.000122496
46.9065
0.00011638
46.8944
0.000109342
46.881
0.000101482
46.8664
9.29112e-05
46.8507
8.41831e-05
46.8339
7.49221e-05
46.8161
6.57765e-05
46.7975
5.68569e-05
46.7782
4.83846e-05
46.7583
4.05192e-05
46.738
3.33862e-05
46.7174
2.70591e-05
46.6967
2.15946e-05
46.6761
1.69729e-05
46.6557
1.30961e-05
46.6358
9.93512e-06
46.6164
7.42254e-06
46.5978
5.46012e-06
46.5801
3.95275e-06
46.5635
2.81601e-06
46.5481
1.97012e-06
46.5339
1.35437e-06
46.5211
9.07929e-07
46.5098
5.90933e-07
46.4999
3.68406e-07
46.4916
2.13022e-07
46.4847
1.0443e-07
46.4793
2.85379e-08
46.4754
-2.47537e-08
46.4728
-6.24477e-08
46.4716
-9.05143e-08
46.4716
-1.11341e-07
46.4728
-1.26392e-07
46.4751
-1.37322e-07
46.4782
-1.45017e-07
46.4822
-1.49564e-07
46.4867
-1.51e-07
46.4918
-1.49953e-07
46.4973
-1.46818e-07
46.503
-1.41555e-07
46.5089
-1.3405e-07
46.5148
-1.24754e-07
46.5206
-1.14383e-07
46.5263
-1.02778e-07
46.5318
-8.98799e-08
46.537
-7.66388e-08
46.5418
-6.30059e-08
46.5463
-4.89752e-08
46.5505
-3.52986e-08
46.5542
-2.18195e-08
46.5576
-8.87962e-09
46.5606
3.06613e-09
46.5633
1.49587e-08
46.5656
2.54693e-08
46.5676
3.50246e-08
46.5693
4.37251e-08
46.5708
5.1368e-08
46.572
5.80012e-08
46.5731
6.3688e-08
46.574
6.83192e-08
46.5748
7.22746e-08
46.5755
7.58055e-08
46.5761
7.88143e-08
46.5766
8.11087e-08
46.5771
8.25473e-08
46.5776
8.32561e-08
46.578
8.35848e-08
46.5785
8.38129e-08
46.5789
8.4123e-08
46.5794
8.45553e-08
46.5798
8.49936e-08
46.5803
8.53213e-08
46.5808
8.54964e-08
46.5813
8.55098e-08
46.5818
8.5435e-08
46.5823
8.53472e-08
46.5828
8.52931e-08
46.5834
8.5314e-08
46.5839
8.53981e-08
46.5845
8.55243e-08
46.585
8.56951e-08
46.5855
8.59027e-08
46.586
8.61676e-08
46.5866
8.65043e-08
46.5871
8.69145e-08
46.5876
8.74195e-08
46.588
8.80091e-08
46.5885
8.86746e-08
46.5889
8.94117e-08
46.5894
9.01823e-08
46.5898
9.09567e-08
46.5902
9.17139e-08
46.5905
9.24504e-08
46.5909
9.31586e-08
46.5912
9.38428e-08
46.5915
9.44926e-08
46.5918
9.51029e-08
46.5921
9.56964e-08
46.5924
9.61709e-08
46.5926
9.6557e-08
46.5929
9.76722e-08
46.5931
9.7632e-08
46.5933
9.79783e-08
46.5936
9.86327e-08
46.5938
9.94257e-08
46.594
9.96013e-08
46.5942
9.8338e-08
46.5944
9.77921e-08
46.5946
9.81636e-08
46.5949
9.94053e-08
46.5951
1.00782e-07
46.5953
1.01604e-07
46.5956
1.01864e-07
46.5959
1.01707e-07
46.5961
1.01446e-07
46.5964
1.01569e-07
46.5967
1.01501e-07
46.597
1.01161e-07
46.5974
1.00923e-07
46.5977
1.00899e-07
46.5981
1.00991e-07
46.5984
1.01066e-07
46.5988
1.01074e-07
46.5992
1.01048e-07
46.5996
1.01011e-07
46.6
1.0098e-07
46.6004
1.0098e-07
46.6008
1.01013e-07
46.6012
1.01079e-07
46.6016
1.01178e-07
46.602
1.013e-07
46.6024
1.01452e-07
46.6027
1.01645e-07
46.603
1.0189e-07
46.6034
1.02206e-07
46.6036
1.02618e-07
46.6039
1.03144e-07
46.6041
1.03826e-07
46.6043
1.04673e-07
46.6044
1.05744e-07
46.6045
1.07092e-07
46.6045
1.08723e-07
46.6045
1.10544e-07
46.6045
1.12931e-07
46.6044
1.15965e-07
46.6042
1.19128e-07
46.604
1.23287e-07
46.6037
1.28008e-07
46.6034
1.33761e-07
46.6029
1.39456e-07
46.6024
1.49016e-07
46.6018
1.54101e-07
46.6011
1.6754e-07
46.6002
1.75419e-07
46.5993
1.88504e-07
46.5982
2.14816e-07
46.5971
2.76448e-07
46.5957
5.35207e-07
46.5943
1.75079e-06
46.5927
7.50964e-06
46.5909
3.526e-05
46.5889
0.000168858
46.5863
0.000811746
46.5816
0.00390171
46.5673
0.0186854
46.5082
0.0887939
46.2448
0.413335
45.1335
1.86979
6.5765
41.3048
46.8078
4.54747e-13
46.8165
2.27374e-13
46.8253
6.82121e-13
46.8341
4.54747e-13
46.843
0
46.8517
-1.36424e-12
46.8604
-1.59162e-12
46.8689
-1.13687e-12
46.8772
2.27374e-13
46.8855
0
46.8936
2.27374e-13
46.9014
-6.82121e-13
46.909
9.09495e-13
46.9163
2.72848e-12
46.9231
-4.54747e-13
46.9295
0
46.9353
-2.27374e-13
46.9405
6.82121e-13
46.9451
1.13687e-12
46.9489
4.54747e-13
46.9519
9.09495e-13
46.9539
2.04636e-12
46.9548
4.54747e-13
46.9545
-9.09495e-13
46.9531
2.27374e-13
46.9505
1.36424e-12
46.9465
2.95586e-12
46.9412
0
46.9346
1.81899e-12
46.9266
1.13687e-12
46.9172
-4.54747e-13
46.9064
2.27374e-13
46.8944
9.09495e-13
46.881
-6.82121e-13
46.8664
1.36424e-12
46.8507
4.54747e-13
46.8339
9.09495e-13
46.8161
0
46.7975
1.36424e-12
46.7782
-2.27374e-13
46.7583
-1.59162e-12
46.738
-2.27374e-12
46.7174
-1.59162e-12
46.6967
-6.82121e-13
46.6761
9.09495e-13
46.6557
1.81899e-12
46.6358
0
46.6164
-1.36424e-12
46.5978
1.13687e-12
46.5801
2.50111e-12
46.5635
2.04636e-12
46.5481
2.27374e-13
46.5339
-1.81899e-12
46.5211
-3.18323e-12
46.5098
-9.09495e-13
46.4999
0
46.4916
9.09495e-13
46.4847
1.81899e-12
46.4793
9.09495e-13
46.4754
2.04636e-12
46.4728
-2.27374e-13
46.4716
-4.54747e-13
46.4716
-6.82121e-13
46.4728
6.82121e-13
46.4751
-6.82121e-13
46.4782
-2.27374e-13
46.4822
-4.54747e-13
46.4867
-4.54747e-13
46.4918
-1.13687e-12
46.4973
0
46.503
1.81899e-12
46.5089
4.54747e-13
46.5148
-6.82121e-13
46.5206
0
46.5263
0
46.5318
2.27374e-13
46.537
2.27374e-13
46.5418
-2.04636e-12
46.5463
-1.13687e-12
46.5505
-9.09495e-13
46.5542
6.82121e-13
46.5576
1.81899e-12
46.5606
4.54747e-13
46.5633
-2.27374e-13
46.5656
0
46.5676
-6.82121e-13
46.5693
6.82121e-13
46.5708
1.81899e-12
46.572
9.09495e-13
46.5731
0
46.574
-9.09495e-13
46.5748
-4.54747e-13
46.5755
0
46.5761
9.09495e-13
46.5766
4.54747e-13
46.5771
1.81899e-12
46.5776
4.54747e-13
46.578
-4.54747e-13
46.5785
2.27374e-13
46.5789
1.81899e-12
46.5794
2.27374e-13
46.5798
9.09495e-13
46.5803
-4.54747e-13
46.5808
-2.27374e-13
46.5813
-6.82121e-13
46.5818
-1.36424e-12
46.5823
-9.09495e-13
46.5828
2.27374e-13
46.5834
-1.59162e-12
46.5839
-2.27374e-13
46.5845
4.54747e-13
46.585
1.36424e-12
46.5855
-2.27374e-13
46.586
-1.59162e-12
46.5866
-1.13687e-12
46.5871
-2.27374e-12
46.5876
-4.54747e-13
46.588
-6.82121e-13
46.5885
-1.81899e-12
46.5889
6.82121e-13
46.5894
-2.27374e-13
46.5898
2.27374e-13
46.5902
-1.13687e-12
46.5905
-2.27374e-13
46.5909
-4.54747e-13
46.5912
-2.27374e-13
46.5915
-1.13687e-12
46.5918
6.82121e-13
46.5921
1.13687e-12
46.5924
4.54747e-13
46.5926
-6.82121e-13
46.5929
-2.50111e-12
46.5931
-2.50111e-12
46.5933
-9.09495e-13
46.5936
-1.13687e-12
46.5938
2.27374e-13
46.594
-6.82121e-13
46.5942
1.59162e-12
46.5944
1.81899e-12
46.5946
4.54747e-13
46.5949
-1.36424e-12
46.5951
2.04636e-12
46.5953
4.54747e-13
46.5956
-4.54747e-13
46.5959
0
46.5961
4.54747e-13
46.5964
0
46.5967
4.54747e-13
46.597
-2.27374e-13
46.5974
0
46.5977
4.54747e-13
46.5981
-2.27374e-13
46.5984
-1.13687e-12
46.5988
-2.04636e-12
46.5992
-1.36424e-12
46.5996
1.59162e-12
46.6
2.27374e-13
46.6004
-4.54747e-13
46.6008
6.82121e-13
46.6012
1.36424e-12
46.6016
6.82121e-13
46.602
-4.54747e-13
46.6024
0
46.6027
-1.13687e-12
46.603
1.81899e-12
46.6034
-9.09495e-13
46.6036
5.22959e-12
46.6039
-4.09273e-12
46.6041
7.95808e-12
46.6043
-5.68434e-12
46.6044
-8.6402e-12
46.6045
3.81988e-11
46.6045
-8.34461e-11
46.6045
1.59844e-10
46.6045
-2.49884e-10
46.6044
3.15822e-10
46.6042
-3.31056e-10
46.604
3.07182e-10
46.6037
-3.16277e-10
46.6034
6.46651e-10
46.6029
-1.50976e-09
46.6024
2.7751e-09
46.6018
-3.8508e-09
46.6011
3.54134e-09
46.6002
-1.1421e-09
46.5993
3.61274e-09
46.5982
1.81908e-08
46.5971
8.0079e-08
46.5957
3.86326e-07
46.5943
1.87279e-06
46.5927
9.0125e-06
46.5909
4.34558e-05
46.589
0.000209475
46.5867
0.0010096
46.5835
0.00486565
46.5763
0.0234217
46.5501
0.112379
46.4283
0.532418
45.8372
2.45796
8.76684
43.6437
46.8078
-0.000185672
46.8165
-0.000159057
46.8253
-0.000138257
46.8341
-0.000142307
46.843
-0.000143844
46.8517
-0.000143466
46.8604
-0.000143389
46.8689
-0.000143444
46.8772
-0.000143472
46.8855
-0.000143469
46.8936
-0.000143475
46.9014
-0.000143485
46.909
-0.000143494
46.9163
-0.000143504
46.9231
-0.000143512
46.9295
-0.000143521
46.9353
-0.000143529
46.9405
-0.000143528
46.9451
-0.000143506
46.9489
-0.000143402
46.9519
-0.000143347
46.9539
-0.000143154
46.9548
-0.000142748
46.9545
-0.000142147
46.9531
-0.000141165
46.9505
-0.000139825
46.9465
-0.000137915
46.9412
-0.000135323
46.9346
-0.000131955
46.9266
-0.000127685
46.9172
-0.000122496
46.9064
-0.00011638
46.8944
-0.000109342
46.881
-0.000101482
46.8664
-9.29112e-05
46.8507
-8.41831e-05
46.8339
-7.49221e-05
46.8161
-6.57765e-05
46.7975
-5.68569e-05
46.7782
-4.83846e-05
46.7583
-4.05192e-05
46.738
-3.33862e-05
46.7174
-2.70591e-05
46.6967
-2.15946e-05
46.6761
-1.69729e-05
46.6557
-1.30961e-05
46.6358
-9.93512e-06
46.6164
-7.42254e-06
46.5978
-5.46012e-06
46.5801
-3.95274e-06
46.5635
-2.81601e-06
46.5481
-1.97012e-06
46.5339
-1.35437e-06
46.5211
-9.07937e-07
46.5098
-5.90935e-07
46.4999
-3.68405e-07
46.4916
-2.13019e-07
46.4847
-1.04427e-07
46.4793
-2.85347e-08
46.4754
2.47576e-08
46.4728
6.24473e-08
46.4716
9.05125e-08
46.4716
1.11339e-07
46.4728
1.26394e-07
46.4751
1.37321e-07
46.4782
1.45015e-07
46.4822
1.49564e-07
46.4867
1.51001e-07
46.4918
1.49951e-07
46.4973
1.46819e-07
46.503
1.41558e-07
46.5089
1.34051e-07
46.5148
1.24752e-07
46.5206
1.14381e-07
46.5263
1.0278e-07
46.5318
8.98806e-08
46.537
7.66397e-08
46.5418
6.30005e-08
46.5463
4.89733e-08
46.5505
3.52977e-08
46.5542
2.18215e-08
46.5576
8.88281e-09
46.5606
-3.06454e-09
46.5633
-1.49607e-08
46.5656
-2.54693e-08
46.5676
-3.50233e-08
46.5693
-4.37246e-08
46.5708
-5.13633e-08
46.572
-5.79996e-08
46.5731
-6.36892e-08
46.574
-6.83219e-08
46.5748
-7.22746e-08
46.5755
-7.58057e-08
46.5761
-7.88111e-08
46.5766
-8.11067e-08
46.5771
-8.25432e-08
46.5776
-8.32545e-08
46.578
-8.35851e-08
46.5785
-8.38138e-08
46.5789
-8.41196e-08
46.5794
-8.45541e-08
46.5798
-8.4993e-08
46.5803
-8.53229e-08
46.5808
-8.54977e-08
46.5813
-8.55125e-08
46.5818
-8.54373e-08
46.5823
-8.5349e-08
46.5828
-8.52917e-08
46.5834
-8.53177e-08
46.5839
-8.53979e-08
46.5845
-8.55241e-08
46.585
-8.5694e-08
46.5855
-8.59034e-08
46.586
-8.61698e-08
46.5866
-8.6503e-08
46.5871
-8.69181e-08
46.5876
-8.74211e-08
46.588
-8.80116e-08
46.5885
-8.86787e-08
46.5889
-8.94122e-08
46.5894
-9.01837e-08
46.5898
-9.09579e-08
46.5902
-9.17148e-08
46.5905
-9.24497e-08
46.5909
-9.31595e-08
46.5912
-9.38448e-08
46.5915
-9.44958e-08
46.5918
-9.51015e-08
46.5921
-9.56948e-08
46.5924
-9.61686e-08
46.5926
-9.65563e-08
46.5929
-9.76763e-08
46.5931
-9.76365e-08
46.5933
-9.79799e-08
46.5936
-9.86349e-08
46.5938
-9.94257e-08
46.594
-9.96015e-08
46.5942
-9.83364e-08
46.5944
-9.7788e-08
46.5946
-9.81624e-08
46.5949
-9.94094e-08
46.5951
-1.00778e-07
46.5953
-1.01603e-07
46.5956
-1.01865e-07
46.5959
-1.01708e-07
46.5961
-1.01447e-07
46.5964
-1.0157e-07
46.5967
-1.01499e-07
46.597
-1.0116e-07
46.5974
-1.00923e-07
46.5977
-1.00896e-07
46.5981
-1.00991e-07
46.5984
-1.01067e-07
46.5988
-1.01079e-07
46.5992
-1.01049e-07
46.5996
-1.01007e-07
46.6
-1.0098e-07
46.6004
-1.0098e-07
46.6008
-1.01012e-07
46.6012
-1.01078e-07
46.6016
-1.01175e-07
46.602
-1.013e-07
46.6024
-1.01454e-07
46.6027
-1.01646e-07
46.603
-1.01889e-07
46.6034
-1.02207e-07
46.6036
-1.02611e-07
46.6039
-1.03149e-07
46.6041
-1.03816e-07
46.6043
-1.04681e-07
46.6044
-1.05751e-07
46.6045
-1.07037e-07
46.6045
-1.08818e-07
46.6045
-1.10336e-07
46.6045
-1.13223e-07
46.6044
-1.15598e-07
46.6042
-1.1955e-07
46.604
-1.22916e-07
46.6037
-1.28482e-07
46.6034
-1.32983e-07
46.6029
-1.4124e-07
46.6024
-1.46076e-07
46.6018
-1.5758e-07
46.6011
-1.63995e-07
46.6002
-1.75302e-07
46.5993
-1.83677e-07
46.5982
-1.85665e-07
46.5971
-1.44926e-07
46.5957
8.14202e-08
46.5943
1.2723e-06
46.5927
7.00539e-06
46.591
3.4762e-05
46.5891
0.000168716
46.5872
0.00081577
46.5859
0.00394963
46.5877
0.019205
46.6033
0.0941192
46.6681
0.464928
46.77
2.35307
7.98174
47.5519
46.8078
-0.000402352
46.8166
-0.000302958
46.8253
-0.000279713
46.8341
-0.000286054
46.843
-0.000286951
46.8517
-0.0002866
46.8604
-0.000286631
46.8689
-0.000286765
46.8772
-0.000286852
46.8855
-0.000286859
46.8936
-0.00028689
46.9015
-0.000286921
46.9091
-0.000286949
46.9163
-0.000286974
46.9231
-0.000286997
46.9295
-0.000287019
46.9353
-0.000287034
46.9406
-0.000287032
46.9451
-0.000286987
46.949
-0.000286758
46.9519
-0.000286632
46.9539
-0.000286353
46.9548
-0.000285321
46.9546
-0.000284198
46.9531
-0.000282148
46.9505
-0.000279414
46.9465
-0.000275506
46.9412
-0.000270228
46.9346
-0.000263373
46.9266
-0.000254731
46.9172
-0.000244228
46.9065
-0.000231862
46.8944
-0.000217686
46.881
-0.000201895
46.8664
-0.000184852
46.8507
-0.000167007
46.8339
-0.00014864
46.8161
-0.000130382
46.7975
-0.000112594
46.7782
-9.57216e-05
46.7583
-8.00838e-05
46.738
-6.59196e-05
46.7174
-5.33709e-05
46.6967
-4.25535e-05
46.6761
-3.34218e-05
46.6557
-2.57526e-05
46.6358
-1.952e-05
46.6164
-1.45706e-05
46.5978
-1.07079e-05
46.5801
-7.74458e-06
46.5635
-5.51343e-06
46.5481
-3.85173e-06
46.5339
-2.64585e-06
46.5211
-1.77165e-06
46.5098
-1.15277e-06
46.4999
-7.17447e-07
46.4916
-4.12936e-07
46.4847
-2.00389e-07
46.4793
-5.15111e-08
46.4754
5.28612e-08
46.4728
1.27095e-07
46.4716
1.82759e-07
46.4716
2.23807e-07
46.4728
2.53396e-07
46.4751
2.74922e-07
46.4782
2.90294e-07
46.4822
2.99393e-07
46.4867
3.02183e-07
46.4918
2.99978e-07
46.4973
2.93764e-07
46.503
2.83126e-07
46.5089
2.68155e-07
46.5148
2.49536e-07
46.5206
2.28837e-07
46.5263
2.05612e-07
46.5318
1.79752e-07
46.537
1.53361e-07
46.5418
1.2608e-07
46.5463
9.79398e-08
46.5505
7.0761e-08
46.5542
4.38104e-08
46.5576
1.77538e-08
46.5606
-6.65977e-09
46.5633
-2.9765e-08
46.5656
-5.0889e-08
46.5676
-7.00275e-08
46.5693
-8.7482e-08
46.5708
-1.02696e-07
46.572
-1.16021e-07
46.5731
-1.27383e-07
46.574
-1.36629e-07
46.5748
-1.44556e-07
46.5755
-1.51628e-07
46.5761
-1.57616e-07
46.5766
-1.62244e-07
46.5771
-1.65085e-07
46.5776
-1.66508e-07
46.578
-1.67176e-07
46.5785
-1.67603e-07
46.5789
-1.68233e-07
46.5794
-1.69114e-07
46.5798
-1.69979e-07
46.5803
-1.70659e-07
46.5808
-1.7101e-07
46.5813
-1.7102e-07
46.5818
-1.70881e-07
46.5823
-1.70698e-07
46.5828
-1.70578e-07
46.5834
-1.70642e-07
46.5839
-1.70789e-07
46.5845
-1.71053e-07
46.585
-1.7139e-07
46.5855
-1.71804e-07
46.586
-1.72339e-07
46.5866
-1.73001e-07
46.5871
-1.73831e-07
46.5876
-1.74838e-07
46.588
-1.7602e-07
46.5885
-1.77353e-07
46.5889
-1.78824e-07
46.5894
-1.80369e-07
46.5898
-1.81919e-07
46.5902
-1.83433e-07
46.5905
-1.84905e-07
46.5909
-1.86327e-07
46.5912
-1.87701e-07
46.5915
-1.89005e-07
46.5918
-1.9022e-07
46.5921
-1.91452e-07
46.5924
-1.92358e-07
46.5926
-1.9315e-07
46.5929
-1.95552e-07
46.5931
-1.95024e-07
46.5933
-1.9639e-07
46.5936
-1.96858e-07
46.5938
-1.98917e-07
46.594
-1.99225e-07
46.5942
-1.96588e-07
46.5944
-1.95552e-07
46.5946
-1.96188e-07
46.5949
-1.98824e-07
46.5951
-2.01576e-07
46.5953
-2.0323e-07
46.5956
-2.03746e-07
46.5959
-2.03402e-07
46.5961
-2.02836e-07
46.5964
-2.0321e-07
46.5967
-2.02959e-07
46.597
-2.02301e-07
46.5974
-2.01834e-07
46.5977
-2.0177e-07
46.5981
-2.01972e-07
46.5984
-2.02127e-07
46.5988
-2.02151e-07
46.5992
-2.02092e-07
46.5996
-2.02007e-07
46.6
-2.01955e-07
46.6004
-2.01954e-07
46.6008
-2.02021e-07
46.6012
-2.02156e-07
46.6016
-2.0235e-07
46.602
-2.02597e-07
46.6024
-2.02906e-07
46.6027
-2.03291e-07
46.603
-2.03779e-07
46.6034
-2.04412e-07
46.6036
-2.05229e-07
46.6039
-2.06291e-07
46.6041
-2.07641e-07
46.6043
-2.09352e-07
46.6044
-2.11493e-07
46.6045
-2.14121e-07
46.6045
-2.17551e-07
46.6045
-2.20865e-07
46.6045
-2.26152e-07
46.6044
-2.31642e-07
46.6042
-2.38535e-07
46.604
-2.46389e-07
46.6037
-2.56245e-07
46.6034
-2.66933e-07
46.6029
-2.80741e-07
46.6024
-2.94584e-07
46.6018
-3.12464e-07
46.6011
-3.3044e-07
46.6002
-3.51141e-07
46.5993
-3.72547e-07
46.5982
-3.93457e-07
46.5971
-3.99728e-07
46.5957
-3.39148e-07
46.5943
7.27914e-08
46.5927
2.13366e-06
46.591
1.22216e-05
46.5892
6.09981e-05
46.5876
0.000296849
46.5879
0.00144104
46.5976
0.00704376
46.654
0.0351906
46.9311
0.185074
48.0061
1.27499
4.10702
51.8777
10.6039
-0.000460463
10.6059
-0.000329745
10.6079
-0.000314268
10.6099
-0.000318665
10.6119
-0.000319347
10.6138
-0.000319088
10.6158
-0.000319123
10.6177
-0.000319263
10.6196
-0.000319359
10.6215
-0.00031936
10.6233
-0.000319394
10.6251
-0.000319427
10.6268
-0.000319456
10.6285
-0.000319483
10.63
-0.000319509
10.6315
-0.000319533
10.6328
-0.000319549
10.634
-0.000319545
10.635
-0.000319495
10.6359
-0.000319229
10.6365
-0.000319081
10.637
-0.000318831
10.6372
-0.000317572
10.6371
-0.000316368
10.6368
-0.000314052
10.6362
-0.000310989
10.6353
-0.000306606
10.6341
-0.000300696
10.6326
-0.000293015
10.6308
-0.000283354
10.6287
-0.000271607
10.6262
-0.00025778
10.6235
-0.000241946
10.6205
-0.000224331
10.6172
-0.000205333
10.6136
-0.000185401
10.6098
-0.000164962
10.6058
-0.000144628
10.6016
-0.000124839
10.5972
-0.000106079
10.5927
-8.87032e-05
10.5881
-7.29749e-05
10.5834
-5.90488e-05
10.5787
-4.70548e-05
10.574
-3.69389e-05
10.5694
-2.84405e-05
10.5649
-2.15454e-05
10.5605
-1.60728e-05
10.5563
-1.18043e-05
10.5523
-8.53205e-06
10.5485
-6.07069e-06
10.545
-4.23707e-06
10.5418
-2.90876e-06
10.5389
-1.94612e-06
10.5364
-1.26513e-06
10.5341
-7.86013e-07
10.5322