/*--------------------------------*- C++ -*----------------------------------*\
| =========                 |                                                 |
| \\      /  F ield         | OpenFOAM: The Open Source CFD Toolbox           |
|  \\    /   O peration     | Version:  3.0.x                                 |
|   \\  /    A nd           | Web:      www.OpenFOAM.org                      |
|    \\/     M anipulation  |                                                 |
\*---------------------------------------------------------------------------*/
FoamFile
{
    version     2.0;
    format      ascii;
    class       volScalarField;
    location    "0.55";
    object      T;
}
// * * * * * * * * * * * * * * * * * * * * * * * * * * * * * * * * * * * * * //

dimensions      [0 0 0 1 0 0 0];

internalField   nonuniform List<scalar> 
13800
(
778.166
778.139
778.1
778.067
778.041
778.019
778.002
777.991
777.987
777.987
777.988
777.991
777.999
778.007
778.016
778.027
778.037
778.047
778.059
778.07
778.082
778.094
778.107
778.12
778.133
778.147
778.16
778.176
778.19
778.205
778.221
778.236
778.253
778.27
778.287
778.303
778.321
778.339
778.357
778.375
778.395
778.413
778.434
778.452
778.473
778.493
778.514
778.536
778.557
778.579
778.6
778.622
778.644
778.666
778.689
778.712
778.735
778.759
778.782
778.806
778.83
778.856
778.88
778.905
778.93
778.954
778.98
779.005
779.031
779.056
779.082
779.108
779.135
779.162
779.189
779.216
779.243
779.271
779.298
779.325
779.353
779.381
779.409
779.436
779.464
779.493
779.521
779.55
779.578
779.608
779.637
779.665
779.694
779.724
779.753
779.782
779.812
779.842
779.871
779.9
779.931
779.96
779.99
780.02
780.049
780.08
780.109
780.139
780.169
780.199
780.228
780.258
780.288
780.318
780.348
780.377
780.407
780.437
780.468
780.496
780.527
780.556
780.585
780.615
780.645
780.674
780.703
780.733
780.762
780.791
780.819
780.849
780.878
780.907
780.935
780.964
780.993
781.021
781.05
781.078
781.106
781.135
781.163
781.191
781.218
781.245
781.273
781.3
781.327
781.354
781.381
781.408
781.435
781.461
781.488
781.514
781.54
781.566
781.592
781.617
781.643
781.668
781.694
781.718
781.743
781.768
781.792
781.816
781.84
781.864
781.887
781.911
781.935
781.957
781.98
782.003
782.025
782.048
782.07
782.092
782.113
782.135
782.155
782.178
782.196
782.22
782.236
782.262
782.275
782.302
782.314
782.343
782.352
782.38
782.389
782.416
782.428
782.447
782.474
782.48
778.157
778.13
778.091
778.058
778.032
778.01
777.993
777.983
777.979
777.979
777.98
777.983
777.99
777.999
778.008
778.018
778.029
778.039
778.051
778.062
778.074
778.086
778.099
778.112
778.126
778.139
778.153
778.168
778.183
778.198
778.214
778.229
778.245
778.262
778.279
778.296
778.314
778.332
778.349
778.369
778.388
778.406
778.426
778.445
778.466
778.486
778.507
778.528
778.55
778.571
778.593
778.615
778.637
778.659
778.682
778.705
778.728
778.752
778.775
778.799
778.824
778.848
778.874
778.898
778.924
778.948
778.974
778.999
779.024
779.049
779.075
779.102
779.129
779.156
779.182
779.21
779.237
779.265
779.292
779.319
779.347
779.375
779.403
779.43
779.459
779.487
779.516
779.545
779.573
779.602
779.631
779.66
779.689
779.719
779.748
779.777
779.807
779.837
779.866
779.895
779.926
779.955
779.985
780.015
780.044
780.074
780.104
780.133
780.164
780.193
780.224
780.253
780.282
780.313
780.343
780.372
780.402
780.432
780.462
780.492
780.521
780.55
780.58
780.61
780.639
780.668
780.697
780.728
780.757
780.786
780.814
780.843
780.873
780.902
780.93
780.959
780.988
781.017
781.045
781.073
781.101
781.129
781.157
781.185
781.213
781.24
781.268
781.295
781.322
781.349
781.376
781.403
781.429
781.456
781.483
781.509
781.535
781.561
781.587
781.612
781.638
781.663
781.688
781.713
781.738
781.763
781.787
781.811
781.835
781.859
781.881
781.906
781.929
781.952
781.975
781.998
782.02
782.043
782.065
782.086
782.108
782.13
782.15
782.173
782.191
782.215
782.231
782.257
782.27
782.297
782.309
782.337
782.347
782.375
782.384
782.412
782.421
782.448
782.458
782.484
778.157
778.13
778.091
778.058
778.032
778.01
777.993
777.983
777.979
777.979
777.98
777.983
777.99
777.999
778.008
778.018
778.029
778.039
778.051
778.062
778.074
778.086
778.099
778.112
778.126
778.139
778.153
778.168
778.183
778.197
778.214
778.229
778.245
778.262
778.279
778.296
778.314
778.332
778.349
778.369
778.387
778.406
778.426
778.445
778.465
778.486
778.507
778.528
778.55
778.571
778.593
778.615
778.637
778.659
778.682
778.705
778.728
778.752
778.775
778.799
778.824
778.849
778.873
778.898
778.924
778.948
778.974
778.999
779.024
779.05
779.076
779.102
779.129
779.155
779.182
779.21
779.237
779.265
779.292
779.319
779.347
779.375
779.403
779.43
779.459
779.487
779.516
779.545
779.573
779.602
779.631
779.66
779.689
779.719
779.748
779.777
779.807
779.837
779.866
779.895
779.926
779.955
779.985
780.015
780.044
780.074
780.104
780.133
780.164
780.193
780.224
780.253
780.282
780.313
780.343
780.372
780.402
780.432
780.462
780.492
780.521
780.55
780.58
780.61
780.639
780.668
780.697
780.728
780.757
780.786
780.814
780.843
780.873
780.902
780.93
780.959
780.988
781.017
781.045
781.073
781.101
781.129
781.157
781.185
781.213
781.24
781.268
781.295
781.322
781.349
781.376
781.403
781.429
781.456
781.483
781.509
781.535
781.561
781.587
781.612
781.638
781.663
781.688
781.713
781.738
781.763
781.787
781.811
781.835
781.859
781.881
781.906
781.929
781.952
781.975
781.998
782.02
782.043
782.065
782.086
782.108
782.13
782.15
782.173
782.191
782.215
782.231
782.257
782.27
782.297
782.309
782.337
782.347
782.375
782.384
782.412
782.421
782.448
782.457
782.484
778.157
778.13
778.091
778.058
778.032
778.01
777.993
777.983
777.979
777.979
777.98
777.983
777.99
777.999
778.008
778.018
778.029
778.039
778.051
778.062
778.074
778.086
778.099
778.112
778.126
778.139
778.153
778.168
778.183
778.198
778.214
778.229
778.245
778.262
778.279
778.296
778.314
778.332
778.349
778.369
778.388
778.406
778.426
778.445
778.466
778.486
778.507
778.528
778.55
778.571
778.593
778.615
778.637
778.659
778.682
778.705
778.728
778.752
778.775
778.799
778.824
778.848
778.874
778.898
778.924
778.948
778.974
778.999
779.024
779.049
779.075
779.102
779.129
779.156
779.182
779.21
779.237
779.265
779.292
779.319
779.347
779.375
779.403
779.43
779.459
779.487
779.516
779.545
779.573
779.602
779.631
779.66
779.689
779.719
779.748
779.777
779.807
779.837
779.866
779.895
779.926
779.955
779.985
780.015
780.044
780.074
780.104
780.133
780.164
780.193
780.224
780.253
780.282
780.313
780.343
780.372
780.402
780.432
780.462
780.492
780.521
780.55
780.58
780.61
780.639
780.668
780.697
780.728
780.757
780.786
780.814
780.843
780.873
780.902
780.93
780.959
780.988
781.017
781.045
781.073
781.101
781.129
781.157
781.185
781.213
781.24
781.268
781.295
781.322
781.349
781.376
781.403
781.429
781.456
781.483
781.509
781.535
781.561
781.587
781.612
781.638
781.663
781.688
781.713
781.738
781.763
781.787
781.811
781.835
781.859
781.881
781.906
781.929
781.952
781.975
781.998
782.02
782.043
782.065
782.086
782.108
782.13
782.15
782.173
782.191
782.215
782.231
782.257
782.27
782.297
782.309
782.337
782.347
782.375
782.384
782.412
782.421
782.448
782.458
782.481
778.157
778.13
778.091
778.058
778.032
778.01
777.993
777.983
777.979
777.979
777.98
777.983
777.991
778
778.008
778.018
778.029
778.039
778.051
778.062
778.074
778.086
778.099
778.112
778.126
778.139
778.153
778.168
778.183
778.198
778.214
778.229
778.245
778.262
778.279
778.296
778.314
778.332
778.349
778.369
778.388
778.406
778.426
778.445
778.466
778.486
778.507
778.528
778.55
778.571
778.593
778.615
778.637
778.659
778.682
778.705
778.728
778.752
778.775
778.799
778.824
778.848
778.874
778.898
778.924
778.948
778.974
778.999
779.024
779.049
779.075
779.102
779.129
779.156
779.182
779.21
779.237
779.265
779.292
779.319
779.347
779.375
779.403
779.43
779.459
779.487
779.516
779.545
779.573
779.602
779.631
779.66
779.689
779.719
779.748
779.777
779.807
779.837
779.866
779.895
779.926
779.955
779.985
780.015
780.044
780.074
780.104
780.133
780.164
780.193
780.224
780.253
780.282
780.313
780.343
780.372
780.402
780.432
780.462
780.492
780.521
780.55
780.58
780.61
780.639
780.668
780.697
780.728
780.757
780.786
780.814
780.843
780.873
780.902
780.93
780.959
780.988
781.017
781.045
781.073
781.101
781.129
781.157
781.185
781.213
781.24
781.268
781.295
781.322
781.349
781.376
781.403
781.429
781.456
781.483
781.509
781.535
781.561
781.587
781.612
781.638
781.663
781.688
781.713
781.738
781.763
781.787
781.811
781.835
781.859
781.881
781.906
781.929
781.952
781.975
781.998
782.02
782.043
782.065
782.086
782.108
782.13
782.15
782.173
782.191
782.215
782.231
782.257
782.27
782.297
782.309
782.337
782.347
782.375
782.384
782.413
782.421
782.448
782.457
782.484
778.157
778.13
778.091
778.058
778.032
778.01
777.993
777.983
777.979
777.979
777.98
777.983
777.991
778
778.008
778.018
778.029
778.039
778.051
778.062
778.074
778.086
778.099
778.112
778.126
778.139
778.153
778.168
778.183
778.198
778.214
778.229
778.245
778.262
778.279
778.296
778.314
778.332
778.349
778.369
778.388
778.406
778.426
778.445
778.466
778.486
778.507
778.528
778.55
778.571
778.593
778.615
778.637
778.659
778.682
778.705
778.728
778.752
778.775
778.799
778.824
778.848
778.874
778.898
778.924
778.948
778.974
778.999
779.024
779.049
779.075
779.102
779.129
779.156
779.182
779.21
779.237
779.265
779.292
779.319
779.347
779.375
779.403
779.43
779.459
779.487
779.516
779.545
779.573
779.602
779.631
779.66
779.689
779.719
779.748
779.777
779.807
779.837
779.866
779.895
779.926
779.955
779.985
780.015
780.044
780.074
780.104
780.133
780.164
780.193
780.224
780.253
780.282
780.313
780.343
780.372
780.402
780.432
780.462
780.492
780.521
780.55
780.58
780.61
780.639
780.668
780.697
780.728
780.757
780.786
780.814
780.843
780.873
780.902
780.93
780.959
780.988
781.017
781.045
781.073
781.101
781.129
781.157
781.185
781.213
781.24
781.268
781.295
781.322
781.349
781.376
781.403
781.429
781.456
781.483
781.509
781.535
781.561
781.587
781.612
781.638
781.663
781.688
781.713
781.738
781.763
781.787
781.811
781.835
781.859
781.881
781.906
781.929
781.952
781.975
781.998
782.02
782.043
782.065
782.086
782.108
782.13
782.151
782.171
782.193
782.213
782.235
782.253
782.276
782.291
782.316
782.331
782.351
782.372
782.387
782.409
782.426
782.442
782.463
782.477
778.157
778.13
778.091
778.058
778.032
778.01
777.993
777.983
777.979
777.979
777.98
777.983
777.99
777.999
778.008
778.018
778.029
778.039
778.051
778.062
778.074
778.086
778.099
778.112
778.126
778.139
778.153
778.168
778.183
778.198
778.214
778.229
778.245
778.262
778.279
778.296
778.314
778.332
778.349
778.369
778.388
778.406
778.426
778.445
778.466
778.486
778.507
778.528
778.55
778.571
778.593
778.615
778.637
778.659
778.682
778.705
778.728
778.752
778.775
778.799
778.824
778.848
778.874
778.898
778.924
778.948
778.974
778.999
779.024
779.049
779.075
779.102
779.129
779.156
779.182
779.21
779.237
779.265
779.292
779.319
779.347
779.375
779.403
779.43
779.459
779.487
779.516
779.545
779.573
779.602
779.631
779.66
779.689
779.719
779.748
779.777
779.807
779.837
779.866
779.895
779.926
779.955
779.985
780.015
780.044
780.074
780.104
780.133
780.164
780.193
780.224
780.253
780.282
780.313
780.343
780.372
780.402
780.432
780.462
780.492
780.521
780.55
780.58
780.61
780.639
780.668
780.697
780.728
780.757
780.786
780.814
780.843
780.873
780.902
780.93
780.959
780.988
781.017
781.045
781.073
781.101
781.129
781.157
781.185
781.213
781.24
781.268
781.295
781.322
781.349
781.376
781.403
781.429
781.456
781.483
781.509
781.535
781.561
781.587
781.612
781.638
781.663
781.688
781.713
781.738
781.763
781.787
781.811
781.835
781.859
781.881
781.906
781.929
781.952
781.975
781.998
782.02
782.042
782.065
782.086
782.109
782.129
782.152
782.17
782.194
782.211
782.237
782.251
782.277
782.29
782.317
782.328
782.357
782.366
782.395
782.404
782.43
782.439
782.465
782.477
778.157
778.13
778.091
778.058
778.032
778.01
777.993
777.983
777.979
777.979
777.98
777.983
777.99
777.999
778.008
778.018
778.029
778.039
778.051
778.062
778.074
778.086
778.099
778.112
778.126
778.139
778.153
778.168
778.183
778.197
778.214
778.229
778.245
778.262
778.279
778.296
778.314
778.332
778.349
778.369
778.387
778.406
778.426
778.445
778.465
778.486
778.507
778.528
778.55
778.571
778.593
778.615
778.637
778.659
778.682
778.705
778.728
778.752
778.775
778.799
778.824
778.849
778.873
778.898
778.924
778.948
778.974
778.999
779.024
779.05
779.076
779.102
779.129
779.155
779.182
779.21
779.237
779.265
779.292
779.319
779.347
779.375
779.403
779.43
779.459
779.487
779.516
779.545
779.573
779.602
779.631
779.66
779.689
779.719
779.748
779.777
779.807
779.837
779.866
779.895
779.926
779.955
779.985
780.015
780.044
780.074
780.104
780.133
780.164
780.193
780.224
780.253
780.282
780.313
780.343
780.372
780.402
780.432
780.462
780.492
780.521
780.55
780.58
780.61
780.639
780.668
780.697
780.728
780.757
780.786
780.814
780.843
780.873
780.902
780.93
780.959
780.988
781.017
781.045
781.073
781.101
781.129
781.157
781.185
781.213
781.24
781.268
781.295
781.322
781.349
781.376
781.403
781.429
781.456
781.483
781.509
781.535
781.561
781.587
781.612
781.638
781.663
781.688
781.713
781.738
781.763
781.787
781.811
781.835
781.859
781.881
781.906
781.929
781.952
781.975
781.998
782.02
782.042
782.065
782.086
782.109
782.129
782.152
782.17
782.194
782.211
782.237
782.251
782.278
782.289
782.318
782.328
782.356
782.366
782.394
782.403
782.43
782.439
782.47
782.478
778.157
778.13
778.091
778.058
778.032
778.01
777.993
777.983
777.979
777.979
777.98
777.983
777.99
777.999
778.008
778.018
778.029
778.039
778.051
778.062
778.074
778.086
778.099
778.112
778.126
778.139
778.153
778.168
778.183
778.198
778.214
778.229
778.245
778.262
778.279
778.296
778.314
778.332
778.349
778.369
778.388
778.406
778.426
778.445
778.466
778.486
778.507
778.528
778.55
778.571
778.593
778.615
778.637
778.659
778.682
778.705
778.728
778.752
778.775
778.799
778.824
778.848
778.874
778.898
778.924
778.948
778.974
778.999
779.024
779.049
779.075
779.102
779.129
779.156
779.182
779.21
779.237
779.265
779.292
779.319
779.347
779.375
779.403
779.43
779.459
779.487
779.516
779.545
779.573
779.602
779.631
779.66
779.689
779.719
779.748
779.777
779.807
779.837
779.866
779.895
779.926
779.955
779.985
780.015
780.044
780.074
780.104
780.133
780.164
780.193
780.224
780.253
780.282
780.313
780.343
780.372
780.402
780.432
780.462
780.492
780.521
780.55
780.58
780.61
780.639
780.668
780.697
780.728
780.757
780.786
780.814
780.843
780.873
780.902
780.93
780.959
780.988
781.017
781.045
781.073
781.101
781.129
781.157
781.185
781.213
781.24
781.268
781.295
781.322
781.349
781.376
781.403
781.429
781.456
781.483
781.509
781.535
781.561
781.587
781.612
781.638
781.663
781.688
781.713
781.738
781.763
781.787
781.811
781.835
781.859
781.881
781.906
781.929
781.952
781.975
781.998
782.02
782.042
782.065
782.086
782.109
782.129
782.152
782.17
782.195
782.211
782.237
782.25
782.278
782.289
782.318
782.328
782.357
782.366
782.394
782.403
782.431
782.439
782.472
782.482
778.166
778.139
778.1
778.067
778.041
778.019
778.002
777.991
777.987
777.987
777.988
777.991
777.999
778.007
778.016
778.027
778.037
778.047
778.059
778.07
778.082
778.094
778.107
778.12
778.133
778.147
778.16
778.176
778.19
778.205
778.221
778.236
778.253
778.27
778.287
778.303
778.321
778.339
778.357
778.375
778.395
778.413
778.434
778.452
778.473
778.493
778.514
778.536
778.557
778.579
778.6
778.622
778.644
778.666
778.689
778.712
778.735
778.759
778.782
778.806
778.83
778.856
778.88
778.905
778.93
778.954
778.98
779.005
779.031
779.056
779.082
779.108
779.135
779.162
779.189
779.216
779.243
779.271
779.298
779.325
779.353
779.381
779.409
779.436
779.464
779.493
779.521
779.55
779.578
779.608
779.637
779.665
779.694
779.724
779.753
779.782
779.812
779.842
779.871
779.9
779.931
779.96
779.99
780.02
780.049
780.08
780.109
780.139
780.169
780.199
780.228
780.258
780.288
780.318
780.348
780.377
780.407
780.437
780.468
780.496
780.527
780.556
780.585
780.615
780.645
780.674
780.703
780.733
780.762
780.791
780.819
780.849
780.878
780.907
780.935
780.964
780.993
781.021
781.05
781.078
781.106
781.135
781.163
781.191
781.218
781.245
781.273
781.3
781.327
781.354
781.381
781.408
781.435
781.461
781.488
781.514
781.54
781.566
781.592
781.617
781.643
781.668
781.694
781.718
781.743
781.768
781.792
781.816
781.84
781.864
781.887
781.911
781.935
781.957
781.98
782.003
782.025
782.048
782.07
782.091
782.114
782.134
782.157
782.176
782.199
782.216
782.242
782.256
782.283
782.294
782.323
782.333
782.361
782.37
782.399
782.408
782.436
782.444
782.481
782.485
782.49
782.498
782.505
782.513
782.524
782.535
782.546
782.554
782.559
782.564
782.568
782.572
782.576
782.58
782.585
782.588
782.592
782.596
782.6
782.603
782.495
782.5
782.505
782.511
782.518
782.525
782.533
782.54
782.547
782.554
782.56
782.565
782.568
782.572
782.575
782.578
782.581
782.584
782.587
782.589
782.497
782.502
782.508
782.513
782.518
782.524
782.53
782.536
782.544
782.549
782.557
782.562
782.568
782.57
782.574
782.576
782.579
782.581
782.584
782.587
782.492
782.498
782.503
782.507
782.512
782.516
782.522
782.526
782.531
782.536
782.543
782.549
782.556
782.562
782.571
782.576
782.582
782.587
782.591
782.593
782.493
782.497
782.501
782.503
782.507
782.509
782.513
782.516
782.52
782.523
782.526
782.529
782.532
782.535
782.538
782.542
782.544
782.548
782.551
782.555
782.491
782.493
782.497
782.499
782.503
782.506
782.51
782.513
782.518
782.521
782.525
782.529
782.534
782.539
782.545
782.551
782.558
782.564
782.57
782.576
782.489
782.491
782.494
782.497
782.5
782.501
782.503
782.505
782.508
782.509
782.511
782.512
782.513
782.514
782.516
782.517
782.518
782.52
782.521
782.523
782.488
782.491
782.493
782.496
782.498
782.501
782.503
782.506
782.508
782.51
782.512
782.514
782.515
782.515
782.515
782.516
782.516
782.517
782.519
782.521
782.488
782.49
782.491
782.492
782.494
782.495
782.496
782.496
782.495
782.495
782.494
782.494
782.493
782.493
782.493
782.493
782.493
782.494
782.494
782.495
782.49
782.489
782.489
782.489
782.489
782.489
782.489
782.489
782.489
782.488
782.488
782.488
782.488
782.489
782.489
782.49
782.492
782.495
782.497
782.5
782.607
782.621
782.629
782.636
782.645
782.655
782.665
782.672
782.68
782.689
782.7
782.711
782.722
782.731
782.741
782.751
782.761
782.772
782.781
782.791
782.801
782.811
782.821
782.831
782.841
782.85
782.86
782.869
782.878
782.886
782.895
782.903
782.911
782.92
782.929
782.937
782.945
782.953
782.96
782.968
782.976
782.982
782.989
782.997
783.003
783.01
783.017
783.023
783.029
783.036
783.042
783.048
783.053
783.059
783.066
783.07
783.076
783.081
783.087
783.092
783.097
783.101
783.107
783.111
783.115
783.12
783.125
783.129
783.133
783.137
783.141
783.145
783.149
783.152
783.155
783.158
783.163
783.166
783.17
783.172
783.174
783.174
783.173
783.174
783.177
783.181
783.184
783.183
783.172
783.16
783.154
783.165
783.239
783.538
784.26
785.036
785.739
786.318
786.735
786.981
787.071
787.073
787.001
786.612
785.648
784.74
784.036
783.548
783.246
783.083
783.003
782.972
782.978
783.037
783.103
783.146
783.176
783.195
783.206
783.215
783.219
783.223
783.226
783.227
783.229
783.23
783.23
783.232
783.233
783.233
783.235
783.235
783.236
783.236
783.236
783.237
783.238
783.238
783.239
783.239
783.239
783.24
783.24
783.24
783.241
783.241
783.241
783.241
783.243
783.242
783.242
783.243
783.243
783.242
783.243
783.244
783.243
783.243
783.244
783.243
783.243
783.243
783.243
783.243
783.244
783.243
783.243
783.244
783.243
783.243
783.243
783.242
783.243
783.243
783.242
783.242
783.242
783.241
783.242
783.241
783.242
783.239
783.243
783.239
783.243
783.238
783.243
783.236
783.242
783.236
783.242
783.235
783.241
783.235
783.241
783.235
783.24
783.233
783.242
783.238
782.593
782.607
782.62
782.626
782.633
782.643
782.652
782.661
782.669
782.676
782.686
782.697
782.707
782.717
782.727
782.737
782.746
782.756
782.767
782.776
782.785
782.796
782.806
782.815
782.825
782.834
782.843
782.853
782.862
782.871
782.879
782.888
782.896
782.904
782.913
782.921
782.928
782.937
782.944
782.952
782.96
782.966
782.973
782.981
782.987
782.993
783.001
783.007
783.013
783.02
783.026
783.032
783.037
783.044
783.049
783.054
783.059
783.065
783.07
783.075
783.081
783.085
783.091
783.095
783.1
783.104
783.108
783.113
783.117
783.121
783.124
783.128
783.132
783.137
783.141
783.143
783.147
783.15
783.153
783.156
783.158
783.161
783.162
783.164
783.168
783.172
783.176
783.176
783.172
783.165
783.155
783.144
783.129
783.107
783.082
783.06
783.048
783.059
783.131
783.26
783.388
783.508
783.601
783.65
783.654
783.643
783.596
783.472
783.357
783.277
783.221
783.183
783.162
783.159
783.172
783.187
783.198
783.205
783.21
783.214
783.217
783.219
783.222
783.222
783.224
783.225
783.226
783.227
783.229
783.229
783.23
783.23
783.231
783.232
783.232
783.233
783.234
783.233
783.234
783.234
783.235
783.235
783.236
783.235
783.236
783.237
783.237
783.237
783.238
783.238
783.238
783.238
783.238
783.238
783.238
783.239
783.239
783.239
783.239
783.239
783.239
783.239
783.239
783.239
783.239
783.239
783.238
783.239
783.238
783.238
783.238
783.238
783.238
783.239
783.238
783.238
783.238
783.237
783.238
783.237
783.238
783.235
783.238
783.234
783.238
783.233
783.238
783.233
783.237
783.232
783.237
783.232
783.237
783.231
783.235
783.231
783.236
783.229
783.235
783.234
782.591
782.605
782.618
782.625
782.634
782.644
782.654
782.663
782.671
782.679
782.689
782.699
782.71
782.719
782.729
782.739
782.749
782.759
782.769
782.779
782.788
782.798
782.808
782.818
782.828
782.837
782.846
782.857
782.865
782.874
782.882
782.89
782.899
782.907
782.915
782.923
782.931
782.94
782.947
782.955
782.962
782.969
782.976
782.984
782.99
782.997
783.004
783.01
783.016
783.023
783.029
783.034
783.041
783.046
783.051
783.057
783.062
783.068
783.073
783.078
783.083
783.087
783.093
783.097
783.102
783.107
783.111
783.115
783.12
783.123
783.127
783.131
783.136
783.139
783.143
783.145
783.15
783.153
783.156
783.16
783.162
783.165
783.167
783.168
783.168
783.171
783.178
783.184
783.191
783.183
783.166
783.143
783.104
783.042
782.987
782.944
782.91
782.881
782.856
782.844
782.856
782.929
783.029
783.118
783.194
783.249
783.283
783.297
783.293
783.28
783.261
783.244
783.23
783.221
783.216
783.214
783.213
783.214
783.215
783.217
783.218
783.22
783.222
783.222
783.225
783.225
783.226
783.227
783.229
783.229
783.23
783.23
783.231
783.232
783.232
783.233
783.234
783.233
783.234
783.234
783.235
783.235
783.236
783.235
783.236
783.236
783.237
783.237
783.238
783.238
783.238
783.238
783.238
783.238
783.238
783.239
783.239
783.239
783.239
783.239
783.239
783.239
783.239
783.239
783.239
783.239
783.238
783.239
783.238
783.238
783.238
783.238
783.238
783.239
783.238
783.238
783.238
783.237
783.238
783.237
783.238
783.235
783.238
783.234
783.238
783.233
783.238
783.233
783.237
783.232
783.237
783.232
783.236
783.231
783.235
783.231
783.236
783.229
783.234
783.232
782.596
782.61
782.627
782.64
782.651
782.661
782.675
782.687
782.699
782.709
782.72
782.731
782.742
782.753
782.764
782.774
782.784
782.796
782.805
782.815
782.825
782.836
782.845
782.855
782.865
782.875
782.884
782.893
782.902
782.91
782.919
782.927
782.936
782.944
782.952
782.96
782.968
782.976
782.983
782.991
782.998
783.005
783.014
783.02
783.027
783.033
783.041
783.047
783.054
783.06
783.065
783.072
783.077
783.082
783.089
783.093
783.099
783.104
783.11
783.115
783.12
783.125
783.13
783.134
783.139
783.143
783.148
783.152
783.156
783.159
783.163
783.168
783.171
783.175
783.178
783.182
783.185
783.187
783.19
783.192
783.194
783.195
783.195
783.196
783.198
783.203
783.208
783.213
783.208
783.193
783.17
783.138
783.087
783.04
783.002
782.971
782.942
782.918
782.903
782.909
782.952
783.01
783.064
783.112
783.152
783.182
783.202
783.215
783.221
783.222
783.221
783.219
783.217
783.216
783.215
783.216
783.217
783.217
783.218
783.22
783.221
783.223
783.224
783.224
783.226
783.227
783.227
783.228
783.229
783.229
783.231
783.23
783.232
783.232
783.232
783.233
783.234
783.234
783.235
783.234
783.235
783.235
783.236
783.235
783.236
783.236
783.237
783.237
783.238
783.238
783.238
783.238
783.238
783.238
783.238
783.239
783.239
783.239
783.239
783.239
783.239
783.239
783.239
783.239
783.239
783.239
783.238
783.239
783.238
783.238
783.238
783.238
783.238
783.239
783.238
783.238
783.238
783.237
783.237
783.237
783.238
783.235
783.237
783.234
783.237
783.234
783.238
783.232
783.238
783.232
783.237
783.232
783.236
783.231
783.236
783.231
783.235
783.229
783.232
783.231
782.563
782.578
782.59
782.602
782.615
782.627
782.637
782.645
782.654
782.664
782.675
782.687
782.697
782.708
782.718
782.729
782.74
782.749
782.761
782.77
782.78
782.79
782.8
782.81
782.819
782.828
782.837
782.847
782.855
782.864
782.873
782.881
782.89
782.898
782.906
782.914
782.922
782.93
782.937
782.945
782.952
782.959
782.967
782.974
782.981
782.987
782.994
783.001
783.007
783.013
783.019
783.025
783.031
783.037
783.043
783.048
783.053
783.059
783.064
783.069
783.074
783.078
783.084
783.088
783.093
783.098
783.102
783.107
783.111
783.115
783.119
783.123
783.128
783.131
783.135
783.138
783.141
783.145
783.149
783.152
783.155
783.159
783.163
783.166
783.169
783.171
783.173
783.177
783.184
783.191
783.19
783.18
783.162
783.137
783.112
783.085
783.062
783.044
783.033
783.033
783.045
783.065
783.087
783.111
783.134
783.154
783.17
783.182
783.192
783.199
783.203
783.208
783.21
783.212
783.215
783.215
783.218
783.219
783.22
783.221
783.222
783.223
783.224
783.224
783.226
783.227
783.227
783.228
783.229
783.229
783.231
783.23
783.232
783.232
783.232
783.233
783.234
783.234
783.235
783.234
783.235
783.235
783.236
783.235
783.236
783.236
783.237
783.237
783.238
783.238
783.238
783.238
783.238
783.238
783.238
783.239
783.239
783.239
783.239
783.239
783.239
783.239
783.239
783.239
783.239
783.239
783.238
783.239
783.238
783.238
783.238
783.238
783.238
783.239
783.238
783.238
783.238
783.237
783.237
783.238
783.237
783.236
783.235
783.236
783.235
783.235
783.236
783.235
783.234
783.235
783.232
783.236
783.233
783.233
783.234
783.231
783.234
783.232
783.232
783.23
782.584
782.607
782.632
782.657
782.68
782.7
782.719
782.737
782.755
782.771
782.786
782.799
782.813
782.825
782.837
782.847
782.858
782.869
782.88
782.889
782.899
782.91
782.92
782.929
782.939
782.948
782.957
782.967
782.975
782.984
782.993
783.002
783.01
783.018
783.027
783.034
783.042
783.05
783.058
783.066
783.073
783.08
783.087
783.094
783.1
783.108
783.114
783.12
783.126
783.132
783.139
783.145
783.151
783.156
783.162
783.167
783.172
783.176
783.181
783.186
783.191
783.196
783.2
783.203
783.206
783.21
783.213
783.216
783.219
783.221
783.225
783.227
783.229
783.23
783.231
783.231
783.233
783.233
783.233
783.234
783.235
783.239
783.242
783.245
783.247
783.245
783.234
783.216
783.196
783.172
783.147
783.125
783.108
783.097
783.084
783.074
783.068
783.069
783.075
783.085
783.099
783.117
783.135
783.154
783.169
783.182
783.192
783.2
783.205
783.21
783.212
783.216
783.218
783.219
783.22
783.221
783.222
783.223
783.223
783.224
783.224
783.225
783.226
783.226
783.227
783.228
783.228
783.228
783.229
783.229
783.231
783.23
783.232
783.232
783.232
783.233
783.234
783.234
783.235
783.234
783.235
783.235
783.236
783.235
783.236
783.236
783.237
783.237
783.238
783.238
783.238
783.238
783.238
783.238
783.238
783.239
783.239
783.239
783.239
783.239
783.239
783.239
783.239
783.239
783.239
783.239
783.238
783.239
783.238
783.238
783.238
783.238
783.238
783.239
783.238
783.238
783.237
783.238
783.236
783.238
783.236
783.237
783.234
783.238
783.234
783.238
783.233
783.237
783.232
783.237
783.232
783.237
783.232
783.236
783.23
783.236
783.231
783.234
783.23
783.234
782.524
782.527
782.534
782.544
782.556
782.567
782.579
782.589
782.6
782.611
782.621
782.632
782.643
782.655
782.667
782.677
782.688
782.699
782.708
782.718
782.729
782.738
782.748
782.756
782.766
782.775
782.783
782.793
782.801
782.81
782.819
782.827
782.836
782.843
782.852
782.861
782.868
782.877
782.884
782.892
782.899
782.907
782.912
782.92
782.927
782.934
782.941
782.947
782.954
782.96
782.966
782.972
782.978
782.984
782.99
782.995
783
783.005
783.011
783.016
783.021
783.026
783.03
783.035
783.039
783.044
783.048
783.053
783.058
783.061
783.064
783.068
783.072
783.075
783.08
783.084
783.087
783.09
783.093
783.097
783.101
783.104
783.106
783.109
783.112
783.117
783.121
783.124
783.126
783.129
783.131
783.135
783.142
783.155
783.167
783.171
783.166
783.153
783.133
783.107
783.081
783.063
783.061
783.079
783.106
783.132
783.154
783.173
783.186
783.197
783.204
783.21
783.214
783.217
783.219
783.22
783.222
783.223
783.223
783.225
783.224
783.225
783.226
783.227
783.228
783.228
783.227
783.229
783.229
783.229
783.231
783.23
783.232
783.232
783.232
783.233
783.234
783.234
783.235
783.234
783.235
783.235
783.236
783.235
783.236
783.236
783.237
783.237
783.238
783.238
783.238
783.238
783.238
783.238
783.238
783.239
783.239
783.239
783.239
783.239
783.239
783.239
783.239
783.239
783.239
783.239
783.238
783.239
783.238
783.238
783.238
783.238
783.238
783.239
783.238
783.238
783.237
783.238
783.236
783.238
783.236
783.237
783.234
783.238
783.234
783.238
783.233
783.237
783.232
783.237
783.232
783.237
783.232
783.236
783.23
783.235
783.231
783.233
783.233
783.232
782.526
782.547
782.574
782.602
782.63
782.656
782.681
782.706
782.73
782.751
782.771
782.789
782.805
782.818
782.831
782.843
782.853
782.865
782.876
782.885
782.895
782.905
782.915
782.924
782.934
782.943
782.953
782.962
782.971
782.98
782.989
782.998
783.006
783.014
783.021
783.03
783.037
783.045
783.052
783.06
783.067
783.073
783.081
783.086
783.092
783.099
783.106
783.112
783.118
783.124
783.13
783.135
783.142
783.147
783.152
783.158
783.163
783.169
783.174
783.18
783.185
783.189
783.195
783.199
783.203
783.207
783.211
783.214
783.218
783.219
783.221
783.223
783.224
783.225
783.226
783.227
783.228
783.23
783.233
783.237
783.24
783.242
783.246
783.252
783.255
783.259