/*--------------------------------*- C++ -*----------------------------------*\
| =========                 |                                                 |
| \\      /  F ield         | OpenFOAM: The Open Source CFD Toolbox           |
|  \\    /   O peration     | Version:  3.0.x                                 |
|   \\  /    A nd           | Web:      www.OpenFOAM.org                      |
|    \\/     M anipulation  |                                                 |
\*---------------------------------------------------------------------------*/
FoamFile
{
    version     2.0;
    format      ascii;
    class       volScalarField;
    location    "0.5";
    object      p;
}
// * * * * * * * * * * * * * * * * * * * * * * * * * * * * * * * * * * * * * //

dimensions      [1 -1 -2 0 0 0 0];

internalField   nonuniform List<scalar> 
13800
(
1.80527e+07
1.80528e+07
1.8053e+07
1.80532e+07
1.80534e+07
1.80537e+07
1.8054e+07
1.80544e+07
1.80548e+07
1.80552e+07
1.80557e+07
1.80561e+07
1.80567e+07
1.80573e+07
1.80579e+07
1.80585e+07
1.80592e+07
1.80599e+07
1.80607e+07
1.80615e+07
1.80624e+07
1.80632e+07
1.80641e+07
1.80651e+07
1.80661e+07
1.80671e+07
1.80682e+07
1.80693e+07
1.80704e+07
1.80716e+07
1.80728e+07
1.80741e+07
1.80754e+07
1.80767e+07
1.80781e+07
1.80795e+07
1.80809e+07
1.80824e+07
1.80839e+07
1.80855e+07
1.8087e+07
1.80887e+07
1.80903e+07
1.8092e+07
1.80938e+07
1.80955e+07
1.80973e+07
1.80992e+07
1.8101e+07
1.8103e+07
1.81049e+07
1.81069e+07
1.81089e+07
1.8111e+07
1.81131e+07
1.81152e+07
1.81174e+07
1.81196e+07
1.81218e+07
1.81241e+07
1.81264e+07
1.81287e+07
1.81311e+07
1.81335e+07
1.8136e+07
1.81385e+07
1.8141e+07
1.81435e+07
1.81461e+07
1.81488e+07
1.81514e+07
1.81541e+07
1.81568e+07
1.81596e+07
1.81624e+07
1.81653e+07
1.81681e+07
1.8171e+07
1.8174e+07
1.8177e+07
1.818e+07
1.8183e+07
1.81861e+07
1.81892e+07
1.81924e+07
1.81956e+07
1.81988e+07
1.82021e+07
1.82053e+07
1.82087e+07
1.8212e+07
1.82154e+07
1.82189e+07
1.82223e+07
1.82258e+07
1.82294e+07
1.82329e+07
1.82365e+07
1.82402e+07
1.82439e+07
1.82476e+07
1.82513e+07
1.82551e+07
1.82589e+07
1.82627e+07
1.82666e+07
1.82705e+07
1.82745e+07
1.82785e+07
1.82825e+07
1.82865e+07
1.82906e+07
1.82947e+07
1.82989e+07
1.8303e+07
1.83072e+07
1.83115e+07
1.83158e+07
1.83201e+07
1.83244e+07
1.83288e+07
1.83332e+07
1.83376e+07
1.83421e+07
1.83466e+07
1.83511e+07
1.83557e+07
1.83603e+07
1.83649e+07
1.83695e+07
1.83742e+07
1.83789e+07
1.83837e+07
1.83884e+07
1.83932e+07
1.83981e+07
1.84029e+07
1.84078e+07
1.84127e+07
1.84176e+07
1.84226e+07
1.84276e+07
1.84326e+07
1.84377e+07
1.84427e+07
1.84478e+07
1.8453e+07
1.84581e+07
1.84633e+07
1.84685e+07
1.84737e+07
1.8479e+07
1.84842e+07
1.84895e+07
1.84948e+07
1.85002e+07
1.85055e+07
1.85109e+07
1.85163e+07
1.85217e+07
1.85272e+07
1.85326e+07
1.85381e+07
1.85436e+07
1.85491e+07
1.85547e+07
1.85602e+07
1.85658e+07
1.85714e+07
1.8577e+07
1.85826e+07
1.85882e+07
1.85939e+07
1.85995e+07
1.86052e+07
1.86109e+07
1.86166e+07
1.86223e+07
1.86281e+07
1.86338e+07
1.86395e+07
1.86453e+07
1.86511e+07
1.86569e+07
1.86626e+07
1.86684e+07
1.86742e+07
1.86801e+07
1.86859e+07
1.86917e+07
1.86975e+07
1.87034e+07
1.87092e+07
1.8715e+07
1.87209e+07
1.87267e+07
1.87326e+07
1.87385e+07
1.87444e+07
1.87505e+07
1.80527e+07
1.80528e+07
1.8053e+07
1.80532e+07
1.80534e+07
1.80537e+07
1.8054e+07
1.80544e+07
1.80548e+07
1.80552e+07
1.80557e+07
1.80561e+07
1.80567e+07
1.80573e+07
1.80579e+07
1.80585e+07
1.80592e+07
1.80599e+07
1.80607e+07
1.80615e+07
1.80624e+07
1.80632e+07
1.80641e+07
1.80651e+07
1.80661e+07
1.80671e+07
1.80682e+07
1.80693e+07
1.80704e+07
1.80716e+07
1.80728e+07
1.80741e+07
1.80754e+07
1.80767e+07
1.80781e+07
1.80795e+07
1.80809e+07
1.80824e+07
1.80839e+07
1.80855e+07
1.8087e+07
1.80887e+07
1.80903e+07
1.8092e+07
1.80938e+07
1.80955e+07
1.80973e+07
1.80992e+07
1.8101e+07
1.8103e+07
1.81049e+07
1.81069e+07
1.81089e+07
1.8111e+07
1.81131e+07
1.81152e+07
1.81174e+07
1.81196e+07
1.81218e+07
1.81241e+07
1.81264e+07
1.81287e+07
1.81311e+07
1.81335e+07
1.8136e+07
1.81385e+07
1.8141e+07
1.81435e+07
1.81461e+07
1.81488e+07
1.81514e+07
1.81541e+07
1.81568e+07
1.81596e+07
1.81624e+07
1.81653e+07
1.81681e+07
1.8171e+07
1.8174e+07
1.8177e+07
1.818e+07
1.8183e+07
1.81861e+07
1.81892e+07
1.81924e+07
1.81956e+07
1.81988e+07
1.82021e+07
1.82053e+07
1.82087e+07
1.8212e+07
1.82154e+07
1.82189e+07
1.82223e+07
1.82258e+07
1.82294e+07
1.82329e+07
1.82365e+07
1.82402e+07
1.82439e+07
1.82476e+07
1.82513e+07
1.82551e+07
1.82589e+07
1.82627e+07
1.82666e+07
1.82705e+07
1.82745e+07
1.82785e+07
1.82825e+07
1.82865e+07
1.82906e+07
1.82947e+07
1.82989e+07
1.8303e+07
1.83072e+07
1.83115e+07
1.83158e+07
1.83201e+07
1.83244e+07
1.83288e+07
1.83332e+07
1.83376e+07
1.83421e+07
1.83466e+07
1.83511e+07
1.83557e+07
1.83603e+07
1.83649e+07
1.83695e+07
1.83742e+07
1.83789e+07
1.83837e+07
1.83884e+07
1.83932e+07
1.83981e+07
1.84029e+07
1.84078e+07
1.84127e+07
1.84176e+07
1.84226e+07
1.84276e+07
1.84326e+07
1.84377e+07
1.84427e+07
1.84478e+07
1.8453e+07
1.84581e+07
1.84633e+07
1.84685e+07
1.84737e+07
1.8479e+07
1.84842e+07
1.84895e+07
1.84948e+07
1.85002e+07
1.85055e+07
1.85109e+07
1.85163e+07
1.85217e+07
1.85272e+07
1.85326e+07
1.85381e+07
1.85436e+07
1.85491e+07
1.85547e+07
1.85602e+07
1.85658e+07
1.85714e+07
1.8577e+07
1.85826e+07
1.85882e+07
1.85939e+07
1.85995e+07
1.86052e+07
1.86109e+07
1.86166e+07
1.86223e+07
1.86281e+07
1.86338e+07
1.86395e+07
1.86453e+07
1.86511e+07
1.86569e+07
1.86626e+07
1.86684e+07
1.86742e+07
1.86801e+07
1.86859e+07
1.86917e+07
1.86975e+07
1.87034e+07
1.87092e+07
1.8715e+07
1.87209e+07
1.87267e+07
1.87326e+07
1.87385e+07
1.87444e+07
1.87505e+07
1.80527e+07
1.80528e+07
1.8053e+07
1.80532e+07
1.80534e+07
1.80537e+07
1.8054e+07
1.80544e+07
1.80548e+07
1.80552e+07
1.80557e+07
1.80561e+07
1.80567e+07
1.80573e+07
1.80579e+07
1.80585e+07
1.80592e+07
1.80599e+07
1.80607e+07
1.80615e+07
1.80624e+07
1.80632e+07
1.80641e+07
1.80651e+07
1.80661e+07
1.80671e+07
1.80682e+07
1.80693e+07
1.80704e+07
1.80716e+07
1.80728e+07
1.80741e+07
1.80754e+07
1.80767e+07
1.80781e+07
1.80795e+07
1.80809e+07
1.80824e+07
1.80839e+07
1.80855e+07
1.8087e+07
1.80887e+07
1.80903e+07
1.8092e+07
1.80938e+07
1.80955e+07
1.80973e+07
1.80992e+07
1.8101e+07
1.8103e+07
1.81049e+07
1.81069e+07
1.81089e+07
1.8111e+07
1.81131e+07
1.81152e+07
1.81174e+07
1.81196e+07
1.81218e+07
1.81241e+07
1.81264e+07
1.81287e+07
1.81311e+07
1.81335e+07
1.8136e+07
1.81385e+07
1.8141e+07
1.81435e+07
1.81461e+07
1.81488e+07
1.81514e+07
1.81541e+07
1.81568e+07
1.81596e+07
1.81624e+07
1.81653e+07
1.81681e+07
1.8171e+07
1.8174e+07
1.8177e+07
1.818e+07
1.8183e+07
1.81861e+07
1.81892e+07
1.81924e+07
1.81956e+07
1.81988e+07
1.82021e+07
1.82053e+07
1.82087e+07
1.8212e+07
1.82154e+07
1.82189e+07
1.82223e+07
1.82258e+07
1.82294e+07
1.82329e+07
1.82365e+07
1.82402e+07
1.82439e+07
1.82476e+07
1.82513e+07
1.82551e+07
1.82589e+07
1.82627e+07
1.82666e+07
1.82705e+07
1.82745e+07
1.82785e+07
1.82825e+07
1.82865e+07
1.82906e+07
1.82947e+07
1.82989e+07
1.8303e+07
1.83072e+07
1.83115e+07
1.83158e+07
1.83201e+07
1.83244e+07
1.83288e+07
1.83332e+07
1.83376e+07
1.83421e+07
1.83466e+07
1.83511e+07
1.83557e+07
1.83603e+07
1.83649e+07
1.83695e+07
1.83742e+07
1.83789e+07
1.83837e+07
1.83884e+07
1.83932e+07
1.83981e+07
1.84029e+07
1.84078e+07
1.84127e+07
1.84176e+07
1.84226e+07
1.84276e+07
1.84326e+07
1.84377e+07
1.84427e+07
1.84478e+07
1.8453e+07
1.84581e+07
1.84633e+07
1.84685e+07
1.84737e+07
1.8479e+07
1.84842e+07
1.84895e+07
1.84948e+07
1.85002e+07
1.85055e+07
1.85109e+07
1.85163e+07
1.85217e+07
1.85272e+07
1.85326e+07
1.85381e+07
1.85436e+07
1.85491e+07
1.85547e+07
1.85602e+07
1.85658e+07
1.85714e+07
1.8577e+07
1.85826e+07
1.85882e+07
1.85939e+07
1.85995e+07
1.86052e+07
1.86109e+07
1.86166e+07
1.86223e+07
1.86281e+07
1.86338e+07
1.86395e+07
1.86453e+07
1.86511e+07
1.86569e+07
1.86626e+07
1.86684e+07
1.86742e+07
1.86801e+07
1.86859e+07
1.86917e+07
1.86975e+07
1.87034e+07
1.87092e+07
1.8715e+07
1.87209e+07
1.87267e+07
1.87326e+07
1.87385e+07
1.87444e+07
1.87504e+07
1.80527e+07
1.80528e+07
1.8053e+07
1.80532e+07
1.80534e+07
1.80537e+07
1.8054e+07
1.80544e+07
1.80548e+07
1.80552e+07
1.80557e+07
1.80561e+07
1.80567e+07
1.80573e+07
1.80579e+07
1.80585e+07
1.80592e+07
1.80599e+07
1.80607e+07
1.80615e+07
1.80624e+07
1.80632e+07
1.80641e+07
1.80651e+07
1.80661e+07
1.80671e+07
1.80682e+07
1.80693e+07
1.80704e+07
1.80716e+07
1.80728e+07
1.80741e+07
1.80754e+07
1.80767e+07
1.80781e+07
1.80795e+07
1.80809e+07
1.80824e+07
1.80839e+07
1.80855e+07
1.8087e+07
1.80887e+07
1.80903e+07
1.8092e+07
1.80938e+07
1.80955e+07
1.80973e+07
1.80992e+07
1.8101e+07
1.8103e+07
1.81049e+07
1.81069e+07
1.81089e+07
1.8111e+07
1.81131e+07
1.81152e+07
1.81174e+07
1.81196e+07
1.81218e+07
1.81241e+07
1.81264e+07
1.81287e+07
1.81311e+07
1.81335e+07
1.8136e+07
1.81385e+07
1.8141e+07
1.81435e+07
1.81461e+07
1.81488e+07
1.81514e+07
1.81541e+07
1.81568e+07
1.81596e+07
1.81624e+07
1.81653e+07
1.81681e+07
1.8171e+07
1.8174e+07
1.8177e+07
1.818e+07
1.8183e+07
1.81861e+07
1.81892e+07
1.81924e+07
1.81956e+07
1.81988e+07
1.82021e+07
1.82053e+07
1.82087e+07
1.8212e+07
1.82154e+07
1.82189e+07
1.82223e+07
1.82258e+07
1.82294e+07
1.82329e+07
1.82365e+07
1.82402e+07
1.82439e+07
1.82476e+07
1.82513e+07
1.82551e+07
1.82589e+07
1.82627e+07
1.82666e+07
1.82705e+07
1.82745e+07
1.82785e+07
1.82825e+07
1.82865e+07
1.82906e+07
1.82947e+07
1.82989e+07
1.8303e+07
1.83072e+07
1.83115e+07
1.83158e+07
1.83201e+07
1.83244e+07
1.83288e+07
1.83332e+07
1.83376e+07
1.83421e+07
1.83466e+07
1.83511e+07
1.83557e+07
1.83603e+07
1.83649e+07
1.83695e+07
1.83742e+07
1.83789e+07
1.83837e+07
1.83884e+07
1.83932e+07
1.83981e+07
1.84029e+07
1.84078e+07
1.84127e+07
1.84176e+07
1.84226e+07
1.84276e+07
1.84326e+07
1.84377e+07
1.84427e+07
1.84478e+07
1.8453e+07
1.84581e+07
1.84633e+07
1.84685e+07
1.84737e+07
1.8479e+07
1.84842e+07
1.84895e+07
1.84948e+07
1.85002e+07
1.85055e+07
1.85109e+07
1.85163e+07
1.85217e+07
1.85272e+07
1.85326e+07
1.85381e+07
1.85436e+07
1.85491e+07
1.85547e+07
1.85602e+07
1.85658e+07
1.85714e+07
1.8577e+07
1.85826e+07
1.85882e+07
1.85939e+07
1.85995e+07
1.86052e+07
1.86109e+07
1.86166e+07
1.86223e+07
1.86281e+07
1.86338e+07
1.86395e+07
1.86453e+07
1.86511e+07
1.86569e+07
1.86626e+07
1.86684e+07
1.86742e+07
1.86801e+07
1.86859e+07
1.86917e+07
1.86975e+07
1.87034e+07
1.87092e+07
1.8715e+07
1.87209e+07
1.87267e+07
1.87326e+07
1.87385e+07
1.87444e+07
1.87504e+07
1.80527e+07
1.80528e+07
1.8053e+07
1.80532e+07
1.80534e+07
1.80537e+07
1.8054e+07
1.80544e+07
1.80548e+07
1.80552e+07
1.80557e+07
1.80561e+07
1.80567e+07
1.80573e+07
1.80579e+07
1.80585e+07
1.80592e+07
1.80599e+07
1.80607e+07
1.80615e+07
1.80624e+07
1.80632e+07
1.80641e+07
1.80651e+07
1.80661e+07
1.80671e+07
1.80682e+07
1.80693e+07
1.80704e+07
1.80716e+07
1.80728e+07
1.80741e+07
1.80754e+07
1.80767e+07
1.80781e+07
1.80795e+07
1.80809e+07
1.80824e+07
1.80839e+07
1.80855e+07
1.8087e+07
1.80887e+07
1.80903e+07
1.8092e+07
1.80938e+07
1.80955e+07
1.80973e+07
1.80992e+07
1.8101e+07
1.8103e+07
1.81049e+07
1.81069e+07
1.81089e+07
1.8111e+07
1.81131e+07
1.81152e+07
1.81174e+07
1.81196e+07
1.81218e+07
1.81241e+07
1.81264e+07
1.81287e+07
1.81311e+07
1.81335e+07
1.8136e+07
1.81385e+07
1.8141e+07
1.81435e+07
1.81461e+07
1.81488e+07
1.81514e+07
1.81541e+07
1.81568e+07
1.81596e+07
1.81624e+07
1.81653e+07
1.81681e+07
1.8171e+07
1.8174e+07
1.8177e+07
1.818e+07
1.8183e+07
1.81861e+07
1.81892e+07
1.81924e+07
1.81956e+07
1.81988e+07
1.82021e+07
1.82053e+07
1.82087e+07
1.8212e+07
1.82154e+07
1.82189e+07
1.82223e+07
1.82258e+07
1.82294e+07
1.82329e+07
1.82365e+07
1.82402e+07
1.82439e+07
1.82476e+07
1.82513e+07
1.82551e+07
1.82589e+07
1.82627e+07
1.82666e+07
1.82705e+07
1.82745e+07
1.82785e+07
1.82825e+07
1.82865e+07
1.82906e+07
1.82947e+07
1.82989e+07
1.8303e+07
1.83072e+07
1.83115e+07
1.83158e+07
1.83201e+07
1.83244e+07
1.83288e+07
1.83332e+07
1.83376e+07
1.83421e+07
1.83466e+07
1.83511e+07
1.83557e+07
1.83603e+07
1.83649e+07
1.83695e+07
1.83742e+07
1.83789e+07
1.83837e+07
1.83884e+07
1.83932e+07
1.83981e+07
1.84029e+07
1.84078e+07
1.84127e+07
1.84176e+07
1.84226e+07
1.84276e+07
1.84326e+07
1.84377e+07
1.84427e+07
1.84478e+07
1.8453e+07
1.84581e+07
1.84633e+07
1.84685e+07
1.84737e+07
1.8479e+07
1.84842e+07
1.84895e+07
1.84948e+07
1.85002e+07
1.85055e+07
1.85109e+07
1.85163e+07
1.85217e+07
1.85272e+07
1.85326e+07
1.85381e+07
1.85436e+07
1.85491e+07
1.85547e+07
1.85602e+07
1.85658e+07
1.85714e+07
1.8577e+07
1.85826e+07
1.85882e+07
1.85939e+07
1.85995e+07
1.86052e+07
1.86109e+07
1.86166e+07
1.86223e+07
1.86281e+07
1.86338e+07
1.86395e+07
1.86453e+07
1.86511e+07
1.86569e+07
1.86626e+07
1.86684e+07
1.86742e+07
1.86801e+07
1.86859e+07
1.86917e+07
1.86975e+07
1.87034e+07
1.87092e+07
1.8715e+07
1.87209e+07
1.87267e+07
1.87326e+07
1.87384e+07
1.87443e+07
1.87503e+07
1.80527e+07
1.80528e+07
1.8053e+07
1.80532e+07
1.80534e+07
1.80537e+07
1.8054e+07
1.80544e+07
1.80548e+07
1.80552e+07
1.80557e+07
1.80561e+07
1.80567e+07
1.80573e+07
1.80579e+07
1.80585e+07
1.80592e+07
1.80599e+07
1.80607e+07
1.80615e+07
1.80624e+07
1.80632e+07
1.80641e+07
1.80651e+07
1.80661e+07
1.80671e+07
1.80682e+07
1.80693e+07
1.80704e+07
1.80716e+07
1.80728e+07
1.80741e+07
1.80754e+07
1.80767e+07
1.80781e+07
1.80795e+07
1.80809e+07
1.80824e+07
1.80839e+07
1.80855e+07
1.8087e+07
1.80887e+07
1.80903e+07
1.8092e+07
1.80938e+07
1.80955e+07
1.80973e+07
1.80992e+07
1.8101e+07
1.8103e+07
1.81049e+07
1.81069e+07
1.81089e+07
1.8111e+07
1.81131e+07
1.81152e+07
1.81174e+07
1.81196e+07
1.81218e+07
1.81241e+07
1.81264e+07
1.81287e+07
1.81311e+07
1.81335e+07
1.8136e+07
1.81385e+07
1.8141e+07
1.81435e+07
1.81461e+07
1.81488e+07
1.81514e+07
1.81541e+07
1.81568e+07
1.81596e+07
1.81624e+07
1.81653e+07
1.81681e+07
1.8171e+07
1.8174e+07
1.8177e+07
1.818e+07
1.8183e+07
1.81861e+07
1.81892e+07
1.81924e+07
1.81956e+07
1.81988e+07
1.82021e+07
1.82053e+07
1.82087e+07
1.8212e+07
1.82154e+07
1.82189e+07
1.82223e+07
1.82258e+07
1.82294e+07
1.82329e+07
1.82365e+07
1.82402e+07
1.82439e+07
1.82476e+07
1.82513e+07
1.82551e+07
1.82589e+07
1.82627e+07
1.82666e+07
1.82705e+07
1.82745e+07
1.82785e+07
1.82825e+07
1.82865e+07
1.82906e+07
1.82947e+07
1.82989e+07
1.8303e+07
1.83072e+07
1.83115e+07
1.83158e+07
1.83201e+07
1.83244e+07
1.83288e+07
1.83332e+07
1.83376e+07
1.83421e+07
1.83466e+07
1.83511e+07
1.83557e+07
1.83603e+07
1.83649e+07
1.83695e+07
1.83742e+07
1.83789e+07
1.83837e+07
1.83884e+07
1.83932e+07
1.83981e+07
1.84029e+07
1.84078e+07
1.84127e+07
1.84176e+07
1.84226e+07
1.84276e+07
1.84326e+07
1.84377e+07
1.84427e+07
1.84478e+07
1.8453e+07
1.84581e+07
1.84633e+07
1.84685e+07
1.84737e+07
1.8479e+07
1.84842e+07
1.84895e+07
1.84948e+07
1.85002e+07
1.85055e+07
1.85109e+07
1.85163e+07
1.85217e+07
1.85272e+07
1.85326e+07
1.85381e+07
1.85436e+07
1.85491e+07
1.85547e+07
1.85602e+07
1.85658e+07
1.85714e+07
1.8577e+07
1.85826e+07
1.85882e+07
1.85939e+07
1.85995e+07
1.86052e+07
1.86109e+07
1.86166e+07
1.86223e+07
1.86281e+07
1.86338e+07
1.86395e+07
1.86453e+07
1.86511e+07
1.86569e+07
1.86626e+07
1.86684e+07
1.86742e+07
1.86801e+07
1.86859e+07
1.86917e+07
1.86975e+07
1.87034e+07
1.87092e+07
1.8715e+07
1.87209e+07
1.87267e+07
1.87326e+07
1.87384e+07
1.87442e+07
1.875e+07
1.80527e+07
1.80528e+07
1.8053e+07
1.80532e+07
1.80534e+07
1.80537e+07
1.8054e+07
1.80544e+07
1.80548e+07
1.80552e+07
1.80557e+07
1.80561e+07
1.80567e+07
1.80573e+07
1.80579e+07
1.80585e+07
1.80592e+07
1.80599e+07
1.80607e+07
1.80615e+07
1.80624e+07
1.80632e+07
1.80641e+07
1.80651e+07
1.80661e+07
1.80671e+07
1.80682e+07
1.80693e+07
1.80704e+07
1.80716e+07
1.80728e+07
1.80741e+07
1.80754e+07
1.80767e+07
1.80781e+07
1.80795e+07
1.80809e+07
1.80824e+07
1.80839e+07
1.80855e+07
1.8087e+07
1.80887e+07
1.80903e+07
1.8092e+07
1.80938e+07
1.80955e+07
1.80973e+07
1.80992e+07
1.8101e+07
1.8103e+07
1.81049e+07
1.81069e+07
1.81089e+07
1.8111e+07
1.81131e+07
1.81152e+07
1.81174e+07
1.81196e+07
1.81218e+07
1.81241e+07
1.81264e+07
1.81287e+07
1.81311e+07
1.81335e+07
1.8136e+07
1.81385e+07
1.8141e+07
1.81435e+07
1.81461e+07
1.81488e+07
1.81514e+07
1.81541e+07
1.81568e+07
1.81596e+07
1.81624e+07
1.81653e+07
1.81681e+07
1.8171e+07
1.8174e+07
1.8177e+07
1.818e+07
1.8183e+07
1.81861e+07
1.81892e+07
1.81924e+07
1.81956e+07
1.81988e+07
1.82021e+07
1.82053e+07
1.82087e+07
1.8212e+07
1.82154e+07
1.82189e+07
1.82223e+07
1.82258e+07
1.82294e+07
1.82329e+07
1.82365e+07
1.82402e+07
1.82439e+07
1.82476e+07
1.82513e+07
1.82551e+07
1.82589e+07
1.82627e+07
1.82666e+07
1.82705e+07
1.82745e+07
1.82785e+07
1.82825e+07
1.82865e+07
1.82906e+07
1.82947e+07
1.82989e+07
1.8303e+07
1.83072e+07
1.83115e+07
1.83158e+07
1.83201e+07
1.83244e+07
1.83288e+07
1.83332e+07
1.83376e+07
1.83421e+07
1.83466e+07
1.83511e+07
1.83557e+07
1.83603e+07
1.83649e+07
1.83695e+07
1.83742e+07
1.83789e+07
1.83837e+07
1.83884e+07
1.83932e+07
1.83981e+07
1.84029e+07
1.84078e+07
1.84127e+07
1.84176e+07
1.84226e+07
1.84276e+07
1.84326e+07
1.84377e+07
1.84427e+07
1.84478e+07
1.8453e+07
1.84581e+07
1.84633e+07
1.84685e+07
1.84737e+07
1.8479e+07
1.84842e+07
1.84895e+07
1.84948e+07
1.85002e+07
1.85055e+07
1.85109e+07
1.85163e+07
1.85217e+07
1.85272e+07
1.85326e+07
1.85381e+07
1.85436e+07
1.85491e+07
1.85547e+07
1.85602e+07
1.85658e+07
1.85714e+07
1.8577e+07
1.85826e+07
1.85882e+07
1.85939e+07
1.85995e+07
1.86052e+07
1.86109e+07
1.86166e+07
1.86223e+07
1.86281e+07
1.86338e+07
1.86395e+07
1.86453e+07
1.86511e+07
1.86569e+07
1.86626e+07
1.86684e+07
1.86742e+07
1.86801e+07
1.86859e+07
1.86917e+07
1.86975e+07
1.87034e+07
1.87092e+07
1.8715e+07
1.87209e+07
1.87267e+07
1.87326e+07
1.87384e+07
1.87441e+07
1.87498e+07
1.80527e+07
1.80528e+07
1.8053e+07
1.80532e+07
1.80534e+07
1.80537e+07
1.8054e+07
1.80544e+07
1.80548e+07
1.80552e+07
1.80557e+07
1.80561e+07
1.80567e+07
1.80573e+07
1.80579e+07
1.80585e+07
1.80592e+07
1.80599e+07
1.80607e+07
1.80615e+07
1.80624e+07
1.80632e+07
1.80641e+07
1.80651e+07
1.80661e+07
1.80671e+07
1.80682e+07
1.80693e+07
1.80704e+07
1.80716e+07
1.80728e+07
1.80741e+07
1.80754e+07
1.80767e+07
1.80781e+07
1.80795e+07
1.80809e+07
1.80824e+07
1.80839e+07
1.80855e+07
1.8087e+07
1.80887e+07
1.80903e+07
1.8092e+07
1.80938e+07
1.80955e+07
1.80973e+07
1.80992e+07
1.8101e+07
1.8103e+07
1.81049e+07
1.81069e+07
1.81089e+07
1.8111e+07
1.81131e+07
1.81152e+07
1.81174e+07
1.81196e+07
1.81218e+07
1.81241e+07
1.81264e+07
1.81287e+07
1.81311e+07
1.81335e+07
1.8136e+07
1.81385e+07
1.8141e+07
1.81435e+07
1.81461e+07
1.81488e+07
1.81514e+07
1.81541e+07
1.81568e+07
1.81596e+07
1.81624e+07
1.81653e+07
1.81681e+07
1.8171e+07
1.8174e+07
1.8177e+07
1.818e+07
1.8183e+07
1.81861e+07
1.81892e+07
1.81924e+07
1.81956e+07
1.81988e+07
1.82021e+07
1.82053e+07
1.82087e+07
1.8212e+07
1.82154e+07
1.82189e+07
1.82223e+07
1.82258e+07
1.82294e+07
1.82329e+07
1.82365e+07
1.82402e+07
1.82439e+07
1.82476e+07
1.82513e+07
1.82551e+07
1.82589e+07
1.82627e+07
1.82666e+07
1.82705e+07
1.82745e+07
1.82785e+07
1.82825e+07
1.82865e+07
1.82906e+07
1.82947e+07
1.82989e+07
1.8303e+07
1.83072e+07
1.83115e+07
1.83158e+07
1.83201e+07
1.83244e+07
1.83288e+07
1.83332e+07
1.83376e+07
1.83421e+07
1.83466e+07
1.83511e+07
1.83557e+07
1.83603e+07
1.83649e+07
1.83695e+07
1.83742e+07
1.83789e+07
1.83837e+07
1.83884e+07
1.83932e+07
1.83981e+07
1.84029e+07
1.84078e+07
1.84127e+07
1.84176e+07
1.84226e+07
1.84276e+07
1.84326e+07
1.84377e+07
1.84427e+07
1.84478e+07
1.8453e+07
1.84581e+07
1.84633e+07
1.84685e+07
1.84737e+07
1.8479e+07
1.84842e+07
1.84895e+07
1.84948e+07
1.85002e+07
1.85055e+07
1.85109e+07
1.85163e+07
1.85217e+07
1.85272e+07
1.85326e+07
1.85381e+07
1.85436e+07
1.85491e+07
1.85547e+07
1.85602e+07
1.85658e+07
1.85714e+07
1.8577e+07
1.85826e+07
1.85882e+07
1.85939e+07
1.85995e+07
1.86052e+07
1.86109e+07
1.86166e+07
1.86223e+07
1.86281e+07
1.86338e+07
1.86395e+07
1.86453e+07
1.86511e+07
1.86569e+07
1.86626e+07
1.86684e+07
1.86742e+07
1.86801e+07
1.86859e+07
1.86917e+07
1.86975e+07
1.87034e+07
1.87092e+07
1.8715e+07
1.87209e+07
1.87267e+07
1.87326e+07
1.87384e+07
1.87441e+07
1.87498e+07
1.80527e+07
1.80528e+07
1.8053e+07
1.80532e+07
1.80534e+07
1.80537e+07
1.8054e+07
1.80544e+07
1.80548e+07
1.80552e+07
1.80557e+07
1.80561e+07
1.80567e+07
1.80573e+07
1.80579e+07
1.80585e+07
1.80592e+07
1.80599e+07
1.80607e+07
1.80615e+07
1.80624e+07
1.80632e+07
1.80641e+07
1.80651e+07
1.80661e+07
1.80671e+07
1.80682e+07
1.80693e+07
1.80704e+07
1.80716e+07
1.80728e+07
1.80741e+07
1.80754e+07
1.80767e+07
1.80781e+07
1.80795e+07
1.80809e+07
1.80824e+07
1.80839e+07
1.80855e+07
1.8087e+07
1.80887e+07
1.80903e+07
1.8092e+07
1.80938e+07
1.80955e+07
1.80973e+07
1.80992e+07
1.8101e+07
1.8103e+07
1.81049e+07
1.81069e+07
1.81089e+07
1.8111e+07
1.81131e+07
1.81152e+07
1.81174e+07
1.81196e+07
1.81218e+07
1.81241e+07
1.81264e+07
1.81287e+07
1.81311e+07
1.81335e+07
1.8136e+07
1.81385e+07
1.8141e+07
1.81435e+07
1.81461e+07
1.81488e+07
1.81514e+07
1.81541e+07
1.81568e+07
1.81596e+07
1.81624e+07
1.81653e+07
1.81681e+07
1.8171e+07
1.8174e+07
1.8177e+07
1.818e+07
1.8183e+07
1.81861e+07
1.81892e+07
1.81924e+07
1.81956e+07
1.81988e+07
1.82021e+07
1.82053e+07
1.82087e+07
1.8212e+07
1.82154e+07
1.82189e+07
1.82223e+07
1.82258e+07
1.82294e+07
1.82329e+07
1.82365e+07
1.82402e+07
1.82439e+07
1.82476e+07
1.82513e+07
1.82551e+07
1.82589e+07
1.82627e+07
1.82666e+07
1.82705e+07
1.82745e+07
1.82785e+07
1.82825e+07
1.82865e+07
1.82906e+07
1.82947e+07
1.82989e+07
1.8303e+07
1.83072e+07
1.83115e+07
1.83158e+07
1.83201e+07
1.83244e+07
1.83288e+07
1.83332e+07
1.83376e+07
1.83421e+07
1.83466e+07
1.83511e+07
1.83557e+07
1.83603e+07
1.83649e+07
1.83695e+07
1.83742e+07
1.83789e+07
1.83837e+07
1.83884e+07
1.83932e+07
1.83981e+07
1.84029e+07
1.84078e+07
1.84127e+07
1.84176e+07
1.84226e+07
1.84276e+07
1.84326e+07
1.84377e+07
1.84427e+07
1.84478e+07
1.8453e+07
1.84581e+07
1.84633e+07
1.84685e+07
1.84737e+07
1.8479e+07
1.84842e+07
1.84895e+07
1.84948e+07
1.85002e+07
1.85055e+07
1.85109e+07
1.85163e+07
1.85217e+07
1.85272e+07
1.85326e+07
1.85381e+07
1.85436e+07
1.85491e+07
1.85547e+07
1.85602e+07
1.85658e+07
1.85714e+07
1.8577e+07
1.85826e+07
1.85882e+07
1.85939e+07
1.85995e+07
1.86052e+07
1.86109e+07
1.86166e+07
1.86223e+07
1.86281e+07
1.86338e+07
1.86395e+07
1.86453e+07
1.86511e+07
1.86569e+07
1.86626e+07
1.86684e+07
1.86742e+07
1.86801e+07
1.86859e+07
1.86917e+07
1.86975e+07
1.87034e+07
1.87092e+07
1.8715e+07
1.87209e+07
1.87267e+07
1.87326e+07
1.87384e+07
1.87441e+07
1.87498e+07
1.80527e+07
1.80528e+07
1.8053e+07
1.80532e+07
1.80534e+07
1.80537e+07
1.8054e+07
1.80544e+07
1.80548e+07
1.80552e+07
1.80557e+07
1.80561e+07
1.80567e+07
1.80573e+07
1.80579e+07
1.80585e+07
1.80592e+07
1.80599e+07
1.80607e+07
1.80615e+07
1.80624e+07
1.80632e+07
1.80641e+07
1.80651e+07
1.80661e+07
1.80671e+07
1.80682e+07
1.80693e+07
1.80704e+07
1.80716e+07
1.80728e+07
1.80741e+07
1.80754e+07
1.80767e+07
1.80781e+07
1.80795e+07
1.80809e+07
1.80824e+07
1.80839e+07
1.80855e+07
1.8087e+07
1.80887e+07
1.80903e+07
1.8092e+07
1.80938e+07
1.80955e+07
1.80973e+07
1.80992e+07
1.8101e+07
1.8103e+07
1.81049e+07
1.81069e+07
1.81089e+07
1.8111e+07
1.81131e+07
1.81152e+07
1.81174e+07
1.81196e+07
1.81218e+07
1.81241e+07
1.81264e+07
1.81287e+07
1.81311e+07
1.81335e+07
1.8136e+07
1.81385e+07
1.8141e+07
1.81435e+07
1.81461e+07
1.81488e+07
1.81514e+07
1.81541e+07
1.81568e+07
1.81596e+07
1.81624e+07
1.81653e+07
1.81681e+07
1.8171e+07
1.8174e+07
1.8177e+07
1.818e+07
1.8183e+07
1.81861e+07
1.81892e+07
1.81924e+07
1.81956e+07
1.81988e+07
1.82021e+07
1.82053e+07
1.82087e+07
1.8212e+07
1.82154e+07
1.82189e+07
1.82223e+07
1.82258e+07
1.82294e+07
1.82329e+07
1.82365e+07
1.82402e+07
1.82439e+07
1.82476e+07
1.82513e+07
1.82551e+07
1.82589e+07
1.82627e+07
1.82666e+07
1.82705e+07
1.82745e+07
1.82785e+07
1.82825e+07
1.82865e+07
1.82906e+07
1.82947e+07
1.82989e+07
1.8303e+07
1.83072e+07
1.83115e+07
1.83158e+07
1.83201e+07
1.83244e+07
1.83288e+07
1.83332e+07
1.83376e+07
1.83421e+07
1.83466e+07
1.83511e+07
1.83557e+07
1.83603e+07
1.83649e+07
1.83695e+07
1.83742e+07
1.83789e+07
1.83837e+07
1.83884e+07
1.83932e+07
1.83981e+07
1.84029e+07
1.84078e+07
1.84127e+07
1.84176e+07
1.84226e+07
1.84276e+07
1.84326e+07
1.84377e+07
1.84427e+07
1.84478e+07
1.8453e+07
1.84581e+07
1.84633e+07
1.84685e+07
1.84737e+07
1.8479e+07
1.84842e+07
1.84895e+07
1.84948e+07
1.85002e+07
1.85055e+07
1.85109e+07
1.85163e+07
1.85217e+07
1.85272e+07
1.85326e+07
1.85381e+07
1.85436e+07
1.85491e+07
1.85547e+07
1.85602e+07
1.85658e+07
1.85714e+07
1.8577e+07
1.85826e+07
1.85882e+07
1.85939e+07
1.85995e+07
1.86052e+07
1.86109e+07
1.86166e+07
1.86223e+07
1.86281e+07
1.86338e+07
1.86395e+07
1.86453e+07
1.86511e+07
1.86569e+07
1.86626e+07
1.86684e+07
1.86742e+07
1.86801e+07
1.86859e+07
1.86917e+07
1.86975e+07
1.87034e+07
1.87092e+07
1.8715e+07
1.87209e+07
1.87267e+07
1.87326e+07
1.87384e+07
1.87441e+07
1.87498e+07
1.87563e+07
1.87587e+07
1.87602e+07
1.87614e+07
1.87625e+07
1.87636e+07
1.87647e+07
1.87658e+07
1.87668e+07
1.87679e+07
1.87689e+07
1.877e+07
1.8771e+07
1.8772e+07
1.8773e+07
1.8774e+07
1.87749e+07
1.87758e+07
1.87766e+07
1.87772e+07
1.87561e+07
1.87583e+07
1.87599e+07
1.8761e+07
1.87622e+07
1.87633e+07
1.87644e+07
1.87654e+07
1.87665e+07
1.87676e+07
1.87686e+07
1.87697e+07
1.87707e+07
1.87717e+07
1.87727e+07
1.87736e+07
1.87746e+07
1.87754e+07
1.87762e+07
1.87769e+07
1.8756e+07
1.87583e+07
1.87599e+07
1.87611e+07
1.87622e+07
1.87633e+07
1.87643e+07
1.87654e+07
1.87665e+07
1.87676e+07
1.87686e+07
1.87696e+07
1.87706e+07
1.87717e+07
1.87726e+07
1.87736e+07
1.87745e+07
1.87754e+07
1.87761e+07
1.87768e+07
1.87553e+07
1.87569e+07
1.87582e+07
1.87593e+07
1.87604e+07
1.87615e+07
1.87626e+07
1.87637e+07
1.87648e+07
1.87659e+07
1.87669e+07
1.8768e+07
1.8769e+07
1.877e+07
1.8771e+07
1.8772e+07
1.87729e+07
1.87737e+07
1.87745e+07
1.87753e+07
1.87548e+07
1.87564e+07
1.87579e+07
1.87593e+07
1.87605e+07
1.87617e+07
1.87628e+07
1.87638e+07
1.87649e+07
1.87659e+07
1.87669e+07
1.87678e+07
1.87688e+07
1.87698e+07
1.87707e+07
1.87716e+07
1.87725e+07
1.87733e+07
1.87742e+07
1.8775e+07
1.87527e+07
1.87533e+07
1.87539e+07
1.87546e+07
1.87554e+07
1.87562e+07
1.87572e+07
1.87582e+07
1.87592e+07
1.87604e+07
1.87615e+07
1.87626e+07
1.87637e+07
1.87649e+07
1.87659e+07
1.8767e+07
1.87681e+07
1.87692e+07
1.87704e+07
1.87716e+07
1.87515e+07
1.87522e+07
1.87532e+07
1.87544e+07
1.87555e+07
1.87565e+07
1.87575e+07
1.87585e+07
1.87596e+07
1.87604e+07
1.87615e+07
1.87624e+07
1.87634e+07
1.87643e+07
1.87653e+07
1.87664e+07
1.87674e+07
1.87686e+07
1.87698e+07
1.87712e+07
1.87487e+07
1.87479e+07
1.87474e+07
1.87474e+07
1.87479e+07
1.87485e+07
1.87493e+07
1.87502e+07
1.87513e+07
1.87523e+07
1.87535e+07
1.87548e+07
1.87561e+07
1.87574e+07
1.87589e+07
1.87604e+07
1.87621e+07
1.87638e+07
1.87657e+07
1.87677e+07
1.8748e+07
1.87473e+07
1.8747e+07
1.87473e+07
1.87478e+07
1.87485e+07
1.87493e+07
1.87502e+07
1.87512e+07
1.87523e+07
1.87535e+07
1.87547e+07
1.87559e+07
1.87573e+07
1.87587e+07
1.87601e+07
1.87617e+07
1.87634e+07
1.87653e+07
1.87673e+07
1.87472e+07
1.87456e+07
1.8745e+07
1.87451e+07
1.87455e+07
1.87461e+07
1.87469e+07
1.87478e+07
1.87488e+07
1.87499e+07
1.87511e+07
1.87523e+07
1.87537e+07
1.87551e+07
1.87566e+07
1.87581e+07
1.87598e+07
1.87617e+07
1.87637e+07
1.87659e+07
1.87776e+07
1.87809e+07
1.87851e+07
1.87896e+07
1.87941e+07
1.87986e+07
1.88031e+07
1.88077e+07
1.88122e+07
1.88168e+07
1.88213e+07
1.88259e+07
1.88304e+07
1.8835e+07
1.88395e+07
1.88441e+07
1.88486e+07
1.88531e+07
1.88577e+07
1.88622e+07
1.88667e+07
1.88712e+07
1.88757e+07
1.88802e+07
1.88847e+07
1.88892e+07
1.88936e+07
1.88981e+07
1.89026e+07
1.8907e+07
1.89115e+07
1.89159e+07
1.89203e+07
1.89247e+07
1.89291e+07
1.89335e+07
1.89379e+07
1.89423e+07
1.89467e+07
1.8951e+07
1.89554e+07
1.89597e+07
1.8964e+07
1.89684e+07
1.89727e+07
1.89769e+07
1.89812e+07
1.89855e+07
1.89897e+07
1.8994e+07
1.89982e+07
1.90024e+07
1.90066e+07
1.90108e+07
1.9015e+07
1.90192e+07
1.90233e+07
1.90275e+07
1.90316e+07
1.90357e+07
1.90398e+07
1.90439e+07
1.90479e+07
1.9052e+07
1.9056e+07
1.906e+07
1.9064e+07
1.9068e+07
1.9072e+07
1.9076e+07
1.90799e+07
1.90838e+07
1.90877e+07
1.90916e+07
1.90955e+07
1.90994e+07
1.91032e+07
1.91071e+07
1.91109e+07
1.91147e+07
1.91185e+07
1.91222e+07
1.9126e+07
1.91297e+07
1.91334e+07
1.91371e+07
1.91408e+07
1.91445e+07
1.91481e+07
1.91517e+07
1.91553e+07
1.91589e+07
1.91625e+07
1.9166e+07
1.91696e+07
1.91731e+07
1.91766e+07
1.918e+07
1.91835e+07
1.91869e+07
1.91903e+07
1.91936e+07
1.9197e+07
1.92003e+07
1.92036e+07
1.92069e+07
1.92102e+07
1.92134e+07
1.92167e+07
1.92199e+07
1.92231e+07
1.92262e+07
1.92294e+07
1.92325e+07
1.92356e+07
1.92387e+07
1.92417e+07
1.92448e+07
1.92478e+07
1.92508e+07
1.92538e+07
1.92567e+07
1.92596e+07
1.92626e+07
1.92654e+07
1.92683e+07
1.92712e+07
1.9274e+07
1.92768e+07
1.92796e+07
1.92823e+07
1.92851e+07
1.92878e+07
1.92905e+07
1.92932e+07
1.92958e+07
1.92984e+07
1.93011e+07
1.93036e+07
1.93062e+07
1.93088e+07
1.93113e+07
1.93138e+07
1.93163e+07
1.93187e+07
1.93212e+07
1.93236e+07
1.9326e+07
1.93283e+07
1.93307e+07
1.9333e+07
1.93353e+07
1.93376e+07
1.93399e+07
1.93421e+07
1.93443e+07
1.93465e+07
1.93487e+07
1.93508e+07
1.9353e+07
1.93551e+07
1.93572e+07
1.93592e+07
1.93613e+07
1.93633e+07
1.93653e+07
1.93673e+07
1.93692e+07
1.93712e+07
1.93731e+07
1.9375e+07
1.93769e+07
1.93787e+07
1.93805e+07
1.93823e+07
1.93841e+07
1.93859e+07
1.93876e+07
1.93893e+07
1.9391e+07
1.93927e+07
1.93944e+07
1.9396e+07
1.93976e+07
1.93992e+07
1.94008e+07
1.94023e+07
1.94039e+07
1.94054e+07
1.94069e+07
1.94083e+07
1.94098e+07
1.94112e+07
1.94126e+07
1.9414e+07
1.94154e+07
1.94167e+07
1.94181e+07
1.94194e+07
1.94207e+07
1.87775e+07
1.87809e+07
1.87851e+07
1.87896e+07
1.87941e+07
1.87986e+07
1.88031e+07
1.88077e+07
1.88122e+07
1.88168e+07
1.88213e+07
1.88259e+07
1.88304e+07
1.8835e+07
1.88395e+07
1.88441e+07
1.88486e+07
1.88531e+07
1.88577e+07
1.88622e+07
1.88667e+07
1.88712e+07
1.88757e+07
1.88802e+07
1.88847e+07
1.88892e+07
1.88936e+07
1.88981e+07
1.89026e+07
1.8907e+07
1.89115e+07
1.89159e+07
1.89203e+07
1.89247e+07
1.89291e+07
1.89335e+07
1.89379e+07
1.89423e+07
1.89467e+07
1.8951e+07
1.89554e+07
1.89597e+07
1.8964e+07
1.89684e+07
1.89727e+07
1.89769e+07
1.89812e+07
1.89855e+07
1.89897e+07
1.8994e+07