/*--------------------------------*- C++ -*----------------------------------*\
| =========                 |                                                 |
| \\      /  F ield         | OpenFOAM: The Open Source CFD Toolbox           |
|  \\    /   O peration     | Version:  3.0.x                                 |
|   \\  /    A nd           | Web:      www.OpenFOAM.org                      |
|    \\/     M anipulation  |                                                 |
\*---------------------------------------------------------------------------*/
FoamFile
{
    version     2.0;
    format      ascii;
    class       volScalarField;
    location    "0.5";
    object      T;
}
// * * * * * * * * * * * * * * * * * * * * * * * * * * * * * * * * * * * * * //

dimensions      [0 0 0 1 0 0 0];

internalField   nonuniform List<scalar> 
13800
(
773.405
773.401
773.398
773.398
773.398
773.399
773.401
773.404
773.407
773.41
773.413
773.416
773.42
773.424
773.429
773.433
773.438
773.443
773.449
773.454
773.46
773.467
773.473
773.48
773.487
773.494
773.502
773.51
773.518
773.526
773.535
773.544
773.553
773.563
773.572
773.582
773.593
773.603
773.614
773.625
773.637
773.649
773.661
773.673
773.685
773.697
773.71
773.722
773.736
773.749
773.763
773.777
773.792
773.806
773.821
773.837
773.852
773.868
773.883
773.899
773.915
773.931
773.947
773.964
773.981
773.999
774.016
774.035
774.053
774.072
774.091
774.11
774.129
774.148
774.168
774.188
774.208
774.228
774.249
774.27
774.291
774.313
774.335
774.357
774.379
774.402
774.425
774.448
774.471
774.495
774.519
774.543
774.567
774.592
774.617
774.642
774.667
774.693
774.719
774.745
774.771
774.798
774.825
774.852
774.879
774.906
774.934
774.962
774.99
775.019
775.047
775.076
775.105
775.135
775.164
775.194
775.224
775.254
775.285
775.315
775.346
775.377
775.409
775.44
775.472
775.504
775.536
775.568
775.601
775.634
775.667
775.7
775.733
775.767
775.801
775.835
775.869
775.904
775.938
775.973
776.008
776.043
776.078
776.114
776.149
776.185
776.221
776.257
776.294
776.33
776.367
776.404
776.441
776.478
776.515
776.553
776.59
776.628
776.666
776.704
776.742
776.78
776.819
776.857
776.896
776.934
776.973
777.012
777.051
777.09
777.13
777.169
777.208
777.248
777.288
777.327
777.367
777.407
777.447
777.487
777.527
777.567
777.607
777.648
777.687
777.729
777.767
777.811
777.847
777.893
777.927
777.975
778.007
778.057
778.087
778.14
778.168
778.222
778.253
778.302
773.397
773.393
773.39
773.39
773.39
773.391
773.394
773.396
773.399
773.402
773.405
773.409
773.413
773.417
773.421
773.426
773.431
773.436
773.441
773.447
773.453
773.459
773.466
773.473
773.48
773.487
773.495
773.503
773.511
773.519
773.528
773.537
773.546
773.556
773.566
773.576
773.586
773.596
773.607
773.619
773.63
773.642
773.654
773.666
773.678
773.691
773.703
773.716
773.729
773.743
773.757
773.771
773.785
773.8
773.815
773.83
773.846
773.862
773.877
773.893
773.909
773.925
773.941
773.958
773.975
773.993
774.011
774.029
774.048
774.066
774.085
774.104
774.124
774.143
774.162
774.182
774.202
774.223
774.244
774.265
774.286
774.308
774.33
774.352
774.374
774.397
774.42
774.443
774.466
774.49
774.514
774.538
774.562
774.587
774.612
774.637
774.662
774.688
774.714
774.74
774.766
774.793
774.819
774.846
774.874
774.901
774.929
774.957
774.985
775.013
775.042
775.071
775.1
775.129
775.159
775.189
775.219
775.249
775.279
775.31
775.341
775.372
775.403
775.435
775.467
775.499
775.531
775.563
775.596
775.629
775.662
775.695
775.728
775.762
775.796
775.83
775.864
775.898
775.933
775.968
776.003
776.038
776.073
776.109
776.144
776.18
776.216
776.252
776.289
776.325
776.362
776.399
776.436
776.473
776.51
776.548
776.585
776.623
776.661
776.699
776.737
776.775
776.814
776.852
776.891
776.929
776.968
777.007
777.046
777.085
777.125
777.164
777.203
777.243
777.283
777.322
777.362
777.402
777.442
777.482
777.522
777.562
777.602
777.643
777.682
777.724
777.762
777.806
777.842
777.888
777.922
777.97
778.002
778.052
778.082
778.135
778.162
778.217
778.246
778.317
773.397
773.393
773.39
773.39
773.39
773.391
773.394
773.396
773.399
773.402
773.405
773.409
773.413
773.417
773.421
773.426
773.431
773.436
773.441
773.447
773.453
773.459
773.466
773.473
773.48
773.487
773.495
773.503
773.511
773.519
773.528
773.537
773.546
773.556
773.566
773.575
773.586
773.596
773.607
773.619
773.63
773.642
773.654
773.666
773.678
773.691
773.703
773.716
773.729
773.743
773.757
773.771
773.785
773.8
773.815
773.83
773.846
773.862
773.877
773.893
773.909
773.925
773.941
773.958
773.975
773.993
774.011
774.029
774.047
774.066
774.085
774.104
774.124
774.143
774.162
774.182
774.202
774.223
774.244
774.265
774.286
774.308
774.33
774.352
774.374
774.397
774.42
774.443
774.466
774.49
774.514
774.538
774.562
774.587
774.612
774.637
774.662
774.688
774.714
774.74
774.766
774.793
774.819
774.846
774.874
774.901
774.929
774.957
774.985
775.013
775.042
775.071
775.1
775.129
775.159
775.189
775.219
775.249
775.279
775.31
775.341
775.372
775.403
775.435
775.467
775.499
775.531
775.563
775.596
775.629
775.662
775.695
775.728
775.762
775.796
775.83
775.864
775.898
775.933
775.968
776.003
776.038
776.073
776.109
776.144
776.18
776.216
776.252
776.289
776.325
776.362
776.399
776.436
776.473
776.51
776.548
776.585
776.623
776.661
776.699
776.737
776.775
776.814
776.852
776.891
776.929
776.968
777.007
777.046
777.085
777.125
777.164
777.203
777.243
777.283
777.322
777.362
777.402
777.442
777.482
777.522
777.562
777.602
777.643
777.682
777.724
777.762
777.806
777.842
777.888
777.922
777.97
778.002
778.052
778.082
778.135
778.162
778.217
778.246
778.317
773.397
773.393
773.39
773.39
773.39
773.391
773.394
773.396
773.399
773.402
773.405
773.409
773.413
773.417
773.421
773.426
773.431
773.436
773.441
773.447
773.453
773.459
773.466
773.473
773.48
773.487
773.495
773.503
773.511
773.519
773.528
773.537
773.546
773.556
773.566
773.576
773.586
773.596
773.607
773.619
773.63
773.642
773.654
773.666
773.678
773.691
773.703
773.716
773.729
773.743
773.757
773.771
773.785
773.8
773.815
773.83
773.846
773.862
773.877
773.893
773.909
773.925
773.941
773.958
773.975
773.993
774.011
774.029
774.048
774.066
774.085
774.104
774.124
774.143
774.162
774.182
774.202
774.223
774.244
774.265
774.286
774.308
774.33
774.352
774.374
774.397
774.42
774.443
774.466
774.49
774.514
774.538
774.562
774.587
774.612
774.637
774.662
774.688
774.714
774.74
774.766
774.793
774.819
774.846
774.874
774.901
774.929
774.957
774.985
775.013
775.042
775.071
775.1
775.129
775.159
775.189
775.219
775.249
775.279
775.31
775.341
775.372
775.403
775.435
775.467
775.499
775.531
775.563
775.596
775.629
775.662
775.695
775.728
775.762
775.796
775.83
775.864
775.898
775.933
775.968
776.003
776.038
776.073
776.109
776.144
776.18
776.216
776.252
776.289
776.325
776.362
776.399
776.436
776.473
776.51
776.548
776.585
776.623
776.661
776.699
776.737
776.775
776.814
776.852
776.891
776.929
776.968
777.007
777.046
777.085
777.125
777.164
777.203
777.243
777.283
777.322
777.362
777.402
777.442
777.482
777.522
777.562
777.602
777.643
777.682
777.724
777.762
777.806
777.842
777.888
777.922
777.97
778.002
778.052
778.082
778.135
778.163
778.217
778.246
778.306
773.397
773.394
773.39
773.39
773.39
773.392
773.394
773.396
773.399
773.402
773.405
773.409
773.413
773.417
773.421
773.426
773.431
773.436
773.441
773.447
773.453
773.459
773.466
773.473
773.48
773.487
773.495
773.503
773.511
773.519
773.528
773.537
773.546
773.556
773.566
773.576
773.586
773.596
773.607
773.619
773.63
773.642
773.654
773.666
773.678
773.691
773.703
773.716
773.729
773.743
773.757
773.771
773.785
773.8
773.815
773.83
773.846
773.862
773.877
773.893
773.909
773.925
773.941
773.958
773.975
773.993
774.011
774.029
774.048
774.066
774.085
774.104
774.124
774.143
774.162
774.182
774.202
774.223
774.244
774.265
774.286
774.308
774.33
774.352
774.374
774.397
774.42
774.443
774.466
774.49
774.514
774.538
774.562
774.587
774.612
774.637
774.662
774.688
774.714
774.74
774.766
774.793
774.819
774.846
774.874
774.901
774.929
774.957
774.985
775.013
775.042
775.071
775.1
775.129
775.159
775.189
775.219
775.249
775.279
775.31
775.341
775.372
775.403
775.435
775.467
775.499
775.531
775.563
775.596
775.629
775.662
775.695
775.728
775.762
775.796
775.83
775.864
775.898
775.933
775.968
776.003
776.038
776.073
776.109
776.144
776.18
776.216
776.252
776.289
776.325
776.362
776.399
776.436
776.473
776.51
776.548
776.585
776.623
776.661
776.699
776.737
776.775
776.814
776.852
776.891
776.929
776.968
777.007
777.046
777.085
777.125
777.164
777.203
777.243
777.283
777.322
777.362
777.402
777.442
777.482
777.522
777.562
777.602
777.643
777.682
777.724
777.762
777.806
777.842
777.888
777.922
777.97
778.002
778.052
778.083
778.134
778.163
778.216
778.244
778.306
773.397
773.394
773.39
773.39
773.39
773.392
773.394
773.396
773.399
773.402
773.405
773.409
773.413
773.417
773.421
773.426
773.431
773.436
773.441
773.447
773.453
773.459
773.466
773.473
773.48
773.487
773.495
773.503
773.511
773.519
773.528
773.537
773.546
773.556
773.566
773.576
773.586
773.596
773.607
773.619
773.63
773.642
773.654
773.666
773.678
773.691
773.703
773.716
773.729
773.743
773.757
773.771
773.785
773.8
773.815
773.83
773.846
773.862
773.877
773.893
773.909
773.925
773.941
773.958
773.975
773.993
774.011
774.029
774.048
774.066
774.085
774.104
774.124
774.143
774.162
774.182
774.202
774.223
774.244
774.265
774.286
774.308
774.33
774.352
774.374
774.397
774.42
774.443
774.466
774.49
774.514
774.538
774.562
774.587
774.612
774.637
774.662
774.688
774.714
774.74
774.766
774.793
774.819
774.846
774.874
774.901
774.929
774.957
774.985
775.013
775.042
775.071
775.1
775.129
775.159
775.189
775.219
775.249
775.279
775.31
775.341
775.372
775.403
775.435
775.467
775.499
775.531
775.563
775.596
775.629
775.662
775.695
775.728
775.762
775.796
775.83
775.864
775.898
775.933
775.968
776.003
776.038
776.073
776.109
776.144
776.18
776.216
776.252
776.289
776.325
776.362
776.399
776.436
776.473
776.51
776.548
776.585
776.623
776.661
776.699
776.737
776.775
776.814
776.852
776.891
776.929
776.968
777.007
777.046
777.085
777.125
777.164
777.203
777.243
777.283
777.322
777.362
777.402
777.442
777.482
777.522
777.562
777.602
777.643
777.683
777.723
777.764
777.804
777.845
777.884
777.927
777.963
778.01
778.045
778.088
778.13
778.167
778.211
778.25
778.286
773.397
773.393
773.39
773.39
773.39
773.391
773.394
773.396
773.399
773.402
773.405
773.409
773.413
773.417
773.421
773.426
773.431
773.436
773.441
773.447
773.453
773.459
773.466
773.473
773.48
773.487
773.495
773.503
773.511
773.519
773.528
773.537
773.546
773.556
773.566
773.576
773.586
773.596
773.607
773.619
773.63
773.642
773.654
773.666
773.678
773.691
773.703
773.716
773.729
773.743
773.757
773.771
773.785
773.8
773.815
773.83
773.846
773.862
773.877
773.893
773.909
773.925
773.941
773.958
773.975
773.993
774.011
774.029
774.048
774.066
774.085
774.104
774.124
774.143
774.162
774.182
774.202
774.223
774.244
774.265
774.286
774.308
774.33
774.352
774.374
774.397
774.42
774.443
774.466
774.49
774.514
774.538
774.562
774.587
774.612
774.637
774.662
774.688
774.714
774.74
774.766
774.793
774.819
774.846
774.874
774.901
774.929
774.957
774.985
775.013
775.042
775.071
775.1
775.129
775.159
775.189
775.219
775.249
775.279
775.31
775.341
775.372
775.403
775.435
775.467
775.499
775.531
775.563
775.596
775.629
775.662
775.695
775.728
775.762
775.796
775.83
775.864
775.898
775.933
775.968
776.003
776.038
776.073
776.109
776.144
776.18
776.216
776.252
776.289
776.325
776.362
776.399
776.436
776.473
776.51
776.548
776.585
776.623
776.661
776.699
776.737
776.775
776.814
776.852
776.891
776.929
776.968
777.007
777.046
777.085
777.125
777.164
777.203
777.243
777.283
777.322
777.362
777.402
777.442
777.482
777.522
777.562
777.603
777.642
777.684
777.722
777.765
777.802
777.847
777.882
777.929
777.963
778.011
778.043
778.093
778.122
778.176
778.202
778.261
778.279
773.397
773.393
773.39
773.39
773.39
773.391
773.394
773.396
773.399
773.402
773.405
773.409
773.413
773.417
773.421
773.426
773.431
773.436
773.441
773.447
773.453
773.459
773.466
773.473
773.48
773.487
773.495
773.503
773.511
773.519
773.528
773.537
773.546
773.556
773.566
773.575
773.586
773.596
773.607
773.619
773.63
773.642
773.654
773.666
773.678
773.691
773.703
773.716
773.729
773.743
773.757
773.771
773.785
773.8
773.815
773.83
773.846
773.862
773.877
773.893
773.909
773.925
773.941
773.958
773.975
773.993
774.011
774.029
774.047
774.066
774.085
774.104
774.124
774.143
774.162
774.182
774.202
774.223
774.244
774.265
774.286
774.308
774.33
774.352
774.374
774.397
774.42
774.443
774.466
774.49
774.514
774.538
774.562
774.587
774.612
774.637
774.662
774.688
774.714
774.74
774.766
774.793
774.819
774.846
774.874
774.901
774.929
774.957
774.985
775.013
775.042
775.071
775.1
775.129
775.159
775.189
775.219
775.249
775.279
775.31
775.341
775.372
775.403
775.435
775.467
775.499
775.531
775.563
775.596
775.629
775.662
775.695
775.728
775.762
775.796
775.83
775.864
775.898
775.933
775.968
776.003
776.038
776.073
776.109
776.144
776.18
776.216
776.252
776.289
776.325
776.362
776.399
776.436
776.473
776.51
776.548
776.585
776.623
776.661
776.699
776.737
776.775
776.814
776.852
776.891
776.929
776.968
777.007
777.046
777.085
777.125
777.164
777.203
777.243
777.283
777.322
777.362
777.402
777.442
777.482
777.522
777.562
777.603
777.642
777.684
777.722
777.765
777.802
777.847
777.882
777.929
777.962
778.011
778.042
778.093
778.122
778.176
778.201
778.27
778.25
773.397
773.393
773.39
773.39
773.39
773.391
773.394
773.396
773.399
773.402
773.405
773.409
773.413
773.417
773.421
773.426
773.431
773.436
773.441
773.447
773.453
773.459
773.466
773.473
773.48
773.487
773.495
773.503
773.511
773.519
773.528
773.537
773.546
773.556
773.566
773.576
773.586
773.596
773.607
773.619
773.63
773.642
773.654
773.666
773.678
773.691
773.703
773.716
773.729
773.743
773.757
773.771
773.785
773.8
773.815
773.83
773.846
773.862
773.877
773.893
773.909
773.925
773.941
773.958
773.975
773.993
774.011
774.029
774.048
774.066
774.085
774.104
774.124
774.143
774.162
774.182
774.202
774.223
774.244
774.265
774.286
774.308
774.33
774.352
774.374
774.397
774.42
774.443
774.466
774.49
774.514
774.538
774.562
774.587
774.612
774.637
774.662
774.688
774.714
774.74
774.766
774.793
774.819
774.846
774.874
774.901
774.929
774.957
774.985
775.013
775.042
775.071
775.1
775.129
775.159
775.189
775.219
775.249
775.279
775.31
775.341
775.372
775.403
775.435
775.467
775.499
775.531
775.563
775.596
775.629
775.662
775.695
775.728
775.762
775.796
775.83
775.864
775.898
775.933
775.968
776.003
776.038
776.073
776.109
776.144
776.18
776.216
776.252
776.289
776.325
776.362
776.399
776.436
776.473
776.51
776.548
776.585
776.623
776.661
776.699
776.737
776.775
776.814
776.852
776.891
776.929
776.968
777.007
777.046
777.085
777.125
777.164
777.203
777.243
777.283
777.322
777.362
777.402
777.442
777.482
777.522
777.562
777.603
777.642
777.684
777.722
777.765
777.802
777.848
777.882
777.93
777.962
778.012
778.042
778.094
778.122
778.176
778.201
778.273
778.224
773.405
773.401
773.398
773.398
773.398
773.399
773.401
773.404
773.407
773.41
773.413
773.416
773.42
773.424
773.429
773.433
773.438
773.443
773.449
773.454
773.46
773.467
773.473
773.48
773.487
773.494
773.502
773.51
773.518
773.526
773.535
773.544
773.553
773.563
773.572
773.582
773.593
773.603
773.614
773.625
773.637
773.649
773.661
773.673
773.685
773.697
773.71
773.722
773.736
773.749
773.763
773.777
773.792
773.806
773.821
773.837
773.852
773.868
773.883
773.899
773.915
773.931
773.947
773.964
773.981
773.999
774.016
774.035
774.053
774.072
774.091
774.11
774.129
774.148
774.168
774.188
774.208
774.228
774.249
774.27
774.291
774.313
774.335
774.357
774.379
774.402
774.425
774.448
774.471
774.495
774.519
774.543
774.567
774.592
774.617
774.642
774.667
774.693
774.719
774.745
774.771
774.798
774.825
774.852
774.879
774.906
774.934
774.962
774.99
775.019
775.047
775.076
775.105
775.135
775.164
775.194
775.224
775.254
775.285
775.315
775.346
775.377
775.409
775.44
775.472
775.504
775.536
775.568
775.601
775.634
775.667
775.7
775.733
775.767
775.801
775.835
775.869
775.904
775.938
775.973
776.008
776.043
776.078
776.114
776.149
776.185
776.221
776.257
776.294
776.33
776.367
776.404
776.441
776.478
776.515
776.553
776.59
776.628
776.666
776.704
776.742
776.78
776.819
776.857
776.896
776.934
776.973
777.012
777.051
777.09
777.13
777.169
777.208
777.248
777.288
777.327
777.367
777.407
777.447
777.487
777.527
777.567
777.608
777.647
777.689
777.727
777.77
777.807
777.852
777.887
777.934
777.966
778.017
778.047
778.099
778.127
778.181
778.206
778.281
778.201
778.357
778.38
778.394
778.403
778.411
778.419
778.428
778.437
778.445
778.454
778.462
778.471
778.479
778.487
778.495
778.501
778.506
778.511
778.514
778.514
778.349
778.368
778.381
778.392
778.402
778.411
778.419
778.426
778.433
778.44
778.447
778.455
778.462
778.47
778.477
778.483
778.489
778.494
778.5
778.503
778.347
778.365
778.379
778.391
778.401
778.411
778.42
778.427
778.435
778.441
778.446
778.454
778.459
778.466
778.473
778.479
778.487
778.491
778.498
778.5
778.336
778.348
778.359
778.368
778.379
778.39
778.4
778.411
778.421
778.432
778.441
778.45
778.459
778.467
778.476
778.482
778.49
778.496
778.503
778.506
778.326
778.339
778.35
778.359
778.368
778.376
778.385
778.392
778.399
778.405
778.412
778.417
778.425
778.43
778.436
778.441
778.448
778.454
778.46
778.467
778.309
778.313
778.32
778.325
778.334
778.34
778.349
778.357
778.368
778.379
778.391
778.401
778.414
778.425
778.438
778.449
778.462
778.473
778.485
778.493
778.297
778.303
778.31
778.317
778.323
778.328
778.332
778.335
778.339
778.339
778.341
778.343
778.346
778.349
778.352
778.356
778.362
778.367
778.376
778.385
778.262
778.261
778.263
778.268
778.273
778.279
778.285
778.292
778.3
778.308
778.318
778.327
778.339
778.349
778.361
778.374
778.387
778.399
778.414
778.426
778.238
778.234
778.235
778.238
778.24
778.244
778.248
778.253
778.258
778.263
778.269
778.275
778.282
778.289
778.298
778.307
778.318
778.33
778.343
778.359
778.223
778.218
778.214
778.216
778.22
778.224
778.229
778.237
778.246
778.255
778.265
778.277
778.288
778.3
778.313
778.327
778.342
778.359
778.375
778.395
778.533
778.545
778.57
778.601
778.63
778.658
778.685
778.715
778.747
778.778
778.809
778.84
778.87
778.901
778.932
778.963
778.994
779.025
779.056
779.088
779.119
779.151
779.182
779.213
779.244
779.275
779.306
779.336
779.367
779.397
779.428
779.458
779.489
779.52
779.55
779.58
779.611
779.641
779.671
779.701
779.731
779.76
779.79
779.82
779.849
779.879
779.908
779.937
779.967
779.996
780.024
780.053
780.082
780.111
780.14
780.168
780.197
780.225
780.254
780.282
780.31
780.338
780.366
780.393
780.421
780.449
780.476
780.503
780.53
780.558
780.585
780.611
780.638
780.664
780.69
780.717
780.744
780.77
780.796
780.82
780.844
780.866
780.889
780.914
780.94
780.966
780.988
781.003
781.011
781.026
781.06
781.156
781.477
782.232
783.053
783.802
784.418
784.863
785.124
785.228
785.235
785.16
784.739
783.766
782.89
782.223
781.769
781.498
781.36
781.305
781.293
781.31
781.388
781.475
781.541
781.592
781.633
781.666
781.694
781.72
781.743
781.765
781.786
781.807
781.827
781.847
781.866
781.886
781.905
781.924
781.943
781.962
781.98
781.998
782.016
782.034
782.052
782.07
782.088
782.105
782.122
782.139
782.156
782.173
782.19
782.206
782.222
782.238
782.255
782.27
782.286
782.302
782.317
782.332
782.348
782.363
782.377
782.392
782.407
782.421
782.435
782.449
782.463
782.477
782.491
782.504
782.518
782.531
782.544
782.557
782.57
782.582
782.595
782.607
782.619
782.631
782.643
782.654
782.667
782.677
782.69
782.699
782.714
782.72
782.736
782.741
782.757
782.761
782.778
782.781
782.798
782.801
782.817
782.82
782.836
782.839
782.854
782.856
782.876
782.878
778.521
778.534
778.558
778.587
778.618
778.645
778.673
778.702
778.732
778.764
778.795
778.825
778.855
778.886
778.917
778.948
778.979
779.01
779.041
779.072
779.104
779.135
779.166
779.197
779.228
779.259
779.29
779.321
779.351
779.382
779.412
779.443
779.473
779.504
779.534
779.564
779.595
779.625
779.655
779.685
779.715
779.744
779.774
779.804
779.833
779.863
779.892
779.921
779.951
779.98
780.009
780.037
780.066
780.095
780.123
780.152
780.18
780.209
780.237
780.266
780.294
780.322
780.35
780.377
780.405
780.432
780.46
780.487
780.514
780.541
780.568
780.595
780.622
780.649
780.675
780.701
780.728
780.754
780.779
780.805
780.83
780.854
780.879
780.905
780.932
780.958
780.981
780.999
781.014
781.026
781.037
781.046
781.048
781.048
781.05
781.062
781.105
781.223
781.375
781.527
781.661
781.763
781.822
781.838
781.834
781.798
781.695
781.607
781.555
781.526
781.512
781.509
781.522
781.557
781.59
781.62
781.647
781.672
781.695
781.718
781.74
781.761
781.782
781.802
781.822
781.842
781.862
781.881
781.901
781.92
781.938
781.957
781.975
781.994
782.012
782.03
782.048
782.065
782.083
782.1
782.118
782.135
782.152
782.168
782.185
782.202
782.218
782.234
782.25
782.266
782.282
782.297
782.313
782.328
782.343
782.358
782.373
782.388
782.402
782.417
782.431
782.445
782.459
782.473
782.486
782.5
782.513
782.526
782.539
782.552
782.565
782.578
782.59
782.603
782.615
782.627
782.639
782.65
782.663
782.673
782.686
782.694
782.709
782.715
782.731
782.736
782.753
782.757
782.773
782.777
782.793
782.797
782.813
782.816
782.831
782.835
782.85
782.852
782.869
782.876
778.517
778.533
778.559
778.589
778.62
778.648
778.676
778.705
778.735
778.767
778.797
778.828
778.858
778.889
778.92
778.951
778.982
779.013
779.044
779.075
779.106
779.138
779.169
779.2
779.231
779.262
779.293
779.324
779.354
779.385
779.415
779.446
779.476
779.506
779.537
779.567
779.598
779.628
779.658
779.688
779.717
779.747
779.777
779.807
779.836
779.866
779.895
779.924
779.953
779.983
780.011
780.04
780.069
780.097
780.126
780.155
780.183
780.212
780.24
780.268
780.296
780.324
780.352
780.38
780.408
780.435
780.462
780.49
780.517
780.544
780.571
780.598
780.625
780.651
780.678
780.704
780.731
780.757
780.783
780.809
780.834
780.859
780.883
780.906
780.931
780.959
780.989
781.016
781.036
781.04
781.038
781.026
780.989
780.951
780.929
780.916
780.909
780.906
780.911
780.948
781.051
781.169
781.279
781.374
781.449
781.501
781.535
781.553
781.562
781.565
781.569
781.576
781.586
781.601
781.618
781.637
781.657
781.678
781.699
781.72
781.741
781.762
781.782
781.802
781.823
781.842
781.862
781.881
781.901
781.92
781.938
781.957
781.975
781.994
782.012
782.03
782.048
782.065
782.083
782.1
782.118
782.135
782.152
782.168
782.185
782.201
782.218
782.234
782.25
782.266
782.282
782.297
782.313
782.328
782.343
782.358
782.373
782.388
782.402
782.417
782.431
782.445
782.459
782.473
782.486
782.5
782.513
782.526
782.539
782.552
782.565
782.578
782.59
782.603
782.615
782.627
782.639
782.65
782.663
782.673
782.686
782.694
782.709
782.715
782.731
782.736
782.753
782.757
782.773
782.777
782.793
782.797
782.812
782.816
782.831
782.835
782.85
782.852
782.868
782.873
778.521
778.552
778.579
778.609
778.641
778.674
778.706
778.736
778.767
778.798
778.83
778.862
778.893
778.924
778.955
778.987
779.018
779.049
779.08
779.112
779.143
779.174
779.205
779.237
779.268
779.299
779.329
779.36
779.391
779.421
779.452
779.482
779.513
779.543
779.573
779.604
779.634
779.664
779.694
779.724
779.754
779.784
779.814
779.843
779.873
779.902
779.932
779.961
779.99
780.019
780.048
780.077
780.105
780.134
780.163
780.191
780.22
780.248
780.277
780.305
780.333
780.361
780.389
780.416
780.444
780.471
780.499
780.526
780.553
780.58
780.607
780.634
780.66
780.687
780.713
780.74
780.765
780.791
780.816
780.841
780.865
780.888
780.911
780.936
780.962
780.99
781.017
781.04
781.05
781.049
781.042
781.019
780.988
780.968
780.957
780.95
780.946
780.949
780.971
781.035
781.112
781.189
781.26
781.323
781.375
781.418
781.452
781.48
781.503
781.523
781.542
781.56
781.579
781.599
781.619
781.64
781.66
781.681
781.702
781.723
781.743
781.764
781.784
781.804
781.824
781.843
781.863
781.882
781.901
781.92
781.939
781.957
781.976
781.994
782.012
782.03
782.048
782.066
782.083
782.1
782.118
782.135
782.152
782.168
782.185
782.201
782.218
782.234
782.25
782.266
782.282
782.297
782.313
782.328
782.343
782.358
782.373
782.388
782.402
782.417
782.431
782.445
782.459
782.473
782.486
782.5
782.513
782.526
782.539
782.552
782.565
782.578
782.59
782.603
782.615
782.627
782.639
782.65
782.662
782.673
782.686
782.695
782.708
782.716
782.73
782.738
782.752
782.757
782.774
782.777
782.793
782.797
782.812
782.816
782.832
782.835
782.849
782.852
782.865
782.873
778.481
778.511
778.542
778.573
778.601
778.629
778.659
778.69
778.722
778.754
778.785
778.816
778.847
778.879
778.91
778.942
778.973
779.004
779.035
779.066
779.098
779.129
779.16
779.191
779.222
779.253
779.283
779.314
779.345
779.376
779.406
779.437
779.467
779.497
779.528
779.558
779.588
779.618
779.648
779.678
779.708
779.738
779.768
779.797
779.827
779.856
779.886
779.915
779.944
779.973
780.002
780.031
780.06
780.089
780.117
780.146
780.174
780.203
780.231
780.259
780.287
780.315
780.343
780.371
780.399
780.426
780.454
780.481
780.508
780.536
780.563
780.59
780.617
780.643
780.67
780.696
780.723
780.75
780.776
780.802
780.828
780.855
780.881
780.906
780.931
780.956
780.982
781.011
781.04
781.063
781.077
781.082
781.081
781.078
781.075
781.072
781.073
781.081
781.1
781.131
781.17
781.214
781.26
781.305
781.347
781.385
781.419
781.45
781.479
781.505
781.529
781.553
781.575
781.597
781.619
781.64
781.662
781.683
781.703
781.724
781.744
781.764
781.784
781.804
781.824
781.843
781.863
781.882
781.901
781.92
781.939
781.957
781.976
781.994
782.012
782.03
782.048
782.066
782.083
782.1
782.118
782.135
782.152
782.168
782.185
782.201
782.218
782.234
782.25
782.266
782.282
782.297
782.313
782.328
782.343
782.358
782.373
782.388
782.402
782.417
782.431
782.445
782.459
782.473
782.486
782.5
782.513
782.526
782.539
782.552
782.565
782.578
782.59
782.603
782.615
782.627
782.639
782.65
782.662
782.674
782.685
782.696
782.706
782.718
782.728
782.739
782.75
782.76
782.77
782.781
782.788
782.802
782.808
782.819
782.829
782.836
782.848
782.855
782.865
782.871
778.519
778.561
778.603
778.644
778.683
778.721
778.758
778.795
778.831
778.865
778.899
778.932
778.965
778.997
779.029
779.06
779.092
779.123
779.154
779.185
779.217
779.248
779.279
779.31
779.341
779.372
779.403
779.434
779.464
779.495
779.526
779.556
779.586
779.617
779.647
779.677
779.707
779.738
779.768
779.798
779.828
779.857
779.887
779.917
779.946
779.976
780.005
780.034
780.063
780.092
780.121
780.15
780.179
780.207
780.236
780.264
780.292
780.32
780.348
780.376
780.404
780.432
780.459
780.486
780.512
780.539
780.565
780.591
780.617
780.643
780.669
780.694
780.719
780.743
780.767
780.791
780.815
780.838
780.861
780.885
780.909
780.936
780.962
780.987
781.011
781.029
781.038
781.041
781.04
781.037
781.034
781.034
781.041
781.05
781.059
781.072
781.09
781.116
781.147
781.183
781.223
781.263
781.303
781.341
781.375
781.407
781.437
781.464
781.489
781.514
781.537
781.56
781.582
781.603
781.624
781.645
781.666
781.686
781.706
781.726
781.746
781.766
781.786
781.805
781.825
781.844
781.863
781.882
781.901
781.92
781.939
781.957
781.976
781.994
782.012
782.03
782.048
782.066
782.083
782.1
782.118
782.135
782.152
782.168
782.185
782.201
782.218
782.234
782.25
782.266
782.282
782.297
782.313
782.328
782.343
782.358
782.373
782.388
782.402
782.417
782.431
782.445
782.459
782.473
782.486
782.5
782.513
782.526
782.539
782.552
782.565
782.578
782.59
782.603
782.615
782.627
782.638
782.651
782.661
782.674
782.684
782.697
782.705
782.72
782.726
782.742
782.747
782.763
782.767
782.783
782.787
782.803
782.807
782.822
782.825
782.841
782.844
782.858
782.862
782.875
778.414
778.447
778.479
778.509
778.54
778.571
778.602
778.633
778.665
778.697
778.73
778.762
778.794
778.826
778.857
778.889
778.92
778.951
778.983
779.014
779.044
779.075
779.106
779.137
779.168
779.199
779.23
779.26
779.291
779.322
779.352
779.383
779.413
779.444
779.474
779.504
779.535
779.565
779.595
779.625
779.654
779.684
779.714
779.744
779.773
779.803
779.832
779.862
779.891
779.92
779.949
779.978
780.007
780.036
780.064
780.093
780.121
780.15
780.178
780.206
780.234
780.262
780.29
780.318
780.345
780.373
780.4
780.428
780.454
780.481
780.508
780.535
780.562
780.589
780.616
780.642
780.668
780.695
780.722
780.748
780.773
780.798
780.825
780.852
780.879
780.905
780.929
780.954
780.979
781.005
781.032
781.064
781.098
781.13
781.152
781.166
781.174
781.176
781.174
781.172
781.175
781.194
781.233
781.278
781.323
781.367
781.407
781.443
781.475
781.504
781.53
781.555
781.579
781.602
781.623
781.645
781.666
781.686
781.706
781.727
781.746
781.766
781.786
781.806
781.825
781.844
781.863
781.883
781.901
781.92
781.939
781.957
781.976
781.994
782.012
782.03
782.048
782.066
782.083
782.1
782.118
782.135
782.152
782.168
782.185
782.201
782.218
782.234
782.25
782.266
782.282
782.297
782.313
782.328
782.343
782.358
782.373
782.388
782.402
782.417
782.431
782.445
782.459
782.473
782.486
782.5
782.513
782.526
782.539
782.552
782.565
782.578
782.59
782.603
782.615
782.627
782.638
782.651
782.661
782.674
782.684
782.697
782.705
782.72
782.726
782.742
782.747
782.763
782.767
782.783
782.787
782.803
782.807
782.822
782.825
782.84
782.844
782.856
782.865
782.873
778.469
778.515
778.56
778.603
778.646
778.688
778.73
778.772
778.812
778.851
778.888
778.924
778.958
778.991
779.023
779.055
779.087
779.119
779.15
779.181
779.212
779.243
779.274
779.305
779.336
779.367
779.398
779.429
779.46
779.491
779.522
779.552
779.582
779.612
779.642
779.673
779.703
779.733
779.763
779.793
779.823
779.852
779.882
779.911
779.94
779.969
779.999
780.028
780.057
780.085
780.114
780.142
780.171
780.199
780.227
780.256
780.284
780.313
780.341
780.37
780.398
780.426
780.454
780.482
780.509
780.536
780.563
780.59
780.617
780.642
780.667
780.692
780.717
780.741
780.764
780.788
780.812
780.837
780.863
780.89
780.916
780.942
780.969
780.997
781.024
781.05
781.073
781.091
781.102
781.107
781.107