/*--------------------------------*- C++ -*----------------------------------*\
| =========                 |                                                 |
| \\      /  F ield         | OpenFOAM: The Open Source CFD Toolbox           |
|  \\    /   O peration     | Version:  3.0.x                                 |
|   \\  /    A nd           | Web:      www.OpenFOAM.org                      |
|    \\/     M anipulation  |                                                 |
\*---------------------------------------------------------------------------*/
FoamFile
{
    version     2.0;
    format      ascii;
    class       volVectorField;
    location    "0.5";
    object      U;
}
// * * * * * * * * * * * * * * * * * * * * * * * * * * * * * * * * * * * * * //

dimensions      [0 1 -1 0 0 0 0];

internalField   nonuniform List<vector> 
13800
(
(42.6801 0.000141726 0)
(42.6376 0.000123472 0)
(42.5897 0.000122363 0)
(42.5442 0.000124516 0)
(42.5 0.000126364 0)
(42.4556 0.000127905 0)
(42.4107 0.000129185 0)
(42.3656 0.000130246 0)
(42.3202 0.000131127 0)
(42.2745 0.000131863 0)
(42.2286 0.000132483 0)
(42.1823 0.000133009 0)
(42.1357 0.000133459 0)
(42.0888 0.000133844 0)
(42.0415 0.000134177 0)
(41.9939 0.000134465 0)
(41.9459 0.000134716 0)
(41.8975 0.000134935 0)
(41.8487 0.000135127 0)
(41.7995 0.000135296 0)
(41.7498 0.000135445 0)
(41.6997 0.000135577 0)
(41.6491 0.000135693 0)
(41.5981 0.000135798 0)
(41.5466 0.00013589 0)
(41.4945 0.000135974 0)
(41.442 0.000136048 0)
(41.3889 0.000136116 0)
(41.3353 0.000136177 0)
(41.2811 0.000136232 0)
(41.2264 0.000136282 0)
(41.1711 0.000136328 0)
(41.1152 0.00013637 0)
(41.0586 0.00013641 0)
(41.0015 0.000136446 0)
(40.9438 0.00013648 0)
(40.8854 0.000136512 0)
(40.8264 0.000136542 0)
(40.7667 0.000136571 0)
(40.7063 0.000136599 0)
(40.6453 0.000136627 0)
(40.5835 0.000136655 0)
(40.5211 0.000136682 0)
(40.4579 0.000136709 0)
(40.394 0.000136735 0)
(40.3294 0.000136763 0)
(40.2641 0.000136791 0)
(40.1979 0.000136819 0)
(40.1311 0.000136847 0)
(40.0634 0.000136875 0)
(39.995 0.000136903 0)
(39.9257 0.000136929 0)
(39.8557 0.000136956 0)
(39.7848 0.00013698 0)
(39.7132 0.000137001 0)
(39.6407 0.000137015 0)
(39.5674 0.000137019 0)
(39.4932 0.000137012 0)
(39.4182 0.000136989 0)
(39.3423 0.000136945 0)
(39.2656 0.000136869 0)
(39.188 0.00013675 0)
(39.1095 0.000136574 0)
(39.0301 0.000136325 0)
(38.9499 0.000135981 0)
(38.8687 0.000135522 0)
(38.7867 0.000134923 0)
(38.7038 0.000134153 0)
(38.62 0.000133181 0)
(38.5353 0.000131977 0)
(38.4497 0.000130508 0)
(38.3632 0.000128743 0)
(38.2759 0.000126654 0)
(38.1877 0.000124213 0)
(38.0985 0.000121401 0)
(38.0086 0.000118204 0)
(37.9178 0.000114617 0)
(37.8261 0.000110643 0)
(37.7336 0.000106297 0)
(37.6402 0.000101604 0)
(37.546 9.65971e-05 0)
(37.451 9.13207e-05 0)
(37.3552 8.5826e-05 0)
(37.2585 8.01711e-05 0)
(37.161 7.44187e-05 0)
(37.0628 6.86342e-05 0)
(36.9636 6.28831e-05 0)
(36.8637 5.72292e-05 0)
(36.7629 5.17323e-05 0)
(36.6613 4.64466e-05 0)
(36.5589 4.1419e-05 0)
(36.4556 3.66881e-05 0)
(36.3514 3.22835e-05 0)
(36.2464 2.82259e-05 0)
(36.1405 2.4527e-05 0)
(36.0337 2.119e-05 0)
(35.926 1.82105e-05 0)
(35.8174 1.55774e-05 0)
(35.7078 1.32743e-05 0)
(35.5974 1.12803e-05 0)
(35.486 9.57137e-06 0)
(35.3736 8.12164e-06 0)
(35.2603 6.90419e-06 0)
(35.1461 5.89209e-06 0)
(35.0309 5.05908e-06 0)
(34.9148 4.38027e-06 0)
(34.7977 3.83247e-06 0)
(34.6796 3.39464e-06 0)
(34.5606 3.04801e-06 0)
(34.4407 2.77616e-06 0)
(34.3198 2.56486e-06 0)
(34.1979 2.40216e-06 0)
(34.0751 2.27802e-06 0)
(33.9513 2.18422e-06 0)
(33.8266 2.11404e-06 0)
(33.7009 2.06205e-06 0)
(33.5743 2.02393e-06 0)
(33.4468 1.99624e-06 0)
(33.3184 1.97634e-06 0)
(33.189 1.96216e-06 0)
(33.0587 1.95215e-06 0)
(32.9275 1.94511e-06 0)
(32.7954 1.94012e-06 0)
(32.6623 1.93646e-06 0)
(32.5284 1.93364e-06 0)
(32.3936 1.93135e-06 0)
(32.2579 1.92933e-06 0)
(32.1214 1.9274e-06 0)
(31.9839 1.92538e-06 0)
(31.8456 1.92317e-06 0)
(31.7065 1.92066e-06 0)
(31.5665 1.91786e-06 0)
(31.4256 1.91476e-06 0)
(31.2839 1.91133e-06 0)
(31.1414 1.90755e-06 0)
(30.9981 1.90336e-06 0)
(30.854 1.89875e-06 0)
(30.709 1.8937e-06 0)
(30.5633 1.88817e-06 0)
(30.4168 1.88225e-06 0)
(30.2695 1.87594e-06 0)
(30.1215 1.86927e-06 0)
(29.9727 1.86214e-06 0)
(29.8232 1.85456e-06 0)
(29.6729 1.84655e-06 0)
(29.5219 1.8381e-06 0)
(29.3702 1.82919e-06 0)
(29.2178 1.81978e-06 0)
(29.0647 1.80989e-06 0)
(28.9109 1.79956e-06 0)
(28.7564 1.7888e-06 0)
(28.6013 1.77756e-06 0)
(28.4455 1.76584e-06 0)
(28.2891 1.75363e-06 0)
(28.1321 1.74094e-06 0)
(27.9745 1.72782e-06 0)
(27.8163 1.71427e-06 0)
(27.6574 1.7002e-06 0)
(27.498 1.68557e-06 0)
(27.3381 1.67044e-06 0)
(27.1776 1.65483e-06 0)
(27.0165 1.63879e-06 0)
(26.855 1.62231e-06 0)
(26.6929 1.60534e-06 0)
(26.5303 1.58777e-06 0)
(26.3673 1.56962e-06 0)
(26.2038 1.55096e-06 0)
(26.0398 1.53182e-06 0)
(25.8754 1.51227e-06 0)
(25.7105 1.49227e-06 0)
(25.5453 1.47184e-06 0)
(25.3796 1.45086e-06 0)
(25.2136 1.42932e-06 0)
(25.0472 1.4072e-06 0)
(24.8804 1.38451e-06 0)
(24.7133 1.36128e-06 0)
(24.5458 1.33752e-06 0)
(24.3781 1.3134e-06 0)
(24.21 1.28868e-06 0)
(24.0417 1.26381e-06 0)
(23.8731 1.23829e-06 0)
(23.7042 1.21167e-06 0)
(23.5351 1.18739e-06 0)
(23.3658 1.15403e-06 0)
(23.1963 1.14003e-06 0)
(23.0266 1.08578e-06 0)
(22.8567 1.10044e-06 0)
(22.6867 1.00666e-06 0)
(22.5165 1.06825e-06 0)
(22.3462 9.25988e-07 0)
(22.1757 1.08805e-06 0)
(22.0052 1.04869e-06 0)
(21.8346 2.25959e-06 0)
(21.6637 6.85697e-06 0)
(21.4921 3.05978e-05 0)
(21.3174 0.000140655 0)
(21.1288 0.000655084 0)
(20.8742 0.00302726 0)
(20.4929 0.0163867 0)
(17.912 0.0540123 0)
(42.684 0.000222337 0)
(42.6454 0.00016206 0)
(42.6014 0.000150052 0)
(42.5598 0.000148003 0)
(42.5195 0.000146218 0)
(42.479 0.000144804 0)
(42.438 0.000143723 0)
(42.3968 0.000142854 0)
(42.3553 0.000142134 0)
(42.3135 0.000141533 0)
(42.2715 0.000141027 0)
(42.2291 0.0001406 0)
(42.1865 0.000140236 0)
(42.1435 0.000139926 0)
(42.1001 0.000139662 0)
(42.0564 0.000139437 0)
(42.0123 0.000139244 0)
(41.9678 0.000139081 0)
(41.9229 0.000138942 0)
(41.8775 0.000138825 0)
(41.8318 0.000138727 0)
(41.7856 0.000138645 0)
(41.7389 0.000138579 0)
(41.6918 0.000138526 0)
(41.6441 0.000138484 0)
(41.596 0.000138453 0)
(41.5474 0.000138432 0)
(41.4982 0.000138418 0)
(41.4485 0.000138413 0)
(41.3982 0.000138414 0)
(41.3474 0.000138421 0)
(41.296 0.000138434 0)
(41.244 0.000138453 0)
(41.1914 0.000138477 0)
(41.1381 0.000138506 0)
(41.0843 0.000138537 0)
(41.0298 0.000138573 0)
(40.9747 0.000138611 0)
(40.9189 0.000138654 0)
(40.8625 0.000138701 0)
(40.8053 0.000138751 0)
(40.7475 0.000138804 0)
(40.6889 0.00013886 0)
(40.6297 0.000138918 0)
(40.5697 0.000138979 0)
(40.509 0.000139043 0)
(40.4475 0.000139111 0)
(40.3853 0.000139181 0)
(40.3224 0.000139252 0)
(40.2586 0.000139325 0)
(40.1941 0.000139398 0)
(40.1287 0.000139473 0)
(40.0626 0.000139548 0)
(39.9957 0.000139623 0)
(39.9279 0.000139695 0)
(39.8594 0.000139758 0)
(39.7899 0.000139811 0)
(39.7197 0.000139853 0)
(39.6486 0.000139878 0)
(39.5766 0.000139882 0)
(39.5038 0.000139852 0)
(39.4301 0.000139775 0)
(39.3555 0.000139635 0)
(39.28 0.000139414 0)
(39.2037 0.000139091 0)
(39.1264 0.000138641 0)
(39.0482 0.000138039 0)
(38.9692 0.000137251 0)
(38.8892 0.000136246 0)
(38.8083 0.000134989 0)
(38.7264 0.000133449 0)
(38.6437 0.000131594 0)
(38.5599 0.000129394 0)
(38.4753 0.000126825 0)
(38.3897 0.000123864 0)
(38.3032 0.000120501 0)
(38.2157 0.000116733 0)
(38.1272 0.000112568 0)
(38.0378 0.000108024 0)
(37.9474 0.000103129 0)
(37.856 9.79236e-05 0)
(37.7637 9.2455e-05 0)
(37.6704 8.67793e-05 0)
(37.5761 8.09586e-05 0)
(37.4808 7.5059e-05 0)
(37.3846 6.91488e-05 0)
(37.2873 6.32954e-05 0)
(37.1891 5.75634e-05 0)
(37.0899 5.20127e-05 0)
(36.9896 4.66967e-05 0)
(36.8884 4.16606e-05 0)
(36.7862 3.69409e-05 0)
(36.683 3.25644e-05 0)
(36.5788 2.85485e-05 0)
(36.4737 2.49016e-05 0)
(36.3675 2.16238e-05 0)
(36.2603 1.87074e-05 0)
(36.1521 1.61385e-05 0)
(36.043 1.3898e-05 0)
(35.9328 1.1963e-05 0)
(35.8217 1.03077e-05 0)
(35.7096 8.90527e-06 0)
(35.5965 7.72811e-06 0)
(35.4824 6.74927e-06 0)
(35.3673 5.94295e-06 0)
(35.2513 5.28496e-06 0)
(35.1343 4.7531e-06 0)
(35.0163 4.32738e-06 0)
(34.8973 3.99001e-06 0)
(34.7774 3.72541e-06 0)
(34.6565 3.52008e-06 0)
(34.5346 3.3625e-06 0)
(34.4118 3.24295e-06 0)
(34.2881 3.15342e-06 0)
(34.1634 3.08728e-06 0)
(34.0377 3.03917e-06 0)
(33.9111 3.00477e-06 0)
(33.7836 2.98063e-06 0)
(33.6552 2.96409e-06 0)
(33.5258 2.95312e-06 0)
(33.3955 2.94616e-06 0)
(33.2643 2.942e-06 0)
(33.1322 2.93973e-06 0)
(32.9992 2.93863e-06 0)
(32.8653 2.93821e-06 0)
(32.7305 2.93816e-06 0)
(32.5948 2.93825e-06 0)
(32.4582 2.93832e-06 0)
(32.3208 2.93816e-06 0)
(32.1825 2.93764e-06 0)
(32.0433 2.93669e-06 0)
(31.9033 2.93531e-06 0)
(31.7624 2.93351e-06 0)
(31.6208 2.93127e-06 0)
(31.4782 2.92854e-06 0)
(31.3349 2.92526e-06 0)
(31.1908 2.9214e-06 0)
(31.0458 2.91693e-06 0)
(30.9001 2.91183e-06 0)
(30.7536 2.90621e-06 0)
(30.6063 2.90006e-06 0)
(30.4583 2.89344e-06 0)
(30.3095 2.88618e-06 0)
(30.1599 2.87834e-06 0)
(30.0096 2.8699e-06 0)
(29.8586 2.86086e-06 0)
(29.7069 2.85122e-06 0)
(29.5545 2.84091e-06 0)
(29.4013 2.82993e-06 0)
(29.2475 2.81836e-06 0)
(29.0931 2.80624e-06 0)
(28.938 2.79344e-06 0)
(28.7822 2.78002e-06 0)
(28.6258 2.76591e-06 0)
(28.4687 2.75115e-06 0)
(28.3111 2.73583e-06 0)
(28.1528 2.71993e-06 0)
(27.994 2.70333e-06 0)
(27.8346 2.68595e-06 0)
(27.6746 2.66789e-06 0)
(27.5141 2.64918e-06 0)
(27.353 2.62991e-06 0)
(27.1914 2.61004e-06 0)
(27.0293 2.58952e-06 0)
(26.8667 2.56814e-06 0)
(26.7037 2.54599e-06 0)
(26.5401 2.52315e-06 0)
(26.3761 2.49967e-06 0)
(26.2117 2.47565e-06 0)
(26.0468 2.45097e-06 0)
(25.8815 2.42574e-06 0)
(25.7158 2.39978e-06 0)
(25.5497 2.37303e-06 0)
(25.3833 2.34545e-06 0)
(25.2165 2.31717e-06 0)
(25.0493 2.28799e-06 0)
(24.8819 2.25834e-06 0)
(24.7141 2.22784e-06 0)
(24.546 2.19727e-06 0)
(24.3776 2.16477e-06 0)
(24.209 2.13541e-06 0)
(24.0401 2.09525e-06 0)
(23.871 2.0786e-06 0)
(23.7016 2.00794e-06 0)
(23.532 2.04268e-06 0)
(23.3623 1.88496e-06 0)
(23.1924 2.04051e-06 0)
(23.0223 1.7314e-06 0)
(22.852 2.06741e-06 0)
(22.6817 1.60114e-06 0)
(22.5112 2.32962e-06 0)
(22.3406 2.37194e-06 0)
(22.1699 6.86982e-06 0)
(21.999 2.29174e-05 0)
(21.8274 0.000104102 0)
(21.6526 0.000479067 0)
(21.4639 0.00223075 0)
(21.2093 0.0102965 0)
(20.8236 0.0535529 0)
(18.3867 0.166207 0)
(42.684 0.000163678 0)
(42.6454 0.00011302 0)
(42.6014 0.000107495 0)
(42.5598 0.000110595 0)
(42.5195 0.000111651 0)
(42.479 0.000112145 0)
(42.438 0.000112566 0)
(42.3968 0.000112915 0)
(42.3553 0.0001132 0)
(42.3136 0.000113441 0)
(42.2715 0.00011365 0)
(42.2292 0.000113833 0)
(42.1865 0.000113996 0)
(42.1435 0.000114141 0)
(42.1001 0.000114272 0)
(42.0564 0.000114392 0)
(42.0123 0.000114501 0)
(41.9678 0.000114602 0)
(41.9229 0.000114695 0)
(41.8776 0.000114783 0)
(41.8319 0.000114864 0)
(41.7857 0.000114942 0)
(41.739 0.000115015 0)
(41.6919 0.000115085 0)
(41.6442 0.000115152 0)
(41.5961 0.000115217 0)
(41.5475 0.000115279 0)
(41.4983 0.00011534 0)
(41.4486 0.000115399 0)
(41.3984 0.000115457 0)
(41.3475 0.000115513 0)
(41.2961 0.000115569 0)
(41.2442 0.000115625 0)
(41.1916 0.00011568 0)
(41.1384 0.000115735 0)
(41.0845 0.000115789 0)
(41.0301 0.000115843 0)
(40.9749 0.000115896 0)
(40.9192 0.000115951 0)
(40.8627 0.000116006 0)
(40.8056 0.000116062 0)
(40.7478 0.000116118 0)
(40.6893 0.000116175 0)
(40.63 0.000116233 0)
(40.5701 0.000116291 0)
(40.5094 0.000116351 0)
(40.4479 0.000116412 0)
(40.3857 0.000116474 0)
(40.3228 0.000116536 0)
(40.259 0.000116598 0)
(40.1945 0.00011666 0)
(40.1292 0.000116722 0)
(40.0631 0.000116784 0)
(39.9962 0.000116845 0)
(39.9285 0.000116902 0)
(39.8599 0.000116951 0)
(39.7905 0.000116991 0)
(39.7203 0.000117021 0)
(39.6492 0.000117036 0)
(39.5772 0.00011703 0)
(39.5044 0.000116995 0)
(39.4307 0.000116918 0)
(39.3562 0.000116786 0)
(39.2807 0.000116583 0)
(39.2044 0.000116291 0)
(39.1271 0.00011589 0)
(39.049 0.000115356 0)
(38.97 0.000114662 0)
(38.89 0.00011378 0)
(38.8091 0.000112682 0)
(38.7273 0.000111342 0)
(38.6445 0.000109732 0)
(38.5608 0.000107828 0)
(38.4762 0.000105609 0)
(38.3906 0.000103058 0)
(38.304 0.000100169 0)
(38.2165 9.6938e-05 0)
(38.1281 9.33748e-05 0)
(38.0386 8.94962e-05 0)
(37.9482 8.5328e-05 0)
(37.8569 8.09044e-05 0)
(37.7645 7.62675e-05 0)
(37.6712 7.14655e-05 0)
(37.5769 6.65516e-05 0)
(37.4816 6.1582e-05 0)
(37.3853 5.66143e-05 0)
(37.288 5.17051e-05 0)
(37.1898 4.69081e-05 0)
(37.0905 4.22729e-05 0)
(36.9903 3.78432e-05 0)
(36.8891 3.36558e-05 0)
(36.7868 2.97397e-05 0)
(36.6836 2.61159e-05 0)
(36.5794 2.27977e-05 0)
(36.4742 1.97906e-05 0)
(36.368 1.70934e-05 0)
(36.2608 1.46987e-05 0)
(36.1526 1.25939e-05 0)
(36.0434 1.07625e-05 0)
(35.9333 9.18459e-06 0)
(35.8221 7.8386e-06 0)
(35.71 6.70167e-06 0)
(35.5969 5.7507e-06 0)
(35.4828 4.96304e-06 0)
(35.3677 4.31696e-06 0)
(35.2517 3.79213e-06 0)
(35.1347 3.36989e-06 0)
(35.0167 3.03341e-06 0)
(34.8977 2.76783e-06 0)
(34.7778 2.56019e-06 0)
(34.6569 2.39938e-06 0)
(34.535 2.27597e-06 0)
(34.4122 2.18214e-06 0)
(34.2885 2.1115e-06 0)
(34.1638 2.05879e-06 0)
(34.0381 2.01984e-06 0)
(33.9115 1.99127e-06 0)
(33.784 1.97046e-06 0)
(33.6556 1.95535e-06 0)
(33.5262 1.9444e-06 0)
(33.3959 1.93645e-06 0)
(33.2647 1.93057e-06 0)
(33.1326 1.92607e-06 0)
(32.9996 1.92244e-06 0)
(32.8657 1.91929e-06 0)
(32.7309 1.91639e-06 0)
(32.5952 1.91358e-06 0)
(32.4586 1.91074e-06 0)
(32.3212 1.90771e-06 0)
(32.1829 1.90441e-06 0)
(32.0437 1.90076e-06 0)
(31.9037 1.89679e-06 0)
(31.7628 1.89248e-06 0)
(31.6212 1.88783e-06 0)
(31.4786 1.88281e-06 0)
(31.3353 1.87736e-06 0)
(31.1912 1.87148e-06 0)
(31.0462 1.86514e-06 0)
(30.9005 1.85831e-06 0)
(30.754 1.85108e-06 0)
(30.6067 1.84346e-06 0)
(30.4587 1.83546e-06 0)
(30.3099 1.82699e-06 0)
(30.1603 1.81808e-06 0)
(30.01 1.80871e-06 0)
(29.859 1.79891e-06 0)
(29.7073 1.78864e-06 0)
(29.5549 1.77785e-06 0)
(29.4017 1.76657e-06 0)
(29.2479 1.75485e-06 0)
(29.0935 1.74271e-06 0)
(28.9383 1.73007e-06 0)
(28.7826 1.71694e-06 0)
(28.6262 1.70333e-06 0)
(28.4691 1.6892e-06 0)
(28.3115 1.67469e-06 0)
(28.1532 1.65971e-06 0)
(27.9944 1.64423e-06 0)
(27.835 1.62817e-06 0)
(27.675 1.61159e-06 0)
(27.5145 1.59455e-06 0)
(27.3534 1.57708e-06 0)
(27.1918 1.55917e-06 0)
(27.0297 1.54078e-06 0)
(26.8671 1.52174e-06 0)
(26.7041 1.50213e-06 0)
(26.5405 1.48207e-06 0)
(26.3765 1.46146e-06 0)
(26.2121 1.44055e-06 0)
(26.0472 1.41906e-06 0)
(25.8819 1.39723e-06 0)
(25.7162 1.37485e-06 0)
(25.5501 1.3519e-06 0)
(25.3837 1.32829e-06 0)
(25.2169 1.30436e-06 0)
(25.0497 1.27934e-06 0)
(24.8823 1.25483e-06 0)
(24.7145 1.22809e-06 0)
(24.5464 1.2046e-06 0)
(24.378 1.17281e-06 0)
(24.2094 1.15758e-06 0)
(24.0405 1.10576e-06 0)
(23.8714 1.12654e-06 0)
(23.702 1.00635e-06 0)
(23.5324 1.13774e-06 0)
(23.3627 8.43937e-07 0)
(23.1928 1.20985e-06 0)
(23.0227 6.29375e-07 0)
(22.8524 1.33847e-06 0)
(22.6821 4.25682e-07 0)
(22.5116 1.89076e-06 0)
(22.341 1.8129e-06 0)
(22.1703 1.06541e-05 0)
(21.9994 4.22709e-05 0)
(21.8278 0.000202926 0)
(21.6532 0.000944589 0)
(21.4652 0.00441187 0)
(21.2141 0.0203677 0)
(20.8416 0.105456 0)
(18.5382 0.323833 0)
(42.684 0.000119046 0)
(42.6454 0.000102337 0)
(42.6014 9.97913e-05 0)
(42.5598 0.00010392 0)
(42.5195 0.000106072 0)
(42.4789 0.000107342 0)
(42.438 0.000108414 0)
(42.3968 0.000109322 0)
(42.3553 0.000110077 0)
(42.3135 0.000110713 0)
(42.2715 0.000111255 0)
(42.2291 0.000111719 0)
(42.1865 0.00011212 0)
(42.1435 0.000112468 0)
(42.1001 0.000112773 0)
(42.0564 0.00011304 0)
(42.0123 0.000113276 0)
(41.9678 0.000113486 0)
(41.9229 0.000113673 0)
(41.8776 0.000113841 0)
(41.8318 0.000113991 0)
(41.7856 0.000114128 0)
(41.739 0.000114252 0)
(41.6918 0.000114364 0)
(41.6442 0.000114468 0)
(41.5961 0.000114563 0)
(41.5475 0.000114652 0)
(41.4983 0.000114734 0)
(41.4486 0.00011481 0)
(41.3983 0.000114882 0)
(41.3475 0.000114949 0)
(41.2961 0.000115014 0)
(41.2441 0.000115075 0)
(41.1915 0.000115133 0)
(41.1383 0.000115189 0)
(41.0845 0.000115244 0)
(41.03 0.000115296 0)
(40.9749 0.000115347 0)
(40.9191 0.000115397 0)
(40.8627 0.000115447 0)
(40.8056 0.000115496 0)
(40.7477 0.000115545 0)
(40.6892 0.000115594 0)
(40.63 0.000115643 0)
(40.57 0.000115692 0)
(40.5093 0.000115741 0)
(40.4479 0.000115791 0)
(40.3857 0.000115842 0)
(40.3227 0.000115893 0)
(40.259 0.000115943 0)
(40.1945 0.000115993 0)
(40.1292 0.000116043 0)
(40.0631 0.000116092 0)
(39.9962 0.00011614 0)
(39.9284 0.000116185 0)
(39.8599 0.000116223 0)
(39.7905 0.000116254 0)
(39.7202 0.000116275 0)
(39.6491 0.000116282 0)
(39.5772 0.000116271 0)
(39.5044 0.000116233 0)
(39.4307 0.000116158 0)
(39.3561 0.000116033 0)
(39.2807 0.000115845 0)
(39.2044 0.000115576 0)
(39.1271 0.000115208 0)
(39.049 0.000114718 0)
(38.9699 0.000114082 0)
(38.8899 0.000113273 0)
(38.8091 0.000112263 0)
(38.7272 0.000111027 0)
(38.6445 0.000109538 0)
(38.5608 0.00010777 0)
(38.4761 0.000105702 0)
(38.3906 0.000103317 0)
(38.304 0.000100603 0)
(38.2165 9.7555e-05 0)
(38.128 9.41784e-05 0)
(38.0386 9.04853e-05 0)
(37.9482 8.64968e-05 0)
(37.8569 8.22427e-05 0)
(37.7645 7.77602e-05 0)
(37.6712 7.30933e-05 0)
(37.5769 6.82918e-05 0)
(37.4816 6.34091e-05 0)
(37.3853 5.85009e-05 0)
(37.288 5.36228e-05 0)
(37.1898 4.88289e-05 0)
(37.0905 4.41698e-05 0)
(36.9903 3.96913e-05 0)
(36.889 3.54329e-05 0)
(36.7868 3.14271e-05 0)
(36.6836 2.76989e-05 0)
(36.5794 2.42654e-05 0)
(36.4742 2.11363e-05 0)
(36.368 1.83141e-05 0)
(36.2608 1.5795e-05 0)
(36.1526 1.35695e-05 0)
(36.0434 1.16235e-05 0)
(35.9333 9.93917e-06 0)
(35.8221 8.4963e-06 0)
(35.71 7.27283e-06 0)
(35.5969 6.24599e-06 0)
(35.4828 5.39298e-06 0)
(35.3677 4.6916e-06 0)
(35.2517 4.1208e-06 0)
(35.1347 3.66099e-06 0)
(35.0167 3.2944e-06 0)
(34.8977 3.00517e-06 0)
(34.7778 2.77938e-06 0)
(34.6569 2.60507e-06 0)
(34.535 2.47206e-06 0)
(34.4122 2.37187e-06 0)
(34.2885 2.29753e-06 0)
(34.1638 2.24332e-06 0)
(34.0381 2.20464e-06 0)
(33.9115 2.17782e-06 0)
(33.784 2.15993e-06 0)
(33.6556 2.1487e-06 0)
(33.5262 2.1424e-06 0)
(33.3959 2.13969e-06 0)
(33.2647 2.13955e-06 0)
(33.1326 2.14119e-06 0)
(32.9996 2.14402e-06 0)
(32.8657 2.14761e-06 0)
(32.7309 2.15168e-06 0)
(32.5952 2.15601e-06 0)
(32.4586 2.16047e-06 0)
(32.3212 2.16488e-06 0)
(32.1829 2.16916e-06 0)
(32.0437 2.17322e-06 0)
(31.9037 2.17708e-06 0)
(31.7628 2.18071e-06 0)
(31.6212 2.18409e-06 0)
(31.4786 2.1872e-06 0)
(31.3353 2.19e-06 0)
(31.1912 2.19246e-06 0)
(31.0462 2.19458e-06 0)
(30.9005 2.19632e-06 0)
(30.754 2.19777e-06 0)
(30.6067 2.1989e-06 0)
(30.4587 2.19976e-06 0)
(30.3099 2.20025e-06 0)
(30.1603 2.2004e-06 0)
(30.01 2.20019e-06 0)
(29.859 2.19965e-06 0)
(29.7073 2.19872e-06 0)
(29.5549 2.19743e-06 0)
(29.4017 2.19573e-06 0)
(29.2479 2.19368e-06 0)
(29.0935 2.1913e-06 0)
(28.9383 2.18854e-06 0)
(28.7826 2.18534e-06 0)
(28.6262 2.18186e-06 0)
(28.4691 2.17782e-06 0)
(28.3115 2.17364e-06 0)
(28.1532 2.16894e-06 0)
(27.9944 2.16393e-06 0)
(27.835 2.15845e-06 0)
(27.675 2.15249e-06 0)
(27.5145 2.1462e-06 0)
(27.3534 2.13961e-06 0)
(27.1918 2.13251e-06 0)
(27.0297 2.12529e-06 0)
(26.8671 2.11722e-06 0)
(26.7041 2.10889e-06 0)
(26.5405 2.10013e-06 0)
(26.3765 2.09097e-06 0)
(26.2121 2.08151e-06 0)
(26.0472 2.07144e-06 0)
(25.8819 2.06129e-06 0)
(25.7162 2.05078e-06 0)
(25.5501 2.03968e-06 0)
(25.3837 2.02777e-06 0)
(25.2169 2.01597e-06 0)
(25.0497 2.00285e-06 0)
(24.8823 1.99046e-06 0)
(24.7145 1.9762e-06 0)
(24.5464 1.96471e-06 0)
(24.378 1.94495e-06 0)
(24.2094 1.94665e-06 0)
(24.0405 1.89029e-06 0)
(23.8714 1.97264e-06 0)
(23.702 1.75403e-06 0)
(23.5324 2.13202e-06 0)
(23.3627 1.46605e-06 0)
(23.1928 2.46386e-06 0)
(23.0227 1.06063e-06 0)
(22.8524 2.90129e-06 0)
(22.6821 8.7038e-07 0)
(22.5116 4.4372e-06 0)
(22.341 5.29987e-06 0)
(22.1703 2.73049e-05 0)
(21.9994 0.000107208 0)
(21.8279 0.000515851 0)
(21.6538 0.00240008 0)
(21.4677 0.0111613 0)
(21.2273 0.0505727 0)
(20.8832 0.232119 0)
(19.1691 0.710056 0)
(42.684 3.59618e-05 0)
(42.6453 2.78348e-05 0)
(42.6014 1.98762e-05 0)
(42.5598 1.66746e-05 0)
(42.5194 1.41167e-05 0)
(42.4789 1.19198e-05 0)
(42.438 1.01908e-05 0)
(42.3967 8.80267e-06 0)
(42.3553 7.65582e-06 0)
(42.3135 6.69562e-06 0)
(42.2715 5.88422e-06 0)
(42.2291 5.19295e-06 0)
(42.1864 4.60009e-06 0)
(42.1434 4.08886e-06 0)
(42.1001 3.64601e-06 0)
(42.0564 3.26094e-06 0)
(42.0123 2.92504e-06 0)
(41.9678 2.6313e-06 0)
(41.9229 2.37387e-06 0)
(41.8776 2.14787e-06 0)
(41.8318 1.94921e-06 0)
(41.7856 1.77442e-06 0)
(41.7389 1.62057e-06 0)
(41.6918 1.48512e-06 0)
(41.6442 1.36589e-06 0)
(41.5961 1.261e-06 0)
(41.5474 1.16883e-06 0)
(41.4983 1.08792e-06 0)
(41.4486 1.01704e-06 0)
(41.3983 9.55083e-07 0)
(41.3475 9.01113e-07 0)
(41.2961 8.54295e-07 0)
(41.2441 8.13884e-07 0)
(41.1915 7.79246e-07 0)
(41.1383 7.4977e-07 0)
(41.0845 7.24878e-07 0)
(41.03 7.04043e-07 0)
(40.9749 6.86828e-07 0)
(40.9191 6.73003e-07 0)
(40.8627 6.62276e-07 0)
(40.8055 6.54251e-07 0)
(40.7477 6.48621e-07 0)
(40.6892 6.45142e-07 0)
(40.63 6.4363e-07 0)
(40.57 6.43956e-07 0)
(40.5093 6.46026e-07 0)
(40.4479 6.49666e-07 0)
(40.3857 6.54681e-07 0)
(40.3227 6.6086e-07 0)
(40.259 6.68015e-07 0)
(40.1945 6.76118e-07 0)
(40.1292 6.85036e-07 0)
(40.0631 6.9487e-07 0)
(39.9961 7.05459e-07 0)
(39.9284 7.16342e-07 0)
(39.8598 7.27052e-07 0)
(39.7904 7.37499e-07 0)
(39.7202 7.47851e-07 0)
(39.6491 7.5807e-07 0)
(39.5772 7.67783e-07 0)
(39.5044 7.76251e-07 0)
(39.4307 7.82665e-07 0)
(39.3561 7.86047e-07 0)
(39.2807 7.85427e-07 0)
(39.2043 7.79986e-07 0)
(39.1271 7.68919e-07 0)
(39.049 7.51163e-07 0)
(38.9699 7.25459e-07 0)
(38.8899 6.90753e-07 0)
(38.809 6.46382e-07 0)
(38.7272 5.91989e-07 0)
(38.6445 5.2743e-07 0)
(38.5608 4.5268e-07 0)
(38.4761 3.67998e-07 0)
(38.3905 2.741e-07 0)
(38.304 1.72257e-07 0)
(38.2165 6.4275e-08 0)
(38.128 -4.75452e-08 0)
(38.0386 -1.60553e-07 0)
(37.9482 -2.71867e-07 0)
(37.8568 -3.78551e-07 0)
(37.7645 -4.77702e-07 0)
(37.6712 -5.66633e-07 0)
(37.5769 -6.42954e-07 0)
(37.4816 -7.04686e-07 0)
(37.3853 -7.50385e-07 0)
(37.288 -7.79217e-07 0)
(37.1898 -7.90984e-07 0)
(37.0905 -7.86084e-07 0)
(36.9903 -7.65495e-07 0)
(36.889 -7.30698e-07 0)
(36.7868 -6.83601e-07 0)
(36.6836 -6.26424e-07 0)
(36.5794 -5.61566e-07 0)
(36.4742 -4.91475e-07 0)
(36.368 -4.18566e-07 0)
(36.2608 -3.45144e-07 0)
(36.1526 -2.73313e-07 0)
(36.0434 -2.04918e-07 0)
(35.9333 -1.41507e-07 0)
(35.8221 -8.42784e-08 0)
(35.71 -3.40417e-08 0)
(35.5969 8.79866e-09 0)
(35.4828 4.42493e-08 0)
(35.3677 7.26775e-08 0)
(35.2517 9.47449e-08 0)
(35.1347 1.11289e-07 0)
(35.0167 1.23236e-07 0)
(34.8977 1.31491e-07 0)
(34.7778 1.36861e-07 0)
(34.6569 1.40025e-07 0)
(34.535 1.41517e-07 0)
(34.4122 1.41733e-07 0)
(34.2885 1.4098e-07 0)
(34.1638 1.39471e-07 0)
(34.0381 1.37353e-07 0)
(33.9115 1.34732e-07 0)
(33.784 1.31688e-07 0)
(33.6556 1.28281e-07 0)
(33.5262 1.24567e-07 0)
(33.3959 1.2059e-07 0)
(33.2647 1.16378e-07 0)
(33.1326 1.11954e-07 0)
(32.9996 1.07335e-07 0)
(32.8657 1.02533e-07 0)
(32.7309 9.75724e-08 0)
(32.5952 9.24701e-08 0)
(32.4586 8.7239e-08 0)
(32.3212 8.18729e-08 0)
(32.1829 7.63693e-08 0)
(32.0437 7.07307e-08 0)
(31.9037 6.49701e-08 0)
(31.7628 5.90918e-08 0)
(31.6212 5.31e-08 0)
(31.4786 4.69866e-08 0)
(31.3353 4.07464e-08 0)
(31.1912 3.43797e-08 0)
(31.0462 2.78841e-08 0)
(30.9005 2.1246e-08 0)
(30.754 1.44972e-08 0)
(30.6067 7.62284e-09 0)
(30.4587 6.50318e-10 0)
(30.3099 -6.47139e-09 0)
(30.1603 -1.37003e-08 0)
(30.01 -2.10802e-08 0)
(29.859 -2.85589e-08 0)
(29.7073 -3.61882e-08 0)
(29.5549 -4.3942e-08 0)
(29.4017 -5.18419e-08 0)
(29.2479 -5.98656e-08 0)
(29.0935 -6.79955e-08 0)
(28.9383 -7.62795e-08 0)
(28.7826 -8.46849e-08 0)
(28.6262 -9.32217e-08 0)
(28.4691 -1.01906e-07 0)
(28.3115 -1.10698e-07 0)
(28.1532 -1.19596e-07 0)
(27.9944 -1.28671e-07 0)
(27.835 -1.37847e-07 0)
(27.675 -1.47227e-07 0)
(27.5145 -1.56695e-07 0)
(27.3534 -1.66254e-07 0)
(27.1918 -1.75996e-07 0)
(27.0297 -1.85714e-07 0)
(26.8671 -1.95906e-07 0)
(26.7041 -2.05995e-07 0)
(26.5405 -2.16279e-07 0)
(26.3765 -2.26783e-07 0)
(26.2121 -2.37125e-07 0)
(26.0472 -2.47881e-07 0)
(25.8819 -2.58615e-07 0)
(25.7162 -2.69555e-07 0)
(25.5501 -2.80374e-07 0)
(25.3837 -2.92128e-07 0)
(25.2169 -3.02355e-07 0)
(25.0497 -3.16156e-07 0)
(24.8823 -3.23418e-07 0)
(24.7145 -3.44312e-07 0)
(24.5464 -3.35342e-07 0)
(24.378 -3.92919e-07 0)
(24.2094 -3.07919e-07 0)
(24.0405 -5.20164e-07 0)
(23.8714 -1.48257e-07 0)
(23.702 -8.65493e-07 0)
(23.5324 3.03166e-07 0)
(23.3627 -1.61876e-06 0)
(23.1928 1.18548e-06 0)
(23.0227 -2.75553e-06 0)
(22.8524 2.59179e-06 0)
(22.6821 -4.21067e-06 0)
(22.5116 6.46622e-06 0)
(22.341 1.98207e-07 0)
(22.1703 4.48534e-05 0)
(21.9995 0.000171742 0)
(21.8285 0.000856176 0)
(21.6563 0.0039887 0)
(21.4792 0.0186447 0)
(21.2771 0.0849982 0)
(21.0266 0.378971 0)
(19.7482 1.18179 0)
(42.684 -3.59618e-05 0)
(42.6453 -2.78347e-05 0)
(42.6014 -1.98762e-05 0)
(42.5598 -1.66746e-05 0)
(42.5194 -1.41167e-05 0)
(42.4789 -1.19198e-05 0)
(42.438 -1.01908e-05 0)
(42.3967 -8.80267e-06 0)
(42.3553 -7.65582e-06 0)
(42.3135 -6.69562e-06 0)
(42.2715 -5.88422e-06 0)
(42.2291 -5.19295e-06 0)
(42.1864 -4.60009e-06 0)
(42.1434 -4.08886e-06 0)
(42.1001 -3.64601e-06 0)
(42.0564 -3.26094e-06 0)
(42.0123 -2.92504e-06 0)
(41.9678 -2.6313e-06 0)
(41.9229 -2.37386e-06 0)
(41.8776 -2.14787e-06 0)
(41.8318 -1.94921e-06 0)
(41.7856 -1.77442e-06 0)
(41.7389 -1.62057e-06 0)
(41.6918 -1.48512e-06 0)
(41.6442 -1.36589e-06 0)
(41.5961 -1.261e-06 0)
(41.5474 -1.16883e-06 0)
(41.4983 -1.08792e-06 0)
(41.4486 -1.01704e-06 0)
(41.3983 -9.55082e-07 0)
(41.3475 -9.01113e-07 0)
(41.2961 -8.54295e-07 0)
(41.2441 -8.13884e-07 0)
(41.1915 -7.79247e-07 0)
(41.1383 -7.49771e-07 0)
(41.0845 -7.24878e-07 0)
(41.03 -7.04044e-07 0)
(40.9749 -6.8683e-07 0)
(40.9191 -6.73004e-07 0)
(40.8627 -6.62275e-07 0)
(40.8055 -6.54252e-07 0)
(40.7477 -6.48623e-07 0)
(40.6892 -6.45142e-07 0)
(40.63 -6.43629e-07 0)
(40.57 -6.43957e-07 0)
(40.5093 -6.46025e-07 0)
(40.4479 -6.49664e-07 0)
(40.3857 -6.5468e-07 0)
(40.3227 -6.60858e-07 0)
(40.259 -6.68013e-07 0)
(40.1945 -6.76116e-07 0)
(40.1292 -6.85036e-07 0)
(40.0631 -6.94871e-07 0)
(39.9961 -7.0546e-07 0)
(39.9284 -7.16345e-07 0)
(39.8598 -7.27053e-07 0)
(39.7904 -7.37499e-07 0)
(39.7202 -7.47855e-07 0)
(39.6491 -7.58072e-07 0)
(39.5772 -7.67783e-07 0)
(39.5044 -7.76253e-07 0)
(39.4307 -7.82664e-07 0)
(39.3561 -7.86047e-07 0)
(39.2807 -7.85426e-07 0)
(39.2043 -7.79987e-07 0)
(39.1271 -7.6892e-07 0)
(39.049 -7.51165e-07 0)
(38.9699 -7.2546e-07 0)
(38.8899 -6.90753e-07 0)
(38.809 -6.46379e-07 0)
(38.7272 -5.9199e-07 0)
(38.6445 -5.27433e-07 0)
(38.5608 -4.5268e-07 0)
(38.4761 -3.68001e-07 0)
(38.3905 -2.74103e-07 0)
(38.304 -1.72257e-07 0)
(38.2165 -6.42785e-08 0)
(38.128 4.75447e-08 0)
(38.0386 1.60552e-07 0)
(37.9482 2.71869e-07 0)
(37.8568 3.78549e-07 0)
(37.7645 4.77703e-07 0)
(37.6712 5.66632e-07 0)
(37.5769 6.42954e-07 0)
(37.4816 7.04686e-07 0)
(37.3853 7.50386e-07 0)
(37.288 7.79218e-07 0)
(37.1898 7.90983e-07 0)
(37.0905 7.86084e-07 0)
(36.9903 7.65494e-07 0)
(36.889 7.30695e-07 0)
(36.7868 6.83601e-07 0)
(36.6836 6.26425e-07 0)
(36.5794 5.61564e-07 0)
(36.4742 4.91472e-07 0)
(36.368 4.18565e-07 0)
(36.2608 3.45145e-07 0)
(36.1526 2.73313e-07 0)
(36.0434 2.04919e-07 0)
(35.9333 1.41508e-07 0)
(35.8221 8.42804e-08 0)
(35.71 3.40436e-08 0)
(35.5969 -8.79799e-09 0)
(35.4828 -4.4249e-08 0)
(35.3677 -7.26786e-08 0)
(35.2517 -9.47434e-08 0)
(35.1347 -1.11288e-07 0)
(35.0167 -1.23233e-07 0)
(34.8977 -1.31488e-07 0)
(34.7778 -1.36861e-07 0)
(34.6569 -1.40024e-07 0)
(34.535 -1.41514e-07 0)
(34.4122 -1.41732e-07 0)
(34.2885 -1.4098e-07 0)
(34.1638 -1.39469e-07 0)
(34.0381 -1.37353e-07 0)
(33.9115 -1.34732e-07 0)
(33.784 -1.31686e-07 0)
(33.6556 -1.28282e-07 0)
(33.5262 -1.24568e-07 0)
(33.3959 -1.2059e-07 0)
(33.2647 -1.16377e-07 0)
(33.1326 -1.11957e-07 0)
(32.9996 -1.07334e-07 0)
(32.8657 -1.02533e-07 0)
(32.7309 -9.75731e-08 0)
(32.5952 -9.24723e-08 0)
(32.4586 -8.72399e-08 0)
(32.3212 -8.18717e-08 0)
(32.1829 -7.63707e-08 0)
(32.0437 -7.07333e-08 0)
(31.9037 -6.49723e-08 0)
(31.7628 -5.90916e-08 0)
(31.6212 -5.30974e-08 0)
(31.4786 -4.69864e-08 0)
(31.3353 -4.07479e-08 0)
(31.1912 -3.43815e-08 0)
(31.0462 -2.78825e-08 0)
(30.9005 -2.12485e-08 0)
(30.754 -1.4492e-08 0)
(30.6067 -7.62704e-09 0)
(30.4587 -6.432e-10 0)
(30.3099 6.46436e-09 0)
(30.1603 1.37059e-08 0)
(30.01 2.1075e-08 0)
(29.859 2.85579e-08 0)
(29.7073 3.61961e-08 0)
(29.5549 4.39352e-08 0)
(29.4017 5.18491e-08 0)
(29.2479 5.9852e-08 0)
(29.0935 6.80167e-08 0)
(28.9383 7.62556e-08 0)
(28.7826 8.47221e-08 0)
(28.6262 9.31723e-08 0)
(28.4691 1.01966e-07 0)
(28.3115 1.10637e-07 0)
(28.1532 1.19646e-07 0)
(27.9944 1.28658e-07 0)
(27.835 1.37854e-07 0)
(27.675 1.47216e-07 0)
(27.5145 1.5668e-07 0)
(27.3534 1.66162e-07 0)
(27.1918 1.76145e-07 0)
(27.0297 1.85792e-07 0)
(26.8671 1.95873e-07 0)
(26.7041 2.059e-07 0)
(26.5405 2.16264e-07 0)
(26.3765 2.26605e-07 0)
(26.2121 2.37215e-07 0)
(26.0472 2.47871e-07 0)
(25.8819 2.58713e-07 0)
(25.7162 2.69289e-07 0)
(25.5501 2.80922e-07 0)
(25.3837 2.91387e-07 0)
(25.2169 3.04573e-07 0)
(25.0497 3.11962e-07 0)
(24.8823 3.31441e-07 0)
(24.7145 3.26052e-07 0)
(24.5464 3.74905e-07 0)
(24.378 3.09265e-07 0)
(24.2094 4.8332e-07 0)
(24.0405 1.73251e-07 0)
(23.8714 8.12334e-07 0)
(23.702 -3.00378e-07 0)
(23.5324 1.67161e-06 0)
(23.3627 -1.38526e-06 0)
(23.1928 3.19497e-06 0)
(23.0227 -3.04606e-06 0)
(22.8524 5.04507e-06 0)
(22.6821 -4.46275e-06 0)
(22.5116 8.38862e-06 0)
(22.341 8.24068e-07 0)
(22.1704 4.66111e-05 0)
(21.9997 0.000171856 0)
(21.8292 0.000867029 0)
(21.6595 0.00406181 0)
(21.4939 0.0193877 0)
(21.3448 0.0916067 0)
(21.245 0.438163 0)
(21.428 1.32081 0)
(42.684 -0.000119046 0)
(42.6454 -0.000102337 0)
(42.6014 -9.97913e-05 0)
(42.5598 -0.00010392 0)
(42.5195 -0.000106072 0)
(42.4789 -0.000107342 0)
(42.438 -0.000108414 0)
(42.3968 -0.000109322 0)
(42.3553 -0.000110077 0)
(42.3135 -0.000110713 0)
(42.2715 -0.000111255 0)
(42.2291 -0.000111719 0)
(42.1865 -0.00011212 0)
(42.1435 -0.000112468 0)
(42.1001 -0.000112773 0)
(42.0564 -0.00011304 0)
(42.0123 -0.000113276 0)
(41.9678 -0.000113486 0)
(41.9229 -0.000113673 0)