/*--------------------------------*- C++ -*----------------------------------*\
| =========                 |                                                 |
| \\      /  F ield         | OpenFOAM: The Open Source CFD Toolbox           |
|  \\    /   O peration     | Version:  3.0.x                                 |
|   \\  /    A nd           | Web:      www.OpenFOAM.org                      |
|    \\/     M anipulation  |                                                 |
\*---------------------------------------------------------------------------*/
FoamFile
{
    version     2.0;
    format      ascii;
    class       volScalarField;
    location    "0.45";
    object      p;
}
// * * * * * * * * * * * * * * * * * * * * * * * * * * * * * * * * * * * * * //

dimensions      [1 -1 -2 0 0 0 0];

internalField   nonuniform List<scalar> 
6900
(
1.81979e+07
1.81979e+07
1.81979e+07
1.81979e+07
1.81979e+07
1.81979e+07
1.81979e+07
1.81979e+07
1.81979e+07
1.81979e+07
1.81978e+07
1.81978e+07
1.81978e+07
1.81978e+07
1.81978e+07
1.81978e+07
1.81978e+07
1.81978e+07
1.81978e+07
1.81978e+07
1.81978e+07
1.81979e+07
1.81979e+07
1.81979e+07
1.81979e+07
1.81979e+07
1.81979e+07
1.81979e+07
1.81979e+07
1.81979e+07
1.81979e+07
1.81979e+07
1.81979e+07
1.81979e+07
1.81979e+07
1.81979e+07
1.81979e+07
1.81979e+07
1.81979e+07
1.81978e+07
1.81978e+07
1.81978e+07
1.81978e+07
1.81978e+07
1.81978e+07
1.81978e+07
1.81978e+07
1.81978e+07
1.81978e+07
1.81978e+07
1.81978e+07
1.81978e+07
1.81979e+07
1.81979e+07
1.81979e+07
1.8198e+07
1.8198e+07
1.81981e+07
1.81981e+07
1.81981e+07
1.81982e+07
1.81982e+07
1.81982e+07
1.81983e+07
1.81983e+07
1.81983e+07
1.81984e+07
1.81984e+07
1.81984e+07
1.81984e+07
1.81985e+07
1.81985e+07
1.81985e+07
1.81985e+07
1.81986e+07
1.81986e+07
1.81986e+07
1.81987e+07
1.81987e+07
1.81988e+07
1.81989e+07
1.8199e+07
1.81991e+07
1.81992e+07
1.81993e+07
1.81995e+07
1.81996e+07
1.81998e+07
1.82e+07
1.82002e+07
1.82004e+07
1.82006e+07
1.82008e+07
1.82011e+07
1.82013e+07
1.82016e+07
1.82018e+07
1.82021e+07
1.82023e+07
1.82026e+07
1.82029e+07
1.82031e+07
1.82034e+07
1.82037e+07
1.8204e+07
1.82043e+07
1.82046e+07
1.82049e+07
1.82052e+07
1.82056e+07
1.82059e+07
1.82063e+07
1.82067e+07
1.82071e+07
1.82075e+07
1.82079e+07
1.82084e+07
1.82089e+07
1.82095e+07
1.821e+07
1.82106e+07
1.82112e+07
1.82119e+07
1.82126e+07
1.82133e+07
1.8214e+07
1.82148e+07
1.82155e+07
1.82163e+07
1.82172e+07
1.8218e+07
1.82188e+07
1.82197e+07
1.82206e+07
1.82215e+07
1.82224e+07
1.82233e+07
1.82242e+07
1.82251e+07
1.8226e+07
1.8227e+07
1.8228e+07
1.82289e+07
1.82299e+07
1.82309e+07
1.8232e+07
1.8233e+07
1.82341e+07
1.82352e+07
1.82364e+07
1.82375e+07
1.82387e+07
1.824e+07
1.82412e+07
1.82425e+07
1.82439e+07
1.82453e+07
1.82467e+07
1.82482e+07
1.82497e+07
1.82513e+07
1.82529e+07
1.82545e+07
1.82562e+07
1.82578e+07
1.82595e+07
1.82613e+07
1.8263e+07
1.82648e+07
1.82666e+07
1.82684e+07
1.82702e+07
1.8272e+07
1.82738e+07
1.82756e+07
1.82775e+07
1.82793e+07
1.82812e+07
1.82831e+07
1.8285e+07
1.82869e+07
1.82889e+07
1.82908e+07
1.82928e+07
1.82949e+07
1.82969e+07
1.8299e+07
1.83011e+07
1.83033e+07
1.83055e+07
1.83077e+07
1.831e+07
1.83124e+07
1.83147e+07
1.83172e+07
1.83196e+07
1.83222e+07
1.83248e+07
1.83275e+07
1.83307e+07
1.81979e+07
1.81979e+07
1.81979e+07
1.81979e+07
1.81979e+07
1.81979e+07
1.81979e+07
1.81979e+07
1.81979e+07
1.81979e+07
1.81978e+07
1.81978e+07
1.81978e+07
1.81978e+07
1.81978e+07
1.81978e+07
1.81978e+07
1.81978e+07
1.81978e+07
1.81978e+07
1.81978e+07
1.81979e+07
1.81979e+07
1.81979e+07
1.81979e+07
1.81979e+07
1.81979e+07
1.81979e+07
1.81979e+07
1.81979e+07
1.81979e+07
1.81979e+07
1.81979e+07
1.81979e+07
1.81979e+07
1.81979e+07
1.81979e+07
1.81979e+07
1.81979e+07
1.81978e+07
1.81978e+07
1.81978e+07
1.81978e+07
1.81978e+07
1.81978e+07
1.81978e+07
1.81978e+07
1.81978e+07
1.81978e+07
1.81978e+07
1.81978e+07
1.81978e+07
1.81979e+07
1.81979e+07
1.81979e+07
1.8198e+07
1.8198e+07
1.81981e+07
1.81981e+07
1.81981e+07
1.81982e+07
1.81982e+07
1.81982e+07
1.81983e+07
1.81983e+07
1.81983e+07
1.81984e+07
1.81984e+07
1.81984e+07
1.81984e+07
1.81985e+07
1.81985e+07
1.81985e+07
1.81985e+07
1.81986e+07
1.81986e+07
1.81986e+07
1.81987e+07
1.81987e+07
1.81988e+07
1.81989e+07
1.8199e+07
1.81991e+07
1.81992e+07
1.81993e+07
1.81995e+07
1.81996e+07
1.81998e+07
1.82e+07
1.82002e+07
1.82004e+07
1.82006e+07
1.82008e+07
1.82011e+07
1.82013e+07
1.82016e+07
1.82018e+07
1.82021e+07
1.82023e+07
1.82026e+07
1.82029e+07
1.82031e+07
1.82034e+07
1.82037e+07
1.8204e+07
1.82043e+07
1.82046e+07
1.82049e+07
1.82052e+07
1.82056e+07
1.82059e+07
1.82063e+07
1.82067e+07
1.82071e+07
1.82075e+07
1.82079e+07
1.82084e+07
1.82089e+07
1.82095e+07
1.821e+07
1.82106e+07
1.82112e+07
1.82119e+07
1.82126e+07
1.82133e+07
1.8214e+07
1.82148e+07
1.82155e+07
1.82163e+07
1.82172e+07
1.8218e+07
1.82188e+07
1.82197e+07
1.82206e+07
1.82215e+07
1.82224e+07
1.82233e+07
1.82242e+07
1.82251e+07
1.8226e+07
1.8227e+07
1.8228e+07
1.82289e+07
1.82299e+07
1.82309e+07
1.8232e+07
1.8233e+07
1.82341e+07
1.82352e+07
1.82364e+07
1.82375e+07
1.82387e+07
1.824e+07
1.82412e+07
1.82425e+07
1.82439e+07
1.82453e+07
1.82467e+07
1.82482e+07
1.82497e+07
1.82513e+07
1.82529e+07
1.82545e+07
1.82562e+07
1.82578e+07
1.82595e+07
1.82613e+07
1.8263e+07
1.82648e+07
1.82666e+07
1.82684e+07
1.82702e+07
1.8272e+07
1.82738e+07
1.82756e+07
1.82775e+07
1.82793e+07
1.82812e+07
1.82831e+07
1.8285e+07
1.82869e+07
1.82889e+07
1.82908e+07
1.82928e+07
1.82949e+07
1.82969e+07
1.8299e+07
1.83011e+07
1.83033e+07
1.83055e+07
1.83077e+07
1.831e+07
1.83124e+07
1.83147e+07
1.83172e+07
1.83196e+07
1.83222e+07
1.83248e+07
1.83275e+07
1.83307e+07
1.81979e+07
1.81979e+07
1.81979e+07
1.81979e+07
1.81979e+07
1.81979e+07
1.81979e+07
1.81979e+07
1.81979e+07
1.81979e+07
1.81978e+07
1.81978e+07
1.81978e+07
1.81978e+07
1.81978e+07
1.81978e+07
1.81978e+07
1.81978e+07
1.81978e+07
1.81978e+07
1.81978e+07
1.81979e+07
1.81979e+07
1.81979e+07
1.81979e+07
1.81979e+07
1.81979e+07
1.81979e+07
1.81979e+07
1.81979e+07
1.81979e+07
1.81979e+07
1.81979e+07
1.81979e+07
1.81979e+07
1.81979e+07
1.81979e+07
1.81979e+07
1.81979e+07
1.81978e+07
1.81978e+07
1.81978e+07
1.81978e+07
1.81978e+07
1.81978e+07
1.81978e+07
1.81978e+07
1.81978e+07
1.81978e+07
1.81978e+07
1.81978e+07
1.81978e+07
1.81979e+07
1.81979e+07
1.81979e+07
1.8198e+07
1.8198e+07
1.81981e+07
1.81981e+07
1.81981e+07
1.81982e+07
1.81982e+07
1.81982e+07
1.81983e+07
1.81983e+07
1.81983e+07
1.81984e+07
1.81984e+07
1.81984e+07
1.81984e+07
1.81985e+07
1.81985e+07
1.81985e+07
1.81985e+07
1.81986e+07
1.81986e+07
1.81986e+07
1.81987e+07
1.81987e+07
1.81988e+07
1.81989e+07
1.8199e+07
1.81991e+07
1.81992e+07
1.81993e+07
1.81995e+07
1.81996e+07
1.81998e+07
1.82e+07
1.82002e+07
1.82004e+07
1.82006e+07
1.82008e+07
1.82011e+07
1.82013e+07
1.82016e+07
1.82018e+07
1.82021e+07
1.82023e+07
1.82026e+07
1.82029e+07
1.82031e+07
1.82034e+07
1.82037e+07
1.8204e+07
1.82043e+07
1.82046e+07
1.82049e+07
1.82052e+07
1.82056e+07
1.82059e+07
1.82063e+07
1.82067e+07
1.82071e+07
1.82075e+07
1.82079e+07
1.82084e+07
1.82089e+07
1.82095e+07
1.821e+07
1.82106e+07
1.82112e+07
1.82119e+07
1.82126e+07
1.82133e+07
1.8214e+07
1.82148e+07
1.82155e+07
1.82163e+07
1.82172e+07
1.8218e+07
1.82188e+07
1.82197e+07
1.82206e+07
1.82215e+07
1.82224e+07
1.82233e+07
1.82242e+07
1.82251e+07
1.8226e+07
1.8227e+07
1.8228e+07
1.82289e+07
1.82299e+07
1.82309e+07
1.8232e+07
1.8233e+07
1.82341e+07
1.82352e+07
1.82364e+07
1.82375e+07
1.82387e+07
1.824e+07
1.82412e+07
1.82425e+07
1.82439e+07
1.82453e+07
1.82467e+07
1.82482e+07
1.82497e+07
1.82513e+07
1.82529e+07
1.82545e+07
1.82562e+07
1.82578e+07
1.82595e+07
1.82613e+07
1.8263e+07
1.82648e+07
1.82666e+07
1.82684e+07
1.82702e+07
1.8272e+07
1.82738e+07
1.82756e+07
1.82775e+07
1.82793e+07
1.82812e+07
1.82831e+07
1.8285e+07
1.82869e+07
1.82889e+07
1.82908e+07
1.82928e+07
1.82949e+07
1.82969e+07
1.8299e+07
1.83011e+07
1.83033e+07
1.83055e+07
1.83077e+07
1.831e+07
1.83124e+07
1.83147e+07
1.83172e+07
1.83196e+07
1.83222e+07
1.83248e+07
1.83274e+07
1.83301e+07
1.81979e+07
1.81979e+07
1.81979e+07
1.81979e+07
1.81979e+07
1.81979e+07
1.81979e+07
1.81979e+07
1.81979e+07
1.81979e+07
1.81978e+07
1.81978e+07
1.81978e+07
1.81978e+07
1.81978e+07
1.81978e+07
1.81978e+07
1.81978e+07
1.81978e+07
1.81978e+07
1.81978e+07
1.81979e+07
1.81979e+07
1.81979e+07
1.81979e+07
1.81979e+07
1.81979e+07
1.81979e+07
1.81979e+07
1.81979e+07
1.81979e+07
1.81979e+07
1.81979e+07
1.81979e+07
1.81979e+07
1.81979e+07
1.81979e+07
1.81979e+07
1.81979e+07
1.81978e+07
1.81978e+07
1.81978e+07
1.81978e+07
1.81978e+07
1.81978e+07
1.81978e+07
1.81978e+07
1.81978e+07
1.81978e+07
1.81978e+07
1.81978e+07
1.81978e+07
1.81979e+07
1.81979e+07
1.81979e+07
1.8198e+07
1.8198e+07
1.81981e+07
1.81981e+07
1.81981e+07
1.81982e+07
1.81982e+07
1.81982e+07
1.81983e+07
1.81983e+07
1.81983e+07
1.81984e+07
1.81984e+07
1.81984e+07
1.81984e+07
1.81985e+07
1.81985e+07
1.81985e+07
1.81985e+07
1.81986e+07
1.81986e+07
1.81986e+07
1.81987e+07
1.81987e+07
1.81988e+07
1.81989e+07
1.8199e+07
1.81991e+07
1.81992e+07
1.81993e+07
1.81995e+07
1.81996e+07
1.81998e+07
1.82e+07
1.82002e+07
1.82004e+07
1.82006e+07
1.82008e+07
1.82011e+07
1.82013e+07
1.82016e+07
1.82018e+07
1.82021e+07
1.82023e+07
1.82026e+07
1.82029e+07
1.82031e+07
1.82034e+07
1.82037e+07
1.8204e+07
1.82043e+07
1.82046e+07
1.82049e+07
1.82052e+07
1.82056e+07
1.82059e+07
1.82063e+07
1.82067e+07
1.82071e+07
1.82075e+07
1.82079e+07
1.82084e+07
1.82089e+07
1.82095e+07
1.821e+07
1.82106e+07
1.82112e+07
1.82119e+07
1.82126e+07
1.82133e+07
1.8214e+07
1.82148e+07
1.82155e+07
1.82163e+07
1.82172e+07
1.8218e+07
1.82188e+07
1.82197e+07
1.82206e+07
1.82215e+07
1.82224e+07
1.82233e+07
1.82242e+07
1.82251e+07
1.8226e+07
1.8227e+07
1.8228e+07
1.82289e+07
1.82299e+07
1.82309e+07
1.8232e+07
1.8233e+07
1.82341e+07
1.82352e+07
1.82364e+07
1.82375e+07
1.82387e+07
1.824e+07
1.82412e+07
1.82425e+07
1.82439e+07
1.82453e+07
1.82467e+07
1.82482e+07
1.82497e+07
1.82513e+07
1.82529e+07
1.82545e+07
1.82562e+07
1.82578e+07
1.82595e+07
1.82613e+07
1.8263e+07
1.82648e+07
1.82666e+07
1.82684e+07
1.82702e+07
1.8272e+07
1.82738e+07
1.82756e+07
1.82775e+07
1.82793e+07
1.82812e+07
1.82831e+07
1.8285e+07
1.82869e+07
1.82889e+07
1.82908e+07
1.82928e+07
1.82949e+07
1.82969e+07
1.8299e+07
1.83011e+07
1.83033e+07
1.83055e+07
1.83077e+07
1.831e+07
1.83124e+07
1.83147e+07
1.83172e+07
1.83196e+07
1.83222e+07
1.83247e+07
1.83272e+07
1.83293e+07
1.81979e+07
1.81979e+07
1.81979e+07
1.81979e+07
1.81979e+07
1.81979e+07
1.81979e+07
1.81979e+07
1.81979e+07
1.81979e+07
1.81978e+07
1.81978e+07
1.81978e+07
1.81978e+07
1.81978e+07
1.81978e+07
1.81978e+07
1.81978e+07
1.81978e+07
1.81978e+07
1.81978e+07
1.81979e+07
1.81979e+07
1.81979e+07
1.81979e+07
1.81979e+07
1.81979e+07
1.81979e+07
1.81979e+07
1.81979e+07
1.81979e+07
1.81979e+07
1.81979e+07
1.81979e+07
1.81979e+07
1.81979e+07
1.81979e+07
1.81979e+07
1.81979e+07
1.81978e+07
1.81978e+07
1.81978e+07
1.81978e+07
1.81978e+07
1.81978e+07
1.81978e+07
1.81978e+07
1.81978e+07
1.81978e+07
1.81978e+07
1.81978e+07
1.81978e+07
1.81979e+07
1.81979e+07
1.81979e+07
1.8198e+07
1.8198e+07
1.81981e+07
1.81981e+07
1.81981e+07
1.81982e+07
1.81982e+07
1.81982e+07
1.81983e+07
1.81983e+07
1.81983e+07
1.81984e+07
1.81984e+07
1.81984e+07
1.81984e+07
1.81985e+07
1.81985e+07
1.81985e+07
1.81985e+07
1.81986e+07
1.81986e+07
1.81986e+07
1.81987e+07
1.81987e+07
1.81988e+07
1.81989e+07
1.8199e+07
1.81991e+07
1.81992e+07
1.81993e+07
1.81995e+07
1.81996e+07
1.81998e+07
1.82e+07
1.82002e+07
1.82004e+07
1.82006e+07
1.82008e+07
1.82011e+07
1.82013e+07
1.82016e+07
1.82018e+07
1.82021e+07
1.82023e+07
1.82026e+07
1.82029e+07
1.82031e+07
1.82034e+07
1.82037e+07
1.8204e+07
1.82043e+07
1.82046e+07
1.82049e+07
1.82052e+07
1.82056e+07
1.82059e+07
1.82063e+07
1.82067e+07
1.82071e+07
1.82075e+07
1.82079e+07
1.82084e+07
1.82089e+07
1.82095e+07
1.821e+07
1.82106e+07
1.82112e+07
1.82119e+07
1.82126e+07
1.82133e+07
1.8214e+07
1.82148e+07
1.82155e+07
1.82163e+07
1.82172e+07
1.8218e+07
1.82188e+07
1.82197e+07
1.82206e+07
1.82215e+07
1.82224e+07
1.82233e+07
1.82242e+07
1.82251e+07
1.8226e+07
1.8227e+07
1.8228e+07
1.82289e+07
1.82299e+07
1.82309e+07
1.8232e+07
1.8233e+07
1.82341e+07
1.82352e+07
1.82364e+07
1.82375e+07
1.82387e+07
1.824e+07
1.82412e+07
1.82425e+07
1.82439e+07
1.82453e+07
1.82467e+07
1.82482e+07
1.82497e+07
1.82513e+07
1.82529e+07
1.82545e+07
1.82562e+07
1.82578e+07
1.82595e+07
1.82613e+07
1.8263e+07
1.82648e+07
1.82666e+07
1.82684e+07
1.82702e+07
1.8272e+07
1.82738e+07
1.82756e+07
1.82775e+07
1.82793e+07
1.82812e+07
1.82831e+07
1.8285e+07
1.82869e+07
1.82889e+07
1.82908e+07
1.82928e+07
1.82949e+07
1.82969e+07
1.8299e+07
1.83011e+07
1.83033e+07
1.83055e+07
1.83077e+07
1.831e+07
1.83124e+07
1.83147e+07
1.83172e+07
1.83196e+07
1.83222e+07
1.83247e+07
1.83272e+07
1.83293e+07
1.83375e+07
1.83404e+07
1.83411e+07
1.83411e+07
1.8341e+07
1.83409e+07
1.83406e+07
1.83405e+07
1.83409e+07
1.83424e+07
1.83432e+07
1.83419e+07
1.83382e+07
1.8334e+07
1.83317e+07
1.83298e+07
1.83283e+07
1.83277e+07
1.83294e+07
1.83318e+07
1.83361e+07
1.83378e+07
1.83382e+07
1.83382e+07
1.83381e+07
1.8338e+07
1.83377e+07
1.83376e+07
1.8338e+07
1.83396e+07
1.83402e+07
1.83385e+07
1.83342e+07
1.83299e+07
1.83277e+07
1.83261e+07
1.83248e+07
1.83245e+07
1.83266e+07
1.83284e+07
1.8332e+07
1.83325e+07
1.83326e+07
1.83324e+07
1.83319e+07
1.83313e+07
1.83303e+07
1.83291e+07
1.83275e+07
1.83256e+07
1.83236e+07
1.83217e+07
1.83198e+07
1.83177e+07
1.83152e+07
1.83124e+07
1.83093e+07
1.8306e+07
1.83023e+07
1.82988e+07
1.83244e+07
1.83241e+07
1.83249e+07
1.83257e+07
1.83255e+07
1.83245e+07
1.83231e+07
1.8321e+07
1.83193e+07
1.8317e+07
1.83153e+07
1.83131e+07
1.83111e+07
1.83092e+07
1.83075e+07
1.83061e+07
1.83049e+07
1.83039e+07
1.83031e+07
1.83026e+07
1.83203e+07
1.83168e+07
1.83158e+07
1.8316e+07
1.83157e+07
1.83145e+07
1.83128e+07
1.83105e+07
1.83083e+07
1.83058e+07
1.83036e+07
1.83011e+07
1.82988e+07
1.82966e+07
1.82946e+07
1.82929e+07
1.82915e+07
1.82904e+07
1.82897e+07
1.829e+07
1.83147e+07
1.83035e+07
1.83049e+07
1.83088e+07
1.83104e+07
1.83109e+07
1.83124e+07
1.83147e+07
1.83172e+07
1.83195e+07
1.83217e+07
1.83239e+07
1.83263e+07
1.83287e+07
1.83311e+07
1.83335e+07
1.83359e+07
1.83383e+07
1.83407e+07
1.83431e+07
1.83456e+07
1.8348e+07
1.83505e+07
1.8353e+07
1.83555e+07
1.8358e+07
1.83605e+07
1.83631e+07
1.83657e+07
1.83683e+07
1.83709e+07
1.83736e+07
1.83763e+07
1.8379e+07
1.83817e+07
1.83844e+07
1.83872e+07
1.839e+07
1.83928e+07
1.83956e+07
1.83985e+07
1.84014e+07
1.84043e+07
1.84072e+07
1.84102e+07
1.84132e+07
1.84162e+07
1.84192e+07
1.84223e+07
1.84253e+07
1.84284e+07
1.84316e+07
1.84347e+07
1.84379e+07
1.84411e+07
1.84443e+07
1.84475e+07
1.84507e+07
1.8454e+07
1.84573e+07
1.84606e+07
1.84638e+07
1.84672e+07
1.84705e+07
1.84738e+07
1.84771e+07
1.84805e+07
1.84838e+07
1.84872e+07
1.84905e+07
1.84939e+07
1.84973e+07
1.85007e+07
1.85041e+07
1.85075e+07
1.8511e+07
1.85144e+07
1.85179e+07
1.85216e+07
1.85252e+07
1.85285e+07
1.85318e+07
1.85352e+07
1.85388e+07
1.85423e+07
1.85459e+07
1.85496e+07
1.85532e+07
1.85569e+07
1.85607e+07
1.85645e+07
1.85683e+07
1.85721e+07
1.8576e+07
1.85799e+07
1.85838e+07
1.85877e+07
1.85916e+07
1.85956e+07
1.85996e+07
1.86036e+07
1.86076e+07
1.86116e+07
1.86156e+07
1.86197e+07
1.86237e+07
1.86277e+07
1.86318e+07
1.86358e+07
1.86398e+07
1.86438e+07
1.86479e+07
1.86519e+07
1.86559e+07
1.866e+07
1.8664e+07
1.8668e+07
1.86721e+07
1.86761e+07
1.86802e+07
1.86842e+07
1.86883e+07
1.86924e+07
1.86964e+07
1.87005e+07
1.87046e+07
1.87087e+07
1.87128e+07
1.87168e+07
1.87209e+07
1.8725e+07
1.87291e+07
1.87332e+07
1.87374e+07
1.87415e+07
1.87456e+07
1.87497e+07
1.87539e+07
1.8758e+07
1.87621e+07
1.87663e+07
1.87705e+07
1.87746e+07
1.87788e+07
1.8783e+07
1.87872e+07
1.87914e+07
1.87956e+07
1.87998e+07
1.8804e+07
1.88082e+07
1.88124e+07
1.88166e+07
1.88209e+07
1.88251e+07
1.88294e+07
1.88336e+07
1.88379e+07
1.88422e+07
1.88464e+07
1.88507e+07
1.8855e+07
1.88592e+07
1.88635e+07
1.88678e+07
1.8872e+07
1.88763e+07
1.88806e+07
1.88849e+07
1.88891e+07
1.88934e+07
1.88976e+07
1.89019e+07
1.89061e+07
1.89104e+07
1.89146e+07
1.89189e+07
1.89231e+07
1.89273e+07
1.89315e+07
1.89357e+07
1.894e+07
1.89442e+07
1.89484e+07
1.89525e+07
1.89567e+07
1.89609e+07
1.89651e+07
1.89693e+07
1.89734e+07
1.89776e+07
1.89818e+07
1.89859e+07
1.89901e+07
1.89942e+07
1.89984e+07
1.90025e+07
1.90066e+07
1.90107e+07
1.90148e+07
1.83133e+07
1.83034e+07
1.83049e+07
1.83088e+07
1.83104e+07
1.8311e+07
1.83124e+07
1.83147e+07
1.83172e+07
1.83195e+07
1.83217e+07
1.83239e+07
1.83263e+07
1.83287e+07
1.83311e+07
1.83335e+07
1.83359e+07
1.83383e+07
1.83407e+07
1.83431e+07
1.83456e+07
1.8348e+07
1.83505e+07
1.8353e+07
1.83555e+07
1.8358e+07
1.83605e+07
1.83631e+07
1.83657e+07
1.83683e+07
1.83709e+07
1.83736e+07
1.83763e+07
1.8379e+07
1.83817e+07
1.83844e+07
1.83872e+07
1.839e+07
1.83928e+07
1.83956e+07
1.83985e+07
1.84014e+07
1.84043e+07
1.84072e+07
1.84102e+07
1.84132e+07
1.84162e+07
1.84192e+07
1.84223e+07
1.84253e+07
1.84284e+07
1.84316e+07
1.84347e+07
1.84379e+07
1.84411e+07
1.84443e+07
1.84475e+07
1.84507e+07
1.8454e+07
1.84573e+07
1.84606e+07
1.84638e+07
1.84672e+07
1.84705e+07
1.84738e+07
1.84771e+07
1.84805e+07
1.84838e+07
1.84872e+07
1.84905e+07
1.84939e+07
1.84973e+07
1.85007e+07
1.85041e+07
1.85075e+07
1.8511e+07
1.85144e+07
1.85179e+07
1.85216e+07
1.85252e+07
1.85285e+07
1.85318e+07
1.85352e+07
1.85388e+07
1.85423e+07
1.85459e+07
1.85496e+07
1.85532e+07
1.85569e+07
1.85607e+07
1.85644e+07
1.85683e+07
1.85721e+07
1.8576e+07
1.85798e+07
1.85838e+07
1.85877e+07
1.85916e+07
1.85956e+07
1.85996e+07
1.86036e+07
1.86076e+07
1.86116e+07
1.86156e+07
1.86197e+07
1.86237e+07
1.86277e+07
1.86318e+07
1.86358e+07
1.86398e+07
1.86438e+07
1.86479e+07
1.86519e+07
1.86559e+07
1.866e+07
1.8664e+07
1.8668e+07
1.86721e+07
1.86761e+07
1.86802e+07
1.86842e+07
1.86883e+07
1.86924e+07
1.86964e+07
1.87005e+07
1.87046e+07
1.87087e+07
1.87128e+07
1.87168e+07
1.87209e+07
1.8725e+07
1.87291e+07
1.87332e+07
1.87374e+07
1.87415e+07
1.87456e+07
1.87497e+07
1.87539e+07
1.8758e+07
1.87621e+07
1.87663e+07
1.87705e+07
1.87746e+07
1.87788e+07
1.8783e+07
1.87872e+07
1.87914e+07
1.87956e+07
1.87998e+07
1.8804e+07
1.88082e+07
1.88124e+07
1.88166e+07
1.88209e+07
1.88251e+07
1.88294e+07
1.88336e+07
1.88379e+07
1.88422e+07
1.88464e+07
1.88507e+07
1.8855e+07
1.88592e+07
1.88635e+07
1.88678e+07
1.8872e+07
1.88763e+07
1.88806e+07
1.88849e+07
1.88891e+07
1.88934e+07
1.88976e+07
1.89019e+07
1.89061e+07
1.89104e+07
1.89146e+07
1.89189e+07
1.89231e+07
1.89273e+07
1.89315e+07
1.89357e+07
1.894e+07
1.89442e+07
1.89484e+07
1.89525e+07
1.89567e+07
1.89609e+07
1.89651e+07
1.89693e+07
1.89734e+07
1.89776e+07
1.89818e+07
1.89859e+07
1.89901e+07
1.89942e+07
1.89984e+07
1.90025e+07
1.90066e+07
1.90107e+07
1.90148e+07
1.82914e+07
1.82979e+07
1.83034e+07
1.8306e+07
1.83078e+07
1.83098e+07
1.83122e+07
1.83146e+07
1.83169e+07
1.83192e+07
1.83216e+07
1.83239e+07
1.83263e+07
1.83287e+07
1.83311e+07
1.83335e+07
1.83359e+07
1.83383e+07
1.83407e+07
1.83431e+07
1.83456e+07
1.8348e+07
1.83505e+07
1.8353e+07
1.83555e+07
1.8358e+07
1.83605e+07
1.83631e+07
1.83657e+07
1.83683e+07
1.83709e+07
1.83736e+07
1.83763e+07
1.8379e+07
1.83817e+07
1.83844e+07
1.83872e+07
1.839e+07
1.83928e+07
1.83956e+07
1.83985e+07
1.84014e+07
1.84043e+07
1.84072e+07
1.84102e+07
1.84132e+07
1.84162e+07
1.84192e+07
1.84223e+07
1.84253e+07
1.84284e+07
1.84316e+07
1.84347e+07
1.84379e+07
1.84411e+07
1.84443e+07
1.84475e+07
1.84508e+07
1.8454e+07
1.84573e+07
1.84606e+07
1.84639e+07
1.84672e+07
1.84705e+07
1.84738e+07
1.84771e+07
1.84805e+07
1.84838e+07
1.84872e+07
1.84906e+07
1.84939e+07
1.84973e+07
1.85007e+07
1.85041e+07
1.85076e+07
1.8511e+07
1.85144e+07
1.85179e+07
1.85213e+07
1.85248e+07
1.85282e+07
1.85318e+07
1.85353e+07
1.85389e+07
1.85425e+07
1.85461e+07
1.85497e+07
1.85534e+07
1.85571e+07
1.85608e+07
1.85646e+07
1.85684e+07
1.85722e+07
1.85761e+07
1.858e+07
1.85839e+07
1.85878e+07
1.85917e+07
1.85957e+07
1.85997e+07
1.86036e+07
1.86076e+07
1.86116e+07
1.86156e+07
1.86197e+07
1.86237e+07
1.86277e+07
1.86318e+07
1.86358e+07
1.86398e+07
1.86438e+07
1.86479e+07
1.86519e+07
1.86559e+07
1.866e+07
1.8664e+07
1.8668e+07
1.86721e+07
1.86761e+07
1.86802e+07
1.86842e+07
1.86883e+07
1.86924e+07
1.86964e+07
1.87005e+07
1.87046e+07
1.87087e+07
1.87128e+07
1.87168e+07
1.87209e+07
1.8725e+07
1.87291e+07
1.87332e+07
1.87374e+07
1.87415e+07
1.87456e+07
1.87497e+07
1.87539e+07
1.8758e+07
1.87621e+07
1.87663e+07
1.87705e+07
1.87746e+07
1.87788e+07
1.8783e+07
1.87872e+07
1.87914e+07
1.87956e+07
1.87998e+07
1.8804e+07
1.88082e+07
1.88124e+07
1.88166e+07
1.88209e+07
1.88251e+07
1.88294e+07
1.88336e+07
1.88379e+07
1.88422e+07
1.88464e+07
1.88507e+07
1.8855e+07
1.88592e+07
1.88635e+07
1.88678e+07
1.8872e+07
1.88763e+07
1.88806e+07
1.88849e+07
1.88891e+07
1.88934e+07
1.88976e+07
1.89019e+07
1.89061e+07
1.89104e+07
1.89146e+07
1.89189e+07
1.89231e+07
1.89273e+07
1.89315e+07
1.89357e+07
1.894e+07
1.89442e+07
1.89484e+07
1.89525e+07
1.89567e+07
1.89609e+07
1.89651e+07
1.89693e+07
1.89734e+07
1.89776e+07
1.89818e+07
1.89859e+07
1.89901e+07
1.89942e+07
1.89984e+07
1.90025e+07
1.90066e+07
1.90107e+07
1.90149e+07
1.83005e+07
1.83017e+07
1.83037e+07
1.83057e+07
1.83076e+07
1.83097e+07
1.8312e+07
1.83144e+07
1.83167e+07
1.8319e+07
1.83214e+07
1.83238e+07
1.83262e+07
1.83286e+07
1.8331e+07
1.83334e+07
1.83358e+07
1.83382e+07
1.83406e+07
1.83431e+07
1.83455e+07
1.8348e+07
1.83505e+07
1.83529e+07
1.83555e+07
1.8358e+07
1.83605e+07
1.83631e+07
1.83657e+07
1.83683e+07
1.83709e+07
1.83736e+07
1.83763e+07
1.8379e+07
1.83817e+07
1.83844e+07
1.83872e+07
1.839e+07
1.83928e+07
1.83956e+07
1.83985e+07
1.84014e+07
1.84043e+07
1.84072e+07
1.84102e+07
1.84132e+07
1.84162e+07
1.84192e+07
1.84223e+07
1.84254e+07
1.84285e+07
1.84316e+07
1.84347e+07
1.84379e+07
1.84411e+07
1.84443e+07
1.84475e+07
1.84508e+07
1.8454e+07
1.84573e+07
1.84606e+07
1.84639e+07
1.84672e+07
1.84705e+07
1.84738e+07
1.84771e+07
1.84805e+07
1.84838e+07
1.84872e+07
1.84906e+07
1.8494e+07
1.84974e+07
1.85008e+07
1.85042e+07
1.85076e+07
1.8511e+07
1.85145e+07
1.8518e+07
1.85214e+07
1.85249e+07
1.85283e+07
1.85319e+07
1.85354e+07
1.8539e+07
1.85426e+07
1.85462e+07
1.85499e+07
1.85535e+07
1.85572e+07
1.8561e+07
1.85647e+07
1.85685e+07
1.85724e+07
1.85762e+07
1.85801e+07
1.8584e+07
1.85879e+07
1.85918e+07
1.85957e+07
1.85997e+07
1.86037e+07
1.86077e+07
1.86117e+07
1.86157e+07
1.86197e+07
1.86237e+07
1.86277e+07
1.86318e+07
1.86358e+07
1.86398e+07
1.86438e+07
1.86479e+07
1.86519e+07
1.86559e+07
1.866e+07
1.8664e+07
1.8668e+07
1.86721e+07
1.86761e+07
1.86802e+07
1.86842e+07
1.86883e+07
1.86924e+07
1.86964e+07
1.87005e+07
1.87046e+07
1.87087e+07
1.87128e+07
1.87168e+07
1.87209e+07
1.8725e+07
1.87291e+07
1.87332e+07
1.87374e+07
1.87415e+07
1.87456e+07
1.87497e+07
1.87539e+07
1.8758e+07
1.87621e+07
1.87663e+07
1.87705e+07
1.87746e+07
1.87788e+07
1.8783e+07
1.87872e+07
1.87914e+07
1.87956e+07
1.87998e+07
1.8804e+07
1.88082e+07
1.88124e+07
1.88166e+07
1.88209e+07
1.88251e+07
1.88294e+07
1.88336e+07
1.88379e+07
1.88422e+07
1.88464e+07
1.88507e+07
1.8855e+07
1.88592e+07
1.88635e+07
1.88678e+07
1.8872e+07
1.88763e+07
1.88806e+07
1.88849e+07
1.88891e+07
1.88934e+07
1.88976e+07
1.89019e+07
1.89061e+07
1.89104e+07
1.89146e+07
1.89189e+07
1.89231e+07
1.89273e+07
1.89315e+07
1.89357e+07
1.894e+07
1.89442e+07
1.89484e+07
1.89525e+07
1.89567e+07
1.89609e+07
1.89651e+07
1.89693e+07
1.89734e+07
1.89776e+07
1.89818e+07
1.89859e+07
1.89901e+07
1.89942e+07
1.89984e+07
1.90025e+07
1.90066e+07
1.90108e+07
1.90149e+07
1.82982e+07
1.83014e+07
1.83036e+07
1.83057e+07
1.83076e+07
1.83097e+07
1.8312e+07
1.83144e+07
1.83167e+07
1.8319e+07
1.83214e+07
1.83238e+07
1.83262e+07
1.83286e+07
1.8331e+07
1.83334e+07
1.83358e+07
1.83382e+07
1.83406e+07
1.83431e+07
1.83455e+07
1.8348e+07
1.83505e+07
1.83529e+07
1.83555e+07
1.8358e+07
1.83605e+07
1.83631e+07
1.83657e+07
1.83683e+07
1.83709e+07
1.83736e+07
1.83763e+07
1.8379e+07
1.83817e+07
1.83844e+07
1.83872e+07
1.839e+07
1.83928e+07
1.83956e+07
1.83985e+07
1.84014e+07
1.84043e+07
1.84072e+07
1.84102e+07
1.84132e+07
1.84162e+07
1.84192e+07
1.84223e+07
1.84254e+07
1.84285e+07
1.84316e+07
1.84347e+07
1.84379e+07
1.84411e+07
1.84443e+07
1.84475e+07
1.84508e+07
1.8454e+07
1.84573e+07
1.84606e+07
1.84639e+07
1.84672e+07
1.84705e+07
1.84738e+07
1.84771e+07
1.84805e+07
1.84838e+07
1.84872e+07
1.84906e+07
1.8494e+07
1.84974e+07
1.85008e+07
1.85042e+07
1.85076e+07
1.8511e+07
1.85145e+07
1.8518e+07
1.85214e+07
1.85249e+07
1.85283e+07
1.85318e+07
1.85354e+07
1.8539e+07
1.85426e+07
1.85462e+07
1.85498e+07
1.85535e+07
1.85572e+07
1.8561e+07
1.85647e+07
1.85685e+07
1.85723e+07
1.85762e+07
1.85801e+07
1.8584e+07
1.85879e+07
1.85918e+07
1.85957e+07
1.85997e+07
1.86037e+07
1.86077e+07
1.86117e+07
1.86157e+07
1.86197e+07
1.86237e+07
1.86277e+07
1.86318e+07
1.86358e+07
1.86398e+07
1.86438e+07
1.86479e+07
1.86519e+07
1.86559e+07
1.866e+07
1.8664e+07
1.8668e+07
1.86721e+07
1.86761e+07
1.86802e+07
1.86842e+07
1.86883e+07
1.86924e+07
1.86964e+07
1.87005e+07
1.87046e+07
1.87087e+07
1.87128e+07
1.87168e+07
1.87209e+07
1.8725e+07
1.87291e+07
1.87332e+07
1.87374e+07
1.87415e+07
1.87456e+07
1.87497e+07
1.87539e+07
1.8758e+07
1.87621e+07
1.87663e+07
1.87705e+07
1.87746e+07
1.87788e+07
1.8783e+07
1.87872e+07
1.87914e+07
1.87956e+07
1.87998e+07
1.8804e+07
1.88082e+07
1.88124e+07
1.88166e+07
1.88209e+07
1.88251e+07
1.88294e+07
1.88336e+07
1.88379e+07
1.88422e+07
1.88464e+07
1.88507e+07
1.8855e+07
1.88592e+07
1.88635e+07
1.88678e+07
1.8872e+07
1.88763e+07
1.88806e+07
1.88849e+07
1.88891e+07
1.88934e+07
1.88976e+07
1.89019e+07
1.89061e+07
1.89104e+07
1.89146e+07
1.89189e+07
1.89231e+07
1.89273e+07
1.89315e+07
1.89357e+07
1.894e+07
1.89442e+07
1.89484e+07
1.89525e+07
1.89567e+07
1.89609e+07
1.89651e+07
1.89693e+07
1.89734e+07
1.89776e+07
1.89818e+07
1.89859e+07
1.89901e+07
1.89942e+07
1.89984e+07
1.90025e+07
1.90066e+07
1.90108e+07
1.90149e+07
1.90162e+07
1.90163e+07
1.90169e+07
1.90175e+07
1.90181e+07
1.90185e+07
1.90188e+07
1.90191e+07
1.90194e+07
1.90196e+07
1.90199e+07
1.90201e+07
1.90203e+07
1.90206e+07
1.90208e+07
1.90211e+07
1.90214e+07
1.90219e+07
1.90222e+07
1.90228e+07
1.90171e+07
1.90179e+07
1.90187e+07
1.90194e+07
1.90199e+07
1.90204e+07
1.90208e+07
1.90212e+07
1.90215e+07
1.90219e+07
1.90222e+07
1.90225e+07
1.90228e+07
1.90231e+07
1.90235e+07
1.90238e+07
1.90242e+07
1.90248e+07
1.90251e+07
1.90255e+07
1.90174e+07
1.90184e+07
1.90193e+07
1.90202e+07
1.90209e+07
1.90216e+07
1.90223e+07
1.90229e+07
1.90233e+07
1.90237e+07
1.9024e+07
1.90243e+07
1.90246e+07
1.90249e+07
1.90254e+07
1.90257e+07
1.90259e+07
1.90261e+07
1.90262e+07
1.90262e+07
1.9018e+07
1.90194e+07
1.90205e+07
1.90215e+07
1.90225e+07
1.90233e+07
1.9024e+07
1.90248e+07
1.90258e+07
1.90269e+07
1.90286e+07
1.90304e+07
1.90315e+07
1.90312e+07
1.90298e+07
1.90295e+07
1.903e+07
1.90306e+07
1.90314e+07
1.90326e+07
1.90183e+07
1.90199e+07
1.90211e+07
1.90221e+07
1.90231e+07
1.9024e+07
1.90247e+07
1.90255e+07
1.90264e+07
1.90275e+07
1.90291e+07
1.9031e+07
1.90323e+07
1.90322e+07
1.90311e+07
1.90307e+07
1.90311e+07
1.90316e+07
1.90322e+07
1.90331e+07
1.90263e+07
1.90306e+07
1.90345e+07
1.90383e+07
1.90421e+07
1.90458e+07
1.90496e+07
1.90535e+07
1.90574e+07
1.90611e+07
1.90649e+07
1.90687e+07
1.90726e+07
1.90764e+07
1.90801e+07
1.90839e+07
1.90877e+07
1.90915e+07
1.90952e+07
1.90989e+07
1.91026e+07
1.91064e+07
1.91101e+07
1.91138e+07
1.91175e+07
1.91211e+07
1.91248e+07
1.91285e+07
1.91322e+07
1.91358e+07
1.91394e+07
1.9143e+07
1.91466e+07
1.91502e+07
1.91538e+07
1.91574e+07
1.91609e+07
1.91644e+07
1.91679e+07
1.91714e+07
1.91749e+07
1.91784e+07
1.91819e+07
1.91853e+07
1.91887e+07
1.91921e+07
1.91955e+07
1.91989e+07
1.92023e+07
1.92056e+07
1.92089e+07
1.92123e+07
1.92156e+07
1.92188e+07
1.92221e+07
1.92254e+07
1.92286e+07
1.92318e+07
1.9235e+07
1.92382e+07
1.92413e+07
1.92445e+07
1.92476e+07
1.92507e+07
1.92538e+07
1.92569e+07
1.92599e+07
1.9263e+07
1.9266e+07
1.9269e+07
1.9272e+07
1.92749e+07
1.92779e+07
1.92808e+07
1.92837e+07
1.92866e+07
1.92895e+07
1.92924e+07
1.92953e+07
1.92981e+07
1.9301e+07
1.93038e+07
1.93066e+07
1.93095e+07
1.93123e+07
1.93151e+07
1.93179e+07
1.93207e+07
1.93235e+07
1.93263e+07
1.9329e+07
1.93318e+07
1.93345e+07
1.93372e+07
1.93398e+07
1.93425e+07
1.93451e+07
1.93477e+07
1.93503e+07
1.93526e+07
1.90268e+07
1.90307e+07
1.90345e+07
1.90383e+07
1.90421e+07
1.90458e+07
1.90496e+07
1.90535e+07
1.90574e+07
1.90611e+07
1.90649e+07
1.90687e+07
1.90726e+07
1.90764e+07
1.90801e+07
1.90839e+07
1.90877e+07
1.90915e+07
1.90952e+07
1.90989e+07
1.91026e+07
1.91064e+07
1.91101e+07
1.91138e+07
1.91175e+07
1.91211e+07
1.91248e+07
1.91285e+07
1.91322e+07
1.91358e+07
1.91394e+07
1.9143e+07
1.91466e+07
1.91502e+07
1.91538e+07
1.91574e+07
1.91609e+07
1.91644e+07
1.91679e+07
1.91714e+07
1.91749e+07
1.91784e+07
1.91819e+07
1.91853e+07
1.91887e+07
1.91921e+07
1.91955e+07
1.91989e+07
1.92023e+07
1.92056e+07
1.92089e+07
1.92123e+07
1.92156e+07
1.92188e+07
1.92221e+07
1.92254e+07
1.92286e+07
1.92318e+07
1.9235e+07
1.92382e+07
1.92413e+07
1.92445e+07
1.92476e+07
1.92507e+07
1.92538e+07
1.92569e+07
1.92599e+07
1.9263e+07
1.9266e+07
1.9269e+07
1.9272e+07
1.92749e+07
1.92779e+07
1.92808e+07
1.92837e+07
1.92866e+07
1.92895e+07
1.92924e+07
1.92953e+07
1.92981e+07
1.9301e+07
1.93038e+07
1.93066e+07
1.93095e+07
1.93123e+07
1.93151e+07
1.93179e+07
1.93207e+07
1.93235e+07
1.93263e+07
1.9329e+07
1.93318e+07
1.93345e+07
1.93372e+07
1.93398e+07
1.93425e+07
1.93451e+07
1.93477e+07
1.93503e+07
1.93526e+07
1.90258e+07
1.9031e+07
1.90355e+07
1.90395e+07
1.90432e+07
1.90468e+07
1.90506e+07
1.90545e+07
1.90583e+07
1.9062e+07
1.90657e+07
1.90696e+07
1.90734e+07
1.9077e+07
1.90807e+07
1.90845e+07
1.90883e+07
1.90921e+07
1.90957e+07
1.90993e+07
1.91031e+07
1.91068e+07
1.91105e+07
1.91142e+07
1.91178e+07
1.91214e+07
1.91251e+07
1.91287e+07
1.91324e+07
1.9136e+07
1.91396e+07
1.91432e+07
1.91468e+07
1.91503e+07
1.91539e+07
1.91574e+07
1.9161e+07
1.91645e+07
1.9168e+07
1.91715e+07
1.9175e+07
1.91784e+07
1.91819e+07
1.91853e+07
1.91887e+07
1.91921e+07
1.91955e+07
1.91989e+07
1.92023e+07
1.92056e+07
1.92089e+07
1.92123e+07