/*--------------------------------*- C++ -*----------------------------------*\
| =========                 |                                                 |
| \\      /  F ield         | OpenFOAM: The Open Source CFD Toolbox           |
|  \\    /   O peration     | Version:  3.0.x                                 |
|   \\  /    A nd           | Web:      www.OpenFOAM.org                      |
|    \\/     M anipulation  |                                                 |
\*---------------------------------------------------------------------------*/
FoamFile
{
    version     2.0;
    format      ascii;
    class       volScalarField;
    location    "0.45";
    object      rho;
}
// * * * * * * * * * * * * * * * * * * * * * * * * * * * * * * * * * * * * * //

dimensions      [1 -3 0 0 0 0 0];

internalField   nonuniform List<scalar> 
6900
(
50.9246
50.9246
50.9246
50.9245
50.9245
50.9245
50.9245
50.9245
50.9245
50.9244
50.9244
50.9244
50.9244
50.9244
50.9244
50.9244
50.9244
50.9244
50.9244
50.9244
50.9245
50.9245
50.9245
50.9245
50.9246
50.9246
50.9246
50.9246
50.9247
50.9247
50.9247
50.9247
50.9247
50.9248
50.925
50.9251
50.9252
50.9253
50.9254
50.9254
50.9254
50.9254
50.9254
50.9255
50.9256
50.9257
50.9259
50.9261
50.9263
50.9266
50.9269
50.9272
50.9274
50.9276
50.9278
50.9279
50.928
50.9282
50.9284
50.9286
50.9288
50.9291
50.9294
50.9296
50.9298
50.93
50.9301
50.9303
50.9304
50.9305
50.9305
50.9306
50.9307
50.9307
50.9308
50.9309
50.931
50.9311
50.9313
50.9314
50.9316
50.9318
50.9321
50.9323
50.9326
50.933
50.9333
50.9337
50.9341
50.9346
50.9351
50.9356
50.9361
50.9367
50.9372
50.9378
50.9384
50.939
50.9396
50.9402
50.9408
50.9415
50.9421
50.9428
50.9435
50.9441
50.9449
50.9456
50.9463
50.9471
50.9479
50.9488
50.9497
50.9506
50.9516
50.9527
50.9538
50.955
50.9562
50.9576
50.9589
50.9604
50.9619
50.9635
50.9651
50.9668
50.9686
50.9704
50.9723
50.9742
50.9761
50.9781
50.9801
50.9821
50.9842
50.9863
50.9884
50.9905
50.9927
50.9949
50.9971
50.9993
51.0016
51.0039
51.0063
51.0087
51.0112
51.0137
51.0163
51.0189
51.0216
51.0244
51.0273
51.0303
51.0333
51.0365
51.0397
51.0431
51.0465
51.05
51.0537
51.0574
51.0612
51.065
51.069
51.0729
51.077
51.0811
51.0852
51.0893
51.0935
51.0977
51.1019
51.1061
51.1104
51.1147
51.119
51.1233
51.1277
51.1322
51.1367
51.1412
51.1459
51.1505
51.1553
51.16
51.1649
51.1698
51.1749
51.18
51.1852
51.1905
51.196
51.2014
51.2073
51.2128
51.219
51.2246
51.2314
51.235
50.9248
50.9248
50.9248
50.9248
50.9247
50.9247
50.9247
50.9247
50.9247
50.9247
50.9246
50.9246
50.9246
50.9246
50.9246
50.9246
50.9246
50.9246
50.9246
50.9246
50.9247
50.9247
50.9247
50.9247
50.9248
50.9248
50.9248
50.9248
50.9248
50.9248
50.9249
50.9249
50.9249
50.925
50.9251
50.9253
50.9254
50.9255
50.9256
50.9256
50.9256
50.9256
50.9256
50.9256
50.9257
50.9259
50.926
50.9262
50.9265
50.9268
50.927
50.9273
50.9276
50.9278
50.9279
50.9281
50.9282
50.9284
50.9285
50.9287
50.929
50.9292
50.9295
50.9297
50.9299
50.9301
50.9303
50.9304
50.9305
50.9306
50.9307
50.9307
50.9308
50.9309
50.931
50.931
50.9311
50.9313
50.9314
50.9316
50.9317
50.9319
50.9322
50.9325
50.9328
50.9331
50.9335
50.9339
50.9343
50.9347
50.9352
50.9357
50.9362
50.9368
50.9374
50.9379
50.9385
50.9391
50.9397
50.9404
50.941
50.9416
50.9423
50.9429
50.9436
50.9443
50.945
50.9457
50.9465
50.9473
50.9481
50.9489
50.9498
50.9508
50.9518
50.9528
50.954
50.9551
50.9564
50.9577
50.9591
50.9605
50.962
50.9636
50.9652
50.967
50.9687
50.9705
50.9724
50.9743
50.9762
50.9782
50.9802
50.9823
50.9843
50.9864
50.9885
50.9907
50.9928
50.995
50.9972
50.9995
51.0017
51.0041
51.0064
51.0088
51.0113
51.0138
51.0164
51.019
51.0218
51.0246
51.0274
51.0304
51.0335
51.0366
51.0399
51.0432
51.0467
51.0502
51.0538
51.0575
51.0613
51.0652
51.0691
51.0731
51.0771
51.0812
51.0853
51.0895
51.0936
51.0978
51.102
51.1063
51.1105
51.1148
51.1191
51.1235
51.1279
51.1323
51.1368
51.1414
51.146
51.1507
51.1554
51.1602
51.165
51.17
51.175
51.1801
51.1854
51.1906
51.1961
51.2015
51.2074
51.2129
51.2191
51.2247
51.2316
51.2353
50.9248
50.9248
50.9248
50.9247
50.9247
50.9247
50.9247
50.9247
50.9247
50.9246
50.9246
50.9246
50.9246
50.9246
50.9246
50.9246
50.9246
50.9246
50.9246
50.9246
50.9247
50.9247
50.9247
50.9247
50.9248
50.9248
50.9248
50.9248
50.9248
50.9248
50.9248
50.9249
50.9249
50.925
50.9251
50.9253
50.9254
50.9255
50.9256
50.9256
50.9256
50.9256
50.9256
50.9256
50.9257
50.9259
50.926
50.9262
50.9265
50.9268
50.927
50.9273
50.9276
50.9278
50.9279
50.9281
50.9282
50.9283
50.9285
50.9287
50.929
50.9292
50.9295
50.9297
50.9299
50.9301
50.9303
50.9304
50.9305
50.9306
50.9307
50.9307
50.9308
50.9309
50.931
50.931
50.9311
50.9313
50.9314
50.9316
50.9317
50.9319
50.9322
50.9325
50.9328
50.9331
50.9335
50.9339
50.9343
50.9347
50.9352
50.9357
50.9362
50.9368
50.9374
50.9379
50.9385
50.9391
50.9397
50.9404
50.941
50.9416
50.9423
50.9429
50.9436
50.9443
50.945
50.9457
50.9465
50.9473
50.9481
50.9489
50.9498
50.9508
50.9518
50.9528
50.954
50.9551
50.9564
50.9577
50.9591
50.9605
50.962
50.9636
50.9653
50.967
50.9687
50.9705
50.9724
50.9743
50.9762
50.9782
50.9802
50.9823
50.9843
50.9864
50.9885
50.9907
50.9928
50.995
50.9972
50.9995
51.0017
51.0041
51.0064
51.0088
51.0113
51.0138
51.0164
51.019
51.0218
51.0246
51.0274
51.0304
51.0335
51.0366
51.0399
51.0432
51.0467
51.0502
51.0538
51.0575
51.0613
51.0652
51.0691
51.0731
51.0771
51.0812
51.0853
51.0895
51.0936
51.0978
51.102
51.1063
51.1105
51.1148
51.1191
51.1235
51.1279
51.1323
51.1368
51.1414
51.146
51.1507
51.1554
51.1602
51.165
51.17
51.175
51.1801
51.1853
51.1906
51.1961
51.2016
51.2073
51.213
51.219
51.225
51.231
51.2374
50.9248
50.9248
50.9248
50.9248
50.9247
50.9247
50.9247
50.9247
50.9247
50.9247
50.9246
50.9246
50.9246
50.9246
50.9246
50.9246
50.9246
50.9246
50.9246
50.9246
50.9247
50.9247
50.9247
50.9247
50.9248
50.9248
50.9248
50.9248
50.9248
50.9248
50.9249
50.9249
50.9249
50.925
50.9251
50.9253
50.9254
50.9255
50.9256
50.9256
50.9256
50.9256
50.9256
50.9256
50.9257
50.9259
50.926
50.9262
50.9265
50.9268
50.927
50.9273
50.9276
50.9278
50.9279
50.9281
50.9282
50.9284
50.9285
50.9287
50.929
50.9292
50.9295
50.9297
50.9299
50.9301
50.9303
50.9304
50.9305
50.9306
50.9307
50.9307
50.9308
50.9309
50.931
50.931
50.9311
50.9313
50.9314
50.9316
50.9317
50.9319
50.9322
50.9325
50.9328
50.9331
50.9335
50.9339
50.9343
50.9347
50.9352
50.9357
50.9362
50.9368
50.9374
50.9379
50.9385
50.9391
50.9397
50.9404
50.941
50.9416
50.9423
50.9429
50.9436
50.9443
50.945
50.9457
50.9465
50.9473
50.9481
50.9489
50.9498
50.9508
50.9518
50.9528
50.954
50.9551
50.9564
50.9577
50.9591
50.9605
50.962
50.9636
50.9652
50.967
50.9687
50.9705
50.9724
50.9743
50.9762
50.9782
50.9802
50.9823
50.9843
50.9864
50.9885
50.9907
50.9928
50.995
50.9972
50.9995
51.0017
51.0041
51.0064
51.0088
51.0113
51.0138
51.0164
51.019
51.0218
51.0246
51.0274
51.0304
51.0335
51.0366
51.0399
51.0432
51.0467
51.0502
51.0538
51.0575
51.0613
51.0652
51.0691
51.0731
51.0771
51.0812
51.0853
51.0895
51.0936
51.0978
51.102
51.1063
51.1105
51.1148
51.1191
51.1235
51.1279
51.1323
51.1368
51.1414
51.146
51.1507
51.1554
51.1602
51.165
51.17
51.175
51.1801
51.1853
51.1907
51.196
51.2017
51.2072
51.2132
51.2188
51.2252
51.2299
51.2411
50.9246
50.9246
50.9246
50.9245
50.9245
50.9245
50.9245
50.9245
50.9245
50.9244
50.9244
50.9244
50.9244
50.9244
50.9244
50.9244
50.9244
50.9244
50.9244
50.9244
50.9245
50.9245
50.9245
50.9245
50.9246
50.9246
50.9246
50.9246
50.9247
50.9247
50.9247
50.9247
50.9247
50.9248
50.925
50.9251
50.9252
50.9253
50.9254
50.9254
50.9254
50.9254
50.9254
50.9255
50.9256
50.9257
50.9259
50.9261
50.9263
50.9266
50.9269
50.9272
50.9274
50.9276
50.9278
50.9279
50.928
50.9282
50.9284
50.9286
50.9288
50.9291
50.9294
50.9296
50.9298
50.93
50.9301
50.9303
50.9304
50.9305
50.9305
50.9306
50.9307
50.9307
50.9308
50.9309
50.931
50.9311
50.9313
50.9314
50.9316
50.9318
50.9321
50.9323
50.9326
50.933
50.9333
50.9337
50.9341
50.9346
50.9351
50.9356
50.9361
50.9367
50.9372
50.9378
50.9384
50.939
50.9396
50.9402
50.9408
50.9415
50.9421
50.9428
50.9435
50.9441
50.9449
50.9456
50.9463
50.9471
50.9479
50.9488
50.9497
50.9506
50.9516
50.9527
50.9538
50.955
50.9562
50.9576
50.9589
50.9604
50.9619
50.9635
50.9651
50.9668
50.9686
50.9704
50.9723
50.9742
50.9761
50.9781
50.9801
50.9821
50.9842
50.9863
50.9884
50.9905
50.9927
50.9949
50.9971
50.9993
51.0016
51.0039
51.0063
51.0087
51.0112
51.0137
51.0163
51.0189
51.0216
51.0244
51.0273
51.0303
51.0333
51.0365
51.0397
51.0431
51.0465
51.05
51.0537
51.0574
51.0612
51.065
51.069
51.0729
51.077
51.0811
51.0852
51.0893
51.0935
51.0977
51.1019
51.1061
51.1104
51.1147
51.119
51.1233
51.1277
51.1322
51.1367
51.1412
51.1459
51.1505
51.1552
51.16
51.1649
51.1699
51.1748
51.18
51.1851
51.1906
51.1958
51.2016
51.207
51.2131
51.2186
51.225
51.2293
51.2459
51.2536
51.2608
51.2627
51.2623
51.262
51.2615
51.2605
51.2597
51.261
51.2659
51.2686
51.265
51.2559
51.2453
51.2384
51.2324
51.2269
51.2249
51.2325
51.2486
51.2509
51.255
51.2562
51.256
51.2557
51.2553
51.2543
51.2536
51.2549
51.2604
51.2627
51.2579
51.2473
51.2372
51.2308
51.2253
51.2205
51.2194
51.2276
51.242
51.242
51.2431
51.2434
51.2427
51.2415
51.2397
51.2371
51.2339
51.2295
51.2242
51.2186
51.2134
51.2084
51.2028
51.1958
51.1879
51.1792
51.1698
51.1589
51.1476
51.225
51.2237
51.2254
51.2276
51.2275
51.2251
51.2219
51.2171
51.2129
51.2075
51.2032
51.1983
51.1932
51.1888
51.1847
51.181
51.178
51.1758
51.1739
51.1732
51.2165
51.2076
51.2047
51.2051
51.2042
51.2009
51.1966
51.1908
51.1853
51.1789
51.1733
51.167
51.1611
51.1553
51.1503
51.1457
51.142
51.1388
51.1366
51.136
51.205
51.1724
51.1767
51.1872
51.1891
51.1896
51.1939
51.2001
51.2056
51.2105
51.2158
51.2212
51.2266
51.2322
51.2377
51.2432
51.2488
51.2545
51.2601
51.2657
51.2714
51.2771
51.2829
51.2887
51.2946
51.3004
51.3062
51.3122
51.3182
51.3243
51.3304
51.3366
51.3428
51.3491
51.3555
51.3619
51.3684
51.3749
51.3814
51.388
51.3947
51.4014
51.4081
51.4149
51.4218
51.4287
51.4357
51.4427
51.4498
51.457
51.4642
51.4715
51.4789
51.4863
51.4937
51.5012
51.5088
51.5163
51.5239
51.5315
51.5392
51.5468
51.5546
51.5623
51.57
51.5777
51.5855
51.5933
51.6011
51.6088
51.6166
51.6245
51.6324
51.6404
51.6484
51.6564
51.6643
51.6724
51.6809
51.6891
51.6968
51.7043
51.7124
51.7207
51.729
51.7374
51.7459
51.7544
51.7629
51.7714
51.78
51.7887
51.7976
51.8067
51.8158
51.8247
51.8332
51.8417
51.8508
51.8607
51.8706
51.8789
51.8842
51.889
51.8956
51.9046
51.9155
51.9276
51.9418
51.9549
51.9665
51.9776
51.9879
51.9968
52.0056
52.0146
52.0237
52.0328
52.0421
52.0514
52.0607
52.0701
52.0795
52.0889
52.0983
52.1077
52.1172
52.1267
52.1362
52.1456
52.1552
52.1647
52.1742
52.1837
52.1933
52.2028
52.2124
52.222
52.2316
52.2412
52.2509
52.2605
52.2702
52.2798
52.2895
52.2992
52.309
52.3187
52.3284
52.3382
52.348
52.3578
52.3676
52.3774
52.3873
52.3971
52.407
52.4168
52.4267
52.4366
52.4465
52.4564
52.4663
52.4762
52.4861
52.496
52.5059
52.5158
52.5257
52.5355
52.5454
52.5553
52.5651
52.575
52.5848
52.5946
52.6044
52.6142
52.624
52.6338
52.6435
52.6533
52.6629
52.6728
52.6823
52.6923
52.7017
52.7117
52.721
52.731
52.7402
52.7503
52.7594
52.7696
52.7785
52.7888
52.7977
52.8079
52.8167
52.8262
51.2007
51.1716
51.1761
51.1858
51.1877
51.1885
51.1929
51.1988
51.204
51.2092
51.2146
51.2199
51.2254
51.231
51.2365
51.242
51.2477
51.2533
51.2589
51.2645
51.2702
51.2759
51.2817
51.2875
51.2933
51.2992
51.305
51.311
51.3171
51.3231
51.3293
51.3355
51.3418
51.3481
51.3544
51.3609
51.3673
51.3738
51.3804
51.387
51.3936
51.4003
51.407
51.4138
51.4207
51.4276
51.4346
51.4417
51.4488
51.456
51.4633
51.4706
51.4779
51.4854
51.4928
51.5003
51.5078
51.5154
51.523
51.5306
51.5382
51.5459
51.5536
51.5613
51.569
51.5767
51.5844
51.5922
51.5999
51.6077
51.6155
51.6234
51.6312
51.6391
51.647
51.6548
51.6625
51.6702
51.6786
51.687
51.695
51.7029
51.7109
51.7194
51.7278
51.7361
51.7444
51.7527
51.7612
51.7698
51.7785
51.7873
51.7962
51.8049
51.8133
51.8217
51.8307
51.8405
51.8503
51.8589
51.8653
51.8709
51.877
51.8848
51.8945
51.9056
51.918
51.932
51.9448
51.9564
51.9675
51.978
51.9872
51.9961
52.0052
52.0143
52.0235
52.0328
52.0421
52.0514
52.0608
52.0702
52.0796
52.089
52.0984
52.1079
52.1173
52.1268
52.1363
52.1458
52.1553
52.1648
52.1743
52.1839
52.1934
52.203
52.2126
52.2221
52.2317
52.2414
52.251
52.2606
52.2703
52.28
52.2897
52.2994
52.3091
52.3188
52.3286
52.3383
52.3481
52.3579
52.3677
52.3775
52.3874
52.3972
52.4071
52.417
52.4268
52.4367
52.4466
52.4565
52.4664
52.4763
52.4862
52.4961
52.506
52.5159
52.5258
52.5357
52.5455
52.5554
52.5652
52.5751
52.5849
52.5947
52.6045
52.6144
52.6241
52.6339
52.6436
52.6535
52.6631
52.6729
52.6825
52.6924
52.7018
52.7118
52.7211
52.7311
52.7403
52.7504
52.7595
52.7697
52.7787
52.7889
52.7978
52.8081
52.8169
52.8268
51.1268
51.1438
51.1558
51.161
51.1649
51.1696
51.175
51.1804
51.1858
51.1912
51.1967
51.2023
51.2078
51.2134
51.2189
51.2245
51.2301
51.2357
51.2414
51.2471
51.2528
51.2586
51.2644
51.2703
51.2762
51.2822
51.2882
51.2942
51.3002
51.3063
51.3124
51.3186
51.3249
51.3312
51.3376
51.3441
51.3506
51.3572
51.3639
51.3706
51.3774
51.3842
51.3911
51.398
51.405
51.4119
51.4189
51.426
51.4331
51.4402
51.4473
51.4546
51.4619
51.4692
51.4766
51.4841
51.4916
51.4992
51.5067
51.5143
51.5218
51.5295
51.5371
51.5447
51.5523
51.5599
51.5675
51.575
51.5826
51.5902
51.5978
51.6054
51.6131
51.6207
51.6287
51.637
51.646
51.6556
51.6656
51.6768
51.688
51.6983
51.7082
51.718
51.7275
51.7365
51.7454
51.7541
51.7627
51.7713
51.7799
51.7886
51.7973
51.8062
51.8151
51.8242
51.8334
51.8427
51.852
51.8615
51.871
51.8805
51.8902
51.8998
51.9095
51.9192
51.9288
51.9383
51.9478
51.9572
51.9666
51.976
51.9854
51.9947
52.0041
52.0135
52.0229
52.0323
52.0417
52.0512
52.0606
52.07
52.0795
52.0889
52.0984
52.1078
52.1173
52.1268
52.1363
52.1458
52.1553
52.1648
52.1743
52.1839
52.1934
52.203
52.2126
52.2221
52.2317
52.2414
52.251
52.2606
52.2703
52.28
52.2897
52.2994
52.3091
52.3188
52.3286
52.3383
52.3481
52.3579
52.3677
52.3775
52.3874
52.3972
52.4071
52.417
52.4268
52.4367
52.4466
52.4565
52.4664
52.4763
52.4862
52.4961
52.506
52.5159
52.5258
52.5357
52.5455
52.5554
52.5652
52.5751
52.5849
52.5947
52.6045
52.6143
52.6241
52.6339
52.6437
52.6534
52.6632
52.6728
52.6826
52.6922
52.702
52.7116
52.7213
52.7309
52.7406
52.7501
52.7599
52.7693
52.7791
52.7886
52.7981
52.8077
52.8174
52.8268
51.1672
51.17
51.1747
51.1786
51.1828
51.1878
51.193
51.1983
51.2037
51.2091
51.2145
51.2201
51.2256
51.2312
51.2368
51.2424
51.2481
51.2537
51.2594
51.2651
51.2708
51.2765
51.2823
51.2881
51.2939
51.2998
51.3057
51.3117
51.3177
51.3238
51.3299
51.3361
51.3423
51.3486
51.3549
51.3613
51.3678
51.3743
51.3808
51.3875
51.3941
51.4009
51.4076
51.4145
51.4214
51.4283
51.4353
51.4423
51.4494
51.4566
51.4638
51.471
51.4783
51.4857
51.4931
51.5006
51.5081
51.5156
51.5232
51.5308
51.5385
51.5462
51.5539
51.5616
51.5693
51.5771
51.5849
51.5928
51.6006
51.6085
51.6164
51.6243
51.6323
51.6402
51.6482
51.6562
51.6641
51.6719
51.6799
51.6879
51.696
51.704
51.7122
51.7205
51.7289
51.7372
51.7452
51.7534
51.762
51.7706
51.7789
51.7869
51.7952
51.8039
51.8126
51.821
51.8288
51.8361
51.8433
51.851
51.8597
51.8697
51.8805
51.8921
51.9048
51.917
51.9284
51.9394
51.9499
51.9593
51.9683
51.9774
51.9864
51.9956
52.0048
52.014
52.0233
52.0326
52.042
52.0513
52.0607
52.0701
52.0795
52.089
52.0984
52.1079
52.1173
52.1268
52.1363
52.1458
52.1553
52.1648
52.1743
52.1839
52.1934
52.203
52.2126
52.2221
52.2317
52.2414
52.251
52.2606
52.2703
52.28
52.2897
52.2994
52.3091
52.3188
52.3286
52.3383
52.3481
52.3579
52.3677
52.3775
52.3874
52.3972
52.4071
52.417
52.4268
52.4367
52.4466
52.4565
52.4664
52.4763
52.4862
52.4961
52.506
52.5159
52.5258
52.5357
52.5455
52.5554
52.5652
52.5751
52.5849
52.5947
52.6046
52.6143
52.6241
52.6339
52.6437
52.6534
52.6632
52.6728
52.6827
52.6921
52.7021
52.7115
52.7215
52.7307
52.7408
52.7499
52.7601
52.7691
52.7793
52.7883
52.7985
52.8074
52.8176
52.8266
51.1552
51.1621
51.1669
51.1712
51.1753
51.1799
51.1849
51.1902
51.1955
51.2009
51.2063
51.2118
51.2173
51.2228
51.2284
51.234
51.2396
51.2453
51.2509
51.2566
51.2623
51.268
51.2738
51.2795
51.2853
51.2912
51.2971
51.3031
51.3091
51.3152
51.3213
51.3275
51.3337
51.34
51.3464
51.3528
51.3593
51.3659
51.3725
51.3791
51.3858
51.3925
51.3993
51.4061
51.413
51.4199
51.4269
51.4339
51.4411
51.4482
51.4555
51.4628
51.4701
51.4775
51.485
51.4925
51.5
51.5076
51.5152
51.5229
51.5306
51.5383
51.5461
51.5538
51.5616
51.5694
51.5772
51.5851
51.5929
51.6007
51.6086
51.6165
51.6243
51.6322
51.6401
51.6481
51.656
51.664
51.6721
51.6802
51.6884
51.6965
51.7046
51.7128
51.7212
51.7297
51.7382
51.7465
51.7544
51.7624
51.7711
51.7806
51.7902
51.7986
51.8041
51.8089
51.8151
51.8235
51.8338
51.8451
51.8584
51.8725
51.885
51.8964
51.9075
51.9183
51.9283
51.938
51.9476
51.957
51.9665
51.9759
51.9853
51.9946
52.004
52.0134
52.0228
52.0322
52.0416
52.051
52.0605
52.0699
52.0793
52.0888
52.0982
52.1077
52.1172
52.1267
52.1361
52.1456
52.1551
52.1647
52.1742
52.1837
52.1933
52.2028
52.2124
52.222
52.2316
52.2412
52.2509
52.2605
52.2702
52.2798
52.2895
52.2992
52.309
52.3187
52.3284
52.3382
52.348
52.3578
52.3676
52.3774
52.3873
52.3971
52.407
52.4168
52.4267
52.4366
52.4465
52.4564
52.4663
52.4762
52.4861
52.496
52.5059
52.5158
52.5257
52.5355
52.5454
52.5553
52.5651
52.575
52.5848
52.5946
52.6044
52.6142
52.624
52.6337
52.6436
52.6532
52.6631
52.6727
52.6825
52.692
52.7019
52.7113
52.7213
52.7306
52.7406
52.7498
52.7599
52.769
52.7791
52.7883
52.798
52.8078
52.8169
52.8268
52.8301
52.8304
52.8317
52.8334
52.8348
52.8358
52.8367
52.8374
52.8381
52.8387
52.8393
52.8398
52.8403
52.8408
52.8414
52.842
52.8427
52.8436
52.8443
52.8456
52.8322
52.834
52.836
52.8377
52.8391
52.8403
52.8413
52.8422
52.843
52.8438
52.8447
52.8455
52.8462
52.8469
52.8476
52.8485
52.8493
52.8507
52.8515
52.8528
52.8327
52.835
52.8371
52.839
52.8407
52.8423
52.8437
52.8449
52.8457
52.8464
52.8467
52.8467
52.8468
52.8476
52.8483
52.8484
52.8479
52.8477
52.8472
52.8463
52.8339
52.8369
52.8395
52.8418
52.844
52.8458
52.8472
52.8488
52.8505
52.8527
52.8571
52.8624
52.8656
52.8642
52.8598
52.8588
52.8595
52.8597
52.8604
52.8641
52.8347
52.8383
52.8409
52.8431
52.8452
52.847
52.8484
52.8496
52.8511
52.8534
52.8575
52.8628
52.8665
52.866
52.8626
52.8612
52.8614
52.8607
52.8607
52.8649
52.8537
52.863
52.8716
52.8793
52.887
52.895
52.9032
52.9114
52.9195
52.9276
52.9358
52.9441
52.9523
52.9604
52.9686
52.9771
52.9856
52.9939
53.0021
53.0104
53.019
53.0275
53.036
53.0444
53.0528
53.0613
53.0698
53.0782
53.0867
53.0951
53.1035
53.1119
53.1203
53.1286
53.1369
53.1452
53.1534
53.1616
53.1698
53.178
53.1861
53.1942
53.2022
53.2102
53.2182
53.2261
53.2339
53.2417
53.2495
53.2572
53.2649
53.2726
53.2802
53.2878
53.2954
53.3029
53.3104
53.3179
53.3253
53.3327
53.34
53.3473
53.3546
53.3618
53.3689
53.376
53.3831
53.3901
53.3971
53.404
53.4109
53.4177
53.4245
53.4313
53.438
53.4447
53.4514
53.4581
53.4645
53.471
53.4777
53.4846
53.4909
53.4963
53.5018
53.5085
53.5161
53.5233
53.5286
53.5283
53.529
53.5341
53.5416
53.5509
53.5632
53.5741
53.5832
53.5914
53.5988
53.6056
52.8552
52.8641
52.8724
52.88
52.8879
52.8964
52.9052
52.9138
52.9222
52.9305
52.9392
52.9479
52.9565
52.965
52.9736
52.9824
52.9912
52.9998
53.0083
53.017
53.0258
53.0345
53.0432
53.0517
53.0603
53.0689
53.0775
53.0861
53.0947
53.1032
53.1116
53.1201
53.1285
53.1368
53.1452
53.1535
53.1617
53.17
53.1781
53.1863
53.1944
53.2025
53.2105
53.2184
53.2263
53.2342
53.2421
53.2499
53.2577
53.2654
53.2731
53.2808
53.2884
53.296
53.3035
53.311
53.3184
53.3259
53.3332
53.3406
53.3479
53.3551
53.3624
53.3696
53.3767
53.3839
53.391
53.398
53.405
53.4118
53.4187
53.4256
53.4324
53.4391
53.4457
53.4526
53.4593
53.4657
53.4721
53.4788
53.4854
53.4917
53.4977
53.5041
53.5106
53.5167
53.5224
53.5282
53.5341
53.5399
53.5455
53.5504
53.5542
53.5578
53.5629
53.5698
53.5774
53.5858
53.5958
53.6044
52.8395
52.8518
52.8604
52.8675
52.8742
52.8812
52.889
52.8971
52.905
52.9131
52.9217
52.9304
52.9389
52.9473
52.9562
52.9652
52.974
52.9827
52.9913
53.0002
53.0093
53.0182
53.0269
53.0355
53.0441
53.0528
53.0616
53.0702
53.0787
53.0871
53.0955
53.1039
53.1121
53.1204
53.1287
53.1369
53.1452
53.1534
53.1616
53.1698
53.1779
53.1859
53.1939
53.2019
53.2098
53.2177
53.2255
53.2333
53.2411
53.2488
53.2564
53.2641
53.2717
53.2793
53.2868
53.2942
53.3015
53.3088
53.3161
53.3234
53.3306
53.3377
53.3447
53.3517
53.3587
53.3656
53.3722
53.3788
53.3855
53.3925
53.4002
53.4086
53.4173
53.4267
53.4363
53.4454
53.4541
53.4625
53.4705
53.4779
53.4847
53.4913
53.4979
53.5043
53.5107
53.517
53.5234
53.5298
53.5363
53.5427
53.5494
53.5556
53.5623
53.5686
53.575
53.5816
53.5879
53.5943
53.6007
53.6071
52.873
52.8723
52.8733
52.8817
52.8918
52.9003
52.9063
52.9146
52.9244
52.9336
52.9408
52.9489
52.9583
52.9686
52.9765
52.9839
52.9924
53.0018
53.0122
53.0199
53.0273
53.0357
53.0444
53.0538
53.0628
53.0705
53.0784
53.0869
53.0954
53.1039
53.1122
53.1206
53.1289
53.1372
53.1454
53.1536
53.1618
53.1699
53.178
53.1861
53.1941
53.2021
53.2101
53.218
53.2259
53.2338
53.2416
53.2494
53.2571
53.2648
53.2725
53.2801
53.2878
53.2954
53.303
53.3105
53.318
53.3254
53.3329
53.3402
53.3476
53.3548
53.362
53.3692
53.3762
53.3833
53.3904
53.3974
53.4044
53.4112
53.4179
53.4246
53.4314
53.4381
53.4448
53.4514
53.458
53.4646
53.4711
53.4775
53.4838
53.4903
53.4968
53.5032
53.5095
53.5159
53.5225
53.5291
53.535
53.5405
53.5463
53.5531
53.5604
53.5673
53.5727
53.574
53.5748
53.5781
53.5842
53.5914
52.8746
52.8738
52.8739
52.883
52.8958
52.9039
52.9085
52.9166
52.9281
52.9383
52.9443
52.9513
52.9617
52.973
52.9799
52.9862
52.9948
53.0052
53.0159
53.0228
53.0292
53.0376
53.0465
53.0564
53.0652
53.0723
53.0799
53.0883
53.0967
53.105
53.1134
53.1217
53.13
53.1382
53.1465
53.1547
53.1628
53.1709
53.179
53.1871
53.1951
53.2031
53.2111
53.2191
53.227
53.2348
53.2427
53.2504
53.2582
53.2659
53.2736
53.2812
53.2888
53.2964
53.304
53.3115
53.319
53.3264
53.3338
53.3412
53.3485
53.3558
53.363
53.3702
53.3773
53.3844
53.3914
53.3985
53.4056
53.4125
53.4191
53.4258
53.4326
53.4392
53.4459
53.4525
53.4591
53.4657
53.4723
53.4788
53.4854
53.4918
53.4982
53.5046
53.5112
53.5176
53.524
53.5304
53.5371
53.5439
53.5499
53.5552
53.5607
53.5673
53.5744
53.5813
53.5865
53.5866
53.5863
53.5908
53.6079
53.6085
53.6096
53.611
53.6126
53.6141
53.6155
53.617
53.6183
53.6197
53.6209
53.6222
53.6234
53.6245
53.6256
53.6266
53.6275
53.6284
53.6294
53.6305
53.6081
53.6093
53.6108
53.6125
53.6142
53.6158
53.6175
53.6192
53.6207
53.6221
53.6234
53.6246
53.6257
53.6268
53.6277
53.6286
53.6293
53.6302
53.631
53.6321
53.6109
53.6124
53.6138
53.6152
53.6166
53.6179
53.6191
53.6202
53.6213
53.6223
53.6231
53.624
53.6247
53.6252
53.6254
53.626
53.6261
53.6266
53.6269
53.6278
53.5962
53.5992
53.6024
53.6052
53.6082
53.6113
53.6139
53.6165
53.6191
53.6215
53.6236
53.6257
53.6279
53.6303
53.633
53.6364
53.6377
53.6362
53.6339
53.6345
53.5945
53.5966
53.5986
53.6008
53.6039
53.6076
53.6111
53.6142
53.6173
53.6203
53.6231
53.6255
53.6279
53.6306
53.6342
53.6382
53.6404
53.6397
53.6378
53.6373
53.6349
53.6411
53.6455
53.65
53.6546
53.6589
53.6631
53.6675
53.6721
53.6764
53.6802
53.6844
53.689
53.6936
53.6976
53.7011
53.7047
53.7092
53.7138
53.7184
53.7226
53.7263
53.7297
53.7337
53.7383
53.7428
53.7471
53.7514
53.7557
53.7598
53.764
53.768
53.772
53.7759
53.7798
53.7836
53.7874
53.7911
53.7948
53.7985
53.8021
53.8057
53.8093
53.8129
53.8164
53.8199
53.8234
53.8268
53.83
53.8332
53.8362
53.8393
53.8426
53.8457
53.8485
53.8509
53.8532
53.8563
53.8594
53.8621
53.8645
53.8671
53.8698
53.8726
53.8752
53.8777
53.8801
53.8826
53.8852
53.8876
53.8897
53.8918
53.8944
53.897
53.8991
53.9
53.9014
53.9041
53.9072
53.9094
53.9063
53.8993
53.8991
53.9021
53.9091
53.9183
53.9248
53.9295
53.9333
53.9366
53.9393
53.9412
53.9426
53.9439
53.9452
53.9463
53.9473
53.9483
53.9493
53.9501
53.951
53.9518
53.9525
53.9532
53.9539
53.9545
53.9551
53.9557
53.9562
53.9568
53.9572
53.9577
53.9581
53.9585
53.9589
53.9592
53.9595
53.9598
53.9601
53.9603
53.9605
53.9607
53.9609
53.9611
53.9612
53.9613
53.9614
53.9615
53.9615
53.9616
53.9616
53.9616
53.9616
53.9616
53.9615
53.9615
53.9614
53.9613
53.9612
53.9611
53.961
53.9608
53.9607
53.9605
53.9604
53.9602
53.96
53.9598
53.9596
53.9593
53.9591
53.9589
53.9586
53.9584
53.9581
53.9579
53.9576
53.9574
53.9571
53.9568
53.9566
53.9563
53.956
53.9557
53.9555
53.9552
53.9549
53.9546
53.9544
53.9541
53.9539
53.9536
53.9533
53.9531
53.9528
53.9526
53.9524
53.9521
53.9519
53.9516
53.9515
53.9512
53.9511
53.9507
53.9507
53.9503
53.9504
53.9499
53.95
53.9496
53.9497
53.9493
53.9494
53.9491
53.949
53.949
53.9485
53.9487
53.9485
53.9483
53.6348
53.6399
53.6444
53.6487
53.6528
53.657
53.6617
53.6667
53.6714
53.6757
53.6801
53.6851
53.6903
53.695
53.6992
53.7034
53.708
53.713
53.7181
53.7229
53.7272
53.7312
53.7353
53.7397
53.7445
53.7492
53.7536
53.758
53.7624
53.7666
53.7709
53.7751
53.7792
53.7833
53.7873
53.7913
53.7952
53.799
53.8028
53.8065
53.8101
53.8137
53.8173
53.8209
53.8244
53.8279
53.8313
53.8347
53.838
53.8411
53.8442
53.8473
53.8506
53.8534
53.8563
53.8588
53.8611
53.8642
53.8673
53.87
53.8725
53.875
53.8777
53.8805
53.8832
53.8857
53.888
53.8905
53.8931
53.8953
53.8973
53.8996
53.9021
53.9042
53.9058
53.9078
53.9101
53.912
53.9132
53.9147
53.916
53.9171
53.9181
53.9175
53.9161
53.9169
53.9191
53.9221
53.9273
53.9336
53.9386
53.9424
53.9447
53.946
53.9466
53.9473
53.9481
53.9489
53.9497
53.9505
53.9512
53.952
53.9527
53.9534
53.954
53.9547
53.9553
53.9558
53.9564
53.9569
53.9573
53.9578
53.9582
53.9586
53.959
53.9593
53.9596
53.9599
53.9602
53.9604
53.9606
53.9608
53.961
53.9612
53.9613
53.9614
53.9615
53.9616
53.9616
53.9617
53.9617
53.9617
53.9617
53.9617
53.9616
53.9616
53.9615
53.9614
53.9613
53.9612
53.9611
53.9609
53.9608
53.9606
53.9605
53.9603
53.9601
53.9599
53.9597
53.9594
53.9592
53.959
53.9587
53.9585
53.9582
53.958
53.9577
53.9575
53.9572
53.9569
53.9567
53.9564
53.9561
53.9558
53.9556
53.9553
53.955
53.9547
53.9545
53.9542
53.954
53.9537
53.9534
53.9532
53.9529
53.9527
53.9525
53.9522
53.952
53.9517
53.9516
53.9513
53.9512
53.9508
53.9508
53.9504
53.9505
53.95
53.9501
53.9497
53.9498
53.9494
53.9495
53.9491
53.9492
53.9488
53.949
53.9486
53.9487
53.9485
53.6272
53.6314
53.6337
53.6369
53.6402
53.6433
53.6464
53.6504
53.6546
53.6586
53.6625
53.6674
53.6725
53.6775
53.6822
53.6858
53.6907
53.6965
53.7016
53.7066
53.7113
53.7146
53.7185
53.7239
53.7293
53.7341
53.7388
53.7433
53.7477
53.7519
53.756
53.7601
53.764
53.7679
53.7717
53.7755
53.7792
53.7829
53.7865
53.7901
53.7937
53.7972
53.8007
53.8042
53.8077
53.8112
53.8145
53.8178
53.8209
53.824
53.8269
53.8298
53.8325
53.8354
53.8369
53.8392
53.8428
53.8456
53.8481
53.8503
53.8524
53.8557
53.8597
53.8641
53.8689
53.8746
53.8799
53.8847
53.8891
53.8931
53.8964
53.8992
53.9016
53.9038
53.9059
53.908
53.91
53.9121
53.9143
53.9165
53.9187
53.9209
53.923
53.9252
53.9273
53.9294
53.9314
53.9335
53.9355
53.9375
53.9394
53.9412
53.9427
53.9441
53.9453
53.9464
53.9474
53.9484
53.9493
53.9502
53.9511
53.9519
53.9526
53.9533
53.954
53.9546
53.9552
53.9558
53.9564
53.9569
53.9573
53.9578
53.9582
53.9586
53.959
53.9593
53.9596
53.9599
53.9602
53.9604
53.9606
53.9608
53.961
53.9612
53.9613
53.9614
53.9615
53.9616
53.9616
53.9617
53.9617
53.9617
53.9617
53.9617
53.9616
53.9616
53.9615
53.9614
53.9613
53.9612
53.9611
53.9609
53.9608
53.9606
53.9605
53.9603
53.9601
53.9599
53.9597
53.9594
53.9592
53.959
53.9587
53.9585
53.9582
53.958
53.9577
53.9575
53.9572
53.9569
53.9567
53.9564
53.9561
53.9558
53.9556
53.9553
53.955
53.9547
53.9545
53.9542
53.954
53.9537
53.9534
53.9532
53.9529
53.9527
53.9525
53.9522
53.952
53.9518
53.9516
53.9513
53.9512
53.9509
53.9507
53.9505
53.9503
53.9502
53.95
53.9497
53.9498
53.9494
53.9494
53.9493
53.949
53.949
53.9489
53.9486
53.9486
53.9484
53.6348
53.6407
53.6469
53.6488
53.6532
53.6583
53.664
53.6667
53.6716
53.6775
53.6849
53.687
53.6905
53.6962
53.7006
53.7127
53.7159
53.715
53.7195
53.7253
53.73
53.7405
53.7492
53.7459
53.747
53.7515
53.7562
53.7604
53.7646
53.7687
53.7727
53.7767
53.7806
53.7844
53.7882
53.792
53.7957
53.7993
53.803
53.8066
53.8102
53.8137
53.8172
53.8208
53.8242
53.8277
53.8311
53.8344
53.8375
53.8407
53.8435
53.8465
53.8501
53.8546
53.8611
53.8661
53.862
53.8636
53.8669
53.8697
53.8744
53.8752
53.8769
53.8797
53.8822
53.8847
53.8871
53.8895
53.8919
53.8942
53.8964
53.8985
53.9005
53.9027
53.905
53.9072
53.9092
53.9116
53.914
53.9161
53.9171
53.9182
53.9203
53.9228
53.9254
53.9272
53.9256
53.9204
53.9187
53.9202
53.9234
53.931
53.9387
53.9439
53.9469
53.9484
53.9489
53.9493
53.9499
53.9506
53.9513
53.952
53.9527
53.9534
53.9541
53.9547
53.9553
53.9558
53.9564
53.9569
53.9573
53.9578
53.9582
53.9586
53.959
53.9593
53.9596
53.9599
53.9602
53.9604
53.9606
53.9608
53.961
53.9612
53.9613
53.9614
53.9615
53.9616
53.9616
53.9617
53.9617
53.9617
53.9617
53.9617
53.9616
53.9616
53.9615
53.9614
53.9613
53.9612
53.9611
53.9609
53.9608
53.9606
53.9605
53.9603
53.9601
53.9599
53.9597
53.9594
53.9592
53.959
53.9587
53.9585
53.9582
53.958
53.9577
53.9575
53.9572
53.9569
53.9567
53.9564
53.9561
53.9558
53.9556
53.9553
53.955
53.9547
53.9545
53.9542
53.954
53.9537
53.9534
53.9532
53.9529
53.9527
53.9524
53.9523
53.9519
53.9518
53.9515
53.9514
53.951
53.951
53.9506
53.9506
53.9502
53.9503
53.9498
53.95
53.9495
53.9497
53.9492
53.9494
53.9489
53.9491
53.9487
53.9487
53.9488
53.9482
53.6337
53.6431
53.6503
53.6507
53.6548
53.6626
53.6704
53.6708
53.6744
53.682
53.6927
53.6933
53.6942
53.6992
53.7062
53.7214
53.7236
53.7195
53.7223
53.7275
53.7338
53.7479
53.7569
53.7513
53.7495
53.7533
53.7575
53.7616
53.7657
53.7698
53.7738
53.7778
53.7817
53.7855
53.7893
53.7931
53.7968
53.8004
53.804
53.8076
53.8112
53.8147
53.8182
53.8217
53.8252
53.8286
53.8321
53.8354
53.8386
53.8417
53.8446
53.8476
53.851
53.8552
53.8652
53.8711
53.8651
53.8653
53.8681
53.8713
53.8773
53.8773
53.8784
53.8808
53.8834
53.8858
53.8882
53.8906
53.8929
53.8952
53.8975
53.8998
53.902
53.9041
53.9062
53.9084
53.9107
53.9128
53.9149
53.9174
53.9199
53.9222
53.9234
53.9241
53.9258
53.9282
53.9307
53.9322
53.929
53.9227