/*--------------------------------*- C++ -*----------------------------------*\
| =========                 |                                                 |
| \\      /  F ield         | OpenFOAM: The Open Source CFD Toolbox           |
|  \\    /   O peration     | Version:  3.0.x                                 |
|   \\  /    A nd           | Web:      www.OpenFOAM.org                      |
|    \\/     M anipulation  |                                                 |
\*---------------------------------------------------------------------------*/
FoamFile
{
    version     2.0;
    format      ascii;
    class       volScalarField;
    location    "0.45";
    object      T;
}
// * * * * * * * * * * * * * * * * * * * * * * * * * * * * * * * * * * * * * //

dimensions      [0 0 0 1 0 0 0];

internalField   nonuniform List<scalar> 
6900
(
774.489
774.489
774.489
774.489
774.488
774.488
774.488
774.488
774.487
774.487
774.487
774.487
774.487
774.487
774.487
774.486
774.486
774.486
774.486
774.486
774.486
774.486
774.486
774.486
774.486
774.486
774.486
774.486
774.487
774.487
774.487
774.486
774.486
774.484
774.481
774.478
774.476
774.474
774.472
774.472
774.471
774.471
774.47
774.468
774.467
774.465
774.462
774.459
774.456
774.452
774.449
774.445
774.443
774.441
774.44
774.439
774.439
774.438
774.437
774.435
774.433
774.431
774.429
774.427
774.425
774.423
774.422
774.421
774.421
774.42
774.42
774.42
774.42
774.42
774.42
774.42
774.421
774.421
774.421
774.422
774.422
774.423
774.424
774.425
774.426
774.427
774.428
774.429
774.43
774.432
774.433
774.435
774.436
774.438
774.44
774.441
774.443
774.445
774.447
774.449
774.451
774.453
774.455
774.457
774.459
774.461
774.463
774.465
774.467
774.47
774.472
774.475
774.478
774.481
774.484
774.487
774.49
774.494
774.498
774.502
774.506
774.51
774.515
774.52
774.525
774.53
774.535
774.541
774.546
774.552
774.558
774.564
774.57
774.576
774.583
774.589
774.596
774.602
774.609
774.615
774.622
774.629
774.636
774.643
774.65
774.657
774.665
774.673
774.68
774.688
774.697
774.705
774.714
774.723
774.732
774.742
774.752
774.762
774.773
774.783
774.794
774.806
774.817
774.829
774.841
774.853
774.865
774.878
774.89
774.903
774.915
774.928
774.941
774.954
774.967
774.98
774.993
775.006
775.02
775.033
775.047
775.061
775.075
775.089
775.103
775.118
775.133
775.148
775.163
775.179
775.194
775.211
775.226
775.245
775.259
775.281
775.294
775.319
775.331
775.411
774.486
774.486
774.486
774.485
774.485
774.485
774.485
774.484
774.484
774.484
774.484
774.484
774.484
774.484
774.483
774.483
774.483
774.483
774.483
774.483
774.483
774.483
774.483
774.483
774.483
774.483
774.484
774.484
774.484
774.484
774.484
774.483
774.483
774.481
774.478
774.476
774.473
774.471
774.47
774.469
774.468
774.468
774.467
774.466
774.464
774.462
774.46
774.457
774.454
774.45
774.446
774.443
774.44
774.438
774.437
774.437
774.437
774.436
774.435
774.433
774.431
774.429
774.427
774.425
774.423
774.421
774.42
774.419
774.418
774.418
774.418
774.418
774.418
774.418
774.418
774.418
774.419
774.419
774.419
774.42
774.42
774.421
774.422
774.423
774.423
774.424
774.426
774.427
774.428
774.429
774.431
774.432
774.434
774.436
774.437
774.439
774.441
774.443
774.445
774.447
774.449
774.45
774.452
774.454
774.456
774.459
774.461
774.463
774.465
774.468
774.47
774.473
774.476
774.478
774.481
774.485
774.488
774.492
774.495
774.499
774.504
774.508
774.513
774.517
774.522
774.528
774.533
774.539
774.544
774.55
774.556
774.562
774.568
774.574
774.581
774.587
774.593
774.6
774.607
774.613
774.62
774.627
774.634
774.641
774.648
774.655
774.663
774.67
774.678
774.686
774.695
774.703
774.712
774.721
774.73
774.74
774.75
774.76
774.77
774.781
774.792
774.804
774.815
774.827
774.839
774.851
774.863
774.876
774.888
774.901
774.913
774.926
774.939
774.952
774.965
774.978
774.991
775.004
775.018
775.031
775.045
775.059
775.073
775.087
775.101
775.116
775.13
775.146
775.161
775.177
775.192
775.209
775.224
775.243
775.257
775.279
775.292
775.317
775.329
775.405
774.486
774.486
774.486
774.486
774.485
774.485
774.485
774.484
774.484
774.484
774.484
774.484
774.484
774.484
774.484
774.483
774.483
774.483
774.483
774.483
774.483
774.483
774.483
774.483
774.483
774.484
774.484
774.484
774.484
774.484
774.484
774.484
774.483
774.481
774.478
774.476
774.473
774.471
774.47
774.469
774.468
774.468
774.467
774.466
774.464
774.462
774.46
774.457
774.454
774.45
774.446
774.443
774.44
774.438
774.438
774.437
774.437
774.436
774.435
774.433
774.431
774.429
774.427
774.425
774.423
774.421
774.42
774.419
774.418
774.418
774.418
774.418
774.418
774.418
774.418
774.418
774.419
774.419
774.419
774.42
774.42
774.421
774.422
774.423
774.423
774.424
774.426
774.427
774.428
774.429
774.431
774.432
774.434
774.436
774.437
774.439
774.441
774.443
774.445
774.447
774.449
774.45
774.452
774.454
774.456
774.459
774.461
774.463
774.465
774.468
774.47
774.473
774.476
774.478
774.481
774.485
774.488
774.492
774.495
774.499
774.504
774.508
774.513
774.517
774.522
774.528
774.533
774.539
774.544
774.55
774.556
774.562
774.568
774.574
774.581
774.587
774.593
774.6
774.607
774.613
774.62
774.627
774.634
774.641
774.648
774.655
774.663
774.67
774.678
774.686
774.695
774.703
774.712
774.721
774.73
774.74
774.75
774.76
774.77
774.781
774.792
774.804
774.815
774.827
774.839
774.851
774.863
774.876
774.888
774.901
774.913
774.926
774.939
774.952
774.965
774.978
774.991
775.004
775.018
775.031
775.045
775.059
775.073
775.087
775.101
775.116
775.13
775.146
775.161
775.176
775.192
775.209
775.224
775.242
775.258
775.277
775.294
775.312
775.333
775.351
774.486
774.486
774.486
774.485
774.485
774.485
774.485
774.484
774.484
774.484
774.484
774.484
774.484
774.484
774.483
774.483
774.483
774.483
774.483
774.483
774.483
774.483
774.483
774.483
774.483
774.483
774.484
774.484
774.484
774.484
774.484
774.483
774.483
774.481
774.478
774.476
774.473
774.471
774.47
774.469
774.468
774.468
774.467
774.466
774.464
774.462
774.46
774.457
774.454
774.45
774.446
774.443
774.44
774.438
774.437
774.437
774.437
774.436
774.435
774.433
774.431
774.429
774.427
774.425
774.423
774.421
774.42
774.419
774.418
774.418
774.418
774.418
774.418
774.418
774.418
774.418
774.419
774.419
774.419
774.42
774.42
774.421
774.422
774.423
774.423
774.424
774.426
774.427
774.428
774.429
774.431
774.432
774.434
774.436
774.437
774.439
774.441
774.443
774.445
774.447
774.449
774.45
774.452
774.454
774.456
774.459
774.461
774.463
774.465
774.468
774.47
774.473
774.476
774.478
774.481
774.485
774.488
774.492
774.495
774.499
774.504
774.508
774.513
774.517
774.522
774.528
774.533
774.539
774.544
774.55
774.556
774.562
774.568
774.574
774.581
774.587
774.593
774.6
774.607
774.613
774.62
774.627
774.634
774.641
774.648
774.655
774.663
774.67
774.678
774.686
774.695
774.703
774.712
774.721
774.73
774.74
774.75
774.76
774.77
774.781
774.792
774.804
774.815
774.827
774.839
774.851
774.863
774.876
774.888
774.901
774.913
774.926
774.939
774.952
774.965
774.978
774.991
775.004
775.018
775.031
775.045
775.059
775.073
775.087
775.101
775.116
775.131
775.145
775.161
775.176
775.193
775.207
775.226
775.24
775.261
775.274
775.297
775.308
775.341
775.261
774.489
774.489
774.489
774.489
774.488
774.488
774.488
774.488
774.487
774.487
774.487
774.487
774.487
774.487
774.487
774.486
774.486
774.486
774.486
774.486
774.486
774.486
774.486
774.486
774.486
774.486
774.486
774.486
774.487
774.487
774.487
774.486
774.486
774.484
774.481
774.478
774.476
774.474
774.472
774.472
774.471
774.471
774.47
774.468
774.467
774.465
774.462
774.459
774.456
774.452
774.449
774.445
774.443
774.441
774.44
774.439
774.439
774.438
774.437
774.435
774.433
774.431
774.429
774.427
774.425
774.423
774.422
774.421
774.421
774.42
774.42
774.42
774.42
774.42
774.42
774.42
774.421
774.421
774.421
774.422
774.422
774.423
774.424
774.425
774.426
774.427
774.428
774.429
774.43
774.432
774.433
774.435
774.436
774.438
774.44
774.441
774.443
774.445
774.447
774.449
774.451
774.453
774.455
774.457
774.459
774.461
774.463
774.465
774.467
774.47
774.472
774.475
774.478
774.481
774.484
774.487
774.49
774.494
774.498
774.502
774.506
774.51
774.515
774.52
774.525
774.53
774.535
774.541
774.546
774.552
774.558
774.564
774.57
774.576
774.583
774.589
774.596
774.602
774.609
774.615
774.622
774.629
774.636
774.643
774.65
774.657
774.665
774.673
774.68
774.688
774.697
774.705
774.714
774.723
774.732
774.742
774.752
774.762
774.773
774.783
774.794
774.806
774.817
774.829
774.841
774.853
774.865
774.878
774.89
774.903
774.915
774.928
774.941
774.954
774.967
774.98
774.993
775.006
775.02
775.033
775.047
775.061
775.075
775.089
775.103
775.118
775.133
775.147
775.163
775.178
775.195
775.209
775.228
775.242
775.263
775.276
775.299
775.31
775.35
775.189
775.417
775.43
775.433
775.436
775.439
775.442
775.446
775.453
775.451
775.44
775.433
775.43
775.412
775.398
775.402
775.415
775.432
775.437
775.396
775.251
775.402
775.409
775.41
775.411
775.412
775.413
775.415
775.421
775.419
775.403
775.396
775.395
775.375
775.347
775.349
775.364
775.383
775.387
775.35
775.208
775.361
775.366
775.366
775.367
775.366
775.365
775.363
775.36
775.359
775.359
775.358
775.357
775.353
775.349
775.348
775.349
775.351
775.352
775.363
775.383
775.296
775.302
775.311
775.31
775.308
775.298
775.29
775.274
775.263
775.248
775.24
775.224
775.215
775.202
775.192
775.187
775.182
775.173
775.169
775.159
775.252
775.237
775.239
775.242
775.244
775.241
775.236
775.226
775.217
775.207
775.198
775.191
775.18
775.175
775.167
775.165
775.16
775.161
775.167
775.19
775.189
775.211
775.202
775.21
775.248
775.263
775.26
775.264
775.286
775.31
775.322
775.335
775.353
775.37
775.387
775.404
775.421
775.438
775.455
775.473
775.49
775.507
775.524
775.542
775.56
775.578
775.596
775.614
775.633
775.651
775.669
775.688
775.706
775.725
775.744
775.763
775.782
775.802
775.821
775.841
775.862
775.882
775.903
775.924
775.945
775.966
775.988
776.009
776.031
776.053
776.074
776.096
776.118
776.14
776.162
776.184
776.206
776.228
776.251
776.273
776.296
776.319
776.342
776.365
776.389
776.412
776.436
776.46
776.484
776.508
776.533
776.557
776.58
776.603
776.626
776.65
776.675
776.701
776.728
776.754
776.78
776.804
776.826
776.85
776.874
776.899
776.924
776.95
776.977
777.005
777.034
777.063
777.09
777.115
777.141
777.172
777.209
777.247
777.276
777.293
777.312
777.355
777.444
777.54
777.61
777.643
777.648
777.635
777.59
777.563
777.556
777.558
777.572
777.607
777.644
777.678
777.71
777.742
777.772
777.802
777.832
777.861
777.89
777.919
777.947
777.976
778.004
778.033
778.061
778.09
778.118
778.147
778.175
778.204
778.233
778.261
778.29
778.319
778.347
778.376
778.405
778.434
778.462
778.491
778.52
778.549
778.578
778.607
778.636
778.666
778.695
778.724
778.753
778.783
778.812
778.841
778.871
778.9
778.929
778.959
778.988
779.018
779.047
779.077
779.106
779.136
779.165
779.195
779.224
779.253
779.283
779.312
779.342
779.371
779.4
779.429
779.458
779.487
779.517
779.545
779.575
779.602
779.634
779.66
779.692
779.717
779.75
779.774
779.808
779.831
779.865
779.887
779.923
779.943
779.981
780
780.038
780.056
780.096
780.123
775.195
775.216
775.211
775.232
775.269
775.28
775.277
775.283
775.31
775.33
775.34
775.354
775.371
775.389
775.406
775.422
775.439
775.456
775.473
775.491
775.508
775.525
775.542
775.561
775.579
775.596
775.614
775.632
775.65
775.668
775.686
775.704
775.723
775.741
775.76
775.779
775.798
775.817
775.837
775.857
775.878
775.898
775.919
775.94
775.961
775.983
776.004
776.025
776.047
776.068
776.089
776.11
776.132
776.154
776.175
776.197
776.22
776.242
776.265
776.287
776.31
776.333
776.356
776.38
776.403
776.428
776.452
776.476
776.501
776.525
776.549
776.573
776.597
776.621
776.647
776.674
776.703
776.733
776.761
776.784
776.805
776.826
776.848
776.869
776.893
776.918
776.946
776.974
777.002
777.03
777.057
777.084
777.112
777.143
777.179
777.217
777.246
777.264
777.283
777.321
777.392
777.476
777.552
777.603
777.626
777.628
777.611
777.569
777.545
777.54
777.542
777.553
777.583
777.617
777.65
777.682
777.712
777.743
777.772
777.802
777.831
777.86
777.888
777.917
777.946
777.974
778.003
778.031
778.06
778.088
778.117
778.145
778.174
778.202
778.231
778.259
778.288
778.317
778.345
778.374
778.403
778.432
778.46
778.489
778.518
778.547
778.576
778.605
778.634
778.664
778.693
778.722
778.751
778.781
778.81
778.839
778.869
778.898
778.928
778.957
778.986
779.016
779.045
779.075
779.104
779.134
779.163
779.193
779.222
779.252
779.281
779.31
779.34
779.369
779.398
779.427
779.457
779.485
779.515
779.543
779.573
779.601
779.632
779.658
779.69
779.715
779.748
779.772
779.806
779.829
779.863
779.885
779.921
779.941
779.979
779.998
780.036
780.054
780.092
780.114
775.386
775.405
775.455
775.487
775.503
775.518
775.537
775.555
775.572
775.589
775.605
775.621
775.637
775.654
775.67
775.687
775.704
775.721
775.738
775.754
775.771
775.787
775.803
775.819
775.835
775.852
775.869
775.886
775.904
775.922
775.941
775.96
775.978
775.997
776.015
776.033
776.051
776.068
776.086
776.104
776.123
776.141
776.16
776.18
776.199
776.22
776.241
776.262
776.284
776.307
776.33
776.352
776.375
776.397
776.42
776.442
776.464
776.487
776.51
776.534
776.558
776.582
776.606
776.631
776.655
776.681
776.708
776.735
776.763
776.79
776.817
776.844
776.872
776.9
776.924
776.942
776.951
776.953
776.946
776.922
776.899
776.891
776.891
776.893
776.901
776.917
776.937
776.96
776.986
777.013
777.042
777.071
777.1
777.129
777.157
777.184
777.21
777.235
777.26
777.285
777.309
777.332
777.355
777.378
777.401
777.425
777.45
777.475
777.501
777.528
777.555
777.583
777.611
777.638
777.666
777.694
777.722
777.749
777.777
777.805
777.834
777.862
777.89
777.918
777.946
777.975
778.003
778.031
778.06
778.088
778.117
778.145
778.174
778.202
778.231
778.259
778.288
778.317
778.345
778.374
778.403
778.432
778.46
778.489
778.518
778.547
778.576
778.605
778.634
778.664
778.693
778.722
778.751
778.781
778.81
778.839
778.869
778.898
778.928
778.957
778.986
779.016
779.045
779.075
779.104
779.134
779.163
779.193
779.222
779.252
779.281
779.31
779.34
779.369
779.398
779.427
779.456
779.486
779.514
779.544
779.572
779.602
779.63
779.66
779.688
779.717
779.745
779.774
779.803
779.831
779.86
779.89
779.915
779.948
779.973
780.002
780.032
780.06
780.086
780.116
775.161
775.168
775.183
775.209
775.224
775.236
775.256
775.277
775.294
775.311
775.329
775.345
775.362
775.379
775.396
775.413
775.43
775.446
775.463
775.48
775.497
775.514
775.532
775.549
775.567
775.585
775.603
775.621
775.639
775.658
775.677
775.696
775.715
775.734
775.753
775.772
775.792
775.811
775.831
775.851
775.87
775.891
775.911
775.931
775.952
775.973
775.994
776.016
776.038
776.06
776.082
776.104
776.126
776.149
776.171
776.194
776.216
776.239
776.262
776.284
776.307
776.33
776.353
776.376
776.399
776.422
776.445
776.468
776.492
776.515
776.538
776.561
776.584
776.608
776.632
776.656
776.683
776.71
776.735
776.76
776.784
776.81
776.836
776.861
776.885
776.913
776.945
776.976
777.002
777.03
777.063
777.102
777.137
777.168
777.199
777.235
777.282
777.337
777.394
777.444
777.479
777.497
777.501
777.495
777.473
777.458
777.456
777.458
777.469
777.497
777.53
777.562
777.594
777.626
777.656
777.686
777.716
777.745
777.774
777.803
777.832
777.86
777.889
777.917
777.946
777.974
778.003
778.031
778.06
778.088
778.117
778.145
778.174
778.202
778.231
778.259
778.288
778.317
778.345
778.374
778.403
778.432
778.46
778.489
778.518
778.547
778.576
778.605
778.634
778.664
778.693
778.722
778.751
778.781
778.81
778.839
778.869
778.898
778.928
778.957
778.986
779.016
779.045
779.075
779.104
779.134
779.163
779.193
779.222
779.252
779.281
779.31
779.34
779.369
779.398
779.427
779.456
779.486
779.514
779.544
779.572
779.602
779.63
779.66
779.687
779.719
779.744
779.777
779.8
779.835
779.857
779.892
779.914
779.95
779.97
780.007
780.026
780.064
780.084
780.122
775.247
775.275
775.297
775.319
775.337
775.357
775.378
775.399
775.417
775.435
775.453
775.471
775.488
775.506
775.523
775.54
775.557
775.574
775.591
775.609
775.626
775.643
775.661
775.679
775.697
775.715
775.733
775.752
775.77
775.788
775.807
775.826
775.844
775.863
775.882
775.9
775.919
775.938
775.957
775.977
775.997
776.017
776.037
776.058
776.079
776.1
776.121
776.143
776.164
776.186
776.207
776.229
776.25
776.272
776.294
776.316
776.338
776.36
776.382
776.404
776.426
776.448
776.471
776.493
776.516
776.538
776.561
776.584
776.608
776.631
776.655
776.679
776.704
776.729
776.753
776.778
776.803
776.828
776.852
776.875
776.898
776.923
776.95
776.976
777.001
777.025
777.051
777.08
777.116
777.152
777.18
777.196
777.212
777.246
777.326
777.418
777.488
777.526
777.537
777.532
777.499
777.454
777.433
777.43
777.432
777.439
777.457
777.48
777.505
777.531
777.557
777.585
777.612
777.64
777.667
777.695
777.723
777.751
777.779
777.807
777.835
777.863
777.892
777.92
777.948
777.977
778.005
778.033
778.062
778.09
778.119
778.147
778.176
778.204
778.233
778.261
778.29
778.319
778.347
778.376
778.405
778.434
778.462
778.491
778.52
778.549
778.578
778.607
778.636
778.666
778.695
778.724
778.753
778.783
778.812
778.841
778.871
778.9
778.929
778.959
778.988
779.018
779.047
779.077
779.106
779.136
779.165
779.195
779.224
779.254
779.283
779.312
779.341
779.371
779.4
779.429
779.458
779.488
779.516
779.546
779.574
779.604
779.632
779.662
779.689
779.72
779.746
779.779
779.802
779.836
779.859
779.894
779.916
779.951
779.973
780.007
780.033
780.058
780.095
780.119
780.122
780.124
780.125
780.127
780.129
780.13
780.132
780.133
780.134
780.135
780.137
780.138
780.14
780.142
780.144
780.146
780.15
780.155
780.158
780.162
780.127
780.132
780.136
780.14
780.143
780.145
780.147
780.148
780.15
780.151
780.153
780.155
780.157
780.159
780.161
780.163
780.166
780.17
780.17
780.169
780.135
780.142
780.147
780.153
780.159
780.165
780.171
780.177
780.184
780.191
780.197
780.208
780.218
780.223
780.229
780.242
780.259
780.268
780.281
780.293
780.14
780.152
780.16
780.168
780.176
780.184
780.19
780.199
780.214
780.227
780.23
780.227
780.226
780.234
780.24
780.244
780.253
780.276
780.298
780.292
780.14
780.154
780.163
780.172
780.182
780.191
780.2
780.214
780.231
780.243
780.247
780.247
780.245
780.248
780.252
780.258
780.273
780.303
780.326
780.303
780.188
780.228
780.26
780.302
780.343
780.378
780.413
780.45
780.489
780.526
780.559
780.593
780.629
780.664
780.696
780.726
780.757
780.79
780.821
780.849
780.876
780.904
780.931
780.959
780.985
781.01
781.035
781.06
781.085
781.11
781.134
781.158
781.182
781.206
781.23
781.253
781.277
781.3
781.323
781.346
781.369
781.392
781.414
781.437
781.46
781.483
781.505
781.528
781.551
781.574
781.596
781.619
781.641
781.663
781.685
781.707
781.728
781.749
781.77
781.791
781.812
781.832
781.853
781.874
781.895
781.915
781.936
781.957
781.978
781.997
782.017
782.037
782.058
782.078
782.098
782.118
782.136
782.156
782.178
782.199
782.216
782.23
782.253
782.288
782.321
782.337
782.341
782.348
782.385
782.501
782.602
782.639
782.638
782.611
782.54
782.488
782.461
782.446
782.442
782.438
780.185
780.213
780.249
780.292
780.33
780.357
780.383
780.415
780.451
780.482
780.509
780.537
780.567
780.597
780.622
780.648
780.675
780.703
780.729
780.752
780.776
780.801
780.826
780.851
780.875
780.898
780.921
780.944
780.968
780.992
781.015
781.038
781.062
781.085
781.108
781.131
781.154
781.178
781.201
781.224
781.247
781.27
781.293
781.317
781.34
781.363
781.385
781.408
781.431
781.453
781.476
781.498
781.521
781.543
781.566
781.588
781.61
781.632
781.654
781.675
781.697
781.718
781.738
781.759
781.78
781.801
781.821
781.842
781.862
781.882
781.903
781.922
781.942
781.964
781.985
782.003
782.022
782.045
782.067
782.085
782.103
782.127
782.153
782.174
782.193
782.218
782.248
782.277
782.304
782.331
782.361
782.4
782.454
782.51
782.544
782.55
782.546
782.529
782.486
782.456
780.378
780.409
780.466
780.525
780.579
780.623
780.663
780.703
780.742
780.774
780.801
780.829
780.859
780.884
780.906
780.928
780.953
780.978
780.999
781.017
781.037
781.059
781.082
781.104
781.125
781.145
781.166
781.188
781.212
781.235
781.259
781.283
781.307
781.331
781.355
781.378
781.401
781.423
781.445
781.468
781.49
781.513
781.536
781.559
781.582
781.605
781.629
781.652
781.675
781.698
781.721
781.743
781.766
781.788
781.811
781.834
781.858
781.882
781.904
781.927
781.95
781.973
781.997
782.021
782.044
782.068
782.095
782.121
782.146
782.164
782.171
782.169
782.161
782.142
782.118
782.103
782.093
782.086
782.084
782.091
782.107
782.124
782.142
782.164
782.184
782.207
782.228
782.248
782.267
782.287
782.301
782.322
782.334
782.351
782.365
782.377
782.392
782.404
782.416
782.427
780.281
780.32
780.33
780.342
780.403
780.448
780.455
780.462
780.504
780.548
780.558
780.57
780.608
780.641
780.652
780.664
780.692
780.732
780.759
780.771
780.783
780.804
780.833
780.866
780.887
780.903
780.922
780.943
780.966
780.989
781.013
781.037
781.06
781.084
781.108
781.132
781.156
781.18
781.204
781.228
781.251
781.275
781.298
781.322
781.345
781.369
781.392
781.416
781.439
781.462
781.485
781.507
781.53
781.552
781.573
781.595
781.616
781.638
781.659
781.68
781.701
781.722
781.743
781.765
781.786
781.808
781.828
781.85
781.873
781.893
781.913
781.932
781.952
781.972
781.992
782.011
782.03
782.05
782.07
782.091
782.113
782.133
782.152
782.173
782.195
782.216
782.234
782.253
782.28
782.314
782.341
782.353
782.358
782.366
782.397
782.485
782.581
782.639
782.654
782.648
780.27
780.3
780.32
780.322
780.343
780.395
780.422
780.433
780.449
780.478
780.507
780.535
780.558
780.577
780.602
780.63
780.657
780.682
780.703
780.728
780.754
780.776
780.802
780.828
780.852
780.876
780.9
780.923
780.947
780.972
780.996
781.021
781.045
781.069
781.093
781.117
781.141
781.165
781.189
781.213
781.236
781.26
781.283
781.307
781.33
781.353
781.376
781.4
781.423
781.446
781.469
781.492
781.514
781.537
781.559
781.581
781.602
781.624
781.645
781.666
781.687
781.708
781.729
781.749
781.77
781.791
781.813
781.834
781.855
781.875
781.895
781.915
781.935
781.955
781.975
781.995
782.015
782.034
782.053
782.072
782.091
782.111
782.133
782.152
782.171
782.191
782.213
782.234
782.249
782.264
782.289
782.323
782.353
782.367
782.372
782.379
782.411
782.516
782.624
782.656
782.437
782.436
782.436
782.436
782.437
782.437
782.437
782.437
782.437
782.437
782.437
782.437
782.437
782.438
782.439
782.44
782.443
782.445
782.448
782.451
782.441
782.437
782.434
782.432
782.429
782.426
782.423
782.42
782.418
782.417
782.417
782.418
782.42
782.422
782.427
782.431
782.438
782.441
782.446
782.449
782.438
782.442
782.445
782.448
782.452
782.455
782.459
782.463
782.466
782.472
782.479
782.484
782.491
782.502
782.514
782.52
782.531
782.539
782.55
782.556
782.632
782.611
782.59
782.568
782.549
782.533
782.518
782.505
782.494
782.485
782.481
782.479
782.479
782.481
782.491
782.495
782.504
782.513
782.51
782.503
782.667
782.671
782.667
782.654
782.633
782.605
782.578
782.557
782.538
782.518
782.503
782.496
782.491
782.486
782.482
782.48
782.481
782.484
782.482
782.489
782.464
782.489
782.511
782.532
782.558
782.586
782.612
782.634
782.658
782.686
782.713
782.734
782.756
782.781
782.807
782.832
782.852
782.869
782.89
782.91
782.931
782.952
782.967
782.977
782.989
783.003
783.016
783.028
783.04
783.052
783.063
783.075
783.086
783.097
783.108
783.119
783.13
783.141
783.151
783.162
783.172
783.181
783.191
783.2
783.21
783.219
783.228
783.237
783.246
783.255
783.264
783.273
783.281
783.289
783.301
783.31
783.315
783.322
783.33
783.339
783.348
783.355
783.361
783.369
783.377
783.385
783.393
783.4
783.406
783.412
783.423
783.432
783.434
783.435
783.443
783.47
783.487
783.487
783.48
783.486
783.569
783.706
783.744
783.733
783.663
783.561
783.498
783.459
783.433
783.412
783.401
783.398
783.4
783.403
783.405
783.408
783.41
783.413
783.415
783.418
783.42
783.422
783.424
783.426
783.428
783.43
783.432
783.433
783.435
783.436
783.438
783.439
783.44
783.441
783.443
783.444
783.444
783.445
783.446
783.447
783.447
783.448
783.448
783.449
783.449
783.45
783.45
783.45
783.45
783.45
783.451
783.451
783.45
783.45
783.45
783.45
783.45
783.45
783.449
783.449
783.449
783.448
783.448
783.447
783.447
783.446
783.446
783.445
783.445
783.444
783.443
783.443
783.442
783.441
783.44
783.44
783.439
783.438
783.437
783.437
783.436
783.435
783.434
783.433
783.433
783.432
783.431
783.43
783.429
783.429
783.428
783.427
783.426
783.426
783.425
783.424
783.423
783.423
783.422
783.422
783.42
783.421
783.418
783.42
783.417
783.42
783.416
783.419
783.414
783.418
783.413
783.417
783.413
783.415
783.414
783.411
783.416
783.411
783.412
783.413
782.469
782.507
782.528
782.55
782.583
782.615
782.633
782.646
782.668
782.696
782.714
782.723
782.738
782.76
782.784
782.799
782.805
782.813
782.827
782.845
782.865
782.881
782.887
782.89
782.898
782.909
782.921
782.932
782.943
782.953
782.962
782.972
782.981
782.99
782.999
783.008
783.017
783.026
783.036
783.045
783.055
783.065
783.074
783.084
783.093
783.103
783.113
783.122
783.131
783.14
783.148
783.157
783.165
783.177
783.188
783.195
783.201
783.207
783.215
783.224
783.232
783.239
783.247
783.254
783.261
783.27
783.28
783.286
783.29
783.299
783.312
783.318
783.322
783.33
783.347
783.356
783.361
783.372
783.393
783.409
783.427
783.448
783.468
783.509
783.561
783.581
783.58
783.566
783.52
783.457
783.41
783.381
783.37
783.373
783.385
783.393
783.399
783.405
783.409
783.413
783.416
783.419
783.422
783.424
783.426
783.428
783.43
783.432
783.433
783.435
783.436
783.438
783.439
783.44
783.441
783.442
783.443
783.444
783.445
783.445
783.446
783.446
783.447
783.447
783.448
783.448
783.448
783.449
783.449
783.449
783.449
783.449
783.449
783.449
783.449
783.449
783.448
783.448
783.448
783.448
783.447
783.447
783.446
783.446
783.445
783.445
783.444
783.444
783.443
783.442
783.442
783.441
783.44
783.44
783.439
783.438
783.437
783.437
783.436
783.435
783.434
783.433
783.433
783.432
783.431
783.43
783.43
783.429
783.428
783.427
783.426
783.426
783.425
783.424
783.423
783.423
783.422
783.422
783.42
783.421
783.419
783.42
783.417
783.419
783.415
783.418
783.414
783.417
783.413
783.417
783.412
783.416
783.411
783.415
783.41
783.414
783.409
783.412
783.41
783.411
782.608
782.673
782.718
782.759
782.805
782.854
782.891
782.919
782.95
782.982
783
783.009
783.023
783.044
783.067
783.076
783.071
783.07
783.082
783.1
783.123
783.141
783.138
783.129
783.132
783.141
783.151
783.161
783.171
783.181
783.192
783.202
783.213
783.224
783.235
783.246
783.256
783.267
783.278
783.288
783.298
783.308
783.319
783.329
783.338
783.347
783.358
783.368
783.378
783.388
783.397
783.408
783.421
783.444
783.468
783.469
783.468
783.478
783.494
783.512
783.521
783.519
783.507
783.491
783.465
783.426
783.393
783.366
783.344
783.326
783.318
783.317
783.322
783.329
783.337
783.346
783.355
783.364
783.372
783.378
783.384
783.389
783.393
783.396
783.398
783.399
783.4
783.4
783.399
783.398
783.397
783.397
783.398
783.4
783.403
783.406
783.409
783.412
783.414
783.416
783.419
783.421
783.423
783.425
783.427
783.429
783.43
783.432
783.433
783.435
783.436
783.438
783.439
783.44
783.441
783.442
783.443
783.444
783.445
783.445
783.446
783.446
783.447
783.447
783.448
783.448
783.448
783.449
783.449
783.449
783.449
783.449
783.449
783.449
783.449
783.449
783.448
783.448
783.448
783.448
783.447
783.447
783.446
783.446
783.445
783.445
783.444
783.444
783.443
783.442
783.442
783.441
783.44
783.44
783.439
783.438
783.437
783.437
783.436
783.435
783.434
783.433
783.433
783.432
783.431
783.43
783.43
783.429
783.428
783.427
783.426
783.426
783.425
783.424
783.423
783.423
783.422
783.422
783.421
783.42
783.419
783.419
783.418
783.418
783.417
783.416
783.416
783.416
783.414
783.416
783.412
783.415
783.412
783.412
783.413
783.412
783.411
783.412
783.411
783.411
782.527
782.594
782.635
782.632
782.629
782.676
782.729
782.721
782.716
782.755
782.806
782.797
782.778
782.784
782.841
782.897
782.89
782.852
782.834
782.84
782.886
782.961
782.964
782.942
782.903
782.896
782.902
782.914
782.925
782.937
782.948
782.96
782.971
782.983
782.994
783.006
783.017
783.028
783.038
783.048
783.058
783.068
783.078
783.087
783.097
783.107
783.117
783.127
783.136
783.145
783.156
783.166
783.173
783.187
783.256
783.263
783.243
783.226
783.226
783.243
783.269
783.263
783.26
783.263
783.27
783.278
783.285
783.292
783.298
783.304
783.312
783.321
783.33
783.337
783.343
783.351
783.36
783.365
783.369
783.378
783.401
783.423
783.429
783.426
783.422
783.428
783.483
783.588
783.642
783.65
783.63
783.546
783.458
783.404
783.381
783.378
783.388
783.399
783.406
783.411
783.415
783.418
783.421
783.424
783.426
783.428
783.43
783.432
783.433
783.435
783.436
783.438
783.439
783.44
783.441
783.442
783.443
783.444
783.445
783.445
783.446
783.446
783.447
783.447
783.448
783.448
783.448
783.449
783.449
783.449
783.449
783.449
783.449
783.449
783.449
783.449
783.448
783.448
783.448
783.448
783.447
783.447
783.446
783.446
783.445
783.445
783.444
783.444
783.443
783.442
783.442
783.441
783.44
783.44
783.439
783.438
783.437
783.437
783.436
783.435
783.434
783.433
783.433
783.432
783.431
783.43
783.43
783.429
783.428
783.427
783.426
783.426
783.425
783.424
783.424
783.423
783.422
783.421
783.421
783.419
783.421
783.417
783.42
783.416
783.419
783.415
783.418
783.414
783.417
783.412
783.416
783.411
783.415
783.411
783.414
783.41
783.413
783.412
783.407
783.414
782.548
782.559
782.586
782.604
782.605
782.612
782.637
782.661
782.675
782.688
782.693
782.705
782.723
782.74
782.76
782.77
782.78
782.786
782.792
782.808
782.831
782.853
782.854
782.862
782.865
782.869
782.883
782.896
782.908
782.92
782.932
782.944
782.955
782.967
782.978
782.99
783.001
783.012
783.023
783.033
783.044
783.054
783.064
783.074
783.083
783.093
783.103
783.112
783.122
783.13
783.14
783.15
783.16
783.178
783.195
783.192
783.197
783.201
783.209
783.22
783.228
783.232
783.239
783.246
783.254
783.261
783.268
783.276
783.283
783.29
783.297
783.302
783.309
783.317
783.326
783.333
783.338
783.347
783.357
783.36
783.361
783.365
783.383
783.408
783.416
783.414
783.409
783.417
783.493
783.613
783.649
783.637
783.553
783.447
783.392
783.374