/*--------------------------------*- C++ -*----------------------------------*\
| =========                 |                                                 |
| \\      /  F ield         | OpenFOAM: The Open Source CFD Toolbox           |
|  \\    /   O peration     | Version:  3.0.x                                 |
|   \\  /    A nd           | Web:      www.OpenFOAM.org                      |
|    \\/     M anipulation  |                                                 |
\*---------------------------------------------------------------------------*/
FoamFile
{
    version     2.0;
    format      ascii;
    class       volVectorField;
    location    "0.45";
    object      U;
}
// * * * * * * * * * * * * * * * * * * * * * * * * * * * * * * * * * * * * * //

dimensions      [0 1 -1 0 0 0 0];

internalField   nonuniform List<vector> 
6900
(
(42.6985 0.000101105 0)
(42.6971 9.25462e-05 0)
(42.6956 8.99203e-05 0)
(42.694 9.08356e-05 0)
(42.6924 9.15597e-05 0)
(42.6907 9.19652e-05 0)
(42.6889 9.22744e-05 0)
(42.6869 9.25168e-05 0)
(42.6849 9.27047e-05 0)
(42.6827 9.28468e-05 0)
(42.6803 9.2956e-05 0)
(42.6778 9.304e-05 0)
(42.6751 9.31053e-05 0)
(42.6723 9.3156e-05 0)
(42.6693 9.31953e-05 0)
(42.6662 9.32257e-05 0)
(42.663 9.32493e-05 0)
(42.6598 9.32675e-05 0)
(42.6564 9.32814e-05 0)
(42.6531 9.32872e-05 0)
(42.6497 9.33071e-05 0)
(42.6463 9.33066e-05 0)
(42.643 9.33135e-05 0)
(42.6398 9.33185e-05 0)
(42.6366 9.33242e-05 0)
(42.6336 9.33307e-05 0)
(42.6307 9.33377e-05 0)
(42.628 9.3347e-05 0)
(42.6254 9.33579e-05 0)
(42.623 9.33663e-05 0)
(42.6208 9.33966e-05 0)
(42.6187 9.33925e-05 0)
(42.6168 9.34182e-05 0)
(42.615 9.34653e-05 0)
(42.6134 9.34742e-05 0)
(42.6118 9.35012e-05 0)
(42.6104 9.3531e-05 0)
(42.6089 9.35622e-05 0)
(42.6075 9.35948e-05 0)
(42.6061 9.36286e-05 0)
(42.6046 9.36638e-05 0)
(42.6031 9.37005e-05 0)
(42.6014 9.3738e-05 0)
(42.5996 9.37772e-05 0)
(42.5976 9.38132e-05 0)
(42.5954 9.38532e-05 0)
(42.5931 9.38911e-05 0)
(42.5905 9.39273e-05 0)
(42.5877 9.39597e-05 0)
(42.5846 9.3986e-05 0)
(42.5813 9.40026e-05 0)
(42.5779 9.40049e-05 0)
(42.5742 9.39867e-05 0)
(42.5703 9.39402e-05 0)
(42.5663 9.38555e-05 0)
(42.5622 9.37206e-05 0)
(42.5579 9.35211e-05 0)
(42.5536 9.32398e-05 0)
(42.5493 9.2857e-05 0)
(42.545 9.23504e-05 0)
(42.5407 9.16959e-05 0)
(42.5365 9.08678e-05 0)
(42.5324 8.98397e-05 0)
(42.5284 8.8586e-05 0)
(42.5246 8.70825e-05 0)
(42.5209 8.53083e-05 0)
(42.5174 8.3247e-05 0)
(42.5141 8.08878e-05 0)
(42.5109 7.82271e-05 0)
(42.5079 7.5269e-05 0)
(42.505 7.20265e-05 0)
(42.5022 6.85155e-05 0)
(42.4995 6.47927e-05 0)
(42.4968 6.08463e-05 0)
(42.4941 5.67617e-05 0)
(42.4914 5.25725e-05 0)
(42.4886 4.83315e-05 0)
(42.4857 4.40922e-05 0)
(42.4826 3.99068e-05 0)
(42.4793 3.58248e-05 0)
(42.4757 3.18916e-05 0)
(42.4718 2.81463e-05 0)
(42.4675 2.46218e-05 0)
(42.4629 2.13434e-05 0)
(42.4579 1.83286e-05 0)
(42.4525 1.55875e-05 0)
(42.4467 1.31228e-05 0)
(42.4405 1.09312e-05 0)
(42.4338 9.00333e-06 0)
(42.4268 7.32576e-06 0)
(42.4195 5.88151e-06 0)
(42.4117 4.65119e-06 0)
(42.4037 3.61401e-06 0)
(42.3954 2.74874e-06 0)
(42.3868 2.03435e-06 0)
(42.3781 1.45089e-06 0)
(42.3691 9.80046e-07 0)
(42.36 6.04605e-07 0)
(42.3508 3.1255e-07 0)
(42.3415 9.29396e-08 0)
(42.3321 -9.82714e-08 0)
(42.3226 -2.48644e-07 0)
(42.313 -3.59882e-07 0)
(42.3034 -4.41935e-07 0)
(42.2935 -5.02041e-07 0)
(42.2836 -5.4546e-07 0)
(42.2734 -5.76154e-07 0)
(42.2631 -5.97134e-07 0)
(42.2524 -6.10713e-07 0)
(42.2414 -6.18623e-07 0)
(42.2301 -6.22197e-07 0)
(42.2183 -6.22381e-07 0)
(42.206 -6.19898e-07 0)
(42.1931 -6.15269e-07 0)
(42.1796 -6.08888e-07 0)
(42.1655 -6.01035e-07 0)
(42.1506 -5.91922e-07 0)
(42.1349 -5.8174e-07 0)
(42.1185 -5.70649e-07 0)
(42.1012 -5.58815e-07 0)
(42.0831 -5.46375e-07 0)
(42.0641 -5.33492e-07 0)
(42.0442 -5.2031e-07 0)
(42.0235 -5.07023e-07 0)
(42.002 -4.93803e-07 0)
(41.9797 -4.80861e-07 0)
(41.9566 -4.68361e-07 0)
(41.9328 -4.5647e-07 0)
(41.9084 -4.45324e-07 0)
(41.8834 -4.35014e-07 0)
(41.8578 -4.25615e-07 0)
(41.8318 -4.17152e-07 0)
(41.8053 -4.09617e-07 0)
(41.7785 -4.02956e-07 0)
(41.7513 -3.97055e-07 0)
(41.7239 -3.9178e-07 0)
(41.6961 -3.86973e-07 0)
(41.668 -3.82435e-07 0)
(41.6396 -3.78055e-07 0)
(41.6109 -3.73659e-07 0)
(41.5818 -3.69112e-07 0)
(41.5523 -3.64244e-07 0)
(41.5224 -3.58895e-07 0)
(41.4921 -3.52977e-07 0)
(41.4612 -3.46375e-07 0)
(41.4297 -3.39001e-07 0)
(41.3976 -3.3076e-07 0)
(41.3648 -3.21548e-07 0)
(41.3312 -3.11247e-07 0)
(41.2968 -2.9976e-07 0)
(41.2615 -2.86992e-07 0)
(41.2253 -2.72851e-07 0)
(41.188 -2.57245e-07 0)
(41.1496 -2.40066e-07 0)
(41.1102 -2.2121e-07 0)
(41.0696 -2.00605e-07 0)
(41.0278 -1.78194e-07 0)
(40.9847 -1.53955e-07 0)
(40.9405 -1.27788e-07 0)
(40.8951 -9.91356e-08 0)
(40.8486 -7.02346e-08 0)
(40.801 -4.63752e-08 0)
(40.7523 -2.62013e-08 0)
(40.7028 -9.49528e-09 0)
(40.6523 6.19266e-10 0)
(40.6012 8.35447e-09 0)
(40.5494 1.3788e-08 0)
(40.497 1.74034e-08 0)
(40.4442 1.94083e-08 0)
(40.391 2.01107e-08 0)
(40.3374 1.98234e-08 0)
(40.2836 1.8826e-08 0)
(40.2294 1.74443e-08 0)
(40.175 1.59387e-08 0)
(40.1202 1.46522e-08 0)
(40.065 1.38326e-08 0)
(40.0094 1.36882e-08 0)
(39.9533 1.42844e-08 0)
(39.8966 1.56259e-08 0)
(39.8393 1.76266e-08 0)
(39.7814 2.02421e-08 0)
(39.7228 2.33097e-08 0)
(39.6635 2.69306e-08 0)
(39.6034 3.08928e-08 0)
(39.5426 3.5515e-08 0)
(39.481 4.04588e-08 0)
(39.4185 4.67047e-08 0)
(39.3551 5.31466e-08 0)
(39.2906 6.25465e-08 0)
(39.2249 7.00727e-08 0)
(39.158 8.48311e-08 0)
(39.0898 8.95725e-08 0)
(39.0202 1.81349e-07 0)
(38.9491 7.72883e-07 0)
(38.8765 5.03998e-06 0)
(38.8017 3.42067e-05 0)
(38.721 0.000237155 0)
(38.6076 0.00165752 0)
(38.3698 0.01529 0)
(35.967 0.0770363 0)
(42.7003 0.000128259 0)
(42.7007 9.90305e-05 0)
(42.7009 8.59281e-05 0)
(42.7011 8.53478e-05 0)
(42.7013 8.53311e-05 0)
(42.7014 8.49251e-05 0)
(42.7014 8.4632e-05 0)
(42.7012 8.44445e-05 0)
(42.7009 8.43112e-05 0)
(42.7005 8.42062e-05 0)
(42.6999 8.41253e-05 0)
(42.6992 8.40628e-05 0)
(42.6983 8.40143e-05 0)
(42.6973 8.39771e-05 0)
(42.6961 8.39486e-05 0)
(42.6948 8.39269e-05 0)
(42.6934 8.39108e-05 0)
(42.6919 8.38989e-05 0)
(42.6904 8.38902e-05 0)
(42.6888 8.38774e-05 0)
(42.6872 8.38928e-05 0)
(42.6857 8.38792e-05 0)
(42.6841 8.38823e-05 0)
(42.6827 8.38848e-05 0)
(42.6813 8.38897e-05 0)
(42.6801 8.38966e-05 0)
(42.679 8.39051e-05 0)
(42.6781 8.39168e-05 0)
(42.6773 8.39302e-05 0)
(42.6767 8.39393e-05 0)
(42.6762 8.39816e-05 0)
(42.6759 8.3967e-05 0)
(42.6758 8.39979e-05 0)
(42.6758 8.40587e-05 0)
(42.676 8.40647e-05 0)
(42.6762 8.40963e-05 0)
(42.6765 8.41291e-05 0)
(42.6769 8.41631e-05 0)
(42.6773 8.41986e-05 0)
(42.6776 8.42356e-05 0)
(42.678 8.42741e-05 0)
(42.6782 8.43143e-05 0)
(42.6783 8.43557e-05 0)
(42.6783 8.43994e-05 0)
(42.6781 8.44369e-05 0)
(42.6777 8.44813e-05 0)
(42.6772 8.4523e-05 0)
(42.6764 8.45634e-05 0)
(42.6753 8.46003e-05 0)
(42.6741 8.46317e-05 0)
(42.6726 8.46543e-05 0)
(42.671 8.46638e-05 0)
(42.6691 8.46547e-05 0)
(42.667 8.46195e-05 0)
(42.6648 8.4549e-05 0)
(42.6624 8.44323e-05 0)
(42.66 8.42559e-05 0)
(42.6575 8.40042e-05 0)
(42.6549 8.36592e-05 0)
(42.6524 8.32003e-05 0)
(42.6499 8.26057e-05 0)
(42.6474 8.18519e-05 0)
(42.6451 8.0915e-05 0)
(42.6428 7.97719e-05 0)
(42.6407 7.84006e-05 0)
(42.6386 7.67826e-05 0)
(42.6368 7.49032e-05 0)
(42.635 7.27532e-05 0)
(42.6333 7.03301e-05 0)
(42.6318 6.76381e-05 0)
(42.6303 6.46895e-05 0)
(42.6289 6.14962e-05 0)
(42.6274 5.81283e-05 0)
(42.626 5.45431e-05 0)
(42.6244 5.08466e-05 0)
(42.6227 4.70589e-05 0)
(42.6209 4.32289e-05 0)
(42.6189 3.94055e-05 0)
(42.6166 3.56359e-05 0)
(42.614 3.19646e-05 0)
(42.611 2.8432e-05 0)
(42.6077 2.50729e-05 0)
(42.6039 2.19167e-05 0)
(42.5998 1.89853e-05 0)
(42.5951 1.62935e-05 0)
(42.5901 1.38499e-05 0)
(42.5845 1.1656e-05 0)
(42.5785 9.7083e-06 0)
(42.5721 7.9977e-06 0)
(42.5652 6.51145e-06 0)
(42.558 5.23388e-06 0)
(42.5504 4.14722e-06 0)
(42.5424 3.23254e-06 0)
(42.5341 2.47057e-06 0)
(42.5256 1.84227e-06 0)
(42.5169 1.32947e-06 0)
(42.508 9.14918e-07 0)
(42.4989 5.8197e-07 0)
(42.4897 3.15868e-07 0)
(42.4804 1.05915e-07 0)
(42.471 -5.61307e-08 0)
(42.4615 -1.76127e-07 0)
(42.4519 -2.68016e-07 0)
(42.4422 -3.37322e-07 0)
(42.4324 -3.88495e-07 0)
(42.4224 -4.2534e-07 0)
(42.4122 -4.50921e-07 0)
(42.4019 -4.67656e-07 0)
(42.3912 -4.77451e-07 0)
(42.3802 -4.81769e-07 0)
(42.3688 -4.81697e-07 0)
(42.357 -4.78079e-07 0)
(42.3447 -4.71552e-07 0)
(42.3318 -4.62615e-07 0)
(42.3183 -4.51674e-07 0)
(42.3041 -4.39042e-07 0)
(42.2893 -4.25001e-07 0)
(42.2736 -4.09836e-07 0)
(42.2571 -3.93822e-07 0)
(42.2398 -3.77251e-07 0)
(42.2217 -3.60408e-07 0)
(42.2027 -3.43593e-07 0)
(42.1828 -3.27109e-07 0)
(42.1621 -3.11277e-07 0)
(42.1405 -2.96386e-07 0)
(42.1182 -2.82726e-07 0)
(42.0951 -2.70501e-07 0)
(42.0713 -2.59864e-07 0)
(42.0469 -2.509e-07 0)
(42.0218 -2.43603e-07 0)
(41.9963 -2.37926e-07 0)
(41.9702 -2.33742e-07 0)
(41.9438 -2.30868e-07 0)
(41.9169 -2.29098e-07 0)
(41.8898 -2.28152e-07 0)
(41.8623 -2.27744e-07 0)
(41.8345 -2.27577e-07 0)
(41.8064 -2.27349e-07 0)
(41.7779 -2.26828e-07 0)
(41.7492 -2.2578e-07 0)
(41.7201 -2.23993e-07 0)
(41.6907 -2.21269e-07 0)
(41.6608 -2.17434e-07 0)
(41.6304 -2.12415e-07 0)
(41.5995 -2.06101e-07 0)
(41.568 -1.98455e-07 0)
(41.5359 -1.89439e-07 0)
(41.503 -1.79018e-07 0)
(41.4695 -1.67188e-07 0)
(41.435 -1.5399e-07 0)
(41.3997 -1.39469e-07 0)
(41.3635 -1.23785e-07 0)
(41.3262 -1.07088e-07 0)
(41.2878 -8.96122e-08 0)
(41.2483 -7.16492e-08 0)
(41.2077 -5.36242e-08 0)
(41.1659 -3.60499e-08 0)
(41.1229 -1.95492e-08 0)
(41.0786 -4.81949e-09 0)
(41.0332 8.09397e-09 0)
(40.9867 2.16838e-08 0)
(40.9391 3.15506e-08 0)
(40.8904 4.02648e-08 0)
(40.8408 4.75932e-08 0)
(40.7904 5.2614e-08 0)
(40.7392 5.87607e-08 0)
(40.6874 6.33762e-08 0)
(40.635 6.56129e-08 0)
(40.5822 6.58209e-08 0)
(40.529 6.42385e-08 0)
(40.4754 6.15602e-08 0)
(40.4216 5.79213e-08 0)
(40.3674 5.4183e-08 0)
(40.3129 5.06846e-08 0)
(40.2581 4.80096e-08 0)
(40.2029 4.64463e-08 0)
(40.1473 4.6516e-08 0)
(40.0912 4.76975e-08 0)
(40.0345 5.08227e-08 0)
(39.9772 5.41534e-08 0)
(39.9192 5.97925e-08 0)
(39.8606 6.45319e-08 0)
(39.8013 7.22086e-08 0)
(39.7412 7.71866e-08 0)
(39.6804 8.72923e-08 0)
(39.6188 9.252e-08 0)
(39.5563 1.07473e-07 0)
(39.4928 1.10782e-07 0)
(39.4283 1.40411e-07 0)
(39.3627 1.29448e-07 0)
(39.2958 2.10164e-07 0)
(39.2275 2.36981e-07 0)
(39.1579 8.86763e-07 0)
(39.0868 4.52096e-06 0)
(39.0142 3.07535e-05 0)
(38.9394 0.000210843 0)
(38.8588 0.00145909 0)
(38.7465 0.0100427 0)
(38.5129 0.0721832 0)
(36.6443 0.333603 0)
(42.7002 1.88881e-12 0)
(42.7006 7.11203e-13 0)
(42.7009 1.26817e-12 0)
(42.7011 -1.64615e-13 0)
(42.7012 -2.25776e-12 0)
(42.7013 -5.3572e-12 0)
(42.7013 -8.37713e-12 0)
(42.7012 -8.75791e-12 0)
(42.7009 -7.34889e-12 0)
(42.7005 -6.08343e-12 0)
(42.6999 -7.08306e-12 0)
(42.6992 -1.12225e-11 0)
(42.6983 -1.35439e-11 0)
(42.6972 -1.53357e-11 0)
(42.6961 -1.65688e-11 0)
(42.6948 -1.55593e-11 0)
(42.6934 -1.51139e-11 0)
(42.6919 -1.39747e-11 0)
(42.6904 -1.55032e-11 0)
(42.6888 -1.63022e-11 0)
(42.6872 -1.68323e-11 0)
(42.6856 -1.76391e-11 0)
(42.6841 -1.76991e-11 0)
(42.6827 -1.87438e-11 0)
(42.6813 -2.01714e-11 0)
(42.6801 -2.14541e-11 0)
(42.679 -2.05176e-11 0)
(42.678 -2.19357e-11 0)
(42.6773 -2.34651e-11 0)
(42.6766 -2.52558e-11 0)
(42.6762 -2.44633e-11 0)
(42.6759 -2.32333e-11 0)
(42.6758 -2.12625e-11 0)
(42.6758 -1.93081e-11 0)
(42.6759 -1.81945e-11 0)
(42.6762 -1.56479e-11 0)
(42.6765 -1.38162e-11 0)
(42.6769 -1.0199e-11 0)
(42.6773 -8.21445e-12 0)
(42.6776 -7.29189e-12 0)
(42.678 -5.91736e-12 0)
(42.6782 -5.58948e-12 0)
(42.6783 -5.26547e-12 0)
(42.6783 -4.25422e-12 0)
(42.6781 -3.87981e-12 0)
(42.6778 -3.23846e-12 0)
(42.6772 -3.49134e-12 0)
(42.6764 -4.76725e-12 0)
(42.6754 -6.58592e-12 0)
(42.6741 -6.12028e-12 0)
(42.6727 -8.35024e-12 0)
(42.671 -1.0183e-11 0)
(42.6691 -1.44037e-11 0)
(42.667 -1.73496e-11 0)
(42.6648 -1.85715e-11 0)
(42.6625 -1.88735e-11 0)
(42.66 -1.9345e-11 0)
(42.6575 -1.90898e-11 0)
(42.655 -1.69499e-11 0)
(42.6524 -1.50383e-11 0)
(42.6499 -1.40003e-11 0)
(42.6475 -1.20397e-11 0)
(42.6451 -1.10593e-11 0)
(42.6429 -8.89294e-12 0)
(42.6407 -9.10718e-12 0)
(42.6387 -1.01708e-11 0)
(42.6368 -1.17913e-11 0)
(42.6351 -1.49197e-11 0)
(42.6334 -1.68526e-11 0)
(42.6319 -2.0106e-11 0)
(42.6304 -2.15005e-11 0)
(42.6289 -2.29205e-11 0)
(42.6275 -2.1845e-11 0)
(42.626 -2.19251e-11 0)
(42.6245 -2.15305e-11 0)
(42.6228 -2.04166e-11 0)
(42.621 -2.08048e-11 0)
(42.6189 -1.98229e-11 0)
(42.6166 -1.83293e-11 0)
(42.614 -1.84675e-11 0)
(42.6111 -2.25073e-11 0)
(42.6077 -2.44276e-11 0)
(42.604 -2.40838e-11 0)
(42.5998 -2.49411e-11 0)
(42.5952 -2.30193e-11 0)
(42.5901 -2.00259e-11 0)
(42.5846 -1.99521e-11 0)
(42.5786 -1.95913e-11 0)
(42.5721 -1.90583e-11 0)
(42.5653 -1.79597e-11 0)
(42.558 -1.66953e-11 0)
(42.5504 -1.60161e-11 0)
(42.5424 -1.35967e-11 0)
(42.5342 -1.1384e-11 0)
(42.5257 -1.0096e-11 0)
(42.5169 -9.12111e-12 0)
(42.508 -9.45469e-12 0)
(42.4989 -8.51e-12 0)
(42.4897 -8.8262e-12 0)
(42.4804 -1.15046e-11 0)
(42.471 -1.45751e-11 0)
(42.4615 -1.57977e-11 0)
(42.4519 -1.81713e-11 0)
(42.4422 -1.79896e-11 0)
(42.4324 -1.65875e-11 0)
(42.4224 -1.73501e-11 0)
(42.4123 -1.73608e-11 0)
(42.4019 -1.72259e-11 0)
(42.3912 -1.6829e-11 0)
(42.3802 -1.20369e-11 0)
(42.3689 -5.40322e-12 0)
(42.357 -8.21223e-13 0)
(42.3447 2.49091e-12 0)
(42.3318 5.10668e-12 0)
(42.3183 6.9451e-12 0)
(42.3042 8.34727e-12 0)
(42.2893 9.05333e-12 0)
(42.2736 9.98536e-12 0)
(42.2572 1.24867e-11 0)
(42.2399 1.32367e-11 0)
(42.2217 1.56394e-11 0)
(42.2027 1.23526e-11 0)
(42.1828 1.01674e-11 0)
(42.1621 6.21484e-12 0)
(42.1406 8.45593e-12 0)
(42.1182 6.68665e-12 0)
(42.0951 1.18203e-11 0)
(42.0713 6.59748e-12 0)
(42.0469 8.41927e-12 0)
(42.0219 2.32026e-13 0)
(41.9963 1.40949e-12 0)
(41.9703 -1.76919e-12 0)
(41.9438 -4.14971e-12 0)
(41.917 -1.05247e-11 0)
(41.8898 -1.18316e-11 0)
(41.8623 -1.10881e-11 0)
(41.8345 -1.27938e-11 0)
(41.8064 -1.30656e-11 0)
(41.778 -6.46549e-12 0)
(41.7492 -1.67487e-11 0)
(41.7202 -1.48228e-12 0)
(41.6907 -1.68933e-11 0)
(41.6608 -1.70981e-12 0)
(41.6304 -1.19825e-11 0)
(41.5995 -4.89571e-12 0)
(41.568 -7.15632e-12 0)
(41.5359 -1.55996e-11 0)
(41.5031 3.6106e-12 0)
(41.4695 6.25747e-12 0)
(41.4351 -2.50309e-11 0)
(41.3998 2.45115e-11 0)
(41.3635 -9.76796e-13 0)
(41.3262 1.10765e-11 0)
(41.2879 4.96219e-13 0)
(41.2484 5.48611e-12 0)
(41.2077 -2.08017e-11 0)
(41.1659 1.66114e-11 0)
(41.1229 2.89128e-11 0)
(41.0787 5.14515e-11 0)
(41.0333 -3.3386e-11 0)
(40.9867 -2.67387e-11 0)
(40.9391 3.36691e-11 0)
(40.8904 1.02141e-10 0)
(40.8409 -5.00502e-11 0)
(40.7904 -6.51865e-11 0)
(40.7392 1.68989e-11 0)
(40.6874 2.13918e-10 0)
(40.6351 -1.74374e-10 0)
(40.5822 4.04129e-11 0)
(40.529 -2.63371e-10 0)
(40.4755 3.84579e-10 0)
(40.4216 -1.1634e-10 0)
(40.3674 2.25966e-10 0)
(40.313 -3.72869e-10 0)
(40.2582 2.48801e-10 0)
(40.203 -3.4055e-10 0)
(40.1473 6.00483e-10 0)
(40.0912 -7.09914e-10 0)
(40.0345 9.14603e-10 0)
(39.9772 -1.21203e-09 0)
(39.9193 1.84827e-09 0)
(39.8607 -2.26437e-09 0)
(39.8013 2.86816e-09 0)
(39.7413 -3.92139e-09 0)
(39.6805 5.56089e-09 0)
(39.6188 -7.53014e-09 0)
(39.5563 1.17348e-08 0)
(39.4929 -1.94457e-08 0)
(39.4284 3.85156e-08 0)
(39.3627 -5.19633e-08 0)
(39.2958 1.5374e-07 0)
(39.2276 6.60305e-08 0)
(39.158 1.44495e-06 0)
(39.0869 8.32955e-06 0)
(39.0143 6.03777e-05 0)
(38.9403 0.000421129 0)
(38.8646 0.00295557 0)
(38.786 0.0206082 0)
(38.6937 0.145289 0)
(38.4688 0.64996 0)
(42.7003 -0.000128259 0)
(42.7007 -9.90305e-05 0)
(42.7009 -8.59281e-05 0)
(42.7011 -8.53478e-05 0)
(42.7013 -8.53311e-05 0)
(42.7014 -8.49251e-05 0)
(42.7014 -8.46319e-05 0)
(42.7012 -8.44445e-05 0)
(42.7009 -8.43112e-05 0)
(42.7005 -8.42062e-05 0)
(42.6999 -8.41253e-05 0)
(42.6992 -8.40628e-05 0)
(42.6983 -8.40143e-05 0)
(42.6973 -8.39771e-05 0)
(42.6961 -8.39486e-05 0)
(42.6948 -8.39269e-05 0)
(42.6934 -8.39108e-05 0)
(42.6919 -8.38989e-05 0)
(42.6904 -8.38902e-05 0)
(42.6888 -8.38774e-05 0)
(42.6872 -8.38928e-05 0)
(42.6857 -8.38791e-05 0)
(42.6841 -8.38823e-05 0)
(42.6827 -8.38848e-05 0)
(42.6813 -8.38897e-05 0)
(42.6801 -8.38966e-05 0)
(42.679 -8.39051e-05 0)
(42.6781 -8.39168e-05 0)
(42.6773 -8.39302e-05 0)
(42.6767 -8.39393e-05 0)
(42.6762 -8.39816e-05 0)
(42.6759 -8.3967e-05 0)
(42.6758 -8.39979e-05 0)
(42.6758 -8.40587e-05 0)
(42.676 -8.40647e-05 0)
(42.6762 -8.40963e-05 0)
(42.6765 -8.41291e-05 0)
(42.6769 -8.41631e-05 0)
(42.6773 -8.41986e-05 0)
(42.6776 -8.42356e-05 0)
(42.678 -8.42741e-05 0)
(42.6782 -8.43143e-05 0)
(42.6783 -8.43557e-05 0)
(42.6783 -8.43994e-05 0)
(42.6781 -8.44369e-05 0)
(42.6777 -8.44813e-05 0)
(42.6772 -8.4523e-05 0)
(42.6764 -8.45634e-05 0)
(42.6753 -8.46003e-05 0)
(42.6741 -8.46317e-05 0)
(42.6726 -8.46543e-05 0)
(42.671 -8.46638e-05 0)
(42.6691 -8.46547e-05 0)
(42.667 -8.46195e-05 0)
(42.6648 -8.4549e-05 0)
(42.6624 -8.44323e-05 0)
(42.66 -8.42559e-05 0)
(42.6575 -8.40042e-05 0)
(42.6549 -8.36592e-05 0)
(42.6524 -8.32003e-05 0)
(42.6499 -8.26057e-05 0)
(42.6474 -8.18519e-05 0)
(42.6451 -8.0915e-05 0)
(42.6428 -7.97719e-05 0)
(42.6407 -7.84006e-05 0)
(42.6386 -7.67826e-05 0)
(42.6368 -7.49032e-05 0)
(42.635 -7.27532e-05 0)
(42.6333 -7.03301e-05 0)
(42.6318 -6.76381e-05 0)
(42.6303 -6.46895e-05 0)
(42.6289 -6.14962e-05 0)
(42.6274 -5.81283e-05 0)
(42.626 -5.45431e-05 0)
(42.6244 -5.08466e-05 0)
(42.6227 -4.70589e-05 0)
(42.6209 -4.32289e-05 0)
(42.6189 -3.94055e-05 0)
(42.6166 -3.56359e-05 0)
(42.614 -3.19646e-05 0)
(42.611 -2.84319e-05 0)
(42.6077 -2.50729e-05 0)
(42.6039 -2.19167e-05 0)
(42.5998 -1.89853e-05 0)
(42.5951 -1.62935e-05 0)
(42.5901 -1.38499e-05 0)
(42.5845 -1.1656e-05 0)
(42.5785 -9.70829e-06 0)
(42.5721 -7.99769e-06 0)
(42.5652 -6.51144e-06 0)
(42.558 -5.23387e-06 0)
(42.5504 -4.14722e-06 0)
(42.5424 -3.23254e-06 0)
(42.5341 -2.47057e-06 0)
(42.5256 -1.84227e-06 0)
(42.5169 -1.32947e-06 0)
(42.508 -9.14917e-07 0)
(42.4989 -5.8197e-07 0)
(42.4897 -3.15867e-07 0)
(42.4804 -1.05913e-07 0)
(42.471 5.61348e-08 0)
(42.4615 1.76129e-07 0)
(42.4519 2.6802e-07 0)
(42.4422 3.37328e-07 0)
(42.4324 3.88498e-07 0)
(42.4224 4.25343e-07 0)
(42.4122 4.50925e-07 0)
(42.4019 4.67662e-07 0)
(42.3912 4.77456e-07 0)
(42.3802 4.81769e-07 0)
(42.3688 4.81695e-07 0)
(42.357 4.78075e-07 0)
(42.3447 4.7155e-07 0)
(42.3318 4.62615e-07 0)
(42.3183 4.51672e-07 0)
(42.3041 4.3904e-07 0)
(42.2893 4.25001e-07 0)
(42.2736 4.09833e-07 0)
(42.2571 3.93819e-07 0)
(42.2398 3.77243e-07 0)
(42.2217 3.60404e-07 0)
(42.2027 3.43591e-07 0)
(42.1828 3.27107e-07 0)
(42.1621 3.11275e-07 0)
(42.1405 2.96385e-07 0)
(42.1182 2.82723e-07 0)
(42.0951 2.70501e-07 0)
(42.0713 2.59863e-07 0)
(42.0469 2.50897e-07 0)
(42.0218 2.43603e-07 0)
(41.9963 2.37927e-07 0)
(41.9702 2.33738e-07 0)
(41.9438 2.30875e-07 0)
(41.9169 2.29101e-07 0)
(41.8898 2.28155e-07 0)
(41.8623 2.27748e-07 0)
(41.8345 2.27582e-07 0)
(41.8064 2.27352e-07 0)
(41.7779 2.26835e-07 0)
(41.7492 2.25771e-07 0)
(41.7201 2.24005e-07 0)
(41.6907 2.21261e-07 0)
(41.6608 2.17447e-07 0)
(41.6304 2.12402e-07 0)
(41.5995 2.06108e-07 0)
(41.568 1.98467e-07 0)
(41.5359 1.89434e-07 0)
(41.503 1.79019e-07 0)
(41.4695 1.67189e-07 0)
(41.435 1.53961e-07 0)
(41.3997 1.39502e-07 0)
(41.3635 1.23784e-07 0)
(41.3262 1.07089e-07 0)
(41.2878 8.95975e-08 0)
(41.2483 7.16334e-08 0)
(41.2077 5.35928e-08 0)
(41.1659 3.60841e-08 0)
(41.1229 1.9598e-08 0)
(41.0786 4.85955e-09 0)
(41.0332 -8.21356e-09 0)
(40.9867 -2.17468e-08 0)
(40.9391 -3.15166e-08 0)
(40.8904 -4.01436e-08 0)
(40.8408 -4.76482e-08 0)
(40.7904 -5.26891e-08 0)
(40.7392 -5.87499e-08 0)
(40.6874 -6.31695e-08 0)
(40.635 -6.5765e-08 0)
(40.5822 -6.57832e-08 0)
(40.529 -6.45186e-08 0)
(40.4754 -6.12236e-08 0)
(40.4216 -5.80602e-08 0)
(40.3674 -5.39518e-08 0)
(40.3129 -5.10303e-08 0)
(40.2581 -4.77495e-08 0)
(40.2029 -4.67946e-08 0)
(40.1473 -4.59317e-08 0)
(40.0912 -4.84219e-08 0)
(40.0345 -4.99337e-08 0)
(39.9772 -5.54116e-08 0)
(39.9192 -5.7969e-08 0)
(39.8606 -6.68443e-08 0)
(39.8013 -6.92862e-08 0)
(39.7412 -8.1193e-08 0)
(39.6804 -8.15818e-08 0)
(39.6188 -1.00332e-07 0)
(39.5563 -9.52589e-08 0)
(39.4928 -1.31452e-07 0)
(39.4283 -1.00307e-07 0)
(39.3627 -1.86387e-07 0)
(39.2958 -5.35705e-08 0)
(39.2275 -1.85641e-07 0)
(39.1579 7.8328e-07 0)
(39.0869 5.30292e-06 0)
(39.0145 4.08745e-05 0)
(38.9415 0.000288655 0)
(38.873 0.00205349 0)
(38.8462 0.0147324 0)
(38.9477 0.121972 0)
(41.5826 0.501313 0)
(42.6985 -0.000101104 0)
(42.6971 -9.25462e-05 0)
(42.6956 -8.99203e-05 0)
(42.694 -9.08356e-05 0)
(42.6924 -9.15598e-05 0)
(42.6907 -9.19652e-05 0)
(42.6889 -9.22744e-05 0)
(42.6869 -9.25168e-05 0)
(42.6849 -9.27047e-05 0)
(42.6827 -9.28468e-05 0)
(42.6803 -9.2956e-05 0)
(42.6778 -9.304e-05 0)
(42.6751 -9.31053e-05 0)
(42.6723 -9.3156e-05 0)
(42.6693 -9.31953e-05 0)
(42.6662 -9.32258e-05 0)
(42.663 -9.32493e-05 0)
(42.6598 -9.32675e-05 0)
(42.6564 -9.32814e-05 0)
(42.6531 -9.32872e-05 0)
(42.6497 -9.33071e-05 0)
(42.6463 -9.33066e-05 0)
(42.643 -9.33135e-05 0)
(42.6398 -9.33185e-05 0)
(42.6366 -9.33242e-05 0)
(42.6336 -9.33307e-05 0)
(42.6307 -9.33377e-05 0)
(42.628 -9.3347e-05 0)
(42.6254 -9.33579e-05 0)
(42.623 -9.33663e-05 0)
(42.6208 -9.33966e-05 0)
(42.6187 -9.33925e-05 0)
(42.6168 -9.34182e-05 0)
(42.615 -9.34653e-05 0)
(42.6134 -9.34742e-05 0)
(42.6118 -9.35012e-05 0)
(42.6104 -9.3531e-05 0)
(42.6089 -9.35622e-05 0)
(42.6075 -9.35948e-05 0)
(42.6061 -9.36286e-05 0)
(42.6046 -9.36638e-05 0)
(42.6031 -9.37005e-05 0)
(42.6014 -9.3738e-05 0)
(42.5996 -9.37772e-05 0)
(42.5976 -9.38132e-05 0)
(42.5954 -9.38532e-05 0)
(42.5931 -9.38911e-05 0)
(42.5905 -9.39273e-05 0)
(42.5877 -9.39597e-05 0)
(42.5846 -9.3986e-05 0)
(42.5813 -9.40026e-05 0)
(42.5779 -9.40049e-05 0)
(42.5742 -9.39867e-05 0)
(42.5703 -9.39402e-05 0)
(42.5663 -9.38555e-05 0)
(42.5622 -9.37206e-05 0)
(42.5579 -9.35211e-05 0)
(42.5536 -9.32398e-05 0)
(42.5493 -9.2857e-05 0)
(42.545 -9.23504e-05 0)
(42.5407 -9.16959e-05 0)
(42.5365 -9.08678e-05 0)
(42.5324 -8.98397e-05 0)
(42.5284 -8.8586e-05 0)
(42.5246 -8.70825e-05 0)
(42.5209 -8.53083e-05 0)
(42.5174 -8.3247e-05 0)
(42.5141 -8.08878e-05 0)
(42.5109 -7.82271e-05 0)
(42.5079 -7.5269e-05 0)
(42.505 -7.20265e-05 0)
(42.5022 -6.85155e-05 0)
(42.4995 -6.47927e-05 0)
(42.4968 -6.08463e-05 0)
(42.4941 -5.67617e-05 0)
(42.4914 -5.25725e-05 0)
(42.4886 -4.83315e-05 0)
(42.4857 -4.40922e-05 0)
(42.4826 -3.99068e-05 0)
(42.4793 -3.58248e-05 0)
(42.4757 -3.18916e-05 0)
(42.4718 -2.81463e-05 0)
(42.4675 -2.46218e-05 0)
(42.4629 -2.13435e-05 0)
(42.4579 -1.83286e-05 0)
(42.4525 -1.55875e-05 0)
(42.4467 -1.31228e-05 0)
(42.4405 -1.09312e-05 0)
(42.4338 -9.00334e-06 0)
(42.4268 -7.32577e-06 0)
(42.4195 -5.88152e-06 0)
(42.4117 -4.65119e-06 0)
(42.4037 -3.61401e-06 0)
(42.3954 -2.74874e-06 0)
(42.3868 -2.03436e-06 0)
(42.3781 -1.4509e-06 0)
(42.3691 -9.80045e-07 0)
(42.36 -6.04603e-07 0)
(42.3508 -3.1255e-07 0)
(42.3415 -9.29411e-08 0)
(42.3321 9.82684e-08 0)
(42.3226 2.48644e-07 0)
(42.313 3.59877e-07 0)
(42.3034 4.41929e-07 0)
(42.2935 5.02041e-07 0)
(42.2836 5.45459e-07 0)
(42.2734 5.76152e-07 0)
(42.2631 5.97132e-07 0)
(42.2524 6.10711e-07 0)
(42.2414 6.18635e-07 0)
(42.2301 6.22202e-07 0)
(42.2183 6.22387e-07 0)
(42.206 6.199e-07 0)
(42.1931 6.15275e-07 0)
(42.1796 6.08889e-07 0)
(42.1655 6.01037e-07 0)
(42.1506 5.91925e-07 0)
(42.1349 5.8174e-07 0)
(42.1185 5.70653e-07 0)
(42.1012 5.58819e-07 0)
(42.0831 5.46381e-07 0)
(42.0641 5.33493e-07 0)
(42.0442 5.20312e-07 0)
(42.0235 5.07021e-07 0)
(42.002 4.93804e-07 0)
(41.9797 4.80864e-07 0)
(41.9566 4.68364e-07 0)
(41.9328 4.56473e-07 0)
(41.9084 4.45326e-07 0)
(41.8834 4.35013e-07 0)
(41.8578 4.25614e-07 0)
(41.8318 4.17152e-07 0)
(41.8053 4.09619e-07 0)
(41.7785 4.02951e-07 0)
(41.7513 3.97053e-07 0)
(41.7239 3.91781e-07 0)
(41.6961 3.86969e-07 0)
(41.668 3.82436e-07 0)
(41.6396 3.78053e-07 0)
(41.6109 3.73654e-07 0)
(41.5818 3.69115e-07 0)
(41.5523 3.64246e-07 0)
(41.5224 3.58897e-07 0)
(41.4921 3.52968e-07 0)
(41.4612 3.46369e-07 0)
(41.4297 3.39007e-07 0)
(41.3976 3.30764e-07 0)
(41.3648 3.21546e-07 0)
(41.3312 3.11244e-07 0)
(41.2968 2.99759e-07 0)
(41.2615 2.87004e-07 0)
(41.2253 2.7286e-07 0)
(41.188 2.57238e-07 0)
(41.1496 2.40055e-07 0)
(41.1102 2.21203e-07 0)
(41.0696 2.00602e-07 0)
(41.0278 1.78224e-07 0)
(40.9847 1.53988e-07 0)
(40.9405 1.27787e-07 0)
(40.8951 9.90649e-08 0)
(40.8486 7.02173e-08 0)
(40.801 4.63946e-08 0)
(40.7523 2.62288e-08 0)
(40.7028 9.49658e-09 0)
(40.6523 -6.28708e-10 0)
(40.6012 -8.36192e-09 0)
(40.5494 -1.37822e-08 0)
(40.497 -1.73666e-08 0)
(40.4442 -1.93993e-08 0)
(40.391 -2.01223e-08 0)
(40.3374 -1.98574e-08 0)
(40.2836 -1.88407e-08 0)
(40.2294 -1.74314e-08 0)
(40.175 -1.59048e-08 0)
(40.1202 -1.46307e-08 0)
(40.065 -1.3825e-08 0)
(40.0094 -1.36963e-08 0)
(39.9533 -1.42913e-08 0)
(39.8966 -1.56393e-08 0)
(39.8393 -1.76574e-08 0)
(39.7814 -2.02509e-08 0)
(39.7228 -2.33482e-08 0)
(39.6635 -2.6869e-08 0)
(39.6034 -3.09743e-08 0)
(39.5426 -3.53645e-08 0)
(39.481 -4.07322e-08 0)
(39.4185 -4.62225e-08 0)
(39.3551 -5.43586e-08 0)
(39.2906 -6.09373e-08 0)
(39.2249 -7.50209e-08 0)
(39.158 -8.19399e-08 0)
(39.0898 -1.04248e-07 0)
(39.0202 4.45877e-08 0)
(38.9492 7.26753e-07 0)
(38.8768 6.24923e-06 0)
(38.8038 4.44401e-05 0)
(38.7356 0.000322154 0)
(38.7122 0.00254537 0)
(38.8318 0.0363276 0)
(43.4536 0.144136 0)
(34.667 1.18668 -3.20353e-15)
(33.6835 3.4025 6.42422e-15)
(33.3007 5.91579 -1.20447e-14)
(32.9322 8.4565 2.48845e-14)
(32.3497 10.9748 -2.56726e-14)
(31.5426 13.4467 -1.60378e-15)
(30.4549 15.8094 1.62007e-20)
(29.035 17.994 -2.24581e-14)
(27.5357 20.1344 -1.0423e-13)
(26.4931 22.7012 1.02112e-13)
(25.9402 26.0145 -2.53337e-14)
(25.1936 29.6601 -5.19204e-14)
(23.5713 32.5333 2.6718e-14)
(21.015 34.0742 0)
(17.9949 34.647 2.52063e-14)
(14.8521 34.6593 2.53036e-14)
(11.7322 34.2971 -2.54285e-14)
(8.76566 34.1688 2.5547e-14)
(6.13168 35.8347 1.97925e-16)
(3.75029 41.5273 -1.9201e-16)
(35.8422 1.85479 0)
(35.2642 4.53549 0)
(34.8884 7.48956 -1.63134e-15)
(34.4198 10.4297 -3.25915e-15)
(33.7114 13.3363 8.13811e-15)
(32.725 16.2351 1.62609e-14)
(31.3584 19.1039 0)
(29.611 21.7177 9.75202e-15)
(27.9268 23.8841 1.62407e-14)
(26.9123 26.0516 -3.87031e-14)
(26.3358 29.0422 2.55671e-14)
(25.1749 33.0083 1.26976e-14)
(22.5982 36.946 -1.26923e-14)
(19.0471 39.3682 1.26866e-14)
(15.08 40.4714 0)
(11.0258 40.6305 -1.5893e-15)
(7.22605 39.8469 1.59733e-15)
(4.33677 38.4879 -5.63552e-15)
(3.55997 38.1631 -8.02431e-16)
(4.69283 40.8109 0)
(38.4021 1.40337 -4.17506e-17)
(38.3931 2.30085 -2.12172e-14)
(38.49 3.21364 2.155e-14)
(38.6721 4.12563 -2.07154e-14)
(38.8949 5.09947 -2.27249e-14)
(39.1298 6.20307 8.45875e-14)
(39.3584 7.49062 -4.28188e-14)
(39.5337 9.02879 4.14957e-14)
(39.5455 10.8465 -8.43741e-14)
(39.2665 12.8655 1.34573e-15)
(38.7816 14.8507 4.16008e-14)
(38.3455 16.6667 0)
(38.1305 18.4477 -4.17382e-14)
(37.9082 20.4954 4.17715e-14)
(37.3707 22.8738 -3.36714e-16)
(36.3793 25.4878 0)
(34.838 28.248 3.36496e-16)
(32.6186 31.0196 0)
(29.5729 33.5158 0)
(26.2477 35.3434 0)
(42.0034 2.36007 6.43593e-16)
(41.7057 5.4552 -6.45621e-15)
(40.7761 9.13809 -1.29387e-15)
(39.7004 12.9092 2.58431e-15)
(38.7242 16.6271 -2.57383e-15)
(37.7657 20.2826 -3.19546e-19)
(36.677 23.87 -1.01868e-14)
(35.3437 27.357 0)
(33.7244 30.7245 0)
(31.815 33.9594 -5.01786e-15)
(29.6064 37.0375 4.99285e-15)
(27.1151 39.9539 0)
(24.3152 42.6541 -4.94896e-15)
(21.2258 45.0941 4.93374e-15)
(17.8827 47.2362 -4.91864e-15)
(14.3298 49.0569 9.80877e-15)
(10.6152 50.5386 -4.89424e-15)
(6.79808 51.6677 0)
(2.97675 52.4588 -2.43572e-15)
(-0.554713 52.956 0)
(44.726 1.66256 -9.83675e-16)
(45.5626 4.2552 7.5411e-15)
(45.2814 7.35854 5.24651e-15)
(44.5447 10.6044 1.04832e-14)
(43.7979 13.9621 0)
(43.0462 17.4243 0)
(42.1608 20.9606 1.03861e-14)
(41.0415 24.4985 2.58563e-15)
(39.6262 28.0178 -5.14928e-15)
(37.9155 31.4603 2.5646e-15)
(35.8854 34.8069 2.04309e-14)
(33.5605 37.9974 -1.27221e-14)
(30.9254 40.9664 1.26842e-14)
(27.989 43.6641 -2.52969e-15)
(24.7698 46.0538 -1.00991e-14)
(21.299 48.1054 -1.76526e-14)
(17.6169 49.7858 -8.81973e-15)
(13.7742 51.0377 -1.26014e-15)
(9.84338 51.7323 7.25018e-15)
(6.07169 51.5611 3.15982e-16)
(1.07713 55.1329 0)
(1.05656 55.4152 0)
(1.09583 52.7553 0)
(0.987313 52.6791 0)
(0.967288 54.0226 0)
(1.02433 54.7052 0)
(1.05628 54.588 0)
(1.06532 54.3453 0)
(1.058 54.3037 0)
(1.0587 54.3725 0)
(1.06857 54.3768 0)
(1.07568 54.2974 0)
(1.07899 54.202 0)
(1.08015 54.1277 0)
(1.08176 54.0629 0)
(1.08335 53.9874 0)
(1.08428 53.9062 0)
(1.08466 53.8309 0)
(1.08528 53.7592 0)
(1.08601 53.6821 0)
(1.08647 53.5993 0)
(1.08664 53.5138 0)
(1.08624 53.4283 0)
(1.08499 53.3514 0)
(1.08394 53.2849 0)
(1.08389 53.2154 0)
(1.0838 53.1328 0)
(1.08326 53.041 0)
(1.08236 52.9464 0)
(1.08122 52.8499 0)
(1.07996 52.7517 0)
(1.07862 52.6517 0)
(1.07726 52.5504 0)
(1.07589 52.4481 0)
(1.0745 52.3453 0)
(1.07309 52.2423 0)
(1.07163 52.1395 0)
(1.0701 52.0372 0)
(1.06848 51.9354 0)
(1.06674 51.8341 0)
(1.06487 51.7333 0)
(1.06288 51.6327 0)
(1.06077 51.5321 0)
(1.05857 51.4309 0)
(1.0563 51.329 0)
(1.05398 51.2259 0)
(1.05166 51.1214 0)
(1.04937 51.0153 0)
(1.04712 50.9075 0)
(1.04495 50.7978 0)
(1.04287 50.6864 0)
(1.04091 50.5735 0)
(1.03906 50.4591 0)
(1.03733 50.3436 0)
(1.0357 50.2273 0)
(1.03417 50.1104 0)
(1.0327 49.9933 0)
(1.03129 49.8763 0)
(1.02989 49.7595 0)
(1.02849 49.6431 0)
(1.02704 49.5272 0)
(1.02551 49.4119 0)
(1.02388 49.2972 0)
(1.02211 49.183 0)
(1.02016 49.0691 0)
(1.01798 48.9554 0)
(1.01552 48.8417 0)
(1.0127 48.7277 0)
(1.00943 48.6132 0)
(1.0056 48.4976 0)
(1.00109 48.3806 0)
(0.995724 48.2615 0)
(0.989343 48.1393 0)
(0.981742 48.0131 0)
(0.972683 47.8814 0)
(0.961798 47.7439 0)
(0.948168 47.6056 0)
(0.928433 47.4959 0)
(0.899915 47.482 0)
(0.875009 47.5586 0)
(0.859469 47.6082 0)
(0.84732 47.5452 0)
(0.828537 47.3866 0)
(0.803245 47.1907 0)
(0.773135 46.9824 0)
(0.739515 46.7617 0)
(0.703214 46.5267 0)
(0.664891 46.2756 0)
(0.625135 46.0065 0)
(0.584504 45.7185 0)
(0.543533 45.4112 0)
(0.502729 45.0851 0)
(0.462554 44.7405 0)
(0.423411 44.3775 0)
(0.385636 43.9949 0)
(0.349484 43.5894 0)
(0.315127 43.1555 0)
(0.282648 42.6856 0)
(0.252047 42.17 0)
(0.223243 41.5984 0)
(0.196125 40.9604 0)