/*--------------------------------*- C++ -*----------------------------------*\
| =========                 |                                                 |
| \\      /  F ield         | OpenFOAM: The Open Source CFD Toolbox           |
|  \\    /   O peration     | Version:  3.0.x                                 |
|   \\  /    A nd           | Web:      www.OpenFOAM.org                      |
|    \\/     M anipulation  |                                                 |
\*---------------------------------------------------------------------------*/
FoamFile
{
    version     2.0;
    format      ascii;
    class       volVectorField;
    location    "0.09";
    object      U;
}
// * * * * * * * * * * * * * * * * * * * * * * * * * * * * * * * * * * * * * //

dimensions      [0 1 -1 0 0 0 0];

internalField   nonuniform List<vector> 
27600
(
(42.686 0.000288338 0)
(42.6752 0.000241771 0)
(42.6661 0.000238424 0)
(42.6561 0.000240854 0)
(42.6464 0.000242879 0)
(42.6378 0.00024438 0)
(42.6302 0.000244592 0)
(42.6238 0.000243188 0)
(42.6187 0.000239196 0)
(42.615 0.000231795 0)
(42.6129 0.000220302 0)
(42.6124 0.000204454 0)
(42.6136 0.000184546 0)
(42.6165 0.000161514 0)
(42.621 0.000136725 0)
(42.6267 0.000111758 0)
(42.6333 8.81171e-05 0)
(42.6404 6.69847e-05 0)
(42.6475 4.90887e-05 0)
(42.6541 3.4688e-05 0)
(42.6597 2.36451e-05 0)
(42.6641 1.55575e-05 0)
(42.6668 9.88462e-06 0)
(42.6677 6.06818e-06 0)
(42.6667 3.59258e-06 0)
(42.6635 2.04623e-06 0)
(42.658 1.12281e-06 0)
(42.6505 5.7727e-07 0)
(42.6411 2.65605e-07 0)
(42.6301 8.84335e-08 0)
(42.6176 -2.26962e-10 0)
(42.6038 -4.54426e-08 0)
(42.5891 -6.64709e-08 0)
(42.5737 -7.46115e-08 0)
(42.5578 -7.49364e-08 0)
(42.5418 -7.06036e-08 0)
(42.5259 -6.33834e-08 0)
(42.5102 -5.41127e-08 0)
(42.495 -4.34234e-08 0)
(42.4805 -3.17276e-08 0)
(42.4667 -1.94186e-08 0)
(42.4538 -6.49217e-09 0)
(42.4419 8.47908e-09 0)
(42.4309 2.83142e-08 0)
(42.4208 4.56393e-08 0)
(42.4118 6.06004e-08 0)
(42.4037 7.39361e-08 0)
(42.3965 8.58045e-08 0)
(42.3902 9.63313e-08 0)
(42.3847 1.05607e-07 0)
(42.3799 1.13693e-07 0)
(42.3758 1.20724e-07 0)
(42.3722 1.26782e-07 0)
(42.3692 1.31998e-07 0)
(42.3667 1.3645e-07 0)
(42.3646 1.40229e-07 0)
(42.3628 1.43443e-07 0)
(42.3613 1.46148e-07 0)
(42.36 1.48424e-07 0)
(42.359 1.5033e-07 0)
(42.3581 1.51808e-07 0)
(42.3574 1.53128e-07 0)
(42.3568 1.54378e-07 0)
(42.3563 1.55182e-07 0)
(42.3559 1.55829e-07 0)
(42.3556 1.56369e-07 0)
(42.3553 1.56828e-07 0)
(42.355 1.57169e-07 0)
(42.3548 1.57437e-07 0)
(42.3546 1.5763e-07 0)
(42.3545 1.57869e-07 0)
(42.3543 1.57937e-07 0)
(42.3542 1.58041e-07 0)
(42.3541 1.58118e-07 0)
(42.354 1.58174e-07 0)
(42.3539 1.58254e-07 0)
(42.3538 1.58226e-07 0)
(42.3537 1.58289e-07 0)
(42.3537 1.58273e-07 0)
(42.3536 1.58261e-07 0)
(42.3536 1.58307e-07 0)
(42.3535 1.58324e-07 0)
(42.3535 1.5839e-07 0)
(42.3534 1.58358e-07 0)
(42.3534 1.58389e-07 0)
(42.3533 1.58453e-07 0)
(42.3533 1.58456e-07 0)
(42.3533 1.58497e-07 0)
(42.3532 1.58486e-07 0)
(42.3532 1.58535e-07 0)
(42.3532 1.58583e-07 0)
(42.3532 1.5858e-07 0)
(42.3531 1.5864e-07 0)
(42.3531 1.58689e-07 0)
(42.3531 1.58751e-07 0)
(42.3531 1.58811e-07 0)
(42.353 1.58869e-07 0)
(42.353 1.58968e-07 0)
(42.353 1.59045e-07 0)
(42.3529 1.59204e-07 0)
(42.3528 1.59298e-07 0)
(42.3527 1.59523e-07 0)
(42.3526 1.59761e-07 0)
(42.3524 1.60077e-07 0)
(42.3522 1.60476e-07 0)
(42.3519 1.60957e-07 0)
(42.3514 1.61583e-07 0)
(42.3509 1.62372e-07 0)
(42.3502 1.63366e-07 0)
(42.3492 1.64635e-07 0)
(42.3481 1.66119e-07 0)
(42.3466 1.67952e-07 0)
(42.3447 1.70165e-07 0)
(42.3424 1.72819e-07 0)
(42.3395 1.75966e-07 0)
(42.3359 1.79643e-07 0)
(42.3317 1.83895e-07 0)
(42.3266 1.88738e-07 0)
(42.3205 1.9415e-07 0)
(42.3133 2.00099e-07 0)
(42.305 2.06499e-07 0)
(42.2955 2.13223e-07 0)
(42.2847 2.20065e-07 0)
(42.2725 2.26826e-07 0)
(42.259 2.33196e-07 0)
(42.2442 2.38869e-07 0)
(42.2283 2.43446e-07 0)
(42.2113 2.46561e-07 0)
(42.1934 2.47812e-07 0)
(42.175 2.46824e-07 0)
(42.1563 2.43258e-07 0)
(42.1377 2.36861e-07 0)
(42.1196 2.27475e-07 0)
(42.1024 2.15096e-07 0)
(42.0865 1.99875e-07 0)
(42.0724 1.82219e-07 0)
(42.0604 1.62375e-07 0)
(42.0508 1.3983e-07 0)
(42.0441 1.13743e-07 0)
(42.0402 8.31466e-08 0)
(42.0394 5.60664e-08 0)
(42.0413 2.45803e-08 0)
(42.0459 -1.66703e-08 0)
(42.0533 -3.87322e-08 0)
(42.0633 -5.73492e-08 0)
(42.0755 -7.33454e-08 0)
(42.0894 -8.50729e-08 0)
(42.1047 -9.23156e-08 0)
(42.1208 -9.53135e-08 0)
(42.1372 -9.48178e-08 0)
(42.1535 -8.98232e-08 0)
(42.1693 -8.10805e-08 0)
(42.1842 -7.04915e-08 0)
(42.1979 -5.71329e-08 0)
(42.2103 -4.2535e-08 0)
(42.2211 -2.70549e-08 0)
(42.2304 -7.56688e-09 0)
(42.2381 1.28216e-08 0)
(42.2443 2.80754e-08 0)
(42.2491 4.21576e-08 0)
(42.2526 5.53531e-08 0)
(42.255 6.71485e-08 0)
(42.2564 7.68199e-08 0)
(42.2571 8.52661e-08 0)
(42.2572 9.06532e-08 0)
(42.2568 9.67284e-08 0)
(42.2561 1.01244e-07 0)
(42.2552 1.04464e-07 0)
(42.2541 1.06762e-07 0)
(42.2529 1.08137e-07 0)
(42.2518 1.09014e-07 0)
(42.2507 1.0945e-07 0)
(42.2496 1.09297e-07 0)
(42.2486 1.09073e-07 0)
(42.2477 1.08748e-07 0)
(42.247 1.08267e-07 0)
(42.2463 1.07788e-07 0)
(42.2456 1.07374e-07 0)
(42.2451 1.07082e-07 0)
(42.2446 1.06703e-07 0)
(42.2442 1.0648e-07 0)
(42.2438 1.06371e-07 0)
(42.2434 1.06244e-07 0)
(42.243 1.06267e-07 0)
(42.2426 1.06453e-07 0)
(42.2422 1.06752e-07 0)
(42.2417 1.07253e-07 0)
(42.2411 1.08166e-07 0)
(42.2403 1.10399e-07 0)
(42.2394 1.17996e-07 0)
(42.2382 1.51862e-07 0)
(42.2367 3.22513e-07 0)
(42.2348 1.16772e-06 0)
(42.2321 5.41445e-06 0)
(42.2277 2.65076e-05 0)
(42.2169 0.000131011 0)
(42.1782 0.000638429 0)
(42.0096 0.00301989 0)
(41.5404 0.0151007 0)
(37.0101 0.0547204 0)
(42.7012 0.000463263 0)
(42.7057 0.000330517 0)
(42.7117 0.000313138 0)
(42.717 0.00031069 0)
(42.7225 0.00030809 0)
(42.729 0.000305677 0)
(42.7366 0.000302217 0)
(42.7452 0.000297395 0)
(42.7548 0.000289856 0)
(42.7654 0.000278618 0)
(42.777 0.000262874 0)
(42.7894 0.000242344 0)
(42.8023 0.000217395 0)
(42.8156 0.000189171 0)
(42.829 0.000159274 0)
(42.8421 0.000129526 0)
(42.8546 0.000101636 0)
(42.8662 7.6913e-05 0)
(42.8767 5.61257e-05 0)
(42.8857 3.95059e-05 0)
(42.8931 2.68338e-05 0)
(42.8986 1.7601e-05 0)
(42.902 1.11538e-05 0)
(42.9034 6.8348e-06 0)
(42.9026 4.0376e-06 0)
(42.8995 2.29431e-06 0)
(42.8941 1.26426e-06 0)
(42.8866 6.52479e-07 0)
(42.8773 3.0108e-07 0)
(42.8662 1.04127e-07 0)
(42.8537 3.79237e-09 0)
(42.8399 -5.55769e-08 0)
(42.8252 -8.72035e-08 0)
(42.8098 -1.02722e-07 0)
(42.7939 -1.0767e-07 0)
(42.7779 -1.05765e-07 0)
(42.7619 -9.92065e-08 0)
(42.7463 -8.93333e-08 0)
(42.7311 -7.68343e-08 0)
(42.7165 -6.22889e-08 0)
(42.7028 -4.63462e-08 0)
(42.6898 -2.95404e-08 0)
(42.6779 -1.19562e-08 0)
(42.6668 7.10254e-09 0)
(42.6568 2.79253e-08 0)
(42.6478 4.77249e-08 0)
(42.6397 6.62004e-08 0)
(42.6325 8.31286e-08 0)
(42.6262 9.84769e-08 0)
(42.6206 1.12264e-07 0)
(42.6159 1.24535e-07 0)
(42.6117 1.35364e-07 0)
(42.6082 1.44844e-07 0)
(42.6052 1.53092e-07 0)
(42.6026 1.60191e-07 0)
(42.6005 1.66272e-07 0)
(42.5987 1.71465e-07 0)
(42.5972 1.75831e-07 0)
(42.5959 1.79504e-07 0)
(42.5949 1.82567e-07 0)
(42.594 1.84902e-07 0)
(42.5933 1.87014e-07 0)
(42.5927 1.89004e-07 0)
(42.5922 1.90175e-07 0)
(42.5918 1.91123e-07 0)
(42.5915 1.91922e-07 0)
(42.5912 1.92562e-07 0)
(42.5909 1.93018e-07 0)
(42.5907 1.9333e-07 0)
(42.5905 1.93521e-07 0)
(42.5903 1.93835e-07 0)
(42.5902 1.93813e-07 0)
(42.5901 1.93847e-07 0)
(42.59 1.93852e-07 0)
(42.5899 1.93825e-07 0)
(42.5898 1.93847e-07 0)
(42.5897 1.93649e-07 0)
(42.5896 1.93659e-07 0)
(42.5895 1.93641e-07 0)
(42.5895 1.93495e-07 0)
(42.5894 1.93453e-07 0)
(42.5893 1.93351e-07 0)
(42.5893 1.93333e-07 0)
(42.5892 1.93174e-07 0)
(42.5892 1.93112e-07 0)
(42.5892 1.9313e-07 0)
(42.5891 1.93011e-07 0)
(42.5891 1.92985e-07 0)
(42.5891 1.92838e-07 0)
(42.589 1.92818e-07 0)
(42.589 1.92805e-07 0)
(42.589 1.92652e-07 0)
(42.5889 1.92665e-07 0)
(42.5889 1.92647e-07 0)
(42.5889 1.92646e-07 0)
(42.5889 1.92661e-07 0)
(42.5888 1.92668e-07 0)
(42.5888 1.92741e-07 0)
(42.5887 1.92788e-07 0)
(42.5887 1.93019e-07 0)
(42.5886 1.93136e-07 0)
(42.5885 1.93488e-07 0)
(42.5884 1.93888e-07 0)
(42.5882 1.94436e-07 0)
(42.5879 1.95174e-07 0)
(42.5876 1.96139e-07 0)
(42.5872 1.9739e-07 0)
(42.5866 1.98983e-07 0)
(42.5859 2.00995e-07 0)
(42.585 2.03511e-07 0)
(42.5838 2.06627e-07 0)
(42.5823 2.10461e-07 0)
(42.5804 2.151e-07 0)
(42.5781 2.20682e-07 0)
(42.5752 2.27294e-07 0)
(42.5717 2.35036e-07 0)
(42.5674 2.43954e-07 0)
(42.5623 2.54099e-07 0)
(42.5562 2.65433e-07 0)
(42.5491 2.77885e-07 0)
(42.5408 2.91299e-07 0)
(42.5312 3.05428e-07 0)
(42.5204 3.1992e-07 0)
(42.5082 3.34339e-07 0)
(42.4947 3.48158e-07 0)
(42.48 3.60742e-07 0)
(42.464 3.71417e-07 0)
(42.447 3.79424e-07 0)
(42.4292 3.84024e-07 0)
(42.4107 3.84508e-07 0)
(42.392 3.80237e-07 0)
(42.3734 3.70682e-07 0)
(42.3553 3.55502e-07 0)
(42.3381 3.34565e-07 0)
(42.3222 3.08072e-07 0)
(42.3081 2.76515e-07 0)
(42.2961 2.40354e-07 0)
(42.2865 1.99469e-07 0)
(42.2797 1.5363e-07 0)
(42.2759 1.02797e-07 0)
(42.275 6.3031e-08 0)
(42.2769 1.35782e-08 0)
(42.2816 -4.63352e-08 0)
(42.289 -8.24119e-08 0)
(42.2989 -1.14774e-07 0)
(42.3111 -1.42227e-07 0)
(42.325 -1.61635e-07 0)
(42.3403 -1.73674e-07 0)
(42.3563 -1.78256e-07 0)
(42.3727 -1.76174e-07 0)
(42.389 -1.66141e-07 0)
(42.4048 -1.50106e-07 0)
(42.4197 -1.30591e-07 0)
(42.4334 -1.05725e-07 0)
(42.4458 -7.8605e-08 0)
(42.4566 -4.99136e-08 0)
(42.4659 -1.60728e-08 0)
(42.4736 1.71081e-08 0)
(42.4797 4.26315e-08 0)
(42.4845 6.55731e-08 0)
(42.488 8.70005e-08 0)
(42.4904 1.05812e-07 0)
(42.4918 1.20983e-07 0)
(42.4925 1.33829e-07 0)
(42.4926 1.41002e-07 0)
(42.4922 1.49958e-07 0)
(42.4915 1.56103e-07 0)
(42.4906 1.59987e-07 0)
(42.4895 1.62226e-07 0)
(42.4883 1.62895e-07 0)
(42.4871 1.62794e-07 0)
(42.486 1.62094e-07 0)
(42.4849 1.60576e-07 0)
(42.484 1.58923e-07 0)
(42.4831 1.57171e-07 0)
(42.4823 1.55309e-07 0)
(42.4816 1.53586e-07 0)
(42.481 1.5201e-07 0)
(42.4804 1.50687e-07 0)
(42.4799 1.49343e-07 0)
(42.4795 1.48312e-07 0)
(42.4791 1.47557e-07 0)
(42.4787 1.46844e-07 0)
(42.4783 1.46494e-07 0)
(42.4779 1.46397e-07 0)
(42.4775 1.46637e-07 0)
(42.477 1.47378e-07 0)
(42.4764 1.49303e-07 0)
(42.4756 1.55283e-07 0)
(42.4747 1.7914e-07 0)
(42.4735 2.8909e-07 0)
(42.472 8.32961e-07 0)
(42.47 3.50014e-06 0)
(42.4673 1.68701e-05 0)
(42.463 8.32826e-05 0)
(42.4521 0.000412329 0)
(42.4133 0.00201002 0)
(42.2443 0.00948185 0)
(41.7708 0.0466219 0)
(37.3409 0.160101 0)
(42.7012 0.000369417 0)
(42.7057 0.000239545 0)
(42.7118 0.000231183 0)
(42.717 0.000235426 0)
(42.7226 0.000236571 0)
(42.7292 0.000237091 0)
(42.7368 0.000236443 0)
(42.7454 0.000234498 0)
(42.7551 0.000230139 0)
(42.7658 0.00022257 0)
(42.7774 0.000211114 0)
(42.7898 0.000195522 0)
(42.8028 0.000176079 0)
(42.8161 0.00015373 0)
(42.8294 0.000129801 0)
(42.8425 0.000105813 0)
(42.855 8.32037e-05 0)
(42.8666 6.30808e-05 0)
(42.8771 4.61082e-05 0)
(42.8861 3.25027e-05 0)
(42.8934 2.21069e-05 0)
(42.8988 1.4518e-05 0)
(42.9023 9.20906e-06 0)
(42.9036 5.64749e-06 0)
(42.9029 3.33511e-06 0)
(42.8998 1.89203e-06 0)
(42.8944 1.04013e-06 0)
(42.8869 5.32968e-07 0)
(42.8775 2.42927e-07 0)
(42.8665 8.49815e-08 0)
(42.854 1.27881e-10 0)
(42.8402 -4.95926e-08 0)
(42.8255 -7.68746e-08 0)
(42.81 -9.01285e-08 0)
(42.7942 -9.4243e-08 0)
(42.7782 -9.23982e-08 0)
(42.7622 -8.6553e-08 0)
(42.7465 -7.78139e-08 0)
(42.7314 -6.66562e-08 0)
(42.7168 -5.3559e-08 0)
(42.703 -3.93476e-08 0)
(42.6901 -2.45104e-08 0)
(42.6781 -1.06691e-08 0)
(42.6671 -4.57663e-10 0)
(42.6571 1.32273e-08 0)
(42.648 2.76854e-08 0)
(42.6399 4.1903e-08 0)
(42.6328 5.53852e-08 0)
(42.6264 6.79956e-08 0)
(42.6209 7.9619e-08 0)
(42.6161 9.02027e-08 0)
(42.612 9.97141e-08 0)
(42.6085 1.08199e-07 0)
(42.6054 1.15663e-07 0)
(42.6029 1.22169e-07 0)
(42.6007 1.27778e-07 0)
(42.5989 1.32582e-07 0)
(42.5974 1.36664e-07 0)
(42.5962 1.4009e-07 0)
(42.5951 1.42929e-07 0)
(42.5943 1.45111e-07 0)
(42.5936 1.47072e-07 0)
(42.593 1.48901e-07 0)
(42.5925 1.49977e-07 0)
(42.5921 1.50857e-07 0)
(42.5917 1.51606e-07 0)
(42.5914 1.522e-07 0)
(42.5912 1.52608e-07 0)
(42.591 1.529e-07 0)
(42.5908 1.53087e-07 0)
(42.5906 1.53358e-07 0)
(42.5905 1.53335e-07 0)
(42.5903 1.53386e-07 0)
(42.5902 1.53391e-07 0)
(42.5901 1.53367e-07 0)
(42.59 1.53406e-07 0)
(42.5899 1.53223e-07 0)
(42.5899 1.53239e-07 0)
(42.5898 1.53215e-07 0)
(42.5897 1.53064e-07 0)
(42.5897 1.53037e-07 0)
(42.5896 1.52947e-07 0)
(42.5896 1.52965e-07 0)
(42.5895 1.52833e-07 0)
(42.5895 1.52795e-07 0)
(42.5894 1.5282e-07 0)
(42.5894 1.52742e-07 0)
(42.5894 1.52736e-07 0)
(42.5893 1.52616e-07 0)
(42.5893 1.52627e-07 0)
(42.5893 1.52651e-07 0)
(42.5892 1.52554e-07 0)
(42.5892 1.52596e-07 0)
(42.5892 1.52611e-07 0)
(42.5892 1.52631e-07 0)
(42.5891 1.52669e-07 0)
(42.5891 1.52713e-07 0)
(42.5891 1.52815e-07 0)
(42.589 1.52886e-07 0)
(42.5889 1.53141e-07 0)
(42.5889 1.53265e-07 0)
(42.5888 1.53625e-07 0)
(42.5886 1.54031e-07 0)
(42.5884 1.54568e-07 0)
(42.5882 1.55283e-07 0)
(42.5879 1.56182e-07 0)
(42.5875 1.57336e-07 0)
(42.5869 1.58825e-07 0)
(42.5862 1.60668e-07 0)
(42.5853 1.62972e-07 0)
(42.5841 1.65801e-07 0)
(42.5826 1.69248e-07 0)
(42.5807 1.73392e-07 0)
(42.5784 1.78313e-07 0)
(42.5755 1.84079e-07 0)
(42.572 1.9073e-07 0)
(42.5677 1.98306e-07 0)
(42.5626 2.06823e-07 0)
(42.5565 2.16204e-07 0)
(42.5493 2.26328e-07 0)
(42.541 2.37051e-07 0)
(42.5315 2.48113e-07 0)
(42.5207 2.59178e-07 0)
(42.5085 2.69863e-07 0)
(42.495 2.79686e-07 0)
(42.4802 2.88097e-07 0)
(42.4643 2.94535e-07 0)
(42.4473 2.98368e-07 0)
(42.4294 2.99e-07 0)
(42.411 2.95855e-07 0)
(42.3923 2.8846e-07 0)
(42.3737 2.76425e-07 0)
(42.3556 2.59545e-07 0)
(42.3384 2.37762e-07 0)
(42.3225 2.11259e-07 0)
(42.3083 1.80411e-07 0)
(42.2963 1.45843e-07 0)
(42.2868 1.08417e-07 0)
(42.28 6.9361e-08 0)
(42.2762 3.04052e-08 0)
(42.2753 7.17059e-09 0)
(42.2772 -2.6017e-08 0)
(42.2818 -6.48652e-08 0)
(42.2892 -9.2311e-08 0)
(42.2992 -1.16265e-07 0)
(42.3114 -1.35875e-07 0)
(42.3253 -1.4855e-07 0)
(42.3405 -1.53781e-07 0)
(42.3566 -1.52979e-07 0)
(42.373 -1.46748e-07 0)
(42.3893 -1.33936e-07 0)
(42.4051 -1.1616e-07 0)
(42.42 -9.59545e-08 0)
(42.4337 -7.21238e-08 0)
(42.446 -4.67096e-08 0)
(42.4569 -2.1391e-08 0)
(42.4661 2.7334e-09 0)
(42.4738 2.38715e-08 0)
(42.48 4.60625e-08 0)
(42.4848 6.55553e-08 0)
(42.4883 8.29953e-08 0)
(42.4907 9.78416e-08 0)
(42.4921 1.0934e-07 0)
(42.4928 1.18722e-07 0)
(42.4928 1.22851e-07 0)
(42.4925 1.28951e-07 0)
(42.4918 1.32565e-07 0)
(42.4908 1.34118e-07 0)
(42.4897 1.344e-07 0)
(42.4886 1.33535e-07 0)
(42.4874 1.32088e-07 0)
(42.4863 1.3019e-07 0)
(42.4852 1.27776e-07 0)
(42.4842 1.2545e-07 0)
(42.4833 1.23174e-07 0)
(42.4826 1.20904e-07 0)
(42.4819 1.18858e-07 0)
(42.4812 1.17069e-07 0)
(42.4807 1.15599e-07 0)
(42.4802 1.14191e-07 0)
(42.4798 1.13109e-07 0)
(42.4794 1.12289e-07 0)
(42.479 1.11563e-07 0)
(42.4786 1.11183e-07 0)
(42.4782 1.11071e-07 0)
(42.4777 1.11303e-07 0)
(42.4772 1.12121e-07 0)
(42.4766 1.14611e-07 0)
(42.4759 1.23773e-07 0)
(42.4749 1.64108e-07 0)
(42.4737 3.5748e-07 0)
(42.4722 1.32476e-06 0)
(42.4703 6.07723e-06 0)
(42.4676 2.98914e-05 0)
(42.4633 0.000148203 0)
(42.4525 0.000734547 0)
(42.4141 0.00358451 0)
(42.247 0.0169064 0)
(41.7818 0.0829578 0)
(37.4402 0.281277 0)
(42.7012 0.00037555 0)
(42.7057 0.000277635 0)
(42.7118 0.000270794 0)
(42.717 0.00027623 0)
(42.7226 0.000276959 0)
(42.7292 0.000276586 0)
(42.7368 0.000274859 0)
(42.7454 0.000271536 0)
(42.755 0.000265475 0)
(42.7658 0.000255822 0)
(42.7774 0.000241865 0)
(42.7898 0.000223364 0)
(42.8028 0.000200668 0)
(42.8161 0.000174844 0)
(42.8294 0.000147384 0)
(42.8425 0.000119986 0)
(42.855 9.42474e-05 0)
(42.8666 7.1392e-05 0)
(42.8771 5.21493e-05 0)
(42.8861 3.67422e-05 0)
(42.8934 2.4983e-05 0)
(42.8988 1.64057e-05 0)
(42.9023 1.04098e-05 0)
(42.9036 6.38971e-06 0)
(42.9029 3.78211e-06 0)
(42.8998 2.1556e-06 0)
(42.8944 1.19079e-06 0)
(42.8869 6.1814e-07 0)
(42.8775 2.91518e-07 0)
(42.8665 1.0825e-07 0)
(42.854 1.0374e-08 0)
(42.8402 -4.14629e-08 0)
(42.8255 -6.91933e-08 0)
(42.81 -8.24063e-08 0)
(42.7942 -8.62328e-08 0)
(42.7782 -8.41148e-08 0)
(42.7622 -7.79423e-08 0)
(42.7465 -6.88306e-08 0)
(42.7314 -5.76056e-08 0)
(42.7168 -4.43493e-08 0)
(42.703 -2.97703e-08 0)
(42.6901 -1.4495e-08 0)
(42.6781 1.72162e-09 0)
(42.6671 1.90259e-08 0)
(42.6571 3.47882e-08 0)
(42.648 4.99016e-08 0)
(42.6399 6.43046e-08 0)
(42.6328 7.78362e-08 0)
(42.6264 9.04165e-08 0)
(42.6209 1.01982e-07 0)
(42.6161 1.12467e-07 0)
(42.612 1.21903e-07 0)
(42.6085 1.303e-07 0)
(42.6054 1.37692e-07 0)
(42.6029 1.44123e-07 0)
(42.6007 1.49687e-07 0)
(42.5989 1.54473e-07 0)
(42.5974 1.58531e-07 0)
(42.5962 1.61957e-07 0)
(42.5951 1.64818e-07 0)
(42.5943 1.67047e-07 0)
(42.5936 1.69053e-07 0)
(42.593 1.70931e-07 0)
(42.5925 1.72074e-07 0)
(42.5921 1.73006e-07 0)
(42.5917 1.73807e-07 0)
(42.5914 1.74463e-07 0)
(42.5912 1.74954e-07 0)
(42.591 1.75311e-07 0)
(42.5908 1.75578e-07 0)
(42.5906 1.75922e-07 0)
(42.5905 1.75979e-07 0)
(42.5903 1.76088e-07 0)
(42.5902 1.76162e-07 0)
(42.5901 1.76218e-07 0)
(42.59 1.76325e-07 0)
(42.5899 1.76212e-07 0)
(42.5899 1.76291e-07 0)
(42.5898 1.76333e-07 0)
(42.5897 1.76264e-07 0)
(42.5897 1.76295e-07 0)
(42.5896 1.7628e-07 0)
(42.5896 1.76337e-07 0)
(42.5895 1.76247e-07 0)
(42.5895 1.76253e-07 0)
(42.5894 1.7633e-07 0)
(42.5894 1.76291e-07 0)
(42.5894 1.76325e-07 0)
(42.5893 1.76249e-07 0)
(42.5893 1.76288e-07 0)
(42.5893 1.76328e-07 0)
(42.5892 1.76263e-07 0)
(42.5892 1.76314e-07 0)
(42.5892 1.76354e-07 0)
(42.5892 1.76405e-07 0)
(42.5891 1.76461e-07 0)
(42.5891 1.76518e-07 0)
(42.5891 1.76625e-07 0)
(42.589 1.76718e-07 0)
(42.5889 1.76984e-07 0)
(42.5889 1.77116e-07 0)
(42.5888 1.77479e-07 0)
(42.5886 1.77893e-07 0)
(42.5884 1.7842e-07 0)
(42.5882 1.79123e-07 0)
(42.5879 1.80007e-07 0)
(42.5875 1.81157e-07 0)
(42.5869 1.82596e-07 0)
(42.5862 1.84411e-07 0)
(42.5853 1.86647e-07 0)
(42.5841 1.89414e-07 0)
(42.5826 1.92772e-07 0)
(42.5807 1.96804e-07 0)
(42.5784 2.016e-07 0)
(42.5755 2.07234e-07 0)
(42.572 2.13751e-07 0)
(42.5677 2.21185e-07 0)
(42.5626 2.29559e-07 0)
(42.5565 2.388e-07 0)
(42.5493 2.48817e-07 0)
(42.541 2.5948e-07 0)
(42.5315 2.70559e-07 0)
(42.5207 2.8173e-07 0)
(42.5085 2.92658e-07 0)
(42.495 3.02857e-07 0)
(42.4802 3.11853e-07 0)
(42.4643 3.19066e-07 0)
(42.4473 3.23915e-07 0)
(42.4294 3.25793e-07 0)
(42.411 3.24159e-07 0)
(42.3923 3.18532e-07 0)
(42.3737 3.0851e-07 0)
(42.3556 2.93848e-07 0)
(42.3384 2.74479e-07 0)
(42.3225 2.50533e-07 0)
(42.3083 2.22366e-07 0)
(42.2963 1.90547e-07 0)
(42.2868 1.55877e-07 0)
(42.28 1.19345e-07 0)
(42.2762 8.22895e-08 0)
(42.2753 5.89502e-08 0)
(42.2772 2.48603e-08 0)
(42.2818 -2.1937e-08 0)
(42.2892 -5.21998e-08 0)
(42.2992 -7.79035e-08 0)
(42.3114 -9.91734e-08 0)
(42.3253 -1.13782e-07 0)
(42.3405 -1.21931e-07 0)
(42.3566 -1.23996e-07 0)
(42.373 -1.20695e-07 0)
(42.3893 -1.1131e-07 0)
(42.4051 -9.71846e-08 0)
(42.42 -8.05752e-08 0)
(42.4337 -6.03136e-08 0)
(42.446 -3.87056e-08 0)
(42.4569 -1.73872e-08 0)
(42.4661 2.49362e-09 0)
(42.4738 2.2671e-08 0)
(42.48 4.43012e-08 0)
(42.4848 6.32867e-08 0)
(42.4883 8.04617e-08 0)
(42.4907 9.52077e-08 0)
(42.4921 1.06947e-07 0)
(42.4928 1.16646e-07 0)
(42.4928 1.21534e-07 0)
(42.4925 1.28292e-07 0)
(42.4918 1.32777e-07 0)
(42.4908 1.35284e-07 0)
(42.4897 1.36624e-07 0)
(42.4886 1.36784e-07 0)
(42.4874 1.36362e-07 0)
(42.4863 1.35567e-07 0)
(42.4852 1.34208e-07 0)
(42.4842 1.32826e-07 0)
(42.4833 1.31461e-07 0)
(42.4826 1.30068e-07 0)
(42.4819 1.28838e-07 0)
(42.4812 1.27796e-07 0)
(42.4807 1.27015e-07 0)
(42.4802 1.2625e-07 0)
(42.4798 1.25721e-07 0)
(42.4794 1.25459e-07 0)
(42.479 1.25268e-07 0)
(42.4786 1.2535e-07 0)
(42.4782 1.25679e-07 0)
(42.4777 1.2632e-07 0)
(42.4772 1.27638e-07 0)
(42.4766 1.31167e-07 0)
(42.4759 1.44229e-07 0)
(42.4749 2.03083e-07 0)
(42.4737 4.89281e-07 0)
(42.4722 1.93371e-06 0)
(42.4703 9.05018e-06 0)
(42.4676 4.4717e-05 0)
(42.4633 0.000221928 0)
(42.4526 0.00110041 0)
(42.4143 0.00537467 0)
(42.2484 0.0253393 0)
(41.7866 0.124197 0)
(37.5434 0.41626 0)
(42.7012 0.000352244 0)
(42.7057 0.000252947 0)
(42.7118 0.000233756 0)
(42.717 0.00023528 0)
(42.7225 0.000233746 0)
(42.7291 0.000232186 0)
(42.7368 0.000230195 0)
(42.7454 0.000227281 0)
(42.755 0.000222294 0)
(42.7657 0.000214418 0)
(42.7774 0.000202978 0)
(42.7898 0.000187714 0)
(42.8028 0.000168878 0)
(42.816 0.000147348 0)
(42.8294 0.000124371 0)
(42.8425 0.000101378 0)
(42.855 7.97247e-05 0)
(42.8666 6.04586e-05 0)
(42.8771 4.421e-05 0)
(42.8861 3.1178e-05 0)
(42.8934 2.12183e-05 0)
(42.8988 1.3943e-05 0)
(42.9023 8.84958e-06 0)
(42.9036 5.43017e-06 0)
(42.9029 3.2073e-06 0)
(42.8998 1.82005e-06 0)
(42.8944 9.99041e-07 0)
(42.8869 5.12468e-07 0)
(42.8775 2.34589e-07 0)
(42.8665 7.83858e-08 0)
(42.854 -3.21712e-09 0)
(42.8402 -5.10709e-08 0)
(42.8255 -7.69581e-08 0)
(42.81 -8.95645e-08 0)
(42.7942 -9.3445e-08 0)
(42.7782 -9.16999e-08 0)
(42.7622 -8.61901e-08 0)
(42.7465 -7.78838e-08 0)
(42.7314 -6.73732e-08 0)
(42.7168 -5.51312e-08 0)
(42.703 -4.17742e-08 0)
(42.6901 -2.7533e-08 0)
(42.6781 -1.29702e-08 0)
(42.6671 1.96663e-09 0)
(42.6571 1.66873e-08 0)
(42.648 3.09525e-08 0)
(42.6399 4.45732e-08 0)
(42.6328 5.73519e-08 0)
(42.6264 6.92345e-08 0)
(42.6209 8.01613e-08 0)
(42.6161 9.00717e-08 0)
(42.612 9.89517e-08 0)
(42.6085 1.06842e-07 0)
(42.6054 1.13768e-07 0)
(42.6029 1.198e-07 0)
(42.6007 1.24993e-07 0)
(42.5989 1.29431e-07 0)
(42.5974 1.33193e-07 0)
(42.5962 1.36342e-07 0)
(42.5951 1.38949e-07 0)
(42.5943 1.40946e-07 0)
(42.5936 1.42725e-07 0)
(42.593 1.44395e-07 0)
(42.5925 1.45368e-07 0)
(42.5921 1.4615e-07 0)
(42.5917 1.46806e-07 0)
(42.5914 1.47326e-07 0)
(42.5912 1.47682e-07 0)
(42.591 1.47928e-07 0)
(42.5908 1.48073e-07 0)
(42.5906 1.48284e-07 0)
(42.5905 1.48235e-07 0)
(42.5903 1.48247e-07 0)
(42.5902 1.48223e-07 0)
(42.5901 1.48174e-07 0)
(42.59 1.48174e-07 0)
(42.5899 1.47989e-07 0)
(42.5899 1.47968e-07 0)
(42.5898 1.47914e-07 0)
(42.5897 1.47761e-07 0)
(42.5897 1.47699e-07 0)
(42.5896 1.47604e-07 0)
(42.5896 1.47571e-07 0)
(42.5895 1.47416e-07 0)
(42.5895 1.47355e-07 0)
(42.5894 1.47351e-07 0)
(42.5894 1.47236e-07 0)
(42.5894 1.47212e-07 0)
(42.5893 1.47066e-07 0)
(42.5893 1.47057e-07 0)
(42.5893 1.47037e-07 0)
(42.5892 1.46925e-07 0)
(42.5892 1.46921e-07 0)
(42.5892 1.4691e-07 0)
(42.5892 1.46906e-07 0)
(42.5891 1.46916e-07 0)
(42.5891 1.46928e-07 0)
(42.5891 1.46996e-07 0)
(42.589 1.47032e-07 0)
(42.5889 1.47231e-07 0)
(42.5889 1.47327e-07 0)
(42.5888 1.47638e-07 0)
(42.5886 1.47991e-07 0)
(42.5884 1.48466e-07 0)
(42.5882 1.491e-07 0)
(42.5879 1.49914e-07 0)
(42.5875 1.50982e-07 0)
(42.5869 1.52326e-07 0)
(42.5862 1.54033e-07 0)
(42.5853 1.56164e-07 0)
(42.5841 1.5878e-07 0)
(42.5826 1.61974e-07 0)
(42.5807 1.65823e-07 0)
(42.5784 1.70397e-07 0)
(42.5755 1.75772e-07 0)
(42.572 1.81987e-07 0)
(42.5677 1.89075e-07 0)
(42.5626 1.97069e-07 0)
(42.5565 2.05901e-07 0)
(42.5493 2.15467e-07 0)
(42.541 2.2564e-07 0)
(42.5315 2.36211e-07 0)
(42.5207 2.46857e-07 0)
(42.5085 2.57244e-07 0)
(42.495 2.66929e-07 0)
(42.4802 2.75437e-07 0)
(42.4643 2.82215e-07 0)
(42.4473 2.86684e-07 0)
(42.4294 2.8829e-07 0)
(42.411 2.86487e-07 0)
(42.3923 2.80809e-07 0)
(42.3737 2.70851e-07 0)
(42.3556 2.56413e-07 0)
(42.3384 2.37385e-07 0)
(42.3225 2.13899e-07 0)
(42.3083 1.8628e-07 0)
(42.2963 1.55057e-07 0)
(42.2868 1.20975e-07 0)
(42.28 8.49292e-08 0)
(42.2762 4.82089e-08 0)
(42.2753 2.40117e-08 0)
(42.2772 -9.6462e-09 0)
(42.2818 -5.51529e-08 0)
(42.2892 -8.34229e-08 0)
(42.2992 -1.07762e-07 0)
(42.3114 -1.28016e-07 0)
(42.3253 -1.41396e-07 0)
(42.3405 -1.48756e-07 0)
(42.3566 -1.50104e-07 0)
(42.373 -1.46343e-07 0)
(42.3893 -1.36508e-07 0)
(42.4051 -1.21959e-07 0)
(42.42 -1.04869e-07 0)
(42.4337 -8.39648e-08 0)
(42.446 -6.12798e-08 0)
(42.4569 -3.81334e-08 0)
(42.4661 -1.43027e-08 0)
(42.4738 1.11654e-08 0)
(42.48 3.25625e-08 0)
(42.4848 5.08433e-08 0)
(42.4883 6.7433e-08 0)
(42.4907 8.17762e-08 0)
(42.4921 9.32716e-08 0)
(42.4928 1.02553e-07 0)
(42.4928 1.07222e-07 0)
(42.4925 1.13645e-07 0)
(42.4918 1.18083e-07 0)
(42.4908 1.20547e-07 0)
(42.4897 1.21739e-07 0)
(42.4886 1.21797e-07 0)
(42.4874 1.21326e-07 0)
(42.4863 1.2047e-07 0)
(42.4852 1.19085e-07 0)
(42.4842 1.176e-07 0)
(42.4833 1.16096e-07 0)
(42.4826 1.14566e-07 0)
(42.4819 1.13218e-07 0)
(42.4812 1.12013e-07 0)
(42.4807 1.11013e-07 0)
(42.4802 1.10012e-07 0)
(42.4798 1.09275e-07 0)
(42.4794 1.088e-07 0)
(42.479 1.08359e-07 0)
(42.4786 1.08152e-07 0)
(42.4782 1.08204e-07 0)
(42.4777 1.08625e-07 0)
(42.4772 1.09879e-07 0)
(42.4766 1.14043e-07 0)
(42.4759 1.31221e-07 0)
(42.4749 2.11731e-07 0)
(42.4737 6.05386e-07 0)
(42.4722 2.59442e-06 0)
(42.4703 1.24017e-05 0)
(42.4676 6.15695e-05 0)
(42.4633 0.000305898 0)
(42.4527 0.00151741 0)
(42.4148 0.0074174 0)
(42.2505 0.0349512 0)
(41.7938 0.170903 0)
(37.6606 0.566129 0)
(42.7012 0.000330805 0)
(42.7057 0.000246105 0)
(42.7117 0.000229832 0)
(42.717 0.000236594 0)
(42.7225 0.000238326 0)
(42.7291 0.000238622 0)
(42.7368 0.000237806 0)
(42.7454 0.000235551 0)
(42.755 0.000230855 0)
(42.7657 0.00022297 0)
(42.7774 0.000211262 0)
(42.7898 0.000195504 0)
(42.8027 0.000175984 0)
(42.816 0.000153627 0)
(42.8294 0.000129737 0)
(42.8424 0.000105808 0)
(42.855 8.32558e-05 0)
(42.8666 6.31741e-05 0)
(42.877 4.62257e-05 0)
(42.8861 3.2621e-05 0)
(42.8934 2.22178e-05 0)
(42.8988 1.46132e-05 0)
(42.9023 9.28613e-06 0)
(42.9036 5.70808e-06 0)
(42.9029 3.38169e-06 0)
(42.8998 1.9302e-06 0)
(42.8944 1.06757e-06 0)
(42.8869 5.55591e-07 0)
(42.8775 2.62433e-07 0)
(42.8665 9.77465e-08 0)
(42.854 1.07856e-08 0)
(42.8402 -3.69045e-08 0)
(42.8255 -6.28029e-08 0)
(42.81 -7.52106e-08 0)
(42.7942 -7.89667e-08 0)
(42.7782 -7.72378e-08 0)
(42.7622 -7.18741e-08 0)
(42.7465 -6.3815e-08 0)
(42.7314 -5.36341e-08 0)
(42.7168 -4.18081e-08 0)
(42.703 -2.88852e-08 0)
(42.6901 -1.51263e-08 0)
(42.6781 -9.59588e-10 0)
(42.6671 1.31807e-08 0)
(42.6571 2.72047e-08 0)
(42.648 4.08046e-08 0)
(42.6399 5.37983e-08 0)
(42.6328 6.60171e-08 0)
(42.6264 7.73883e-08 0)
(42.6209 8.78401e-08 0)
(42.6161 9.73278e-08 0)
(42.612 1.05848e-07 0)
(42.6085 1.13427e-07 0)
(42.6054 1.20097e-07 0)
(42.6029 1.25904e-07 0)
(42.6007 1.30915e-07 0)
(42.5989 1.35213e-07 0)
(42.5974 1.38867e-07 0)
(42.5962 1.41943e-07 0)
(42.5951 1.44499e-07 0)
(42.5943 1.46478e-07 0)
(42.5936 1.48258e-07 0)
(42.593 1.49929e-07 0)
(42.5925 1.50944e-07 0)
(42.5921 1.51758e-07 0)
(42.5917 1.52444e-07 0)
(42.5914 1.53023e-07 0)
(42.5912 1.53433e-07 0)
(42.591 1.53729e-07 0)
(42.5908 1.53951e-07 0)
(42.5906 1.54221e-07 0)
(42.5905 1.54251e-07 0)
(42.5903 1.54331e-07 0)
(42.5902 1.54379e-07 0)
(42.5901 1.54402e-07 0)
(42.59 1.54472e-07 0)
(42.5899 1.54359e-07 0)
(42.5899 1.54409e-07 0)
(42.5898 1.5442e-07 0)
(42.5897 1.54343e-07 0)
(42.5897 1.54351e-07 0)
(42.5896 1.5432e-07 0)
(42.5896 1.54365e-07 0)
(42.5895 1.5426e-07 0)
(42.5895 1.54265e-07 0)
(42.5894 1.54316e-07 0)
(42.5894 1.5427e-07 0)
(42.5894 1.54294e-07 0)
(42.5893 1.54206e-07 0)
(42.5893 1.54237e-07 0)
(42.5893 1.54266e-07 0)
(42.5892 1.54206e-07 0)
(42.5892 1.54246e-07 0)
(42.5892 1.54277e-07 0)
(42.5892 1.54318e-07 0)
(42.5891 1.54361e-07 0)
(42.5891 1.54415e-07 0)
(42.5891 1.54515e-07 0)
(42.589 1.54594e-07 0)
(42.5889 1.54826e-07 0)
(42.5889 1.54951e-07 0)
(42.5888 1.55279e-07 0)
(42.5886 1.55651e-07 0)
(42.5884 1.56139e-07 0)
(42.5882 1.56778e-07 0)
(42.5879 1.57588e-07 0)
(42.5875 1.58635e-07 0)
(42.5869 1.59947e-07 0)
(42.5862 1.61598e-07 0)
(42.5853 1.63647e-07 0)
(42.5841 1.66162e-07 0)
(42.5826 1.69232e-07 0)
(42.5807 1.72911e-07 0)
(42.5784 1.77288e-07 0)
(42.5755 1.82419e-07 0)
(42.572 1.88359e-07 0)
(42.5677 1.95128e-07 0)
(42.5626 2.02746e-07 0)
(42.5565 2.11172e-07 0)
(42.5493 2.20286e-07 0)
(42.541 2.29982e-07 0)
(42.5315 2.40046e-07 0)
(42.5207 2.50189e-07 0)
(42.5085 2.60084e-07 0)
(42.495 2.69309e-07 0)
(42.4802 2.77412e-07 0)
(42.4643 2.83867e-07 0)
(42.4473 2.88139e-07 0)
(42.4294 2.89679e-07 0)
(42.411 2.87982e-07 0)
(42.3923 2.82612e-07 0)
(42.3737 2.73187e-07 0)
(42.3556 2.59498e-07 0)
(42.3384 2.41457e-07 0)
(42.3225 2.19206e-07 0)
(42.3083 1.93037e-07 0)
(42.2963 1.63484e-07 0)
(42.2868 1.31256e-07 0)
(42.28 9.72392e-08 0)
(42.2762 6.27806e-08 0)
(42.2753 4.01898e-08 0)
(42.2772 9.83286e-09 0)
(42.2818 -3.18033e-08 0)
(42.2892 -5.8346e-08 0)
(42.2992 -8.14172e-08 0)
(42.3114 -1.00289e-07 0)
(42.3253 -1.13222e-07 0)
(42.3405 -1.20153e-07 0)
(42.3566 -1.2149e-07 0)
(42.373 -1.17898e-07 0)
(42.3893 -1.08654e-07 0)
(42.4051 -9.49432e-08 0)
(42.42 -7.86926e-08 0)
(42.4337 -5.9123e-08 0)
(42.446 -3.78772e-08 0)
(42.4569 -1.63918e-08 0)
(42.4661 5.01557e-09 0)
(42.4738 2.49919e-08 0)
(42.48 4.45274e-08 0)
(42.4848 6.17404e-08 0)
(42.4883 7.72227e-08 0)
(42.4907 9.05785e-08 0)
(42.4921 1.01087e-07 0)
(42.4928 1.09805e-07 0)
(42.4928 1.14222e-07 0)
(42.4925 1.2008e-07 0)
(42.4918 1.24174e-07 0)
(42.4908 1.2624e-07 0)
(42.4897 1.27293e-07 0)
(42.4886 1.27311e-07 0)
(42.4874 1.26768e-07 0)
(42.4863 1.25835e-07 0)
(42.4852 1.24385e-07 0)
(42.4842 1.2289e-07 0)
(42.4833 1.21411e-07 0)
(42.4826 1.19902e-07 0)
(42.4819 1.18502e-07 0)
(42.4812 1.17269e-07 0)
(42.4807 1.16292e-07 0)
(42.4802 1.15333e-07 0)
(42.4798 1.14584e-07 0)
(42.4794 1.14061e-07 0)
(42.479 1.13604e-07 0)
(42.4786 1.13401e-07 0)
(42.4782 1.13477e-07 0)
(42.4777 1.13921e-07 0)
(42.4772 1.15328e-07 0)
(42.4766 1.20451e-07 0)
(42.4759 1.42615e-07 0)
(42.4749 2.47991e-07 0)
(42.4737 7.64109e-07 0)
(42.4722 3.3728e-06 0)
(42.4703 1.62371e-05 0)
(42.4676 8.07364e-05 0)
(42.4633 0.000401279 0)
(42.4528 0.00199106 0)
(42.4154 0.00973987 0)
(42.2538 0.0458576 0)
(41.8046 0.223495 0)
(37.7997 0.729178 0)
(42.7012 0.000273746 0)
(42.7056 0.000212937 0)
(42.7117 0.000192589 0)
(42.717 0.000196693 0)
(42.7225 0.000195909 0)
(42.7291 0.000193536 0)
(42.7367 0.000190692 0)
(42.7453 0.000187092 0)
(42.755 0.000181911 0)
(42.7657 0.00017455 0)
(42.7773 0.000164501 0)
(42.7897 0.000151566 0)
(42.8027 0.000135944 0)
(42.816 0.000118324 0)
(42.8294 9.96816e-05 0)
(42.8424 8.11325e-05 0)
(42.8549 6.37337e-05 0)
(42.8666 4.82918e-05 0)
(42.877 3.52994e-05 0)
(42.8861 2.48829e-05 0)
(42.8934 1.69337e-05 0)
(42.8988 1.11286e-05 0)