/*--------------------------------*- C++ -*----------------------------------*\
| =========                 |                                                 |
| \\      /  F ield         | OpenFOAM: The Open Source CFD Toolbox           |
|  \\    /   O peration     | Version:  3.0.x                                 |
|   \\  /    A nd           | Web:      www.OpenFOAM.org                      |
|    \\/     M anipulation  |                                                 |
\*---------------------------------------------------------------------------*/
FoamFile
{
    version     2.0;
    format      ascii;
    class       volScalarField;
    location    "0.52";
    object      p;
}
// * * * * * * * * * * * * * * * * * * * * * * * * * * * * * * * * * * * * * //

dimensions      [1 -1 -2 0 0 0 0];

internalField   nonuniform List<scalar> 
6900
(
1.83593e+07
1.83595e+07
1.83599e+07
1.83602e+07
1.83607e+07
1.83611e+07
1.83616e+07
1.83622e+07
1.83628e+07
1.83634e+07
1.83641e+07
1.83649e+07
1.83657e+07
1.83665e+07
1.83674e+07
1.83684e+07
1.83694e+07
1.83705e+07
1.83716e+07
1.83728e+07
1.83741e+07
1.83754e+07
1.83768e+07
1.83782e+07
1.83796e+07
1.83812e+07
1.83827e+07
1.83844e+07
1.8386e+07
1.83878e+07
1.83896e+07
1.83914e+07
1.83933e+07
1.83952e+07
1.83972e+07
1.83992e+07
1.84012e+07
1.84033e+07
1.84055e+07
1.84077e+07
1.84099e+07
1.84122e+07
1.84145e+07
1.84168e+07
1.84192e+07
1.84217e+07
1.84242e+07
1.84267e+07
1.84293e+07
1.8432e+07
1.84347e+07
1.84374e+07
1.84402e+07
1.8443e+07
1.84459e+07
1.84489e+07
1.84519e+07
1.84549e+07
1.8458e+07
1.84612e+07
1.84644e+07
1.84676e+07
1.84709e+07
1.84743e+07
1.84777e+07
1.84812e+07
1.84847e+07
1.84882e+07
1.84918e+07
1.84955e+07
1.84991e+07
1.85028e+07
1.85066e+07
1.85104e+07
1.85142e+07
1.85181e+07
1.8522e+07
1.85259e+07
1.85299e+07
1.85339e+07
1.8538e+07
1.8542e+07
1.85461e+07
1.85503e+07
1.85544e+07
1.85586e+07
1.85629e+07
1.85671e+07
1.85714e+07
1.85757e+07
1.85801e+07
1.85845e+07
1.85889e+07
1.85934e+07
1.85979e+07
1.86025e+07
1.8607e+07
1.86116e+07
1.86163e+07
1.8621e+07
1.86257e+07
1.86305e+07
1.86352e+07
1.86401e+07
1.86449e+07
1.86498e+07
1.86548e+07
1.86597e+07
1.86647e+07
1.86698e+07
1.86748e+07
1.86799e+07
1.8685e+07
1.86901e+07
1.86953e+07
1.87005e+07
1.87057e+07
1.87109e+07
1.87161e+07
1.87213e+07
1.87266e+07
1.87319e+07
1.87372e+07
1.87425e+07
1.87478e+07
1.87531e+07
1.87584e+07
1.87638e+07
1.87691e+07
1.87745e+07
1.87799e+07
1.87852e+07
1.87906e+07
1.8796e+07
1.88014e+07
1.88069e+07
1.88123e+07
1.88177e+07
1.88232e+07
1.88286e+07
1.88341e+07
1.88396e+07
1.88451e+07
1.88505e+07
1.8856e+07
1.88615e+07
1.8867e+07
1.88726e+07
1.88781e+07
1.88836e+07
1.88891e+07
1.88946e+07
1.89002e+07
1.89057e+07
1.89113e+07
1.89168e+07
1.89223e+07
1.89279e+07
1.89334e+07
1.8939e+07
1.89445e+07
1.895e+07
1.89556e+07
1.89611e+07
1.89667e+07
1.89722e+07
1.89777e+07
1.89832e+07
1.89888e+07
1.89943e+07
1.89998e+07
1.90053e+07
1.90108e+07
1.90162e+07
1.90217e+07
1.90272e+07
1.90326e+07
1.90381e+07
1.90435e+07
1.90489e+07
1.90543e+07
1.90597e+07
1.9065e+07
1.90704e+07
1.90757e+07
1.9081e+07
1.90863e+07
1.90916e+07
1.90968e+07
1.91021e+07
1.91073e+07
1.91125e+07
1.91177e+07
1.91228e+07
1.9128e+07
1.91331e+07
1.91382e+07
1.91432e+07
1.91483e+07
1.91533e+07
1.83593e+07
1.83595e+07
1.83599e+07
1.83602e+07
1.83607e+07
1.83611e+07
1.83616e+07
1.83622e+07
1.83628e+07
1.83634e+07
1.83641e+07
1.83649e+07
1.83657e+07
1.83665e+07
1.83674e+07
1.83684e+07
1.83694e+07
1.83705e+07
1.83716e+07
1.83728e+07
1.83741e+07
1.83754e+07
1.83768e+07
1.83782e+07
1.83796e+07
1.83812e+07
1.83827e+07
1.83844e+07
1.8386e+07
1.83878e+07
1.83896e+07
1.83914e+07
1.83933e+07
1.83952e+07
1.83972e+07
1.83992e+07
1.84012e+07
1.84033e+07
1.84055e+07
1.84077e+07
1.84099e+07
1.84122e+07
1.84145e+07
1.84168e+07
1.84192e+07
1.84217e+07
1.84242e+07
1.84267e+07
1.84293e+07
1.8432e+07
1.84347e+07
1.84374e+07
1.84402e+07
1.8443e+07
1.84459e+07
1.84489e+07
1.84519e+07
1.84549e+07
1.8458e+07
1.84612e+07
1.84644e+07
1.84676e+07
1.84709e+07
1.84743e+07
1.84777e+07
1.84812e+07
1.84847e+07
1.84882e+07
1.84918e+07
1.84955e+07
1.84991e+07
1.85028e+07
1.85066e+07
1.85104e+07
1.85142e+07
1.85181e+07
1.8522e+07
1.85259e+07
1.85299e+07
1.85339e+07
1.8538e+07
1.8542e+07
1.85461e+07
1.85503e+07
1.85544e+07
1.85586e+07
1.85629e+07
1.85671e+07
1.85714e+07
1.85757e+07
1.85801e+07
1.85845e+07
1.85889e+07
1.85934e+07
1.85979e+07
1.86025e+07
1.8607e+07
1.86116e+07
1.86163e+07
1.8621e+07
1.86257e+07
1.86305e+07
1.86352e+07
1.86401e+07
1.86449e+07
1.86498e+07
1.86548e+07
1.86597e+07
1.86647e+07
1.86698e+07
1.86748e+07
1.86799e+07
1.8685e+07
1.86901e+07
1.86953e+07
1.87005e+07
1.87057e+07
1.87109e+07
1.87161e+07
1.87213e+07
1.87266e+07
1.87319e+07
1.87372e+07
1.87425e+07
1.87478e+07
1.87531e+07
1.87584e+07
1.87638e+07
1.87691e+07
1.87745e+07
1.87799e+07
1.87852e+07
1.87906e+07
1.8796e+07
1.88014e+07
1.88069e+07
1.88123e+07
1.88177e+07
1.88232e+07
1.88286e+07
1.88341e+07
1.88396e+07
1.88451e+07
1.88505e+07
1.8856e+07
1.88615e+07
1.8867e+07
1.88726e+07
1.88781e+07
1.88836e+07
1.88891e+07
1.88946e+07
1.89002e+07
1.89057e+07
1.89113e+07
1.89168e+07
1.89223e+07
1.89279e+07
1.89334e+07
1.8939e+07
1.89445e+07
1.895e+07
1.89556e+07
1.89611e+07
1.89667e+07
1.89722e+07
1.89777e+07
1.89832e+07
1.89888e+07
1.89943e+07
1.89998e+07
1.90053e+07
1.90108e+07
1.90162e+07
1.90217e+07
1.90272e+07
1.90326e+07
1.90381e+07
1.90435e+07
1.90489e+07
1.90543e+07
1.90597e+07
1.9065e+07
1.90704e+07
1.90757e+07
1.9081e+07
1.90863e+07
1.90916e+07
1.90968e+07
1.91021e+07
1.91073e+07
1.91125e+07
1.91177e+07
1.91228e+07
1.9128e+07
1.91331e+07
1.91382e+07
1.91432e+07
1.91483e+07
1.91533e+07
1.83593e+07
1.83595e+07
1.83599e+07
1.83602e+07
1.83607e+07
1.83611e+07
1.83616e+07
1.83622e+07
1.83628e+07
1.83634e+07
1.83641e+07
1.83649e+07
1.83657e+07
1.83665e+07
1.83674e+07
1.83684e+07
1.83694e+07
1.83705e+07
1.83716e+07
1.83728e+07
1.83741e+07
1.83754e+07
1.83768e+07
1.83782e+07
1.83796e+07
1.83812e+07
1.83827e+07
1.83844e+07
1.8386e+07
1.83878e+07
1.83896e+07
1.83914e+07
1.83933e+07
1.83952e+07
1.83972e+07
1.83992e+07
1.84012e+07
1.84033e+07
1.84055e+07
1.84077e+07
1.84099e+07
1.84122e+07
1.84145e+07
1.84168e+07
1.84192e+07
1.84217e+07
1.84242e+07
1.84267e+07
1.84293e+07
1.8432e+07
1.84347e+07
1.84374e+07
1.84402e+07
1.8443e+07
1.84459e+07
1.84489e+07
1.84519e+07
1.84549e+07
1.8458e+07
1.84612e+07
1.84644e+07
1.84676e+07
1.84709e+07
1.84743e+07
1.84777e+07
1.84812e+07
1.84847e+07
1.84882e+07
1.84918e+07
1.84955e+07
1.84991e+07
1.85028e+07
1.85066e+07
1.85104e+07
1.85142e+07
1.85181e+07
1.8522e+07
1.85259e+07
1.85299e+07
1.85339e+07
1.8538e+07
1.8542e+07
1.85461e+07
1.85503e+07
1.85544e+07
1.85586e+07
1.85629e+07
1.85671e+07
1.85714e+07
1.85757e+07
1.85801e+07
1.85845e+07
1.85889e+07
1.85934e+07
1.85979e+07
1.86025e+07
1.8607e+07
1.86116e+07
1.86163e+07
1.8621e+07
1.86257e+07
1.86305e+07
1.86352e+07
1.86401e+07
1.86449e+07
1.86498e+07
1.86548e+07
1.86597e+07
1.86647e+07
1.86698e+07
1.86748e+07
1.86799e+07
1.8685e+07
1.86901e+07
1.86953e+07
1.87005e+07
1.87057e+07
1.87109e+07
1.87161e+07
1.87213e+07
1.87266e+07
1.87319e+07
1.87372e+07
1.87425e+07
1.87478e+07
1.87531e+07
1.87584e+07
1.87638e+07
1.87691e+07
1.87745e+07
1.87799e+07
1.87852e+07
1.87906e+07
1.8796e+07
1.88014e+07
1.88069e+07
1.88123e+07
1.88177e+07
1.88232e+07
1.88286e+07
1.88341e+07
1.88396e+07
1.88451e+07
1.88505e+07
1.8856e+07
1.88615e+07
1.8867e+07
1.88726e+07
1.88781e+07
1.88836e+07
1.88891e+07
1.88946e+07
1.89002e+07
1.89057e+07
1.89113e+07
1.89168e+07
1.89223e+07
1.89279e+07
1.89334e+07
1.8939e+07
1.89445e+07
1.895e+07
1.89556e+07
1.89611e+07
1.89667e+07
1.89722e+07
1.89777e+07
1.89832e+07
1.89888e+07
1.89943e+07
1.89998e+07
1.90053e+07
1.90108e+07
1.90162e+07
1.90217e+07
1.90272e+07
1.90326e+07
1.90381e+07
1.90435e+07
1.90489e+07
1.90543e+07
1.90597e+07
1.9065e+07
1.90704e+07
1.90757e+07
1.9081e+07
1.90863e+07
1.90916e+07
1.90968e+07
1.91021e+07
1.91073e+07
1.91125e+07
1.91177e+07
1.91228e+07
1.9128e+07
1.91331e+07
1.91382e+07
1.91432e+07
1.91483e+07
1.91533e+07
1.83593e+07
1.83595e+07
1.83599e+07
1.83602e+07
1.83607e+07
1.83611e+07
1.83616e+07
1.83622e+07
1.83628e+07
1.83634e+07
1.83641e+07
1.83649e+07
1.83657e+07
1.83665e+07
1.83674e+07
1.83684e+07
1.83694e+07
1.83705e+07
1.83716e+07
1.83728e+07
1.83741e+07
1.83754e+07
1.83768e+07
1.83782e+07
1.83796e+07
1.83812e+07
1.83827e+07
1.83844e+07
1.8386e+07
1.83878e+07
1.83896e+07
1.83914e+07
1.83933e+07
1.83952e+07
1.83972e+07
1.83992e+07
1.84012e+07
1.84033e+07
1.84055e+07
1.84077e+07
1.84099e+07
1.84122e+07
1.84145e+07
1.84168e+07
1.84192e+07
1.84217e+07
1.84242e+07
1.84267e+07
1.84293e+07
1.8432e+07
1.84347e+07
1.84374e+07
1.84402e+07
1.8443e+07
1.84459e+07
1.84489e+07
1.84519e+07
1.84549e+07
1.8458e+07
1.84612e+07
1.84644e+07
1.84676e+07
1.84709e+07
1.84743e+07
1.84777e+07
1.84812e+07
1.84847e+07
1.84882e+07
1.84918e+07
1.84955e+07
1.84991e+07
1.85028e+07
1.85066e+07
1.85104e+07
1.85142e+07
1.85181e+07
1.8522e+07
1.85259e+07
1.85299e+07
1.85339e+07
1.8538e+07
1.8542e+07
1.85461e+07
1.85503e+07
1.85544e+07
1.85586e+07
1.85629e+07
1.85671e+07
1.85714e+07
1.85757e+07
1.85801e+07
1.85845e+07
1.85889e+07
1.85934e+07
1.85979e+07
1.86025e+07
1.8607e+07
1.86116e+07
1.86163e+07
1.8621e+07
1.86257e+07
1.86305e+07
1.86352e+07
1.86401e+07
1.86449e+07
1.86498e+07
1.86548e+07
1.86597e+07
1.86647e+07
1.86698e+07
1.86748e+07
1.86799e+07
1.8685e+07
1.86901e+07
1.86953e+07
1.87005e+07
1.87057e+07
1.87109e+07
1.87161e+07
1.87213e+07
1.87266e+07
1.87319e+07
1.87372e+07
1.87425e+07
1.87478e+07
1.87531e+07
1.87584e+07
1.87638e+07
1.87691e+07
1.87745e+07
1.87799e+07
1.87852e+07
1.87906e+07
1.8796e+07
1.88014e+07
1.88069e+07
1.88123e+07
1.88177e+07
1.88232e+07
1.88286e+07
1.88341e+07
1.88396e+07
1.88451e+07
1.88505e+07
1.8856e+07
1.88615e+07
1.8867e+07
1.88726e+07
1.88781e+07
1.88836e+07
1.88891e+07
1.88946e+07
1.89002e+07
1.89057e+07
1.89113e+07
1.89168e+07
1.89223e+07
1.89279e+07
1.89334e+07
1.8939e+07
1.89445e+07
1.895e+07
1.89556e+07
1.89611e+07
1.89667e+07
1.89722e+07
1.89777e+07
1.89832e+07
1.89888e+07
1.89943e+07
1.89998e+07
1.90053e+07
1.90108e+07
1.90162e+07
1.90217e+07
1.90272e+07
1.90326e+07
1.90381e+07
1.90435e+07
1.90489e+07
1.90543e+07
1.90597e+07
1.9065e+07
1.90704e+07
1.90757e+07
1.9081e+07
1.90863e+07
1.90916e+07
1.90968e+07
1.91021e+07
1.91073e+07
1.91125e+07
1.91177e+07
1.91228e+07
1.9128e+07
1.91331e+07
1.91382e+07
1.91432e+07
1.91483e+07
1.91533e+07
1.83593e+07
1.83595e+07
1.83599e+07
1.83602e+07
1.83607e+07
1.83611e+07
1.83616e+07
1.83622e+07
1.83628e+07
1.83634e+07
1.83641e+07
1.83649e+07
1.83657e+07
1.83665e+07
1.83674e+07
1.83684e+07
1.83694e+07
1.83705e+07
1.83716e+07
1.83728e+07
1.83741e+07
1.83754e+07
1.83768e+07
1.83782e+07
1.83796e+07
1.83812e+07
1.83827e+07
1.83844e+07
1.8386e+07
1.83878e+07
1.83896e+07
1.83914e+07
1.83933e+07
1.83952e+07
1.83972e+07
1.83992e+07
1.84012e+07
1.84033e+07
1.84055e+07
1.84077e+07
1.84099e+07
1.84122e+07
1.84145e+07
1.84168e+07
1.84192e+07
1.84217e+07
1.84242e+07
1.84267e+07
1.84293e+07
1.8432e+07
1.84347e+07
1.84374e+07
1.84402e+07
1.8443e+07
1.84459e+07
1.84489e+07
1.84519e+07
1.84549e+07
1.8458e+07
1.84612e+07
1.84644e+07
1.84676e+07
1.84709e+07
1.84743e+07
1.84777e+07
1.84812e+07
1.84847e+07
1.84882e+07
1.84918e+07
1.84955e+07
1.84991e+07
1.85028e+07
1.85066e+07
1.85104e+07
1.85142e+07
1.85181e+07
1.8522e+07
1.85259e+07
1.85299e+07
1.85339e+07
1.8538e+07
1.8542e+07
1.85461e+07
1.85503e+07
1.85544e+07
1.85586e+07
1.85629e+07
1.85671e+07
1.85714e+07
1.85757e+07
1.85801e+07
1.85845e+07
1.85889e+07
1.85934e+07
1.85979e+07
1.86025e+07
1.8607e+07
1.86116e+07
1.86163e+07
1.8621e+07
1.86257e+07
1.86305e+07
1.86352e+07
1.86401e+07
1.86449e+07
1.86498e+07
1.86548e+07
1.86597e+07
1.86647e+07
1.86698e+07
1.86748e+07
1.86799e+07
1.8685e+07
1.86901e+07
1.86953e+07
1.87005e+07
1.87057e+07
1.87109e+07
1.87161e+07
1.87213e+07
1.87266e+07
1.87319e+07
1.87372e+07
1.87425e+07
1.87478e+07
1.87531e+07
1.87584e+07
1.87638e+07
1.87691e+07
1.87745e+07
1.87799e+07
1.87852e+07
1.87906e+07
1.8796e+07
1.88014e+07
1.88069e+07
1.88123e+07
1.88177e+07
1.88232e+07
1.88286e+07
1.88341e+07
1.88396e+07
1.88451e+07
1.88505e+07
1.8856e+07
1.88615e+07
1.8867e+07
1.88726e+07
1.88781e+07
1.88836e+07
1.88891e+07
1.88946e+07
1.89002e+07
1.89057e+07
1.89113e+07
1.89168e+07
1.89223e+07
1.89279e+07
1.89334e+07
1.8939e+07
1.89445e+07
1.895e+07
1.89556e+07
1.89611e+07
1.89667e+07
1.89722e+07
1.89777e+07
1.89832e+07
1.89888e+07
1.89943e+07
1.89998e+07
1.90053e+07
1.90108e+07
1.90162e+07
1.90217e+07
1.90272e+07
1.90326e+07
1.90381e+07
1.90435e+07
1.90489e+07
1.90543e+07
1.90597e+07
1.9065e+07
1.90704e+07
1.90757e+07
1.9081e+07
1.90863e+07
1.90916e+07
1.90968e+07
1.91021e+07
1.91073e+07
1.91125e+07
1.91177e+07
1.91228e+07
1.9128e+07
1.91331e+07
1.91382e+07
1.91432e+07
1.91483e+07
1.91533e+07
1.91569e+07
1.91584e+07
1.91595e+07
1.91605e+07
1.91614e+07
1.91623e+07
1.9163e+07
1.91638e+07
1.91647e+07
1.91657e+07
1.91672e+07
1.9169e+07
1.91704e+07
1.91708e+07
1.91701e+07
1.91696e+07
1.91699e+07
1.91704e+07
1.91709e+07
1.91716e+07
1.91567e+07
1.9158e+07
1.9159e+07
1.916e+07
1.9161e+07
1.91619e+07
1.91625e+07
1.91633e+07
1.91642e+07
1.91653e+07
1.91668e+07
1.91685e+07
1.91698e+07
1.917e+07
1.91691e+07
1.91686e+07
1.9169e+07
1.91696e+07
1.91703e+07
1.91711e+07
1.91563e+07
1.91573e+07
1.91581e+07
1.91589e+07
1.91597e+07
1.91604e+07
1.91611e+07
1.91618e+07
1.91623e+07
1.91628e+07
1.91632e+07
1.91635e+07
1.91639e+07
1.91643e+07
1.91648e+07
1.91653e+07
1.91656e+07
1.9166e+07
1.91662e+07
1.91665e+07
1.91562e+07
1.9157e+07
1.91578e+07
1.91585e+07
1.91591e+07
1.91596e+07
1.916e+07
1.91605e+07
1.91609e+07
1.91613e+07
1.91617e+07
1.91621e+07
1.91625e+07
1.91629e+07
1.91633e+07
1.91637e+07
1.91641e+07
1.91646e+07
1.91651e+07
1.91654e+07
1.91555e+07
1.91559e+07
1.91564e+07
1.91571e+07
1.91577e+07
1.91581e+07
1.91585e+07
1.91589e+07
1.91593e+07
1.91596e+07
1.916e+07
1.91603e+07
1.91606e+07
1.91609e+07
1.91613e+07
1.91616e+07
1.9162e+07
1.91624e+07
1.91629e+07
1.91633e+07
1.91746e+07
1.91761e+07
1.91768e+07
1.91799e+07
1.91849e+07
1.91889e+07
1.91911e+07
1.91942e+07
1.91989e+07
1.92027e+07
1.92051e+07
1.92085e+07
1.9213e+07
1.92174e+07
1.92199e+07
1.92225e+07
1.9226e+07
1.92301e+07
1.92351e+07
1.9238e+07
1.92401e+07
1.92432e+07
1.92468e+07
1.92507e+07
1.92545e+07
1.92574e+07
1.92603e+07
1.92636e+07
1.9267e+07
1.92703e+07
1.92736e+07
1.9277e+07
1.92803e+07
1.92835e+07
1.92868e+07
1.92901e+07
1.92935e+07
1.92972e+07
1.93002e+07
1.9303e+07
1.9306e+07
1.93091e+07
1.93122e+07
1.93153e+07
1.93183e+07
1.93214e+07
1.93244e+07
1.93274e+07
1.93304e+07
1.93334e+07
1.93363e+07
1.93392e+07
1.93421e+07
1.9345e+07
1.93479e+07
1.93507e+07
1.93535e+07
1.93563e+07
1.93591e+07
1.93618e+07
1.93645e+07
1.93672e+07
1.93699e+07
1.93726e+07
1.93752e+07
1.93778e+07
1.93804e+07
1.93829e+07
1.93855e+07
1.9388e+07
1.93905e+07
1.93929e+07
1.93954e+07
1.93978e+07
1.94002e+07
1.94026e+07
1.94049e+07
1.94073e+07
1.94096e+07
1.94119e+07
1.94141e+07
1.94164e+07
1.94186e+07
1.94208e+07
1.9423e+07
1.94252e+07
1.94274e+07
1.94296e+07
1.94318e+07
1.94342e+07
1.94375e+07
1.94391e+07
1.94401e+07
1.94417e+07
1.94437e+07
1.94457e+07
1.94478e+07
1.94498e+07
1.94518e+07
1.94538e+07
1.94559e+07
1.94578e+07
1.94598e+07
1.94618e+07
1.94637e+07
1.94656e+07
1.94674e+07
1.94692e+07
1.9471e+07
1.94728e+07
1.94746e+07
1.94763e+07
1.94781e+07
1.94797e+07
1.94814e+07
1.9483e+07
1.94846e+07
1.94861e+07
1.94876e+07
1.94891e+07
1.94905e+07
1.9492e+07
1.94934e+07
1.94948e+07
1.94961e+07
1.94975e+07
1.94988e+07
1.95001e+07
1.95014e+07
1.95027e+07
1.95039e+07
1.95051e+07
1.95063e+07
1.95075e+07
1.95086e+07
1.95097e+07
1.95108e+07
1.95119e+07
1.9513e+07
1.9514e+07
1.9515e+07
1.9516e+07
1.9517e+07
1.95179e+07
1.95188e+07
1.95198e+07
1.95206e+07
1.95215e+07
1.95224e+07
1.95232e+07
1.9524e+07
1.95248e+07
1.95256e+07
1.95264e+07
1.95271e+07
1.95278e+07
1.95286e+07
1.95293e+07
1.95299e+07
1.95306e+07
1.95312e+07
1.95319e+07
1.95325e+07
1.95331e+07
1.95337e+07
1.95342e+07
1.95348e+07
1.95353e+07
1.95358e+07
1.95364e+07
1.95369e+07
1.95373e+07
1.95378e+07
1.95383e+07
1.95387e+07
1.95392e+07
1.95396e+07
1.954e+07
1.95404e+07
1.95408e+07
1.95412e+07
1.95416e+07
1.9542e+07
1.95424e+07
1.95427e+07
1.95431e+07
1.95434e+07
1.95438e+07
1.95441e+07
1.95444e+07
1.95447e+07
1.9545e+07
1.95453e+07
1.95456e+07
1.95458e+07
1.95461e+07
1.95464e+07
1.95466e+07
1.95469e+07
1.95471e+07
1.91744e+07
1.91761e+07
1.91769e+07
1.91799e+07
1.91849e+07
1.91889e+07
1.91911e+07
1.91942e+07
1.91989e+07
1.92027e+07
1.92051e+07
1.92085e+07
1.9213e+07
1.92174e+07
1.92199e+07
1.92225e+07
1.9226e+07
1.92301e+07
1.92351e+07
1.9238e+07
1.92402e+07
1.92432e+07
1.92468e+07
1.92507e+07
1.92545e+07
1.92574e+07
1.92603e+07
1.92636e+07
1.9267e+07
1.92703e+07
1.92736e+07
1.9277e+07
1.92803e+07
1.92835e+07
1.92868e+07
1.92901e+07
1.92935e+07
1.92972e+07
1.93002e+07
1.9303e+07
1.9306e+07
1.93091e+07
1.93122e+07
1.93153e+07
1.93183e+07
1.93214e+07
1.93244e+07
1.93274e+07
1.93304e+07
1.93334e+07
1.93363e+07
1.93392e+07
1.93421e+07
1.9345e+07
1.93479e+07
1.93507e+07
1.93535e+07
1.93563e+07
1.93591e+07
1.93618e+07
1.93645e+07
1.93672e+07
1.93699e+07
1.93726e+07
1.93752e+07
1.93778e+07
1.93804e+07
1.93829e+07
1.93855e+07
1.9388e+07
1.93905e+07
1.93929e+07
1.93954e+07
1.93978e+07
1.94002e+07
1.94026e+07
1.94049e+07
1.94073e+07
1.94096e+07
1.94119e+07
1.94141e+07
1.94164e+07
1.94186e+07
1.94208e+07
1.9423e+07
1.94252e+07
1.94274e+07
1.94295e+07
1.94318e+07
1.94342e+07
1.94375e+07
1.94391e+07
1.94401e+07
1.94417e+07
1.94437e+07
1.94457e+07
1.94478e+07
1.94498e+07
1.94518e+07
1.94538e+07
1.94558e+07
1.94578e+07
1.94598e+07
1.94618e+07
1.94637e+07
1.94655e+07
1.94674e+07
1.94692e+07
1.9471e+07
1.94728e+07
1.94746e+07
1.94763e+07
1.94781e+07
1.94797e+07
1.94814e+07
1.9483e+07
1.94846e+07
1.94861e+07
1.94876e+07
1.94891e+07
1.94905e+07
1.9492e+07
1.94934e+07
1.94948e+07
1.94961e+07
1.94975e+07
1.94988e+07
1.95001e+07
1.95014e+07
1.95027e+07
1.95039e+07
1.95051e+07
1.95063e+07
1.95075e+07
1.95086e+07
1.95097e+07
1.95108e+07
1.95119e+07
1.9513e+07
1.9514e+07
1.9515e+07
1.9516e+07
1.9517e+07
1.95179e+07
1.95188e+07
1.95198e+07
1.95206e+07
1.95215e+07
1.95224e+07
1.95232e+07
1.9524e+07
1.95248e+07
1.95256e+07
1.95264e+07
1.95271e+07
1.95278e+07
1.95286e+07
1.95293e+07
1.95299e+07
1.95306e+07
1.95312e+07
1.95319e+07
1.95325e+07
1.95331e+07
1.95337e+07
1.95342e+07
1.95348e+07
1.95353e+07
1.95358e+07
1.95364e+07
1.95369e+07
1.95373e+07
1.95378e+07
1.95383e+07
1.95387e+07
1.95392e+07
1.95396e+07
1.954e+07
1.95404e+07
1.95408e+07
1.95412e+07
1.95416e+07
1.9542e+07
1.95424e+07
1.95427e+07
1.95431e+07
1.95434e+07
1.95438e+07
1.95441e+07
1.95444e+07
1.95447e+07
1.9545e+07
1.95453e+07
1.95456e+07
1.95458e+07
1.95461e+07
1.95464e+07
1.95466e+07
1.95469e+07
1.95471e+07
1.91665e+07
1.91713e+07
1.91755e+07
1.91794e+07
1.91829e+07
1.91864e+07
1.91901e+07
1.91938e+07
1.91974e+07
1.92009e+07
1.92045e+07
1.92081e+07
1.92117e+07
1.92151e+07
1.92186e+07
1.92222e+07
1.92258e+07
1.92294e+07
1.92327e+07
1.92361e+07
1.92396e+07
1.92431e+07
1.92466e+07
1.925e+07
1.92534e+07
1.92568e+07
1.92602e+07
1.92636e+07
1.9267e+07
1.92703e+07
1.92737e+07
1.9277e+07
1.92803e+07
1.92836e+07
1.92868e+07
1.92901e+07
1.92933e+07
1.92965e+07
1.92996e+07
1.93028e+07
1.93059e+07
1.93091e+07
1.93122e+07
1.93153e+07
1.93183e+07
1.93214e+07
1.93244e+07
1.93274e+07
1.93304e+07
1.93334e+07
1.93363e+07
1.93393e+07
1.93422e+07
1.9345e+07
1.93479e+07
1.93507e+07
1.93535e+07
1.93563e+07
1.93591e+07
1.93618e+07
1.93645e+07
1.93672e+07
1.93699e+07
1.93726e+07
1.93752e+07
1.93778e+07
1.93804e+07
1.93829e+07
1.93855e+07
1.9388e+07
1.93905e+07
1.93929e+07
1.93954e+07
1.93978e+07
1.94002e+07
1.94026e+07
1.9405e+07
1.94073e+07
1.94096e+07
1.94119e+07
1.94142e+07
1.94164e+07
1.94187e+07
1.94209e+07
1.94231e+07
1.94253e+07
1.94274e+07
1.94296e+07
1.94318e+07
1.94339e+07
1.94358e+07
1.94377e+07
1.94397e+07
1.94418e+07
1.94438e+07
1.94459e+07
1.94479e+07
1.94499e+07
1.9452e+07
1.9454e+07
1.9456e+07
1.9458e+07
1.94599e+07
1.94619e+07
1.94638e+07
1.94656e+07
1.94675e+07
1.94693e+07
1.94711e+07
1.94729e+07
1.94746e+07
1.94764e+07
1.94781e+07
1.94797e+07
1.94814e+07
1.9483e+07
1.94846e+07
1.94861e+07
1.94876e+07
1.94891e+07
1.94905e+07
1.9492e+07
1.94934e+07
1.94948e+07
1.94961e+07
1.94975e+07
1.94988e+07
1.95001e+07
1.95014e+07
1.95027e+07
1.95039e+07
1.95051e+07
1.95063e+07
1.95075e+07
1.95086e+07
1.95097e+07
1.95108e+07
1.95119e+07
1.9513e+07
1.9514e+07
1.9515e+07
1.9516e+07
1.9517e+07
1.95179e+07
1.95188e+07
1.95198e+07
1.95206e+07
1.95215e+07
1.95224e+07
1.95232e+07
1.9524e+07
1.95248e+07
1.95256e+07
1.95264e+07
1.95271e+07
1.95278e+07
1.95286e+07
1.95293e+07
1.95299e+07
1.95306e+07
1.95312e+07
1.95319e+07
1.95325e+07
1.95331e+07
1.95337e+07
1.95342e+07
1.95348e+07
1.95353e+07
1.95358e+07
1.95364e+07
1.95369e+07
1.95373e+07
1.95378e+07
1.95383e+07
1.95387e+07
1.95392e+07
1.95396e+07
1.954e+07
1.95404e+07
1.95408e+07
1.95412e+07
1.95416e+07
1.9542e+07
1.95424e+07
1.95427e+07
1.95431e+07
1.95434e+07
1.95438e+07
1.95441e+07
1.95444e+07
1.95447e+07
1.9545e+07
1.95453e+07
1.95456e+07
1.95458e+07
1.95461e+07
1.95464e+07
1.95466e+07
1.95469e+07
1.95471e+07
1.91669e+07
1.91708e+07
1.91745e+07
1.91781e+07
1.91818e+07
1.91854e+07
1.9189e+07
1.91927e+07
1.91964e+07
1.92e+07
1.92036e+07
1.92072e+07
1.92109e+07
1.92144e+07
1.92179e+07
1.92215e+07
1.92252e+07
1.92288e+07
1.92322e+07
1.92356e+07
1.92391e+07
1.92427e+07
1.92462e+07
1.92496e+07
1.92531e+07
1.92565e+07
1.92599e+07
1.92633e+07
1.92667e+07
1.92701e+07
1.92734e+07
1.92768e+07
1.92801e+07
1.92834e+07
1.92867e+07
1.92899e+07
1.92932e+07
1.92964e+07
1.92995e+07
1.93027e+07
1.93059e+07
1.9309e+07
1.93121e+07
1.93152e+07
1.93183e+07
1.93214e+07
1.93244e+07
1.93274e+07
1.93304e+07
1.93334e+07
1.93363e+07
1.93393e+07
1.93422e+07
1.9345e+07
1.93479e+07
1.93507e+07
1.93535e+07
1.93563e+07
1.93591e+07
1.93618e+07
1.93646e+07
1.93673e+07
1.93699e+07
1.93726e+07
1.93752e+07
1.93778e+07
1.93804e+07
1.93829e+07
1.93855e+07
1.9388e+07
1.93905e+07
1.9393e+07
1.93954e+07
1.93978e+07
1.94002e+07
1.94026e+07
1.9405e+07
1.94073e+07
1.94096e+07
1.94119e+07
1.94142e+07
1.94165e+07
1.94187e+07
1.9421e+07
1.94232e+07
1.94254e+07
1.94276e+07
1.94298e+07
1.94319e+07
1.9434e+07
1.94361e+07
1.94379e+07
1.94398e+07
1.94419e+07
1.9444e+07
1.9446e+07
1.94481e+07
1.94501e+07
1.94521e+07
1.94541e+07
1.94561e+07
1.94581e+07
1.946e+07
1.94619e+07
1.94638e+07
1.94657e+07
1.94675e+07
1.94693e+07
1.94711e+07
1.94729e+07
1.94746e+07
1.94764e+07
1.94781e+07
1.94797e+07
1.94814e+07
1.9483e+07
1.94846e+07
1.94861e+07
1.94876e+07
1.94891e+07
1.94905e+07
1.9492e+07
1.94934e+07
1.94948e+07
1.94961e+07
1.94975e+07
1.94988e+07
1.95001e+07
1.95014e+07
1.95027e+07
1.95039e+07
1.95051e+07
1.95063e+07
1.95075e+07
1.95086e+07
1.95097e+07
1.95108e+07
1.95119e+07
1.9513e+07
1.9514e+07
1.9515e+07
1.9516e+07
1.9517e+07
1.95179e+07
1.95188e+07
1.95198e+07
1.95206e+07
1.95215e+07
1.95224e+07
1.95232e+07
1.9524e+07
1.95248e+07
1.95256e+07
1.95264e+07
1.95271e+07
1.95278e+07
1.95286e+07
1.95293e+07
1.95299e+07
1.95306e+07
1.95312e+07
1.95319e+07
1.95325e+07
1.95331e+07
1.95337e+07
1.95342e+07
1.95348e+07
1.95353e+07
1.95358e+07
1.95364e+07
1.95369e+07
1.95373e+07
1.95378e+07
1.95383e+07
1.95387e+07
1.95392e+07
1.95396e+07
1.954e+07
1.95404e+07
1.95408e+07
1.95412e+07
1.95416e+07
1.9542e+07
1.95424e+07
1.95427e+07
1.95431e+07
1.95434e+07
1.95438e+07
1.95441e+07
1.95444e+07
1.95447e+07
1.9545e+07
1.95453e+07
1.95456e+07
1.95458e+07
1.95461e+07
1.95464e+07
1.95466e+07
1.95469e+07
1.95471e+07
1.91665e+07
1.91707e+07
1.91745e+07
1.91781e+07
1.91818e+07
1.91854e+07
1.9189e+07
1.91927e+07
1.91964e+07
1.92e+07
1.92036e+07
1.92072e+07
1.92109e+07
1.92144e+07
1.92179e+07
1.92215e+07
1.92252e+07
1.92288e+07
1.92322e+07
1.92356e+07
1.92391e+07
1.92427e+07
1.92462e+07
1.92496e+07
1.9253e+07
1.92565e+07
1.92599e+07
1.92633e+07
1.92667e+07
1.92701e+07
1.92734e+07
1.92768e+07
1.92801e+07
1.92834e+07
1.92867e+07
1.92899e+07
1.92932e+07
1.92964e+07
1.92995e+07
1.93027e+07
1.93059e+07
1.9309e+07
1.93121e+07
1.93152e+07
1.93183e+07
1.93214e+07
1.93244e+07
1.93274e+07
1.93304e+07
1.93334e+07
1.93363e+07
1.93393e+07
1.93422e+07
1.9345e+07
1.93479e+07
1.93507e+07
1.93535e+07
1.93563e+07
1.93591e+07
1.93618e+07
1.93646e+07
1.93673e+07
1.93699e+07
1.93726e+07
1.93752e+07
1.93778e+07
1.93804e+07
1.93829e+07
1.93855e+07
1.9388e+07
1.93905e+07
1.9393e+07
1.93954e+07
1.93978e+07
1.94002e+07
1.94026e+07
1.9405e+07
1.94073e+07
1.94096e+07
1.94119e+07
1.94142e+07
1.94165e+07
1.94187e+07
1.9421e+07
1.94232e+07
1.94254e+07
1.94276e+07
1.94298e+07
1.94319e+07
1.9434e+07
1.94361e+07
1.94379e+07
1.94398e+07
1.94419e+07
1.9444e+07
1.9446e+07
1.94481e+07
1.94501e+07
1.94521e+07
1.94541e+07
1.94561e+07
1.94581e+07
1.946e+07
1.94619e+07
1.94638e+07
1.94657e+07
1.94675e+07
1.94693e+07
1.94711e+07
1.94729e+07
1.94746e+07
1.94764e+07
1.94781e+07
1.94797e+07
1.94814e+07
1.9483e+07
1.94846e+07
1.94861e+07
1.94876e+07
1.94891e+07
1.94905e+07
1.9492e+07
1.94934e+07
1.94948e+07
1.94961e+07
1.94975e+07
1.94988e+07
1.95001e+07
1.95014e+07
1.95027e+07
1.95039e+07
1.95051e+07
1.95063e+07
1.95075e+07
1.95086e+07
1.95097e+07
1.95108e+07
1.95119e+07
1.9513e+07
1.9514e+07
1.9515e+07
1.9516e+07
1.9517e+07
1.95179e+07
1.95188e+07
1.95198e+07
1.95206e+07
1.95215e+07
1.95224e+07
1.95232e+07
1.9524e+07
1.95248e+07
1.95256e+07
1.95264e+07
1.95271e+07
1.95278e+07
1.95286e+07
1.95293e+07
1.95299e+07
1.95306e+07
1.95312e+07
1.95319e+07
1.95325e+07
1.95331e+07
1.95337e+07
1.95342e+07
1.95348e+07
1.95353e+07
1.95358e+07
1.95364e+07
1.95369e+07
1.95373e+07
1.95378e+07
1.95383e+07
1.95387e+07
1.95392e+07
1.95396e+07
1.954e+07
1.95404e+07
1.95408e+07
1.95412e+07
1.95416e+07
1.9542e+07
1.95424e+07
1.95427e+07
1.95431e+07
1.95434e+07
1.95438e+07
1.95441e+07
1.95444e+07
1.95447e+07
1.9545e+07
1.95453e+07
1.95456e+07
1.95458e+07
1.95461e+07
1.95464e+07
1.95466e+07
1.95469e+07
1.95471e+07
1.95472e+07
1.95472e+07
1.95472e+07
1.95472e+07
1.95472e+07
1.95472e+07
1.95472e+07
1.95472e+07
1.95472e+07
1.95472e+07
1.95472e+07
1.95472e+07
1.95472e+07
1.95472e+07
1.95472e+07
1.95472e+07
1.95472e+07
1.95472e+07
1.95472e+07
1.95472e+07
1.95472e+07
1.95472e+07
1.95472e+07
1.95473e+07
1.95473e+07
1.95473e+07
1.95473e+07
1.95473e+07
1.95473e+07
1.95473e+07
1.95473e+07
1.95473e+07
1.95473e+07
1.95473e+07
1.95473e+07
1.95473e+07
1.95473e+07
1.95473e+07
1.95473e+07
1.95473e+07
1.95472e+07
1.95473e+07
1.95473e+07
1.95474e+07
1.95474e+07
1.95474e+07
1.95475e+07
1.95475e+07
1.95475e+07
1.95475e+07
1.95475e+07
1.95476e+07
1.95476e+07
1.95476e+07
1.95476e+07
1.95476e+07
1.95476e+07
1.95477e+07
1.95477e+07
1.95477e+07
1.95472e+07
1.95473e+07
1.95474e+07
1.95475e+07
1.95475e+07
1.95476e+07
1.95476e+07
1.95477e+07
1.95478e+07
1.95479e+07
1.95482e+07
1.95484e+07
1.95485e+07
1.95483e+07
1.9548e+07
1.9548e+07
1.95481e+07
1.95482e+07
1.95482e+07
1.95482e+07
1.95472e+07
1.95473e+07
1.95474e+07
1.95475e+07
1.95475e+07
1.95476e+07
1.95476e+07
1.95477e+07
1.95478e+07
1.95479e+07
1.95482e+07
1.95484e+07
1.95485e+07
1.95484e+07
1.95481e+07
1.95481e+07
1.95482e+07
1.95482e+07
1.95482e+07
1.95482e+07
1.95473e+07
1.95473e+07
1.95473e+07
1.95474e+07
1.95475e+07
1.95474e+07
1.95473e+07
1.95475e+07
1.95476e+07
1.95476e+07
1.95476e+07
1.95478e+07
1.95481e+07
1.95481e+07
1.95478e+07
1.9548e+07
1.95485e+07
1.95487e+07
1.95485e+07
1.95477e+07
1.95476e+07
1.95483e+07
1.95488e+07
1.9549e+07
1.95486e+07
1.95481e+07
1.95479e+07
1.95488e+07
1.95495e+07
1.95497e+07
1.95493e+07
1.95484e+07
1.95478e+07
1.9548e+07
1.95486e+07
1.9549e+07
1.95493e+07
1.95495e+07
1.95496e+07
1.95498e+07
1.95499e+07
1.955e+07
1.95501e+07
1.95502e+07
1.95503e+07
1.95504e+07
1.95505e+07
1.95506e+07
1.95507e+07
1.95508e+07
1.95509e+07
1.9551e+07
1.95511e+07
1.95512e+07
1.95513e+07
1.95514e+07
1.95516e+07
1.95517e+07
1.95518e+07
1.9552e+07
1.95521e+07
1.95522e+07
1.95524e+07
1.95526e+07
1.95527e+07
1.95529e+07
1.95531e+07
1.95533e+07
1.95536e+07
1.9554e+07
1.95545e+07
1.95549e+07
1.95548e+07
1.95542e+07
1.95535e+07
1.95537e+07
1.95541e+07
1.95545e+07
1.95548e+07
1.9555e+07
1.95552e+07
1.95553e+07
1.95555e+07
1.95557e+07
1.95559e+07
1.9556e+07
1.95562e+07
1.95565e+07
1.95567e+07
1.9557e+07
1.95572e+07
1.95575e+07
1.95578e+07
1.9558e+07
1.95582e+07
1.95583e+07
1.95585e+07
1.95587e+07
1.95589e+07
1.95588e+07
1.95473e+07
1.95473e+07
1.95473e+07
1.95474e+07
1.95475e+07
1.95474e+07
1.95473e+07
1.95475e+07
1.95476e+07
1.95476e+07
1.95475e+07
1.95478e+07
1.95481e+07
1.95481e+07
1.95478e+07
1.9548e+07
1.95485e+07
1.95487e+07
1.95486e+07
1.95477e+07
1.95476e+07
1.95483e+07
1.95489e+07
1.9549e+07
1.95487e+07
1.95481e+07
1.95479e+07
1.95488e+07
1.95496e+07
1.95497e+07
1.95494e+07
1.95485e+07
1.95478e+07
1.9548e+07
1.95486e+07
1.9549e+07
1.95493e+07
1.95495e+07
1.95496e+07
1.95498e+07
1.95499e+07
1.955e+07
1.95501e+07
1.95502e+07
1.95503e+07
1.95504e+07
1.95505e+07
1.95506e+07
1.95507e+07
1.95508e+07
1.95509e+07
1.9551e+07
1.95511e+07
1.95512e+07
1.95513e+07
1.95514e+07
1.95516e+07
1.95517e+07
1.95518e+07
1.9552e+07
1.95521e+07
1.95522e+07
1.95524e+07
1.95526e+07
1.95527e+07
1.95529e+07
1.95531e+07
1.95533e+07
1.95536e+07
1.9554e+07
1.95545e+07
1.95549e+07
1.95549e+07
1.95542e+07
1.95535e+07
1.95537e+07
1.95541e+07
1.95545e+07
1.95548e+07
1.9555e+07
1.95552e+07
1.95553e+07
1.95555e+07
1.95557e+07
1.95559e+07
1.9556e+07
1.95562e+07
1.95565e+07
1.95567e+07
1.9557e+07
1.95572e+07
1.95575e+07
1.95578e+07
1.9558e+07
1.95582e+07
1.95583e+07
1.95585e+07
1.95587e+07
1.95589e+07
1.95588e+07
1.95476e+07
1.95477e+07
1.95477e+07
1.95479e+07
1.95481e+07
1.9548e+07
1.95478e+07
1.95479e+07
1.95483e+07
1.95482e+07
1.9548e+07
1.9548e+07
1.95486e+07
1.95487e+07
1.9548e+07
1.9548e+07
1.95484e+07
1.95491e+07
1.95492e+07
1.95476e+07
1.95475e+07
1.95479e+07
1.95487e+07
1.95497e+07
1.95492e+07
1.95478e+07
1.95477e+07
1.95483e+07
1.95495e+07
1.95505e+07
1.955e+07
1.95484e+07
1.95477e+07
1.95481e+07
1.95487e+07
1.95492e+07
1.95496e+07
1.95499e+07
1.955e+07
1.95501e+07
1.95502e+07
1.95503e+07
1.95504e+07
1.95505e+07
1.95506e+07
1.95506e+07
1.95507e+07
1.95508e+07
1.95508e+07
1.95509e+07
1.9551e+07