/*--------------------------------*- C++ -*----------------------------------*\
| =========                 |                                                 |
| \\      /  F ield         | OpenFOAM: The Open Source CFD Toolbox           |
|  \\    /   O peration     | Version:  3.0.x                                 |
|   \\  /    A nd           | Web:      www.OpenFOAM.org                      |
|    \\/     M anipulation  |                                                 |
\*---------------------------------------------------------------------------*/
FoamFile
{
    version     2.0;
    format      ascii;
    class       volScalarField;
    location    "0.52";
    object      T;
}
// * * * * * * * * * * * * * * * * * * * * * * * * * * * * * * * * * * * * * //

dimensions      [0 0 0 1 0 0 0];

internalField   nonuniform List<scalar> 
6900
(
775.692
775.682
775.669
775.659
775.654
775.653
775.653
775.655
775.658
775.662
775.667
775.672
775.678
775.683
775.69
775.696
775.703
775.711
775.719
775.727
775.735
775.745
775.754
775.764
775.774
775.785
775.796
775.807
775.819
775.831
775.844
775.857
775.87
775.883
775.897
775.911
775.926
775.94
775.955
775.971
775.987
776.003
776.019
776.035
776.051
776.066
776.081
776.096
776.112
776.13
776.148
776.166
776.185
776.204
776.224
776.243
776.262
776.281
776.3
776.319
776.338
776.357
776.376
776.397
776.419
776.442
776.466
776.49
776.514
776.538
776.562
776.585
776.609
776.633
776.658
776.683
776.708
776.734
776.761
776.788
776.816
776.844
776.872
776.901
776.93
776.959
776.989
777.019
777.049
777.079
777.109
777.14
777.171
777.202
777.234
777.266
777.297
777.33
777.362
777.395
777.428
777.461
777.494
777.528
777.562
777.596
777.63
777.665
777.7
777.735
777.77
777.805
777.841
777.876
777.912
777.948
777.984
778.02
778.057
778.093
778.13
778.166
778.203
778.24
778.277
778.314
778.351
778.388
778.425
778.462
778.499
778.536
778.574
778.611
778.648
778.686
778.724
778.761
778.799
778.836
778.874
778.912
778.95
778.988
779.026
779.064
779.102
779.14
779.178
779.216
779.254
779.292
779.33
779.368
779.406
779.444
779.483
779.521
779.559
779.597
779.635
779.673
779.711
779.749
779.787
779.825
779.863
779.901
779.939
779.977
780.015
780.052
780.09
780.128
780.165
780.203
780.24
780.277
780.314
780.351
780.388
780.425
780.461
780.499
780.533
780.572
780.605
780.645
780.676
780.718
780.746
780.79
780.816
780.861
780.887
780.931
780.959
780.995
781.035
781.063
775.688
775.678
775.665
775.655
775.65
775.649
775.65
775.651
775.654
775.658
775.663
775.668
775.674
775.68
775.686
775.693
775.7
775.707
775.715
775.723
775.732
775.741
775.751
775.761
775.771
775.782
775.793
775.804
775.816
775.828
775.84
775.853
775.866
775.88
775.894
775.908
775.922
775.937
775.952
775.968
775.984
776
776.016
776.032
776.048
776.063
776.078
776.093
776.109
776.127
776.145
776.163
776.182
776.201
776.221
776.24
776.26
776.279
776.298
776.316
776.335
776.354
776.374
776.395
776.416
776.439
776.463
776.487
776.511
776.535
776.559
776.583
776.607
776.631
776.655
776.68
776.706
776.732
776.759
776.786
776.813
776.842
776.87
776.899
776.928
776.957
776.986
777.016
777.046
777.077
777.107
777.138
777.169
777.2
777.231
777.263
777.295
777.327
777.36
777.392
777.425
777.458
777.492
777.526
777.559
777.594
777.628
777.662
777.697
777.732
777.767
777.803
777.838
777.874
777.91
777.946
777.982
778.018
778.054
778.091
778.127
778.164
778.201
778.237
778.274
778.311
778.348
778.385
778.422
778.459
778.497
778.534
778.571
778.609
778.646
778.684
778.721
778.759
778.796
778.834
778.872
778.91
778.948
778.985
779.023
779.061
779.099
779.137
779.175
779.213
779.252
779.29
779.328
779.366
779.404
779.442
779.48
779.518
779.557
779.595
779.633
779.671
779.709
779.747
779.785
779.823
779.861
779.899
779.937
779.975
780.012
780.05
780.088
780.125
780.163
780.2
780.237
780.275
780.312
780.349
780.386
780.423
780.459
780.497
780.531
780.57
780.603
780.643
780.674
780.716
780.744
780.788
780.814
780.859
780.884
780.93
780.953
781
781.022
781.07
775.689
775.678
775.665
775.656
775.651
775.65
775.65
775.651
775.654
775.659
775.663
775.668
775.674
775.68
775.686
775.693
775.7
775.707
775.715
775.723
775.732
775.741
775.751
775.761
775.771
775.782
775.793
775.804
775.816
775.828
775.841
775.853
775.866
775.88
775.894
775.908
775.923
775.937
775.952
775.968
775.984
776
776.016
776.032
776.048
776.063
776.078
776.093
776.109
776.127
776.145
776.163
776.182
776.202
776.221
776.24
776.26
776.279
776.298
776.316
776.335
776.354
776.374
776.395
776.417
776.439
776.463
776.487
776.511
776.535
776.559
776.583
776.607
776.631
776.655
776.68
776.706
776.732
776.759
776.786
776.813
776.842
776.87
776.899
776.928
776.957
776.986
777.016
777.046
777.077
777.107
777.138
777.169
777.2
777.231
777.263
777.295
777.327
777.36
777.392
777.425
777.458
777.492
777.526
777.559
777.594
777.628
777.662
777.697
777.732
777.767
777.803
777.838
777.874
777.91
777.946
777.982
778.018
778.054
778.091
778.127
778.164
778.201
778.237
778.274
778.311
778.348
778.385
778.422
778.459
778.497
778.534
778.571
778.609
778.646
778.684
778.721
778.759
778.796
778.834
778.872
778.91
778.948
778.985
779.023
779.061
779.099
779.137
779.175
779.213
779.252
779.29
779.328
779.366
779.404
779.442
779.48
779.518
779.557
779.595
779.633
779.671
779.709
779.747
779.785
779.823
779.861
779.899
779.937
779.975
780.012
780.05
780.088
780.125
780.163
780.2
780.237
780.275
780.312
780.349
780.386
780.423
780.459
780.496
780.532
780.569
780.604
780.641
780.676
780.713
780.748
780.783
780.818
780.856
780.887
780.926
780.959
780.992
781.027
781.064
775.688
775.678
775.665
775.655
775.65
775.649
775.65
775.651
775.654
775.658
775.663
775.668
775.674
775.68
775.686
775.693
775.7
775.707
775.715
775.723
775.732
775.741
775.751
775.761
775.771
775.782
775.793
775.804
775.816
775.828
775.84
775.853
775.866
775.88
775.894
775.908
775.922
775.937
775.952
775.968
775.984
776
776.016
776.032
776.048
776.063
776.078
776.093
776.109
776.127
776.145
776.163
776.182
776.201
776.221
776.24
776.26
776.279
776.298
776.316
776.335
776.354
776.374
776.395
776.416
776.439
776.463
776.487
776.511
776.535
776.559
776.583
776.607
776.631
776.655
776.68
776.706
776.732
776.759
776.786
776.813
776.842
776.87
776.899
776.928
776.957
776.986
777.016
777.046
777.077
777.107
777.138
777.169
777.2
777.231
777.263
777.295
777.327
777.36
777.392
777.425
777.458
777.492
777.526
777.559
777.594
777.628
777.662
777.697
777.732
777.767
777.803
777.838
777.874
777.91
777.946
777.982
778.018
778.054
778.091
778.127
778.164
778.201
778.237
778.274
778.311
778.348
778.385
778.422
778.459
778.497
778.534
778.571
778.609
778.646
778.684
778.721
778.759
778.796
778.834
778.872
778.91
778.948
778.985
779.023
779.061
779.099
779.137
779.175
779.213
779.252
779.29
779.328
779.366
779.404
779.442
779.48
779.518
779.557
779.595
779.633
779.671
779.709
779.747
779.785
779.823
779.861
779.899
779.937
779.975
780.012
780.05
780.088
780.125
780.163
780.2
780.238
780.275
780.312
780.349
780.386
780.422
780.46
780.495
780.533
780.567
780.607
780.639
780.679
780.709
780.752
780.779
780.824
780.848
780.895
780.918
780.965
780.987
781.032
781.064
775.692
775.682
775.669
775.659
775.654
775.653
775.653
775.655
775.658
775.662
775.667
775.672
775.678
775.683
775.69
775.696
775.703
775.711
775.719
775.727
775.735
775.745
775.754
775.764
775.774
775.785
775.796
775.807
775.819
775.831
775.844
775.857
775.87
775.883
775.897
775.911
775.926
775.94
775.955
775.971
775.987
776.003
776.019
776.035
776.051
776.066
776.081
776.096
776.112
776.13
776.148
776.166
776.185
776.204
776.224
776.243
776.262
776.281
776.3
776.319
776.338
776.357
776.376
776.397
776.419
776.442
776.466
776.49
776.514
776.538
776.562
776.585
776.609
776.633
776.658
776.683
776.708
776.734
776.761
776.788
776.816
776.844
776.872
776.901
776.93
776.959
776.989
777.019
777.049
777.079
777.109
777.14
777.171
777.202
777.234
777.266
777.297
777.33
777.362
777.395
777.428
777.461
777.494
777.528
777.562
777.596
777.63
777.665
777.7
777.735
777.77
777.805
777.841
777.876
777.912
777.948
777.984
778.02
778.057
778.093
778.13
778.166
778.203
778.24
778.277
778.314
778.351
778.388
778.425
778.462
778.499
778.536
778.574
778.611
778.648
778.686
778.724
778.761
778.799
778.836
778.874
778.912
778.95
778.988
779.026
779.064
779.102
779.14
779.178
779.216
779.254
779.292
779.33
779.368
779.406
779.444
779.483
779.521
779.559
779.597
779.635
779.673
779.711
779.749
779.787
779.825
779.863
779.901
779.939
779.977
780.015
780.052
780.09
780.128
780.165
780.202
780.24
780.277
780.314
780.351
780.388
780.424
780.462
780.497
780.536
780.569
780.609
780.641
780.682
780.711
780.754
780.781
780.826
780.851
780.898
780.92
780.967
780.989
781.036
781.076
781.087
781.099
781.109
781.118
781.128
781.137
781.145
781.159
781.176
781.189
781.195
781.196
781.195
781.196
781.203
781.209
781.221
781.249
781.275
781.261
781.089
781.099
781.107
781.115
781.122
781.13
781.136
781.144
781.159
781.174
781.179
781.177
781.175
781.179
781.19
781.194
781.202
781.223
781.247
781.246
781.085
781.091
781.096
781.101
781.106
781.112
781.118
781.123
781.13
781.138
781.143
781.154
781.166
781.171
781.178
781.19
781.208
781.217
781.231
781.242
781.077
781.082
781.086
781.089
781.092
781.094
781.096
781.098
781.1
781.102
781.104
781.107
781.109
781.112
781.115
781.119
781.122
781.125
781.129
781.129
781.076
781.078
781.08
781.082
781.084
781.085
781.086
781.087
781.088
781.09
781.091
781.092
781.094
781.096
781.098
781.1
781.103
781.106
781.109
781.113
781.232
781.259
781.278
781.281
781.301
781.349
781.372
781.383
781.4
781.427
781.454
781.483
781.505
781.523
781.544
781.571
781.597
781.621
781.641
781.663
781.684
781.707
781.729
781.754
781.776
781.798
781.82
781.841
781.863
781.886
781.91
781.933
781.956
781.978
782
782.021
782.045
782.068
782.089
782.11
782.13
782.151
782.172
782.193
782.214
782.234
782.254
782.274
782.294
782.314
782.333
782.353
782.372
782.392
782.411
782.431
782.45
782.469
782.488
782.507
782.526
782.544
782.562
782.58
782.597
782.615
782.631
782.648
782.665
782.681
782.698
782.714
782.73
782.746
782.762
782.778
782.794
782.809
782.824
782.841
782.857
782.873
782.889
782.904
782.919
782.932
782.946
782.96
782.978
782.997
783.013
783.028
783.04
783.053
783.064
783.075
783.088
783.1
783.112
783.129
783.149
783.164
783.17
783.177
783.197
783.229
783.249
783.253
783.254
783.26
783.302
783.4
783.458
783.467
783.456
783.407
783.347
783.311
783.297
783.3
783.319
783.338
783.353
783.365
783.377
783.388
783.398
783.407
783.416
783.425
783.434
783.442
783.45
783.458
783.466
783.474
783.481
783.488
783.495
783.502
783.509
783.516
783.522
783.528
783.535
783.541
783.547
783.553
783.558
783.564
783.569
783.575
783.58
783.585
783.59
783.595
783.6
783.604
783.609
783.613
783.618
783.622
783.626
783.63
783.634
783.638
783.642
783.645
783.649
783.652
783.655
783.659
783.662
783.665
783.668
783.671
783.674
783.676
783.68
783.681
783.686
783.686
783.691
783.691
783.696
783.696
783.701
783.7
783.706
783.704
783.71
783.708
783.714
783.712
783.717
783.716
783.719
783.723
783.719
783.724
781.244
781.28
781.289
781.301
781.364
781.404
781.407
781.416
781.467
781.499
781.504
781.52
781.569
781.598
781.602
781.608
781.631
781.678
781.714
781.721
781.723
781.734
781.76
781.794
781.816
781.829
781.843
781.862
781.884
781.906
781.929
781.951
781.974
781.995
782.017
782.039
782.068
782.098
782.115
782.131
782.149
782.169
782.189
782.209
782.23
782.25
782.27
782.289
782.309
782.329
782.348
782.368
782.388
782.408
782.427
782.447
782.466
782.486
782.504
782.523
782.541
782.559
782.577
782.594
782.611
782.628
782.645
782.661
782.678
782.694
782.711
782.727
782.743
782.759
782.776
782.792
782.808
782.825
782.841
782.858
782.874
782.89
782.904
782.919
782.935
782.952
782.971
782.992
783.014
783.038
783.054
783.062
783.066
783.074
783.084
783.096
783.109
783.126
783.144
783.156
783.163
783.177
783.205
783.233
783.245
783.247
783.25
783.263
783.313
783.392
783.451
783.471
783.469
783.45
783.394
783.343
783.31
783.295
783.296
783.31
783.328
783.342
783.354
783.366
783.377
783.387
783.396
783.406
783.415
783.423
783.432
783.44
783.448
783.456
783.464
783.472
783.479
783.486
783.493
783.5
783.507
783.514
783.52
783.526
783.533
783.539
783.545
783.551
783.556
783.562
783.567
783.573
783.578
783.583
783.588
783.593
783.598
783.603
783.607
783.612
783.616
783.62
783.624
783.628
783.632
783.636
783.64
783.643
783.647
783.65
783.654
783.657
783.66
783.663
783.666
783.669
783.672
783.674
783.678
783.679
783.684
783.684
783.689
783.689
783.694
783.694
783.699
783.698
783.704
783.702
783.708
783.707
783.712
783.71
783.715
783.714
783.718
783.718
783.718
783.725
781.327
781.365
781.421
781.478
781.533
781.579
781.621
781.662
781.701
781.731
781.758
781.787
781.817
781.839
781.857
781.878
781.903
781.929
781.95
781.966
781.983
782.004
782.028
782.051
782.071
782.091
782.111
782.132
782.153
782.174
782.194
782.215
782.235
782.257
782.278
782.3
782.324
782.345
782.364
782.383
782.403
782.422
782.442
782.461
782.479
782.498
782.516
782.535
782.553
782.572
782.59
782.609
782.628
782.648
782.668
782.688
782.708
782.727
782.746
782.765
782.783
782.801
782.819
782.837
782.855
782.873
782.892
782.91
782.928
782.946
782.965
782.985
783.005
783.025
783.045
783.063
783.084
783.105
783.125
783.142
783.153
783.149
783.14
783.123
783.094
783.069
783.051
783.038
783.029
783.026
783.027
783.032
783.04
783.053
783.068
783.084
783.101
783.118
783.134
783.149
783.163
783.176
783.188
783.199
783.209
783.219
783.228
783.236
783.244
783.252
783.259
783.265
783.272
783.28
783.288
783.296
783.306
783.315
783.325
783.335
783.344
783.354
783.363
783.372
783.381
783.39
783.399
783.407
783.416
783.424
783.433
783.441
783.449
783.456
783.464
783.472
783.479
783.486
783.493
783.5
783.507
783.514
783.52
783.526
783.533
783.539
783.545
783.551
783.556
783.562
783.567
783.573
783.578
783.583
783.588
783.593
783.598
783.603
783.607
783.612
783.616
783.62
783.624
783.628
783.632
783.636
783.64
783.643
783.647
783.65
783.653
783.657
783.66
783.663
783.666
783.669
783.672
783.675
783.677
783.681
783.682
783.686
783.688
783.691
783.693
783.695
783.698
783.7
783.701
783.706
783.705
783.709
783.71
783.711
783.714
783.716
783.716
783.719
783.721
783.723
781.143
781.17
781.204
781.247
781.284
781.309
781.334
781.367
781.402
781.43
781.455
781.483
781.513
781.541
781.564
781.588
781.614
781.642
781.667
781.688
781.709
781.732
781.756
781.78
781.802
781.823
781.844
781.866
781.887
781.909
781.93
781.951
781.972
781.993
782.014
782.036
782.057
782.079
782.099
782.119
782.139
782.16
782.181
782.201
782.222
782.243
782.263
782.283
782.303
782.323
782.343
782.363
782.382
782.401
782.42
782.439
782.458
782.477
782.495
782.514
782.532
782.551
782.569
782.587
782.605
782.623
782.64
782.658
782.675
782.692
782.708
782.724
782.741
782.757
782.773
782.789
782.804
782.82
782.835
782.85
782.865
782.88
782.896
782.909
782.922
782.936
782.953
782.968
782.982
783
783.022
783.038
783.049
783.06
783.077
783.096
783.114
783.131
783.15
783.171
783.193
783.218
783.243
783.265
783.293
783.331
783.375
783.405
783.408
783.403
783.382
783.339
783.301
783.274
783.262
783.263
783.278
783.295
783.31
783.323
783.335
783.347
783.358
783.368
783.378
783.388
783.397
783.406
783.415
783.424
783.432
783.44
783.448
783.456
783.464
783.472
783.479
783.486
783.493
783.5
783.507
783.514
783.52
783.526
783.533
783.539
783.545
783.551
783.556
783.562
783.567
783.573
783.578
783.583
783.588
783.593
783.598
783.603
783.607
783.612
783.616
783.62
783.624
783.628
783.632
783.636
783.64
783.643
783.647
783.65
783.653
783.657
783.66
783.663
783.666
783.669
783.672
783.675
783.677
783.681
783.682
783.687
783.687
783.692
783.691
783.697
783.696
783.701
783.7
783.706
783.704
783.71
783.708
783.714
783.712
783.717
783.716
783.72
783.719
783.722
781.133
781.171
781.203
781.242
781.282
781.319
781.353
781.39
781.428
781.463
781.496
781.529
781.564
781.598
781.629
781.659
781.69
781.723
781.754
781.781
781.806
781.832
781.859
781.885
781.909
781.932
781.955
781.978
782.002
782.025
782.047
782.07
782.092
782.115
782.137
782.159
782.182
782.204
782.226
782.247
782.268
782.29
782.311
782.332
782.352
782.372
782.392
782.412
782.431
782.451
782.47
782.489
782.509
782.528
782.547
782.566
782.586
782.604
782.623
782.642
782.66
782.678
782.695
782.713
782.73
782.747
782.764
782.78
782.797
782.813
782.829
782.844
782.86
782.875
782.89
782.906
782.921
782.936
782.951
782.967
782.983
782.998
783.013
783.029
783.045
783.061
783.076
783.091
783.105
783.119
783.134
783.15
783.163
783.17
783.178
783.199
783.232
783.252
783.255
783.255
783.266
783.334
783.425
783.459
783.457
783.434
783.375
783.329
783.298
783.278
783.268
783.265
783.271
783.279
783.288
783.297
783.307
783.317
783.327
783.336
783.346
783.355
783.364
783.374
783.383
783.392
783.401
783.409
783.418
783.426
783.434
783.443
783.451
783.458
783.466
783.474
783.481
783.488
783.495
783.502
783.509
783.516
783.522
783.528
783.535
783.541
783.547
783.553
783.558
783.564
783.569
783.575
783.58
783.585
783.59
783.595
783.6
783.604
783.609
783.613
783.618
783.622
783.626
783.63
783.634
783.638
783.642
783.645
783.649
783.652
783.655
783.659
783.662
783.665
783.668
783.671
783.674
783.677
783.679
783.683
783.684
783.688
783.689
783.694
783.693
783.699
783.698
783.703
783.702
783.708
783.706
783.712
783.71
783.714
783.717
783.715
783.722
783.72
783.721
783.725
783.727
783.728
783.729
783.729
783.729
783.728
783.727
783.725
783.723
783.721
783.719
783.717
783.716
783.714
783.713
783.711
783.71
783.708
783.708
783.705
783.724
783.724
783.723
783.722
783.721
783.72
783.718
783.717
783.715
783.713
783.713
783.713
783.712
783.711
783.711
783.711
783.713
783.714
783.716
783.718
783.723
783.723
783.723
783.723
783.724
783.724
783.725
783.728
783.73
783.731
783.734
783.737
783.738
783.742
783.751
783.755
783.761
783.764
783.773
783.78
783.725
783.726
783.727
783.728
783.729
783.731
783.733
783.738
783.742
783.743
783.742
783.741
783.742
783.747
783.747
783.749
783.76
783.769
783.768
783.768
783.727
783.729
783.73
783.731
783.732
783.734
783.736
783.74
783.743
783.745
783.744
783.744
783.743
783.743
783.744
783.752
783.775
783.779
783.776
783.763
783.703
783.701
783.7
783.705
783.717
783.723
783.726
783.731
783.746
783.763
783.769
783.773
783.783
783.803
783.815
783.817
783.821
783.831
783.854
783.862
783.86
783.858
783.861
783.878
783.897
783.9
783.891
783.886
783.888
783.9
783.915
783.914
783.903
783.896
783.898
783.902
783.904
783.906
783.906
783.907
783.907
783.907
783.907
783.907
783.907
783.906
783.906
783.906
783.905
783.905
783.905
783.906
783.906
783.906
783.907
783.908
783.908
783.909
783.91
783.911
783.911
783.911
783.912
783.912
783.913
783.913
783.914
783.915
783.916
783.919
783.918
783.918
783.922
783.925
783.923
783.917
783.918
783.921
783.924
783.926
783.926
783.926
783.93
783.933
783.932
783.931
783.933
783.948
783.957
783.953
783.951
783.992
784.107
784.139
784.107
784.002
783.935
783.915
783.912
783.887
783.73
783.74
783.753
783.78
783.798
783.797
783.79
783.795
783.827
783.834
783.824
783.819
783.839
783.85
783.84
783.824
783.828
783.858
783.866
783.851
783.824
783.818
783.837
783.869
783.871
783.853
783.822
783.813
783.829
783.858
783.862
783.846
783.816
783.799
783.798
783.801
783.804
783.804
783.804
783.803
783.801
783.8
783.798
783.797
783.795
783.794
783.792
783.791
783.79
783.789
783.788
783.788
783.787
783.787
783.787
783.787
783.788
783.788
783.789
783.79
783.791
783.792
783.794
783.794
783.796
783.798
783.799
783.801
783.803
783.805
783.807
783.816
783.823
783.822
783.817
783.808
783.806
783.806
783.809
783.812
783.813
783.814
783.816
783.821
783.824
783.826
783.83
783.837
783.845
783.855
783.861
783.872
783.902
783.923
783.931
783.946
783.98
784
784.002
783.977
783.818
783.87
783.904
783.941
783.981
784.014
784.034
784.054
784.083
784.101
784.098
784.103
784.124
784.139
784.121
784.109
784.119
784.144
784.154
784.121
784.094
784.099
784.124
784.15
784.143
784.101
784.072
784.081
784.108
784.137
784.137
784.101
784.053
784.034
784.033
784.034
784.034
784.034
784.032
784.031
784.03
784.029
784.028
784.027
784.028
784.027
784.028
784.028
784.028
784.029
784.029
784.03
784.03
784.03
784.032
784.034
784.036
784.039
784.041
784.043
784.045
784.048
784.052
784.055
784.058
784.063
784.07
784.077
784.083
784.084
784.084
784.091
784.087
784.028
783.951
783.901
783.87
783.844
783.825
783.815
783.812
783.812
783.813
783.817
783.82
783.826
783.83
783.834
783.837
783.84
783.839
783.844
783.841
783.842
783.842
783.837
783.835
783.831
783.826
783.818
783.797
783.814
783.795
783.793
783.85
783.915
783.902
783.844
783.856
783.948
783.942
783.877
783.876
783.972
783.989
783.924
783.862
783.897
784.008
784.007
783.96
783.858
783.855
783.95
784.005
784
783.953
783.85
783.839
783.923
783.987
783.982
783.971
783.86
783.798
783.781
783.78
783.782
783.784
783.785
783.785
783.785
783.786
783.786
783.787
783.787
783.788
783.788
783.789
783.789
783.79
783.791
783.792
783.793
783.794
783.795
783.796
783.797
783.798
783.799
783.799
783.8
783.8
783.801
783.801
783.802
783.803
783.803
783.805
783.808
783.813
783.83
783.901
783.928
783.92
783.856
783.825
783.817
783.816
783.818
783.819
783.82
783.82
783.821
783.825
783.829
783.83
783.832
783.838
783.842
783.843
783.844
783.848
783.862
783.873
783.875
783.871
783.868
783.875
783.924
783.766
783.772
783.777
783.776
783.777
783.798
783.808
783.804
783.797
783.797
783.795
783.795
783.805
783.815
783.811
783.802
783.804
783.806
783.828
783.822
783.815
783.812
783.802
783.806
783.827
783.83
783.826
783.821
783.8
783.8
783.821
783.819
783.83
783.8
783.771
783.76
783.76
783.764
783.767
783.769
783.77
783.771
783.771
783.772
783.772
783.773
783.773
783.774
783.774
783.775
783.775
783.775
783.776
783.777
783.778
783.779
783.78
783.781
783.782
783.783
783.785
783.786
783.786
783.787
783.788
783.789
783.79
783.79
783.792
783.794
783.803
783.825
783.818
783.813
783.823
783.807
783.799
783.796
783.797
783.8
783.801
783.803
783.806
783.807
783.808
783.808
783.81
783.814
783.816
783.817
783.82
783.826
783.828
783.828
783.828
783.83
783.842
783.853
783.854
783.847
783.89
783.883
783.877
783.867
783.856
783.846
783.835
783.825
783.816
783.808
783.804
783.803
783.8
783.795
783.791
783.788
783.787
783.785
783.785
783.784
783.973
783.965
783.957
783.946
783.933
783.918
783.902
783.885
783.869
783.854
783.841
783.829
783.818
783.807
783.794
783.785
783.784
783.787
783.792
783.798
783.818
783.822
783.826
783.828
783.828
783.828
783.827
783.826
783.825
783.824
783.824
783.825
783.829
783.832
783.837
783.841
783.847
783.848
783.852
783.865
783.967
783.987
784.002
784.014
784.023
784.03
784.035
784.039
784.042
784.042
784.039
784.021
783.998
783.973
783.947
783.926
783.901
783.861
783.831
783.842
783.845
783.843
783.84
783.842
783.855
783.88
783.914
783.951
783.983
784.008
784.03
784.049
784.058
784.056
784.037
784
783.955
783.9
783.843
783.824
783.781
783.779
783.781
783.791
783.798
783.8
783.801
783.808
783.825
783.834
783.836
783.839
783.849
783.869
783.882
783.886
783.885
783.888
783.9
783.923
783.939
783.946
783.939
783.932
783.933
783.946
783.967
783.977
783.98
783.976
783.958
783.948
783.947
783.95
783.953
783.955
783.956
783.957
783.957
783.958
783.958
783.958
783.958
783.959
783.959
783.958
783.958
783.958
783.957
783.957
783.957
783.957
783.958
783.96
783.961
783.955
783.942
783.941
783.948
783.965
783.973
783.96
783.944
783.944
783.96
783.965
783.961
783.949
783.948
783.952
783.955
783.956
783.956
783.958
783.96
783.961
783.96
783.96
783.969
783.978
783.977
783.984
784.083
784.192
784.171
784.038
783.952
783.913
783.887
783.862
783.845
783.836
783.833
783.832
783.832
783.832
783.833
783.833
783.833
783.833
783.833
783.834
783.834
783.834
783.835
783.835
783.835
783.836
783.836
783.837
783.837
783.838
783.839
783.839
783.84
783.841
783.841
783.842
783.843
783.844
783.844
783.845
783.846
783.847
783.847
783.848
783.849
783.85
783.85
783.851
783.852
783.852
783.853
783.854
783.855
783.855
783.856
783.857
783.857
783.858
783.859
783.859
783.86
783.861
783.862
783.862
783.863
783.864
783.865
783.866
783.867
783.868
783.869
783.87
783.871
783.872
783.873
783.874
783.875
783.876
783.877
783.878
783.878
783.879
783.88
783.881
783.882
783.883
783.884
783.885
783.886
783.886
783.887
783.888
783.889
783.89
783.89
783.891
783.891
783.893
783.893
783.895
783.894
783.897
783.895
783.898
783.897
783.9
783.899
783.902
783.9
783.904
783.902
783.905
783.906
783.905
783.91
783.907
783.909
783.911
783.807
783.814
783.837
783.876
783.886
783.88
783.88
783.909
783.933
783.924
783.908
783.914
783.952
783.966
783.949
783.911
783.904
783.924
783.973
783.992
783.985
783.944
783.905
783.897
783.921
783.97
783.995
783.998
783.983
783.932
783.893
783.87
783.867
783.873
783.879
783.881
783.881
783.879
783.876
783.872
783.869
783.866
783.863
783.86
783.858
783.856
783.854
783.852
783.851
783.849
783.847
783.847
783.848
783.851
783.852
783.853
783.859
783.881
783.915
783.919
783.914
783.889
783.868
783.88
783.892
783.889
783.874
783.85
783.839
783.839
783.84
783.843
783.844
783.846
783.848
783.852
783.854
783.857
783.862
783.872
783.881
783.888
783.904
783.945
783.962
783.968
783.988
784.018
784.031
784.028
783.988
783.895
783.833
783.809
783.807
783.812
783.819
783.823
783.826
783.827
783.829
783.83
783.831
783.832
783.832
783.833
783.834
783.834
783.835
783.835
783.836
783.836
783.837
783.838
783.838
783.839
783.84
783.84
783.841
783.842
783.843
783.844
783.844
783.845
783.846
783.847
783.847
783.848
783.849
783.85
783.85
783.851
783.852
783.852
783.853
783.854
783.854
783.855
783.856
783.856
783.857
783.858
783.859
783.859
783.86
783.861
783.862
783.863
783.863
783.864
783.865
783.866
783.867
783.868
783.869
783.87
783.871
783.872
783.873
783.874
783.875
783.876
783.877
783.878
783.879
783.88
783.881
783.882
783.883
783.883
783.884
783.885
783.886
783.887
783.887
783.888
783.889
783.89
783.89
783.891
783.891
783.893
783.893
783.895
783.894
783.897
783.896
783.899
783.897
783.901
783.899
783.903
783.901
783.904
783.903
783.906
783.905
783.908
783.907
783.909
783.901
783.948
783.985
784.025
784.063
784.092
784.114
784.143
784.171
784.176
784.173
784.184
784.207
784.214
784.199
784.179
784.18
784.2
784.218
784.216
784.2
784.174
784.162
784.173
784.2
784.215
784.215
784.207
784.194
784.166
784.123
784.095
784.09
784.092
784.093
784.094
784.094
784.093
784.093
784.092
784.091
784.091
784.09
784.09
784.089
784.088
784.088
784.088
784.088
784.088
784.088
784.089
784.093
784.104
784.121
784.145
784.191
784.23
784.235
784.223
784.189
784.161
784.15
784.143
784.107
784.035
783.959
783.9
783.868
783.85
783.842
783.84
783.839
783.841
783.845
783.85
783.854
783.858
783.861
783.863
783.865
783.867
783.868
783.867
783.865
783.863
783.86
783.857
783.855
783.852
783.848
783.844
783.839
783.835
783.832
783.831
783.831
783.831
783.832
783.832
783.832
783.832
783.833
783.833
783.833
783.834
783.834
783.834
783.835
783.835
783.836
783.836
783.837
783.838
783.838
783.839
783.84
783.84
783.841
783.842
783.843
783.844
783.844
783.845
783.846
783.847
783.847
783.848
783.849
783.85
783.85
783.851
783.852
783.852
783.853
783.854
783.854
783.855
783.856
783.856
783.857
783.858
783.859
783.859
783.86
783.861
783.862
783.863
783.863
783.864
783.865
783.866
783.867
783.868
783.869
783.87
783.871
783.872
783.873
783.874
783.875
783.876
783.877
783.878
783.879
783.88
783.881
783.882
783.883
783.883
783.884
783.885
783.886
783.887
783.887
783.888
783.889
783.89
783.89
783.891
783.892
783.893
783.893
783.894
783.895
783.896
783.897
783.898
783.898
783.9
783.899
783.902
783.902
783.902
783.904
783.905
783.905
783.907
783.908
783.91
783.886
783.89
783.865
783.881
783.971
783.993
783.943
783.926
784.011
784.064
784.006
783.944
783.998
784.114
784.122
784.082
783.959
783.96
784.062
784.121
784.121
784.113
784.049
783.943
783.962
784.041
784.075
784.08
784.072
784.065
784.071
783.984
783.878
783.838
783.832
783.834
783.838
783.84
783.842
783.843
783.843
783.844
783.845
783.845
783.845
783.845
783.845
783.845
783.844
783.844
783.844
783.844
783.844
783.844
783.847
783.851
783.902
784.049
784.117
784.113
784.103
784.046
783.947
783.952
783.994
783.974
783.983
783.949
783.877
783.851
783.845
783.846
783.847
783.848
783.848
783.85
783.854
783.855
783.858
783.861
783.864
783.865
783.865
783.869
783.882
783.894
783.896
783.894
783.895
783.915
783.992
784.05
784.06
784.028
783.92
783.838
783.811
783.811
783.818
783.824
783.827
783.829
783.83
783.831
783.832
783.833
783.833
783.834
783.835
783.835
783.836
783.836
783.837
783.838
783.838
783.839
783.84
783.84
783.841
783.842
783.843
783.844
783.844
783.845
783.846
783.847
783.847
783.848
783.849
783.85
783.85
783.851
783.852
783.852
783.853
783.854
783.854
783.855
783.856
783.856
783.857
783.858
783.859
783.859
783.86
783.861
783.862
783.863
783.863
783.864
783.865
783.866
783.867
783.868
783.869
783.87
783.871
783.872
783.873
783.874
783.875
783.876
783.877
783.878
783.879
783.88
783.881
783.882
783.883
783.883
783.884
783.885
783.886
783.886
783.887
783.888
783.889
783.889
783.891
783.891
783.893
783.892
783.894
783.893
783.896
783.895
783.898
783.896
783.9
783.898
783.902
783.9
783.903
783.902
783.905
783.904
783.906
783.908
783.905
783.911
783.843
783.842
783.835
783.837
783.865
783.884
783.883
783.879
783.88
783.893
783.886
783.884
783.885
783.924
783.945
783.941
783.916
783.89
783.89
783.945
783.973
783.976
783.97
783.945
783.885
783.881
783.917
783.946
783.951
783.949
783.966
783.942
783.879
783.828
783.816
783.816
783.82
783.824
783.825
783.827
783.827
783.828
783.829
783.829
783.83
783.831
783.831
783.831
783.831
783.831
783.83
783.83
783.83
783.832
783.837
783.851
783.859
783.876
783.943
783.959
783.952
783.949
783.936
783.885
783.872
783.869
783.886
783.875
783.848
783.827
783.824
783.825
783.829
783.832
783.834
783.835
783.836
783.837
783.839
783.841
783.843
783.846
783.85
783.851
783.851
783.85
783.852
783.862
783.872
783.874
783.874
783.886
783.966
784.037
784.03
783.925
783.828
783.807
783.811
783.821