/*--------------------------------*- C++ -*----------------------------------*\
| =========                 |                                                 |
| \\      /  F ield         | OpenFOAM: The Open Source CFD Toolbox           |
|  \\    /   O peration     | Version:  3.0.x                                 |
|   \\  /    A nd           | Web:      www.OpenFOAM.org                      |
|    \\/     M anipulation  |                                                 |
\*---------------------------------------------------------------------------*/
FoamFile
{
    version     2.0;
    format      ascii;
    class       surfaceScalarField;
    location    "0.37";
    object      phi;
}
// * * * * * * * * * * * * * * * * * * * * * * * * * * * * * * * * * * * * * //

dimensions      [1 0 -1 0 0 0 0];

internalField   nonuniform List<scalar> 
52430
(
3.9061
0.000243625
3.90592
0.000176135
3.90575
0.000169102
3.90558
0.000170335
3.90541
0.000170751
3.90524
0.000170696
3.90507
0.00017066
3.9049
0.000170663
3.90473
0.000170665
3.90456
0.000170663
3.90439
0.00017066
3.90421
0.000170656
3.90404
0.000170653
3.90387
0.000170649
3.9037
0.000170646
3.90353
0.000170642
3.90336
0.000170638
3.90319
0.000170634
3.90302
0.00017063
3.90285
0.000170626
3.90268
0.000170622
3.90251
0.000170617
3.90234
0.000170612
3.90217
0.000170611
3.902
0.000170604
3.90182
0.000170599
3.90165
0.000170593
3.90148
0.000170582
3.90131
0.000170599
3.90114
0.000170584
3.90097
0.000170557
3.9008
0.000170563
3.90063
0.000170556
3.90046
0.000170549
3.90029
0.000170543
3.90012
0.000170532
3.89994
0.000170524
3.89977
0.000170521
3.89959
0.00017051
3.89942
0.000170503
3.89925
0.000170496
3.89907
0.00017049
3.8989
0.000170485
3.89873
0.000170469
3.89856
0.000170468
3.89839
0.000170472
3.89823
0.00017049
3.89806
0.000170468
3.89789
0.000170468
3.89772
0.000170467
3.89756
0.000170465
3.89739
0.000170464
3.89722
0.000170462
3.89705
0.00017046
3.89688
0.000170457
3.89671
0.000170454
3.89654
0.000170449
3.89636
0.000170447
3.89619
0.00017044
3.89602
0.000170374
3.89584
0.00017049
3.89567
0.000170424
3.8955
0.000170416
3.89532
0.000170409
3.89515
0.000170402
3.89498
0.000170395
3.89481
0.000170343
3.89464
0.000170436
3.89447
0.000170377
3.8943
0.000170375
3.89413
0.000170373
3.89396
0.00017037
3.89379
0.000170348
3.89362
0.000170372
3.89345
0.000170375
3.89328
0.000170348
3.89311
0.000170353
3.89294
0.000170341
3.89277
0.000170481
3.8926
0.000170268
3.89243
0.00017035
3.89227
0.000170353
3.8921
0.00017035
3.89193
0.000170347
3.89176
0.000170344
3.89159
0.000170338
3.89142
0.00017033
3.89125
0.00017032
3.89108
0.000170305
3.89091
0.000170292
3.89074
0.00017027
3.89057
0.000170231
3.89039
0.000169944
3.89022
0.0001703
3.89005
0.000170024
3.88987
0.000169907
3.8897
0.000169762
3.88953
0.000169576
3.88936
0.00016934
3.88919
0.00016899
3.88902
0.000168678
3.88885
0.000168478
3.88869
0.000167496
3.88852
0.000167
3.88836
0.000166201
3.8882
0.000165238
3.88803
0.000164102
3.88787
0.00016277
3.88771
0.000161222
3.88755
0.000159439
3.8874
0.000157401
3.88724
0.000155093
3.88709
0.0001525
3.88694
0.00014961
3.88679
0.000146415
3.88665
0.000142913
3.88651
0.000139104
3.88637
0.000134995
3.88624
0.000130595
3.88611
0.000125921
3.88599
0.000120995
3.88587
0.000115842
3.88576
0.000110492
3.88566
0.000104981
3.88556
9.93447e-05
3.88546
9.3623e-05
3.88537
8.78573e-05
3.88529
8.20889e-05
3.88521
7.63598e-05
3.88514
7.071e-05
3.88507
6.51766e-05
3.88501
5.97943e-05
3.88496
5.46003e-05
3.88491
4.96178e-05
3.88486
4.48719e-05
3.88482
4.03821e-05
3.88478
3.6163e-05
3.88475
3.22247e-05
3.88472
2.85727e-05
3.88469
2.52084e-05
3.88467
2.2129e-05
3.88465
1.93295e-05
3.88463
1.67997e-05
3.88462
1.45279e-05
3.8846
1.25011e-05
3.88459
1.07049e-05
3.88458
9.12202e-06
3.88457
7.73592e-06
3.88457
6.5296e-06
3.88456
5.48606e-06
3.88455
4.58847e-06
3.88455
3.82241e-06
3.88455
3.17051e-06
3.88454
2.62022e-06
3.88454
2.15841e-06
3.88454
1.7721e-06
3.88453
1.4524e-06
3.88453
1.18827e-06
3.88453
9.71449e-07
3.88453
7.94596e-07
3.88453
6.51122e-07
3.88453
5.35372e-07
3.88452
4.42506e-07
3.88452
3.68405e-07
3.88452
3.09601e-07
3.88452
2.63193e-07
3.88452
2.26761e-07
3.88452
1.98315e-07
3.88452
1.7622e-07
3.88452
1.59149e-07
3.88452
1.4603e-07
3.88452
1.36002e-07
3.88451
1.28373e-07
3.88451
1.226e-07
3.88451
1.18253e-07
3.88451
1.14997e-07
3.88451
1.12572e-07
3.88451
1.10773e-07
3.88451
1.09443e-07
3.88451
1.08466e-07
3.88451
1.07757e-07
3.88451
1.07242e-07
3.88451
1.06869e-07
3.88451
1.06602e-07
3.8845
1.06409e-07
3.8845
1.06276e-07
3.8845
1.06182e-07
3.8845
1.06116e-07
3.8845
1.06071e-07
3.8845
1.06043e-07
3.8845
1.06027e-07
3.8845
1.06016e-07
3.8845
1.06014e-07
3.8845
1.06013e-07
3.8845
1.06018e-07
3.8845
1.06022e-07
3.88449
1.06031e-07
3.88449
1.06038e-07
3.88449
1.06047e-07
3.88449
1.06058e-07
3.88449
1.06067e-07
3.88449
1.0608e-07
3.88449
1.06094e-07
3.88449
1.06105e-07
3.88449
1.0612e-07
3.88449
1.06133e-07
3.88449
1.06145e-07
3.88448
1.0616e-07
3.88448
1.06178e-07
3.88448
1.06193e-07
3.88448
1.06211e-07
3.88448
1.06233e-07
3.88448
1.06251e-07
3.88448
1.06276e-07
3.88448
1.06356e-07
3.88448
1.06216e-07
3.88447
1.06367e-07
3.88447
1.06176e-07
3.88447
1.06578e-07
3.88447
1.06398e-07
3.88447
1.06338e-07
3.88447
1.06398e-07
3.88447
1.06405e-07
3.88447
1.0642e-07
3.88447
1.06458e-07
3.88446
1.06409e-07
3.88446
1.06431e-07
3.88446
1.06444e-07
3.88446
1.06453e-07
3.88446
1.06458e-07
3.88446
1.06464e-07
3.88446
1.06471e-07
3.88446
1.0648e-07
3.88446
1.06491e-07
3.88445
1.06502e-07
3.88445
1.06518e-07
3.88445
1.06529e-07
3.88445
1.06533e-07
3.88445
1.06542e-07
3.88445
1.06547e-07
3.88445
1.06558e-07
3.88445
1.06618e-07
3.88444
1.06504e-07
3.88444
1.06567e-07
3.88444
1.06569e-07
3.88444
1.06569e-07
3.88444
1.06567e-07
3.88444
1.06565e-07
3.88444
1.0656e-07
3.88444
1.06556e-07
3.88444
1.06553e-07
3.88443
1.06587e-07
3.88443
1.06502e-07
3.88443
1.06535e-07
3.88443
1.06527e-07
3.88443
1.06518e-07
3.88443
1.06511e-07
3.88443
1.06504e-07
3.88443
1.06491e-07
3.88443
1.06478e-07
3.88443
1.06465e-07
3.88442
1.06455e-07
3.88442
1.0644e-07
3.88442
1.06427e-07
3.88442
1.06415e-07
3.88442
1.06402e-07
3.88442
1.06473e-07
3.88442
1.06262e-07
3.88442
1.06382e-07
3.88442
1.06344e-07
3.88442
1.06325e-07
3.88442
1.06314e-07
3.88442
1.063e-07
3.88442
1.063e-07
3.88441
1.06202e-07
3.88441
1.06282e-07
3.88441
1.06229e-07
3.88441
1.06211e-07
3.88441
1.06167e-07
3.88441
1.06194e-07
3.88441
1.06158e-07
3.88441
1.0614e-07
3.88441
1.06123e-07
3.88441
1.06109e-07
3.88441
1.06085e-07
3.88441
1.06073e-07
3.88441
1.06047e-07
3.88441
1.06045e-07
3.88441
1.06016e-07
3.88441
1.06005e-07
3.88441
1.05976e-07
3.88441
1.05967e-07
3.88441
1.05952e-07
3.88441
1.0594e-07
3.88441
1.05918e-07
3.88441
1.05907e-07
3.88441
1.05889e-07
3.88441
1.05871e-07
3.88441
1.0586e-07
3.88441
1.05842e-07
3.88441
1.05832e-07
3.88441
1.05827e-07
3.88441
1.05803e-07
3.88441
1.05789e-07
3.88441
1.05782e-07
3.88441
1.0576e-07
3.88441
1.05745e-07
3.88441
1.05736e-07
3.88441
1.0572e-07
3.88441
1.05727e-07
3.88441
1.05705e-07
3.88441
1.05712e-07
3.88441
1.05694e-07
3.88441
1.057e-07
3.88441
1.05692e-07
3.88441
1.05691e-07
3.88441
1.05696e-07
3.88441
1.05692e-07
3.88441
1.05705e-07
3.88441
1.05698e-07
3.88441
1.05703e-07
3.88441
1.05705e-07
3.88441
1.05718e-07
3.88441
1.05712e-07
3.88441
1.05721e-07
3.88441
1.05721e-07
3.88441
1.05729e-07
3.88441
1.05723e-07
3.88441
1.05731e-07
3.88441
1.05731e-07
3.88441
1.05738e-07
3.88441
1.05741e-07
3.88441
1.05751e-07
3.88441
1.05756e-07
3.88441
1.05767e-07
3.88441
1.0578e-07
3.88441
1.05783e-07
3.88441
1.05803e-07
3.88441
1.05805e-07
3.88441
1.05829e-07
3.88441
1.05838e-07
3.88441
1.05856e-07
3.88441
1.05872e-07
3.88441
1.05894e-07
3.88441
1.05909e-07
3.88441
1.05929e-07
3.88441
1.05951e-07
3.88441
1.05965e-07
3.88441
1.05991e-07
3.88441
1.06013e-07
3.88441
1.06031e-07
3.88441
1.06058e-07
3.88441
1.06069e-07
3.88441
1.06103e-07
3.88441
1.06118e-07
3.88441
1.06145e-07
3.88441
1.06169e-07
3.88441
1.06191e-07
3.88441
1.06214e-07
3.88442
1.0624e-07
3.88442
1.06265e-07
3.88442
1.06285e-07
3.88442
1.06316e-07
3.88442
1.06336e-07
3.88442
1.06362e-07
3.88442
1.06385e-07
3.88442
1.06413e-07
3.88442
1.06309e-07
3.88442
1.06542e-07
3.88442
1.06529e-07
3.88442
1.06516e-07
3.88442
1.06618e-07
3.88442
1.06624e-07
3.88442
1.06578e-07
3.88442
1.06709e-07
3.88442
1.06987e-07
3.88442
1.07331e-07
3.88442
1.08228e-07
3.88442
1.10485e-07
3.88442
1.1585e-07
3.88442
1.28424e-07
3.88442
1.58503e-07
3.88442
2.30531e-07
3.88442
4.0281e-07
3.88442
8.1466e-07
3.88441
1.79927e-06
3.88441
4.15302e-06
3.8844
9.77841e-06
3.88438
2.32183e-05
3.88432
5.53145e-05
3.88419
0.000131973
3.88388
0.000314735
3.88313
0.000750223
3.88134
0.00178639
3.8771
0.00424581
3.86703
0.0100655
3.84321
0.0238171
3.78652
0.0566905
3.64515
0.141378
0.381281
3.26386
5.52447
0.000213027
5.52448
0.00017039
5.52449
0.00015621
5.5245
0.000158429
5.52451
0.000159432
5.52452
0.00015933
5.52453
0.000159262
5.52455
0.000159283
5.52456
0.000159304
5.52457
0.000159314
5.52458
0.000159322
5.52459
0.00015933
5.5246
0.000159338
5.52461
0.000159346
5.52462
0.000159353
5.52463
0.000159361
5.52464
0.000159368
5.52465
0.000159373
5.52466
0.000159381
5.52468
0.000159388
5.52469
0.000159395
5.5247
0.000159402
5.52471
0.000159405
5.52472
0.000159416
5.52473
0.000159421
5.52474
0.000159426
5.52475
0.00015943
5.52476
0.000159432
5.52477
0.000159446
5.52478
0.000159462
5.52479
0.00015944
5.5248
0.000159455
5.52481
0.000159459
5.52482
0.000159463
5.52483
0.000159467
5.52484
0.000159469
5.52485
0.000159471
5.52486
0.000159478
5.52486
0.000159479
5.52487
0.000159483
5.52487
0.000159487
5.52488
0.000159491
5.52489
0.000159496
5.5249
0.000159494
5.52491
0.000159502
5.52492
0.000159516
5.52494
0.000159541
5.52496
0.000159532
5.52497
0.000159544
5.52499
0.000159552
5.525
0.000159562
5.52501
0.000159571
5.52502
0.000159579
5.52503
0.000159588
5.52505
0.000159595
5.52506
0.000159603
5.52507
0.00015961
5.52508
0.000159618
5.52508
0.00015962
5.52509
0.000159558
5.52509
0.000159695
5.5251
0.00015964
5.52511
0.00015964
5.52511
0.000159643
5.52512
0.000159647
5.52513
0.00015965
5.52514
0.000159621
5.52515
0.000159704
5.52516
0.000159667
5.52517
0.000159673
5.52519
0.000159683
5.5252
0.00015969
5.52521
0.000159685
5.52522
0.00015971
5.52522
0.000159725
5.52523
0.000159713
5.52524
0.000159726
5.52525
0.000159731
5.52527
0.00015985
5.52528
0.000159692
5.5253
0.00015976
5.52531
0.000159779
5.52532
0.000159785
5.52534
0.000159793
5.52535
0.0001598
5.52536
0.000159805
5.52537
0.000159807
5.52538
0.000159807
5.52539
0.000159803
5.5254
0.0001598
5.52541
0.000159787
5.52542
0.000159753
5.52542
0.000159511
5.52543
0.000159821
5.52543
0.000159589
5.52544
0.000159477
5.52545
0.000159342
5.52545
0.000159168
5.52546
0.000158942
5.52547
0.000158616
5.52548
0.000158313
5.52549
0.000158079
5.52551
0.000157189
5.52552
0.000156671
5.52553
0.000155901
5.52555
0.000154963
5.52556
0.000153856
5.52557
0.000152559
5.52558
0.000151053
5.52559
0.00014932
5.5256
0.000147341
5.52561
0.000145103
5.52562
0.000142591
5.52563
0.000139796
5.52563
0.000136712
5.52564
0.000133337
5.52565
0.000129672
5.52566
0.000125725
5.52567
0.000121508
5.52567
0.000117037
5.52568
0.000112333
5.52569
0.000107424
5.52569
0.000102337
5.5257
9.7108e-05
5.52571
9.17718e-05
5.52571
8.63665e-05
5.52572
8.09311e-05
5.52572
7.55068e-05
5.52573
7.01303e-05
5.52573
6.48402e-05
5.52574
5.9671e-05
5.52574
5.46546e-05
5.52574
4.98244e-05
5.52574
4.52017e-05
5.52575
4.08085e-05
5.52575
3.6662e-05
5.52575
3.27744e-05
5.52575
2.91537e-05
5.52575
2.5804e-05
5.52575
2.27252e-05
5.52576
1.99131e-05
5.52576
1.73632e-05
5.52576
1.50637e-05
5.52576
1.30035e-05
5.52576
1.11688e-05
5.52576
9.54728e-06
5.52575
8.12124e-06
5.52575
6.87523e-06
5.52575
5.7932e-06
5.52575
4.85918e-06
5.52575
4.05754e-06
5.52575
3.37501e-06
5.52575
2.79524e-06
5.52575
2.30694e-06
5.52575
1.89798e-06
5.52575
1.55673e-06
5.52574
1.27478e-06
5.52574
1.0424e-06
5.52574
8.52029e-07
5.52574
6.97065e-07
5.52574
5.71613e-07
5.52574
4.70614e-07
5.52574
3.89748e-07
5.52574
3.25357e-07
5.52573
2.74364e-07
5.52573
2.34198e-07
5.52573
2.02733e-07
5.52573
1.78216e-07
5.52573
1.5921e-07
5.52573
1.44556e-07
5.52573
1.33314e-07
5.52572
1.24742e-07
5.52572
1.1823e-07
5.52572
1.13315e-07
5.52572
1.09619e-07
5.52572
1.06856e-07
5.52572
1.04804e-07
5.52572
1.03282e-07
5.52572
1.02161e-07
5.52572
1.0134e-07
5.52571
1.0074e-07
5.52571
1.00307e-07
5.52571
9.99935e-08
5.52571
9.97707e-08
5.52571
9.96106e-08
5.52571
9.9496e-08
5.52571
9.9416e-08
5.52571
9.93596e-08
5.5257
9.93205e-08
5.5257
9.92986e-08
5.5257
9.92841e-08
5.5257
9.92723e-08
5.5257
9.92741e-08
5.5257
9.92713e-08
5.5257
9.92732e-08
5.5257
9.92786e-08
5.52569
9.92877e-08
5.52569
9.92914e-08
5.52569
9.92968e-08
5.52569
9.93059e-08
5.52569
9.93141e-08
5.52569
9.9325e-08
5.52569
9.93359e-08
5.52569
9.93477e-08
5.52568
9.93596e-08
5.52568
9.93696e-08
5.52568
9.9385e-08
5.52568
9.9395e-08
5.52568
9.94141e-08
5.52568
9.94287e-08
5.52568
9.9446e-08
5.52567
9.9466e-08
5.52567
9.94851e-08
5.52567
9.95078e-08
5.52567
9.95724e-08
5.52567
9.94651e-08
5.52567
9.95806e-08
5.52566
9.94387e-08
5.52566
9.9767e-08
5.52566
9.96333e-08
5.52566
9.95742e-08
5.52566
9.96297e-08
5.52566
9.96388e-08
5.52565
9.96524e-08
5.52565
9.96861e-08
5.52565
9.96497e-08
5.52565
9.96652e-08
5.52565
9.96806e-08
5.52565
9.96934e-08
5.52564
9.96961e-08
5.52564
9.97052e-08
5.52564
9.9717e-08
5.52564
9.97288e-08
5.52564
9.97425e-08
5.52564
9.97525e-08
5.52563
9.97697e-08
5.52563
9.97834e-08
5.52563
9.97888e-08
5.52563
9.9797e-08
5.52563
9.98016e-08
5.52563
9.98189e-08
5.52562
9.98643e-08
5.52562
9.97716e-08
5.52562
9.98216e-08
5.52562
9.98261e-08
5.52562
9.98261e-08
5.52561
9.98189e-08
5.52561
9.98189e-08
5.52561
9.9817e-08
5.52561
9.98125e-08
5.52561
9.98116e-08
5.52561
9.9838e-08
5.52561
9.97643e-08
5.5256
9.9787e-08
5.5256
9.97798e-08
5.5256
9.97707e-08
5.5256
9.97625e-08
5.5256
9.97552e-08
5.5256
9.97406e-08
5.52559
9.97288e-08
5.52559
9.97152e-08
5.52559
9.97034e-08
5.52559
9.9687e-08
5.52559
9.96779e-08
5.52559
9.96624e-08
5.52559
9.96561e-08
5.52559
9.97034e-08
5.52558
9.95242e-08
5.52558
9.96251e-08
5.52558
9.95897e-08
5.52558
9.95715e-08
5.52558
9.95597e-08
5.52558
9.95433e-08
5.52558
9.95451e-08
5.52558
9.94542e-08
5.52558
9.95215e-08
5.52558
9.94705e-08
5.52557
9.94532e-08
5.52557
9.94105e-08
5.52557
9.94278e-08
5.52557
9.94005e-08
5.52557
9.93778e-08
5.52557
9.93587e-08
5.52557
9.93496e-08
5.52557
9.93214e-08
5.52557
9.93141e-08
5.52557
9.92786e-08
5.52557
9.92923e-08
5.52557
9.92522e-08
5.52557
9.92513e-08
5.52557
9.92122e-08
5.52557
9.92122e-08
5.52557
9.92013e-08
5.52557
9.91895e-08
5.52557
9.9164e-08
5.52557
9.91577e-08
5.52556
9.91422e-08
5.52556
9.91249e-08
5.52556
9.91204e-08
5.52556
9.91022e-08
5.52556
9.90904e-08
5.52556
9.90894e-08
5.52556
9.90676e-08
5.52556
9.90613e-08
5.52556
9.90494e-08
5.52556
9.90294e-08
5.52556
9.90167e-08
5.52556
9.90167e-08
5.52556
9.89839e-08
5.52556
9.90158e-08
5.52556
9.89749e-08
5.52556
9.90021e-08
5.52556
9.89703e-08
5.52556
9.89912e-08
5.52556
9.89821e-08
5.52556
9.8973e-08
5.52556
9.89912e-08
5.52556
9.89803e-08
5.52557
9.90049e-08
5.52557
9.89876e-08
5.52557
9.90067e-08
5.52557
9.89967e-08
5.52557
9.90212e-08
5.52557
9.90012e-08
5.52557
9.90221e-08
5.52557
9.90194e-08
5.52557
9.90331e-08
5.52557
9.90231e-08
5.52557
9.90358e-08
5.52557
9.90367e-08
5.52557
9.90449e-08
5.52557
9.90449e-08
5.52557
9.90594e-08
5.52557
9.90613e-08
5.52557
9.90731e-08
5.52557
9.90904e-08
5.52557
9.90831e-08
5.52557
9.91167e-08
5.52557
9.91049e-08
5.52557
9.91386e-08
5.52557
9.91367e-08
5.52557
9.91595e-08
5.52557
9.91731e-08
5.52557
9.9194e-08
5.52557
9.92059e-08
5.52557
9.92204e-08
5.52557
9.92468e-08
5.52557
9.92541e-08
5.52557
9.92795e-08
5.52557
9.93005e-08
5.52557
9.93105e-08
5.52557
9.93441e-08
5.52557
9.93341e-08
5.52557
9.9385e-08
5.52557
9.9385e-08
5.52557
9.94105e-08
5.52557
9.94332e-08
5.52557
9.94478e-08
5.52557
9.94651e-08
5.52557
9.9496e-08
5.52557
9.9516e-08
5.52557
9.95205e-08
5.52557
9.95615e-08
5.52557
9.95678e-08
5.52557
9.95933e-08
5.52557
9.96051e-08
5.52557
9.96324e-08
5.52557
9.93896e-08
5.52557
9.98189e-08
5.52557
9.9838e-08
5.52557
9.97188e-08
5.52557
9.98234e-08
5.52557
9.98643e-08
5.52557
9.98325e-08
5.52557
1.00094e-07
5.52557
1.00596e-07
5.52557
1.0143e-07
5.52557
1.03594e-07
5.52557
1.08986e-07
5.52557
1.21836e-07
5.52557
1.52127e-07
5.52557
2.24441e-07
5.52557
3.97871e-07
5.52557
8.12734e-07
5.52557
1.80434e-06
5.52557
4.17533e-06
5.52557
9.84252e-06
5.52555
2.33881e-05
5.52552
5.57501e-05
5.52544
0.000133035
5.52526
0.000317623
5.52481
0.000757711
5.52376
0.00180638
5.52124
0.00430166
5.51526
0.010225
5.50108
0.0242446
5.46752
0.0573842
5.38761
0.136594
5.18972
0.339275
0.873992
4.69701
7.81278
0.000176105
7.81279
0.000158688
7.81281
0.000138963
7.81282
0.000141515
7.81284
0.000143228
7.81285
0.000143112
7.81287
0.000143003
7.81288
0.000143037
7.8129
0.00014307
7.81292
0.000143085
7.81293
0.000143096
7.81295
0.000143105
7.81296
0.000143115
7.81298
0.000143123
7.81299
0.000143131
7.81301
0.00014314
7.81302
0.000143148
7.81304
0.000143152
7.81306
0.00014316
7.81307
0.000143167
7.81309
0.000143175
7.8131
0.000143183
7.81312
0.000143184
7.81313
0.000143191
7.81315
0.000143199
7.81316
0.000143203
7.81318
0.000143207
7.81319
0.000143211
7.81321
0.000143209
7.81322
0.000143247
7.81324
0.000143219
7.81325
0.000143231
7.81327
0.000143234
7.81329
0.000143238
7.8133
0.000143242
7.81331
0.000143244
7.81333
0.000143245
7.81334
0.00014325
7.81334
0.000143252
7.81335
0.000143256
7.81336
0.000143259
7.81337
0.000143264
7.81339
0.000143268
7.8134
0.000143267
7.81342
0.000143274
7.81343
0.000143286
7.81346
0.000143306
7.81348
0.0001433
7.8135
0.000143311
7.81353
0.000143319
7.81355
0.000143327
7.81356
0.000143335
7.81358
0.000143343
7.8136
0.000143351
7.81361
0.000143358
7.81363
0.000143364
7.81365
0.000143372
7.81366
0.000143379
7.81367
0.000143379
7.81368
0.000143315
7.81369
0.000143453
7.8137
0.0001434
7.81371
0.000143398
7.81372
0.000143401
7.81373
0.000143405
7.81375
0.000143406
7.81376
0.000143389
7.81378
0.000143449
7.8138
0.000143423
7.81381
0.000143426
7.81383
0.000143437
7.81384
0.000143442
7.81386
0.000143443
7.81387
0.000143457
7.81389
0.000143473
7.8139
0.000143466
7.81392
0.000143476
7.81394
0.000143486
7.81395
0.00014357
7.81398
0.00014346
7.814
0.000143502
7.81402
0.000143524
7.81404
0.000143529
7.81406
0.000143536
7.81408
0.000143542
7.8141
0.000143547
7.81411
0.000143549
7.81413
0.000143549
7.81414
0.000143546
7.81416
0.000143544
7.81417
0.000143532
7.81419
0.000143496
7.8142
0.000143301
7.8142
0.000143548
7.81421
0.000143365
7.81422
0.00014326
7.81423
0.00014314
7.81424
0.000142986
7.81426
0.000142785
7.81427
0.000142503
7.81429
0.000142236
7.81431
0.000141996
7.81433
0.000141255
7.81435
0.000140765
7.81437
0.00014009
7.81439
0.000139257
7.8144
0.000138274
7.81442
0.000137122
7.81444
0.000135783
7.81445
0.000134241
7.81447
0.000132481
7.81448
0.000130488
7.81449
0.000128251
7.81451
0.000125761
7.81452
0.000123012
7.81453
0.000120001
7.81454
0.000116731
7.81455
0.000113207
7.81456
0.000109439
7.81457
0.000105443
7.81458
0.000101237
7.81459
9.6844e-05
7.81459
9.22906e-05
7.8146
8.76064e-05
7.81461
8.28241e-05
7.81461
7.79769e-05
7.81462
7.30996e-05
7.81463
6.82294e-05
7.81463
6.34009e-05
7.81463
5.86449e-05
7.81464
5.39953e-05
7.81464
4.94808e-05
7.81464
4.51306e-05
7.81464
4.0965e-05
7.81465
3.70035e-05
7.81465
3.32619e-05
7.81465
2.97516e-05
7.81465
2.64802e-05
7.81465
2.34515e-05
7.81465
2.06658e-05
7.81465
1.81197e-05
7.81465
1.58091e-05
7.81465
1.37241e-05
7.81464
1.18547e-05
7.81464
1.01888e-05
7.81464
8.71516e-06
7.81464
7.41831e-06
7.81464
6.28428e-06
7.81464
5.29874e-06
7.81464
4.44734e-06
7.81463
3.71613e-06
7.81463
3.09282e-06
7.81463
2.56319e-06
7.81463
2.11664e-06
7.81463
1.74232e-06
7.81462
1.42982e-06
7.81462
1.17127e-06
7.81462
9.58069e-07
7.81462
7.83262e-07
7.81462
6.40835e-07
7.81461
5.25427e-07
7.81461
4.32439e-07
7.81461
3.57918e-07
7.81461
2.98527e-07
7.81461
2.5145e-07
7.81461
2.14336e-07
7.8146
1.85232e-07
7.8146
1.62537e-07
7.8146
1.44924e-07
7.8146
1.31334e-07
7.8146
1.20896e-07
7.81459
1.12929e-07
7.81459
1.06874e-07
7.81459
1.02298e-07
7.81459
9.88534e-08
7.81459
9.62768e-08
7.81459
9.43587e-08
7.81458
9.29358e-08
7.81458
9.18862e-08
7.81458
9.11186e-08
7.81458
9.05557e-08
7.81458
9.015e-08
7.81458
8.98544e-08
7.81457
8.96457e-08
7.81457
8.94938e-08
7.81457
8.9386e-08
7.81457
8.93092e-08
7.81457
8.92551e-08
7.81457
8.92182e-08
7.81456
8.91969e-08
7.81456
8.91855e-08
7.81456
8.91746e-08
7.81456
8.91737e-08
7.81456
8.91714e-08
7.81455
8.91746e-08
7.81455
8.91791e-08
7.81455
8.91851e-08
7.81455
8.91914e-08
7.81455
8.91955e-08
7.81455
8.92014e-08
7.81454
8.92105e-08
7.81454
8.92192e-08
7.81454
8.92301e-08
7.81454
8.92387e-08
7.81454
8.92496e-08
7.81453
8.92605e-08
7.81453
8.9271e-08
7.81453
8.92833e-08
7.81453
8.92992e-08
7.81453
8.93128e-08
7.81452
8.93278e-08
7.81452
8.93447e-08
7.81452
8.93624e-08
7.81452
8.93856e-08
7.81452
8.94311e-08
7.81451
8.93588e-08
7.81451
8.94333e-08
7.81451
8.93451e-08
7.81451
8.95884e-08
7.8145
8.95034e-08
7.8145
8.94456e-08
7.8145
8.94934e-08
7.8145
8.9502e-08
7.81449
8.95134e-08
7.81449
8.95388e-08
7.81449
8.95166e-08
7.81449
8.95207e-08
7.81449
8.95375e-08
7.81448
8.95525e-08
7.81448
8.95534e-08
7.81448
8.95616e-08
7.81448
8.9572e-08
7.81447
8.95825e-08
7.81447
8.95952e-08
7.81447
8.96011e-08
7.81447
8.96171e-08
7.81446
8.96307e-08
7.81446
8.96348e-08
7.81446
8.96457e-08
7.81446
8.9648e-08
7.81445
8.96671e-08
7.81445
8.96962e-08
7.81445
8.96257e-08
7.81445
8.96657e-08
7.81444
8.96666e-08
7.81444
8.96675e-08
7.81444
8.96625e-08
7.81444
8.9663e-08
7.81443
8.96621e-08
7.81443
8.96589e-08
7.81443
8.96589e-08
7.81443
8.96762e-08
7.81443
8.96193e-08
7.81442
8.96343e-08
7.81442
8.96284e-08
7.81442
8.96212e-08
7.81442
8.96139e-08
7.81441
8.96061e-08
7.81441
8.9593e-08
7.81441
8.9583e-08
7.81441
8.95716e-08
7.81441
8.95611e-08
7.8144
8.95461e-08
7.8144
8.95379e-08
7.8144
8.95216e-08
7.8144
8.95202e-08
7.8144
8.9547e-08
7.8144
8.94061e-08
7.81439
8.94911e-08
7.81439
8.94588e-08
7.81439
8.94411e-08
7.81439
8.94274e-08
7.81439
8.94174e-08
7.81439
8.94206e-08
7.81439
8.93433e-08
7.81438
8.9392e-08
7.81438
8.93456e-08
7.81438
8.93342e-08
7.81438
8.92974e-08
7.81438
8.93069e-08
7.81438
8.92896e-08
7.81438
8.92674e-08
7.81438
8.92501e-08
7.81438
8.92437e-08
7.81437
8.92137e-08
7.81437
8.92182e-08
7.81437
8.91723e-08
7.81437
8.92001e-08
7.81437
8.91464e-08
7.81437
8.91628e-08
7.81437
8.9105e-08
7.81437
8.91196e-08
7.81437
8.91109e-08
7.81437
8.91018e-08
7.81437
8.90709e-08
7.81437
8.90682e-08
7.81437
8.90514e-08
7.81437
8.90423e-08
7.81437
8.90409e-08
7.81437
8.90218e-08
7.81437
8.90027e-08
7.81437
8.90122e-08
7.81437
8.89877e-08
7.81437
8.89872e-08
7.81437
8.89704e-08
7.81437
8.89563e-08
7.81437
8.89358e-08
7.81437
8.89509e-08
7.81437
8.88981e-08
7.81437
8.89595e-08
7.81437
8.88886e-08
7.81437
8.89418e-08
7.81437
8.88917e-08
7.81437
8.89286e-08
7.81437
8.89154e-08
7.81437
8.88922e-08
7.81437
8.89286e-08
7.81437
8.89008e-08
7.81437
8.89427e-08
7.81437
8.89072e-08
7.81437
8.89372e-08
7.81437
8.89158e-08
7.81437
8.89572e-08
7.81437
8.89167e-08
7.81437
8.89499e-08
7.81437
8.89436e-08
7.81437
8.8959e-08
7.81437
8.89445e-08
7.81437
8.89613e-08
7.81437
8.89618e-08
7.81437
8.897e-08
7.81437
8.89613e-08
7.81437
8.89841e-08
7.81437
8.89795e-08
7.81437
8.89904e-08
7.81437
8.9015e-08
7.81437
8.899e-08
7.81437
8.90418e-08
7.81437
8.90141e-08
7.81437
8.90609e-08
7.81438
8.90436e-08
7.81438
8.90709e-08
7.81438
8.90827e-08
7.81438
8.90982e-08
7.81438
8.91155e-08
7.81438
8.91218e-08
7.81438
8.91546e-08
7.81438
8.91509e-08
7.81438
8.91764e-08
7.81438
8.92037e-08
7.81438
8.91978e-08
7.81438
8.92464e-08
7.81438
8.92114e-08
7.81438
8.92855e-08
7.81438
8.92665e-08
7.81438
8.92942e-08
7.81438
8.93237e-08
7.81438
8.93237e-08
7.81438
8.93479e-08
7.81438
8.93715e-08
7.81438
8.94001e-08
7.81438
8.93897e-08
7.81438
8.94397e-08
7.81438
8.94338e-08
7.81438
8.94579e-08
7.81438
8.94656e-08
7.81438
8.94934e-08
7.81438
8.90395e-08
7.81438
8.97749e-08
7.81438
8.98299e-08
7.81438
8.95761e-08
7.81438
8.96466e-08
7.81438
8.97562e-08
7.81438
8.97744e-08
7.81438
9.02305e-08
7.81438
9.0984e-08
7.81438
9.24915e-08
7.81438
9.64528e-08
7.81438
1.06153e-07
7.81438
1.2928e-07
7.81438
1.83981e-07
7.81438
3.14434e-07
7.81438
6.27486e-07
7.81438
1.37635e-06
7.81438
3.16619e-06
7.81438
7.44611e-06
7.81437
1.76754e-05
7.81435
4.21264e-05
7.81431
0.000100543
7.8142
0.00024005
7.81394
0.000573245
7.81333
0.00136769
7.81188
0.00326086
7.80842
0.00776606
7.80018
0.0184624
7.78064
0.0437839
7.73439
0.103638
7.62457
0.246407
7.35634
0.607506
1.50343
6.72691
34.4872
7.15686e-05
34.4873
8.15918e-05
34.4873
6.95264e-05
34.4874
6.981e-05
34.4875
7.15912e-05
34.4876
7.18021e-05
34.4876
7.16522e-05
34.4877
7.16303e-05
34.4878
7.16418e-05
34.4878
7.16364e-05
34.4879
7.16259e-05
34.488
7.16183e-05
34.488
7.16132e-05
34.4881
7.16094e-05
34.4882
7.16067e-05
34.4882
7.16051e-05
34.4883
7.16043e-05
34.4884
7.16029e-05
34.4884
7.16034e-05
34.4885
7.16042e-05
34.4886
7.16056e-05
34.4886
7.16092e-05
34.4887
7.16078e-05
34.4888
7.16023e-05
34.4889
7.1611e-05
34.4889
7.16114e-05
34.489
7.16117e-05
34.4891
7.16127e-05
34.4891
7.16064e-05
34.4892
7.16333e-05
34.4893
7.16179e-05
34.4893
7.16201e-05
34.4894
7.16217e-05
34.4895
7.16227e-05
34.4895
7.1624e-05
34.4896
7.16258e-05
34.4896
7.1626e-05
34.4897
7.16261e-05
34.4897
7.16283e-05
34.4897
7.16295e-05
34.4898
7.16311e-05
34.4898
7.1633e-05
34.4899
7.16348e-05
34.49
7.16361e-05
34.49
7.16387e-05
34.4901
7.16443e-05
34.4902
7.16511e-05
34.4903
7.16502e-05
34.4904
7.16562e-05
34.4905
7.166e-05
34.4906
7.1664e-05
34.4907
7.16681e-05
34.4908
7.16721e-05
34.4908
7.16758e-05
34.4909
7.16794e-05
34.491
7.16829e-05
34.4911
7.16873e-05
34.4911
7.16903e-05
34.4912
7.16877e-05
34.4912
7.16535e-05
34.4912
7.1727e-05
34.4913
7.17034e-05
34.4913
7.16998e-05
34.4914
7.17007e-05
34.4914
7.17021e-05
34.4915
7.17028e-05
34.4916
7.17013e-05
34.4916
7.1718e-05
34.4917
7.17117e-05
34.4918
7.1712e-05
34.4919
7.17183e-05
34.4919
7.17211e-05
34.492
7.17248e-05
34.4921
7.17257e-05
34.4921
7.17347e-05
34.4922
7.17345e-05
34.4923
7.17379e-05
34.4923
7.17464e-05
34.4924
7.17687e-05
34.4925
7.17427e-05
34.4926
7.17481e-05
34.4927
7.17615e-05
34.4928
7.17646e-05
34.4929
7.17679e-05
34.493
7.17711e-05
34.493
7.17735e-05
34.4931
7.1775e-05
34.4932
7.17754e-05
34.4933
7.17745e-05
34.4933
7.17739e-05
34.4934
7.17674e-05
34.4934
7.17454e-05
34.4935
7.16707e-05
34.4935
7.17612e-05
34.4935
7.16949e-05
34.4936
7.16405e-05
34.4936
7.15828e-05
34.4937
7.15085e-05
34.4938
7.14119e-05
34.4938
7.12846e-05
34.4939
7.11546e-05
34.494
7.10091e-05
34.4941
7.06981e-05
34.4942
7.04347e-05
34.4942
7.0113e-05
34.4943
6.97107e-05
34.4944
6.92341e-05
34.4945
6.86747e-05
34.4945
6.80235e-05
34.4946
6.72724e-05
34.4947
6.64136e-05
34.4947
6.54398e-05
34.4948
6.43451e-05
34.4949
6.31247e-05
34.4949
6.17752e-05
34.495
6.02953e-05
34.495
5.86854e-05
34.4951
5.6948e-05
34.4951
5.50879e-05
34.4951
5.3112e-05
34.4952
5.10293e-05
34.4952
4.8851e-05
34.4953
4.65898e-05
34.4953
4.42603e-05
34.4953
4.18785e-05
34.4954
3.94609e-05
34.4954
3.7025e-05
34.4954
3.4589e-05
34.4954
3.21703e-05
34.4954
2.97848e-05
34.4955
2.74493e-05
34.4955
2.51787e-05
34.4955
2.29873e-05
34.4955
2.08861e-05
34.4955
1.88851e-05
34.4955
1.69926e-05
34.4955
1.52147e-05
34.4955
1.35555e-05
34.4955
1.20173e-05
34.4955
1.06005e-05
34.4955
9.30432e-06
34.4955
8.12581e-06
34.4955
7.06127e-06
34.4955
6.10555e-06
34.4955
5.25299e-06
34.4955
4.49754e-06
34.4955
3.83201e-06
34.4955
3.2493e-06
34.4955
2.74226e-06
34.4955
2.30369e-06
34.4955
1.92664e-06
34.4955
1.60465e-06
34.4954
1.33093e-06
34.4954
1.09979e-06
34.4954
9.05793e-07
34.4954
7.43754e-07
34.4954
6.09405e-07
34.4954
4.9856e-07
34.4954
4.07584e-07
34.4954
3.33367e-07
34.4954
2.73162e-07
34.4954
2.24605e-07
34.4954
1.85651e-07
34.4954
1.54573e-07
34.4953
1.29915e-07
34.4953
1.10457e-07
34.4953
9.51834e-08
34.4953
8.32608e-08
34.4953
7.39999e-08
34.4953
6.68479e-08
34.4953
6.13506e-08
34.4953
5.71497e-08
34.4953
5.39542e-08
34.4953
5.15365e-08
34.4953
4.97171e-08
34.4953
4.83547e-08
34.4952
4.73387e-08
34.4952
4.65855e-08
34.4952
4.603e-08
34.4952
4.56221e-08
34.4952
4.53231e-08
34.4952
4.51075e-08
34.4952
4.49504e-08
34.4952
4.48397e-08
34.4952
4.47592e-08
34.4952
4.47023e-08
34.4952
4.46603e-08
34.4952
4.46312e-08
34.4952
4.46132e-08
34.4952
4.46009e-08
34.4951
4.45943e-08
34.4951
4.45884e-08
34.4951
4.45878e-08
34.4951
4.45864e-08
34.4951
4.4588e-08
34.4951
4.45893e-08
34.4951
4.45925e-08
34.4951
4.4595e-08
34.4951
4.45975e-08
34.4951
4.46009e-08
34.4951
4.46053e-08
34.4951
4.46098e-08
34.495
4.46146e-08
34.495
4.46196e-08
34.495
4.4625e-08
34.495
4.463e-08
34.495
4.46355e-08
34.495
4.46414e-08
34.495
4.46496e-08
34.495
4.46569e-08
34.495
4.46641e-08
34.495
4.4673e-08
34.495
4.46821e-08
34.4949
4.46928e-08
34.4949
4.47071e-08
34.4949
4.46912e-08
34.4949
4.47058e-08
34.4949
4.46937e-08
34.4949
4.47703e-08
34.4949
4.47562e-08
34.4949
4.47264e-08
34.4949
4.47465e-08
34.4949
4.47524e-08
34.4948
4.47576e-08
34.4948
4.47658e-08
34.4948
4.47633e-08
34.4948
4.47587e-08
34.4948
4.47692e-08
34.4948
4.47787e-08
34.4948
4.47762e-08
34.4948
4.47799e-08
34.4948
4.47867e-08
34.4948
4.47917e-08
34.4947
4.47983e-08
34.4947
4.48006e-08
34.4947
4.48085e-08
34.4947
4.48156e-08
34.4947
4.48172e-08
34.4947
4.48229e-08
34.4947
4.48247e-08
34.4947
4.48356e-08
34.4947
4.48401e-08
34.4946
4.48192e-08
34.4946
4.48317e-08
34.4946
4.48329e-08
34.4946
4.48322e-08
34.4946
4.48313e-08
34.4946
4.48308e-08
34.4946
4.48308e-08
34.4946
4.48299e-08
34.4946
4.48304e-08
34.4946
4.48329e-08
34.4945
4.4814e-08
34.4945
4.48156e-08
34.4945
4.48133e-08
34.4945
4.48094e-08
34.4945
4.48056e-08
34.4945
4.48017e-08
34.4945
4.47958e-08
34.4945
4.47912e-08
34.4945
4.47851e-08
34.4945
4.4781e-08
34.4945
4.47744e-08
34.4944
4.4769e-08
34.4944
4.47624e-08
34.4944
4.47601e-08
34.4944
4.47621e-08
34.4944
4.47205e-08
34.4944
4.47385e-08
34.4944
4.47292e-08
34.4944
4.47208e-08
34.4944
4.47151e-08
34.4944
4.47114e-08
34.4944
4.47089e-08