/*--------------------------------*- C++ -*----------------------------------*\
| =========                 |                                                 |
| \\      /  F ield         | OpenFOAM: The Open Source CFD Toolbox           |
|  \\    /   O peration     | Version:  3.0.x                                 |
|   \\  /    A nd           | Web:      www.OpenFOAM.org                      |
|    \\/     M anipulation  |                                                 |
\*---------------------------------------------------------------------------*/
FoamFile
{
    version     2.0;
    format      ascii;
    class       surfaceScalarField;
    location    "0.11";
    object      phi;
}
// * * * * * * * * * * * * * * * * * * * * * * * * * * * * * * * * * * * * * //

dimensions      [1 0 -1 0 0 0 0];

internalField   nonuniform List<scalar> 
12415
(
5.75952
0.000327789
5.7594
0.000235146
5.75928
0.000225037
5.75916
0.000227074
5.75901
0.000227657
5.75884
0.000227501
5.75864
0.000227371
5.75839
0.000227038
5.7581
0.000226153
5.75777
0.000224428
5.75739
0.000221299
5.75698
0.000216414
5.75652
0.000208867
5.75603
0.000198535
5.7555
0.000185221
5.75494
0.000169179
5.75436
0.000150543
5.75375
0.000130666
5.75312
0.000110238
5.75246
9.0335e-05
5.75179
7.18434e-05
5.75109
5.54232e-05
5.75038
4.14575e-05
5.74964
3.00581e-05
5.74887
2.11141e-05
5.74809
1.43544e-05
5.74727
9.43119e-06
5.74644
5.96782e-06
5.74558
3.6106e-06
5.7447
2.0558e-06
5.74379
1.0606e-06
5.74286
4.41711e-07
5.7419
6.78665e-08
5.74092
-1.50909e-07
5.73991
-2.76477e-07
5.73887
-3.4659e-07
5.7378
-3.84796e-07
5.73671
-4.04962e-07
5.73559
-4.15026e-07
5.73444
-4.19379e-07
5.73326
-4.20408e-07
5.73205
-4.19348e-07
5.73082
-4.16829e-07
5.72956
-4.13174e-07
5.72828
-4.08565e-07
5.72697
-4.0309e-07
5.72565
-3.96816e-07
5.72431
-3.89804e-07
5.72295
-3.82126e-07
5.72159
-3.73839e-07
5.72022
-3.65013e-07
5.71885
-3.55723e-07
5.71749
-3.46059e-07
5.71612
-3.36095e-07
5.71476
-3.25939e-07
5.71341
-3.15669e-07
5.71207
-3.05392e-07
5.71074
-2.95213e-07
5.70942
-2.8525e-07
5.7081
-2.75739e-07
5.70678
-2.73718e-07
5.70545
-2.58415e-07
5.70412
-2.40856e-07
5.70276
-2.41325e-07
5.70138
-2.34559e-07
5.69995
-2.27752e-07
5.69847
-2.21738e-07
5.69693
-2.17153e-07
5.69532
-2.13769e-07
5.69362
-2.11241e-07
5.69182
-2.09366e-07
5.68991
-2.08607e-07
5.68789
-2.09115e-07
5.68575
-2.10104e-07
5.68348
-2.12423e-07
5.68107
-2.15843e-07
5.67854
-2.2032e-07
5.67587
-2.25826e-07
5.67308
-2.32318e-07
5.67018
-2.39743e-07
5.66716
-2.48023e-07
5.66405
-2.57074e-07
5.66085
-2.66898e-07
5.65759
-2.80234e-07
5.65428
-2.91375e-07
5.65093
-3.08868e-07
5.64758
-2.93659e-07
5.64424
-3.01134e-07
5.64091
-3.34445e-07
5.63764
-3.55394e-07
5.63442
-3.57548e-07
5.63128
-3.63571e-07
5.62823
-3.72305e-07
5.62529
-3.79578e-07
5.62245
-3.85789e-07
5.61973
-3.92023e-07
5.61714
-3.95603e-07
5.61467
-3.98168e-07
5.61233
-3.99381e-07
5.6101
-3.98828e-07
5.608
-3.97762e-07
5.606
-3.9416e-07
5.60411
-3.89551e-07
5.60231
-3.83749e-07
5.6006
-3.76769e-07
5.59895
-3.68762e-07
5.59738
-3.59933e-07
5.59585
-3.50914e-07
5.59437
-3.40748e-07
5.59292
-3.32737e-07
5.5915
-3.26958e-07
5.59009
-3.02098e-07
5.58869
-2.94614e-07
5.5873
-2.89234e-07
5.5859
-2.79457e-07
5.58451
-2.70458e-07
5.5831
-2.62247e-07
5.58168
-2.54789e-07
5.58025
-2.48123e-07
5.57881
-2.42286e-07
5.57736
-2.37325e-07
5.57589
-2.33245e-07
5.57441
-2.30091e-07
5.57292
-2.27874e-07
5.57143
-2.26604e-07
5.56993
-2.263e-07
5.56843
-2.26964e-07
5.56694
-2.286e-07
5.56546
-2.31197e-07
5.564
-2.34735e-07
5.56256
-2.39173e-07
5.56115
-2.44452e-07
5.55977
-2.50493e-07
5.55843
-2.5718e-07
5.55713
-2.64396e-07
5.55588
-2.71986e-07
5.55467
-2.79786e-07
5.55351
-2.87622e-07
5.5524
-2.95302e-07
5.55132
-3.02654e-07
5.55028
-3.0951e-07
5.54928
-3.15726e-07
5.54829
-3.21175e-07
5.54731
-3.25776e-07
5.54635
-3.29466e-07
5.54537
-3.32229e-07
5.54438
-3.34065e-07
5.54337
-3.3502e-07
5.54233
-3.35151e-07
5.54124
-3.34539e-07
5.54011
-3.33272e-07
5.53892
-3.3146e-07
5.53768
-3.29208e-07
5.53636
-3.26636e-07
5.53498
-3.23871e-07
5.53353
-3.21043e-07
5.53201
-3.18314e-07
5.53041
-3.15844e-07
5.52875
-3.13825e-07
5.52702
-3.12433e-07
5.52524
-3.11886e-07
5.52341
-3.12386e-07
5.52154
-3.14123e-07
5.51965
-3.17283e-07
5.51776
-3.22023e-07
5.51587
-3.28462e-07
5.51401
-3.36668e-07
5.5122
-3.46661e-07
5.51046
-3.58394e-07
5.50879
-3.71756e-07
5.50722
-3.8653e-07
5.50577
-4.02537e-07
5.50444
-4.19259e-07
5.50323
-4.36667e-07
5.50216
-4.53558e-07
5.50122
-4.70856e-07
5.5004
-4.85757e-07
5.49969
-5.01544e-07
5.49908
-5.126e-07
5.49854
-5.2549e-07
5.49808
-5.32349e-07
5.49766
-5.40931e-07
5.49727
-5.45006e-07
5.4969
-5.48811e-07
5.49653
-5.50917e-07
5.49616
-5.5222e-07
5.49578
-5.52183e-07
5.49539
-5.51547e-07
5.49497
-4.97997e-07
5.49452
-5.95071e-07
5.49404
-5.21621e-07
5.49351
-4.33891e-07
5.49292
2.97769e-09
5.49225
4.04471e-06
5.49146
3.06838e-05
5.49039
0.00021869
5.48791
0.00153048
5.47616
0.0106929
5.38981
0.0851876
0.418213
4.97035
11.5198
0.000260516
11.52
0.00021565
11.5203
0.000189857
11.5205
0.000194389
11.5207
0.000195788
11.5209
0.000195231
11.5209
0.000195015
11.5209
0.000194755
11.5208
0.00019403
11.5206
0.00019259
11.5204
0.000189985
11.52
0.000185826
11.5195
0.000179481
11.519
0.00017073
11.5183
0.000159396
11.5176
0.000145675
11.5167
0.000129803
11.5158
0.000112753
11.5147
9.52245e-05
11.5136
7.81138e-05
11.5124
6.21904e-05
11.5112
4.80287e-05
11.5098
3.5966e-05
11.5084
2.61061e-05
11.5069
1.83589e-05
11.5054
1.24971e-05
11.5038
8.22144e-06
11.5021
5.21035e-06
11.5004
3.15822e-06
11.4986
1.8032e-06
11.4968
9.35184e-07
11.495
3.9393e-07
11.493
6.62867e-08
11.4911
-1.23574e-07
11.489
-2.33708e-07
11.487
-2.95185e-07
11.4848
-3.28798e-07
11.4827
-3.46576e-07
11.4804
-3.55466e-07
11.4781
-3.59337e-07
11.4757
-3.60288e-07
11.4733
-3.59413e-07
11.4709
-3.57269e-07
11.4683
-3.54144e-07
11.4658
-3.50196e-07
11.4632
-3.45503e-07
11.4605
-3.40127e-07
11.4578
-3.34118e-07
11.4551
-3.27535e-07
11.4524
-3.20429e-07
11.4497
-3.12853e-07
11.4469
-3.04881e-07
11.4442
-2.96588e-07
11.4415
-2.88047e-07
11.4387
-2.79342e-07
11.436
-2.70542e-07
11.4334
-2.61735e-07
11.4307
-2.53014e-07
11.428
-2.44501e-07
11.4254
-2.36629e-07
11.4228
-2.33863e-07
11.4201
-2.21444e-07
11.4174
-2.07241e-07
11.4147
-2.06381e-07
11.412
-2.01032e-07
11.4091
-1.95122e-07
11.4061
-1.90013e-07
11.4031
-1.86074e-07
11.3998
-1.83165e-07
11.3964
-1.80994e-07
11.3928
-1.79401e-07
11.389
-1.7876e-07
11.385
-1.79153e-07
11.3807
-1.80045e-07
11.3761
-1.82024e-07
11.3713
-1.84961e-07
11.3663
-1.88803e-07
11.3609
-1.93533e-07
11.3554
-1.99106e-07
11.3495
-2.05472e-07
11.3435
-2.12576e-07
11.3373
-2.20349e-07
11.3309
-2.2889e-07
11.3244
-2.4e-07
11.3177
-2.50202e-07
11.311
-2.63423e-07
11.3043
-2.53498e-07
11.2976
-2.58325e-07
11.291
-2.8577e-07
11.2844
-3.04247e-07
11.278
-3.06759e-07
11.2717
-3.11816e-07
11.2656
-3.19121e-07
11.2597
-3.25395e-07
11.2541
-3.30742e-07
11.2486
-3.35924e-07
11.2434
-3.39112e-07
11.2385
-3.41251e-07
11.2338
-3.42279e-07
11.2294
-3.41857e-07
11.2252
-3.40841e-07
11.2212
-3.37839e-07
11.2174
-3.33864e-07
11.2138
-3.28888e-07
11.2104
-3.22912e-07
11.2071
-3.1605e-07
11.2039
-3.08504e-07
11.2009
-3.00729e-07
11.1979
-2.92168e-07
11.195
-2.85223e-07
11.1921
-2.79396e-07
11.1893
-2.59764e-07
11.1865
-2.52513e-07
11.1837
-2.47658e-07
11.181
-2.39505e-07
11.1782
-2.31796e-07
11.1753
-2.24756e-07
11.1725
-2.18365e-07
11.1697
-2.12652e-07
11.1668
-2.0765e-07
11.1639
-2.03399e-07
11.1609
-1.99909e-07
11.158
-1.97206e-07
11.155
-1.95306e-07
11.152
-1.94221e-07
11.149
-1.93962e-07
11.146
-1.94535e-07
11.143
-1.95938e-07
11.1401
-1.98166e-07
11.1371
-2.01198e-07
11.1342
-2.05002e-07
11.1314
-2.09528e-07
11.1287
-2.14706e-07
11.126
-2.20438e-07
11.1234
-2.26624e-07
11.1209
-2.3313e-07
11.1185
-2.39815e-07
11.1162
-2.4653e-07
11.1139
-2.5311e-07
11.1118
-2.59409e-07
11.1097
-2.65287e-07
11.1077
-2.70611e-07
11.1057
-2.75284e-07
11.1037
-2.79227e-07
11.1018
-2.8239e-07
11.0999
-2.84756e-07
11.0979
-2.8633e-07
11.0959
-2.87145e-07
11.0938
-2.87258e-07
11.0916
-2.86737e-07
11.0893
-2.85649e-07
11.087
-2.84096e-07
11.0845
-2.82167e-07
11.0818
-2.79964e-07
11.0791
-2.77595e-07
11.0762
-2.75174e-07
11.0731
-2.72835e-07
11.0699
-2.7072e-07
11.0666
-2.6899e-07
11.0631
-2.67803e-07
11.0596
-2.67336e-07
11.0559
-2.67768e-07
11.0522
-2.69259e-07
11.0484
-2.71972e-07
11.0446
-2.76036e-07
11.0408
-2.81557e-07
11.0371
-2.88595e-07
11.0335
-2.97164e-07
11.03
-3.07221e-07
11.0267
-3.18675e-07
11.0235
-3.31345e-07
11.0206
-3.45059e-07
11.018
-3.59405e-07
11.0156
-3.74294e-07
11.0134
-3.88826e-07
11.0115
-4.03553e-07
11.0099
-4.1648e-07
11.0085
-4.29775e-07
11.0072
-4.3956e-07
11.0062
-4.50237e-07
11.0052
-4.56466e-07
11.0044
-4.63614e-07
11.0036
-4.66988e-07
11.0029
-4.70871e-07
11.0021
-4.7138e-07
11.0014
-4.74462e-07
11.0006
-4.71759e-07
10.9998
-4.72163e-07
10.999
-4.2705e-07
10.9981
-4.89232e-07
10.9971
-2.56202e-07
10.9961
-2.75797e-07
10.9949
1.15171e-06
10.9935
1.30842e-05
10.992
9.19015e-05
10.9898
0.000648164
10.9849
0.00452809
10.9621
0.0314716
10.8206
0.224369
1.04974
10.1865
138.237
-0.000260516
138.24
-0.00021565
138.243
-0.000189857
138.246
-0.000194389
138.248
-0.000195788
138.25
-0.000195231
138.251
-0.000195015
138.251
-0.000194755
138.25
-0.00019403
138.248
-0.00019259
138.244
-0.000189985
138.24
-0.000185826
138.234
-0.000179481
138.227
-0.00017073
138.22
-0.000159396
138.211
-0.000145675
138.2
-0.000129803
138.189
-0.000112753
138.177
-9.52245e-05
138.163
-7.81138e-05
138.149
-6.21904e-05
138.134
-4.80287e-05
138.118
-3.5966e-05
138.101
-2.61061e-05
138.083
-1.83589e-05
138.064
-1.24971e-05
138.045
-8.22144e-06
138.025
-5.21035e-06
138.005
-3.15822e-06
137.984
-1.80321e-06
137.962
-9.35185e-07
137.939
-3.93925e-07
137.916
-6.62874e-08
137.893
1.2357e-07
137.869
2.33704e-07
137.844
2.95182e-07
137.818
3.28797e-07
137.792
3.46578e-07
137.765
3.55469e-07
137.737
3.59339e-07
137.709
3.60287e-07
137.68
3.59411e-07
137.65
3.5727e-07
137.62
3.54145e-07
137.589
3.50194e-07
137.558
3.45502e-07
137.526
3.40131e-07
137.494
3.34121e-07
137.462
3.27533e-07
137.429
3.20425e-07
137.396
3.12853e-07
137.363
3.04884e-07
137.33
2.96591e-07
137.297
2.88047e-07
137.265
2.79342e-07
137.232
2.70542e-07
137.2
2.61733e-07
137.168
2.53016e-07
137.136
2.44499e-07
137.105
2.36628e-07
137.073
2.33862e-07
137.041
2.21441e-07
137.009
2.07236e-07
136.977
2.06381e-07
136.943
2.01033e-07
136.909
1.95121e-07
136.874
1.90017e-07
136.837
1.86074e-07
136.798
1.83162e-07
136.757
1.80993e-07
136.714
1.79402e-07
136.668
1.78757e-07
136.62
1.79153e-07
136.568
1.80047e-07
136.514
1.82029e-07
136.456
1.84964e-07
136.395
1.88809e-07
136.331
1.93533e-07
136.264
1.99102e-07
136.194
2.0547e-07
136.122
2.12576e-07
136.047
2.20349e-07
135.971
2.28891e-07
135.892
2.4e-07
135.813
2.50202e-07
135.733
2.63425e-07
135.652
2.53495e-07
135.572
2.58326e-07
135.492
2.85773e-07
135.413
3.04249e-07
135.336
3.06759e-07
135.261
3.11814e-07
135.188
3.19118e-07
135.117
3.25397e-07
135.049
3.30742e-07
134.984
3.35923e-07
134.921
3.39109e-07
134.862
3.4125e-07
134.806
3.4228e-07
134.752
3.41857e-07
134.702
3.40841e-07
134.654
3.37841e-07
134.609
3.3386e-07
134.565
3.28886e-07
134.524
3.22911e-07
134.485
3.16053e-07
134.447
3.08502e-07
134.41
3.00726e-07
134.375
2.92172e-07
134.34
2.85219e-07
134.306
2.79392e-07
134.272
2.59761e-07
134.238
2.52512e-07
134.205
2.47661e-07
134.171
2.39507e-07
134.138
2.31793e-07
134.104
2.24754e-07
134.07
2.18364e-07
134.036
2.12654e-07
134.001
2.07656e-07
133.966
2.03399e-07
133.931
1.99907e-07
133.896
1.97203e-07
133.86
1.95308e-07
133.824
1.94222e-07
133.788
1.93963e-07
133.752
1.94537e-07
133.716
1.95937e-07
133.681
1.98165e-07
133.646
2.012e-07
133.611
2.05002e-07
133.577
2.09525e-07
133.544
2.14704e-07
133.512
2.20439e-07
133.481
2.26623e-07
133.451
2.33129e-07
133.422
2.39816e-07
133.394
2.46527e-07
133.367
2.53111e-07
133.341
2.5941e-07
133.316
2.65288e-07
133.292
2.70613e-07
133.268
2.75285e-07
133.245
2.79227e-07
133.222
2.82392e-07
133.198
2.84756e-07
133.175
2.86331e-07
133.15
2.87147e-07
133.125
2.8726e-07
133.099
2.86734e-07
133.072
2.85654e-07
133.043
2.84097e-07
133.014
2.82167e-07
132.982
2.79964e-07
132.949
2.77592e-07
132.914
2.75174e-07
132.877
2.72834e-07
132.839
2.70724e-07
132.799
2.68991e-07
132.758
2.67799e-07
132.715
2.67335e-07
132.671
2.67765e-07
132.626
2.69256e-07
132.581
2.71972e-07
132.535
2.76037e-07
132.49
2.81558e-07
132.446
2.88596e-07
132.402
2.97164e-07
132.36
3.07221e-07
132.32
3.18673e-07
132.282
3.31349e-07
132.248
3.45042e-07
132.216
3.59438e-07
132.187
3.7423e-07
132.161
3.88951e-07
132.138
4.03332e-07
132.118
4.16841e-07
132.101
4.29243e-07
132.087
4.40273e-07
132.074
4.49361e-07
132.063
4.57446e-07
132.053
4.62541e-07
132.043
4.68248e-07
132.034
4.69088e-07
132.026
4.74219e-07
132.017
4.7029e-07
132.008
4.7582e-07
131.998
4.54207e-07
131.988
3.7986e-07
131.977
-6.37935e-08
131.966
9.59354e-07
131.953
8.68732e-07
131.939
2.64087e-06
131.923
1.87327e-05
131.905
0.000123809
131.884
0.000888594
131.859
0.0063429
131.82
0.0456583
131.653
0.36294
1.54478
131.128
11.5198
-0.000327789
11.52
-0.000235146
11.5203
-0.000225037
11.5205
-0.000227074
11.5207
-0.000227657
11.5209
-0.000227501
11.5209
-0.000227371
11.5209
-0.000227038
11.5208
-0.000226153
11.5206
-0.000224428
11.5204
-0.000221299
11.52
-0.000216414
11.5195
-0.000208867
11.519
-0.000198535
11.5183
-0.000185221
11.5176
-0.000169179
11.5167
-0.000150543
11.5158
-0.000130666
11.5147
-0.000110238
11.5136
-9.0335e-05
11.5124
-7.18434e-05
11.5112
-5.54232e-05
11.5098
-4.14575e-05
11.5084
-3.00581e-05
11.5069
-2.11141e-05
11.5054
-1.43544e-05
11.5038
-9.43119e-06
11.5021
-5.96782e-06
11.5004
-3.61061e-06
11.4986
-2.05581e-06
11.4968
-1.0606e-06
11.495
-4.41709e-07
11.493
-6.78683e-08
11.4911
1.50907e-07
11.489
2.76475e-07
11.487
3.46588e-07
11.4848
3.84796e-07
11.4827
4.04962e-07
11.4804
4.15026e-07
11.4781
4.19381e-07
11.4757
4.20407e-07
11.4733
4.19348e-07
11.4709
4.16831e-07
11.4683
4.13176e-07
11.4658
4.08563e-07
11.4632
4.03088e-07
11.4605
3.9682e-07
11.4578
3.89809e-07
11.4551
3.82124e-07
11.4524
3.73839e-07
11.4497
3.65009e-07
11.4469
3.55725e-07
11.4442
3.46061e-07
11.4415
3.36096e-07
11.4387
3.25937e-07
11.436
3.15669e-07
11.4334
3.05388e-07
11.4307
2.95213e-07
11.428
2.8525e-07
11.4254
2.75739e-07
11.4228
2.73714e-07
11.4201
2.58413e-07
11.4174
2.40852e-07
11.4147
2.41324e-07
11.412
2.34557e-07
11.4091
2.27752e-07
11.4061
2.21742e-07
11.4031
2.17153e-07
11.3998
2.13766e-07
11.3964
2.11243e-07
11.3928
2.09369e-07
11.389
2.08607e-07
11.385
2.09115e-07
11.3807
2.10104e-07
11.3761
2.12427e-07
11.3713
2.15843e-07
11.3663
2.20325e-07
11.3609
2.25826e-07
11.3554
2.32316e-07
11.3495
2.39741e-07
11.3435
2.48025e-07
11.3373
2.57072e-07
11.3309
2.66898e-07
11.3244
2.80234e-07
11.3177
2.91373e-07
11.311
3.08868e-07
11.3043
2.93658e-07
11.2976
3.01134e-07
11.291
3.34448e-07
11.2844
3.55396e-07
11.278
3.5755e-07
11.2717
3.63571e-07
11.2656
3.72303e-07
11.2597
3.79578e-07
11.2541
3.85789e-07
11.2486
3.92023e-07
11.2434
3.95605e-07
11.2385
3.98166e-07
11.2338
3.99381e-07
11.2294
3.9883e-07
11.2252
3.97762e-07
11.2212
3.9416e-07
11.2174
3.89547e-07
11.2138
3.83747e-07
11.2104
3.76769e-07
11.2071
3.68764e-07
11.2039
3.59933e-07
11.2009
3.50914e-07
11.1979
3.40751e-07
11.195
3.32735e-07
11.1921
3.26956e-07
11.1893
3.02098e-07
11.1865
2.94614e-07
11.1837
2.89234e-07
11.181
2.79457e-07
11.1782
2.70456e-07
11.1753
2.62246e-07
11.1725
2.54789e-07
11.1697
2.48125e-07
11.1668
2.42289e-07
11.1639
2.37325e-07
11.1609
2.33245e-07
11.158
2.30089e-07
11.155
2.27872e-07
11.152
2.26604e-07
11.149
2.263e-07
11.146
2.26966e-07
11.143
2.286e-07
11.1401
2.31195e-07
11.1371
2.34733e-07
11.1342
2.39173e-07
11.1314
2.4445e-07
11.1287
2.50491e-07
11.126
2.5718e-07
11.1234
2.64394e-07
11.1209
2.71986e-07
11.1185
2.79788e-07
11.1162
2.8762e-07
11.1139
2.95302e-07
11.1118
3.02651e-07
11.1097
3.0951e-07
11.1077
3.15726e-07
11.1057
3.21177e-07
11.1037
3.25776e-07
11.1018
3.2947e-07
11.0999
3.32228e-07
11.0979
3.34065e-07
11.0959
3.35021e-07
11.0938
3.35151e-07
11.0916
3.34539e-07
11.0893
3.33277e-07
11.087
3.3146e-07
11.0845
3.29208e-07
11.0818
3.26636e-07
11.0791
3.23869e-07
11.0762
3.21044e-07
11.0731
3.18312e-07
11.0699
3.15848e-07
11.0666
3.13825e-07
11.0631
3.12431e-07
11.0596
3.11886e-07
11.0559
3.12388e-07
11.0522
3.14121e-07
11.0484
3.17285e-07
11.0446
3.22023e-07
11.0408
3.28464e-07
11.0371
3.36669e-07
11.0335
3.46665e-07
11.03
3.58394e-07
11.0267
3.71752e-07
11.0235
3.86539e-07
11.0206
4.02513e-07
11.018
4.19313e-07
11.0156
4.36565e-07
11.0134
4.53749e-07
11.0115
4.70527e-07
11.0099
4.8628e-07
11.0085
5.00799e-07
11.0072
5.13561e-07
11.0062
5.24391e-07
11.0052
5.33426e-07
11.0044
5.40047e-07
11.0036
5.45611e-07
11.0029
5.48325e-07
11.0021
5.51659e-07
11.0014
5.51099e-07
11.0006
5.53287e-07
10.9998
5.45771e-07
10.999
5.20517e-07
10.9981
3.46809e-07
10.9971
7.36005e-07
10.9961
6.87602e-07
10.9949
1.27297e-06
10.9936
6.72691e-06
10.9921
4.2341e-05
10.991
0.000301671
10.9933
0.00216941
11.0207
0.0161912
11.2039
0.177337
0.670473
12.0757
5.75952
5.7594
5.75928
5.75916
5.75901
5.75884
5.75864
5.75839
5.7581
5.75777
5.75739
5.75698
5.75652
5.75603
5.7555
5.75494
5.75436
5.75375
5.75312
5.75246
5.75179
5.75109
5.75038
5.74964
5.74887
5.74809
5.74727
5.74644
5.74558
5.7447
5.74379
5.74286
5.7419
5.74092
5.73991
5.73887
5.7378
5.73671
5.73559
5.73444
5.73326
5.73205
5.73082
5.72956
5.72828
5.72697
5.72565
5.72431
5.72295
5.72159
5.72022
5.71885
5.71749
5.71612
5.71476
5.71341
5.71207
5.71074
5.70942
5.7081
5.70678
5.70545
5.70412
5.70276
5.70138
5.69995
5.69847
5.69693
5.69532
5.69362
5.69182
5.68991
5.68789
5.68575
5.68348
5.68107
5.67854
5.67587
5.67308
5.67018
5.66716
5.66405
5.66085
5.65759
5.65428
5.65093
5.64758
5.64424
5.64091
5.63764
5.63442
5.63128
5.62823
5.62529
5.62245
5.61973
5.61714
5.61467
5.61233
5.6101
5.608
5.606
5.60411
5.60231
5.6006
5.59895
5.59738
5.59585
5.59437
5.59292
5.5915
5.59009
5.58869
5.5873
5.5859
5.58451
5.5831
5.58168
5.58025
5.57881
5.57736
5.57589
5.57441
5.57292
5.57143
5.56993
5.56843
5.56694
5.56546
5.564
5.56256
5.56115
5.55977
5.55843
5.55713
5.55588
5.55467
5.55351
5.5524
5.55132
5.55028
5.54928
5.54829
5.54731
5.54635
5.54537
5.54438
5.54337
5.54233
5.54124
5.54011
5.53892
5.53768
5.53636
5.53498
5.53353
5.53201
5.53041
5.52875
5.52702
5.52524
5.52341
5.52154
5.51965
5.51776
5.51587
5.51401
5.5122
5.51046
5.50879
5.50722
5.50577
5.50444
5.50323
5.50216
5.50122
5.5004
5.49969
5.49908
5.49854
5.49808
5.49766
5.49727
5.4969
5.49653
5.49616
5.49578
5.49539
5.49497
5.49452
5.49404
5.49351
5.49292
5.49226
5.49155
5.491
5.49222
5.50736
5.68353
6.35275
4.85014
0.119887
4.85799
-0.00816921
4.85565
0.00200862
4.86155
-0.00623841
4.87523
-0.0140263
4.88391
-0.00902845
4.87761
0.00593596
4.89047
-0.013276
5.01792
-0.127738
5.24539
-0.22813
5.46746
-0.223228
5.53243
-0.0668578
5.46826
0.0628789
5.34255
0.124909
5.17502
0.166894
5.01451
0.160072
4.9802
0.0344832
5.26926
-0.287571
5.91616
-0.645501
-1.21099
7.12718
10.1378
0.16794
10.1573
-0.0282081
10.2054
-0.046768
10.262
-0.0634967
10.3285
-0.0812001
10.387
-0.0682662
10.4155
-0.023164
10.4675
-0.066146
10.7339
-0.394641
11.2104
-0.706071
11.7152
-0.730493
11.9488
-0.304186
11.9271
0.0822876
11.7539
0.296656
11.4369
0.48283
11.0318
0.564628
10.7326
0.333965
10.9662
-0.517776
11.7893
-1.46646
-3.0815
13.6595
131.173
0.117178
131.236
-0.0969883
131.227
-0.0441192
131.058
0.0989034
130.744
0.226773
130.365
0.304761
129.976
0.360449
129.555
0.347502
128.773
0.382589
127.71
0.350141
126.624
0.351382
125.995
0.321845
125.783
0.289385
125.816
0.25661
126.066
0.224253
126.43
0.191465
126.597
0.156647
125.951
0.115577
124.425
0.0497939
-0.13914
121.476
12.0201
0.172461
11.9282
-0.00551042
11.889
-0.00525818
11.9622
0.0253135
12.1324
0.056136
12.3575
0.079263
12.6196
0.0973381
12.8691
0.0981511
13.1428
0.107937
13.3917
0.101314
13.6429
0.0996367
13.8749
0.0894056
14.0874
0.0765734
14.2808
0.062771
14.4559
0.0487834
14.6128
0.034266
14.752
0.0171248
14.8769
-0.00962723
14.9903
-0.0639157
-0.234525
15.0853
6.52504
6.51935
6.51391
6.53903
6.59496
6.67399
6.77095
6.86902
6.97663
7.07787
7.1773
7.26651
7.3429
7.40549
7.45411
7.48822
7.50519
7.4954
7.43132
7.19661
7.5345
-0.41287
7.32156
0.210974
7.40199
-0.0794482
7.58734
-0.185453
7.6723
-0.086092
7.67524
-0.00382207
7.65781
0.0168126
7.65511
0.00199136
7.66176
-0.00745477
7.66552
-0.004558
7.67348
-0.00873928
7.68584
-0.0131989
7.69214
-0.00721
7.68982
0.00142662
7.67906
0.00989464
7.65705
0.0211722
7.62131
0.0349232
7.56809
0.0522866
7.49167
0.0743106
7.38464
0.0996093
7.24737
0.128102
7.08461
0.159127
6.89919
0.184892
6.70053
0.204329
6.49744
0.213429
6.29698
0.205024
6.11164
0.186257
5.95107
0.160196
5.81911
0.129876
5.71601
0.101537
5.63875
0.0763264
5.5826
0.0556205
5.54281
0.0395008
5.51521
0.0274384
5.49645
0.0186839
5.48396
0.0124873
5.47581
0.00819555
5.47062
0.00528237
5.46742
0.00334248
5.46553
0.00207703
5.46449
0.00126606
5.46399
0.000757318
5.46383
0.000444415
5.46389
0.000255886
5.46409
0.000144417
5.46436
8.00086e-05
5.46468
4.34576e-05
5.46503
2.31255e-05
5.46538
1.20521e-05
5.46572
6.12387e-06
5.46606
3.02812e-06
5.46637
1.42638e-06
5.46665
6.18082e-07
5.4669
2.18075e-07
5.46711
2.34468e-08
5.46728
-6.90798e-08
5.4674
-1.1169e-07
5.46747
-1.31135e-07
5.46749
-1.39707e-07
5.46745
-1.43786e-07
5.46737
-1.4549e-07
5.46723
-1.46607e-07
5.46705
-1.4762e-07
5.46682
-1.48677e-07
5.46656
-1.49821e-07
5.46626
-1.51163e-07
5.46592
-1.53266e-07
5.46556
-1.54701e-07
5.46519
-1.57024e-07
5.4648
-1.59307e-07
5.46441
-1.61539e-07
5.46402
-1.64322e-07
5.46364
-1.67371e-07
5.46327
-1.69548e-07
5.46291
-1.70019e-07
5.46258
-1.74154e-07
5.46228
-1.77606e-07
5.46201
-1.80642e-07
5.46177
-1.83112e-07
5.46157
-1.85652e-07
5.46141
-1.88011e-07
5.46129
-1.90119e-07
5.46121
-1.92082e-07
5.46117
-1.93961e-07
5.46118
-1.95023e-07
5.46122
-1.96691e-07
5.46131
-1.96944e-07
5.46143
-1.97491e-07
5.46159
-1.97486e-07
5.46178
-1.96736e-07
5.462
-1.9626e-07
5.46225
-1.94539e-07
5.46253
-1.92966e-07
5.46282
-1.90785e-07
5.46313
-1.87965e-07
5.46345
-1.85019e-07
5.46377
-1.81746e-07
5.46409
-1.79045e-07
5.46441
-1.76382e-07
5.46471
-1.72067e-07
5.465
-1.67121e-07
5.46526
-1.62596e-07
5.46549
-1.60695e-07
5.46569
-1.51271e-07
5.46585
-1.51831e-07
5.46597
-1.44144e-07
5.46604
-1.42667e-07
5.46606
-1.37854e-07
5.46603
-1.34958e-07
5.46595
-1.31991e-07
5.46581
-1.29474e-07
5.46562
-1.27813e-07
5.46537
-1.25605e-07
5.46506
-1.24848e-07
5.46471
-1.233e-07
5.46431
-1.227e-07
5.46386
-1.22331e-07
5.46336
-1.22094e-07
5.46283
-1.22111e-07
5.46226
-1.22458e-07
5.46166
-1.23273e-07
5.46103
-1.24033e-07
5.46037
-1.25177e-07
5.45968
-1.26372e-07
5.45898
-1.27367e-07
5.45825
-1.27962e-07
5.4575
-1.28532e-07
5.45674
-1.28977e-07
5.45595
-1.29327e-07
5.45515
-1.29425e-07
5.45433
-1.29299e-07
5.45349
-1.28868e-07
5.45263
-1.28181e-07
5.45175
-1.27216e-07
5.45085
-1.25876e-07
5.44993
-1.24177e-07
5.44898
-1.22256e-07
5.44801
-1.19997e-07
5.44702
-1.17403e-07
5.446
-1.14782e-07
5.44496
-1.12059e-07
5.44389
-1.09312e-07
5.4428
-1.06615e-07
5.44168
-1.04013e-07
5.44054
-1.01556e-07
5.43938
-9.93168e-08
5.43819
-9.7245e-08
5.43698
-9.54387e-08
5.43575
-9.39326e-08
5.4345
-9.28358e-08
5.43324
-9.22155e-08
5.43196
-9.21063e-08
5.43066
-9.25265e-08
5.42936
-9.35015e-08
5.42805
-9.51841e-08
5.42674
-9.76324e-08
5.42543
-1.00885e-07
5.42414
-1.04936e-07
5.42285
-1.09862e-07
5.42159
-1.15722e-07
5.42035
-1.22496e-07
5.41914
-1.30181e-07
5.41797
-1.38705e-07
5.41685
-1.47968e-07
5.41578
-1.57814e-07
5.41476
-1.68144e-07
5.4138
-1.78827e-07
5.4129
-1.89748e-07
5.41207
-2.00806e-07
5.41131
-2.11894e-07
5.41061
-2.22868e-07
5.40998
-2.3356e-07
5.40941
-2.43816e-07
5.4089
-2.534e-07
5.40845
-2.6216e-07
5.40803
-2.69771e-07
5.40766
-2.76468e-07
5.40732
-2.81618e-07
5.407
-2.85843e-07
5.40669
-2.85105e-07
5.4064
-2.65281e-07
5.4061
-1.48928e-07
5.4058
-6.65919e-07
5.40549
1.03721e-07
5.40518
-4.98127e-07
5.40485
-2.63721e-07
5.40451
-3.66686e-07
5.40415
-1.9479e-07
5.40378
-2.94787e-07
5.4034
-3.78544e-07
5.403
-4.27568e-07
5.40259
-1.305e-06
5.40215
-6.0613e-06
5.40172
-2.9962e-05
5.40137
-0.000152725
5.40162
-0.000790078
5.40516
-0.00412071
5.42679
-0.0222666
5.58845
-0.162347
-0.630435
6.21814
14.7626
-1.52798
14.3182
0.651679
14.2602
-0.0197118
14.5141
-0.439609
14.6925
-0.266654
14.7196
-0.0326669
14.6794
0.0557334
14.6595
0.0204941
14.661
-0.0105629
14.6575
-0.00269335
14.659
-0.0118505
14.6733
-0.0291024
14.6823
-0.0181095
14.6757
0.00625462
14.6512
0.0327674
14.6038
0.0669504
14.5308
0.106318
14.4282
0.153311
14.2901
0.210137
14.1082
0.275893
13.8802
0.349434
13.6097
0.426642
13.301
0.492722
12.9679
0.539352
12.6281
0.558163
12.2973
0.538096
11.994
0.489808
11.7319
0.421788
11.5167
0.344399
11.3482
0.269349
11.2212
0.202741
11.1287
0.147699
11.0632
0.104686
11.018
0.0724555
10.9875
0.0490916
10.9674
0.0326119
10.9544
0.0212591
10.9463
0.0136043
10.9414
0.00854778
10.9386
0.00527249
10.9371
0.00319236
10.9365
0.0018973
10.9364
0.00110682
10.9366
0.000633717
10.9371
0.000356056
10.9377
0.000196436
10.9384
0.00010637
10.9391
5.65295e-05
10.9398
2.9483e-05
10.9405
1.50629e-05
10.9411
7.54944e-06
10.9418
3.67677e-06
10.9423
1.72598e-06
10.9428
7.59871e-07
10.9432
2.90219e-07
10.9436
6.56881e-08
10.9438
-3.79648e-08
10.944
-8.62527e-08
10.944
-1.08077e-07
10.9439
-1.18078e-07
10.9438
-1.225e-07
10.9435
-1.2472e-07
10.9431
-1.26119e-07
10.9427
-1.27258e-07
10.9421
-1.28343e-07
10.9415
-1.29562e-07
10.9409
-1.31284e-07
10.9401
-1.32644e-07
10.9394
-1.34546e-07
10.9386
-1.36526e-07
10.9378
-1.38459e-07
10.937
-1.40758e-07
10.9363
-1.43336e-07
10.9355
-1.45279e-07
10.9348
-1.46074e-07
10.9342
-1.49062e-07
10.9336
-1.52203e-07
10.933
-1.54795e-07
10.9326
-1.5696e-07
10.9322
-1.59118e-07
10.9318
-1.61137e-07
10.9316
-1.62977e-07
10.9314
-1.64649e-07
10.9313
-1.66206e-07
10.9314
-1.67256e-07
10.9314
-1.68481e-07
10.9316
-1.68862e-07
10.9319
-1.69258e-07
10.9322
-1.69232e-07
10.9326
-1.68686e-07
10.933
-1.68156e-07
10.9335
-1.66787e-07
10.934
-1.65367e-07
10.9346
-1.63517e-07
10.9352
-1.61126e-07
10.9359
-1.58544e-07
10.9365
-1.55831e-07
10.9372
-1.53395e-07
10.9378
-1.51005e-07
10.9384
-1.47469e-07
10.939
-1.43297e-07
10.9395
-1.39455e-07
10.94
-1.36994e-07
10.9404
-1.30077e-07
10.9407
-1.29966e-07
10.9409
-1.24168e-07
10.9411
-1.2196e-07
10.9411
-1.18572e-07
10.941
-1.15376e-07
10.9409
-1.13044e-07
10.9406
-1.11052e-07
10.9402
-1.09397e-07
10.9397
-1.07892e-07
10.9391
-1.06837e-07
10.9384
-1.05759e-07
10.9376
-1.05154e-07
10.9367
-1.04861e-07
10.9357
-1.04675e-07
10.9346
-1.04647e-07
10.9335
-1.04974e-07
10.9323
-1.05638e-07
10.931
-1.06344e-07
10.9297
-1.07251e-07
10.9283
-1.08301e-07
10.9269
-1.09169e-07
10.9255
-1.09745e-07
10.924
-1.1018e-07
10.9224
-1.10556e-07
10.9209
-1.10859e-07
10.9193
-1.1094e-07
10.9176
-1.10833e-07
10.916
-1.10465e-07
10.9142
-1.09877e-07
10.9125
-1.09042e-07
10.9107
-1.07892e-07
10.9088
-1.06434e-07
10.9069
-1.0478e-07
10.905
-1.02848e-07
10.903
-1.00633e-07
10.901
-9.83696e-08
10.8989
-9.60518e-08
10.8967
-9.3701e-08
10.8946
-9.13866e-08
10.8923
-8.91582e-08
10.89
-8.7054e-08
10.8877
-8.51317e-08
10.8853
-8.33626e-08
10.8829
-8.18072e-08
10.8805
-8.05167e-08
10.878
-7.95729e-08
10.8754
-7.90384e-08
10.8729
-7.89414e-08
10.8703
-7.93016e-08
10.8677
-8.01374e-08
10.8651
-8.15797e-08
10.8624
-8.36833e-08
10.8598
-8.64679e-08
10.8572
-8.9942e-08
10.8547
-9.41676e-08
10.8521
-9.91927e-08
10.8497
-1.05004e-07
10.8472
-1.11598e-07
10.8449
-1.18912e-07
10.8427
-1.26858e-07
10.8405
-1.35304e-07
10.8385
-1.44161e-07
10.8365
-1.5332e-07
10.8348
-1.62681e-07
10.8331
-1.72153e-07
10.8316
-1.81656e-07
10.8302
-1.91045e-07
10.8289
-2.00229e-07
10.8278
-2.0898e-07
10.8268
-2.17246e-07
10.8258
-2.24697e-07
10.825
-2.31205e-07
10.8243
-2.37058e-07
10.8236
-2.4095e-07
10.8229
-2.44192e-07
10.8223
-2.35186e-07
10.8217
-1.71504e-07
10.8211
1.74812e-07
10.8205
-1.37068e-06
10.8199
9.36251e-07
10.8193
-8.53936e-07
10.8186
-1.65683e-07
10.8179
-4.7596e-07
10.8172
-4.7894e-09
10.8165
-2.27076e-07
10.8157
-5.68529e-07
10.8149
-6.23698e-07
10.8141
-3.31136e-06
10.8132
-1.72591e-05
10.8124
-8.77509e-05
10.8117
-0.000449987
10.8121
-0.00232663
10.8189
-0.0120453
10.8582
-0.0628528
11.044
-0.349527
-1.43838
11.8504
119.898
0.0468438
120.518
0.0200707
120.397
0.0837008
119.866
0.0733413
119.557
0.0258226
119.506
0.0024521
119.543
0.0023127
119.54
0.005479
119.506
0.00483967
119.481
0.00265955
119.454
-0.00514803
119.431
-0.0257655
119.451
-0.057172
119.542
-0.0997956
119.723
-0.155089
120.004
-0.223958
120.4
-0.303151
120.924
-0.385785
121.578
-0.460285
122.353
-0.515367
123.229
-0.542154
124.18
-0.537329
125.169
-0.508515
126.159
-0.460395
127.109
-0.401028
127.977
-0.338959
128.735
-0.277384
129.369
-0.219913
129.875
-0.169527
130.265
-0.126896
130.554
-0.0922871
130.763
-0.0651622
130.91
-0.0446925
131.01
-0.0297609
131.078
-0.0192477
131.123
-0.0120919
131.153
-0.00737862
131.173
-0.0043725
131.188
-0.00251506
131.199
-0.0014023
131.208
-0.000756918
131.217
-0.000394601
131.225
-0.000197823
131.233
-9.48919e-05
131.242
-4.31078e-05
131.251
-1.81937e-05
131.259
-6.853e-06
131.268
-2.04233e-06
131.277
-2.16662e-07
131.285
3.4841e-07
131.294
4.3545e-07
131.301
3.77417e-07
131.308
2.96986e-07
131.314
2.31333e-07
131.319
1.87128e-07
131.323
1.59766e-07
131.326
1.44027e-07
131.327
1.35089e-07
131.328
1.30259e-07
131.327
1.27979e-07
131.325
1.26832e-07
131.322
1.2659e-07
131.317
1.2692e-07
131.312
1.27593e-07
131.306
1.28481e-07
131.298
1.2962e-07
131.29
1.31305e-07
131.282
1.32654e-07
131.273
1.3455e-07
131.263
1.36524e-07
131.254
1.38459e-07
131.245
1.4076e-07
131.235
1.43336e-07
131.226
1.45281e-07
131.218
1.46076e-07
131.21
1.49061e-07
131.203
1.52204e-07
131.196
1.54793e-07
131.191
1.56959e-07
131.186
1.59117e-07
131.182
1.61133e-07
131.179
1.62972e-07
131.177
1.64652e-07
131.176
1.66207e-07
131.176
1.6726e-07
131.177
1.68482e-07
131.179
1.68864e-07
131.182
1.69255e-07
131.186
1.69231e-07
131.191
1.68685e-07
131.196
1.68156e-07
131.202
1.66786e-07
131.209
1.65366e-07
131.216
1.63518e-07
131.223
1.61122e-07
131.231