/*--------------------------------*- C++ -*----------------------------------*\
| =========                 |                                                 |
| \\      /  F ield         | OpenFOAM: The Open Source CFD Toolbox           |
|  \\    /   O peration     | Version:  3.0.x                                 |
|   \\  /    A nd           | Web:      www.OpenFOAM.org                      |
|    \\/     M anipulation  |                                                 |
\*---------------------------------------------------------------------------*/
FoamFile
{
    version     2.0;
    format      ascii;
    class       volVectorField;
    location    "0.11";
    object      U;
}
// * * * * * * * * * * * * * * * * * * * * * * * * * * * * * * * * * * * * * //

dimensions      [0 1 -1 0 0 0 0];

internalField   nonuniform List<vector> 
6900
(
(42.699 0.000101803 0)
(42.6985 9.32081e-05 0)
(42.6973 9.06335e-05 0)
(42.6959 9.15863e-05 0)
(42.6946 9.23545e-05 0)
(42.6934 9.27751e-05 0)
(42.6919 9.30478e-05 0)
(42.6901 9.31453e-05 0)
(42.6879 9.29644e-05 0)
(42.6856 9.23821e-05 0)
(42.6829 9.11938e-05 0)
(42.6799 8.92173e-05 0)
(42.6767 8.6161e-05 0)
(42.6731 8.1921e-05 0)
(42.6694 7.64278e-05 0)
(42.6653 6.9777e-05 0)
(42.6611 6.2113e-05 0)
(42.6567 5.38858e-05 0)
(42.6522 4.54471e-05 0)
(42.6475 3.72287e-05 0)
(42.6427 2.95973e-05 0)
(42.6377 2.28245e-05 0)
(42.6326 1.70677e-05 0)
(42.6274 1.23717e-05 0)
(42.622 8.6893e-06 0)
(42.6165 5.90834e-06 0)
(42.6108 3.88327e-06 0)
(42.605 2.45918e-06 0)
(42.5991 1.48995e-06 0)
(42.593 8.50312e-07 0)
(42.5868 4.40473e-07 0)
(42.5804 1.84389e-07 0)
(42.5738 2.87518e-08 0)
(42.5671 -5.7807e-08 0)
(42.5602 -1.07343e-07 0)
(42.5531 -1.34936e-07 0)
(42.5459 -1.49855e-07 0)
(42.5385 -1.57622e-07 0)
(42.5309 -1.61404e-07 0)
(42.5231 -1.62972e-07 0)
(42.515 -1.63277e-07 0)
(42.5068 -1.62829e-07 0)
(42.4984 -1.61883e-07 0)
(42.4898 -1.60577e-07 0)
(42.4809 -1.58984e-07 0)
(42.4719 -1.57153e-07 0)
(42.4628 -1.55112e-07 0)
(42.4535 -1.52881e-07 0)
(42.444 -1.50501e-07 0)
(42.4344 -1.48003e-07 0)
(42.4248 -1.4542e-07 0)
(42.4151 -1.42804e-07 0)
(42.4053 -1.40213e-07 0)
(42.3955 -1.37665e-07 0)
(42.3858 -1.35137e-07 0)
(42.376 -1.32572e-07 0)
(42.3662 -1.29957e-07 0)
(42.3565 -1.27335e-07 0)
(42.3468 -1.24751e-07 0)
(42.337 -1.22266e-07 0)
(42.3273 -1.21429e-07 0)
(42.3176 -1.17924e-07 0)
(42.3076 -1.13563e-07 0)
(42.2975 -1.13407e-07 0)
(42.2871 -1.11784e-07 0)
(42.2765 -1.10106e-07 0)
(42.2655 -1.08651e-07 0)
(42.2541 -1.07626e-07 0)
(42.2421 -1.06957e-07 0)
(42.2295 -1.06506e-07 0)
(42.2162 -1.06176e-07 0)
(42.2021 -1.06095e-07 0)
(42.1871 -1.06318e-07 0)
(42.1713 -1.06586e-07 0)
(42.1545 -1.07134e-07 0)
(42.1368 -1.07883e-07 0)
(42.1181 -1.08804e-07 0)
(42.0984 -1.09868e-07 0)
(42.0779 -1.11049e-07 0)
(42.0564 -1.12286e-07 0)
(42.0341 -1.13558e-07 0)
(42.0111 -1.14836e-07 0)
(41.9875 -1.16116e-07 0)
(41.9633 -1.18301e-07 0)
(41.9388 -1.20115e-07 0)
(41.9141 -1.23683e-07 0)
(41.8893 -1.18558e-07 0)
(41.8643 -1.18073e-07 0)
(41.8394 -1.25745e-07 0)
(41.815 -1.30562e-07 0)
(41.7911 -1.30535e-07 0)
(41.7677 -1.31015e-07 0)
(41.7449 -1.32234e-07 0)
(41.7229 -1.33183e-07 0)
(41.7018 -1.33895e-07 0)
(41.6815 -1.34696e-07 0)
(41.6621 -1.34923e-07 0)
(41.6437 -1.34949e-07 0)
(41.6262 -1.34734e-07 0)
(41.6096 -1.34158e-07 0)
(41.5939 -1.33574e-07 0)
(41.5791 -1.32428e-07 0)
(41.565 -1.31094e-07 0)
(41.5517 -1.29537e-07 0)
(41.5389 -1.27745e-07 0)
(41.5267 -1.25744e-07 0)
(41.515 -1.23571e-07 0)
(41.5037 -1.214e-07 0)
(41.4927 -1.18984e-07 0)
(41.4819 -1.17035e-07 0)
(41.4713 -1.1549e-07 0)
(41.4608 -1.09918e-07 0)
(41.4503 -1.08103e-07 0)
(41.4398 -1.0684e-07 0)
(41.4293 -1.04662e-07 0)
(41.4187 -1.0267e-07 0)
(41.408 -1.009e-07 0)
(41.3972 -9.93522e-08 0)
(41.3863 -9.80323e-08 0)
(41.3752 -9.69562e-08 0)
(41.364 -9.61264e-08 0)
(41.3526 -9.55466e-08 0)
(41.3412 -9.5211e-08 0)
(41.3296 -9.50951e-08 0)
(41.3179 -9.51875e-08 0)
(41.3062 -9.54951e-08 0)
(41.2945 -9.60161e-08 0)
(41.2828 -9.67557e-08 0)
(41.2711 -9.7714e-08 0)
(41.2595 -9.88915e-08 0)
(41.2481 -1.0028e-07 0)
(41.2368 -1.01861e-07 0)
(41.2258 -1.03614e-07 0)
(41.2151 -1.05517e-07 0)
(41.2047 -1.07557e-07 0)
(41.1947 -1.09702e-07 0)
(41.1849 -1.11927e-07 0)
(41.1756 -1.14195e-07 0)
(41.1666 -1.1647e-07 0)
(41.158 -1.18717e-07 0)
(41.1496 -1.20895e-07 0)
(41.1415 -1.22976e-07 0)
(41.1336 -1.24913e-07 0)
(41.1259 -1.26691e-07 0)
(41.1182 -1.28281e-07 0)
(41.1105 -1.29676e-07 0)
(41.1028 -1.30865e-07 0)
(41.0948 -1.31856e-07 0)
(41.0867 -1.32656e-07 0)
(41.0783 -1.33281e-07 0)
(41.0696 -1.33748e-07 0)
(41.0604 -1.34081e-07 0)
(41.0508 -1.34312e-07 0)
(41.0407 -1.34464e-07 0)
(41.03 -1.34569e-07 0)
(41.0188 -1.34663e-07 0)
(41.0071 -1.34778e-07 0)
(40.9947 -1.34936e-07 0)
(40.9819 -1.35175e-07 0)
(40.9685 -1.35526e-07 0)
(40.9546 -1.36035e-07 0)
(40.9403 -1.36747e-07 0)
(40.9257 -1.37705e-07 0)
(40.9109 -1.38956e-07 0)
(40.8959 -1.40539e-07 0)
(40.881 -1.42491e-07 0)
(40.8662 -1.44823e-07 0)
(40.8517 -1.47538e-07 0)
(40.8376 -1.50625e-07 0)
(40.8241 -1.5405e-07 0)
(40.8113 -1.57779e-07 0)
(40.7994 -1.61809e-07 0)
(40.7884 -1.66053e-07 0)
(40.7783 -1.7053e-07 0)
(40.7693 -1.74989e-07 0)
(40.7613 -1.79675e-07 0)
(40.7544 -1.83913e-07 0)
(40.7483 -1.88502e-07 0)
(40.7431 -1.92065e-07 0)
(40.7385 -1.96164e-07 0)
(40.7346 -1.98908e-07 0)
(40.7311 -2.02044e-07 0)
(40.7279 -2.0422e-07 0)
(40.7249 -2.06155e-07 0)
(40.722 -2.0777e-07 0)
(40.7191 -2.0918e-07 0)
(40.7161 -2.10229e-07 0)
(40.7131 -2.11041e-07 0)
(40.7099 -1.9561e-07 0)
(40.7065 -2.32723e-07 0)
(40.7028 -2.70703e-07 0)
(40.6988 -2.17172e-07 0)
(40.6944 -1.60848e-07 0)
(40.6894 4.95784e-07 0)
(40.6837 4.77227e-06 0)
(40.6766 3.50681e-05 0)
(40.6641 0.000247044 0)
(40.6183 0.00174537 0)
(40.4388 0.0158644 0)
(38.0118 0.0817762 0)
(42.7008 0.00012914 0)
(42.702 9.97183e-05 0)
(42.7027 8.66407e-05 0)
(42.7031 8.60749e-05 0)
(42.7036 8.61142e-05 0)
(42.7042 8.57298e-05 0)
(42.7045 8.54121e-05 0)
(42.7045 8.51099e-05 0)
(42.7041 8.46572e-05 0)
(42.7036 8.39274e-05 0)
(42.7027 8.27103e-05 0)
(42.7014 8.08515e-05 0)
(42.6999 7.80384e-05 0)
(42.698 7.41987e-05 0)
(42.6957 6.92518e-05 0)
(42.6931 6.32837e-05 0)
(42.6901 5.63653e-05 0)
(42.6869 4.89594e-05 0)
(42.6833 4.13431e-05 0)
(42.6794 3.3911e-05 0)
(42.6752 2.69961e-05 0)
(42.6707 2.08469e-05 0)
(42.666 1.56095e-05 0)
(42.661 1.13286e-05 0)
(42.6559 7.96511e-06 0)
(42.6505 5.41993e-06 0)
(42.6449 3.56354e-06 0)
(42.6392 2.25663e-06 0)
(42.6333 1.36665e-06 0)
(42.6272 7.7945e-07 0)
(42.621 4.03397e-07 0)
(42.6146 1.69275e-07 0)
(42.608 2.72076e-08 0)
(42.6013 -5.56193e-08 0)
(42.5944 -1.03789e-07 0)
(42.5873 -1.30734e-07 0)
(42.5801 -1.45431e-07 0)
(42.5727 -1.53176e-07 0)
(42.5651 -1.57024e-07 0)
(42.5572 -1.58661e-07 0)
(42.5492 -1.59003e-07 0)
(42.541 -1.58516e-07 0)
(42.5326 -1.57438e-07 0)
(42.5239 -1.55886e-07 0)
(42.5151 -1.53931e-07 0)
(42.5061 -1.51611e-07 0)
(42.4969 -1.48952e-07 0)
(42.4876 -1.45999e-07 0)
(42.4782 -1.42784e-07 0)
(42.4686 -1.39342e-07 0)
(42.4589 -1.35719e-07 0)
(42.4492 -1.31955e-07 0)
(42.4395 -1.28091e-07 0)
(42.4297 -1.24134e-07 0)
(42.4199 -1.20073e-07 0)
(42.4101 -1.15866e-07 0)
(42.4004 -1.1155e-07 0)
(42.3906 -1.07197e-07 0)
(42.3809 -1.02882e-07 0)
(42.3712 -9.8778e-08 0)
(42.3614 -9.7304e-08 0)
(42.3517 -9.11974e-08 0)
(42.3417 -8.39717e-08 0)
(42.3316 -8.34837e-08 0)
(42.3212 -8.06803e-08 0)
(42.3106 -7.77613e-08 0)
(42.2996 -7.52146e-08 0)
(42.2882 -7.32756e-08 0)
(42.2762 -7.18676e-08 0)
(42.2635 -7.0843e-08 0)
(42.2502 -7.01279e-08 0)
(42.2361 -6.9915e-08 0)
(42.2212 -7.0266e-08 0)
(42.2054 -7.08357e-08 0)
(42.1886 -7.19644e-08 0)
(42.1709 -7.35562e-08 0)
(42.1522 -7.55697e-08 0)
(42.1325 -7.79767e-08 0)
(42.1119 -8.07308e-08 0)
(42.0904 -8.37865e-08 0)
(42.0682 -8.70914e-08 0)
(42.0451 -9.05817e-08 0)
(42.0215 -9.42819e-08 0)
(41.9973 -9.93008e-08 0)
(41.9728 -1.03709e-07 0)
(41.9481 -1.10334e-07 0)
(41.9233 -1.04764e-07 0)
(41.8983 -1.07097e-07 0)
(41.8734 -1.20958e-07 0)
(41.849 -1.30194e-07 0)
(41.8251 -1.3192e-07 0)
(41.8017 -1.35014e-07 0)
(41.7789 -1.3946e-07 0)
(41.7569 -1.43504e-07 0)
(41.7357 -1.47163e-07 0)
(41.7155 -1.50856e-07 0)
(41.6961 -1.53469e-07 0)
(41.6777 -1.55552e-07 0)
(41.6602 -1.56996e-07 0)
(41.6436 -1.57612e-07 0)
(41.6279 -1.57882e-07 0)
(41.613 -1.57008e-07 0)
(41.599 -1.55579e-07 0)
(41.5856 -1.53548e-07 0)
(41.5729 -1.50931e-07 0)
(41.5607 -1.47791e-07 0)
(41.5489 -1.44238e-07 0)
(41.5376 -1.40522e-07 0)
(41.5266 -1.36314e-07 0)
(41.5158 -1.32858e-07 0)
(41.5053 -1.29929e-07 0)
(41.4947 -1.20178e-07 0)
(41.4842 -1.16576e-07 0)
(41.4737 -1.1394e-07 0)
(41.4632 -1.09703e-07 0)
(41.4526 -1.057e-07 0)
(41.4419 -1.02007e-07 0)
(41.4311 -9.8619e-08 0)
(41.4202 -9.55558e-08 0)
(41.4091 -9.28356e-08 0)
(41.3979 -9.04813e-08 0)
(41.3865 -8.84914e-08 0)
(41.375 -8.68716e-08 0)
(41.3635 -8.56046e-08 0)
(41.3518 -8.46885e-08 0)
(41.3401 -8.4133e-08 0)
(41.3283 -8.39466e-08 0)
(41.3166 -8.41406e-08 0)
(41.3049 -8.47242e-08 0)
(41.2933 -8.56976e-08 0)
(41.2819 -8.70482e-08 0)
(41.2707 -8.87572e-08 0)
(41.2597 -9.0796e-08 0)
(41.2489 -9.31247e-08 0)
(41.2385 -9.56999e-08 0)
(41.2285 -9.84703e-08 0)
(41.2188 -1.01379e-07 0)
(41.2094 -1.04359e-07 0)
(41.2004 -1.07333e-07 0)
(41.1918 -1.10237e-07 0)
(41.1834 -1.13e-07 0)
(41.1753 -1.15548e-07 0)
(41.1674 -1.17834e-07 0)
(41.1596 -1.19805e-07 0)
(41.152 -1.21425e-07 0)
(41.1443 -1.22677e-07 0)
(41.1365 -1.23554e-07 0)
(41.1286 -1.24061e-07 0)
(41.1205 -1.2421e-07 0)
(41.1121 -1.24033e-07 0)
(41.1033 -1.23555e-07 0)
(41.0941 -1.2282e-07 0)
(41.0845 -1.2187e-07 0)
(41.0744 -1.20756e-07 0)
(41.0637 -1.19528e-07 0)
(41.0525 -1.18248e-07 0)
(41.0408 -1.16964e-07 0)
(41.0285 -1.15741e-07 0)
(41.0156 -1.14648e-07 0)
(41.0022 -1.1375e-07 0)
(40.9883 -1.13143e-07 0)
(40.974 -1.1291e-07 0)
(40.9594 -1.13139e-07 0)
(40.9446 -1.13914e-07 0)
(40.9296 -1.15314e-07 0)
(40.9147 -1.17396e-07 0)
(40.8999 -1.20199e-07 0)
(40.8854 -1.23732e-07 0)
(40.8713 -1.27975e-07 0)
(40.8578 -1.32883e-07 0)
(40.845 -1.38394e-07 0)
(40.833 -1.44466e-07 0)
(40.822 -1.50933e-07 0)
(40.812 -1.57792e-07 0)
(40.8029 -1.64621e-07 0)
(40.795 -1.7173e-07 0)
(40.788 -1.78098e-07 0)
(40.7819 -1.84883e-07 0)
(40.7767 -1.89995e-07 0)
(40.7722 -1.95828e-07 0)
(40.7682 -1.99404e-07 0)
(40.7647 -2.03613e-07 0)
(40.7615 -2.06e-07 0)
(40.7585 -2.08361e-07 0)
(40.7556 -2.09586e-07 0)
(40.7526 -2.10985e-07 0)
(40.7497 -2.10792e-07 0)
(40.7466 -2.10744e-07 0)
(40.7434 -1.86093e-07 0)
(40.74 -2.08989e-07 0)
(40.7364 -9.19722e-08 0)
(40.7324 -1.42403e-07 0)
(40.7279 3.58338e-07 0)
(40.7229 4.25309e-06 0)
(40.7172 3.02463e-05 0)
(40.7101 0.000213253 0)
(40.6977 0.00148804 0)
(40.653 0.0103317 0)
(40.4785 0.0746488 0)
(38.6029 0.353164 0)
(42.7007 -4.45716e-13 0)
(42.702 9.19011e-13 0)
(42.7026 1.91413e-12 0)
(42.703 3.54075e-12 0)
(42.7036 2.59646e-12 0)
(42.7041 7.31398e-13 0)
(42.7044 -1.6041e-12 0)
(42.7044 -3.90655e-12 0)
(42.7041 -3.07177e-12 0)
(42.7035 -3.15038e-12 0)
(42.7026 -5.04725e-12 0)
(42.7014 -9.64002e-12 0)
(42.6998 -1.22395e-11 0)
(42.6979 -1.38757e-11 0)
(42.6957 -1.52879e-11 0)
(42.6931 -1.49792e-11 0)
(42.6901 -1.48645e-11 0)
(42.6869 -1.43597e-11 0)
(42.6833 -1.43209e-11 0)
(42.6794 -1.39463e-11 0)
(42.6752 -1.31035e-11 0)
(42.6707 -1.23601e-11 0)
(42.666 -1.25653e-11 0)
(42.661 -1.0806e-11 0)
(42.6559 -1.16001e-11 0)
(42.6505 -1.35541e-11 0)
(42.6449 -1.54821e-11 0)
(42.6392 -1.3991e-11 0)
(42.6333 -1.15566e-11 0)
(42.6272 -9.73896e-12 0)
(42.621 -8.99266e-12 0)
(42.6146 -9.44792e-12 0)
(42.608 -8.51959e-12 0)
(42.6013 -5.01669e-12 0)
(42.5944 -8.37784e-13 0)
(42.5874 2.19772e-12 0)
(42.5801 4.96846e-12 0)
(42.5727 5.59364e-12 0)
(42.5651 6.06875e-12 0)
(42.5572 7.49065e-12 0)
(42.5492 7.79478e-12 0)
(42.541 8.43429e-12 0)
(42.5326 9.09998e-12 0)
(42.5239 9.39053e-12 0)
(42.5151 8.8056e-12 0)
(42.5061 8.11701e-12 0)
(42.4969 8.20404e-12 0)
(42.4876 7.4838e-12 0)
(42.4782 6.76749e-12 0)
(42.4686 5.81398e-12 0)
(42.4589 5.49071e-12 0)
(42.4492 4.59321e-12 0)
(42.4395 4.24721e-12 0)
(42.4297 3.99205e-12 0)
(42.4199 2.36207e-12 0)
(42.4101 8.07481e-13 0)
(42.4004 -1.70232e-12 0)
(42.3906 -2.74451e-12 0)
(42.3809 -3.46843e-12 0)
(42.3712 -1.52872e-12 0)
(42.3614 -1.73549e-12 0)
(42.3517 -3.60233e-12 0)
(42.3417 -4.88794e-12 0)
(42.3316 -5.44719e-12 0)
(42.3212 -6.50467e-12 0)
(42.3106 -7.08209e-12 0)
(42.2996 -5.5729e-12 0)
(42.2882 -4.35216e-12 0)
(42.2762 -2.6687e-12 0)
(42.2635 -1.83834e-12 0)
(42.2502 -1.61502e-12 0)
(42.2361 -2.59148e-12 0)
(42.2212 -3.63685e-12 0)
(42.2054 -5.71894e-12 0)
(42.1886 -5.61774e-12 0)
(42.1709 -3.44777e-12 0)
(42.1522 3.67817e-13 0)
(42.1325 1.72491e-12 0)
(42.1119 -6.18674e-13 0)
(42.0904 -6.18796e-12 0)
(42.0682 -1.13973e-11 0)
(42.0451 -1.54336e-11 0)
(42.0215 -1.70873e-11 0)
(41.9973 -1.76551e-11 0)
(41.9728 -1.87978e-11 0)
(41.9481 -1.82621e-11 0)
(41.9233 -1.74459e-11 0)
(41.8983 -1.62459e-11 0)
(41.8734 -1.58895e-11 0)
(41.849 -1.53397e-11 0)
(41.8251 -1.2208e-11 0)
(41.8017 -8.17784e-12 0)
(41.7789 -4.87423e-12 0)
(41.7569 -1.39661e-12 0)
(41.7357 -2.40197e-14 0)
(41.7155 1.97228e-12 0)
(41.6961 1.30499e-12 0)
(41.6777 -1.17923e-12 0)
(41.6602 -2.75314e-12 0)
(41.6436 -3.65942e-12 0)
(41.6279 -5.8592e-12 0)
(41.613 -5.05577e-12 0)
(41.599 -4.20147e-12 0)
(41.5856 -4.60178e-12 0)
(41.5729 -5.66445e-12 0)
(41.5607 -6.12424e-12 0)
(41.549 -5.4425e-12 0)
(41.5376 -3.19275e-12 0)
(41.5266 9.81905e-13 0)
(41.5158 6.85163e-12 0)
(41.5053 1.09648e-11 0)
(41.4947 1.18971e-11 0)
(41.4842 1.17911e-11 0)
(41.4737 9.8561e-12 0)
(41.4632 8.67721e-12 0)
(41.4526 8.02032e-12 0)
(41.4419 9.85441e-12 0)
(41.4311 1.01542e-11 0)
(41.4202 1.03183e-11 0)
(41.4091 1.15092e-11 0)
(41.3979 1.27305e-11 0)
(41.3865 1.39366e-11 0)
(41.375 1.39668e-11 0)
(41.3635 1.40278e-11 0)
(41.3518 1.12986e-11 0)
(41.3401 8.95842e-12 0)
(41.3283 7.33406e-12 0)
(41.3166 5.39712e-12 0)
(41.3049 3.7943e-12 0)
(41.2933 3.39929e-12 0)
(41.2819 3.679e-12 0)
(41.2707 2.12263e-12 0)
(41.2597 1.2603e-12 0)
(41.2489 2.09417e-12 0)
(41.2385 1.35907e-12 0)
(41.2285 2.48163e-12 0)
(41.2188 3.91747e-12 0)
(41.2094 3.43567e-12 0)
(41.2004 3.21946e-12 0)
(41.1918 1.27277e-12 0)
(41.1834 -7.53114e-14 0)
(41.1753 -3.04805e-12 0)
(41.1674 -6.00007e-12 0)
(41.1596 -6.29853e-12 0)
(41.152 -4.32348e-12 0)
(41.1443 -2.40401e-12 0)
(41.1365 1.4524e-12 0)
(41.1286 4.2668e-12 0)
(41.1205 5.64952e-12 0)
(41.1121 5.28047e-12 0)
(41.1033 7.30975e-12 0)
(41.0941 7.27323e-12 0)
(41.0845 5.60113e-12 0)
(41.0744 3.90195e-12 0)
(41.0637 2.45347e-12 0)
(41.0525 1.92157e-12 0)
(41.0408 1.44308e-12 0)
(41.0285 3.01292e-12 0)
(41.0156 4.23659e-12 0)
(41.0022 4.25144e-12 0)
(40.9883 4.87652e-12 0)
(40.974 5.86008e-12 0)
(40.9594 5.84425e-12 0)
(40.9446 5.63938e-12 0)
(40.9296 4.52707e-12 0)
(40.9147 2.8194e-12 0)
(40.8999 -4.94497e-14 0)
(40.8854 -9.23733e-13 0)
(40.8713 -4.02664e-13 0)
(40.8578 -1.12818e-12 0)
(40.845 -1.30752e-12 0)
(40.833 -6.07508e-12 0)
(40.822 9.54741e-14 0)
(40.812 -1.6297e-11 0)
(40.8029 1.44476e-11 0)
(40.795 -4.16482e-11 0)
(40.788 5.90965e-11 0)
(40.7819 -1.01225e-10 0)
(40.7767 1.35671e-10 0)
(40.7722 -1.85806e-10 0)
(40.7682 2.17318e-10 0)
(40.7647 -2.62826e-10 0)
(40.7615 2.77796e-10 0)
(40.7585 -4.81278e-10 0)
(40.7556 4.97208e-10 0)
(40.7526 -9.34694e-10 0)
(40.7497 8.6877e-10 0)
(40.7466 -4.15014e-09 0)
(40.7434 -2.24242e-08 0)
(40.74 -2.17305e-07 0)
(40.7364 2.71053e-07 0)
(40.7324 3.81368e-08 0)
(40.7279 1.26911e-06 0)
(40.723 8.84838e-06 0)
(40.7174 6.10471e-05 0)
(40.711 0.000433768 0)
(40.7036 0.00306596 0)
(40.6937 0.0215895 0)
(40.6688 0.153062 0)
(40.5171 0.696467 0)
(42.7008 -0.00012914 0)
(42.702 -9.97183e-05 0)
(42.7027 -8.66407e-05 0)
(42.7031 -8.60749e-05 0)
(42.7036 -8.61142e-05 0)
(42.7042 -8.57298e-05 0)
(42.7045 -8.5412e-05 0)
(42.7045 -8.51099e-05 0)
(42.7041 -8.46572e-05 0)
(42.7036 -8.39274e-05 0)
(42.7027 -8.27103e-05 0)
(42.7014 -8.08515e-05 0)
(42.6999 -7.80384e-05 0)
(42.698 -7.41987e-05 0)
(42.6957 -6.92518e-05 0)
(42.6931 -6.32837e-05 0)
(42.6901 -5.63653e-05 0)
(42.6869 -4.89594e-05 0)
(42.6833 -4.13431e-05 0)
(42.6794 -3.3911e-05 0)
(42.6752 -2.69961e-05 0)
(42.6707 -2.08469e-05 0)
(42.666 -1.56095e-05 0)
(42.661 -1.13286e-05 0)
(42.6559 -7.96511e-06 0)
(42.6505 -5.41993e-06 0)
(42.6449 -3.56354e-06 0)
(42.6392 -2.25663e-06 0)
(42.6333 -1.36664e-06 0)
(42.6272 -7.79451e-07 0)
(42.621 -4.03393e-07 0)
(42.6146 -1.69271e-07 0)
(42.608 -2.72073e-08 0)
(42.6013 5.56195e-08 0)
(42.5944 1.03788e-07 0)
(42.5873 1.30731e-07 0)
(42.5801 1.45429e-07 0)
(42.5727 1.53178e-07 0)
(42.5651 1.57023e-07 0)
(42.5572 1.58661e-07 0)
(42.5492 1.59001e-07 0)
(42.541 1.58513e-07 0)
(42.5326 1.57437e-07 0)
(42.5239 1.55885e-07 0)
(42.5151 1.53927e-07 0)
(42.5061 1.51605e-07 0)
(42.4969 1.48953e-07 0)
(42.4876 1.45997e-07 0)
(42.4782 1.42777e-07 0)
(42.4686 1.39343e-07 0)
(42.4589 1.35724e-07 0)
(42.4492 1.31959e-07 0)
(42.4395 1.28091e-07 0)
(42.4297 1.24132e-07 0)
(42.4199 1.20073e-07 0)
(42.4101 1.15867e-07 0)
(42.4004 1.11549e-07 0)
(42.3906 1.07199e-07 0)
(42.3809 1.0288e-07 0)
(42.3712 9.87757e-08 0)
(42.3614 9.73029e-08 0)
(42.3517 9.11971e-08 0)
(42.3417 8.39673e-08 0)
(42.3316 8.34827e-08 0)
(42.3212 8.06808e-08 0)
(42.3106 7.77614e-08 0)
(42.2996 7.52145e-08 0)
(42.2882 7.32759e-08 0)
(42.2762 7.18642e-08 0)
(42.2635 7.0843e-08 0)
(42.2502 7.01287e-08 0)
(42.2361 6.99137e-08 0)
(42.2212 7.02664e-08 0)
(42.2054 7.08368e-08 0)
(42.1886 7.19672e-08 0)
(42.1709 7.35549e-08 0)
(42.1522 7.55737e-08 0)
(42.1325 7.79765e-08 0)
(42.1119 8.0735e-08 0)
(42.0904 8.37919e-08 0)
(42.0682 8.70957e-08 0)
(42.0451 9.05848e-08 0)
(42.0215 9.4285e-08 0)
(41.9973 9.93025e-08 0)
(41.9728 1.03716e-07 0)
(41.9481 1.10338e-07 0)
(41.9233 1.04765e-07 0)
(41.8983 1.071e-07 0)
(41.8734 1.20964e-07 0)
(41.849 1.302e-07 0)
(41.8251 1.31921e-07 0)
(41.8017 1.35013e-07 0)
(41.7789 1.39458e-07 0)
(41.7569 1.43506e-07 0)
(41.7357 1.47164e-07 0)
(41.7155 1.50852e-07 0)
(41.6961 1.53466e-07 0)
(41.6777 1.5555e-07 0)
(41.6602 1.56996e-07 0)
(41.6436 1.57614e-07 0)
(41.6279 1.57885e-07 0)
(41.613 1.57011e-07 0)
(41.599 1.55578e-07 0)
(41.5856 1.53547e-07 0)
(41.5729 1.50931e-07 0)
(41.5607 1.47796e-07 0)
(41.5489 1.44237e-07 0)
(41.5376 1.4052e-07 0)
(41.5266 1.36315e-07 0)
(41.5158 1.3285e-07 0)
(41.5053 1.29921e-07 0)
(41.4947 1.20175e-07 0)
(41.4842 1.16574e-07 0)
(41.4737 1.13941e-07 0)
(41.4632 1.09702e-07 0)
(41.4526 1.05698e-07 0)
(41.4419 1.02003e-07 0)
(41.4311 9.86205e-08 0)
(41.4202 9.55573e-08 0)
(41.4091 9.2838e-08 0)
(41.3979 9.04792e-08 0)
(41.3865 8.84877e-08 0)
(41.375 8.68663e-08 0)
(41.3635 8.56032e-08 0)
(41.3518 8.46859e-08 0)
(41.3401 8.41309e-08 0)
(41.3283 8.39451e-08 0)
(41.3166 8.41399e-08 0)
(41.3049 8.47246e-08 0)
(41.2933 8.56967e-08 0)
(41.2819 8.7047e-08 0)
(41.2707 8.87582e-08 0)
(41.2597 9.07972e-08 0)
(41.2489 9.31244e-08 0)
(41.2385 9.57e-08 0)
(41.2285 9.84695e-08 0)
(41.2188 1.01376e-07 0)
(41.2094 1.04354e-07 0)
(41.2004 1.07332e-07 0)
(41.1918 1.10237e-07 0)
(41.1834 1.12998e-07 0)
(41.1753 1.15552e-07 0)
(41.1674 1.17835e-07 0)
(41.1596 1.19804e-07 0)
(41.152 1.21429e-07 0)
(41.1443 1.22678e-07 0)
(41.1365 1.23554e-07 0)
(41.1286 1.24061e-07 0)
(41.1205 1.2421e-07 0)
(41.1121 1.24033e-07 0)
(41.1033 1.23554e-07 0)
(41.0941 1.2282e-07 0)
(41.0845 1.21872e-07 0)
(41.0744 1.20756e-07 0)
(41.0637 1.19527e-07 0)
(41.0525 1.18246e-07 0)
(41.0408 1.16964e-07 0)
(41.0285 1.1574e-07 0)
(41.0156 1.14643e-07 0)
(41.0022 1.13749e-07 0)
(40.9883 1.13142e-07 0)
(40.974 1.12908e-07 0)
(40.9594 1.13136e-07 0)
(40.9446 1.13916e-07 0)
(40.9296 1.15313e-07 0)
(40.9147 1.17397e-07 0)
(40.8999 1.202e-07 0)
(40.8854 1.23733e-07 0)
(40.8713 1.27975e-07 0)
(40.8578 1.32882e-07 0)
(40.845 1.38399e-07 0)
(40.833 1.4446e-07 0)
(40.822 1.50954e-07 0)
(40.812 1.57761e-07 0)
(40.8029 1.64686e-07 0)
(40.795 1.71615e-07 0)
(40.788 1.78291e-07 0)
(40.7819 1.84604e-07 0)
(40.7767 1.90367e-07 0)
(40.7722 1.95384e-07 0)
(40.7682 1.99861e-07 0)
(40.7647 2.03183e-07 0)
(40.7615 2.0638e-07 0)
(40.7585 2.07863e-07 0)
(40.7556 2.10289e-07 0)
(40.7526 2.09855e-07 0)
(40.7497 2.1187e-07 0)
(40.7466 2.05554e-07 0)
(40.7434 1.75429e-07 0)
(40.74 -3.26466e-08 0)
(40.7364 3.60616e-07 0)
(40.7324 2.73549e-07 0)
(40.7279 1.07084e-06 0)
(40.723 6.29867e-06 0)
(40.7175 4.21377e-05 0)
(40.7122 0.000301725 0)
(40.7126 0.0021592 0)
(40.7581 0.0156287 0)
(40.9443 0.129302 0)
(43.9046 0.540758 0)
(42.699 -0.000101803 0)
(42.6985 -9.32081e-05 0)
(42.6973 -9.06335e-05 0)
(42.6959 -9.15863e-05 0)
(42.6946 -9.23545e-05 0)
(42.6934 -9.27752e-05 0)
(42.6919 -9.30477e-05 0)
(42.6901 -9.31453e-05 0)
(42.6879 -9.29644e-05 0)
(42.6856 -9.23821e-05 0)
(42.6829 -9.11938e-05 0)
(42.6799 -8.92173e-05 0)
(42.6767 -8.6161e-05 0)
(42.6731 -8.1921e-05 0)
(42.6694 -7.64278e-05 0)
(42.6653 -6.9777e-05 0)
(42.6611 -6.2113e-05 0)
(42.6567 -5.38858e-05 0)
(42.6522 -4.54471e-05 0)
(42.6475 -3.72287e-05 0)
(42.6427 -2.95973e-05 0)
(42.6377 -2.28245e-05 0)
(42.6326 -1.70677e-05 0)
(42.6274 -1.23717e-05 0)
(42.622 -8.6893e-06 0)
(42.6165 -5.90834e-06 0)
(42.6108 -3.88327e-06 0)
(42.605 -2.45919e-06 0)
(42.5991 -1.48995e-06 0)
(42.593 -8.50315e-07 0)
(42.5868 -4.40476e-07 0)
(42.5804 -1.8439e-07 0)
(42.5738 -2.87536e-08 0)
(42.5671 5.78022e-08 0)
(42.5602 1.0734e-07 0)
(42.5531 1.34936e-07 0)
(42.5459 1.49856e-07 0)
(42.5385 1.57622e-07 0)
(42.5309 1.61406e-07 0)
(42.5231 1.62971e-07 0)
(42.515 1.63279e-07 0)
(42.5068 1.62831e-07 0)
(42.4984 1.61882e-07 0)
(42.4898 1.60577e-07 0)
(42.4809 1.58984e-07 0)
(42.4719 1.57153e-07 0)
(42.4628 1.55111e-07 0)
(42.4535 1.52884e-07 0)
(42.444 1.50504e-07 0)
(42.4344 1.48001e-07 0)
(42.4248 1.4542e-07 0)
(42.4151 1.42802e-07 0)
(42.4053 1.40213e-07 0)
(42.3955 1.37663e-07 0)
(42.3858 1.35136e-07 0)
(42.376 1.3257e-07 0)
(42.3662 1.29957e-07 0)
(42.3565 1.27337e-07 0)
(42.3468 1.24754e-07 0)
(42.337 1.22266e-07 0)
(42.3273 1.21428e-07 0)
(42.3176 1.17923e-07 0)
(42.3076 1.13565e-07 0)
(42.2975 1.13406e-07 0)
(42.2871 1.11783e-07 0)
(42.2765 1.10106e-07 0)
(42.2655 1.08653e-07 0)
(42.2541 1.07627e-07 0)
(42.2421 1.0696e-07 0)
(42.2295 1.06505e-07 0)
(42.2162 1.06174e-07 0)
(42.2021 1.06096e-07 0)
(42.1871 1.06318e-07 0)
(42.1713 1.06586e-07 0)
(42.1545 1.07134e-07 0)
(42.1368 1.07885e-07 0)
(42.1181 1.08804e-07 0)
(42.0984 1.09867e-07 0)
(42.0779 1.11035e-07 0)
(42.0564 1.1228e-07 0)
(42.0341 1.13556e-07 0)
(42.0111 1.14833e-07 0)
(41.9875 1.16115e-07 0)
(41.9633 1.183e-07 0)
(41.9388 1.20112e-07 0)
(41.9141 1.2368e-07 0)
(41.8893 1.18553e-07 0)
(41.8643 1.18069e-07 0)
(41.8394 1.25742e-07 0)
(41.815 1.30561e-07 0)
(41.7911 1.30536e-07 0)
(41.7677 1.31016e-07 0)
(41.7449 1.32234e-07 0)
(41.7229 1.33184e-07 0)
(41.7018 1.33895e-07 0)
(41.6815 1.34697e-07 0)
(41.6621 1.34924e-07 0)
(41.6437 1.3495e-07 0)
(41.6262 1.34734e-07 0)
(41.6096 1.34155e-07 0)
(41.5939 1.33573e-07 0)
(41.5791 1.32427e-07 0)
(41.565 1.31093e-07 0)
(41.5517 1.29536e-07 0)
(41.5389 1.27746e-07 0)
(41.5267 1.25741e-07 0)
(41.515 1.23574e-07 0)
(41.5037 1.21401e-07 0)
(41.4927 1.18983e-07 0)
(41.4819 1.17047e-07 0)
(41.4713 1.15497e-07 0)
(41.4608 1.09919e-07 0)
(41.4503 1.08106e-07 0)
(41.4398 1.0684e-07 0)
(41.4293 1.04658e-07 0)
(41.4187 1.02667e-07 0)
(41.408 1.00899e-07 0)
(41.3972 9.93499e-08 0)
(41.3863 9.80303e-08 0)
(41.3752 9.69542e-08 0)
(41.364 9.61246e-08 0)
(41.3526 9.55473e-08 0)
(41.3412 9.52121e-08 0)
(41.3296 9.50914e-08 0)
(41.3179 9.51883e-08 0)
(41.3062 9.5494e-08 0)
(41.2945 9.6018e-08 0)
(41.2828 9.67562e-08 0)
(41.2711 9.7716e-08 0)
(41.2595 9.88916e-08 0)
(41.2481 1.00281e-07 0)
(41.2368 1.01857e-07 0)
(41.2258 1.03613e-07 0)
(41.2151 1.05515e-07 0)
(41.2047 1.07558e-07 0)
(41.1947 1.09703e-07 0)
(41.1849 1.11927e-07 0)
(41.1756 1.14198e-07 0)
(41.1666 1.16473e-07 0)
(41.158 1.18718e-07 0)
(41.1496 1.209e-07 0)
(41.1415 1.22975e-07 0)
(41.1336 1.24917e-07 0)
(41.1259 1.26692e-07 0)
(41.1182 1.2828e-07 0)
(41.1105 1.29675e-07 0)
(41.1028 1.30867e-07 0)
(41.0948 1.31856e-07 0)
(41.0867 1.32657e-07 0)
(41.0783 1.33278e-07 0)
(41.0696 1.3375e-07 0)
(41.0604 1.34084e-07 0)
(41.0508 1.3431e-07 0)
(41.0407 1.34463e-07 0)
(41.03 1.34567e-07 0)
(41.0188 1.34662e-07 0)
(41.0071 1.34778e-07 0)
(40.9947 1.34941e-07 0)
(40.9819 1.35179e-07 0)
(40.9685 1.35529e-07 0)
(40.9546 1.36035e-07 0)
(40.9403 1.36747e-07 0)
(40.9257 1.37704e-07 0)
(40.9109 1.38953e-07 0)
(40.8959 1.40541e-07 0)
(40.881 1.4249e-07 0)
(40.8662 1.44824e-07 0)
(40.8517 1.47538e-07 0)
(40.8376 1.50629e-07 0)
(40.8241 1.54051e-07 0)
(40.8113 1.57778e-07 0)
(40.7994 1.61801e-07 0)
(40.7884 1.6606e-07 0)
(40.7783 1.70503e-07 0)
(40.7693 1.75036e-07 0)
(40.7613 1.79593e-07 0)
(40.7544 1.84038e-07 0)
(40.7483 1.8832e-07 0)
(40.7431 1.92295e-07 0)
(40.7385 1.95907e-07 0)
(40.7346 1.99151e-07 0)
(40.7311 2.01872e-07 0)
(40.7279 2.04317e-07 0)
(40.7249 2.06129e-07 0)
(40.722 2.07967e-07 0)
(40.7191 2.08972e-07 0)
(40.7161 2.1043e-07 0)
(40.7131 2.09991e-07 0)
(40.7099 2.07375e-07 0)
(40.7065 2.08352e-07 0)
(40.7028 2.68348e-07 0)
(40.6988 3.10109e-07 0)
(40.6944 3.21214e-07 0)
(40.6895 1.20859e-06 0)
(40.684 6.57323e-06 0)
(40.6788 4.62082e-05 0)
(40.6793 0.000335049 0)
(40.7278 0.00265131 0)
(40.9293 0.0377284 0)
(45.9321 0.153478 0)
(36.6586 1.24843 -3.17336e-15)
(35.6258 3.58188 6.36463e-15)
(35.2211 6.23541 -1.19325e-14)
(34.8192 8.9189 2.46555e-14)
(34.174 11.5712 -2.54396e-14)
(33.2738 14.1629 -1.58947e-15)
(32.0986 16.6483 3.95396e-20)
(30.7152 19.0427 -2.22466e-14)
(29.5278 21.6182 -1.02938e-13)
(28.7664 24.7052 1.00759e-13)
(27.9958 28.1638 -2.50459e-14)
(26.5385 31.1596 -5.15739e-14)
(24.1635 33.1047 2.65695e-14)
(21.2299 34.1392 0)
(18.0805 34.5823 2.5129e-14)
(14.8867 34.6273 2.52394e-14)
(11.8299 34.8664 -2.53463e-14)
(9.14027 36.562 2.5179e-14)
(6.69895 40.6326 1.93492e-16)
(4.10025 47.8365 -1.87767e-16)
(37.768 1.96115 0)
(37.157 4.79083 0)
(36.7557 7.90902 -1.61623e-15)
(36.2444 11.0125 -3.22932e-15)
(35.4603 14.0729 8.06478e-15)
(34.3672 17.1023 1.61173e-14)
(32.9275 20.0407 0)
(31.3107 22.6798 9.658e-15)
(30.0499 25.1241 1.60201e-14)
(29.2423 28.0183 -3.81525e-14)
(28.1579 31.7106 2.52706e-14)
(25.9149 35.5906 1.26247e-14)
(22.6285 38.3706 -1.2622e-14)
(18.8011 39.9445 1.26154e-14)
(14.772 40.608 0)
(10.9087 40.3578 -1.58645e-15)
(7.88467 39.5146 1.59763e-15)
(6.56267 39.3679 -5.57816e-15)
(5.59997 41.5781 -7.84676e-16)
(5.05989 46.0882 0)
(40.4687 1.52656 -4.12682e-17)
(40.4711 2.51609 -2.09722e-14)
(40.575 3.5229 2.13001e-14)
(40.7633 4.52804 -2.0473e-14)
(40.9898 5.6003 -2.24565e-14)
(41.2213 6.81524 8.35848e-14)
(41.4284 8.23313 -4.23086e-14)
(41.5505 9.90745 4.10004e-14)
(41.4732 11.818 -8.33715e-14)
(41.184 13.8076 1.33141e-15)
(40.8495 15.7242 4.11262e-14)
(40.634 17.6173 0)
(40.4195 19.7308 -4.12097e-14)
(39.9416 22.1683 4.12172e-14)
(39.0461 24.8662 -3.32145e-16)
(37.6251 27.7454 0)
(35.5351 30.6844 3.32023e-16)
(32.6159 33.4352 0)
(29.2864 35.6494 0)
(26.4641 37.1766 0)
(44.4026 2.50957 6.33166e-16)
(44.1295 5.78243 -6.35208e-15)
(43.1596 9.67585 -1.27298e-15)
(42.0222 13.6652 2.54264e-15)
(40.9876 17.5997 -2.53191e-15)
(39.9816 21.4705 -4.26403e-19)
(38.847 25.2726 -1.00138e-14)
(37.4446 28.9646 0)
(35.7388 32.5317 0)
(33.7304 35.9701 -4.92846e-15)
(31.3912 39.2348 4.90394e-15)
(28.7389 42.3195 0)
(25.763 45.1651 -4.85969e-15)
(22.4903 47.7285 4.84447e-15)
(18.9595 49.9789 -4.82924e-15)
(15.2149 51.8921 9.62946e-15)
(11.3055 53.447 -4.80459e-15)
(7.29371 54.6299 0)
(3.26705 55.464 -2.39082e-15)
(-0.442544 55.9569 0)
(47.3178 1.74467 -9.66395e-16)
(48.2379 4.47151 7.40812e-15)
(47.9555 7.74408 5.15362e-15)
(47.1804 11.173 1.02978e-14)
(46.3916 14.7262 0)
(45.6018 18.3992 0)
(44.6767 22.1525 1.01974e-14)
(43.5001 25.9044 2.53815e-15)
(42.0082 29.6421 -5.05337e-15)
(40.2104 33.2966 2.51633e-15)
(38.0677 36.8339 2.0045e-14)
(35.6008 40.1928 -1.24817e-14)
(32.8002 43.3139 1.24452e-14)
(29.6771 46.1517 -2.48195e-15)
(26.2569 48.6715 -9.90847e-15)
(22.5737 50.8419 -1.73192e-14)
(18.669 52.6254 -8.6527e-15)
(14.5967 53.957 -1.23621e-15)
(10.4384 54.6915 7.11264e-15)
(6.45868 54.488 3.1003e-16)
(1.25255 59.0008 0)
(1.18944 56.5386 0)
(1.08783 54.2648 0)
(0.959936 55.2807 0)
(0.986628 56.7613 0)
(1.04384 57.1474 0)
(1.05635 56.9391 0)
(1.05891 56.7972 0)
(1.05462 56.8315 0)
(1.05584 56.893 0)
(1.05127 56.9264 0)
(1.04145 56.9937 0)
(1.03394 57.0774 0)
(1.02273 57.104 0)
(1.00244 57.0556 0)
(0.971536 56.9357 0)
(0.929871 56.7274 0)
(0.877733 56.4065 0)
(0.815917 55.9442 0)
(0.746087 55.3052 0)
(0.669589 54.4535 0)
(0.589411 53.3712 0)
(0.509651 52.0671 0)
(0.432044 50.5846 0)
(0.359196 49.0085 0)
(0.293184 47.4375 0)
(0.233611 45.9658 0)
(0.181705 44.6703 0)
(0.138253 43.5908 0)
(0.10246 42.7334 0)
(0.0741368 42.0797 0)
(0.0523436 41.5976 0)
(0.0360462 41.2519 0)
(0.0242101 41.0097 0)
(0.0158622 40.8437 0)
(0.0101416 40.7322 0)
(0.00633007 40.6588 0)
(0.00385887 40.6116 0)
(0.00229871 40.5821 0)
(0.00133837 40.5644 0)
(0.0007622 40.5543 0)
(0.00042466 40.5491 0)
(0.000231582 40.5471 0)
(0.00012365 40.547 0)
(6.47033e-05 40.5481 0)
(3.31764e-05 40.55 0)
(1.66909e-05 40.5522 0)
(8.25308e-06 40.5547 0)
(4.02088e-06 40.5574 0)
(1.94404e-06 40.56 0)
(9.41866e-07 40.5625 0)
(4.72627e-07 40.5649 0)
(2.57846e-07 40.5671 0)
(1.61119e-07 40.569 0)
(1.15748e-07 40.5707 0)
(9.69392e-08 40.572 0)
(8.79834e-08 40.573 0)
(8.40049e-08 40.5736 0)
(8.23567e-08 40.5739 0)
(8.18058e-08 40.5737 0)
(8.15945e-08 40.5732 0)
(8.16096e-08 40.5723 0)
(8.17426e-08 40.571 0)
(8.19104e-08 40.5694 0)
(8.20953e-08 40.5675 0)
(8.22931e-08 40.5653 0)
(8.2676e-08 40.5629 0)
(8.28582e-08 40.5602 0)
(8.32187e-08 40.5574 0)
(8.35701e-08 40.5546 0)
(8.38792e-08 40.5516 0)
(8.43909e-08 40.5487 0)
(8.51355e-08 40.5458 0)
(8.57202e-08 40.543 0)
(8.57819e-08 40.5403 0)
(8.66441e-08 40.5378 0)
(8.74905e-08 40.5355 0)
(8.83516e-08 40.5334 0)
(8.90873e-08 40.5315 0)
(8.97728e-08 40.53 0)
(9.03896e-08 40.5287 0)
(9.09519e-08 40.5278 0)
(9.14715e-08 40.5271 0)
(9.20144e-08 40.5268 0)
(9.23173e-08 40.5268 0)
(9.28223e-08 40.5271 0)
(9.2965e-08 40.5277 0)
(9.31665e-08 40.5287 0)
(9.32542e-08 40.5298 0)
(9.31438e-08 40.5313 0)
(9.31045e-08 40.533 0)
(9.27091e-08 40.5349 0)
(9.23513e-08 40.537 0)