/*--------------------------------*- C++ -*----------------------------------*\
| =========                 |                                                 |
| \\      /  F ield         | OpenFOAM: The Open Source CFD Toolbox           |
|  \\    /   O peration     | Version:  3.0.x                                 |
|   \\  /    A nd           | Web:      www.OpenFOAM.org                      |
|    \\/     M anipulation  |                                                 |
\*---------------------------------------------------------------------------*/
FoamFile
{
    version     2.0;
    format      ascii;
    class       surfaceScalarField;
    location    "0.04995";
    object      phi;
}
// * * * * * * * * * * * * * * * * * * * * * * * * * * * * * * * * * * * * * //

dimensions      [1 0 -1 0 0 0 0];

internalField   nonuniform List<scalar> 
53800
(
1.97487
0.0010263
1.97418
0.000691529
1.97351
0.000675505
1.97285
0.000655687
1.97223
0.000616232
1.97168
0.000555872
1.9712
0.000477138
1.97081
0.000387312
1.97052
0.0002963
1.9703
0.000213367
1.97016
0.000144663
1.97006
9.24989e-05
1.97001
5.59249e-05
1.96997
3.20896e-05
1.96996
1.75798e-05
1.96995
9.28933e-06
1.96994
4.83152e-06
1.96994
2.55718e-06
1.96994
1.45978e-06
1.96994
9.55439e-07
1.96993
7.34344e-07
1.96993
6.41663e-07
1.96993
6.04439e-07
1.96993
5.90095e-07
1.96993
5.84794e-07
1.96993
5.8291e-07
1.96993
5.82269e-07
1.96993
5.82073e-07
1.96993
5.82018e-07
1.96992
5.82018e-07
1.96992
5.82029e-07
1.96992
5.82044e-07
1.96992
5.82066e-07
1.96992
5.82084e-07
1.96992
5.82106e-07
1.96992
5.82124e-07
1.96992
5.82149e-07
1.96992
5.82178e-07
1.96991
5.82208e-07
1.96991
5.82248e-07
1.96991
5.82309e-07
1.96991
5.82382e-07
1.96991
5.82488e-07
1.96991
5.82517e-07
1.9699
5.82768e-07
1.9699
5.83124e-07
1.9699
5.83579e-07
1.96989
5.84227e-07
1.96988
5.85154e-07
1.96986
5.86493e-07
1.96984
5.88348e-07
1.96982
5.9095e-07
1.96977
5.94478e-07
1.96972
5.9923e-07
1.96964
6.05538e-07
1.96954
6.13716e-07
1.9694
6.24186e-07
1.96922
6.37279e-07
1.96898
6.53356e-07
1.96867
6.7263e-07
1.96828
6.95156e-07
1.9678
7.20789e-07
1.96722
7.48991e-07
1.96652
7.78884e-07
1.96569
8.09086e-07
1.96474
8.37696e-07
1.96366
8.6235e-07
1.96247
8.8022e-07
1.96119
8.88205e-07
1.95984
8.83119e-07
1.95846
8.61983e-07
1.95711
8.22354e-07
1.95582
7.6267e-07
1.95466
6.82634e-07
1.95368
5.83397e-07
1.95294
4.67786e-07
1.95247
3.40238e-07
1.9523
2.06972e-07
1.95244
1.46229e-07
1.95283
-2.11548e-08
1.95352
-1.46549e-07
1.95446
-2.3895e-07
1.95561
-3.08166e-07
1.95691
-3.43854e-07
1.95829
-3.47962e-07
1.95968
-3.29419e-07
1.96103
-2.76959e-07
1.96227
-2.03407e-07
1.96338
-1.17874e-07
1.96431
-1.97906e-08
1.96507
8.1498e-08
1.96564
1.77875e-07
1.96605
2.65987e-07
1.9663
3.44317e-07
1.96643
4.08938e-07
1.96646
4.55409e-07
1.96642
4.77638e-07
1.96634
5.15236e-07
1.96622
5.28489e-07
1.96609
5.35769e-07
1.96595
5.36569e-07
1.96581
5.31505e-07
1.96569
5.24102e-07
1.96558
5.16109e-07
1.96548
5.07462e-07
1.9654
4.98159e-07
1.96533
4.90665e-07
1.96527
4.84411e-07
1.96522
4.77299e-07
1.96517
4.7257e-07
1.96514
4.68754e-07
1.96511
4.64708e-07
1.96508
4.617e-07
1.96506
4.59451e-07
1.96504
4.57294e-07
1.96502
4.5534e-07
1.96501
4.53965e-07
1.965
4.52888e-07
1.96499
4.5144e-07
1.96498
4.50604e-07
1.96497
4.50047e-07
1.96497
4.48937e-07
1.96497
4.48297e-07
1.96496
4.47813e-07
1.96496
4.47304e-07
1.96496
4.47013e-07
1.96496
4.46384e-07
1.96496
4.46151e-07
1.96496
4.45682e-07
1.96497
4.45554e-07
1.96497
4.45511e-07
1.96497
4.45409e-07
1.96498
4.45452e-07
1.96498
4.45627e-07
1.96499
4.45692e-07
1.96499
4.45929e-07
1.965
4.46151e-07
1.965
4.46453e-07
1.965
4.46824e-07
1.965
4.47151e-07
1.96501
4.47497e-07
1.96501
4.48097e-07
1.96501
4.47908e-07
1.96501
4.48428e-07
1.96501
4.4869e-07
1.96501
4.4897e-07
1.96501
4.49294e-07
1.965
4.49483e-07
1.965
4.4968e-07
1.965
4.49705e-07
1.965
4.49942e-07
1.96499
4.49869e-07
1.96499
4.49956e-07
1.96498
4.49985e-07
1.96498
4.50051e-07
1.96497
4.50003e-07
1.96497
4.4996e-07
1.96496
4.4988e-07
1.96496
4.49734e-07
1.96495
4.49527e-07
1.96495
4.4933e-07
1.96494
4.49123e-07
1.96494
4.48854e-07
1.96493
4.48596e-07
1.96493
4.48414e-07
1.96492
4.48137e-07
1.96492
4.47919e-07
1.96491
4.47577e-07
1.96491
4.47373e-07
1.96491
4.47209e-07
1.9649
4.46762e-07
1.9649
4.46624e-07
1.9649
4.4638e-07
1.9649
4.46249e-07
1.96489
4.45998e-07
1.96489
4.45845e-07
1.96489
4.45623e-07
1.96489
4.45489e-07
1.96489
4.45179e-07
1.96489
4.45045e-07
1.96489
4.44987e-07
1.96488
4.45019e-07
1.96488
4.45056e-07
1.96488
4.45052e-07
1.96488
4.45045e-07
1.96488
4.44525e-07
1.96488
4.47504e-07
1.96488
4.43233e-07
1.96488
4.56675e-07
1.96488
4.86441e-07
1.96488
6.75904e-07
1.96488
1.55716e-06
1.96488
6.03821e-06
1.96485
2.82717e-05
1.96471
0.000137997
1.96404
0.000667559
1.96085
0.00318834
1.9459
0.0149523
1.87214
0.0737678
0.257355
1.61479
2.26976
0.000990652
2.26977
0.000678982
2.26978
0.000656718
2.2698
0.000639396
2.26981
0.000601103
2.26983
0.000542165
2.26984
0.000465311
2.26984
0.00037762
2.26985
0.000288788
2.26986
0.000207877
2.26986
0.00014089
2.26986
9.00542e-05
2.26986
5.44306e-05
2.26986
3.12248e-05
2.26986
1.71034e-05
2.26986
9.03704e-06
2.26986
4.70058e-06
2.26986
2.48851e-06
2.26985
1.4212e-06
2.26985
9.30719e-07
2.26985
7.15663e-07
2.26985
6.25518e-07
2.26985
5.89313e-07
2.26985
5.75354e-07
2.26985
5.70177e-07
2.26985
5.68354e-07
2.26984
5.67721e-07
2.26984
5.67525e-07
2.26984
5.67474e-07
2.26984
5.67477e-07
2.26984
5.67481e-07
2.26984
5.67507e-07
2.26984
5.67517e-07
2.26984
5.67536e-07
2.26983
5.67557e-07
2.26983
5.67579e-07
2.26983
5.67616e-07
2.26983
5.67641e-07
2.26983
5.67659e-07
2.26983
5.67699e-07
2.26983
5.67758e-07
2.26982
5.67827e-07
2.26982
5.67932e-07
2.26982
5.67961e-07
2.26982
5.68205e-07
2.26981
5.68558e-07
2.26981
5.69005e-07
2.2698
5.69646e-07
2.26979
5.70544e-07
2.26977
5.71843e-07
2.26975
5.73669e-07
2.26971
5.76209e-07
2.26967
5.79668e-07
2.2696
5.84314e-07
2.26952
5.90473e-07
2.2694
5.98466e-07
2.26924
6.08692e-07
2.26903
6.21465e-07
2.26875
6.3717e-07
2.2684
6.55968e-07
2.26796
6.77952e-07
2.2674
7.02948e-07
2.26673
7.30441e-07
2.26593
7.59559e-07
2.26498
7.88972e-07
2.26388
8.16814e-07
2.26265
8.40762e-07
2.26128
8.58065e-07
2.25981
8.6573e-07
2.25826
8.60626e-07
2.25668
8.39875e-07
2.25512
8.01105e-07
2.25364
7.42799e-07
2.25231
6.64677e-07
2.25119
5.67907e-07
2.25033
4.55228e-07
2.24979
3.31009e-07
2.2496
2.01628e-07
2.24975
1.41536e-07
2.25021
-1.91612e-08
2.25099
-1.42383e-07
2.25208
-2.31736e-07
2.2534
-2.98776e-07
2.25489
-3.33308e-07
2.25647
-3.37099e-07
2.25807
-3.18731e-07
2.25962
-2.67624e-07
2.26105
-1.95942e-07
2.26231
-1.12639e-07
2.26339
-1.7244e-08
2.26426
8.12142e-08
2.26491
1.74899e-07
2.26538
2.6049e-07
2.26567
3.36498e-07
2.26582
3.99232e-07
2.26585
4.44248e-07
2.2658
4.658e-07
2.26571
5.02096e-07
2.26557
5.15029e-07
2.26542
5.21984e-07
2.26526
5.22759e-07
2.26511
5.17848e-07
2.26497
5.10638e-07
2.26484
5.02885e-07
2.26473
4.945e-07
2.26463
4.85466e-07
2.26455
4.78187e-07
2.26448
4.72159e-07
2.26442
4.65265e-07
2.26437
4.60641e-07
2.26433
4.56974e-07
2.26429
4.53063e-07
2.26426
4.50113e-07
2.26424
4.47952e-07
2.26422
4.45878e-07
2.2642
4.43968e-07
2.26418
4.42637e-07
2.26417
4.41614e-07
2.26416
4.40199e-07
2.26415
4.39373e-07
2.26414
4.38849e-07
2.26414
4.37776e-07
2.26413
4.37129e-07
2.26413
4.36688e-07
2.26413
4.36201e-07
2.26413
4.35899e-07
2.26413
4.35313e-07
2.26413
4.35066e-07
2.26413
4.34611e-07
2.26413
4.34469e-07
2.26414
4.34466e-07
2.26414
4.34364e-07
2.26415
4.34393e-07
2.26415
4.34571e-07
2.26415
4.34626e-07
2.26416
4.34844e-07
2.26416
4.35062e-07
2.26417
4.35364e-07
2.26417
4.35717e-07
2.26417
4.36037e-07
2.26418
4.36386e-07
2.26418
4.36969e-07
2.26418
4.36776e-07
2.26418
4.37274e-07
2.26418
4.37536e-07
2.26418
4.37791e-07
2.26417
4.38129e-07
2.26417
4.38322e-07
2.26417
4.38489e-07
2.26417
4.38529e-07
2.26416
4.38751e-07
2.26416
4.38678e-07
2.26415
4.38769e-07
2.26415
4.38788e-07
2.26414
4.38853e-07
2.26414
4.38817e-07
2.26413
4.38766e-07
2.26412
4.38689e-07
2.26412
4.38562e-07
2.26411
4.38369e-07
2.2641
4.38169e-07
2.2641
4.37962e-07
2.26409
4.37696e-07
2.26409
4.37449e-07
2.26408
4.37267e-07
2.26408
4.3699e-07
2.26407
4.36779e-07
2.26407
4.36448e-07
2.26406
4.36241e-07
2.26406
4.36095e-07
2.26405
4.35652e-07
2.26405
4.35517e-07
2.26405
4.35277e-07
2.26404
4.35146e-07
2.26404
4.34913e-07
2.26404
4.34757e-07
2.26404
4.34546e-07
2.26404
4.34411e-07
2.26403
4.34105e-07
2.26403
4.33978e-07
2.26403
4.33909e-07
2.26403
4.33927e-07
2.26403
4.33971e-07
2.26403
4.33985e-07
2.26402
4.3396e-07
2.26402
4.33596e-07
2.26402
4.36037e-07
2.26402
4.35255e-07
2.26402
4.54758e-07
2.26403
5.2758e-07
2.26403
9.20787e-07
2.26403
2.83448e-06
2.26402
1.24706e-05
2.26399
6.03227e-05
2.26383
0.000296525
2.26306
0.00143667
2.25937
0.00686975
2.24212
0.0322052
2.15766
0.158231
0.542636
1.87238
2.60726
0.000949719
2.60728
0.000662883
2.6073
0.000634123
2.60732
0.000619249
2.60734
0.000582423
2.60735
0.000525423
2.60736
0.000451149
2.60737
0.000366334
2.60738
0.000280332
2.60739
0.000201927
2.60739
0.000136962
2.60739
8.7611e-05
2.60739
5.29969e-05
2.60739
3.04278e-05
2.60739
1.66801e-05
2.60739
8.81954e-06
2.60739
4.58922e-06
2.60738
2.42913e-06
2.60738
1.38569e-06
2.60738
9.05642e-07
2.60738
6.94919e-07
2.60738
6.0648e-07
2.60738
5.70915e-07
2.60738
5.57186e-07
2.60737
5.52089e-07
2.60737
5.50292e-07
2.60737
5.49666e-07
2.60737
5.49466e-07
2.60737
5.49411e-07
2.60737
5.49426e-07
2.60737
5.49422e-07
2.60736
5.49444e-07
2.60736
5.49458e-07
2.60736
5.4948e-07
2.60736
5.49495e-07
2.60736
5.49517e-07
2.60736
5.49557e-07
2.60736
5.49579e-07
2.60735
5.49597e-07
2.60735
5.49644e-07
2.60735
5.49699e-07
2.60735
5.49771e-07
2.60735
5.49862e-07
2.60734
5.49906e-07
2.60734
5.50124e-07
2.60734
5.50463e-07
2.60733
5.50906e-07
2.60732
5.51525e-07
2.60731
5.52398e-07
2.60729
5.53668e-07
2.60726
5.55436e-07
2.60722
5.5791e-07
2.60717
5.61264e-07
2.6071
5.65782e-07
2.607
5.7177e-07
2.60686
5.79512e-07
2.60667
5.89436e-07
2.60643
6.01838e-07
2.60612
6.17059e-07
2.60571
6.35297e-07
2.6052
6.56604e-07
2.60457
6.80837e-07
2.6038
7.0746e-07
2.60287
7.35658e-07
2.60178
7.64107e-07
2.60052
7.9102e-07
2.5991
8.14147e-07
2.59753
8.30805e-07
2.59584
8.38107e-07
2.59406
8.33017e-07
2.59225
8.12761e-07
2.59046
7.75057e-07
2.58876
7.18443e-07
2.58723
6.42653e-07
2.58594
5.48847e-07
2.58496
4.39675e-07
2.58434
3.19422e-07
2.58411
1.9457e-07
2.58429
1.35344e-07
2.58482
-1.78479e-08
2.58572
-1.38371e-07
2.58696
-2.24252e-07
2.58848
-2.88812e-07
2.59019
-3.22056e-07
2.59201
-3.25523e-07
2.59385
-3.07416e-07
2.59562
-2.57915e-07
2.59727
-1.88455e-07
2.59872
-1.07757e-07
2.59996
-1.54687e-08
2.60095
7.96608e-08
2.60171
1.70239e-07
2.60224
2.5293e-07
2.60258
3.26283e-07
2.60275
3.86819e-07
2.60279
4.30216e-07
2.60273
4.51004e-07
2.60262
4.8583e-07
2.60247
4.98396e-07
2.60229
5.0501e-07
2.60211
5.05755e-07
2.60193
5.01022e-07
2.60177
4.94041e-07
2.60162
4.86543e-07
2.60149
4.78474e-07
2.60138
4.69761e-07
2.60129
4.62729e-07
2.60121
4.56927e-07
2.60114
4.5028e-07
2.60108
4.45787e-07
2.60104
4.42298e-07
2.601
4.38529e-07
2.60096
4.35663e-07
2.60093
4.33593e-07
2.60091
4.31606e-07
2.60089
4.29765e-07
2.60087
4.28463e-07
2.60085
4.27495e-07
2.60084
4.26124e-07
2.60083
4.2532e-07
2.60082
4.24847e-07
2.60081
4.23821e-07
2.60081
4.23166e-07
2.60081
4.22751e-07
2.6008
4.22293e-07
2.6008
4.21984e-07
2.6008
4.21434e-07
2.6008
4.21187e-07
2.60081
4.2075e-07
2.60081
4.20616e-07
2.60081
4.20619e-07
2.60082
4.2051e-07
2.60082
4.20532e-07
2.60083
4.20718e-07
2.60084
4.2078e-07
2.60084
4.20976e-07
2.60085
4.21198e-07
2.60085
4.21493e-07
2.60085
4.21824e-07
2.60086
4.22144e-07
2.60086
4.22475e-07
2.60086
4.23039e-07
2.60086
4.22842e-07
2.60086
4.2333e-07
2.60086
4.23603e-07
2.60086
4.23832e-07
2.60086
4.2417e-07
2.60086
4.24359e-07
2.60085
4.24516e-07
2.60085
4.24567e-07
2.60084
4.2477e-07
2.60084
4.24709e-07
2.60083
4.24792e-07
2.60083
4.2481e-07
2.60082
4.24869e-07
2.60081
4.24836e-07
2.60081
4.24789e-07
2.6008
4.24712e-07
2.60079
4.24596e-07
2.60078
4.24421e-07
2.60078
4.24228e-07
2.60077
4.24032e-07
2.60076
4.23766e-07
2.60076
4.23526e-07
2.60075
4.23348e-07
2.60075
4.23082e-07
2.60074
4.22882e-07
2.60073
4.22566e-07
2.60073
4.22362e-07
2.60072
4.22224e-07
2.60072
4.21791e-07
2.60072
4.21656e-07
2.60071
4.21427e-07
2.60071
4.213e-07
2.60071
4.21071e-07
2.6007
4.20921e-07
2.6007
4.20718e-07
2.6007
4.20583e-07
2.6007
4.20278e-07
2.6007
4.20168e-07
2.60069
4.20092e-07
2.60069
4.20114e-07
2.60069
4.2015e-07
2.60069
4.20179e-07
2.60069
4.20154e-07
2.60068
4.19946e-07
2.60068
4.21926e-07
2.60069
4.248e-07
2.60069
4.51568e-07
2.60069
5.72989e-07
2.60069
1.19852e-06
2.60069
4.28533e-06
2.60068
1.9784e-05
2.60064
9.67689e-05
2.60046
0.000476823
2.59958
0.00231182
2.59539
0.0110651
2.57574
0.0518525
2.47937
0.2546
0.861774
2.16024
2.99496
0.000903884
2.99498
0.000643622
2.995
0.000608462
2.99502
0.000596053
2.99504
0.000560923
2.99506
0.000506136
2.99507
0.000434806
2.99509
0.000353282
2.99509
0.000270528
2.9951
0.000195008
2.9951
0.000132378
2.9951
8.47494e-05
2.9951
5.13106e-05
2.9951
2.94859e-05
2.9951
1.61773e-05
2.9951
8.56006e-06
2.9951
4.45597e-06
2.9951
2.35812e-06
2.9951
1.34352e-06
2.99509
8.76196e-07
2.99509
6.70807e-07
2.99509
5.845e-07
2.99509
5.49742e-07
2.99509
5.36304e-07
2.99509
5.31309e-07
2.99508
5.29533e-07
2.99508
5.28922e-07
2.99508
5.28733e-07
2.99508
5.28675e-07
2.99508
5.28682e-07
2.99508
5.28686e-07
2.99508
5.28707e-07
2.99507
5.28718e-07
2.99507
5.28737e-07
2.99507
5.28755e-07
2.99507
5.28773e-07
2.99507
5.28809e-07
2.99507
5.28831e-07
2.99506
5.28853e-07
2.99506
5.289e-07
2.99506
5.2894e-07
2.99506
5.29017e-07
2.99505
5.291e-07
2.99505
5.29148e-07
2.99505
5.29362e-07
2.99504
5.29679e-07
2.99503
5.30115e-07
2.99502
5.30716e-07
2.99501
5.31556e-07
2.99499
5.32778e-07
2.99496
5.34481e-07
2.99491
5.36871e-07
2.99485
5.40109e-07
2.99477
5.44467e-07
2.99465
5.50237e-07
2.99449
5.5772e-07
2.99428
5.67292e-07
2.994
5.79243e-07
2.99364
5.93915e-07
2.99318
6.11486e-07
2.99259
6.32012e-07
2.99186
6.55349e-07
2.99098
6.80979e-07
2.98991
7.08118e-07
2.98866
7.35472e-07
2.98722
7.61338e-07
2.98559
7.8353e-07
2.98378
7.99482e-07
2.98184
8.06394e-07
2.9798
8.01378e-07
2.97771
7.8174e-07
2.97565
7.45313e-07
2.97371
6.90699e-07
2.97195
6.17634e-07
2.97047
5.27263e-07
2.96934
4.22162e-07
2.96862
3.06438e-07
2.96836
1.86723e-07
2.96857
1.28573e-07
2.96918
-1.636e-08
2.97021
-1.3367e-07
2.97164
-2.15696e-07
2.97338
-2.77505e-07
2.97535
-3.09323e-07
2.97744
-3.1251e-07
2.97955
-2.94767e-07
2.98159
-2.47142e-07
2.98348
-1.80247e-07
2.98515
-1.02551e-07
2.98657
-1.3828e-08
2.98771
7.75726e-08
2.98858
1.64608e-07
2.98919
2.44017e-07
2.98958
3.14376e-07
2.98977
3.7246e-07
2.98981
4.14071e-07
2.98975
4.34033e-07
2.98963
4.67222e-07
2.98945
4.7938e-07
2.98925
4.85627e-07
2.98904
4.86329e-07
2.98883
4.81799e-07
2.98865
4.75084e-07
2.98848
4.6788e-07
2.98833
4.60161e-07
2.9882
4.51801e-07
2.9881
4.45038e-07
2.988
4.39493e-07
2.98793
4.33141e-07
2.98786
4.28772e-07
2.98781
4.25465e-07
2.98776
4.21878e-07
2.98772
4.19106e-07
2.98769
4.17127e-07
2.98766
4.15243e-07
2.98764
4.13464e-07
2.98761
4.12219e-07
2.9876
4.11299e-07
2.98758
4.09986e-07
2.98757
4.09196e-07
2.98756
4.08763e-07
2.98755
4.07777e-07
2.98755
4.0713e-07
2.98754
4.06755e-07
2.98754
4.06322e-07
2.98754
4.06017e-07
2.98754
4.055e-07
2.98754
4.05256e-07
2.98754
4.04845e-07
2.98755
4.04707e-07
2.98755
4.04722e-07
2.98756
4.04623e-07
2.98756
4.04638e-07
2.98757
4.04816e-07
2.98758
4.04882e-07
2.98758
4.05053e-07
2.98759
4.05274e-07
2.98759
4.05562e-07
2.9876
4.05878e-07
2.9876
4.06188e-07
2.9876
4.06511e-07
2.9876
4.0705e-07
2.98761
4.06864e-07
2.98761
4.0733e-07
2.9876
4.07599e-07
2.9876
4.0781e-07
2.9876
4.08138e-07
2.9876
4.0833e-07
2.98759
4.08472e-07
2.98759
4.08527e-07
2.98758
4.0872e-07
2.98758
4.08654e-07
2.98757
4.08738e-07
2.98757
4.08756e-07
2.98756
4.08811e-07
2.98755
4.08789e-07
2.98754
4.08745e-07
2.98753
4.08669e-07
2.98752
4.08567e-07
2.98752
4.08392e-07
2.98751
4.08214e-07
2.9875
4.08018e-07
2.98749
4.07774e-07
2.98749
4.07545e-07
2.98748
4.07363e-07
2.98747
4.07108e-07
2.98746
4.06912e-07
2.98746
4.06617e-07
2.98745
4.06428e-07
2.98745
4.06279e-07
2.98744
4.05875e-07
2.98744
4.05729e-07
2.98743
4.05515e-07
2.98743
4.05395e-07
2.98743
4.05173e-07
2.98742
4.05034e-07
2.98742
4.04845e-07
2.98742
4.04703e-07
2.98742
4.04412e-07
2.98741
4.04314e-07
2.98741
4.04234e-07
2.98741
4.04252e-07
2.98741
4.04281e-07
2.98741
4.04321e-07
2.9874
4.04292e-07
2.9874
4.04256e-07
2.9874
4.05849e-07
2.9874
4.12601e-07
2.9874
4.48032e-07
2.98741
6.24543e-07
2.98741
1.51588e-06
2.98741
5.94083e-06
2.9874
2.81312e-05
2.98735
0.000138369
2.98715
0.000682637
2.98614
0.00331123
2.98135
0.0158614
2.95891
0.0742903
2.84939
0.364123
1.21679
2.49438
3.4403
0.000852781
3.44032
0.000620534
3.44035
0.00057932
3.44038
0.00056934
3.4404
0.000536154
3.44042
0.000483894
3.44044
0.000415925
3.44045
0.000338172
3.44046
0.000259152
3.44047
0.000186958
3.44047
0.00012703
3.44047
8.14005e-05
3.44047
4.93309e-05
3.44047
2.83765e-05
3.44047
1.55833e-05
3.44047
8.25259e-06
3.44047
4.29791e-06
3.44046
2.274e-06
3.44046
1.29385e-06
3.44046
8.41806e-07
3.44046
6.42851e-07
3.44046
5.59136e-07
3.44045
5.2537e-07
3.44045
5.123e-07
3.44045
5.07425e-07
3.44045
5.05692e-07
3.44045
5.05095e-07
3.44045
5.04908e-07
3.44044
5.04855e-07
3.44044
5.04857e-07
3.44044
5.04859e-07
3.44044
5.04886e-07
3.44044
5.04886e-07
3.44043
5.04913e-07
3.44043
5.04922e-07
3.44043
5.0495e-07
3.44043
5.04979e-07
3.44043
5.05002e-07
3.44042
5.05022e-07
3.44042
5.05072e-07
3.44042
5.05104e-07
3.44042
5.05172e-07
3.44041
5.05257e-07
3.44041
5.05308e-07
3.44041
5.05503e-07
3.4404
5.05808e-07
3.44039
5.06228e-07
3.44038
5.06807e-07
3.44036
5.07613e-07
3.44034
5.08788e-07
3.4403
5.10418e-07
3.44025
5.12702e-07
3.44018
5.15805e-07
3.44008
5.19974e-07
3.43995
5.25491e-07
3.43977
5.32664e-07
3.43953
5.4181e-07
3.43921
5.53247e-07
3.43879
5.67281e-07
3.43826
5.84088e-07
3.43759
6.03706e-07
3.43675
6.26009e-07
3.43573
6.50491e-07
3.43451
6.76408e-07
3.43307
7.02512e-07
3.43141
7.27181e-07
3.42954
7.4832e-07
3.42747
7.63488e-07
3.42523
7.7e-07
3.42289
7.65096e-07
3.42049
7.4622e-07
3.41813
7.11299e-07
3.41589
6.59025e-07
3.41387
5.89131e-07
3.41217
5.02738e-07
3.41087
4.02326e-07
3.41005
2.91826e-07
3.40976
1.7791e-07
3.41
1.21152e-07
3.41069
-1.47429e-08
3.41188
-1.28175e-07
3.41352
-2.05879e-07
3.41552
-2.64623e-07
3.41778
-2.94891e-07
3.42018
-2.97803e-07
3.4226
-2.80545e-07
3.42495
-2.35099e-07
3.42711
-1.71174e-07
3.42903
-9.69176e-08
3.43066
-1.226e-08
3.43198
7.48732e-08
3.43297
1.57881e-07
3.43368
2.33584e-07
3.43412
3.00577e-07
3.43434
3.55891e-07
3.4344
3.95488e-07
3.43432
4.1454e-07
3.43418
4.45902e-07
3.43398
4.57609e-07
3.43374
4.63458e-07
3.4335
4.64124e-07
3.43327
4.59826e-07
3.43305
4.53403e-07
3.43286
4.46536e-07
3.43269
4.39197e-07
3.43254
4.31253e-07
3.43242
4.24789e-07
3.43231
4.19521e-07
3.43223
4.13496e-07
3.43215
4.09291e-07
3.43209
4.06173e-07
3.43204
4.02773e-07
3.43199
4.00123e-07
3.43195
3.98246e-07
3.43192
3.96465e-07
3.43189
3.94768e-07
3.43187
3.93577e-07
3.43185
3.92709e-07
3.43183
3.91467e-07
3.43182
3.90697e-07
3.4318
3.90297e-07
3.4318
3.89369e-07
3.43179
3.88733e-07
3.43178
3.88394e-07
3.43178
3.87987e-07
3.43178
3.87678e-07
3.43178
3.87208e-07
3.43178
3.8697e-07
3.43179
3.86579e-07
3.43179
3.86444e-07
3.4318
3.86461e-07
3.4318
3.8637e-07
3.43181
3.86388e-07
3.43182
3.86555e-07
3.43182
3.86624e-07
3.43183
3.86775e-07
3.43184
3.86999e-07
3.43184
3.87272e-07
3.43185
3.87576e-07
3.43185
3.87859e-07
3.43185
3.8818e-07
3.43186
3.88683e-07
3.43186
3.88512e-07
3.43186
3.88951e-07
3.43186
3.89224e-07
3.43186
3.89413e-07
3.43185
3.89737e-07
3.43185
3.89924e-07
3.43184
3.9005e-07
3.43184
3.90119e-07
3.43183
3.90286e-07
3.43183
3.90228e-07
3.43182
3.90306e-07
3.43181
3.90326e-07
3.4318
3.90382e-07
3.43179
3.90355e-07
3.43178
3.90317e-07
3.43177
3.90244e-07
3.43176
3.90142e-07
3.43176
3.89982e-07
3.43175
3.89811e-07
3.43174
3.89628e-07
3.43173
3.89393e-07
3.43172
3.89184e-07
3.43171
3.89004e-07
3.4317
3.88758e-07
3.4317
3.88571e-07
3.43169
3.88291e-07
3.43168
3.88105e-07
3.43168
3.87965e-07
3.43167
3.87583e-07
3.43167
3.87434e-07
3.43166
3.87236e-07
3.43166
3.87128e-07
3.43165
3.86915e-07
3.43165
3.86779e-07
3.43165
3.86601e-07
3.43164
3.86466e-07
3.43164
3.86193e-07
3.43164
3.86101e-07
3.43164
3.86017e-07
3.43163
3.86031e-07
3.43163
3.8606e-07
3.43163
3.86104e-07
3.43163
3.86071e-07
3.43162
3.86193e-07
3.43162
3.87521e-07
3.43162
3.98346e-07
3.43163
4.44046e-07
3.43163
6.82745e-07
3.43163
1.87702e-06
3.43163
7.82189e-06
3.43162
3.76189e-05
3.43157
0.000185655
3.43133
0.000916601
3.43019
0.00444786
3.42473
0.0213218
3.39921
0.0998125
3.2755
0.487837
1.61019
2.88211
3.95187
0.000795955
3.95189
0.000592841
3.95193
0.000546232
3.95195
0.000538591
3.95198
0.000507621
3.952
0.000458252
3.95202
0.000394118
3.95204
0.00032068
3.95205
0.000245946
3.95206
0.000177585
3.95206
0.00012078
3.95206
7.74713e-05
3.95206
4.69979e-05
3.95206
2.70628e-05
3.95206
1.48765e-05
3.95206
7.88513e-06
3.95206
4.10848e-06
3.95206
2.17327e-06
3.95205
1.23477e-06
3.95205
8.01343e-07
3.95205
6.10312e-07
3.95205
5.29814e-07
3.95204
4.97297e-07
3.95204
4.84691e-07
3.95204
4.79983e-07
3.95204
4.78302e-07
3.95204
4.77726e-07
3.95203
4.77543e-07
3.95203
4.77493e-07
3.95203
4.77492e-07
3.95203
4.77501e-07
3.95203
4.77518e-07
3.95202
4.77516e-07
3.95202
4.77547e-07
3.95202
4.77558e-07
3.95202
4.77576e-07
3.95201
4.77604e-07
3.95201
4.7763e-07
3.95201
4.77651e-07
3.95201
4.77694e-07
3.95201
4.77726e-07
3.952
4.7779e-07
3.952
4.7787e-07
3.95199
4.77925e-07
3.95199
4.78101e-07
3.95198
4.78398e-07
3.95197
4.78791e-07
3.95196
4.79334e-07
3.95194
4.80102e-07
3.95191
4.81222e-07
3.95187
4.82763e-07
3.95181
4.84924e-07
3.95173
4.87869e-07
3.95162
4.91817e-07
3.95147
4.97041e-07
3.95126
5.03833e-07
3.95098
5.125e-07
3.95061
5.23323e-07
3.95013
5.3661e-07
3.94952
5.52521e-07
3.94875
5.7109e-07
3.94779
5.92193e-07
3.94662
6.1535e-07
3.94521
6.3986e-07
3.94356
6.6454e-07
3.94166
6.8786e-07
3.9395
7.07818e-07
3.93713
7.2212e-07
3.93456
7.28221e-07
3.93186
7.23519e-07
3.92911
7.05586e-07
3.9264
6.72482e-07
3.92383
6.22957e-07
3.92151
5.56781e-07
3.91956
4.75019e-07
3.91807
3.80018e-07
3.91712
2.75523e-07
3.91678
1.68155e-07
3.91706
1.13134e-07
3.91785
-1.29448e-08
3.91922
-1.21717e-07
3.9211
-1.9467e-07
3.9234
-2.50018e-07
3.926
-2.78597e-07
3.92875
-2.81295e-07
3.93154
-2.64719e-07
3.93423
-2.2181e-07
3.93672
-1.6132e-07
3.93893
-9.10359e-08
3.9408
-1.10113e-08
3.94231
7.12589e-08
3.94345
1.49752e-07
3.94426
2.21289e-07
3.94477
2.84497e-07
3.94503
3.36719e-07
3.94508
3.74103e-07
3.945
3.92163e-07
3.94484
4.21514e-07
3.9446
4.32728e-07
3.94433
4.38155e-07
3.94406
4.38778e-07
3.94379
4.34743e-07
3.94354
4.28673e-07
3.94332
4.22168e-07
3.94313
4.15245e-07
3.94296
4.07764e-07
3.94282
4.01645e-07
3.94269
3.96667e-07
3.94259
3.91018e-07
3.94251
3.87009e-07
3.94243
3.84075e-07
3.94237
3.8089e-07
3.94232
3.78376e-07
3.94228
3.76604e-07
3.94224
3.74936e-07
3.94221
3.73332e-07
3.94218
3.72202e-07
3.94216
3.71386e-07
3.94214
3.70227e-07
3.94212
3.6948e-07
3.94211
3.69113e-07
3.9421
3.68247e-07
3.94209
3.67631e-07
3.94208
3.67315e-07
3.94208
3.66943e-07
3.94208
3.66638e-07
3.94208
3.66208e-07
3.94208
3.65977e-07
3.94209
3.6561e-07
3.94209
3.65477e-07
3.9421
3.65501e-07
3.94211
3.65416e-07
3.94211
3.65428e-07
3.94212
3.65593e-07
3.94213
3.65663e-07
3.94214
3.65793e-07
3.94214
3.66013e-07
3.94215
3.66274e-07
3.94216
3.66555e-07
3.94216
3.66826e-07
3.94217
3.67129e-07
3.94217
3.67601e-07
3.94217
3.67446e-07
3.94217
3.67854e-07
3.94217
3.68125e-07
3.94217
3.68296e-07
3.94216
3.68607e-07
3.94216
3.68783e-07
3.94215
3.68899e-07
3.94215
3.68974e-07
3.94214
3.69117e-07
3.94213
3.69067e-07
3.94213
3.69143e-07
3.94212
3.69166e-07
3.94211
3.69214e-07
3.9421
3.69188e-07
3.94208
3.69154e-07
3.94207
3.69088e-07
3.94206
3.68986e-07
3.94205
3.6884e-07
3.94204
3.68678e-07
3.94203
3.68503e-07
3.94202
3.68283e-07
3.94201
3.68088e-07
3.942
3.67915e-07
3.94199
3.67683e-07
3.94198
3.6751e-07
3.94198
3.67242e-07
3.94197
3.6707e-07
3.94196
3.66931e-07
3.94195
3.66577e-07
3.94195
3.66431e-07
3.94194
3.66245e-07
3.94194
3.66149e-07
3.94193
3.65942e-07
3.94193
3.65813e-07
3.94193
3.65647e-07
3.94192
3.65516e-07
3.94192
3.6526e-07
3.94192
3.65175e-07
3.94191
3.65089e-07
3.94191
3.65103e-07
3.94191
3.65135e-07
3.94191
3.65181e-07
3.9419
3.6515e-07
3.9419
3.65447e-07
3.9419
3.66503e-07
3.9419
3.8186e-07
3.9419
4.39263e-07
3.94191
7.4809e-07
3.94191
2.28509e-06
3.94191
9.94675e-06
3.94189
4.83388e-05
3.94184
0.000239083
3.94157
0.001181
3.94028
0.00573306
3.9341
0.0275018
3.90525
0.12867
3.76652
0.626569
2.04396
3.33275
17.2401
0.000569717
17.2402
0.000458963
17.2403
0.000406167
17.2404
0.000403891
17.2405
0.00038214
17.2407
0.000345215
17.2407
0.000297481
17.2408
0.000242677
17.2409
0.000186651
17.2409
0.000135187
17.2409
9.22683e-05
17.2409
5.93946e-05
17.2409
3.6168e-05
17.2409
2.0908e-05
17.2409
1.15363e-05
17.2409
6.13522e-06
17.2409
3.20317e-06
17.2409
1.69357e-06
17.2409
9.57551e-07
17.2409
6.15854e-07
17.2409
4.64416e-07
17.2409
4.0024e-07
17.2408
3.74161e-07
17.2408
3.63987e-07
17.2408
3.60168e-07
17.2408
3.58791e-07
17.2408
3.58318e-07
17.2408
3.58169e-07
17.2408
3.58122e-07
17.2408
3.58123e-07
17.2408
3.58127e-07
17.2408
3.5814e-07
17.2407
3.58138e-07
17.2407
3.58158e-07
17.2407
3.58168e-07
17.2407
3.58179e-07
17.2407
3.582e-07
17.2407
3.5822e-07
17.2407
3.58241e-07
17.2407
3.5827e-07
17.2407
3.58295e-07
17.2407
3.58341e-07
17.2406
3.58401e-07
17.2406
3.58448e-07
17.2406
3.58575e-07
17.2406
3.58798e-07
17.2405
3.59094e-07
17.2405
3.59501e-07
17.2404
3.60078e-07
17.2402
3.60918e-07
17.2401
3.62073e-07
17.2398
3.6369e-07
17.2395
3.65901e-07
17.239
3.68867e-07
17.2383
3.7278e-07
17.2374
3.77875e-07
17.2362
3.84378e-07
17.2346
3.92496e-07
17.2325
4.02457e-07
17.2298
4.14392e-07
17.2265
4.28317e-07
17.2223
4.44143e-07
17.2172
4.61512e-07
17.211
4.79893e-07
17.2038
4.98401e-07
17.1955
5.15885e-07
17.1861
5.30849e-07
17.1758
5.4157e-07
17.1646
5.46143e-07
17.1528
5.42609e-07
17.1408
5.29159e-07
17.129
5.04329e-07
17.1178
4.67183e-07
17.1076
4.17552e-07
17.0991
3.5623e-07
17.0926
2.84987e-07
17.0885
2.0668e-07
17.087
1.26938e-07
17.0882
8.19728e-08
17.0917
-6.71889e-09
17.0976
-9.24774e-08
17.1058
-1.4591e-07
17.1159
-1.87211e-07
17.1272
-2.08987e-07
17.1392
-2.11092e-07
17.1514
-1.98175e-07
17.1631
-1.66337e-07
17.174
-1.21107e-07
17.1836
-6.81216e-08
17.1918
-8.0895e-09
17.1984
5.35324e-08
17.2034
1.12314e-07
17.2069
1.66092e-07
17.2091
2.13343e-07
17.2102
2.52448e-07
17.2105
2.80575e-07
17.2101
2.94509e-07
17.2094
3.1575e-07
17.2084
3.24686e-07
17.2072
3.28573e-07
17.206
3.2903e-07
17.2048
3.26051e-07
17.2037
3.21522e-07
17.2028
3.16576e-07
17.2019
3.1141e-07
17.2012
3.05874e-07
17.2006
3.01203e-07
17.2001
2.97444e-07
17.1996
2.93325e-07
17.1992
2.90219e-07
17.1989
2.88019e-07
17.1987
2.85688e-07
17.1984
2.83792e-07
17.1982
2.82421e-07
17.1981
2.812e-07
17.1979
2.80022e-07
17.1978
2.79135e-07
17.1977
2.78525e-07
17.1976
2.77706e-07
17.1976
2.77087e-07
17.1975
2.76802e-07
17.1974
2.76207e-07
17.1974
2.75719e-07
17.1974
2.75475e-07
17.1974
2.75209e-07
17.1974
2.74976e-07
17.1974
2.74663e-07
17.1974
2.74474e-07
17.1974
2.74219e-07
17.1974
2.74098e-07
17.1975
2.74123e-07
17.1975
2.74071e-07
17.1975
2.74065e-07
17.1976
2.74189e-07
17.1976
2.74259e-07
17.1976
2.74342e-07
17.1977
2.74503e-07
17.1977
2.74709e-07
17.1977
2.74916e-07
17.1977
2.75117e-07
17.1977
2.75353e-07
17.1978
2.75699e-07
17.1978
2.75584e-07
17.1978
2.75871e-07
17.1978
2.76109e-07
17.1977
2.76213e-07
17.1977
2.76448e-07
17.1977
2.76596e-07
17.1977
2.76673e-07
17.1977
2.76742e-07
17.1976
2.76819e-07
17.1976
2.76801e-07
17.1976
2.76857e-07
17.1975
2.76878e-07
17.1975
2.76914e-07
17.1974
2.7689e-07
17.1974
2.76864e-07
17.1973
2.76817e-07
17.1973
2.76735e-07
17.1972
2.76625e-07
17.1972
2.7651e-07
17.1972
2.76379e-07
17.1971
2.7621e-07
17.1971
2.76069e-07
17.197
2.75933e-07
17.197
2.7576e-07
17.197
2.75629e-07
17.1969
2.75432e-07
17.1969
2.75304e-07
17.1968
2.75194e-07
17.1968
2.74936e-07
17.1968
2.74822e-07
17.1968
2.74687e-07
17.1967
2.7461e-07
17.1967
2.74458e-07
17.1967
2.74356e-07
17.1967
2.74233e-07
17.1967
2.74131e-07
17.1967
2.7395e-07
17.1967
2.7389e-07
17.1966
2.73813e-07
17.1966
2.73832e-07
17.1966
2.73859e-07
17.1966
2.73908e-07
17.1966
2.73863e-07
17.1966
2.75111e-07
17.1966
2.73867e-07
17.1966
3.10235e-07
17.1966
4.12464e-07
17.1966
1.01033e-06
17.1966
3.9527e-06
17.1966
1.86416e-05
17.1966
9.22298e-05
17.1963
0.000457836
17.1952
0.0022635
17.19
0.0109966
17.1648
0.0527097
17.0473
0.246132
16.5319
1.14196
3.73681
14.8391
17.24
0.000367482
17.2402
0.000311999
17.2403
0.00026958
17.2404
0.000269049
17.2405
0.000255426
17.2406
0.000230854
17.2407
0.000199202
17.2408
0.000162804
17.2409
0.000125468
17.2409
9.10702e-05
17.2409
6.2302e-05
17.2409
4.02015e-05
17.2409
2.45408e-05
17.2409
1.42215e-05
17.2409
7.86536e-06
17.2409
4.19128e-06
17.2409
2.19067e-06
17.2409
1.15765e-06
17.2409
6.52401e-07
17.2409
4.17134e-07
17.2409
3.12541e-07
17.2409
2.68075e-07
17.2408
2.49951e-07
17.2408
2.4286e-07
17.2408
2.40189e-07
17.2408
2.39221e-07
17.2408
2.38888e-07
17.2408
2.38784e-07
17.2408
2.38749e-07
17.2408
2.3875e-07
17.2408
2.38754e-07
17.2408
2.38762e-07
17.2407
2.38758e-07
17.2407
2.38771e-07
17.2407
2.38779e-07
17.2407
2.38786e-07
17.2407
2.38799e-07
17.2407
2.38812e-07
17.2407
2.38828e-07
17.2407
2.38848e-07
17.2407
2.38864e-07
17.2407
2.38892e-07
17.2406
2.38933e-07
17.2406
2.38968e-07
17.2406
2.3905e-07
17.2406
2.392e-07
17.2405
2.39397e-07
17.2405
2.39668e-07
17.2404
2.40053e-07
17.2402
2.40613e-07
17.2401
2.41382e-07
17.2398
2.42455e-07
17.2395
2.43933e-07
17.239
2.45912e-07
17.2383
2.48519e-07
17.2374
2.51916e-07
17.2362
2.56252e-07
17.2346
2.61663e-07
17.2325
2.68299e-07
17.2298
2.76258e-07
17.2265
2.85539e-07
17.2223
2.96088e-07
17.2172
3.07669e-07
17.211
3.19921e-07
17.2038
3.32259e-07
17.1955
3.43914e-07
17.1861
3.53888e-07
17.1758
3.61037e-07
17.1646
3.64086e-07
17.1528
3.6173e-07
17.1408
3.52766e-07
17.129
3.36214e-07
17.1178
3.11454e-07
17.1076
2.78369e-07