/*--------------------------------*- C++ -*----------------------------------*\
| =========                 |                                                 |
| \\      /  F ield         | OpenFOAM: The Open Source CFD Toolbox           |
|  \\    /   O peration     | Version:  3.0.x                                 |
|   \\  /    A nd           | Web:      www.OpenFOAM.org                      |
|    \\/     M anipulation  |                                                 |
\*---------------------------------------------------------------------------*/
FoamFile
{
    version     2.0;
    format      ascii;
    class       volVectorField;
    location    "0.35";
    object      U;
}
// * * * * * * * * * * * * * * * * * * * * * * * * * * * * * * * * * * * * * //

dimensions      [0 1 -1 0 0 0 0];

internalField   nonuniform List<vector> 
27600
(
(42.6981 0.000129713 0)
(42.6963 0.000119187 0)
(42.6945 0.000117667 0)
(42.6926 0.000120459 0)
(42.6907 0.000122875 0)
(42.6888 0.000124754 0)
(42.687 0.000126344 0)
(42.6851 0.000127702 0)
(42.6832 0.000128854 0)
(42.6813 0.000129834 0)
(42.6795 0.000130674 0)
(42.6776 0.000131397 0)
(42.6757 0.000132022 0)
(42.6738 0.000132564 0)
(42.672 0.000133036 0)
(42.6701 0.000133447 0)
(42.6682 0.000133808 0)
(42.6663 0.000134125 0)
(42.6645 0.000134402 0)
(42.6626 0.000134645 0)
(42.6607 0.00013486 0)
(42.6588 0.000135045 0)
(42.657 0.000135226 0)
(42.6551 0.000135352 0)
(42.6532 0.000135487 0)
(42.6513 0.000135601 0)
(42.6495 0.0001357 0)
(42.6476 0.000135786 0)
(42.6457 0.000135863 0)
(42.6438 0.000135927 0)
(42.642 0.000136 0)
(42.6401 0.000136028 0)
(42.6382 0.000136081 0)
(42.6363 0.000136122 0)
(42.6345 0.000136156 0)
(42.6326 0.000136187 0)
(42.6307 0.000136212 0)
(42.6288 0.000136226 0)
(42.627 0.00013626 0)
(42.6251 0.000136291 0)
(42.6232 0.000136294 0)
(42.6213 0.000136309 0)
(42.6195 0.000136322 0)
(42.6176 0.000136333 0)
(42.6157 0.000136342 0)
(42.6138 0.000136348 0)
(42.612 0.000136353 0)
(42.6101 0.000136356 0)
(42.6082 0.000136357 0)
(42.6063 0.000136356 0)
(42.6045 0.000136355 0)
(42.6026 0.000136352 0)
(42.6007 0.000136343 0)
(42.5989 0.000136349 0)
(42.597 0.000136337 0)
(42.5951 0.00013633 0)
(42.5932 0.000136322 0)
(42.5914 0.000136314 0)
(42.5895 0.000136305 0)
(42.5876 0.000136282 0)
(42.5857 0.000136304 0)
(42.5839 0.000136293 0)
(42.582 0.000136276 0)
(42.5801 0.00013627 0)
(42.5783 0.000136263 0)
(42.5764 0.000136249 0)
(42.5745 0.000136251 0)
(42.5726 0.000136254 0)
(42.5708 0.000136239 0)
(42.5689 0.000136221 0)
(42.567 0.000136222 0)
(42.5652 0.000136241 0)
(42.5633 0.000136221 0)
(42.5614 0.000136204 0)
(42.5595 0.000136202 0)
(42.5577 0.000136196 0)
(42.5558 0.000136189 0)
(42.5539 0.000136182 0)
(42.5521 0.000136173 0)
(42.5502 0.000136163 0)
(42.5483 0.000136152 0)
(42.5465 0.000136138 0)
(42.5446 0.000136123 0)
(42.5427 0.000136104 0)
(42.5409 0.000136078 0)
(42.539 0.000135991 0)
(42.5371 0.000136025 0)
(42.5353 0.000135942 0)
(42.5334 0.000135863 0)
(42.5315 0.000135768 0)
(42.5297 0.000135646 0)
(42.5278 0.00013549 0)
(42.5259 0.000135273 0)
(42.5241 0.000135042 0)
(42.5222 0.000134826 0)
(42.5204 0.000134317 0)
(42.5186 0.000133888 0)
(42.5167 0.00013333 0)
(42.5149 0.000132647 0)
(42.5131 0.000131832 0)
(42.5113 0.000130865 0)
(42.5095 0.000129731 0)
(42.5077 0.000128411 0)
(42.506 0.000126889 0)
(42.5043 0.000125148 0)
(42.5026 0.000123176 0)
(42.5009 0.000120959 0)
(42.4992 0.000118491 0)
(42.4976 0.000115765 0)
(42.4961 0.00011278 0)
(42.4946 0.000109538 0)
(42.4931 0.000106047 0)
(42.4917 0.000102319 0)
(42.4903 9.83693e-05 0)
(42.489 9.42191e-05 0)
(42.4877 8.98931e-05 0)
(42.4865 8.54193e-05 0)
(42.4854 8.08292e-05 0)
(42.4843 7.61564e-05 0)
(42.4833 7.1436e-05 0)
(42.4824 6.67039e-05 0)
(42.4815 6.19961e-05 0)
(42.4807 5.73477e-05 0)
(42.48 5.27925e-05 0)
(42.4793 4.83606e-05 0)
(42.4787 4.40783e-05 0)
(42.4781 3.99761e-05 0)
(42.4776 3.60704e-05 0)
(42.4771 3.23793e-05 0)
(42.4767 2.89156e-05 0)
(42.4763 2.56881e-05 0)
(42.476 2.27016e-05 0)
(42.4757 1.99571e-05 0)
(42.4755 1.74523e-05 0)
(42.4753 1.51817e-05 0)
(42.4751 1.31372e-05 0)
(42.4749 1.13085e-05 0)
(42.4748 9.68414e-06 0)
(42.4747 8.25016e-06 0)
(42.4746 6.99295e-06 0)
(42.4745 5.8973e-06 0)
(42.4744 4.94897e-06 0)
(42.4744 4.13331e-06 0)
(42.4743 3.43616e-06 0)
(42.4743 2.84404e-06 0)
(42.4742 2.34426e-06 0)
(42.4742 1.92503e-06 0)
(42.4742 1.57551e-06 0)
(42.4742 1.28589e-06 0)
(42.4742 1.04736e-06 0)
(42.4742 8.52073e-07 0)
(42.4742 6.93149e-07 0)
(42.4741 5.64579e-07 0)
(42.4741 4.6118e-07 0)
(42.4741 3.78506e-07 0)
(42.4741 3.1279e-07 0)
(42.4741 2.60849e-07 0)
(42.4741 2.20023e-07 0)
(42.4741 1.88129e-07 0)
(42.4741 1.63346e-07 0)
(42.4741 1.44194e-07 0)
(42.4741 1.2948e-07 0)
(42.4742 1.18234e-07 0)
(42.4742 1.09692e-07 0)
(42.4742 1.03238e-07 0)
(42.4742 9.83885e-08 0)
(42.4742 9.476e-08 0)
(42.4742 9.20652e-08 0)
(42.4742 9.00686e-08 0)
(42.4742 8.86032e-08 0)
(42.4742 8.75334e-08 0)
(42.4742 8.67596e-08 0)
(42.4742 8.61997e-08 0)
(42.4742 8.57976e-08 0)
(42.4742 8.55143e-08 0)
(42.4742 8.53174e-08 0)
(42.4742 8.51779e-08 0)
(42.4742 8.50862e-08 0)
(42.4742 8.50226e-08 0)
(42.4742 8.49898e-08 0)
(42.4742 8.49644e-08 0)
(42.4742 8.4956e-08 0)
(42.4742 8.49535e-08 0)
(42.4742 8.49579e-08 0)
(42.4742 8.49649e-08 0)
(42.4742 8.4972e-08 0)
(42.4742 8.49841e-08 0)
(42.4742 8.49961e-08 0)
(42.4742 8.5011e-08 0)
(42.4742 8.50277e-08 0)
(42.4742 8.50409e-08 0)
(42.4742 8.50585e-08 0)
(42.4742 8.50729e-08 0)
(42.4742 8.50889e-08 0)
(42.4742 8.51047e-08 0)
(42.4742 8.51173e-08 0)
(42.4742 8.5133e-08 0)
(42.4742 8.51505e-08 0)
(42.4742 8.51648e-08 0)
(42.4742 8.51778e-08 0)
(42.4742 8.51973e-08 0)
(42.4742 8.52151e-08 0)
(42.4742 8.52306e-08 0)
(42.4742 8.52488e-08 0)
(42.4741 8.52695e-08 0)
(42.4741 8.52899e-08 0)
(42.4741 8.53103e-08 0)
(42.4741 8.5332e-08 0)
(42.4741 8.53537e-08 0)
(42.4741 8.53573e-08 0)
(42.4741 8.54043e-08 0)
(42.4741 8.5286e-08 0)
(42.4741 8.57255e-08 0)
(42.4741 8.52994e-08 0)
(42.4741 8.54478e-08 0)
(42.4741 8.54643e-08 0)
(42.4741 8.54697e-08 0)
(42.4741 8.54795e-08 0)
(42.4741 8.54831e-08 0)
(42.4741 8.54717e-08 0)
(42.474 8.54992e-08 0)
(42.474 8.55101e-08 0)
(42.474 8.55237e-08 0)
(42.474 8.55353e-08 0)
(42.474 8.55484e-08 0)
(42.474 8.55619e-08 0)
(42.474 8.55803e-08 0)
(42.474 8.55998e-08 0)
(42.474 8.56104e-08 0)
(42.474 8.56243e-08 0)
(42.474 8.56527e-08 0)
(42.474 8.56689e-08 0)
(42.4739 8.56871e-08 0)
(42.4739 8.57055e-08 0)
(42.4739 8.57175e-08 0)
(42.4739 8.57263e-08 0)
(42.4739 8.56388e-08 0)
(42.4739 8.58502e-08 0)
(42.4739 8.57858e-08 0)
(42.4739 8.57853e-08 0)
(42.4739 8.58028e-08 0)
(42.4739 8.58144e-08 0)
(42.4739 8.58244e-08 0)
(42.4739 8.58395e-08 0)
(42.4738 8.59008e-08 0)
(42.4738 8.58036e-08 0)
(42.4738 8.5888e-08 0)
(42.4738 8.58673e-08 0)
(42.4738 8.5887e-08 0)
(42.4738 8.5906e-08 0)
(42.4738 8.59155e-08 0)
(42.4738 8.59317e-08 0)
(42.4738 8.59348e-08 0)
(42.4738 8.59645e-08 0)
(42.4738 8.59468e-08 0)
(42.4738 8.59722e-08 0)
(42.4738 8.59647e-08 0)
(42.4738 8.59903e-08 0)
(42.4738 8.60085e-08 0)
(42.4738 8.60245e-08 0)
(42.4738 8.60357e-08 0)
(42.4738 8.60504e-08 0)
(42.4738 8.60608e-08 0)
(42.4738 8.60804e-08 0)
(42.4738 8.60967e-08 0)
(42.4738 8.61091e-08 0)
(42.4738 8.62001e-08 0)
(42.4738 8.59946e-08 0)
(42.4738 8.62076e-08 0)
(42.4738 8.61636e-08 0)
(42.4738 8.61856e-08 0)
(42.4738 8.61946e-08 0)
(42.4738 8.62095e-08 0)
(42.4738 8.62232e-08 0)
(42.4738 8.62452e-08 0)
(42.4738 8.6262e-08 0)
(42.4738 8.62832e-08 0)
(42.4738 8.62881e-08 0)
(42.4738 8.63222e-08 0)
(42.4738 8.63979e-08 0)
(42.4738 8.62937e-08 0)
(42.4738 8.63581e-08 0)
(42.4738 8.63823e-08 0)
(42.4738 8.64026e-08 0)
(42.4738 8.64242e-08 0)
(42.4738 8.64474e-08 0)
(42.4738 8.64724e-08 0)
(42.4738 8.64691e-08 0)
(42.4738 8.64988e-08 0)
(42.4738 8.6519e-08 0)
(42.4738 8.65426e-08 0)
(42.4738 8.65585e-08 0)
(42.4739 8.65738e-08 0)
(42.4739 8.65948e-08 0)
(42.4739 8.66355e-08 0)
(42.4739 8.66613e-08 0)
(42.4739 8.66778e-08 0)
(42.4739 8.66967e-08 0)
(42.4739 8.67162e-08 0)
(42.4739 8.67439e-08 0)
(42.4739 8.68413e-08 0)
(42.4739 8.6704e-08 0)
(42.4739 8.67494e-08 0)
(42.4739 8.68534e-08 0)
(42.4739 8.68491e-08 0)
(42.474 8.68757e-08 0)
(42.474 8.69056e-08 0)
(42.474 8.69378e-08 0)
(42.474 8.69669e-08 0)
(42.474 8.70007e-08 0)
(42.474 8.70326e-08 0)
(42.474 8.70653e-08 0)
(42.474 8.70958e-08 0)
(42.474 8.71298e-08 0)
(42.474 8.71595e-08 0)
(42.4741 8.71962e-08 0)
(42.4741 8.72214e-08 0)
(42.4741 8.7253e-08 0)
(42.4741 8.7279e-08 0)
(42.4741 8.7306e-08 0)
(42.4741 8.73336e-08 0)
(42.4741 8.73595e-08 0)
(42.4741 8.73869e-08 0)
(42.4741 8.74173e-08 0)
(42.4742 8.74448e-08 0)
(42.4742 8.74742e-08 0)
(42.4742 8.75013e-08 0)
(42.4742 8.75292e-08 0)
(42.4742 8.75557e-08 0)
(42.4742 8.7586e-08 0)
(42.4742 8.7615e-08 0)
(42.4743 8.76445e-08 0)
(42.4743 8.76755e-08 0)
(42.4743 8.77089e-08 0)
(42.4743 8.7745e-08 0)
(42.4743 8.77781e-08 0)
(42.4743 8.78121e-08 0)
(42.4744 8.78438e-08 0)
(42.4744 8.78794e-08 0)
(42.4744 8.7906e-08 0)
(42.4744 8.79418e-08 0)
(42.4744 8.79737e-08 0)
(42.4744 8.80114e-08 0)
(42.4745 8.80435e-08 0)
(42.4745 8.80737e-08 0)
(42.4745 8.81081e-08 0)
(42.4745 8.81358e-08 0)
(42.4745 8.81662e-08 0)
(42.4746 8.81966e-08 0)
(42.4746 8.8232e-08 0)
(42.4746 8.82626e-08 0)
(42.4746 8.82942e-08 0)
(42.4747 8.83281e-08 0)
(42.4747 8.83578e-08 0)
(42.4747 8.839e-08 0)
(42.4747 8.84156e-08 0)
(42.4748 8.84402e-08 0)
(42.4748 8.84707e-08 0)
(42.4748 8.85015e-08 0)
(42.4749 8.85304e-08 0)
(42.4749 8.85603e-08 0)
(42.4749 8.85899e-08 0)
(42.475 8.86199e-08 0)
(42.475 8.8651e-08 0)
(42.475 8.86814e-08 0)
(42.4751 8.87039e-08 0)
(42.4751 8.87352e-08 0)
(42.4751 8.87634e-08 0)
(42.4752 8.87973e-08 0)
(42.4752 8.88279e-08 0)
(42.4753 8.88599e-08 0)
(42.4753 8.88932e-08 0)
(42.4753 8.8946e-08 0)
(42.4754 8.89809e-08 0)
(42.4754 8.85001e-08 0)
(42.4755 8.97906e-08 0)
(42.4755 8.97095e-08 0)
(42.4756 8.90313e-08 0)
(42.4756 9.07218e-08 0)
(42.4757 9.28166e-08 0)
(42.4757 9.78883e-08 0)
(42.4758 1.09657e-07 0)
(42.4758 1.38999e-07 0)
(42.4759 2.07723e-07 0)
(42.4759 3.72931e-07 0)
(42.476 7.68197e-07 0)
(42.476 1.71223e-06 0)
(42.476 3.97047e-06 0)
(42.4759 9.36798e-06 0)
(42.4756 2.22647e-05 0)
(42.4747 5.30645e-05 0)
(42.4725 0.000126561 0)
(42.4672 0.000301794 0)
(42.4545 0.000718771 0)
(42.4241 0.00170852 0)
(42.3522 0.00405254 0)
(42.182 0.00960212 0)
(41.7789 0.0229296 0)
(40.8787 0.0576632 0)
(37.2397 0.159535 0)
(42.7001 0.000208895 0)
(42.7002 0.000168673 0)
(42.7003 0.000152643 0)
(42.7004 0.000150639 0)
(42.7005 0.00014918 0)
(42.7005 0.000147462 0)
(42.7006 0.000146047 0)
(42.7007 0.000144911 0)
(42.7008 0.000143948 0)
(42.7008 0.000143118 0)
(42.7009 0.0001424 0)
(42.701 0.000141778 0)
(42.7011 0.000141237 0)
(42.7011 0.000140764 0)
(42.7012 0.000140349 0)
(42.7013 0.000139985 0)
(42.7014 0.000139662 0)
(42.7014 0.000139385 0)
(42.7015 0.000139132 0)
(42.7016 0.00013891 0)
(42.7017 0.000138714 0)
(42.7017 0.000138534 0)
(42.7018 0.000138404 0)
(42.7019 0.00013823 0)
(42.702 0.000138119 0)
(42.702 0.000138011 0)
(42.7021 0.000137912 0)
(42.7022 0.000137823 0)
(42.7023 0.000137745 0)
(42.7023 0.000137671 0)
(42.7024 0.000137631 0)
(42.7025 0.000137539 0)
(42.7026 0.000137503 0)
(42.7026 0.000137461 0)
(42.7027 0.000137422 0)
(42.7028 0.000137389 0)
(42.7028 0.000137357 0)
(42.7029 0.000137316 0)
(42.703 0.000137316 0)
(42.7031 0.000137317 0)
(42.7031 0.000137281 0)
(42.7032 0.000137271 0)
(42.7033 0.000137262 0)
(42.7034 0.000137254 0)
(42.7034 0.000137248 0)
(42.7035 0.000137242 0)
(42.7036 0.000137238 0)
(42.7036 0.000137234 0)
(42.7037 0.00013723 0)
(42.7038 0.000137226 0)
(42.7039 0.000137225 0)
(42.7039 0.000137221 0)
(42.704 0.000137207 0)
(42.7041 0.000137231 0)
(42.7042 0.000137217 0)
(42.7042 0.000137214 0)
(42.7043 0.000137213 0)
(42.7044 0.000137212 0)
(42.7044 0.000137209 0)
(42.7045 0.000137183 0)
(42.7046 0.000137237 0)
(42.7047 0.000137228 0)
(42.7047 0.000137217 0)
(42.7048 0.000137224 0)
(42.7049 0.000137228 0)
(42.705 0.000137219 0)
(42.705 0.000137239 0)
(42.7051 0.00013726 0)
(42.7052 0.000137251 0)
(42.7052 0.000137236 0)
(42.7053 0.000137256 0)
(42.7054 0.000137305 0)
(42.7055 0.00013728 0)
(42.7055 0.000137276 0)
(42.7056 0.000137293 0)
(42.7057 0.000137299 0)
(42.7058 0.000137306 0)
(42.7058 0.000137312 0)
(42.7059 0.000137317 0)
(42.706 0.000137321 0)
(42.706 0.000137323 0)
(42.7061 0.000137322 0)
(42.7062 0.000137322 0)
(42.7063 0.000137317 0)
(42.7063 0.000137304 0)
(42.7064 0.000137187 0)
(42.7065 0.0001373 0)
(42.7066 0.0001372 0)
(42.7066 0.000137125 0)
(42.7067 0.000137037 0)
(42.7068 0.00013692 0)
(42.7069 0.000136765 0)
(42.7069 0.000136532 0)
(42.707 0.000136309 0)
(42.7071 0.000136149 0)
(42.7072 0.000135517 0)
(42.7072 0.000135108 0)
(42.7073 0.000134529 0)
(42.7074 0.000133811 0)
(42.7075 0.000132954 0)
(42.7075 0.000131937 0)
(42.7076 0.000130743 0)
(42.7077 0.000129355 0)
(42.7077 0.000127755 0)
(42.7078 0.000125927 0)
(42.7079 0.000123858 0)
(42.708 0.000121538 0)
(42.708 0.000118957 0)
(42.7081 0.000116113 0)
(42.7082 0.000113004 0)
(42.7082 0.000109636 0)
(42.7083 0.000106016 0)
(42.7084 0.00010216 0)
(42.7084 9.80836e-05 0)
(42.7085 9.38111e-05 0)
(42.7086 8.93687e-05 0)
(42.7086 8.47866e-05 0)
(42.7087 8.00976e-05 0)
(42.7087 7.53368e-05 0)
(42.7088 7.05406e-05 0)
(42.7088 6.57458e-05 0)
(42.7089 6.09889e-05 0)
(42.7089 5.63052e-05 0)
(42.709 5.17289e-05 0)
(42.709 4.72886e-05 0)
(42.709 4.30089e-05 0)
(42.7091 3.89237e-05 0)
(42.7091 3.50445e-05 0)
(42.7091 3.13888e-05 0)
(42.7092 2.79683e-05 0)
(42.7092 2.47904e-05 0)
(42.7092 2.18583e-05 0)
(42.7092 1.91717e-05 0)
(42.7092 1.67267e-05 0)
(42.7092 1.45168e-05 0)
(42.7093 1.25327e-05 0)
(42.7093 1.07629e-05 0)
(42.7093 9.19578e-06 0)
(42.7093 7.81605e-06 0)
(42.7093 6.60999e-06 0)
(42.7093 5.56168e-06 0)
(42.7093 4.65701e-06 0)
(42.7093 3.8811e-06 0)
(42.7093 3.21979e-06 0)
(42.7093 2.6597e-06 0)
(42.7093 2.18826e-06 0)
(42.7093 1.79391e-06 0)
(42.7093 1.46604e-06 0)
(42.7093 1.19512e-06 0)
(42.7093 9.72587e-07 0)
(42.7093 7.9091e-07 0)
(42.7093 6.43467e-07 0)
(42.7094 5.24504e-07 0)
(42.7094 4.29087e-07 0)
(42.7094 3.53004e-07 0)
(42.7094 2.92692e-07 0)
(42.7094 2.45154e-07 0)
(42.7094 2.07861e-07 0)
(42.7094 1.78826e-07 0)
(42.7094 1.5632e-07 0)
(42.7094 1.3898e-07 0)
(42.7094 1.25686e-07 0)
(42.7094 1.1556e-07 0)
(42.7094 1.07875e-07 0)
(42.7094 1.02091e-07 0)
(42.7094 9.77477e-08 0)
(42.7094 9.45191e-08 0)
(42.7094 9.21178e-08 0)
(42.7094 9.03485e-08 0)
(42.7094 8.90491e-08 0)
(42.7094 8.81041e-08 0)
(42.7094 8.74186e-08 0)
(42.7094 8.69228e-08 0)
(42.7094 8.657e-08 0)
(42.7094 8.63133e-08 0)
(42.7094 8.61372e-08 0)
(42.7094 8.60117e-08 0)
(42.7094 8.59278e-08 0)
(42.7094 8.58701e-08 0)
(42.7094 8.58271e-08 0)
(42.7094 8.57997e-08 0)
(42.7094 8.57861e-08 0)
(42.7094 8.57756e-08 0)
(42.7094 8.57758e-08 0)
(42.7094 8.57659e-08 0)
(42.7094 8.57695e-08 0)
(42.7094 8.57788e-08 0)
(42.7094 8.57841e-08 0)
(42.7094 8.57889e-08 0)
(42.7094 8.57962e-08 0)
(42.7094 8.58036e-08 0)
(42.7094 8.58156e-08 0)
(42.7094 8.582e-08 0)
(42.7094 8.58266e-08 0)
(42.7094 8.58416e-08 0)
(42.7094 8.58517e-08 0)
(42.7094 8.5861e-08 0)
(42.7094 8.58735e-08 0)
(42.7094 8.58832e-08 0)
(42.7094 8.58912e-08 0)
(42.7094 8.58987e-08 0)
(42.7094 8.59091e-08 0)
(42.7094 8.59241e-08 0)
(42.7094 8.59367e-08 0)
(42.7094 8.59519e-08 0)
(42.7094 8.5972e-08 0)
(42.7093 8.59831e-08 0)
(42.7093 8.6001e-08 0)
(42.7093 8.60207e-08 0)
(42.7093 8.60082e-08 0)
(42.7093 8.60723e-08 0)
(42.7093 8.58494e-08 0)
(42.7093 8.66233e-08 0)
(42.7093 8.58219e-08 0)
(42.7093 8.60778e-08 0)
(42.7093 8.61093e-08 0)
(42.7093 8.61107e-08 0)
(42.7093 8.61171e-08 0)
(42.7093 8.61393e-08 0)
(42.7093 8.61001e-08 0)
(42.7092 8.61301e-08 0)
(42.7092 8.61376e-08 0)
(42.7092 8.61465e-08 0)
(42.7092 8.6154e-08 0)
(42.7092 8.61635e-08 0)
(42.7092 8.61692e-08 0)
(42.7092 8.618e-08 0)
(42.7092 8.61958e-08 0)
(42.7092 8.61971e-08 0)
(42.7092 8.62046e-08 0)
(42.7092 8.62255e-08 0)
(42.7091 8.6237e-08 0)
(42.7091 8.62405e-08 0)
(42.7091 8.62441e-08 0)
(42.7091 8.62421e-08 0)
(42.7091 8.62376e-08 0)
(42.7091 8.60651e-08 0)
(42.7091 8.64272e-08 0)
(42.7091 8.62725e-08 0)
(42.7091 8.62483e-08 0)
(42.7091 8.62483e-08 0)
(42.7091 8.62441e-08 0)
(42.7091 8.62437e-08 0)
(42.709 8.62431e-08 0)
(42.709 8.63329e-08 0)
(42.709 8.61327e-08 0)
(42.709 8.62619e-08 0)
(42.709 8.61907e-08 0)
(42.709 8.62045e-08 0)
(42.709 8.62039e-08 0)
(42.709 8.61985e-08 0)
(42.709 8.61892e-08 0)
(42.709 8.61874e-08 0)
(42.709 8.62085e-08 0)
(42.709 8.61508e-08 0)
(42.709 8.61749e-08 0)
(42.709 8.61355e-08 0)
(42.709 8.61484e-08 0)
(42.709 8.61374e-08 0)
(42.709 8.61315e-08 0)
(42.709 8.61247e-08 0)
(42.7089 8.61161e-08 0)
(42.7089 8.61074e-08 0)
(42.7089 8.61029e-08 0)
(42.7089 8.60939e-08 0)
(42.7089 8.60944e-08 0)
(42.7089 8.62295e-08 0)
(42.7089 8.58325e-08 0)
(42.7089 8.61644e-08 0)
(42.7089 8.60702e-08 0)
(42.7089 8.60711e-08 0)
(42.7089 8.60664e-08 0)
(42.7089 8.60635e-08 0)
(42.7089 8.60597e-08 0)
(42.7089 8.6057e-08 0)
(42.7089 8.60528e-08 0)
(42.7089 8.60614e-08 0)
(42.709 8.60511e-08 0)
(42.709 8.60698e-08 0)
(42.709 8.61701e-08 0)
(42.709 8.59657e-08 0)
(42.709 8.60553e-08 0)
(42.709 8.60777e-08 0)
(42.709 8.60806e-08 0)
(42.709 8.60951e-08 0)
(42.709 8.61079e-08 0)
(42.709 8.61266e-08 0)
(42.709 8.6089e-08 0)
(42.709 8.61104e-08 0)
(42.709 8.61203e-08 0)
(42.709 8.61334e-08 0)
(42.709 8.61379e-08 0)
(42.709 8.6134e-08 0)
(42.709 8.61437e-08 0)
(42.709 8.62384e-08 0)
(42.709 8.62602e-08 0)
(42.7091 8.62491e-08 0)
(42.7091 8.62544e-08 0)
(42.7091 8.62688e-08 0)
(42.7091 8.63068e-08 0)
(42.7091 8.64671e-08 0)
(42.7091 8.61365e-08 0)
(42.7091 8.62124e-08 0)
(42.7091 8.63777e-08 0)
(42.7091 8.63538e-08 0)
(42.7091 8.63746e-08 0)
(42.7091 8.63976e-08 0)
(42.7091 8.64275e-08 0)
(42.7092 8.64542e-08 0)
(42.7092 8.64774e-08 0)
(42.7092 8.65087e-08 0)
(42.7092 8.65332e-08 0)
(42.7092 8.65628e-08 0)
(42.7092 8.65886e-08 0)
(42.7092 8.66142e-08 0)
(42.7092 8.66428e-08 0)
(42.7092 8.66683e-08 0)
(42.7092 8.66929e-08 0)
(42.7093 8.67159e-08 0)
(42.7093 8.67412e-08 0)
(42.7093 8.6761e-08 0)
(42.7093 8.67856e-08 0)
(42.7093 8.68032e-08 0)
(42.7093 8.68301e-08 0)
(42.7093 8.68475e-08 0)
(42.7093 8.68632e-08 0)
(42.7093 8.68885e-08 0)
(42.7094 8.69118e-08 0)
(42.7094 8.69346e-08 0)
(42.7094 8.69606e-08 0)
(42.7094 8.69829e-08 0)
(42.7094 8.7007e-08 0)
(42.7094 8.70282e-08 0)
(42.7094 8.7051e-08 0)
(42.7095 8.70726e-08 0)
(42.7095 8.70928e-08 0)
(42.7095 8.71103e-08 0)
(42.7095 8.71309e-08 0)
(42.7095 8.71566e-08 0)
(42.7095 8.71747e-08 0)
(42.7096 8.71976e-08 0)
(42.7096 8.72103e-08 0)
(42.7096 8.72234e-08 0)
(42.7096 8.72477e-08 0)
(42.7096 8.72607e-08 0)
(42.7097 8.72809e-08 0)
(42.7097 8.72947e-08 0)
(42.7097 8.73087e-08 0)
(42.7097 8.73213e-08 0)
(42.7097 8.73358e-08 0)
(42.7098 8.73473e-08 0)
(42.7098 8.73584e-08 0)
(42.7098 8.73774e-08 0)
(42.7098 8.73829e-08 0)
(42.7099 8.74001e-08 0)
(42.7099 8.74098e-08 0)
(42.7099 8.74163e-08 0)
(42.71 8.74385e-08 0)
(42.71 8.74409e-08 0)
(42.71 8.74494e-08 0)
(42.71 8.74624e-08 0)
(42.7101 8.74659e-08 0)
(42.7101 8.74824e-08 0)
(42.7101 8.74889e-08 0)
(42.7102 8.74893e-08 0)
(42.7102 8.74981e-08 0)
(42.7102 8.75165e-08 0)
(42.7103 8.7516e-08 0)
(42.7103 8.75221e-08 0)
(42.7104 8.75412e-08 0)
(42.7104 8.75565e-08 0)
(42.7104 8.75964e-08 0)
(42.7105 8.76817e-08 0)
(42.7105 8.77316e-08 0)
(42.7106 8.59859e-08 0)
(42.7106 9.03154e-08 0)
(42.7107 8.98705e-08 0)
(42.7107 8.75867e-08 0)
(42.7108 9.32935e-08 0)
(42.7108 1.00232e-07 0)
(42.7109 1.17459e-07 0)
(42.7109 1.57242e-07 0)
(42.711 2.56936e-07 0)
(42.711 4.90453e-07 0)
(42.7111 1.05194e-06 0)
(42.7111 2.39587e-06 0)
(42.7111 5.60572e-06 0)
(42.7111 1.3284e-05 0)
(42.711 3.16357e-05 0)
(42.7107 7.54851e-05 0)
(42.7098 0.000180204 0)
(42.7076 0.000430086 0)
(42.7024 0.00102584 0)
(42.6897 0.00244332 0)
(42.6595 0.00580695 0)
(42.5879 0.0137676 0)
(42.4186 0.0325823 0)
(42.0178 0.0775505 0)
(41.1238 0.192818 0)
(37.7067 0.503447 0)
(42.7001 0.000149854 0)
(42.7002 0.000119674 0)
(42.7003 0.00010597 0)
(42.7004 0.000108399 0)
(42.7004 0.0001104 0)
(42.7005 0.00011097 0)
(42.7006 0.00011137 0)
(42.7007 0.00011179 0)
(42.7008 0.000112158 0)
(42.7008 0.000112469 0)
(42.7009 0.000112737 0)
(42.701 0.000112971 0)
(42.7011 0.000113178 0)
(42.7011 0.00011336 0)
(42.7012 0.000113522 0)
(42.7013 0.000113665 0)
(42.7014 0.000113787 0)
(42.7014 0.000113912 0)
(42.7015 0.00011401 0)
(42.7016 0.0001141 0)
(42.7017 0.000114183 0)
(42.7017 0.000114252 0)
(42.7018 0.000114337 0)
(42.7019 0.000114369 0)
(42.702 0.000114432 0)
(42.7021 0.000114481 0)
(42.7021 0.000114523 0)
(42.7022 0.000114562 0)
(42.7023 0.000114597 0)
(42.7024 0.000114626 0)
(42.7024 0.000114664 0)
(42.7025 0.000114675 0)
(42.7026 0.000114706 0)
(42.7027 0.000114728 0)
(42.7027 0.000114748 0)
(42.7028 0.000114767 0)
(42.7029 0.000114783 0)
(42.703 0.000114792 0)
(42.703 0.000114821 0)
(42.7031 0.000114849 0)
(42.7032 0.000114853 0)
(42.7033 0.00011487 0)
(42.7033 0.000114884 0)
(42.7034 0.000114898 0)
(42.7035 0.000114911 0)
(42.7036 0.000114923 0)
(42.7037 0.000114935 0)
(42.7037 0.000114945 0)
(42.7038 0.000114954 0)
(42.7039 0.000114963 0)
(42.704 0.000114973 0)
(42.704 0.000114979 0)
(42.7041 0.000114969 0)
(42.7042 0.000115004 0)
(42.7043 0.000114999 0)
(42.7043 0.000115001 0)
(42.7044 0.000115006 0)
(42.7045 0.000115011 0)
(42.7046 0.000115014 0)
(42.7047 0.000115 0)
(42.7047 0.000115045 0)
(42.7048 0.000115038 0)
(42.7049 0.000115037 0)
(42.705 0.000115046 0)
(42.705 0.000115052 0)
(42.7051 0.000115051 0)
(42.7052 0.000115065 0)
(42.7053 0.000115084 0)
(42.7054 0.00011508 0)
(42.7054 0.000115072 0)
(42.7055 0.000115091 0)
(42.7056 0.000115129 0)
(42.7057 0.000115107 0)
(42.7058 0.000115114 0)
(42.7058 0.000115128 0)
(42.7059 0.000115134 0)
(42.706 0.00011514 0)
(42.7061 0.000115146 0)
(42.7062 0.000115152 0)
(42.7062 0.000115156 0)
(42.7063 0.000115159 0)
(42.7064 0.00011516 0)
(42.7065 0.000115161 0)
(42.7066 0.000115157 0)
(42.7066 0.000115145 0)
(42.7067 0.000115051 0)
(42.7068 0.000115144 0)
(42.7069 0.000115061 0)
(42.707 0.000114997 0)
(42.707 0.000114923 0)
(42.7071 0.000114824 0)
(42.7072 0.000114692 0)
(42.7073 0.000114498 0)
(42.7074 0.000114311 0)
(42.7074 0.000114154 0)
(42.7075 0.000113634 0)
(42.7076 0.000113285 0)
(42.7077 0.000112792 0)
(42.7078 0.000112181 0)
(42.7079 0.000111452 0)
(42.7079 0.000110589 0)
(42.708 0.000109575 0)
(42.7081 0.000108397 0)
(42.7082 0.00010704 0)
(42.7082 0.000105491 0)
(42.7083 0.000103739 0)
(42.7084 0.000101775 0)
(42.7085 9.95917e-05 0)
(42.7085 9.71868e-05 0)
(42.7086 9.45604e-05 0)
(42.7087 9.17162e-05 0)
(42.7087 8.86622e-05 0)
(42.7088 8.54102e-05 0)
(42.7089 8.19757e-05 0)
(42.7089 7.83781e-05 0)
(42.709 7.464e-05 0)
(42.709 7.07871e-05 0)
(42.7091 6.68471e-05 0)
(42.7091 6.28495e-05 0)
(42.7092 5.88251e-05 0)
(42.7092 5.48046e-05 0)
(42.7092 5.08186e-05 0)
(42.7093 4.68966e-05 0)
(42.7093 4.30671e-05 0)
(42.7093 3.93539e-05 0)
(42.7093 3.57777e-05 0)
(42.7094 3.23658e-05 0)
(42.7094 2.91282e-05 0)
(42.7094 2.6079e-05 0)
(42.7094 2.32278e-05 0)
(42.7094 2.05803e-05 0)
(42.7095 1.8139e-05 0)
(42.7095 1.59033e-05 0)
(42.7095 1.38699e-05 0)
(42.7095 1.2033e-05 0)
(42.7095 1.03845e-05 0)
(42.7095 8.91497e-06 0)
(42.7095 7.61427e-06 0)
(42.7095 6.46962e-06 0)
(42.7095 5.46946e-06 0)
(42.7095 4.60054e-06 0)
(42.7095 3.851e-06 0)
(42.7095 3.20838e-06 0)
(42.7095 2.66088e-06 0)
(42.7095 2.19734e-06 0)
(42.7095 1.80732e-06 0)
(42.7095 1.48117e-06 0)
(42.7095 1.21009e-06 0)
(42.7095 9.86161e-07 0)
(42.7095 8.02289e-07 0)
(42.7095 6.52206e-07 0)
(42.7095 5.30436e-07 0)
(42.7095 4.32222e-07 0)
(42.7095 3.53464e-07 0)
(42.7095 2.90679e-07 0)
(42.7096 2.40917e-07 0)
(42.7096 2.017e-07 0)
(42.7096 1.70953e-07 0)
(42.7096 1.4702e-07 0)
(42.7096 1.28466e-07 0)
(42.7096 1.14169e-07 0)
(42.7096 1.03213e-07 0)
(42.7096 9.48734e-08 0)
(42.7096 8.85496e-08 0)
(42.7096 8.37858e-08 0)
(42.7096 8.021e-08 0)
(42.7096 7.7548e-08 0)
(42.7096 7.55752e-08 0)
(42.7096 7.41208e-08 0)
(42.7096 7.30533e-08 0)
(42.7096 7.22771e-08 0)
(42.7096 7.17164e-08 0)
(42.7096 7.13143e-08 0)
(42.7096 7.10223e-08 0)
(42.7096 7.08191e-08 0)
(42.7096 7.06793e-08 0)
(42.7096 7.05771e-08 0)
(42.7096 7.05139e-08 0)
(42.7096 7.04704e-08 0)
(42.7096 7.04435e-08 0)
(42.7096 7.04285e-08 0)
(42.7096 7.04207e-08 0)
(42.7096 7.04183e-08 0)
(42.7096 7.04261e-08 0)
(42.7096 7.04242e-08 0)
(42.7096 7.04318e-08 0)
(42.7096 7.04473e-08 0)
(42.7096 7.04588e-08 0)
(42.7096 7.04691e-08 0)
(42.7096 7.04767e-08 0)
(42.7096 7.04868e-08 0)
(42.7096 7.04997e-08 0)
(42.7096 7.0514e-08 0)
(42.7096 7.05226e-08 0)
(42.7096 7.05346e-08 0)
(42.7096 7.05464e-08 0)
(42.7096 7.05612e-08 0)
(42.7096 7.05749e-08 0)
(42.7096 7.05855e-08 0)
(42.7096 7.05975e-08 0)
(42.7096 7.0613e-08 0)
(42.7096 7.06226e-08 0)
(42.7096 7.06391e-08 0)
(42.7096 7.06541e-08 0)
(42.7095 7.06725e-08 0)
(42.7095 7.06875e-08 0)
(42.7095 7.07093e-08 0)
(42.7095 7.07301e-08 0)
(42.7095 7.07448e-08 0)
(42.7095 7.07376e-08 0)
(42.7095 7.0786e-08 0)
(42.7095 7.0636e-08 0)
(42.7095 7.12352e-08 0)
(42.7095 7.06051e-08 0)
(42.7095 7.08067e-08 0)
(42.7095 7.08381e-08 0)
(42.7095 7.08438e-08 0)
(42.7095 7.08504e-08 0)
(42.7095 7.08727e-08 0)
(42.7094 7.0839e-08 0)
(42.7094 7.08696e-08 0)
(42.7094 7.08792e-08 0)
(42.7094 7.08891e-08 0)
(42.7094 7.08971e-08 0)
(42.7094 7.09043e-08 0)
(42.7094 7.09117e-08 0)
(42.7094 7.09246e-08 0)
(42.7094 7.09441e-08 0)
(42.7094 7.09485e-08 0)
(42.7094 7.09671e-08 0)
(42.7093 7.09851e-08 0)
(42.7093 7.09896e-08 0)
(42.7093 7.09936e-08 0)
(42.7093 7.1e-08 0)
(42.7093 7.10044e-08 0)
(42.7093 7.0999e-08 0)
(42.7093 7.08764e-08 0)
(42.7093 7.11728e-08 0)
(42.7093 7.10489e-08 0)
(42.7093 7.10321e-08 0)
(42.7093 7.10342e-08 0)
(42.7093 7.10312e-08 0)
(42.7092 7.10275e-08 0)
(42.7092 7.10344e-08 0)
(42.7092 7.11005e-08 0)
(42.7092 7.09513e-08 0)
(42.7092 7.10466e-08 0)
(42.7092 7.09965e-08 0)
(42.7092 7.10111e-08 0)
(42.7092 7.10174e-08 0)
(42.7092 7.10167e-08 0)
(42.7092 7.1014e-08 0)
(42.7092 7.10099e-08 0)
(42.7092 7.10254e-08 0)
(42.7092 7.09825e-08 0)
(42.7092 7.10095e-08 0)
(42.7092 7.09774e-08 0)
(42.7092 7.09919e-08 0)
(42.7091 7.09907e-08 0)
(42.7091 7.09926e-08 0)
(42.7091 7.0994e-08 0)
(42.7091 7.09936e-08 0)
(42.7091 7.09914e-08 0)
(42.7091 7.09924e-08 0)
(42.7091 7.09898e-08 0)
(42.7091 7.09998e-08 0)
(42.7091 7.10903e-08 0)
(42.7091 7.0818e-08 0)
(42.7091 7.10416e-08 0)
(42.7091 7.09928e-08 0)
(42.7091 7.09967e-08 0)
(42.7091 7.09951e-08 0)
(42.7091 7.09974e-08 0)
(42.7091 7.10018e-08 0)
(42.7091 7.10073e-08 0)
(42.7091 7.10093e-08 0)
(42.7091 7.1011e-08 0)
(42.7091 7.1024e-08 0)
(42.7091 7.10459e-08 0)
(42.7091 7.11145e-08 0)
(42.7092 7.09636e-08 0)
(42.7092 7.10404e-08 0)
(42.7092 7.10653e-08 0)
(42.7092 7.10775e-08 0)
(42.7092 7.10935e-08 0)
(42.7092 7.11158e-08 0)
(42.7092 7.11402e-08 0)
(42.7092 7.10935e-08 0)
(42.7092 7.10981e-08 0)
(42.7092 7.11233e-08 0)
(42.7092 7.11404e-08 0)
(42.7092 7.11345e-08 0)
(42.7092 7.11175e-08 0)
(42.7092 7.11254e-08 0)
(42.7092 7.1302e-08 0)
(42.7092 7.13356e-08 0)
(42.7092 7.13119e-08 0)
(42.7093 7.13058e-08 0)
(42.7093 7.13246e-08 0)
(42.7093 7.13772e-08 0)
(42.7093 7.15386e-08 0)
(42.7093 7.11464e-08 0)
(42.7093 7.12671e-08 0)
(42.7093 7.13671e-08 0)
(42.7093 7.13981e-08 0)
(42.7093 7.14225e-08 0)
(42.7093 7.14499e-08 0)
(42.7093 7.14731e-08 0)
(42.7093 7.14944e-08 0)
(42.7094 7.15241e-08 0)
(42.7094 7.15512e-08 0)
(42.7094 7.15773e-08 0)
(42.7094 7.16055e-08 0)
(42.7094 7.16304e-08 0)
(42.7094 7.16554e-08 0)
(42.7094 7.16852e-08 0)
(42.7094 7.17057e-08 0)
(42.7094 7.17279e-08 0)
(42.7094 7.17533e-08 0)
(42.7095 7.17759e-08 0)
(42.7095 7.17935e-08 0)
(42.7095 7.18137e-08 0)
(42.7095 7.18298e-08 0)
(42.7095 7.18492e-08 0)
(42.7095 7.18736e-08 0)
(42.7095 7.18883e-08 0)
(42.7095 7.19093e-08 0)
(42.7095 7.19256e-08 0)
(42.7096 7.19451e-08 0)
(42.7096 7.19669e-08 0)
(42.7096 7.19824e-08 0)
(42.7096 7.19996e-08 0)
(42.7096 7.20134e-08 0)
(42.7096 7.20346e-08 0)
(42.7096 7.20508e-08 0)
(42.7097 7.20718e-08 0)
(42.7097 7.20877e-08 0)
(42.7097 7.21019e-08 0)
(42.7097 7.21235e-08 0)
(42.7097 7.21349e-08 0)
(42.7097 7.21535e-08 0)
(42.7098 7.21657e-08 0)
(42.7098 7.21753e-08 0)
(42.7098 7.21929e-08 0)
(42.7098 7.21997e-08 0)
(42.7098 7.22212e-08 0)
(42.7099 7.22285e-08 0)
(42.7099 7.22421e-08 0)
(42.7099 7.22438e-08 0)
(42.7099 7.22567e-08 0)
(42.71 7.22627e-08 0)
(42.71 7.22635e-08 0)
(42.71 7.22852e-08 0)
(42.71 7.22748e-08 0)
(42.7101 7.22928e-08 0)
(42.7101 7.22918e-08 0)
(42.7101 7.22872e-08 0)
(42.7101 7.23094e-08 0)
(42.7102 7.23009e-08 0)
(42.7102 7.23032e-08 0)
(42.7102 7.2315e-08 0)
(42.7103 7.23076e-08 0)
(42.7103 7.2313e-08 0)
(42.7103 7.23232e-08 0)
(42.7104 7.23125e-08 0)
(42.7104 7.23135e-08 0)
(42.7104 7.23304e-08 0)
(42.7105 7.23208e-08 0)
(42.7105 7.23202e-08 0)
(42.7106 7.23406e-08 0)
(42.7106 7.23626e-08 0)
(42.7106 7.24186e-08 0)
(42.7107 7.25676e-08 0)
(42.7107 7.2679e-08 0)
(42.7108 6.96779e-08 0)
(42.7108 7.71253e-08 0)
(42.7109 7.66883e-08 0)
(42.7109 7.23879e-08 0)
(42.711 8.42014e-08 0)
(42.711 9.70834e-08 0)
(42.7111 1.31631e-07 0)
(42.7111 2.10329e-07 0)
(42.7112 4.08155e-07 0)
(42.7112 8.71681e-07 0)
(42.7113 1.98446e-06 0)
(42.7113 4.64942e-06 0)
(42.7113 1.10144e-05 0)
(42.7113 2.62417e-05 0)
(42.7112 6.26378e-05 0)
(42.7109 0.000149603 0)
(42.71 0.000357291 0)
(42.7079 0.00085289 0)
(42.7028 0.00203449 0)
(42.6904 0.00484618 0)
(42.661 0.0115189 0)
(42.5912 0.0273126 0)
(42.4262 0.0646401 0)
(42.0363 0.153754 0)
(41.1713 0.380996 0)
(38.0043 0.962593 0)
(42.7 9.72847e-05 0)
(42.7001 9.88147e-05 0)
(42.7002 9.45381e-05 0)
(42.7003 9.88205e-05 0)
(42.7004 0.000102585 0)
(42.7005 0.000104513 0)
(42.7005 0.000105836 0)
(42.7006 0.00010699 0)
(42.7007 0.000107981 0)
(42.7008 0.000108819 0)
(42.7008 0.000109534 0)
(42.7009 0.000110151 0)
(42.701 0.000110687 0)
(42.7011 0.000111155 0)
(42.7012 0.000111564 0)
(42.7012 0.000111923 0)
(42.7013 0.000112233 0)
(42.7014 0.00011252 0)
(42.7015 0.000112764 0)
(42.7015 0.000112981 0)
(42.7016 0.000113174 0)
(42.7017 0.000113343 0)
(42.7018 0.000113504 0)
(42.7018 0.000113624 0)
(42.7019 0.000113748 0)
(42.702 0.000113856 0)
(42.7021 0.000113951 0)