/*--------------------------------*- C++ -*----------------------------------*\
| =========                 |                                                 |
| \\      /  F ield         | OpenFOAM: The Open Source CFD Toolbox           |
|  \\    /   O peration     | Version:  3.0.x                                 |
|   \\  /    A nd           | Web:      www.OpenFOAM.org                      |
|    \\/     M anipulation  |                                                 |
\*---------------------------------------------------------------------------*/
FoamFile
{
    version     2.0;
    format      ascii;
    class       volScalarField;
    location    "0.57";
    object      T;
}
// * * * * * * * * * * * * * * * * * * * * * * * * * * * * * * * * * * * * * //

dimensions      [0 0 0 1 0 0 0];

internalField   nonuniform List<scalar> 
13800
(
782.888
782.841
782.787
782.737
782.7
782.673
782.651
782.641
782.641
782.644
782.653
782.67
782.693
782.722
782.755
782.792
782.832
782.876
782.922
782.97
783.02
783.071
783.124
783.179
783.234
783.291
783.349
783.408
783.469
783.53
783.592
783.655
783.719
783.784
783.85
783.917
783.984
784.052
784.121
784.191
784.26
784.331
784.402
784.473
784.545
784.617
784.69
784.763
784.836
784.909
784.983
785.056
785.13
785.204
785.278
785.351
785.425
785.499
785.573
785.646
785.719
785.793
785.866
785.938
786.011
786.083
786.155
786.227
786.298
786.369
786.44
786.51
786.58
786.649
786.718
786.787
786.855
786.923
786.99
787.056
787.123
787.189
787.254
787.319
787.384
787.448
787.512
787.575
787.637
787.698
787.758
787.817
787.875
787.933
787.99
788.047
788.104
788.16
788.216
788.272
788.327
788.382
788.437
788.491
788.545
788.598
788.649
788.7
788.75
788.8
788.849
788.897
788.946
788.993
789.04
789.087
789.132
789.177
789.221
789.264
789.307
789.349
789.391
789.432
789.473
789.514
789.555
789.595
789.635
789.675
789.715
789.754
789.793
789.831
789.868
789.904
789.939
789.974
790.007
790.04
790.073
790.105
790.137
790.169
790.2
790.231
790.262
790.292
790.322
790.351
790.38
790.409
790.437
790.465
790.492
790.518
790.545
790.57
790.596
790.621
790.645
790.669
790.693
790.716
790.738
790.761
790.782
790.804
790.825
790.845
790.865
790.885
790.904
790.924
790.94
790.961
790.975
790.997
791.008
791.031
791.039
791.063
791.069
791.094
791.097
791.124
791.124
791.151
791.15
791.177
791.175
791.2
791.198
791.223
791.22
791.241
791.247
791.246
791.283
791.275
782.859
782.812
782.757
782.708
782.67
782.644
782.621
782.612
782.612
782.615
782.624
782.641
782.665
782.693
782.726
782.763
782.804
782.847
782.893
782.941
782.991
783.043
783.096
783.151
783.206
783.263
783.321
783.381
783.441
783.502
783.565
783.628
783.692
783.757
783.823
783.89
783.957
784.025
784.094
784.164
784.234
784.304
784.375
784.447
784.519
784.591
784.664
784.736
784.81
784.883
784.956
785.03
785.104
785.178
785.252
785.326
785.4
785.473
785.547
785.621
785.694
785.767
785.84
785.913
785.986
786.058
786.13
786.202
786.274
786.345
786.415
786.486
786.555
786.625
786.694
786.763
786.831
786.899
786.966
787.032
787.099
787.165
787.23
787.296
787.36
787.425
787.489
787.552
787.614
787.675
787.735
787.794
787.853
787.911
787.968
788.025
788.082
788.138
788.194
788.25
788.305
788.36
788.415
788.469
788.523
788.576
788.628
788.679
788.729
788.779
788.828
788.876
788.925
788.973
789.02
789.066
789.112
789.157
789.201
789.244
789.287
789.33
789.372
789.413
789.454
789.495
789.535
789.576
789.616
789.656
789.695
789.734
789.773
789.811
789.849
789.885
789.921
789.955
789.989
790.022
790.055
790.087
790.119
790.151
790.182
790.213
790.244
790.274
790.304
790.334
790.363
790.391
790.42
790.447
790.475
790.501
790.528
790.554
790.579
790.604
790.628
790.652
790.676
790.699
790.722
790.744
790.766
790.787
790.808
790.829
790.848
790.869
790.887
790.907
790.923
790.944
790.958
790.98
790.991
791.014
791.022
791.046
791.052
791.078
791.08
791.107
791.107
791.134
791.134
791.159
791.158
791.183
791.182
791.206
791.204
791.227
791.225
791.246
791.247
791.27
782.859
782.812
782.757
782.708
782.67
782.644
782.621
782.612
782.612
782.615
782.624
782.641
782.665
782.693
782.726
782.763
782.804
782.847
782.893
782.941
782.991
783.043
783.096
783.151
783.206
783.263
783.321
783.381
783.441
783.502
783.565
783.628
783.692
783.757
783.823
783.89
783.957
784.025
784.094
784.164
784.234
784.304
784.375
784.447
784.519
784.591
784.663
784.736
784.809
784.883
784.956
785.03
785.104
785.178
785.252
785.326
785.4
785.473
785.547
785.621
785.694
785.767
785.84
785.913
785.986
786.058
786.13
786.202
786.273
786.345
786.415
786.486
786.555
786.625
786.694
786.763
786.831
786.899
786.966
787.032
787.099
787.165
787.23
787.295
787.36
787.425
787.488
787.552
787.614
787.675
787.735
787.794
787.852
787.911
787.968
788.025
788.082
788.138
788.194
788.25
788.305
788.36
788.415
788.469
788.523
788.576
788.628
788.679
788.729
788.779
788.828
788.876
788.925
788.972
789.02
789.066
789.112
789.157
789.201
789.244
789.287
789.329
789.371
789.413
789.454
789.495
789.535
789.576
789.616
789.655
789.695
789.734
789.773
789.811
789.849
789.885
789.921
789.955
789.989
790.022
790.055
790.087
790.119
790.151
790.182
790.213
790.244
790.274
790.304
790.334
790.363
790.391
790.42
790.447
790.475
790.501
790.528
790.553
790.579
790.604
790.628
790.652
790.676
790.699
790.722
790.744
790.766
790.787
790.808
790.829
790.848
790.869
790.887
790.907
790.923
790.944
790.958
790.98
790.991
791.014
791.022
791.046
791.052
791.078
791.08
791.107
791.107
791.134
791.134
791.159
791.158
791.183
791.182
791.206
791.204
791.227
791.224
791.246
791.245
791.264
782.859
782.812
782.757
782.708
782.671
782.644
782.622
782.612
782.612
782.616
782.624
782.642
782.665
782.693
782.726
782.763
782.804
782.847
782.893
782.942
782.992
783.043
783.096
783.151
783.206
783.263
783.322
783.381
783.441
783.502
783.565
783.628
783.692
783.757
783.823
783.89
783.957
784.026
784.094
784.164
784.234
784.304
784.375
784.447
784.519
784.591
784.664
784.737
784.81
784.883
784.957
785.03
785.104
785.178
785.252
785.326
785.4
785.473
785.547
785.621
785.694
785.768
785.841
785.913
785.986
786.058
786.13
786.202
786.274
786.345
786.415
786.486
786.556
786.625
786.694
786.763
786.831
786.899
786.966
787.032
787.099
787.165
787.23
787.296
787.36
787.425
787.489
787.552
787.614
787.675
787.735
787.794
787.853
787.911
787.968
788.025
788.082
788.138
788.194
788.25
788.305
788.36
788.415
788.469
788.523
788.576
788.628
788.679
788.729
788.779
788.828
788.876
788.925
788.972
789.02
789.066
789.112
789.157
789.201
789.244
789.287
789.33
789.372
789.413
789.454
789.495
789.535
789.576
789.616
789.656
789.695
789.734
789.773
789.811
789.849
789.885
789.921
789.955
789.989
790.022
790.055
790.087
790.119
790.151
790.182
790.213
790.244
790.274
790.304
790.334
790.363
790.391
790.42
790.447
790.475
790.501
790.528
790.554
790.579
790.604
790.628
790.652
790.676
790.699
790.722
790.744
790.766
790.787
790.808
790.829
790.848
790.869
790.887
790.907
790.923
790.944
790.958
790.98
790.991
791.014
791.022
791.046
791.052
791.078
791.08
791.107
791.107
791.134
791.134
791.159
791.158
791.183
791.182
791.206
791.204
791.227
791.224
791.246
791.245
791.26
782.859
782.812
782.758
782.708
782.671
782.644
782.622
782.613
782.613
782.616
782.624
782.642
782.665
782.693
782.726
782.763
782.804
782.848
782.894
782.942
782.992
783.043
783.096
783.151
783.207
783.264
783.322
783.381
783.441
783.503
783.565
783.628
783.692
783.757
783.823
783.89
783.958
784.026
784.095
784.164
784.234
784.305
784.376
784.447
784.519
784.591
784.664
784.737
784.81
784.883
784.957
785.03
785.104
785.178
785.252
785.326
785.4
785.474
785.547
785.621
785.694
785.768
785.841
785.914
785.986
786.059
786.131
786.202
786.274
786.345
786.416
786.486
786.556
786.625
786.694
786.763
786.831
786.899
786.966
787.033
787.099
787.165
787.231
787.296
787.361
787.425
787.489
787.552
787.614
787.675
787.735
787.794
787.853
787.911
787.968
788.025
788.082
788.138
788.194
788.25
788.305
788.36
788.415
788.469
788.523
788.576
788.628
788.679
788.729
788.779
788.828
788.876
788.925
788.973
789.02
789.066
789.112
789.157
789.201
789.244
789.287
789.33
789.372
789.413
789.454
789.495
789.535
789.576
789.616
789.656
789.695
789.734
789.773
789.811
789.849
789.885
789.921
789.955
789.989
790.022
790.055
790.087
790.119
790.151
790.182
790.213
790.244
790.274
790.304
790.334
790.363
790.391
790.42
790.447
790.475
790.501
790.528
790.554
790.579
790.604
790.628
790.652
790.676
790.699
790.722
790.744
790.766
790.787
790.808
790.829
790.848
790.869
790.887
790.907
790.923
790.944
790.958
790.98
790.991
791.014
791.022
791.047
791.052
791.078
791.08
791.107
791.107
791.134
791.134
791.159
791.158
791.183
791.182
791.206
791.204
791.227
791.225
791.246
791.244
791.266
782.859
782.812
782.758
782.708
782.671
782.644
782.622
782.613
782.613
782.616
782.624
782.642
782.665
782.693
782.726
782.763
782.804
782.848
782.894
782.942
782.992
783.043
783.096
783.151
783.207
783.264
783.322
783.381
783.441
783.503
783.565
783.628
783.692
783.757
783.823
783.89
783.958
784.026
784.095
784.164
784.234
784.305
784.376
784.447
784.519
784.591
784.664
784.737
784.81
784.883
784.957
785.03
785.104
785.178
785.252
785.326
785.4
785.474
785.547
785.621
785.694
785.768
785.841
785.914
785.986
786.059
786.131
786.202
786.274
786.345
786.416
786.486
786.556
786.625
786.694
786.763
786.831
786.899
786.966
787.033
787.099
787.165
787.231
787.296
787.361
787.425
787.489
787.552
787.614
787.675
787.735
787.794
787.853
787.911
787.968
788.025
788.082
788.138
788.194
788.25
788.305
788.36
788.415
788.469
788.523
788.576
788.628
788.679
788.729
788.779
788.828
788.876
788.925
788.973
789.02
789.066
789.112
789.157
789.201
789.244
789.287
789.33
789.372
789.413
789.454
789.495
789.535
789.576
789.616
789.656
789.695
789.734
789.773
789.811
789.849
789.885
789.921
789.955
789.989
790.022
790.055
790.087
790.119
790.151
790.182
790.213
790.244
790.274
790.304
790.334
790.363
790.391
790.42
790.447
790.475
790.501
790.528
790.554
790.579
790.604
790.628
790.652
790.676
790.699
790.722
790.744
790.766
790.787
790.808
790.828
790.849
790.868
790.887
790.906
790.924
790.943
790.959
790.979
790.993
791.011
791.026
791.04
791.061
791.066
791.093
791.094
791.119
791.122
791.144
791.15
791.163
791.182
791.181
791.206
791.205
791.221
791.228
791.245
791.246
791.255
782.859
782.812
782.757
782.708
782.671
782.644
782.622
782.612
782.612
782.616
782.624
782.642
782.665
782.693
782.726
782.763
782.804
782.847
782.893
782.942
782.992
783.043
783.096
783.151
783.206
783.263
783.322
783.381
783.441
783.502
783.565
783.628
783.692
783.757
783.823
783.89
783.957
784.026
784.094
784.164
784.234
784.304
784.375
784.447
784.519
784.591
784.664
784.737
784.81
784.883
784.957
785.03
785.104
785.178
785.252
785.326
785.4
785.473
785.547
785.621
785.694
785.768
785.841
785.913
785.986
786.058
786.13
786.202
786.274
786.345
786.415
786.486
786.556
786.625
786.694
786.763
786.831
786.899
786.966
787.032
787.099
787.165
787.23
787.296
787.36
787.425
787.489
787.552
787.614
787.675
787.735
787.794
787.853
787.911
787.968
788.025
788.082
788.138
788.194
788.25
788.305
788.36
788.415
788.469
788.523
788.576
788.628
788.679
788.729
788.779
788.828
788.876
788.925
788.972
789.02
789.066
789.112
789.157
789.201
789.244
789.287
789.33
789.372
789.413
789.454
789.495
789.535
789.576
789.616
789.656
789.695
789.734
789.773
789.811
789.849
789.885
789.921
789.955
789.989
790.022
790.055
790.087
790.119
790.151
790.182
790.213
790.244
790.274
790.304
790.334
790.363
790.391
790.42
790.447
790.475
790.501
790.528
790.554
790.579
790.604
790.628
790.652
790.676
790.699
790.722
790.744
790.766
790.787
790.808
790.828
790.849
790.868
790.888
790.905
790.926
790.94
790.963
790.974
790.998
791.006
791.031
791.037
791.062
791.066
791.092
791.094
791.12
791.121
791.147
791.146
791.172
791.171
791.194
791.193
791.217
791.214
791.237
791.235
791.251
791.255
782.859
782.812
782.757
782.708
782.67
782.644
782.621
782.612
782.612
782.615
782.624
782.641
782.665
782.693
782.726
782.763
782.804
782.847
782.893
782.941
782.991
783.043
783.096
783.151
783.206
783.263
783.321
783.381
783.441
783.502
783.565
783.628
783.692
783.757
783.823
783.89
783.957
784.025
784.094
784.164
784.234
784.304
784.375
784.447
784.519
784.591
784.663
784.736
784.809
784.883
784.956
785.03
785.104
785.178
785.252
785.326
785.4
785.473
785.547
785.621
785.694
785.767
785.84
785.913
785.986
786.058
786.13
786.202
786.273
786.345
786.415
786.486
786.555
786.625
786.694
786.763
786.831
786.899
786.966
787.032
787.099
787.165
787.23
787.295
787.36
787.425
787.488
787.552
787.614
787.675
787.735
787.794
787.852
787.911
787.968
788.025
788.082
788.138
788.194
788.25
788.305
788.36
788.415
788.469
788.523
788.576
788.628
788.679
788.729
788.779
788.828
788.876
788.925
788.972
789.02
789.066
789.112
789.157
789.201
789.244
789.287
789.329
789.371
789.413
789.454
789.495
789.535
789.576
789.616
789.655
789.695
789.734
789.773
789.811
789.849
789.885
789.921
789.955
789.989
790.022
790.055
790.087
790.119
790.151
790.182
790.213
790.244
790.274
790.304
790.334
790.363
790.391
790.42
790.447
790.475
790.501
790.528
790.554
790.579
790.604
790.628
790.652
790.676
790.699
790.722
790.744
790.766
790.787
790.808
790.828
790.849
790.868
790.888
790.905
790.926
790.94
790.963
790.974
790.998
791.006
791.031
791.037
791.063
791.066
791.093
791.094
791.12
791.121
791.147
791.146
791.172
791.17
791.195
791.193
791.216
791.214
791.238
791.234
791.261
791.259
782.859
782.812
782.757
782.708
782.67
782.644
782.621
782.612
782.612
782.615
782.624
782.641
782.665
782.693
782.726
782.763
782.804
782.847
782.893
782.941
782.991
783.043
783.096
783.151
783.206
783.263
783.321
783.381
783.441
783.502
783.565
783.628
783.692
783.757
783.823
783.89
783.957
784.025
784.094
784.164
784.234
784.304
784.375
784.447
784.519
784.591
784.664
784.736
784.81
784.883
784.956
785.03
785.104
785.178
785.252
785.326
785.4
785.473
785.547
785.621
785.694
785.767
785.84
785.913
785.986
786.058
786.13
786.202
786.274
786.345
786.415
786.486
786.555
786.625
786.694
786.763
786.831
786.899
786.966
787.032
787.099
787.165
787.23
787.296
787.36
787.425
787.489
787.552
787.614
787.675
787.735
787.794
787.853
787.911
787.968
788.025
788.082
788.138
788.194
788.25
788.305
788.36
788.415
788.469
788.523
788.576
788.628
788.679
788.729
788.779
788.828
788.876
788.925
788.973
789.02
789.066
789.112
789.157
789.201
789.244
789.287
789.33
789.372
789.413
789.454
789.495
789.535
789.576
789.616
789.656
789.695
789.734
789.773
789.811
789.849
789.885
789.921
789.955
789.989
790.022
790.055
790.087
790.119
790.151
790.182
790.213
790.244
790.274
790.304
790.334
790.363
790.391
790.42
790.447
790.475
790.501
790.528
790.554
790.579
790.604
790.628
790.652
790.676
790.699
790.722
790.744
790.766
790.787
790.808
790.828
790.849
790.868
790.888
790.905
790.926
790.94
790.963
790.974
790.998
791.006
791.031
791.037
791.063
791.066
791.093
791.094
791.121
791.121
791.147
791.146
791.171
791.17
791.195
791.193
791.217
791.214
791.238
791.234
791.262
791.267
782.888
782.841
782.787
782.737
782.7
782.673
782.651
782.641
782.641
782.644
782.653
782.67
782.693
782.722
782.755
782.792
782.832
782.876
782.922
782.97
783.02
783.071
783.124
783.179
783.234
783.291
783.349
783.408
783.469
783.53
783.592
783.655
783.719
783.784
783.85
783.917
783.984
784.052
784.121
784.191
784.26
784.331
784.402
784.473
784.545
784.617
784.69
784.763
784.836
784.909
784.983
785.056
785.13
785.204
785.278
785.351
785.425
785.499
785.573
785.646
785.719
785.793
785.866
785.938
786.011
786.083
786.155
786.227
786.298
786.369
786.44
786.51
786.58
786.649
786.718
786.787
786.855
786.923
786.99
787.056
787.123
787.189
787.254
787.319
787.384
787.448
787.512
787.575
787.637
787.698
787.758
787.817
787.875
787.933
787.99
788.047
788.104
788.16
788.216
788.272
788.327
788.382
788.437
788.491
788.545
788.598
788.649
788.7
788.75
788.8
788.849
788.897
788.946
788.993
789.04
789.087
789.132
789.177
789.221
789.264
789.307
789.349
789.391
789.432
789.473
789.514
789.555
789.595
789.635
789.675
789.715
789.754
789.793
789.831
789.868
789.904
789.939
789.974
790.007
790.04
790.073
790.105
790.137
790.169
790.2
790.231
790.262
790.292
790.322
790.351
790.38
790.409
790.437
790.465
790.492
790.518
790.545
790.57
790.596
790.621
790.645
790.669
790.693
790.716
790.738
790.761
790.783
790.804
790.825
790.845
790.866
790.884
790.905
790.922
790.943
790.957
790.98
790.99
791.015
791.023
791.048
791.053
791.08
791.082
791.11
791.11
791.138
791.137
791.164
791.162
791.189
791.186
791.212
791.209
791.234
791.23
791.255
791.25
791.285
791.282
791.274
791.276
791.28
791.285
791.295
791.312
791.332
791.351
791.366
791.374
791.379
791.382
791.383
791.385
791.387
791.389
791.391
791.394
791.397
791.398
791.276
791.28
791.284
791.288
791.293
791.299
791.307
791.316
791.326
791.335
791.343
791.351
791.358
791.364
791.368
791.369
791.371
791.372
791.373
791.373
791.281
791.286
791.288
791.292
791.296
791.299
791.305
791.309
791.318
791.324
791.335
791.342
791.351
791.356
791.363
791.365
791.368
791.37
791.369
791.371
791.272
791.274
791.277
791.279
791.284
791.286
791.292
791.295
791.301
791.304
791.31
791.315
791.323
791.33
791.342
791.35
791.361
791.367
791.372
791.377
791.273
791.274
791.276
791.276
791.278
791.279
791.28
791.282
791.283
791.284
791.286
791.288
791.289
791.29
791.292
791.294
791.296
791.298
791.3
791.302
791.267
791.268
791.272
791.273
791.275
791.277
791.281
791.283
791.287
791.29
791.295
791.298
791.303
791.306
791.312
791.318
791.327
791.337
791.345
791.353
791.262
791.263
791.266
791.266
791.268
791.268
791.269
791.269
791.27
791.27
791.271
791.272
791.272
791.273
791.273
791.272
791.27
791.268
791.266
791.263
791.26
791.263
791.265
791.267
791.269
791.27
791.272
791.274
791.275
791.276
791.278
791.279
791.28
791.279
791.277
791.273
791.268
791.262
791.255
791.248
791.268
791.269
791.269
791.27
791.27
791.27
791.27
791.269
791.268
791.267
791.266
791.264
791.259
791.254
791.249
791.243
791.237
791.231
791.226
791.221
791.282
791.282
791.282
791.281
791.28
791.278
791.276
791.273
791.269
791.266
791.262
791.257
791.252
791.247
791.242
791.237
791.232
791.226
791.222
791.221
791.4
791.418
791.421
791.411
791.403
791.405
791.414
791.42
791.42
791.417
791.415
791.416
791.42
791.428
791.435
791.44
791.442
791.443
791.444
791.446
791.449
791.453
791.456
791.458
791.461
791.463
791.466
791.468
791.471
791.473
791.476
791.478
791.48
791.483
791.485
791.487
791.489
791.49
791.492
791.494
791.496
791.497
791.499
791.5
791.501
791.502
791.503
791.504
791.506
791.507
791.508
791.509
791.51
791.511
791.511
791.511
791.511
791.512
791.512
791.512
791.512
791.512
791.512
791.512
791.512
791.512
791.512
791.512
791.512
791.512
791.512
791.512
791.512
791.512
791.512
791.512
791.512
791.511
791.511
791.51
791.509
791.508
791.507
791.507
791.507
791.506
791.506
791.506
791.505
791.504
791.503
791.503
791.502
791.501
791.5
791.5
791.499
791.499
791.499
791.498
791.497
791.496
791.495
791.494
791.494
791.493
791.493
791.493
791.493
791.493
791.493
791.493
791.492
791.492
791.492
791.491
791.491
791.49
791.49
791.49
791.489
791.489
791.489
791.488
791.487
791.487
791.487
791.487
791.488
791.488
791.488
791.488
791.488
791.488
791.489
791.489
791.489
791.489
791.489
791.489
791.49
791.49
791.49
791.49
791.49
791.489
791.487
791.486
791.485
791.485
791.485
791.485
791.484
791.48
791.474
791.466
791.457
791.447
791.44
791.438
791.445
791.452
791.436
791.407
791.368
791.342
791.35
791.463
791.808
792.248
792.699
793.139
793.544
793.901
794.2
794.43
794.564
794.601
794.604
794.58
794.463
794.07
793.507
792.983
792.532
792.177
791.924
791.743
791.617
791.518
791.454
791.41
791.401
791.398
791.41
791.41
791.421
791.419
791.43
791.43
791.371
791.373
791.384
791.383
791.377
791.374
791.378
791.384
791.386
791.383
791.379
791.376
791.376
791.38
791.386
791.392
791.395
791.397
791.398
791.398
791.399
791.402
791.404
791.407
791.409
791.412
791.414
791.416
791.418
791.421
791.423
791.425
791.427
791.429
791.431
791.433
791.435
791.437
791.439
791.44
791.442
791.444
791.445
791.446
791.447
791.448
791.449
791.45
791.451
791.452
791.453
791.455
791.455
791.456
791.457
791.457
791.458
791.458
791.458
791.458
791.458
791.457
791.457
791.457
791.457
791.458
791.458
791.458
791.457
791.457
791.457
791.457
791.456
791.456
791.456
791.456
791.456
791.456
791.456
791.455
791.455
791.454
791.453
791.452
791.451
791.45
791.45
791.449
791.449
791.449
791.448
791.448
791.447
791.446
791.445
791.445
791.444
791.443
791.443
791.442
791.442
791.441
791.441
791.44
791.439
791.438
791.437
791.436
791.436
791.436
791.436
791.436
791.436
791.436
791.436
791.436
791.435
791.435
791.434
791.434
791.433
791.433
791.433
791.433
791.433
791.432
791.432
791.431
791.431
791.431
791.431
791.432
791.432
791.432
791.433
791.433
791.434
791.434
791.434
791.434
791.434
791.435
791.435
791.436
791.436
791.437
791.436
791.436
791.436
791.435
791.435
791.435
791.434
791.432
791.431
791.428
791.423
791.418
791.416
791.417
791.42
791.422
791.423
791.416
791.396
791.357
791.317
791.288
791.26
791.225
791.179
791.132
791.096
791.085
791.101
791.167
791.274
791.387
791.504
791.62
791.718
791.81
791.857
791.865
791.856
791.814
791.745
791.665
791.59
791.519
791.47
791.432
791.417
791.405
791.406
791.403
791.409
791.407
791.414
791.418
791.37
791.372
791.384
791.386
791.382
791.38
791.385
791.391
791.393
791.391
791.388
791.385
791.386
791.391
791.397
791.402
791.404
791.405
791.405
791.407
791.409
791.412
791.415
791.417
791.419
791.421
791.424
791.426
791.428
791.431
791.433
791.436
791.438
791.44
791.442
791.444
791.446
791.448
791.449
791.451
791.453
791.454
791.456
791.457
791.458
791.459
791.46
791.461
791.462
791.463
791.464
791.465
791.466
791.467
791.468
791.468
791.468
791.468
791.468
791.468
791.468
791.468
791.468
791.468
791.468
791.468
791.468
791.468
791.468
791.468
791.468
791.467
791.467
791.467
791.467
791.467
791.467
791.467
791.466
791.466
791.465
791.464
791.463
791.462
791.461
791.461
791.46
791.46
791.46
791.459
791.459
791.458
791.457
791.457
791.456
791.455
791.454
791.453
791.453
791.453
791.452
791.451
791.451
791.45
791.449
791.448
791.447
791.447
791.447
791.446
791.446
791.447
791.447
791.446
791.446
791.446
791.445
791.445
791.444
791.444
791.443
791.443
791.443
791.442
791.442
791.441
791.441
791.44
791.44
791.44
791.44
791.44
791.441
791.441
791.441
791.441
791.442
791.441
791.441
791.442
791.442
791.442
791.443
791.443
791.444
791.444
791.444
791.444
791.443
791.444
791.444
791.443
791.443
791.443
791.44
791.435
791.433
791.429
791.424
791.427
791.436
791.439
791.437
791.422
791.393
791.347
791.294
791.245
791.206
791.167
791.13
791.095
791.072
791.058
791.069
791.096
791.158
791.208
791.286
791.339
791.416
791.459
791.517
791.541
791.561
791.561
791.55
791.525
791.501
791.471
791.452
791.429
791.421
791.41
791.411
791.407
791.411
791.409
791.417
791.417
791.378
791.385
791.4
791.415
791.425
791.43
791.436
791.446
791.456
791.465
791.471
791.474
791.477
791.482
791.489
791.496
791.503
791.509
791.513
791.516
791.518
791.52
791.523
791.526
791.529
791.532
791.535
791.538
791.541
791.543
791.546
791.548
791.55
791.552
791.554
791.556
791.558
791.56
791.562
791.564
791.565
791.567
791.568
791.569
791.57
791.571
791.573
791.574
791.575
791.576
791.577
791.578
791.579
791.58
791.58
791.581
791.581
791.581
791.581
791.581
791.581
791.581
791.581
791.581
791.581
791.581
791.581
791.581
791.581
791.581
791.581
791.581
791.581
791.581
791.581
791.58
791.58
791.58
791.579
791.578
791.577
791.576
791.576
791.575
791.575
791.574
791.574
791.573
791.573
791.572
791.572
791.571
791.57
791.569
791.568
791.568
791.567
791.566
791.566
791.565
791.564
791.563
791.562
791.562
791.561
791.561
791.561
791.561
791.56
791.56
791.56
791.56
791.559
791.559
791.558
791.558
791.557
791.557
791.556
791.556
791.556
791.555
791.554
791.554
791.554
791.554
791.554
791.554
791.554
791.554
791.554
791.554
791.554
791.554
791.554
791.554
791.554
791.554
791.555
791.555
791.554
791.554
791.553
791.551
791.551
791.551
791.55
791.55
791.549
791.545
791.541
791.537
791.53
791.524
791.521
791.519
791.519
791.519
791.518
791.514
791.501
791.48
791.455
791.429
791.405
791.385
791.366
791.347
791.33
791.316
791.311
791.309
791.321
791.329
791.352
791.365
791.388
791.405
791.423
791.437
791.45
791.452
791.461
791.455
791.456
791.448
791.444
791.433
791.431
791.422
791.422
791.416
791.419
791.414
791.42
791.416
791.422
791.419
791.422
791.423
791.306
791.318
791.329
791.337
791.346
791.354
791.358
791.359
791.358
791.356
791.355
791.355
791.357
791.36
791.365
791.369
791.372
791.375
791.377
791.38
791.384
791.387
791.391
791.394
791.396
791.398
791.4
791.402
791.404
791.407
791.409
791.411
791.413
791.415
791.417
791.419
791.42
791.422
791.424
791.426
791.427
791.429
791.43
791.431
791.433
791.434
791.435
791.436
791.437
791.438
791.438
791.439
791.44
791.44
791.441
791.442
791.442
791.443
791.443
791.444
791.444
791.444
791.444
791.444
791.444
791.444
791.443
791.443
791.443
791.443
791.443
791.443
791.442
791.442
791.442
791.441
791.441
791.44
791.44
791.44
791.439
791.439
791.439
791.438
791.438
791.437
791.436
791.436
791.435
791.434
791.433
791.433
791.432
791.432
791.431
791.431
791.43
791.43
791.429
791.428
791.428
791.427
791.426
791.426
791.425
791.425
791.424
791.423
791.423
791.422
791.422
791.421
791.42
791.42
791.42
791.42
791.42
791.42
791.42
791.42
791.42
791.42
791.42
791.42
791.42
791.42
791.42
791.42
791.42
791.419
791.42
791.42
791.42
791.42
791.421
791.421
791.422
791.422
791.423
791.423
791.424
791.424
791.425
791.425
791.426
791.427
791.428
791.429
791.429
791.429
791.429
791.43
791.431
791.432
791.432
791.432
791.433
791.433
791.431
791.429
791.43
791.432
791.433
791.433
791.43
791.424
791.416
791.405
791.395
791.386
791.379
791.377
791.372
791.378
791.376
791.386
791.387
791.395
791.4
791.403
791.411
791.41
791.416
791.414
791.417
791.417
791.415
791.42
791.415
791.421
791.417
791.419
791.42
791.419
791.423
791.423
791.424
791.424
791.428
791.428
791.36
791.396
791.438
791.479
791.516
791.549
791.578
791.603
791.625
791.643
791.66
791.676
791.689
791.7
791.711
791.719
791.727
791.733
791.738
791.743
791.748
791.751
791.755
791.758
791.761
791.765
791.767
791.77
791.773
791.776
791.778
791.781
791.783
791.785
791.787
791.789
791.791
791.793
791.795
791.797
791.798
791.8
791.801
791.803
791.804
791.806
791.807
791.809
791.81
791.811
791.812
791.812
791.813
791.813
791.813
791.813
791.813
791.813
791.813
791.813
791.814
791.814
791.814
791.813
791.813
791.814
791.814
791.814
791.814
791.815
791.814
791.814
791.813
791.812
791.811
791.811
791.81
791.809
791.809
791.808
791.808
791.807
791.806
791.805
791.804
791.803
791.802
791.801
791.8
791.8
791.799
791.798
791.797
791.796
791.795
791.794
791.793
791.793
791.792
791.792
791.792
791.792
791.792
791.791
791.791
791.79
791.789
791.788
791.787
791.787
791.786
791.785
791.784
791.782
791.781
791.779
791.777
791.775
791.774
791.772
791.77
791.768
791.766
791.763
791.761
791.758
791.755
791.753
791.749
791.746
791.742
791.737
791.732
791.728
791.723
791.719
791.715
791.711
791.707
791.703
791.697
791.691
791.683
791.675
791.667
791.657
791.649
791.641
791.634
791.63
791.627
791.625
791.623
791.62
791.614
791.604
791.589
791.571
791.55
791.527
791.504
791.479
791.454
791.432
791.411
791.395
791.379
791.367
791.354
791.347
791.338
791.337
791.331
791.333
791.33
791.339
791.339
791.356
791.361
791.383
791.386
791.408
791.407
791.425
791.42
791.433
791.426
791.436
791.428
791.437
791.429
791.437
791.429
791.437
791.429
791.436
791.429
791.436
791.43
791.435
791.257
791.248
791.236
791.229
791.226
791.227
791.23
791.233
791.235
791.235
791.236
791.236
791.236
791.236
791.237
791.238
791.238
791.239
791.239
791.239
791.239
791.24
791.241
791.242
791.243
791.244
791.245
791.246
791.247
791.248
791.249
791.25
791.251
791.252
791.253
791.253
791.254
791.256
791.257
791.258
791.259
791.26
791.261
791.262
791.264
791.265
791.265
791.266
791.267
791.268
791.269
791.27
791.27
791.271
791.271
791.272
791.272
791.273
791.273
791.273
791.273
791.273
791.273
791.274
791.274
791.274
791.275
791.275
791.275
791.275
791.275
791.274
791.274
791.274
791.273
791.273
791.273
791.273
791.272
791.272
791.272
791.272
791.271
791.271
791.27
791.27
791.269
791.269
791.268
791.268
791.267
791.267
791.267
791.267
791.267
791.266
791.265
791.265
791.264
791.263
791.262
791.262
791.261
791.261
791.261
791.261
791.26
791.26
791.259
791.259
791.258
791.257
791.257
791.256
791.256
791.256
791.255
791.255
791.255
791.255
791.255
791.255
791.255
791.255
791.254
791.254
791.253
791.253
791.253
791.253
791.253
791.253
791.253
791.254
791.254
791.254
791.254
791.253
791.253
791.253
791.253
791.253
791.254
791.254
791.254
791.255
791.255
791.255
791.254
791.254
791.254
791.254
791.253
791.252
791.25
791.251
791.252
791.254
791.254
791.253
791.254
791.256
791.258
791.261
791.263
791.265
791.265
791.266
791.268
791.279
791.289
791.304
791.314
791.315
791.311
791.293
791.262
791.241
791.233
791.241
791.258
791.296
791.314
791.351
791.361
791.388
791.392
791.41
791.409
791.422
791.419
791.429
791.424
791.432
791.427
791.433
791.428
791.431
791.432
791.434
791.236
791.259
791.294
791.337
791.383
791.428
791.471
791.51
791.545
791.576
791.604
791.628
791.649
791.668
791.685
791.699
791.71
791.72
791.727
791.734
791.739
791.743
791.747
791.75
791.753
791.756
791.759
791.761
791.764
791.767
791.769
791.771
791.773
791.776
791.778
791.78
791.781
791.783
791.785
791.787
791.788
791.789
791.79
791.791
791.793
791.794
791.796
791.797
791.799
791.8
791.801
791.802
791.802
791.802
791.802
791.802
791.801
791.801
791.801
791.801
791.801
791.8
791.799
791.798
791.798
791.797
791.796
791.796
791.796
791.795
791.794
791.792
791.791
791.789
791.786
791.784
791.782
791.781
791.779
791.777
791.776
791.774
791.772
791.769
791.767
791.764
791.762
791.76
791.758
791.756
791.754