/*--------------------------------*- C++ -*----------------------------------*\
| =========                 |                                                 |
| \\      /  F ield         | OpenFOAM: The Open Source CFD Toolbox           |
|  \\    /   O peration     | Version:  3.0.x                                 |
|   \\  /    A nd           | Web:      www.OpenFOAM.org                      |
|    \\/     M anipulation  |                                                 |
\*---------------------------------------------------------------------------*/
FoamFile
{
    version     2.0;
    format      ascii;
    class       surfaceScalarField;
    location    "0.18";
    object      phi;
}
// * * * * * * * * * * * * * * * * * * * * * * * * * * * * * * * * * * * * * //

dimensions      [1 0 -1 0 0 0 0];

internalField   nonuniform List<scalar> 
53800
(
1.97775
0.0010274
1.9772
0.000696649
1.97665
0.000688384
1.97609
0.000690735
1.97552
0.000690718
1.97494
0.000690523
1.97434
0.000690422
1.97372
0.000690331
1.97307
0.000690227
1.9724
0.000690102
1.9717
0.00068995
1.97097
0.000689764
1.97021
0.000689535
1.96942
0.000689176
1.9686
0.00068867
1.96775
0.000687834
1.96688
0.000686438
1.96599
0.000684124
1.96507
0.0006804
1.96415
0.000674635
1.96322
0.000666081
1.96228
0.000653928
1.96136
0.000637386
1.96044
0.000615788
1.95955
0.000588701
1.9587
0.000556028
1.95788
0.000518066
1.95712
0.000475522
1.9564
0.000429478
1.95574
0.000381294
1.95515
0.000332484
1.95461
0.000284568
1.95413
0.000238939
1.95371
0.000196749
1.95334
0.000158836
1.95301
0.000125697
1.95273
9.74987e-05
1.95249
7.4124e-05
1.95228
5.5234e-05
1.9521
4.03415e-05
1.95195
2.888e-05
1.95181
2.02643e-05
1.95169
1.39528e-05
1.95159
9.29628e-06
1.9515
6.2753e-06
1.95142
4.0425e-06
1.95135
2.50372e-06
1.9513
1.52817e-06
1.95125
9.19008e-07
1.9512
5.3236e-07
1.95117
2.86545e-07
1.95114
1.37243e-07
1.95112
5.01313e-08
1.9511
2.70302e-09
1.9511
-2.03108e-08
1.9511
-2.94276e-08
1.95111
-3.01261e-08
1.95113
-2.22026e-08
1.95116
-5.4315e-09
1.9512
-1.36424e-09
1.95125
1.26165e-08
1.95131
2.76486e-08
1.95139
4.39177e-08
1.95148
6.12636e-08
1.95158
8.00974e-08
1.9517
9.95024e-08
1.95184
1.20082e-07
1.95199
1.41117e-07
1.95216
1.62898e-07
1.95235
1.83762e-07
1.95256
2.05346e-07
1.95278
2.24256e-07
1.95301
2.43577e-07
1.95326
2.59242e-07
1.95352
2.7394e-07
1.9538
2.85661e-07
1.95408
2.93385e-07
1.95437
2.99435e-07
1.95466
3.00661e-07
1.95495
2.97339e-07
1.95524
2.91151e-07
1.95552
2.80612e-07
1.95579
2.63652e-07
1.95605
2.43464e-07
1.9563
2.18843e-07
1.95652
1.89208e-07
1.95672
1.54505e-07
1.95689
1.18966e-07
1.95703
7.88568e-08
1.95715
3.27491e-08
1.95722
-1.0823e-08
1.95727
-6.08816e-08
1.95727
-1.20366e-07
1.95724
-1.54556e-07
1.95716
-2.493e-07
1.95705
-2.6944e-07
1.9569
-3.19546e-07
1.95671
-3.66494e-07
1.95649
-4.10302e-07
1.95623
-4.50596e-07
1.95594
-4.87023e-07
1.95562
-5.19369e-07
1.95528
-5.47418e-07
1.95492
-5.70959e-07
1.95454
-5.89767e-07
1.95414
-6.03672e-07
1.95372
-6.12581e-07
1.9533
-6.16488e-07
1.95288
-6.15495e-07
1.95245
-6.09765e-07
1.95202
-5.99881e-07
1.95159
-5.85194e-07
1.95116
-5.6576e-07
1.95075
-5.43161e-07
1.95034
-5.17266e-07
1.94994
-4.88308e-07
1.94955
-4.56181e-07
1.94917
-4.21187e-07
1.94881
-3.83741e-07
1.94845
-3.44244e-07
1.94811
-3.03033e-07
1.94777
-2.60345e-07
1.94744
-2.16536e-07
1.94712
-1.71814e-07
1.9468
-1.26416e-07
1.94649
-8.05267e-08
1.94617
-3.54048e-08
1.94586
-1.00445e-07
1.94554
6.79102e-08
1.94522
2.29338e-07
1.94489
1.47964e-07
1.94455
1.84671e-07
1.94419
2.35887e-07
1.94383
2.83831e-07
1.94345
3.26694e-07
1.94306
3.649e-07
1.94266
3.99155e-07
1.94224
4.30278e-07
1.94181
4.58571e-07
1.94137
4.83495e-07
1.94092
5.03991e-07
1.94046
5.18914e-07
1.93999
5.27365e-07
1.93953
5.28824e-07
1.93907
5.23021e-07
1.93861
5.09834e-07
1.93817
4.89152e-07
1.93774
4.60899e-07
1.93734
4.25101e-07
1.93696
3.81948e-07
1.93661
3.31787e-07
1.93629
2.7522e-07
1.93601
2.12931e-07
1.93578
1.45723e-07
1.93559
7.43894e-08
1.93545
-3.27418e-11
1.93535
-7.6041e-08
1.93531
-1.52006e-07
1.93531
-2.01373e-07
1.93536
-2.69236e-07
1.93545
-3.60633e-07
1.93558
-4.26186e-07
1.93576
-4.86089e-07
1.93598
-5.41655e-07
1.93623
-5.87086e-07
1.93651
-6.24063e-07
1.93681
-6.54396e-07
1.93713
-6.74154e-07
1.93746
-6.85126e-07
1.93779
-6.87513e-07
1.93813
-6.82598e-07
1.93846
-6.68722e-07
1.93879
-6.47891e-07
1.9391
-6.22382e-07
1.9394
-5.89549e-07
1.93968
-5.51885e-07
1.93993
-5.14781e-07
1.94017
-4.74261e-07
1.94038
-4.33713e-07
1.94057
-3.91814e-07
1.94073
-3.50083e-07
1.94087
-3.08504e-07
1.94099
-2.70069e-07
1.94108
-2.32892e-07
1.94116
-1.99565e-07
1.94122
-1.68187e-07
1.94126
-1.41416e-07
1.94128
-1.16641e-07
1.9413
-9.25938e-08
1.94131
9.40054e-09
1.9413
1.39105e-07
1.94129
9.65418e-07
1.94127
5.41487e-06
1.94123
2.669e-05
1.94107
0.000133109
1.94039
0.000658565
1.93717
0.0031977
1.92207
0.0150735
1.8475
0.0745472
0.25828
1.5892
2.27309
0.000991734
2.27326
0.000684819
2.27345
0.00066855
2.27361
0.000673692
2.27377
0.000674167
2.2739
0.000674225
2.27402
0.000674474
2.27411
0.000674745
2.27418
0.000674995
2.27421
0.000675225
2.27422
0.000675427
2.27418
0.000675593
2.27411
0.000675716
2.27401
0.000675704
2.27387
0.000675531
2.2737
0.000675014
2.2735
0.000673908
2.27327
0.000671841
2.27302
0.000668306
2.27274
0.000662654
2.27244
0.000654122
2.27213
0.000641893
2.27181
0.000625182
2.27148
0.00060334
2.27115
0.000575973
2.27082
0.00054303
2.27049
0.00050487
2.27016
0.000462261
2.26985
0.000416336
2.26954
0.000368491
2.26925
0.000320255
2.26897
0.000273136
2.2687
0.000228493
2.26845
0.000187425
2.26822
0.000150712
2.268
0.000118787
2.2678
9.17622e-05
2.26761
6.94742e-05
2.26743
5.15532e-05
2.26727
3.74952e-05
2.26713
2.67289e-05
2.267
1.86758e-05
2.26688
1.2803e-05
2.26677
8.48893e-06
2.26668
5.71023e-06
2.26659
3.66338e-06
2.26651
2.25461e-06
2.26645
1.36814e-06
2.26639
8.19226e-07
2.26634
4.72275e-07
2.2663
2.52174e-07
2.26627
1.18958e-07
2.26624
4.16112e-08
2.26623
-1.23691e-10
2.26622
-1.9958e-08
2.26622
-2.74267e-08
2.26623
-2.73649e-08
2.26625
-1.90412e-08
2.26628
-2.74667e-09
2.26633
1.46611e-09
2.26638
1.5054e-08
2.26646
2.9715e-08
2.26654
4.55293e-08
2.26665
6.24277e-08
2.26677
8.07704e-08
2.26691
9.96879e-08
2.26706
1.1974e-07
2.26724
1.40262e-07
2.26743
1.61494e-07
2.26765
1.81873e-07
2.26788
2.02905e-07
2.26814
2.21382e-07
2.26841
2.40194e-07
2.26869
2.55528e-07
2.26899
2.69851e-07
2.26931
2.81292e-07
2.26963
2.88848e-07
2.26996
2.94734e-07
2.2703
2.95946e-07
2.27063
2.92726e-07
2.27096
2.86698e-07
2.27129
2.76417e-07
2.2716
2.59883e-07
2.2719
2.40176e-07
2.27217
2.16161e-07
2.27243
1.8721e-07
2.27266
1.53363e-07
2.27286
1.18689e-07
2.27302
7.95335e-08
2.27315
3.46154e-08
2.27324
-7.92716e-09
2.27329
-5.67561e-08
2.27329
-1.13982e-07
2.27325
-1.48961e-07
2.27317
-2.39805e-07
2.27303
-2.59959e-07
2.27286
-3.08559e-07
2.27264
-3.54292e-07
2.27238
-3.96984e-07
2.27208
-4.36266e-07
2.27175
-4.71813e-07
2.27139
-5.03402e-07
2.271
-5.3081e-07
2.27058
-5.5385e-07
2.27013
-5.7225e-07
2.26967
-5.859e-07
2.2692
-5.9466e-07
2.26871
-5.98546e-07
2.26822
-5.97669e-07
2.26773
-5.92176e-07
2.26723
-5.82619e-07
2.26674
-5.68358e-07
2.26625
-5.49444e-07
2.26577
-5.27416e-07
2.2653
-5.02208e-07
2.26484
-4.73989e-07
2.26439
-4.42684e-07
2.26396
-4.0857e-07
2.26354
-3.72056e-07
2.26313
-3.33534e-07
2.26273
-2.93345e-07
2.26234
-2.51712e-07
2.26196
-2.08991e-07
2.26159
-1.65386e-07
2.26123
-1.21123e-07
2.26086
-7.63903e-08
2.2605
-3.30656e-08
2.26014
-9.48748e-08
2.25978
6.82994e-08
2.2594
2.25202e-07
2.25902
1.47684e-07
2.25863
1.82448e-07
2.25823
2.32609e-07
2.25781
2.79557e-07
2.25738
3.21532e-07
2.25693
3.58945e-07
2.25646
3.92531e-07
2.25598
4.23079e-07
2.25549
4.50822e-07
2.25498
4.75236e-07
2.25446
4.95271e-07
2.25393
5.09819e-07
2.2534
5.18012e-07
2.25287
5.19387e-07
2.25234
5.13664e-07
2.25181
5.00757e-07
2.2513
4.80497e-07
2.25081
4.52856e-07
2.25035
4.17847e-07
2.24991
3.7564e-07
2.24951
3.26618e-07
2.24915
2.71346e-07
2.24883
2.10493e-07
2.24856
1.44853e-07
2.24834
7.51788e-08
2.24817
2.52112e-09
2.24806
-7.16391e-08
2.24801
-1.45632e-07
2.24802
-1.94184e-07
2.24807
-2.59679e-07
2.24817
-3.49337e-07
2.24833
-4.13154e-07
2.24853
-4.71591e-07
2.24878
-5.2575e-07
2.24906
-5.701e-07
2.24938
-6.06189e-07
2.24972
-6.35715e-07
2.25009
-6.55025e-07
2.25047
-6.65721e-07
2.25085
-6.68049e-07
2.25124
-6.63262e-07
2.25162
-6.49718e-07
2.25199
-6.29538e-07
2.25235
-6.04388e-07
2.25269
-5.72767e-07
2.25301
-5.35507e-07
2.2533
-5.00095e-07
2.25357
-4.5987e-07
2.25381
-4.21136e-07
2.25402
-3.79583e-07
2.25421
-3.3938e-07
2.25437
-2.98431e-07
2.2545
-2.61596e-07
2.25461
-2.24536e-07
2.2547
-1.9258e-07
2.25476
-1.61479e-07
2.25481
-1.35631e-07
2.25484
-1.10704e-07
2.25486
-8.37026e-08
2.25486
7.31161e-08
2.25486
4.31526e-07
2.25485
2.14176e-06
2.25482
1.17883e-05
2.25477
5.78886e-05
2.25459
0.000288499
2.25379
0.00142713
2.25003
0.00693338
2.23239
0.0326873
2.1467
0.160211
0.544325
1.86063
2.6111
0.00095077
2.6113
0.00066936
2.61151
0.00064466
2.6117
0.000652179
2.61188
0.00065284
2.61204
0.000652778
2.61218
0.000653014
2.61229
0.000653285
2.61237
0.00065353
2.61241
0.000653753
2.61242
0.000653951
2.61238
0.000654113
2.61231
0.000654235
2.6122
0.000654226
2.61205
0.000654062
2.61186
0.000653566
2.61163
0.000652502
2.61138
0.00065051
2.61109
0.0006471
2.61078
0.000641645
2.61045
0.000633405
2.6101
0.000621593
2.60973
0.000605445
2.60936
0.000584334
2.60898
0.000557876
2.6086
0.000526021
2.60822
0.000489111
2.60785
0.00044789
2.60749
0.000403451
2.60713
0.000357143
2.60679
0.000310446
2.60646
0.000264819
2.60615
0.000221579
2.60586
0.000181793
2.60559
0.000146215
2.60533
0.00011527
2.60509
8.90665e-05
2.60487
6.74503e-05
2.60467
5.00645e-05
2.60449
3.64222e-05
2.60432
2.59714e-05
2.60416
1.81521e-05
2.60403
1.24465e-05
2.6039
8.25821e-06
2.60379
5.55188e-06
2.60369
3.56596e-06
2.60361
2.1959e-06
2.60353
1.33281e-06
2.60346
7.98485e-07
2.60341
4.60615e-07
2.60336
2.46248e-07
2.60332
1.16444e-07
2.60329
4.10546e-08
2.60327
3.56522e-10
2.60326
-1.90485e-08
2.60327
-2.6419e-08
2.60328
-2.64481e-08
2.6033
-1.82481e-08
2.60334
-2.72848e-09
2.60339
1.5134e-09
2.60346
1.46028e-08
2.60354
2.88164e-08
2.60364
4.41178e-08
2.60376
6.0485e-08
2.6039
7.82493e-08
2.60406
9.65774e-08
2.60424
1.15971e-07
2.60444
1.35853e-07
2.60466
1.56408e-07
2.60491
1.76147e-07
2.60518
1.96484e-07
2.60547
2.14422e-07
2.60578
2.32601e-07
2.60611
2.47495e-07
2.60646
2.61334e-07
2.60681
2.72412e-07
2.60719
2.79753e-07
2.60757
2.85421e-07
2.60795
2.86607e-07
2.60833
2.83493e-07
2.60871
2.7764e-07
2.60909
2.67708e-07
2.60945
2.51679e-07
2.60979
2.3258e-07
2.61011
2.09326e-07
2.6104
1.81273e-07
2.61066
1.48506e-07
2.61089
1.14924e-07
2.61108
7.70015e-08
2.61123
3.35349e-08
2.61133
-7.72707e-09
2.61138
-5.4999e-08
2.61139
-1.097e-07
2.61135
-1.45312e-07
2.61125
-2.31743e-07
2.61109
-2.51905e-07
2.61089
-2.98791e-07
2.61064
-3.43058e-07
2.61035
-3.84407e-07
2.61001
-4.22442e-07
2.60962
-4.56857e-07
2.60921
-4.87438e-07
2.60875
-5.13985e-07
2.60827
-5.36285e-07
2.60776
-5.54104e-07
2.60724
-5.67306e-07
2.60669
-5.75783e-07
2.60613
-5.79541e-07
2.60557
-5.78686e-07
2.605
-5.73375e-07
2.60443
-5.6412e-07
2.60386
-5.50303e-07
2.6033
-5.31982e-07
2.60275
-5.10638e-07
2.60221
-4.86227e-07
2.60168
-4.58906e-07
2.60117
-4.2859e-07
2.60067
-3.95565e-07
2.60019
-3.60196e-07
2.59971
-3.22892e-07
2.59926
-2.83973e-07
2.59881
-2.43679e-07
2.59838
-2.02308e-07
2.59795
-1.60089e-07
2.59753
-1.17223e-07
2.59712
-7.39383e-08
2.5967
-3.26654e-08
2.59629
-9.07239e-08
2.59587
6.56983e-08
2.59544
2.16962e-07
2.595
1.44282e-07
2.59455
1.767e-07
2.59409
2.25253e-07
2.59361
2.70698e-07
2.59311
3.11316e-07
2.59259
3.47536e-07
2.59206
3.8006e-07
2.59151
4.09625e-07
2.59094
4.36488e-07
2.59035
4.60106e-07
2.58976
4.79486e-07
2.58915
4.93557e-07
2.58854
5.01488e-07
2.58793
5.02798e-07
2.58732
4.9725e-07
2.58672
4.84742e-07
2.58614
4.65127e-07
2.58557
4.38358e-07
2.58504
4.04445e-07
2.58453
3.63587e-07
2.58407
3.16115e-07
2.58365
2.62597e-07
2.58329
2.03698e-07
2.58298
1.40142e-07
2.58273
7.26941e-08
2.58254
2.35377e-09
2.58241
-6.94417e-08
2.58235
-1.4095e-07
2.58236
-1.88375e-07
2.58242
-2.5101e-07
2.58253
-3.38339e-07
2.58271
-3.9997e-07
2.58295
-4.56526e-07
2.58323
-5.08891e-07
2.58356
-5.51863e-07
2.58392
-5.86802e-07
2.58432
-6.15317e-07
2.58474
-6.34038e-07
2.58517
-6.44399e-07
2.58562
-6.46629e-07
2.58606
-6.41998e-07
2.5865
-6.28846e-07
2.58692
-6.09456e-07
2.58734
-5.84816e-07
2.58773
-5.54668e-07
2.58809
-5.17928e-07
2.58843
-4.8451e-07
2.58874
-4.44667e-07
2.58901
-4.08127e-07
2.58926
-3.67083e-07
2.58947
-3.28753e-07
2.58965
-2.88634e-07
2.58981
-2.53734e-07
2.58993
-2.16896e-07
2.59003
-1.86636e-07
2.59011
-1.55931e-07
2.59016
-1.312e-07
2.5902
-1.062e-07
2.59022
-7.60083e-08
2.59022
1.29574e-07
2.59022
7.77e-07
2.5902
3.4435e-06
2.59018
1.88955e-05
2.59011
9.26531e-05
2.58991
0.000461704
2.58902
0.00228437
2.58482
0.0111092
2.56511
0.0523665
2.46863
0.256653
0.862697
2.15023
2.99936
0.000904907
2.99959
0.000650708
2.99983
0.000617647
3.00006
0.000627433
3.00026
0.000628335
3.00044
0.000628142
3.0006
0.00062836
3.00073
0.000628628
3.00082
0.000628864
3.00087
0.000629078
3.00088
0.000629269
3.00084
0.000629425
3.00076
0.000629542
3.00063
0.000629535
3.00045
0.000629379
3.00023
0.000628904
2.99998
0.000627886
2.99968
0.000625977
2.99936
0.000622709
2.999
0.000617477
2.99862
0.000609573
2.99821
0.000598238
2.9978
0.000582738
2.99737
0.000562468
2.99693
0.000537056
2.9965
0.000506452
2.99606
0.000470981
2.99563
0.000431356
2.99521
0.000388625
2.99481
0.000344084
2.99442
0.000299156
2.99404
0.000255243
2.99369
0.000213616
2.99335
0.000175302
2.99303
0.00014103
2.99274
0.000111211
2.99246
8.5954e-05
2.99221
6.51115e-05
2.99198
4.83425e-05
2.99177
3.518e-05
2.99157
2.50934e-05
2.9914
1.75443e-05
2.99124
1.20325e-05
2.9911
7.98955e-06
2.99097
5.36797e-06
2.99086
3.45209e-06
2.99076
2.12709e-06
2.99067
1.29136e-06
2.99059
7.74085e-07
2.99053
4.46853e-07
2.99048
2.39204e-07
2.99043
1.1341e-07
2.9904
4.03197e-08
2.99038
8.54925e-10
2.99037
-1.80444e-08
2.99037
-2.5284e-08
2.99038
-2.53931e-08
2.99041
-1.73641e-08
2.99045
-2.71029e-09
2.99051
1.55705e-09
2.99059
1.40753e-08
2.99068
2.77687e-08
2.9908
4.24807e-08
2.99093
5.8244e-08
2.99109
7.53316e-08
2.99128
9.29795e-08
2.99148
1.11635e-07
2.99171
1.30771e-07
2.99197
1.5055e-07
2.99226
1.69559e-07
2.99257
1.89095e-07
2.9929
2.06397e-07
2.99326
2.23863e-07
2.99363
2.38218e-07
2.99403
2.51526e-07
2.99444
2.62182e-07
2.99487
2.69261e-07
2.99531
2.74704e-07
2.99575
2.75846e-07
2.99619
2.72848e-07
2.99663
2.67206e-07
2.99705
2.57671e-07
2.99747
2.42228e-07
2.99786
2.23834e-07
2.99823
2.01453e-07
2.99856
1.74437e-07
2.99886
1.42914e-07
2.99913
1.10595e-07
2.99934
7.40802e-08
2.99951
3.22725e-08
2.99963
-7.50151e-09
2.99969
-5.29762e-08
2.9997
-1.04879e-07
2.99965
-1.40953e-07
2.99954
-2.22535e-07
2.99936
-2.42613e-07
2.99913
-2.8756e-07
2.99884
-3.30154e-07
2.9985
-3.69942e-07
2.99811
-4.06551e-07
2.99767
-4.39668e-07
2.99719
-4.69092e-07
2.99667
-4.94634e-07
2.99612
-5.16091e-07
2.99553
-5.33244e-07
2.99493
-5.45941e-07
2.9943
-5.54097e-07
2.99366
-5.57717e-07
2.99301
-5.56865e-07
2.99236
-5.51772e-07
2.9917
-5.42863e-07
2.99105
-5.2957e-07
2.99041
-5.11929e-07
2.98978
-4.91371e-07
2.98916
-4.67888e-07
2.98855
-4.41585e-07
2.98796
-4.12405e-07
2.98739
-3.80627e-07
2.98683
-3.46587e-07
2.98629
-3.10683e-07
2.98576
-2.7323e-07
2.98525
-2.3445e-07
2.98475
-1.94636e-07
2.98426
-1.54017e-07
2.98378
-1.1277e-07
2.9833
-7.1148e-08
2.98283
-3.21015e-08
2.98235
-8.60491e-08
2.98187
6.27733e-08
2.98137
2.07572e-07
2.98087
1.40135e-07
2.98036
1.70068e-07
2.97982
2.16784e-07
2.97927
2.6049e-07
2.9787
2.99577e-07
2.97811
3.34421e-07
2.97749
3.65719e-07
2.97686
3.94179e-07
2.97621
4.20008e-07
2.97554
4.42724e-07
2.97485
4.61361e-07
2.97416
4.74884e-07
2.97345
4.82501e-07
2.97275
4.83757e-07
2.97205
4.78409e-07
2.97136
4.66371e-07
2.97069
4.4749e-07
2.97004
4.21715e-07
2.96943
3.89075e-07
2.96885
3.49766e-07
2.96832
3.04084e-07
2.96784
2.52581e-07
2.96742
1.95916e-07
2.96706
1.34762e-07
2.96677
6.98528e-08
2.96656
2.18643e-09
2.96641
-6.69024e-08
2.96634
-1.35577e-07
2.96635
-1.81652e-07
2.96642
-2.41118e-07
2.96655
-3.25694e-07
2.96676
-3.84836e-07
2.96703
-4.39246e-07
2.96735
-4.89556e-07
2.96773
-5.30948e-07
2.96815
-5.64582e-07
2.9686
-5.91946e-07
2.96909
-6.0998e-07
2.96958
-6.19959e-07
2.97009
-6.22073e-07
2.9706
-6.17634e-07
2.97111
-6.0493e-07
2.9716
-5.86453e-07
2.97207
-5.62381e-07
2.97252
-5.33928e-07
2.97294
-4.97796e-07
2.97332
-4.66651e-07
2.97368
-4.27255e-07
2.974
-3.93218e-07
2.97428
-3.52746e-07
2.97452
-3.16588e-07
2.97473
-2.77396e-07
2.97491
-2.44723e-07
2.97505
-2.0814e-07
2.97517
-1.79803e-07
2.97525
-1.49565e-07
2.97531
-1.26107e-07
2.97536
-1.01027e-07
2.97538
-6.72953e-08
2.97539
1.94814e-07
2.97538
1.17105e-06
2.97536
4.92799e-06
2.97533
2.7008e-05
2.97526
0.000132328
2.97503
0.000659389
2.97401
0.00326304
2.96921
0.0158811
2.94673
0.0748083
2.83739
0.365953
1.21642
2.48363
3.44536
0.000853777
3.44563
0.000628163
3.4459
0.000587127
3.44616
0.000598979
3.44639
0.000600173
3.4466
0.000599842
3.44678
0.000600038
3.44693
0.000600304
3.44704
0.000600529
3.4471
0.000600733
3.4471
0.000600915
3.44706
0.000601065
3.44696
0.000601177
3.44681
0.000601171
3.44661
0.000601024
3.44636
0.000600573
3.44607
0.000599607
3.44573
0.000597792
3.44535
0.000594684
3.44494
0.000589706
3.44451
0.000582184
3.44404
0.000571392
3.44356
0.000556629
3.44307
0.000537318
3.44257
0.000513101
3.44207
0.000483927
3.44157
0.000450103
3.44108
0.000412306
3.4406
0.000371533
3.44013
0.00032902
3.43968
0.000286123
3.43925
0.000244182
3.43884
0.000204411
3.43845
0.000167793
3.43809
0.000135027
3.43775
0.000106509
3.43744
8.23447e-05
3.43715
6.23971e-05
3.43688
4.63423e-05
3.43664
3.37358e-05
3.43642
2.40716e-05
3.43622
1.68363e-05
3.43603
1.15499e-05
3.43587
7.67564e-06
3.43572
5.15381e-06
3.43559
3.31872e-06
3.43548
2.04636e-06
3.43538
1.24274e-06
3.43529
7.45413e-07
3.43522
4.30657e-07
3.43515
2.30884e-07
3.4351
1.09787e-07
3.43507
3.94029e-08
3.43504
1.35515e-09
3.43503
-1.69166e-08
3.43503
-2.3987e-08
3.43505
-2.41962e-08
3.43508
-1.63654e-08
3.43513
-2.6721e-09
3.43519
1.58434e-09
3.43528
1.34569e-08
3.43539
2.65518e-08
3.43552
4.06035e-08
3.43568
5.56574e-08
3.43586
7.1972e-08
3.43607
8.88322e-08
3.43631
1.06636e-07
3.43658
1.24917e-07
3.43687
1.43798e-07
3.4372
1.61974e-07
3.43756
1.80598e-07
3.43794
1.97164e-07
3.43835
2.13797e-07
3.43878
2.27545e-07
3.43924
2.40225e-07
3.43971
2.50418e-07
3.4402
2.57192e-07
3.4407
2.62364e-07
3.44121
2.63473e-07
3.44172
2.60616e-07
3.44222
2.55219e-07
3.44271
2.46113e-07
3.44318
2.31361e-07
3.44364
2.13771e-07
3.44406
1.92415e-07
3.44445
1.66585e-07
3.44479
1.36497e-07
3.44509
1.05623e-07
3.44534
7.07223e-08
3.44553
3.081e-08
3.44567
-7.22866e-09
3.44574
-5.06334e-08
3.44575
-9.94423e-08
3.4457
-1.3574e-07
3.44556
-2.12029e-07
3.44536
-2.3191e-07
3.44509
-2.74649e-07
3.44476
-3.15324e-07
3.44437
-3.53317e-07
3.44392
-3.88276e-07
3.44342
-4.19914e-07
3.44287
-4.48001e-07
3.44227
-4.72399e-07
3.44163
-4.92882e-07
3.44097
-5.09261e-07
3.44027
-5.21384e-07
3.43955
-5.29168e-07
3.43881
-5.32616e-07
3.43807
-5.31805e-07
3.43732
-5.26947e-07
3.43657
-5.18436e-07
3.43582
-5.05743e-07
3.43508
-4.88883e-07
3.43435
-4.69225e-07
3.43364
-4.46811e-07
3.43294
-4.21689e-07
3.43226
-3.93815e-07
3.43161
-3.63467e-07
3.43097
-3.30958e-07
3.43034
-2.96668e-07
3.42974
-2.60903e-07
3.42915
-2.23863e-07
3.42858
-1.85837e-07
3.42802
-1.47045e-07
3.42746
-1.07655e-07
3.42691
-6.79483e-08
3.42637
-3.13357e-08
3.42582
-8.08268e-08
3.42526
5.95046e-08
3.4247
1.96924e-07
3.42412
1.35111e-07
3.42353
1.62434e-07
3.42292
2.07037e-07
3.42228
2.48769e-07
3.42163
2.86091e-07
3.42095
3.19362e-07
3.42024
3.49246e-07
3.41951
3.7642e-07
3.41876
4.01078e-07
3.41799
4.22766e-07
3.41721
4.40541e-07
3.41641
4.53447e-07
3.4156
4.60708e-07
3.41479
4.61901e-07
3.41399
4.56783e-07
3.4132
4.45292e-07
3.41243
4.27252e-07
3.41168
4.02633e-07
3.41098
3.71456e-07
3.41031
3.33919e-07
3.4097
2.90291e-07
3.40915
2.41114e-07
3.40867
1.87005e-07
3.40826
1.28606e-07
3.40793
6.66278e-08
3.40768
2.00271e-09
3.40751
-6.39484e-08
3.40743
-1.29401e-07
3.40744
-1.73877e-07
3.40752
-2.29837e-07
3.40768
-3.1116e-07
3.40791
-3.6747e-07
3.40822
-4.19413e-07
3.40859
-4.67388e-07
3.40903
-5.06951e-07
3.40951
-5.39072e-07
3.41003
-5.6514e-07
3.41058
-5.82384e-07
3.41116
-5.91919e-07
3.41174
-5.93911e-07
3.41233
-5.89693e-07
3.4129
-5.77507e-07
3.41347
-5.60049e-07
3.41401
-5.36653e-07
3.41452
-5.10145e-07
3.41501
-4.74702e-07
3.41545
-4.46176e-07
3.41586
-4.07279e-07
3.41622
-3.7612e-07
3.41655
-3.36317e-07
3.41683
-3.02627e-07
3.41707
-2.64505e-07
3.41727
-2.3438e-07
3.41744
-1.98081e-07
3.41757
-1.71962e-07
3.41767
-1.42245e-07
3.41774
-1.2025e-07
3.41779
-9.51059e-08
3.41781
-5.75728e-08
3.41782
2.70978e-07
3.41781
1.61804e-06
3.41779
6.61311e-06
3.41776
3.62317e-05
3.41768
0.000177422
3.41741
0.000884104
3.41626
0.00437589
3.41079
0.0213131
3.38522
0.100329
3.2618
0.489335
1.60828
2.86991
3.95768
0.000796929
3.95798
0.000600909
3.9583
0.000552654
3.95859
0.000566273
3.95886
0.000567802
3.95911
0.000567335
3.95931
0.000567507
3.95948
0.000567768
3.9596
0.000567982
3.95967
0.000568175
3.95968
0.000568347
3.95963
0.000568489
3.95952
0.000568595
3.95935
0.00056859
3.95912
0.000568452
3.95883
0.00056803
3.95849
0.000567121
3.9581
0.000565414
3.95767
0.000562487
3.9572
0.000557799
3.9567
0.000550711
3.95617
0.000540537
3.95561
0.000526617
3.95505
0.000508399
3.95447
0.000485547
3.9539
0.000458006
3.95333
0.000426065
3.95276
0.000390359
3.95221
0.00035183
3.95167
0.000311641
3.95115
0.000271076
3.95066
0.0002314
3.95019
0.000193764
3.94975
0.000159098
3.94933
0.000128069
3.94894
0.000101051
3.94858
7.81503e-05
3.94825
5.92383e-05
3.94794
4.40113e-05
3.94766
3.20501e-05
3.94741
2.28771e-05
3.94718
1.60069e-05
3.94697
1.0984e-05
3.94678
7.30616e-06
3.94661
4.9024e-06
3.94646
3.16097e-06
3.94633
1.95052e-06
3.94621
1.18492e-06
3.94611
7.11184e-07
3.94603
4.11216e-07
3.94596
2.20812e-07
3.9459
1.05313e-07
3.94586
3.81469e-08
3.94583
1.84627e-09
3.94581
-1.56824e-08
3.94581
-2.25327e-08
3.94583
-2.28365e-08
3.94587
-1.52768e-08
3.94592
-2.62207e-09
3.946
1.60981e-09
3.9461
1.27338e-08
3.94623
2.51348e-08
3.94638
3.84262e-08
3.94656
5.26679e-08
3.94677
6.80911e-08
3.94701
8.40464e-08
3.94728
1.00881e-07
3.94759
1.18174e-07
3.94793
1.36023e-07
3.94831
1.53233e-07
3.94871
1.70827e-07
3.94915
1.86524e-07
3.94962
2.02223e-07
3.95012
2.15262e-07
3.95065
2.27229e-07
3.95119
2.36877e-07
3.95176
2.433e-07
3.95233
2.48167e-07
3.95291
2.49232e-07
3.95349
2.46522e-07
3.95407
2.41414e-07
3.95464
2.32805e-07
3.95518
2.18851e-07
3.9557
2.02194e-07
3.95618
1.82006e-07
3.95663
1.57554e-07
3.95703
1.29112e-07
3.95737
9.99062e-08
3.95766
6.68751e-08
3.95788
2.91438e-08
3.95803
-6.88397e-09
3.95812
-4.79131e-08
3.95813
-9.33323e-08
3.95806
-1.2951e-07
3.95791
-2.00035e-07
3.95768
-2.19552e-07
3.95737
-2.59794e-07
3.95699
-2.9826e-07
3.95654
-3.34196e-07
3.95603
-3.6726e-07
3.95545
-3.97183e-07
3.95482
-4.23752e-07
3.95413
-4.46829e-07
3.9534
-4.66196e-07
3.95263
-4.81688e-07
3.95183
-4.93153e-07
3.951
-5.00514e-07
3.95016
-5.03775e-07
3.9493
-5.03006e-07
3.94844
-4.98412e-07
3.94758
-4.90347e-07
3.94672
-4.78346e-07
3.94587
-4.62402e-07
3.94504
-4.43792e-07
3.94422
-4.22595e-07
3.94342
-3.98831e-07
3.94264
-3.72464e-07
3.94188
-3.43758e-07
3.94114
-3.13011e-07
3.94043
-2.80578e-07
3.93974
-2.4675e-07
3.93906
-2.11716e-07
3.9384
-1.75746e-07
3.93776
-1.39054e-07
3.93712
-1.01803e-07
3.93649
-6.42922e-08
3.93586
-3.02916e-08
3.93523
-7.49769e-08
3.9346
5.58648e-08
3.93395
1.84826e-07
3.93328
1.28995e-07
3.9326
1.53643e-07
3.9319
1.95834e-07
3.93117
2.35295e-07
3.93042
2.70585e-07
3.92964
3.02049e-07
3.92883
3.30321e-07
3.92799
3.56018e-07
3.92713
3.79342e-07
3.92624
3.99842e-07
3.92534
4.1665e-07
3.92442
4.28845e-07
3.92349
4.35707e-07
3.92257
4.36833e-07
3.92164
4.31988e-07
3.92073
4.21116e-07
3.91985
4.04045e-07
3.91899
3.80754e-07
3.91818
3.51271e-07
3.91742
3.15759e-07
3.91672
2.74503e-07
3.91609
2.27992e-07
3.91553
1.76811e-07
3.91506
1.21589e-07
3.91468
6.29689e-08
3.91439
1.83536e-09
3.9142
-6.05223e-08
3.91411
-1.22299e-07
3.91412
-1.64863e-07
3.91421
-2.16948e-07
3.91439
-2.9445e-07
3.91466
-3.4754e-07
3.91502
-3.96667e-07
3.91545
-4.41966e-07
3.91594
-4.7943e-07
3.9165
-5.09824e-07
3.9171
-5.34411e-07
3.91773
-5.50751e-07
3.91839
-5.59785e-07
3.91906
-5.61637e-07
3.91973
-5.57663e-07
3.9204
-5.46072e-07
3.92104
-5.29795e-07
3.92167
-5.07174e-07
3.92226
-4.82891e-07
3.92281
-4.48234e-07
3.92332
-4.22715e-07
3.92379
-3.84372e-07
3.92421
-3.56516e-07
3.92458
-3.17463e-07
3.92491
-2.86623e-07
3.92518
-2.49714e-07
3.92541
-2.22531e-07
3.9256
-1.86523e-07
3.92575
-1.62956e-07
3.92587
-1.33824e-07
3.92595
-1.13514e-07
3.92601
-8.83474e-08
3.92604
-4.68681e-08
3.92604
3.57487e-07
3.92604
2.12562e-06
3.92601
8.51172e-06
3.92597
4.66589e-05
3.92588
0.000228372
3.92558
0.00113804
3.92428
0.00563382
3.91808
0.0274598
3.88918
0.12918
3.75081
0.627667
2.04032
3.31873
17.2654
0.000570636
17.2667
0.000466936
17.2681
0.000408782
17.2694
0.000423662
17.2706
0.000426362
17.2716
0.000425561
17.2725
0.000425613
17.2733
0.000425836
17.2738
0.000425995
17.2741
0.000426133
17.2741
0.00042626
17.2739
0.000426365
17.2734
0.000426445
17.2727
0.000426443
17.2717
0.000426343
17.2704
0.000426032
17.2689
0.000425365
17.2673
0.000424104
17.2654
0.000421941
17.2633
0.000418472
17.2611
0.00041322
17.2588
0.000405674
17.2564
0.000395337
17.2539
0.000381794
17.2514
0.000364788
17.2489
0.000344271
17.2464
0.000320448
17.244
0.000293788
17.2415
0.000264986
17.2392
0.000234908
17.237
0.000204512
17.2348
0.000174745
17.2327
0.000146472
17.2308
0.000120397
17.229
9.70258e-05
17.2273
7.66485e-05
17.2257
5.9352e-05
17.2243
4.50476e-05
17.2229
3.35136e-05
17.2217
2.44398e-05
17.2206
1.74705e-05
17.2196
1.22427e-05
17.2187
8.41158e-06
17.2179
5.61444e-06
17.2171
3.76061e-06
17.2165
2.4351e-06
17.2159
1.50727e-06
17.2154
9.17204e-07
17.215
5.51927e-07
17.2146
3.203e-07
17.2143
1.73141e-07
17.214
8.36412e-08
17.2138
3.15576e-08
17.2137
2.97314e-09
17.2136
-1.07889e-08
17.2137
-1.63259e-08
17.2137
-1.69225e-08
17.2139
-1.0853e-08
17.2141
-2.24145e-09
17.2145
1.35788e-09
17.2149
9.58607e-09
17.2155
1.88702e-08
17.2161
2.88273e-08
17.2169
3.95125e-08
17.2178
5.10695e-08
17.2189
6.30489e-08
17.2201
7.56645e-08
17.2214
8.86471e-08
17.2229
1.02003e-07
17.2245
1.14966e-07
17.2263
1.28079e-07
17.2282
1.39949e-07
17.2303
1.51624e-07
17.2325
1.61486e-07
17.2347
1.7041e-07
17.2371
1.77651e-07
17.2396
1.82502e-07
17.2421
1.86109e-07
17.2446
1.86947e-07
17.2472
1.84907e-07
17.2497
1.8106e-07
17.2521
1.74609e-07
17.2545
1.64149e-07
17.2568
1.51627e-07
17.2589
1.3652e-07
17.2608
1.18153e-07
17.2626
9.68466e-08
17.2641
7.49355e-08
17.2653
5.01245e-08
17.2663
2.19065e-08
17.267
-5.23369e-09
17.2673
-3.59078e-08
17.2674
-6.82207e-08
17.2671
-9.97788e-08
17.2664
-1.48749e-07
17.2654
-1.65138e-07
17.2641
-1.94881e-07
17.2624
-2.23698e-07
17.2605
-2.50646e-07
17.2582
-2.75445e-07
17.2557
-2.97887e-07
17.2529
-3.17819e-07
17.2499
-3.35128e-07
17.2468
-3.49652e-07
17.2434
-3.61275e-07
17.2399
-3.69868e-07
17.2363
-3.7539e-07
17.2326
-3.77838e-07
17.2289
-3.77258e-07
17.2251
-3.73814e-07
17.2214
-3.67741e-07
17.2176
-3.58757e-07
17.2139
-3.46817e-07
17.2103
-3.32835e-07
17.2067
-3.1695e-07
17.2032
-2.99119e-07
17.1998
-2.79339e-07
17.1965
-2.57808e-07
17.1933
-2.34756e-07
17.1902
-2.1043e-07
17.1871
-1.8506e-07
17.1842
-1.58782e-07
17.1813
-1.31806e-07
17.1785
-1.04288e-07
17.1757
-7.63548e-08
17.173
-4.8361e-08
17.1702
-2.42981e-08
17.1675
-5.212e-08
17.1647
4.10037e-08
17.1619
1.34583e-07
17.159
9.93864e-08
17.156
1.15214e-07
17.153
1.46847e-07
17.1498
1.76437e-07
17.1465
2.02901e-07
17.1431
2.26506e-07
17.1396
2.47741e-07
17.1359
2.6702e-07
17.1321
2.84521e-07
17.1283
2.99892e-07
17.1243
3.1249e-07
17.1203
3.21629e-07
17.1163
3.2677e-07
17.1122
3.27615e-07
17.1082
3.23987e-07
17.1042
3.15827e-07
17.1004
3.03026e-07
17.0967
2.85557e-07
17.0931
2.63444e-07
17.0898
2.36811e-07
17.0867
2.05871e-07
17.084
1.7099e-07
17.0816
1.32599e-07
17.0795
9.11855e-08
17.0778
4.72246e-08
17.0766
1.38243e-09
17.0758
-4.53456e-08
17.0754
-9.14338e-08
17.0754
-1.24664e-07
17.0758
-1.61628e-07
17.0766
-2.21262e-07
17.0778
-2.60712e-07
17.0793
-2.97523e-07
17.0812
-3.31334e-07
17.0833
-3.59587e-07
17.0858
-3.82425e-07
17.0884
-4.00691e-07
17.0912
-4.13051e-07
17.094
-4.19901e-07
17.0969
-4.21149e-07
17.0999
-4.18321e-07
17.1028
-4.09226e-07
17.1056
-3.98079e-07
17.1083
-3.78981e-07
17.1109
-3.64331e-07
17.1133
-3.33096e-07
17.1155
-3.20686e-07
17.1176
-2.84629e-07
17.1194
-2.7122e-07
17.121
-2.35356e-07
17.1224
-2.17043e-07
17.1237
-1.85204e-07
17.1247
-1.70998e-07
17.1255
-1.36042e-07
17.1262
-1.23769e-07
17.1267
-9.70472e-08
17.127
-8.41869e-08
17.1272
-5.93732e-08
17.1274
-7.82211e-09
17.1274
6.89661e-07
17.1274
4.2822e-06
17.1273
1.61861e-05
17.1271
8.94434e-05
17.1267
0.000436935
17.1255
0.00217767
17.1201
0.0107792
17.0949
0.0525035
16.9773
0.246578
16.4632
1.14157
3.72626
14.777
17.2654
0.000368195
17.2667
0.000318073
17.2681
0.000270461
17.2694
0.000281723
17.2706
0.000284472
17.2716
0.000283717
17.2725
0.000283706
17.2733
0.000283876
17.2738
0.000283987
17.2741
0.00028408
17.2741
0.000284168
17.2739
0.00028424
17.2734
0.000284295
17.2727
0.000284297
17.2717
0.000284234
17.2704
0.000284032
17.2689
0.000283595
17.2672
0.000282766
17.2654
0.000281342
17.2633
0.000279054
17.2611
0.000275586
17.2588
0.000270599
17.2564
0.000263759
17.2539
0.00025479
17.2514
0.000243516
17.2489
0.000229903
17.2464
0.000214082
17.2439
0.000196361
17.2415
0.000177199
17.2392
0.000157171
17.2369
0.000136912
17.2348
0.000117056
17.2327
9.81794e-05
17.2308
8.07551e-05
17.229
6.51235e-05
17.2273
5.14825e-05
17.2257
3.98936e-05
17.2243
3.03012e-05
17.2229
2.25597e-05
17.2217
1.64642e-05
17.2206
1.17784e-05
17.2196
8.26034e-06
17.2187
5.67887e-06
17.2179
3.79777e-06
17.2171
2.54039e-06
17.2165
1.64878e-06
17.2159
1.02232e-06
17.2154
6.22533e-07
17.215
3.75037e-07
17.2146
2.18017e-07