/*--------------------------------*- C++ -*----------------------------------*\
| =========                 |                                                 |
| \\      /  F ield         | OpenFOAM: The Open Source CFD Toolbox           |
|  \\    /   O peration     | Version:  3.0.x                                 |
|   \\  /    A nd           | Web:      www.OpenFOAM.org                      |
|    \\/     M anipulation  |                                                 |
\*---------------------------------------------------------------------------*/
FoamFile
{
    version     2.0;
    format      ascii;
    class       volVectorField;
    location    "0.18";
    object      U;
}
// * * * * * * * * * * * * * * * * * * * * * * * * * * * * * * * * * * * * * //

dimensions      [0 1 -1 0 0 0 0];

internalField   nonuniform List<vector> 
27600
(
(42.6871 0.000288195 0)
(42.6758 0.000241709 0)
(42.6634 0.00023838 0)
(42.6512 0.000240781 0)
(42.6395 0.000243059 0)
(42.6277 0.000245094 0)
(42.6155 0.000246884 0)
(42.6029 0.00024844 0)
(42.5899 0.000249795 0)
(42.5765 0.000250982 0)
(42.5625 0.000252028 0)
(42.5479 0.000252952 0)
(42.5327 0.000253768 0)
(42.5169 0.000254463 0)
(42.5005 0.000255033 0)
(42.4834 0.000255423 0)
(42.4658 0.000255556 0)
(42.4476 0.000255303 0)
(42.429 0.000254486 0)
(42.41 0.000252873 0)
(42.3907 0.000250186 0)
(42.3713 0.000246121 0)
(42.3519 0.00024038 0)
(42.3327 0.000232704 0)
(42.3138 0.000222924 0)
(42.2956 0.000210991 0)
(42.2781 0.000197006 0)
(42.2615 0.000181224 0)
(42.2459 0.000164045 0)
(42.2315 0.000145975 0)
(42.2184 0.000127589 0)
(42.2065 0.000109463 0)
(42.1959 9.21356e-05 0)
(42.1865 7.60546e-05 0)
(42.1782 6.15525e-05 0)
(42.171 4.88332e-05 0)
(42.1648 3.79746e-05 0)
(42.1594 2.89445e-05 0)
(42.1547 2.16239e-05 0)
(42.1507 1.58348e-05 0)
(42.1472 1.1366e-05 0)
(42.1442 7.99653e-06 0)
(42.1416 5.51855e-06 0)
(42.1393 3.70861e-06 0)
(42.1374 2.47883e-06 0)
(42.1357 1.60819e-06 0)
(42.1341 1.00942e-06 0)
(42.1328 6.21145e-07 0)
(42.1317 3.76712e-07 0)
(42.1308 2.22095e-07 0)
(42.13 1.23638e-07 0)
(42.1293 6.26669e-08 0)
(42.1288 2.55524e-08 0)
(42.1285 1.61413e-09 0)
(42.1283 -7.61755e-09 0)
(42.1283 -1.10026e-08 0)
(42.1284 -1.16043e-08 0)
(42.1287 -9.6554e-09 0)
(42.1292 -5.32803e-09 0)
(42.1299 -1.99897e-09 0)
(42.1308 4.9008e-09 0)
(42.132 1.13179e-08 0)
(42.1334 1.7519e-08 0)
(42.1351 2.36672e-08 0)
(42.1371 2.99134e-08 0)
(42.1395 3.58527e-08 0)
(42.1421 4.16063e-08 0)
(42.145 4.68854e-08 0)
(42.1483 5.18305e-08 0)
(42.152 5.60841e-08 0)
(42.156 6.02506e-08 0)
(42.1603 6.35783e-08 0)
(42.1649 6.6976e-08 0)
(42.1698 6.93084e-08 0)
(42.175 7.13075e-08 0)
(42.1804 7.2459e-08 0)
(42.186 7.23874e-08 0)
(42.1918 7.18409e-08 0)
(42.1977 6.9966e-08 0)
(42.2036 6.68423e-08 0)
(42.2094 6.29743e-08 0)
(42.2152 5.80082e-08 0)
(42.2208 5.13834e-08 0)
(42.2262 4.39554e-08 0)
(42.2313 3.54581e-08 0)
(42.236 2.58092e-08 0)
(42.2402 1.49341e-08 0)
(42.244 4.0203e-09 0)
(42.2472 -7.98788e-09 0)
(42.2497 -2.28395e-08 0)
(42.2516 -4.31837e-08 0)
(42.2528 -6.76073e-08 0)
(42.2533 -8.97451e-08 0)
(42.253 -1.05713e-07 0)
(42.252 -1.29972e-07 0)
(42.25 -1.3826e-07 0)
(42.2473 -1.51907e-07 0)
(42.2438 -1.63751e-07 0)
(42.2396 -1.73867e-07 0)
(42.2347 -1.82391e-07 0)
(42.2292 -1.8949e-07 0)
(42.2231 -1.95359e-07 0)
(42.2164 -2.00126e-07 0)
(42.2092 -2.03728e-07 0)
(42.2016 -2.06086e-07 0)
(42.1937 -2.07136e-07 0)
(42.1854 -2.06859e-07 0)
(42.177 -2.05262e-07 0)
(42.1684 -2.02389e-07 0)
(42.1596 -1.98248e-07 0)
(42.1509 -1.9311e-07 0)
(42.1422 -1.86775e-07 0)
(42.1335 -1.79215e-07 0)
(42.1249 -1.7093e-07 0)
(42.1165 -1.61882e-07 0)
(42.1083 -1.52145e-07 0)
(42.1002 -1.41681e-07 0)
(42.0923 -1.30571e-07 0)
(42.0847 -1.18949e-07 0)
(42.0772 -1.06899e-07 0)
(42.07 -9.45253e-08 0)
(42.0629 -8.18877e-08 0)
(42.0559 -6.90843e-08 0)
(42.0491 -5.61812e-08 0)
(42.0424 -4.31891e-08 0)
(42.0357 -3.01533e-08 0)
(42.0289 -1.71633e-08 0)
(42.0223 -3.21432e-08 0)
(42.0155 8.94016e-09 0)
(42.0085 5.38487e-08 0)
(42.0011 3.58468e-08 0)
(41.9937 4.4305e-08 0)
(41.986 5.7863e-08 0)
(41.978 7.09899e-08 0)
(41.9697 8.27999e-08 0)
(41.961 9.32962e-08 0)
(41.9521 1.02679e-07 0)
(41.9427 1.11277e-07 0)
(41.9331 1.1926e-07 0)
(41.9231 1.26509e-07 0)
(41.9129 1.32728e-07 0)
(41.9025 1.37567e-07 0)
(41.8919 1.4077e-07 0)
(41.8813 1.42204e-07 0)
(41.8706 1.41788e-07 0)
(41.8601 1.39509e-07 0)
(41.8498 1.35338e-07 0)
(41.8398 1.2928e-07 0)
(41.8302 1.2137e-07 0)
(41.8212 1.11716e-07 0)
(41.8128 1.00504e-07 0)
(41.8051 8.76164e-08 0)
(41.7983 7.25097e-08 0)
(41.7923 5.44152e-08 0)
(41.7874 3.21037e-08 0)
(41.7836 2.63242e-09 0)
(41.7808 -2.20638e-08 0)
(41.7792 -4.16948e-08 0)
(41.7787 -5.62539e-08 0)
(41.7793 -7.38478e-08 0)
(41.7808 -9.72627e-08 0)
(41.7834 -1.16003e-07 0)
(41.7871 -1.3344e-07 0)
(41.7916 -1.49831e-07 0)
(41.797 -1.63876e-07 0)
(41.8031 -1.75868e-07 0)
(41.8098 -1.86186e-07 0)
(41.8169 -1.93857e-07 0)
(41.8244 -1.99273e-07 0)
(41.8321 -2.02396e-07 0)
(41.8399 -2.03571e-07 0)
(41.8477 -2.02329e-07 0)
(41.8553 -1.99116e-07 0)
(41.8627 -1.946e-07 0)
(41.8697 -1.87985e-07 0)
(41.8764 -1.79996e-07 0)
(41.8826 -1.7204e-07 0)
(41.8883 -1.63338e-07 0)
(41.8935 -1.54501e-07 0)
(41.8981 -1.45205e-07 0)
(41.9021 -1.354e-07 0)
(41.9056 -1.25014e-07 0)
(41.9086 -1.14611e-07 0)
(41.9111 -1.03894e-07 0)
(41.9131 -9.34493e-08 0)
(41.9146 -8.30874e-08 0)
(41.9158 -7.36526e-08 0)
(41.9166 -6.46305e-08 0)
(41.9172 -5.57671e-08 0)
(41.9174 -2.56027e-08 0)
(41.9174 -8.39682e-09 0)
(41.9173 1.50677e-07 0)
(41.917 1.0411e-06 0)
(41.9163 5.33226e-06 0)
(41.9143 2.67667e-05 0)
(41.9066 0.000132582 0)
(41.8716 0.000644177 0)
(41.7076 0.00304419 0)
(41.2425 0.015259 0)
(36.6997 0.0551016 0)
(42.7023 0.000463044 0)
(42.7062 0.000330554 0)
(42.709 0.000313261 0)
(42.7121 0.000310709 0)
(42.7156 0.000308433 0)
(42.719 0.00030659 0)
(42.722 0.000305097 0)
(42.7246 0.000303802 0)
(42.7268 0.000302641 0)
(42.7285 0.000301583 0)
(42.7297 0.000300604 0)
(42.7303 0.000299687 0)
(42.7302 0.000298818 0)
(42.7295 0.00029795 0)
(42.7282 0.000297067 0)
(42.7262 0.000296086 0)
(42.7237 0.000294899 0)
(42.7205 0.000293348 0)
(42.7168 0.000291216 0)
(42.7127 0.000288227 0)
(42.7081 0.000284059 0)
(42.7032 0.000278364 0)
(42.698 0.000270809 0)
(42.6925 0.000261116 0)
(42.687 0.000249114 0)
(42.6813 0.000234775 0)
(42.6757 0.000218244 0)
(42.6701 0.000199838 0)
(42.6645 0.000180034 0)
(42.6592 0.000159416 0)
(42.6539 0.000138632 0)
(42.6489 0.000118321 0)
(42.6441 9.90656e-05 0)
(42.6396 8.13362e-05 0)
(42.6353 6.54697e-05 0)
(42.6313 5.16565e-05 0)
(42.6275 3.99488e-05 0)
(42.624 3.02808e-05 0)
(42.6208 2.2497e-05 0)
(42.6179 1.6383e-05 0)
(42.6151 1.16946e-05 0)
(42.6127 8.18309e-06 0)
(42.6104 5.62002e-06 0)
(42.6085 3.73709e-06 0)
(42.6067 2.51329e-06 0)
(42.6051 1.62527e-06 0)
(42.6036 1.00952e-06 0)
(42.6023 6.19032e-07 0)
(42.6012 3.77114e-07 0)
(42.6003 2.23043e-07 0)
(42.5995 1.2321e-07 0)
(42.5988 6.10656e-08 0)
(42.5983 2.45935e-08 0)
(42.5979 5.17597e-09 0)
(42.5977 -3.51332e-09 0)
(42.5977 -6.54132e-09 0)
(42.5978 -6.14411e-09 0)
(42.5981 -2.19276e-09 0)
(42.5986 4.86077e-09 0)
(42.5993 7.05413e-09 0)
(42.6002 1.38141e-08 0)
(42.6014 2.194e-08 0)
(42.6028 3.09345e-08 0)
(42.6045 4.05833e-08 0)
(42.6065 5.0857e-08 0)
(42.6088 6.11147e-08 0)
(42.6114 7.15857e-08 0)
(42.6143 8.19018e-08 0)
(42.6176 9.21939e-08 0)
(42.6212 1.01768e-07 0)
(42.6252 1.1151e-07 0)
(42.6295 1.20078e-07 0)
(42.6341 1.28906e-07 0)
(42.639 1.36199e-07 0)
(42.6442 1.43037e-07 0)
(42.6496 1.48547e-07 0)
(42.6552 1.52256e-07 0)
(42.661 1.55188e-07 0)
(42.6668 1.55889e-07 0)
(42.6727 1.54508e-07 0)
(42.6786 1.51805e-07 0)
(42.6843 1.47095e-07 0)
(42.6899 1.39427e-07 0)
(42.6953 1.30355e-07 0)
(42.7004 1.19345e-07 0)
(42.7051 1.06071e-07 0)
(42.7093 9.07065e-08 0)
(42.713 7.50763e-08 0)
(42.7162 5.75817e-08 0)
(42.7188 3.76241e-08 0)
(42.7207 1.88188e-08 0)
(42.7218 -5.89994e-09 0)
(42.7223 -3.60283e-08 0)
(42.722 -5.79762e-08 0)
(42.7209 -1.00293e-07 0)
(42.719 -1.12786e-07 0)
(42.7162 -1.36528e-07 0)
(42.7127 -1.58146e-07 0)
(42.7085 -1.77748e-07 0)
(42.7036 -1.95379e-07 0)
(42.6981 -2.11107e-07 0)
(42.6919 -2.25045e-07 0)
(42.6852 -2.37225e-07 0)
(42.678 -2.47519e-07 0)
(42.6704 -2.55804e-07 0)
(42.6624 -2.61966e-07 0)
(42.6542 -2.65929e-07 0)
(42.6457 -2.67695e-07 0)
(42.6371 -2.67286e-07 0)
(42.6283 -2.6481e-07 0)
(42.6196 -2.60477e-07 0)
(42.6108 -2.53973e-07 0)
(42.6021 -2.45354e-07 0)
(42.5935 -2.35314e-07 0)
(42.5851 -2.23826e-07 0)
(42.5768 -2.10966e-07 0)
(42.5687 -1.96683e-07 0)
(42.5609 -1.811e-07 0)
(42.5532 -1.64393e-07 0)
(42.5457 -1.4677e-07 0)
(42.5385 -1.28367e-07 0)
(42.5313 -1.09286e-07 0)
(42.5244 -8.9681e-08 0)
(42.5175 -6.96293e-08 0)
(42.5108 -4.92757e-08 0)
(42.5041 -2.86722e-08 0)
(42.4973 -8.56881e-09 0)
(42.4907 -3.649e-08 0)
(42.4839 3.64139e-08 0)
(42.4768 1.10605e-07 0)
(42.4695 7.6335e-08 0)
(42.462 9.18089e-08 0)
(42.4543 1.15183e-07 0)
(42.4463 1.37391e-07 0)
(42.438 1.57452e-07 0)
(42.4293 1.75504e-07 0)
(42.4203 1.91909e-07 0)
(42.411 2.07008e-07 0)
(42.4013 2.20901e-07 0)
(42.3914 2.33336e-07 0)
(42.3811 2.43814e-07 0)
(42.3707 2.51832e-07 0)
(42.3601 2.56957e-07 0)
(42.3495 2.58957e-07 0)
(42.3389 2.57694e-07 0)
(42.3283 2.5312e-07 0)
(42.318 2.45163e-07 0)
(42.308 2.33805e-07 0)
(42.2984 2.19076e-07 0)
(42.2893 2.01106e-07 0)
(42.2809 1.80135e-07 0)
(42.2732 1.56099e-07 0)
(42.2664 1.28657e-07 0)
(42.2605 9.72612e-08 0)
(42.2556 6.10832e-08 0)
(42.2517 1.76619e-08 0)
(42.2489 -1.91527e-08 0)
(42.2473 -5.22714e-08 0)
(42.2468 -7.55776e-08 0)
(42.2473 -1.05417e-07 0)
(42.2489 -1.46106e-07 0)
(42.2514 -1.76858e-07 0)
(42.2551 -2.0515e-07 0)
(42.2596 -2.31764e-07 0)
(42.2649 -2.53859e-07 0)
(42.271 -2.7218e-07 0)
(42.2777 -2.87665e-07 0)
(42.2848 -2.98386e-07 0)
(42.2923 -3.05059e-07 0)
(42.3 -3.0785e-07 0)
(42.3077 -3.07307e-07 0)
(42.3155 -3.02579e-07 0)
(42.3231 -2.94601e-07 0)
(42.3304 -2.84368e-07 0)
(42.3375 -2.70785e-07 0)
(42.3441 -2.54739e-07 0)
(42.3503 -2.39128e-07 0)
(42.356 -2.21672e-07 0)
(42.3611 -2.04394e-07 0)
(42.3657 -1.86075e-07 0)
(42.3697 -1.67618e-07 0)
(42.3732 -1.48425e-07 0)
(42.3762 -1.302e-07 0)
(42.3786 -1.11685e-07 0)
(42.3806 -9.46951e-08 0)
(42.3822 -7.80462e-08 0)
(42.3833 -6.35214e-08 0)
(42.3841 -4.95755e-08 0)
(42.3846 -3.52932e-08 0)
(42.3849 2.71207e-08 0)
(42.3849 1.20324e-07 0)
(42.3847 6.21403e-07 0)
(42.3844 3.43525e-06 0)
(42.3837 1.69331e-05 0)
(42.3817 8.44444e-05 0)
(42.3739 0.000417757 0)
(42.3387 0.00202902 0)
(42.1736 0.00956418 0)
(41.6991 0.0470062 0)
(37.2535 0.160639 0)
(42.7023 0.000369199 0)
(42.7062 0.000239564 0)
(42.7091 0.000231319 0)
(42.7121 0.00023544 0)
(42.7157 0.000236863 0)
(42.7191 0.000237831 0)
(42.7222 0.000238807 0)
(42.7248 0.000239752 0)
(42.7271 0.000240658 0)
(42.7289 0.000241532 0)
(42.7301 0.000242371 0)
(42.7308 0.000243171 0)
(42.7308 0.000243929 0)
(42.7302 0.000244609 0)
(42.729 0.000245203 0)
(42.7272 0.000245639 0)
(42.7247 0.000245828 0)
(42.7217 0.000245628 0)
(42.7181 0.000244847 0)
(42.7141 0.000243243 0)
(42.7096 0.000240525 0)
(42.7048 0.000236387 0)
(42.6997 0.000230532 0)
(42.6943 0.000222716 0)
(42.6888 0.000212793 0)
(42.6832 0.000200746 0)
(42.6776 0.000186713 0)
(42.672 0.000170987 0)
(42.6665 0.000153999 0)
(42.661 0.000136278 0)
(42.6557 0.000118399 0)
(42.6507 0.000100931 0)
(42.6458 8.43842e-05 0)
(42.6412 6.91695e-05 0)
(42.6368 5.55765e-05 0)
(42.6327 4.37658e-05 0)
(42.6289 3.37768e-05 0)
(42.6253 2.55467e-05 0)
(42.622 1.8936e-05 0)
(42.619 1.37558e-05 0)
(42.6163 9.79303e-06 0)
(42.6138 6.83233e-06 0)
(42.6115 4.67564e-06 0)
(42.6095 3.0903e-06 0)
(42.6078 2.07665e-06 0)
(42.6061 1.32848e-06 0)
(42.6046 8.10339e-07 0)
(42.6034 4.85322e-07 0)
(42.6023 2.8428e-07 0)
(42.6013 1.56816e-07 0)
(42.6005 7.59692e-08 0)
(42.5999 2.74365e-08 0)
(42.5994 9.37963e-10 0)
(42.599 -9.57673e-09 0)
(42.5988 -1.66801e-08 0)
(42.5988 -1.98794e-08 0)
(42.5989 -1.96798e-08 0)
(42.5992 -1.64998e-08 0)
(42.5996 -1.08784e-08 0)
(42.6003 -1.15015e-08 0)
(42.6013 -9.61972e-09 0)
(42.6024 -5.80017e-09 0)
(42.6038 -8.18948e-10 0)
(42.6055 5.00229e-09 0)
(42.6075 1.15527e-08 0)
(42.6098 1.84054e-08 0)
(42.6124 2.58087e-08 0)
(42.6154 3.35226e-08 0)
(42.6187 4.15899e-08 0)
(42.6223 4.94275e-08 0)
(42.6263 5.75408e-08 0)
(42.6306 6.47441e-08 0)
(42.6352 7.20773e-08 0)
(42.6401 7.81244e-08 0)
(42.6453 8.38326e-08 0)
(42.6507 8.84848e-08 0)
(42.6563 9.16953e-08 0)
(42.6621 9.42927e-08 0)
(42.6679 9.51906e-08 0)
(42.6738 9.43953e-08 0)
(42.6796 9.25303e-08 0)
(42.6854 8.9092e-08 0)
(42.691 8.33325e-08 0)
(42.6964 7.62763e-08 0)
(42.7014 6.74963e-08 0)
(42.7061 5.6909e-08 0)
(42.7104 4.43005e-08 0)
(42.7141 3.13965e-08 0)
(42.7173 1.70413e-08 0)
(42.7198 8.03918e-10 0)
(42.7217 -1.01118e-08 0)
(42.7229 -2.03393e-08 0)
(42.7234 -3.91296e-08 0)
(42.7231 -5.17888e-08 0)
(42.722 -8.66037e-08 0)
(42.72 -9.42134e-08 0)
(42.7173 -1.12976e-07 0)
(42.7138 -1.30778e-07 0)
(42.7096 -1.4752e-07 0)
(42.7047 -1.63013e-07 0)
(42.6991 -1.77118e-07 0)
(42.693 -1.89709e-07 0)
(42.6863 -2.00711e-07 0)
(42.6791 -2.10038e-07 0)
(42.6715 -2.17593e-07 0)
(42.6635 -2.23329e-07 0)
(42.6552 -2.27173e-07 0)
(42.6468 -2.29154e-07 0)
(42.6381 -2.29309e-07 0)
(42.6294 -2.27664e-07 0)
(42.6206 -2.24435e-07 0)
(42.6119 -2.194e-07 0)
(42.6032 -2.12562e-07 0)
(42.5946 -2.04511e-07 0)
(42.5862 -1.95209e-07 0)
(42.5779 -1.84716e-07 0)
(42.5698 -1.73019e-07 0)
(42.5619 -1.60227e-07 0)
(42.5543 -1.46507e-07 0)
(42.5468 -1.31992e-07 0)
(42.5395 -1.16818e-07 0)
(42.5324 -1.01092e-07 0)
(42.5254 -8.49224e-08 0)
(42.5186 -6.84034e-08 0)
(42.5118 -5.1622e-08 0)
(42.5051 -3.4688e-08 0)
(42.4984 -1.84955e-08 0)
(42.4917 -4.2773e-08 0)
(42.485 2.04021e-08 0)
(42.4779 7.9803e-08 0)
(42.4705 4.87785e-08 0)
(42.4631 6.2127e-08 0)
(42.4554 8.12706e-08 0)
(42.4474 9.88414e-08 0)
(42.4391 1.14331e-07 0)
(42.4304 1.28014e-07 0)
(42.4214 1.40147e-07 0)
(42.4121 1.51029e-07 0)
(42.4024 1.60726e-07 0)
(42.3924 1.69036e-07 0)
(42.3822 1.75579e-07 0)
(42.3718 1.79953e-07 0)
(42.3612 1.81859e-07 0)
(42.3505 1.81124e-07 0)
(42.3399 1.77654e-07 0)
(42.3294 1.71422e-07 0)
(42.3191 1.6237e-07 0)
(42.3091 1.50514e-07 0)
(42.2995 1.35861e-07 0)
(42.2904 1.18514e-07 0)
(42.282 9.86023e-08 0)
(42.2743 7.63795e-08 0)
(42.2675 5.21683e-08 0)
(42.2615 2.64675e-08 0)
(42.2566 1.73296e-11 0)
(42.2527 -2.55326e-08 0)
(42.25 -4.93663e-08 0)
(42.2484 -7.71173e-08 0)
(42.2479 -9.55773e-08 0)
(42.2484 -1.20091e-07 0)
(42.2499 -1.54292e-07 0)
(42.2525 -1.7831e-07 0)
(42.2561 -1.99865e-07 0)
(42.2606 -2.1942e-07 0)
(42.266 -2.35107e-07 0)
(42.2721 -2.47433e-07 0)
(42.2787 -2.56968e-07 0)
(42.2859 -2.62492e-07 0)
(42.2934 -2.64698e-07 0)
(42.301 -2.636e-07 0)
(42.3088 -2.59742e-07 0)
(42.3165 -2.52611e-07 0)
(42.3241 -2.43052e-07 0)
(42.3315 -2.31547e-07 0)
(42.3385 -2.17909e-07 0)
(42.3452 -2.02027e-07 0)
(42.3513 -1.87303e-07 0)
(42.357 -1.70488e-07 0)
(42.3622 -1.54849e-07 0)
(42.3668 -1.37844e-07 0)
(42.3708 -1.21863e-07 0)
(42.3743 -1.05592e-07 0)
(42.3772 -9.14175e-08 0)
(42.3797 -7.70283e-08 0)
(42.3817 -6.5211e-08 0)
(42.3832 -5.37012e-08 0)
(42.3844 -4.45099e-08 0)
(42.3852 -3.55577e-08 0)
(42.3857 -2.58421e-08 0)
(42.3859 4.38948e-08 0)
(42.386 2.49568e-07 0)
(42.3858 1.12809e-06 0)
(42.3855 6.15728e-06 0)
(42.3848 3.01867e-05 0)
(42.3828 0.000150428 0)
(42.3752 0.000744224 0)
(42.3407 0.00361775 0)
(42.179 0.0170535 0)
(41.7199 0.0835601 0)
(37.3852 0.282018 0)
(42.7023 0.000375315 0)
(42.7062 0.000277624 0)
(42.7091 0.000270938 0)
(42.7121 0.000276232 0)
(42.7157 0.000277244 0)
(42.7191 0.00027741 0)
(42.7222 0.000277471 0)
(42.7248 0.000277393 0)
(42.7271 0.000277204 0)
(42.7289 0.000276941 0)
(42.7301 0.000276628 0)
(42.7308 0.000276277 0)
(42.7308 0.000275897 0)
(42.7302 0.00027546 0)
(42.729 0.000274962 0)
(42.7272 0.000274335 0)
(42.7247 0.000273484 0)
(42.7217 0.000272265 0)
(42.7181 0.000270479 0)
(42.7141 0.00026787 0)
(42.7096 0.000264139 0)
(42.7048 0.000258961 0)
(42.6997 0.000252026 0)
(42.6943 0.000243076 0)
(42.6888 0.000231952 0)
(42.6832 0.000218632 0)
(42.6776 0.000203254 0)
(42.672 0.000186118 0)
(42.6665 0.000167671 0)
(42.661 0.000148463 0)
(42.6557 0.000129099 0)
(42.6507 0.000110178 0)
(42.6458 9.22411e-05 0)
(42.6412 7.57291e-05 0)
(42.6368 6.09543e-05 0)
(42.6327 4.80934e-05 0)
(42.6289 3.71943e-05 0)
(42.6253 2.81948e-05 0)
(42.622 2.09496e-05 0)
(42.619 1.52586e-05 0)
(42.6163 1.08944e-05 0)
(42.6138 7.62551e-06 0)
(42.6115 5.23691e-06 0)
(42.6096 3.48524e-06 0)
(42.6078 2.34455e-06 0)
(42.6061 1.51068e-06 0)
(42.6046 9.34747e-07 0)
(42.6034 5.71227e-07 0)
(42.6023 3.46492e-07 0)
(42.6013 2.05268e-07 0)
(42.6005 1.16344e-07 0)
(42.5999 6.26575e-08 0)
(42.5994 3.10545e-08 0)
(42.599 1.16608e-08 0)
(42.5988 3.25546e-09 0)
(42.5988 2.13533e-10 0)
(42.5989 7.53006e-12 0)
(42.5992 3.32362e-09 0)
(42.5996 1.00546e-08 0)
(42.6003 1.34218e-08 0)
(42.6013 2.00661e-08 0)
(42.6024 2.62687e-08 0)
(42.6038 3.25501e-08 0)
(42.6055 3.90727e-08 0)
(42.6075 4.60386e-08 0)
(42.6098 5.31401e-08 0)
(42.6124 6.05856e-08 0)
(42.6154 6.81681e-08 0)
(42.6187 7.59866e-08 0)
(42.6223 8.34536e-08 0)
(42.6263 9.11297e-08 0)
(42.6306 9.78468e-08 0)
(42.6352 1.04627e-07 0)
(42.6401 1.10142e-07 0)
(42.6453 1.15196e-07 0)
(42.6507 1.19152e-07 0)
(42.6563 1.21674e-07 0)
(42.6621 1.23498e-07 0)
(42.6679 1.2355e-07 0)
(42.6738 1.21926e-07 0)
(42.6796 1.19276e-07 0)
(42.6854 1.14972e-07 0)
(42.691 1.08227e-07 0)
(42.6964 1.00268e-07 0)
(42.7014 9.07821e-08 0)
(42.7061 7.92939e-08 0)
(42.7104 6.58743e-08 0)
(42.7141 5.2156e-08 0)
(42.7173 3.63603e-08 0)
(42.7198 1.76771e-08 0)
(42.7217 -3.17869e-09 0)
(42.7229 -2.25553e-08 0)
(42.7234 -4.41124e-08 0)
(42.7231 -5.83954e-08 0)
(42.722 -9.18925e-08 0)
(42.72 -9.97491e-08 0)
(42.7173 -1.17891e-07 0)
(42.7138 -1.35008e-07 0)
(42.7096 -1.50955e-07 0)
(42.7047 -1.6559e-07 0)
(42.6991 -1.78783e-07 0)
(42.693 -1.90478e-07 0)
(42.6863 -2.00582e-07 0)
(42.6791 -2.09027e-07 0)
(42.6715 -2.15728e-07 0)
(42.6635 -2.20622e-07 0)
(42.6552 -2.2366e-07 0)
(42.6468 -2.24879e-07 0)
(42.6381 -2.24286e-07 0)
(42.6294 -2.21961e-07 0)
(42.6206 -2.18109e-07 0)
(42.6119 -2.12487e-07 0)
(42.6032 -2.05091e-07 0)
(42.5946 -1.96507e-07 0)
(42.5862 -1.86749e-07 0)
(42.5779 -1.75853e-07 0)
(42.5698 -1.63801e-07 0)
(42.5619 -1.50686e-07 0)
(42.5543 -1.36674e-07 0)
(42.5468 -1.21879e-07 0)
(42.5395 -1.06485e-07 0)
(42.5324 -9.05217e-08 0)
(42.5254 -7.41507e-08 0)
(42.5186 -5.74817e-08 0)
(42.5118 -4.05546e-08 0)
(42.5051 -2.34912e-08 0)
(42.4984 -7.31309e-09 0)
(42.4917 -2.94248e-08 0)
(42.485 3.21476e-08 0)
(42.4779 9.18067e-08 0)
(42.4705 6.40177e-08 0)
(42.4631 7.65654e-08 0)
(42.4554 9.56813e-08 0)
(42.4474 1.13652e-07 0)
(42.4391 1.29823e-07 0)
(42.4304 1.44273e-07 0)
(42.4214 1.57295e-07 0)
(42.4121 1.69193e-07 0)
(42.4024 1.80089e-07 0)
(42.3924 1.89768e-07 0)
(42.3822 1.97824e-07 0)
(42.3718 2.0382e-07 0)
(42.3612 2.0741e-07 0)
(42.3505 2.08412e-07 0)
(42.3399 2.06741e-07 0)
(42.3294 2.02362e-07 0)
(42.3191 1.9523e-07 0)
(42.3091 1.85325e-07 0)
(42.2995 1.72648e-07 0)
(42.2904 1.57289e-07 0)
(42.282 1.39369e-07 0)
(42.2743 1.1911e-07 0)
(42.2675 9.68082e-08 0)
(42.2615 7.27483e-08 0)
(42.2566 4.72197e-08 0)
(42.2527 2.04986e-08 0)
(42.25 -8.60734e-09 0)
(42.2484 -3.69225e-08 0)
(42.2479 -5.59493e-08 0)
(42.2484 -8.06201e-08 0)
(42.2499 -1.15161e-07 0)
(42.2525 -1.39544e-07 0)
(42.2561 -1.61996e-07 0)
(42.2606 -1.82658e-07 0)
(42.266 -1.99731e-07 0)
(42.2721 -2.13746e-07 0)
(42.2787 -2.25178e-07 0)
(42.2859 -2.32861e-07 0)
(42.2934 -2.37352e-07 0)
(42.301 -2.38687e-07 0)
(42.3088 -2.37382e-07 0)
(42.3165 -2.32813e-07 0)
(42.3241 -2.25916e-07 0)
(42.3315 -2.16876e-07 0)
(42.3385 -2.05928e-07 0)
(42.3452 -1.92164e-07 0)
(42.3513 -1.80102e-07 0)
(42.357 -1.65196e-07 0)
(42.3622 -1.52029e-07 0)
(42.3668 -1.36737e-07 0)
(42.3708 -1.22798e-07 0)
(42.3743 -1.07904e-07 0)
(42.3772 -9.52624e-08 0)
(42.3797 -8.14816e-08 0)
(42.3817 -7.0509e-08 0)
(42.3832 -5.89891e-08 0)
(42.3844 -4.98539e-08 0)
(42.3852 -4.02566e-08 0)
(42.3857 -2.77814e-08 0)
(42.3859 6.39394e-08 0)
(42.386 3.89205e-07 0)
(42.3858 1.67998e-06 0)
(42.3855 9.20515e-06 0)
(42.3848 4.50968e-05 0)
(42.3829 0.00022469 0)
(42.3752 0.00111177 0)
(42.3409 0.00540914 0)
(42.1804 0.0254871 0)
(41.7254 0.124777 0)
(37.4943 0.416854 0)
(42.7023 0.000352003 0)
(42.7062 0.000252922 0)
(42.7091 0.000233939 0)
(42.7121 0.000235301 0)
(42.7157 0.000234002 0)
(42.7191 0.000232887 0)
(42.7222 0.000232407 0)
(42.7248 0.000232226 0)
(42.7271 0.000232205 0)
(42.7289 0.000232291 0)
(42.7301 0.000232446 0)
(42.7308 0.000232642 0)
(42.7308 0.000232858 0)
(42.7302 0.000233051 0)
(42.729 0.000233204 0)
(42.7271 0.000233245 0)
(42.7247 0.000233086 0)
(42.7216 0.000232591 0)
(42.7181 0.000231582 0)
(42.714 0.000229829 0)
(42.7096 0.000227063 0)
(42.7048 0.000222996 0)
(42.6997 0.00021735 0)
(42.6943 0.000209897 0)
(42.6888 0.000200496 0)
(42.6832 0.000189129 0)
(42.6776 0.000175919 0)
(42.672 0.000161135 0)
(42.6664 0.000145173 0)
(42.661 0.000128524 0)
(42.6557 0.000111724 0)
(42.6506 9.53014e-05 0)
(42.6458 7.97342e-05 0)
(42.6412 6.54087e-05 0)
(42.6368 5.25985e-05 0)
(42.6327 4.14571e-05 0)
(42.6289 3.20243e-05 0)
(42.6253 2.42442e-05 0)
(42.622 1.7988e-05 0)
(42.619 1.30802e-05 0)
(42.6163 9.32158e-06 0)
(42.6138 6.51044e-06 0)
(42.6115 4.4593e-06 0)
(42.6096 2.95477e-06 0)
(42.6078 1.98244e-06 0)
(42.6061 1.27193e-06 0)
(42.6046 7.8024e-07 0)
(42.6034 4.71025e-07 0)
(42.6023 2.79793e-07 0)
(42.6013 1.58168e-07 0)
(42.6005 8.02164e-08 0)
(42.5999 3.24491e-08 0)
(42.5994 4.43667e-09 0)
(42.599 -9.96104e-09 0)
(42.5988 -1.65191e-08 0)
(42.5988 -1.92983e-08 0)
(42.5989 -1.92302e-08 0)
(42.5992 -1.61778e-08 0)
(42.5996 -1.11538e-08 0)
(42.6003 -9.98795e-09 0)
(42.6013 -5.28446e-09 0)
(42.6024 2.815e-10 0)
(42.6038 6.34945e-09 0)
(42.6055 1.28707e-08 0)
(42.6075 1.9941e-08 0)
(42.6098 2.72495e-08 0)
(42.6124 3.49383e-08 0)
(42.6154 4.28238e-08 0)
(42.6187 5.09385e-08 0)
(42.6223 5.87377e-08 0)
(42.6263 6.67323e-08 0)
(42.6306 7.38659e-08 0)
(42.6352 8.10311e-08 0)
(42.6401 8.6993e-08 0)
(42.6453 9.252e-08 0)
(42.6507 9.69901e-08 0)
(42.6563 1.00065e-07 0)
(42.6621 1.02494e-07 0)
(42.6679 1.03168e-07 0)
(42.6738 1.02231e-07 0)
(42.6796 1.0023e-07 0)
(42.6854 9.67236e-08 0)
(42.691 9.073e-08 0)
(42.6964 8.371e-08 0)
(42.7014 7.51438e-08 0)
(42.7061 6.46606e-08 0)
(42.7104 5.25815e-08 0)
(42.7141 4.01975e-08 0)
(42.7173 2.59111e-08 0)
(42.7198 9.98603e-09 0)
(42.7217 -5.88469e-09 0)
(42.7229 -2.39251e-08 0)
(42.7234 -4.42945e-08 0)
(42.7231 -5.89722e-08 0)
(42.722 -9.07528e-08 0)
(42.72 -9.89078e-08 0)
(42.7173 -1.16625e-07 0)
(42.7138 -1.3345e-07 0)
(42.7096 -1.49164e-07 0)
(42.7047 -1.6364e-07 0)
(42.6991 -1.76752e-07 0)
(42.693 -1.884e-07 0)
(42.6863 -1.98531e-07 0)
(42.6791 -2.07054e-07 0)
(42.6715 -2.13879e-07 0)
(42.6635 -2.18945e-07 0)
(42.6552 -2.22231e-07 0)
(42.6468 -2.23719e-07 0)
(42.6381 -2.23457e-07 0)
(42.6294 -2.21526e-07 0)
(42.6206 -2.18088e-07 0)
(42.6119 -2.12909e-07 0)
(42.6032 -2.06032e-07 0)
(42.5946 -1.98001e-07 0)
(42.5862 -1.8883e-07 0)
(42.5779 -1.78548e-07 0)
(42.5698 -1.67139e-07 0)
(42.5619 -1.54696e-07 0)
(42.5543 -1.41359e-07 0)
(42.5468 -1.27299e-07 0)
(42.5395 -1.12624e-07 0)
(42.5324 -9.74413e-08 0)
(42.5254 -8.18526e-08 0)
(42.5186 -6.59284e-08 0)
(42.5118 -4.9753e-08 0)
(42.5051 -3.34284e-08 0)
(42.4984 -1.82743e-08 0)
(42.4917 -3.9193e-08 0)
(42.485 1.85422e-08 0)
(42.4779 7.49804e-08 0)
(42.4705 4.90771e-08 0)
(42.4631 6.05627e-08 0)
(42.4554 7.8859e-08 0)
(42.4474 9.59742e-08 0)
(42.4391 1.11246e-07 0)
(42.4304 1.2485e-07 0)
(42.4214 1.37064e-07 0)
(42.4121 1.48145e-07 0)
(42.4024 1.58176e-07 0)
(42.3924 1.66955e-07 0)
(42.3822 1.74125e-07 0)
(42.3718 1.79307e-07 0)
(42.3612 1.82174e-07 0)
(42.3505 1.82564e-07 0)
(42.3399 1.80362e-07 0)
(42.3294 1.75533e-07 0)
(42.3191 1.68001e-07 0)
(42.3091 1.57754e-07 0)
(42.2995 1.44786e-07 0)
(42.2904 1.2918e-07 0)
(42.282 1.11037e-07 0)
(42.2743 9.05678e-08 0)
(42.2675 6.79994e-08 0)
(42.2615 4.35491e-08 0)
(42.2566 1.73845e-08 0)
(42.2527 -1.08176e-08 0)
(42.25 -3.96628e-08 0)
(42.2484 -6.64928e-08 0)
(42.2479 -8.45683e-08 0)
(42.2484 -1.07837e-07 0)
(42.2499 -1.41121e-07 0)
(42.2525 -1.64158e-07 0)
(42.2561 -1.85456e-07 0)
(42.2606 -2.05289e-07 0)
(42.266 -2.21434e-07 0)
(42.2721 -2.34544e-07 0)
(42.2787 -2.45336e-07 0)
(42.2859 -2.524e-07 0)
(42.2934 -2.56242e-07 0)
(42.301 -2.57076e-07 0)
(42.3088 -2.55344e-07 0)
(42.3165 -2.50299e-07 0)
(42.3241 -2.43048e-07 0)
(42.3315 -2.33504e-07 0)
(42.3385 -2.22426e-07 0)
(42.3452 -2.08035e-07 0)
(42.3513 -1.96025e-07 0)
(42.357 -1.80227e-07 0)
(42.3622 -1.66991e-07 0)
(42.3668 -1.50739e-07 0)
(42.3708 -1.3655e-07 0)
(42.3743 -1.20802e-07 0)
(42.3772 -1.0793e-07 0)
(42.3797 -9.29636e-08 0)
(42.3817 -8.16414e-08 0)
(42.3832 -6.91116e-08 0)
(42.3844 -5.94607e-08 0)
(42.3852 -4.86702e-08 0)
(42.3857 -3.22705e-08 0)
(42.3859 8.83403e-08 0)
(42.386 5.51792e-07 0)
(42.3858 2.30574e-06 0)
(42.3855 1.26667e-05 0)
(42.3848 6.20724e-05 0)
(42.3829 0.000309341 0)
(42.3753 0.00153099 0)
(42.3414 0.00745444 0)
(42.1826 0.0351008 0)
(41.7326 0.171419 0)
(37.6128 0.566492 0)
(42.7023 0.000330559 0)
(42.7062 0.000246057 0)
(42.709 0.000230029 0)
(42.7121 0.000236619 0)
(42.7157 0.000238573 0)
(42.7191 0.000239346 0)
(42.7221 0.000240063 0)
(42.7248 0.000240625 0)
(42.7271 0.000241039 0)
(42.7288 0.000241351 0)
(42.7301 0.000241588 0)
(42.7307 0.000241762 0)
(42.7308 0.000241884 0)
(42.7302 0.000241931 0)
(42.729 0.000241901 0)
(42.7271 0.000241734 0)
(42.7247 0.00024135 0)
(42.7216 0.000240619 0)
(42.7181 0.000239365 0)
(42.714 0.00023736 0)
(42.7096 0.000234335 0)
(42.7048 0.000230002 0)
(42.6996 0.000224079 0)
(42.6943 0.000216333 0)
(42.6888 0.000206622 0)
(42.6832 0.000194921 0)
(42.6776 0.000181352 0)
(42.672 0.000166183 0)
(42.6664 0.000149812 0)
(42.661 0.000132732 0)
(42.6557 0.000115487 0)
(42.6506 9.86155e-05 0)
(42.6458 8.26045e-05 0)
(42.6411 6.78514e-05 0)
(42.6368 5.46399e-05 0)
(42.6327 4.31315e-05 0)
(42.6289 3.3372e-05 0)
(42.6253 2.53086e-05 0)
(42.622 1.88132e-05 0)
(42.619 1.37084e-05 0)
(42.6163 9.79154e-06 0)
(42.6138 6.85645e-06 0)
(42.6115 4.70954e-06 0)
(42.6096 3.13709e-06 0)
(42.6078 2.10771e-06 0)
(42.6061 1.36127e-06 0)
(42.6046 8.43332e-07 0)
(42.6034 5.14975e-07 0)
(42.6023 3.11328e-07 0)
(42.6013 1.82549e-07 0)
(42.6005 1.01085e-07 0)
(42.5999 5.1948e-08 0)
(42.5994 2.37099e-08 0)
(42.599 8.57113e-09 0)
(42.5988 8.49119e-10 0)
(42.5988 -2.07457e-09 0)
(42.5989 -2.24852e-09 0)
(42.5992 8.90347e-10 0)
(42.5996 6.3427e-09 0)
(42.6003 8.04361e-09 0)
(42.6013 1.22722e-08 0)
(42.6024 1.70043e-08 0)
(42.6038 2.21552e-08 0)
(42.6055 2.77475e-08 0)
(42.6075 3.38749e-08 0)
(42.6098 4.02192e-08 0)
(42.6124 4.70297e-08 0)
(42.6154 5.40091e-08 0)
(42.6187 6.12426e-08 0)
(42.6223 6.82672e-08 0)
(42.6263 7.54119e-08 0)
(42.6306 8.18049e-08 0)
(42.6352 8.82079e-08 0)
(42.6401 9.33954e-08 0)
(42.6453 9.83027e-08 0)
(42.6507 1.02193e-07 0)
(42.6563 1.04657e-07 0)
(42.6621 1.06621e-07 0)
(42.6679 1.0701e-07 0)
(42.6738 1.05771e-07 0)
(42.6796 1.03528e-07 0)
(42.6854 9.99843e-08 0)
(42.691 9.43025e-08 0)
(42.6964 8.74713e-08 0)
(42.7014 7.90487e-08 0)
(42.7061 6.91271e-08 0)
(42.7104 5.7393e-08 0)
(42.7141 4.53271e-08 0)
(42.7173 3.18615e-08 0)
(42.7198 1.62064e-08 0)
(42.7217 1.66834e-09 0)
(42.7229 -1.51768e-08 0)
(42.7234 -3.40146e-08 0)
(42.7231 -4.84877e-08 0)
(42.722 -7.78623e-08 0)
(42.72 -8.57294e-08 0)
(42.7173 -1.02328e-07 0)
(42.7138 -1.18156e-07 0)
(42.7096 -1.32947e-07 0)
(42.7047 -1.46551e-07 0)
(42.6991 -1.58852e-07 0)
(42.693 -1.69778e-07 0)
(42.6863 -1.79258e-07 0)
(42.6791 -1.87214e-07 0)
(42.6715 -1.93568e-07 0)
(42.6635 -1.9828e-07 0)
(42.6552 -2.01292e-07 0)
(42.6468 -2.02618e-07 0)
(42.6381 -2.02282e-07 0)
(42.6294 -2.00372e-07 0)
(42.6206 -1.97039e-07 0)
(42.6119 -1.92089e-07 0)
(42.6032 -1.85511e-07 0)
(42.5946 -1.77837e-07 0)
(42.5862 -1.69092e-07 0)
(42.5779 -1.59288e-07 0)
(42.5698 -1.48416e-07 0)
(42.5619 -1.36581e-07 0)
(42.5543 -1.23905e-07 0)
(42.5468 -1.10533e-07 0)
(42.5395 -9.65888e-08 0)
(42.5324 -8.21362e-08 0)
(42.5254 -6.73039e-08 0)
(42.5186 -5.21751e-08 0)
(42.5118 -3.6824e-08 0)
(42.5051 -2.13552e-08 0)
(42.4984 -7.21757e-09 0)
(42.4917 -2.59884e-08 0)
(42.485 2.84127e-08 0)
(42.4779 8.17853e-08 0)
(42.4705 5.82303e-08 0)
(42.4631 6.8669e-08 0)
(42.4554 8.60481e-08 0)
(42.4474 1.02328e-07 0)
(42.4391 1.16894e-07 0)
(42.4304 1.2988e-07 0)
(42.4214 1.41542e-07 0)
(42.4121 1.52155e-07 0)
(42.4024 1.61793e-07 0)
(42.3924 1.70281e-07 0)
(42.3822 1.77241e-07 0)
(42.3718 1.82308e-07 0)
(42.3612 1.85162e-07 0)
(42.3505 1.85645e-07 0)
(42.3399 1.83667e-07 0)
(42.3294 1.79212e-07 0)
(42.3191 1.72194e-07 0)
(42.3091 1.62628e-07 0)
(42.2995 1.5051e-07 0)
(42.2904 1.35915e-07 0)
(42.282 1.1896e-07 0)
(42.2743 9.98452e-08 0)
(42.2675 7.88192e-08 0)
(42.2615 5.61474e-08 0)
(42.2566 3.21367e-08 0)
(42.2527 7.39383e-09 0)
(42.25 -1.6955e-08 0)
(42.2484 -4.22593e-08 0)
(42.2479 -5.9745e-08 0)
(42.2484 -8.11942e-08 0)
(42.2499 -1.12885e-07 0)
(42.2525 -1.34893e-07 0)
(42.2561 -1.55082e-07 0)
(42.2606 -1.7363e-07 0)
(42.266 -1.89111e-07 0)
(42.2721 -2.01654e-07 0)
(42.2787 -2.117e-07 0)
(42.2859 -2.18402e-07 0)
(42.2934 -2.22138e-07 0)
(42.301 -2.22858e-07 0)
(42.3088 -2.21165e-07 0)
(42.3165 -2.16406e-07 0)
(42.3241 -2.09617e-07 0)
(42.3315 -2.00362e-07 0)
(42.3385 -1.90174e-07 0)
(42.3452 -1.76096e-07 0)
(42.3513 -1.65235e-07 0)
(42.357 -1.49765e-07 0)
(42.3622 -1.37979e-07 0)
(42.3668 -1.22189e-07 0)
(42.3708 -1.09278e-07 0)
(42.3743 -9.42984e-08 0)
(42.3772 -8.28679e-08 0)
(42.3797 -6.84511e-08 0)
(42.3817 -5.85773e-08 0)
(42.3832 -4.69078e-08 0)
(42.3844 -3.85699e-08 0)
(42.3852 -2.87215e-08 0)
(42.3857 -1.42236e-08 0)
(42.3859 1.33827e-07 0)
(42.386 7.57935e-07 0)
(42.3858 3.03966e-06 0)
(42.3855 1.66268e-05 0)
(42.3848 8.13727e-05 0)
(42.3829 0.000405473 0)
(42.3755 0.00200709 0)
(42.342 0.00977961 0)
(42.1859 0.0460075 0)
(41.7434 0.223925 0)
(37.7521 0.729277 0)
(42.7023 0.000273526 0)
(42.7061 0.00021284 0)
(42.709 0.000192797 0)
(42.7121 0.000196737 0)
(42.7156 0.000196095 0)
(42.7191 0.000194089 0)
(42.7221 0.00019241 0)
(42.7248 0.000190958 0)