/*--------------------------------*- C++ -*----------------------------------*\
| =========                 |                                                 |
| \\      /  F ield         | OpenFOAM: The Open Source CFD Toolbox           |
|  \\    /   O peration     | Version:  3.0.x                                 |
|   \\  /    A nd           | Web:      www.OpenFOAM.org                      |
|    \\/     M anipulation  |                                                 |
\*---------------------------------------------------------------------------*/
FoamFile
{
    version     2.0;
    format      ascii;
    class       volVectorField;
    location    "0.34";
    object      U;
}
// * * * * * * * * * * * * * * * * * * * * * * * * * * * * * * * * * * * * * //

dimensions      [0 1 -1 0 0 0 0];

internalField   nonuniform List<vector> 
13800
(
(42.6962 0.000141832 0)
(42.6925 0.00012348 0)
(42.6888 0.000122322 0)
(42.6851 0.000124456 0)
(42.6813 0.000126277 0)
(42.6776 0.000127799 0)
(42.6738 0.000129075 0)
(42.6701 0.000130128 0)
(42.6663 0.000131001 0)
(42.6625 0.00013173 0)
(42.6588 0.000132341 0)
(42.655 0.000132857 0)
(42.6513 0.000133296 0)
(42.6475 0.000133682 0)
(42.6438 0.000133996 0)
(42.64 0.000134276 0)
(42.6363 0.000134514 0)
(42.6325 0.000134726 0)
(42.6288 0.000134934 0)
(42.625 0.000135068 0)
(42.6213 0.000135216 0)
(42.6175 0.000135338 0)
(42.6138 0.000135439 0)
(42.61 0.000135529 0)
(42.6063 0.000135624 0)
(42.6025 0.000135685 0)
(42.5988 0.000135742 0)
(42.595 0.000135784 0)
(42.5913 0.000135846 0)
(42.5875 0.000135877 0)
(42.5838 0.000135906 0)
(42.58 0.000135926 0)
(42.5763 0.000135977 0)
(42.5725 0.000135927 0)
(42.5688 0.000135931 0)
(42.5651 0.0001359 0)
(42.5613 0.000135832 0)
(42.5576 0.000135716 0)
(42.5538 0.000135533 0)
(42.5501 0.000135251 0)
(42.5464 0.000134874 0)
(42.5427 0.00013432 0)
(42.539 0.000133557 0)
(42.5353 0.000132534 0)
(42.5317 0.000131223 0)
(42.5281 0.000129594 0)
(42.5246 0.0001274 0)
(42.5211 0.000124855 0)
(42.5177 0.000121761 0)
(42.5144 0.000118118 0)
(42.5112 0.000113913 0)
(42.5082 0.000109149 0)
(42.5052 0.000103851 0)
(42.5025 9.80647e-05 0)
(42.4999 9.18566e-05 0)
(42.4974 8.53112e-05 0)
(42.4952 7.85272e-05 0)
(42.4931 7.1613e-05 0)
(42.4913 6.46817e-05 0)
(42.4896 5.7845e-05 0)
(42.4881 5.12105e-05 0)
(42.4868 4.48637e-05 0)
(42.4857 3.88937e-05 0)
(42.4847 3.33631e-05 0)
(42.4839 2.83093e-05 0)
(42.4832 2.37603e-05 0)
(42.4826 1.97277e-05 0)
(42.4821 1.62005e-05 0)
(42.4817 1.31542e-05 0)
(42.4814 1.05671e-05 0)
(42.4811 8.39656e-06 0)
(42.4809 6.59722e-06 0)
(42.4808 5.12647e-06 0)
(42.4807 3.94074e-06 0)
(42.4806 2.99678e-06 0)
(42.4805 2.25368e-06 0)
(42.4805 1.6767e-06 0)
(42.4805 1.23406e-06 0)
(42.4804 8.98514e-07 0)
(42.4804 6.47257e-07 0)
(42.4804 4.61325e-07 0)
(42.4804 3.25365e-07 0)
(42.4804 2.26999e-07 0)
(42.4804 1.5674e-07 0)
(42.4804 1.0704e-07 0)
(42.4804 7.22646e-08 0)
(42.4805 4.81556e-08 0)
(42.4805 3.16078e-08 0)
(42.4805 2.03472e-08 0)
(42.4805 1.27583e-08 0)
(42.4805 7.6725e-09 0)
(42.4805 4.30297e-09 0)
(42.4805 2.09295e-09 0)
(42.4806 6.46769e-10 0)
(42.4806 -2.83037e-10 0)
(42.4806 -9.0142e-10 0)
(42.4806 -1.26804e-09 0)
(42.4806 -1.48576e-09 0)
(42.4807 -1.56957e-09 0)
(42.4807 -1.61265e-09 0)
(42.4807 -1.78942e-09 0)
(42.4807 -1.81799e-09 0)
(42.4807 -1.63597e-09 0)
(42.4807 -1.51632e-09 0)
(42.4808 -1.69933e-09 0)
(42.4808 -1.79393e-09 0)
(42.4808 -1.92353e-09 0)
(42.4808 -1.88938e-09 0)
(42.4808 -1.98312e-09 0)
(42.4809 -1.68304e-09 0)
(42.4809 -1.81853e-09 0)
(42.4809 -1.82181e-09 0)
(42.4809 -1.6267e-09 0)
(42.4809 -2.58904e-09 0)
(42.4809 -1.23704e-09 0)
(42.481 -1.54432e-09 0)
(42.481 -1.66281e-09 0)
(42.481 -1.24387e-09 0)
(42.481 -1.35102e-09 0)
(42.481 -1.39586e-09 0)
(42.481 -1.19395e-09 0)
(42.481 -1.41718e-09 0)
(42.481 -1.06703e-09 0)
(42.481 -1.15286e-09 0)
(42.481 -1.17383e-09 0)
(42.4811 -1.15508e-09 0)
(42.4811 -1.05099e-09 0)
(42.4811 -1.00701e-09 0)
(42.4811 -1.00557e-09 0)
(42.4811 -9.43752e-10 0)
(42.4811 -8.62286e-10 0)
(42.4811 -8.21591e-10 0)
(42.4811 -1.10156e-09 0)
(42.4811 -6.32803e-10 0)
(42.4811 -6.43441e-10 0)
(42.4811 -5.86814e-10 0)
(42.4811 -7.14707e-10 0)
(42.4811 -6.29163e-10 0)
(42.4811 -4.19801e-10 0)
(42.4811 -3.32142e-10 0)
(42.481 -1.00782e-10 0)
(42.481 -3.37124e-10 0)
(42.481 -5.60444e-10 0)
(42.481 -1.50688e-10 0)
(42.481 -1.08653e-10 0)
(42.481 -7.28239e-11 0)
(42.481 1.01142e-10 0)
(42.481 -8.7523e-10 0)
(42.481 6.77452e-11 0)
(42.4811 6.28828e-11 0)
(42.4811 3.56143e-11 0)
(42.4811 9.96735e-11 0)
(42.4811 1.8066e-10 0)
(42.4811 2.66354e-10 0)
(42.4811 3.50263e-10 0)
(42.4811 4.44684e-10 0)
(42.4812 5.1159e-10 0)
(42.4812 4.23498e-10 0)
(42.4812 5.81514e-10 0)
(42.4812 5.9735e-10 0)
(42.4813 6.10084e-10 0)
(42.4813 6.36628e-10 0)
(42.4814 6.61511e-10 0)
(42.4814 7.02232e-10 0)
(42.4814 7.52987e-10 0)
(42.4815 8.18139e-10 0)
(42.4815 8.92345e-10 0)
(42.4816 9.75243e-10 0)
(42.4816 1.05668e-09 0)
(42.4817 1.15124e-09 0)
(42.4818 1.24658e-09 0)
(42.4818 1.33889e-09 0)
(42.4819 1.44419e-09 0)
(42.4819 1.53529e-09 0)
(42.482 1.64052e-09 0)
(42.4821 1.74525e-09 0)
(42.4822 1.84883e-09 0)
(42.4822 1.9598e-09 0)
(42.4823 2.07872e-09 0)
(42.4824 2.19512e-09 0)
(42.4825 2.32271e-09 0)
(42.4826 2.45872e-09 0)
(42.4826 2.58972e-09 0)
(42.4827 2.72662e-09 0)
(42.4828 2.81813e-09 0)
(42.4829 2.81112e-09 0)
(42.483 3.26324e-09 0)
(42.4831 3.08599e-09 0)
(42.4832 8.85255e-09 0)
(42.4834 2.98989e-08 0)
(42.4835 9.09495e-08 0)
(42.4836 4.47738e-07 0)
(42.4837 2.13607e-06 0)
(42.4835 1.02829e-05 0)
(42.4823 4.94639e-05 0)
(42.4757 0.000237157 0)
(42.4447 0.00112209 0)
(42.2996 0.00524793 0)
(41.8341 0.0270382 0)
(37.4097 0.106442 0)
(42.7001 0.000222496 0)
(42.7003 0.000161973 0)
(42.7005 0.000149869 0)
(42.7007 0.000147791 0)
(42.7008 0.000145962 0)
(42.701 0.000144517 0)
(42.7011 0.000143424 0)
(42.7012 0.000142539 0)
(42.7014 0.000141804 0)
(42.7015 0.000141187 0)
(42.7017 0.000140663 0)
(42.7018 0.000140215 0)
(42.702 0.00013983 0)
(42.7021 0.000139518 0)
(42.7023 0.000139221 0)
(42.7024 0.000138978 0)
(42.7026 0.000138758 0)
(42.7027 0.000138576 0)
(42.7028 0.00013846 0)
(42.703 0.000138271 0)
(42.7031 0.000138168 0)
(42.7033 0.000138065 0)
(42.7034 0.000137966 0)
(42.7036 0.000137884 0)
(42.7037 0.000137841 0)
(42.7038 0.000137765 0)
(42.704 0.00013771 0)
(42.7041 0.000137649 0)
(42.7043 0.000137642 0)
(42.7044 0.000137594 0)
(42.7045 0.000137562 0)
(42.7047 0.000137528 0)
(42.7048 0.000137566 0)
(42.705 0.000137432 0)
(42.7051 0.000137428 0)
(42.7052 0.000137373 0)
(42.7054 0.000137283 0)
(42.7055 0.000137148 0)
(42.7057 0.000136946 0)
(42.7058 0.000136638 0)
(42.7059 0.000136252 0)
(42.7061 0.000135671 0)
(42.7062 0.000134871 0)
(42.7063 0.000133797 0)
(42.7065 0.000132443 0)
(42.7066 0.000130795 0)
(42.7068 0.00012845 0)
(42.7069 0.000125846 0)
(42.707 0.000122648 0)
(42.7072 0.000118889 0)
(42.7073 0.000114556 0)
(42.7074 0.000109656 0)
(42.7075 0.000104218 0)
(42.7077 9.82914e-05 0)
(42.7078 9.19463e-05 0)
(42.7079 8.52715e-05 0)
(42.708 7.83699e-05 0)
(42.7081 7.1353e-05 0)
(42.7082 6.43361e-05 0)
(42.7082 5.74328e-05 0)
(42.7083 5.07533e-05 0)
(42.7084 4.43746e-05 0)
(42.7084 3.83939e-05 0)
(42.7085 3.287e-05 0)
(42.7085 2.7833e-05 0)
(42.7086 2.33112e-05 0)
(42.7086 1.93158e-05 0)
(42.7086 1.58299e-05 0)
(42.7087 1.28236e-05 0)
(42.7087 1.02811e-05 0)
(42.7087 8.15354e-06 0)
(42.7087 6.39307e-06 0)
(42.7087 4.9577e-06 0)
(42.7087 3.80417e-06 0)
(42.7088 2.88846e-06 0)
(42.7088 2.1688e-06 0)
(42.7088 1.6116e-06 0)
(42.7088 1.18516e-06 0)
(42.7088 8.62623e-07 0)
(42.7088 6.21583e-07 0)
(42.7088 4.43512e-07 0)
(42.7088 3.13525e-07 0)
(42.7088 2.19539e-07 0)
(42.7088 1.52562e-07 0)
(42.7088 1.05268e-07 0)
(42.7088 7.22886e-08 0)
(42.7088 4.95804e-08 0)
(42.7089 3.41241e-08 0)
(42.7089 2.37412e-08 0)
(42.7089 1.6843e-08 0)
(42.7089 1.23188e-08 0)
(42.7089 9.38563e-09 0)
(42.7089 7.49321e-09 0)
(42.7089 6.29695e-09 0)
(42.7089 5.54883e-09 0)
(42.709 5.10724e-09 0)
(42.709 4.83787e-09 0)
(42.709 4.68278e-09 0)
(42.709 4.59927e-09 0)
(42.709 4.57687e-09 0)
(42.709 4.64707e-09 0)
(42.7091 4.55508e-09 0)
(42.7091 4.67326e-09 0)
(42.7091 4.69953e-09 0)
(42.7091 4.7737e-09 0)
(42.7091 4.68607e-09 0)
(42.7091 4.73108e-09 0)
(42.7091 4.68231e-09 0)
(42.7092 4.43088e-09 0)
(42.7092 4.70162e-09 0)
(42.7092 4.77253e-09 0)
(42.7092 4.72251e-09 0)
(42.7092 5.22686e-09 0)
(42.7092 3.54239e-09 0)
(42.7092 5.64799e-09 0)
(42.7093 4.90203e-09 0)
(42.7093 4.50364e-09 0)
(42.7093 5.37534e-09 0)
(42.7093 5.10305e-09 0)
(42.7093 4.91072e-09 0)
(42.7093 5.25348e-09 0)
(42.7093 4.8042e-09 0)
(42.7093 5.37273e-09 0)
(42.7093 5.14138e-09 0)
(42.7093 5.22383e-09 0)
(42.7093 5.14547e-09 0)
(42.7093 5.20589e-09 0)
(42.7093 5.23591e-09 0)
(42.7093 5.25834e-09 0)
(42.7093 5.26904e-09 0)
(42.7093 5.27677e-09 0)
(42.7093 5.31045e-09 0)
(42.7093 5.02032e-09 0)
(42.7093 5.61316e-09 0)
(42.7093 5.37827e-09 0)
(42.7093 5.37672e-09 0)
(42.7093 5.52941e-09 0)
(42.7093 5.36585e-09 0)
(42.7093 5.46016e-09 0)
(42.7093 5.43378e-09 0)
(42.7093 5.68484e-09 0)
(42.7093 5.79459e-09 0)
(42.7093 5.12133e-09 0)
(42.7092 5.53516e-09 0)
(42.7092 5.45973e-09 0)
(42.7092 5.45147e-09 0)
(42.7092 5.68508e-09 0)
(42.7092 4.50294e-09 0)
(42.7092 5.8203e-09 0)
(42.7092 5.53906e-09 0)
(42.7092 5.29533e-09 0)
(42.7093 5.29202e-09 0)
(42.7093 5.30888e-09 0)
(42.7093 5.3276e-09 0)
(42.7093 5.36052e-09 0)
(42.7093 5.44044e-09 0)
(42.7093 5.51055e-09 0)
(42.7093 4.95618e-09 0)
(42.7094 5.40511e-09 0)
(42.7094 5.35854e-09 0)
(42.7094 5.30634e-09 0)
(42.7095 5.28046e-09 0)
(42.7095 5.27941e-09 0)
(42.7095 5.27028e-09 0)
(42.7096 5.27596e-09 0)
(42.7096 5.28681e-09 0)
(42.7097 5.30833e-09 0)
(42.7097 5.34561e-09 0)
(42.7098 5.37825e-09 0)
(42.7098 5.41726e-09 0)
(42.7099 5.45588e-09 0)
(42.7099 5.49829e-09 0)
(42.71 5.54148e-09 0)
(42.7101 5.57924e-09 0)
(42.7101 5.6231e-09 0)
(42.7102 5.66553e-09 0)
(42.7103 5.71048e-09 0)
(42.7103 5.74798e-09 0)
(42.7104 5.78772e-09 0)
(42.7105 5.83444e-09 0)
(42.7106 5.87588e-09 0)
(42.7106 5.92222e-09 0)
(42.7107 5.96551e-09 0)
(42.7108 5.9776e-09 0)
(42.7109 5.87505e-09 0)
(42.711 5.60117e-09 0)
(42.7111 6.45224e-09 0)
(42.7112 5.34684e-09 0)
(42.7113 2.21549e-08 0)
(42.7114 9.07204e-08 0)
(42.7115 2.99559e-07 0)
(42.7116 1.51671e-06 0)
(42.7117 7.27905e-06 0)
(42.7116 3.50112e-05 0)
(42.7103 0.000168452 0)
(42.7038 0.000807637 0)
(42.6729 0.00382169 0)
(42.5284 0.0178464 0)
(42.063 0.0900275 0)
(37.8755 0.335019 0)
(42.7001 0.000163815 0)
(42.7003 0.000112949 0)
(42.7005 0.000107361 0)
(42.7007 0.000110454 0)
(42.7008 0.000111482 0)
(42.7009 0.000111954 0)
(42.7011 0.000112366 0)
(42.7012 0.000112702 0)
(42.7014 0.000112975 0)
(42.7016 0.000113204 0)
(42.7017 0.000113399 0)
(42.7019 0.000113568 0)
(42.702 0.000113713 0)
(42.7022 0.000113858 0)
(42.7023 0.000113966 0)
(42.7025 0.000114072 0)
(42.7026 0.00011416 0)
(42.7028 0.000114248 0)
(42.7029 0.000114361 0)
(42.7031 0.000114389 0)
(42.7032 0.000114471 0)
(42.7034 0.000114532 0)
(42.7035 0.000114581 0)
(42.7037 0.000114631 0)
(42.7038 0.000114698 0)
(42.704 0.000114727 0)
(42.7041 0.000114765 0)
(42.7043 0.00011479 0)
(42.7044 0.000114851 0)
(42.7046 0.000114869 0)
(42.7047 0.000114899 0)
(42.7049 0.000114919 0)
(42.705 0.000114993 0)
(42.7052 0.000114916 0)
(42.7053 0.000114955 0)
(42.7055 0.000114937 0)
(42.7056 0.000114888 0)
(42.7058 0.000114798 0)
(42.7059 0.000114649 0)
(42.7061 0.000114407 0)
(42.7062 0.000114093 0)
(42.7064 0.000113615 0)
(42.7065 0.000112947 0)
(42.7067 0.000112046 0)
(42.7068 0.000110904 0)
(42.707 0.000109508 0)
(42.7071 0.000107526 0)
(42.7073 0.000105322 0)
(42.7074 0.000102615 0)
(42.7075 9.94338e-05 0)
(42.7077 9.577e-05 0)
(42.7078 9.16304e-05 0)
(42.7079 8.70399e-05 0)
(42.708 8.20419e-05 0)
(42.7081 7.66971e-05 0)
(42.7082 7.1081e-05 0)
(42.7083 6.52808e-05 0)
(42.7084 5.93909e-05 0)
(42.7085 5.35082e-05 0)
(42.7086 4.77278e-05 0)
(42.7086 4.21418e-05 0)
(42.7087 3.68135e-05 0)
(42.7087 3.18246e-05 0)
(42.7088 2.72216e-05 0)
(42.7088 2.30291e-05 0)
(42.7088 1.92701e-05 0)
(42.7088 1.59528e-05 0)
(42.7089 1.30613e-05 0)
(42.7089 1.05701e-05 0)
(42.7089 8.46615e-06 0)
(42.7089 6.70673e-06 0)
(42.7089 5.25261e-06 0)
(42.7089 4.06813e-06 0)
(42.7089 3.1172e-06 0)
(42.7089 2.36297e-06 0)
(42.7089 1.77072e-06 0)
(42.709 1.31261e-06 0)
(42.709 9.62328e-07 0)
(42.709 6.97684e-07 0)
(42.709 5.0014e-07 0)
(42.709 3.54399e-07 0)
(42.709 2.48174e-07 0)
(42.709 1.71486e-07 0)
(42.709 1.16931e-07 0)
(42.709 7.84414e-08 0)
(42.709 5.16025e-08 0)
(42.709 3.30733e-08 0)
(42.709 2.04078e-08 0)
(42.709 1.18427e-08 0)
(42.7091 6.09956e-09 0)
(42.7091 2.29365e-09 0)
(42.7091 -2.15407e-10 0)
(42.7091 -1.8416e-09 0)
(42.7091 -2.90091e-09 0)
(42.7091 -3.57707e-09 0)
(42.7091 -3.98751e-09 0)
(42.7092 -4.24671e-09 0)
(42.7092 -4.38369e-09 0)
(42.7092 -4.4621e-09 0)
(42.7092 -4.49556e-09 0)
(42.7092 -4.45847e-09 0)
(42.7092 -4.57546e-09 0)
(42.7092 -4.43547e-09 0)
(42.7093 -4.41354e-09 0)
(42.7093 -4.32559e-09 0)
(42.7093 -4.46302e-09 0)
(42.7093 -4.42429e-09 0)
(42.7093 -4.49349e-09 0)
(42.7093 -4.6252e-09 0)
(42.7094 -4.41896e-09 0)
(42.7094 -4.31602e-09 0)
(42.7094 -4.40913e-09 0)
(42.7094 -4.03334e-09 0)
(42.7094 -5.28392e-09 0)
(42.7094 -3.56122e-09 0)
(42.7094 -4.16253e-09 0)
(42.7094 -4.48125e-09 0)
(42.7095 -3.74042e-09 0)
(42.7095 -4.00654e-09 0)
(42.7095 -4.16587e-09 0)
(42.7095 -3.87805e-09 0)
(42.7095 -4.23322e-09 0)
(42.7095 -3.74291e-09 0)
(42.7095 -3.95008e-09 0)
(42.7095 -3.86385e-09 0)
(42.7095 -3.94971e-09 0)
(42.7095 -3.8797e-09 0)
(42.7095 -3.85605e-09 0)
(42.7095 -3.82946e-09 0)
(42.7095 -3.8048e-09 0)
(42.7095 -3.78175e-09 0)
(42.7095 -3.77205e-09 0)
(42.7095 -3.92078e-09 0)
(42.7095 -3.4622e-09 0)
(42.7095 -3.6599e-09 0)
(42.7095 -3.66763e-09 0)
(42.7095 -3.48557e-09 0)
(42.7095 -3.67542e-09 0)
(42.7095 -3.54666e-09 0)
(42.7095 -3.5287e-09 0)
(42.7094 -3.35322e-09 0)
(42.7094 -3.33275e-09 0)
(42.7094 -3.78084e-09 0)
(42.7094 -3.36573e-09 0)
(42.7094 -3.44043e-09 0)
(42.7094 -3.4234e-09 0)
(42.7094 -3.25921e-09 0)
(42.7094 -5.05307e-09 0)
(42.7094 -2.76761e-09 0)
(42.7094 -3.00899e-09 0)
(42.7094 -3.42506e-09 0)
(42.7094 -3.40982e-09 0)
(42.7094 -3.35115e-09 0)
(42.7095 -3.29893e-09 0)
(42.7095 -3.21961e-09 0)
(42.7095 -3.03107e-09 0)
(42.7095 -2.68222e-09 0)
(42.7095 -4.18227e-09 0)
(42.7095 -3.02558e-09 0)
(42.7096 -3.04764e-09 0)
(42.7096 -3.11169e-09 0)
(42.7096 -3.11266e-09 0)
(42.7097 -3.09898e-09 0)
(42.7097 -3.07918e-09 0)
(42.7098 -3.04869e-09 0)
(42.7098 -3.00957e-09 0)
(42.7098 -2.96608e-09 0)
(42.7099 -2.90752e-09 0)
(42.7099 -2.85527e-09 0)
(42.71 -2.79854e-09 0)
(42.7101 -2.73703e-09 0)
(42.7101 -2.68244e-09 0)
(42.7102 -2.61567e-09 0)
(42.7102 -2.56167e-09 0)
(42.7103 -2.50088e-09 0)
(42.7104 -2.43963e-09 0)
(42.7104 -2.37663e-09 0)
(42.7105 -2.31377e-09 0)
(42.7106 -2.25182e-09 0)
(42.7107 -2.18281e-09 0)
(42.7107 -2.11596e-09 0)
(42.7108 -2.05037e-09 0)
(42.7109 -1.98578e-09 0)
(42.711 -1.99921e-09 0)
(42.7111 -2.32445e-09 0)
(42.7112 -3.13165e-09 0)
(42.7113 -1.24395e-09 0)
(42.7114 -3.91705e-09 0)
(42.7115 2.9656e-08 0)
(42.7116 1.613e-07 0)
(42.7117 5.72428e-07 0)
(42.7118 2.98707e-06 0)
(42.7119 1.44247e-05 0)
(42.7117 6.93985e-05 0)
(42.7105 0.000334074 0)
(42.7042 0.00160208 0)
(42.6741 0.00758644 0)
(42.5337 0.0354274 0)
(42.0838 0.177824 0)
(38.1305 0.647156 0)
(42.7001 0.00011914 0)
(42.7003 0.000102295 0)
(42.7005 9.96867e-05 0)
(42.7006 0.000103802 0)
(42.7008 0.000105928 0)
(42.7009 0.000107181 0)
(42.7011 0.000108245 0)
(42.7012 0.000109142 0)
(42.7014 0.000109889 0)
(42.7015 0.000110516 0)
(42.7017 0.000111047 0)
(42.7018 0.000111501 0)
(42.702 0.000111889 0)
(42.7021 0.000112235 0)
(42.7023 0.000112523 0)
(42.7024 0.000112781 0)
(42.7026 0.000113003 0)
(42.7027 0.000113205 0)
(42.7029 0.000113404 0)
(42.703 0.000113534 0)
(42.7032 0.000113685 0)
(42.7033 0.00011381 0)
(42.7035 0.000113918 0)
(42.7036 0.000114017 0)
(42.7038 0.000114118 0)
(42.7039 0.00011419 0)
(42.7041 0.000114261 0)
(42.7042 0.000114319 0)
(42.7044 0.000114394 0)
(42.7045 0.000114438 0)
(42.7047 0.000114486 0)
(42.7048 0.000114526 0)
(42.705 0.000114594 0)
(42.7051 0.000114563 0)
(42.7053 0.000114598 0)
(42.7054 0.000114592 0)
(42.7056 0.000114555 0)
(42.7057 0.00011448 0)
(42.7059 0.000114348 0)
(42.706 0.000114131 0)
(42.7062 0.000113832 0)
(42.7063 0.000113391 0)
(42.7065 0.000112766 0)
(42.7066 0.000111923 0)
(42.7068 0.000110841 0)
(42.7069 0.00010949 0)
(42.7071 0.000107648 0)
(42.7072 0.000105524 0)
(42.7074 0.00010293 0)
(42.7075 9.98718e-05 0)
(42.7076 9.63372e-05 0)
(42.7078 9.2329e-05 0)
(42.7079 8.78679e-05 0)
(42.708 8.29925e-05 0)
(42.7081 7.77587e-05 0)
(42.7082 7.22377e-05 0)
(42.7083 6.65127e-05 0)
(42.7084 6.06755e-05 0)
(42.7085 5.48214e-05 0)
(42.7085 4.90451e-05 0)
(42.7086 4.34379e-05 0)
(42.7087 3.80704e-05 0)
(42.7087 3.30203e-05 0)
(42.7087 2.83403e-05 0)
(42.7088 2.40612e-05 0)
(42.7088 2.0208e-05 0)
(42.7088 1.67911e-05 0)
(42.7089 1.38006e-05 0)
(42.7089 1.12156e-05 0)
(42.7089 9.02024e-06 0)
(42.7089 7.17692e-06 0)
(42.7089 5.64787e-06 0)
(42.7089 4.3972e-06 0)
(42.7089 3.38846e-06 0)
(42.7089 2.58489e-06 0)
(42.7089 1.95172e-06 0)
(42.709 1.4598e-06 0)
(42.709 1.08215e-06 0)
(42.709 7.95685e-07 0)
(42.709 5.81004e-07 0)
(42.709 4.22012e-07 0)
(42.709 3.05667e-07 0)
(42.709 2.21407e-07 0)
(42.709 1.6119e-07 0)
(42.709 1.18555e-07 0)
(42.709 8.86856e-08 0)
(42.709 6.79673e-08 0)
(42.709 5.37235e-08 0)
(42.709 4.40271e-08 0)
(42.7091 3.74772e-08 0)
(42.7091 3.30941e-08 0)
(42.7091 3.01752e-08 0)
(42.7091 2.82609e-08 0)
(42.7091 2.70062e-08 0)
(42.7091 2.61911e-08 0)
(42.7091 2.56644e-08 0)
(42.7092 2.53397e-08 0)
(42.7092 2.51602e-08 0)
(42.7092 2.50754e-08 0)
(42.7092 2.50316e-08 0)
(42.7092 2.4925e-08 0)
(42.7092 2.48549e-08 0)
(42.7092 2.50221e-08 0)
(42.7093 2.50974e-08 0)
(42.7093 2.5036e-08 0)
(42.7093 2.49232e-08 0)
(42.7093 2.48718e-08 0)
(42.7093 2.48437e-08 0)
(42.7093 2.47985e-08 0)
(42.7094 2.49885e-08 0)
(42.7094 2.49696e-08 0)
(42.7094 2.4923e-08 0)
(42.7094 2.51066e-08 0)
(42.7094 2.43178e-08 0)
(42.7094 2.55236e-08 0)
(42.7094 2.51971e-08 0)
(42.7094 2.50416e-08 0)
(42.7095 2.54921e-08 0)
(42.7095 2.53411e-08 0)
(42.7095 2.5282e-08 0)
(42.7095 2.54698e-08 0)
(42.7095 2.52593e-08 0)
(42.7095 2.56009e-08 0)
(42.7095 2.54989e-08 0)
(42.7095 2.55128e-08 0)
(42.7095 2.548e-08 0)
(42.7095 2.55809e-08 0)
(42.7095 2.56033e-08 0)
(42.7095 2.56232e-08 0)
(42.7095 2.56648e-08 0)
(42.7095 2.57312e-08 0)
(42.7095 2.57468e-08 0)
(42.7095 2.56127e-08 0)
(42.7095 2.59641e-08 0)
(42.7095 2.59129e-08 0)
(42.7095 2.59379e-08 0)
(42.7095 2.59431e-08 0)
(42.7095 2.58962e-08 0)
(42.7095 2.6084e-08 0)
(42.7095 2.61404e-08 0)
(42.7094 2.62488e-08 0)
(42.7094 2.61168e-08 0)
(42.7094 2.60896e-08 0)
(42.7094 2.64204e-08 0)
(42.7094 2.63402e-08 0)
(42.7094 2.64348e-08 0)
(42.7094 2.62547e-08 0)
(42.7094 2.33047e-08 0)
(42.7094 2.80075e-08 0)
(42.7094 2.74235e-08 0)
(42.7094 2.64772e-08 0)
(42.7094 2.64818e-08 0)
(42.7094 2.65742e-08 0)
(42.7095 2.66597e-08 0)
(42.7095 2.68102e-08 0)
(42.7095 2.72171e-08 0)
(42.7095 2.76336e-08 0)
(42.7095 2.48759e-08 0)
(42.7095 2.74898e-08 0)
(42.7096 2.71919e-08 0)
(42.7096 2.70064e-08 0)
(42.7096 2.70003e-08 0)
(42.7097 2.70275e-08 0)
(42.7097 2.70552e-08 0)
(42.7098 2.71026e-08 0)
(42.7098 2.71509e-08 0)
(42.7098 2.72066e-08 0)
(42.7099 2.72898e-08 0)
(42.7099 2.73486e-08 0)
(42.71 2.74414e-08 0)
(42.7101 2.75193e-08 0)
(42.7101 2.75922e-08 0)
(42.7102 2.7706e-08 0)
(42.7102 2.77648e-08 0)
(42.7103 2.78643e-08 0)
(42.7104 2.79613e-08 0)
(42.7104 2.80535e-08 0)
(42.7105 2.81457e-08 0)
(42.7106 2.82526e-08 0)
(42.7107 2.83547e-08 0)
(42.7107 2.84677e-08 0)
(42.7108 2.8557e-08 0)
(42.7109 2.86859e-08 0)
(42.711 2.861e-08 0)
(42.7111 2.79595e-08 0)
(42.7112 2.56202e-08 0)
(42.7113 3.07289e-08 0)
(42.7114 3.29472e-08 0)
(42.7115 9.61223e-08 0)
(42.7116 4.79534e-07 0)
(42.7117 1.4697e-06 0)
(42.7118 7.60198e-06 0)
(42.7119 3.65069e-05 0)
(42.7118 0.000175551 0)
(42.7107 0.000844902 0)
(42.7051 0.00404874 0)
(42.6785 0.0191395 0)
(42.5558 0.0882869 0)
(42.1657 0.408537 0)
(39.1592 1.46547 0)
(42.7001 3.599e-05 0)
(42.7003 2.78261e-05 0)
(42.7004 1.98473e-05 0)
(42.7006 1.6645e-05 0)
(42.7007 1.40806e-05 0)
(42.7009 1.18802e-05 0)
(42.701 1.01487e-05 0)
(42.7012 8.75699e-06 0)
(42.7013 7.60702e-06 0)
(42.7015 6.64382e-06 0)
(42.7016 5.82891e-06 0)
(42.7018 5.13485e-06 0)
(42.7019 4.53784e-06 0)
(42.7021 4.02573e-06 0)
(42.7022 3.57759e-06 0)
(42.7024 3.18824e-06 0)
(42.7025 2.84662e-06 0)
(42.7027 2.54838e-06 0)
(42.7028 2.29117e-06 0)
(42.703 2.05198e-06 0)
(42.7031 1.85029e-06 0)
(42.7033 1.67015e-06 0)
(42.7034 1.50966e-06 0)
(42.7036 1.36797e-06 0)
(42.7037 1.24532e-06 0)
(42.7039 1.13211e-06 0)
(42.704 1.0328e-06 0)
(42.7042 9.43195e-07 0)
(42.7043 8.69411e-07 0)
(42.7045 7.97101e-07 0)
(42.7046 7.35196e-07 0)
(42.7048 6.79588e-07 0)
(42.7049 6.39859e-07 0)
(42.7051 5.79957e-07 0)
(42.7052 5.47612e-07 0)
(42.7054 5.13527e-07 0)
(42.7056 4.81389e-07 0)
(42.7057 4.52121e-07 0)
(42.7059 4.24751e-07 0)
(42.706 3.9567e-07 0)
(42.7062 3.71199e-07 0)
(42.7063 3.46753e-07 0)
(42.7065 3.14381e-07 0)
(42.7066 2.78767e-07 0)
(42.7068 2.45644e-07 0)
(42.7069 2.1823e-07 0)
(42.7071 1.47541e-07 0)
(42.7072 1.04339e-07 0)
(42.7073 4.72588e-08 0)
(42.7075 -1.57148e-08 0)
(42.7076 -8.26925e-08 0)
(42.7077 -1.52162e-07 0)
(42.7079 -2.22199e-07 0)
(42.708 -2.90613e-07 0)
(42.7081 -3.55094e-07 0)
(42.7082 -4.13365e-07 0)
(42.7083 -4.63379e-07 0)
(42.7084 -5.03439e-07 0)
(42.7085 -5.3234e-07 0)
(42.7085 -5.49306e-07 0)
(42.7086 -5.53772e-07 0)
(42.7087 -5.48894e-07 0)
(42.7087 -5.33083e-07 0)
(42.7087 -5.07297e-07 0)
(42.7088 -4.756e-07 0)
(42.7088 -4.38896e-07 0)
(42.7088 -3.98038e-07 0)
(42.7089 -3.55971e-07 0)
(42.7089 -3.15385e-07 0)
(42.7089 -2.74628e-07 0)
(42.7089 -2.36247e-07 0)
(42.7089 -2.01682e-07 0)
(42.7089 -1.70753e-07 0)
(42.7089 -1.43302e-07 0)
(42.7089 -1.19536e-07 0)
(42.7089 -9.96967e-08 0)
(42.709 -8.31697e-08 0)
(42.709 -6.96902e-08 0)
(42.709 -5.89157e-08 0)
(42.709 -5.0456e-08 0)
(42.709 -4.39347e-08 0)
(42.709 -3.89949e-08 0)
(42.709 -3.53475e-08 0)
(42.709 -3.26433e-08 0)
(42.709 -3.06593e-08 0)
(42.709 -2.91764e-08 0)
(42.709 -2.8041e-08 0)
(42.709 -2.71579e-08 0)
(42.709 -2.64618e-08 0)
(42.7091 -2.59171e-08 0)
(42.7091 -2.54883e-08 0)
(42.7091 -2.51581e-08 0)
(42.7091 -2.49049e-08 0)
(42.7091 -2.47192e-08 0)
(42.7091 -2.45769e-08 0)
(42.7091 -2.44575e-08 0)
(42.7092 -2.43809e-08 0)
(42.7092 -2.43383e-08 0)
(42.7092 -2.43218e-08 0)
(42.7092 -2.42964e-08 0)
(42.7092 -2.41825e-08 0)
(42.7092 -2.41916e-08 0)
(42.7092 -2.42336e-08 0)
(42.7093 -2.42742e-08 0)
(42.7093 -2.417e-08 0)
(42.7093 -2.41559e-08 0)
(42.7093 -2.40711e-08 0)
(42.7093 -2.41052e-08 0)
(42.7093 -2.41779e-08 0)
(42.7094 -2.41928e-08 0)
(42.7094 -2.40995e-08 0)
(42.7094 -2.4106e-08 0)
(42.7094 -2.39983e-08 0)
(42.7094 -2.42544e-08 0)
(42.7094 -2.40143e-08 0)
(42.7094 -2.41827e-08 0)
(42.7094 -2.42983e-08 0)
(42.7095 -2.4145e-08 0)
(42.7095 -2.42054e-08 0)
(42.7095 -2.42583e-08 0)
(42.7095 -2.42255e-08 0)
(42.7095 -2.43039e-08 0)
(42.7095 -2.42388e-08 0)
(42.7095 -2.42905e-08 0)
(42.7095 -2.42615e-08 0)
(42.7095 -2.42969e-08 0)
(42.7095 -2.43226e-08 0)
(42.7095 -2.43349e-08 0)
(42.7095 -2.43255e-08 0)
(42.7095 -2.43567e-08 0)
(42.7095 -2.43978e-08 0)
(42.7095 -2.44151e-08 0)
(42.7095 -2.44206e-08 0)
(42.7095 -2.4403e-08 0)
(42.7095 -2.44757e-08 0)
(42.7095 -2.45053e-08 0)
(42.7095 -2.44029e-08 0)
(42.7095 -2.45229e-08 0)
(42.7095 -2.45768e-08 0)
(42.7095 -2.46441e-08 0)
(42.7094 -2.47569e-08 0)
(42.7094 -2.51348e-08 0)
(42.7094 -2.41862e-08 0)
(42.7094 -2.43921e-08 0)
(42.7094 -2.47452e-08 0)
(42.7094 -2.46522e-08 0)
(42.7094 -2.46084e-08 0)
(42.7094 -3.15608e-08 0)
(42.7094 -2.0509e-08 0)
(42.7094 -2.28667e-08 0)
(42.7094 -2.49007e-08 0)
(42.7094 -2.50307e-08 0)
(42.7094 -2.50387e-08 0)
(42.7095 -2.50709e-08 0)
(42.7095 -2.49818e-08 0)
(42.7095 -2.4246e-08 0)
(42.7095 -1.96847e-08 0)
(42.7095 -3.31591e-08 0)
(42.7095 -2.42547e-08 0)
(42.7096 -2.49002e-08 0)
(42.7096 -2.53377e-08 0)
(42.7096 -2.54189e-08 0)
(42.7097 -2.54547e-08 0)
(42.7097 -2.54972e-08 0)
(42.7098 -2.55217e-08 0)
(42.7098 -2.55459e-08 0)
(42.7098 -2.56017e-08 0)
(42.7099 -2.56109e-08 0)
(42.7099 -2.5664e-08 0)
(42.71 -2.57128e-08 0)
(42.7101 -2.57303e-08 0)
(42.7101 -2.58058e-08 0)
(42.7102 -2.58296e-08 0)
(42.7102 -2.58721e-08 0)
(42.7103 -2.59369e-08 0)
(42.7104 -2.59706e-08 0)
(42.7104 -2.60206e-08 0)
(42.7105 -2.60819e-08 0)
(42.7106 -2.61293e-08 0)
(42.7107 -2.61793e-08 0)
(42.7107 -2.62557e-08 0)
(42.7108 -2.63534e-08 0)
(42.7109 -2.64408e-08 0)
(42.711 -2.68412e-08 0)
(42.7111 -2.84784e-08 0)
(42.7112 -3.4157e-08 0)
(42.7113 -2.32041e-08 0)
(42.7114 -2.08557e-08 0)
(42.7115 1.27853e-07 0)
(42.7116 6.27459e-07 0)
(42.7117 2.51137e-06 0)
(42.7118 1.24696e-05 0)
(42.7119 6.05587e-05 0)
(42.712 0.000291671 0)
(42.7117 0.00140566 0)
(42.7095 0.00674633 0)
(42.6987 0.0319961 0)
(42.6458 0.14804 0)
(42.475 0.66505 0)
(40.6896 2.36121 0)
(42.7001 -3.599e-05 0)
(42.7003 -2.78261e-05 0)
(42.7004 -1.98473e-05 0)
(42.7006 -1.6645e-05 0)
(42.7007 -1.40806e-05 0)
(42.7009 -1.18802e-05 0)
(42.701 -1.01487e-05 0)
(42.7012 -8.75699e-06 0)
(42.7013 -7.60702e-06 0)
(42.7015 -6.64382e-06 0)
(42.7016 -5.82891e-06 0)
(42.7018 -5.13485e-06 0)
(42.7019 -4.53784e-06 0)
(42.7021 -4.02573e-06 0)
(42.7022 -3.57759e-06 0)
(42.7024 -3.18824e-06 0)
(42.7025 -2.84662e-06 0)
(42.7027 -2.54838e-06 0)
(42.7028 -2.29117e-06 0)
(42.703 -2.05198e-06 0)
(42.7031 -1.85029e-06 0)
(42.7033 -1.67016e-06 0)
(42.7034 -1.50966e-06 0)
(42.7036 -1.36797e-06 0)
(42.7037 -1.24532e-06 0)
(42.7039 -1.13211e-06 0)
(42.704 -1.0328e-06 0)
(42.7042 -9.43197e-07 0)
(42.7043 -8.69412e-07 0)
(42.7045 -7.97101e-07 0)
(42.7046 -7.35193e-07 0)
(42.7048 -6.79589e-07 0)
(42.7049 -6.39863e-07 0)
(42.7051 -5.7996e-07 0)
(42.7052 -5.47614e-07 0)
(42.7054 -5.13528e-07 0)
(42.7056 -4.81384e-07 0)
(42.7057 -4.52118e-07 0)
(42.7059 -4.2475e-07 0)
(42.706 -3.95669e-07 0)
(42.7062 -3.71199e-07 0)
(42.7063 -3.46752e-07 0)
(42.7065 -3.1438e-07 0)
(42.7066 -2.78768e-07 0)
(42.7068 -2.45643e-07 0)
(42.7069 -2.18229e-07 0)
(42.7071 -1.47542e-07 0)
(42.7072 -1.0434e-07 0)
(42.7073 -4.72591e-08 0)
(42.7075 1.57146e-08 0)
(42.7076 8.26942e-08 0)
(42.7077 1.52162e-07 0)
(42.7079 2.222e-07 0)
(42.708 2.90615e-07 0)
(42.7081 3.55094e-07 0)
(42.7082 4.13366e-07 0)
(42.7083 4.6338e-07 0)
(42.7084 5.0344e-07 0)
(42.7085 5.3234e-07 0)
(42.7085 5.49305e-07 0)
(42.7086 5.53772e-07 0)
(42.7087 5.48895e-07 0)
(42.7087 5.33085e-07 0)
(42.7087 5.07296e-07 0)
(42.7088 4.75598e-07 0)
(42.7088 4.38896e-07 0)
(42.7088 3.98039e-07 0)
(42.7089 3.5597e-07 0)
(42.7089 3.15389e-07 0)
(42.7089 2.74629e-07 0)
(42.7089 2.36247e-07 0)
(42.7089 2.01684e-07 0)
(42.7089 1.70753e-07 0)
(42.7089 1.43302e-07 0)
(42.7089 1.19536e-07 0)
(42.7089 9.96957e-08 0)
(42.709 8.31704e-08 0)
(42.709 6.96935e-08 0)
(42.709 5.89158e-08 0)
(42.709 5.04548e-08 0)
(42.709 4.39366e-08 0)
(42.709 3.89974e-08 0)
(42.709 3.53488e-08 0)
(42.709 3.26441e-08 0)
(42.709 3.06597e-08 0)
(42.709 2.91748e-08 0)
(42.709 2.80413e-08 0)
(42.709 2.7156e-08 0)
(42.709 2.64621e-08 0)
(42.7091 2.59164e-08 0)
(42.7091 2.54902e-08 0)
(42.7091 2.51602e-08 0)
(42.7091 2.49095e-08 0)
(42.7091 2.47186e-08 0)
(42.7091 2.45787e-08 0)
(42.7091 2.44588e-08 0)
(42.7092 2.43835e-08 0)
(42.7092 2.43408e-08 0)
(42.7092 2.43227e-08 0)
(42.7092 2.42959e-08 0)
(42.7092 2.41816e-08 0)
(42.7092 2.41885e-08 0)
(42.7092 2.42321e-08 0)
(42.7093 2.42742e-08 0)
(42.7093 2.41718e-08 0)
(42.7093 2.4156e-08 0)
(42.7093 2.40719e-08 0)
(42.7093 2.41065e-08 0)
(42.7093 2.41803e-08 0)
(42.7094 2.41958e-08 0)
(42.7094 2.41003e-08 0)
(42.7094 2.41067e-08 0)
(42.7094 2.39982e-08 0)
(42.7094 2.42541e-08 0)
(42.7094 2.40121e-08 0)
(42.7094 2.41832e-08 0)
(42.7094 2.42987e-08 0)
(42.7095 2.41437e-08 0)
(42.7095 2.42055e-08 0)
(42.7095 2.42573e-08 0)
(42.7095 2.42241e-08 0)
(42.7095 2.43027e-08 0)
(42.7095 2.42375e-08 0)
(42.7095 2.4291e-08 0)
(42.7095 2.42608e-08 0)
(42.7095 2.42975e-08 0)
(42.7095 2.43211e-08 0)
(42.7095 2.43335e-08 0)
(42.7095 2.43271e-08 0)
(42.7095 2.43573e-08 0)
(42.7095 2.44001e-08 0)
(42.7095 2.44188e-08 0)
(42.7095 2.44241e-08 0)
(42.7095 2.44014e-08 0)
(42.7095 2.4475e-08 0)
(42.7095 2.45097e-08 0)
(42.7095 2.4421e-08 0)
(42.7095 2.45109e-08 0)
(42.7095 2.45607e-08 0)
(42.7095 2.46239e-08 0)
(42.7094 2.44619e-08 0)
(42.7094 2.36338e-08 0)
(42.7094 2.53299e-08 0)
(42.7094 2.50844e-08 0)
(42.7094 2.48041e-08 0)
(42.7094 2.50137e-08 0)
(42.7094 2.52907e-08 0)
(42.7094 1.53389e-08 0)
(42.7094 3.07778e-08 0)
(42.7094 2.74929e-08 0)
(42.7094 2.50513e-08 0)
(42.7094 2.50008e-08 0)
(42.7094 2.50867e-08 0)
(42.7095 2.51508e-08 0)
(42.7095 2.53405e-08 0)
(42.7095 2.62192e-08 0)
(42.7095 3.18128e-08 0)
(42.7095 1.35378e-08 0)
(42.7095 2.81788e-08 0)
(42.7096 2.59628e-08 0)
(42.7096 2.5452e-08 0)
(42.7096 2.54431e-08 0)
(42.7097 2.54603e-08 0)
(42.7097 2.54879e-08 0)
(42.7098 2.55191e-08 0)
(42.7098 2.55628e-08 0)
(42.7098 2.55866e-08 0)
(42.7099 2.56321e-08 0)
(42.7099 2.56716e-08 0)
(42.71 2.5702e-08 0)
(42.7101 2.57532e-08 0)
(42.7101 2.5788e-08 0)
(42.7102 2.58346e-08 0)
(42.7102 2.58887e-08 0)
(42.7103 2.59232e-08 0)
(42.7104 2.59817e-08 0)
(42.7104 2.60191e-08 0)
(42.7105 2.6078e-08 0)
(42.7106 2.61301e-08 0)
(42.7107 2.61913e-08 0)
(42.7107 2.62331e-08 0)
(42.7108 2.62958e-08 0)
(42.7109 2.62814e-08 0)
(42.711 2.59401e-08 0)
(42.7111 2.38444e-08 0)
(42.7112 1.28073e-08 0)
(42.7113 3.09295e-08 0)
(42.7114 -1.10377e-08 0)
(42.7115 2.38576e-07 0)
(42.7116 5.74044e-07 0)
(42.7117 2.68308e-06 0)
(42.7118 1.25117e-05 0)
(42.712 6.06821e-05 0)
(42.7122 0.00029283 0)
(42.7128 0.00141718 0)
(42.715 0.00686773 0)
(42.7243 0.0330872 0)
(42.7627 0.157918 0)
(42.8982 0.755608 0)
(43.4046 2.65638 0)
(42.7001 -0.00011914 0)
(42.7003 -0.000102295 0)
(42.7005 -9.96867e-05 0)
(42.7006 -0.000103802 0)
(42.7008 -0.000105928 0)
(42.7009 -0.000107181 0)
(42.7011 -0.000108245 0)
(42.7012 -0.000109142 0)
(42.7014 -0.000109889 0)
(42.7015 -0.000110516 0)
(42.7017 -0.000111047 0)
(42.7018 -0.000111501 0)
(42.702 -0.000111889 0)