/*--------------------------------*- C++ -*----------------------------------*\
| =========                 |                                                 |
| \\      /  F ield         | OpenFOAM: The Open Source CFD Toolbox           |
|  \\    /   O peration     | Version:  3.0.x                                 |
|   \\  /    A nd           | Web:      www.OpenFOAM.org                      |
|    \\/     M anipulation  |                                                 |
\*---------------------------------------------------------------------------*/
FoamFile
{
    version     2.0;
    format      ascii;
    class       volScalarField;
    location    "0.13995";
    object      rho;
}
// * * * * * * * * * * * * * * * * * * * * * * * * * * * * * * * * * * * * * //

dimensions      [1 -3 0 0 0 0 0];

internalField   nonuniform List<scalar> 
13800
(
50.5057
50.5057
50.5059
50.5061
50.5063
50.5066
50.507
50.5074
50.5079
50.5085
50.5092
50.5101
50.5109
50.5118
50.5128
50.514
50.5153
50.5168
50.5186
50.5204
50.5224
50.5244
50.5263
50.5283
50.5302
50.5322
50.5341
50.5359
50.5377
50.5393
50.5409
50.5422
50.5434
50.5444
50.5452
50.5458
50.5462
50.5463
50.5463
50.5461
50.5457
50.5451
50.5443
50.5434
50.5424
50.5413
50.5402
50.539
50.5378
50.5366
50.5354
50.5342
50.5331
50.5321
50.5312
50.5303
50.5295
50.5288
50.5282
50.5277
50.5272
50.5268
50.5265
50.5262
50.526
50.5258
50.5256
50.5254
50.5253
50.5252
50.5252
50.5251
50.525
50.525
50.525
50.525
50.525
50.525
50.525
50.5251
50.5252
50.5253
50.5255
50.5257
50.526
50.5263
50.5267
50.5272
50.5277
50.5284
50.5291
50.5299
50.5309
50.5319
50.5331
50.5344
50.5358
50.5373
50.5389
50.5407
50.5425
50.5444
50.5463
50.5483
50.5503
50.5523
50.5543
50.5562
50.558
50.5597
50.5612
50.5626
50.5638
50.5649
50.5657
50.5663
50.5667
50.5668
50.5668
50.5666
50.5663
50.5657
50.5651
50.5643
50.5634
50.5625
50.5616
50.5607
50.5598
50.559
50.5582
50.5576
50.5571
50.5567
50.5564
50.5563
50.5563
50.5564
50.5566
50.557
50.5575
50.558
50.5587
50.5593
50.56
50.5607
50.5614
50.5621
50.5628
50.5634
50.5639
50.5643
50.5647
50.5649
50.565
50.565
50.5648
50.5645
50.5641
50.5635
50.5628
50.562
50.5611
50.56
50.5588
50.5576
50.5562
50.5548
50.5533
50.5518
50.5502
50.5486
50.547
50.5454
50.5439
50.5423
50.5408
50.5393
50.5379
50.5365
50.5352
50.534
50.5328
50.5317
50.5307
50.5298
50.5289
50.5281
50.5273
50.5267
50.5261
50.5255
50.525
50.5246
50.5242
50.5239
50.5237
50.5236
50.5271
50.518
50.5061
50.5062
50.5063
50.5065
50.5068
50.5071
50.5074
50.5079
50.5084
50.509
50.5097
50.5105
50.5113
50.5122
50.5133
50.5144
50.5157
50.5172
50.519
50.5208
50.5228
50.5247
50.5267
50.5286
50.5306
50.5325
50.5344
50.5363
50.538
50.5397
50.5412
50.5426
50.5438
50.5448
50.5456
50.5461
50.5465
50.5466
50.5466
50.5464
50.546
50.5454
50.5446
50.5437
50.5427
50.5416
50.5405
50.5393
50.5381
50.5369
50.5357
50.5345
50.5334
50.5324
50.5315
50.5306
50.5298
50.5291
50.5285
50.528
50.5275
50.5271
50.5268
50.5265
50.5263
50.5261
50.5259
50.5257
50.5256
50.5255
50.5255
50.5254
50.5253
50.5253
50.5253
50.5253
50.5253
50.5253
50.5253
50.5254
50.5255
50.5256
50.5258
50.526
50.5263
50.5266
50.527
50.5275
50.528
50.5287
50.5294
50.5302
50.5312
50.5322
50.5334
50.5347
50.5361
50.5376
50.5392
50.541
50.5428
50.5447
50.5466
50.5486
50.5506
50.5526
50.5546
50.5565
50.5583
50.56
50.5615
50.5629
50.5641
50.5652
50.566
50.5666
50.567
50.5671
50.5671
50.5669
50.5666
50.566
50.5654
50.5646
50.5637
50.5628
50.5619
50.561
50.5601
50.5593
50.5585
50.5579
50.5574
50.557
50.5567
50.5566
50.5566
50.5567
50.5569
50.5573
50.5578
50.5583
50.559
50.5596
50.5603
50.561
50.5617
50.5624
50.5631
50.5637
50.5642
50.5646
50.565
50.5652
50.5653
50.5653
50.5651
50.5648
50.5644
50.5638
50.5631
50.5623
50.5614
50.5603
50.5591
50.5579
50.5565
50.5551
50.5536
50.5521
50.5505
50.5489
50.5473
50.5457
50.5442
50.5426
50.5411
50.5396
50.5382
50.5368
50.5355
50.5343
50.5331
50.532
50.531
50.5301
50.5292
50.5284
50.5276
50.527
50.5264
50.5258
50.5253
50.5249
50.5245
50.5242
50.524
50.5238
50.5274
50.5149
50.5061
50.5062
50.5063
50.5065
50.5068
50.507
50.5074
50.5079
50.5084
50.509
50.5097
50.5105
50.5113
50.5122
50.5132
50.5144
50.5157
50.5172
50.519
50.5208
50.5228
50.5247
50.5267
50.5286
50.5306
50.5325
50.5344
50.5363
50.538
50.5397
50.5412
50.5426
50.5438
50.5448
50.5456
50.5461
50.5465
50.5466
50.5466
50.5464
50.546
50.5454
50.5446
50.5437
50.5427
50.5416
50.5405
50.5393
50.5381
50.5369
50.5357
50.5345
50.5334
50.5324
50.5315
50.5306
50.5298
50.5291
50.5285
50.528
50.5275
50.5271
50.5268
50.5265
50.5263
50.5261
50.5259
50.5257
50.5256
50.5255
50.5255
50.5254
50.5253
50.5253
50.5253
50.5253
50.5253
50.5253
50.5253
50.5254
50.5255
50.5256
50.5258
50.526
50.5263
50.5266
50.527
50.5275
50.528
50.5287
50.5294
50.5302
50.5312
50.5322
50.5334
50.5347
50.5361
50.5376
50.5392
50.541
50.5428
50.5447
50.5466
50.5486
50.5506
50.5526
50.5546
50.5565
50.5583
50.56
50.5615
50.5629
50.5641
50.5652
50.566
50.5666
50.567
50.5671
50.5671
50.5669
50.5666
50.566
50.5654
50.5646
50.5637
50.5628
50.5619
50.561
50.5601
50.5593
50.5585
50.5579
50.5574
50.557
50.5567
50.5566
50.5566
50.5567
50.5569
50.5573
50.5578
50.5583
50.559
50.5596
50.5603
50.561
50.5617
50.5624
50.5631
50.5637
50.5642
50.5646
50.565
50.5652
50.5653
50.5653
50.5651
50.5648
50.5644
50.5638
50.5631
50.5623
50.5614
50.5603
50.5591
50.5579
50.5565
50.5551
50.5536
50.5521
50.5505
50.5489
50.5473
50.5457
50.5442
50.5426
50.5411
50.5396
50.5382
50.5368
50.5355
50.5343
50.5331
50.532
50.531
50.5301
50.5292
50.5284
50.5276
50.527
50.5264
50.5258
50.5253
50.5249
50.5245
50.5242
50.524
50.5238
50.5274
50.5152
50.5061
50.5062
50.5063
50.5065
50.5067
50.507
50.5074
50.5078
50.5084
50.509
50.5097
50.5105
50.5113
50.5122
50.5132
50.5144
50.5157
50.5172
50.519
50.5208
50.5228
50.5247
50.5267
50.5286
50.5306
50.5325
50.5344
50.5363
50.538
50.5397
50.5412
50.5426
50.5438
50.5448
50.5456
50.5461
50.5465
50.5466
50.5466
50.5464
50.546
50.5454
50.5446
50.5437
50.5427
50.5416
50.5405
50.5393
50.5381
50.5369
50.5357
50.5345
50.5334
50.5324
50.5315
50.5306
50.5298
50.5291
50.5285
50.528
50.5275
50.5271
50.5268
50.5265
50.5263
50.5261
50.5259
50.5257
50.5256
50.5255
50.5255
50.5254
50.5253
50.5253
50.5253
50.5253
50.5253
50.5253
50.5253
50.5254
50.5255
50.5256
50.5258
50.526
50.5263
50.5266
50.527
50.5275
50.528
50.5287
50.5294
50.5302
50.5312
50.5322
50.5334
50.5347
50.5361
50.5376
50.5392
50.541
50.5428
50.5447
50.5466
50.5486
50.5506
50.5526
50.5546
50.5565
50.5583
50.56
50.5615
50.5629
50.5641
50.5652
50.566
50.5666
50.567
50.5671
50.5671
50.5669
50.5666
50.566
50.5654
50.5646
50.5637
50.5628
50.5619
50.561
50.5601
50.5593
50.5585
50.5579
50.5574
50.557
50.5567
50.5566
50.5566
50.5567
50.5569
50.5573
50.5578
50.5583
50.559
50.5596
50.5603
50.561
50.5617
50.5624
50.5631
50.5637
50.5642
50.5646
50.565
50.5652
50.5653
50.5653
50.5651
50.5648
50.5644
50.5638
50.5631
50.5623
50.5614
50.5603
50.5591
50.5579
50.5565
50.5551
50.5536
50.5521
50.5505
50.5489
50.5473
50.5457
50.5442
50.5426
50.5411
50.5396
50.5382
50.5368
50.5355
50.5343
50.5331
50.532
50.531
50.5301
50.5292
50.5284
50.5276
50.527
50.5264
50.5258
50.5253
50.5249
50.5245
50.5242
50.524
50.5239
50.5268
50.5191
50.5061
50.5062
50.5063
50.5065
50.5067
50.507
50.5074
50.5078
50.5084
50.509
50.5097
50.5105
50.5113
50.5122
50.5132
50.5144
50.5157
50.5172
50.519
50.5208
50.5228
50.5247
50.5267
50.5286
50.5306
50.5325
50.5344
50.5363
50.538
50.5397
50.5412
50.5426
50.5438
50.5448
50.5456
50.5461
50.5465
50.5466
50.5466
50.5464
50.546
50.5454
50.5446
50.5437
50.5427
50.5416
50.5405
50.5393
50.5381
50.5369
50.5357
50.5345
50.5334
50.5324
50.5315
50.5306
50.5298
50.5291
50.5285
50.528
50.5275
50.5271
50.5268
50.5265
50.5263
50.5261
50.5259
50.5257
50.5256
50.5255
50.5255
50.5254
50.5253
50.5253
50.5253
50.5253
50.5253
50.5253
50.5253
50.5254
50.5255
50.5256
50.5258
50.526
50.5263
50.5266
50.527
50.5275
50.528
50.5287
50.5294
50.5302
50.5312
50.5322
50.5334
50.5347
50.5361
50.5376
50.5392
50.541
50.5428
50.5447
50.5466
50.5486
50.5506
50.5526
50.5546
50.5565
50.5583
50.56
50.5615
50.5629
50.5641
50.5652
50.566
50.5666
50.567
50.5671
50.5671
50.5669
50.5666
50.566
50.5654
50.5646
50.5637
50.5628
50.5619
50.561
50.5601
50.5593
50.5585
50.5579
50.5574
50.557
50.5567
50.5566
50.5566
50.5567
50.5569
50.5573
50.5578
50.5583
50.559
50.5596
50.5603
50.561
50.5617
50.5624
50.5631
50.5637
50.5642
50.5646
50.565
50.5652
50.5653
50.5653
50.5651
50.5648
50.5644
50.5638
50.5631
50.5623
50.5614
50.5603
50.5591
50.5579
50.5565
50.5551
50.5536
50.5521
50.5505
50.5489
50.5473
50.5457
50.5442
50.5426
50.5411
50.5396
50.5382
50.5368
50.5355
50.5343
50.5331
50.532
50.531
50.5301
50.5292
50.5284
50.5276
50.527
50.5264
50.5258
50.5253
50.5249
50.5245
50.5242
50.5239
50.5236
50.525
50.5171
50.5061
50.5062
50.5063
50.5065
50.5067
50.507
50.5074
50.5078
50.5084
50.509
50.5097
50.5105
50.5113
50.5122
50.5132
50.5144
50.5157
50.5172
50.519
50.5208
50.5228
50.5247
50.5267
50.5286
50.5306
50.5325
50.5344
50.5363
50.538
50.5397
50.5412
50.5426
50.5438
50.5448
50.5456
50.5461
50.5465
50.5466
50.5466
50.5464
50.546
50.5454
50.5446
50.5437
50.5427
50.5416
50.5405
50.5393
50.5381
50.5369
50.5357
50.5345
50.5334
50.5324
50.5315
50.5306
50.5298
50.5291
50.5285
50.528
50.5275
50.5271
50.5268
50.5265
50.5263
50.5261
50.5259
50.5257
50.5256
50.5255
50.5255
50.5254
50.5253
50.5253
50.5253
50.5253
50.5253
50.5253
50.5253
50.5254
50.5255
50.5256
50.5258
50.526
50.5263
50.5266
50.527
50.5275
50.528
50.5287
50.5294
50.5302
50.5312
50.5322
50.5334
50.5347
50.5361
50.5376
50.5392
50.541
50.5428
50.5447
50.5466
50.5486
50.5506
50.5526
50.5546
50.5565
50.5583
50.56
50.5615
50.5629
50.5641
50.5652
50.566
50.5666
50.567
50.5671
50.5671
50.5669
50.5666
50.566
50.5654
50.5646
50.5637
50.5628
50.5619
50.561
50.5601
50.5593
50.5585
50.5579
50.5574
50.557
50.5567
50.5566
50.5566
50.5567
50.5569
50.5573
50.5578
50.5583
50.559
50.5596
50.5603
50.561
50.5617
50.5624
50.5631
50.5637
50.5642
50.5646
50.565
50.5652
50.5653
50.5653
50.5651
50.5648
50.5644
50.5638
50.5631
50.5623
50.5614
50.5603
50.5591
50.5579
50.5565
50.5551
50.5536
50.5521
50.5505
50.5489
50.5473
50.5457
50.5442
50.5426
50.5411
50.5396
50.5382
50.5368
50.5355
50.5343
50.5331
50.532
50.531
50.5301
50.5292
50.5284
50.5276
50.527
50.5264
50.5258
50.5253
50.5249
50.5245
50.5241
50.5238
50.5234
50.5224
50.5204
50.5061
50.5062
50.5063
50.5065
50.5067
50.507
50.5074
50.5078
50.5084
50.509
50.5097
50.5105
50.5113
50.5122
50.5132
50.5144
50.5157
50.5172
50.519
50.5208
50.5228
50.5247
50.5267
50.5286
50.5306
50.5325
50.5344
50.5363
50.538
50.5397
50.5412
50.5426
50.5438
50.5448
50.5456
50.5461
50.5465
50.5466
50.5466
50.5464
50.546
50.5454
50.5446
50.5437
50.5427
50.5416
50.5405
50.5393
50.5381
50.5369
50.5357
50.5345
50.5334
50.5324
50.5315
50.5306
50.5298
50.5291
50.5285
50.528
50.5275
50.5271
50.5268
50.5265
50.5263
50.5261
50.5259
50.5257
50.5256
50.5255
50.5255
50.5254
50.5253
50.5253
50.5253
50.5253
50.5253
50.5253
50.5253
50.5254
50.5255
50.5256
50.5258
50.526
50.5263
50.5266
50.527
50.5275
50.528
50.5287
50.5294
50.5302
50.5312
50.5322
50.5334
50.5347
50.5361
50.5376
50.5392
50.541
50.5428
50.5447
50.5466
50.5486
50.5506
50.5526
50.5546
50.5565
50.5583
50.56
50.5615
50.5629
50.5641
50.5652
50.566
50.5666
50.567
50.5671
50.5671
50.5669
50.5666
50.566
50.5654
50.5646
50.5637
50.5628
50.5619
50.561
50.5601
50.5593
50.5585
50.5579
50.5574
50.557
50.5567
50.5566
50.5566
50.5567
50.5569
50.5573
50.5578
50.5583
50.559
50.5596
50.5603
50.561
50.5617
50.5624
50.5631
50.5637
50.5642
50.5646
50.565
50.5652
50.5653
50.5653
50.5651
50.5648
50.5644
50.5638
50.5631
50.5623
50.5614
50.5603
50.5591
50.5579
50.5565
50.5551
50.5536
50.5521
50.5505
50.5489
50.5473
50.5457
50.5442
50.5426
50.5411
50.5396
50.5382
50.5368
50.5355
50.5343
50.5331
50.532
50.531
50.5301
50.5292
50.5284
50.5276
50.527
50.5264
50.5258
50.5253
50.5249
50.5245
50.5241
50.5237
50.5234
50.5194
50.5308
50.5061
50.5062
50.5063
50.5065
50.5068
50.507
50.5074
50.5079
50.5084
50.509
50.5097
50.5105
50.5113
50.5122
50.5132
50.5144
50.5157
50.5172
50.519
50.5208
50.5228
50.5247
50.5267
50.5286
50.5306
50.5325
50.5344
50.5363
50.538
50.5397
50.5412
50.5426
50.5438
50.5448
50.5456
50.5461
50.5465
50.5466
50.5466
50.5464
50.546
50.5454
50.5446
50.5437
50.5427
50.5416
50.5405
50.5393
50.5381
50.5369
50.5357
50.5345
50.5334
50.5324
50.5315
50.5306
50.5298
50.5291
50.5285
50.528
50.5275
50.5271
50.5268
50.5265
50.5263
50.5261
50.5259
50.5257
50.5256
50.5255
50.5255
50.5254
50.5253
50.5253
50.5253
50.5253
50.5253
50.5253
50.5253
50.5254
50.5255
50.5256
50.5258
50.526
50.5263
50.5266
50.527
50.5275
50.528
50.5287
50.5294
50.5302
50.5312
50.5322
50.5334
50.5347
50.5361
50.5376
50.5392
50.541
50.5428
50.5447
50.5466
50.5486
50.5506
50.5526
50.5546
50.5565
50.5583
50.56
50.5615
50.5629
50.5641
50.5652
50.566
50.5666
50.567
50.5671
50.5671
50.5669
50.5666
50.566
50.5654
50.5646
50.5637
50.5628
50.5619
50.561
50.5601
50.5593
50.5585
50.5579
50.5574
50.557
50.5567
50.5566
50.5566
50.5567
50.5569
50.5573
50.5578
50.5583
50.559
50.5596
50.5603
50.561
50.5617
50.5624
50.5631
50.5637
50.5642
50.5646
50.565
50.5652
50.5653
50.5653
50.5651
50.5648
50.5644
50.5638
50.5631
50.5623
50.5614
50.5603
50.5591
50.5579
50.5565
50.5551
50.5536
50.5521
50.5505
50.5489
50.5473
50.5457
50.5442
50.5426
50.5411
50.5396
50.5382
50.5368
50.5355
50.5343
50.5331
50.532
50.531
50.5301
50.5292
50.5284
50.5276
50.527
50.5264
50.5258
50.5253
50.5249
50.5245
50.5241
50.5237
50.5239
50.5164
50.5594
50.5061
50.5062
50.5063
50.5065
50.5068
50.5071
50.5074
50.5079
50.5084
50.509
50.5097
50.5105
50.5113
50.5122
50.5133
50.5144
50.5157
50.5172
50.519
50.5208
50.5228
50.5247
50.5267
50.5286
50.5306
50.5325
50.5344
50.5363
50.538
50.5397
50.5412
50.5426
50.5438
50.5448
50.5456
50.5461
50.5465
50.5466
50.5466
50.5464
50.546
50.5454
50.5446
50.5437
50.5427
50.5416
50.5405
50.5393
50.5381
50.5369
50.5357
50.5345
50.5334
50.5324
50.5315
50.5306
50.5298
50.5291
50.5285
50.528
50.5275
50.5271
50.5268
50.5265
50.5263
50.5261
50.5259
50.5257
50.5256
50.5255
50.5255
50.5254
50.5253
50.5253
50.5253
50.5253
50.5253
50.5253
50.5253
50.5254
50.5255
50.5256
50.5258
50.526
50.5263
50.5266
50.527
50.5275
50.528
50.5287
50.5294
50.5302
50.5312
50.5322
50.5334
50.5347
50.5361
50.5376
50.5392
50.541
50.5428
50.5447
50.5466
50.5486
50.5506
50.5526
50.5546
50.5565
50.5583
50.56
50.5615
50.5629
50.5641
50.5652
50.566
50.5666
50.567
50.5671
50.5671
50.5669
50.5666
50.566
50.5654
50.5646
50.5637
50.5628
50.5619
50.561
50.5601
50.5593
50.5585
50.5579
50.5574
50.557
50.5567
50.5566
50.5566
50.5567
50.5569
50.5573
50.5578
50.5583
50.559
50.5596
50.5603
50.561
50.5617
50.5624
50.5631
50.5637
50.5642
50.5646
50.565
50.5652
50.5653
50.5653
50.5651
50.5648
50.5644
50.5638
50.5631
50.5623
50.5614
50.5603
50.5591
50.5579
50.5565
50.5551
50.5536
50.5521
50.5505
50.5489
50.5473
50.5457
50.5442
50.5426
50.5411
50.5396
50.5382
50.5368
50.5355
50.5343
50.5331
50.532
50.531
50.5301
50.5292
50.5284
50.5276
50.527
50.5264
50.5258
50.5253
50.5249
50.5245
50.5241
50.5237
50.5241
50.5147
50.5745
50.5057
50.5057
50.5059
50.5061
50.5063
50.5066
50.507
50.5074
50.5079
50.5085
50.5092
50.5101
50.5109
50.5118
50.5128
50.514
50.5153
50.5168
50.5186
50.5204
50.5224
50.5244
50.5263
50.5283
50.5302
50.5322
50.5341
50.5359
50.5377
50.5393
50.5409
50.5422
50.5434
50.5444
50.5452
50.5458
50.5462
50.5463
50.5463
50.5461
50.5457
50.5451
50.5443
50.5434
50.5424
50.5413
50.5402
50.539
50.5378
50.5366
50.5354
50.5342
50.5331
50.5321
50.5312
50.5303
50.5295
50.5288
50.5282
50.5277
50.5272
50.5268
50.5265
50.5262
50.526
50.5258
50.5256
50.5254
50.5253
50.5252
50.5252
50.5251
50.525
50.525
50.525
50.525
50.525
50.525
50.525
50.5251
50.5252
50.5253
50.5255
50.5257
50.526
50.5263
50.5267
50.5272
50.5277
50.5284
50.5291
50.5299
50.5309
50.5319
50.5331
50.5344
50.5358
50.5373
50.5389
50.5407
50.5425
50.5444
50.5463
50.5483
50.5503
50.5523
50.5543
50.5562
50.558
50.5597
50.5612
50.5626
50.5638
50.5649
50.5657
50.5663
50.5667
50.5668
50.5668
50.5666
50.5663
50.5657
50.5651
50.5643
50.5634
50.5625
50.5616
50.5607
50.5598
50.559
50.5582
50.5576
50.5571
50.5567
50.5564
50.5563
50.5563
50.5564
50.5566
50.557
50.5575
50.558
50.5587
50.5593
50.56
50.5607
50.5614
50.5621
50.5628
50.5634
50.5639
50.5643
50.5647
50.5649
50.565
50.565
50.5648
50.5645
50.5641
50.5635
50.5628
50.562
50.5611
50.56
50.5588
50.5576
50.5562
50.5548
50.5533
50.5518
50.5502
50.5486
50.547
50.5454
50.5439
50.5423
50.5408
50.5393
50.5379
50.5365
50.5352
50.534
50.5328
50.5317
50.5307
50.5298
50.5289
50.5281
50.5273
50.5267
50.5261
50.5255
50.525
50.5246
50.5242
50.5238
50.5234
50.5239
50.5129
50.5877
50.6114
50.65
50.6627
50.6644
50.6639
50.6636
50.663
50.6618
50.6602
50.6584
50.6565
50.6545
50.6522
50.6495
50.6463
50.6422
50.6368
50.6294
50.6192
50.6035
50.6057
50.6399
50.6532
50.6555
50.6553
50.6553
50.6549
50.6541
50.6526
50.6512
50.6494
50.6477
50.6455
50.643
50.6398
50.6358
50.6303
50.6229
50.6125
50.5967
50.6004
50.6348
50.65
50.6533
50.6533
50.6532
50.6528
50.6518
50.6503
50.6486
50.6468
50.6449
50.6427
50.6401
50.6369
50.6329
50.6272
50.6194
50.6082
50.5912
50.5824
50.6016
50.6076
50.607
50.6056
50.6047
50.6036
50.6021
50.6003
50.5983
50.5963
50.5941
50.5917
50.5887
50.585
50.5805
50.5755
50.5682
50.5584
50.5447
50.552
50.5643
50.5735
50.58
50.5846
50.5875
50.5888
50.5892
50.589
50.5883
50.5871
50.5852
50.5828
50.5797
50.5758
50.5708
50.5642
50.5567
50.548
50.5376
50.4999
50.4903
50.48
50.4693
50.4595
50.4513
50.4451
50.44
50.4358
50.4323
50.4295
50.4275
50.4258
50.4246
50.4231
50.422
50.4215
50.4221
50.4231
50.4269
50.4427
50.4218
50.4148
50.4156
50.417
50.4179
50.4182
50.4189
50.4193
50.4197
50.4197
50.4198
50.4194
50.4194
50.4192
50.42
50.4212
50.4244
50.4301
50.4407
50.3743
50.3182
50.2755
50.2468
50.2271
50.2119
50.2001
50.1916
50.1858
50.1824
50.1807
50.1807
50.1826
50.1867
50.1946
50.2045
50.2199
50.2374
50.2628
50.2939
50.3599
50.2991
50.2611
50.2395
50.225
50.2141
50.2053
50.1995
50.1959
50.1948
50.195
50.1969
50.2002
50.2056
50.2137
50.2248
50.2393
50.2568
50.28
50.3094
50.3418
50.2568
50.2091
50.1812
50.1624
50.1464
50.1334
50.1237
50.118
50.1129
50.111
50.1099
50.112
50.1155
50.1232
50.1344
50.1493
50.1689
50.1946
50.2296
50.5355
50.4965
50.4857
50.4825
50.4813
50.4808
50.4807
50.4807
50.4807
50.4807
50.4807
50.4807
50.4808
50.4808
50.4808
50.4807
50.4806
50.4806
50.4805
50.4805
50.4805
50.4805
50.4806
50.4806
50.4806
50.4807
50.4807
50.4807
50.4808
50.4809
50.4811
50.4812
50.4814
50.4816
50.482
50.4826
50.4837
50.4847
50.4855
50.486
50.4864
50.4867
50.4863
50.4832
50.4691
50.4181
50.3282
50.2478
50.1875
50.151
50.1358
50.1344
50.1439
50.1929
50.292
50.376
50.437
50.4763
50.4986
50.5091
50.5127
50.5134
50.5119
50.5079
50.5053
50.5038
50.5033
50.5033
50.5038
50.5045
50.5055
50.5066
50.5079
50.5092
50.5106
50.5121
50.5136
50.5151
50.5166
50.5182
50.5197
50.5212
50.5226
50.524
50.5253
50.5265
50.5276
50.5286
50.5294
50.5301
50.5307
50.5311
50.5314
50.5315
50.5315
50.5314
50.5312
50.5308
50.5302
50.5296
50.5289
50.5281
50.5272
50.5262
50.5252
50.5242
50.5231
50.522
50.521
50.52
50.5189
50.518
50.517
50.5162
50.5153
50.5146
50.5139
50.5132
50.5126
50.5121
50.5116
50.5112
50.5109
50.5105
50.5103
50.51
50.5098
50.5096
50.5095
50.5093
50.5092
50.5091
50.509
50.5089
50.5088
50.5088
50.5087
50.5086
50.5085
50.5085
50.5084
50.5083
50.5083
50.5082
50.5082
50.5081
50.508
50.508
50.5079
50.5079
50.5078
50.5078
50.5077
50.5077
50.5077
50.5076
50.5076
50.5075
50.5075
50.5075
50.5074
50.5074
50.5074
50.5074
50.5074
50.5073
50.5073
50.5073
50.5073
50.5073
50.5072
50.5072
50.5072
50.5072
50.5072
50.5072
50.5071
50.5071
50.5071
50.5071
50.5071
50.5071
50.5071
50.5071
50.5071
50.507
50.507
50.507
50.507
50.507
50.507
50.507
50.507
50.507
50.5069
50.5068
50.5065
50.5067
50.4969
50.5502
50.5353
50.4987
50.4884
50.4853
50.4842
50.4838
50.4837
50.4837
50.4837
50.4837
50.4837
50.4837
50.4838
50.4838
50.4838
50.4838
50.4837
50.4837
50.4836
50.4836
50.4836
50.4836
50.4836
50.4837
50.4837
50.4838
50.4838
50.4839
50.4839
50.4839
50.4841
50.4842
50.4844
50.4847
50.4851
50.4854
50.4857
50.486
50.4865
50.4871
50.4883
50.491
50.4946
50.4984
50.502
50.5047
50.5063
50.5068
50.5065
50.5027
50.4888
50.4699
50.4552
50.446
50.4423
50.4422
50.4443
50.4526
50.4665
50.4779
50.4862
50.4919
50.4957
50.4981
50.4997
50.5009
50.502
50.503
50.5038
50.5047
50.5057
50.5069
50.5081
50.5095
50.5109
50.5123
50.5139
50.5154
50.5169
50.5185
50.52
50.5215
50.5229
50.5243
50.5256
50.5268
50.5279
50.5289
50.5297
50.5304
50.531
50.5314
50.5317
50.5318
50.5318
50.5317
50.5314
50.5311
50.5305
50.5299
50.5292
50.5284
50.5275
50.5265
50.5255
50.5245
50.5234
50.5223
50.5213
50.5203
50.5192
50.5183
50.5173
50.5165
50.5156
50.5149
50.5142
50.5135
50.5129
50.5124
50.5119
50.5115
50.5112
50.5108
50.5106
50.5103
50.5101
50.5099
50.5098
50.5096
50.5095
50.5094
50.5093
50.5092
50.5091
50.5091
50.509
50.5089
50.5088
50.5088
50.5087
50.5086
50.5086
50.5085
50.5085
50.5084
50.5083
50.5083
50.5082
50.5082
50.5081
50.5081
50.508
50.508
50.508
50.5079
50.5079
50.5078
50.5078
50.5078
50.5077
50.5077
50.5077
50.5077
50.5077
50.5076
50.5076
50.5076
50.5076
50.5076
50.5075
50.5075
50.5075
50.5075
50.5075
50.5075
50.5074
50.5074
50.5074
50.5074
50.5074
50.5074
50.5074
50.5074
50.5073
50.5073
50.5073
50.5073
50.5073
50.5073
50.5073
50.5073
50.5073
50.5073
50.5072
50.5071
50.5068
50.5069
50.4983
50.5409
50.5352
50.4997
50.4887
50.4853
50.4839
50.4833
50.4831
50.4831
50.4831
50.483
50.483
50.483
50.4831
50.4831
50.4831
50.4831
50.4831
50.483
50.4829
50.4829
50.4829
50.4829
50.4829
50.4829
50.483
50.483
50.4831
50.4831
50.4832
50.4833
50.4833
50.4834
50.4836
50.4837
50.4839
50.4843
50.4848
50.4854
50.4859
50.4862
50.4866
50.4871
50.4879
50.4901
50.497
50.5088
50.5191
50.5264
50.5306
50.5322
50.5324
50.5307
50.5213
50.5026
50.4873
50.4775
50.473
50.4722
50.4731
50.4764
50.4833
50.4891
50.4934
50.4964
50.4986
50.5001
50.5013
50.5025
50.5036
50.5046
50.5056
50.5068
50.5081
50.5094
50.5108
50.5123
50.5138
50.5154
50.5169
50.5185
50.52
50.5215
50.5229
50.5243
50.5256
50.5268
50.5279
50.5289
50.5297
50.5304
50.531
50.5314
50.5317
50.5318
50.5318
50.5317
50.5314
50.5311
50.5305
50.5299
50.5292
50.5284
50.5275
50.5265
50.5255
50.5245
50.5234
50.5223
50.5213
50.5203
50.5192
50.5183
50.5173
50.5165
50.5156
50.5149
50.5142
50.5135
50.5129
50.5124
50.5119
50.5115
50.5112
50.5108
50.5106
50.5103
50.5101
50.5099
50.5098
50.5096
50.5095
50.5094
50.5093
50.5092
50.5091
50.5091
50.509
50.5089
50.5088
50.5088
50.5087
50.5086
50.5086
50.5085
50.5085
50.5084
50.5083
50.5083
50.5082
50.5082
50.5081
50.5081
50.508
50.508
50.508
50.5079
50.5079
50.5078
50.5078
50.5078
50.5077
50.5077
50.5077
50.5077
50.5077
50.5076
50.5076
50.5076
50.5076
50.5076
50.5075
50.5075
50.5075
50.5075
50.5075
50.5075
50.5074
50.5074
50.5074
50.5074
50.5074
50.5074
50.5074
50.5074
50.5073
50.5073
50.5073
50.5073
50.5073
50.5073
50.5073
50.5073
50.5073
50.5073
50.5072
50.5071
50.5068
50.5068
50.4998
50.5273
50.5059
50.4812
50.4749
50.4746
50.4751
50.4755
50.4756
50.4757
50.4758
50.4758
50.4758
50.4759
50.4759
50.4759
50.4759
50.4759
50.4759
50.4758
50.4758
50.4757
50.4757
50.4757
50.4757
50.4758
50.4758
50.4759
50.4759
50.476
50.4761
50.4762
50.4763
50.4765
50.4767
50.4769
50.4773
50.4779
50.4785
50.4791
50.4796
50.48
50.4805
50.481
50.482
50.4843
50.4897
50.4959
50.501
50.5047
50.5068
50.5076
50.5078
50.5067
50.5019
50.4956
50.491
50.4884
50.4875
50.4876
50.4884
50.4899
50.4924
50.4946
50.4963
50.4976
50.4987
50.4998
50.5009
50.5019
50.5029
50.504
50.5052
50.5065
50.5078
50.5092
50.5107
50.5122
50.5138
50.5153
50.5169
50.5185
50.52
50.5215
50.5229
50.5243
50.5256
50.5268
50.5279
50.5289
50.5297
50.5304
50.531
50.5314
50.5317
50.5318
50.5318
50.5317
50.5314
50.5311
50.5305
50.5299
50.5292
50.5284
50.5275
50.5265
50.5255
50.5245
50.5234
50.5223
50.5213
50.5203
50.5192
50.5183
50.5173
50.5165
50.5156
50.5149
50.5142
50.5135
50.5129
50.5124
50.5119
50.5115
50.5112
50.5108
50.5106
50.5103
50.5101
50.5099
50.5098
50.5096
50.5095
50.5094
50.5093
50.5092
50.5091
50.5091
50.509
50.5089
50.5088
50.5088
50.5087
50.5086
50.5086
50.5085
50.5085
50.5084
50.5083
50.5083
50.5082
50.5082
50.5081
50.5081
50.508
50.508
50.508
50.5079
50.5079
50.5078
50.5078
50.5078
50.5077
50.5077
50.5077
50.5077
50.5077
50.5076
50.5076
50.5076
50.5076
50.5076
50.5075
50.5075
50.5075
50.5075
50.5075
50.5075
50.5074
50.5074
50.5074
50.5074
50.5074
50.5074
50.5074
50.5074
50.5073
50.5073
50.5073
50.5073
50.5073
50.5073
50.5073
50.5073
50.5073
50.5073
50.5072
50.5072
50.5069
50.5061
50.5017
50.5041
50.5131
50.503
50.497
50.4916
50.4882
50.4865
50.4856
50.4852
50.485
50.4849
50.4848
50.4848
50.4847
50.4847
50.4847
50.4847
50.4847
50.4846
50.4846
50.4846
50.4846
50.4846
50.4846
50.4846
50.4846
50.4847
50.4847
50.4848
50.4847
50.4848
50.4848
50.4849
50.4849
50.4849
50.4849
50.485
50.4851
50.4853
50.4856
50.4858
50.4859
50.4857
50.4855
50.4856
50.4859
50.4863
50.4872
50.4894
50.4916
50.493
50.4937
50.4941
50.4943
50.4941
50.4935
50.4932
50.4933
50.4936
50.4941
50.4948
50.4955
50.4962
50.497
50.4978
50.4987
50.4995
50.5005
50.5015
50.5026
50.5037
50.505
50.5063
50.5077
50.5092
50.5106
50.5122
50.5137
50.5153
50.5169
50.5184
50.52
50.5215
50.5229
50.5243
50.5256
50.5268
50.5279
50.5289
50.5297
50.5304
50.531
50.5314
50.5317
50.5318
50.5318
50.5317
50.5314
50.5311
50.5305
50.5299
50.5292
50.5284
50.5275
50.5265
50.5255
50.5245
50.5234
50.5223
50.5213
50.5203
50.5192
50.5183
50.5173
50.5165
50.5156
50.5149
50.5142
50.5135
50.5129
50.5124
50.5119
50.5115
50.5112
50.5108
50.5106
50.5103
50.5101
50.5099
50.5098
50.5096
50.5095
50.5094
50.5093
50.5092
50.5091
50.5091
50.509
50.5089
50.5088
50.5088
50.5087
50.5086
50.5086
50.5085
50.5085
50.5084
50.5083
50.5083
50.5082
50.5082
50.5081
50.5081
50.508
50.508
50.508
50.5079
50.5079
50.5078
50.5078
50.5078
50.5077
50.5077
50.5077
50.5077
50.5077
50.5076
50.5076
50.5076
50.5076
50.5076
50.5075
50.5075
50.5075
50.5075
50.5075
50.5075
50.5074
50.5074
50.5074
50.5074
50.5074
50.5074
50.5074
50.5074
50.5073
50.5073
50.5073
50.5073
50.5073
50.5073
50.5073
50.5073
50.5073
50.5073
50.5073
50.5072
50.5071
50.5068
50.5057
50.5019
50.4346
50.4446
50.4505
50.4553
50.4584
50.46
50.4607
50.461
50.4612
50.4613
50.4613
50.4613
50.4612
50.4611
50.4611
50.4611
50.4611
50.461
50.461
50.4611
50.4611
50.4612
50.4612
50.4613
50.4614
50.4614
50.4616
50.4618
50.4621
50.4624
50.4628
50.4632
50.4637
50.4642
50.4648
50.4655
50.4664
50.4673
50.4681
50.4687
50.4693
50.4698
50.4706
50.472
50.4752
50.4797
50.4842
50.4882
50.4915
50.4939
50.4953
50.496
50.4964
50.4964
50.4957
50.4947
50.494
50.4937
50.4937
50.4939
50.4943
50.4949
50.4956
50.4964
50.4973
50.4983
50.4994
50.5006
50.5019
50.5032
50.5046
50.506
50.5075
50.509
50.5105
50.5121
50.5137
50.5152
50.5168
50.5184
50.52
50.5215
50.5229
50.5243
50.5256
50.5268
50.5279
50.5289
50.5297
50.5304
50.531
50.5314
50.5317
50.5318
50.5318
50.5317
50.5314
50.5311
50.5305
50.5299
50.5292
50.5284
50.5275
50.5265
50.5255
50.5245
50.5234
50.5223
50.5213
50.5203
50.5192
50.5183
50.5173
50.5165
50.5156
50.5149
50.5142
50.5135
50.5129
50.5124
50.5119
50.5115
50.5112
50.5108
50.5106
50.5103
50.5101
50.5099
50.5098
50.5096
50.5095
50.5094
50.5093
50.5092
50.5091
50.5091
50.509
50.5089
50.5088
50.5088
50.5087
50.5086
50.5086
50.5085
50.5085
50.5084
50.5083
50.5083
50.5082
50.5082
50.5081
50.5081
50.508
50.508
50.508
50.5079
50.5079
50.5078
50.5078
50.5078
50.5077
50.5077
50.5077
50.5077
50.5077
50.5076
50.5076
50.5076
50.5076
50.5076
50.5075
50.5075
50.5075
50.5075
50.5075
50.5075
50.5074
50.5074
50.5074
50.5074
50.5074
50.5074
50.5074
50.5074
50.5073
50.5073
50.5073
50.5073
50.5073
50.5073
50.5073
50.5073
50.5073
50.5073
50.5073
50.5073
50.5074
50.5076
50.5094
50.5056
50.4766
50.4979
50.5009
50.4989
50.4973
50.4965
50.4961
50.4959
50.4958
50.4957
50.4957
50.4957
50.4957
50.4957
50.4956
50.4956
50.4955
50.4954
50.4954
50.4953
50.4953
50.4954
50.4955
50.4955
50.4956
50.4956
50.4957
50.4958
50.4959
50.4959
50.4959
50.4959
50.4959
50.4959
50.496
50.4962
50.4963
50.4962
50.496
50.4959
50.4959
50.496
50.4959
50.4949
50.4936
50.4927
50.4925
50.4927
50.4934
50.4957
50.5001
50.5032
50.505
50.5056
50.5058
50.5047
50.5016
50.4991
50.4973
50.4962
50.4957
50.4956
50.4959
50.4965
50.4973
50.4983
50.4993
50.5005
50.5018
50.5031
50.5045
50.5059
50.5074
50.5089
50.5105
50.5121
50.5136
50.5152
50.5168
50.5184
50.52
50.5215
50.5229
50.5243
50.5256
50.5268
50.5279
50.5289
50.5297
50.5304
50.531
50.5314
50.5317
50.5318
50.5318
50.5317
50.5314
50.5311
50.5305
50.5299
50.5292
50.5284
50.5275
50.5265
50.5255
50.5245
50.5234
50.5223
50.5213
50.5203
50.5192
50.5183
50.5173
50.5165
50.5156
50.5149
50.5142
50.5135
50.5129
50.5124
50.5119
50.5115
50.5112
50.5108
50.5106
50.5103
50.5101
50.5099
50.5098
50.5096
50.5095
50.5094
50.5093
50.5092
50.5091
50.5091
50.509
50.5089
50.5088
50.5088
50.5087
50.5086
50.5086
50.5085
50.5085
50.5084
50.5083
50.5083
50.5082
50.5082
50.5081
50.5081
50.508
50.508
50.508
50.5079
50.5079
50.5078
50.5078
50.5078
50.5077
50.5077
50.5077
50.5077
50.5077
50.5076
50.5076
50.5076
50.5076
50.5076
50.5075
50.5075
50.5075
50.5075
50.5075
50.5075
50.5074
50.5074
50.5074
50.5074
50.5074
50.5074
50.5074
50.5074
50.5073
50.5073
50.5073
50.5073
50.5073
50.5073
50.5073
50.5073
50.5073
50.5073
50.5073
50.5074
50.5076
50.5084
50.5123
50.5118
50.4011
50.4457
50.4574
50.461
50.4619
50.462
50.462
50.462
50.4621
50.4621
50.4622
50.4622
50.4621
50.462
50.4618
50.4617
50.4616
50.4616
50.4616
50.4617
50.4619
50.462
50.462
50.4621
50.462
50.462
50.462
50.462
50.4619
50.4618
50.4619
50.462
50.4622
50.4625
50.463
50.4636
50.464
50.4642
50.4644
50.4646
50.4648
50.4652
50.4657
50.467
50.4708
50.4776
50.4842
50.4899
50.4944
50.4976
50.4997
50.5008
50.5012
50.5014
50.5005
50.4982
50.4963
50.4949
50.4941
50.4937
50.4938
50.4942
50.4948
50.4956
50.4965
50.4976
50.4988
50.5001
50.5015
50.5029
50.5043
50.5058
50.5073
50.5088
50.5104
50.512
50.5136
50.5152
50.5168
50.5184
50.5199
50.5215
50.5229
50.5243
50.5256
50.5268
50.5279
50.5289
50.5297
50.5304
50.531