/*--------------------------------*- C++ -*----------------------------------*\
| =========                 |                                                 |
| \\      /  F ield         | OpenFOAM: The Open Source CFD Toolbox           |
|  \\    /   O peration     | Version:  3.0.x                                 |
|   \\  /    A nd           | Web:      www.OpenFOAM.org                      |
|    \\/     M anipulation  |                                                 |
\*---------------------------------------------------------------------------*/
FoamFile
{
    version     2.0;
    format      ascii;
    class       volScalarField;
    location    "0.25";
    object      p;
}
// * * * * * * * * * * * * * * * * * * * * * * * * * * * * * * * * * * * * * //

dimensions      [1 -1 -2 0 0 0 0];

internalField   nonuniform List<scalar> 
6900
(
1.81753e+07
1.81753e+07
1.81753e+07
1.81754e+07
1.81754e+07
1.81754e+07
1.81754e+07
1.81755e+07
1.81755e+07
1.81755e+07
1.81755e+07
1.81755e+07
1.81755e+07
1.81755e+07
1.81755e+07
1.81755e+07
1.81755e+07
1.81755e+07
1.81754e+07
1.81754e+07
1.81753e+07
1.81753e+07
1.81752e+07
1.81751e+07
1.8175e+07
1.81749e+07
1.81748e+07
1.81746e+07
1.81745e+07
1.81744e+07
1.81742e+07
1.81741e+07
1.81739e+07
1.81738e+07
1.81736e+07
1.81734e+07
1.81733e+07
1.81731e+07
1.81729e+07
1.81728e+07
1.81726e+07
1.81725e+07
1.81723e+07
1.81722e+07
1.8172e+07
1.81719e+07
1.81718e+07
1.81716e+07
1.81715e+07
1.81714e+07
1.81712e+07
1.81711e+07
1.8171e+07
1.81709e+07
1.81707e+07
1.81706e+07
1.81705e+07
1.81704e+07
1.81703e+07
1.81702e+07
1.81701e+07
1.817e+07
1.81699e+07
1.81698e+07
1.81697e+07
1.81696e+07
1.81695e+07
1.81694e+07
1.81693e+07
1.81692e+07
1.81692e+07
1.81691e+07
1.81691e+07
1.8169e+07
1.8169e+07
1.81689e+07
1.81689e+07
1.81689e+07
1.81689e+07
1.81689e+07
1.81689e+07
1.81689e+07
1.81689e+07
1.81689e+07
1.81689e+07
1.81689e+07
1.81689e+07
1.8169e+07
1.8169e+07
1.8169e+07
1.8169e+07
1.8169e+07
1.8169e+07
1.8169e+07
1.8169e+07
1.8169e+07
1.8169e+07
1.8169e+07
1.8169e+07
1.81689e+07
1.81689e+07
1.81689e+07
1.81689e+07
1.81688e+07
1.81688e+07
1.81688e+07
1.81687e+07
1.81687e+07
1.81687e+07
1.81687e+07
1.81687e+07
1.81687e+07
1.81687e+07
1.81687e+07
1.81687e+07
1.81687e+07
1.81687e+07
1.81687e+07
1.81687e+07
1.81687e+07
1.81688e+07
1.81688e+07
1.81688e+07
1.81688e+07
1.81688e+07
1.81688e+07
1.81688e+07
1.81688e+07
1.81688e+07
1.81688e+07
1.81687e+07
1.81687e+07
1.81686e+07
1.81686e+07
1.81685e+07
1.81684e+07
1.81683e+07
1.81682e+07
1.81681e+07
1.8168e+07
1.81679e+07
1.81678e+07
1.81676e+07
1.81675e+07
1.81674e+07
1.81672e+07
1.81671e+07
1.8167e+07
1.81668e+07
1.81667e+07
1.81666e+07
1.81664e+07
1.81663e+07
1.81662e+07
1.81661e+07
1.8166e+07
1.81659e+07
1.81657e+07
1.81656e+07
1.81655e+07
1.81653e+07
1.81652e+07
1.81651e+07
1.81649e+07
1.81647e+07
1.81645e+07
1.81643e+07
1.81641e+07
1.81639e+07
1.81637e+07
1.81634e+07
1.81632e+07
1.8163e+07
1.81627e+07
1.81625e+07
1.81622e+07
1.81619e+07
1.81617e+07
1.81614e+07
1.81612e+07
1.81609e+07
1.81606e+07
1.81604e+07
1.81601e+07
1.81599e+07
1.81597e+07
1.81594e+07
1.81592e+07
1.8159e+07
1.81588e+07
1.81587e+07
1.81585e+07
1.81583e+07
1.81582e+07
1.8158e+07
1.81579e+07
1.81577e+07
1.81576e+07
1.81575e+07
1.81579e+07
1.81753e+07
1.81753e+07
1.81753e+07
1.81754e+07
1.81754e+07
1.81754e+07
1.81754e+07
1.81755e+07
1.81755e+07
1.81755e+07
1.81755e+07
1.81755e+07
1.81755e+07
1.81755e+07
1.81755e+07
1.81755e+07
1.81755e+07
1.81755e+07
1.81754e+07
1.81754e+07
1.81753e+07
1.81753e+07
1.81752e+07
1.81751e+07
1.8175e+07
1.81749e+07
1.81748e+07
1.81746e+07
1.81745e+07
1.81744e+07
1.81742e+07
1.81741e+07
1.81739e+07
1.81738e+07
1.81736e+07
1.81734e+07
1.81733e+07
1.81731e+07
1.81729e+07
1.81728e+07
1.81726e+07
1.81725e+07
1.81723e+07
1.81722e+07
1.8172e+07
1.81719e+07
1.81718e+07
1.81716e+07
1.81715e+07
1.81714e+07
1.81712e+07
1.81711e+07
1.8171e+07
1.81709e+07
1.81707e+07
1.81706e+07
1.81705e+07
1.81704e+07
1.81703e+07
1.81702e+07
1.81701e+07
1.817e+07
1.81699e+07
1.81698e+07
1.81697e+07
1.81696e+07
1.81695e+07
1.81694e+07
1.81693e+07
1.81692e+07
1.81692e+07
1.81691e+07
1.81691e+07
1.8169e+07
1.8169e+07
1.81689e+07
1.81689e+07
1.81689e+07
1.81689e+07
1.81689e+07
1.81689e+07
1.81689e+07
1.81689e+07
1.81689e+07
1.81689e+07
1.81689e+07
1.81689e+07
1.8169e+07
1.8169e+07
1.8169e+07
1.8169e+07
1.8169e+07
1.8169e+07
1.8169e+07
1.8169e+07
1.8169e+07
1.8169e+07
1.8169e+07
1.8169e+07
1.81689e+07
1.81689e+07
1.81689e+07
1.81689e+07
1.81688e+07
1.81688e+07
1.81688e+07
1.81687e+07
1.81687e+07
1.81687e+07
1.81687e+07
1.81687e+07
1.81687e+07
1.81687e+07
1.81687e+07
1.81687e+07
1.81687e+07
1.81687e+07
1.81687e+07
1.81687e+07
1.81687e+07
1.81688e+07
1.81688e+07
1.81688e+07
1.81688e+07
1.81688e+07
1.81688e+07
1.81688e+07
1.81688e+07
1.81688e+07
1.81688e+07
1.81687e+07
1.81687e+07
1.81686e+07
1.81686e+07
1.81685e+07
1.81684e+07
1.81683e+07
1.81682e+07
1.81681e+07
1.8168e+07
1.81679e+07
1.81678e+07
1.81676e+07
1.81675e+07
1.81674e+07
1.81672e+07
1.81671e+07
1.8167e+07
1.81668e+07
1.81667e+07
1.81666e+07
1.81664e+07
1.81663e+07
1.81662e+07
1.81661e+07
1.8166e+07
1.81659e+07
1.81657e+07
1.81656e+07
1.81655e+07
1.81653e+07
1.81652e+07
1.81651e+07
1.81649e+07
1.81647e+07
1.81645e+07
1.81643e+07
1.81641e+07
1.81639e+07
1.81637e+07
1.81634e+07
1.81632e+07
1.8163e+07
1.81627e+07
1.81625e+07
1.81622e+07
1.81619e+07
1.81617e+07
1.81614e+07
1.81612e+07
1.81609e+07
1.81606e+07
1.81604e+07
1.81601e+07
1.81599e+07
1.81597e+07
1.81594e+07
1.81592e+07
1.8159e+07
1.81588e+07
1.81587e+07
1.81585e+07
1.81583e+07
1.81582e+07
1.8158e+07
1.81579e+07
1.81577e+07
1.81576e+07
1.81575e+07
1.81579e+07
1.81753e+07
1.81753e+07
1.81753e+07
1.81754e+07
1.81754e+07
1.81754e+07
1.81754e+07
1.81755e+07
1.81755e+07
1.81755e+07
1.81755e+07
1.81755e+07
1.81755e+07
1.81755e+07
1.81755e+07
1.81755e+07
1.81755e+07
1.81755e+07
1.81754e+07
1.81754e+07
1.81753e+07
1.81753e+07
1.81752e+07
1.81751e+07
1.8175e+07
1.81749e+07
1.81748e+07
1.81746e+07
1.81745e+07
1.81744e+07
1.81742e+07
1.81741e+07
1.81739e+07
1.81738e+07
1.81736e+07
1.81734e+07
1.81733e+07
1.81731e+07
1.81729e+07
1.81728e+07
1.81726e+07
1.81725e+07
1.81723e+07
1.81722e+07
1.8172e+07
1.81719e+07
1.81718e+07
1.81716e+07
1.81715e+07
1.81714e+07
1.81712e+07
1.81711e+07
1.8171e+07
1.81709e+07
1.81707e+07
1.81706e+07
1.81705e+07
1.81704e+07
1.81703e+07
1.81702e+07
1.81701e+07
1.817e+07
1.81699e+07
1.81698e+07
1.81697e+07
1.81696e+07
1.81695e+07
1.81694e+07
1.81693e+07
1.81692e+07
1.81692e+07
1.81691e+07
1.81691e+07
1.8169e+07
1.8169e+07
1.81689e+07
1.81689e+07
1.81689e+07
1.81689e+07
1.81689e+07
1.81689e+07
1.81689e+07
1.81689e+07
1.81689e+07
1.81689e+07
1.81689e+07
1.81689e+07
1.8169e+07
1.8169e+07
1.8169e+07
1.8169e+07
1.8169e+07
1.8169e+07
1.8169e+07
1.8169e+07
1.8169e+07
1.8169e+07
1.8169e+07
1.8169e+07
1.81689e+07
1.81689e+07
1.81689e+07
1.81689e+07
1.81688e+07
1.81688e+07
1.81688e+07
1.81687e+07
1.81687e+07
1.81687e+07
1.81687e+07
1.81687e+07
1.81687e+07
1.81687e+07
1.81687e+07
1.81687e+07
1.81687e+07
1.81687e+07
1.81687e+07
1.81687e+07
1.81687e+07
1.81688e+07
1.81688e+07
1.81688e+07
1.81688e+07
1.81688e+07
1.81688e+07
1.81688e+07
1.81688e+07
1.81688e+07
1.81688e+07
1.81687e+07
1.81687e+07
1.81686e+07
1.81686e+07
1.81685e+07
1.81684e+07
1.81683e+07
1.81682e+07
1.81681e+07
1.8168e+07
1.81679e+07
1.81678e+07
1.81676e+07
1.81675e+07
1.81674e+07
1.81672e+07
1.81671e+07
1.8167e+07
1.81668e+07
1.81667e+07
1.81666e+07
1.81664e+07
1.81663e+07
1.81662e+07
1.81661e+07
1.8166e+07
1.81659e+07
1.81657e+07
1.81656e+07
1.81655e+07
1.81653e+07
1.81652e+07
1.81651e+07
1.81649e+07
1.81647e+07
1.81645e+07
1.81643e+07
1.81641e+07
1.81639e+07
1.81637e+07
1.81634e+07
1.81632e+07
1.8163e+07
1.81627e+07
1.81625e+07
1.81622e+07
1.81619e+07
1.81617e+07
1.81614e+07
1.81612e+07
1.81609e+07
1.81606e+07
1.81604e+07
1.81601e+07
1.81599e+07
1.81597e+07
1.81594e+07
1.81592e+07
1.8159e+07
1.81588e+07
1.81587e+07
1.81585e+07
1.81583e+07
1.81582e+07
1.8158e+07
1.81579e+07
1.81577e+07
1.81575e+07
1.81573e+07
1.81572e+07
1.81753e+07
1.81753e+07
1.81753e+07
1.81754e+07
1.81754e+07
1.81754e+07
1.81754e+07
1.81755e+07
1.81755e+07
1.81755e+07
1.81755e+07
1.81755e+07
1.81755e+07
1.81755e+07
1.81755e+07
1.81755e+07
1.81755e+07
1.81755e+07
1.81754e+07
1.81754e+07
1.81753e+07
1.81753e+07
1.81752e+07
1.81751e+07
1.8175e+07
1.81749e+07
1.81748e+07
1.81746e+07
1.81745e+07
1.81744e+07
1.81742e+07
1.81741e+07
1.81739e+07
1.81738e+07
1.81736e+07
1.81734e+07
1.81733e+07
1.81731e+07
1.81729e+07
1.81728e+07
1.81726e+07
1.81725e+07
1.81723e+07
1.81722e+07
1.8172e+07
1.81719e+07
1.81718e+07
1.81716e+07
1.81715e+07
1.81714e+07
1.81712e+07
1.81711e+07
1.8171e+07
1.81709e+07
1.81707e+07
1.81706e+07
1.81705e+07
1.81704e+07
1.81703e+07
1.81702e+07
1.81701e+07
1.817e+07
1.81699e+07
1.81698e+07
1.81697e+07
1.81696e+07
1.81695e+07
1.81694e+07
1.81693e+07
1.81692e+07
1.81692e+07
1.81691e+07
1.81691e+07
1.8169e+07
1.8169e+07
1.81689e+07
1.81689e+07
1.81689e+07
1.81689e+07
1.81689e+07
1.81689e+07
1.81689e+07
1.81689e+07
1.81689e+07
1.81689e+07
1.81689e+07
1.81689e+07
1.8169e+07
1.8169e+07
1.8169e+07
1.8169e+07
1.8169e+07
1.8169e+07
1.8169e+07
1.8169e+07
1.8169e+07
1.8169e+07
1.8169e+07
1.8169e+07
1.81689e+07
1.81689e+07
1.81689e+07
1.81689e+07
1.81688e+07
1.81688e+07
1.81688e+07
1.81687e+07
1.81687e+07
1.81687e+07
1.81687e+07
1.81687e+07
1.81687e+07
1.81687e+07
1.81687e+07
1.81687e+07
1.81687e+07
1.81687e+07
1.81687e+07
1.81687e+07
1.81687e+07
1.81688e+07
1.81688e+07
1.81688e+07
1.81688e+07
1.81688e+07
1.81688e+07
1.81688e+07
1.81688e+07
1.81688e+07
1.81688e+07
1.81687e+07
1.81687e+07
1.81686e+07
1.81686e+07
1.81685e+07
1.81684e+07
1.81683e+07
1.81682e+07
1.81681e+07
1.8168e+07
1.81679e+07
1.81678e+07
1.81676e+07
1.81675e+07
1.81674e+07
1.81672e+07
1.81671e+07
1.8167e+07
1.81668e+07
1.81667e+07
1.81666e+07
1.81664e+07
1.81663e+07
1.81662e+07
1.81661e+07
1.8166e+07
1.81659e+07
1.81657e+07
1.81656e+07
1.81655e+07
1.81653e+07
1.81652e+07
1.81651e+07
1.81649e+07
1.81647e+07
1.81645e+07
1.81643e+07
1.81641e+07
1.81639e+07
1.81637e+07
1.81634e+07
1.81632e+07
1.8163e+07
1.81627e+07
1.81625e+07
1.81622e+07
1.81619e+07
1.81617e+07
1.81614e+07
1.81612e+07
1.81609e+07
1.81606e+07
1.81604e+07
1.81601e+07
1.81599e+07
1.81597e+07
1.81594e+07
1.81592e+07
1.8159e+07
1.81588e+07
1.81587e+07
1.81585e+07
1.81583e+07
1.81582e+07
1.8158e+07
1.81579e+07
1.81577e+07
1.81575e+07
1.81571e+07
1.81562e+07
1.81753e+07
1.81753e+07
1.81753e+07
1.81754e+07
1.81754e+07
1.81754e+07
1.81754e+07
1.81755e+07
1.81755e+07
1.81755e+07
1.81755e+07
1.81755e+07
1.81755e+07
1.81755e+07
1.81755e+07
1.81755e+07
1.81755e+07
1.81755e+07
1.81754e+07
1.81754e+07
1.81753e+07
1.81753e+07
1.81752e+07
1.81751e+07
1.8175e+07
1.81749e+07
1.81748e+07
1.81746e+07
1.81745e+07
1.81744e+07
1.81742e+07
1.81741e+07
1.81739e+07
1.81738e+07
1.81736e+07
1.81734e+07
1.81733e+07
1.81731e+07
1.81729e+07
1.81728e+07
1.81726e+07
1.81725e+07
1.81723e+07
1.81722e+07
1.8172e+07
1.81719e+07
1.81718e+07
1.81716e+07
1.81715e+07
1.81714e+07
1.81712e+07
1.81711e+07
1.8171e+07
1.81709e+07
1.81707e+07
1.81706e+07
1.81705e+07
1.81704e+07
1.81703e+07
1.81702e+07
1.81701e+07
1.817e+07
1.81699e+07
1.81698e+07
1.81697e+07
1.81696e+07
1.81695e+07
1.81694e+07
1.81693e+07
1.81692e+07
1.81692e+07
1.81691e+07
1.81691e+07
1.8169e+07
1.8169e+07
1.81689e+07
1.81689e+07
1.81689e+07
1.81689e+07
1.81689e+07
1.81689e+07
1.81689e+07
1.81689e+07
1.81689e+07
1.81689e+07
1.81689e+07
1.81689e+07
1.8169e+07
1.8169e+07
1.8169e+07
1.8169e+07
1.8169e+07
1.8169e+07
1.8169e+07
1.8169e+07
1.8169e+07
1.8169e+07
1.8169e+07
1.8169e+07
1.81689e+07
1.81689e+07
1.81689e+07
1.81689e+07
1.81688e+07
1.81688e+07
1.81688e+07
1.81687e+07
1.81687e+07
1.81687e+07
1.81687e+07
1.81687e+07
1.81687e+07
1.81687e+07
1.81687e+07
1.81687e+07
1.81687e+07
1.81687e+07
1.81687e+07
1.81687e+07
1.81687e+07
1.81688e+07
1.81688e+07
1.81688e+07
1.81688e+07
1.81688e+07
1.81688e+07
1.81688e+07
1.81688e+07
1.81688e+07
1.81688e+07
1.81687e+07
1.81687e+07
1.81686e+07
1.81686e+07
1.81685e+07
1.81684e+07
1.81683e+07
1.81682e+07
1.81681e+07
1.8168e+07
1.81679e+07
1.81678e+07
1.81676e+07
1.81675e+07
1.81674e+07
1.81672e+07
1.81671e+07
1.8167e+07
1.81668e+07
1.81667e+07
1.81666e+07
1.81664e+07
1.81663e+07
1.81662e+07
1.81661e+07
1.8166e+07
1.81659e+07
1.81657e+07
1.81656e+07
1.81655e+07
1.81653e+07
1.81652e+07
1.81651e+07
1.81649e+07
1.81647e+07
1.81645e+07
1.81643e+07
1.81641e+07
1.81639e+07
1.81637e+07
1.81634e+07
1.81632e+07
1.8163e+07
1.81627e+07
1.81625e+07
1.81622e+07
1.81619e+07
1.81617e+07
1.81614e+07
1.81612e+07
1.81609e+07
1.81606e+07
1.81604e+07
1.81601e+07
1.81599e+07
1.81597e+07
1.81594e+07
1.81592e+07
1.8159e+07
1.81588e+07
1.81587e+07
1.81585e+07
1.81583e+07
1.81582e+07
1.8158e+07
1.81579e+07
1.81577e+07
1.81575e+07
1.81571e+07
1.81561e+07
1.81638e+07
1.81665e+07
1.81666e+07
1.81659e+07
1.81652e+07
1.81645e+07
1.81634e+07
1.8162e+07
1.81608e+07
1.81601e+07
1.81603e+07
1.81618e+07
1.8162e+07
1.81591e+07
1.81531e+07
1.81469e+07
1.81432e+07
1.81402e+07
1.81377e+07
1.81363e+07
1.81623e+07
1.81635e+07
1.81633e+07
1.81626e+07
1.81619e+07
1.81611e+07
1.816e+07
1.81586e+07
1.81573e+07
1.81567e+07
1.8157e+07
1.81585e+07
1.81584e+07
1.81549e+07
1.81481e+07
1.81416e+07
1.81381e+07
1.81355e+07
1.81334e+07
1.81328e+07
1.81573e+07
1.81572e+07
1.81567e+07
1.81559e+07
1.81547e+07
1.81533e+07
1.81516e+07
1.81497e+07
1.81473e+07
1.81446e+07
1.81415e+07
1.81382e+07
1.81349e+07
1.81318e+07
1.81288e+07
1.81255e+07
1.81218e+07
1.81177e+07
1.81133e+07
1.81085e+07
1.81476e+07
1.81465e+07
1.81469e+07
1.81473e+07
1.81468e+07
1.81451e+07
1.81428e+07
1.81397e+07
1.81372e+07
1.8134e+07
1.81312e+07
1.81283e+07
1.81254e+07
1.81226e+07
1.812e+07
1.81176e+07
1.81156e+07
1.81138e+07
1.81125e+07
1.81114e+07
1.81429e+07
1.81381e+07
1.81364e+07
1.81362e+07
1.81353e+07
1.81334e+07
1.81308e+07
1.81275e+07
1.81245e+07
1.8121e+07
1.81177e+07
1.81144e+07
1.81111e+07
1.81079e+07
1.8105e+07
1.81023e+07
1.81001e+07
1.80982e+07
1.8097e+07
1.80969e+07
1.81252e+07
1.81117e+07
1.81066e+07
1.81057e+07
1.81055e+07
1.8105e+07
1.81042e+07
1.81037e+07
1.81035e+07
1.81033e+07
1.81032e+07
1.8103e+07
1.81029e+07
1.81028e+07
1.81026e+07
1.81025e+07
1.81024e+07
1.81023e+07
1.81021e+07
1.8102e+07
1.81019e+07
1.81017e+07
1.81015e+07
1.81013e+07
1.8101e+07
1.81008e+07
1.81006e+07
1.81004e+07
1.81001e+07
1.80998e+07
1.80996e+07
1.80993e+07
1.8099e+07
1.80987e+07
1.80984e+07
1.80981e+07
1.80978e+07
1.80975e+07
1.80972e+07
1.80969e+07
1.80966e+07
1.80964e+07
1.8096e+07
1.80957e+07
1.80955e+07
1.80953e+07
1.80951e+07
1.8095e+07
1.80949e+07
1.80949e+07
1.80948e+07
1.80948e+07
1.80948e+07
1.80948e+07
1.80948e+07
1.80948e+07
1.80948e+07
1.80948e+07
1.80948e+07
1.80948e+07
1.80948e+07
1.80947e+07
1.80946e+07
1.80946e+07
1.80945e+07
1.80944e+07
1.80943e+07
1.80942e+07
1.80941e+07
1.8094e+07
1.80939e+07
1.80938e+07
1.80937e+07
1.80935e+07
1.80934e+07
1.80932e+07
1.80931e+07
1.80929e+07
1.80927e+07
1.80925e+07
1.80923e+07
1.80921e+07
1.80919e+07
1.80917e+07
1.80914e+07
1.80912e+07
1.8091e+07
1.80907e+07
1.80905e+07
1.80902e+07
1.809e+07
1.80897e+07
1.80895e+07
1.80892e+07
1.8089e+07
1.80888e+07
1.80885e+07
1.80883e+07
1.80881e+07
1.80879e+07
1.80877e+07
1.80875e+07
1.80874e+07
1.80872e+07
1.8087e+07
1.80869e+07
1.80867e+07
1.80866e+07
1.80865e+07
1.80863e+07
1.80862e+07
1.80861e+07
1.8086e+07
1.80859e+07
1.80857e+07
1.80856e+07
1.80855e+07
1.80854e+07
1.80852e+07
1.80851e+07
1.80849e+07
1.80847e+07
1.80846e+07
1.80844e+07
1.80842e+07
1.8084e+07
1.80838e+07
1.80836e+07
1.80833e+07
1.80831e+07
1.80829e+07
1.80826e+07
1.80824e+07
1.80821e+07
1.80818e+07
1.80816e+07
1.80813e+07
1.8081e+07
1.80808e+07
1.80805e+07
1.80802e+07
1.808e+07
1.80797e+07
1.80795e+07
1.80793e+07
1.80791e+07
1.80789e+07
1.80787e+07
1.80785e+07
1.80784e+07
1.80783e+07
1.80781e+07
1.8078e+07
1.8078e+07
1.80779e+07
1.80778e+07
1.80778e+07
1.80777e+07
1.80777e+07
1.80777e+07
1.80777e+07
1.80776e+07
1.80776e+07
1.80776e+07
1.80776e+07
1.80776e+07
1.80775e+07
1.80775e+07
1.80775e+07
1.80774e+07
1.80774e+07
1.80773e+07
1.80773e+07
1.80772e+07
1.80771e+07
1.8077e+07
1.80769e+07
1.80769e+07
1.80768e+07
1.80767e+07
1.80766e+07
1.80764e+07
1.80763e+07
1.80762e+07
1.80761e+07
1.80759e+07
1.80758e+07
1.80757e+07
1.80756e+07
1.80755e+07
1.80753e+07
1.80753e+07
1.80752e+07
1.80751e+07
1.80751e+07
1.8075e+07
1.8075e+07
1.80749e+07
1.80747e+07
1.80736e+07
1.8124e+07
1.81115e+07
1.81066e+07
1.81057e+07
1.81055e+07
1.8105e+07
1.81042e+07
1.81037e+07
1.81035e+07
1.81033e+07
1.81032e+07
1.8103e+07
1.81029e+07
1.81028e+07
1.81026e+07
1.81025e+07
1.81024e+07
1.81023e+07
1.81021e+07
1.8102e+07
1.81019e+07
1.81017e+07
1.81015e+07
1.81013e+07
1.8101e+07
1.81008e+07
1.81006e+07
1.81004e+07
1.81001e+07
1.80998e+07
1.80996e+07
1.80993e+07
1.8099e+07
1.80987e+07
1.80984e+07
1.80981e+07
1.80978e+07
1.80975e+07
1.80972e+07
1.80969e+07
1.80966e+07
1.80964e+07
1.8096e+07
1.80957e+07
1.80955e+07
1.80953e+07
1.80951e+07
1.8095e+07
1.80949e+07
1.80948e+07
1.80948e+07
1.80948e+07
1.80948e+07
1.80948e+07
1.80948e+07
1.80948e+07
1.80948e+07
1.80948e+07
1.80948e+07
1.80948e+07
1.80948e+07
1.80947e+07
1.80946e+07
1.80946e+07
1.80945e+07
1.80944e+07
1.80943e+07
1.80942e+07
1.80941e+07
1.8094e+07
1.80939e+07
1.80938e+07
1.80937e+07
1.80935e+07
1.80934e+07
1.80932e+07
1.80931e+07
1.80929e+07
1.80927e+07
1.80925e+07
1.80923e+07
1.80921e+07
1.80919e+07
1.80917e+07
1.80914e+07
1.80912e+07
1.8091e+07
1.80907e+07
1.80905e+07
1.80902e+07
1.809e+07
1.80897e+07
1.80895e+07
1.80892e+07
1.8089e+07
1.80888e+07
1.80885e+07
1.80883e+07
1.80881e+07
1.80879e+07
1.80877e+07
1.80875e+07
1.80874e+07
1.80872e+07
1.8087e+07
1.80869e+07
1.80867e+07
1.80866e+07
1.80865e+07
1.80863e+07
1.80862e+07
1.80861e+07
1.8086e+07
1.80859e+07
1.80857e+07
1.80856e+07
1.80855e+07
1.80854e+07
1.80852e+07
1.80851e+07
1.80849e+07
1.80847e+07
1.80846e+07
1.80844e+07
1.80842e+07
1.8084e+07
1.80838e+07
1.80836e+07
1.80833e+07
1.80831e+07
1.80829e+07
1.80826e+07
1.80824e+07
1.80821e+07
1.80818e+07
1.80816e+07
1.80813e+07
1.8081e+07
1.80808e+07
1.80805e+07
1.80802e+07
1.808e+07
1.80797e+07
1.80795e+07
1.80793e+07
1.80791e+07
1.80789e+07
1.80787e+07
1.80785e+07
1.80784e+07
1.80783e+07
1.80781e+07
1.8078e+07
1.8078e+07
1.80779e+07
1.80778e+07
1.80778e+07
1.80777e+07
1.80777e+07
1.80777e+07
1.80777e+07
1.80776e+07
1.80776e+07
1.80776e+07
1.80776e+07
1.80776e+07
1.80775e+07
1.80775e+07
1.80775e+07
1.80774e+07
1.80774e+07
1.80773e+07
1.80773e+07
1.80772e+07
1.80771e+07
1.8077e+07
1.80769e+07
1.80769e+07
1.80768e+07
1.80767e+07
1.80766e+07
1.80764e+07
1.80763e+07
1.80762e+07
1.80761e+07
1.80759e+07
1.80758e+07
1.80757e+07
1.80756e+07
1.80755e+07
1.80753e+07
1.80753e+07
1.80752e+07
1.80751e+07
1.80751e+07
1.8075e+07
1.8075e+07
1.80749e+07
1.80747e+07
1.80737e+07
1.80962e+07
1.81008e+07
1.81043e+07
1.81049e+07
1.81044e+07
1.81039e+07
1.81037e+07
1.81036e+07
1.81034e+07
1.81033e+07
1.81032e+07
1.8103e+07
1.81029e+07
1.81028e+07
1.81027e+07
1.81025e+07
1.81024e+07
1.81023e+07
1.81021e+07
1.8102e+07
1.81018e+07
1.81016e+07
1.81014e+07
1.81012e+07
1.8101e+07
1.81008e+07
1.81006e+07
1.81004e+07
1.81001e+07
1.80999e+07
1.80996e+07
1.80993e+07
1.8099e+07
1.80987e+07
1.80984e+07
1.80981e+07
1.80978e+07
1.80975e+07
1.80972e+07
1.80969e+07
1.80967e+07
1.80964e+07
1.80961e+07
1.80959e+07
1.80957e+07
1.80955e+07
1.80953e+07
1.80952e+07
1.80951e+07
1.8095e+07
1.8095e+07
1.80949e+07
1.80949e+07
1.80949e+07
1.80949e+07
1.80949e+07
1.80949e+07
1.80949e+07
1.80948e+07
1.80948e+07
1.80948e+07
1.80947e+07
1.80946e+07
1.80946e+07
1.80945e+07
1.80944e+07
1.80943e+07
1.80942e+07
1.80941e+07
1.8094e+07
1.80939e+07
1.80938e+07
1.80937e+07
1.80935e+07
1.80934e+07
1.80932e+07
1.80931e+07
1.80929e+07
1.80927e+07
1.80925e+07
1.80923e+07
1.80921e+07
1.80919e+07
1.80917e+07
1.80914e+07
1.80912e+07
1.8091e+07
1.80907e+07
1.80905e+07
1.80902e+07
1.809e+07
1.80897e+07
1.80895e+07
1.80892e+07
1.8089e+07
1.80888e+07
1.80885e+07
1.80883e+07
1.80881e+07
1.80879e+07
1.80877e+07
1.80875e+07
1.80874e+07
1.80872e+07
1.8087e+07
1.80869e+07
1.80867e+07
1.80866e+07
1.80865e+07
1.80863e+07
1.80862e+07
1.80861e+07
1.8086e+07
1.80859e+07
1.80857e+07
1.80856e+07
1.80855e+07
1.80854e+07
1.80852e+07
1.80851e+07
1.80849e+07
1.80847e+07
1.80846e+07
1.80844e+07
1.80842e+07
1.8084e+07
1.80838e+07
1.80836e+07
1.80833e+07
1.80831e+07
1.80829e+07
1.80826e+07
1.80824e+07
1.80821e+07
1.80818e+07
1.80816e+07
1.80813e+07
1.8081e+07
1.80808e+07
1.80805e+07
1.80802e+07
1.808e+07
1.80797e+07
1.80795e+07
1.80793e+07
1.80791e+07
1.80789e+07
1.80787e+07
1.80785e+07
1.80784e+07
1.80783e+07
1.80781e+07
1.8078e+07
1.8078e+07
1.80779e+07
1.80778e+07
1.80778e+07
1.80777e+07
1.80777e+07
1.80777e+07
1.80777e+07
1.80776e+07
1.80776e+07
1.80776e+07
1.80776e+07
1.80776e+07
1.80775e+07
1.80775e+07
1.80775e+07
1.80774e+07
1.80774e+07
1.80773e+07
1.80773e+07
1.80772e+07
1.80771e+07
1.8077e+07
1.80769e+07
1.80769e+07
1.80768e+07
1.80767e+07
1.80766e+07
1.80764e+07
1.80763e+07
1.80762e+07
1.80761e+07
1.80759e+07
1.80758e+07
1.80757e+07
1.80756e+07
1.80755e+07
1.80753e+07
1.80753e+07
1.80752e+07
1.80751e+07
1.80751e+07
1.8075e+07
1.8075e+07
1.8075e+07
1.8075e+07
1.80751e+07
1.81081e+07
1.81065e+07
1.81056e+07
1.8105e+07
1.81044e+07
1.8104e+07
1.81037e+07
1.81036e+07
1.81035e+07
1.81033e+07
1.81032e+07
1.8103e+07
1.81029e+07
1.81028e+07
1.81027e+07
1.81025e+07
1.81024e+07
1.81023e+07
1.81021e+07
1.8102e+07
1.81018e+07
1.81016e+07
1.81014e+07
1.81013e+07
1.81011e+07
1.81008e+07
1.81006e+07
1.81004e+07
1.81001e+07
1.80999e+07
1.80996e+07
1.80993e+07
1.8099e+07
1.80987e+07
1.80984e+07
1.80981e+07
1.80979e+07
1.80976e+07
1.80973e+07
1.8097e+07
1.80967e+07
1.80965e+07
1.80962e+07
1.8096e+07
1.80958e+07
1.80956e+07
1.80955e+07
1.80953e+07
1.80952e+07
1.80952e+07
1.80951e+07
1.8095e+07
1.8095e+07
1.8095e+07
1.8095e+07
1.80949e+07
1.80949e+07
1.80949e+07
1.80949e+07
1.80948e+07
1.80948e+07
1.80947e+07
1.80946e+07
1.80946e+07
1.80945e+07
1.80944e+07
1.80943e+07
1.80942e+07
1.80941e+07
1.8094e+07
1.80939e+07
1.80938e+07
1.80937e+07
1.80935e+07
1.80934e+07
1.80932e+07
1.80931e+07
1.80929e+07
1.80927e+07
1.80925e+07
1.80923e+07
1.80921e+07
1.80919e+07
1.80917e+07
1.80914e+07
1.80912e+07
1.8091e+07
1.80907e+07
1.80905e+07
1.80902e+07
1.809e+07
1.80897e+07
1.80895e+07
1.80892e+07
1.8089e+07
1.80888e+07
1.80885e+07
1.80883e+07
1.80881e+07
1.80879e+07
1.80877e+07
1.80875e+07
1.80874e+07
1.80872e+07
1.8087e+07
1.80869e+07
1.80867e+07
1.80866e+07
1.80865e+07
1.80863e+07
1.80862e+07
1.80861e+07
1.8086e+07
1.80859e+07
1.80857e+07
1.80856e+07
1.80855e+07
1.80854e+07
1.80852e+07
1.80851e+07
1.80849e+07
1.80847e+07
1.80846e+07
1.80844e+07
1.80842e+07
1.8084e+07
1.80838e+07
1.80836e+07
1.80833e+07
1.80831e+07
1.80829e+07
1.80826e+07
1.80824e+07
1.80821e+07
1.80818e+07
1.80816e+07
1.80813e+07
1.8081e+07
1.80808e+07
1.80805e+07
1.80802e+07
1.808e+07
1.80797e+07
1.80795e+07
1.80793e+07
1.80791e+07
1.80789e+07
1.80787e+07
1.80785e+07
1.80784e+07
1.80783e+07
1.80781e+07
1.8078e+07
1.8078e+07
1.80779e+07
1.80778e+07
1.80778e+07
1.80777e+07
1.80777e+07
1.80777e+07
1.80777e+07
1.80776e+07
1.80776e+07
1.80776e+07
1.80776e+07
1.80776e+07
1.80775e+07
1.80775e+07
1.80775e+07
1.80774e+07
1.80774e+07
1.80773e+07
1.80773e+07
1.80772e+07
1.80771e+07
1.8077e+07
1.80769e+07
1.80769e+07
1.80768e+07
1.80767e+07
1.80766e+07
1.80764e+07
1.80763e+07
1.80762e+07
1.80761e+07
1.80759e+07
1.80758e+07
1.80757e+07
1.80756e+07
1.80755e+07
1.80753e+07
1.80753e+07
1.80752e+07
1.80751e+07
1.80751e+07
1.8075e+07
1.8075e+07
1.8075e+07
1.80753e+07
1.8076e+07
1.81054e+07
1.81061e+07
1.81055e+07
1.8105e+07
1.81044e+07
1.8104e+07
1.81037e+07
1.81036e+07
1.81035e+07
1.81033e+07
1.81032e+07
1.8103e+07
1.81029e+07
1.81028e+07
1.81027e+07
1.81025e+07
1.81024e+07
1.81023e+07
1.81021e+07
1.8102e+07
1.81018e+07
1.81016e+07
1.81014e+07
1.81013e+07
1.81011e+07
1.81008e+07
1.81006e+07
1.81004e+07
1.81001e+07
1.80999e+07
1.80996e+07
1.80993e+07
1.8099e+07
1.80987e+07
1.80984e+07
1.80981e+07
1.80979e+07
1.80976e+07
1.80973e+07
1.8097e+07
1.80967e+07
1.80965e+07
1.80962e+07
1.8096e+07
1.80958e+07
1.80956e+07
1.80955e+07
1.80953e+07
1.80952e+07
1.80952e+07
1.80951e+07
1.8095e+07
1.8095e+07
1.8095e+07
1.8095e+07
1.80949e+07
1.80949e+07
1.80949e+07
1.80949e+07
1.80948e+07
1.80948e+07
1.80947e+07
1.80946e+07
1.80946e+07
1.80945e+07
1.80944e+07
1.80943e+07
1.80942e+07
1.80941e+07
1.8094e+07
1.80939e+07
1.80938e+07
1.80937e+07
1.80935e+07
1.80934e+07
1.80932e+07
1.80931e+07
1.80929e+07
1.80927e+07
1.80925e+07
1.80923e+07
1.80921e+07
1.80919e+07
1.80917e+07
1.80914e+07
1.80912e+07
1.8091e+07
1.80907e+07
1.80905e+07
1.80902e+07
1.809e+07
1.80897e+07
1.80895e+07
1.80892e+07
1.8089e+07
1.80888e+07
1.80885e+07
1.80883e+07
1.80881e+07
1.80879e+07
1.80877e+07
1.80875e+07
1.80874e+07
1.80872e+07
1.8087e+07
1.80869e+07
1.80867e+07
1.80866e+07
1.80865e+07
1.80863e+07
1.80862e+07
1.80861e+07
1.8086e+07
1.80859e+07
1.80857e+07
1.80856e+07
1.80855e+07
1.80854e+07
1.80852e+07
1.80851e+07
1.80849e+07
1.80847e+07
1.80846e+07
1.80844e+07
1.80842e+07
1.8084e+07
1.80838e+07
1.80836e+07
1.80833e+07
1.80831e+07
1.80829e+07
1.80826e+07
1.80824e+07
1.80821e+07
1.80818e+07
1.80816e+07
1.80813e+07
1.8081e+07
1.80808e+07
1.80805e+07
1.80802e+07
1.808e+07
1.80797e+07
1.80795e+07
1.80793e+07
1.80791e+07
1.80789e+07
1.80787e+07
1.80785e+07
1.80784e+07
1.80783e+07
1.80781e+07
1.8078e+07
1.8078e+07
1.80779e+07
1.80778e+07
1.80778e+07
1.80777e+07
1.80777e+07
1.80777e+07
1.80777e+07
1.80776e+07
1.80776e+07
1.80776e+07
1.80776e+07
1.80776e+07
1.80775e+07
1.80775e+07
1.80775e+07
1.80774e+07
1.80774e+07
1.80773e+07
1.80773e+07
1.80772e+07
1.80771e+07
1.8077e+07
1.80769e+07
1.80769e+07
1.80768e+07
1.80767e+07
1.80766e+07
1.80764e+07
1.80763e+07
1.80762e+07
1.80761e+07
1.80759e+07
1.80758e+07
1.80757e+07
1.80756e+07
1.80755e+07
1.80753e+07
1.80753e+07
1.80752e+07
1.80751e+07
1.80751e+07
1.8075e+07
1.8075e+07
1.8075e+07
1.80753e+07
1.80761e+07
1.80625e+07
1.80576e+07
1.80559e+07
1.80556e+07
1.80548e+07
1.8053e+07
1.80504e+07
1.80477e+07
1.80446e+07
1.80416e+07
1.80384e+07
1.80353e+07
1.80323e+07
1.80294e+07
1.80268e+07
1.80245e+07
1.80225e+07
1.80209e+07
1.80199e+07
1.80199e+07
1.80666e+07
1.80655e+07
1.80659e+07
1.80663e+07
1.80657e+07
1.80641e+07
1.80617e+07
1.80596e+07
1.80566e+07
1.80542e+07
1.80513e+07
1.80486e+07
1.80459e+07
1.80434e+07
1.80411e+07
1.80391e+07
1.80373e+07
1.80358e+07
1.80346e+07
1.80337e+07
1.80754e+07
1.80754e+07
1.8075e+07
1.80742e+07
1.80732e+07
1.80719e+07
1.80703e+07
1.80684e+07
1.80662e+07
1.80636e+07
1.8061e+07
1.80584e+07
1.80558e+07
1.80528e+07
1.80495e+07
1.80458e+07
1.80419e+07
1.80377e+07
1.80332e+07
1.80289e+07
1.80799e+07
1.80812e+07
1.80811e+07
1.80805e+07
1.80798e+07
1.80791e+07
1.80783e+07
1.80777e+07
1.80777e+07
1.80784e+07
1.80779e+07
1.80749e+07
1.80696e+07
1.80655e+07
1.80629e+07
1.80606e+07
1.80588e+07
1.80581e+07
1.80604e+07
1.80609e+07
1.80814e+07
1.8084e+07
1.80843e+07
1.80836e+07
1.8083e+07
1.80823e+07
1.80816e+07
1.80809e+07
1.80809e+07
1.80816e+07
1.80813e+07
1.80787e+07
1.80738e+07
1.80698e+07
1.8067e+07
1.80645e+07
1.80624e+07
1.80615e+07
1.80636e+07
1.80647e+07
1.8028e+07
1.80291e+07
1.8029e+07
1.80288e+07
1.80284e+07
1.80283e+07
1.80284e+07
1.80285e+07
1.80286e+07
1.80287e+07
1.80287e+07
1.80288e+07
1.80289e+07
1.80289e+07
1.80289e+07
1.80289e+07
1.80289e+07
1.80289e+07
1.80288e+07
1.80288e+07
1.80287e+07
1.80287e+07
1.80286e+07
1.80285e+07
1.80284e+07
1.80284e+07
1.80283e+07
1.80282e+07
1.80281e+07
1.8028e+07
1.80279e+07
1.80278e+07
1.80277e+07
1.80276e+07
1.80275e+07
1.80274e+07
1.80273e+07
1.80273e+07
1.80272e+07
1.80271e+07
1.80271e+07
1.8027e+07
1.8027e+07
1.8027e+07
1.8027e+07
1.8027e+07
1.80271e+07
1.80272e+07
1.80274e+07
1.80275e+07
1.80277e+07
1.80279e+07
1.80281e+07
1.80283e+07
1.80285e+07
1.80287e+07
1.8029e+07
1.80291e+07
1.80293e+07
1.80295e+07
1.80296e+07
1.80297e+07
1.80298e+07
1.80298e+07
1.80298e+07
1.80298e+07
1.80298e+07
1.80297e+07
1.80296e+07
1.80295e+07
1.80294e+07
1.80293e+07
1.80292e+07
1.8029e+07
1.80288e+07
1.80287e+07
1.80285e+07
1.80283e+07
1.80281e+07
1.80279e+07
1.80277e+07
1.80274e+07
1.80272e+07
1.8027e+07
1.80267e+07
1.80265e+07
1.80263e+07
1.8026e+07
1.80258e+07
1.80256e+07
1.80253e+07
1.80251e+07
1.80249e+07
1.80248e+07
1.80246e+07
1.80244e+07
1.80243e+07
1.80241e+07
1.80237e+07
1.80225e+07
1.80306e+07
1.80294e+07
1.80291e+07
1.80288e+07
1.80285e+07
1.80283e+07
1.80284e+07
1.80285e+07
1.80286e+07
1.80287e+07
1.80287e+07
1.80288e+07
1.80289e+07
1.80289e+07
1.80289e+07
1.80289e+07
1.80289e+07
1.80289e+07
1.80288e+07
1.80288e+07
1.80287e+07
1.80287e+07
1.80286e+07
1.80285e+07
1.80284e+07
1.80284e+07
1.80283e+07
1.80282e+07
1.80281e+07
1.8028e+07
1.80279e+07
1.80278e+07
1.80277e+07
1.80276e+07
1.80275e+07
1.80274e+07
1.80273e+07
1.80273e+07
1.80272e+07
1.80271e+07
1.80271e+07
1.8027e+07
1.8027e+07
1.8027e+07
1.8027e+07
1.8027e+07
1.80271e+07
1.80272e+07
1.80274e+07
1.80275e+07
1.80277e+07
1.80279e+07
1.80281e+07
1.80283e+07
1.80285e+07
1.80287e+07
1.8029e+07
1.80291e+07
1.80293e+07
1.80295e+07
1.80296e+07
1.80297e+07
1.80298e+07
1.80298e+07
1.80298e+07
1.80298e+07
1.80298e+07
1.80297e+07
1.80296e+07
1.80295e+07
1.80294e+07
1.80293e+07
1.80292e+07
1.8029e+07
1.80288e+07
1.80287e+07
1.80285e+07
1.80283e+07
1.80281e+07
1.80279e+07
1.80277e+07
1.80274e+07
1.80272e+07
1.8027e+07
1.80267e+07
1.80265e+07
1.80263e+07
1.8026e+07
1.80258e+07
1.80256e+07
1.80253e+07
1.80251e+07
1.80249e+07
1.80248e+07
1.80246e+07
1.80244e+07
1.80243e+07
1.80241e+07
1.80237e+07
1.80225e+07
1.80202e+07
1.80246e+07
1.80281e+07
1.80287e+07
1.80283e+07
1.80282e+07
1.80283e+07
1.80285e+07
1.80286e+07
1.80287e+07
1.80287e+07
1.80288e+07
1.80288e+07
1.80289e+07
1.80289e+07
1.80289e+07
1.80289e+07
1.80289e+07
1.80288e+07
1.80288e+07
1.80287e+07
1.80287e+07
1.80286e+07
1.80285e+07
1.80284e+07
1.80283e+07
1.80283e+07
1.80282e+07
1.80281e+07
1.8028e+07
1.80279e+07
1.80278e+07
1.80277e+07
1.80276e+07
1.80275e+07
1.80274e+07
1.80273e+07
1.80272e+07
1.80271e+07
1.80271e+07
1.8027e+07
1.80269e+07
1.80269e+07
1.80269e+07
1.80269e+07
1.80269e+07
1.8027e+07
1.80271e+07
1.80272e+07
1.80274e+07
1.80276e+07
1.80278e+07
1.8028e+07