/*--------------------------------*- C++ -*----------------------------------*\
| =========                 |                                                 |
| \\      /  F ield         | OpenFOAM: The Open Source CFD Toolbox           |
|  \\    /   O peration     | Version:  3.0.x                                 |
|   \\  /    A nd           | Web:      www.OpenFOAM.org                      |
|    \\/     M anipulation  |                                                 |
\*---------------------------------------------------------------------------*/
FoamFile
{
    version     2.0;
    format      ascii;
    class       volScalarField;
    location    "0.25";
    object      rho;
}
// * * * * * * * * * * * * * * * * * * * * * * * * * * * * * * * * * * * * * //

dimensions      [1 -3 0 0 0 0 0];

internalField   nonuniform List<scalar> 
6900
(
50.8723
50.8725
50.8728
50.873
50.8732
50.8733
50.8734
50.8735
50.8735
50.8736
50.8737
50.8739
50.8742
50.8743
50.8745
50.8747
50.8749
50.8751
50.8752
50.8753
50.8752
50.8752
50.875
50.8748
50.8746
50.8744
50.8743
50.8742
50.8741
50.8739
50.8738
50.8735
50.8733
50.873
50.8726
50.8723
50.8719
50.8715
50.8712
50.8708
50.8704
50.8701
50.8697
50.8694
50.869
50.8687
50.8684
50.8681
50.8678
50.8675
50.8672
50.8669
50.8666
50.8663
50.866
50.8658
50.8655
50.8652
50.865
50.8647
50.8645
50.8642
50.864
50.8637
50.8635
50.8633
50.8631
50.8629
50.8627
50.8625
50.8624
50.8622
50.8621
50.862
50.8619
50.8618
50.8618
50.8617
50.8617
50.8617
50.8617
50.8617
50.8617
50.8617
50.8618
50.8618
50.8618
50.8619
50.8619
50.8619
50.862
50.862
50.862
50.862
50.862
50.862
50.8619
50.8619
50.8619
50.8618
50.8618
50.8617
50.8616
50.8616
50.8615
50.8614
50.8614
50.8613
50.8613
50.8612
50.8612
50.8612
50.8612
50.8612
50.8612
50.8612
50.8612
50.8613
50.8613
50.8613
50.8614
50.8614
50.8615
50.8615
50.8615
50.8615
50.8615
50.8615
50.8615
50.8614
50.8613
50.8612
50.8611
50.8609
50.8608
50.8606
50.8603
50.8601
50.8599
50.8596
50.8593
50.8591
50.8588
50.8584
50.8581
50.8578
50.8575
50.8572
50.8569
50.8566
50.8563
50.856
50.8557
50.8554
50.8552
50.8549
50.8546
50.8543
50.8541
50.8538
50.8535
50.8531
50.8528
50.8524
50.852
50.8515
50.8511
50.8506
50.8501
50.8495
50.849
50.8484
50.8479
50.8473
50.8467
50.8461
50.8455
50.8449
50.8443
50.8437
50.8431
50.8425
50.8419
50.8413
50.8407
50.8402
50.8397
50.8392
50.8387
50.8383
50.8379
50.8375
50.8371
50.8367
50.8364
50.836
50.8357
50.8352
50.8352
50.8319
50.8724
50.8726
50.8729
50.8731
50.8733
50.8734
50.8735
50.8736
50.8736
50.8737
50.8739
50.8741
50.8743
50.8744
50.8746
50.8748
50.875
50.8752
50.8753
50.8754
50.8753
50.8753
50.8751
50.8749
50.8747
50.8745
50.8744
50.8743
50.8742
50.874
50.8738
50.8736
50.8734
50.873
50.8727
50.8724
50.872
50.8716
50.8712
50.8709
50.8705
50.8702
50.8698
50.8695
50.8691
50.8688
50.8685
50.8682
50.8678
50.8675
50.8672
50.867
50.8667
50.8664
50.8661
50.8658
50.8656
50.8653
50.865
50.8648
50.8645
50.8643
50.864
50.8638
50.8636
50.8634
50.8632
50.863
50.8628
50.8626
50.8624
50.8623
50.8622
50.8621
50.862
50.8619
50.8618
50.8618
50.8618
50.8617
50.8617
50.8618
50.8618
50.8618
50.8618
50.8619
50.8619
50.862
50.862
50.862
50.862
50.8621
50.8621
50.8621
50.8621
50.8621
50.862
50.862
50.8619
50.8619
50.8618
50.8618
50.8617
50.8616
50.8616
50.8615
50.8615
50.8614
50.8613
50.8613
50.8613
50.8612
50.8612
50.8612
50.8612
50.8613
50.8613
50.8613
50.8614
50.8614
50.8615
50.8615
50.8616
50.8616
50.8616
50.8616
50.8616
50.8616
50.8615
50.8615
50.8614
50.8613
50.8611
50.861
50.8608
50.8606
50.8604
50.8602
50.8599
50.8597
50.8594
50.8591
50.8588
50.8585
50.8582
50.8579
50.8576
50.8573
50.857
50.8567
50.8564
50.8561
50.8558
50.8555
50.8552
50.855
50.8547
50.8544
50.8541
50.8538
50.8535
50.8532
50.8528
50.8524
50.852
50.8516
50.8511
50.8506
50.8501
50.8496
50.8491
50.8485
50.8479
50.8474
50.8468
50.8462
50.8456
50.845
50.8444
50.8438
50.8432
50.8426
50.842
50.8414
50.8408
50.8403
50.8398
50.8393
50.8388
50.8384
50.838
50.8376
50.8372
50.8368
50.8365
50.8361
50.8358
50.8353
50.8352
50.8322
50.8724
50.8726
50.8729
50.8731
50.8733
50.8734
50.8735
50.8736
50.8736
50.8737
50.8739
50.8741
50.8743
50.8744
50.8746
50.8748
50.875
50.8752
50.8753
50.8754
50.8753
50.8753
50.8751
50.8749
50.8747
50.8745
50.8744
50.8743
50.8742
50.874
50.8738
50.8736
50.8734
50.873
50.8727
50.8724
50.872
50.8716
50.8712
50.8709
50.8705
50.8702
50.8698
50.8695
50.8691
50.8688
50.8685
50.8682
50.8678
50.8675
50.8672
50.867
50.8667
50.8664
50.8661
50.8658
50.8656
50.8653
50.865
50.8648
50.8645
50.8643
50.864
50.8638
50.8636
50.8634
50.8632
50.863
50.8628
50.8626
50.8624
50.8623
50.8622
50.8621
50.862
50.8619
50.8618
50.8618
50.8618
50.8617
50.8617
50.8618
50.8618
50.8618
50.8618
50.8619
50.8619
50.862
50.862
50.862
50.862
50.8621
50.8621
50.8621
50.8621
50.8621
50.862
50.862
50.8619
50.8619
50.8618
50.8618
50.8617
50.8616
50.8616
50.8615
50.8615
50.8614
50.8613
50.8613
50.8613
50.8612
50.8612
50.8612
50.8612
50.8613
50.8613
50.8613
50.8614
50.8614
50.8615
50.8615
50.8616
50.8616
50.8616
50.8616
50.8616
50.8616
50.8615
50.8615
50.8614
50.8613
50.8611
50.861
50.8608
50.8606
50.8604
50.8602
50.8599
50.8597
50.8594
50.8591
50.8588
50.8585
50.8582
50.8579
50.8576
50.8573
50.857
50.8567
50.8564
50.8561
50.8558
50.8555
50.8552
50.855
50.8547
50.8544
50.8541
50.8538
50.8535
50.8532
50.8528
50.8524
50.852
50.8516
50.8511
50.8506
50.8501
50.8496
50.8491
50.8485
50.8479
50.8474
50.8468
50.8462
50.8456
50.845
50.8444
50.8438
50.8432
50.8426
50.842
50.8414
50.8408
50.8403
50.8398
50.8393
50.8388
50.8384
50.838
50.8376
50.8372
50.8368
50.8365
50.8361
50.8357
50.8353
50.8349
50.8343
50.8724
50.8726
50.8729
50.8731
50.8733
50.8734
50.8735
50.8736
50.8736
50.8737
50.8739
50.8741
50.8743
50.8744
50.8746
50.8748
50.875
50.8752
50.8753
50.8754
50.8753
50.8753
50.8751
50.8749
50.8747
50.8745
50.8744
50.8743
50.8742
50.874
50.8738
50.8736
50.8734
50.873
50.8727
50.8724
50.872
50.8716
50.8712
50.8709
50.8705
50.8702
50.8698
50.8695
50.8691
50.8688
50.8685
50.8682
50.8678
50.8675
50.8672
50.867
50.8667
50.8664
50.8661
50.8658
50.8656
50.8653
50.865
50.8648
50.8645
50.8643
50.864
50.8638
50.8636
50.8634
50.8632
50.863
50.8628
50.8626
50.8624
50.8623
50.8622
50.8621
50.862
50.8619
50.8618
50.8618
50.8618
50.8617
50.8617
50.8618
50.8618
50.8618
50.8618
50.8619
50.8619
50.862
50.862
50.862
50.862
50.8621
50.8621
50.8621
50.8621
50.8621
50.862
50.862
50.8619
50.8619
50.8618
50.8618
50.8617
50.8616
50.8616
50.8615
50.8615
50.8614
50.8613
50.8613
50.8613
50.8612
50.8612
50.8612
50.8612
50.8613
50.8613
50.8613
50.8614
50.8614
50.8615
50.8615
50.8616
50.8616
50.8616
50.8616
50.8616
50.8616
50.8615
50.8615
50.8614
50.8613
50.8611
50.861
50.8608
50.8606
50.8604
50.8602
50.8599
50.8597
50.8594
50.8591
50.8588
50.8585
50.8582
50.8579
50.8576
50.8573
50.857
50.8567
50.8564
50.8561
50.8558
50.8555
50.8552
50.855
50.8547
50.8544
50.8541
50.8538
50.8535
50.8532
50.8528
50.8524
50.852
50.8516
50.8511
50.8506
50.8501
50.8496
50.8491
50.8485
50.8479
50.8474
50.8468
50.8462
50.8456
50.845
50.8444
50.8438
50.8432
50.8426
50.842
50.8414
50.8408
50.8403
50.8397
50.8393
50.8388
50.8384
50.8379
50.8376
50.8372
50.8369
50.8365
50.8361
50.8357
50.8354
50.834
50.8395
50.8723
50.8725
50.8728
50.873
50.8732
50.8733
50.8734
50.8735
50.8735
50.8736
50.8737
50.8739
50.8742
50.8743
50.8745
50.8747
50.8749
50.8751
50.8752
50.8753
50.8752
50.8752
50.875
50.8748
50.8746
50.8744
50.8743
50.8742
50.8741
50.8739
50.8738
50.8735
50.8733
50.873
50.8726
50.8723
50.8719
50.8715
50.8712
50.8708
50.8704
50.8701
50.8697
50.8694
50.869
50.8687
50.8684
50.8681
50.8678
50.8675
50.8672
50.8669
50.8666
50.8663
50.866
50.8658
50.8655
50.8652
50.865
50.8647
50.8645
50.8642
50.864
50.8637
50.8635
50.8633
50.8631
50.8629
50.8627
50.8625
50.8624
50.8622
50.8621
50.862
50.8619
50.8618
50.8618
50.8617
50.8617
50.8617
50.8617
50.8617
50.8617
50.8617
50.8618
50.8618
50.8618
50.8619
50.8619
50.8619
50.862
50.862
50.862
50.862
50.862
50.862
50.8619
50.8619
50.8619
50.8618
50.8618
50.8617
50.8616
50.8616
50.8615
50.8614
50.8614
50.8613
50.8613
50.8612
50.8612
50.8612
50.8612
50.8612
50.8612
50.8612
50.8612
50.8613
50.8613
50.8613
50.8614
50.8614
50.8615
50.8615
50.8615
50.8615
50.8615
50.8615
50.8615
50.8614
50.8613
50.8612
50.8611
50.8609
50.8608
50.8606
50.8603
50.8601
50.8599
50.8596
50.8593
50.8591
50.8588
50.8584
50.8581
50.8578
50.8575
50.8572
50.8569
50.8566
50.8563
50.856
50.8557
50.8554
50.8552
50.8549
50.8546
50.8543
50.8541
50.8538
50.8534
50.8531
50.8528
50.8524
50.852
50.8515
50.8511
50.8506
50.8501
50.8495
50.849
50.8484
50.8479
50.8473
50.8467
50.8461
50.8455
50.8449
50.8443
50.8437
50.8431
50.8425
50.8419
50.8413
50.8407
50.8402
50.8397
50.8392
50.8387
50.8383
50.8379
50.8375
50.8371
50.8368
50.8364
50.8361
50.8356
50.8354
50.8334
50.845
50.8496
50.8561
50.8567
50.8547
50.853
50.8512
50.8486
50.845
50.8414
50.8391
50.8403
50.846
50.8475
50.8404
50.8265
50.8108
50.8003
50.7914
50.783
50.7845
50.8461
50.8493
50.849
50.8473
50.8455
50.8438
50.8412
50.8376
50.8341
50.832
50.8336
50.8399
50.8401
50.8309
50.8145
50.7998
50.7902
50.7821
50.7751
50.7758
50.8348
50.8346
50.8334
50.8312
50.8283
50.8248
50.8205
50.8157
50.8097
50.8027
50.7945
50.7854
50.7764
50.7683
50.7607
50.7523
50.7422
50.7312
50.7195
50.7061
50.812
50.809
50.8097
50.811
50.8099
50.8061
50.8007
50.7935
50.7874
50.78
50.7735
50.766
50.7592
50.7527
50.7461
50.7405
50.7355
50.7316
50.7283
50.7259
50.8024
50.7902
50.7857
50.7849
50.7826
50.7776
50.7711
50.7628
50.7553
50.7464
50.7384
50.7298
50.7218
50.7135
50.7061
50.699
50.6932
50.688
50.6843
50.6824
50.763
50.728
50.7141
50.7137
50.7131
50.7108
50.7086
50.7079
50.7078
50.7073
50.7068
50.7064
50.7062
50.7059
50.7055
50.7052
50.7049
50.7046
50.7043
50.704
50.7037
50.7032
50.7027
50.7022
50.7017
50.7013
50.7007
50.7002
50.6995
50.6989
50.6984
50.6978
50.6971
50.6964
50.6955
50.6947
50.6939
50.6931
50.6924
50.6918
50.6914
50.6909
50.69
50.689
50.688
50.6874
50.6868
50.6864
50.6861
50.6859
50.6858
50.6856
50.685
50.6821
50.6704
50.6555
50.6488
50.6482
50.6526
50.6683
50.6826
50.6899
50.6925
50.6927
50.6921
50.6907
50.6895
50.6886
50.688
50.6875
50.6871
50.6867
50.6863
50.686
50.6856
50.6853
50.6849
50.6845
50.6841
50.6836
50.6831
50.6827
50.6821
50.6816
50.6811
50.6805
50.6799
50.6794
50.6788
50.6782
50.6776
50.677
50.6765
50.6759
50.6754
50.6748
50.6743
50.6738
50.6733
50.6728
50.6724
50.6719
50.6715
50.6711
50.6708
50.6704
50.6701
50.6698
50.6695
50.6692
50.6689
50.6686
50.6683
50.668
50.6677
50.6675
50.6672
50.6668
50.6665
50.6662
50.6658
50.6654
50.665
50.6646
50.6642
50.6637
50.6632
50.6627
50.6622
50.6616
50.6611
50.6605
50.6599
50.6593
50.6586
50.658
50.6574
50.6568
50.6561
50.6555
50.6549
50.6543
50.6538
50.6532
50.6527
50.6522
50.6518
50.6513
50.6509
50.6506
50.6503
50.65
50.6498
50.6496
50.6494
50.6493
50.6492
50.6491
50.649
50.649
50.6489
50.6489
50.6488
50.6488
50.6487
50.6487
50.6486
50.6485
50.6485
50.6483
50.6482
50.6481
50.648
50.6478
50.6476
50.6474
50.6472
50.647
50.6468
50.6466
50.6463
50.646
50.6458
50.6455
50.6452
50.6449
50.6446
50.6443
50.644
50.6437
50.6435
50.6433
50.6431
50.6429
50.6428
50.6427
50.6426
50.6427
50.6416
50.6501
50.7613
50.7269
50.7138
50.713
50.7123
50.7098
50.7076
50.707
50.7068
50.7062
50.7057
50.7053
50.705
50.7047
50.7044
50.704
50.7037
50.7034
50.7031
50.7028
50.7025
50.702
50.7015
50.7011
50.7007
50.7002
50.6996
50.699
50.6985
50.6979
50.6973
50.6966
50.6958
50.695
50.6941
50.6932
50.6924
50.6916
50.6909
50.6903
50.6896
50.689
50.6879
50.6869
50.686
50.6854
50.6849
50.6846
50.6843
50.6842
50.684
50.6838
50.6825
50.6767
50.6666
50.6605
50.659
50.6599
50.6664
50.6775
50.6847
50.6885
50.6899
50.6901
50.6898
50.6893
50.6887
50.6882
50.6878
50.6874
50.6871
50.6867
50.6864
50.686
50.6857
50.6853
50.685
50.6846
50.6841
50.6837
50.6832
50.6827
50.6822
50.6817
50.6811
50.6806
50.68
50.6794
50.6789
50.6783
50.6777
50.6771
50.6765
50.676
50.6754
50.6749
50.6744
50.6739
50.6734
50.6729
50.6724
50.672
50.6716
50.6712
50.6708
50.6705
50.6702
50.6698
50.6695
50.6692
50.6689
50.6687
50.6684
50.6681
50.6678
50.6675
50.6672
50.6669
50.6666
50.6662
50.6659
50.6655
50.6651
50.6647
50.6642
50.6638
50.6633
50.6628
50.6622
50.6617
50.6611
50.6605
50.6599
50.6593
50.6587
50.6581
50.6575
50.6568
50.6562
50.6556
50.655
50.6544
50.6538
50.6533
50.6528
50.6523
50.6518
50.6514
50.651
50.6507
50.6504
50.6501
50.6499
50.6497
50.6495
50.6493
50.6492
50.6491
50.6491
50.649
50.649
50.6489
50.6489
50.6489
50.6488
50.6488
50.6487
50.6486
50.6485
50.6484
50.6483
50.6482
50.648
50.6479
50.6477
50.6475
50.6473
50.6471
50.6469
50.6466
50.6464
50.6461
50.6458
50.6455
50.6453
50.645
50.6447
50.6444
50.6441
50.6438
50.6436
50.6434
50.6432
50.643
50.6429
50.6428
50.6427
50.6427
50.642
50.6456
50.6713
50.6841
50.6931
50.6944
50.6927
50.6915
50.691
50.6908
50.6905
50.6901
50.6898
50.6894
50.689
50.6887
50.6884
50.6881
50.6878
50.6875
50.6872
50.6869
50.6865
50.6861
50.6857
50.6852
50.6846
50.684
50.6833
50.6826
50.6819
50.6811
50.6803
50.6794
50.6785
50.6776
50.6767
50.6759
50.6751
50.6745
50.6742
50.6751
50.6783
50.6813
50.6838
50.6855
50.6865
50.687
50.6872
50.6871
50.6869
50.6867
50.6866
50.6864
50.6863
50.6862
50.6864
50.6869
50.6874
50.6879
50.6883
50.6885
50.6885
50.6885
50.6884
50.6882
50.688
50.6879
50.6877
50.6875
50.6873
50.687
50.6868
50.6865
50.6863
50.686
50.6856
50.6853
50.6849
50.6845
50.6841
50.6837
50.6832
50.6827
50.6822
50.6817
50.6811
50.6806
50.68
50.6794
50.6789
50.6783
50.6777
50.6771
50.6765
50.676
50.6754
50.6749
50.6744
50.6739
50.6734
50.6729
50.6724
50.672
50.6716
50.6712
50.6708
50.6705
50.6702
50.6698
50.6695
50.6692
50.6689
50.6687
50.6684
50.6681
50.6678
50.6675
50.6672
50.6669
50.6666
50.6662
50.6659
50.6655
50.6651
50.6647
50.6642
50.6638
50.6633
50.6628
50.6622
50.6617
50.6611
50.6605
50.6599
50.6593
50.6587
50.6581
50.6575
50.6568
50.6562
50.6556
50.655
50.6544
50.6538
50.6533
50.6528
50.6523
50.6518
50.6514
50.651
50.6507
50.6504
50.6501
50.6499
50.6497
50.6495
50.6493
50.6492
50.6491
50.6491
50.649
50.649
50.6489
50.6489
50.6489
50.6488
50.6488
50.6487
50.6486
50.6485
50.6484
50.6483
50.6482
50.648
50.6479
50.6477
50.6475
50.6473
50.6471
50.6469
50.6466
50.6464
50.6461
50.6458
50.6455
50.6453
50.645
50.6447
50.6444
50.6441
50.6438
50.6436
50.6433
50.6432
50.643
50.6429
50.6428
50.6428
50.6427
50.6428
50.6429
50.7181
50.714
50.7123
50.7107
50.7091
50.708
50.7075
50.7073
50.7069
50.7066
50.7062
50.706
50.7057
50.7054
50.7051
50.7048
50.7045
50.7042
50.7038
50.7034
50.703
50.7026
50.7022
50.7017
50.7012
50.7007
50.7002
50.6996
50.699
50.6985
50.6979
50.6972
50.6965
50.6958
50.6951
50.6945
50.6939
50.6932
50.6926
50.6919
50.6911
50.6903
50.6893
50.6884
50.6877
50.687
50.6861
50.685
50.6843
50.6838
50.6831
50.6816
50.6784
50.6758
50.6748
50.6747
50.6754
50.6789
50.6837
50.687
50.6888
50.6896
50.6897
50.6895
50.6892
50.6888
50.6884
50.688
50.6876
50.6873
50.687
50.6867
50.6863
50.686
50.6857
50.6853
50.6849
50.6845
50.6841
50.6837
50.6832
50.6827
50.6822
50.6817
50.6811
50.6806
50.68
50.6794
50.6789
50.6783
50.6777
50.6771
50.6765
50.676
50.6754
50.6749
50.6744
50.6739
50.6734
50.6729
50.6724
50.672
50.6716
50.6712
50.6708
50.6705
50.6702
50.6698
50.6695
50.6692
50.6689
50.6687
50.6684
50.6681
50.6678
50.6675
50.6672
50.6669
50.6666
50.6662
50.6659
50.6655
50.6651
50.6647
50.6642
50.6638
50.6633
50.6628
50.6622
50.6617
50.6611
50.6605
50.6599
50.6593
50.6587
50.6581
50.6575
50.6568
50.6562
50.6556
50.655
50.6544
50.6538
50.6533
50.6528
50.6523
50.6518
50.6514
50.651
50.6507
50.6504
50.6501
50.6499
50.6497
50.6495
50.6493
50.6492
50.6491
50.6491
50.649
50.649
50.6489
50.6489
50.6489
50.6488
50.6488
50.6487
50.6486
50.6485
50.6484
50.6483
50.6482
50.648
50.6479
50.6477
50.6475
50.6473
50.6471
50.6469
50.6466
50.6464
50.6461
50.6458
50.6455
50.6453
50.645
50.6447
50.6444
50.6441
50.6438
50.6436
50.6433
50.6432
50.643
50.6429
50.6428
50.6428
50.6428
50.6432
50.6422
50.7029
50.705
50.7038
50.7027
50.7011
50.7001
50.6997
50.6994
50.6991
50.6989
50.6986
50.6983
50.6981
50.6978
50.6975
50.6972
50.6969
50.6965
50.6962
50.6958
50.6954
50.695
50.6945
50.6941
50.6936
50.6931
50.6926
50.6921
50.6916
50.691
50.6904
50.6897
50.689
50.6884
50.6877
50.6871
50.6864
50.6857
50.6849
50.6841
50.6833
50.6824
50.6816
50.6808
50.6799
50.6791
50.6787
50.6783
50.6781
50.6776
50.6749
50.6653
50.6545
50.6492
50.648
50.649
50.6553
50.6658
50.6738
50.6793
50.683
50.6852
50.6865
50.6872
50.6875
50.6876
50.6875
50.6874
50.6872
50.687
50.6867
50.6865
50.6862
50.6859
50.6856
50.6852
50.6849
50.6845
50.684
50.6836
50.6831
50.6826
50.6821
50.6816
50.6811
50.6805
50.6799
50.6794
50.6788
50.6782
50.6776
50.677
50.6765
50.6759
50.6754
50.6748
50.6743
50.6738
50.6733
50.6728
50.6724
50.6719
50.6715
50.6711
50.6708
50.6704
50.6701
50.6698
50.6695
50.6692
50.6689
50.6686
50.6683
50.668
50.6677
50.6675
50.6672
50.6668
50.6665
50.6662
50.6658
50.6654
50.665
50.6646
50.6642
50.6637
50.6632
50.6627
50.6622
50.6616
50.6611
50.6605
50.6599
50.6593
50.6586
50.658
50.6574
50.6568
50.6561
50.6555
50.6549
50.6543
50.6538
50.6532
50.6527
50.6522
50.6518
50.6513
50.6509
50.6506
50.6503
50.65
50.6498
50.6496
50.6494
50.6493
50.6492
50.6491
50.649
50.649
50.6489
50.6489
50.6488
50.6488
50.6487
50.6487
50.6486
50.6485
50.6485
50.6483
50.6482
50.6481
50.648
50.6478
50.6476
50.6474
50.6472
50.647
50.6468
50.6466
50.6463
50.646
50.6458
50.6455
50.6452
50.6449
50.6446
50.6443
50.644
50.6437
50.6435
50.6433
50.6431
50.6429
50.6428
50.6427
50.6427
50.6427
50.6432
50.6419
50.6147
50.6024
50.5978
50.597
50.5948
50.59
50.5835
50.5768
50.569
50.5614
50.5535
50.5453
50.5379
50.5304
50.5241
50.5178
50.5129
50.5084
50.5052
50.5037
50.6232
50.6202
50.6208
50.622
50.6209
50.6173
50.6116
50.6065
50.5996
50.5937
50.587
50.5804
50.5739
50.568
50.5625
50.5573
50.5531
50.5496
50.5468
50.5449
50.6437
50.6436
50.6427
50.6407
50.6382
50.6349
50.6311
50.6262
50.6203
50.6135
50.6065
50.5997
50.5932
50.5854
50.5764
50.5665
50.556
50.5444
50.5311
50.5186
50.6538
50.6572
50.6572
50.6556
50.6539
50.6523
50.6502
50.6483
50.649
50.6521
50.6511
50.6435
50.6312
50.6213
50.6137
50.6066
50.6008
50.5992
50.6099
50.6195
50.6571
50.6638
50.6645
50.6627
50.6611
50.6593
50.6572
50.6553
50.6556
50.6584
50.6579
50.652
50.6404
50.6298
50.6218
50.6141
50.6076
50.6052
50.6149
50.627
50.5228
50.5256
50.5256
50.5248
50.524
50.5238
50.524
50.5244
50.5246
50.5248
50.525
50.5252
50.5253
50.5255
50.5256
50.5256
50.5256
50.5255
50.5254
50.5253
50.5252
50.5251
50.5249
50.5247
50.5245
50.5243
50.5241
50.5239
50.5237
50.5235
50.5233
50.523
50.5228
50.5226
50.5224
50.5222
50.522
50.5218
50.5216
50.5213
50.5209
50.5206
50.5204
50.5203
50.5201
50.5198
50.5197
50.5198
50.5201
50.5205
50.5206
50.5188
50.5102
50.4999
50.4948
50.494
50.4954
50.5015
50.5124
50.5209
50.5268
50.5309
50.5335
50.5351
50.536
50.5365
50.5367
50.5367
50.5366
50.5365
50.5362
50.536
50.5357
50.5353
50.5349
50.5345
50.5341
50.5337
50.5332
50.5327
50.5322
50.5317
50.5311
50.5306
50.53
50.5295
50.5289
50.5284
50.5278
50.5273
50.5268
50.5263
50.5258
50.5254
50.525
50.5247
50.5243
50.5241
50.5227
50.5303
50.5373
50.5345
50.5336
50.5326
50.5317
50.5315
50.5317
50.5321
50.5322
50.5323
50.5325
50.5327
50.5328
50.5329
50.533
50.533
50.533
50.5329
50.5328
50.5327
50.5326
50.5324
50.5323
50.5321
50.5319
50.5317
50.5315
50.5313
50.5311
50.5308
50.5306
50.5304
50.5301
50.5299
50.5296
50.5295
50.5293
50.5292
50.529
50.5288
50.5286
50.5283
50.5279
50.5276
50.5274
50.5274
50.5274
50.5271
50.5266
50.5265
50.5266
50.5266
50.5258
50.5233
50.5213
50.5207
50.5211
50.5222
50.5256
50.5308
50.5345
50.5368
50.5379
50.5383
50.5384
50.5383
50.5379
50.5376
50.5373
50.5369
50.5366
50.5362
50.5358
50.5355
50.5351
50.5346
50.5342
50.5338
50.5333
50.5328
50.5323
50.5318
50.5312
50.5307
50.5301
50.5295
50.529
50.5284
50.5279
50.5274
50.5268
50.5264
50.5259
50.5255
50.5251
50.5247
50.5243
50.5241
50.523
50.526
50.4959
50.5077
50.5155
50.5165
50.5154
50.5153
50.5156
50.5161
50.5163
50.5165
50.5167
50.5168
50.5169
50.5169
50.517
50.517
50.517
50.5169
50.5168
50.5167
50.5166
50.5164
50.5162
50.516
50.5157
50.5154
50.515
50.5147
50.5143
50.514
50.5137
50.5134
50.513
50.5125
50.512
50.5116
50.5112
50.5109
50.5108
50.5109
50.5123
50.5157
50.5192
50.522
50.5242
50.5258
50.5269
50.5277
50.5282
50.5287
50.5292
50.5296
50.5301
50.5306
50.5312
50.5319
50.5329
50.5339
50.5349
50.5356
50.5362
50.5366
50.5369
50.537
50.5371
50.5371
50.537
50.5369
50.5367
50.5365
50.5363
50.536
50.5357
50.5354
50.535
50.5346
50.5342
50.5337
50.5333
50.5328
50.5323
50.5317
50.5312
50.5307
50.5301
50.5295
50.529
50.5284
50.5279
50.5274
50.5268
50.5264
50.5259
50.5255
50.5251
50.5247
50.5244
50.5241
50.5239
50.5237
50.567
50.5332
50.535
50.5402
50.5367
50.5323
50.5317
50.5321
50.5321
50.532
50.532
50.5322
50.5324
50.5324
50.5324
50.5324
50.5324
50.5323
50.5322
50.5321
50.5319
50.5318
50.5316
50.5315
50.5313
50.531
50.5308
50.5305
50.5303
50.5301
50.5299
50.5297
50.5294
50.529
50.5286
50.5282
50.528
50.5277
50.5276
50.5274
50.5273
50.5272
50.5266
50.526
50.5258
50.5258
50.526
50.5262
50.5265
50.5267
50.5271
50.5275
50.5277
50.5269
50.5221
50.513
50.5074
50.506
50.5072
50.5128
50.5242
50.5321
50.5365
50.5384
50.539
50.5389
50.5386
50.538
50.5375
50.5371
50.5367
50.5363
50.5359
50.5355
50.5351
50.5347
50.5342
50.5338
50.5333
50.5328
50.5323
50.5318
50.5312
50.5307
50.5301
50.5295
50.529
50.5284
50.5279
50.5274
50.5269
50.5264
50.5259
50.5255
50.5251
50.5247
50.5244
50.5242
50.5243
50.5231
50.5714
50.5339
50.5354
50.541
50.5376
50.5331
50.5325
50.5332
50.5332
50.533
50.533
50.5332
50.5334
50.5335
50.5335
50.5335
50.5335
50.5335
50.5334
50.5332
50.533
50.5329
50.5327
50.5326
50.5324
50.5322
50.5319
50.5317
50.5314
50.5312
50.5311
50.5309
50.5306
50.5303
50.53
50.5297
50.5293
50.5291
50.5289
50.5289
50.5291
50.5292
50.5288
50.5281
50.5277
50.5276
50.5277
50.5279
50.5282
50.5285
50.5288
50.5292
50.5296
50.5297
50.5279
50.5188
50.5045
50.4973
50.4964
50.4997
50.5131
50.5285
50.5371
50.5406
50.5414
50.5412
50.5401
50.5388
50.538
50.5373
50.5368
50.5364
50.5359
50.5355
50.535
50.5346
50.5342
50.5337
50.5332
50.5327
50.5322
50.5317
50.5311
50.5306
50.53
50.5295
50.5289
50.5284
50.5278
50.5273
50.5268
50.5263
50.5258
50.5254
50.525
50.5246
50.5244
50.5241
50.5242
50.5229
50.4955
50.4832
50.4786
50.4777
50.4754
50.4706
50.4641
50.4573
50.4495
50.4419
50.434
50.4259
50.4185
50.411
50.4046
50.3984
50.3934
50.3889
50.3856
50.384
50.504
50.5009
50.5014
50.5025
50.5013
50.4977
50.492
50.4869
50.4799
50.474
50.4673
50.4606
50.4542
50.4483
50.4427
50.4375
50.4334
50.4297
50.4269
50.425
50.5242
50.5241
50.5231
50.5211
50.5185
50.5152
50.5113
50.5063
50.5005
50.4936
50.4867
50.48
50.4734
50.4656
50.4565
50.4467
50.4362
50.4245
50.4113
50.3991
50.5343
50.5376
50.5374
50.5358
50.5342
50.5325
50.5304
50.5286
50.5294
50.5321
50.5305
50.5226
50.5105
50.501
50.4935
50.4865
50.481
50.4801
50.4913
50.4986
50.5375
50.5441
50.5447
50.5429
50.5412
50.5394
50.5373
50.5354
50.5359
50.5384
50.5374
50.5311
50.5195
50.5093
50.5014
50.4939
50.4876
50.486
50.4963
50.5062
50.4027
50.4054
50.4053
50.4044
50.4032
50.4029
50.4027
50.4026
50.4025
50.4023
50.402
50.4018
50.4015
50.4012
50.4009
50.4005
50.4
50.3996
50.3991
50.3986
50.3981
50.3975
50.397
50.3964
50.3958
50.3952
50.3946
50.394
50.3934
50.3928
50.3922
50.3916
50.391
50.3904
50.3898
50.3893
50.3887
50.3881
50.3875
50.3868
50.3861
50.3855
50.3849
50.3842
50.3834
50.3829
50.3827
50.3826
50.3825
50.3813
50.375
50.3633
50.3562
50.3539
50.3543
50.3581
50.3682
50.3772
50.3835
50.3877
50.3903
50.3918
50.3926
50.3929
50.3929
50.3928
50.3926
50.3923
50.3919
50.3915
50.3911
50.3907
50.3902
50.3898
50.3893
50.3888
50.3884
50.3879
50.3874
50.387
50.3865
50.386
50.3856
50.3852
50.3848
50.3844
50.384
50.3837
50.3833
50.3831
50.3828
50.3825
50.3823
50.3821
50.382
50.3819
50.3818
50.3817
50.3816
50.3816
50.3816
50.3816
50.3817
50.3817
50.3818
50.3819
50.382
50.3821
50.3822
50.3823
50.3823
50.3824
50.3825
50.3825
50.3826
50.3826
50.3826
50.3826
50.3826
50.3825
50.3825
50.3824
50.3823
50.3822
50.3821
50.382
50.3819
50.3817
50.3816
50.3814
50.3813
50.3811
50.381
50.3808
50.3807
50.3806
50.3805
50.3804
50.3803
50.3802
50.3802
50.3802
50.3802
50.3802
50.3802
50.3803
50.3804
50.3805
50.3806
50.3808
50.3809
50.3811
50.3813
50.3814
50.3816
50.3818
50.3819
50.3821
50.3823
50.3824
50.3825
50.3827
50.3828
50.3829
50.3829
50.383
50.3831
50.3831
50.3832
50.3833
50.3833
50.3834
50.3834
50.3835
50.3835
50.3836
50.3836
50.3837
50.3838
50.3839
50.384
50.3841
50.3842
50.3843
50.3845
50.3847
50.3849
50.3852
50.3855
50.3858
50.3862
50.3866
50.3871
50.3876
50.3881
50.3887
50.3894
50.3901
50.3913
50.3906
50.4169
50.414
50.4132
50.412
50.4108
50.4104
50.4102
50.4102
50.4099
50.4097
50.4095
50.4092
50.4089
50.4086
50.4083
50.4079
50.4075
50.407
50.4065
50.406
50.4055
50.405
50.4044
50.4038
50.4032
50.4026
50.402
50.4014
50.4008
50.4002
50.3996
50.3989
50.3983
50.3977
50.3971
50.3966
50.3961
50.3955
50.395
50.3944
50.3937
50.3929
50.3921
50.3916
50.3911
50.3906
50.3897
50.389
50.3886
50.3882
50.3873
50.3847
50.382
50.3807
50.3806
50.381
50.3835
50.3884
50.392
50.3941
50.3951
50.3953
50.3952
50.3948
50.3943
50.3937
50.3932
50.3927
50.3922
50.3918
50.3913
50.3908
50.3904
50.3899
50.3894
50.3889
50.3885
50.388
50.3875
50.387
50.3866
50.3861
50.3857
50.3853
50.3848
50.3845
50.3841
50.3837
50.3834
50.3831
50.3829
50.3826
50.3824
50.3822
50.3821
50.3819
50.3818
50.3818
50.3817
50.3817
50.3817
50.3817
50.3818
50.3818
50.3819
50.382
50.3821
50.3821
50.3822
50.3823
50.3824
50.3825
50.3825
50.3826
50.3826
50.3827
50.3827
50.3827
50.3826
50.3826
50.3826
50.3825
50.3824
50.3823
50.3822
50.3821
50.3819
50.3818
50.3816
50.3815
50.3813
50.3812
50.381
50.3809
50.3808
50.3806
50.3805
50.3804
50.3804
50.3803
50.3803
50.3802
50.3802
50.3803
50.3803
50.3804
50.3805
50.3806
50.3807
50.3808
50.381
50.3812
50.3813
50.3815
50.3817
50.3818
50.382
50.3822
50.3823
50.3825
50.3826
50.3827
50.3828
50.3829
50.383
50.3831
50.3832
50.3832
50.3833
50.3833
50.3834
50.3834
50.3835
50.3835
50.3836
50.3837
50.3837
50.3838
50.3839
50.3839
50.384
50.3841
50.3842
50.3844
50.3846
50.3847
50.385
50.3852
50.3855
50.3859
50.3863
50.3867
50.3871
50.3877
50.3882
50.3888
50.3895
50.3902
50.3913
50.3909
50.3766
50.3883
50.3957
50.3962
50.3948
50.3942
50.3941
50.3941
50.3939
50.3937
50.3935
50.3932
50.393
50.3927
50.3923
50.3919
50.3915
50.3911
50.3906
50.3901
50.3896
50.389
50.3885
50.3879
50.3872
50.3866
50.3858
50.3851
50.3843
50.3836
50.3828
50.3819
50.3809
50.38
50.3792
50.3785
50.3778
50.3774
50.3774
50.3791
50.3823
50.3852
50.3874
50.389
50.3899
50.3905
50.3907
50.3909
50.3909
50.391
50.3911
50.3911
50.3913
50.3915
50.3921
50.3928
50.3933
50.3938
50.3941
50.3942
50.3941
50.394
50.3938
50.3936
50.3933
50.393
50.3927
50.3923
50.392
50.3916
50.3912
50.3907
50.3903
50.3898
50.3894
50.3889
50.3884
50.388
50.3875
50.387
50.3866
50.3861
50.3857
50.3853
50.3848
50.3845
50.3841
50.3837
50.3834
50.3831
50.3829
50.3826
50.3824
50.3822
50.3821
50.3819
50.3818
50.3818
50.3817
50.3817
50.3817
50.3817
50.3818
50.3818
50.3819
50.382
50.3821
50.3821
50.3822
50.3823
50.3824
50.3825
50.3825
50.3826
50.3826
50.3827
50.3827
50.3827
50.3826
50.3826
50.3826
50.3825
50.3824
50.3823
50.3822
50.3821
50.3819
50.3818
50.3816
50.3815
50.3813
50.3812
50.381
50.3809
50.3808
50.3806
50.3805
50.3804
50.3804
50.3803
50.3803
50.3802
50.3802
50.3803
50.3803
50.3804
50.3805
50.3806
50.3807
50.3808
50.381
50.3812
50.3813
50.3815
50.3817
50.3818
50.382
50.3822
50.3823
50.3825
50.3826
50.3827
50.3828
50.3829
50.383
50.3831
50.3832
50.3832
50.3833
50.3833
50.3834
50.3834
50.3835
50.3835
50.3836
50.3837
50.3837
50.3838
50.3839
50.3839
50.384
50.3841
50.3842
50.3844
50.3846
50.3847
50.385
50.3852
50.3855
50.3859
50.3863
50.3867
50.3871
50.3877
50.3882
50.3888
50.3895
50.3901
50.3909
50.3916
50.4431
50.4118
50.4149
50.4193
50.4148
50.4106
50.41
50.41
50.4097
50.4093
50.4089
50.4087
50.4084
50.408
50.4076
50.4073
50.4069
50.4064
50.4059
50.4054
50.4049
50.4044
50.4038
50.4032
50.4026
50.402
50.4014
50.4008
50.4002
50.3996
50.3989
50.3983
50.3976
50.3968
50.3961
50.3954
50.3948
50.3942
50.3936
50.3931
50.3925
50.3917
50.3907
50.3898
50.3893
50.389
50.3888
50.3887
50.3887
50.3888
50.3887
50.3881
50.3844
50.3749
50.368
50.3655
50.3659
50.37
50.3806
50.3889
50.3934
50.3953
50.3957
50.3954
50.3949
50.3942
50.3935
50.3929
50.3924
50.3918
50.3914
50.3909
50.3904
50.3899
50.3894
50.3889
50.3885
50.388
50.3875
50.387
50.3866
50.3861
50.3857
50.3853
50.3848
50.3845
50.3841
50.3837
50.3834
50.3831
50.3829
50.3826
50.3824
50.3822
50.3821
50.3819
50.3818
50.3818
50.3817
50.3817
50.3817
50.3817
50.3818
50.3818
50.3819
50.382
50.3821
50.3821
50.3822
50.3823
50.3824
50.3825
50.3825
50.3826
50.3826
50.3827
50.3827
50.3827
50.3826
50.3826
50.3826
50.3825
50.3824
50.3823
50.3822
50.3821
50.3819
50.3818
50.3816
50.3815
50.3813
50.3812
50.381
50.3809
50.3808
50.3806
50.3805
50.3804
50.3804
50.3803
50.3803
50.3802
50.3802
50.3803
50.3803
50.3804
50.3805
50.3806
50.3807
50.3808
50.381
50.3812
50.3813
50.3815
50.3817
50.3818
50.382
50.3822
50.3823
50.3825
50.3826
50.3827
50.3828
50.3829
50.383
50.3831
50.3832
50.3832
50.3833
50.3833
50.3834
50.3834
50.3835
50.3835
50.3836
50.3837
50.3837
50.3838
50.3839
50.3839
50.384
50.3841
50.3842
50.3844
50.3846
50.3847
50.385
50.3852
50.3855
50.3859
50.3863
50.3867
50.3871
50.3877
50.3882
50.3888
50.3894
50.3901
50.3902
50.3942
50.4473
50.4124
50.4152
50.4201
50.4157
50.4114
50.4109
50.4111
50.4108
50.4103
50.4099
50.4098
50.4095
50.4091
50.4087
50.4083
50.408
50.4075
50.407
50.4065
50.406
50.4054
50.4049
50.4043
50.4037
50.4031
50.4025
50.4019
50.4012
50.4006
50.4
50.3994
50.3987
50.398
50.3973
50.3967
50.396
50.3954
50.3949
50.3947
50.3945
50.394
50.393
50.3918
50.3912
50.3909
50.3907
50.3905
50.3904
50.3904
50.3904
50.3903
50.3888
50.3812
50.366
50.3572
50.3552
50.3573
50.3689
50.3846
50.3937
50.3974
50.3982
50.3978
50.3965
50.395
50.394
50.3931
50.3925
50.3919
50.3913
50.3908
50.3903
50.3898
50.3894
50.3889
50.3884
50.3879
50.3874
50.387
50.3865
50.386
50.3856
50.3852
50.3848
50.3844
50.384
50.3837
50.3833
50.3831
50.3828
50.3825