/*--------------------------------*- C++ -*----------------------------------*\
| =========                 |                                                 |
| \\      /  F ield         | OpenFOAM: The Open Source CFD Toolbox           |
|  \\    /   O peration     | Version:  3.0.x                                 |
|   \\  /    A nd           | Web:      www.OpenFOAM.org                      |
|    \\/     M anipulation  |                                                 |
\*---------------------------------------------------------------------------*/
FoamFile
{
    version     2.0;
    format      ascii;
    class       volVectorField;
    location    "0.25";
    object      U;
}
// * * * * * * * * * * * * * * * * * * * * * * * * * * * * * * * * * * * * * //

dimensions      [0 1 -1 0 0 0 0];

internalField   nonuniform List<vector> 
6900
(
(42.6936 0.000101252 0)
(42.6798 9.26334e-05 0)
(42.6636 9.0243e-05 0)
(42.6481 9.10972e-05 0)
(42.6335 9.18005e-05 0)
(42.619 9.22256e-05 0)
(42.6043 9.25505e-05 0)
(42.5894 9.28262e-05 0)
(42.5745 9.30531e-05 0)
(42.5595 9.32252e-05 0)
(42.5445 9.33725e-05 0)
(42.5294 9.3511e-05 0)
(42.5142 9.3633e-05 0)
(42.499 9.37419e-05 0)
(42.4838 9.38399e-05 0)
(42.4685 9.39288e-05 0)
(42.4532 9.40084e-05 0)
(42.4379 9.40789e-05 0)
(42.4226 9.41408e-05 0)
(42.4073 9.4194e-05 0)
(42.3921 9.42376e-05 0)
(42.3769 9.42694e-05 0)
(42.3618 9.42845e-05 0)
(42.3468 9.42767e-05 0)
(42.3318 9.42342e-05 0)
(42.317 9.41371e-05 0)
(42.3023 9.39614e-05 0)
(42.2878 9.36719e-05 0)
(42.2734 9.32244e-05 0)
(42.2592 9.2566e-05 0)
(42.2451 9.16357e-05 0)
(42.2313 9.03679e-05 0)
(42.2177 8.86972e-05 0)
(42.2043 8.65636e-05 0)
(42.1911 8.39187e-05 0)
(42.1783 8.07321e-05 0)
(42.1657 7.69965e-05 0)
(42.1534 7.27324e-05 0)
(42.1415 6.79887e-05 0)
(42.1299 6.28401e-05 0)
(42.1187 5.73879e-05 0)
(42.1079 5.1748e-05 0)
(42.0975 4.60464e-05 0)
(42.0875 4.04105e-05 0)
(42.0779 3.49604e-05 0)
(42.0688 2.98016e-05 0)
(42.06 2.50196e-05 0)
(42.0518 2.06766e-05 0)
(42.0439 1.68105e-05 0)
(42.0365 1.34358e-05 0)
(42.0295 1.05459e-05 0)
(42.023 8.1172e-06 0)
(42.0169 6.1134e-06 0)
(42.0112 4.49006e-06 0)
(42.0058 3.19777e-06 0)
(42.0009 2.18672e-06 0)
(41.9964 1.40862e-06 0)
(41.9922 8.18475e-07 0)
(41.9883 3.74792e-07 0)
(41.9848 3.70966e-08 0)
(41.9816 -1.78316e-07 0)
(41.9786 -3.37736e-07 0)
(41.9759 -4.49992e-07 0)
(41.9735 -5.27299e-07 0)
(41.9712 -5.79375e-07 0)
(41.9692 -6.13964e-07 0)
(41.9673 -6.36426e-07 0)
(41.9655 -6.50626e-07 0)
(41.9639 -6.59462e-07 0)
(41.9623 -6.64588e-07 0)
(41.9608 -6.67429e-07 0)
(41.9594 -6.68754e-07 0)
(41.958 -6.69049e-07 0)
(41.9566 -6.68797e-07 0)
(41.9552 -6.68175e-07 0)
(41.9538 -6.67286e-07 0)
(41.9524 -6.66297e-07 0)
(41.951 -6.6532e-07 0)
(41.9496 -6.64386e-07 0)
(41.9482 -6.63957e-07 0)
(41.9469 -6.64472e-07 0)
(41.9455 -6.60539e-07 0)
(41.9442 -6.61766e-07 0)
(41.9429 -6.61815e-07 0)
(41.9417 -6.61919e-07 0)
(41.9406 -6.61734e-07 0)
(41.9396 -6.62037e-07 0)
(41.9388 -6.63105e-07 0)
(41.938 -6.64725e-07 0)
(41.9374 -6.6606e-07 0)
(41.937 -6.66998e-07 0)
(41.9367 -6.68329e-07 0)
(41.9366 -6.69356e-07 0)
(41.9367 -6.70616e-07 0)
(41.9369 -6.70273e-07 0)
(41.9372 -6.71594e-07 0)
(41.9377 -6.73079e-07 0)
(41.9383 -6.74514e-07 0)
(41.939 -6.75911e-07 0)
(41.9398 -6.77234e-07 0)
(41.9406 -6.78451e-07 0)
(41.9415 -6.79732e-07 0)
(41.9424 -6.80666e-07 0)
(41.9432 -6.81335e-07 0)
(41.9441 -6.81679e-07 0)
(41.9448 -6.81737e-07 0)
(41.9455 -6.82223e-07 0)
(41.9461 -6.82837e-07 0)
(41.9465 -6.82591e-07 0)
(41.9467 -6.82264e-07 0)
(41.9468 -6.82032e-07 0)
(41.9467 -6.82388e-07 0)
(41.9464 -6.8177e-07 0)
(41.9459 -6.82452e-07 0)
(41.9452 -6.80995e-07 0)
(41.9443 -6.8091e-07 0)
(41.9433 -6.80601e-07 0)
(41.942 -6.8055e-07 0)
(41.9407 -6.80468e-07 0)
(41.9392 -6.80621e-07 0)
(41.9376 -6.81018e-07 0)
(41.936 -6.81545e-07 0)
(41.9343 -6.82485e-07 0)
(41.9327 -6.83651e-07 0)
(41.9311 -6.87054e-07 0)
(41.9296 -6.83832e-07 0)
(41.9281 -6.87271e-07 0)
(41.9267 -6.92054e-07 0)
(41.9254 -6.93077e-07 0)
(41.9242 -6.94559e-07 0)
(41.9231 -6.96741e-07 0)
(41.9221 -6.99e-07 0)
(41.9212 -7.01233e-07 0)
(41.9203 -7.03403e-07 0)
(41.9194 -7.05462e-07 0)
(41.9186 -7.07382e-07 0)
(41.9177 -7.09157e-07 0)
(41.9168 -7.1083e-07 0)
(41.9157 -7.12419e-07 0)
(41.9146 -7.1392e-07 0)
(41.9133 -7.15304e-07 0)
(41.9119 -7.16522e-07 0)
(41.9102 -7.17524e-07 0)
(41.9083 -7.18278e-07 0)
(41.9061 -7.18774e-07 0)
(41.9035 -7.19049e-07 0)
(41.9007 -7.19131e-07 0)
(41.8974 -7.19037e-07 0)
(41.8938 -7.18739e-07 0)
(41.8897 -7.18241e-07 0)
(41.8852 -7.17525e-07 0)
(41.8803 -7.16736e-07 0)
(41.8749 -7.15861e-07 0)
(41.8692 -7.15132e-07 0)
(41.8631 -7.14351e-07 0)
(41.8567 -7.13863e-07 0)
(41.8501 -7.13297e-07 0)
(41.8432 -7.13237e-07 0)
(41.8363 -7.13224e-07 0)
(41.8293 -7.139e-07 0)
(41.8223 -7.14746e-07 0)
(41.8155 -7.16127e-07 0)
(41.8087 -7.17642e-07 0)
(41.8022 -7.19351e-07 0)
(41.7959 -7.21039e-07 0)
(41.7898 -7.2271e-07 0)
(41.7839 -7.24116e-07 0)
(41.7783 -7.25475e-07 0)
(41.7728 -7.26418e-07 0)
(41.7676 -7.27272e-07 0)
(41.7624 -7.27807e-07 0)
(41.7574 -7.28177e-07 0)
(41.7525 -7.28418e-07 0)
(41.7476 -7.28572e-07 0)
(41.7428 -7.28588e-07 0)
(41.738 -7.28726e-07 0)
(41.7332 -7.28659e-07 0)
(41.7285 -7.28692e-07 0)
(41.7238 -7.28419e-07 0)
(41.719 -7.28228e-07 0)
(41.7141 -7.2749e-07 0)
(41.7091 -7.26681e-07 0)
(41.7038 -7.25215e-07 0)
(41.6983 -7.23497e-07 0)
(41.6924 -7.2132e-07 0)
(41.686 -7.19049e-07 0)
(41.6792 -7.16289e-07 0)
(41.6719 -7.13932e-07 0)
(41.664 -7.10667e-07 0)
(41.6556 -7.0842e-07 0)
(41.6467 -7.10111e-07 0)
(41.6373 -8.47401e-07 0)
(41.6274 -4.43592e-07 0)
(41.6172 -3.7019e-08 0)
(41.6067 4.48547e-06 0)
(41.5954 3.55138e-05 0)
(41.5792 0.000254561 0)
(41.5298 0.00180032 0)
(41.344 0.0163026 0)
(38.851 0.0842138 0)
(42.6953 0.000128384 0)
(42.6834 9.87729e-05 0)
(42.669 8.65333e-05 0)
(42.6553 8.57748e-05 0)
(42.6424 8.56417e-05 0)
(42.6297 8.52473e-05 0)
(42.6168 8.49637e-05 0)
(42.6038 8.48102e-05 0)
(42.5906 8.47162e-05 0)
(42.5775 8.46345e-05 0)
(42.5642 8.45847e-05 0)
(42.5509 8.45756e-05 0)
(42.5376 8.45806e-05 0)
(42.5241 8.45969e-05 0)
(42.5107 8.4622e-05 0)
(42.4972 8.46539e-05 0)
(42.4837 8.46889e-05 0)
(42.4702 8.47245e-05 0)
(42.4567 8.47594e-05 0)
(42.4433 8.47919e-05 0)
(42.4298 8.48202e-05 0)
(42.4165 8.48413e-05 0)
(42.4032 8.48502e-05 0)
(42.3899 8.48412e-05 0)
(42.3768 8.48025e-05 0)
(42.3638 8.47154e-05 0)
(42.3509 8.45604e-05 0)
(42.3382 8.43048e-05 0)
(42.3256 8.39091e-05 0)
(42.3131 8.33248e-05 0)
(42.3008 8.24968e-05 0)
(42.2887 8.1366e-05 0)
(42.2768 7.98732e-05 0)
(42.2651 7.79636e-05 0)
(42.2536 7.55932e-05 0)
(42.2423 7.27341e-05 0)
(42.2313 6.93792e-05 0)
(42.2205 6.55464e-05 0)
(42.2099 6.12795e-05 0)
(42.1996 5.66455e-05 0)
(42.1895 5.17357e-05 0)
(42.1797 4.66542e-05 0)
(42.1703 4.1515e-05 0)
(42.1611 3.64335e-05 0)
(42.1522 3.15181e-05 0)
(42.1437 2.68641e-05 0)
(42.1355 2.25492e-05 0)
(42.1277 1.86297e-05 0)
(42.1202 1.51401e-05 0)
(42.1131 1.20935e-05 0)
(42.1063 9.48448e-06 0)
(42.0999 7.2916e-06 0)
(42.0939 5.48203e-06 0)
(42.0883 4.0157e-06 0)
(42.0831 2.84768e-06 0)
(42.0782 1.93328e-06 0)
(42.0737 1.22947e-06 0)
(42.0695 6.97203e-07 0)
(42.0657 3.02676e-07 0)
(42.0621 1.34322e-08 0)
(42.0589 -1.91452e-07 0)
(42.056 -3.39068e-07 0)
(42.0533 -4.4074e-07 0)
(42.0508 -5.10022e-07 0)
(42.0486 -5.56137e-07 0)
(42.0465 -5.86375e-07 0)
(42.0446 -6.05517e-07 0)
(42.0428 -6.17043e-07 0)
(42.0411 -6.23668e-07 0)
(42.0396 -6.26759e-07 0)
(42.0381 -6.2772e-07 0)
(42.0366 -6.27212e-07 0)
(42.0352 -6.25657e-07 0)
(42.0338 -6.23613e-07 0)
(42.0323 -6.21169e-07 0)
(42.0309 -6.18445e-07 0)
(42.0295 -6.15648e-07 0)
(42.0281 -6.12925e-07 0)
(42.0267 -6.10295e-07 0)
(42.0253 -6.08626e-07 0)
(42.0239 -6.08347e-07 0)
(42.0226 -6.005e-07 0)
(42.0212 -6.01542e-07 0)
(42.0199 -6.00519e-07 0)
(42.0187 -5.99517e-07 0)
(42.0176 -5.9815e-07 0)
(42.0166 -5.97754e-07 0)
(42.0157 -5.98477e-07 0)
(42.015 -5.99778e-07 0)
(42.0144 -6.00555e-07 0)
(42.0139 -6.0099e-07 0)
(42.0137 -6.02277e-07 0)
(42.0135 -6.02925e-07 0)
(42.0136 -6.04013e-07 0)
(42.0138 -6.02681e-07 0)
(42.0141 -6.0405e-07 0)
(42.0145 -6.05678e-07 0)
(42.0151 -6.07075e-07 0)
(42.0158 -6.08306e-07 0)
(42.0166 -6.094e-07 0)
(42.0174 -6.10299e-07 0)
(42.0182 -6.11209e-07 0)
(42.0191 -6.11543e-07 0)
(42.02 -6.11495e-07 0)
(42.0208 -6.10999e-07 0)
(42.0215 -6.10083e-07 0)
(42.0222 -6.09853e-07 0)
(42.0227 -6.09596e-07 0)
(42.0232 -6.07726e-07 0)
(42.0234 -6.05906e-07 0)
(42.0235 -6.0427e-07 0)
(42.0234 -6.03613e-07 0)
(42.023 -6.01245e-07 0)
(42.0225 -6.01059e-07 0)
(42.0218 -5.97351e-07 0)
(42.0209 -5.9621e-07 0)
(42.0198 -5.945e-07 0)
(42.0186 -5.93386e-07 0)
(42.0172 -5.92315e-07 0)
(42.0157 -5.9167e-07 0)
(42.0141 -5.91457e-07 0)
(42.0125 -5.91499e-07 0)
(42.0108 -5.92259e-07 0)
(42.0092 -5.93461e-07 0)
(42.0076 -5.98156e-07 0)
(42.006 -5.92137e-07 0)
(42.0045 -5.96954e-07 0)
(42.0031 -6.0446e-07 0)
(42.0018 -6.05438e-07 0)
(42.0006 -6.0719e-07 0)
(41.9995 -6.10234e-07 0)
(41.9985 -6.13412e-07 0)
(41.9975 -6.16532e-07 0)
(41.9966 -6.1957e-07 0)
(41.9957 -6.22473e-07 0)
(41.9949 -6.25204e-07 0)
(41.994 -6.2776e-07 0)
(41.993 -6.3015e-07 0)
(41.992 -6.32391e-07 0)
(41.9908 -6.34461e-07 0)
(41.9895 -6.36315e-07 0)
(41.9881 -6.37894e-07 0)
(41.9864 -6.39137e-07 0)
(41.9844 -6.39994e-07 0)
(41.9822 -6.40453e-07 0)
(41.9797 -6.40548e-07 0)
(41.9768 -6.403e-07 0)
(41.9735 -6.39716e-07 0)
(41.9699 -6.38775e-07 0)
(41.9658 -6.37544e-07 0)
(41.9613 -6.36021e-07 0)
(41.9563 -6.3445e-07 0)
(41.951 -6.32802e-07 0)
(41.9452 -6.3145e-07 0)
(41.9391 -6.30069e-07 0)
(41.9327 -6.29325e-07 0)
(41.926 -6.28568e-07 0)
(41.9192 -6.28856e-07 0)
(41.9122 -6.29188e-07 0)
(41.9052 -6.30836e-07 0)
(41.8983 -6.32566e-07 0)
(41.8914 -6.35421e-07 0)
(41.8846 -6.38242e-07 0)
(41.8781 -6.41726e-07 0)
(41.8717 -6.44911e-07 0)
(41.8656 -6.48431e-07 0)
(41.8598 -6.51216e-07 0)
(41.8541 -6.54222e-07 0)
(41.8487 -6.56253e-07 0)
(41.8434 -6.58302e-07 0)
(41.8382 -6.59686e-07 0)
(41.8332 -6.60739e-07 0)
(41.8282 -6.6156e-07 0)
(41.8233 -6.62269e-07 0)
(41.8185 -6.62499e-07 0)
(41.8137 -6.63229e-07 0)
(41.8089 -6.63249e-07 0)
(41.8042 -6.63799e-07 0)
(41.7994 -6.6342e-07 0)
(41.7946 -6.63669e-07 0)
(41.7897 -6.62433e-07 0)
(41.7847 -6.61584e-07 0)
(41.7794 -6.59159e-07 0)
(41.7739 -6.56606e-07 0)
(41.7679 -6.52966e-07 0)
(41.7616 -6.49594e-07 0)
(41.7547 -6.44506e-07 0)
(41.7474 -6.41256e-07 0)
(41.7395 -6.34439e-07 0)
(41.7311 -6.31281e-07 0)
(41.7222 -6.41989e-07 0)
(41.7127 -1.22199e-06 0)
(41.7029 7.60635e-07 0)
(41.6927 3.7535e-06 0)
(41.6821 3.09337e-05 0)
(41.6708 0.000218101 0)
(41.6548 0.00153148 0)
(41.6065 0.0106436 0)
(41.4256 0.0769057 0)
(39.492 0.363556 0)
(42.6953 1.91022e-14 0)
(42.6833 6.48058e-13 0)
(42.6689 2.22459e-12 0)
(42.6552 3.19028e-12 0)
(42.6424 3.57287e-12 0)
(42.6297 -2.98546e-13 0)
(42.6168 -4.83557e-12 0)
(42.6037 -7.16346e-12 0)
(42.5906 -5.39248e-12 0)
(42.5774 -3.49072e-12 0)
(42.5642 -2.92893e-12 0)
(42.5509 -5.58021e-12 0)
(42.5375 -8.21448e-12 0)
(42.5241 -8.89042e-12 0)
(42.5106 -8.66376e-12 0)
(42.4972 -1.01326e-11 0)
(42.4837 -1.19865e-11 0)
(42.4702 -1.22497e-11 0)
(42.4567 -1.30863e-11 0)
(42.4432 -1.32714e-11 0)
(42.4298 -1.33972e-11 0)
(42.4164 -1.36537e-11 0)
(42.4031 -1.33676e-11 0)
(42.3899 -1.2657e-11 0)
(42.3768 -1.33472e-11 0)
(42.3638 -1.54205e-11 0)
(42.3509 -1.79478e-11 0)
(42.3381 -1.87143e-11 0)
(42.3255 -1.91647e-11 0)
(42.3131 -1.84748e-11 0)
(42.3008 -1.85648e-11 0)
(42.2887 -1.88165e-11 0)
(42.2768 -1.97809e-11 0)
(42.2651 -1.78519e-11 0)
(42.2536 -1.69906e-11 0)
(42.2423 -1.64547e-11 0)
(42.2313 -1.65675e-11 0)
(42.2205 -1.54688e-11 0)
(42.2099 -1.33852e-11 0)
(42.1996 -1.2156e-11 0)
(42.1895 -1.35211e-11 0)
(42.1798 -1.48347e-11 0)
(42.1703 -1.63854e-11 0)
(42.1611 -1.61702e-11 0)
(42.1522 -1.70369e-11 0)
(42.1437 -1.66778e-11 0)
(42.1355 -1.49322e-11 0)
(42.1277 -1.32929e-11 0)
(42.1202 -1.30516e-11 0)
(42.1131 -1.26756e-11 0)
(42.1063 -1.37109e-11 0)
(42.0999 -1.41149e-11 0)
(42.094 -1.49838e-11 0)
(42.0883 -1.46792e-11 0)
(42.0831 -1.2275e-11 0)
(42.0782 -7.62841e-12 0)
(42.0737 -3.77152e-12 0)
(42.0695 -1.02361e-12 0)
(42.0657 -1.04641e-12 0)
(42.0621 -3.29343e-12 0)
(42.0589 -2.5966e-12 0)
(42.056 -2.46506e-12 0)
(42.0533 -2.34149e-12 0)
(42.0508 -2.03756e-12 0)
(42.0486 -2.16399e-12 0)
(42.0465 -1.45005e-12 0)
(42.0446 3.41076e-14 0)
(42.0428 1.63454e-12 0)
(42.0411 3.90707e-12 0)
(42.0396 6.34722e-12 0)
(42.0381 7.37061e-12 0)
(42.0366 7.05548e-12 0)
(42.0352 4.98614e-12 0)
(42.0338 2.95117e-12 0)
(42.0324 1.60936e-12 0)
(42.031 2.04924e-12 0)
(42.0296 2.22211e-12 0)
(42.0281 2.93015e-12 0)
(42.0267 1.82324e-12 0)
(42.0253 4.75293e-13 0)
(42.0239 -4.00393e-12 0)
(42.0226 -9.09626e-12 0)
(42.0212 -1.38362e-11 0)
(42.02 -1.66687e-11 0)
(42.0188 -1.78303e-11 0)
(42.0176 -1.76089e-11 0)
(42.0166 -1.70412e-11 0)
(42.0158 -1.74033e-11 0)
(42.015 -1.86323e-11 0)
(42.0144 -1.90503e-11 0)
(42.014 -1.87472e-11 0)
(42.0137 -1.70197e-11 0)
(42.0136 -1.60567e-11 0)
(42.0136 -1.52231e-11 0)
(42.0138 -1.49068e-11 0)
(42.0141 -1.54543e-11 0)
(42.0145 -1.49279e-11 0)
(42.0151 -1.44103e-11 0)
(42.0158 -1.57619e-11 0)
(42.0166 -1.67264e-11 0)
(42.0174 -1.86244e-11 0)
(42.0183 -2.00297e-11 0)
(42.0191 -2.16238e-11 0)
(42.02 -2.25157e-11 0)
(42.0208 -2.21642e-11 0)
(42.0216 -2.04601e-11 0)
(42.0222 -1.9895e-11 0)
(42.0228 -2.10555e-11 0)
(42.0232 -2.03814e-11 0)
(42.0234 -1.90978e-11 0)
(42.0235 -1.79299e-11 0)
(42.0234 -1.2879e-11 0)
(42.0231 -8.16512e-12 0)
(42.0225 -5.0386e-12 0)
(42.0218 -2.79668e-12 0)
(42.0209 6.88242e-13 0)
(42.0198 4.4968e-12 0)
(42.0186 6.65858e-12 0)
(42.0172 7.00864e-12 0)
(42.0157 7.82742e-12 0)
(42.0141 6.33502e-12 0)
(42.0125 5.345e-12 0)
(42.0108 4.61411e-12 0)
(42.0092 4.62543e-12 0)
(42.0076 4.42646e-12 0)
(42.006 5.07623e-12 0)
(42.0045 6.29668e-12 0)
(42.0031 7.71669e-12 0)
(42.0018 1.07415e-11 0)
(42.0006 1.2438e-11 0)
(41.9995 1.41971e-11 0)
(41.9985 1.3738e-11 0)
(41.9975 1.18165e-11 0)
(41.9966 9.79258e-12 0)
(41.9958 8.05533e-12 0)
(41.9949 8.12782e-12 0)
(41.994 8.58096e-12 0)
(41.993 1.04682e-11 0)
(41.992 1.12107e-11 0)
(41.9908 1.08556e-11 0)
(41.9895 9.778e-12 0)
(41.9881 8.78159e-12 0)
(41.9864 8.39792e-12 0)
(41.9844 5.7004e-12 0)
(41.9822 3.43405e-12 0)
(41.9797 7.35158e-13 0)
(41.9768 -1.10397e-12 0)
(41.9735 -3.65841e-12 0)
(41.9699 -2.68586e-12 0)
(41.9658 -8.56711e-12 0)
(41.9613 2.93056e-12 0)
(41.9563 -1.24773e-11 0)
(41.951 1.81317e-11 0)
(41.9452 -2.71587e-11 0)
(41.9391 4.55104e-11 0)
(41.9327 -5.74335e-11 0)
(41.9261 9.17536e-11 0)
(41.9192 -1.09913e-10 0)
(41.9122 1.59011e-10 0)
(41.9052 -1.8184e-10 0)
(41.8983 2.42937e-10 0)
(41.8914 -2.79453e-10 0)
(41.8846 3.47055e-10 0)
(41.8781 -4.05033e-10 0)
(41.8717 4.56215e-10 0)
(41.8656 -4.98272e-10 0)
(41.8598 4.86325e-10 0)
(41.8541 -4.44795e-10 0)
(41.8487 3.46969e-10 0)
(41.8434 -2.36442e-10 0)
(41.8382 1.36464e-10 0)
(41.8332 -1.05423e-10 0)
(41.8282 1.73324e-10 0)
(41.8233 -3.25852e-10 0)
(41.8185 4.23123e-10 0)
(41.8137 -5.75122e-10 0)
(41.8089 4.64663e-10 0)
(41.8042 -6.4549e-10 0)
(41.7994 4.13398e-10 0)
(41.7946 -8.76318e-10 0)
(41.7897 5.20786e-10 0)
(41.7847 -1.05349e-09 0)
(41.7794 3.53843e-10 0)
(41.7739 -1.03817e-09 0)
(41.7679 5.56343e-10 0)
(41.7616 -1.76687e-09 0)
(41.7548 1.29116e-09 0)
(41.7474 -2.3559e-09 0)
(41.7395 4.51689e-09 0)
(41.7311 2.09834e-08 0)
(41.7222 2.77589e-07 0)
(41.7128 -6.34724e-07 0)
(41.7029 2.38924e-06 0)
(41.6927 7.57999e-06 0)
(41.6823 6.43256e-05 0)
(41.6717 0.000441211 0)
(41.6609 0.00314258 0)
(41.6485 0.0221194 0)
(41.6218 0.157764 0)
(41.4627 0.721511 0)
(42.6953 -0.000128384 0)
(42.6834 -9.87729e-05 0)
(42.669 -8.65333e-05 0)
(42.6553 -8.57748e-05 0)
(42.6424 -8.56417e-05 0)
(42.6297 -8.52473e-05 0)
(42.6168 -8.49637e-05 0)
(42.6038 -8.48103e-05 0)
(42.5906 -8.47162e-05 0)
(42.5775 -8.46345e-05 0)
(42.5642 -8.45847e-05 0)
(42.5509 -8.45756e-05 0)
(42.5376 -8.45806e-05 0)
(42.5241 -8.45969e-05 0)
(42.5107 -8.4622e-05 0)
(42.4972 -8.46539e-05 0)
(42.4837 -8.46889e-05 0)
(42.4702 -8.47245e-05 0)
(42.4567 -8.47594e-05 0)
(42.4433 -8.47919e-05 0)
(42.4298 -8.48202e-05 0)
(42.4165 -8.48413e-05 0)
(42.4032 -8.48502e-05 0)
(42.3899 -8.48412e-05 0)
(42.3768 -8.48024e-05 0)
(42.3638 -8.47154e-05 0)
(42.3509 -8.45603e-05 0)
(42.3382 -8.43048e-05 0)
(42.3256 -8.3909e-05 0)
(42.3131 -8.33248e-05 0)
(42.3008 -8.24968e-05 0)
(42.2887 -8.1366e-05 0)
(42.2768 -7.98732e-05 0)
(42.2651 -7.79636e-05 0)
(42.2536 -7.55932e-05 0)
(42.2423 -7.27341e-05 0)
(42.2313 -6.93792e-05 0)
(42.2205 -6.55464e-05 0)
(42.2099 -6.12795e-05 0)
(42.1996 -5.66455e-05 0)
(42.1895 -5.17357e-05 0)
(42.1797 -4.66542e-05 0)
(42.1703 -4.1515e-05 0)
(42.1611 -3.64335e-05 0)
(42.1522 -3.15181e-05 0)
(42.1437 -2.68641e-05 0)
(42.1355 -2.25492e-05 0)
(42.1277 -1.86297e-05 0)
(42.1202 -1.514e-05 0)
(42.1131 -1.20935e-05 0)
(42.1063 -9.48448e-06 0)
(42.0999 -7.29159e-06 0)
(42.0939 -5.48203e-06 0)
(42.0883 -4.0157e-06 0)
(42.0831 -2.84768e-06 0)
(42.0782 -1.93328e-06 0)
(42.0737 -1.22947e-06 0)
(42.0695 -6.97204e-07 0)
(42.0657 -3.02677e-07 0)
(42.0621 -1.34301e-08 0)
(42.0589 1.91453e-07 0)
(42.056 3.39067e-07 0)
(42.0533 4.40739e-07 0)
(42.0508 5.10024e-07 0)
(42.0486 5.56137e-07 0)
(42.0465 5.86379e-07 0)
(42.0446 6.05516e-07 0)
(42.0428 6.17044e-07 0)
(42.0411 6.23668e-07 0)
(42.0396 6.26753e-07 0)
(42.0381 6.27715e-07 0)
(42.0366 6.27209e-07 0)
(42.0352 6.25658e-07 0)
(42.0338 6.23612e-07 0)
(42.0323 6.2117e-07 0)
(42.0309 6.18446e-07 0)
(42.0295 6.15646e-07 0)
(42.0281 6.12921e-07 0)
(42.0267 6.10297e-07 0)
(42.0253 6.0863e-07 0)
(42.0239 6.08355e-07 0)
(42.0226 6.00506e-07 0)
(42.0212 6.01551e-07 0)
(42.0199 6.00524e-07 0)
(42.0187 5.99521e-07 0)
(42.0176 5.98152e-07 0)
(42.0166 5.97757e-07 0)
(42.0157 5.98485e-07 0)
(42.015 5.99784e-07 0)
(42.0144 6.00562e-07 0)
(42.0139 6.00992e-07 0)
(42.0137 6.02279e-07 0)
(42.0135 6.02925e-07 0)
(42.0136 6.04018e-07 0)
(42.0138 6.02684e-07 0)
(42.0141 6.04049e-07 0)
(42.0145 6.05677e-07 0)
(42.0151 6.07076e-07 0)
(42.0158 6.08309e-07 0)
(42.0166 6.09403e-07 0)
(42.0174 6.103e-07 0)
(42.0182 6.11215e-07 0)
(42.0191 6.11551e-07 0)
(42.02 6.11501e-07 0)
(42.0208 6.11003e-07 0)
(42.0215 6.10087e-07 0)
(42.0222 6.09858e-07 0)
(42.0227 6.09599e-07 0)
(42.0232 6.07727e-07 0)
(42.0234 6.0591e-07 0)
(42.0235 6.04268e-07 0)
(42.0234 6.03608e-07 0)
(42.023 6.0124e-07 0)
(42.0225 6.0106e-07 0)
(42.0218 5.97351e-07 0)
(42.0209 5.96209e-07 0)
(42.0198 5.94499e-07 0)
(42.0186 5.93385e-07 0)
(42.0172 5.92312e-07 0)
(42.0157 5.91668e-07 0)
(42.0141 5.91456e-07 0)
(42.0125 5.91501e-07 0)
(42.0108 5.9226e-07 0)
(42.0092 5.93465e-07 0)
(42.0076 5.98157e-07 0)
(42.006 5.92138e-07 0)
(42.0045 5.96952e-07 0)
(42.0031 6.04457e-07 0)
(42.0018 6.05434e-07 0)
(42.0006 6.07187e-07 0)
(41.9995 6.10232e-07 0)
(41.9985 6.1341e-07 0)
(41.9975 6.16534e-07 0)
(41.9966 6.19573e-07 0)
(41.9957 6.22477e-07 0)
(41.9949 6.25207e-07 0)
(41.994 6.27756e-07 0)
(41.993 6.30146e-07 0)
(41.992 6.32389e-07 0)
(41.9908 6.3446e-07 0)
(41.9895 6.36314e-07 0)
(41.9881 6.37893e-07 0)
(41.9864 6.39137e-07 0)
(41.9844 6.39992e-07 0)
(41.9822 6.40452e-07 0)
(41.9797 6.40547e-07 0)
(41.9768 6.40301e-07 0)
(41.9735 6.39714e-07 0)
(41.9699 6.38784e-07 0)
(41.9658 6.37535e-07 0)
(41.9613 6.36035e-07 0)
(41.9563 6.34424e-07 0)
(41.951 6.32843e-07 0)
(41.9452 6.31388e-07 0)
(41.9391 6.30158e-07 0)
(41.9327 6.29201e-07 0)
(41.926 6.28726e-07 0)
(41.9192 6.28651e-07 0)
(41.9122 6.2943e-07 0)
(41.9052 6.30547e-07 0)
(41.8983 6.32897e-07 0)
(41.8914 6.35032e-07 0)
(41.8846 6.38697e-07 0)
(41.8781 6.41187e-07 0)
(41.8717 6.45528e-07 0)
(41.8656 6.47746e-07 0)
(41.8598 6.51913e-07 0)
(41.8541 6.5359e-07 0)
(41.8487 6.5676e-07 0)
(41.8434 6.57963e-07 0)
(41.8382 6.59875e-07 0)
(41.8332 6.60607e-07 0)
(41.8282 6.61776e-07 0)
(41.8233 6.61833e-07 0)
(41.8185 6.63111e-07 0)
(41.8137 6.62453e-07 0)
(41.8089 6.63974e-07 0)
(41.8042 6.62991e-07 0)
(41.7994 6.64127e-07 0)
(41.7946 6.6265e-07 0)
(41.7897 6.6341e-07 0)
(41.7847 6.60373e-07 0)
(41.7794 6.59967e-07 0)
(41.7739 6.55551e-07 0)
(41.7679 6.54067e-07 0)
(41.7616 6.47574e-07 0)
(41.7547 6.46682e-07 0)
(41.7474 6.38433e-07 0)
(41.7395 6.40933e-07 0)
(41.7311 6.59717e-07 0)
(41.7222 1.02128e-06 0)
(41.7127 3.66688e-07 0)
(41.7029 2.20704e-06 0)
(41.6927 5.12101e-06 0)
(41.6824 4.57386e-05 0)
(41.673 0.000306541 0)
(41.67 0.00221466 0)
(41.7149 0.016007 0)
(41.9086 0.133258 0)
(44.9897 0.561733 0)
(42.6936 -0.000101252 0)
(42.6798 -9.26334e-05 0)
(42.6636 -9.0243e-05 0)
(42.6481 -9.10972e-05 0)
(42.6335 -9.18005e-05 0)
(42.619 -9.22256e-05 0)
(42.6043 -9.25505e-05 0)
(42.5894 -9.28262e-05 0)
(42.5745 -9.30531e-05 0)
(42.5595 -9.32253e-05 0)
(42.5445 -9.33725e-05 0)
(42.5294 -9.3511e-05 0)
(42.5142 -9.3633e-05 0)
(42.499 -9.37419e-05 0)
(42.4838 -9.38399e-05 0)
(42.4685 -9.39288e-05 0)
(42.4532 -9.40084e-05 0)
(42.4379 -9.40789e-05 0)
(42.4226 -9.41408e-05 0)
(42.4073 -9.4194e-05 0)
(42.3921 -9.42377e-05 0)
(42.3769 -9.42694e-05 0)
(42.3618 -9.42845e-05 0)
(42.3468 -9.42767e-05 0)
(42.3318 -9.42342e-05 0)
(42.317 -9.41371e-05 0)
(42.3023 -9.39614e-05 0)
(42.2878 -9.36718e-05 0)
(42.2734 -9.32244e-05 0)
(42.2592 -9.2566e-05 0)
(42.2451 -9.16357e-05 0)
(42.2313 -9.03679e-05 0)
(42.2177 -8.86973e-05 0)
(42.2043 -8.65636e-05 0)
(42.1911 -8.39187e-05 0)
(42.1783 -8.07321e-05 0)
(42.1657 -7.69966e-05 0)
(42.1534 -7.27324e-05 0)
(42.1415 -6.79887e-05 0)
(42.1299 -6.28401e-05 0)
(42.1187 -5.73879e-05 0)
(42.1079 -5.1748e-05 0)
(42.0975 -4.60464e-05 0)
(42.0875 -4.04105e-05 0)
(42.0779 -3.49604e-05 0)
(42.0688 -2.98016e-05 0)
(42.06 -2.50196e-05 0)
(42.0518 -2.06766e-05 0)
(42.0439 -1.68105e-05 0)
(42.0365 -1.34358e-05 0)
(42.0295 -1.05459e-05 0)
(42.023 -8.11721e-06 0)
(42.0169 -6.11341e-06 0)
(42.0112 -4.49006e-06 0)
(42.0058 -3.19776e-06 0)
(42.0009 -2.18672e-06 0)
(41.9964 -1.40862e-06 0)
(41.9922 -8.18471e-07 0)
(41.9883 -3.74791e-07 0)
(41.9848 -3.70957e-08 0)
(41.9816 1.78318e-07 0)
(41.9786 3.37734e-07 0)
(41.9759 4.4999e-07 0)
(41.9735 5.27299e-07 0)
(41.9712 5.79369e-07 0)
(41.9692 6.13963e-07 0)
(41.9673 6.36427e-07 0)
(41.9655 6.50623e-07 0)
(41.9639 6.59462e-07 0)
(41.9623 6.64592e-07 0)
(41.9608 6.67435e-07 0)
(41.9594 6.68756e-07 0)
(41.958 6.69048e-07 0)
(41.9566 6.68799e-07 0)
(41.9552 6.6818e-07 0)
(41.9538 6.67287e-07 0)
(41.9524 6.66298e-07 0)
(41.951 6.65318e-07 0)
(41.9496 6.64365e-07 0)
(41.9482 6.63947e-07 0)
(41.9469 6.64468e-07 0)
(41.9455 6.60535e-07 0)
(41.9442 6.6176e-07 0)
(41.9429 6.61815e-07 0)
(41.9417 6.6192e-07 0)
(41.9406 6.61737e-07 0)
(41.9396 6.62036e-07 0)
(41.9388 6.63102e-07 0)
(41.938 6.64718e-07 0)
(41.9374 6.66057e-07 0)
(41.937 6.66996e-07 0)
(41.9367 6.68326e-07 0)
(41.9366 6.69359e-07 0)
(41.9367 6.70617e-07 0)
(41.9369 6.70271e-07 0)
(41.9372 6.71596e-07 0)
(41.9377 6.73082e-07 0)
(41.9383 6.74512e-07 0)
(41.939 6.75908e-07 0)
(41.9398 6.77233e-07 0)
(41.9406 6.78452e-07 0)
(41.9415 6.79723e-07 0)
(41.9424 6.80661e-07 0)
(41.9432 6.81332e-07 0)
(41.9441 6.81676e-07 0)
(41.9448 6.81737e-07 0)
(41.9455 6.82215e-07 0)
(41.9461 6.82829e-07 0)
(41.9465 6.82589e-07 0)
(41.9467 6.82279e-07 0)
(41.9468 6.8204e-07 0)
(41.9467 6.82399e-07 0)
(41.9464 6.81776e-07 0)
(41.9459 6.82454e-07 0)
(41.9452 6.81e-07 0)
(41.9443 6.80909e-07 0)
(41.9433 6.80602e-07 0)
(41.942 6.80552e-07 0)
(41.9407 6.8047e-07 0)
(41.9392 6.80622e-07 0)
(41.9376 6.81014e-07 0)
(41.936 6.81542e-07 0)
(41.9343 6.82482e-07 0)
(41.9327 6.83648e-07 0)
(41.9311 6.87053e-07 0)
(41.9296 6.83832e-07 0)
(41.9281 6.87274e-07 0)
(41.9267 6.92057e-07 0)
(41.9254 6.93082e-07 0)
(41.9242 6.94561e-07 0)
(41.9231 6.96743e-07 0)
(41.9221 6.99003e-07 0)
(41.9212 7.01233e-07 0)
(41.9203 7.034e-07 0)
(41.9194 7.05457e-07 0)
(41.9186 7.07377e-07 0)
(41.9177 7.09159e-07 0)
(41.9168 7.10832e-07 0)
(41.9157 7.12422e-07 0)
(41.9146 7.13921e-07 0)
(41.9133 7.15303e-07 0)
(41.9119 7.16525e-07 0)
(41.9102 7.17527e-07 0)
(41.9083 7.18278e-07 0)
(41.9061 7.18775e-07 0)
(41.9035 7.19046e-07 0)
(41.9007 7.19128e-07 0)
(41.8974 7.19032e-07 0)
(41.8938 7.18743e-07 0)
(41.8897 7.18238e-07 0)
(41.8852 7.17534e-07 0)
(41.8803 7.16719e-07 0)
(41.8749 7.15886e-07 0)
(41.8692 7.15102e-07 0)
(41.8631 7.14402e-07 0)
(41.8567 7.13805e-07 0)
(41.8501 7.13373e-07 0)
(41.8432 7.13153e-07 0)
(41.8363 7.13323e-07 0)
(41.8293 7.13804e-07 0)
(41.8223 7.14846e-07 0)
(41.8155 7.16031e-07 0)
(41.8087 7.17751e-07 0)
(41.8022 7.19219e-07 0)
(41.7959 7.21197e-07 0)
(41.7898 7.22522e-07 0)
(41.7839 7.24323e-07 0)
(41.7783 7.25284e-07 0)
(41.7728 7.26572e-07 0)
(41.7676 7.27161e-07 0)
(41.7624 7.27858e-07 0)
(41.7574 7.28147e-07 0)
(41.7525 7.28468e-07 0)
(41.7476 7.28477e-07 0)
(41.7428 7.2879e-07 0)
(41.738 7.28541e-07 0)
(41.7332 7.28943e-07 0)
(41.7285 7.28557e-07 0)
(41.7238 7.28738e-07 0)
(41.719 7.28109e-07 0)
(41.7141 7.27962e-07 0)
(41.7091 7.26543e-07 0)
(41.7038 7.25687e-07 0)
(41.6983 7.23491e-07 0)
(41.6924 7.21876e-07 0)
(41.686 7.18794e-07 0)
(41.6792 7.17171e-07 0)
(41.6719 7.1346e-07 0)
(41.664 7.12639e-07 0)
(41.6556 7.15867e-07 0)
(41.6467 8.1183e-07 0)
(41.6373 6.26826e-07 0)
(41.6274 1.02256e-06 0)
(41.6173 1.33421e-06 0)
(41.607 7.88216e-06 0)
(41.5976 4.80673e-05 0)
(41.5949 0.000350415 0)
(41.643 0.00276176 0)
(41.8541 0.0389286 0)
(47.0277 0.159115 0)
(37.4578 1.27362 -3.16714e-15)
(36.395 3.65388 6.35262e-15)
(35.9844 6.36407 -1.191e-14)
(35.5924 9.1118 2.46054e-14)
(34.9853 11.8446 -2.53796e-14)
(34.2044 14.5647 -1.58443e-15)
(33.2378 17.2518 1.06114e-19)
(31.9377 19.7851 -2.21618e-14)
(30.1803 22.0324 -1.02908e-13)
(28.0638 23.9671 1.01455e-13)
(26.1282 26.0762 -2.53364e-14)
(24.9294 29.1038 -5.18535e-14)
(24.1441 33.2346 2.64348e-14)
(22.9207 37.5882 0)
(20.6854 40.6648 2.46464e-14)
(17.5437 41.8945 2.46463e-14)
(14.0398 41.922 -2.4716e-14)
(10.52 41.3354 2.48265e-14)
(7.15799 40.3066 1.95061e-16)
(4.10701 41.643 -1.92493e-16)
(38.6272 2.00748 0)
(37.9949 4.89648 0)
(37.5892 8.0792 -1.61261e-15)
(37.0888 11.2418 -3.2215e-15)
(36.3526 14.352 8.04184e-15)
(35.4134 17.4393 1.60543e-14)
(34.2112 20.5616 0)
(32.5284 23.6678 9.61803e-15)
(30.3175 26.4366 1.60239e-14)
(27.7675 28.6564 -3.84756e-14)
(25.8033 30.3472 2.56183e-14)
(24.858 32.5412 1.2687e-14)
(24.0956 36.1308 -1.25369e-14)
(22.2652 40.8218 1.24327e-14)
(18.7082 45.1256 0)
(14.2856 47.3365 -1.5523e-15)
(9.65336 47.8817 1.55218e-15)
(5.07809 47.3392 -5.44659e-15)
(0.932263 45.7033 -7.82691e-16)
(1.63738 44.3572 0)
(41.4126 1.58778 -4.1131e-17)
(41.4111 2.61901 -2.09032e-14)
(41.511 3.66695 2.123e-14)
(41.6944 4.70899 -2.04054e-14)
(41.9129 5.81175 -2.23825e-14)
(42.1296 7.04061 8.3314e-14)
(42.3302 8.43049 -4.21773e-14)
(42.5057 10.0252 4.08796e-14)
(42.597 11.8897 -8.31096e-14)
(42.4925 14.0697 1.3271e-15)
(42.0142 16.5376 4.0928e-14)
(41.0726 19.0927 0)
(39.9357 21.4293 -4.10173e-14)
(39.0182 23.4572 4.11095e-14)
(38.4803 25.4241 -3.31974e-16)
(37.9431 27.6846 0)
(37.015 30.2614 3.32152e-16)
(35.5656 33.0209 0)
(33.53 35.8553 0)
(30.8099 38.5332 0)
(45.517 2.57817 6.29672e-16)
(45.2466 5.92743 -6.31735e-15)
(44.2495 9.9105 -1.26606e-15)
(43.0729 13.9958 2.52921e-15)
(42.0004 18.0259 -2.51849e-15)
(40.9644 21.9916 -4.73692e-19)
(39.8002 25.8874 -9.9589e-15)
(38.3591 29.6693 0)
(36.6048 33.3207 0)
(34.542 36.8357 -4.9006e-15)
(32.1496 40.1685 4.87603e-15)
(29.4502 43.3165 0)
(26.4335 46.2374 -4.82909e-15)
(23.1085 48.8953 4.81256e-15)
(19.4931 51.2482 -4.79669e-15)
(15.6258 53.2522 9.56399e-15)
(11.5632 54.8761 -4.7721e-15)
(7.37773 56.1023 0)
(3.16846 56.9463 -2.37456e-15)
(-0.663927 57.3941 0)
(48.4626 1.78176 -9.60774e-16)
(49.4133 4.56667 7.36498e-15)
(49.122 7.91164 5.12364e-15)
(48.3203 11.4175 1.02389e-14)
(47.5035 15.0517 0)
(46.6902 18.8121 0)
(45.7425 22.652 1.01385e-14)
(44.5359 26.4882 2.52338e-15)
(43.0043 30.3039 -5.02412e-15)
(41.1548 34.035 2.50175e-15)
(38.9519 37.654 1.99279e-14)
(36.4196 41.1122 -1.2406e-14)
(33.5589 44.3532 1.23654e-14)
(30.3841 47.3164 -2.46501e-15)
(26.9151 49.9432 -9.8383e-15)
(23.1785 52.1831 -1.71956e-14)
(19.215 53.9889 -8.59246e-15)
(15.0715 55.2977 -1.22761e-15)
(10.8325 55.9816 7.06578e-15)
(6.75687 55.7072 3.08113e-16)
(1.09998 53.5315 0)
(0.904087 58.715 0)
(1.05326 58.2275 0)
(1.08011 56.8586 0)
(1.04596 56.7751 0)
(1.01929 57.3553 0)
(1.035 57.679 0)
(1.04367 57.6399 0)
(1.04419 57.5271 0)
(1.04166 57.481 0)
(1.03847 57.485 0)
(1.03698 57.4931 0)
(1.03595 57.4889 0)
(1.03485 57.4829 0)
(1.03386 57.4817 0)
(1.0333 57.4825 0)
(1.03294 57.4807 0)
(1.03246 57.4765 0)
(1.03116 57.4769 0)
(1.02926 57.4894 0)
(1.02832 57.5099 0)
(1.02904 57.5247 0)
(1.02989 57.523 0)
(1.03016 57.508 0)
(1.02981 57.4885 0)
(1.02907 57.4673 0)
(1.02812 57.4442 0)
(1.02704 57.4195 0)
(1.02591 57.3945 0)
(1.02468 57.3709 0)
(1.02316 57.3521 0)
(1.021 57.3434 0)
(1.01837 57.3479 0)
(1.01569 57.3579 0)
(1.01179 57.3621 0)
(1.00611 57.3568 0)
(0.998332 57.3409 0)
(0.987638 57.3152 0)
(0.973425 57.2834 0)
(0.954698 57.2548 0)
(0.931225 57.2509 0)
(0.903548 57.2961 0)
(0.872924 57.3453 0)
(0.840472 57.3371 0)
(0.804217 57.2702 0)
(0.763153 57.1447 0)
(0.718015 56.9565 0)
(0.669744 56.7049 0)
(0.619373 56.3902 0)
(0.567904 56.0112 0)
(0.516226 55.5642 0)
(0.465068 55.0426 0)
(0.414965 54.4377 0)
(0.366274 53.7393 0)
(0.319698 52.9394 0)
(0.275149 52.036 0)
(0.233524 51.0366 0)
(0.195398 49.9595 0)
(0.161144 48.8357 0)
(0.131044 47.7061 0)
(0.105588 46.6135 0)
(0.0842738 45.5982 0)
(0.0668233 44.6915 0)
(0.052736 43.9118 0)
(0.0414544 43.2638 0)
(0.0324359 42.7414 0)
(0.025213 42.3313 0)
(0.0194457 42.0163 0)
(0.0148537 41.7788 0)
(0.0112217 41.6024 0)
(0.00837676 41.4729 0)
(0.00617482 41.3787 0)
(0.00449343 41.3105 0)
(0.00322756 41.2613 0)
(0.00228802 41.2257 0)
(0.00160155 41.1998 0)
(0.0011068 41.1807 0)
(0.000755374 41.1663 0)
(0.000509241 41.1552 0)
(0.000339208 41.1464 0)
(0.000223313 41.139 0)
(0.000145351 41.1327 0)
(9.35757e-05 41.127 0)
(5.96208e-05 41.1217 0)
(3.76253e-05 41.1166 0)
(2.35478e-05 41.1117 0)
(1.4644e-05 41.1069 0)
(9.07752e-06 41.102 0)
(5.63753e-06 41.0971 0)
(3.53565e-06 41.0921 0)
(2.26548e-06 41.087 0)
(1.50821e-06 41.0818 0)
(1.06371e-06 41.0764 0)
(7.93817e-07 41.0709 0)
(6.36693e-07 41.0652 0)
(5.44834e-07 41.0593 0)