/*--------------------------------*- C++ -*----------------------------------*\
| =========                 |                                                 |
| \\      /  F ield         | OpenFOAM: The Open Source CFD Toolbox           |
|  \\    /   O peration     | Version:  3.0.x                                 |
|   \\  /    A nd           | Web:      www.OpenFOAM.org                      |
|    \\/     M anipulation  |                                                 |
\*---------------------------------------------------------------------------*/
FoamFile
{
    version     2.0;
    format      ascii;
    class       surfaceScalarField;
    location    "0.42";
    object      phi;
}
// * * * * * * * * * * * * * * * * * * * * * * * * * * * * * * * * * * * * * //

dimensions      [1 0 -1 0 0 0 0];

internalField   nonuniform List<scalar> 
12415
(
5.7976
0.000327754
5.79729
0.000235162
5.79699
0.000224611
5.79668
0.000226692
5.79637
0.000227143
5.79604
0.000226927
5.79571
0.000226863
5.79537
0.000226862
5.79502
0.000226857
5.79466
0.000226852
5.79428
0.000226848
5.79389
0.000226845
5.79349
0.000226843
5.79307
0.000226841
5.79264
0.00022684
5.7922
0.000226839
5.79176
0.000226839
5.7913
0.000226806
5.79084
0.000226922
5.79038
0.000226816
5.78991
0.000226874
5.78945
0.000226888
5.78899
0.000226911
5.78854
0.000226942
5.7881
0.00022698
5.78767
0.000227007
5.78726
0.000227059
5.78687
0.000227123
5.78651
0.000227267
5.78618
0.000227248
5.78586
0.000227348
5.78556
0.000227426
5.78527
0.000227509
5.785
0.000227594
5.78475
0.000227681
5.78451
0.000227769
5.78428
0.000227864
5.78407
0.000227988
5.78387
0.000228029
5.78368
0.000228152
5.78349
0.000228256
5.78331
0.000228356
5.78312
0.000228455
5.78292
0.00022855
5.78272
0.000228634
5.7825
0.000228703
5.78226
0.00022874
5.78199
0.000228732
5.7817
0.000228673
5.78137
0.000228529
5.78103
0.000228271
5.78066
0.00022787
5.78028
0.000227279
5.77988
0.00022645
5.77948
0.000225327
5.77906
0.000223845
5.77863
0.000221936
5.7782
0.000219529
5.77777
0.000216551
5.77734
0.000212936
5.77692
0.000208623
5.77651
0.000203566
5.77612
0.000197732
5.77575
0.000191108
5.77542
0.000183704
5.77511
0.000175552
5.77484
0.000166718
5.77461
0.000157238
5.77442
0.000147331
5.77427
0.00013702
5.77415
0.000126281
5.77407
0.000115656
5.77403
0.000104974
5.77401
9.44665e-05
5.77403
8.42677e-05
5.77406
7.44698e-05
5.77411
6.52177e-05
5.77417
5.65609e-05
5.77424
4.85683e-05
5.7743
4.12779e-05
5.77436
3.47082e-05
5.77441
2.8858e-05
5.77443
2.37094e-05
5.77444
1.92288e-05
5.77442
1.53816e-05
5.77437
1.20971e-05
5.7743
9.35129e-06
5.77419
7.05745e-06
5.77406
5.17486e-06
5.7739
3.64137e-06
5.77371
2.40652e-06
5.77349
1.42308e-06
5.77326
6.44975e-07
5.77302
3.91738e-08
5.77277
-4.3108e-07
5.77251
-7.90538e-07
5.77226
-1.06422e-06
5.77202
-1.27135e-06
5.7718
-1.42814e-06
5.7716
-1.54652e-06
5.77143
-1.63677e-06
5.77129
-1.70516e-06
5.77118
-1.75886e-06
5.77111
-1.80034e-06
5.77108
-1.83456e-06
5.77108
-1.85325e-06
5.77112
-1.88568e-06
5.77119
-1.89845e-06
5.77129
-1.91535e-06
5.77142
-1.92573e-06
5.77157
-1.93589e-06
5.77173
-1.94112e-06
5.77191
-1.94486e-06
5.77208
-1.94564e-06
5.77225
-1.94355e-06
5.7724
-1.9389e-06
5.77254
-1.93183e-06
5.77265
-1.9222e-06
5.77273
-1.91041e-06
5.77277
-1.89659e-06
5.77276
-1.88619e-06
5.77272
-1.86787e-06
5.77262
-1.84752e-06
5.77248
-1.83225e-06
5.77229
-1.81334e-06
5.77205
-1.79898e-06
5.77177
-1.78352e-06
5.77145
-1.77044e-06
5.77109
-1.76046e-06
5.77072
-1.75205e-06
5.77032
-1.74806e-06
5.76992
-1.74639e-06
5.76952
-1.7484e-06
5.76912
-1.75394e-06
5.76875
-1.76223e-06
5.7684
-1.77331e-06
5.76808
-1.78686e-06
5.76779
-1.80205e-06
5.76755
-1.81814e-06
5.76734
-1.83523e-06
5.76718
-1.85117e-06
5.76705
-1.86743e-06
5.76696
-1.8812e-06
5.7669
-1.89426e-06
5.76686
-1.89994e-06
5.76684
-1.91089e-06
5.76683
-1.91499e-06
5.76682
-1.917e-06
5.76681
-1.91553e-06
5.76678
-1.90895e-06
5.76673
-1.90482e-06
5.76665
-1.88363e-06
5.76653
-1.87669e-06
5.76635
-1.85394e-06
5.76612
-1.82965e-06
5.76581
-1.80365e-06
5.76543
-1.77516e-06
5.76496
-1.74301e-06
5.76441
-1.71086e-06
5.76376
-1.67633e-06
5.76302
-1.6418e-06
5.76218
-1.60907e-06
5.76126
-1.57737e-06
5.76026
-1.54853e-06
5.75919
-1.52436e-06
5.75807
-1.50384e-06
5.75689
-1.4889e-06
5.75569
-1.47972e-06
5.75446
-1.4758e-06
5.75324
-1.47826e-06
5.75202
-1.48498e-06
5.75082
-1.49599e-06
5.74965
-1.5103e-06
5.7485
-1.52586e-06
5.74738
-1.54216e-06
5.74629
-1.55623e-06
5.74522
-1.56929e-06
5.74416
-1.57815e-06
5.7431
-1.58423e-06
5.74203
-1.5854e-06
5.74094
-1.58358e-06
5.73983
-1.57793e-06
5.73869
-1.56947e-06
5.73752
-1.55847e-06
5.73629
-1.54535e-06
5.73502
-1.5291e-06
5.73369
-1.5112e-06
5.7323
-1.48772e-06
5.73081
-1.46153e-06
5.72923
-1.42551e-06
5.72754
-1.37693e-06
5.72572
-1.24092e-06
5.72374
-6.11266e-07
5.72161
3.53679e-06
5.71929
3.2166e-05
5.7166
0.000231506
5.71235
0.00161996
5.69827
0.011293
5.60579
0.0895101
0.441453
5.16122
11.596
0.000260502
11.5958
0.000215904
11.5957
0.000189285
11.5956
0.000194026
11.5954
0.000195345
11.5953
0.000194741
11.5951
0.000194569
11.5949
0.000194579
11.5947
0.000194582
11.5945
0.000194581
11.5942
0.000194583
11.5939
0.000194589
11.5936
0.000194595
11.5932
0.000194603
11.5929
0.000194611
11.5925
0.000194621
11.592
0.00019463
11.5916
0.000194625
11.5912
0.000194704
11.5907
0.000194652
11.5903
0.000194702
11.5899
0.000194726
11.5894
0.000194757
11.589
0.000194793
11.5886
0.000194837
11.5882
0.000194875
11.5879
0.000194928
11.5876
0.000194993
11.5874
0.000195095
11.5872
0.000195149
11.587
0.00019522
11.5869
0.000195297
11.5868
0.000195379
11.5868
0.000195463
11.5868
0.00019555
11.5868
0.000195637
11.5868
0.000195729
11.5869
0.000195838
11.587
0.000195907
11.5871
0.000196006
11.5872
0.000196113
11.5873
0.000196209
11.5874
0.000196306
11.5875
0.000196399
11.5876
0.000196482
11.5876
0.000196552
11.5876
0.000196595
11.5876
0.000196597
11.5875
0.000196556
11.5874
0.00019644
11.5871
0.000196226
11.5869
0.000195885
11.5866
0.00019538
11.5863
0.000194668
11.586
0.000193699
11.5856
0.000192417
11.5852
0.000190764
11.5848
0.000188678
11.5844
0.000186097
11.584
0.000182962
11.5836
0.000179223
11.5833
0.000174839
11.5829
0.000169784
11.5826
0.000164046
11.5823
0.000157638
11.5821
0.000150583
11.5819
0.000142939
11.5818
0.000134779
11.5817
0.000126189
11.5817
0.000117283
11.5817
0.000108077
11.5818
9.88974e-05
11.582
8.97113e-05
11.5821
8.06785e-05
11.5823
7.19182e-05
11.5826
6.35128e-05
11.5828
5.55804e-05
11.583
4.81664e-05
11.5833
4.1328e-05
11.5835
3.50957e-05
11.5837
2.9485e-05
11.5838
2.44937e-05
11.5839
2.01049e-05
11.584
1.62898e-05
11.584
1.30152e-05
11.5839
1.0228e-05
11.5838
7.89086e-06
11.5836
5.94936e-06
11.5833
4.35312e-06
11.583
3.05519e-06
11.5826
2.01153e-06
11.5822
1.1823e-06
11.5818
5.24002e-07
11.5813
1.78006e-08
11.5808
-3.81282e-07
11.5803
-6.84768e-07
11.5798
-9.16871e-07
11.5793
-1.09223e-06
11.5788
-1.22579e-06
11.5784
-1.32679e-06
11.5781
-1.40377e-06
11.5778
-1.46235e-06
11.5776
-1.50823e-06
11.5774
-1.54392e-06
11.5774
-1.57279e-06
11.5774
-1.59083e-06
11.5774
-1.61475e-06
11.5776
-1.62963e-06
11.5778
-1.64235e-06
11.578
-1.65172e-06
11.5783
-1.66005e-06
11.5786
-1.66491e-06
11.579
-1.66789e-06
11.5793
-1.66857e-06
11.5797
-1.66688e-06
11.58
-1.66287e-06
11.5802
-1.6568e-06
11.5804
-1.64854e-06
11.5806
-1.63842e-06
11.5807
-1.62674e-06
11.5807
-1.61711e-06
11.5806
-1.60299e-06
11.5804
-1.58422e-06
11.5801
-1.57079e-06
11.5797
-1.55554e-06
11.5792
-1.54261e-06
11.5786
-1.52989e-06
11.578
-1.51824e-06
11.5773
-1.50996e-06
11.5765
-1.50259e-06
11.5757
-1.49931e-06
11.5749
-1.49775e-06
11.5741
-1.49956e-06
11.5733
-1.50425e-06
11.5726
-1.51136e-06
11.5719
-1.52096e-06
11.5712
-1.53246e-06
11.5706
-1.5455e-06
11.5701
-1.5594e-06
11.5697
-1.57387e-06
11.5694
-1.58779e-06
11.5691
-1.60145e-06
11.569
-1.61356e-06
11.5688
-1.62501e-06
11.5687
-1.62835e-06
11.5687
-1.63883e-06
11.5687
-1.64312e-06
11.5687
-1.64394e-06
11.5686
-1.64308e-06
11.5686
-1.63696e-06
11.5685
-1.6339e-06
11.5683
-1.61137e-06
11.568
-1.61515e-06
11.5677
-1.58758e-06
11.5672
-1.56988e-06
11.5666
-1.54635e-06
11.5658
-1.52304e-06
11.5649
-1.49451e-06
11.5638
-1.46723e-06
11.5625
-1.43756e-06
11.561
-1.40855e-06
11.5593
-1.37967e-06
11.5575
-1.35285e-06
11.5555
-1.32817e-06
11.5533
-1.30735e-06
11.5511
-1.28991e-06
11.5487
-1.27689e-06
11.5463
-1.2689e-06
11.5439
-1.26602e-06
11.5414
-1.26771e-06
11.539
-1.27372e-06
11.5366
-1.28291e-06
11.5342
-1.29546e-06
11.5319
-1.30848e-06
11.5297
-1.3232e-06
11.5275
-1.33409e-06
11.5253
-1.34633e-06
11.5232
-1.35288e-06
11.5211
-1.35916e-06
11.5189
-1.35922e-06
11.5168
-1.3584e-06
11.5145
-1.35312e-06
11.5123
-1.34625e-06
11.5099
-1.33623e-06
11.5075
-1.32576e-06
11.5049
-1.31039e-06
11.5022
-1.29694e-06
11.4994
-1.27461e-06
11.4965
-1.25454e-06
11.4933
-1.21698e-06
11.4899
-1.15533e-06
11.4863
-8.49496e-07
11.4823
9.05401e-07
11.4781
1.30773e-05
11.4734
9.7797e-05
11.468
0.000688393
11.4596
0.00480168
11.432
0.0333094
11.2789
0.236664
1.11087
10.6033
139.151
-0.000260502
139.15
-0.000215904
139.148
-0.000189285
139.147
-0.000194026
139.145
-0.000195345
139.143
-0.000194741
139.141
-0.000194569
139.139
-0.000194579
139.136
-0.000194582
139.133
-0.000194581
139.13
-0.000194583
139.127
-0.000194589
139.123
-0.000194595
139.119
-0.000194603
139.114
-0.000194611
139.109
-0.000194621
139.104
-0.00019463
139.099
-0.000194625
139.094
-0.000194704
139.089
-0.000194652
139.083
-0.000194702
139.078
-0.000194726
139.073
-0.000194757
139.068
-0.000194793
139.063
-0.000194837
139.059
-0.000194875
139.055
-0.000194928
139.051
-0.000194993
139.049
-0.000195095
139.046
-0.000195149
139.045
-0.00019522
139.043
-0.000195297
139.042
-0.000195379
139.042
-0.000195463
139.041
-0.00019555
139.041
-0.000195637
139.042
-0.000195729
139.042
-0.000195838
139.044
-0.000195907
139.045
-0.000196006
139.046
-0.000196113
139.048
-0.000196209
139.049
-0.000196306
139.05
-0.000196399
139.051
-0.000196482
139.052
-0.000196552
139.052
-0.000196595
139.051
-0.000196597
139.05
-0.000196556
139.048
-0.00019644
139.046
-0.000196226
139.043
-0.000195885
139.04
-0.00019538
139.036
-0.000194668
139.032
-0.000193699
139.028
-0.000192417
139.023
-0.000190764
139.018
-0.000188678
139.013
-0.000186097
139.009
-0.000182962
139.004
-0.000179223
138.999
-0.000174839
138.995
-0.000169784
138.991
-0.000164046
138.988
-0.000157638
138.985
-0.000150583
138.983
-0.000142939
138.981
-0.000134779
138.981
-0.000126189
138.98
-0.000117283
138.981
-0.000108077
138.982
-9.88974e-05
138.984
-8.97113e-05
138.986
-8.06785e-05
138.988
-7.19182e-05
138.991
-6.35128e-05
138.994
-5.55804e-05
138.997
-4.81664e-05
138.999
-4.1328e-05
139.002
-3.50957e-05
139.004
-2.9485e-05
139.006
-2.44937e-05
139.007
-2.01049e-05
139.008
-1.62898e-05
139.008
-1.30152e-05
139.007
-1.0228e-05
139.006
-7.89087e-06
139.003
-5.94937e-06
139
-4.35312e-06
138.996
-3.05519e-06
138.992
-2.01152e-06
138.987
-1.1823e-06
138.981
-5.24001e-07
138.975
-1.78034e-08
138.969
3.81278e-07
138.963
6.84766e-07
138.957
9.1687e-07
138.951
1.09223e-06
138.946
1.22579e-06
138.941
1.32678e-06
138.937
1.40377e-06
138.934
1.46235e-06
138.931
1.50824e-06
138.929
1.54392e-06
138.928
1.57278e-06
138.928
1.59083e-06
138.929
1.61475e-06
138.931
1.62963e-06
138.933
1.64235e-06
138.936
1.65172e-06
138.94
1.66006e-06
138.944
1.6649e-06
138.948
1.66789e-06
138.952
1.66856e-06
138.956
1.66688e-06
138.96
1.66287e-06
138.963
1.6568e-06
138.965
1.64854e-06
138.967
1.63842e-06
138.968
1.62675e-06
138.968
1.61721e-06
138.967
1.60285e-06
138.964
1.58413e-06
138.961
1.57095e-06
138.956
1.55548e-06
138.951
1.54269e-06
138.944
1.52974e-06
138.936
1.51842e-06
138.928
1.50977e-06
138.918
1.50278e-06
138.909
1.49915e-06
138.899
1.49795e-06
138.889
1.49936e-06
138.88
1.50444e-06
138.871
1.51121e-06
138.862
1.52106e-06
138.855
1.53235e-06
138.848
1.5456e-06
138.842
1.55925e-06
138.837
1.57407e-06
138.833
1.58761e-06
138.83
1.60163e-06
138.828
1.61305e-06
138.826
1.62e-06
138.825
1.63417e-06
138.824
1.64163e-06
138.824
1.63983e-06
138.824
1.64402e-06
138.824
1.64223e-06
138.823
1.63809e-06
138.822
1.62887e-06
138.82
1.63586e-06
138.817
1.59176e-06
138.812
1.59288e-06
138.807
1.56682e-06
138.799
1.54993e-06
138.79
1.51926e-06
138.779
1.49647e-06
138.765
1.46679e-06
138.75
1.43861e-06
138.732
1.40686e-06
138.712
1.38039e-06
138.69
1.35281e-06
138.666
1.3291e-06
138.64
1.3058e-06
138.613
1.29054e-06
138.585
1.27676e-06
138.556
1.26985e-06
138.526
1.26479e-06
138.497
1.26839e-06
138.468
1.27339e-06
138.439
1.28344e-06
138.411
1.29467e-06
138.383
1.30958e-06
138.356
1.31797e-06
138.33
1.33942e-06
138.304
1.34357e-06
138.279
1.35629e-06
138.253
1.35598e-06
138.227
1.36326e-06
138.201
1.35511e-06
138.175
1.35571e-06
138.147
1.34273e-06
138.119
1.33944e-06
138.09
1.32282e-06
138.059
1.31634e-06
138.027
1.29082e-06
137.993
1.28142e-06
137.958
1.24606e-06
137.92
1.23883e-06
137.879
1.23417e-06
137.835
1.52227e-06
137.788
3.69818e-06
137.737
1.9514e-05
137.682
0.000132604
137.623
0.000939708
137.558
0.00670863
137.476
0.0482927
137.257
0.384548
1.64592
136.647
11.596
-0.000327754
11.5958
-0.000235162
11.5957
-0.000224611
11.5956
-0.000226692
11.5954
-0.000227143
11.5953
-0.000226927
11.5951
-0.000226863
11.5949
-0.000226862
11.5947
-0.000226857
11.5945
-0.000226852
11.5942
-0.000226848
11.5939
-0.000226845
11.5936
-0.000226843
11.5932
-0.000226841
11.5929
-0.00022684
11.5925
-0.000226839
11.592
-0.000226839
11.5916
-0.000226806
11.5912
-0.000226922
11.5907
-0.000226816
11.5903
-0.000226874
11.5899
-0.000226888
11.5894
-0.000226911
11.589
-0.000226942
11.5886
-0.00022698
11.5882
-0.000227007
11.5879
-0.000227059
11.5876
-0.000227123
11.5874
-0.000227267
11.5872
-0.000227248
11.587
-0.000227348
11.5869
-0.000227426
11.5868
-0.000227509
11.5868
-0.000227594
11.5868
-0.000227681
11.5868
-0.000227769
11.5868
-0.000227864
11.5869
-0.000227988
11.587
-0.000228029
11.5871
-0.000228152
11.5872
-0.000228256
11.5873
-0.000228356
11.5874
-0.000228455
11.5875
-0.00022855
11.5876
-0.000228634
11.5876
-0.000228703
11.5876
-0.00022874
11.5876
-0.000228732
11.5875
-0.000228673
11.5874
-0.000228529
11.5871
-0.000228271
11.5869
-0.00022787
11.5866
-0.000227279
11.5863
-0.00022645
11.586
-0.000225327
11.5856
-0.000223845
11.5852
-0.000221936
11.5848
-0.000219529
11.5844
-0.000216551
11.584
-0.000212936
11.5836
-0.000208623
11.5833
-0.000203566
11.5829
-0.000197732
11.5826
-0.000191108
11.5823
-0.000183704
11.5821
-0.000175552
11.5819
-0.000166718
11.5818
-0.000157238
11.5817
-0.000147331
11.5817
-0.00013702
11.5817
-0.000126281
11.5818
-0.000115656
11.582
-0.000104974
11.5821
-9.44665e-05
11.5823
-8.42677e-05
11.5826
-7.44698e-05
11.5828
-6.52177e-05
11.583
-5.65609e-05
11.5833
-4.85683e-05
11.5835
-4.12779e-05
11.5837
-3.47082e-05
11.5838
-2.8858e-05
11.5839
-2.37094e-05
11.584
-1.92288e-05
11.584
-1.53816e-05
11.5839
-1.20971e-05
11.5838
-9.35129e-06
11.5836
-7.05745e-06
11.5833
-5.17486e-06
11.583
-3.64137e-06
11.5826
-2.40651e-06
11.5822
-1.42309e-06
11.5818
-6.44974e-07
11.5813
-3.91738e-08
11.5808
4.3108e-07
11.5803
7.90536e-07
11.5798
1.06422e-06
11.5793
1.27135e-06
11.5788
1.42814e-06
11.5784
1.54652e-06
11.5781
1.63677e-06
11.5778
1.70516e-06
11.5776
1.75886e-06
11.5774
1.80034e-06
11.5774
1.83456e-06
11.5774
1.85325e-06
11.5774
1.88568e-06
11.5776
1.89845e-06
11.5778
1.91535e-06
11.578
1.92573e-06
11.5783
1.9359e-06
11.5786
1.94112e-06
11.579
1.94485e-06
11.5793
1.94564e-06
11.5797
1.94355e-06
11.58
1.9389e-06
11.5802
1.93183e-06
11.5804
1.9222e-06
11.5806
1.91041e-06
11.5807
1.89659e-06
11.5807
1.88631e-06
11.5806
1.86781e-06
11.5804
1.8474e-06
11.5801
1.83232e-06
11.5797
1.81332e-06
11.5792
1.79902e-06
11.5786
1.78347e-06
11.578
1.77051e-06
11.5773
1.76039e-06
11.5765
1.75212e-06
11.5757
1.74801e-06
11.5749
1.74646e-06
11.5741
1.74833e-06
11.5733
1.754e-06
11.5726
1.76218e-06
11.5719
1.77334e-06
11.5712
1.78683e-06
11.5706
1.80209e-06
11.5701
1.81809e-06
11.5697
1.8353e-06
11.5694
1.85111e-06
11.5691
1.86749e-06
11.569
1.88101e-06
11.5688
1.89229e-06
11.5687
1.90234e-06
11.5687
1.91161e-06
11.5687
1.91393e-06
11.5687
1.91704e-06
11.5686
1.91524e-06
11.5686
1.90934e-06
11.5685
1.90366e-06
11.5683
1.89005e-06
11.568
1.87081e-06
11.5677
1.85506e-06
11.5672
1.82857e-06
11.5666
1.80487e-06
11.5658
1.77387e-06
11.5649
1.74368e-06
11.5638
1.71072e-06
11.5625
1.6767e-06
11.561
1.64122e-06
11.5593
1.60931e-06
11.5575
1.57735e-06
11.5555
1.54885e-06
11.5533
1.52383e-06
11.5511
1.50406e-06
11.5487
1.48885e-06
11.5463
1.48004e-06
11.5439
1.47538e-06
11.5414
1.47851e-06
11.539
1.48487e-06
11.5366
1.49618e-06
11.5342
1.51002e-06
11.5319
1.52624e-06
11.5297
1.54036e-06
11.5275
1.55806e-06
11.5253
1.56833e-06
11.5232
1.57933e-06
11.5211
1.58314e-06
11.5189
1.5868e-06
11.5168
1.58244e-06
11.5145
1.57882e-06
11.5123
1.56827e-06
11.5099
1.55957e-06
11.5075
1.54434e-06
11.5049
1.53113e-06
11.5022
1.5091e-06
11.4994
1.49003e-06
11.4965
1.45864e-06
11.4933
1.43298e-06
11.4899
1.40399e-06
11.4863
1.47066e-06
11.4823
2.17854e-06
11.4781
7.54298e-06
11.4736
4.61426e-05
11.4693
0.000322229
11.4684
0.00231265
11.4938
0.0172937
11.6843
0.188185
0.712217
12.6118
5.7976
5.79729
5.79699
5.79668
5.79637
5.79604
5.79571
5.79537
5.79502
5.79466
5.79428
5.79389
5.79349
5.79307
5.79264
5.7922
5.79176
5.7913
5.79084
5.79038
5.78991
5.78945
5.78899
5.78854
5.7881
5.78767
5.78726
5.78687
5.78651
5.78618
5.78586
5.78556
5.78527
5.785
5.78475
5.78451
5.78428
5.78407
5.78387
5.78368
5.78349
5.78331
5.78312
5.78292
5.78272
5.7825
5.78226
5.78199
5.7817
5.78137
5.78103
5.78066
5.78028
5.77988
5.77948
5.77906
5.77863
5.7782
5.77777
5.77734
5.77692
5.77651
5.77612
5.77575
5.77542
5.77511
5.77484
5.77461
5.77442
5.77427
5.77415
5.77407
5.77403
5.77401
5.77403
5.77406
5.77411
5.77417
5.77424
5.7743
5.77436
5.77441
5.77443
5.77444
5.77442
5.77437
5.7743
5.77419
5.77406
5.7739
5.77371
5.77349
5.77326
5.77302
5.77277
5.77251
5.77226
5.77202
5.7718
5.7716
5.77143
5.77129
5.77118
5.77111
5.77108
5.77108
5.77112
5.77119
5.77129
5.77142
5.77157
5.77173
5.77191
5.77208
5.77225
5.7724
5.77254
5.77265
5.77273
5.77277
5.77276
5.77272
5.77262
5.77248
5.77229
5.77205
5.77177
5.77145
5.77109
5.77072
5.77032
5.76992
5.76952
5.76912
5.76875
5.7684
5.76808
5.76779
5.76755
5.76734
5.76718
5.76705
5.76696
5.7669
5.76686
5.76684
5.76683
5.76682
5.76681
5.76678
5.76673
5.76665
5.76653
5.76635
5.76612
5.76581
5.76543
5.76496
5.76441
5.76376
5.76302
5.76218
5.76126
5.76026
5.75919
5.75807
5.75689
5.75569
5.75446
5.75324
5.75202
5.75082
5.74965
5.7485
5.74738
5.74629
5.74522
5.74416
5.7431
5.74203
5.74094
5.73983
5.73869
5.73752
5.73629
5.73502
5.73369
5.7323
5.73081
5.72923
5.72754
5.72572
5.72375
5.72163
5.71938
5.71724
5.71693
5.73143
5.91667
6.62578
5.0353
0.125118
5.04353
-0.00903468
5.04219
0.000539868
5.05054
-0.00916504
5.06977
-0.0200283
5.08778
-0.0187988
5.08487
0.00218855
5.0636
0.02069
5.10082
-0.0373847
5.29271
-0.192331
5.58502
-0.293399
5.83716
-0.253871
5.88468
-0.0498864
5.79888
0.0840237
5.65302
0.144553
5.46853
0.183285
5.29931
0.168221
5.27849
0.0203961
5.68247
-0.402949
-1.26621
6.94875
10.5504
0.176452
10.5715
-0.031749
10.6239
-0.0534715
10.6876
-0.0743743
10.7668
-0.100842
10.8462
-0.0997529
10.886
-0.0389492
10.8806
0.0248823
10.9683
-0.125279
11.341
-0.565925
11.9408
-0.895434
12.5215
-0.838316
12.7505
-0.283323
12.7073
0.124031
12.5012
0.348283
12.14
0.542448
11.6858
0.620691
11.3502
0.355297
11.6841
-0.734542
-3.0687
13.4863
136.686
0.122451
136.748
-0.108262
136.738
-0.0591315
136.559
0.0902402
136.217
0.226224
135.783
0.318449
135.36
0.370129
135.006
0.361363
134.471
0.394069
133.522
0.366391
132.246
0.366035
131.056
0.338639
130.455
0.305153
130.294
0.269588
130.392
0.233588
130.719
0.196979
131.163
0.15786
131.387
0.110631
130.588
0.0422787
-0.148497
127.649
12.5538
0.179514
12.4523
-0.00763769
12.4017
-0.00950182
12.4688
0.0221229
12.6386
0.0553031
12.874
0.0818358
13.143
0.0995463
13.4026
0.101316
13.6845
0.110779
13.9448
0.105521
14.2062
0.10381
14.4495
0.0943879
14.6727
0.0810781
14.8755
0.065905
15.0583
0.0499048
15.2214
0.0329554
15.3655
0.0129572
15.4913
-0.0159677
15.6039
-0.0711451
-0.246008
15.7006
6.80486
6.79677
6.7868
6.80843
6.8632
6.94444
7.04333
7.14431
7.25452
7.3597
7.46309
7.55704
7.63768
7.70315
7.75264
7.78518
7.79774
7.78138
7.70985
7.46345
7.89154
-0.950988
7.76098
0.12496
7.71547
0.0436113
7.8359
-0.121655
7.93177
-0.0985144
7.95183
-0.0227792
7.937
0.0124688
7.92533
0.00920543
7.9285
-0.00578155
7.93391
-0.00810989
7.93331
-0.00216735
7.92963
0.000857438
7.92612
0.000574304
7.92307
3.2189e-06
7.91998
-2.68961e-05
7.91739
-0.000626774
7.91504
-0.000965545
7.91206
-0.000434921
7.90808
0.000488226
7.90347
0.0010378
7.89834
0.00149673
7.89274
0.00189657
7.88675
0.00221837
7.88047
0.00245646
7.87398
0.00260447
7.86738
0.00265946
7.86076
0.00262455
7.85419
0.00250858
7.84775
0.00232702
7.84147
0.00210184
7.83537
0.00185958
7.82944
0.00162821
7.82364
0.00143374
7.81792
0.00129716
7.81219
0.00123237
7.8064
0.00124543
7.80046
0.00133492
7.79432
0.00149285
7.78791
0.00170597
7.7812
0.00195726
7.77418
0.00222773
7.76685
0.00249815
7.75924
0.00275073
7.75137
0.00297027
7.74329
0.00314506
7.73507
0.00326711
7.72674
0.00333248
7.71838
0.00334087
7.71003
0.00329531
7.70174
0.00320168
7.69355
0.00306806
7.68548
0.00290432
7.67755
0.00272123
7.66977
0.00253013
7.66212
0.00234193
7.6546
0.00216657
7.64717
0.00201179
7.63981
0.00188419
7.63247
0.00178906
7.62512
0.00173103
7.6177
0.00171429
7.61019
0.00174315
7.60251
0.0018228
7.59461
0.00195804
7.58644
0.00215204
7.57795
0.00239305
7.56914
0.00261588
7.56031
0.00254566
7.55283
0.00110649
7.55187
-0.00547361
7.5608
-0.0154586
7.57176
-0.0176254
7.57601
-0.0110418
7.57061
-0.00147422
7.55838
0.00530743
7.54422
0.00716061
7.52864
0.00850552
7.51185
0.00962552
7.4936
0.0109897
7.47354
0.0127333
7.45128
0.0148493
7.4265
0.0172821
7.39898
0.0199465
7.36859
0.0227531
7.33527
0.0256201
7.29901
0.0285048
7.25976
0.0314302
7.21738
0.0345029
7.17149
0.0379178
7.12152
0.0419297
7.0666
0.0468139
7.00566
0.0528123
6.93745
0.0600793
6.86066
0.0686293
6.77399
0.0783666
6.67652
0.0888439
6.56812
0.0994588
6.44971
0.10959
6.32294
0.118171
6.19026
0.124272
6.05504
0.126879
5.92116
0.125886
5.79233
0.120827
5.67178
0.112235
5.56219
0.101045
5.46522
0.0883086
5.38134
0.0750921
5.31014
0.0622524
5.25058
0.0505468
5.20125
0.0402624
5.16057
0.0315524
5.127
0.0243835
5.09913
0.0186176
5.07574
0.0140669
5.05581
0.0105306
5.03852
0.00781836
5.0232
0.005761
5.00935
0.00421543
4.99656
0.00306425
4.98454
0.00221348
4.97305
0.00158924
4.96193
0.00113433
4.95105
0.000804959
4.94032
0.00056799
4.92966
0.000398547
4.91903
0.000278123
4.9084
0.00019305
4.89774
0.00013331
4.88703
9.16079e-05
4.87625
6.26703e-05
4.86541
4.27087e-05
4.8545
2.90217e-05
4.84352
1.96927e-05
4.83246
1.33732e-05
4.82132
9.11768e-06
4.81011
6.27051e-06
4.79883
4.37643e-06
4.78748
3.12472e-06
4.77607
2.30266e-06
4.7646
1.76631e-06
4.75306
1.4185e-06
4.74147
1.19396e-06
4.72983
1.04913e-06
4.71814
9.56272e-07
4.7064
8.96302e-07
4.69461
8.57453e-07
4.68278
8.31213e-07
4.6709
8.13119e-07
4.65898
7.98887e-07
4.64702
7.87104e-07
4.63501
7.76086e-07
4.62295
7.66571e-07
4.61085
7.57418e-07
4.5987
7.49711e-07
4.5865
7.39654e-07
4.57424
7.30004e-07
4.56194
7.16705e-07
4.54957
7.05164e-07
4.53715
6.9089e-07
4.52467
6.80373e-07
4.51213
6.65772e-07
4.49953
6.54882e-07
4.48687
6.37106e-07
4.47414
6.23553e-07
4.46135
6.03868e-07
4.4485
5.87204e-07
4.43558
5.68021e-07
4.42261
5.50493e-07
4.40957
5.2914e-07
4.39647
5.12939e-07
4.38331
4.88219e-07
4.37009
4.76635e-07
4.35681
4.50567e-07
4.34347
4.42273e-07
4.33006
4.14637e-07
4.3166
4.08952e-07
4.30306
3.78262e-07
4.28946
3.79443e-07
4.2758
3.41106e-07
4.26206
3.61159e-07
4.24826
3.01297e-07
4.23439
3.6374e-07
4.22046
2.46124e-07
4.20645
3.97673e-07
4.19238
1.58314e-07
4.17824
4.70982e-07
4.16405
3.4961e-08
4.14978
5.55974e-07
4.13546
-8.20291e-08
4.12107
5.72172e-07
4.10664
-2.98432e-07
4.09214
-2.75182e-07
4.0776
-4.56908e-06
4.06301
-2.12251e-05
4.04847
-0.000110485
4.03432
-0.000549088
4.02235
-0.00277367
4.02212
-0.0145665
4.11894
-0.111658
-0.408212
4.51236
15.3127
-2.79421
15.1573
0.269361
14.9347
0.26264
15.0445
-0.234149
15.2142
-0.273279
15.2746
-0.0885835
15.2485
0.033765
15.2147
0.0381284
15.2112
-0.00758548
15.2207
-0.0229363
15.2221
-0.00911514
15.2157
0.00160596
15.2082
0.002228
15.2015
0.000578906
15.1949
0.000361634
15.1894
-0.00154493
15.1851
-0.00332855
15.1807
-0.00285033
15.1749
-0.000705573
15.168
0.000865776
15.1599
0.00230253
15.1507
0.00363254
15.1406
0.00478998
15.1297
0.00574057
15.1181
0.00644986
15.106
0.00689569
15.0935
0.00707374
15.0809
0.00699541
15.0683
0.00669141
15.0559
0.00621304
15.0436
0.00562839
15.0316
0.00501458
15.0199
0.00444823
15.0083
0.00399634
14.9969
0.00370919
14.9854
0.00361698
14.9738
0.00372946
14.9619
0.00403705
14.9497
0.00451344
14.9371
0.00511908
14.9239
0.00580582
14.9102
0.00652219
14.896
0.00721831
14.8814
0.00784997
14.8663
0.00838158
14.8508
0.00878777
14.8351
0.00905443
14.8193
0.00917844
14.8033
0.00916703
14.7873
0.00903659
14.7713
0.00881118
14.7553
0.00852138
14.7394
0.00820197
14.7236
0.00789083
14.7077
0.00762609
14.6917
0.00744453
14.6755
0.00737803
14.6589
0.00745648
14.6419
0.00770791
14.6242
0.00816056
14.6057
0.00884331
14.5861
0.00978844
14.5652
0.0110343
14.5426
0.0126224
14.5181
0.0145962
14.4913
0.0169632
14.4619
0.0195829
14.4302
0.0216982
14.3983
0.0202234
14.3776
0.00226942
14.3819
-0.0328236
14.4037
-0.0527293
14.4251
-0.0459308
14.4327
-0.0226803
14.4237
0.000403748
14.4057
0.0112227
14.3806
0.019486
14.3495
0.0263339
14.3126
0.0333583
14.2696
0.0410958
14.2199
0.049617
14.1634
0.0588097
14.0998
0.0684463
14.029
0.0782645
13.9512
0.0880081
13.8667
0.0975254
13.7755
0.10685
13.6779
0.11625
13.5736
0.126239
13.462
0.137475
13.3421
0.15063
13.2126
0.166227
13.0719
0.184477
12.9185
0.205218
12.7519
0.227651
12.5724
0.250841
12.3816
0.273062
12.1817
0.292577
11.9759
0.307255
11.7684
0.315196
11.5642
0.315221
11.3676
0.306455
11.1825
0.289364
11.0125
0.26533
10.8598
0.236508
10.7255
0.205227
10.6091
0.173689
10.5098
0.143776
10.4256
0.116714
10.3547
0.0931202
10.2948
0.0731911
10.244
0.0567859
10.2006
0.0435618
10.1629
0.0330856
10.1298
0.0249057
10.1
0.018597
10.0729
0.0137829
10.0477
0.0101436
10.0239
0.00741552
10.0011
0.00538635
9.97903
0.003888
9.9574
0.00278925
9.93607
0.00198891
9.9149
0.00140974
9.89379
0.000993288
9.87267
0.000695738
9.8515
0.000484475
9.83024
0.000335413
9.80886
0.000230893
9.78734
0.000158062
9.76568
0.000107626
9.74387
7.29174e-05
9.72191
4.91797e-05
9.69979
3.30483e-05
9.67753
2.21526e-05
9.65511
1.48415e-05
9.63256
9.96424e-06
9.60987
6.73231e-06
9.58704
4.60355e-06
9.5641
3.21025e-06
9.54103
2.30396e-06
9.51786
1.71783e-06
9.49457
1.33973e-06
9.47119
1.09808e-06
9.44771
9.43089e-07
9.42413
8.44648e-07
9.40047
7.80717e-07
9.37672
7.39824e-07
9.35288
7.11262e-07
9.32895
6.91679e-07
9.30493
6.75879e-07
9.28082
6.64399e-07
9.25662
6.53403e-07
9.23232
6.47119e-07
9.20792
6.35672e-07
9.18341
6.29065e-07
9.1588
6.14894e-07
9.13407
6.07592e-07
9.10923
5.92406e-07
9.08427
5.86728e-07
9.05919
5.69764e-07
9.03399
5.65739e-07
9.00866
5.44489e-07
8.98321
5.38947e-07
8.95764
5.17285e-07
8.93193
5.06031e-07
8.90611
4.87533e-07
8.88016
4.74769e-07
8.85408
4.52046e-07
8.82789
4.45788e-07
8.80157
4.13509e-07
8.77513
4.18133e-07
8.74857
3.78452e-07
8.72188
3.90393e-07
8.69507
3.46602e-07
8.66813
3.63933e-07
8.64107
3.12591e-07
8.61387
3.43881e-07
8.58654
2.70202e-07
8.55908
3.45299e-07
8.53147
2.06119e-07
8.50374
3.94608e-07
8.47586
8.45416e-08
8.44785
5.31092e-07
8.41971
-1.30441e-07
8.39144
7.67935e-07
8.36304
-4.19838e-07
8.33451
1.00046e-06
8.30587
-6.62698e-07
8.2771
1.03468e-06
8.24822
-1.24915e-06
8.21923
-1.38508e-06
8.19014
-1.37592e-05
8.16098
-6.2607e-05
8.13189
-0.000323653
8.10354
-0.0016044
8.07931
-0.00803875
8.07567
-0.0405234
8.15978
-0.225434
-0.869846
8.59176
124.767
0.0537003
124.996
-0.00200973
125.135
0.0717786
124.764
0.0798185
124.4
0.0345939
124.25
0.00479634
124.226
-0.00101929
124.201
0.00244225
124.128
0.00337587
124.038
0.00227343
123.962
0.00131334
123.894
0.00126476
123.824
0.00131616
123.751
0.00118686
123.676
0.000885125
123.596
0.000629258
123.513
0.000240043
123.43
-0.000582945
123.347
-0.00131468
123.264
-0.00193033
123.182
-0.00230031
123.099
-0.00256374
123.016
-0.00275466
122.933
-0.00290177
122.849
-0.0030222
122.765
-0.00312876
122.679
-0.00323613
122.592
-0.00336031
122.503
-0.00351585
122.413
-0.00371264
122.321
-0.00395393
122.228
-0.00423558
122.132
-0.00454719
122.035
-0.00487378
121.937
-0.00519826
121.837
-0.00550375
121.737
-0.00577538
121.635
-0.0060015
121.533
-0.00617437
121.431
-0.00629024
121.328
-0.0063492
121.225
-0.00635458
121.122
-0.00631192
121.018
-0.00622803
120.914
-0.00610993
120.809
-0.00596448
120.704
-0.00579727
120.598
-0.00561302
120.492
-0.00541508
120.384
-0.00520558
120.275
-0.00498567
120.164
-0.00475537
120.052
-0.00451401
119.938
-0.00426148
119.822
-0.00400875
119.705
-0.00376308
119.585
-0.00355592
119.464
-0.00336536
119.342
-0.00318664
119.218
-0.0030064
119.093
-0.00281434
118.966
-0.00259797
118.839
-0.00233436
118.71
-0.00202446
118.582
-0.00163289
118.453
-0.00118556
118.324
-0.000642521
118.194
-0.000112017
118.061
4.35127e-05
117.91
-0.00138429
117.728
-0.00707652
117.532
-0.0149602
117.35
-0.0219966
117.198
-0.0266687
117.07
-0.0300674
116.953
-0.0342353
116.848
-0.0402505
116.754
-0.0487836
116.676
-0.060187
116.618
-0.0747346
116.584
-0.0927032
116.578
-0.114265
116.605
-0.139369
116.668
-0.167638
116.769
-0.198185
116.91
-0.229588
117.089
-0.259928
117.302
-0.286953
117.546
-0.308346
117.814
-0.322526
118.101
-0.328717
118.4
-0.327241
118.709
-0.319324
119.024
-0.306584
119.346
-0.290658
119.671
-0.272383
119.997
-0.252306
120.32
-0.230853
120.634
-0.208238
120.932
-0.184677
121.204
-0.161143
121.444
-0.13827
121.643
-0.11669
121.798
-0.0970858
121.905
-0.0798603
121.965
-0.0651157
121.979
-0.0527155
121.952
-0.0424167
121.888
-0.033935
121.791
-0.0269928
121.668
-0.0213381
121.521
-0.0167554
121.356
-0.0130631
121.176
-0.0101082
120.983
-0.00776108
120.781