/*--------------------------------*- C++ -*----------------------------------*\
| =========                 |                                                 |
| \\      /  F ield         | OpenFOAM: The Open Source CFD Toolbox           |
|  \\    /   O peration     | Version:  3.0.x                                 |
|   \\  /    A nd           | Web:      www.OpenFOAM.org                      |
|    \\/     M anipulation  |                                                 |
\*---------------------------------------------------------------------------*/
FoamFile
{
    version     2.0;
    format      ascii;
    class       volScalarField;
    location    "0.42";
    object      rho;
}
// * * * * * * * * * * * * * * * * * * * * * * * * * * * * * * * * * * * * * //

dimensions      [1 -3 0 0 0 0 0];

internalField   nonuniform List<scalar> 
6900
(
50.9192
50.9192
50.9192
50.9192
50.9192
50.9191
50.9191
50.9191
50.919
50.919
50.9189
50.9189
50.9188
50.9188
50.9188
50.9188
50.9188
50.9188
50.9188
50.9188
50.9188
50.9189
50.9189
50.919
50.919
50.9191
50.9192
50.9193
50.9194
50.9197
50.9199
50.9201
50.9203
50.9204
50.9204
50.9205
50.9205
50.9205
50.9206
50.9207
50.9208
50.9209
50.9211
50.9212
50.9215
50.9217
50.9219
50.922
50.9221
50.9222
50.9222
50.9223
50.9224
50.9225
50.9227
50.9229
50.9231
50.9233
50.9236
50.9238
50.924
50.9241
50.9243
50.9244
50.9245
50.9246
50.9246
50.9247
50.9247
50.9247
50.9247
50.9247
50.9247
50.9247
50.9246
50.9246
50.9245
50.9245
50.9244
50.9243
50.9243
50.9243
50.9242
50.9242
50.9242
50.9242
50.9242
50.9242
50.9243
50.9244
50.9244
50.9245
50.9246
50.9248
50.9249
50.925
50.9251
50.9252
50.9253
50.9254
50.9255
50.9256
50.9257
50.9257
50.9257
50.9257
50.9257
50.9256
50.9256
50.9255
50.9254
50.9253
50.9253
50.9252
50.9251
50.925
50.9249
50.9248
50.9248
50.9248
50.9248
50.9248
50.9248
50.9249
50.925
50.9251
50.9253
50.9254
50.9256
50.9258
50.9261
50.9263
50.9265
50.9267
50.9269
50.9271
50.9273
50.9274
50.9275
50.9276
50.9277
50.9277
50.9278
50.9278
50.9278
50.9278
50.9277
50.9277
50.9277
50.9277
50.9277
50.9277
50.9277
50.9278
50.9279
50.928
50.9282
50.9284
50.9287
50.929
50.9294
50.9299
50.9304
50.931
50.9316
50.9322
50.9329
50.9336
50.9343
50.935
50.9357
50.9364
50.9371
50.9377
50.9384
50.939
50.9396
50.9402
50.9408
50.9414
50.942
50.9426
50.9432
50.9439
50.9446
50.9453
50.946
50.9468
50.9476
50.9485
50.9495
50.9505
50.9516
50.9528
50.9542
50.9556
50.9571
50.9587
50.9609
50.9598
50.9194
50.9194
50.9194
50.9194
50.9194
50.9193
50.9193
50.9192
50.9192
50.9192
50.9191
50.9191
50.919
50.919
50.919
50.919
50.919
50.919
50.919
50.919
50.919
50.9191
50.9191
50.9192
50.9192
50.9193
50.9193
50.9194
50.9196
50.9198
50.9201
50.9203
50.9204
50.9205
50.9206
50.9206
50.9207
50.9207
50.9207
50.9208
50.9209
50.9211
50.9212
50.9214
50.9216
50.9218
50.922
50.9222
50.9223
50.9224
50.9224
50.9224
50.9225
50.9226
50.9228
50.923
50.9232
50.9235
50.9237
50.9239
50.9241
50.9243
50.9244
50.9245
50.9246
50.9247
50.9248
50.9248
50.9248
50.9249
50.9249
50.9248
50.9248
50.9248
50.9248
50.9247
50.9246
50.9246
50.9245
50.9245
50.9244
50.9244
50.9244
50.9243
50.9243
50.9243
50.9243
50.9244
50.9244
50.9245
50.9246
50.9247
50.9248
50.9249
50.925
50.9251
50.9253
50.9254
50.9255
50.9256
50.9257
50.9257
50.9258
50.9258
50.9258
50.9258
50.9258
50.9258
50.9257
50.9256
50.9256
50.9255
50.9254
50.9253
50.9252
50.9251
50.925
50.925
50.9249
50.9249
50.9249
50.9249
50.925
50.925
50.9251
50.9253
50.9254
50.9256
50.9258
50.926
50.9262
50.9264
50.9266
50.9268
50.927
50.9272
50.9274
50.9275
50.9277
50.9278
50.9278
50.9279
50.9279
50.9279
50.9279
50.9279
50.9279
50.9278
50.9278
50.9278
50.9278
50.9278
50.9278
50.9279
50.928
50.9281
50.9283
50.9285
50.9288
50.9292
50.9296
50.93
50.9305
50.9311
50.9317
50.9323
50.933
50.9337
50.9344
50.9351
50.9358
50.9365
50.9372
50.9378
50.9385
50.9391
50.9397
50.9403
50.9409
50.9415
50.9421
50.9427
50.9434
50.944
50.9447
50.9454
50.9462
50.9469
50.9478
50.9487
50.9496
50.9506
50.9518
50.953
50.9543
50.9557
50.9573
50.9588
50.961
50.9602
50.9194
50.9194
50.9194
50.9194
50.9194
50.9193
50.9193
50.9192
50.9192
50.9191
50.9191
50.9191
50.919
50.919
50.919
50.919
50.919
50.919
50.919
50.919
50.919
50.9191
50.9191
50.9191
50.9192
50.9193
50.9193
50.9194
50.9196
50.9198
50.9201
50.9203
50.9204
50.9205
50.9206
50.9206
50.9207
50.9207
50.9207
50.9208
50.9209
50.921
50.9212
50.9214
50.9216
50.9218
50.922
50.9222
50.9223
50.9224
50.9224
50.9224
50.9225
50.9226
50.9228
50.923
50.9232
50.9235
50.9237
50.9239
50.9241
50.9243
50.9244
50.9245
50.9246
50.9247
50.9248
50.9248
50.9248
50.9249
50.9249
50.9248
50.9248
50.9248
50.9248
50.9247
50.9246
50.9246
50.9245
50.9245
50.9244
50.9244
50.9244
50.9243
50.9243
50.9243
50.9243
50.9244
50.9244
50.9245
50.9246
50.9247
50.9248
50.9249
50.925
50.9251
50.9253
50.9254
50.9255
50.9256
50.9257
50.9257
50.9258
50.9258
50.9258
50.9258
50.9258
50.9258
50.9257
50.9256
50.9256
50.9255
50.9254
50.9253
50.9252
50.9251
50.925
50.925
50.9249
50.9249
50.9249
50.9249
50.925
50.925
50.9251
50.9253
50.9254
50.9256
50.9258
50.926
50.9262
50.9264
50.9266
50.9268
50.927
50.9272
50.9274
50.9275
50.9277
50.9278
50.9278
50.9279
50.9279
50.9279
50.9279
50.9279
50.9279
50.9278
50.9278
50.9278
50.9278
50.9278
50.9278
50.9279
50.928
50.9281
50.9283
50.9285
50.9288
50.9292
50.9296
50.93
50.9305
50.9311
50.9317
50.9323
50.933
50.9337
50.9344
50.9351
50.9358
50.9365
50.9372
50.9378
50.9385
50.9391
50.9397
50.9403
50.9409
50.9415
50.9421
50.9427
50.9434
50.944
50.9447
50.9454
50.9461
50.9469
50.9478
50.9487
50.9496
50.9506
50.9518
50.953
50.9543
50.9557
50.9572
50.9588
50.9606
50.9624
50.9194
50.9194
50.9194
50.9194
50.9194
50.9193
50.9193
50.9192
50.9192
50.9192
50.9191
50.9191
50.919
50.919
50.919
50.919
50.919
50.919
50.919
50.919
50.919
50.9191
50.9191
50.9192
50.9192
50.9193
50.9193
50.9194
50.9196
50.9198
50.9201
50.9203
50.9204
50.9205
50.9206
50.9206
50.9207
50.9207
50.9207
50.9208
50.9209
50.9211
50.9212
50.9214
50.9216
50.9218
50.922
50.9222
50.9223
50.9224
50.9224
50.9224
50.9225
50.9226
50.9228
50.923
50.9232
50.9235
50.9237
50.9239
50.9241
50.9243
50.9244
50.9245
50.9246
50.9247
50.9248
50.9248
50.9248
50.9249
50.9249
50.9248
50.9248
50.9248
50.9248
50.9247
50.9246
50.9246
50.9245
50.9245
50.9244
50.9244
50.9244
50.9243
50.9243
50.9243
50.9243
50.9244
50.9244
50.9245
50.9246
50.9247
50.9248
50.9249
50.925
50.9251
50.9253
50.9254
50.9255
50.9256
50.9257
50.9257
50.9258
50.9258
50.9258
50.9258
50.9258
50.9258
50.9257
50.9256
50.9256
50.9255
50.9254
50.9253
50.9252
50.9251
50.925
50.925
50.9249
50.9249
50.9249
50.9249
50.925
50.925
50.9251
50.9253
50.9254
50.9256
50.9258
50.926
50.9262
50.9264
50.9266
50.9268
50.927
50.9272
50.9274
50.9275
50.9277
50.9278
50.9278
50.9279
50.9279
50.9279
50.9279
50.9279
50.9279
50.9278
50.9278
50.9278
50.9278
50.9278
50.9278
50.9279
50.928
50.9281
50.9283
50.9285
50.9288
50.9292
50.9296
50.93
50.9305
50.9311
50.9317
50.9323
50.933
50.9337
50.9344
50.9351
50.9358
50.9365
50.9372
50.9378
50.9385
50.9391
50.9397
50.9403
50.9409
50.9415
50.9421
50.9427
50.9434
50.944
50.9447
50.9454
50.9461
50.9469
50.9478
50.9487
50.9496
50.9507
50.9518
50.953
50.9543
50.9557
50.9572
50.9589
50.9597
50.968
50.9192
50.9192
50.9192
50.9192
50.9192
50.9191
50.9191
50.9191
50.919
50.919
50.9189
50.9189
50.9188
50.9188
50.9188
50.9188
50.9188
50.9188
50.9188
50.9188
50.9188
50.9189
50.9189
50.919
50.919
50.9191
50.9192
50.9193
50.9194
50.9197
50.9199
50.9201
50.9203
50.9204
50.9204
50.9205
50.9205
50.9205
50.9206
50.9207
50.9208
50.9209
50.9211
50.9212
50.9215
50.9217
50.9219
50.922
50.9221
50.9222
50.9222
50.9223
50.9224
50.9225
50.9227
50.9229
50.9231
50.9233
50.9236
50.9238
50.924
50.9241
50.9243
50.9244
50.9245
50.9246
50.9246
50.9247
50.9247
50.9247
50.9247
50.9247
50.9247
50.9247
50.9246
50.9246
50.9245
50.9245
50.9244
50.9243
50.9243
50.9243
50.9242
50.9242
50.9242
50.9242
50.9242
50.9242
50.9243
50.9244
50.9244
50.9245
50.9246
50.9248
50.9249
50.925
50.9251
50.9252
50.9253
50.9254
50.9255
50.9256
50.9257
50.9257
50.9257
50.9257
50.9257
50.9256
50.9256
50.9255
50.9254
50.9253
50.9253
50.9252
50.9251
50.925
50.9249
50.9248
50.9248
50.9248
50.9248
50.9248
50.9248
50.9249
50.925
50.9251
50.9253
50.9254
50.9256
50.9258
50.9261
50.9263
50.9265
50.9267
50.9269
50.9271
50.9273
50.9274
50.9275
50.9276
50.9277
50.9277
50.9278
50.9278
50.9278
50.9278
50.9277
50.9277
50.9277
50.9277
50.9277
50.9277
50.9277
50.9278
50.9279
50.928
50.9282
50.9284
50.9287
50.929
50.9294
50.9299
50.9304
50.931
50.9316
50.9322
50.9329
50.9336
50.9343
50.935
50.9357
50.9364
50.9371
50.9377
50.9384
50.939
50.9396
50.9402
50.9408
50.9414
50.942
50.9426
50.9432
50.9439
50.9446
50.9453
50.946
50.9468
50.9476
50.9485
50.9495
50.9505
50.9516
50.9529
50.9541
50.9556
50.957
50.9588
50.959
50.9737
50.9793
50.9866
50.9877
50.9861
50.9846
50.983
50.9809
50.9788
50.9785
50.9825
50.9837
50.9791
50.968
50.9556
50.9465
50.9385
50.9312
50.9278
50.9356
50.9505
50.9758
50.9797
50.9799
50.9785
50.977
50.9755
50.9734
50.9714
50.9713
50.9758
50.9767
50.9703
50.9579
50.9462
50.9377
50.9302
50.9237
50.9212
50.9297
50.9429
50.9644
50.9647
50.9639
50.9622
50.9597
50.9566
50.9527
50.9481
50.942
50.935
50.9276
50.9205
50.9137
50.906
50.8969
50.8867
50.8758
50.8638
50.8502
50.8366
50.9418
50.9389
50.9401
50.9422
50.9415
50.9382
50.9331
50.9262
50.9207
50.9132
50.9068
50.9001
50.8934
50.8873
50.8818
50.8764
50.8721
50.8685
50.8658
50.864
50.9319
50.92
50.9157
50.9155
50.9137
50.9092
50.9029
50.895
50.8876
50.8791
50.8712
50.8628
50.8551
50.8473
50.8407
50.8343
50.8292
50.8246
50.8213
50.8199
50.895
50.8557
50.8574
50.8644
50.8625
50.8595
50.8604
50.8627
50.8645
50.866
50.8676
50.8694
50.8713
50.873
50.8748
50.8767
50.8786
50.8803
50.8821
50.884
50.8859
50.8878
50.8898
50.8918
50.8939
50.896
50.8981
50.9003
50.9025
50.9048
50.9071
50.9095
50.9119
50.9143
50.9168
50.9194
50.9219
50.9246
50.9273
50.93
50.9329
50.9357
50.9387
50.9417
50.9448
50.9479
50.9511
50.9543
50.9576
50.9609
50.9643
50.9677
50.9711
50.9745
50.978
50.9816
50.9851
50.9887
50.9923
50.9958
50.9994
51.0031
51.0067
51.0104
51.014
51.0178
51.0217
51.0255
51.0293
51.0331
51.0373
51.0413
51.045
51.0485
51.0523
51.0564
51.0606
51.0648
51.069
51.0733
51.0776
51.082
51.0865
51.0909
51.0955
51.1003
51.1053
51.1103
51.1152
51.12
51.1247
51.1295
51.1348
51.1404
51.1458
51.1499
51.151
51.1519
51.1548
51.16
51.1667
51.1754
51.1868
51.1964
51.2041
51.2108
51.2172
51.2228
51.2279
51.2331
51.2384
51.2438
51.2494
51.255
51.2606
51.2663
51.2721
51.2779
51.2837
51.2896
51.2955
51.3015
51.3075
51.3135
51.3196
51.3257
51.3318
51.338
51.3443
51.3506
51.3569
51.3634
51.3698
51.3763
51.3829
51.3895
51.3962
51.4029
51.4097
51.4165
51.4234
51.4303
51.4373
51.4443
51.4514
51.4585
51.4656
51.4728
51.4801
51.4873
51.4946
51.502
51.5094
51.5168
51.5242
51.5317
51.5392
51.5468
51.5544
51.562
51.5696
51.5773
51.585
51.5927
51.6004
51.6082
51.616
51.6238
51.6317
51.6395
51.6474
51.6553
51.6632
51.6712
51.6791
51.6871
51.6952
51.7032
51.7113
51.7194
51.7276
51.7358
51.744
51.7523
51.7605
51.769
51.7772
51.7858
51.7941
51.8029
51.8112
51.8201
51.8284
51.8375
51.8458
51.8551
51.8633
51.8727
51.8801
51.8924
50.8905
50.855
50.857
50.8635
50.8614
50.8586
50.8594
50.8616
50.8633
50.8648
50.8664
50.8683
50.8701
50.8718
50.8736
50.8755
50.8774
50.8792
50.881
50.8829
50.8848
50.8867
50.8887
50.8907
50.8928
50.8949
50.8971
50.8993
50.9015
50.9038
50.9061
50.9084
50.9108
50.9133
50.9157
50.9183
50.9209
50.9235
50.9262
50.929
50.9318
50.9347
50.9377
50.9407
50.9438
50.947
50.9501
50.9534
50.9566
50.96
50.9633
50.9667
50.9701
50.9736
50.9771
50.9806
50.9841
50.9877
50.9912
50.9948
50.9983
51.0019
51.0056
51.0093
51.0129
51.0167
51.0204
51.024
51.0277
51.0313
51.0353
51.0394
51.0433
51.0471
51.051
51.0551
51.0593
51.0635
51.0677
51.0719
51.0761
51.0804
51.0848
51.0894
51.0941
51.0988
51.1035
51.1082
51.1128
51.1175
51.1225
51.1279
51.1335
51.1382
51.1408
51.1423
51.1446
51.1485
51.1541
51.1609
51.1696
51.1806
51.19
51.1977
51.2045
51.211
51.2169
51.2221
51.2274
51.2328
51.2382
51.2437
51.2493
51.255
51.2607
51.2664
51.2722
51.278
51.2838
51.2897
51.2956
51.3016
51.3076
51.3136
51.3197
51.3258
51.332
51.3382
51.3444
51.3507
51.3571
51.3635
51.3699
51.3764
51.383
51.3896
51.3963
51.403
51.4098
51.4166
51.4235
51.4304
51.4374
51.4444
51.4515
51.4586
51.4658
51.473
51.4802
51.4875
51.4948
51.5021
51.5095
51.5169
51.5244
51.5318
51.5394
51.5469
51.5545
51.5621
51.5697
51.5774
51.5851
51.5928
51.6006
51.6083
51.6161
51.6239
51.6318
51.6396
51.6475
51.6554
51.6633
51.6713
51.6793
51.6873
51.6953
51.7033
51.7114
51.7195
51.7277
51.7359
51.7441
51.7524
51.7606
51.7691
51.7774
51.786
51.7942
51.803
51.8113
51.8202
51.8285
51.8376
51.8459
51.8552
51.8634
51.8728
51.8804
51.8903
50.811
50.8259
50.836
50.8383
50.8387
50.84
50.8417
50.8436
50.8455
50.8472
50.849
50.8509
50.8527
50.8545
50.8564
50.8583
50.8602
50.8621
50.8641
50.866
50.868
50.87
50.872
50.874
50.876
50.8781
50.8802
50.8824
50.8847
50.887
50.8894
50.8919
50.8944
50.897
50.8996
50.9023
50.905
50.9078
50.9106
50.9134
50.9163
50.9191
50.922
50.925
50.928
50.931
50.9341
50.9373
50.9405
50.9438
50.9472
50.9506
50.954
50.9575
50.9609
50.9644
50.9678
50.9713
50.9748
50.9783
50.9818
50.9853
50.9887
50.9922
50.9956
50.9991
51.0027
51.0063
51.0099
51.0137
51.0178
51.0223
51.0274
51.0341
51.0414
51.0482
51.0548
51.0608
51.0663
51.0714
51.0766
51.0815
51.0863
51.091
51.0956
51.1003
51.1051
51.1099
51.1149
51.1199
51.1251
51.1304
51.1358
51.1413
51.1469
51.1526
51.1583
51.1641
51.1699
51.1756
51.1814
51.1871
51.1927
51.1983
51.2039
51.2094
51.215
51.2206
51.2263
51.2319
51.2376
51.2433
51.249
51.2547
51.2605
51.2663
51.2721
51.2779
51.2838
51.2897
51.2956
51.3016
51.3076
51.3136
51.3197
51.3258
51.3319
51.3382
51.3444
51.3507
51.3571
51.3635
51.3699
51.3764
51.383
51.3896
51.3963
51.403
51.4098
51.4166
51.4235
51.4304
51.4374
51.4444
51.4515
51.4586
51.4658
51.473
51.4802
51.4875
51.4948
51.5021
51.5095
51.5169
51.5244
51.5318
51.5394
51.5469
51.5545
51.5621
51.5697
51.5774
51.5851
51.5928
51.6006
51.6083
51.6161
51.6239
51.6318
51.6396
51.6475
51.6554
51.6633
51.6713
51.6793
51.6873
51.6953
51.7033
51.7114
51.7195
51.7277
51.7359
51.7441
51.7524
51.7607
51.769
51.7775
51.7858
51.7944
51.8028
51.8114
51.8201
51.8287
51.8374
51.8462
51.8548
51.8639
51.8725
51.8814
51.8904
50.8564
50.855
50.8558
50.8562
50.8566
50.858
50.8599
50.8617
50.8634
50.8652
50.8671
50.8689
50.8707
50.8725
50.8744
50.8762
50.878
50.8799
50.8817
50.8836
50.8855
50.8874
50.8893
50.8913
50.8933
50.8954
50.8975
50.8997
50.9019
50.9042
50.9065
50.9089
50.9114
50.9138
50.9164
50.9189
50.9215
50.9242
50.9269
50.9296
50.9324
50.9353
50.9382
50.9412
50.9442
50.9473
50.9505
50.9537
50.9569
50.9602
50.9636
50.967
50.9704
50.9739
50.9774
50.9809
50.9845
50.988
50.9917
50.9953
50.999
51.0027
51.0064
51.0101
51.0139
51.0177
51.0214
51.0252
51.0289
51.0327
51.0364
51.0402
51.0441
51.0481
51.0522
51.0562
51.0603
51.0645
51.0688
51.0729
51.077
51.0812
51.0856
51.0903
51.0947
51.0987
51.1028
51.1074
51.1124
51.1169
51.1207
51.124
51.1273
51.1311
51.1359
51.1417
51.1481
51.1554
51.1647
51.1736
51.1811
51.1878
51.1942
51.2003
51.2056
51.2109
51.2162
51.2215
51.227
51.2324
51.238
51.2436
51.2492
51.2549
51.2606
51.2664
51.2721
51.278
51.2838
51.2897
51.2956
51.3016
51.3076
51.3136
51.3197
51.3258
51.332
51.3382
51.3444
51.3507
51.3571
51.3635
51.3699
51.3764
51.383
51.3896
51.3963
51.403
51.4098
51.4166
51.4235
51.4304
51.4374
51.4444
51.4515
51.4586
51.4658
51.473
51.4802
51.4875
51.4948
51.5021
51.5095
51.5169
51.5244
51.5318
51.5394
51.5469
51.5545
51.5621
51.5697
51.5774
51.5851
51.5928
51.6006
51.6083
51.6161
51.6239
51.6318
51.6396
51.6475
51.6554
51.6633
51.6713
51.6793
51.6873
51.6953
51.7033
51.7114
51.7195
51.7277
51.7359
51.7441
51.7524
51.7607
51.769
51.7775
51.7858
51.7944
51.8028
51.8116
51.8199
51.8289
51.8372
51.8464
51.8547
51.864
51.8723
51.8819
51.8904
50.8411
50.8454
50.8469
50.8477
50.8482
50.8495
50.8514
50.8532
50.855
50.8568
50.8586
50.8604
50.8622
50.864
50.8659
50.8677
50.8695
50.8713
50.8731
50.875
50.8769
50.8788
50.8808
50.8828
50.8848
50.8869
50.8891
50.8913
50.8936
50.8959
50.8982
50.9006
50.9031
50.9055
50.9081
50.9106
50.9132
50.9159
50.9186
50.9213
50.9241
50.927
50.93
50.933
50.9361
50.9392
50.9424
50.9456
50.9489
50.9522
50.9556
50.9591
50.9625
50.9661
50.9696
50.9732
50.9768
50.9804
50.984
50.9877
50.9913
50.995
50.9987
51.0024
51.0061
51.0098
51.0135
51.0172
51.021
51.0249
51.0287
51.0326
51.0365
51.0405
51.0446
51.0487
51.0527
51.0569
51.0612
51.0656
51.0699
51.0741
51.0782
51.0824
51.0868
51.0918
51.0971
51.102
51.1052
51.1058
51.107
51.1103
51.1155
51.122
51.1302
51.141
51.1508
51.1595
51.167
51.1737
51.1802
51.1865
51.1923
51.1981
51.2037
51.2093
51.2149
51.2206
51.2262
51.2318
51.2375
51.2432
51.2489
51.2546
51.2604
51.2661
51.272
51.2778
51.2837
51.2895
51.2955
51.3014
51.3074
51.3135
51.3195
51.3257
51.3318
51.338
51.3443
51.3506
51.3569
51.3634
51.3698
51.3763
51.3829
51.3895
51.3962
51.4029
51.4097
51.4165
51.4234
51.4303
51.4373
51.4443
51.4514
51.4585
51.4656
51.4728
51.4801
51.4873
51.4946
51.502
51.5094
51.5168
51.5242
51.5317
51.5392
51.5468
51.5544
51.562
51.5696
51.5773
51.585
51.5927
51.6004
51.6082
51.616
51.6238
51.6317
51.6395
51.6474
51.6553
51.6632
51.6712
51.6791
51.6871
51.6952
51.7032
51.7113
51.7194
51.7276
51.7357
51.744
51.7522
51.7606
51.7689
51.7774
51.7857
51.7943
51.8026
51.8115
51.8198
51.8288
51.8371
51.8462
51.8545
51.8639
51.8722
51.8818
51.8908
51.8851
51.8814
51.8809
51.882
51.8822
51.8818
51.8804
51.8788
51.8768
51.8749
51.8727
51.8707
51.8683
51.8665
51.8647
51.8633
51.8621
51.8614
51.8611
51.8617
51.8896
51.8906
51.8928
51.8946
51.8952
51.8954
51.8945
51.8935
51.8922
51.8911
51.8894
51.8884
51.8864
51.8854
51.8842
51.8832
51.8826
51.8824
51.8824
51.8829
51.8964
51.8985
51.9001
51.9012
51.9019
51.9022
51.9022
51.9015
51.9003
51.8983
51.8961
51.8942
51.8926
51.8909
51.8883
51.8849
51.8811
51.8771
51.8719
51.8659
51.9007
51.9044
51.9067
51.9083
51.9098
51.9107
51.9113
51.912
51.9142
51.9199
51.9251
51.9255
51.9198
51.9125
51.9093
51.9074
51.9053
51.9051
51.9088
51.9225
51.9021
51.9075
51.91
51.9116
51.913
51.9141
51.9147
51.9154
51.9175
51.9227
51.928
51.9293
51.9248
51.9179
51.9143
51.9119
51.909
51.9078
51.9113
51.9266
51.8751
51.884
51.8926
51.9002
51.9077
51.9157
51.9241
51.9325
51.941
51.9495
51.9582
51.9669
51.9757
51.9845
51.9933
52.0023
52.0114
52.0204
52.0295
52.0386
52.0478
52.057
52.0662
52.0754
52.0846
52.0938
52.103
52.1123
52.1215
52.1308
52.14
52.1492
52.1585
52.1678
52.177
52.1862
52.1955
52.2048
52.2141
52.2233
52.2326
52.2419
52.2512
52.2604
52.2697
52.279
52.2883
52.2976
52.3069
52.3163
52.3256
52.335
52.3444
52.3537
52.3631
52.3725
52.3819
52.3912
52.4006
52.4099
52.4193
52.4286
52.438
52.4473
52.4566
52.4659
52.4753
52.4847
52.494
52.5033
52.5126
52.522
52.5313
52.5407
52.55
52.5593
52.5685
52.5779
52.5874
52.5966
52.6052
52.6137
52.623
52.6333
52.6437
52.653
52.6583
52.6612
52.6667
52.6754
52.6862
52.6984
52.7134
52.7277
52.7401
52.7515
52.7624
52.773
52.782
52.7918
51.8808
51.8884
51.897
51.9048
51.9125
51.9207
51.9294
51.9381
51.9469
51.9556
51.9645
51.9735
51.9825
51.9915
52.0006
52.0098
52.019
52.0281
52.0373
52.0465
52.0558
52.0651
52.0743
52.0836
52.0928
52.1021
52.1113
52.1206
52.1298
52.1391
52.1483
52.1575
52.1668
52.176
52.1852
52.1944
52.2037
52.2129
52.2221
52.2314
52.2406
52.2499
52.2592
52.2685
52.2778
52.2871
52.2964
52.3057
52.315
52.3243
52.3336
52.3429
52.3522
52.3615
52.3709
52.3802
52.3896
52.3989
52.4083
52.4177
52.427
52.4363
52.4457
52.4551
52.4644
52.4737
52.483
52.4924
52.5017
52.511
52.5203
52.5296
52.539
52.5483
52.5575
52.5667
52.5762
52.5856
52.5945
52.6035
52.6129
52.6224
52.6313
52.6398
52.6485
52.6577
52.6669
52.6756
52.6836
52.6906
52.6974
52.7051
52.7144
52.7251
52.7363
52.7486
52.7611
52.7727
52.7835
52.7935
51.8536
51.8699
51.8814
51.889
51.896
51.9038
51.9123
51.9209
51.9295
51.9382
51.9472
51.9562
51.9652
51.9743
51.9835
51.9928
52.0021
52.0114
52.0206
52.03
52.0393
52.0486
52.0579
52.0672
52.0765
52.0857
52.095
52.1042
52.1133
52.1225
52.1317
52.1409
52.1501
52.1593
52.1686
52.1779
52.1872
52.1965
52.2058
52.2151
52.2244
52.2336
52.2429
52.2522
52.2614
52.2707
52.28
52.2893
52.2986
52.3079
52.3172
52.3265
52.3358
52.3451
52.3543
52.3635
52.3727
52.382
52.3913
52.4004
52.4096
52.4187
52.4279
52.437
52.4461
52.455
52.464
52.4733
52.4831
52.4936
52.5047
52.5162
52.5285
52.5405
52.5518
52.563
52.5739
52.5842
52.594
52.6036
52.6131
52.6225
52.6318
52.6411
52.6505
52.6598
52.6693
52.6787
52.6882
52.6977
52.7073
52.7167
52.7265
52.7358
52.7455
52.755
52.7644
52.7738
52.783
52.7922
51.9129
51.8938
51.8977
51.9098
51.9179
51.9231
51.93
51.9393
51.9486
51.9573
51.9657
51.9742
51.9835
51.9931
52.0019
52.0105
52.0194
52.0288
52.0382
52.0473
52.0562
52.0653
52.0745
52.0838
52.093
52.1022
52.1114
52.1205
52.1297
52.1389
52.1481
52.1573
52.1665
52.1757
52.1849
52.1941
52.2033
52.2125
52.2217
52.231
52.2402
52.2494
52.2587
52.2679
52.2772
52.2864
52.2957
52.305
52.3144
52.3237
52.3331
52.3425
52.3518
52.3612
52.3705
52.3799
52.3893
52.3986
52.4079
52.4172
52.4265
52.4358
52.4451
52.4544
52.4637
52.473
52.4822
52.4915
52.5008
52.5101
52.5194
52.5287
52.538
52.5473
52.5565
52.5657
52.5748
52.584
52.5933
52.6027
52.612
52.6212
52.6305
52.6399
52.6492
52.6582
52.6668
52.6758
52.6857
52.6961
52.7061
52.7141
52.7186
52.7228
52.729
52.7378
52.7486
52.7607
52.7751
52.7881
51.915
51.8948
51.8986
51.9115
51.9204
51.9249
51.9314
51.9409
51.9513
51.9597
51.9675
51.976
51.9856
51.9952
52.0038
52.0121
52.0211
52.0304
52.0399
52.0489
52.0577
52.0666
52.0757
52.0849
52.0941
52.1032
52.1124
52.1216
52.1308
52.14
52.1491
52.1583
52.1675
52.1767
52.1859
52.1951
52.2043
52.2135
52.2228
52.232
52.2412
52.2505
52.2597
52.269
52.2782
52.2875
52.2968
52.3061
52.3154
52.3247
52.3341
52.3434
52.3528
52.3621
52.3715
52.3808
52.3902
52.3996
52.4089
52.4183
52.4276
52.4369
52.4462
52.4555
52.4648
52.4741
52.4834
52.4926
52.5019
52.5112
52.5205
52.5297
52.539
52.5484
52.5577
52.567
52.5763
52.5855
52.5948
52.604
52.6134
52.6228
52.6322
52.6415
52.6509
52.6605
52.67
52.6789
52.6874
52.6964
52.7063
52.7166
52.7264
52.7335
52.736
52.7399
52.7473
52.7577
52.7694
52.7844
52.7932
52.7927
52.794
52.7958
52.7973
52.7985
52.7995
52.8003
52.8012
52.8019
52.8025
52.8032
52.8039
52.8047
52.8056
52.8065
52.8072
52.8083
52.8092
52.8105
52.7969
52.7982
52.8001
52.8018
52.8033
52.8044
52.8053
52.8062
52.807
52.8078
52.8085
52.8093
52.8101
52.811
52.812
52.813
52.8138
52.8153
52.816
52.8172
52.798
52.8003
52.8022
52.804
52.8055
52.8069
52.8081
52.8091
52.8099
52.8106
52.8112
52.812
52.8126
52.8126
52.8124
52.8124
52.8121
52.8109
52.8093
52.8088
52.7963
52.7997
52.8025
52.805
52.8075
52.8098
52.8123
52.8147
52.8175
52.8197
52.8196
52.8186
52.8194
52.8206
52.821
52.821
52.8224
52.8255
52.8316
52.8368
52.7951
52.7999
52.8031
52.8058
52.8087
52.8115
52.8141
52.8167
52.8199
52.8223
52.8225
52.8217
52.822
52.8224
52.8218
52.8216
52.8229
52.8261
52.8325
52.8397
52.8178
52.8278
52.8362
52.8437
52.8513
52.8591
52.8671
52.8749
52.8827
52.8906
52.8985
52.9064
52.9141
52.922
52.9301
52.9382
52.9463
52.9543
52.9623
52.9705
52.9787
52.9871
52.9955
53.0038
53.0121
53.0204
53.0287
53.037
53.0452
53.0533
53.0614
53.0695
53.0775
53.0855
53.0934
53.1013
53.1092
53.117
53.1248
53.1326
53.1403
53.1479
53.1555
53.1631
53.1706
53.1781
53.1855
53.1928
53.2001
53.2074
53.2146
53.2218
53.2289
53.2359
53.2428
53.2499
53.2569
53.2638
53.2706
53.2774
53.2843
53.2911
53.2978
53.3045
53.3112
53.3179
53.3246
53.3312
53.3376
53.3441
53.3508
53.3577
53.3642
53.3697
53.3751
53.3817
53.3892
53.3966
53.4022
53.4015
53.4005
53.4047
53.4122
53.4217
53.4349
53.4467
53.4565
53.4651
53.4731
53.4806
53.4873
53.4932
53.4991
53.5048
53.5104
53.516
53.5215
53.5269
53.5322
53.5375
53.5428
53.548
53.5532
53.5583
53.5634
53.5684
53.5734
53.5784
53.5832
53.5881
53.5929
53.5977
53.6024
53.6071
53.6117
53.6163
53.6209
53.6254
53.6298
53.6343
53.6387
53.643
53.6473
53.6516
53.6559
53.6601
53.6642
53.6683
53.6724
53.6765
53.6805
53.6845
53.6884
53.6923
53.6962
53.7
53.7038
53.7075
53.7113
53.7149
53.7185
53.7221
53.7257
53.7292
53.7326
53.736
53.7394
53.7427
53.746
53.7493
53.7525
53.7556
53.7588
53.7618
53.7649
53.7679
53.7709
53.7738
53.7767
53.7795
53.7823
53.7851
53.7878
53.7905
53.7932
53.7958
53.7983
53.8009
53.8033
53.8058
53.8082
53.8105
53.8129
53.8151
53.8173
53.8195
53.8216
53.8237
53.8258
53.8277
53.8297
53.8314
53.8335
53.835
53.837
53.8385
53.8404
53.8417
53.8436
53.8448
53.8466
53.8477
53.8494
53.8506
53.8519
53.8533
53.8541
53.8556
53.8566
53.8576
52.8198
52.8287
52.8367
52.8444
52.8525
52.8608
52.8688
52.8768
52.8851
52.8935
52.9018
52.91
52.9182
52.9265
52.935
52.9435
52.9519
52.9603
52.9687
52.977
52.9855
52.994
53.0025
53.0109
53.0193
53.0277
53.0361
53.0444
53.0527
53.061
53.0692
53.0774
53.0855
53.0935
53.1015
53.1094
53.1173
53.1251
53.1329
53.1406
53.1483
53.1559
53.1635
53.171
53.1785
53.1859
53.1933
53.2007
53.208
53.2153
53.2226
53.2297
53.2368
53.2438
53.2507
53.2578
53.2648
53.2717
53.2785
53.2853
53.2922
53.299
53.3057
53.3124
53.3189
53.3257
53.3325
53.3389
53.3452
53.3519
53.3586
53.3648
53.3708
53.3773
53.3841
53.3902
53.3957
53.4014
53.4076
53.4137
53.4192
53.4235
53.4268
53.4304
53.4364
53.4438
53.4519
53.4617
53.4717
53.4806
53.4886
53.4955
53.5013
53.5063
53.5116
53.5168
53.5221
53.5274
53.5326
53.5378
53.5431
53.5482
53.5534
53.5585
53.5635
53.5686
53.5735
53.5785
53.5834
53.5882
53.593
53.5978
53.6025
53.6072
53.6118
53.6164
53.621
53.6255
53.6299
53.6344
53.6388
53.6431
53.6474
53.6517
53.656
53.6602
53.6643
53.6684
53.6725
53.6766
53.6806
53.6846
53.6885
53.6924
53.6963
53.7001
53.7039
53.7077
53.7114
53.715
53.7186
53.7222
53.7258
53.7293
53.7327
53.7361
53.7395
53.7428
53.7461
53.7494
53.7526
53.7557
53.7589
53.7619
53.765
53.768
53.771
53.7739
53.7768
53.7796
53.7824
53.7852
53.7879
53.7906
53.7933
53.7959
53.7984
53.801
53.8034
53.8059
53.8083
53.8106
53.813
53.8152
53.8174
53.8196
53.8217
53.8238
53.8259
53.8278
53.8298
53.8315
53.8336
53.8351
53.8371
53.8386
53.8405
53.8418
53.8437
53.8449
53.8467
53.8478
53.8495
53.8506
53.8522
53.8531
53.8546
53.8555
53.8568
53.8578
52.8065
52.8177
52.8259
52.8319
52.8383
52.8455
52.853
52.8603
52.8681
52.8765
52.8848
52.893
52.9011
52.9098
52.9187
52.9275
52.9361
52.9446
52.9528
52.9613
52.97
52.9786
52.9871
52.9956
53.004
53.0124
53.0207
53.029
53.0372
53.0453
53.0534
53.0615
53.0694
53.0773
53.0852
53.0931
53.1009
53.1086
53.1163
53.124
53.1317
53.1392
53.1468
53.1543
53.1618
53.1692
53.1766
53.1839
53.1911
53.1983
53.2054
53.2125
53.2193
53.2261
53.233
53.2398
53.2466
53.2531
53.2595
53.2661
53.2728
53.28
53.2881
53.2965
53.3055
53.3153
53.3245
53.3333
53.3418
53.3499
53.3574
53.3643
53.371
53.3775
53.3839
53.3903
53.3967
53.4032
53.4097
53.4163
53.4228
53.4294
53.4359
53.4425
53.449
53.4555
53.4621
53.4686
53.475
53.4814
53.4875
53.4935
53.4993
53.5049
53.5105
53.5161
53.5215
53.5269
53.5323
53.5376
53.5429
53.5481
53.5533
53.5584
53.5635
53.5685
53.5735
53.5785
53.5834
53.5882
53.593
53.5978
53.6025
53.6072
53.6118
53.6164
53.621
53.6255
53.6299
53.6344
53.6388
53.6431
53.6474
53.6517
53.656
53.6602
53.6643
53.6684
53.6725
53.6766
53.6806
53.6846
53.6885
53.6924
53.6963
53.7001
53.7039
53.7077
53.7114
53.715
53.7186
53.7222
53.7258
53.7293
53.7327
53.7361
53.7395
53.7428
53.7461
53.7494
53.7526
53.7557
53.7589
53.7619
53.765
53.768
53.771
53.7739
53.7768
53.7796
53.7824
53.7852
53.7879
53.7906
53.7933
53.7959
53.7984
53.801
53.8034
53.8059
53.8083
53.8106
53.8129
53.8152
53.8174
53.8196
53.8217
53.8238
53.8258
53.8278
53.8298
53.8316
53.8335
53.8352
53.837
53.8387
53.8404
53.842
53.8436
53.845
53.8467
53.8479
53.8494
53.8508
53.852
53.8533
53.8545
53.8555
53.8567
53.8577
52.8296
52.8296
52.8383
52.8489
52.8556
52.8611
52.8697
52.8792
52.8875
52.8942
52.9027
52.912
52.9223
52.9299
52.9366
52.9446
52.9532
52.9626
52.9727
52.9808
52.9879
52.9955
53.004
53.0124
53.0207
53.029
53.0372
53.0454
53.0535
53.0616
53.0696
53.0776
53.0855
53.0934
53.1013
53.1092
53.117
53.1248
53.1326
53.1403
53.148
53.1556
53.1631
53.1707
53.1781
53.1855
53.1929
53.2002
53.2074
53.2147
53.222
53.2292
53.2368
53.244
53.2503
53.257
53.264
53.2711
53.2781
53.2847
53.2914
53.2981
53.3048
53.3115
53.3181
53.3247
53.3313
53.3379
53.3443
53.3506
53.357
53.3635
53.3701
53.3765
53.383
53.3895
53.3961
53.4024
53.408
53.4135
53.4199
53.4271
53.4344
53.4409
53.444
53.4436
53.4452
53.4504
53.4578
53.4673
53.4798
53.4906
53.4993
53.5066
53.5127
53.5176
53.5225
53.5276
53.5328
53.538
53.5431
53.5483
53.5534
53.5585
53.5635
53.5686
53.5735
53.5785
53.5834
53.5882
53.593
53.5978
53.6025
53.6072
53.6118
53.6164
53.621
53.6255
53.6299
53.6344
53.6388
53.6431
53.6474
53.6517
53.656
53.6602
53.6643
53.6684
53.6725
53.6766
53.6806
53.6846
53.6885
53.6924
53.6963
53.7001
53.7039
53.7077
53.7114
53.715
53.7186
53.7222
53.7258
53.7293
53.7327
53.7361
53.7395
53.7428
53.7461
53.7494
53.7526
53.7557
53.7589
53.762
53.765
53.768
53.771
53.7739
53.7768
53.7796
53.7824
53.7852
53.7879
53.7906
53.7933
53.7959
53.7984
53.801
53.8034
53.8059
53.8083
53.8106
53.8129
53.8152
53.8174
53.8196
53.8217
53.8238
53.8258
53.8279
53.8297
53.8317
53.8334
53.8354
53.8369
53.8388
53.8402
53.8421
53.8434
53.8452
53.8464
53.8482
53.8492
53.8509
53.8519
53.8534
53.8544
53.8556
53.857
53.8575
52.8321
52.8299
52.8398
52.8525
52.858
52.8627
52.8718
52.8838
52.8916
52.897
52.905
52.9159
52.9268
52.9334
52.9391
52.947
52.9558
52.9657
52.9761
52.9837
52.9899
52.9972
53.0054
53.0137
53.0219
53.0301
53.0383
53.0465
53.0546
53.0627
53.0707
53.0787
53.0866
53.0945
53.1024
53.1102
53.118
53.1258
53.1336
53.1413
53.1489
53.1565
53.1641
53.1716
53.1791
53.1865
53.1939
53.2012
53.2085
53.2157
53.223
53.2304
53.2385
53.2457
53.2516
53.2582
53.2653
53.2724
53.2795
53.286
53.2925
53.2992
53.3059
53.3126
53.3192
53.3258
53.3323
53.3389
53.3455
53.352
53.3585
53.3648
53.3712
53.3778
53.3843
53.3908
53.3973
53.4041
53.411
53.4173
53.4228
53.4281
53.4345
53.4417
53.4489
53.4548
53.4554
53.4535
53.4567
53.4636
53.4729
53.4863
53.4975