/*--------------------------------*- C++ -*----------------------------------*\
| =========                 |                                                 |
| \\      /  F ield         | OpenFOAM: The Open Source CFD Toolbox           |
|  \\    /   O peration     | Version:  3.0.x                                 |
|   \\  /    A nd           | Web:      www.OpenFOAM.org                      |
|    \\/     M anipulation  |                                                 |
\*---------------------------------------------------------------------------*/
FoamFile
{
    version     2.0;
    format      ascii;
    class       volVectorField;
    location    "0.42";
    object      U;
}
// * * * * * * * * * * * * * * * * * * * * * * * * * * * * * * * * * * * * * //

dimensions      [0 1 -1 0 0 0 0];

internalField   nonuniform List<vector> 
6900
(
(42.6982 0.000101119 0)
(42.696 9.25746e-05 0)
(42.6937 8.991e-05 0)
(42.6914 9.08417e-05 0)
(42.6891 9.15649e-05 0)
(42.6868 9.19685e-05 0)
(42.6845 9.22746e-05 0)
(42.682 9.25177e-05 0)
(42.6795 9.27033e-05 0)
(42.6769 9.2845e-05 0)
(42.6742 9.2954e-05 0)
(42.6714 9.30383e-05 0)
(42.6685 9.31035e-05 0)
(42.6655 9.31543e-05 0)
(42.6625 9.31937e-05 0)
(42.6593 9.32246e-05 0)
(42.656 9.32487e-05 0)
(42.6527 9.32609e-05 0)
(42.6493 9.32988e-05 0)
(42.6459 9.32902e-05 0)
(42.6425 9.33133e-05 0)
(42.639 9.33256e-05 0)
(42.6356 9.3339e-05 0)
(42.6322 9.33534e-05 0)
(42.6288 9.33708e-05 0)
(42.6256 9.33863e-05 0)
(42.6224 9.34069e-05 0)
(42.6194 9.34328e-05 0)
(42.6165 9.34792e-05 0)
(42.6138 9.34837e-05 0)
(42.6112 9.35183e-05 0)
(42.6087 9.35498e-05 0)
(42.6064 9.35822e-05 0)
(42.6043 9.36157e-05 0)
(42.6023 9.36502e-05 0)
(42.6005 9.36854e-05 0)
(42.5987 9.37217e-05 0)
(42.5971 9.37668e-05 0)
(42.5955 9.37966e-05 0)
(42.594 9.38318e-05 0)
(42.5925 9.38749e-05 0)
(42.591 9.39151e-05 0)
(42.5895 9.3954e-05 0)
(42.588 9.39903e-05 0)
(42.5863 9.40221e-05 0)
(42.5846 9.4047e-05 0)
(42.5827 9.40594e-05 0)
(42.5807 9.40539e-05 0)
(42.5786 9.40257e-05 0)
(42.5762 9.3963e-05 0)
(42.5737 9.38544e-05 0)
(42.5711 9.36869e-05 0)
(42.5683 9.34413e-05 0)
(42.5653 9.30982e-05 0)
(42.5622 9.26346e-05 0)
(42.559 9.20241e-05 0)
(42.5557 9.12386e-05 0)
(42.5523 9.0249e-05 0)
(42.5489 8.90259e-05 0)
(42.5456 8.75419e-05 0)
(42.5423 8.57724e-05 0)
(42.5391 8.36978e-05 0)
(42.536 8.13049e-05 0)
(42.5332 7.85883e-05 0)
(42.5305 7.55518e-05 0)
(42.5281 7.22075e-05 0)
(42.5259 6.85832e-05 0)
(42.524 6.47003e-05 0)
(42.5224 6.0624e-05 0)
(42.5212 5.63847e-05 0)
(42.5202 5.20053e-05 0)
(42.5195 4.76244e-05 0)
(42.519 4.32376e-05 0)
(42.5188 3.89198e-05 0)
(42.5188 3.47265e-05 0)
(42.519 3.07012e-05 0)
(42.5194 2.68937e-05 0)
(42.5199 2.33314e-05 0)
(42.5204 2.00412e-05 0)
(42.5209 1.70387e-05 0)
(42.5214 1.43316e-05 0)
(42.5218 1.19198e-05 0)
(42.5221 9.79609e-06 0)
(42.5223 7.94722e-06 0)
(42.5222 6.35743e-06 0)
(42.522 5.00209e-06 0)
(42.5215 3.86491e-06 0)
(42.5209 2.91634e-06 0)
(42.5199 2.13638e-06 0)
(42.5188 1.50079e-06 0)
(42.5174 9.8862e-07 0)
(42.5159 5.80075e-07 0)
(42.5141 2.56625e-07 0)
(42.5123 1.20009e-08 0)
(42.5104 -1.87951e-07 0)
(42.5084 -3.36947e-07 0)
(42.5065 -4.49641e-07 0)
(42.5046 -5.34169e-07 0)
(42.5028 -5.97403e-07 0)
(42.5011 -6.4444e-07 0)
(42.4997 -6.79443e-07 0)
(42.4985 -7.05297e-07 0)
(42.4975 -7.24718e-07 0)
(42.4968 -7.39183e-07 0)
(42.4964 -7.50364e-07 0)
(42.4963 -7.5721e-07 0)
(42.4965 -7.6589e-07 0)
(42.4969 -7.70069e-07 0)
(42.4976 -7.74719e-07 0)
(42.4985 -7.7789e-07 0)
(42.4996 -7.8073e-07 0)
(42.5008 -7.82532e-07 0)
(42.5021 -7.83962e-07 0)
(42.5035 -7.84788e-07 0)
(42.5048 -7.85e-07 0)
(42.5061 -7.84585e-07 0)
(42.5072 -7.83626e-07 0)
(42.5082 -7.82118e-07 0)
(42.5089 -7.80136e-07 0)
(42.5094 -7.77676e-07 0)
(42.5095 -7.75827e-07 0)
(42.5093 -7.72342e-07 0)
(42.5088 -7.68368e-07 0)
(42.5078 -7.6522e-07 0)
(42.5065 -7.61317e-07 0)
(42.5049 -7.58153e-07 0)
(42.5028 -7.54835e-07 0)
(42.5005 -7.51677e-07 0)
(42.4978 -7.49205e-07 0)
(42.495 -7.46866e-07 0)
(42.4919 -7.4545e-07 0)
(42.4888 -7.44417e-07 0)
(42.4857 -7.4416e-07 0)
(42.4826 -7.44678e-07 0)
(42.4796 -7.45756e-07 0)
(42.4767 -7.47498e-07 0)
(42.4741 -7.49764e-07 0)
(42.4718 -7.52493e-07 0)
(42.4697 -7.55475e-07 0)
(42.468 -7.5873e-07 0)
(42.4665 -7.61839e-07 0)
(42.4654 -7.65051e-07 0)
(42.4646 -7.67894e-07 0)
(42.464 -7.70676e-07 0)
(42.4636 -7.72074e-07 0)
(42.4634 -7.74502e-07 0)
(42.4633 -7.75726e-07 0)
(42.4633 -7.76548e-07 0)
(42.4632 -7.7669e-07 0)
(42.4631 -7.75619e-07 0)
(42.4628 -7.75225e-07 0)
(42.4624 -7.71297e-07 0)
(42.4616 -7.70196e-07 0)
(42.4605 -7.65779e-07 0)
(42.4589 -7.61126e-07 0)
(42.4568 -7.55793e-07 0)
(42.4541 -7.49885e-07 0)
(42.4508 -7.43194e-07 0)
(42.4468 -7.36247e-07 0)
(42.442 -7.28591e-07 0)
(42.4366 -7.20415e-07 0)
(42.4304 -7.12418e-07 0)
(42.4236 -7.04413e-07 0)
(42.416 -6.96553e-07 0)
(42.4079 -6.89432e-07 0)
(42.3993 -6.82919e-07 0)
(42.3903 -6.77458e-07 0)
(42.381 -6.73159e-07 0)
(42.3714 -6.69984e-07 0)
(42.3618 -6.68372e-07 0)
(42.3522 -6.67802e-07 0)
(42.3428 -6.68305e-07 0)
(42.3334 -6.69745e-07 0)
(42.3244 -6.71727e-07 0)
(42.3155 -6.74078e-07 0)
(42.3068 -6.76126e-07 0)
(42.2983 -6.78132e-07 0)
(42.29 -6.79464e-07 0)
(42.2817 -6.80315e-07 0)
(42.2733 -6.80221e-07 0)
(42.2649 -6.79596e-07 0)
(42.2563 -6.78225e-07 0)
(42.2475 -6.76256e-07 0)
(42.2384 -6.73748e-07 0)
(42.2291 -6.70756e-07 0)
(42.2193 -6.67091e-07 0)
(42.2091 -6.63013e-07 0)
(42.1984 -6.5767e-07 0)
(42.1871 -6.51635e-07 0)
(42.1751 -6.43343e-07 0)
(42.1623 -6.32731e-07 0)
(42.1485 -6.05691e-07 0)
(42.1336 -4.97806e-07 0)
(42.1175 1.56743e-07 0)
(42.1001 4.73584e-06 0)
(42.0806 3.66862e-05 0)
(42.055 0.000259981 0)
(41.994 0.00183342 0)
(41.7916 0.0165519 0)
(39.2329 0.0858155 0)
(42.6999 0.000128275 0)
(42.6996 9.9092e-05 0)
(42.699 8.58763e-05 0)
(42.6985 8.53604e-05 0)
(42.6981 8.53386e-05 0)
(42.6975 8.49281e-05 0)
(42.697 8.46305e-05 0)
(42.6963 8.4445e-05 0)
(42.6956 8.43085e-05 0)
(42.6948 8.42029e-05 0)
(42.6939 8.41213e-05 0)
(42.6929 8.40585e-05 0)
(42.6918 8.401e-05 0)
(42.6906 8.39728e-05 0)
(42.6893 8.39443e-05 0)
(42.6879 8.39229e-05 0)
(42.6864 8.39069e-05 0)
(42.6849 8.38857e-05 0)
(42.6833 8.3914e-05 0)
(42.6817 8.38748e-05 0)
(42.68 8.38912e-05 0)
(42.6783 8.38948e-05 0)
(42.6767 8.39024e-05 0)
(42.6751 8.39137e-05 0)
(42.6735 8.39295e-05 0)
(42.6721 8.39421e-05 0)
(42.6707 8.39626e-05 0)
(42.6695 8.39896e-05 0)
(42.6684 8.40424e-05 0)
(42.6674 8.40465e-05 0)
(42.6666 8.40833e-05 0)
(42.6659 8.41165e-05 0)
(42.6654 8.41507e-05 0)
(42.6651 8.41863e-05 0)
(42.6649 8.4223e-05 0)
(42.6648 8.42601e-05 0)
(42.6649 8.4299e-05 0)
(42.665 8.43489e-05 0)
(42.6653 8.43744e-05 0)
(42.6655 8.44164e-05 0)
(42.6659 8.44635e-05 0)
(42.6662 8.45047e-05 0)
(42.6665 8.45457e-05 0)
(42.6667 8.45849e-05 0)
(42.6669 8.46203e-05 0)
(42.667 8.46502e-05 0)
(42.6669 8.46683e-05 0)
(42.6667 8.46692e-05 0)
(42.6663 8.46515e-05 0)
(42.6658 8.46015e-05 0)
(42.6651 8.45094e-05 0)
(42.6642 8.43637e-05 0)
(42.6632 8.41466e-05 0)
(42.662 8.38407e-05 0)
(42.6607 8.34245e-05 0)
(42.6593 8.28739e-05 0)
(42.6577 8.21635e-05 0)
(42.6561 8.12668e-05 0)
(42.6544 8.01571e-05 0)
(42.6528 7.88094e-05 0)
(42.6512 7.72017e-05 0)
(42.6496 7.53165e-05 0)
(42.6481 7.31422e-05 0)
(42.6468 7.06744e-05 0)
(42.6456 6.79172e-05 0)
(42.6446 6.48816e-05 0)
(42.6438 6.15942e-05 0)
(42.6431 5.80749e-05 0)
(42.6428 5.43855e-05 0)
(42.6426 5.05535e-05 0)
(42.6426 4.65778e-05 0)
(42.6429 4.26314e-05 0)
(42.6433 3.86738e-05 0)
(42.6439 3.47823e-05 0)
(42.6446 3.10081e-05 0)
(42.6455 2.73859e-05 0)
(42.6464 2.39675e-05 0)
(42.6473 2.07718e-05 0)
(42.6482 1.7824e-05 0)
(42.6491 1.51371e-05 0)
(42.6499 1.27178e-05 0)
(42.6506 1.05655e-05 0)
(42.6511 8.67279e-06 0)
(42.6514 7.02725e-06 0)
(42.6515 5.6152e-06 0)
(42.6514 4.41185e-06 0)
(42.651 3.40505e-06 0)
(42.6504 2.56647e-06 0)
(42.6495 1.87805e-06 0)
(42.6484 1.31816e-06 0)
(42.647 8.67911e-07 0)
(42.6455 5.09043e-07 0)
(42.6438 2.27004e-07 0)
(42.6419 1.21681e-08 0)
(42.64 -1.62736e-07 0)
(42.638 -2.93545e-07 0)
(42.6361 -3.9318e-07 0)
(42.6342 -4.68441e-07 0)
(42.6324 -5.2558e-07 0)
(42.6307 -5.68814e-07 0)
(42.6293 -6.01785e-07 0)
(42.628 -6.26836e-07 0)
(42.627 -6.46538e-07 0)
(42.6263 -6.61883e-07 0)
(42.6259 -6.74497e-07 0)
(42.6258 -6.81985e-07 0)
(42.626 -6.93423e-07 0)
(42.6264 -6.99225e-07 0)
(42.627 -7.05529e-07 0)
(42.6279 -7.09978e-07 0)
(42.629 -7.14132e-07 0)
(42.6302 -7.16668e-07 0)
(42.6315 -7.18541e-07 0)
(42.6328 -7.19382e-07 0)
(42.6342 -7.19155e-07 0)
(42.6354 -7.17889e-07 0)
(42.6365 -7.1568e-07 0)
(42.6375 -7.12467e-07 0)
(42.6382 -7.08377e-07 0)
(42.6386 -7.03468e-07 0)
(42.6387 -6.99565e-07 0)
(42.6385 -6.9312e-07 0)
(42.638 -6.8525e-07 0)
(42.637 -6.79276e-07 0)
(42.6357 -6.72126e-07 0)
(42.634 -6.66195e-07 0)
(42.632 -6.6008e-07 0)
(42.6296 -6.54412e-07 0)
(42.6269 -6.50043e-07 0)
(42.6241 -6.46056e-07 0)
(42.621 -6.43779e-07 0)
(42.6179 -6.42287e-07 0)
(42.6147 -6.42263e-07 0)
(42.6116 -6.43601e-07 0)
(42.6086 -6.46051e-07 0)
(42.6057 -6.49664e-07 0)
(42.6031 -6.5428e-07 0)
(42.6007 -6.59664e-07 0)
(42.5987 -6.65505e-07 0)
(42.5969 -6.71776e-07 0)
(42.5955 -6.77792e-07 0)
(42.5943 -6.83924e-07 0)
(42.5935 -6.89349e-07 0)
(42.5929 -6.94589e-07 0)
(42.5925 -6.96819e-07 0)
(42.5923 -7.01522e-07 0)
(42.5922 -7.03747e-07 0)
(42.5921 -7.0482e-07 0)
(42.592 -7.04905e-07 0)
(42.5919 -7.02768e-07 0)
(42.5916 -7.01774e-07 0)
(42.5911 -6.93395e-07 0)
(42.5903 -6.93037e-07 0)
(42.5892 -6.83219e-07 0)
(42.5876 -6.74867e-07 0)
(42.5854 -6.64834e-07 0)
(42.5827 -6.5433e-07 0)
(42.5794 -6.41673e-07 0)
(42.5754 -6.29187e-07 0)
(42.5707 -6.15393e-07 0)
(42.5652 -6.01339e-07 0)
(42.559 -5.87308e-07 0)
(42.5521 -5.73773e-07 0)
(42.5446 -5.60907e-07 0)
(42.5365 -5.49531e-07 0)
(42.5278 -5.39592e-07 0)
(42.5188 -5.31631e-07 0)
(42.5095 -5.2608e-07 0)
(42.4999 -5.2283e-07 0)
(42.4903 -5.22108e-07 0)
(42.4807 -5.23461e-07 0)
(42.4712 -5.26715e-07 0)
(42.4619 -5.31715e-07 0)
(42.4527 -5.37302e-07 0)
(42.4439 -5.43666e-07 0)
(42.4352 -5.49011e-07 0)
(42.4267 -5.54637e-07 0)
(42.4183 -5.58263e-07 0)
(42.41 -5.61436e-07 0)
(42.4017 -5.62337e-07 0)
(42.3932 -5.6241e-07 0)
(42.3846 -5.60793e-07 0)
(42.3758 -5.5817e-07 0)
(42.3667 -5.54337e-07 0)
(42.3573 -5.49896e-07 0)
(42.3475 -5.43572e-07 0)
(42.3373 -5.373e-07 0)
(42.3266 -5.27735e-07 0)
(42.3153 -5.18057e-07 0)
(42.3033 -5.02205e-07 0)
(42.2904 -4.77412e-07 0)
(42.2766 -3.77074e-07 0)
(42.2617 2.23725e-07 0)
(42.2456 4.21479e-06 0)
(42.2282 3.19345e-05 0)
(42.2087 0.000224837 0)
(42.1832 0.00156611 0)
(42.1233 0.0108501 0)
(41.9258 0.0780543 0)
(39.9342 0.370523 0)
(42.6999 1.62468e-12 0)
(42.6995 5.27847e-14 0)
(42.699 -1.22188e-12 0)
(42.6985 -1.7563e-12 0)
(42.698 -9.40898e-13 0)
(42.6975 -2.7205e-12 0)
(42.6969 -5.93203e-12 0)
(42.6963 -8.93694e-12 0)
(42.6956 -8.18657e-12 0)
(42.6947 -7.5134e-12 0)
(42.6938 -7.78845e-12 0)
(42.6928 -9.78279e-12 0)
(42.6917 -1.1562e-11 0)
(42.6905 -1.27726e-11 0)
(42.6892 -1.19458e-11 0)
(42.6878 -1.08023e-11 0)
(42.6864 -1.11248e-11 0)
(42.6848 -1.2043e-11 0)
(42.6833 -1.42694e-11 0)
(42.6816 -1.50986e-11 0)
(42.68 -1.53873e-11 0)
(42.6783 -1.62637e-11 0)
(42.6766 -1.66412e-11 0)
(42.675 -1.88776e-11 0)
(42.6735 -2.04473e-11 0)
(42.672 -2.05956e-11 0)
(42.6707 -2.10364e-11 0)
(42.6694 -2.02514e-11 0)
(42.6683 -1.85301e-11 0)
(42.6674 -1.67738e-11 0)
(42.6666 -1.52196e-11 0)
(42.6659 -1.50484e-11 0)
(42.6654 -1.35196e-11 0)
(42.6651 -1.26546e-11 0)
(42.6649 -9.15226e-12 0)
(42.6648 -6.80176e-12 0)
(42.6649 -5.72576e-12 0)
(42.665 -4.32561e-12 0)
(42.6653 -5.06516e-12 0)
(42.6655 -5.50166e-12 0)
(42.6659 -6.12712e-12 0)
(42.6662 -6.85172e-12 0)
(42.6665 -6.43275e-12 0)
(42.6667 -7.22951e-12 0)
(42.6669 -9.59104e-12 0)
(42.667 -1.26643e-11 0)
(42.6669 -1.41957e-11 0)
(42.6667 -1.59316e-11 0)
(42.6663 -1.85587e-11 0)
(42.6658 -1.95311e-11 0)
(42.6651 -1.97576e-11 0)
(42.6643 -2.0057e-11 0)
(42.6633 -1.97669e-11 0)
(42.6621 -1.85402e-11 0)
(42.6608 -1.5714e-11 0)
(42.6593 -1.27738e-11 0)
(42.6578 -1.0078e-11 0)
(42.6561 -7.44833e-12 0)
(42.6545 -8.08791e-12 0)
(42.6528 -1.08347e-11 0)
(42.6512 -1.44933e-11 0)
(42.6496 -1.72609e-11 0)
(42.6482 -2.07366e-11 0)
(42.6468 -2.22296e-11 0)
(42.6456 -2.28438e-11 0)
(42.6446 -2.10322e-11 0)
(42.6438 -1.99847e-11 0)
(42.6432 -1.88933e-11 0)
(42.6428 -1.76341e-11 0)
(42.6426 -1.671e-11 0)
(42.6427 -1.50957e-11 0)
(42.6429 -1.65311e-11 0)
(42.6434 -1.73599e-11 0)
(42.6439 -1.74425e-11 0)
(42.6447 -1.66071e-11 0)
(42.6455 -1.63249e-11 0)
(42.6464 -1.5344e-11 0)
(42.6474 -1.40595e-11 0)
(42.6483 -1.22841e-11 0)
(42.6492 -1.17912e-11 0)
(42.65 -1.30232e-11 0)
(42.6506 -1.34354e-11 0)
(42.6511 -1.4673e-11 0)
(42.6514 -1.31701e-11 0)
(42.6515 -1.35421e-11 0)
(42.6514 -1.29004e-11 0)
(42.651 -1.29233e-11 0)
(42.6504 -1.26367e-11 0)
(42.6495 -1.34278e-11 0)
(42.6484 -1.31273e-11 0)
(42.6471 -1.24577e-11 0)
(42.6455 -1.36284e-11 0)
(42.6438 -1.39679e-11 0)
(42.642 -1.23874e-11 0)
(42.64 -1.28791e-11 0)
(42.6381 -1.29769e-11 0)
(42.6361 -1.41126e-11 0)
(42.6342 -1.55285e-11 0)
(42.6324 -1.68261e-11 0)
(42.6307 -1.71742e-11 0)
(42.6293 -1.81793e-11 0)
(42.6281 -1.91621e-11 0)
(42.6271 -1.90943e-11 0)
(42.6264 -1.87079e-11 0)
(42.626 -1.77026e-11 0)
(42.6258 -1.55261e-11 0)
(42.626 -1.40951e-11 0)
(42.6264 -1.12781e-11 0)
(42.6271 -8.71894e-12 0)
(42.628 -5.35821e-12 0)
(42.629 -1.3589e-13 0)
(42.6302 4.4761e-12 0)
(42.6315 6.55139e-12 0)
(42.6329 6.6949e-12 0)
(42.6342 6.39586e-12 0)
(42.6354 7.21708e-12 0)
(42.6366 7.06262e-12 0)
(42.6375 5.11456e-12 0)
(42.6382 4.80087e-12 0)
(42.6387 7.18334e-12 0)
(42.6388 2.58393e-11 0)
(42.6386 -2.31453e-11 0)
(42.638 -1.19078e-11 0)
(42.6371 3.58275e-11 0)
(42.6357 -3.92274e-12 0)
(42.634 1.50349e-11 0)
(42.632 -2.59913e-11 0)
(42.6296 3.3319e-11 0)
(42.627 -3.96226e-11 0)
(42.6241 3.63219e-11 0)
(42.6211 -4.63496e-11 0)
(42.6179 3.80228e-11 0)
(42.6148 -6.4881e-11 0)
(42.6116 4.55026e-11 0)
(42.6086 -7.10847e-11 0)
(42.6058 2.75686e-11 0)
(42.6031 -5.28573e-11 0)
(42.6008 1.89039e-11 0)
(42.5987 -3.04062e-11 0)
(42.5969 2.73804e-11 0)
(42.5955 -2.93348e-11 0)
(42.5944 1.84502e-11 0)
(42.5935 -1.01711e-10 0)
(42.5929 -9.9571e-10 0)
(42.5925 1.18288e-09 0)
(42.5923 6.0433e-10 0)
(42.5922 -7.72796e-10 0)
(42.5921 1.44232e-10 0)
(42.5921 -2.83219e-10 0)
(42.5919 3.84426e-10 0)
(42.5916 -1.19757e-09 0)
(42.5911 4.93399e-09 0)
(42.5904 -4.58498e-09 0)
(42.5892 8.51589e-10 0)
(42.5876 -5.41666e-10 0)
(42.5855 9.61924e-10 0)
(42.5828 -1.27736e-09 0)
(42.5794 8.19934e-10 0)
(42.5754 -6.34091e-11 0)
(42.5707 1.95988e-10 0)
(42.5652 -5.28957e-10 0)
(42.559 2.762e-10 0)
(42.5522 2.12091e-10 0)
(42.5446 2.50604e-10 0)
(42.5365 -5.17149e-10 0)
(42.5279 2.18379e-10 0)
(42.5188 1.08501e-10 0)
(42.5095 9.79816e-11 0)
(42.4999 -5.01382e-10 0)
(42.4903 2.08208e-10 0)
(42.4807 3.69736e-11 0)
(42.4712 1.53859e-10 0)
(42.4619 -2.56394e-10 0)
(42.4528 2.23867e-10 0)
(42.4439 -1.51868e-09 0)
(42.4352 1.22863e-09 0)
(42.4267 -5.49856e-10 0)
(42.4184 7.49188e-10 0)
(42.41 -7.49756e-10 0)
(42.4017 9.47988e-10 0)
(42.3932 -7.83e-10 0)
(42.3846 4.16898e-10 0)
(42.3758 -1.06081e-09 0)
(42.3667 4.752e-10 0)
(42.3573 -9.70799e-10 0)
(42.3475 1.21914e-09 0)
(42.3373 -1.7375e-09 0)
(42.3266 9.49664e-10 0)
(42.3153 -3.25403e-09 0)
(42.3033 3.90235e-09 0)
(42.2905 1.92423e-08 0)
(42.2767 1.73922e-07 0)
(42.2618 1.27924e-06 0)
(42.2457 9.10671e-06 0)
(42.2283 6.44062e-05 0)
(42.2097 0.000455093 0)
(42.1894 0.0032133 0)
(42.1661 0.0226053 0)
(42.1264 0.160669 0)
(41.9469 0.734995 0)
(42.6999 -0.000128275 0)
(42.6996 -9.9092e-05 0)
(42.699 -8.58763e-05 0)
(42.6985 -8.53604e-05 0)
(42.6981 -8.53386e-05 0)
(42.6975 -8.49281e-05 0)
(42.697 -8.46305e-05 0)
(42.6963 -8.4445e-05 0)
(42.6956 -8.43085e-05 0)
(42.6948 -8.42029e-05 0)
(42.6939 -8.41213e-05 0)
(42.6929 -8.40585e-05 0)
(42.6918 -8.401e-05 0)
(42.6906 -8.39728e-05 0)
(42.6893 -8.39443e-05 0)
(42.6879 -8.39229e-05 0)
(42.6864 -8.39069e-05 0)
(42.6849 -8.38857e-05 0)
(42.6833 -8.39139e-05 0)
(42.6817 -8.38748e-05 0)
(42.68 -8.38912e-05 0)
(42.6783 -8.38948e-05 0)
(42.6767 -8.39024e-05 0)
(42.6751 -8.39137e-05 0)
(42.6735 -8.39295e-05 0)
(42.6721 -8.39421e-05 0)
(42.6707 -8.39626e-05 0)
(42.6695 -8.39896e-05 0)
(42.6684 -8.40424e-05 0)
(42.6674 -8.40465e-05 0)
(42.6666 -8.40833e-05 0)
(42.6659 -8.41165e-05 0)
(42.6654 -8.41507e-05 0)
(42.6651 -8.41863e-05 0)
(42.6649 -8.4223e-05 0)
(42.6648 -8.42601e-05 0)
(42.6649 -8.4299e-05 0)
(42.665 -8.43489e-05 0)
(42.6653 -8.43744e-05 0)
(42.6655 -8.44164e-05 0)
(42.6659 -8.44635e-05 0)
(42.6662 -8.45047e-05 0)
(42.6665 -8.45457e-05 0)
(42.6667 -8.45849e-05 0)
(42.6669 -8.46203e-05 0)
(42.667 -8.46502e-05 0)
(42.6669 -8.46683e-05 0)
(42.6667 -8.46692e-05 0)
(42.6663 -8.46515e-05 0)
(42.6658 -8.46015e-05 0)
(42.6651 -8.45094e-05 0)
(42.6642 -8.43636e-05 0)
(42.6632 -8.41466e-05 0)
(42.662 -8.38407e-05 0)
(42.6607 -8.34245e-05 0)
(42.6593 -8.28739e-05 0)
(42.6577 -8.21635e-05 0)
(42.6561 -8.12668e-05 0)
(42.6544 -8.01571e-05 0)
(42.6528 -7.88094e-05 0)
(42.6512 -7.72017e-05 0)
(42.6496 -7.53165e-05 0)
(42.6481 -7.31422e-05 0)
(42.6468 -7.06744e-05 0)
(42.6456 -6.79172e-05 0)
(42.6446 -6.48816e-05 0)
(42.6438 -6.15942e-05 0)
(42.6431 -5.80749e-05 0)
(42.6428 -5.43855e-05 0)
(42.6426 -5.05535e-05 0)
(42.6426 -4.65778e-05 0)
(42.6429 -4.26314e-05 0)
(42.6433 -3.86738e-05 0)
(42.6439 -3.47823e-05 0)
(42.6446 -3.10081e-05 0)
(42.6455 -2.73859e-05 0)
(42.6464 -2.39674e-05 0)
(42.6473 -2.07718e-05 0)
(42.6482 -1.7824e-05 0)
(42.6491 -1.51371e-05 0)
(42.6499 -1.27178e-05 0)
(42.6506 -1.05655e-05 0)
(42.6511 -8.67279e-06 0)
(42.6514 -7.02724e-06 0)
(42.6515 -5.61519e-06 0)
(42.6514 -4.41184e-06 0)
(42.651 -3.40505e-06 0)
(42.6504 -2.56647e-06 0)
(42.6495 -1.87804e-06 0)
(42.6484 -1.31815e-06 0)
(42.647 -8.67908e-07 0)
(42.6455 -5.09042e-07 0)
(42.6438 -2.27002e-07 0)
(42.6419 -1.21691e-08 0)
(42.64 1.62736e-07 0)
(42.638 2.93545e-07 0)
(42.6361 3.9318e-07 0)
(42.6342 4.68444e-07 0)
(42.6324 5.25579e-07 0)
(42.6307 5.68816e-07 0)
(42.6293 6.01789e-07 0)
(42.628 6.26838e-07 0)
(42.627 6.46544e-07 0)
(42.6263 6.61887e-07 0)
(42.6259 6.74501e-07 0)
(42.6258 6.81991e-07 0)
(42.626 6.93425e-07 0)
(42.6264 6.99228e-07 0)
(42.627 7.0553e-07 0)
(42.6279 7.09978e-07 0)
(42.629 7.14123e-07 0)
(42.6302 7.1666e-07 0)
(42.6315 7.18536e-07 0)
(42.6328 7.19376e-07 0)
(42.6342 7.19152e-07 0)
(42.6354 7.17885e-07 0)
(42.6365 7.15679e-07 0)
(42.6375 7.12466e-07 0)
(42.6382 7.08376e-07 0)
(42.6386 7.0347e-07 0)
(42.6387 6.99608e-07 0)
(42.6385 6.93074e-07 0)
(42.638 6.85205e-07 0)
(42.637 6.79322e-07 0)
(42.6357 6.72098e-07 0)
(42.634 6.66234e-07 0)
(42.632 6.60027e-07 0)
(42.6296 6.54471e-07 0)
(42.6269 6.49973e-07 0)
(42.6241 6.46123e-07 0)
(42.621 6.43729e-07 0)
(42.6179 6.42358e-07 0)
(42.6147 6.42198e-07 0)
(42.6116 6.43668e-07 0)
(42.6086 6.45993e-07 0)
(42.6057 6.49698e-07 0)
(42.6031 6.54248e-07 0)
(42.6007 6.59698e-07 0)
(42.5987 6.65462e-07 0)
(42.5969 6.71837e-07 0)
(42.5955 6.77742e-07 0)
(42.5943 6.83977e-07 0)
(42.5935 6.89219e-07 0)
(42.5929 6.93182e-07 0)
(42.5925 6.98465e-07 0)
(42.5923 7.02279e-07 0)
(42.5922 7.02791e-07 0)
(42.5921 7.04958e-07 0)
(42.592 7.04493e-07 0)
(42.5919 7.03305e-07 0)
(42.5916 7.00365e-07 0)
(42.5911 6.99596e-07 0)
(42.5903 6.87272e-07 0)
(42.5892 6.84306e-07 0)
(42.5876 6.74042e-07 0)
(42.5854 6.66052e-07 0)
(42.5827 6.52889e-07 0)
(42.5794 6.42631e-07 0)
(42.5754 6.29063e-07 0)
(42.5707 6.15561e-07 0)
(42.5652 6.00725e-07 0)
(42.559 5.87681e-07 0)
(42.5521 5.73903e-07 0)
(42.5446 5.61155e-07 0)
(42.5365 5.48935e-07 0)
(42.5278 5.39849e-07 0)
(42.5188 5.31691e-07 0)
(42.5095 5.26285e-07 0)
(42.4999 5.22316e-07 0)
(42.4903 5.22358e-07 0)
(42.4807 5.23429e-07 0)
(42.4712 5.26883e-07 0)
(42.4619 5.31422e-07 0)
(42.4527 5.37621e-07 0)
(42.4439 5.41869e-07 0)
(42.4352 5.50621e-07 0)
(42.4267 5.53871e-07 0)
(42.4183 5.59281e-07 0)
(42.41 5.60485e-07 0)
(42.4017 5.63576e-07 0)
(42.3932 5.61421e-07 0)
(42.3846 5.61491e-07 0)
(42.3758 5.56995e-07 0)
(42.3667 5.55204e-07 0)
(42.3573 5.48905e-07 0)
(42.3475 5.45416e-07 0)
(42.3373 5.35322e-07 0)
(42.3266 5.29608e-07 0)
(42.3153 5.14941e-07 0)
(42.3033 5.08598e-07 0)
(42.2904 5.0232e-07 0)
(42.2766 5.91684e-07 0)
(42.2617 1.31287e-06 0)
(42.2457 6.62885e-06 0)
(42.2285 4.47258e-05 0)
(42.2109 0.00031695 0)
(42.1987 0.00226714 0)
(42.2338 0.0164183 0)
(42.418 0.136004 0)
(45.532 0.571377 0)
(42.6982 -0.000101119 0)
(42.696 -9.25746e-05 0)
(42.6937 -8.991e-05 0)
(42.6914 -9.08417e-05 0)
(42.6891 -9.15649e-05 0)
(42.6868 -9.19685e-05 0)
(42.6845 -9.22746e-05 0)
(42.682 -9.25177e-05 0)
(42.6795 -9.27033e-05 0)
(42.6769 -9.2845e-05 0)
(42.6742 -9.2954e-05 0)
(42.6714 -9.30383e-05 0)
(42.6685 -9.31035e-05 0)
(42.6655 -9.31543e-05 0)
(42.6625 -9.31937e-05 0)
(42.6593 -9.32246e-05 0)
(42.656 -9.32487e-05 0)
(42.6527 -9.32609e-05 0)
(42.6493 -9.32988e-05 0)
(42.6459 -9.32902e-05 0)
(42.6425 -9.33133e-05 0)
(42.639 -9.33256e-05 0)
(42.6356 -9.3339e-05 0)
(42.6322 -9.33534e-05 0)
(42.6288 -9.33708e-05 0)
(42.6256 -9.33864e-05 0)
(42.6224 -9.34069e-05 0)
(42.6194 -9.34328e-05 0)
(42.6165 -9.34792e-05 0)
(42.6138 -9.34837e-05 0)
(42.6112 -9.35183e-05 0)
(42.6087 -9.35498e-05 0)
(42.6064 -9.35822e-05 0)
(42.6043 -9.36157e-05 0)
(42.6023 -9.36502e-05 0)
(42.6005 -9.36854e-05 0)
(42.5987 -9.37217e-05 0)
(42.5971 -9.37668e-05 0)
(42.5955 -9.37966e-05 0)
(42.594 -9.38318e-05 0)
(42.5925 -9.38749e-05 0)
(42.591 -9.39151e-05 0)
(42.5895 -9.3954e-05 0)
(42.588 -9.39903e-05 0)
(42.5863 -9.40221e-05 0)
(42.5846 -9.4047e-05 0)
(42.5827 -9.40594e-05 0)
(42.5807 -9.40539e-05 0)
(42.5786 -9.40257e-05 0)
(42.5762 -9.3963e-05 0)
(42.5737 -9.38544e-05 0)
(42.5711 -9.36869e-05 0)
(42.5683 -9.34413e-05 0)
(42.5653 -9.30982e-05 0)
(42.5622 -9.26346e-05 0)
(42.559 -9.20241e-05 0)
(42.5557 -9.12386e-05 0)
(42.5523 -9.0249e-05 0)
(42.5489 -8.90259e-05 0)
(42.5456 -8.75419e-05 0)
(42.5423 -8.57724e-05 0)
(42.5391 -8.36978e-05 0)
(42.536 -8.13049e-05 0)
(42.5332 -7.85883e-05 0)
(42.5305 -7.55518e-05 0)
(42.5281 -7.22075e-05 0)
(42.5259 -6.85832e-05 0)
(42.524 -6.47003e-05 0)
(42.5224 -6.0624e-05 0)
(42.5212 -5.63847e-05 0)
(42.5202 -5.20053e-05 0)
(42.5195 -4.76244e-05 0)
(42.519 -4.32377e-05 0)
(42.5188 -3.89198e-05 0)
(42.5188 -3.47265e-05 0)
(42.519 -3.07012e-05 0)
(42.5194 -2.68937e-05 0)
(42.5199 -2.33314e-05 0)
(42.5204 -2.00412e-05 0)
(42.5209 -1.70387e-05 0)
(42.5214 -1.43316e-05 0)
(42.5218 -1.19198e-05 0)
(42.5221 -9.7961e-06 0)
(42.5223 -7.94722e-06 0)
(42.5222 -6.35744e-06 0)
(42.522 -5.00209e-06 0)
(42.5215 -3.86491e-06 0)
(42.5209 -2.91634e-06 0)
(42.5199 -2.13638e-06 0)
(42.5188 -1.50079e-06 0)
(42.5174 -9.88621e-07 0)
(42.5159 -5.80072e-07 0)
(42.5141 -2.56623e-07 0)
(42.5123 -1.19999e-08 0)
(42.5104 1.87951e-07 0)
(42.5084 3.36946e-07 0)
(42.5065 4.49639e-07 0)
(42.5046 5.34171e-07 0)
(42.5028 5.97404e-07 0)
(42.5011 6.44436e-07 0)
(42.4997 6.79438e-07 0)
(42.4985 7.05293e-07 0)
(42.4975 7.24714e-07 0)
(42.4968 7.39184e-07 0)
(42.4964 7.50365e-07 0)
(42.4963 7.57212e-07 0)
(42.4965 7.6589e-07 0)
(42.4969 7.70066e-07 0)
(42.4976 7.74718e-07 0)
(42.4985 7.77907e-07 0)
(42.4996 7.80748e-07 0)
(42.5008 7.82546e-07 0)
(42.5021 7.83964e-07 0)
(42.5035 7.84793e-07 0)
(42.5048 7.85001e-07 0)
(42.5061 7.84589e-07 0)
(42.5072 7.8363e-07 0)
(42.5082 7.82121e-07 0)
(42.5089 7.80136e-07 0)
(42.5094 7.77677e-07 0)
(42.5095 7.75854e-07 0)
(42.5093 7.72334e-07 0)
(42.5088 7.68345e-07 0)
(42.5078 7.6524e-07 0)
(42.5065 7.61294e-07 0)
(42.5049 7.5818e-07 0)
(42.5028 7.54811e-07 0)
(42.5005 7.51707e-07 0)
(42.4978 7.49173e-07 0)
(42.495 7.46888e-07 0)
(42.4919 7.45422e-07 0)
(42.4888 7.44434e-07 0)
(42.4857 7.44143e-07 0)
(42.4826 7.44686e-07 0)
(42.4796 7.4576e-07 0)
(42.4767 7.47488e-07 0)
(42.4741 7.49771e-07 0)
(42.4718 7.52498e-07 0)
(42.4697 7.55458e-07 0)
(42.468 7.58763e-07 0)
(42.4665 7.61811e-07 0)
(42.4654 7.65084e-07 0)
(42.4646 7.67865e-07 0)
(42.464 7.7027e-07 0)
(42.4636 7.72542e-07 0)
(42.4634 7.74654e-07 0)
(42.4633 7.75541e-07 0)
(42.4633 7.76537e-07 0)
(42.4632 7.76562e-07 0)
(42.4631 7.75773e-07 0)
(42.4628 7.75024e-07 0)
(42.4624 7.72575e-07 0)
(42.4616 7.69027e-07 0)
(42.4605 7.66033e-07 0)
(42.4589 7.6086e-07 0)
(42.4568 7.56057e-07 0)
(42.4541 7.49736e-07 0)
(42.4508 7.43336e-07 0)
(42.4468 7.36191e-07 0)
(42.442 7.28566e-07 0)
(42.4366 7.20331e-07 0)
(42.4304 7.12516e-07 0)
(42.4236 7.04338e-07 0)
(42.416 6.96553e-07 0)
(42.4079 6.89366e-07 0)
(42.3993 6.82969e-07 0)
(42.3903 6.77413e-07 0)
(42.381 6.73265e-07 0)
(42.3714 6.69978e-07 0)
(42.3618 6.68423e-07 0)
(42.3522 6.6774e-07 0)
(42.3428 6.68328e-07 0)
(42.3334 6.69718e-07 0)
(42.3244 6.71826e-07 0)
(42.3155 6.73809e-07 0)
(42.3068 6.76522e-07 0)
(42.2983 6.77929e-07 0)
(42.29 6.7975e-07 0)
(42.2817 6.80113e-07 0)
(42.2733 6.80515e-07 0)
(42.2649 6.79389e-07 0)
(42.2563 6.78511e-07 0)
(42.2475 6.7615e-07 0)
(42.2384 6.74158e-07 0)
(42.2291 6.70746e-07 0)
(42.2193 6.67735e-07 0)
(42.2091 6.62792e-07 0)
(42.1984 6.58613e-07 0)
(42.1871 6.51783e-07 0)
(42.1751 6.45861e-07 0)
(42.1623 6.38417e-07 0)
(42.1485 6.46519e-07 0)
(42.1336 7.55944e-07 0)
(42.1176 1.58536e-06 0)
(42.1004 7.55485e-06 0)
(42.0829 5.02736e-05 0)
(42.071 0.000362226 0)
(42.1096 0.00286845 0)
(42.3135 0.039874 0)
(47.5688 0.162395 0)
(37.814 1.2845 -3.16485e-15)
(36.7371 3.68424 6.34819e-15)
(36.323 6.41874 -1.19018e-14)
(35.9228 9.18992 2.45897e-14)
(35.284 11.936 -2.53682e-14)
(34.4039 14.634 -1.58463e-15)
(33.2439 17.2284 6.17923e-20)
(31.7483 19.6508 -2.2185e-14)
(30.1361 22.017 -1.02949e-13)
(28.9288 24.7915 1.00863e-13)
(28.1972 28.2724 -2.50279e-14)
(27.2684 32.0773 -5.12953e-14)
(25.4788 35.0988 2.63951e-14)
(22.735 36.8017 0)
(19.5108 37.529 2.48963e-14)
(16.1461 37.6718 2.49895e-14)
(12.7934 37.4407 -2.51088e-14)
(9.58794 37.4962 2.5219e-14)
(6.7235 39.4281 1.95115e-16)
(4.10672 45.5421 -1.89032e-16)
(39.0505 2.02951 0)
(38.4104 4.9478 0)
(38.0018 8.16756 -1.61103e-15)
(37.4892 11.3735 -3.21851e-15)
(36.7099 14.5349 8.03622e-15)
(35.6379 17.6749 1.60553e-14)
(34.1912 20.7801 0)
(32.3485 23.6549 9.62673e-15)
(30.5318 26.0843 1.60274e-14)
(29.3262 28.5022 -3.81947e-14)
(28.5458 31.6988 2.52341e-14)
(27.1713 35.8383 1.25325e-14)
(24.3896 39.9053 -1.25261e-14)
(20.6077 42.4801 1.25202e-14)
(16.3937 43.7242 0)
(12.0833 43.9946 -1.56811e-15)
(8.04333 43.3126 1.57594e-15)
(4.97423 42.0828 -5.55957e-15)
(3.99647 41.9765 -7.90097e-16)
(4.97902 44.9356 0)
(41.889 1.60755 -4.10666e-17)
(41.8837 2.6489 -2.08707e-14)
(41.9839 3.70687 2.1197e-14)
(42.1711 4.75662 -2.03743e-14)
(42.3967 5.86726 -2.23486e-14)
(42.6262 7.11329 8.31857e-14)
(42.8373 8.55435 -4.21093e-14)
(42.988 10.2529 4.08075e-14)
(42.9697 12.2381 -8.29737e-14)
(42.6527 14.435 1.3252e-15)
(42.113 16.616 4.09092e-14)
(41.5971 18.644 0)
(41.2751 20.6451 -4.1037e-14)
(40.9282 22.9085 4.10701e-14)
(40.2567 25.4946 -3.31012e-16)
(39.1167 28.3129 0)
(37.4072 31.2718 3.30788e-16)
(34.9964 34.2299 0)
(31.7483 36.8896 0)
(28.2483 38.8559 0)
(46.0604 2.60393 6.28075e-16)
(45.7789 5.98297 -6.30132e-15)
(44.7521 10.0031 -1.26299e-15)
(43.5373 14.1322 2.52398e-15)
(42.4305 18.2049 -2.51338e-15)
(41.3726 22.2123 -4.56093e-19)
(40.1931 26.1484 -9.93811e-15)
(38.7361 29.9683 0)
(36.9665 33.6571 0)
(34.887 37.2099 -4.88924e-15)
(32.4715 40.584 4.86445e-15)
(29.7329 43.774 0)
(26.658 46.7242 -4.81883e-15)
(23.2687 49.3868 4.80336e-15)
(19.606 51.7242 -4.78793e-15)
(15.7159 53.709 9.54671e-15)
(11.6497 55.3196 -4.76338e-15)
(7.47519 56.538 0)
(3.29442 57.3803 -2.3702e-15)
(-0.527105 57.8554 0)
(49.0167 1.79972 -9.58197e-16)
(49.9718 4.60964 7.34534e-15)
(49.6621 7.98441 5.11041e-15)
(48.8318 11.5193 1.02149e-14)
(47.9877 15.1837 0)
(47.1549 18.979 0)
(46.1934 22.8543 1.01158e-14)
(44.9728 26.729 2.51766e-15)
(43.428 30.5865 -5.01244e-15)
(41.5661 34.3623 2.49569e-15)
(39.3519 38.0205 1.98788e-14)
(36.8052 41.4992 -1.23765e-14)
(33.9192 44.7341 1.23389e-14)
(30.7027 47.6723 -2.46051e-15)
(27.1798 50.2734 -9.82287e-15)
(23.3849 52.5019 -1.71711e-14)
(19.3625 54.3171 -8.58022e-15)
(15.1622 55.6545 -1.22587e-15)
(10.8675 56.3765 7.05499e-15)
(6.74622 56.1405 3.07593e-16)
(1.18902 59.5247 0)
(1.1376 59.6014 0)
(1.15824 56.9159 0)
(1.04549 56.8686 0)
(1.0245 58.1342 0)
(1.06975 58.7487 0)
(1.08827 58.6517 0)
(1.0914 58.4544 0)
(1.08591 58.4164 0)
(1.08276 58.4729 0)
(1.0861 58.4991 0)
(1.08838 58.4742 0)
(1.08885 58.4393 0)
(1.0887 58.4132 0)
(1.08862 58.3904 0)
(1.08821 58.3668 0)
(1.08767 58.3459 0)
(1.08733 58.3255 0)
(1.08705 58.2986 0)
(1.08654 58.2646 0)
(1.08579 58.226 0)
(1.08479 58.1841 0)
(1.0836 58.1391 0)
(1.08227 58.0914 0)
(1.08087 58.0418 0)
(1.07945 57.9911 0)
(1.07803 57.9397 0)
(1.07664 57.8885 0)
(1.07526 57.838 0)
(1.07388 57.7885 0)
(1.07247 57.7402 0)
(1.07099 57.6933 0)
(1.0694 57.6474 0)
(1.0677 57.6024 0)
(1.06586 57.5575 0)
(1.06388 57.5124 0)
(1.06178 57.4665 0)
(1.05958 57.4191 0)
(1.0573 57.3699 0)
(1.05497 57.3186 0)
(1.05262 57.2649 0)
(1.0503 57.2088 0)
(1.04802 57.1505 0)
(1.04582 57.09 0)
(1.04373 57.0278 0)
(1.04176 56.9642 0)
(1.03991 56.8997 0)
(1.0382 56.8345 0)
(1.0366 56.7693 0)
(1.03511 56.7043 0)
(1.03369 56.6399 0)
(1.03234 56.5762 0)
(1.03102 56.5135 0)
(1.0297 56.4519 0)
(1.02835 56.3913 0)
(1.02694 56.3317 0)
(1.02546 56.2728 0)
(1.02387 56.2145 0)
(1.02214 56.1566 0)
(1.02026 56.0987 0)
(1.01817 56.0405 0)
(1.01582 55.9818 0)
(1.01314 55.922 0)
(1.01003 55.8608 0)
(1.00639 55.7977 0)
(1.00205 55.7322 0)
(0.99683 55.6639 0)
(0.990375 55.5934 0)
(0.981855 55.5261 0)
(0.968754 55.4852 0)
(0.950469 55.5098 0)
(0.934499 55.5889 0)
(0.92397 55.6528 0)
(0.915997 55.6483 0)
(0.903544 55.5742 0)
(0.885478 55.4668 0)
(0.862593 55.351 0)
(0.835801 55.228 0)
(0.805633 55.0954 0)
(0.772504 54.9508 0)
(0.736808 54.7914 0)
(0.69896 54.6146 0)
(0.659418 54.4183 0)
(0.618676 54.2013 0)
(0.577247 53.9627 0)
(0.535641 53.7024 0)
(0.494349 53.4204 0)
(0.453814 53.1161 0)
(0.41442 52.788 0)
(0.376471 52.4327 0)
(0.340187 52.0449 0)
(0.305694 51.6172 0)
(0.273041 51.1408 0)
(0.242202 50.606 0)
(0.213099 50.0037 0)
(0.185705 49.3262 0)
(0.15998 48.5695 0)
(0.135957 47.7347 0)
(0.113828 46.8294 0)
(0.0938006 45.8682 0)
(0.0761381 44.8733 0)
(0.0609048 43.8721 0)