/*--------------------------------*- C++ -*----------------------------------*\
| =========                 |                                                 |
| \\      /  F ield         | OpenFOAM: The Open Source CFD Toolbox           |
|  \\    /   O peration     | Version:  3.0.x                                 |
|   \\  /    A nd           | Web:      www.OpenFOAM.org                      |
|    \\/     M anipulation  |                                                 |
\*---------------------------------------------------------------------------*/
FoamFile
{
    version     2.0;
    format      ascii;
    class       volScalarField;
    location    "0.57";
    object      rho;
}
// * * * * * * * * * * * * * * * * * * * * * * * * * * * * * * * * * * * * * //

dimensions      [1 -3 0 0 0 0 0];

internalField   nonuniform List<scalar> 
13800
(
53.3479
53.3519
53.3582
53.3641
53.3698
53.375
53.3797
53.3842
53.3885
53.3924
53.3958
53.3989
53.4019
53.4047
53.4075
53.4101
53.4125
53.415
53.4176
53.4201
53.4227
53.4254
53.428
53.4307
53.4334
53.4361
53.4389
53.4418
53.4446
53.4475
53.4503
53.4532
53.4562
53.4592
53.4622
53.4652
53.4682
53.4713
53.4743
53.4775
53.4805
53.4838
53.4869
53.4901
53.4932
53.4965
53.4997
53.5029
53.5062
53.5094
53.5126
53.516
53.5192
53.5225
53.5259
53.5293
53.5327
53.536
53.5394
53.5427
53.5461
53.5494
53.5528
53.5562
53.5595
53.5629
53.5663
53.5697
53.5731
53.5766
53.58
53.5834
53.5868
53.5902
53.5936
53.5969
53.6002
53.6036
53.6069
53.6103
53.6137
53.617
53.6203
53.6237
53.627
53.6303
53.6336
53.6369
53.6402
53.6434
53.6466
53.6499
53.6531
53.6563
53.6595
53.6626
53.6658
53.6689
53.672
53.6752
53.6782
53.6813
53.6844
53.6874
53.6905
53.6935
53.6964
53.6994
53.7023
53.7053
53.7082
53.7111
53.714
53.7169
53.7197
53.7225
53.7253
53.7281
53.7308
53.7335
53.7363
53.7389
53.7416
53.7443
53.7469
53.7495
53.7521
53.7546
53.7571
53.7596
53.7621
53.7646
53.767
53.7694
53.7718
53.7742
53.7765
53.7788
53.7811
53.7834
53.7856
53.7878
53.79
53.7922
53.7943
53.7965
53.7985
53.8006
53.8026
53.8047
53.8066
53.8086
53.8105
53.8124
53.8143
53.8161
53.818
53.8198
53.8215
53.8233
53.825
53.8267
53.8283
53.83
53.8316
53.8332
53.8348
53.8364
53.8379
53.8393
53.8409
53.8423
53.8436
53.8451
53.8464
53.8477
53.849
53.8503
53.8516
53.8528
53.854
53.8551
53.8564
53.8574
53.8587
53.8595
53.8608
53.8615
53.8629
53.8634
53.8649
53.8652
53.8667
53.867
53.8684
53.8688
53.8699
53.8707
53.8708
53.8723
53.3485
53.3525
53.3588
53.3648
53.3704
53.3756
53.3803
53.3848
53.3891
53.393
53.3964
53.3995
53.4024
53.4053
53.4081
53.4107
53.4131
53.4157
53.4182
53.4207
53.4233
53.4259
53.4286
53.4312
53.434
53.4367
53.4394
53.4423
53.4451
53.448
53.4509
53.4538
53.4567
53.4597
53.4627
53.4657
53.4687
53.4717
53.4749
53.478
53.4811
53.4842
53.4874
53.4905
53.4938
53.497
53.5002
53.5034
53.5067
53.5099
53.5132
53.5164
53.5197
53.5231
53.5264
53.5297
53.5331
53.5364
53.5398
53.5432
53.5465
53.5499
53.5532
53.5566
53.56
53.5634
53.5668
53.5702
53.5736
53.577
53.5804
53.5839
53.5872
53.5906
53.5939
53.5973
53.6007
53.604
53.6073
53.6107
53.6141
53.6175
53.6207
53.6241
53.6274
53.6307
53.634
53.6372
53.6405
53.6438
53.647
53.6502
53.6535
53.6566
53.6598
53.663
53.6662
53.6693
53.6724
53.6756
53.6786
53.6817
53.6847
53.6878
53.6908
53.6938
53.6968
53.6998
53.7027
53.7057
53.7086
53.7114
53.7144
53.7172
53.7201
53.7228
53.7257
53.7285
53.7312
53.7339
53.7366
53.7393
53.742
53.7446
53.7472
53.7498
53.7525
53.755
53.7575
53.76
53.7625
53.765
53.7674
53.7698
53.7722
53.7745
53.7769
53.7792
53.7815
53.7837
53.786
53.7882
53.7904
53.7925
53.7946
53.7968
53.7988
53.8009
53.803
53.805
53.807
53.8089
53.8109
53.8128
53.8146
53.8165
53.8183
53.8201
53.8219
53.8237
53.8253
53.8271
53.8287
53.8304
53.832
53.8336
53.8351
53.8367
53.8382
53.8397
53.8412
53.8426
53.844
53.8454
53.8468
53.8481
53.8494
53.8507
53.8519
53.8531
53.8544
53.8555
53.8567
53.8577
53.859
53.8598
53.8612
53.8618
53.8632
53.8638
53.8652
53.8656
53.867
53.8674
53.8688
53.8691
53.8704
53.8707
53.8718
53.8721
53.3485
53.3525
53.3588
53.3648
53.3704
53.3756
53.3803
53.3849
53.3891
53.393
53.3964
53.3995
53.4024
53.4053
53.4081
53.4107
53.4131
53.4157
53.4182
53.4207
53.4233
53.4259
53.4286
53.4312
53.4339
53.4367
53.4394
53.4423
53.4451
53.448
53.4509
53.4538
53.4567
53.4597
53.4627
53.4657
53.4687
53.4718
53.4749
53.478
53.4811
53.4842
53.4874
53.4906
53.4938
53.497
53.5002
53.5034
53.5067
53.5099
53.5132
53.5164
53.5197
53.5231
53.5264
53.5297
53.5331
53.5364
53.5398
53.5432
53.5465
53.5499
53.5533
53.5566
53.56
53.5634
53.5668
53.5701
53.5736
53.577
53.5804
53.5838
53.5872
53.5906
53.594
53.5973
53.6007
53.604
53.6073
53.6107
53.6141
53.6175
53.6207
53.6241
53.6274
53.6307
53.634
53.6372
53.6405
53.6438
53.647
53.6502
53.6535
53.6566
53.6598
53.663
53.6662
53.6693
53.6724
53.6756
53.6786
53.6817
53.6847
53.6878
53.6908
53.6938
53.6968
53.6998
53.7027
53.7057
53.7086
53.7114
53.7144
53.7172
53.7201
53.7228
53.7257
53.7285
53.7312
53.7339
53.7366
53.7393
53.742
53.7446
53.7472
53.7498
53.7525
53.755
53.7575
53.76
53.7625
53.765
53.7674
53.7698
53.7722
53.7745
53.7769
53.7792
53.7815
53.7837
53.786
53.7882
53.7904
53.7925
53.7946
53.7968
53.7988
53.8009
53.803
53.805
53.807
53.8089
53.8109
53.8128
53.8146
53.8165
53.8183
53.8201
53.8219
53.8237
53.8253
53.8271
53.8287
53.8304
53.832
53.8336
53.8351
53.8367
53.8382
53.8397
53.8412
53.8426
53.844
53.8454
53.8468
53.8481
53.8494
53.8507
53.8519
53.8531
53.8544
53.8555
53.8567
53.8577
53.859
53.8598
53.8612
53.8618
53.8632
53.8638
53.8652
53.8656
53.867
53.8674
53.8688
53.8691
53.8704
53.8707
53.8719
53.8721
53.3485
53.3525
53.3588
53.3648
53.3704
53.3756
53.3803
53.3849
53.3891
53.393
53.3964
53.3995
53.4024
53.4053
53.4081
53.4107
53.4131
53.4157
53.4182
53.4207
53.4233
53.4259
53.4286
53.4312
53.434
53.4367
53.4394
53.4423
53.4451
53.448
53.4509
53.4538
53.4567
53.4597
53.4627
53.4657
53.4687
53.4717
53.4749
53.478
53.4811
53.4842
53.4874
53.4905
53.4938
53.497
53.5002
53.5034
53.5067
53.5099
53.5132
53.5164
53.5197
53.5231
53.5264
53.5297
53.5331
53.5364
53.5398
53.5432
53.5465
53.5499
53.5532
53.5566
53.56
53.5634
53.5668
53.5702
53.5736
53.577
53.5804
53.5839
53.5872
53.5906
53.5939
53.5973
53.6007
53.604
53.6073
53.6107
53.6141
53.6175
53.6207
53.6241
53.6274
53.6307
53.634
53.6372
53.6405
53.6438
53.647
53.6502
53.6535
53.6566
53.6598
53.663
53.6662
53.6693
53.6724
53.6756
53.6786
53.6817
53.6847
53.6878
53.6908
53.6938
53.6968
53.6998
53.7027
53.7057
53.7086
53.7114
53.7144
53.7172
53.7201
53.7228
53.7257
53.7285
53.7312
53.7339
53.7366
53.7393
53.742
53.7446
53.7472
53.7498
53.7525
53.755
53.7575
53.76
53.7625
53.765
53.7674
53.7698
53.7722
53.7745
53.7769
53.7792
53.7815
53.7837
53.786
53.7882
53.7904
53.7925
53.7946
53.7968
53.7988
53.8009
53.803
53.805
53.807
53.8089
53.8109
53.8128
53.8146
53.8165
53.8183
53.8201
53.8219
53.8237
53.8253
53.8271
53.8287
53.8304
53.832
53.8336
53.8351
53.8367
53.8382
53.8397
53.8412
53.8426
53.844
53.8454
53.8468
53.8481
53.8494
53.8507
53.8519
53.8531
53.8544
53.8555
53.8567
53.8577
53.859
53.8598
53.8612
53.8618
53.8632
53.8638
53.8652
53.8656
53.867
53.8674
53.8688
53.8691
53.8704
53.8707
53.8718
53.8723
53.3485
53.3525
53.3588
53.3648
53.3704
53.3756
53.3804
53.3849
53.3891
53.393
53.3964
53.3995
53.4024
53.4053
53.4081
53.4106
53.4131
53.4156
53.4181
53.4207
53.4233
53.4259
53.4286
53.4312
53.434
53.4367
53.4394
53.4423
53.4451
53.448
53.4509
53.4538
53.4567
53.4597
53.4627
53.4657
53.4687
53.4717
53.4749
53.478
53.4811
53.4842
53.4874
53.4905
53.4938
53.497
53.5002
53.5034
53.5067
53.5099
53.5132
53.5164
53.5197
53.5231
53.5264
53.5297
53.5331
53.5364
53.5398
53.5432
53.5465
53.5499
53.5532
53.5566
53.56
53.5634
53.5668
53.5702
53.5736
53.577
53.5804
53.5839
53.5872
53.5906
53.5939
53.5973
53.6007
53.604
53.6073
53.6107
53.6141
53.6175
53.6207
53.6241
53.6274
53.6307
53.634
53.6372
53.6405
53.6438
53.647
53.6502
53.6535
53.6566
53.6598
53.663
53.6662
53.6693
53.6724
53.6756
53.6786
53.6817
53.6847
53.6878
53.6908
53.6938
53.6968
53.6998
53.7027
53.7057
53.7086
53.7114
53.7144
53.7172
53.7201
53.7228
53.7257
53.7285
53.7312
53.7339
53.7366
53.7393
53.742
53.7446
53.7472
53.7498
53.7525
53.755
53.7575
53.76
53.7625
53.765
53.7674
53.7698
53.7722
53.7745
53.7769
53.7792
53.7815
53.7837
53.786
53.7882
53.7904
53.7925
53.7946
53.7968
53.7988
53.8009
53.803
53.805
53.807
53.8089
53.8109
53.8128
53.8146
53.8165
53.8183
53.8201
53.8219
53.8237
53.8253
53.8271
53.8287
53.8304
53.832
53.8336
53.8351
53.8367
53.8382
53.8397
53.8412
53.8426
53.844
53.8454
53.8468
53.8481
53.8494
53.8507
53.8519
53.8531
53.8544
53.8555
53.8567
53.8577
53.859
53.8598
53.8612
53.8618
53.8632
53.8638
53.8652
53.8656
53.867
53.8674
53.8688
53.8691
53.8704
53.8707
53.8719
53.8722
53.3485
53.3525
53.3588
53.3648
53.3704
53.3756
53.3804
53.3849
53.3891
53.393
53.3964
53.3995
53.4024
53.4053
53.4081
53.4106
53.4131
53.4156
53.4181
53.4207
53.4233
53.4259
53.4286
53.4312
53.434
53.4367
53.4394
53.4423
53.4451
53.448
53.4509
53.4538
53.4567
53.4597
53.4627
53.4657
53.4687
53.4717
53.4749
53.478
53.4811
53.4842
53.4874
53.4905
53.4938
53.497
53.5002
53.5034
53.5067
53.5099
53.5132
53.5164
53.5197
53.5231
53.5264
53.5297
53.5331
53.5364
53.5398
53.5432
53.5465
53.5499
53.5532
53.5566
53.56
53.5634
53.5668
53.5702
53.5736
53.577
53.5804
53.5839
53.5872
53.5906
53.5939
53.5973
53.6007
53.604
53.6073
53.6107
53.6141
53.6175
53.6207
53.6241
53.6274
53.6307
53.634
53.6372
53.6405
53.6438
53.647
53.6502
53.6535
53.6566
53.6598
53.663
53.6662
53.6693
53.6724
53.6756
53.6786
53.6817
53.6847
53.6878
53.6908
53.6938
53.6968
53.6998
53.7027
53.7057
53.7086
53.7114
53.7144
53.7172
53.7201
53.7228
53.7257
53.7285
53.7312
53.7339
53.7366
53.7393
53.742
53.7446
53.7472
53.7498
53.7525
53.755
53.7575
53.76
53.7625
53.765
53.7674
53.7698
53.7722
53.7745
53.7769
53.7792
53.7815
53.7837
53.786
53.7882
53.7904
53.7925
53.7946
53.7968
53.7988
53.8009
53.803
53.805
53.807
53.8089
53.8109
53.8128
53.8146
53.8165
53.8183
53.8201
53.8219
53.8237
53.8253
53.8271
53.8287
53.8304
53.832
53.8336
53.8351
53.8367
53.8382
53.8397
53.8412
53.8426
53.844
53.8454
53.8468
53.8481
53.8494
53.8507
53.8519
53.8531
53.8544
53.8555
53.8566
53.8578
53.8589
53.86
53.861
53.8621
53.8629
53.8642
53.8648
53.866
53.8669
53.8675
53.8686
53.8693
53.8701
53.871
53.8716
53.8725
53.3485
53.3525
53.3588
53.3648
53.3704
53.3756
53.3803
53.3849
53.3891
53.393
53.3964
53.3995
53.4024
53.4053
53.4081
53.4107
53.4131
53.4157
53.4182
53.4207
53.4233
53.4259
53.4286
53.4312
53.434
53.4367
53.4394
53.4423
53.4451
53.448
53.4509
53.4538
53.4567
53.4597
53.4627
53.4657
53.4687
53.4717
53.4749
53.478
53.4811
53.4842
53.4874
53.4905
53.4938
53.497
53.5002
53.5034
53.5067
53.5099
53.5132
53.5164
53.5197
53.5231
53.5264
53.5297
53.5331
53.5364
53.5398
53.5432
53.5465
53.5499
53.5532
53.5566
53.56
53.5634
53.5668
53.5702
53.5736
53.577
53.5804
53.5839
53.5872
53.5906
53.5939
53.5973
53.6007
53.604
53.6073
53.6107
53.6141
53.6175
53.6207
53.6241
53.6274
53.6307
53.634
53.6372
53.6405
53.6438
53.647
53.6502
53.6535
53.6566
53.6598
53.663
53.6662
53.6693
53.6724
53.6756
53.6786
53.6817
53.6847
53.6878
53.6908
53.6938
53.6968
53.6998
53.7027
53.7057
53.7086
53.7114
53.7144
53.7172
53.7201
53.7228
53.7257
53.7285
53.7312
53.7339
53.7366
53.7393
53.742
53.7446
53.7472
53.7498
53.7525
53.755
53.7575
53.76
53.7625
53.765
53.7674
53.7698
53.7722
53.7745
53.7769
53.7792
53.7815
53.7837
53.786
53.7882
53.7904
53.7925
53.7946
53.7968
53.7988
53.8009
53.803
53.805
53.807
53.8089
53.8109
53.8128
53.8146
53.8165
53.8183
53.8201
53.8219
53.8237
53.8253
53.8271
53.8287
53.8304
53.832
53.8336
53.8351
53.8367
53.8382
53.8397
53.8412
53.8426
53.844
53.8454
53.8468
53.8481
53.8494
53.8507
53.8519
53.8532
53.8543
53.8556
53.8566
53.8579
53.8588
53.8601
53.8608
53.8622
53.8628
53.8642
53.8647
53.8661
53.8665
53.8679
53.8682
53.8695
53.8699
53.8712
53.8715
53.8725
53.3485
53.3525
53.3588
53.3648
53.3704
53.3756
53.3803
53.3849
53.3891
53.393
53.3964
53.3995
53.4024
53.4053
53.4081
53.4107
53.4131
53.4157
53.4182
53.4207
53.4233
53.4259
53.4286
53.4312
53.4339
53.4367
53.4394
53.4423
53.4451
53.448
53.4509
53.4538
53.4567
53.4597
53.4627
53.4657
53.4687
53.4718
53.4749
53.478
53.4811
53.4842
53.4874
53.4906
53.4938
53.497
53.5002
53.5034
53.5067
53.5099
53.5132
53.5164
53.5197
53.5231
53.5264
53.5297
53.5331
53.5364
53.5398
53.5432
53.5465
53.5499
53.5533
53.5566
53.56
53.5634
53.5668
53.5701
53.5736
53.577
53.5804
53.5838
53.5872
53.5906
53.594
53.5973
53.6007
53.604
53.6073
53.6107
53.6141
53.6175
53.6207
53.6241
53.6274
53.6307
53.634
53.6372
53.6405
53.6438
53.647
53.6502
53.6535
53.6566
53.6598
53.663
53.6662
53.6693
53.6724
53.6756
53.6786
53.6817
53.6847
53.6878
53.6908
53.6938
53.6968
53.6998
53.7027
53.7057
53.7086
53.7114
53.7144
53.7172
53.7201
53.7228
53.7257
53.7285
53.7312
53.7339
53.7366
53.7393
53.742
53.7446
53.7472
53.7498
53.7525
53.755
53.7575
53.76
53.7625
53.765
53.7674
53.7698
53.7722
53.7745
53.7769
53.7792
53.7815
53.7837
53.786
53.7882
53.7904
53.7925
53.7946
53.7968
53.7988
53.8009
53.803
53.805
53.807
53.8089
53.8109
53.8128
53.8146
53.8165
53.8183
53.8201
53.8219
53.8237
53.8253
53.8271
53.8287
53.8304
53.832
53.8336
53.8351
53.8367
53.8382
53.8397
53.8412
53.8426
53.844
53.8454
53.8468
53.8481
53.8494
53.8507
53.8519
53.8532
53.8543
53.8556
53.8566
53.8579
53.8588
53.8601
53.8608
53.8622
53.8628
53.8642
53.8647
53.8661
53.8665
53.8679
53.8682
53.8696
53.8699
53.8712
53.8712
53.8724
53.3485
53.3525
53.3588
53.3648
53.3704
53.3756
53.3803
53.3848
53.3891
53.393
53.3964
53.3995
53.4024
53.4053
53.4081
53.4107
53.4131
53.4157
53.4182
53.4207
53.4233
53.4259
53.4286
53.4312
53.434
53.4367
53.4394
53.4423
53.4451
53.448
53.4509
53.4538
53.4567
53.4597
53.4627
53.4657
53.4687
53.4717
53.4749
53.478
53.4811
53.4842
53.4874
53.4905
53.4938
53.497
53.5002
53.5034
53.5067
53.5099
53.5132
53.5164
53.5197
53.5231
53.5264
53.5297
53.5331
53.5364
53.5398
53.5432
53.5465
53.5499
53.5532
53.5566
53.56
53.5634
53.5668
53.5702
53.5736
53.577
53.5804
53.5839
53.5872
53.5906
53.5939
53.5973
53.6007
53.604
53.6073
53.6107
53.6141
53.6175
53.6207
53.6241
53.6274
53.6307
53.634
53.6372
53.6405
53.6438
53.647
53.6502
53.6535
53.6566
53.6598
53.663
53.6662
53.6693
53.6724
53.6756
53.6786
53.6817
53.6847
53.6878
53.6908
53.6938
53.6968
53.6998
53.7027
53.7057
53.7086
53.7114
53.7144
53.7172
53.7201
53.7228
53.7257
53.7285
53.7312
53.7339
53.7366
53.7393
53.742
53.7446
53.7472
53.7498
53.7525
53.755
53.7575
53.76
53.7625
53.765
53.7674
53.7698
53.7722
53.7745
53.7769
53.7792
53.7815
53.7837
53.786
53.7882
53.7904
53.7925
53.7946
53.7968
53.7988
53.8009
53.803
53.805
53.807
53.8089
53.8109
53.8128
53.8146
53.8165
53.8183
53.8201
53.8219
53.8237
53.8253
53.8271
53.8287
53.8304
53.832
53.8336
53.8351
53.8367
53.8382
53.8397
53.8412
53.8426
53.844
53.8454
53.8468
53.8481
53.8494
53.8507
53.8519
53.8532
53.8543
53.8556
53.8566
53.8579
53.8588
53.8601
53.8608
53.8622
53.8628
53.8642
53.8647
53.8661
53.8665
53.8679
53.8682
53.8695
53.8698
53.8712
53.8711
53.8721
53.3479
53.3519
53.3582
53.3641
53.3698
53.375
53.3797
53.3842
53.3885
53.3924
53.3958
53.3989
53.4019
53.4047
53.4075
53.4101
53.4125
53.415
53.4176
53.4201
53.4227
53.4254
53.428
53.4307
53.4334
53.4361
53.4389
53.4418
53.4446
53.4475
53.4503
53.4532
53.4562
53.4592
53.4622
53.4652
53.4682
53.4713
53.4743
53.4775
53.4805
53.4838
53.4869
53.4901
53.4932
53.4965
53.4997
53.5029
53.5062
53.5094
53.5126
53.516
53.5192
53.5225
53.5259
53.5293
53.5327
53.536
53.5394
53.5427
53.5461
53.5494
53.5528
53.5562
53.5595
53.5629
53.5663
53.5697
53.5731
53.5766
53.58
53.5834
53.5868
53.5902
53.5936
53.5969
53.6002
53.6036
53.6069
53.6103
53.6137
53.617
53.6203
53.6237
53.627
53.6303
53.6336
53.6369
53.6402
53.6434
53.6466
53.6499
53.6531
53.6563
53.6595
53.6626
53.6658
53.6689
53.672
53.6752
53.6782
53.6813
53.6844
53.6874
53.6905
53.6935
53.6964
53.6994
53.7023
53.7053
53.7082
53.7111
53.714
53.7169
53.7197
53.7225
53.7253
53.7281
53.7308
53.7335
53.7363
53.7389
53.7416
53.7443
53.7469
53.7495
53.7521
53.7546
53.7571
53.7596
53.7621
53.7646
53.767
53.7694
53.7718
53.7742
53.7765
53.7788
53.7811
53.7834
53.7856
53.7878
53.79
53.7922
53.7943
53.7965
53.7985
53.8006
53.8026
53.8047
53.8066
53.8086
53.8105
53.8124
53.8143
53.8161
53.818
53.8198
53.8215
53.8233
53.825
53.8267
53.8283
53.83
53.8316
53.8332
53.8348
53.8364
53.8379
53.8393
53.8409
53.8423
53.8436
53.8451
53.8464
53.8477
53.849
53.8503
53.8515
53.8528
53.8539
53.8552
53.8562
53.8575
53.8584
53.8598
53.8605
53.8619
53.8624
53.8639
53.8643
53.8658
53.8662
53.8676
53.8679
53.8692
53.8695
53.8709
53.8705
53.8718
53.8727
53.8726
53.8725
53.8723
53.872
53.8715
53.8712
53.871
53.8709
53.871
53.871
53.8711
53.8712
53.8712
53.8713
53.8713
53.8714
53.8714
53.8714
53.8715
53.8724
53.8724
53.8725
53.8724
53.8723
53.8722
53.8721
53.8719
53.8718
53.8717
53.8717
53.8717
53.8717
53.8718
53.8719
53.872
53.8721
53.8722
53.8723
53.8724
53.8722
53.8723
53.8723
53.8723
53.8723
53.8723
53.8723
53.8722
53.872
53.872
53.8719
53.8719
53.8718
53.8719
53.872
53.8721
53.8722
53.8723
53.8724
53.8725
53.8725
53.8726
53.8726
53.8727
53.8727
53.8728
53.8728
53.8729
53.8728
53.8729
53.8728
53.8727
53.8725
53.8725
53.8722
53.8721
53.872
53.872
53.872
53.872
53.8725
53.8727
53.8728
53.8729
53.873
53.8732
53.8733
53.8735
53.8735
53.8736
53.8738
53.8739
53.8741
53.8742
53.8743
53.8744
53.8745
53.8745
53.8746
53.8746
53.8728
53.8728
53.8729
53.8731
53.8732
53.8733
53.8734
53.8735
53.8736
53.8737
53.8738
53.8739
53.8739
53.8738
53.8737
53.8737
53.8734
53.8733
53.8731
53.873
53.873
53.8731
53.8732
53.8734
53.8735
53.8737
53.8738
53.874
53.8742
53.8744
53.8745
53.8747
53.8749
53.8751
53.8754
53.8756
53.8758
53.8761
53.8763
53.8765
53.8729
53.873
53.8731
53.8732
53.8733
53.8735
53.8736
53.8738
53.8739
53.8741
53.8743
53.8745
53.8748
53.8751
53.8755
53.8759
53.8763
53.8767
53.8771
53.8773
53.8727
53.8729
53.873
53.8732
53.8734
53.8737
53.8739
53.8741
53.8744
53.8748
53.8751
53.8755
53.8759
53.8763
53.8768
53.8772
53.8776
53.8779
53.8783
53.8785
53.8725
53.8726
53.8728
53.8731
53.8734
53.8737
53.874
53.8744
53.8747
53.8751
53.8754
53.8758
53.8762
53.8766
53.877
53.8774
53.8777
53.878
53.8783
53.8784
53.8718
53.872
53.8725
53.8731
53.8737
53.8741
53.8745
53.8751
53.8756
53.8761
53.8765
53.8768
53.8771
53.8775
53.8778
53.8782
53.8785
53.8788
53.8791
53.8794
53.8797
53.8799
53.8801
53.8804
53.8806
53.8809
53.881
53.8813
53.8815
53.8817
53.8819
53.8822
53.8824
53.8826
53.8827
53.8829
53.8831
53.8832
53.8834
53.8836
53.8837
53.8839
53.8841
53.8842
53.8845
53.8846
53.8847
53.8849
53.885
53.8851
53.8853
53.8854
53.8856
53.8857
53.8857
53.8859
53.886
53.8861
53.8862
53.8863
53.8864
53.8866
53.8866
53.8867
53.8869
53.8869
53.887
53.8871
53.8873
53.8874
53.8874
53.8875
53.8876
53.8877
53.8878
53.888
53.888
53.8881
53.8881
53.8882
53.8884
53.8886
53.889
53.8892
53.8893
53.8893
53.8893
53.8896
53.8905
53.8916
53.8923
53.8918
53.8875
53.8692
53.8223
53.7699
53.7223
53.6825
53.6533
53.6353
53.628
53.6271
53.6304
53.6511
53.712
53.7761
53.8269
53.8628
53.8855
53.8981
53.9043
53.9069
53.9067
53.9031
53.8984
53.8952
53.8931
53.8917
53.8909
53.8903
53.89
53.8897
53.8895
53.8893
53.8892
53.889
53.889
53.8888
53.8887
53.8887
53.8885
53.8884
53.8883
53.8883
53.8882
53.8881
53.888
53.8879
53.8878
53.8877
53.8877
53.8876
53.8875
53.8874
53.8873
53.8872
53.8872
53.8871
53.887
53.887
53.8869
53.8868
53.8867
53.8867
53.8866
53.8865
53.8865
53.8864
53.8863
53.8863
53.8863
53.8862
53.8861
53.8861
53.886
53.886
53.8859
53.8859
53.8859
53.8858
53.8858
53.8858
53.8857
53.8857
53.8857
53.8857
53.8856
53.8857
53.8855
53.8856
53.8855
53.8856
53.8854
53.8856
53.8853
53.8857
53.8853
53.8857
53.8853
53.8857
53.8853
53.8857
53.8854
53.8857
53.8854
53.8858
53.8854
53.8859
53.8853
53.8856
53.8727
53.8731
53.8732
53.8738
53.8744
53.8749
53.8753
53.8758
53.8764
53.877
53.8774
53.8777
53.8781
53.8785
53.8788
53.8792
53.8795
53.8799
53.8801
53.8804
53.8808
53.881
53.8812
53.8815
53.8817
53.8819
53.8822
53.8823
53.8826
53.8828
53.883
53.8832
53.8835
53.8837
53.8838
53.884
53.8842
53.8843
53.8845
53.8847
53.8848
53.885
53.8852
53.8853
53.8855
53.8857
53.8858
53.886
53.8861
53.8863
53.8863
53.8865
53.8867
53.8868
53.8869
53.887
53.8872
53.8873
53.8874
53.8875
53.8875
53.8877
53.8877
53.8878
53.8879
53.8881
53.8882
53.8882
53.8883
53.8885
53.8886
53.8887
53.8887
53.8888
53.8888
53.889
53.8891
53.8891
53.8893
53.8894
53.8895
53.8896
53.8898
53.8899
53.8899
53.8899
53.8898
53.8901
53.8905
53.8912
53.8921
53.8931
53.8943
53.896
53.898
53.8998
53.901
53.9007
53.8971
53.8888
53.8802
53.8719
53.865
53.8609
53.86
53.8604
53.8628
53.8706
53.8791
53.8852
53.8894
53.8923
53.894
53.8943
53.8935
53.8924
53.8916
53.891
53.8907
53.8904
53.8901
53.8899
53.8897
53.8897
53.8895
53.8894
53.8893
53.8892
53.889
53.8889
53.8889
53.8888
53.8887
53.8886
53.8885
53.8884
53.8883
53.8883
53.8881
53.8881
53.888
53.8879
53.8878
53.8877
53.8876
53.8875
53.8875
53.8874
53.8873
53.8872
53.8871
53.8871
53.887
53.887
53.8869
53.8868
53.8868
53.8867
53.8866
53.8866
53.8865
53.8865
53.8864
53.8864
53.8864
53.8863
53.8863
53.8862
53.8862
53.8862
53.8861
53.8861
53.8861
53.886
53.8859
53.8859
53.8859
53.8859
53.8858
53.8859
53.8858
53.886
53.8857
53.886
53.8857
53.886
53.8856
53.886
53.8857
53.886
53.8857
53.886
53.8856
53.886
53.8857
53.886
53.8857
53.8861
53.8858
53.8858
53.8728
53.8731
53.8733
53.8738
53.8744
53.8748
53.8752
53.8756
53.8762
53.8767
53.8772
53.8776
53.8779
53.8783
53.8787
53.879
53.8794
53.8796
53.88
53.8802
53.8805
53.8808
53.8811
53.8813
53.8815
53.8817
53.882
53.8821
53.8824
53.8826
53.8828
53.8831
53.8832
53.8835
53.8836
53.8838
53.884
53.8841
53.8843
53.8845
53.8846
53.8849
53.885
53.8851
53.8853
53.8855
53.8856
53.8857
53.8859
53.886
53.8862
53.8863
53.8864
53.8866
53.8867
53.8868
53.887
53.8871
53.8872
53.8873
53.8874
53.8875
53.8876
53.8877
53.8878
53.8878
53.888
53.8881
53.8881
53.8883
53.8884
53.8885
53.8885
53.8886
53.8887
53.8888
53.8889
53.8889
53.889
53.8891
53.8892
53.8893
53.8894
53.8896
53.8899
53.8899
53.8897
53.8895
53.8893
53.8901
53.8914
53.8932
53.8961
53.9004
53.9044
53.9075
53.9101
53.9122
53.9141
53.9152
53.9147
53.9105
53.9037
53.8975
53.8922
53.8882
53.8857
53.8846
53.8847
53.8855
53.8869
53.8881
53.8892
53.8899
53.8903
53.8904
53.8904
53.8904
53.8903
53.8902
53.89
53.8899
53.8897
53.8897
53.8895
53.8894
53.8893
53.8892
53.889
53.8889
53.8889
53.8888
53.8887
53.8886
53.8885
53.8884
53.8883
53.8883
53.8881
53.8881
53.888
53.8879
53.8878
53.8877
53.8876
53.8876
53.8875
53.8874
53.8873
53.8872
53.8871
53.8871
53.887
53.887
53.8869
53.8868
53.8868
53.8867
53.8866
53.8866
53.8865
53.8865
53.8864
53.8864
53.8864
53.8863
53.8863
53.8862
53.8862
53.8862
53.8861
53.8861
53.8861
53.886
53.8859
53.8859
53.8859
53.8859
53.8858
53.8859
53.8858
53.886
53.8857
53.886
53.8857
53.886
53.8856
53.886
53.8857
53.886
53.8857
53.886
53.8857
53.886
53.8857
53.886
53.8857
53.8861
53.8858
53.886
53.8725
53.8728
53.8728
53.8729
53.8732
53.8736
53.8738
53.8741
53.8744
53.8747
53.8751
53.8754
53.8757
53.876
53.8763
53.8766
53.8769
53.8772
53.8775
53.8778
53.878
53.8782
53.8785
53.8788
53.879
53.8792
53.8794
53.8796
53.8799
53.8801
53.8803
53.8805
53.8807
53.8809
53.8811
53.8813
53.8814
53.8816
53.8818
53.882
53.8822
53.8824
53.8824
53.8826
53.8828
53.883
53.8831
53.8832
53.8834
53.8835
53.8837
53.8838
53.8839
53.8841
53.8842
53.8843
53.8844
53.8846
53.8846
53.8847
53.8848
53.885
53.885
53.8852
53.8853
53.8854
53.8854
53.8855
53.8857
53.8858
53.8859
53.8859
53.8861
53.8861
53.8863
53.8863
53.8865
53.8866
53.8867
53.8868
53.887
53.8872
53.8875
53.8877
53.8878
53.8877
53.8876
53.8876
53.8882
53.8895
53.8912
53.8937
53.8974
53.9007
53.9035
53.9058
53.9079
53.9097
53.9108
53.9106
53.908
53.9041
53.9005
53.8972
53.8946
53.8925
53.8911
53.8902
53.8898
53.8898
53.8898
53.89
53.8902
53.8903
53.8903
53.8903
53.8902
53.8902
53.8901
53.8899
53.8899
53.8897
53.8896
53.8895
53.8894
53.8893
53.8892
53.8891
53.889
53.8889
53.8888
53.8888
53.8886
53.8886
53.8885
53.8884
53.8883
53.8882
53.8881
53.8881
53.888
53.8879
53.8878
53.8877
53.8876
53.8876
53.8875
53.8874
53.8873
53.8872
53.8871
53.8871
53.887
53.887
53.8869
53.8868
53.8868
53.8867
53.8866
53.8866
53.8865
53.8865
53.8864
53.8864
53.8864
53.8863
53.8863
53.8862
53.8862
53.8862
53.8861
53.8861
53.8861
53.886
53.8859
53.8859
53.8859
53.8859
53.8859
53.8859
53.8858
53.8859
53.8858
53.8859
53.8857
53.8859
53.8856
53.886
53.8856
53.886
53.8857
53.886
53.8857
53.886
53.8857
53.886
53.8858
53.8862
53.886
53.886
53.8748
53.8749
53.8752
53.8754
53.8756
53.8759
53.8763
53.8768
53.8773
53.8778
53.8781
53.8784
53.8787
53.8791
53.8794
53.8797
53.88
53.8803
53.8805
53.8808
53.8811
53.8814
53.8816
53.8819
53.8821
53.8823
53.8826
53.8828
53.8831
53.8833
53.8835
53.8837
53.8838
53.8841
53.8843
53.8844
53.8846
53.8848
53.885
53.8852
53.8853
53.8855
53.8857
53.8858
53.8859
53.8861
53.8863
53.8864
53.8865
53.8867
53.8868
53.887
53.8871
53.8872
53.8873
53.8874
53.8876
53.8877
53.8878
53.8879
53.888
53.8881
53.8882
53.8883
53.8884
53.8885
53.8886
53.8886
53.8887
53.8888
53.8889
53.889
53.889
53.8891
53.8892
53.8893
53.8894
53.8895
53.8895
53.8896
53.8897
53.8897
53.8897
53.8898
53.8898
53.8899
53.89
53.8901
53.8898
53.8895
53.8898
53.8907
53.8922
53.8941
53.896
53.898
53.8998
53.9011
53.902
53.9021
53.9013
53.9001
53.8987
53.8971
53.8956
53.8943
53.8933
53.8925
53.8918
53.8913
53.8911
53.8908
53.8906
53.8905
53.8904
53.8903
53.8901
53.89
53.89
53.8898
53.8898
53.8897
53.8896
53.8895
53.8894
53.8893
53.8892
53.8891
53.889
53.8889
53.8888
53.8888
53.8886
53.8886
53.8885
53.8884
53.8883
53.8882
53.8881
53.8881
53.888
53.8879
53.8878
53.8877
53.8876
53.8876
53.8875
53.8874
53.8873
53.8872
53.8871
53.8871
53.887
53.887
53.8869
53.8868
53.8868
53.8867
53.8866
53.8866
53.8865
53.8865
53.8864
53.8864
53.8864
53.8863
53.8863
53.8862
53.8862
53.8862
53.8861
53.8861
53.8861
53.886
53.8859
53.8859
53.8859
53.8859
53.8859
53.8858
53.8858
53.8858
53.8859
53.8858
53.8858
53.8858
53.8858
53.8858
53.8858
53.8858
53.8859
53.8857
53.8859
53.8859
53.8858
53.886
53.8858
53.886
53.8859
53.8861
53.8734
53.8729
53.8722
53.8715
53.8711
53.8708
53.8706
53.8705
53.8703
53.8704
53.8704
53.8706
53.8708
53.871
53.8713
53.8716
53.8718
53.8721
53.8724
53.8727
53.8729
53.8731
53.8734
53.8736
53.8739
53.8741
53.8743
53.8745
53.8748
53.875
53.8752
53.8754
53.8756
53.8758
53.876
53.8762
53.8764
53.8765
53.8767
53.8769
53.8771
53.8773
53.8774
53.8776
53.8778
53.8779
53.878
53.8782
53.8784
53.8785
53.8786
53.8788
53.8789
53.879
53.8792
53.8793
53.8795
53.8796
53.8797
53.8799
53.88
53.8801
53.8803
53.8805
53.8807
53.8808
53.881
53.8812
53.8814
53.8816
53.8818
53.882
53.8822
53.8825
53.8828
53.883
53.8833
53.8836
53.8839
53.8841
53.8843
53.8843
53.8844
53.8845
53.8846
53.8851
53.8862
53.8877
53.8894
53.8912
53.8931
53.8947
53.896
53.8969
53.8979
53.8987
53.8992
53.8993
53.899
53.8985
53.8976
53.8966
53.8954
53.8942
53.8932
53.8924
53.8917
53.8912
53.8909
53.8906
53.8905
53.8903
53.8901
53.8901
53.89
53.8899
53.8898
53.8898
53.8897
53.8897
53.8896
53.8896
53.8894
53.8894
53.8893
53.8892
53.8892
53.8891
53.889
53.8889
53.8888
53.8888
53.8886
53.8886
53.8885
53.8884
53.8883
53.8882
53.8881
53.8881
53.888
53.8879
53.8878
53.8877
53.8876
53.8876
53.8875
53.8874
53.8873
53.8872
53.8871
53.8871
53.887
53.887
53.8869
53.8868
53.8868
53.8867
53.8866
53.8866
53.8865
53.8865
53.8864
53.8864
53.8864
53.8863
53.8863
53.8862
53.8862
53.8862
53.8861
53.8861
53.8861
53.886
53.8859
53.8859
53.886
53.8859
53.8859
53.8858
53.8859
53.8858
53.886
53.8857
53.886
53.8857
53.8859
53.8856
53.886
53.8857
53.886
53.8857
53.886
53.8857
53.886
53.8857
53.886
53.8858
53.8861
53.8858
53.8772
53.878
53.8787
53.8792
53.8794
53.8798
53.8801
53.8805
53.8808
53.8812
53.8816
53.882
53.8823
53.8826
53.8828
53.8832
53.8835
53.8837
53.884
53.8843
53.8846
53.8849
53.8851
53.8855
53.8857
53.886
53.8863
53.8865
53.8867
53.8869
53.8872
53.8874
53.8876
53.8878
53.888
53.8881
53.8883
53.8885
53.8887
53.8888
53.889
53.8891
53.8894
53.8895
53.8896
53.8898
53.8899
53.8901
53.8902
53.8903
53.8905
53.8906
53.8907
53.8909
53.891
53.8911
53.8912
53.8913
53.8914
53.8916
53.8917
53.8918
53.8919
53.892
53.8921
53.8922
53.8923
53.8924
53.8924
53.8925
53.8927
53.8928
53.8929
53.893
53.8931
53.8931
53.8932
53.8933
53.8934
53.8935
53.8935
53.8935
53.8937
53.8938
53.8938
53.8938
53.8937
53.8937
53.8938
53.8939
53.8939
53.8939
53.8938
53.8931
53.8923
53.8921
53.8924
53.8933
53.8948
53.8967
53.8987
53.9002
53.9005
53.8995
53.8977
53.8959
53.8944
53.8931
53.8922
53.8915
53.891
53.8907
53.8904
53.8902
53.8901
53.89
53.8898
53.8898
53.8898
53.8896
53.8896
53.8895
53.8894
53.8894
53.8893
53.8892
53.8892
53.889
53.889
53.8889
53.8888
53.8888
53.8886
53.8886
53.8885
53.8884
53.8883
53.8882
53.8881
53.8881
53.888
53.8879
53.8878
53.8877
53.8876
53.8876
53.8875
53.8874
53.8873
53.8872
53.8871
53.8871
53.887
53.887
53.8869
53.8868
53.8868
53.8867
53.8866
53.8866
53.8865
53.8865
53.8864
53.8864
53.8864
53.8863
53.8863
53.8862
53.8862
53.8862
53.8861
53.8861
53.8861
53.886
53.8859
53.8859
53.886
53.8859
53.8859
53.8858
53.8859
53.8858
53.886
53.8857
53.886
53.8857
53.8859
53.8856
53.886
53.8857
53.886
53.8857
53.886
53.8857
53.886
53.8858
53.886
53.8859
53.8859
53.886
53.8778
53.8772
53.8763
53.8754
53.8745
53.8737
53.873
53.8724
53.8719
53.8715
53.8713
53.8712
53.8712
53.8714
53.8716
53.8718
53.8721
53.8723
53.8726
53.8729
53.8732
53.8735
53.8737
53.874
53.8742
53.8745
53.8746
53.8749
53.8751
53.8753
53.8755
53.8757
53.8759
53.8761
53.8764
53.8765
53.8767
53.877
53.8772
53.8773
53.8775
53.8778
53.8779
53.8782
53.8784
53.8785
53.8786
53.8788
53.879
53.8792
53.8793
53.8794
53.8795
53.8797
53.8799
53.8799
53.88
53.8801
53.8802
53.8803
53.8804
53.8805
53.8806
53.8808
53.8809
53.8811
53.8812
53.8814
53.8816
53.8819
53.8821
53.8823
53.8826
53.8829
53.8832
53.8834
53.8837
53.8838
53.8839
53.8839
53.8841
53.8842
53.8841
53.8841
53.8841
53.8841
53.8844
53.8849
53.8858
53.8871
53.8887
53.8902
53.8917
53.8933
53.8945
53.8958
53.8969