/*--------------------------------*- C++ -*----------------------------------*\
| =========                 |                                                 |
| \\      /  F ield         | OpenFOAM: The Open Source CFD Toolbox           |
|  \\    /   O peration     | Version:  3.0.x                                 |
|   \\  /    A nd           | Web:      www.OpenFOAM.org                      |
|    \\/     M anipulation  |                                                 |
\*---------------------------------------------------------------------------*/
FoamFile
{
    version     2.0;
    format      ascii;
    class       volVectorField;
    location    "0.57";
    object      U;
}
// * * * * * * * * * * * * * * * * * * * * * * * * * * * * * * * * * * * * * //

dimensions      [0 1 -1 0 0 0 0];

internalField   nonuniform List<vector> 
13800
(
(42.5686 0.000135693 0)
(42.2459 0.000119543 0)
(41.867 0.000119818 0)
(41.5096 0.000123091 0)
(41.1711 0.000126031 0)
(40.8357 0.000128613 0)
(40.4978 0.000130833 0)
(40.1585 0.000132702 0)
(39.8193 0.000134255 0)
(39.4805 0.000135531 0)
(39.142 0.00013656 0)
(38.8037 0.000137377 0)
(38.4658 0.000138026 0)
(38.1281 0.000138417 0)
(37.7908 0.000138878 0)
(37.4539 0.000139456 0)
(37.1173 0.00013951 0)
(36.7812 0.000139796 0)
(36.4456 0.000140066 0)
(36.1105 0.000140278 0)
(35.776 0.00014051 0)
(35.442 0.000140724 0)
(35.1086 0.000140883 0)
(34.7758 0.00014094 0)
(34.4437 0.000140985 0)
(34.1123 0.000140932 0)
(33.7816 0.000140896 0)
(33.4517 0.000140848 0)
(33.1225 0.00014075 0)
(32.7942 0.000140843 0)
(32.4667 0.000140775 0)
(32.14 0.000140925 0)
(31.8142 0.000140967 0)
(31.4894 0.000141115 0)
(31.1655 0.000141133 0)
(30.8425 0.000141209 0)
(30.5206 0.00014119 0)
(30.1997 0.000141342 0)
(29.8798 0.000141107 0)
(29.561 0.000141253 0)
(29.2433 0.00014109 0)
(28.9267 0.000141187 0)
(28.6113 0.000141124 0)
(28.2971 0.000141203 0)
(27.984 0.000141209 0)
(27.6722 0.000141325 0)
(27.3616 0.000141381 0)
(27.0523 0.00014141 0)
(26.7443 0.000141566 0)
(26.4376 0.000141408 0)
(26.1322 0.000141441 0)
(25.8282 0.000141466 0)
(25.5256 0.000141378 0)
(25.2244 0.000141365 0)
(24.9245 0.000141415 0)
(24.6262 0.000141423 0)
(24.3292 0.000141479 0)
(24.0338 0.00014146 0)
(23.7398 0.000141593 0)
(23.4474 0.000141439 0)
(23.1565 0.000141589 0)
(22.8671 0.000141359 0)
(22.5793 0.000141433 0)
(22.2931 0.000141361 0)
(22.0085 0.000141349 0)
(21.7255 0.000141345 0)
(21.4442 0.000141337 0)
(21.1645 0.000141332 0)
(20.8864 0.000141166 0)
(20.61 0.000141127 0)
(20.3354 0.000140775 0)
(20.0624 0.000140389 0)
(19.7912 0.000139863 0)
(19.5217 0.000139273 0)
(19.254 0.000138507 0)
(18.9881 0.000137449 0)
(18.7239 0.000136149 0)
(18.4616 0.000134622 0)
(18.2012 0.000132823 0)
(17.9426 0.000130679 0)
(17.6858 0.000128138 0)
(17.431 0.000125149 0)
(17.1781 0.000121727 0)
(16.9271 0.00011791 0)
(16.6781 0.000113699 0)
(16.4311 0.000109104 0)
(16.1861 0.00010411 0)
(15.9431 9.87352e-05 0)
(15.7022 9.30385e-05 0)
(15.4633 8.70615e-05 0)
(15.2264 8.08932e-05 0)
(14.9917 7.45921e-05 0)
(14.759 6.81885e-05 0)
(14.5285 6.17767e-05 0)
(14.3 5.54226e-05 0)
(14.0736 4.93155e-05 0)
(13.8494 4.34224e-05 0)
(13.6272 3.79293e-05 0)
(13.4071 3.27326e-05 0)
(13.1891 2.77363e-05 0)
(12.9731 2.32937e-05 0)
(12.7593 1.90136e-05 0)
(12.5475 1.51886e-05 0)
(12.3377 1.17424e-05 0)
(12.13 9.14483e-06 0)
(11.9243 6.38045e-06 0)
(11.7206 4.33784e-06 0)
(11.519 1.9633e-06 0)
(11.3193 3.28088e-08 0)
(11.1217 -1.54525e-06 0)
(10.9261 -2.47943e-06 0)
(10.7324 -3.37335e-06 0)
(10.5408 -4.43353e-06 0)
(10.3511 -4.99852e-06 0)
(10.1634 -5.81039e-06 0)
(9.97768 -5.88874e-06 0)
(9.79394 -6.23958e-06 0)
(9.61215 -6.27221e-06 0)
(9.43233 -6.62571e-06 0)
(9.25448 -6.46798e-06 0)
(9.07858 -6.66348e-06 0)
(8.90463 -6.84528e-06 0)
(8.73265 -6.95453e-06 0)
(8.56261 -6.94911e-06 0)
(8.39452 -6.88055e-06 0)
(8.22837 -6.74549e-06 0)
(8.06416 -6.63203e-06 0)
(7.90189 -6.65076e-06 0)
(7.74155 -6.76112e-06 0)
(7.58314 -6.90992e-06 0)
(7.42667 -7.03795e-06 0)
(7.27214 -7.23873e-06 0)
(7.11952 -7.27339e-06 0)
(6.96882 -7.57312e-06 0)
(6.82004 -7.25376e-06 0)
(6.67316 -7.42914e-06 0)
(6.52819 -7.40213e-06 0)
(6.38511 -7.30235e-06 0)
(6.24392 -7.22533e-06 0)
(6.10462 -7.21622e-06 0)
(5.9672 -7.24419e-06 0)
(5.83165 -7.25505e-06 0)
(5.69798 -7.25251e-06 0)
(5.56618 -7.33308e-06 0)
(5.43624 -7.47063e-06 0)
(5.30816 -7.68713e-06 0)
(5.18193 -7.73868e-06 0)
(5.05755 -7.71748e-06 0)
(4.935 -7.68698e-06 0)
(4.81428 -7.74247e-06 0)
(4.69539 -7.7612e-06 0)
(4.57831 -7.53288e-06 0)
(4.46304 -7.1612e-06 0)
(4.34956 -6.92125e-06 0)
(4.23788 -6.90977e-06 0)
(4.12798 -7.19298e-06 0)
(4.01987 -7.59652e-06 0)
(3.91355 -7.84443e-06 0)
(3.80899 -7.78921e-06 0)
(3.70619 -7.68599e-06 0)
(3.60513 -7.59973e-06 0)
(3.50581 -7.67116e-06 0)
(3.40821 -7.78487e-06 0)
(3.31233 -7.88922e-06 0)
(3.21816 -8.06142e-06 0)
(3.12568 -7.93254e-06 0)
(3.03488 -7.77354e-06 0)
(2.94576 -7.85176e-06 0)
(2.8583 -7.96957e-06 0)
(2.77249 -7.86355e-06 0)
(2.68833 -7.70352e-06 0)
(2.6058 -7.86885e-06 0)
(2.5249 -7.96156e-06 0)
(2.44564 -8.26826e-06 0)
(2.36799 -8.2584e-06 0)
(2.29192 -8.25464e-06 0)
(2.21744 -7.79215e-06 0)
(2.14453 -7.75916e-06 0)
(2.07317 -7.50867e-06 0)
(2.00335 -7.92953e-06 0)
(1.93507 -7.91329e-06 0)
(1.86831 -8.01044e-06 0)
(1.80306 -7.57145e-06 0)
(1.73927 -7.74143e-06 0)
(1.67699 -7.89156e-06 0)
(1.61615 -8.58961e-06 0)
(1.55682 -8.1278e-06 0)
(1.49885 -8.63239e-06 0)
(1.44239 -8.07703e-06 0)
(1.38724 -8.8697e-06 0)
(1.33359 -7.47539e-06 0)
(1.28117 -8.43744e-06 0)
(1.23025 -7.65342e-06 0)
(1.18046 -6.50177e-06 0)
(1.13193 2.77422e-06 0)
(1.08364 4.03451e-05 0)
(1.034 0.000197649 0)
(0.961103 0.000562536 0)
(0.917958 0.00642135 0)
(0.225848 0.0123017 0)
(42.5723 0.000212863 0)
(42.2534 0.000157935 0)
(41.8783 0.000148574 0)
(41.5248 0.000148218 0)
(41.1902 0.00014802 0)
(40.8587 0.000148113 0)
(40.5248 0.000148375 0)
(40.1896 0.000148652 0)
(39.8544 0.000148881 0)
(39.5197 0.000149046 0)
(39.1853 0.000149131 0)
(38.8511 0.00014914 0)
(38.5173 0.0001491 0)
(38.1837 0.00014883 0)
(37.8506 0.000148885 0)
(37.5177 0.000149232 0)
(37.1853 0.00014877 0)
(36.8533 0.000148802 0)
(36.5219 0.000148778 0)
(36.1909 0.000148629 0)
(35.8605 0.000148532 0)
(35.5306 0.000148448 0)
(35.2014 0.000148371 0)
(34.8728 0.00014825 0)
(34.5448 0.000148275 0)
(34.2175 0.000148217 0)
(33.8909 0.000148287 0)
(33.5651 0.000148304 0)
(33.2401 0.0001482 0)
(32.9159 0.00014836 0)
(32.5925 0.000148102 0)
(32.2699 0.000148216 0)
(31.9483 0.000148077 0)
(31.6275 0.000148147 0)
(31.3078 0.000148037 0)
(30.9889 0.000148124 0)
(30.6711 0.000148085 0)
(30.3543 0.000148418 0)
(30.0386 0.000148097 0)
(29.7239 0.000148558 0)
(29.4104 0.000148407 0)
(29.0979 0.000148705 0)
(28.7866 0.00014859 0)
(28.4765 0.000148645 0)
(28.1676 0.000148491 0)
(27.8599 0.000148538 0)
(27.5534 0.000148528 0)
(27.2483 0.000148569 0)
(26.9444 0.000148931 0)
(26.6418 0.000148759 0)
(26.3406 0.000148962 0)
(26.0407 0.000149062 0)
(25.7421 0.000148878 0)
(25.445 0.000148782 0)
(25.1493 0.000148773 0)
(24.8551 0.000148709 0)
(24.5623 0.000148793 0)
(24.2709 0.00014879 0)
(23.9811 0.000149081 0)
(23.6928 0.000148854 0)
(23.406 0.000149164 0)
(23.1207 0.000148789 0)
(22.8371 0.000148948 0)
(22.555 0.000148829 0)
(22.2745 0.000148827 0)
(21.9956 0.000148808 0)
(21.7184 0.000148825 0)
(21.4428 0.000148894 0)
(21.1688 0.000148697 0)
(20.8966 0.00014879 0)
(20.626 0.000148391 0)
(20.3572 0.000148053 0)
(20.09 0.000147536 0)
(19.8246 0.000146959 0)
(19.5609 0.000146127 0)
(19.299 0.000144891 0)
(19.0389 0.000143378 0)
(18.7805 0.0001416 0)
(18.5239 0.000139461 0)
(18.2691 0.000136873 0)
(18.0161 0.000133842 0)
(17.765 0.000130387 0)
(17.5157 0.00012657 0)
(17.2682 0.00012245 0)
(17.0226 0.000117969 0)
(16.7788 0.000113098 0)
(16.5369 0.000107765 0)
(16.2968 0.000101961 0)
(16.0586 9.57442e-05 0)
(15.8224 8.91623e-05 0)
(15.588 8.23892e-05 0)
(15.3555 7.55605e-05 0)
(15.1249 6.8743e-05 0)
(14.8962 6.20519e-05 0)
(14.6694 5.54556e-05 0)
(14.4445 4.91188e-05 0)
(14.2215 4.28561e-05 0)
(14.0005 3.69954e-05 0)
(13.7814 3.13894e-05 0)
(13.5642 2.59798e-05 0)
(13.349 2.14031e-05 0)
(13.1357 1.69489e-05 0)
(12.9243 1.30597e-05 0)
(12.7149 9.55404e-06 0)
(12.5075 7.12717e-06 0)
(12.302 4.28654e-06 0)
(12.0984 2.48685e-06 0)
(11.8968 4.18053e-07 0)
(11.6971 -1.04671e-06 0)
(11.4995 -2.69054e-06 0)
(11.3037 -3.52802e-06 0)
(11.1099 -4.43708e-06 0)
(10.9181 -5.64786e-06 0)
(10.7283 -6.18329e-06 0)
(10.5404 -7.16384e-06 0)
(10.3545 -7.14085e-06 0)
(10.1705 -7.61631e-06 0)
(9.98848 -7.62172e-06 0)
(9.80843 -8.07842e-06 0)
(9.63033 -7.82445e-06 0)
(9.45419 -8.05913e-06 0)
(9.28 -8.31159e-06 0)
(9.10777 -8.43696e-06 0)
(8.93748 -8.39126e-06 0)
(8.76915 -8.32392e-06 0)
(8.60275 -8.18004e-06 0)
(8.4383 -8.044e-06 0)
(8.27579 -8.11691e-06 0)
(8.11521 -8.25476e-06 0)
(7.95656 -8.39268e-06 0)
(7.79984 -8.54218e-06 0)
(7.64505 -8.81707e-06 0)
(7.49217 -8.79232e-06 0)
(7.34121 -9.24459e-06 0)
(7.19217 -8.7744e-06 0)
(7.04503 -9.02559e-06 0)
(6.89979 -8.97769e-06 0)
(6.75645 -8.83714e-06 0)
(6.615 -8.74963e-06 0)
(6.47545 -8.74536e-06 0)
(6.33777 -8.80416e-06 0)
(6.20198 -8.80411e-06 0)
(6.06805 -8.84593e-06 0)
(5.93599 -8.89848e-06 0)
(5.80579 -9.12874e-06 0)
(5.67744 -9.27794e-06 0)
(5.55095 -9.36439e-06 0)
(5.42629 -9.32407e-06 0)
(5.30348 -9.34006e-06 0)
(5.18249 -9.40397e-06 0)
(5.06332 -9.38745e-06 0)
(4.94598 -9.36935e-06 0)
(4.83045 -9.21335e-06 0)
(4.71673 -9.03666e-06 0)
(4.6048 -8.63765e-06 0)
(4.49466 -8.59686e-06 0)
(4.38629 -8.91107e-06 0)
(4.2797 -9.09794e-06 0)
(4.17487 -9.14947e-06 0)
(4.0718 -9.0938e-06 0)
(3.97048 -9.14243e-06 0)
(3.87089 -9.22032e-06 0)
(3.77303 -9.38664e-06 0)
(3.67688 -9.57011e-06 0)
(3.58244 -9.62174e-06 0)
(3.48968 -9.64956e-06 0)
(3.39862 -9.44151e-06 0)
(3.30922 -9.48239e-06 0)
(3.22149 -9.57568e-06 0)
(3.13541 -9.44596e-06 0)
(3.05099 -9.27329e-06 0)
(2.9682 -9.42259e-06 0)
(2.88703 -9.67592e-06 0)
(2.80749 -9.82179e-06 0)
(2.72955 -9.84436e-06 0)
(2.65321 -9.90543e-06 0)
(2.57846 -9.4205e-06 0)
(2.50529 -9.20341e-06 0)
(2.43366 -9.01349e-06 0)
(2.36359 -9.63232e-06 0)
(2.29505 -9.53707e-06 0)
(2.22801 -9.7065e-06 0)
(2.1625 -8.89395e-06 0)
(2.09845 -9.45597e-06 0)
(2.03591 -9.3159e-06 0)
(1.97479 -1.06929e-05 0)
(1.91518 -8.93441e-06 0)
(1.85694 -1.06291e-05 0)
(1.8002 -9.15858e-06 0)
(1.74476 -1.15081e-05 0)
(1.69083 -8.15449e-06 0)
(1.63815 -1.05856e-05 0)
(1.58695 -6.46883e-06 0)
(1.5369 -1.27579e-06 0)
(1.48808 3.17886e-05 0)
(1.43948 0.000164191 0)
(1.38936 0.000714936 0)
(1.31578 0.00238872 0)
(1.25773 0.0172569 0)
(0.643172 0.0199563 0)
(42.5723 0.000156456 0)
(42.2534 0.000110201 0)
(41.8783 0.000106443 0)
(41.5248 0.000110389 0)
(41.1902 0.000112407 0)
(40.8587 0.000113943 0)
(40.5248 0.00011535 0)
(40.1896 0.000116566 0)
(39.8544 0.000117574 0)
(39.5197 0.000118384 0)
(39.1853 0.000118998 0)
(38.8512 0.000119434 0)
(38.5173 0.000119732 0)
(38.1838 0.000119789 0)
(37.8506 0.0001201 0)
(37.5178 0.000120549 0)
(37.1854 0.000120366 0)
(36.8534 0.00012061 0)
(36.5219 0.00012079 0)
(36.191 0.000120889 0)
(35.8606 0.000121054 0)
(35.5307 0.000121228 0)
(35.2015 0.000121355 0)
(34.8729 0.000121424 0)
(34.5449 0.000121452 0)
(34.2176 0.000121443 0)
(33.8911 0.000121293 0)
(33.5653 0.000121317 0)
(33.2402 0.000121066 0)
(32.916 0.000121282 0)
(32.5926 0.000121237 0)
(32.2701 0.000121482 0)
(31.9485 0.000121609 0)
(31.6278 0.000121866 0)
(31.308 0.000121786 0)
(30.9892 0.000121798 0)
(30.6714 0.000121668 0)
(30.3546 0.000121798 0)
(30.0389 0.000121354 0)
(29.7242 0.000121647 0)
(29.4107 0.000121486 0)
(29.0983 0.000121822 0)
(28.787 0.000121864 0)
(28.4769 0.000122092 0)
(28.168 0.000122122 0)
(27.8603 0.000122264 0)
(27.5539 0.000122275 0)
(27.2487 0.00012227 0)
(26.9449 0.000122507 0)
(26.6423 0.000122308 0)
(26.3411 0.000122502 0)
(26.0412 0.000122641 0)
(25.7427 0.000122589 0)
(25.4456 0.000122643 0)
(25.15 0.000122762 0)
(24.8557 0.000122804 0)
(24.5629 0.000122929 0)
(24.2716 0.000122872 0)
(23.9818 0.000123025 0)
(23.6935 0.000122559 0)
(23.4067 0.000122713 0)
(23.1215 0.000122029 0)
(22.8379 0.000122215 0)
(22.5558 0.000121975 0)
(22.2754 0.000122066 0)
(21.9965 0.00012228 0)
(21.7193 0.000122386 0)
(21.4437 0.000122543 0)
(21.1698 0.000122516 0)
(20.8976 0.000122629 0)
(20.627 0.000122163 0)
(20.3582 0.00012165 0)
(20.0911 0.000120957 0)
(19.8257 0.000120291 0)
(19.562 0.000119559 0)
(19.3001 0.000118639 0)
(19.04 0.000117552 0)
(18.7817 0.000116201 0)
(18.5251 0.000114445 0)
(18.2703 0.000112213 0)
(18.0174 0.000109554 0)
(17.7662 0.000106541 0)
(17.5169 0.000103274 0)
(17.2694 9.98266e-05 0)
(17.0238 9.61178e-05 0)
(16.78 9.20748e-05 0)
(16.5381 8.76036e-05 0)
(16.298 8.26795e-05 0)
(16.0598 7.73687e-05 0)
(15.8235 7.17323e-05 0)
(15.5891 6.59479e-05 0)
(15.3565 6.01237e-05 0)
(15.1259 5.43318e-05 0)
(14.8971 4.86935e-05 0)
(14.6703 4.32309e-05 0)
(14.4454 3.80823e-05 0)
(14.2224 3.30822e-05 0)
(14.0014 2.84465e-05 0)
(13.7822 2.39808e-05 0)
(13.565 1.96419e-05 0)
(13.3497 1.59563e-05 0)
(13.1364 1.23808e-05 0)
(12.925 9.26728e-06 0)
(12.7156 6.50715e-06 0)
(12.5081 4.5712e-06 0)
(12.3026 2.46137e-06 0)
(12.099 1.11204e-06 0)
(11.8974 -3.17732e-07 0)
(11.6977 -1.43037e-06 0)
(11.5 -2.72981e-06 0)
(11.3043 -3.41237e-06 0)
(11.1105 -4.08476e-06 0)
(10.9187 -4.99115e-06 0)
(10.7288 -5.44864e-06 0)
(10.5409 -6.15683e-06 0)
(10.355 -6.17132e-06 0)
(10.171 -6.52087e-06 0)
(9.98902 -6.54634e-06 0)
(9.80896 -6.85312e-06 0)
(9.63087 -6.70867e-06 0)
(9.45473 -6.86869e-06 0)
(9.28054 -7.04178e-06 0)
(9.10831 -7.17046e-06 0)
(8.93802 -7.10774e-06 0)
(8.76968 -7.04945e-06 0)
(8.60329 -6.95792e-06 0)
(8.43884 -6.80881e-06 0)
(8.27632 -6.8599e-06 0)
(8.11574 -7.02155e-06 0)
(7.95709 -7.10007e-06 0)
(7.80037 -7.23077e-06 0)
(7.64558 -7.40566e-06 0)
(7.49271 -7.43353e-06 0)
(7.34175 -7.7752e-06 0)
(7.1927 -7.37812e-06 0)
(7.04556 -7.58678e-06 0)
(6.90033 -7.548e-06 0)
(6.75699 -7.41815e-06 0)
(6.61554 -7.41793e-06 0)
(6.47598 -7.35031e-06 0)
(6.33831 -7.41306e-06 0)
(6.20251 -7.37152e-06 0)
(6.06858 -7.41884e-06 0)
(5.93652 -7.43864e-06 0)
(5.80632 -7.69198e-06 0)
(5.67798 -7.83042e-06 0)
(5.55148 -7.88201e-06 0)
(5.42682 -7.70674e-06 0)
(5.30401 -7.82153e-06 0)
(5.18302 -7.90018e-06 0)
(5.06386 -7.85327e-06 0)
(4.94651 -7.8776e-06 0)
(4.83098 -7.81009e-06 0)
(4.71725 -7.70854e-06 0)
(4.60531 -7.28813e-06 0)
(4.49517 -7.29753e-06 0)
(4.38681 -7.28453e-06 0)
(4.28022 -7.48005e-06 0)
(4.17539 -7.74501e-06 0)
(4.07233 -7.59435e-06 0)
(3.97101 -7.54877e-06 0)
(3.87142 -7.70001e-06 0)
(3.77356 -7.83427e-06 0)
(3.67741 -7.98313e-06 0)
(3.58297 -8.00013e-06 0)
(3.49021 -8.15419e-06 0)
(3.39915 -7.71126e-06 0)
(3.30975 -7.87757e-06 0)
(3.22202 -7.95748e-06 0)
(3.13594 -8.18748e-06 0)
(3.05152 -7.90324e-06 0)
(2.96872 -7.83232e-06 0)
(2.88755 -7.88455e-06 0)
(2.80801 -8.01756e-06 0)
(2.73008 -8.31194e-06 0)
(2.65374 -8.24998e-06 0)
(2.57899 -7.78941e-06 0)
(2.50581 -7.86283e-06 0)
(2.43419 -7.46997e-06 0)
(2.36411 -8.2266e-06 0)
(2.29557 -7.8531e-06 0)
(2.22854 -8.35435e-06 0)
(2.16302 -6.82934e-06 0)
(2.09897 -8.53095e-06 0)
(2.03644 -6.92193e-06 0)
(1.97531 -1.03475e-05 0)
(1.91571 -5.9902e-06 0)
(1.85746 -1.10431e-05 0)
(1.80072 -5.64144e-06 0)
(1.74529 -1.14808e-05 0)
(1.69136 -3.80563e-06 0)
(1.63867 -1.01442e-05 0)
(1.58747 -1.57326e-06 0)
(1.53743 7.42339e-06 0)
(1.48864 7.24382e-05 0)
(1.44021 0.000324895 0)
(1.39081 0.00138247 0)
(1.3205 0.00499613 0)
(1.27797 0.0394955 0)
(0.712665 0.0633003 0)
(42.5723 0.000113947 0)
(42.2533 9.95196e-05 0)
(41.8783 9.86171e-05 0)
(41.5248 0.00010371 0)
(41.1902 0.000106846 0)
(40.8587 0.000109112 0)
(40.5248 0.00011113 0)
(40.1895 0.000112881 0)
(39.8544 0.000114332 0)
(39.5197 0.000115506 0)
(39.1853 0.000116435 0)
(38.8511 0.000117154 0)
(38.5173 0.000117709 0)
(38.1837 0.000118035 0)
(37.8506 0.000118681 0)
(37.5178 0.000119163 0)
(37.1853 0.000119214 0)
(36.8534 0.000119515 0)
(36.5219 0.000119715 0)
(36.191 0.000119873 0)
(35.8605 0.000120128 0)
(35.5307 0.000120491 0)
(35.2014 0.000120868 0)
(34.8728 0.000121227 0)
(34.5449 0.00012138 0)
(34.2176 0.000121455 0)
(33.8911 0.000121088 0)
(33.5652 0.000120927 0)
(33.2402 0.000120366 0)
(32.916 0.000120316 0)
(32.5926 0.000120227 0)
(32.2701 0.000120373 0)
(31.9485 0.000120653 0)
(31.6277 0.000121084 0)
(31.308 0.000121241 0)
(30.9892 0.000121436 0)
(30.6714 0.00012152 0)
(30.3546 0.000121652 0)
(30.0388 0.000121302 0)
(29.7242 0.000121354 0)
(29.4106 0.000121117 0)
(29.0982 0.000121221 0)
(28.7869 0.000121177 0)
(28.4768 0.000121262 0)
(28.1679 0.000121225 0)
(27.8603 0.000121255 0)
(27.5538 0.000121238 0)
(27.2487 0.000121277 0)
(26.9448 0.000121549 0)
(26.6423 0.000121599 0)
(26.341 0.000121914 0)
(26.0412 0.000122182 0)
(25.7427 0.000122279 0)
(25.4456 0.000122386 0)
(25.1499 0.000122462 0)
(24.8557 0.000122389 0)
(24.5629 0.000122247 0)
(24.2716 0.000121846 0)
(23.9818 0.000121543 0)
(23.6935 0.000120795 0)
(23.4067 0.000120779 0)
(23.1215 0.000120294 0)
(22.8379 0.000120957 0)
(22.5558 0.000121327 0)
(22.2753 0.000122021 0)
(21.9965 0.000122697 0)
(21.7192 0.00012286 0)
(21.4437 0.000122794 0)
(21.1698 0.00012251 0)
(20.8975 0.000122246 0)
(20.627 0.000121613 0)
(20.3581 0.000120975 0)
(20.091 0.000120276 0)
(19.8256 0.000119651 0)
(19.562 0.000119067 0)
(19.3001 0.000118392 0)
(19.04 0.000117553 0)
(18.7816 0.000116416 0)
(18.5251 0.000114911 0)
(18.2703 0.000113036 0)
(18.0173 0.000110812 0)
(17.7662 0.00010822 0)
(17.5169 0.000105245 0)
(17.2694 0.000101934 0)
(17.0238 9.83158e-05 0)
(16.78 9.44484e-05 0)
(16.538 9.0318e-05 0)
(16.298 8.58749e-05 0)
(16.0598 8.10782e-05 0)
(15.8235 7.58994e-05 0)
(15.589 7.04382e-05 0)
(15.3565 6.47866e-05 0)
(15.1259 5.90433e-05 0)
(14.8971 5.33728e-05 0)
(14.6703 4.78738e-05 0)
(14.4454 4.27046e-05 0)
(14.2224 3.77915e-05 0)
(14.0013 3.32267e-05 0)
(13.7822 2.88556e-05 0)
(13.565 2.46255e-05 0)
(13.3497 2.08556e-05 0)
(13.1364 1.72158e-05 0)
(12.925 1.3989e-05 0)
(12.7156 1.11259e-05 0)
(12.5081 8.92671e-06 0)
(12.3026 6.74184e-06 0)
(12.099 5.09466e-06 0)
(11.8974 3.2968e-06 0)
(11.6977 1.79402e-06 0)
(11.5 4.94968e-07 0)
(11.3043 -3.11663e-07 0)
(11.1105 -1.02185e-06 0)
(10.9187 -1.88608e-06 0)
(10.7288 -2.41456e-06 0)
(10.5409 -3.05032e-06 0)
(10.355 -3.1716e-06 0)
(10.171 -3.45758e-06 0)
(9.98902 -3.53596e-06 0)
(9.80896 -3.79159e-06 0)
(9.63087 -3.71134e-06 0)
(9.45473 -3.84264e-06 0)
(9.28054 -3.98029e-06 0)
(9.10831 -4.11356e-06 0)
(8.93802 -4.0907e-06 0)
(8.76968 -4.02356e-06 0)
(8.60329 -3.93975e-06 0)
(8.43884 -3.81315e-06 0)
(8.27632 -3.82197e-06 0)
(8.11574 -3.97471e-06 0)
(7.95709 -4.05963e-06 0)
(7.80037 -4.16126e-06 0)
(7.64558 -4.29752e-06 0)
(7.49271 -4.38217e-06 0)
(7.34175 -4.61734e-06 0)
(7.1927 -4.34127e-06 0)
(7.04556 -4.49673e-06 0)
(6.90033 -4.47341e-06 0)
(6.75699 -4.34619e-06 0)
(6.61554 -4.34515e-06 0)
(6.47598 -4.27357e-06 0)
(6.33831 -4.325e-06 0)
(6.20251 -4.3066e-06 0)
(6.06858 -4.32022e-06 0)
(5.93652 -4.36974e-06 0)
(5.80632 -4.53969e-06 0)
(5.67798 -4.73018e-06 0)
(5.55148 -4.73227e-06 0)
(5.42682 -4.59508e-06 0)
(5.30401 -4.70266e-06 0)
(5.18302 -4.784e-06 0)
(5.06386 -4.74963e-06 0)
(4.94651 -4.61929e-06 0)
(4.83098 -4.44697e-06 0)
(4.71725 -4.30539e-06 0)
(4.60531 -4.13118e-06 0)
(4.49517 -4.29232e-06 0)
(4.38681 -4.30667e-06 0)
(4.28022 -4.585e-06 0)
(4.1754 -4.7962e-06 0)
(4.07233 -4.61176e-06 0)
(3.97101 -4.46695e-06 0)
(3.87142 -4.64067e-06 0)
(3.77356 -4.73243e-06 0)
(3.67741 -4.82168e-06 0)
(3.58297 -4.94204e-06 0)
(3.49021 -4.95871e-06 0)
(3.39915 -4.58137e-06 0)
(3.30975 -4.77691e-06 0)
(3.22202 -4.86448e-06 0)
(3.13594 -5.06882e-06 0)
(3.05152 -4.75874e-06 0)
(2.96872 -4.72993e-06 0)
(2.88755 -4.70464e-06 0)
(2.80801 -4.97858e-06 0)
(2.73008 -5.22552e-06 0)
(2.65374 -5.07875e-06 0)
(2.57899 -4.65568e-06 0)
(2.50581 -4.893e-06 0)
(2.43419 -4.32719e-06 0)
(2.36411 -5.27106e-06 0)
(2.29557 -4.30543e-06 0)
(2.22854 -5.98032e-06 0)
(2.16302 -3.28644e-06 0)
(2.09897 -6.66601e-06 0)
(2.03644 -2.5282e-06 0)
(1.97531 -9.02049e-06 0)
(1.91571 -9.15875e-07 0)
(1.85746 -8.88101e-06 0)
(1.80072 -8.34225e-07 0)
(1.74529 -1.09162e-05 0)
(1.69136 1.07849e-06 0)
(1.63867 -9.33566e-06 0)
(1.58747 1.03813e-05 0)
(1.53743 3.3886e-05 0)
(1.48867 0.000199174 0)
(1.44036 0.000824536 0)
(1.3914 0.00324958 0)
(1.32616 0.00947647 0)
(1.29052 0.0483349 0)
(0.984988 0.0370056 0)
(42.5722 3.44464e-05 0)
(42.2533 2.69671e-05 0)
(41.8783 1.96633e-05 0)
(41.5248 1.67307e-05 0)
(41.1902 1.43164e-05 0)
(40.8587 1.2206e-05 0)
(40.5248 1.05476e-05 0)
(40.1895 9.21963e-06 0)
(39.8544 8.10905e-06 0)
(39.5196 7.17028e-06 0)
(39.1852 6.38287e-06 0)
(38.8511 5.72913e-06 0)
(38.5172 5.19418e-06 0)
(38.1837 4.72069e-06 0)
(37.8505 4.58391e-06 0)
(37.5177 4.33309e-06 0)
(37.1853 4.00836e-06 0)
(36.8534 3.7763e-06 0)
(36.5219 3.46997e-06 0)
(36.1909 3.13967e-06 0)
(35.8605 2.87486e-06 0)
(35.5307 2.74105e-06 0)
(35.2014 2.73122e-06 0)
(34.8728 2.81948e-06 0)
(34.5448 2.90145e-06 0)
(34.2176 2.95665e-06 0)
(33.891 2.82485e-06 0)
(33.5652 2.68139e-06 0)
(33.2402 2.34306e-06 0)
(32.916 2.12061e-06 0)
(32.5926 1.86559e-06 0)
(32.2701 1.70787e-06 0)
(31.9484 1.65755e-06 0)
(31.6277 1.73044e-06 0)
(31.3079 1.81635e-06 0)
(30.9891 1.98625e-06 0)
(30.6713 2.15728e-06 0)
(30.3546 2.31788e-06 0)
(30.0388 2.30154e-06 0)
(29.7242 2.35241e-06 0)
(29.4106 2.26503e-06 0)
(29.0982 2.21127e-06 0)
(28.7869 2.0496e-06 0)
(28.4768 1.86079e-06 0)
(28.1679 1.61025e-06 0)
(27.8603 1.40729e-06 0)
(27.5538 1.29025e-06 0)
(27.2487 1.32275e-06 0)
(26.9448 1.54057e-06 0)
(26.6422 1.7502e-06 0)
(26.341 2.01717e-06 0)
(26.0411 2.1969e-06 0)
(25.7427 2.22549e-06 0)
(25.4456 2.17164e-06 0)
(25.1499 2.0464e-06 0)
(24.8557 1.83645e-06 0)
(24.5629 1.57317e-06 0)
(24.2716 1.2205e-06 0)
(23.9818 8.9722e-07 0)
(23.6935 5.15659e-07 0)
(23.4067 4.80171e-07 0)
(23.1215 5.05797e-07 0)
(22.8378 1.04506e-06 0)
(22.5558 1.58092e-06 0)
(22.2753 2.16756e-06 0)
(21.9964 2.58603e-06 0)
(21.7192 2.63697e-06 0)
(21.4436 2.45605e-06 0)
(21.1697 2.13213e-06 0)
(20.8975 1.84659e-06 0)
(20.627 1.58572e-06 0)
(20.3581 1.45722e-06 0)
(20.091 1.40322e-06 0)
(19.8256 1.39506e-06 0)
(19.562 1.40623e-06 0)
(19.3001 1.39071e-06 0)
(19.0399 1.33483e-06 0)
(18.7816 1.19867e-06 0)
(18.525 1.00041e-06 0)
(18.2703 7.94747e-07 0)
(18.0173 6.14192e-07 0)
(17.7662 4.34874e-07 0)
(17.5169 1.96524e-07 0)
(17.2694 -1.05037e-07 0)
(17.0237 -4.14215e-07 0)
(16.78 -6.38734e-07 0)
(16.538 -7.51874e-07 0)
(16.298 -8.00828e-07 0)
(16.0598 -8.88852e-07 0)
(15.8235 -1.09496e-06 0)
(15.589 -1.40865e-06 0)
(15.3565 -1.76911e-06 0)
(15.1259 -2.11315e-06 0)
(14.8971 -2.37573e-06 0)
(14.6703 -2.5763e-06 0)
(14.4454 -2.71899e-06 0)
(14.2224 -2.86973e-06 0)
(14.0013 -3.01369e-06 0)
(13.7822 -3.16339e-06 0)
(13.565 -3.29465e-06 0)
(13.3497 -3.32922e-06 0)
(13.1364 -3.38419e-06 0)
(12.925 -3.37415e-06 0)
(12.7156 -3.34951e-06 0)
(12.5081 -3.25569e-06 0)
(12.3026 -3.2468e-06 0)
(12.099 -3.1487e-06 0)
(11.8974 -3.08447e-06 0)
(11.6977 -2.88749e-06 0)
(11.5 -2.84484e-06 0)
(11.3043 -2.7656e-06 0)
(11.1105 -2.73634e-06 0)
(10.9187 -2.78133e-06 0)
(10.7288 -2.75912e-06 0)
(10.5409 -2.80525e-06 0)
(10.355 -2.75237e-06 0)
(10.171 -2.77901e-06 0)
(9.98902 -2.77544e-06 0)
(9.80896 -2.816e-06 0)
(9.63087 -2.76533e-06 0)
(9.45473 -2.7741e-06 0)
(9.28054 -2.80406e-06 0)
(9.10831 -2.81806e-06 0)
(8.93802 -2.80756e-06 0)
(8.76968 -2.79181e-06 0)
(8.60329 -2.78648e-06 0)
(8.43884 -2.78732e-06 0)
(8.27632 -2.80876e-06 0)
(8.11574 -2.83959e-06 0)
(7.95709 -2.84272e-06 0)
(7.80037 -2.83958e-06 0)
(7.64558 -2.87871e-06 0)
(7.49271 -2.87685e-06 0)
(7.34175 -2.92536e-06 0)
(7.1927 -2.8767e-06 0)
(7.04556 -2.90701e-06 0)
(6.90033 -2.90528e-06 0)
(6.75699 -2.87227e-06 0)
(6.61554 -2.86405e-06 0)
(6.47598 -2.86712e-06 0)
(6.33831 -2.8886e-06 0)
(6.20251 -2.90167e-06 0)
(6.06858 -2.91485e-06 0)
(5.93652 -2.92631e-06 0)
(5.80632 -2.9482e-06 0)
(5.67798 -2.94426e-06 0)
(5.55148 -2.92357e-06 0)
(5.42682 -2.93179e-06 0)
(5.30401 -2.96679e-06 0)
(5.18302 -2.98526e-06 0)
(5.06386 -2.96819e-06 0)
(4.94651 -3.01487e-06 0)
(4.83098 -3.11418e-06 0)
(4.71725 -3.14269e-06 0)
(4.60531 -3.01986e-06 0)
(4.49517 -2.8731e-06 0)
(4.38681 -2.82695e-06 0)
(4.28022 -2.84235e-06 0)
(4.1754 -2.87396e-06 0)
(4.07233 -2.87991e-06 0)
(3.97101 -2.92034e-06 0)
(3.87142 -2.96355e-06 0)
(3.77356 -2.983e-06 0)
(3.67741 -3.00307e-06 0)
(3.58297 -2.98934e-06 0)
(3.49021 -2.99612e-06 0)
(3.39915 -3.0056e-06 0)
(3.30975 -3.01045e-06 0)
(3.22202 -3.00565e-06 0)
(3.13594 -2.95169e-06 0)
(3.05152 -2.90399e-06 0)
(2.96872 -2.94381e-06 0)
(2.88755 -3.0285e-06 0)
(2.80801 -3.02395e-06 0)
(2.73008 -3.00047e-06 0)
(2.65374 -2.98477e-06 0)
(2.57899 -2.95466e-06 0)
(2.50581 -2.99279e-06 0)
(2.43419 -2.69044e-06 0)
(2.36411 -3.58723e-06 0)
(2.29557 -1.65042e-06 0)
(2.22854 -5.73311e-06 0)
(2.16302 1.27682e-06 0)
(2.09897 -9.14777e-06 0)
(2.03644 5.02013e-06 0)
(1.97531 -1.45585e-05 0)
(1.91571 1.03798e-05 0)
(1.85746 -2.00177e-05 0)
(1.80072 1.71869e-05 0)
(1.74529 -2.51864e-05 0)
(1.69136 2.23203e-05 0)
(1.63868 -1.94817e-05 0)
(1.58748 3.31194e-05 0)
(1.53747 5.92072e-05 0)
(1.48885 0.000345251 0)
(1.44106 0.00137881 0)
(1.39319 0.00574104 0)
(1.33134 0.0212408 0)
(1.27957 0.120852 0)
(0.818345 0.181117 0)
(42.5722 -3.44464e-05 0)
(42.2533 -2.69671e-05 0)
(41.8783 -1.96633e-05 0)
(41.5248 -1.67307e-05 0)
(41.1902 -1.43164e-05 0)
(40.8587 -1.2206e-05 0)
(40.5248 -1.05476e-05 0)
(40.1895 -9.21963e-06 0)
(39.8544 -8.10905e-06 0)
(39.5196 -7.17028e-06 0)
(39.1852 -6.38287e-06 0)
(38.8511 -5.72912e-06 0)
(38.5172 -5.19418e-06 0)
(38.1837 -4.72069e-06 0)
(37.8505 -4.58391e-06 0)
(37.5177 -4.33309e-06 0)
(37.1853 -4.00837e-06 0)
(36.8534 -3.7763e-06 0)
(36.5219 -3.46997e-06 0)
(36.1909 -3.13967e-06 0)
(35.8605 -2.87486e-06 0)
(35.5307 -2.74105e-06 0)
(35.2014 -2.73122e-06 0)
(34.8728 -2.81948e-06 0)
(34.5448 -2.90145e-06 0)
(34.2176 -2.95665e-06 0)
(33.891 -2.82484e-06 0)
(33.5652 -2.68139e-06 0)
(33.2402 -2.34306e-06 0)
(32.916 -2.12061e-06 0)
(32.5926 -1.86559e-06 0)
(32.2701 -1.70787e-06 0)
(31.9484 -1.65755e-06 0)
(31.6277 -1.73044e-06 0)
(31.3079 -1.81636e-06 0)
(30.9891 -1.98625e-06 0)
(30.6713 -2.15728e-06 0)
(30.3546 -2.31788e-06 0)
(30.0388 -2.30153e-06 0)
(29.7242 -2.3524e-06 0)
(29.4106 -2.26502e-06 0)
(29.0982 -2.21126e-06 0)
(28.7869 -2.0496e-06 0)
(28.4768 -1.86079e-06 0)
(28.1679 -1.61025e-06 0)
(27.8603 -1.40728e-06 0)
(27.5538 -1.29025e-06 0)
(27.2487 -1.32275e-06 0)
(26.9448 -1.54057e-06 0)
(26.6422 -1.7502e-06 0)
(26.341 -2.01717e-06 0)
(26.0411 -2.1969e-06 0)
(25.7427 -2.22548e-06 0)
(25.4456 -2.17164e-06 0)
(25.1499 -2.0464e-06 0)
(24.8557 -1.83646e-06 0)
(24.5629 -1.57317e-06 0)
(24.2716 -1.2205e-06 0)
(23.9818 -8.97219e-07 0)
(23.6935 -5.1566e-07 0)
(23.4067 -4.80172e-07 0)
(23.1215 -5.05799e-07 0)
(22.8378 -1.04506e-06 0)
(22.5558 -1.58093e-06 0)
(22.2753 -2.16757e-06 0)
(21.9964 -2.58603e-06 0)
(21.7192 -2.63697e-06 0)
(21.4436 -2.45606e-06 0)
(21.1697 -2.13213e-06 0)
(20.8975 -1.84658e-06 0)
(20.627 -1.58572e-06 0)
(20.3581 -1.45722e-06 0)
(20.091 -1.40322e-06 0)
(19.8256 -1.39506e-06 0)
(19.562 -1.40623e-06 0)
(19.3001 -1.39072e-06 0)
(19.0399 -1.33483e-06 0)
(18.7816 -1.19867e-06 0)
(18.525 -1.00041e-06 0)
(18.2703 -7.94749e-07 0)
(18.0173 -6.14193e-07 0)
(17.7662 -4.34876e-07 0)
(17.5169 -1.96526e-07 0)
(17.2694 1.05035e-07 0)
(17.0237 4.14214e-07 0)
(16.78 6.38734e-07 0)
(16.538 7.51873e-07 0)
(16.298 8.00828e-07 0)
(16.0598 8.88853e-07 0)
(15.8235 1.09496e-06 0)
(15.589 1.40865e-06 0)
(15.3565 1.76911e-06 0)
(15.1259 2.11315e-06 0)
(14.8971 2.37573e-06 0)
(14.6703 2.5763e-06 0)
(14.4454 2.71899e-06 0)
(14.2224 2.86973e-06 0)
(14.0013 3.01369e-06 0)
(13.7822 3.16339e-06 0)
(13.565 3.29465e-06 0)
(13.3497 3.32922e-06 0)
(13.1364 3.38419e-06 0)
(12.925 3.37415e-06 0)
(12.7156 3.34951e-06 0)
(12.5081 3.25569e-06 0)
(12.3026 3.2468e-06 0)
(12.099 3.1487e-06 0)
(11.8974 3.08447e-06 0)
(11.6977 2.88749e-06 0)
(11.5 2.84484e-06 0)
(11.3043 2.7656e-06 0)
(11.1105 2.73634e-06 0)
(10.9187 2.78133e-06 0)
(10.7288 2.75912e-06 0)
(10.5409 2.80525e-06 0)
(10.355 2.75237e-06 0)
(10.171 2.77901e-06 0)
(9.98902 2.77544e-06 0)
(9.80896 2.816e-06 0)
(9.63087 2.76533e-06 0)
(9.45473 2.7741e-06 0)
(9.28054 2.80406e-06 0)
(9.10831 2.81806e-06 0)
(8.93802 2.80756e-06 0)
(8.76968 2.79181e-06 0)
(8.60329 2.78648e-06 0)
(8.43884 2.78732e-06 0)
(8.27632 2.80876e-06 0)
(8.11574 2.83959e-06 0)
(7.95709 2.84272e-06 0)
(7.80037 2.83958e-06 0)
(7.64558 2.87871e-06 0)
(7.49271 2.87684e-06 0)
(7.34175 2.92536e-06 0)
(7.1927 2.8767e-06 0)
(7.04556 2.90701e-06 0)
(6.90033 2.90528e-06 0)
(6.75699 2.87227e-06 0)
(6.61554 2.86405e-06 0)
(6.47598 2.86712e-06 0)
(6.33831 2.88859e-06 0)
(6.20251 2.90167e-06 0)
(6.06858 2.91484e-06 0)
(5.93652 2.92632e-06 0)
(5.80632 2.94819e-06 0)
(5.67798 2.94426e-06 0)
(5.55148 2.92357e-06 0)
(5.42682 2.9318e-06 0)
(5.30401 2.96678e-06 0)
(5.18302 2.98526e-06 0)
(5.06386 2.96818e-06 0)
(4.94651 3.01487e-06 0)
(4.83098 3.11418e-06 0)
(4.71725 3.14269e-06 0)
(4.60531 3.01986e-06 0)
(4.49517 2.8731e-06 0)
(4.38681 2.82695e-06 0)
(4.28022 2.84235e-06 0)
(4.1754 2.87395e-06 0)
(4.07233 2.87992e-06 0)
(3.97101 2.92034e-06 0)
(3.87142 2.96355e-06 0)
(3.77356 2.98299e-06 0)
(3.67741 3.00307e-06 0)
(3.58297 2.98935e-06 0)
(3.49021 2.99612e-06 0)
(3.39915 3.0056e-06 0)
(3.30975 3.01046e-06 0)
(3.22202 3.00564e-06 0)
(3.13594 2.95169e-06 0)
(3.05152 2.90399e-06 0)
(2.96872 2.94378e-06 0)
(2.88755 3.0286e-06 0)
(2.80801 3.02332e-06 0)
(2.73008 3.00365e-06 0)
(2.65374 2.9684e-06 0)
(2.57899 3.02172e-06 0)
(2.50581 2.7259e-06 0)
(2.43419 3.50801e-06 0)
(2.36411 1.31391e-06 0)
(2.29557 6.10215e-06 0)
(2.22854 -2.47088e-06 0)
(2.16301 8.65912e-06 0)
(2.09899 -6.39354e-06 0)
(2.03642 1.44729e-05 0)
(1.97533 -1.27734e-05 0)
(1.91568 2.12774e-05 0)
(1.85749 -1.8505e-05 0)
(1.80067 2.73293e-05 0)
(1.74533 -2.07872e-05 0)
(1.69131 3.08639e-05 0)
(1.63872 -2.204e-05 0)
(1.58748 4.79625e-05 0)
(1.53756 5.25625e-05 0)
(1.48909 0.00036985 0)
(1.44214 0.00142885 0)
(1.39776 0.00628094 0)
(1.36394 0.0243692 0)
(1.34206 0.145928 0)
(1.48939 0.206983 0)
(42.5723 -0.000113947 0)
(42.2533 -9.95196e-05 0)
(41.8783 -9.86171e-05 0)
(41.5248 -0.00010371 0)