/*--------------------------------*- C++ -*----------------------------------*\
| =========                 |                                                 |
| \\      /  F ield         | OpenFOAM: The Open Source CFD Toolbox           |
|  \\    /   O peration     | Version:  3.0.x                                 |
|   \\  /    A nd           | Web:      www.OpenFOAM.org                      |
|    \\/     M anipulation  |                                                 |
\*---------------------------------------------------------------------------*/
FoamFile
{
    version     2.0;
    format      ascii;
    class       volScalarField;
    location    "0.43";
    object      p;
}
// * * * * * * * * * * * * * * * * * * * * * * * * * * * * * * * * * * * * * //

dimensions      [1 -1 -2 0 0 0 0];

internalField   nonuniform List<scalar> 
6900
(
1.81965e+07
1.81965e+07
1.81965e+07
1.81965e+07
1.81965e+07
1.81965e+07
1.81965e+07
1.81965e+07
1.81965e+07
1.81965e+07
1.81964e+07
1.81964e+07
1.81964e+07
1.81964e+07
1.81964e+07
1.81964e+07
1.81963e+07
1.81963e+07
1.81963e+07
1.81963e+07
1.81963e+07
1.81963e+07
1.81963e+07
1.81963e+07
1.81963e+07
1.81963e+07
1.81963e+07
1.81963e+07
1.81963e+07
1.81964e+07
1.81964e+07
1.81964e+07
1.81964e+07
1.81964e+07
1.81964e+07
1.81965e+07
1.81965e+07
1.81965e+07
1.81965e+07
1.81965e+07
1.81965e+07
1.81965e+07
1.81965e+07
1.81965e+07
1.81965e+07
1.81964e+07
1.81964e+07
1.81964e+07
1.81964e+07
1.81963e+07
1.81963e+07
1.81963e+07
1.81962e+07
1.81962e+07
1.81962e+07
1.81961e+07
1.81961e+07
1.81961e+07
1.81961e+07
1.81961e+07
1.81961e+07
1.81961e+07
1.81961e+07
1.81961e+07
1.81961e+07
1.81962e+07
1.81962e+07
1.81962e+07
1.81963e+07
1.81963e+07
1.81963e+07
1.81964e+07
1.81964e+07
1.81965e+07
1.81965e+07
1.81965e+07
1.81965e+07
1.81966e+07
1.81966e+07
1.81966e+07
1.81966e+07
1.81965e+07
1.81965e+07
1.81965e+07
1.81965e+07
1.81964e+07
1.81964e+07
1.81963e+07
1.81963e+07
1.81963e+07
1.81962e+07
1.81962e+07
1.81962e+07
1.81961e+07
1.81961e+07
1.81961e+07
1.81961e+07
1.81961e+07
1.81962e+07
1.81962e+07
1.81963e+07
1.81963e+07
1.81964e+07
1.81964e+07
1.81965e+07
1.81966e+07
1.81967e+07
1.81968e+07
1.81969e+07
1.81969e+07
1.8197e+07
1.81971e+07
1.81972e+07
1.81972e+07
1.81973e+07
1.81973e+07
1.81973e+07
1.81974e+07
1.81974e+07
1.81974e+07
1.81974e+07
1.81974e+07
1.81974e+07
1.81974e+07
1.81974e+07
1.81975e+07
1.81975e+07
1.81975e+07
1.81976e+07
1.81976e+07
1.81977e+07
1.81978e+07
1.81979e+07
1.8198e+07
1.81981e+07
1.81983e+07
1.81985e+07
1.81987e+07
1.81989e+07
1.81992e+07
1.81994e+07
1.81997e+07
1.82e+07
1.82003e+07
1.82006e+07
1.82008e+07
1.82011e+07
1.82014e+07
1.82017e+07
1.8202e+07
1.82023e+07
1.82026e+07
1.82029e+07
1.82032e+07
1.82034e+07
1.82037e+07
1.8204e+07
1.82043e+07
1.82046e+07
1.82049e+07
1.82053e+07
1.82056e+07
1.8206e+07
1.82063e+07
1.82067e+07
1.82072e+07
1.82076e+07
1.82081e+07
1.82087e+07
1.82092e+07
1.82098e+07
1.82105e+07
1.82111e+07
1.82119e+07
1.82126e+07
1.82134e+07
1.82142e+07
1.8215e+07
1.82159e+07
1.82168e+07
1.82177e+07
1.82185e+07
1.82194e+07
1.82203e+07
1.82212e+07
1.82221e+07
1.8223e+07
1.82239e+07
1.82248e+07
1.82257e+07
1.82267e+07
1.82276e+07
1.82286e+07
1.82295e+07
1.82305e+07
1.82315e+07
1.82326e+07
1.82336e+07
1.82348e+07
1.82365e+07
1.81965e+07
1.81965e+07
1.81965e+07
1.81965e+07
1.81965e+07
1.81965e+07
1.81965e+07
1.81965e+07
1.81965e+07
1.81965e+07
1.81964e+07
1.81964e+07
1.81964e+07
1.81964e+07
1.81964e+07
1.81964e+07
1.81963e+07
1.81963e+07
1.81963e+07
1.81963e+07
1.81963e+07
1.81963e+07
1.81963e+07
1.81963e+07
1.81963e+07
1.81963e+07
1.81963e+07
1.81963e+07
1.81963e+07
1.81964e+07
1.81964e+07
1.81964e+07
1.81964e+07
1.81964e+07
1.81964e+07
1.81965e+07
1.81965e+07
1.81965e+07
1.81965e+07
1.81965e+07
1.81965e+07
1.81965e+07
1.81965e+07
1.81965e+07
1.81965e+07
1.81964e+07
1.81964e+07
1.81964e+07
1.81964e+07
1.81963e+07
1.81963e+07
1.81963e+07
1.81962e+07
1.81962e+07
1.81962e+07
1.81961e+07
1.81961e+07
1.81961e+07
1.81961e+07
1.81961e+07
1.81961e+07
1.81961e+07
1.81961e+07
1.81961e+07
1.81961e+07
1.81962e+07
1.81962e+07
1.81962e+07
1.81963e+07
1.81963e+07
1.81963e+07
1.81964e+07
1.81964e+07
1.81965e+07
1.81965e+07
1.81965e+07
1.81965e+07
1.81966e+07
1.81966e+07
1.81966e+07
1.81966e+07
1.81965e+07
1.81965e+07
1.81965e+07
1.81965e+07
1.81964e+07
1.81964e+07
1.81963e+07
1.81963e+07
1.81963e+07
1.81962e+07
1.81962e+07
1.81962e+07
1.81961e+07
1.81961e+07
1.81961e+07
1.81961e+07
1.81961e+07
1.81962e+07
1.81962e+07
1.81963e+07
1.81963e+07
1.81964e+07
1.81964e+07
1.81965e+07
1.81966e+07
1.81967e+07
1.81968e+07
1.81969e+07
1.81969e+07
1.8197e+07
1.81971e+07
1.81972e+07
1.81972e+07
1.81973e+07
1.81973e+07
1.81973e+07
1.81974e+07
1.81974e+07
1.81974e+07
1.81974e+07
1.81974e+07
1.81974e+07
1.81974e+07
1.81974e+07
1.81975e+07
1.81975e+07
1.81975e+07
1.81976e+07
1.81976e+07
1.81977e+07
1.81978e+07
1.81979e+07
1.8198e+07
1.81981e+07
1.81983e+07
1.81985e+07
1.81987e+07
1.81989e+07
1.81992e+07
1.81994e+07
1.81997e+07
1.82e+07
1.82003e+07
1.82006e+07
1.82008e+07
1.82011e+07
1.82014e+07
1.82017e+07
1.8202e+07
1.82023e+07
1.82026e+07
1.82029e+07
1.82032e+07
1.82034e+07
1.82037e+07
1.8204e+07
1.82043e+07
1.82046e+07
1.82049e+07
1.82053e+07
1.82056e+07
1.8206e+07
1.82063e+07
1.82067e+07
1.82072e+07
1.82076e+07
1.82081e+07
1.82087e+07
1.82092e+07
1.82098e+07
1.82105e+07
1.82111e+07
1.82119e+07
1.82126e+07
1.82134e+07
1.82142e+07
1.8215e+07
1.82159e+07
1.82168e+07
1.82177e+07
1.82185e+07
1.82194e+07
1.82203e+07
1.82212e+07
1.82221e+07
1.8223e+07
1.82239e+07
1.82248e+07
1.82257e+07
1.82267e+07
1.82276e+07
1.82286e+07
1.82295e+07
1.82305e+07
1.82315e+07
1.82326e+07
1.82336e+07
1.82348e+07
1.82365e+07
1.81965e+07
1.81965e+07
1.81965e+07
1.81965e+07
1.81965e+07
1.81965e+07
1.81965e+07
1.81965e+07
1.81965e+07
1.81965e+07
1.81964e+07
1.81964e+07
1.81964e+07
1.81964e+07
1.81964e+07
1.81964e+07
1.81963e+07
1.81963e+07
1.81963e+07
1.81963e+07
1.81963e+07
1.81963e+07
1.81963e+07
1.81963e+07
1.81963e+07
1.81963e+07
1.81963e+07
1.81963e+07
1.81963e+07
1.81964e+07
1.81964e+07
1.81964e+07
1.81964e+07
1.81964e+07
1.81964e+07
1.81965e+07
1.81965e+07
1.81965e+07
1.81965e+07
1.81965e+07
1.81965e+07
1.81965e+07
1.81965e+07
1.81965e+07
1.81965e+07
1.81964e+07
1.81964e+07
1.81964e+07
1.81964e+07
1.81963e+07
1.81963e+07
1.81963e+07
1.81962e+07
1.81962e+07
1.81962e+07
1.81961e+07
1.81961e+07
1.81961e+07
1.81961e+07
1.81961e+07
1.81961e+07
1.81961e+07
1.81961e+07
1.81961e+07
1.81961e+07
1.81962e+07
1.81962e+07
1.81962e+07
1.81963e+07
1.81963e+07
1.81963e+07
1.81964e+07
1.81964e+07
1.81965e+07
1.81965e+07
1.81965e+07
1.81965e+07
1.81966e+07
1.81966e+07
1.81966e+07
1.81966e+07
1.81965e+07
1.81965e+07
1.81965e+07
1.81965e+07
1.81964e+07
1.81964e+07
1.81963e+07
1.81963e+07
1.81963e+07
1.81962e+07
1.81962e+07
1.81962e+07
1.81961e+07
1.81961e+07
1.81961e+07
1.81961e+07
1.81961e+07
1.81962e+07
1.81962e+07
1.81963e+07
1.81963e+07
1.81964e+07
1.81964e+07
1.81965e+07
1.81966e+07
1.81967e+07
1.81968e+07
1.81969e+07
1.81969e+07
1.8197e+07
1.81971e+07
1.81972e+07
1.81972e+07
1.81973e+07
1.81973e+07
1.81973e+07
1.81974e+07
1.81974e+07
1.81974e+07
1.81974e+07
1.81974e+07
1.81974e+07
1.81974e+07
1.81974e+07
1.81975e+07
1.81975e+07
1.81975e+07
1.81976e+07
1.81976e+07
1.81977e+07
1.81978e+07
1.81979e+07
1.8198e+07
1.81981e+07
1.81983e+07
1.81985e+07
1.81987e+07
1.81989e+07
1.81992e+07
1.81994e+07
1.81997e+07
1.82e+07
1.82003e+07
1.82006e+07
1.82008e+07
1.82011e+07
1.82014e+07
1.82017e+07
1.8202e+07
1.82023e+07
1.82026e+07
1.82029e+07
1.82032e+07
1.82034e+07
1.82037e+07
1.8204e+07
1.82043e+07
1.82046e+07
1.82049e+07
1.82053e+07
1.82056e+07
1.8206e+07
1.82063e+07
1.82067e+07
1.82072e+07
1.82076e+07
1.82081e+07
1.82087e+07
1.82092e+07
1.82098e+07
1.82105e+07
1.82111e+07
1.82119e+07
1.82126e+07
1.82134e+07
1.82142e+07
1.8215e+07
1.82159e+07
1.82168e+07
1.82177e+07
1.82185e+07
1.82194e+07
1.82203e+07
1.82212e+07
1.82221e+07
1.8223e+07
1.82239e+07
1.82248e+07
1.82257e+07
1.82267e+07
1.82276e+07
1.82286e+07
1.82295e+07
1.82305e+07
1.82315e+07
1.82326e+07
1.82336e+07
1.82347e+07
1.82358e+07
1.81965e+07
1.81965e+07
1.81965e+07
1.81965e+07
1.81965e+07
1.81965e+07
1.81965e+07
1.81965e+07
1.81965e+07
1.81965e+07
1.81964e+07
1.81964e+07
1.81964e+07
1.81964e+07
1.81964e+07
1.81964e+07
1.81963e+07
1.81963e+07
1.81963e+07
1.81963e+07
1.81963e+07
1.81963e+07
1.81963e+07
1.81963e+07
1.81963e+07
1.81963e+07
1.81963e+07
1.81963e+07
1.81963e+07
1.81964e+07
1.81964e+07
1.81964e+07
1.81964e+07
1.81964e+07
1.81964e+07
1.81965e+07
1.81965e+07
1.81965e+07
1.81965e+07
1.81965e+07
1.81965e+07
1.81965e+07
1.81965e+07
1.81965e+07
1.81965e+07
1.81964e+07
1.81964e+07
1.81964e+07
1.81964e+07
1.81963e+07
1.81963e+07
1.81963e+07
1.81962e+07
1.81962e+07
1.81962e+07
1.81961e+07
1.81961e+07
1.81961e+07
1.81961e+07
1.81961e+07
1.81961e+07
1.81961e+07
1.81961e+07
1.81961e+07
1.81961e+07
1.81962e+07
1.81962e+07
1.81962e+07
1.81963e+07
1.81963e+07
1.81963e+07
1.81964e+07
1.81964e+07
1.81965e+07
1.81965e+07
1.81965e+07
1.81965e+07
1.81966e+07
1.81966e+07
1.81966e+07
1.81966e+07
1.81965e+07
1.81965e+07
1.81965e+07
1.81965e+07
1.81964e+07
1.81964e+07
1.81963e+07
1.81963e+07
1.81963e+07
1.81962e+07
1.81962e+07
1.81962e+07
1.81961e+07
1.81961e+07
1.81961e+07
1.81961e+07
1.81961e+07
1.81962e+07
1.81962e+07
1.81963e+07
1.81963e+07
1.81964e+07
1.81964e+07
1.81965e+07
1.81966e+07
1.81967e+07
1.81968e+07
1.81969e+07
1.81969e+07
1.8197e+07
1.81971e+07
1.81972e+07
1.81972e+07
1.81973e+07
1.81973e+07
1.81973e+07
1.81974e+07
1.81974e+07
1.81974e+07
1.81974e+07
1.81974e+07
1.81974e+07
1.81974e+07
1.81974e+07
1.81975e+07
1.81975e+07
1.81975e+07
1.81976e+07
1.81976e+07
1.81977e+07
1.81978e+07
1.81979e+07
1.8198e+07
1.81981e+07
1.81983e+07
1.81985e+07
1.81987e+07
1.81989e+07
1.81992e+07
1.81994e+07
1.81997e+07
1.82e+07
1.82003e+07
1.82006e+07
1.82008e+07
1.82011e+07
1.82014e+07
1.82017e+07
1.8202e+07
1.82023e+07
1.82026e+07
1.82029e+07
1.82032e+07
1.82034e+07
1.82037e+07
1.8204e+07
1.82043e+07
1.82046e+07
1.82049e+07
1.82053e+07
1.82056e+07
1.8206e+07
1.82063e+07
1.82067e+07
1.82072e+07
1.82076e+07
1.82081e+07
1.82087e+07
1.82092e+07
1.82098e+07
1.82105e+07
1.82111e+07
1.82119e+07
1.82126e+07
1.82134e+07
1.82142e+07
1.8215e+07
1.82159e+07
1.82168e+07
1.82177e+07
1.82185e+07
1.82194e+07
1.82203e+07
1.82212e+07
1.82221e+07
1.8223e+07
1.82239e+07
1.82248e+07
1.82257e+07
1.82267e+07
1.82276e+07
1.82286e+07
1.82295e+07
1.82305e+07
1.82315e+07
1.82326e+07
1.82336e+07
1.82344e+07
1.82349e+07
1.81965e+07
1.81965e+07
1.81965e+07
1.81965e+07
1.81965e+07
1.81965e+07
1.81965e+07
1.81965e+07
1.81965e+07
1.81965e+07
1.81964e+07
1.81964e+07
1.81964e+07
1.81964e+07
1.81964e+07
1.81964e+07
1.81963e+07
1.81963e+07
1.81963e+07
1.81963e+07
1.81963e+07
1.81963e+07
1.81963e+07
1.81963e+07
1.81963e+07
1.81963e+07
1.81963e+07
1.81963e+07
1.81963e+07
1.81964e+07
1.81964e+07
1.81964e+07
1.81964e+07
1.81964e+07
1.81964e+07
1.81965e+07
1.81965e+07
1.81965e+07
1.81965e+07
1.81965e+07
1.81965e+07
1.81965e+07
1.81965e+07
1.81965e+07
1.81965e+07
1.81964e+07
1.81964e+07
1.81964e+07
1.81964e+07
1.81963e+07
1.81963e+07
1.81963e+07
1.81962e+07
1.81962e+07
1.81962e+07
1.81961e+07
1.81961e+07
1.81961e+07
1.81961e+07
1.81961e+07
1.81961e+07
1.81961e+07
1.81961e+07
1.81961e+07
1.81961e+07
1.81962e+07
1.81962e+07
1.81962e+07
1.81963e+07
1.81963e+07
1.81963e+07
1.81964e+07
1.81964e+07
1.81965e+07
1.81965e+07
1.81965e+07
1.81965e+07
1.81966e+07
1.81966e+07
1.81966e+07
1.81966e+07
1.81965e+07
1.81965e+07
1.81965e+07
1.81965e+07
1.81964e+07
1.81964e+07
1.81963e+07
1.81963e+07
1.81963e+07
1.81962e+07
1.81962e+07
1.81962e+07
1.81961e+07
1.81961e+07
1.81961e+07
1.81961e+07
1.81961e+07
1.81962e+07
1.81962e+07
1.81963e+07
1.81963e+07
1.81964e+07
1.81964e+07
1.81965e+07
1.81966e+07
1.81967e+07
1.81968e+07
1.81969e+07
1.81969e+07
1.8197e+07
1.81971e+07
1.81972e+07
1.81972e+07
1.81973e+07
1.81973e+07
1.81973e+07
1.81974e+07
1.81974e+07
1.81974e+07
1.81974e+07
1.81974e+07
1.81974e+07
1.81974e+07
1.81974e+07
1.81975e+07
1.81975e+07
1.81975e+07
1.81976e+07
1.81976e+07
1.81977e+07
1.81978e+07
1.81979e+07
1.8198e+07
1.81981e+07
1.81983e+07
1.81985e+07
1.81987e+07
1.81989e+07
1.81992e+07
1.81994e+07
1.81997e+07
1.82e+07
1.82003e+07
1.82006e+07
1.82008e+07
1.82011e+07
1.82014e+07
1.82017e+07
1.8202e+07
1.82023e+07
1.82026e+07
1.82029e+07
1.82032e+07
1.82034e+07
1.82037e+07
1.8204e+07
1.82043e+07
1.82046e+07
1.82049e+07
1.82053e+07
1.82056e+07
1.8206e+07
1.82063e+07
1.82067e+07
1.82072e+07
1.82076e+07
1.82081e+07
1.82087e+07
1.82092e+07
1.82098e+07
1.82105e+07
1.82111e+07
1.82119e+07
1.82126e+07
1.82134e+07
1.82142e+07
1.8215e+07
1.82159e+07
1.82168e+07
1.82177e+07
1.82185e+07
1.82194e+07
1.82203e+07
1.82212e+07
1.82221e+07
1.8223e+07
1.82239e+07
1.82248e+07
1.82257e+07
1.82267e+07
1.82276e+07
1.82286e+07
1.82295e+07
1.82305e+07
1.82315e+07
1.82326e+07
1.82336e+07
1.82344e+07
1.82348e+07
1.82432e+07
1.82461e+07
1.82466e+07
1.82462e+07
1.82458e+07
1.82455e+07
1.82454e+07
1.82455e+07
1.8245e+07
1.8243e+07
1.82398e+07
1.82374e+07
1.82356e+07
1.82341e+07
1.82336e+07
1.82368e+07
1.82402e+07
1.8241e+07
1.82375e+07
1.82299e+07
1.82417e+07
1.82432e+07
1.82433e+07
1.82429e+07
1.82425e+07
1.82422e+07
1.82421e+07
1.82422e+07
1.82415e+07
1.82393e+07
1.82358e+07
1.82334e+07
1.82318e+07
1.82306e+07
1.82302e+07
1.82335e+07
1.82365e+07
1.82365e+07
1.82321e+07
1.82241e+07
1.82368e+07
1.8237e+07
1.82367e+07
1.82361e+07
1.82352e+07
1.8234e+07
1.82325e+07
1.82308e+07
1.82288e+07
1.82267e+07
1.82244e+07
1.82217e+07
1.82187e+07
1.82153e+07
1.82117e+07
1.82076e+07
1.82036e+07
1.81999e+07
1.81964e+07
1.81931e+07
1.82274e+07
1.82265e+07
1.82272e+07
1.82279e+07
1.82276e+07
1.82261e+07
1.82241e+07
1.82213e+07
1.82191e+07
1.82161e+07
1.82136e+07
1.8211e+07
1.82085e+07
1.82062e+07
1.82041e+07
1.82021e+07
1.82004e+07
1.81989e+07
1.81978e+07
1.8197e+07
1.82227e+07
1.82182e+07
1.82168e+07
1.82168e+07
1.82162e+07
1.82146e+07
1.82122e+07
1.82092e+07
1.82064e+07
1.82032e+07
1.82002e+07
1.81972e+07
1.81943e+07
1.81917e+07
1.81892e+07
1.8187e+07
1.8185e+07
1.81834e+07
1.81824e+07
1.81826e+07
1.81961e+07
1.81927e+07
1.82006e+07
1.82004e+07
1.81985e+07
1.81985e+07
1.81996e+07
1.8201e+07
1.82019e+07
1.82029e+07
1.8204e+07
1.82052e+07
1.82064e+07
1.82077e+07
1.82089e+07
1.82101e+07
1.82114e+07
1.82127e+07
1.82141e+07
1.82154e+07
1.82168e+07
1.82181e+07
1.82195e+07
1.82209e+07
1.82223e+07
1.82238e+07
1.82252e+07
1.82267e+07
1.82283e+07
1.82298e+07
1.82314e+07
1.82329e+07
1.82345e+07
1.82362e+07
1.82378e+07
1.82395e+07
1.82412e+07
1.82429e+07
1.82446e+07
1.82464e+07
1.82482e+07
1.82499e+07
1.82517e+07
1.82536e+07
1.82554e+07
1.82573e+07
1.82591e+07
1.8261e+07
1.82629e+07
1.82648e+07
1.82667e+07
1.82686e+07
1.82706e+07
1.82726e+07
1.82745e+07
1.82765e+07
1.82785e+07
1.82806e+07
1.82826e+07
1.82846e+07
1.82867e+07
1.82888e+07
1.82909e+07
1.8293e+07
1.82952e+07
1.82973e+07
1.82995e+07
1.83017e+07
1.83039e+07
1.83061e+07
1.83084e+07
1.83107e+07
1.8313e+07
1.83155e+07
1.83179e+07
1.83201e+07
1.83223e+07
1.83246e+07
1.8327e+07
1.83294e+07
1.83319e+07
1.83344e+07
1.83369e+07
1.83395e+07
1.83421e+07
1.83447e+07
1.83474e+07
1.83501e+07
1.83528e+07
1.83556e+07
1.83584e+07
1.83612e+07
1.8364e+07
1.83669e+07
1.83697e+07
1.83726e+07
1.83755e+07
1.83784e+07
1.83813e+07
1.83843e+07
1.83872e+07
1.83901e+07
1.83931e+07
1.8396e+07
1.8399e+07
1.84019e+07
1.84049e+07
1.84078e+07
1.84108e+07
1.84138e+07
1.84168e+07
1.84198e+07
1.84228e+07
1.84258e+07
1.84289e+07
1.84319e+07
1.8435e+07
1.84381e+07
1.84412e+07
1.84443e+07
1.84475e+07
1.84506e+07
1.84538e+07
1.8457e+07
1.84602e+07
1.84634e+07
1.84667e+07
1.84699e+07
1.84732e+07
1.84765e+07
1.84798e+07
1.84832e+07
1.84865e+07
1.84899e+07
1.84933e+07
1.84966e+07
1.85001e+07
1.85035e+07
1.85069e+07
1.85104e+07
1.85138e+07
1.85173e+07
1.85208e+07
1.85243e+07
1.85279e+07
1.85314e+07
1.85349e+07
1.85385e+07
1.85421e+07
1.85457e+07
1.85493e+07
1.85529e+07
1.85565e+07
1.85602e+07
1.85638e+07
1.85675e+07
1.85712e+07
1.85749e+07
1.85786e+07
1.85823e+07
1.85861e+07
1.85898e+07
1.85936e+07
1.85973e+07
1.86011e+07
1.86049e+07
1.86088e+07
1.86126e+07
1.86164e+07
1.86203e+07
1.86241e+07
1.8628e+07
1.86319e+07
1.86358e+07
1.86397e+07
1.86436e+07
1.86476e+07
1.86515e+07
1.86554e+07
1.86594e+07
1.86634e+07
1.86674e+07
1.86714e+07
1.86754e+07
1.86794e+07
1.86834e+07
1.86874e+07
1.86915e+07
1.86955e+07
1.86996e+07
1.87037e+07
1.87077e+07
1.87118e+07
1.87159e+07
1.872e+07
1.87241e+07
1.87282e+07
1.87323e+07
1.87364e+07
1.87403e+07
1.81943e+07
1.81927e+07
1.82005e+07
1.82004e+07
1.81985e+07
1.81985e+07
1.81997e+07
1.8201e+07
1.82019e+07
1.82029e+07
1.8204e+07
1.82052e+07
1.82064e+07
1.82077e+07
1.82089e+07
1.82101e+07
1.82114e+07
1.82127e+07
1.82141e+07
1.82154e+07
1.82168e+07
1.82181e+07
1.82195e+07
1.82209e+07
1.82223e+07
1.82238e+07
1.82252e+07
1.82267e+07
1.82283e+07
1.82298e+07
1.82314e+07
1.82329e+07
1.82345e+07
1.82362e+07
1.82378e+07
1.82395e+07
1.82412e+07
1.82429e+07
1.82446e+07
1.82464e+07
1.82482e+07
1.82499e+07
1.82517e+07
1.82536e+07
1.82554e+07
1.82573e+07
1.82591e+07
1.8261e+07
1.82629e+07
1.82648e+07
1.82667e+07
1.82686e+07
1.82706e+07
1.82726e+07
1.82745e+07
1.82765e+07
1.82785e+07
1.82806e+07
1.82826e+07
1.82846e+07
1.82867e+07
1.82888e+07
1.82909e+07
1.8293e+07
1.82952e+07
1.82973e+07
1.82995e+07
1.83017e+07
1.83039e+07
1.83061e+07
1.83084e+07
1.83107e+07
1.8313e+07
1.83155e+07
1.83179e+07
1.83201e+07
1.83223e+07
1.83246e+07
1.8327e+07
1.83294e+07
1.83319e+07
1.83344e+07
1.83369e+07
1.83395e+07
1.83421e+07
1.83447e+07
1.83474e+07
1.83501e+07
1.83528e+07
1.83556e+07
1.83584e+07
1.83612e+07
1.8364e+07
1.83669e+07
1.83697e+07
1.83726e+07
1.83755e+07
1.83784e+07
1.83813e+07
1.83843e+07
1.83872e+07
1.83901e+07
1.83931e+07
1.8396e+07
1.8399e+07
1.84019e+07
1.84049e+07
1.84078e+07
1.84108e+07
1.84138e+07
1.84168e+07
1.84198e+07
1.84228e+07
1.84258e+07
1.84289e+07
1.84319e+07
1.8435e+07
1.84381e+07
1.84412e+07
1.84443e+07
1.84475e+07
1.84506e+07
1.84538e+07
1.8457e+07
1.84602e+07
1.84634e+07
1.84667e+07
1.84699e+07
1.84732e+07
1.84765e+07
1.84798e+07
1.84832e+07
1.84865e+07
1.84899e+07
1.84933e+07
1.84966e+07
1.85001e+07
1.85035e+07
1.85069e+07
1.85104e+07
1.85138e+07
1.85173e+07
1.85208e+07
1.85243e+07
1.85279e+07
1.85314e+07
1.85349e+07
1.85385e+07
1.85421e+07
1.85457e+07
1.85493e+07
1.85529e+07
1.85565e+07
1.85602e+07
1.85638e+07
1.85675e+07
1.85712e+07
1.85749e+07
1.85786e+07
1.85823e+07
1.85861e+07
1.85898e+07
1.85936e+07
1.85973e+07
1.86011e+07
1.86049e+07
1.86088e+07
1.86126e+07
1.86164e+07
1.86203e+07
1.86241e+07
1.8628e+07
1.86319e+07
1.86358e+07
1.86397e+07
1.86436e+07
1.86476e+07
1.86515e+07
1.86554e+07
1.86594e+07
1.86634e+07
1.86674e+07
1.86714e+07
1.86754e+07
1.86794e+07
1.86834e+07
1.86874e+07
1.86915e+07
1.86955e+07
1.86996e+07
1.87037e+07
1.87077e+07
1.87118e+07
1.87159e+07
1.872e+07
1.87241e+07
1.87282e+07
1.87323e+07
1.87364e+07
1.87403e+07
1.81855e+07
1.81915e+07
1.81953e+07
1.81965e+07
1.81973e+07
1.81983e+07
1.81994e+07
1.82005e+07
1.82017e+07
1.82028e+07
1.8204e+07
1.82052e+07
1.82064e+07
1.82076e+07
1.82089e+07
1.82101e+07
1.82114e+07
1.82127e+07
1.82141e+07
1.82154e+07
1.82167e+07
1.82181e+07
1.82195e+07
1.82209e+07
1.82223e+07
1.82238e+07
1.82252e+07
1.82267e+07
1.82283e+07
1.82298e+07
1.82314e+07
1.82329e+07
1.82345e+07
1.82362e+07
1.82378e+07
1.82395e+07
1.82412e+07
1.82429e+07
1.82446e+07
1.82464e+07
1.82482e+07
1.825e+07
1.82518e+07
1.82536e+07
1.82554e+07
1.82573e+07
1.82591e+07
1.8261e+07
1.82629e+07
1.82648e+07
1.82667e+07
1.82686e+07
1.82706e+07
1.82726e+07
1.82745e+07
1.82765e+07
1.82785e+07
1.82806e+07
1.82826e+07
1.82846e+07
1.82867e+07
1.82888e+07
1.82909e+07
1.8293e+07
1.82952e+07
1.82973e+07
1.82995e+07
1.83017e+07
1.83039e+07
1.83062e+07
1.83084e+07
1.83107e+07
1.8313e+07
1.83153e+07
1.83175e+07
1.83199e+07
1.83222e+07
1.83246e+07
1.83271e+07
1.83295e+07
1.8332e+07
1.83345e+07
1.8337e+07
1.83396e+07
1.83422e+07
1.83448e+07
1.83475e+07
1.83502e+07
1.83529e+07
1.83557e+07
1.83585e+07
1.83613e+07
1.83641e+07
1.8367e+07
1.83698e+07
1.83727e+07
1.83756e+07
1.83785e+07
1.83814e+07
1.83843e+07
1.83872e+07
1.83901e+07
1.83931e+07
1.8396e+07
1.8399e+07
1.84019e+07
1.84049e+07
1.84078e+07
1.84108e+07
1.84138e+07
1.84168e+07
1.84198e+07
1.84228e+07
1.84258e+07
1.84289e+07
1.84319e+07
1.8435e+07
1.84381e+07
1.84412e+07
1.84443e+07
1.84475e+07
1.84506e+07
1.84538e+07
1.8457e+07
1.84602e+07
1.84634e+07
1.84667e+07
1.84699e+07
1.84732e+07
1.84765e+07
1.84798e+07
1.84832e+07
1.84865e+07
1.84899e+07
1.84933e+07
1.84966e+07
1.85001e+07
1.85035e+07
1.85069e+07
1.85104e+07
1.85138e+07
1.85173e+07
1.85208e+07
1.85243e+07
1.85279e+07
1.85314e+07
1.85349e+07
1.85385e+07
1.85421e+07
1.85457e+07
1.85493e+07
1.85529e+07
1.85565e+07
1.85602e+07
1.85638e+07
1.85675e+07
1.85712e+07
1.85749e+07
1.85786e+07
1.85823e+07
1.85861e+07
1.85898e+07
1.85936e+07
1.85973e+07
1.86011e+07
1.86049e+07
1.86088e+07
1.86126e+07
1.86164e+07
1.86203e+07
1.86241e+07
1.8628e+07
1.86319e+07
1.86358e+07
1.86397e+07
1.86436e+07
1.86476e+07
1.86515e+07
1.86554e+07
1.86594e+07
1.86634e+07
1.86674e+07
1.86714e+07
1.86754e+07
1.86794e+07
1.86834e+07
1.86874e+07
1.86915e+07
1.86955e+07
1.86996e+07
1.87037e+07
1.87077e+07
1.87118e+07
1.87159e+07
1.872e+07
1.87241e+07
1.87282e+07
1.87323e+07
1.87365e+07
1.87406e+07
1.81951e+07
1.81958e+07
1.81963e+07
1.81968e+07
1.81974e+07
1.81983e+07
1.81994e+07
1.82005e+07
1.82016e+07
1.82028e+07
1.8204e+07
1.82052e+07
1.82064e+07
1.82076e+07
1.82089e+07
1.82101e+07
1.82114e+07
1.82127e+07
1.8214e+07
1.82154e+07
1.82167e+07
1.82181e+07
1.82195e+07
1.82209e+07
1.82223e+07
1.82238e+07
1.82253e+07
1.82267e+07
1.82283e+07
1.82298e+07
1.82314e+07
1.82329e+07
1.82346e+07
1.82362e+07
1.82378e+07
1.82395e+07
1.82412e+07
1.82429e+07
1.82447e+07
1.82464e+07
1.82482e+07
1.825e+07
1.82518e+07
1.82536e+07
1.82554e+07
1.82573e+07
1.82591e+07
1.8261e+07
1.82629e+07
1.82648e+07
1.82667e+07
1.82687e+07
1.82706e+07
1.82726e+07
1.82745e+07
1.82765e+07
1.82785e+07
1.82806e+07
1.82826e+07
1.82847e+07
1.82867e+07
1.82888e+07
1.82909e+07
1.82931e+07
1.82952e+07
1.82974e+07
1.82995e+07
1.83017e+07
1.8304e+07
1.83062e+07
1.83085e+07
1.83107e+07
1.8313e+07
1.83153e+07
1.83176e+07
1.832e+07
1.83223e+07
1.83247e+07
1.83272e+07
1.83296e+07
1.83321e+07
1.83346e+07
1.83372e+07
1.83397e+07
1.83423e+07
1.8345e+07
1.83476e+07
1.83503e+07
1.83531e+07
1.83558e+07
1.83586e+07
1.83614e+07
1.83642e+07
1.8367e+07
1.83699e+07
1.83727e+07
1.83756e+07
1.83785e+07
1.83814e+07
1.83843e+07
1.83872e+07
1.83902e+07
1.83931e+07
1.8396e+07
1.8399e+07
1.84019e+07
1.84049e+07
1.84078e+07
1.84108e+07
1.84138e+07
1.84168e+07
1.84198e+07
1.84228e+07
1.84258e+07
1.84289e+07
1.84319e+07
1.8435e+07
1.84381e+07
1.84412e+07
1.84443e+07
1.84475e+07
1.84506e+07
1.84538e+07
1.8457e+07
1.84602e+07
1.84634e+07
1.84667e+07
1.84699e+07
1.84732e+07
1.84765e+07
1.84798e+07
1.84832e+07
1.84865e+07
1.84899e+07
1.84933e+07
1.84966e+07
1.85001e+07
1.85035e+07
1.85069e+07
1.85104e+07
1.85138e+07
1.85173e+07
1.85208e+07
1.85243e+07
1.85279e+07
1.85314e+07
1.85349e+07
1.85385e+07
1.85421e+07
1.85457e+07
1.85493e+07
1.85529e+07
1.85565e+07
1.85602e+07
1.85638e+07
1.85675e+07
1.85712e+07
1.85749e+07
1.85786e+07
1.85823e+07
1.85861e+07
1.85898e+07
1.85936e+07
1.85973e+07
1.86011e+07
1.86049e+07
1.86088e+07
1.86126e+07
1.86164e+07
1.86203e+07
1.86241e+07
1.8628e+07
1.86319e+07
1.86358e+07
1.86397e+07
1.86436e+07
1.86476e+07
1.86515e+07
1.86554e+07
1.86594e+07
1.86634e+07
1.86674e+07
1.86714e+07
1.86754e+07
1.86794e+07
1.86834e+07
1.86874e+07
1.86915e+07
1.86955e+07
1.86996e+07
1.87037e+07
1.87077e+07
1.87118e+07
1.87159e+07
1.872e+07
1.87241e+07
1.87282e+07
1.87324e+07
1.87365e+07
1.87408e+07
1.81925e+07
1.81954e+07
1.81962e+07
1.81967e+07
1.81974e+07
1.81983e+07
1.81994e+07
1.82005e+07
1.82016e+07
1.82028e+07
1.8204e+07
1.82052e+07
1.82064e+07
1.82076e+07
1.82089e+07
1.82101e+07
1.82114e+07
1.82127e+07
1.8214e+07
1.82154e+07
1.82167e+07
1.82181e+07
1.82195e+07
1.82209e+07
1.82223e+07
1.82238e+07
1.82253e+07
1.82267e+07
1.82283e+07
1.82298e+07
1.82314e+07
1.82329e+07
1.82346e+07
1.82362e+07
1.82378e+07
1.82395e+07
1.82412e+07
1.82429e+07
1.82447e+07
1.82464e+07
1.82482e+07
1.825e+07
1.82518e+07
1.82536e+07
1.82554e+07
1.82573e+07
1.82591e+07
1.8261e+07
1.82629e+07
1.82648e+07
1.82667e+07
1.82687e+07
1.82706e+07
1.82726e+07
1.82745e+07
1.82765e+07
1.82785e+07
1.82806e+07
1.82826e+07
1.82847e+07
1.82867e+07
1.82888e+07
1.82909e+07
1.82931e+07
1.82952e+07
1.82974e+07
1.82995e+07
1.83017e+07
1.8304e+07
1.83062e+07
1.83085e+07
1.83107e+07
1.8313e+07
1.83153e+07
1.83176e+07
1.832e+07
1.83223e+07
1.83247e+07
1.83272e+07
1.83296e+07
1.83321e+07
1.83346e+07
1.83372e+07
1.83397e+07
1.83423e+07
1.8345e+07
1.83476e+07
1.83503e+07
1.83531e+07
1.83558e+07
1.83586e+07
1.83614e+07
1.83642e+07
1.8367e+07
1.83699e+07
1.83727e+07
1.83756e+07
1.83785e+07
1.83814e+07
1.83843e+07
1.83872e+07
1.83902e+07
1.83931e+07
1.8396e+07
1.8399e+07
1.84019e+07
1.84049e+07
1.84078e+07
1.84108e+07
1.84138e+07
1.84168e+07
1.84198e+07
1.84228e+07
1.84258e+07
1.84289e+07
1.84319e+07
1.8435e+07
1.84381e+07
1.84412e+07
1.84443e+07
1.84475e+07
1.84506e+07
1.84538e+07
1.8457e+07
1.84602e+07
1.84634e+07
1.84667e+07
1.84699e+07
1.84732e+07
1.84765e+07
1.84798e+07
1.84832e+07
1.84865e+07
1.84899e+07
1.84933e+07
1.84966e+07
1.85001e+07
1.85035e+07
1.85069e+07
1.85104e+07
1.85138e+07
1.85173e+07
1.85208e+07
1.85243e+07
1.85279e+07
1.85314e+07
1.85349e+07
1.85385e+07
1.85421e+07
1.85457e+07
1.85493e+07
1.85529e+07
1.85565e+07
1.85602e+07
1.85638e+07
1.85675e+07
1.85712e+07
1.85749e+07
1.85786e+07
1.85823e+07
1.85861e+07
1.85898e+07
1.85936e+07
1.85973e+07
1.86011e+07
1.86049e+07
1.86088e+07
1.86126e+07
1.86164e+07
1.86203e+07
1.86241e+07
1.8628e+07
1.86319e+07
1.86358e+07
1.86397e+07
1.86436e+07
1.86476e+07
1.86515e+07
1.86554e+07
1.86594e+07
1.86634e+07
1.86674e+07
1.86714e+07
1.86754e+07
1.86794e+07
1.86834e+07
1.86874e+07
1.86915e+07
1.86955e+07
1.86996e+07
1.87037e+07
1.87077e+07
1.87118e+07
1.87159e+07
1.872e+07
1.87241e+07
1.87282e+07
1.87324e+07
1.87365e+07
1.87409e+07
1.87396e+07
1.87387e+07
1.87389e+07
1.87394e+07
1.87397e+07
1.87398e+07
1.87396e+07
1.87394e+07
1.8739e+07
1.87387e+07
1.87383e+07
1.8738e+07
1.87376e+07
1.87374e+07
1.8737e+07
1.87368e+07
1.87365e+07
1.87365e+07
1.87366e+07
1.87373e+07
1.87413e+07
1.87419e+07
1.87428e+07
1.87435e+07
1.87439e+07
1.8744e+07
1.8744e+07
1.87439e+07
1.87437e+07
1.87435e+07
1.87433e+07
1.87431e+07
1.87429e+07
1.87429e+07
1.87425e+07
1.87426e+07
1.87424e+07
1.87424e+07
1.87425e+07
1.87429e+07
1.87432e+07
1.87442e+07
1.8745e+07
1.87457e+07
1.87462e+07
1.87466e+07
1.87469e+07
1.87471e+07
1.87473e+07
1.87473e+07
1.87471e+07
1.87467e+07
1.87463e+07
1.87456e+07
1.87449e+07
1.87444e+07
1.87441e+07
1.87439e+07
1.87436e+07
1.87431e+07
1.87447e+07
1.87463e+07
1.87474e+07
1.87483e+07
1.87492e+07
1.87503e+07
1.87512e+07
1.87516e+07
1.87514e+07
1.87515e+07
1.87519e+07
1.87527e+07
1.87539e+07
1.87564e+07
1.87591e+07
1.87601e+07
1.87585e+07
1.87544e+07
1.87505e+07
1.87489e+07
1.87453e+07
1.87474e+07
1.87486e+07
1.87495e+07
1.87505e+07
1.87515e+07
1.87525e+07
1.87529e+07
1.87528e+07
1.87529e+07
1.87534e+07
1.8754e+07
1.87551e+07
1.87576e+07
1.87604e+07
1.87619e+07
1.87608e+07
1.87573e+07
1.87535e+07
1.87515e+07
1.87428e+07
1.87476e+07
1.87515e+07
1.87552e+07
1.87591e+07
1.8763e+07
1.87669e+07
1.87708e+07
1.87748e+07
1.87788e+07
1.87828e+07
1.87868e+07
1.87908e+07
1.87948e+07
1.87989e+07
1.88029e+07
1.88069e+07
1.88109e+07
1.8815e+07
1.8819e+07
1.88231e+07
1.88271e+07
1.88311e+07
1.88352e+07
1.88393e+07
1.88433e+07
1.88474e+07
1.88515e+07
1.88555e+07
1.88596e+07
1.88637e+07
1.88678e+07
1.88718e+07
1.88759e+07
1.888e+07
1.88841e+07
1.88882e+07
1.88922e+07
1.88963e+07
1.89004e+07
1.89045e+07
1.89085e+07
1.89126e+07
1.89167e+07
1.89207e+07
1.89248e+07
1.89289e+07
1.89329e+07
1.8937e+07
1.8941e+07
1.8945e+07
1.89491e+07
1.89531e+07
1.89571e+07
1.89611e+07
1.89651e+07
1.89691e+07
1.8973e+07
1.8977e+07
1.89809e+07
1.89849e+07
1.89888e+07
1.89927e+07
1.89966e+07
1.90005e+07
1.90044e+07
1.90083e+07
1.90122e+07
1.9016e+07
1.90199e+07
1.90237e+07
1.90276e+07
1.90314e+07
1.90353e+07
1.90391e+07
1.90429e+07
1.90467e+07
1.90505e+07
1.90544e+07
1.90582e+07
1.9062e+07
1.90658e+07
1.90696e+07
1.90735e+07
1.90773e+07
1.90811e+07
1.9085e+07
1.90888e+07
1.90926e+07
1.90964e+07
1.91002e+07
1.9104e+07
1.91077e+07
1.91115e+07
1.91152e+07
1.91189e+07
1.91226e+07
1.91263e+07
1.91299e+07
1.91333e+07
1.87438e+07
1.87477e+07
1.87515e+07
1.87553e+07
1.87591e+07
1.8763e+07
1.87669e+07
1.87708e+07
1.87748e+07
1.87788e+07
1.87828e+07
1.87868e+07
1.87908e+07
1.87948e+07
1.87989e+07
1.88029e+07
1.88069e+07
1.88109e+07
1.8815e+07
1.8819e+07
1.88231e+07
1.88271e+07
1.88311e+07
1.88352e+07
1.88393e+07
1.88433e+07
1.88474e+07
1.88515e+07
1.88555e+07
1.88596e+07
1.88637e+07
1.88678e+07
1.88718e+07
1.88759e+07
1.888e+07
1.88841e+07
1.88882e+07
1.88922e+07
1.88963e+07
1.89004e+07
1.89045e+07
1.89085e+07
1.89126e+07
1.89167e+07
1.89207e+07
1.89248e+07
1.89289e+07
1.89329e+07
1.8937e+07
1.8941e+07
1.8945e+07
1.89491e+07
1.89531e+07
1.89571e+07
1.89611e+07
1.89651e+07
1.89691e+07
1.8973e+07
1.8977e+07
1.89809e+07
1.89849e+07
1.89888e+07
1.89927e+07
1.89966e+07
1.90005e+07
1.90044e+07
1.90083e+07
1.90122e+07
1.9016e+07
1.90199e+07
1.90237e+07
1.90276e+07
1.90314e+07
1.90353e+07
1.90391e+07
1.90429e+07
1.90467e+07
1.90505e+07
1.90544e+07
1.90582e+07
1.9062e+07
1.90658e+07
1.90696e+07
1.90735e+07
1.90773e+07
1.90811e+07
1.9085e+07
1.90888e+07
1.90926e+07
1.90964e+07
1.91002e+07
1.9104e+07
1.91077e+07
1.91115e+07
1.91152e+07
1.91189e+07
1.91226e+07
1.91263e+07
1.91299e+07
1.91333e+07
1.87415e+07
1.87472e+07
1.8752e+07
1.8756e+07
1.87599e+07
1.87639e+07
1.87677e+07
1.87716e+07
1.87756e+07
1.87796e+07
1.87835e+07
1.87874e+07
1.87914e+07
1.87954e+07
1.87994e+07
1.88033e+07
1.88073e+07
1.88113e+07
1.88153e+07
1.88194e+07
1.88233e+07
1.88273e+07
1.88314e+07
1.88354e+07
1.88394e+07
1.88435e+07
1.88475e+07
1.88516e+07
1.88556e+07
1.88597e+07
1.88637e+07
1.88678e+07
1.88719e+07
1.88759e+07
1.888e+07
1.88841e+07
1.88882e+07
1.88922e+07
1.88963e+07
1.89004e+07
1.89045e+07
1.89085e+07
1.89126e+07