/*--------------------------------*- C++ -*----------------------------------*\
| =========                 |                                                 |
| \\      /  F ield         | OpenFOAM: The Open Source CFD Toolbox           |
|  \\    /   O peration     | Version:  3.0.x                                 |
|   \\  /    A nd           | Web:      www.OpenFOAM.org                      |
|    \\/     M anipulation  |                                                 |
\*---------------------------------------------------------------------------*/
FoamFile
{
    version     2.0;
    format      ascii;
    class       surfaceScalarField;
    location    "0.43";
    object      phi;
}
// * * * * * * * * * * * * * * * * * * * * * * * * * * * * * * * * * * * * * //

dimensions      [1 0 -1 0 0 0 0];

internalField   nonuniform List<scalar> 
12415
(
5.79765
0.000327732
5.79716
0.000234858
5.79669
0.000224933
5.79623
0.000226711
5.79578
0.000227156
5.79535
0.000226942
5.79493
0.000226878
5.79453
0.000226877
5.79416
0.000226873
5.7938
0.000226867
5.79347
0.000226863
5.79315
0.000226859
5.79286
0.000226856
5.79258
0.000226853
5.79231
0.000226851
5.79206
0.000226849
5.79181
0.000226846
5.79157
0.000226848
5.79133
0.000226848
5.79109
0.000226851
5.79084
0.000226859
5.79059
0.000226866
5.79032
0.000226876
5.79004
0.000226882
5.78975
0.000226961
5.78943
0.000226947
5.7891
0.000227
5.78874
0.000227007
5.78837
0.000227095
5.78799
0.000227241
5.7876
0.000227194
5.78719
0.000227299
5.78677
0.000227382
5.78633
0.000227463
5.78587
0.000227547
5.78541
0.000227635
5.78495
0.000227724
5.78448
0.000227815
5.78403
0.000227892
5.78359
0.000228023
5.78316
0.000228102
5.78275
0.000228201
5.78237
0.000228296
5.782
0.000228392
5.78166
0.000228484
5.78135
0.000228567
5.78106
0.000228636
5.78078
0.000228682
5.78052
0.000228693
5.78028
0.000228654
5.78004
0.00022854
5.77981
0.000228347
5.7796
0.000228013
5.77938
0.000227521
5.77918
0.000226821
5.77898
0.000225864
5.77877
0.000224589
5.77856
0.000222935
5.77834
0.000220835
5.77811
0.000218214
5.77786
0.000215003
5.7776
0.000211157
5.77731
0.00020661
5.77701
0.000201318
5.77669
0.000195262
5.77635
0.000188437
5.77601
0.000180859
5.77565
0.000172533
5.77529
0.000163684
5.77493
0.000154107
5.77458
0.000144158
5.77423
0.000133853
5.7739
0.000123338
5.77358
0.000112751
5.77329
0.00010223
5.77302
9.19092e-05
5.77278
8.19122e-05
5.77257
7.23495e-05
5.7724
6.33169e-05
5.77225
5.48856e-05
5.77214
4.70993e-05
5.77206
4.00218e-05
5.77201
3.36351e-05
5.77199
2.79487e-05
5.77199
2.29701e-05
5.77201
1.8598e-05
5.77205
1.48623e-05
5.7721
1.1678e-05
5.77216
8.99889e-06
5.77222
6.76933e-06
5.77227
4.9347e-06
5.77232
3.44055e-06
5.77235
2.23857e-06
5.77236
1.28133e-06
5.77235
5.27541e-07
5.77232
-6.19584e-08
5.77225
-5.12939e-07
5.77216
-8.45299e-07
5.77203
-1.0996e-06
5.77187
-1.28539e-06
5.77168
-1.42104e-06
5.77145
-1.5184e-06
5.7712
-1.58668e-06
5.77093
-1.63515e-06
5.77064
-1.66958e-06
5.77034
-1.69322e-06
5.77003
-1.71194e-06
5.76972
-1.72653e-06
5.76941
-1.73914e-06
5.76911
-1.75162e-06
5.76883
-1.76387e-06
5.76856
-1.77666e-06
5.76832
-1.79012e-06
5.7681
-1.8041e-06
5.76791
-1.81817e-06
5.76774
-1.83209e-06
5.7676
-1.84548e-06
5.76748
-1.85799e-06
5.76738
-1.86874e-06
5.7673
-1.87781e-06
5.76723
-1.88455e-06
5.76716
-1.8887e-06
5.76709
-1.88976e-06
5.76702
-1.88835e-06
5.76692
-1.88305e-06
5.76681
-1.87517e-06
5.76667
-1.86369e-06
5.76649
-1.84904e-06
5.76626
-1.83137e-06
5.76598
-1.81059e-06
5.76565
-1.78739e-06
5.76525
-1.76179e-06
5.76478
-1.73439e-06
5.76424
-1.70576e-06
5.76363
-1.67642e-06
5.76295
-1.64703e-06
5.7622
-1.61823e-06
5.76137
-1.59037e-06
5.76049
-1.56632e-06
5.75955
-1.5437e-06
5.75856
-1.524e-06
5.75752
-1.50814e-06
5.75646
-1.49609e-06
5.75537
-1.48838e-06
5.75426
-1.48396e-06
5.75315
-1.48367e-06
5.75203
-1.48635e-06
5.75092
-1.49163e-06
5.74981
-1.49877e-06
5.74872
-1.50698e-06
5.74763
-1.51542e-06
5.74654
-1.5236e-06
5.74546
-1.53013e-06
5.74437
-1.53515e-06
5.74328
-1.53747e-06
5.74216
-1.53716e-06
5.74103
-1.53387e-06
5.73985
-1.52713e-06
5.73864
-1.51722e-06
5.73738
-1.50368e-06
5.73606
-1.48646e-06
5.73466
-1.46564e-06
5.73319
-1.44091e-06
5.73164
-1.41228e-06
5.72998
-1.3798e-06
5.72821
-1.3433e-06
5.72633
-1.3031e-06
5.72432
-1.2595e-06
5.72217
-1.21288e-06
5.71989
-1.16426e-06
5.71746
-1.11425e-06
5.71489
-1.0641e-06
5.71218
-1.01482e-06
5.70933
-9.676e-07
5.70636
-9.23661e-07
5.70327
-8.84047e-07
5.70008
-8.50037e-07
5.6968
-8.22374e-07
5.69345
-8.01849e-07
5.69005
-7.88667e-07
5.68662
-7.82626e-07
5.68316
-7.83473e-07
5.6797
-7.89469e-07
5.67624
-8.00012e-07
5.67278
-8.11944e-07
5.66932
-8.24959e-07
5.66586
-8.34907e-07
5.66238
-8.43187e-07
5.65887
-8.44597e-07
5.65532
-8.42303e-07
5.65172
-8.20603e-07
5.64806
-7.31325e-07
5.64432
-1.27644e-07
5.64051
3.8996e-06
5.63659
3.21196e-05
5.63241
0.000228644
5.62679
0.00159871
5.61157
0.011122
5.51901
0.0883843
0.433823
5.08092
11.5961
0.000260437
11.5956
0.000215151
11.5951
0.000190073
11.5947
0.000194066
11.5943
0.000195359
11.5939
0.000194755
11.5935
0.000194582
11.5932
0.000194593
11.593
0.000194594
11.5927
0.000194594
11.5926
0.000194597
11.5924
0.000194601
11.5923
0.000194607
11.5922
0.000194613
11.5922
0.000194621
11.5922
0.00019463
11.5922
0.000194637
11.5922
0.000194649
11.5922
0.000194659
11.5922
0.000194673
11.5922
0.00019469
11.5921
0.000194708
11.5921
0.000194735
11.592
0.000194728
11.5919
0.000194826
11.5918
0.000194822
11.5916
0.000194871
11.5914
0.000194907
11.5911
0.000194979
11.5908
0.000195098
11.5905
0.000195101
11.5902
0.000195183
11.5898
0.000195272
11.5894
0.000195351
11.589
0.000195435
11.5886
0.000195521
11.5881
0.000195609
11.5877
0.000195698
11.5873
0.000195781
11.5869
0.000195897
11.5865
0.000195978
11.5862
0.000196077
11.5859
0.000196169
11.5857
0.000196263
11.5855
0.000196354
11.5853
0.000196436
11.5852
0.000196506
11.5852
0.000196556
11.5852
0.000196576
11.5852
0.000196551
11.5852
0.000196463
11.5852
0.000196303
11.5853
0.000196021
11.5853
0.000195602
11.5854
0.000195
11.5855
0.000194175
11.5855
0.000193073
11.5856
0.00019164
11.5856
0.000189819
11.5856
0.000187546
11.5856
0.00018476
11.5855
0.00018142
11.5854
0.000177476
11.5852
0.000172886
11.585
0.000167636
11.5847
0.000161721
11.5844
0.000155158
11.5841
0.000147966
11.5837
0.000140287
11.5833
0.000132032
11.5829
0.000123436
11.5825
0.000114548
11.5821
0.000105486
11.5817
9.63693e-05
11.5814
8.73186e-05
11.581
7.84484e-05
11.5807
6.9865e-05
11.5804
6.16626e-05
11.5802
5.39219e-05
11.5801
4.67038e-05
11.5799
4.0047e-05
11.5799
3.39989e-05
11.5798
2.85468e-05
11.5798
2.36996e-05
11.5799
1.94562e-05
11.58
1.57391e-05
11.5801
1.25614e-05
11.5802
9.85756e-06
11.5804
7.58483e-06
11.5805
5.69546e-06
11.5806
4.14256e-06
11.5807
2.87964e-06
11.5808
1.864e-06
11.5808
1.0586e-06
11.5808
4.22195e-07
11.5807
-7.24506e-08
11.5806
-4.52179e-07
11.5804
-7.3272e-07
11.5801
-9.47191e-07
11.5798
-1.10491e-06
11.5794
-1.22008e-06
11.579
-1.30272e-06
11.5785
-1.36112e-06
11.5779
-1.40234e-06
11.5773
-1.43178e-06
11.5767
-1.45219e-06
11.5761
-1.46812e-06
11.5755
-1.4807e-06
11.5749
-1.49146e-06
11.5742
-1.50225e-06
11.5737
-1.51273e-06
11.5731
-1.5238e-06
11.5727
-1.53529e-06
11.5722
-1.54724e-06
11.5718
-1.55938e-06
11.5715
-1.57131e-06
11.5712
-1.5828e-06
11.571
-1.59351e-06
11.5708
-1.60276e-06
11.5706
-1.61048e-06
11.5704
-1.61629e-06
11.5703
-1.61983e-06
11.5702
-1.62082e-06
11.57
-1.61947e-06
11.5698
-1.6151e-06
11.5696
-1.60814e-06
11.5693
-1.59845e-06
11.5689
-1.5858e-06
11.5685
-1.57068e-06
11.5679
-1.55286e-06
11.5672
-1.53296e-06
11.5664
-1.51101e-06
11.5655
-1.48751e-06
11.5644
-1.46295e-06
11.5632
-1.43779e-06
11.5618
-1.41261e-06
11.5603
-1.38787e-06
11.5587
-1.36414e-06
11.5569
-1.34327e-06
11.555
-1.32398e-06
11.553
-1.30713e-06
11.5509
-1.2935e-06
11.5488
-1.28317e-06
11.5466
-1.27649e-06
11.5444
-1.27286e-06
11.5422
-1.27239e-06
11.5399
-1.27488e-06
11.5377
-1.27921e-06
11.5355
-1.28557e-06
11.5333
-1.2924e-06
11.5311
-1.29976e-06
11.5289
-1.30672e-06
11.5268
-1.31229e-06
11.5246
-1.31661e-06
11.5224
-1.31867e-06
11.5202
-1.31826e-06
11.5179
-1.3156e-06
11.5155
-1.30972e-06
11.5131
-1.30118e-06
11.5106
-1.28961e-06
11.5079
-1.27491e-06
11.5051
-1.25694e-06
11.5022
-1.23577e-06
11.4991
-1.21122e-06
11.4958
-1.18334e-06
11.4922
-1.15209e-06
11.4885
-1.11757e-06
11.4844
-1.08016e-06
11.4801
-1.04023e-06
11.4756
-9.98502e-07
11.4707
-9.55656e-07
11.4656
-9.12652e-07
11.4601
-8.70362e-07
11.4544
-8.29883e-07
11.4485
-7.92232e-07
11.4423
-7.58143e-07
11.4359
-7.29039e-07
11.4294
-7.05258e-07
11.4227
-6.87685e-07
11.4159
-6.764e-07
11.409
-6.71067e-07
11.4021
-6.72173e-07
11.3952
-6.76864e-07
11.3882
-6.86457e-07
11.3813
-6.95815e-07
11.3744
-7.08058e-07
11.3675
-7.15008e-07
11.3605
-7.2418e-07
11.3535
-7.22354e-07
11.3464
-7.20371e-07
11.3392
-6.71113e-07
11.3319
-4.33027e-07
11.3244
1.32346e-06
11.3168
1.32235e-05
11.3089
9.68246e-05
11.3006
0.00067923
11.2894
0.00473806
11.2595
0.0328069
11.1062
0.233292
1.09071
10.4408
139.152
-0.000260437
139.147
-0.000215151
139.141
-0.000190073
139.136
-0.000194066
139.131
-0.000195359
139.127
-0.000194755
139.122
-0.000194582
139.119
-0.000194593
139.115
-0.000194594
139.113
-0.000194594
139.111
-0.000194597
139.109
-0.000194601
139.108
-0.000194607
139.107
-0.000194613
139.106
-0.000194621
139.106
-0.00019463
139.106
-0.000194637
139.106
-0.000194649
139.106
-0.000194659
139.106
-0.000194673
139.106
-0.00019469
139.106
-0.000194708
139.105
-0.000194735
139.104
-0.000194728
139.103
-0.000194826
139.101
-0.000194822
139.099
-0.000194871
139.096
-0.000194907
139.093
-0.000194979
139.09
-0.000195098
139.086
-0.000195101
139.082
-0.000195183
139.078
-0.000195272
139.073
-0.000195351
139.068
-0.000195435
139.063
-0.000195521
139.058
-0.000195609
139.052
-0.000195698
139.047
-0.000195781
139.043
-0.000195897
139.038
-0.000195978
139.034
-0.000196077
139.031
-0.000196169
139.028
-0.000196263
139.026
-0.000196354
139.024
-0.000196436
139.023
-0.000196506
139.022
-0.000196556
139.022
-0.000196576
139.022
-0.000196551
139.022
-0.000196463
139.023
-0.000196303
139.023
-0.000196021
139.024
-0.000195602
139.025
-0.000195
139.026
-0.000194175
139.027
-0.000193073
139.027
-0.00019164
139.028
-0.000189819
139.028
-0.000187546
139.027
-0.00018476
139.026
-0.00018142
139.025
-0.000177476
139.023
-0.000172886
139.02
-0.000167636
139.017
-0.000161721
139.013
-0.000155158
139.009
-0.000147966
139.005
-0.000140287
139
-0.000132032
138.995
-0.000123436
138.99
-0.000114548
138.985
-0.000105486
138.981
-9.63693e-05
138.976
-8.73186e-05
138.972
-7.84484e-05
138.969
-6.9865e-05
138.965
-6.16626e-05
138.963
-5.39219e-05
138.961
-4.67038e-05
138.959
-4.0047e-05
138.958
-3.39989e-05
138.958
-2.85468e-05
138.958
-2.36996e-05
138.959
-1.94562e-05
138.96
-1.57391e-05
138.961
-1.25614e-05
138.963
-9.85756e-06
138.964
-7.58483e-06
138.966
-5.69546e-06
138.967
-4.14256e-06
138.969
-2.87964e-06
138.969
-1.864e-06
138.97
-1.0586e-06
138.969
-4.22193e-07
138.969
7.24551e-08
138.967
4.5218e-07
138.965
7.32716e-07
138.962
9.47189e-07
138.958
1.10491e-06
138.953
1.22008e-06
138.948
1.30272e-06
138.942
1.36112e-06
138.935
1.40234e-06
138.928
1.43178e-06
138.921
1.45219e-06
138.913
1.46812e-06
138.906
1.48069e-06
138.898
1.49146e-06
138.891
1.50225e-06
138.884
1.51273e-06
138.878
1.5238e-06
138.872
1.53529e-06
138.867
1.54723e-06
138.862
1.55938e-06
138.858
1.57131e-06
138.854
1.5828e-06
138.852
1.59351e-06
138.849
1.60276e-06
138.847
1.61049e-06
138.845
1.61628e-06
138.844
1.61984e-06
138.842
1.62081e-06
138.84
1.61948e-06
138.838
1.61509e-06
138.835
1.60816e-06
138.832
1.59843e-06
138.827
1.58582e-06
138.822
1.57065e-06
138.815
1.55288e-06
138.807
1.53294e-06
138.797
1.51103e-06
138.786
1.48749e-06
138.773
1.46298e-06
138.758
1.43778e-06
138.742
1.41262e-06
138.724
1.38786e-06
138.704
1.3642e-06
138.683
1.34317e-06
138.66
1.32406e-06
138.636
1.30713e-06
138.611
1.29345e-06
138.586
1.2832e-06
138.559
1.27665e-06
138.533
1.27252e-06
138.506
1.27273e-06
138.479
1.27456e-06
138.453
1.2796e-06
138.426
1.2851e-06
138.4
1.29277e-06
138.373
1.29959e-06
138.347
1.30666e-06
138.321
1.31248e-06
138.295
1.31655e-06
138.269
1.31851e-06
138.242
1.31876e-06
138.215
1.31508e-06
138.187
1.30979e-06
138.157
1.30124e-06
138.127
1.28973e-06
138.095
1.27472e-06
138.062
1.25696e-06
138.027
1.2358e-06
137.989
1.21134e-06
137.949
1.18318e-06
137.907
1.15209e-06
137.862
1.11755e-06
137.813
1.08025e-06
137.762
1.04017e-06
137.707
9.98548e-07
137.649
9.55729e-07
137.587
9.1249e-07
137.522
8.70446e-07
137.453
8.29824e-07
137.382
7.91744e-07
137.308
7.58489e-07
137.231
7.29144e-07
137.153
7.05305e-07
137.072
6.87837e-07
136.991
6.76276e-07
136.908
6.71443e-07
136.825
6.71332e-07
136.742
6.78074e-07
136.659
6.84703e-07
136.576
6.98017e-07
136.493
7.05105e-07
136.41
7.19501e-07
136.326
7.19068e-07
136.242
7.31479e-07
136.157
7.21386e-07
136.07
7.82022e-07
135.982
1.03654e-06
135.893
3.29469e-06
135.801
1.87164e-05
135.708
0.000129905
135.613
0.000919551
135.514
0.00657061
135.402
0.0472177
135.159
0.376292
1.60717
134.54
11.5961
-0.000327732
11.5956
-0.000234858
11.5951
-0.000224933
11.5947
-0.000226711
11.5943
-0.000227156
11.5939
-0.000226942
11.5935
-0.000226878
11.5932
-0.000226877
11.593
-0.000226873
11.5927
-0.000226867
11.5926
-0.000226863
11.5924
-0.000226859
11.5923
-0.000226856
11.5922
-0.000226853
11.5922
-0.000226851
11.5922
-0.000226849
11.5922
-0.000226846
11.5922
-0.000226848
11.5922
-0.000226848
11.5922
-0.000226851
11.5922
-0.000226859
11.5921
-0.000226866
11.5921
-0.000226876
11.592
-0.000226882
11.5919
-0.000226961
11.5918
-0.000226947
11.5916
-0.000227
11.5914
-0.000227007
11.5911
-0.000227095
11.5908
-0.000227241
11.5905
-0.000227194
11.5902
-0.000227299
11.5898
-0.000227382
11.5894
-0.000227463
11.589
-0.000227547
11.5886
-0.000227635
11.5881
-0.000227724
11.5877
-0.000227815
11.5873
-0.000227892
11.5869
-0.000228023
11.5865
-0.000228102
11.5862
-0.000228201
11.5859
-0.000228296
11.5857
-0.000228392
11.5855
-0.000228484
11.5853
-0.000228567
11.5852
-0.000228636
11.5852
-0.000228682
11.5852
-0.000228693
11.5852
-0.000228654
11.5852
-0.00022854
11.5852
-0.000228347
11.5853
-0.000228013
11.5853
-0.000227521
11.5854
-0.000226821
11.5855
-0.000225864
11.5855
-0.000224589
11.5856
-0.000222935
11.5856
-0.000220835
11.5856
-0.000218214
11.5856
-0.000215003
11.5855
-0.000211157
11.5854
-0.00020661
11.5852
-0.000201318
11.585
-0.000195262
11.5847
-0.000188437
11.5844
-0.000180859
11.5841
-0.000172533
11.5837
-0.000163684
11.5833
-0.000154107
11.5829
-0.000144158
11.5825
-0.000133853
11.5821
-0.000123338
11.5817
-0.000112751
11.5814
-0.00010223
11.581
-9.19092e-05
11.5807
-8.19122e-05
11.5804
-7.23495e-05
11.5802
-6.33169e-05
11.5801
-5.48856e-05
11.5799
-4.70993e-05
11.5799
-4.00218e-05
11.5798
-3.36351e-05
11.5798
-2.79487e-05
11.5799
-2.29701e-05
11.58
-1.8598e-05
11.5801
-1.48623e-05
11.5802
-1.1678e-05
11.5804
-8.99889e-06
11.5805
-6.76932e-06
11.5806
-4.9347e-06
11.5807
-3.44055e-06
11.5808
-2.23857e-06
11.5808
-1.28133e-06
11.5808
-5.2754e-07
11.5807
6.19639e-08
11.5806
5.12939e-07
11.5804
8.45295e-07
11.5801
1.0996e-06
11.5798
1.28539e-06
11.5794
1.42103e-06
11.579
1.5184e-06
11.5785
1.58668e-06
11.5779
1.63515e-06
11.5773
1.66958e-06
11.5767
1.69322e-06
11.5761
1.71194e-06
11.5755
1.72653e-06
11.5749
1.73914e-06
11.5742
1.75162e-06
11.5737
1.76387e-06
11.5731
1.77666e-06
11.5727
1.79012e-06
11.5722
1.8041e-06
11.5718
1.81817e-06
11.5715
1.83209e-06
11.5712
1.84548e-06
11.571
1.85799e-06
11.5708
1.86874e-06
11.5706
1.87781e-06
11.5704
1.88455e-06
11.5703
1.8887e-06
11.5702
1.88976e-06
11.57
1.88835e-06
11.5698
1.88305e-06
11.5696
1.87517e-06
11.5693
1.86369e-06
11.5689
1.84905e-06
11.5685
1.83136e-06
11.5679
1.8106e-06
11.5672
1.78738e-06
11.5664
1.7618e-06
11.5655
1.73438e-06
11.5644
1.70576e-06
11.5632
1.67641e-06
11.5618
1.64704e-06
11.5603
1.61822e-06
11.5587
1.5904e-06
11.5569
1.56628e-06
11.555
1.54374e-06
11.553
1.524e-06
11.5509
1.50812e-06
11.5488
1.49609e-06
11.5466
1.48843e-06
11.5444
1.48385e-06
11.5422
1.48378e-06
11.5399
1.48623e-06
11.5377
1.49177e-06
11.5355
1.49861e-06
11.5333
1.50711e-06
11.5311
1.51536e-06
11.5289
1.52358e-06
11.5268
1.53019e-06
11.5246
1.53513e-06
11.5224
1.53741e-06
11.5202
1.53733e-06
11.5179
1.53368e-06
11.5155
1.52715e-06
11.5131
1.51724e-06
11.5106
1.50373e-06
11.5079
1.4864e-06
11.5051
1.46565e-06
11.5022
1.44092e-06
11.4991
1.41232e-06
11.4958
1.37976e-06
11.4922
1.34331e-06
11.4885
1.30309e-06
11.4844
1.25952e-06
11.4801
1.21285e-06
11.4756
1.16428e-06
11.4707
1.11429e-06
11.4656
1.06407e-06
11.4601
1.01485e-06
11.4544
9.67579e-07
11.4485
9.23481e-07
11.4423
8.84169e-07
11.4359
8.50056e-07
11.4294
8.22385e-07
11.4227
8.01887e-07
11.4159
7.88636e-07
11.409
7.82758e-07
11.4021
7.832e-07
11.3952
7.89896e-07
11.3882
7.9942e-07
11.3813
8.12712e-07
11.3744
8.23949e-07
11.3675
8.36428e-07
11.3605
8.41421e-07
11.3535
8.47656e-07
11.3464
8.4265e-07
11.3392
8.58634e-07
11.3319
9.37367e-07
11.3244
1.69999e-06
11.3168
6.95738e-06
11.3091
4.49464e-05
11.3018
0.000314258
11.2981
0.00226661
11.3201
0.0169225
11.5033
0.184774
0.697178
12.4048
5.79765
5.79716
5.79669
5.79623
5.79578
5.79535
5.79493
5.79453
5.79416
5.7938
5.79347
5.79315
5.79286
5.79258
5.79231
5.79206
5.79181
5.79157
5.79133
5.79109
5.79084
5.79059
5.79032
5.79004
5.78975
5.78943
5.7891
5.78874
5.78837
5.78799
5.7876
5.78719
5.78677
5.78633
5.78587
5.78541
5.78495
5.78448
5.78403
5.78359
5.78316
5.78275
5.78237
5.782
5.78166
5.78135
5.78106
5.78078
5.78052
5.78028
5.78004
5.77981
5.7796
5.77938
5.77918
5.77898
5.77877
5.77856
5.77834
5.77811
5.77786
5.7776
5.77731
5.77701
5.77669
5.77635
5.77601
5.77565
5.77529
5.77493
5.77458
5.77423
5.7739
5.77358
5.77329
5.77302
5.77278
5.77257
5.7724
5.77225
5.77214
5.77206
5.77201
5.77199
5.77199
5.77201
5.77205
5.7721
5.77216
5.77222
5.77227
5.77232
5.77235
5.77236
5.77235
5.77232
5.77225
5.77216
5.77203
5.77187
5.77168
5.77145
5.7712
5.77093
5.77064
5.77034
5.77003
5.76972
5.76941
5.76911
5.76883
5.76856
5.76832
5.7681
5.76791
5.76774
5.7676
5.76748
5.76738
5.7673
5.76723
5.76716
5.76709
5.76702
5.76692
5.76681
5.76667
5.76649
5.76626
5.76598
5.76565
5.76525
5.76478
5.76424
5.76363
5.76295
5.7622
5.76137
5.76049
5.75955
5.75856
5.75752
5.75646
5.75537
5.75426
5.75315
5.75203
5.75092
5.74981
5.74872
5.74763
5.74654
5.74546
5.74437
5.74328
5.74216
5.74103
5.73985
5.73864
5.73738
5.73606
5.73466
5.73319
5.73164
5.72998
5.72821
5.72633
5.72432
5.72217
5.71989
5.71746
5.71489
5.71218
5.70933
5.70636
5.70327
5.70008
5.6968
5.69345
5.69005
5.68662
5.68316
5.6797
5.67624
5.67278
5.66932
5.66586
5.66238
5.65887
5.65532
5.65172
5.64806
5.64432
5.64052
5.63669
5.63305
5.63129
5.64411
5.82471
6.51767
4.95629
0.123555
4.96298
-0.0077718
4.9588
0.00309107
4.96184
-0.00412443
4.97225
-0.0114865
4.98494
-0.0137284
5.02996
-0.0459904
5.15142
-0.122558
5.31289
-0.162783
5.40261
-0.0912161
5.37499
0.0263121
5.28137
0.092599
5.14379
0.136825
5.01612
0.127565
5.047
-0.0292152
5.40421
-0.35587
6.00519
-0.600518
6.65088
-0.646845
7.14493
-0.496749
-0.543598
7.68511
10.3879
0.174355
10.4054
-0.0273613
10.4515
-0.0451338
10.5039
-0.0587069
10.5644
-0.0740829
10.6275
-0.0787975
10.7537
-0.174122
11.032
-0.403025
11.4036
-0.537025
11.6535
-0.344111
11.6784
-0.00105569
11.5599
0.209179
11.3148
0.380493
11.0024
0.439826
10.8731
0.103425
11.3089
-0.788865
12.2352
-1.52651
13.4243
-1.83898
14.4529
-1.53169
-1.50978
15.412
134.574
0.120139
134.631
-0.104281
134.619
-0.0534731
134.446
0.0938334
134.124
0.227273
133.711
0.313445
133.148
0.369147
132.365
0.35772
131.417
0.391967
130.694
0.357301
130.316
0.354272
130.177
0.325613
130.236
0.296761
130.381
0.269207
130.211
0.24354
129.177
0.217656
127.442
0.184483
125.451
0.131343
123.861
0.0424124
-0.181024
122.515
12.3469
0.176872
12.2482
-0.00680443
12.2012
-0.00776831
12.2702
0.0235586
12.4401
0.05602
12.6708
0.081248
12.9383
0.0997592
13.1943
0.100953
13.474
0.11031
13.7278
0.102578
13.9814
0.0993472
14.2161
0.0894698
14.433
0.07839
14.6333
0.0675386
14.8183
0.0570867
14.9893
0.04515
15.1457
0.0266253
15.2832
-0.00779841
15.3959
-0.0719361
-0.25505
15.4683
6.69396
6.68656
6.67818
6.7011
6.75646
6.83699
6.93592
7.03636
7.14589
7.24793
7.34662
7.43541
7.51311
7.57996
7.63634
7.68077
7.70664
7.69807
7.62535
7.36951
7.30722
0.373143
7.35665
-0.0502543
7.72402
-0.371606
7.86583
-0.147455
7.84917
0.0118809
7.8105
0.0339832
7.8085
-0.00283096
7.82559
-0.0221714
7.83058
-0.0101011
7.82449
0.000957607
7.81676
0.00261208
7.81106
0.000470224
7.80811
-0.00229902
7.80415
-0.00134283
7.79863
0.000158821
7.79273
0.000489066
7.78674
0.000532281
7.78109
0.000143246
7.77674
-0.00121558
7.77235
-0.00122589
7.76683
-0.000134165
7.76039
0.000741705
7.75347
0.00119272
7.74616
0.00154695
7.73852
0.00186056
7.73059
0.00211767
7.72244
0.00230853
7.71417
0.00242035
7.70584
0.00244899
7.69755
0.00239871
7.68934
0.00228054
7.68129
0.00211135
7.6734
0.0019124
7.66568
0.00170725
7.6581
0.0015193
7.65063
0.00136931
7.64321
0.00127328
7.63575
0.00124126
7.6282
0.0012768
7.62047
0.00137742
7.6125
0.0015352
7.60425
0.001738
7.59568
0.00197058
7.58676
0.00221622
7.5775
0.00245812
7.56791
0.00268083
7.55803
0.00287121
7.54788
0.00301923
7.53753
0.00311825
7.52702
0.00316523
7.5164
0.00316038
7.50572
0.00310705
7.49503
0.00301115
7.48437
0.00288056
7.47376
0.00272479
7.46323
0.00255409
7.45278
0.00237905
7.44241
0.00220956
7.43212
0.00205346
7.42188
0.00191776
7.41167
0.00180852
7.40147
0.00173117
7.39125
0.00169112
7.38096
0.00169424
7.37055
0.00174745
7.35998
0.00185821
7.34918
0.00203699
7.33808
0.00229195
7.32661
0.00261199
7.3148
0.00291488
7.30301
0.00283489
7.29311
0.000909157
7.29196
-0.00783035
7.30129
-0.0183706
7.31097
-0.0188251
7.31156
-0.00979934
7.3014
0.00093547
7.28534
0.00685378
7.26722
0.00888198
7.24754
0.01039
7.22643
0.0117805
7.2036
0.013462
7.17869
0.0154968
7.15139
0.0178402
7.12145
0.0204209
7.08874
0.0231419
7.05321
0.0259139
7.01487
0.0286846
6.97368
0.0314663
6.92953
0.034357
6.8821
0.0375477
6.83081
0.0412949
6.77483
0.0458828
6.7131
0.0515694
6.64438
0.0585342
6.56729
0.0668258
6.48049
0.0763718
6.38291
0.0868131
6.2742
0.0975361
6.15504
0.107982
6.02692
0.11709
5.8921
0.123918
5.7538
0.127423
5.6159
0.127166
5.48227
0.12299
5.35634
0.11494
5.24102
0.104069
5.13822
0.091406
5.04862
0.0780515
4.97193
0.0649287
4.90723
0.0528687
4.85313
0.0422074
4.80804
0.033138
4.77037
0.0256488
4.73869
0.0196105
4.71173
0.0148356
4.68842
0.0111193
4.66792
0.00826514
4.64954
0.00609744
4.63274
0.00446702
4.61711
0.0032512
4.60234
0.00235155
4.58818
0.00169062
4.57446
0.00120834
4.56105
0.000858684
4.54786
0.000606769
4.5348
0.00042638
4.52183
0.000297986
4.50892
0.000207144
4.49603
0.000143252
4.48315
9.8578e-05
4.47026
6.75254e-05
4.45735
4.60657e-05
4.44442
3.13229e-05
4.43145
2.12525e-05
4.41845
1.44141e-05
4.40541
9.79615e-06
4.39233
6.69462e-06
4.3792
4.62226e-06
4.36603
3.24428e-06
4.3528
2.33187e-06
4.33951
1.73014e-06
4.32617
1.33304e-06
4.31277
1.07101e-06
4.2993
8.96855e-07
4.28577
7.80696e-07
4.27217
7.01222e-07
4.25849
6.46218e-07
4.24474
6.05965e-07
4.23091
5.7551e-07
4.217
5.49602e-07
4.20301
5.27967e-07
4.18894
5.07291e-07
4.17479
4.91402e-07
4.16056
4.74696e-07
4.14625
4.61259e-07
4.13186
4.43553e-07
4.1174
4.28254e-07
4.10285
4.07694e-07
4.08824
3.9286e-07
4.07355
3.73231e-07
4.05879
3.61091e-07
4.04397
3.42341e-07
4.02909
3.27911e-07
4.01415
3.08597e-07
3.99915
2.90571e-07
3.98411
2.69203e-07
3.96901
2.5286e-07
3.95387
2.27968e-07
3.93869
2.1457e-07
3.92347
1.84313e-07
3.90822
1.73e-07
3.89294
1.41001e-07
3.87763
1.32837e-07
3.86229
9.77961e-08
3.84693
9.33924e-08
3.83155
4.88362e-08
3.81614
5.58575e-08
3.80071
-1.47375e-08
3.78526
3.17759e-08
3.76978
-1.04161e-07
3.75428
4.38486e-08
3.73875
-2.31606e-07
3.7232
1.03711e-07
3.70763
-3.97395e-07
3.69202
1.85133e-07
3.67639
-5.70579e-07
3.66073
2.31075e-07
3.64505
-6.97068e-07
3.62934
1.6985e-07
3.61361
-9.23646e-07
3.59784
-5.44633e-07
3.58206
-4.96136e-06
3.56626
-1.85458e-05
3.55051
-9.62434e-05
3.53509
-0.00046665
3.5215
-0.00232387
3.5176
-0.0120619
3.59634
-0.0947325
-0.336827
3.9172
14.6406
1.13602
14.3049
0.284153
14.7976
-0.87231
15.0928
-0.454064
15.0919
0.00309635
15.0019
0.114617
14.9734
0.015903
14.997
-0.0558561
15.0121
-0.0353679
15.0043
-0.00152445
14.9883
0.00833692
14.9747
0.00360931
14.9678
-0.00593788
14.9608
-0.0049451
14.9508
-0.000563562
14.9394
0.00111126
14.9271
0.00189284
14.915
0.0012385
14.9059
-0.00322095
14.8981
-0.00462929
14.8891
-0.00245721
14.8785
-7.31439e-05
14.8668
0.00141339
14.8543
0.00259991
14.8409
0.00369365
14.8267
0.00465146
14.8119
0.0054419
14.7966
0.0060182
14.7809
0.00635653
14.7651
0.00645657
14.7492
0.00633779
14.7334
0.00603772
14.7177
0.00560875
14.7023
0.00511316
14.6871
0.00461651
14.6721
0.00418057
14.6572
0.00385699
14.6423
0.00368304
14.6273
0.0036792
14.6122
0.0038494
14.5967
0.00418172
14.5807
0.00465089
14.5643
0.00522091
14.5472
0.00584947
14.5296
0.00649189
14.5114
0.00710546
14.4926
0.0076528
14.4732
0.00810419
14.4534
0.00843932
14.4333
0.00864802
14.4128
0.00872983
14.3921
0.00869396
14.3712
0.00855797
14.3501
0.00834604
14.329
0.00808878
14.3078
0.0078199
14.2864
0.00757557
14.2649
0.00739177
14.2432
0.00729905
14.2211
0.00732777
14.1986
0.00750705
14.1756
0.00786644
14.1517
0.00843773
14.127
0.00925698
14.101
0.0103673
14.0736
0.0118182
14.0445
0.0136749
14.0131
0.0160055
13.9792
0.0188334
13.9423
0.0219863
13.9027
0.0244588
13.8634
0.0221181
13.8403
-0.0027397
13.8458
-0.04192
13.868
-0.059241
13.8856
-0.0457601
13.8855
-0.0173557
13.8692
0.00476455
13.8433
0.0163758
13.8098
0.025317
13.7697
0.0331427
13.7232
0.0412683
13.6698
0.0500076
13.6094
0.0593107
13.5418
0.0690131
13.467
0.0788463
13.3851
0.0885446
13.2965
0.0979377
13.2015
0.107034
13.1
0.116084
12.9921
0.125595
12.8772
0.136239
12.7543
0.148727
12.6221
0.163638
12.479
0.181256
12.3234
0.201494
12.1545
0.223668
11.9725
0.246894
11.7787
0.269533
11.5752
0.289902
11.3649
0.305873
11.1518
0.315447
10.9409
0.317184
10.7366
0.310246
10.5431
0.294661
10.3641
0.271644
10.2022
0.243327
10.0587
0.212055
9.93335
0.180121
9.82524
0.149558
9.73278
0.121712
9.65392
0.0973089
9.58656
0.076616
9.52866
0.0595322
9.47841
0.0457303
9.43422
0.0347766
9.39477
0.026211
9.35897
0.0195959
9.32596
0.0145416
9.29505
0.0107158
9.2657
0.0078444
9.2375
0.00570582
9.21013
0.00412453
9.18336
0.00296334
9.157
0.00211629
9.13092
0.00150237
9.10503
0.00106025
9.07925
0.000743855
9.05352
0.000518836
9.02781
0.0003598
9.00209
0.000248092
8.97635
0.000170113
8.95055
0.000116012
8.9247
7.87112e-05
8.89878
5.315e-05
8.87279
3.57433e-05
8.84671
2.39607e-05
8.82055
1.60334e-05
8.7943
1.07315e-05
8.76795
7.20609e-06
8.7415
4.8744e-06
8.71493
3.34166e-06
8.68825
2.33669e-06
8.66145
1.68142e-06
8.63451
1.25379e-06
8.60745
9.7638e-07
8.58024
7.94138e-07
8.55289
6.75441e-07
8.52538
5.95056e-07
8.49772
5.41015e-07
8.46991
5.00344e-07
8.44193
4.72371e-07
8.4138
4.4552e-07
8.3855
4.30547e-07
8.35704
4.10918e-07
8.32842
4.0105e-07
8.29964
3.81381e-07
8.27071
3.71567e-07
8.24162
3.49054e-07
8.21239
3.42024e-07
8.18302
3.18258e-07
8.15351
3.1487e-07
8.12387
2.92187e-07
8.0941
2.84654e-07
8.06422
2.65265e-07
8.03423
2.52174e-07
8.00413
2.30136e-07
7.97394
2.22852e-07
7.94367
1.90526e-07
7.91331
1.93836e-07
7.88287
1.49719e-07
7.85237
1.60779e-07
7.8218
1.11223e-07
7.79118
1.274e-07
7.76051
7.1897e-08
7.72979
9.76445e-08
7.69902
2.38947e-08
7.6682
8.08423e-08
7.63734
-5.80792e-08
7.60643
1.0973e-07
7.57548
-2.18804e-07
7.54448
2.4254e-07
7.51343
-4.98162e-07
7.48232
5.02472e-07
7.45117
-8.63825e-07
7.41996
7.91417e-07
7.3887
-1.1974e-06
7.35739
9.61412e-07
7.32602
-1.40452e-06
7.2946
8.92557e-07
7.26313
-1.98862e-06
7.2316
-1.00932e-06
7.20004
-1.37413e-05
7.16843
-5.34203e-05
7.13692
-0.000280398
7.10604
-0.00136031
7.0786
-0.00672201
7.06803
-0.0334025
7.12679
-0.185498
-0.694414
7.45232
123.495
0.0482465
123.589
0.0696852
122.524
0.0769184
121.913
0.0439966
121.785
0.0144564
121.774
0.00890188
121.659
0.0118099
121.472
0.0104988
121.308
0.00719445
121.179
0.0055299
121.059
0.00492565
120.934
0.0043537
120.798
0.00340124
120.664
0.00248146
120.533
0.00192355
120.403
0.00162971
120.272
0.0014523
120.14
0.0013071
120.003
0.00100679
119.863
0.000480032
119.726
-0.000357222
119.59
-0.00109724
119.456
-0.00164517
119.323
-0.00202916
119.19
-0.00228048
119.058
-0.0024573
118.925
-0.00258803
118.794
-0.00269672
118.662
-0.00280218
118.53
-0.0029202
118.397
-0.00306413
118.264
-0.00324358
118.13
-0.00346353
117.995
-0.00372342
117.858
-0.00401715
117.721
-0.004334
117.582
-0.00465975
117.442
-0.00497882
117.301
-0.00527593
117.158
-0.00553759
117.014
-0.00575296
116.868
-0.00591476
116.721
-0.0060193
116.572
-0.00606681
116.421
-0.00606016
116.268
-0.00600476
116.113
-0.0059073
115.956
-0.00577483
115.796
-0.00561438
115.634
-0.0054319
115.469
-0.00523266
115.301
-0.00502037
115.13
-0.00479798
114.956
-0.00456669
114.78
-0.00432681
114.6
-0.0040786
114.417
-0.00383415
114.233
-0.00360127
114.045
-0.00341739
113.856
-0.003257
113.665
-0.0031192
113.473
-0.00298986
113.279
-0.00286046
113.084
-0.00271793
112.889
-0.00255495
112.694
-0.00237844
112.499
-0.00206801
112.304
-0.00172261
112.111
-0.0012706
111.92
-0.00070012
111.73
-0.000172708
111.537
-0.000307538
111.321
-0.0025773
111.074
-0.0101264
110.819
-0.0193337
110.588
-0.0270349
110.389
-0.0323075
110.215
-0.0364892
110.055
-0.0420053
109.91
-0.049893
109.783
-0.0607337
109.676
-0.0748655
109.594
-0.0925124
109.54
-0.113812
109.52
-0.138743
109.537
-0.166919
109.592
-0.197481
109.687
-0.229033
109.82
-0.25966
109.988
-0.287083
110.185
-0.308916
110.406
-0.323521
110.644
-0.330021
110.894
-0.328717
111.152
-0.320868
111.414
-0.308157
111.681
-0.292299
111.951
-0.274233
112.221
-0.254466
112.487
-0.233281
112.745
-0.21093
112.986
-0.187511
113.203
-0.163973
113.387
-0.140922
113.531
-0.119042
113.63
-0.0990745
113.681
-0.0815209
113.682
-0.0664717
113.638
-0.0538267
113.55
-0.0433402
113.424
-0.0347112
113.264
-0.027651
113.076
-0.0218986
112.865
-0.0172319
112.635
-0.0134657
112.39
-0.0104452
112.132
-0.00804017
111.864
-0.00614025
111.589