/*--------------------------------*- C++ -*----------------------------------*\
| =========                 |                                                 |
| \\      /  F ield         | OpenFOAM: The Open Source CFD Toolbox           |
|  \\    /   O peration     | Version:  3.0.x                                 |
|   \\  /    A nd           | Web:      www.OpenFOAM.org                      |
|    \\/     M anipulation  |                                                 |
\*---------------------------------------------------------------------------*/
FoamFile
{
    version     2.0;
    format      ascii;
    class       volScalarField;
    location    "0.43";
    object      rho;
}
// * * * * * * * * * * * * * * * * * * * * * * * * * * * * * * * * * * * * * //

dimensions      [1 -3 0 0 0 0 0];

internalField   nonuniform List<scalar> 
6900
(
50.9212
50.9212
50.9212
50.9213
50.9213
50.9213
50.9213
50.9212
50.9212
50.9212
50.9212
50.9211
50.9211
50.9211
50.921
50.921
50.921
50.921
50.9209
50.9209
50.9209
50.9209
50.9209
50.9209
50.9209
50.9209
50.9209
50.9209
50.921
50.9211
50.9213
50.9215
50.9217
50.9219
50.9221
50.9222
50.9223
50.9223
50.9224
50.9224
50.9225
50.9226
50.9228
50.9229
50.9231
50.9233
50.9235
50.9237
50.9238
50.9239
50.9239
50.9239
50.9239
50.9238
50.9238
50.9239
50.924
50.9241
50.9242
50.9244
50.9245
50.9247
50.9248
50.9249
50.925
50.9251
50.9252
50.9253
50.9255
50.9256
50.9257
50.9258
50.9259
50.9259
50.926
50.9261
50.9261
50.9261
50.9262
50.9262
50.9261
50.9261
50.9261
50.926
50.9259
50.9258
50.9257
50.9256
50.9255
50.9255
50.9254
50.9253
50.9252
50.9252
50.9252
50.9251
50.9252
50.9252
50.9253
50.9253
50.9254
50.9256
50.9257
50.9259
50.9261
50.9263
50.9265
50.9267
50.9269
50.927
50.9272
50.9274
50.9276
50.9277
50.9278
50.9279
50.928
50.928
50.9281
50.9281
50.9282
50.9282
50.9282
50.9282
50.9282
50.9283
50.9283
50.9284
50.9285
50.9286
50.9288
50.929
50.9292
50.9295
50.9299
50.9302
50.9307
50.9312
50.9317
50.9322
50.9328
50.9335
50.9341
50.9348
50.9355
50.9362
50.9368
50.9375
50.9382
50.9389
50.9396
50.9402
50.9409
50.9415
50.9422
50.9429
50.9435
50.9442
50.9449
50.9457
50.9464
50.9472
50.9481
50.949
50.9499
50.9509
50.952
50.9531
50.9544
50.9557
50.9571
50.9586
50.9602
50.9618
50.9636
50.9654
50.9673
50.9692
50.9712
50.9733
50.9753
50.9774
50.9795
50.9816
50.9837
50.9858
50.9879
50.9899
50.9921
50.9942
50.9963
50.9985
51.0008
51.003
51.0054
51.0076
51.0102
51.0124
51.0155
51.0151
50.9214
50.9214
50.9214
50.9215
50.9215
50.9215
50.9215
50.9214
50.9214
50.9214
50.9214
50.9213
50.9213
50.9213
50.9212
50.9212
50.9212
50.9211
50.9211
50.9211
50.9211
50.9211
50.9211
50.9211
50.9211
50.9211
50.9211
50.9211
50.9212
50.9213
50.9215
50.9217
50.9219
50.9221
50.9223
50.9224
50.9225
50.9225
50.9225
50.9226
50.9227
50.9228
50.9229
50.9231
50.9233
50.9234
50.9236
50.9238
50.9239
50.924
50.9241
50.9241
50.924
50.924
50.924
50.924
50.9241
50.9242
50.9244
50.9245
50.9246
50.9248
50.9249
50.925
50.9252
50.9253
50.9254
50.9255
50.9256
50.9257
50.9258
50.9259
50.926
50.9261
50.9261
50.9262
50.9262
50.9263
50.9263
50.9263
50.9263
50.9262
50.9262
50.9261
50.926
50.926
50.9259
50.9258
50.9257
50.9256
50.9255
50.9254
50.9254
50.9253
50.9253
50.9253
50.9253
50.9253
50.9254
50.9255
50.9256
50.9257
50.9259
50.926
50.9262
50.9264
50.9266
50.9268
50.927
50.9272
50.9274
50.9275
50.9277
50.9278
50.9279
50.928
50.9281
50.9282
50.9282
50.9283
50.9283
50.9283
50.9283
50.9283
50.9284
50.9284
50.9284
50.9285
50.9286
50.9287
50.9289
50.9291
50.9294
50.9297
50.93
50.9304
50.9308
50.9313
50.9318
50.9324
50.933
50.9336
50.9342
50.9349
50.9356
50.9363
50.937
50.9377
50.9383
50.939
50.9397
50.9404
50.941
50.9417
50.9423
50.943
50.9437
50.9444
50.9451
50.9458
50.9466
50.9474
50.9482
50.9491
50.95
50.951
50.9521
50.9533
50.9545
50.9558
50.9572
50.9587
50.9603
50.962
50.9637
50.9655
50.9674
50.9694
50.9714
50.9734
50.9755
50.9775
50.9796
50.9817
50.9838
50.9859
50.988
50.9901
50.9922
50.9943
50.9965
50.9986
51.0009
51.0031
51.0055
51.0078
51.0103
51.0125
51.0156
51.0155
50.9214
50.9214
50.9214
50.9215
50.9215
50.9215
50.9214
50.9214
50.9214
50.9214
50.9214
50.9213
50.9213
50.9213
50.9212
50.9212
50.9212
50.9211
50.9211
50.9211
50.9211
50.9211
50.9211
50.9211
50.9211
50.9211
50.9211
50.9211
50.9212
50.9213
50.9214
50.9217
50.9219
50.9221
50.9223
50.9224
50.9224
50.9225
50.9225
50.9226
50.9227
50.9228
50.9229
50.9231
50.9232
50.9234
50.9236
50.9238
50.9239
50.924
50.9241
50.9241
50.924
50.924
50.924
50.924
50.9241
50.9242
50.9244
50.9245
50.9246
50.9248
50.9249
50.925
50.9252
50.9253
50.9254
50.9255
50.9256
50.9257
50.9258
50.9259
50.926
50.9261
50.9261
50.9262
50.9262
50.9263
50.9263
50.9263
50.9263
50.9262
50.9262
50.9261
50.926
50.926
50.9259
50.9258
50.9257
50.9256
50.9255
50.9254
50.9254
50.9253
50.9253
50.9253
50.9253
50.9253
50.9254
50.9255
50.9256
50.9257
50.9259
50.926
50.9262
50.9264
50.9266
50.9268
50.927
50.9272
50.9274
50.9275
50.9277
50.9278
50.9279
50.928
50.9281
50.9282
50.9282
50.9283
50.9283
50.9283
50.9283
50.9283
50.9284
50.9284
50.9284
50.9285
50.9286
50.9287
50.9289
50.9291
50.9294
50.9297
50.93
50.9304
50.9308
50.9313
50.9318
50.9324
50.933
50.9336
50.9342
50.9349
50.9356
50.9363
50.937
50.9377
50.9383
50.939
50.9397
50.9404
50.941
50.9417
50.9423
50.943
50.9437
50.9444
50.9451
50.9458
50.9466
50.9474
50.9482
50.9491
50.95
50.951
50.9521
50.9533
50.9545
50.9558
50.9572
50.9587
50.9603
50.962
50.9637
50.9655
50.9674
50.9694
50.9714
50.9734
50.9755
50.9775
50.9796
50.9817
50.9838
50.9859
50.988
50.9901
50.9922
50.9943
50.9965
50.9986
51.0009
51.0031
51.0055
51.0078
51.0103
51.0126
51.0152
51.0177
50.9214
50.9214
50.9214
50.9215
50.9215
50.9215
50.9215
50.9214
50.9214
50.9214
50.9214
50.9213
50.9213
50.9213
50.9212
50.9212
50.9212
50.9211
50.9211
50.9211
50.9211
50.9211
50.9211
50.9211
50.9211
50.9211
50.9211
50.9211
50.9212
50.9213
50.9215
50.9217
50.9219
50.9221
50.9223
50.9224
50.9225
50.9225
50.9225
50.9226
50.9227
50.9228
50.9229
50.9231
50.9233
50.9234
50.9236
50.9238
50.9239
50.924
50.9241
50.9241
50.924
50.924
50.924
50.924
50.9241
50.9242
50.9244
50.9245
50.9246
50.9248
50.9249
50.925
50.9252
50.9253
50.9254
50.9255
50.9256
50.9257
50.9258
50.9259
50.926
50.9261
50.9261
50.9262
50.9262
50.9263
50.9263
50.9263
50.9263
50.9262
50.9262
50.9261
50.926
50.926
50.9259
50.9258
50.9257
50.9256
50.9255
50.9254
50.9254
50.9253
50.9253
50.9253
50.9253
50.9253
50.9254
50.9255
50.9256
50.9257
50.9259
50.926
50.9262
50.9264
50.9266
50.9268
50.927
50.9272
50.9274
50.9275
50.9277
50.9278
50.9279
50.928
50.9281
50.9282
50.9282
50.9283
50.9283
50.9283
50.9283
50.9283
50.9284
50.9284
50.9284
50.9285
50.9286
50.9287
50.9289
50.9291
50.9294
50.9297
50.93
50.9304
50.9308
50.9313
50.9318
50.9324
50.933
50.9336
50.9342
50.9349
50.9356
50.9363
50.937
50.9377
50.9383
50.939
50.9397
50.9404
50.941
50.9417
50.9423
50.943
50.9437
50.9444
50.9451
50.9458
50.9466
50.9474
50.9482
50.9491
50.95
50.951
50.9521
50.9533
50.9545
50.9558
50.9572
50.9587
50.9603
50.962
50.9637
50.9655
50.9674
50.9694
50.9714
50.9734
50.9755
50.9775
50.9796
50.9817
50.9838
50.9859
50.988
50.9901
50.9922
50.9943
50.9965
50.9987
51.0009
51.0032
51.0054
51.0079
51.0101
51.0127
51.0141
51.0229
50.9212
50.9212
50.9212
50.9213
50.9213
50.9213
50.9213
50.9212
50.9212
50.9212
50.9212
50.9211
50.9211
50.9211
50.921
50.921
50.921
50.921
50.9209
50.9209
50.9209
50.9209
50.9209
50.9209
50.9209
50.9209
50.9209
50.9209
50.921
50.9211
50.9213
50.9215
50.9217
50.9219
50.9221
50.9222
50.9223
50.9223
50.9224
50.9224
50.9225
50.9226
50.9228
50.9229
50.9231
50.9233
50.9235
50.9237
50.9238
50.9239
50.9239
50.9239
50.9239
50.9238
50.9238
50.9239
50.924
50.9241
50.9242
50.9244
50.9245
50.9247
50.9248
50.9249
50.925
50.9251
50.9252
50.9253
50.9255
50.9256
50.9257
50.9258
50.9259
50.9259
50.926
50.9261
50.9261
50.9261
50.9262
50.9262
50.9261
50.9261
50.9261
50.926
50.9259
50.9258
50.9257
50.9256
50.9255
50.9255
50.9254
50.9253
50.9252
50.9252
50.9252
50.9251
50.9252
50.9252
50.9253
50.9253
50.9254
50.9256
50.9257
50.9259
50.9261
50.9263
50.9265
50.9267
50.9269
50.927
50.9272
50.9274
50.9276
50.9277
50.9278
50.9279
50.928
50.928
50.9281
50.9281
50.9282
50.9282
50.9282
50.9282
50.9282
50.9283
50.9283
50.9284
50.9285
50.9286
50.9288
50.929
50.9292
50.9295
50.9299
50.9302
50.9307
50.9312
50.9317
50.9322
50.9328
50.9335
50.9341
50.9348
50.9355
50.9362
50.9368
50.9375
50.9382
50.9389
50.9396
50.9402
50.9409
50.9415
50.9422
50.9429
50.9435
50.9442
50.9449
50.9457
50.9464
50.9472
50.9481
50.949
50.9499
50.9509
50.952
50.9531
50.9544
50.9557
50.9571
50.9586
50.9602
50.9618
50.9636
50.9654
50.9673
50.9692
50.9712
50.9733
50.9753
50.9774
50.9795
50.9816
50.9837
50.9858
50.9879
50.9899
50.9921
50.9942
50.9963
50.9985
51.0007
51.0031
51.0053
51.0078
51.01
51.0126
51.0134
51.0285
51.0344
51.0416
51.0428
51.0416
51.0405
51.0397
51.0395
51.0401
51.039
51.0341
51.026
51.0192
51.0138
51.0087
51.0079
51.0194
51.0312
51.0347
51.0267
51.0083
51.0311
51.0349
51.0353
51.0342
51.0332
51.0325
51.0324
51.0332
51.0319
51.0264
51.0181
51.0117
51.0065
51.0019
51.0011
51.014
51.0252
51.0257
51.0141
50.9934
51.0199
51.0205
51.0198
51.0182
51.016
51.013
51.0092
51.0046
50.9993
50.9939
50.988
50.9809
50.9727
50.9635
50.9534
50.9417
50.93
50.9196
50.9109
50.9026
50.9985
50.9959
50.9972
50.9993
50.9987
50.9956
50.9908
50.9842
50.9789
50.9719
50.966
50.9596
50.9532
50.9479
50.943
50.9382
50.9341
50.9305
50.9276
50.9256
50.9889
50.9776
50.9736
50.9734
50.9718
50.9675
50.9615
50.954
50.947
50.9389
50.9314
50.9237
50.9165
50.9096
50.9035
50.8976
50.8925
50.8878
50.8846
50.8829
50.9247
50.9134
50.9346
50.9327
50.928
50.9292
50.9321
50.9345
50.9365
50.9389
50.9418
50.9446
50.9473
50.9502
50.9531
50.956
50.959
50.962
50.9652
50.9683
50.9713
50.9745
50.9777
50.981
50.9843
50.9877
50.9912
50.9947
50.9982
51.0018
51.0055
51.0092
51.0129
51.0167
51.0206
51.0245
51.0284
51.0324
51.0364
51.0405
51.0446
51.0487
51.0529
51.0571
51.0614
51.0657
51.0701
51.0745
51.0789
51.0834
51.0879
51.0925
51.097
51.1016
51.1062
51.1109
51.1156
51.1203
51.125
51.1298
51.1347
51.1395
51.1444
51.1493
51.1542
51.1592
51.1643
51.1694
51.1746
51.1799
51.1851
51.1904
51.1958
51.2015
51.2069
51.212
51.2171
51.2225
51.2282
51.2339
51.2396
51.2454
51.2513
51.2572
51.2631
51.2691
51.2751
51.2814
51.2877
51.2942
51.3007
51.307
51.313
51.3192
51.3257
51.3328
51.3399
51.3458
51.3487
51.3509
51.3547
51.361
51.3689
51.3783
51.3905
51.4017
51.411
51.4193
51.4273
51.4343
51.4406
51.4472
51.4539
51.4607
51.4676
51.4746
51.4817
51.4888
51.496
51.5032
51.5105
51.5178
51.5252
51.5326
51.54
51.5475
51.5551
51.5627
51.5703
51.578
51.5857
51.5934
51.6012
51.609
51.6169
51.6247
51.6327
51.6406
51.6486
51.6567
51.6647
51.6728
51.681
51.6891
51.6973
51.7055
51.7138
51.7221
51.7304
51.7387
51.7471
51.7555
51.7639
51.7724
51.7809
51.7894
51.798
51.8066
51.8152
51.8238
51.8325
51.8412
51.85
51.8587
51.8675
51.8764
51.8852
51.8941
51.903
51.912
51.921
51.93
51.939
51.948
51.9571
51.9662
51.9753
51.9845
51.9936
52.0029
52.012
52.0213
52.0305
52.0399
52.0491
52.0586
52.0678
52.0774
52.0866
52.0963
52.1054
52.1152
52.1243
52.1343
52.1432
52.1533
52.1622
52.1724
52.1805
52.1922
50.9198
50.9139
50.9337
50.932
50.9273
50.9282
50.931
50.9332
50.9353
50.9378
50.9407
50.9434
50.9461
50.949
50.9519
50.9548
50.9578
50.9609
50.964
50.9671
50.9702
50.9733
50.9766
50.9799
50.9832
50.9866
50.9901
50.9936
50.9972
51.0008
51.0044
51.0081
51.0119
51.0157
51.0195
51.0234
51.0273
51.0313
51.0353
51.0394
51.0435
51.0476
51.0518
51.0561
51.0604
51.0648
51.0691
51.0736
51.078
51.0825
51.087
51.0915
51.0961
51.1007
51.1053
51.1099
51.1146
51.1193
51.1241
51.1288
51.1336
51.1384
51.1433
51.1482
51.1531
51.1581
51.1632
51.1682
51.1734
51.1785
51.1836
51.1886
51.1938
51.1994
51.205
51.2104
51.2157
51.2211
51.2269
51.2326
51.2384
51.2441
51.2498
51.2555
51.2614
51.2675
51.2737
51.2799
51.2861
51.2922
51.2983
51.3043
51.3107
51.3176
51.3247
51.331
51.3353
51.3382
51.3417
51.3467
51.3536
51.3617
51.3712
51.3832
51.3941
51.4033
51.4116
51.4197
51.4269
51.4335
51.4402
51.4469
51.4537
51.4606
51.4676
51.4746
51.4817
51.4889
51.4961
51.5033
51.5106
51.5179
51.5253
51.5327
51.5402
51.5477
51.5552
51.5628
51.5704
51.5781
51.5858
51.5935
51.6013
51.6091
51.617
51.6249
51.6328
51.6408
51.6488
51.6568
51.6649
51.673
51.6811
51.6892
51.6974
51.7057
51.7139
51.7222
51.7305
51.7388
51.7472
51.7556
51.764
51.7725
51.781
51.7895
51.7981
51.8067
51.8153
51.8239
51.8326
51.8413
51.8501
51.8589
51.8677
51.8765
51.8854
51.8942
51.9032
51.9121
51.9211
51.9301
51.9391
51.9482
51.9572
51.9663
51.9755
51.9846
51.9938
52.003
52.0122
52.0215
52.0307
52.0401
52.0493
52.0588
52.0679
52.0775
52.0867
52.0964
52.1055
52.1153
52.1244
52.1344
52.1434
52.1534
52.1623
52.1725
52.181
52.1911
50.8811
50.8941
50.9032
50.9063
50.9079
50.9099
50.9125
50.915
50.9177
50.9204
50.9231
50.9259
50.9287
50.9316
50.9345
50.9375
50.9405
50.9436
50.9468
50.9499
50.9532
50.9565
50.9598
50.9631
50.9665
50.9699
50.9733
50.9768
50.9803
50.9839
50.9876
50.9914
50.9952
50.9991
51.0031
51.0071
51.0112
51.0153
51.0195
51.0236
51.0278
51.032
51.0363
51.0405
51.0448
51.049
51.0533
51.0576
51.062
51.0664
51.0709
51.0754
51.0799
51.0845
51.0891
51.0938
51.0984
51.103
51.1077
51.1124
51.1172
51.1219
51.1267
51.1314
51.1361
51.1409
51.1457
51.1506
51.1556
51.1605
51.1656
51.1709
51.1766
51.1829
51.1896
51.1978
51.2065
51.2149
51.2229
51.2301
51.237
51.2438
51.2504
51.2567
51.2629
51.2691
51.2752
51.2813
51.2875
51.2938
51.3002
51.3067
51.3133
51.32
51.3268
51.3337
51.3407
51.3477
51.3548
51.3619
51.3691
51.3762
51.3833
51.3903
51.3973
51.4042
51.4112
51.4181
51.425
51.432
51.439
51.446
51.453
51.4601
51.4672
51.4743
51.4815
51.4887
51.4959
51.5032
51.5105
51.5179
51.5253
51.5327
51.5402
51.5477
51.5552
51.5628
51.5704
51.5781
51.5858
51.5935
51.6013
51.6091
51.617
51.6249
51.6328
51.6408
51.6488
51.6568
51.6649
51.673
51.6811
51.6892
51.6974
51.7057
51.7139
51.7222
51.7305
51.7388
51.7472
51.7556
51.764
51.7725
51.781
51.7895
51.7981
51.8067
51.8153
51.8239
51.8326
51.8413
51.8501
51.8589
51.8677
51.8765
51.8854
51.8942
51.9032
51.9121
51.9211
51.9301
51.9391
51.9482
51.9572
51.9663
51.9755
51.9846
51.9938
52.003
52.0122
52.0214
52.0307
52.04
52.0494
52.0586
52.0681
52.0774
52.0868
52.0963
52.1057
52.1152
52.1246
52.134
52.1438
52.153
52.1627
52.1723
52.1817
52.1912
50.9211
50.9228
50.9236
50.9244
50.9261
50.9283
50.9304
50.9329
50.9356
50.9383
50.941
50.9438
50.9467
50.9496
50.9525
50.9555
50.9585
50.9615
50.9646
50.9677
50.9709
50.9741
50.9773
50.9806
50.9839
50.9872
50.9907
50.9941
50.9977
51.0012
51.0049
51.0086
51.0123
51.0162
51.02
51.0239
51.0279
51.0319
51.036
51.04
51.0442
51.0483
51.0525
51.0567
51.061
51.0653
51.0696
51.074
51.0784
51.0828
51.0873
51.0918
51.0963
51.1009
51.1055
51.1102
51.1149
51.1196
51.1244
51.1292
51.134
51.1389
51.1439
51.1489
51.1539
51.1589
51.1641
51.1692
51.1744
51.1796
51.1848
51.1901
51.1953
51.2005
51.2058
51.2113
51.2168
51.2223
51.2279
51.2336
51.2394
51.2451
51.2507
51.2563
51.2623
51.2684
51.2742
51.2797
51.2853
51.2914
51.2977
51.3037
51.3091
51.3138
51.3185
51.3236
51.3297
51.3368
51.3447
51.3532
51.3635
51.3738
51.3827
51.3909
51.3989
51.4063
51.413
51.4196
51.4262
51.4329
51.4397
51.4465
51.4535
51.4604
51.4675
51.4745
51.4816
51.4888
51.496
51.5033
51.5106
51.5179
51.5253
51.5327
51.5402
51.5477
51.5552
51.5628
51.5704
51.5781
51.5858
51.5935
51.6013
51.6091
51.617
51.6249
51.6328
51.6408
51.6488
51.6568
51.6649
51.673
51.6811
51.6892
51.6974
51.7057
51.7139
51.7222
51.7305
51.7388
51.7472
51.7556
51.764
51.7725
51.781
51.7895
51.7981
51.8067
51.8153
51.8239
51.8326
51.8413
51.8501
51.8589
51.8677
51.8765
51.8854
51.8942
51.9032
51.9121
51.9211
51.9301
51.9391
51.9482
51.9572
51.9663
51.9755
51.9846
51.9938
52.003
52.0122
52.0214
52.0307
52.04
52.0494
52.0586
52.0681
52.0773
52.087
52.0961
52.1059
52.115
52.1249
52.1339
52.1439
52.1529
52.163
52.1719
52.1822
52.1913
50.9064
50.9133
50.9148
50.9161
50.9177
50.9198
50.922
50.9246
50.9272
50.9299
50.9326
50.9354
50.9382
50.9411
50.944
50.947
50.95
50.953
50.9561
50.9592
50.9623
50.9655
50.9687
50.972
50.9753
50.9787
50.9821
50.9856
50.9892
50.9928
50.9965
51.0002
51.004
51.0078
51.0117
51.0156
51.0196
51.0236
51.0276
51.0317
51.0358
51.04
51.0442
51.0484
51.0527
51.057
51.0614
51.0658
51.0702
51.0747
51.0792
51.0838
51.0883
51.093
51.0976
51.1023
51.1071
51.1118
51.1167
51.1215
51.1264
51.1313
51.1362
51.1412
51.1462
51.1512
51.1563
51.1614
51.1665
51.1716
51.1768
51.1821
51.1875
51.1928
51.1982
51.2037
51.2093
51.2148
51.2204
51.226
51.2318
51.2377
51.2436
51.2493
51.2549
51.2605
51.2664
51.2729
51.2797
51.2862
51.2907
51.2928
51.2956
51.3003
51.3071
51.3151
51.3247
51.3366
51.3478
51.3576
51.3662
51.3744
51.3823
51.3898
51.397
51.404
51.411
51.418
51.4249
51.4319
51.4389
51.4459
51.4529
51.46
51.4671
51.4742
51.4814
51.4886
51.4958
51.5031
51.5104
51.5178
51.5251
51.5326
51.54
51.5475
51.5551
51.5627
51.5703
51.5779
51.5857
51.5934
51.6012
51.609
51.6169
51.6247
51.6327
51.6406
51.6486
51.6567
51.6647
51.6728
51.681
51.6891
51.6973
51.7055
51.7138
51.7221
51.7304
51.7387
51.7471
51.7555
51.7639
51.7724
51.7809
51.7894
51.798
51.8066
51.8152
51.8238
51.8325
51.8412
51.85
51.8587
51.8675
51.8764
51.8852
51.8941
51.903
51.912
51.921
51.93
51.939
51.948
51.9571
51.9662
51.9753
51.9845
51.9937
52.0028
52.0121
52.0213
52.0306
52.0398
52.0493
52.0585
52.068
52.0772
52.0868
52.096
52.1057
52.1148
52.1247
52.1338
52.1438
52.1528
52.1628
52.1719
52.1818
52.192
52.19
52.1879
52.1882
52.1895
52.1902
52.1903
52.1898
52.1891
52.1883
52.1873
52.1864
52.1854
52.1846
52.1839
52.1827
52.182
52.1812
52.1808
52.1807
52.1816
52.1929
52.1944
52.1966
52.1986
52.1995
52.2002
52.2003
52.2002
52.1998
52.1995
52.1991
52.1986
52.1985
52.1983
52.1973
52.1972
52.1967
52.1963
52.1965
52.1974
52.1974
52.1997
52.2017
52.2032
52.2044
52.2052
52.2057
52.206
52.2061
52.2058
52.2048
52.2033
52.2016
52.1989
52.1959
52.1937
52.1925
52.1918
52.1905
52.1884
52.2006
52.2042
52.2067
52.2087
52.2108
52.2133
52.2155
52.2163
52.2153
52.2151
52.2157
52.2163
52.219
52.2267
52.2357
52.2392
52.234
52.2227
52.2126
52.2077
52.202
52.2066
52.2092
52.211
52.2131
52.2154
52.2176
52.2187
52.218
52.2177
52.2181
52.2184
52.2211
52.2284
52.2375
52.2423
52.2388
52.2296
52.2195
52.2133
52.1948
52.2048
52.2133
52.2215
52.2295
52.2376
52.246
52.2546
52.2633
52.2721
52.2808
52.2896
52.2985
52.3075
52.3165
52.3255
52.3345
52.3437
52.353
52.3622
52.3715
52.3808
52.3901
52.3995
52.4089
52.4183
52.4278
52.4372
52.4467
52.4562
52.4656
52.4751
52.4846
52.4941
52.5036
52.5132
52.5227
52.5322
52.5417
52.5511
52.5606
52.5701
52.5796
52.589
52.5984
52.6078
52.6172
52.6266
52.636
52.6453
52.6547
52.664
52.6734
52.6827
52.692
52.7013
52.7105
52.7198
52.729
52.7382
52.7473
52.7564
52.7655
52.7745
52.7836
52.7925
52.8015
52.8105
52.8195
52.8284
52.8373
52.8461
52.855
52.8639
52.8727
52.8816
52.8903
52.899
52.9079
52.9169
52.9257
52.9337
52.9415
52.9501
52.9599
52.9698
52.9786
52.9834
52.9855
52.9905
52.9989
53.0093
53.0214
53.036
53.0492
53.0609
53.0716
53.0818
53.0911
53.1003
52.199
52.2077
52.2164
52.2249
52.2332
52.2415
52.2502
52.2591
52.2682
52.2773
52.2863
52.2954
52.3046
52.3138
52.3231
52.3323
52.3416
52.351
52.3604
52.3698
52.3792
52.3886
52.3981
52.4075
52.417
52.4265
52.436
52.4455
52.455
52.4645
52.474
52.4835
52.4929
52.5025
52.5119
52.5215
52.5309
52.5404
52.5498
52.5593
52.5687
52.5782
52.5876
52.5971
52.6065
52.6159
52.6253
52.6347
52.6441
52.6534
52.6628
52.6721
52.6814
52.6906
52.6999
52.7091
52.7183
52.7275
52.7367
52.7459
52.7551
52.7642
52.7732
52.7823
52.7914
52.8004
52.8093
52.8183
52.8272
52.8361
52.8451
52.8539
52.8627
52.8716
52.8805
52.8891
52.8978
52.9067
52.9156
52.9241
52.9325
52.9412
52.9501
52.9586
52.9666
52.9747
52.9832
52.9918
53
53.0075
53.014
53.0201
53.0271
53.0357
53.0458
53.0564
53.068
53.0801
53.0912
53.101
52.1785
52.1919
52.2016
52.2097
52.2173
52.2253
52.2335
52.242
52.251
52.26
52.2688
52.2779
52.2873
52.2966
52.3058
52.3151
52.3246
52.3342
52.3437
52.3532
52.3627
52.3722
52.3817
52.3913
52.4008
52.4103
52.4198
52.4292
52.4386
52.4481
52.4575
52.4669
52.4763
52.4858
52.4953
52.5048
52.5143
52.5238
52.5334
52.5429
52.5524
52.5618
52.5713
52.5807
52.5901
52.5995
52.6089
52.6182
52.6276
52.6369
52.6463
52.6556
52.6649
52.6741
52.6833
52.6924
52.7015
52.7106
52.7197
52.7287
52.7377
52.7466
52.7555
52.7644
52.7732
52.7818
52.7904
52.7991
52.8081
52.8177
52.828
52.8387
52.85
52.8619
52.8731
52.8839
52.8945
52.9048
52.9144
52.9236
52.9326
52.9415
52.9503
52.959
52.9678
52.9764
52.9853
52.9942
53.0031
53.0119
53.021
53.0297
53.039
53.0477
53.0567
53.0658
53.0746
53.0835
53.0922
53.1009
52.1982
52.2165
52.2249
52.2263
52.2337
52.244
52.2532
52.2609
52.2691
52.2786
52.2883
52.2975
52.3058
52.3145
52.3244
52.3344
52.3432
52.3519
52.3611
52.3707
52.3804
52.3898
52.3988
52.408
52.4174
52.4269
52.4363
52.4457
52.4551
52.4646
52.474
52.4834
52.4929
52.5023
52.5117
52.5211
52.5306
52.54
52.5495
52.5589
52.5683
52.5778
52.5872
52.5966
52.606
52.6153
52.6247
52.6341
52.6434
52.6528
52.6622
52.6715
52.6809
52.6902
52.6995
52.7087
52.718
52.7272
52.7364
52.7455
52.7546
52.7637
52.7727
52.7817
52.7907
52.7997
52.8087
52.8175
52.8264
52.8352
52.8441
52.8529
52.8617
52.8706
52.8794
52.8881
52.8968
52.9054
52.9141
52.9228
52.9316
52.9403
52.949
52.9577
52.9666
52.9754
52.9839
52.9919
53.0002
53.0093
53.0192
53.0287
53.0367
53.0411
53.0445
53.0497
53.0576
53.0676
53.0789
53.0923
52.2
52.2174
52.226
52.2274
52.235
52.2466
52.2567
52.2633
52.271
52.2808
52.2913
52.3
52.3077
52.3166
52.3269
52.3369
52.3453
52.3536
52.3628
52.3725
52.3823
52.3914
52.4002
52.4093
52.4187
52.428
52.4374
52.4468
52.4562
52.4656
52.475
52.4844
52.4939
52.5033
52.5127
52.5222
52.5316
52.541
52.5505
52.5599
52.5694
52.5788
52.5882
52.5976
52.607
52.6164
52.6258
52.6352
52.6445
52.6539
52.6632
52.6725
52.6818
52.6911
52.7004
52.7097
52.719
52.7282
52.7374
52.7465
52.7557
52.7648
52.7738
52.7828
52.7918
52.8008
52.8098
52.8187
52.8275
52.8364
52.8452
52.854
52.8628
52.8716
52.8804
52.8892
52.898
52.9068
52.9156
52.9243
52.933
52.9417
52.9506
52.9594
52.9681
52.977
52.986
52.9951
53.0035
53.0114
53.0195
53.0286
53.0384
53.0478
53.0554
53.058
53.0605
53.0668
53.0761
53.087
53.1026
53.1027
53.1042
53.1061
53.1078
53.1093
53.1107
53.112
53.1132
53.1143
53.1154
53.1164
53.1174
53.1184
53.1195
53.1205
53.1216
53.1228
53.124
53.1254
53.1052
53.1068
53.1087
53.1108
53.1126
53.1141
53.1154
53.1166
53.1178
53.1188
53.1198
53.1208
53.1218
53.1228
53.1238
53.1248
53.126
53.1272
53.1283
53.1296
53.1064
53.1085
53.1104
53.1122
53.1139
53.1154
53.1168
53.1181
53.1192
53.1201
53.1209
53.1214
53.122
53.123
53.1238
53.1241
53.1244
53.125
53.1249
53.1249
53.1004
53.1039
53.1069
53.1097
53.1125
53.1152
53.1178
53.1203
53.1228
53.1255
53.1286
53.1323
53.133
53.1313
53.1307
53.1321
53.1332
53.1333
53.1337
53.1357
53.0967
53.1017
53.1056
53.1089
53.112
53.115
53.1181
53.1211
53.1238
53.1266
53.1302
53.134
53.1356
53.1345
53.1336
53.1342
53.134
53.1334
53.1335
53.1362
53.1318
53.1404
53.1479
53.1548
53.1618
53.1688
53.176
53.1832
53.1902
53.1971
53.2042
53.2114
53.2184
53.2252
53.232
53.2391
53.2463
53.2535
53.2606
53.2675
53.2744
53.2815
53.2888
53.2961
53.3034
53.3106
53.3178
53.3249
53.332
53.339
53.346
53.3529
53.3598
53.3666
53.3734
53.3802
53.3869
53.3935
53.4001
53.4067
53.4133
53.4198
53.4263
53.4327
53.439
53.4453
53.4516
53.4578
53.4639
53.4701
53.4761
53.4822
53.4881
53.4939
53.4996
53.5053
53.5112
53.517
53.5226
53.5281
53.5337
53.5393
53.5448
53.5502
53.5555
53.5609
53.5662
53.5715
53.5767
53.5817
53.5868
53.5922
53.5977
53.6023
53.6061
53.6103
53.6159
53.6219
53.6273
53.6286
53.6243
53.6247
53.6296
53.6365
53.6474
53.6584
53.6669
53.6741
53.6806
53.6864
53.6916
53.696
53.7001
53.7041
53.708
53.7118
53.7156
53.7193
53.7229
53.7265
53.73
53.7335
53.7369
53.7403
53.7437
53.747
53.7503
53.7535
53.7567
53.7599
53.763
53.7661
53.7691
53.7721
53.7751
53.778
53.7809
53.7837
53.7865
53.7893
53.792
53.7947
53.7973
53.7999
53.8025
53.805
53.8075
53.8099
53.8123
53.8146
53.8169
53.8192
53.8214
53.8236
53.8258
53.8279
53.8299
53.8319
53.8339
53.8358
53.8377
53.8395
53.8413
53.8431
53.8448
53.8465
53.8482
53.8498
53.8513
53.8529
53.8544
53.8558
53.8572
53.8586
53.86
53.8613
53.8626
53.8638
53.8651
53.8663
53.8674
53.8686
53.8697
53.8707
53.8718
53.8728
53.8738
53.8747
53.8757
53.8766
53.8775
53.8783
53.8791
53.8799
53.8807
53.8815
53.8822
53.8829
53.8836
53.8842
53.885
53.8855
53.8862
53.8866
53.8874
53.8877
53.8885
53.8887
53.8895
53.8897
53.8905
53.8907
53.8914
53.8916
53.8921
53.8927
53.8927
53.8935
53.8938
53.894
53.1327
53.1407
53.1478
53.1545
53.1617
53.1693
53.1769
53.1842
53.1914
53.1988
53.2065
53.2141
53.2214
53.2286
53.236
53.2436
53.2512
53.2587
53.2661
53.2734
53.2806
53.288
53.2955
53.3029
53.3103
53.3176
53.3249
53.3321
53.3393
53.3464
53.3535
53.3606
53.3676
53.3745
53.3814
53.3882
53.3949
53.4016
53.4082
53.4148
53.4213
53.4278
53.4342
53.4406
53.447
53.4532
53.4595
53.4657
53.4718
53.478
53.4841
53.4901
53.4961
53.5018
53.5075
53.5132
53.5191
53.5249
53.5306
53.5361
53.5416
53.5471
53.5527
53.5581
53.5634
53.5686
53.5741
53.5795
53.5844
53.5893
53.5947
53.5999
53.6046
53.6091
53.6142
53.6194
53.6238
53.6277
53.632
53.6365
53.6407
53.6442
53.6464
53.6478
53.6507
53.656
53.6618
53.6689
53.6777
53.6855
53.6923
53.6979
53.7024
53.7059
53.7093
53.7127
53.7163
53.7198
53.7233
53.7268
53.7303
53.7337
53.7371
53.7405
53.7438
53.7471
53.7504
53.7536
53.7568
53.76
53.7631
53.7662
53.7692
53.7722
53.7752
53.7781
53.781
53.7838
53.7866
53.7894
53.7921
53.7948
53.7974
53.8
53.8026
53.8051
53.8076
53.81
53.8124
53.8147
53.8171
53.8193
53.8215
53.8237
53.8259
53.828
53.83
53.832
53.834
53.8359
53.8378
53.8396
53.8414
53.8432
53.8449
53.8466
53.8483
53.8499
53.8514
53.853
53.8545
53.8559
53.8573
53.8587
53.8601
53.8614
53.8627
53.8639
53.8652
53.8664
53.8675
53.8687
53.8698
53.8708
53.8719
53.8729
53.8739
53.8748
53.8758
53.8767
53.8776
53.8784
53.8792
53.88
53.8808
53.8816
53.8823
53.883
53.8837
53.8843
53.8851
53.8856
53.8863
53.8867
53.8875
53.8878
53.8886
53.8888
53.8896
53.8898
53.8906
53.8908
53.8915
53.8916
53.8924
53.8925
53.8932
53.8933
53.8939
53.8942
53.1208
53.13
53.137
53.143
53.1485
53.1545
53.1612
53.1679
53.1745
53.1816
53.1893
53.1969
53.2043
53.2115
53.2191
53.2273
53.2352
53.243
53.2505
53.2575
53.2647
53.2725
53.2802
53.2877
53.2951
53.3025
53.3097
53.3169
53.324
53.3311
53.338
53.3449
53.3518
53.3586
53.3653
53.372
53.3786
53.3852
53.3917
53.3983
53.4048
53.4112
53.4175
53.4239
53.4302
53.4365
53.4427
53.4488
53.4549
53.4609
53.4669
53.4728
53.4785
53.4839
53.4895
53.4953
53.5009
53.5063
53.5115
53.5167
53.5221
53.528
53.5347
53.5418
53.5494
53.5579
53.5659
53.5734
53.5806
53.5874
53.5936
53.5991
53.6043
53.6094
53.6143
53.6192
53.624
53.629
53.6339
53.6388
53.6438
53.6487
53.6536
53.6585
53.6634
53.6682
53.6731
53.6779
53.6827
53.6873
53.6918
53.6961
53.7003
53.7043
53.7081
53.7119
53.7157
53.7193
53.723
53.7266
53.7301
53.7336
53.737
53.7404
53.7438
53.7471
53.7504
53.7536
53.7568
53.76
53.7631
53.7662
53.7692
53.7722
53.7752
53.7781
53.781
53.7838
53.7866
53.7894
53.7921
53.7948
53.7974
53.8
53.8026
53.8051
53.8076
53.81
53.8124
53.8147
53.8171
53.8193
53.8215
53.8237
53.8259
53.828
53.83
53.832
53.834
53.8359
53.8378
53.8396
53.8414
53.8432
53.8449
53.8466
53.8483
53.8499
53.8514
53.853
53.8545
53.8559
53.8573
53.8587
53.8601
53.8614
53.8627
53.8639
53.8652
53.8664
53.8675
53.8687
53.8698
53.8708
53.8719
53.8729
53.8739
53.8748
53.8758
53.8767
53.8776
53.8784
53.8792
53.88
53.8808
53.8816
53.8823
53.883
53.8837
53.8844
53.885
53.8856
53.8863
53.8868
53.8874
53.888
53.8885
53.889
53.8895
53.8899
53.8906
53.8908
53.8914
53.8918
53.8922
53.8926
53.8931
53.8934
53.8938
53.8941
53.1441
53.1456
53.1482
53.1558
53.1644
53.1717
53.1771
53.1852
53.1941
53.2016
53.2071
53.2149
53.2229
53.2336
53.2408
53.2457
53.2527
53.2604
53.2677
53.2783
53.2865
53.2915
53.2975
53.3047
53.3121
53.3193
53.3265
53.3335
53.3406
53.3475
53.3544
53.3612
53.368
53.3748
53.3815
53.3882
53.3948
53.4015
53.408
53.4146
53.4211
53.4276
53.434
53.4403
53.4466
53.4529
53.4591
53.4652
53.4713
53.4773
53.4834
53.4897
53.4958
53.5031
53.5084
53.5128
53.5183
53.5242
53.5301
53.5359
53.541
53.5463
53.5518
53.5572
53.5625
53.5678
53.5731
53.5783
53.5834
53.5884
53.5933
53.5983
53.6033
53.6084
53.6134
53.6183
53.6234
53.6285
53.633
53.6369
53.6409
53.6459
53.6516
53.657
53.6613
53.6612
53.6592
53.6604
53.6649
53.671
53.6806
53.691
53.6992
53.7054
53.7102
53.7137
53.7168
53.7201
53.7235
53.7269
53.7303
53.7338
53.7372
53.7405
53.7439
53.7472
53.7504
53.7537
53.7568
53.76
53.7631
53.7662
53.7692
53.7722
53.7752
53.7781
53.781
53.7838
53.7866
53.7894
53.7921
53.7948
53.7974
53.8
53.8026
53.8051
53.8076
53.81
53.8124
53.8147
53.8171
53.8193
53.8215
53.8237
53.8259
53.828
53.83
53.832
53.834
53.8359
53.8378
53.8396
53.8414
53.8432
53.8449
53.8466
53.8483
53.8499
53.8514
53.853
53.8545
53.8559
53.8573
53.8587
53.8601
53.8614
53.8627
53.8639
53.8652
53.8664
53.8675
53.8687
53.8698
53.8708
53.8719
53.8729
53.8739
53.8748
53.8758
53.8767
53.8776
53.8784
53.8792
53.88
53.8808
53.8816
53.8823
53.8831
53.8837
53.8844
53.8849
53.8857
53.8861
53.8869
53.8873
53.8881
53.8883
53.8891
53.8893
53.8901
53.8903
53.8911
53.8912
53.8919
53.8921
53.8928
53.893
53.8934
53.8941
53.8939
53.1457
53.1474
53.1492
53.1577
53.1691
53.175
53.1792
53.1876
53.1994
53.2066
53.2105
53.2174
53.227
53.2393
53.2455
53.2489
53.255
53.2628
53.2711
53.2829
53.2907
53.2944
53.2993
53.3062
53.3134
53.3205
53.3276
53.3346
53.3416
53.3486
53.3555
53.3623
53.3691
53.3759
53.3826
53.3892
53.3959
53.4025
53.409
53.4156
53.4221
53.4285
53.4349
53.4413
53.4476
53.4539
53.4601
53.4663
53.4724
53.4784
53.4845
53.4906
53.497
53.5055
53.5105
53.5143
53.5196
53.5255
53.5317
53.5375
53.5423
53.5475
53.5529
53.5583
53.5636
53.5689
53.5741
53.5793
53.5844
53.5896
53.5947
53.5997
53.6046
53.6096
53.6147
53.6197
53.6246
53.6296
53.6349
53.6402
53.6448
53.6484
53.6522
53.6572
53.6627
53.668
53.6715
53.6688
53.6663
53.6693
53.675
53.6847
53.696
53.7042
53.7101
53.7145