/*--------------------------------*- C++ -*----------------------------------*\
| =========                 |                                                 |
| \\      /  F ield         | OpenFOAM: The Open Source CFD Toolbox           |
|  \\    /   O peration     | Version:  3.0.x                                 |
|   \\  /    A nd           | Web:      www.OpenFOAM.org                      |
|    \\/     M anipulation  |                                                 |
\*---------------------------------------------------------------------------*/
FoamFile
{
    version     2.0;
    format      ascii;
    class       volScalarField;
    location    "0.43";
    object      T;
}
// * * * * * * * * * * * * * * * * * * * * * * * * * * * * * * * * * * * * * //

dimensions      [0 0 0 1 0 0 0];

internalField   nonuniform List<scalar> 
6900
(
774.478
774.478
774.478
774.478
774.477
774.477
774.477
774.477
774.477
774.477
774.477
774.476
774.476
774.476
774.476
774.476
774.475
774.475
774.475
774.475
774.475
774.475
774.475
774.475
774.475
774.475
774.475
774.475
774.475
774.474
774.472
774.469
774.467
774.464
774.463
774.462
774.461
774.461
774.461
774.46
774.459
774.457
774.455
774.452
774.448
774.445
774.441
774.437
774.433
774.43
774.428
774.427
774.426
774.425
774.424
774.422
774.42
774.417
774.415
774.412
774.41
774.408
774.406
774.405
774.405
774.404
774.404
774.404
774.404
774.404
774.404
774.405
774.405
774.405
774.405
774.405
774.406
774.406
774.406
774.406
774.406
774.406
774.405
774.405
774.405
774.405
774.404
774.404
774.404
774.404
774.403
774.403
774.403
774.403
774.403
774.403
774.403
774.403
774.403
774.403
774.404
774.404
774.404
774.405
774.405
774.406
774.407
774.407
774.408
774.408
774.409
774.41
774.41
774.41
774.411
774.411
774.411
774.411
774.412
774.412
774.412
774.412
774.412
774.412
774.412
774.412
774.412
774.413
774.413
774.413
774.414
774.414
774.415
774.416
774.417
774.418
774.42
774.421
774.423
774.424
774.426
774.428
774.43
774.432
774.434
774.436
774.438
774.44
774.442
774.445
774.447
774.449
774.451
774.453
774.455
774.457
774.459
774.461
774.463
774.465
774.468
774.47
774.473
774.475
774.478
774.481
774.484
774.488
774.492
774.496
774.5
774.505
774.509
774.514
774.52
774.525
774.531
774.537
774.543
774.549
774.556
774.562
774.568
774.575
774.581
774.587
774.594
774.6
774.607
774.613
774.62
774.626
774.633
774.64
774.646
774.655
774.66
774.672
774.676
774.753
774.475
774.475
774.475
774.475
774.474
774.474
774.474
774.474
774.474
774.474
774.474
774.474
774.473
774.473
774.473
774.473
774.473
774.472
774.472
774.472
774.472
774.472
774.472
774.472
774.472
774.472
774.472
774.472
774.472
774.471
774.469
774.467
774.464
774.462
774.46
774.459
774.459
774.459
774.458
774.457
774.456
774.454
774.452
774.449
774.446
774.442
774.438
774.435
774.431
774.428
774.426
774.425
774.424
774.423
774.422
774.42
774.418
774.415
774.413
774.41
774.408
774.406
774.404
774.403
774.402
774.402
774.402
774.402
774.402
774.402
774.402
774.403
774.403
774.403
774.403
774.403
774.404
774.404
774.404
774.404
774.404
774.404
774.403
774.403
774.403
774.403
774.402
774.402
774.402
774.402
774.401
774.401
774.401
774.401
774.401
774.401
774.401
774.401
774.401
774.401
774.402
774.402
774.402
774.403
774.403
774.404
774.405
774.405
774.406
774.406
774.407
774.408
774.408
774.408
774.409
774.409
774.409
774.409
774.41
774.41
774.41
774.41
774.41
774.41
774.41
774.41
774.41
774.41
774.411
774.411
774.412
774.412
774.413
774.414
774.415
774.416
774.418
774.419
774.421
774.422
774.424
774.426
774.428
774.43
774.432
774.434
774.436
774.438
774.44
774.443
774.445
774.447
774.449
774.451
774.453
774.455
774.457
774.459
774.461
774.463
774.466
774.468
774.471
774.473
774.476
774.479
774.482
774.486
774.49
774.494
774.498
774.503
774.507
774.512
774.518
774.523
774.529
774.535
774.541
774.547
774.554
774.56
774.566
774.573
774.579
774.585
774.592
774.598
774.605
774.611
774.618
774.624
774.631
774.638
774.644
774.653
774.658
774.67
774.674
774.746
774.475
774.475
774.475
774.475
774.475
774.474
774.474
774.474
774.474
774.474
774.474
774.474
774.473
774.473
774.473
774.473
774.473
774.473
774.472
774.472
774.472
774.472
774.472
774.472
774.472
774.472
774.472
774.472
774.472
774.472
774.469
774.467
774.464
774.462
774.46
774.459
774.459
774.459
774.458
774.458
774.456
774.454
774.452
774.449
774.446
774.442
774.438
774.435
774.431
774.428
774.426
774.425
774.424
774.423
774.422
774.42
774.418
774.415
774.413
774.41
774.408
774.406
774.404
774.403
774.402
774.402
774.402
774.402
774.402
774.402
774.402
774.403
774.403
774.403
774.403
774.403
774.404
774.404
774.404
774.404
774.404
774.404
774.403
774.403
774.403
774.403
774.402
774.402
774.402
774.402
774.401
774.401
774.401
774.401
774.401
774.401
774.401
774.401
774.401
774.401
774.402
774.402
774.402
774.403
774.403
774.404
774.405
774.405
774.406
774.406
774.407
774.408
774.408
774.408
774.409
774.409
774.409
774.409
774.41
774.41
774.41
774.41
774.41
774.41
774.41
774.41
774.41
774.41
774.411
774.411
774.412
774.412
774.413
774.414
774.415
774.416
774.418
774.419
774.421
774.422
774.424
774.426
774.428
774.43
774.432
774.434
774.436
774.438
774.44
774.443
774.445
774.447
774.449
774.451
774.453
774.455
774.457
774.459
774.461
774.463
774.466
774.468
774.471
774.473
774.476
774.479
774.482
774.486
774.49
774.494
774.498
774.503
774.507
774.512
774.518
774.523
774.529
774.535
774.541
774.547
774.554
774.56
774.566
774.573
774.579
774.585
774.592
774.598
774.605
774.611
774.618
774.624
774.631
774.638
774.645
774.653
774.659
774.668
774.674
774.684
774.475
774.475
774.475
774.475
774.474
774.474
774.474
774.474
774.474
774.474
774.474
774.474
774.473
774.473
774.473
774.473
774.473
774.472
774.472
774.472
774.472
774.472
774.472
774.472
774.472
774.472
774.472
774.472
774.472
774.471
774.469
774.467
774.464
774.462
774.46
774.459
774.459
774.459
774.458
774.457
774.456
774.454
774.452
774.449
774.446
774.442
774.438
774.435
774.431
774.428
774.426
774.425
774.424
774.423
774.422
774.42
774.418
774.415
774.413
774.41
774.408
774.406
774.404
774.403
774.402
774.402
774.402
774.402
774.402
774.402
774.402
774.403
774.403
774.403
774.403
774.403
774.404
774.404
774.404
774.404
774.404
774.404
774.403
774.403
774.403
774.403
774.402
774.402
774.402
774.402
774.401
774.401
774.401
774.401
774.401
774.401
774.401
774.401
774.401
774.401
774.402
774.402
774.402
774.403
774.403
774.404
774.405
774.405
774.406
774.406
774.407
774.408
774.408
774.408
774.409
774.409
774.409
774.409
774.41
774.41
774.41
774.41
774.41
774.41
774.41
774.41
774.41
774.41
774.411
774.411
774.412
774.412
774.413
774.414
774.415
774.416
774.418
774.419
774.421
774.422
774.424
774.426
774.428
774.43
774.432
774.434
774.436
774.438
774.44
774.443
774.445
774.447
774.449
774.451
774.453
774.455
774.457
774.459
774.461
774.463
774.466
774.468
774.471
774.473
774.476
774.479
774.482
774.486
774.49
774.494
774.498
774.503
774.507
774.512
774.518
774.523
774.529
774.535
774.541
774.547
774.554
774.56
774.566
774.573
774.579
774.585
774.592
774.598
774.605
774.611
774.618
774.624
774.631
774.637
774.646
774.651
774.661
774.665
774.681
774.563
774.478
774.478
774.478
774.478
774.477
774.477
774.477
774.477
774.477
774.477
774.477
774.476
774.476
774.476
774.476
774.476
774.475
774.475
774.475
774.475
774.475
774.475
774.475
774.475
774.475
774.475
774.475
774.475
774.475
774.474
774.472
774.469
774.467
774.464
774.463
774.462
774.461
774.461
774.461
774.46
774.459
774.457
774.455
774.452
774.448
774.445
774.441
774.437
774.433
774.43
774.428
774.427
774.426
774.425
774.424
774.422
774.42
774.417
774.415
774.412
774.41
774.408
774.406
774.405
774.405
774.404
774.404
774.404
774.404
774.404
774.404
774.405
774.405
774.405
774.405
774.405
774.406
774.406
774.406
774.406
774.406
774.406
774.405
774.405
774.405
774.405
774.404
774.404
774.404
774.404
774.403
774.403
774.403
774.403
774.403
774.403
774.403
774.403
774.403
774.403
774.404
774.404
774.404
774.405
774.405
774.406
774.407
774.407
774.408
774.408
774.409
774.41
774.41
774.41
774.411
774.411
774.411
774.411
774.412
774.412
774.412
774.412
774.412
774.412
774.412
774.412
774.412
774.413
774.413
774.413
774.414
774.414
774.415
774.416
774.417
774.418
774.42
774.421
774.423
774.424
774.426
774.428
774.43
774.432
774.434
774.436
774.438
774.44
774.442
774.445
774.447
774.449
774.451
774.453
774.455
774.457
774.459
774.461
774.463
774.465
774.468
774.47
774.473
774.475
774.478
774.481
774.484
774.488
774.492
774.496
774.5
774.505
774.509
774.514
774.52
774.525
774.531
774.537
774.543
774.549
774.556
774.562
774.568
774.575
774.581
774.587
774.594
774.6
774.607
774.613
774.62
774.626
774.633
774.639
774.648
774.653
774.663
774.666
774.69
774.479
774.745
774.76
774.76
774.761
774.762
774.763
774.762
774.757
774.75
774.738
774.726
774.726
774.734
774.749
774.738
774.699
774.666
774.647
774.618
774.573
774.731
774.737
774.736
774.735
774.733
774.732
774.729
774.72
774.712
774.699
774.68
774.674
774.684
774.702
774.696
774.642
774.601
774.593
774.582
774.553
774.692
774.691
774.691
774.688
774.684
774.679
774.674
774.67
774.664
774.658
774.651
774.644
774.638
774.635
774.633
774.638
774.645
774.647
774.632
774.616
774.615
774.62
774.627
774.626
774.622
774.609
774.597
774.575
774.562
774.542
774.525
774.51
774.501
774.483
774.469
774.46
774.449
774.441
774.434
774.432
774.565
774.545
774.544
774.547
774.548
774.544
774.535
774.521
774.509
774.496
774.482
774.47
774.458
774.448
774.438
774.432
774.425
774.427
774.435
774.47
774.407
774.437
774.447
774.471
774.458
774.443
774.446
774.466
774.478
774.481
774.484
774.493
774.505
774.513
774.521
774.531
774.54
774.549
774.558
774.568
774.578
774.588
774.597
774.607
774.617
774.628
774.638
774.648
774.659
774.669
774.68
774.691
774.702
774.714
774.725
774.737
774.75
774.762
774.775
774.787
774.8
774.813
774.826
774.839
774.852
774.865
774.878
774.891
774.904
774.917
774.93
774.943
774.957
774.97
774.984
774.998
775.012
775.026
775.04
775.055
775.069
775.085
775.1
775.115
775.131
775.147
775.163
775.178
775.193
775.208
775.223
775.241
775.259
775.277
775.295
775.312
775.329
775.343
775.359
775.375
775.392
775.41
775.428
775.447
775.467
775.488
775.509
775.529
775.549
775.567
775.588
775.612
775.639
775.668
775.689
775.704
775.72
775.753
775.832
775.923
775.988
776.018
776.022
776.004
775.945
775.9
775.885
775.884
775.889
775.909
775.939
775.966
775.993
776.017
776.042
776.065
776.088
776.111
776.134
776.156
776.179
776.201
776.224
776.246
776.269
776.292
776.314
776.337
776.36
776.383
776.407
776.43
776.454
776.477
776.501
776.525
776.549
776.573
776.597
776.621
776.645
776.67
776.694
776.719
776.744
776.768
776.793
776.818
776.843
776.868
776.893
776.919
776.944
776.97
776.995
777.021
777.047
777.072
777.098
777.124
777.151
777.177
777.203
777.229
777.256
777.282
777.309
777.336
777.363
777.389
777.416
777.443
777.471
777.498
777.525
777.552
777.58
777.607
777.635
777.662
777.69
777.717
777.746
777.772
777.802
777.828
777.859
777.883
777.916
777.939
777.973
777.995
778.03
778.051
778.088
778.107
778.145
778.163
778.211
778.199
774.405
774.427
774.461
774.481
774.471
774.458
774.463
774.486
774.495
774.498
774.502
774.512
774.523
774.531
774.539
774.548
774.558
774.567
774.576
774.586
774.596
774.605
774.615
774.624
774.634
774.644
774.654
774.664
774.675
774.685
774.696
774.707
774.718
774.729
774.741
774.753
774.766
774.778
774.791
774.804
774.817
774.829
774.842
774.855
774.867
774.88
774.892
774.905
774.918
774.931
774.944
774.957
774.971
774.984
774.998
775.012
775.026
775.04
775.055
775.07
775.085
775.101
775.116
775.132
775.148
775.164
775.18
775.195
775.212
775.228
775.247
775.267
775.289
775.309
775.324
775.337
775.349
775.364
775.378
775.394
775.411
775.43
775.451
775.472
775.492
775.512
775.531
775.551
775.573
775.597
775.624
775.652
775.675
775.691
775.705
775.731
775.789
775.867
775.938
775.986
776.006
776.007
775.988
775.93
775.891
775.876
775.875
775.879
775.894
775.92
775.946
775.971
775.995
776.019
776.042
776.065
776.087
776.11
776.132
776.155
776.177
776.199
776.222
776.244
776.267
776.29
776.312
776.335
776.358
776.382
776.405
776.428
776.452
776.475
776.499
776.523
776.547
776.571
776.595
776.619
776.643
776.668
776.692
776.717
776.742
776.766
776.791
776.816
776.841
776.866
776.892
776.917
776.942
776.968
776.993
777.019
777.045
777.071
777.097
777.123
777.149
777.175
777.201
777.227
777.254
777.28
777.307
777.334
777.361
777.388
777.415
777.442
777.469
777.496
777.523
777.55
777.578
777.605
777.633
777.66
777.688
777.715
777.744
777.77
777.8
777.826
777.857
777.882
777.914
777.938
777.971
777.994
778.028
778.05
778.086
778.106
778.143
778.162
778.204
778.216
774.622
774.678
774.701
774.708
774.715
774.726
774.735
774.744
774.752
774.76
774.768
774.777
774.786
774.794
774.803
774.812
774.82
774.829
774.837
774.845
774.853
774.861
774.87
774.879
774.889
774.899
774.909
774.92
774.931
774.941
774.952
774.962
774.971
774.981
774.991
775.001
775.011
775.021
775.032
775.043
775.055
775.067
775.079
775.092
775.105
775.119
775.133
775.147
775.161
775.175
775.189
775.202
775.216
775.23
775.243
775.257
775.272
775.288
775.303
775.319
775.335
775.351
775.369
775.387
775.406
775.425
775.445
775.464
775.482
775.501
775.52
775.535
775.545
775.548
775.542
775.517
775.486
775.46
775.442
775.436
775.436
775.439
775.447
775.46
775.476
775.495
775.515
775.536
775.557
775.579
775.6
775.621
775.64
775.659
775.676
775.693
775.71
775.726
775.742
775.757
775.773
775.789
775.806
775.823
775.842
775.862
775.882
775.902
775.922
775.943
775.964
775.984
776.005
776.026
776.048
776.069
776.09
776.112
776.134
776.156
776.178
776.2
776.222
776.245
776.267
776.29
776.313
776.335
776.358
776.382
776.405
776.428
776.452
776.475
776.499
776.523
776.547
776.571
776.595
776.619
776.643
776.668
776.692
776.717
776.742
776.766
776.791
776.816
776.841
776.866
776.892
776.917
776.942
776.968
776.993
777.019
777.045
777.071
777.097
777.123
777.149
777.175
777.201
777.227
777.254
777.28
777.307
777.334
777.361
777.388
777.414
777.442
777.469
777.496
777.523
777.55
777.578
777.605
777.633
777.66
777.688
777.716
777.743
777.772
777.799
777.828
777.855
777.884
777.911
777.94
777.969
777.996
778.025
778.055
778.079
778.112
778.138
778.166
778.196
778.226
774.422
774.423
774.435
774.441
774.443
774.449
774.462
774.471
774.477
774.485
774.494
774.503
774.511
774.519
774.528
774.537
774.546
774.556
774.565
774.575
774.584
774.594
774.604
774.614
774.625
774.635
774.646
774.657
774.667
774.678
774.689
774.7
774.712
774.723
774.734
774.746
774.758
774.77
774.782
774.794
774.807
774.82
774.833
774.846
774.859
774.873
774.886
774.9
774.913
774.927
774.94
774.954
774.967
774.981
774.995
775.009
775.023
775.037
775.051
775.065
775.08
775.094
775.108
775.123
775.138
775.153
775.167
775.182
775.198
775.214
775.231
775.248
775.266
775.284
775.301
775.316
775.333
775.351
775.37
775.388
775.406
775.425
775.448
775.472
775.492
775.511
775.535
775.566
775.596
775.62
775.642
775.669
775.708
775.755
775.805
775.848
775.878
775.893
775.896
775.889
775.857
775.826
775.815
775.815
775.818
775.831
775.855
775.88
775.905
775.929
775.953
775.976
775.999
776.022
776.044
776.066
776.088
776.111
776.133
776.155
776.177
776.199
776.222
776.244
776.267
776.29
776.312
776.335
776.358
776.382
776.405
776.428
776.452
776.475
776.499
776.523
776.547
776.571
776.595
776.619
776.643
776.668
776.692
776.717
776.742
776.766
776.791
776.816
776.841
776.866
776.892
776.917
776.942
776.968
776.993
777.019
777.045
777.071
777.097
777.123
777.149
777.175
777.201
777.227
777.254
777.28
777.307
777.334
777.361
777.388
777.414
777.442
777.469
777.496
777.523
777.55
777.578
777.605
777.633
777.66
777.688
777.716
777.743
777.772
777.798
777.828
777.854
777.885
777.91
777.942
777.966
777.999
778.022
778.057
778.078
778.114
778.135
778.172
778.193
778.236
774.533
774.553
774.562
774.567
774.57
774.578
774.59
774.598
774.605
774.614
774.622
774.631
774.64
774.648
774.657
774.667
774.676
774.685
774.695
774.705
774.715
774.725
774.735
774.745
774.755
774.765
774.776
774.786
774.796
774.807
774.817
774.828
774.838
774.849
774.86
774.872
774.884
774.896
774.908
774.921
774.934
774.947
774.959
774.972
774.985
774.998
775.011
775.023
775.036
775.049
775.062
775.075
775.088
775.101
775.115
775.128
775.141
775.154
775.168
775.182
775.196
775.21
775.224
775.239
775.254
775.27
775.285
775.301
775.318
775.335
775.351
775.368
775.384
775.401
775.417
775.432
775.447
775.465
775.484
775.503
775.52
775.537
775.556
775.578
775.603
775.631
775.654
775.669
775.681
775.7
775.748
775.835
775.912
775.959
775.977
775.976
775.953
775.895
775.849
775.823
775.817
775.817
775.821
775.831
775.847
775.865
775.884
775.904
775.924
775.944
775.965
775.986
776.007
776.028
776.049
776.071
776.092
776.114
776.136
776.158
776.18
776.202
776.224
776.246
776.269
776.292
776.314
776.337
776.36
776.384
776.407
776.43
776.454
776.477
776.501
776.525
776.549
776.573
776.597
776.621
776.645
776.67
776.694
776.719
776.744
776.768
776.793
776.818
776.843
776.868
776.893
776.919
776.944
776.97
776.995
777.021
777.047
777.072
777.098
777.124
777.151
777.177
777.203
777.229
777.256
777.282
777.309
777.336
777.363
777.389
777.416
777.443
777.47
777.498
777.525
777.552
777.579
777.607
777.634
777.662
777.69
777.718
777.745
777.774
777.8
777.83
777.856
777.887
777.912
777.944
777.968
778.001
778.024
778.059
778.08
778.116
778.137
778.172
778.199
778.227
778.202
778.199
778.202
778.204
778.206
778.207
778.207
778.207
778.205
778.205
778.203
778.204
778.202
778.203
778.202
778.205
778.208
778.211
778.219
778.234
778.23
778.234
778.238
778.238
778.238
778.235
778.232
778.228
778.226
778.222
778.221
778.22
778.215
778.218
778.217
778.22
778.222
778.225
778.228
778.228
778.244
778.25
778.255
778.26
778.264
778.268
778.274
778.278
778.283
778.287
778.294
778.302
778.307
778.319
778.337
778.349
778.351
778.354
778.364
778.375
778.257
778.269
778.277
778.285
778.293
778.3
778.305
778.309
778.315
778.322
778.333
778.355
778.364
778.354
778.33
778.323
778.333
778.332
778.319
778.328
778.261
778.281
778.293
778.303
778.312
778.32
778.325
778.33
778.336
778.344
778.357
778.378
778.384
778.378
778.359
778.349
778.354
778.346
778.34
778.352
778.266
778.315
778.351
778.383
778.422
778.464
778.501
778.536
778.572
778.609
778.645
778.679
778.711
778.744
778.778
778.81
778.841
778.871
778.901
778.931
778.96
778.989
779.018
779.046
779.074
779.102
779.13
779.158
779.185
779.213
779.24
779.268
779.295
779.323
779.35
779.378
779.405
779.432
779.459
779.487
779.514
779.542
779.569
779.597
779.625
779.653
779.681
779.709
779.736
779.764
779.792
779.819
779.846
779.873
779.9
779.926
779.953
779.98
780.007
780.033
780.06
780.087
780.113
780.14
780.167
780.194
780.22
780.246
780.272
780.299
780.326
780.352
780.379
780.405
780.431
780.457
780.485
780.513
780.538
780.561
780.589
780.627
780.668
780.698
780.711
780.722
780.748
780.835
780.959
781.041
781.072
781.073
781.049
780.986
780.944
780.925
780.919
780.917
780.927
780.932
778.243
778.276
778.305
778.333
778.368
778.405
778.439
778.469
778.499
778.531
778.563
778.592
778.621
778.65
778.68
778.708
778.735
778.763
778.791
778.819
778.846
778.873
778.9
778.927
778.954
778.981
779.008
779.036
779.063
779.09
779.117
779.144
779.172
779.199
779.227
779.255
779.282
779.31
779.338
779.366
779.394
779.422
779.45
779.477
779.505
779.533
779.56
779.588
779.616
779.644
779.672
779.7
779.728
779.755
779.783
779.811
779.838
779.865
779.892
779.919
779.945
779.972
779.999
780.025
780.051
780.078
780.105
780.131
780.158
780.185
780.211
780.238
780.265
780.29
780.317
780.346
780.375
780.399
780.424
780.455
780.488
780.516
780.541
780.573
780.611
780.649
780.681
780.711
780.746
780.791
780.849
780.914
780.965
780.991
780.995
780.991
780.97
780.943
780.927
780.92
778.452
778.493
778.546
778.592
778.641
778.685
778.722
778.756
778.788
778.82
778.85
778.877
778.903
778.93
778.957
778.982
779.005
779.029
779.054
779.079
779.103
779.128
779.152
779.177
779.203
779.229
779.255
779.282
779.309
779.337
779.365
779.393
779.421
779.448
779.475
779.502
779.529
779.555
779.582
779.609
779.636
779.664
779.692
779.72
779.748
779.776
779.804
779.832
779.86
779.888
779.916
779.944
779.972
779.999
780.029
780.058
780.087
780.115
780.143
780.172
780.201
780.231
780.26
780.289
780.319
780.351
780.384
780.414
780.439
780.455
780.461
780.459
780.449
780.431
780.422
780.418
780.418
780.421
780.436
780.457
780.48
780.506
780.532
780.561
780.589
780.618
780.645
780.671
780.696
780.722
780.744
780.77
780.788
780.813
780.832
780.852
780.873
780.892
780.913
780.935
778.333
778.342
778.398
778.413
778.417
778.45
778.507
778.529
778.537
778.562
778.602
778.623
778.641
778.67
778.703
778.729
778.75
778.773
778.799
778.828
778.857
778.881
778.905
778.93
778.956
778.982
779.009
779.037
779.064
779.092
779.119
779.147
779.175
779.203
779.231
779.259
779.287
779.315
779.343
779.371
779.399
779.427
779.456
779.484
779.513
779.541
779.569
779.597
779.625
779.653
779.68
779.708
779.735
779.762
779.789
779.816
779.843
779.869
779.896
779.923
779.951
779.978
780.006
780.033
780.06
780.087
780.114
780.141
780.168
780.194
780.221
780.247
780.273
780.299
780.325
780.351
780.379
780.407
780.435
780.462
780.488
780.516
780.544
780.573
780.6
780.627
780.66
780.699
780.734
780.756
780.767
780.782
780.818
780.908
781.011
781.087
781.122
781.126
781.109
781.058
778.333
778.331
778.382
778.397
778.398
778.411
778.456
778.495
778.509
778.528
778.557
778.586
778.612
778.639
778.666
778.692
778.719
778.747
778.773
778.801
778.829
778.857
778.884
778.91
778.937
778.965
778.993
779.02
779.048
779.076
779.104
779.132
779.16
779.188
779.216
779.244
779.272
779.3
779.328
779.356
779.384
779.412
779.44
779.468
779.497
779.525
779.553
779.581
779.609
779.637
779.665
779.693
779.72
779.747
779.774
779.801
779.828
779.855
779.882
779.909
779.935
779.962
779.989
780.017
780.044
780.071
780.098
780.124
780.151
780.177
780.204
780.23
780.257
780.283
780.309
780.335
780.361
780.387
780.413
780.441
780.469
780.495
780.521
780.548
780.577
780.604
780.628
780.653
780.685
780.725
780.762
780.783
780.793
780.808
780.85
780.964
781.079
781.137
781.151
781.135
780.932
780.935
780.935
780.937
780.939
780.941
780.943
780.944
780.945
780.947
780.949
780.951
780.954
780.956
780.96
780.963
780.967
780.97
780.974
780.979
780.915
780.915
780.917
780.917
780.919
780.921
780.923
780.927
780.93
780.936
780.94
780.945
780.949
780.954
780.959
780.964
780.969
780.973
780.979
780.984
780.951
780.957
780.962
780.966
780.971
780.977
780.982
780.987
780.995
781.001
781.009
781.018
781.026
781.03
781.038
781.05
781.062
781.069
781.084
781.096
781.029
781.016
781.005
780.996
780.989
780.982
780.979
780.98
780.981
780.984
780.99
780.994
781.005
781.015
781.015
781.016
781.028
781.054
781.079
781.087
781.101
781.08
781.058
781.04
781.027
781.016
781.004
780.996
780.995
780.994
780.992
780.992
780.996
781.005
781.009
781.019
781.047
781.081
781.104
781.094
781
781.033
781.064
781.1
781.136
781.168
781.2
781.235
781.271
781.303
781.334
781.366
781.4
781.433
781.462
781.49
781.519
781.548
781.577
781.604
781.628
781.65
781.671
781.693
781.715
781.736
781.757
781.777
781.797
781.817
781.837
781.857
781.878
781.897
781.917
781.937
781.956
781.976
781.994
782.013
782.031
782.049
782.068
782.086
782.103
782.121
782.139
782.157
782.174
782.192
782.21
782.227
782.245
782.263
782.28
782.296
782.312
782.33
782.347
782.363
782.379
782.395
782.411
782.427
782.444
782.46
782.475
782.489
782.505
782.523
782.54
782.55
782.56
782.58
782.614
782.64
782.647
782.647
782.655
782.721
782.868
782.947
782.957
782.938
782.86
782.779
782.732
782.705
782.688
782.677
782.675
782.682
782.693
782.703
782.713
782.724
782.734
782.745
782.755
782.765
782.775
782.785
782.795
782.805
782.815
782.825
782.834
782.844
782.853
782.862
782.871
782.88
782.889
782.898
782.907
782.915
782.924
782.932
782.94
782.948
782.956
782.964
782.972
782.979
782.987
782.994
783.001
783.008
783.015
783.022
783.029
783.035
783.042
783.048
783.055
783.061
783.067
783.072
783.078
783.084
783.089
783.095
783.1
783.105
783.11
783.115
783.12
783.125
783.129
783.134
783.138
783.142
783.146
783.15
783.154
783.158
783.162
783.166
783.169
783.173
783.176
783.179
783.182
783.186
783.189
783.192
783.195
783.197
783.2
783.203
783.205
783.208
783.21
783.213
783.215
783.217
783.219
783.222
783.223
783.226
783.226
783.23
783.229
783.234
783.232
783.237
783.235
783.241
783.238
783.244
783.241
783.246
783.243
783.248
783.248
783.247
783.254
783.25
783.252
783.255
780.998
781.029
781.065
781.106
781.138
781.161
781.188
781.221
781.253
781.278
781.3
781.327
781.357
781.382
781.404
781.424
781.448
781.472
781.495
781.517
781.537
781.555
781.574
781.594
781.614
781.633
781.653
781.672
781.69
781.709
781.727
781.746
781.764
781.782
781.801
781.82
781.838
781.857
781.876
781.895
781.914
781.932
781.951
781.969
781.988
782.005
782.023
782.041
782.059
782.076
782.093
782.111
782.129
782.147
782.164
782.18
782.197
782.213
782.23
782.247
782.264
782.28
782.295
782.311
782.329
782.346
782.359
782.374
782.394
782.412
782.424
782.438
782.459
782.482
782.496
782.508
782.532
782.562
782.586
782.606
782.63
782.662
782.712
782.773
782.811
782.814
782.807
782.781
782.73
782.69
782.665
782.655
782.659
782.677
782.695
782.71
782.724
782.737
782.749
782.761
782.772
782.782
782.793
782.803
782.813
782.823
782.833
782.842
782.851
782.861
782.87
782.879
782.888
782.896
782.905
782.914
782.922
782.93
782.939
782.947
782.955
782.962
782.97
782.978
782.985
782.992
783
783.007
783.014
783.021
783.027
783.034
783.04
783.047
783.053
783.059
783.065
783.071
783.077
783.082
783.088
783.093
783.099
783.104
783.109
783.114
783.118
783.123
783.128
783.132
783.136
783.141
783.145
783.149
783.153
783.157
783.161
783.164
783.168
783.171
783.175
783.178
783.181
783.184
783.187
783.19
783.193
783.196
783.199
783.201
783.204
783.206
783.209
783.211
783.213
783.216
783.217
783.22
783.221
783.224
783.225
783.229
783.228
783.232
783.231
783.236
783.234
783.239
783.236
783.242
783.239
783.245
783.242
783.248
783.244
783.25
783.247
783.252
783.25
783.253
781.17
781.213
781.267
781.322
781.375
781.419
781.46
781.501
781.538
781.564
781.588
781.614
781.642
781.661
781.675
781.689
781.707
781.728
781.751
781.77
781.784
781.797
781.813
781.832
781.85
781.869
781.888
781.906
781.925
781.944
781.963
781.983
782.002
782.022
782.042
782.061
782.081
782.101
782.12
782.139
782.158
782.177
782.196
782.214
782.233
782.25
782.269
782.288
782.307
782.326
782.344
782.364
782.385
782.408
782.425
782.443
782.463
782.485
782.508
782.529
782.546
782.558
782.555
782.548
782.53
782.5
782.476
782.457
782.443
782.435
782.434
782.443
782.456
782.47
782.486
782.504
782.521
782.537
782.552
782.567
782.58
782.593
782.605
782.615
782.624
782.634
782.642
782.649
782.656
782.663
782.671
782.68
782.69
782.7
782.711
782.722
782.733
782.743
782.754
782.764
782.774
782.784
782.794
782.804
782.814
782.823
782.833
782.842
782.852
782.861
782.87
782.879
782.888
782.896
782.905
782.914
782.922
782.93
782.939
782.947
782.955
782.962
782.97
782.978
782.985
782.992
783
783.007
783.014
783.021
783.027
783.034
783.04
783.047
783.053
783.059
783.065
783.071
783.077
783.082
783.088
783.093
783.099
783.104
783.109
783.114
783.118
783.123
783.128
783.132
783.136
783.141
783.145
783.149
783.153
783.157
783.161
783.164
783.168
783.171
783.175
783.178
783.181
783.184
783.187
783.19
783.193
783.196
783.199
783.201
783.204
783.206
783.209
783.211
783.213
783.216
783.218
783.22
783.222
783.224
783.225
783.228
783.229
783.231
783.232
783.234
783.236
783.237
783.238
783.241
783.24
783.244
783.243
783.245
783.247
783.248
783.248
783.251
783.251
783.253
781.097
781.134
781.135
781.156
781.226
781.252
781.252
781.266
781.325
781.348
781.349
781.36
781.406
781.445
781.451
781.449
781.456
781.478
781.516
781.557
781.568
781.568
781.571
781.585
781.603
781.622
781.642
781.662
781.682
781.703
781.723
781.743
781.764
781.784
781.804
781.824
781.843
781.862
781.881
781.9
781.918
781.937
781.955
781.974
781.992
782.01
782.029
782.047
782.066
782.085
782.103
782.118
782.143
782.178
782.189
782.197
782.21
782.226
782.248
782.264
782.276
782.29
782.304
782.32
782.336
782.352
782.367
782.381
782.397
782.414
782.432
782.448
782.463
782.477
782.493
782.51
782.524
782.537
782.559
782.59
782.617
782.629
782.63
782.633
782.653
782.733
782.843
782.903
782.914
782.901
782.834
782.754
782.707
782.685
782.682
782.696
782.717
782.732
782.746
782.759
782.77
782.782
782.792
782.803
782.813
782.823
782.832
782.842
782.851
782.861
782.87
782.879
782.888
782.896
782.905
782.914
782.922
782.93
782.939
782.947
782.955
782.962
782.97
782.978
782.985
782.992
783
783.007
783.014
783.021
783.027
783.034
783.04
783.047
783.053
783.059
783.065
783.071
783.077
783.082
783.088
783.093
783.099
783.104
783.109
783.114
783.118
783.123
783.128
783.132
783.136
783.141
783.145
783.149
783.153
783.157
783.161
783.164
783.168
783.171
783.175
783.178
783.181
783.184
783.187
783.19
783.193
783.196
783.199
783.201
783.204
783.206
783.209
783.211
783.214
783.215
783.218
783.219
783.223
783.223
783.227
783.226
783.231
783.229
783.234
783.232
783.238
783.235
783.241
783.238
783.244
783.241
783.246
783.243
783.249
783.246
783.25
783.25
783.248
783.256
781.081
781.108
781.121
781.129
781.157
781.203
781.221
781.23
781.248
781.274
781.298
781.324
781.344
781.362
781.383
781.401
781.422
781.443
781.468
781.489
781.509
781.525
781.545
781.564
781.584
781.605
781.625
781.646
781.666
781.687
781.707
781.727
781.748
781.768
781.788
781.808
781.828
781.847
781.867
781.885
781.904
781.923
781.941
781.96
781.978
781.996
782.014
782.032
782.05
782.069
782.088
782.105
782.125
782.144
782.159
782.175
782.192
782.208
782.226
782.241
782.257
782.272
782.288
782.304
782.32
782.336
782.351
782.367
782.382
782.397
782.411
782.427
782.444
782.46
782.475
782.489
782.506
782.522
782.532
782.541
782.561
782.593
782.621
782.631
782.632
782.635
782.663
782.781
782.894