/*--------------------------------*- C++ -*----------------------------------*\
| =========                 |                                                 |
| \\      /  F ield         | OpenFOAM: The Open Source CFD Toolbox           |
|  \\    /   O peration     | Version:  3.0.x                                 |
|   \\  /    A nd           | Web:      www.OpenFOAM.org                      |
|    \\/     M anipulation  |                                                 |
\*---------------------------------------------------------------------------*/
FoamFile
{
    version     2.0;
    format      ascii;
    class       volScalarField;
    location    "0.39";
    object      rho;
}
// * * * * * * * * * * * * * * * * * * * * * * * * * * * * * * * * * * * * * //

dimensions      [1 -3 0 0 0 0 0];

internalField   nonuniform List<scalar> 
13800
(
50.5094
50.5094
50.5094
50.5094
50.5094
50.5094
50.5094
50.5094
50.5094
50.5094
50.5094
50.5094
50.5094
50.5094
50.5094
50.5094
50.5094
50.5094
50.5094
50.5094
50.5094
50.5094
50.5094
50.5094
50.5094
50.5094
50.5094
50.5094
50.5095
50.5095
50.5095
50.5095
50.5095
50.5095
50.5095
50.5095
50.5095
50.5095
50.5095
50.5095
50.5096
50.5096
50.5097
50.5097
50.5098
50.5098
50.5098
50.5098
50.5098
50.5098
50.5098
50.5098
50.5098
50.5098
50.5098
50.5099
50.5099
50.5099
50.51
50.51
50.51
50.51
50.51
50.51
50.51
50.51
50.51
50.51
50.51
50.51
50.51
50.51
50.51
50.51
50.51
50.51
50.51
50.51
50.51
50.51
50.51
50.51
50.51
50.51
50.51
50.51
50.51
50.51
50.51
50.51
50.51
50.51
50.51
50.51
50.51
50.51
50.51
50.51
50.51
50.51
50.51
50.51
50.51
50.51
50.51
50.51
50.51
50.51
50.51
50.51
50.51
50.51
50.51
50.51
50.51
50.51
50.51
50.51
50.51
50.51
50.51
50.51
50.51
50.51
50.5099
50.5099
50.5099
50.5099
50.5099
50.5099
50.5099
50.5099
50.5099
50.5099
50.5099
50.5099
50.5099
50.5099
50.5099
50.5099
50.5099
50.5099
50.5099
50.5099
50.5099
50.5099
50.5099
50.5099
50.5099
50.5099
50.5099
50.5099
50.5099
50.5099
50.5099
50.5099
50.5099
50.5099
50.5099
50.5099
50.5099
50.5099
50.5099
50.5099
50.5099
50.5099
50.5099
50.5099
50.5099
50.5099
50.5099
50.5099
50.5099
50.5099
50.5099
50.5099
50.5099
50.5099
50.5099
50.5099
50.5099
50.5099
50.5099
50.5099
50.5099
50.5099
50.5099
50.5099
50.51
50.51
50.51
50.51
50.51
50.51
50.51
50.51
50.5101
50.5101
50.5114
50.5083
50.5098
50.5098
50.5098
50.5098
50.5098
50.5098
50.5098
50.5098
50.5098
50.5098
50.5098
50.5098
50.5098
50.5098
50.5098
50.5098
50.5098
50.5098
50.5098
50.5098
50.5098
50.5098
50.5098
50.5098
50.5098
50.5098
50.5098
50.5098
50.5098
50.5099
50.5099
50.5099
50.5099
50.5099
50.5099
50.5099
50.5099
50.5099
50.5099
50.5099
50.5099
50.5099
50.51
50.51
50.5101
50.5101
50.5101
50.5101
50.5101
50.5101
50.5101
50.5101
50.5101
50.5101
50.5101
50.5102
50.5102
50.5102
50.5102
50.5103
50.5103
50.5103
50.5103
50.5103
50.5103
50.5103
50.5103
50.5103
50.5103
50.5103
50.5103
50.5103
50.5103
50.5103
50.5103
50.5103
50.5103
50.5103
50.5103
50.5103
50.5103
50.5103
50.5103
50.5103
50.5103
50.5103
50.5103
50.5103
50.5103
50.5103
50.5103
50.5103
50.5103
50.5103
50.5103
50.5103
50.5103
50.5103
50.5103
50.5103
50.5103
50.5103
50.5103
50.5103
50.5103
50.5103
50.5103
50.5103
50.5103
50.5102
50.5102
50.5102
50.5102
50.5102
50.5102
50.5102
50.5102
50.5102
50.5102
50.5102
50.5102
50.5102
50.5102
50.5102
50.5102
50.5102
50.5102
50.5102
50.5102
50.5102
50.5102
50.5102
50.5102
50.5102
50.5102
50.5102
50.5102
50.5102
50.5102
50.5102
50.5102
50.5102
50.5102
50.5102
50.5102
50.5102
50.5102
50.5102
50.5102
50.5102
50.5102
50.5102
50.5102
50.5102
50.5102
50.5102
50.5102
50.5102
50.5102
50.5102
50.5102
50.5102
50.5102
50.5102
50.5102
50.5102
50.5102
50.5102
50.5102
50.5102
50.5102
50.5102
50.5102
50.5102
50.5102
50.5102
50.5102
50.5102
50.5102
50.5102
50.5102
50.5102
50.5102
50.5102
50.5102
50.5102
50.5102
50.5102
50.5102
50.5102
50.5102
50.5102
50.5102
50.5103
50.5103
50.5103
50.5103
50.5103
50.5117
50.5075
50.5098
50.5098
50.5098
50.5098
50.5098
50.5098
50.5098
50.5098
50.5098
50.5098
50.5098
50.5098
50.5098
50.5098
50.5098
50.5098
50.5098
50.5098
50.5098
50.5098
50.5098
50.5098
50.5098
50.5098
50.5098
50.5098
50.5098
50.5098
50.5098
50.5099
50.5099
50.5099
50.5099
50.5099
50.5099
50.5099
50.5099
50.5099
50.5099
50.5099
50.5099
50.5099
50.51
50.51
50.5101
50.5101
50.5101
50.5101
50.5101
50.5101
50.5101
50.5101
50.5101
50.5101
50.5101
50.5102
50.5102
50.5102
50.5102
50.5103
50.5103
50.5103
50.5103
50.5103
50.5103
50.5103
50.5103
50.5103
50.5103
50.5103
50.5103
50.5103
50.5103
50.5103
50.5103
50.5103
50.5103
50.5103
50.5103
50.5103
50.5103
50.5103
50.5103
50.5103
50.5103
50.5103
50.5103
50.5103
50.5103
50.5103
50.5103
50.5103
50.5103
50.5103
50.5103
50.5103
50.5103
50.5103
50.5103
50.5103
50.5103
50.5103
50.5103
50.5103
50.5103
50.5103
50.5103
50.5103
50.5103
50.5102
50.5102
50.5102
50.5102
50.5102
50.5102
50.5102
50.5102
50.5102
50.5102
50.5102
50.5102
50.5102
50.5102
50.5102
50.5102
50.5102
50.5102
50.5102
50.5102
50.5102
50.5102
50.5102
50.5102
50.5102
50.5102
50.5102
50.5102
50.5102
50.5102
50.5102
50.5102
50.5102
50.5102
50.5102
50.5102
50.5102
50.5102
50.5102
50.5102
50.5102
50.5102
50.5102
50.5102
50.5102
50.5102
50.5102
50.5102
50.5102
50.5102
50.5102
50.5102
50.5102
50.5102
50.5102
50.5102
50.5102
50.5102
50.5102
50.5102
50.5102
50.5102
50.5102
50.5102
50.5102
50.5102
50.5102
50.5102
50.5102
50.5102
50.5102
50.5102
50.5102
50.5102
50.5102
50.5102
50.5102
50.5102
50.5102
50.5102
50.5102
50.5102
50.5102
50.5102
50.5103
50.5103
50.5103
50.5103
50.5103
50.5117
50.5076
50.5098
50.5098
50.5098
50.5098
50.5098
50.5098
50.5098
50.5098
50.5098
50.5098
50.5098
50.5098
50.5098
50.5098
50.5098
50.5098
50.5098
50.5098
50.5098
50.5098
50.5098
50.5098
50.5098
50.5098
50.5098
50.5098
50.5098
50.5098
50.5098
50.5099
50.5099
50.5099
50.5099
50.5099
50.5099
50.5099
50.5099
50.5099
50.5099
50.5099
50.5099
50.5099
50.51
50.51
50.5101
50.5101
50.5101
50.5101
50.5101
50.5101
50.5101
50.5101
50.5101
50.5101
50.5101
50.5102
50.5102
50.5102
50.5102
50.5103
50.5103
50.5103
50.5103
50.5103
50.5103
50.5103
50.5103
50.5103
50.5103
50.5103
50.5103
50.5103
50.5103
50.5103
50.5103
50.5103
50.5103
50.5103
50.5103
50.5103
50.5103
50.5103
50.5103
50.5103
50.5103
50.5103
50.5103
50.5103
50.5103
50.5103
50.5103
50.5103
50.5103
50.5103
50.5103
50.5103
50.5103
50.5103
50.5103
50.5103
50.5103
50.5103
50.5103
50.5103
50.5103
50.5103
50.5103
50.5103
50.5103
50.5102
50.5102
50.5102
50.5102
50.5102
50.5102
50.5102
50.5102
50.5102
50.5102
50.5102
50.5102
50.5102
50.5102
50.5102
50.5102
50.5102
50.5102
50.5102
50.5102
50.5102
50.5102
50.5102
50.5102
50.5102
50.5102
50.5102
50.5102
50.5102
50.5102
50.5102
50.5102
50.5102
50.5102
50.5102
50.5102
50.5102
50.5102
50.5102
50.5102
50.5102
50.5102
50.5102
50.5102
50.5102
50.5102
50.5102
50.5102
50.5102
50.5102
50.5102
50.5102
50.5102
50.5102
50.5102
50.5102
50.5102
50.5102
50.5102
50.5102
50.5102
50.5102
50.5102
50.5102
50.5102
50.5102
50.5102
50.5102
50.5102
50.5102
50.5102
50.5102
50.5102
50.5102
50.5102
50.5102
50.5102
50.5102
50.5102
50.5102
50.5102
50.5102
50.5102
50.5102
50.5103
50.5103
50.5103
50.5103
50.5104
50.5115
50.5089
50.5098
50.5098
50.5098
50.5098
50.5098
50.5098
50.5098
50.5098
50.5098
50.5098
50.5098
50.5098
50.5098
50.5098
50.5098
50.5098
50.5098
50.5098
50.5098
50.5098
50.5098
50.5098
50.5098
50.5098
50.5097
50.5098
50.5098
50.5098
50.5098
50.5099
50.5099
50.5099
50.5099
50.5099
50.5099
50.5099
50.5099
50.5099
50.5099
50.5099
50.5099
50.5099
50.51
50.51
50.5101
50.5101
50.5101
50.5101
50.5101
50.5101
50.5101
50.5101
50.5101
50.5101
50.5101
50.5102
50.5102
50.5102
50.5102
50.5103
50.5103
50.5103
50.5103
50.5103
50.5103
50.5103
50.5103
50.5103
50.5103
50.5103
50.5103
50.5103
50.5103
50.5103
50.5103
50.5103
50.5103
50.5103
50.5103
50.5103
50.5103
50.5103
50.5103
50.5103
50.5103
50.5103
50.5103
50.5103
50.5103
50.5103
50.5103
50.5103
50.5103
50.5103
50.5103
50.5103
50.5103
50.5103
50.5103
50.5103
50.5103
50.5103
50.5103
50.5103
50.5103
50.5103
50.5103
50.5103
50.5103
50.5102
50.5102
50.5102
50.5102
50.5102
50.5102
50.5102
50.5102
50.5102
50.5102
50.5102
50.5102
50.5102
50.5102
50.5102
50.5102
50.5102
50.5102
50.5102
50.5102
50.5102
50.5102
50.5102
50.5102
50.5102
50.5102
50.5102
50.5102
50.5102
50.5102
50.5102
50.5102
50.5102
50.5102
50.5102
50.5102
50.5102
50.5102
50.5102
50.5102
50.5102
50.5102
50.5102
50.5102
50.5102
50.5102
50.5102
50.5102
50.5102
50.5102
50.5102
50.5102
50.5102
50.5102
50.5102
50.5102
50.5102
50.5102
50.5102
50.5102
50.5102
50.5102
50.5102
50.5102
50.5102
50.5102
50.5102
50.5102
50.5102
50.5102
50.5102
50.5102
50.5102
50.5102
50.5102
50.5102
50.5102
50.5102
50.5102
50.5102
50.5102
50.5102
50.5102
50.5102
50.5103
50.5103
50.5103
50.5103
50.5103
50.5109
50.5083
50.5098
50.5098
50.5098
50.5098
50.5098
50.5098
50.5098
50.5098
50.5098
50.5098
50.5098
50.5098
50.5098
50.5098
50.5098
50.5098
50.5098
50.5098
50.5098
50.5098
50.5098
50.5098
50.5098
50.5098
50.5097
50.5098
50.5098
50.5098
50.5098
50.5099
50.5099
50.5099
50.5099
50.5099
50.5099
50.5099
50.5099
50.5099
50.5099
50.5099
50.5099
50.5099
50.51
50.51
50.5101
50.5101
50.5101
50.5101
50.5101
50.5101
50.5101
50.5101
50.5101
50.5101
50.5101
50.5102
50.5102
50.5102
50.5102
50.5103
50.5103
50.5103
50.5103
50.5103
50.5103
50.5103
50.5103
50.5103
50.5103
50.5103
50.5103
50.5103
50.5103
50.5103
50.5103
50.5103
50.5103
50.5103
50.5103
50.5103
50.5103
50.5103
50.5103
50.5103
50.5103
50.5103
50.5103
50.5103
50.5103
50.5103
50.5103
50.5103
50.5103
50.5103
50.5103
50.5103
50.5103
50.5103
50.5103
50.5103
50.5103
50.5103
50.5103
50.5103
50.5103
50.5103
50.5103
50.5103
50.5103
50.5102
50.5102
50.5102
50.5102
50.5102
50.5102
50.5102
50.5102
50.5102
50.5102
50.5102
50.5102
50.5102
50.5102
50.5102
50.5102
50.5102
50.5102
50.5102
50.5102
50.5102
50.5102
50.5102
50.5102
50.5102
50.5102
50.5102
50.5102
50.5102
50.5102
50.5102
50.5102
50.5102
50.5102
50.5102
50.5102
50.5102
50.5102
50.5102
50.5102
50.5102
50.5102
50.5102
50.5102
50.5102
50.5102
50.5102
50.5102
50.5102
50.5102
50.5102
50.5102
50.5102
50.5102
50.5102
50.5102
50.5102
50.5102
50.5102
50.5102
50.5102
50.5102
50.5102
50.5102
50.5102
50.5102
50.5102
50.5102
50.5102
50.5102
50.5102
50.5102
50.5102
50.5102
50.5102
50.5102
50.5102
50.5102
50.5102
50.5102
50.5102
50.5102
50.5102
50.5102
50.5103
50.5103
50.5103
50.5103
50.5102
50.51
50.5096
50.5098
50.5098
50.5098
50.5098
50.5098
50.5098
50.5098
50.5098
50.5098
50.5098
50.5098
50.5098
50.5098
50.5098
50.5098
50.5098
50.5098
50.5098
50.5098
50.5098
50.5098
50.5098
50.5098
50.5098
50.5098
50.5098
50.5098
50.5098
50.5098
50.5099
50.5099
50.5099
50.5099
50.5099
50.5099
50.5099
50.5099
50.5099
50.5099
50.5099
50.5099
50.5099
50.51
50.51
50.5101
50.5101
50.5101
50.5101
50.5101
50.5101
50.5101
50.5101
50.5101
50.5101
50.5101
50.5102
50.5102
50.5102
50.5102
50.5103
50.5103
50.5103
50.5103
50.5103
50.5103
50.5103
50.5103
50.5103
50.5103
50.5103
50.5103
50.5103
50.5103
50.5103
50.5103
50.5103
50.5103
50.5103
50.5103
50.5103
50.5103
50.5103
50.5103
50.5103
50.5103
50.5103
50.5103
50.5103
50.5103
50.5103
50.5103
50.5103
50.5103
50.5103
50.5103
50.5103
50.5103
50.5103
50.5103
50.5103
50.5103
50.5103
50.5103
50.5103
50.5103
50.5103
50.5103
50.5103
50.5103
50.5102
50.5102
50.5102
50.5102
50.5102
50.5102
50.5102
50.5102
50.5102
50.5102
50.5102
50.5102
50.5102
50.5102
50.5102
50.5102
50.5102
50.5102
50.5102
50.5102
50.5102
50.5102
50.5102
50.5102
50.5102
50.5102
50.5102
50.5102
50.5102
50.5102
50.5102
50.5102
50.5102
50.5102
50.5102
50.5102
50.5102
50.5102
50.5102
50.5102
50.5102
50.5102
50.5102
50.5102
50.5102
50.5102
50.5102
50.5102
50.5102
50.5102
50.5102
50.5102
50.5102
50.5102
50.5102
50.5102
50.5102
50.5102
50.5102
50.5102
50.5102
50.5102
50.5102
50.5102
50.5102
50.5102
50.5102
50.5102
50.5102
50.5102
50.5102
50.5102
50.5102
50.5102
50.5102
50.5102
50.5102
50.5102
50.5102
50.5102
50.5102
50.5102
50.5102
50.5102
50.5103
50.5103
50.5103
50.5102
50.5103
50.509
50.5131
50.5098
50.5098
50.5098
50.5098
50.5098
50.5098
50.5098
50.5098
50.5098
50.5098
50.5098
50.5098
50.5098
50.5098
50.5098
50.5098
50.5098
50.5098
50.5098
50.5098
50.5098
50.5098
50.5098
50.5098
50.5098
50.5098
50.5098
50.5098
50.5098
50.5099
50.5099
50.5099
50.5099
50.5099
50.5099
50.5099
50.5099
50.5099
50.5099
50.5099
50.5099
50.5099
50.51
50.51
50.5101
50.5101
50.5101
50.5101
50.5101
50.5101
50.5101
50.5101
50.5101
50.5101
50.5101
50.5102
50.5102
50.5102
50.5102
50.5103
50.5103
50.5103
50.5103
50.5103
50.5103
50.5103
50.5103
50.5103
50.5103
50.5103
50.5103
50.5103
50.5103
50.5103
50.5103
50.5103
50.5103
50.5103
50.5103
50.5103
50.5103
50.5103
50.5103
50.5103
50.5103
50.5103
50.5103
50.5103
50.5103
50.5103
50.5103
50.5103
50.5103
50.5103
50.5103
50.5103
50.5103
50.5103
50.5103
50.5103
50.5103
50.5103
50.5103
50.5103
50.5103
50.5103
50.5103
50.5103
50.5103
50.5102
50.5102
50.5102
50.5102
50.5102
50.5102
50.5102
50.5102
50.5102
50.5102
50.5102
50.5102
50.5102
50.5102
50.5102
50.5102
50.5102
50.5102
50.5102
50.5102
50.5102
50.5102
50.5102
50.5102
50.5102
50.5102
50.5102
50.5102
50.5102
50.5102
50.5102
50.5102
50.5102
50.5102
50.5102
50.5102
50.5102
50.5102
50.5102
50.5102
50.5102
50.5102
50.5102
50.5102
50.5102
50.5102
50.5102
50.5102
50.5102
50.5102
50.5102
50.5102
50.5102
50.5102
50.5102
50.5102
50.5102
50.5102
50.5102
50.5102
50.5102
50.5102
50.5102
50.5102
50.5102
50.5102
50.5102
50.5102
50.5102
50.5102
50.5102
50.5102
50.5102
50.5102
50.5102
50.5102
50.5102
50.5102
50.5102
50.5102
50.5102
50.5102
50.5102
50.5102
50.5103
50.5103
50.5103
50.5102
50.5104
50.508
50.5225
50.5098
50.5098
50.5098
50.5098
50.5098
50.5098
50.5098
50.5098
50.5098
50.5098
50.5098
50.5098
50.5098
50.5098
50.5098
50.5098
50.5098
50.5098
50.5098
50.5098
50.5098
50.5098
50.5098
50.5098
50.5098
50.5098
50.5098
50.5098
50.5098
50.5099
50.5099
50.5099
50.5099
50.5099
50.5099
50.5099
50.5099
50.5099
50.5099
50.5099
50.5099
50.5099
50.51
50.51
50.5101
50.5101
50.5101
50.5101
50.5101
50.5101
50.5101
50.5101
50.5101
50.5101
50.5101
50.5102
50.5102
50.5102
50.5102
50.5103
50.5103
50.5103
50.5103
50.5103
50.5103
50.5103
50.5103
50.5103
50.5103
50.5103
50.5103
50.5103
50.5103
50.5103
50.5103
50.5103
50.5103
50.5103
50.5103
50.5103
50.5103
50.5103
50.5103
50.5103
50.5103
50.5103
50.5103
50.5103
50.5103
50.5103
50.5103
50.5103
50.5103
50.5103
50.5103
50.5103
50.5103
50.5103
50.5103
50.5103
50.5103
50.5103
50.5103
50.5103
50.5103
50.5103
50.5103
50.5103
50.5103
50.5102
50.5102
50.5102
50.5102
50.5102
50.5102
50.5102
50.5102
50.5102
50.5102
50.5102
50.5102
50.5102
50.5102
50.5102
50.5102
50.5102
50.5102
50.5102
50.5102
50.5102
50.5102
50.5102
50.5102
50.5102
50.5102
50.5102
50.5102
50.5102
50.5102
50.5102
50.5102
50.5102
50.5102
50.5102
50.5102
50.5102
50.5102
50.5102
50.5102
50.5102
50.5102
50.5102
50.5102
50.5102
50.5102
50.5102
50.5102
50.5102
50.5102
50.5102
50.5102
50.5102
50.5102
50.5102
50.5102
50.5102
50.5102
50.5102
50.5102
50.5102
50.5102
50.5102
50.5102
50.5102
50.5102
50.5102
50.5102
50.5102
50.5102
50.5102
50.5102
50.5102
50.5102
50.5102
50.5102
50.5102
50.5102
50.5102
50.5102
50.5102
50.5102
50.5102
50.5102
50.5103
50.5103
50.5103
50.5102
50.5105
50.5074
50.5274
50.5094
50.5094
50.5094
50.5094
50.5094
50.5094
50.5094
50.5094
50.5094
50.5094
50.5094
50.5094
50.5094
50.5094
50.5094
50.5094
50.5094
50.5094
50.5094
50.5094
50.5094
50.5094
50.5094
50.5094
50.5094
50.5094
50.5094
50.5094
50.5095
50.5095
50.5095
50.5095
50.5095
50.5095
50.5095
50.5095
50.5095
50.5095
50.5095
50.5095
50.5096
50.5096
50.5097
50.5097
50.5098
50.5098
50.5098
50.5098
50.5098
50.5098
50.5098
50.5098
50.5098
50.5098
50.5098
50.5099
50.5099
50.5099
50.51
50.51
50.51
50.51
50.51
50.51
50.51
50.51
50.51
50.51
50.51
50.51
50.51
50.51
50.51
50.51
50.51
50.51
50.51
50.51
50.51
50.51
50.51
50.51
50.51
50.51
50.51
50.51
50.51
50.51
50.51
50.51
50.51
50.51
50.51
50.51
50.51
50.51
50.51
50.51
50.51
50.51
50.51
50.51
50.51
50.51
50.51
50.51
50.51
50.51
50.51
50.51
50.51
50.51
50.51
50.51
50.51
50.51
50.51
50.51
50.51
50.51
50.51
50.51
50.51
50.51
50.5099
50.5099
50.5099
50.5099
50.5099
50.5099
50.5099
50.5099
50.5099
50.5099
50.5099
50.5099
50.5099
50.5099
50.5099
50.5099
50.5099
50.5099
50.5099
50.5099
50.5099
50.5099
50.5099
50.5099
50.5099
50.5099
50.5099
50.5099
50.5099
50.5099
50.5099
50.5099
50.5099
50.5099
50.5099
50.5099
50.5099
50.5099
50.5099
50.5099
50.5099
50.5099
50.5099
50.5099
50.5099
50.5099
50.5099
50.5099
50.5099
50.5099
50.5099
50.5099
50.5099
50.5099
50.5099
50.5099
50.5099
50.5099
50.5099
50.5099
50.5099
50.5099
50.5099
50.5099
50.51
50.51
50.51
50.51
50.51
50.51
50.51
50.51
50.51
50.5103
50.5066
50.5321
50.539
50.5508
50.5548
50.5554
50.5553
50.5552
50.5551
50.5547
50.5542
50.5537
50.5531
50.5525
50.5518
50.551
50.5499
50.5486
50.5469
50.5446
50.5414
50.5364
50.5374
50.5477
50.5518
50.5526
50.5527
50.5527
50.5526
50.5523
50.5519
50.5515
50.5509
50.5504
50.5497
50.5489
50.5479
50.5466
50.5449
50.5425
50.5392
50.5342
50.5357
50.5462
50.5509
50.552
50.552
50.552
50.5519
50.5516
50.5512
50.5507
50.5502
50.5496
50.5489
50.5481
50.5471
50.5458
50.544
50.5415
50.538
50.5325
50.5298
50.5355
50.5373
50.5371
50.5368
50.5365
50.5362
50.5358
50.5352
50.5346
50.534
50.5334
50.5325
50.5316
50.5304
50.529
50.5273
50.525
50.5219
50.5175
50.52
50.5237
50.5266
50.5288
50.5304
50.5314
50.5318
50.5319
50.5319
50.5317
50.5313
50.5309
50.5299
50.5289
50.5277
50.5261
50.5241
50.5217
50.5189
50.5156
50.5027
50.4997
50.4965
50.493
50.4898
50.4872
50.4853
50.4837
50.4824
50.4813
50.4804
50.4797
50.4793
50.479
50.4785
50.4782
50.478
50.4782
50.4785
50.4798
50.4841
50.4782
50.4764
50.4768
50.4772
50.4775
50.4776
50.4778
50.4779
50.4781
50.478
50.478
50.4779
50.4779
50.4778
50.4781
50.4785
50.4795
50.4814
50.4848
50.4613
50.4447
50.4316
50.4222
50.4157
50.4108
50.4071
50.4044
50.4026
50.4015
50.401
50.401
50.4017
50.4031
50.4056
50.4091
50.4133
50.4199
50.4274
50.4375
50.4565
50.4388
50.4273
50.4203
50.4154
50.4118
50.409
50.4072
50.406
50.4057
50.4057
50.4063
50.4074
50.4092
50.4119
50.4155
50.4201
50.4257
50.4332
50.4426
50.4506
50.4252
50.4106
50.4015
50.3952
50.3901
50.3859
50.383
50.3809
50.3795
50.3789
50.3786
50.3793
50.3805
50.3831
50.3867
50.3915
50.3977
50.406
50.4172
50.5147
50.5023
50.4989
50.4979
50.4976
50.4975
50.4976
50.4976
50.4977
50.4977
50.4978
50.4978
50.4979
50.4979
50.498
50.498
50.4981
50.4981
50.4982
50.4983
50.4984
50.4985
50.4986
50.4987
50.4988
50.4989
50.499
50.4991
50.4993
50.4994
50.4996
50.4997
50.4999
50.5001
50.5002
50.5004
50.5006
50.5008
50.501
50.5013
50.5015
50.5018
50.502
50.5023
50.5026
50.5029
50.5032
50.5036
50.5039
50.5043
50.5047
50.5051
50.5055
50.5059
50.5064
50.5069
50.5074
50.5079
50.5084
50.509
50.5096
50.5102
50.5108
50.5115
50.5123
50.5132
50.5141
50.515
50.5158
50.5167
50.5175
50.5183
50.519
50.5191
50.5168
50.5052
50.4657
50.4057
50.3508
50.3064
50.2754
50.2582
50.2524
50.2534
50.2614
50.2967
50.3699
50.4355
50.4863
50.5221
50.5447
50.5573
50.5631
50.5653
50.5659
50.563
50.5591
50.5568
50.5557
50.5555
50.556
50.5569
50.5582
50.5596
50.5612
50.5629
50.5646
50.5665
50.5683
50.5702
50.5722
50.5742
50.5762
50.5783
50.5804
50.5826
50.5848
50.587
50.5893
50.5916
50.5939
50.5963
50.5987
50.6012
50.6037
50.6062
50.6088
50.6114
50.6141
50.6167
50.6195
50.6222
50.6251
50.6279
50.6308
50.6337
50.6367
50.6397
50.6427
50.6458
50.649
50.6521
50.6553
50.6586
50.6619
50.6652
50.6686
50.672
50.6754
50.6789
50.6825
50.686
50.6897
50.6933
50.697
50.7008
50.7045
50.7084
50.7122
50.7162
50.7201
50.7241
50.7281
50.7322
50.7363
50.7405
50.7447
50.749
50.7533
50.7576
50.762
50.7664
50.7709
50.7754
50.78
50.7846
50.7892
50.7939
50.7986
50.8034
50.8082
50.8131
50.818
50.8229
50.8279
50.833
50.838
50.8432
50.8483
50.8536
50.8588
50.8642
50.8694
50.8751
50.8802
50.886
50.891
50.8968
50.8993
50.9208
50.5146
50.503
50.4997
50.4988
50.4985
50.4985
50.4985
50.4986
50.4986
50.4987
50.4987
50.4988
50.4988
50.4989
50.499
50.499
50.4991
50.4991
50.4992
50.4993
50.4994
50.4995
50.4996
50.4997
50.4998
50.4999
50.5
50.5001
50.5003
50.5004
50.5005
50.5007
50.5009
50.5011
50.5012
50.5014
50.5016
50.5019
50.5021
50.5023
50.5025
50.5028
50.503
50.5033
50.5036
50.5039
50.5043
50.5046
50.505
50.5053
50.5057
50.5061
50.5065
50.507
50.5074
50.5079
50.5084
50.5089
50.5094
50.51
50.5105
50.5112
50.5118
50.5125
50.5132
50.5139
50.5147
50.5155
50.5163
50.5172
50.5182
50.5194
50.5212
50.5233
50.5254
50.5273
50.5289
50.5301
50.5311
50.5312
50.5279
50.519
50.5105
50.5042
50.5007
50.4998
50.5008
50.5033
50.5101
50.5214
50.5307
50.5377
50.5425
50.5456
50.5477
50.5495
50.5509
50.5518
50.5527
50.5538
50.5551
50.5566
50.5581
50.5597
50.5614
50.5631
50.5649
50.5667
50.5686
50.5705
50.5725
50.5745
50.5765
50.5786
50.5807
50.5828
50.585
50.5873
50.5895
50.5918
50.5942
50.5966
50.599
50.6014
50.6039
50.6065
50.609
50.6117
50.6143
50.617
50.6197
50.6225
50.6253
50.6282
50.6311
50.634
50.6369
50.64
50.643
50.6461
50.6492
50.6524
50.6556
50.6588
50.6621
50.6655
50.6688
50.6722
50.6757
50.6792
50.6827
50.6863
50.6899
50.6936
50.6973
50.701
50.7048
50.7086
50.7125
50.7164
50.7204
50.7244
50.7284
50.7325
50.7366
50.7408
50.745
50.7492
50.7535
50.7579
50.7623
50.7667
50.7711
50.7757
50.7802
50.7848
50.7895
50.7941
50.7989
50.8037
50.8085
50.8133
50.8182
50.8232
50.8282
50.8332
50.8383
50.8434
50.8486
50.8539
50.859
50.8645
50.8696
50.8753
50.8804
50.8863
50.8912
50.897
50.8999
50.918
50.5146
50.5034
50.4999
50.4988
50.4985
50.4983
50.4983
50.4984
50.4984
50.4985
50.4985
50.4986
50.4986
50.4987
50.4988
50.4988
50.4989
50.4989
50.499
50.4991
50.4992
50.4993
50.4994
50.4995
50.4996
50.4997
50.4998
50.4999
50.5001
50.5002
50.5004
50.5005
50.5007
50.5009
50.5011
50.5013
50.5015
50.5017
50.5019
50.5021
50.5023
50.5026
50.5029
50.5031
50.5034
50.5037
50.5041
50.5044
50.5048
50.5051
50.5055
50.5059
50.5063
50.5068
50.5072
50.5077
50.5082
50.5087
50.5092
50.5098
50.5103
50.5109
50.5116
50.5122
50.5129
50.5137
50.5144
50.5152
50.516
50.5169
50.5177
50.5186
50.5197
50.5211
50.524
50.5297
50.5358
50.541
50.5451
50.548
50.5497
50.551
50.5518
50.5508
50.5455
50.5396
50.5351
50.5325
50.5316
50.532
50.5332
50.5349
50.5372
50.5403
50.543
50.5455
50.5476
50.5494
50.5512
50.5529
50.5546
50.5563
50.5579
50.5596
50.5613
50.5631
50.5649
50.5667
50.5686
50.5705
50.5725
50.5745
50.5765
50.5786
50.5807
50.5828
50.585
50.5873
50.5895
50.5918
50.5942
50.5966
50.599
50.6014
50.6039
50.6065
50.609
50.6117
50.6143
50.617
50.6197
50.6225
50.6253
50.6282
50.6311
50.634
50.6369
50.64
50.643
50.6461
50.6492
50.6524
50.6556
50.6588
50.6621
50.6655
50.6688
50.6722
50.6757
50.6792
50.6827
50.6863
50.6899
50.6936
50.6973
50.701
50.7048
50.7086
50.7125
50.7164
50.7204
50.7244
50.7284
50.7325
50.7366
50.7408
50.745
50.7492
50.7535
50.7579
50.7623
50.7667
50.7711
50.7757
50.7802
50.7848
50.7895
50.7941
50.7989
50.8037
50.8085
50.8133
50.8182
50.8232
50.8282
50.8332
50.8383
50.8434
50.8486
50.8539
50.859
50.8645
50.8696
50.8753
50.8804
50.8863
50.8913
50.897
50.9003
50.9144
50.5052
50.4975
50.4955
50.4954
50.4956
50.4957
50.4959
50.4959
50.496
50.4961
50.4962
50.4962
50.4963
50.4963
50.4964
50.4965
50.4965
50.4966
50.4967
50.4967
50.4968
50.4969
50.497
50.4971
50.4972
50.4973
50.4974
50.4976
50.4977
50.4978
50.498
50.4982
50.4983
50.4985
50.4987
50.4989
50.4991
50.4993
50.4995
50.4997
50.5
50.5002
50.5005
50.5008
50.5011
50.5014
50.5017
50.502
50.5024
50.5028
50.5032
50.5036
50.504
50.5044
50.5049
50.5054
50.5059
50.5064
50.5069
50.5075
50.5081
50.5087
50.5094
50.5101
50.5109
50.5117
50.5125
50.5133
50.5141
50.515
50.5158
50.5168
50.518
50.5198
50.5238
50.5293
50.5345
50.539
50.5425
50.5449
50.5465
50.5478
50.5486
50.548
50.5448
50.5418
50.5395
50.5382
50.5377
50.538
50.5387
50.5399
50.5413
50.5429
50.5445
50.5462
50.5479
50.5495
50.5511
50.5528
50.5544
50.556
50.5577
50.5594
50.5612
50.5629
50.5648
50.5666
50.5685
50.5704
50.5724
50.5744
50.5765
50.5785
50.5807
50.5828
50.585
50.5873
50.5895
50.5918
50.5942
50.5966
50.599
50.6014
50.6039
50.6065
50.609
50.6117
50.6143
50.617
50.6197
50.6225
50.6253
50.6282
50.6311
50.634
50.6369
50.64
50.643
50.6461
50.6492
50.6524
50.6556
50.6588
50.6621
50.6655
50.6688
50.6722
50.6757
50.6792
50.6827
50.6863
50.6899
50.6936
50.6973
50.701
50.7048
50.7086
50.7125
50.7164
50.7204
50.7244
50.7284
50.7325
50.7366
50.7408
50.745
50.7492
50.7535
50.7579
50.7623
50.7667
50.7711
50.7757
50.7802
50.7848
50.7895
50.7941
50.7989
50.8037
50.8085
50.8133
50.8182
50.8232
50.8282
50.8332
50.8383
50.8434
50.8486
50.8538
50.8591
50.8645
50.8697
50.8752
50.8806
50.8861
50.8914
50.8971
50.9011
50.9079
50.5077
50.5045
50.5026
50.5009
50.4999
50.4994
50.4992
50.4991
50.4991
50.4991
50.4991
50.4992
50.4992
50.4993
50.4994
50.4994
50.4995
50.4996
50.4996
50.4997
50.4998
50.4999
50.5
50.5001
50.5002
50.5003
50.5004
50.5005
50.5007
50.5008
50.501
50.5011
50.5013
50.5014
50.5016
50.5018
50.502
50.5022
50.5025
50.5027
50.5029
50.5032
50.5035
50.5037
50.504
50.5043
50.5047
50.505
50.5053
50.5057
50.5061
50.5065
50.5069
50.5073
50.5078
50.5082
50.5087
50.5092
50.5097
50.5103
50.5108
50.5114
50.512
50.5126
50.5132
50.5139
50.5146
50.5153
50.516
50.5168
50.5176
50.5185
50.5194
50.5204
50.5215
50.5232
50.5264
50.53
50.5332
50.5358
50.5377
50.5392
50.5404
50.5416
50.5421
50.5415
50.5408
50.5404
50.5403
50.5405
50.5411
50.5419
50.5429
50.5441
50.5454
50.5467
50.5481
50.5496
50.5511
50.5527
50.5543
50.556
50.5576
50.5593
50.5611
50.5629
50.5647
50.5666
50.5685
50.5704
50.5724
50.5744
50.5765
50.5785
50.5807
50.5828
50.585
50.5873
50.5895
50.5918
50.5942
50.5966
50.599
50.6014
50.6039
50.6065
50.609
50.6117
50.6143
50.617
50.6197
50.6225
50.6253
50.6282
50.6311
50.634
50.6369
50.64
50.643
50.6461
50.6492
50.6524
50.6556
50.6588
50.6621
50.6655
50.6688
50.6722
50.6757
50.6792
50.6827
50.6863
50.6899
50.6936
50.6973
50.701
50.7048
50.7086
50.7125
50.7164
50.7204
50.7244
50.7284
50.7325
50.7366
50.7408
50.745
50.7492
50.7535
50.7579
50.7623
50.7667
50.7711
50.7757
50.7802
50.7848
50.7895
50.7941
50.7989
50.8036
50.8085
50.8133
50.8182
50.8232
50.8282
50.8332
50.8383
50.8434
50.8486
50.8538
50.8591
50.8644
50.8698
50.8751
50.8806
50.8861
50.8915
50.8972
50.9024
50.9069
50.4823
50.4856
50.4877
50.4892
50.4903
50.4908
50.491
50.4912
50.4912
50.4913
50.4914
50.4914
50.4915
50.4915
50.4916
50.4917
50.4917
50.4918
50.4919
50.492
50.4921
50.4921
50.4922
50.4923
50.4924
50.4925
50.4927
50.4928
50.4929
50.4931
50.4932
50.4934
50.4936
50.4937
50.4939
50.4941
50.4943
50.4945
50.4948
50.495
50.4953
50.4955
50.4958
50.4961
50.4964
50.4967
50.4971
50.4974
50.4978
50.4982
50.4987
50.4991
50.4996
50.5001
50.5006
50.5012
50.5018
50.5024
50.503
50.5038
50.5045
50.5053
50.5061
50.5069
50.5076
50.5084
50.5092
50.51
50.5108
50.5117
50.5128
50.5145
50.5173
50.5206
50.5237
50.5266
50.5291
50.5313
50.5332
50.5348
50.5361
50.5373
50.5384
50.5389
50.5385
50.5383
50.5382
50.5383
50.5387
50.5394
50.5402
50.5412
50.5423
50.5435
50.5449
50.5463
50.5477
50.5492
50.5508
50.5524
50.554
50.5557
50.5574
50.5592
50.561
50.5628
50.5646
50.5665
50.5684
50.5704
50.5724
50.5744
50.5764
50.5785
50.5807
50.5828
50.585
50.5872
50.5895
50.5918
50.5942
50.5966
50.599
50.6014
50.6039
50.6065
50.609
50.6117
50.6143
50.617
50.6197
50.6225
50.6253
50.6282
50.6311
50.634
50.6369
50.64
50.643
50.6461
50.6492
50.6524
50.6556
50.6588
50.6621
50.6655
50.6688
50.6722
50.6757
50.6792
50.6827
50.6863
50.6899
50.6936
50.6973
50.701
50.7048
50.7086
50.7125
50.7164
50.7204
50.7244
50.7284
50.7325
50.7366
50.7408
50.745
50.7492
50.7535
50.7579
50.7623
50.7667
50.7711
50.7757
50.7802
50.7848
50.7895
50.7941
50.7989
50.8036
50.8085
50.8133
50.8182
50.8232
50.8282
50.8332
50.8383
50.8434
50.8486
50.8538
50.8592
50.8643
50.8699
50.8751
50.8808
50.8859
50.8919
50.8971
50.9036
50.9083
50.4961
50.5028
50.5039
50.5033
50.5029
50.5027
50.5026
50.5026
50.5026
50.5026
50.5026
50.5027
50.5027
50.5028
50.5028
50.5029
50.503
50.503
50.5031
50.5032
50.5033
50.5034
50.5035
50.5036
50.5037
50.5038
50.5039
50.504
50.5042
50.5043
50.5044
50.5046
50.5048
50.5049
50.5051
50.5053
50.5055
50.5057
50.5059
50.5061
50.5064
50.5066
50.5069
50.5072
50.5075
50.5078
50.5081
50.5084
50.5088
50.5092
50.5096
50.51
50.5104
50.5108
50.5113
50.5117
50.5122
50.5127
50.5132
50.5138
50.5143
50.5149
50.5155
50.5162
50.5168
50.5175
50.5181
50.5188
50.5195
50.5202
50.521
50.5218
50.5226
50.5231
50.5237
50.5243
50.5251
50.5261
50.5273
50.5289
50.5316
50.5349
50.5375
50.5394
50.5408
50.5421
50.5428
50.5425
50.542
50.5418
50.5419
50.5424
50.5431
50.5441
50.5452
50.5465
50.5479
50.5493
50.5508
50.5524
50.554
50.5557
50.5574
50.5592
50.561
50.5628
50.5646
50.5665
50.5684
50.5704
50.5724
50.5744
50.5764
50.5785
50.5806
50.5828
50.585
50.5872
50.5895
50.5918
50.5942
50.5966
50.599
50.6014
50.6039
50.6065
50.609
50.6117
50.6143
50.617
50.6197
50.6225
50.6253
50.6282
50.6311
50.634
50.6369
50.64
50.643
50.6461
50.6492
50.6524
50.6556
50.6588
50.6621
50.6655
50.6688
50.6722
50.6757
50.6792
50.6827
50.6863
50.6899
50.6936
50.6973
50.701
50.7048
50.7086
50.7125
50.7164
50.7204
50.7244
50.7284
50.7325
50.7366
50.7408
50.745
50.7492
50.7535
50.7579
50.7623
50.7667
50.7711
50.7757
50.7802
50.7848
50.7895
50.7941
50.7989
50.8037
50.8085
50.8133
50.8182
50.8232
50.8282
50.8332
50.8383
50.8434
50.8486
50.8538
50.8592
50.8643
50.8699
50.8751
50.8808
50.886
50.8919
50.8973
50.9043
50.9095
50.4717
50.486
50.4898
50.4911
50.4914
50.4915
50.4916
50.4916
50.4916
50.4916
50.4917
50.4917
50.4917
50.4918
50.4919
50.4919
50.492
50.4921
50.4922
50.4923
50.4924
50.4924
50.4925
50.4926
50.4927
50.4928
50.493
50.4931
50.4932
50.4934
50.4935
50.4937
50.4938
50.494
50.4942
50.4944
50.4946
50.4949
50.4951
50.4954
50.4957
50.4959
50.4962
50.4965
50.4968
50.4971
50.4974
50.4977
50.498
50.4984
50.4988
50.4992
50.4997
50.5001
50.5006
50.5011
50.5017
50.5023
50.5029
50.5037
50.5044
50.5051
50.5058
50.5065
50.5072
50.5078
50.5083
50.5089
50.5096
50.5103
50.5111
50.5121
50.5131
50.5146
50.5172
50.5206
50.5239
50.5269
50.5295
50.5318
50.5338
50.5353
50.5366
50.5378
50.5387
50.539
50.5389
50.5389
50.5391
50.5396
50.5403
50.5412
50.5422
50.5434
50.5447
50.5461
50.5475
50.549
50.5506
50.5522
50.5539
50.5556
50.5573
50.5591
50.5609
50.5627
50.5646