/*--------------------------------*- C++ -*----------------------------------*\
| =========                 |                                                 |
| \\      /  F ield         | OpenFOAM: The Open Source CFD Toolbox           |
|  \\    /   O peration     | Version:  3.0.x                                 |
|   \\  /    A nd           | Web:      www.OpenFOAM.org                      |
|    \\/     M anipulation  |                                                 |
\*---------------------------------------------------------------------------*/
FoamFile
{
    version     2.0;
    format      ascii;
    class       surfaceScalarField;
    location    "0.004";
    object      phi;
}
// * * * * * * * * * * * * * * * * * * * * * * * * * * * * * * * * * * * * * //

dimensions      [1 0 -1 0 0 0 0];

internalField   nonuniform List<scalar> 
999
(
2922.08
2922.08
2922.08
2922.08
2922.08
2922.08
2922.08
2922.08
2922.08
2922.08
2922.08
2922.08
2922.08
2922.08
2922.08
2922.08
2922.08
2922.08
2922.08
2922.08
2922.08
2922.08
2922.08
2922.08
2922.08
2922.08
2922.08
2922.08
2922.08
2922.08
2922.08
2922.08
2922.08
2922.08
2922.08
2922.08
2922.08
2922.08
2922.08
2922.08
2922.08
2922.08
2922.08
2922.08
2922.08
2922.08
2922.08
2922.08
2922.08
2922.08
2922.08
2922.08
2922.08
2922.08
2922.08
2922.08
2922.08
2922.08
2922.08
2922.08
2922.08
2922.08
2922.08
2922.08
2922.08
2922.08
2922.08
2922.08
2922.08
2922.08
2922.08
2922.08
2922.08
2922.08
2922.08
2922.08
2922.08
2922.08
2922.08
2922.08
2922.08
2922.08
2922.08
2922.08
2922.08
2922.08
2922.08
2922.08
2922.08
2922.08
2922.08
2922.08
2922.08
2922.08
2922.08
2922.08
2922.08
2922.08
2922.08
2922.08
2922.08
2922.08
2922.08
2922.08
2922.08
2922.08
2922.08
2922.08
2922.08
2922.08
2922.08
2922.08
2922.08
2922.08
2922.08
2922.08
2922.08
2922.08
2922.08
2922.08
2922.08
2922.08
2922.08
2922.08
2922.08
2922.08
2922.08
2922.08
2922.08
2922.08
2922.08
2922.08
2922.08
2922.08
2922.08
2922.08
2922.08
2922.08
2922.08
2922.08
2922.08
2922.08
2922.08
2922.08
2922.08
2922.08
2922.08
2922.08
2922.08
2922.08
2922.08
2922.08
2922.08
2922.08
2922.08
2922.08
2922.08
2922.08
2922.08
2922.08
2922.08
2922.08
2922.08
2922.08
2922.08
2922.08
2922.08
2922.08
2922.08
2922.08
2922.08
2922.08
2922.08
2922.08
2922.08
2922.08
2922.08
2922.08
2922.08
2922.08
2922.08
2922.08
2922.08
2922.08
2922.08
2922.08
2922.08
2922.08
2922.08
2922.08
2922.08
2922.08
2922.08
2922.08
2922.08
2922.08
2922.08
2922.08
2922.08
2922.08
2922.08
2922.08
2922.08
2922.08
2922.08
2922.08
2922.08
2922.08
2922.08
2922.08
2922.08
2922.08
2922.08
2922.08
2922.08
2922.08
2922.08
2922.08
2922.08
2922.08
2922.08
2922.08
2922.08
2922.08
2922.08
2922.08
2922.08
2922.08
2922.08
2922.08
2922.08
2922.08
2922.08
2922.08
2922.08
2922.08
2922.08
2922.08
2922.08
2922.08
2922.08
2922.08
2922.08
2922.08
2922.08
2922.08
2922.08
2922.08
2922.08
2922.08
2922.08
2922.08
2922.08
2922.08
2922.08
2922.08
2922.08
2922.08
2922.08
2922.08
2922.08
2922.08
2922.08
2922.08
2922.08
2922.08
2922.08
2922.08
2922.08
2922.08
2922.08
2922.08
2922.08
2922.08
2922.08
2922.08
2922.08
2922.08
2922.08
2922.08
2922.08
2922.08
2922.08
2922.08
2922.08
2922.08
2922.08
2922.08
2922.08
2922.08
2922.08
2922.08
2922.08
2922.08
2922.08
2922.08
2922.08
2922.08
2922.08
2922.08
2922.08
2922.08
2922.08
2922.08
2922.08
2922.08
2922.08
2922.08
2922.08
2922.08
2922.08
2922.08
2922.08
2922.08
2922.08
2922.08
2922.08
2922.08
2922.08
2922.08
2922.08
2922.08
2922.08
2922.08
2922.08
2922.08
2922.08
2922.08
2922.08
2922.08
2922.08
2922.08
2922.08
2922.08
2922.08
2922.08
2922.08
2922.08
2922.08
2922.08
2922.08
2922.08
2922.08
2922.08
2922.08
2922.08
2922.08
2922.08
2922.08
2922.08
2922.08
2922.08
2922.08
2922.08
2922.08
2922.08
2922.08
2922.08
2922.08
2922.08
2922.08
2922.08
2922.08
2922.08
2922.08
2922.08
2922.08
2922.08
2922.08
2922.08
2922.08
2922.08
2922.08
2922.08
2922.08
2922.08
2922.08
2922.08
2922.08
2922.08
2922.08
2922.08
2922.08
2922.08
2922.08
2922.08
2922.08
2922.08
2922.08
2922.08
2922.08
2922.08
2922.08
2922.08
2922.08
2922.08
2922.08
2922.08
2922.08
2922.08
2922.08
2922.08
2922.08
2922.08
2922.08
2922.08
2922.08
2922.08
2922.08
2922.08
2922.08
2922.08
2922.08
2922.08
2922.08
2922.08
2922.08
2922.08
2922.08
2922.08
2922.08
2922.08
2922.08
2922.08
2922.08
2922.08
2922.08
2922.08
2922.08
2922.08
2922.08
2922.08
2922.08
2922.08
2922.08
2922.08
2922.08
2922.08
2922.08
2922.08
2922.08
2922.08
2922.08
2922.08
2922.08
2922.08
2922.08
2922.08
2922.08
2922.08
2922.08
2922.08
2922.08
2922.08
2922.08
2922.08
2922.08
2922.08
2922.08
2922.08
2922.08
2922.08
2922.08
2922.08
2922.08
2922.08
2922.08
2922.08
2922.08
2922.08
2922.08
2922.08
2922.08
2922.08
2922.08
2922.08
2922.08
2922.08
2922.08
2922.08
2922.08
2922.08
2922.08
2922.08
2922.08
2922.08
2922.08
2922.08
2922.08
2922.08
2922.08
2922.08
2922.08
2922.08
2922.08
2922.08
2922.08
2922.08
2922.08
2922.08
2922.08
2922.08
2922.08
2922.08
2922.08
2922.08
2922.08
2922.08
2922.08
2922.08
2922.08
2922.08
2922.08
2922.08
2922.08
2922.08
2922.08
2922.08
2922.08
2922.08
2922.08
2922.08
2922.08
2922.08
2922.08
2922.08
2922.08
2922.08
2922.08
2922.08
2922.08
2922.08
2922.08
2922.08
2922.08
2922.08
2922.08
2922.08
2922.08
2922.08
2922.08
2922.08
2922.08
2922.08
2922.08
2922.08
2922.08
2922.08
2922.08
2922.08
2922.08
2922.08
2922.08
2922.08
2922.08
2922.08
2922.08
2922.08
2922.08
2922.08
2922.08
2922.08
2922.08
2922.08
2922.08
2922.08
2922.08
2922.08
2922.08
2922.08
2922.08
2922.08
2922.08
2922.08
2922.08
2922.08
2922.08
2922.08
2922.08
2922.08
2922.08
2922.08
2922.08
2922.08
2922.08
2922.08
2922.08
2922.08
2922.08
2922.08
2922.08
2922.08
2922.08
2922.08
2922.08
2922.08
2922.08
2922.08
2922.08
2922.08
2922.08
2922.08
2922.08
2922.08
2922.08
2922.08
2922.08
2922.08
2922.08
2922.08
2922.08
2922.08
2922.08
2922.08
2922.08
2922.08
2922.08
2922.08
2922.08
2922.08
2922.08
2922.08
2922.08
2922.08
2922.08
2922.08
2922.08
2922.08
2922.08
2922.08
2922.08
2922.08
2922.08
2922.08
2922.08
2922.08
2922.08
2922.08
2922.08
2922.08
2922.08
2922.08
2922.08
2922.08
2922.08
2922.08
2922.08
2922.08
2922.08
2922.08
2922.08
2922.08
2922.08
2922.08
2922.08
2922.08
2922.08
2922.08
2922.08
2922.08
2922.08
2922.08
2922.08
2922.08
2922.08
2922.08
2922.08
2922.08
2922.08
2922.08
2922.08
2922.08
2922.08
2922.08
2922.08
2922.08
2922.08
2922.08
2922.08
2922.08
2922.08
2922.08
2922.08
2922.08
2922.08
2922.08
2922.08
2922.08
2922.08
2922.08
2922.08
2922.08
2922.08
2922.08
2922.07
2922.07
2922.07
2922.07
2922.07
2922.06
2922.06
2922.05
2922.04
2922.02
2922
2921.97
2921.93
2921.88
2921.82
2921.73
2921.61
2921.45
2921.24
2920.97
2920.62
2920.17
2919.57
2918.81
2917.83
2916.57
2914.97
2912.94
2910.36
2907.11
2903.03
2897.92
2891.55
2883.64
2873.86
2861.83
2847.08
2829.09
2807.26
2780.91
2749.3
2711.59
2666.93
2614.42
2553.21
2482.48
2401.57
2310.04
2207.74
2094.91
1972.22
1840.86
1702.5
1559.22
1413.49
1267.92
1125.17
987.722
857.725
736.898
626.452
527.08
438.994
361.991
295.545
238.896
191.138
151.294
118.375
91.4271
69.5631
51.9819
37.9781
26.9445
18.3699
11.8333
6.99417
3.5798
1.36851
0.171246
-0.181582
-0.109728
0.0451076
0.23577
0.394698
0.515659
0.605527
0.671714
0.718758
0.75069
0.770434
0.780432
0.783205
0.780918
0.775131
0.766813
0.756568
0.744921
0.73241
0.719511
0.706547
0.693682
0.680994
0.668542
0.656387
0.644572
0.633117
0.622019
0.611277
0.600896
0.590876
0.581201
0.571843
0.562773
0.553973
0.545436
0.537162
0.529141
0.521357
0.51379
0.50642
0.499235
0.492225
0.485383
0.478703
0.472175
0.465788
0.459537
0.453414
0.447419
0.441549
0.435802
0.430178
0.424674
0.419285
0.414007
0.408835
0.403765
0.398792
0.393914
0.389126
0.384425
0.379805
0.375265
0.370799
0.366404
0.362079
0.35782
0.353625
0.349491
0.345417
0.341401
0.337442
0.33354
0.329694
0.325905
0.32217
0.318488
0.314859
0.31128
0.307749
0.304264
0.300822
0.29742
0.294058
0.290734
0.287445
0.284192
0.280973
0.277788
0.274637
0.271519
0.268435
0.265384
0.262366
0.259382
0.256431
0.253514
0.250629
0.247778
0.24496
0.242175
0.239421
0.236698
0.234006
0.231342
0.228707
0.226098
0.223514
0.220954
0.218415
0.215896
0.213395
0.21091
0.208439
0.205981
0.203535
0.2011
0.198678
0.196267
0.193871
0.19149
0.189127
0.186782
0.184459
0.182156
0.179875
0.177614
0.175373
0.173148
0.170937
0.168738
0.166547
0.164362
0.162184
0.160012
0.157848
0.155695
0.153557
0.151438
0.149342
0.147272
0.145232
0.143221
0.141238
0.139281
0.137344
0.135422
0.133508
0.131597
0.129682
0.127761
0.125832
0.123897
0.121957
0.120018
0.118085
0.116163
0.11426
0.112377
0.110519
0.108686
0.106874
0.105081
0.1033
0.101524
0.0997449
0.0979562
0.0961528
0.0943324
0.0924965
0.0906491
0.0887964
0.0869449
0.0851081
0.0830628
0.0817104
0.079352
0.0782651
0.0757566
0.0747705
0.0722974
0.0713861
0.0688121
0.0679794
0.0652112
0.0646643
0.0616937
0.0613797
0.0582174
0.058084
0.054786
0.0547742
0.051449
0.0514448
0.048228
0.0480522
0.0451059
0.0445369
0.0420581
0.0408623
0.0390727
0.0370313
0.0361481
0.033084
0.0332832
0.0290915
0.0304702
0.0251459
0.0276871
0.0213418
0.0248895
0.0177574
0.0220112
0.014439
0.0189722
0.011395
0.0156973
0.00859968
0.012138
0.00600389
0.00829164
0.0035483
0.00421101
0.0011734
)
;

boundaryField
{
    inlet
    {
        type            calculated;
        value           uniform -2922.08;
    }
    backWall
    {
        type            calculated;
        value           uniform 0;
    }
    sides
    {
        type            empty;
        value           nonuniform 0();
    }
}


// ************************************************************************* //
