/*--------------------------------*- C++ -*----------------------------------*\
| =========                 |                                                 |
| \\      /  F ield         | OpenFOAM: The Open Source CFD Toolbox           |
|  \\    /   O peration     | Version:  3.0.x                                 |
|   \\  /    A nd           | Web:      www.OpenFOAM.org                      |
|    \\/     M anipulation  |                                                 |
\*---------------------------------------------------------------------------*/
FoamFile
{
    version     2.0;
    format      ascii;
    class       volScalarField;
    location    "0.54";
    object      p;
}
// * * * * * * * * * * * * * * * * * * * * * * * * * * * * * * * * * * * * * //

dimensions      [1 -1 -2 0 0 0 0];

internalField   nonuniform List<scalar> 
13800
(
1.82534e+07
1.8254e+07
1.82551e+07
1.82563e+07
1.82575e+07
1.82589e+07
1.82604e+07
1.8262e+07
1.82638e+07
1.82657e+07
1.82677e+07
1.82699e+07
1.82722e+07
1.82747e+07
1.82773e+07
1.82801e+07
1.8283e+07
1.8286e+07
1.82892e+07
1.82925e+07
1.8296e+07
1.82996e+07
1.83034e+07
1.83073e+07
1.83114e+07
1.83156e+07
1.83199e+07
1.83244e+07
1.83291e+07
1.83339e+07
1.83389e+07
1.8344e+07
1.83493e+07
1.83547e+07
1.83603e+07
1.8366e+07
1.83719e+07
1.8378e+07
1.83842e+07
1.83906e+07
1.83971e+07
1.84038e+07
1.84107e+07
1.84177e+07
1.84249e+07
1.84322e+07
1.84398e+07
1.84474e+07
1.84553e+07
1.84633e+07
1.84714e+07
1.84798e+07
1.84883e+07
1.84969e+07
1.85058e+07
1.85148e+07
1.85239e+07
1.85332e+07
1.85427e+07
1.85524e+07
1.85622e+07
1.85722e+07
1.85823e+07
1.85927e+07
1.86031e+07
1.86138e+07
1.86246e+07
1.86355e+07
1.86467e+07
1.8658e+07
1.86694e+07
1.8681e+07
1.86927e+07
1.87047e+07
1.87167e+07
1.87289e+07
1.87413e+07
1.87538e+07
1.87665e+07
1.87792e+07
1.87922e+07
1.88053e+07
1.88185e+07
1.88318e+07
1.88453e+07
1.88589e+07
1.88727e+07
1.88865e+07
1.89005e+07
1.89146e+07
1.89288e+07
1.89431e+07
1.89576e+07
1.89721e+07
1.89867e+07
1.90014e+07
1.90163e+07
1.90312e+07
1.90461e+07
1.90612e+07
1.90763e+07
1.90916e+07
1.91068e+07
1.91222e+07
1.91376e+07
1.9153e+07
1.91685e+07
1.91841e+07
1.91996e+07
1.92152e+07
1.92309e+07
1.92466e+07
1.92623e+07
1.9278e+07
1.92937e+07
1.93094e+07
1.93251e+07
1.93409e+07
1.93566e+07
1.93723e+07
1.9388e+07
1.94037e+07
1.94193e+07
1.94349e+07
1.94505e+07
1.94661e+07
1.94816e+07
1.94971e+07
1.95125e+07
1.95279e+07
1.95432e+07
1.95585e+07
1.95737e+07
1.95888e+07
1.96039e+07
1.96189e+07
1.96338e+07
1.96486e+07
1.96634e+07
1.96781e+07
1.96927e+07
1.97072e+07
1.97216e+07
1.97359e+07
1.97502e+07
1.97643e+07
1.97784e+07
1.97923e+07
1.98061e+07
1.98199e+07
1.98335e+07
1.9847e+07
1.98604e+07
1.98737e+07
1.98869e+07
1.99e+07
1.9913e+07
1.99259e+07
1.99386e+07
1.99512e+07
1.99637e+07
1.99761e+07
1.99884e+07
2.00005e+07
2.00126e+07
2.00245e+07
2.00363e+07
2.0048e+07
2.00595e+07
2.0071e+07
2.00823e+07
2.00935e+07
2.01046e+07
2.01155e+07
2.01264e+07
2.01371e+07
2.01477e+07
2.01581e+07
2.01685e+07
2.01787e+07
2.01888e+07
2.01988e+07
2.02087e+07
2.02185e+07
2.02281e+07
2.02376e+07
2.0247e+07
2.02563e+07
2.02655e+07
2.02746e+07
2.02835e+07
2.02923e+07
2.0301e+07
2.03096e+07
2.03181e+07
2.03265e+07
2.03348e+07
2.03429e+07
2.0351e+07
2.03588e+07
1.82534e+07
1.8254e+07
1.82551e+07
1.82563e+07
1.82575e+07
1.82589e+07
1.82604e+07
1.8262e+07
1.82638e+07
1.82657e+07
1.82677e+07
1.82699e+07
1.82722e+07
1.82747e+07
1.82773e+07
1.82801e+07
1.8283e+07
1.8286e+07
1.82892e+07
1.82925e+07
1.8296e+07
1.82996e+07
1.83034e+07
1.83073e+07
1.83114e+07
1.83156e+07
1.83199e+07
1.83244e+07
1.83291e+07
1.83339e+07
1.83389e+07
1.8344e+07
1.83493e+07
1.83547e+07
1.83603e+07
1.8366e+07
1.83719e+07
1.8378e+07
1.83842e+07
1.83906e+07
1.83971e+07
1.84038e+07
1.84107e+07
1.84177e+07
1.84249e+07
1.84322e+07
1.84398e+07
1.84474e+07
1.84553e+07
1.84633e+07
1.84714e+07
1.84798e+07
1.84883e+07
1.84969e+07
1.85058e+07
1.85148e+07
1.85239e+07
1.85332e+07
1.85427e+07
1.85524e+07
1.85622e+07
1.85722e+07
1.85823e+07
1.85927e+07
1.86031e+07
1.86138e+07
1.86246e+07
1.86355e+07
1.86467e+07
1.8658e+07
1.86694e+07
1.8681e+07
1.86927e+07
1.87047e+07
1.87167e+07
1.87289e+07
1.87413e+07
1.87538e+07
1.87665e+07
1.87792e+07
1.87922e+07
1.88053e+07
1.88185e+07
1.88318e+07
1.88453e+07
1.88589e+07
1.88727e+07
1.88865e+07
1.89005e+07
1.89146e+07
1.89288e+07
1.89431e+07
1.89576e+07
1.89721e+07
1.89867e+07
1.90014e+07
1.90163e+07
1.90312e+07
1.90461e+07
1.90612e+07
1.90763e+07
1.90916e+07
1.91068e+07
1.91222e+07
1.91376e+07
1.9153e+07
1.91685e+07
1.91841e+07
1.91996e+07
1.92152e+07
1.92309e+07
1.92466e+07
1.92623e+07
1.9278e+07
1.92937e+07
1.93094e+07
1.93251e+07
1.93409e+07
1.93566e+07
1.93723e+07
1.9388e+07
1.94037e+07
1.94193e+07
1.94349e+07
1.94505e+07
1.94661e+07
1.94816e+07
1.94971e+07
1.95125e+07
1.95279e+07
1.95432e+07
1.95585e+07
1.95737e+07
1.95888e+07
1.96039e+07
1.96189e+07
1.96338e+07
1.96486e+07
1.96634e+07
1.96781e+07
1.96927e+07
1.97072e+07
1.97216e+07
1.97359e+07
1.97502e+07
1.97643e+07
1.97784e+07
1.97923e+07
1.98061e+07
1.98199e+07
1.98335e+07
1.9847e+07
1.98604e+07
1.98737e+07
1.98869e+07
1.99e+07
1.9913e+07
1.99259e+07
1.99386e+07
1.99512e+07
1.99637e+07
1.99761e+07
1.99884e+07
2.00005e+07
2.00126e+07
2.00245e+07
2.00363e+07
2.0048e+07
2.00595e+07
2.0071e+07
2.00823e+07
2.00935e+07
2.01046e+07
2.01155e+07
2.01264e+07
2.01371e+07
2.01477e+07
2.01581e+07
2.01685e+07
2.01787e+07
2.01888e+07
2.01988e+07
2.02087e+07
2.02185e+07
2.02281e+07
2.02376e+07
2.0247e+07
2.02563e+07
2.02655e+07
2.02746e+07
2.02835e+07
2.02923e+07
2.0301e+07
2.03096e+07
2.03181e+07
2.03265e+07
2.03348e+07
2.03429e+07
2.0351e+07
2.03588e+07
1.82534e+07
1.8254e+07
1.82551e+07
1.82563e+07
1.82575e+07
1.82589e+07
1.82604e+07
1.8262e+07
1.82638e+07
1.82657e+07
1.82677e+07
1.82699e+07
1.82722e+07
1.82747e+07
1.82773e+07
1.82801e+07
1.8283e+07
1.8286e+07
1.82892e+07
1.82925e+07
1.8296e+07
1.82996e+07
1.83034e+07
1.83073e+07
1.83114e+07
1.83156e+07
1.83199e+07
1.83244e+07
1.83291e+07
1.83339e+07
1.83389e+07
1.8344e+07
1.83493e+07
1.83547e+07
1.83603e+07
1.8366e+07
1.83719e+07
1.8378e+07
1.83842e+07
1.83906e+07
1.83971e+07
1.84038e+07
1.84107e+07
1.84177e+07
1.84249e+07
1.84322e+07
1.84398e+07
1.84474e+07
1.84553e+07
1.84633e+07
1.84714e+07
1.84798e+07
1.84883e+07
1.84969e+07
1.85058e+07
1.85148e+07
1.85239e+07
1.85332e+07
1.85427e+07
1.85524e+07
1.85622e+07
1.85722e+07
1.85823e+07
1.85927e+07
1.86031e+07
1.86138e+07
1.86246e+07
1.86355e+07
1.86467e+07
1.8658e+07
1.86694e+07
1.8681e+07
1.86927e+07
1.87047e+07
1.87167e+07
1.87289e+07
1.87413e+07
1.87538e+07
1.87665e+07
1.87792e+07
1.87922e+07
1.88053e+07
1.88185e+07
1.88318e+07
1.88453e+07
1.88589e+07
1.88727e+07
1.88865e+07
1.89005e+07
1.89146e+07
1.89288e+07
1.89431e+07
1.89576e+07
1.89721e+07
1.89867e+07
1.90014e+07
1.90163e+07
1.90312e+07
1.90461e+07
1.90612e+07
1.90763e+07
1.90916e+07
1.91068e+07
1.91222e+07
1.91376e+07
1.9153e+07
1.91685e+07
1.91841e+07
1.91996e+07
1.92152e+07
1.92309e+07
1.92466e+07
1.92623e+07
1.9278e+07
1.92937e+07
1.93094e+07
1.93251e+07
1.93409e+07
1.93566e+07
1.93723e+07
1.9388e+07
1.94037e+07
1.94193e+07
1.94349e+07
1.94505e+07
1.94661e+07
1.94816e+07
1.94971e+07
1.95125e+07
1.95279e+07
1.95432e+07
1.95585e+07
1.95737e+07
1.95888e+07
1.96039e+07
1.96189e+07
1.96338e+07
1.96486e+07
1.96634e+07
1.96781e+07
1.96927e+07
1.97072e+07
1.97216e+07
1.97359e+07
1.97502e+07
1.97643e+07
1.97784e+07
1.97923e+07
1.98061e+07
1.98199e+07
1.98335e+07
1.9847e+07
1.98604e+07
1.98737e+07
1.98869e+07
1.99e+07
1.9913e+07
1.99259e+07
1.99386e+07
1.99512e+07
1.99637e+07
1.99761e+07
1.99884e+07
2.00005e+07
2.00126e+07
2.00245e+07
2.00363e+07
2.0048e+07
2.00595e+07
2.0071e+07
2.00823e+07
2.00935e+07
2.01046e+07
2.01155e+07
2.01264e+07
2.01371e+07
2.01477e+07
2.01581e+07
2.01685e+07
2.01787e+07
2.01888e+07
2.01988e+07
2.02087e+07
2.02185e+07
2.02281e+07
2.02376e+07
2.0247e+07
2.02563e+07
2.02655e+07
2.02746e+07
2.02835e+07
2.02923e+07
2.0301e+07
2.03096e+07
2.03181e+07
2.03265e+07
2.03348e+07
2.03429e+07
2.0351e+07
2.03588e+07
1.82534e+07
1.8254e+07
1.82551e+07
1.82563e+07
1.82575e+07
1.82589e+07
1.82604e+07
1.8262e+07
1.82638e+07
1.82657e+07
1.82677e+07
1.82699e+07
1.82722e+07
1.82747e+07
1.82773e+07
1.82801e+07
1.8283e+07
1.8286e+07
1.82892e+07
1.82925e+07
1.8296e+07
1.82996e+07
1.83034e+07
1.83073e+07
1.83114e+07
1.83156e+07
1.83199e+07
1.83244e+07
1.83291e+07
1.83339e+07
1.83389e+07
1.8344e+07
1.83493e+07
1.83547e+07
1.83603e+07
1.8366e+07
1.83719e+07
1.8378e+07
1.83842e+07
1.83906e+07
1.83971e+07
1.84038e+07
1.84107e+07
1.84177e+07
1.84249e+07
1.84322e+07
1.84398e+07
1.84474e+07
1.84553e+07
1.84633e+07
1.84714e+07
1.84798e+07
1.84883e+07
1.84969e+07
1.85058e+07
1.85148e+07
1.85239e+07
1.85332e+07
1.85427e+07
1.85524e+07
1.85622e+07
1.85722e+07
1.85823e+07
1.85927e+07
1.86031e+07
1.86138e+07
1.86246e+07
1.86355e+07
1.86467e+07
1.8658e+07
1.86694e+07
1.8681e+07
1.86927e+07
1.87047e+07
1.87167e+07
1.87289e+07
1.87413e+07
1.87538e+07
1.87665e+07
1.87792e+07
1.87922e+07
1.88053e+07
1.88185e+07
1.88318e+07
1.88453e+07
1.88589e+07
1.88727e+07
1.88865e+07
1.89005e+07
1.89146e+07
1.89288e+07
1.89431e+07
1.89576e+07
1.89721e+07
1.89867e+07
1.90014e+07
1.90163e+07
1.90312e+07
1.90461e+07
1.90612e+07
1.90763e+07
1.90916e+07
1.91068e+07
1.91222e+07
1.91376e+07
1.9153e+07
1.91685e+07
1.91841e+07
1.91996e+07
1.92152e+07
1.92309e+07
1.92466e+07
1.92623e+07
1.9278e+07
1.92937e+07
1.93094e+07
1.93251e+07
1.93409e+07
1.93566e+07
1.93723e+07
1.9388e+07
1.94037e+07
1.94193e+07
1.94349e+07
1.94505e+07
1.94661e+07
1.94816e+07
1.94971e+07
1.95125e+07
1.95279e+07
1.95432e+07
1.95585e+07
1.95737e+07
1.95888e+07
1.96039e+07
1.96189e+07
1.96338e+07
1.96486e+07
1.96634e+07
1.96781e+07
1.96927e+07
1.97072e+07
1.97216e+07
1.97359e+07
1.97502e+07
1.97643e+07
1.97784e+07
1.97923e+07
1.98061e+07
1.98199e+07
1.98335e+07
1.9847e+07
1.98604e+07
1.98737e+07
1.98869e+07
1.99e+07
1.9913e+07
1.99259e+07
1.99386e+07
1.99512e+07
1.99637e+07
1.99761e+07
1.99884e+07
2.00005e+07
2.00126e+07
2.00245e+07
2.00363e+07
2.0048e+07
2.00595e+07
2.0071e+07
2.00823e+07
2.00935e+07
2.01046e+07
2.01155e+07
2.01264e+07
2.01371e+07
2.01477e+07
2.01581e+07
2.01685e+07
2.01787e+07
2.01888e+07
2.01988e+07
2.02087e+07
2.02185e+07
2.02281e+07
2.02376e+07
2.0247e+07
2.02563e+07
2.02655e+07
2.02746e+07
2.02835e+07
2.02923e+07
2.0301e+07
2.03096e+07
2.03181e+07
2.03265e+07
2.03348e+07
2.03429e+07
2.0351e+07
2.03588e+07
1.82534e+07
1.8254e+07
1.82551e+07
1.82563e+07
1.82575e+07
1.82589e+07
1.82604e+07
1.8262e+07
1.82638e+07
1.82657e+07
1.82677e+07
1.82699e+07
1.82722e+07
1.82747e+07
1.82773e+07
1.82801e+07
1.8283e+07
1.8286e+07
1.82892e+07
1.82925e+07
1.8296e+07
1.82996e+07
1.83034e+07
1.83073e+07
1.83114e+07
1.83156e+07
1.83199e+07
1.83244e+07
1.83291e+07
1.83339e+07
1.83389e+07
1.8344e+07
1.83493e+07
1.83547e+07
1.83603e+07
1.8366e+07
1.83719e+07
1.8378e+07
1.83842e+07
1.83906e+07
1.83971e+07
1.84038e+07
1.84107e+07
1.84177e+07
1.84249e+07
1.84322e+07
1.84398e+07
1.84474e+07
1.84553e+07
1.84633e+07
1.84714e+07
1.84798e+07
1.84883e+07
1.84969e+07
1.85058e+07
1.85148e+07
1.85239e+07
1.85332e+07
1.85427e+07
1.85524e+07
1.85622e+07
1.85722e+07
1.85823e+07
1.85927e+07
1.86031e+07
1.86138e+07
1.86246e+07
1.86355e+07
1.86467e+07
1.8658e+07
1.86694e+07
1.8681e+07
1.86927e+07
1.87047e+07
1.87167e+07
1.87289e+07
1.87413e+07
1.87538e+07
1.87665e+07
1.87792e+07
1.87922e+07
1.88053e+07
1.88185e+07
1.88318e+07
1.88453e+07
1.88589e+07
1.88727e+07
1.88865e+07
1.89005e+07
1.89146e+07
1.89288e+07
1.89431e+07
1.89576e+07
1.89721e+07
1.89867e+07
1.90014e+07
1.90163e+07
1.90312e+07
1.90461e+07
1.90612e+07
1.90763e+07
1.90916e+07
1.91068e+07
1.91222e+07
1.91376e+07
1.9153e+07
1.91685e+07
1.91841e+07
1.91996e+07
1.92152e+07
1.92309e+07
1.92466e+07
1.92623e+07
1.9278e+07
1.92937e+07
1.93094e+07
1.93251e+07
1.93409e+07
1.93566e+07
1.93723e+07
1.9388e+07
1.94037e+07
1.94193e+07
1.94349e+07
1.94505e+07
1.94661e+07
1.94816e+07
1.94971e+07
1.95125e+07
1.95279e+07
1.95432e+07
1.95585e+07
1.95737e+07
1.95888e+07
1.96039e+07
1.96189e+07
1.96338e+07
1.96486e+07
1.96634e+07
1.96781e+07
1.96927e+07
1.97072e+07
1.97216e+07
1.97359e+07
1.97502e+07
1.97643e+07
1.97784e+07
1.97923e+07
1.98061e+07
1.98199e+07
1.98335e+07
1.9847e+07
1.98604e+07
1.98737e+07
1.98869e+07
1.99e+07
1.9913e+07
1.99259e+07
1.99386e+07
1.99512e+07
1.99637e+07
1.99761e+07
1.99884e+07
2.00005e+07
2.00126e+07
2.00245e+07
2.00363e+07
2.0048e+07
2.00595e+07
2.0071e+07
2.00823e+07
2.00935e+07
2.01046e+07
2.01155e+07
2.01264e+07
2.01371e+07
2.01477e+07
2.01581e+07
2.01685e+07
2.01787e+07
2.01888e+07
2.01988e+07
2.02087e+07
2.02185e+07
2.02281e+07
2.02376e+07
2.0247e+07
2.02563e+07
2.02655e+07
2.02746e+07
2.02835e+07
2.02923e+07
2.0301e+07
2.03096e+07
2.03181e+07
2.03265e+07
2.03348e+07
2.03429e+07
2.0351e+07
2.03589e+07
1.82534e+07
1.8254e+07
1.82551e+07
1.82563e+07
1.82575e+07
1.82589e+07
1.82604e+07
1.8262e+07
1.82638e+07
1.82657e+07
1.82677e+07
1.82699e+07
1.82722e+07
1.82747e+07
1.82773e+07
1.82801e+07
1.8283e+07
1.8286e+07
1.82892e+07
1.82925e+07
1.8296e+07
1.82996e+07
1.83034e+07
1.83073e+07
1.83114e+07
1.83156e+07
1.83199e+07
1.83244e+07
1.83291e+07
1.83339e+07
1.83389e+07
1.8344e+07
1.83493e+07
1.83547e+07
1.83603e+07
1.8366e+07
1.83719e+07
1.8378e+07
1.83842e+07
1.83906e+07
1.83971e+07
1.84038e+07
1.84107e+07
1.84177e+07
1.84249e+07
1.84322e+07
1.84398e+07
1.84474e+07
1.84553e+07
1.84633e+07
1.84714e+07
1.84798e+07
1.84883e+07
1.84969e+07
1.85058e+07
1.85148e+07
1.85239e+07
1.85332e+07
1.85427e+07
1.85524e+07
1.85622e+07
1.85722e+07
1.85823e+07
1.85927e+07
1.86031e+07
1.86138e+07
1.86246e+07
1.86355e+07
1.86467e+07
1.8658e+07
1.86694e+07
1.8681e+07
1.86927e+07
1.87047e+07
1.87167e+07
1.87289e+07
1.87413e+07
1.87538e+07
1.87665e+07
1.87792e+07
1.87922e+07
1.88053e+07
1.88185e+07
1.88318e+07
1.88453e+07
1.88589e+07
1.88727e+07
1.88865e+07
1.89005e+07
1.89146e+07
1.89288e+07
1.89431e+07
1.89576e+07
1.89721e+07
1.89867e+07
1.90014e+07
1.90163e+07
1.90312e+07
1.90461e+07
1.90612e+07
1.90763e+07
1.90916e+07
1.91068e+07
1.91222e+07
1.91376e+07
1.9153e+07
1.91685e+07
1.91841e+07
1.91996e+07
1.92152e+07
1.92309e+07
1.92466e+07
1.92623e+07
1.9278e+07
1.92937e+07
1.93094e+07
1.93251e+07
1.93409e+07
1.93566e+07
1.93723e+07
1.9388e+07
1.94037e+07
1.94193e+07
1.94349e+07
1.94505e+07
1.94661e+07
1.94816e+07
1.94971e+07
1.95125e+07
1.95279e+07
1.95432e+07
1.95585e+07
1.95737e+07
1.95888e+07
1.96039e+07
1.96189e+07
1.96338e+07
1.96486e+07
1.96634e+07
1.96781e+07
1.96927e+07
1.97072e+07
1.97216e+07
1.97359e+07
1.97502e+07
1.97643e+07
1.97784e+07
1.97923e+07
1.98061e+07
1.98199e+07
1.98335e+07
1.9847e+07
1.98604e+07
1.98737e+07
1.98869e+07
1.99e+07
1.9913e+07
1.99259e+07
1.99386e+07
1.99512e+07
1.99637e+07
1.99761e+07
1.99884e+07
2.00005e+07
2.00126e+07
2.00245e+07
2.00363e+07
2.0048e+07
2.00595e+07
2.0071e+07
2.00823e+07
2.00935e+07
2.01046e+07
2.01155e+07
2.01264e+07
2.01371e+07
2.01477e+07
2.01581e+07
2.01685e+07
2.01787e+07
2.01888e+07
2.01988e+07
2.02087e+07
2.02185e+07
2.02281e+07
2.02376e+07
2.0247e+07
2.02563e+07
2.02655e+07
2.02746e+07
2.02835e+07
2.02923e+07
2.0301e+07
2.03096e+07
2.03181e+07
2.03265e+07
2.03348e+07
2.03429e+07
2.0351e+07
2.03589e+07
1.82534e+07
1.8254e+07
1.82551e+07
1.82563e+07
1.82575e+07
1.82589e+07
1.82604e+07
1.8262e+07
1.82638e+07
1.82657e+07
1.82677e+07
1.82699e+07
1.82722e+07
1.82747e+07
1.82773e+07
1.82801e+07
1.8283e+07
1.8286e+07
1.82892e+07
1.82925e+07
1.8296e+07
1.82996e+07
1.83034e+07
1.83073e+07
1.83114e+07
1.83156e+07
1.83199e+07
1.83244e+07
1.83291e+07
1.83339e+07
1.83389e+07
1.8344e+07
1.83493e+07
1.83547e+07
1.83603e+07
1.8366e+07
1.83719e+07
1.8378e+07
1.83842e+07
1.83906e+07
1.83971e+07
1.84038e+07
1.84107e+07
1.84177e+07
1.84249e+07
1.84322e+07
1.84398e+07
1.84474e+07
1.84553e+07
1.84633e+07
1.84714e+07
1.84798e+07
1.84883e+07
1.84969e+07
1.85058e+07
1.85148e+07
1.85239e+07
1.85332e+07
1.85427e+07
1.85524e+07
1.85622e+07
1.85722e+07
1.85823e+07
1.85927e+07
1.86031e+07
1.86138e+07
1.86246e+07
1.86355e+07
1.86467e+07
1.8658e+07
1.86694e+07
1.8681e+07
1.86927e+07
1.87047e+07
1.87167e+07
1.87289e+07
1.87413e+07
1.87538e+07
1.87665e+07
1.87792e+07
1.87922e+07
1.88053e+07
1.88185e+07
1.88318e+07
1.88453e+07
1.88589e+07
1.88727e+07
1.88865e+07
1.89005e+07
1.89146e+07
1.89288e+07
1.89431e+07
1.89576e+07
1.89721e+07
1.89867e+07
1.90014e+07
1.90163e+07
1.90312e+07
1.90461e+07
1.90612e+07
1.90763e+07
1.90916e+07
1.91068e+07
1.91222e+07
1.91376e+07
1.9153e+07
1.91685e+07
1.91841e+07
1.91996e+07
1.92152e+07
1.92309e+07
1.92466e+07
1.92623e+07
1.9278e+07
1.92937e+07
1.93094e+07
1.93251e+07
1.93409e+07
1.93566e+07
1.93723e+07
1.9388e+07
1.94037e+07
1.94193e+07
1.94349e+07
1.94505e+07
1.94661e+07
1.94816e+07
1.94971e+07
1.95125e+07
1.95279e+07
1.95432e+07
1.95585e+07
1.95737e+07
1.95888e+07
1.96039e+07
1.96189e+07
1.96338e+07
1.96486e+07
1.96634e+07
1.96781e+07
1.96927e+07
1.97072e+07
1.97216e+07
1.97359e+07
1.97502e+07
1.97643e+07
1.97784e+07
1.97923e+07
1.98061e+07
1.98199e+07
1.98335e+07
1.9847e+07
1.98604e+07
1.98737e+07
1.98869e+07
1.99e+07
1.9913e+07
1.99259e+07
1.99386e+07
1.99512e+07
1.99637e+07
1.99761e+07
1.99884e+07
2.00005e+07
2.00126e+07
2.00245e+07
2.00363e+07
2.0048e+07
2.00595e+07
2.0071e+07
2.00823e+07
2.00935e+07
2.01046e+07
2.01155e+07
2.01264e+07
2.01371e+07
2.01477e+07
2.01581e+07
2.01685e+07
2.01787e+07
2.01888e+07
2.01988e+07
2.02087e+07
2.02185e+07
2.02281e+07
2.02376e+07
2.0247e+07
2.02563e+07
2.02655e+07
2.02746e+07
2.02835e+07
2.02923e+07
2.0301e+07
2.03096e+07
2.03181e+07
2.03265e+07
2.03348e+07
2.03429e+07
2.03509e+07
2.0359e+07
1.82534e+07
1.8254e+07
1.82551e+07
1.82563e+07
1.82575e+07
1.82589e+07
1.82604e+07
1.8262e+07
1.82638e+07
1.82657e+07
1.82677e+07
1.82699e+07
1.82722e+07
1.82747e+07
1.82773e+07
1.82801e+07
1.8283e+07
1.8286e+07
1.82892e+07
1.82925e+07
1.8296e+07
1.82996e+07
1.83034e+07
1.83073e+07
1.83114e+07
1.83156e+07
1.83199e+07
1.83244e+07
1.83291e+07
1.83339e+07
1.83389e+07
1.8344e+07
1.83493e+07
1.83547e+07
1.83603e+07
1.8366e+07
1.83719e+07
1.8378e+07
1.83842e+07
1.83906e+07
1.83971e+07
1.84038e+07
1.84107e+07
1.84177e+07
1.84249e+07
1.84322e+07
1.84398e+07
1.84474e+07
1.84553e+07
1.84633e+07
1.84714e+07
1.84798e+07
1.84883e+07
1.84969e+07
1.85058e+07
1.85148e+07
1.85239e+07
1.85332e+07
1.85427e+07
1.85524e+07
1.85622e+07
1.85722e+07
1.85823e+07
1.85927e+07
1.86031e+07
1.86138e+07
1.86246e+07
1.86355e+07
1.86467e+07
1.8658e+07
1.86694e+07
1.8681e+07
1.86927e+07
1.87047e+07
1.87167e+07
1.87289e+07
1.87413e+07
1.87538e+07
1.87665e+07
1.87792e+07
1.87922e+07
1.88053e+07
1.88185e+07
1.88318e+07
1.88453e+07
1.88589e+07
1.88727e+07
1.88865e+07
1.89005e+07
1.89146e+07
1.89288e+07
1.89431e+07
1.89576e+07
1.89721e+07
1.89867e+07
1.90014e+07
1.90163e+07
1.90312e+07
1.90461e+07
1.90612e+07
1.90763e+07
1.90916e+07
1.91068e+07
1.91222e+07
1.91376e+07
1.9153e+07
1.91685e+07
1.91841e+07
1.91996e+07
1.92152e+07
1.92309e+07
1.92466e+07
1.92623e+07
1.9278e+07
1.92937e+07
1.93094e+07
1.93251e+07
1.93409e+07
1.93566e+07
1.93723e+07
1.9388e+07
1.94037e+07
1.94193e+07
1.94349e+07
1.94505e+07
1.94661e+07
1.94816e+07
1.94971e+07
1.95125e+07
1.95279e+07
1.95432e+07
1.95585e+07
1.95737e+07
1.95888e+07
1.96039e+07
1.96189e+07
1.96338e+07
1.96486e+07
1.96634e+07
1.96781e+07
1.96927e+07
1.97072e+07
1.97216e+07
1.97359e+07
1.97502e+07
1.97643e+07
1.97784e+07
1.97923e+07
1.98061e+07
1.98199e+07
1.98335e+07
1.9847e+07
1.98604e+07
1.98737e+07
1.98869e+07
1.99e+07
1.9913e+07
1.99259e+07
1.99386e+07
1.99512e+07
1.99637e+07
1.99761e+07
1.99884e+07
2.00005e+07
2.00126e+07
2.00245e+07
2.00363e+07
2.0048e+07
2.00595e+07
2.0071e+07
2.00823e+07
2.00935e+07
2.01046e+07
2.01155e+07
2.01264e+07
2.01371e+07
2.01477e+07
2.01581e+07
2.01685e+07
2.01787e+07
2.01888e+07
2.01988e+07
2.02087e+07
2.02185e+07
2.02281e+07
2.02376e+07
2.0247e+07
2.02563e+07
2.02655e+07
2.02746e+07
2.02835e+07
2.02923e+07
2.0301e+07
2.03096e+07
2.03181e+07
2.03265e+07
2.03348e+07
2.03429e+07
2.03509e+07
2.0359e+07
1.82534e+07
1.8254e+07
1.82551e+07
1.82563e+07
1.82575e+07
1.82589e+07
1.82604e+07
1.8262e+07
1.82638e+07
1.82657e+07
1.82677e+07
1.82699e+07
1.82722e+07
1.82747e+07
1.82773e+07
1.82801e+07
1.8283e+07
1.8286e+07
1.82892e+07
1.82925e+07
1.8296e+07
1.82996e+07
1.83034e+07
1.83073e+07
1.83114e+07
1.83156e+07
1.83199e+07
1.83244e+07
1.83291e+07
1.83339e+07
1.83389e+07
1.8344e+07
1.83493e+07
1.83547e+07
1.83603e+07
1.8366e+07
1.83719e+07
1.8378e+07
1.83842e+07
1.83906e+07
1.83971e+07
1.84038e+07
1.84107e+07
1.84177e+07
1.84249e+07
1.84322e+07
1.84398e+07
1.84474e+07
1.84553e+07
1.84633e+07
1.84714e+07
1.84798e+07
1.84883e+07
1.84969e+07
1.85058e+07
1.85148e+07
1.85239e+07
1.85332e+07
1.85427e+07
1.85524e+07
1.85622e+07
1.85722e+07
1.85823e+07
1.85927e+07
1.86031e+07
1.86138e+07
1.86246e+07
1.86355e+07
1.86467e+07
1.8658e+07
1.86694e+07
1.8681e+07
1.86927e+07
1.87047e+07
1.87167e+07
1.87289e+07
1.87413e+07
1.87538e+07
1.87665e+07
1.87792e+07
1.87922e+07
1.88053e+07
1.88185e+07
1.88318e+07
1.88453e+07
1.88589e+07
1.88727e+07
1.88865e+07
1.89005e+07
1.89146e+07
1.89288e+07
1.89431e+07
1.89576e+07
1.89721e+07
1.89867e+07
1.90014e+07
1.90163e+07
1.90312e+07
1.90461e+07
1.90612e+07
1.90763e+07
1.90916e+07
1.91068e+07
1.91222e+07
1.91376e+07
1.9153e+07
1.91685e+07
1.91841e+07
1.91996e+07
1.92152e+07
1.92309e+07
1.92466e+07
1.92623e+07
1.9278e+07
1.92937e+07
1.93094e+07
1.93251e+07
1.93409e+07
1.93566e+07
1.93723e+07
1.9388e+07
1.94037e+07
1.94193e+07
1.94349e+07
1.94505e+07
1.94661e+07
1.94816e+07
1.94971e+07
1.95125e+07
1.95279e+07
1.95432e+07
1.95585e+07
1.95737e+07
1.95888e+07
1.96039e+07
1.96189e+07
1.96338e+07
1.96486e+07
1.96634e+07
1.96781e+07
1.96927e+07
1.97072e+07
1.97216e+07
1.97359e+07
1.97502e+07
1.97643e+07
1.97784e+07
1.97923e+07
1.98061e+07
1.98199e+07
1.98335e+07
1.9847e+07
1.98604e+07
1.98737e+07
1.98869e+07
1.99e+07
1.9913e+07
1.99259e+07
1.99386e+07
1.99512e+07
1.99637e+07
1.99761e+07
1.99884e+07
2.00005e+07
2.00126e+07
2.00245e+07
2.00363e+07
2.0048e+07
2.00595e+07
2.0071e+07
2.00823e+07
2.00935e+07
2.01046e+07
2.01155e+07
2.01264e+07
2.01371e+07
2.01477e+07
2.01581e+07
2.01685e+07
2.01787e+07
2.01888e+07
2.01988e+07
2.02087e+07
2.02185e+07
2.02281e+07
2.02376e+07
2.0247e+07
2.02563e+07
2.02655e+07
2.02746e+07
2.02835e+07
2.02923e+07
2.0301e+07
2.03096e+07
2.03181e+07
2.03265e+07
2.03348e+07
2.03429e+07
2.03509e+07
2.0359e+07
1.82534e+07
1.8254e+07
1.82551e+07
1.82563e+07
1.82575e+07
1.82589e+07
1.82604e+07
1.8262e+07
1.82638e+07
1.82657e+07
1.82677e+07
1.82699e+07
1.82722e+07
1.82747e+07
1.82773e+07
1.82801e+07
1.8283e+07
1.8286e+07
1.82892e+07
1.82925e+07
1.8296e+07
1.82996e+07
1.83034e+07
1.83073e+07
1.83114e+07
1.83156e+07
1.83199e+07
1.83244e+07
1.83291e+07
1.83339e+07
1.83389e+07
1.8344e+07
1.83493e+07
1.83547e+07
1.83603e+07
1.8366e+07
1.83719e+07
1.8378e+07
1.83842e+07
1.83906e+07
1.83971e+07
1.84038e+07
1.84107e+07
1.84177e+07
1.84249e+07
1.84322e+07
1.84398e+07
1.84474e+07
1.84553e+07
1.84633e+07
1.84714e+07
1.84798e+07
1.84883e+07
1.84969e+07
1.85058e+07
1.85148e+07
1.85239e+07
1.85332e+07
1.85427e+07
1.85524e+07
1.85622e+07
1.85722e+07
1.85823e+07
1.85927e+07
1.86031e+07
1.86138e+07
1.86246e+07
1.86355e+07
1.86467e+07
1.8658e+07
1.86694e+07
1.8681e+07
1.86927e+07
1.87047e+07
1.87167e+07
1.87289e+07
1.87413e+07
1.87538e+07
1.87665e+07
1.87792e+07
1.87922e+07
1.88053e+07
1.88185e+07
1.88318e+07
1.88453e+07
1.88589e+07
1.88727e+07
1.88865e+07
1.89005e+07
1.89146e+07
1.89288e+07
1.89431e+07
1.89576e+07
1.89721e+07
1.89867e+07
1.90014e+07
1.90163e+07
1.90312e+07
1.90461e+07
1.90612e+07
1.90763e+07
1.90916e+07
1.91068e+07
1.91222e+07
1.91376e+07
1.9153e+07
1.91685e+07
1.91841e+07
1.91996e+07
1.92152e+07
1.92309e+07
1.92466e+07
1.92623e+07
1.9278e+07
1.92937e+07
1.93094e+07
1.93251e+07
1.93409e+07
1.93566e+07
1.93723e+07
1.9388e+07
1.94037e+07
1.94193e+07
1.94349e+07
1.94505e+07
1.94661e+07
1.94816e+07
1.94971e+07
1.95125e+07
1.95279e+07
1.95432e+07
1.95585e+07
1.95737e+07
1.95888e+07
1.96039e+07
1.96189e+07
1.96338e+07
1.96486e+07
1.96634e+07
1.96781e+07
1.96927e+07
1.97072e+07
1.97216e+07
1.97359e+07
1.97502e+07
1.97643e+07
1.97784e+07
1.97923e+07
1.98061e+07
1.98199e+07
1.98335e+07
1.9847e+07
1.98604e+07
1.98737e+07
1.98869e+07
1.99e+07
1.9913e+07
1.99259e+07
1.99386e+07
1.99512e+07
1.99637e+07
1.99761e+07
1.99884e+07
2.00005e+07
2.00126e+07
2.00245e+07
2.00363e+07
2.0048e+07
2.00595e+07
2.0071e+07
2.00823e+07
2.00935e+07
2.01046e+07
2.01155e+07
2.01264e+07
2.01371e+07
2.01477e+07
2.01581e+07
2.01685e+07
2.01787e+07
2.01888e+07
2.01988e+07
2.02087e+07
2.02185e+07
2.02281e+07
2.02376e+07
2.0247e+07
2.02563e+07
2.02655e+07
2.02746e+07
2.02835e+07
2.02923e+07
2.0301e+07
2.03096e+07
2.03181e+07
2.03265e+07
2.03348e+07
2.03429e+07
2.03509e+07
2.0359e+07
2.03638e+07
2.03657e+07
2.03673e+07
2.03688e+07
2.03703e+07
2.03718e+07
2.03733e+07
2.03747e+07
2.03762e+07
2.03776e+07
2.0379e+07
2.03804e+07
2.03819e+07
2.03832e+07
2.03846e+07
2.0386e+07
2.03873e+07
2.03887e+07
2.039e+07
2.03914e+07
2.03638e+07
2.03656e+07
2.03673e+07
2.03688e+07
2.03703e+07
2.03717e+07
2.03732e+07
2.03746e+07
2.03761e+07
2.03775e+07
2.0379e+07
2.03804e+07
2.03818e+07
2.03832e+07
2.03846e+07
2.03859e+07
2.03873e+07
2.03886e+07
2.039e+07
2.03913e+07
2.03638e+07
2.03657e+07
2.03673e+07
2.03688e+07
2.03702e+07
2.03717e+07
2.03732e+07
2.03746e+07
2.03761e+07
2.03775e+07
2.03789e+07
2.03804e+07
2.03818e+07
2.03832e+07
2.03845e+07
2.03859e+07
2.03872e+07
2.03886e+07
2.03899e+07
2.03913e+07
2.03635e+07
2.03652e+07
2.03668e+07
2.03683e+07
2.03698e+07
2.03713e+07
2.03728e+07
2.03742e+07
2.03757e+07
2.03771e+07
2.03785e+07
2.03799e+07
2.03813e+07
2.03827e+07
2.0384e+07
2.03854e+07
2.03867e+07
2.0388e+07
2.03893e+07
2.03906e+07
2.03638e+07
2.03655e+07
2.03671e+07
2.03686e+07
2.037e+07
2.03714e+07
2.03728e+07
2.03742e+07
2.03756e+07
2.0377e+07
2.03784e+07
2.03798e+07
2.03812e+07
2.03826e+07
2.03839e+07
2.03853e+07
2.03867e+07
2.0388e+07
2.03894e+07
2.03907e+07
2.03631e+07
2.03644e+07
2.03656e+07
2.0367e+07
2.03684e+07
2.03698e+07
2.03713e+07
2.03727e+07
2.03742e+07
2.03756e+07
2.0377e+07
2.03784e+07
2.03798e+07
2.03812e+07
2.03826e+07
2.03839e+07
2.03853e+07
2.03866e+07
2.03879e+07
2.03893e+07
2.03635e+07
2.03648e+07
2.03662e+07
2.03676e+07
2.0369e+07
2.03703e+07
2.03716e+07
2.03729e+07
2.03742e+07
2.03756e+07
2.03769e+07
2.03783e+07
2.03796e+07
2.03809e+07
2.03823e+07
2.03837e+07
2.03851e+07
2.03865e+07
2.03879e+07
2.03892e+07
2.03625e+07
2.03632e+07
2.0364e+07
2.0365e+07
2.03663e+07
2.03676e+07
2.0369e+07
2.03704e+07
2.03718e+07
2.03733e+07
2.03747e+07
2.03762e+07
2.03776e+07
2.03791e+07
2.03806e+07
2.03822e+07
2.03837e+07
2.03852e+07
2.03868e+07
2.03883e+07
2.03623e+07
2.03631e+07
2.0364e+07
2.03652e+07
2.03664e+07
2.03677e+07
2.03691e+07
2.03705e+07
2.03718e+07
2.03733e+07
2.03747e+07
2.03761e+07
2.03776e+07
2.03791e+07
2.03806e+07
2.03821e+07
2.03836e+07
2.03852e+07
2.03867e+07
2.03882e+07
2.03621e+07
2.03625e+07
2.03633e+07
2.03644e+07
2.03656e+07
2.03669e+07
2.03683e+07
2.03697e+07
2.03711e+07
2.03725e+07
2.0374e+07
2.03754e+07
2.03769e+07
2.03785e+07
2.038e+07
2.03815e+07
2.03831e+07
2.03847e+07
2.03863e+07
2.03879e+07
2.03941e+07
2.03993e+07
2.04047e+07
2.04101e+07
2.04154e+07
2.04207e+07
2.04259e+07
2.04311e+07
2.04363e+07
2.04414e+07
2.04464e+07
2.04514e+07
2.04564e+07
2.04613e+07
2.04661e+07
2.04709e+07
2.04756e+07
2.04803e+07
2.04849e+07
2.04895e+07
2.0494e+07
2.04985e+07
2.05029e+07
2.05073e+07
2.05116e+07
2.05158e+07
2.052e+07
2.05242e+07
2.05283e+07
2.05323e+07
2.05363e+07
2.05402e+07
2.0544e+07
2.05479e+07
2.05516e+07
2.05553e+07
2.0559e+07
2.05626e+07
2.05661e+07
2.05696e+07
2.05731e+07
2.05764e+07
2.05798e+07
2.05831e+07
2.05863e+07
2.05895e+07
2.05926e+07
2.05957e+07
2.05988e+07
2.06017e+07
2.06047e+07
2.06076e+07
2.06104e+07
2.06132e+07
2.0616e+07
2.06187e+07
2.06213e+07
2.06239e+07
2.06265e+07
2.0629e+07
2.06315e+07
2.06339e+07
2.06363e+07
2.06386e+07
2.06409e+07
2.06432e+07
2.06454e+07
2.06476e+07
2.06497e+07
2.06518e+07
2.06538e+07
2.06559e+07
2.06578e+07
2.06598e+07
2.06617e+07
2.06635e+07
2.06653e+07
2.06671e+07
2.06688e+07
2.06705e+07
2.06722e+07
2.06738e+07
2.06754e+07
2.0677e+07
2.06785e+07
2.068e+07
2.06814e+07
2.06828e+07
2.06842e+07
2.06856e+07
2.06869e+07
2.06881e+07
2.06894e+07
2.06906e+07
2.06918e+07
2.0693e+07
2.06941e+07
2.06952e+07
2.06962e+07
2.06973e+07
2.06983e+07
2.06992e+07
2.07002e+07
2.07011e+07
2.0702e+07
2.07029e+07
2.07037e+07
2.07045e+07
2.07053e+07
2.07061e+07
2.07069e+07
2.07076e+07
2.07083e+07
2.0709e+07
2.07097e+07
2.07103e+07
2.07109e+07
2.07116e+07
2.07122e+07
2.07127e+07
2.07133e+07
2.07138e+07
2.07144e+07
2.07149e+07
2.07154e+07
2.07159e+07
2.07163e+07
2.07168e+07
2.07172e+07
2.07177e+07
2.07181e+07
2.07185e+07
2.07189e+07
2.07192e+07
2.07196e+07
2.07199e+07
2.07203e+07
2.07206e+07
2.07209e+07
2.07212e+07
2.07215e+07
2.07217e+07
2.0722e+07
2.07222e+07
2.07225e+07
2.07227e+07
2.07229e+07
2.07231e+07
2.07233e+07
2.07235e+07
2.07236e+07
2.07238e+07
2.07239e+07
2.0724e+07
2.07242e+07
2.07243e+07
2.07244e+07
2.07245e+07
2.07246e+07
2.07247e+07
2.07248e+07
2.07248e+07
2.07249e+07
2.07249e+07
2.0725e+07
2.0725e+07
2.07251e+07
2.07251e+07
2.07251e+07
2.07251e+07
2.07251e+07
2.07251e+07
2.07251e+07
2.07251e+07
2.0725e+07
2.0725e+07
2.07249e+07
2.07248e+07
2.07248e+07
2.07247e+07
2.07246e+07
2.07245e+07
2.07244e+07
2.07242e+07
2.07241e+07
2.0724e+07
2.07239e+07
2.07238e+07
2.07236e+07
2.07235e+07
2.07234e+07
2.07232e+07
2.07231e+07
2.0723e+07
2.07229e+07
2.07227e+07
2.07226e+07
2.07225e+07
2.07223e+07
2.07222e+07
2.0394e+07
2.03993e+07
2.04047e+07
2.04101e+07
2.04154e+07
2.04207e+07
2.04259e+07
2.04311e+07
2.04363e+07
2.04414e+07
2.04464e+07
2.04514e+07
2.04564e+07
2.04613e+07
2.04661e+07
2.04709e+07
2.04756e+07
2.04803e+07
2.04849e+07
2.04895e+07
2.0494e+07
2.04985e+07
2.05029e+07
2.05073e+07
2.05116e+07
2.05158e+07
2.052e+07
2.05242e+07
2.05283e+07
2.05323e+07
2.05363e+07
2.05402e+07
2.0544e+07
2.05479e+07
2.05516e+07
2.05553e+07
2.0559e+07
2.05626e+07
2.05661e+07
2.05696e+07
2.05731e+07
2.05764e+07
2.05798e+07
2.05831e+07
2.05863e+07
2.05895e+07
2.05926e+07
2.05957e+07
2.05987e+07
2.06017e+07
2.06047e+07