/*--------------------------------*- C++ -*----------------------------------*\
| =========                 |                                                 |
| \\      /  F ield         | OpenFOAM: The Open Source CFD Toolbox           |
|  \\    /   O peration     | Version:  3.0.x                                 |
|   \\  /    A nd           | Web:      www.OpenFOAM.org                      |
|    \\/     M anipulation  |                                                 |
\*---------------------------------------------------------------------------*/
FoamFile
{
    version     2.0;
    format      ascii;
    class       volScalarField;
    location    "0.54";
    object      rho;
}
// * * * * * * * * * * * * * * * * * * * * * * * * * * * * * * * * * * * * * //

dimensions      [1 -3 0 0 0 0 0];

internalField   nonuniform List<scalar> 
13800
(
51.0491
51.0515
51.0553
51.0591
51.0627
51.0664
51.0704
51.0746
51.0789
51.0835
51.0883
51.0935
51.0989
51.1047
51.1108
51.1172
51.124
51.131
51.1385
51.1462
51.1543
51.1627
51.1715
51.1806
51.1901
51.1999
51.2101
51.2206
51.2314
51.2427
51.2542
51.2662
51.2784
51.2911
51.3041
51.3175
51.3312
51.3453
51.3598
51.3746
51.3899
51.4055
51.4214
51.4378
51.4545
51.4716
51.489
51.5069
51.5251
51.5437
51.5627
51.5821
51.6018
51.622
51.6425
51.6634
51.6847
51.7064
51.7284
51.7509
51.7737
51.7969
51.8205
51.8445
51.8688
51.8935
51.9186
51.9441
51.9699
51.9961
52.0226
52.0496
52.0768
52.1045
52.1325
52.1608
52.1895
52.2185
52.2478
52.2775
52.3074
52.3377
52.3683
52.3992
52.4305
52.4621
52.494
52.5262
52.5587
52.5914
52.6244
52.6576
52.6911
52.7247
52.7586
52.7927
52.827
52.8615
52.8961
52.931
52.9659
53.0011
53.0364
53.0718
53.1075
53.1432
53.1791
53.2151
53.2511
53.2872
53.3233
53.3596
53.3958
53.4322
53.4685
53.5049
53.5413
53.5777
53.6141
53.6504
53.6867
53.7229
53.7591
53.7951
53.8311
53.867
53.9027
53.9384
53.9739
54.0093
54.0445
54.0796
54.1146
54.1495
54.1842
54.2188
54.2533
54.2876
54.3216
54.3555
54.3892
54.4226
54.4558
54.4888
54.5216
54.5541
54.5864
54.6185
54.6503
54.6819
54.7132
54.7443
54.7751
54.8057
54.836
54.866
54.8958
54.9253
54.9546
54.9836
55.0123
55.0407
55.0689
55.0968
55.1244
55.1518
55.1788
55.2056
55.2321
55.2583
55.2843
55.31
55.3354
55.3604
55.3854
55.4098
55.4343
55.458
55.4821
55.5051
55.5288
55.5511
55.5744
55.596
55.6189
55.6398
55.6624
55.6824
55.7048
55.724
55.7461
55.7646
55.7862
55.8043
55.8253
55.8431
55.863
55.8818
55.8983
55.918
51.0509
51.0533
51.0571
51.0609
51.0645
51.0682
51.0722
51.0764
51.0807
51.0853
51.0901
51.0953
51.1007
51.1065
51.1126
51.119
51.1257
51.1328
51.1402
51.148
51.1561
51.1645
51.1733
51.1824
51.1918
51.2016
51.2118
51.2223
51.2332
51.2444
51.2559
51.2679
51.2802
51.2928
51.3058
51.3192
51.3329
51.347
51.3615
51.3763
51.3915
51.4071
51.4231
51.4394
51.4561
51.4732
51.4907
51.5085
51.5268
51.5454
51.5644
51.5837
51.6035
51.6236
51.6441
51.6651
51.6863
51.708
51.7301
51.7525
51.7753
51.7985
51.8221
51.8461
51.8704
51.8951
51.9202
51.9456
51.9715
51.9977
52.0242
52.0511
52.0784
52.1061
52.1341
52.1624
52.191
52.22
52.2494
52.279
52.309
52.3392
52.3698
52.4008
52.432
52.4636
52.4955
52.5277
52.5601
52.5929
52.6258
52.6591
52.6925
52.7262
52.7601
52.7942
52.8285
52.863
52.8976
52.9324
52.9674
53.0025
53.0378
53.0733
53.1089
53.1446
53.1805
53.2165
53.2525
53.2886
53.3247
53.361
53.3972
53.4335
53.4699
53.5062
53.5426
53.579
53.6154
53.6517
53.688
53.7242
53.7604
53.7965
53.8325
53.8683
53.9041
53.9397
53.9752
54.0106
54.0458
54.0809
54.1159
54.1508
54.1855
54.2201
54.2545
54.2888
54.3229
54.3567
54.3904
54.4238
54.457
54.49
54.5228
54.5553
54.5876
54.6197
54.6515
54.6831
54.7144
54.7455
54.7763
54.8068
54.8371
54.8672
54.897
54.9265
54.9558
54.9847
55.0134
55.0419
55.0701
55.098
55.1256
55.1529
55.18
55.2068
55.2333
55.2595
55.2855
55.3111
55.3366
55.3616
55.3866
55.4109
55.4355
55.4592
55.4833
55.5063
55.5299
55.5523
55.5756
55.5972
55.6201
55.6409
55.6636
55.6836
55.706
55.7251
55.7473
55.7658
55.7874
55.8055
55.8265
55.8441
55.8645
55.8817
55.9014
55.9174
51.0509
51.0533
51.0571
51.0609
51.0645
51.0682
51.0722
51.0764
51.0807
51.0853
51.0901
51.0953
51.1007
51.1065
51.1126
51.119
51.1257
51.1328
51.1402
51.148
51.1561
51.1645
51.1733
51.1824
51.1918
51.2016
51.2118
51.2223
51.2332
51.2444
51.2559
51.2679
51.2802
51.2928
51.3058
51.3192
51.3329
51.347
51.3615
51.3763
51.3916
51.4071
51.4231
51.4394
51.4561
51.4732
51.4907
51.5085
51.5268
51.5454
51.5644
51.5837
51.6035
51.6236
51.6442
51.6651
51.6863
51.708
51.7301
51.7525
51.7753
51.7985
51.8221
51.8461
51.8704
51.8951
51.9202
51.9457
51.9715
51.9977
52.0242
52.0511
52.0784
52.1061
52.1341
52.1624
52.191
52.22
52.2494
52.279
52.309
52.3392
52.3698
52.4008
52.432
52.4636
52.4955
52.5277
52.5601
52.5929
52.6259
52.6591
52.6925
52.7262
52.7601
52.7942
52.8285
52.863
52.8976
52.9324
52.9674
53.0025
53.0378
53.0733
53.1089
53.1446
53.1805
53.2165
53.2525
53.2886
53.3248
53.361
53.3972
53.4335
53.4699
53.5063
53.5426
53.579
53.6154
53.6517
53.688
53.7242
53.7604
53.7965
53.8325
53.8683
53.9041
53.9397
53.9752
54.0106
54.0458
54.0809
54.1159
54.1508
54.1855
54.2201
54.2545
54.2888
54.3229
54.3567
54.3904
54.4238
54.457
54.49
54.5228
54.5553
54.5876
54.6197
54.6515
54.6831
54.7144
54.7455
54.7763
54.8068
54.8372
54.8672
54.897
54.9265
54.9558
54.9847
55.0135
55.0419
55.0701
55.098
55.1256
55.1529
55.18
55.2068
55.2333
55.2595
55.2855
55.3111
55.3366
55.3616
55.3866
55.4109
55.4355
55.4592
55.4833
55.5063
55.5299
55.5523
55.5756
55.5972
55.6201
55.6409
55.6636
55.6836
55.706
55.7251
55.7473
55.7658
55.7874
55.8055
55.8265
55.8441
55.8646
55.8817
55.9015
55.9176
51.0509
51.0533
51.0571
51.0609
51.0645
51.0682
51.0722
51.0763
51.0807
51.0853
51.0901
51.0952
51.1007
51.1065
51.1126
51.119
51.1257
51.1328
51.1402
51.148
51.156
51.1645
51.1733
51.1824
51.1918
51.2016
51.2118
51.2223
51.2332
51.2444
51.2559
51.2679
51.2801
51.2928
51.3058
51.3192
51.3329
51.347
51.3615
51.3763
51.3915
51.4071
51.4231
51.4394
51.4561
51.4732
51.4907
51.5085
51.5268
51.5454
51.5644
51.5837
51.6035
51.6236
51.6441
51.665
51.6863
51.708
51.7301
51.7525
51.7753
51.7985
51.8221
51.8461
51.8704
51.8951
51.9202
51.9456
51.9715
51.9977
52.0242
52.0511
52.0784
52.106
52.134
52.1624
52.191
52.22
52.2493
52.279
52.309
52.3392
52.3698
52.4008
52.432
52.4636
52.4955
52.5277
52.5601
52.5929
52.6258
52.6591
52.6925
52.7262
52.7601
52.7942
52.8285
52.863
52.8976
52.9324
52.9674
53.0025
53.0378
53.0733
53.1089
53.1446
53.1805
53.2165
53.2525
53.2886
53.3247
53.361
53.3972
53.4335
53.4699
53.5062
53.5426
53.579
53.6154
53.6517
53.688
53.7242
53.7604
53.7965
53.8325
53.8683
53.9041
53.9397
53.9752
54.0106
54.0458
54.0809
54.1159
54.1508
54.1855
54.2201
54.2545
54.2888
54.3229
54.3567
54.3904
54.4238
54.457
54.49
54.5228
54.5553
54.5876
54.6197
54.6515
54.6831
54.7144
54.7455
54.7763
54.8068
54.8372
54.8672
54.897
54.9265
54.9558
54.9847
55.0135
55.0419
55.0701
55.098
55.1256
55.1529
55.18
55.2068
55.2333
55.2595
55.2855
55.3111
55.3366
55.3616
55.3866
55.4109
55.4355
55.4592
55.4833
55.5063
55.5299
55.5523
55.5756
55.5972
55.6201
55.6409
55.6636
55.6836
55.706
55.7251
55.7473
55.7658
55.7874
55.8055
55.8265
55.8441
55.8646
55.8817
55.9015
55.9182
51.0509
51.0533
51.0571
51.0609
51.0645
51.0682
51.0722
51.0763
51.0807
51.0852
51.0901
51.0952
51.1007
51.1065
51.1125
51.119
51.1257
51.1328
51.1402
51.1479
51.156
51.1645
51.1732
51.1824
51.1918
51.2016
51.2118
51.2223
51.2331
51.2444
51.2559
51.2679
51.2801
51.2928
51.3058
51.3192
51.3329
51.347
51.3615
51.3763
51.3915
51.4071
51.4231
51.4394
51.4561
51.4732
51.4907
51.5085
51.5267
51.5454
51.5643
51.5837
51.6035
51.6236
51.6441
51.665
51.6863
51.708
51.7301
51.7525
51.7753
51.7985
51.8221
51.8461
51.8704
51.8951
51.9202
51.9456
51.9715
51.9977
52.0242
52.0511
52.0784
52.106
52.134
52.1624
52.191
52.22
52.2493
52.279
52.309
52.3392
52.3698
52.4007
52.432
52.4636
52.4955
52.5277
52.5601
52.5929
52.6258
52.6591
52.6925
52.7262
52.7601
52.7942
52.8285
52.863
52.8976
52.9324
52.9674
53.0025
53.0378
53.0733
53.1089
53.1446
53.1805
53.2165
53.2525
53.2886
53.3247
53.361
53.3972
53.4335
53.4699
53.5062
53.5426
53.579
53.6154
53.6517
53.688
53.7242
53.7604
53.7965
53.8325
53.8683
53.9041
53.9397
53.9752
54.0106
54.0458
54.0809
54.1159
54.1508
54.1855
54.2201
54.2545
54.2888
54.3229
54.3567
54.3904
54.4238
54.457
54.49
54.5228
54.5553
54.5876
54.6197
54.6515
54.6831
54.7144
54.7455
54.7763
54.8068
54.8372
54.8672
54.897
54.9265
54.9558
54.9847
55.0135
55.0419
55.0701
55.098
55.1256
55.1529
55.18
55.2068
55.2333
55.2595
55.2855
55.3111
55.3366
55.3616
55.3866
55.4109
55.4355
55.4592
55.4832
55.5063
55.53
55.5523
55.5756
55.5971
55.6201
55.6409
55.6636
55.6836
55.706
55.7252
55.7473
55.7658
55.7874
55.8055
55.8265
55.8441
55.8645
55.8817
55.9016
55.9178
51.0509
51.0533
51.0571
51.0609
51.0645
51.0682
51.0722
51.0763
51.0807
51.0852
51.0901
51.0952
51.1007
51.1065
51.1125
51.119
51.1257
51.1328
51.1402
51.1479
51.156
51.1645
51.1732
51.1824
51.1918
51.2016
51.2118
51.2223
51.2331
51.2444
51.2559
51.2679
51.2801
51.2928
51.3058
51.3192
51.3329
51.347
51.3615
51.3763
51.3915
51.4071
51.4231
51.4394
51.4561
51.4732
51.4907
51.5085
51.5267
51.5454
51.5643
51.5837
51.6035
51.6236
51.6441
51.665
51.6863
51.708
51.7301
51.7525
51.7753
51.7985
51.8221
51.8461
51.8704
51.8951
51.9202
51.9456
51.9715
51.9977
52.0242
52.0511
52.0784
52.106
52.134
52.1624
52.191
52.22
52.2493
52.279
52.309
52.3392
52.3698
52.4007
52.432
52.4636
52.4955
52.5277
52.5601
52.5929
52.6258
52.6591
52.6925
52.7262
52.7601
52.7942
52.8285
52.863
52.8976
52.9324
52.9674
53.0025
53.0378
53.0733
53.1089
53.1446
53.1805
53.2165
53.2525
53.2886
53.3247
53.361
53.3972
53.4335
53.4699
53.5062
53.5426
53.579
53.6154
53.6517
53.688
53.7242
53.7604
53.7965
53.8324
53.8683
53.9041
53.9397
53.9752
54.0106
54.0458
54.0809
54.1159
54.1508
54.1855
54.2201
54.2545
54.2888
54.3229
54.3567
54.3904
54.4238
54.457
54.49
54.5228
54.5553
54.5876
54.6197
54.6515
54.6831
54.7144
54.7455
54.7763
54.8068
54.8372
54.8672
54.897
54.9265
54.9558
54.9847
55.0135
55.0419
55.0701
55.098
55.1256
55.1529
55.18
55.2068
55.2333
55.2595
55.2855
55.3111
55.3365
55.3617
55.3865
55.411
55.4354
55.4593
55.4832
55.5064
55.5297
55.5526
55.575
55.5979
55.6192
55.642
55.6624
55.6848
55.7048
55.7263
55.7464
55.7664
55.7872
55.8056
55.8263
55.8446
55.8639
55.8822
55.9012
55.919
51.0509
51.0533
51.0571
51.0609
51.0645
51.0682
51.0722
51.0763
51.0807
51.0853
51.0901
51.0952
51.1007
51.1065
51.1126
51.119
51.1257
51.1328
51.1402
51.148
51.156
51.1645
51.1733
51.1824
51.1918
51.2016
51.2118
51.2223
51.2332
51.2444
51.2559
51.2679
51.2801
51.2928
51.3058
51.3192
51.3329
51.347
51.3615
51.3763
51.3915
51.4071
51.4231
51.4394
51.4561
51.4732
51.4907
51.5085
51.5268
51.5454
51.5644
51.5837
51.6035
51.6236
51.6441
51.665
51.6863
51.708
51.7301
51.7525
51.7753
51.7985
51.8221
51.8461
51.8704
51.8951
51.9202
51.9456
51.9715
51.9977
52.0242
52.0511
52.0784
52.106
52.134
52.1624
52.191
52.22
52.2493
52.279
52.309
52.3392
52.3698
52.4008
52.432
52.4636
52.4955
52.5277
52.5601
52.5929
52.6258
52.6591
52.6925
52.7262
52.7601
52.7942
52.8285
52.863
52.8976
52.9324
52.9674
53.0025
53.0378
53.0733
53.1089
53.1446
53.1805
53.2165
53.2525
53.2886
53.3247
53.361
53.3972
53.4335
53.4699
53.5062
53.5426
53.579
53.6154
53.6517
53.688
53.7242
53.7604
53.7965
53.8325
53.8683
53.9041
53.9397
53.9752
54.0106
54.0458
54.0809
54.1159
54.1508
54.1855
54.2201
54.2545
54.2888
54.3229
54.3567
54.3904
54.4238
54.457
54.49
54.5228
54.5553
54.5876
54.6197
54.6515
54.6831
54.7144
54.7455
54.7763
54.8068
54.8372
54.8672
54.897
54.9265
54.9558
54.9847
55.0135
55.0419
55.0701
55.098
55.1256
55.1529
55.18
55.2068
55.2333
55.2595
55.2855
55.3112
55.3365
55.3617
55.3864
55.4112
55.4352
55.4595
55.4828
55.5068
55.5294
55.5529
55.5748
55.598
55.6192
55.642
55.6624
55.6849
55.7046
55.7268
55.7456
55.7675
55.7858
55.8071
55.8249
55.8457
55.863
55.8832
55.9003
55.9196
51.0509
51.0533
51.0571
51.0609
51.0645
51.0682
51.0722
51.0764
51.0807
51.0853
51.0901
51.0953
51.1007
51.1065
51.1126
51.119
51.1257
51.1328
51.1402
51.148
51.1561
51.1645
51.1733
51.1824
51.1918
51.2016
51.2118
51.2223
51.2332
51.2444
51.2559
51.2679
51.2802
51.2928
51.3058
51.3192
51.3329
51.347
51.3615
51.3763
51.3916
51.4071
51.4231
51.4394
51.4561
51.4732
51.4907
51.5085
51.5268
51.5454
51.5644
51.5837
51.6035
51.6236
51.6442
51.6651
51.6863
51.708
51.7301
51.7525
51.7753
51.7985
51.8221
51.8461
51.8704
51.8951
51.9202
51.9457
51.9715
51.9977
52.0242
52.0511
52.0784
52.1061
52.1341
52.1624
52.191
52.22
52.2494
52.279
52.309
52.3392
52.3698
52.4008
52.432
52.4636
52.4955
52.5277
52.5601
52.5929
52.6259
52.6591
52.6925
52.7262
52.7601
52.7942
52.8285
52.863
52.8976
52.9324
52.9674
53.0025
53.0378
53.0733
53.1089
53.1446
53.1805
53.2165
53.2525
53.2886
53.3248
53.361
53.3972
53.4335
53.4699
53.5063
53.5426
53.579
53.6154
53.6517
53.688
53.7242
53.7604
53.7965
53.8325
53.8683
53.9041
53.9397
53.9752
54.0106
54.0458
54.0809
54.1159
54.1508
54.1855
54.2201
54.2545
54.2888
54.3229
54.3567
54.3904
54.4238
54.4571
54.49
54.5228
54.5553
54.5876
54.6197
54.6515
54.6831
54.7144
54.7455
54.7763
54.8068
54.8372
54.8672
54.897
54.9265
54.9558
54.9847
55.0135
55.0419
55.0701
55.098
55.1256
55.1529
55.18
55.2068
55.2333
55.2595
55.2855
55.3112
55.3365
55.3617
55.3864
55.4112
55.4352
55.4596
55.4828
55.5068
55.5293
55.553
55.5748
55.598
55.6191
55.6421
55.6623
55.685
55.7045
55.7268
55.7456
55.7675
55.7857
55.8071
55.8249
55.8457
55.8629
55.8833
55.8992
55.9196
51.0509
51.0533
51.0571
51.0609
51.0645
51.0682
51.0722
51.0764
51.0807
51.0853
51.0901
51.0953
51.1007
51.1065
51.1126
51.119
51.1257
51.1328
51.1402
51.148
51.1561
51.1645
51.1733
51.1824
51.1918
51.2016
51.2118
51.2223
51.2332
51.2444
51.2559
51.2679
51.2802
51.2928
51.3058
51.3192
51.3329
51.347
51.3615
51.3763
51.3915
51.4071
51.4231
51.4394
51.4561
51.4732
51.4907
51.5085
51.5268
51.5454
51.5644
51.5837
51.6035
51.6236
51.6441
51.6651
51.6863
51.708
51.7301
51.7525
51.7753
51.7985
51.8221
51.8461
51.8704
51.8951
51.9202
51.9456
51.9715
51.9977
52.0242
52.0511
52.0784
52.1061
52.1341
52.1624
52.191
52.22
52.2494
52.279
52.309
52.3392
52.3698
52.4008
52.432
52.4636
52.4955
52.5277
52.5601
52.5929
52.6258
52.6591
52.6925
52.7262
52.7601
52.7942
52.8285
52.863
52.8976
52.9324
52.9674
53.0025
53.0378
53.0733
53.1089
53.1446
53.1805
53.2165
53.2525
53.2886
53.3247
53.361
53.3972
53.4335
53.4699
53.5062
53.5426
53.579
53.6154
53.6517
53.688
53.7242
53.7604
53.7965
53.8325
53.8683
53.9041
53.9397
53.9752
54.0106
54.0458
54.0809
54.1159
54.1508
54.1855
54.2201
54.2545
54.2888
54.3229
54.3567
54.3904
54.4238
54.457
54.49
54.5228
54.5553
54.5876
54.6197
54.6515
54.6831
54.7144
54.7455
54.7763
54.8068
54.8371
54.8672
54.897
54.9265
54.9558
54.9847
55.0134
55.0419
55.0701
55.098
55.1256
55.1529
55.18
55.2068
55.2333
55.2595
55.2854
55.3112
55.3365
55.3617
55.3864
55.4112
55.4352
55.4596
55.4828
55.5068
55.5293
55.553
55.5748
55.5981
55.6191
55.6421
55.6623
55.685
55.7044
55.7268
55.7456
55.7675
55.7858
55.8071
55.8249
55.8457
55.8629
55.8833
55.8989
55.9192
51.0491
51.0515
51.0553
51.0591
51.0627
51.0664
51.0704
51.0746
51.0789
51.0835
51.0883
51.0935
51.0989
51.1047
51.1108
51.1172
51.124
51.131
51.1385
51.1462
51.1543
51.1627
51.1715
51.1806
51.1901
51.1999
51.2101
51.2206
51.2314
51.2427
51.2542
51.2662
51.2784
51.2911
51.3041
51.3175
51.3312
51.3453
51.3598
51.3746
51.3899
51.4055
51.4214
51.4378
51.4545
51.4716
51.489
51.5069
51.5251
51.5437
51.5627
51.5821
51.6018
51.622
51.6425
51.6634
51.6847
51.7064
51.7284
51.7509
51.7737
51.7969
51.8205
51.8445
51.8688
51.8935
51.9186
51.9441
51.9699
51.9961
52.0226
52.0496
52.0768
52.1045
52.1325
52.1608
52.1895
52.2185
52.2478
52.2775
52.3074
52.3377
52.3683
52.3992
52.4305
52.4621
52.494
52.5262
52.5587
52.5914
52.6244
52.6576
52.6911
52.7247
52.7586
52.7927
52.827
52.8615
52.8961
52.931
52.9659
53.0011
53.0364
53.0718
53.1075
53.1432
53.1791
53.2151
53.2511
53.2872
53.3233
53.3596
53.3958
53.4322
53.4685
53.5049
53.5413
53.5777
53.6141
53.6504
53.6867
53.7229
53.7591
53.7951
53.8311
53.867
53.9027
53.9384
53.9739
54.0093
54.0445
54.0796
54.1146
54.1495
54.1842
54.2188
54.2533
54.2876
54.3216
54.3555
54.3892
54.4226
54.4558
54.4888
54.5216
54.5541
54.5864
54.6185
54.6503
54.6819
54.7132
54.7443
54.7751
54.8057
54.836
54.866
54.8958
54.9253
54.9546
54.9836
55.0123
55.0407
55.0689
55.0968
55.1244
55.1518
55.1788
55.2056
55.2321
55.2584
55.2843
55.31
55.3353
55.3605
55.3852
55.41
55.434
55.4584
55.4816
55.5056
55.5282
55.5518
55.5736
55.5969
55.6179
55.6409
55.6611
55.6838
55.7033
55.7256
55.7444
55.7663
55.7846
55.8059
55.8237
55.8445
55.8617
55.8822
55.8971
55.9187
55.9296
55.9339
55.9373
55.9401
55.9425
55.9445
55.9466
55.949
55.9518
55.9549
55.9581
55.9613
55.9645
55.9676
55.9707
55.9738
55.9767
55.9797
55.9826
55.9857
55.9292
55.9333
55.9368
55.9399
55.943
55.9459
55.9487
55.9515
55.9542
55.957
55.9598
55.9627
55.9658
55.9689
55.9721
55.9752
55.9783
55.9814
55.9844
55.9877
55.9286
55.933
55.9366
55.9398
55.9431
55.9461
55.9491
55.9521
55.9547
55.9576
55.9602
55.9633
55.966
55.9692
55.972
55.9754
55.9784
55.9818
55.9849
55.988
55.929
55.9329
55.9362
55.9396
55.9427
55.9461
55.9491
55.9525
55.9554
55.9586
55.9613
55.9643
55.9667
55.9693
55.9716
55.9742
55.9765
55.9793
55.982
55.985
55.9298
55.9337
55.9373
55.9407
55.9439
55.9472
55.9504
55.9537
55.9569
55.9601
55.9634
55.9666
55.9698
55.973
55.9762
55.9794
55.9825
55.9856
55.9886
55.9915
55.9283
55.9312
55.9341
55.9371
55.9401
55.9434
55.9465
55.9498
55.9528
55.9561
55.9591
55.9623
55.9652
55.9682
55.9709
55.9736
55.976
55.9785
55.9811
55.9837
55.9298
55.9328
55.9359
55.9391
55.9424
55.9455
55.9485
55.9517
55.9548
55.9581
55.9613
55.9647
55.968
55.9714
55.9747
55.9781
55.9816
55.9849
55.9884
55.9916
55.9272
55.9287
55.9306
55.933
55.9358
55.9389
55.9421
55.9453
55.9487
55.9521
55.9555
55.9591
55.9627
55.9663
55.97
55.9737
55.9772
55.9807
55.9842
55.9878
55.9271
55.9289
55.9312
55.934
55.937
55.9403
55.9438
55.9474
55.951
55.9547
55.9584
55.9622
55.966
55.9698
55.9737
55.9776
55.9814
55.9853
55.989
55.9926
55.9265
55.9278
55.93
55.9328
55.936
55.9393
55.9428
55.9464
55.95
55.9535
55.9572
55.9609
55.9647
55.9683
55.972
55.9756
55.9794
55.983
55.9868
55.9903
55.9917
56.0029
56.0162
56.0296
56.0421
56.0539
56.0656
56.0776
56.0899
56.1021
56.1139
56.1253
56.1364
56.1474
56.1583
56.1693
56.1802
56.1911
56.2018
56.2123
56.2226
56.2328
56.2429
56.2529
56.2627
56.2725
56.282
56.2915
56.3008
56.31
56.3191
56.328
56.3369
56.3456
56.3542
56.3626
56.371
56.3792
56.3873
56.3952
56.4031
56.4108
56.4184
56.426
56.4334
56.4406
56.4478
56.4548
56.4617
56.4685
56.4752
56.4818
56.4883
56.4947
56.5009
56.5071
56.5132
56.5192
56.525
56.5308
56.5365
56.542
56.5474
56.5528
56.558
56.5632
56.5682
56.5732
56.5781
56.5828
56.5875
56.5921
56.5965
56.6009
56.6052
56.6094
56.6136
56.6176
56.6216
56.6255
56.6293
56.6331
56.6367
56.6402
56.6437
56.6471
56.6503
56.6536
56.6567
56.6598
56.6628
56.6657
56.6686
56.6714
56.6741
56.6767
56.6793
56.6817
56.6842
56.6865
56.6888
56.6911
56.6933
56.6954
56.6974
56.6994
56.7013
56.7031
56.7049
56.7067
56.7084
56.71
56.7116
56.7132
56.7147
56.7162
56.7177
56.7191
56.7204
56.7217
56.723
56.7243
56.7255
56.7267
56.7279
56.729
56.73
56.7311
56.732
56.733
56.7339
56.7348
56.7356
56.7365
56.7373
56.7381
56.7388
56.7396
56.7402
56.7409
56.7415
56.7421
56.7427
56.7432
56.7438
56.7443
56.7449
56.7455
56.746
56.7464
56.7467
56.747
56.7475
56.7481
56.7488
56.7496
56.7505
56.7514
56.7523
56.7526
56.7523
56.752
56.7533
56.7555
56.7585
56.7604
56.7599
56.7507
56.7241
56.6915
56.6579
56.6253
56.5955
56.5695
56.5483
56.5327
56.5248
56.5236
56.5242
56.5278
56.5411
56.5767
56.6169
56.6531
56.683
56.7057
56.7215
56.7327
56.7406
56.7466
56.7503
56.7527
56.7528
56.7527
56.7514
56.7513
56.7502
56.7503
56.749
56.7488
55.9944
56.0061
56.0184
56.0315
56.0443
56.0564
56.0682
56.0802
56.0924
56.1047
56.1167
56.1284
56.1398
56.1508
56.1617
56.1726
56.1835
56.1944
56.2052
56.2158
56.2262
56.2365
56.2466
56.2566
56.2664
56.2762
56.2858
56.2952
56.3046
56.3138
56.3229
56.3318
56.3407
56.3494
56.3579
56.3664
56.3747
56.383
56.3911
56.399
56.4069
56.4146
56.4223
56.4298
56.4372
56.4445
56.4516
56.4587
56.4656
56.4724
56.4791
56.4857
56.4922
56.4985
56.5048
56.511
56.5171
56.523
56.5289
56.5347
56.5403
56.5459
56.5514
56.5567
56.562
56.5671
56.5721
56.5771
56.582
56.5868
56.5914
56.596
56.6005
56.6049
56.6092
56.6134
56.6175
56.6216
56.6255
56.6294
56.6332
56.637
56.6406
56.6442
56.6477
56.6511
56.6544
56.6576
56.6607
56.6637
56.6667
56.6697
56.6725
56.6753
56.678
56.6807
56.6833
56.6858
56.6882
56.6905
56.6928
56.695
56.6972
56.6993
56.7014
56.7034
56.7054
56.7072
56.709
56.7108
56.7124
56.7141
56.7156
56.7172
56.7187
56.7202
56.7216
56.7231
56.7244
56.7258
56.727
56.7283
56.7295
56.7307
56.7318
56.7329
56.734
56.7351
56.7361
56.737
56.738
56.7388
56.7397
56.7405
56.7413
56.742
56.7428
56.7435
56.7442
56.7449
56.7455
56.7461
56.7466
56.7471
56.7476
56.7481
56.7486
56.7491
56.7495
56.7499
56.7503
56.7506
56.7511
56.7515
56.7519
56.7524
56.753
56.7536
56.754
56.7541
56.7541
56.7542
56.7543
56.7551
56.7568
56.7598
56.7626
56.7647
56.7668
56.7695
56.7729
56.7762
56.7785
56.7788
56.7765
56.77
56.7617
56.7531
56.7444
56.7361
56.7294
56.7237
56.7216
56.7218
56.7233
56.7273
56.7321
56.7375
56.7423
56.7466
56.7493
56.7514
56.7518
56.7523
56.7518
56.7519
56.7511
56.7511
56.7502
56.7498
55.9947
56.0062
56.0184
56.0312
56.0439
56.056
56.0678
56.0797
56.0918
56.104
56.116
56.1277
56.139
56.15
56.161
56.172
56.183
56.1939
56.2046
56.2151
56.2255
56.2357
56.2458
56.2558
56.2657
56.2754
56.285
56.2945
56.3038
56.313
56.3221
56.3311
56.3399
56.3486
56.3572
56.3656
56.374
56.3822
56.3903
56.3983
56.4061
56.4139
56.4215
56.429
56.4364
56.4437
56.4509
56.4579
56.4648
56.4716
56.4783
56.4849
56.4914
56.4978
56.504
56.5102
56.5163
56.5223
56.5281
56.5339
56.5396
56.5451
56.5506
56.5559
56.5612
56.5663
56.5714
56.5763
56.5812
56.586
56.5907
56.5953
56.5998
56.6041
56.6084
56.6126
56.6168
56.6208
56.6248
56.6287
56.6325
56.6362
56.6399
56.6434
56.6469
56.6503
56.6536
56.6568
56.6599
56.663
56.666
56.6689
56.6718
56.6746
56.6773
56.6799
56.6825
56.685
56.6874
56.6898
56.6921
56.6943
56.6965
56.6986
56.7007
56.7027
56.7046
56.7065
56.7083
56.71
56.7117
56.7133
56.7149
56.7165
56.718
56.7195
56.7209
56.7223
56.7237
56.725
56.7263
56.7276
56.7288
56.73
56.7311
56.7322
56.7333
56.7344
56.7354
56.7364
56.7373
56.7382
56.739
56.7399
56.7407
56.7414
56.7422
56.7429
56.7436
56.7443
56.7449
56.7455
56.746
56.7466
56.747
56.7475
56.748
56.7485
56.7489
56.7493
56.7497
56.75
56.7504
56.7507
56.7512
56.7519
56.7523
56.7528
56.7534
56.7534
56.753
56.7529
56.7532
56.7544
56.7566
56.7601
56.764
56.7676
56.7707
56.7736
56.7764
56.7791
56.781
56.7819
56.7809
56.7785
56.7736
56.7694
56.7634
56.7591
56.7533
56.7501
56.7459
56.7445
56.7431
56.7433
56.7443
56.7458
56.7473
56.7491
56.7501
56.7513
56.7514
56.7519
56.7515
56.7516
56.7509
56.7509
56.75
56.7498
55.9923
56.0046
56.0163
56.0281
56.0402
56.0522
56.064
56.0754
56.0868
56.0982
56.1098
56.1213
56.1326
56.1436
56.1545
56.1651
56.1757
56.1863
56.1969
56.2074
56.2178
56.228
56.2381
56.2481
56.2579
56.2676
56.2771
56.2866
56.2959
56.3051
56.3141
56.3231
56.3319
56.3406
56.3492
56.3576
56.366
56.3742
56.3823
56.3903
56.3981
56.4059
56.4135
56.421
56.4284
56.4357
56.4428
56.4499
56.4568
56.4636
56.4703
56.4769
56.4833
56.4897
56.496
56.5022
56.5082
56.5142
56.5201
56.5259
56.5315
56.5371
56.5425
56.5479
56.5531
56.5583
56.5633
56.5683
56.5732
56.5779
56.5826
56.5872
56.5917
56.596
56.6003
56.6045
56.6087
56.6127
56.6167
56.6206
56.6245
56.6282
56.6318
56.6354
56.6388
56.6422
56.6455
56.6487
56.6519
56.6549
56.6579
56.6609
56.6637
56.6665
56.6692
56.6719
56.6744
56.6769
56.6794
56.6818
56.6841
56.6863
56.6885
56.6906
56.6926
56.6946
56.6965
56.6983
56.7001
56.7019
56.7036
56.7052
56.7068
56.7084
56.7099
56.7114
56.7129
56.7143
56.7157
56.717
56.7183
56.7195
56.7208
56.722
56.7231
56.7242
56.7252
56.7263
56.7273
56.7282
56.7291
56.73
56.7309
56.7318
56.7326
56.7334
56.7341
56.7348
56.7355
56.7362
56.7368
56.7374
56.7381
56.7388
56.7394
56.7399
56.7404
56.7409
56.7413
56.7419
56.7426
56.7432
56.744
56.7448
56.7454
56.7458
56.7461
56.7463
56.7466
56.747
56.7479
56.7495
56.7515
56.7536
56.7554
56.7571
56.7586
56.7601
56.7615
56.7627
56.7632
56.7634
56.7625
56.7619
56.7601
56.759
56.7572
56.7558
56.7543
56.7532
56.752
56.7517
56.7508
56.7512
56.7508
56.7513
56.7513
56.7518
56.7516
56.7521
56.7517
56.752
56.7514
56.7516
56.7508
56.751
56.7502
56.7503
56.7497
56.7495
55.9986
56.0103
56.0224
56.0343
56.0461
56.0581
56.0702
56.0824
56.0945
56.1065
56.1183
56.1298
56.1411
56.1523
56.1633
56.1743
56.1852
56.1959
56.2065
56.2169
56.2272
56.2374
56.2475
56.2575
56.2674
56.2771
56.2867
56.2962
56.3056
56.3148
56.3239
56.3329
56.3417
56.3504
56.359
56.3675
56.3758
56.384
56.3921
56.4001
56.408
56.4157
56.4233
56.4308
56.4382
56.4455
56.4527
56.4597
56.4666
56.4735
56.4802
56.4868
56.4933
56.4997
56.5059
56.5121
56.5181
56.5241
56.5299
56.5357
56.5413
56.5469
56.5523
56.5577
56.5629
56.5681
56.5732
56.5781
56.583
56.5878
56.5924
56.597
56.6015
56.6059
56.6103
56.6145
56.6186
56.6227
56.6266
56.6305
56.6343
56.638
56.6416
56.6451
56.6486
56.652
56.6553
56.6585
56.6617
56.6648
56.6678
56.6707
56.6735
56.6763
56.679
56.6816
56.6842
56.6867
56.6891
56.6915
56.6938
56.696
56.6982
56.7003
56.7023
56.7043
56.7063
56.7081
56.71
56.7118
56.7135
56.7152
56.7168
56.7183
56.7198
56.7213
56.7227
56.7241
56.7254
56.7267
56.728
56.7292
56.7304
56.7316
56.7327
56.7338
56.7349
56.7359
56.7369
56.7379
56.7388
56.7397
56.7405
56.7413
56.7421
56.7429
56.7436
56.7443
56.745
56.7456
56.7462
56.7468
56.7473
56.7478
56.7483
56.7487
56.7492
56.7496
56.75
56.7504
56.7507
56.751
56.7512
56.7515
56.7518
56.752
56.7522
56.7526
56.7529
56.7532
56.7534
56.7534
56.7535
56.7537
56.754
56.7546
56.7553
56.7561
56.7568
56.7575
56.7581
56.7583
56.7586
56.7581
56.7582
56.7574
56.7572
56.7565
56.756
56.7556
56.7549
56.7548
56.7541
56.7541
56.7536
56.7534
56.7532
56.7526
56.7528
56.752
56.7522
56.7516
56.7513
56.7511
56.7506
56.7504
56.7501
56.7498
56.7493
56.7491
55.9917
56.0033
56.0138
56.0239
56.034
56.0442
56.0545
56.0649
56.0755
56.0861
56.0967
56.1073
56.1179
56.1285
56.139
56.1495
56.16
56.1704
56.1808
56.1911
56.2014
56.2115
56.2216
56.2315
56.2413
56.251
56.2605
56.27
56.2793
56.2885
56.2975
56.3065
56.3153
56.324
56.3326
56.341
56.3494
56.3576
56.3657
56.3736
56.3815
56.3892
56.3969
56.4044
56.4118
56.419
56.4262
56.4332
56.4401
56.4469
56.4535
56.4601
56.4666
56.473
56.4794
56.4856
56.4917
56.4976
56.5035
56.5092
56.5149
56.5204
56.5259
56.5313
56.5365
56.5417
56.5467
56.5517
56.5565
56.5612
56.5659
56.5705
56.575
56.5794
56.5838
56.588
56.5922
56.5963
56.6003
56.6042
56.6079
56.6116
56.6153
56.6188
56.6223
56.6258
56.6291
56.6324
56.6355
56.6386
56.6416
56.6446
56.6474
56.6502
56.653
56.6556
56.6582
56.6607
56.6632
56.6655
56.6678
56.6699
56.6721
56.6741
56.6762
56.6782
56.6801
56.682
56.6838
56.6856
56.6873
56.689
56.6907
56.6923
56.6939
56.6954
56.6969
56.6984
56.6999
56.7013
56.7027
56.704
56.7053
56.7066
56.7079
56.7092
56.7104
56.7116
56.7128
56.714
56.7152
56.7163
56.7176
56.7187
56.7199
56.721
56.722
56.723
56.724
56.725
56.7259
56.727
56.728
56.7291
56.7303
56.7314
56.7326
56.7337
56.7347
56.7355
56.7361
56.7367
56.7372
56.7376
56.7382
56.7391
56.7403
56.7417
56.7434
56.7452
56.7472
56.7492
56.7512
56.7531
56.7548
56.7562
56.7575
56.7584
56.7595
56.7601
56.7608
56.761
56.7615
56.7613
56.7615
56.7606
56.7604
56.7589
56.7585
56.7567
56.7564
56.7547
56.7547
56.7532
56.7534
56.7521
56.7524
56.7514
56.7518
56.7509
56.7512
56.7504
56.7507
56.7499
56.7502
56.7494
56.7497
56.7489
56.7492
56.7485
56.0018
56.0164
56.03
56.0429
56.0553
56.0676
56.0798
56.0919
56.1039
56.1159
56.1277
56.1393
56.1509
56.1622
56.1735
56.1846
56.1956
56.2065
56.2173
56.2279
56.2383
56.2486
56.2588
56.2689
56.2788
56.2886
56.2982
56.3078
56.3172
56.3264
56.3356
56.3446
56.3535
56.3623
56.3709
56.3794
56.3878
56.396
56.4042
56.4122
56.42
56.4278
56.4354
56.4429
56.4503
56.4576
56.4648
56.4718
56.4788
56.4856
56.4923
56.4989
56.5054
56.5118
56.5181
56.5242
56.5303
56.5363
56.5421
56.5479
56.5535
56.5591
56.5645
56.5698
56.5751
56.5802
56.5852
56.5902
56.5951
56.5998
56.6045
56.6091
56.6136
56.618
56.6223
56.6266
56.6307
56.6347
56.6387
56.6425
56.6463
56.65
56.6536
56.6572
56.6607
56.664
56.6673
56.6706
56.6737
56.6767
56.6797
56.6826
56.6854
56.6882
56.6909
56.6935
56.6961
56.6986
56.701
56.7034
56.7057
56.7079
56.71
56.7121
56.7141
56.7161
56.718
56.7199
56.7217
56.7235
56.7252
56.7269
56.7285
56.7301
56.7316
56.7331
56.7345
56.7359
56.7372
56.7385
56.7398
56.7411
56.7423
56.7435
56.7447
56.7458
56.7469
56.7479
56.7489
56.7498
56.7508
56.7517
56.7525
56.7534
56.7542
56.755
56.7558
56.7565
56.7572
56.7579
56.7585
56.7591
56.7597
56.7602
56.7607
56.7612
56.7617
56.7622
56.7626
56.763
56.7634
56.7639
56.7643
56.7646
56.7649
56.765
56.7651
56.7655
56.7658
56.7659
56.7659
56.7659
56.766
56.7658
56.7659
56.766
56.7661
56.7659
56.7654
56.7644
56.7639
56.7629
56.7627
56.7629
56.7637
56.7655
56.7672
56.7681
56.7681
56.7667
56.7653
56.7624
56.761
56.7582
56.7574
56.7552
56.7548
56.7532
56.7531
56.7519
56.752
56.7509
56.7511
56.7502
56.7504
56.7496
56.7498
56.7493
56.749
56.7486
55.9995
56.0119
56.023
56.033
56.0426
56.0522
56.0618
56.0715
56.0812
56.0911
56.101
56.111
56.121
56.1311
56.1412
56.1513
56.1615
56.1716
56.1818
56.192
56.2021
56.2122
56.2222
56.2321
56.2419
56.2516
56.2611
56.2706
56.2799
56.2891
56.2982
56.3072
56.316
56.3247
56.3333
56.3417
56.3501
56.3583
56.3664
56.3743
56.3822
56.39
56.3976
56.4051
56.4125
56.4198
56.427
56.434
56.4409
56.4476
56.4543
56.4609
56.4674
56.4738
56.4801
56.4863
56.4924
56.4984
56.5043
56.51
56.5157
56.5212
56.5267
56.5321
56.5374
56.5426
56.5476
56.5526
56.5575
56.5622
56.5669
56.5715
56.5761
56.5806
56.585
56.5894
56.5936
56.5978
56.6018
56.6058
56.6096
56.6134
56.6171
56.6208
56.6244
56.6279
56.6314
56.6347
56.638
56.6412
56.6443
56.6473
56.6502
56.6531
56.656
56.6587
56.6614