/*--------------------------------*- C++ -*----------------------------------*\
| =========                 |                                                 |
| \\      /  F ield         | OpenFOAM: The Open Source CFD Toolbox           |
|  \\    /   O peration     | Version:  3.0.x                                 |
|   \\  /    A nd           | Web:      www.OpenFOAM.org                      |
|    \\/     M anipulation  |                                                 |
\*---------------------------------------------------------------------------*/
FoamFile
{
    version     2.0;
    format      ascii;
    class       volScalarField;
    location    "0.54";
    object      T;
}
// * * * * * * * * * * * * * * * * * * * * * * * * * * * * * * * * * * * * * //

dimensions      [0 0 0 1 0 0 0];

internalField   nonuniform List<scalar> 
13800
(
774.956
774.944
774.932
774.924
774.922
774.923
774.926
774.932
774.942
774.953
774.967
774.982
774.998
775.015
775.033
775.053
775.073
775.094
775.117
775.14
775.165
775.19
775.217
775.245
775.273
775.303
775.334
775.365
775.398
775.432
775.467
775.503
775.54
775.579
775.618
775.658
775.7
775.743
775.786
775.831
775.877
775.924
775.973
776.022
776.072
776.124
776.177
776.231
776.286
776.342
776.399
776.458
776.517
776.578
776.64
776.703
776.767
776.832
776.899
776.966
777.035
777.105
777.176
777.248
777.321
777.395
777.47
777.547
777.624
777.703
777.782
777.863
777.945
778.027
778.111
778.196
778.282
778.369
778.457
778.546
778.636
778.727
778.819
778.911
779.004
779.097
779.191
779.285
779.38
779.476
779.572
779.67
779.768
779.867
779.967
780.068
780.17
780.272
780.375
780.478
780.582
780.687
780.791
780.896
781
781.105
781.21
781.315
781.42
781.526
781.632
781.738
781.844
781.949
782.055
782.16
782.265
782.37
782.474
782.579
782.684
782.788
782.893
782.997
783.102
783.206
783.311
783.415
783.519
783.623
783.726
783.829
783.931
784.032
784.131
784.23
784.329
784.426
784.523
784.62
784.716
784.812
784.907
785.002
785.096
785.19
785.283
785.375
785.466
785.557
785.647
785.737
785.825
785.913
786
786.086
786.172
786.257
786.341
786.424
786.506
786.588
786.668
786.748
786.827
786.906
786.983
787.06
787.136
787.211
787.285
787.358
787.43
787.503
787.572
787.644
787.711
787.783
787.846
787.918
787.977
788.05
788.106
788.18
788.23
788.306
788.352
788.43
788.469
788.551
788.585
788.667
788.7
788.778
788.811
788.885
788.925
788.975
789.054
789.079
774.928
774.916
774.904
774.896
774.894
774.895
774.898
774.905
774.914
774.926
774.94
774.954
774.971
774.988
775.006
775.026
775.046
775.068
775.09
775.114
775.138
775.164
775.19
775.218
775.247
775.276
775.307
775.339
775.372
775.406
775.441
775.477
775.514
775.553
775.592
775.633
775.674
775.717
775.761
775.806
775.852
775.899
775.947
775.997
776.047
776.099
776.152
776.206
776.261
776.317
776.375
776.433
776.493
776.553
776.615
776.678
776.743
776.808
776.874
776.942
777.011
777.081
777.151
777.223
777.297
777.371
777.446
777.523
777.6
777.679
777.759
777.839
777.921
778.004
778.087
778.172
778.258
778.345
778.433
778.523
778.613
778.704
778.796
778.888
778.982
779.075
779.169
779.263
779.358
779.454
779.551
779.648
779.747
779.846
779.945
780.046
780.148
780.25
780.353
780.457
780.561
780.665
780.77
780.875
780.98
781.084
781.189
781.294
781.399
781.505
781.611
781.717
781.823
781.929
782.035
782.14
782.245
782.35
782.455
782.56
782.665
782.769
782.874
782.978
783.082
783.187
783.291
783.396
783.5
783.603
783.707
783.81
783.912
784.013
784.113
784.212
784.311
784.409
784.506
784.602
784.699
784.794
784.89
784.984
785.078
785.172
785.265
785.357
785.449
785.54
785.63
785.72
785.808
785.896
785.983
786.07
786.155
786.24
786.324
786.407
786.49
786.571
786.652
786.732
786.811
786.889
786.967
787.043
787.119
787.194
787.268
787.342
787.413
787.486
787.555
787.628
787.694
787.766
787.829
787.902
787.961
788.034
788.089
788.163
788.214
788.29
788.335
788.414
788.453
788.534
788.569
788.65
788.683
788.762
788.794
788.871
788.902
788.976
789.01
789.087
774.928
774.916
774.904
774.896
774.894
774.895
774.898
774.905
774.914
774.926
774.94
774.954
774.971
774.988
775.006
775.026
775.046
775.068
775.09
775.114
775.138
775.164
775.19
775.218
775.247
775.276
775.307
775.339
775.372
775.406
775.441
775.477
775.514
775.553
775.592
775.633
775.674
775.717
775.761
775.806
775.852
775.899
775.947
775.997
776.047
776.099
776.152
776.206
776.261
776.317
776.374
776.433
776.493
776.553
776.615
776.678
776.743
776.808
776.874
776.942
777.011
777.08
777.151
777.223
777.297
777.371
777.446
777.523
777.6
777.679
777.759
777.839
777.921
778.004
778.087
778.172
778.258
778.345
778.433
778.522
778.613
778.704
778.796
778.888
778.981
779.075
779.169
779.263
779.358
779.454
779.551
779.648
779.746
779.846
779.945
780.046
780.148
780.25
780.353
780.457
780.561
780.665
780.77
780.875
780.979
781.084
781.189
781.294
781.399
781.505
781.611
781.717
781.823
781.929
782.035
782.14
782.245
782.35
782.455
782.56
782.664
782.769
782.874
782.978
783.082
783.187
783.291
783.396
783.5
783.603
783.707
783.81
783.912
784.013
784.113
784.212
784.311
784.408
784.506
784.602
784.698
784.794
784.889
784.984
785.078
785.172
785.265
785.357
785.449
785.54
785.63
785.719
785.808
785.896
785.983
786.07
786.155
786.24
786.324
786.407
786.49
786.571
786.652
786.732
786.811
786.889
786.966
787.043
787.119
787.194
787.268
787.342
787.413
787.486
787.555
787.628
787.694
787.766
787.829
787.902
787.961
788.034
788.089
788.163
788.214
788.29
788.335
788.414
788.453
788.534
788.569
788.65
788.683
788.762
788.794
788.871
788.902
788.977
789.009
789.084
774.928
774.916
774.905
774.896
774.894
774.895
774.898
774.905
774.915
774.926
774.94
774.955
774.971
774.988
775.006
775.026
775.046
775.068
775.09
775.114
775.138
775.164
775.191
775.218
775.247
775.277
775.307
775.339
775.372
775.406
775.441
775.477
775.515
775.553
775.592
775.633
775.674
775.717
775.761
775.806
775.852
775.899
775.947
775.997
776.047
776.099
776.152
776.206
776.261
776.317
776.375
776.433
776.493
776.554
776.616
776.679
776.743
776.808
776.874
776.942
777.011
777.081
777.152
777.224
777.297
777.371
777.446
777.523
777.6
777.679
777.759
777.84
777.921
778.004
778.087
778.172
778.258
778.345
778.434
778.523
778.613
778.704
778.796
778.888
778.982
779.075
779.169
779.263
779.358
779.454
779.551
779.648
779.747
779.846
779.946
780.046
780.148
780.25
780.353
780.457
780.561
780.665
780.77
780.875
780.98
781.084
781.189
781.294
781.399
781.505
781.611
781.717
781.823
781.929
782.035
782.14
782.245
782.35
782.455
782.56
782.665
782.769
782.874
782.978
783.082
783.187
783.291
783.396
783.5
783.603
783.707
783.81
783.912
784.013
784.113
784.212
784.311
784.409
784.506
784.602
784.698
784.794
784.889
784.984
785.078
785.172
785.265
785.357
785.449
785.54
785.63
785.719
785.808
785.896
785.983
786.07
786.155
786.24
786.324
786.407
786.49
786.571
786.652
786.732
786.811
786.889
786.966
787.043
787.119
787.194
787.268
787.342
787.413
787.486
787.555
787.628
787.694
787.766
787.829
787.902
787.961
788.034
788.089
788.163
788.214
788.29
788.335
788.414
788.453
788.534
788.569
788.65
788.683
788.762
788.794
788.871
788.902
788.976
789.009
789.076
774.928
774.917
774.905
774.896
774.895
774.896
774.899
774.905
774.915
774.927
774.94
774.955
774.971
774.988
775.007
775.026
775.047
775.068
775.091
775.114
775.139
775.164
775.191
775.218
775.247
775.277
775.308
775.339
775.372
775.406
775.441
775.478
775.515
775.553
775.592
775.633
775.675
775.717
775.761
775.806
775.852
775.899
775.948
775.997
776.048
776.099
776.152
776.206
776.261
776.317
776.375
776.433
776.493
776.554
776.616
776.679
776.743
776.808
776.875
776.942
777.011
777.081
777.152
777.224
777.297
777.371
777.447
777.523
777.6
777.679
777.759
777.84
777.921
778.004
778.088
778.172
778.258
778.346
778.434
778.523
778.613
778.704
778.796
778.889
778.982
779.075
779.169
779.263
779.358
779.454
779.551
779.648
779.747
779.846
779.946
780.046
780.148
780.25
780.353
780.457
780.561
780.665
780.77
780.875
780.98
781.084
781.189
781.294
781.399
781.505
781.611
781.717
781.823
781.929
782.035
782.14
782.245
782.35
782.455
782.56
782.665
782.769
782.874
782.978
783.082
783.187
783.291
783.396
783.5
783.603
783.707
783.81
783.912
784.013
784.113
784.212
784.311
784.409
784.506
784.602
784.698
784.794
784.889
784.984
785.078
785.172
785.265
785.357
785.449
785.54
785.63
785.719
785.808
785.896
785.983
786.07
786.155
786.24
786.324
786.407
786.49
786.571
786.652
786.732
786.811
786.889
786.966
787.043
787.119
787.194
787.268
787.342
787.413
787.486
787.555
787.628
787.694
787.766
787.829
787.902
787.961
788.034
788.089
788.163
788.213
788.29
788.335
788.414
788.453
788.534
788.569
788.65
788.683
788.762
788.794
788.871
788.902
788.977
789.008
789.085
774.928
774.917
774.905
774.896
774.895
774.896
774.899
774.905
774.915
774.927
774.94
774.955
774.971
774.988
775.007
775.026
775.047
775.068
775.091
775.114
775.139
775.164
775.191
775.218
775.247
775.277
775.308
775.339
775.372
775.406
775.441
775.478
775.515
775.553
775.592
775.633
775.675
775.717
775.761
775.806
775.852
775.899
775.948
775.997
776.048
776.099
776.152
776.206
776.261
776.317
776.375
776.433
776.493
776.554
776.616
776.679
776.743
776.808
776.875
776.942
777.011
777.081
777.152
777.224
777.297
777.371
777.447
777.523
777.6
777.679
777.759
777.84
777.921
778.004
778.088
778.172
778.258
778.346
778.434
778.523
778.613
778.704
778.796
778.889
778.982
779.075
779.169
779.263
779.358
779.454
779.551
779.648
779.747
779.846
779.946
780.046
780.148
780.25
780.353
780.457
780.561
780.665
780.77
780.875
780.98
781.084
781.189
781.294
781.399
781.505
781.611
781.717
781.823
781.929
782.035
782.14
782.245
782.35
782.455
782.56
782.665
782.769
782.874
782.978
783.082
783.187
783.291
783.396
783.5
783.603
783.707
783.81
783.912
784.013
784.113
784.212
784.311
784.409
784.506
784.602
784.698
784.794
784.889
784.984
785.078
785.172
785.265
785.357
785.449
785.54
785.63
785.719
785.808
785.896
785.983
786.07
786.155
786.24
786.324
786.407
786.49
786.571
786.652
786.732
786.811
786.889
786.967
787.043
787.119
787.194
787.268
787.341
787.414
787.485
787.556
787.627
787.695
787.765
787.83
787.9
787.963
788.029
788.096
788.153
788.227
788.274
788.352
788.396
788.47
788.518
788.582
788.641
788.687
788.76
788.796
788.864
788.911
788.969
789.012
789.067
774.928
774.916
774.905
774.896
774.894
774.895
774.898
774.905
774.915
774.926
774.94
774.955
774.971
774.988
775.006
775.026
775.046
775.068
775.09
775.114
775.138
775.164
775.191
775.218
775.247
775.277
775.307
775.339
775.372
775.406
775.441
775.477
775.515
775.553
775.592
775.633
775.674
775.717
775.761
775.806
775.852
775.899
775.947
775.997
776.047
776.099
776.152
776.206
776.261
776.317
776.375
776.433
776.493
776.554
776.616
776.679
776.743
776.808
776.874
776.942
777.011
777.081
777.152
777.224
777.297
777.371
777.446
777.523
777.6
777.679
777.759
777.84
777.921
778.004
778.087
778.172
778.258
778.345
778.434
778.523
778.613
778.704
778.796
778.888
778.982
779.075
779.169
779.263
779.358
779.454
779.551
779.648
779.747
779.846
779.946
780.046
780.148
780.25
780.353
780.457
780.561
780.665
780.77
780.875
780.98
781.084
781.189
781.294
781.399
781.505
781.611
781.717
781.823
781.929
782.035
782.14
782.245
782.35
782.455
782.56
782.665
782.769
782.874
782.978
783.082
783.187
783.291
783.396
783.5
783.603
783.707
783.81
783.912
784.013
784.113
784.212
784.311
784.409
784.506
784.602
784.698
784.794
784.889
784.984
785.078
785.172
785.265
785.357
785.449
785.54
785.63
785.719
785.808
785.896
785.983
786.07
786.155
786.24
786.324
786.407
786.49
786.571
786.652
786.732
786.811
786.889
786.967
787.043
787.119
787.194
787.268
787.341
787.414
787.485
787.557
787.625
787.698
787.761
787.835
787.894
787.969
788.024
788.099
788.151
788.227
788.275
788.351
788.395
788.473
788.511
788.593
788.626
788.706
788.739
788.816
788.848
788.924
788.955
789.025
789.064
774.928
774.916
774.904
774.896
774.894
774.895
774.898
774.905
774.914
774.926
774.94
774.954
774.971
774.988
775.006
775.026
775.046
775.068
775.09
775.114
775.138
775.164
775.19
775.218
775.247
775.276
775.307
775.339
775.372
775.406
775.441
775.477
775.514
775.553
775.592
775.633
775.674
775.717
775.761
775.806
775.852
775.899
775.947
775.997
776.047
776.099
776.152
776.206
776.261
776.317
776.374
776.433
776.493
776.553
776.615
776.678
776.743
776.808
776.874
776.942
777.011
777.08
777.151
777.223
777.297
777.371
777.446
777.523
777.6
777.679
777.759
777.839
777.921
778.004
778.087
778.172
778.258
778.345
778.433
778.522
778.613
778.704
778.796
778.888
778.981
779.075
779.169
779.263
779.358
779.454
779.551
779.648
779.746
779.846
779.945
780.046
780.148
780.25
780.353
780.457
780.561
780.665
780.77
780.875
780.979
781.084
781.189
781.294
781.399
781.505
781.611
781.717
781.823
781.929
782.035
782.14
782.245
782.35
782.455
782.56
782.664
782.769
782.874
782.978
783.082
783.187
783.291
783.396
783.5
783.603
783.707
783.81
783.912
784.013
784.113
784.212
784.311
784.408
784.506
784.602
784.698
784.794
784.889
784.984
785.078
785.172
785.265
785.357
785.449
785.54
785.63
785.719
785.808
785.896
785.983
786.07
786.155
786.24
786.324
786.407
786.49
786.571
786.652
786.732
786.811
786.889
786.967
787.043
787.119
787.194
787.268
787.341
787.414
787.485
787.558
787.625
787.698
787.761
787.835
787.894
787.969
788.024
788.1
788.151
788.228
788.274
788.353
788.394
788.474
788.511
788.593
788.626
788.706
788.739
788.816
788.848
788.925
788.954
789.039
789.064
774.928
774.916
774.904
774.896
774.894
774.895
774.898
774.905
774.914
774.926
774.94
774.954
774.971
774.988
775.006
775.026
775.046
775.068
775.09
775.114
775.138
775.164
775.19
775.218
775.247
775.276
775.307
775.339
775.372
775.406
775.441
775.477
775.514
775.553
775.592
775.633
775.674
775.717
775.761
775.806
775.852
775.899
775.947
775.997
776.047
776.099
776.152
776.206
776.261
776.317
776.375
776.433
776.493
776.553
776.615
776.678
776.743
776.808
776.874
776.942
777.011
777.081
777.151
777.223
777.297
777.371
777.446
777.523
777.6
777.679
777.759
777.839
777.921
778.004
778.087
778.172
778.258
778.345
778.433
778.523
778.613
778.704
778.796
778.888
778.982
779.075
779.169
779.263
779.358
779.454
779.551
779.648
779.747
779.846
779.945
780.046
780.148
780.25
780.353
780.457
780.561
780.665
780.77
780.875
780.98
781.084
781.189
781.294
781.399
781.505
781.611
781.717
781.823
781.929
782.035
782.14
782.245
782.35
782.455
782.56
782.665
782.769
782.874
782.978
783.082
783.187
783.291
783.396
783.5
783.603
783.707
783.81
783.912
784.013
784.113
784.212
784.311
784.409
784.506
784.602
784.699
784.794
784.89
784.984
785.078
785.172
785.265
785.357
785.449
785.54
785.63
785.72
785.808
785.896
785.983
786.07
786.155
786.24
786.324
786.407
786.49
786.571
786.652
786.732
786.811
786.889
786.967
787.043
787.119
787.194
787.268
787.341
787.414
787.485
787.558
787.625
787.698
787.761
787.835
787.894
787.969
788.024
788.1
788.15
788.228
788.273
788.353
788.393
788.475
788.511
788.593
788.626
788.706
788.739
788.816
788.848
788.926
788.954
789.044
789.07
774.956
774.944
774.932
774.924
774.922
774.923
774.926
774.932
774.942
774.953
774.967
774.982
774.998
775.015
775.033
775.053
775.073
775.094
775.117
775.14
775.165
775.19
775.217
775.245
775.273
775.303
775.334
775.365
775.398
775.432
775.467
775.503
775.54
775.579
775.618
775.658
775.7
775.743
775.786
775.831
775.877
775.924
775.973
776.022
776.072
776.124
776.177
776.231
776.286
776.342
776.399
776.458
776.517
776.578
776.64
776.703
776.767
776.832
776.899
776.966
777.035
777.105
777.176
777.248
777.321
777.395
777.47
777.547
777.624
777.703
777.782
777.863
777.945
778.027
778.111
778.196
778.282
778.369
778.457
778.546
778.636
778.727
778.819
778.911
779.004
779.097
779.191
779.285
779.38
779.476
779.572
779.67
779.768
779.867
779.967
780.068
780.17
780.272
780.375
780.478
780.582
780.687
780.791
780.896
781
781.105
781.21
781.315
781.42
781.526
781.632
781.738
781.844
781.949
782.055
782.16
782.265
782.37
782.474
782.579
782.684
782.788
782.893
782.997
783.102
783.206
783.311
783.415
783.519
783.623
783.726
783.829
783.931
784.032
784.131
784.23
784.329
784.426
784.523
784.62
784.716
784.812
784.907
785.002
785.096
785.19
785.283
785.375
785.466
785.557
785.647
785.737
785.825
785.913
786
786.086
786.172
786.257
786.341
786.424
786.506
786.588
786.668
786.748
786.827
786.906
786.983
787.06
787.136
787.21
787.285
787.358
787.431
787.501
787.574
787.641
787.715
787.778
787.852
787.911
787.986
788.041
788.117
788.167
788.245
788.29
788.37
788.41
788.492
788.527
788.609
788.643
788.723
788.756
788.833
788.865
788.942
788.97
789.069
789.077
789.11
789.124
789.139
789.157
789.181
789.209
789.237
789.259
789.275
789.287
789.297
789.307
789.317
789.326
789.336
789.346
789.356
789.367
789.378
789.387
789.114
789.13
789.143
789.156
789.17
789.186
789.203
789.221
789.239
789.255
789.271
789.285
789.296
789.305
789.314
789.323
789.331
789.34
789.349
789.356
789.122
789.134
789.146
789.159
789.17
789.184
789.198
789.212
789.231
789.245
789.265
789.276
789.292
789.301
789.314
789.319
789.329
789.334
789.341
789.35
789.108
789.119
789.133
789.143
789.158
789.167
789.182
789.191
789.206
789.217
789.233
789.246
789.266
789.281
789.302
789.317
789.334
789.346
789.359
789.368
789.108
789.119
789.129
789.138
789.147
789.156
789.165
789.173
789.182
789.191
789.198
789.207
789.216
789.224
789.232
789.24
789.249
789.259
789.268
789.278
789.101
789.108
789.118
789.128
789.139
789.149
789.161
789.171
789.183
789.193
789.205
789.215
789.229
789.241
789.256
789.27
789.287
789.303
789.319
789.335
789.097
789.105
789.113
789.121
789.13
789.136
789.144
789.15
789.158
789.164
789.171
789.175
789.181
789.184
789.19
789.196
789.2
789.207
789.213
789.221
789.093
789.097
789.103
789.11
789.118
789.127
789.136
789.144
789.152
789.159
789.166
789.173
789.18
789.186
789.192
789.2
789.209
789.219
789.229
789.238
789.089
789.092
789.096
789.101
789.106
789.11
789.114
789.116
789.119
789.122
789.125
789.127
789.131
789.134
789.138
789.142
789.147
789.153
789.16
789.168
789.087
789.085
789.086
789.088
789.09
789.093
789.097
789.101
789.105
789.11
789.114
789.119
789.124
789.131
789.138
789.147
789.155
789.166
789.175
789.185
789.407
789.452
789.473
789.491
789.52
789.559
789.597
789.628
789.654
789.68
789.709
789.741
789.776
789.811
789.845
789.875
789.904
789.932
789.96
789.989
790.018
790.047
790.075
790.103
790.13
790.158
790.184
790.211
790.237
790.263
790.289
790.314
790.339
790.364
790.388
790.412
790.435
790.458
790.481
790.504
790.526
790.548
790.569
790.59
790.611
790.631
790.651
790.671
790.691
790.711
790.73
790.749
790.767
790.785
790.802
790.819
790.836
790.853
790.869
790.885
790.9
790.916
790.931
790.946
790.961
790.976
790.99
791.003
791.017
791.031
791.044
791.057
791.07
791.083
791.095
791.107
791.119
791.13
791.141
791.151
791.162
791.172
791.182
791.192
791.202
791.212
791.221
791.23
791.239
791.248
791.256
791.264
791.272
791.279
791.287
791.294
791.301
791.309
791.315
791.322
791.328
791.334
791.339
791.345
791.351
791.357
791.363
791.369
791.374
791.38
791.385
791.389
791.394
791.398
791.403
791.407
791.411
791.415
791.418
791.422
791.426
791.429
791.432
791.435
791.438
791.441
791.444
791.447
791.45
791.454
791.457
791.459
791.462
791.465
791.467
791.469
791.472
791.474
791.476
791.478
791.48
791.482
791.484
791.486
791.487
791.487
791.487
791.487
791.487
791.488
791.49
791.49
791.49
791.487
791.482
791.475
791.466
791.457
791.449
791.447
791.455
791.462
791.446
791.417
791.378
791.352
791.361
791.489
791.861
792.318
792.787
793.244
793.661
794.023
794.321
794.537
794.646
794.661
794.649
794.595
794.405
793.9
793.332
792.821
792.398
792.076
791.851
791.69
791.576
791.486
791.429
791.391
791.386
791.382
791.395
791.391
791.402
791.396
791.41
791.406
789.367
789.407
789.442
789.465
789.49
789.524
789.56
789.592
789.619
789.644
789.669
789.698
789.729
789.763
789.796
789.828
789.857
789.884
789.911
789.939
789.967
789.995
790.024
790.051
790.079
790.105
790.132
790.158
790.185
790.21
790.236
790.261
790.286
790.31
790.335
790.359
790.382
790.405
790.428
790.45
790.472
790.494
790.516
790.537
790.557
790.578
790.598
790.617
790.637
790.656
790.675
790.694
790.713
790.731
790.748
790.765
790.782
790.798
790.815
790.83
790.846
790.861
790.876
790.891
790.906
790.921
790.935
790.949
790.963
790.976
790.989
791.002
791.014
791.027
791.04
791.052
791.064
791.075
791.086
791.097
791.107
791.117
791.127
791.137
791.146
791.156
791.165
791.174
791.183
791.192
791.201
791.209
791.217
791.224
791.232
791.239
791.246
791.253
791.26
791.266
791.273
791.279
791.285
791.291
791.296
791.301
791.306
791.312
791.317
791.322
791.328
791.333
791.338
791.343
791.347
791.351
791.355
791.359
791.362
791.366
791.37
791.373
791.376
791.38
791.383
791.386
791.388
791.391
791.394
791.397
791.4
791.403
791.406
791.408
791.411
791.414
791.416
791.418
791.42
791.423
791.425
791.427
791.429
791.431
791.433
791.435
791.435
791.437
791.438
791.438
791.439
791.44
791.44
791.438
791.438
791.436
791.431
791.426
791.425
791.427
791.43
791.432
791.432
791.423
791.401
791.361
791.322
791.295
791.266
791.229
791.181
791.135
791.103
791.097
791.128
791.216
791.329
791.447
791.565
791.677
791.767
791.843
791.867
791.861
791.835
791.775
791.703
791.623
791.551
791.486
791.443
791.41
791.399
791.387
791.389
791.383
791.389
791.385
791.392
791.393
789.362
789.405
789.442
789.468
789.495
789.529
789.566
789.599
789.627
789.653
789.679
789.708
789.74
789.774
789.807
789.837
789.865
789.893
789.92
789.949
789.978
790.006
790.034
790.062
790.089
790.116
790.142
790.169
790.195
790.221
790.246
790.272
790.297
790.321
790.345
790.369
790.393
790.416
790.438
790.461
790.483
790.505
790.526
790.547
790.568
790.588
790.608
790.628
790.648
790.667
790.686
790.705
790.723
790.741
790.759
790.776
790.793
790.809
790.825
790.841
790.857
790.872
790.887
790.902
790.917
790.932
790.946
790.96
790.973
790.987
791
791.012
791.025
791.038
791.05
791.062
791.074
791.086
791.097
791.108
791.118
791.128
791.138
791.147
791.157
791.166
791.176
791.185
791.194
791.203
791.211
791.219
791.227
791.235
791.242
791.249
791.256
791.263
791.27
791.277
791.283
791.289
791.295
791.301
791.306
791.311
791.317
791.322
791.327
791.333
791.338
791.343
791.348
791.353
791.357
791.361
791.365
791.369
791.373
791.376
791.38
791.383
791.386
791.389
791.392
791.395
791.398
791.4
791.403
791.406
791.409
791.412
791.415
791.417
791.42
791.422
791.425
791.427
791.429
791.431
791.433
791.435
791.437
791.439
791.441
791.443
791.444
791.445
791.446
791.447
791.448
791.449
791.449
791.45
791.448
791.443
791.442
791.438
791.433
791.437
791.446
791.449
791.447
791.433
791.404
791.357
791.303
791.253
791.212
791.171
791.132
791.094
791.068
791.053
791.066
791.098
791.164
791.219
791.3
791.357
791.434
791.475
791.528
791.545
791.559
791.551
791.533
791.507
791.481
791.452
791.433
791.411
791.404
791.392
791.393
791.387
791.392
791.387
791.395
791.392
789.383
789.422
789.468
789.511
789.547
789.582
789.619
789.659
789.698
789.734
789.767
789.798
789.83
789.864
789.899
789.933
789.967
789.999
790.029
790.058
790.086
790.114
790.143
790.171
790.199
790.226
790.254
790.28
790.307
790.333
790.359
790.384
790.409
790.433
790.458
790.481
790.505
790.528
790.551
790.573
790.596
790.617
790.639
790.66
790.68
790.701
790.721
790.741
790.76
790.78
790.799
790.818
790.836
790.854
790.872
790.889
790.905
790.922
790.938
790.954
790.969
790.985
791
791.015
791.03
791.044
791.058
791.072
791.086
791.099
791.112
791.126
791.138
791.151
791.164
791.176
791.187
791.198
791.209
791.22
791.23
791.24
791.25
791.26
791.27
791.279
791.289
791.298
791.307
791.316
791.324
791.332
791.34
791.347
791.355
791.362
791.369
791.376
791.383
791.389
791.395
791.401
791.407
791.413
791.419
791.424
791.43
791.436
791.441
791.446
791.451
791.456
791.461
791.465
791.469
791.473
791.477
791.481
791.485
791.488
791.492
791.495
791.498
791.501
791.504
791.508
791.511
791.514
791.517
791.52
791.523
791.526
791.528
791.53
791.532
791.535
791.537
791.539
791.542
791.544
791.545
791.547
791.548
791.547
791.549
791.55
791.55
791.551
791.552
791.55
791.547
791.544
791.539
791.533
791.529
791.528
791.528
791.528
791.529
791.526
791.516
791.497
791.471
791.444
791.42
791.398
791.378
791.358
791.339
791.324
791.317
791.313
791.325
791.332
791.356
791.369
791.393
791.409
791.427
791.44
791.452
791.453
791.46
791.451
791.452
791.441
791.436
791.424
791.421
791.41
791.41
791.401
791.405
791.398
791.403
791.396
791.403
791.396
791.399
791.398
789.302
789.346
789.385
789.424
789.463
789.499
789.531
789.559
789.587
789.616
789.645
789.676
789.709
789.741
789.773
789.804
789.833
789.863
789.893
789.923
789.952
789.981
790.01
790.038
790.065
790.092
790.118
790.144
790.17
790.196
790.221
790.246
790.271
790.296
790.32
790.344
790.367
790.39
790.413
790.435
790.458
790.479
790.501
790.522
790.543
790.563
790.583
790.603
790.622
790.641
790.66
790.679
790.697
790.715
790.733
790.75
790.767
790.784
790.8
790.817
790.832
790.848
790.863
790.878
790.892
790.907
790.921
790.934
790.948
790.961
790.975
790.988
791
791.012
791.024
791.036
791.048
791.059
791.07
791.082
791.092
791.103
791.113
791.123
791.133
791.142
791.151
791.16
791.169
791.177
791.186
791.194
791.202
791.21
791.218
791.225
791.232
791.239
791.246
791.252
791.259
791.265
791.271
791.277
791.282
791.288
791.293
791.298
791.303
791.308
791.313
791.317
791.322
791.326
791.331
791.335
791.34
791.344
791.348
791.352
791.356
791.359
791.363
791.366
791.37
791.373
791.376
791.379
791.382
791.385
791.388
791.39
791.393
791.396
791.399
791.401
791.404
791.407
791.409
791.412
791.414
791.416
791.418
791.421
791.423
791.425
791.427
791.429
791.431
791.432
791.433
791.435
791.437
791.438
791.439
791.441
791.442
791.441
791.44
791.439
791.44
791.442
791.443
791.443
791.44
791.433
791.426
791.415
791.405
791.396
791.388
791.385
791.38
791.385
791.383
791.392
791.393
791.4
791.404
791.405
791.412
791.409
791.415
791.411
791.413
791.411
791.409
791.412
791.405
791.411
791.404
791.407
791.406
791.403
791.406
791.404
791.404
791.402
791.405
791.402
789.368
789.432
789.5
789.567
789.631
789.693
789.751
789.805
789.856
789.904
789.949
789.993
790.036
790.076
790.115
790.152
790.188
790.222
790.254
790.286
790.316
790.346
790.375
790.404
790.432
790.459
790.486
790.513
790.54
790.566
790.591
790.617
790.642
790.666
790.691
790.714
790.738
790.761
790.784
790.807
790.829
790.85
790.872
790.893
790.913
790.934
790.955
790.975
790.995
791.014
791.033
791.052
791.07
791.087
791.105
791.121
791.138
791.154
791.17
791.186
791.202
791.218
791.233
791.247
791.262
791.277
791.291
791.305
791.319
791.333
791.346
791.359
791.372
791.384
791.395
791.407
791.418
791.429
791.44
791.451
791.461
791.472
791.482
791.492
791.501
791.51
791.518
791.527
791.535
791.544
791.552
791.56
791.568
791.575
791.582
791.589
791.596
791.603
791.609
791.616
791.623
791.63
791.636
791.642
791.648
791.654
791.659
791.664
791.669
791.673
791.678
791.682
791.686
791.69
791.694
791.697
791.7
791.703
791.705
791.708
791.71
791.712
791.714
791.715
791.717
791.718
791.718
791.719
791.719
791.719
791.718
791.717
791.715
791.713
791.711
791.708
791.706
791.705
791.703
791.7
791.698
791.694
791.688
791.682
791.676
791.668
791.66
791.652
791.645
791.64
791.638
791.636
791.635
791.633
791.63
791.623
791.61
791.594
791.573
791.551
791.527
791.502
791.476
791.452
791.429
791.412
791.394
791.382
791.368
791.36
791.349
791.347
791.339
791.341
791.337
791.347
791.348
791.366
791.369
791.39
791.391
791.411
791.407
791.423
791.416
791.428
791.419
791.429
791.419
791.427
791.417
791.424
791.414
791.421
791.412
791.418
791.409
791.415
791.406
791.411
789.237
789.249
789.27
789.297
789.328
789.36
789.391
789.422
789.452
789.481
789.511
789.54
789.569
789.599
789.628
789.657
789.685
789.713
789.74
789.768
789.796
789.823
789.85
789.877
789.904
789.93
789.956
789.982
790.008
790.033
790.057
790.081
790.105
790.129
790.153
790.176
790.199
790.222
790.244
790.266
790.288
790.31
790.331
790.352
790.373
790.393
790.413
790.433
790.453
790.472
790.49
790.509
790.527
790.545
790.563
790.58
790.597
790.613
790.63
790.646
790.661
790.677
790.692
790.708
790.723
790.737
790.752
790.766
790.779
790.793
790.806
790.818
790.831
790.843
790.856
790.867
790.879
790.891
790.902
790.913
790.924
790.934
790.945
790.955
790.964
790.974
790.983
790.992
791.001
791.01
791.019
791.028
791.036
791.044
791.052
791.059
791.066
791.073
791.08
791.086
791.093
791.099
791.106
791.112
791.118
791.124
791.129
791.135
791.14
791.144
791.149
791.153
791.158
791.162
791.167
791.171
791.175
791.179
791.184
791.187
791.191
791.195
791.198
791.201
791.203
791.206
791.209
791.212
791.215
791.218
791.221
791.224
791.227
791.229
791.231
791.234
791.236
791.238
791.24
791.242
791.244
791.246
791.248
791.25
791.252
791.253
791.254
791.255
791.256
791.257
791.257
791.257
791.257
791.257
791.258
791.261
791.263
791.263
791.262
791.264
791.267
791.269
791.27
791.274
791.275
791.275
791.275
791.279
791.286
791.301
791.307
791.321
791.324
791.319
791.306
791.28
791.253
791.239
791.235
791.251
791.267
791.304
791.318
791.353
791.36
791.386
791.386
791.404
791.4
791.413
791.407
791.416
791.409
791.417
791.409
791.415
791.407
791.41
791.409
791.41
789.26
789.31
789.37
789.437
789.508
789.578
789.645
789.71
789.771
789.83
789.885
789.938
789.989
790.036
790.082
790.124
790.165
790.203
790.238
790.272
790.304
790.335
790.365
790.394
790.422
790.45
790.477
790.504
790.53
790.556
790.582
790.607
790.632
790.656
790.681
790.704
790.728
790.751
790.774
790.796
790.819
790.84
790.861
790.882
790.903
790.923
790.943
790.963
790.983
791.003
791.023
791.041
791.059
791.077
791.094
791.111
791.127
791.143
791.159
791.175
791.191
791.206
791.221
791.236
791.25
791.264
791.278
791.292
791.305
791.319
791.332
791.344
791.356
791.367
791.378
791.388
791.398
791.408
791.418
791.428
791.437
791.447
791.455
791.464
791.472
791.479
791.486
791.493
791.501
791.508
791.515
791.522
791.528
791.534
791.54