/*--------------------------------*- C++ -*----------------------------------*\
| =========                 |                                                 |
| \\      /  F ield         | OpenFOAM: The Open Source CFD Toolbox           |
|  \\    /   O peration     | Version:  3.0.x                                 |
|   \\  /    A nd           | Web:      www.OpenFOAM.org                      |
|    \\/     M anipulation  |                                                 |
\*---------------------------------------------------------------------------*/
FoamFile
{
    version     2.0;
    format      ascii;
    class       surfaceScalarField;
    location    "0.49";
    object      phi;
}
// * * * * * * * * * * * * * * * * * * * * * * * * * * * * * * * * * * * * * //

dimensions      [1 0 -1 0 0 0 0];

internalField   nonuniform List<scalar> 
52430
(
3.90719
0.000243681
3.90629
0.000176216
3.9054
0.000169214
3.9045
0.000170464
3.90359
0.000170894
3.90269
0.000170837
3.90178
0.000170837
3.90086
0.00017083
3.89995
0.000170834
3.89903
0.00017084
3.8981
0.000170841
3.89718
0.000170841
3.89625
0.000170841
3.89531
0.000170841
3.89438
0.000170842
3.89344
0.000170842
3.89249
0.000170843
3.89154
0.000170844
3.89058
0.000170845
3.88962
0.000170846
3.88866
0.000170848
3.88769
0.00017085
3.88671
0.000170852
3.88573
0.000170855
3.88474
0.000170857
3.88375
0.00017086
3.88275
0.000170864
3.88174
0.000170867
3.88073
0.000170871
3.8797
0.000170875
3.87868
0.00017088
3.87764
0.000170885
3.8766
0.00017089
3.87555
0.000170895
3.87449
0.0001709
3.87342
0.000170906
3.87235
0.000170912
3.87126
0.000170919
3.87017
0.000170926
3.86907
0.000170933
3.86796
0.00017094
3.86684
0.000170948
3.86571
0.000170956
3.86458
0.000170964
3.86343
0.000170972
3.86227
0.000170981
3.8611
0.00017099
3.85992
0.000171
3.85874
0.00017101
3.85754
0.00017102
3.85633
0.00017103
3.85511
0.000171041
3.85387
0.000171052
3.85263
0.000171063
3.85138
0.000171075
3.85011
0.000171086
3.84883
0.000171099
3.84754
0.000171111
3.84624
0.000171123
3.84493
0.000171136
3.8436
0.000171149
3.84226
0.000171163
3.84091
0.000171177
3.83955
0.00017119
3.83817
0.000171204
3.83678
0.000171218
3.83538
0.000171232
3.83396
0.000171247
3.83253
0.000171261
3.83109
0.000171276
3.82963
0.000171291
3.82816
0.000171307
3.82667
0.000171323
3.82517
0.000171339
3.82366
0.000171355
3.82213
0.000171372
3.82058
0.000171389
3.81902
0.000171405
3.81745
0.000171422
3.81586
0.000171439
3.81426
0.000171457
3.81264
0.000171476
3.811
0.000171495
3.80936
0.000171514
3.80769
0.000171534
3.80602
0.000171554
3.80432
0.000171575
3.80262
0.000171598
3.80089
0.000171621
3.79915
0.000171646
3.7974
0.000171671
3.79563
0.000171697
3.79384
0.000171722
3.79203
0.000171748
3.79021
0.000171774
3.78837
0.000171802
3.78652
0.000171829
3.78464
0.000171856
3.78275
0.000171883
3.78084
0.000171908
3.77892
0.000171933
3.77697
0.000171958
3.77501
0.000171984
3.77303
0.000172011
3.77104
0.000172038
3.76903
0.000172066
3.767
0.000172095
3.76496
0.000172124
3.76289
0.000172153
3.76081
0.000172184
3.75871
0.000172215
3.7566
0.000172247
3.75446
0.00017228
3.75231
0.000172312
3.75014
0.000172343
3.74795
0.000172374
3.74574
0.000172404
3.74352
0.000172434
3.74127
0.000172466
3.73901
0.0001725
3.73673
0.000172533
3.73444
0.000172565
3.73212
0.000172597
3.72979
0.000172627
3.72743
0.000172652
3.72506
0.000172671
3.72266
0.000172684
3.72025
0.00017269
3.71782
0.000172688
3.71537
0.000172673
3.7129
0.000172642
3.71041
0.000172589
3.7079
0.00017251
3.70537
0.000172403
3.70282
0.000172261
3.70025
0.000172081
3.69766
0.000171854
3.69505
0.000171571
3.69243
0.000171222
3.68978
0.000170797
3.68712
0.000170287
3.68444
0.000169682
3.68174
0.000168969
3.67902
0.000168134
3.67628
0.000167164
3.67352
0.000166043
3.67075
0.000164758
3.66795
0.000163296
3.66514
0.000161642
3.66231
0.000159786
3.65946
0.000157717
3.65659
0.000155426
3.6537
0.000152905
3.6508
0.00015015
3.64787
0.000147157
3.64493
0.000143927
3.64198
0.000140461
3.639
0.000136766
3.63601
0.00013285
3.633
0.000128725
3.62998
0.000124405
3.62694
0.000119906
3.62388
0.000115251
3.62081
0.000110459
3.61772
0.000105556
3.61462
0.000100568
3.6115
9.55215e-05
3.60836
9.04444e-05
3.60521
8.53651e-05
3.60204
8.03116e-05
3.59886
7.53114e-05
3.59566
7.03909e-05
3.59244
6.5575e-05
3.58921
6.08868e-05
3.58595
5.63474e-05
3.58269
5.19753e-05
3.5794
4.77867e-05
3.5761
4.37949e-05
3.57278
4.00105e-05
3.56944
3.64414e-05
3.56609
3.30927e-05
3.56271
2.9967e-05
3.55932
2.70642e-05
3.55591
2.43822e-05
3.55248
2.19167e-05
3.54903
1.96616e-05
3.54556
1.76094e-05
3.54207
1.57511e-05
3.53855
1.40767e-05
3.53502
1.25755e-05
3.53147
1.12363e-05
3.5279
1.00475e-05
3.52431
8.99746e-06
3.5207
8.07455e-06
3.51706
7.2674e-06
3.5134
6.56501e-06
3.50973
5.95685e-06
3.50603
5.43293e-06
3.50231
4.98389e-06
3.49857
4.60104e-06
3.4948
4.27633e-06
3.49102
4.00244e-06
3.48721
3.77271e-06
3.48338
3.58116e-06
3.47953
3.42242e-06
3.47565
3.29175e-06
3.47176
3.18495e-06
3.46784
3.09835e-06
3.4639
3.02876e-06
3.45994
2.97341e-06
3.45595
2.92992e-06
3.45195
2.89627e-06
3.44792
2.87073e-06
3.44387
2.85184e-06
3.43979
2.83838e-06
3.4357
2.82933e-06
3.43158
2.82384e-06
3.42744
2.8212e-06
3.42327
2.82084e-06
3.41909
2.82227e-06
3.41488
2.82514e-06
3.41065
2.8291e-06
3.4064
2.83393e-06
3.40212
2.83941e-06
3.39782
2.84539e-06
3.3935
2.85173e-06
3.38916
2.85835e-06
3.3848
2.86516e-06
3.38041
2.8721e-06
3.376
2.87911e-06
3.37157
2.88615e-06
3.36711
2.8932e-06
3.36263
2.90024e-06
3.35813
2.90725e-06
3.35361
2.91422e-06
3.34906
2.92114e-06
3.3445
2.92799e-06
3.33991
2.93478e-06
3.33529
2.94149e-06
3.33066
2.94812e-06
3.326
2.95467e-06
3.32132
2.96114e-06
3.31662
2.96752e-06
3.31189
2.97381e-06
3.30715
2.98e-06
3.30238
2.98612e-06
3.29758
2.99214e-06
3.29277
2.99809e-06
3.28793
3.00394e-06
3.28307
3.0097e-06
3.27819
3.01536e-06
3.27328
3.02092e-06
3.26836
3.02637e-06
3.26341
3.03172e-06
3.25844
3.03696e-06
3.25344
3.04211e-06
3.24843
3.04716e-06
3.24339
3.05212e-06
3.23833
3.05698e-06
3.23324
3.06176e-06
3.22814
3.06644e-06
3.22301
3.07101e-06
3.21786
3.07548e-06
3.21269
3.07982e-06
3.20749
3.08404e-06
3.20228
3.08815e-06
3.19704
3.09215e-06
3.19178
3.09604e-06
3.1865
3.09983e-06
3.18119
3.10352e-06
3.17587
3.10709e-06
3.17052
3.11054e-06
3.16515
3.11386e-06
3.15976
3.11707e-06
3.15434
3.12018e-06
3.14891
3.12318e-06
3.14345
3.12608e-06
3.13797
3.12888e-06
3.13247
3.13154e-06
3.12695
3.13408e-06
3.1214
3.13648e-06
3.11584
3.13875e-06
3.11025
3.14088e-06
3.10464
3.14288e-06
3.09901
3.14476e-06
3.09336
3.14653e-06
3.08768
3.14819e-06
3.08199
3.14974e-06
3.07627
3.15117e-06
3.07054
3.15247e-06
3.06478
3.15363e-06
3.059
3.15466e-06
3.0532
3.15554e-06
3.04738
3.15627e-06
3.04153
3.15687e-06
3.03567
3.15733e-06
3.02979
3.15766e-06
3.02388
3.15785e-06
3.01795
3.15791e-06
3.01201
3.15784e-06
3.00604
3.15765e-06
3.00005
3.15732e-06
2.99404
3.15684e-06
2.98802
3.15622e-06
2.98197
3.15545e-06
2.9759
3.15454e-06
2.96981
3.15349e-06
2.9637
3.15229e-06
2.95757
3.15093e-06
2.95142
3.14943e-06
2.94525
3.14778e-06
2.93906
3.14599e-06
2.93285
3.14405e-06
2.92662
3.14197e-06
2.92037
3.13972e-06
2.9141
3.13733e-06
2.90781
3.13477e-06
2.9015
3.13207e-06
2.89517
3.12923e-06
2.88883
3.12624e-06
2.88246
3.12308e-06
2.87608
3.11976e-06
2.86967
3.11627e-06
2.86325
3.11263e-06
2.85681
3.10883e-06
2.85035
3.10488e-06
2.84387
3.10078e-06
2.83737
3.09652e-06
2.83085
3.09207e-06
2.82432
3.08744e-06
2.81776
3.08263e-06
2.81119
3.07767e-06
2.8046
3.07258e-06
2.79799
3.06734e-06
2.79137
3.06195e-06
2.78472
3.05638e-06
2.77806
3.05061e-06
2.77138
3.04464e-06
2.76468
3.03848e-06
2.75797
3.03216e-06
2.75124
3.02569e-06
2.74449
3.01908e-06
2.73772
3.01231e-06
2.73094
3.00538e-06
2.72414
2.99827e-06
2.71732
2.99098e-06
2.71049
2.98352e-06
2.70364
2.97587e-06
2.69677
2.96804e-06
2.68989
2.96e-06
2.68299
2.95176e-06
2.67607
2.94333e-06
2.66914
2.93472e-06
2.66219
2.92595e-06
2.65523
2.91702e-06
2.64825
2.90793e-06
2.64125
2.89869e-06
2.63424
2.88928e-06
2.62721
2.8797e-06
2.62017
2.8699e-06
2.61312
2.8599e-06
2.60604
2.84969e-06
2.59896
2.83928e-06
2.59186
2.82871e-06
2.58474
2.81795e-06
2.57761
2.80705e-06
2.57047
2.79593e-06
2.56331
2.7847e-06
2.55614
2.77319e-06
2.54895
2.76159e-06
2.54175
2.74966e-06
2.53453
2.73772e-06
2.52731
2.72523e-06
2.52007
2.71325e-06
2.51281
2.69986e-06
2.50554
2.68841e-06
2.49826
2.67392e-06
2.49097
2.66341e-06
2.48366
2.64977e-06
2.47635
2.64071e-06
2.46901
2.636e-06
2.46167
2.63921e-06
2.45431
2.67638e-06
2.44695
2.77058e-06
2.43957
3.03413e-06
2.43217
3.65254e-06
2.42477
5.1771e-06
2.41735
8.78172e-06
2.40991
1.74129e-05
2.40244
3.78993e-05
2.3949
8.66185e-05
2.38725
0.000202212
2.3793
0.000476344
2.3707
0.00112494
2.36056
0.00265614
2.3468
0.006259
2.32456
0.0147353
2.28203
0.0350159
2.18523
0.0892829
0.231306
1.9464
5.52603
0.000213073
5.52502
0.000170465
5.524
0.000156315
5.52298
0.000158549
5.52196
0.000159561
5.52093
0.000159463
5.51989
0.000159422
5.51885
0.000159439
5.51781
0.000159464
5.51676
0.00015948
5.51571
0.000159492
5.51465
0.000159503
5.51359
0.000159515
5.51252
0.000159526
5.51145
0.000159537
5.51037
0.000159548
5.50929
0.000159559
5.50819
0.000159571
5.5071
0.000159582
5.50599
0.000159594
5.50488
0.000159606
5.50376
0.000159619
5.50263
0.000159631
5.50149
0.000159644
5.50035
0.000159657
5.49919
0.000159671
5.49803
0.000159684
5.49686
0.000159698
5.49568
0.000159712
5.49449
0.000159727
5.49329
0.000159741
5.49208
0.000159756
5.49085
0.000159771
5.48962
0.000159787
5.48838
0.000159802
5.48712
0.000159818
5.48585
0.000159834
5.48457
0.000159851
5.48328
0.000159868
5.48198
0.000159885
5.48066
0.000159902
5.47933
0.00015992
5.47798
0.000159937
5.47663
0.000159956
5.47526
0.000159974
5.47387
0.000159993
5.47247
0.000160012
5.47106
0.000160031
5.46963
0.000160051
5.46819
0.000160071
5.46673
0.000160091
5.46525
0.000160111
5.46377
0.000160132
5.46226
0.000160153
5.46074
0.000160174
5.4592
0.000160196
5.45765
0.000160217
5.45607
0.000160239
5.45449
0.000160262
5.45288
0.000160284
5.45126
0.000160307
5.44962
0.00016033
5.44796
0.000160353
5.44628
0.000160376
5.44459
0.0001604
5.44287
0.000160423
5.44114
0.000160447
5.43939
0.000160471
5.43762
0.000160495
5.43583
0.000160519
5.43402
0.000160544
5.43219
0.000160569
5.43035
0.000160594
5.42848
0.00016062
5.42659
0.000160645
5.42468
0.000160671
5.42275
0.000160698
5.4208
0.000160723
5.41882
0.00016075
5.41683
0.000160776
5.41481
0.000160803
5.41277
0.000160831
5.41072
0.00016086
5.40864
0.000160888
5.40654
0.000160917
5.40442
0.000160946
5.40228
0.000160977
5.40012
0.000161008
5.39793
0.000161041
5.39573
0.000161075
5.3935
0.000161109
5.39124
0.000161143
5.38897
0.000161178
5.38667
0.000161212
5.38434
0.000161247
5.382
0.000161283
5.37963
0.000161319
5.37723
0.000161355
5.37481
0.000161391
5.37236
0.000161425
5.36989
0.000161459
5.3674
0.000161493
5.36488
0.000161528
5.36233
0.000161563
5.35977
0.000161599
5.35718
0.000161636
5.35456
0.000161673
5.35192
0.000161711
5.34926
0.000161749
5.34657
0.000161789
5.34386
0.000161828
5.34112
0.000161869
5.33835
0.00016191
5.33556
0.00016195
5.33274
0.00016199
5.3299
0.00016203
5.32703
0.000162068
5.32414
0.000162107
5.32122
0.000162148
5.31828
0.000162189
5.31531
0.00016223
5.31231
0.00016227
5.30929
0.00016231
5.30624
0.000162347
5.30317
0.000162379
5.30007
0.000162405
5.29694
0.000162424
5.29378
0.000162437
5.29059
0.00016244
5.28738
0.000162431
5.28414
0.000162404
5.28087
0.000162356
5.27758
0.000162281
5.27425
0.000162176
5.2709
0.000162037
5.26752
0.000161857
5.26411
0.00016163
5.26068
0.000161345
5.25722
0.000160994
5.25373
0.000160566
5.25021
0.000160052
5.24667
0.000159441
5.2431
0.000158723
5.2395
0.000157882
5.23587
0.000156907
5.23222
0.000155782
5.22854
0.000154494
5.22483
0.000153031
5.22109
0.000151381
5.21732
0.000149532
5.21352
0.000147476
5.20969
0.000145205
5.20583
0.000142712
5.20195
0.000139995
5.19803
0.00013705
5.19409
0.000133881
5.19012
0.00013049
5.18611
0.000126884
5.18208
0.000123074
5.17802
0.000119071
5.17393
0.000114892
5.16981
0.000110553
5.16566
0.000106076
5.16148
0.000101482
5.15727
9.67968e-05
5.15303
9.20443e-05
5.14876
8.72515e-05
5.14446
8.24451e-05
5.14013
7.76522e-05
5.13577
7.28992e-05
5.13138
6.82117e-05
5.12696
6.36142e-05
5.12251
5.91294e-05
5.11803
5.47781e-05
5.11351
5.0579e-05
5.10897
4.65484e-05
5.1044
4.27001e-05
5.0998
3.9045e-05
5.09516
3.55916e-05
5.0905
3.23459e-05
5.0858
2.9311e-05
5.08107
2.64879e-05
5.07632
2.38753e-05
5.07153
2.14697e-05
5.06671
1.92659e-05
5.06186
1.72572e-05
5.05698
1.54356e-05
5.05207
1.37918e-05
5.04713
1.23158e-05
5.04215
1.09972e-05
5.03715
9.82505e-06
5.03211
8.78819e-06
5.02704
7.87559e-06
5.02195
7.07635e-06
5.01682
6.37988e-06
5.01166
5.77601e-06
5.00646
5.25508e-06
5.00124
4.80798e-06
4.99599
4.42625e-06
4.9907
4.10204e-06
4.98539
3.82817e-06
4.98004
3.59812e-06
4.97466
3.406e-06
4.96925
3.24653e-06
4.96381
3.11503e-06
4.95833
3.00733e-06
4.95283
2.91982e-06
4.94729
2.84932e-06
4.94172
2.79307e-06
4.93612
2.74872e-06
4.93049
2.71425e-06
4.92483
2.68792e-06
4.91914
2.66829e-06
4.91341
2.65414e-06
4.90766
2.64442e-06
4.90187
2.6383e-06
4.89605
2.63505e-06
4.89019
2.63412e-06
4.88431
2.63502e-06
4.87839
2.63735e-06
4.87245
2.64082e-06
4.86647
2.64516e-06
4.86046
2.65017e-06
4.85442
2.6557e-06
4.84834
2.6616e-06
4.84224
2.66778e-06
4.8361
2.67416e-06
4.82993
2.68068e-06
4.82373
2.68729e-06
4.81749
2.69394e-06
4.81123
2.70061e-06
4.80493
2.70726e-06
4.79861
2.71389e-06
4.79225
2.72049e-06
4.78585
2.72705e-06
4.77943
2.73354e-06
4.77297
2.73998e-06
4.76649
2.74635e-06
4.75997
2.75265e-06
4.75342
2.75887e-06
4.74683
2.76502e-06
4.74022
2.77109e-06
4.73357
2.77707e-06
4.72689
2.78297e-06
4.72018
2.78878e-06
4.71344
2.79452e-06
4.70667
2.80017e-06
4.69986
2.80575e-06
4.69303
2.81125e-06
4.68616
2.81665e-06
4.67926
2.82196e-06
4.67233
2.82718e-06
4.66536
2.8323e-06
4.65837
2.83732e-06
4.65134
2.84224e-06
4.64428
2.84708e-06
4.63719
2.85182e-06
4.63007
2.85648e-06
4.62292
2.86104e-06
4.61574
2.86553e-06
4.60852
2.86993e-06
4.60127
2.87423e-06
4.59399
2.87842e-06
4.58668
2.8825e-06
4.57934
2.88648e-06
4.57197
2.89034e-06
4.56457
2.8941e-06
4.55713
2.89777e-06
4.54967
2.90134e-06
4.54217
2.90481e-06
4.53464
2.90817e-06
4.52708
2.91141e-06
4.51949
2.91455e-06
4.51187
2.91757e-06
4.50422
2.9205e-06
4.49654
2.92333e-06
4.48882
2.92607e-06
4.48108
2.9287e-06
4.4733
2.93122e-06
4.4655
2.93362e-06
4.45766
2.93588e-06
4.44979
2.93802e-06
4.4419
2.94004e-06
4.43397
2.94193e-06
4.42601
2.94371e-06
4.41802
2.94539e-06
4.41
2.94697e-06
4.40195
2.94844e-06
4.39387
2.9498e-06
4.38576
2.95103e-06
4.37763
2.95214e-06
4.36946
2.95312e-06
4.36126
2.95398e-06
4.35303
2.95469e-06
4.34477
2.95527e-06
4.33648
2.95572e-06
4.32817
2.95605e-06
4.31982
2.95625e-06
4.31144
2.95633e-06
4.30304
2.95628e-06
4.2946
2.95613e-06
4.28614
2.95584e-06
4.27765
2.95542e-06
4.26913
2.95486e-06
4.26058
2.95416e-06
4.252
2.95333e-06
4.24339
2.95238e-06
4.23475
2.95128e-06
4.22609
2.95004e-06
4.21739
2.94865e-06
4.20867
2.94714e-06
4.19992
2.94549e-06
4.19115
2.94369e-06
4.18234
2.94177e-06
4.17351
2.93969e-06
4.16464
2.93747e-06
4.15576
2.93511e-06
4.14684
2.93261e-06
4.1379
2.92998e-06
4.12892
2.9272e-06
4.11993
2.92427e-06
4.1109
2.92119e-06
4.10185
2.91795e-06
4.09277
2.91457e-06
4.08366
2.91105e-06
4.07453
2.90738e-06
4.06537
2.90358e-06
4.05618
2.89962e-06
4.04697
2.89548e-06
4.03774
2.89117e-06
4.02847
2.88671e-06
4.01918
2.8821e-06
4.00987
2.87737e-06
4.00053
2.8725e-06
3.99116
2.86748e-06
3.98177
2.86229e-06
3.97235
2.85693e-06
3.96291
2.85138e-06
3.95344
2.84565e-06
3.94395
2.83976e-06
3.93443
2.83374e-06
3.92489
2.82759e-06
3.91533
2.82129e-06
3.90574
2.81484e-06
3.89613
2.80822e-06
3.88649
2.80144e-06
3.87683
2.79449e-06
3.86715
2.78736e-06
3.85744
2.78006e-06
3.84771
2.77258e-06
3.83795
2.7649e-06
3.82818
2.75705e-06
3.81838
2.74903e-06
3.80856
2.74086e-06
3.79871
2.73255e-06
3.78885
2.72408e-06
3.77896
2.71547e-06
3.76905
2.7067e-06
3.75911
2.69776e-06
3.74916
2.68864e-06
3.73919
2.6793e-06
3.72919
2.66979e-06
3.71917
2.66009e-06
3.70913
2.65025e-06
3.69907
2.6402e-06
3.689
2.63007e-06
3.6789
2.61966e-06
3.66878
2.60925e-06
3.65864
2.59844e-06
3.64848
2.58771e-06
3.6383
2.57648e-06
3.6281
2.56548e-06
3.61788
2.5537e-06
3.60764
2.54275e-06
3.59739
2.53012e-06
3.58711
2.51982e-06
3.57682
2.50668e-06
3.56651
2.49737e-06
3.55618
2.48853e-06
3.54584
2.48208e-06
3.53547
2.49556e-06
3.52509
2.51991e-06
3.51469
2.63365e-06
3.50428
2.87913e-06
3.49384
3.53821e-06
3.48339
5.04774e-06
3.47292
8.74625e-06
3.46243
1.74527e-05
3.45191
3.82778e-05
3.44135
8.76692e-05
3.4307
0.000205104
3.41988
0.000483705
3.40865
0.0011444
3.39649
0.00270766
3.38216
0.00639849
3.36273
0.0150846
3.33133
0.0355269
3.2713
0.0844184
3.13732
0.212629
0.528649
2.82934
7.81498
0.00017614
7.81355
0.000158753
7.81212
0.000139056
7.81067
0.000141623
7.80922
0.000143339
7.80777
0.000143234
7.8063
0.000143141
7.80483
0.000143176
7.80336
0.000143215
7.80188
0.000143234
7.80039
0.000143248
7.79889
0.000143261
7.79739
0.000143273
7.79588
0.000143285
7.79436
0.000143296
7.79284
0.000143307
7.7913
0.000143318
7.78976
0.000143329
7.78821
0.00014334
7.78665
0.000143352
7.78507
0.000143363
7.78349
0.000143375
7.78189
0.000143386
7.78029
0.000143398
7.77867
0.00014341
7.77704
0.000143422
7.77539
0.000143435
7.77374
0.000143448
7.77207
0.00014346
7.77038
0.000143473
7.76868
0.000143487
7.76697
0.0001435
7.76524
0.000143514
7.7635
0.000143528
7.76174
0.000143542
7.75997
0.000143556
7.75817
0.000143571
7.75636
0.000143586
7.75454
0.000143601
7.75269
0.000143616
7.75083
0.000143632
7.74895
0.000143648
7.74705
0.000143664
7.74513
0.00014368
7.74319
0.000143697
7.74124
0.000143714
7.73926
0.000143731
7.73726
0.000143748
7.73524
0.000143766
7.7332
0.000143784
7.73114
0.000143802
7.72906
0.00014382
7.72695
0.000143839
7.72482
0.000143858
7.72267
0.000143877
7.7205
0.000143896
7.7183
0.000143916
7.71608
0.000143936
7.71383
0.000143956
7.71156
0.000143976
7.70927
0.000143996
7.70695
0.000144017
7.7046
0.000144038
7.70223
0.000144059
7.69984
0.00014408
7.69742
0.000144101
7.69497
0.000144122
7.69249
0.000144144
7.68999
0.000144165
7.68746
0.000144187
7.6849
0.000144209
7.68232
0.000144232
7.67971
0.000144254
7.67707
0.000144277
7.6744
0.000144301
7.6717
0.000144324
7.66897
0.000144348
7.66621
0.000144371
7.66342
0.000144395
7.6606
0.000144418
7.65775
0.000144443
7.65487
0.000144468
7.65196
0.000144493
7.64902
0.000144519
7.64606
0.000144545
7.64306
0.000144571
7.64003
0.000144599
7.63698
0.000144627
7.63389
0.000144657
7.63077
0.000144687
7.62762
0.000144718
7.62444
0.000144749
7.62122
0.000144779
7.61797
0.00014481
7.61468
0.000144842
7.61136
0.000144874
7.60801
0.000144907
7.60463
0.000144939
7.6012
0.000144971
7.59775
0.000145002
7.59425
0.000145032
7.59073
0.000145063
7.58716
0.000145094
7.58357
0.000145126
7.57994
0.000145159
7.57628
0.000145192
7.57258
0.000145225
7.56885
0.000145259
7.56509
0.000145294
7.56129
0.000145329
7.55745
0.000145365
7.55358
0.000145401
7.54967
0.000145438
7.54572
0.000145474
7.54174
0.00014551
7.53772
0.000145545
7.53367
0.00014558
7.52958
0.000145616
7.52546
0.000145652
7.52129
0.00014569
7.5171
0.000145726
7.51286
0.000145763
7.50859
0.000145798
7.50428
0.000145831
7.49994
0.00014586
7.49555
0.000145884
7.49113
0.000145902
7.48666
0.000145914
7.48216
0.000145917
7.47762
0.00014591
7.47304
0.000145887
7.46842
0.000145844
7.46376
0.000145779
7.45906
0.000145686
7.45432
0.000145563
7.44954
0.000145404
7.44472
0.000145203
7.43987
0.00014495
7.43498
0.000144638
7.43004
0.000144259
7.42507
0.000143802
7.42006
0.00014326
7.41502
0.000142621
7.40993
0.000141874
7.4048
0.000141006
7.39964
0.000140005
7.39443
0.000138858
7.38918
0.000137555
7.3839
0.000136085
7.37857
0.000134438
7.37319
0.000132605
7.36778
0.000130579
7.36233
0.000128355
7.35683
0.00012593
7.35129
0.000123301
7.34572
0.00012047
7.3401
0.00011744
7.33443
0.000114218
7.32873
0.000110811
7.32298
0.00010723
7.3172
0.000103491
7.31137
9.96068e-05
7.30549
9.55973e-05
7.29958
9.1482e-05
7.29362
8.72824e-05
7.28762
8.30211e-05
7.28158
7.87218e-05
7.2755
7.44085e-05
7.26937
7.01053e-05
7.2632
6.58361e-05
7.25699
6.16238e-05
7.25074
5.74904e-05
7.24444
5.34564e-05
7.2381
4.95407e-05
7.23171
4.57601e-05
7.22529
4.21294e-05
7.21882
3.8661e-05
7.2123
3.53652e-05
7.20575
3.22496e-05
7.19915
2.93198e-05
7.1925
2.65788e-05
7.18582
2.40277e-05
7.17909
2.16654e-05
7.17231
1.9489e-05
7.1655
1.74942e-05
7.15864
1.56748e-05
7.15173
1.40238e-05
7.14478
1.25331e-05
7.13779
1.11938e-05
7.13076
9.99656e-06
7.12368
8.93153e-06
7.11655
7.98884e-06
7.10939
7.15855e-06
7.10218
6.43091e-06
7.09492
5.79639e-06
7.08762
5.24583e-06
7.08028
4.77053e-06
7.0729
4.3623e-06
7.06547
4.01348e-06
7.05799
3.71698e-06
7.05047
3.46631e-06
7.04291
3.25557e-06
7.0353
3.0794e-06
7.02765
2.93305e-06
7.01995
2.81223e-06
7.01221
2.71317e-06
7.00443
2.63258e-06
6.9966
2.56757e-06
6.98872
2.51562e-06
6.9808
2.47458e-06
6.97284
2.4426e-06
6.96483
2.41812e-06
6.95678
2.39979e-06
6.94868
2.3865e-06
6.94054
2.3773e-06
6.93236
2.37141e-06
6.92412
2.36819e-06
6.91585
2.36709e-06
6.90753
2.36769e-06
6.89916
2.36963e-06
6.89075
2.3726e-06
6.8823
2.3764e-06
6.8738
2.38082e-06
6.86525
2.38571e-06
6.85666
2.39096e-06
6.84803
2.39648e-06
6.83935
2.40217e-06
6.83062
2.40801e-06
6.82185
2.41393e-06
6.81304
2.41989e-06
6.80418
2.42586e-06
6.79527
2.43183e-06
6.78632
2.43779e-06
6.77733
2.44371e-06
6.76829
2.4496e-06
6.7592
2.45543e-06
6.75007
2.46121e-06
6.7409
2.46693e-06
6.73168
2.47258e-06
6.72242
2.47817e-06
6.71311
2.48369e-06
6.70375
2.48914e-06
6.69435
2.49452e-06
6.68491
2.49982e-06
6.67542
2.50504e-06
6.66588
2.51019e-06
6.65631
2.51527e-06
6.64668
2.52028e-06
6.63701
2.52521e-06
6.6273
2.53007e-06
6.61754
2.53484e-06
6.60774
2.53953e-06
6.59789
2.54412e-06
6.588
2.54863e-06
6.57806
2.55306e-06
6.56808
2.5574e-06
6.55805
2.56166e-06
6.54798
2.56584e-06
6.53787
2.56995e-06
6.52771
2.57397e-06
6.5175
2.57792e-06
6.50725
2.58178e-06
6.49696
2.58555e-06
6.48662
2.58922e-06
6.47624
2.59279e-06
6.46581
2.59625e-06
6.45534
2.59963e-06
6.44483
2.60293e-06
6.43427
2.60614e-06
6.42367
2.60925e-06
6.41302
2.61227e-06
6.40233
2.61519e-06
6.3916
2.618e-06
6.38082
2.62072e-06
6.37
2.62335e-06
6.35913
2.6259e-06
6.34822
2.62835e-06
6.33727
2.63072e-06
6.32627
2.63298e-06
6.31524
2.63513e-06
6.30415
2.63717e-06
6.29303
2.63909e-06
6.28186
2.6409e-06
6.27065
2.64261e-06
6.25939
2.6442e-06
6.2481
2.64571e-06
6.23676
2.64713e-06
6.22537
2.64845e-06
6.21395
2.64967e-06
6.20248
2.65077e-06
6.19097
2.65177e-06
6.17942
2.65265e-06
6.16782
2.65342e-06
6.15618
2.65406e-06
6.14451
2.65458e-06
6.13279
2.65499e-06
6.12102
2.65529e-06
6.10922
2.65547e-06
6.09737
2.65553e-06
6.08549
2.6555e-06
6.07356
2.65536e-06
6.06159
2.6551e-06
6.04958
2.65472e-06
6.03753
2.65421e-06
6.02544
2.65359e-06
6.0133
2.65285e-06
6.00113
2.65199e-06
5.98892
2.651e-06
5.97666
2.64988e-06
5.96437
2.64864e-06
5.95203
2.64728e-06
5.93966
2.6458e-06
5.92725
2.64419e-06
5.91479
2.64245e-06
5.9023
2.64059e-06
5.88977
2.6386e-06
5.8772
2.63647e-06
5.86459
2.63423e-06
5.85194
2.63187e-06
5.83925
2.62937e-06
5.82653
2.62674e-06
5.81376
2.62397e-06
5.80096
2.62106e-06
5.78812
2.61803e-06
5.77524
2.61486e-06
5.76233
2.61157e-06
5.74937
2.60815e-06
5.73638
2.60459e-06
5.72336
2.60088e-06
5.71029
2.59701e-06
5.69719
2.593e-06
5.68405
2.58886e-06
5.67088
2.58461e-06
5.65767
2.58024e-06
5.64442
2.57573e-06
5.63114
2.57106e-06
5.61782
2.56624e-06
5.60447
2.56126e-06
5.59108
2.55612e-06
5.57766
2.55083e-06
5.5642
2.54543e-06
5.55071
2.5399e-06
5.53718
2.53424e-06
5.52362
2.52844e-06
5.51003
2.52249e-06
5.4964
2.5164e-06
5.48274
2.51015e-06
5.46904
2.50375e-06
5.45531
2.4972e-06
5.44155
2.49048e-06
5.42776
2.48358e-06
5.41393
2.47653e-06
5.40007
2.46933e-06
5.38618
2.462e-06
5.37226
2.45453e-06
5.35831
2.44693e-06
5.34432
2.43918e-06
5.33031
2.4313e-06
5.31626
2.42326e-06
5.30219
2.41507e-06
5.28808
2.40668e-06
5.27394
2.39815e-06
5.25977
2.38942e-06
5.24558
2.38062e-06
5.23135
2.37154e-06
5.2171
2.36253e-06
5.20282
2.35305e-06
5.1885
2.34388e-06
5.17416
2.33391e-06
5.1598
2.32462e-06
5.1454
2.31409e-06
5.13098
2.30477e-06
5.11653
2.29359e-06
5.10205
2.28447e-06
5.08755
2.27261e-06
5.07302
2.26401e-06
5.05846
2.25301e-06
5.04388
2.2447e-06
5.02927
2.24353e-06
5.01464
2.23938e-06
4.99998
2.27901e-06
4.9853
2.33124e-06
4.9706
2.54989e-06
4.95587
3.00183e-06
4.94111
4.20166e-06
4.92633
6.92714e-06
4.91153
1.35982e-05
4.89669
2.92698e-05
4.88182
6.67546e-05
4.86688
0.000155619
4.85183
0.00036691
4.83653
0.00086814
4.82068
0.00205685
4.80357
0.00486965
4.78348
0.0115116
4.75643
0.0271449
4.71302
0.0639272
4.6308
0.15161
4.45128
0.377116
0.90764
4.05726
34.4969
7.15818e-05
34.4906
8.16222e-05
34.4843
6.95685e-05
34.4779
6.98584e-05
34.4715
7.16434e-05
34.4651
7.18618e-05
34.4586
7.17158e-05
34.4521
7.16987e-05
34.4456
7.17151e-05
34.4391
7.17116e-05
34.4325
7.17032e-05
34.4259
7.16972e-05
34.4193
7.16933e-05
34.4126
7.16907e-05
34.4059
7.16892e-05
34.3992
7.16889e-05
34.3924
7.16895e-05
34.3856
7.16909e-05
34.3788
7.1693e-05
34.3719
7.16957e-05
34.3649
7.16989e-05
34.3579
7.17025e-05
34.3509
7.17065e-05
34.3438
7.17108e-05
34.3367
7.17154e-05
34.3295
7.17203e-05
34.3222
7.17254e-05
34.3149
7.17308e-05
34.3075
7.17364e-05
34.3001
7.17422e-05
34.2926
7.17481e-05
34.285
7.17543e-05
34.2774
7.17606e-05
34.2697
7.17671e-05
34.2619
7.17738e-05
34.2541
7.17806e-05
34.2462
7.17876e-05
34.2382
7.17948e-05
34.2301
7.1802e-05
34.222
7.18095e-05
34.2138
7.18171e-05
34.2055
7.18248e-05
34.1971
7.18327e-05
34.1886
7.18407e-05
34.1801
7.18489e-05
34.1714
7.18572e-05
34.1627
7.18656e-05
34.1539
7.18742e-05
34.145
7.18829e-05
34.1359
7.18918e-05
34.1268
7.19008e-05
34.1177
7.19099e-05
34.1084
7.19192e-05
34.099
7.19285e-05
34.0895
7.1938e-05
34.0799
7.19476e-05
34.0702
7.19574e-05
34.0604
7.19673e-05
34.0504
7.19773e-05
34.0404
7.19873e-05
34.0303
7.19975e-05
34.0201
7.20078e-05
34.0097
7.20182e-05
33.9993
7.20286e-05
33.9887
7.20392e-05
33.978
7.20499e-05
33.9672
7.20605e-05
33.9563
7.20713e-05
33.9452
7.20821e-05
33.934
7.20929e-05
33.9228
7.21038e-05
33.9113
7.21149e-05
33.8998
7.21262e-05
33.8882
7.21378e-05
33.8764
7.21495e-05
33.8645
7.21613e-05
33.8524
7.2173e-05
33.8402
7.21847e-05
33.8279
7.21964e-05
33.8155
7.22083e-05
33.8029
7.22204e-05
33.7902
7.22328e-05
33.7773
7.22454e-05
33.7644
7.22583e-05
33.7513
7.22712e-05
33.738
7.22845e-05
33.7247
7.22983e-05
33.7112
7.23126e-05
33.6976
7.23273e-05
33.6838
7.23424e-05
33.6699
7.23578e-05
33.6558
7.23733e-05
33.6416
7.23887e-05
33.6273
7.24041e-05
33.6128
7.24199e-05
33.5981
7.2436e-05
33.5833
7.24523e-05
33.5684
7.24685e-05
33.5533
7.24844e-05
33.538
7.25e-05
33.5226
7.25154e-05
33.507
7.25307e-05
33.4913
7.25463e-05
33.4755
7.25622e-05
33.4594
7.25783e-05
33.4433
7.25948e-05
33.427
7.26114e-05
33.4105
7.26285e-05
33.3939
7.26458e-05
33.3771
7.26633e-05
33.3601
7.26813e-05
33.3431
7.26993e-05
33.3258
7.27175e-05
33.3084
7.27357e-05
33.2908
7.27537e-05
33.2731
7.27715e-05
33.2552
7.27892e-05
33.2371
7.28071e-05
33.2189
7.28255e-05
33.2006
7.28442e-05
33.182
7.28627e-05
33.1633
7.28809e-05
33.1445
7.28988e-05
33.1255
7.29156e-05
33.1063
7.29304e-05
33.0869
7.29425e-05
33.0674
7.2952e-05
33.0477
7.29584e-05
33.0278
7.2961e-05
33.0078
7.29582e-05
32.9875
7.2948e-05
32.9672
7.29285e-05
32.9466
7.28977e-05
32.9258
7.28539e-05
32.9049
7.27952e-05
32.8838
7.27189e-05
32.8626
7.26218e-05
32.8411
7.25e-05
32.8195
7.23493e-05
32.7978
7.21656e-05
32.7758
7.19446e-05
32.7537
7.16815e-05
32.7314
7.13711e-05
32.709
7.10076e-05
32.6863
7.05847e-05
32.6635
7.00963e-05
32.6406
6.95365e-05
32.6174
6.88996e-05
32.594
6.81801e-05
32.5705
6.7373e-05
32.5468
6.64741e-05
32.5229
6.54797e-05
32.4988
6.43868e-05
32.4746
6.31936e-05
32.4501
6.1899e-05
32.4255
6.05033e-05
32.4007
5.90081e-05
32.3757
5.74159e-05
32.3505
5.57308e-05
32.3252
5.3958e-05
32.2996
5.21043e-05
32.2739
5.01772e-05
32.248
4.81855e-05
32.2219
4.61391e-05
32.1956
4.40484e-05
32.1691
4.19247e-05
32.1424
3.97797e-05
32.1156
3.76254e-05
32.0885
3.54737e-05
32.0613
3.33367e-05
32.0339
3.12258e-05
32.0063
2.91522e-05
31.9785
2.71262e-05
31.9505
2.51574e-05
31.9223
2.32544e-05
31.8939
2.14248e-05
31.8654
1.96751e-05
31.8366
1.80105e-05
31.8077
1.64352e-05
31.7786
1.49522e-05
31.7492
1.35632e-05
31.7197
1.22689e-05
31.69
1.10691e-05
31.6601
9.96253e-06
31.63
8.94706e-06
31.5997
8.01991e-06
31.5693
7.17762e-06
31.5386
6.41625e-06
31.5077
5.73146e-06
31.4767
5.11859e-06
31.4454
4.57282e-06
31.414
4.0892e-06
31.3824
3.66279e-06
31.3505
3.28867e-06
31.3185
2.96208e-06
31.2863
2.67841e-06
31.2539
2.43324e-06
31.2213
2.22244e-06
31.1885
2.04211e-06
31.1555
1.88867e-06
31.1223
1.75879e-06
31.0889
1.64946e-06
31.0553
1.55795e-06
31.0215
1.48182e-06
30.9876
1.41888e-06
30.9534
1.36719e-06
30.919
1.32506e-06
30.8845
1.291e-06
30.8497
1.26372e-06
30.8148
1.24211e-06
30.7796
1.22522e-06
30.7443
1.21222e-06
30.7087
1.20244e-06
30.673
1.19528e-06
30.637
1.19027e-06
30.6009
1.18699e-06
30.5646
1.1851e-06
30.528
1.18434e-06
30.4913
1.18447e-06
30.4544
1.18529e-06
30.4172
1.18667e-06
30.3799
1.18848e-06
30.3424
1.19063e-06
30.3047
1.19302e-06
30.2668
1.19561e-06
30.2286
1.19833e-06
30.1903
1.20116e-06
30.1518
1.20406e-06
30.1131
1.207e-06
30.0742
1.20997e-06
30.0351
1.21295e-06
29.9958
1.21593e-06
29.9563
1.2189e-06
29.9166
1.22186e-06
29.8767
1.2248e-06
29.8366
1.22771e-06
29.7963
1.2306e-06
29.7558
1.23346e-06
29.7151
1.23629e-06
29.6742
1.23908e-06
29.6331
1.24184e-06
29.5918
1.24457e-06
29.5503
1.24725e-06
29.5086
1.2499e-06
29.4667
1.25251e-06
29.4246
1.25509e-06
29.3824
1.25763e-06
29.3399
1.26013e-06
29.2972
1.2626e-06
29.2543
1.26503e-06
29.2112
1.26741e-06
29.168
1.26976e-06
29.1245
1.27205e-06
29.0808
1.27431e-06
29.037
1.27652e-06
28.9929
1.27869e-06
28.9486
1.28082e-06
28.9042
1.28291e-06
28.8595
1.28497e-06
28.8147
1.28698e-06
28.7696
1.28896e-06
28.7244
1.29088e-06
28.679
1.29277e-06
28.6333
1.2946e-06
28.5875
1.29639e-06
28.5415
1.29812e-06
28.4953
1.29981e-06
28.4489
1.30146e-06
28.4022
1.30306e-06
28.3554
1.30462e-06
28.3084
1.30613e-06
28.2613
1.30759e-06
28.2139
1.30899e-06
28.1663
1.31036e-06
28.1185
1.31167e-06
28.0706
1.31294e-06