/*--------------------------------*- C++ -*----------------------------------*\
| =========                 |                                                 |
| \\      /  F ield         | OpenFOAM: The Open Source CFD Toolbox           |
|  \\    /   O peration     | Version:  3.0.x                                 |
|   \\  /    A nd           | Web:      www.OpenFOAM.org                      |
|    \\/     M anipulation  |                                                 |
\*---------------------------------------------------------------------------*/
FoamFile
{
    version     2.0;
    format      ascii;
    class       volScalarField;
    location    "0.49";
    object      rho;
}
// * * * * * * * * * * * * * * * * * * * * * * * * * * * * * * * * * * * * * //

dimensions      [1 -3 0 0 0 0 0];

internalField   nonuniform List<scalar> 
27600
(
50.5017
50.5019
50.5021
50.5023
50.5024
50.5026
50.5027
50.5028
50.503
50.5032
50.5033
50.5035
50.5037
50.5039
50.5041
50.5044
50.5046
50.5049
50.5052
50.5055
50.5058
50.5061
50.5064
50.5068
50.5071
50.5075
50.5079
50.5083
50.5087
50.5092
50.5096
50.5101
50.5105
50.511
50.5115
50.512
50.5126
50.5131
50.5137
50.5142
50.5148
50.5154
50.516
50.5167
50.5173
50.518
50.5187
50.5194
50.5201
50.5208
50.5215
50.5223
50.523
50.5238
50.5246
50.5254
50.5262
50.5271
50.5279
50.5288
50.5297
50.5306
50.5315
50.5324
50.5334
50.5343
50.5353
50.5363
50.5373
50.5383
50.5394
50.5404
50.5415
50.5426
50.5437
50.5448
50.5459
50.547
50.5482
50.5493
50.5505
50.5517
50.5529
50.5541
50.5554
50.5567
50.558
50.5593
50.5607
50.562
50.5634
50.5649
50.5663
50.5677
50.5691
50.5706
50.5721
50.5735
50.575
50.5765
50.578
50.5795
50.581
50.5826
50.5842
50.5858
50.5874
50.589
50.5907
50.5924
50.5941
50.5958
50.5975
50.5993
50.601
50.6028
50.6046
50.6064
50.6083
50.6101
50.612
50.614
50.6159
50.6179
50.6198
50.6218
50.6238
50.6258
50.6278
50.6299
50.6319
50.634
50.636
50.6381
50.6402
50.6423
50.6444
50.6465
50.6487
50.6509
50.6531
50.6554
50.6577
50.66
50.6623
50.6646
50.667
50.6694
50.6718
50.6742
50.6766
50.679
50.6815
50.6839
50.6864
50.6889
50.6914
50.694
50.6965
50.6991
50.7017
50.7043
50.7069
50.7096
50.7122
50.7149
50.7176
50.7203
50.7231
50.7258
50.7286
50.7314
50.7342
50.737
50.7399
50.7428
50.7457
50.7486
50.7515
50.7544
50.7574
50.7604
50.7634
50.7664
50.7695
50.7725
50.7756
50.7787
50.7818
50.785
50.7881
50.7913
50.7945
50.7977
50.8009
50.8042
50.8075
50.8108
50.8141
50.8174
50.8208
50.8241
50.8275
50.8309
50.8344
50.8378
50.8413
50.8448
50.8483
50.8518
50.8554
50.8589
50.8625
50.8661
50.8698
50.8734
50.8771
50.8808
50.8845
50.8882
50.8919
50.8957
50.8995
50.9033
50.9071
50.911
50.9148
50.9187
50.9226
50.9265
50.9305
50.9345
50.9384
50.9424
50.9465
50.9505
50.9546
50.9586
50.9627
50.9669
50.971
50.9752
50.9793
50.9835
50.9878
50.992
50.9963
51.0005
51.0048
51.0092
51.0135
51.0178
51.0222
51.0266
51.031
51.0355
51.0399
51.0444
51.0489
51.0534
51.0579
51.0625
51.067
51.0716
51.0762
51.0809
51.0855
51.0902
51.0949
51.0996
51.1043
51.109
51.1138
51.1186
51.1234
51.1282
51.133
51.1379
51.1428
51.1477
51.1526
51.1575
51.1624
51.1674
51.1724
51.1774
51.1824
51.1875
51.1925
51.1976
51.2027
51.2078
51.2129
51.2181
51.2233
51.2285
51.2337
51.2389
51.2441
51.2494
51.2547
51.2599
51.2653
51.2706
51.2759
51.2813
51.2867
51.2921
51.2975
51.3029
51.3084
51.3138
51.3193
51.3248
51.3303
51.3359
51.3414
51.347
51.3526
51.3582
51.3638
51.3694
51.3751
51.3807
51.3864
51.3921
51.3978
51.4035
51.4093
51.4151
51.4208
51.4266
51.4324
51.4382
51.4441
51.4499
51.4558
51.4617
51.4676
51.4735
51.4794
51.4853
51.4913
51.4973
51.5032
51.5092
51.5153
51.5213
51.5273
51.5334
51.5394
51.5455
51.5516
51.5577
51.5638
51.57
51.5761
51.5823
51.5884
51.5946
51.6008
51.607
51.6132
51.6195
51.6257
51.632
51.6382
51.6445
51.6508
51.6571
51.6634
51.6697
51.6761
51.6824
51.6888
51.6951
51.7015
51.7079
51.7143
51.7207
51.7272
51.7335
51.7401
51.7464
51.753
51.7593
51.766
51.7722
51.779
51.7852
51.792
51.7982
51.8051
51.8113
51.8182
51.8244
51.8315
51.838
51.8457
51.8522
50.5023
50.5024
50.5026
50.5028
50.5029
50.5031
50.5032
50.5033
50.5035
50.5037
50.5038
50.504
50.5042
50.5044
50.5046
50.5049
50.5051
50.5054
50.5057
50.506
50.5063
50.5066
50.5069
50.5073
50.5076
50.508
50.5084
50.5088
50.5092
50.5096
50.5101
50.5105
50.511
50.5115
50.512
50.5125
50.513
50.5136
50.5141
50.5147
50.5153
50.5159
50.5165
50.5172
50.5178
50.5185
50.5191
50.5198
50.5205
50.5212
50.522
50.5227
50.5235
50.5243
50.5251
50.5259
50.5267
50.5275
50.5284
50.5293
50.5301
50.531
50.532
50.5329
50.5338
50.5348
50.5358
50.5368
50.5378
50.5388
50.5398
50.5409
50.5419
50.543
50.5441
50.5453
50.5464
50.5475
50.5486
50.5498
50.5509
50.5521
50.5533
50.5546
50.5558
50.5571
50.5584
50.5597
50.5611
50.5625
50.5639
50.5653
50.5667
50.5681
50.5695
50.571
50.5725
50.574
50.5754
50.5769
50.5784
50.5799
50.5815
50.583
50.5846
50.5862
50.5878
50.5894
50.5911
50.5928
50.5945
50.5962
50.5979
50.5997
50.6014
50.6032
50.605
50.6068
50.6087
50.6105
50.6124
50.6143
50.6163
50.6182
50.6202
50.6222
50.6242
50.6262
50.6282
50.6302
50.6323
50.6343
50.6364
50.6385
50.6405
50.6426
50.6448
50.6469
50.6491
50.6513
50.6535
50.6557
50.658
50.6603
50.6626
50.665
50.6673
50.6697
50.6721
50.6745
50.6769
50.6794
50.6818
50.6843
50.6868
50.6893
50.6918
50.6943
50.6969
50.6994
50.702
50.7046
50.7073
50.7099
50.7126
50.7152
50.7179
50.7207
50.7234
50.7262
50.7289
50.7317
50.7345
50.7374
50.7402
50.7431
50.746
50.7489
50.7518
50.7548
50.7577
50.7607
50.7637
50.7667
50.7698
50.7728
50.7759
50.779
50.7821
50.7853
50.7884
50.7916
50.7948
50.798
50.8013
50.8045
50.8078
50.8111
50.8144
50.8177
50.8211
50.8245
50.8279
50.8313
50.8347
50.8382
50.8416
50.8451
50.8486
50.8522
50.8557
50.8593
50.8629
50.8665
50.8701
50.8737
50.8774
50.8811
50.8848
50.8885
50.8923
50.896
50.8998
50.9036
50.9075
50.9113
50.9152
50.919
50.923
50.9269
50.9308
50.9348
50.9388
50.9428
50.9468
50.9508
50.9549
50.959
50.9631
50.9672
50.9713
50.9755
50.9797
50.9839
50.9881
50.9923
50.9966
51.0009
51.0052
51.0095
51.0138
51.0182
51.0225
51.0269
51.0314
51.0358
51.0402
51.0447
51.0492
51.0537
51.0583
51.0628
51.0674
51.072
51.0766
51.0812
51.0858
51.0905
51.0952
51.0999
51.1046
51.1094
51.1141
51.1189
51.1237
51.1285
51.1334
51.1382
51.1431
51.148
51.1529
51.1578
51.1628
51.1677
51.1727
51.1777
51.1828
51.1878
51.1929
51.1979
51.203
51.2081
51.2133
51.2184
51.2236
51.2288
51.234
51.2392
51.2444
51.2497
51.255
51.2603
51.2656
51.2709
51.2763
51.2816
51.287
51.2924
51.2978
51.3033
51.3087
51.3142
51.3196
51.3251
51.3307
51.3362
51.3417
51.3473
51.3529
51.3585
51.3641
51.3697
51.3754
51.3811
51.3867
51.3924
51.3981
51.4039
51.4096
51.4154
51.4212
51.4269
51.4327
51.4386
51.4444
51.4503
51.4561
51.462
51.4679
51.4738
51.4797
51.4857
51.4916
51.4976
51.5036
51.5096
51.5156
51.5216
51.5276
51.5337
51.5398
51.5458
51.5519
51.558
51.5642
51.5703
51.5764
51.5826
51.5888
51.5949
51.6011
51.6073
51.6136
51.6198
51.626
51.6323
51.6386
51.6448
51.6511
51.6574
51.6637
51.6701
51.6764
51.6827
51.6891
51.6954
51.7019
51.7082
51.7147
51.721
51.7275
51.7338
51.7404
51.7467
51.7533
51.7596
51.7663
51.7725
51.7793
51.7855
51.7923
51.7985
51.8054
51.8116
51.8186
51.8248
51.8319
51.8383
51.846
51.853
50.5023
50.5024
50.5026
50.5028
50.5029
50.5031
50.5032
50.5033
50.5035
50.5037
50.5038
50.504
50.5042
50.5044
50.5046
50.5049
50.5051
50.5054
50.5057
50.506
50.5063
50.5066
50.5069
50.5073
50.5076
50.508
50.5084
50.5088
50.5092
50.5096
50.5101
50.5105
50.511
50.5115
50.512
50.5125
50.513
50.5136
50.5141
50.5147
50.5153
50.5159
50.5165
50.5171
50.5178
50.5185
50.5191
50.5198
50.5205
50.5212
50.522
50.5227
50.5235
50.5243
50.5251
50.5259
50.5267
50.5275
50.5284
50.5293
50.5301
50.531
50.5319
50.5329
50.5338
50.5348
50.5358
50.5368
50.5378
50.5388
50.5398
50.5409
50.5419
50.543
50.5441
50.5452
50.5464
50.5475
50.5486
50.5498
50.5509
50.5521
50.5533
50.5546
50.5558
50.5571
50.5584
50.5597
50.5611
50.5625
50.5639
50.5653
50.5667
50.5681
50.5695
50.571
50.5725
50.574
50.5754
50.5769
50.5784
50.5799
50.5815
50.583
50.5846
50.5862
50.5878
50.5894
50.5911
50.5928
50.5945
50.5962
50.5979
50.5997
50.6014
50.6032
50.605
50.6068
50.6087
50.6105
50.6124
50.6143
50.6163
50.6182
50.6202
50.6222
50.6242
50.6262
50.6282
50.6302
50.6323
50.6343
50.6364
50.6385
50.6405
50.6426
50.6448
50.6469
50.6491
50.6513
50.6535
50.6557
50.658
50.6603
50.6626
50.665
50.6673
50.6697
50.6721
50.6745
50.6769
50.6794
50.6818
50.6843
50.6868
50.6893
50.6918
50.6943
50.6969
50.6994
50.702
50.7046
50.7073
50.7099
50.7126
50.7152
50.7179
50.7207
50.7234
50.7262
50.7289
50.7317
50.7345
50.7374
50.7402
50.7431
50.746
50.7489
50.7518
50.7548
50.7577
50.7607
50.7637
50.7667
50.7698
50.7728
50.7759
50.779
50.7821
50.7853
50.7884
50.7916
50.7948
50.798
50.8013
50.8045
50.8078
50.8111
50.8144
50.8177
50.8211
50.8245
50.8279
50.8313
50.8347
50.8382
50.8416
50.8451
50.8486
50.8522
50.8557
50.8593
50.8629
50.8665
50.8701
50.8737
50.8774
50.8811
50.8848
50.8885
50.8923
50.896
50.8998
50.9036
50.9075
50.9113
50.9152
50.919
50.923
50.9269
50.9308
50.9348
50.9388
50.9428
50.9468
50.9508
50.9549
50.959
50.9631
50.9672
50.9713
50.9755
50.9797
50.9839
50.9881
50.9923
50.9966
51.0009
51.0052
51.0095
51.0138
51.0182
51.0226
51.0269
51.0314
51.0358
51.0402
51.0447
51.0492
51.0537
51.0583
51.0628
51.0674
51.072
51.0766
51.0812
51.0858
51.0905
51.0952
51.0999
51.1046
51.1094
51.1141
51.1189
51.1237
51.1285
51.1334
51.1382
51.1431
51.148
51.1529
51.1578
51.1628
51.1677
51.1727
51.1777
51.1828
51.1878
51.1929
51.1979
51.203
51.2081
51.2133
51.2184
51.2236
51.2288
51.234
51.2392
51.2444
51.2497
51.255
51.2603
51.2656
51.2709
51.2763
51.2816
51.287
51.2924
51.2978
51.3033
51.3087
51.3142
51.3196
51.3251
51.3307
51.3362
51.3418
51.3473
51.3529
51.3585
51.3641
51.3697
51.3754
51.3811
51.3867
51.3924
51.3981
51.4039
51.4096
51.4154
51.4212
51.4269
51.4327
51.4386
51.4444
51.4503
51.4561
51.462
51.4679
51.4738
51.4797
51.4857
51.4916
51.4976
51.5036
51.5096
51.5156
51.5216
51.5276
51.5337
51.5398
51.5458
51.5519
51.558
51.5642
51.5703
51.5764
51.5826
51.5888
51.5949
51.6011
51.6073
51.6136
51.6198
51.626
51.6323
51.6386
51.6448
51.6511
51.6574
51.6637
51.6701
51.6764
51.6827
51.6891
51.6954
51.7019
51.7082
51.7147
51.721
51.7275
51.7338
51.7404
51.7467
51.7533
51.7596
51.7663
51.7725
51.7793
51.7855
51.7923
51.7985
51.8054
51.8116
51.8186
51.8248
51.8319
51.8383
51.846
51.853
50.5022
50.5024
50.5026
50.5028
50.5029
50.503
50.5032
50.5033
50.5035
50.5036
50.5038
50.504
50.5042
50.5044
50.5046
50.5049
50.5051
50.5054
50.5057
50.506
50.5063
50.5066
50.5069
50.5073
50.5076
50.508
50.5084
50.5088
50.5092
50.5096
50.5101
50.5105
50.511
50.5115
50.512
50.5125
50.513
50.5136
50.5141
50.5147
50.5153
50.5159
50.5165
50.5171
50.5178
50.5184
50.5191
50.5198
50.5205
50.5212
50.522
50.5227
50.5235
50.5243
50.525
50.5259
50.5267
50.5275
50.5284
50.5292
50.5301
50.531
50.5319
50.5329
50.5338
50.5348
50.5358
50.5367
50.5378
50.5388
50.5398
50.5409
50.5419
50.543
50.5441
50.5452
50.5464
50.5475
50.5486
50.5498
50.5509
50.5521
50.5533
50.5545
50.5558
50.5571
50.5584
50.5597
50.5611
50.5625
50.5639
50.5653
50.5667
50.5681
50.5695
50.571
50.5725
50.5739
50.5754
50.5769
50.5784
50.5799
50.5814
50.583
50.5846
50.5862
50.5878
50.5894
50.5911
50.5928
50.5945
50.5962
50.5979
50.5996
50.6014
50.6032
50.605
50.6068
50.6086
50.6105
50.6124
50.6143
50.6163
50.6182
50.6202
50.6222
50.6242
50.6262
50.6282
50.6302
50.6323
50.6343
50.6364
50.6385
50.6405
50.6426
50.6448
50.6469
50.6491
50.6513
50.6535
50.6557
50.658
50.6603
50.6626
50.665
50.6673
50.6697
50.6721
50.6745
50.6769
50.6794
50.6818
50.6843
50.6868
50.6893
50.6918
50.6943
50.6969
50.6994
50.702
50.7046
50.7073
50.7099
50.7126
50.7152
50.7179
50.7207
50.7234
50.7262
50.7289
50.7317
50.7345
50.7374
50.7402
50.7431
50.746
50.7489
50.7518
50.7548
50.7577
50.7607
50.7637
50.7667
50.7698
50.7728
50.7759
50.779
50.7821
50.7853
50.7884
50.7916
50.7948
50.798
50.8013
50.8045
50.8078
50.8111
50.8144
50.8177
50.8211
50.8245
50.8279
50.8313
50.8347
50.8382
50.8416
50.8451
50.8486
50.8522
50.8557
50.8593
50.8629
50.8665
50.8701
50.8737
50.8774
50.8811
50.8848
50.8885
50.8923
50.896
50.8998
50.9036
50.9075
50.9113
50.9152
50.919
50.923
50.9269
50.9308
50.9348
50.9388
50.9428
50.9468
50.9508
50.9549
50.959
50.9631
50.9672
50.9713
50.9755
50.9797
50.9839
50.9881
50.9923
50.9966
51.0009
51.0052
51.0095
51.0138
51.0182
51.0226
51.0269
51.0314
51.0358
51.0402
51.0447
51.0492
51.0537
51.0583
51.0628
51.0674
51.072
51.0766
51.0812
51.0858
51.0905
51.0952
51.0999
51.1046
51.1094
51.1141
51.1189
51.1237
51.1285
51.1334
51.1382
51.1431
51.148
51.1529
51.1578
51.1628
51.1677
51.1727
51.1777
51.1828
51.1878
51.1929
51.1979
51.203
51.2081
51.2133
51.2184
51.2236
51.2288
51.234
51.2392
51.2444
51.2497
51.255
51.2603
51.2656
51.2709
51.2763
51.2816
51.287
51.2924
51.2978
51.3033
51.3087
51.3142
51.3196
51.3251
51.3307
51.3362
51.3418
51.3473
51.3529
51.3585
51.3641
51.3697
51.3754
51.3811
51.3867
51.3924
51.3981
51.4039
51.4096
51.4154
51.4212
51.4269
51.4327
51.4386
51.4444
51.4503
51.4561
51.462
51.4679
51.4738
51.4797
51.4857
51.4916
51.4976
51.5036
51.5096
51.5156
51.5216
51.5276
51.5337
51.5398
51.5458
51.5519
51.558
51.5642
51.5703
51.5764
51.5826
51.5888
51.5949
51.6011
51.6073
51.6136
51.6198
51.626
51.6323
51.6386
51.6448
51.6511
51.6574
51.6637
51.6701
51.6764
51.6827
51.6891
51.6954
51.7019
51.7082
51.7147
51.721
51.7275
51.7338
51.7404
51.7467
51.7533
51.7596
51.7663
51.7725
51.7793
51.7855
51.7923
51.7985
51.8054
51.8116
51.8185
51.8248
51.8318
51.8383
51.8459
51.853
50.5022
50.5024
50.5026
50.5027
50.5029
50.503
50.5032
50.5033
50.5035
50.5036
50.5038
50.504
50.5042
50.5044
50.5046
50.5049
50.5051
50.5054
50.5057
50.5059
50.5063
50.5066
50.5069
50.5072
50.5076
50.508
50.5084
50.5088
50.5092
50.5096
50.5101
50.5105
50.511
50.5115
50.512
50.5125
50.513
50.5136
50.5141
50.5147
50.5153
50.5159
50.5165
50.5171
50.5178
50.5184
50.5191
50.5198
50.5205
50.5212
50.522
50.5227
50.5235
50.5242
50.525
50.5259
50.5267
50.5275
50.5284
50.5292
50.5301
50.531
50.5319
50.5329
50.5338
50.5348
50.5357
50.5367
50.5377
50.5388
50.5398
50.5409
50.5419
50.543
50.5441
50.5452
50.5464
50.5475
50.5486
50.5497
50.5509
50.5521
50.5533
50.5545
50.5558
50.5571
50.5584
50.5597
50.5611
50.5625
50.5638
50.5653
50.5667
50.5681
50.5695
50.571
50.5725
50.5739
50.5754
50.5769
50.5784
50.5799
50.5814
50.583
50.5846
50.5862
50.5878
50.5894
50.5911
50.5928
50.5944
50.5962
50.5979
50.5996
50.6014
50.6032
50.605
50.6068
50.6086
50.6105
50.6124
50.6143
50.6163
50.6182
50.6202
50.6222
50.6242
50.6262
50.6282
50.6302
50.6323
50.6343
50.6364
50.6385
50.6405
50.6426
50.6448
50.6469
50.6491
50.6513
50.6535
50.6557
50.658
50.6603
50.6626
50.665
50.6673
50.6697
50.6721
50.6745
50.6769
50.6794
50.6818
50.6843
50.6868
50.6893
50.6918
50.6943
50.6969
50.6994
50.702
50.7046
50.7073
50.7099
50.7126
50.7152
50.7179
50.7207
50.7234
50.7262
50.7289
50.7317
50.7345
50.7374
50.7402
50.7431
50.746
50.7489
50.7518
50.7548
50.7577
50.7607
50.7637
50.7667
50.7698
50.7728
50.7759
50.779
50.7821
50.7853
50.7884
50.7916
50.7948
50.798
50.8013
50.8045
50.8078
50.8111
50.8144
50.8177
50.8211
50.8245
50.8279
50.8313
50.8347
50.8382
50.8416
50.8451
50.8486
50.8522
50.8557
50.8593
50.8629
50.8665
50.8701
50.8737
50.8774
50.8811
50.8848
50.8885
50.8923
50.896
50.8998
50.9036
50.9075
50.9113
50.9152
50.919
50.923
50.9269
50.9308
50.9348
50.9388
50.9428
50.9468
50.9508
50.9549
50.959
50.9631
50.9672
50.9713
50.9755
50.9797
50.9839
50.9881
50.9923
50.9966
51.0009
51.0052
51.0095
51.0138
51.0182
51.0226
51.0269
51.0314
51.0358
51.0402
51.0447
51.0492
51.0537
51.0583
51.0628
51.0674
51.072
51.0766
51.0812
51.0858
51.0905
51.0952
51.0999
51.1046
51.1094
51.1141
51.1189
51.1237
51.1285
51.1334
51.1382
51.1431
51.148
51.1529
51.1578
51.1628
51.1677
51.1727
51.1777
51.1828
51.1878
51.1929
51.1979
51.203
51.2081
51.2133
51.2184
51.2236
51.2288
51.234
51.2392
51.2444
51.2497
51.255
51.2603
51.2656
51.2709
51.2763
51.2816
51.287
51.2924
51.2978
51.3033
51.3087
51.3142
51.3196
51.3251
51.3307
51.3362
51.3418
51.3473
51.3529
51.3585
51.3641
51.3697
51.3754
51.3811
51.3867
51.3924
51.3981
51.4039
51.4096
51.4154
51.4212
51.4269
51.4327
51.4386
51.4444
51.4503
51.4561
51.462
51.4679
51.4738
51.4797
51.4857
51.4916
51.4976
51.5036
51.5096
51.5156
51.5216
51.5276
51.5337
51.5398
51.5458
51.5519
51.558
51.5642
51.5703
51.5764
51.5826
51.5888
51.5949
51.6011
51.6073
51.6136
51.6198
51.626
51.6323
51.6386
51.6448
51.6511
51.6574
51.6637
51.6701
51.6764
51.6827
51.6891
51.6954
51.7019
51.7082
51.7147
51.721
51.7275
51.7338
51.7404
51.7467
51.7533
51.7596
51.7663
51.7725
51.7793
51.7855
51.7923
51.7985
51.8054
51.8116
51.8185
51.8247
51.8317
51.838
51.8453
51.8517
50.5022
50.5024
50.5026
50.5027
50.5029
50.503
50.5032
50.5033
50.5035
50.5036
50.5038
50.504
50.5042
50.5044
50.5046
50.5049
50.5051
50.5054
50.5057
50.5059
50.5063
50.5066
50.5069
50.5072
50.5076
50.508
50.5084
50.5088
50.5092
50.5096
50.5101
50.5105
50.511
50.5115
50.512
50.5125
50.513
50.5136
50.5141
50.5147
50.5153
50.5159
50.5165
50.5171
50.5178
50.5184
50.5191
50.5198
50.5205
50.5212
50.522
50.5227
50.5235
50.5242
50.525
50.5259
50.5267
50.5275
50.5284
50.5292
50.5301
50.531
50.5319
50.5329
50.5338
50.5348
50.5357
50.5367
50.5377
50.5388
50.5398
50.5409
50.5419
50.543
50.5441
50.5452
50.5464
50.5475
50.5486
50.5497
50.5509
50.5521
50.5533
50.5545
50.5558
50.5571
50.5584
50.5597
50.5611
50.5625
50.5638
50.5653
50.5667
50.5681
50.5695
50.571
50.5725
50.5739
50.5754
50.5769
50.5784
50.5799
50.5814
50.583
50.5846
50.5862
50.5878
50.5894
50.5911
50.5928
50.5944
50.5962
50.5979
50.5996
50.6014
50.6032
50.605
50.6068
50.6086
50.6105
50.6124
50.6143
50.6163
50.6182
50.6202
50.6222
50.6242
50.6262
50.6282
50.6302
50.6323
50.6343
50.6364
50.6385
50.6405
50.6426
50.6448
50.6469
50.6491
50.6513
50.6535
50.6557
50.658
50.6603
50.6626
50.665
50.6673
50.6697
50.6721
50.6745
50.6769
50.6794
50.6818
50.6843
50.6868
50.6893
50.6918
50.6943
50.6969
50.6994
50.702
50.7046
50.7073
50.7099
50.7126
50.7152
50.7179
50.7207
50.7234
50.7262
50.7289
50.7317
50.7345
50.7374
50.7402
50.7431
50.746
50.7489
50.7518
50.7548
50.7577
50.7607
50.7637
50.7667
50.7698
50.7728
50.7759
50.779
50.7821
50.7853
50.7884
50.7916
50.7948
50.798
50.8013
50.8045
50.8078
50.8111
50.8144
50.8177
50.8211
50.8245
50.8279
50.8313
50.8347
50.8382
50.8416
50.8451
50.8486
50.8522
50.8557
50.8593
50.8629
50.8665
50.8701
50.8737
50.8774
50.8811
50.8848
50.8885
50.8923
50.896
50.8998
50.9036
50.9075
50.9113
50.9152
50.919
50.923
50.9269
50.9308
50.9348
50.9388
50.9428
50.9468
50.9508
50.9549
50.959
50.9631
50.9672
50.9713
50.9755
50.9797
50.9839
50.9881
50.9923
50.9966
51.0009
51.0052
51.0095
51.0138
51.0182
51.0226
51.0269
51.0314
51.0358
51.0402
51.0447
51.0492
51.0537
51.0583
51.0628
51.0674
51.072
51.0766
51.0812
51.0858
51.0905
51.0952
51.0999
51.1046
51.1094
51.1141
51.1189
51.1237
51.1285
51.1334
51.1382
51.1431
51.148
51.1529
51.1578
51.1628
51.1677
51.1727
51.1777
51.1828
51.1878
51.1929
51.1979
51.203
51.2081
51.2133
51.2184
51.2236
51.2288
51.234
51.2392
51.2444
51.2497
51.255
51.2603
51.2656
51.2709
51.2763
51.2816
51.287
51.2924
51.2978
51.3033
51.3087
51.3142
51.3196
51.3251
51.3307
51.3362
51.3418
51.3473
51.3529
51.3585
51.3641
51.3697
51.3754
51.3811
51.3867
51.3924
51.3981
51.4039
51.4096
51.4154
51.4212
51.4269
51.4327
51.4386
51.4444
51.4503
51.4561
51.462
51.4679
51.4738
51.4797
51.4857
51.4916
51.4976
51.5036
51.5096
51.5156
51.5216
51.5276
51.5337
51.5398
51.5458
51.5519
51.558
51.5642
51.5703
51.5764
51.5826
51.5888
51.5949
51.6011
51.6073
51.6136
51.6198
51.626
51.6323
51.6386
51.6448
51.6511
51.6574
51.6637
51.6701
51.6764
51.6827
51.6891
51.6955
51.7018
51.7082
51.7146
51.721
51.7275
51.7338
51.7404
51.7467
51.7533
51.7597
51.7662
51.7727
51.7791
51.7857
51.7922
51.7987
51.8053
51.8117
51.8184
51.8248
51.8313
51.838
51.844
51.8502
50.5022
50.5024
50.5026
50.5028
50.5029
50.503
50.5032
50.5033
50.5035
50.5036
50.5038
50.504
50.5042
50.5044
50.5046
50.5049
50.5051
50.5054
50.5057
50.506
50.5063
50.5066
50.5069
50.5073
50.5076
50.508
50.5084
50.5088
50.5092
50.5096
50.5101
50.5105
50.511
50.5115
50.512
50.5125
50.513
50.5136
50.5141
50.5147
50.5153
50.5159
50.5165
50.5171
50.5178
50.5184
50.5191
50.5198
50.5205
50.5212
50.522
50.5227
50.5235
50.5243
50.525
50.5259
50.5267
50.5275
50.5284
50.5292
50.5301
50.531
50.5319
50.5329
50.5338
50.5348
50.5358
50.5367
50.5378
50.5388
50.5398
50.5409
50.5419
50.543
50.5441
50.5452
50.5464
50.5475
50.5486
50.5498
50.5509
50.5521
50.5533
50.5545
50.5558
50.5571
50.5584
50.5597
50.5611
50.5625
50.5639
50.5653
50.5667
50.5681
50.5695
50.571
50.5725
50.5739
50.5754
50.5769
50.5784
50.5799
50.5814
50.583
50.5846
50.5862
50.5878
50.5894
50.5911
50.5928
50.5945
50.5962
50.5979
50.5996
50.6014
50.6032
50.605
50.6068
50.6086
50.6105
50.6124
50.6143
50.6163
50.6182
50.6202
50.6222
50.6242
50.6262
50.6282
50.6302
50.6323
50.6343
50.6364
50.6385
50.6405
50.6426
50.6448
50.6469
50.6491
50.6513
50.6535
50.6557
50.658
50.6603
50.6626
50.665
50.6673
50.6697
50.6721
50.6745
50.6769
50.6794
50.6818
50.6843
50.6868
50.6893
50.6918
50.6943
50.6969
50.6994
50.702
50.7046
50.7073
50.7099
50.7126
50.7152
50.7179
50.7207
50.7234
50.7262
50.7289
50.7317
50.7345
50.7374
50.7402
50.7431
50.746
50.7489
50.7518
50.7548
50.7577
50.7607
50.7637
50.7667
50.7698
50.7728
50.7759
50.779
50.7821
50.7853
50.7884
50.7916
50.7948
50.798
50.8013
50.8045
50.8078
50.8111
50.8144
50.8177
50.8211
50.8245
50.8279
50.8313
50.8347
50.8382
50.8416
50.8451
50.8486
50.8522
50.8557
50.8593
50.8629
50.8665
50.8701
50.8737
50.8774
50.8811
50.8848
50.8885
50.8923
50.896
50.8998
50.9036
50.9075
50.9113
50.9152
50.919
50.923
50.9269
50.9308
50.9348
50.9388
50.9428
50.9468
50.9508
50.9549
50.959
50.9631
50.9672
50.9713
50.9755
50.9797
50.9839
50.9881
50.9923
50.9966
51.0009
51.0052
51.0095
51.0138
51.0182
51.0226
51.0269
51.0314
51.0358
51.0402
51.0447
51.0492
51.0537
51.0583
51.0628
51.0674
51.072
51.0766
51.0812
51.0858
51.0905
51.0952
51.0999
51.1046
51.1094
51.1141
51.1189
51.1237
51.1285
51.1334
51.1382
51.1431
51.148
51.1529
51.1578
51.1628
51.1677
51.1727
51.1777
51.1828
51.1878
51.1929
51.1979
51.203
51.2081
51.2133
51.2184
51.2236
51.2288
51.234
51.2392
51.2444
51.2497
51.255
51.2603
51.2656
51.2709
51.2763
51.2816
51.287
51.2924
51.2978
51.3033
51.3087
51.3142
51.3196
51.3251
51.3307
51.3362
51.3418
51.3473
51.3529
51.3585
51.3641
51.3697
51.3754
51.3811
51.3867
51.3924
51.3981
51.4039
51.4096
51.4154
51.4212
51.4269
51.4327
51.4386
51.4444
51.4503
51.4561
51.462
51.4679
51.4738
51.4797
51.4857
51.4916
51.4976
51.5036
51.5096
51.5156
51.5216
51.5276
51.5337
51.5398
51.5458
51.5519
51.558
51.5642
51.5703
51.5764
51.5826
51.5888
51.5949
51.6011
51.6073
51.6136
51.6198
51.626
51.6323
51.6386
51.6448
51.6511
51.6574
51.6637
51.6701
51.6764
51.6827
51.6891
51.6955
51.7019
51.7082
51.7146
51.721
51.7274
51.7339
51.7403
51.7468
51.7532
51.7598
51.7662
51.7727
51.7792
51.7856
51.7923
51.7986
51.8052
51.8118
51.8181
51.825
51.831
51.8377
51.8431
51.8486
50.5023
50.5024
50.5026
50.5028
50.5029
50.5031
50.5032
50.5033
50.5035
50.5037
50.5038
50.504
50.5042
50.5044
50.5046
50.5049
50.5051
50.5054
50.5057
50.506
50.5063
50.5066
50.5069
50.5073
50.5076
50.508
50.5084
50.5088
50.5092
50.5096
50.5101
50.5105
50.511
50.5115
50.512
50.5125
50.513
50.5136
50.5141
50.5147
50.5153
50.5159
50.5165
50.5171
50.5178
50.5185
50.5191
50.5198
50.5205
50.5212
50.522
50.5227
50.5235
50.5243
50.5251
50.5259
50.5267
50.5275
50.5284
50.5293
50.5301
50.531
50.5319
50.5329
50.5338
50.5348
50.5358
50.5368
50.5378
50.5388
50.5398
50.5409
50.5419
50.543
50.5441
50.5452
50.5464
50.5475
50.5486
50.5498
50.5509
50.5521
50.5533
50.5546
50.5558
50.5571
50.5584
50.5597
50.5611
50.5625
50.5639
50.5653
50.5667
50.5681
50.5695
50.571
50.5725
50.574
50.5754
50.5769
50.5784
50.5799
50.5815
50.583
50.5846
50.5862
50.5878
50.5894
50.5911
50.5928
50.5945
50.5962
50.5979
50.5997
50.6014
50.6032
50.605
50.6068
50.6087
50.6105
50.6124
50.6143
50.6163
50.6182
50.6202
50.6222
50.6242
50.6262
50.6282
50.6302
50.6323
50.6343
50.6364
50.6385
50.6405
50.6426
50.6448
50.6469
50.6491
50.6513
50.6535
50.6557
50.658
50.6603
50.6626
50.665
50.6673
50.6697
50.6721
50.6745
50.6769
50.6794
50.6818
50.6843
50.6868
50.6893
50.6918
50.6943
50.6969
50.6994
50.702
50.7046
50.7073
50.7099
50.7126
50.7152
50.7179
50.7207
50.7234
50.7262
50.7289
50.7317
50.7345
50.7374
50.7402
50.7431
50.746
50.7489
50.7518
50.7548
50.7577
50.7607
50.7637
50.7667
50.7698
50.7728
50.7759
50.779
50.7821
50.7853
50.7884
50.7916
50.7948
50.798
50.8013
50.8045
50.8078
50.8111
50.8144
50.8177
50.8211
50.8245
50.8279
50.8313
50.8347
50.8382
50.8416
50.8451
50.8486
50.8522
50.8557
50.8593
50.8629
50.8665
50.8701
50.8737
50.8774
50.8811
50.8848
50.8885
50.8923
50.896
50.8998
50.9036
50.9075
50.9113
50.9152
50.919
50.923
50.9269
50.9308
50.9348
50.9388
50.9428
50.9468
50.9508
50.9549
50.959
50.9631
50.9672
50.9713
50.9755
50.9797
50.9839
50.9881
50.9923
50.9966
51.0009
51.0052
51.0095
51.0138
51.0182
51.0226
51.0269
51.0314
51.0358
51.0402
51.0447
51.0492
51.0537
51.0583
51.0628
51.0674
51.072
51.0766
51.0812
51.0858
51.0905
51.0952
51.0999
51.1046
51.1094
51.1141
51.1189
51.1237
51.1285
51.1334
51.1382
51.1431
51.148
51.1529
51.1578
51.1628
51.1677
51.1727
51.1777
51.1828
51.1878
51.1929
51.1979
51.203
51.2081
51.2133
51.2184
51.2236
51.2288
51.234
51.2392
51.2444
51.2497
51.255
51.2603
51.2656
51.2709
51.2763
51.2816
51.287
51.2924
51.2978
51.3033
51.3087
51.3142
51.3196
51.3251
51.3307
51.3362
51.3418
51.3473
51.3529
51.3585
51.3641
51.3697
51.3754
51.3811
51.3867
51.3924
51.3981
51.4039
51.4096
51.4154
51.4212
51.4269
51.4327
51.4386
51.4444
51.4503
51.4561
51.462
51.4679
51.4738
51.4797
51.4857
51.4916
51.4976
51.5036
51.5096
51.5156
51.5216
51.5276
51.5337
51.5398
51.5458
51.5519
51.558
51.5642
51.5703
51.5764
51.5826
51.5888
51.5949
51.6011
51.6073
51.6136
51.6198
51.626
51.6323
51.6386
51.6448
51.6511
51.6574
51.6637
51.6701
51.6764
51.6827
51.6891
51.6955
51.7018
51.7082
51.7146
51.721
51.7275
51.7339
51.7403
51.7469
51.7531
51.7598
51.7661
51.7728
51.7791
51.7857
51.7921
51.7988
51.8051
51.812
51.818
51.825
51.8309
51.8377
51.8426
51.8508
50.5023
50.5024
50.5026
50.5028
50.5029
50.5031
50.5032
50.5033
50.5035
50.5037
50.5038
50.504
50.5042
50.5044
50.5046
50.5049
50.5051
50.5054
50.5057
50.506
50.5063
50.5066
50.5069
50.5073
50.5076
50.508
50.5084
50.5088
50.5092
50.5096
50.5101
50.5105
50.511
50.5115
50.512
50.5125
50.513
50.5136
50.5141
50.5147
50.5153
50.5159
50.5165
50.5172
50.5178
50.5185
50.5191
50.5198
50.5205
50.5212
50.522
50.5227
50.5235
50.5243
50.5251
50.5259
50.5267
50.5275
50.5284
50.5293
50.5301
50.531
50.532
50.5329
50.5338
50.5348
50.5358
50.5368
50.5378
50.5388
50.5398
50.5409
50.5419
50.543
50.5441
50.5453
50.5464
50.5475
50.5486
50.5498
50.5509
50.5521
50.5533
50.5546
50.5558
50.5571
50.5584
50.5597
50.5611
50.5625
50.5639
50.5653
50.5667
50.5681
50.5695
50.571
50.5725
50.574
50.5754
50.5769
50.5784
50.5799
50.5815
50.583
50.5846
50.5862
50.5878
50.5894
50.5911
50.5928
50.5945
50.5962
50.5979
50.5997
50.6014
50.6032
50.605
50.6068
50.6087
50.6105
50.6124
50.6143
50.6163
50.6182
50.6202
50.6222
50.6242
50.6262
50.6282
50.6302
50.6323
50.6343
50.6364
50.6385
50.6405
50.6426
50.6448
50.6469
50.6491
50.6513
50.6535
50.6557
50.658
50.6603
50.6626
50.665
50.6673
50.6697
50.6721
50.6745
50.6769
50.6794
50.6818
50.6843
50.6868
50.6893
50.6918
50.6943
50.6969
50.6994
50.702
50.7046
50.7073
50.7099
50.7126
50.7152
50.7179
50.7207
50.7234
50.7262
50.7289
50.7317
50.7345
50.7374
50.7402
50.7431
50.746
50.7489
50.7518
50.7548
50.7577
50.7607
50.7637
50.7667
50.7698
50.7728
50.7759
50.779
50.7821
50.7853
50.7884
50.7916
50.7948
50.798
50.8013
50.8045
50.8078
50.8111
50.8144
50.8177
50.8211
50.8245
50.8279
50.8313
50.8347
50.8382
50.8416
50.8451
50.8486
50.8522
50.8557
50.8593
50.8629
50.8665
50.8701
50.8737
50.8774
50.8811
50.8848
50.8885
50.8923
50.896
50.8998
50.9036
50.9075
50.9113
50.9152
50.919
50.923
50.9269
50.9308
50.9348
50.9388
50.9428
50.9468
50.9508
50.9549
50.959
50.9631
50.9672
50.9713
50.9755
50.9797
50.9839
50.9881
50.9923
50.9966
51.0009
51.0052
51.0095
51.0138
51.0182
51.0225
51.0269
51.0314
51.0358
51.0402
51.0447
51.0492
51.0537
51.0583
51.0628
51.0674
51.072
51.0766
51.0812
51.0858
51.0905
51.0952
51.0999
51.1046
51.1094
51.1141
51.1189
51.1237
51.1285
51.1334
51.1382
51.1431
51.148
51.1529
51.1578
51.1628
51.1677
51.1727
51.1777
51.1828
51.1878
51.1929
51.1979
51.203
51.2081
51.2133
51.2184
51.2236
51.2288
51.234
51.2392
51.2444
51.2497
51.255
51.2603
51.2656
51.2709
51.2763
51.2816
51.287
51.2924
51.2978
51.3033
51.3087
51.3142
51.3196
51.3251
51.3307
51.3362
51.3417
51.3473
51.3529
51.3585
51.3641
51.3697
51.3754
51.3811
51.3867
51.3924
51.3981
51.4039
51.4096
51.4154
51.4212
51.4269
51.4327
51.4386
51.4444
51.4503
51.4561
51.462
51.4679
51.4738
51.4797
51.4857
51.4916
51.4976
51.5036
51.5096
51.5156
51.5216
51.5276
51.5337
51.5398
51.5458
51.5519
51.558
51.5642
51.5703
51.5764
51.5826
51.5888
51.5949
51.6011
51.6073
51.6136
51.6198
51.626
51.6323
51.6386
51.6448
51.6511
51.6574
51.6637
51.6701
51.6764
51.6827
51.6891
51.6955
51.7018
51.7082
51.7146
51.721
51.7274
51.7339
51.7403
51.7469
51.7531
51.7598
51.7661
51.7728
51.779
51.7858
51.792
51.7989
51.805
51.812
51.8181
51.825
51.8309
51.8376
51.8423
51.8528
50.5017
50.5019
50.5021
50.5023
50.5024
50.5026
50.5027
50.5028
50.503
50.5032
50.5033
50.5035
50.5037
50.5039
50.5041
50.5044
50.5046
50.5049
50.5052
50.5055
50.5058
50.5061
50.5064
50.5068
50.5071
50.5075
50.5079
50.5083
50.5087
50.5092
50.5096
50.5101
50.5105
50.511
50.5115
50.512
50.5126
50.5131
50.5137
50.5142
50.5148
50.5154
50.516
50.5167
50.5173
50.518
50.5187
50.5194
50.5201
50.5208
50.5215
50.5223
50.523
50.5238
50.5246
50.5254
50.5262
50.5271
50.5279
50.5288
50.5297
50.5306
50.5315
50.5324
50.5334
50.5343
50.5353
50.5363
50.5373
50.5383
50.5394
50.5404
50.5415
50.5426
50.5437
50.5448
50.5459
50.547
50.5482
50.5493
50.5505
50.5517
50.5529
50.5541