/*--------------------------------*- C++ -*----------------------------------*\
| =========                 |                                                 |
| \\      /  F ield         | OpenFOAM: The Open Source CFD Toolbox           |
|  \\    /   O peration     | Version:  3.0.x                                 |
|   \\  /    A nd           | Web:      www.OpenFOAM.org                      |
|    \\/     M anipulation  |                                                 |
\*---------------------------------------------------------------------------*/
FoamFile
{
    version     2.0;
    format      ascii;
    class       volScalarField;
    location    "0.49";
    object      T;
}
// * * * * * * * * * * * * * * * * * * * * * * * * * * * * * * * * * * * * * //

dimensions      [0 0 0 1 0 0 0];

internalField   nonuniform List<scalar> 
27600
(
773.126
773.125
773.123
773.122
773.121
773.121
773.121
773.121
773.121
773.122
773.122
773.123
773.123
773.124
773.125
773.125
773.126
773.127
773.128
773.129
773.13
773.131
773.132
773.133
773.134
773.135
773.136
773.137
773.138
773.14
773.141
773.142
773.144
773.145
773.147
773.148
773.15
773.152
773.153
773.155
773.157
773.159
773.161
773.163
773.165
773.167
773.169
773.171
773.173
773.175
773.177
773.18
773.182
773.184
773.187
773.189
773.192
773.194
773.197
773.2
773.202
773.205
773.208
773.211
773.214
773.216
773.219
773.223
773.226
773.229
773.232
773.235
773.238
773.242
773.245
773.249
773.252
773.256
773.261
773.265
773.269
773.273
773.277
773.281
773.285
773.289
773.293
773.296
773.3
773.303
773.307
773.311
773.315
773.319
773.323
773.327
773.331
773.336
773.341
773.346
773.351
773.356
773.361
773.366
773.372
773.377
773.382
773.387
773.392
773.397
773.402
773.407
773.413
773.418
773.423
773.429
773.434
773.44
773.445
773.45
773.456
773.461
773.466
773.471
773.477
773.483
773.488
773.494
773.5
773.506
773.512
773.519
773.525
773.532
773.539
773.546
773.553
773.56
773.567
773.574
773.581
773.587
773.594
773.6
773.607
773.613
773.62
773.627
773.634
773.641
773.648
773.655
773.662
773.67
773.677
773.685
773.692
773.7
773.708
773.716
773.724
773.732
773.74
773.748
773.756
773.764
773.772
773.781
773.789
773.797
773.806
773.814
773.823
773.832
773.84
773.849
773.858
773.867
773.876
773.885
773.894
773.903
773.912
773.922
773.931
773.94
773.95
773.959
773.969
773.978
773.988
773.998
774.007
774.017
774.027
774.037
774.047
774.057
774.067
774.078
774.088
774.098
774.108
774.119
774.129
774.14
774.15
774.161
774.172
774.183
774.193
774.204
774.215
774.226
774.237
774.249
774.26
774.271
774.282
774.294
774.305
774.317
774.328
774.34
774.351
774.363
774.375
774.387
774.399
774.411
774.423
774.435
774.447
774.459
774.471
774.484
774.496
774.508
774.521
774.534
774.546
774.559
774.572
774.584
774.597
774.61
774.623
774.636
774.649
774.662
774.676
774.689
774.702
774.716
774.729
774.743
774.756
774.77
774.783
774.797
774.811
774.825
774.839
774.853
774.867
774.881
774.895
774.909
774.923
774.938
774.952
774.966
774.981
774.995
775.01
775.025
775.039
775.054
775.069
775.084
775.099
775.114
775.129
775.144
775.159
775.174
775.189
775.205
775.22
775.236
775.251
775.267
775.282
775.298
775.313
775.329
775.345
775.361
775.377
775.393
775.409
775.425
775.441
775.457
775.473
775.49
775.506
775.522
775.539
775.555
775.572
775.588
775.605
775.622
775.638
775.655
775.672
775.689
775.706
775.723
775.74
775.757
775.774
775.791
775.808
775.825
775.843
775.86
775.877
775.895
775.912
775.93
775.947
775.965
775.983
776
776.018
776.036
776.054
776.072
776.09
776.107
776.125
776.144
776.162
776.18
776.198
776.216
776.234
776.253
776.271
776.289
776.308
776.326
776.345
776.363
776.382
776.4
776.419
776.438
776.456
776.475
776.494
776.513
776.531
776.55
776.569
776.588
776.607
776.626
776.645
776.664
776.683
776.703
776.721
776.741
776.76
776.78
776.798
776.819
776.836
776.858
776.875
776.897
776.913
776.936
776.952
776.975
776.991
777.015
777.03
777.054
777.069
777.094
777.108
777.134
777.148
777.177
777.194
777.246
773.118
773.117
773.115
773.114
773.113
773.113
773.113
773.113
773.114
773.114
773.115
773.115
773.116
773.116
773.117
773.118
773.118
773.119
773.12
773.121
773.122
773.123
773.124
773.125
773.126
773.127
773.129
773.13
773.131
773.132
773.134
773.135
773.137
773.138
773.14
773.141
773.143
773.144
773.146
773.148
773.15
773.152
773.153
773.155
773.157
773.159
773.162
773.164
773.166
773.168
773.17
773.173
773.175
773.177
773.18
773.182
773.185
773.187
773.19
773.193
773.195
773.198
773.201
773.204
773.207
773.21
773.213
773.216
773.219
773.222
773.225
773.228
773.232
773.235
773.238
773.242
773.246
773.25
773.254
773.258
773.262
773.266
773.27
773.274
773.278
773.282
773.286
773.29
773.293
773.297
773.301
773.304
773.308
773.312
773.317
773.321
773.325
773.329
773.334
773.339
773.344
773.35
773.355
773.36
773.365
773.371
773.376
773.381
773.386
773.391
773.396
773.401
773.407
773.412
773.417
773.423
773.428
773.434
773.439
773.445
773.45
773.455
773.461
773.466
773.471
773.477
773.483
773.488
773.494
773.5
773.507
773.513
773.52
773.527
773.533
773.54
773.547
773.554
773.561
773.568
773.575
773.582
773.589
773.595
773.602
773.608
773.615
773.622
773.629
773.636
773.643
773.65
773.657
773.665
773.672
773.68
773.687
773.695
773.703
773.711
773.719
773.727
773.735
773.743
773.751
773.759
773.767
773.776
773.784
773.792
773.801
773.81
773.818
773.827
773.835
773.844
773.853
773.862
773.871
773.88
773.889
773.898
773.907
773.917
773.926
773.935
773.945
773.954
773.964
773.973
773.983
773.993
774.002
774.012
774.022
774.032
774.042
774.052
774.062
774.072
774.083
774.093
774.103
774.114
774.124
774.135
774.145
774.156
774.167
774.178
774.188
774.199
774.21
774.221
774.232
774.243
774.255
774.266
774.277
774.289
774.3
774.312
774.323
774.335
774.346
774.358
774.37
774.382
774.394
774.406
774.418
774.43
774.442
774.454
774.466
774.479
774.491
774.503
774.516
774.529
774.541
774.554
774.567
774.579
774.592
774.605
774.618
774.631
774.644
774.657
774.671
774.684
774.697
774.711
774.724
774.738
774.751
774.765
774.778
774.792
774.806
774.82
774.834
774.848
774.862
774.876
774.89
774.904
774.918
774.933
774.947
774.961
774.976
774.99
775.005
775.02
775.034
775.049
775.064
775.079
775.094
775.109
775.124
775.139
775.154
775.169
775.184
775.2
775.215
775.231
775.246
775.262
775.277
775.293
775.308
775.324
775.34
775.356
775.372
775.388
775.404
775.42
775.436
775.452
775.468
775.485
775.501
775.517
775.534
775.55
775.567
775.583
775.6
775.617
775.633
775.65
775.667
775.684
775.701
775.718
775.735
775.752
775.769
775.786
775.803
775.82
775.838
775.855
775.872
775.89
775.907
775.925
775.942
775.96
775.978
775.995
776.013
776.031
776.049
776.067
776.085
776.103
776.121
776.139
776.157
776.175
776.193
776.211
776.229
776.248
776.266
776.284
776.303
776.321
776.34
776.358
776.377
776.395
776.414
776.433
776.451
776.47
776.489
776.508
776.526
776.545
776.564
776.583
776.602
776.621
776.64
776.659
776.678
776.698
776.716
776.736
776.755
776.775
776.793
776.814
776.831
776.853
776.87
776.892
776.908
776.931
776.947
776.97
776.986
777.01
777.025
777.049
777.064
777.089
777.103
777.129
777.144
777.172
777.19
777.234
773.118
773.117
773.115
773.114
773.113
773.113
773.113
773.113
773.114
773.114
773.115
773.115
773.116
773.116
773.117
773.118
773.119
773.119
773.12
773.121
773.122
773.123
773.124
773.125
773.126
773.127
773.129
773.13
773.131
773.132
773.134
773.135
773.137
773.138
773.14
773.141
773.143
773.145
773.146
773.148
773.15
773.152
773.154
773.155
773.157
773.159
773.162
773.164
773.166
773.168
773.17
773.173
773.175
773.177
773.18
773.182
773.185
773.187
773.19
773.193
773.195
773.198
773.201
773.204
773.207
773.21
773.213
773.216
773.219
773.222
773.225
773.229
773.232
773.235
773.238
773.242
773.246
773.25
773.254
773.258
773.262
773.266
773.27
773.274
773.278
773.282
773.286
773.29
773.293
773.297
773.301
773.304
773.308
773.312
773.317
773.321
773.325
773.33
773.334
773.339
773.344
773.35
773.355
773.36
773.365
773.371
773.376
773.381
773.386
773.391
773.396
773.401
773.407
773.412
773.417
773.423
773.428
773.434
773.439
773.445
773.45
773.455
773.461
773.466
773.471
773.477
773.483
773.488
773.494
773.5
773.507
773.513
773.52
773.527
773.533
773.54
773.547
773.554
773.561
773.568
773.575
773.582
773.588
773.595
773.602
773.608
773.615
773.622
773.629
773.636
773.643
773.65
773.657
773.665
773.672
773.68
773.687
773.695
773.703
773.711
773.719
773.727
773.735
773.743
773.751
773.759
773.767
773.776
773.784
773.792
773.801
773.809
773.818
773.827
773.835
773.844
773.853
773.862
773.871
773.88
773.889
773.898
773.907
773.917
773.926
773.935
773.945
773.954
773.964
773.973
773.983
773.993
774.002
774.012
774.022
774.032
774.042
774.052
774.062
774.072
774.083
774.093
774.103
774.114
774.124
774.135
774.145
774.156
774.167
774.178
774.188
774.199
774.21
774.221
774.232
774.243
774.255
774.266
774.277
774.289
774.3
774.312
774.323
774.335
774.346
774.358
774.37
774.382
774.394
774.406
774.418
774.43
774.442
774.454
774.466
774.479
774.491
774.503
774.516
774.529
774.541
774.554
774.567
774.579
774.592
774.605
774.618
774.631
774.644
774.657
774.671
774.684
774.697
774.711
774.724
774.738
774.751
774.765
774.778
774.792
774.806
774.82
774.834
774.848
774.862
774.876
774.89
774.904
774.918
774.933
774.947
774.961
774.976
774.99
775.005
775.02
775.034
775.049
775.064
775.079
775.094
775.109
775.124
775.139
775.154
775.169
775.184
775.2
775.215
775.231
775.246
775.262
775.277
775.293
775.308
775.324
775.34
775.356
775.372
775.388
775.404
775.42
775.436
775.452
775.468
775.485
775.501
775.517
775.534
775.55
775.567
775.583
775.6
775.617
775.633
775.65
775.667
775.684
775.701
775.718
775.735
775.752
775.769
775.786
775.803
775.82
775.838
775.855
775.872
775.89
775.907
775.925
775.942
775.96
775.978
775.995
776.013
776.031
776.049
776.067
776.085
776.103
776.121
776.139
776.157
776.175
776.193
776.211
776.229
776.248
776.266
776.284
776.303
776.321
776.34
776.358
776.377
776.395
776.414
776.433
776.451
776.47
776.489
776.508
776.526
776.545
776.564
776.583
776.602
776.621
776.64
776.659
776.678
776.698
776.716
776.736
776.755
776.775
776.793
776.814
776.831
776.853
776.87
776.892
776.908
776.931
776.947
776.97
776.986
777.01
777.025
777.049
777.064
777.089
777.103
777.129
777.144
777.172
777.189
777.232
773.118
773.117
773.115
773.114
773.114
773.113
773.113
773.114
773.114
773.114
773.115
773.115
773.116
773.117
773.117
773.118
773.119
773.12
773.12
773.121
773.122
773.123
773.124
773.125
773.126
773.128
773.129
773.13
773.131
773.133
773.134
773.135
773.137
773.138
773.14
773.141
773.143
773.145
773.146
773.148
773.15
773.152
773.154
773.156
773.158
773.16
773.162
773.164
773.166
773.168
773.17
773.173
773.175
773.177
773.18
773.182
773.185
773.187
773.19
773.193
773.195
773.198
773.201
773.204
773.207
773.21
773.213
773.216
773.219
773.222
773.225
773.229
773.232
773.235
773.238
773.242
773.246
773.25
773.254
773.258
773.262
773.266
773.271
773.275
773.279
773.283
773.286
773.29
773.294
773.297
773.301
773.304
773.308
773.312
773.317
773.321
773.325
773.33
773.334
773.339
773.344
773.35
773.355
773.36
773.365
773.371
773.376
773.381
773.386
773.391
773.396
773.401
773.407
773.412
773.417
773.423
773.428
773.434
773.439
773.445
773.45
773.455
773.461
773.466
773.471
773.477
773.483
773.489
773.494
773.5
773.507
773.513
773.52
773.527
773.534
773.54
773.547
773.554
773.561
773.568
773.575
773.582
773.589
773.595
773.602
773.608
773.615
773.622
773.629
773.636
773.643
773.65
773.657
773.665
773.672
773.68
773.687
773.695
773.703
773.711
773.719
773.727
773.735
773.743
773.751
773.759
773.767
773.776
773.784
773.792
773.801
773.809
773.818
773.827
773.835
773.844
773.853
773.862
773.871
773.88
773.889
773.898
773.907
773.917
773.926
773.935
773.945
773.954
773.964
773.973
773.983
773.993
774.002
774.012
774.022
774.032
774.042
774.052
774.062
774.072
774.083
774.093
774.103
774.114
774.124
774.135
774.145
774.156
774.167
774.178
774.188
774.199
774.21
774.221
774.232
774.243
774.255
774.266
774.277
774.289
774.3
774.312
774.323
774.335
774.346
774.358
774.37
774.382
774.394
774.406
774.418
774.43
774.442
774.454
774.466
774.479
774.491
774.503
774.516
774.529
774.541
774.554
774.567
774.579
774.592
774.605
774.618
774.631
774.644
774.657
774.671
774.684
774.697
774.711
774.724
774.738
774.751
774.765
774.778
774.792
774.806
774.82
774.834
774.848
774.862
774.876
774.89
774.904
774.918
774.933
774.947
774.961
774.976
774.99
775.005
775.02
775.034
775.049
775.064
775.079
775.094
775.109
775.124
775.139
775.154
775.169
775.184
775.2
775.215
775.231
775.246
775.262
775.277
775.293
775.308
775.324
775.34
775.356
775.372
775.388
775.404
775.42
775.436
775.452
775.468
775.485
775.501
775.517
775.534
775.55
775.567
775.583
775.6
775.617
775.633
775.65
775.667
775.684
775.701
775.718
775.735
775.752
775.769
775.786
775.803
775.82
775.838
775.855
775.872
775.89
775.907
775.925
775.942
775.96
775.978
775.995
776.013
776.031
776.049
776.067
776.085
776.103
776.121
776.139
776.157
776.175
776.193
776.211
776.229
776.248
776.266
776.284
776.303
776.321
776.34
776.358
776.377
776.395
776.414
776.433
776.451
776.47
776.489
776.508
776.526
776.545
776.564
776.583
776.602
776.621
776.64
776.659
776.678
776.698
776.716
776.736
776.755
776.775
776.793
776.814
776.831
776.853
776.87
776.892
776.908
776.931
776.947
776.97
776.986
777.01
777.025
777.049
777.064
777.089
777.103
777.129
777.144
777.171
777.188
777.224
773.119
773.117
773.115
773.114
773.114
773.113
773.113
773.114
773.114
773.114
773.115
773.115
773.116
773.117
773.117
773.118
773.119
773.12
773.12
773.121
773.122
773.123
773.124
773.125
773.126
773.128
773.129
773.13
773.131
773.133
773.134
773.135
773.137
773.138
773.14
773.141
773.143
773.145
773.146
773.148
773.15
773.152
773.154
773.156
773.158
773.16
773.162
773.164
773.166
773.168
773.171
773.173
773.175
773.178
773.18
773.182
773.185
773.188
773.19
773.193
773.196
773.198
773.201
773.204
773.207
773.21
773.213
773.216
773.219
773.222
773.225
773.229
773.232
773.235
773.239
773.242
773.246
773.25
773.254
773.258
773.262
773.266
773.271
773.275
773.279
773.283
773.286
773.29
773.294
773.297
773.301
773.305
773.308
773.313
773.317
773.321
773.325
773.33
773.334
773.339
773.344
773.35
773.355
773.36
773.365
773.371
773.376
773.381
773.386
773.391
773.396
773.401
773.407
773.412
773.417
773.423
773.428
773.434
773.439
773.445
773.45
773.455
773.461
773.466
773.471
773.477
773.483
773.489
773.494
773.5
773.507
773.513
773.52
773.527
773.534
773.541
773.547
773.554
773.561
773.568
773.575
773.582
773.589
773.595
773.602
773.608
773.615
773.622
773.629
773.636
773.643
773.65
773.657
773.665
773.672
773.68
773.687
773.695
773.703
773.711
773.719
773.727
773.735
773.743
773.751
773.759
773.767
773.776
773.784
773.792
773.801
773.809
773.818
773.827
773.835
773.844
773.853
773.862
773.871
773.88
773.889
773.898
773.907
773.917
773.926
773.935
773.945
773.954
773.964
773.973
773.983
773.993
774.002
774.012
774.022
774.032
774.042
774.052
774.062
774.072
774.083
774.093
774.103
774.114
774.124
774.135
774.145
774.156
774.167
774.178
774.188
774.199
774.21
774.221
774.232
774.243
774.255
774.266
774.277
774.289
774.3
774.312
774.323
774.335
774.346
774.358
774.37
774.382
774.394
774.406
774.418
774.43
774.442
774.454
774.466
774.479
774.491
774.503
774.516
774.529
774.541
774.554
774.567
774.579
774.592
774.605
774.618
774.631
774.644
774.657
774.671
774.684
774.697
774.711
774.724
774.738
774.751
774.765
774.778
774.792
774.806
774.82
774.834
774.848
774.862
774.876
774.89
774.904
774.918
774.933
774.947
774.961
774.976
774.99
775.005
775.02
775.034
775.049
775.064
775.079
775.094
775.109
775.124
775.139
775.154
775.169
775.184
775.2
775.215
775.231
775.246
775.262
775.277
775.293
775.308
775.324
775.34
775.356
775.372
775.388
775.404
775.42
775.436
775.452
775.468
775.485
775.501
775.517
775.534
775.55
775.567
775.583
775.6
775.617
775.633
775.65
775.667
775.684
775.701
775.718
775.735
775.752
775.769
775.786
775.803
775.82
775.838
775.855
775.872
775.89
775.907
775.925
775.942
775.96
775.978
775.995
776.013
776.031
776.049
776.067
776.085
776.103
776.121
776.139
776.157
776.175
776.193
776.211
776.229
776.248
776.266
776.284
776.303
776.321
776.34
776.358
776.377
776.395
776.414
776.433
776.451
776.47
776.489
776.508
776.526
776.545
776.564
776.583
776.602
776.621
776.64
776.659
776.678
776.698
776.716
776.736
776.755
776.775
776.793
776.814
776.831
776.853
776.87
776.892
776.908
776.931
776.947
776.97
776.986
777.01
777.025
777.049
777.064
777.089
777.103
777.129
777.143
777.17
777.185
777.219
773.119
773.117
773.115
773.114
773.114
773.113
773.113
773.114
773.114
773.114
773.115
773.115
773.116
773.117
773.117
773.118
773.119
773.12
773.12
773.121
773.122
773.123
773.124
773.125
773.126
773.128
773.129
773.13
773.131
773.133
773.134
773.135
773.137
773.138
773.14
773.141
773.143
773.145
773.146
773.148
773.15
773.152
773.154
773.156
773.158
773.16
773.162
773.164
773.166
773.168
773.171
773.173
773.175
773.178
773.18
773.182
773.185
773.188
773.19
773.193
773.196
773.198
773.201
773.204
773.207
773.21
773.213
773.216
773.219
773.222
773.225
773.229
773.232
773.235
773.239
773.242
773.246
773.25
773.254
773.258
773.262
773.266
773.271
773.275
773.279
773.283
773.286
773.29
773.294
773.297
773.301
773.305
773.308
773.313
773.317
773.321
773.325
773.33
773.334
773.339
773.344
773.35
773.355
773.36
773.365
773.371
773.376
773.381
773.386
773.391
773.396
773.401
773.407
773.412
773.417
773.423
773.428
773.434
773.439
773.445
773.45
773.455
773.461
773.466
773.471
773.477
773.483
773.489
773.494
773.5
773.507
773.513
773.52
773.527
773.534
773.541
773.547
773.554
773.561
773.568
773.575
773.582
773.589
773.595
773.602
773.608
773.615
773.622
773.629
773.636
773.643
773.65
773.657
773.665
773.672
773.68
773.687
773.695
773.703
773.711
773.719
773.727
773.735
773.743
773.751
773.759
773.767
773.776
773.784
773.792
773.801
773.809
773.818
773.827
773.835
773.844
773.853
773.862
773.871
773.88
773.889
773.898
773.907
773.917
773.926
773.935
773.945
773.954
773.964
773.973
773.983
773.993
774.002
774.012
774.022
774.032
774.042
774.052
774.062
774.072
774.083
774.093
774.103
774.114
774.124
774.135
774.145
774.156
774.167
774.178
774.188
774.199
774.21
774.221
774.232
774.243
774.255
774.266
774.277
774.289
774.3
774.312
774.323
774.335
774.346
774.358
774.37
774.382
774.394
774.406
774.418
774.43
774.442
774.454
774.466
774.479
774.491
774.503
774.516
774.529
774.541
774.554
774.567
774.579
774.592
774.605
774.618
774.631
774.644
774.657
774.671
774.684
774.697
774.711
774.724
774.738
774.751
774.765
774.778
774.792
774.806
774.82
774.834
774.848
774.862
774.876
774.89
774.904
774.918
774.933
774.947
774.961
774.976
774.99
775.005
775.02
775.034
775.049
775.064
775.079
775.094
775.109
775.124
775.139
775.154
775.169
775.184
775.2
775.215
775.231
775.246
775.262
775.277
775.293
775.308
775.324
775.34
775.356
775.372
775.388
775.404
775.42
775.436
775.452
775.468
775.485
775.501
775.517
775.534
775.55
775.567
775.583
775.6
775.617
775.633
775.65
775.667
775.684
775.701
775.718
775.735
775.752
775.769
775.786
775.803
775.82
775.838
775.855
775.872
775.89
775.907
775.925
775.942
775.96
775.978
775.995
776.013
776.031
776.049
776.067
776.085
776.103
776.121
776.139
776.157
776.175
776.193
776.211
776.229
776.248
776.266
776.284
776.303
776.321
776.34
776.358
776.377
776.395
776.414
776.433
776.451
776.47
776.489
776.508
776.526
776.545
776.564
776.583
776.602
776.621
776.64
776.659
776.678
776.697
776.717
776.736
776.755
776.774
776.794
776.813
776.832
776.852
776.87
776.891
776.909
776.93
776.949
776.968
776.989
777.007
777.027
777.047
777.066
777.087
777.105
777.126
777.145
777.162
777.185
777.197
773.118
773.117
773.115
773.114
773.114
773.113
773.113
773.114
773.114
773.114
773.115
773.115
773.116
773.117
773.117
773.118
773.119
773.12
773.12
773.121
773.122
773.123
773.124
773.125
773.126
773.128
773.129
773.13
773.131
773.133
773.134
773.135
773.137
773.138
773.14
773.141
773.143
773.145
773.146
773.148
773.15
773.152
773.154
773.156
773.158
773.16
773.162
773.164
773.166
773.168
773.17
773.173
773.175
773.177
773.18
773.182
773.185
773.187
773.19
773.193
773.195
773.198
773.201
773.204
773.207
773.21
773.213
773.216
773.219
773.222
773.225
773.229
773.232
773.235
773.238
773.242
773.246
773.25
773.254
773.258
773.262
773.266
773.271
773.275
773.279
773.283
773.286
773.29
773.294
773.297
773.301
773.304
773.308
773.312
773.317
773.321
773.325
773.33
773.334
773.339
773.344
773.35
773.355
773.36
773.365
773.371
773.376
773.381
773.386
773.391
773.396
773.401
773.407
773.412
773.417
773.423
773.428
773.434
773.439
773.445
773.45
773.455
773.461
773.466
773.471
773.477
773.483
773.489
773.494
773.5
773.507
773.513
773.52
773.527
773.534
773.54
773.547
773.554
773.561
773.568
773.575
773.582
773.589
773.595
773.602
773.608
773.615
773.622
773.629
773.636
773.643
773.65
773.657
773.665
773.672
773.68
773.687
773.695
773.703
773.711
773.719
773.727
773.735
773.743
773.751
773.759
773.767
773.776
773.784
773.792
773.801
773.809
773.818
773.827
773.835
773.844
773.853
773.862
773.871
773.88
773.889
773.898
773.907
773.917
773.926
773.935
773.945
773.954
773.964
773.973
773.983
773.993
774.002
774.012
774.022
774.032
774.042
774.052
774.062
774.072
774.083
774.093
774.103
774.114
774.124
774.135
774.145
774.156
774.167
774.178
774.188
774.199
774.21
774.221
774.232
774.243
774.255
774.266
774.277
774.289
774.3
774.312
774.323
774.335
774.346
774.358
774.37
774.382
774.394
774.406
774.418
774.43
774.442
774.454
774.466
774.479
774.491
774.503
774.516
774.529
774.541
774.554
774.567
774.579
774.592
774.605
774.618
774.631
774.644
774.657
774.671
774.684
774.697
774.711
774.724
774.738
774.751
774.765
774.778
774.792
774.806
774.82
774.834
774.848
774.862
774.876
774.89
774.904
774.918
774.933
774.947
774.961
774.976
774.99
775.005
775.02
775.034
775.049
775.064
775.079
775.094
775.109
775.124
775.139
775.154
775.169
775.184
775.2
775.215
775.231
775.246
775.262
775.277
775.293
775.308
775.324
775.34
775.356
775.372
775.388
775.404
775.42
775.436
775.452
775.468
775.485
775.501
775.517
775.534
775.55
775.567
775.583
775.6
775.617
775.633
775.65
775.667
775.684
775.701
775.718
775.735
775.752
775.769
775.786
775.803
775.82
775.838
775.855
775.872
775.89
775.907
775.925
775.942
775.96
775.978
775.995
776.013
776.031
776.049
776.067
776.085
776.103
776.121
776.139
776.157
776.175
776.193
776.211
776.229
776.248
776.266
776.284
776.303
776.321
776.34
776.358
776.377
776.395
776.414
776.433
776.451
776.47
776.489
776.508
776.526
776.545
776.564
776.583
776.602
776.621
776.64
776.659
776.678
776.697
776.717
776.736
776.755
776.774
776.793
776.813
776.832
776.851
776.872
776.889
776.911
776.929
776.949
776.969
776.987
777.009
777.026
777.048
777.066
777.085
777.108
777.122
777.148
777.159
777.181
777.186
773.118
773.117
773.115
773.114
773.113
773.113
773.113
773.113
773.114
773.114
773.115
773.115
773.116
773.116
773.117
773.118
773.119
773.119
773.12
773.121
773.122
773.123
773.124
773.125
773.126
773.127
773.129
773.13
773.131
773.132
773.134
773.135
773.137
773.138
773.14
773.141
773.143
773.145
773.146
773.148
773.15
773.152
773.154
773.155
773.157
773.159
773.162
773.164
773.166
773.168
773.17
773.173
773.175
773.177
773.18
773.182
773.185
773.187
773.19
773.193
773.195
773.198
773.201
773.204
773.207
773.21
773.213
773.216
773.219
773.222
773.225
773.229
773.232
773.235
773.238
773.242
773.246
773.25
773.254
773.258
773.262
773.266
773.27
773.274
773.278
773.282
773.286
773.29
773.293
773.297
773.301
773.304
773.308
773.312
773.317
773.321
773.325
773.33
773.334
773.339
773.344
773.35
773.355
773.36
773.365
773.371
773.376
773.381
773.386
773.391
773.396
773.401
773.407
773.412
773.417
773.423
773.428
773.434
773.439
773.445
773.45
773.455
773.461
773.466
773.471
773.477
773.483
773.488
773.494
773.5
773.507
773.513
773.52
773.527
773.533
773.54
773.547
773.554
773.561
773.568
773.575
773.582
773.588
773.595
773.602
773.608
773.615
773.622
773.629
773.636
773.643
773.65
773.657
773.665
773.672
773.68
773.687
773.695
773.703
773.711
773.719
773.727
773.735
773.743
773.751
773.759
773.767
773.776
773.784
773.792
773.801
773.809
773.818
773.827
773.835
773.844
773.853
773.862
773.871
773.88
773.889
773.898
773.907
773.917
773.926
773.935
773.945
773.954
773.964
773.973
773.983
773.993
774.002
774.012
774.022
774.032
774.042
774.052
774.062
774.072
774.083
774.093
774.103
774.114
774.124
774.135
774.145
774.156
774.167
774.178
774.188
774.199
774.21
774.221
774.232
774.243
774.255
774.266
774.277
774.289
774.3
774.312
774.323
774.335
774.346
774.358
774.37
774.382
774.394
774.406
774.418
774.43
774.442
774.454
774.466
774.479
774.491
774.503
774.516
774.529
774.541
774.554
774.567
774.579
774.592
774.605
774.618
774.631
774.644
774.657
774.671
774.684
774.697
774.711
774.724
774.738
774.751
774.765
774.778
774.792
774.806
774.82
774.834
774.848
774.862
774.876
774.89
774.904
774.918
774.933
774.947
774.961
774.976
774.99
775.005
775.02
775.034
775.049
775.064
775.079
775.094
775.109
775.124
775.139
775.154
775.169
775.184
775.2
775.215
775.231
775.246
775.262
775.277
775.293
775.308
775.324
775.34
775.356
775.372
775.388
775.404
775.42
775.436
775.452
775.468
775.485
775.501
775.517
775.534
775.55
775.567
775.583
775.6
775.617
775.633
775.65
775.667
775.684
775.701
775.718
775.735
775.752
775.769
775.786
775.803
775.82
775.838
775.855
775.872
775.89
775.907
775.925
775.942
775.96
775.978
775.995
776.013
776.031
776.049
776.067
776.085
776.103
776.121
776.139
776.157
776.175
776.193
776.211
776.229
776.248
776.266
776.284
776.303
776.321
776.34
776.358
776.377
776.395
776.414
776.433
776.451
776.47
776.489
776.508
776.526
776.545
776.564
776.583
776.602
776.621
776.64
776.659
776.678
776.697
776.717
776.736
776.755
776.774
776.793
776.813
776.832
776.851
776.872
776.889
776.911
776.928
776.95
776.967
776.989
777.006
777.028
777.045
777.069
777.083
777.109
777.122
777.148
777.158
777.183
777.14
773.118
773.117
773.115
773.114
773.113
773.113
773.113
773.113
773.114
773.114
773.115
773.115
773.116
773.116
773.117
773.118
773.118
773.119
773.12
773.121
773.122
773.123
773.124
773.125
773.126
773.127
773.129
773.13
773.131
773.132
773.134
773.135
773.137
773.138
773.14
773.141
773.143
773.144
773.146
773.148
773.15
773.152
773.153
773.155
773.157
773.159
773.162
773.164
773.166
773.168
773.17
773.173
773.175
773.177
773.18
773.182
773.185
773.187
773.19
773.193
773.195
773.198
773.201
773.204
773.207
773.21
773.213
773.216
773.219
773.222
773.225
773.228
773.232
773.235
773.238
773.242
773.246
773.25
773.254
773.258
773.262
773.266
773.27
773.274
773.278
773.282
773.286
773.29
773.293
773.297
773.301
773.304
773.308
773.312
773.317
773.321
773.325
773.329
773.334
773.339
773.344
773.35
773.355
773.36
773.365
773.371
773.376
773.381
773.386
773.391
773.396
773.401
773.407
773.412
773.417
773.423
773.428
773.434
773.439
773.445
773.45
773.455
773.461
773.466
773.471
773.477
773.483
773.488
773.494
773.5
773.507
773.513
773.52
773.527
773.533
773.54
773.547
773.554
773.561
773.568
773.575
773.582
773.589
773.595
773.602
773.608
773.615
773.622
773.629
773.636
773.643
773.65
773.657
773.665
773.672
773.68
773.687
773.695
773.703
773.711
773.719
773.727
773.735
773.743
773.751
773.759
773.767
773.776
773.784
773.792
773.801
773.81
773.818
773.827
773.835
773.844
773.853
773.862
773.871
773.88
773.889
773.898
773.907
773.917
773.926
773.935
773.945
773.954
773.964
773.973
773.983
773.993
774.002
774.012
774.022
774.032
774.042
774.052
774.062
774.072
774.083
774.093
774.103
774.114
774.124
774.135
774.145
774.156
774.167
774.178
774.188
774.199
774.21
774.221
774.232
774.243
774.255
774.266
774.277
774.289
774.3
774.312
774.323
774.335
774.346
774.358
774.37
774.382
774.394
774.406
774.418
774.43
774.442
774.454
774.466
774.479
774.491
774.503
774.516
774.529
774.541
774.554
774.567
774.579
774.592
774.605
774.618
774.631
774.644
774.657
774.671
774.684
774.697
774.711
774.724
774.738
774.751
774.765
774.778
774.792
774.806
774.82
774.834
774.848
774.862
774.876
774.89
774.904
774.918
774.933
774.947
774.961
774.976
774.99
775.005
775.02
775.034
775.049
775.064
775.079
775.094
775.109
775.124
775.139
775.154
775.169
775.184
775.2
775.215
775.231
775.246
775.262
775.277
775.293
775.308
775.324
775.34
775.356
775.372
775.388
775.404
775.42
775.436
775.452
775.468
775.485
775.501
775.517
775.534
775.55
775.567
775.583
775.6
775.617
775.633
775.65
775.667
775.684
775.701
775.718
775.735
775.752
775.769
775.786
775.803
775.82
775.838
775.855
775.872
775.89
775.907
775.925
775.942
775.96
775.978
775.995
776.013
776.031
776.049
776.067
776.085
776.103
776.121
776.139
776.157
776.175
776.193
776.211
776.229
776.248
776.266
776.284
776.303
776.321
776.34
776.358
776.377
776.395
776.414
776.433
776.451
776.47
776.489
776.508
776.526
776.545
776.564
776.583
776.602
776.621
776.64
776.659
776.678
776.697
776.717
776.736
776.755
776.774
776.794
776.813
776.832
776.851
776.872
776.889
776.912
776.927
776.951
776.966
776.99
777.005
777.03
777.044
777.069
777.083
777.109
777.121
777.148
777.158
777.186
777.108
773.126
773.125
773.123
773.122
773.121
773.121
773.121
773.121
773.121
773.122
773.122
773.123
773.123
773.124
773.125
773.125
773.126
773.127
773.128
773.129
773.13
773.131
773.132
773.133
773.134
773.135
773.136
773.137
773.138
773.14
773.141
773.142
773.144
773.145
773.147
773.148
773.15
773.152
773.153
773.155
773.157
773.159
773.161
773.163
773.165
773.167
773.169
773.171
773.173
773.175
773.177
773.18
773.182
773.184
773.187
773.189
773.192
773.194
773.197
773.2
773.202
773.205
773.208
773.211
773.214
773.216
773.219
773.223
773.226
773.229
773.232
773.235
773.238
773.242
773.245
773.249
773.252
773.256
773.261
773.265
773.269
773.273
773.277
773.281
773.285
773.289
773.293
773.296
773.3
773.303
773.307
773.311
773.315
773.319
773.323
773.327
773.331