/*--------------------------------*- C++ -*----------------------------------*\
| =========                 |                                                 |
| \\      /  F ield         | OpenFOAM: The Open Source CFD Toolbox           |
|  \\    /   O peration     | Version:  3.0.x                                 |
|   \\  /    A nd           | Web:      www.OpenFOAM.org                      |
|    \\/     M anipulation  |                                                 |
\*---------------------------------------------------------------------------*/
FoamFile
{
    version     2.0;
    format      ascii;
    class       surfaceScalarField;
    location    "0.6";
    object      phi;
}
// * * * * * * * * * * * * * * * * * * * * * * * * * * * * * * * * * * * * * //

dimensions      [1 0 -1 0 0 0 0];

internalField   nonuniform List<scalar> 
999
(
2523.38
2523.38
2523.38
2523.38
2523.38
2523.38
2523.38
2523.38
2523.38
2523.38
2523.38
2523.38
2523.38
2523.38
2523.38
2523.38
2523.38
2523.38
2523.38
2523.38
2523.38
2523.38
2523.38
2523.38
2523.38
2523.38
2523.38
2523.38
2523.38
2523.38
2523.38
2523.38
2523.38
2523.38
2523.38
2523.38
2523.38
2523.38
2523.38
2523.38
2523.38
2523.38
2523.38
2523.38
2523.38
2523.38
2523.38
2523.38
2523.38
2523.38
2523.38
2523.38
2523.38
2523.38
2523.38
2523.38
2523.38
2523.38
2523.38
2523.38
2523.38
2523.38
2523.38
2523.38
2523.38
2523.38
2523.38
2523.38
2523.38
2523.38
2523.38
2523.38
2523.38
2523.38
2523.38
2523.38
2523.38
2523.38
2523.38
2523.38
2523.38
2523.38
2523.38
2523.38
2523.38
2523.38
2523.38
2523.38
2523.38
2523.38
2523.38
2523.38
2523.38
2523.38
2523.38
2523.38
2523.38
2523.38
2523.38
2523.38
2523.38
2523.38
2523.38
2523.38
2523.38
2523.38
2523.38
2523.38
2523.38
2523.38
2523.38
2523.38
2523.38
2523.38
2523.38
2523.38
2523.38
2523.38
2523.38
2523.38
2523.38
2523.38
2523.38
2523.38
2523.38
2523.38
2523.38
2523.38
2523.38
2523.38
2523.38
2523.38
2523.38
2523.38
2523.38
2523.38
2523.38
2523.38
2523.38
2523.38
2523.38
2523.38
2523.38
2523.38
2523.38
2523.38
2523.38
2523.38
2523.38
2523.38
2523.38
2523.38
2523.38
2523.38
2523.38
2523.38
2523.38
2523.38
2523.38
2523.38
2523.38
2523.38
2523.38
2523.38
2523.38
2523.38
2523.38
2523.38
2523.38
2523.38
2523.38
2523.38
2523.38
2523.38
2523.38
2523.38
2523.38
2523.38
2523.38
2523.38
2523.38
2523.38
2523.38
2523.38
2523.38
2523.38
2523.38
2523.38
2523.38
2523.38
2523.38
2523.38
2523.38
2523.38
2523.38
2523.38
2523.38
2523.38
2523.38
2523.38
2523.38
2523.38
2523.38
2523.38
2523.38
2523.38
2523.38
2523.38
2523.38
2523.38
2523.38
2523.38
2523.38
2523.38
2523.38
2523.38
2523.38
2523.38
2523.38
2523.38
2523.38
2523.38
2523.38
2523.38
2523.38
2523.38
2523.38
2523.38
2523.38
2523.38
2523.38
2523.38
2523.38
2523.38
2523.38
2523.38
2523.38
2523.38
2523.38
2523.38
2523.38
2523.38
2523.38
2523.38
2523.38
2523.38
2523.38
2523.38
2523.38
2523.38
2523.38
2523.38
2523.38
2523.38
2523.38
2523.38
2523.38
2523.38
2523.38
2523.38
2523.38
2523.38
2523.38
2523.38
2523.38
2523.38
2523.38
2523.38
2523.38
2523.38
2523.38
2523.38
2523.38
2523.38
2523.38
2523.38
2523.38
2523.38
2523.38
2523.38
2523.38
2523.38
2523.38
2523.38
2523.38
2523.38
2523.38
2523.38
2523.38
2523.38
2523.38
2523.38
2523.38
2523.38
2523.38
2523.38
2523.38
2523.38
2523.38
2523.38
2523.38
2523.38
2523.38
2523.38
2523.38
2523.38
2523.38
2523.38
2523.38
2523.38
2523.38
2523.38
2523.38
2523.38
2523.38
2523.38
2523.38
2523.38
2523.38
2523.38
2523.38
2523.38
2523.38
2523.38
2523.38
2523.38
2523.38
2523.38
2523.38
2523.38
2523.38
2523.38
2523.38
2523.38
2523.38
2523.38
2523.38
2523.38
2523.38
2523.38
2523.38
2523.38
2523.38
2523.38
2523.38
2523.38
2523.38
2523.38
2523.38
2523.38
2523.38
2523.38
2523.38
2523.38
2523.38
2523.38
2523.38
2523.38
2523.38
2523.38
2523.38
2523.38
2523.38
2523.38
2523.38
2523.38
2523.38
2523.38
2523.38
2523.38
2523.38
2523.38
2523.38
2523.38
2523.38
2523.38
2523.38
2523.38
2523.38
2523.38
2523.38
2523.38
2523.38
2523.38
2523.38
2523.38
2523.38
2523.38
2523.38
2523.38
2523.38
2523.38
2523.38
2523.38
2523.38
2523.38
2523.38
2523.38
2523.38
2523.38
2523.38
2523.38
2523.38
2523.38
2523.38
2523.38
2523.38
2523.38
2523.38
2523.38
2523.38
2523.38
2523.38
2523.38
2523.38
2523.38
2523.38
2523.38
2523.38
2523.38
2523.38
2523.38
2523.38
2523.38
2523.38
2523.38
2523.38
2523.38
2523.38
2523.38
2523.38
2523.38
2523.38
2523.38
2523.38
2523.38
2523.38
2523.38
2523.38
2523.38
2523.38
2523.38
2523.38
2523.38
2523.38
2523.38
2523.38
2523.38
2523.38
2523.38
2523.38
2523.38
2523.38
2523.38
2523.38
2523.38
2523.38
2523.38
2523.38
2523.38
2523.38
2523.38
2523.38
2523.38
2523.38
2523.38
2523.38
2523.38
2523.38
2523.38
2523.38
2523.38
2523.38
2523.38
2523.38
2523.38
2523.38
2523.38
2523.38
2523.38
2523.38
2523.38
2523.38
2523.38
2523.38
2523.38
2523.38
2523.38
2523.38
2523.38
2523.38
2523.38
2523.38
2523.38
2523.38
2523.38
2523.38
2523.38
2523.38
2523.38
2523.38
2523.38
2523.38
2523.38
2523.38
2523.38
2523.38
2523.38
2523.38
2523.38
2523.38
2523.38
2523.38
2523.38
2523.38
2523.38
2523.38
2523.38
2523.38
2523.38
2523.38
2523.38
2523.38
2523.38
2523.38
2523.38
2523.38
2523.38
2523.38
2523.38
2523.38
2523.38
2523.38
2523.38
2523.38
2523.38
2523.38
2523.38
2523.38
2523.38
2523.38
2523.38
2523.38
2523.38
2523.38
2523.38
2523.38
2523.38
2523.38
2523.38
2523.38
2523.38
2523.38
2523.38
2523.38
2523.38
2523.38
2523.38
2523.38
2523.38
2523.38
2523.38
2523.38
2523.38
2523.38
2523.38
2523.38
2523.38
2523.38
2523.38
2523.38
2523.38
2523.38
2523.38
2523.38
2523.38
2523.38
2523.38
2523.38
2523.38
2523.38
2523.38
2523.38
2523.38
2523.38
2523.38
2523.38
2523.38
2523.38
2523.38
2523.38
2523.38
2523.38
2523.38
2523.38
2523.38
2523.38
2523.38
2523.38
2523.38
2523.38
2523.38
2523.38
2523.38
2523.38
2523.38
2523.38
2523.38
2523.38
2523.38
2523.38
2523.38
2523.38
2523.38
2523.38
2523.38
2523.38
2523.38
2523.38
2523.38
2523.38
2523.38
2523.38
2523.38
2523.38
2523.38
2523.38
2523.38
2523.38
2523.38
2523.38
2523.38
2523.38
2523.38
2523.38
2523.38
2523.38
2523.38
2523.38
2523.38
2523.38
2523.38
2523.38
2523.38
2523.38
2523.38
2523.38
2523.38
2523.38
2523.38
2523.38
2523.38
2523.38
2523.38
2523.38
2523.38
2523.38
2523.38
2523.38
2523.38
2523.38
2523.38
2523.38
2523.37
2523.37
2523.37
2523.36
2523.36
2523.35
2523.33
2523.32
2523.3
2523.28
2523.25
2523.21
2523.16
2523.1
2523.03
2522.93
2522.82
2522.68
2522.5
2522.29
2522.03
2521.71
2521.33
2520.87
2520.32
2519.67
2518.89
2517.97
2516.88
2515.61
2514.12
2512.38
2510.37
2508.04
2505.37
2502.3
2498.8
2494.82
2490.3
2485.21
2479.48
2473.06
2465.9
2457.95
2449.13
2439.4
2428.7
2416.99
2404.2
2390.29
2375.22
2358.95
2341.44
2322.67
2302.61
2281.25
2258.59
2234.61
2209.34
2182.77
2154.94
2125.88
2095.62
2064.19
2031.65
1998.05
1963.45
1927.9
1891.47
1854.22
1816.21
1777.52
1738.2
1698.33
1657.97
1617.19
1576.04
1534.59
1492.9
1451.03
1409.03
1366.97
1324.88
1282.82
1240.84
1199
1157.32
1115.87
1074.68
1033.78
993.237
953.072
913.329
874.044
835.253
796.995
759.303
722.213
685.76
649.978
614.902
580.566
547.005
514.251
482.339
451.302
421.174
391.985
363.769
336.553
310.368
285.239
261.191
238.244
216.417
195.722
176.169
157.763
140.504
124.384
109.394
95.5153
82.7249
70.9942
60.2893
50.5714
41.7973
33.92
26.8894
20.6536
15.1594
10.3547
6.19035
2.62567
-0.359764
-2.68673
-4.50175
-6.01306
-7.2741
-8.31408
-9.16013
-9.83995
-10.38
-10.8034
-11.1306
-11.3795
-11.5655
-11.7014
-11.7982
-11.8649
-11.9086
-11.9353
-11.9494
-11.9547
-11.9538
-11.9487
-11.9411
-11.932
-11.9221
-11.9117
-11.9011
-11.8904
-11.8799
-11.8696
-11.8598
-11.8505
-11.8417
-11.8335
-11.8258
-11.8186
-11.8119
-11.8057
-11.7999
-11.7944
-11.7893
-11.7846
-11.7801
-11.7759
-11.7719
-11.7682
-11.7646
-11.7613
-11.7582
-11.7552
-11.7524
-11.7498
-11.7472
-11.7449
-11.7426
-11.7404
-11.7384
-11.7365
-11.7346
-11.7329
-11.7312
-11.7296
-11.7281
-11.7267
-11.7254
-11.7241
-11.7229
-11.7218
-11.7208
-11.7198
-11.7189
-11.718
-11.7173
-11.7166
-11.716
-11.7155
-11.7151
-11.7148
-11.7146
-11.7145
-11.7145
-11.7147
-11.715
-11.7154
-11.7158
-11.7163
-11.7168
-11.7173
-11.7177
-11.7181
-11.7184
-11.7186
-11.7188
-11.7189
-11.7189
-11.7188
-11.7188
-11.7186
-11.7185
-11.7184
-11.7182
-11.718
-11.7178
-11.7176
-11.7173
-11.7169
-11.7164
-11.7158
-11.7152
-11.7145
-11.7137
-11.7129
-11.712
-11.7111
-11.7102
-11.7093
-11.7085
-11.7076
-11.7068
-11.7061
-11.7054
-11.7047
-11.7041
-11.7035
-11.703
-11.7024
-11.702
-11.7015
-11.7011
-11.7007
-11.7003
-11.7
-11.6996
-11.6993
-11.699
-11.6987
-11.6984
-11.6981
-11.6979
-11.6976
-11.6974
-11.6972
-11.6969
-11.6967
-11.6965
-11.6963
-11.6961
-11.6959
-11.6957
-11.6956
-11.6954
-11.6952
-11.695
-11.6949
-11.6947
-11.6946
-11.6944
-11.6943
-11.6941
-11.694
-11.6939
-11.6937
-11.6936
-11.6935
-11.6934
-11.6932
-11.6931
-11.693
-11.6929
-11.6928
-11.6926
-11.6925
-11.6924
-11.6923
-11.6922
-11.692
-11.6919
-11.6917
-11.6916
-11.6914
-11.6913
-11.6911
-11.6909
-11.6906
-11.6904
-11.6902
-11.6899
-11.6896
-11.6893
-11.689
-11.6887
-11.6884
-11.6881
-11.6878
-11.6875
-11.6872
-11.687
-11.6868
-11.6866
-11.6865
-11.6863
-11.6864
)
;

boundaryField
{
    inlet
    {
        type            calculated;
        value           uniform -2523.38;
    }
    backWall
    {
        type            calculated;
        value           uniform -11.6864;
    }
    sides
    {
        type            empty;
        value           nonuniform 0();
    }
}


// ************************************************************************* //
