/*--------------------------------*- C++ -*----------------------------------*\
| =========                 |                                                 |
| \\      /  F ield         | OpenFOAM: The Open Source CFD Toolbox           |
|  \\    /   O peration     | Version:  3.0.x                                 |
|   \\  /    A nd           | Web:      www.OpenFOAM.org                      |
|    \\/     M anipulation  |                                                 |
\*---------------------------------------------------------------------------*/
FoamFile
{
    version     2.0;
    format      ascii;
    class       volVectorField;
    location    "0.6";
    object      U;
}
// * * * * * * * * * * * * * * * * * * * * * * * * * * * * * * * * * * * * * //

dimensions      [0 1 -1 0 0 0 0];

internalField   nonuniform List<vector> 
1000
(
(50 0 0)
(50 0 0)
(50 0 0)
(50 0 0)
(50 0 0)
(50 0 0)
(50 0 0)
(50 0 0)
(50 0 0)
(50 0 0)
(50 0 0)
(50 0 0)
(50 0 0)
(50 0 0)
(50 0 0)
(50 0 0)
(50 0 0)
(50 0 0)
(50 0 0)
(50 0 0)
(50 0 0)
(50 0 0)
(50 0 0)
(50 0 0)
(50 0 0)
(50 0 0)
(50 0 0)
(50 0 0)
(50 0 0)
(50 0 0)
(50 0 0)
(50 0 0)
(50 0 0)
(50 0 0)
(50 0 0)
(50 0 0)
(50 0 0)
(50 0 0)
(50 0 0)
(50 0 0)
(50 0 0)
(50 0 0)
(50 0 0)
(50 0 0)
(50 0 0)
(50 0 0)
(50 0 0)
(50 0 0)
(50 0 0)
(50 0 0)
(50 0 0)
(50 0 0)
(50 0 0)
(50 0 0)
(50 0 0)
(50 0 0)
(50 0 0)
(50 0 0)
(50 0 0)
(50 0 0)
(50 0 0)
(50 0 0)
(50 0 0)
(50 0 0)
(50 0 0)
(50 0 0)
(50 0 0)
(50 0 0)
(50 0 0)
(50 0 0)
(50 0 0)
(50 0 0)
(50 0 0)
(50 0 0)
(50 0 0)
(50 0 0)
(50 0 0)
(50 0 0)
(50 0 0)
(50 0 0)
(50 0 0)
(50 0 0)
(50 0 0)
(50 0 0)
(50 0 0)
(50 0 0)
(50 0 0)
(50 0 0)
(50 0 0)
(50 0 0)
(50 0 0)
(50 0 0)
(50 0 0)
(50 0 0)
(50 0 0)
(50 0 0)
(50 0 0)
(50 0 0)
(50 0 0)
(50 0 0)
(50 0 0)
(50 0 0)
(50 0 0)
(50 0 0)
(50 0 0)
(50 0 0)
(50 0 0)
(50 0 0)
(50 0 0)
(50 0 0)
(50 0 0)
(50 0 0)
(50 0 0)
(50 0 0)
(50 0 0)
(50 0 0)
(50 0 0)
(50 0 0)
(50 0 0)
(50 0 0)
(50 0 0)
(50 0 0)
(50 0 0)
(50 0 0)
(50 0 0)
(50 0 0)
(50 0 0)
(50 0 0)
(50 0 0)
(50 0 0)
(50 0 0)
(50 0 0)
(50 0 0)
(50 0 0)
(50 0 0)
(50 0 0)
(50 0 0)
(50 0 0)
(50 0 0)
(50 0 0)
(50 0 0)
(50 0 0)
(50 0 0)
(50 0 0)
(50 0 0)
(50 0 0)
(50 0 0)
(50 0 0)
(50 0 0)
(50 0 0)
(50 0 0)
(50 0 0)
(50 0 0)
(50 0 0)
(50 0 0)
(50 0 0)
(50 0 0)
(50 0 0)
(50 0 0)
(50 0 0)
(50 0 0)
(50 0 0)
(50 0 0)
(50 0 0)
(50 0 0)
(50 0 0)
(50 0 0)
(50 0 0)
(50 0 0)
(50 0 0)
(50 0 0)
(50 0 0)
(50 0 0)
(50 0 0)
(50 0 0)
(50 0 0)
(50 0 0)
(50 0 0)
(50 0 0)
(50 0 0)
(50 0 0)
(50 0 0)
(50 0 0)
(50 0 0)
(50 0 0)
(50 0 0)
(50 0 0)
(50 0 0)
(50 0 0)
(50 0 0)
(50 0 0)
(50 0 0)
(50 0 0)
(50 0 0)
(50 0 0)
(50 0 0)
(50 0 0)
(50 0 0)
(50 0 0)
(50 0 0)
(50 0 0)
(50 0 0)
(50 0 0)
(50 0 0)
(50 0 0)
(50 0 0)
(50 0 0)
(50 0 0)
(50 0 0)
(50 0 0)
(50 0 0)
(50 0 0)
(50 0 0)
(50 0 0)
(50 0 0)
(50 0 0)
(50 0 0)
(50 0 0)
(50 0 0)
(50 0 0)
(50 0 0)
(50 0 0)
(50 0 0)
(50 0 0)
(50 0 0)
(50 0 0)
(50 0 0)
(50 0 0)
(50 0 0)
(50 0 0)
(50 0 0)
(50 0 0)
(50 0 0)
(50 0 0)
(50 0 0)
(50 0 0)
(50 0 0)
(50 0 0)
(50 0 0)
(50 0 0)
(50 0 0)
(50 0 0)
(50 0 0)
(50 0 0)
(50 0 0)
(50 0 0)
(50 0 0)
(50 0 0)
(50 0 0)
(50 0 0)
(50 0 0)
(50 0 0)
(50 0 0)
(50 0 0)
(50 0 0)
(50 0 0)
(50 0 0)
(50 0 0)
(50 0 0)
(50 0 0)
(50 0 0)
(50 0 0)
(50 0 0)
(50 0 0)
(50 0 0)
(50 0 0)
(50 0 0)
(50 0 0)
(50 0 0)
(50 0 0)
(50 0 0)
(50 0 0)
(50 0 0)
(50 0 0)
(50 0 0)
(50 0 0)
(50 0 0)
(50 0 0)
(50 0 0)
(50 0 0)
(50 0 0)
(50 0 0)
(50 0 0)
(50 0 0)
(50 0 0)
(50 0 0)
(50 0 0)
(50 0 0)
(50 0 0)
(50 0 0)
(50 0 0)
(50 0 0)
(50 0 0)
(50 0 0)
(50 0 0)
(50 0 0)
(50 0 0)
(50 0 0)
(50 0 0)
(50 0 0)
(50 0 0)
(50 0 0)
(50 0 0)
(50 0 0)
(50 0 0)
(50 0 0)
(50 0 0)
(50 0 0)
(50 0 0)
(50 0 0)
(50 0 0)
(50 0 0)
(50 0 0)
(50 0 0)
(50 0 0)
(50 0 0)
(50 0 0)
(50 0 0)
(50 0 0)
(50 0 0)
(50 0 0)
(50 0 0)
(50 0 0)
(50 0 0)
(50 0 0)
(50 0 0)
(50 0 0)
(50 0 0)
(50 0 0)
(50 0 0)
(50 0 0)
(50 0 0)
(50 0 0)
(50 0 0)
(50 0 0)
(50 0 0)
(50 0 0)
(50 0 0)
(50 0 0)
(50 0 0)
(50 0 0)
(50 0 0)
(50 0 0)
(50 0 0)
(50 0 0)
(50 0 0)
(50 0 0)
(50 0 0)
(50 0 0)
(50 0 0)
(50 0 0)
(50 0 0)
(50 0 0)
(50 0 0)
(50 0 0)
(50 0 0)
(50 0 0)
(50 0 0)
(50 0 0)
(50 0 0)
(50 0 0)
(50 0 0)
(50 0 0)
(50 0 0)
(50 0 0)
(50 0 0)
(50 0 0)
(50 0 0)
(50 0 0)
(50 0 0)
(50 0 0)
(50 0 0)
(50 0 0)
(50 0 0)
(50 0 0)
(50 0 0)
(50 0 0)
(50 0 0)
(50 0 0)
(50 0 0)
(50 0 0)
(50 0 0)
(50 0 0)
(50 0 0)
(50 0 0)
(50 0 0)
(50 0 0)
(50 0 0)
(50 0 0)
(50 0 0)
(50 0 0)
(50 0 0)
(50 0 0)
(50 0 0)
(50 0 0)
(50 0 0)
(50 0 0)
(50 0 0)
(50 0 0)
(50 0 0)
(50 0 0)
(50 0 0)
(50 0 0)
(50 0 0)
(50 0 0)
(50 0 0)
(50 0 0)
(50 0 0)
(50 0 0)
(50 0 0)
(50 0 0)
(50 0 0)
(50 0 0)
(50 0 0)
(50 0 0)
(50 0 0)
(50 0 0)
(50 0 0)
(50 0 0)
(50 0 0)
(50 0 0)
(50 0 0)
(50 0 0)
(50 0 0)
(50 0 0)
(50 0 0)
(50 0 0)
(50 0 0)
(50 0 0)
(50 0 0)
(50 0 0)
(50 0 0)
(50 0 0)
(50 0 0)
(50 0 0)
(50 0 0)
(50 0 0)
(50 0 0)
(50 0 0)
(50 0 0)
(50 0 0)
(50 0 0)
(50 0 0)
(50 0 0)
(50 0 0)
(50 0 0)
(50 0 0)
(50 0 0)
(50 0 0)
(50 0 0)
(50 0 0)
(50 0 0)
(50 0 0)
(50 0 0)
(50 0 0)
(50 0 0)
(50 0 0)
(50 0 0)
(50 0 0)
(50 0 0)
(50 0 0)
(50 0 0)
(50 0 0)
(50 0 0)
(50 0 0)
(50 0 0)
(50 0 0)
(50 0 0)
(50 0 0)
(50 0 0)
(50 0 0)
(50 0 0)
(50 0 0)
(50 0 0)
(50 0 0)
(50 0 0)
(50 0 0)
(50 0 0)
(50 0 0)
(50 0 0)
(50 0 0)
(50 0 0)
(50 0 0)
(50 0 0)
(50 0 0)
(50 0 0)
(50 0 0)
(50 0 0)
(50 0 0)
(50 0 0)
(50 0 0)
(50 0 0)
(50 0 0)
(50 0 0)
(50 0 0)
(50 0 0)
(50 0 0)
(50 0 0)
(50 0 0)
(50 0 0)
(50 0 0)
(50 0 0)
(50 0 0)
(50 0 0)
(50 0 0)
(50 0 0)
(50 0 0)
(50 0 0)
(50 0 0)
(50 0 0)
(50 0 0)
(50 0 0)
(50 0 0)
(50 0 0)
(50 0 0)
(50 0 0)
(50 0 0)
(50 0 0)
(50 0 0)
(50 0 0)
(50 0 0)
(50 0 0)
(50 0 0)
(50 0 0)
(50 0 0)
(50 0 0)
(50 0 0)
(50 0 0)
(50 0 0)
(50 0 0)
(50 0 0)
(50 0 0)
(50 0 0)
(50 0 0)
(50 0 0)
(50 0 0)
(50 0 0)
(50 0 0)
(50 0 0)
(50 0 0)
(50 0 0)
(50 0 0)
(50 0 0)
(50 0 0)
(50 0 0)
(50 0 0)
(50 0 0)
(50 0 0)
(50 0 0)
(50 0 0)
(50 0 0)
(50 0 0)
(50 0 0)
(50 0 0)
(50 0 0)
(50 0 0)
(50 0 0)
(50 0 0)
(50 0 0)
(50 0 0)
(50 0 0)
(50 0 0)
(50 0 0)
(50 0 0)
(50 0 0)
(50 0 0)
(50 0 0)
(50 0 0)
(50 0 0)
(50 0 0)
(50 0 0)
(50 0 0)
(50 0 0)
(50 0 0)
(50 0 0)
(50 0 0)
(50 0 0)
(50 0 0)
(50 0 0)
(50 0 0)
(50 0 0)
(50 0 0)
(50 0 0)
(50 0 0)
(50 0 0)
(50 0 0)
(50 0 0)
(50 0 0)
(50 0 0)
(50 0 0)
(50 0 0)
(50 0 0)
(50 0 0)
(50 0 0)
(50 0 0)
(50 0 0)
(50 0 0)
(50 0 0)
(50 0 0)
(50 0 0)
(50 0 0)
(50 0 0)
(50 0 0)
(50 0 0)
(50 0 0)
(50 0 0)
(50 0 0)
(50 0 0)
(50 0 0)
(50 0 0)
(50 0 0)
(50 0 0)
(50 0 0)
(50 0 0)
(50 0 0)
(50 0 0)
(50 0 0)
(50 0 0)
(50 0 0)
(50 0 0)
(50 0 0)
(50 0 0)
(50 0 0)
(50 0 0)
(50 0 0)
(50 0 0)
(50 0 0)
(50 0 0)
(50 0 0)
(50 0 0)
(50 0 0)
(50 0 0)
(50 0 0)
(50 0 0)
(50 0 0)
(50 0 0)
(50 0 0)
(50 0 0)
(50 0 0)
(50 0 0)
(50 0 0)
(50 0 0)
(50 0 0)
(50 0 0)
(50 0 0)
(50 0 0)
(50 0 0)
(50 0 0)
(50 0 0)
(50 0 0)
(50 0 0)
(50 0 0)
(50 0 0)
(50 0 0)
(50 0 0)
(50 0 0)
(50 0 0)
(50 0 0)
(50 0 0)
(49.9999 0 0)
(49.9999 0 0)
(49.9999 0 0)
(49.9999 0 0)
(49.9998 0 0)
(49.9998 0 0)
(49.9997 0 0)
(49.9996 0 0)
(49.9995 0 0)
(49.9993 0 0)
(49.9991 0 0)
(49.9988 0 0)
(49.9985 0 0)
(49.998 0 0)
(49.9974 0 0)
(49.9967 0 0)
(49.9958 0 0)
(49.9946 0 0)
(49.9932 0 0)
(49.9914 0 0)
(49.9891 0 0)
(49.9864 0 0)
(49.983 0 0)
(49.9788 0 0)
(49.9737 0 0)
(49.9676 0 0)
(49.9601 0 0)
(49.9511 0 0)
(49.9404 0 0)
(49.9275 0 0)
(49.9121 0 0)
(49.8939 0 0)
(49.8725 0 0)
(49.8472 0 0)
(49.8176 0 0)
(49.7831 0 0)
(49.743 0 0)
(49.6966 0 0)
(49.6431 0 0)
(49.5817 0 0)
(49.5114 0 0)
(49.4314 0 0)
(49.3406 0 0)
(49.2379 0 0)
(49.1223 0 0)
(48.9925 0 0)
(48.8476 0 0)
(48.6862 0 0)
(48.5073 0 0)
(48.3095 0 0)
(48.0919 0 0)
(47.8532 0 0)
(47.5924 0 0)
(47.3086 0 0)
(47.0007 0 0)
(46.6681 0 0)
(46.3099 0 0)
(45.9257 0 0)
(45.515 0 0)
(45.0775 0 0)
(44.613 0 0)
(44.1217 0 0)
(43.6037 0 0)
(43.0593 0 0)
(42.4891 0 0)
(41.8938 0 0)
(41.2741 0 0)
(40.631 0 0)
(39.9656 0 0)
(39.2789 0 0)
(38.5724 0 0)
(37.8473 0 0)
(37.1049 0 0)
(36.3468 0 0)
(35.5743 0 0)
(34.789 0 0)
(33.9922 0 0)
(33.1854 0 0)
(32.37 0 0)
(31.5475 0 0)
(30.7191 0 0)
(29.8861 0 0)
(29.0499 0 0)
(28.2116 0 0)
(27.3725 0 0)
(26.5335 0 0)
(25.6958 0 0)
(24.8605 0 0)
(24.0284 0 0)
(23.2005 0 0)
(22.3777 0 0)
(21.5609 0 0)
(20.7509 0 0)
(19.9484 0 0)
(19.1541 0 0)
(18.3689 0 0)
(17.5934 0 0)
(16.8283 0 0)
(16.0741 0 0)
(15.3316 0 0)
(14.6013 0 0)
(13.8839 0 0)
(13.1799 0 0)
(12.49 0 0)
(11.8146 0 0)
(11.1543 0 0)
(10.5098 0 0)
(9.88148 0 0)
(9.26998 0 0)
(8.67581 0 0)
(8.09952 0 0)
(7.54162 0 0)
(7.00262 0 0)
(6.48298 0 0)
(5.98318 0 0)
(5.50363 0 0)
(5.04471 0 0)
(4.60676 0 0)
(4.19005 0 0)
(3.7948 0 0)
(3.42114 0 0)
(3.06912 0 0)
(2.73873 0 0)
(2.42983 0 0)
(2.1422 0 0)
(1.87552 0 0)
(1.62936 0 0)
(1.40321 0 0)
(1.19645 0 0)
(1.00837 0 0)
(0.838192 0 0)
(0.68506 0 0)
(0.548065 0 0)
(0.42626 0 0)
(0.318677 0 0)
(0.224361 0 0)
(0.142413 0 0)
(0.0720971 0 0)
(0.0132158 0 0)
(-0.0335941 0 0)
(-0.0703225 0 0)
(-0.100515 0 0)
(-0.125645 0 0)
(-0.146407 0 0)
(-0.163509 0 0)
(-0.177468 0 0)
(-0.188606 0 0)
(-0.19739 0 0)
(-0.204222 0 0)
(-0.209446 0 0)
(-0.213393 0 0)
(-0.216238 0 0)
(-0.218373 0 0)
(-0.220006 0 0)
(-0.221055 0 0)
(-0.221698 0 0)
(-0.222049 0 0)
(-0.222192 0 0)
(-0.222188 0 0)
(-0.222085 0 0)
(-0.221919 0 0)
(-0.221714 0 0)
(-0.221487 0 0)
(-0.221248 0 0)
(-0.221003 0 0)
(-0.220757 0 0)
(-0.220512 0 0)
(-0.220272 0 0)
(-0.220039 0 0)
(-0.219816 0 0)
(-0.219604 0 0)
(-0.219402 0 0)
(-0.219212 0 0)
(-0.219032 0 0)
(-0.218862 0 0)
(-0.2187 0 0)
(-0.218548 0 0)
(-0.218399 0 0)
(-0.218264 0 0)
(-0.218114 0 0)
(-0.218008 0 0)
(-0.217836 0 0)
(-0.217681 0 0)
(-0.217626 0 0)
(-0.21753 0 0)
(-0.217448 0 0)
(-0.217369 0 0)
(-0.217293 0 0)
(-0.217222 0 0)
(-0.217149 0 0)
(-0.217095 0 0)
(-0.217002 0 0)
(-0.216962 0 0)
(-0.216967 0 0)
(-0.216915 0 0)
(-0.216875 0 0)
(-0.216831 0 0)
(-0.216787 0 0)
(-0.216743 0 0)
(-0.2167 0 0)
(-0.216658 0 0)
(-0.216618 0 0)
(-0.216578 0 0)
(-0.21654 0 0)
(-0.216503 0 0)
(-0.216468 0 0)
(-0.216434 0 0)
(-0.216401 0 0)
(-0.21637 0 0)
(-0.216341 0 0)
(-0.216312 0 0)
(-0.216286 0 0)
(-0.216261 0 0)
(-0.216238 0 0)
(-0.216216 0 0)
(-0.216197 0 0)
(-0.21618 0 0)
(-0.216165 0 0)
(-0.216153 0 0)
(-0.216143 0 0)
(-0.216136 0 0)
(-0.216131 0 0)
(-0.216127 0 0)
(-0.216125 0 0)
(-0.216123 0 0)
(-0.216121 0 0)
(-0.216119 0 0)
(-0.216116 0 0)
(-0.216112 0 0)
(-0.216107 0 0)
(-0.2161 0 0)
(-0.216092 0 0)
(-0.216083 0 0)
(-0.216074 0 0)
(-0.216063 0 0)
(-0.216052 0 0)
(-0.21604 0 0)
(-0.216028 0 0)
(-0.216017 0 0)
(-0.216004 0 0)
(-0.215992 0 0)
(-0.215977 0 0)
(-0.215963 0 0)
(-0.215949 0 0)
(-0.215923 0 0)
(-0.215908 0 0)
(-0.215896 0 0)
(-0.215874 0 0)
(-0.215855 0 0)
(-0.215834 0 0)
(-0.215813 0 0)
(-0.215791 0 0)
(-0.215769 0 0)
(-0.215747 0 0)
(-0.215725 0 0)
(-0.215704 0 0)
(-0.215684 0 0)
(-0.215664 0 0)
(-0.215646 0 0)
(-0.215628 0 0)
(-0.215611 0 0)
(-0.215595 0 0)
(-0.215579 0 0)
(-0.215565 0 0)
(-0.215551 0 0)
(-0.215538 0 0)
(-0.215525 0 0)
(-0.215513 0 0)
(-0.215501 0 0)
(-0.21549 0 0)
(-0.215479 0 0)
(-0.215468 0 0)
(-0.215458 0 0)
(-0.215448 0 0)
(-0.215439 0 0)
(-0.215429 0 0)
(-0.21542 0 0)
(-0.215411 0 0)
(-0.215403 0 0)
(-0.215394 0 0)
(-0.215386 0 0)
(-0.215378 0 0)
(-0.21537 0 0)
(-0.215363 0 0)
(-0.215355 0 0)
(-0.215348 0 0)
(-0.21534 0 0)
(-0.215335 0 0)
(-0.215324 0 0)
(-0.215325 0 0)
(-0.21531 0 0)
(-0.215302 0 0)
(-0.215308 0 0)
(-0.215297 0 0)
(-0.215295 0 0)
(-0.215289 0 0)
(-0.215284 0 0)
(-0.215279 0 0)
(-0.215273 0 0)
(-0.215268 0 0)
(-0.215263 0 0)
(-0.215257 0 0)
(-0.215252 0 0)
(-0.215247 0 0)
(-0.215241 0 0)
(-0.215236 0 0)
(-0.215231 0 0)
(-0.215226 0 0)
(-0.21522 0 0)
(-0.215215 0 0)
(-0.21521 0 0)
(-0.215205 0 0)
(-0.215199 0 0)
(-0.215194 0 0)
(-0.215188 0 0)
(-0.215183 0 0)
(-0.215177 0 0)
(-0.215171 0 0)
(-0.215165 0 0)
(-0.215162 0 0)
(-0.215141 0 0)
(-0.215167 0 0)
(-0.215117 0 0)
(-0.21512 0 0)
(-0.215147 0 0)
(-0.215101 0 0)
(-0.215114 0 0)
(-0.215098 0 0)
(-0.215092 0 0)
(-0.215083 0 0)
(-0.215076 0 0)
(-0.215059 0 0)
(-0.215091 0 0)
(-0.214916 0 0)
(-0.215443 0 0)
(-0.213031 0 0)
(-0.218829 0 0)
(-0.207126 0 0)
(-0.223591 0 0)
(-0.209317 0 0)
(-0.214551 0 0)
)
;

boundaryField
{
    inlet
    {
        type            fixedValue;
        value           uniform (50 0 0);
    }
    backWall
    {
        type            zeroGradient;
    }
    sides
    {
        type            empty;
    }
}


// ************************************************************************* //
