/*--------------------------------*- C++ -*----------------------------------*\
| =========                 |                                                 |
| \\      /  F ield         | OpenFOAM: The Open Source CFD Toolbox           |
|  \\    /   O peration     | Version:  3.0.x                                 |
|   \\  /    A nd           | Web:      www.OpenFOAM.org                      |
|    \\/     M anipulation  |                                                 |
\*---------------------------------------------------------------------------*/
FoamFile
{
    version     2.0;
    format      ascii;
    class       surfaceScalarField;
    location    "0.130025";
    object      phi;
}
// * * * * * * * * * * * * * * * * * * * * * * * * * * * * * * * * * * * * * //

dimensions      [1 0 -1 0 0 0 0];

internalField   nonuniform List<scalar> 
26210
(
5.29739
0.000503955
5.29703
0.000346966
5.29668
0.000339588
5.29633
0.00034158
5.29597
0.000341646
5.2956
0.000341524
5.29523
0.000341504
5.29485
0.000341428
5.29445
0.000341471
5.29405
0.000341432
5.29363
0.000341433
5.2932
0.000341356
5.29276
0.000341495
5.2923
0.000341351
5.29182
0.000341157
5.29129
0.00034062
5.29074
0.000340231
5.29014
0.000338462
5.2895
0.00033638
5.28881
0.000332958
5.28808
0.000327951
5.28729
0.000320957
5.28645
0.000311613
5.28555
0.000299643
5.2846
0.000284913
5.28359
0.000267467
5.28252
0.000247555
5.28139
0.000225621
5.28021
0.00020227
5.27897
0.000178218
5.27768
0.00015422
5.27635
0.000131002
5.27497
0.000109197
5.27357
8.93017e-05
5.27213
7.16482e-05
5.27068
5.64023e-05
5.26923
4.35769e-05
5.26779
3.30582e-05
5.26638
2.4641e-05
5.265
1.80634e-05
5.26369
1.30391e-05
5.26245
9.28378e-06
5.26131
6.53348e-06
5.26028
4.55642e-06
5.25937
3.15812e-06
5.25861
2.18185e-06
5.25799
1.50585e-06
5.25754
1.03864e-06
5.25725
7.13679e-07
5.25713
4.8412e-07
5.25718
3.3224e-07
5.25737
2.18937e-07
5.25771
1.04079e-07
5.2582
2.96695e-08
5.25882
-3.46627e-08
5.25957
-8.39809e-08
5.26042
-1.21079e-07
5.26135
-1.53181e-07
5.26235
-1.72669e-07
5.2634
-1.83536e-07
5.26447
-1.89439e-07
5.26556
-1.84988e-07
5.26663
-1.74556e-07
5.26768
-1.59294e-07
5.2687
-1.36308e-07
5.26966
-1.1163e-07
5.27057
-8.17345e-08
5.27141
-5.05261e-08
5.27219
-1.74041e-08
5.27289
1.65473e-08
5.27353
4.9451e-08
5.27409
8.21456e-08
5.27458
1.1319e-07
5.27501
1.42245e-07
5.27538
1.69222e-07
5.2757
1.93037e-07
5.27597
2.14541e-07
5.27619
2.32862e-07
5.27638
2.4851e-07
5.27653
2.6156e-07
5.27666
2.72259e-07
5.27676
2.80768e-07
5.27685
2.87413e-07
5.27692
2.91629e-07
5.27697
2.95899e-07
5.27701
2.99886e-07
5.27704
3.02398e-07
5.27706
3.12619e-07
5.27707
2.63901e-07
5.27707
3.33624e-07
5.27706
3.59849e-07
5.27704
3.08864e-07
5.277
3.10662e-07
5.27696
3.31351e-07
5.27689
3.53624e-07
5.27681
3.69868e-07
5.27672
3.83869e-07
5.2766
3.99852e-07
5.27646
4.19639e-07
5.2763
4.42929e-07
5.27612
4.70214e-07
5.27591
5.00488e-07
5.27568
5.3344e-07
5.27542
5.68656e-07
5.27514
6.06498e-07
5.27483
6.45277e-07
5.27449
6.85779e-07
5.27413
7.26688e-07
5.27375
7.67499e-07
5.27334
8.07138e-07
5.27292
8.45048e-07
5.27249
8.80711e-07
5.27204
9.10826e-07
5.2716
9.36947e-07
5.27115
9.56423e-07
5.27071
9.68572e-07
5.27029
9.71839e-07
5.26989
9.65752e-07
5.26953
9.51257e-07
5.2692
9.22935e-07
5.26891
8.86081e-07
5.26868
8.37903e-07
5.26851
7.7854e-07
5.2684
7.09488e-07
5.26835
6.31509e-07
5.26837
5.46002e-07
5.26844
4.51804e-07
5.26858
3.52615e-07
5.26877
2.5026e-07
5.26901
1.40135e-07
5.26928
4.0196e-08
5.26958
2.19521e-07
5.2699
-2.84816e-07
5.27023
-4.13997e-07
5.27055
-3.52351e-07
5.27084
-4.19661e-07
5.27111
-5.04961e-07
5.27132
-5.7414e-07
5.27148
-6.27335e-07
5.27156
-6.6766e-07
5.27157
-6.96315e-07
5.27149
-7.13782e-07
5.27132
-7.19851e-07
5.27106
-7.18328e-07
5.27069
-7.03922e-07
5.27024
-6.82967e-07
5.2697
-6.55415e-07
5.26907
-6.19741e-07
5.26838
-5.81256e-07
5.26761
-5.37386e-07
5.2668
-4.91258e-07
5.26594
-4.43535e-07
5.26505
-3.95185e-07
5.26415
-3.46916e-07
5.26323
-2.99389e-07
5.26233
-2.53187e-07
5.26144
-2.08733e-07
5.26057
-1.6698e-07
5.25973
-1.27362e-07
5.25893
-9.02437e-08
5.25818
-5.6094e-08
5.25747
-2.43926e-08
5.25682
4.58749e-09
5.25621
3.0961e-08
5.25567
5.51954e-08
5.25517
7.69232e-08
5.25472
9.66647e-08
5.25433
1.14516e-07
5.25398
1.30445e-07
5.25368
1.44917e-07
5.25342
1.57825e-07
5.2532
1.69401e-07
5.25302
1.79902e-07
5.25287
1.89208e-07
5.25274
1.97637e-07
5.25265
2.05197e-07
5.25257
2.11949e-07
5.25252
2.18126e-07
5.25248
2.23657e-07
5.25246
2.28703e-07
5.25245
2.3342e-07
5.25245
2.37087e-07
5.25246
2.41447e-07
5.25247
2.44734e-07
5.2525
2.47946e-07
5.25252
2.51128e-07
5.25255
2.54817e-07
5.25258
2.61723e-07
5.25261
2.85654e-07
5.25265
3.92016e-07
5.25268
8.89997e-07
5.25271
3.31061e-06
5.25272
1.49503e-05
5.25268
7.12278e-05
5.25236
0.000343184
5.25073
0.00165713
5.2431
0.00765054
5.20782
0.0352996
5.02943
0.178411
0.678482
4.35096
7.49243
0.000460251
7.49244
0.00033005
7.49244
0.000314515
7.49244
0.000318764
7.49244
0.000319002
7.49243
0.000318797
7.49241
0.000318803
7.49237
0.000318775
7.49231
0.000318842
7.49224
0.000318839
7.49216
0.00031887
7.49206
0.000318836
7.49194
0.000318986
7.4918
0.000318887
7.49161
0.000318734
7.49138
0.000318276
7.49109
0.000317903
7.49074
0.00031631
7.49033
0.000314372
7.48985
0.000311189
7.4893
0.000306517
7.48866
0.000299981
7.48793
0.000291239
7.4871
0.000280035
7.48618
0.000266243
7.48514
0.000249908
7.48399
0.000231267
7.48273
0.000210735
7.48135
0.000188885
7.47987
0.000166386
7.47828
0.000143946
7.47658
0.000122243
7.4748
0.00010187
7.47294
8.32879e-05
7.47102
6.68064e-05
7.46905
5.25782e-05
7.46706
4.06131e-05
7.46507
3.08034e-05
7.46311
2.2956e-05
7.46119
1.68255e-05
7.45936
1.21439e-05
7.45762
8.64553e-06
7.45601
6.08397e-06
7.45456
4.24292e-06
7.45328
2.94099e-06
7.4522
2.0321e-06
7.45134
1.40278e-06
7.45069
9.67817e-07
7.45029
6.65261e-07
7.45012
4.51617e-07
7.45019
3.09628e-07
7.45046
2.04982e-07
7.45094
9.72559e-08
7.45162
2.77014e-08
7.45251
-3.17123e-08
7.45356
-7.7971e-08
7.45476
-1.12601e-07
7.45608
-1.42414e-07
7.4575
-1.60711e-07
7.45897
-1.70839e-07
7.46049
-1.76264e-07
7.46202
-1.72213e-07
7.46354
-1.62452e-07
7.46503
-1.48186e-07
7.46646
-1.26827e-07
7.46782
-1.03688e-07
7.46911
-7.59082e-08
7.4703
-4.67426e-08
7.4714
-1.5878e-08
7.47239
1.58852e-08
7.47328
4.64843e-08
7.47408
7.69942e-08
7.47478
1.05962e-07
7.47539
1.33074e-07
7.47591
1.58219e-07
7.47636
1.80471e-07
7.47673
2.00507e-07
7.47705
2.17615e-07
7.47731
2.32203e-07
7.47753
2.44379e-07
7.47771
2.5436e-07
7.47786
2.62302e-07
7.47798
2.6849e-07
7.47807
2.7249e-07
7.47815
2.76421e-07
7.47821
2.80204e-07
7.47825
2.82836e-07
7.47828
2.91153e-07
7.47829
2.48483e-07
7.47829
3.09732e-07
7.47827
3.35336e-07
7.47824
2.90605e-07
7.47819
2.90303e-07
7.47813
3.09772e-07
7.47804
3.3049e-07
7.47792
3.45653e-07
7.47779
3.58745e-07
7.47762
3.73691e-07
7.47743
3.9216e-07
7.4772
4.13915e-07
7.47694
4.39346e-07
7.47665
4.676e-07
7.47632
4.98334e-07
7.47596
5.31198e-07
7.47555
5.66477e-07
7.47511
6.02695e-07
7.47464
6.4045e-07
7.47413
6.78623e-07
7.47359
7.16702e-07
7.47302
7.53691e-07
7.47242
7.89058e-07
7.47181
8.22296e-07
7.47118
8.50452e-07
7.47055
8.7477e-07
7.46992
8.92969e-07
7.4693
9.04298e-07
7.46871
9.07357e-07
7.46814
9.01713e-07
7.46762
8.88118e-07
7.46716
8.61803e-07
7.46676
8.27316e-07
7.46643
7.82389e-07
7.46619
7.26986e-07
7.46603
6.62529e-07
7.46596
5.89764e-07
7.46598
5.09928e-07
7.46609
4.22064e-07
7.46629
3.29479e-07
7.46656
2.33809e-07
7.46689
1.31151e-07
7.46728
4.1211e-08
7.4677
1.96314e-07
7.46815
-2.56961e-07
7.46861
-3.84496e-07
7.46906
-3.31604e-07
7.46948
-3.91203e-07
7.46985
-4.70622e-07
7.47015
-5.35219e-07
7.47037
-5.84854e-07
7.47049
-6.22511e-07
7.4705
-6.49272e-07
7.47039
-6.65579e-07
7.47015
-6.71273e-07
7.46977
-6.69857e-07
7.46925
-6.56466e-07
7.46861
-6.36917e-07
7.46784
-6.11182e-07
7.46696
-5.78013e-07
7.46597
-5.42006e-07
7.46489
-5.01168e-07
7.46373
-4.58105e-07
7.46252
-4.13596e-07
7.46126
-3.68489e-07
7.45998
-3.23456e-07
7.45869
-2.7912e-07
7.45741
-2.36008e-07
7.45614
-1.94545e-07
7.45491
-1.55565e-07
7.45373
-1.18618e-07
7.4526
-8.39718e-08
7.45153
-5.20358e-08
7.45053
-2.25064e-08
7.44961
4.59295e-09
7.44875
2.92166e-08
7.44798
5.18266e-08
7.44727
7.21229e-08
7.44664
9.05438e-08
7.44609
1.07204e-07
7.4456
1.22081e-07
7.44517
1.35573e-07
7.4448
1.47627e-07
7.44449
1.58434e-07
7.44423
1.68224e-07
7.44401
1.76919e-07
7.44384
1.84784e-07
7.4437
1.91836e-07
7.44359
1.98148e-07
7.44352
2.03896e-07
7.44346
2.09067e-07
7.44343
2.13791e-07
7.44342
2.18131e-07
7.44342
2.21649e-07
7.44343
2.25642e-07
7.44345
2.28751e-07
7.44348
2.31823e-07
7.44352
2.35113e-07
7.44356
2.39903e-07
7.4436
2.52727e-07
7.44365
3.06736e-07
7.44369
5.59501e-07
7.44374
1.75608e-06
7.44378
7.58466e-06
7.4438
3.56251e-05
7.44374
0.00017121
7.44329
0.000826454
7.44099
0.00399223
7.43022
0.0184516
7.38043
0.0851172
7.13479
0.424074
1.56859
6.2447
10.5959
0.000402149
10.5959
0.000303184
10.5959
0.000279984
10.5959
0.000286141
10.5959
0.000286658
10.5959
0.000286339
10.5959
0.000286339
10.5958
0.000286331
10.5957
0.000286388
10.5956
0.00028639
10.5955
0.00028642
10.5954
0.000286397
10.5952
0.000286522
10.595
0.00028644
10.5947
0.000286303
10.5944
0.000285913
10.594
0.000285546
10.5935
0.000284166
10.5929
0.000282429
10.5923
0.000279595
10.5915
0.000275432
10.5906
0.000269602
10.5895
0.000261799
10.5884
0.00025179
10.5871
0.000239459
10.5856
0.000224845
10.584
0.000208154
10.5822
0.000189757
10.5802
0.000170162
10.5781
0.000149971
10.5759
0.000129816
10.5735
0.000110307
10.571
9.19794e-05
10.5683
7.52492e-05
10.5656
6.03979e-05
10.5628
4.75665e-05
10.56
3.67668e-05
10.5572
2.79052e-05
10.5544
2.08102e-05
10.5517
1.52626e-05
10.5491
1.10227e-05
10.5467
7.85162e-06
10.5444
5.52779e-06
10.5423
3.85628e-06
10.5405
2.67339e-06
10.539
1.84709e-06
10.5378
1.27469e-06
10.5369
8.78995e-07
10.5363
6.03809e-07
10.5361
4.09768e-07
10.5362
2.80113e-07
10.5365
1.86135e-07
10.5372
8.80455e-08
10.5382
2.49911e-08
10.5394
-2.76568e-08
10.5409
-6.98533e-08
10.5426
-1.01074e-07
10.5445
-1.27706e-07
10.5465
-1.44301e-07
10.5486
-1.53392e-07
10.5507
-1.58184e-07
10.5529
-1.54659e-07
10.555
-1.45852e-07
10.5571
-1.33015e-07
10.5592
-1.13922e-07
10.5611
-9.30145e-08
10.5629
-6.81816e-08
10.5646
-4.19427e-08
10.5662
-1.42336e-08
10.5676
1.44082e-08
10.5688
4.17376e-08
10.57
6.91534e-08
10.5709
9.51736e-08
10.5718
1.19523e-07
10.5725
1.4208e-07
10.5732
1.62103e-07
10.5737
1.80067e-07
10.5742
1.95455e-07
10.5745
2.08547e-07
10.5748
2.19484e-07
10.5751
2.28452e-07
10.5753
2.35587e-07
10.5755
2.41134e-07
10.5756
2.44813e-07
10.5757
2.48303e-07
10.5758
2.51702e-07
10.5758
2.54294e-07
10.5759
2.60382e-07
10.5759
2.25465e-07
10.5759
2.76149e-07
10.5759
3.00021e-07
10.5758
2.62969e-07
10.5758
2.60578e-07
10.5757
2.78245e-07
10.5755
2.96791e-07
10.5754
3.10423e-07
10.5752
3.2221e-07
10.575
3.35674e-07
10.5747
3.52267e-07
10.5744
3.71828e-07
10.574
3.94647e-07
10.5736
4.20038e-07
10.5731
4.47642e-07
10.5726
4.77176e-07
10.572
5.08839e-07
10.5714
5.41415e-07
10.5707
5.75293e-07
10.57
6.09592e-07
10.5693
6.43795e-07
10.5684
6.77022e-07
10.5676
7.08787e-07
10.5667
7.38593e-07
10.5659
7.63951e-07
10.565
7.85734e-07
10.5641
8.02096e-07
10.5632
8.12266e-07
10.5624
8.15024e-07
10.5616
8.09975e-07
10.5608
7.97668e-07
10.5602
7.74162e-07
10.5596
7.43078e-07
10.5591
7.02755e-07
10.5588
6.52997e-07
10.5586
5.95089e-07
10.5585
5.29754e-07
10.5585
4.57979e-07
10.5587
3.79127e-07
10.5589
2.9594e-07
10.5593
2.0989e-07
10.5598
1.18031e-07
10.5603
4.05635e-08
10.5609
1.65654e-07
10.5616
-2.22082e-07
10.5622
-3.43623e-07
10.5629
-3.0137e-07
10.5634
-3.51431e-07
10.564
-4.22598e-07
10.5644
-4.80704e-07
10.5647
-5.2528e-07
10.5649
-5.59128e-07
10.5649
-5.83169e-07
10.5647
-5.9781e-07
10.5644
-6.02939e-07
10.5639
-6.01647e-07
10.5631
-5.89657e-07
10.5622
-5.72077e-07
10.5611
-5.48912e-07
10.5599
-5.19246e-07
10.5585
-4.86776e-07
10.557
-4.50185e-07
10.5553
-4.11482e-07
10.5536
-3.71509e-07
10.5518
-3.30999e-07
10.55
-2.90554e-07
10.5482
-2.50735e-07
10.5464
-2.12015e-07
10.5446
-1.74788e-07
10.5428
-1.39752e-07
10.5412
-1.06576e-07
10.5396
-7.54385e-08
10.5381
-4.6673e-08
10.5367
-2.0289e-08
10.5353
4.10455e-09
10.5341
2.62239e-08
10.533
4.65261e-08
10.532
6.47747e-08
10.5312
8.13088e-08
10.5304
9.62814e-08
10.5297
1.09655e-07
10.5291
1.21765e-07
10.5285
1.32603e-07
10.5281
1.42307e-07
10.5277
1.51098e-07
10.5274
1.58921e-07
10.5272
1.65978e-07
10.527
1.72312e-07
10.5268
1.77992e-07
10.5267
1.83141e-07
10.5267
1.87799e-07
10.5266
1.92063e-07
10.5266
1.95878e-07
10.5266
1.99167e-07
10.5266
2.02661e-07
10.5266
2.05505e-07
10.5267
2.08382e-07
10.5267
2.118e-07
10.5268
2.18097e-07
10.5269
2.39088e-07
10.5269
3.34616e-07
10.527
7.8963e-07
10.527
2.95076e-06
10.5271
1.34858e-05
10.5271
6.41748e-05
10.527
0.000309277
10.5264
0.00149378
10.5233
0.00721655
10.5084
0.033389
10.4397
0.153854
10.1065
0.757289
2.74138
8.93373
46.7725
0.000185563
46.7726
0.000159212
46.7726
0.000138283
46.7726
0.000142425
46.7726
0.000143706
46.7725
0.00014333
46.7724
0.00014324
46.7722
0.000143232
46.7718
0.00014324
46.7714
0.000143233
46.7708
0.000143241
46.7702
0.000143233
46.7695
0.000143278
46.7686
0.000143243
46.7674
0.000143176
46.766
0.000143007
46.7642
0.000142786
46.762
0.000142165
46.7595
0.000141308
46.7565
0.000139929
46.753
0.000137898
46.749
0.000135043
46.7445
0.00013121
46.7393
0.000126279
46.7335
0.000120188
46.7271
0.00011295
46.7199
0.000104663
46.712
9.55078e-05
46.7034
8.57358e-05
46.6942
7.56447e-05
46.6842
6.55521e-05
46.6737
5.57648e-05
46.6625
4.65528e-05
46.6509
3.81291e-05
46.6389
3.06389e-05
46.6266
2.41568e-05
46.6142
1.86927e-05
46.6018
1.42022e-05
46.5895
1.06018e-05
46.5776
7.7826e-06
46.5661
5.62504e-06
46.5553
4.00935e-06
46.5452
2.82393e-06
46.5362
1.97035e-06
46.5282
1.36575e-06
46.5215
9.43133e-07
46.516
6.50281e-07
46.512
4.47875e-07
46.5095
3.07243e-07
46.5084
2.0839e-07
46.5089
1.41609e-07
46.5106
9.46363e-08
46.5135
4.47296e-08
46.5178
1.28855e-08
46.5234
-1.35728e-08
46.5299
-3.49587e-08
46.5374
-5.04922e-08
46.5457
-6.36903e-08
46.5545
-7.21232e-08
46.5637
-7.67279e-08
46.5732
-7.89641e-08
46.5827
-7.73573e-08
46.5922
-7.29353e-08
46.6015
-6.64265e-08
46.6104
-5.70383e-08
46.619
-4.63922e-08
46.627
-3.40917e-08
46.6344
-2.08402e-08
46.6413
-7.30279e-09
46.6475
6.88397e-09
46.6531
2.12133e-08
46.658
3.46115e-08
46.6624
4.76068e-08
46.6662
5.97611e-08
46.6694
7.10208e-08
46.6722
8.10692e-08
46.6746
9.00006e-08
46.6766
9.77259e-08
46.6782
1.04259e-07
46.6796
1.09724e-07
46.6807
1.1421e-07
46.6816
1.17777e-07
46.6823
1.20522e-07
46.6829
1.22296e-07
46.6834
1.23787e-07
46.6838
1.25652e-07
46.684
1.27157e-07
46.6842
1.29313e-07
46.6843
1.16332e-07
46.6843
1.36284e-07
46.6842
1.48596e-07
46.684
1.33442e-07
46.6837
1.30068e-07
46.6833
1.38974e-07
46.6827
1.48285e-07
46.682
1.55139e-07
46.6812
1.61074e-07
46.6801
1.67835e-07
46.6789
1.76134e-07
46.6775
1.85938e-07
46.6759
1.97317e-07
46.6741
2.1002e-07
46.672
2.23816e-07
46.6697
2.38593e-07
46.6672
2.54389e-07
46.6645
2.7073e-07
46.6615
2.87629e-07
46.6583
3.0479e-07
46.6549
3.21895e-07
46.6514
3.38524e-07
46.6477
3.54401e-07
46.6438
3.69253e-07
46.6399
3.82022e-07
46.636
3.92824e-07
46.6321
4.01045e-07
46.6282
4.06103e-07
46.6245
4.07497e-07
46.621
4.05e-07
46.6177
3.98743e-07
46.6148
3.87161e-07
46.6123
3.71504e-07
46.6103
3.51375e-07
46.6088
3.26519e-07
46.6078
2.97551e-07
46.6074
2.64831e-07
46.6075
2.28929e-07
46.6082
1.89558e-07
46.6094
1.47952e-07
46.6111
1.04802e-07
46.6132
5.95326e-08
46.6156
2.52714e-08
46.6182
6.81957e-08
46.621
-9.96547e-08
46.6239
-1.69432e-07
46.6267
-1.54755e-07
46.6293
-1.76023e-07
46.6316
-2.11124e-07
46.6335
-2.40322e-07
46.6349
-2.62613e-07
46.6356
-2.79563e-07
46.6357
-2.91584e-07
46.635
-2.98879e-07
46.6335
-3.01468e-07
46.6311
-3.00797e-07
46.6279
-2.94833e-07
46.6239
-2.86036e-07
46.6191
-2.74372e-07
46.6136
-2.59694e-07
46.6074
-2.43297e-07
46.6006
-2.25108e-07
46.5934
-2.05714e-07
46.5859
-1.85736e-07
46.578
-1.65476e-07
46.57
-1.45248e-07
46.562
-1.25331e-07
46.5539
-1.05962e-07
46.5461
-8.73451e-08
46.5384
-6.97905e-08
46.531
-5.32609e-08
46.5239
-3.78309e-08
46.5173
-2.38122e-08
46.511
-1.01115e-08
46.5052
2.06319e-09
46.4999
1.31556e-08
46.4951
2.32828e-08
46.4907
3.24214e-08
46.4868
4.06692e-08
46.4833
4.81468e-08
46.4802
5.48475e-08
46.4775
6.08818e-08
46.4752
6.63097e-08
46.4733
7.11598e-08
46.4717
7.55492e-08
46.4703
7.94671e-08
46.4692
8.29937e-08
46.4684
8.61494e-08
46.4677
8.90134e-08
46.4672
9.15595e-08
46.4669
9.38999e-08
46.4667
9.60658e-08
46.4666
9.78623e-08
46.4666
9.96931e-08
46.4667
1.01318e-07
46.4668
1.02884e-07
46.467
1.04806e-07
46.4673
1.08436e-07
46.4675
1.21458e-07
46.4678
1.73257e-07
46.4681
4.32812e-07
46.4683
1.67608e-06
46.4686
7.60541e-06
46.4689
3.65473e-05
46.469
0.000175783
46.4687
0.000849012
46.4664
0.00410093
46.454
0.0197759
46.3958
0.0917477
46.133
0.416843
45.03
1.8605
6.55276
41.2187
46.7725
-2.50111e-12
46.7726
-6.82121e-13
46.7726
1.81899e-12
46.7726
2.04636e-12
46.7726
1.81899e-12
46.7725
2.27374e-13
46.7723
-1.13687e-12
46.7721
0
46.7718
-9.09495e-13
46.7713
-6.82121e-13
46.7708
4.54747e-13
46.7702
-1.81899e-12
46.7694
-2.27374e-12
46.7686
-6.82121e-13
46.7674
-1.36424e-12
46.7659
4.54747e-13
46.7641
2.27374e-13
46.762
-4.54747e-13
46.7594
0
46.7565
1.59162e-12
46.753
1.36424e-12
46.749
-6.82121e-13
46.7445
2.50111e-12
46.7393
4.54747e-13
46.7335
9.09495e-13
46.727
2.27374e-12
46.7199
1.13687e-12
46.712
-9.09495e-13
46.7034
-9.09495e-13
46.6942
2.27374e-13
46.6842
-2.27374e-13
46.6737
6.82121e-13
46.6625
2.27374e-13
46.6509
-2.27374e-12
46.6389
-6.82121e-13
46.6266
-2.27374e-13
46.6142
9.09495e-13
46.6018
2.27374e-13
46.5895
2.27374e-13
46.5776
0
46.5661
4.54747e-13
46.5553
2.27374e-13
46.5452
-4.54747e-13
46.5362
1.59162e-12
46.5282
6.82121e-13
46.5215
-1.13687e-12
46.516
0
46.512
1.36424e-12
46.5095
1.36424e-12
46.5084
-2.27374e-13
46.5089
-2.27374e-13
46.5106
1.36424e-12
46.5135
-6.82121e-13
46.5178
6.82121e-13
46.5234
-1.36424e-12
46.5299
-6.82121e-13
46.5374
-1.59162e-12
46.5457
-1.13687e-12
46.5545
0
46.5637
9.09495e-13
46.5732
4.54747e-13
46.5827
1.36424e-12
46.5922
-6.82121e-13
46.6015
-6.82121e-13
46.6104
-1.59162e-12
46.619
9.09495e-13
46.627
3.18323e-12
46.6344
-6.82121e-13
46.6413
-4.54747e-13
46.6475
6.82121e-13
46.6531
6.82121e-13
46.658
-9.09495e-13
46.6624
-6.82121e-13
46.6662
4.54747e-13
46.6694
-4.54747e-13
46.6722
4.54747e-13
46.6746
6.82121e-13
46.6766
2.27374e-13
46.6782
-2.27374e-13
46.6796
2.27374e-13
46.6807
-4.54747e-13
46.6816
4.54747e-13
46.6823
-9.09495e-13
46.6829
-1.59162e-12
46.6834
-1.81899e-12
46.6838
-6.82121e-13
46.684
-1.36424e-12
46.6842
1.36424e-12
46.6843
0
46.6843
-4.54747e-13
46.6842
-2.04636e-12
46.684
0
46.6837
1.59162e-12
46.6833
4.54747e-13
46.6827
-1.59162e-12
46.682
1.81899e-12
46.6812
4.54747e-13
46.6801
1.59162e-12
46.6789
2.04636e-12
46.6775
2.50111e-12
46.6759
6.82121e-13
46.6741
-2.27374e-12
46.672
-9.09495e-13
46.6697
-1.81899e-12
46.6672
-1.59162e-12
46.6645
-9.09495e-13
46.6615
-4.54747e-13
46.6583
-1.81899e-12
46.6549
1.13687e-12
46.6514
4.54747e-13
46.6477
4.54747e-13
46.6438
1.59162e-12
46.6399
-6.82121e-13
46.636
-1.36424e-12
46.6321
-1.59162e-12
46.6282
-6.82121e-13
46.6245
0
46.621
4.54747e-13
46.6177
-4.54747e-13
46.6148
-2.27374e-13
46.6123
2.27374e-13
46.6103
-6.82121e-13
46.6088
2.27374e-13
46.6078
-9.09495e-13
46.6074
0
46.6075
1.36424e-12
46.6082
6.82121e-13
46.6094
-2.27374e-13
46.6111
-2.27374e-13
46.6132
-9.09495e-13
46.6156
-1.36424e-12
46.6182
-1.13687e-12
46.621
-1.13687e-12
46.6239
-1.36424e-12
46.6267
-6.82121e-13
46.6293
4.54747e-13
46.6316
9.09495e-13
46.6335
1.81899e-12
46.6349
1.36424e-12
46.6356
1.59162e-12
46.6357
4.54747e-13
46.635
1.36424e-12
46.6335
0
46.6311
4.54747e-13
46.6279
0
46.6239
-9.09495e-13
46.6191
-1.59162e-12
46.6136
2.27374e-13
46.6074
1.36424e-12
46.6006
2.27374e-13
46.5934
-1.13687e-12
46.5859
0
46.578
2.27374e-13
46.57
2.27374e-13
46.562
-9.09495e-13
46.5539
1.13687e-12
46.5461
1.59162e-12
46.5384
0
46.531
6.82121e-13
46.5239
1.13687e-12
46.5173
1.81899e-12
46.511
1.36424e-12
46.5052
6.82121e-13
46.4999
2.04636e-12
46.4951
0
46.4907
-1.81899e-12
46.4868
-2.27374e-13
46.4833
9.09495e-13
46.4802
-4.54747e-13
46.4775
1.59162e-12
46.4752
1.81899e-12
46.4733
-2.04636e-12
46.4717
2.95586e-12
46.4703
-8.86757e-12
46.4692
1.04592e-11
46.4684
-1.95541e-11
46.4677
2.56932e-11
46.4672
-2.47837e-11
46.4669
2.27374e-12
46.4667
3.63798e-11
46.4666
-9.43601e-11
46.4666
1.53932e-10
46.4667
-3.13776e-11
46.4668
1.99861e-10
46.467
9.1336e-10
46.4673
3.90287e-09
46.4675
1.63388e-08
46.4678
8.50416e-08
46.4681
3.88103e-07
46.4683
1.9688e-06
46.4686
9.27663e-06
46.4689
4.52823e-05
46.4691
0.000218118
46.4692
0.00105424
46.4684
0.00509059
46.4639
0.0245121
46.4396
0.116241
46.3197
0.536906
45.736
2.44431
8.73797
43.551
46.7725
-0.000185563
46.7726
-0.000159212
46.7726
-0.000138283
46.7726
-0.000142425
46.7726
-0.000143706
46.7725
-0.00014333
46.7723
-0.00014324
46.7721
-0.000143232
46.7718
-0.00014324
46.7713
-0.000143233
46.7708
-0.000143241
46.7702
-0.000143233
46.7694
-0.000143278
46.7686
-0.000143243
46.7674
-0.000143176
46.7659
-0.000143007
46.7641
-0.000142786
46.762
-0.000142165
46.7594
-0.000141308
46.7565
-0.000139929
46.753
-0.000137898
46.749
-0.000135043
46.7445
-0.00013121
46.7393
-0.000126279
46.7335
-0.000120188
46.727
-0.00011295
46.7199
-0.000104663
46.712
-9.55078e-05
46.7034
-8.57358e-05
46.6942
-7.56447e-05
46.6842
-6.55521e-05
46.6737
-5.57648e-05
46.6625
-4.65528e-05
46.6509
-3.81291e-05
46.6389
-3.06389e-05
46.6266
-2.41568e-05
46.6142
-1.86927e-05
46.6018
-1.42022e-05
46.5895
-1.06018e-05
46.5776
-7.7826e-06
46.5661
-5.62504e-06
46.5553
-4.00935e-06
46.5452
-2.82393e-06
46.5362
-1.97035e-06
46.5282
-1.36575e-06
46.5215
-9.43134e-07
46.516
-6.50282e-07
46.512
-4.47875e-07
46.5095
-3.07242e-07
46.5084
-2.08392e-07
46.5089
-1.41611e-07
46.5106
-9.4635e-08
46.5135
-4.47301e-08
46.5178
-1.2885e-08
46.5234
1.3571e-08
46.5299
3.4956e-08
46.5374
5.04879e-08
46.5457
6.36896e-08
46.5545
7.21225e-08
46.5637
7.67284e-08
46.5732
7.89644e-08
46.5827
7.73607e-08
46.5922
7.29335e-08
46.6015
6.64245e-08
46.6104
5.70362e-08
46.619
4.63947e-08
46.627
3.40992e-08
46.6344
2.08395e-08
46.6413
7.30415e-09
46.6475
-6.88283e-09
46.6531
-2.12131e-08
46.658
-3.46117e-08
46.6624
-4.76089e-08
46.6662
-5.97602e-08
46.6694
-7.10213e-08
46.6722
-8.10685e-08
46.6746
-8.99986e-08
46.6766
-9.77245e-08
46.6782
-1.0426e-07
46.6796
-1.09723e-07
46.6807
-1.14211e-07
46.6816
-1.17777e-07
46.6823
-1.20524e-07
46.6829
-1.22299e-07
46.6834
-1.2379e-07
46.6838
-1.25653e-07
46.684
-1.27159e-07
46.6842
-1.2931e-07
46.6843
-1.16331e-07
46.6843
-1.36284e-07
46.6842
-1.486e-07
46.684
-1.33443e-07
46.6837
-1.30064e-07
46.6833
-1.38972e-07
46.6827
-1.48288e-07
46.682
-1.55136e-07
46.6812
-1.61073e-07
46.6801
-1.67832e-07
46.6789
-1.76129e-07
46.6775
-1.85933e-07
46.6759
-1.97316e-07
46.6741
-2.10024e-07
46.672
-2.23818e-07
46.6697
-2.38598e-07
46.6672
-2.54391e-07
46.6645
-2.70731e-07
46.6615
-2.87631e-07
46.6583
-3.04792e-07
46.6549
-3.21893e-07
46.6514
-3.38523e-07
46.6477
-3.54399e-07
46.6438
-3.69251e-07
46.6399
-3.82023e-07
46.636
-3.92825e-07
46.6321
-4.01047e-07
46.6282
-4.06103e-07
46.6245
-4.07497e-07
46.621
-4.05001e-07
46.6177
-3.98745e-07
46.6148
-3.87164e-07
46.6123
-3.71503e-07
46.6103
-3.51378e-07
46.6088
-3.2652e-07
46.6078
-2.97551e-07
46.6074
-2.64831e-07
46.6075
-2.28928e-07
46.6082
-1.89559e-07
46.6094
-1.47953e-07
46.6111
-1.04802e-07
46.6132
-5.95353e-08
46.6156
-2.52744e-08
46.6182
-6.81973e-08
46.621
9.96536e-08
46.6239
1.6943e-07
46.6267
1.54754e-07
46.6293
1.76025e-07
46.6316
2.11127e-07
46.6335
2.40327e-07
46.6349
2.62613e-07
46.6356
2.79565e-07
46.6357
2.91585e-07
46.635
2.98882e-07
46.6335
3.01468e-07
46.6311
3.00798e-07
46.6279
2.94833e-07
46.6239
2.86035e-07
46.6191
2.74368e-07
46.6136
2.59693e-07
46.6074
2.43299e-07
46.6006
2.25109e-07
46.5934
2.05713e-07
46.5859
1.85737e-07
46.578
1.65476e-07
46.57
1.45247e-07
46.562
1.25331e-07
46.5539
1.05964e-07
46.5461
8.73472e-08
46.5384
6.97912e-08
46.531
5.32627e-08
46.5239
3.78332e-08
46.5173
2.38169e-08
46.511
1.01124e-08
46.5052
-2.0616e-09
46.4999
-1.31533e-08
46.4951
-2.32806e-08
46.4907
-3.24235e-08
46.4868
-4.06685e-08
46.4833
-4.81443e-08
46.4802
-5.48484e-08
46.4775
-6.08782e-08
46.4752
-6.63072e-08
46.4733
-7.11623e-08
46.4717
-7.55438e-08
46.4703
-7.94798e-08
46.4692
-8.29807e-08
46.4684
-8.61739e-08
46.4677
-8.89793e-08
46.4672
-9.15961e-08
46.4669
-9.38928e-08
46.4667
-9.60351e-08
46.4666
-9.79592e-08
46.4666
-9.9498e-08
46.4667
-1.01371e-07
46.4668
-1.02444e-07
46.467
-1.03486e-07
46.4673
-1.01619e-07
46.4675
-9.18176e-08
46.4678
-3.94093e-08
46.4681
2.07121e-07
46.4683
1.47357e-06
46.4686
7.36307e-06
46.4689
3.63822e-05
46.4692
0.000175763
46.4697
0.00085133
46.4709
0.00412625
46.4755
0.0200457
46.4948
0.0971339
46.5662
0.465719
46.6731
2.33756
7.96019
47.451
46.7725
-0.000402149
46.7726
-0.000303184
46.7726
-0.000279984
46.7726
-0.000286141
46.7726
-0.000286658
46.7725
-0.000286339
46.7724
-0.000286339
46.7722
-0.000286331
46.7718
-0.000286388
46.7714
-0.00028639
46.7708
-0.00028642
46.7702
-0.000286397
46.7695
-0.000286522
46.7686
-0.00028644
46.7674
-0.000286303
46.766
-0.000285913
46.7642
-0.000285546
46.762
-0.000284166
46.7595
-0.000282429
46.7565
-0.000279595
46.753
-0.000275432
46.749
-0.000269602
46.7445
-0.000261799
46.7393
-0.00025179
46.7335
-0.000239459
46.7271
-0.000224845
46.7199
-0.000208154
46.712
-0.000189757
46.7034
-0.000170162
46.6942
-0.000149971
46.6842
-0.000129816
46.6737
-0.000110307
46.6625
-9.19794e-05
46.6509
-7.52492e-05
46.6389
-6.03979e-05
46.6266
-4.75665e-05
46.6142
-3.67668e-05
46.6018
-2.79052e-05
46.5895
-2.08102e-05
46.5776
-1.52626e-05
46.5661
-1.10227e-05
46.5553
-7.85161e-06
46.5452
-5.52779e-06
46.5362
-3.85628e-06
46.5282
-2.67339e-06
46.5215
-1.84709e-06
46.516
-1.27469e-06
46.512
-8.78998e-07
46.5095
-6.03811e-07
46.5084
-4.09772e-07
46.5089
-2.80117e-07
46.5106
-1.86136e-07
46.5135
-8.80459e-08
46.5178
-2.4987e-08
46.5234
2.76586e-08
46.5299
6.98501e-08
46.5374
1.01068e-07
46.5457
1.27711e-07
46.5545
1.443e-07
46.5637
1.53389e-07
46.5732
1.58184e-07
46.5827
1.54663e-07
46.5922
1.45846e-07
46.6015
1.33015e-07
46.6104
1.13921e-07
46.619
9.30199e-08
46.627
6.81898e-08
46.6344
4.19441e-08
46.6413
1.42404e-08
46.6475
-1.44078e-08
46.6531
-4.1734e-08
46.658
-6.91562e-08
46.6624
-9.51795e-08
46.6662
-1.19523e-07
46.6694
-1.4208e-07
46.6722
-1.62102e-07
46.6746
-1.80069e-07
46.6766
-1.95453e-07
46.6782
-2.08546e-07
46.6796
-2.19481e-07
46.6807
-2.2845e-07
46.6816
-2.35586e-07
46.6823
-2.4114e-07
46.6829
-2.44817e-07
46.6834
-2.48303e-07
46.6838
-2.51701e-07
46.684
-2.54294e-07
46.6842
-2.60374e-07
46.6843
-2.25462e-07
46.6843
-2.76149e-07
46.6842
-3.00027e-07
46.684
-2.62968e-07
46.6837
-2.60573e-07
46.6833
-2.78245e-07
46.6827
-2.96796e-07
46.682
-3.1042e-07
46.6812
-3.2221e-07
46.6801
-3.35671e-07
46.6789
-3.52262e-07
46.6775
-3.71823e-07
46.6759
-3.94647e-07
46.6741
-4.20037e-07
46.672
-4.47641e-07
46.6697
-4.7718e-07
46.6672
-5.08841e-07
46.6645
-5.41418e-07
46.6615
-5.75293e-07
46.6583
-6.09597e-07
46.6549
-6.43795e-07
46.6514
-6.77021e-07
46.6477
-7.08785e-07
46.6438
-7.38593e-07
46.6399
-7.63952e-07
46.636
-7.85732e-07
46.6321
-8.02096e-07
46.6282
-8.12263e-07
46.6245
-8.15024e-07
46.621
-8.09976e-07
46.6177
-7.97671e-07
46.6148
-7.74167e-07
46.6123
-7.43074e-07
46.6103
-7.02759e-07
46.6088
-6.52997e-07
46.6078
-5.95092e-07
46.6074
-5.29756e-07
46.6075
-4.57979e-07
46.6082
-3.79131e-07
46.6094
-2.95945e-07
46.6111
-2.0989e-07
46.6132
-1.18033e-07
46.6156
-4.05657e-08
46.6182
-1.65654e-07
46.621
2.22083e-07
46.6239
3.43622e-07
46.6267
3.01366e-07
46.6293
3.5143e-07
46.6316
4.226e-07
46.6335
4.80711e-07
46.6349
5.2528e-07
46.6356
5.5913e-07
46.6357
5.83173e-07
46.635
5.97814e-07
46.6335
6.0294e-07
46.6311
6.01645e-07
46.6279
5.89657e-07
46.6239
5.7208e-07
46.6191
5.48906e-07
46.6136
5.19245e-07
46.6074
4.86778e-07
46.6006
4.50188e-07
46.5934
4.11481e-07
46.5859
3.71509e-07
46.578
3.30999e-07
46.57
2.90555e-07
46.562
2.50733e-07
46.5539
2.12017e-07
46.5461
1.74788e-07
46.5384
1.39753e-07
46.531
1.06575e-07
46.5239
7.54408e-08
46.5173
4.66798e-08
46.511
2.02904e-08
46.5052
-4.10591e-09
46.4999
-2.6223e-08
46.4951
-4.65243e-08
46.4907
-6.47797e-08
46.4868
-8.13052e-08
46.4833
-9.628e-08
46.4802
-1.09656e-07
46.4775
-1.21761e-07
46.4752
-1.32601e-07
46.4733
-1.42308e-07
46.4717
-1.51094e-07
46.4703
-1.58928e-07
46.4692
-1.65975e-07
46.4684
-1.72321e-07
46.4677
-1.77982e-07
46.4672
-1.83158e-07
46.4669
-1.87796e-07
46.4667
-1.92048e-07
46.4666
-1.95916e-07
46.4666
-1.99106e-07
46.4667
-2.02667e-07
46.4668
-2.05363e-07
46.467
-2.07929e-07
46.4673
-2.09183e-07
46.4675
-2.07882e-07
46.4678
-1.9027e-07
46.4681
-1.03661e-07
46.4683
3.6022e-07
46.4686
2.49748e-06
46.4689
1.30675e-05
46.4693
6.38245e-05
46.4701
0.000309989
46.4729
0.00150578
46.4858
0.00736361
46.5469
0.0362376
46.8283
0.184557
47.897
1.26898
4.09428
51.763
10.5959
-0.000460251
10.5959
-0.00033005
10.5959
-0.000314515
10.5959
-0.000318764
10.5959
-0.000319002
10.5959
-0.000318797
10.5959
-0.000318803
10.5958
-0.000318775
10.5957
-0.000318842
10.5956
-0.000318839
10.5955
-0.00031887
10.5954
-0.000318836
10.5952
-0.000318986
10.595
-0.000318887
10.5947
-0.000318734
10.5944
-0.000318276
10.594
-0.000317903
10.5935
-0.00031631
10.5929
-0.000314372
10.5923
-0.000311189
10.5915
-0.000306517
10.5906
-0.000299981
10.5895
-0.000291239
10.5884
-0.000280035
10.5871
-0.000266243
10.5856
-0.000249908
10.584
-0.000231267
10.5822
-0.000210735
10.5802
-0.000188885
10.5781
-0.000166386
10.5759
-0.000143946
10.5735
-0.000122243
10.571
-0.00010187
10.5683
-8.32879e-05
10.5656
-6.68064e-05
10.5628
-5.25782e-05
10.56
-4.06131e-05
10.5572
-3.08034e-05
10.5544
-2.2956e-05
10.5517
-1.68255e-05
10.5491
-1.21439e-05
10.5467
-8.64553e-06
10.5444
-6.08398e-06
10.5423
-4.24292e-06
10.5405
-2.94099e-06
10.539
-2.03211e-06
10.5378
-1.40278e-06
10.5369
-9.67817e-07
10.5363
-6.65259e-07
10.5361
-4.51619e-07
10.5362
-3.09632e-07
10.5365
-2.04984e-07
10.5372
-9.72559e-08
10.5382
-2.76978e-08
10.5394