/*--------------------------------*- C++ -*----------------------------------*\
| =========                 |                                                 |
| \\      /  F ield         | OpenFOAM: The Open Source CFD Toolbox           |
|  \\    /   O peration     | Version:  3.0.x                                 |
|   \\  /    A nd           | Web:      www.OpenFOAM.org                      |
|    \\/     M anipulation  |                                                 |
\*---------------------------------------------------------------------------*/
FoamFile
{
    version     2.0;
    format      ascii;
    class       volVectorField;
    location    "0.57995";
    object      U;
}
// * * * * * * * * * * * * * * * * * * * * * * * * * * * * * * * * * * * * * //

dimensions      [0 1 -1 0 0 0 0];

internalField   nonuniform List<vector> 
13800
(
(57.6994 0.000133009 0)
(57.1845 0.000117593 0)
(56.5653 0.000118171 0)
(55.9852 0.000121734 0)
(55.4409 0.000125033 0)
(54.9031 0.000128028 0)
(54.361 0.000130683 0)
(53.8165 0.000132983 0)
(53.2723 0.000134969 0)
(52.7292 0.000136683 0)
(52.1872 0.000138151 0)
(51.646 0.000139395 0)
(51.1057 0.000140439 0)
(50.5664 0.000141309 0)
(50.0282 0.000142026 0)
(49.4912 0.000142596 0)
(48.9555 0.000143109 0)
(48.4211 0.000143463 0)
(47.888 0.000143758 0)
(47.3565 0.000143996 0)
(46.8266 0.000144183 0)
(46.2983 0.00014433 0)
(45.7718 0.000144447 0)
(45.247 0.00014454 0)
(44.7241 0.000144615 0)
(44.2031 0.000144676 0)
(43.6842 0.000144727 0)
(43.1673 0.000144769 0)
(42.6525 0.000144806 0)
(42.1399 0.000144837 0)
(41.6296 0.000144864 0)
(41.1216 0.000144887 0)
(40.6159 0.000144908 0)
(40.1127 0.000144926 0)
(39.612 0.000144943 0)
(39.1139 0.000144957 0)
(38.6183 0.000144971 0)
(38.1253 0.000144983 0)
(37.6351 0.000144994 0)
(37.1476 0.000145005 0)
(36.6629 0.000145013 0)
(36.1811 0.000145023 0)
(35.7021 0.00014503 0)
(35.2261 0.000145037 0)
(34.753 0.000145046 0)
(34.283 0.00014505 0)
(33.816 0.000145058 0)
(33.3521 0.000145064 0)
(32.8913 0.000145071 0)
(32.4336 0.000145078 0)
(31.9792 0.000145085 0)
(31.5279 0.000145093 0)
(31.08 0.000145099 0)
(30.6353 0.000145104 0)
(30.1939 0.000145108 0)
(29.7558 0.000145112 0)
(29.3211 0.000145115 0)
(28.8898 0.000145125 0)
(28.4619 0.000145141 0)
(28.0374 0.000145159 0)
(27.6163 0.000145166 0)
(27.1987 0.000145169 0)
(26.7846 0.00014517 0)
(26.374 0.000145172 0)
(25.9669 0.000145176 0)
(25.5633 0.000145179 0)
(25.1633 0.000145185 0)
(24.7667 0.000145192 0)
(24.3738 0.000145191 0)
(23.9844 0.000145195 0)
(23.5986 0.000145202 0)
(23.2164 0.000145221 0)
(22.8378 0.00014525 0)
(22.4627 0.00014529 0)
(22.0913 0.000145326 0)
(21.7234 0.000145359 0)
(21.3592 0.000145389 0)
(20.9986 0.000145406 0)
(20.6415 0.000145418 0)
(20.2881 0.00014543 0)
(19.9383 0.000145441 0)
(19.5921 0.000145455 0)
(19.2495 0.000145473 0)
(18.9104 0.000145495 0)
(18.575 0.000145516 0)
(18.2432 0.00014553 0)
(17.9149 0.000145531 0)
(17.5902 0.000145529 0)
(17.2691 0.000145534 0)
(16.9516 0.000145542 0)
(16.6376 0.000145551 0)
(16.3272 0.000145562 0)
(16.0203 0.000145582 0)
(15.7169 0.000145602 0)
(15.4171 0.000145604 0)
(15.1207 0.000145568 0)
(14.8279 0.000145488 0)
(14.5386 0.00014536 0)
(14.2527 0.000145177 0)
(13.9703 0.000144924 0)
(13.6914 0.00014458 0)
(13.416 0.000144127 0)
(13.144 0.00014355 0)
(12.8754 0.000142839 0)
(12.6102 0.000141986 0)
(12.3485 0.000140972 0)
(12.0902 0.000139772 0)
(11.8353 0.000138351 0)
(11.5838 0.000136676 0)
(11.3357 0.000134712 0)
(11.0909 0.000132433 0)
(10.8496 0.000129817 0)
(10.6116 0.000126848 0)
(10.3769 0.000123522 0)
(10.1457 0.000119839 0)
(9.91774 0.000115805 0)
(9.69316 0.000111432 0)
(9.47192 0.000106735 0)
(9.254 0.000101739 0)
(9.03939 9.64716e-05 0)
(8.82809 9.09682e-05 0)
(8.62009 8.52703e-05 0)
(8.41537 7.94235e-05 0)
(8.21391 7.34768e-05 0)
(8.0157 6.74819e-05 0)
(7.82072 6.14914e-05 0)
(7.62896 5.55585e-05 0)
(7.44038 4.97338e-05 0)
(7.25497 4.40667e-05 0)
(7.07271 3.8602e-05 0)
(6.89356 3.33773e-05 0)
(6.71749 2.84214e-05 0)
(6.54448 2.37548e-05 0)
(6.37451 1.93841e-05 0)
(6.20753 1.53142e-05 0)
(6.04351 1.15421e-05 0)
(5.88244 8.03015e-06 0)
(5.72426 4.67255e-06 0)
(5.56896 1.19297e-06 0)
(5.41651 -8.57616e-07 0)
(5.26687 -2.64062e-06 0)
(5.12002 -4.20674e-06 0)
(4.97593 -5.56536e-06 0)
(4.83458 -6.73889e-06 0)
(4.69593 -7.73568e-06 0)
(4.55998 -8.57856e-06 0)
(4.42668 -9.28528e-06 0)
(4.29603 -9.87284e-06 0)
(4.16799 -1.03618e-05 0)
(4.04255 -1.07588e-05 0)
(3.91967 -1.10848e-05 0)
(3.79933 -1.13477e-05 0)
(3.68152 -1.15655e-05 0)
(3.5662 -1.17364e-05 0)
(3.45336 -1.18738e-05 0)
(3.34296 -1.19834e-05 0)
(3.23499 -1.20738e-05 0)
(3.12942 -1.21475e-05 0)
(3.02622 -1.22053e-05 0)
(2.92538 -1.22531e-05 0)
(2.82686 -1.22922e-05 0)
(2.73065 -1.23286e-05 0)
(2.63671 -1.23552e-05 0)
(2.54503 -1.23795e-05 0)
(2.45557 -1.23991e-05 0)
(2.36832 -1.2422e-05 0)
(2.28324 -1.24389e-05 0)
(2.20031 -1.24552e-05 0)
(2.1195 -1.24698e-05 0)
(2.04079 -1.24844e-05 0)
(1.96414 -1.24993e-05 0)
(1.88954 -1.25095e-05 0)
(1.81695 -1.25232e-05 0)
(1.74633 -1.25325e-05 0)
(1.67768 -1.25477e-05 0)
(1.61093 -1.25584e-05 0)
(1.54609 -1.25584e-05 0)
(1.48309 -1.25849e-05 0)
(1.42193 -1.25478e-05 0)
(1.36253 -1.26558e-05 0)
(1.30493 -1.24901e-05 0)
(1.24899 -1.27614e-05 0)
(1.19482 -1.23719e-05 0)
(1.14222 -1.29541e-05 0)
(1.09134 -1.21132e-05 0)
(1.04193 -1.33107e-05 0)
(0.994225 -1.17558e-05 0)
(0.947873 -1.36415e-05 0)
(0.903197 -1.15524e-05 0)
(0.859766 -1.35677e-05 0)
(0.817976 -1.17309e-05 0)
(0.777333 -1.31607e-05 0)
(0.738264 -1.1414e-05 0)
(0.700202 -1.06217e-05 0)
(0.663423 -8.31144e-08 0)
(0.626666 3.66951e-05 0)
(0.590061 0.000250499 0)
(0.520735 0.000299491 0)
(0.497539 0.00857113 0)
(-0.288251 0.0166012 0)
(57.703 0.00020763 0)
(57.1918 0.000154916 0)
(56.5763 0.000146264 0)
(56.0001 0.000146401 0)
(55.4597 0.000146789 0)
(54.9258 0.00014753 0)
(54.3877 0.000148442 0)
(53.8472 0.00014933 0)
(53.3071 0.000150157 0)
(52.7682 0.000150921 0)
(52.2303 0.000151601 0)
(51.6932 0.000152183 0)
(51.1571 0.000152669 0)
(50.622 0.000153066 0)
(50.088 0.000153378 0)
(49.5553 0.000153585 0)
(49.0238 0.00015383 0)
(48.4937 0.000153904 0)
(47.9649 0.000153972 0)
(47.4376 0.000154014 0)
(46.912 0.000154028 0)
(46.388 0.000154025 0)
(45.8657 0.00015401 0)
(45.3452 0.00015399 0)
(44.8266 0.000153965 0)
(44.3099 0.00015394 0)
(43.7952 0.000153915 0)
(43.2825 0.000153892 0)
(42.772 0.000153873 0)
(42.2637 0.000153854 0)
(41.7576 0.000153839 0)
(41.2539 0.000153825 0)
(40.7525 0.000153814 0)
(40.2536 0.000153804 0)
(39.7571 0.000153797 0)
(39.2632 0.000153789 0)
(38.7719 0.000153787 0)
(38.2833 0.000153783 0)
(37.7973 0.000153779 0)
(37.3141 0.000153779 0)
(36.8336 0.000153775 0)
(36.3561 0.000153776 0)
(35.8813 0.000153773 0)
(35.4096 0.000153773 0)
(34.9408 0.000153775 0)
(34.475 0.00015377 0)
(34.0122 0.000153772 0)
(33.5526 0.000153771 0)
(33.096 0.000153771 0)
(32.6426 0.000153771 0)
(32.1924 0.000153772 0)
(31.7455 0.000153773 0)
(31.3017 0.000153772 0)
(30.8613 0.000153768 0)
(30.4242 0.000153763 0)
(29.9904 0.000153757 0)
(29.5599 0.00015375 0)
(29.1328 0.000153752 0)
(28.7092 0.000153763 0)
(28.2889 0.000153774 0)
(27.8721 0.000153768 0)
(27.4588 0.000153755 0)
(27.0489 0.000153742 0)
(26.6425 0.00015373 0)
(26.2397 0.000153721 0)
(25.8403 0.000153707 0)
(25.4445 0.000153698 0)
(25.0523 0.000153689 0)
(24.6636 0.000153666 0)
(24.2784 0.000153652 0)
(23.8969 0.00015364 0)
(23.5189 0.000153646 0)
(23.1445 0.000153663 0)
(22.7737 0.000153696 0)
(22.4065 0.000153718 0)
(22.0429 0.000153736 0)
(21.6829 0.000153751 0)
(21.3265 0.000153746 0)
(20.9737 0.000153734 0)
(20.6245 0.000153722 0)
(20.2789 0.000153707 0)
(19.937 0.000153697 0)
(19.5986 0.000153694 0)
(19.2638 0.000153694 0)
(18.9326 0.000153692 0)
(18.605 0.000153678 0)
(18.281 0.000153646 0)
(17.9605 0.000153611 0)
(17.6437 0.000153586 0)
(17.3303 0.000153567 0)
(17.0206 0.000153545 0)
(16.7144 0.000153529 0)
(16.4117 0.000153527 0)
(16.1126 0.000153526 0)
(15.8169 0.000153498 0)
(15.5248 0.00015342 0)
(15.2362 0.000153286 0)
(14.9511 0.000153093 0)
(14.6695 0.000152834 0)
(14.3913 0.000152489 0)
(14.1166 0.000152032 0)
(13.8453 0.000151439 0)
(13.5775 0.000150699 0)
(13.313 0.000149804 0)
(13.052 0.000148745 0)
(12.7944 0.000147505 0)
(12.5401 0.000146051 0)
(12.2893 0.000144345 0)
(12.0417 0.000142346 0)
(11.7975 0.000140017 0)
(11.5566 0.000137327 0)
(11.3191 0.000134256 0)
(11.0848 0.000130793 0)
(10.8537 0.000126934 0)
(10.626 0.000122688 0)
(10.4014 0.000118066 0)
(10.1801 0.000113087 0)
(9.96201 0.000107775 0)
(9.74707 0.000102157 0)
(9.5353 9.62709e-05 0)
(9.32668 9.016e-05 0)
(9.12119 8.38733e-05 0)
(8.9188 7.74639e-05 0)
(8.71951 7.09873e-05 0)
(8.52329 6.45013e-05 0)
(8.33013 5.80626e-05 0)
(8.14 5.17275e-05 0)
(7.95289 4.55473e-05 0)
(7.76878 3.95696e-05 0)
(7.58764 3.38419e-05 0)
(7.40947 2.84117e-05 0)
(7.23424 2.33195e-05 0)
(7.06193 1.8598e-05 0)
(6.89251 1.4257e-05 0)
(6.72598 1.03054e-05 0)
(6.5623 6.76686e-06 0)
(6.40145 3.66709e-06 0)
(6.24342 1.10888e-06 0)
(6.08819 -1.13015e-06 0)
(5.93572 -3.29298e-06 0)
(5.78601 -5.26398e-06 0)
(5.63904 -6.98152e-06 0)
(5.49477 -8.44959e-06 0)
(5.3532 -9.70383e-06 0)
(5.21431 -1.07521e-05 0)
(5.07807 -1.16275e-05 0)
(4.94448 -1.23526e-05 0)
(4.8135 -1.29481e-05 0)
(4.68512 -1.34406e-05 0)
(4.55932 -1.38321e-05 0)
(4.43608 -1.41507e-05 0)
(4.31537 -1.44026e-05 0)
(4.19717 -1.46126e-05 0)
(4.08147 -1.47707e-05 0)
(3.96824 -1.48955e-05 0)
(3.85744 -1.4992e-05 0)
(3.74907 -1.50712e-05 0)
(3.6431 -1.51337e-05 0)
(3.53951 -1.51789e-05 0)
(3.43826 -1.52144e-05 0)
(3.33934 -1.52412e-05 0)
(3.24272 -1.52683e-05 0)
(3.14838 -1.52816e-05 0)
(3.0563 -1.52938e-05 0)
(2.96643 -1.53e-05 0)
(2.87877 -1.53131e-05 0)
(2.79329 -1.53169e-05 0)
(2.70995 -1.53194e-05 0)
(2.62874 -1.53216e-05 0)
(2.54962 -1.53213e-05 0)
(2.47257 -1.53261e-05 0)
(2.39756 -1.53172e-05 0)
(2.32456 -1.53176e-05 0)
(2.25354 -1.53159e-05 0)
(2.18448 -1.52876e-05 0)
(2.11733 -1.53501e-05 0)
(2.05208 -1.51836e-05 0)
(1.98867 -1.54978e-05 0)
(1.92711 -1.49317e-05 0)
(1.8673 -1.58402e-05 0)
(1.80929 -1.45067e-05 0)
(1.75295 -1.62068e-05 0)
(1.69837 -1.40975e-05 0)
(1.64536 -1.6545e-05 0)
(1.59408 -1.36353e-05 0)
(1.54427 -1.70234e-05 0)
(1.49615 -1.30171e-05 0)
(1.44939 -1.74342e-05 0)
(1.40431 -1.26469e-05 0)
(1.36048 -1.7596e-05 0)
(1.31827 -1.24233e-05 0)
(1.27724 -1.6599e-05 0)
(1.23775 -9.58215e-06 0)
(1.19931 -3.4652e-06 0)
(1.16211 3.57109e-05 0)
(1.12488 0.000180123 0)
(1.08742 0.000877662 0)
(1.01765 0.00205951 0)
(0.967596 0.0190829 0)
(0.293252 0.0185415 0)
(57.703 0.000152031 0)
(57.1918 0.000108432 0)
(56.5763 0.000105104 0)
(56.0001 0.000109175 0)
(55.4597 0.000111494 0)
(54.9258 0.000113416 0)
(54.3877 0.000115203 0)
(53.8472 0.000116762 0)
(53.3071 0.000118117 0)
(52.7682 0.000119305 0)
(52.2303 0.000120338 0)
(51.6933 0.000121222 0)
(51.1571 0.000121968 0)
(50.622 0.000122595 0)
(50.0881 0.000123113 0)
(49.5553 0.000123509 0)
(49.0239 0.000123909 0)
(48.4937 0.000124146 0)
(47.9649 0.00012436 0)
(47.4377 0.00012453 0)
(46.912 0.000124663 0)
(46.388 0.000124768 0)
(45.8657 0.000124852 0)
(45.3453 0.000124919 0)
(44.8266 0.000124975 0)
(44.31 0.000125022 0)
(43.7953 0.000125061 0)
(43.2826 0.000125096 0)
(42.7721 0.000125127 0)
(42.2638 0.000125154 0)
(41.7578 0.00012518 0)
(41.2541 0.000125202 0)
(40.7527 0.000125224 0)
(40.2538 0.000125243 0)
(39.7573 0.000125262 0)
(39.2634 0.000125278 0)
(38.7721 0.000125296 0)
(38.2835 0.000125311 0)
(37.7975 0.000125323 0)
(37.3143 0.000125338 0)
(36.8339 0.000125348 0)
(36.3563 0.000125362 0)
(35.8816 0.00012537 0)
(35.4099 0.00012538 0)
(34.9411 0.00012539 0)
(34.4753 0.000125395 0)
(34.0126 0.000125405 0)
(33.5529 0.000125411 0)
(33.0964 0.000125418 0)
(32.643 0.000125424 0)
(32.1929 0.00012543 0)
(31.7459 0.000125436 0)
(31.3022 0.00012544 0)
(30.8618 0.000125442 0)
(30.4246 0.000125443 0)
(29.9909 0.000125443 0)
(29.5604 0.000125442 0)
(29.1334 0.000125447 0)
(28.7097 0.000125458 0)
(28.2895 0.000125469 0)
(27.8727 0.000125467 0)
(27.4594 0.000125462 0)
(27.0495 0.000125456 0)
(26.6432 0.000125452 0)
(26.2404 0.000125448 0)
(25.841 0.00012544 0)
(25.4453 0.000125435 0)
(25.053 0.000125431 0)
(24.6643 0.000125415 0)
(24.2792 0.000125408 0)
(23.8977 0.000125403 0)
(23.5197 0.000125411 0)
(23.1454 0.000125427 0)
(22.7746 0.000125454 0)
(22.4074 0.000125472 0)
(22.0438 0.000125487 0)
(21.6839 0.000125501 0)
(21.3275 0.000125499 0)
(20.9747 0.000125493 0)
(20.6256 0.000125486 0)
(20.28 0.000125477 0)
(19.9381 0.000125472 0)
(19.5997 0.000125471 0)
(19.2649 0.000125472 0)
(18.9338 0.000125473 0)
(18.6062 0.000125463 0)
(18.2822 0.00012544 0)
(17.9618 0.000125414 0)
(17.6449 0.000125397 0)
(17.3317 0.000125382 0)
(17.0219 0.000125364 0)
(16.7158 0.00012535 0)
(16.4131 0.000125345 0)
(16.114 0.000125337 0)
(15.8184 0.000125304 0)
(15.5263 0.000125229 0)
(15.2378 0.000125108 0)
(14.9527 0.000124938 0)
(14.6711 0.000124711 0)
(14.3929 0.000124408 0)
(14.1182 0.000124009 0)
(13.847 0.000123495 0)
(13.5792 0.000122855 0)
(13.3148 0.000122081 0)
(13.0538 0.000121165 0)
(12.7962 0.00012009 0)
(12.542 0.000118829 0)
(12.2911 0.000117349 0)
(12.0436 0.000115619 0)
(11.7994 0.000113609 0)
(11.5585 0.000111295 0)
(11.3209 0.000108662 0)
(11.0866 0.000105702 0)
(10.8556 0.000102414 0)
(10.6278 9.88069e-05 0)
(10.4033 9.48926e-05 0)
(10.182 9.0689e-05 0)
(9.96381 8.62186e-05 0)
(9.74885 8.15091e-05 0)
(9.53705 7.6594e-05 0)
(9.32839 7.1513e-05 0)
(9.12285 6.63098e-05 0)
(8.92042 6.10308e-05 0)
(8.72108 5.57242e-05 0)
(8.52481 5.0439e-05 0)
(8.3316 4.52223e-05 0)
(8.14142 4.01199e-05 0)
(7.95426 3.51721e-05 0)
(7.77009 3.04152e-05 0)
(7.58891 2.58862e-05 0)
(7.41069 2.16225e-05 0)
(7.23541 1.76575e-05 0)
(7.06305 1.40201e-05 0)
(6.89359 1.07258e-05 0)
(6.72702 7.75807e-06 0)
(6.5633 5.06931e-06 0)
(6.40243 2.61265e-06 0)
(6.24437 3.44898e-07 0)
(6.0891 -1.6724e-06 0)
(5.93662 -3.45006e-06 0)
(5.78689 -4.95872e-06 0)
(5.63989 -6.24131e-06 0)
(5.49561 -7.32757e-06 0)
(5.35403 -8.25351e-06 0)
(5.21513 -9.02524e-06 0)
(5.07888 -9.66947e-06 0)
(4.94528 -1.02027e-05 0)
(4.81429 -1.06408e-05 0)
(4.68591 -1.10036e-05 0)
(4.5601 -1.12912e-05 0)
(4.43686 -1.15255e-05 0)
(4.31615 -1.17107e-05 0)
(4.19795 -1.1866e-05 0)
(4.08225 -1.19826e-05 0)
(3.96901 -1.20748e-05 0)
(3.85822 -1.21466e-05 0)
(3.74985 -1.22062e-05 0)
(3.64387 -1.22535e-05 0)
(3.54028 -1.2288e-05 0)
(3.43903 -1.23156e-05 0)
(3.34011 -1.23372e-05 0)
(3.24349 -1.23593e-05 0)
(3.14915 -1.2371e-05 0)
(3.05706 -1.23822e-05 0)
(2.9672 -1.23884e-05 0)
(2.87954 -1.2402e-05 0)
(2.79406 -1.24046e-05 0)
(2.71072 -1.24136e-05 0)
(2.62951 -1.24084e-05 0)
(2.55039 -1.24284e-05 0)
(2.47333 -1.24031e-05 0)
(2.39832 -1.24554e-05 0)
(2.32532 -1.2362e-05 0)
(2.25431 -1.25275e-05 0)
(2.18524 -1.22482e-05 0)
(2.11809 -1.26979e-05 0)
(2.05284 -1.19778e-05 0)
(1.98943 -1.3113e-05 0)
(1.92787 -1.13781e-05 0)
(1.86806 -1.38318e-05 0)
(1.81006 -1.05535e-05 0)
(1.75371 -1.46416e-05 0)
(1.69913 -9.55395e-06 0)
(1.64612 -1.58441e-05 0)
(1.59484 -7.85497e-06 0)
(1.54503 -1.80408e-05 0)
(1.49691 -5.63121e-06 0)
(1.45015 -1.97638e-05 0)
(1.40507 -4.64339e-06 0)
(1.36124 -1.94129e-05 0)
(1.31903 -5.44548e-06 0)
(1.27799 -1.67576e-05 0)
(1.23851 -2.69028e-06 0)
(1.20008 6.5581e-06 0)
(1.16293 8.41222e-05 0)
(1.12597 0.000356703 0)
(1.08964 0.00165848 0)
(1.02435 0.00512411 0)
(1.00008 0.0480977 0)
(0.393051 0.0710975 0)
(57.7029 0.000110943 0)
(57.1918 9.83051e-05 0)
(56.5763 9.76343e-05 0)
(56.0001 0.000102722 0)
(55.4597 0.000106146 0)
(54.9258 0.00010885 0)
(54.3877 0.000111298 0)
(53.8472 0.000113439 0)
(53.307 0.000115288 0)
(52.7681 0.00011689 0)
(52.2302 0.000118268 0)
(51.6932 0.000119442 0)
(51.1571 0.000120432 0)
(50.622 0.00012126 0)
(50.088 0.000121947 0)
(49.5553 0.000122495 0)
(49.0238 0.000122985 0)
(48.4937 0.000123335 0)
(47.9649 0.000123628 0)
(47.4376 0.000123865 0)
(46.912 0.000124055 0)
(46.388 0.000124207 0)
(45.8657 0.000124331 0)
(45.3452 0.000124433 0)
(44.8266 0.000124518 0)
(44.3099 0.000124591 0)
(43.7952 0.000124653 0)
(43.2826 0.000124707 0)
(42.7721 0.000124757 0)
(42.2638 0.000124801 0)
(41.7578 0.000124841 0)
(41.254 0.000124878 0)
(40.7527 0.000124913 0)
(40.2537 0.000124945 0)
(39.7573 0.000124975 0)
(39.2634 0.000125003 0)
(38.7721 0.000125031 0)
(38.2834 0.000125058 0)
(37.7975 0.000125082 0)
(37.3143 0.000125107 0)
(36.8339 0.000125128 0)
(36.3563 0.000125152 0)
(35.8816 0.000125172 0)
(35.4098 0.000125193 0)
(34.9411 0.000125214 0)
(34.4753 0.000125232 0)
(34.0125 0.000125253 0)
(33.5529 0.000125272 0)
(33.0964 0.000125291 0)
(32.643 0.00012531 0)
(32.1928 0.000125329 0)
(31.7459 0.000125347 0)
(31.3022 0.000125365 0)
(30.8617 0.000125382 0)
(30.4246 0.000125398 0)
(29.9908 0.000125414 0)
(29.5604 0.000125429 0)
(29.1333 0.000125448 0)
(28.7097 0.000125471 0)
(28.2895 0.000125496 0)
(27.8727 0.000125513 0)
(27.4593 0.000125526 0)
(27.0495 0.00012554 0)
(26.6432 0.000125554 0)
(26.2403 0.000125569 0)
(25.841 0.000125581 0)
(25.4452 0.000125594 0)
(25.053 0.000125608 0)
(24.6643 0.000125615 0)
(24.2792 0.000125629 0)
(23.8976 0.000125645 0)
(23.5197 0.000125672 0)
(23.1453 0.000125706 0)
(22.7745 0.000125749 0)
(22.4074 0.000125787 0)
(22.0438 0.000125823 0)
(21.6838 0.000125857 0)
(21.3274 0.000125881 0)
(20.9747 0.000125899 0)
(20.6255 0.000125917 0)
(20.28 0.000125933 0)
(19.938 0.000125952 0)
(19.5997 0.000125974 0)
(19.2649 0.000125999 0)
(18.9337 0.000126024 0)
(18.6062 0.000126042 0)
(18.2822 0.00012605 0)
(17.9618 0.000126055 0)
(17.6449 0.000126065 0)
(17.3316 0.000126078 0)
(17.0219 0.00012609 0)
(16.7157 0.000126106 0)
(16.4131 0.000126128 0)
(16.114 0.000126148 0)
(15.8184 0.000126148 0)
(15.5263 0.000126116 0)
(15.2377 0.000126046 0)
(14.9526 0.000125934 0)
(14.671 0.000125772 0)
(14.3929 0.000125547 0)
(14.1182 0.000125241 0)
(13.847 0.000124836 0)
(13.5792 0.000124323 0)
(13.3148 0.000123693 0)
(13.0538 0.000122938 0)
(12.7962 0.000122041 0)
(12.5419 0.000120979 0)
(12.2911 0.000119723 0)
(12.0435 0.000118242 0)
(11.7994 0.00011651 0)
(11.5585 0.000114503 0)
(11.3209 0.000112202 0)
(11.0866 0.000109598 0)
(10.8556 0.000106685 0)
(10.6278 0.000103466 0)
(10.4033 9.99486e-05 0)
(10.1819 9.61438e-05 0)
(9.96379 9.20687e-05 0)
(9.74883 8.77445e-05 0)
(9.53702 8.31986e-05 0)
(9.32836 7.84636e-05 0)
(9.12283 7.35773e-05 0)
(8.9204 6.85806e-05 0)
(8.72106 6.35173e-05 0)
(8.52479 5.84326e-05 0)
(8.33158 5.33721e-05 0)
(8.1414 4.83808e-05 0)
(7.95424 4.35014e-05 0)
(7.77008 3.8774e-05 0)
(7.5889 3.42351e-05 0)
(7.41068 2.99147e-05 0)
(7.2354 2.5836e-05 0)
(7.06304 2.20187e-05 0)
(6.89359 1.84747e-05 0)
(6.72701 1.51866e-05 0)
(6.5633 1.20898e-05 0)
(6.40242 9.13632e-06 0)
(6.24436 6.32236e-06 0)
(6.0891 3.59699e-06 0)
(5.93662 1.8031e-06 0)
(5.78688 2.77759e-07 0)
(5.63989 -1.04943e-06 0)
(5.49561 -2.1969e-06 0)
(5.35403 -3.18805e-06 0)
(5.21512 -4.02805e-06 0)
(5.07888 -4.73773e-06 0)
(4.94528 -5.3326e-06 0)
(4.81429 -5.82738e-06 0)
(4.68591 -6.2389e-06 0)
(4.5601 -6.57253e-06 0)
(4.43686 -6.8459e-06 0)
(4.31615 -7.06657e-06 0)
(4.19795 -7.24956e-06 0)
(4.08225 -7.39233e-06 0)
(3.96901 -7.50671e-06 0)
(3.85822 -7.59792e-06 0)
(3.74985 -7.67359e-06 0)
(3.64387 -7.73398e-06 0)
(3.54028 -7.78186e-06 0)
(3.43903 -7.82009e-06 0)
(3.34011 -7.85247e-06 0)
(3.24349 -7.88177e-06 0)
(3.14915 -7.90294e-06 0)
(3.05706 -7.92197e-06 0)
(2.9672 -7.93765e-06 0)
(2.87954 -7.9542e-06 0)
(2.79406 -7.9696e-06 0)
(2.71072 -7.9769e-06 0)
(2.62951 -7.99629e-06 0)
(2.55039 -7.99458e-06 0)
(2.47334 -8.02105e-06 0)
(2.39832 -8.01321e-06 0)
(2.32532 -8.01768e-06 0)
(2.25431 -8.0863e-06 0)
(2.18524 -7.8776e-06 0)
(2.11809 -8.36936e-06 0)
(2.05284 -7.35696e-06 0)
(1.98943 -9.51409e-06 0)
(1.92787 -5.89179e-06 0)
(1.86806 -1.15778e-05 0)
(1.81006 -3.7984e-06 0)
(1.75371 -1.35164e-05 0)
(1.69913 -2.32732e-06 0)
(1.64612 -1.44983e-05 0)
(1.59484 -1.22876e-06 0)
(1.54503 -1.52431e-05 0)
(1.49691 -1.66258e-07 0)
(1.45015 -1.65873e-05 0)
(1.40507 1.26565e-06 0)
(1.36124 -1.81724e-05 0)
(1.31903 3.22925e-06 0)
(1.278 -1.59613e-05 0)
(1.23852 1.52122e-05 0)
(1.20009 3.6884e-05 0)
(1.16297 0.000226439 0)
(1.12616 0.00085994 0)
(1.09025 0.00315 0)
(1.03179 0.00614896 0)
(1.01649 0.0472589 0)
(0.708488 0.0237304 0)
(57.7029 3.32801e-05 0)
(57.1918 2.63097e-05 0)
(56.5763 1.90884e-05 0)
(56.0001 1.6107e-05 0)
(55.4597 1.37861e-05 0)
(54.9257 1.18409e-05 0)
(54.3876 1.03218e-05 0)
(53.8471 9.09604e-06 0)
(53.307 8.08034e-06 0)
(52.7681 7.233e-06 0)
(52.2302 6.52137e-06 0)
(51.6932 5.91943e-06 0)
(51.1571 5.40781e-06 0)
(50.622 4.97176e-06 0)
(50.088 4.59859e-06 0)
(49.5552 4.27583e-06 0)
(49.0238 4.00576e-06 0)
(48.4936 3.76405e-06 0)
(47.9648 3.5572e-06 0)
(47.4376 3.37823e-06 0)
(46.912 3.2218e-06 0)
(46.388 3.08496e-06 0)
(45.8657 2.96506e-06 0)
(45.3452 2.85949e-06 0)
(44.8266 2.76657e-06 0)
(44.3099 2.68409e-06 0)
(43.7952 2.6108e-06 0)
(43.2826 2.54555e-06 0)
(42.7721 2.48759e-06 0)
(42.2638 2.43559e-06 0)
(41.7577 2.38905e-06 0)
(41.254 2.34745e-06 0)
(40.7526 2.31009e-06 0)
(40.2537 2.27589e-06 0)
(39.7573 2.24531e-06 0)
(39.2634 2.21732e-06 0)
(38.7721 2.19214e-06 0)
(38.2834 2.169e-06 0)
(37.7975 2.1474e-06 0)
(37.3142 2.12791e-06 0)
(36.8338 2.10928e-06 0)
(36.3563 2.09266e-06 0)
(35.8816 2.07612e-06 0)
(35.4098 2.06113e-06 0)
(34.941 2.04723e-06 0)
(34.4752 2.03316e-06 0)
(34.0125 2.02025e-06 0)
(33.5529 2.00752e-06 0)
(33.0963 1.99534e-06 0)
(32.643 1.98361e-06 0)
(32.1928 1.97194e-06 0)
(31.7458 1.96031e-06 0)
(31.3021 1.94891e-06 0)
(30.8617 1.93748e-06 0)
(30.4246 1.92588e-06 0)
(29.9908 1.91429e-06 0)
(29.5604 1.90217e-06 0)
(29.1333 1.891e-06 0)
(28.7097 1.88099e-06 0)
(28.2894 1.87121e-06 0)
(27.8726 1.85915e-06 0)
(27.4593 1.84605e-06 0)
(27.0495 1.83371e-06 0)
(26.6431 1.82131e-06 0)
(26.2403 1.80874e-06 0)
(25.841 1.7948e-06 0)
(25.4452 1.78015e-06 0)
(25.0529 1.76534e-06 0)
(24.6643 1.74846e-06 0)
(24.2792 1.73314e-06 0)
(23.8976 1.71905e-06 0)
(23.5197 1.70723e-06 0)
(23.1453 1.69641e-06 0)
(22.7745 1.68734e-06 0)
(22.4073 1.67601e-06 0)
(22.0438 1.66345e-06 0)
(21.6838 1.65037e-06 0)
(21.3274 1.63433e-06 0)
(20.9747 1.61687e-06 0)
(20.6255 1.59907e-06 0)
(20.2799 1.58069e-06 0)
(19.938 1.56297e-06 0)
(19.5996 1.54607e-06 0)
(19.2649 1.52959e-06 0)
(18.9337 1.51309e-06 0)
(18.6061 1.49448e-06 0)
(18.2821 1.47278e-06 0)
(17.9617 1.45042e-06 0)
(17.6449 1.42987e-06 0)
(17.3316 1.41037e-06 0)
(17.0219 1.39071e-06 0)
(16.7157 1.3722e-06 0)
(16.4131 1.35602e-06 0)
(16.1139 1.33956e-06 0)
(15.8184 1.31868e-06 0)
(15.5263 1.29112e-06 0)
(15.2377 1.25704e-06 0)
(14.9526 1.21689e-06 0)
(14.671 1.16989e-06 0)
(14.3929 1.11342e-06 0)
(14.1182 1.04436e-06 0)
(13.8469 9.60999e-07 0)
(13.5791 8.63529e-07 0)
(13.3147 7.53304e-07 0)
(13.0537 6.31322e-07 0)
(12.7961 4.96764e-07 0)
(12.5419 3.46936e-07 0)
(12.291 1.78401e-07 0)
(12.0435 -1.20618e-08 0)
(11.7993 -2.26546e-07 0)
(11.5585 -4.66012e-07 0)
(11.3209 -7.2998e-07 0)
(11.0866 -1.01687e-06 0)
(10.8556 -1.32389e-06 0)
(10.6278 -1.64752e-06 0)
(10.4032 -1.98371e-06 0)
(10.1819 -2.32846e-06 0)
(9.96377 -2.67764e-06 0)
(9.74881 -3.0273e-06 0)
(9.53701 -3.3729e-06 0)
(9.32835 -3.7103e-06 0)
(9.12281 -4.03465e-06 0)
(8.92039 -4.34236e-06 0)
(8.72105 -4.62923e-06 0)
(8.52478 -4.89259e-06 0)
(8.33157 -5.12931e-06 0)
(8.14139 -5.33816e-06 0)
(7.95423 -5.51722e-06 0)
(7.77007 -5.66716e-06 0)
(7.58889 -5.78737e-06 0)
(7.41067 -5.87957e-06 0)
(7.23539 -5.94543e-06 0)
(7.06304 -5.9855e-06 0)
(6.89358 -6.00399e-06 0)
(6.72701 -6.00206e-06 0)
(6.56329 -5.97234e-06 0)
(6.40242 -5.85715e-06 0)
(6.24436 -5.41145e-06 0)
(6.0891 -4.69732e-06 0)
(5.93661 -4.65018e-06 0)
(5.78688 -4.68653e-06 0)
(5.63989 -4.72871e-06 0)
(5.49561 -4.76017e-06 0)
(5.35403 -4.78171e-06 0)
(5.21512 -4.79089e-06 0)
(5.07888 -4.79175e-06 0)
(4.94528 -4.78692e-06 0)
(4.81429 -4.77881e-06 0)
(4.68591 -4.76876e-06 0)
(4.5601 -4.7563e-06 0)
(4.43686 -4.74354e-06 0)
(4.31615 -4.73149e-06 0)
(4.19795 -4.72037e-06 0)
(4.08225 -4.70898e-06 0)
(3.96901 -4.69756e-06 0)
(3.85822 -4.68814e-06 0)
(3.74985 -4.67939e-06 0)
(3.64387 -4.6711e-06 0)
(3.54028 -4.66287e-06 0)
(3.43903 -4.65502e-06 0)
(3.34011 -4.64788e-06 0)
(3.24349 -4.6419e-06 0)
(3.14915 -4.63367e-06 0)
(3.05706 -4.62862e-06 0)
(2.9672 -4.61884e-06 0)
(2.87954 -4.61877e-06 0)
(2.79406 -4.59935e-06 0)
(2.71072 -4.61661e-06 0)
(2.62951 -4.55982e-06 0)
(2.55039 -4.65153e-06 0)
(2.47334 -4.455e-06 0)
(2.39832 -4.80117e-06 0)
(2.32533 -4.1472e-06 0)
(2.25431 -5.28257e-06 0)
(2.18524 -3.32201e-06 0)
(2.11809 -6.44663e-06 0)
(2.05284 -1.47936e-06 0)
(1.98943 -9.20188e-06 0)
(1.92787 2.38556e-06 0)
(1.86806 -1.36869e-05 0)
(1.81005 7.42306e-06 0)
(1.75371 -1.89075e-05 0)
(1.69913 1.41083e-05 0)
(1.64612 -2.7845e-05 0)
(1.59484 2.64158e-05 0)
(1.54503 -4.37411e-05 0)
(1.49691 4.21578e-05 0)
(1.45015 -5.51632e-05 0)
(1.40507 4.76744e-05 0)
(1.36124 -5.30279e-05 0)
(1.31903 4.09685e-05 0)
(1.278 -3.68795e-05 0)
(1.23853 4.74144e-05 0)
(1.20014 6.25677e-05 0)
(1.16317 0.000396168 0)
(1.12677 0.00148942 0)
(1.0909 0.00636739 0)
(1.03368 0.0197736 0)
(0.997658 0.139611 0)
(0.50482 0.19109 0)
(57.7029 -3.32801e-05 0)
(57.1918 -2.63097e-05 0)
(56.5763 -1.90884e-05 0)
(56.0001 -1.6107e-05 0)
(55.4597 -1.37861e-05 0)
(54.9257 -1.18409e-05 0)
(54.3876 -1.03218e-05 0)
(53.8471 -9.09604e-06 0)
(53.307 -8.08034e-06 0)
(52.7681 -7.23299e-06 0)
(52.2302 -6.52137e-06 0)
(51.6932 -5.91943e-06 0)
(51.1571 -5.40781e-06 0)
(50.622 -4.97176e-06 0)
(50.088 -4.59859e-06 0)
(49.5552 -4.27583e-06 0)
(49.0238 -4.00576e-06 0)
(48.4936 -3.76405e-06 0)
(47.9648 -3.5572e-06 0)
(47.4376 -3.37823e-06 0)
(46.912 -3.22181e-06 0)
(46.388 -3.08496e-06 0)
(45.8657 -2.96506e-06 0)
(45.3452 -2.85949e-06 0)
(44.8266 -2.76657e-06 0)
(44.3099 -2.68409e-06 0)
(43.7952 -2.6108e-06 0)
(43.2826 -2.54555e-06 0)
(42.7721 -2.48759e-06 0)
(42.2638 -2.43559e-06 0)
(41.7577 -2.38905e-06 0)
(41.254 -2.34745e-06 0)
(40.7526 -2.31009e-06 0)
(40.2537 -2.27589e-06 0)
(39.7573 -2.24531e-06 0)
(39.2634 -2.21732e-06 0)
(38.7721 -2.19214e-06 0)
(38.2834 -2.169e-06 0)
(37.7975 -2.1474e-06 0)
(37.3142 -2.12791e-06 0)
(36.8338 -2.10928e-06 0)
(36.3563 -2.09266e-06 0)
(35.8816 -2.07612e-06 0)
(35.4098 -2.06113e-06 0)
(34.941 -2.04723e-06 0)
(34.4752 -2.03316e-06 0)
(34.0125 -2.02025e-06 0)
(33.5529 -2.00752e-06 0)
(33.0963 -1.99534e-06 0)
(32.643 -1.98361e-06 0)
(32.1928 -1.97193e-06 0)
(31.7458 -1.96031e-06 0)
(31.3021 -1.94891e-06 0)
(30.8617 -1.93749e-06 0)
(30.4246 -1.92588e-06 0)
(29.9908 -1.91429e-06 0)
(29.5604 -1.90217e-06 0)
(29.1333 -1.89101e-06 0)
(28.7097 -1.88099e-06 0)
(28.2894 -1.87121e-06 0)
(27.8726 -1.85915e-06 0)
(27.4593 -1.84605e-06 0)
(27.0495 -1.83371e-06 0)
(26.6431 -1.82131e-06 0)
(26.2403 -1.80874e-06 0)
(25.841 -1.7948e-06 0)
(25.4452 -1.78015e-06 0)
(25.0529 -1.76534e-06 0)
(24.6643 -1.74845e-06 0)
(24.2792 -1.73314e-06 0)
(23.8976 -1.71905e-06 0)
(23.5197 -1.70723e-06 0)
(23.1453 -1.69641e-06 0)
(22.7745 -1.68735e-06 0)
(22.4073 -1.67601e-06 0)
(22.0438 -1.66345e-06 0)
(21.6838 -1.65037e-06 0)
(21.3274 -1.63433e-06 0)
(20.9747 -1.61687e-06 0)
(20.6255 -1.59906e-06 0)
(20.2799 -1.58069e-06 0)
(19.938 -1.56298e-06 0)
(19.5996 -1.54607e-06 0)
(19.2649 -1.52959e-06 0)
(18.9337 -1.51309e-06 0)
(18.6061 -1.49449e-06 0)
(18.2821 -1.47277e-06 0)
(17.9617 -1.45042e-06 0)
(17.6449 -1.42986e-06 0)
(17.3316 -1.41038e-06 0)
(17.0219 -1.3907e-06 0)
(16.7157 -1.37222e-06 0)
(16.4131 -1.35601e-06 0)
(16.1139 -1.33956e-06 0)
(15.8184 -1.31867e-06 0)
(15.5263 -1.29113e-06 0)
(15.2377 -1.25704e-06 0)
(14.9526 -1.21689e-06 0)
(14.671 -1.1699e-06 0)
(14.3929 -1.11341e-06 0)
(14.1182 -1.04437e-06 0)
(13.8469 -9.61e-07 0)
(13.5791 -8.63524e-07 0)
(13.3147 -7.53315e-07 0)
(13.0537 -6.3131e-07 0)
(12.7961 -4.9677e-07 0)
(12.5419 -3.46936e-07 0)
(12.291 -1.78395e-07 0)
(12.0435 1.20533e-08 0)
(11.7993 2.26549e-07 0)
(11.5585 4.66008e-07 0)
(11.3209 7.2999e-07 0)
(11.0866 1.01686e-06 0)
(10.8556 1.3239e-06 0)
(10.6278 1.64752e-06 0)
(10.4032 1.98371e-06 0)
(10.1819 2.32846e-06 0)
(9.96377 2.67767e-06 0)
(9.74881 3.02726e-06 0)
(9.53701 3.37297e-06 0)
(9.32835 3.71023e-06 0)
(9.12281 4.03475e-06 0)
(8.92039 4.34226e-06 0)
(8.72105 4.62935e-06 0)
(8.52478 4.89245e-06 0)
(8.33157 5.1295e-06 0)
(8.14139 5.3379e-06 0)
(7.95423 5.51753e-06 0)
(7.77007 5.6669e-06 0)
(7.58889 5.78744e-06 0)
(7.41067 5.8798e-06 0)
(7.23539 5.94502e-06 0)
(7.06304 5.98577e-06 0)
(6.89358 6.0042e-06 0)
(6.72701 6.00152e-06 0)
(6.56329 5.97268e-06 0)
(6.40242 5.8573e-06 0)
(6.24436 5.41094e-06 0)
(6.0891 4.69769e-06 0)
(5.93661 4.65053e-06 0)
(5.78688 4.68599e-06 0)
(5.63989 4.72867e-06 0)
(5.49561 4.76068e-06 0)
(5.35403 4.78156e-06 0)
(5.21512 4.79049e-06 0)
(5.07888 4.7919e-06 0)
(4.94528 4.78732e-06 0)
(4.81429 4.77855e-06 0)
(4.68591 4.76851e-06 0)
(4.5601 4.75645e-06 0)
(4.43686 4.74407e-06 0)
(4.31615 4.73092e-06 0)
(4.19795 4.72028e-06 0)
(4.08225 4.70876e-06 0)
(3.96901 4.69855e-06 0)
(3.85822 4.68775e-06 0)
(3.74985 4.67925e-06 0)
(3.64387 4.6706e-06 0)
(3.54028 4.66326e-06 0)
(3.43903 4.65488e-06 0)
(3.34011 4.64861e-06 0)
(3.24349 4.64142e-06 0)
(3.14915 4.63543e-06 0)
(3.05706 4.62505e-06 0)
(2.9672 4.6241e-06 0)
(2.87954 4.60561e-06 0)
(2.79406 4.62505e-06 0)
(2.71072 4.56797e-06 0)
(2.62951 4.65667e-06 0)
(2.55039 4.46787e-06 0)
(2.47333 4.79358e-06 0)
(2.39832 4.18609e-06 0)
(2.32532 5.23757e-06 0)
(2.25431 3.38663e-06 0)
(2.18524 6.48919e-06 0)
(2.1181 1.37164e-06 0)
(2.05284 9.60959e-06 0)
(1.98944 -3.62833e-06 0)
(1.92786 1.61372e-05 0)
(1.86807 -1.20929e-05 0)
(1.81004 2.51338e-05 0)
(1.75373 -2.11892e-05 0)
(1.69911 3.39733e-05 0)
(1.64616 -2.94858e-05 0)
(1.59479 4.29313e-05 0)
(1.54509 -3.85203e-05 0)
(1.49683 5.18939e-05 0)
(1.45024 -4.68178e-05 0)
(1.40498 5.86992e-05 0)
(1.36132 -5.12964e-05 0)
(1.31897 6.24578e-05 0)
(1.27806 -4.79263e-05 0)
(1.23851 8.09504e-05 0)
(1.20023 4.08784e-05 0)
(1.16341 0.000441411 0)
(1.1281 0.00154859 0)
(1.09603 0.00703983 0)
(1.07561 0.0226406 0)
(1.07022 0.165239 0)
(1.24664 0.216254 0)
(57.7029 -0.000110943 0)
(57.1918 -9.83051e-05 0)
(56.5763 -9.76343e-05 0)
(56.0001 -0.000102722 0)
(55.4597 -0.000106146 0)
(54.9258 -0.00010885 0)
(54.3877 -0.000111298 0)
(53.8472 -0.000113439 0)