/*--------------------------------*- C++ -*----------------------------------*\
| =========                 |                                                 |
| \\      /  F ield         | OpenFOAM: The Open Source CFD Toolbox           |
|  \\    /   O peration     | Version:  3.0.x                                 |
|   \\  /    A nd           | Web:      www.OpenFOAM.org                      |
|    \\/     M anipulation  |                                                 |
\*---------------------------------------------------------------------------*/
FoamFile
{
    version     2.0;
    format      ascii;
    class       surfaceScalarField;
    location    "0.007";
    object      phi;
}
// * * * * * * * * * * * * * * * * * * * * * * * * * * * * * * * * * * * * * //

dimensions      [1 0 -1 0 0 0 0];

internalField   nonuniform List<scalar> 
999
(
2922.08
2922.08
2922.08
2922.08
2922.08
2922.08
2922.08
2922.08
2922.08
2922.08
2922.08
2922.08
2922.08
2922.08
2922.08
2922.08
2922.08
2922.08
2922.08
2922.08
2922.08
2922.08
2922.08
2922.08
2922.08
2922.08
2922.08
2922.08
2922.08
2922.08
2922.08
2922.08
2922.08
2922.08
2922.08
2922.08
2922.08
2922.08
2922.08
2922.08
2922.08
2922.08
2922.08
2922.08
2922.08
2922.08
2922.08
2922.08
2922.08
2922.08
2922.08
2922.08
2922.08
2922.08
2922.08
2922.08
2922.08
2922.08
2922.08
2922.08
2922.08
2922.08
2922.08
2922.08
2922.08
2922.08
2922.08
2922.08
2922.08
2922.08
2922.08
2922.08
2922.08
2922.08
2922.08
2922.08
2922.08
2922.08
2922.08
2922.08
2922.08
2922.08
2922.08
2922.08
2922.08
2922.08
2922.08
2922.08
2922.08
2922.08
2922.08
2922.08
2922.08
2922.08
2922.08
2922.08
2922.08
2922.08
2922.08
2922.08
2922.08
2922.08
2922.08
2922.08
2922.08
2922.08
2922.08
2922.08
2922.08
2922.08
2922.08
2922.08
2922.08
2922.08
2922.08
2922.08
2922.08
2922.08
2922.08
2922.08
2922.08
2922.08
2922.08
2922.08
2922.08
2922.08
2922.08
2922.08
2922.08
2922.08
2922.08
2922.08
2922.08
2922.08
2922.08
2922.08
2922.08
2922.08
2922.08
2922.08
2922.08
2922.08
2922.08
2922.08
2922.08
2922.08
2922.08
2922.08
2922.08
2922.08
2922.08
2922.08
2922.08
2922.08
2922.08
2922.08
2922.08
2922.08
2922.08
2922.08
2922.08
2922.08
2922.08
2922.08
2922.08
2922.08
2922.08
2922.08
2922.08
2922.08
2922.08
2922.08
2922.08
2922.08
2922.08
2922.08
2922.08
2922.08
2922.08
2922.08
2922.08
2922.08
2922.08
2922.08
2922.08
2922.08
2922.08
2922.08
2922.08
2922.08
2922.08
2922.08
2922.08
2922.08
2922.08
2922.08
2922.08
2922.08
2922.08
2922.08
2922.08
2922.08
2922.08
2922.08
2922.08
2922.08
2922.08
2922.08
2922.08
2922.08
2922.08
2922.08
2922.08
2922.08
2922.08
2922.08
2922.08
2922.08
2922.08
2922.08
2922.08
2922.08
2922.08
2922.08
2922.08
2922.08
2922.08
2922.08
2922.08
2922.08
2922.08
2922.08
2922.08
2922.08
2922.08
2922.08
2922.08
2922.08
2922.08
2922.08
2922.08
2922.08
2922.08
2922.08
2922.08
2922.08
2922.08
2922.08
2922.08
2922.08
2922.08
2922.08
2922.08
2922.08
2922.08
2922.08
2922.08
2922.08
2922.08
2922.08
2922.08
2922.08
2922.08
2922.08
2922.08
2922.08
2922.08
2922.08
2922.08
2922.08
2922.08
2922.08
2922.08
2922.08
2922.08
2922.08
2922.08
2922.08
2922.08
2922.08
2922.08
2922.08
2922.08
2922.08
2922.08
2922.08
2922.08
2922.08
2922.08
2922.08
2922.08
2922.08
2922.08
2922.08
2922.08
2922.08
2922.08
2922.08
2922.08
2922.08
2922.08
2922.08
2922.08
2922.08
2922.08
2922.08
2922.08
2922.08
2922.08
2922.08
2922.08
2922.08
2922.08
2922.08
2922.08
2922.08
2922.08
2922.08
2922.08
2922.08
2922.08
2922.08
2922.08
2922.08
2922.08
2922.08
2922.08
2922.08
2922.08
2922.08
2922.08
2922.08
2922.08
2922.08
2922.08
2922.08
2922.08
2922.08
2922.08
2922.08
2922.08
2922.08
2922.08
2922.08
2922.08
2922.08
2922.08
2922.08
2922.08
2922.08
2922.08
2922.08
2922.08
2922.08
2922.08
2922.08
2922.08
2922.08
2922.08
2922.08
2922.08
2922.08
2922.08
2922.08
2922.08
2922.08
2922.08
2922.08
2922.08
2922.08
2922.08
2922.08
2922.08
2922.08
2922.08
2922.08
2922.08
2922.08
2922.08
2922.08
2922.08
2922.08
2922.08
2922.08
2922.08
2922.08
2922.08
2922.08
2922.08
2922.08
2922.08
2922.08
2922.08
2922.08
2922.08
2922.08
2922.08
2922.08
2922.08
2922.08
2922.08
2922.08
2922.08
2922.08
2922.08
2922.08
2922.08
2922.08
2922.08
2922.08
2922.08
2922.08
2922.08
2922.08
2922.08
2922.08
2922.08
2922.08
2922.08
2922.08
2922.08
2922.08
2922.08
2922.08
2922.08
2922.08
2922.08
2922.08
2922.08
2922.08
2922.08
2922.08
2922.08
2922.08
2922.08
2922.08
2922.08
2922.08
2922.08
2922.08
2922.08
2922.08
2922.08
2922.08
2922.08
2922.08
2922.08
2922.08
2922.08
2922.08
2922.08
2922.08
2922.08
2922.08
2922.08
2922.08
2922.08
2922.08
2922.08
2922.08
2922.08
2922.08
2922.08
2922.08
2922.08
2922.08
2922.08
2922.08
2922.08
2922.08
2922.08
2922.08
2922.08
2922.08
2922.08
2922.08
2922.08
2922.08
2922.08
2922.08
2922.08
2922.08
2922.08
2922.08
2922.08
2922.08
2922.08
2922.08
2922.08
2922.08
2922.08
2922.08
2922.08
2922.08
2922.08
2922.07
2922.07
2922.07
2922.07
2922.07
2922.07
2922.06
2922.06
2922.05
2922.04
2922.03
2922.02
2922
2921.98
2921.95
2921.92
2921.87
2921.82
2921.75
2921.66
2921.55
2921.41
2921.24
2921.02
2920.75
2920.42
2920.01
2919.51
2918.88
2918.11
2917.17
2916.01
2914.6
2912.87
2910.77
2908.21
2905.11
2901.36
2896.83
2891.37
2884.81
2876.95
2867.53
2856.3
2842.93
2827.07
2808.32
2786.2
2760.23
2729.86
2694.49
2653.51
2606.29
2552.22
2490.71
2421.27
2343.53
2257.3
2162.59
2059.7
1949.24
1832.13
1709.59
1583.17
1454.57
1325.67
1198.36
1074.46
955.594
843.149
738.199
641.487
553.43
474.145
403.496
341.139
286.58
239.224
198.419
163.49
133.775
108.637
87.4854
69.7806
55.0386
42.8322
32.7893
24.5899
17.9618
12.6762
8.54097
5.39517
3.10103
1.536
0.584079
0.127457
0.0389006
0.139696
0.25252
0.350739
0.430629
0.493793
0.543329
0.581171
0.609322
0.629659
0.643735
0.652839
0.657951
0.659854
0.659239
0.656712
0.652759
0.647741
0.641931
0.635547
0.628768
0.621732
0.61454
0.607271
0.599996
0.592773
0.585644
0.578631
0.571742
0.56498
0.558354
0.551869
0.545534
0.539351
0.533319
0.527435
0.52169
0.516076
0.510586
0.505216
0.499962
0.494822
0.489794
0.484874
0.480058
0.475339
0.470715
0.466182
0.461739
0.457381
0.453108
0.448917
0.444802
0.440762
0.436791
0.432889
0.429052
0.425279
0.421569
0.417921
0.414333
0.410803
0.40733
0.403911
0.400544
0.397227
0.393959
0.390737
0.38756
0.384428
0.38134
0.378294
0.37529
0.372328
0.369406
0.366525
0.363682
0.360877
0.358109
0.355376
0.352678
0.350012
0.34738
0.344778
0.342208
0.339669
0.33716
0.334681
0.332232
0.329811
0.327419
0.325054
0.322716
0.320404
0.318117
0.315856
0.313618
0.311404
0.309213
0.307044
0.304898
0.302773
0.30067
0.298587
0.296524
0.294482
0.292458
0.290453
0.288467
0.286499
0.284549
0.282617
0.280702
0.278805
0.276925
0.275063
0.273218
0.27139
0.26958
0.267785
0.266007
0.264246
0.2625
0.260769
0.259054
0.257353
0.255668
0.253998
0.252342
0.2507
0.249073
0.24746
0.24586
0.244274
0.242702
0.241142
0.239594
0.238058
0.236534
0.235022
0.23352
0.23203
0.23055
0.229081
0.227623
0.226175
0.224737
0.223309
0.221891
0.220483
0.219083
0.217693
0.216311
0.214938
0.213573
0.212216
0.210867
0.209526
0.208193
0.206868
0.205551
0.204243
0.202942
0.20165
0.200366
0.199091
0.197824
0.196566
0.195315
0.194073
0.192839
0.191613
0.190394
0.189183
0.18798
0.186784
0.185594
0.184412
0.183237
0.182068
0.180906
0.17975
0.178601
0.177458
0.176321
0.17519
0.174065
0.172946
0.171834
0.170727
0.169627
0.168532
0.167443
0.16636
0.165283
0.164212
0.163146
0.162085
0.16103
0.159979
0.158933
0.157891
0.156853
0.15582
0.154791
0.153765
0.152744
0.151726
0.150712
0.149702
0.148697
0.147695
0.146698
0.145706
0.144718
0.143736
0.142758
0.141785
0.140816
0.139853
0.138894
0.13794
0.13699
0.136045
0.135104
0.134166
0.133233
0.132304
0.131378
0.130457
0.129539
0.128625
0.127716
0.12681
0.125909
0.125012
0.124119
0.123231
0.122347
0.121467
0.120591
0.119719
0.11885
0.117984
0.117121
0.116261
0.115403
0.114546
0.113692
0.112839
0.111989
0.11114
0.110293
0.109448
0.108606
0.107767
0.106932
0.106099
0.105271
0.104446
0.103625
0.102808
0.101995
0.101186
0.100379
0.0995762
0.0987754
0.0979768
0.09718
0.0963848
0.0955907
0.0947978
0.0940059
0.093215
0.0924253
0.0916369
0.0908503
0.0900657
0.0892834
0.0885039
0.0877274
0.0869541
0.0861844
0.0854183
0.0846557
0.0838967
0.0831409
0.0823881
0.0816379
0.0808901
0.0801441
0.0793997
0.0786566
0.0779143
0.0771729
0.0764321
0.0756919
0.0749523
0.0742132
0.0734748
0.0727373
0.0720005
0.0712648
0.0705302
0.0697967
0.0690647
0.0683341
0.067605
0.0668776
0.0661518
0.0654278
0.0647054
0.0639847
0.0632656
0.0625484
0.061833
0.0611196
0.0604085
0.0596999
0.0589942
0.0582915
0.0575922
0.0568962
0.0562036
0.0555141
0.0548273
0.0541426
0.0534592
0.0527761
0.0520926
0.0514078
0.0507213
0.0500329
0.0493428
0.0486516
0.0479599
0.0472681
0.0465763
0.0458844
0.0451923
0.0444931
0.0438994
0.0431136
0.0426018
0.0417651
0.0412987
0.0404326
0.0399036
0.0393899
0.040526
0.0380463
0.0373005
0.0363528
0.0359488
0.0349516
0.0346149
0.0335652
0.0332874
0.032193
0.0319718
0.0308375
0.0306653
0.0294987
0.0293615
0.0281773
0.0280573
0.0268779
0.0267509
0.0256025
0.0254349
0.0243462
0.0240971
0.0231008
0.0227271
0.0218615
0.0213215
0.0206286
0.0198844
0.0194053
0.0184248
0.0181948
0.0169532
0.0169974
0.0154804
0.0158097
0.0140168
0.0146256
0.0125726
0.0134369
0.0111576
0.0122351
0.00978154
0.0110122
0.00845282
0.00976113
0.0071774
0.00847594
0.00595763
0.0071523
0.00479167
0.00578798
0.00367375
0.00438385
0.00259516
0.00294466
0.00154543
0.00147938
0.000512876
)
;

boundaryField
{
    inlet
    {
        type            calculated;
        value           uniform -2922.08;
    }
    backWall
    {
        type            calculated;
        value           uniform 0;
    }
    sides
    {
        type            empty;
        value           nonuniform 0();
    }
}


// ************************************************************************* //
