/*--------------------------------*- C++ -*----------------------------------*\
| =========                 |                                                 |
| \\      /  F ield         | OpenFOAM: The Open Source CFD Toolbox           |
|  \\    /   O peration     | Version:  3.0.x                                 |
|   \\  /    A nd           | Web:      www.OpenFOAM.org                      |
|    \\/     M anipulation  |                                                 |
\*---------------------------------------------------------------------------*/
FoamFile
{
    version     2.0;
    format      ascii;
    class       volVectorField;
    location    "0.007";
    object      U;
}
// * * * * * * * * * * * * * * * * * * * * * * * * * * * * * * * * * * * * * //

dimensions      [0 1 -1 0 0 0 0];

internalField   nonuniform List<vector> 
1000
(
(57.9 0 0)
(57.9 0 0)
(57.9 0 0)
(57.9 0 0)
(57.9 0 0)
(57.9 0 0)
(57.9 0 0)
(57.9 0 0)
(57.9 0 0)
(57.9 0 0)
(57.9 0 0)
(57.9 0 0)
(57.9 0 0)
(57.9 0 0)
(57.9 0 0)
(57.9 0 0)
(57.9 0 0)
(57.9 0 0)
(57.9 0 0)
(57.9 0 0)
(57.9 0 0)
(57.9 0 0)
(57.9 0 0)
(57.9 0 0)
(57.9 0 0)
(57.9 0 0)
(57.9 0 0)
(57.9 0 0)
(57.9 0 0)
(57.9 0 0)
(57.9 0 0)
(57.9 0 0)
(57.9 0 0)
(57.9 0 0)
(57.9 0 0)
(57.9 0 0)
(57.9 0 0)
(57.9 0 0)
(57.9 0 0)
(57.9 0 0)
(57.9 0 0)
(57.9 0 0)
(57.9 0 0)
(57.9 0 0)
(57.9 0 0)
(57.9 0 0)
(57.9 0 0)
(57.9 0 0)
(57.9 0 0)
(57.9 0 0)
(57.9 0 0)
(57.9 0 0)
(57.9 0 0)
(57.9 0 0)
(57.9 0 0)
(57.9 0 0)
(57.9 0 0)
(57.9 0 0)
(57.9 0 0)
(57.9 0 0)
(57.9 0 0)
(57.9 0 0)
(57.9 0 0)
(57.9 0 0)
(57.9 0 0)
(57.9 0 0)
(57.9 0 0)
(57.9 0 0)
(57.9 0 0)
(57.9 0 0)
(57.9 0 0)
(57.9 0 0)
(57.9 0 0)
(57.9 0 0)
(57.9 0 0)
(57.9 0 0)
(57.9 0 0)
(57.9 0 0)
(57.9 0 0)
(57.9 0 0)
(57.9 0 0)
(57.9 0 0)
(57.9 0 0)
(57.9 0 0)
(57.9 0 0)
(57.9 0 0)
(57.9 0 0)
(57.9 0 0)
(57.9 0 0)
(57.9 0 0)
(57.9 0 0)
(57.9 0 0)
(57.9 0 0)
(57.9 0 0)
(57.9 0 0)
(57.9 0 0)
(57.9 0 0)
(57.9 0 0)
(57.9 0 0)
(57.9 0 0)
(57.9 0 0)
(57.9 0 0)
(57.9 0 0)
(57.9 0 0)
(57.9 0 0)
(57.9 0 0)
(57.9 0 0)
(57.9 0 0)
(57.9 0 0)
(57.9 0 0)
(57.9 0 0)
(57.9 0 0)
(57.9 0 0)
(57.9 0 0)
(57.9 0 0)
(57.9 0 0)
(57.9 0 0)
(57.9 0 0)
(57.9 0 0)
(57.9 0 0)
(57.9 0 0)
(57.9 0 0)
(57.9 0 0)
(57.9 0 0)
(57.9 0 0)
(57.9 0 0)
(57.9 0 0)
(57.9 0 0)
(57.9 0 0)
(57.9 0 0)
(57.9 0 0)
(57.9 0 0)
(57.9 0 0)
(57.9 0 0)
(57.9 0 0)
(57.9 0 0)
(57.9 0 0)
(57.9 0 0)
(57.9 0 0)
(57.9 0 0)
(57.9 0 0)
(57.9 0 0)
(57.9 0 0)
(57.9 0 0)
(57.9 0 0)
(57.9 0 0)
(57.9 0 0)
(57.9 0 0)
(57.9 0 0)
(57.9 0 0)
(57.9 0 0)
(57.9 0 0)
(57.9 0 0)
(57.9 0 0)
(57.9 0 0)
(57.9 0 0)
(57.9 0 0)
(57.9 0 0)
(57.9 0 0)
(57.9 0 0)
(57.9 0 0)
(57.9 0 0)
(57.9 0 0)
(57.9 0 0)
(57.9 0 0)
(57.9 0 0)
(57.9 0 0)
(57.9 0 0)
(57.9 0 0)
(57.9 0 0)
(57.9 0 0)
(57.9 0 0)
(57.9 0 0)
(57.9 0 0)
(57.9 0 0)
(57.9 0 0)
(57.9 0 0)
(57.9 0 0)
(57.9 0 0)
(57.9 0 0)
(57.9 0 0)
(57.9 0 0)
(57.9 0 0)
(57.9 0 0)
(57.9 0 0)
(57.9 0 0)
(57.9 0 0)
(57.9 0 0)
(57.9 0 0)
(57.9 0 0)
(57.9 0 0)
(57.9 0 0)
(57.9 0 0)
(57.9 0 0)
(57.9 0 0)
(57.9 0 0)
(57.9 0 0)
(57.9 0 0)
(57.9 0 0)
(57.9 0 0)
(57.9 0 0)
(57.9 0 0)
(57.9 0 0)
(57.9 0 0)
(57.9 0 0)
(57.9 0 0)
(57.9 0 0)
(57.9 0 0)
(57.9 0 0)
(57.9 0 0)
(57.9 0 0)
(57.9 0 0)
(57.9 0 0)
(57.9 0 0)
(57.9 0 0)
(57.9 0 0)
(57.9 0 0)
(57.9 0 0)
(57.9 0 0)
(57.9 0 0)
(57.9 0 0)
(57.9 0 0)
(57.9 0 0)
(57.9 0 0)
(57.9 0 0)
(57.9 0 0)
(57.9 0 0)
(57.9 0 0)
(57.9 0 0)
(57.9 0 0)
(57.9 0 0)
(57.9 0 0)
(57.9 0 0)
(57.9 0 0)
(57.9 0 0)
(57.9 0 0)
(57.9 0 0)
(57.9 0 0)
(57.9 0 0)
(57.9 0 0)
(57.9 0 0)
(57.9 0 0)
(57.9 0 0)
(57.9 0 0)
(57.9 0 0)
(57.9 0 0)
(57.9 0 0)
(57.9 0 0)
(57.9 0 0)
(57.9 0 0)
(57.9 0 0)
(57.9 0 0)
(57.9 0 0)
(57.9 0 0)
(57.9 0 0)
(57.9 0 0)
(57.9 0 0)
(57.9 0 0)
(57.9 0 0)
(57.9 0 0)
(57.9 0 0)
(57.9 0 0)
(57.9 0 0)
(57.9 0 0)
(57.9 0 0)
(57.9 0 0)
(57.9 0 0)
(57.9 0 0)
(57.9 0 0)
(57.9 0 0)
(57.9 0 0)
(57.9 0 0)
(57.9 0 0)
(57.9 0 0)
(57.9 0 0)
(57.9 0 0)
(57.9 0 0)
(57.9 0 0)
(57.9 0 0)
(57.9 0 0)
(57.9 0 0)
(57.9 0 0)
(57.9 0 0)
(57.9 0 0)
(57.9 0 0)
(57.9 0 0)
(57.9 0 0)
(57.9 0 0)
(57.9 0 0)
(57.9 0 0)
(57.9 0 0)
(57.9 0 0)
(57.9 0 0)
(57.9 0 0)
(57.9 0 0)
(57.9 0 0)
(57.9 0 0)
(57.9 0 0)
(57.9 0 0)
(57.9 0 0)
(57.9 0 0)
(57.9 0 0)
(57.9 0 0)
(57.9 0 0)
(57.9 0 0)
(57.9 0 0)
(57.9 0 0)
(57.9 0 0)
(57.9 0 0)
(57.9 0 0)
(57.9 0 0)
(57.9 0 0)
(57.9 0 0)
(57.9 0 0)
(57.9 0 0)
(57.9 0 0)
(57.9 0 0)
(57.9 0 0)
(57.9 0 0)
(57.9 0 0)
(57.9 0 0)
(57.9 0 0)
(57.9 0 0)
(57.9 0 0)
(57.9 0 0)
(57.9 0 0)
(57.9 0 0)
(57.9 0 0)
(57.9 0 0)
(57.9 0 0)
(57.9 0 0)
(57.9 0 0)
(57.9 0 0)
(57.9 0 0)
(57.9 0 0)
(57.9 0 0)
(57.9 0 0)
(57.9 0 0)
(57.9 0 0)
(57.9 0 0)
(57.9 0 0)
(57.9 0 0)
(57.9 0 0)
(57.9 0 0)
(57.9 0 0)
(57.9 0 0)
(57.9 0 0)
(57.9 0 0)
(57.9 0 0)
(57.9 0 0)
(57.9 0 0)
(57.9 0 0)
(57.9 0 0)
(57.9 0 0)
(57.9 0 0)
(57.9 0 0)
(57.9 0 0)
(57.9 0 0)
(57.9 0 0)
(57.9 0 0)
(57.9 0 0)
(57.9 0 0)
(57.9 0 0)
(57.9 0 0)
(57.9 0 0)
(57.9 0 0)
(57.9 0 0)
(57.9 0 0)
(57.9 0 0)
(57.9 0 0)
(57.9 0 0)
(57.9 0 0)
(57.9 0 0)
(57.9 0 0)
(57.9 0 0)
(57.9 0 0)
(57.9 0 0)
(57.9 0 0)
(57.9 0 0)
(57.9 0 0)
(57.9 0 0)
(57.9 0 0)
(57.9 0 0)
(57.9 0 0)
(57.9 0 0)
(57.9 0 0)
(57.9 0 0)
(57.9 0 0)
(57.9 0 0)
(57.9 0 0)
(57.9 0 0)
(57.9 0 0)
(57.9 0 0)
(57.9 0 0)
(57.9 0 0)
(57.9 0 0)
(57.9 0 0)
(57.9 0 0)
(57.9 0 0)
(57.9 0 0)
(57.9 0 0)
(57.9 0 0)
(57.9 0 0)
(57.9 0 0)
(57.9 0 0)
(57.9 0 0)
(57.9 0 0)
(57.9 0 0)
(57.9 0 0)
(57.9 0 0)
(57.9 0 0)
(57.9 0 0)
(57.9 0 0)
(57.9 0 0)
(57.9 0 0)
(57.9 0 0)
(57.9 0 0)
(57.9 0 0)
(57.9 0 0)
(57.9 0 0)
(57.9 0 0)
(57.9 0 0)
(57.9 0 0)
(57.9 0 0)
(57.9 0 0)
(57.9 0 0)
(57.9 0 0)
(57.9 0 0)
(57.9 0 0)
(57.9 0 0)
(57.9 0 0)
(57.9 0 0)
(57.9 0 0)
(57.9 0 0)
(57.9 0 0)
(57.9 0 0)
(57.9 0 0)
(57.9 0 0)
(57.9 0 0)
(57.9 0 0)
(57.9 0 0)
(57.9 0 0)
(57.9 0 0)
(57.9 0 0)
(57.9 0 0)
(57.9 0 0)
(57.9 0 0)
(57.9 0 0)
(57.9 0 0)
(57.9 0 0)
(57.9 0 0)
(57.9 0 0)
(57.9 0 0)
(57.9 0 0)
(57.9 0 0)
(57.9 0 0)
(57.9 0 0)
(57.9 0 0)
(57.9 0 0)
(57.9 0 0)
(57.9 0 0)
(57.9 0 0)
(57.9 0 0)
(57.9 0 0)
(57.9 0 0)
(57.9 0 0)
(57.9 0 0)
(57.9 0 0)
(57.9 0 0)
(57.9 0 0)
(57.9 0 0)
(57.9 0 0)
(57.9 0 0)
(57.9 0 0)
(57.9 0 0)
(57.9 0 0)
(57.9 0 0)
(57.9 0 0)
(57.9 0 0)
(57.9 0 0)
(57.9 0 0)
(57.9 0 0)
(57.9 0 0)
(57.9 0 0)
(57.9 0 0)
(57.9 0 0)
(57.9 0 0)
(57.9 0 0)
(57.9 0 0)
(57.9 0 0)
(57.9 0 0)
(57.9 0 0)
(57.9 0 0)
(57.9 0 0)
(57.9 0 0)
(57.8999 0 0)
(57.8999 0 0)
(57.8999 0 0)
(57.8999 0 0)
(57.8998 0 0)
(57.8998 0 0)
(57.8997 0 0)
(57.8996 0 0)
(57.8995 0 0)
(57.8993 0 0)
(57.8991 0 0)
(57.8988 0 0)
(57.8985 0 0)
(57.8981 0 0)
(57.8976 0 0)
(57.8969 0 0)
(57.896 0 0)
(57.8949 0 0)
(57.8936 0 0)
(57.8919 0 0)
(57.8897 0 0)
(57.887 0 0)
(57.8837 0 0)
(57.8795 0 0)
(57.8742 0 0)
(57.8677 0 0)
(57.8597 0 0)
(57.8498 0 0)
(57.8375 0 0)
(57.8224 0 0)
(57.8038 0 0)
(57.7811 0 0)
(57.7532 0 0)
(57.7191 0 0)
(57.6777 0 0)
(57.6272 0 0)
(57.566 0 0)
(57.4918 0 0)
(57.4022 0 0)
(57.2941 0 0)
(57.1641 0 0)
(57.008 0 0)
(56.8213 0 0)
(56.5983 0 0)
(56.3327 0 0)
(56.0175 0 0)
(55.6446 0 0)
(55.2048 0 0)
(54.6881 0 0)
(54.0837 0 0)
(53.3799 0 0)
(52.5644 0 0)
(51.6249 0 0)
(50.5491 0 0)
(49.3258 0 0)
(47.9454 0 0)
(46.4008 0 0)
(44.6884 0 0)
(42.8089 0 0)
(40.7687 0 0)
(38.58 0 0)
(36.2611 0 0)
(33.8368 0 0)
(31.3371 0 0)
(28.796 0 0)
(26.2501 0 0)
(23.7364 0 0)
(21.2904 0 0)
(18.9439 0 0)
(16.7239 0 0)
(14.6512 0 0)
(12.7403 0 0)
(10.9995 0 0)
(9.43103 0 0)
(8.03226 0 0)
(6.79656 0 0)
(5.71435 0 0)
(4.77402 0 0)
(3.96287 0 0)
(3.26774 0 0)
(2.67564 0 0)
(2.17415 0 0)
(1.75166 0 0)
(1.39759 0 0)
(1.10241 0 0)
(0.857726 0 0)
(0.656206 0 0)
(0.491543 0 0)
(0.358368 0 0)
(0.252156 0 0)
(0.169106 0 0)
(0.106013 0 0)
(0.0601176 0 0)
(0.02894 0 0)
(0.0101028 0 0)
(0.00115839 0 0)
(-0.000726337 0 0)
(0.000931011 0 0)
(0.00321268 0 0)
(0.00520076 0 0)
(0.0068734 0 0)
(0.00817724 0 0)
(0.00921398 0 0)
(0.0100203 0 0)
(0.0106277 0 0)
(0.0110825 0 0)
(0.0113899 0 0)
(0.0116071 0 0)
(0.0117438 0 0)
(0.0118125 0 0)
(0.0118271 0 0)
(0.0117932 0 0)
(0.0117517 0 0)
(0.01167 0 0)
(0.0115656 0 0)
(0.0114705 0 0)
(0.0113365 0 0)
(0.0112312 0 0)
(0.011104 0 0)
(0.0109554 0 0)
(0.0108527 0 0)
(0.0107039 0 0)
(0.0105761 0 0)
(0.0104706 0 0)
(0.0103125 0 0)
(0.010218 0 0)
(0.0101022 0 0)
(0.00995329 0 0)
(0.00987646 0 0)
(0.00973653 0 0)
(0.00963176 0 0)
(0.00955446 0 0)
(0.00940268 0 0)
(0.00933451 0 0)
(0.00924016 0 0)
(0.00910686 0 0)
(0.00905604 0 0)
(0.00893054 0 0)
(0.00884379 0 0)
(0.00879275 0 0)
(0.00864763 0 0)
(0.00859849 0 0)
(0.00852269 0 0)
(0.0083994 0 0)
(0.00836717 0 0)
(0.00825812 0 0)
(0.00817793 0 0)
(0.00814267 0 0)
(0.00801604 0 0)
(0.00797094 0 0)
(0.0079111 0 0)
(0.00779984 0 0)
(0.00777646 0 0)
(0.00768571 0 0)
(0.00760449 0 0)
(0.00757817 0 0)
(0.00747601 0 0)
(0.00742622 0 0)
(0.00737446 0 0)
(0.00728654 0 0)
(0.00725743 0 0)
(0.00718429 0 0)
(0.00710636 0 0)
(0.00708089 0 0)
(0.00700502 0 0)
(0.00694453 0 0)
(0.00690179 0 0)
(0.00683591 0 0)
(0.00679288 0 0)
(0.00673433 0 0)
(0.00667359 0 0)
(0.00663164 0 0)
(0.00658341 0 0)
(0.00651949 0 0)
(0.00647614 0 0)
(0.00643628 0 0)
(0.0063743 0 0)
(0.00633044 0 0)
(0.00628855 0 0)
(0.0062286 0 0)
(0.0061956 0 0)
(0.00614998 0 0)
(0.00608488 0 0)
(0.00606981 0 0)
(0.00600895 0 0)
(0.00595674 0 0)
(0.00594325 0 0)
(0.00586345 0 0)
(0.00584229 0 0)
(0.0058172 0 0)
(0.00572964 0 0)
(0.00573028 0 0)
(0.00568828 0 0)
(0.00561102 0 0)
(0.00561782 0 0)
(0.00554976 0 0)
(0.0055062 0 0)
(0.00551346 0 0)
(0.00541 0 0)
(0.00541484 0 0)
(0.00540228 0 0)
(0.00528858 0 0)
(0.00531957 0 0)
(0.00526694 0 0)
(0.00519425 0 0)
(0.00522162 0 0)
(0.00513591 0 0)
(0.00510791 0 0)
(0.00511939 0 0)
(0.00501723 0 0)
(0.00502095 0 0)
(0.0050103 0 0)
(0.0049074 0 0)
(0.00494369 0 0)
(0.00489807 0 0)
(0.00481129 0 0)
(0.00485346 0 0)
(0.00478163 0 0)
(0.00473455 0 0)
(0.00474659 0 0)
(0.00467963 0 0)
(0.00465966 0 0)
(0.00464772 0 0)
(0.00458039 0 0)
(0.00457745 0 0)
(0.00456177 0 0)
(0.0044812 0 0)
(0.00449565 0 0)
(0.00448009 0 0)
(0.00439237 0 0)
(0.0044123 0 0)
(0.00438768 0 0)
(0.0043097 0 0)
(0.00433228 0 0)
(0.0042933 0 0)
(0.00423106 0 0)
(0.00425697 0 0)
(0.00420334 0 0)
(0.00415451 0 0)
(0.00418465 0 0)
(0.00410832 0 0)
(0.0040888 0 0)
(0.00411216 0 0)
(0.00400904 0 0)
(0.0040333 0 0)
(0.00404687 0 0)
(0.00391133 0 0)
(0.00397762 0 0)
(0.00397168 0 0)
(0.00383434 0 0)
(0.00390812 0 0)
(0.00387512 0 0)
(0.00377405 0 0)
(0.00384111 0 0)
(0.00378196 0 0)
(0.00371299 0 0)
(0.00377519 0 0)
(0.00369524 0 0)
(0.00365667 0 0)
(0.00369488 0 0)
(0.00361071 0 0)
(0.00360814 0 0)
(0.00361748 0 0)
(0.00352674 0 0)
(0.00356222 0 0)
(0.00355245 0 0)
(0.0034486 0 0)
(0.00350347 0 0)
(0.00349106 0 0)
(0.00337809 0 0)
(0.00343843 0 0)
(0.00342861 0 0)
(0.00331732 0 0)
(0.00337203 0 0)
(0.00335005 0 0)
(0.00326034 0 0)
(0.0033087 0 0)
(0.00328124 0 0)
(0.00319734 0 0)
(0.00325237 0 0)
(0.00322715 0 0)
(0.0031303 0 0)
(0.00319044 0 0)
(0.00316317 0 0)
(0.00307453 0 0)
(0.00312792 0 0)
(0.00308893 0 0)
(0.00302513 0 0)
(0.00308011 0 0)
(0.0030191 0 0)
(0.00297176 0 0)
(0.00302895 0 0)
(0.00295638 0 0)
(0.0029171 0 0)
(0.00296595 0 0)
(0.00289224 0 0)
(0.00287239 0 0)
(0.00289378 0 0)
(0.00282258 0 0)
(0.00283602 0 0)
(0.00283395 0 0)
(0.00275895 0 0)
(0.00278697 0 0)
(0.0027795 0 0)
(0.00270369 0 0)
(0.00273002 0 0)
(0.00272517 0 0)
(0.00266897 0 0)
(0.00265552 0 0)
(0.00265879 0 0)
(0.00262989 0 0)
(0.00259322 0 0)
(0.00260328 0 0)
(0.00257479 0 0)
(0.00254003 0 0)
(0.00256328 0 0)
(0.0025101 0 0)
(0.00249294 0 0)
(0.00254064 0 0)
(0.00245824 0 0)
(0.00243727 0 0)
(0.00248777 0 0)
(0.00241293 0 0)
(0.00238143 0 0)
(0.00243394 0 0)
(0.00236219 0 0)
(0.00233765 0 0)
(0.00236404 0 0)
(0.0023052 0 0)
(0.00230579 0 0)
(0.00230424 0 0)
(0.0022562 0 0)
(0.00225443 0 0)
(0.00225499 0 0)
(0.00221565 0 0)
(0.00219705 0 0)
(0.0022048 0 0)
(0.00219609 0 0)
(0.00212598 0 0)
(0.00215443 0 0)
(0.00216586 0 0)
(0.00206513 0 0)
(0.00211467 0 0)
(0.00211426 0 0)
(0.00203064 0 0)
(0.0020576 0 0)
(0.00207416 0 0)
(0.00199258 0 0)
(0.00200819 0 0)
(0.0020254 0 0)
(0.00194164 0 0)
(0.00197747 0 0)
(0.00196048 0 0)
(0.00190018 0 0)
(0.00193724 0 0)
(0.00190704 0 0)
(0.00186606 0 0)
(0.00187932 0 0)
(0.00186899 0 0)
(0.00183919 0 0)
(0.00181363 0 0)
(0.00183928 0 0)
(0.00179323 0 0)
(0.00177166 0 0)
(0.00178271 0 0)
(0.00176463 0 0)
(0.0017349 0 0)
(0.00171654 0 0)
(0.00174304 0 0)
(0.0016892 0 0)
(0.00166846 0 0)
(0.00169494 0 0)
(0.00166312 0 0)
(0.00160111 0 0)
(0.00166445 0 0)
(0.00161177 0 0)
(0.00156416 0 0)
(0.00162793 0 0)
(0.00155891 0 0)
(0.00153726 0 0)
(0.00157781 0 0)
(0.00151545 0 0)
(0.0015146 0 0)
(0.00150393 0 0)
(0.00150324 0 0)
(0.00147053 0 0)
(0.00145231 0 0)
(0.00147497 0 0)
(0.00141002 0 0)
(0.00145398 0 0)
(0.00139268 0 0)
(0.00138855 0 0)
(0.00140453 0 0)
(0.00135363 0 0)
(0.00135222 0 0)
(0.00135564 0 0)
(0.00132798 0 0)
(0.00129313 0 0)
(0.00133012 0 0)
(0.00127959 0 0)
(0.00125448 0 0)
(0.00129414 0 0)
(0.00123182 0 0)
(0.00122757 0 0)
(0.00123692 0 0)
(0.00120796 0 0)
(0.00117808 0 0)
(0.00119897 0 0)
(0.00117251 0 0)
(0.00112448 0 0)
(0.00118941 0 0)
(0.00109744 0 0)
(0.0011235 0 0)
(0.00111548 0 0)
(0.00107949 0 0)
(0.00108994 0 0)
(0.00106377 0 0)
(0.00105487 0 0)
(0.00104775 0 0)
(0.00101922 0 0)
(0.00102351 0 0)
(0.00100888 0 0)
(0.000962231 0 0)
(0.00101719 0 0)
(0.000931325 0 0)
(0.000986218 0 0)
(0.000914492 0 0)
(0.00095016 0 0)
(0.000906592 0 0)
(0.000892781 0 0)
(0.000910204 0 0)
(0.00086342 0 0)
(0.000882266 0 0)
(0.000834567 0 0)
(0.000866358 0 0)
(0.000800094 0 0)
(0.000874404 0 0)
(0.000574516 0 0)
(0.0013467 0 0)
(-0.000261829 0 0)
(0.00243254 0 0)
(-0.00167611 0 0)
(0.00406412 0 0)
(-0.00360338 0 0)
(0.0061802 0 0)
(-0.00598852 0 0)
(0.00873636 0 0)
(-0.00884394 0 0)
(0.0119198 0 0)
(-0.0125955 0 0)
(0.0162042 0 0)
(-0.0175858 0 0)
(0.0218796 0 0)
(-0.0241316 0 0)
(0.0292909 0 0)
(-0.0326068 0 0)
(0.0388392 0 0)
(-0.043438 0 0)
(0.0509749 0 0)
(-0.0570976 0 0)
(0.06619 0 0)
(-0.074094 0 0)
(0.0850052 0 0)
(-0.0949559 0 0)
(0.107952 0 0)
(-0.120211 0 0)
(0.135547 0 0)
(-0.150358 0 0)
(0.168262 0 0)
(-0.185833 0 0)
(0.206487 0 0)
(-0.226973 0 0)
(0.250496 0 0)
(-0.273975 0 0)
(0.300398 0 0)
(-0.326853 0 0)
(0.356105 0 0)
(-0.385406 0 0)
(0.417294 0 0)
(-0.449181 0 0)
(0.483379 0 0)
(-0.517457 0 0)
(0.553498 0 0)
(-0.589229 0 0)
(0.62651 0 0)
(-0.663225 0 0)
(0.701012 0 0)
(-0.73792 0 0)
(0.775373 0 0)
(-0.811587 0 0)
(0.847784 0 0)
(-0.882354 0 0)
(0.916329 0 0)
(-0.948281 0 0)
(0.979063 0 0)
(-1.00744 0 0)
(1.0341 0 0)
(-1.05802 0 0)
(1.07973 0 0)
(-1.09841 0 0)
(1.11445 0 0)
(-1.12727 0 0)
(1.13712 0 0)
(-1.14364 0 0)
(1.14696 0 0)
)
;

boundaryField
{
    inlet
    {
        type            fixedValue;
        value           uniform (57.9 0 0);
    }
    backWall
    {
        type            fixedValue;
        value           uniform (0 0 0);
    }
    sides
    {
        type            empty;
    }
}


// ************************************************************************* //
