/*--------------------------------*- C++ -*----------------------------------*\
| =========                 |                                                 |
| \\      /  F ield         | OpenFOAM: The Open Source CFD Toolbox           |
|  \\    /   O peration     | Version:  3.0.x                                 |
|   \\  /    A nd           | Web:      www.OpenFOAM.org                      |
|    \\/     M anipulation  |                                                 |
\*---------------------------------------------------------------------------*/
FoamFile
{
    version     2.0;
    format      ascii;
    class       volScalarField;
    location    "0.47";
    object      p;
}
// * * * * * * * * * * * * * * * * * * * * * * * * * * * * * * * * * * * * * //

dimensions      [1 -1 -2 0 0 0 0];

internalField   nonuniform List<scalar> 
13800
(
1.80187e+07
1.80187e+07
1.80187e+07
1.80187e+07
1.80187e+07
1.80187e+07
1.80187e+07
1.80187e+07
1.80187e+07
1.80188e+07
1.80188e+07
1.80188e+07
1.80188e+07
1.80189e+07
1.80189e+07
1.80189e+07
1.8019e+07
1.8019e+07
1.80191e+07
1.80191e+07
1.80192e+07
1.80192e+07
1.80193e+07
1.80193e+07
1.80194e+07
1.80195e+07
1.80196e+07
1.80196e+07
1.80197e+07
1.80198e+07
1.80199e+07
1.802e+07
1.80201e+07
1.80203e+07
1.80204e+07
1.80205e+07
1.80207e+07
1.80208e+07
1.8021e+07
1.80211e+07
1.80213e+07
1.80215e+07
1.80217e+07
1.80219e+07
1.80221e+07
1.80223e+07
1.80226e+07
1.80228e+07
1.80231e+07
1.80233e+07
1.80236e+07
1.80239e+07
1.80242e+07
1.80246e+07
1.80249e+07
1.80252e+07
1.80256e+07
1.8026e+07
1.80264e+07
1.80268e+07
1.80272e+07
1.80277e+07
1.80281e+07
1.80286e+07
1.80291e+07
1.80296e+07
1.80301e+07
1.80307e+07
1.80312e+07
1.80318e+07
1.80324e+07
1.80331e+07
1.80337e+07
1.80344e+07
1.80351e+07
1.80358e+07
1.80365e+07
1.80372e+07
1.8038e+07
1.80388e+07
1.80396e+07
1.80405e+07
1.80413e+07
1.80422e+07
1.80431e+07
1.80441e+07
1.8045e+07
1.8046e+07
1.8047e+07
1.8048e+07
1.80491e+07
1.80502e+07
1.80513e+07
1.80524e+07
1.80536e+07
1.80548e+07
1.8056e+07
1.80572e+07
1.80585e+07
1.80598e+07
1.80611e+07
1.80624e+07
1.80638e+07
1.80652e+07
1.80666e+07
1.80681e+07
1.80695e+07
1.80711e+07
1.80726e+07
1.80742e+07
1.80758e+07
1.80774e+07
1.8079e+07
1.80807e+07
1.80824e+07
1.80842e+07
1.80859e+07
1.80877e+07
1.80896e+07
1.80914e+07
1.80933e+07
1.80952e+07
1.80972e+07
1.80992e+07
1.81012e+07
1.81032e+07
1.81053e+07
1.81074e+07
1.81095e+07
1.81117e+07
1.81139e+07
1.81161e+07
1.81183e+07
1.81206e+07
1.81229e+07
1.81253e+07
1.81277e+07
1.81301e+07
1.81325e+07
1.8135e+07
1.81375e+07
1.81401e+07
1.81426e+07
1.81452e+07
1.81479e+07
1.81505e+07
1.81532e+07
1.8156e+07
1.81587e+07
1.81615e+07
1.81644e+07
1.81672e+07
1.81701e+07
1.81731e+07
1.8176e+07
1.8179e+07
1.8182e+07
1.81851e+07
1.81882e+07
1.81913e+07
1.81945e+07
1.81977e+07
1.82009e+07
1.82042e+07
1.82074e+07
1.82108e+07
1.82141e+07
1.82175e+07
1.82209e+07
1.82244e+07
1.82279e+07
1.82314e+07
1.82349e+07
1.82385e+07
1.82422e+07
1.82458e+07
1.82495e+07
1.82532e+07
1.8257e+07
1.82607e+07
1.82645e+07
1.82684e+07
1.82723e+07
1.82762e+07
1.82801e+07
1.82841e+07
1.82881e+07
1.82921e+07
1.82962e+07
1.83003e+07
1.83044e+07
1.83086e+07
1.83128e+07
1.8317e+07
1.83213e+07
1.83255e+07
1.83299e+07
1.83343e+07
1.8339e+07
1.83441e+07
1.80187e+07
1.80187e+07
1.80187e+07
1.80187e+07
1.80187e+07
1.80187e+07
1.80187e+07
1.80187e+07
1.80187e+07
1.80188e+07
1.80188e+07
1.80188e+07
1.80188e+07
1.80189e+07
1.80189e+07
1.80189e+07
1.8019e+07
1.8019e+07
1.80191e+07
1.80191e+07
1.80192e+07
1.80192e+07
1.80193e+07
1.80193e+07
1.80194e+07
1.80195e+07
1.80196e+07
1.80196e+07
1.80197e+07
1.80198e+07
1.80199e+07
1.802e+07
1.80201e+07
1.80203e+07
1.80204e+07
1.80205e+07
1.80207e+07
1.80208e+07
1.8021e+07
1.80211e+07
1.80213e+07
1.80215e+07
1.80217e+07
1.80219e+07
1.80221e+07
1.80223e+07
1.80226e+07
1.80228e+07
1.80231e+07
1.80233e+07
1.80236e+07
1.80239e+07
1.80242e+07
1.80246e+07
1.80249e+07
1.80252e+07
1.80256e+07
1.8026e+07
1.80264e+07
1.80268e+07
1.80272e+07
1.80277e+07
1.80281e+07
1.80286e+07
1.80291e+07
1.80296e+07
1.80301e+07
1.80307e+07
1.80312e+07
1.80318e+07
1.80324e+07
1.80331e+07
1.80337e+07
1.80344e+07
1.80351e+07
1.80358e+07
1.80365e+07
1.80372e+07
1.8038e+07
1.80388e+07
1.80396e+07
1.80405e+07
1.80413e+07
1.80422e+07
1.80431e+07
1.80441e+07
1.8045e+07
1.8046e+07
1.8047e+07
1.8048e+07
1.80491e+07
1.80502e+07
1.80513e+07
1.80524e+07
1.80536e+07
1.80548e+07
1.8056e+07
1.80572e+07
1.80585e+07
1.80598e+07
1.80611e+07
1.80624e+07
1.80638e+07
1.80652e+07
1.80666e+07
1.80681e+07
1.80695e+07
1.80711e+07
1.80726e+07
1.80742e+07
1.80758e+07
1.80774e+07
1.8079e+07
1.80807e+07
1.80824e+07
1.80842e+07
1.80859e+07
1.80877e+07
1.80896e+07
1.80914e+07
1.80933e+07
1.80952e+07
1.80972e+07
1.80992e+07
1.81012e+07
1.81032e+07
1.81053e+07
1.81074e+07
1.81095e+07
1.81117e+07
1.81139e+07
1.81161e+07
1.81183e+07
1.81206e+07
1.81229e+07
1.81253e+07
1.81277e+07
1.81301e+07
1.81325e+07
1.8135e+07
1.81375e+07
1.81401e+07
1.81426e+07
1.81452e+07
1.81479e+07
1.81505e+07
1.81532e+07
1.8156e+07
1.81587e+07
1.81615e+07
1.81644e+07
1.81672e+07
1.81701e+07
1.81731e+07
1.8176e+07
1.8179e+07
1.8182e+07
1.81851e+07
1.81882e+07
1.81913e+07
1.81945e+07
1.81977e+07
1.82009e+07
1.82042e+07
1.82074e+07
1.82108e+07
1.82141e+07
1.82175e+07
1.82209e+07
1.82244e+07
1.82279e+07
1.82314e+07
1.82349e+07
1.82385e+07
1.82422e+07
1.82458e+07
1.82495e+07
1.82532e+07
1.8257e+07
1.82607e+07
1.82645e+07
1.82684e+07
1.82723e+07
1.82762e+07
1.82801e+07
1.82841e+07
1.82881e+07
1.82921e+07
1.82962e+07
1.83003e+07
1.83044e+07
1.83086e+07
1.83128e+07
1.8317e+07
1.83213e+07
1.83255e+07
1.83299e+07
1.83343e+07
1.8339e+07
1.83441e+07
1.80187e+07
1.80187e+07
1.80187e+07
1.80187e+07
1.80187e+07
1.80187e+07
1.80187e+07
1.80187e+07
1.80187e+07
1.80188e+07
1.80188e+07
1.80188e+07
1.80188e+07
1.80189e+07
1.80189e+07
1.80189e+07
1.8019e+07
1.8019e+07
1.80191e+07
1.80191e+07
1.80192e+07
1.80192e+07
1.80193e+07
1.80193e+07
1.80194e+07
1.80195e+07
1.80196e+07
1.80196e+07
1.80197e+07
1.80198e+07
1.80199e+07
1.802e+07
1.80201e+07
1.80203e+07
1.80204e+07
1.80205e+07
1.80207e+07
1.80208e+07
1.8021e+07
1.80211e+07
1.80213e+07
1.80215e+07
1.80217e+07
1.80219e+07
1.80221e+07
1.80223e+07
1.80226e+07
1.80228e+07
1.80231e+07
1.80233e+07
1.80236e+07
1.80239e+07
1.80242e+07
1.80246e+07
1.80249e+07
1.80252e+07
1.80256e+07
1.8026e+07
1.80264e+07
1.80268e+07
1.80272e+07
1.80277e+07
1.80281e+07
1.80286e+07
1.80291e+07
1.80296e+07
1.80301e+07
1.80307e+07
1.80312e+07
1.80318e+07
1.80324e+07
1.80331e+07
1.80337e+07
1.80344e+07
1.80351e+07
1.80358e+07
1.80365e+07
1.80372e+07
1.8038e+07
1.80388e+07
1.80396e+07
1.80405e+07
1.80413e+07
1.80422e+07
1.80431e+07
1.80441e+07
1.8045e+07
1.8046e+07
1.8047e+07
1.8048e+07
1.80491e+07
1.80502e+07
1.80513e+07
1.80524e+07
1.80536e+07
1.80548e+07
1.8056e+07
1.80572e+07
1.80585e+07
1.80598e+07
1.80611e+07
1.80624e+07
1.80638e+07
1.80652e+07
1.80666e+07
1.80681e+07
1.80695e+07
1.80711e+07
1.80726e+07
1.80742e+07
1.80758e+07
1.80774e+07
1.8079e+07
1.80807e+07
1.80824e+07
1.80842e+07
1.80859e+07
1.80877e+07
1.80896e+07
1.80914e+07
1.80933e+07
1.80952e+07
1.80972e+07
1.80992e+07
1.81012e+07
1.81032e+07
1.81053e+07
1.81074e+07
1.81095e+07
1.81117e+07
1.81139e+07
1.81161e+07
1.81183e+07
1.81206e+07
1.81229e+07
1.81253e+07
1.81277e+07
1.81301e+07
1.81325e+07
1.8135e+07
1.81375e+07
1.81401e+07
1.81426e+07
1.81452e+07
1.81479e+07
1.81505e+07
1.81532e+07
1.8156e+07
1.81587e+07
1.81615e+07
1.81644e+07
1.81672e+07
1.81701e+07
1.81731e+07
1.8176e+07
1.8179e+07
1.8182e+07
1.81851e+07
1.81882e+07
1.81913e+07
1.81945e+07
1.81977e+07
1.82009e+07
1.82042e+07
1.82074e+07
1.82108e+07
1.82141e+07
1.82175e+07
1.82209e+07
1.82244e+07
1.82279e+07
1.82314e+07
1.82349e+07
1.82385e+07
1.82422e+07
1.82458e+07
1.82495e+07
1.82532e+07
1.8257e+07
1.82607e+07
1.82645e+07
1.82684e+07
1.82723e+07
1.82762e+07
1.82801e+07
1.82841e+07
1.82881e+07
1.82921e+07
1.82962e+07
1.83003e+07
1.83044e+07
1.83086e+07
1.83128e+07
1.8317e+07
1.83213e+07
1.83255e+07
1.83299e+07
1.83343e+07
1.8339e+07
1.83441e+07
1.80187e+07
1.80187e+07
1.80187e+07
1.80187e+07
1.80187e+07
1.80187e+07
1.80187e+07
1.80187e+07
1.80187e+07
1.80188e+07
1.80188e+07
1.80188e+07
1.80188e+07
1.80189e+07
1.80189e+07
1.80189e+07
1.8019e+07
1.8019e+07
1.80191e+07
1.80191e+07
1.80192e+07
1.80192e+07
1.80193e+07
1.80193e+07
1.80194e+07
1.80195e+07
1.80196e+07
1.80196e+07
1.80197e+07
1.80198e+07
1.80199e+07
1.802e+07
1.80201e+07
1.80203e+07
1.80204e+07
1.80205e+07
1.80207e+07
1.80208e+07
1.8021e+07
1.80211e+07
1.80213e+07
1.80215e+07
1.80217e+07
1.80219e+07
1.80221e+07
1.80223e+07
1.80226e+07
1.80228e+07
1.80231e+07
1.80233e+07
1.80236e+07
1.80239e+07
1.80242e+07
1.80246e+07
1.80249e+07
1.80252e+07
1.80256e+07
1.8026e+07
1.80264e+07
1.80268e+07
1.80272e+07
1.80277e+07
1.80281e+07
1.80286e+07
1.80291e+07
1.80296e+07
1.80301e+07
1.80307e+07
1.80312e+07
1.80318e+07
1.80324e+07
1.80331e+07
1.80337e+07
1.80344e+07
1.80351e+07
1.80358e+07
1.80365e+07
1.80372e+07
1.8038e+07
1.80388e+07
1.80396e+07
1.80405e+07
1.80413e+07
1.80422e+07
1.80431e+07
1.80441e+07
1.8045e+07
1.8046e+07
1.8047e+07
1.8048e+07
1.80491e+07
1.80502e+07
1.80513e+07
1.80524e+07
1.80536e+07
1.80548e+07
1.8056e+07
1.80572e+07
1.80585e+07
1.80598e+07
1.80611e+07
1.80624e+07
1.80638e+07
1.80652e+07
1.80666e+07
1.80681e+07
1.80695e+07
1.80711e+07
1.80726e+07
1.80742e+07
1.80758e+07
1.80774e+07
1.8079e+07
1.80807e+07
1.80824e+07
1.80842e+07
1.80859e+07
1.80877e+07
1.80896e+07
1.80914e+07
1.80933e+07
1.80952e+07
1.80972e+07
1.80992e+07
1.81012e+07
1.81032e+07
1.81053e+07
1.81074e+07
1.81095e+07
1.81117e+07
1.81139e+07
1.81161e+07
1.81183e+07
1.81206e+07
1.81229e+07
1.81253e+07
1.81277e+07
1.81301e+07
1.81325e+07
1.8135e+07
1.81375e+07
1.81401e+07
1.81426e+07
1.81452e+07
1.81479e+07
1.81505e+07
1.81532e+07
1.8156e+07
1.81587e+07
1.81615e+07
1.81644e+07
1.81672e+07
1.81701e+07
1.81731e+07
1.8176e+07
1.8179e+07
1.8182e+07
1.81851e+07
1.81882e+07
1.81913e+07
1.81945e+07
1.81977e+07
1.82009e+07
1.82042e+07
1.82074e+07
1.82108e+07
1.82141e+07
1.82175e+07
1.82209e+07
1.82244e+07
1.82279e+07
1.82314e+07
1.82349e+07
1.82385e+07
1.82422e+07
1.82458e+07
1.82495e+07
1.82532e+07
1.8257e+07
1.82607e+07
1.82645e+07
1.82684e+07
1.82723e+07
1.82762e+07
1.82801e+07
1.82841e+07
1.82881e+07
1.82921e+07
1.82962e+07
1.83003e+07
1.83044e+07
1.83086e+07
1.83128e+07
1.8317e+07
1.83213e+07
1.83255e+07
1.83299e+07
1.83343e+07
1.83389e+07
1.83439e+07
1.80187e+07
1.80187e+07
1.80187e+07
1.80187e+07
1.80187e+07
1.80187e+07
1.80187e+07
1.80187e+07
1.80187e+07
1.80188e+07
1.80188e+07
1.80188e+07
1.80188e+07
1.80189e+07
1.80189e+07
1.80189e+07
1.8019e+07
1.8019e+07
1.80191e+07
1.80191e+07
1.80192e+07
1.80192e+07
1.80193e+07
1.80193e+07
1.80194e+07
1.80195e+07
1.80196e+07
1.80196e+07
1.80197e+07
1.80198e+07
1.80199e+07
1.802e+07
1.80201e+07
1.80203e+07
1.80204e+07
1.80205e+07
1.80207e+07
1.80208e+07
1.8021e+07
1.80211e+07
1.80213e+07
1.80215e+07
1.80217e+07
1.80219e+07
1.80221e+07
1.80223e+07
1.80226e+07
1.80228e+07
1.80231e+07
1.80233e+07
1.80236e+07
1.80239e+07
1.80242e+07
1.80246e+07
1.80249e+07
1.80252e+07
1.80256e+07
1.8026e+07
1.80264e+07
1.80268e+07
1.80272e+07
1.80277e+07
1.80281e+07
1.80286e+07
1.80291e+07
1.80296e+07
1.80301e+07
1.80307e+07
1.80312e+07
1.80318e+07
1.80324e+07
1.80331e+07
1.80337e+07
1.80344e+07
1.80351e+07
1.80358e+07
1.80365e+07
1.80372e+07
1.8038e+07
1.80388e+07
1.80396e+07
1.80405e+07
1.80413e+07
1.80422e+07
1.80431e+07
1.80441e+07
1.8045e+07
1.8046e+07
1.8047e+07
1.8048e+07
1.80491e+07
1.80502e+07
1.80513e+07
1.80524e+07
1.80536e+07
1.80548e+07
1.8056e+07
1.80572e+07
1.80585e+07
1.80598e+07
1.80611e+07
1.80624e+07
1.80638e+07
1.80652e+07
1.80666e+07
1.80681e+07
1.80695e+07
1.80711e+07
1.80726e+07
1.80742e+07
1.80758e+07
1.80774e+07
1.8079e+07
1.80807e+07
1.80824e+07
1.80842e+07
1.80859e+07
1.80877e+07
1.80896e+07
1.80914e+07
1.80933e+07
1.80952e+07
1.80972e+07
1.80992e+07
1.81012e+07
1.81032e+07
1.81053e+07
1.81074e+07
1.81095e+07
1.81117e+07
1.81139e+07
1.81161e+07
1.81183e+07
1.81206e+07
1.81229e+07
1.81253e+07
1.81277e+07
1.81301e+07
1.81325e+07
1.8135e+07
1.81375e+07
1.81401e+07
1.81426e+07
1.81452e+07
1.81479e+07
1.81505e+07
1.81532e+07
1.8156e+07
1.81587e+07
1.81615e+07
1.81644e+07
1.81672e+07
1.81701e+07
1.81731e+07
1.8176e+07
1.8179e+07
1.8182e+07
1.81851e+07
1.81882e+07
1.81913e+07
1.81945e+07
1.81977e+07
1.82009e+07
1.82042e+07
1.82074e+07
1.82108e+07
1.82141e+07
1.82175e+07
1.82209e+07
1.82244e+07
1.82279e+07
1.82314e+07
1.82349e+07
1.82385e+07
1.82422e+07
1.82458e+07
1.82495e+07
1.82532e+07
1.8257e+07
1.82607e+07
1.82645e+07
1.82684e+07
1.82723e+07
1.82762e+07
1.82801e+07
1.82841e+07
1.82881e+07
1.82921e+07
1.82962e+07
1.83003e+07
1.83044e+07
1.83086e+07
1.83128e+07
1.8317e+07
1.83213e+07
1.83255e+07
1.83299e+07
1.83342e+07
1.83387e+07
1.83434e+07
1.80187e+07
1.80187e+07
1.80187e+07
1.80187e+07
1.80187e+07
1.80187e+07
1.80187e+07
1.80187e+07
1.80187e+07
1.80188e+07
1.80188e+07
1.80188e+07
1.80188e+07
1.80189e+07
1.80189e+07
1.80189e+07
1.8019e+07
1.8019e+07
1.80191e+07
1.80191e+07
1.80192e+07
1.80192e+07
1.80193e+07
1.80193e+07
1.80194e+07
1.80195e+07
1.80196e+07
1.80196e+07
1.80197e+07
1.80198e+07
1.80199e+07
1.802e+07
1.80201e+07
1.80203e+07
1.80204e+07
1.80205e+07
1.80207e+07
1.80208e+07
1.8021e+07
1.80211e+07
1.80213e+07
1.80215e+07
1.80217e+07
1.80219e+07
1.80221e+07
1.80223e+07
1.80226e+07
1.80228e+07
1.80231e+07
1.80233e+07
1.80236e+07
1.80239e+07
1.80242e+07
1.80246e+07
1.80249e+07
1.80252e+07
1.80256e+07
1.8026e+07
1.80264e+07
1.80268e+07
1.80272e+07
1.80277e+07
1.80281e+07
1.80286e+07
1.80291e+07
1.80296e+07
1.80301e+07
1.80307e+07
1.80312e+07
1.80318e+07
1.80324e+07
1.80331e+07
1.80337e+07
1.80344e+07
1.80351e+07
1.80358e+07
1.80365e+07
1.80372e+07
1.8038e+07
1.80388e+07
1.80396e+07
1.80405e+07
1.80413e+07
1.80422e+07
1.80431e+07
1.80441e+07
1.8045e+07
1.8046e+07
1.8047e+07
1.8048e+07
1.80491e+07
1.80502e+07
1.80513e+07
1.80524e+07
1.80536e+07
1.80548e+07
1.8056e+07
1.80572e+07
1.80585e+07
1.80598e+07
1.80611e+07
1.80624e+07
1.80638e+07
1.80652e+07
1.80666e+07
1.80681e+07
1.80695e+07
1.80711e+07
1.80726e+07
1.80742e+07
1.80758e+07
1.80774e+07
1.8079e+07
1.80807e+07
1.80824e+07
1.80842e+07
1.80859e+07
1.80877e+07
1.80896e+07
1.80914e+07
1.80933e+07
1.80952e+07
1.80972e+07
1.80992e+07
1.81012e+07
1.81032e+07
1.81053e+07
1.81074e+07
1.81095e+07
1.81117e+07
1.81139e+07
1.81161e+07
1.81183e+07
1.81206e+07
1.81229e+07
1.81253e+07
1.81277e+07
1.81301e+07
1.81325e+07
1.8135e+07
1.81375e+07
1.81401e+07
1.81426e+07
1.81452e+07
1.81479e+07
1.81505e+07
1.81532e+07
1.8156e+07
1.81587e+07
1.81615e+07
1.81644e+07
1.81672e+07
1.81701e+07
1.81731e+07
1.8176e+07
1.8179e+07
1.8182e+07
1.81851e+07
1.81882e+07
1.81913e+07
1.81945e+07
1.81977e+07
1.82009e+07
1.82042e+07
1.82074e+07
1.82108e+07
1.82141e+07
1.82175e+07
1.82209e+07
1.82244e+07
1.82279e+07
1.82314e+07
1.82349e+07
1.82385e+07
1.82422e+07
1.82458e+07
1.82495e+07
1.82532e+07
1.8257e+07
1.82607e+07
1.82645e+07
1.82684e+07
1.82723e+07
1.82762e+07
1.82801e+07
1.82841e+07
1.82881e+07
1.82921e+07
1.82962e+07
1.83003e+07
1.83044e+07
1.83086e+07
1.83128e+07
1.8317e+07
1.83213e+07
1.83255e+07
1.83299e+07
1.83342e+07
1.83385e+07
1.83426e+07
1.80187e+07
1.80187e+07
1.80187e+07
1.80187e+07
1.80187e+07
1.80187e+07
1.80187e+07
1.80187e+07
1.80187e+07
1.80188e+07
1.80188e+07
1.80188e+07
1.80188e+07
1.80189e+07
1.80189e+07
1.80189e+07
1.8019e+07
1.8019e+07
1.80191e+07
1.80191e+07
1.80192e+07
1.80192e+07
1.80193e+07
1.80193e+07
1.80194e+07
1.80195e+07
1.80196e+07
1.80196e+07
1.80197e+07
1.80198e+07
1.80199e+07
1.802e+07
1.80201e+07
1.80203e+07
1.80204e+07
1.80205e+07
1.80207e+07
1.80208e+07
1.8021e+07
1.80211e+07
1.80213e+07
1.80215e+07
1.80217e+07
1.80219e+07
1.80221e+07
1.80223e+07
1.80226e+07
1.80228e+07
1.80231e+07
1.80233e+07
1.80236e+07
1.80239e+07
1.80242e+07
1.80246e+07
1.80249e+07
1.80252e+07
1.80256e+07
1.8026e+07
1.80264e+07
1.80268e+07
1.80272e+07
1.80277e+07
1.80281e+07
1.80286e+07
1.80291e+07
1.80296e+07
1.80301e+07
1.80307e+07
1.80312e+07
1.80318e+07
1.80324e+07
1.80331e+07
1.80337e+07
1.80344e+07
1.80351e+07
1.80358e+07
1.80365e+07
1.80372e+07
1.8038e+07
1.80388e+07
1.80396e+07
1.80405e+07
1.80413e+07
1.80422e+07
1.80431e+07
1.80441e+07
1.8045e+07
1.8046e+07
1.8047e+07
1.8048e+07
1.80491e+07
1.80502e+07
1.80513e+07
1.80524e+07
1.80536e+07
1.80548e+07
1.8056e+07
1.80572e+07
1.80585e+07
1.80598e+07
1.80611e+07
1.80624e+07
1.80638e+07
1.80652e+07
1.80666e+07
1.80681e+07
1.80695e+07
1.80711e+07
1.80726e+07
1.80742e+07
1.80758e+07
1.80774e+07
1.8079e+07
1.80807e+07
1.80824e+07
1.80842e+07
1.80859e+07
1.80877e+07
1.80896e+07
1.80914e+07
1.80933e+07
1.80952e+07
1.80972e+07
1.80992e+07
1.81012e+07
1.81032e+07
1.81053e+07
1.81074e+07
1.81095e+07
1.81117e+07
1.81139e+07
1.81161e+07
1.81183e+07
1.81206e+07
1.81229e+07
1.81253e+07
1.81277e+07
1.81301e+07
1.81325e+07
1.8135e+07
1.81375e+07
1.81401e+07
1.81426e+07
1.81452e+07
1.81479e+07
1.81505e+07
1.81532e+07
1.8156e+07
1.81587e+07
1.81615e+07
1.81644e+07
1.81672e+07
1.81701e+07
1.81731e+07
1.8176e+07
1.8179e+07
1.8182e+07
1.81851e+07
1.81882e+07
1.81913e+07
1.81945e+07
1.81977e+07
1.82009e+07
1.82042e+07
1.82074e+07
1.82108e+07
1.82141e+07
1.82175e+07
1.82209e+07
1.82244e+07
1.82279e+07
1.82314e+07
1.82349e+07
1.82385e+07
1.82422e+07
1.82458e+07
1.82495e+07
1.82532e+07
1.8257e+07
1.82607e+07
1.82645e+07
1.82684e+07
1.82723e+07
1.82762e+07
1.82801e+07
1.82841e+07
1.82881e+07
1.82921e+07
1.82962e+07
1.83003e+07
1.83044e+07
1.83086e+07
1.83128e+07
1.8317e+07
1.83213e+07
1.83255e+07
1.83298e+07
1.83341e+07
1.83382e+07
1.83419e+07
1.80187e+07
1.80187e+07
1.80187e+07
1.80187e+07
1.80187e+07
1.80187e+07
1.80187e+07
1.80187e+07
1.80187e+07
1.80188e+07
1.80188e+07
1.80188e+07
1.80188e+07
1.80189e+07
1.80189e+07
1.80189e+07
1.8019e+07
1.8019e+07
1.80191e+07
1.80191e+07
1.80192e+07
1.80192e+07
1.80193e+07
1.80193e+07
1.80194e+07
1.80195e+07
1.80196e+07
1.80196e+07
1.80197e+07
1.80198e+07
1.80199e+07
1.802e+07
1.80201e+07
1.80203e+07
1.80204e+07
1.80205e+07
1.80207e+07
1.80208e+07
1.8021e+07
1.80211e+07
1.80213e+07
1.80215e+07
1.80217e+07
1.80219e+07
1.80221e+07
1.80223e+07
1.80226e+07
1.80228e+07
1.80231e+07
1.80233e+07
1.80236e+07
1.80239e+07
1.80242e+07
1.80246e+07
1.80249e+07
1.80252e+07
1.80256e+07
1.8026e+07
1.80264e+07
1.80268e+07
1.80272e+07
1.80277e+07
1.80281e+07
1.80286e+07
1.80291e+07
1.80296e+07
1.80301e+07
1.80307e+07
1.80312e+07
1.80318e+07
1.80324e+07
1.80331e+07
1.80337e+07
1.80344e+07
1.80351e+07
1.80358e+07
1.80365e+07
1.80372e+07
1.8038e+07
1.80388e+07
1.80396e+07
1.80405e+07
1.80413e+07
1.80422e+07
1.80431e+07
1.80441e+07
1.8045e+07
1.8046e+07
1.8047e+07
1.8048e+07
1.80491e+07
1.80502e+07
1.80513e+07
1.80524e+07
1.80536e+07
1.80548e+07
1.8056e+07
1.80572e+07
1.80585e+07
1.80598e+07
1.80611e+07
1.80624e+07
1.80638e+07
1.80652e+07
1.80666e+07
1.80681e+07
1.80695e+07
1.80711e+07
1.80726e+07
1.80742e+07
1.80758e+07
1.80774e+07
1.8079e+07
1.80807e+07
1.80824e+07
1.80842e+07
1.80859e+07
1.80877e+07
1.80896e+07
1.80914e+07
1.80933e+07
1.80952e+07
1.80972e+07
1.80992e+07
1.81012e+07
1.81032e+07
1.81053e+07
1.81074e+07
1.81095e+07
1.81117e+07
1.81139e+07
1.81161e+07
1.81183e+07
1.81206e+07
1.81229e+07
1.81253e+07
1.81277e+07
1.81301e+07
1.81325e+07
1.8135e+07
1.81375e+07
1.81401e+07
1.81426e+07
1.81452e+07
1.81479e+07
1.81505e+07
1.81532e+07
1.8156e+07
1.81587e+07
1.81615e+07
1.81644e+07
1.81672e+07
1.81701e+07
1.81731e+07
1.8176e+07
1.8179e+07
1.8182e+07
1.81851e+07
1.81882e+07
1.81913e+07
1.81945e+07
1.81977e+07
1.82009e+07
1.82042e+07
1.82074e+07
1.82108e+07
1.82141e+07
1.82175e+07
1.82209e+07
1.82244e+07
1.82279e+07
1.82314e+07
1.82349e+07
1.82385e+07
1.82422e+07
1.82458e+07
1.82495e+07
1.82532e+07
1.8257e+07
1.82607e+07
1.82645e+07
1.82684e+07
1.82723e+07
1.82762e+07
1.82801e+07
1.82841e+07
1.82881e+07
1.82921e+07
1.82962e+07
1.83003e+07
1.83044e+07
1.83086e+07
1.83128e+07
1.8317e+07
1.83213e+07
1.83255e+07
1.83298e+07
1.83341e+07
1.83381e+07
1.83418e+07
1.80187e+07
1.80187e+07
1.80187e+07
1.80187e+07
1.80187e+07
1.80187e+07
1.80187e+07
1.80187e+07
1.80187e+07
1.80188e+07
1.80188e+07
1.80188e+07
1.80188e+07
1.80189e+07
1.80189e+07
1.80189e+07
1.8019e+07
1.8019e+07
1.80191e+07
1.80191e+07
1.80192e+07
1.80192e+07
1.80193e+07
1.80193e+07
1.80194e+07
1.80195e+07
1.80196e+07
1.80196e+07
1.80197e+07
1.80198e+07
1.80199e+07
1.802e+07
1.80201e+07
1.80203e+07
1.80204e+07
1.80205e+07
1.80207e+07
1.80208e+07
1.8021e+07
1.80211e+07
1.80213e+07
1.80215e+07
1.80217e+07
1.80219e+07
1.80221e+07
1.80223e+07
1.80226e+07
1.80228e+07
1.80231e+07
1.80233e+07
1.80236e+07
1.80239e+07
1.80242e+07
1.80246e+07
1.80249e+07
1.80252e+07
1.80256e+07
1.8026e+07
1.80264e+07
1.80268e+07
1.80272e+07
1.80277e+07
1.80281e+07
1.80286e+07
1.80291e+07
1.80296e+07
1.80301e+07
1.80307e+07
1.80312e+07
1.80318e+07
1.80324e+07
1.80331e+07
1.80337e+07
1.80344e+07
1.80351e+07
1.80358e+07
1.80365e+07
1.80372e+07
1.8038e+07
1.80388e+07
1.80396e+07
1.80405e+07
1.80413e+07
1.80422e+07
1.80431e+07
1.80441e+07
1.8045e+07
1.8046e+07
1.8047e+07
1.8048e+07
1.80491e+07
1.80502e+07
1.80513e+07
1.80524e+07
1.80536e+07
1.80548e+07
1.8056e+07
1.80572e+07
1.80585e+07
1.80598e+07
1.80611e+07
1.80624e+07
1.80638e+07
1.80652e+07
1.80666e+07
1.80681e+07
1.80695e+07
1.80711e+07
1.80726e+07
1.80742e+07
1.80758e+07
1.80774e+07
1.8079e+07
1.80807e+07
1.80824e+07
1.80842e+07
1.80859e+07
1.80877e+07
1.80896e+07
1.80914e+07
1.80933e+07
1.80952e+07
1.80972e+07
1.80992e+07
1.81012e+07
1.81032e+07
1.81053e+07
1.81074e+07
1.81095e+07
1.81117e+07
1.81139e+07
1.81161e+07
1.81183e+07
1.81206e+07
1.81229e+07
1.81253e+07
1.81277e+07
1.81301e+07
1.81325e+07
1.8135e+07
1.81375e+07
1.81401e+07
1.81426e+07
1.81452e+07
1.81479e+07
1.81505e+07
1.81532e+07
1.8156e+07
1.81587e+07
1.81615e+07
1.81644e+07
1.81672e+07
1.81701e+07
1.81731e+07
1.8176e+07
1.8179e+07
1.8182e+07
1.81851e+07
1.81882e+07
1.81913e+07
1.81945e+07
1.81977e+07
1.82009e+07
1.82042e+07
1.82074e+07
1.82108e+07
1.82141e+07
1.82175e+07
1.82209e+07
1.82244e+07
1.82279e+07
1.82314e+07
1.82349e+07
1.82385e+07
1.82422e+07
1.82458e+07
1.82495e+07
1.82532e+07
1.8257e+07
1.82607e+07
1.82645e+07
1.82684e+07
1.82723e+07
1.82762e+07
1.82801e+07
1.82841e+07
1.82881e+07
1.82921e+07
1.82962e+07
1.83003e+07
1.83044e+07
1.83086e+07
1.83128e+07
1.8317e+07
1.83213e+07
1.83255e+07
1.83298e+07
1.83341e+07
1.83381e+07
1.83418e+07
1.80187e+07
1.80187e+07
1.80187e+07
1.80187e+07
1.80187e+07
1.80187e+07
1.80187e+07
1.80187e+07
1.80187e+07
1.80188e+07
1.80188e+07
1.80188e+07
1.80188e+07
1.80189e+07
1.80189e+07
1.80189e+07
1.8019e+07
1.8019e+07
1.80191e+07
1.80191e+07
1.80192e+07
1.80192e+07
1.80193e+07
1.80193e+07
1.80194e+07
1.80195e+07
1.80196e+07
1.80196e+07
1.80197e+07
1.80198e+07
1.80199e+07
1.802e+07
1.80201e+07
1.80203e+07
1.80204e+07
1.80205e+07
1.80207e+07
1.80208e+07
1.8021e+07
1.80211e+07
1.80213e+07
1.80215e+07
1.80217e+07
1.80219e+07
1.80221e+07
1.80223e+07
1.80226e+07
1.80228e+07
1.80231e+07
1.80233e+07
1.80236e+07
1.80239e+07
1.80242e+07
1.80246e+07
1.80249e+07
1.80252e+07
1.80256e+07
1.8026e+07
1.80264e+07
1.80268e+07
1.80272e+07
1.80277e+07
1.80281e+07
1.80286e+07
1.80291e+07
1.80296e+07
1.80301e+07
1.80307e+07
1.80312e+07
1.80318e+07
1.80324e+07
1.80331e+07
1.80337e+07
1.80344e+07
1.80351e+07
1.80358e+07
1.80365e+07
1.80372e+07
1.8038e+07
1.80388e+07
1.80396e+07
1.80405e+07
1.80413e+07
1.80422e+07
1.80431e+07
1.80441e+07
1.8045e+07
1.8046e+07
1.8047e+07
1.8048e+07
1.80491e+07
1.80502e+07
1.80513e+07
1.80524e+07
1.80536e+07
1.80548e+07
1.8056e+07
1.80572e+07
1.80585e+07
1.80598e+07
1.80611e+07
1.80624e+07
1.80638e+07
1.80652e+07
1.80666e+07
1.80681e+07
1.80695e+07
1.80711e+07
1.80726e+07
1.80742e+07
1.80758e+07
1.80774e+07
1.8079e+07
1.80807e+07
1.80824e+07
1.80842e+07
1.80859e+07
1.80877e+07
1.80896e+07
1.80914e+07
1.80933e+07
1.80952e+07
1.80972e+07
1.80992e+07
1.81012e+07
1.81032e+07
1.81053e+07
1.81074e+07
1.81095e+07
1.81117e+07
1.81139e+07
1.81161e+07
1.81183e+07
1.81206e+07
1.81229e+07
1.81253e+07
1.81277e+07
1.81301e+07
1.81325e+07
1.8135e+07
1.81375e+07
1.81401e+07
1.81426e+07
1.81452e+07
1.81479e+07
1.81505e+07
1.81532e+07
1.8156e+07
1.81587e+07
1.81615e+07
1.81644e+07
1.81672e+07
1.81701e+07
1.81731e+07
1.8176e+07
1.8179e+07
1.8182e+07
1.81851e+07
1.81882e+07
1.81913e+07
1.81945e+07
1.81977e+07
1.82009e+07
1.82042e+07
1.82074e+07
1.82108e+07
1.82141e+07
1.82175e+07
1.82209e+07
1.82244e+07
1.82279e+07
1.82314e+07
1.82349e+07
1.82385e+07
1.82422e+07
1.82458e+07
1.82495e+07
1.82532e+07
1.8257e+07
1.82607e+07
1.82645e+07
1.82684e+07
1.82723e+07
1.82762e+07
1.82801e+07
1.82841e+07
1.82881e+07
1.82921e+07
1.82962e+07
1.83003e+07
1.83044e+07
1.83086e+07
1.83128e+07
1.8317e+07
1.83213e+07
1.83255e+07
1.83298e+07
1.83341e+07
1.83381e+07
1.83418e+07
1.83529e+07
1.83566e+07
1.83585e+07
1.83595e+07
1.83604e+07
1.83612e+07
1.8362e+07
1.83628e+07
1.83635e+07
1.83642e+07
1.8365e+07
1.83657e+07
1.83664e+07
1.8367e+07
1.83676e+07
1.83681e+07
1.83685e+07
1.83688e+07
1.83688e+07
1.83684e+07
1.83525e+07
1.83558e+07
1.83577e+07
1.83587e+07
1.83595e+07
1.83604e+07
1.83612e+07
1.8362e+07
1.83627e+07
1.83634e+07
1.83641e+07
1.83649e+07
1.83655e+07
1.83662e+07
1.83668e+07
1.83673e+07
1.83677e+07
1.8368e+07
1.8368e+07
1.83676e+07
1.83522e+07
1.83555e+07
1.83575e+07
1.83586e+07
1.83595e+07
1.83603e+07
1.83611e+07
1.83619e+07
1.83626e+07
1.83634e+07
1.83641e+07
1.83648e+07
1.83654e+07
1.83661e+07
1.83667e+07
1.83671e+07
1.83675e+07
1.83677e+07
1.83677e+07
1.83672e+07
1.83505e+07
1.83527e+07
1.83539e+07
1.83547e+07
1.83555e+07
1.83563e+07
1.8357e+07
1.83578e+07
1.83586e+07
1.83593e+07
1.836e+07
1.83608e+07
1.83615e+07
1.83621e+07
1.83628e+07
1.83633e+07
1.83637e+07
1.8364e+07
1.83641e+07
1.83639e+07
1.83484e+07
1.83503e+07
1.83519e+07
1.83534e+07
1.83546e+07
1.83556e+07
1.83565e+07
1.83573e+07
1.83581e+07
1.83588e+07
1.83595e+07
1.83601e+07
1.83606e+07
1.83611e+07
1.83616e+07
1.8362e+07
1.83623e+07
1.83625e+07
1.83627e+07
1.83628e+07
1.83437e+07
1.83437e+07
1.83436e+07
1.83435e+07
1.83435e+07
1.83438e+07
1.83442e+07
1.83448e+07
1.83454e+07
1.83461e+07
1.83469e+07
1.83478e+07
1.83486e+07
1.83496e+07
1.83505e+07
1.83514e+07
1.83523e+07
1.83533e+07
1.83543e+07
1.83555e+07
1.83394e+07
1.8339e+07
1.83396e+07
1.83406e+07
1.83415e+07
1.83423e+07
1.83431e+07
1.83439e+07
1.83446e+07
1.83453e+07
1.8346e+07
1.83466e+07
1.83472e+07
1.83478e+07
1.83485e+07
1.83492e+07
1.83501e+07
1.83511e+07
1.83525e+07
1.83541e+07
1.8333e+07
1.83298e+07
1.83273e+07
1.83257e+07
1.8325e+07
1.83248e+07
1.83248e+07
1.83252e+07
1.83257e+07
1.83265e+07
1.83274e+07
1.83285e+07
1.83297e+07
1.83312e+07
1.83329e+07
1.83347e+07
1.83369e+07
1.83393e+07
1.83422e+07
1.83454e+07
1.83312e+07
1.83278e+07
1.83258e+07
1.83247e+07
1.83243e+07
1.83242e+07
1.83244e+07
1.83247e+07
1.83253e+07
1.83261e+07
1.8327e+07
1.8328e+07
1.83292e+07
1.83306e+07
1.83321e+07
1.83339e+07
1.83359e+07
1.83383e+07
1.83411e+07
1.83444e+07
1.83294e+07
1.83241e+07
1.83212e+07
1.83197e+07
1.8319e+07
1.83187e+07
1.83188e+07
1.83191e+07
1.83197e+07
1.83204e+07
1.83214e+07
1.83225e+07
1.83238e+07
1.83254e+07
1.83271e+07
1.83291e+07
1.83313e+07
1.8334e+07
1.83371e+07
1.83409e+07
1.83649e+07
1.83654e+07
1.83682e+07
1.83716e+07
1.83751e+07
1.83787e+07
1.83824e+07
1.8386e+07
1.83897e+07
1.83935e+07
1.83972e+07
1.8401e+07
1.84047e+07
1.84085e+07
1.84123e+07
1.84161e+07
1.842e+07
1.84238e+07
1.84277e+07
1.84316e+07
1.84355e+07
1.84394e+07
1.84434e+07
1.84473e+07
1.84513e+07
1.84552e+07
1.84592e+07
1.84632e+07
1.84673e+07
1.84713e+07
1.84754e+07
1.84794e+07
1.84835e+07
1.84876e+07
1.84917e+07
1.84958e+07
1.84999e+07
1.85041e+07
1.85082e+07
1.85124e+07
1.85166e+07
1.85208e+07
1.8525e+07
1.85292e+07
1.85334e+07
1.85376e+07
1.85419e+07
1.85461e+07
1.85504e+07
1.85547e+07
1.8559e+07
1.85633e+07
1.85676e+07
1.85719e+07
1.85763e+07
1.85806e+07
1.85849e+07
1.85893e+07
1.85937e+07
1.8598e+07
1.86024e+07
1.86068e+07
1.86112e+07
1.86156e+07
1.862e+07
1.86244e+07
1.86289e+07
1.86333e+07
1.86377e+07
1.86422e+07
1.86466e+07
1.86511e+07
1.86556e+07
1.86601e+07
1.86645e+07
1.8669e+07
1.86735e+07
1.8678e+07
1.86825e+07
1.8687e+07
1.86915e+07
1.8696e+07
1.87005e+07
1.87051e+07
1.87096e+07
1.87141e+07
1.87186e+07
1.87232e+07
1.87277e+07
1.87322e+07
1.87368e+07
1.87413e+07
1.87458e+07
1.87503e+07
1.87549e+07
1.87594e+07
1.87639e+07
1.87684e+07
1.8773e+07
1.87775e+07
1.8782e+07
1.87865e+07
1.8791e+07
1.87955e+07
1.88e+07
1.88045e+07
1.8809e+07
1.88135e+07
1.8818e+07
1.88224e+07
1.88269e+07
1.88314e+07
1.88359e+07
1.88403e+07
1.88448e+07
1.88492e+07
1.88537e+07
1.88581e+07
1.88626e+07
1.8867e+07
1.88714e+07
1.88759e+07
1.88803e+07
1.88847e+07
1.88891e+07
1.88935e+07
1.88979e+07
1.89022e+07
1.89066e+07
1.8911e+07
1.89153e+07
1.89197e+07
1.8924e+07
1.89283e+07
1.89327e+07
1.8937e+07
1.89413e+07
1.89456e+07
1.89498e+07
1.89541e+07
1.89584e+07
1.89626e+07
1.89669e+07
1.89711e+07
1.89753e+07
1.89795e+07
1.89837e+07
1.89879e+07
1.89921e+07
1.89962e+07
1.90004e+07
1.90045e+07
1.90086e+07
1.90127e+07
1.90168e+07
1.90209e+07
1.9025e+07
1.9029e+07
1.90331e+07
1.90371e+07
1.90411e+07
1.90451e+07
1.90491e+07
1.90531e+07
1.90571e+07
1.9061e+07
1.90649e+07
1.90689e+07
1.90728e+07
1.90766e+07
1.90805e+07
1.90844e+07
1.90882e+07
1.9092e+07
1.90958e+07
1.90996e+07
1.91034e+07
1.91072e+07
1.91109e+07
1.91146e+07
1.91183e+07
1.9122e+07
1.91257e+07
1.91293e+07
1.9133e+07
1.91366e+07
1.91402e+07
1.91438e+07
1.91474e+07
1.91509e+07
1.91545e+07
1.9158e+07
1.91615e+07
1.91649e+07
1.91684e+07
1.91719e+07
1.91753e+07
1.91787e+07
1.91821e+07
1.91855e+07
1.83646e+07
1.83654e+07
1.83682e+07
1.83716e+07
1.83751e+07
1.83787e+07
1.83824e+07
1.8386e+07
1.83897e+07
1.83935e+07
1.83972e+07
1.8401e+07
1.84047e+07
1.84085e+07
1.84123e+07
1.84161e+07
1.842e+07
1.84238e+07
1.84277e+07
1.84316e+07
1.84355e+07
1.84394e+07
1.84434e+07
1.84473e+07
1.84513e+07
1.84552e+07
1.84592e+07
1.84632e+07
1.84673e+07
1.84713e+07
1.84754e+07
1.84794e+07
1.84835e+07
1.84876e+07
1.84917e+07
1.84958e+07
1.84999e+07
1.85041e+07
1.85082e+07
1.85124e+07
1.85166e+07
1.85208e+07
1.8525e+07
1.85292e+07
1.85334e+07
1.85376e+07
1.85419e+07
1.85461e+07
1.85504e+07
1.85547e+07