/*--------------------------------*- C++ -*----------------------------------*\
| =========                 |                                                 |
| \\      /  F ield         | OpenFOAM: The Open Source CFD Toolbox           |
|  \\    /   O peration     | Version:  3.0.x                                 |
|   \\  /    A nd           | Web:      www.OpenFOAM.org                      |
|    \\/     M anipulation  |                                                 |
\*---------------------------------------------------------------------------*/
FoamFile
{
    version     2.0;
    format      ascii;
    class       volScalarField;
    location    "0.47";
    object      T;
}
// * * * * * * * * * * * * * * * * * * * * * * * * * * * * * * * * * * * * * //

dimensions      [0 0 0 1 0 0 0];

internalField   nonuniform List<scalar> 
13800
(
773.148
773.148
773.148
773.148
773.148
773.148
773.148
773.148
773.148
773.148
773.148
773.148
773.149
773.149
773.149
773.149
773.149
773.15
773.15
773.15
773.151
773.151
773.151
773.152
773.152
773.153
773.153
773.154
773.155
773.155
773.156
773.157
773.157
773.158
773.159
773.161
773.162
773.163
773.164
773.165
773.166
773.167
773.168
773.169
773.17
773.172
773.174
773.175
773.177
773.179
773.181
773.183
773.186
773.188
773.19
773.191
773.193
773.195
773.198
773.2
773.203
773.206
773.21
773.213
773.217
773.22
773.224
773.228
773.231
773.235
773.239
773.243
773.247
773.252
773.256
773.261
773.266
773.272
773.277
773.283
773.289
773.295
773.301
773.307
773.314
773.321
773.327
773.334
773.342
773.349
773.357
773.364
773.372
773.38
773.389
773.397
773.406
773.415
773.424
773.433
773.442
773.452
773.462
773.472
773.482
773.492
773.503
773.514
773.525
773.536
773.547
773.559
773.571
773.583
773.595
773.608
773.62
773.633
773.646
773.659
773.673
773.687
773.7
773.715
773.729
773.743
773.758
773.773
773.788
773.804
773.82
773.835
773.852
773.868
773.884
773.901
773.918
773.935
773.953
773.97
773.988
774.006
774.025
774.043
774.062
774.081
774.1
774.12
774.14
774.159
774.18
774.2
774.221
774.241
774.263
774.284
774.305
774.327
774.349
774.371
774.394
774.417
774.439
774.463
774.486
774.51
774.533
774.558
774.582
774.606
774.631
774.656
774.681
774.707
774.732
774.758
774.784
774.811
774.837
774.864
774.891
774.918
774.946
774.974
775.002
775.03
775.058
775.087
775.115
775.146
775.172
775.205
775.23
775.266
775.289
775.327
775.349
775.392
775.415
775.51
773.14
773.14
773.14
773.14
773.14
773.14
773.141
773.141
773.141
773.141
773.141
773.141
773.141
773.142
773.142
773.142
773.142
773.143
773.143
773.143
773.144
773.144
773.145
773.145
773.146
773.146
773.147
773.147
773.148
773.149
773.149
773.15
773.151
773.152
773.153
773.154
773.155
773.157
773.158
773.159
773.16
773.161
773.162
773.163
773.164
773.166
773.168
773.169
773.171
773.173
773.175
773.178
773.18
773.182
773.184
773.186
773.188
773.19
773.192
773.195
773.198
773.201
773.204
773.208
773.211
773.215
773.219
773.222
773.226
773.23
773.234
773.238
773.242
773.247
773.252
773.257
773.262
773.267
773.273
773.278
773.284
773.29
773.296
773.303
773.309
773.316
773.323
773.33
773.337
773.344
773.352
773.36
773.367
773.376
773.384
773.392
773.401
773.41
773.419
773.428
773.438
773.447
773.457
773.467
773.477
773.488
773.498
773.509
773.52
773.531
773.543
773.554
773.566
773.578
773.59
773.603
773.615
773.628
773.641
773.655
773.668
773.682
773.696
773.71
773.724
773.739
773.753
773.768
773.784
773.799
773.815
773.831
773.847
773.863
773.88
773.896
773.913
773.93
773.948
773.966
773.983
774.002
774.02
774.038
774.057
774.076
774.096
774.115
774.135
774.155
774.175
774.195
774.216
774.237
774.258
774.279
774.301
774.322
774.344
774.367
774.389
774.412
774.435
774.458
774.481
774.505
774.529
774.553
774.577
774.602
774.626
774.651
774.677
774.702
774.728
774.754
774.78
774.806
774.833
774.859
774.886
774.914
774.941
774.969
774.997
775.025
775.053
775.082
775.11
775.141
775.167
775.2
775.225
775.261
775.284
775.323
775.344
775.388
775.41
775.526
773.14
773.14
773.14
773.14
773.14
773.14
773.141
773.141
773.141
773.141
773.141
773.141
773.141
773.142
773.142
773.142
773.142
773.143
773.143
773.143
773.144
773.144
773.145
773.145
773.146
773.146
773.147
773.147
773.148
773.149
773.149
773.15
773.151
773.152
773.153
773.154
773.155
773.157
773.158
773.159
773.16
773.161
773.162
773.163
773.164
773.166
773.168
773.169
773.171
773.173
773.175
773.178
773.18
773.182
773.184
773.186
773.188
773.19
773.192
773.195
773.198
773.201
773.204
773.208
773.211
773.215
773.219
773.222
773.226
773.23
773.234
773.238
773.242
773.247
773.252
773.257
773.262
773.267
773.273
773.278
773.284
773.29
773.296
773.303
773.309
773.316
773.323
773.33
773.337
773.344
773.352
773.36
773.367
773.376
773.384
773.392
773.401
773.41
773.419
773.428
773.438
773.447
773.457
773.467
773.477
773.488
773.498
773.509
773.52
773.531
773.543
773.554
773.566
773.578
773.59
773.603
773.615
773.628
773.641
773.655
773.668
773.682
773.696
773.71
773.724
773.739
773.753
773.768
773.784
773.799
773.815
773.831
773.847
773.863
773.88
773.896
773.913
773.93
773.948
773.966
773.983
774.002
774.02
774.038
774.057
774.076
774.096
774.115
774.135
774.155
774.175
774.195
774.216
774.237
774.258
774.279
774.301
774.322
774.344
774.367
774.389
774.412
774.435
774.458
774.481
774.505
774.529
774.553
774.577
774.602
774.626
774.651
774.677
774.702
774.728
774.754
774.78
774.806
774.833
774.859
774.886
774.914
774.941
774.969
774.997
775.025
775.053
775.082
775.11
775.141
775.167
775.2
775.225
775.261
775.284
775.323
775.344
775.388
775.409
775.523
773.14
773.14
773.14
773.14
773.14
773.14
773.141
773.141
773.141
773.141
773.141
773.141
773.141
773.142
773.142
773.142
773.142
773.143
773.143
773.143
773.144
773.144
773.145
773.145
773.146
773.146
773.147
773.147
773.148
773.149
773.149
773.15
773.151
773.152
773.153
773.154
773.155
773.157
773.158
773.159
773.16
773.161
773.162
773.163
773.164
773.166
773.168
773.169
773.171
773.173
773.175
773.178
773.18
773.182
773.184
773.186
773.188
773.19
773.192
773.195
773.198
773.201
773.204
773.208
773.211
773.215
773.219
773.222
773.226
773.23
773.234
773.238
773.242
773.247
773.252
773.257
773.262
773.267
773.273
773.278
773.284
773.29
773.296
773.303
773.309
773.316
773.323
773.33
773.337
773.344
773.352
773.36
773.367
773.376
773.384
773.392
773.401
773.41
773.419
773.428
773.438
773.447
773.457
773.467
773.477
773.488
773.498
773.509
773.52
773.531
773.543
773.554
773.566
773.578
773.59
773.603
773.615
773.628
773.641
773.655
773.668
773.682
773.696
773.71
773.724
773.739
773.753
773.768
773.784
773.799
773.815
773.831
773.847
773.863
773.88
773.896
773.913
773.93
773.948
773.966
773.983
774.002
774.02
774.038
774.057
774.076
774.096
774.115
774.135
774.155
774.175
774.195
774.216
774.237
774.258
774.279
774.301
774.322
774.344
774.367
774.389
774.412
774.435
774.458
774.481
774.505
774.529
774.553
774.577
774.602
774.626
774.651
774.677
774.702
774.728
774.754
774.78
774.806
774.833
774.859
774.886
774.914
774.941
774.969
774.997
775.025
775.053
775.082
775.11
775.141
775.167
775.2
775.225
775.261
775.284
775.323
775.344
775.387
775.409
775.497
773.14
773.14
773.14
773.14
773.14
773.141
773.141
773.141
773.141
773.141
773.141
773.141
773.141
773.142
773.142
773.142
773.142
773.143
773.143
773.143
773.144
773.144
773.145
773.145
773.146
773.146
773.147
773.147
773.148
773.149
773.149
773.15
773.151
773.152
773.153
773.154
773.155
773.157
773.158
773.159
773.16
773.161
773.162
773.163
773.164
773.166
773.168
773.169
773.171
773.173
773.175
773.178
773.18
773.182
773.184
773.186
773.188
773.19
773.192
773.195
773.198
773.201
773.204
773.208
773.211
773.215
773.219
773.222
773.226
773.23
773.234
773.238
773.242
773.247
773.252
773.257
773.262
773.267
773.273
773.278
773.284
773.29
773.296
773.303
773.309
773.316
773.323
773.33
773.337
773.344
773.352
773.36
773.367
773.376
773.384
773.392
773.401
773.41
773.419
773.428
773.438
773.447
773.457
773.467
773.477
773.488
773.498
773.509
773.52
773.531
773.543
773.554
773.566
773.578
773.59
773.603
773.615
773.628
773.641
773.655
773.668
773.682
773.696
773.71
773.724
773.739
773.753
773.768
773.784
773.799
773.815
773.831
773.847
773.863
773.88
773.896
773.913
773.93
773.948
773.966
773.983
774.002
774.02
774.038
774.057
774.076
774.096
774.115
774.135
774.155
774.175
774.195
774.216
774.237
774.258
774.279
774.301
774.322
774.344
774.367
774.389
774.412
774.435
774.458
774.481
774.505
774.529
774.553
774.577
774.602
774.626
774.651
774.677
774.702
774.728
774.754
774.78
774.806
774.833
774.859
774.886
774.914
774.941
774.969
774.997
775.025
775.053
775.082
775.11
775.141
775.167
775.2
775.225
775.261
775.284
775.323
775.344
775.385
775.407
775.47
773.14
773.14
773.14
773.14
773.14
773.141
773.141
773.141
773.141
773.141
773.141
773.141
773.141
773.142
773.142
773.142
773.142
773.143
773.143
773.143
773.144
773.144
773.145
773.145
773.146
773.146
773.147
773.147
773.148
773.149
773.149
773.15
773.151
773.152
773.153
773.154
773.155
773.157
773.158
773.159
773.16
773.161
773.162
773.163
773.164
773.166
773.168
773.169
773.171
773.173
773.175
773.178
773.18
773.182
773.184
773.186
773.188
773.19
773.192
773.195
773.198
773.201
773.204
773.208
773.211
773.215
773.219
773.222
773.226
773.23
773.234
773.238
773.242
773.247
773.252
773.257
773.262
773.267
773.273
773.278
773.284
773.29
773.296
773.303
773.309
773.316
773.323
773.33
773.337
773.344
773.352
773.36
773.367
773.376
773.384
773.392
773.401
773.41
773.419
773.428
773.438
773.447
773.457
773.467
773.477
773.488
773.498
773.509
773.52
773.531
773.543
773.554
773.566
773.578
773.59
773.603
773.615
773.628
773.641
773.655
773.668
773.682
773.696
773.71
773.724
773.739
773.753
773.768
773.784
773.799
773.815
773.831
773.847
773.863
773.88
773.896
773.913
773.93
773.948
773.966
773.983
774.002
774.02
774.038
774.057
774.076
774.096
774.115
774.135
774.155
774.175
774.195
774.216
774.237
774.258
774.279
774.301
774.322
774.344
774.367
774.389
774.412
774.435
774.458
774.481
774.505
774.529
774.553
774.577
774.602
774.626
774.651
774.677
774.702
774.728
774.754
774.78
774.806
774.833
774.859
774.886
774.914
774.941
774.969
774.997
775.025
775.053
775.082
775.111
775.14
775.169
775.198
775.228
775.256
775.291
775.315
775.351
775.378
775.407
775.44
773.14
773.14
773.14
773.14
773.14
773.14
773.141
773.141
773.141
773.141
773.141
773.141
773.141
773.142
773.142
773.142
773.142
773.143
773.143
773.143
773.144
773.144
773.145
773.145
773.146
773.146
773.147
773.147
773.148
773.149
773.149
773.15
773.151
773.152
773.153
773.154
773.155
773.157
773.158
773.159
773.16
773.161
773.162
773.163
773.164
773.166
773.168
773.169
773.171
773.173
773.175
773.178
773.18
773.182
773.184
773.186
773.188
773.19
773.192
773.195
773.198
773.201
773.204
773.208
773.211
773.215
773.219
773.222
773.226
773.23
773.234
773.238
773.242
773.247
773.252
773.257
773.262
773.267
773.273
773.278
773.284
773.29
773.296
773.303
773.309
773.316
773.323
773.33
773.337
773.344
773.352
773.36
773.367
773.376
773.384
773.392
773.401
773.41
773.419
773.428
773.438
773.447
773.457
773.467
773.477
773.488
773.498
773.509
773.52
773.531
773.543
773.554
773.566
773.578
773.59
773.603
773.615
773.628
773.641
773.655
773.668
773.682
773.696
773.71
773.724
773.739
773.753
773.768
773.784
773.799
773.815
773.831
773.847
773.863
773.88
773.896
773.913
773.93
773.948
773.966
773.983
774.002
774.02
774.038
774.057
774.076
774.096
774.115
774.135
774.155
774.175
774.195
774.216
774.237
774.258
774.279
774.301
774.322
774.344
774.367
774.389
774.412
774.435
774.458
774.481
774.505
774.529
774.553
774.577
774.602
774.626
774.651
774.677
774.702
774.728
774.754
774.78
774.806
774.833
774.859
774.886
774.914
774.941
774.969
774.997
775.025
775.054
775.081
775.112
775.138
775.171
775.196
775.231
775.255
775.291
775.314
775.353
775.373
775.419
775.385
773.14
773.14
773.14
773.14
773.14
773.14
773.141
773.141
773.141
773.141
773.141
773.141
773.141
773.142
773.142
773.142
773.142
773.143
773.143
773.143
773.144
773.144
773.145
773.145
773.146
773.146
773.147
773.147
773.148
773.149
773.149
773.15
773.151
773.152
773.153
773.154
773.155
773.157
773.158
773.159
773.16
773.161
773.162
773.163
773.164
773.166
773.168
773.169
773.171
773.173
773.175
773.178
773.18
773.182
773.184
773.186
773.188
773.19
773.192
773.195
773.198
773.201
773.204
773.208
773.211
773.215
773.219
773.222
773.226
773.23
773.234
773.238
773.242
773.247
773.252
773.257
773.262
773.267
773.273
773.278
773.284
773.29
773.296
773.303
773.309
773.316
773.323
773.33
773.337
773.344
773.352
773.36
773.367
773.376
773.384
773.392
773.401
773.41
773.419
773.428
773.438
773.447
773.457
773.467
773.477
773.488
773.498
773.509
773.52
773.531
773.543
773.554
773.566
773.578
773.59
773.603
773.615
773.628
773.641
773.655
773.668
773.682
773.696
773.71
773.724
773.739
773.753
773.768
773.784
773.799
773.815
773.831
773.847
773.863
773.88
773.896
773.913
773.93
773.948
773.966
773.983
774.002
774.02
774.038
774.057
774.076
774.096
774.115
774.135
774.155
774.175
774.195
774.216
774.237
774.258
774.279
774.301
774.322
774.344
774.367
774.389
774.412
774.435
774.458
774.481
774.505
774.529
774.553
774.577
774.602
774.626
774.651
774.677
774.702
774.728
774.754
774.78
774.806
774.833
774.859
774.886
774.914
774.941
774.969
774.997
775.025
775.054
775.081
775.112
775.138
775.171
775.196
775.231
775.254
775.292
775.314
775.353
775.372
775.428
775.287
773.14
773.14
773.14
773.14
773.14
773.14
773.141
773.141
773.141
773.141
773.141
773.141
773.141
773.142
773.142
773.142
773.142
773.143
773.143
773.143
773.144
773.144
773.145
773.145
773.146
773.146
773.147
773.147
773.148
773.149
773.149
773.15
773.151
773.152
773.153
773.154
773.155
773.157
773.158
773.159
773.16
773.161
773.162
773.163
773.164
773.166
773.168
773.169
773.171
773.173
773.175
773.178
773.18
773.182
773.184
773.186
773.188
773.19
773.192
773.195
773.198
773.201
773.204
773.208
773.211
773.215
773.219
773.222
773.226
773.23
773.234
773.238
773.242
773.247
773.252
773.257
773.262
773.267
773.273
773.278
773.284
773.29
773.296
773.303
773.309
773.316
773.323
773.33
773.337
773.344
773.352
773.36
773.367
773.376
773.384
773.392
773.401
773.41
773.419
773.428
773.438
773.447
773.457
773.467
773.477
773.488
773.498
773.509
773.52
773.531
773.543
773.554
773.566
773.578
773.59
773.603
773.615
773.628
773.641
773.655
773.668
773.682
773.696
773.71
773.724
773.739
773.753
773.768
773.784
773.799
773.815
773.831
773.847
773.863
773.88
773.896
773.913
773.93
773.948
773.966
773.983
774.002
774.02
774.038
774.057
774.076
774.096
774.115
774.135
774.155
774.175
774.195
774.216
774.237
774.258
774.279
774.301
774.322
774.344
774.367
774.389
774.412
774.435
774.458
774.481
774.505
774.529
774.553
774.577
774.602
774.626
774.651
774.677
774.702
774.728
774.754
774.78
774.806
774.833
774.859
774.886
774.914
774.941
774.969
774.997
775.025
775.054
775.081
775.112
775.138
775.171
775.196
775.231
775.254
775.292
775.313
775.353
775.372
775.433
775.235
773.148
773.148
773.148
773.148
773.148
773.148
773.148
773.148
773.148
773.148
773.148
773.148
773.149
773.149
773.149
773.149
773.149
773.15
773.15
773.15
773.151
773.151
773.151
773.152
773.152
773.153
773.153
773.154
773.155
773.155
773.156
773.157
773.157
773.158
773.159
773.161
773.162
773.163
773.164
773.165
773.166
773.167
773.168
773.169
773.17
773.172
773.174
773.175
773.177
773.179
773.181
773.183
773.186
773.188
773.19
773.191
773.193
773.195
773.198
773.2
773.203
773.206
773.21
773.213
773.217
773.22
773.224
773.228
773.231
773.235
773.239
773.243
773.247
773.252
773.256
773.261
773.266
773.272
773.277
773.283
773.289
773.295
773.301
773.307
773.314
773.321
773.327
773.334
773.342
773.349
773.357
773.364
773.372
773.38
773.389
773.397
773.406
773.415
773.424
773.433
773.442
773.452
773.462
773.472
773.482
773.492
773.503
773.514
773.525
773.536
773.547
773.559
773.571
773.583
773.595
773.608
773.62
773.633
773.646
773.659
773.673
773.687
773.7
773.715
773.729
773.743
773.758
773.773
773.788
773.804
773.82
773.835
773.852
773.868
773.884
773.901
773.918
773.935
773.953
773.97
773.988
774.006
774.025
774.043
774.062
774.081
774.1
774.12
774.14
774.159
774.18
774.2
774.221
774.241
774.263
774.284
774.305
774.327
774.349
774.371
774.394
774.417
774.439
774.463
774.486
774.51
774.533
774.558
774.582
774.606
774.631
774.656
774.681
774.707
774.732
774.758
774.784
774.811
774.837
774.864
774.891
774.918
774.946
774.974
775.002
775.03
775.058
775.086
775.116
775.143
775.176
775.2
775.236
775.259
775.297
775.318
775.359
775.376
775.444
775.187
775.534
775.557
775.572
775.579
775.586
775.593
775.599
775.604
775.609
775.615
775.622
775.629
775.636
775.642
775.648
775.654
775.657
775.656
775.656
775.645
775.531
775.542
775.553
775.56
775.567
775.574
775.58
775.587
775.593
775.599
775.605
775.611
775.618
775.624
775.629
775.632
775.635
775.635
775.636
775.627
775.531
775.544
775.554
775.562
775.567
775.575
775.581
775.588
775.594
775.6
775.606
775.611
775.616
775.621
775.625
775.628
775.632
775.632
775.631
775.625
775.515
775.526
775.533
775.538
775.543
775.548
775.554
775.56
775.568
775.575
775.583
775.591
775.599
775.606
775.616
775.623
775.628
775.633
775.634
775.63
775.492
775.507
775.52
775.529
775.538
775.545
775.551
775.555
775.558
775.56
775.562
775.563
775.564
775.565
775.566
775.567
775.568
775.569
775.57
775.572
775.451
775.452
775.454
775.457
775.461
775.466
775.472
775.478
775.486
775.494
775.506
775.517
775.531
775.542
775.557
775.57
775.585
775.597
775.609
775.617
775.402
775.407
775.414
775.419
775.424
775.429
775.434
775.436
775.437
775.437
775.436
775.436
775.434
775.433
775.432
775.433
775.436
775.439
775.448
775.461
775.345
775.334
775.325
775.323
775.325
775.329
775.335
775.342
775.351
775.36
775.37
775.382
775.396
775.411
775.429
775.445
775.467
775.486
775.51
775.531
775.304
775.292
775.282
775.277
775.273
775.274
775.275
775.278
775.281
775.285
775.289
775.294
775.301
775.31
775.317
775.331
775.346
775.366
775.39
775.419
775.28
775.26
775.243
775.236
775.236
775.241
775.248
775.255
775.268
775.28
775.295
775.309
775.326
775.344
775.364
775.385
775.409
775.436
775.466
775.5
775.621
775.638
775.648
775.667
775.692
775.719
775.745
775.77
775.795
775.82
775.846
775.872
775.899
775.925
775.952
775.979
776.006
776.034
776.061
776.089
776.116
776.144
776.171
776.199
776.227
776.254
776.282
776.311
776.339
776.367
776.396
776.425
776.453
776.482
776.511
776.54
776.569
776.598
776.627
776.656
776.685
776.715
776.744
776.774
776.803
776.833
776.862
776.892
776.922
776.952
776.982
777.012
777.042
777.073
777.103
777.134
777.164
777.195
777.225
777.256
777.286
777.317
777.347
777.378
777.409
777.44
777.471
777.502
777.533
777.564
777.594
777.625
777.656
777.688
777.719
777.75
777.781
777.81
777.839
777.868
777.897
777.927
777.959
777.99
778.017
778.039
778.057
778.085
778.143
778.297
778.774
779.603
780.426
781.153
781.727
782.12
782.334
782.405
782.398
782.253
781.623
780.641
779.834
779.24
778.85
778.629
778.529
778.5
778.502
778.54
778.639
778.731
778.805
778.865
778.915
778.958
778.997
779.032
779.066
779.099
779.131
779.162
779.193
779.224
779.255
779.285
779.316
779.346
779.376
779.406
779.437
779.467
779.496
779.526
779.556
779.586
779.615
779.645
779.674
779.703
779.733
779.762
779.791
779.82
779.849
779.878
779.907
779.935
779.964
779.993
780.021
780.049
780.078
780.106
780.134
780.162
780.19
780.218
780.245
780.273
780.3
780.328
780.355
780.382
780.409
780.436
780.463
780.49
780.517
780.543
780.57
780.596
780.622
780.648
780.674
780.7
780.726
780.751
780.778
780.802
780.829
780.852
780.88
780.901
780.931
780.95
780.98
780.998
781.03
781.046
781.079
781.094
781.127
781.141
781.174
781.188
781.221
781.234
781.275
781.279
775.608
775.623
775.635
775.653
775.678
775.704
775.73
775.755
775.78
775.805
775.831
775.857
775.884
775.91
775.937
775.964
775.991
776.018
776.046
776.073
776.101
776.128
776.156
776.183
776.211
776.239
776.267
776.295
776.323
776.351
776.38
776.409
776.437
776.466
776.495
776.524
776.553
776.582
776.611
776.64
776.669
776.699
776.728
776.758
776.787
776.817
776.847
776.876
776.906
776.936
776.966
776.996
777.026
777.056
777.087
777.117
777.148
777.178
777.209
777.239
777.27
777.301
777.331
777.362
777.393
777.424
777.454
777.485
777.516
777.547
777.578
777.61
777.641
777.672
777.703
777.734
777.765
777.795
777.826
777.856
777.887
777.919
777.951
777.983
778.011
778.034
778.054
778.072
778.089
778.104
778.116
778.126
778.14
778.17
778.248
778.396
778.558
778.712
778.841
778.933
778.984
778.999
778.994
778.946
778.844
778.776
778.743
778.733
778.732
778.739
778.769
778.813
778.854
778.893
778.929
778.965
778.998
779.031
779.063
779.095
779.127
779.158
779.189
779.22
779.25
779.281
779.311
779.342
779.372
779.402
779.432
779.462
779.492
779.522
779.551
779.581
779.611
779.64
779.67
779.699
779.728
779.758
779.787
779.816
779.845
779.874
779.902
779.931
779.96
779.988
780.017
780.045
780.073
780.101
780.13
780.158
780.185
780.213
780.241
780.269
780.296
780.323
780.351
780.378
780.405
780.432
780.459
780.486
780.512
780.539
780.565
780.592
780.618
780.644
780.67
780.696
780.722
780.747
780.773
780.798
780.825
780.847
780.876
780.896
780.926
780.945
780.976
780.994
781.025
781.042
781.074
781.09
781.122
781.137
781.169
781.184
781.216
781.23
781.268
781.279
775.61
775.625
775.638
775.657
775.681
775.707
775.733
775.758
775.783
775.808
775.834
775.86
775.887
775.913
775.94
775.967
775.994
776.021
776.048
776.076
776.104
776.131
776.159
776.186
776.214
776.242
776.27
776.298
776.326
776.354
776.383
776.412
776.44
776.469
776.498
776.527
776.556
776.585
776.614
776.643
776.672
776.702
776.731
776.761
776.79
776.82
776.849
776.879
776.909
776.939
776.969
776.999
777.029
777.059
777.09
777.12
777.151
777.181
777.212
777.242
777.273
777.303
777.334
777.365
777.395
777.426
777.457
777.488
777.519
777.55
777.581
777.612
777.644
777.675
777.706
777.737
777.768
777.8
777.83
777.861
777.89
777.92
777.952
777.986
778.02
778.052
778.076
778.087
778.088
778.078
778.041
778.012
778.002
778.001
778.003
778.01
778.032
778.095
778.215
778.339
778.454
778.552
778.629
778.684
778.722
778.748
778.765
778.779
778.792
778.808
778.829
778.853
778.88
778.909
778.94
778.97
779.002
779.033
779.065
779.096
779.127
779.158
779.189
779.22
779.25
779.281
779.311
779.342
779.372
779.402
779.432
779.462
779.492
779.522
779.551
779.581
779.611
779.64
779.67
779.699
779.728
779.758
779.787
779.816
779.845
779.874
779.902
779.931
779.96
779.988
780.017
780.045
780.073
780.101
780.13
780.158
780.185
780.213
780.241
780.269
780.296
780.323
780.351
780.378
780.405
780.432
780.459
780.486
780.512
780.539
780.565
780.592
780.618
780.644
780.67
780.696
780.722
780.747
780.773
780.798
780.824
780.847
780.876
780.896
780.926
780.945
780.976
780.994
781.025
781.042
781.074
781.09
781.122
781.137
781.169
781.184
781.216
781.23
781.265
781.279
775.633
775.642
775.663
775.69
775.714
775.738
775.764
775.791
775.818
775.844
775.87
775.896
775.922
775.949
775.976
776.003
776.03
776.057
776.085
776.112
776.14
776.167
776.195
776.223
776.251
776.278
776.306
776.334
776.363
776.391
776.419
776.448
776.477
776.505
776.534
776.563
776.592
776.621
776.65
776.679
776.709
776.738
776.768
776.797
776.827
776.856
776.886
776.916
776.945
776.975
777.005
777.035
777.065
777.096
777.126
777.157
777.187
777.218
777.248
777.279
777.309
777.34
777.37
777.401
777.432
777.463
777.493
777.524
777.555
777.586
777.617
777.648
777.679
777.71
777.741
777.771
777.801
777.831
777.861
777.89
777.919
777.95
777.983
778.016
778.048
778.075
778.092
778.097
778.094
778.073
778.046
778.036
778.035
778.036
778.042
778.057
778.096
778.17
778.255
778.341
778.42
778.489
778.549
778.599
778.641
778.676
778.708
778.737
778.765
778.794
778.822
778.852
778.882
778.912
778.943
778.974
779.005
779.036
779.067
779.098
779.129
779.159
779.19
779.221
779.251
779.281
779.312
779.342
779.372
779.402
779.432
779.462
779.492
779.522
779.551
779.581
779.611
779.64
779.67
779.699
779.728
779.758
779.787
779.816
779.845
779.874
779.902
779.931
779.96
779.988
780.017
780.045
780.073
780.101
780.13
780.158
780.185
780.213
780.241
780.269
780.296
780.323
780.351
780.378
780.405
780.432
780.459
780.486
780.512
780.539
780.565
780.592
780.618
780.644
780.67
780.696
780.722
780.747
780.773
780.798
780.824
780.848
780.875
780.897
780.925
780.947
780.974
780.995
781.025
781.042
781.075
781.09
781.122
781.137
781.17
781.184
781.216
781.23
781.26
781.28
775.591
775.6
775.621
775.643
775.669
775.695
775.72
775.746
775.772
775.798
775.825
775.851
775.878
775.904
775.931
775.958
775.985
776.012
776.039
776.066
776.094
776.121
776.149
776.177
776.205
776.233
776.261
776.289
776.317
776.345
776.374
776.402
776.431
776.46
776.488
776.517
776.546
776.575
776.605
776.634
776.663
776.692
776.722
776.751
776.781
776.811
776.84
776.87
776.9
776.93
776.96
776.99
777.02
777.05
777.08
777.111
777.141
777.172
777.202
777.233
777.264
777.294
777.325
777.356
777.387
777.418
777.449
777.48
777.511
777.542
777.573
777.604
777.636
777.667
777.699
777.73
777.762
777.793
777.825
777.857
777.889
777.92
777.951
777.983
778.016
778.05
778.084
778.113
778.132
778.143
778.149
778.152
778.157
778.163
778.173
778.191
778.218
778.258
778.306
778.359
778.414
778.467
778.518
778.564
778.607
778.647
778.684
778.719
778.753
778.786
778.818
778.85
778.882
778.913
778.944
778.975
779.006
779.037
779.068
779.099
779.129
779.16
779.19
779.221
779.251
779.282
779.312
779.342
779.372
779.402
779.432
779.462
779.492
779.522
779.552
779.581
779.611
779.64
779.67
779.699
779.728
779.758
779.787
779.816
779.845
779.874
779.902
779.931
779.96
779.988
780.017
780.045
780.073
780.101
780.13
780.158
780.185
780.213
780.241
780.269
780.296
780.323
780.351
780.378
780.405
780.432
780.459
780.486
780.512
780.539
780.565
780.592
780.618
780.644
780.67
780.696
780.722
780.747
780.773
780.798
780.823
780.849
780.873
780.899
780.923
780.949
780.973
780.997
781.022
781.046
781.068
781.096
781.115
781.143
781.165
781.187
781.213
781.234
781.258
781.278
775.642
775.675
775.708
775.741
775.773
775.803
775.833
775.861
775.888
775.915
775.942
775.969
775.996
776.023
776.049
776.076
776.103
776.13
776.158
776.185
776.213
776.24
776.268
776.296
776.324
776.352
776.38
776.408
776.436
776.464
776.493
776.521
776.55
776.579
776.607
776.636
776.665
776.694
776.724
776.753
776.782
776.811
776.841
776.87
776.9
776.929
776.959
776.989
777.018
777.048
777.078
777.108
777.138
777.168
777.198
777.228
777.258
777.289
777.319
777.349
777.379
777.409
777.439
777.469
777.498
777.528
777.558
777.588
777.617
777.647
777.676
777.705
777.734
777.762
777.791
777.819
777.848
777.877
777.907
777.938
777.971
778.002
778.031
778.055
778.073
778.082
778.086
778.09
778.093
778.099
778.112
778.129
778.146
778.165
778.191
778.224
778.264
778.31
778.358
778.407
778.456
778.502
778.545
778.585
778.624
778.66
778.695
778.728
778.761
778.793
778.825
778.856
778.887
778.918
778.948
778.979
779.009
779.04
779.07
779.1
779.131
779.161
779.191
779.222
779.252
779.282
779.312
779.342
779.372
779.402
779.432
779.462
779.492
779.522
779.552
779.581
779.611
779.64
779.67
779.699
779.728
779.758
779.787
779.816
779.845
779.874
779.902
779.931
779.96
779.988
780.017
780.045
780.073
780.101
780.13
780.158
780.185
780.213
780.241
780.269
780.296
780.323
780.351
780.378
780.405
780.432
780.459
780.486
780.512
780.539
780.565
780.592
780.618
780.644
780.67
780.696
780.721
780.748
780.772
780.799
780.823
780.85
780.872
780.901
780.922
780.951
780.97
781
781.018
781.049
781.066
781.098
781.114
781.146
781.161
781.193
781.208
781.239
781.254
781.286
775.502
775.534
775.56
775.585
775.611
775.637
775.664
775.691
775.718
775.744
775.771
775.798
775.824
775.851
775.878
775.905
775.931
775.958
775.986
776.013
776.04
776.068
776.096
776.123
776.151
776.179
776.207
776.235
776.264
776.292
776.32
776.349
776.378
776.406
776.435
776.464
776.493
776.522
776.551
776.58
776.609
776.639
776.668
776.698
776.728
776.757
776.787
776.817
776.847
776.877
776.907
776.937
776.967
776.997
777.028
777.058
777.088
777.119
777.149
777.18
777.211
777.241
777.272
777.303
777.333
777.364
777.395
777.425
777.457
777.488
777.519
777.55
777.582
777.613
777.644
777.676
777.708
777.739
777.77
777.801
777.834
777.868
777.9
777.931
777.962
777.994
778.026
778.06
778.096
778.135
778.175
778.21
778.237
778.254
778.268
778.278
778.286
778.293
778.308
778.341
778.387
778.441
778.495
778.546
778.595
778.639
778.68
778.718
778.754
778.789
778.822
778.854
778.886
778.917
778.948
778.979
779.009
779.04
779.07
779.101
779.131
779.161
779.192
779.222
779.252
779.282
779.312
779.342
779.372
779.402
779.432
779.462
779.492
779.522
779.552
779.581
779.611
779.64
779.67
779.699
779.728
779.758
779.787
779.816
779.845
779.874
779.902
779.931
779.96
779.988
780.017
780.045
780.073
780.101
780.13
780.158
780.185
780.213
780.241
780.269
780.296
780.323
780.351
780.378
780.405
780.432
780.459
780.486
780.512
780.539
780.565
780.592
780.618
780.644
780.67
780.696
780.722
780.748
780.772
780.799
780.823
780.85
780.872
780.901
780.922
780.951
780.97
781
781.018
781.049
781.066
781.098
781.113
781.146
781.161
781.193
781.208
781.238
781.258
781.282
775.604
775.647
775.683
775.719
775.754
775.787
775.82
775.85
775.88
775.909
775.937
775.964
775.991
776.018
776.045
776.072
776.099
776.126
776.153
776.181
776.208
776.236
776.263
776.291
776.319
776.348
776.376
776.404
776.432
776.46
776.488
776.517
776.545
776.574
776.603
776.632
776.661
776.69
776.719
776.748
776.777
776.806
776.835
776.865
776.894
776.924
776.953
776.983
777.012
777.041
777.071
777.101
777.13
777.16
777.191
777.221
777.252
777.282
777.313
777.344
777.375
777.406
777.436
777.466
777.496
777.527
777.558
777.588
777.617
777.646
777.675
777.704
777.732
777.76
777.789
777.819
777.85
777.882
777.915
777.947
777.98
778.013
778.047
778.079
778.108
778.134
778.152
778.163
778.17
778.174
778.178
778.185
778.197
778.211
778.227
778.248
778.276
778.312