/*--------------------------------*- C++ -*----------------------------------*\
| =========                 |                                                 |
| \\      /  F ield         | OpenFOAM: The Open Source CFD Toolbox           |
|  \\    /   O peration     | Version:  3.0.x                                 |
|   \\  /    A nd           | Web:      www.OpenFOAM.org                      |
|    \\/     M anipulation  |                                                 |
\*---------------------------------------------------------------------------*/
FoamFile
{
    version     2.0;
    format      ascii;
    class       volVectorField;
    location    "0.340025";
    object      U;
}
// * * * * * * * * * * * * * * * * * * * * * * * * * * * * * * * * * * * * * //

dimensions      [0 1 -1 0 0 0 0];

internalField   nonuniform List<vector> 
13800
(
(57.8962 0.000142472 0)
(57.8925 0.000123997 0)
(57.8887 0.000122704 0)
(57.8849 0.000124787 0)
(57.8811 0.000126581 0)
(57.8773 0.000128075 0)
(57.8735 0.000129327 0)
(57.8697 0.000130361 0)
(57.8659 0.000131217 0)
(57.8621 0.000131933 0)
(57.8583 0.000132534 0)
(57.8545 0.000133041 0)
(57.8508 0.000133471 0)
(57.847 0.000133838 0)
(57.8432 0.000134153 0)
(57.8394 0.000134417 0)
(57.8357 0.000134648 0)
(57.8319 0.000134876 0)
(57.8282 0.000135036 0)
(57.8244 0.000135193 0)
(57.8207 0.000135325 0)
(57.8169 0.000135451 0)
(57.8131 0.000135581 0)
(57.8094 0.000135673 0)
(57.8057 0.000135752 0)
(57.8019 0.000135832 0)
(57.7982 0.000135899 0)
(57.7944 0.000135958 0)
(57.7907 0.000136007 0)
(57.7869 0.000136045 0)
(57.7832 0.000136079 0)
(57.7794 0.000136109 0)
(57.7757 0.000136163 0)
(57.7719 0.000136167 0)
(57.7682 0.000136183 0)
(57.7644 0.000136186 0)
(57.7607 0.000136202 0)
(57.7569 0.000136293 0)
(57.7531 0.000136204 0)
(57.7494 0.000136253 0)
(57.7456 0.000136264 0)
(57.7418 0.000136275 0)
(57.7381 0.000136285 0)
(57.7343 0.000136296 0)
(57.7305 0.000136297 0)
(57.7268 0.000136304 0)
(57.723 0.000136308 0)
(57.7192 0.000136308 0)
(57.7155 0.000136304 0)
(57.7117 0.000136294 0)
(57.7079 0.000136275 0)
(57.7042 0.000136244 0)
(57.7004 0.000136195 0)
(57.6966 0.000136118 0)
(57.6929 0.000136033 0)
(57.6891 0.000135886 0)
(57.6854 0.000135683 0)
(57.6816 0.00013541 0)
(57.6779 0.000135023 0)
(57.6742 0.000134555 0)
(57.6705 0.000134062 0)
(57.6668 0.000133062 0)
(57.6631 0.00013213 0)
(57.6595 0.000130884 0)
(57.656 0.000129355 0)
(57.6524 0.000127512 0)
(57.649 0.000125322 0)
(57.6456 0.000122758 0)
(57.6422 0.000119798 0)
(57.639 0.000116427 0)
(57.6359 0.000112641 0)
(57.6329 0.000108447 0)
(57.63 0.000103862 0)
(57.6272 9.89151e-05 0)
(57.6246 9.36478e-05 0)
(57.6221 8.811e-05 0)
(57.6198 8.23609e-05 0)
(57.6177 7.64672e-05 0)
(57.6157 7.04992e-05 0)
(57.6139 6.45289e-05 0)
(57.6122 5.863e-05 0)
(57.6107 5.28623e-05 0)
(57.6094 4.7295e-05 0)
(57.6082 4.19844e-05 0)
(57.6071 3.69735e-05 0)
(57.6062 3.2298e-05 0)
(57.6054 2.79841e-05 0)
(57.6047 2.40474e-05 0)
(57.6041 2.04937e-05 0)
(57.6036 1.73198e-05 0)
(57.6032 1.45161e-05 0)
(57.6029 1.20633e-05 0)
(57.6026 9.94067e-06 0)
(57.6024 8.12319e-06 0)
(57.6022 6.58347e-06 0)
(57.6021 5.28862e-06 0)
(57.6019 4.21274e-06 0)
(57.6019 3.3282e-06 0)
(57.6018 2.60662e-06 0)
(57.6017 2.02413e-06 0)
(57.6017 1.55845e-06 0)
(57.6017 1.18963e-06 0)
(57.6017 9.00309e-07 0)
(57.6017 6.75433e-07 0)
(57.6017 5.02088e-07 0)
(57.6017 3.69944e-07 0)
(57.6017 2.69923e-07 0)
(57.6018 1.94831e-07 0)
(57.6018 1.38892e-07 0)
(57.6018 9.75588e-08 0)
(57.6018 6.71698e-08 0)
(57.6019 4.4973e-08 0)
(57.6019 2.88469e-08 0)
(57.602 1.71573e-08 0)
(57.602 8.80501e-09 0)
(57.602 2.87981e-09 0)
(57.6021 -1.38269e-09 0)
(57.6021 -4.47629e-09 0)
(57.6022 -6.09173e-09 0)
(57.6022 -7.15149e-09 0)
(57.6023 -8.57694e-09 0)
(57.6023 -7.87878e-09 0)
(57.6023 -8.60545e-09 0)
(57.6024 -6.6805e-09 0)
(57.6024 -9.41762e-09 0)
(57.6024 -8.34121e-09 0)
(57.6025 -8.0512e-09 0)
(57.6025 -9.08163e-09 0)
(57.6025 -7.3652e-09 0)
(57.6025 -7.76786e-09 0)
(57.6026 -7.51249e-09 0)
(57.6026 -7.39951e-09 0)
(57.6026 -7.35406e-09 0)
(57.6026 -7.19901e-09 0)
(57.6026 -7.12946e-09 0)
(57.6026 -6.9655e-09 0)
(57.6026 -6.76417e-09 0)
(57.6026 -6.61535e-09 0)
(57.6026 -6.4845e-09 0)
(57.6026 -6.34937e-09 0)
(57.6026 -6.21505e-09 0)
(57.6026 -6.08748e-09 0)
(57.6026 -5.9558e-09 0)
(57.6025 -5.82655e-09 0)
(57.6025 -5.69771e-09 0)
(57.6025 -5.5728e-09 0)
(57.6025 -5.4404e-09 0)
(57.6025 -5.29711e-09 0)
(57.6025 -5.11485e-09 0)
(57.6025 -4.91113e-09 0)
(57.6025 -4.71635e-09 0)
(57.6025 -4.53118e-09 0)
(57.6025 -4.3614e-09 0)
(57.6024 -4.20986e-09 0)
(57.6024 -4.0743e-09 0)
(57.6024 -3.96097e-09 0)
(57.6024 -3.87039e-09 0)
(57.6024 -3.78342e-09 0)
(57.6024 -3.63696e-09 0)
(57.6024 -3.91584e-09 0)
(57.6024 -3.49608e-09 0)
(57.6024 -3.47898e-09 0)
(57.6025 -3.45237e-09 0)
(57.6025 -3.38329e-09 0)
(57.6025 -3.30332e-09 0)
(57.6026 -3.19919e-09 0)
(57.6027 -3.08524e-09 0)
(57.6027 -2.9636e-09 0)
(57.6028 -2.84005e-09 0)
(57.6029 -2.72265e-09 0)
(57.603 -2.58369e-09 0)
(57.6031 -2.42776e-09 0)
(57.6032 -2.25412e-09 0)
(57.6033 -2.03804e-09 0)
(57.6034 -1.79552e-09 0)
(57.6036 -1.51701e-09 0)
(57.6037 -1.19452e-09 0)
(57.6039 -8.30442e-10 0)
(57.604 -4.08627e-10 0)
(57.6042 6.25445e-11 0)
(57.6044 5.71017e-10 0)
(57.6046 1.1537e-09 0)
(57.6048 1.75829e-09 0)
(57.605 2.27057e-09 0)
(57.6052 2.72866e-09 0)
(57.6055 2.52712e-09 0)
(57.6057 5.93464e-09 0)
(57.606 1.34315e-08 0)
(57.6062 5.65452e-09 0)
(57.6065 5.10435e-08 0)
(57.6068 1.28906e-07 0)
(57.6071 6.2795e-07 0)
(57.6074 2.97259e-06 0)
(57.6074 1.42691e-05 0)
(57.6058 6.86732e-05 0)
(57.5969 0.000329518 0)
(57.5546 0.00155753 0)
(57.3585 0.00720352 0)
(56.7287 0.0367495 0)
(50.786 0.144701 0)
(57.9001 0.000222427 0)
(57.9002 0.000161892 0)
(57.9004 0.000149597 0)
(57.9005 0.000147499 0)
(57.9006 0.000145714 0)
(57.9007 0.000144287 0)
(57.9008 0.000143214 0)
(57.9009 0.00014235 0)
(57.901 0.000141632 0)
(57.9011 0.000141031 0)
(57.9012 0.000140524 0)
(57.9013 0.000140087 0)
(57.9014 0.000139713 0)
(57.9015 0.000139389 0)
(57.9017 0.00013911 0)
(57.9018 0.000138855 0)
(57.9019 0.000138637 0)
(57.9021 0.000138494 0)
(57.9022 0.000138304 0)
(57.9023 0.000138168 0)
(57.9025 0.000138036 0)
(57.9026 0.000137938 0)
(57.9027 0.000137885 0)
(57.9029 0.000137794 0)
(57.903 0.000137723 0)
(57.9032 0.000137672 0)
(57.9033 0.000137625 0)
(57.9035 0.000137584 0)
(57.9036 0.000137548 0)
(57.9038 0.000137508 0)
(57.9039 0.000137477 0)
(57.904 0.000137448 0)
(57.9042 0.000137475 0)
(57.9043 0.000137423 0)
(57.9044 0.000137406 0)
(57.9046 0.000137371 0)
(57.9047 0.000137367 0)
(57.9048 0.000137501 0)
(57.905 0.000137309 0)
(57.9051 0.000137382 0)
(57.9052 0.000137388 0)
(57.9054 0.000137394 0)
(57.9055 0.000137403 0)
(57.9056 0.000137414 0)
(57.9057 0.000137418 0)
(57.9058 0.000137433 0)
(57.906 0.000137443 0)
(57.9061 0.000137451 0)
(57.9062 0.000137456 0)
(57.9063 0.000137456 0)
(57.9064 0.000137448 0)
(57.9065 0.000137428 0)
(57.9067 0.000137389 0)
(57.9068 0.000137318 0)
(57.9069 0.000137253 0)
(57.907 0.000137105 0)
(57.9071 0.000136904 0)
(57.9073 0.000136631 0)
(57.9074 0.00013622 0)
(57.9075 0.00013575 0)
(57.9076 0.000135347 0)
(57.9078 0.000134138 0)
(57.9079 0.000133243 0)
(57.9081 0.000131951 0)
(57.9082 0.00013036 0)
(57.9083 0.000128442 0)
(57.9085 0.000126166 0)
(57.9086 0.000123502 0)
(57.9088 0.000120431 0)
(57.9089 0.000116939 0)
(57.9091 0.000113025 0)
(57.9092 0.000108697 0)
(57.9093 0.000103975 0)
(57.9095 9.88932e-05 0)
(57.9096 9.34939e-05 0)
(57.9097 8.78314e-05 0)
(57.9099 8.1968e-05 0)
(57.91 7.59728e-05 0)
(57.9101 6.99184e-05 0)
(57.9102 6.38782e-05 0)
(57.9103 5.79291e-05 0)
(57.9104 5.21237e-05 0)
(57.9105 4.65382e-05 0)
(57.9106 4.12261e-05 0)
(57.9106 3.62287e-05 0)
(57.9107 3.15788e-05 0)
(57.9108 2.73007e-05 0)
(57.9108 2.34081e-05 0)
(57.9109 1.99043e-05 0)
(57.9109 1.6784e-05 0)
(57.9109 1.40361e-05 0)
(57.911 1.16381e-05 0)
(57.911 9.56893e-06 0)
(57.911 7.80288e-06 0)
(57.911 6.31183e-06 0)
(57.9111 5.05955e-06 0)
(57.9111 4.02241e-06 0)
(57.9111 3.1729e-06 0)
(57.9111 2.48095e-06 0)
(57.9111 1.92397e-06 0)
(57.9111 1.4798e-06 0)
(57.9112 1.12877e-06 0)
(57.9112 8.5393e-07 0)
(57.9112 6.40688e-07 0)
(57.9112 4.76424e-07 0)
(57.9112 3.51586e-07 0)
(57.9113 2.57279e-07 0)
(57.9113 1.86769e-07 0)
(57.9113 1.34597e-07 0)
(57.9113 9.63802e-08 0)
(57.9114 6.86319e-08 0)
(57.9114 4.86812e-08 0)
(57.9114 3.4484e-08 0)
(57.9115 2.44959e-08 0)
(57.9115 1.755e-08 0)
(57.9115 1.27338e-08 0)
(57.9116 9.48015e-09 0)
(57.9116 7.37292e-09 0)
(57.9116 5.75112e-09 0)
(57.9117 4.73488e-09 0)
(57.9117 2.96028e-09 0)
(57.9117 4.44812e-09 0)
(57.9118 3.02193e-09 0)
(57.9118 6.59622e-09 0)
(57.9118 1.71816e-09 0)
(57.9119 3.73895e-09 0)
(57.9119 4.25908e-09 0)
(57.9119 2.40571e-09 0)
(57.9119 5.4709e-09 0)
(57.9119 4.64629e-09 0)
(57.912 5.01812e-09 0)
(57.912 5.15125e-09 0)
(57.912 5.13793e-09 0)
(57.912 5.3785e-09 0)
(57.912 5.48913e-09 0)
(57.912 5.70868e-09 0)
(57.912 5.93896e-09 0)
(57.9119 6.10682e-09 0)
(57.9119 6.26116e-09 0)
(57.9119 6.41397e-09 0)
(57.9119 6.55847e-09 0)
(57.9119 6.70177e-09 0)
(57.9119 6.84087e-09 0)
(57.9119 6.98988e-09 0)
(57.9119 7.14823e-09 0)
(57.9118 7.25048e-09 0)
(57.9118 7.35467e-09 0)
(57.9118 7.44305e-09 0)
(57.9118 7.52152e-09 0)
(57.9118 7.59072e-09 0)
(57.9118 7.65169e-09 0)
(57.9117 7.70101e-09 0)
(57.9117 7.73637e-09 0)
(57.9117 7.75525e-09 0)
(57.9117 7.74657e-09 0)
(57.9117 7.71239e-09 0)
(57.9116 7.6478e-09 0)
(57.9116 7.56349e-09 0)
(57.9116 7.60492e-09 0)
(57.9116 7.0493e-09 0)
(57.9116 7.32448e-09 0)
(57.9116 7.17748e-09 0)
(57.9117 7.03367e-09 0)
(57.9117 6.94395e-09 0)
(57.9117 6.87763e-09 0)
(57.9118 6.8369e-09 0)
(57.9118 6.80735e-09 0)
(57.9119 6.79116e-09 0)
(57.912 6.78713e-09 0)
(57.912 6.78777e-09 0)
(57.9121 6.79885e-09 0)
(57.9122 6.81887e-09 0)
(57.9123 6.85307e-09 0)
(57.9124 6.89559e-09 0)
(57.9126 6.94805e-09 0)
(57.9127 7.00862e-09 0)
(57.9128 7.08862e-09 0)
(57.913 7.17618e-09 0)
(57.9131 7.28751e-09 0)
(57.9133 7.42088e-09 0)
(57.9135 7.56219e-09 0)
(57.9137 7.73497e-09 0)
(57.9139 7.89781e-09 0)
(57.9141 7.96437e-09 0)
(57.9143 8.33857e-09 0)
(57.9145 8.12884e-09 0)
(57.9148 1.14977e-08 0)
(57.915 3.89121e-08 0)
(57.9153 -8.64277e-09 0)
(57.9155 1.38047e-07 0)
(57.9158 4.08896e-07 0)
(57.9161 2.10692e-06 0)
(57.9164 1.01279e-05 0)
(57.9164 4.85561e-05 0)
(57.9148 0.000233858 0)
(57.906 0.00112208 0)
(57.8638 0.0053047 0)
(57.6685 0.024492 0)
(57.0388 0.122292 0)
(51.4194 0.454966 0)
(57.9001 0.000163204 0)
(57.9002 0.000113257 0)
(57.9004 0.000107492 0)
(57.9005 0.00011051 0)
(57.9006 0.000111568 0)
(57.9007 0.000112016 0)
(57.9008 0.000112414 0)
(57.9009 0.000112742 0)
(57.901 0.000113005 0)
(57.9011 0.000113224 0)
(57.9012 0.00011342 0)
(57.9013 0.000113578 0)
(57.9014 0.000113718 0)
(57.9016 0.000113841 0)
(57.9017 0.00011395 0)
(57.9018 0.000114038 0)
(57.902 0.000114116 0)
(57.9021 0.000114226 0)
(57.9022 0.000114276 0)
(57.9024 0.000114343 0)
(57.9025 0.000114392 0)
(57.9027 0.000114453 0)
(57.9028 0.000114533 0)
(57.9029 0.000114565 0)
(57.9031 0.000114612 0)
(57.9033 0.000114659 0)
(57.9034 0.000114699 0)
(57.9036 0.000114736 0)
(57.9037 0.00011477 0)
(57.9039 0.000114795 0)
(57.904 0.000114822 0)
(57.9042 0.000114843 0)
(57.9043 0.000114905 0)
(57.9045 0.0001149 0)
(57.9046 0.000114921 0)
(57.9047 0.000114923 0)
(57.9049 0.000114948 0)
(57.905 0.000115082 0)
(57.9052 0.000114942 0)
(57.9053 0.000115025 0)
(57.9054 0.000115049 0)
(57.9056 0.000115071 0)
(57.9057 0.000115093 0)
(57.9058 0.000115111 0)
(57.906 0.000115132 0)
(57.9061 0.000115154 0)
(57.9062 0.000115171 0)
(57.9064 0.000115187 0)
(57.9065 0.000115199 0)
(57.9066 0.000115206 0)
(57.9068 0.000115205 0)
(57.9069 0.000115194 0)
(57.907 0.000115167 0)
(57.9072 0.000115111 0)
(57.9073 0.000115057 0)
(57.9074 0.000114931 0)
(57.9076 0.000114764 0)
(57.9077 0.000114533 0)
(57.9078 0.000114185 0)
(57.908 0.000113788 0)
(57.9081 0.000113439 0)
(57.9083 0.0001124 0)
(57.9084 0.000111645 0)
(57.9086 0.000110541 0)
(57.9087 0.000109184 0)
(57.9089 0.00010755 0)
(57.909 0.000105611 0)
(57.9092 0.000103345 0)
(57.9093 0.000100735 0)
(57.9095 9.77711e-05 0)
(57.9096 9.44519e-05 0)
(57.9097 9.07859e-05 0)
(57.9099 8.67915e-05 0)
(57.91 8.2497e-05 0)
(57.9101 7.79402e-05 0)
(57.9103 7.31673e-05 0)
(57.9104 6.82316e-05 0)
(57.9105 6.31916e-05 0)
(57.9106 5.81077e-05 0)
(57.9107 5.30425e-05 0)
(57.9107 4.80603e-05 0)
(57.9108 4.32042e-05 0)
(57.9109 3.85392e-05 0)
(57.911 3.41073e-05 0)
(57.911 2.99437e-05 0)
(57.9111 2.60742e-05 0)
(57.9111 2.25187e-05 0)
(57.9112 1.92876e-05 0)
(57.9112 1.63828e-05 0)
(57.9112 1.37991e-05 0)
(57.9112 1.15264e-05 0)
(57.9113 9.54539e-06 0)
(57.9113 7.83819e-06 0)
(57.9113 6.38278e-06 0)
(57.9113 5.15512e-06 0)
(57.9113 4.12529e-06 0)
(57.9113 3.27346e-06 0)
(57.9114 2.57654e-06 0)
(57.9114 2.00929e-06 0)
(57.9114 1.55341e-06 0)
(57.9114 1.19035e-06 0)
(57.9114 9.03814e-07 0)
(57.9114 6.7984e-07 0)
(57.9114 5.06403e-07 0)
(57.9115 3.73051e-07 0)
(57.9115 2.71899e-07 0)
(57.9115 1.95541e-07 0)
(57.9115 1.3844e-07 0)
(57.9115 9.61148e-08 0)
(57.9116 6.49755e-08 0)
(57.9116 4.2214e-08 0)
(57.9116 2.5706e-08 0)
(57.9117 1.38278e-08 0)
(57.9117 5.37484e-09 0)
(57.9117 -6.33662e-10 0)
(57.9118 -4.8527e-09 0)
(57.9118 -7.7731e-09 0)
(57.9118 -9.76164e-09 0)
(57.9119 -1.10648e-08 0)
(57.9119 -1.18954e-08 0)
(57.912 -1.30559e-08 0)
(57.912 -1.19115e-08 0)
(57.912 -1.32142e-08 0)
(57.9121 -1.0267e-08 0)
(57.9121 -1.42349e-08 0)
(57.9121 -1.25111e-08 0)
(57.9121 -1.21021e-08 0)
(57.9122 -1.35694e-08 0)
(57.9122 -1.11128e-08 0)
(57.9122 -1.17802e-08 0)
(57.9122 -1.15461e-08 0)
(57.9122 -1.14301e-08 0)
(57.9122 -1.14609e-08 0)
(57.9122 -1.12541e-08 0)
(57.9122 -1.11694e-08 0)
(57.9122 -1.1026e-08 0)
(57.9122 -1.0893e-08 0)
(57.9122 -1.07687e-08 0)
(57.9122 -1.06715e-08 0)
(57.9122 -1.05855e-08 0)
(57.9122 -1.05017e-08 0)
(57.9121 -1.04202e-08 0)
(57.9121 -1.03451e-08 0)
(57.9121 -1.0273e-08 0)
(57.9121 -1.01951e-08 0)
(57.9121 -1.00991e-08 0)
(57.9121 -9.99932e-09 0)
(57.912 -9.89452e-09 0)
(57.912 -9.77931e-09 0)
(57.912 -9.66501e-09 0)
(57.912 -9.55256e-09 0)
(57.912 -9.44999e-09 0)
(57.912 -9.37024e-09 0)
(57.9119 -9.29699e-09 0)
(57.9119 -9.25056e-09 0)
(57.9119 -9.21899e-09 0)
(57.9119 -9.20834e-09 0)
(57.9119 -9.20081e-09 0)
(57.9119 -9.08384e-09 0)
(57.9119 -9.38042e-09 0)
(57.9119 -9.12649e-09 0)
(57.9119 -9.12524e-09 0)
(57.9119 -9.13142e-09 0)
(57.9119 -9.09463e-09 0)
(57.912 -9.06456e-09 0)
(57.912 -9e-09 0)
(57.9121 -8.93979e-09 0)
(57.9121 -8.87736e-09 0)
(57.9122 -8.80173e-09 0)
(57.9123 -8.73806e-09 0)
(57.9124 -8.66712e-09 0)
(57.9125 -8.57705e-09 0)
(57.9126 -8.49087e-09 0)
(57.9127 -8.36879e-09 0)
(57.9128 -8.23225e-09 0)
(57.9129 -8.09439e-09 0)
(57.9131 -7.91007e-09 0)
(57.9132 -7.70617e-09 0)
(57.9134 -7.47846e-09 0)
(57.9136 -7.196e-09 0)
(57.9137 -6.92998e-09 0)
(57.9139 -6.64579e-09 0)
(57.9141 -6.45921e-09 0)
(57.9143 -6.84595e-09 0)
(57.9145 -6.86159e-09 0)
(57.9148 -9.23266e-09 0)
(57.915 7.56976e-10 0)
(57.9152 3.61141e-08 0)
(57.9155 1.08728e-08 0)
(57.9158 2.51562e-07 0)
(57.9161 7.82514e-07 0)
(57.9164 4.14602e-06 0)
(57.9167 2.0088e-05 0)
(57.9166 9.62082e-05 0)
(57.9151 0.000463728 0)
(57.9065 0.00222547 0)
(57.8655 0.0105296 0)
(57.6758 0.0486082 0)
(57.0671 0.24153 0)
(51.7623 0.879233 0)
(57.9001 0.000118903 0)
(57.9002 0.000103119 0)
(57.9003 0.000100138 0)
(57.9004 0.000104048 0)
(57.9005 0.000106178 0)
(57.9006 0.000107393 0)
(57.9007 0.000108426 0)
(57.9008 0.000109303 0)
(57.9009 0.00011003 0)
(57.901 0.000110637 0)
(57.9012 0.000111162 0)
(57.9013 0.000111599 0)
(57.9014 0.000111975 0)
(57.9015 0.000112299 0)
(57.9016 0.000112582 0)
(57.9018 0.000112821 0)
(57.9019 0.000113028 0)
(57.9021 0.000113238 0)
(57.9022 0.000113393 0)
(57.9023 0.000113542 0)
(57.9025 0.000113669 0)
(57.9026 0.000113793 0)
(57.9028 0.00011392 0)
(57.9029 0.000114009 0)
(57.9031 0.0001141 0)
(57.9032 0.000114184 0)
(57.9034 0.000114257 0)
(57.9035 0.000114323 0)
(57.9037 0.000114382 0)
(57.9038 0.000114431 0)
(57.904 0.000114477 0)
(57.9041 0.000114515 0)
(57.9043 0.000114578 0)
(57.9044 0.000114597 0)
(57.9046 0.000114627 0)
(57.9047 0.000114644 0)
(57.9049 0.000114677 0)
(57.905 0.000114774 0)
(57.9051 0.000114702 0)
(57.9053 0.000114764 0)
(57.9054 0.000114792 0)
(57.9055 0.000114818 0)
(57.9057 0.000114844 0)
(57.9058 0.000114864 0)
(57.9059 0.000114888 0)
(57.9061 0.00011491 0)
(57.9062 0.000114929 0)
(57.9063 0.000114946 0)
(57.9065 0.000114959 0)
(57.9066 0.000114967 0)
(57.9067 0.000114967 0)
(57.9068 0.000114958 0)
(57.907 0.000114935 0)
(57.9071 0.000114886 0)
(57.9073 0.000114825 0)
(57.9074 0.000114716 0)
(57.9075 0.000114561 0)
(57.9077 0.000114347 0)
(57.9078 0.000114033 0)
(57.9079 0.000113658 0)
(57.9081 0.000113274 0)
(57.9082 0.000112396 0)
(57.9084 0.000111642 0)
(57.9085 0.000110605 0)
(57.9087 0.000109324 0)
(57.9088 0.000107778 0)
(57.909 0.000105938 0)
(57.9091 0.00010378 0)
(57.9093 0.000101286 0)
(57.9094 9.84449e-05 0)
(57.9096 9.52522e-05 0)
(57.9097 9.17134e-05 0)
(57.9098 8.78436e-05 0)
(57.91 8.36676e-05 0)
(57.9101 7.92196e-05 0)
(57.9102 7.45425e-05 0)
(57.9103 6.96872e-05 0)
(57.9105 6.47093e-05 0)
(57.9106 5.96675e-05 0)
(57.9106 5.46237e-05 0)
(57.9107 4.96403e-05 0)
(57.9108 4.4766e-05 0)
(57.9109 4.00616e-05 0)
(57.9109 3.55741e-05 0)
(57.911 3.13391e-05 0)
(57.9111 2.7387e-05 0)
(57.9111 2.374e-05 0)
(57.9111 2.04114e-05 0)
(57.9112 1.74062e-05 0)
(57.9112 1.47217e-05 0)
(57.9112 1.23497e-05 0)
(57.9113 1.0274e-05 0)
(57.9113 8.47746e-06 0)
(57.9113 6.93885e-06 0)
(57.9113 5.63494e-06 0)
(57.9113 4.53781e-06 0)
(57.9113 3.62609e-06 0)
(57.9114 2.87641e-06 0)
(57.9114 2.26429e-06 0)
(57.9114 1.77014e-06 0)
(57.9114 1.37494e-06 0)
(57.9114 1.0618e-06 0)
(57.9114 8.16052e-07 0)
(57.9114 6.2498e-07 0)
(57.9115 4.77588e-07 0)
(57.9115 3.65203e-07 0)
(57.9115 2.80053e-07 0)
(57.9115 2.16091e-07 0)
(57.9115 1.68421e-07 0)
(57.9116 1.33145e-07 0)
(57.9116 1.07205e-07 0)
(57.9116 8.82461e-08 0)
(57.9117 7.44728e-08 0)
(57.9117 6.45209e-08 0)
(57.9117 5.73759e-08 0)
(57.9118 5.23234e-08 0)
(57.9118 4.87157e-08 0)
(57.9118 4.60809e-08 0)
(57.9119 4.46866e-08 0)
(57.9119 4.36962e-08 0)
(57.912 4.26936e-08 0)
(57.912 4.32442e-08 0)
(57.912 4.24383e-08 0)
(57.9121 4.42762e-08 0)
(57.9121 4.16267e-08 0)
(57.9121 4.27395e-08 0)
(57.9121 4.29822e-08 0)
(57.9122 4.20435e-08 0)
(57.9122 4.36604e-08 0)
(57.9122 4.33789e-08 0)
(57.9122 4.34621e-08 0)
(57.9122 4.36468e-08 0)
(57.9122 4.36044e-08 0)
(57.9122 4.38045e-08 0)
(57.9122 4.37994e-08 0)
(57.9122 4.40182e-08 0)
(57.9122 4.40985e-08 0)
(57.9122 4.42507e-08 0)
(57.9122 4.43725e-08 0)
(57.9122 4.44605e-08 0)
(57.9122 4.45548e-08 0)
(57.9121 4.46548e-08 0)
(57.9121 4.475e-08 0)
(57.9121 4.48445e-08 0)
(57.9121 4.4922e-08 0)
(57.9121 4.50369e-08 0)
(57.9121 4.5152e-08 0)
(57.912 4.52802e-08 0)
(57.912 4.54387e-08 0)
(57.912 4.56044e-08 0)
(57.912 4.57722e-08 0)
(57.912 4.59309e-08 0)
(57.912 4.60631e-08 0)
(57.9119 4.61956e-08 0)
(57.9119 4.62963e-08 0)
(57.9119 4.63876e-08 0)
(57.9119 4.64644e-08 0)
(57.9119 4.65362e-08 0)
(57.9119 4.66698e-08 0)
(57.9119 4.64935e-08 0)
(57.9119 4.67897e-08 0)
(57.9119 4.684e-08 0)
(57.9119 4.68881e-08 0)
(57.9119 4.69662e-08 0)
(57.912 4.70436e-08 0)
(57.912 4.716e-08 0)
(57.9121 4.72713e-08 0)
(57.9121 4.73699e-08 0)
(57.9122 4.75068e-08 0)
(57.9123 4.76147e-08 0)
(57.9124 4.77244e-08 0)
(57.9125 4.78819e-08 0)
(57.9126 4.80266e-08 0)
(57.9127 4.82086e-08 0)
(57.9128 4.84328e-08 0)
(57.9129 4.86412e-08 0)
(57.9131 4.89469e-08 0)
(57.9132 4.92377e-08 0)
(57.9134 4.95607e-08 0)
(57.9136 5.00181e-08 0)
(57.9137 5.0421e-08 0)
(57.9139 5.08116e-08 0)
(57.9141 5.10437e-08 0)
(57.9143 4.99309e-08 0)
(57.9145 4.88717e-08 0)
(57.9148 4.11444e-08 0)
(57.915 6.1019e-08 0)
(57.9152 2.56148e-07 0)
(57.9155 -1.71937e-07 0)
(57.9158 7.64777e-07 0)
(57.9161 2.03103e-06 0)
(57.9164 1.0554e-05 0)
(57.9167 5.08695e-05 0)
(57.9167 0.000243642 0)
(57.9154 0.00117356 0)
(57.9078 0.00562603 0)
(57.8714 0.0265889 0)
(57.7058 0.121181 0)
(57.1785 0.554035 0)
(53.1612 1.9829 0)
(57.9001 3.56557e-05 0)
(57.9002 2.77487e-05 0)
(57.9003 1.95213e-05 0)
(57.9004 1.62232e-05 0)
(57.9005 1.37056e-05 0)
(57.9006 1.15414e-05 0)
(57.9007 9.84077e-06 0)
(57.9008 8.4807e-06 0)
(57.9009 7.3584e-06 0)
(57.901 6.41738e-06 0)
(57.9011 5.62849e-06 0)
(57.9013 4.95101e-06 0)
(57.9014 4.37102e-06 0)
(57.9015 3.8701e-06 0)
(57.9016 3.43776e-06 0)
(57.9018 3.05897e-06 0)
(57.9019 2.72633e-06 0)
(57.902 2.44341e-06 0)
(57.9022 2.18577e-06 0)
(57.9023 1.96098e-06 0)
(57.9025 1.76055e-06 0)
(57.9026 1.58538e-06 0)
(57.9027 1.43372e-06 0)
(57.9029 1.29139e-06 0)
(57.903 1.16824e-06 0)
(57.9032 1.05963e-06 0)
(57.9034 9.62323e-07 0)
(57.9035 8.76051e-07 0)
(57.9037 7.99359e-07 0)
(57.9038 7.30576e-07 0)
(57.904 6.69848e-07 0)
(57.9041 6.14358e-07 0)
(57.9043 5.73284e-07 0)
(57.9044 5.26774e-07 0)
(57.9045 4.88115e-07 0)
(57.9047 4.51237e-07 0)
(57.9048 4.22889e-07 0)
(57.905 4.14641e-07 0)
(57.9051 3.64284e-07 0)
(57.9053 3.52019e-07 0)
(57.9054 3.34229e-07 0)
(57.9055 3.17645e-07 0)
(57.9057 3.03546e-07 0)
(57.9058 2.88285e-07 0)
(57.9059 2.77308e-07 0)
(57.906 2.67715e-07 0)
(57.9062 2.5857e-07 0)
(57.9063 2.50708e-07 0)
(57.9064 2.43774e-07 0)
(57.9066 2.3762e-07 0)
(57.9067 2.3211e-07 0)
(57.9068 2.27155e-07 0)
(57.907 2.2322e-07 0)
(57.9071 2.16757e-07 0)
(57.9072 2.12034e-07 0)
(57.9074 2.05879e-07 0)
(57.9075 1.97716e-07 0)
(57.9076 1.87987e-07 0)
(57.9078 1.70375e-07 0)
(57.9079 1.61719e-07 0)
(57.9081 1.80044e-07 0)
(57.9082 9.24362e-08 0)
(57.9084 8.81325e-08 0)
(57.9085 5.82318e-08 0)
(57.9087 1.85465e-08 0)
(57.9088 -2.73289e-08 0)
(57.909 -7.94753e-08 0)
(57.9091 -1.37535e-07 0)
(57.9093 -2.00863e-07 0)
(57.9094 -2.68489e-07 0)
(57.9095 -3.39133e-07 0)
(57.9097 -4.11274e-07 0)
(57.9098 -4.83144e-07 0)
(57.91 -5.5287e-07 0)
(57.9101 -6.18526e-07 0)
(57.9102 -6.7817e-07 0)
(57.9103 -7.29672e-07 0)
(57.9104 -7.71733e-07 0)
(57.9105 -8.03631e-07 0)
(57.9106 -8.24176e-07 0)
(57.9107 -8.32467e-07 0)
(57.9108 -8.3113e-07 0)
(57.9109 -8.18516e-07 0)
(57.9109 -7.94627e-07 0)
(57.911 -7.62499e-07 0)
(57.9111 -7.23145e-07 0)
(57.9111 -6.78073e-07 0)
(57.9111 -6.28826e-07 0)
(57.9112 -5.77077e-07 0)
(57.9112 -5.24347e-07 0)
(57.9112 -4.71758e-07 0)
(57.9113 -4.21048e-07 0)
(57.9113 -3.72725e-07 0)
(57.9113 -3.27346e-07 0)
(57.9113 -2.85333e-07 0)
(57.9113 -2.48092e-07 0)
(57.9113 -2.14778e-07 0)
(57.9114 -1.8527e-07 0)
(57.9114 -1.60031e-07 0)
(57.9114 -1.38514e-07 0)
(57.9114 -1.2044e-07 0)
(57.9114 -1.05519e-07 0)
(57.9114 -9.33719e-08 0)
(57.9114 -8.36352e-08 0)
(57.9115 -7.59863e-08 0)
(57.9115 -6.99317e-08 0)
(57.9115 -6.51731e-08 0)
(57.9115 -6.13756e-08 0)
(57.9115 -5.82849e-08 0)
(57.9116 -5.57271e-08 0)
(57.9116 -5.35963e-08 0)
(57.9116 -5.18087e-08 0)
(57.9117 -5.03033e-08 0)
(57.9117 -4.90259e-08 0)
(57.9117 -4.79769e-08 0)
(57.9118 -4.71288e-08 0)
(57.9118 -4.6409e-08 0)
(57.9118 -4.57824e-08 0)
(57.9119 -4.56677e-08 0)
(57.9119 -4.56283e-08 0)
(57.912 -4.5726e-08 0)
(57.912 -4.54468e-08 0)
(57.912 -4.56e-08 0)
(57.9121 -4.50893e-08 0)
(57.9121 -4.57899e-08 0)
(57.9121 -4.54664e-08 0)
(57.9121 -4.53775e-08 0)
(57.9122 -4.58546e-08 0)
(57.9122 -4.51079e-08 0)
(57.9122 -4.51944e-08 0)
(57.9122 -4.528e-08 0)
(57.9122 -4.51257e-08 0)
(57.9122 -4.53183e-08 0)
(57.9122 -4.51255e-08 0)
(57.9122 -4.52871e-08 0)
(57.9122 -4.49739e-08 0)
(57.9122 -4.5206e-08 0)
(57.9122 -4.51068e-08 0)
(57.9122 -4.50622e-08 0)
(57.9122 -4.50758e-08 0)
(57.9122 -4.50574e-08 0)
(57.9121 -4.50369e-08 0)
(57.9121 -4.50233e-08 0)
(57.9121 -4.49961e-08 0)
(57.9121 -4.4972e-08 0)
(57.9121 -4.49874e-08 0)
(57.9121 -4.50082e-08 0)
(57.912 -4.50648e-08 0)
(57.912 -4.5123e-08 0)
(57.912 -4.52262e-08 0)
(57.912 -4.53351e-08 0)
(57.912 -4.54092e-08 0)
(57.912 -4.55236e-08 0)
(57.9119 -4.56075e-08 0)
(57.9119 -4.57042e-08 0)
(57.9119 -4.57992e-08 0)
(57.9119 -4.59038e-08 0)
(57.9119 -4.60191e-08 0)
(57.9119 -4.61053e-08 0)
(57.9119 -4.62734e-08 0)
(57.9119 -4.63765e-08 0)
(57.9119 -4.65142e-08 0)
(57.9119 -4.66372e-08 0)
(57.9119 -4.67351e-08 0)
(57.912 -4.68734e-08 0)
(57.912 -4.69851e-08 0)
(57.9121 -4.70886e-08 0)
(57.9121 -4.72077e-08 0)
(57.9122 -4.72901e-08 0)
(57.9123 -4.7394e-08 0)
(57.9124 -4.75015e-08 0)
(57.9125 -4.75735e-08 0)
(57.9126 -4.77131e-08 0)
(57.9127 -4.78315e-08 0)
(57.9128 -4.79443e-08 0)
(57.9129 -4.81275e-08 0)
(57.9131 -4.82999e-08 0)
(57.9132 -4.84914e-08 0)
(57.9134 -4.87214e-08 0)
(57.9136 -4.8894e-08 0)
(57.9137 -4.9234e-08 0)
(57.9139 -4.96922e-08 0)
(57.9141 -5.06592e-08 0)
(57.9143 -5.43379e-08 0)
(57.9145 -5.58232e-08 0)
(57.9148 -7.4315e-08 0)
(57.915 1.12169e-08 0)
(57.9152 1.83735e-07 0)
(57.9155 -4.26414e-08 0)
(57.9158 7.52842e-07 0)
(57.9161 3.52736e-06 0)
(57.9164 1.72786e-05 0)
(57.9167 8.41214e-05 0)
(57.917 0.000404973 0)
(57.9167 0.00195306 0)
(57.9139 0.00937249 0)
(57.8992 0.0443864 0)
(57.8276 0.203182 0)
(57.5957 0.902169 0)
(55.1937 3.19791 0)
(57.9001 -3.56557e-05 0)
(57.9002 -2.77487e-05 0)
(57.9003 -1.95213e-05 0)
(57.9004 -1.62232e-05 0)
(57.9005 -1.37056e-05 0)
(57.9006 -1.15414e-05 0)
(57.9007 -9.84077e-06 0)
(57.9008 -8.4807e-06 0)
(57.9009 -7.3584e-06 0)
(57.901 -6.41738e-06 0)
(57.9011 -5.62849e-06 0)
(57.9013 -4.95101e-06 0)
(57.9014 -4.37102e-06 0)
(57.9015 -3.8701e-06 0)
(57.9016 -3.43776e-06 0)
(57.9018 -3.05897e-06 0)
(57.9019 -2.72633e-06 0)
(57.902 -2.44341e-06 0)
(57.9022 -2.18577e-06 0)
(57.9023 -1.96098e-06 0)
(57.9025 -1.76055e-06 0)
(57.9026 -1.58538e-06 0)
(57.9027 -1.43372e-06 0)
(57.9029 -1.29139e-06 0)
(57.903 -1.16824e-06 0)
(57.9032 -1.05963e-06 0)
(57.9034 -9.62323e-07 0)
(57.9035 -8.7605e-07 0)
(57.9037 -7.99359e-07 0)
(57.9038 -7.30576e-07 0)
(57.904 -6.69846e-07 0)
(57.9041 -6.14356e-07 0)
(57.9043 -5.73284e-07 0)
(57.9044 -5.26775e-07 0)
(57.9045 -4.88114e-07 0)
(57.9047 -4.51237e-07 0)
(57.9048 -4.22889e-07 0)
(57.905 -4.1464e-07 0)
(57.9051 -3.64284e-07 0)
(57.9053 -3.52018e-07 0)
(57.9054 -3.34227e-07 0)
(57.9055 -3.17645e-07 0)
(57.9057 -3.03546e-07 0)
(57.9058 -2.88284e-07 0)
(57.9059 -2.77307e-07 0)
(57.906 -2.67714e-07 0)
(57.9062 -2.58571e-07 0)
(57.9063 -2.5071e-07 0)
(57.9064 -2.43774e-07 0)
(57.9066 -2.37619e-07 0)
(57.9067 -2.3211e-07 0)
(57.9068 -2.27154e-07 0)
(57.907 -2.23221e-07 0)
(57.9071 -2.16757e-07 0)
(57.9072 -2.12034e-07 0)
(57.9074 -2.05879e-07 0)
(57.9075 -1.97715e-07 0)
(57.9076 -1.87988e-07 0)
(57.9078 -1.70375e-07 0)
(57.9079 -1.61718e-07 0)
(57.9081 -1.80043e-07 0)
(57.9082 -9.24367e-08 0)
(57.9084 -8.81333e-08 0)
(57.9085 -5.82329e-08 0)
(57.9087 -1.8548e-08 0)
(57.9088 2.73286e-08 0)
(57.909 7.94749e-08 0)
(57.9091 1.37536e-07 0)
(57.9093 2.00864e-07 0)
(57.9094 2.68489e-07 0)
(57.9095 3.39134e-07 0)
(57.9097 4.11275e-07 0)
(57.9098 4.83144e-07 0)
(57.91 5.5287e-07 0)
(57.9101 6.18527e-07 0)
(57.9102 6.7817e-07 0)
(57.9103 7.29674e-07 0)
(57.9104 7.71734e-07 0)
(57.9105 8.03631e-07 0)
(57.9106 8.24175e-07 0)
(57.9107 8.32465e-07 0)
(57.9108 8.3113e-07 0)
(57.9109 8.18517e-07 0)
(57.9109 7.94628e-07 0)
(57.911 7.625e-07 0)
(57.9111 7.23145e-07 0)
(57.9111 6.78073e-07 0)
(57.9111 6.28828e-07 0)
(57.9112 5.77078e-07 0)
(57.9112 5.24347e-07 0)
(57.9112 4.71759e-07 0)
(57.9113 4.21048e-07 0)
(57.9113 3.72725e-07 0)
(57.9113 3.27348e-07 0)
(57.9113 2.85333e-07 0)
(57.9113 2.48092e-07 0)
(57.9113 2.14778e-07 0)
(57.9114 1.85269e-07 0)
(57.9114 1.60031e-07 0)
(57.9114 1.38514e-07 0)
(57.9114 1.2044e-07 0)
(57.9114 1.05519e-07 0)
(57.9114 9.33712e-08 0)
(57.9114 8.36353e-08 0)
(57.9115 7.59854e-08 0)
(57.9115 6.99327e-08 0)
(57.9115 6.51739e-08 0)
(57.9115 6.13754e-08 0)
(57.9115 5.82842e-08 0)
(57.9116 5.57294e-08 0)
(57.9116 5.35968e-08 0)
(57.9116 5.1809e-08 0)
(57.9117 5.03027e-08 0)
(57.9117 4.90256e-08 0)
(57.9117 4.79764e-08 0)
(57.9118 4.71294e-08 0)
(57.9118 4.64089e-08 0)
(57.9118 4.57813e-08 0)
(57.9119 4.56675e-08 0)
(57.9119 4.56268e-08 0)
(57.912 4.57251e-08 0)
(57.912 4.54445e-08 0)
(57.912 4.55888e-08 0)
(57.9121 4.49064e-08 0)
(57.9121 4.5934e-08 0)
(57.9121 4.55387e-08 0)
(57.9121 4.54259e-08 0)
(57.9122 4.53992e-08 0)
(57.9122 4.53021e-08 0)
(57.9122 4.53405e-08 0)
(57.9122 4.51989e-08 0)
(57.9122 4.53362e-08 0)
(57.9122 4.51219e-08 0)
(57.9122 4.53298e-08 0)
(57.9122 4.5037e-08 0)
(57.9122 4.53435e-08 0)
(57.9122 4.49728e-08 0)
(57.9122 4.51079e-08 0)
(57.9122 4.51217e-08 0)
(57.9122 4.50663e-08 0)
(57.9122 4.5054e-08 0)
(57.9121 4.50402e-08 0)
(57.9121 4.50192e-08 0)
(57.9121 4.50057e-08 0)
(57.9121 4.4972e-08 0)
(57.9121 4.49852e-08 0)
(57.9121 4.50165e-08 0)
(57.912 4.50511e-08 0)
(57.912 4.5138e-08 0)
(57.912 4.52265e-08 0)
(57.912 4.53149e-08 0)
(57.912 4.54352e-08 0)
(57.912 4.55113e-08 0)
(57.9119 4.56074e-08 0)
(57.9119 4.5704e-08 0)
(57.9119 4.58024e-08 0)
(57.9119 4.59097e-08 0)
(57.9119 4.60139e-08 0)
(57.9119 4.61065e-08 0)
(57.9119 4.6274e-08 0)
(57.9119 4.63921e-08 0)
(57.9119 4.64995e-08 0)
(57.9119 4.66249e-08 0)
(57.9119 4.67569e-08 0)
(57.912 4.68656e-08 0)
(57.912 4.69821e-08 0)
(57.9121 4.70917e-08 0)
(57.9121 4.71999e-08 0)
(57.9122 4.73031e-08 0)
(57.9123 4.73942e-08 0)
(57.9124 4.74872e-08 0)
(57.9125 4.75934e-08 0)
(57.9126 4.77088e-08 0)
(57.9127 4.7823e-08 0)
(57.9128 4.79651e-08 0)
(57.9129 4.81151e-08 0)
(57.9131 4.82724e-08 0)
(57.9132 4.84912e-08 0)
(57.9134 4.86882e-08 0)
(57.9136 4.89258e-08 0)
(57.9137 4.91589e-08 0)
(57.9139 4.92374e-08 0)
(57.9141 4.86285e-08 0)
(57.9143 4.33599e-08 0)
(57.9145 4.53887e-08 0)
(57.9148 5.35566e-09 0)
(57.915 1.63503e-07 0)
(57.9152 1.23204e-07 0)
(57.9155 4.21486e-07 0)
(57.9158 7.06984e-07 0)
(57.9161 3.75278e-06 0)
(57.9164 1.73331e-05 0)
(57.9168 8.41393e-05 0)
(57.9173 0.000406986 0)
(57.9183 0.00197164 0)
(57.9215 0.00956404 0)
(57.9343 0.0460204 0)
(57.986 0.216744 0)
(58.1696 1.02379 0)
(58.8721 3.59471 0)
(57.9001 -0.000118903 0)
(57.9002 -0.000103119 0)
(57.9003 -0.000100138 0)
(57.9004 -0.000104048 0)
(57.9005 -0.000106178 0)
(57.9006 -0.000107393 0)
(57.9007 -0.000108426 0)
(57.9008 -0.000109303 0)
(57.9009 -0.00011003 0)
(57.901 -0.000110637 0)
(57.9012 -0.000111162 0)
(57.9013 -0.000111599 0)
(57.9014 -0.000111975 0)
(57.9015 -0.000112299 0)