/*--------------------------------*- C++ -*----------------------------------*\
| =========                 |                                                 |
| \\      /  F ield         | OpenFOAM: The Open Source CFD Toolbox           |
|  \\    /   O peration     | Version:  3.0.x                                 |
|   \\  /    A nd           | Web:      www.OpenFOAM.org                      |
|    \\/     M anipulation  |                                                 |
\*---------------------------------------------------------------------------*/
FoamFile
{
    version     2.0;
    format      ascii;
    class       surfaceScalarField;
    location    "0.95";
    object      phi;
}
// * * * * * * * * * * * * * * * * * * * * * * * * * * * * * * * * * * * * * //

dimensions      [1 0 -1 0 0 0 0];

internalField   nonuniform List<scalar> 
999
(
2523.38
2523.38
2523.38
2523.38
2523.38
2523.38
2523.38
2523.38
2523.38
2523.38
2523.38
2523.38
2523.38
2523.38
2523.38
2523.38
2523.38
2523.38
2523.38
2523.38
2523.38
2523.38
2523.38
2523.38
2523.38
2523.38
2523.38
2523.38
2523.38
2523.38
2523.38
2523.38
2523.38
2523.38
2523.38
2523.38
2523.38
2523.38
2523.38
2523.38
2523.38
2523.38
2523.38
2523.38
2523.38
2523.38
2523.38
2523.38
2523.38
2523.38
2523.38
2523.38
2523.38
2523.38
2523.38
2523.38
2523.38
2523.38
2523.38
2523.38
2523.38
2523.38
2523.38
2523.38
2523.38
2523.38
2523.38
2523.38
2523.38
2523.38
2523.38
2523.38
2523.38
2523.38
2523.38
2523.38
2523.38
2523.38
2523.38
2523.38
2523.38
2523.38
2523.38
2523.38
2523.38
2523.38
2523.38
2523.38
2523.38
2523.38
2523.38
2523.38
2523.38
2523.38
2523.38
2523.38
2523.38
2523.38
2523.38
2523.38
2523.38
2523.38
2523.38
2523.38
2523.38
2523.38
2523.38
2523.38
2523.38
2523.38
2523.38
2523.38
2523.38
2523.38
2523.38
2523.38
2523.38
2523.38
2523.38
2523.38
2523.38
2523.38
2523.38
2523.38
2523.38
2523.38
2523.38
2523.38
2523.38
2523.38
2523.38
2523.38
2523.38
2523.38
2523.38
2523.38
2523.38
2523.38
2523.38
2523.38
2523.38
2523.38
2523.38
2523.38
2523.38
2523.38
2523.38
2523.38
2523.38
2523.38
2523.38
2523.38
2523.38
2523.38
2523.38
2523.38
2523.38
2523.38
2523.38
2523.38
2523.38
2523.38
2523.38
2523.38
2523.38
2523.38
2523.38
2523.38
2523.38
2523.38
2523.38
2523.38
2523.38
2523.38
2523.38
2523.38
2523.38
2523.38
2523.38
2523.38
2523.38
2523.38
2523.38
2523.38
2523.38
2523.38
2523.38
2523.38
2523.38
2523.38
2523.38
2523.38
2523.38
2523.38
2523.38
2523.38
2523.38
2523.38
2523.38
2523.38
2523.38
2523.38
2523.38
2523.38
2523.38
2523.38
2523.38
2523.38
2523.38
2523.38
2523.38
2523.38
2523.38
2523.38
2523.38
2523.38
2523.38
2523.38
2523.38
2523.38
2523.38
2523.38
2523.38
2523.38
2523.38
2523.38
2523.38
2523.38
2523.38
2523.38
2523.38
2523.38
2523.38
2523.38
2523.38
2523.38
2523.38
2523.38
2523.38
2523.38
2523.38
2523.38
2523.38
2523.38
2523.38
2523.38
2523.38
2523.38
2523.38
2523.38
2523.38
2523.38
2523.38
2523.38
2523.38
2523.38
2523.38
2523.38
2523.38
2523.38
2523.38
2523.38
2523.38
2523.38
2523.38
2523.38
2523.38
2523.38
2523.38
2523.38
2523.38
2523.38
2523.38
2523.38
2523.38
2523.38
2523.38
2523.38
2523.38
2523.38
2523.38
2523.38
2523.38
2523.38
2523.38
2523.38
2523.38
2523.38
2523.38
2523.38
2523.38
2523.38
2523.38
2523.38
2523.38
2523.38
2523.38
2523.38
2523.38
2523.38
2523.38
2523.38
2523.38
2523.38
2523.38
2523.38
2523.38
2523.38
2523.38
2523.38
2523.38
2523.38
2523.38
2523.38
2523.38
2523.38
2523.38
2523.38
2523.38
2523.38
2523.38
2523.38
2523.38
2523.38
2523.38
2523.38
2523.38
2523.38
2523.38
2523.38
2523.38
2523.38
2523.38
2523.38
2523.38
2523.38
2523.38
2523.38
2523.38
2523.38
2523.38
2523.38
2523.38
2523.38
2523.38
2523.38
2523.38
2523.38
2523.38
2523.38
2523.38
2523.38
2523.38
2523.38
2523.38
2523.38
2523.38
2523.38
2523.38
2523.38
2523.38
2523.38
2523.38
2523.38
2523.38
2523.38
2523.38
2523.38
2523.38
2523.38
2523.38
2523.38
2523.38
2523.38
2523.38
2523.38
2523.38
2523.38
2523.38
2523.38
2523.38
2523.38
2523.38
2523.38
2523.38
2523.38
2523.38
2523.38
2523.38
2523.38
2523.38
2523.38
2523.38
2523.38
2523.38
2523.38
2523.38
2523.38
2523.38
2523.38
2523.38
2523.38
2523.38
2523.38
2523.38
2523.38
2523.38
2523.38
2523.38
2523.38
2523.38
2523.38
2523.38
2523.38
2523.38
2523.38
2523.38
2523.38
2523.38
2523.38
2523.38
2523.38
2523.38
2523.38
2523.38
2523.38
2523.38
2523.38
2523.38
2523.38
2523.38
2523.38
2523.38
2523.38
2523.38
2523.38
2523.38
2523.38
2523.38
2523.38
2523.38
2523.38
2523.38
2523.38
2523.38
2523.38
2523.38
2523.38
2523.38
2523.38
2523.38
2523.38
2523.38
2523.38
2523.38
2523.38
2523.38
2523.38
2523.38
2523.38
2523.38
2523.38
2523.38
2523.38
2523.38
2523.38
2523.38
2523.38
2523.38
2523.38
2523.38
2523.38
2523.38
2523.38
2523.38
2523.38
2523.38
2523.38
2523.38
2523.38
2523.38
2523.37
2523.37
2523.37
2523.37
2523.36
2523.35
2523.35
2523.34
2523.33
2523.31
2523.3
2523.28
2523.25
2523.22
2523.19
2523.14
2523.09
2523.02
2522.95
2522.85
2522.74
2522.61
2522.46
2522.27
2522.05
2521.8
2521.5
2521.14
2520.73
2520.25
2519.69
2519.04
2518.29
2517.43
2516.43
2515.29
2513.98
2512.48
2510.77
2508.83
2506.63
2504.14
2501.33
2498.17
2494.61
2490.63
2486.17
2481.2
2475.66
2469.51
2462.7
2455.16
2446.86
2437.71
2427.67
2416.67
2404.65
2391.53
2377.27
2361.79
2345.03
2326.92
2307.41
2286.45
2263.97
2239.93
2214.29
2187.01
2158.07
2127.46
2095.16
2061.17
2025.52
1988.22
1949.32
1908.86
1866.92
1823.56
1778.87
1732.95
1685.91
1637.86
1588.92
1539.24
1488.94
1438.15
1387.03
1335.7
1284.31
1232.99
1181.87
1131.09
1080.76
1031.01
981.929
933.633
886.214
839.76
794.351
750.058
706.948
665.077
624.497
585.25
547.373
510.895
475.841
442.226
410.062
379.354
350.101
322.296
295.929
270.982
247.436
225.264
204.436
184.921
166.68
149.674
133.86
119.194
105.628
93.1147
81.6043
71.0464
61.3906
52.5864
44.5837
37.3333
30.7875
24.8998
19.6262
14.9249
10.7568
7.08641
3.88285
1.12221
-1.21275
-2.84096
-4.28093
-5.53526
-6.61442
-7.53698
-8.32523
-8.99641
-9.56442
-10.0417
-10.44
-10.7699
-11.0415
-11.2633
-11.4428
-11.5868
-11.7009
-11.7901
-11.8587
-11.9104
-11.9483
-11.9751
-11.993
-12.0038
-12.0092
-12.0103
-12.0082
-12.0036
-11.9974
-11.99
-11.9819
-11.9733
-11.9645
-11.9558
-11.9472
-11.939
-11.9312
-11.924
-11.9172
-11.911
-11.9052
-11.8997
-11.8945
-11.8894
-11.8845
-11.8797
-11.875
-11.8705
-11.8662
-11.862
-11.858
-11.8542
-11.8505
-11.8468
-11.8432
-11.8395
-11.8358
-11.832
-11.8282
-11.8245
-11.8208
-11.8173
-11.8138
-11.8106
-11.8074
-11.8044
-11.8016
-11.7989
-11.7964
-11.794
-11.7916
-11.7895
-11.7874
-11.7854
-11.7835
-11.7816
-11.7799
-11.7783
-11.7768
-11.7754
-11.7741
-11.773
-11.772
-11.7712
-11.7705
-11.77
-11.7696
-11.7693
-11.769
-11.7688
-11.7686
-11.7683
-11.768
-11.7676
-11.7672
-11.7667
-11.7662
-11.7656
-11.7649
-11.7641
-11.7633
-11.7624
-11.7613
-11.7602
-11.7589
-11.7576
-11.7561
-11.7546
-11.7531
-11.7516
-11.75
-11.7485
-11.747
-11.7456
-11.7442
-11.7429
-11.7417
-11.7405
-11.7394
-11.7383
-11.7373
-11.7364
-11.7355
-11.7347
-11.7339
-11.7333
-11.7327
-11.7321
-11.7317
-11.7314
-11.7311
-11.731
-11.731
-11.7311
-11.7312
-11.7315
-11.7318
-11.7322
-11.7326
-11.733
-11.7335
-11.7339
-11.7343
-11.7346
-11.7349
-11.7352
-11.7353
-11.7354
-11.7354
-11.7353
-11.7352
-11.7349
-11.7345
-11.7341
-11.7335
-11.7329
-11.7322
-11.7314
-11.7306
-11.7297
-11.7288
-11.7279
-11.727
-11.7262
-11.7253
-11.7244
-11.7236
-11.7228
-11.722
-11.7213
-11.7206
-11.72
-11.7193
-11.7187
-11.7182
-11.7177
-11.7172
-11.7168
-11.7165
-11.7162
-11.716
-11.7158
-11.7158
-11.7158
-11.7159
-11.716
-11.7163
-11.7165
-11.7169
-11.7172
-11.7176
-11.718
-11.7185
-11.7189
-11.7193
-11.7196
-11.7199
-11.7202
-11.7204
-11.7206
-11.7207
-11.7208
-11.7207
-11.7206
-11.7204
-11.7202
-11.7198
-11.7194
-11.719
-11.7185
-11.7179
-11.7174
-11.7168
-11.7162
-11.7155
-11.7149
-11.7143
-11.7137
-11.7132
-11.7126
-11.7121
-11.7116
-11.7111
-11.7107
-11.7103
-11.71
-11.7097
-11.7094
-11.7092
-11.709
-11.7089
-11.7088
-11.7088
-11.7088
-11.7089
-11.7091
-11.7093
-11.7096
-11.71
-11.7104
-11.7109
-11.7114
-11.712
-11.7126
-11.7132
-11.7139
-11.7146
-11.7153
-11.7159
-11.7166
-11.7172
-11.7178
-11.7183
-11.7189
-11.7193
-11.7197
-11.72
-11.7203
-11.7205
-11.7206
-11.7207
-11.7207
-11.7206
-11.7205
-11.7204
-11.7202
-11.72
-11.7197
-11.7194
-11.7192
-11.7189
-11.7186
-11.7183
-11.718
-11.7178
-11.7175
-11.7173
-11.7171
-11.7169
-11.7168
-11.7166
-11.7165
-11.7164
-11.7163
-11.7162
-11.7162
-11.7161
-11.7161
-11.7161
-11.7161
-11.7161
-11.7161
-11.7161
-11.7162
-11.7162
-11.7163
-11.7164
-11.7165
-11.7166
-11.7167
-11.7169
-11.717
-11.7172
-11.7173
-11.7175
-11.7176
-11.7177
-11.7178
-11.7179
-11.7179
-11.718
-11.718
-11.7179
-11.7178
-11.7177
-11.7175
-11.7173
-11.7171
-11.7168
-11.7165
-11.7162
-11.7158
-11.7154
-11.715
-11.7146
-11.7141
-11.7137
-11.7132
-11.7128
-11.7123
-11.7119
-11.7114
-11.711
-11.7106
-11.7103
-11.7099
-11.7096
-11.7093
-11.7091
-11.7088
-11.7086
-11.7085
-11.7083
-11.7082
-11.7081
-11.7081
-11.7081
-11.7081
-11.7082
-11.7083
-11.7084
-11.7086
-11.7088
-11.7091
-11.7094
-11.7097
-11.7101
-11.7106
-11.7111
-11.7116
-11.7122
-11.7128
-11.7135
-11.7142
-11.7149
-11.7156
-11.7163
-11.7171
-11.7178
-11.7185
-11.7192
-11.7198
-11.7204
-11.721
-11.7215
-11.7219
-11.7223
-11.7226
-11.7227
-11.723
)
;

boundaryField
{
    inlet
    {
        type            calculated;
        value           uniform -2523.38;
    }
    backWall
    {
        type            calculated;
        value           uniform -11.7231;
    }
    sides
    {
        type            empty;
        value           nonuniform 0();
    }
}


// ************************************************************************* //
