/*--------------------------------*- C++ -*----------------------------------*\
| =========                 |                                                 |
| \\      /  F ield         | OpenFOAM: The Open Source CFD Toolbox           |
|  \\    /   O peration     | Version:  3.0.x                                 |
|   \\  /    A nd           | Web:      www.OpenFOAM.org                      |
|    \\/     M anipulation  |                                                 |
\*---------------------------------------------------------------------------*/
FoamFile
{
    version     2.0;
    format      ascii;
    class       volVectorField;
    location    "0.95";
    object      U;
}
// * * * * * * * * * * * * * * * * * * * * * * * * * * * * * * * * * * * * * //

dimensions      [0 1 -1 0 0 0 0];

internalField   nonuniform List<vector> 
1000
(
(50 0 0)
(50 0 0)
(50 0 0)
(50 0 0)
(50 0 0)
(50 0 0)
(50 0 0)
(50 0 0)
(50 0 0)
(50 0 0)
(50 0 0)
(50 0 0)
(50 0 0)
(50 0 0)
(50 0 0)
(50 0 0)
(50 0 0)
(50 0 0)
(50 0 0)
(50 0 0)
(50 0 0)
(50 0 0)
(50 0 0)
(50 0 0)
(50 0 0)
(50 0 0)
(50 0 0)
(50 0 0)
(50 0 0)
(50 0 0)
(50 0 0)
(50 0 0)
(50 0 0)
(50 0 0)
(50 0 0)
(50 0 0)
(50 0 0)
(50 0 0)
(50 0 0)
(50 0 0)
(50 0 0)
(50 0 0)
(50 0 0)
(50 0 0)
(50 0 0)
(50 0 0)
(50 0 0)
(50 0 0)
(50 0 0)
(50 0 0)
(50 0 0)
(50 0 0)
(50 0 0)
(50 0 0)
(50 0 0)
(50 0 0)
(50 0 0)
(50 0 0)
(50 0 0)
(50 0 0)
(50 0 0)
(50 0 0)
(50 0 0)
(50 0 0)
(50 0 0)
(50 0 0)
(50 0 0)
(50 0 0)
(50 0 0)
(50 0 0)
(50 0 0)
(50 0 0)
(50 0 0)
(50 0 0)
(50 0 0)
(50 0 0)
(50 0 0)
(50 0 0)
(50 0 0)
(50 0 0)
(50 0 0)
(50 0 0)
(50 0 0)
(50 0 0)
(50 0 0)
(50 0 0)
(50 0 0)
(50 0 0)
(50 0 0)
(50 0 0)
(50 0 0)
(50 0 0)
(50 0 0)
(50 0 0)
(50 0 0)
(50 0 0)
(50 0 0)
(50 0 0)
(50 0 0)
(50 0 0)
(50 0 0)
(50 0 0)
(50 0 0)
(50 0 0)
(50 0 0)
(50 0 0)
(50 0 0)
(50 0 0)
(50 0 0)
(50 0 0)
(50 0 0)
(50 0 0)
(50 0 0)
(50 0 0)
(50 0 0)
(50 0 0)
(50 0 0)
(50 0 0)
(50 0 0)
(50 0 0)
(50 0 0)
(50 0 0)
(50 0 0)
(50 0 0)
(50 0 0)
(50 0 0)
(50 0 0)
(50 0 0)
(50 0 0)
(50 0 0)
(50 0 0)
(50 0 0)
(50 0 0)
(50 0 0)
(50 0 0)
(50 0 0)
(50 0 0)
(50 0 0)
(50 0 0)
(50 0 0)
(50 0 0)
(50 0 0)
(50 0 0)
(50 0 0)
(50 0 0)
(50 0 0)
(50 0 0)
(50 0 0)
(50 0 0)
(50 0 0)
(50 0 0)
(50 0 0)
(50 0 0)
(50 0 0)
(50 0 0)
(50 0 0)
(50 0 0)
(50 0 0)
(50 0 0)
(50 0 0)
(50 0 0)
(50 0 0)
(50 0 0)
(50 0 0)
(50 0 0)
(50 0 0)
(50 0 0)
(50 0 0)
(50 0 0)
(50 0 0)
(50 0 0)
(50 0 0)
(50 0 0)
(50 0 0)
(50 0 0)
(50 0 0)
(50 0 0)
(50 0 0)
(50 0 0)
(50 0 0)
(50 0 0)
(50 0 0)
(50 0 0)
(50 0 0)
(50 0 0)
(50 0 0)
(50 0 0)
(50 0 0)
(50 0 0)
(50 0 0)
(50 0 0)
(50 0 0)
(50 0 0)
(50 0 0)
(50 0 0)
(50 0 0)
(50 0 0)
(50 0 0)
(50 0 0)
(50 0 0)
(50 0 0)
(50 0 0)
(50 0 0)
(50 0 0)
(50 0 0)
(50 0 0)
(50 0 0)
(50 0 0)
(50 0 0)
(50 0 0)
(50 0 0)
(50 0 0)
(50 0 0)
(50 0 0)
(50 0 0)
(50 0 0)
(50 0 0)
(50 0 0)
(50 0 0)
(50 0 0)
(50 0 0)
(50 0 0)
(50 0 0)
(50 0 0)
(50 0 0)
(50 0 0)
(50 0 0)
(50 0 0)
(50 0 0)
(50 0 0)
(50 0 0)
(50 0 0)
(50 0 0)
(50 0 0)
(50 0 0)
(50 0 0)
(50 0 0)
(50 0 0)
(50 0 0)
(50 0 0)
(50 0 0)
(50 0 0)
(50 0 0)
(50 0 0)
(50 0 0)
(50 0 0)
(50 0 0)
(50 0 0)
(50 0 0)
(50 0 0)
(50 0 0)
(50 0 0)
(50 0 0)
(50 0 0)
(50 0 0)
(50 0 0)
(50 0 0)
(50 0 0)
(50 0 0)
(50 0 0)
(50 0 0)
(50 0 0)
(50 0 0)
(50 0 0)
(50 0 0)
(50 0 0)
(50 0 0)
(50 0 0)
(50 0 0)
(50 0 0)
(50 0 0)
(50 0 0)
(50 0 0)
(50 0 0)
(50 0 0)
(50 0 0)
(50 0 0)
(50 0 0)
(50 0 0)
(50 0 0)
(50 0 0)
(50 0 0)
(50 0 0)
(50 0 0)
(50 0 0)
(50 0 0)
(50 0 0)
(50 0 0)
(50 0 0)
(50 0 0)
(50 0 0)
(50 0 0)
(50 0 0)
(50 0 0)
(50 0 0)
(50 0 0)
(50 0 0)
(50 0 0)
(50 0 0)
(50 0 0)
(50 0 0)
(50 0 0)
(50 0 0)
(50 0 0)
(50 0 0)
(50 0 0)
(50 0 0)
(50 0 0)
(50 0 0)
(50 0 0)
(50 0 0)
(50 0 0)
(50 0 0)
(50 0 0)
(50 0 0)
(50 0 0)
(50 0 0)
(50 0 0)
(50 0 0)
(50 0 0)
(50 0 0)
(50 0 0)
(50 0 0)
(50 0 0)
(50 0 0)
(50 0 0)
(50 0 0)
(50 0 0)
(50 0 0)
(50 0 0)
(50 0 0)
(50 0 0)
(50 0 0)
(50 0 0)
(50 0 0)
(50 0 0)
(50 0 0)
(50 0 0)
(50 0 0)
(50 0 0)
(50 0 0)
(50 0 0)
(50 0 0)
(50 0 0)
(50 0 0)
(50 0 0)
(50 0 0)
(50 0 0)
(50 0 0)
(50 0 0)
(50 0 0)
(50 0 0)
(50 0 0)
(50 0 0)
(50 0 0)
(50 0 0)
(50 0 0)
(50 0 0)
(50 0 0)
(50 0 0)
(50 0 0)
(50 0 0)
(50 0 0)
(50 0 0)
(50 0 0)
(50 0 0)
(50 0 0)
(50 0 0)
(50 0 0)
(50 0 0)
(50 0 0)
(50 0 0)
(50 0 0)
(50 0 0)
(50 0 0)
(50 0 0)
(50 0 0)
(50 0 0)
(50 0 0)
(50 0 0)
(50 0 0)
(50 0 0)
(50 0 0)
(50 0 0)
(50 0 0)
(50 0 0)
(50 0 0)
(50 0 0)
(50 0 0)
(50 0 0)
(50 0 0)
(50 0 0)
(50 0 0)
(50 0 0)
(50 0 0)
(50 0 0)
(50 0 0)
(50 0 0)
(50 0 0)
(50 0 0)
(50 0 0)
(50 0 0)
(50 0 0)
(50 0 0)
(50 0 0)
(50 0 0)
(50 0 0)
(50 0 0)
(50 0 0)
(50 0 0)
(50 0 0)
(50 0 0)
(50 0 0)
(50 0 0)
(50 0 0)
(50 0 0)
(50 0 0)
(50 0 0)
(50 0 0)
(50 0 0)
(50 0 0)
(50 0 0)
(50 0 0)
(50 0 0)
(50 0 0)
(50 0 0)
(50 0 0)
(50 0 0)
(50 0 0)
(50 0 0)
(50 0 0)
(50 0 0)
(50 0 0)
(50 0 0)
(50 0 0)
(50 0 0)
(50 0 0)
(50 0 0)
(50 0 0)
(50 0 0)
(50 0 0)
(50 0 0)
(50 0 0)
(50 0 0)
(50 0 0)
(50 0 0)
(50 0 0)
(50 0 0)
(50 0 0)
(50 0 0)
(50 0 0)
(50 0 0)
(50 0 0)
(50 0 0)
(50 0 0)
(50 0 0)
(50 0 0)
(50 0 0)
(50 0 0)
(50 0 0)
(50 0 0)
(50 0 0)
(50 0 0)
(50 0 0)
(50 0 0)
(50 0 0)
(50 0 0)
(50 0 0)
(50 0 0)
(50 0 0)
(50 0 0)
(50 0 0)
(50 0 0)
(50 0 0)
(50 0 0)
(50 0 0)
(49.9999 0 0)
(49.9999 0 0)
(49.9999 0 0)
(49.9999 0 0)
(49.9999 0 0)
(49.9998 0 0)
(49.9998 0 0)
(49.9997 0 0)
(49.9997 0 0)
(49.9996 0 0)
(49.9994 0 0)
(49.9993 0 0)
(49.9991 0 0)
(49.9989 0 0)
(49.9987 0 0)
(49.9983 0 0)
(49.9979 0 0)
(49.9975 0 0)
(49.9969 0 0)
(49.9962 0 0)
(49.9953 0 0)
(49.9942 0 0)
(49.993 0 0)
(49.9915 0 0)
(49.9897 0 0)
(49.9875 0 0)
(49.9849 0 0)
(49.9818 0 0)
(49.9782 0 0)
(49.9739 0 0)
(49.9688 0 0)
(49.9628 0 0)
(49.9558 0 0)
(49.9476 0 0)
(49.9381 0 0)
(49.9269 0 0)
(49.914 0 0)
(49.899 0 0)
(49.8817 0 0)
(49.8618 0 0)
(49.8389 0 0)
(49.8126 0 0)
(49.7826 0 0)
(49.7483 0 0)
(49.7093 0 0)
(49.665 0 0)
(49.6148 0 0)
(49.5581 0 0)
(49.4942 0 0)
(49.4223 0 0)
(49.3417 0 0)
(49.2515 0 0)
(49.1507 0 0)
(49.0384 0 0)
(48.9136 0 0)
(48.7752 0 0)
(48.6221 0 0)
(48.4531 0 0)
(48.267 0 0)
(48.0626 0 0)
(47.8386 0 0)
(47.5936 0 0)
(47.3263 0 0)
(47.0355 0 0)
(46.7198 0 0)
(46.3779 0 0)
(46.0086 0 0)
(45.6107 0 0)
(45.183 0 0)
(44.7246 0 0)
(44.2344 0 0)
(43.7118 0 0)
(43.156 0 0)
(42.5667 0 0)
(41.9435 0 0)
(41.2863 0 0)
(40.5954 0 0)
(39.8712 0 0)
(39.1142 0 0)
(38.3254 0 0)
(37.506 0 0)
(36.6573 0 0)
(35.7811 0 0)
(34.8792 0 0)
(33.9536 0 0)
(33.0068 0 0)
(32.0412 0 0)
(31.0593 0 0)
(30.0639 0 0)
(29.0578 0 0)
(28.0438 0 0)
(27.0248 0 0)
(26.0036 0 0)
(24.983 0 0)
(23.9657 0 0)
(22.9544 0 0)
(21.9514 0 0)
(20.9593 0 0)
(19.9802 0 0)
(19.0163 0 0)
(18.0695 0 0)
(17.1414 0 0)
(16.2339 0 0)
(15.3482 0 0)
(14.4857 0 0)
(13.6475 0 0)
(12.8346 0 0)
(12.0479 0 0)
(11.288 0 0)
(10.5556 0 0)
(9.85102 0 0)
(9.17465 0 0)
(8.52667 0 0)
(7.9072 0 0)
(7.3162 0 0)
(6.75357 0 0)
(6.21909 0 0)
(5.71247 0 0)
(5.23332 0 0)
(4.78116 0 0)
(4.35545 0 0)
(3.95557 0 0)
(3.58086 0 0)
(3.23057 0 0)
(2.90391 0 0)
(2.60005 0 0)
(2.31813 0 0)
(2.05723 0 0)
(1.81643 0 0)
(1.59478 0 0)
(1.39133 0 0)
(1.20512 0 0)
(1.03519 0 0)
(0.880591 0 0)
(0.740397 0 0)
(0.613701 0 0)
(0.499631 0 0)
(0.397353 0 0)
(0.306081 0 0)
(0.225085 0 0)
(0.153707 0 0)
(0.0913931 0 0)
(0.0377875 0 0)
(-0.00604429 0 0)
(-0.0401218 0 0)
(-0.0681711 0 0)
(-0.0928102 0 0)
(-0.114115 0 0)
(-0.132492 0 0)
(-0.148383 0 0)
(-0.161905 0 0)
(-0.173311 0 0)
(-0.182897 0 0)
(-0.190903 0 0)
(-0.197541 0 0)
(-0.203008 0 0)
(-0.207475 0 0)
(-0.211093 0 0)
(-0.213993 0 0)
(-0.216286 0 0)
(-0.218076 0 0)
(-0.219432 0 0)
(-0.220455 0 0)
(-0.221141 0 0)
(-0.221538 0 0)
(-0.22187 0 0)
(-0.222125 0 0)
(-0.222245 0 0)
(-0.222271 0 0)
(-0.222251 0 0)
(-0.222121 0 0)
(-0.222019 0 0)
(-0.222003 0 0)
(-0.221897 0 0)
(-0.221746 0 0)
(-0.221579 0 0)
(-0.221402 0 0)
(-0.221222 0 0)
(-0.221044 0 0)
(-0.22087 0 0)
(-0.220703 0 0)
(-0.220543 0 0)
(-0.220393 0 0)
(-0.220245 0 0)
(-0.220112 0 0)
(-0.219952 0 0)
(-0.219855 0 0)
(-0.219645 0 0)
(-0.219444 0 0)
(-0.219395 0 0)
(-0.219284 0 0)
(-0.219191 0 0)
(-0.21909 0 0)
(-0.219023 0 0)
(-0.218888 0 0)
(-0.218832 0 0)
(-0.218853 0 0)
(-0.218775 0 0)
(-0.218709 0 0)
(-0.218634 0 0)
(-0.218556 0 0)
(-0.218475 0 0)
(-0.218393 0 0)
(-0.21831 0 0)
(-0.218229 0 0)
(-0.218148 0 0)
(-0.218069 0 0)
(-0.217991 0 0)
(-0.217918 0 0)
(-0.217838 0 0)
(-0.217773 0 0)
(-0.217695 0 0)
(-0.217574 0 0)
(-0.217513 0 0)
(-0.217479 0 0)
(-0.217426 0 0)
(-0.217377 0 0)
(-0.21734 0 0)
(-0.217287 0 0)
(-0.21723 0 0)
(-0.217238 0 0)
(-0.217234 0 0)
(-0.217199 0 0)
(-0.217175 0 0)
(-0.217147 0 0)
(-0.217122 0 0)
(-0.217098 0 0)
(-0.217076 0 0)
(-0.217057 0 0)
(-0.217039 0 0)
(-0.217023 0 0)
(-0.217007 0 0)
(-0.216994 0 0)
(-0.216974 0 0)
(-0.216968 0 0)
(-0.216925 0 0)
(-0.216944 0 0)
(-0.216882 0 0)
(-0.216815 0 0)
(-0.216848 0 0)
(-0.216813 0 0)
(-0.216802 0 0)
(-0.216775 0 0)
(-0.21677 0 0)
(-0.216726 0 0)
(-0.216698 0 0)
(-0.216719 0 0)
(-0.216696 0 0)
(-0.21667 0 0)
(-0.216643 0 0)
(-0.216613 0 0)
(-0.216581 0 0)
(-0.216548 0 0)
(-0.216514 0 0)
(-0.21648 0 0)
(-0.216447 0 0)
(-0.216414 0 0)
(-0.216382 0 0)
(-0.21635 0 0)
(-0.216321 0 0)
(-0.216287 0 0)
(-0.216267 0 0)
(-0.216219 0 0)
(-0.216221 0 0)
(-0.216169 0 0)
(-0.216108 0 0)
(-0.216123 0 0)
(-0.216092 0 0)
(-0.216078 0 0)
(-0.21606 0 0)
(-0.216048 0 0)
(-0.216036 0 0)
(-0.216007 0 0)
(-0.216021 0 0)
(-0.216036 0 0)
(-0.216024 0 0)
(-0.216027 0 0)
(-0.216026 0 0)
(-0.216027 0 0)
(-0.216029 0 0)
(-0.216032 0 0)
(-0.216036 0 0)
(-0.21604 0 0)
(-0.216044 0 0)
(-0.216047 0 0)
(-0.21605 0 0)
(-0.216052 0 0)
(-0.216053 0 0)
(-0.216054 0 0)
(-0.21605 0 0)
(-0.216053 0 0)
(-0.216036 0 0)
(-0.216046 0 0)
(-0.216028 0 0)
(-0.215991 0 0)
(-0.216 0 0)
(-0.215987 0 0)
(-0.215973 0 0)
(-0.215963 0 0)
(-0.215939 0 0)
(-0.21594 0 0)
(-0.2159 0 0)
(-0.21588 0 0)
(-0.215896 0 0)
(-0.215867 0 0)
(-0.215853 0 0)
(-0.215835 0 0)
(-0.215817 0 0)
(-0.215799 0 0)
(-0.215781 0 0)
(-0.215764 0 0)
(-0.215747 0 0)
(-0.21573 0 0)
(-0.215714 0 0)
(-0.215699 0 0)
(-0.215684 0 0)
(-0.21567 0 0)
(-0.215656 0 0)
(-0.215643 0 0)
(-0.215631 0 0)
(-0.21562 0 0)
(-0.215609 0 0)
(-0.2156 0 0)
(-0.215592 0 0)
(-0.215582 0 0)
(-0.215585 0 0)
(-0.215561 0 0)
(-0.215555 0 0)
(-0.21557 0 0)
(-0.215562 0 0)
(-0.215567 0 0)
(-0.215573 0 0)
(-0.215568 0 0)
(-0.21559 0 0)
(-0.215576 0 0)
(-0.21558 0 0)
(-0.215614 0 0)
(-0.215607 0 0)
(-0.215618 0 0)
(-0.215622 0 0)
(-0.215627 0 0)
(-0.21563 0 0)
(-0.215632 0 0)
(-0.215632 0 0)
(-0.215632 0 0)
(-0.21563 0 0)
(-0.215626 0 0)
(-0.215621 0 0)
(-0.215615 0 0)
(-0.215608 0 0)
(-0.215599 0 0)
(-0.215589 0 0)
(-0.215578 0 0)
(-0.215566 0 0)
(-0.215554 0 0)
(-0.215541 0 0)
(-0.215527 0 0)
(-0.215514 0 0)
(-0.2155 0 0)
(-0.215487 0 0)
(-0.215471 0 0)
(-0.215464 0 0)
(-0.215438 0 0)
(-0.215444 0 0)
(-0.215417 0 0)
(-0.215393 0 0)
(-0.215406 0 0)
(-0.215383 0 0)
(-0.21538 0 0)
(-0.215371 0 0)
(-0.215364 0 0)
(-0.215359 0 0)
(-0.215348 0 0)
(-0.215356 0 0)
(-0.215337 0 0)
(-0.215337 0 0)
(-0.215354 0 0)
(-0.215342 0 0)
(-0.21535 0 0)
(-0.215351 0 0)
(-0.215355 0 0)
(-0.21536 0 0)
(-0.215366 0 0)
(-0.215373 0 0)
(-0.215381 0 0)
(-0.21539 0 0)
(-0.215399 0 0)
(-0.215409 0 0)
(-0.21542 0 0)
(-0.215431 0 0)
(-0.215442 0 0)
(-0.215453 0 0)
(-0.215463 0 0)
(-0.215474 0 0)
(-0.215483 0 0)
(-0.215492 0 0)
(-0.215501 0 0)
(-0.215508 0 0)
(-0.215514 0 0)
(-0.215519 0 0)
(-0.215523 0 0)
(-0.215526 0 0)
(-0.215528 0 0)
(-0.215528 0 0)
(-0.215527 0 0)
(-0.215525 0 0)
(-0.215522 0 0)
(-0.215519 0 0)
(-0.215514 0 0)
(-0.215509 0 0)
(-0.215503 0 0)
(-0.215497 0 0)
(-0.21549 0 0)
(-0.215484 0 0)
(-0.215477 0 0)
(-0.21547 0 0)
(-0.215464 0 0)
(-0.215457 0 0)
(-0.215451 0 0)
(-0.215446 0 0)
(-0.21544 0 0)
(-0.215436 0 0)
(-0.215431 0 0)
(-0.215427 0 0)
(-0.215422 0 0)
(-0.215419 0 0)
(-0.215418 0 0)
(-0.21541 0 0)
(-0.215409 0 0)
(-0.215409 0 0)
(-0.215405 0 0)
(-0.215404 0 0)
(-0.215403 0 0)
(-0.215402 0 0)
(-0.215401 0 0)
(-0.2154 0 0)
(-0.2154 0 0)
(-0.2154 0 0)
(-0.2154 0 0)
(-0.215401 0 0)
(-0.215401 0 0)
(-0.215403 0 0)
(-0.215404 0 0)
(-0.215405 0 0)
(-0.215407 0 0)
(-0.215409 0 0)
(-0.215411 0 0)
(-0.215412 0 0)
(-0.215414 0 0)
(-0.215415 0 0)
(-0.215416 0 0)
(-0.215417 0 0)
(-0.215417 0 0)
(-0.215417 0 0)
(-0.215416 0 0)
(-0.215414 0 0)
(-0.215412 0 0)
(-0.21541 0 0)
(-0.215406 0 0)
(-0.215402 0 0)
(-0.215397 0 0)
(-0.215391 0 0)
(-0.215385 0 0)
(-0.215378 0 0)
(-0.215371 0 0)
(-0.215363 0 0)
(-0.215355 0 0)
(-0.215346 0 0)
(-0.215337 0 0)
(-0.215328 0 0)
(-0.21532 0 0)
(-0.215307 0 0)
(-0.215304 0 0)
(-0.215289 0 0)
(-0.21528 0 0)
(-0.215279 0 0)
(-0.215265 0 0)
(-0.215261 0 0)
(-0.215252 0 0)
(-0.215246 0 0)
(-0.21524 0 0)
(-0.215234 0 0)
(-0.215229 0 0)
(-0.215224 0 0)
(-0.21522 0 0)
(-0.215216 0 0)
(-0.215213 0 0)
(-0.21521 0 0)
(-0.215209 0 0)
(-0.215207 0 0)
(-0.215207 0 0)
(-0.215207 0 0)
(-0.215207 0 0)
(-0.215209 0 0)
(-0.215211 0 0)
(-0.215214 0 0)
(-0.215218 0 0)
(-0.215222 0 0)
(-0.215227 0 0)
(-0.215234 0 0)
(-0.215241 0 0)
(-0.215248 0 0)
(-0.215261 0 0)
(-0.215257 0 0)
(-0.215294 0 0)
(-0.215274 0 0)
(-0.215294 0 0)
(-0.215328 0 0)
(-0.215311 0 0)
(-0.215343 0 0)
(-0.215347 0 0)
(-0.215363 0 0)
(-0.215374 0 0)
(-0.215388 0 0)
(-0.215387 0 0)
(-0.215448 0 0)
(-0.215269 0 0)
(-0.215906 0 0)
(-0.213203 0 0)
(-0.218994 0 0)
(-0.209526 0 0)
(-0.221272 0 0)
(-0.211766 0 0)
(-0.215207 0 0)
)
;

boundaryField
{
    inlet
    {
        type            fixedValue;
        value           uniform (50 0 0);
    }
    backWall
    {
        type            zeroGradient;
    }
    sides
    {
        type            empty;
    }
}


// ************************************************************************* //
