/*--------------------------------*- C++ -*----------------------------------*\
| =========                 |                                                 |
| \\      /  F ield         | OpenFOAM: The Open Source CFD Toolbox           |
|  \\    /   O peration     | Version:  3.0.x                                 |
|   \\  /    A nd           | Web:      www.OpenFOAM.org                      |
|    \\/     M anipulation  |                                                 |
\*---------------------------------------------------------------------------*/
FoamFile
{
    version     2.0;
    format      ascii;
    class       surfaceScalarField;
    location    "0.26";
    object      phi;
}
// * * * * * * * * * * * * * * * * * * * * * * * * * * * * * * * * * * * * * //

dimensions      [1 0 -1 0 0 0 0];

internalField   nonuniform List<scalar> 
26210
(
3.90863
0.000503847
3.90848
0.000346266
3.90835
0.000339234
3.90821
0.000341283
3.90809
0.00034147
3.90797
0.000341356
3.90784
0.000341377
3.90773
0.000341393
3.90761
0.000341342
3.9075
0.000341406
3.90739
0.00034139
3.90729
0.00034135
3.9072
0.000341338
3.90711
0.000341331
3.90703
0.000341329
3.90695
0.000341334
3.90688
0.000341368
3.90682
0.000341329
3.90676
0.000341367
3.9067
0.000341379
3.90665
0.000341309
3.90659
0.000341515
3.90654
0.000341305
3.90649
0.000341284
3.90643
0.000341175
3.90637
0.000340977
3.90631
0.000340588
3.90623
0.000339993
3.90615
0.000339069
3.90607
0.000337685
3.90598
0.000335681
3.90588
0.000332786
3.90577
0.00032912
3.90565
0.00032397
3.90553
0.000317454
3.90539
0.000309227
3.90524
0.000299444
3.90509
0.000287567
3.90493
0.000273938
3.90476
0.000258538
3.90459
0.000241567
3.90441
0.000223303
3.90423
0.000204021
3.90404
0.000184403
3.90385
0.000164288
3.90366
0.000144715
3.90346
0.000125764
3.90325
0.000107828
3.90304
9.11937e-05
3.90282
7.60633e-05
3.90258
6.25604e-05
3.90234
5.07323e-05
3.90209
4.05587e-05
3.90182
3.19634e-05
3.90154
2.48278e-05
3.90125
1.9005e-05
3.90095
1.43332e-05
3.90063
1.06463e-05
3.9003
7.78375e-06
3.89996
5.5964e-06
3.89961
3.95103e-06
3.89925
2.73231e-06
3.89888
1.84324e-06
3.8985
1.20436e-06
3.89812
7.52098e-07
3.89773
4.36728e-07
3.89734
2.20174e-07
3.89695
7.39965e-08
3.89656
-2.29884e-08
3.89617
-8.59873e-08
3.89577
-1.25587e-07
3.89539
-1.49532e-07
3.895
-1.63021e-07
3.89463
-1.69592e-07
3.89425
-1.71593e-07
3.89389
-1.70603e-07
3.89353
-1.67653e-07
3.89318
-1.63418e-07
3.89284
-1.58314e-07
3.89251
-1.5262e-07
3.8922
-1.46549e-07
3.89189
-1.40186e-07
3.89159
-1.3363e-07
3.89131
-1.26929e-07
3.89103
-1.20188e-07
3.89077
-1.13516e-07
3.89052
-1.06851e-07
3.89028
-9.99498e-08
3.89006
-9.26739e-08
3.88984
-8.5176e-08
3.88964
-7.81547e-08
3.88945
-7.20647e-08
3.88927
-6.67787e-08
3.8891
-6.17874e-08
3.88894
-5.66724e-08
3.88879
-5.12773e-08
3.88865
-4.57003e-08
3.88852
-4.01196e-08
3.8884
-3.47463e-08
3.88829
-2.96641e-08
3.88818
-2.48983e-08
3.88809
-2.05036e-08
3.888
-1.64182e-08
3.88792
-1.26129e-08
3.88784
-9.02219e-09
3.88777
-5.64978e-09
3.88771
-2.48474e-09
3.88765
4.91127e-10
3.8876
3.23416e-09
3.88756
5.84259e-09
3.88751
8.2473e-09
3.88747
1.05392e-08
3.88744
1.26529e-08
3.88741
1.46683e-08
3.88738
1.65164e-08
3.88736
1.82808e-08
3.88734
1.98597e-08
3.88732
2.13658e-08
3.8873
2.27119e-08
3.88729
2.39925e-08
3.88727
2.5153e-08
3.88726
2.62371e-08
3.88726
2.7223e-08
3.88725
2.81725e-08
3.88725
2.90129e-08
3.88724
2.96968e-08
3.88724
3.06609e-08
3.88724
3.14976e-08
3.88724
3.07773e-08
3.88724
3.55722e-08
3.88725
3.27636e-08
3.88725
3.16686e-08
3.88726
3.62343e-08
3.88726
3.42152e-08
3.88727
3.48737e-08
3.88728
3.59869e-08
3.88729
3.02207e-08
3.8873
3.76349e-08
3.88731
3.57104e-08
3.88732
3.66417e-08
3.88733
3.75403e-08
3.88734
3.81915e-08
3.88736
3.85699e-08
3.88737
3.87081e-08
3.88739
3.87045e-08
3.8874
3.86826e-08
3.88742
3.86681e-08
3.88744
3.87336e-08
3.88745
3.88463e-08
3.88747
3.90173e-08
3.88749
3.92429e-08
3.88751
3.94793e-08
3.88753
3.97777e-08
3.88755
4.00469e-08
3.88757
4.03488e-08
3.88759
4.06471e-08
3.88762
4.096e-08
3.88764
4.12838e-08
3.88766
4.1593e-08
3.88769
4.19714e-08
3.88771
4.23315e-08
3.88774
4.27754e-08
3.88777
4.32447e-08
3.8878
4.37722e-08
3.88783
4.44088e-08
3.88787
4.50709e-08
3.8879
4.58786e-08
3.88794
4.67444e-08
3.88798
4.7763e-08
3.88802
4.89163e-08
3.88807
5.01605e-08
3.88812
5.16447e-08
3.88817
5.31654e-08
3.88823
5.49553e-08
3.88829
5.6807e-08
3.88836
5.88661e-08
3.88843
6.11326e-08
3.88851
6.34063e-08
3.88859
6.59857e-08
3.88868
6.86086e-08
3.88877
7.13517e-08
3.88888
7.43348e-08
3.88899
7.7267e-08
3.8891
8.04102e-08
3.88923
8.3648e-08
3.88936
8.71405e-08
3.8895
9.09822e-08
3.88966
9.7607e-08
3.88982
1.16626e-07
3.88998
1.93322e-07
3.89016
5.53442e-07
3.89035
2.27541e-06
3.89053
1.05638e-05
3.89069
5.04542e-05
3.89066
0.000242093
3.88972
0.00115927
3.88443
0.0055137
3.85864
0.0260244
3.72626
0.13262
0.50381
3.2227
5.52842
0.000460514
5.52872
0.000329037
5.52903
0.000314217
5.52935
0.000318573
5.52968
0.000318883
5.53001
0.00031871
5.53034
0.000318768
5.53068
0.000318832
5.53102
0.00031883
5.53137
0.000318929
5.53172
0.000318956
5.53208
0.000318962
5.53245
0.000318993
5.53283
0.000319027
5.53322
0.000319068
5.53362
0.000319114
5.53403
0.000319185
5.53444
0.000319195
5.53485
0.00031927
5.53528
0.000319323
5.53571
0.000319305
5.53614
0.000319523
5.53657
0.000319382
5.537
0.000319398
5.53742
0.000319333
5.53784
0.00031918
5.53825
0.000318855
5.53865
0.000318323
5.53904
0.000317478
5.53942
0.000316193
5.53978
0.000314314
5.54013
0.000311594
5.54046
0.000308117
5.54078
0.000303249
5.54107
0.000297076
5.54133
0.000289281
5.54156
0.00028002
5.54177
0.000268772
5.54195
0.000255888
5.54209
0.00024134
5.54221
0.000225328
5.54229
0.000208116
5.54233
0.00018999
5.54234
0.000171536
5.54232
0.000152686
5.54225
0.000134348
5.54216
0.000116627
5.54203
9.98817e-05
5.54186
8.43761e-05
5.54166
7.02948e-05
5.54142
5.77478e-05
5.54116
4.6774e-05
5.54086
3.73496e-05
5.54053
2.93991e-05
5.54017
2.28085e-05
5.53979
1.74383e-05
5.53938
1.31355e-05
5.53895
9.7446e-06
5.53849
7.11534e-06
5.53802
5.10892e-06
5.53753
3.60159e-06
5.53702
2.48654e-06
5.5365
1.67411e-06
5.53597
1.09103e-06
5.53543
6.78769e-07
5.53488
3.9165e-07
5.53433
1.94699e-07
5.53377
6.20512e-08
5.53322
-2.57915e-08
5.53266
-8.28895e-08
5.53211
-1.18713e-07
5.53156
-1.40355e-07
5.53102
-1.52502e-07
5.53048
-1.58367e-07
5.52995
-1.60086e-07
5.52944
-1.59072e-07
5.52893
-1.56269e-07
5.52844
-1.52282e-07
5.52796
-1.47513e-07
5.52749
-1.42199e-07
5.52704
-1.3653e-07
5.5266
-1.30594e-07
5.52618
-1.24472e-07
5.52578
-1.18225e-07
5.52539
-1.1193e-07
5.52502
-1.05698e-07
5.52467
-9.94696e-08
5.52433
-9.30177e-08
5.52401
-8.62055e-08
5.52371
-7.91879e-08
5.52342
-7.26232e-08
5.52315
-6.69224e-08
5.52289
-6.19621e-08
5.52265
-5.72836e-08
5.52243
-5.24851e-08
5.52222
-4.74283e-08
5.52202
-4.22151e-08
5.52183
-3.69946e-08
5.52166
-3.19797e-08
5.5215
-2.72394e-08
5.52136
-2.27938e-08
5.52122
-1.86865e-08
5.52109
-1.48757e-08
5.52098
-1.1325e-08
5.52087
-7.97991e-09
5.52078
-4.82578e-09
5.52069
-1.88084e-09
5.5206
9.004e-10
5.52053
3.44517e-09
5.52046
5.87534e-09
5.5204
8.12361e-09
5.52035
1.02591e-08
5.5203
1.22218e-08
5.52025
1.41008e-08
5.52022
1.58234e-08
5.52018
1.74587e-08
5.52015
1.8932e-08
5.52012
2.03327e-08
5.5201
2.15841e-08
5.52008
2.27592e-08
5.52006
2.38342e-08
5.52005
2.48438e-08
5.52004
2.57533e-08
5.52003
2.66209e-08
5.52002
2.74104e-08
5.52001
2.80397e-08
5.52001
2.88946e-08
5.52001
2.96768e-08
5.52001
2.90456e-08
5.52001
3.35058e-08
5.52002
3.08064e-08
5.52002
2.98951e-08
5.52003
3.40042e-08
5.52004
3.22543e-08
5.52005
3.28255e-08
5.52006
3.37768e-08
5.52007
2.85891e-08
5.52009
3.54776e-08
5.5201
3.37513e-08
5.52012
3.46063e-08
5.52013
3.54521e-08
5.52015
3.60706e-08
5.52017
3.64289e-08
5.52019
3.6569e-08
5.52021
3.65708e-08
5.52024
3.65471e-08
5.52026
3.65417e-08
5.52028
3.6609e-08
5.52031
3.67145e-08
5.52033
3.68746e-08
5.52036
3.70947e-08
5.52038
3.73129e-08
5.52041
3.75858e-08
5.52044
3.7835e-08
5.52047
3.81096e-08
5.5205
3.83898e-08
5.52053
3.86681e-08
5.52056
3.89628e-08
5.5206
3.92429e-08
5.52063
3.95885e-08
5.52067
3.99123e-08
5.52071
4.03197e-08
5.52075
4.07454e-08
5.52079
4.12347e-08
5.52083
4.18113e-08
5.52088
4.24334e-08
5.52093
4.31755e-08
5.52098
4.3985e-08
5.52104
4.49163e-08
5.5211
4.5995e-08
5.52117
4.71409e-08
5.52124
4.85397e-08
5.52131
4.99458e-08
5.52139
5.16284e-08
5.52148
5.33291e-08
5.52157
5.52573e-08
5.52167
5.738e-08
5.52178
5.95101e-08
5.5219
6.18656e-08
5.52202
6.44177e-08
5.52216
6.68661e-08
5.5223
6.97783e-08
5.52246
7.24649e-08
5.52262
7.53698e-08
5.5228
7.85567e-08
5.52299
8.19546e-08
5.52319
8.6502e-08
5.5234
9.73105e-08
5.52363
1.38125e-07
5.52387
3.18149e-07
5.52412
1.18149e-06
5.52438
5.33069e-06
5.52464
2.53201e-05
5.52486
0.000121546
5.52482
0.000583864
5.52349
0.00279694
5.51601
0.0133131
5.47952
0.0628537
5.2969
0.31558
1.16572
4.63534
7.81836
0.000402759
7.81879
0.000301852
7.81923
0.000279708
7.81968
0.000286014
7.82014
0.000286535
7.82061
0.000286257
7.82108
0.000286308
7.82156
0.000286379
7.82205
0.000286384
7.82254
0.000286469
7.82304
0.000286496
7.82355
0.000286504
7.82407
0.000286532
7.82461
0.000286564
7.82517
0.000286601
7.82573
0.000286643
7.8263
0.000286705
7.82689
0.00028672
7.82748
0.000286784
7.82808
0.000286831
7.82868
0.000286823
7.82929
0.000287002
7.82991
0.000286892
7.83052
0.000286902
7.83112
0.000286845
7.83171
0.000286705
7.83229
0.000286423
7.83285
0.000285947
7.83341
0.000285195
7.83394
0.00028405
7.83446
0.000282374
7.83496
0.000279953
7.83543
0.00027684
7.83588
0.000272499
7.83629
0.000266983
7.83666
0.000260014
7.83699
0.000251739
7.83728
0.000241665
7.83753
0.000230136
7.83774
0.000217106
7.8379
0.000202758
7.83801
0.000187322
7.83808
0.000171079
7.83809
0.000154489
7.83805
0.000137586
7.83796
0.000121101
7.83783
0.000105171
7.83764
9.01094e-05
7.8374
7.61551e-05
7.83711
6.34754e-05
7.83678
5.21709e-05
7.8364
4.2278e-05
7.83598
3.3777e-05
7.83551
2.66012e-05
7.83501
2.06492e-05
7.83446
1.57964e-05
7.83388
1.19058e-05
7.83327
8.83784e-06
7.83263
6.45751e-06
7.83196
4.6399e-06
7.83126
3.27355e-06
7.83055
2.26213e-06
7.82981
1.52473e-06
7.82906
9.95163e-07
7.8283
6.20501e-07
7.82752
3.59372e-07
7.82674
1.80005e-07
7.82596
5.93964e-08
7.82517
-2.05873e-08
7.82439
-7.29042e-08
7.8236
-1.05584e-07
7.82283
-1.25414e-07
7.82206
-1.36566e-07
7.8213
-1.41993e-07
7.82056
-1.43638e-07
7.81982
-1.42789e-07
7.81911
-1.40311e-07
7.81841
-1.3676e-07
7.81773
-1.32485e-07
7.81707
-1.27724e-07
7.81643
-1.22633e-07
7.81582
-1.17307e-07
7.81522
-1.11807e-07
7.81465
-1.06194e-07
7.81411
-1.00544e-07
7.81358
-9.49412e-08
7.81308
-8.93451e-08
7.8126
-8.35498e-08
7.81215
-7.74289e-08
7.81172
-7.11389e-08
7.81132
-6.52426e-08
7.81093
-6.01176e-08
7.81057
-5.56565e-08
7.81023
-5.14501e-08
7.80991
-4.71364e-08
7.80961
-4.2598e-08
7.80933
-3.79205e-08
7.80907
-3.32275e-08
7.80883
-2.87273e-08
7.80861
-2.44663e-08
7.8084
-2.04773e-08
7.8082
-1.67856e-08
7.80803
-1.3365e-08
7.80786
-1.01736e-08
7.80771
-7.17955e-09
7.80757
-4.31737e-09
7.80745
-1.68802e-09
7.80733
8.25821e-10
7.80723
3.09228e-09
7.80713
5.2778e-09
7.80705
7.29869e-09
7.80697
9.21864e-09
7.8069
1.09812e-08
7.80684
1.26638e-08
7.80678
1.42136e-08
7.80673
1.56815e-08
7.80669
1.70057e-08
7.80665
1.82608e-08
7.80662
1.93886e-08
7.80659
2.04427e-08
7.80657
2.14068e-08
7.80654
2.23226e-08
7.80653
2.31303e-08
7.80651
2.39161e-08
7.8065
2.46309e-08
7.8065
2.51985e-08
7.80649
2.59361e-08
7.80649
2.66382e-08
7.80649
2.61289e-08
7.8065
3.01134e-08
7.8065
2.76123e-08
7.80651
2.69283e-08
7.80652
3.04362e-08
7.80653
2.90229e-08
7.80655
2.94895e-08
7.80656
3.02252e-08
7.80658
2.57578e-08
7.8066
3.18641e-08
7.80662
3.0368e-08
7.80664
3.10874e-08
7.80667
3.18396e-08
7.80669
3.23953e-08
7.80672
3.27145e-08
7.80675
3.28428e-08
7.80678
3.28446e-08
7.80681
3.283e-08
7.80684
3.28328e-08
7.80688
3.28855e-08
7.80691
3.29801e-08
7.80695
3.31238e-08
7.80698
3.33212e-08
7.80702
3.35212e-08
7.80706
3.37568e-08
7.8071
3.39833e-08
7.80714
3.42343e-08
7.80719
3.44844e-08
7.80723
3.47318e-08
7.80728
3.49928e-08
7.80732
3.52529e-08
7.80737
3.55558e-08
7.80742
3.58559e-08
7.80748
3.62152e-08
7.80754
3.65917e-08
7.8076
3.70419e-08
7.80766
3.7553e-08
7.80772
3.81242e-08
7.8078
3.87736e-08
7.80787
3.9513e-08
7.80795
4.03343e-08
7.80804
4.13202e-08
7.80813
4.23352e-08
7.80823
4.36139e-08
7.80833
4.48581e-08
7.80845
4.63997e-08
7.80857
4.78731e-08
7.8087
4.96248e-08
7.80885
5.15383e-08
7.809
5.34719e-08
7.80916
5.54955e-08
7.80934
5.79439e-08
7.80953
5.99703e-08
7.80974
6.27642e-08
7.80995
6.51089e-08
7.81019
6.76464e-08
7.81044
7.07341e-08
7.81071
7.3991e-08
7.81099
7.94962e-08
7.81129
9.60508e-08
7.81161
1.66802e-07
7.81195
4.88979e-07
7.8123
2.04444e-06
7.81267
9.53128e-06
7.81304
4.56112e-05
7.81335
0.000219315
7.81331
0.00105398
7.8115
0.00505043
7.80121
0.0240533
7.75106
0.113472
7.50403
0.563092
2.03646
6.63378
34.5119
0.000186309
34.5138
0.000157971
34.5157
0.00013812
34.5177
0.000142427
34.5197
0.000143627
34.5218
0.000143281
34.5239
0.000143224
34.526
0.000143253
34.5282
0.000143248
34.5303
0.000143271
34.5325
0.000143278
34.5348
0.000143278
34.5371
0.000143288
34.5395
0.0001433
34.5419
0.000143315
34.5444
0.000143334
34.547
0.000143359
34.5495
0.000143372
34.5521
0.000143399
34.5548
0.000143421
34.5575
0.000143426
34.5602
0.000143493
34.5629
0.000143459
34.5655
0.000143459
34.5682
0.000143431
34.5708
0.000143359
34.5734
0.000143232
34.5759
0.000142998
34.5783
0.000142633
34.5807
0.000142076
34.583
0.000141258
34.5852
0.000140081
34.5873
0.000138541
34.5892
0.000136417
34.591
0.000133688
34.5927
0.000130285
34.5941
0.000126175
34.5954
0.000121189
34.5965
0.000115476
34.5974
0.000109006
34.5981
0.000101871
34.5986
9.41783e-05
34.5989
8.60955e-05
34.599
7.77763e-05
34.5988
6.93485e-05
34.5984
6.10817e-05
34.5978
5.30919e-05
34.597
4.55282e-05
34.5959
3.85114e-05
34.5947
3.21277e-05
34.5932
2.64294e-05
34.5915
2.14369e-05
34.5897
1.71418e-05
34.5876
1.35123e-05
34.5854
1.04984e-05
34.583
8.03845e-06
34.5804
6.06423e-06
34.5777
4.50584e-06
34.5749
3.29553e-06
34.5719
2.37045e-06
34.5689
1.67441e-06
34.5657
1.15869e-06
34.5625
7.82348e-07
34.5592
5.1179e-07
34.5558
3.20166e-07
34.5524
1.86472e-07
34.5489
9.46943e-08
34.5455
3.28782e-08
34.542
-8.70477e-09
34.5385
-3.50637e-08
34.5351
-5.19335e-08
34.5316
-6.21253e-08
34.5282
-6.7902e-08
34.5249
-7.07546e-08
34.5216
-7.16677e-08
34.5184
-7.13007e-08
34.5152
-7.00975e-08
34.5121
-6.83467e-08
34.5091
-6.62258e-08
34.5062
-6.38515e-08
34.5034
-6.13109e-08
34.5007
-5.8651e-08
34.4981
-5.59039e-08
34.4955
-5.30968e-08
34.4931
-5.0271e-08
34.4908
-4.74688e-08
34.4886
-4.46689e-08
34.4865
-4.17717e-08
34.4845
-3.87108e-08
34.4826
-3.55758e-08
34.4808
-3.26254e-08
34.4791
-3.00588e-08
34.4775
-2.78264e-08
34.476
-2.5721e-08
34.4746
-2.35623e-08
34.4733
-2.12963e-08
34.4721
-1.89598e-08
34.4709
-1.66096e-08
34.4698
-1.4365e-08
34.4689
-1.223e-08
34.4679
-1.024e-08
34.4671
-8.38827e-09
34.4663
-6.68069e-09
34.4656
-5.07634e-09
34.4649
-3.57022e-09
34.4643
-2.19688e-09
34.4637
-8.59472e-10
34.4632
3.94266e-10
34.4628
1.56251e-09
34.4624
2.64163e-09
34.462
3.65253e-09
34.4616
4.60977e-09
34.4613
5.49107e-09
34.4611
6.32963e-09
34.4608
7.10725e-09
34.4606
7.84075e-09
34.4604
8.50605e-09
34.4602
9.12996e-09
34.4601
9.69476e-09
34.46
1.02204e-08
34.4598
1.07016e-08
34.4598
1.1164e-08
34.4597
1.15642e-08
34.4596
1.19599e-08
34.4596
1.23223e-08
34.4595
1.26292e-08
34.4595
1.29371e-08
34.4595
1.32886e-08
34.4595
1.31363e-08
34.4595
1.5028e-08
34.4596
1.3772e-08
34.4596
1.35606e-08
34.4596
1.50885e-08
34.4597
1.45792e-08
34.4598
1.47452e-08
34.4598
1.49666e-08
34.4599
1.3008e-08
34.46
1.5872e-08
34.4601
1.5245e-08
34.4602
1.55464e-08
34.4603
1.59171e-08
34.4604
1.61963e-08
34.4605
1.63577e-08
34.4607
1.64223e-08
34.4608
1.64227e-08
34.4609
1.64137e-08
34.4611
1.64168e-08
34.4612
1.64437e-08
34.4614
1.6491e-08
34.4615
1.65619e-08
34.4617
1.66597e-08
34.4619
1.67602e-08
34.462
1.68779e-08
34.4622
1.69921e-08
34.4624
1.71185e-08
34.4626
1.72413e-08
34.4628
1.73663e-08
34.463
1.74932e-08
34.4632
1.76269e-08
34.4634
1.77779e-08
34.4636
1.79261e-08
34.4639
1.81103e-08
34.4641
1.82808e-08
34.4644
1.85346e-08
34.4647
1.87606e-08
34.465
1.90789e-08
34.4653
1.93781e-08
34.4656
1.97542e-08
34.466
2.01617e-08
34.4663
2.0671e-08
34.4668
2.11285e-08
34.4672
2.18761e-08
34.4677
2.24227e-08
34.4682
2.33181e-08
34.4687
2.38188e-08
34.4693
2.47305e-08
34.4699
2.58606e-08
34.4706
2.66446e-08
34.4713
2.76341e-08
34.4721
2.90484e-08
34.4729
2.98232e-08
34.4738
3.1665e-08
34.4748
3.27382e-08
34.4758
3.3569e-08
34.4769
3.61538e-08
34.4781
3.86949e-08
34.4794
4.82673e-08
34.4807
8.5568e-08
34.4821
2.77111e-07
34.4836
1.14931e-06
34.4852
5.41327e-06
34.4868
2.59437e-05
34.4885
0.000124933
34.4899
0.000601673
34.4899
0.00289368
34.483
0.0138713
34.4432
0.0659431
34.2516
0.307139
33.432
1.38477
4.88726
30.5834
34.5118
1.81899e-12
34.5138
1.36424e-12
34.5157
3.18323e-12
34.5177
-4.54747e-13
34.5197
4.54747e-13
34.5218
9.09495e-13
34.5239
-1.36424e-12
34.526
-1.81899e-12
34.5281
-2.27374e-12
34.5303
-5.45697e-12
34.5325
-5.00222e-12
34.5348
1.36424e-12
34.5371
1.81899e-12
34.5395
1.36424e-12
34.5419
5.00222e-12
34.5444
4.54747e-13
34.5469
1.81899e-12
34.5495
4.54747e-13
34.5521
-1.81899e-12
34.5548
-1.36424e-12
34.5574
0
34.5601
-5.00222e-12
34.5628
-2.72848e-12
34.5655
-1.81899e-12
34.5682
-2.72848e-12
34.5708
-2.27374e-12
34.5733
4.54747e-13
34.5758
0
34.5783
9.09495e-13
34.5807
2.72848e-12
34.5829
1.36424e-12
34.5851
1.36424e-12
34.5872
3.18323e-12
34.5892
1.81899e-12
34.591
-4.54747e-13
34.5926
-4.54747e-12
34.5941
-2.72848e-12
34.5954
-2.27374e-12
34.5965
-2.27374e-12
34.5974
0
34.5981
-9.09495e-13
34.5986
-4.09273e-12
34.5989
-2.27374e-12
34.599
-6.36646e-12
34.5988
-3.63798e-12
34.5984
-2.72848e-12
34.5978
-1.36424e-12
34.597
-1.36424e-12
34.5959
1.81899e-12
34.5947
4.54747e-13
34.5932
9.09495e-13
34.5915
-1.36424e-12
34.5897
2.27374e-12
34.5876
4.54747e-13
34.5854
-2.72848e-12
34.583
-1.81899e-12
34.5804
-1.81899e-12
34.5777
1.81899e-12
34.5749
1.36424e-12
34.5719
0
34.5689
4.54747e-13
34.5657
0
34.5625
1.81899e-12
34.5592
0
34.5558
9.09495e-13
34.5524
-1.36424e-12
34.5489
0
34.5455
9.09495e-13
34.542
-9.09495e-13
34.5385
-1.36424e-12
34.5351
0
34.5316
-9.09495e-13
34.5282
0
34.5249
-1.81899e-12
34.5216
-2.27374e-12
34.5184
4.54747e-13
34.5152
2.27374e-12
34.5121
4.54747e-13
34.5091
-3.63798e-12
34.5062
-2.27374e-12
34.5034
-2.27374e-12
34.5007
-1.81899e-12
34.4981
-2.27374e-12
34.4955
-4.54747e-13
34.4931
3.18323e-12
34.4908
2.27374e-12
34.4886
2.27374e-12
34.4865
-9.09495e-13
34.4845
-1.36424e-12
34.4826
0
34.4808
3.18323e-12
34.4791
3.18323e-12
34.4775
9.09495e-13
34.476
-1.36424e-12
34.4746
-9.09495e-13
34.4733
9.09495e-13
34.4721
-1.36424e-12
34.4709
1.81899e-12
34.4698
-9.09495e-13
34.4689
2.27374e-12
34.4679
2.27374e-12
34.4671
1.81899e-12
34.4663
-9.09495e-13
34.4656
4.54747e-13
34.4649
3.18323e-12
34.4643
-9.09495e-13
34.4637
2.72848e-12
34.4632
2.72848e-12
34.4628
-9.09495e-13
34.4624
-2.27374e-12
34.462
-2.27374e-12
34.4616
9.09495e-13
34.4613
-1.36424e-12
34.4611
-4.09273e-12
34.4608
-4.54747e-13
34.4606
1.36424e-12
34.4604
1.36424e-12
34.4602
2.72848e-12
34.4601
9.09495e-13
34.46
-3.18323e-12
34.4598
-1.81899e-12
34.4598
2.72848e-12
34.4597
0
34.4596
0
34.4596
9.09495e-13
34.4595
-1.36424e-12
34.4595
-2.72848e-12
34.4595
-9.09495e-13
34.4595
-9.09495e-13
34.4595
-2.27374e-12
34.4596
-1.81899e-12
34.4596
-4.54747e-13
34.4596
-2.27374e-12
34.4597
1.36424e-12
34.4598
-3.18323e-12
34.4598
-4.54747e-13
34.4599
9.09495e-13
34.46
4.09273e-12
34.4601
2.27374e-12
34.4602
5.91172e-12
34.4603
-4.54747e-13
34.4604
1.81899e-12
34.4605
1.36424e-12
34.4607
3.18323e-12
34.4608
-9.09495e-13
34.4609
9.09495e-13
34.4611
1.81899e-12
34.4612
1.81899e-12
34.4614
4.54747e-13
34.4615
-4.54747e-13
34.4617
-9.09495e-13
34.4619
-2.72848e-12
34.462
0
34.4622
-1.81899e-12
34.4624
4.09273e-12
34.4626
-2.72848e-12
34.4628
1.36424e-12
34.463
-9.09495e-13
34.4632
-3.63798e-12
34.4634
1.18234e-11
34.4636
-1.45519e-11
34.4639
2.45564e-11
34.4641
-4.09273e-11
34.4644
4.36557e-11
34.4647
-4.3201e-11
34.465
5.09317e-11
34.4653
-5.18412e-11
34.4656
2.63753e-11
34.466
-6.04814e-11
34.4663
6.04814e-11
34.4668
-1.1687e-10
34.4672
1.84173e-10
34.4677
-5.77529e-11
34.4682
2.92403e-10
34.4687
-3.42425e-10
34.4693
7.27596e-11
34.4699
-1.02773e-10
34.4706
2.34195e-10
34.4713
-6.33008e-10
34.4721
4.5884e-10
34.4729
-5.56156e-10
34.4738
4.64297e-10
34.4748
2.83762e-10
34.4758
-3.20597e-10
34.4769
1.17461e-09
34.4781
2.8358e-09
34.4794
1.15474e-08
34.4807
6.01872e-08
34.4821
2.84354e-07
34.4836
1.38576e-06
34.4852
6.65979e-06
34.4868
3.2172e-05
34.4885
0.000155189
34.4902
0.000748578
34.4913
0.00360952
34.4898
0.0173859
34.4743
0.0834425
34.3887
0.394829
33.9584
1.81721
6.50278
32.345
34.5118
-0.000186309
34.5138
-0.000157971
34.5157
-0.00013812
34.5177
-0.000142427
34.5197
-0.000143627
34.5218
-0.000143281
34.5239
-0.000143224
34.526
-0.000143253
34.5281
-0.000143248
34.5303
-0.000143271
34.5325
-0.000143278
34.5348
-0.000143278
34.5371
-0.000143288
34.5395
-0.0001433
34.5419
-0.000143315
34.5444
-0.000143334
34.5469
-0.000143359
34.5495
-0.000143372
34.5521
-0.000143399
34.5548
-0.000143421
34.5574
-0.000143426
34.5601
-0.000143493
34.5628
-0.000143459
34.5655
-0.000143459
34.5682
-0.000143431
34.5708
-0.000143359
34.5733
-0.000143232
34.5758
-0.000142998
34.5783
-0.000142633
34.5807
-0.000142076
34.5829
-0.000141258
34.5851
-0.000140081
34.5872
-0.000138541
34.5892
-0.000136417
34.591
-0.000133688
34.5926
-0.000130285
34.5941
-0.000126175
34.5954
-0.000121189
34.5965
-0.000115476
34.5974
-0.000109006
34.5981
-0.000101871
34.5986
-9.41783e-05
34.5989
-8.60955e-05
34.599
-7.77763e-05
34.5988
-6.93486e-05
34.5984
-6.10817e-05
34.5978
-5.30919e-05
34.597
-4.55282e-05
34.5959
-3.85114e-05
34.5947
-3.21277e-05
34.5932
-2.64294e-05
34.5915
-2.14369e-05
34.5897
-1.71418e-05
34.5876
-1.35123e-05
34.5854
-1.04984e-05
34.583
-8.03846e-06
34.5804
-6.06423e-06
34.5777
-4.50583e-06
34.5749
-3.29553e-06
34.5719
-2.37045e-06
34.5689
-1.67441e-06
34.5657
-1.15869e-06
34.5625
-7.82344e-07
34.5592
-5.11792e-07
34.5558
-3.20165e-07
34.5524
-1.86476e-07
34.5489
-9.46943e-08
34.5455
-3.28764e-08
34.542
8.70295e-09
34.5385
3.50624e-08
34.5351
5.19349e-08
34.5316
6.21235e-08
34.5282
6.79024e-08
34.5249
7.075e-08
34.5216
7.16614e-08
34.5184
7.13012e-08
34.5152
7.01029e-08
34.5121
6.83472e-08
34.5091
6.62203e-08
34.5062
6.38465e-08
34.5034
6.13054e-08
34.5007
5.86469e-08
34.4981
5.58985e-08
34.4955
5.30963e-08
34.4931
5.02769e-08
34.4908
4.74761e-08
34.4886
4.46739e-08
34.4865
4.17699e-08
34.4845
3.87081e-08
34.4826
3.55767e-08
34.4808
3.26322e-08
34.4791
3.00647e-08
34.4775
2.78287e-08
34.476
2.57173e-08
34.4746
2.35614e-08
34.4733
2.12976e-08
34.4721
1.89561e-08
34.4709
1.66133e-08
34.4698
1.43646e-08
34.4689
1.2235e-08
34.4679
1.02432e-08
34.4671
8.39145e-09
34.4663
6.67933e-09
34.4656
5.0768e-09
34.4649
3.57659e-09
34.4643
2.19734e-09
34.4637
8.66294e-10
34.4632
-3.89264e-10
34.4628
-1.5657e-09
34.4624
-2.64572e-09
34.462
-3.65708e-09
34.4616
-4.60614e-09
34.4613
-5.49562e-09
34.4611
-6.33645e-09
34.4608
-7.10952e-09
34.4606
-7.83939e-09
34.4604
-8.50423e-09
34.4602
-9.12587e-09
34.4601
-9.69158e-09
34.46
-1.02268e-08
34.4598
-1.07043e-08
34.4598
-1.11586e-08
34.4597
-1.15633e-08
34.4596
-1.19603e-08
34.4596
-1.23227e-08
34.4595
-1.26315e-08
34.4595
-1.2943e-08
34.4595
-1.32918e-08
34.4595
-1.31395e-08
34.4595
-1.50321e-08
34.4596
-1.37757e-08
34.4596
-1.35642e-08
34.4596
-1.50903e-08
34.4597
-1.45769e-08
34.4598
-1.47493e-08
34.4598
-1.49671e-08
34.4599
-1.3004e-08
34.46
-1.58625e-08
34.4601
-1.52422e-08
34.4602
-1.55364e-08
34.4603
-1.59175e-08
34.4604
-1.6194e-08
34.4605
-1.63545e-08
34.4607
-1.64164e-08
34.4608
-1.6425e-08
34.4609
-1.64132e-08
34.4611
-1.64141e-08
34.4612
-1.64409e-08
34.4614
-1.64914e-08
34.4615
-1.65642e-08
34.4617
-1.66597e-08
34.4619
-1.67634e-08
34.462
-1.68775e-08
34.4622
-1.69953e-08
34.4624
-1.71121e-08
34.4626
-1.72431e-08
34.4628
-1.73627e-08
34.463
-1.74973e-08
34.4632
-1.76292e-08
34.4634
-1.77661e-08
34.4636
-1.79389e-08
34.4639
-1.80867e-08
34.4641
-1.83331e-08
34.4644
-1.84914e-08
34.4647
-1.88043e-08
34.465
-1.90275e-08
34.4653
-1.94291e-08
34.4656
-1.97215e-08
34.466
-2.02426e-08
34.4663
-2.05828e-08
34.4668
-2.12417e-08
34.4672
-2.1681e-08
34.4677
-2.24022e-08
34.4682
-2.3033e-08
34.4687
-2.42612e-08
34.4693
-2.46828e-08
34.4699
-2.58901e-08
34.4706
-2.65763e-08
34.4713
-2.81971e-08
34.4721
-2.88164e-08
34.4729
-3.02462e-08
34.4738
-3.08451e-08
34.4748
-3.26681e-08
34.4758
-3.36586e-08
34.4769
-3.45767e-08
34.4781
-3.40569e-08
34.4794
-2.80861e-08
34.4807
8.18409e-09
34.4821
1.91494e-07
34.4836
1.06988e-06
34.4852
5.32671e-06
34.4868
2.58849e-05
34.4886
0.00012516
34.4905
0.000605062
34.4931
0.00293042
34.4982
0.0142538
34.5137
0.0698795
34.5671
0.343524
34.6446
1.74183
5.94255
35.207
34.5119
-0.000402759
34.5138
-0.000301852
34.5157
-0.000279708
34.5177
-0.000286014
34.5197
-0.000286535
34.5218
-0.000286257
34.5239
-0.000286308
34.526
-0.000286379
34.5282
-0.000286384
34.5303
-0.000286469
34.5325
-0.000286496
34.5348
-0.000286504
34.5371
-0.000286532
34.5395
-0.000286564
34.5419
-0.000286601
34.5444
-0.000286643
34.547
-0.000286705
34.5495
-0.00028672
34.5521
-0.000286784
34.5548
-0.000286831
34.5575
-0.000286823
34.5602
-0.000287002
34.5629
-0.000286892
34.5655
-0.000286902
34.5682
-0.000286845
34.5708
-0.000286705
34.5734
-0.000286423
34.5759
-0.000285947
34.5783
-0.000285195
34.5807
-0.00028405
34.583
-0.000282374
34.5852
-0.000279953
34.5873
-0.00027684
34.5892
-0.000272499
34.591
-0.000266983
34.5927
-0.000260014
34.5941
-0.000251739
34.5954
-0.000241665
34.5965
-0.000230136
34.5974
-0.000217106
34.5981
-0.000202758
34.5986
-0.000187322
34.5989
-0.000171079
34.599
-0.000154489
34.5988
-0.000137586
34.5984
-0.000121101
34.5978
-0.000105171
34.597
-9.01094e-05
34.5959
-7.61551e-05
34.5947
-6.34754e-05
34.5932
-5.21709e-05
34.5915
-4.2278e-05
34.5897
-3.3777e-05
34.5876
-2.66012e-05
34.5854
-2.06492e-05
34.583
-1.57964e-05
34.5804
-1.19058e-05
34.5777
-8.83783e-06
34.5749
-6.45751e-06
34.5719
-4.6399e-06
34.5689
-3.27355e-06
34.5657
-2.26213e-06
34.5625
-1.52473e-06
34.5592
-9.95165e-07
34.5558
-6.20502e-07
34.5524
-3.59378e-07
34.5489
-1.80004e-07
34.5455
-5.93955e-08
34.542
2.05846e-08
34.5385
7.29042e-08
34.5351
1.05582e-07
34.5316
1.25412e-07
34.5282
1.36572e-07
34.5249
1.41988e-07
34.5216
1.43628e-07
34.5184
1.4279e-07
34.5152
1.40314e-07
34.5121
1.36759e-07
34.5091
1.32482e-07
34.5062
1.27719e-07
34.5034
1.2263e-07
34.5007
1.17305e-07
34.4981
1.11805e-07
34.4955
1.06194e-07
34.4931
1.00551e-07
34.4908
9.49503e-08
34.4886
8.93524e-08
34.4865
8.35462e-08
34.4845
7.74216e-08
34.4826
7.11425e-08
34.4808
6.52471e-08
34.4791
6.01221e-08
34.4775
5.56593e-08
34.476
5.14474e-08
34.4746
4.714e-08
34.4733
4.26007e-08
34.4721
3.79141e-08
34.4709
3.3232e-08
34.4698
2.87282e-08
34.4689
2.447e-08
34.4679
2.04782e-08
34.4671
1.67902e-08
34.4663
1.33605e-08
34.4656
1.017e-08
34.4649
7.18865e-09
34.4643
4.31737e-09
34.4637
1.69439e-09
34.4632
-8.17636e-10
34.4628
-3.09865e-09
34.4624
-5.28144e-09
34.462
-7.30415e-09
34.4616
-9.21227e-09
34.4613
-1.09858e-08
34.4611
-1.26702e-08
34.4608
-1.42145e-08
34.4606
-1.56815e-08
34.4604
-1.70066e-08
34.4602
-1.82545e-08
34.4601
-1.93813e-08
34.46
-2.045e-08
34.4598
-2.14095e-08
34.4598
-2.23154e-08
34.4597
-2.31257e-08
34.4596
-2.39215e-08
34.4596
-2.46355e-08
34.4595
-2.52039e-08
34.4595
-2.59424e-08
34.4595
-2.66427e-08
34.4595
-2.61316e-08
34.4595
-3.01179e-08
34.4596
-2.76132e-08
34.4596
-2.69356e-08
34.4596
-3.04371e-08
34.4597
-2.90229e-08
34.4598
-2.94922e-08
34.4598
-3.02271e-08
34.4599
-2.57533e-08
34.46
-3.18532e-08
34.4601
-3.03662e-08
34.4602
-3.1072e-08
34.4603
-3.18414e-08
34.4604
-3.23926e-08
34.4605
-3.27118e-08
34.4607
-3.28346e-08
34.4608
-3.28464e-08
34.4609
-3.28264e-08
34.4611
-3.28282e-08
34.4612
-3.28828e-08
34.4614
-3.29837e-08
34.4615
-3.31274e-08
34.4617
-3.33202e-08
34.4619
-3.3524e-08
34.462
-3.3755e-08
34.4622
-3.3986e-08
34.4624
-3.42288e-08
34.4626
-3.44826e-08
34.4628
-3.47272e-08
34.463
-3.49955e-08
34.4632
-3.5252e-08
34.4634
-3.55467e-08
34.4636
-3.58632e-08
34.4639
-3.62043e-08
34.4641
-3.66117e-08
34.4644
-3.70255e-08
34.4647
-3.75621e-08
34.465
-3.81187e-08
34.4653
-3.87881e-08
34.4656
-3.94848e-08
34.466
-4.03816e-08
34.4663
-4.12729e-08
34.4668
-4.23788e-08
34.4672
-4.35348e-08
34.4677
-4.48708e-08
34.4682
-4.62715e-08
34.4687
-4.8065e-08
34.4693
-4.9542e-08
34.4699
-5.15965e-08
34.4706
-5.34301e-08
34.4713
-5.57038e-08
34.4721
-5.78193e-08
34.4729
-6.0184e-08
34.4738
-6.24168e-08
34.4748
-6.51744e-08
34.4758
-6.76482e-08
34.477
-7.01511e-08
34.4781
-7.22303e-08
34.4794
-7.24795e-08
34.4807
-6.16046e-08
34.4821
3.50428e-09
34.4836
3.21187e-07
34.4852
1.86992e-06
34.4869
9.36667e-06
34.4887
4.55696e-05
34.4908
0.000220709
34.4946
0.00107077
34.5055
0.00523444
34.5513
0.0261819
34.7607
0.136186
35.5585
0.946093
3.04319
38.4601
7.81836
-0.000460514
7.81879
-0.000329037
7.81923
-0.000314217
7.81968
-0.000318573
7.82014
-0.000318883
7.82061
-0.00031871
7.82108
-0.000318768
7.82156
-0.000318832
7.82205
-0.00031883
7.82254
-0.000318929
7.82304
-0.000318956
7.82355
-0.000318962
7.82407
-0.000318993
7.82461
-0.000319027
7.82517
-0.000319068
7.82573
-0.000319114
7.8263
-0.000319185
7.82689
-0.000319195
7.82748
-0.00031927
7.82808
-0.000319323
7.82868
-0.000319305
7.82929
-0.000319523
7.82991
-0.000319382
7.83052
-0.000319398
7.83112
-0.000319333
7.83171
-0.00031918
7.83229
-0.000318855
7.83285
-0.000318323
7.83341
-0.000317478
7.83394
-0.000316193
7.83446
-0.000314314
7.83496
-0.000311594
7.83543
-0.000308117
7.83588
-0.000303249
7.83629
-0.000297076
7.83666
-0.000289281
7.83699
-0.00028002
7.83728
-0.000268772
7.83753
-0.000255888
7.83774
-0.00024134
7.8379
-0.000225328
7.83801
-0.000208116
7.83808
-0.00018999
7.83809
-0.000171536
7.83805
-0.000152686
7.83796
-0.000134348
7.83783
-0.000116627
7.83764
-9.98817e-05
7.8374
-8.43761e-05
7.83711
-7.02948e-05
7.83678
-5.77478e-05
7.8364
-4.6774e-05
7.83598