/*--------------------------------*- C++ -*----------------------------------*\
| =========                 |                                                 |
| \\      /  F ield         | OpenFOAM: The Open Source CFD Toolbox           |
|  \\    /   O peration     | Version:  3.0.x                                 |
|   \\  /    A nd           | Web:      www.OpenFOAM.org                      |
|    \\/     M anipulation  |                                                 |
\*---------------------------------------------------------------------------*/
FoamFile
{
    version     2.0;
    format      ascii;
    class       volVectorField;
    location    "0.26";
    object      U;
}
// * * * * * * * * * * * * * * * * * * * * * * * * * * * * * * * * * * * * * //

dimensions      [0 1 -1 0 0 0 0];

internalField   nonuniform List<vector> 
13800
(
(42.697 0.000141807 0)
(42.6954 0.000123527 0)
(42.6944 0.000122222 0)
(42.6931 0.000124437 0)
(42.6915 0.000126297 0)
(42.69 0.000127823 0)
(42.6886 0.000129109 0)
(42.6872 0.000130172 0)
(42.6858 0.000131039 0)
(42.6845 0.000131787 0)
(42.6832 0.000132401 0)
(42.682 0.000132913 0)
(42.6808 0.000133355 0)
(42.6797 0.000133733 0)
(42.6787 0.000134061 0)
(42.6777 0.000134345 0)
(42.6767 0.000134598 0)
(42.6758 0.000134804 0)
(42.6749 0.000134997 0)
(42.6741 0.000135161 0)
(42.6733 0.000135287 0)
(42.6725 0.000135449 0)
(42.6718 0.000135509 0)
(42.671 0.00013558 0)
(42.6702 0.000135615 0)
(42.6694 0.000135603 0)
(42.6685 0.000135513 0)
(42.6676 0.00013533 0)
(42.6667 0.000135009 0)
(42.6656 0.0001345 0)
(42.6645 0.00013374 0)
(42.6633 0.000132639 0)
(42.662 0.00013118 0)
(42.6606 0.000129175 0)
(42.6591 0.000126609 0)
(42.6576 0.000123375 0)
(42.6559 0.000119475 0)
(42.6542 0.000114788 0)
(42.6524 0.000109381 0)
(42.6505 0.000103267 0)
(42.6486 9.65242e-05 0)
(42.6467 8.92602e-05 0)
(42.6447 8.15979e-05 0)
(42.6427 7.37522e-05 0)
(42.6407 6.57737e-05 0)
(42.6386 5.79549e-05 0)
(42.6365 5.039e-05 0)
(42.6343 4.32267e-05 0)
(42.6321 3.65786e-05 0)
(42.6299 3.05274e-05 0)
(42.6275 2.51235e-05 0)
(42.625 2.03868e-05 0)
(42.6225 1.63099e-05 0)
(42.6198 1.28634e-05 0)
(42.617 1.00004e-05 0)
(42.6141 7.66288e-06 0)
(42.611 5.78628e-06 0)
(42.6078 4.30455e-06 0)
(42.6045 3.15351e-06 0)
(42.6011 2.27349e-06 0)
(42.5975 1.61112e-06 0)
(42.5939 1.12009e-06 0)
(42.5902 7.61367e-07 0)
(42.5863 5.02942e-07 0)
(42.5824 3.19285e-07 0)
(42.5785 1.90454e-07 0)
(42.5745 1.01034e-07 0)
(42.5705 3.84654e-08 0)
(42.5665 -2.38989e-09 0)
(42.5625 -2.58039e-08 0)
(42.5584 -4.01617e-08 0)
(42.5544 -4.86551e-08 0)
(42.5505 -5.33196e-08 0)
(42.5466 -5.54921e-08 0)
(42.5427 -5.60395e-08 0)
(42.539 -5.55434e-08 0)
(42.5353 -5.43756e-08 0)
(42.5316 -5.27816e-08 0)
(42.5281 -5.0936e-08 0)
(42.5247 -4.88895e-08 0)
(42.5214 -4.67493e-08 0)
(42.5182 -4.45374e-08 0)
(42.5151 -4.22958e-08 0)
(42.5121 -4.00331e-08 0)
(42.5092 -3.77727e-08 0)
(42.5065 -3.55583e-08 0)
(42.5039 -3.33671e-08 0)
(42.5014 -3.11114e-08 0)
(42.499 -2.87624e-08 0)
(42.4967 -2.63502e-08 0)
(42.4946 -2.40966e-08 0)
(42.4926 -2.21549e-08 0)
(42.4907 -2.05038e-08 0)
(42.4889 -1.8972e-08 0)
(42.4872 -1.7403e-08 0)
(42.4856 -1.57521e-08 0)
(42.4842 -1.40361e-08 0)
(42.4828 -1.23193e-08 0)
(42.4815 -1.06676e-08 0)
(42.4803 -9.11027e-09 0)
(42.4792 -7.65909e-09 0)
(42.4782 -6.32547e-09 0)
(42.4772 -5.08013e-09 0)
(42.4764 -3.91853e-09 0)
(42.4756 -2.80051e-09 0)
(42.4748 -1.67692e-09 0)
(42.4742 -4.1423e-10 0)
(42.4735 9.84181e-10 0)
(42.473 2.4094e-09 0)
(42.4725 3.59858e-09 0)
(42.472 4.58665e-09 0)
(42.4716 5.4796e-09 0)
(42.4712 6.27712e-09 0)
(42.4709 7.01233e-09 0)
(42.4706 7.67771e-09 0)
(42.4703 8.2971e-09 0)
(42.4701 8.84828e-09 0)
(42.4699 9.37014e-09 0)
(42.4697 9.83443e-09 0)
(42.4696 1.02663e-08 0)
(42.4694 1.06661e-08 0)
(42.4693 1.10294e-08 0)
(42.4692 1.13756e-08 0)
(42.4692 1.17071e-08 0)
(42.4691 1.19608e-08 0)
(42.4691 1.22961e-08 0)
(42.469 1.25735e-08 0)
(42.469 1.28042e-08 0)
(42.469 1.28167e-08 0)
(42.469 1.39454e-08 0)
(42.4691 1.34957e-08 0)
(42.4691 1.32513e-08 0)
(42.4692 1.4392e-08 0)
(42.4692 1.39944e-08 0)
(42.4693 1.41407e-08 0)
(42.4694 1.42108e-08 0)
(42.4695 1.30177e-08 0)
(42.4696 1.4675e-08 0)
(42.4697 1.44482e-08 0)
(42.4698 1.48202e-08 0)
(42.4699 1.51837e-08 0)
(42.47 1.54557e-08 0)
(42.4702 1.56156e-08 0)
(42.4703 1.56819e-08 0)
(42.4705 1.5698e-08 0)
(42.4706 1.5711e-08 0)
(42.4708 1.57261e-08 0)
(42.471 1.57775e-08 0)
(42.4712 1.58514e-08 0)
(42.4713 1.59562e-08 0)
(42.4715 1.60768e-08 0)
(42.4717 1.62166e-08 0)
(42.4719 1.63777e-08 0)
(42.4721 1.65353e-08 0)
(42.4723 1.67056e-08 0)
(42.4726 1.68784e-08 0)
(42.4728 1.70575e-08 0)
(42.473 1.72428e-08 0)
(42.4733 1.74249e-08 0)
(42.4735 1.76379e-08 0)
(42.4738 1.7844e-08 0)
(42.4741 1.80796e-08 0)
(42.4743 1.8328e-08 0)
(42.4747 1.85883e-08 0)
(42.475 1.88935e-08 0)
(42.4753 1.92025e-08 0)
(42.4757 1.95622e-08 0)
(42.476 1.99344e-08 0)
(42.4764 2.03524e-08 0)
(42.4769 2.08091e-08 0)
(42.4773 2.12882e-08 0)
(42.4778 2.18409e-08 0)
(42.4784 2.23957e-08 0)
(42.4789 2.30298e-08 0)
(42.4795 2.36739e-08 0)
(42.4802 2.43586e-08 0)
(42.4809 2.50959e-08 0)
(42.4816 2.58232e-08 0)
(42.4825 2.66441e-08 0)
(42.4833 2.74484e-08 0)
(42.4843 2.82417e-08 0)
(42.4853 2.90386e-08 0)
(42.4864 2.97626e-08 0)
(42.4876 3.05222e-08 0)
(42.4888 3.12294e-08 0)
(42.4901 3.19511e-08 0)
(42.4915 3.27429e-08 0)
(42.493 3.38804e-08 0)
(42.4946 3.74252e-08 0)
(42.4963 5.1682e-08 0)
(42.4981 1.21219e-07 0)
(42.5 4.63016e-07 0)
(42.5019 2.12471e-06 0)
(42.5036 1.01367e-05 0)
(42.5044 4.86354e-05 0)
(42.5 0.000232908 0)
(42.4711 0.00110816 0)
(42.3281 0.00523968 0)
(41.8653 0.026962 0)
(37.4507 0.106195 0)
(42.7009 0.000222464 0)
(42.7032 0.000162154 0)
(42.7061 0.000149579 0)
(42.7087 0.000147752 0)
(42.711 0.000145988 0)
(42.7134 0.000144536 0)
(42.7159 0.000143457 0)
(42.7184 0.000142586 0)
(42.7209 0.00014184 0)
(42.7235 0.000141258 0)
(42.7261 0.000140739 0)
(42.7288 0.000140285 0)
(42.7315 0.000139906 0)
(42.7343 0.000139582 0)
(42.7371 0.000139305 0)
(42.74 0.000139067 0)
(42.743 0.000138873 0)
(42.746 0.000138678 0)
(42.749 0.000138535 0)
(42.7521 0.000138403 0)
(42.7552 0.000138258 0)
(42.7583 0.000138232 0)
(42.7614 0.000138065 0)
(42.7645 0.000137972 0)
(42.7676 0.00013786 0)
(42.7707 0.00013772 0)
(42.7737 0.000137512 0)
(42.7767 0.000137224 0)
(42.7796 0.000136808 0)
(42.7825 0.000136211 0)
(42.7852 0.000135364 0)
(42.7878 0.000134161 0)
(42.7903 0.000132642 0)
(42.7926 0.000130528 0)
(42.7948 0.000127859 0)
(42.7968 0.0001245 0)
(42.7986 0.00012051 0)
(42.8002 0.000115677 0)
(42.8016 0.000110139 0)
(42.8028 0.000103889 0)
(42.8038 9.70101e-05 0)
(42.8045 8.96157e-05 0)
(42.805 8.18232e-05 0)
(42.8052 7.38936e-05 0)
(42.8052 6.57866e-05 0)
(42.8049 5.78992e-05 0)
(42.8043 5.02739e-05 0)
(42.8035 4.30659e-05 0)
(42.8024 3.63889e-05 0)
(42.8011 3.03231e-05 0)
(42.7995 2.49162e-05 0)
(42.7977 2.01857e-05 0)
(42.7957 1.61217e-05 0)
(42.7934 1.26921e-05 0)
(42.7909 9.84833e-06 0)
(42.7883 7.53043e-06 0)
(42.7854 5.67276e-06 0)
(42.7823 4.20839e-06 0)
(42.7791 3.07263e-06 0)
(42.7758 2.20568e-06 0)
(42.7723 1.5542e-06 0)
(42.7687 1.07221e-06 0)
(42.7649 7.2107e-07 0)
(42.7611 4.69146e-07 0)
(42.7573 2.91031e-07 0)
(42.7533 1.66872e-07 0)
(42.7493 8.15834e-08 0)
(42.7453 2.48277e-08 0)
(42.7413 -1.27106e-08 0)
(42.7373 -3.73562e-08 0)
(42.7333 -5.31732e-08 0)
(42.7293 -6.2844e-08 0)
(42.7253 -6.83039e-08 0)
(42.7214 -7.09308e-08 0)
(42.7175 -7.1686e-08 0)
(42.7138 -7.11976e-08 0)
(42.7101 -6.98982e-08 0)
(42.7064 -6.8063e-08 0)
(42.7029 -6.58482e-08 0)
(42.6995 -6.33963e-08 0)
(42.6962 -6.0782e-08 0)
(42.6929 -5.80492e-08 0)
(42.6898 -5.52208e-08 0)
(42.6869 -5.2333e-08 0)
(42.684 -4.94282e-08 0)
(42.6812 -4.65564e-08 0)
(42.6786 -4.3689e-08 0)
(42.6761 -4.07203e-08 0)
(42.6737 -3.75875e-08 0)
(42.6715 -3.43602e-08 0)
(42.6693 -3.13485e-08 0)
(42.6673 -2.87398e-08 0)
(42.6654 -2.64614e-08 0)
(42.6636 -2.43082e-08 0)
(42.6619 -2.20977e-08 0)
(42.6604 -1.97676e-08 0)
(42.6589 -1.73796e-08 0)
(42.6575 -1.4994e-08 0)
(42.6562 -1.27008e-08 0)
(42.655 -1.05455e-08 0)
(42.6539 -8.52824e-09 0)
(42.6529 -6.68031e-09 0)
(42.6519 -4.96882e-09 0)
(42.6511 -3.39546e-09 0)
(42.6503 -1.93878e-09 0)
(42.6495 -5.99204e-10 0)
(42.6488 4.51463e-10 0)
(42.6482 1.53227e-09 0)
(42.6477 2.5995e-09 0)
(42.6472 3.70672e-09 0)
(42.6467 4.74607e-09 0)
(42.6463 5.74101e-09 0)
(42.6459 6.64955e-09 0)
(42.6456 7.52061e-09 0)
(42.6453 8.31068e-09 0)
(42.645 9.06369e-09 0)
(42.6448 9.74064e-09 0)
(42.6446 1.03769e-08 0)
(42.6444 1.0945e-08 0)
(42.6442 1.14768e-08 0)
(42.6441 1.19612e-08 0)
(42.644 1.2408e-08 0)
(42.6439 1.28192e-08 0)
(42.6438 1.32047e-08 0)
(42.6437 1.35233e-08 0)
(42.6437 1.38717e-08 0)
(42.6437 1.42011e-08 0)
(42.6437 1.45167e-08 0)
(42.6436 1.42847e-08 0)
(42.6437 1.61831e-08 0)
(42.6437 1.50735e-08 0)
(42.6437 1.45706e-08 0)
(42.6438 1.64267e-08 0)
(42.6438 1.56544e-08 0)
(42.6439 1.59306e-08 0)
(42.644 1.62746e-08 0)
(42.6441 1.40459e-08 0)
(42.6442 1.6994e-08 0)
(42.6443 1.6281e-08 0)
(42.6444 1.66524e-08 0)
(42.6445 1.70281e-08 0)
(42.6446 1.72922e-08 0)
(42.6448 1.74491e-08 0)
(42.6449 1.7504e-08 0)
(42.6451 1.75049e-08 0)
(42.6452 1.74907e-08 0)
(42.6454 1.74881e-08 0)
(42.6455 1.75214e-08 0)
(42.6457 1.75724e-08 0)
(42.6459 1.7644e-08 0)
(42.6461 1.77523e-08 0)
(42.6463 1.78605e-08 0)
(42.6465 1.79938e-08 0)
(42.6467 1.81217e-08 0)
(42.6469 1.8266e-08 0)
(42.6471 1.84158e-08 0)
(42.6473 1.85737e-08 0)
(42.6476 1.87431e-08 0)
(42.6478 1.89121e-08 0)
(42.6481 1.91151e-08 0)
(42.6483 1.93199e-08 0)
(42.6486 1.95672e-08 0)
(42.6489 1.98345e-08 0)
(42.6492 2.01448e-08 0)
(42.6495 2.05093e-08 0)
(42.6498 2.09041e-08 0)
(42.6502 2.13716e-08 0)
(42.6505 2.18867e-08 0)
(42.6509 2.24822e-08 0)
(42.6514 2.31627e-08 0)
(42.6518 2.38947e-08 0)
(42.6523 2.47585e-08 0)
(42.6528 2.56396e-08 0)
(42.6534 2.66553e-08 0)
(42.654 2.7704e-08 0)
(42.6547 2.88548e-08 0)
(42.6554 3.01054e-08 0)
(42.6561 3.13364e-08 0)
(42.6569 3.26785e-08 0)
(42.6578 3.40514e-08 0)
(42.6588 3.54545e-08 0)
(42.6598 3.70176e-08 0)
(42.6608 3.8522e-08 0)
(42.662 4.01092e-08 0)
(42.6633 4.17831e-08 0)
(42.6646 4.35462e-08 0)
(42.666 4.55729e-08 0)
(42.6675 4.96203e-08 0)
(42.6691 6.22442e-08 0)
(42.6708 1.15196e-07 0)
(42.6725 3.619e-07 0)
(42.6744 1.53876e-06 0)
(42.6763 7.2081e-06 0)
(42.6781 3.4502e-05 0)
(42.6788 0.000165633 0)
(42.6745 0.0007933 0)
(42.6457 0.00377495 0)
(42.5033 0.0178198 0)
(42.0414 0.0898294 0)
(37.8637 0.334531 0)
(42.7009 0.00016381 0)
(42.7032 0.000113303 0)
(42.7061 0.000106914 0)
(42.7087 0.000110422 0)
(42.711 0.00011151 0)
(42.7134 0.000111965 0)
(42.7159 0.000112386 0)
(42.7184 0.000112734 0)
(42.7209 0.000112997 0)
(42.7235 0.000113253 0)
(42.7261 0.000113451 0)
(42.7288 0.000113615 0)
(42.7315 0.000113767 0)
(42.7343 0.000113901 0)
(42.7372 0.000114023 0)
(42.7401 0.000114134 0)
(42.743 0.000114242 0)
(42.746 0.000114319 0)
(42.7491 0.000114411 0)
(42.7521 0.000114488 0)
(42.7552 0.000114533 0)
(42.7584 0.000114658 0)
(42.7615 0.000114648 0)
(42.7646 0.000114691 0)
(42.7677 0.000114701 0)
(42.7708 0.000114674 0)
(42.7739 0.000114584 0)
(42.7769 0.000114416 0)
(42.7798 0.000114133 0)
(42.7826 0.000113688 0)
(42.7853 0.000113027 0)
(42.788 0.000112061 0)
(42.7904 0.000110821 0)
(42.7928 0.000109076 0)
(42.795 0.00010686 0)
(42.797 0.000104056 0)
(42.7988 0.000100728 0)
(42.8004 9.66757e-05 0)
(42.8018 9.20382e-05 0)
(42.803 8.67996e-05 0)
(42.804 8.10341e-05 0)
(42.8047 7.48359e-05 0)
(42.8052 6.83128e-05 0)
(42.8054 6.16672e-05 0)
(42.8054 5.48847e-05 0)
(42.8051 4.82855e-05 0)
(42.8045 4.19106e-05 0)
(42.8037 3.58878e-05 0)
(42.8026 3.03119e-05 0)
(42.8013 2.52493e-05 0)
(42.7997 2.07392e-05 0)
(42.7979 1.67953e-05 0)
(42.7958 1.34089e-05 0)
(42.7935 1.05525e-05 0)
(42.7911 8.18497e-06 0)
(42.7884 6.25608e-06 0)
(42.7855 4.71078e-06 0)
(42.7824 3.49311e-06 0)
(42.7792 2.54904e-06 0)
(42.7759 1.82867e-06 0)
(42.7724 1.28753e-06 0)
(42.7688 8.87189e-07 0)
(42.7651 5.95416e-07 0)
(42.7612 3.85872e-07 0)
(42.7574 2.37651e-07 0)
(42.7534 1.34608e-07 0)
(42.7494 6.45282e-08 0)
(42.7454 1.80377e-08 0)
(42.7414 -1.35236e-08 0)
(42.7374 -3.44516e-08 0)
(42.7334 -4.75533e-08 0)
(42.7294 -5.54497e-08 0)
(42.7254 -5.98753e-08 0)
(42.7215 -6.20269e-08 0)
(42.7176 -6.26769e-08 0)
(42.7139 -6.23469e-08 0)
(42.7102 -6.13628e-08 0)
(42.7065 -5.99507e-08 0)
(42.703 -5.82567e-08 0)
(42.6996 -5.63597e-08 0)
(42.6963 -5.4325e-08 0)
(42.693 -5.21899e-08 0)
(42.6899 -4.9982e-08 0)
(42.687 -4.77295e-08 0)
(42.6841 -4.54502e-08 0)
(42.6814 -4.31871e-08 0)
(42.6787 -4.09188e-08 0)
(42.6762 -3.85662e-08 0)
(42.6739 -3.60762e-08 0)
(42.6716 -3.35158e-08 0)
(42.6695 -3.11111e-08 0)
(42.6674 -2.90169e-08 0)
(42.6655 -2.71934e-08 0)
(42.6637 -2.54684e-08 0)
(42.662 -2.3703e-08 0)
(42.6605 -2.18442e-08 0)
(42.659 -1.99232e-08 0)
(42.6576 -1.79966e-08 0)
(42.6563 -1.61488e-08 0)
(42.6551 -1.43932e-08 0)
(42.654 -1.27476e-08 0)
(42.653 -1.12165e-08 0)
(42.652 -9.80496e-09 0)
(42.6512 -8.47405e-09 0)
(42.6504 -7.21331e-09 0)
(42.6496 -6.00171e-09 0)
(42.6489 -4.88993e-09 0)
(42.6483 -3.87512e-09 0)
(42.6478 -3.05837e-09 0)
(42.6473 -2.24196e-09 0)
(42.6468 -1.47119e-09 0)
(42.6464 -7.30547e-10 0)
(42.646 -4.14275e-11 0)
(42.6457 6.21567e-10 0)
(42.6454 1.23881e-09 0)
(42.6451 1.82211e-09 0)
(42.6449 2.34961e-09 0)
(42.6447 2.85295e-09 0)
(42.6445 3.30321e-09 0)
(42.6443 3.73194e-09 0)
(42.6442 4.12165e-09 0)
(42.6441 4.49091e-09 0)
(42.644 4.8165e-09 0)
(42.6439 5.13197e-09 0)
(42.6438 5.42861e-09 0)
(42.6438 5.64218e-09 0)
(42.6438 5.94675e-09 0)
(42.6438 6.24572e-09 0)
(42.6438 5.99379e-09 0)
(42.6438 7.66101e-09 0)
(42.6438 6.60284e-09 0)
(42.6438 6.27732e-09 0)
(42.6439 7.78279e-09 0)
(42.6439 7.15214e-09 0)
(42.644 7.3462e-09 0)
(42.6441 7.71559e-09 0)
(42.6442 5.77111e-09 0)
(42.6443 8.34242e-09 0)
(42.6444 7.6622e-09 0)
(42.6445 7.93993e-09 0)
(42.6446 8.216e-09 0)
(42.6447 8.41573e-09 0)
(42.6449 8.52337e-09 0)
(42.645 8.55646e-09 0)
(42.6452 8.53693e-09 0)
(42.6453 8.50776e-09 0)
(42.6455 8.48267e-09 0)
(42.6456 8.47425e-09 0)
(42.6458 8.47236e-09 0)
(42.646 8.49007e-09 0)
(42.6462 8.52026e-09 0)
(42.6464 8.54598e-09 0)
(42.6466 8.58515e-09 0)
(42.6468 8.61573e-09 0)
(42.647 8.64707e-09 0)
(42.6472 8.67497e-09 0)
(42.6474 8.69878e-09 0)
(42.6477 8.72692e-09 0)
(42.6479 8.74768e-09 0)
(42.6482 8.78648e-09 0)
(42.6484 8.82292e-09 0)
(42.6487 8.887e-09 0)
(42.649 8.94842e-09 0)
(42.6493 9.04204e-09 0)
(42.6496 9.16318e-09 0)
(42.6499 9.30617e-09 0)
(42.6503 9.48814e-09 0)
(42.6506 9.7001e-09 0)
(42.651 9.94757e-09 0)
(42.6515 1.02554e-08 0)
(42.6519 1.05816e-08 0)
(42.6524 1.10113e-08 0)
(42.6529 1.14324e-08 0)
(42.6535 1.19756e-08 0)
(42.6541 1.24986e-08 0)
(42.6548 1.31235e-08 0)
(42.6555 1.38059e-08 0)
(42.6562 1.45223e-08 0)
(42.657 1.52723e-08 0)
(42.6579 1.61919e-08 0)
(42.6589 1.69626e-08 0)
(42.6599 1.79899e-08 0)
(42.661 1.88753e-08 0)
(42.6621 1.98362e-08 0)
(42.6634 2.09473e-08 0)
(42.6647 2.21282e-08 0)
(42.6661 2.3967e-08 0)
(42.6676 2.91749e-08 0)
(42.6692 5.12956e-08 0)
(42.6709 1.5121e-07 0)
(42.6726 6.35697e-07 0)
(42.6745 2.97073e-06 0)
(42.6764 1.42186e-05 0)
(42.6782 6.8365e-05 0)
(42.679 0.000328523 0)
(42.6748 0.00157407 0)
(42.6468 0.0074954 0)
(42.5083 0.0353812 0)
(42.0606 0.177501 0)
(38.1121 0.646387 0)
(42.7008 0.000119158 0)
(42.7032 0.000102725 0)
(42.7061 9.91987e-05 0)
(42.7087 0.000103716 0)
(42.711 0.000105948 0)
(42.7134 0.0001072 0)
(42.7159 0.000108272 0)
(42.7184 0.000109182 0)
(42.7209 0.000109924 0)
(42.7235 0.000110568 0)
(42.7261 0.000111102 0)
(42.7288 0.000111553 0)
(42.7315 0.000111946 0)
(42.7343 0.000112286 0)
(42.7371 0.000112584 0)
(42.74 0.000112846 0)
(42.743 0.000113083 0)
(42.746 0.00011328 0)
(42.749 0.000113467 0)
(42.7521 0.000113629 0)
(42.7552 0.000113759 0)
(42.7583 0.000113922 0)
(42.7615 0.000113992 0)
(42.7646 0.00011408 0)
(42.7677 0.000114133 0)
(42.7708 0.000114144 0)
(42.7738 0.000114098 0)
(42.7768 0.000113967 0)
(42.7797 0.000113723 0)
(42.7826 0.000113323 0)
(42.7853 0.000112711 0)
(42.7879 0.000111812 0)
(42.7904 0.000110618 0)
(42.7928 0.000108961 0)
(42.7949 0.00010683 0)
(42.797 0.00010414 0)
(42.7988 0.000100901 0)
(42.8004 9.69721e-05 0)
(42.8018 9.24509e-05 0)
(42.803 8.73267e-05 0)
(42.804 8.16681e-05 0)
(42.8047 7.55625e-05 0)
(42.8052 6.91263e-05 0)
(42.8054 6.25137e-05 0)
(42.8053 5.57913e-05 0)
(42.805 4.91946e-05 0)
(42.8045 4.28078e-05 0)
(42.8037 3.67537e-05 0)
(42.8026 3.11296e-05 0)
(42.8012 2.60055e-05 0)
(42.7997 2.14252e-05 0)
(42.7979 1.74062e-05 0)
(42.7958 1.39437e-05 0)
(42.7935 1.10134e-05 0)
(42.7911 8.57671e-06 0)
(42.7884 6.58494e-06 0)
(42.7855 4.98414e-06 0)
(42.7824 3.7187e-06 0)
(42.7792 2.73447e-06 0)
(42.7759 1.98107e-06 0)
(42.7724 1.41325e-06 0)
(42.7688 9.91749e-07 0)
(42.7651 6.83464e-07 0)
(42.7612 4.61227e-07 0)
(42.7574 3.03343e-07 0)
(42.7534 1.92889e-07 0)
(42.7494 1.16691e-07 0)
(42.7454 6.32292e-08 0)
(42.7414 2.78674e-08 0)
(42.7374 6.58135e-09 0)
(42.7334 -6.55504e-09 0)
(42.7294 -1.44695e-08 0)
(42.7254 -1.89923e-08 0)
(42.7215 -2.13013e-08 0)
(42.7176 -2.21647e-08 0)
(42.7139 -2.2079e-08 0)
(42.7102 -2.13864e-08 0)
(42.7065 -2.03007e-08 0)
(42.703 -1.8952e-08 0)
(42.6996 -1.74335e-08 0)
(42.6963 -1.58093e-08 0)
(42.693 -1.41095e-08 0)
(42.6899 -1.23546e-08 0)
(42.687 -1.05658e-08 0)
(42.6841 -8.76974e-09 0)
(42.6814 -6.99158e-09 0)
(42.6787 -5.2156e-09 0)
(42.6762 -3.37537e-09 0)
(42.6739 -1.4256e-09 0)
(42.6716 5.79451e-10 0)
(42.6695 2.46878e-09 0)
(42.6674 4.10058e-09 0)
(42.6655 5.49752e-09 0)
(42.6637 6.79535e-09 0)
(42.662 8.12911e-09 0)
(42.6605 9.54015e-09 0)
(42.659 1.10147e-08 0)
(42.6576 1.25036e-08 0)
(42.6563 1.3939e-08 0)
(42.6551 1.53027e-08 0)
(42.654 1.6575e-08 0)
(42.653 1.77643e-08 0)
(42.652 1.88721e-08 0)
(42.6512 1.99184e-08 0)
(42.6504 2.09239e-08 0)
(42.6496 2.19172e-08 0)
(42.6489 2.30797e-08 0)
(42.6483 2.42149e-08 0)
(42.6478 2.5288e-08 0)
(42.6473 2.61642e-08 0)
(42.6468 2.69251e-08 0)
(42.6464 2.76218e-08 0)
(42.646 2.82525e-08 0)
(42.6457 2.88503e-08 0)
(42.6454 2.93975e-08 0)
(42.6451 2.99136e-08 0)
(42.6449 3.03818e-08 0)
(42.6447 3.08199e-08 0)
(42.6445 3.12171e-08 0)
(42.6443 3.15862e-08 0)
(42.6442 3.19245e-08 0)
(42.6441 3.22509e-08 0)
(42.644 3.25405e-08 0)
(42.6439 3.28256e-08 0)
(42.6438 3.30895e-08 0)
(42.6438 3.33099e-08 0)
(42.6438 3.35761e-08 0)
(42.6438 3.38349e-08 0)
(42.6438 3.37579e-08 0)
(42.6438 3.49935e-08 0)
(42.6438 3.43072e-08 0)
(42.6438 3.41912e-08 0)
(42.6439 3.5251e-08 0)
(42.6439 3.48814e-08 0)
(42.644 3.50117e-08 0)
(42.6441 3.51841e-08 0)
(42.6442 3.39084e-08 0)
(42.6443 3.57463e-08 0)
(42.6444 3.54029e-08 0)
(42.6445 3.57024e-08 0)
(42.6446 3.60232e-08 0)
(42.6447 3.62682e-08 0)
(42.6449 3.64226e-08 0)
(42.645 3.64991e-08 0)
(42.6452 3.65285e-08 0)
(42.6453 3.65453e-08 0)
(42.6455 3.65686e-08 0)
(42.6456 3.66088e-08 0)
(42.6458 3.66669e-08 0)
(42.646 3.67426e-08 0)
(42.6462 3.6839e-08 0)
(42.6464 3.69363e-08 0)
(42.6466 3.70439e-08 0)
(42.6468 3.71487e-08 0)
(42.647 3.72585e-08 0)
(42.6472 3.73693e-08 0)
(42.6474 3.74776e-08 0)
(42.6477 3.75887e-08 0)
(42.6479 3.77028e-08 0)
(42.6482 3.78248e-08 0)
(42.6484 3.79481e-08 0)
(42.6487 3.80833e-08 0)
(42.649 3.82257e-08 0)
(42.6493 3.8391e-08 0)
(42.6496 3.85622e-08 0)
(42.6499 3.87513e-08 0)
(42.6503 3.89572e-08 0)
(42.6506 3.91872e-08 0)
(42.651 3.94531e-08 0)
(42.6515 3.97704e-08 0)
(42.6519 4.01017e-08 0)
(42.6524 4.05146e-08 0)
(42.6529 4.0899e-08 0)
(42.6535 4.13649e-08 0)
(42.6541 4.17596e-08 0)
(42.6548 4.22392e-08 0)
(42.6555 4.2852e-08 0)
(42.6562 4.32689e-08 0)
(42.657 4.38932e-08 0)
(42.6579 4.4502e-08 0)
(42.6589 4.50688e-08 0)
(42.6599 4.59252e-08 0)
(42.661 4.6485e-08 0)
(42.6621 4.71458e-08 0)
(42.6634 4.82832e-08 0)
(42.6647 4.94907e-08 0)
(42.6661 5.28517e-08 0)
(42.6676 6.44216e-08 0)
(42.6692 1.18877e-07 0)
(42.6709 3.74721e-07 0)
(42.6726 1.60276e-06 0)
(42.6745 7.51035e-06 0)
(42.6764 3.59865e-05 0)
(42.6782 0.000173101 0)
(42.6792 0.000831887 0)
(42.6757 0.00398454 0)
(42.6511 0.0189279 0)
(42.5304 0.0882744 0)
(42.1423 0.408158 0)
(39.1407 1.46402 0)
(42.7008 3.60076e-05 0)
(42.7031 2.80448e-05 0)
(42.706 1.96266e-05 0)
(42.7086 1.65782e-05 0)
(42.711 1.40787e-05 0)
(42.7134 1.18779e-05 0)
(42.7158 1.01454e-05 0)
(42.7183 8.75619e-06 0)
(42.7209 7.60515e-06 0)
(42.7234 6.64647e-06 0)
(42.7261 5.83328e-06 0)
(42.7287 5.13832e-06 0)
(42.7315 4.54266e-06 0)
(42.7343 4.02821e-06 0)
(42.7371 3.58185e-06 0)
(42.74 3.19288e-06 0)
(42.743 2.85347e-06 0)
(42.746 2.55326e-06 0)
(42.749 2.29167e-06 0)
(42.7521 2.0603e-06 0)
(42.7552 1.85293e-06 0)
(42.7583 1.68246e-06 0)
(42.7614 1.51395e-06 0)
(42.7646 1.37441e-06 0)
(42.7677 1.24934e-06 0)
(42.7708 1.13714e-06 0)
(42.7738 1.03881e-06 0)
(42.7768 9.48421e-07 0)
(42.7797 8.67437e-07 0)
(42.7825 7.93499e-07 0)
(42.7853 7.24494e-07 0)
(42.7879 6.55409e-07 0)
(42.7904 6.01114e-07 0)
(42.7927 5.35116e-07 0)
(42.7949 4.69917e-07 0)
(42.7969 4.06793e-07 0)
(42.7988 3.50878e-07 0)
(42.8004 2.7491e-07 0)
(42.8018 2.09784e-07 0)
(42.803 1.42132e-07 0)
(42.8039 7.6651e-08 0)
(42.8047 1.34315e-08 0)
(42.8051 -4.12673e-08 0)
(42.8054 -8.86344e-08 0)
(42.8053 -1.37333e-07 0)
(42.805 -1.68309e-07 0)
(42.8045 -1.91275e-07 0)
(42.8036 -2.05831e-07 0)
(42.8026 -2.12065e-07 0)
(42.8012 -2.11002e-07 0)
(42.7997 -2.03994e-07 0)
(42.7978 -1.92502e-07 0)
(42.7958 -1.77987e-07 0)
(42.7935 -1.61793e-07 0)
(42.791 -1.4508e-07 0)
(42.7884 -1.2877e-07 0)
(42.7855 -1.13556e-07 0)
(42.7824 -9.98825e-08 0)
(42.7792 -8.79943e-08 0)
(42.7759 -7.79445e-08 0)
(42.7724 -6.96324e-08 0)
(42.7688 -6.27778e-08 0)
(42.7651 -5.6984e-08 0)
(42.7612 -5.19523e-08 0)
(42.7574 -4.76024e-08 0)
(42.7534 -4.40264e-08 0)
(42.7494 -4.13207e-08 0)
(42.7454 -3.90332e-08 0)
(42.7414 -3.69604e-08 0)
(42.7374 -3.66436e-08 0)
(42.7334 -3.67245e-08 0)
(42.7294 -3.68361e-08 0)
(42.7254 -3.68588e-08 0)
(42.7215 -3.67743e-08 0)
(42.7176 -3.65905e-08 0)
(42.7139 -3.63301e-08 0)
(42.7102 -3.60088e-08 0)
(42.7065 -3.56439e-08 0)
(42.703 -3.52438e-08 0)
(42.6996 -3.48161e-08 0)
(42.6963 -3.43667e-08 0)
(42.693 -3.39012e-08 0)
(42.6899 -3.34234e-08 0)
(42.687 -3.29348e-08 0)
(42.6841 -3.24458e-08 0)
(42.6814 -3.19608e-08 0)
(42.6787 -3.14815e-08 0)
(42.6762 -3.09926e-08 0)
(42.6739 -3.04814e-08 0)
(42.6716 -2.9967e-08 0)
(42.6695 -2.9491e-08 0)
(42.6674 -2.90669e-08 0)
(42.6655 -2.86686e-08 0)
(42.6637 -2.82717e-08 0)
(42.662 -2.78648e-08 0)
(42.6605 -2.7452e-08 0)
(42.659 -2.70505e-08 0)
(42.6576 -2.66567e-08 0)
(42.6563 -2.62901e-08 0)
(42.6551 -2.59487e-08 0)
(42.654 -2.56287e-08 0)
(42.653 -2.53434e-08 0)
(42.652 -2.50895e-08 0)
(42.6512 -2.48688e-08 0)
(42.6504 -2.47036e-08 0)
(42.6496 -2.46194e-08 0)
(42.6489 -2.47037e-08 0)
(42.6483 -2.48245e-08 0)
(42.6478 -2.48673e-08 0)
(42.6473 -2.48073e-08 0)
(42.6468 -2.47151e-08 0)
(42.6464 -2.46127e-08 0)
(42.646 -2.45138e-08 0)
(42.6457 -2.44179e-08 0)
(42.6454 -2.43257e-08 0)
(42.6451 -2.42377e-08 0)
(42.6449 -2.41591e-08 0)
(42.6447 -2.40827e-08 0)
(42.6445 -2.40149e-08 0)
(42.6443 -2.39508e-08 0)
(42.6442 -2.38923e-08 0)
(42.6441 -2.38351e-08 0)
(42.644 -2.37902e-08 0)
(42.6439 -2.37448e-08 0)
(42.6438 -2.37026e-08 0)
(42.6438 -2.36798e-08 0)
(42.6438 -2.36494e-08 0)
(42.6438 -2.36103e-08 0)
(42.6438 -2.36748e-08 0)
(42.6438 -2.33336e-08 0)
(42.6438 -2.36192e-08 0)
(42.6438 -2.36925e-08 0)
(42.6439 -2.34166e-08 0)
(42.6439 -2.35279e-08 0)
(42.644 -2.34824e-08 0)
(42.6441 -2.3411e-08 0)
(42.6442 -2.37735e-08 0)
(42.6443 -2.31982e-08 0)
(42.6444 -2.33439e-08 0)
(42.6445 -2.33215e-08 0)
(42.6446 -2.32906e-08 0)
(42.6447 -2.32665e-08 0)
(42.6449 -2.32529e-08 0)
(42.645 -2.32452e-08 0)
(42.6452 -2.32428e-08 0)
(42.6453 -2.32341e-08 0)
(42.6455 -2.3222e-08 0)
(42.6456 -2.32042e-08 0)
(42.6458 -2.31862e-08 0)
(42.646 -2.31659e-08 0)
(42.6462 -2.31422e-08 0)
(42.6464 -2.31188e-08 0)
(42.6466 -2.30912e-08 0)
(42.6468 -2.30627e-08 0)
(42.647 -2.30291e-08 0)
(42.6472 -2.29965e-08 0)
(42.6474 -2.29582e-08 0)
(42.6477 -2.29206e-08 0)
(42.6479 -2.28785e-08 0)
(42.6482 -2.28239e-08 0)
(42.6484 -2.27773e-08 0)
(42.6487 -2.27035e-08 0)
(42.649 -2.26532e-08 0)
(42.6493 -2.2547e-08 0)
(42.6496 -2.24774e-08 0)
(42.6499 -2.23381e-08 0)
(42.6503 -2.22444e-08 0)
(42.6506 -2.20937e-08 0)
(42.651 -2.19628e-08 0)
(42.6515 -2.17764e-08 0)
(42.6519 -2.16638e-08 0)
(42.6524 -2.13633e-08 0)
(42.6529 -2.12436e-08 0)
(42.6535 -2.08681e-08 0)
(42.6541 -2.08041e-08 0)
(42.6548 -2.04239e-08 0)
(42.6555 -2.00773e-08 0)
(42.6562 -1.97274e-08 0)
(42.657 -1.95756e-08 0)
(42.6579 -1.88642e-08 0)
(42.6589 -1.88934e-08 0)
(42.6599 -1.80936e-08 0)
(42.661 -1.7701e-08 0)
(42.6621 -1.76524e-08 0)
(42.6634 -1.65099e-08 0)
(42.6647 -1.55262e-08 0)
(42.6661 -1.13974e-08 0)
(42.6676 7.01819e-09 0)
(42.6692 9.54817e-08 0)
(42.6709 5.16148e-07 0)
(42.6727 2.54742e-06 0)
(42.6745 1.23598e-05 0)
(42.6765 5.96648e-05 0)
(42.6784 0.000287607 0)
(42.6801 0.00138444 0)
(42.68 0.00664515 0)
(42.6713 0.0316629 0)
(42.6204 0.147907 0)
(42.4513 0.664706 0)
(40.6683 2.35958 0)
(42.7008 -3.60076e-05 0)
(42.7031 -2.80448e-05 0)
(42.706 -1.96266e-05 0)
(42.7086 -1.65782e-05 0)
(42.711 -1.40787e-05 0)
(42.7134 -1.18779e-05 0)
(42.7158 -1.01454e-05 0)
(42.7183 -8.75619e-06 0)
(42.7209 -7.60515e-06 0)
(42.7234 -6.64647e-06 0)
(42.7261 -5.83328e-06 0)
(42.7287 -5.13832e-06 0)
(42.7315 -4.54266e-06 0)
(42.7343 -4.02821e-06 0)
(42.7371 -3.58185e-06 0)
(42.74 -3.19288e-06 0)
(42.743 -2.85347e-06 0)
(42.746 -2.55326e-06 0)
(42.749 -2.29167e-06 0)
(42.7521 -2.06031e-06 0)
(42.7552 -1.85293e-06 0)
(42.7583 -1.68246e-06 0)
(42.7614 -1.51396e-06 0)
(42.7646 -1.37442e-06 0)
(42.7677 -1.24934e-06 0)
(42.7708 -1.13714e-06 0)
(42.7738 -1.03881e-06 0)
(42.7768 -9.48422e-07 0)
(42.7797 -8.67437e-07 0)
(42.7825 -7.93497e-07 0)
(42.7853 -7.24492e-07 0)
(42.7879 -6.55408e-07 0)
(42.7904 -6.01111e-07 0)
(42.7927 -5.35115e-07 0)
(42.7949 -4.69917e-07 0)
(42.7969 -4.06797e-07 0)
(42.7988 -3.50881e-07 0)
(42.8004 -2.74912e-07 0)
(42.8018 -2.09786e-07 0)
(42.803 -1.42132e-07 0)
(42.8039 -7.66523e-08 0)
(42.8047 -1.34345e-08 0)
(42.8051 4.12651e-08 0)
(42.8054 8.86294e-08 0)
(42.8053 1.3733e-07 0)
(42.805 1.68306e-07 0)
(42.8045 1.91274e-07 0)
(42.8036 2.05829e-07 0)
(42.8026 2.12065e-07 0)
(42.8012 2.11003e-07 0)
(42.7997 2.03994e-07 0)
(42.7978 1.92501e-07 0)
(42.7958 1.77988e-07 0)
(42.7935 1.61794e-07 0)
(42.791 1.45077e-07 0)
(42.7884 1.28769e-07 0)
(42.7855 1.13555e-07 0)
(42.7824 9.98844e-08 0)
(42.7792 8.79948e-08 0)
(42.7759 7.79452e-08 0)
(42.7724 6.96334e-08 0)
(42.7688 6.2778e-08 0)
(42.7651 5.69857e-08 0)
(42.7612 5.19527e-08 0)
(42.7574 4.76031e-08 0)
(42.7534 4.40255e-08 0)
(42.7494 4.13211e-08 0)
(42.7454 3.90329e-08 0)
(42.7414 3.6959e-08 0)
(42.7374 3.66423e-08 0)
(42.7334 3.67244e-08 0)
(42.7294 3.68352e-08 0)
(42.7254 3.68592e-08 0)
(42.7215 3.67729e-08 0)
(42.7176 3.65886e-08 0)
(42.7139 3.63299e-08 0)
(42.7102 3.60111e-08 0)
(42.7065 3.56439e-08 0)
(42.703 3.5241e-08 0)
(42.6996 3.48139e-08 0)
(42.6963 3.43643e-08 0)
(42.693 3.38994e-08 0)
(42.6899 3.34211e-08 0)
(42.687 3.29338e-08 0)
(42.6841 3.24475e-08 0)
(42.6814 3.19626e-08 0)
(42.6787 3.14835e-08 0)
(42.6762 3.09923e-08 0)
(42.6739 3.048e-08 0)
(42.6716 2.99672e-08 0)
(42.6695 2.94934e-08 0)
(42.6674 2.90689e-08 0)
(42.6655 2.86693e-08 0)
(42.6637 2.82708e-08 0)
(42.662 2.7864e-08 0)
(42.6605 2.74523e-08 0)
(42.659 2.70487e-08 0)
(42.6576 2.66575e-08 0)
(42.6563 2.62893e-08 0)
(42.6551 2.595e-08 0)
(42.654 2.56301e-08 0)
(42.653 2.53446e-08 0)
(42.652 2.50888e-08 0)
(42.6512 2.48688e-08 0)
(42.6504 2.47057e-08 0)
(42.6496 2.46202e-08 0)
(42.6489 2.47065e-08 0)
(42.6483 2.48298e-08 0)
(42.6478 2.48681e-08 0)
(42.6473 2.48068e-08 0)
(42.6468 2.47146e-08 0)
(42.6464 2.46151e-08 0)
(42.646 2.45143e-08 0)
(42.6457 2.4416e-08 0)
(42.6454 2.43263e-08 0)
(42.6451 2.4239e-08 0)
(42.6449 2.41598e-08 0)
(42.6447 2.40849e-08 0)
(42.6445 2.40149e-08 0)
(42.6443 2.39478e-08 0)
(42.6442 2.38909e-08 0)
(42.6441 2.38374e-08 0)
(42.644 2.37903e-08 0)
(42.6439 2.37443e-08 0)
(42.6438 2.37024e-08 0)
(42.6438 2.36789e-08 0)
(42.6438 2.36471e-08 0)
(42.6438 2.36096e-08 0)
(42.6438 2.36736e-08 0)
(42.6438 2.33322e-08 0)
(42.6438 2.36181e-08 0)
(42.6438 2.36916e-08 0)
(42.6439 2.34149e-08 0)
(42.6439 2.35283e-08 0)
(42.644 2.34802e-08 0)
(42.6441 2.34108e-08 0)
(42.6442 2.37745e-08 0)
(42.6443 2.32012e-08 0)
(42.6444 2.33456e-08 0)
(42.6445 2.33264e-08 0)
(42.6446 2.32899e-08 0)
(42.6447 2.3268e-08 0)
(42.6449 2.32543e-08 0)
(42.645 2.32479e-08 0)
(42.6452 2.3242e-08 0)
(42.6453 2.32343e-08 0)
(42.6455 2.32229e-08 0)
(42.6456 2.32055e-08 0)
(42.6458 2.31852e-08 0)
(42.646 2.3165e-08 0)
(42.6462 2.31415e-08 0)
(42.6464 2.31168e-08 0)
(42.6466 2.30912e-08 0)
(42.6468 2.30612e-08 0)
(42.647 2.30322e-08 0)
(42.6472 2.29949e-08 0)
(42.6474 2.29596e-08 0)
(42.6477 2.29193e-08 0)
(42.6479 2.28748e-08 0)
(42.6482 2.28319e-08 0)
(42.6484 2.27662e-08 0)
(42.6487 2.27202e-08 0)
(42.649 2.26223e-08 0)
(42.6493 2.25778e-08 0)
(42.6496 2.24483e-08 0)
(42.6499 2.23804e-08 0)
(42.6503 2.22134e-08 0)
(42.6506 2.21211e-08 0)
(42.651 2.19276e-08 0)
(42.6515 2.18272e-08 0)
(42.6519 2.15685e-08 0)
(42.6524 2.14825e-08 0)
(42.6529 2.11963e-08 0)
(42.6535 2.10624e-08 0)
(42.6541 2.05422e-08 0)
(42.6548 2.04627e-08 0)
(42.6555 2.00194e-08 0)
(42.6562 1.98886e-08 0)
(42.657 1.91739e-08 0)
(42.6579 1.92672e-08 0)
(42.6589 1.85807e-08 0)
(42.6599 1.85814e-08 0)
(42.661 1.80069e-08 0)
(42.6621 1.74982e-08 0)
(42.6634 1.74763e-08 0)
(42.6647 1.78297e-08 0)
(42.6661 2.09547e-08 0)
(42.6676 3.99507e-08 0)
(42.6692 1.2705e-07 0)
(42.6709 5.45757e-07 0)
(42.6727 2.57432e-06 0)
(42.6745 1.23923e-05 0)
(42.6765 5.97766e-05 0)
(42.6786 0.000288603 0)
(42.6812 0.00139479 0)
(42.6855 0.00675232 0)
(42.697 0.0327569 0)
(42.7372 0.157944 0)
(42.8744 0.755123 0)
(43.3841 2.65466 0)
(42.7008 -0.000119158 0)
(42.7032 -0.000102725 0)
(42.7061 -9.91987e-05 0)
(42.7087 -0.000103716 0)
(42.711 -0.000105948 0)
(42.7134 -0.0001072 0)
(42.7159 -0.000108272 0)
(42.7184 -0.000109182 0)
(42.7209 -0.000109924 0)
(42.7235 -0.000110568 0)
(42.7261 -0.000111102 0)
(42.7288 -0.000111553 0)
(42.7315 -0.000111946 0)
(42.7343 -0.000112286 0)