/*--------------------------------*- C++ -*----------------------------------*\
| =========                 |                                                 |
| \\      /  F ield         | OpenFOAM: The Open Source CFD Toolbox           |
|  \\    /   O peration     | Version:  3.0.x                                 |
|   \\  /    A nd           | Web:      www.OpenFOAM.org                      |
|    \\/     M anipulation  |                                                 |
\*---------------------------------------------------------------------------*/
FoamFile
{
    version     2.0;
    format      ascii;
    class       volScalarField;
    location    "0.52995";
    object      p;
}
// * * * * * * * * * * * * * * * * * * * * * * * * * * * * * * * * * * * * * //

dimensions      [1 -1 -2 0 0 0 0];

internalField   nonuniform List<scalar> 
13800
(
1.81369e+07
1.81372e+07
1.81377e+07
1.81384e+07
1.81391e+07
1.81399e+07
1.81409e+07
1.81419e+07
1.8143e+07
1.81442e+07
1.81455e+07
1.81469e+07
1.81483e+07
1.81499e+07
1.81516e+07
1.81534e+07
1.81553e+07
1.81573e+07
1.81594e+07
1.81616e+07
1.81639e+07
1.81663e+07
1.81688e+07
1.81714e+07
1.81741e+07
1.81769e+07
1.81798e+07
1.81828e+07
1.81859e+07
1.81892e+07
1.81925e+07
1.8196e+07
1.81995e+07
1.82032e+07
1.8207e+07
1.82108e+07
1.82148e+07
1.82189e+07
1.82232e+07
1.82275e+07
1.82319e+07
1.82365e+07
1.82411e+07
1.82459e+07
1.82508e+07
1.82558e+07
1.8261e+07
1.82662e+07
1.82716e+07
1.82771e+07
1.82827e+07
1.82884e+07
1.82943e+07
1.83003e+07
1.83063e+07
1.83126e+07
1.83189e+07
1.83254e+07
1.8332e+07
1.83387e+07
1.83456e+07
1.83525e+07
1.83597e+07
1.83669e+07
1.83743e+07
1.83818e+07
1.83894e+07
1.83972e+07
1.84051e+07
1.84131e+07
1.84213e+07
1.84296e+07
1.84381e+07
1.84467e+07
1.84554e+07
1.84643e+07
1.84733e+07
1.84824e+07
1.84917e+07
1.85011e+07
1.85107e+07
1.85204e+07
1.85302e+07
1.85402e+07
1.85503e+07
1.85606e+07
1.8571e+07
1.85815e+07
1.85922e+07
1.86031e+07
1.8614e+07
1.86251e+07
1.86364e+07
1.86478e+07
1.86593e+07
1.8671e+07
1.86828e+07
1.86947e+07
1.87068e+07
1.8719e+07
1.87313e+07
1.87438e+07
1.87564e+07
1.87691e+07
1.8782e+07
1.8795e+07
1.88081e+07
1.88213e+07
1.88346e+07
1.88481e+07
1.88617e+07
1.88753e+07
1.88891e+07
1.8903e+07
1.8917e+07
1.89311e+07
1.89453e+07
1.89596e+07
1.8974e+07
1.89885e+07
1.90031e+07
1.90177e+07
1.90324e+07
1.90472e+07
1.90621e+07
1.9077e+07
1.9092e+07
1.91071e+07
1.91222e+07
1.91373e+07
1.91526e+07
1.91678e+07
1.91831e+07
1.91984e+07
1.92138e+07
1.92292e+07
1.92446e+07
1.926e+07
1.92754e+07
1.92909e+07
1.93063e+07
1.93218e+07
1.93373e+07
1.93527e+07
1.93681e+07
1.93836e+07
1.9399e+07
1.94144e+07
1.94297e+07
1.94451e+07
1.94603e+07
1.94756e+07
1.94908e+07
1.9506e+07
1.95211e+07
1.95362e+07
1.95512e+07
1.95662e+07
1.95811e+07
1.95959e+07
1.96107e+07
1.96254e+07
1.964e+07
1.96546e+07
1.96691e+07
1.96835e+07
1.96978e+07
1.97121e+07
1.97262e+07
1.97403e+07
1.97542e+07
1.97681e+07
1.97819e+07
1.97956e+07
1.98092e+07
1.98227e+07
1.98361e+07
1.98494e+07
1.98625e+07
1.98756e+07
1.98886e+07
1.99015e+07
1.99142e+07
1.99269e+07
1.99394e+07
1.99518e+07
1.99642e+07
1.99764e+07
1.99885e+07
2.00004e+07
2.00123e+07
2.00241e+07
2.00357e+07
2.00472e+07
2.00586e+07
2.00699e+07
2.00811e+07
2.00922e+07
2.01032e+07
2.01139e+07
1.81369e+07
1.81372e+07
1.81377e+07
1.81384e+07
1.81391e+07
1.81399e+07
1.81409e+07
1.81419e+07
1.8143e+07
1.81442e+07
1.81455e+07
1.81469e+07
1.81483e+07
1.81499e+07
1.81516e+07
1.81534e+07
1.81553e+07
1.81573e+07
1.81594e+07
1.81616e+07
1.81639e+07
1.81663e+07
1.81688e+07
1.81714e+07
1.81741e+07
1.81769e+07
1.81798e+07
1.81828e+07
1.81859e+07
1.81892e+07
1.81925e+07
1.8196e+07
1.81995e+07
1.82032e+07
1.8207e+07
1.82108e+07
1.82148e+07
1.82189e+07
1.82232e+07
1.82275e+07
1.82319e+07
1.82365e+07
1.82411e+07
1.82459e+07
1.82508e+07
1.82558e+07
1.8261e+07
1.82662e+07
1.82716e+07
1.82771e+07
1.82827e+07
1.82884e+07
1.82943e+07
1.83003e+07
1.83063e+07
1.83126e+07
1.83189e+07
1.83254e+07
1.8332e+07
1.83387e+07
1.83456e+07
1.83525e+07
1.83597e+07
1.83669e+07
1.83743e+07
1.83818e+07
1.83894e+07
1.83972e+07
1.84051e+07
1.84131e+07
1.84213e+07
1.84296e+07
1.84381e+07
1.84467e+07
1.84554e+07
1.84643e+07
1.84733e+07
1.84824e+07
1.84917e+07
1.85011e+07
1.85107e+07
1.85204e+07
1.85302e+07
1.85402e+07
1.85503e+07
1.85606e+07
1.8571e+07
1.85815e+07
1.85922e+07
1.86031e+07
1.8614e+07
1.86251e+07
1.86364e+07
1.86478e+07
1.86593e+07
1.8671e+07
1.86828e+07
1.86947e+07
1.87068e+07
1.8719e+07
1.87313e+07
1.87438e+07
1.87564e+07
1.87691e+07
1.8782e+07
1.8795e+07
1.88081e+07
1.88213e+07
1.88346e+07
1.88481e+07
1.88617e+07
1.88753e+07
1.88891e+07
1.8903e+07
1.8917e+07
1.89311e+07
1.89453e+07
1.89596e+07
1.8974e+07
1.89885e+07
1.90031e+07
1.90177e+07
1.90324e+07
1.90472e+07
1.90621e+07
1.9077e+07
1.9092e+07
1.91071e+07
1.91222e+07
1.91373e+07
1.91526e+07
1.91678e+07
1.91831e+07
1.91984e+07
1.92138e+07
1.92292e+07
1.92446e+07
1.926e+07
1.92754e+07
1.92909e+07
1.93063e+07
1.93218e+07
1.93373e+07
1.93527e+07
1.93681e+07
1.93836e+07
1.9399e+07
1.94144e+07
1.94297e+07
1.94451e+07
1.94603e+07
1.94756e+07
1.94908e+07
1.9506e+07
1.95211e+07
1.95362e+07
1.95512e+07
1.95662e+07
1.95811e+07
1.95959e+07
1.96107e+07
1.96254e+07
1.964e+07
1.96546e+07
1.96691e+07
1.96835e+07
1.96978e+07
1.97121e+07
1.97262e+07
1.97403e+07
1.97542e+07
1.97681e+07
1.97819e+07
1.97956e+07
1.98092e+07
1.98227e+07
1.98361e+07
1.98494e+07
1.98625e+07
1.98756e+07
1.98886e+07
1.99015e+07
1.99142e+07
1.99269e+07
1.99394e+07
1.99518e+07
1.99642e+07
1.99764e+07
1.99885e+07
2.00004e+07
2.00123e+07
2.00241e+07
2.00357e+07
2.00472e+07
2.00586e+07
2.00699e+07
2.00811e+07
2.00922e+07
2.01032e+07
2.01139e+07
1.81369e+07
1.81372e+07
1.81377e+07
1.81384e+07
1.81391e+07
1.81399e+07
1.81409e+07
1.81419e+07
1.8143e+07
1.81442e+07
1.81455e+07
1.81469e+07
1.81483e+07
1.81499e+07
1.81516e+07
1.81534e+07
1.81553e+07
1.81573e+07
1.81594e+07
1.81616e+07
1.81639e+07
1.81663e+07
1.81688e+07
1.81714e+07
1.81741e+07
1.81769e+07
1.81798e+07
1.81828e+07
1.81859e+07
1.81892e+07
1.81925e+07
1.8196e+07
1.81995e+07
1.82032e+07
1.8207e+07
1.82108e+07
1.82148e+07
1.82189e+07
1.82232e+07
1.82275e+07
1.82319e+07
1.82365e+07
1.82411e+07
1.82459e+07
1.82508e+07
1.82558e+07
1.8261e+07
1.82662e+07
1.82716e+07
1.82771e+07
1.82827e+07
1.82884e+07
1.82943e+07
1.83003e+07
1.83063e+07
1.83126e+07
1.83189e+07
1.83254e+07
1.8332e+07
1.83387e+07
1.83456e+07
1.83525e+07
1.83597e+07
1.83669e+07
1.83743e+07
1.83818e+07
1.83894e+07
1.83972e+07
1.84051e+07
1.84131e+07
1.84213e+07
1.84296e+07
1.84381e+07
1.84467e+07
1.84554e+07
1.84643e+07
1.84733e+07
1.84824e+07
1.84917e+07
1.85011e+07
1.85107e+07
1.85204e+07
1.85302e+07
1.85402e+07
1.85503e+07
1.85606e+07
1.8571e+07
1.85815e+07
1.85922e+07
1.86031e+07
1.8614e+07
1.86251e+07
1.86364e+07
1.86478e+07
1.86593e+07
1.8671e+07
1.86828e+07
1.86947e+07
1.87068e+07
1.8719e+07
1.87313e+07
1.87438e+07
1.87564e+07
1.87691e+07
1.8782e+07
1.8795e+07
1.88081e+07
1.88213e+07
1.88346e+07
1.88481e+07
1.88617e+07
1.88753e+07
1.88891e+07
1.8903e+07
1.8917e+07
1.89311e+07
1.89453e+07
1.89596e+07
1.8974e+07
1.89885e+07
1.90031e+07
1.90177e+07
1.90324e+07
1.90472e+07
1.90621e+07
1.9077e+07
1.9092e+07
1.91071e+07
1.91222e+07
1.91373e+07
1.91526e+07
1.91678e+07
1.91831e+07
1.91984e+07
1.92138e+07
1.92292e+07
1.92446e+07
1.926e+07
1.92754e+07
1.92909e+07
1.93063e+07
1.93218e+07
1.93373e+07
1.93527e+07
1.93681e+07
1.93836e+07
1.9399e+07
1.94144e+07
1.94297e+07
1.94451e+07
1.94603e+07
1.94756e+07
1.94908e+07
1.9506e+07
1.95211e+07
1.95362e+07
1.95512e+07
1.95662e+07
1.95811e+07
1.95959e+07
1.96107e+07
1.96254e+07
1.964e+07
1.96546e+07
1.96691e+07
1.96835e+07
1.96978e+07
1.97121e+07
1.97262e+07
1.97403e+07
1.97542e+07
1.97681e+07
1.97819e+07
1.97956e+07
1.98092e+07
1.98227e+07
1.98361e+07
1.98494e+07
1.98625e+07
1.98756e+07
1.98886e+07
1.99015e+07
1.99142e+07
1.99269e+07
1.99394e+07
1.99518e+07
1.99642e+07
1.99764e+07
1.99885e+07
2.00004e+07
2.00123e+07
2.00241e+07
2.00357e+07
2.00472e+07
2.00586e+07
2.00699e+07
2.00811e+07
2.00922e+07
2.01032e+07
2.01139e+07
1.81369e+07
1.81372e+07
1.81377e+07
1.81384e+07
1.81391e+07
1.81399e+07
1.81409e+07
1.81419e+07
1.8143e+07
1.81442e+07
1.81455e+07
1.81469e+07
1.81483e+07
1.81499e+07
1.81516e+07
1.81534e+07
1.81553e+07
1.81573e+07
1.81594e+07
1.81616e+07
1.81639e+07
1.81663e+07
1.81688e+07
1.81714e+07
1.81741e+07
1.81769e+07
1.81798e+07
1.81828e+07
1.81859e+07
1.81892e+07
1.81925e+07
1.8196e+07
1.81995e+07
1.82032e+07
1.8207e+07
1.82108e+07
1.82148e+07
1.82189e+07
1.82232e+07
1.82275e+07
1.82319e+07
1.82365e+07
1.82411e+07
1.82459e+07
1.82508e+07
1.82558e+07
1.8261e+07
1.82662e+07
1.82716e+07
1.82771e+07
1.82827e+07
1.82884e+07
1.82943e+07
1.83003e+07
1.83063e+07
1.83126e+07
1.83189e+07
1.83254e+07
1.8332e+07
1.83387e+07
1.83456e+07
1.83525e+07
1.83597e+07
1.83669e+07
1.83743e+07
1.83818e+07
1.83894e+07
1.83972e+07
1.84051e+07
1.84131e+07
1.84213e+07
1.84296e+07
1.84381e+07
1.84467e+07
1.84554e+07
1.84643e+07
1.84733e+07
1.84824e+07
1.84917e+07
1.85011e+07
1.85107e+07
1.85204e+07
1.85302e+07
1.85402e+07
1.85503e+07
1.85606e+07
1.8571e+07
1.85815e+07
1.85922e+07
1.86031e+07
1.8614e+07
1.86251e+07
1.86364e+07
1.86478e+07
1.86593e+07
1.8671e+07
1.86828e+07
1.86947e+07
1.87068e+07
1.8719e+07
1.87313e+07
1.87438e+07
1.87564e+07
1.87691e+07
1.8782e+07
1.8795e+07
1.88081e+07
1.88213e+07
1.88346e+07
1.88481e+07
1.88617e+07
1.88753e+07
1.88891e+07
1.8903e+07
1.8917e+07
1.89311e+07
1.89453e+07
1.89596e+07
1.8974e+07
1.89885e+07
1.90031e+07
1.90177e+07
1.90324e+07
1.90472e+07
1.90621e+07
1.9077e+07
1.9092e+07
1.91071e+07
1.91222e+07
1.91373e+07
1.91526e+07
1.91678e+07
1.91831e+07
1.91984e+07
1.92138e+07
1.92292e+07
1.92446e+07
1.926e+07
1.92754e+07
1.92909e+07
1.93063e+07
1.93218e+07
1.93373e+07
1.93527e+07
1.93681e+07
1.93836e+07
1.9399e+07
1.94144e+07
1.94297e+07
1.94451e+07
1.94603e+07
1.94756e+07
1.94908e+07
1.9506e+07
1.95211e+07
1.95362e+07
1.95512e+07
1.95662e+07
1.95811e+07
1.95959e+07
1.96107e+07
1.96254e+07
1.964e+07
1.96546e+07
1.96691e+07
1.96835e+07
1.96978e+07
1.97121e+07
1.97262e+07
1.97403e+07
1.97542e+07
1.97681e+07
1.97819e+07
1.97956e+07
1.98092e+07
1.98227e+07
1.98361e+07
1.98494e+07
1.98625e+07
1.98756e+07
1.98886e+07
1.99015e+07
1.99142e+07
1.99269e+07
1.99394e+07
1.99518e+07
1.99642e+07
1.99764e+07
1.99885e+07
2.00004e+07
2.00123e+07
2.00241e+07
2.00357e+07
2.00472e+07
2.00586e+07
2.00699e+07
2.00811e+07
2.00922e+07
2.01032e+07
2.01139e+07
1.81369e+07
1.81372e+07
1.81377e+07
1.81384e+07
1.81391e+07
1.81399e+07
1.81409e+07
1.81419e+07
1.8143e+07
1.81442e+07
1.81455e+07
1.81469e+07
1.81483e+07
1.81499e+07
1.81516e+07
1.81534e+07
1.81553e+07
1.81573e+07
1.81594e+07
1.81616e+07
1.81639e+07
1.81663e+07
1.81688e+07
1.81714e+07
1.81741e+07
1.81769e+07
1.81798e+07
1.81828e+07
1.81859e+07
1.81892e+07
1.81925e+07
1.8196e+07
1.81995e+07
1.82032e+07
1.8207e+07
1.82108e+07
1.82148e+07
1.82189e+07
1.82232e+07
1.82275e+07
1.82319e+07
1.82365e+07
1.82411e+07
1.82459e+07
1.82508e+07
1.82558e+07
1.8261e+07
1.82662e+07
1.82716e+07
1.82771e+07
1.82827e+07
1.82884e+07
1.82943e+07
1.83003e+07
1.83063e+07
1.83126e+07
1.83189e+07
1.83254e+07
1.8332e+07
1.83387e+07
1.83456e+07
1.83525e+07
1.83597e+07
1.83669e+07
1.83743e+07
1.83818e+07
1.83894e+07
1.83972e+07
1.84051e+07
1.84131e+07
1.84213e+07
1.84296e+07
1.84381e+07
1.84467e+07
1.84554e+07
1.84643e+07
1.84733e+07
1.84824e+07
1.84917e+07
1.85011e+07
1.85107e+07
1.85204e+07
1.85302e+07
1.85402e+07
1.85503e+07
1.85606e+07
1.8571e+07
1.85815e+07
1.85922e+07
1.86031e+07
1.8614e+07
1.86251e+07
1.86364e+07
1.86478e+07
1.86593e+07
1.8671e+07
1.86828e+07
1.86947e+07
1.87068e+07
1.8719e+07
1.87313e+07
1.87438e+07
1.87564e+07
1.87691e+07
1.8782e+07
1.8795e+07
1.88081e+07
1.88213e+07
1.88346e+07
1.88481e+07
1.88617e+07
1.88753e+07
1.88891e+07
1.8903e+07
1.8917e+07
1.89311e+07
1.89453e+07
1.89596e+07
1.8974e+07
1.89885e+07
1.90031e+07
1.90177e+07
1.90324e+07
1.90472e+07
1.90621e+07
1.9077e+07
1.9092e+07
1.91071e+07
1.91222e+07
1.91373e+07
1.91526e+07
1.91678e+07
1.91831e+07
1.91984e+07
1.92138e+07
1.92292e+07
1.92446e+07
1.926e+07
1.92754e+07
1.92909e+07
1.93063e+07
1.93218e+07
1.93373e+07
1.93527e+07
1.93681e+07
1.93836e+07
1.9399e+07
1.94144e+07
1.94297e+07
1.94451e+07
1.94603e+07
1.94756e+07
1.94908e+07
1.9506e+07
1.95211e+07
1.95362e+07
1.95512e+07
1.95662e+07
1.95811e+07
1.95959e+07
1.96107e+07
1.96254e+07
1.964e+07
1.96546e+07
1.96691e+07
1.96835e+07
1.96978e+07
1.97121e+07
1.97262e+07
1.97403e+07
1.97542e+07
1.97681e+07
1.97819e+07
1.97956e+07
1.98092e+07
1.98227e+07
1.98361e+07
1.98494e+07
1.98625e+07
1.98756e+07
1.98886e+07
1.99015e+07
1.99142e+07
1.99269e+07
1.99394e+07
1.99518e+07
1.99642e+07
1.99764e+07
1.99885e+07
2.00004e+07
2.00123e+07
2.00241e+07
2.00357e+07
2.00472e+07
2.00586e+07
2.00699e+07
2.00811e+07
2.00921e+07
2.01031e+07
2.01139e+07
1.81369e+07
1.81372e+07
1.81377e+07
1.81384e+07
1.81391e+07
1.81399e+07
1.81409e+07
1.81419e+07
1.8143e+07
1.81442e+07
1.81455e+07
1.81469e+07
1.81483e+07
1.81499e+07
1.81516e+07
1.81534e+07
1.81553e+07
1.81573e+07
1.81594e+07
1.81616e+07
1.81639e+07
1.81663e+07
1.81688e+07
1.81714e+07
1.81741e+07
1.81769e+07
1.81798e+07
1.81828e+07
1.81859e+07
1.81892e+07
1.81925e+07
1.8196e+07
1.81995e+07
1.82032e+07
1.8207e+07
1.82108e+07
1.82148e+07
1.82189e+07
1.82232e+07
1.82275e+07
1.82319e+07
1.82365e+07
1.82411e+07
1.82459e+07
1.82508e+07
1.82558e+07
1.8261e+07
1.82662e+07
1.82716e+07
1.82771e+07
1.82827e+07
1.82884e+07
1.82943e+07
1.83003e+07
1.83063e+07
1.83126e+07
1.83189e+07
1.83254e+07
1.8332e+07
1.83387e+07
1.83456e+07
1.83525e+07
1.83597e+07
1.83669e+07
1.83743e+07
1.83818e+07
1.83894e+07
1.83972e+07
1.84051e+07
1.84131e+07
1.84213e+07
1.84296e+07
1.84381e+07
1.84467e+07
1.84554e+07
1.84643e+07
1.84733e+07
1.84824e+07
1.84917e+07
1.85011e+07
1.85107e+07
1.85204e+07
1.85302e+07
1.85402e+07
1.85503e+07
1.85606e+07
1.8571e+07
1.85815e+07
1.85922e+07
1.86031e+07
1.8614e+07
1.86251e+07
1.86364e+07
1.86478e+07
1.86593e+07
1.8671e+07
1.86828e+07
1.86947e+07
1.87068e+07
1.8719e+07
1.87313e+07
1.87438e+07
1.87564e+07
1.87691e+07
1.8782e+07
1.8795e+07
1.88081e+07
1.88213e+07
1.88346e+07
1.88481e+07
1.88617e+07
1.88753e+07
1.88891e+07
1.8903e+07
1.8917e+07
1.89311e+07
1.89453e+07
1.89596e+07
1.8974e+07
1.89885e+07
1.90031e+07
1.90177e+07
1.90324e+07
1.90472e+07
1.90621e+07
1.9077e+07
1.9092e+07
1.91071e+07
1.91222e+07
1.91373e+07
1.91526e+07
1.91678e+07
1.91831e+07
1.91984e+07
1.92138e+07
1.92292e+07
1.92446e+07
1.926e+07
1.92754e+07
1.92909e+07
1.93063e+07
1.93218e+07
1.93373e+07
1.93527e+07
1.93681e+07
1.93836e+07
1.9399e+07
1.94144e+07
1.94297e+07
1.94451e+07
1.94603e+07
1.94756e+07
1.94908e+07
1.9506e+07
1.95211e+07
1.95362e+07
1.95512e+07
1.95662e+07
1.95811e+07
1.95959e+07
1.96107e+07
1.96254e+07
1.964e+07
1.96546e+07
1.96691e+07
1.96835e+07
1.96978e+07
1.97121e+07
1.97262e+07
1.97403e+07
1.97542e+07
1.97681e+07
1.97819e+07
1.97956e+07
1.98092e+07
1.98227e+07
1.98361e+07
1.98494e+07
1.98625e+07
1.98756e+07
1.98886e+07
1.99015e+07
1.99142e+07
1.99269e+07
1.99394e+07
1.99518e+07
1.99642e+07
1.99764e+07
1.99885e+07
2.00004e+07
2.00123e+07
2.00241e+07
2.00357e+07
2.00472e+07
2.00586e+07
2.00699e+07
2.00811e+07
2.00921e+07
2.01031e+07
2.01138e+07
1.81369e+07
1.81372e+07
1.81377e+07
1.81384e+07
1.81391e+07
1.81399e+07
1.81409e+07
1.81419e+07
1.8143e+07
1.81442e+07
1.81455e+07
1.81469e+07
1.81483e+07
1.81499e+07
1.81516e+07
1.81534e+07
1.81553e+07
1.81573e+07
1.81594e+07
1.81616e+07
1.81639e+07
1.81663e+07
1.81688e+07
1.81714e+07
1.81741e+07
1.81769e+07
1.81798e+07
1.81828e+07
1.81859e+07
1.81892e+07
1.81925e+07
1.8196e+07
1.81995e+07
1.82032e+07
1.8207e+07
1.82108e+07
1.82148e+07
1.82189e+07
1.82232e+07
1.82275e+07
1.82319e+07
1.82365e+07
1.82411e+07
1.82459e+07
1.82508e+07
1.82558e+07
1.8261e+07
1.82662e+07
1.82716e+07
1.82771e+07
1.82827e+07
1.82884e+07
1.82943e+07
1.83003e+07
1.83063e+07
1.83126e+07
1.83189e+07
1.83254e+07
1.8332e+07
1.83387e+07
1.83456e+07
1.83525e+07
1.83597e+07
1.83669e+07
1.83743e+07
1.83818e+07
1.83894e+07
1.83972e+07
1.84051e+07
1.84131e+07
1.84213e+07
1.84296e+07
1.84381e+07
1.84467e+07
1.84554e+07
1.84643e+07
1.84733e+07
1.84824e+07
1.84917e+07
1.85011e+07
1.85107e+07
1.85204e+07
1.85302e+07
1.85402e+07
1.85503e+07
1.85606e+07
1.8571e+07
1.85815e+07
1.85922e+07
1.86031e+07
1.8614e+07
1.86251e+07
1.86364e+07
1.86478e+07
1.86593e+07
1.8671e+07
1.86828e+07
1.86947e+07
1.87068e+07
1.8719e+07
1.87313e+07
1.87438e+07
1.87564e+07
1.87691e+07
1.8782e+07
1.8795e+07
1.88081e+07
1.88213e+07
1.88346e+07
1.88481e+07
1.88617e+07
1.88753e+07
1.88891e+07
1.8903e+07
1.8917e+07
1.89311e+07
1.89453e+07
1.89596e+07
1.8974e+07
1.89885e+07
1.90031e+07
1.90177e+07
1.90324e+07
1.90472e+07
1.90621e+07
1.9077e+07
1.9092e+07
1.91071e+07
1.91222e+07
1.91373e+07
1.91526e+07
1.91678e+07
1.91831e+07
1.91984e+07
1.92138e+07
1.92292e+07
1.92446e+07
1.926e+07
1.92754e+07
1.92909e+07
1.93063e+07
1.93218e+07
1.93373e+07
1.93527e+07
1.93681e+07
1.93836e+07
1.9399e+07
1.94144e+07
1.94297e+07
1.94451e+07
1.94603e+07
1.94756e+07
1.94908e+07
1.9506e+07
1.95211e+07
1.95362e+07
1.95512e+07
1.95662e+07
1.95811e+07
1.95959e+07
1.96107e+07
1.96254e+07
1.964e+07
1.96546e+07
1.96691e+07
1.96835e+07
1.96978e+07
1.97121e+07
1.97262e+07
1.97403e+07
1.97542e+07
1.97681e+07
1.97819e+07
1.97956e+07
1.98092e+07
1.98227e+07
1.98361e+07
1.98494e+07
1.98625e+07
1.98756e+07
1.98886e+07
1.99015e+07
1.99142e+07
1.99269e+07
1.99394e+07
1.99518e+07
1.99642e+07
1.99764e+07
1.99885e+07
2.00004e+07
2.00123e+07
2.00241e+07
2.00357e+07
2.00472e+07
2.00586e+07
2.00699e+07
2.00811e+07
2.00921e+07
2.0103e+07
2.01138e+07
1.81369e+07
1.81372e+07
1.81377e+07
1.81384e+07
1.81391e+07
1.81399e+07
1.81409e+07
1.81419e+07
1.8143e+07
1.81442e+07
1.81455e+07
1.81469e+07
1.81483e+07
1.81499e+07
1.81516e+07
1.81534e+07
1.81553e+07
1.81573e+07
1.81594e+07
1.81616e+07
1.81639e+07
1.81663e+07
1.81688e+07
1.81714e+07
1.81741e+07
1.81769e+07
1.81798e+07
1.81828e+07
1.81859e+07
1.81892e+07
1.81925e+07
1.8196e+07
1.81995e+07
1.82032e+07
1.8207e+07
1.82108e+07
1.82148e+07
1.82189e+07
1.82232e+07
1.82275e+07
1.82319e+07
1.82365e+07
1.82411e+07
1.82459e+07
1.82508e+07
1.82558e+07
1.8261e+07
1.82662e+07
1.82716e+07
1.82771e+07
1.82827e+07
1.82884e+07
1.82943e+07
1.83003e+07
1.83063e+07
1.83126e+07
1.83189e+07
1.83254e+07
1.8332e+07
1.83387e+07
1.83456e+07
1.83525e+07
1.83597e+07
1.83669e+07
1.83743e+07
1.83818e+07
1.83894e+07
1.83972e+07
1.84051e+07
1.84131e+07
1.84213e+07
1.84296e+07
1.84381e+07
1.84467e+07
1.84554e+07
1.84643e+07
1.84733e+07
1.84824e+07
1.84917e+07
1.85011e+07
1.85107e+07
1.85204e+07
1.85302e+07
1.85402e+07
1.85503e+07
1.85606e+07
1.8571e+07
1.85815e+07
1.85922e+07
1.86031e+07
1.8614e+07
1.86251e+07
1.86364e+07
1.86478e+07
1.86593e+07
1.8671e+07
1.86828e+07
1.86947e+07
1.87068e+07
1.8719e+07
1.87313e+07
1.87438e+07
1.87564e+07
1.87691e+07
1.8782e+07
1.8795e+07
1.88081e+07
1.88213e+07
1.88346e+07
1.88481e+07
1.88617e+07
1.88753e+07
1.88891e+07
1.8903e+07
1.8917e+07
1.89311e+07
1.89453e+07
1.89596e+07
1.8974e+07
1.89885e+07
1.90031e+07
1.90177e+07
1.90324e+07
1.90472e+07
1.90621e+07
1.9077e+07
1.9092e+07
1.91071e+07
1.91222e+07
1.91373e+07
1.91526e+07
1.91678e+07
1.91831e+07
1.91984e+07
1.92138e+07
1.92292e+07
1.92446e+07
1.926e+07
1.92754e+07
1.92909e+07
1.93063e+07
1.93218e+07
1.93373e+07
1.93527e+07
1.93681e+07
1.93836e+07
1.9399e+07
1.94144e+07
1.94297e+07
1.94451e+07
1.94603e+07
1.94756e+07
1.94908e+07
1.9506e+07
1.95211e+07
1.95362e+07
1.95512e+07
1.95662e+07
1.95811e+07
1.95959e+07
1.96107e+07
1.96254e+07
1.964e+07
1.96546e+07
1.96691e+07
1.96835e+07
1.96978e+07
1.97121e+07
1.97262e+07
1.97403e+07
1.97542e+07
1.97681e+07
1.97819e+07
1.97956e+07
1.98092e+07
1.98227e+07
1.98361e+07
1.98494e+07
1.98625e+07
1.98756e+07
1.98886e+07
1.99015e+07
1.99142e+07
1.99269e+07
1.99394e+07
1.99518e+07
1.99642e+07
1.99764e+07
1.99885e+07
2.00004e+07
2.00123e+07
2.00241e+07
2.00357e+07
2.00472e+07
2.00586e+07
2.00699e+07
2.00811e+07
2.00921e+07
2.0103e+07
2.01139e+07
1.81369e+07
1.81372e+07
1.81377e+07
1.81384e+07
1.81391e+07
1.81399e+07
1.81409e+07
1.81419e+07
1.8143e+07
1.81442e+07
1.81455e+07
1.81469e+07
1.81483e+07
1.81499e+07
1.81516e+07
1.81534e+07
1.81553e+07
1.81573e+07
1.81594e+07
1.81616e+07
1.81639e+07
1.81663e+07
1.81688e+07
1.81714e+07
1.81741e+07
1.81769e+07
1.81798e+07
1.81828e+07
1.81859e+07
1.81892e+07
1.81925e+07
1.8196e+07
1.81995e+07
1.82032e+07
1.8207e+07
1.82108e+07
1.82148e+07
1.82189e+07
1.82232e+07
1.82275e+07
1.82319e+07
1.82365e+07
1.82411e+07
1.82459e+07
1.82508e+07
1.82558e+07
1.8261e+07
1.82662e+07
1.82716e+07
1.82771e+07
1.82827e+07
1.82884e+07
1.82943e+07
1.83003e+07
1.83063e+07
1.83126e+07
1.83189e+07
1.83254e+07
1.8332e+07
1.83387e+07
1.83456e+07
1.83525e+07
1.83597e+07
1.83669e+07
1.83743e+07
1.83818e+07
1.83894e+07
1.83972e+07
1.84051e+07
1.84131e+07
1.84213e+07
1.84296e+07
1.84381e+07
1.84467e+07
1.84554e+07
1.84643e+07
1.84733e+07
1.84824e+07
1.84917e+07
1.85011e+07
1.85107e+07
1.85204e+07
1.85302e+07
1.85402e+07
1.85503e+07
1.85606e+07
1.8571e+07
1.85815e+07
1.85922e+07
1.86031e+07
1.8614e+07
1.86251e+07
1.86364e+07
1.86478e+07
1.86593e+07
1.8671e+07
1.86828e+07
1.86947e+07
1.87068e+07
1.8719e+07
1.87313e+07
1.87438e+07
1.87564e+07
1.87691e+07
1.8782e+07
1.8795e+07
1.88081e+07
1.88213e+07
1.88346e+07
1.88481e+07
1.88617e+07
1.88753e+07
1.88891e+07
1.8903e+07
1.8917e+07
1.89311e+07
1.89453e+07
1.89596e+07
1.8974e+07
1.89885e+07
1.90031e+07
1.90177e+07
1.90324e+07
1.90472e+07
1.90621e+07
1.9077e+07
1.9092e+07
1.91071e+07
1.91222e+07
1.91373e+07
1.91526e+07
1.91678e+07
1.91831e+07
1.91984e+07
1.92138e+07
1.92292e+07
1.92446e+07
1.926e+07
1.92754e+07
1.92909e+07
1.93063e+07
1.93218e+07
1.93373e+07
1.93527e+07
1.93681e+07
1.93836e+07
1.9399e+07
1.94144e+07
1.94297e+07
1.94451e+07
1.94603e+07
1.94756e+07
1.94908e+07
1.9506e+07
1.95211e+07
1.95362e+07
1.95512e+07
1.95662e+07
1.95811e+07
1.95959e+07
1.96107e+07
1.96254e+07
1.964e+07
1.96546e+07
1.96691e+07
1.96835e+07
1.96978e+07
1.97121e+07
1.97262e+07
1.97403e+07
1.97542e+07
1.97681e+07
1.97819e+07
1.97956e+07
1.98092e+07
1.98227e+07
1.98361e+07
1.98494e+07
1.98625e+07
1.98756e+07
1.98886e+07
1.99015e+07
1.99142e+07
1.99269e+07
1.99394e+07
1.99518e+07
1.99642e+07
1.99764e+07
1.99885e+07
2.00004e+07
2.00123e+07
2.00241e+07
2.00357e+07
2.00472e+07
2.00586e+07
2.00699e+07
2.00811e+07
2.00921e+07
2.0103e+07
2.01139e+07
1.81369e+07
1.81372e+07
1.81377e+07
1.81384e+07
1.81391e+07
1.81399e+07
1.81409e+07
1.81419e+07
1.8143e+07
1.81442e+07
1.81455e+07
1.81469e+07
1.81483e+07
1.81499e+07
1.81516e+07
1.81534e+07
1.81553e+07
1.81573e+07
1.81594e+07
1.81616e+07
1.81639e+07
1.81663e+07
1.81688e+07
1.81714e+07
1.81741e+07
1.81769e+07
1.81798e+07
1.81828e+07
1.81859e+07
1.81892e+07
1.81925e+07
1.8196e+07
1.81995e+07
1.82032e+07
1.8207e+07
1.82108e+07
1.82148e+07
1.82189e+07
1.82232e+07
1.82275e+07
1.82319e+07
1.82365e+07
1.82411e+07
1.82459e+07
1.82508e+07
1.82558e+07
1.8261e+07
1.82662e+07
1.82716e+07
1.82771e+07
1.82827e+07
1.82884e+07
1.82943e+07
1.83003e+07
1.83063e+07
1.83126e+07
1.83189e+07
1.83254e+07
1.8332e+07
1.83387e+07
1.83456e+07
1.83525e+07
1.83597e+07
1.83669e+07
1.83743e+07
1.83818e+07
1.83894e+07
1.83972e+07
1.84051e+07
1.84131e+07
1.84213e+07
1.84296e+07
1.84381e+07
1.84467e+07
1.84554e+07
1.84643e+07
1.84733e+07
1.84824e+07
1.84917e+07
1.85011e+07
1.85107e+07
1.85204e+07
1.85302e+07
1.85402e+07
1.85503e+07
1.85606e+07
1.8571e+07
1.85815e+07
1.85922e+07
1.86031e+07
1.8614e+07
1.86251e+07
1.86364e+07
1.86478e+07
1.86593e+07
1.8671e+07
1.86828e+07
1.86947e+07
1.87068e+07
1.8719e+07
1.87313e+07
1.87438e+07
1.87564e+07
1.87691e+07
1.8782e+07
1.8795e+07
1.88081e+07
1.88213e+07
1.88346e+07
1.88481e+07
1.88617e+07
1.88753e+07
1.88891e+07
1.8903e+07
1.8917e+07
1.89311e+07
1.89453e+07
1.89596e+07
1.8974e+07
1.89885e+07
1.90031e+07
1.90177e+07
1.90324e+07
1.90472e+07
1.90621e+07
1.9077e+07
1.9092e+07
1.91071e+07
1.91222e+07
1.91373e+07
1.91526e+07
1.91678e+07
1.91831e+07
1.91984e+07
1.92138e+07
1.92292e+07
1.92446e+07
1.926e+07
1.92754e+07
1.92909e+07
1.93063e+07
1.93218e+07
1.93373e+07
1.93527e+07
1.93681e+07
1.93836e+07
1.9399e+07
1.94144e+07
1.94297e+07
1.94451e+07
1.94603e+07
1.94756e+07
1.94908e+07
1.9506e+07
1.95211e+07
1.95362e+07
1.95512e+07
1.95662e+07
1.95811e+07
1.95959e+07
1.96107e+07
1.96254e+07
1.964e+07
1.96546e+07
1.96691e+07
1.96835e+07
1.96978e+07
1.97121e+07
1.97262e+07
1.97403e+07
1.97542e+07
1.97681e+07
1.97819e+07
1.97956e+07
1.98092e+07
1.98227e+07
1.98361e+07
1.98494e+07
1.98625e+07
1.98756e+07
1.98886e+07
1.99015e+07
1.99142e+07
1.99269e+07
1.99394e+07
1.99518e+07
1.99642e+07
1.99764e+07
1.99885e+07
2.00004e+07
2.00123e+07
2.00241e+07
2.00357e+07
2.00472e+07
2.00586e+07
2.00699e+07
2.00811e+07
2.00921e+07
2.0103e+07
2.01139e+07
2.01217e+07
2.01248e+07
2.01271e+07
2.01292e+07
2.01312e+07
2.01332e+07
2.01352e+07
2.01372e+07
2.01391e+07
2.01411e+07
2.0143e+07
2.0145e+07
2.01469e+07
2.01488e+07
2.01506e+07
2.01525e+07
2.01543e+07
2.01561e+07
2.01579e+07
2.01596e+07
2.01216e+07
2.01245e+07
2.01269e+07
2.01289e+07
2.0131e+07
2.0133e+07
2.0135e+07
2.0137e+07
2.01389e+07
2.01409e+07
2.01428e+07
2.01448e+07
2.01467e+07
2.01486e+07
2.01504e+07
2.01523e+07
2.01541e+07
2.01559e+07
2.01576e+07
2.01593e+07
2.01215e+07
2.01245e+07
2.01269e+07
2.0129e+07
2.0131e+07
2.0133e+07
2.0135e+07
2.0137e+07
2.01389e+07
2.01409e+07
2.01428e+07
2.01447e+07
2.01466e+07
2.01485e+07
2.01504e+07
2.01522e+07
2.0154e+07
2.01558e+07
2.01576e+07
2.01593e+07
2.0121e+07
2.01235e+07
2.01256e+07
2.01277e+07
2.01297e+07
2.01318e+07
2.01338e+07
2.01358e+07
2.01378e+07
2.01397e+07
2.01417e+07
2.01436e+07
2.01455e+07
2.01474e+07
2.01492e+07
2.0151e+07
2.01528e+07
2.01545e+07
2.01562e+07
2.01579e+07
2.01212e+07
2.01236e+07
2.01259e+07
2.01281e+07
2.01301e+07
2.0132e+07
2.0134e+07
2.01359e+07
2.01378e+07
2.01396e+07
2.01415e+07
2.01434e+07
2.01453e+07
2.01471e+07
2.0149e+07
2.01508e+07
2.01526e+07
2.01544e+07
2.01562e+07
2.01579e+07
2.01194e+07
2.01209e+07
2.01225e+07
2.01241e+07
2.0126e+07
2.01278e+07
2.01298e+07
2.01318e+07
2.01338e+07
2.01358e+07
2.01378e+07
2.01398e+07
2.01417e+07
2.01436e+07
2.01455e+07
2.01474e+07
2.01493e+07
2.01512e+07
2.01531e+07
2.01551e+07
2.01195e+07
2.01212e+07
2.01231e+07
2.01251e+07
2.01269e+07
2.01288e+07
2.01305e+07
2.01323e+07
2.01341e+07
2.01359e+07
2.01378e+07
2.01396e+07
2.01414e+07
2.01432e+07
2.01451e+07
2.0147e+07
2.01489e+07
2.01508e+07
2.01528e+07
2.01549e+07
2.01171e+07
2.01174e+07
2.0118e+07
2.01191e+07
2.01206e+07
2.01223e+07
2.01241e+07
2.0126e+07
2.0128e+07
2.013e+07
2.0132e+07
2.01341e+07
2.01363e+07
2.01384e+07
2.01406e+07
2.01429e+07
2.01452e+07
2.01476e+07
2.015e+07
2.01524e+07
2.01166e+07
2.01171e+07
2.0118e+07
2.01193e+07
2.01208e+07
2.01225e+07
2.01242e+07
2.01261e+07
2.01281e+07
2.013e+07
2.0132e+07
2.01341e+07
2.01362e+07
2.01383e+07
2.01405e+07
2.01427e+07
2.0145e+07
2.01473e+07
2.01497e+07
2.01522e+07
2.0116e+07
2.01157e+07
2.01163e+07
2.01175e+07
2.01189e+07
2.01206e+07
2.01224e+07
2.01243e+07
2.01262e+07
2.01282e+07
2.01303e+07
2.01324e+07
2.01345e+07
2.01367e+07
2.0139e+07
2.01413e+07
2.01437e+07
2.01461e+07
2.01486e+07
2.01512e+07
2.01626e+07
2.01695e+07
2.0177e+07
2.01846e+07
2.01922e+07
2.01997e+07
2.02071e+07
2.02145e+07
2.02218e+07
2.02291e+07
2.02364e+07
2.02436e+07
2.02507e+07
2.02577e+07
2.02647e+07
2.02717e+07
2.02786e+07
2.02854e+07
2.02921e+07
2.02988e+07
2.03054e+07
2.0312e+07
2.03185e+07
2.03249e+07
2.03313e+07
2.03376e+07
2.03439e+07
2.03501e+07
2.03562e+07
2.03622e+07
2.03682e+07
2.03741e+07
2.038e+07
2.03858e+07
2.03915e+07
2.03972e+07
2.04028e+07
2.04083e+07
2.04138e+07
2.04192e+07
2.04246e+07
2.04299e+07
2.04351e+07
2.04403e+07
2.04454e+07
2.04505e+07
2.04555e+07
2.04604e+07
2.04652e+07
2.047e+07
2.04748e+07
2.04795e+07
2.04841e+07
2.04887e+07
2.04932e+07
2.04976e+07
2.0502e+07
2.05064e+07
2.05106e+07
2.05149e+07
2.0519e+07
2.05232e+07
2.05272e+07
2.05312e+07
2.05352e+07
2.05391e+07
2.05429e+07
2.05467e+07
2.05504e+07
2.05541e+07
2.05577e+07
2.05613e+07
2.05648e+07
2.05683e+07
2.05717e+07
2.05751e+07
2.05784e+07
2.05817e+07
2.05849e+07
2.05881e+07
2.05912e+07
2.05943e+07
2.05973e+07
2.06003e+07
2.06032e+07
2.06061e+07
2.06089e+07
2.06117e+07
2.06144e+07
2.06171e+07
2.06198e+07
2.06224e+07
2.0625e+07
2.06275e+07
2.06299e+07
2.06324e+07
2.06347e+07
2.06371e+07
2.06394e+07
2.06416e+07
2.06438e+07
2.0646e+07
2.06481e+07
2.06502e+07
2.06522e+07
2.06542e+07
2.06562e+07
2.06581e+07
2.066e+07
2.06618e+07
2.06636e+07
2.06654e+07
2.06671e+07
2.06688e+07
2.06704e+07
2.06721e+07
2.06736e+07
2.06752e+07
2.06767e+07
2.06782e+07
2.06796e+07
2.0681e+07
2.06824e+07
2.06837e+07
2.06851e+07
2.06863e+07
2.06876e+07
2.06888e+07
2.069e+07
2.06912e+07
2.06923e+07
2.06934e+07
2.06945e+07
2.06955e+07
2.06966e+07
2.06976e+07
2.06985e+07
2.06995e+07
2.07004e+07
2.07013e+07
2.07022e+07
2.0703e+07
2.07038e+07
2.07046e+07
2.07054e+07
2.07062e+07
2.07069e+07
2.07076e+07
2.07083e+07
2.0709e+07
2.07096e+07
2.07103e+07
2.07109e+07
2.07115e+07
2.07121e+07
2.07127e+07
2.07132e+07
2.07138e+07
2.07143e+07
2.07148e+07
2.07153e+07
2.07158e+07
2.07163e+07
2.07168e+07
2.07172e+07
2.07177e+07
2.07181e+07
2.07185e+07
2.07189e+07
2.07193e+07
2.07197e+07
2.072e+07
2.07203e+07
2.07207e+07
2.0721e+07
2.07213e+07
2.07215e+07
2.07218e+07
2.0722e+07
2.07222e+07
2.07224e+07
2.07226e+07
2.07228e+07
2.07229e+07
2.07231e+07
2.07232e+07
2.07233e+07
2.07234e+07
2.07235e+07
2.07236e+07
2.07237e+07
2.07237e+07
2.07238e+07
2.07238e+07
2.07239e+07
2.07239e+07
2.07239e+07
2.07239e+07
2.07239e+07
2.07239e+07
2.01625e+07
2.01695e+07
2.0177e+07
2.01846e+07
2.01922e+07
2.01996e+07
2.02071e+07
2.02145e+07
2.02218e+07
2.02291e+07
2.02364e+07
2.02436e+07
2.02507e+07
2.02577e+07
2.02647e+07
2.02717e+07
2.02786e+07
2.02854e+07
2.02921e+07
2.02988e+07
2.03054e+07
2.0312e+07
2.03185e+07
2.03249e+07
2.03313e+07
2.03376e+07
2.03439e+07
2.03501e+07
2.03562e+07
2.03622e+07
2.03682e+07
2.03741e+07
2.038e+07
2.03858e+07
2.03915e+07
2.03972e+07
2.04028e+07
2.04083e+07
2.04138e+07
2.04192e+07
2.04246e+07
2.04299e+07
2.04351e+07
2.04403e+07
2.04454e+07
2.04505e+07
2.04555e+07
2.04604e+07
2.04652e+07
2.047e+07
2.04748e+07
2.04795e+07