/*--------------------------------*- C++ -*----------------------------------*\
| =========                 |                                                 |
| \\      /  F ield         | OpenFOAM: The Open Source CFD Toolbox           |
|  \\    /   O peration     | Version:  3.0.x                                 |
|   \\  /    A nd           | Web:      www.OpenFOAM.org                      |
|    \\/     M anipulation  |                                                 |
\*---------------------------------------------------------------------------*/
FoamFile
{
    version     2.0;
    format      ascii;
    class       volScalarField;
    location    "0.52995";
    object      T;
}
// * * * * * * * * * * * * * * * * * * * * * * * * * * * * * * * * * * * * * //

dimensions      [0 0 0 1 0 0 0];

internalField   nonuniform List<scalar> 
13800
(
774.07
774.064
774.059
774.058
774.059
774.061
774.066
774.072
774.079
774.087
774.096
774.106
774.116
774.128
774.14
774.152
774.166
774.18
774.195
774.21
774.226
774.243
774.261
774.279
774.298
774.318
774.339
774.36
774.383
774.405
774.429
774.454
774.479
774.505
774.531
774.559
774.587
774.616
774.646
774.677
774.708
774.741
774.774
774.808
774.842
774.878
774.914
774.951
774.989
775.028
775.068
775.108
775.15
775.192
775.235
775.279
775.324
775.37
775.416
775.464
775.512
775.561
775.611
775.662
775.714
775.767
775.821
775.876
775.931
775.988
776.046
776.104
776.163
776.223
776.285
776.348
776.411
776.476
776.541
776.608
776.675
776.743
776.812
776.881
776.951
777.021
777.093
777.165
777.239
777.313
777.389
777.466
777.544
777.623
777.703
777.785
777.867
777.951
778.035
778.12
778.206
778.293
778.38
778.467
778.555
778.644
778.734
778.825
778.917
779.01
779.103
779.197
779.291
779.385
779.48
779.576
779.672
779.769
779.867
779.965
780.064
780.163
780.264
780.365
780.467
780.569
780.672
780.775
780.879
780.983
781.087
781.191
781.294
781.398
781.501
781.604
781.707
781.81
781.914
782.018
782.122
782.226
782.33
782.434
782.538
782.642
782.745
782.849
782.952
783.055
783.158
783.26
783.362
783.464
783.566
783.667
783.767
783.867
783.967
784.066
784.165
784.263
784.361
784.458
784.555
784.651
784.746
784.841
784.935
785.028
785.121
785.213
785.304
785.396
785.485
785.576
785.662
785.753
785.836
785.928
786.007
786.099
786.176
786.268
786.34
786.435
786.501
786.598
786.659
786.759
786.813
786.916
786.965
787.069
787.116
787.216
787.267
787.349
787.438
787.48
774.043
774.037
774.032
774.031
774.032
774.034
774.039
774.045
774.052
774.06
774.069
774.079
774.09
774.101
774.113
774.126
774.139
774.153
774.168
774.184
774.2
774.217
774.235
774.253
774.273
774.293
774.313
774.335
774.357
774.38
774.404
774.428
774.453
774.479
774.506
774.534
774.562
774.591
774.621
774.652
774.683
774.716
774.749
774.783
774.818
774.853
774.89
774.927
774.965
775.004
775.043
775.084
775.125
775.168
775.211
775.255
775.3
775.346
775.392
775.44
775.488
775.537
775.588
775.639
775.691
775.744
775.798
775.852
775.908
775.965
776.022
776.081
776.14
776.2
776.262
776.325
776.388
776.453
776.519
776.585
776.653
776.721
776.79
776.859
776.929
777
777.071
777.143
777.217
777.292
777.368
777.444
777.522
777.602
777.682
777.763
777.846
777.929
778.014
778.099
778.185
778.272
778.359
778.446
778.535
778.624
778.714
778.805
778.897
778.99
779.083
779.177
779.271
779.366
779.461
779.557
779.653
779.75
779.847
779.946
780.045
780.144
780.245
780.346
780.447
780.55
780.653
780.756
780.86
780.964
781.068
781.172
781.276
781.38
781.483
781.586
781.689
781.793
781.896
782
782.104
782.208
782.312
782.416
782.52
782.624
782.728
782.831
782.935
783.038
783.141
783.243
783.346
783.447
783.549
783.65
783.751
783.851
783.951
784.05
784.149
784.247
784.344
784.442
784.538
784.634
784.729
784.824
784.918
785.012
785.104
785.197
785.288
785.379
785.468
785.559
785.645
785.737
785.82
785.911
785.991
786.083
786.159
786.252
786.323
786.418
786.484
786.582
786.642
786.742
786.796
786.9
786.948
787.053
787.099
787.2
787.247
787.346
787.395
787.502
774.043
774.037
774.032
774.031
774.032
774.034
774.039
774.045
774.052
774.06
774.069
774.079
774.09
774.101
774.113
774.126
774.139
774.153
774.168
774.184
774.2
774.217
774.235
774.253
774.273
774.293
774.313
774.335
774.357
774.38
774.404
774.428
774.453
774.479
774.506
774.534
774.562
774.591
774.621
774.652
774.683
774.716
774.749
774.783
774.817
774.853
774.889
774.927
774.965
775.004
775.043
775.084
775.125
775.168
775.211
775.255
775.3
775.345
775.392
775.44
775.488
775.537
775.588
775.639
775.691
775.744
775.797
775.852
775.908
775.965
776.022
776.081
776.14
776.2
776.262
776.325
776.388
776.453
776.518
776.585
776.653
776.721
776.79
776.859
776.929
776.999
777.071
777.143
777.217
777.292
777.368
777.444
777.522
777.601
777.682
777.763
777.846
777.929
778.014
778.099
778.185
778.272
778.359
778.446
778.535
778.624
778.714
778.805
778.897
778.99
779.083
779.177
779.271
779.366
779.461
779.556
779.653
779.75
779.847
779.946
780.045
780.144
780.244
780.346
780.447
780.55
780.653
780.756
780.86
780.964
781.068
781.172
781.276
781.38
781.483
781.586
781.689
781.793
781.896
782
782.104
782.208
782.312
782.416
782.52
782.624
782.728
782.831
782.935
783.038
783.141
783.243
783.346
783.447
783.549
783.65
783.751
783.851
783.951
784.05
784.149
784.247
784.344
784.442
784.538
784.634
784.729
784.824
784.918
785.012
785.104
785.197
785.288
785.379
785.468
785.559
785.645
785.737
785.82
785.911
785.991
786.083
786.159
786.252
786.323
786.418
786.484
786.582
786.642
786.742
786.796
786.9
786.948
787.053
787.099
787.2
787.247
787.346
787.394
787.501
774.043
774.037
774.032
774.031
774.032
774.034
774.039
774.045
774.052
774.061
774.07
774.079
774.09
774.101
774.113
774.126
774.139
774.154
774.168
774.184
774.2
774.217
774.235
774.254
774.273
774.293
774.313
774.335
774.357
774.38
774.404
774.428
774.453
774.479
774.506
774.534
774.562
774.591
774.621
774.652
774.683
774.716
774.749
774.783
774.818
774.853
774.89
774.927
774.965
775.004
775.044
775.084
775.126
775.168
775.211
775.255
775.3
775.346
775.392
775.44
775.488
775.538
775.588
775.639
775.691
775.744
775.798
775.852
775.908
775.965
776.022
776.081
776.14
776.2
776.262
776.325
776.388
776.453
776.519
776.585
776.653
776.721
776.79
776.859
776.929
777
777.071
777.143
777.217
777.292
777.368
777.444
777.522
777.602
777.682
777.763
777.846
777.929
778.014
778.099
778.185
778.272
778.359
778.447
778.535
778.624
778.714
778.805
778.897
778.99
779.083
779.177
779.271
779.366
779.461
779.557
779.653
779.75
779.847
779.946
780.045
780.144
780.244
780.346
780.447
780.55
780.653
780.756
780.86
780.964
781.068
781.172
781.276
781.38
781.483
781.586
781.689
781.793
781.896
782
782.104
782.208
782.312
782.416
782.52
782.624
782.728
782.831
782.935
783.038
783.141
783.243
783.346
783.447
783.549
783.65
783.751
783.851
783.951
784.05
784.149
784.247
784.344
784.442
784.538
784.634
784.729
784.824
784.918
785.012
785.104
785.197
785.288
785.379
785.468
785.559
785.645
785.737
785.82
785.911
785.991
786.083
786.159
786.252
786.323
786.418
786.484
786.582
786.642
786.742
786.796
786.9
786.948
787.052
787.099
787.2
787.247
787.346
787.394
787.487
774.044
774.037
774.032
774.031
774.032
774.034
774.039
774.045
774.052
774.061
774.07
774.08
774.09
774.101
774.113
774.126
774.14
774.154
774.169
774.184
774.2
774.217
774.235
774.254
774.273
774.293
774.314
774.335
774.357
774.38
774.404
774.428
774.454
774.48
774.506
774.534
774.562
774.591
774.621
774.652
774.684
774.716
774.749
774.783
774.818
774.853
774.89
774.927
774.965
775.004
775.044
775.084
775.126
775.168
775.211
775.255
775.3
775.346
775.392
775.44
775.488
775.538
775.588
775.639
775.691
775.744
775.798
775.853
775.908
775.965
776.023
776.081
776.14
776.2
776.262
776.325
776.389
776.453
776.519
776.585
776.653
776.721
776.79
776.859
776.929
777
777.071
777.143
777.217
777.292
777.368
777.445
777.522
777.602
777.682
777.763
777.846
777.929
778.014
778.099
778.185
778.272
778.359
778.447
778.535
778.624
778.714
778.805
778.897
778.99
779.083
779.177
779.271
779.366
779.461
779.557
779.653
779.75
779.847
779.946
780.045
780.144
780.245
780.346
780.447
780.55
780.653
780.756
780.86
780.964
781.068
781.172
781.276
781.38
781.483
781.586
781.689
781.793
781.896
782
782.104
782.208
782.312
782.416
782.52
782.624
782.728
782.831
782.935
783.038
783.141
783.243
783.346
783.447
783.549
783.65
783.751
783.851
783.951
784.05
784.149
784.247
784.344
784.442
784.538
784.634
784.729
784.824
784.918
785.012
785.104
785.197
785.288
785.379
785.468
785.559
785.645
785.737
785.82
785.911
785.991
786.083
786.159
786.252
786.323
786.418
786.484
786.582
786.642
786.742
786.796
786.899
786.949
787.052
787.099
787.201
787.247
787.346
787.393
787.497
774.044
774.037
774.032
774.031
774.032
774.034
774.039
774.045
774.052
774.061
774.07
774.08
774.09
774.101
774.113
774.126
774.14
774.154
774.169
774.184
774.2
774.217
774.235
774.254
774.273
774.293
774.314
774.335
774.357
774.38
774.404
774.428
774.454
774.48
774.506
774.534
774.562
774.591
774.621
774.652
774.684
774.716
774.749
774.783
774.818
774.853
774.89
774.927
774.965
775.004
775.044
775.084
775.126
775.168
775.211
775.255
775.3
775.346
775.392
775.44
775.488
775.538
775.588
775.639
775.691
775.744
775.798
775.853
775.908
775.965
776.023
776.081
776.14
776.2
776.262
776.325
776.389
776.453
776.519
776.585
776.653
776.721
776.79
776.859
776.929
777
777.071
777.143
777.217
777.292
777.368
777.445
777.522
777.602
777.682
777.763
777.846
777.929
778.014
778.099
778.185
778.272
778.359
778.447
778.535
778.624
778.714
778.805
778.897
778.99
779.083
779.177
779.271
779.366
779.461
779.557
779.653
779.75
779.847
779.946
780.045
780.144
780.245
780.346
780.447
780.55
780.653
780.756
780.86
780.964
781.068
781.172
781.276
781.38
781.483
781.586
781.689
781.793
781.896
782
782.104
782.208
782.312
782.416
782.52
782.624
782.728
782.831
782.935
783.038
783.141
783.243
783.346
783.447
783.549
783.65
783.751
783.851
783.951
784.05
784.149
784.247
784.344
784.442
784.538
784.634
784.729
784.824
784.918
785.012
785.105
785.197
785.288
785.379
785.469
785.558
785.647
785.736
785.821
785.91
785.993
786.08
786.164
786.244
786.335
786.404
786.501
786.564
786.66
786.725
786.813
786.886
786.957
787.047
787.103
787.194
787.258
787.335
787.398
787.474
774.043
774.037
774.032
774.031
774.032
774.034
774.039
774.045
774.052
774.061
774.07
774.079
774.09
774.101
774.113
774.126
774.139
774.154
774.168
774.184
774.2
774.217
774.235
774.254
774.273
774.293
774.313
774.335
774.357
774.38
774.404
774.428
774.453
774.479
774.506
774.534
774.562
774.591
774.621
774.652
774.683
774.716
774.749
774.783
774.818
774.853
774.89
774.927
774.965
775.004
775.044
775.084
775.126
775.168
775.211
775.255
775.3
775.346
775.392
775.44
775.488
775.538
775.588
775.639
775.691
775.744
775.798
775.852
775.908
775.965
776.022
776.081
776.14
776.2
776.262
776.325
776.388
776.453
776.519
776.585
776.653
776.721
776.79
776.859
776.929
777
777.071
777.143
777.217
777.292
777.368
777.444
777.522
777.602
777.682
777.763
777.846
777.929
778.014
778.099
778.185
778.272
778.359
778.447
778.535
778.624
778.714
778.805
778.897
778.99
779.083
779.177
779.271
779.366
779.461
779.557
779.653
779.75
779.847
779.946
780.045
780.144
780.244
780.346
780.447
780.55
780.653
780.756
780.86
780.964
781.068
781.172
781.276
781.38
781.483
781.586
781.689
781.793
781.896
782
782.104
782.208
782.312
782.416
782.52
782.624
782.728
782.831
782.935
783.038
783.141
783.243
783.346
783.447
783.549
783.65
783.751
783.851
783.951
784.05
784.149
784.247
784.344
784.442
784.538
784.634
784.729
784.824
784.918
785.012
785.105
785.197
785.288
785.378
785.47
785.557
785.649
785.732
785.825
785.905
785.999
786.074
786.168
786.241
786.336
786.404
786.5
786.564
786.661
786.721
786.821
786.872
786.977
787.024
787.127
787.173
787.274
787.318
787.416
787.465
774.043
774.037
774.032
774.031
774.032
774.034
774.039
774.045
774.052
774.06
774.069
774.079
774.09
774.101
774.113
774.126
774.139
774.153
774.168
774.184
774.2
774.217
774.235
774.253
774.273
774.293
774.313
774.335
774.357
774.38
774.404
774.428
774.453
774.479
774.506
774.534
774.562
774.591
774.621
774.652
774.683
774.716
774.749
774.783
774.817
774.853
774.889
774.927
774.965
775.004
775.043
775.084
775.125
775.168
775.211
775.255
775.3
775.345
775.392
775.44
775.488
775.537
775.588
775.639
775.691
775.744
775.797
775.852
775.908
775.965
776.022
776.081
776.14
776.2
776.262
776.325
776.388
776.453
776.518
776.585
776.653
776.721
776.79
776.859
776.929
776.999
777.071
777.143
777.217
777.292
777.368
777.444
777.522
777.601
777.682
777.763
777.846
777.929
778.014
778.099
778.185
778.272
778.359
778.446
778.535
778.624
778.714
778.805
778.897
778.99
779.083
779.177
779.271
779.366
779.461
779.556
779.653
779.75
779.847
779.946
780.045
780.144
780.244
780.346
780.447
780.55
780.653
780.756
780.86
780.964
781.068
781.172
781.276
781.38
781.483
781.586
781.689
781.793
781.896
782
782.104
782.208
782.312
782.416
782.52
782.624
782.728
782.831
782.935
783.038
783.141
783.243
783.346
783.447
783.549
783.65
783.751
783.851
783.951
784.05
784.149
784.247
784.344
784.442
784.538
784.634
784.729
784.824
784.918
785.012
785.105
785.196
785.288
785.378
785.47
785.557
785.649
785.732
785.825
785.904
785.999
786.074
786.169
786.24
786.336
786.403
786.501
786.563
786.662
786.72
786.821
786.872
786.977
787.024
787.127
787.174
787.275
787.317
787.435
787.462
774.043
774.037
774.032
774.031
774.032
774.034
774.039
774.045
774.052
774.06
774.069
774.079
774.09
774.101
774.113
774.126
774.139
774.153
774.168
774.184
774.2
774.217
774.235
774.253
774.273
774.293
774.313
774.335
774.357
774.38
774.404
774.428
774.453
774.479
774.506
774.534
774.562
774.591
774.621
774.652
774.683
774.716
774.749
774.783
774.818
774.853
774.89
774.927
774.965
775.004
775.043
775.084
775.125
775.168
775.211
775.255
775.3
775.346
775.392
775.44
775.488
775.537
775.588
775.639
775.691
775.744
775.798
775.852
775.908
775.965
776.022
776.081
776.14
776.2
776.262
776.325
776.388
776.453
776.519
776.585
776.653
776.721
776.79
776.859
776.929
777
777.071
777.143
777.217
777.292
777.368
777.444
777.522
777.602
777.682
777.763
777.846
777.929
778.014
778.099
778.185
778.272
778.359
778.446
778.535
778.624
778.714
778.805
778.897
778.99
779.083
779.177
779.271
779.366
779.461
779.557
779.653
779.75
779.847
779.946
780.045
780.144
780.245
780.346
780.447
780.55
780.653
780.756
780.86
780.964
781.068
781.172
781.276
781.38
781.483
781.586
781.689
781.793
781.896
782
782.104
782.208
782.312
782.416
782.52
782.624
782.728
782.831
782.935
783.038
783.141
783.243
783.346
783.447
783.549
783.65
783.751
783.851
783.951
784.05
784.149
784.247
784.344
784.442
784.538
784.634
784.729
784.824
784.918
785.012
785.105
785.196
785.289
785.378
785.47
785.557
785.649
785.732
785.825
785.904
785.999
786.074
786.169
786.24
786.337
786.403
786.502
786.562
786.663
786.719
786.822
786.872
786.977
787.024
787.127
787.174
787.275
787.317
787.443
787.459
774.07
774.064
774.059
774.058
774.059
774.061
774.066
774.072
774.079
774.087
774.096
774.106
774.116
774.128
774.14
774.152
774.166
774.18
774.195
774.21
774.226
774.243
774.261
774.279
774.298
774.318
774.339
774.36
774.383
774.405
774.429
774.454
774.479
774.505
774.531
774.559
774.587
774.616
774.646
774.677
774.708
774.741
774.774
774.808
774.842
774.878
774.914
774.951
774.989
775.028
775.068
775.108
775.15
775.192
775.235
775.279
775.324
775.37
775.416
775.464
775.512
775.561
775.611
775.662
775.714
775.767
775.821
775.876
775.931
775.988
776.046
776.104
776.163
776.223
776.285
776.348
776.411
776.476
776.541
776.608
776.675
776.743
776.812
776.881
776.951
777.021
777.093
777.165
777.239
777.313
777.389
777.466
777.544
777.623
777.703
777.785
777.867
777.951
778.035
778.12
778.206
778.293
778.38
778.467
778.555
778.644
778.734
778.825
778.917
779.01
779.103
779.197
779.291
779.385
779.48
779.576
779.672
779.769
779.867
779.965
780.064
780.163
780.264
780.365
780.467
780.569
780.672
780.775
780.879
780.983
781.087
781.191
781.294
781.398
781.501
781.604
781.707
781.81
781.914
782.018
782.122
782.226
782.33
782.434
782.538
782.642
782.745
782.849
782.952
783.055
783.158
783.26
783.362
783.464
783.566
783.667
783.767
783.867
783.967
784.066
784.165
784.263
784.361
784.458
784.555
784.651
784.746
784.841
784.935
785.028
785.121
785.213
785.305
785.395
785.486
785.574
785.665
785.749
785.842
785.921
786.015
786.091
786.185
786.257
786.353
786.419
786.518
786.579
786.68
786.735
786.839
786.888
786.994
787.041
787.143
787.19
787.292
787.333
787.465
787.449
787.536
787.561
787.587
787.615
787.648
787.678
787.703
787.72
787.735
787.748
787.761
787.774
787.788
787.801
787.815
787.829
787.843
787.857
787.873
787.883
787.541
787.564
787.583
787.602
787.622
787.643
787.665
787.686
787.705
787.723
787.74
787.753
787.765
787.777
787.789
787.801
787.813
787.825
787.836
787.844
787.547
787.565
787.585
787.601
787.618
787.638
787.657
787.678
787.699
787.716
787.736
787.748
787.766
787.775
787.788
787.794
787.806
787.813
787.826
787.834
787.531
787.55
787.567
787.582
787.598
787.613
787.63
787.644
787.664
787.68
787.703
787.722
787.746
787.764
787.787
787.803
787.823
787.836
787.851
787.86
787.527
787.544
787.559
787.573
787.587
787.598
787.612
787.623
787.635
787.646
787.658
787.67
787.68
787.691
787.702
787.714
787.725
787.737
787.749
787.763
787.516
787.527
787.54
787.55
787.565
787.577
787.592
787.606
787.622
787.635
787.653
787.669
787.688
787.705
787.726
787.746
787.769
787.789
787.811
787.83
787.509
787.518
787.531
787.544
787.555
787.567
787.576
787.584
787.592
787.599
787.607
787.614
787.623
787.629
787.639
787.646
787.656
787.663
787.671
787.683
787.492
787.496
787.503
787.51
787.518
787.526
787.535
787.544
787.555
787.566
787.579
787.594
787.611
787.627
787.645
787.661
787.679
787.695
787.711
787.725
787.471
787.472
787.473
787.477
787.482
787.488
787.494
787.5
787.507
787.514
787.522
787.531
787.541
787.551
787.562
787.574
787.585
787.598
787.612
787.627
787.454
787.451
787.452
787.454
787.458
787.464
787.471
787.481
787.49
787.503
787.514
787.528
787.541
787.556
787.57
787.587
787.602
787.62
787.637
787.657
787.907
787.956
787.984
788.021
788.073
788.127
788.177
788.219
788.26
788.302
788.347
788.396
788.446
788.495
788.541
788.585
788.627
788.669
788.712
788.755
788.799
788.841
788.883
788.925
788.966
789.007
789.047
789.087
789.127
789.166
789.205
789.243
789.281
789.319
789.356
789.393
789.429
789.465
789.5
789.536
789.57
789.604
789.638
789.671
789.704
789.737
789.769
789.801
789.833
789.864
789.895
789.926
789.955
789.985
790.013
790.042
790.07
790.098
790.125
790.152
790.179
790.205
790.231
790.257
790.283
790.308
790.332
790.356
790.38
790.404
790.428
790.451
790.474
790.497
790.519
790.541
790.562
790.583
790.603
790.623
790.643
790.662
790.682
790.701
790.72
790.739
790.757
790.775
790.793
790.81
790.827
790.843
790.859
790.875
790.891
790.907
790.922
790.937
790.952
790.966
790.98
790.993
791.007
791.02
791.033
791.046
791.059
791.072
791.084
791.097
791.108
791.12
791.131
791.142
791.152
791.162
791.172
791.182
791.192
791.201
791.21
791.219
791.228
791.236
791.244
791.252
791.26
791.268
791.277
791.284
791.292
791.299
791.306
791.313
791.32
791.326
791.333
791.339
791.345
791.351
791.357
791.363
791.368
791.373
791.378
791.382
791.385
791.388
791.391
791.396
791.4
791.404
791.407
791.407
791.405
791.401
791.395
791.389
791.384
791.385
791.395
791.405
791.392
791.365
791.328
791.305
791.317
791.453
791.837
792.302
792.78
793.244
793.667
794.033
794.332
794.545
794.648
794.658
794.642
794.58
794.364
793.832
793.268
792.764
792.353
792.043
791.828
791.675
791.566
791.48
791.428
791.393
791.39
791.387
791.402
791.399
791.411
791.406
791.421
791.417
787.861
787.917
787.957
787.994
788.039
788.09
788.14
788.184
788.223
788.263
788.305
788.35
788.398
788.446
788.493
788.538
788.58
788.621
788.663
788.705
788.747
788.79
788.832
788.873
788.914
788.954
788.995
789.034
789.074
789.113
789.152
789.19
789.228
789.266
789.303
789.339
789.376
789.411
789.447
789.482
789.517
789.551
789.585
789.618
789.651
789.683
789.715
789.747
789.778
789.81
789.841
789.871
789.901
789.931
789.96
789.988
790.016
790.044
790.071
790.098
790.124
790.15
790.177
790.202
790.228
790.253
790.278
790.302
790.326
790.349
790.373
790.396
790.418
790.441
790.463
790.485
790.507
790.528
790.549
790.569
790.589
790.608
790.627
790.646
790.664
790.683
790.701
790.719
790.737
790.755
790.772
790.788
790.804
790.82
790.836
790.851
790.866
790.881
790.896
790.911
790.925
790.939
790.952
790.965
790.978
790.99
791.003
791.015
791.027
791.039
791.052
791.063
791.075
791.086
791.096
791.107
791.117
791.126
791.136
791.145
791.154
791.163
791.172
791.181
791.189
791.197
791.205
791.212
791.22
791.227
791.235
791.243
791.25
791.257
791.264
791.271
791.277
791.283
791.289
791.296
791.301
791.307
791.313
791.319
791.324
791.329
791.333
791.338
791.343
791.346
791.35
791.354
791.357
791.358
791.361
791.361
791.359
791.358
791.359
791.364
791.37
791.374
791.378
791.37
791.35
791.312
791.276
791.252
791.225
791.19
791.144
791.101
791.073
791.071
791.111
791.209
791.325
791.447
791.567
791.679
791.768
791.841
791.86
791.85
791.821
791.759
791.688
791.61
791.542
791.48
791.441
791.411
791.402
791.392
791.396
791.39
791.398
791.394
791.403
791.404
787.855
787.915
787.959
787.998
788.044
788.095
788.146
788.191
788.232
788.272
788.315
788.361
788.409
788.457
788.503
788.546
788.588
788.63
788.672
788.715
788.758
788.801
788.842
788.883
788.924
788.965
789.005
789.045
789.084
789.124
789.162
789.201
789.239
789.276
789.313
789.35
789.386
789.422
789.458
789.493
789.527
789.562
789.595
789.629
789.662
789.694
789.726
789.758
789.789
789.82
789.851
789.882
789.912
789.941
789.97
789.999
790.027
790.054
790.082
790.109
790.135
790.161
790.187
790.213
790.239
790.264
790.288
790.313
790.337
790.36
790.383
790.406
790.429
790.452
790.474
790.496
790.518
790.539
790.559
790.579
790.599
790.618
790.637
790.656
790.675
790.693
790.712
790.73
790.748
790.765
790.782
790.799
790.815
790.831
790.846
790.862
790.877
790.892
790.907
790.921
790.935
790.949
790.962
790.975
790.988
791
791.013
791.025
791.038
791.05
791.062
791.074
791.085
791.096
791.107
791.117
791.127
791.137
791.146
791.155
791.164
791.173
791.182
791.191
791.199
791.207
791.214
791.222
791.229
791.237
791.244
791.252
791.259
791.266
791.273
791.28
791.286
791.292
791.298
791.304
791.31
791.315
791.321
791.327
791.332
791.337
791.342
791.346
791.35
791.355
791.359
791.363
791.366
791.37
791.371
791.369
791.37
791.37
791.368
791.374
791.386
791.391
791.392
791.38
791.354
791.31
791.258
791.211
791.171
791.133
791.095
791.059
791.034
791.022
791.037
791.074
791.144
791.203
791.287
791.347
791.426
791.468
791.522
791.538
791.553
791.543
791.527
791.502
791.477
791.449
791.433
791.413
791.408
791.398
791.4
791.394
791.401
791.396
791.405
791.403
787.878
787.935
787.995
788.049
788.099
788.149
788.202
788.257
788.31
788.359
788.405
788.451
788.499
788.547
788.597
788.645
788.692
788.738
788.781
788.824
788.866
788.909
788.951
788.993
789.034
789.075
789.116
789.156
789.196
789.236
789.274
789.313
789.351
789.388
789.426
789.462
789.498
789.534
789.57
789.605
789.64
789.674
789.707
789.741
789.774
789.806
789.838
789.87
789.902
789.933
789.964
789.994
790.024
790.054
790.083
790.111
790.139
790.167
790.194
790.221
790.248
790.274
790.3
790.326
790.351
790.376
790.401
790.425
790.449
790.473
790.496
790.519
790.542
790.565
790.587
790.609
790.63
790.651
790.672
790.692
790.711
790.731
790.75
790.769
790.788
790.807
790.825
790.843
790.861
790.878
790.895
790.911
790.927
790.943
790.959
790.974
790.99
791.004
791.019
791.033
791.047
791.061
791.074
791.087
791.1
791.113
791.126
791.139
791.151
791.163
791.175
791.187
791.198
791.208
791.219
791.229
791.239
791.249
791.258
791.268
791.277
791.285
791.294
791.302
791.311
791.319
791.327
791.335
791.343
791.351
791.358
791.366
791.372
791.379
791.385
791.392
791.398
791.405
791.411
791.417
791.422
791.428
791.432
791.435
791.44
791.444
791.448
791.452
791.457
791.458
791.458
791.458
791.456
791.453
791.452
791.454
791.457
791.46
791.464
791.464
791.457
791.441
791.418
791.394
791.372
791.352
791.334
791.316
791.3
791.286
791.281
791.279
791.293
791.303
791.329
791.345
791.371
791.39
791.41
791.425
791.438
791.441
791.451
791.442
791.446
791.435
791.432
791.421
791.42
791.41
791.412
791.404
791.409
791.403
791.41
791.404
791.411
791.405
791.409
791.408
787.798
787.854
787.906
787.961
788.013
788.062
788.106
788.149
788.192
788.237
788.282
788.329
788.376
788.423
788.469
788.513
788.558
788.601
788.646
788.69
788.733
788.776
788.818
788.859
788.9
788.94
788.98
789.02
789.06
789.099
789.137
789.175
789.213
789.251
789.288
789.325
789.361
789.397
789.432
789.467
789.502
789.536
789.57
789.603
789.636
789.669
789.701
789.733
789.764
789.795
789.825
789.855
789.885
789.915
789.944
789.973
790.001
790.029
790.057
790.084
790.111
790.137
790.163
790.188
790.214
790.239
790.263
790.287
790.311
790.335
790.358
790.381
790.404
790.426
790.448
790.47
790.491
790.512
790.533
790.553
790.574
790.594
790.613
790.632
790.651
790.669
790.687
790.705
790.722
790.739
790.756
790.773
790.79
790.806
790.822
790.837
790.853
790.868
790.882
790.896
790.91
790.924
790.938
790.951
790.964
790.977
790.989
791.002
791.014
791.025
791.036
791.048
791.059
791.07
791.08
791.091
791.101
791.112
791.121
791.131
791.141
791.15
791.159
791.167
791.176
791.184
791.192
791.2
791.208
791.215
791.223
791.23
791.237
791.244
791.251
791.258
791.265
791.271
791.278
791.284
791.29
791.296
791.302
791.308
791.314
791.319
791.325
791.33
791.335
791.339
791.344
791.349
791.354
791.358
791.362
791.367
791.371
791.373
791.374
791.376
791.38
791.384
791.389
791.391
791.39
791.387
791.381
791.373
791.366
791.359
791.353
791.353
791.35
791.358
791.357
791.369
791.371
791.38
791.386
791.39
791.399
791.397
791.405
791.402
791.407
791.406
791.405
791.41
791.404
791.412
791.406
791.41
791.41
791.409
791.412
791.412
791.412
791.412
791.415
791.413
787.873
787.952
788.033
788.113
788.191
788.266
788.337
788.404
788.468
788.53
788.59
788.648
788.704
788.759
788.812
788.863
788.913
788.961
789.007
789.052
789.097
789.14
789.183
789.225
789.267
789.308
789.349
789.389
789.429
789.468
789.507
789.545
789.584
789.621
789.658
789.695
789.731
789.767
789.803
789.838
789.873
789.907
789.94
789.974
790.007
790.039
790.072
790.104
790.136
790.167
790.198
790.228
790.258
790.287
790.316
790.344
790.371
790.399
790.426
790.453
790.48
790.507
790.532
790.558
790.583
790.608
790.633
790.658
790.682
790.706
790.73
790.753
790.776
790.798
790.819
790.84
790.861
790.882
790.902
790.922
790.943
790.962
790.982
791.001
791.019
791.037
791.055
791.072
791.089
791.106
791.123
791.139
791.156
791.171
791.187
791.202
791.216
791.231
791.246
791.26
791.275
791.289
791.303
791.317
791.33
791.343
791.355
791.367
791.379
791.391
791.402
791.413
791.423
791.434
791.444
791.453
791.462
791.471
791.479
791.488
791.496
791.503
791.511
791.518
791.524
791.531
791.536
791.542
791.547
791.552
791.556
791.559
791.562
791.564
791.566
791.568
791.57
791.573
791.574
791.576
791.577
791.577
791.576
791.574
791.57
791.566
791.561
791.557
791.553
791.551
791.551
791.552
791.554
791.555
791.555
791.552
791.543
791.53
791.513
791.494
791.472
791.449
791.425
791.403
791.383
791.367
791.352
791.342
791.33
791.324
791.315
791.315
791.309
791.314
791.312
791.325
791.328
791.348
791.353
791.376
791.378
791.4
791.397
791.416
791.409
791.424
791.416
791.427
791.418
791.428
791.419
791.427
791.419
791.427
791.418
791.425
791.417
791.424
791.416
791.421
787.705
787.738
787.779
787.825
787.872
787.918
787.964
788.009
788.053
788.098
788.142
788.187
788.231
788.275
788.319
788.362
788.404
788.447
788.489
788.531
788.573
788.615
788.656
788.697
788.737
788.778
788.817
788.857
788.895
788.934
788.972
789.009
789.046
789.083
789.12
789.156
789.192
789.228
789.263
789.298
789.332
789.367
789.4
789.434
789.467
789.499
789.531
789.563
789.594
789.625
789.656
789.686
789.716
789.745
789.774
789.803
789.831
789.859
789.886
789.913
789.94
789.966
789.993
790.019
790.044
790.069
790.094
790.119
790.142
790.166
790.189
790.212
790.235
790.257
790.279
790.301
790.322
790.343
790.364
790.385
790.405
790.425
790.444
790.463
790.482
790.5
790.519
790.537
790.555
790.572
790.59
790.607
790.624
790.64
790.656
790.671
790.686
790.701
790.716
790.73
790.745
790.759
790.773
790.787
790.8
790.813
790.825
790.838
790.85
790.861
790.872
790.884
790.895
790.905
790.916
790.927
790.937
790.947
790.957
790.967
790.976
790.985
790.993
791.001
791.009
791.018
791.025
791.034
791.041
791.049
791.057
791.064
791.071
791.078
791.084
791.091
791.097
791.103
791.109
791.114
791.121
791.126
791.132
791.137
791.143
791.147
791.152
791.156
791.16
791.164
791.167
791.17
791.173
791.177
791.182
791.188
791.192
791.194
791.197
791.202
791.208
791.212
791.217
791.223
791.225
791.228
791.23
791.24
791.25
791.267
791.276
791.291
791.293
791.289
791.276
791.251
791.228
791.218
791.217
791.238
791.256
791.295
791.31
791.347
791.354
791.382
791.382
791.402
791.399
791.414
791.408
791.42
791.413
791.422
791.415
791.423
791.416
791.419
791.419
791.42
787.766
787.833
787.911
787.993
788.076
788.158
788.237
788.314
788.388
788.459
788.528
788.594
788.658
788.719
788.778
788.835
788.889
788.941
788.991
789.038
789.085
789.129
789.173
789.216
789.258
789.299
789.339
789.379
789.419
789.458
789.497
789.535
789.573
789.611
789.648
789.685
789.721
789.757
789.793
789.828
789.862
789.896
789.93
789.963
789.996
790.028
790.061
790.093
790.125
790.156
790.187
790.218
790.247
790.276
790.305
790.333
790.361
790.388
790.415
790.442
790.469
790.495
790.521
790.547
790.571
790.596
790.621
790.645
790.669
790.693
790.717
790.74
790.761
790.783
790.804
790.824
790.844
790.863
790.883
790.902
790.921
790.94
790.958
790.976
790.993
791.009
791.025
791.041
791.057
791.073
791.089
791.104
791.119
791.133
791.147
791.161
791.174
791.187
791.2