/*--------------------------------*- C++ -*----------------------------------*\
| =========                 |                                                 |
| \\      /  F ield         | OpenFOAM: The Open Source CFD Toolbox           |
|  \\    /   O peration     | Version:  3.0.x                                 |
|   \\  /    A nd           | Web:      www.OpenFOAM.org                      |
|    \\/     M anipulation  |                                                 |
\*---------------------------------------------------------------------------*/
FoamFile
{
    version     2.0;
    format      ascii;
    class       surfaceScalarField;
    location    "0.2";
    object      phi;
}
// * * * * * * * * * * * * * * * * * * * * * * * * * * * * * * * * * * * * * //

dimensions      [1 0 -1 0 0 0 0];

internalField   nonuniform List<scalar> 
12415
(
5.78366
0.000327844
5.78281
0.000235254
5.78197
0.0002251
5.78112
0.000227287
5.78027
0.000227847
5.7794
0.000227798
5.77852
0.0002279
5.77761
0.000228051
5.77669
0.000228187
5.77574
0.000228307
5.77477
0.000228413
5.77376
0.000228504
5.77272
0.000228583
5.77165
0.00022865
5.77055
0.000228702
5.76943
0.000228731
5.76829
0.000228718
5.76713
0.000228632
5.76597
0.000228418
5.7648
0.000227997
5.76362
0.000227249
5.76242
0.000226022
5.76122
0.000224131
5.76002
0.000221362
5.75882
0.00021749
5.75763
0.000212296
5.75646
0.000205596
5.7553
0.000197267
5.75417
0.00018727
5.75307
0.000175669
5.75199
0.000162635
5.75095
0.000148443
5.74994
0.000133449
5.74897
0.000118064
5.74803
0.000102718
5.74712
8.78275e-05
5.74623
7.37586e-05
5.74537
6.08068e-05
5.74453
4.9181e-05
5.7437
3.89987e-05
5.74289
3.02919e-05
5.74207
2.30181e-05
5.74125
1.7079e-05
5.74042
1.23365e-05
5.73958
8.63154e-06
5.73872
5.79725e-06
5.73784
3.67232e-06
5.73693
2.1106e-06
5.73598
9.85052e-07
5.735
1.9063e-07
5.73398
-3.57712e-07
5.73291
-7.29648e-07
5.73181
-9.76821e-07
5.73066
-1.13816e-06
5.72946
-1.24153e-06
5.72822
-1.30652e-06
5.72693
-1.34656e-06
5.7256
-1.37062e-06
5.72423
-1.38464e-06
5.72282
-1.39237e-06
5.72136
-1.39611e-06
5.71987
-1.39761e-06
5.71835
-1.39811e-06
5.71679
-1.3981e-06
5.7152
-1.39733e-06
5.71358
-1.39518e-06
5.71193
-1.39188e-06
5.71026
-1.38807e-06
5.70856
-1.38412e-06
5.70684
-1.37983e-06
5.70509
-1.37482e-06
5.70331
-1.36867e-06
5.70151
-1.36154e-06
5.69969
-1.35394e-06
5.69783
-1.3462e-06
5.69595
-1.33827e-06
5.69403
-1.32991e-06
5.69208
-1.32088e-06
5.69009
-1.31107e-06
5.68806
-1.30049e-06
5.68599
-1.28927e-06
5.68388
-1.27759e-06
5.68172
-1.26563e-06
5.67952
-1.25359e-06
5.67727
-1.24163e-06
5.67498
-1.22991e-06
5.67263
-1.21869e-06
5.67024
-1.21215e-06
5.66781
-1.19786e-06
5.66534
-1.18999e-06
5.66283
-1.18017e-06
5.66028
-1.17293e-06
5.6577
-1.16738e-06
5.6551
-1.1626e-06
5.65248
-1.15948e-06
5.64986
-1.15755e-06
5.64723
-1.15696e-06
5.6446
-1.15809e-06
5.64198
-1.16056e-06
5.63939
-1.16446e-06
5.63682
-1.16977e-06
5.63428
-1.17621e-06
5.63178
-1.18359e-06
5.62932
-1.192e-06
5.62692
-1.20075e-06
5.62456
-1.2098e-06
5.62225
-1.21906e-06
5.62001
-1.22794e-06
5.61781
-1.2371e-06
5.61568
-1.24004e-06
5.6136
-1.25399e-06
5.61157
-1.25922e-06
5.6096
-1.26554e-06
5.60767
-1.27083e-06
5.60579
-1.27481e-06
5.60394
-1.27829e-06
5.60213
-1.28042e-06
5.60035
-1.28121e-06
5.59859
-1.28104e-06
5.59685
-1.27965e-06
5.59512
-1.27696e-06
5.59338
-1.27304e-06
5.59165
-1.26809e-06
5.5899
-1.26218e-06
5.58814
-1.25614e-06
5.58637
-1.25304e-06
5.58457
-1.24474e-06
5.58275
-1.23608e-06
5.58091
-1.23157e-06
5.57904
-1.22545e-06
5.57715
-1.21976e-06
5.57524
-1.21661e-06
5.57332
-1.21567e-06
5.57138
-1.21837e-06
5.56944
-1.2214e-06
5.56749
-1.22341e-06
5.56554
-1.22723e-06
5.56359
-1.23146e-06
5.56165
-1.23787e-06
5.55972
-1.24546e-06
5.55781
-1.25441e-06
5.55591
-1.2607e-06
5.55403
-1.26154e-06
5.55217
-1.29901e-06
5.55033
-1.30254e-06
5.5485
-1.30653e-06
5.5467
-1.31767e-06
5.54491
-1.32904e-06
5.54315
-1.33978e-06
5.54141
-1.35136e-06
5.53968
-1.36925e-06
5.53798
-1.35738e-06
5.53629
-1.37154e-06
5.53463
-1.38646e-06
5.53298
-1.39613e-06
5.53134
-1.40122e-06
5.52971
-1.40435e-06
5.52809
-1.40691e-06
5.52647
-1.40807e-06
5.52485
-1.4081e-06
5.52323
-1.40561e-06
5.5216
-1.40262e-06
5.51996
-1.39719e-06
5.51832
-1.39187e-06
5.51667
-1.38574e-06
5.51503
-1.38015e-06
5.51339
-1.37386e-06
5.51176
-1.36893e-06
5.51014
-1.3646e-06
5.50856
-1.35966e-06
5.50702
-1.35933e-06
5.50552
-1.35483e-06
5.50409
-1.35957e-06
5.50273
-1.35459e-06
5.50144
-1.36208e-06
5.50023
-1.35901e-06
5.4991
-1.36616e-06
5.49806
-1.36738e-06
5.4971
-1.36391e-06
5.49621
-1.36251e-06
5.49539
-1.36629e-06
5.49464
-1.36364e-06
5.49394
-1.36281e-06
5.4933
-1.35196e-06
5.49271
-1.35298e-06
5.49216
-1.33896e-06
5.49167
-1.35033e-06
5.49123
-1.32308e-06
5.49084
-1.34499e-06
5.49052
-1.3159e-06
5.49024
-1.31602e-06
5.49002
-1.21782e-06
5.48983
-6.71729e-07
5.48968
3.26884e-06
5.4895
3.06426e-05
5.48914
0.000222027
5.48743
0.00155865
5.47636
0.0108923
5.39047
0.0856738
0.419339
4.97088
11.5681
0.000260547
11.5668
0.000215772
11.5657
0.000189826
11.5644
0.000194647
11.5632
0.000195942
11.562
0.000195477
11.5607
0.000195453
11.5594
0.000195593
11.558
0.000195717
11.5566
0.000195823
11.5552
0.000195921
11.5536
0.000196008
11.552
0.000196085
11.5504
0.000196152
11.5487
0.000196208
11.5469
0.000196244
11.5451
0.000196246
11.5433
0.000196186
11.5415
0.000196017
11.5396
0.000195674
11.5377
0.000195052
11.5358
0.000194022
11.5339
0.000192426
11.532
0.00019008
11.5301
0.000186789
11.5281
0.000182366
11.5262
0.00017665
11.5243
0.000169535
11.5225
0.000160984
11.5206
0.000151051
11.5188
0.000139883
11.5171
0.000127712
11.5153
0.000114845
11.5136
0.000101633
11.512
8.84491e-05
11.5103
7.5649e-05
11.5087
6.35497e-05
11.5071
5.24065e-05
11.5056
4.23999e-05
11.504
3.36325e-05
11.5024
2.61327e-05
11.5008
1.98653e-05
11.4992
1.47459e-05
11.4976
1.06569e-05
11.4959
7.46147e-06
11.4942
5.01633e-06
11.4925
3.18223e-06
11.4906
1.8339e-06
11.4888
8.60854e-07
11.4868
1.74899e-07
11.4848
-2.96765e-07
11.4826
-6.18233e-07
11.4804
-8.32109e-07
11.4781
-9.721e-07
11.4757
-1.06194e-06
11.4732
-1.11849e-06
11.4706
-1.15337e-06
11.468
-1.17437e-06
11.4652
-1.18662e-06
11.4624
-1.19339e-06
11.4595
-1.19671e-06
11.4565
-1.19803e-06
11.4535
-1.1985e-06
11.4503
-1.19852e-06
11.4472
-1.19784e-06
11.4439
-1.19602e-06
11.4406
-1.19321e-06
11.4373
-1.18994e-06
11.4339
-1.18654e-06
11.4304
-1.18287e-06
11.4269
-1.17856e-06
11.4234
-1.1733e-06
11.4198
-1.1672e-06
11.4161
-1.16067e-06
11.4124
-1.15403e-06
11.4086
-1.14723e-06
11.4048
-1.14007e-06
11.4009
-1.13233e-06
11.3969
-1.12392e-06
11.3928
-1.11486e-06
11.3887
-1.10523e-06
11.3845
-1.09521e-06
11.3801
-1.08496e-06
11.3757
-1.07464e-06
11.3712
-1.06439e-06
11.3666
-1.05436e-06
11.3619
-1.04488e-06
11.3572
-1.03861e-06
11.3523
-1.02744e-06
11.3474
-1.01996e-06
11.3423
-1.01164e-06
11.3372
-1.00552e-06
11.3321
-1.00068e-06
11.3269
-9.96681e-07
11.3216
-9.93959e-07
11.3164
-9.92394e-07
11.3111
-9.91795e-07
11.3058
-9.92792e-07
11.3006
-9.94907e-07
11.2954
-9.98263e-07
11.2903
-1.00282e-06
11.2852
-1.00833e-06
11.2802
-1.01469e-06
11.2753
-1.02184e-06
11.2705
-1.02936e-06
11.2657
-1.03711e-06
11.2611
-1.04504e-06
11.2566
-1.05266e-06
11.2522
-1.06022e-06
11.248
-1.06399e-06
11.2438
-1.07382e-06
11.2398
-1.07993e-06
11.2358
-1.08492e-06
11.2319
-1.08942e-06
11.2282
-1.09284e-06
11.2245
-1.09577e-06
11.2209
-1.09763e-06
11.2173
-1.09835e-06
11.2138
-1.09817e-06
11.2103
-1.09698e-06
11.2068
-1.09472e-06
11.2033
-1.09124e-06
11.1999
-1.08742e-06
11.1964
-1.08177e-06
11.1929
-1.07692e-06
11.1893
-1.07393e-06
11.1857
-1.06707e-06
11.1821
-1.05983e-06
11.1784
-1.05549e-06
11.1746
-1.05071e-06
11.1709
-1.04565e-06
11.167
-1.04282e-06
11.1632
-1.0423e-06
11.1593
-1.0444e-06
11.1554
-1.04698e-06
11.1515
-1.04888e-06
11.1476
-1.05203e-06
11.1437
-1.05576e-06
11.1398
-1.06117e-06
11.136
-1.06773e-06
11.1321
-1.07518e-06
11.1283
-1.08061e-06
11.1246
-1.08323e-06
11.1208
-1.11158e-06
11.1172
-1.11697e-06
11.1135
-1.12046e-06
11.1099
-1.12958e-06
11.1063
-1.13934e-06
11.1028
-1.14866e-06
11.0993
-1.15868e-06
11.0959
-1.1721e-06
11.0924
-1.16645e-06
11.0891
-1.17448e-06
11.0857
-1.18846e-06
11.0824
-1.19689e-06
11.0791
-1.20121e-06
11.0759
-1.20395e-06
11.0726
-1.20611e-06
11.0694
-1.20721e-06
11.0662
-1.20709e-06
11.0629
-1.20488e-06
11.0596
-1.20257e-06
11.0564
-1.19835e-06
11.0531
-1.19214e-06
11.0498
-1.18928e-06
11.0465
-1.18216e-06
11.0432
-1.17865e-06
11.0399
-1.17286e-06
11.0367
-1.17111e-06
11.0335
-1.1638e-06
11.0305
-1.16663e-06
11.0275
-1.15779e-06
11.0246
-1.17177e-06
11.0219
-1.15528e-06
11.0193
-1.17458e-06
11.0169
-1.15994e-06
11.0146
-1.17516e-06
11.0125
-1.16802e-06
11.0106
-1.17159e-06
11.0088
-1.16766e-06
11.0072
-1.17175e-06
11.0057
-1.16634e-06
11.0043
-1.17325e-06
11.003
-1.15283e-06
11.0018
-1.16535e-06
11.0007
-1.13599e-06
10.9997
-1.17949e-06
10.9988
-1.10817e-06
10.9981
-1.18254e-06
10.9974
-1.1025e-06
10.9968
-1.10997e-06
10.9964
-8.26472e-07
10.996
7.7462e-07
10.9957
1.24246e-05
10.9954
9.34415e-05
10.9946
0.000659967
10.9913
0.0046155
10.9697
0.0320683
10.829
0.225949
1.05328
10.1946
138.817
-0.000260547
138.802
-0.000215772
138.788
-0.000189826
138.773
-0.000194647
138.759
-0.000195942
138.744
-0.000195477
138.728
-0.000195453
138.712
-0.000195593
138.696
-0.000195717
138.679
-0.000195823
138.662
-0.000195921
138.643
-0.000196008
138.624
-0.000196085
138.604
-0.000196152
138.584
-0.000196208
138.563
-0.000196244
138.541
-0.000196246
138.52
-0.000196186
138.498
-0.000196017
138.475
-0.000195674
138.453
-0.000195052
138.43
-0.000194022
138.407
-0.000192426
138.384
-0.00019008
138.361
-0.000186789
138.337
-0.000182366
138.315
-0.00017665
138.292
-0.000169535
138.27
-0.000160984
138.248
-0.000151051
138.226
-0.000139883
138.205
-0.000127712
138.184
-0.000114845
138.164
-0.000101633
138.144
-8.84491e-05
138.124
-7.5649e-05
138.105
-6.35497e-05
138.086
-5.24065e-05
138.067
-4.23999e-05
138.048
-3.36325e-05
138.029
-2.61327e-05
138.01
-1.98652e-05
137.991
-1.47459e-05
137.971
-1.06569e-05
137.951
-7.46147e-06
137.931
-5.01633e-06
137.91
-3.18223e-06
137.888
-1.83391e-06
137.865
-8.6085e-07
137.842
-1.749e-07
137.817
2.96766e-07
137.792
6.18234e-07
137.765
8.3211e-07
137.737
9.72101e-07
137.709
1.06193e-06
137.679
1.11849e-06
137.648
1.15337e-06
137.616
1.17437e-06
137.583
1.18662e-06
137.549
1.19339e-06
137.514
1.19671e-06
137.478
1.19803e-06
137.441
1.1985e-06
137.404
1.19852e-06
137.366
1.19783e-06
137.327
1.19602e-06
137.287
1.19321e-06
137.247
1.18994e-06
137.206
1.18654e-06
137.165
1.18287e-06
137.123
1.17856e-06
137.08
1.1733e-06
137.037
1.1672e-06
136.993
1.16067e-06
136.949
1.15403e-06
136.903
1.14723e-06
136.857
1.14006e-06
136.81
1.13233e-06
136.763
1.12392e-06
136.714
1.11485e-06
136.664
1.10524e-06
136.614
1.09522e-06
136.562
1.08497e-06
136.509
1.07464e-06
136.455
1.06439e-06
136.4
1.05435e-06
136.343
1.04488e-06
136.286
1.03861e-06
136.228
1.02744e-06
136.168
1.01996e-06
136.108
1.01164e-06
136.047
1.00552e-06
135.985
1.00068e-06
135.922
9.96681e-07
135.86
9.93956e-07
135.796
9.92391e-07
135.733
9.91796e-07
135.67
9.92794e-07
135.607
9.94909e-07
135.545
9.98261e-07
135.483
1.00282e-06
135.422
1.00832e-06
135.362
1.01469e-06
135.303
1.02184e-06
135.246
1.02936e-06
135.189
1.0371e-06
135.134
1.04504e-06
135.08
1.05266e-06
135.027
1.06022e-06
134.976
1.06399e-06
134.926
1.07382e-06
134.877
1.07993e-06
134.83
1.08492e-06
134.783
1.08942e-06
134.738
1.09283e-06
134.694
1.09577e-06
134.65
1.09763e-06
134.608
1.09835e-06
134.565
1.09818e-06
134.523
1.09698e-06
134.482
1.09472e-06
134.44
1.09124e-06
134.398
1.08742e-06
134.357
1.08177e-06
134.314
1.07691e-06
134.272
1.07393e-06
134.228
1.06707e-06
134.185
1.05984e-06
134.14
1.05549e-06
134.096
1.05071e-06
134.05
1.04565e-06
134.004
1.04282e-06
133.958
1.0423e-06
133.912
1.0444e-06
133.865
1.04698e-06
133.818
1.04888e-06
133.771
1.05203e-06
133.725
1.05576e-06
133.678
1.06117e-06
133.632
1.06773e-06
133.586
1.07517e-06
133.54
1.08061e-06
133.495
1.08323e-06
133.45
1.11158e-06
133.406
1.11697e-06
133.362
1.12046e-06
133.319
1.12958e-06
133.276
1.13934e-06
133.234
1.14866e-06
133.192
1.15868e-06
133.15
1.1721e-06
133.109
1.16645e-06
133.069
1.17448e-06
133.029
1.18846e-06
132.989
1.19689e-06
132.95
1.2012e-06
132.911
1.20396e-06
132.872
1.20611e-06
132.833
1.20718e-06
132.794
1.20703e-06
132.755
1.20533e-06
132.716
1.20205e-06
132.676
1.19801e-06
132.637
1.19323e-06
132.597
1.18791e-06
132.558
1.18307e-06
132.518
1.17784e-06
132.479
1.17411e-06
132.441
1.16646e-06
132.403
1.17055e-06
132.366
1.15755e-06
132.33
1.17431e-06
132.295
1.14791e-06
132.262
1.18298e-06
132.231
1.14147e-06
132.202
1.19695e-06
132.175
1.13472e-06
132.15
1.20733e-06
132.127
1.13943e-06
132.106
1.20103e-06
132.086
1.13713e-06
132.068
1.20154e-06
132.051
1.13078e-06
132.036
1.20689e-06
132.022
1.106e-06
132.008
1.20582e-06
131.997
1.08478e-06
131.986
1.22178e-06
131.977
1.06842e-06
131.969
1.21684e-06
131.962
1.11303e-06
131.957
1.54743e-06
131.952
3.54273e-06
131.949
1.89814e-05
131.945
0.000127422
131.941
0.000901799
131.936
0.00643099
131.918
0.0460796
131.775
0.364022
1.55158
131.27
11.5681
-0.000327844
11.5668
-0.000235254
11.5657
-0.0002251
11.5644
-0.000227287
11.5632
-0.000227847
11.562
-0.000227798
11.5607
-0.0002279
11.5594
-0.000228051
11.558
-0.000228187
11.5566
-0.000228307
11.5552
-0.000228413
11.5536
-0.000228504
11.552
-0.000228583
11.5504
-0.00022865
11.5487
-0.000228702
11.5469
-0.000228731
11.5451
-0.000228718
11.5433
-0.000228632
11.5415
-0.000228418
11.5396
-0.000227997
11.5377
-0.000227249
11.5358
-0.000226022
11.5339
-0.000224131
11.532
-0.000221362
11.5301
-0.00021749
11.5281
-0.000212296
11.5262
-0.000205596
11.5243
-0.000197267
11.5225
-0.00018727
11.5206
-0.000175669
11.5188
-0.000162635
11.5171
-0.000148443
11.5153
-0.000133449
11.5136
-0.000118064
11.512
-0.000102718
11.5103
-8.78275e-05
11.5087
-7.37586e-05
11.5071
-6.08068e-05
11.5056
-4.9181e-05
11.504
-3.89987e-05
11.5024
-3.02919e-05
11.5008
-2.30181e-05
11.4992
-1.7079e-05
11.4976
-1.23365e-05
11.4959
-8.63154e-06
11.4942
-5.79726e-06
11.4925
-3.67232e-06
11.4906
-2.11061e-06
11.4888
-9.8505e-07
11.4868
-1.90628e-07
11.4848
3.57712e-07
11.4826
7.29649e-07
11.4804
9.76821e-07
11.4781
1.13816e-06
11.4757
1.24153e-06
11.4732
1.30653e-06
11.4706
1.34656e-06
11.468
1.37062e-06
11.4652
1.38464e-06
11.4624
1.39237e-06
11.4595
1.39611e-06
11.4565
1.39761e-06
11.4535
1.39811e-06
11.4503
1.3981e-06
11.4472
1.39733e-06
11.4439
1.39518e-06
11.4406
1.39188e-06
11.4373
1.38807e-06
11.4339
1.38412e-06
11.4304
1.37983e-06
11.4269
1.37481e-06
11.4234
1.36867e-06
11.4198
1.36154e-06
11.4161
1.35394e-06
11.4124
1.3462e-06
11.4086
1.33827e-06
11.4048
1.3299e-06
11.4009
1.32088e-06
11.3969
1.31107e-06
11.3928
1.30049e-06
11.3887
1.28927e-06
11.3845
1.27759e-06
11.3801
1.26563e-06
11.3757
1.25359e-06
11.3712
1.24163e-06
11.3666
1.22991e-06
11.3619
1.21869e-06
11.3572
1.21216e-06
11.3523
1.19786e-06
11.3474
1.18999e-06
11.3423
1.18017e-06
11.3372
1.17293e-06
11.3321
1.16739e-06
11.3269
1.1626e-06
11.3216
1.15947e-06
11.3164
1.15755e-06
11.3111
1.15696e-06
11.3058
1.15809e-06
11.3006
1.16056e-06
11.2954
1.16446e-06
11.2903
1.16976e-06
11.2852
1.17621e-06
11.2802
1.18359e-06
11.2753
1.192e-06
11.2705
1.20075e-06
11.2657
1.2098e-06
11.2611
1.21906e-06
11.2566
1.22794e-06
11.2522
1.2371e-06
11.248
1.24004e-06
11.2438
1.254e-06
11.2398
1.25922e-06
11.2358
1.26554e-06
11.2319
1.27083e-06
11.2282
1.27481e-06
11.2245
1.27829e-06
11.2209
1.28042e-06
11.2173
1.28121e-06
11.2138
1.28104e-06
11.2103
1.27965e-06
11.2068
1.27696e-06
11.2033
1.27304e-06
11.1999
1.26808e-06
11.1964
1.26218e-06
11.1929
1.25614e-06
11.1893
1.25304e-06
11.1857
1.24474e-06
11.1821
1.23608e-06
11.1784
1.23157e-06
11.1746
1.22545e-06
11.1709
1.21976e-06
11.167
1.21661e-06
11.1632
1.21567e-06
11.1593
1.21837e-06
11.1554
1.2214e-06
11.1515
1.22341e-06
11.1476
1.22723e-06
11.1437
1.23146e-06
11.1398
1.23787e-06
11.136
1.24546e-06
11.1321
1.25441e-06
11.1283
1.2607e-06
11.1246
1.26153e-06
11.1208
1.29901e-06
11.1172
1.30253e-06
11.1135
1.30653e-06
11.1099
1.31766e-06
11.1063
1.32904e-06
11.1028
1.33978e-06
11.0993
1.35136e-06
11.0959
1.36924e-06
11.0924
1.35738e-06
11.0891
1.37154e-06
11.0857
1.38645e-06
11.0824
1.39614e-06
11.0791
1.40121e-06
11.0759
1.40437e-06
11.0726
1.40688e-06
11.0694
1.40812e-06
11.0662
1.40797e-06
11.0629
1.40593e-06
11.0596
1.40221e-06
11.0564
1.39739e-06
11.0531
1.39185e-06
11.0498
1.3857e-06
11.0465
1.37998e-06
11.0432
1.37407e-06
11.0399
1.36899e-06
11.0367
1.36324e-06
11.0335
1.36193e-06
11.0305
1.35616e-06
11.0275
1.36045e-06
11.0246
1.35164e-06
11.0219
1.36366e-06
11.0193
1.35131e-06
11.0169
1.37106e-06
11.0146
1.35295e-06
11.0125
1.38019e-06
11.0106
1.35339e-06
11.0088
1.37357e-06
11.0072
1.35481e-06
11.0057
1.37527e-06
11.0043
1.3488e-06
11.003
1.36994e-06
11.0018
1.33318e-06
11.0007
1.36218e-06
10.9997
1.31879e-06
10.9988
1.361e-06
10.9981
1.30683e-06
10.9974
1.35435e-06
10.9968
1.31746e-06
10.9964
1.46206e-06
10.996
2.13651e-06
10.9957
7.37536e-06
10.9955
4.42103e-05
10.9958
0.000307625
10.9998
0.00220544
11.0291
0.0163896
11.2147
0.178007
0.672828
12.0929
5.78366
5.78281
5.78197
5.78112
5.78027
5.7794
5.77852
5.77761
5.77669
5.77574
5.77477
5.77376
5.77272
5.77165
5.77055
5.76943
5.76829
5.76713
5.76597
5.7648
5.76362
5.76242
5.76122
5.76002
5.75882
5.75763
5.75646
5.7553
5.75417
5.75307
5.75199
5.75095
5.74994
5.74897
5.74803
5.74712
5.74623
5.74537
5.74453
5.7437
5.74289
5.74207
5.74125
5.74042
5.73958
5.73872
5.73784
5.73693
5.73598
5.735
5.73398
5.73291
5.73181
5.73066
5.72946
5.72822
5.72693
5.7256
5.72423
5.72282
5.72136
5.71987
5.71835
5.71679
5.7152
5.71358
5.71193
5.71026
5.70856
5.70684
5.70509
5.70331
5.70151
5.69969
5.69783
5.69595
5.69403
5.69208
5.69009
5.68806
5.68599
5.68388
5.68172
5.67952
5.67727
5.67498
5.67263
5.67024
5.66781
5.66534
5.66283
5.66028
5.6577
5.6551
5.65248
5.64986
5.64723
5.6446
5.64198
5.63939
5.63682
5.63428
5.63178
5.62932
5.62692
5.62456
5.62225
5.62001
5.61781
5.61568
5.6136
5.61157
5.6096
5.60767
5.60579
5.60394
5.60213
5.60035
5.59859
5.59685
5.59512
5.59338
5.59165
5.5899
5.58814
5.58637
5.58457
5.58275
5.58091
5.57904
5.57715
5.57524
5.57332
5.57138
5.56944
5.56749
5.56554
5.56359
5.56165
5.55972
5.55781
5.55591
5.55403
5.55217
5.55033
5.5485
5.5467
5.54491
5.54315
5.54141
5.53968
5.53798
5.53629
5.53463
5.53298
5.53134
5.52971
5.52809
5.52647
5.52485
5.52323
5.5216
5.51996
5.51832
5.51667
5.51503
5.51339
5.51176
5.51014
5.50856
5.50702
5.50552
5.50409
5.50273
5.50144
5.50023
5.4991
5.49806
5.4971
5.49621
5.49539
5.49464
5.49394
5.4933
5.49271
5.49216
5.49167
5.49123
5.49084
5.49052
5.49024
5.49002
5.48984
5.48969
5.48959
5.48976
5.49181
5.50802
5.68582
6.35839
4.85042
0.120398
4.85785
-0.00750276
4.85492
0.00285854
4.86002
-0.00515311
4.87241
-0.012439
4.8799
-0.0074966
4.87738
0.00263817
4.9111
-0.0334448
5.05677
-0.145552
5.27887
-0.222352
5.45974
-0.181434
5.476
-0.0168704
5.39523
0.0804812
5.26084
0.134259
5.09385
0.16698
4.96272
0.131577
5.02438
-0.0599663
5.42219
-0.395779
6.11541
-0.691914
-1.16071
7.27606
10.1455
0.169404
10.1636
-0.025821
10.2103
-0.043898
10.2648
-0.0597918
10.3283
-0.0760157
10.3838
-0.0630116
10.4169
-0.0302787
10.5118
-0.127699
10.8168
-0.450365
11.2929
-0.699055
11.7273
-0.617075
11.8603
-0.150828
11.7932
0.147207
11.5862
0.341115
11.2461
0.507186
10.8636
0.515038
10.7249
0.0818265
11.1706
-0.837305
12.1142
-1.63358
-3.00497
13.9579
131.32
0.118272
131.388
-0.0953525
131.385
-0.0426644
131.224
0.0997092
130.92
0.226981
130.551
0.304575
130.16
0.360174
129.681
0.347341
128.848
0.382185
127.798
0.349408
126.831
0.349511
126.36
0.319867
126.218
0.287688
126.3
0.255427
126.58
0.22369
126.899
0.191589
126.816
0.157847
125.855
0.116952
124.17
0.0488503
-0.146991
121.312
12.038
0.173075
11.9477
-0.00508398
11.9097
-0.00479885
11.9837
0.0256444
12.1542
0.0563143
12.3793
0.079349
12.6413
0.0974063
12.8908
0.0982284
13.1644
0.107916
13.4131
0.101072
13.6634
0.0989731
13.8945
0.0886462
14.1062
0.0759386
14.299
0.0624559
14.4738
0.0489072
14.6304
0.0349
14.7701
0.0181433
14.896
-0.00891199
15.009
-0.0642676
-0.237035
15.099
6.53143
6.5263
6.52145
6.54705
6.6033
6.68255
6.77971
6.878
6.98572
7.08685
7.18577
7.27435
7.35024
7.41266
7.46155
7.49643
7.51457
7.50564
7.44135
7.20428
7.47692
-0.207529
7.26807
0.207898
7.40025
-0.130756
7.59032
-0.189686
7.65758
-0.067572
7.64993
0.00762995
7.63105
0.0190661
7.63337
-0.00217502
7.64607
-0.0127448
7.65156
-0.00559519
7.65013
0.00133137
7.64696
0.0030139
7.6441
0.00264539
7.64187
0.00197687
7.63967
0.00192107
7.63709
0.00229227
7.63412
0.00266429
7.63121
0.00258866
7.62999
0.000912051
7.63488
-0.00517135
7.643
-0.00845558
7.64773
-0.00510263
7.64788
-0.00052204
7.64563
0.00192069
7.6412
0.00410382
7.63537
0.00551487
7.6301
0.0049666
7.63368
-0.00383836
7.6562
-0.0227556
7.68195
-0.0261108
7.69344
-0.011871
7.68885
0.00419688
7.67567
0.0129493
7.655
0.0204894
7.62743
0.0274141
7.5927
0.0346088
7.55
0.0426254
7.49824
0.051755
7.43596
0.0623042
7.3614
0.074589
7.27234
0.088822
7.16589
0.104761
7.04199
0.120706
6.90304
0.137476
6.75145
0.151521
6.59145
0.160903
6.42973
0.16545
6.27123
0.161575
6.12188
0.151074
5.98752
0.135159
5.872
0.115932
5.77657
0.095588
5.70049
0.0760892
5.64178
0.0588417
5.59765
0.0443212
5.56519
0.0326578
5.54177
0.0236184
5.52513
0.0168085
5.51347
0.0117946
5.5054
0.00817219
5.49985
0.00559671
5.49606
0.00379101
5.49347
0.00254081
5.49168
0.00168527
5.49042
0.00110666
5.48951
0.000718987
5.4888
0.000462309
5.48821
0.000294142
5.48769
0.000185117
5.48721
0.000115195
5.48673
7.08383e-05
5.48626
4.30062e-05
5.48577
2.57349e-05
5.48528
1.51357e-05
5.48477
8.70313e-06
5.48426
4.84258e-06
5.48374
2.55099e-06
5.48322
1.20529e-06
5.4827
4.23266e-07
5.48218
-2.64336e-08
5.48167
-2.82838e-07
5.48117
-4.28565e-07
5.48069
-5.11005e-07
5.48022
-5.58099e-07
5.47977
-5.85587e-07
5.47934
-6.02282e-07
5.47893
-6.13087e-07
5.47854
-6.2067e-07
5.47818
-6.26447e-07
5.47784
-6.31111e-07
5.47752
-6.35033e-07
5.47723
-6.38443e-07
5.47695
-6.41483e-07
5.4767
-6.44215e-07
5.47646
-6.46653e-07
5.47623
-6.48757e-07
5.47602
-6.50498e-07
5.47581
-6.51851e-07
5.4756
-6.52819e-07
5.47539
-6.53405e-07
5.47517
-6.53636e-07
5.47494
-6.53503e-07
5.47469
-6.53006e-07
5.47441
-6.52106e-07
5.47411
-6.50747e-07
5.47377
-6.48937e-07
5.47339
-6.46785e-07
5.47297
-6.44412e-07
5.4725
-6.41889e-07
5.47199
-6.39257e-07
5.47142
-6.36521e-07
5.47079
-6.33683e-07
5.47011
-6.30755e-07
5.46938
-6.27781e-07
5.46859
-6.2473e-07
5.46775
-6.21654e-07
5.46686
-6.18609e-07
5.46593
-6.15801e-07
5.46495
-6.13423e-07
5.46394
-6.11515e-07
5.46289
-6.10067e-07
5.46182
-6.09089e-07
5.46073
-6.08616e-07
5.45963
-6.08681e-07
5.45852
-6.09314e-07
5.45742
-6.10506e-07
5.45633
-6.12201e-07
5.45525
-6.14315e-07
5.45419
-6.16748e-07
5.45315
-6.19431e-07
5.45215
-6.22307e-07
5.45118
-6.25354e-07
5.45025
-6.28515e-07
5.44935
-6.31715e-07
5.4485
-6.34833e-07
5.4477
-6.378e-07
5.44693
-6.40563e-07
5.44622
-6.43109e-07
5.44554
-6.45559e-07
5.44491
-6.47511e-07
5.44432
-6.48946e-07
5.44376
-6.49703e-07
5.44325
-6.50125e-07
5.44276
-6.50454e-07
5.44231
-6.50563e-07
5.44188
-6.50291e-07
5.44148
-6.49537e-07
5.44109
-6.48291e-07
5.44071
-6.46536e-07
5.44033
-6.44257e-07
5.43995
-6.41428e-07
5.43957
-6.38018e-07
5.43917
-6.34007e-07
5.43874
-6.2939e-07
5.43829
-6.24179e-07
5.4378
-6.18398e-07
5.43726
-6.12126e-07
5.43667
-6.05347e-07
5.43603
-5.98215e-07
5.43532
-5.90851e-07
5.43455
-5.83441e-07
5.43371
-5.75996e-07
5.4328
-5.68816e-07
5.43182
-5.62723e-07
5.43077
-5.5545e-07
5.42966
-5.49526e-07
5.42848
-5.44092e-07
5.42724
-5.40498e-07
5.42596
-5.37697e-07
5.42463
-5.36162e-07
5.42326
-5.35643e-07
5.42187
-5.36467e-07
5.42046
-5.38304e-07
5.41905
-5.41815e-07
5.41764
-5.46002e-07
5.41624
-5.5181e-07
5.41486
-5.58204e-07
5.41351
-5.65093e-07
5.4122
-5.7234e-07
5.41094
-5.80972e-07
5.40971
-5.87788e-07
5.40853
-5.94502e-07
5.40741
-6.00654e-07
5.40633
-6.06298e-07
5.4053
-6.09991e-07
5.40432
-6.13438e-07
5.40338
-6.15124e-07
5.40249
-6.23839e-07
5.40165
-6.15113e-07
5.40085
-6.65988e-07
5.40011
-8.21541e-07
5.39941
-1.74486e-06
5.39878
-6.38091e-06
5.39822
-3.0376e-05
5.39784
-0.000153941
5.39815
-0.000792307
5.40185
-0.00412618
5.42373
-0.0222473
5.58652
-0.163105
-0.63309
6.21935
14.7254
-0.988689
14.2283
0.703312
14.2537
-0.153536
14.5364
-0.471684
14.6882
-0.219826
14.6889
0.00681207
14.6413
0.0669462
14.631
0.00841976
14.6514
-0.0332072
14.6673
-0.0217304
14.6693
-0.000795979
14.6648
0.00721948
14.6593
0.00768283
14.6542
0.00651811
14.6484
0.00717095
14.6406
0.00950612
14.6303
0.0123762
14.6179
0.0143985
14.6061
0.0120303
14.6061
-0.00581431
14.617
-0.0199909
14.6257
-0.0145413
14.6251
-0.000637961
14.6162
0.0101114
14.5986
0.0211277
14.5724
0.0309962
14.5405
0.0362773
14.5201
0.0159621
14.5423
-0.0455106
14.591
-0.0754953
14.6291
-0.0507242
14.6386
-0.00599415
14.6258
0.0252839
14.593
0.0529346
14.5422
0.0779287
14.4738
0.102795
14.3874
0.128957
14.282
0.157056
14.1567
0.187744
14.0096
0.221652
13.8387
0.259011
13.6422
0.298272
13.4225
0.338226
13.1836
0.375827
12.9303
0.405451
12.6703
0.422797
12.4138
0.426367
12.1678
0.410839
11.9409
0.380065
11.7396
0.337583
11.5681
0.288333
11.4268
0.237504
11.3141
0.189321
11.2267
0.146777
11.1606
0.110997
11.1116
0.0821635
11.0759
0.0597039
11.0504
0.0426832
11.0324
0.030074
11.0198
0.0209102
11.0112
0.01436
11.0052
0.00974653
11.0011
0.00654055
10.9983
0.00434123
10.9962
0.00285028
10.9947
0.00185088
10.9935
0.00118898
10.9924
0.000755581
10.9915
0.000474922
10.9906
0.000295226
10.9896
0.000181467
10.9887
0.000110259
10.9877
6.61869e-05
10.9868
3.92172e-05
10.9858
2.28985e-05
10.9847
1.31352e-05
10.9837
7.35884e-06
10.9826
3.97889e-06
10.9816
2.02301e-06
10.9806
9.03593e-07
10.9795
2.69335e-07
10.9785
-8.81453e-08
10.9776
-2.87127e-07
10.9766
-3.97671e-07
10.9757
-4.59224e-07
10.9749
-4.93883e-07
10.974
-5.13928e-07
10.9733
-5.26089e-07
10.9725
-5.33978e-07
10.9719
-5.39487e-07
10.9712
-5.43622e-07
10.9706
-5.46932e-07
10.9701
-5.49729e-07
10.9696
-5.5217e-07
10.9691
-5.54307e-07
10.9686
-5.56132e-07
10.9682
-5.57631e-07
10.9678
-5.58794e-07
10.9674
-5.59615e-07
10.967
-5.60101e-07
10.9665
-5.60284e-07
10.966
-5.60173e-07
10.9655
-5.59748e-07
10.965
-5.58983e-07
10.9644
-5.57829e-07
10.9637
-5.5629e-07
10.9629
-5.54451e-07
10.9621
-5.52415e-07
10.9612
-5.50255e-07
10.9601
-5.48004e-07
10.959
-5.45666e-07
10.9577
-5.43243e-07
10.9564
-5.40736e-07
10.9549
-5.38179e-07
10.9533
-5.35575e-07
10.9517
-5.32941e-07
10.9499
-5.30349e-07
10.948
-5.27942e-07
10.946
-5.25891e-07
10.944
-5.24252e-07
10.9419
-5.23013e-07
10.9398
-5.22169e-07
10.9376
-5.21755e-07
10.9354
-5.21805e-07
10.9332
-5.2234e-07
10.931
-5.23355e-07
10.9288
-5.24804e-07
10.9266
-5.26616e-07
10.9245
-5.28707e-07
10.9224
-5.31016e-07
10.9204
-5.3349e-07
10.9185
-5.36105e-07
10.9166
-5.38817e-07
10.9148
-5.41557e-07
10.9131
-5.44234e-07
10.9115
-5.46784e-07
10.91
-5.49161e-07
10.9085
-5.5135e-07
10.9072
-5.53415e-07
10.9059
-5.55149e-07
10.9047
-5.56327e-07
10.9036
-5.57008e-07
10.9026
-5.57384e-07
10.9016
-5.57652e-07
10.9007
-5.57744e-07
10.8999
-5.57503e-07
10.899
-5.56854e-07
10.8983
-5.55765e-07
10.8975
-5.54247e-07
10.8968
-5.52283e-07
10.896
-5.49853e-07
10.8952
-5.46925e-07
10.8944
-5.43487e-07
10.8936
-5.39527e-07
10.8927
-5.35065e-07
10.8917
-5.30117e-07
10.8906
-5.24738e-07
10.8894
-5.18936e-07
10.8881
-5.12837e-07
10.8867
-5.06522e-07
10.8852
-5.00214e-07
10.8835
-4.93789e-07
10.8817
-4.87715e-07
10.8797
-4.82479e-07
10.8776
-4.7616e-07
10.8754
-4.71317e-07
10.873
-4.66287e-07
10.8705
-4.63756e-07
10.868
-4.60853e-07
10.8653
-4.59577e-07
10.8626
-4.59275e-07
10.8598
-4.6005e-07
10.857
-4.61384e-07
10.8541
-4.64827e-07
10.8513
-4.67805e-07
10.8485
-4.73306e-07
10.8458
-4.7864e-07
10.8431
-4.84079e-07
10.8405
-4.89766e-07
10.8379
-4.99326e-07
10.8355
-5.03936e-07
10.8331
-5.09388e-07
10.8309
-5.1463e-07
10.8287
-5.20432e-07
10.8266
-5.22409e-07
10.8247
-5.2615e-07
10.8228
-5.26452e-07
10.821
-5.43765e-07
10.8193
-5.27041e-07
10.8177
-6.80584e-07
10.8162
-1.13741e-06
10.8149
-3.8577e-06
10.8136
-1.75149e-05
10.8125
-8.81812e-05
10.8117
-0.00045196
10.8123
-0.00232811
10.8193
-0.0120344
10.859
-0.062656
11.0462
-0.350959
-1.44674
11.8593
120.31
0.0334707
121.003
0.0190379
120.776
0.0781468
120.246
0.0610573
120.014
0.0169295
120.031
-0.00601105
120.102
-0.00160447
120.109
0.00300115
120.073
0.00271179
120.048
0.00118344
120.044
0.000741233
120.046
0.0008594
120.048
0.000913862
120.048
0.000800634
120.047
0.000661439
120.049
0.000639349
120.052
0.00081408
120.058
0.00120992
120.06
0.00163059
120.044
0.00171336
120.015
0.000794287
119.994
-0.00122726
119.987
-0.00276852
119.992
-0.0029833
120.008
-0.00247305
120.032
-0.00143989
120.061
-0.00096127
120.074
-0.00420722
120.039
-0.017714
119.999
-0.0389645
120.015
-0.0626896
120.101
-0.0875241
120.245
-0.11641
120.45
-0.151191
120.721
-0.192562
121.062
-0.239322
121.479
-0.288602
121.973
-0.336077
122.538
-0.37685
123.168
-0.406397
123.852
-0.421279
124.577
-0.42235
125.331
-0.410149
126.102
-0.386866
126.872
-0.35537
127.623
-0.318884
128.337
-0.278638
128.994
-0.237622
129.581
-0.198031
130.089
-0.161492
130.515
-0.129128
130.863
-0.101352
131.138
-0.0781255
131.352
-0.0591972
131.515
-0.0441312
131.636
-0.0323751
131.724
-0.0233752
131.788
-0.0166136
131.834
-0.0116249
131.865
-0.00800917
131.886
-0.00543388
131.9
-0.00363069
131.908
-0.00238994
131.911
-0.00154921
131.911
-0.000989309
131.909
-0.000622328
131.905
-0.00038553
131.899
-0.000235249
131.891
-0.000141311
131.883
-8.35177e-05
131.873
-4.85205e-05
131.863
-2.766e-05
131.852
-1.54225e-05
131.841
-8.35809e-06
131.829
-4.34594e-06
131.817
-2.10457e-06
131.804
-8.73062e-07
131.792
-2.09072e-07
131.779
1.44821e-07
131.767
3.29423e-07
131.755
4.2481e-07
131.743
4.73757e-07
131.731
4.99256e-07
131.72
5.13142e-07
131.709
5.21402e-07
131.698
5.27011e-07
131.689
5.31393e-07
131.679
5.35196e-07
131.671
5.38677e-07
131.662
5.41888e-07
131.655
5.44837e-07
131.648
5.4754e-07
131.641
5.50034e-07
131.635
5.52319e-07
131.629
5.54376e-07
131.624
5.56165e-07
131.619
5.57648e-07
131.614
5.588e-07