/*--------------------------------*- C++ -*----------------------------------*\
| =========                 |                                                 |
| \\      /  F ield         | OpenFOAM: The Open Source CFD Toolbox           |
|  \\    /   O peration     | Version:  3.0.x                                 |
|   \\  /    A nd           | Web:      www.OpenFOAM.org                      |
|    \\/     M anipulation  |                                                 |
\*---------------------------------------------------------------------------*/
FoamFile
{
    version     2.0;
    format      ascii;
    class       volScalarField;
    location    "0.2";
    object      T;
}
// * * * * * * * * * * * * * * * * * * * * * * * * * * * * * * * * * * * * * //

dimensions      [0 0 0 1 0 0 0];

internalField   nonuniform List<scalar> 
6900
(
774.089
774.088
774.086
774.083
774.079
774.075
774.072
774.068
774.063
774.059
774.055
774.051
774.049
774.047
774.045
774.043
774.042
774.04
774.036
774.031
774.027
774.022
774.019
774.016
774.013
774.011
774.009
774.008
774.006
774.005
774.003
774.002
774
773.999
773.997
773.996
773.994
773.993
773.991
773.99
773.988
773.987
773.985
773.984
773.982
773.98
773.979
773.977
773.976
773.974
773.973
773.971
773.969
773.968
773.966
773.964
773.963
773.961
773.96
773.958
773.956
773.955
773.953
773.951
773.95
773.948
773.946
773.945
773.943
773.941
773.94
773.938
773.937
773.935
773.934
773.933
773.931
773.93
773.929
773.928
773.927
773.927
773.926
773.925
773.925
773.925
773.925
773.925
773.925
773.925
773.925
773.926
773.926
773.926
773.927
773.928
773.928
773.929
773.93
773.93
773.931
773.931
773.932
773.932
773.933
773.933
773.933
773.933
773.933
773.933
773.933
773.933
773.933
773.933
773.932
773.932
773.932
773.931
773.931
773.931
773.93
773.93
773.93
773.93
773.93
773.93
773.93
773.93
773.93
773.93
773.931
773.931
773.931
773.932
773.932
773.932
773.933
773.933
773.933
773.934
773.934
773.934
773.934
773.934
773.933
773.933
773.932
773.932
773.931
773.93
773.929
773.928
773.927
773.926
773.925
773.923
773.922
773.92
773.919
773.917
773.916
773.914
773.913
773.911
773.91
773.909
773.907
773.906
773.905
773.903
773.902
773.901
773.9
773.899
773.897
773.896
773.895
773.893
773.892
773.89
773.889
773.888
773.886
773.885
773.883
773.882
773.881
773.88
773.878
773.877
773.876
773.875
773.873
773.873
773.871
773.871
773.87
773.87
773.87
773.933
774.087
774.086
774.084
774.081
774.078
774.074
774.07
774.066
774.062
774.057
774.053
774.05
774.047
774.045
774.044
774.042
774.041
774.038
774.035
774.03
774.026
774.021
774.018
774.015
774.012
774.01
774.008
774.007
774.005
774.004
774.002
774.001
773.999
773.998
773.996
773.995
773.993
773.992
773.99
773.989
773.987
773.986
773.984
773.983
773.981
773.98
773.978
773.976
773.975
773.973
773.972
773.97
773.968
773.967
773.965
773.964
773.962
773.96
773.959
773.957
773.955
773.954
773.952
773.95
773.949
773.947
773.945
773.944
773.942
773.94
773.939
773.937
773.936
773.934
773.933
773.932
773.93
773.929
773.928
773.927
773.926
773.926
773.925
773.925
773.924
773.924
773.924
773.924
773.924
773.924
773.924
773.925
773.925
773.926
773.926
773.927
773.927
773.928
773.929
773.929
773.93
773.93
773.931
773.931
773.932
773.932
773.932
773.932
773.932
773.932
773.932
773.932
773.932
773.932
773.931
773.931
773.931
773.93
773.93
773.93
773.929
773.929
773.929
773.929
773.929
773.929
773.929
773.929
773.929
773.929
773.93
773.93
773.93
773.931
773.931
773.932
773.932
773.932
773.933
773.933
773.933
773.933
773.933
773.933
773.932
773.932
773.932
773.931
773.93
773.929
773.929
773.928
773.926
773.925
773.924
773.922
773.921
773.92
773.918
773.916
773.915
773.913
773.912
773.91
773.909
773.908
773.906
773.905
773.904
773.903
773.901
773.9
773.899
773.898
773.896
773.895
773.894
773.892
773.891
773.89
773.888
773.887
773.885
773.884
773.882
773.881
773.88
773.879
773.877
773.876
773.875
773.874
773.873
773.872
773.87
773.87
773.869
773.869
773.869
773.927
774.087
774.086
774.084
774.081
774.078
774.074
774.07
774.066
774.062
774.057
774.053
774.05
774.047
774.045
774.044
774.042
774.041
774.038
774.035
774.03
774.026
774.021
774.018
774.015
774.012
774.01
774.008
774.007
774.005
774.004
774.002
774.001
773.999
773.998
773.996
773.995
773.993
773.992
773.99
773.989
773.987
773.986
773.984
773.983
773.981
773.98
773.978
773.976
773.975
773.973
773.972
773.97
773.968
773.967
773.965
773.964
773.962
773.96
773.959
773.957
773.955
773.954
773.952
773.95
773.949
773.947
773.945
773.944
773.942
773.94
773.939
773.937
773.936
773.934
773.933
773.932
773.93
773.929
773.928
773.927
773.926
773.926
773.925
773.925
773.924
773.924
773.924
773.924
773.924
773.924
773.924
773.925
773.925
773.926
773.926
773.927
773.927
773.928
773.929
773.929
773.93
773.93
773.931
773.931
773.932
773.932
773.932
773.932
773.932
773.932
773.932
773.932
773.932
773.932
773.931
773.931
773.931
773.93
773.93
773.93
773.929
773.929
773.929
773.929
773.929
773.929
773.929
773.929
773.929
773.929
773.93
773.93
773.93
773.931
773.931
773.932
773.932
773.932
773.933
773.933
773.933
773.933
773.933
773.933
773.932
773.932
773.932
773.931
773.93
773.929
773.929
773.928
773.926
773.925
773.924
773.922
773.921
773.92
773.918
773.916
773.915
773.913
773.912
773.91
773.909
773.908
773.906
773.905
773.904
773.903
773.901
773.9
773.899
773.898
773.896
773.895
773.894
773.892
773.891
773.89
773.888
773.887
773.885
773.884
773.882
773.881
773.88
773.879
773.877
773.876
773.875
773.874
773.873
773.872
773.87
773.87
773.869
773.868
773.867
773.87
774.087
774.086
774.084
774.081
774.078
774.074
774.07
774.066
774.062
774.057
774.053
774.05
774.047
774.045
774.044
774.042
774.041
774.038
774.035
774.03
774.026
774.021
774.018
774.015
774.012
774.01
774.008
774.007
774.005
774.004
774.002
774.001
773.999
773.998
773.996
773.995
773.993
773.992
773.99
773.989
773.987
773.986
773.984
773.983
773.981
773.98
773.978
773.976
773.975
773.973
773.972
773.97
773.968
773.967
773.965
773.964
773.962
773.96
773.959
773.957
773.955
773.954
773.952
773.95
773.949
773.947
773.945
773.944
773.942
773.94
773.939
773.937
773.936
773.934
773.933
773.932
773.93
773.929
773.928
773.927
773.926
773.926
773.925
773.925
773.924
773.924
773.924
773.924
773.924
773.924
773.924
773.925
773.925
773.926
773.926
773.927
773.927
773.928
773.929
773.929
773.93
773.93
773.931
773.931
773.932
773.932
773.932
773.932
773.932
773.932
773.932
773.932
773.932
773.932
773.931
773.931
773.931
773.93
773.93
773.93
773.929
773.929
773.929
773.929
773.929
773.929
773.929
773.929
773.929
773.929
773.93
773.93
773.93
773.931
773.931
773.932
773.932
773.932
773.933
773.933
773.933
773.933
773.933
773.933
773.932
773.932
773.932
773.931
773.93
773.929
773.929
773.928
773.926
773.925
773.924
773.922
773.921
773.92
773.918
773.916
773.915
773.913
773.912
773.91
773.909
773.908
773.906
773.905
773.904
773.902
773.901
773.9
773.899
773.898
773.896
773.895
773.894
773.892
773.891
773.89
773.888
773.887
773.885
773.884
773.883
773.881
773.88
773.879
773.877
773.876
773.875
773.874
773.873
773.872
773.871
773.869
773.869
773.866
773.87
773.755
774.089
774.088
774.086
774.083
774.079
774.075
774.072
774.068
774.063
774.059
774.055
774.051
774.049
774.047
774.045
774.043
774.042
774.04
774.036
774.031
774.027
774.022
774.019
774.016
774.013
774.011
774.009
774.008
774.006
774.005
774.003
774.002
774
773.999
773.997
773.996
773.994
773.993
773.991
773.99
773.988
773.987
773.985
773.984
773.982
773.98
773.979
773.977
773.976
773.974
773.973
773.971
773.969
773.968
773.966
773.964
773.963
773.961
773.96
773.958
773.956
773.955
773.953
773.951
773.95
773.948
773.946
773.945
773.943
773.941
773.94
773.938
773.937
773.935
773.934
773.933
773.931
773.93
773.929
773.928
773.927
773.927
773.926
773.925
773.925
773.925
773.925
773.925
773.925
773.925
773.925
773.926
773.926
773.926
773.927
773.928
773.928
773.929
773.93
773.93
773.931
773.931
773.932
773.932
773.933
773.933
773.933
773.933
773.933
773.933
773.933
773.933
773.933
773.933
773.932
773.932
773.932
773.931
773.931
773.931
773.93
773.93
773.93
773.93
773.93
773.93
773.93
773.93
773.93
773.93
773.931
773.931
773.931
773.932
773.932
773.932
773.933
773.933
773.933
773.934
773.934
773.934
773.934
773.934
773.933
773.933
773.932
773.932
773.931
773.93
773.929
773.928
773.927
773.926
773.925
773.923
773.922
773.92
773.919
773.917
773.916
773.914
773.913
773.911
773.91
773.909
773.907
773.906
773.905
773.903
773.902
773.901
773.9
773.899
773.897
773.896
773.895
773.893
773.892
773.89
773.889
773.888
773.886
773.885
773.883
773.882
773.881
773.879
773.878
773.877
773.876
773.875
773.874
773.872
773.872
773.87
773.87
773.866
773.878
773.674
773.919
773.931
773.93
773.929
773.927
773.927
773.927
773.924
773.915
773.906
773.891
773.866
773.855
773.859
773.869
773.881
773.864
773.829
773.756
773.703
773.907
773.91
773.908
773.905
773.9
773.897
773.896
773.89
773.878
773.869
773.856
773.826
773.804
773.807
773.82
773.832
773.822
773.757
773.7
773.661
773.87
773.87
773.867
773.863
773.857
773.851
773.843
773.838
773.831
773.825
773.818
773.809
773.8
773.793
773.787
773.78
773.778
773.786
773.791
773.79
773.804
773.806
773.811
773.809
773.803
773.79
773.777
773.755
773.742
773.721
773.704
773.688
773.669
773.658
773.647
773.634
773.62
773.613
773.601
773.592
773.755
773.736
773.733
773.734
773.733
773.729
773.718
773.704
773.691
773.678
773.662
773.652
773.636
773.629
773.615
773.61
773.6
773.598
773.603
773.627
773.552
773.58
773.571
773.572
773.587
773.57
773.555
773.554
773.561
773.563
773.56
773.557
773.557
773.558
773.558
773.557
773.557
773.557
773.556
773.555
773.555
773.557
773.558
773.559
773.559
773.559
773.558
773.556
773.555
773.557
773.56
773.562
773.563
773.563
773.564
773.566
773.57
773.572
773.575
773.58
773.602
773.713
774.059
774.355
774.449
774.422
774.188
773.771
773.528
773.432
773.415
773.427
773.468
773.5
773.519
773.529
773.535
773.539
773.541
773.542
773.543
773.543
773.543
773.543
773.543
773.543
773.543
773.543
773.542
773.542
773.542
773.542
773.542
773.541
773.541
773.541
773.54
773.54
773.54
773.539
773.539
773.538
773.538
773.537
773.537
773.536
773.535
773.535
773.534
773.533
773.532
773.531
773.53
773.529
773.528
773.527
773.526
773.525
773.524
773.523
773.521
773.52
773.519
773.518
773.517
773.515
773.514
773.513
773.512
773.511
773.509
773.508
773.507
773.506
773.505
773.504
773.503
773.502
773.501
773.5
773.499
773.498
773.497
773.496
773.495
773.494
773.493
773.491
773.49
773.489
773.488
773.487
773.485
773.484
773.482
773.481
773.48
773.478
773.476
773.475
773.473
773.471
773.47
773.468
773.466
773.465
773.463
773.461
773.459
773.458
773.456
773.454
773.452
773.451
773.449
773.447
773.446
773.444
773.443
773.441
773.44
773.439
773.437
773.436
773.435
773.434
773.433
773.432
773.431
773.43
773.429
773.428
773.427
773.426
773.425
773.424
773.422
773.421
773.42
773.418
773.417
773.415
773.413
773.411
773.409
773.407
773.405
773.403
773.401
773.399
773.397
773.395
773.393
773.391
773.389
773.386
773.385
773.378
773.382
773.214
773.55
773.583
773.577
773.587
773.602
773.584
773.571
773.572
773.579
773.581
773.577
773.574
773.574
773.574
773.574
773.574
773.574
773.574
773.574
773.575
773.577
773.578
773.579
773.58
773.58
773.58
773.58
773.581
773.585
773.59
773.592
773.59
773.589
773.589
773.589
773.591
773.593
773.595
773.597
773.603
773.633
773.757
773.961
774.073
774.095
774.062
773.897
773.695
773.58
773.529
773.513
773.512
773.517
773.526
773.532
773.535
773.538
773.54
773.541
773.542
773.542
773.542
773.542
773.542
773.542
773.542
773.542
773.542
773.542
773.541
773.541
773.541
773.541
773.54
773.54
773.54
773.54
773.539
773.539
773.538
773.538
773.538
773.537
773.537
773.536
773.535
773.535
773.534
773.533
773.532
773.531
773.53
773.529
773.528
773.527
773.526
773.525
773.524
773.523
773.522
773.521
773.519
773.518
773.517
773.516
773.515
773.513
773.512
773.511
773.51
773.509
773.507
773.506
773.505
773.504
773.503
773.502
773.501
773.5
773.499
773.498
773.497
773.496
773.495
773.494
773.493
773.492
773.49
773.489
773.488
773.487
773.486
773.484
773.483
773.482
773.48
773.479
773.477
773.476
773.474
773.472
773.471
773.469
773.467
773.466
773.464
773.462
773.46
773.458
773.457
773.455
773.453
773.451
773.45
773.448
773.446
773.445
773.443
773.442
773.44
773.439
773.438
773.436
773.435
773.434
773.433
773.432
773.431
773.43
773.429
773.428
773.427
773.426
773.425
773.424
773.423
773.422
773.42
773.419
773.417
773.416
773.414
773.412
773.41
773.408
773.406
773.404
773.402
773.4
773.398
773.396
773.394
773.392
773.39
773.388
773.386
773.384
773.379
773.377
773.281
773.759
773.783
773.815
773.82
773.818
773.817
773.819
773.82
773.82
773.818
773.817
773.817
773.817
773.817
773.818
773.82
773.823
773.825
773.827
773.828
773.83
773.831
773.834
773.837
773.84
773.843
773.845
773.846
773.844
773.833
773.789
773.721
773.665
773.623
773.596
773.58
773.573
773.57
773.57
773.572
773.576
773.578
773.578
773.575
773.566
773.557
773.551
773.547
773.546
773.546
773.546
773.546
773.546
773.546
773.546
773.545
773.545
773.544
773.544
773.544
773.544
773.543
773.543
773.543
773.543
773.542
773.542
773.542
773.542
773.541
773.541
773.541
773.541
773.54
773.54
773.54
773.54
773.539
773.539
773.538
773.538
773.538
773.537
773.537
773.536
773.535
773.535
773.534
773.533
773.532
773.531
773.53
773.529
773.528
773.527
773.526
773.525
773.524
773.523
773.522
773.521
773.519
773.518
773.517
773.516
773.515
773.513
773.512
773.511
773.51
773.509
773.507
773.506
773.505
773.504
773.503
773.502
773.501
773.5
773.499
773.498
773.497
773.496
773.495
773.494
773.493
773.492
773.49
773.489
773.488
773.487
773.486
773.484
773.483
773.482
773.48
773.479
773.477
773.476
773.474
773.472
773.471
773.469
773.467
773.466
773.464
773.462
773.46
773.458
773.457
773.455
773.453
773.451
773.45
773.448
773.446
773.445
773.443
773.442
773.44
773.439
773.438
773.436
773.435
773.434
773.433
773.432
773.431
773.43
773.429
773.428
773.427
773.426
773.425
773.424
773.423
773.422
773.42
773.419
773.417
773.416
773.414
773.412
773.41
773.408
773.406
773.404
773.402
773.4
773.398
773.396
773.394
773.392
773.39
773.388
773.386
773.384
773.382
773.379
773.38
773.576
773.571
773.571
773.573
773.57
773.566
773.566
773.568
773.569
773.569
773.568
773.567
773.567
773.567
773.566
773.565
773.564
773.563
773.563
773.562
773.562
773.562
773.562
773.561
773.561
773.561
773.561
773.561
773.564
773.567
773.569
773.572
773.575
773.578
773.583
773.595
773.609
773.619
773.625
773.635
773.665
773.72
773.755
773.764
773.76
773.728
773.649
773.587
773.551
773.534
773.528
773.528
773.529
773.533
773.536
773.538
773.54
773.541
773.542
773.542
773.543
773.543
773.543
773.543
773.542
773.542
773.542
773.542
773.542
773.541
773.541
773.541
773.541
773.54
773.54
773.54
773.54
773.539
773.539
773.538
773.538
773.538
773.537
773.537
773.536
773.535
773.535
773.534
773.533
773.532
773.531
773.53
773.529
773.528
773.527
773.526
773.525
773.524
773.523
773.522
773.521
773.519
773.518
773.517
773.516
773.515
773.513
773.512
773.511
773.51
773.509
773.507
773.506
773.505
773.504
773.503
773.502
773.501
773.5
773.499
773.498
773.497
773.496
773.495
773.494
773.493
773.492
773.49
773.489
773.488
773.487
773.486
773.484
773.483
773.482
773.48
773.479
773.477
773.476
773.474
773.472
773.471
773.469
773.467
773.466
773.464
773.462
773.46
773.458
773.457
773.455
773.453
773.451
773.45
773.448
773.446
773.445
773.443
773.442
773.44
773.439
773.438
773.436
773.435
773.434
773.433
773.432
773.431
773.43
773.429
773.428
773.427
773.426
773.425
773.424
773.423
773.422
773.42
773.419
773.417
773.416
773.414
773.412
773.41
773.408
773.406
773.404
773.402
773.4
773.398
773.396
773.394
773.392
773.39
773.388
773.386
773.383
773.383
773.383
773.428
773.686
773.689
773.686
773.688
773.686
773.683
773.683
773.684
773.685
773.685
773.684
773.684
773.683
773.683
773.681
773.68
773.679
773.678
773.677
773.677
773.676
773.676
773.676
773.675
773.676
773.676
773.677
773.68
773.683
773.685
773.686
773.687
773.692
773.702
773.71
773.712
773.71
773.709
773.712
773.748
773.915
774.149
774.272
774.302
774.285
774.169
773.966
773.812
773.708
773.64
773.599
773.575
773.561
773.553
773.549
773.547
773.546
773.545
773.545
773.545
773.544
773.544
773.544
773.544
773.543
773.543
773.543
773.543
773.543
773.542
773.542
773.542
773.542
773.541
773.541
773.541
773.54
773.54
773.54
773.539
773.539
773.538
773.538
773.537
773.537
773.536
773.535
773.535
773.534
773.533
773.532
773.531
773.53
773.529
773.528
773.527
773.526
773.525
773.524
773.523
773.521
773.52
773.519
773.518
773.517
773.515
773.514
773.513
773.512
773.511
773.509
773.508
773.507
773.506
773.505
773.504
773.503
773.502
773.501
773.5
773.499
773.498
773.497
773.496
773.495
773.494
773.493
773.491
773.49
773.489
773.488
773.487
773.485
773.484
773.482
773.481
773.48
773.478
773.476
773.475
773.473
773.471
773.47
773.468
773.466
773.465
773.463
773.461
773.459
773.458
773.456
773.454
773.452
773.451
773.449
773.447
773.446
773.444
773.443
773.441
773.44
773.439
773.437
773.436
773.435
773.434
773.433
773.432
773.431
773.43
773.429
773.428
773.427
773.426
773.425
773.424
773.422
773.421
773.42
773.418
773.416
773.415
773.413
773.411
773.409
773.407
773.405
773.403
773.401
773.399
773.397
773.395
773.393
773.391
773.389
773.387
773.384
773.384
773.384
773.433
773.272
773.253
773.247
773.248
773.246
773.241
773.227
773.218
773.2
773.191
773.174
773.162
773.147
773.138
773.125
773.119
773.109
773.11
773.116
773.146
773.317
773.317
773.321
773.319
773.313
773.299
773.281
773.268
773.247
773.233
773.213
773.198
773.186
773.167
773.152
773.142
773.13
773.121
773.113
773.11
773.38
773.378
773.375
773.37
773.364
773.358
773.351
773.344
773.337
773.329
773.32
773.311
773.305
773.297
773.293
773.297
773.3
773.299
773.281
773.262
773.415
773.417
773.416
773.413
773.409
773.406
773.4
773.39
773.381
773.367
773.346
773.342
773.351
773.366
773.356
773.298
773.263
773.257
773.239
773.204
773.426
773.438
773.437
773.436
773.435
773.434
773.43
773.424
773.415
773.402
773.388
773.388
773.396
773.408
773.394
773.354
773.323
773.306
773.269
773.223
773.201
773.2
773.199
773.196
773.187
773.186
773.186
773.186
773.185
773.183
773.182
773.182
773.181
773.181
773.18
773.179
773.179
773.178
773.178
773.178
773.178
773.177
773.177
773.177
773.177
773.178
773.18
773.183
773.184
773.185
773.185
773.186
773.188
773.196
773.205
773.21
773.21
773.208
773.206
773.211
773.26
773.455
773.675
773.781
773.801
773.775
773.64
773.443
773.298
773.2
773.138
773.099
773.076
773.063
773.056
773.052
773.05
773.049
773.048
773.048
773.048
773.048
773.048
773.048
773.048
773.048
773.049
773.049
773.049
773.05
773.05
773.05
773.051
773.051
773.051
773.052
773.052
773.052
773.052
773.052
773.052
773.052
773.051
773.051
773.051
773.051
773.05
773.05
773.05
773.049
773.049
773.049
773.048
773.048
773.048
773.047
773.047
773.042
773.047
772.884
773.09
773.086
773.086
773.081
773.073
773.072
773.073
773.074
773.073
773.07
773.069
773.069
773.069
773.069
773.068
773.067
773.067
773.067
773.067
773.067
773.066
773.066
773.066
773.065
773.065
773.065
773.065
773.066
773.069
773.071
773.072
773.073
773.076
773.079
773.082
773.088
773.102
773.114
773.121
773.126
773.137
773.171
773.224
773.255
773.261
773.255
773.218
773.141
773.084
773.052
773.037
773.032
773.031
773.032
773.036
773.039
773.041
773.043
773.044
773.045
773.046
773.046
773.046
773.047
773.047
773.047
773.048
773.048
773.048
773.049
773.049
773.05
773.05
773.05
773.05
773.051
773.051
773.051
773.051
773.051
773.051
773.051
773.051
773.05
773.05
773.05
773.049
773.049
773.049
773.048
773.048
773.048
773.047
773.047
773.047
773.046
773.046
773.043
773.041
772.95
773.262
773.305
773.319
773.316
773.313
773.315
773.317
773.317
773.316
773.315
773.315
773.314
773.314
773.314
773.315
773.317
773.318
773.32
773.322
773.324
773.325
773.325
773.326
773.329
773.334
773.338
773.341
773.343
773.343
773.34
773.325
773.276
773.214
773.163
773.126
773.102
773.088
773.082
773.08
773.08
773.081
773.083
773.084
773.083
773.078
773.068
773.06
773.054
773.051
773.049
773.049
773.049
773.049
773.049
773.049
773.048
773.048
773.048
773.047
773.047
773.047
773.047
773.047
773.047
773.047
773.047
773.048
773.048
773.048
773.049
773.049
773.05
773.05
773.05
773.05
773.051
773.051
773.051
773.051
773.051
773.051
773.051
773.051
773.05
773.05
773.05
773.049
773.049
773.049
773.048
773.048
773.048
773.047
773.047
773.047
773.046
773.046
773.046
773.045
773.047
773.07
773.081
773.095
773.115
773.096
773.074
773.073
773.083
773.087
773.082
773.077
773.077
773.078
773.079
773.078
773.078
773.077
773.077
773.078
773.078
773.08
773.082
773.083
773.083
773.083
773.083
773.083
773.086
773.09
773.093
773.092
773.089
773.088
773.087
773.087
773.09
773.096
773.1
773.103
773.106
773.114
773.15
773.289
773.479
773.574
773.589
773.549
773.375
773.183
773.075
773.028
773.014
773.014
773.019
773.028
773.034
773.038
773.041
773.043
773.044
773.045
773.046
773.046
773.046
773.047
773.047
773.048
773.048
773.048
773.049
773.049
773.05
773.05
773.05
773.05
773.051
773.051
773.051
773.051
773.051
773.051
773.051
773.051
773.05
773.05
773.05
773.049
773.049
773.049
773.048
773.048
773.048
773.047
773.047
773.047
773.046
773.046
773.047
773.048
773.094
773.073
773.088
773.088
773.106
773.085
773.059
773.057
773.065
773.071
773.066
773.06
773.059
773.061
773.061
773.061
773.061
773.06
773.06
773.059
773.059
773.059
773.061
773.063
773.063
773.063
773.062
773.06
773.058
773.06
773.063
773.065
773.065
773.065
773.064
773.064
773.065
773.069
773.074
773.078
773.081
773.087
773.111
773.228
773.568
773.837
773.919
773.89
773.659
773.263
773.032
772.94
772.923
772.934
772.973
773.004
773.022
773.032
773.038
773.042
773.044
773.045
773.046
773.047
773.047
773.048
773.048
773.048
773.049
773.049
773.05
773.05
773.05
773.051
773.051
773.051
773.052
773.052
773.052
773.052
773.052
773.052
773.052
773.051
773.051
773.051
773.051
773.05
773.05
773.05
773.049
773.049
773.049
773.048
773.048
773.048
773.047
773.047
773.048
773.049
773.099
772.941
772.922
772.916
772.917
772.915
772.91
772.897
772.888
772.871
772.862
772.845
772.834
772.819
772.81
772.797
772.791
772.782
772.783
772.789
772.818
772.986
772.986
772.99
772.988
772.982
772.969
772.951
772.938
772.918
772.904
772.884
772.868
772.858
772.84
772.824
772.815
772.803
772.794
772.786
772.783
773.047
773.046
773.044
773.039
773.034
773.028
773.022
773.015
773.008
773.001
772.992
772.983
772.977
772.97
772.966
772.97
772.974
772.974
772.958
772.939
773.083
773.086
773.085
773.082
773.079
773.076
773.071
773.061
773.053
773.039
773.018
773.011
773.019
773.033
773.026
772.973
772.935
772.928
772.915
772.884
773.094
773.107
773.106
773.106
773.105
773.105
773.101
773.095
773.087
773.074
773.059
773.058
773.064
773.076
773.065
773.027
772.997
772.98
772.947
772.903
772.875
772.876
772.876
772.874
772.867
772.866
772.867
772.868
772.867
772.866
772.865
772.865
772.865
772.864
772.864
772.863
772.863
772.863
772.862
772.862
772.861
772.861
772.86
772.86
772.859
772.859
772.86
772.863
772.865
772.866
772.867
772.869
772.878
772.889
772.894
772.895
772.893
772.893
772.904
772.981
773.21
773.397
773.472
773.478
773.43
773.256
773.073
772.944
772.86
772.807
772.775
772.757
772.747
772.742
772.739
772.737
772.736
772.736
772.736
772.735
772.735
772.735
772.735
772.735
772.735
772.734
772.734
772.734
772.734
772.734
772.734
772.733
772.733
772.733
772.733
772.732
772.732
772.732
772.731
772.731
772.731
772.731
772.73
772.73
772.73
772.729
772.729
772.729
772.729
772.729
772.728
772.728
772.728
772.728
772.728
772.728
772.728
772.728
772.728
772.728
772.728
772.729
772.729
772.729
772.729
772.729
772.73
772.73
772.73
772.731
772.731
772.731
772.731
772.732
772.732
772.732
772.732
772.732
772.733
772.733
772.733
772.733
772.732
772.732
772.732
772.732
772.732
772.731
772.731
772.73
772.73
772.73
772.729
772.729
772.728
772.728
772.727
772.727
772.726
772.726
772.725
772.725
772.725
772.725
772.724
772.724
772.724
772.724
772.724
772.724
772.724
772.724
772.724
772.724
772.725
772.725
772.726
772.726
772.727
772.727
772.728
772.728
772.729
772.73
772.73
772.731
772.731
772.732
772.732
772.732
772.732
772.732
772.732
772.732
772.732
772.732
772.732
772.731
772.731
772.73
772.729
772.729
772.728
772.728
772.727
772.726
772.726
772.725
772.724
772.724
772.723
772.722
772.722
772.721
772.721
772.72
772.72
772.721
772.723
772.774
772.764
772.761
772.762
772.759
772.753
772.752
772.754
772.755
772.754
772.752
772.752
772.752
772.752
772.751
772.751
772.75
772.75
772.75
772.749
772.749
772.749
772.749
772.748
772.748
772.747
772.747
772.747
772.748
772.751
772.752
772.754
772.757
772.759
772.763
772.771
772.786
772.799
772.806
772.812
772.828
772.874
772.92
772.939
772.94
772.927
772.87
772.798
772.753
772.729
772.72
772.718
772.718
772.721
772.725
772.728
772.73
772.732
772.733
772.733
772.734
772.734
772.734
772.734
772.734
772.734
772.734
772.733
772.733
772.733
772.733
772.733
772.732
772.732
772.732
772.732
772.731
772.731
772.731
772.731
772.73
772.73
772.73
772.729
772.729
772.729
772.729
772.728
772.728
772.728
772.728
772.728
772.727
772.727
772.727
772.727
772.727
772.727
772.727
772.727
772.727
772.728
772.728
772.728
772.728
772.728
772.729
772.729
772.729
772.729
772.73
772.73
772.73
772.73
772.731
772.731
772.731
772.731
772.732
772.732
772.732
772.732
772.732
772.732
772.731
772.731
772.731
772.731
772.73
772.73
772.73
772.729
772.729
772.728
772.728
772.727
772.727
772.726
772.726
772.726
772.725
772.725
772.724
772.724
772.724
772.723
772.723
772.723
772.723
772.723
772.723
772.723
772.723
772.723
772.723
772.724
772.724
772.725
772.725
772.726
772.726
772.727
772.727
772.728
772.729
772.729
772.73
772.73
772.731
772.731
772.731
772.731
772.732
772.732
772.731
772.731
772.731
772.731
772.73
772.73
772.729
772.729
772.728
772.727
772.727
772.726
772.725
772.725
772.724
772.723
772.723
772.722
772.722
772.721
772.72
772.72
772.719
772.719
772.72
772.722
772.769
772.938
772.981
772.997
772.994
772.993
772.995
772.997
772.997
772.997
772.996
772.996
772.996
772.995
772.995
772.995
772.996
772.996
772.999
773.002
773.003
773.004
773.007
773.011
773.015
773.02
773.023
773.025
773.026
773.023
773.009
772.959
772.896
772.845
772.808
772.784
772.771
772.765
772.763
772.763
772.765
772.767
772.767
772.766
772.758
772.749
772.743
772.738
772.736
772.736
772.736
772.736
772.737
772.737
772.736
772.736
772.736
772.735
772.735
772.735
772.735
772.734
772.734
772.734
772.734
772.734
772.734
772.733
772.733
772.733
772.733
772.733
772.732
772.732
772.732
772.732
772.731
772.731
772.731
772.731
772.73
772.73
772.73
772.729
772.729
772.729
772.729
772.728
772.728
772.728
772.728
772.728
772.727
772.727
772.727
772.727
772.727
772.727
772.727
772.727
772.727
772.728
772.728
772.728
772.728
772.728
772.729
772.729
772.729
772.729
772.73
772.73
772.73
772.73
772.731
772.731
772.731
772.731
772.732
772.732
772.732
772.732
772.732
772.732
772.731
772.731
772.731
772.731
772.73
772.73
772.73
772.729
772.729
772.728
772.728
772.727
772.727
772.726
772.726
772.726
772.725
772.725
772.724
772.724
772.724
772.723
772.723
772.723
772.723
772.723
772.723
772.723
772.723
772.723
772.723
772.724
772.724
772.725
772.725
772.726
772.726
772.727
772.727
772.728
772.729
772.729
772.73
772.73
772.731
772.731
772.731
772.731
772.732
772.732
772.731
772.731
772.731
772.731
772.73
772.73
772.729
772.729
772.728
772.727
772.727
772.726
772.725
772.725
772.724
772.723
772.723
772.722
772.722
772.721
772.72
772.72
772.719
772.719
772.719
772.719
772.721
772.74
772.756
772.775
772.791
772.773
772.754
772.755
772.765
772.767
772.763
772.76
772.76
772.761
772.761
772.76
772.759
772.759
772.759
772.759
772.759
772.76
772.762
772.762
772.763
772.763
772.763
772.765
772.77
772.775
772.778
772.777
772.774
772.773
772.773
772.775
772.779
772.782
772.784
772.788
772.802
772.863
773.043
773.201
773.26
773.257
773.176
772.966
772.814
772.736
772.707
772.701
772.703
772.711
772.719
772.724
772.728
772.73
772.731
772.732
772.733
772.733
772.734
772.734
772.734
772.734
772.733
772.733
772.733
772.733
772.733
772.733
772.732
772.732
772.732
772.732
772.731
772.731
772.731
772.731
772.73
772.73
772.73
772.729
772.729
772.729
772.729
772.728
772.728
772.728
772.728
772.728
772.727
772.727
772.727
772.727
772.727
772.727
772.727
772.727
772.727
772.728
772.728
772.728
772.728
772.728
772.729
772.729
772.729
772.729
772.73
772.73
772.73
772.73
772.731
772.731
772.731
772.731
772.732
772.732
772.732
772.732
772.732
772.732
772.731
772.731
772.731
772.731
772.73
772.73
772.73
772.729
772.729
772.728
772.728
772.727
772.727
772.726
772.726
772.726
772.725
772.725
772.724
772.724
772.724
772.723
772.723
772.723
772.723
772.723
772.723
772.723
772.723
772.723
772.723
772.724
772.724
772.725
772.725
772.726
772.726
772.727
772.727
772.728
772.729
772.729
772.73
772.73
772.731
772.731
772.731
772.731
772.732
772.732
772.731
772.731
772.731
772.731
772.73
772.73
772.729
772.729
772.728
772.727
772.727
772.726
772.725
772.725
772.724
772.723
772.723
772.722
772.722
772.721
772.72
772.72
772.719
772.719
772.716
772.715
772.621
772.742
772.763
772.765
772.783
772.761
772.739
772.739
772.747
772.751
772.747
772.743
772.743
772.744
772.744
772.744
772.743
772.742
772.742
772.742
772.742
772.743
772.744
772.744
772.744
772.744
772.743
772.742
772.74
772.742
772.746
772.747
772.749
772.749
772.749
772.751
772.755
772.759
772.762
772.765
772.775
772.82
773.022
773.377
773.564
773.591
773.507
773.161
772.827
772.665
772.615
772.614
772.638
772.677
772.702
772.716
772.724
772.728
772.731
772.732
772.733
772.734
772.734
772.734
772.734
772.734
772.734
772.734
772.734
772.734
772.734
772.734
772.733
772.733
772.733
772.733
772.732
772.732
772.732
772.731
772.731
772.731
772.731
772.73
772.73
772.73
772.729
772.729
772.729
772.729
772.729
772.728
772.728
772.728
772.728
772.728
772.728
772.728
772.728
772.728
772.728
772.728