/*--------------------------------*- C++ -*----------------------------------*\
| =========                 |                                                 |
| \\      /  F ield         | OpenFOAM: The Open Source CFD Toolbox           |
|  \\    /   O peration     | Version:  3.0.x                                 |
|   \\  /    A nd           | Web:      www.OpenFOAM.org                      |
|    \\/     M anipulation  |                                                 |
\*---------------------------------------------------------------------------*/
FoamFile
{
    version     2.0;
    format      ascii;
    class       volVectorField;
    location    "0.2";
    object      U;
}
// * * * * * * * * * * * * * * * * * * * * * * * * * * * * * * * * * * * * * //

dimensions      [0 1 -1 0 0 0 0];

internalField   nonuniform List<vector> 
6900
(
(42.697 0.000101389 0)
(42.6913 9.28469e-05 0)
(42.6839 9.02808e-05 0)
(42.6769 9.1255e-05 0)
(42.6706 9.20159e-05 0)
(42.6644 9.24787e-05 0)
(42.658 9.28488e-05 0)
(42.6514 9.31518e-05 0)
(42.6447 9.33926e-05 0)
(42.6378 9.35835e-05 0)
(42.6308 9.37359e-05 0)
(42.6236 9.38579e-05 0)
(42.6163 9.3956e-05 0)
(42.6087 9.40346e-05 0)
(42.601 9.40961e-05 0)
(42.5932 9.41394e-05 0)
(42.5851 9.4159e-05 0)
(42.5769 9.41431e-05 0)
(42.5686 9.40679e-05 0)
(42.5602 9.39034e-05 0)
(42.5518 9.36016e-05 0)
(42.5432 9.30998e-05 0)
(42.5346 9.23216e-05 0)
(42.5261 9.11795e-05 0)
(42.5175 8.95809e-05 0)
(42.5091 8.74363e-05 0)
(42.5007 8.46702e-05 0)
(42.4925 8.12323e-05 0)
(42.4844 7.71075e-05 0)
(42.4766 7.23226e-05 0)
(42.4689 6.69489e-05 0)
(42.4615 6.10996e-05 0)
(42.4543 5.49217e-05 0)
(42.4474 4.85848e-05 0)
(42.4408 4.2266e-05 0)
(42.4343 3.61361e-05 0)
(42.4281 3.03461e-05 0)
(42.4221 2.50172e-05 0)
(42.4162 2.02349e-05 0)
(42.4105 1.60472e-05 0)
(42.4048 1.24669e-05 0)
(42.3992 9.47628e-06 0)
(42.3936 7.03442e-06 0)
(42.388 5.08432e-06 0)
(42.3823 3.56018e-06 0)
(42.3764 2.39319e-06 0)
(42.3704 1.51658e-06 0)
(42.3642 8.70063e-07 0)
(42.3578 4.02085e-07 0)
(42.3511 7.49882e-08 0)
(42.3441 -1.47679e-07 0)
(42.3369 -2.98183e-07 0)
(42.3293 -3.98349e-07 0)
(42.3214 -4.63843e-07 0)
(42.3132 -5.05858e-07 0)
(42.3046 -5.32267e-07 0)
(42.2958 -5.48509e-07 0)
(42.2865 -5.582e-07 0)
(42.277 -5.63753e-07 0)
(42.2672 -5.66708e-07 0)
(42.257 -5.68022e-07 0)
(42.2466 -5.68378e-07 0)
(42.2359 -5.68282e-07 0)
(42.225 -5.67962e-07 0)
(42.2138 -5.67377e-07 0)
(42.2024 -5.6635e-07 0)
(42.1908 -5.64932e-07 0)
(42.179 -5.63349e-07 0)
(42.167 -5.61757e-07 0)
(42.1548 -5.60145e-07 0)
(42.1424 -5.58378e-07 0)
(42.1298 -5.56315e-07 0)
(42.117 -5.5398e-07 0)
(42.104 -5.51554e-07 0)
(42.0908 -5.49198e-07 0)
(42.0773 -5.46914e-07 0)
(42.0636 -5.44599e-07 0)
(42.0496 -5.42151e-07 0)
(42.0354 -5.39524e-07 0)
(42.0208 -5.36666e-07 0)
(42.0059 -5.3364e-07 0)
(41.9907 -5.30491e-07 0)
(41.9751 -5.27267e-07 0)
(41.9591 -5.24018e-07 0)
(41.9428 -5.20787e-07 0)
(41.9261 -5.17605e-07 0)
(41.909 -5.14521e-07 0)
(41.8915 -5.12375e-07 0)
(41.8737 -5.08694e-07 0)
(41.8556 -5.06359e-07 0)
(41.8371 -5.03546e-07 0)
(41.8183 -5.01225e-07 0)
(41.7993 -4.99302e-07 0)
(41.78 -4.97532e-07 0)
(41.7606 -4.9608e-07 0)
(41.741 -4.94872e-07 0)
(41.7214 -4.9389e-07 0)
(41.7019 -4.9334e-07 0)
(41.6823 -4.93092e-07 0)
(41.6629 -4.93177e-07 0)
(41.6437 -4.93568e-07 0)
(41.6247 -4.94187e-07 0)
(41.6059 -4.95003e-07 0)
(41.5875 -4.96029e-07 0)
(41.5694 -4.97157e-07 0)
(41.5517 -4.98371e-07 0)
(41.5344 -4.99695e-07 0)
(41.5176 -5.0099e-07 0)
(41.5012 -5.02376e-07 0)
(41.4852 -5.02578e-07 0)
(41.4696 -5.05075e-07 0)
(41.4545 -5.05952e-07 0)
(41.4398 -5.0717e-07 0)
(41.4254 -5.08235e-07 0)
(41.4114 -5.09052e-07 0)
(41.3977 -5.09864e-07 0)
(41.3843 -5.10462e-07 0)
(41.3712 -5.10816e-07 0)
(41.3582 -5.1101e-07 0)
(41.3453 -5.10953e-07 0)
(41.3326 -5.10574e-07 0)
(41.3198 -5.09889e-07 0)
(41.3071 -5.09019e-07 0)
(41.2943 -5.078e-07 0)
(41.2814 -5.06616e-07 0)
(41.2683 -5.06025e-07 0)
(41.2551 -5.04412e-07 0)
(41.2418 -5.02805e-07 0)
(41.2282 -5.02156e-07 0)
(41.2144 -5.01215e-07 0)
(41.2005 -5.00123e-07 0)
(41.1864 -4.99664e-07 0)
(41.1721 -4.999e-07 0)
(41.1577 -5.0097e-07 0)
(41.1433 -5.02066e-07 0)
(41.1288 -5.02723e-07 0)
(41.1143 -5.03475e-07 0)
(41.0998 -5.04246e-07 0)
(41.0854 -5.05468e-07 0)
(41.0711 -5.06961e-07 0)
(41.0568 -5.08743e-07 0)
(41.0427 -5.10043e-07 0)
(41.0287 -5.1013e-07 0)
(41.0149 -5.17637e-07 0)
(41.0014 -5.18737e-07 0)
(40.9879 -5.19432e-07 0)
(40.9747 -5.21533e-07 0)
(40.9616 -5.23858e-07 0)
(40.9486 -5.26124e-07 0)
(40.9359 -5.28679e-07 0)
(40.9234 -5.33376e-07 0)
(40.911 -5.30099e-07 0)
(40.8987 -5.32145e-07 0)
(40.8866 -5.36015e-07 0)
(40.8747 -5.38756e-07 0)
(40.8629 -5.40124e-07 0)
(40.8513 -5.40872e-07 0)
(40.8396 -5.41496e-07 0)
(40.8281 -5.41775e-07 0)
(40.8165 -5.41749e-07 0)
(40.8049 -5.41037e-07 0)
(40.7933 -5.40415e-07 0)
(40.7817 -5.38862e-07 0)
(40.7699 -5.36987e-07 0)
(40.7582 -5.35379e-07 0)
(40.7464 -5.34088e-07 0)
(40.7346 -5.32254e-07 0)
(40.7228 -5.30422e-07 0)
(40.7112 -5.28775e-07 0)
(40.6997 -5.26658e-07 0)
(40.6885 -5.26094e-07 0)
(40.6776 -5.24045e-07 0)
(40.6671 -5.27199e-07 0)
(40.6571 -5.25707e-07 0)
(40.6476 -5.26109e-07 0)
(40.6387 -5.24627e-07 0)
(40.6304 -5.25163e-07 0)
(40.6228 -5.24789e-07 0)
(40.6158 -5.2384e-07 0)
(40.6093 -5.22567e-07 0)
(40.6034 -5.22903e-07 0)
(40.598 -5.2272e-07 0)
(40.593 -5.22756e-07 0)
(40.5884 -5.20138e-07 0)
(40.5842 -5.20368e-07 0)
(40.5803 -5.17293e-07 0)
(40.5768 -5.22732e-07 0)
(40.5737 -5.16544e-07 0)
(40.571 -5.23383e-07 0)
(40.5687 -5.17019e-07 0)
(40.5667 -5.15454e-07 0)
(40.5652 -4.9802e-07 0)
(40.564 -4.30341e-07 0)
(40.563 1.7777e-07 0)
(40.5621 4.55754e-06 0)
(40.5605 3.52914e-05 0)
(40.5542 0.000250634 0)
(40.5152 0.00177212 0)
(40.3433 0.0158994 0)
(37.9253 0.081767 0)
(42.6988 0.000128593 0)
(42.6948 9.92667e-05 0)
(42.6893 8.62909e-05 0)
(42.6841 8.58539e-05 0)
(42.6795 8.58433e-05 0)
(42.6751 8.54822e-05 0)
(42.6705 8.52468e-05 0)
(42.6657 8.51198e-05 0)
(42.6608 8.50375e-05 0)
(42.6558 8.49803e-05 0)
(42.6506 8.49416e-05 0)
(42.6452 8.4916e-05 0)
(42.6396 8.48996e-05 0)
(42.6339 8.48896e-05 0)
(42.628 8.48826e-05 0)
(42.622 8.4874e-05 0)
(42.6157 8.48556e-05 0)
(42.6094 8.48147e-05 0)
(42.6029 8.47286e-05 0)
(42.5963 8.4571e-05 0)
(42.5896 8.42956e-05 0)
(42.5828 8.38454e-05 0)
(42.576 8.31517e-05 0)
(42.5692 8.21354e-05 0)
(42.5624 8.07123e-05 0)
(42.5556 7.88008e-05 0)
(42.5489 7.63317e-05 0)
(42.5423 7.32583e-05 0)
(42.5358 6.95652e-05 0)
(42.5293 6.5275e-05 0)
(42.523 6.04506e-05 0)
(42.5169 5.51929e-05 0)
(42.5108 4.96337e-05 0)
(42.5049 4.39254e-05 0)
(42.4991 3.82281e-05 0)
(42.4934 3.26961e-05 0)
(42.4878 2.74666e-05 0)
(42.4824 2.26497e-05 0)
(42.4769 1.83238e-05 0)
(42.4715 1.45331e-05 0)
(42.4661 1.12902e-05 0)
(42.4607 8.57978e-06 0)
(42.4553 6.36578e-06 0)
(42.4498 4.5974e-06 0)
(42.4441 3.21572e-06 0)
(42.4383 2.15901e-06 0)
(42.4323 1.36756e-06 0)
(42.4262 7.87009e-07 0)
(42.4197 3.68983e-07 0)
(42.4131 7.45007e-08 0)
(42.4061 -1.32202e-07 0)
(42.3988 -2.72837e-07 0)
(42.3913 -3.66312e-07 0)
(42.3834 -4.2734e-07 0)
(42.3751 -4.66413e-07 0)
(42.3666 -4.90932e-07 0)
(42.3577 -5.05986e-07 0)
(42.3484 -5.14973e-07 0)
(42.3389 -5.20136e-07 0)
(42.329 -5.22898e-07 0)
(42.3189 -5.24138e-07 0)
(42.3085 -5.24512e-07 0)
(42.2978 -5.24513e-07 0)
(42.2868 -5.24317e-07 0)
(42.2756 -5.23808e-07 0)
(42.2642 -5.22767e-07 0)
(42.2526 -5.21265e-07 0)
(42.2408 -5.19567e-07 0)
(42.2288 -5.17827e-07 0)
(42.2166 -5.1596e-07 0)
(42.2041 -5.13798e-07 0)
(42.1915 -5.11189e-07 0)
(42.1787 -5.08191e-07 0)
(42.1657 -5.05012e-07 0)
(42.1525 -5.01777e-07 0)
(42.139 -4.98466e-07 0)
(42.1253 -4.94971e-07 0)
(42.1113 -4.91204e-07 0)
(42.097 -4.87125e-07 0)
(42.0824 -4.82736e-07 0)
(42.0675 -4.78096e-07 0)
(42.0523 -4.73264e-07 0)
(42.0367 -4.68308e-07 0)
(42.0207 -4.63291e-07 0)
(42.0044 -4.58269e-07 0)
(41.9877 -4.53305e-07 0)
(41.9706 -4.48522e-07 0)
(41.9531 -4.45292e-07 0)
(41.9353 -4.39535e-07 0)
(41.9171 -4.35822e-07 0)
(41.8986 -4.3146e-07 0)
(41.8798 -4.28026e-07 0)
(41.8608 -4.25265e-07 0)
(41.8415 -4.22864e-07 0)
(41.8221 -4.21089e-07 0)
(41.8025 -4.19827e-07 0)
(41.7829 -4.19051e-07 0)
(41.7633 -4.19036e-07 0)
(41.7438 -4.1957e-07 0)
(41.7243 -4.20709e-07 0)
(41.7051 -4.22434e-07 0)
(41.6861 -4.24646e-07 0)
(41.6673 -4.27288e-07 0)
(41.6489 -4.30372e-07 0)
(41.6308 -4.33677e-07 0)
(41.6131 -4.3716e-07 0)
(41.5958 -4.40798e-07 0)
(41.5789 -4.44373e-07 0)
(41.5625 -4.4805e-07 0)
(41.5465 -4.49806e-07 0)
(41.5309 -4.55015e-07 0)
(41.5158 -4.57797e-07 0)
(41.501 -4.60639e-07 0)
(41.4867 -4.63191e-07 0)
(41.4727 -4.65248e-07 0)
(41.459 -4.67147e-07 0)
(41.4456 -4.68551e-07 0)
(41.4324 -4.69423e-07 0)
(41.4194 -4.69903e-07 0)
(41.4065 -4.69905e-07 0)
(41.3938 -4.69385e-07 0)
(41.381 -4.6835e-07 0)
(41.3683 -4.67035e-07 0)
(41.3554 -4.65054e-07 0)
(41.3425 -4.63192e-07 0)
(41.3295 -4.623e-07 0)
(41.3163 -4.59574e-07 0)
(41.3029 -4.56746e-07 0)
(41.2893 -4.55359e-07 0)
(41.2755 -4.53394e-07 0)
(41.2615 -4.51295e-07 0)
(41.2474 -4.50322e-07 0)
(41.2332 -4.50371e-07 0)
(41.2188 -4.51599e-07 0)
(41.2043 -4.52879e-07 0)
(41.1898 -4.53749e-07 0)
(41.1753 -4.552e-07 0)
(41.1608 -4.56918e-07 0)
(41.1464 -4.59467e-07 0)
(41.132 -4.62518e-07 0)
(41.1178 -4.66068e-07 0)
(41.1037 -4.68744e-07 0)
(41.0897 -4.69716e-07 0)
(41.0759 -4.83372e-07 0)
(41.0623 -4.86041e-07 0)
(41.0488 -4.88075e-07 0)
(41.0356 -4.92702e-07 0)
(41.0224 -4.97694e-07 0)
(41.0095 -5.02527e-07 0)
(40.9968 -5.07806e-07 0)
(40.9842 -5.15513e-07 0)
(40.9718 -5.11578e-07 0)
(40.9596 -5.166e-07 0)
(40.9475 -5.23985e-07 0)
(40.9355 -5.28762e-07 0)
(40.9237 -5.31295e-07 0)
(40.912 -5.32983e-07 0)
(40.9004 -5.34468e-07 0)
(40.8888 -5.35388e-07 0)
(40.8772 -5.35803e-07 0)
(40.8657 -5.35154e-07 0)
(40.854 -5.34402e-07 0)
(40.8424 -5.32462e-07 0)
(40.8306 -5.30188e-07 0)
(40.8189 -5.28414e-07 0)
(40.8071 -5.25767e-07 0)
(40.7953 -5.23255e-07 0)
(40.7835 -5.20852e-07 0)
(40.7718 -5.19423e-07 0)
(40.7604 -5.16592e-07 0)
(40.7491 -5.16937e-07 0)
(40.7382 -5.13881e-07 0)
(40.7277 -5.12147e-07 0)
(40.7177 -5.10072e-07 0)
(40.7082 -5.12805e-07 0)
(40.6993 -5.1159e-07 0)
(40.691 -5.16394e-07 0)
(40.6833 -5.1587e-07 0)
(40.6763 -5.1668e-07 0)
(40.6698 -5.15081e-07 0)
(40.6639 -5.15781e-07 0)
(40.6584 -5.15056e-07 0)
(40.6534 -5.15743e-07 0)
(40.6488 -5.10169e-07 0)
(40.6446 -5.12237e-07 0)
(40.6408 -5.05561e-07 0)
(40.6373 -5.02167e-07 0)
(40.6341 -4.92572e-07 0)
(40.6314 -4.97891e-07 0)
(40.629 -4.86062e-07 0)
(40.6271 -4.86247e-07 0)
(40.6256 -3.97412e-07 0)
(40.6244 1.58525e-07 0)
(40.6234 3.98147e-06 0)
(40.6225 3.0613e-05 0)
(40.6209 0.000216535 0)
(40.6146 0.00151289 0)
(40.5767 0.0105052 0)
(40.4097 0.0749756 0)
(38.5407 0.353385 0)
(42.6987 2.72485e-12 0)
(42.6948 1.82687e-12 0)
(42.6892 1.46331e-12 0)
(42.684 3.58878e-13 0)
(42.6795 -7.82378e-13 0)
(42.6751 -4.9305e-12 0)
(42.6705 -7.61586e-12 0)
(42.6657 -7.48898e-12 0)
(42.6608 -6.04814e-12 0)
(42.6557 -5.00173e-12 0)
(42.6505 -6.61739e-12 0)
(42.6451 -9.71621e-12 0)
(42.6396 -1.09418e-11 0)
(42.6339 -1.23814e-11 0)
(42.628 -1.36325e-11 0)
(42.6219 -1.45876e-11 0)
(42.6157 -1.44371e-11 0)
(42.6093 -1.53175e-11 0)
(42.6028 -1.65073e-11 0)
(42.5962 -1.79395e-11 0)
(42.5896 -1.90103e-11 0)
(42.5828 -1.93723e-11 0)
(42.576 -1.91571e-11 0)
(42.5692 -1.75278e-11 0)
(42.5624 -1.69044e-11 0)
(42.5556 -1.51626e-11 0)
(42.5489 -1.35596e-11 0)
(42.5423 -1.50697e-11 0)
(42.5358 -1.57114e-11 0)
(42.5293 -1.55052e-11 0)
(42.523 -1.57851e-11 0)
(42.5169 -1.4828e-11 0)
(42.5108 -1.56066e-11 0)
(42.5049 -1.66583e-11 0)
(42.4991 -1.75436e-11 0)
(42.4934 -1.77029e-11 0)
(42.4878 -1.69415e-11 0)
(42.4824 -1.56809e-11 0)
(42.4769 -1.55697e-11 0)
(42.4715 -1.64315e-11 0)
(42.4661 -1.63801e-11 0)
(42.4607 -1.66323e-11 0)
(42.4553 -1.65452e-11 0)
(42.4498 -1.43401e-11 0)
(42.4441 -1.11877e-11 0)
(42.4383 -8.46501e-12 0)
(42.4323 -6.87186e-12 0)
(42.4262 -6.17694e-12 0)
(42.4197 -3.61582e-12 0)
(42.4131 -9.60224e-13 0)
(42.4061 6.54508e-13 0)
(42.3988 2.6468e-12 0)
(42.3913 4.05403e-12 0)
(42.3834 4.37821e-12 0)
(42.3751 2.83463e-12 0)
(42.3666 3.25982e-12 0)
(42.3577 3.47508e-12 0)
(42.3484 3.45207e-12 0)
(42.3389 5.47921e-12 0)
(42.3291 7.92701e-12 0)
(42.3189 7.61506e-12 0)
(42.3085 7.45997e-12 0)
(42.2978 5.3287e-12 0)
(42.2868 3.71374e-12 0)
(42.2757 3.52731e-12 0)
(42.2642 3.94335e-12 0)
(42.2526 5.62935e-12 0)
(42.2408 5.1143e-12 0)
(42.2288 3.95137e-12 0)
(42.2166 2.92274e-12 0)
(42.2042 2.74624e-12 0)
(42.1916 2.04532e-12 0)
(42.1787 2.12723e-12 0)
(42.1657 2.68595e-12 0)
(42.1525 3.90173e-12 0)
(42.139 2.66646e-12 0)
(42.1253 2.6455e-13 0)
(42.1113 -3.94425e-13 0)
(42.097 -1.00073e-12 0)
(42.0825 -4.28354e-12 0)
(42.0676 -8.91716e-12 0)
(42.0523 -1.03653e-11 0)
(42.0367 -1.21329e-11 0)
(42.0207 -1.20455e-11 0)
(42.0044 -1.21106e-11 0)
(41.9877 -1.37378e-11 0)
(41.9706 -1.65837e-11 0)
(41.9531 -1.79941e-11 0)
(41.9353 -1.77772e-11 0)
(41.9171 -1.6446e-11 0)
(41.8986 -1.57341e-11 0)
(41.8798 -1.57998e-11 0)
(41.8608 -1.5217e-11 0)
(41.8415 -1.63099e-11 0)
(41.8221 -1.89599e-11 0)
(41.8025 -2.05161e-11 0)
(41.7829 -2.04488e-11 0)
(41.7633 -2.04321e-11 0)
(41.7438 -2.02898e-11 0)
(41.7244 -2.05425e-11 0)
(41.7051 -1.89272e-11 0)
(41.6861 -1.71513e-11 0)
(41.6673 -1.63674e-11 0)
(41.6489 -1.50926e-11 0)
(41.6308 -1.50286e-11 0)
(41.6131 -1.52975e-11 0)
(41.5958 -1.45431e-11 0)
(41.5789 -1.38007e-11 0)
(41.5625 -1.31414e-11 0)
(41.5465 -9.42098e-12 0)
(41.5309 -3.27063e-12 0)
(41.5158 4.11596e-12 0)
(41.501 7.14914e-12 0)
(41.4867 7.88109e-12 0)
(41.4727 9.35338e-12 0)
(41.459 1.01491e-11 0)
(41.4456 1.00979e-11 0)
(41.4324 8.97297e-12 0)
(41.4194 1.05807e-11 0)
(41.4065 1.19543e-11 0)
(41.3938 1.15724e-11 0)
(41.381 1.27298e-11 0)
(41.3683 1.1886e-11 0)
(41.3554 1.20191e-11 0)
(41.3425 1.1973e-11 0)
(41.3295 1.11055e-11 0)
(41.3163 1.06488e-11 0)
(41.3029 8.92966e-12 0)
(41.2893 7.21961e-12 0)
(41.2755 5.67948e-12 0)
(41.2616 5.08686e-12 0)
(41.2474 5.43319e-12 0)
(41.2332 4.64422e-12 0)
(41.2188 4.89955e-12 0)
(41.2043 4.13927e-12 0)
(41.1898 2.9969e-12 0)
(41.1753 2.54735e-12 0)
(41.1608 2.41137e-12 0)
(41.1464 2.47295e-12 0)
(41.132 1.67111e-12 0)
(41.1178 1.56873e-12 0)
(41.1037 2.44478e-12 0)
(41.0897 2.68528e-12 0)
(41.0759 1.2935e-12 0)
(41.0623 1.03993e-12 0)
(41.0489 2.06093e-12 0)
(41.0356 2.6108e-12 0)
(41.0224 2.64129e-12 0)
(41.0095 3.14402e-12 0)
(40.9968 4.19908e-12 0)
(40.9842 6.32151e-12 0)
(40.9718 8.11209e-12 0)
(40.9596 1.06584e-11 0)
(40.9475 1.04113e-11 0)
(40.9355 7.05957e-12 0)
(40.9237 1.83447e-12 0)
(40.912 -2.55173e-12 0)
(40.9004 -2.14139e-12 0)
(40.8888 8.11509e-13 0)
(40.8772 -2.61113e-11 0)
(40.8657 5.69692e-11 0)
(40.854 6.33764e-11 0)
(40.8424 1.83767e-10 0)
(40.8306 1.45874e-10 0)
(40.8189 -2.66137e-10 0)
(40.8071 5.35964e-10 0)
(40.7953 5.61214e-10 0)
(40.7835 2.39542e-10 0)
(40.7718 -2.51759e-10 0)
(40.7604 -1.10242e-09 0)
(40.7491 -2.83198e-09 0)
(40.7382 -7.91484e-09 0)
(40.7277 -3.46157e-09 0)
(40.7177 -6.4142e-09 0)
(40.7082 -8.1349e-09 0)
(40.6993 -8.86377e-09 0)
(40.691 -1.37283e-08 0)
(40.6833 -1.5285e-08 0)
(40.6763 -1.31807e-08 0)
(40.6698 -8.75066e-09 0)
(40.6639 -1.28187e-08 0)
(40.6584 -1.84535e-08 0)
(40.6534 -1.05779e-08 0)
(40.6489 -1.61502e-08 0)
(40.6446 -1.90237e-08 0)
(40.6408 -1.43794e-08 0)
(40.6373 -1.25373e-08 0)
(40.6341 6.51574e-10 0)
(40.6314 -1.73915e-08 0)
(40.6291 7.10098e-09 0)
(40.6271 -4.4953e-10 0)
(40.6256 1.69682e-07 0)
(40.6244 1.2308e-06 0)
(40.6234 8.84121e-06 0)
(40.6226 6.22141e-05 0)
(40.6218 0.000439876 0)
(40.6206 0.00310668 0)
(40.6176 0.0218132 0)
(40.6003 0.153366 0)
(40.4584 0.697439 0)
(42.6988 -0.000128593 0)
(42.6948 -9.92667e-05 0)
(42.6893 -8.62909e-05 0)
(42.6841 -8.58539e-05 0)
(42.6795 -8.58433e-05 0)
(42.6751 -8.54822e-05 0)
(42.6705 -8.52468e-05 0)
(42.6657 -8.51198e-05 0)
(42.6608 -8.50375e-05 0)
(42.6558 -8.49803e-05 0)
(42.6506 -8.49416e-05 0)
(42.6452 -8.4916e-05 0)
(42.6396 -8.48996e-05 0)
(42.6339 -8.48896e-05 0)
(42.628 -8.48826e-05 0)
(42.622 -8.4874e-05 0)
(42.6157 -8.48556e-05 0)
(42.6094 -8.48147e-05 0)
(42.6029 -8.47285e-05 0)
(42.5963 -8.4571e-05 0)
(42.5896 -8.42956e-05 0)
(42.5828 -8.38454e-05 0)
(42.576 -8.31517e-05 0)
(42.5692 -8.21354e-05 0)
(42.5624 -8.07123e-05 0)
(42.5556 -7.88008e-05 0)
(42.5489 -7.63317e-05 0)
(42.5423 -7.32583e-05 0)
(42.5358 -6.95652e-05 0)
(42.5293 -6.5275e-05 0)
(42.523 -6.04506e-05 0)
(42.5169 -5.51929e-05 0)
(42.5108 -4.96337e-05 0)
(42.5049 -4.39254e-05 0)
(42.4991 -3.82281e-05 0)
(42.4934 -3.26961e-05 0)
(42.4878 -2.74666e-05 0)
(42.4824 -2.26497e-05 0)
(42.4769 -1.83238e-05 0)
(42.4715 -1.45331e-05 0)
(42.4661 -1.12902e-05 0)
(42.4607 -8.57978e-06 0)
(42.4553 -6.36578e-06 0)
(42.4498 -4.5974e-06 0)
(42.4441 -3.21572e-06 0)
(42.4383 -2.159e-06 0)
(42.4323 -1.36755e-06 0)
(42.4262 -7.87008e-07 0)
(42.4197 -3.68982e-07 0)
(42.4131 -7.45018e-08 0)
(42.4061 1.322e-07 0)
(42.3988 2.72837e-07 0)
(42.3913 3.66311e-07 0)
(42.3834 4.27341e-07 0)
(42.3751 4.66412e-07 0)
(42.3666 4.90933e-07 0)
(42.3577 5.05987e-07 0)
(42.3484 5.14975e-07 0)
(42.3389 5.2013e-07 0)
(42.329 5.22896e-07 0)
(42.3189 5.24133e-07 0)
(42.3085 5.24513e-07 0)
(42.2978 5.24518e-07 0)
(42.2868 5.24318e-07 0)
(42.2756 5.23809e-07 0)
(42.2642 5.22763e-07 0)
(42.2526 5.21262e-07 0)
(42.2408 5.19569e-07 0)
(42.2288 5.1783e-07 0)
(42.2166 5.15961e-07 0)
(42.2041 5.13797e-07 0)
(42.1915 5.11191e-07 0)
(42.1787 5.08191e-07 0)
(42.1657 5.05011e-07 0)
(42.1525 5.01777e-07 0)
(42.139 4.98467e-07 0)
(42.1253 4.94973e-07 0)
(42.1113 4.91203e-07 0)
(42.097 4.87125e-07 0)
(42.0824 4.82743e-07 0)
(42.0675 4.78104e-07 0)
(42.0523 4.73272e-07 0)
(42.0367 4.68313e-07 0)
(42.0207 4.63294e-07 0)
(42.0044 4.58269e-07 0)
(41.9877 4.53307e-07 0)
(41.9706 4.48525e-07 0)
(41.9531 4.45298e-07 0)
(41.9353 4.39537e-07 0)
(41.9171 4.35823e-07 0)
(41.8986 4.3146e-07 0)
(41.8798 4.28029e-07 0)
(41.8608 4.25269e-07 0)
(41.8415 4.22869e-07 0)
(41.8221 4.21092e-07 0)
(41.8025 4.19827e-07 0)
(41.7829 4.19054e-07 0)
(41.7633 4.19039e-07 0)
(41.7438 4.19573e-07 0)
(41.7243 4.20711e-07 0)
(41.7051 4.22436e-07 0)
(41.6861 4.24644e-07 0)
(41.6673 4.2729e-07 0)
(41.6489 4.30373e-07 0)
(41.6308 4.33682e-07 0)
(41.6131 4.37163e-07 0)
(41.5958 4.40802e-07 0)
(41.5789 4.44376e-07 0)
(41.5625 4.48055e-07 0)
(41.5465 4.49807e-07 0)
(41.5309 4.55011e-07 0)
(41.5158 4.57794e-07 0)
(41.501 4.60639e-07 0)
(41.4867 4.6319e-07 0)
(41.4727 4.65245e-07 0)
(41.459 4.67145e-07 0)
(41.4456 4.6855e-07 0)
(41.4324 4.69421e-07 0)
(41.4194 4.69901e-07 0)
(41.4065 4.699e-07 0)
(41.3938 4.69384e-07 0)
(41.381 4.68348e-07 0)
(41.3683 4.67035e-07 0)
(41.3554 4.65052e-07 0)
(41.3425 4.6319e-07 0)
(41.3295 4.62296e-07 0)
(41.3163 4.59574e-07 0)
(41.3029 4.56744e-07 0)
(41.2893 4.55358e-07 0)
(41.2755 4.53394e-07 0)
(41.2615 4.51295e-07 0)
(41.2474 4.50321e-07 0)
(41.2332 4.50371e-07 0)
(41.2188 4.51597e-07 0)
(41.2043 4.5288e-07 0)
(41.1898 4.53752e-07 0)
(41.1753 4.55201e-07 0)
(41.1608 4.56921e-07 0)
(41.1464 4.59468e-07 0)
(41.132 4.62518e-07 0)
(41.1178 4.66068e-07 0)
(41.1037 4.68743e-07 0)
(41.0897 4.69717e-07 0)
(41.0759 4.83375e-07 0)
(41.0623 4.86039e-07 0)
(41.0488 4.88075e-07 0)
(41.0356 4.92702e-07 0)
(41.0224 4.97694e-07 0)
(41.0095 5.02531e-07 0)
(40.9968 5.07809e-07 0)
(40.9842 5.15511e-07 0)
(40.9718 5.11571e-07 0)
(40.9596 5.16595e-07 0)
(40.9475 5.2398e-07 0)
(40.9355 5.28762e-07 0)
(40.9237 5.3129e-07 0)
(40.912 5.32994e-07 0)
(40.9004 5.34452e-07 0)
(40.8888 5.35407e-07 0)
(40.8772 5.35769e-07 0)
(40.8657 5.35336e-07 0)
(40.854 5.34147e-07 0)
(40.8424 5.32484e-07 0)
(40.8306 5.30432e-07 0)
(40.8189 5.28071e-07 0)
(40.8071 5.25805e-07 0)
(40.7953 5.23351e-07 0)
(40.7835 5.20931e-07 0)
(40.7718 5.18603e-07 0)
(40.7604 5.16675e-07 0)
(40.7491 5.13937e-07 0)
(40.7382 5.10517e-07 0)
(40.7277 5.07438e-07 0)
(40.7177 5.0849e-07 0)
(40.7082 5.05021e-07 0)
(40.6993 5.11385e-07 0)
(40.691 5.05112e-07 0)
(40.6833 5.11916e-07 0)
(40.6763 5.07511e-07 0)
(40.6698 5.12753e-07 0)
(40.6639 5.04281e-07 0)
(40.6584 5.04931e-07 0)
(40.6534 5.05235e-07 0)
(40.6488 5.04186e-07 0)
(40.6446 4.93611e-07 0)
(40.6408 5.032e-07 0)
(40.6373 4.85067e-07 0)
(40.6341 5.07172e-07 0)
(40.6314 4.74772e-07 0)
(40.629 5.05518e-07 0)
(40.6271 4.8973e-07 0)
(40.6256 6.1733e-07 0)
(40.6244 1.30174e-06 0)
(40.6234 6.5169e-06 0)
(40.6228 4.32461e-05 0)
(40.623 0.000305829 0)
(40.6296 0.00218427 0)
(40.682 0.0157372 0)
(40.8763 0.129356 0)
(43.8536 0.541574 0)
(42.697 -0.000101389 0)
(42.6913 -9.28468e-05 0)
(42.6839 -9.02808e-05 0)
(42.6769 -9.1255e-05 0)
(42.6706 -9.20159e-05 0)
(42.6644 -9.24787e-05 0)
(42.658 -9.28488e-05 0)
(42.6514 -9.31517e-05 0)
(42.6447 -9.33925e-05 0)
(42.6378 -9.35835e-05 0)
(42.6308 -9.37359e-05 0)
(42.6236 -9.38579e-05 0)
(42.6163 -9.3956e-05 0)
(42.6087 -9.40346e-05 0)
(42.601 -9.40961e-05 0)
(42.5932 -9.41394e-05 0)
(42.5851 -9.4159e-05 0)
(42.5769 -9.41431e-05 0)
(42.5686 -9.40679e-05 0)
(42.5602 -9.39034e-05 0)
(42.5518 -9.36016e-05 0)
(42.5432 -9.30998e-05 0)
(42.5346 -9.23216e-05 0)
(42.5261 -9.11795e-05 0)
(42.5175 -8.95809e-05 0)
(42.5091 -8.74363e-05 0)
(42.5007 -8.46702e-05 0)
(42.4925 -8.12323e-05 0)
(42.4844 -7.71075e-05 0)
(42.4766 -7.23226e-05 0)
(42.4689 -6.69489e-05 0)
(42.4615 -6.10996e-05 0)
(42.4543 -5.49217e-05 0)
(42.4474 -4.85848e-05 0)
(42.4408 -4.2266e-05 0)
(42.4343 -3.61361e-05 0)
(42.4281 -3.03461e-05 0)
(42.4221 -2.50172e-05 0)
(42.4162 -2.02349e-05 0)
(42.4105 -1.60472e-05 0)
(42.4048 -1.24669e-05 0)
(42.3992 -9.47628e-06 0)
(42.3936 -7.03441e-06 0)
(42.388 -5.08432e-06 0)
(42.3823 -3.56018e-06 0)
(42.3764 -2.3932e-06 0)
(42.3704 -1.51658e-06 0)
(42.3642 -8.70066e-07 0)
(42.3578 -4.02086e-07 0)
(42.3511 -7.4988e-08 0)
(42.3441 1.47679e-07 0)
(42.3369 2.98184e-07 0)
(42.3293 3.98351e-07 0)
(42.3214 4.6384e-07 0)
(42.3132 5.05856e-07 0)
(42.3046 5.32269e-07 0)
(42.2958 5.48507e-07 0)
(42.2865 5.58198e-07 0)
(42.277 5.63761e-07 0)
(42.2672 5.66716e-07 0)
(42.257 5.68026e-07 0)
(42.2466 5.68377e-07 0)
(42.2359 5.68275e-07 0)
(42.225 5.67959e-07 0)
(42.2138 5.67372e-07 0)
(42.2024 5.66353e-07 0)
(42.1908 5.64936e-07 0)
(42.179 5.63345e-07 0)
(42.167 5.61755e-07 0)
(42.1548 5.60143e-07 0)
(42.1424 5.58376e-07 0)
(42.1298 5.56315e-07 0)
(42.117 5.5398e-07 0)
(42.104 5.51556e-07 0)
(42.0908 5.492e-07 0)
(42.0773 5.46909e-07 0)
(42.0636 5.44595e-07 0)
(42.0496 5.42149e-07 0)
(42.0354 5.39505e-07 0)
(42.0208 5.36654e-07 0)
(42.0059 5.33628e-07 0)
(41.9907 5.30483e-07 0)
(41.9751 5.27265e-07 0)
(41.9591 5.24022e-07 0)
(41.9428 5.2079e-07 0)
(41.9261 5.17602e-07 0)
(41.909 5.14518e-07 0)
(41.8915 5.12369e-07 0)
(41.8737 5.08694e-07 0)
(41.8556 5.06361e-07 0)
(41.8371 5.0355e-07 0)
(41.8183 5.01222e-07 0)
(41.7993 4.99295e-07 0)
(41.78 4.9753e-07 0)
(41.7606 4.96078e-07 0)
(41.741 4.9487e-07 0)
(41.7214 4.93886e-07 0)
(41.7019 4.93337e-07 0)
(41.6823 4.93088e-07 0)
(41.6629 4.93176e-07 0)
(41.6437 4.93566e-07 0)
(41.6247 4.94187e-07 0)
(41.6059 4.95006e-07 0)
(41.5875 4.96034e-07 0)
(41.5694 4.97155e-07 0)
(41.5517 4.98371e-07 0)
(41.5344 4.99693e-07 0)
(41.5176 5.00983e-07 0)
(41.5012 5.02376e-07 0)
(41.4852 5.02596e-07 0)
(41.4696 5.05083e-07 0)
(41.4545 5.05957e-07 0)
(41.4398 5.0717e-07 0)
(41.4254 5.08234e-07 0)
(41.4114 5.09052e-07 0)
(41.3977 5.09863e-07 0)
(41.3843 5.1046e-07 0)
(41.3712 5.10815e-07 0)
(41.3582 5.11012e-07 0)
(41.3453 5.10956e-07 0)
(41.3326 5.10572e-07 0)
(41.3198 5.09892e-07 0)
(41.3071 5.09023e-07 0)
(41.2943 5.07806e-07 0)
(41.2814 5.06615e-07 0)
(41.2683 5.06025e-07 0)
(41.2551 5.04417e-07 0)
(41.2418 5.02807e-07 0)
(41.2282 5.02158e-07 0)
(41.2144 5.01214e-07 0)
(41.2005 5.00124e-07 0)
(41.1864 4.99662e-07 0)
(41.1721 4.99902e-07 0)
(41.1577 5.00972e-07 0)
(41.1433 5.02066e-07 0)
(41.1288 5.02719e-07 0)
(41.1143 5.03475e-07 0)
(41.0998 5.04248e-07 0)
(41.0854 5.05466e-07 0)
(41.0711 5.06955e-07 0)
(41.0568 5.08747e-07 0)
(41.0427 5.10044e-07 0)
(41.0287 5.10125e-07 0)
(41.0149 5.1763e-07 0)
(41.0014 5.18734e-07 0)
(40.9879 5.19432e-07 0)
(40.9747 5.2153e-07 0)
(40.9616 5.2386e-07 0)
(40.9486 5.26119e-07 0)
(40.9359 5.28676e-07 0)
(40.9234 5.33378e-07 0)
(40.911 5.30103e-07 0)
(40.8987 5.32147e-07 0)
(40.8866 5.36018e-07 0)
(40.8747 5.38756e-07 0)
(40.8629 5.40121e-07 0)
(40.8513 5.40877e-07 0)
(40.8396 5.41476e-07 0)
(40.8281 5.41775e-07 0)
(40.8165 5.41721e-07 0)
(40.8049 5.41151e-07 0)
(40.7933 5.40094e-07 0)
(40.7817 5.387e-07 0)
(40.7699 5.37084e-07 0)
(40.7582 5.353e-07 0)
(40.7464 5.33586e-07 0)
(40.7346 5.31792e-07 0)
(40.7228 5.30268e-07 0)
(40.7112 5.28215e-07 0)
(40.6997 5.27855e-07 0)
(40.6885 5.25945e-07 0)
(40.6776 5.28616e-07 0)
(40.6671 5.25959e-07 0)
(40.6571 5.30559e-07 0)
(40.6476 5.26475e-07 0)
(40.6387 5.33293e-07 0)
(40.6304 5.27619e-07 0)
(40.6228 5.36127e-07 0)
(40.6158 5.27857e-07 0)
(40.6093 5.28989e-07 0)
(40.6034 5.24231e-07 0)
(40.598 5.31053e-07 0)
(40.593 5.22831e-07 0)
(40.5884 5.30302e-07 0)
(40.5842 5.20758e-07 0)
(40.5803 5.29298e-07 0)
(40.5768 5.18172e-07 0)
(40.5737 5.30477e-07 0)
(40.571 5.17647e-07 0)
(40.5687 5.29368e-07 0)
(40.5667 5.19392e-07 0)
(40.5652 5.48307e-07 0)
(40.564 6.6014e-07 0)
(40.5631 1.48167e-06 0)
(40.5624 7.10391e-06 0)
(40.5627 4.73184e-05 0)
(40.5696 0.000341067 0)
(40.6251 0.00268641 0)
(40.8356 0.0378011 0)
(45.8542 0.153602 0)
(36.5723 1.24576 -3.17589e-15)
(35.5379 3.57458 6.36982e-15)
(35.1306 6.22164 -1.19422e-14)
(34.7246 8.89716 2.46765e-14)
(34.0732 11.5399 -2.5462e-14)
(33.1657 14.1205 -1.59093e-15)
(31.997 16.6016 4.43703e-20)
(30.6918 19.0344 -2.22525e-14)
(29.6263 21.7057 -1.02919e-13)
(28.9077 24.8503 1.00756e-13)
(28.0219 28.1868 -2.5072e-14)
(26.3512 30.8954 -5.16902e-14)
(23.8376 32.5968 2.6629e-14)
(20.8844 33.528 0)
(17.7557 33.9275 2.52023e-14)
(14.6219 34.0478 2.53127e-14)
(11.7029 34.7445 -2.53596e-14)
(9.21751 37.2045 2.51004e-14)
(6.83542 41.8844 1.92683e-16)
(4.15227 49.1714 -1.87268e-16)
(37.7048 1.95934 0)
(37.0904 4.78421 0)
(36.6844 7.8958 -1.61747e-15)
(36.1675 10.9922 -3.23194e-15)
(35.3753 14.0443 8.0717e-15)
(34.2735 17.0601 1.61318e-14)
(32.8484 19.9686 0)
(31.3461 22.5857 9.6578e-15)
(30.2127 25.1325 1.60126e-14)
(29.3949 28.1865 -3.81478e-14)
(28.0929 31.9388 2.53029e-14)
(25.5974 35.5663 1.26578e-14)
(22.2212 37.9847 -1.26442e-14)
(18.3924 39.3774 1.26465e-14)
(14.4351 39.8887 0)
(10.7941 39.5315 -1.59233e-15)
(8.31095 38.8855 1.60322e-15)
(7.29567 39.4718 -5.56019e-15)
(6.00262 42.444 -7.81677e-16)
(4.8804 47.3001 0)
(40.4126 1.53232 -4.12986e-17)
(40.4161 2.5271 -2.09876e-14)
(40.5192 3.53983 2.13157e-14)
(40.7053 4.55186 -2.04876e-14)
(40.9284 5.63231 -2.24722e-14)
(41.1547 6.85719 8.36423e-14)
(41.3519 8.2863 -4.23371e-14)
(41.4536 9.96545 4.1028e-14)
(41.3631 11.8515 -8.3434e-14)
(41.0978 13.7895 1.33246e-15)
(40.8261 15.6675 4.11589e-14)
(40.6582 17.5848 0)
(40.4091 19.7768 -4.1223e-14)
(39.8524 22.2784 4.12279e-14)
(38.8595 25.0226 -3.32218e-16)
(37.3139 27.9286 0)
(35.0485 30.8463 3.32233e-16)
(32.0045 33.4869 0)
(28.8138 35.5463 0)
(26.3467 36.9849 0)
(44.3564 2.50934 6.33636e-16)
(44.0884 5.7795 -6.35684e-15)
(43.1249 9.66866 -1.27389e-15)
(41.9934 13.6525 2.54431e-15)
(40.9625 17.5819 -2.5336e-15)
(39.9582 21.4479 -4.3383e-19)
(38.8242 25.2455 -1.00208e-14)
(37.4224 28.9334 0)
(35.7173 32.497 0)
(33.7092 35.9323 -4.93207e-15)
(31.3695 39.1933 4.90774e-15)
(28.7169 42.2727 0)
(25.7435 45.111 -4.8637e-15)
(22.4759 47.6671 4.84853e-15)
(18.9528 49.9115 -4.83331e-15)
(15.218 51.8201 9.63758e-15)
(11.3206 53.3722 -4.80858e-15)
(7.31986 54.5563 0)
(3.29682 55.3959 -2.39283e-15)
(-0.410949 55.8841 0)
(47.244 1.74274 -9.67279e-16)
(48.1674 4.46713 7.41484e-15)
(47.8894 7.73689 5.15816e-15)
(47.1187 11.1631 1.03064e-14)
(46.3331 14.713 0)
(45.5453 18.3824 0)
(44.6213 22.1317 1.02058e-14)
(43.446 25.8794 2.54025e-15)
(41.9558 29.6126 -5.05757e-15)
(40.1599 33.2613 2.51845e-15)
(38.0186 36.7909 2.00625e-14)
(35.5521 40.141 -1.2493e-14)
(32.7513 43.2541 1.24567e-14)
(29.6285 46.086 -2.48428e-15)
(26.2095 48.6032 -9.91772e-15)
(22.5282 50.7747 -1.73348e-14)
(18.6262 52.5629 -8.66014e-15)
(14.5594 53.8998 -1.23727e-15)
(10.4104 54.6357 7.11844e-15)
(6.44282 54.4249 3.10284e-16)
(1.30052 58.8991 0)
(1.20993 55.7884 0)
(1.05458 53.9163 0)
(0.944394 55.2298 0)
(0.986373 56.6158 0)
(1.03221 56.8423 0)
(1.03982 56.5891 0)
(1.03702 56.4766 0)
(1.02759 56.5603 0)
(1.0298 56.6561 0)
(1.03383 56.669 0)
(1.03497 56.6411 0)
(1.03482 56.6159 0)
(1.03401 56.5983 0)
(1.03301 56.5831 0)
(1.03198 56.5658 0)
(1.03093 56.5449 0)
(1.02974 56.5217 0)
(1.02809 56.5036 0)
(1.02389 56.5134 0)
(1.02055 56.5649 0)
(1.02189 56.6221 0)
(1.02506 56.6441 0)
(1.02603 56.6336 0)
(1.02511 56.6063 0)
(1.02199 56.566 0)
(1.01536 56.52 0)
(1.00255 56.5022 0)
(0.978326 56.5923 0)
(0.957283 56.7885 0)
(0.945794 56.9532 0)
(0.933609 56.9858 0)
(0.91083 56.9109 0)
(0.878495 56.7797 0)
(0.838515 56.601 0)
(0.792319 56.3717 0)
(0.741229 56.0868 0)
(0.686546 55.7392 0)
(0.62951 55.3197 0)
(0.571241 54.8167 0)
(0.51264 54.2169 0)
(0.454498 53.5058 0)
(0.397828 52.6713 0)
(0.342943 51.7109 0)
(0.291303 50.634 0)
(0.243767 49.4642 0)
(0.20067 48.2437 0)
(0.163199 47.0241 0)
(0.130985 45.8577 0)
(0.103927 44.7925 0)
(0.0816588 43.8618 0)
(0.0636196 43.0818 0)
(0.0491364 42.4519 0)
(0.03756 41.9595 0)
(0.0283995 41.5854 0)
(0.0212056 41.3077 0)
(0.0156178 41.1058 0)
(0.0113358 40.9614 0)
(0.00810457 40.8598 0)
(0.00570629 40.789 0)
(0.00395645 40.7403 0)
(0.00270161 40.707 0)
(0.00181711 40.6843 0)
(0.00120414 40.6688 0)
(0.000786278 40.658 0)
(0.000506167 40.6503 0)
(0.000321285 40.6445 0)
(0.000201148 40.6399 0)
(0.000124266 40.636 0)
(7.5791e-05 40.6324 0)
(4.56684e-05 40.629 0)
(2.7215e-05 40.6255 0)
(1.60672e-05 40.6221 0)
(9.42454e-06 40.6185 0)
(5.51947e-06 40.6149 0)
(3.25412e-06 40.6112 0)
(1.95701e-06 40.6074 0)
(1.22293e-06 40.6037 0)
(8.10914e-07 40.5999 0)
(5.85129e-07 40.5962 0)
(4.63641e-07 40.5925 0)
(3.98323e-07 40.5888 0)
(3.63923e-07 40.5853 0)
(3.46297e-07 40.5819 0)
(3.37665e-07 40.5787 0)
(3.33778e-07 40.5756 0)
(3.32387e-07 40.5726 0)
(3.32273e-07 40.5699 0)
(3.32792e-07 40.5673 0)
(3.33599e-07 40.5649 0)
(3.34492e-07 40.5627 0)
(3.35401e-07 40.5607 0)
(3.36281e-07 40.5589 0)
(3.3712e-07 40.5572 0)