/*--------------------------------*- C++ -*----------------------------------*\
| =========                 |                                                 |
| \\      /  F ield         | OpenFOAM: The Open Source CFD Toolbox           |
|  \\    /   O peration     | Version:  3.0.x                                 |
|   \\  /    A nd           | Web:      www.OpenFOAM.org                      |
|    \\/     M anipulation  |                                                 |
\*---------------------------------------------------------------------------*/
FoamFile
{
    version     2.0;
    format      ascii;
    class       surfaceScalarField;
    location    "0.8";
    object      phi;
}
// * * * * * * * * * * * * * * * * * * * * * * * * * * * * * * * * * * * * * //

dimensions      [1 0 -1 0 0 0 0];

internalField   nonuniform List<scalar> 
999
(
2523.38
2523.38
2523.38
2523.38
2523.38
2523.38
2523.38
2523.38
2523.38
2523.38
2523.38
2523.38
2523.38
2523.38
2523.38
2523.38
2523.38
2523.38
2523.38
2523.38
2523.38
2523.38
2523.38
2523.38
2523.38
2523.38
2523.38
2523.38
2523.38
2523.38
2523.38
2523.38
2523.38
2523.38
2523.38
2523.38
2523.38
2523.38
2523.38
2523.38
2523.38
2523.38
2523.38
2523.38
2523.38
2523.38
2523.38
2523.38
2523.38
2523.38
2523.38
2523.38
2523.38
2523.38
2523.38
2523.38
2523.38
2523.38
2523.38
2523.38
2523.38
2523.38
2523.38
2523.38
2523.38
2523.38
2523.38
2523.38
2523.38
2523.38
2523.38
2523.38
2523.38
2523.38
2523.38
2523.38
2523.38
2523.38
2523.38
2523.38
2523.38
2523.38
2523.38
2523.38
2523.38
2523.38
2523.38
2523.38
2523.38
2523.38
2523.38
2523.38
2523.38
2523.38
2523.38
2523.38
2523.38
2523.38
2523.38
2523.38
2523.38
2523.38
2523.38
2523.38
2523.38
2523.38
2523.38
2523.38
2523.38
2523.38
2523.38
2523.38
2523.38
2523.38
2523.38
2523.38
2523.38
2523.38
2523.38
2523.38
2523.38
2523.38
2523.38
2523.38
2523.38
2523.38
2523.38
2523.38
2523.38
2523.38
2523.38
2523.38
2523.38
2523.38
2523.38
2523.38
2523.38
2523.38
2523.38
2523.38
2523.38
2523.38
2523.38
2523.38
2523.38
2523.38
2523.38
2523.38
2523.38
2523.38
2523.38
2523.38
2523.38
2523.38
2523.38
2523.38
2523.38
2523.38
2523.38
2523.38
2523.38
2523.38
2523.38
2523.38
2523.38
2523.38
2523.38
2523.38
2523.38
2523.38
2523.38
2523.38
2523.38
2523.38
2523.38
2523.38
2523.38
2523.38
2523.38
2523.38
2523.38
2523.38
2523.38
2523.38
2523.38
2523.38
2523.38
2523.38
2523.38
2523.38
2523.38
2523.38
2523.38
2523.38
2523.38
2523.38
2523.38
2523.38
2523.38
2523.38
2523.38
2523.38
2523.38
2523.38
2523.38
2523.38
2523.38
2523.38
2523.38
2523.38
2523.38
2523.38
2523.38
2523.38
2523.38
2523.38
2523.38
2523.38
2523.38
2523.38
2523.38
2523.38
2523.38
2523.38
2523.38
2523.38
2523.38
2523.38
2523.38
2523.38
2523.38
2523.38
2523.38
2523.38
2523.38
2523.38
2523.38
2523.38
2523.38
2523.38
2523.38
2523.38
2523.38
2523.38
2523.38
2523.38
2523.38
2523.38
2523.38
2523.38
2523.38
2523.38
2523.38
2523.38
2523.38
2523.38
2523.38
2523.38
2523.38
2523.38
2523.38
2523.38
2523.38
2523.38
2523.38
2523.38
2523.38
2523.38
2523.38
2523.38
2523.38
2523.38
2523.38
2523.38
2523.38
2523.38
2523.38
2523.38
2523.38
2523.38
2523.38
2523.38
2523.38
2523.38
2523.38
2523.38
2523.38
2523.38
2523.38
2523.38
2523.38
2523.38
2523.38
2523.38
2523.38
2523.38
2523.38
2523.38
2523.38
2523.38
2523.38
2523.38
2523.38
2523.38
2523.38
2523.38
2523.38
2523.38
2523.38
2523.38
2523.38
2523.38
2523.38
2523.38
2523.38
2523.38
2523.38
2523.38
2523.38
2523.38
2523.38
2523.38
2523.38
2523.38
2523.38
2523.38
2523.38
2523.38
2523.38
2523.38
2523.38
2523.38
2523.38
2523.38
2523.38
2523.38
2523.38
2523.38
2523.38
2523.38
2523.38
2523.38
2523.38
2523.38
2523.38
2523.38
2523.38
2523.38
2523.38
2523.38
2523.38
2523.38
2523.38
2523.38
2523.38
2523.38
2523.38
2523.38
2523.38
2523.38
2523.38
2523.38
2523.38
2523.38
2523.38
2523.38
2523.38
2523.38
2523.38
2523.38
2523.38
2523.38
2523.38
2523.38
2523.38
2523.38
2523.38
2523.38
2523.38
2523.38
2523.38
2523.38
2523.38
2523.38
2523.38
2523.38
2523.38
2523.38
2523.38
2523.38
2523.38
2523.38
2523.38
2523.38
2523.38
2523.38
2523.38
2523.38
2523.38
2523.38
2523.38
2523.38
2523.38
2523.38
2523.38
2523.38
2523.38
2523.38
2523.38
2523.38
2523.38
2523.38
2523.38
2523.38
2523.38
2523.38
2523.38
2523.38
2523.38
2523.38
2523.38
2523.38
2523.38
2523.38
2523.38
2523.38
2523.38
2523.38
2523.38
2523.38
2523.38
2523.38
2523.38
2523.38
2523.38
2523.38
2523.38
2523.38
2523.38
2523.38
2523.38
2523.38
2523.38
2523.38
2523.38
2523.38
2523.38
2523.38
2523.38
2523.38
2523.38
2523.38
2523.38
2523.38
2523.38
2523.38
2523.38
2523.38
2523.38
2523.38
2523.38
2523.38
2523.38
2523.38
2523.38
2523.38
2523.38
2523.38
2523.38
2523.38
2523.38
2523.38
2523.38
2523.38
2523.38
2523.38
2523.38
2523.38
2523.38
2523.38
2523.38
2523.38
2523.38
2523.38
2523.38
2523.38
2523.38
2523.38
2523.38
2523.38
2523.38
2523.38
2523.38
2523.38
2523.38
2523.38
2523.38
2523.38
2523.38
2523.38
2523.38
2523.38
2523.38
2523.38
2523.38
2523.38
2523.38
2523.38
2523.38
2523.38
2523.38
2523.38
2523.38
2523.38
2523.38
2523.38
2523.38
2523.38
2523.38
2523.38
2523.38
2523.38
2523.38
2523.38
2523.38
2523.38
2523.38
2523.38
2523.38
2523.38
2523.38
2523.38
2523.38
2523.38
2523.38
2523.38
2523.38
2523.38
2523.38
2523.38
2523.38
2523.38
2523.38
2523.38
2523.38
2523.38
2523.38
2523.38
2523.38
2523.38
2523.38
2523.38
2523.38
2523.38
2523.38
2523.38
2523.38
2523.38
2523.38
2523.37
2523.37
2523.37
2523.36
2523.36
2523.35
2523.34
2523.33
2523.31
2523.3
2523.27
2523.25
2523.21
2523.17
2523.12
2523.06
2522.98
2522.89
2522.78
2522.65
2522.49
2522.3
2522.07
2521.8
2521.47
2521.09
2520.64
2520.11
2519.49
2518.76
2517.92
2516.94
2515.8
2514.49
2512.98
2511.24
2509.26
2506.99
2504.42
2501.49
2498.19
2494.46
2490.26
2485.56
2480.3
2474.43
2467.91
2460.67
2452.67
2443.84
2434.13
2423.48
2411.83
2399.13
2385.31
2370.33
2354.11
2336.63
2317.82
2297.65
2276.08
2253.07
2228.6
2202.65
2175.22
2146.3
2115.89
2084.01
2050.69
2015.96
1979.86
1942.44
1903.76
1863.9
1822.91
1780.89
1737.92
1694.09
1649.48
1604.21
1558.37
1512.05
1465.35
1418.38
1371.23
1323.99
1276.77
1229.64
1182.69
1136.01
1089.68
1043.78
998.373
953.537
909.337
865.837
823.094
781.168
740.111
699.973
660.802
622.642
585.534
549.516
514.623
480.886
448.334
416.989
386.874
358.004
330.393
304.049
278.975
255.172
232.635
211.355
191.318
172.506
154.896
138.463
123.175
108.999
95.8976
83.8295
72.7524
62.6211
53.3891
45.0084
37.4308
30.6078
24.4916
19.0358
14.1957
9.92969
6.19983
2.97422
0.238213
-1.94225
-3.65558
-5.10989
-6.34024
-7.38003
-8.25686
-8.99289
-9.60652
-10.114
-10.53
-10.868
-11.14
-11.3567
-11.5272
-11.6596
-11.7607
-11.8365
-11.8918
-11.9308
-11.9571
-11.9734
-11.982
-11.9849
-11.9836
-11.9792
-11.9727
-11.9648
-11.9561
-11.947
-11.9379
-11.929
-11.9206
-11.9128
-11.9054
-11.8985
-11.8919
-11.8855
-11.8794
-11.8734
-11.8676
-11.862
-11.8567
-11.8516
-11.8469
-11.8424
-11.8382
-11.8341
-11.8302
-11.8263
-11.8225
-11.8186
-11.8147
-11.8108
-11.8069
-11.803
-11.7993
-11.7957
-11.7923
-11.789
-11.7859
-11.783
-11.7802
-11.7776
-11.7752
-11.7729
-11.7707
-11.7686
-11.7666
-11.7647
-11.7629
-11.7612
-11.7596
-11.7581
-11.7566
-11.7552
-11.7539
-11.7526
-11.7515
-11.7504
-11.7494
-11.7485
-11.7477
-11.7471
-11.7466
-11.7462
-11.746
-11.7458
-11.7458
-11.7458
-11.7459
-11.746
-11.746
-11.746
-11.7459
-11.7458
-11.7456
-11.7453
-11.745
-11.7447
-11.7443
-11.7438
-11.7432
-11.7426
-11.7419
-11.741
-11.7401
-11.7391
-11.738
-11.7368
-11.7355
-11.7343
-11.733
-11.7317
-11.7304
-11.7291
-11.7279
-11.7267
-11.7256
-11.7245
-11.7235
-11.7226
-11.7217
-11.7208
-11.72
-11.7192
-11.7184
-11.7177
-11.7171
-11.7164
-11.7158
-11.7152
-11.7147
-11.7142
-11.7137
-11.7133
-11.713
-11.7127
-11.7124
-11.7123
-11.7122
-11.7122
-11.7123
-11.7125
-11.7128
-11.7131
-11.7135
-11.714
-11.7146
-11.7151
-11.7157
-11.7163
-11.7168
-11.7174
-11.7179
-11.7184
-11.7188
-11.7192
-11.7195
-11.7198
-11.72
-11.7201
-11.7202
-11.7201
-11.72
-11.7198
-11.7195
-11.7191
-11.7186
-11.7181
-11.7175
-11.7168
-11.7161
-11.7153
-11.7146
-11.7138
-11.713
-11.7122
-11.7114
-11.7106
-11.7099
-11.7091
-11.7084
-11.7077
-11.707
-11.7063
-11.7056
-11.705
-11.7044
-11.7038
-11.7032
-11.7026
-11.7021
-11.7016
-11.7011
-11.7006
-11.7002
-11.6998
-11.6995
-11.6992
-11.699
-11.6988
-11.6986
-11.6986
-11.6986
-11.6986
-11.6988
-11.699
-11.6993
-11.6996
-11.7001
-11.7005
-11.7011
-11.7016
-11.7023
-11.7029
-11.7036
-11.7042
-11.7049
-11.7056
-11.7062
-11.7068
-11.7074
-11.7079
-11.7085
-11.7089
-11.7093
-11.7097
-11.71
-11.7102
-11.7104
-11.7105
-11.7105
-11.7105
-11.7104
-11.7102
-11.71
-11.7098
-11.7095
-11.7091
-11.7088
-11.7084
-11.708
-11.7076
-11.7072
-11.7068
-11.7064
-11.706
-11.7056
-11.7053
-11.705
-11.7047
-11.7044
-11.7041
-11.7039
-11.7036
-11.7034
-11.7032
-11.7031
-11.7029
-11.7028
-11.7026
-11.7025
-11.7024
-11.7024
-11.7023
-11.7023
-11.7023
-11.7023
-11.7023
-11.7023
-11.7024
-11.7025
-11.7026
-11.7028
-11.703
-11.7032
-11.7035
-11.7039
-11.7042
-11.7046
-11.7051
-11.7056
-11.7061
-11.7067
-11.7073
-11.708
-11.7087
-11.7094
-11.71
-11.7107
-11.7114
-11.7121
-11.7128
-11.7134
-11.7139
-11.7145
-11.7149
-11.7154
-11.7157
-11.716
-11.7163
-11.7164
-11.7166
)
;

boundaryField
{
    inlet
    {
        type            calculated;
        value           uniform -2523.38;
    }
    backWall
    {
        type            calculated;
        value           uniform -11.7167;
    }
    sides
    {
        type            empty;
        value           nonuniform 0();
    }
}


// ************************************************************************* //
