/*--------------------------------*- C++ -*----------------------------------*\
| =========                 |                                                 |
| \\      /  F ield         | OpenFOAM: The Open Source CFD Toolbox           |
|  \\    /   O peration     | Version:  3.0.x                                 |
|   \\  /    A nd           | Web:      www.OpenFOAM.org                      |
|    \\/     M anipulation  |                                                 |
\*---------------------------------------------------------------------------*/
FoamFile
{
    version     2.0;
    format      ascii;
    class       volVectorField;
    location    "0.8";
    object      U;
}
// * * * * * * * * * * * * * * * * * * * * * * * * * * * * * * * * * * * * * //

dimensions      [0 1 -1 0 0 0 0];

internalField   nonuniform List<vector> 
1000
(
(50 0 0)
(50 0 0)
(50 0 0)
(50 0 0)
(50 0 0)
(50 0 0)
(50 0 0)
(50 0 0)
(50 0 0)
(50 0 0)
(50 0 0)
(50 0 0)
(50 0 0)
(50 0 0)
(50 0 0)
(50 0 0)
(50 0 0)
(50 0 0)
(50 0 0)
(50 0 0)
(50 0 0)
(50 0 0)
(50 0 0)
(50 0 0)
(50 0 0)
(50 0 0)
(50 0 0)
(50 0 0)
(50 0 0)
(50 0 0)
(50 0 0)
(50 0 0)
(50 0 0)
(50 0 0)
(50 0 0)
(50 0 0)
(50 0 0)
(50 0 0)
(50 0 0)
(50 0 0)
(50 0 0)
(50 0 0)
(50 0 0)
(50 0 0)
(50 0 0)
(50 0 0)
(50 0 0)
(50 0 0)
(50 0 0)
(50 0 0)
(50 0 0)
(50 0 0)
(50 0 0)
(50 0 0)
(50 0 0)
(50 0 0)
(50 0 0)
(50 0 0)
(50 0 0)
(50 0 0)
(50 0 0)
(50 0 0)
(50 0 0)
(50 0 0)
(50 0 0)
(50 0 0)
(50 0 0)
(50 0 0)
(50 0 0)
(50 0 0)
(50 0 0)
(50 0 0)
(50 0 0)
(50 0 0)
(50 0 0)
(50 0 0)
(50 0 0)
(50 0 0)
(50 0 0)
(50 0 0)
(50 0 0)
(50 0 0)
(50 0 0)
(50 0 0)
(50 0 0)
(50 0 0)
(50 0 0)
(50 0 0)
(50 0 0)
(50 0 0)
(50 0 0)
(50 0 0)
(50 0 0)
(50 0 0)
(50 0 0)
(50 0 0)
(50 0 0)
(50 0 0)
(50 0 0)
(50 0 0)
(50 0 0)
(50 0 0)
(50 0 0)
(50 0 0)
(50 0 0)
(50 0 0)
(50 0 0)
(50 0 0)
(50 0 0)
(50 0 0)
(50 0 0)
(50 0 0)
(50 0 0)
(50 0 0)
(50 0 0)
(50 0 0)
(50 0 0)
(50 0 0)
(50 0 0)
(50 0 0)
(50 0 0)
(50 0 0)
(50 0 0)
(50 0 0)
(50 0 0)
(50 0 0)
(50 0 0)
(50 0 0)
(50 0 0)
(50 0 0)
(50 0 0)
(50 0 0)
(50 0 0)
(50 0 0)
(50 0 0)
(50 0 0)
(50 0 0)
(50 0 0)
(50 0 0)
(50 0 0)
(50 0 0)
(50 0 0)
(50 0 0)
(50 0 0)
(50 0 0)
(50 0 0)
(50 0 0)
(50 0 0)
(50 0 0)
(50 0 0)
(50 0 0)
(50 0 0)
(50 0 0)
(50 0 0)
(50 0 0)
(50 0 0)
(50 0 0)
(50 0 0)
(50 0 0)
(50 0 0)
(50 0 0)
(50 0 0)
(50 0 0)
(50 0 0)
(50 0 0)
(50 0 0)
(50 0 0)
(50 0 0)
(50 0 0)
(50 0 0)
(50 0 0)
(50 0 0)
(50 0 0)
(50 0 0)
(50 0 0)
(50 0 0)
(50 0 0)
(50 0 0)
(50 0 0)
(50 0 0)
(50 0 0)
(50 0 0)
(50 0 0)
(50 0 0)
(50 0 0)
(50 0 0)
(50 0 0)
(50 0 0)
(50 0 0)
(50 0 0)
(50 0 0)
(50 0 0)
(50 0 0)
(50 0 0)
(50 0 0)
(50 0 0)
(50 0 0)
(50 0 0)
(50 0 0)
(50 0 0)
(50 0 0)
(50 0 0)
(50 0 0)
(50 0 0)
(50 0 0)
(50 0 0)
(50 0 0)
(50 0 0)
(50 0 0)
(50 0 0)
(50 0 0)
(50 0 0)
(50 0 0)
(50 0 0)
(50 0 0)
(50 0 0)
(50 0 0)
(50 0 0)
(50 0 0)
(50 0 0)
(50 0 0)
(50 0 0)
(50 0 0)
(50 0 0)
(50 0 0)
(50 0 0)
(50 0 0)
(50 0 0)
(50 0 0)
(50 0 0)
(50 0 0)
(50 0 0)
(50 0 0)
(50 0 0)
(50 0 0)
(50 0 0)
(50 0 0)
(50 0 0)
(50 0 0)
(50 0 0)
(50 0 0)
(50 0 0)
(50 0 0)
(50 0 0)
(50 0 0)
(50 0 0)
(50 0 0)
(50 0 0)
(50 0 0)
(50 0 0)
(50 0 0)
(50 0 0)
(50 0 0)
(50 0 0)
(50 0 0)
(50 0 0)
(50 0 0)
(50 0 0)
(50 0 0)
(50 0 0)
(50 0 0)
(50 0 0)
(50 0 0)
(50 0 0)
(50 0 0)
(50 0 0)
(50 0 0)
(50 0 0)
(50 0 0)
(50 0 0)
(50 0 0)
(50 0 0)
(50 0 0)
(50 0 0)
(50 0 0)
(50 0 0)
(50 0 0)
(50 0 0)
(50 0 0)
(50 0 0)
(50 0 0)
(50 0 0)
(50 0 0)
(50 0 0)
(50 0 0)
(50 0 0)
(50 0 0)
(50 0 0)
(50 0 0)
(50 0 0)
(50 0 0)
(50 0 0)
(50 0 0)
(50 0 0)
(50 0 0)
(50 0 0)
(50 0 0)
(50 0 0)
(50 0 0)
(50 0 0)
(50 0 0)
(50 0 0)
(50 0 0)
(50 0 0)
(50 0 0)
(50 0 0)
(50 0 0)
(50 0 0)
(50 0 0)
(50 0 0)
(50 0 0)
(50 0 0)
(50 0 0)
(50 0 0)
(50 0 0)
(50 0 0)
(50 0 0)
(50 0 0)
(50 0 0)
(50 0 0)
(50 0 0)
(50 0 0)
(50 0 0)
(50 0 0)
(50 0 0)
(50 0 0)
(50 0 0)
(50 0 0)
(50 0 0)
(50 0 0)
(50 0 0)
(50 0 0)
(50 0 0)
(50 0 0)
(50 0 0)
(50 0 0)
(50 0 0)
(50 0 0)
(50 0 0)
(50 0 0)
(50 0 0)
(50 0 0)
(50 0 0)
(50 0 0)
(50 0 0)
(50 0 0)
(50 0 0)
(50 0 0)
(50 0 0)
(50 0 0)
(50 0 0)
(50 0 0)
(50 0 0)
(50 0 0)
(50 0 0)
(50 0 0)
(50 0 0)
(50 0 0)
(50 0 0)
(50 0 0)
(50 0 0)
(50 0 0)
(50 0 0)
(50 0 0)
(50 0 0)
(50 0 0)
(50 0 0)
(50 0 0)
(50 0 0)
(50 0 0)
(50 0 0)
(50 0 0)
(50 0 0)
(50 0 0)
(50 0 0)
(50 0 0)
(50 0 0)
(50 0 0)
(50 0 0)
(50 0 0)
(50 0 0)
(50 0 0)
(50 0 0)
(50 0 0)
(50 0 0)
(50 0 0)
(50 0 0)
(50 0 0)
(50 0 0)
(50 0 0)
(50 0 0)
(50 0 0)
(50 0 0)
(50 0 0)
(50 0 0)
(50 0 0)
(50 0 0)
(50 0 0)
(50 0 0)
(50 0 0)
(50 0 0)
(50 0 0)
(50 0 0)
(50 0 0)
(50 0 0)
(50 0 0)
(50 0 0)
(50 0 0)
(50 0 0)
(50 0 0)
(50 0 0)
(50 0 0)
(50 0 0)
(50 0 0)
(50 0 0)
(50 0 0)
(50 0 0)
(50 0 0)
(50 0 0)
(50 0 0)
(50 0 0)
(50 0 0)
(50 0 0)
(50 0 0)
(50 0 0)
(50 0 0)
(50 0 0)
(50 0 0)
(50 0 0)
(50 0 0)
(50 0 0)
(50 0 0)
(50 0 0)
(50 0 0)
(50 0 0)
(50 0 0)
(50 0 0)
(50 0 0)
(50 0 0)
(50 0 0)
(50 0 0)
(50 0 0)
(50 0 0)
(50 0 0)
(50 0 0)
(50 0 0)
(50 0 0)
(50 0 0)
(50 0 0)
(50 0 0)
(50 0 0)
(50 0 0)
(50 0 0)
(50 0 0)
(50 0 0)
(50 0 0)
(50 0 0)
(50 0 0)
(50 0 0)
(50 0 0)
(50 0 0)
(50 0 0)
(50 0 0)
(50 0 0)
(50 0 0)
(50 0 0)
(50 0 0)
(50 0 0)
(50 0 0)
(50 0 0)
(50 0 0)
(50 0 0)
(50 0 0)
(50 0 0)
(50 0 0)
(50 0 0)
(50 0 0)
(50 0 0)
(50 0 0)
(50 0 0)
(50 0 0)
(50 0 0)
(50 0 0)
(50 0 0)
(50 0 0)
(50 0 0)
(50 0 0)
(50 0 0)
(50 0 0)
(50 0 0)
(50 0 0)
(50 0 0)
(50 0 0)
(50 0 0)
(50 0 0)
(50 0 0)
(50 0 0)
(50 0 0)
(50 0 0)
(50 0 0)
(50 0 0)
(50 0 0)
(50 0 0)
(50 0 0)
(50 0 0)
(50 0 0)
(50 0 0)
(50 0 0)
(50 0 0)
(50 0 0)
(50 0 0)
(50 0 0)
(50 0 0)
(50 0 0)
(50 0 0)
(50 0 0)
(50 0 0)
(50 0 0)
(50 0 0)
(50 0 0)
(50 0 0)
(50 0 0)
(50 0 0)
(50 0 0)
(50 0 0)
(50 0 0)
(50 0 0)
(50 0 0)
(50 0 0)
(50 0 0)
(50 0 0)
(50 0 0)
(50 0 0)
(50 0 0)
(50 0 0)
(50 0 0)
(50 0 0)
(50 0 0)
(50 0 0)
(50 0 0)
(50 0 0)
(50 0 0)
(50 0 0)
(50 0 0)
(50 0 0)
(50 0 0)
(50 0 0)
(50 0 0)
(50 0 0)
(50 0 0)
(50 0 0)
(50 0 0)
(50 0 0)
(50 0 0)
(50 0 0)
(49.9999 0 0)
(49.9999 0 0)
(49.9999 0 0)
(49.9999 0 0)
(49.9998 0 0)
(49.9998 0 0)
(49.9997 0 0)
(49.9996 0 0)
(49.9995 0 0)
(49.9994 0 0)
(49.9992 0 0)
(49.999 0 0)
(49.9987 0 0)
(49.9983 0 0)
(49.9979 0 0)
(49.9974 0 0)
(49.9967 0 0)
(49.9959 0 0)
(49.9949 0 0)
(49.9937 0 0)
(49.9923 0 0)
(49.9905 0 0)
(49.9883 0 0)
(49.9857 0 0)
(49.9826 0 0)
(49.9788 0 0)
(49.9743 0 0)
(49.969 0 0)
(49.9626 0 0)
(49.955 0 0)
(49.9461 0 0)
(49.9356 0 0)
(49.9233 0 0)
(49.9089 0 0)
(49.8921 0 0)
(49.8725 0 0)
(49.8498 0 0)
(49.8236 0 0)
(49.7934 0 0)
(49.7587 0 0)
(49.7189 0 0)
(49.6734 0 0)
(49.6216 0 0)
(49.5628 0 0)
(49.4962 0 0)
(49.4209 0 0)
(49.3362 0 0)
(49.2411 0 0)
(49.1346 0 0)
(49.0157 0 0)
(48.8834 0 0)
(48.7365 0 0)
(48.5739 0 0)
(48.3944 0 0)
(48.1968 0 0)
(47.98 0 0)
(47.7426 0 0)
(47.4836 0 0)
(47.2017 0 0)
(46.8958 0 0)
(46.5648 0 0)
(46.2077 0 0)
(45.8235 0 0)
(45.4113 0 0)
(44.9705 0 0)
(44.5003 0 0)
(44.0004 0 0)
(43.4704 0 0)
(42.9102 0 0)
(42.3197 0 0)
(41.6992 0 0)
(41.0491 0 0)
(40.37 0 0)
(39.6627 0 0)
(38.9281 0 0)
(38.1675 0 0)
(37.3821 0 0)
(36.5734 0 0)
(35.743 0 0)
(34.8928 0 0)
(34.0244 0 0)
(33.14 0 0)
(32.2415 0 0)
(31.331 0 0)
(30.4104 0 0)
(29.482 0 0)
(28.5477 0 0)
(27.6096 0 0)
(26.6696 0 0)
(25.7298 0 0)
(24.7919 0 0)
(23.8578 0 0)
(22.9292 0 0)
(22.0077 0 0)
(21.0949 0 0)
(20.1923 0 0)
(19.3012 0 0)
(18.4229 0 0)
(17.5587 0 0)
(16.7097 0 0)
(15.8769 0 0)
(15.0615 0 0)
(14.2643 0 0)
(13.4862 0 0)
(12.7279 0 0)
(11.9903 0 0)
(11.274 0 0)
(10.5795 0 0)
(9.90754 0 0)
(9.25851 0 0)
(8.63283 0 0)
(8.03088 0 0)
(7.45295 0 0)
(6.89926 0 0)
(6.36995 0 0)
(5.86512 0 0)
(5.38477 0 0)
(4.92882 0 0)
(4.49713 0 0)
(4.08947 0 0)
(3.70555 0 0)
(3.34498 0 0)
(3.00731 0 0)
(2.69201 0 0)
(2.39851 0 0)
(2.12614 0 0)
(1.8742 0 0)
(1.64191 0 0)
(1.42847 0 0)
(1.23303 0 0)
(1.05473 0 0)
(0.892666 0 0)
(0.745933 0 0)
(0.613627 0 0)
(0.494855 0 0)
(0.388747 0 0)
(0.29447 0 0)
(0.211246 0 0)
(0.138377 0 0)
(0.0752974 0 0)
(0.0217838 0 0)
(-0.0209822 0 0)
(-0.055102 0 0)
(-0.0841564 0 0)
(-0.108764 0 0)
(-0.129545 0 0)
(-0.147066 0 0)
(-0.161791 0 0)
(-0.174095 0 0)
(-0.184299 0 0)
(-0.192686 0 0)
(-0.199517 0 0)
(-0.205024 0 0)
(-0.209417 0 0)
(-0.212872 0 0)
(-0.215559 0 0)
(-0.217574 0 0)
(-0.219124 0 0)
(-0.220098 0 0)
(-0.220755 0 0)
(-0.221366 0 0)
(-0.221716 0 0)
(-0.221913 0 0)
(-0.22198 0 0)
(-0.221975 0 0)
(-0.221852 0 0)
(-0.221739 0 0)
(-0.221709 0 0)
(-0.221598 0 0)
(-0.221436 0 0)
(-0.221259 0 0)
(-0.221076 0 0)
(-0.220893 0 0)
(-0.220717 0 0)
(-0.220548 0 0)
(-0.220386 0 0)
(-0.22023 0 0)
(-0.220078 0 0)
(-0.219929 0 0)
(-0.219782 0 0)
(-0.21964 0 0)
(-0.219496 0 0)
(-0.219366 0 0)
(-0.21921 0 0)
(-0.219112 0 0)
(-0.218928 0 0)
(-0.21874 0 0)
(-0.218686 0 0)
(-0.21859 0 0)
(-0.218503 0 0)
(-0.218414 0 0)
(-0.218331 0 0)
(-0.218238 0 0)
(-0.21813 0 0)
(-0.218095 0 0)
(-0.218068 0 0)
(-0.21799 0 0)
(-0.217921 0 0)
(-0.217848 0 0)
(-0.217777 0 0)
(-0.217706 0 0)
(-0.217638 0 0)
(-0.217572 0 0)
(-0.217509 0 0)
(-0.217447 0 0)
(-0.217388 0 0)
(-0.217331 0 0)
(-0.217276 0 0)
(-0.217222 0 0)
(-0.217171 0 0)
(-0.217117 0 0)
(-0.217073 0 0)
(-0.21701 0 0)
(-0.216981 0 0)
(-0.216911 0 0)
(-0.21682 0 0)
(-0.216804 0 0)
(-0.216774 0 0)
(-0.21674 0 0)
(-0.216713 0 0)
(-0.216677 0 0)
(-0.21667 0 0)
(-0.216616 0 0)
(-0.216597 0 0)
(-0.216637 0 0)
(-0.21662 0 0)
(-0.216615 0 0)
(-0.216608 0 0)
(-0.216601 0 0)
(-0.216595 0 0)
(-0.216589 0 0)
(-0.216583 0 0)
(-0.216576 0 0)
(-0.216569 0 0)
(-0.21656 0 0)
(-0.21655 0 0)
(-0.216538 0 0)
(-0.216526 0 0)
(-0.216512 0 0)
(-0.216497 0 0)
(-0.216481 0 0)
(-0.216464 0 0)
(-0.216445 0 0)
(-0.216425 0 0)
(-0.216401 0 0)
(-0.216374 0 0)
(-0.216355 0 0)
(-0.216297 0 0)
(-0.216262 0 0)
(-0.216255 0 0)
(-0.216218 0 0)
(-0.216191 0 0)
(-0.216164 0 0)
(-0.216127 0 0)
(-0.216116 0 0)
(-0.216062 0 0)
(-0.216035 0 0)
(-0.21605 0 0)
(-0.216016 0 0)
(-0.215998 0 0)
(-0.215976 0 0)
(-0.215954 0 0)
(-0.215934 0 0)
(-0.215913 0 0)
(-0.215893 0 0)
(-0.215874 0 0)
(-0.215856 0 0)
(-0.215838 0 0)
(-0.21582 0 0)
(-0.215803 0 0)
(-0.215787 0 0)
(-0.215771 0 0)
(-0.215756 0 0)
(-0.215742 0 0)
(-0.215728 0 0)
(-0.215715 0 0)
(-0.215703 0 0)
(-0.215692 0 0)
(-0.215682 0 0)
(-0.215672 0 0)
(-0.215666 0 0)
(-0.215657 0 0)
(-0.215659 0 0)
(-0.215641 0 0)
(-0.21566 0 0)
(-0.21564 0 0)
(-0.215624 0 0)
(-0.215656 0 0)
(-0.215648 0 0)
(-0.215659 0 0)
(-0.215665 0 0)
(-0.215672 0 0)
(-0.215681 0 0)
(-0.215682 0 0)
(-0.215701 0 0)
(-0.215688 0 0)
(-0.215698 0 0)
(-0.215728 0 0)
(-0.21572 0 0)
(-0.21573 0 0)
(-0.215731 0 0)
(-0.215732 0 0)
(-0.215731 0 0)
(-0.215729 0 0)
(-0.215725 0 0)
(-0.215719 0 0)
(-0.215711 0 0)
(-0.215702 0 0)
(-0.215691 0 0)
(-0.215679 0 0)
(-0.215666 0 0)
(-0.215651 0 0)
(-0.215635 0 0)
(-0.215619 0 0)
(-0.215602 0 0)
(-0.215585 0 0)
(-0.215568 0 0)
(-0.21555 0 0)
(-0.215533 0 0)
(-0.215516 0 0)
(-0.215499 0 0)
(-0.215482 0 0)
(-0.215466 0 0)
(-0.215449 0 0)
(-0.215434 0 0)
(-0.215418 0 0)
(-0.215403 0 0)
(-0.215389 0 0)
(-0.215374 0 0)
(-0.21536 0 0)
(-0.215347 0 0)
(-0.215334 0 0)
(-0.215321 0 0)
(-0.215309 0 0)
(-0.215297 0 0)
(-0.215285 0 0)
(-0.215275 0 0)
(-0.215265 0 0)
(-0.215255 0 0)
(-0.215247 0 0)
(-0.215239 0 0)
(-0.215233 0 0)
(-0.215227 0 0)
(-0.215222 0 0)
(-0.21522 0 0)
(-0.215217 0 0)
(-0.215216 0 0)
(-0.215219 0 0)
(-0.215215 0 0)
(-0.21522 0 0)
(-0.215228 0 0)
(-0.215232 0 0)
(-0.215241 0 0)
(-0.215249 0 0)
(-0.215258 0 0)
(-0.215268 0 0)
(-0.215278 0 0)
(-0.215288 0 0)
(-0.215299 0 0)
(-0.215309 0 0)
(-0.215319 0 0)
(-0.215329 0 0)
(-0.215338 0 0)
(-0.215347 0 0)
(-0.215355 0 0)
(-0.215362 0 0)
(-0.215368 0 0)
(-0.215374 0 0)
(-0.215378 0 0)
(-0.215381 0 0)
(-0.215383 0 0)
(-0.215384 0 0)
(-0.215384 0 0)
(-0.215382 0 0)
(-0.21538 0 0)
(-0.215376 0 0)
(-0.215371 0 0)
(-0.215365 0 0)
(-0.215358 0 0)
(-0.215351 0 0)
(-0.215343 0 0)
(-0.215335 0 0)
(-0.215326 0 0)
(-0.215317 0 0)
(-0.215308 0 0)
(-0.215299 0 0)
(-0.215291 0 0)
(-0.215282 0 0)
(-0.215274 0 0)
(-0.215266 0 0)
(-0.215258 0 0)
(-0.215252 0 0)
(-0.215241 0 0)
(-0.215242 0 0)
(-0.215229 0 0)
(-0.215222 0 0)
(-0.215226 0 0)
(-0.215215 0 0)
(-0.215214 0 0)
(-0.215209 0 0)
(-0.215205 0 0)
(-0.215202 0 0)
(-0.215199 0 0)
(-0.215196 0 0)
(-0.215193 0 0)
(-0.215191 0 0)
(-0.215189 0 0)
(-0.215187 0 0)
(-0.215185 0 0)
(-0.215184 0 0)
(-0.215184 0 0)
(-0.215184 0 0)
(-0.215184 0 0)
(-0.215185 0 0)
(-0.215186 0 0)
(-0.215188 0 0)
(-0.215191 0 0)
(-0.215195 0 0)
(-0.215199 0 0)
(-0.215204 0 0)
(-0.21521 0 0)
(-0.215217 0 0)
(-0.215224 0 0)
(-0.215236 0 0)
(-0.215231 0 0)
(-0.21527 0 0)
(-0.215246 0 0)
(-0.215266 0 0)
(-0.215303 0 0)
(-0.215282 0 0)
(-0.215314 0 0)
(-0.215317 0 0)
(-0.215331 0 0)
(-0.215341 0 0)
(-0.215353 0 0)
(-0.215352 0 0)
(-0.215409 0 0)
(-0.215234 0 0)
(-0.215818 0 0)
(-0.213162 0 0)
(-0.219112 0 0)
(-0.208782 0 0)
(-0.222161 0 0)
(-0.211065 0 0)
(-0.215095 0 0)
)
;

boundaryField
{
    inlet
    {
        type            fixedValue;
        value           uniform (50 0 0);
    }
    backWall
    {
        type            zeroGradient;
    }
    sides
    {
        type            empty;
    }
}


// ************************************************************************* //
