/*--------------------------------*- C++ -*----------------------------------*\
| =========                 |                                                 |
| \\      /  F ield         | OpenFOAM: The Open Source CFD Toolbox           |
|  \\    /   O peration     | Version:  3.0.x                                 |
|   \\  /    A nd           | Web:      www.OpenFOAM.org                      |
|    \\/     M anipulation  |                                                 |
\*---------------------------------------------------------------------------*/
FoamFile
{
    version     2.0;
    format      ascii;
    class       surfaceScalarField;
    location    "0.1";
    object      phi;
}
// * * * * * * * * * * * * * * * * * * * * * * * * * * * * * * * * * * * * * //

dimensions      [1 0 -1 0 0 0 0];

internalField   nonuniform List<scalar> 
12415
(
5.75706
0.000327881
5.75525
0.000235166
5.75346
0.000225351
5.75168
0.000227318
5.74991
0.000227754
5.74815
0.000227417
5.74639
0.000226896
5.74463
0.0002258
5.74289
0.000223607
5.74116
0.000219722
5.73946
0.000213493
5.73778
0.000204335
5.73613
0.000191898
5.73451
0.000176199
5.73294
0.000157686
5.7314
0.000137195
5.72992
0.000115825
5.72848
9.4749e-05
5.72709
7.5033e-05
5.72576
5.74879e-05
5.72447
4.25976e-05
5.72324
3.05179e-05
5.72205
2.11306e-05
5.72092
1.41292e-05
5.71984
9.11493e-06
5.71881
5.64405e-06
5.71783
3.34696e-06
5.7169
1.87246e-06
5.71603
9.52768e-07
5.7152
4.00802e-07
5.71442
8.24075e-08
5.71369
-9.33705e-08
5.71299
-1.86057e-07
5.71234
-2.31936e-07
5.71171
-2.52418e-07
5.7111
-2.59852e-07
5.71052
-2.60976e-07
5.70994
-2.5947e-07
5.70935
-2.57402e-07
5.70876
-2.55735e-07
5.70815
-2.55002e-07
5.70751
-2.55439e-07
5.70683
-2.57156e-07
5.70611
-2.60185e-07
5.70533
-2.64463e-07
5.70449
-2.699e-07
5.70357
-2.76372e-07
5.70259
-2.83719e-07
5.70152
-2.91795e-07
5.70038
-3.00397e-07
5.69915
-3.09237e-07
5.69784
-3.18163e-07
5.69645
-3.26952e-07
5.69499
-3.35322e-07
5.69345
-3.43105e-07
5.69184
-3.50083e-07
5.69017
-3.561e-07
5.68845
-3.60984e-07
5.68669
-3.64586e-07
5.68489
-3.66823e-07
5.68306
-3.67598e-07
5.68122
-3.66863e-07
5.67936
-3.65093e-07
5.67751
-3.61784e-07
5.67566
-3.54157e-07
5.67382
-3.47736e-07
5.67201
-3.40608e-07
5.67023
-3.32129e-07
5.66847
-3.21967e-07
5.66676
-3.10718e-07
5.66508
-2.98676e-07
5.66345
-2.86054e-07
5.66186
-2.73099e-07
5.66032
-2.59834e-07
5.65883
-2.46486e-07
5.65738
-2.33093e-07
5.65598
-2.19901e-07
5.65462
-2.06963e-07
5.6533
-1.94361e-07
5.65202
-1.82223e-07
5.65078
-1.70612e-07
5.64957
-1.59551e-07
5.64839
-1.49405e-07
5.64723
-1.52711e-07
5.64609
-1.29163e-07
5.64496
-1.07246e-07
5.64384
-1.12428e-07
5.64273
-1.05811e-07
5.6416
-9.7969e-08
5.64046
-9.07476e-08
5.6393
-8.40355e-08
5.63812
-7.76454e-08
5.6369
-7.14826e-08
5.63563
-6.56019e-08
5.63433
-6.00467e-08
5.63296
-5.46916e-08
5.63155
-4.98203e-08
5.63007
-4.52947e-08
5.62854
-4.13365e-08
5.62695
-3.80023e-08
5.6253
-3.53102e-08
5.62359
-3.35585e-08
5.62185
-3.26527e-08
5.62006
-3.2871e-08
5.61824
-3.42079e-08
5.6164
-3.67381e-08
5.61455
-4.05998e-08
5.61271
-4.56803e-08
5.61089
-5.21377e-08
5.60909
-5.98302e-08
5.60733
-6.87614e-08
5.60564
-7.89169e-08
5.60401
-8.98654e-08
5.60245
-1.01854e-07
5.60099
-1.14509e-07
5.59961
-1.27675e-07
5.59834
-1.41132e-07
5.59717
-1.54676e-07
5.59611
-1.68091e-07
5.59515
-1.81108e-07
5.59428
-1.93566e-07
5.59351
-2.05218e-07
5.59283
-2.15925e-07
5.59222
-2.25513e-07
5.59168
-2.33835e-07
5.59118
-2.40832e-07
5.59073
-2.46426e-07
5.5903
-2.50628e-07
5.58988
-2.53456e-07
5.58946
-2.54977e-07
5.58902
-2.55306e-07
5.58856
-2.54546e-07
5.58806
-2.5288e-07
5.58751
-2.50466e-07
5.58692
-2.47494e-07
5.58626
-2.44145e-07
5.58555
-2.4058e-07
5.58477
-2.36963e-07
5.58393
-2.3342e-07
5.58302
-2.30077e-07
5.58205
-2.27012e-07
5.58102
-2.24287e-07
5.57993
-2.21957e-07
5.57878
-2.20049e-07
5.57758
-2.18579e-07
5.57633
-2.17575e-07
5.57504
-2.1706e-07
5.5737
-2.17065e-07
5.57232
-2.17622e-07
5.57091
-2.18788e-07
5.56947
-2.20611e-07
5.56801
-2.23159e-07
5.56655
-2.26491e-07
5.56508
-2.30659e-07
5.56361
-2.35699e-07
5.56217
-2.41616e-07
5.56075
-2.48405e-07
5.55936
-2.56001e-07
5.55802
-2.6431e-07
5.55674
-2.73185e-07
5.5555
-2.82456e-07
5.55433
-2.91895e-07
5.55322
-3.01272e-07
5.55217
-3.10331e-07
5.55117
-3.18829e-07
5.55022
-3.2654e-07
5.5493
-3.33284e-07
5.54841
-3.38927e-07
5.54753
-3.43407e-07
5.54665
-3.46718e-07
5.54576
-3.48909e-07
5.54485
-3.50095e-07
5.5439
-3.50357e-07
5.54292
-3.49897e-07
5.54189
-3.48709e-07
5.5408
-3.47205e-07
5.53965
-3.44864e-07
5.53843
-3.42869e-07
5.53714
-3.39269e-07
5.53577
-3.37313e-07
5.53431
-3.32471e-07
5.53277
-3.30821e-07
5.53113
-3.25766e-07
5.52941
-3.23678e-07
5.52761
-3.21053e-07
5.52572
-3.19416e-07
5.52377
-3.18665e-07
5.52177
-3.2038e-07
5.51972
-3.20546e-07
5.51767
-3.25652e-07
5.51561
-3.1707e-07
5.51358
-2.53196e-07
5.5116
2.89479e-07
5.50969
4.09946e-06
5.50785
3.08887e-05
5.50595
0.000218429
5.50289
0.00152991
5.49086
0.0106702
5.40454
0.0851515
0.4191
4.98445
11.5149
0.000260541
11.5117
0.000215409
11.5086
0.000190318
11.5056
0.00019469
11.5025
0.000195888
11.4995
0.000195179
11.4964
0.000194632
11.4934
0.000193734
11.4904
0.000191908
11.4874
0.000188648
11.4845
0.0001834
11.4815
0.000175654
11.4786
0.000165098
11.4758
0.000151734
11.473
0.000135931
11.4702
0.000118397
11.4675
0.000100069
11.4648
8.19575e-05
11.4622
6.49821e-05
11.4596
4.98486e-05
11.4572
3.69833e-05
11.4548
2.65294e-05
11.4524
1.83931e-05
11.4502
1.23159e-05
11.448
7.95556e-06
11.446
4.93674e-06
11.4441
2.93249e-06
11.4422
1.64585e-06
11.4404
8.40771e-07
11.4388
3.57953e-07
11.4372
7.85562e-08
11.4358
-7.54271e-08
11.4344
-1.5678e-07
11.4331
-1.97258e-07
11.4318
-2.15516e-07
11.4306
-2.22273e-07
11.4294
-2.23458e-07
11.4283
-2.22281e-07
11.4271
-2.20557e-07
11.4259
-2.19166e-07
11.4247
-2.18548e-07
11.4234
-2.18932e-07
11.4221
-2.20411e-07
11.4206
-2.23007e-07
11.419
-2.26679e-07
11.4174
-2.31342e-07
11.4155
-2.36892e-07
11.4136
-2.4319e-07
11.4114
-2.50106e-07
11.4091
-2.57478e-07
11.4067
-2.65059e-07
11.4041
-2.72704e-07
11.4013
-2.80239e-07
11.3983
-2.87415e-07
11.3953
-2.9408e-07
11.3921
-3.0007e-07
11.3887
-3.05225e-07
11.3853
-3.09415e-07
11.3817
-3.12503e-07
11.3781
-3.14418e-07
11.3745
-3.15086e-07
11.3708
-3.1447e-07
11.3671
-3.12914e-07
11.3634
-3.10058e-07
11.3597
-3.03769e-07
11.356
-2.97927e-07
11.3524
-2.91942e-07
11.3488
-2.84676e-07
11.3453
-2.75966e-07
11.3419
-2.6632e-07
11.3385
-2.56003e-07
11.3352
-2.45182e-07
11.3321
-2.34068e-07
11.329
-2.227e-07
11.326
-2.1125e-07
11.3231
-1.99774e-07
11.3203
-1.88459e-07
11.3176
-1.7737e-07
11.3149
-1.66566e-07
11.3124
-1.56156e-07
11.3099
-1.46207e-07
11.3075
-1.36777e-07
11.3051
-1.28605e-07
11.3028
-1.294e-07
11.3005
-1.11062e-07
11.2983
-9.30852e-08
11.296
-9.56263e-08
11.2938
-9.06668e-08
11.2915
-8.39761e-08
11.2893
-7.77918e-08
11.2869
-7.20242e-08
11.2846
-6.65457e-08
11.2821
-6.12704e-08
11.2796
-5.62234e-08
11.277
-5.14626e-08
11.2743
-4.68749e-08
11.2714
-4.26903e-08
11.2685
-3.88136e-08
11.2654
-3.54169e-08
11.2622
-3.25585e-08
11.2589
-3.02402e-08
11.2555
-2.87425e-08
11.252
-2.79629e-08
11.2484
-2.81475e-08
11.2448
-2.93021e-08
11.2411
-3.14687e-08
11.2374
-3.47898e-08
11.2338
-3.91474e-08
11.2301
-4.46776e-08
11.2265
-5.12835e-08
11.223
-5.89193e-08
11.2196
-6.7756e-08
11.2163
-7.69464e-08
11.2132
-8.72521e-08
11.2103
-9.81586e-08
11.2076
-1.0943e-07
11.205
-1.20958e-07
11.2027
-1.3257e-07
11.2005
-1.44068e-07
11.1986
-1.55223e-07
11.1969
-1.65895e-07
11.1953
-1.7588e-07
11.194
-1.85056e-07
11.1928
-1.93271e-07
11.1917
-2.00405e-07
11.1907
-2.06402e-07
11.1898
-2.11192e-07
11.1889
-2.14793e-07
11.1881
-2.17217e-07
11.1872
-2.18523e-07
11.1864
-2.18804e-07
11.1854
-2.18156e-07
11.1844
-2.16726e-07
11.1833
-2.1466e-07
11.1821
-2.12112e-07
11.1808
-2.09246e-07
11.1794
-2.06192e-07
11.1778
-2.03092e-07
11.1762
-2.00059e-07
11.1743
-1.97195e-07
11.1724
-1.94569e-07
11.1703
-1.92232e-07
11.1682
-1.90238e-07
11.1659
-1.88603e-07
11.1635
-1.87345e-07
11.161
-1.86488e-07
11.1584
-1.86046e-07
11.1557
-1.86053e-07
11.1529
-1.86531e-07
11.1501
-1.87531e-07
11.1472
-1.89096e-07
11.1443
-1.91284e-07
11.1414
-1.9414e-07
11.1384
-1.97712e-07
11.1355
-2.02033e-07
11.1326
-2.07109e-07
11.1298
-2.12925e-07
11.127
-2.19439e-07
11.1243
-2.2656e-07
11.1218
-2.34165e-07
11.1193
-2.42117e-07
11.117
-2.50206e-07
11.1147
-2.58238e-07
11.1126
-2.65999e-07
11.1106
-2.73282e-07
11.1087
-2.7989e-07
11.1069
-2.85669e-07
11.1051
-2.90506e-07
11.1033
-2.94342e-07
11.1016
-2.97176e-07
11.0998
-2.99058e-07
11.098
-3.00073e-07
11.0961
-3.00301e-07
11.0941
-2.99898e-07
11.092
-2.98896e-07
11.0899
-2.97582e-07
11.0876
-2.95624e-07
11.0851
-2.93825e-07
11.0825
-2.90888e-07
11.0798
-2.88991e-07
11.0769
-2.85148e-07
11.0738
-2.83487e-07
11.0705
-2.79167e-07
11.0671
-2.77551e-07
11.0635
-2.74665e-07
11.0597
-2.7488e-07
11.0558
-2.717e-07
11.0518
-2.76303e-07
11.0477
-2.7225e-07
11.0436
-2.77792e-07
11.0395
-2.38898e-07
11.0354
-3.22884e-08
11.0314
1.59342e-06
11.0276
1.28917e-05
11.0239
9.2183e-05
11.0202
0.00064708
11.0141
0.00452598
10.9906
0.0314055
10.8493
0.224169
1.05158
10.2148
138.178
-0.000260541
138.141
-0.000215409
138.103
-0.000190318
138.067
-0.00019469
138.03
-0.000195888
137.993
-0.000195179
137.957
-0.000194632
137.921
-0.000193734
137.885
-0.000191908
137.849
-0.000188648
137.813
-0.0001834
137.778
-0.000175654
137.744
-0.000165098
137.709
-0.000151734
137.676
-0.000135931
137.642
-0.000118397
137.61
-0.000100069
137.578
-8.19575e-05
137.546
-6.49821e-05
137.516
-4.98486e-05
137.486
-3.69833e-05
137.457
-2.65294e-05
137.429
-1.83931e-05
137.402
-1.23159e-05
137.377
-7.95556e-06
137.352
-4.93673e-06
137.329
-2.93249e-06
137.306
-1.64585e-06
137.285
-8.40776e-07
137.266
-3.57951e-07
137.247
-7.85594e-08
137.229
7.54276e-08
137.213
1.56778e-07
137.197
1.97259e-07
137.182
2.15515e-07
137.167
2.22274e-07
137.153
2.23462e-07
137.139
2.22283e-07
137.125
2.20558e-07
137.111
2.19168e-07
137.096
2.18549e-07
137.081
2.18932e-07
137.065
2.2041e-07
137.047
2.23009e-07
137.028
2.2668e-07
137.008
2.31342e-07
136.986
2.36892e-07
136.963
2.4319e-07
136.937
2.50107e-07
136.91
2.57475e-07
136.88
2.65059e-07
136.849
2.72705e-07
136.815
2.80235e-07
136.78
2.87416e-07
136.743
2.94084e-07
136.705
3.00066e-07
136.665
3.05228e-07
136.623
3.09412e-07
136.581
3.125e-07
136.538
3.14417e-07
136.494
3.15088e-07
136.45
3.14472e-07
136.405
3.12914e-07
136.361
3.10057e-07
136.316
3.03768e-07
136.272
2.97927e-07
136.229
2.91944e-07
136.186
2.84676e-07
136.144
2.75964e-07
136.102
2.66319e-07
136.062
2.56005e-07
136.023
2.45181e-07
135.985
2.34069e-07
135.948
2.22704e-07
135.912
2.11252e-07
135.877
1.99775e-07
135.844
1.88454e-07
135.811
1.77371e-07
135.779
1.66568e-07
135.749
1.56153e-07
135.719
1.46205e-07
135.69
1.36777e-07
135.661
1.28601e-07
135.634
1.29398e-07
135.606
1.11063e-07
135.579
9.30897e-08
135.552
9.56227e-08
135.525
9.06691e-08
135.498
8.39759e-08
135.471
7.77918e-08
135.443
7.20272e-08
135.415
6.65518e-08
135.386
6.12715e-08
135.355
5.62245e-08
135.324
5.14613e-08
135.291
4.68754e-08
135.257
4.26867e-08
135.222
3.88129e-08
135.185
3.54171e-08
135.147
3.25576e-08
135.107
3.02446e-08
135.066
2.87394e-08
135.024
2.79617e-08
134.981
2.815e-08
134.938
2.9298e-08
134.894
3.14753e-08
134.849
3.47893e-08
134.805
3.91435e-08
134.761
4.46798e-08
134.718
5.12787e-08
134.676
5.89205e-08
134.635
6.77512e-08
134.596
7.6946e-08
134.559
8.72506e-08
134.524
9.81568e-08
134.491
1.09428e-07
134.46
1.20958e-07
134.432
1.3257e-07
134.406
1.44069e-07
134.383
1.55223e-07
134.363
1.65894e-07
134.344
1.75882e-07
134.328
1.85055e-07
134.313
1.93271e-07
134.3
2.00403e-07
134.288
2.064e-07
134.277
2.11196e-07
134.267
2.14794e-07
134.257
2.17218e-07
134.247
2.18524e-07
134.236
2.18802e-07
134.225
2.18155e-07
134.213
2.16729e-07
134.2
2.14656e-07
134.186
2.12114e-07
134.17
2.09243e-07
134.153
2.06192e-07
134.134
2.03092e-07
134.114
2.00058e-07
134.092
1.9719e-07
134.069
1.94566e-07
134.044
1.9223e-07
134.018
1.90238e-07
133.99
1.88603e-07
133.962
1.87346e-07
133.932
1.86488e-07
133.9
1.86046e-07
133.868
1.86052e-07
133.835
1.86532e-07
133.801
1.87529e-07
133.767
1.89098e-07
133.732
1.91282e-07
133.697
1.94141e-07
133.661
1.97713e-07
133.626
2.02035e-07
133.591
2.0711e-07
133.557
2.12927e-07
133.524
2.19438e-07
133.492
2.26559e-07
133.461
2.34168e-07
133.432
2.42113e-07
133.403
2.50207e-07
133.377
2.58239e-07
133.351
2.65998e-07
133.328
2.73281e-07
133.305
2.79892e-07
133.283
2.85669e-07
133.261
2.90503e-07
133.24
2.94341e-07
133.219
2.97179e-07
133.198
2.99058e-07
133.176
3.0007e-07
133.153
3.00304e-07
133.129
2.99889e-07
133.105
2.98921e-07
133.078
2.97531e-07
133.051
2.95726e-07
133.022
2.93638e-07
132.991
2.91199e-07
132.958
2.88523e-07
132.923
2.85788e-07
132.886
2.82543e-07
132.846
2.80287e-07
132.805
2.76522e-07
132.762
2.76414e-07
132.716
2.71496e-07
132.67
2.76688e-07
132.621
2.68645e-07
132.572
2.84881e-07
132.523
2.7478e-07
132.474
3.48285e-07
132.425
6.11404e-07
132.377
2.76246e-06
132.332
1.76261e-05
132.288
0.000123883
132.248
0.000880366
132.209
0.00631431
132.162
0.0454008
131.995
0.363406
1.55122
131.472
11.5149
-0.000327881
11.5117
-0.000235166
11.5086
-0.000225351
11.5056
-0.000227318
11.5025
-0.000227754
11.4995
-0.000227417
11.4964
-0.000226896
11.4934
-0.0002258
11.4904
-0.000223607
11.4874
-0.000219722
11.4845
-0.000213493
11.4815
-0.000204335
11.4786
-0.000191898
11.4758
-0.000176199
11.473
-0.000157686
11.4702
-0.000137195
11.4675
-0.000115825
11.4648
-9.4749e-05
11.4622
-7.5033e-05
11.4596
-5.74879e-05
11.4572
-4.25976e-05
11.4548
-3.05179e-05
11.4524
-2.11306e-05
11.4502
-1.41292e-05
11.448
-9.11493e-06
11.446
-5.64405e-06
11.4441
-3.34696e-06
11.4422
-1.87245e-06
11.4404
-9.5277e-07
11.4388
-4.008e-07
11.4372
-8.24057e-08
11.4358
9.33705e-08
11.4344
1.86055e-07
11.4331
2.31939e-07
11.4318
2.52416e-07
11.4306
2.59854e-07
11.4294
2.60976e-07
11.4283
2.5947e-07
11.4271
2.57403e-07
11.4259
2.55737e-07
11.4247
2.55002e-07
11.4234
2.55437e-07
11.4221
2.57156e-07
11.4206
2.60185e-07
11.419
2.64465e-07
11.4174
2.69898e-07
11.4155
2.76374e-07
11.4136
2.83721e-07
11.4114
2.91793e-07
11.4091
3.00393e-07
11.4067
3.09237e-07
11.4041
3.18167e-07
11.4013
3.26949e-07
11.3983
3.35322e-07
11.3953
3.43107e-07
11.3921
3.50081e-07
11.3887
3.56102e-07
11.3853
3.60984e-07
11.3817
3.64586e-07
11.3781
3.66821e-07
11.3745
3.67598e-07
11.3708
3.66867e-07
11.3671
3.65089e-07
11.3634
3.61784e-07
11.3597
3.54155e-07
11.356
3.47736e-07
11.3524
3.40608e-07
11.3488
3.32129e-07
11.3453
3.21965e-07
11.3419
3.10718e-07
11.3385
2.98678e-07
11.3352
2.86054e-07
11.3321
2.73101e-07
11.329
2.59835e-07
11.326
2.46488e-07
11.3231
2.33091e-07
11.3203
2.19901e-07
11.3176
2.06965e-07
11.3149
1.94363e-07
11.3124
1.82221e-07
11.3099
1.70612e-07
11.3075
1.59551e-07
11.3051
1.49405e-07
11.3028
1.52711e-07
11.3005
1.29165e-07
11.2983
1.07249e-07
11.296
1.12426e-07
11.2938
1.05807e-07
11.2915
9.7969e-08
11.2893
9.07476e-08
11.2869
8.40355e-08
11.2846
7.7649e-08
11.2821
7.14845e-08
11.2796
6.56037e-08
11.277
6.00467e-08
11.2743
5.46934e-08
11.2714
4.98167e-08
11.2685
4.52947e-08
11.2654
4.13384e-08
11.2622
3.80005e-08
11.2589
3.53139e-08
11.2555
3.35585e-08
11.252
3.26527e-08
11.2484
3.2871e-08
11.2448
3.42079e-08
11.2411
3.67436e-08
11.2374
4.05998e-08
11.2338
4.56785e-08
11.2301
5.21359e-08
11.2265
5.98302e-08
11.223
6.87614e-08
11.2196
7.8915e-08
11.2163
8.98654e-08
11.2132
1.01851e-07
11.2103
1.14507e-07
11.2076
1.27673e-07
11.205
1.4113e-07
11.2027
1.54674e-07
11.2005
1.68091e-07
11.1986
1.81108e-07
11.1969
1.93566e-07
11.1953
2.0522e-07
11.194
2.15927e-07
11.1928
2.25513e-07
11.1917
2.33831e-07
11.1907
2.40832e-07
11.1898
2.46426e-07
11.1889
2.50628e-07
11.1881
2.53458e-07
11.1872
2.54979e-07
11.1864
2.55304e-07
11.1854
2.54544e-07
11.1844
2.52881e-07
11.1833
2.50464e-07
11.1821
2.47494e-07
11.1808
2.44143e-07
11.1794
2.40581e-07
11.1778
2.36963e-07
11.1762
2.3342e-07
11.1743
2.30073e-07
11.1724
2.2701e-07
11.1703
2.24283e-07
11.1682
2.21959e-07
11.1659
2.20045e-07
11.1635
2.18579e-07
11.161
2.17578e-07
11.1584
2.1706e-07
11.1557
2.17065e-07
11.1529
2.17622e-07
11.1501
2.18786e-07
11.1472
2.20612e-07
11.1443
2.23161e-07
11.1414
2.26493e-07
11.1384
2.30661e-07
11.1355
2.35701e-07
11.1326
2.4162e-07
11.1298
2.48405e-07
11.127
2.56001e-07
11.1243
2.6431e-07
11.1218
2.73185e-07
11.1193
2.82454e-07
11.117
2.91899e-07
11.1147
3.01274e-07
11.1126
3.10329e-07
11.1106
3.18825e-07
11.1087
3.26541e-07
11.1069
3.33283e-07
11.1051
3.38927e-07
11.1033
3.43407e-07
11.1016
3.46718e-07
11.0998
3.48911e-07
11.098
3.50092e-07
11.0961
3.50366e-07
11.0941
3.49879e-07
11.092
3.48751e-07
11.0899
3.47123e-07
11.0876
3.45024e-07
11.0851
3.42587e-07
11.0825
3.39725e-07
11.0798
3.36651e-07
11.0769
3.33333e-07
11.0738
3.2981e-07
11.0705
3.26676e-07
11.0671
3.23209e-07
11.0635
3.21443e-07
11.0597
3.1856e-07
11.0558
3.19991e-07
11.0518
3.17794e-07
11.0477
3.25166e-07
11.0436
3.24597e-07
11.0395
3.5411e-07
11.0354
4.4897e-07
11.0315
1.18491e-06
11.0276
6.22996e-06
11.0241
4.22418e-05
11.0213
0.000297911
11.0224
0.00215932
11.049
0.0160924
11.2324
0.177705
0.673189
12.1085
5.75706
5.75525
5.75346
5.75168
5.74991
5.74815
5.74639
5.74463
5.74289
5.74116
5.73946
5.73778
5.73613
5.73451
5.73294
5.7314
5.72992
5.72848
5.72709
5.72576
5.72447
5.72324
5.72205
5.72092
5.71984
5.71881
5.71783
5.7169
5.71603
5.7152
5.71442
5.71369
5.71299
5.71234
5.71171
5.7111
5.71052
5.70994
5.70935
5.70876
5.70815
5.70751
5.70683
5.70611
5.70533
5.70449
5.70357
5.70259
5.70152
5.70038
5.69915
5.69784
5.69645
5.69499
5.69345
5.69184
5.69017
5.68845
5.68669
5.68489
5.68306
5.68122
5.67936
5.67751
5.67566
5.67382
5.67201
5.67023
5.66847
5.66676
5.66508
5.66345
5.66186
5.66032
5.65883
5.65738
5.65598
5.65462
5.6533
5.65202
5.65078
5.64957
5.64839
5.64723
5.64609
5.64496
5.64384
5.64273
5.6416
5.64046
5.6393
5.63812
5.6369
5.63563
5.63433
5.63296
5.63155
5.63007
5.62854
5.62695
5.6253
5.62359
5.62185
5.62006
5.61824
5.6164
5.61455
5.61271
5.61089
5.60909
5.60733
5.60564
5.60401
5.60245
5.60099
5.59961
5.59834
5.59717
5.59611
5.59515
5.59428
5.59351
5.59283
5.59222
5.59168
5.59118
5.59073
5.5903
5.58988
5.58946
5.58902
5.58856
5.58806
5.58751
5.58692
5.58626
5.58555
5.58477
5.58393
5.58302
5.58205
5.58102
5.57993
5.57878
5.57758
5.57633
5.57504
5.5737
5.57232
5.57091
5.56947
5.56801
5.56655
5.56508
5.56361
5.56217
5.56075
5.55936
5.55802
5.55674
5.5555
5.55433
5.55322
5.55217
5.55117
5.55022
5.5493
5.54841
5.54753
5.54665
5.54576
5.54485
5.5439
5.54292
5.54189
5.5408
5.53965
5.53843
5.53714
5.53577
5.53431
5.53277
5.53113
5.52941
5.52761
5.52572
5.52377
5.52177
5.51972
5.51767
5.51561
5.51358
5.5116
5.5097
5.50794
5.50655
5.50718
5.52191
5.69844
6.37067
4.86404
0.120183
4.87244
-0.00862077
4.87181
0.000430037
4.88246
-0.0108604
4.90911
-0.0268664
4.95238
-0.0435015
4.98675
-0.0346225
4.9801
0.00645335
4.92946
0.0506752
4.86834
0.0616415
4.92919
-0.0597717
5.2133
-0.283459
5.63375
-0.420738
5.99424
-0.361836
6.09911
-0.10672
5.99875
0.098941
5.82606
0.171953
5.60556
0.220001
5.41477
0.190615
-0.615598
6.03138
10.1663
0.168239
10.1876
-0.0302761
10.2397
-0.0521387
10.3062
-0.0777674
10.3976
-0.1187
10.5276
-0.173895
10.6415
-0.149008
10.6788
-0.031285
10.6225
0.107041
10.5178
0.16738
10.5983
-0.138002
11.0895
-0.773474
11.8821
-1.21423
12.6906
-1.17339
13.094
-0.513709
13.0928
0.0978209
12.8867
0.376896
12.482
0.624035
11.8804
0.792184
-1.18136
12.4482
131.518
0.117971
131.581
-0.096546
131.568
-0.043489
131.387
0.100133
131.036
0.228691
130.553
0.306498
130.04
0.362489
129.656
0.347935
129.38
0.381022
129.194
0.348175
128.697
0.353441
127.586
0.334338
126.059
0.311708
124.606
0.281246
123.852
0.242757
123.749
0.201503
123.965
0.158505
124.477
0.108894
125.225
0.0400885
-0.14412
124.181
12.0531
0.173124
11.9615
-0.00521061
11.9228
-0.00492906
11.9969
0.0257688
12.1686
0.0567333
12.3951
0.0798066
12.6589
0.0977953
12.9093
0.097898
13.1827
0.106798
13.431
0.100159
13.6834
0.100629
13.9226
0.0948185
14.148
0.0861671
14.3558
0.0733089
14.5419
0.0564833
14.7062
0.0370307
14.8505
0.0140787
14.9763
-0.0170653
15.0881
-0.0718587
-0.239797
15.1836
6.54368
6.53837
6.53333
6.559
6.61562
6.69528
6.79277
6.89068
6.99724
7.0974
7.19791
7.29261
7.37867
7.45188
7.50828
7.54523
7.55924
7.54212
7.47019
7.23033
7.40602
-1.37236
7.69318
-0.288695
7.64853
0.0428123
7.58386
0.0643885
7.61393
-0.0301505
7.67244
-0.0590752
7.69324
-0.021402
7.6901
0.00283598
7.69432
-0.00449372
7.71188
-0.0178833
7.72228
-0.010791
7.72081
0.00114199
7.71
0.0105484
7.6878
0.0219025
7.65138
0.0360408
7.59494
0.0555153
7.50947
0.0813249
7.38858
0.109566
7.23688
0.144944
7.0575
0.177578
6.85716
0.202655
6.648
0.221472
6.43649
0.219188
6.23468
0.204041
6.05535
0.178936
5.90512
0.148058
5.78555
0.116563
5.69477
0.0887373
5.62803
0.0652042
5.58014
0.0466089
5.54643
0.032535
5.52306
0.022227
5.50706
0.0148774
5.49617
0.00975965
5.48877
0.00627446
5.48369
0.00395208
5.48013
0.00243834
5.47754
0.00147322
5.47557
0.000871555
5.47399
0.000504848
5.47264
0.000286343
5.47144
0.000159043
5.47034
8.65142e-05
5.46932
4.60911e-05
5.46834
2.40443e-05
5.46741
1.22723e-05
5.46653
6.1157e-06
5.46569
2.95995e-06
5.4649
1.37336e-06
5.46416
5.90186e-07
5.46347
2.10082e-07
5.46283
2.82871e-08
5.46226
-5.86315e-08
5.46174
-1.00077e-07
5.4613
-1.20604e-07
5.46092
-1.3154e-07
5.46061
-1.38107e-07
5.46037
-1.42672e-07
5.46021
-1.46323e-07
5.46011
-1.49537e-07
5.46009
-1.52544e-07
5.46013
-1.55238e-07
5.46024
-1.58261e-07
5.4604
-1.60815e-07
5.46063
-1.63429e-07
5.4609
-1.65952e-07
5.46122
-1.68573e-07
5.46158
-1.68977e-07
5.46196
-1.73146e-07
5.46238
-1.73804e-07
5.4628
-1.74859e-07
5.46324
-1.78719e-07
5.46368
-1.82607e-07
5.46411
-1.82721e-07
5.46453
-1.82565e-07
5.46493
-1.8315e-07
5.4653
-1.83683e-07
5.46564
-1.84091e-07
5.46594
-1.84173e-07
5.4662
-1.83947e-07
5.46641
-1.83367e-07
5.46657
-1.82414e-07
5.46668
-1.81304e-07
5.46674
-1.79876e-07
5.46675
-1.77766e-07
5.4667
-1.76246e-07
5.4666
-1.73628e-07
5.46645
-1.71372e-07
5.46624
-1.68835e-07
5.46599
-1.66196e-07
5.4657
-1.63715e-07
5.46536
-1.61928e-07
5.46499
-1.5773e-07
5.46459
-1.57306e-07
5.46417
-1.5437e-07
5.46373
-1.52666e-07
5.46327
-1.51233e-07
5.46281
-1.49972e-07
5.46234
-1.48493e-07
5.46188
-1.47367e-07
5.46144
-1.47196e-07
5.46102
-1.47835e-07
5.46062
-1.48591e-07
5.46025
-1.49366e-07
5.45992
-1.50285e-07
5.45963
-1.51615e-07
5.45939
-1.53503e-07
5.4592
-1.55474e-07
5.45906
-1.58177e-07
5.45898
-1.58469e-07
5.45895
-1.69572e-07
5.45897
-1.61928e-07
5.45905
-1.68377e-07
5.45919
-1.70347e-07
5.45938
-1.72153e-07
5.45961
-1.74185e-07
5.45989
-1.76664e-07
5.46022
-1.77704e-07
5.46058
-1.79196e-07
5.46097
-1.80658e-07
5.46139
-1.82075e-07
5.46182
-1.83418e-07
5.46228
-1.84869e-07
5.46273
-1.85812e-07
5.46319
-1.85744e-07
5.46364
-1.8512e-07
5.46408
-1.8438e-07
5.4645
-1.83725e-07
5.46489
-1.82805e-07
5.46525
-1.8171e-07
5.46556
-1.80313e-07
5.46583
-1.78665e-07
5.46605
-1.76686e-07
5.46621
-1.74081e-07
5.46632
-1.71267e-07
5.46635
-1.68069e-07
5.46633
-1.64227e-07
5.46623
-1.61021e-07
5.46607
-1.57852e-07
5.46585
-1.51653e-07
5.46555
-1.50423e-07
5.4652
-1.45921e-07
5.46479
-1.4235e-07
5.46432
-1.39042e-07
5.46379
-1.36009e-07
5.46323
-1.33481e-07
5.46262
-1.30931e-07
5.46199
-1.28968e-07
5.46133
-1.27277e-07
5.46064
-1.26016e-07
5.45995
-1.25123e-07
5.45925
-1.24499e-07
5.45855
-1.24155e-07
5.45785
-1.24041e-07
5.45716
-1.24313e-07
5.45648
-1.24428e-07
5.4558
-1.24557e-07
5.45514
-1.24614e-07
5.45448
-1.24659e-07
5.45383
-1.24533e-07
5.45318
-1.24144e-07
5.45254
-1.23597e-07
5.45189
-1.22642e-07
5.45124
-1.21247e-07
5.45057
-1.19277e-07
5.4499
-1.17165e-07
5.4492
-1.14804e-07
5.44848
-1.12337e-07
5.44774
-1.09916e-07
5.44697
-1.07651e-07
5.44617
-1.05611e-07
5.44534
-1.03673e-07
5.44448
-1.02014e-07
5.44358
-1.00379e-07
5.44265
-9.88275e-08
5.44168
-9.73578e-08
5.44066
-9.627e-08
5.43961
-9.5235e-08
5.4385
-9.50095e-08
5.43736
-9.44474e-08
5.43616
-9.51986e-08
5.43492
-9.47293e-08
5.43363
-9.61481e-08
5.4323
-9.67375e-08
5.43093
-9.91622e-08
5.42952
-1.01227e-07
5.42808
-1.05463e-07
5.42662
-1.09325e-07
5.42515
-1.20845e-07
5.42366
-1.58694e-07
5.42218
-3.3877e-07
5.42071
-1.23302e-06
5.41926
-5.83234e-06
5.41786
-2.94942e-05
5.41663
-0.000151555
5.41608
-0.000782342
5.4189
-0.00408734
5.43977
-0.0220727
5.6014
-0.162752
-0.631663
6.23204
14.205
-3.125
14.8067
-0.893624
14.7788
0.0669519
14.6011
0.241506
14.5916
-0.0209882
14.6821
-0.150695
14.726
-0.0663945
14.7115
0.0166434
14.701
0.00546529
14.7223
-0.0399243
14.741
-0.0302342
14.7372
0.00433593
14.7112
0.0360959
14.6616
0.0709459
14.5871
0.109938
14.4819
0.159817
14.3364
0.224118
14.1399
0.299057
13.8933
0.386896
13.5985
0.470882
13.2642
0.537088
12.9111
0.579284
12.5556
0.577565
12.22
0.540134
11.9223
0.475571
11.673
0.395632
11.4746
0.313121
11.3232
0.238118
11.2116
0.174726
11.1317
0.124436
11.0757
0.0863749
11.0372
0.0585911
11.0109
0.0389018
10.9931
0.025302
10.981
0.0161262
10.9727
0.0100715
10.9667
0.00616387
10.9623
0.00369611
10.9588
0.00217145
10.9559
0.00124988
10.9533
0.000704912
10.951
0.000389581
10.9489
0.000211022
10.9468
0.000112044
10.9449
5.83212e-05
10.943
2.97578e-05
10.9413
1.48757e-05
10.9396
7.27365e-06
10.938
3.46426e-06
10.9365
1.59069e-06
10.9352
6.85995e-07
10.9339
2.56406e-07
10.9327
5.44807e-08
10.9317
-3.91952e-08
10.9308
-8.29748e-08
10.9301
-1.04008e-07
10.9294
-1.1472e-07
10.929
-1.20771e-07
10.9286
-1.24774e-07
10.9284
-1.27886e-07
10.9284
-1.30602e-07
10.9285
-1.33028e-07
10.9287
-1.35586e-07
10.929
-1.37805e-07
10.9295
-1.40043e-07
10.93
-1.42203e-07
10.9307
-1.44305e-07
10.9314
-1.4516e-07
10.9321
-1.47929e-07
10.933
-1.49064e-07
10.9338
-1.50115e-07
10.9347
-1.53053e-07
10.9356
-1.56157e-07
10.9364
-1.56669e-07
10.9373
-1.5655e-07
10.9381
-1.5697e-07
10.9388
-1.57432e-07
10.9395
-1.57771e-07
10.9401
-1.57846e-07
10.9406
-1.57657e-07
10.941
-1.57163e-07
10.9413
-1.56361e-07
10.9416
-1.5539e-07
10.9417
-1.54167e-07
10.9417
-1.52425e-07
10.9416
-1.50971e-07
10.9414
-1.48889e-07
10.9411
-1.46856e-07
10.9407
-1.44714e-07
10.9402
-1.42458e-07
10.9396
-1.40334e-07
10.9389
-1.38581e-07
10.9382
-1.35596e-07
10.9374
-1.34481e-07
10.9365
-1.32354e-07
10.9356
-1.3084e-07
10.9347
-1.29591e-07
10.9338
-1.28479e-07
10.9329
-1.27296e-07
10.932
-1.26387e-07
10.9311
-1.26198e-07
10.9302
-1.26685e-07
10.9294
-1.27304e-07
10.9287
-1.28051e-07
10.928
-1.28843e-07
10.9275
-1.29965e-07
10.927
-1.31557e-07
10.9266
-1.33291e-07
10.9263
-1.35467e-07
10.9261
-1.36649e-07
10.9261
-1.43557e-07
10.9261
-1.40048e-07
10.9263
-1.44121e-07
10.9266
-1.46004e-07
10.9269
-1.4759e-07
10.9274
-1.4914e-07
10.928
-1.51556e-07
10.9286
-1.52339e-07
10.9293
-1.53611e-07
10.9301
-1.5481e-07
10.9309
-1.56096e-07
10.9318
-1.57171e-07
10.9327
-1.58395e-07
10.9336
-1.59198e-07
10.9346
-1.59182e-07
10.9355
-1.58705e-07
10.9363
-1.58028e-07
10.9372
-1.57452e-07
10.938
-1.5669e-07
10.9387
-1.55737e-07
10.9393
-1.54552e-07
10.9398
-1.53141e-07
10.9403
-1.51443e-07
10.9406
-1.49235e-07
10.9408
-1.46799e-07
10.9409
-1.44061e-07
10.9408
-1.40834e-07
10.9406
-1.38004e-07
10.9403
-1.35051e-07
10.9399
-1.30495e-07
10.9393
-1.28807e-07
10.9386
-1.25035e-07
10.9377
-1.21968e-07
10.9368
-1.19169e-07
10.9357
-1.16621e-07
10.9346
-1.14375e-07
10.9334
-1.12264e-07
10.9321
-1.10541e-07
10.9308
-1.09105e-07
10.9294
-1.08027e-07
10.9281
-1.07278e-07
10.9267
-1.06745e-07
10.9253
-1.06461e-07
10.9239
-1.06374e-07
10.9225
-1.06558e-07
10.9211
-1.0667e-07
10.9198
-1.06799e-07
10.9184
-1.06825e-07
10.9171
-1.0685e-07
10.9158
-1.06738e-07
10.9145
-1.06407e-07
10.9132
-1.05919e-07
10.9119
-1.05112e-07
10.9106
-1.03926e-07
10.9093
-1.02241e-07
10.9079
-1.00402e-07
10.9065
-9.83989e-08
10.9051
-9.62895e-08
10.9036
-9.42103e-08
10.9021
-9.22718e-08
10.9005
-9.05291e-08
10.8988
-8.88755e-08
10.8971
-8.74338e-08
10.8953
-8.60599e-08
10.8934
-8.47106e-08
10.8915
-8.34317e-08
10.8895
-8.25722e-08
10.8874
-8.14294e-08
10.8852
-8.17658e-08
10.8829
-8.03943e-08
10.8805
-8.24276e-08
10.878
-8.01302e-08
10.8754
-8.31238e-08
10.8727
-8.21866e-08
10.87
-8.56772e-08
10.8672
-8.62938e-08
10.8643
-9.24714e-08
10.8614
-9.58547e-08
10.8584
-1.20855e-07
10.8555
-2.22099e-07
10.8525
-7.41601e-07
10.8495
-3.3682e-06
10.8467
-1.69249e-05
10.8439
-8.67348e-05
10.8414
-0.000446811
10.8402
-0.00230473
10.8456
-0.0119503
10.8834
-0.0623158
11.0689
-0.350497
-1.44056
11.8758
120.967
0.0708306
120.082
-0.0197045
120.116
0.0240006
120.291
0.0547216
120.214
0.0447459
120.031
0.0203654
119.948
0.00606971
119.953
0.00234516
119.953
-0.00282479
119.93
-0.0242908
119.949
-0.0561956
120.051
-0.0996169
120.252
-0.158414
120.561
-0.234145
120.993
-0.322526
121.561
-0.41379
122.271
-0.493053
123.108
-0.547312
124.052
-0.567113
125.065
-0.552386
126.104
-0.513105
127.127
-0.455478
128.08
-0.390036
128.928
-0.324028
129.645
-0.260126
130.223
-0.202463
130.668
-0.152847
130.995
-0.111768
131.225
-0.0791387
131.38
-0.0542884
131.477
-0.0360369
131.533
-0.0231565
131.56
-0.0144056
131.567
-0.0086755
131.561
-0.00505312
131.547
-0.00284591
131.528
-0.00154703
131.506
-0.00080937
131.482
-0.000405963
131.458
-0.000193945
131.433
-8.72661e-05
131.409
-3.62073e-05
131.384
-1.32163e-05
131.361
-3.67742e-06
131.338
-1.94158e-07
131.316
7.82129e-07
131.295
8.48141e-07
131.275
6.63015e-07
131.256
4.64623e-07
131.238
3.17405e-07
131.222
2.23882e-07
131.207
1.70081e-07
131.193
1.41578e-07
131.18
1.27978e-07
131.17
1.22506e-07
131.161
1.21264e-07
131.153
1.22097e-07
131.148
1.23883e-07
131.144
1.26069e-07
131.141
1.28419e-07
131.141
1.30818e-07
131.142
1.33114e-07
131.144
1.35619e-07
131.148
1.37818e-07
131.154
1.40049e-07
131.16
1.42206e-07
131.168
1.44303e-07
131.176
1.45157e-07
131.186
1.47926e-07
131.196
1.49065e-07
131.206
1.50117e-07
131.216
1.53053e-07
131.227
1.56158e-07
131.237
1.5667e-07
131.247
1.56549e-07
131.257
1.56971e-07
131.266
1.57431e-07
131.274
1.57768e-07
131.281
1.57845e-07
131.287
1.57657e-07
131.292
1.57165e-07
131.296
1.56362e-07
131.299
1.55389e-07
131.3
1.54164e-07
131.3
1.52425e-07
131.299
1.50972e-07
131.297
1.48887e-07
131.293
1.46854e-07
131.288
1.44717e-07
131.282
1.42455e-07
131.275
1.40333e-07
131.267