/*--------------------------------*- C++ -*----------------------------------*\
| =========                 |                                                 |
| \\      /  F ield         | OpenFOAM: The Open Source CFD Toolbox           |
|  \\    /   O peration     | Version:  3.0.x                                 |
|   \\  /    A nd           | Web:      www.OpenFOAM.org                      |
|    \\/     M anipulation  |                                                 |
\*---------------------------------------------------------------------------*/
FoamFile
{
    version     2.0;
    format      ascii;
    class       volVectorField;
    location    "0.1";
    object      U;
}
// * * * * * * * * * * * * * * * * * * * * * * * * * * * * * * * * * * * * * //

dimensions      [0 1 -1 0 0 0 0];

internalField   nonuniform List<vector> 
6900
(
(42.6942 0.000101853 0)
(42.6814 9.32403e-05 0)
(42.6661 9.0723e-05 0)
(42.6518 9.16537e-05 0)
(42.6387 9.23744e-05 0)
(42.6259 9.27246e-05 0)
(42.613 9.28398e-05 0)
(42.6002 9.26258e-05 0)
(42.5876 9.1899e-05 0)
(42.5751 9.04253e-05 0)
(42.5628 8.79446e-05 0)
(42.5507 8.4224e-05 0)
(42.5388 7.91264e-05 0)
(42.5273 7.26656e-05 0)
(42.516 6.50322e-05 0)
(42.505 5.6577e-05 0)
(42.4945 4.77574e-05 0)
(42.4842 3.90609e-05 0)
(42.4744 3.09282e-05 0)
(42.4649 2.36939e-05 0)
(42.4559 1.75573e-05 0)
(42.4471 1.25814e-05 0)
(42.4388 8.71638e-06 0)
(42.4308 5.8348e-06 0)
(42.4232 3.77041e-06 0)
(42.4159 2.34376e-06 0)
(42.409 1.39541e-06 0)
(42.4025 7.85444e-07 0)
(42.3963 4.03004e-07 0)
(42.3904 1.71799e-07 0)
(42.3848 3.7681e-08 0)
(42.3795 -3.5641e-08 0)
(42.3745 -7.50779e-08 0)
(42.3698 -9.5594e-08 0)
(42.3652 -1.05756e-07 0)
(42.3609 -1.10495e-07 0)
(42.3566 -1.12513e-07 0)
(42.3524 -1.13267e-07 0)
(42.3482 -1.1355e-07 0)
(42.344 -1.13764e-07 0)
(42.3396 -1.14098e-07 0)
(42.3351 -1.14637e-07 0)
(42.3303 -1.15409e-07 0)
(42.3252 -1.16415e-07 0)
(42.3197 -1.17607e-07 0)
(42.3139 -1.18944e-07 0)
(42.3076 -1.20369e-07 0)
(42.3008 -1.21843e-07 0)
(42.2935 -1.23337e-07 0)
(42.2857 -1.24841e-07 0)
(42.2773 -1.26346e-07 0)
(42.2683 -1.27857e-07 0)
(42.2588 -1.29329e-07 0)
(42.2488 -1.30678e-07 0)
(42.2383 -1.31855e-07 0)
(42.2274 -1.328e-07 0)
(42.216 -1.33479e-07 0)
(42.2042 -1.33836e-07 0)
(42.1921 -1.33834e-07 0)
(42.1798 -1.33454e-07 0)
(42.1673 -1.32675e-07 0)
(42.1546 -1.3148e-07 0)
(42.1418 -1.30037e-07 0)
(42.129 -1.28232e-07 0)
(42.1162 -1.25065e-07 0)
(42.1035 -1.22275e-07 0)
(42.0909 -1.19439e-07 0)
(42.0784 -1.16272e-07 0)
(42.0662 -1.12639e-07 0)
(42.0541 -1.0872e-07 0)
(42.0424 -1.04612e-07 0)
(42.0308 -1.00375e-07 0)
(42.0196 -9.6095e-08 0)
(42.0086 -9.17792e-08 0)
(41.9979 -8.74875e-08 0)
(41.9875 -8.32334e-08 0)
(41.9774 -7.90965e-08 0)
(41.9676 -7.50911e-08 0)
(41.958 -7.12565e-08 0)
(41.9486 -6.76077e-08 0)
(41.9395 -6.41888e-08 0)
(41.9306 -6.10059e-08 0)
(41.9218 -5.81585e-08 0)
(41.9132 -5.84645e-08 0)
(41.9048 -5.32972e-08 0)
(41.8963 -4.77953e-08 0)
(41.8878 -4.83478e-08 0)
(41.8793 -4.66917e-08 0)
(41.8708 -4.45835e-08 0)
(41.8621 -4.25491e-08 0)
(41.8533 -4.06091e-08 0)
(41.8442 -3.87286e-08 0)
(41.8349 -3.68673e-08 0)
(41.8253 -3.50407e-08 0)
(41.8152 -3.32505e-08 0)
(41.8048 -3.14461e-08 0)
(41.7939 -2.97206e-08 0)
(41.7826 -2.80129e-08 0)
(41.7707 -2.64034e-08 0)
(41.7584 -2.49243e-08 0)
(41.7456 -2.3587e-08 0)
(41.7324 -2.25354e-08 0)
(41.7188 -2.17455e-08 0)
(41.7048 -2.13617e-08 0)
(41.6905 -2.13852e-08 0)
(41.6761 -2.18461e-08 0)
(41.6615 -2.27885e-08 0)
(41.6469 -2.41374e-08 0)
(41.6324 -2.59317e-08 0)
(41.618 -2.80773e-08 0)
(41.604 -3.05652e-08 0)
(41.5903 -3.33306e-08 0)
(41.5771 -3.62813e-08 0)
(41.5645 -3.95207e-08 0)
(41.5525 -4.2982e-08 0)
(41.5413 -4.66628e-08 0)
(41.5308 -5.05155e-08 0)
(41.5211 -5.44882e-08 0)
(41.5122 -5.85315e-08 0)
(41.5042 -6.25468e-08 0)
(41.497 -6.64992e-08 0)
(41.4905 -7.03081e-08 0)
(41.4847 -7.3931e-08 0)
(41.4796 -7.73046e-08 0)
(41.475 -8.03841e-08 0)
(41.4709 -8.31437e-08 0)
(41.4672 -8.55565e-08 0)
(41.4637 -8.76155e-08 0)
(41.4603 -8.93212e-08 0)
(41.457 -9.06774e-08 0)
(41.4536 -9.17084e-08 0)
(41.45 -9.24396e-08 0)
(41.4462 -9.29076e-08 0)
(41.4421 -9.31504e-08 0)
(41.4376 -9.32147e-08 0)
(41.4327 -9.31522e-08 0)
(41.4272 -9.29981e-08 0)
(41.4213 -9.27997e-08 0)
(41.4149 -9.25888e-08 0)
(41.408 -9.24006e-08 0)
(41.4006 -9.22685e-08 0)
(41.3927 -9.22034e-08 0)
(41.3843 -9.22161e-08 0)
(41.3755 -9.23124e-08 0)
(41.3662 -9.24936e-08 0)
(41.3565 -9.27614e-08 0)
(41.3464 -9.31194e-08 0)
(41.336 -9.35888e-08 0)
(41.3252 -9.41706e-08 0)
(41.3142 -9.48803e-08 0)
(41.3029 -9.57346e-08 0)
(41.2915 -9.67489e-08 0)
(41.2799 -9.79353e-08 0)
(41.2683 -9.93108e-08 0)
(41.2567 -1.00884e-07 0)
(41.2452 -1.02651e-07 0)
(41.2338 -1.04613e-07 0)
(41.2227 -1.06748e-07 0)
(41.2119 -1.09033e-07 0)
(41.2015 -1.1145e-07 0)
(41.1916 -1.13975e-07 0)
(41.1821 -1.1657e-07 0)
(41.173 -1.19192e-07 0)
(41.1645 -1.21801e-07 0)
(41.1563 -1.24332e-07 0)
(41.1486 -1.26742e-07 0)
(41.1412 -1.28983e-07 0)
(41.134 -1.31014e-07 0)
(41.127 -1.32818e-07 0)
(41.1201 -1.34368e-07 0)
(41.1131 -1.35677e-07 0)
(41.106 -1.36751e-07 0)
(41.0986 -1.37611e-07 0)
(41.091 -1.3829e-07 0)
(41.083 -1.38787e-07 0)
(41.0747 -1.392e-07 0)
(41.0658 -1.39404e-07 0)
(41.0565 -1.39695e-07 0)
(41.0466 -1.39604e-07 0)
(41.036 -1.39898e-07 0)
(41.0249 -1.39568e-07 0)
(41.013 -1.39892e-07 0)
(41.0005 -1.39456e-07 0)
(40.9872 -1.39523e-07 0)
(40.9733 -1.39797e-07 0)
(40.9587 -1.40321e-07 0)
(40.9435 -1.40802e-07 0)
(40.9279 -1.41674e-07 0)
(40.9119 -1.42242e-07 0)
(40.8957 -1.44142e-07 0)
(40.8795 -1.43786e-07 0)
(40.8633 -1.35353e-07 0)
(40.8474 -5.42862e-08 0)
(40.8321 5.53408e-07 0)
(40.8173 4.85537e-06 0)
(40.8027 3.50633e-05 0)
(40.7845 0.000247038 0)
(40.7353 0.00174066 0)
(40.5542 0.0158622 0)
(38.1211 0.0819861 0)
(42.696 0.000129171 0)
(42.685 9.96012e-05 0)
(42.6715 8.68465e-05 0)
(42.659 8.62581e-05 0)
(42.6477 8.61893e-05 0)
(42.6367 8.5727e-05 0)
(42.6256 8.52656e-05 0)
(42.6146 8.46854e-05 0)
(42.6038 8.37547e-05 0)
(42.593 8.22341e-05 0)
(42.5825 7.98724e-05 0)
(42.572 7.64446e-05 0)
(42.5618 7.18117e-05 0)
(42.5516 6.59713e-05 0)
(42.5417 5.90817e-05 0)
(42.5319 5.14483e-05 0)
(42.5223 4.34763e-05 0)
(42.513 3.56025e-05 0)
(42.5038 2.8225e-05 0)
(42.4948 2.16495e-05 0)
(42.4862 1.60603e-05 0)
(42.4777 1.1519e-05 0)
(42.4696 7.98439e-06 0)
(42.4617 5.34406e-06 0)
(42.4542 3.44997e-06 0)
(42.4469 2.13774e-06 0)
(42.4401 1.26665e-06 0)
(42.4336 7.08327e-07 0)
(42.4274 3.60865e-07 0)
(42.4215 1.53187e-07 0)
(42.4159 3.27552e-08 0)
(42.4106 -3.38421e-08 0)
(42.4056 -6.94136e-08 0)
(42.4009 -8.71145e-08 0)
(42.3963 -9.49497e-08 0)
(42.392 -9.76597e-08 0)
(42.3877 -9.78804e-08 0)
(42.3835 -9.70679e-08 0)
(42.3793 -9.60672e-08 0)
(42.3751 -9.52798e-08 0)
(42.3707 -9.49229e-08 0)
(42.3661 -9.51072e-08 0)
(42.3613 -9.58668e-08 0)
(42.3563 -9.72008e-08 0)
(42.3508 -9.90757e-08 0)
(42.345 -1.01431e-07 0)
(42.3387 -1.04192e-07 0)
(42.3319 -1.07285e-07 0)
(42.3245 -1.10654e-07 0)
(42.3167 -1.14242e-07 0)
(42.3083 -1.17985e-07 0)
(42.2994 -1.21845e-07 0)
(42.2899 -1.25721e-07 0)
(42.2799 -1.29481e-07 0)
(42.2694 -1.33042e-07 0)
(42.2584 -1.36307e-07 0)
(42.247 -1.39184e-07 0)
(42.2352 -1.41605e-07 0)
(42.2232 -1.43491e-07 0)
(42.2108 -1.44799e-07 0)
(42.1983 -1.45486e-07 0)
(42.1856 -1.45532e-07 0)
(42.1728 -1.45108e-07 0)
(42.16 -1.43998e-07 0)
(42.1472 -1.41131e-07 0)
(42.1345 -1.38627e-07 0)
(42.1219 -1.35918e-07 0)
(42.1094 -1.32571e-07 0)
(42.0971 -1.28478e-07 0)
(42.0851 -1.23905e-07 0)
(42.0733 -1.1898e-07 0)
(42.0618 -1.13791e-07 0)
(42.0505 -1.08435e-07 0)
(42.0396 -1.02931e-07 0)
(42.0289 -9.73675e-08 0)
(42.0185 -9.17684e-08 0)
(42.0084 -8.62358e-08 0)
(41.9985 -8.0792e-08 0)
(41.9889 -7.54739e-08 0)
(41.9796 -7.0342e-08 0)
(41.9704 -6.54343e-08 0)
(41.9615 -6.07725e-08 0)
(41.9527 -5.66192e-08 0)
(41.9442 -5.72455e-08 0)
(41.9357 -4.8437e-08 0)
(41.9272 -3.93998e-08 0)
(41.9187 -4.04996e-08 0)
(41.9102 -3.78065e-08 0)
(41.9017 -3.43575e-08 0)
(41.893 -3.11389e-08 0)
(41.8842 -2.81659e-08 0)
(41.8752 -2.53689e-08 0)
(41.8658 -2.27039e-08 0)
(41.8562 -2.01873e-08 0)
(41.8461 -1.78357e-08 0)
(41.8357 -1.55973e-08 0)
(41.8248 -1.35865e-08 0)
(41.8135 -1.17623e-08 0)
(41.8016 -1.02111e-08 0)
(41.7893 -8.95894e-09 0)
(41.7765 -8.00692e-09 0)
(41.7633 -7.46215e-09 0)
(41.7497 -7.27291e-09 0)
(41.7357 -7.52309e-09 0)
(41.7214 -8.20045e-09 0)
(41.707 -9.31465e-09 0)
(41.6924 -1.09178e-08 0)
(41.6778 -1.29641e-08 0)
(41.6632 -1.55076e-08 0)
(41.6489 -1.85057e-08 0)
(41.6348 -2.19358e-08 0)
(41.6211 -2.58498e-08 0)
(41.608 -2.99493e-08 0)
(41.5953 -3.45595e-08 0)
(41.5834 -3.95304e-08 0)
(41.5721 -4.47756e-08 0)
(41.5616 -5.02436e-08 0)
(41.552 -5.58576e-08 0)
(41.5431 -6.15204e-08 0)
(41.535 -6.71287e-08 0)
(41.5278 -7.26013e-08 0)
(41.5213 -7.78169e-08 0)
(41.5156 -8.26863e-08 0)
(41.5104 -8.71049e-08 0)
(41.5058 -9.09903e-08 0)
(41.5017 -9.43e-08 0)
(41.498 -9.69788e-08 0)
(41.4945 -9.90244e-08 0)
(41.4911 -1.00437e-07 0)
(41.4878 -1.01244e-07 0)
(41.4844 -1.0149e-07 0)
(41.4808 -1.01219e-07 0)
(41.477 -1.0051e-07 0)
(41.4729 -9.9435e-08 0)
(41.4684 -9.80783e-08 0)
(41.4634 -9.65211e-08 0)
(41.458 -9.48358e-08 0)
(41.4521 -9.30983e-08 0)
(41.4457 -9.13678e-08 0)
(41.4388 -8.97012e-08 0)
(41.4314 -8.81324e-08 0)
(41.4234 -8.6695e-08 0)
(41.4151 -8.54051e-08 0)
(41.4062 -8.42695e-08 0)
(41.3969 -8.32915e-08 0)
(41.3872 -8.24813e-08 0)
(41.3772 -8.18473e-08 0)
(41.3667 -8.14016e-08 0)
(41.356 -8.11619e-08 0)
(41.3449 -8.11516e-08 0)
(41.3337 -8.13917e-08 0)
(41.3222 -8.19205e-08 0)
(41.3106 -8.27707e-08 0)
(41.299 -8.3968e-08 0)
(41.2874 -8.55313e-08 0)
(41.2759 -8.74666e-08 0)
(41.2645 -8.97718e-08 0)
(41.2534 -9.24209e-08 0)
(41.2426 -9.5378e-08 0)
(41.2322 -9.86031e-08 0)
(41.2223 -1.02038e-07 0)
(41.2127 -1.05603e-07 0)
(41.2037 -1.09218e-07 0)
(41.1951 -1.12781e-07 0)
(41.187 -1.16198e-07 0)
(41.1793 -1.1937e-07 0)
(41.1719 -1.22218e-07 0)
(41.1647 -1.24668e-07 0)
(41.1577 -1.26674e-07 0)
(41.1507 -1.28223e-07 0)
(41.1437 -1.29321e-07 0)
(41.1366 -1.3e-07 0)
(41.1293 -1.30274e-07 0)
(41.1216 -1.3022e-07 0)
(41.1137 -1.2983e-07 0)
(41.1053 -1.29266e-07 0)
(41.0964 -1.28324e-07 0)
(41.0871 -1.27461e-07 0)
(41.0772 -1.25953e-07 0)
(41.0666 -1.25004e-07 0)
(41.0555 -1.22977e-07 0)
(41.0436 -1.22059e-07 0)
(41.0311 -1.19938e-07 0)
(41.0178 -1.18853e-07 0)
(41.0038 -1.17268e-07 0)
(40.9893 -1.16253e-07 0)
(40.9741 -1.14832e-07 0)
(40.9585 -1.1571e-07 0)
(40.9425 -1.14348e-07 0)
(40.9263 -1.15549e-07 0)
(40.91 -1.04096e-07 0)
(40.8938 -3.08251e-08 0)
(40.878 5.04156e-07 0)
(40.8626 4.23288e-06 0)
(40.8478 3.03617e-05 0)
(40.8332 0.000212983 0)
(40.8152 0.0014876 0)
(40.7671 0.0103143 0)
(40.591 0.0745814 0)
(38.7115 0.353731 0)
(42.6959 4.63316e-13 0)
(42.685 1.95691e-12 0)
(42.6714 2.47859e-12 0)
(42.659 2.97584e-12 0)
(42.6477 2.27594e-12 0)
(42.6367 -3.52495e-14 0)
(42.6256 -4.49309e-12 0)
(42.6146 -5.97097e-12 0)
(42.6037 -5.72228e-12 0)
(42.593 -6.08078e-12 0)
(42.5824 -7.96623e-12 0)
(42.572 -1.0624e-11 0)
(42.5617 -1.24616e-11 0)
(42.5516 -1.29893e-11 0)
(42.5417 -1.39246e-11 0)
(42.5319 -1.54397e-11 0)
(42.5223 -1.5769e-11 0)
(42.5129 -1.52763e-11 0)
(42.5038 -1.33795e-11 0)
(42.4948 -1.22359e-11 0)
(42.4861 -1.24954e-11 0)
(42.4777 -1.13323e-11 0)
(42.4696 -1.15767e-11 0)
(42.4617 -1.28916e-11 0)
(42.4542 -1.39748e-11 0)
(42.4469 -1.47829e-11 0)
(42.4401 -1.30828e-11 0)
(42.4336 -9.59068e-12 0)
(42.4274 -7.82611e-12 0)
(42.4215 -6.36682e-12 0)
(42.4159 -6.1702e-12 0)
(42.4106 -2.65278e-12 0)
(42.4056 5.95962e-13 0)
(42.4009 3.10429e-12 0)
(42.3963 4.41424e-12 0)
(42.392 5.58623e-12 0)
(42.3877 5.92262e-12 0)
(42.3835 7.34812e-12 0)
(42.3793 8.89633e-12 0)
(42.3751 1.08615e-11 0)
(42.3707 9.97921e-12 0)
(42.3661 8.66573e-12 0)
(42.3613 7.58444e-12 0)
(42.3563 6.76809e-12 0)
(42.3508 6.75694e-12 0)
(42.345 6.55519e-12 0)
(42.3387 5.006e-12 0)
(42.3319 3.37885e-12 0)
(42.3245 3.50988e-12 0)
(42.3167 4.48742e-12 0)
(42.3083 5.06562e-12 0)
(42.2994 4.67312e-12 0)
(42.2899 2.2157e-12 0)
(42.2799 5.92806e-13 0)
(42.2694 -2.1112e-12 0)
(42.2584 -4.31392e-12 0)
(42.247 -4.79237e-12 0)
(42.2352 -2.75133e-12 0)
(42.2232 -5.15624e-13 0)
(42.2108 -1.82335e-12 0)
(42.1983 -4.00871e-12 0)
(42.1856 -5.34975e-12 0)
(42.1728 -7.37132e-12 0)
(42.16 -8.32995e-12 0)
(42.1472 -6.55645e-12 0)
(42.1345 -5.49975e-12 0)
(42.1219 -4.65921e-12 0)
(42.1094 -3.39527e-12 0)
(42.0972 -3.48512e-12 0)
(42.0851 -3.02971e-12 0)
(42.0733 -3.11416e-12 0)
(42.0618 -4.70378e-12 0)
(42.0505 -7.38358e-12 0)
(42.0396 -7.38315e-12 0)
(42.0289 -4.29873e-12 0)
(42.0185 -1.12131e-12 0)
(42.0084 1.54001e-12 0)
(41.9985 1.64211e-12 0)
(41.9889 -3.23809e-12 0)
(41.9796 -1.12725e-11 0)
(41.9704 -1.68059e-11 0)
(41.9615 -1.90338e-11 0)
(41.9527 -2.03875e-11 0)
(41.9442 -1.85443e-11 0)
(41.9357 -1.6812e-11 0)
(41.9272 -1.59343e-11 0)
(41.9187 -1.58631e-11 0)
(41.9102 -1.34711e-11 0)
(41.9017 -1.31317e-11 0)
(41.893 -1.17084e-11 0)
(41.8842 -9.94255e-12 0)
(41.8752 -4.97402e-12 0)
(41.8658 -1.68507e-12 0)
(41.8562 5.96415e-13 0)
(41.8461 3.81725e-12 0)
(41.8357 5.74479e-13 0)
(41.8248 -1.40447e-12 0)
(41.8135 -4.96923e-12 0)
(41.8016 -2.50976e-12 0)
(41.7893 -8.34901e-13 0)
(41.7765 -5.43595e-12 0)
(41.7633 -3.62391e-12 0)
(41.7497 -4.01372e-12 0)
(41.7357 -7.26467e-12 0)
(41.7214 -4.95288e-12 0)
(41.707 -6.46284e-12 0)
(41.6924 -5.13989e-12 0)
(41.6778 -1.36273e-12 0)
(41.6632 -6.08371e-13 0)
(41.6489 4.30973e-12 0)
(41.6348 7.16844e-12 0)
(41.6211 1.27518e-11 0)
(41.608 1.28917e-11 0)
(41.5953 1.03982e-11 0)
(41.5834 1.07537e-11 0)
(41.5721 1.1937e-11 0)
(41.5616 1.29853e-11 0)
(41.552 1.25586e-11 0)
(41.5431 1.22234e-11 0)
(41.5351 1.41786e-11 0)
(41.5278 1.60163e-11 0)
(41.5213 1.44698e-11 0)
(41.5156 1.16228e-11 0)
(41.5104 9.07182e-12 0)
(41.5058 4.99901e-12 0)
(41.5017 2.75403e-12 0)
(41.498 3.04552e-12 0)
(41.4945 2.7424e-12 0)
(41.4911 3.6768e-12 0)
(41.4878 3.7393e-12 0)
(41.4844 3.2625e-12 0)
(41.4808 1.81743e-12 0)
(41.477 1.84849e-12 0)
(41.4729 1.17935e-12 0)
(41.4684 2.46005e-12 0)
(41.4634 2.36471e-12 0)
(41.458 3.60597e-12 0)
(41.4521 2.80264e-12 0)
(41.4457 2.53383e-13 0)
(41.4388 -2.64306e-12 0)
(41.4314 -5.68942e-12 0)
(41.4234 -7.22716e-12 0)
(41.4151 -5.96882e-12 0)
(41.4062 -4.18959e-12 0)
(41.3969 -2.95423e-14 0)
(41.3872 3.71021e-12 0)
(41.3772 5.36296e-12 0)
(41.3667 5.15721e-12 0)
(41.356 5.95798e-12 0)
(41.3449 6.03325e-12 0)
(41.3337 6.6464e-12 0)
(41.3222 4.90989e-12 0)
(41.3106 3.78577e-12 0)
(41.299 2.17545e-12 0)
(41.2874 5.2609e-13 0)
(41.2759 -6.52447e-13 0)
(41.2645 9.41995e-13 0)
(41.2534 2.48883e-12 0)
(41.2426 3.72401e-12 0)
(41.2322 6.66154e-12 0)
(41.2223 6.22424e-12 0)
(41.2127 6.08503e-12 0)
(41.2037 5.47708e-12 0)
(41.1951 3.51759e-12 0)
(41.187 1.50409e-12 0)
(41.1793 -3.52998e-13 0)
(41.1719 -9.34883e-13 0)
(41.1647 -6.72822e-13 0)
(41.1577 -6.16595e-13 0)
(41.1507 -2.23067e-12 0)
(41.1437 -4.04679e-12 0)
(41.1366 -5.18504e-12 0)
(41.1293 -4.79907e-12 0)
(41.1216 -7.22287e-12 0)
(41.1137 -1.05068e-12 0)
(41.1053 -1.42673e-11 0)
(41.0964 1.6095e-11 0)
(41.0871 -3.8755e-11 0)
(41.0772 6.24873e-11 0)
(41.0666 -1.02023e-10 0)
(41.0555 1.38112e-10 0)
(41.0436 -2.28489e-10 0)
(41.0311 3.36043e-11 0)
(41.0178 -6.07929e-10 0)
(41.0038 1.48759e-10 0)
(40.9893 -5.54594e-10 0)
(40.9741 1.09155e-09 0)
(40.9585 -1.9612e-09 0)
(40.9425 1.93603e-09 0)
(40.9263 -9.4022e-10 0)
(40.91 2.67236e-08 0)
(40.8938 1.64233e-07 0)
(40.878 1.22888e-06 0)
(40.8626 8.62287e-06 0)
(40.8479 6.10427e-05 0)
(40.8341 0.000431651 0)
(40.8211 0.00305667 0)
(40.8077 0.0215003 0)
(40.7815 0.153101 0)
(40.6283 0.698587 0)
(42.696 -0.000129171 0)
(42.685 -9.96012e-05 0)
(42.6715 -8.68465e-05 0)
(42.659 -8.62581e-05 0)
(42.6477 -8.61893e-05 0)
(42.6367 -8.5727e-05 0)
(42.6256 -8.52656e-05 0)
(42.6146 -8.46854e-05 0)
(42.6038 -8.37547e-05 0)
(42.593 -8.22341e-05 0)
(42.5825 -7.98724e-05 0)
(42.572 -7.64445e-05 0)
(42.5618 -7.18116e-05 0)
(42.5516 -6.59713e-05 0)
(42.5417 -5.90817e-05 0)
(42.5319 -5.14483e-05 0)
(42.5223 -4.34763e-05 0)
(42.513 -3.56025e-05 0)
(42.5038 -2.8225e-05 0)
(42.4948 -2.16495e-05 0)
(42.4862 -1.60603e-05 0)
(42.4777 -1.1519e-05 0)
(42.4696 -7.98439e-06 0)
(42.4617 -5.34405e-06 0)
(42.4542 -3.44997e-06 0)
(42.4469 -2.13773e-06 0)
(42.4401 -1.26665e-06 0)
(42.4336 -7.08326e-07 0)
(42.4274 -3.60864e-07 0)
(42.4215 -1.53185e-07 0)
(42.4159 -3.27534e-08 0)
(42.4106 3.38441e-08 0)
(42.4056 6.94113e-08 0)
(42.4009 8.71144e-08 0)
(42.3963 9.49479e-08 0)
(42.392 9.7657e-08 0)
(42.3877 9.78805e-08 0)
(42.3835 9.70668e-08 0)
(42.3793 9.60641e-08 0)
(42.3751 9.52803e-08 0)
(42.3707 9.49242e-08 0)
(42.3661 9.51038e-08 0)
(42.3613 9.58634e-08 0)
(42.3563 9.71997e-08 0)
(42.3508 9.90757e-08 0)
(42.345 1.01428e-07 0)
(42.3387 1.04191e-07 0)
(42.3319 1.07283e-07 0)
(42.3245 1.10654e-07 0)
(42.3167 1.14239e-07 0)
(42.3083 1.17984e-07 0)
(42.2994 1.21843e-07 0)
(42.2899 1.25717e-07 0)
(42.2799 1.2948e-07 0)
(42.2694 1.33042e-07 0)
(42.2584 1.36303e-07 0)
(42.247 1.39189e-07 0)
(42.2352 1.41606e-07 0)
(42.2232 1.43489e-07 0)
(42.2108 1.44799e-07 0)
(42.1983 1.45488e-07 0)
(42.1856 1.45534e-07 0)
(42.1728 1.45108e-07 0)
(42.16 1.44001e-07 0)
(42.1472 1.41131e-07 0)
(42.1345 1.38627e-07 0)
(42.1219 1.3592e-07 0)
(42.1094 1.32571e-07 0)
(42.0971 1.28478e-07 0)
(42.0851 1.23905e-07 0)
(42.0733 1.18983e-07 0)
(42.0618 1.13792e-07 0)
(42.0505 1.08439e-07 0)
(42.0396 1.02934e-07 0)
(42.0289 9.73679e-08 0)
(42.0185 9.17683e-08 0)
(42.0084 8.62318e-08 0)
(41.9985 8.07919e-08 0)
(41.9889 7.54769e-08 0)
(41.9796 7.03467e-08 0)
(41.9704 6.54386e-08 0)
(41.9615 6.07766e-08 0)
(41.9527 5.66232e-08 0)
(41.9442 5.72471e-08 0)
(41.9357 4.844e-08 0)
(41.9272 3.94057e-08 0)
(41.9187 4.05014e-08 0)
(41.9102 3.78096e-08 0)
(41.9017 3.43595e-08 0)
(41.893 3.114e-08 0)
(41.8842 2.81678e-08 0)
(41.8752 2.537e-08 0)
(41.8658 2.27041e-08 0)
(41.8562 2.0186e-08 0)
(41.8461 1.78337e-08 0)
(41.8357 1.55976e-08 0)
(41.8248 1.35861e-08 0)
(41.8135 1.17621e-08 0)
(41.8016 1.02111e-08 0)
(41.7893 8.95698e-09 0)
(41.7765 8.00935e-09 0)
(41.7633 7.46105e-09 0)
(41.7497 7.27368e-09 0)
(41.7357 7.52543e-09 0)
(41.7214 8.19973e-09 0)
(41.707 9.31805e-09 0)
(41.6924 1.09179e-08 0)
(41.6778 1.29626e-08 0)
(41.6632 1.55078e-08 0)
(41.6489 1.85018e-08 0)
(41.6348 2.19341e-08 0)
(41.6211 2.58447e-08 0)
(41.608 2.9948e-08 0)
(41.5953 3.45577e-08 0)
(41.5834 3.9528e-08 0)
(41.5721 4.47722e-08 0)
(41.5616 5.02406e-08 0)
(41.552 5.58548e-08 0)
(41.5431 6.15231e-08 0)
(41.535 6.71268e-08 0)
(41.5278 7.25959e-08 0)
(41.5213 7.78152e-08 0)
(41.5156 8.26848e-08 0)
(41.5104 8.71035e-08 0)
(41.5058 9.09895e-08 0)
(41.5017 9.42974e-08 0)
(41.498 9.69797e-08 0)
(41.4945 9.90243e-08 0)
(41.4911 1.00437e-07 0)
(41.4878 1.01244e-07 0)
(41.4844 1.01486e-07 0)
(41.4808 1.01219e-07 0)
(41.477 1.00509e-07 0)
(41.4729 9.94332e-08 0)
(41.4684 9.80781e-08 0)
(41.4634 9.65201e-08 0)
(41.458 9.48354e-08 0)
(41.4521 9.30989e-08 0)
(41.4457 9.13682e-08 0)
(41.4388 8.96984e-08 0)
(41.4314 8.81337e-08 0)
(41.4234 8.66942e-08 0)
(41.4151 8.5406e-08 0)
(41.4062 8.42707e-08 0)
(41.3969 8.32927e-08 0)
(41.3872 8.24797e-08 0)
(41.3772 8.18463e-08 0)
(41.3667 8.14011e-08 0)
(41.356 8.11609e-08 0)
(41.3449 8.11468e-08 0)
(41.3337 8.13921e-08 0)
(41.3222 8.1921e-08 0)
(41.3106 8.27713e-08 0)
(41.299 8.39657e-08 0)
(41.2874 8.55324e-08 0)
(41.2759 8.74676e-08 0)
(41.2645 8.97717e-08 0)
(41.2534 9.24187e-08 0)
(41.2426 9.5378e-08 0)
(41.2322 9.86003e-08 0)
(41.2223 1.02035e-07 0)
(41.2127 1.05603e-07 0)
(41.2037 1.09216e-07 0)
(41.1951 1.12782e-07 0)
(41.187 1.16197e-07 0)
(41.1793 1.19371e-07 0)
(41.1719 1.22215e-07 0)
(41.1647 1.24662e-07 0)
(41.1577 1.26669e-07 0)
(41.1507 1.28223e-07 0)
(41.1437 1.29323e-07 0)
(41.1366 1.29999e-07 0)
(41.1293 1.30281e-07 0)
(41.1216 1.30213e-07 0)
(41.1137 1.29848e-07 0)
(41.1053 1.29234e-07 0)
(41.0964 1.28384e-07 0)
(41.0871 1.27357e-07 0)
(41.0772 1.26125e-07 0)
(41.0666 1.24756e-07 0)
(41.0555 1.23298e-07 0)
(41.0436 1.21641e-07 0)
(41.0311 1.20247e-07 0)
(41.0178 1.1841e-07 0)
(41.0038 1.17587e-07 0)
(40.9893 1.15434e-07 0)
(40.9741 1.1616e-07 0)
(40.9585 1.13409e-07 0)
(40.9425 1.17652e-07 0)
(40.9263 1.14812e-07 0)
(40.91 1.37873e-07 0)
(40.8938 2.27209e-07 0)
(40.878 9.54775e-07 0)
(40.8626 5.99958e-06 0)
(40.8481 4.2077e-05 0)
(40.8353 0.000299052 0)
(40.83 0.00214862 0)
(40.8722 0.0155346 0)
(41.0582 0.129487 0)
(44.0267 0.542952 0)
(42.6942 -0.000101853 0)
(42.6814 -9.32403e-05 0)
(42.6661 -9.0723e-05 0)
(42.6518 -9.16537e-05 0)
(42.6387 -9.23745e-05 0)
(42.6259 -9.27246e-05 0)
(42.613 -9.28398e-05 0)
(42.6002 -9.26258e-05 0)
(42.5876 -9.1899e-05 0)
(42.5751 -9.04253e-05 0)
(42.5628 -8.79446e-05 0)
(42.5507 -8.4224e-05 0)
(42.5388 -7.91264e-05 0)
(42.5273 -7.26656e-05 0)
(42.516 -6.50322e-05 0)
(42.505 -5.6577e-05 0)
(42.4945 -4.77574e-05 0)
(42.4842 -3.90609e-05 0)
(42.4744 -3.09282e-05 0)
(42.4649 -2.3694e-05 0)
(42.4559 -1.75573e-05 0)
(42.4471 -1.25814e-05 0)
(42.4388 -8.71638e-06 0)
(42.4308 -5.8348e-06 0)
(42.4232 -3.77041e-06 0)
(42.4159 -2.34376e-06 0)
(42.409 -1.39541e-06 0)
(42.4025 -7.85448e-07 0)
(42.3963 -4.03008e-07 0)
(42.3904 -1.71802e-07 0)
(42.3848 -3.76825e-08 0)
(42.3795 3.56407e-08 0)
(42.3745 7.50789e-08 0)
(42.3698 9.55967e-08 0)
(42.3652 1.05757e-07 0)
(42.3609 1.10497e-07 0)
(42.3566 1.12515e-07 0)
(42.3524 1.13267e-07 0)
(42.3482 1.13552e-07 0)
(42.344 1.13764e-07 0)
(42.3396 1.141e-07 0)
(42.3351 1.1464e-07 0)
(42.3303 1.15412e-07 0)
(42.3252 1.16416e-07 0)
(42.3197 1.17609e-07 0)
(42.3139 1.18946e-07 0)
(42.3076 1.20373e-07 0)
(42.3008 1.21847e-07 0)
(42.2935 1.23338e-07 0)
(42.2857 1.24842e-07 0)
(42.2773 1.26346e-07 0)
(42.2683 1.27859e-07 0)
(42.2588 1.2933e-07 0)
(42.2488 1.30678e-07 0)
(42.2383 1.31855e-07 0)
(42.2274 1.32802e-07 0)
(42.216 1.33476e-07 0)
(42.2042 1.33832e-07 0)
(42.1921 1.33837e-07 0)
(42.1798 1.33454e-07 0)
(42.1673 1.32673e-07 0)
(42.1546 1.31479e-07 0)
(42.1418 1.30037e-07 0)
(42.129 1.28229e-07 0)
(42.1162 1.25066e-07 0)
(42.1035 1.22276e-07 0)
(42.0909 1.19441e-07 0)
(42.0784 1.16273e-07 0)
(42.0662 1.12639e-07 0)
(42.0541 1.08721e-07 0)
(42.0424 1.04609e-07 0)
(42.0308 1.00374e-07 0)
(42.0196 9.60941e-08 0)
(42.0086 9.1776e-08 0)
(41.9979 8.7489e-08 0)
(41.9875 8.32346e-08 0)
(41.9774 7.90974e-08 0)
(41.9676 7.50929e-08 0)
(41.958 7.12505e-08 0)
(41.9486 6.76028e-08 0)
(41.9395 6.41821e-08 0)
(41.9306 6.1008e-08 0)
(41.9218 5.81553e-08 0)
(41.9132 5.8463e-08 0)
(41.9048 5.3297e-08 0)
(41.8963 4.77932e-08 0)
(41.8878 4.83446e-08 0)
(41.8793 4.66885e-08 0)
(41.8708 4.4584e-08 0)
(41.8621 4.25501e-08 0)
(41.8533 4.06104e-08 0)
(41.8442 3.87336e-08 0)
(41.8349 3.68711e-08 0)
(41.8253 3.50426e-08 0)
(41.8152 3.32514e-08 0)
(41.8048 3.1446e-08 0)
(41.7939 2.97179e-08 0)
(41.7826 2.8012e-08 0)
(41.7707 2.64043e-08 0)
(41.7584 2.49268e-08 0)
(41.7456 2.35879e-08 0)
(41.7324 2.25362e-08 0)
(41.7188 2.17463e-08 0)
(41.7048 2.13584e-08 0)
(41.6905 2.13844e-08 0)
(41.6761 2.1846e-08 0)
(41.6615 2.27902e-08 0)
(41.6469 2.41404e-08 0)
(41.6324 2.5933e-08 0)
(41.618 2.80829e-08 0)
(41.604 3.05647e-08 0)
(41.5903 3.33355e-08 0)
(41.5771 3.62812e-08 0)
(41.5645 3.95209e-08 0)
(41.5525 4.29831e-08 0)
(41.5413 4.66649e-08 0)
(41.5308 5.05169e-08 0)
(41.5211 5.44901e-08 0)
(41.5122 5.85283e-08 0)
(41.5042 6.25476e-08 0)
(41.497 6.65044e-08 0)
(41.4905 7.03119e-08 0)
(41.4847 7.39312e-08 0)
(41.4796 7.73058e-08 0)
(41.475 8.03853e-08 0)
(41.4709 8.31456e-08 0)
(41.4672 8.55557e-08 0)
(41.4637 8.76141e-08 0)
(41.4603 8.93234e-08 0)
(41.457 9.06802e-08 0)
(41.4536 9.17119e-08 0)
(41.45 9.24397e-08 0)
(41.4462 9.29096e-08 0)
(41.4421 9.31516e-08 0)
(41.4376 9.32182e-08 0)
(41.4327 9.31532e-08 0)
(41.4272 9.29993e-08 0)
(41.4213 9.27996e-08 0)
(41.4149 9.25893e-08 0)
(41.408 9.24016e-08 0)
(41.4006 9.22648e-08 0)
(41.3927 9.22015e-08 0)
(41.3843 9.22197e-08 0)
(41.3755 9.23116e-08 0)
(41.3662 9.24948e-08 0)
(41.3565 9.27595e-08 0)
(41.3464 9.31228e-08 0)
(41.336 9.35931e-08 0)
(41.3252 9.41691e-08 0)
(41.3142 9.48789e-08 0)
(41.3029 9.57316e-08 0)
(41.2915 9.67453e-08 0)
(41.2799 9.79334e-08 0)
(41.2683 9.93121e-08 0)
(41.2567 1.00884e-07 0)
(41.2452 1.02656e-07 0)
(41.2338 1.04618e-07 0)
(41.2227 1.0675e-07 0)
(41.2119 1.09035e-07 0)
(41.2015 1.11453e-07 0)
(41.1916 1.13976e-07 0)
(41.1821 1.16572e-07 0)
(41.173 1.19193e-07 0)
(41.1645 1.21797e-07 0)
(41.1563 1.24333e-07 0)
(41.1486 1.26743e-07 0)
(41.1412 1.28983e-07 0)
(41.134 1.31019e-07 0)
(41.127 1.32819e-07 0)
(41.1201 1.3437e-07 0)
(41.1131 1.35676e-07 0)
(41.106 1.36751e-07 0)
(41.0986 1.37611e-07 0)
(41.091 1.38285e-07 0)
(41.083 1.38795e-07 0)
(41.0747 1.39179e-07 0)
(41.0658 1.39444e-07 0)
(41.0565 1.39629e-07 0)
(41.0466 1.3971e-07 0)
(41.036 1.39749e-07 0)
(41.0249 1.39747e-07 0)
(41.013 1.39699e-07 0)
(41.0005 1.39726e-07 0)
(40.9872 1.39673e-07 0)
(40.9733 1.39958e-07 0)
(40.9587 1.4005e-07 0)
(40.9435 1.41034e-07 0)
(40.9279 1.41328e-07 0)
(40.9119 1.43612e-07 0)
(40.8957 1.44344e-07 0)
(40.8795 1.50831e-07 0)
(40.8633 1.67512e-07 0)
(40.8474 2.84478e-07 0)
(40.8321 1.05723e-06 0)
(40.8176 6.54825e-06 0)
(40.8048 4.53804e-05 0)
(40.7997 0.000333257 0)
(40.8448 0.00263316 0)
(41.0461 0.0378191 0)
(46.0653 0.154185 0)
(36.7677 1.25229 -3.17201e-15)
(35.7356 3.59274 6.36189e-15)
(35.3361 6.25554 -1.19273e-14)
(34.9534 8.95449 2.46407e-14)
(34.362 11.6395 -2.54157e-14)
(33.6133 14.3168 -1.58654e-15)
(32.6874 16.9719 9.79562e-20)
(31.424 19.4718 -2.21897e-14)
(29.6964 21.6813 -1.03035e-13)
(27.593 23.557 1.01582e-13)
(25.5904 25.5236 -2.53939e-14)
(24.3157 28.3659 -5.19913e-14)
(23.5652 32.4114 2.64977e-14)
(22.493 36.8718 0)
(20.4338 40.2446 2.46507e-14)
(17.4131 41.6997 2.46503e-14)
(13.9515 41.7666 -2.47129e-14)
(10.4531 41.1635 2.48218e-14)
(7.1143 40.074 1.95034e-16)
(4.0707 41.0305 -1.92938e-16)
(37.8781 1.9662 0)
(37.2706 4.80197 0)
(36.8788 7.92599 -1.61541e-15)
(36.3926 11.0305 -3.22704e-15)
(35.6769 14.0844 8.05556e-15)
(34.7789 17.1168 1.60792e-14)
(33.6259 20.201 0)
(31.9847 23.2753 9.6326e-15)
(29.803 26.0157 1.60475e-14)
(27.2476 28.2144 -3.85292e-14)
(25.1614 29.8307 2.56924e-14)
(24.1753 31.7888 1.27274e-14)
(23.5295 35.1609 -1.2573e-14)
(21.964 39.784 1.24541e-14)
(18.6398 44.3362 0)
(14.2709 46.8977 -1.55398e-15)
(9.66044 47.5698 1.55292e-15)
(5.08139 47.1017 -5.44705e-15)
(0.863896 45.5164 -7.82443e-16)
(1.20681 43.9521 0)
(40.5819 1.53205 -4.1246e-17)
(40.5848 2.52298 -2.0961e-14)
(40.689 3.52931 2.12888e-14)
(40.8775 4.53172 -2.04621e-14)
(41.1023 5.59593 -2.24449e-14)
(41.3267 6.78578 8.35458e-14)
(41.5394 8.12974 -4.22948e-14)
(41.7338 9.67384 4.09941e-14)
(41.8508 11.4866 -8.33415e-14)
(41.7794 13.6166 1.33028e-15)
(41.3533 16.0419 4.10406e-14)
(40.438 18.5924 0)
(39.2778 20.9405 -4.1122e-14)
(38.3073 22.955 4.12146e-14)
(37.7558 24.8473 -3.32881e-16)
(37.3005 26.9999 0)
(36.4851 29.4987 3.33158e-16)
(35.1488 32.2032 0)
(33.2279 35.0014 0)
(30.667 37.681 0)
(44.5304 2.51852 6.32674e-16)
(44.2596 5.80208 -6.34722e-15)
(43.2888 9.70825 -1.272e-15)
(42.1495 13.7113 2.54056e-15)
(41.1137 17.6603 -2.52977e-15)
(40.1063 21.5461 -4.39283e-19)
(38.9689 25.3638 -1.00047e-14)
(37.561 29.0715 0)
(35.8455 32.6519 0)
(33.8269 36.0992 -4.92415e-15)
(31.4841 39.3677 4.89937e-15)
(28.8443 42.4567 0)
(25.8945 45.3247 -4.85246e-15)
(22.6428 47.9372 4.83573e-15)
(19.104 50.2529 -4.81974e-15)
(15.3129 52.2276 9.61e-15)
(11.3261 53.8294 -4.79496e-15)
(7.21574 55.0415 0)
(3.08075 55.8797 -2.38588e-15)
(-0.697621 56.3397 0)
(47.4594 1.74942 -9.65553e-16)
(48.3864 4.48402 7.40163e-15)
(48.1066 7.76642 5.14901e-15)
(47.3325 11.2064 1.02882e-14)
(46.5449 14.7716 0)
(45.7564 18.4572 0)
(44.8317 22.2229 1.01871e-14)
(43.6534 25.9846 2.53561e-15)
(42.155 29.7279 -5.04852e-15)
(40.3451 33.3872 2.51404e-15)
(38.1863 36.9396 2.00259e-14)
(35.7056 40.3382 -1.24671e-14)
(32.9028 43.5271 1.24258e-14)
(29.7924 46.4467 -2.47698e-15)
(26.3937 49.0373 -9.88553e-15)
(22.7316 51.2474 -1.72771e-14)
(18.8452 53.0309 -8.63264e-15)
(14.7818 54.3266 -1.23335e-15)
(10.6235 55.0087 7.09819e-15)
(6.6252 54.7512 3.09496e-16)
(1.09404 52.2753 0)
(0.874071 57.7844 0)
(1.04641 57.6819 0)
(1.07862 56.3418 0)
(1.05211 56.1775 0)
(1.02547 56.7683 0)
(1.04582 57.1525 0)
(1.06044 57.1544 0)
(1.05915 57.0962 0)
(1.04488 57.1762 0)
(1.03881 57.3123 0)
(1.03266 57.3599 0)
(1.01544 57.3084 0)
(0.986064 57.1849 0)
(0.944767 56.9758 0)
(0.891868 56.6471 0)
(0.828175 56.1558 0)
(0.755615 55.4505 0)
(0.675019 54.4927 0)
(0.591917 53.2744 0)
(0.509301 51.8214 0)
(0.428685 50.2119 0)
(0.354671 48.5542 0)
(0.286118 46.957 0)
(0.224758 45.5175 0)
(0.172038 44.2951 0)
(0.128157 43.3086 0)
(0.0927436 42.5459 0)
(0.0653414 41.9764 0)
(0.0447903 41.5627 0)
(0.0298746 41.2687 0)
(0.0193955 41.0634 0)
(0.0122628 40.922 0)
(0.00755441 40.8256 0)
(0.00453693 40.76 0)
(0.00265767 40.7151 0)
(0.0015192 40.6839 0)
(0.000847825 40.6616 0)
(0.000462127 40.645 0)
(0.000246128 40.6318 0)
(0.000128139 40.6208 0)
(6.52387e-05 40.6112 0)
(3.24973e-05 40.6024 0)
(1.58488e-05 40.5943 0)
(7.57584e-06 40.5866 0)
(3.55731e-06 40.5793 0)
(1.64901e-06 40.5723 0)
(7.63347e-07 40.5657 0)
(3.62016e-07 40.5594 0)
(1.84724e-07 40.5534 0)
(1.08921e-07 40.5479 0)
(8.04384e-08 40.5428 0)
(6.61661e-08 40.5381 0)
(6.07913e-08 40.5339 0)
(5.97715e-08 40.5302 0)
(6.0376e-08 40.5269 0)
(6.15076e-08 40.5243 0)
(6.27694e-08 40.5221 0)
(6.40625e-08 40.5205 0)
(6.53881e-08 40.5194 0)
(6.67631e-08 40.5189 0)
(6.81335e-08 40.5189 0)
(6.96605e-08 40.5194 0)
(7.10838e-08 40.5203 0)
(7.25484e-08 40.5218 0)
(7.40106e-08 40.5236 0)
(7.55118e-08 40.5258 0)
(7.6454e-08 40.5283 0)
(7.83431e-08 40.5311 0)
(7.93296e-08 40.534 0)
(8.03145e-08 40.5372 0)
(8.21316e-08 40.5404 0)
(8.43001e-08 40.5437 0)
(8.52907e-08 40.5471 0)
(8.59603e-08 40.5503 0)
(8.67858e-08 40.5534 0)
(8.75717e-08 40.5564 0)
(8.82937e-08 40.5591 0)
(8.88703e-08 40.5616 0)
(8.92947e-08 40.5638 0)
(8.95419e-08 40.5656 0)
(8.95946e-08 40.5671 0)
(8.95331e-08 40.5682 0)
(8.93093e-08 40.569 0)
(8.87878e-08 40.5693 0)
(8.83882e-08 40.5692 0)
(8.76279e-08 40.5687 0)
(8.69045e-08 40.5679 0)
(8.60661e-08 40.5666 0)
(8.51465e-08 40.5649 0)
(8.42545e-08 40.5629 0)
(8.35026e-08 40.5606 0)