/*--------------------------------*- C++ -*----------------------------------*\
| =========                 |                                                 |
| \\      /  F ield         | OpenFOAM: The Open Source CFD Toolbox           |
|  \\    /   O peration     | Version:  3.0.x                                 |
|   \\  /    A nd           | Web:      www.OpenFOAM.org                      |
|    \\/     M anipulation  |                                                 |
\*---------------------------------------------------------------------------*/
FoamFile
{
    version     2.0;
    format      ascii;
    class       volScalarField;
    location    "0.03";
    object      rho;
}
// * * * * * * * * * * * * * * * * * * * * * * * * * * * * * * * * * * * * * //

dimensions      [1 -3 0 0 0 0 0];

internalField   nonuniform List<scalar> 
6900
(
50.4677
50.4677
50.4677
50.4677
50.4677
50.4677
50.4677
50.4677
50.4677
50.4677
50.4677
50.4677
50.4677
50.4677
50.4677
50.4677
50.4677
50.4677
50.4677
50.4677
50.4677
50.4677
50.4677
50.4677
50.4677
50.4677
50.4677
50.4677
50.4677
50.4677
50.4677
50.4677
50.4677
50.4677
50.4677
50.4677
50.4677
50.4677
50.4677
50.4677
50.4677
50.4677
50.4677
50.4677
50.4677
50.4677
50.4677
50.4677
50.4677
50.4677
50.4677
50.4677
50.4677
50.4677
50.4677
50.4677
50.4677
50.4677
50.4677
50.4677
50.4677
50.4677
50.4677
50.4677
50.4677
50.4677
50.4677
50.4677
50.4677
50.4677
50.4677
50.4677
50.4677
50.4677
50.4677
50.4677
50.4677
50.4677
50.4677
50.4677
50.4677
50.4677
50.4677
50.4677
50.4677
50.4677
50.4677
50.4677
50.4677
50.4677
50.4677
50.4677
50.4677
50.4677
50.4677
50.4677
50.4677
50.4677
50.4677
50.4677
50.4678
50.4678
50.4679
50.468
50.4681
50.4683
50.4686
50.4689
50.4694
50.47
50.4707
50.4716
50.4728
50.4742
50.4758
50.4778
50.48
50.4825
50.4853
50.4883
50.4914
50.4945
50.4977
50.5006
50.5033
50.5055
50.5073
50.5085
50.5091
50.5091
50.5085
50.5074
50.5058
50.504
50.502
50.5
50.4982
50.4966
50.4954
50.4946
50.4942
50.4942
50.4945
50.4952
50.4961
50.4972
50.4984
50.4998
50.5011
50.5025
50.5038
50.5051
50.5063
50.5075
50.5087
50.5098
50.5109
50.512
50.513
50.514
50.515
50.5159
50.5168
50.5177
50.5186
50.5194
50.5202
50.521
50.5217
50.5224
50.5231
50.5237
50.5243
50.5248
50.5253
50.5258
50.5262
50.5265
50.5269
50.5271
50.5273
50.5275
50.5276
50.5277
50.5278
50.5278
50.5277
50.5277
50.5276
50.5274
50.5272
50.527
50.5268
50.5266
50.5263
50.526
50.5258
50.5255
50.5256
50.5227
50.4677
50.4677
50.4677
50.4677
50.4677
50.4677
50.4677
50.4677
50.4677
50.4677
50.4677
50.4677
50.4677
50.4677
50.4677
50.4677
50.4677
50.4677
50.4677
50.4677
50.4677
50.4677
50.4677
50.4677
50.4677
50.4677
50.4677
50.4677
50.4677
50.4677
50.4677
50.4677
50.4677
50.4677
50.4677
50.4677
50.4677
50.4677
50.4677
50.4677
50.4677
50.4677
50.4677
50.4677
50.4677
50.4677
50.4677
50.4677
50.4677
50.4677
50.4677
50.4677
50.4677
50.4677
50.4677
50.4677
50.4677
50.4677
50.4677
50.4677
50.4677
50.4677
50.4677
50.4677
50.4677
50.4677
50.4677
50.4677
50.4677
50.4677
50.4677
50.4677
50.4677
50.4677
50.4677
50.4677
50.4677
50.4677
50.4677
50.4677
50.4677
50.4677
50.4677
50.4677
50.4677
50.4677
50.4677
50.4677
50.4677
50.4677
50.4677
50.4677
50.4677
50.4677
50.4677
50.4677
50.4677
50.4677
50.4677
50.4677
50.4678
50.4678
50.4679
50.468
50.4681
50.4683
50.4686
50.4689
50.4694
50.47
50.4707
50.4717
50.4728
50.4742
50.4759
50.4778
50.48
50.4825
50.4853
50.4883
50.4914
50.4945
50.4977
50.5006
50.5033
50.5056
50.5073
50.5085
50.5091
50.5091
50.5085
50.5074
50.5058
50.504
50.502
50.5
50.4982
50.4966
50.4954
50.4946
50.4942
50.4942
50.4945
50.4952
50.4961
50.4972
50.4985
50.4998
50.5011
50.5025
50.5038
50.5051
50.5063
50.5075
50.5087
50.5098
50.5109
50.512
50.513
50.514
50.515
50.5159
50.5168
50.5177
50.5186
50.5194
50.5202
50.521
50.5217
50.5224
50.5231
50.5237
50.5243
50.5248
50.5253
50.5258
50.5262
50.5266
50.5269
50.5271
50.5273
50.5275
50.5277
50.5277
50.5278
50.5278
50.5277
50.5277
50.5276
50.5274
50.5272
50.5271
50.5268
50.5266
50.5263
50.526
50.5258
50.5255
50.5256
50.523
50.4677
50.4677
50.4677
50.4677
50.4677
50.4677
50.4677
50.4677
50.4677
50.4677
50.4677
50.4677
50.4677
50.4677
50.4677
50.4677
50.4677
50.4677
50.4677
50.4677
50.4677
50.4677
50.4677
50.4677
50.4677
50.4677
50.4677
50.4677
50.4677
50.4677
50.4677
50.4677
50.4677
50.4677
50.4677
50.4677
50.4677
50.4677
50.4677
50.4677
50.4677
50.4677
50.4677
50.4677
50.4677
50.4677
50.4677
50.4677
50.4677
50.4677
50.4677
50.4677
50.4677
50.4677
50.4677
50.4677
50.4677
50.4677
50.4677
50.4677
50.4677
50.4677
50.4677
50.4677
50.4677
50.4677
50.4677
50.4677
50.4677
50.4677
50.4677
50.4677
50.4677
50.4677
50.4677
50.4677
50.4677
50.4677
50.4677
50.4677
50.4677
50.4677
50.4677
50.4677
50.4677
50.4677
50.4677
50.4677
50.4677
50.4677
50.4677
50.4677
50.4677
50.4677
50.4677
50.4677
50.4677
50.4677
50.4677
50.4677
50.4678
50.4678
50.4679
50.468
50.4681
50.4683
50.4686
50.4689
50.4694
50.47
50.4707
50.4717
50.4728
50.4742
50.4759
50.4778
50.48
50.4825
50.4853
50.4883
50.4914
50.4945
50.4977
50.5006
50.5033
50.5056
50.5073
50.5085
50.5091
50.5091
50.5085
50.5074
50.5058
50.504
50.502
50.5
50.4982
50.4966
50.4954
50.4946
50.4942
50.4942
50.4945
50.4952
50.4961
50.4972
50.4985
50.4998
50.5011
50.5025
50.5038
50.5051
50.5063
50.5075
50.5087
50.5098
50.5109
50.512
50.513
50.514
50.515
50.5159
50.5168
50.5177
50.5186
50.5194
50.5202
50.521
50.5217
50.5224
50.5231
50.5237
50.5243
50.5248
50.5253
50.5258
50.5262
50.5266
50.5269
50.5271
50.5273
50.5275
50.5277
50.5277
50.5278
50.5278
50.5277
50.5277
50.5276
50.5274
50.5272
50.5271
50.5268
50.5266
50.5263
50.526
50.5258
50.5255
50.5252
50.5249
50.4677
50.4677
50.4677
50.4677
50.4677
50.4677
50.4677
50.4677
50.4677
50.4677
50.4677
50.4677
50.4677
50.4677
50.4677
50.4677
50.4677
50.4677
50.4677
50.4677
50.4677
50.4677
50.4677
50.4677
50.4677
50.4677
50.4677
50.4677
50.4677
50.4677
50.4677
50.4677
50.4677
50.4677
50.4677
50.4677
50.4677
50.4677
50.4677
50.4677
50.4677
50.4677
50.4677
50.4677
50.4677
50.4677
50.4677
50.4677
50.4677
50.4677
50.4677
50.4677
50.4677
50.4677
50.4677
50.4677
50.4677
50.4677
50.4677
50.4677
50.4677
50.4677
50.4677
50.4677
50.4677
50.4677
50.4677
50.4677
50.4677
50.4677
50.4677
50.4677
50.4677
50.4677
50.4677
50.4677
50.4677
50.4677
50.4677
50.4677
50.4677
50.4677
50.4677
50.4677
50.4677
50.4677
50.4677
50.4677
50.4677
50.4677
50.4677
50.4677
50.4677
50.4677
50.4677
50.4677
50.4677
50.4677
50.4677
50.4677
50.4678
50.4678
50.4679
50.468
50.4681
50.4683
50.4686
50.4689
50.4694
50.47
50.4707
50.4717
50.4728
50.4742
50.4759
50.4778
50.48
50.4825
50.4853
50.4883
50.4914
50.4945
50.4977
50.5006
50.5033
50.5056
50.5073
50.5085
50.5091
50.5091
50.5085
50.5074
50.5058
50.504
50.502
50.5
50.4982
50.4966
50.4954
50.4946
50.4942
50.4942
50.4945
50.4952
50.4961
50.4972
50.4985
50.4998
50.5011
50.5025
50.5038
50.5051
50.5063
50.5075
50.5087
50.5098
50.5109
50.512
50.513
50.514
50.515
50.5159
50.5168
50.5177
50.5186
50.5194
50.5202
50.521
50.5217
50.5224
50.5231
50.5237
50.5243
50.5248
50.5253
50.5258
50.5262
50.5266
50.5269
50.5271
50.5273
50.5275
50.5277
50.5277
50.5278
50.5278
50.5277
50.5277
50.5276
50.5274
50.5272
50.5271
50.5268
50.5266
50.5263
50.526
50.5257
50.5255
50.5244
50.5301
50.4677
50.4677
50.4677
50.4677
50.4677
50.4677
50.4677
50.4677
50.4677
50.4677
50.4677
50.4677
50.4677
50.4677
50.4677
50.4677
50.4677
50.4677
50.4677
50.4677
50.4677
50.4677
50.4677
50.4677
50.4677
50.4677
50.4677
50.4677
50.4677
50.4677
50.4677
50.4677
50.4677
50.4677
50.4677
50.4677
50.4677
50.4677
50.4677
50.4677
50.4677
50.4677
50.4677
50.4677
50.4677
50.4677
50.4677
50.4677
50.4677
50.4677
50.4677
50.4677
50.4677
50.4677
50.4677
50.4677
50.4677
50.4677
50.4677
50.4677
50.4677
50.4677
50.4677
50.4677
50.4677
50.4677
50.4677
50.4677
50.4677
50.4677
50.4677
50.4677
50.4677
50.4677
50.4677
50.4677
50.4677
50.4677
50.4677
50.4677
50.4677
50.4677
50.4677
50.4677
50.4677
50.4677
50.4677
50.4677
50.4677
50.4677
50.4677
50.4677
50.4677
50.4677
50.4677
50.4677
50.4677
50.4677
50.4677
50.4677
50.4678
50.4678
50.4679
50.468
50.4681
50.4683
50.4686
50.4689
50.4694
50.47
50.4707
50.4716
50.4728
50.4742
50.4758
50.4778
50.48
50.4825
50.4853
50.4883
50.4914
50.4945
50.4977
50.5006
50.5033
50.5055
50.5073
50.5085
50.5091
50.5091
50.5085
50.5074
50.5058
50.504
50.502
50.5
50.4982
50.4966
50.4954
50.4946
50.4942
50.4942
50.4945
50.4952
50.4961
50.4972
50.4984
50.4998
50.5011
50.5025
50.5038
50.5051
50.5063
50.5075
50.5087
50.5098
50.5109
50.512
50.513
50.514
50.515
50.5159
50.5168
50.5177
50.5186
50.5194
50.5202
50.521
50.5217
50.5224
50.5231
50.5237
50.5243
50.5248
50.5253
50.5258
50.5262
50.5265
50.5269
50.5271
50.5273
50.5275
50.5276
50.5277
50.5278
50.5278
50.5277
50.5277
50.5276
50.5274
50.5272
50.527
50.5268
50.5266
50.5263
50.526
50.5257
50.5256
50.5239
50.5355
50.5409
50.5477
50.5485
50.547
50.5457
50.5449
50.5434
50.54
50.5348
50.5291
50.5236
50.5188
50.5161
50.5209
50.5252
50.5261
50.5162
50.4821
50.3943
50.2126
50.5372
50.5406
50.5405
50.5389
50.5378
50.5373
50.5359
50.5318
50.5253
50.5199
50.5176
50.5178
50.519
50.5265
50.5317
50.5343
50.5308
50.5156
50.4888
50.4702
50.5255
50.5253
50.5241
50.522
50.519
50.5154
50.5112
50.5064
50.501
50.4947
50.4873
50.4789
50.4697
50.459
50.4482
50.4379
50.4288
50.4214
50.4171
50.4072
50.5025
50.4994
50.5002
50.5016
50.5006
50.4969
50.4913
50.4844
50.4779
50.4706
50.4636
50.4569
50.4503
50.444
50.4382
50.4329
50.4278
50.4234
50.4202
50.4181
50.4927
50.4805
50.4758
50.4751
50.4729
50.4679
50.4612
50.4532
50.4452
50.4367
50.4285
50.4205
50.4126
50.4053
50.3981
50.3915
50.3853
50.3797
50.3762
50.3742
49.8068
49.8192
50.1341
50.4481
50.5883
50.6199
50.6046
50.5336
50.4695
50.4385
50.4255
50.4205
50.4187
50.4179
50.4176
50.4173
50.4171
50.417
50.4168
50.4167
50.4165
50.4164
50.4163
50.4162
50.4162
50.4161
50.4161
50.4161
50.4161
50.4161
50.4162
50.4162
50.4163
50.4164
50.4166
50.4167
50.4169
50.4171
50.4173
50.4176
50.4178
50.4181
50.4185
50.4188
50.4192
50.4196
50.42
50.4204
50.4209
50.4213
50.4218
50.4223
50.4229
50.4234
50.424
50.4246
50.4252
50.4258
50.4264
50.4271
50.4278
50.4284
50.4291
50.4299
50.4306
50.4313
50.4321
50.4329
50.4337
50.4345
50.4353
50.4362
50.4371
50.438
50.439
50.4399
50.4409
50.4419
50.4428
50.4438
50.4447
50.4456
50.4465
50.4472
50.4479
50.4485
50.449
50.4495
50.4498
50.45
50.4502
50.4504
50.4506
50.4508
50.4511
50.4515
50.4521
50.4529
50.4539
50.4551
50.4566
50.4582
50.4601
50.4621
50.4643
50.4665
50.4687
50.4708
50.4728
50.4747
50.4764
50.4779
50.4792
50.4802
50.4811
50.4818
50.4824
50.4829
50.4834
50.4839
50.4844
50.485
50.4857
50.4865
50.4875
50.4885
50.4897
50.4909
50.4922
50.4935
50.4949
50.4963
50.4976
50.499
50.5002
50.5015
50.5027
50.5038
50.5049
50.506
50.507
50.508
50.5089
50.5098
50.5107
50.5116
50.5124
50.5132
50.514
50.5148
50.5155
50.5163
50.517
50.5177
50.5184
50.519
50.5197
50.5203
50.5209
50.5215
50.5221
50.5226
50.5231
50.5236
50.5241
50.5245
50.5249
50.5253
50.5257
50.526
50.5263
50.5266
50.5269
50.5271
50.5273
50.5275
50.5277
50.5278
50.528
50.5281
50.5282
50.5284
50.5285
50.5287
50.5289
50.5291
50.5294
50.5298
50.5303
50.5309
50.5316
50.5324
50.5334
50.5346
50.5359
50.5374
50.5391
50.541
50.5419
50.5528
50.3811
50.3822
50.4209
50.4225
50.3977
50.3828
50.3834
50.3943
50.4086
50.4152
50.4175
50.418
50.418
50.4178
50.4175
50.4173
50.4171
50.417
50.4168
50.4167
50.4165
50.4164
50.4163
50.4163
50.4162
50.4161
50.4161
50.4161
50.4161
50.4161
50.4162
50.4162
50.4163
50.4164
50.4166
50.4167
50.4169
50.4171
50.4173
50.4176
50.4178
50.4181
50.4185
50.4188
50.4192
50.4196
50.42
50.4204
50.4209
50.4213
50.4218
50.4223
50.4229
50.4234
50.424
50.4246
50.4252
50.4258
50.4265
50.4271
50.4278
50.4284
50.4291
50.4299
50.4306
50.4313
50.4321
50.4329
50.4337
50.4345
50.4354
50.4362
50.4371
50.438
50.439
50.4399
50.4409
50.4419
50.4428
50.4438
50.4447
50.4456
50.4465
50.4472
50.4479
50.4485
50.449
50.4495
50.4498
50.45
50.4502
50.4504
50.4506
50.4508
50.4511
50.4515
50.4521
50.4529
50.4539
50.4551
50.4566
50.4582
50.4601
50.4621
50.4643
50.4665
50.4687
50.4708
50.4728
50.4747
50.4764
50.4779
50.4792
50.4802
50.4811
50.4818
50.4824
50.4829
50.4834
50.4839
50.4844
50.485
50.4857
50.4865
50.4875
50.4885
50.4897
50.4909
50.4922
50.4936
50.4949
50.4963
50.4976
50.499
50.5002
50.5015
50.5027
50.5038
50.5049
50.506
50.507
50.508
50.5089
50.5098
50.5107
50.5116
50.5124
50.5132
50.514
50.5148
50.5155
50.5163
50.517
50.5177
50.5184
50.519
50.5197
50.5203
50.5209
50.5215
50.5221
50.5226
50.5231
50.5236
50.5241
50.5245
50.5249
50.5253
50.5257
50.526
50.5263
50.5266
50.5269
50.5271
50.5273
50.5275
50.5277
50.5278
50.528
50.5281
50.5282
50.5284
50.5285
50.5287
50.5289
50.5291
50.5294
50.5298
50.5303
50.5309
50.5316
50.5324
50.5334
50.5346
50.5359
50.5375
50.5391
50.541
50.5422
50.5482
50.39
50.412
50.4241
50.4235
50.4196
50.4187
50.4191
50.4197
50.4198
50.4193
50.4186
50.4182
50.4179
50.4176
50.4174
50.4173
50.4171
50.417
50.4168
50.4167
50.4165
50.4164
50.4163
50.4163
50.4162
50.4161
50.4161
50.4161
50.4161
50.4161
50.4162
50.4162
50.4163
50.4164
50.4166
50.4167
50.4169
50.4171
50.4173
50.4176
50.4178
50.4181
50.4185
50.4188
50.4192
50.4196
50.42
50.4204
50.4209
50.4213
50.4218
50.4223
50.4229
50.4234
50.424
50.4246
50.4252
50.4258
50.4265
50.4271
50.4278
50.4284
50.4291
50.4299
50.4306
50.4313
50.4321
50.4329
50.4337
50.4345
50.4354
50.4362
50.4371
50.438
50.439
50.4399
50.4409
50.4419
50.4428
50.4438
50.4447
50.4456
50.4465
50.4472
50.4479
50.4485
50.449
50.4495
50.4498
50.45
50.4502
50.4504
50.4506
50.4508
50.4511
50.4515
50.4521
50.4529
50.4539
50.4551
50.4566
50.4582
50.4601
50.4621
50.4643
50.4665
50.4687
50.4708
50.4728
50.4747
50.4764
50.4779
50.4792
50.4802
50.4811
50.4818
50.4824
50.4829
50.4834
50.4839
50.4844
50.485
50.4857
50.4865
50.4875
50.4885
50.4897
50.4909
50.4922
50.4936
50.4949
50.4963
50.4976
50.499
50.5002
50.5015
50.5027
50.5038
50.5049
50.506
50.507
50.508
50.5089
50.5098
50.5107
50.5116
50.5124
50.5132
50.514
50.5148
50.5155
50.5163
50.517
50.5177
50.5184
50.519
50.5197
50.5203
50.5209
50.5215
50.5221
50.5226
50.5231
50.5236
50.5241
50.5245
50.5249
50.5253
50.5257
50.526
50.5263
50.5266
50.5269
50.5271
50.5273
50.5275
50.5277
50.5278
50.528
50.5281
50.5282
50.5284
50.5285
50.5287
50.5289
50.5291
50.5294
50.5298
50.5303
50.5309
50.5316
50.5324
50.5334
50.5346
50.5359
50.5374
50.5392
50.541
50.5431
50.5453
50.4108
50.408
50.4089
50.4007
50.3962
50.3986
50.4105
50.419
50.4214
50.4211
50.4198
50.4186
50.418
50.4177
50.4175
50.4173
50.4171
50.417
50.4168
50.4167
50.4165
50.4164
50.4163
50.4163
50.4162
50.4161
50.4161
50.4161
50.4161
50.4161
50.4162
50.4162
50.4163
50.4164
50.4166
50.4167
50.4169
50.4171
50.4173
50.4176
50.4178
50.4181
50.4185
50.4188
50.4192
50.4196
50.42
50.4204
50.4209
50.4213
50.4218
50.4223
50.4229
50.4234
50.424
50.4246
50.4252
50.4258
50.4265
50.4271
50.4278
50.4284
50.4291
50.4299
50.4306
50.4313
50.4321
50.4329
50.4337
50.4345
50.4354
50.4362
50.4371
50.438
50.439
50.4399
50.4409
50.4419
50.4428
50.4438
50.4447
50.4456
50.4465
50.4472
50.4479
50.4485
50.449
50.4495
50.4498
50.45
50.4502
50.4504
50.4506
50.4508
50.4511
50.4515
50.4521
50.4529
50.4539
50.4551
50.4566
50.4582
50.4601
50.4621
50.4643
50.4665
50.4687
50.4708
50.4728
50.4747
50.4764
50.4779
50.4792
50.4802
50.4811
50.4818
50.4824
50.4829
50.4834
50.4839
50.4844
50.485
50.4857
50.4865
50.4875
50.4885
50.4897
50.4909
50.4922
50.4936
50.4949
50.4963
50.4976
50.499
50.5002
50.5015
50.5027
50.5038
50.5049
50.506
50.507
50.508
50.5089
50.5098
50.5107
50.5116
50.5124
50.5132
50.514
50.5148
50.5155
50.5163
50.517
50.5177
50.5184
50.519
50.5197
50.5203
50.5209
50.5215
50.5221
50.5226
50.5231
50.5236
50.5241
50.5245
50.5249
50.5253
50.5257
50.526
50.5263
50.5266
50.5269
50.5271
50.5273
50.5275
50.5277
50.5278
50.528
50.5281
50.5282
50.5284
50.5285
50.5287
50.5289
50.5291
50.5295
50.5298
50.5303
50.5309
50.5316
50.5324
50.5334
50.5346
50.5359
50.5374
50.5392
50.5411
50.5436
50.5444
50.3929
50.413
50.4682
50.4682
50.3818
50.2732
50.2562
50.2842
50.3533
50.3927
50.4092
50.4151
50.4169
50.4174
50.4174
50.4172
50.4171
50.4169
50.4168
50.4167
50.4165
50.4164
50.4163
50.4162
50.4162
50.4161
50.4161
50.4161
50.4161
50.4161
50.4162
50.4162
50.4163
50.4164
50.4166
50.4167
50.4169
50.4171
50.4173
50.4176
50.4178
50.4181
50.4185
50.4188
50.4192
50.4196
50.42
50.4204
50.4209
50.4213
50.4218
50.4223
50.4229
50.4234
50.424
50.4246
50.4252
50.4258
50.4264
50.4271
50.4278
50.4284
50.4291
50.4299
50.4306
50.4313
50.4321
50.4329
50.4337
50.4345
50.4353
50.4362
50.4371
50.438
50.439
50.4399
50.4409
50.4419
50.4428
50.4438
50.4447
50.4456
50.4465
50.4472
50.4479
50.4485
50.449
50.4495
50.4498
50.45
50.4502
50.4504
50.4506
50.4508
50.4511
50.4515
50.4521
50.4529
50.4539
50.4551
50.4566
50.4582
50.4601
50.4621
50.4643
50.4665
50.4687
50.4708
50.4728
50.4747
50.4764
50.4779
50.4792
50.4802
50.4811
50.4818
50.4824
50.4829
50.4834
50.4839
50.4844
50.485
50.4857
50.4865
50.4875
50.4885
50.4897
50.4909
50.4922
50.4935
50.4949
50.4963
50.4976
50.499
50.5002
50.5015
50.5027
50.5038
50.5049
50.506
50.507
50.508
50.5089
50.5098
50.5107
50.5116
50.5124
50.5132
50.514
50.5148
50.5155
50.5163
50.517
50.5177
50.5184
50.519
50.5197
50.5203
50.5209
50.5215
50.5221
50.5226
50.5231
50.5236
50.5241
50.5245
50.5249
50.5253
50.5257
50.526
50.5263
50.5266
50.5269
50.5271
50.5273
50.5275
50.5277
50.5278
50.528
50.5281
50.5282
50.5284
50.5285
50.5287
50.5289
50.5291
50.5294
50.5298
50.5303
50.5309
50.5316
50.5324
50.5334
50.5346
50.5359
50.5375
50.5392
50.5411
50.5436
50.5442
50.5175
50.5053
50.5008
50.5005
50.4988
50.4943
50.4881
50.4811
50.4737
50.4662
50.4585
50.451
50.4439
50.4372
50.4308
50.4249
50.4192
50.4143
50.4113
50.4098
50.5266
50.5236
50.5247
50.5267
50.526
50.5227
50.5176
50.512
50.5057
50.4997
50.4931
50.4869
50.481
50.4753
50.47
50.4654
50.4608
50.4569
50.454
50.4523
50.5474
50.548
50.5474
50.5458
50.5435
50.5405
50.5369
50.5326
50.5277
50.5219
50.5151
50.5072
50.4985
50.4885
50.478
50.4682
50.459
50.4514
50.4472
50.4389
50.5579
50.5621
50.5628
50.5619
50.5613
50.5613
50.5605
50.5571
50.5512
50.5459
50.5427
50.5426
50.5449
50.5526
50.559
50.5634
50.5624
50.5511
50.5272
50.5076
50.5615
50.5691
50.5707
50.5697
50.5692
50.569
50.5679
50.5649
50.5602
50.5555
50.5508
50.5467
50.545
50.5497
50.555
50.5581
50.5531
50.5283
50.46
50.3111
50.429
50.4475
50.5055
50.5143
50.4439
50.3229
50.2964
50.3167
50.3836
50.4284
50.447
50.453
50.4539
50.4531
50.4516
50.45
50.4484
50.447
50.4457
50.4447
50.444
50.4434
50.4432
50.4432
50.4433
50.4437
50.4443
50.445
50.4458
50.4467
50.4477
50.4488
50.4498
50.4509
50.452
50.4531
50.4542
50.4553
50.4565
50.4576
50.4587
50.4598
50.4609
50.462
50.4631
50.4643
50.4654
50.4665
50.4677
50.4688
50.47
50.4711
50.4723
50.4735
50.4746
50.4758
50.4769
50.4781
50.4792
50.4804
50.4815
50.4827
50.4838
50.4849
50.486
50.4871
50.4882
50.4893
50.4903
50.4914
50.4924
50.4934
50.4944
50.4954
50.4964
50.4973
50.4983
50.4992
50.5
50.5009
50.5017
50.5024
50.503
50.5036
50.504
50.5043
50.5045
50.5045
50.5043
50.5039
50.5033
50.5025
50.5014
50.5003
50.4988
50.4974
50.4956
50.494
50.491
50.4974
50.4456
50.4432
50.4491
50.4487
50.4434
50.4436
50.45
50.4591
50.4622
50.4619
50.4599
50.4575
50.4554
50.4535
50.4517
50.45
50.4484
50.447
50.4458
50.4447
50.444
50.4435
50.4432
50.4432
50.4433
50.4437
50.4443
50.445
50.4458
50.4468
50.4477
50.4488
50.4498
50.4509
50.452
50.4531
50.4542
50.4554
50.4565
50.4576
50.4587
50.4598
50.4609
50.462
50.4631
50.4643
50.4654
50.4665
50.4677
50.4689
50.47
50.4712
50.4723
50.4735
50.4746
50.4758
50.4769
50.4781
50.4793
50.4804
50.4816
50.4827
50.4838
50.4849
50.486
50.4871
50.4882
50.4893
50.4903
50.4914
50.4924
50.4934
50.4944
50.4954
50.4964
50.4973
50.4983
50.4992
50.5001
50.5009
50.5017
50.5024
50.503
50.5036
50.504
50.5043
50.5045
50.5045
50.5043
50.5039
50.5033
50.5025
50.5014
50.5003
50.4988
50.4974
50.4956
50.494
50.4913
50.493
50.4251
50.4481
50.4623
50.4637
50.4606
50.4601
50.4609
50.4615
50.4615
50.4604
50.4587
50.4569
50.4552
50.4534
50.4517
50.45
50.4484
50.447
50.4458
50.4447
50.444
50.4435
50.4432
50.4432
50.4433
50.4437
50.4443
50.445
50.4458
50.4468
50.4477
50.4488
50.4498
50.4509
50.452
50.4531
50.4542
50.4554
50.4565
50.4576
50.4587
50.4598
50.4609
50.462
50.4631
50.4643
50.4654
50.4665
50.4677
50.4689
50.47
50.4712
50.4723
50.4735
50.4746
50.4758
50.4769
50.4781
50.4793
50.4804
50.4816
50.4827
50.4838
50.4849
50.486
50.4871
50.4882
50.4893
50.4903
50.4914
50.4924
50.4934
50.4944
50.4954
50.4964
50.4973
50.4983
50.4992
50.5001
50.5009
50.5017
50.5024
50.503
50.5036
50.504
50.5043
50.5045
50.5045
50.5043
50.5039
50.5033
50.5025
50.5014
50.5003
50.4989
50.4973
50.4957
50.494
50.4923
50.4907
50.4164
50.4137
50.4549
50.4632
50.4456
50.4297
50.4295
50.4374
50.4504
50.4562
50.4574
50.4568
50.4554
50.4536
50.4518
50.4501
50.4484
50.447
50.4458
50.4447
50.444
50.4435
50.4432
50.4432
50.4433
50.4437
50.4443
50.445
50.4458
50.4468
50.4477
50.4488
50.4498
50.4509
50.452
50.4531
50.4542
50.4554
50.4565
50.4576
50.4587
50.4598
50.4609
50.462
50.4631
50.4643
50.4654
50.4665
50.4677
50.4689
50.47
50.4712
50.4723
50.4735
50.4746
50.4758
50.4769
50.4781
50.4793
50.4804
50.4816
50.4827
50.4838
50.4849
50.486
50.4871
50.4882
50.4893
50.4903
50.4914
50.4924
50.4934
50.4944
50.4954
50.4964
50.4973
50.4983
50.4992
50.5001
50.5009
50.5017
50.5024
50.503
50.5036
50.504
50.5043
50.5045
50.5045
50.5043
50.5039
50.5033
50.5025
50.5014
50.5003
50.4989
50.4973
50.4958
50.4941
50.4929
50.4902
49.8869
49.8663
50.1332
50.4602
50.6158
50.6575
50.6488
50.5869
50.5184
50.4831
50.467
50.4599
50.4562
50.4539
50.4519
50.4501
50.4484
50.447
50.4458
50.4447
50.444
50.4434
50.4432
50.4432
50.4433
50.4437
50.4443
50.445
50.4458
50.4467
50.4477
50.4488
50.4498
50.4509
50.452
50.4531
50.4542
50.4553
50.4565
50.4576
50.4587
50.4598
50.4609
50.462
50.4631
50.4643
50.4654
50.4665
50.4677
50.4688
50.47
50.4711
50.4723
50.4735
50.4746
50.4758
50.4769
50.4781
50.4792
50.4804
50.4815
50.4827
50.4838
50.4849
50.486
50.4871
50.4882
50.4893
50.4903
50.4914
50.4924
50.4934
50.4944
50.4954
50.4964
50.4973
50.4983
50.4992
50.5
50.5009
50.5017
50.5024
50.503
50.5036
50.504
50.5043
50.5045
50.5045
50.5043
50.5039
50.5033
50.5024
50.5015
50.5002
50.4989
50.4973
50.4958
50.494
50.4929
50.49
50.4601
50.4469
50.4418
50.4406
50.4379
50.4326
50.4257
50.4177
50.4095
50.4012
50.3928
50.3846
50.3767
50.3693
50.3622
50.3556
50.3494
50.3438
50.3401
50.338
50.4689
50.4654
50.4656
50.4664
50.4649
50.4608
50.455
50.4483
50.4413
50.4345
50.4271
50.4201
50.4135
50.4072
50.4011
50.3958
50.3907
50.3861
50.3827
50.3803
50.4904
50.4899
50.4884
50.486
50.4828
50.4789
50.4744
50.4693
50.4636
50.457
50.4494
50.4407
50.4312
50.4204
50.4092
50.3986
50.3887
50.3802
50.3751
50.3667
50.5011
50.5042
50.5037
50.5019
50.5005
50.4996
50.4979
50.4935
50.4868
50.4807
50.4766
50.4756
50.4767
50.4833
50.4888
50.4922
50.4903
50.4782
50.4533
50.4326
50.5047
50.5111
50.5115
50.5096
50.5083
50.5072
50.5052
50.5013
50.4957
50.4902
50.4847
50.4798
50.4772
50.481
50.4856
50.4879
50.4821
50.4565
50.3883
50.2393
50.3559
50.3752
50.4276
50.4265
50.3386
50.2372
50.2246
50.2559
50.3252
50.3643
50.3818
50.3893
50.3931
50.3956
50.3977
50.3995
50.4013
50.4029
50.4045
50.4059
50.4072
50.4084
50.4094
50.4104
50.4112
50.412
50.4126
50.4132
50.4137
50.4142
50.4146
50.4149
50.4153
50.4156
50.4159
50.4162
50.4165
50.4168
50.4171
50.4174
50.4177
50.418
50.4184
50.4187
50.4191
50.4195
50.4199
50.4204
50.4209
50.4213
50.4218
50.4224
50.4229
50.4234
50.424
50.4246
50.4252
50.4258
50.4265
50.4271
50.4278
50.4285
50.4292
50.4299
50.4306
50.4314
50.4321
50.4329
50.4337
50.4345
50.4353
50.4362
50.437
50.4379
50.4388
50.4397
50.4406
50.4416
50.4425
50.4434
50.4443
50.4451
50.4459
50.4467
50.4473
50.4479
50.4484
50.4489
50.4493
50.4496
50.4499
50.4502
50.4505
50.4509
50.4514
50.4521
50.4529
50.454
50.4552
50.4567
50.4585
50.4604
50.4626
50.4648
50.4672
50.4696
50.4719
50.4741
50.4762
50.4781
50.4798
50.4812
50.4823
50.4832
50.4839
50.4843
50.4847
50.4849
50.4851
50.4853
50.4855
50.4859
50.4863
50.4869
50.4877
50.4886
50.4896
50.4907
50.4919
50.4932
50.4945
50.4959
50.4972
50.4985
50.4998
50.5011
50.5023
50.5035
50.5046
50.5056
50.5067
50.5076
50.5086
50.5095
50.5104
50.5112
50.5121
50.5129
50.5137
50.5145
50.5153
50.516
50.5168
50.5175
50.5182
50.5189
50.5195
50.5202
50.5208
50.5214
50.522
50.5226
50.5231
50.5237
50.5242
50.5246
50.5251
50.5255
50.5259
50.5263
50.5266
50.5269
50.5272
50.5274
50.5276
50.5278
50.528
50.5281
50.5282
50.5282
50.5282
50.5282
50.5281
50.5281
50.528
50.5278
50.5277
50.5275
50.5273
50.5271
50.5269
50.5267
50.5264
50.5262
50.5259
50.5257
50.5254
50.5252
50.5254
50.5238
50.3726
50.3694
50.3733
50.3702
50.3659
50.3673
50.3758
50.3848
50.3888
50.3907
50.3916
50.3926
50.3942
50.3959
50.3978
50.3996
50.4013
50.403
50.4045
50.4059
50.4072
50.4084
50.4094
50.4104
50.4112
50.412
50.4126
50.4132
50.4137
50.4142
50.4146
50.4149
50.4153
50.4156
50.4159
50.4162
50.4165
50.4168
50.4171
50.4174
50.4177
50.418
50.4184
50.4187
50.4191
50.4195
50.42
50.4204
50.4209
50.4213
50.4218
50.4224
50.4229
50.4235
50.424
50.4246
50.4252
50.4259
50.4265
50.4271
50.4278
50.4285
50.4292
50.4299
50.4306
50.4314
50.4321
50.4329
50.4337
50.4345
50.4353
50.4362
50.437
50.4379
50.4388
50.4397
50.4406
50.4416
50.4425
50.4434
50.4443
50.4451
50.4459
50.4467
50.4473
50.4479
50.4485
50.4489
50.4493
50.4496
50.4499
50.4502
50.4505
50.4509
50.4514
50.4521
50.453
50.454
50.4553
50.4568
50.4585
50.4604
50.4626
50.4648
50.4672
50.4696
50.4719
50.4741
50.4762
50.4781
50.4798
50.4812
50.4823
50.4832
50.4839
50.4844
50.4847
50.4849
50.4851
50.4853
50.4855
50.4859
50.4863
50.487
50.4877
50.4886
50.4896
50.4907
50.4919
50.4932
50.4945
50.4959
50.4972
50.4986
50.4998
50.5011
50.5023
50.5035
50.5046
50.5056
50.5067
50.5076
50.5086
50.5095
50.5104
50.5113
50.5121
50.5129
50.5137
50.5145
50.5153
50.516
50.5168
50.5175
50.5182
50.5189
50.5195
50.5202
50.5208
50.5214
50.522
50.5226
50.5232
50.5237
50.5242
50.5247
50.5251
50.5255
50.5259
50.5263
50.5266
50.5269
50.5272
50.5274
50.5277
50.5278
50.528
50.5281
50.5282
50.5282
50.5282
50.5282
50.5282
50.5281
50.528
50.5279
50.5277
50.5275
50.5273
50.5271
50.5269
50.5267
50.5264
50.5262
50.5259
50.5257
50.5254
50.5252
50.5254
50.524
50.3512
50.3725
50.3848
50.3847
50.3818
50.3819
50.3838
50.3859
50.3878
50.3893
50.3906
50.3922
50.394
50.3959
50.3977
50.3996
50.4013
50.403
50.4045
50.4059
50.4072
50.4084
50.4094
50.4104
50.4112
50.412
50.4126
50.4132
50.4137
50.4142
50.4146
50.4149
50.4153
50.4156
50.4159
50.4162
50.4165
50.4168
50.4171
50.4174
50.4177
50.418
50.4184
50.4187
50.4191
50.4195
50.42
50.4204
50.4209
50.4213
50.4218
50.4224
50.4229
50.4235
50.424
50.4246
50.4252
50.4259
50.4265
50.4271
50.4278
50.4285
50.4292
50.4299
50.4306
50.4314
50.4321
50.4329
50.4337
50.4345
50.4353
50.4362
50.437
50.4379
50.4388
50.4397
50.4406
50.4416
50.4425
50.4434
50.4443
50.4451
50.4459
50.4467
50.4473
50.4479
50.4485
50.4489
50.4493
50.4496
50.4499
50.4502
50.4505
50.4509
50.4514
50.4521
50.453
50.454
50.4553
50.4568
50.4585
50.4604
50.4626
50.4648
50.4672
50.4696
50.4719
50.4741
50.4762
50.4781
50.4798
50.4812
50.4823
50.4832
50.4839
50.4844
50.4847
50.4849
50.4851
50.4853
50.4855
50.4859
50.4863
50.487
50.4877
50.4886
50.4896
50.4907
50.4919
50.4932
50.4945
50.4959
50.4972
50.4986
50.4998
50.5011
50.5023
50.5035
50.5046
50.5056
50.5067
50.5076
50.5086
50.5095
50.5104
50.5113
50.5121
50.5129
50.5137
50.5145
50.5153
50.516
50.5168
50.5175
50.5182
50.5189
50.5195
50.5202
50.5208
50.5214
50.522
50.5226
50.5232
50.5237
50.5242
50.5247
50.5251
50.5255
50.5259
50.5263
50.5266
50.5269
50.5272
50.5274
50.5277
50.5278
50.528
50.5281
50.5282
50.5282
50.5282
50.5282
50.5282
50.5281
50.528
50.5279
50.5277
50.5275
50.5273
50.5271
50.5269
50.5267
50.5264
50.5262
50.5259
50.5257
50.5254
50.5251
50.5249
50.5247
50.3392
50.3376
50.3775
50.3827
50.3647
50.3528
50.3548
50.3657
50.379
50.3861
50.3898
50.3922
50.3942
50.396
50.3978
50.3996
50.4013
50.403
50.4045
50.4059
50.4072
50.4084
50.4094
50.4104
50.4112
50.412
50.4126
50.4132
50.4137
50.4142
50.4146
50.4149
50.4153
50.4156
50.4159
50.4162
50.4165
50.4168
50.4171
50.4174
50.4177
50.418
50.4184
50.4187
50.4191
50.4195
50.42
50.4204
50.4209
50.4213
50.4218
50.4224
50.4229
50.4235
50.424
50.4246
50.4252
50.4259
50.4265
50.4271
50.4278
50.4285
50.4292
50.4299
50.4306
50.4314
50.4321
50.4329
50.4337
50.4345
50.4353
50.4362
50.437
50.4379
50.4388
50.4397
50.4406
50.4416
50.4425
50.4434
50.4443
50.4451
50.4459
50.4467
50.4473
50.4479
50.4485
50.4489
50.4493
50.4496
50.4499
50.4502
50.4505
50.4509
50.4514
50.4521
50.453
50.454
50.4553
50.4568
50.4585
50.4604
50.4626
50.4648
50.4672
50.4696
50.4719
50.4741
50.4762
50.4781
50.4798
50.4812
50.4823
50.4832
50.4839
50.4844
50.4847
50.4849
50.4851
50.4853
50.4855
50.4859
50.4863
50.487
50.4877
50.4886
50.4896
50.4907
50.4919
50.4932
50.4945
50.4959
50.4972
50.4986
50.4998
50.5011
50.5023
50.5035
50.5046
50.5056
50.5067
50.5076
50.5086
50.5095
50.5104
50.5113
50.5121
50.5129
50.5137
50.5145
50.5153
50.516
50.5168
50.5175
50.5182
50.5189
50.5195
50.5202
50.5208
50.5214
50.522
50.5226
50.5232
50.5237
50.5242
50.5247
50.5251
50.5255
50.5259
50.5263
50.5266
50.5269
50.5272
50.5274
50.5277
50.5278
50.528
50.5281
50.5282
50.5282
50.5282
50.5282
50.5282
50.5281
50.528
50.5279
50.5277
50.5275
50.5273
50.5271
50.5269
50.5267
50.5264
50.5262
50.5259
50.5257
50.5254
50.5251
50.524
50.5275
49.8224
49.8131
50.0945
50.4051
50.5419
50.5727
50.5585
50.4914
50.4337
50.407
50.397
50.3944
50.3948
50.3962
50.3978
50.3996
50.4013
50.403
50.4045
50.4059
50.4072
50.4084
50.4094
50.4104
50.4112
50.412
50.4126
50.4132
50.4137
50.4142
50.4146
50.4149
50.4153
50.4156
50.4159
50.4162
50.4165
50.4168
50.4171
50.4174
50.4177
50.418
50.4184
50.4187
50.4191
50.4195
50.4199
50.4204
50.4209
50.4213
50.4218
50.4224
50.4229
50.4234
50.424
50.4246
50.4252
50.4258
50.4265
50.4271
50.4278
50.4285
50.4292
50.4299
50.4306
50.4314
50.4321
50.4329
50.4337
50.4345
50.4353
50.4362
50.437
50.4379
50.4388
50.4397
50.4406
50.4416
50.4425
50.4434
50.4443
50.4451
50.4459
50.4467
50.4473
50.4479
50.4484