/*--------------------------------*- C++ -*----------------------------------*\
| =========                 |                                                 |
| \\      /  F ield         | OpenFOAM: The Open Source CFD Toolbox           |
|  \\    /   O peration     | Version:  3.0.x                                 |
|   \\  /    A nd           | Web:      www.OpenFOAM.org                      |
|    \\/     M anipulation  |                                                 |
\*---------------------------------------------------------------------------*/
FoamFile
{
    version     2.0;
    format      ascii;
    class       surfaceScalarField;
    location    "0.22005";
    object      phi;
}
// * * * * * * * * * * * * * * * * * * * * * * * * * * * * * * * * * * * * * //

dimensions      [1 0 -1 0 0 0 0];

internalField   nonuniform List<scalar> 
26210
(
6.98382
0.000504177
6.98349
0.000347429
6.98317
0.000340275
6.98285
0.00034188
6.98252
0.000342043
6.9822
0.000341697
6.98186
0.000341942
6.98153
0.000341776
6.9812
0.000341779
6.98088
0.00034173
6.98057
0.000341817
6.98029
0.000342258
6.98001
0.000341731
6.97972
0.000342028
6.97942
0.00034208
6.97912
0.000341997
6.97882
0.000342078
6.9785
0.000342405
6.9782
0.000342225
6.9779
0.000342169
6.97761
0.000342272
6.97734
0.000342725
6.97708
0.000342144
6.97682
0.000342452
6.97655
0.000342507
6.97628
0.000342554
6.976
0.000342593
6.97573
0.000342519
6.97545
0.000342684
6.97518
0.000342744
6.9749
0.000342594
6.97463
0.000342724
6.97436
0.000342728
6.9741
0.000342546
6.97382
0.000342818
6.97354
0.000342971
6.97326
0.000342414
6.97297
0.00034268
6.9727
0.000342675
6.97243
0.000342614
6.97217
0.000342552
6.97191
0.000342828
6.97167
0.000342459
6.97142
0.000342403
6.97116
0.000342199
6.97091
0.000341875
6.97064
0.000341389
6.97037
0.00034053
6.9701
0.000339929
6.96981
0.000338278
6.96952
0.000336537
6.96923
0.000334141
6.96892
0.000331085
6.96861
0.000327243
6.96829
0.000322497
6.96795
0.00031674
6.96761
0.000309882
6.96724
0.000301851
6.96687
0.000292607
6.96648
0.000282138
6.96606
0.000270475
6.96563
0.000257685
6.96518
0.000243874
6.96471
0.000229188
6.96421
0.000213803
6.96369
0.000197923
6.96315
0.000181765
6.96257
0.00016556
6.96198
0.000149534
6.96135
0.000133902
6.96071
0.00011886
6.96003
0.000104579
6.95934
9.11942e-05
6.95862
7.8811e-05
6.95788
6.74985e-05
6.95714
5.7291e-05
6.95638
4.8191e-05
6.95562
4.01736e-05
6.95486
3.31907e-05
6.9541
2.71759e-05
6.95336
2.2049e-05
6.95263
1.77253e-05
6.95192
1.41117e-05
6.95123
1.11198e-05
6.95056
8.66118e-06
6.94991
6.65459e-06
6.9493
5.02322e-06
6.94871
3.69505e-06
6.94815
2.63694e-06
6.94762
1.85479e-06
6.94711
1.50717e-06
6.94663
4.12501e-07
6.94618
-1.20652e-07
6.94575
-3.077e-07
6.94533
-5.6769e-07
6.94493
-8.19391e-07
6.94453
-1.03076e-06
6.94414
-1.20347e-06
6.94374
-1.34279e-06
6.94334
-1.45525e-06
6.94292
-1.54614e-06
6.94249
-1.61613e-06
6.94203
-1.66749e-06
6.94156
-1.70083e-06
6.94105
-1.71883e-06
6.94052
-1.72194e-06
6.93995
-1.71082e-06
6.93936
-1.68879e-06
6.93873
-1.65468e-06
6.93808
-1.6125e-06
6.9374
-1.56141e-06
6.9367
-1.50389e-06
6.93598
-1.44145e-06
6.93525
-1.37491e-06
6.93451
-1.30536e-06
6.93376
-1.23374e-06
6.93302
-1.16094e-06
6.93228
-1.08788e-06
6.93155
-1.0152e-06
6.93083
-9.43543e-07
6.93014
-8.73453e-07
6.92946
-8.05296e-07
6.92881
-7.39123e-07
6.92819
-6.7572e-07
6.9276
-6.1494e-07
6.92705
-5.57333e-07
6.92653
-5.02581e-07
6.92604
-4.50769e-07
6.92559
-4.01902e-07
6.92518
-3.55876e-07
6.92481
-3.12473e-07
6.92447
-2.71291e-07
6.92417
-2.3159e-07
6.9239
-1.91911e-07
6.92367
-1.52926e-07
6.92347
-1.41914e-07
6.9233
-1.26314e-07
6.92317
-4.46216e-08
6.92307
-3.65617e-08
6.92299
-3.18469e-08
6.92295
-2.15095e-08
6.92293
9.72977e-09
6.92294
4.43888e-08
6.92298
8.05594e-08
6.92304
1.01747e-07
6.92313
1.30251e-07
6.92326
1.57366e-07
6.92341
1.6685e-07
6.92359
1.85297e-07
6.92379
2.04995e-07
6.92403
2.25848e-07
6.92429
2.47404e-07
6.92459
2.692e-07
6.92492
2.91349e-07
6.92528
3.13152e-07
6.92567
3.35236e-07
6.9261
3.5706e-07
6.92656
3.78828e-07
6.92705
4.00194e-07
6.92758
4.21782e-07
6.92814
4.42358e-07
6.92873
4.63111e-07
6.92935
4.82423e-07
6.93
5.01477e-07
6.93068
5.18794e-07
6.93138
5.3389e-07
6.93211
5.47194e-07
6.93285
5.58433e-07
6.93361
5.66823e-07
6.93437
5.72159e-07
6.93515
5.73005e-07
6.93592
5.71579e-07
6.93669
5.66821e-07
6.93745
5.57337e-07
6.93819
5.42879e-07
6.9389
5.32071e-07
6.93959
5.00026e-07
6.94024
4.88164e-07
6.94085
4.44052e-07
6.94141
4.11968e-07
6.94191
3.81864e-07
6.94235
3.40275e-07
6.94273
2.91937e-07
6.94303
2.36962e-07
6.94325
2.08556e-07
6.9434
1.12885e-07
6.94346
1.06946e-07
6.94343
-1.09341e-07
6.94329
1.6541e-07
6.94305
-6.34282e-09
6.94272
6.15166e-07
6.94228
3.57374e-06
6.94174
1.81595e-05
6.94104
8.88658e-05
6.9399
0.000427114
6.93704
0.00206884
6.92624
0.00992265
6.87802
0.047257
6.64608
0.230904
0.906957
5.73802
9.87751
0.000460011
9.87756
0.00033054
9.87761
0.000315422
9.87765
0.000319037
9.8777
0.000319421
9.87774
0.000318933
9.87777
0.000319153
9.8778
0.000319039
9.87784
0.000319064
9.8779
0.000319047
9.87796
0.000319152
9.87806
0.000319563
9.87817
0.000319126
9.87827
0.000319411
9.87835
0.000319486
9.87843
0.000319441
9.8785
0.000319537
9.87856
0.000319849
9.87863
0.000319718
9.87872
0.000319694
9.87882
0.000319813
9.87894
0.000320238
9.87907
0.000319747
9.8792
0.000320043
9.87933
0.000320122
9.87945
0.000320189
9.87957
0.000320249
9.87969
0.000320214
9.8798
0.000320377
9.87991
0.000320458
9.88003
0.000320349
9.88015
0.000320487
9.88028
0.000320513
9.88041
0.000320385
9.88053
0.000320638
9.88063
0.000320781
9.88073
0.000320347
9.88084
0.000320586
9.88095
0.000320607
9.88108
0.000320569
9.88121
0.00032056
9.88136
0.000320795
9.88151
0.000320496
9.88166
0.000320456
9.88181
0.000320285
9.88194
0.000319994
9.88207
0.000319549
9.8822
0.000318765
9.88231
0.000318151
9.8824
0.000316643
9.88249
0.000314976
9.88256
0.00031271
9.88262
0.000309804
9.88266
0.000306152
9.88267
0.000301644
9.88267
0.000296175
9.88263
0.000289665
9.88257
0.000282047
9.88247
0.000273284
9.88233
0.000263372
9.88214
0.00025234
9.88191
0.000240256
9.88163
0.000227224
9.8813
0.000213383
9.88091
0.000198903
9.88047
0.000183977
9.87997
0.000168812
9.8794
0.000153623
9.87878
0.000138622
9.8781
0.000124014
9.87736
0.000109975
9.87656
9.66657e-05
9.87571
8.42098e-05
9.87481
7.27024e-05
9.87387
6.22047e-05
9.8729
5.27454e-05
9.8719
4.43241e-05
9.87088
3.69146e-05
9.86986
3.04696e-05
9.86883
2.49252e-05
9.8678
2.02051e-05
9.8668
1.62291e-05
9.86581
1.29099e-05
9.86485
1.01645e-05
9.86392
7.91051e-06
9.86301
6.07231e-06
9.86215
4.5787e-06
9.86132
3.36361e-06
9.86053
2.39616e-06
9.85978
1.68507e-06
9.85906
1.35851e-06
9.85839
3.68205e-07
9.85775
-1.31606e-07
9.85714
-3.04688e-07
9.85655
-5.39516e-07
9.85597
-7.70762e-07
9.85541
-9.65818e-07
9.85485
-1.12528e-06
9.85428
-1.25429e-06
9.85371
-1.35854e-06
9.85311
-1.44283e-06
9.8525
-1.5079e-06
9.85185
-1.55562e-06
9.85117
-1.58664e-06
9.85045
-1.60335e-06
9.84969
-1.60627e-06
9.84889
-1.59592e-06
9.84804
-1.57529e-06
9.84716
-1.54357e-06
9.84623
-1.50417e-06
9.84527
-1.45656e-06
9.84427
-1.40292e-06
9.84326
-1.3446e-06
9.84222
-1.28253e-06
9.84117
-1.21764e-06
9.84011
-1.1508e-06
9.83905
-1.08285e-06
9.838
-1.01466e-06
9.83697
-9.46822e-07
9.83595
-8.79934e-07
9.83496
-8.14505e-07
9.83401
-7.50888e-07
9.83309
-6.89142e-07
9.83221
-6.29965e-07
9.83137
-5.73278e-07
9.83058
-5.19532e-07
9.82985
-4.6847e-07
9.82916
-4.20157e-07
9.82852
-3.74599e-07
9.82794
-3.31693e-07
9.82741
-2.91229e-07
9.82693
-2.52823e-07
9.8265
-2.15779e-07
9.82612
-1.78779e-07
9.82579
-1.42853e-07
9.82551
-1.31888e-07
9.82527
-1.16906e-07
9.82508
-4.25334e-08
9.82493
-3.18487e-08
9.82482
-2.83471e-08
9.82476
-1.84482e-08
9.82473
1.07157e-08
9.82475
4.34047e-08
9.8248
7.77181e-08
9.82489
9.49349e-08
9.82502
1.16626e-07
9.82519
1.52728e-07
9.8254
1.59227e-07
9.82565
1.74727e-07
9.82595
1.92842e-07
9.82628
2.12207e-07
9.82665
2.32327e-07
9.82707
2.52594e-07
9.82754
2.73229e-07
9.82804
2.93405e-07
9.8286
3.14107e-07
9.8292
3.34474e-07
9.82985
3.54879e-07
9.83055
3.74534e-07
9.83129
3.95141e-07
9.83208
4.13858e-07
9.83292
4.33736e-07
9.8338
4.51279e-07
9.83472
4.6939e-07
9.83567
4.85903e-07
9.83667
4.99547e-07
9.83769
5.11749e-07
9.83874
5.22597e-07
9.83981
5.30146e-07
9.8409
5.35867e-07
9.84199
5.35507e-07
9.84308
5.34284e-07
9.84417
5.30179e-07
9.84524
5.21162e-07
9.84629
5.06681e-07
9.8473
5.05392e-07
9.84827
4.59293e-07
9.84919
4.67795e-07
9.85005
4.08294e-07
9.85084
3.7772e-07
9.85155
3.62295e-07
9.85217
3.22692e-07
9.8527
2.73383e-07
9.85313
2.10011e-07
9.85344
2.15101e-07
9.85365
6.34082e-08
9.85373
1.36724e-07
9.85369
-3.0616e-07
9.85349
5.20506e-07
9.85315
1.55633e-07
9.85267
1.74183e-06
9.85206
8.96732e-06
9.8513
4.42315e-05
9.8503
0.000214832
9.84869
0.00103232
9.84464
0.0049888
9.82937
0.0239529
9.76123
0.114041
9.44006
0.5506
2.09474
8.25071
13.9689
0.000401471
13.969
0.000303687
13.969
0.000281183
13.9691
0.000286389
13.9692
0.000287128
13.9692
0.000286483
13.9693
0.000286644
13.9693
0.000286565
13.9694
0.00028659
13.9695
0.000286581
13.9696
0.000286678
13.9697
0.000287021
13.9698
0.000286663
13.97
0.000286902
13.9701
0.000286974
13.9702
0.000286944
13.9703
0.000287026
13.9704
0.000287289
13.9705
0.000287187
13.9706
0.00028717
13.9708
0.000287278
13.9709
0.000287636
13.9711
0.000287223
13.9713
0.000287474
13.9715
0.00028755
13.9717
0.00028761
13.9718
0.000287663
13.972
0.000287644
13.9722
0.000287773
13.9723
0.000287848
13.9725
0.00028776
13.9727
0.000287876
13.9728
0.000287899
13.973
0.000287803
13.9732
0.000288004
13.9733
0.000288106
13.9735
0.000287787
13.9736
0.000287965
13.9738
0.000287986
13.974
0.000287949
13.9742
0.00028797
13.9744
0.000288134
13.9746
0.000287895
13.9748
0.000287851
13.975
0.000287704
13.9752
0.000287444
13.9754
0.000287049
13.9756
0.000286364
13.9757
0.000285767
13.9759
0.000284471
13.976
0.000282964
13.9761
0.000280944
13.9762
0.000278348
13.9762
0.00027508
13.9763
0.00027105
13.9763
0.000266159
13.9762
0.000260334
13.9761
0.000253516
13.976
0.00024567
13.9758
0.000236792
13.9755
0.000226908
13.9752
0.000216078
13.9748
0.000204394
13.9743
0.000191981
13.9738
0.00017899
13.9731
0.000165594
13.9724
0.000151979
13.9716
0.000138338
13.9707
0.000124861
13.9698
0.000111732
13.9687
9.91101e-05
13.9676
8.71395e-05
13.9664
7.59323e-05
13.9651
6.55749e-05
13.9638
5.61228e-05
13.9624
4.76023e-05
13.961
4.00141e-05
13.9596
3.3335e-05
13.9581
2.7523e-05
13.9567
2.25215e-05
13.9552
1.8262e-05
13.9538
1.46726e-05
13.9524
1.16752e-05
13.951
9.19501e-06
13.9497
7.15828e-06
13.9484
5.49667e-06
13.9472
4.14629e-06
13.946
3.04824e-06
13.9449
2.17368e-06
13.9439
1.53292e-06
13.9428
1.21855e-06
13.9419
3.50706e-07
13.941
-1.08414e-07
13.9401
-2.72712e-07
13.9393
-4.81324e-07
13.9385
-6.89668e-07
13.9377
-8.65738e-07
13.9369
-1.00936e-06
13.9361
-1.12572e-06
13.9353
-1.21967e-06
13.9344
-1.29552e-06
13.9336
-1.35417e-06
13.9326
-1.39711e-06
13.9317
-1.42505e-06
13.9307
-1.44006e-06
13.9296
-1.44276e-06
13.9285
-1.43352e-06
13.9273
-1.41491e-06
13.926
-1.38651e-06
13.9247
-1.35108e-06
13.9233
-1.30836e-06
13.9219
-1.2602e-06
13.9205
-1.20776e-06
13.919
-1.15203e-06
13.9175
-1.09374e-06
13.916
-1.03372e-06
13.9145
-9.72689e-07
13.9131
-9.11435e-07
13.9116
-8.505e-07
13.9102
-7.90422e-07
13.9088
-7.31642e-07
13.9074
-6.74491e-07
13.9061
-6.19046e-07
13.9049
-5.65871e-07
13.9037
-5.14973e-07
13.9026
-4.66676e-07
13.9015
-4.20817e-07
13.9006
-3.77416e-07
13.8997
-3.36488e-07
13.8988
-2.97944e-07
13.8981
-2.61585e-07
13.8974
-2.27069e-07
13.8968
-1.93771e-07
13.8963
-1.60583e-07
13.8958
-1.28862e-07
13.8954
-1.18077e-07
13.8951
-1.04264e-07
13.8948
-4.03966e-08
13.8946
-2.75923e-08
13.8944
-2.53262e-08
13.8943
-1.62977e-08
13.8943
9.64701e-09
13.8943
3.9463e-08
13.8944
7.10502e-08
13.8945
8.28131e-08
13.8947
9.45811e-08
13.8949
1.43998e-07
13.8952
1.45973e-07
13.8956
1.57401e-07
13.896
1.73317e-07
13.8965
1.90631e-07
13.897
2.08762e-07
13.8976
2.26941e-07
13.8983
2.45456e-07
13.899
2.63375e-07
13.8998
2.82157e-07
13.9006
3.00441e-07
13.9015
3.18929e-07
13.9025
3.36098e-07
13.9036
3.55344e-07
13.9047
3.71296e-07
13.9059
3.89992e-07
13.9071
4.04889e-07
13.9084
4.21732e-07
13.9098
4.37034e-07
13.9112
4.48672e-07
13.9126
4.59317e-07
13.9141
4.69586e-07
13.9156
4.76074e-07
13.9172
4.82278e-07
13.9187
4.80232e-07
13.9202
4.79639e-07
13.9218
4.75984e-07
13.9233
4.68431e-07
13.9248
4.52815e-07
13.9262
4.6632e-07
13.9276
3.99538e-07
13.9289
4.35999e-07
13.9301
3.57113e-07
13.9312
3.26454e-07
13.9322
3.34075e-07
13.9331
2.97699e-07
13.9338
2.43802e-07
13.9345
1.71437e-07
13.9349
2.22447e-07
13.9352
-7.02721e-09
13.9353
1.77272e-07
13.9352
-5.94947e-07
13.935
1.04167e-06
13.9345
3.65609e-07
13.9338
3.29505e-06
13.9329
1.6393e-05
13.9319
8.01249e-05
13.9305
0.000388285
13.9282
0.00186669
13.9226
0.00900932
13.9015
0.0432747
13.8077
0.205901
13.3723
0.983956
3.65569
11.8091
61.6617
0.000184708
61.662
0.000159292
61.6623
0.000139661
61.6626
0.000142278
61.6629
0.000144103
61.6631
0.000143458
61.6633
0.000143379
61.6635
0.000143345
61.6638
0.000143344
61.6641
0.000143335
61.6646
0.000143377
61.6652
0.000143511
61.6659
0.000143364
61.6665
0.000143461
61.667
0.0001435
61.6675
0.000143496
61.6679
0.000143529
61.6683
0.000143635
61.6687
0.000143603
61.6693
0.0001436
61.6699
0.000143653
61.6707
0.000143803
61.6715
0.000143628
61.6723
0.000143734
61.6731
0.000143779
61.6739
0.000143808
61.6746
0.000143834
61.6754
0.000143839
61.6761
0.00014388
61.6768
0.000143922
61.6775
0.000143889
61.6783
0.000143936
61.6791
0.000143947
61.6799
0.000143923
61.6806
0.000143989
61.6813
0.000144005
61.682
0.000143938
61.6826
0.00014398
61.6833
0.000143992
61.6841
0.000143974
61.685
0.000144009
61.6859
0.000144045
61.6868
0.000143957
61.6878
0.000143928
61.6887
0.000143862
61.6896
0.000143735
61.6904
0.000143543
61.6912
0.000143234
61.6918
0.000142872
61.6925
0.000142304
61.693
0.000141542
61.6935
0.000140552
61.6938
0.000139275
61.6941
0.000137662
61.6942
0.000135674
61.6941
0.000133257
61.6939
0.000130377
61.6935
0.000127001
61.6929
0.000123111
61.692
0.000118705
61.6909
0.000113795
61.6894
0.000108409
61.6877
0.000102592
61.6856
9.64076e-05
61.6832
8.99273e-05
61.6804
8.32392e-05
61.6773
7.64357e-05
61.6738
6.96127e-05
61.6699
6.28641e-05
61.6656
5.62861e-05
61.6609
4.99557e-05
61.656
4.39468e-05
61.6506
3.83164e-05
61.645
3.31086e-05
61.6392
2.83521e-05
61.6331
2.4061e-05
61.6269
2.02364e-05
61.6205
1.68675e-05
61.6141
1.39338e-05
61.6077
1.14074e-05
61.6013
9.25436e-06
61.595
7.43876e-06
61.5888
5.92186e-06
61.5828
4.66588e-06
61.577
3.63408e-06
61.5714
2.79184e-06
61.566
2.1073e-06
61.5608
1.55142e-06
61.5559
1.10847e-06
61.5512
7.85391e-07
61.5467
6.03221e-07
61.5425
2.00259e-07
61.5385
-4.6078e-08
61.5347
-1.36159e-07
61.531
-2.37988e-07
61.5274
-3.4222e-07
61.5239
-4.31144e-07
61.5204
-5.03358e-07
61.5169
-5.61939e-07
61.5133
-6.09235e-07
61.5096
-6.47266e-07
61.5057
-6.76814e-07
61.5017
-6.98354e-07
61.4974
-7.12398e-07
61.493
-7.19875e-07
61.4882
-7.21333e-07
61.4832
-7.16788e-07
61.4779
-7.07344e-07
61.4724
-6.93269e-07
61.4666
-6.75478e-07
61.4606
-6.54218e-07
61.4544
-6.30134e-07
61.448
-6.0385e-07
61.4415
-5.76013e-07
61.435
-5.46874e-07
61.4284
-5.16861e-07
61.4218
-4.86349e-07
61.4152
-4.55723e-07
61.4088
-4.25262e-07
61.4024
-3.9522e-07
61.3963
-3.65826e-07
61.3903
-3.37254e-07
61.3845
-3.0955e-07
61.379
-2.8293e-07
61.3738
-2.57508e-07
61.3689
-2.33345e-07
61.3643
-2.10421e-07
61.36
-1.88724e-07
61.356
-1.68263e-07
61.3524
-1.48994e-07
61.3491
-1.30806e-07
61.3461
-1.13534e-07
61.3434
-9.68889e-08
61.341
-8.04621e-08
61.339
-6.48495e-08
61.3372
-5.82195e-08
61.3357
-5.1341e-08
61.3345
-2.30009e-08
61.3336
-1.28512e-08
61.333
-1.20522e-08
61.3326
-8.00287e-09
61.3324
5.11909e-09
61.3325
2.24247e-08
61.3328
4.12067e-08
61.3334
3.02607e-08
61.3342
-4.105e-09
61.3353
1.08025e-07
61.3366
8.66416e-08
61.3381
8.07031e-08
61.34
8.70314e-08
61.342
9.54833e-08
61.3444
1.04606e-07
61.347
1.13943e-07
61.3499
1.22729e-07
61.3531
1.30907e-07
61.3565
1.41076e-07
61.3603
1.50392e-07
61.3643
1.59996e-07
61.3687
1.66904e-07
61.3733
1.79089e-07
61.3783
1.84274e-07
61.3835
1.95837e-07
61.389
2.01381e-07
61.3947
2.10086e-07
61.4007
2.21896e-07
61.4069
2.23644e-07
61.4133
2.2771e-07
61.4198
2.35841e-07
61.4265
2.37533e-07
61.4333
2.43724e-07
61.4401
2.38551e-07
61.4469
2.34282e-07
61.4537
2.47769e-07
61.4604
2.1498e-07
61.4669
2.48568e-07
61.4733
2.40894e-07
61.4793
1.97681e-07
61.4851
2.21939e-07
61.4904
1.79929e-07
61.4954
8.92044e-08
61.4998
2.1857e-07
61.5037
1.71016e-07
61.507
1.46305e-07
61.5096
-5.33794e-08
61.5116
3.22488e-07
61.5129
-3.45405e-07
61.5134
3.12656e-07
61.5132
-2.24046e-06
61.5119
4.00763e-06
61.5098
8.44385e-07
61.5068
9.38389e-06
61.503
4.5403e-05
61.4982
0.000220432
61.4921
0.00106703
61.4826
0.00513167
61.4598
0.0247254
61.3771
0.118278
61.018
0.556543
59.5632
2.42955
8.74172
54.4674
61.6617
9.09495e-13
61.662
1.36424e-12
61.6623
1.59162e-12
61.6626
1.36424e-12
61.6629
4.54747e-13
61.6631
-9.09495e-13
61.6633
1.59162e-12
61.6635
2.04636e-12
61.6638
2.27374e-13
61.6641
0
61.6645
1.59162e-12
61.6652
9.09495e-13
61.6658
-2.27374e-13
61.6664
-1.81899e-12
61.667
-1.81899e-12
61.6675
-1.81899e-12
61.6679
4.54747e-13
61.6683
2.27374e-13
61.6687
1.13687e-12
61.6693
-4.54747e-13
61.6699
0
61.6707
9.09495e-13
61.6715
6.82121e-13
61.6723
1.36424e-12
61.6731
-2.27374e-13
61.6739
-2.27374e-13
61.6746
1.36424e-12
61.6753
1.36424e-12
61.6761
-1.36424e-12
61.6768
1.36424e-12
61.6775
9.09495e-13
61.6783
4.54747e-13
61.6791
4.54747e-13
61.6799
9.09495e-13
61.6806
1.13687e-12
61.6813
2.72848e-12
61.6819
-6.82121e-13
61.6826
2.27374e-13
61.6833
1.59162e-12
61.6841
2.04636e-12
61.6849
1.36424e-12
61.6858
-6.82121e-13
61.6868
-9.09495e-13
61.6878
1.81899e-12
61.6887
4.54747e-13
61.6895
-2.27374e-13
61.6904
1.13687e-12
61.6911
2.50111e-12
61.6918
-2.50111e-12
61.6924
3.63798e-12
61.693
9.09495e-13
61.6934
4.54747e-13
61.6938
-2.27374e-13
61.694
-2.27374e-13
61.6942
-6.82121e-13
61.6941
6.82121e-13
61.6939
6.82121e-13
61.6935
-9.09495e-13
61.6929
-2.27374e-13
61.692
-9.09495e-13
61.6909
0
61.6894
-6.82121e-13
61.6877
-1.59162e-12
61.6856
-2.50111e-12
61.6832
-2.50111e-12
61.6804
1.13687e-12
61.6773
1.13687e-12
61.6737
1.81899e-12
61.6698
-2.27374e-13
61.6656
-1.59162e-12
61.6609
-4.54747e-13
61.656
-2.27374e-13
61.6506
2.27374e-13
61.645
0
61.6392
6.82121e-13
61.6331
0
61.6269
-1.81899e-12
61.6205
-1.36424e-12
61.6141
-2.27374e-13
61.6077
-4.54747e-13
61.6013
-2.27374e-13
61.595
6.82121e-13
61.5888
9.09495e-13
61.5828
1.13687e-12
61.577
1.13687e-12
61.5714
2.27374e-13
61.566
-2.27374e-13
61.5608
4.54747e-13
61.5559
-6.82121e-13
61.5512
-2.04636e-12
61.5467
-2.04636e-12
61.5425
-2.50111e-12
61.5385
-2.95586e-12
61.5347
-9.09495e-13
61.531
-1.13687e-12
61.5274
-1.36424e-12
61.5239
-1.81899e-12
61.5204
-4.54747e-13
61.5169
-4.54747e-13
61.5133
6.82121e-13
61.5096
4.54747e-13
61.5057
-4.54747e-13
61.5017
-1.36424e-12
61.4974
-2.27374e-13
61.493
9.09495e-13
61.4882
-4.54747e-13
61.4832
-2.27374e-13
61.4779
4.54747e-13
61.4724
1.36424e-12
61.4666
2.27374e-13
61.4606
2.27374e-13
61.4544
-9.09495e-13
61.448
6.82121e-13
61.4415
-2.27374e-13
61.435
-1.36424e-12
61.4284
-1.13687e-12
61.4218
-6.82121e-13
61.4152
-1.36424e-12
61.4088
-2.27374e-13
61.4024
4.54747e-13
61.3963
2.27374e-13
61.3903
4.54747e-13
61.3845
1.59162e-12
61.379
2.95586e-12
61.3738
1.59162e-12
61.3689
-1.36424e-12
61.3643
-6.82121e-13
61.36
2.27374e-13
61.356
-2.27374e-13
61.3524
-2.27374e-13
61.3491
2.50111e-12
61.3461
2.27374e-12
61.3434
2.50111e-12
61.341
9.09495e-13
61.339
4.54747e-13
61.3372
-3.63798e-12
61.3357
-2.31921e-11
61.3345
-7.61702e-11
61.3336
-1.23237e-10
61.333
5.74119e-10
61.3326
-1.16188e-10
61.3324
1.12732e-09
61.3325
3.81169e-09
61.3328
1.00636e-08
61.3334
-1.43073e-08
61.3342
-1.24243e-07
61.3353
9.27287e-08
61.3366
2.47107e-08
61.3381
3.05909e-09
61.34
6.5279e-10
61.342
1.76442e-10
61.3444
4.20187e-10
61.347
6.7962e-10
61.3499
5.70708e-11
61.3531
-1.50044e-09
61.3565
2.37151e-10
61.3603
-3.93356e-11
61.3643
1.50044e-09
61.3687
-3.07091e-09
61.3733
3.9704e-09
61.3783
-4.24507e-09
61.3835
3.16345e-09
61.389
-3.41493e-09
61.3947
-4.98403e-10
61.4007
5.50676e-09
61.4069
-1.84173e-10
61.4133
-3.87695e-09
61.4198
1.46679e-09
61.4265
-7.05086e-10
61.4333
6.56928e-09
61.4401
-1.37493e-08
61.4469
1.6367e-08
61.4537
-1.76674e-08
61.4604
2.26091e-08
61.4669
-4.57001e-08
61.4733
1.00935e-07
61.4793
-1.15602e-07
61.4851
8.82155e-08
61.4904
-8.29148e-08
61.4954
4.70664e-11
61.4998
1.491e-08
61.5037
1.31585e-07
61.507
-1.11707e-07
61.5096
-5.10631e-08
61.5116
1.38598e-07
61.5129
-4.96743e-08
61.5134
-2.10968e-07
61.5132
-3.06194e-06
61.5119
7.21994e-06
61.5098
-5.55896e-07
61.5068
1.18432e-05
61.503
5.63734e-05
61.4983
0.000273959
61.4926
0.00131811
61.4851
0.00640144
61.4719
0.0308658
61.4337
0.148739
61.2759
0.705939
60.5039
3.19239
11.594
57.6418
61.6617
-0.000184708
61.662
-0.000159292
61.6623
-0.000139661
61.6626
-0.000142278
61.6629
-0.000144103
61.6631
-0.000143458
61.6633
-0.000143379
61.6635
-0.000143345
61.6638
-0.000143344
61.6641
-0.000143335
61.6645
-0.000143377
61.6652
-0.000143511
61.6658
-0.000143364
61.6664
-0.000143461
61.667
-0.0001435
61.6675
-0.000143496
61.6679
-0.000143529
61.6683
-0.000143635
61.6687
-0.000143603
61.6693
-0.0001436
61.6699
-0.000143653
61.6707
-0.000143803
61.6715
-0.000143628
61.6723
-0.000143734
61.6731
-0.000143779
61.6739
-0.000143808
61.6746
-0.000143834
61.6753
-0.000143839
61.6761
-0.00014388
61.6768
-0.000143922
61.6775
-0.000143889
61.6783
-0.000143936
61.6791
-0.000143947
61.6799
-0.000143923
61.6806
-0.000143989
61.6813
-0.000144005
61.6819
-0.000143938
61.6826
-0.00014398
61.6833
-0.000143992
61.6841
-0.000143974
61.6849
-0.000144009
61.6858
-0.000144045
61.6868
-0.000143957
61.6878
-0.000143928
61.6887
-0.000143862
61.6895
-0.000143735
61.6904
-0.000143543
61.6911
-0.000143234
61.6918
-0.000142872
61.6924
-0.000142304
61.693
-0.000141542
61.6934
-0.000140552
61.6938
-0.000139275
61.694
-0.000137662
61.6942
-0.000135674
61.6941
-0.000133257
61.6939
-0.000130377
61.6935
-0.000127001
61.6929
-0.000123111
61.692
-0.000118705
61.6909
-0.000113795
61.6894
-0.000108409
61.6877
-0.000102592
61.6856
-9.64076e-05
61.6832
-8.99273e-05
61.6804
-8.32392e-05
61.6773
-7.64357e-05
61.6737
-6.96127e-05
61.6698
-6.28641e-05
61.6656
-5.62861e-05
61.6609
-4.99557e-05
61.656
-4.39468e-05
61.6506
-3.83164e-05
61.645
-3.31086e-05
61.6392
-2.83521e-05
61.6331
-2.4061e-05
61.6269
-2.02364e-05
61.6205
-1.68675e-05
61.6141
-1.39338e-05
61.6077
-1.14074e-05
61.6013
-9.25436e-06
61.595
-7.43876e-06
61.5888
-5.92186e-06
61.5828
-4.66588e-06
61.577
-3.63407e-06
61.5714
-2.79184e-06
61.566
-2.1073e-06
61.5608
-1.55142e-06
61.5559
-1.10847e-06
61.5512
-7.85395e-07
61.5467
-6.03224e-07
61.5425
-2.00261e-07
61.5385
4.60725e-08
61.5347
1.36158e-07
61.531
2.37986e-07
61.5274
3.42219e-07
61.5239
4.31143e-07
61.5204
5.03356e-07
61.5169
5.61938e-07
61.5133
6.09235e-07
61.5096
6.47266e-07
61.5057
6.76814e-07
61.5017
6.98353e-07
61.4974
7.12399e-07
61.493
7.19876e-07
61.4882
7.21331e-07
61.4832
7.16787e-07
61.4779
7.07345e-07
61.4724
6.93274e-07
61.4666
6.75481e-07
61.4606
6.54219e-07
61.4544
6.30131e-07
61.448
6.03852e-07
61.4415
5.76012e-07
61.435
5.46873e-07
61.4284
5.1686e-07
61.4218
4.86348e-07
61.4152
4.55722e-07
61.4088
4.2526e-07
61.4024
3.9522e-07
61.3963
3.65827e-07
61.3903
3.37255e-07
61.3845
3.09553e-07
61.379
2.82934e-07
61.3738
2.57511e-07
61.3689
2.33342e-07
61.3643
2.10419e-07
61.36
1.88725e-07
61.356
1.68263e-07
61.3524
1.48993e-07
61.3491
1.3081e-07
61.3461
1.13539e-07
61.3434
9.68937e-08
61.341
8.04644e-08
61.339
6.48508e-08
61.3372
5.82145e-08
61.3357
5.1303e-08
61.3345
2.28765e-08
61.3336
1.26834e-08
61.333
1.3019e-08
61.3326
7.83507e-09
61.3324
-2.96745e-09
61.3325
-1.73761e-08
61.3328
-2.36771e-08
61.3334
-5.49328e-08
61.3342
-1.97814e-07
61.3353
4.37049e-08
61.3366
-4.6138e-08
61.3381
-7.57361e-08
61.34
-8.59798e-08
61.342
-9.52227e-08
61.3444
-1.04004e-07
61.347
-1.13177e-07
61.3499
-1.22371e-07
61.3531
-1.33025e-07
61.3565
-1.40973e-07
61.3603
-1.50082e-07
61.3643
-1.58527e-07
61.3687
-1.70405e-07
61.3733
-1.74758e-07
61.3783
-1.88863e-07
61.3835
-1.92603e-07
61.389
-2.0486e-07
61.3947
-2.11476e-07
61.4007
-2.14264e-07
61.4069
-2.22396e-07
61.4133
-2.35895e-07
61.4198
-2.31731e-07
61.4265
-2.38992e-07
61.4333
-2.4029e-07
61.4401
-2.45557e-07
61.4469
-2.32215e-07
61.4537
-2.40015e-07
61.4604
-2.37475e-07
61.4669
-2.27235e-07
61.4733
-2.11074e-07
61.4793
-2.06872e-07
61.4851
-2.48891e-07
61.4904
-1.77253e-07
61.4954
-2.03815e-07
61.4998
-1.06154e-07
61.5037
-8.31258e-08
61.507
-1.61677e-07
61.5096
-1.92567e-07
61.5116
6.65166e-08
61.5129
-3.17159e-08
61.5134
-2.05162e-07
61.5132
-1.75055e-06
61.5119
3.10863e-06
61.5098
1.59869e-06
61.5068
1.01112e-05
61.503
4.51643e-05
61.4985
0.000221753
61.4933
0.0010654
61.4882
0.00518397
61.4869
0.0252482
61.5038
0.123996
61.5893
0.611927
61.7341
3.03841
10.6332
62.6852
61.6617
-0.000401471
61.662
-0.000303687
61.6623
-0.000281183
61.6626
-0.000286389
61.6629
-0.000287128
61.6631
-0.000286483
61.6633
-0.000286644
61.6635
-0.000286565
61.6638
-0.00028659
61.6641
-0.000286581
61.6646
-0.000286678
61.6652
-0.000287021
61.6659
-0.000286663
61.6665
-0.000286902
61.667
-0.000286974
61.6675
-0.000286944
61.6679
-0.000287026
61.6683
-0.000287289
61.6687
-0.000287187
61.6693
-0.00028717
61.6699
-0.000287278
61.6707
-0.000287636
61.6715
-0.000287223
61.6723
-0.000287474
61.6731
-0.00028755
61.6739
-0.00028761
61.6746
-0.000287663
61.6754
-0.000287644
61.6761
-0.000287773
61.6768
-0.000287848
61.6775
-0.00028776
61.6783
-0.000287876
61.6791
-0.000287899
61.6799
-0.000287803
61.6806
-0.000288004
61.6813
-0.000288106
61.682
-0.000287787
61.6826
-0.000287965
61.6833
-0.000287986
61.6841
-0.000287949
61.685
-0.00028797
61.6859
-0.000288134
61.6868
-0.000287895
61.6878
-0.000287851
61.6887
-0.000287704
61.6896
-0.000287444
61.6904
-0.000287049
61.6912
-0.000286364
61.6918
-0.000285767
61.6925
-0.000284471
61.693
-0.000282964
61.6935
-0.000280944
61.6938
-0.000278348
61.6941
-0.00027508
61.6942
-0.00027105
61.6941
-0.000266159
61.6939
-0.000260334
61.6935
-0.000253516
61.6929
-0.00024567
61.692
-0.000236792
61.6909
-0.000226908
61.6894
-0.000216078
61.6877
-0.000204394
61.6856
-0.000191981
61.6832
-0.00017899
61.6804
-0.000165594
61.6773
-0.000151979
61.6738
-0.000138338
61.6699
-0.000124861
61.6656
-0.000111732
61.6609
-9.91101e-05
61.656
-8.71395e-05
61.6506
-7.59323e-05
61.645
-6.55749e-05
61.6392
-5.61228e-05
61.6331
-4.76023e-05
61.6269
-4.00141e-05
61.6205
-3.3335e-05
61.6141
-2.7523e-05
61.6077
-2.25215e-05
61.6013
-1.8262e-05
61.595
-1.46726e-05
61.5888
-1.16752e-05
61.5828
-9.19502e-06
61.577
-7.15829e-06
61.5714
-5.49667e-06
61.566
-4.14629e-06
61.5608
-3.04824e-06
61.5559
-2.17368e-06
61.5512
-1.53292e-06
61.5467
-1.21856e-06
61.5425
-3.50711e-07
61.5385
1.08412e-07
61.5347
2.72712e-07
61.531
4.81322e-07
61.5274
6.89669e-07
61.5239
8.65736e-07
61.5204
1.00935e-06
61.5169
1.12572e-06
61.5133
1.21967e-06
61.5096
1.29552e-06
61.5057
1.35417e-06
61.5017
1.39711e-06
61.4974
1.42505e-06
61.493
1.44006e-06
61.4882
1.44275e-06
61.4832
1.43352e-06
61.4779
1.4149e-06
61.4724
1.38651e-06
61.4666
1.35109e-06
61.4606
1.30836e-06
61.4544
1.2602e-06
61.448
1.20776e-06
61.4415
1.15203e-06
61.435
1.09374e-06
61.4284
1.03372e-06
61.4218
9.7269e-07
61.4152
9.11434e-07
61.4088
8.50499e-07
61.4024
7.90422e-07
61.3963
7.31642e-07
61.3903
6.74493e-07
61.3845
6.19049e-07
61.379
5.65874e-07
61.3738
5.14975e-07
61.3689
4.66676e-07
61.3643
4.20816e-07
61.36
3.77417e-07
61.356
3.36487e-07
61.3524
2.97943e-07
61.3491
2.61589e-07
61.3461
2.27074e-07
61.3434
1.93775e-07
61.341
1.60583e-07
61.339
1.28864e-07
61.3372
1.18074e-07
61.3357
1.04248e-07
61.3345
4.03543e-08
61.3336
2.75363e-08
61.333
2.56573e-08
61.3326
1.6269e-08
61.3324
-8.99217e-09
61.3325
-3.74416e-08
61.3328
-6.49425e-08
61.3334
-9.21136e-08
61.3342
-1.65776e-07
61.3353
-9.08417e-08
61.3366
-1.31321e-07
61.3381
-1.55589e-07
61.34
-1.7291e-07
61.342
-1.90587e-07
61.3444
-2.08479e-07
61.347
-2.26827e-07
61.3499
-2.45168e-07
61.3531
-2.64212e-07
61.3565
-2.82006e-07
61.3603
-3.00481e-07
61.3643
-3.18209e-07
61.3687
-3.3767e-07
61.3733
-3.5344e-07
61.3783
-3.73367e-07
61.3835
-3.88352e-07
61.389
-4.06628e-07
61.3947
-4.21661e-07
61.4007
-4.34859e-07
61.4069
-4.47875e-07
61.4133
-4.62385e-07
61.4198
-4.68039e-07
61.4265
-4.76573e-07
61.4333
-4.80676e-07
61.4401
-4.8431e-07
61.4469
-4.74607e-07
61.4537
-4.82547e-07
61.4604
-4.6424e-07
61.4669
-4.58153e-07
61.4733
-4.33425e-07
61.4793
-4.21261e-07
61.4851
-4.18943e-07
61.4904
-3.7769e-07
61.4954
-3.56463e-07
61.4998
-3.09647e-07
61.5037
-2.56037e-07
61.507
-2.68797e-07
61.5096
-2.34063e-07
61.5116
-1.04707e-07
61.5129
-1.17287e-07
61.5134
-1.26352e-07
61.5132
-5.89931e-07
61.5119
1.54554e-06
61.5098
2.70854e-07
61.5068
4.94537e-06
61.5031
1.55383e-05
61.4986
8.2929e-05
61.4938
0.000387182
61.4909
0.0018985
61.4998
0.00925944
61.5697
0.0463536
61.9304
0.242723
63.3316
1.62802
5.46377
68.4913
13.9689
-0.000460011
13.969
-0.00033054
13.969
-0.000315422
13.9691
-0.000319037
13.9692
-0.000319421
13.9692
-0.000318933
13.9693
-0.000319153
13.9693
-0.000319039
13.9694
-0.000319064
13.9695
-0.000319047
13.9696
-0.000319152
13.9697
-0.000319563
13.9698
-0.000319126
13.97
-0.000319411
13.9701
-0.000319486
13.9702
-0.000319441
13.9703
-0.000319537
13.9704
-0.000319849
13.9705
-0.000319718
13.9706
-0.000319694
13.9708
-0.000319813
13.9709
-0.000320238
13.9711
-0.000319747
13.9713
-0.000320043
13.9715
-0.000320122
13.9717
-0.000320189
13.9718
-0.000320249
13.972
-0.000320214
13.9722
-0.000320377
13.9723
-0.000320458
13.9725
-0.000320349
13.9727
-0.000320487
13.9728
-0.000320513
13.973
-0.000320385
13.9732
-0.000320638
13.9733
-0.000320781
13.9735
-0.000320347
13.9736
-0.000320586
13.9738
-0.000320607
13.974
-0.000320569
13.9742
-0.00032056
13.9744
-0.000320795
13.9746
-0.000320496
13.9748
-0.000320456
13.975
-0.000320285
13.9752
-0.000319994
13.9754
-0.000319549
13.9756
-0.000318765
13.9757
-0.000318151
13.9759
-0.000316643