/*--------------------------------*- C++ -*----------------------------------*\
| =========                 |                                                 |
| \\      /  F ield         | OpenFOAM: The Open Source CFD Toolbox           |
|  \\    /   O peration     | Version:  3.0.x                                 |
|   \\  /    A nd           | Web:      www.OpenFOAM.org                      |
|    \\/     M anipulation  |                                                 |
\*---------------------------------------------------------------------------*/
FoamFile
{
    version     2.0;
    format      ascii;
    class       surfaceScalarField;
    location    "0.37995";
    object      phi;
}
// * * * * * * * * * * * * * * * * * * * * * * * * * * * * * * * * * * * * * //

dimensions      [1 0 -1 0 0 0 0];

internalField   nonuniform List<scalar> 
26210
(
6.98866
0.000504166
6.98832
0.000347397
6.98798
0.000340425
6.98765
0.000342016
6.98731
0.000342084
6.98698
0.000341971
6.98664
0.00034198
6.98631
0.000341976
6.98597
0.000341969
6.98564
0.000341961
6.98531
0.000341952
6.98497
0.000341944
6.98463
0.000341936
6.9843
0.000341927
6.98396
0.000341918
6.98363
0.000341909
6.98329
0.0003419
6.98296
0.000341891
6.98262
0.000341881
6.98229
0.000341871
6.98195
0.000341861
6.98161
0.000341849
6.98128
0.000341838
6.98094
0.000341825
6.98061
0.000341811
6.98027
0.000341796
6.97993
0.000341781
6.97959
0.000341765
6.97926
0.000341736
6.97892
0.000341716
6.97858
0.000341652
6.97824
0.00034155
6.97789
0.000342222
6.97754
0.000341441
6.9772
0.00034169
6.97685
0.000341696
6.97651
0.000341667
6.97617
0.000341624
6.97583
0.000341644
6.97551
0.00034267
6.97518
0.000341069
6.97485
0.000341797
6.97452
0.000341829
6.97418
0.000341854
6.97384
0.000341878
6.9735
0.000341899
6.97316
0.000341917
6.97281
0.000341932
6.97246
0.000341943
6.97211
0.000341938
6.97176
0.000341951
6.97141
0.000341923
6.97105
0.000341914
6.97069
0.000342103
6.97033
0.000341976
6.96997
0.000341978
6.96961
0.000341983
6.96926
0.000341818
6.96891
0.000341903
6.96856
0.000343109
6.96822
0.000341214
6.96787
0.000342051
6.96752
0.000342083
6.96717
0.000342111
6.96682
0.00034214
6.96646
0.000342171
6.9661
0.000342201
6.96575
0.000342087
6.96539
0.000342185
6.96505
0.000342515
6.96471
0.000342324
6.96436
0.000342364
6.96401
0.000342393
6.96366
0.000342422
6.96331
0.000342449
6.96296
0.000342473
6.9626
0.000342493
6.96225
0.000342507
6.96189
0.000342514
6.96153
0.000342513
6.96117
0.000342509
6.9608
0.000342508
6.96044
0.000342361
6.96006
0.000342377
6.95969
0.00034224
6.95932
0.000342077
6.95895
0.000341864
6.95859
0.000341576
6.95823
0.000340971
6.95787
0.000340526
6.95751
0.000341093
6.95717
0.000338675
6.95682
0.000338271
6.95648
0.000337046
6.95613
0.000335516
6.95579
0.000333661
6.95544
0.000331428
6.95509
0.000328768
6.95475
0.00032563
6.95441
0.000321967
6.95407
0.000317732
6.95374
0.000312882
6.95341
0.00030738
6.95309
0.0003012
6.95277
0.00029431
6.95246
0.000286696
6.95216
0.00027848
6.95187
0.000269489
6.95159
0.00025984
6.95132
0.000249595
6.95106
0.000238792
6.95081
0.000227501
6.95057
0.0002158
6.95034
0.000203783
6.95013
0.000191549
6.94993
0.000179155
6.94974
0.000166714
6.94956
0.00015442
6.9494
0.000142268
6.94925
0.000130384
6.94911
0.000118855
6.94898
0.000107758
6.94887
9.71599e-05
6.94876
8.71173e-05
6.94866
7.76737e-05
6.94857
6.8861e-05
6.94849
6.06991e-05
6.94842
5.31963e-05
6.94836
4.63505e-05
6.9483
4.01502e-05
6.94825
3.45754e-05
6.9482
2.95993e-05
6.94816
2.51894e-05
6.94812
2.13091e-05
6.94809
1.79188e-05
6.94806
1.49775e-05
6.94803
1.24435e-05
6.94801
1.02753e-05
6.94798
8.43293e-06
6.94796
6.87805e-06
6.94794
5.57463e-06
6.94792
4.48932e-06
6.94791
3.59165e-06
6.94789
2.85413e-06
6.94787
2.25214e-06
6.94786
1.76401e-06
6.94784
1.37078e-06
6.94782
1.05601e-06
6.94781
8.05669e-07
6.94779
6.0781e-07
6.94778
4.52457e-07
6.94776
3.31283e-07
6.94775
2.37345e-07
6.94773
1.6497e-07
6.94772
1.09541e-07
6.9477
6.73535e-08
6.94769
3.54394e-08
6.94767
1.14269e-08
6.94765
-6.51562e-09
6.94764
-1.9767e-08
6.94762
-2.94458e-08
6.94761
-3.64562e-08
6.94759
-4.14857e-08
6.94757
-4.50491e-08
6.94755
-4.75411e-08
6.94754
-4.92764e-08
6.94752
-5.04315e-08
6.9475
-5.11427e-08
6.94748
-5.15411e-08
6.94747
-5.16993e-08
6.94745
-5.1743e-08
6.94743
-5.1712e-08
6.94741
-5.16011e-08
6.94739
-5.13646e-08
6.94737
-5.12064e-08
6.94735
-5.09026e-08
6.94734
-5.06952e-08
6.94732
-5.06407e-08
6.9473
-5.04206e-08
6.94728
-5.03478e-08
6.94726
-5.01987e-08
6.94724
-5.01295e-08
6.94722
-5.00895e-08
6.94719
-5.00313e-08
6.94717
-4.99276e-08
6.94715
-4.96639e-08
6.94713
-4.82287e-08
6.94711
-4.18422e-08
6.94709
-1.16634e-08
6.94706
1.34045e-07
6.94704
8.37852e-07
6.94702
4.23823e-06
6.94697
2.06524e-05
6.94685
9.98291e-05
6.94634
0.000481979
6.94406
0.00225908
6.93374
0.0103038
6.88672
0.0469873
6.6535
0.233206
0.913125
5.74035
9.88446
0.000460003
9.88448
0.000330422
9.88452
0.000315805
9.88455
0.000319149
9.88458
0.000319347
9.88461
0.000319173
9.88464
0.000319201
9.88467
0.000319228
9.8847
0.000319245
9.88473
0.000319262
9.88476
0.000319278
9.8848
0.000319294
9.88483
0.000319309
9.88486
0.000319325
9.88489
0.00031934
9.88491
0.000319355
9.88494
0.00031937
9.88497
0.000319385
9.885
0.000319399
9.88503
0.000319413
9.88506
0.000319427
9.88509
0.00031944
9.88512
0.000319452
9.88515
0.000319463
9.88517
0.000319474
9.8852
0.000319483
9.88523
0.000319492
9.88525
0.0003195
9.88528
0.000319498
9.8853
0.000319501
9.88533
0.000319468
9.88535
0.000319404
9.88536
0.00032001
9.88537
0.000319359
9.88538
0.000319592
9.8854
0.000319622
9.88542
0.000319619
9.88544
0.000319611
9.88547
0.000319651
9.88551
0.000320558
9.88555
0.000319216
9.88559
0.000319852
9.88562
0.000319912
9.88565
0.000319959
9.88567
0.000320004
9.88569
0.000320047
9.88571
0.000320087
9.88572
0.000320125
9.88573
0.000320159
9.88574
0.000320179
9.88575
0.000320212
9.88575
0.000320214
9.88575
0.000320219
9.88574
0.000320423
9.88573
0.000320331
9.88573
0.000320355
9.88573
0.000320381
9.88573
0.000320259
9.88573
0.000320368
9.88575
0.00032147
9.88577
0.000319789
9.88578
0.000320555
9.88579
0.00032062
9.88579
0.000320669
9.8858
0.00032072
9.88579
0.000320773
9.88579
0.000320824
9.88579
0.000320747
9.88579
0.000320862
9.88581
0.000321182
9.88583
0.00032103
9.88584
0.000321097
9.88585
0.000321146
9.88586
0.000321196
9.88587
0.000321245
9.88588
0.00032129
9.88588
0.000321331
9.88588
0.000321367
9.88588
0.000321396
9.88587
0.000321416
9.88586
0.000321435
9.88585
0.000321451
9.88583
0.000321341
9.88581
0.000321353
9.88578
0.000321252
9.88576
0.000321106
9.88575
0.000320915
9.88573
0.000320646
9.88572
0.000320087
9.88571
0.000319667
9.88571
0.00032012
9.88572
0.000317904
9.88573
0.000317439
9.88574
0.000316259
9.88574
0.000314755
9.88574
0.000312936
9.88574
0.000310747
9.88574
0.00030814
9.88573
0.000305068
9.88572
0.000301486
9.88571
0.000297349
9.8857
0.000292619
9.88569
0.000287265
9.88567
0.00028126
9.88566
0.000274584
9.88565
0.000267216
9.88563
0.000259261
9.88562
0.000250635
9.8856
0.00024135
9.88559
0.000231529
9.88557
0.000221199
9.88556
0.00021043
9.88554
0.000199298
9.88552
0.000187896
9.8855
0.000176318
9.88549
0.00016462
9.88547
0.000152911
9.88545
0.00014137
9.88543
0.000129995
9.88541
0.000118902
9.88539
0.000108169
9.88537
9.7868e-05
9.88535
8.80578e-05
9.88533
7.87876e-05
9.88531
7.00949e-05
9.88529
6.20058e-05
9.88527
5.4535e-05
9.88525
4.76869e-05
9.88523
4.1456e-05
9.88521
3.58283e-05
9.88518
3.07825e-05
9.88516
2.62911e-05
9.88514
2.23218e-05
9.88512
1.88389e-05
9.8851
1.58042e-05
9.88508
1.31787e-05
9.88505
1.09229e-05
9.88503
8.99807e-06
9.88501
7.36699e-06
9.88499
5.99419e-06
9.88497
4.84654e-06
9.88495
3.89354e-06
9.88493
3.10744e-06
9.88491
2.46332e-06
9.88489
1.93897e-06
9.88486
1.51492e-06
9.88484
1.17418e-06
9.88482
9.02135e-07
9.8848
6.86296e-07
9.88478
5.16107e-07
9.88476
3.82784e-07
9.88473
2.79029e-07
9.88471
1.98757e-07
9.88469
1.37044e-07
9.88467
8.98708e-08
9.88464
5.4044e-08
9.88462
2.70174e-08
9.88459
6.74481e-09
9.88457
-8.38008e-09
9.88455
-1.95923e-08
9.88452
-2.7816e-08
9.8845
-3.37914e-08
9.88447
-3.81042e-08
9.88445
-4.11692e-08
9.88442
-4.33101e-08
9.8844
-4.48144e-08
9.88437
-4.58149e-08
9.88434
-4.6437e-08
9.88432
-4.67717e-08
9.88429
-4.6919e-08
9.88426
-4.69608e-08
9.88423
-4.6919e-08
9.88421
-4.68663e-08
9.88418
-4.65843e-08
9.88415
-4.65552e-08
9.88412
-4.62078e-08
9.88409
-4.59841e-08
9.88406
-4.60586e-08
9.88403
-4.57403e-08
9.88401
-4.57403e-08
9.88398
-4.55457e-08
9.88395
-4.54347e-08
9.88391
-4.54002e-08
9.88388
-4.53183e-08
9.88385
-4.50145e-08
9.88382
-4.44124e-08
9.88379
-4.11001e-08
9.88376
-2.59133e-08
9.88373
4.66971e-08
9.88369
3.98484e-07
9.88366
2.09829e-06
9.88362
1.03108e-05
9.88356
4.99555e-05
9.88338
0.000241174
9.88267
0.00116394
9.87944
0.00545643
9.86479
0.0249116
9.79815
0.113595
9.47495
0.556376
2.1086
8.27944
13.9787
0.000401463
13.9788
0.000303509
13.9788
0.000281705
13.9789
0.000286527
13.9789
0.000286934
13.9789
0.000286676
13.979
0.000286699
13.979
0.000286734
13.9791
0.000286754
13.9791
0.00028677
13.9792
0.000286786
13.9792
0.000286801
13.9793
0.000286817
13.9793
0.000286831
13.9793
0.000286845
13.9794
0.00028686
13.9794
0.000286873
13.9795
0.000286887
13.9795
0.0002869
13.9796
0.000286913
13.9796
0.000286925
13.9796
0.000286937
13.9797
0.000286948
13.9797
0.000286959
13.9798
0.000286968
13.9798
0.000286977
13.9798
0.000286985
13.9799
0.000286992
13.9799
0.000286992
13.9799
0.000286992
13.98
0.000286968
13.98
0.000286918
13.98
0.000287411
13.98
0.00028689
13.9801
0.000287072
13.9801
0.000287101
13.9801
0.000287098
13.9802
0.000287102
13.9802
0.000287134
13.9802
0.000287861
13.9803
0.00028681
13.9804
0.000287302
13.9804
0.000287362
13.9805
0.000287404
13.9805
0.000287446
13.9805
0.000287484
13.9805
0.000287521
13.9806
0.000287554
13.9806
0.000287585
13.9806
0.000287605
13.9806
0.000287632
13.9806
0.00028764
13.9806
0.000287632
13.9806
0.000287821
13.9806
0.000287742
13.9806
0.000287761
13.9806
0.000287782
13.9806
0.000287682
13.9806
0.000287786
13.9806
0.000288721
13.9807
0.000287289
13.9807
0.000287929
13.9807
0.000288
13.9807
0.000288043
13.9807
0.000288089
13.9807
0.000288137
13.9807
0.000288181
13.9807
0.000288119
13.9807
0.000288223
13.9807
0.000288497
13.9808
0.000288365
13.9808
0.000288432
13.9808
0.000288472
13.9808
0.000288518
13.9808
0.000288562
13.9808
0.000288603
13.9809
0.00028864
13.9809
0.000288672
13.9809
0.000288698
13.9808
0.000288717
13.9808
0.000288736
13.9808
0.000288749
13.9808
0.000288659
13.9808
0.000288648
13.9807
0.000288575
13.9807
0.000288439
13.9807
0.000288271
13.9807
0.000288028
13.9807
0.000287538
13.9807
0.000287171
13.9807
0.000287517
13.9807
0.000285617
13.9807
0.000285147
13.9807
0.000284113
13.9807
0.000282762
13.9807
0.000281135
13.9807
0.000279176
13.9807
0.000276843
13.9807
0.000274093
13.9807
0.000270885
13.9807
0.00026718
13.9807
0.000262944
13.9806
0.000258147
13.9806
0.000252767
13.9806
0.00024679
13.9806
0.000240181
13.9806
0.000233021
13.9805
0.000225335
13.9805
0.00021699
13.9805
0.000208179
13.9805
0.000198913
13.9804
0.00018925
13.9804
0.00017926
13.9804
0.000169026
13.9804
0.000158631
13.9803
0.000148128
13.9803
0.000137612
13.9803
0.000127244
13.9802
0.000117025
13.9802
0.000107055
13.9802
9.74083e-05
13.9801
8.8147e-05
13.9801
7.93254e-05
13.9801
7.09875e-05
13.98
6.31673e-05
13.98
5.58885e-05
13.98
4.91645e-05
13.9799
4.29995e-05
13.9799
3.73888e-05
13.9799
3.23201e-05
13.9799
2.77744e-05
13.9798
2.37272e-05
13.9798
2.01495e-05
13.9798
1.70095e-05
13.9797
1.42729e-05
13.9797
1.19046e-05
13.9797
9.86933e-06
13.9796
8.13223e-06
13.9796
6.65982e-06
13.9796
5.42023e-06
13.9795
4.38366e-06
13.9795
3.52266e-06
13.9795
2.81227e-06
13.9794
2.23e-06
13.9794
1.75588e-06
13.9794
1.37234e-06
13.9794
1.06406e-06
13.9793
8.17853e-07
13.9793
6.22467e-07
13.9793
4.68356e-07
13.9792
3.47593e-07
13.9792
2.53589e-07
13.9792
1.80823e-07
13.9791
1.24877e-07
13.9791
8.20955e-08
13.9791
4.95811e-08
13.979
2.50666e-08
13.979
6.6666e-09
13.979
-7.07587e-09
13.9789
-1.72627e-08
13.9789
-2.47383e-08
13.9789
-3.0162e-08
13.9788
-3.40947e-08
13.9788
-3.6885e-08
13.9788
-3.88332e-08
13.9787
-4.01988e-08
13.9787
-4.11096e-08
13.9786
-4.16944e-08
13.9786
-4.19855e-08
13.9786
-4.21392e-08
13.9785
-4.21819e-08
13.9785
-4.21128e-08
13.9785
-4.21282e-08
13.9784
-4.17767e-08
13.9784
-4.19041e-08
13.9783
-4.14807e-08
13.9783
-4.12269e-08
13.9783
-4.14666e-08
13.9782
-4.10191e-08
13.9782
-4.11369e-08
13.9781
-4.09009e-08
13.9781
-4.07626e-08
13.978
-4.0789e-08
13.978
-4.07281e-08
13.978
-4.02074e-08
13.9779
-3.92179e-08
13.9779
-3.33775e-08
13.9778
-6.06406e-09
13.9778
1.24742e-07
13.9777
7.58686e-07
13.9777
3.82236e-06
13.9776
1.8625e-05
13.9775
9.00872e-05
13.9773
0.000434746
13.9763
0.00209756
13.9719
0.009841
13.9518
0.0449538
13.8606
0.204774
13.4243
0.992606
3.67709
11.8557
61.705
0.000184703
61.7052
0.000159225
61.7054
0.000139704
61.7056
0.000142819
61.7058
0.000143787
61.706
0.00014349
61.7062
0.000143424
61.7064
0.000143432
61.7066
0.000143429
61.7068
0.000143425
61.707
0.000143425
61.7072
0.000143427
61.7074
0.00014343
61.7076
0.000143434
61.7078
0.000143438
61.7079
0.000143443
61.7081
0.000143448
61.7083
0.000143453
61.7085
0.000143458
61.7087
0.000143464
61.7089
0.000143469
61.7091
0.000143474
61.7092
0.000143479
61.7094
0.000143484
61.7096
0.000143488
61.7098
0.000143492
61.7099
0.000143495
61.7101
0.000143498
61.7103
0.0001435
61.7104
0.000143496
61.7106
0.00014349
61.7107
0.000143476
61.7108
0.000143657
61.7109
0.000143472
61.711
0.000143533
61.7111
0.000143549
61.7112
0.000143548
61.7113
0.000143562
61.7115
0.000143573
61.7118
0.000143826
61.712
0.000143495
61.7123
0.000143646
61.7125
0.00014368
61.7127
0.000143702
61.7128
0.000143723
61.713
0.000143742
61.7131
0.00014376
61.7132
0.000143777
61.7132
0.000143792
61.7133
0.000143805
61.7133
0.000143816
61.7134
0.000143826
61.7134
0.000143807
61.7133
0.000143907
61.7133
0.000143873
61.7133
0.000143879
61.7133
0.000143888
61.7133
0.00014385
61.7133
0.000143907
61.7134
0.000144302
61.7136
0.000143691
61.7136
0.000143949
61.7137
0.000143998
61.7138
0.00014402
61.7138
0.000144043
61.7138
0.000144067
61.7138
0.000144088
61.7138
0.000144065
61.7138
0.000144118
61.7139
0.000144237
61.714
0.000144177
61.7141
0.000144218
61.7142
0.000144235
61.7143
0.000144258
61.7144
0.00014428
61.7144
0.000144301
61.7144
0.00014432
61.7144
0.000144336
61.7144
0.000144349
61.7144
0.000144359
61.7144
0.000144371
61.7143
0.000144376
61.7142
0.000144341
61.7141
0.000144309
61.7139
0.000144295
61.7138
0.000144222
61.7137
0.000144142
61.7137
0.00014402
61.7136
0.000143792
61.7135
0.000143619
61.7136
0.000143715
61.7136
0.000142883
61.7137
0.000142584
61.7138
0.000142098
61.7138
0.000141426
61.7138
0.000140622
61.7138
0.000139654
61.7138
0.000138499
61.7138
0.000137138
61.7137
0.000135549
61.7137
0.000133713
61.7136
0.000131612
61.7135
0.000129232
61.7135
0.000126561
61.7134
0.000123599
61.7133
0.000120307
61.7132
0.000116712
61.7131
0.000112945
61.713
0.000108769
61.7129
0.000104378
61.7128
9.97596e-05
61.7127
9.49408e-05
61.7125
8.99564e-05
61.7124
8.48472e-05
61.7123
7.96541e-05
61.7122
7.44055e-05
61.712
6.91487e-05
61.7119
6.396e-05
61.7118
5.88447e-05
61.7116
5.38515e-05
61.7115
4.90174e-05
61.7114
4.43739e-05
61.7112
3.99485e-05
61.7111
3.57636e-05
61.7109
3.18365e-05
61.7108
2.81793e-05
61.7106
2.47991e-05
61.7105
2.16983e-05
61.7103
1.88748e-05
61.7102
1.63228e-05
61.71
1.40329e-05
61.7099
1.19931e-05
61.7098
1.0189e-05
61.7096
8.6048e-06
61.7095
7.22345e-06
61.7093
6.02744e-06
61.7092
4.99908e-06
61.7091
4.12094e-06
61.7089
3.37629e-06
61.7088
2.74904e-06
61.7087
2.22429e-06
61.7085
1.78823e-06
61.7084
1.42826e-06
61.7083
1.13309e-06
61.7081
8.92617e-07
61.708
6.98035e-07
61.7079
5.41515e-07
61.7077
4.16472e-07
61.7076
3.17225e-07
61.7074
2.3886e-07
61.7073
1.7745e-07
61.7072
1.29649e-07
61.707
9.25777e-08
61.7069
6.41051e-08
61.7067
4.23197e-08
61.7066
2.57414e-08
61.7064
1.32643e-08
61.7063
3.84352e-09
61.7061
-3.13753e-09
61.706
-8.32665e-09
61.7058
-1.21618e-08
61.7057
-1.49032e-08
61.7055
-1.69139e-08
61.7054
-1.84032e-08
61.7052
-1.93338e-08
61.7051
-2.0035e-08
61.7049
-2.05446e-08
61.7047
-2.08001e-08
61.7046
-2.1023e-08
61.7044
-2.10264e-08
61.7042
-2.10882e-08
61.704
-2.10191e-08
61.7039
-2.11412e-08
61.7037
-2.06553e-08
61.7035
-2.14111e-08
61.7033
-2.04404e-08
61.7032
-2.03663e-08
61.703
-2.12744e-08
61.7028
-1.99107e-08
61.7026
-2.11221e-08
61.7024
-2.00441e-08
61.7022
-2.04793e-08
61.7021
-2.03743e-08
61.7019
-2.01505e-08
61.7017
-1.93691e-08
61.7015
-1.67761e-08
61.7013
-7.90806e-10
61.7011
7.39185e-08
61.7009
4.3195e-07
61.7007
2.16808e-06
61.7005
1.05614e-05
61.7002
5.11208e-05
61.6999
0.000246999
61.6989
0.00119131
61.695
0.00572775
61.6777
0.0270241
61.5993
0.123125
61.2503
0.55357
59.7968
2.44588
8.79134
54.6823
61.705
9.09495e-13
61.7052
-2.27374e-13
61.7054
1.36424e-12
61.7056
-6.82121e-13
61.7058
-1.13687e-12
61.706
-6.82121e-13
61.7062
-1.59162e-12
61.7064
1.36424e-12
61.7066
1.13687e-12
61.7068
-1.13687e-12
61.707
-1.36424e-12
61.7072
-2.04636e-12
61.7074
2.27374e-13
61.7075
2.04636e-12
61.7077
4.54747e-13
61.7079
-6.82121e-13
61.7081
-6.82121e-13
61.7083
-1.13687e-12
61.7085
-1.36424e-12
61.7087
-1.36424e-12
61.7088
-4.54747e-13
61.709
-6.82121e-13
61.7092
-1.13687e-12
61.7094
-1.13687e-12
61.7096
2.27374e-13
61.7097
-6.82121e-13
61.7099
-1.81899e-12
61.7101
-4.54747e-13
61.7102
-9.09495e-13
61.7104
0
61.7106
-2.04636e-12
61.7107
-1.59162e-12
61.7108
-2.27374e-13
61.7108
6.82121e-13
61.7109
2.27374e-13
61.7111
-6.82121e-13
61.7112
9.09495e-13
61.7113
1.36424e-12
61.7115
1.36424e-12
61.7117
6.82121e-13
61.712
-4.54747e-13
61.7123
-9.09495e-13
61.7125
-2.27374e-13
61.7126
-1.13687e-12
61.7128
-2.27374e-13
61.7129
-2.27374e-13
61.713
-6.82121e-13
61.7131
2.27374e-13
61.7132
9.09495e-13
61.7133
9.09495e-13
61.7133
-9.09495e-13
61.7133
-4.54747e-13
61.7133
0
61.7133
0
61.7133
-4.54747e-13
61.7132
2.27374e-13
61.7132
-4.54747e-13
61.7133
9.09495e-13
61.7133
9.09495e-13
61.7134
2.27374e-13
61.7135
2.27374e-13
61.7136
2.04636e-12
61.7137
2.27374e-12
61.7137
6.82121e-13
61.7137
-9.09495e-13
61.7138
0
61.7138
2.72848e-12
61.7138
1.81899e-12
61.7138
-2.27374e-13
61.7139
-9.09495e-13
61.714
-1.81899e-12
61.7141
-1.81899e-12
61.7142
-1.36424e-12
61.7143
-1.13687e-12
61.7143
-4.54747e-13
61.7144
-1.13687e-12
61.7144
-1.13687e-12
61.7144
2.27374e-13
61.7144
1.13687e-12
61.7144
0
61.7143
1.13687e-12
61.7143
1.13687e-12
61.7142
2.27374e-13
61.7141
-2.27374e-13
61.7139
6.82121e-13
61.7138
6.82121e-13
61.7137
4.54747e-13
61.7136
2.72848e-12
61.7136
1.59162e-12
61.7135
9.09495e-13
61.7135
5.22959e-12
61.7136
-4.3201e-12
61.7137
-6.82121e-13
61.7138
1.36424e-12
61.7138
1.36424e-12
61.7138
6.82121e-13
61.7138
-1.36424e-12
61.7138
4.54747e-13
61.7138
-9.09495e-13
61.7137
-9.09495e-13
61.7137
-1.13687e-12
61.7136
4.54747e-13
61.7135
2.50111e-12
61.7134
2.27374e-13
61.7134
-7.27596e-12
61.7133
-3.75167e-11
61.7132
3.22188e-10
61.7131
-2.26009e-10
61.713
-4.25189e-11
61.7129
-5.45697e-12
61.7128
-9.09495e-13
61.7126
-4.54747e-13
61.7125
-6.82121e-13
61.7124
1.36424e-12
61.7123
-2.50111e-12
61.7122
9.32232e-12
61.712
-2.95586e-12
61.7119
-2.27374e-12
61.7118
9.09495e-13
61.7116
-2.27374e-13
61.7115
-1.13687e-12
61.7113
1.59162e-12
61.7112
-2.27374e-13
61.7111
-2.04636e-12
61.7109
2.72848e-12
61.7108
-1.36424e-12
61.7106
1.36424e-12
61.7105
-6.82121e-13
61.7103
3.18323e-12
61.7102
-3.18323e-12
61.71
0
61.7099
3.86535e-12
61.7098
-6.59384e-12
61.7096
1.15961e-11
61.7095
-6.59384e-12
61.7093
-3.63798e-12
61.7092
1.84173e-11
61.7091
-1.81899e-11
61.7089
6.13909e-12
61.7088
1.09139e-11
61.7087
-1.5234e-11
61.7085
4.3201e-12
61.7084
1.02318e-11
61.7083
-1.02318e-11
61.7081
-9.32232e-12
61.708
2.45564e-11
61.7079
-1.29603e-11
61.7077
-1.79625e-11
61.7076
3.43334e-11
61.7074
-1.95541e-11
61.7073
-2.18279e-11
61.7072
4.29736e-11
61.707
-1.54614e-11
61.7069
-3.22871e-11
61.7067
3.31966e-11
61.7066
1.18234e-11
61.7064
-2.81943e-11
61.7063
-8.86757e-12
61.7061
2.63753e-11
61.706
1.43245e-11
61.7058
-2.84217e-11
61.7057
-1.31877e-11
61.7055
3.02407e-11
61.7054
-2.95586e-12
61.7052
-3.86535e-12
61.7051
-2.251e-11
61.7049
2.13731e-11
61.7047
2.56932e-11
61.7046
-1.20508e-11
61.7044
-2.88765e-11
61.7042
-1.45519e-11
61.704
8.18545e-11
61.7039
-1.8963e-10
61.7037
5.45242e-10
61.7035
-9.50422e-10
61.7033
6.22549e-10
61.7032
1.78034e-10
61.703
-3.58568e-10
61.7028
1.53022e-10
61.7026
-1.90539e-10
61.7024
8.34461e-11
61.7022
3.03089e-10
61.7021
-3.38559e-10
61.7019
4.95675e-10
61.7017
9.10859e-10
61.7015
4.63115e-09
61.7013
2.44193e-08
61.7011
1.1632e-07
61.7009
5.61578e-07
61.7007
2.71677e-06
61.7005
1.31396e-05
61.7002
6.35357e-05
61.7
0.00030715
61.6995
0.00148412
61.6978
0.00715568
61.6908
0.0338546
61.6578
0.15588
61.4994
0.711752
60.7434
3.20164
11.6528
57.8818
61.705
-0.000184703
61.7052
-0.000159225
61.7054
-0.000139704
61.7056
-0.000142819
61.7058
-0.000143787
61.706
-0.00014349
61.7062
-0.000143424
61.7064
-0.000143432
61.7066
-0.000143429
61.7068
-0.000143425
61.707
-0.000143425
61.7072
-0.000143427
61.7074
-0.00014343
61.7075
-0.000143434
61.7077
-0.000143438
61.7079
-0.000143443
61.7081
-0.000143448
61.7083
-0.000143453
61.7085
-0.000143458
61.7087
-0.000143464
61.7088
-0.000143469
61.709
-0.000143474
61.7092
-0.000143479
61.7094
-0.000143484
61.7096
-0.000143488
61.7097
-0.000143492
61.7099
-0.000143495
61.7101
-0.000143498
61.7102
-0.0001435
61.7104
-0.000143496
61.7106
-0.00014349
61.7107
-0.000143476
61.7108
-0.000143657
61.7108
-0.000143472
61.7109
-0.000143533
61.7111
-0.000143549
61.7112
-0.000143548
61.7113
-0.000143562
61.7115
-0.000143573
61.7117
-0.000143826
61.712
-0.000143495
61.7123
-0.000143646
61.7125
-0.00014368
61.7126
-0.000143702
61.7128
-0.000143723
61.7129
-0.000143742
61.713
-0.00014376
61.7131
-0.000143777
61.7132
-0.000143792
61.7133
-0.000143805
61.7133
-0.000143816
61.7133
-0.000143826
61.7133
-0.000143807
61.7133
-0.000143907
61.7133
-0.000143873
61.7132
-0.000143879
61.7132
-0.000143888
61.7133
-0.00014385
61.7133
-0.000143907
61.7134
-0.000144302
61.7135
-0.000143691
61.7136
-0.000143949
61.7137
-0.000143998
61.7137
-0.00014402
61.7137
-0.000144043
61.7138
-0.000144067
61.7138
-0.000144088
61.7138
-0.000144065
61.7138
-0.000144118
61.7139
-0.000144237
61.714
-0.000144177
61.7141
-0.000144218
61.7142
-0.000144235
61.7143
-0.000144258
61.7143
-0.00014428
61.7144
-0.000144301
61.7144
-0.00014432
61.7144
-0.000144336
61.7144
-0.000144349
61.7144
-0.000144359
61.7143
-0.000144371
61.7143
-0.000144376
61.7142
-0.000144341
61.7141
-0.000144309
61.7139
-0.000144295
61.7138
-0.000144222
61.7137
-0.000144142
61.7136
-0.00014402
61.7136
-0.000143792
61.7135
-0.000143619
61.7135
-0.000143715
61.7136
-0.000142883
61.7137
-0.000142584
61.7138
-0.000142098
61.7138
-0.000141426
61.7138
-0.000140622
61.7138
-0.000139654
61.7138
-0.000138499
61.7138
-0.000137138
61.7137
-0.000135549
61.7137
-0.000133713
61.7136
-0.000131612
61.7135
-0.000129232
61.7134
-0.000126561
61.7134
-0.000123599
61.7133
-0.000120307
61.7132
-0.000116712
61.7131
-0.000112945
61.713
-0.000108769
61.7129
-0.000104378
61.7128
-9.97596e-05
61.7126
-9.49408e-05
61.7125
-8.99564e-05
61.7124
-8.48472e-05
61.7123
-7.96541e-05
61.7122
-7.44055e-05
61.712
-6.91488e-05
61.7119
-6.396e-05
61.7118
-5.88447e-05
61.7116
-5.38515e-05
61.7115
-4.90174e-05
61.7113
-4.43739e-05
61.7112
-3.99485e-05
61.7111
-3.57636e-05
61.7109
-3.18365e-05
61.7108
-2.81793e-05
61.7106
-2.47991e-05
61.7105
-2.16983e-05
61.7103
-1.88748e-05
61.7102
-1.63228e-05
61.71
-1.40329e-05
61.7099
-1.19931e-05
61.7098
-1.0189e-05
61.7096
-8.60478e-06
61.7095
-7.22346e-06
61.7093
-6.02744e-06
61.7092
-4.99907e-06
61.7091
-4.12097e-06
61.7089
-3.37626e-06
61.7088
-2.74904e-06
61.7087
-2.2243e-06
61.7085
-1.78822e-06
61.7084
-1.42826e-06
61.7083
-1.13308e-06
61.7081
-8.92637e-07
61.708
-6.98008e-07
61.7079
-5.41521e-07
61.7077
-4.16498e-07
61.7076
-3.17179e-07
61.7074
-2.38883e-07
61.7073
-1.77488e-07
61.7072
-1.29596e-07
61.707
-9.26022e-08
61.7069
-6.4123e-08
61.7067
-4.22942e-08
61.7066
-2.57382e-08
61.7064
-1.32807e-08
61.7063
-3.85876e-09
61.7061
3.178e-09
61.706
8.33438e-09
61.7058
1.21111e-08
61.7057
1.49305e-08
61.7055
1.69439e-08
61.7054
1.83425e-08
61.7052
1.93575e-08
61.7051
2.00439e-08
61.7049
2.05687e-08
61.7047
2.07947e-08
61.7046
2.09927e-08
61.7044
2.10105e-08
61.7042
2.11123e-08
61.704
2.11753e-08
61.7039
2.06139e-08
61.7037
2.19143e-08
61.7035
1.94209e-08
61.7033
2.1709e-08
61.7032
2.07567e-08
61.703
2.01658e-08
61.7028
2.11435e-08
61.7026
1.99632e-08
61.7024
2.06301e-08
61.7022
2.07756e-08
61.7021
2.02097e-08
61.7019
2.04659e-08
61.7017
2.08825e-08
61.7015
2.46473e-08
61.7013
3.91797e-08
61.7011
1.14094e-07
61.7009
4.72673e-07
61.7007
2.20953e-06
61.7005
1.06144e-05
61.7003
5.1298e-05
61.7001
0.000248483
61.7002
0.00120864
61.7012
0.00590816
61.7071
0.0277322
61.7328
0.129994
61.8277
0.616692
61.9815
3.04763
10.6932
62.9408
61.705
-0.000401463
61.7052
-0.000303509
61.7054
-0.000281705
61.7056
-0.000286527
61.7058
-0.000286934
61.706
-0.000286676
61.7062
-0.000286699
61.7064
-0.000286734
61.7066
-0.000286754
61.7068
-0.00028677
61.707
-0.000286786
61.7072
-0.000286801
61.7074
-0.000286817
61.7076
-0.000286831
61.7078
-0.000286845
61.7079
-0.00028686
61.7081
-0.000286873
61.7083
-0.000286887
61.7085
-0.0002869
61.7087
-0.000286913
61.7089
-0.000286925
61.7091
-0.000286937
61.7092
-0.000286948
61.7094
-0.000286959
61.7096
-0.000286968
61.7098
-0.000286977
61.7099
-0.000286985
61.7101
-0.000286992
61.7103
-0.000286992
61.7104
-0.000286992
61.7106
-0.000286968
61.7107
-0.000286918
61.7108
-0.000287411
61.7109
-0.00028689
61.711
-0.000287072
61.7111
-0.000287101
61.7112
-0.000287098
61.7113
-0.000287102
61.7115
-0.000287134
61.7118
-0.000287861
61.712
-0.00028681
61.7123
-0.000287302
61.7125
-0.000287362
61.7127
-0.000287404
61.7128
-0.000287446
61.713
-0.000287484
61.7131
-0.000287521
61.7132
-0.000287554
61.7132
-0.000287585
61.7133
-0.000287605
61.7133
-0.000287632
61.7134
-0.00028764
61.7134
-0.000287632
61.7133
-0.000287821
61.7133
-0.000287742
61.7133
-0.000287761
61.7133
-0.000287782
61.7133
-0.000287682
61.7133
-0.000287786
61.7134
-0.000288721
61.7136
-0.000287289
61.7136
-0.000287929
61.7137
-0.000288
61.7138
-0.000288043
61.7138
-0.000288089
61.7138
-0.000288137
61.7138
-0.000288181
61.7138
-0.000288119
61.7138
-0.000288223
61.7139
-0.000288497
61.714
-0.000288365
61.7141
-0.000288432
61.7142
-0.000288472
61.7143
-0.000288518
61.7144
-0.000288562
61.7144
-0.000288603
61.7144
-0.00028864
61.7144
-0.000288672
61.7144
-0.000288698
61.7144
-0.000288717
61.7144
-0.000288736
61.7143
-0.000288749
61.7142
-0.000288659
61.7141
-0.000288648
61.7139
-0.000288575
61.7138
-0.000288439
61.7137
-0.000288271
61.7137
-0.000288028
61.7136
-0.000287538
61.7135
-0.000287171
61.7136
-0.000287517
61.7136
-0.000285617
61.7137
-0.000285147
61.7138
-0.000284113
61.7138
-0.000282762
61.7138
-0.000281135
61.7138
-0.000279176
61.7138
-0.000276843
61.7138
-0.000274093
61.7137
-0.000270885
61.7137
-0.00026718
61.7136
-0.000262944
61.7135
-0.000258147
61.7135
-0.000252767
61.7134
-0.00024679
61.7133
-0.000240181
61.7132
-0.000233021
61.7131
-0.000225335
61.713
-0.00021699
61.7129
-0.000208179
61.7128
-0.000198913
61.7127
-0.00018925
61.7125
-0.00017926
61.7124
-0.000169026
61.7123
-0.000158631
61.7122
-0.000148128
61.712
-0.000137612
61.7119
-0.000127244
61.7118
-0.000117025
61.7116
-0.000107055
61.7115
-9.74083e-05
61.7114
-8.8147e-05
61.7112
-7.93254e-05
61.7111
-7.09875e-05
61.7109
-6.31673e-05
61.7108
-5.58885e-05
61.7106
-4.91645e-05
61.7105
-4.29995e-05
61.7103
-3.73888e-05
61.7102
-3.23201e-05
61.71
-2.77744e-05
61.7099
-2.37272e-05
61.7098
-2.01495e-05
61.7096
-1.70095e-05
61.7095
-1.42729e-05
61.7093
-1.19046e-05
61.7092
-9.86932e-06
61.7091
-8.13224e-06
61.7089
-6.65981e-06
61.7088
-5.42022e-06
61.7087
-4.38367e-06
61.7085
-3.52266e-06
61.7084
-2.81227e-06
61.7083
-2.23e-06
61.7081
-1.75588e-06
61.708
-1.37234e-06
61.7079
-1.06406e-06
61.7077
-8.17862e-07
61.7076
-6.22455e-07
61.7074
-4.68359e-07
61.7073
-3.47609e-07
61.7072
-2.53572e-07
61.707
-1.80831e-07
61.7069
-1.24883e-07
61.7067
-8.20828e-08
61.7066
-4.95784e-08
61.7064
-2.50834e-08
61.7063
-6.66205e-09
61.7061
7.09406e-09
61.706
1.72413e-08
61.7058
2.47405e-08
61.7057
3.01752e-08
61.7055
3.40751e-08
61.7054
3.68741e-08
61.7052
3.88527e-08
61.7051
4.01924e-08
61.7049
4.11396e-08
61.7047
4.1653e-08
61.7046
4.19941e-08
61.7044
4.21492e-08
61.7042
4.21501e-08
61.704
4.22592e-08
61.7039
4.17667e-08
61.7037
4.24675e-08
61.7035
4.0875e-08
61.7033
4.22456e-08
61.7032
4.11528e-08
61.703
4.13402e-08
61.7028
4.10755e-08
61.7026
4.10546e-08
61.7024
4.07326e-08
61.7022
4.11646e-08
61.7021
4.05498e-08
61.7019
4.1035e-08
61.7017
4.08099e-08
61.7015
4.1854e-08
61.7013
4.76571e-08
61.7011
7.45567e-08
61.7009
2.05353e-07
61.7007
8.39833e-07
61.7005
3.90883e-06
61.7003
1.87695e-05
61.7003
9.08812e-05
61.7008
0.000442486
61.7043
0.00217547
61.7217
0.0101719
61.8028
0.0486518
62.1746
0.244672
63.5867
1.63528
5.49494
68.7848
13.9787
-0.000460003
13.9788
-0.000330422
13.9788
-0.000315805
13.9789
-0.000319149
13.9789
-0.000319347
13.9789
-0.000319173
13.979
-0.000319201
13.979
-0.000319228
13.9791
-0.000319245
13.9791
-0.000319262
13.9792
-0.000319278
13.9792
-0.000319294
13.9793
-0.000319309
13.9793
-0.000319325
13.9793
-0.00031934
13.9794
-0.000319355
13.9794
-0.00031937
13.9795
-0.000319385
13.9795
-0.000319399
13.9796
-0.000319413
13.9796
-0.000319427
13.9796
-0.00031944
13.9797
-0.000319452
13.9797
-0.000319463
13.9798
-0.000319474
13.9798
-0.000319483
13.9798
-0.000319492
13.9799
-0.0003195
13.9799
-0.000319498
13.9799
-0.000319501
13.98
-0.000319468
13.98
-0.000319404
13.98
-0.00032001
13.98
-0.000319359
13.9801
-0.000319592
13.9801
-0.000319622
13.9801
-0.000319619
13.9802
-0.000319611
13.9802
-0.000319651
13.9802
-0.000320558
13.9803
-0.000319216
13.9804
-0.000319852
13.9804
-0.000319912
13.9805
-0.000319959
13.9805
-0.000320004
13.9805
-0.000320047
13.9805
-0.000320087
13.9806
-0.000320125
13.9806
-0.000320159
13.9806
-0.000320179