/*--------------------------------*- C++ -*----------------------------------*\
| =========                 |                                                 |
| \\      /  F ield         | OpenFOAM: The Open Source CFD Toolbox           |
|  \\    /   O peration     | Version:  3.0.x                                 |
|   \\  /    A nd           | Web:      www.OpenFOAM.org                      |
|    \\/     M anipulation  |                                                 |
\*---------------------------------------------------------------------------*/
FoamFile
{
    version     2.0;
    format      ascii;
    class       volScalarField;
    location    "0.37995";
    object      rho;
}
// * * * * * * * * * * * * * * * * * * * * * * * * * * * * * * * * * * * * * //

dimensions      [1 -3 0 0 0 0 0];

internalField   nonuniform List<scalar> 
13800
(
50.6096
50.6096
50.6096
50.6096
50.6096
50.6096
50.6096
50.6096
50.6096
50.6096
50.6096
50.6096
50.6096
50.6096
50.6096
50.6096
50.6096
50.6096
50.6096
50.6096
50.6096
50.6096
50.6096
50.6096
50.6096
50.6096
50.6096
50.6096
50.6096
50.6096
50.6096
50.6096
50.6095
50.6095
50.6094
50.6094
50.6093
50.6093
50.6093
50.6094
50.6096
50.6097
50.6098
50.6098
50.6099
50.6099
50.61
50.61
50.61
50.61
50.61
50.61
50.61
50.6099
50.6099
50.6098
50.6098
50.6098
50.6098
50.6099
50.61
50.6101
50.6102
50.6102
50.6102
50.6103
50.6103
50.6103
50.6103
50.6104
50.6105
50.6107
50.6108
50.6109
50.6109
50.611
50.6111
50.6112
50.6112
50.6112
50.6112
50.6113
50.6113
50.6112
50.6111
50.6111
50.6111
50.6111
50.6111
50.6111
50.6112
50.6113
50.6114
50.6115
50.6116
50.6117
50.6118
50.6118
50.6119
50.6119
50.6119
50.6119
50.612
50.612
50.612
50.612
50.612
50.612
50.6121
50.6121
50.6121
50.6121
50.6121
50.6121
50.6122
50.6122
50.6122
50.6122
50.6122
50.6122
50.6123
50.6123
50.6123
50.6123
50.6123
50.6123
50.6123
50.6124
50.6124
50.6124
50.6124
50.6124
50.6124
50.6124
50.6125
50.6125
50.6125
50.6125
50.6125
50.6125
50.6125
50.6125
50.6126
50.6126
50.6126
50.6126
50.6126
50.6126
50.6126
50.6126
50.6127
50.6127
50.6127
50.6127
50.6127
50.6127
50.6127
50.6127
50.6128
50.6128
50.6128
50.6128
50.6128
50.6128
50.6128
50.6128
50.6129
50.6129
50.6129
50.6129
50.6129
50.6129
50.6129
50.613
50.613
50.613
50.613
50.613
50.613
50.6131
50.6131
50.6131
50.6131
50.6131
50.6131
50.6132
50.6132
50.6132
50.6132
50.6132
50.6132
50.6133
50.6133
50.6133
50.6133
50.6134
50.6135
50.6137
50.6176
50.6086
50.6109
50.6109
50.6109
50.6109
50.6109
50.6109
50.6109
50.6109
50.6109
50.6109
50.6109
50.6109
50.6109
50.6109
50.6109
50.6109
50.6108
50.6108
50.6108
50.6108
50.6108
50.6108
50.6108
50.6108
50.6108
50.6108
50.6108
50.6108
50.6108
50.6108
50.6108
50.6107
50.6107
50.6106
50.6105
50.6105
50.6105
50.6105
50.6105
50.6105
50.6107
50.6108
50.6109
50.611
50.611
50.611
50.6111
50.6111
50.6111
50.6111
50.6111
50.6111
50.6111
50.611
50.6109
50.6109
50.6109
50.6109
50.6109
50.6109
50.611
50.6111
50.6112
50.6112
50.6113
50.6113
50.6113
50.6113
50.6113
50.6114
50.6115
50.6116
50.6117
50.6118
50.6119
50.612
50.612
50.6121
50.6122
50.6122
50.6122
50.6122
50.6122
50.6122
50.6121
50.612
50.612
50.612
50.612
50.612
50.6121
50.6122
50.6123
50.6124
50.6125
50.6126
50.6126
50.6127
50.6127
50.6128
50.6128
50.6128
50.6128
50.6128
50.6128
50.6129
50.6129
50.6129
50.6129
50.6129
50.6129
50.6129
50.6129
50.6129
50.613
50.613
50.613
50.613
50.613
50.613
50.6131
50.6131
50.6131
50.6131
50.6131
50.6131
50.6131
50.6132
50.6132
50.6132
50.6132
50.6132
50.6132
50.6133
50.6133
50.6133
50.6133
50.6133
50.6133
50.6133
50.6134
50.6134
50.6134
50.6134
50.6134
50.6134
50.6134
50.6134
50.6135
50.6135
50.6135
50.6135
50.6135
50.6135
50.6135
50.6135
50.6135
50.6136
50.6136
50.6136
50.6136
50.6136
50.6136
50.6136
50.6136
50.6137
50.6137
50.6137
50.6137
50.6137
50.6137
50.6137
50.6138
50.6138
50.6138
50.6138
50.6138
50.6138
50.6138
50.6139
50.6139
50.6139
50.6139
50.6139
50.614
50.614
50.614
50.614
50.614
50.614
50.6141
50.6141
50.6141
50.6141
50.6141
50.6142
50.6143
50.6144
50.6184
50.6058
50.6109
50.6109
50.6109
50.6109
50.6109
50.6109
50.6109
50.6109
50.6109
50.6109
50.6109
50.6109
50.6109
50.6109
50.6109
50.6109
50.6108
50.6108
50.6108
50.6108
50.6108
50.6108
50.6108
50.6108
50.6108
50.6108
50.6108
50.6108
50.6108
50.6108
50.6108
50.6107
50.6107
50.6106
50.6106
50.6105
50.6105
50.6105
50.6105
50.6105
50.6107
50.6108
50.6109
50.611
50.611
50.611
50.6111
50.6111
50.6111
50.6111
50.6111
50.6111
50.6111
50.611
50.6109
50.6109
50.6109
50.6109
50.6109
50.6109
50.611
50.6111
50.6112
50.6112
50.6113
50.6113
50.6113
50.6113
50.6113
50.6114
50.6115
50.6116
50.6117
50.6118
50.6119
50.612
50.6121
50.6121
50.6122
50.6122
50.6122
50.6122
50.6122
50.6122
50.6121
50.612
50.612
50.612
50.612
50.612
50.6121
50.6122
50.6123
50.6124
50.6125
50.6126
50.6126
50.6127
50.6127
50.6128
50.6128
50.6128
50.6128
50.6128
50.6128
50.6129
50.6129
50.6129
50.6129
50.6129
50.6129
50.6129
50.6129
50.6129
50.613
50.613
50.613
50.613
50.613
50.613
50.6131
50.6131
50.6131
50.6131
50.6131
50.6131
50.6131
50.6132
50.6132
50.6132
50.6132
50.6132
50.6132
50.6133
50.6133
50.6133
50.6133
50.6133
50.6133
50.6133
50.6134
50.6134
50.6134
50.6134
50.6134
50.6134
50.6134
50.6134
50.6135
50.6135
50.6135
50.6135
50.6135
50.6135
50.6135
50.6135
50.6135
50.6136
50.6136
50.6136
50.6136
50.6136
50.6136
50.6136
50.6136
50.6137
50.6137
50.6137
50.6137
50.6137
50.6137
50.6137
50.6138
50.6138
50.6138
50.6138
50.6138
50.6138
50.6138
50.6139
50.6139
50.6139
50.6139
50.6139
50.614
50.614
50.614
50.614
50.614
50.614
50.6141
50.6141
50.6141
50.6141
50.6141
50.6142
50.6143
50.6144
50.6184
50.6062
50.6109
50.6109
50.6109
50.6109
50.6109
50.6109
50.6109
50.6109
50.6109
50.6109
50.6109
50.6109
50.6109
50.6108
50.6108
50.6108
50.6108
50.6108
50.6108
50.6108
50.6108
50.6108
50.6108
50.6108
50.6108
50.6108
50.6108
50.6108
50.6108
50.6108
50.6108
50.6107
50.6107
50.6106
50.6105
50.6105
50.6105
50.6105
50.6105
50.6105
50.6107
50.6108
50.6109
50.6109
50.611
50.611
50.6111
50.6111
50.6111
50.6111
50.6111
50.6111
50.6111
50.611
50.6109
50.6109
50.6109
50.6109
50.6109
50.6109
50.611
50.6111
50.6112
50.6112
50.6113
50.6113
50.6113
50.6113
50.6113
50.6114
50.6115
50.6116
50.6117
50.6118
50.6119
50.612
50.612
50.6121
50.6122
50.6122
50.6122
50.6122
50.6122
50.6122
50.6121
50.612
50.612
50.612
50.612
50.612
50.6121
50.6122
50.6123
50.6124
50.6125
50.6126
50.6126
50.6127
50.6127
50.6128
50.6128
50.6128
50.6128
50.6128
50.6128
50.6129
50.6129
50.6129
50.6129
50.6129
50.6129
50.6129
50.6129
50.6129
50.613
50.613
50.613
50.613
50.613
50.613
50.6131
50.6131
50.6131
50.6131
50.6131
50.6131
50.6131
50.6132
50.6132
50.6132
50.6132
50.6132
50.6132
50.6133
50.6133
50.6133
50.6133
50.6133
50.6133
50.6133
50.6134
50.6134
50.6134
50.6134
50.6134
50.6134
50.6134
50.6134
50.6135
50.6135
50.6135
50.6135
50.6135
50.6135
50.6135
50.6135
50.6135
50.6136
50.6136
50.6136
50.6136
50.6136
50.6136
50.6136
50.6136
50.6137
50.6137
50.6137
50.6137
50.6137
50.6137
50.6137
50.6138
50.6138
50.6138
50.6138
50.6138
50.6138
50.6138
50.6139
50.6139
50.6139
50.6139
50.6139
50.614
50.614
50.614
50.614
50.614
50.614
50.6141
50.6141
50.6141
50.6141
50.6141
50.6142
50.6143
50.6145
50.6178
50.6101
50.6109
50.6109
50.6109
50.6109
50.6109
50.6109
50.6109
50.6109
50.6108
50.6108
50.6108
50.6108
50.6108
50.6108
50.6108
50.6108
50.6108
50.6108
50.6108
50.6108
50.6108
50.6108
50.6108
50.6108
50.6108
50.6108
50.6108
50.6108
50.6108
50.6108
50.6107
50.6107
50.6107
50.6106
50.6105
50.6105
50.6105
50.6105
50.6105
50.6105
50.6107
50.6108
50.6109
50.6109
50.611
50.611
50.6111
50.6111
50.6111
50.6111
50.6111
50.6111
50.6111
50.611
50.6109
50.6109
50.6109
50.6109
50.6109
50.6109
50.611
50.6111
50.6112
50.6112
50.6112
50.6113
50.6113
50.6113
50.6113
50.6114
50.6115
50.6116
50.6117
50.6118
50.6119
50.612
50.612
50.6121
50.6121
50.6122
50.6122
50.6122
50.6122
50.6122
50.6121
50.612
50.612
50.612
50.612
50.612
50.6121
50.6122
50.6123
50.6124
50.6125
50.6126
50.6126
50.6127
50.6127
50.6128
50.6128
50.6128
50.6128
50.6128
50.6128
50.6129
50.6129
50.6129
50.6129
50.6129
50.6129
50.6129
50.6129
50.6129
50.613
50.613
50.613
50.613
50.613
50.613
50.6131
50.6131
50.6131
50.6131
50.6131
50.6131
50.6131
50.6132
50.6132
50.6132
50.6132
50.6132
50.6132
50.6133
50.6133
50.6133
50.6133
50.6133
50.6133
50.6133
50.6134
50.6134
50.6134
50.6134
50.6134
50.6134
50.6134
50.6134
50.6135
50.6135
50.6135
50.6135
50.6135
50.6135
50.6135
50.6135
50.6135
50.6136
50.6136
50.6136
50.6136
50.6136
50.6136
50.6136
50.6136
50.6137
50.6137
50.6137
50.6137
50.6137
50.6137
50.6137
50.6138
50.6138
50.6138
50.6138
50.6138
50.6138
50.6138
50.6139
50.6139
50.6139
50.6139
50.6139
50.614
50.614
50.614
50.614
50.614
50.614
50.6141
50.6141
50.6141
50.6141
50.6141
50.6142
50.6142
50.6142
50.6159
50.6082
50.6109
50.6109
50.6109
50.6109
50.6109
50.6109
50.6109
50.6109
50.6108
50.6108
50.6108
50.6108
50.6108
50.6108
50.6108
50.6108
50.6108
50.6108
50.6108
50.6108
50.6108
50.6108
50.6108
50.6108
50.6108
50.6108
50.6108
50.6108
50.6108
50.6108
50.6107
50.6107
50.6107
50.6106
50.6105
50.6105
50.6105
50.6105
50.6105
50.6105
50.6107
50.6108
50.6109
50.6109
50.611
50.611
50.6111
50.6111
50.6111
50.6111
50.6111
50.6111
50.6111
50.611
50.6109
50.6109
50.6109
50.6109
50.6109
50.6109
50.611
50.6111
50.6112
50.6112
50.6112
50.6113
50.6113
50.6113
50.6113
50.6114
50.6115
50.6116
50.6117
50.6118
50.6119
50.612
50.612
50.6121
50.6121
50.6122
50.6122
50.6122
50.6122
50.6122
50.6121
50.612
50.612
50.612
50.612
50.612
50.6121
50.6122
50.6123
50.6124
50.6125
50.6126
50.6126
50.6127
50.6127
50.6128
50.6128
50.6128
50.6128
50.6128
50.6128
50.6129
50.6129
50.6129
50.6129
50.6129
50.6129
50.6129
50.6129
50.6129
50.613
50.613
50.613
50.613
50.613
50.613
50.6131
50.6131
50.6131
50.6131
50.6131
50.6131
50.6131
50.6132
50.6132
50.6132
50.6132
50.6132
50.6132
50.6133
50.6133
50.6133
50.6133
50.6133
50.6133
50.6133
50.6134
50.6134
50.6134
50.6134
50.6134
50.6134
50.6134
50.6134
50.6135
50.6135
50.6135
50.6135
50.6135
50.6135
50.6135
50.6135
50.6135
50.6136
50.6136
50.6136
50.6136
50.6136
50.6136
50.6136
50.6136
50.6137
50.6137
50.6137
50.6137
50.6137
50.6137
50.6137
50.6138
50.6138
50.6138
50.6138
50.6138
50.6138
50.6138
50.6139
50.6139
50.6139
50.6139
50.6139
50.614
50.614
50.614
50.614
50.614
50.614
50.6141
50.6141
50.6141
50.6141
50.6141
50.6141
50.6141
50.614
50.6133
50.6115
50.6109
50.6109
50.6109
50.6109
50.6109
50.6109
50.6109
50.6109
50.6109
50.6109
50.6109
50.6109
50.6109
50.6108
50.6108
50.6108
50.6108
50.6108
50.6108
50.6108
50.6108
50.6108
50.6108
50.6108
50.6108
50.6108
50.6108
50.6108
50.6108
50.6108
50.6108
50.6107
50.6107
50.6106
50.6105
50.6105
50.6105
50.6105
50.6105
50.6105
50.6107
50.6108
50.6109
50.6109
50.611
50.611
50.6111
50.6111
50.6111
50.6111
50.6111
50.6111
50.6111
50.611
50.6109
50.6109
50.6109
50.6109
50.6109
50.6109
50.611
50.6111
50.6112
50.6112
50.6113
50.6113
50.6113
50.6113
50.6113
50.6114
50.6115
50.6116
50.6117
50.6118
50.6119
50.612
50.612
50.6121
50.6122
50.6122
50.6122
50.6122
50.6122
50.6122
50.6121
50.612
50.612
50.612
50.612
50.612
50.6121
50.6122
50.6123
50.6124
50.6125
50.6126
50.6126
50.6127
50.6127
50.6128
50.6128
50.6128
50.6128
50.6128
50.6128
50.6129
50.6129
50.6129
50.6129
50.6129
50.6129
50.6129
50.6129
50.6129
50.613
50.613
50.613
50.613
50.613
50.613
50.6131
50.6131
50.6131
50.6131
50.6131
50.6131
50.6131
50.6132
50.6132
50.6132
50.6132
50.6132
50.6132
50.6133
50.6133
50.6133
50.6133
50.6133
50.6133
50.6133
50.6134
50.6134
50.6134
50.6134
50.6134
50.6134
50.6134
50.6134
50.6135
50.6135
50.6135
50.6135
50.6135
50.6135
50.6135
50.6135
50.6135
50.6136
50.6136
50.6136
50.6136
50.6136
50.6136
50.6136
50.6136
50.6137
50.6137
50.6137
50.6137
50.6137
50.6137
50.6137
50.6138
50.6138
50.6138
50.6138
50.6138
50.6138
50.6138
50.6139
50.6139
50.6139
50.6139
50.6139
50.614
50.614
50.614
50.614
50.614
50.614
50.6141
50.6141
50.6141
50.6141
50.6141
50.6141
50.614
50.614
50.6102
50.6221
50.6109
50.6109
50.6109
50.6109
50.6109
50.6109
50.6109
50.6109
50.6109
50.6109
50.6109
50.6109
50.6109
50.6109
50.6109
50.6109
50.6108
50.6108
50.6108
50.6108
50.6108
50.6108
50.6108
50.6108
50.6108
50.6108
50.6108
50.6108
50.6108
50.6108
50.6108
50.6107
50.6107
50.6106
50.6106
50.6105
50.6105
50.6105
50.6105
50.6105
50.6107
50.6108
50.6109
50.611
50.611
50.611
50.6111
50.6111
50.6111
50.6111
50.6111
50.6111
50.6111
50.611
50.6109
50.6109
50.6109
50.6109
50.6109
50.6109
50.611
50.6111
50.6112
50.6112
50.6113
50.6113
50.6113
50.6113
50.6113
50.6114
50.6115
50.6116
50.6117
50.6118
50.6119
50.612
50.6121
50.6121
50.6122
50.6122
50.6122
50.6122
50.6122
50.6122
50.6121
50.612
50.612
50.612
50.612
50.612
50.6121
50.6122
50.6123
50.6124
50.6125
50.6126
50.6126
50.6127
50.6127
50.6128
50.6128
50.6128
50.6128
50.6128
50.6128
50.6129
50.6129
50.6129
50.6129
50.6129
50.6129
50.6129
50.6129
50.6129
50.613
50.613
50.613
50.613
50.613
50.613
50.6131
50.6131
50.6131
50.6131
50.6131
50.6131
50.6131
50.6132
50.6132
50.6132
50.6132
50.6132
50.6132
50.6133
50.6133
50.6133
50.6133
50.6133
50.6133
50.6133
50.6134
50.6134
50.6134
50.6134
50.6134
50.6134
50.6134
50.6134
50.6135
50.6135
50.6135
50.6135
50.6135
50.6135
50.6135
50.6135
50.6135
50.6136
50.6136
50.6136
50.6136
50.6136
50.6136
50.6136
50.6136
50.6137
50.6137
50.6137
50.6137
50.6137
50.6137
50.6137
50.6138
50.6138
50.6138
50.6138
50.6138
50.6138
50.6138
50.6139
50.6139
50.6139
50.6139
50.6139
50.614
50.614
50.614
50.614
50.614
50.614
50.6141
50.6141
50.6141
50.6141
50.6141
50.6141
50.614
50.6145
50.6072
50.6512
50.6109
50.6109
50.6109
50.6109
50.6109
50.6109
50.6109
50.6109
50.6109
50.6109
50.6109
50.6109
50.6109
50.6109
50.6109
50.6109
50.6108
50.6108
50.6108
50.6108
50.6108
50.6108
50.6108
50.6108
50.6108
50.6108
50.6108
50.6108
50.6108
50.6108
50.6108
50.6107
50.6107
50.6106
50.6105
50.6105
50.6105
50.6105
50.6105
50.6105
50.6107
50.6108
50.6109
50.611
50.611
50.611
50.6111
50.6111
50.6111
50.6111
50.6111
50.6111
50.6111
50.611
50.6109
50.6109
50.6109
50.6109
50.6109
50.6109
50.611
50.6111
50.6112
50.6112
50.6113
50.6113
50.6113
50.6113
50.6113
50.6114
50.6115
50.6116
50.6117
50.6118
50.6119
50.612
50.612
50.6121
50.6122
50.6122
50.6122
50.6122
50.6122
50.6122
50.6121
50.612
50.612
50.612
50.612
50.612
50.6121
50.6122
50.6123
50.6124
50.6125
50.6126
50.6126
50.6127
50.6127
50.6128
50.6128
50.6128
50.6128
50.6128
50.6128
50.6129
50.6129
50.6129
50.6129
50.6129
50.6129
50.6129
50.6129
50.6129
50.613
50.613
50.613
50.613
50.613
50.613
50.6131
50.6131
50.6131
50.6131
50.6131
50.6131
50.6131
50.6132
50.6132
50.6132
50.6132
50.6132
50.6132
50.6133
50.6133
50.6133
50.6133
50.6133
50.6133
50.6133
50.6134
50.6134
50.6134
50.6134
50.6134
50.6134
50.6134
50.6134
50.6135
50.6135
50.6135
50.6135
50.6135
50.6135
50.6135
50.6135
50.6135
50.6136
50.6136
50.6136
50.6136
50.6136
50.6136
50.6136
50.6136
50.6137
50.6137
50.6137
50.6137
50.6137
50.6137
50.6137
50.6138
50.6138
50.6138
50.6138
50.6138
50.6138
50.6138
50.6139
50.6139
50.6139
50.6139
50.6139
50.614
50.614
50.614
50.614
50.614
50.614
50.6141
50.6141
50.6141
50.6141
50.6141
50.6141
50.614
50.6147
50.6054
50.6666
50.6096
50.6096
50.6096
50.6096
50.6096
50.6096
50.6096
50.6096
50.6096
50.6096
50.6096
50.6096
50.6096
50.6096
50.6096
50.6096
50.6096
50.6096
50.6096
50.6096
50.6096
50.6096
50.6096
50.6096
50.6096
50.6096
50.6096
50.6096
50.6096
50.6096
50.6096
50.6096
50.6095
50.6095
50.6094
50.6094
50.6093
50.6093
50.6093
50.6094
50.6096
50.6097
50.6098
50.6098
50.6099
50.6099
50.61
50.61
50.61
50.61
50.61
50.61
50.61
50.6099
50.6099
50.6098
50.6098
50.6098
50.6098
50.6099
50.61
50.6101
50.6102
50.6102
50.6102
50.6103
50.6103
50.6103
50.6103
50.6104
50.6105
50.6107
50.6108
50.6109
50.6109
50.611
50.6111
50.6112
50.6112
50.6112
50.6112
50.6113
50.6113
50.6112
50.6111
50.6111
50.6111
50.6111
50.6111
50.6111
50.6112
50.6113
50.6114
50.6115
50.6116
50.6117
50.6118
50.6118
50.6119
50.6119
50.6119
50.6119
50.612
50.612
50.612
50.612
50.612
50.612
50.6121
50.6121
50.6121
50.6121
50.6121
50.6121
50.6122
50.6122
50.6122
50.6122
50.6122
50.6122
50.6123
50.6123
50.6123
50.6123
50.6123
50.6123
50.6123
50.6124
50.6124
50.6124
50.6124
50.6124
50.6124
50.6124
50.6125
50.6125
50.6125
50.6125
50.6125
50.6125
50.6125
50.6125
50.6126
50.6126
50.6126
50.6126
50.6126
50.6126
50.6126
50.6126
50.6127
50.6127
50.6127
50.6127
50.6127
50.6127
50.6127
50.6127
50.6128
50.6128
50.6128
50.6128
50.6128
50.6128
50.6128
50.6128
50.6129
50.6129
50.6129
50.6129
50.6129
50.6129
50.6129
50.613
50.613
50.613
50.613
50.613
50.613
50.6131
50.6131
50.6131
50.6131
50.6131
50.6131
50.6132
50.6132
50.6132
50.6132
50.6132
50.6132
50.6133
50.6133
50.6133
50.6133
50.6133
50.6132
50.614
50.6031
50.6798
50.7038
50.7431
50.7562
50.7579
50.7575
50.7572
50.7566
50.7554
50.7538
50.752
50.7501
50.7481
50.7458
50.7431
50.7398
50.7357
50.7302
50.7227
50.7124
50.6964
50.6985
50.7333
50.7469
50.7493
50.7492
50.7492
50.7488
50.748
50.7465
50.7451
50.7433
50.7416
50.7393
50.7369
50.7336
50.7296
50.7239
50.7165
50.7059
50.6898
50.6931
50.7281
50.7436
50.7469
50.747
50.747
50.7466
50.7456
50.744
50.7424
50.7406
50.7387
50.7364
50.7339
50.7306
50.7265
50.7207
50.7128
50.7015
50.6841
50.6748
50.6945
50.7008
50.7002
50.6989
50.698
50.6969
50.6954
50.6936
50.6917
50.6896
50.6874
50.6849
50.6819
50.6782
50.6736
50.6685
50.661
50.6511
50.637
50.6437
50.6561
50.6654
50.6721
50.6768
50.6797
50.681
50.6815
50.6813
50.6806
50.6794
50.6775
50.6751
50.6719
50.6679
50.6629
50.6562
50.6486
50.6398
50.6293
50.5908
50.5811
50.5708
50.56
50.5501
50.5417
50.5354
50.5304
50.5261
50.5225
50.5197
50.5177
50.5159
50.5147
50.5132
50.5121
50.5115
50.5123
50.5132
50.5171
50.5323
50.5108
50.5036
50.5043
50.5058
50.5067
50.507
50.5078
50.5081
50.5086
50.5086
50.5087
50.5084
50.5084
50.5082
50.5091
50.5104
50.5137
50.5196
50.5304
50.4628
50.4056
50.3623
50.3331
50.3131
50.2977
50.2857
50.277
50.2711
50.2676
50.2659
50.266
50.2679
50.2721
50.2801
50.2903
50.306
50.3237
50.3497
50.3813
50.448
50.3859
50.3473
50.3254
50.3106
50.2995
50.2905
50.2847
50.2811
50.28
50.2801
50.282
50.2854
50.2909
50.2992
50.3105
50.3253
50.3431
50.3668
50.3968
50.4293
50.3427
50.2942
50.2658
50.2467
50.2305
50.2172
50.2073
50.2016
50.1963
50.1944
50.1933
50.1956
50.1991
50.207
50.2184
50.2336
50.2536
50.2798
50.3155
50.6273
50.5874
50.5764
50.5733
50.5723
50.5719
50.5719
50.5718
50.5719
50.5719
50.5719
50.5719
50.572
50.572
50.5721
50.5721
50.5721
50.5721
50.5721
50.5721
50.5721
50.5722
50.5722
50.5722
50.5722
50.5722
50.5722
50.5722
50.5722
50.5722
50.5722
50.5722
50.5722
50.5721
50.5721
50.5721
50.5721
50.5722
50.5722
50.5722
50.5723
50.5723
50.5723
50.5723
50.5723
50.5723
50.5723
50.5723
50.5723
50.5723
50.5723
50.5723
50.5724
50.5724
50.5724
50.5724
50.5725
50.5725
50.5725
50.5725
50.5725
50.5725
50.5726
50.5726
50.5726
50.5727
50.5727
50.5728
50.5728
50.5728
50.5728
50.5728
50.5728
50.5728
50.5728
50.5729
50.5729
50.573
50.573
50.5731
50.5732
50.5732
50.5733
50.5733
50.5733
50.5734
50.5734
50.5735
50.5736
50.5736
50.5737
50.5737
50.5738
50.5739
50.5739
50.5739
50.5739
50.574
50.574
50.5741
50.5741
50.5742
50.5743
50.5744
50.5745
50.5745
50.5746
50.5747
50.5748
50.5749
50.575
50.5752
50.5753
50.5755
50.5757
50.5759
50.5762
50.5765
50.5767
50.577
50.5773
50.5776
50.5779
50.5783
50.5788
50.5796
50.5805
50.5813
50.5822
50.583
50.5837
50.5843
50.5849
50.5855
50.586
50.5864
50.5862
50.5838
50.5738
50.5455
50.5088
50.4729
50.4401
50.4123
50.3907
50.3758
50.3673
50.3642
50.3646
50.3675
50.3797
50.4141
50.4555
50.4923
50.5235
50.5487
50.5684
50.5832
50.594
50.6016
50.607
50.6108
50.6135
50.6155
50.6173
50.6191
50.6205
50.6218
50.6233
50.6248
50.6264
50.6282
50.63
50.6319
50.6339
50.6359
50.638
50.6402
50.6425
50.6448
50.6472
50.6496
50.6521
50.6547
50.6573
50.66
50.6627
50.6656
50.6684
50.6714
50.6743
50.6774
50.6805
50.6836
50.6869
50.6901
50.6928
50.6965
50.6906
50.7479
50.6273
50.5899
50.5792
50.5764
50.5755
50.5752
50.5751
50.5751
50.5751
50.5751
50.5752
50.5752
50.5752
50.5753
50.5753
50.5754
50.5754
50.5754
50.5754
50.5754
50.5755
50.5755
50.5755
50.5755
50.5755
50.5755
50.5755
50.5755
50.5755
50.5755
50.5755
50.5755
50.5755
50.5755
50.5755
50.5755
50.5755
50.5755
50.5755
50.5755
50.5756
50.5756
50.5757
50.5757
50.5757
50.5757
50.5757
50.5757
50.5757
50.5757
50.5757
50.5757
50.5757
50.5757
50.5758
50.5758
50.5759
50.5759
50.5759
50.5759
50.5759
50.5759
50.5759
50.576
50.576
50.5761
50.5761
50.5762
50.5762
50.5763
50.5763
50.5763
50.5763
50.5763
50.5763
50.5763
50.5764
50.5764
50.5765
50.5765
50.5766
50.5766
50.5767
50.5767
50.5768
50.5769
50.5769
50.577
50.577
50.5771
50.5771
50.5772
50.5772
50.5773
50.5774
50.5774
50.5775
50.5775
50.5775
50.5776
50.5776
50.5777
50.5777
50.5778
50.5779
50.578
50.5781
50.5782
50.5783
50.5784
50.5785
50.5786
50.5787
50.5789
50.5791
50.5792
50.5795
50.5797
50.5799
50.5801
50.5804
50.5807
50.581
50.5814
50.5819
50.5824
50.5829
50.5835
50.584
50.5845
50.585
50.5855
50.5861
50.5868
50.5881
50.5908
50.5942
50.5976
50.6008
50.6035
50.6056
50.607
50.6079
50.6087
50.609
50.6073
50.6004
50.5912
50.5831
50.5767
50.5724
50.5701
50.5696
50.5704
50.572
50.5755
50.5827
50.59
50.5963
50.6016
50.6059
50.6093
50.6123
50.6147
50.6167
50.6186
50.6204
50.6221
50.6238
50.6255
50.6272
50.629
50.6308
50.6327
50.6347
50.6367
50.6388
50.641
50.6433
50.6456
50.648
50.6504
50.6529
50.6555
50.6581
50.6608
50.6635
50.6664
50.6692
50.6722
50.6751
50.6782
50.6814
50.6844
50.6877
50.6909
50.6936
50.6972
50.6925
50.7389
50.6272
50.591
50.5797
50.5763
50.5751
50.5746
50.5745
50.5745
50.5745
50.5745
50.5745
50.5745
50.5745
50.5746
50.5746
50.5747
50.5747
50.5747
50.5747
50.5748
50.5748
50.5748
50.5748
50.5748
50.5748
50.5748
50.5748
50.5748
50.5748
50.5748
50.5748
50.5749
50.5749
50.5748
50.5748
50.5748
50.5748
50.5748
50.5748
50.5749
50.5749
50.5749
50.575
50.575
50.575
50.575
50.575
50.575
50.575
50.575
50.575
50.575
50.575
50.5751
50.5751
50.5751
50.5752
50.5752
50.5752
50.5752
50.5752
50.5752
50.5753
50.5753
50.5753
50.5754
50.5754
50.5755
50.5755
50.5756
50.5756
50.5756
50.5756
50.5756
50.5756
50.5757
50.5757
50.5757
50.5758
50.5758
50.5759
50.5759
50.576
50.5761
50.5761
50.5762
50.5762
50.5763
50.5763
50.5764
50.5765
50.5765
50.5766
50.5766
50.5767
50.5768
50.5768
50.5768
50.5769
50.5769
50.577
50.577
50.5771
50.5772
50.5773
50.5774
50.5775
50.5776
50.5777
50.5778
50.5779
50.578
50.5781
50.5783
50.5784
50.5786
50.5788
50.579
50.5792
50.5794
50.5797
50.58
50.5803
50.5806
50.581
50.5815
50.5821
50.5827
50.5832
50.5837
50.5842
50.5847
50.5852
50.5859
50.5868
50.5885
50.5925
50.5977
50.6026
50.6071
50.6108
50.6138
50.6158
50.6171
50.6181
50.6188
50.6189
50.6168
50.6111
50.6053
50.6005
50.5968
50.5945
50.5934
50.5933
50.5941
50.5954
50.5972
50.6002
50.6037
50.6069
50.6096
50.6121
50.6144
50.6163
50.6182
50.62
50.6218
50.6235
50.6253
50.627
50.6288
50.6307
50.6326
50.6346
50.6367
50.6388
50.641
50.6432
50.6456
50.648
50.6504
50.6529
50.6555
50.6581
50.6608
50.6635
50.6664
50.6692
50.6722
50.6751
50.6782
50.6814
50.6844
50.6877
50.6909
50.6937
50.697
50.6939
50.7253
50.5976
50.5724
50.5658
50.5656
50.5662
50.5666
50.5669
50.5671
50.5672
50.5672
50.5673
50.5673
50.5673
50.5673
50.5674
50.5674
50.5675
50.5675
50.5675
50.5675
50.5676
50.5676
50.5676
50.5676
50.5676
50.5676
50.5676
50.5676
50.5676
50.5676
50.5676
50.5676
50.5677
50.5676
50.5676
50.5676
50.5676
50.5676
50.5676
50.5676
50.5677
50.5677
50.5678
50.5678
50.5678
50.5678
50.5678
50.5678
50.5678
50.5678
50.5678
50.5678
50.5678
50.5678
50.5679
50.5679
50.568
50.568
50.568
50.568
50.5681
50.5681
50.5681
50.5681
50.5682
50.5682
50.5683
50.5683
50.5684
50.5684
50.5684
50.5684
50.5684
50.5684
50.5685
50.5685
50.5685
50.5686
50.5686
50.5687
50.5687
50.5688
50.5688
50.5689
50.569
50.569
50.5691
50.5691
50.5692
50.5692
50.5693
50.5694
50.5694
50.5694
50.5695
50.5695
50.5695
50.5696
50.5696
50.5697
50.5698
50.5699
50.5699
50.57
50.5701
50.5702
50.5703
50.5704
50.5705
50.5706
50.5707
50.5709
50.5711
50.5713
50.5715
50.5717
50.572
50.5722
50.5725
50.5727
50.5731
50.5735
50.574
50.5747
50.5753
50.576
50.5765
50.577
50.5775
50.578
50.5785
50.5791
50.58
50.5817
50.5843
50.587
50.5896
50.592
50.5942
50.596
50.5975
50.5986
50.5995
50.6003
50.601
50.6012
50.6003
50.5991
50.5981
50.5975
50.5973
50.5975
50.598
50.5987
50.5997
50.601
50.6024
50.6041
50.606
50.6078
50.6096
50.6113
50.6129
50.6146
50.6162
50.6178
50.6195
50.6212
50.6229
50.6246
50.6264
50.6283
50.6302
50.6322
50.6343
50.6364
50.6386
50.6408
50.6431
50.6454
50.6478
50.6503
50.6528
50.6554
50.6581
50.6608
50.6635
50.6663
50.6692
50.6721
50.6751
50.6782
50.6814
50.6844
50.6877
50.6909
50.6938
50.6966
50.696
50.7021
50.6043
50.5943
50.5884
50.5829
50.5794
50.5777
50.5769
50.5766
50.5764
50.5763
50.5763
50.5762
50.5762
50.5762
50.5762
50.5762
50.5763
50.5763
50.5763
50.5763
50.5764
50.5764
50.5764
50.5764
50.5764
50.5764
50.5764
50.5765
50.5765
50.5765
50.5765
50.5765
50.5765
50.5765
50.5765
50.5765
50.5765
50.5765
50.5765
50.5765
50.5765
50.5765
50.5765
50.5766
50.5766
50.5766
50.5766
50.5767
50.5767
50.5767
50.5767
50.5767
50.5767
50.5767
50.5767
50.5767
50.5767
50.5768
50.5768
50.5768
50.5768
50.5769
50.5769
50.5769
50.5769
50.577
50.577
50.577
50.5771
50.5771
50.5772
50.5772
50.5772
50.5773
50.5773
50.5774
50.5774
50.5774
50.5775
50.5775
50.5775
50.5775
50.5776
50.5776
50.5777
50.5777
50.5778
50.5778
50.5779
50.5779
50.578
50.578
50.5781
50.5781
50.5782
50.5783
50.5783
50.5784
50.5784
50.5785
50.5785
50.5786
50.5786
50.5787
50.5788
50.5788
50.5789
50.579
50.5791
50.5792
50.5793
50.5794
50.5795
50.5796
50.5797
50.5799
50.58
50.5802
50.5804
50.5805
50.5807
50.5809
50.5811
50.5813
50.5815
50.5818
50.5822
50.5826
50.583
50.5834
50.5839
50.5843
50.5848
50.5853
50.5858
50.5864
50.5871
50.5881
50.5894
50.5907
50.5919
50.593
50.594
50.5948
50.5957
50.5965
50.5971
50.5975
50.598
50.5986
50.5992
50.5999
50.6008
50.6017
50.6027
50.6038
50.605
50.6062
50.6075
50.6088
50.6101
50.6115
50.613
50.6144
50.616
50.6175
50.6192
50.6208
50.6226
50.6243
50.6262
50.6281
50.6301
50.6321
50.6341
50.6363
50.6385
50.6407
50.643
50.6454
50.6478
50.6503
50.6528
50.6554
50.658
50.6607
50.6635
50.6663
50.6692
50.6721
50.6751
50.6782
50.6813
50.6845
50.6876
50.691
50.6942
50.6971
50.6997
50.6997
50.5249
50.5352
50.5412
50.5462
50.5493
50.551
50.5517
50.5521
50.5523
50.5524
50.5524
50.5524
50.5524
50.5524
50.5524
50.5524
50.5524
50.5525
50.5525
50.5526
50.5526
50.5527
50.5527
50.5527
50.5527
50.5527
50.5527
50.5527
50.5528
50.5528
50.5528
50.5528
50.5528
50.5528
50.5528
50.5527
50.5527
50.5527
50.5527
50.5528
50.5528
50.5528
50.5529
50.5529
50.5529
50.553
50.553
50.553
50.553
50.553
50.553
50.553
50.553
50.5531
50.5531
50.5532
50.5532
50.5532
50.5533
50.5533
50.5533
50.5534
50.5534
50.5534
50.5535
50.5536
50.5536
50.5536
50.5537
50.5537
50.5537
50.5537
50.5537
50.5537
50.5538
50.5538
50.5539
50.554
50.554
50.5541
50.5542
50.5542
50.5543
50.5543
50.5544
50.5544
50.5545
50.5546
50.5547
50.5548
50.5548
50.5549
50.555
50.5551
50.5552
50.5552
50.5553
50.5554
50.5556
50.5558
50.5559
50.5561
50.5563
50.5565
50.5568
50.5571
50.5575
50.5578
50.5582
50.5586
50.5589
50.5593
50.5596
50.5601
50.5606
50.5611
50.5618
50.5626
50.5633
50.5642
50.565
50.5658
50.5665
50.5671
50.5676
50.568
50.5685
50.569
50.5697
50.5708
50.5726
50.5747
50.577
50.5794
50.5817
50.5841
50.5863
50.5884
50.5903
50.592
50.5936
50.595
50.5961
50.5971
50.598
50.5989
50.5996
50.5999
50.6
50.6001
50.6003
50.6005
50.601
50.6016
50.6023
50.6032
50.6042
50.6053
50.6064
50.6077
50.609
50.6104
50.6119
50.6135
50.615
50.6167
50.6184
50.6201
50.622
50.6238
50.6257
50.6277
50.6297
50.6318
50.6339
50.6361
50.6383
50.6406
50.6429
50.6453
50.6477
50.6502
50.6527
50.6553
50.658
50.6607
50.6635
50.6663
50.6692
50.6721
50.6751
50.6782
50.6813
50.6844
50.6878
50.6909
50.6946
50.698
50.7036
50.7032
50.5671
50.589
50.5923
50.5903
50.5888
50.5881
50.5877
50.5874
50.5873
50.5873
50.5873
50.5873
50.5873
50.5873
50.5873
50.5873
50.5872
50.5872
50.5872
50.5873
50.5873
50.5873
50.5873
50.5874
50.5874
50.5874
50.5874
50.5874
50.5874
50.5874
50.5874
50.5874
50.5874
50.5874
50.5874
50.5874
50.5875
50.5875
50.5875
50.5875
50.5875
50.5875
50.5875
50.5875
50.5875
50.5875
50.5875
50.5875
50.5875
50.5875
50.5876
50.5876
50.5876
50.5877
50.5877
50.5877
50.5877
50.5877
50.5877
50.5877
50.5877
50.5877
50.5877
50.5877
50.5877
50.5878
50.5878
50.5879
50.5879
50.5879
50.5879
50.588
50.588
50.588
50.588
50.588
50.5881
50.5881
50.5881
50.5882
50.5882
50.5883
50.5883
50.5884
50.5885
50.5885
50.5886
50.5886
50.5886
50.5886
50.5887
50.5887
50.5887
50.5888
50.5889
50.5889
50.589
50.5891
50.5891
50.5892
50.5893
50.5893
50.5894
50.5895
50.5895
50.5896
50.5897
50.5898
50.59
50.5901
50.5902
50.5904
50.5906
50.5908
50.591
50.5911
50.5913
50.5915
50.5917
50.5919
50.592
50.5922
50.5924
50.5927
50.593
50.5933
50.5936
50.5938
50.5941
50.5943
50.5945
50.5948
50.5952
50.5957
50.596
50.5961
50.5961
50.5961
50.5962
50.5964
50.597
50.5977
50.5985
50.5998
50.6019
50.604
50.6056
50.6068
50.6079
50.6088
50.6093
50.6088
50.608
50.6073
50.607
50.6069
50.6071
50.6076
50.6082
50.6091
50.6101
50.6113
50.6125
50.6139
50.6154
50.6169
50.6186
50.6203
50.622
50.6239
50.6258
50.6277
50.6297
50.6318
50.6339
50.636
50.6383
50.6405
50.6429
50.6453
50.6477
50.6502
50.6527
50.6553
50.658
50.6607
50.6635
50.6663
50.6692
50.6721
50.6751
50.6782
50.6813
50.6844
50.6878
50.691
50.6948
50.6989
50.7066
50.7092
50.4906
50.5361
50.5481
50.552
50.5529
50.5531
50.5532
50.5531
50.5531
50.5531
50.5531
50.5531
50.5531
50.5531
50.553
50.553
50.553
50.553
50.553
50.5531
50.5532
50.5532
50.5533
50.5533
50.5533
50.5533
50.5534
50.5534
50.5534
50.5534
50.5535
50.5535
50.5535
50.5535
50.5535
50.5535
50.5535
50.5534
50.5534
50.5534
50.5534
50.5534
50.5535
50.5536
50.5536
50.5536
50.5537
50.5537
50.5536
50.5536
50.5536
50.5536
50.5536
50.5537
50.5538
50.5538
50.5539
50.5539
50.554
50.554
50.5541
50.5541
50.5542
50.5543
50.5544
50.5545
50.5547
50.5548
50.5549
50.5551
50.5551
50.5552
50.5553
50.5553
50.5554
50.5555
50.5556
50.5558
50.5559
50.556
50.5561
50.5562
50.5563
50.5563
50.5564
50.5565
50.5566
50.5567
50.5567
50.5568
50.5569
50.5569
50.557
50.557
50.557
50.557