/*--------------------------------*- C++ -*----------------------------------*\
| =========                 |                                                 |
| \\      /  F ield         | OpenFOAM: The Open Source CFD Toolbox           |
|  \\    /   O peration     | Version:  3.0.x                                 |
|   \\  /    A nd           | Web:      www.OpenFOAM.org                      |
|    \\/     M anipulation  |                                                 |
\*---------------------------------------------------------------------------*/
FoamFile
{
    version     2.0;
    format      ascii;
    class       volVectorField;
    location    "0.37995";
    object      U;
}
// * * * * * * * * * * * * * * * * * * * * * * * * * * * * * * * * * * * * * //

dimensions      [0 1 -1 0 0 0 0];

internalField   nonuniform List<vector> 
13800
(
(76.1963 0.000140776 0)
(76.1927 0.000123048 0)
(76.1891 0.000121883 0)
(76.1854 0.000124066 0)
(76.1818 0.000125943 0)
(76.1781 0.000127508 0)
(76.1745 0.000128831 0)
(76.1708 0.000129926 0)
(76.1672 0.000130838 0)
(76.1635 0.000131602 0)
(76.1599 0.000132247 0)
(76.1562 0.000132794 0)
(76.1526 0.000133261 0)
(76.1489 0.000133662 0)
(76.1452 0.000134007 0)
(76.1416 0.000134306 0)
(76.1379 0.000134564 0)
(76.1343 0.000134789 0)
(76.1306 0.000134984 0)
(76.1269 0.000135155 0)
(76.1233 0.000135304 0)
(76.1196 0.000135433 0)
(76.116 0.000135547 0)
(76.1123 0.000135645 0)
(76.1086 0.000135731 0)
(76.105 0.000135806 0)
(76.1013 0.00013587 0)
(76.0976 0.000135926 0)
(76.094 0.000135971 0)
(76.0903 0.00013601 0)
(76.0866 0.000136037 0)
(76.0829 0.000136052 0)
(76.0792 0.000136228 0)
(76.0755 0.000136096 0)
(76.0718 0.000136165 0)
(76.0681 0.000136188 0)
(76.0644 0.0001362 0)
(76.0607 0.000136208 0)
(76.057 0.000136232 0)
(76.0532 0.000136463 0)
(76.0495 0.000136149 0)
(76.0458 0.000136303 0)
(76.042 0.000136322 0)
(76.0383 0.000136337 0)
(76.0345 0.000136349 0)
(76.0307 0.00013636 0)
(76.0269 0.000136369 0)
(76.0231 0.000136375 0)
(76.0193 0.000136379 0)
(76.0155 0.000136379 0)
(76.0117 0.00013638 0)
(76.0079 0.000136373 0)
(76.004 0.00013637 0)
(76.0002 0.000136412 0)
(75.9963 0.000136383 0)
(75.9925 0.000136378 0)
(75.9886 0.000136374 0)
(75.9847 0.000136336 0)
(75.9808 0.000136351 0)
(75.9769 0.000136604 0)
(75.9731 0.000136219 0)
(75.9692 0.000136376 0)
(75.9653 0.000136385 0)
(75.9614 0.00013639 0)
(75.9575 0.000136396 0)
(75.9535 0.000136402 0)
(75.9496 0.000136407 0)
(75.9457 0.000136382 0)
(75.9418 0.000136405 0)
(75.9379 0.000136493 0)
(75.9339 0.000136424 0)
(75.93 0.000136436 0)
(75.9261 0.000136444 0)
(75.9221 0.000136449 0)
(75.9182 0.000136454 0)
(75.9142 0.000136457 0)
(75.9103 0.000136458 0)
(75.9063 0.000136457 0)
(75.9023 0.000136453 0)
(75.8984 0.000136446 0)
(75.8944 0.000136436 0)
(75.8904 0.000136424 0)
(75.8864 0.000136377 0)
(75.8825 0.000136353 0)
(75.8785 0.000136316 0)
(75.8745 0.000136243 0)
(75.8705 0.000136152 0)
(75.8665 0.000136033 0)
(75.8626 0.000135832 0)
(75.8586 0.000135647 0)
(75.8546 0.000135658 0)
(75.8507 0.000135035 0)
(75.8467 0.000134708 0)
(75.8428 0.000134242 0)
(75.8389 0.000133647 0)
(75.835 0.000132922 0)
(75.8311 0.00013205 0)
(75.8272 0.000131012 0)
(75.8234 0.000129787 0)
(75.8196 0.000128356 0)
(75.8159 0.0001267 0)
(75.8122 0.000124803 0)
(75.8085 0.000122651 0)
(75.805 0.00012023 0)
(75.8015 0.000117531 0)
(75.798 0.000114549 0)
(75.7947 0.000111309 0)
(75.7914 0.000107779 0)
(75.7883 0.000103983 0)
(75.7852 9.99456e-05 0)
(75.7823 9.56837e-05 0)
(75.7795 9.12237e-05 0)
(75.7768 8.6596e-05 0)
(75.7743 8.18364e-05 0)
(75.7718 7.69827e-05 0)
(75.7696 7.20646e-05 0)
(75.7674 6.71245e-05 0)
(75.7654 6.22242e-05 0)
(75.7635 5.73806e-05 0)
(75.7618 5.2637e-05 0)
(75.7602 4.80286e-05 0)
(75.7587 4.35868e-05 0)
(75.7574 3.93391e-05 0)
(75.7561 3.53083e-05 0)
(75.755 3.15128e-05 0)
(75.754 2.7966e-05 0)
(75.753 2.46766e-05 0)
(75.7522 2.16487e-05 0)
(75.7514 1.88822e-05 0)
(75.7507 1.63731e-05 0)
(75.7501 1.41141e-05 0)
(75.7496 1.20949e-05 0)
(75.7491 1.03032e-05 0)
(75.7486 8.72444e-06 0)
(75.7482 7.34329e-06 0)
(75.7478 6.14348e-06 0)
(75.7475 5.10845e-06 0)
(75.7472 4.22174e-06 0)
(75.7469 3.46731e-06 0)
(75.7467 2.8298e-06 0)
(75.7464 2.29472e-06 0)
(75.7462 1.84865e-06 0)
(75.746 1.47924e-06 0)
(75.7457 1.17535e-06 0)
(75.7455 9.26982e-07 0)
(75.7453 7.25322e-07 0)
(75.7452 5.62616e-07 0)
(75.745 4.32173e-07 0)
(75.7448 3.28255e-07 0)
(75.7446 2.45986e-07 0)
(75.7444 1.81276e-07 0)
(75.7442 1.30695e-07 0)
(75.7441 9.13984e-08 0)
(75.7439 6.10643e-08 0)
(75.7437 3.78e-08 0)
(75.7435 2.0044e-08 0)
(75.7433 6.5343e-09 0)
(75.7431 -3.62692e-09 0)
(75.7429 -1.10603e-08 0)
(75.7427 -1.652e-08 0)
(75.7425 -2.05189e-08 0)
(75.7423 -2.34258e-08 0)
(75.7421 -2.55178e-08 0)
(75.7419 -2.70115e-08 0)
(75.7417 -2.80604e-08 0)
(75.7415 -2.87896e-08 0)
(75.7413 -2.92774e-08 0)
(75.7411 -2.95953e-08 0)
(75.7409 -2.97965e-08 0)
(75.7407 -2.99048e-08 0)
(75.7405 -2.99715e-08 0)
(75.7402 -2.99837e-08 0)
(75.74 -2.99563e-08 0)
(75.7398 -2.99156e-08 0)
(75.7396 -2.98831e-08 0)
(75.7393 -2.98292e-08 0)
(75.7391 -2.97929e-08 0)
(75.7389 -2.9782e-08 0)
(75.7386 -2.97635e-08 0)
(75.7384 -2.97993e-08 0)
(75.7381 -2.98151e-08 0)
(75.7379 -2.98593e-08 0)
(75.7376 -2.99402e-08 0)
(75.7374 -3.00415e-08 0)
(75.7371 -3.01366e-08 0)
(75.7369 -3.01526e-08 0)
(75.7366 -2.99071e-08 0)
(75.7364 -2.86242e-08 0)
(75.7361 -2.2466e-08 0)
(75.7358 6.78921e-09 0)
(75.7356 1.48151e-07 0)
(75.7353 8.3083e-07 0)
(75.7349 4.1256e-06 0)
(75.734 2.00176e-05 0)
(75.731 9.67227e-05 0)
(75.7185 0.000453453 0)
(75.6628 0.00206898 0)
(75.4094 0.00945118 0)
(74.571 0.0473542 0)
(66.8291 0.192291 0)
(76.2001 0.000221833 0)
(76.2004 0.000162747 0)
(76.2007 0.000150271 0)
(76.201 0.000148104 0)
(76.2012 0.000146248 0)
(76.2015 0.000144756 0)
(76.2017 0.000143634 0)
(76.202 0.00014272 0)
(76.2022 0.000141958 0)
(76.2024 0.000141317 0)
(76.2027 0.000140774 0)
(76.2029 0.000140309 0)
(76.2032 0.000139909 0)
(76.2034 0.000139564 0)
(76.2036 0.000139264 0)
(76.2039 0.000139003 0)
(76.2041 0.000138774 0)
(76.2043 0.000138574 0)
(76.2046 0.000138399 0)
(76.2048 0.000138244 0)
(76.205 0.000138108 0)
(76.2052 0.000137987 0)
(76.2055 0.000137881 0)
(76.2057 0.000137786 0)
(76.2059 0.000137702 0)
(76.2061 0.000137626 0)
(76.2064 0.00013756 0)
(76.2066 0.0001375 0)
(76.2068 0.000137442 0)
(76.207 0.000137392 0)
(76.2072 0.000137332 0)
(76.2074 0.000137264 0)
(76.2076 0.000137497 0)
(76.2078 0.000137179 0)
(76.208 0.000137249 0)
(76.2082 0.000137236 0)
(76.2084 0.00013721 0)
(76.2085 0.000137182 0)
(76.2087 0.000137184 0)
(76.2088 0.000137567 0)
(76.209 0.00013696 0)
(76.2091 0.000137224 0)
(76.2093 0.000137237 0)
(76.2094 0.000137246 0)
(76.2095 0.000137256 0)
(76.2096 0.000137265 0)
(76.2097 0.000137274 0)
(76.2098 0.000137283 0)
(76.2099 0.000137291 0)
(76.2099 0.000137293 0)
(76.21 0.000137301 0)
(76.2101 0.000137297 0)
(76.2101 0.000137296 0)
(76.2102 0.000137382 0)
(76.2102 0.000137338 0)
(76.2102 0.000137343 0)
(76.2102 0.000137351 0)
(76.2102 0.000137294 0)
(76.2102 0.000137336 0)
(76.2102 0.000137813 0)
(76.2102 0.000137094 0)
(76.2102 0.000137412 0)
(76.2102 0.00013744 0)
(76.2102 0.000137459 0)
(76.2102 0.00013748 0)
(76.2101 0.000137501 0)
(76.2101 0.000137521 0)
(76.2101 0.000137485 0)
(76.21 0.000137535 0)
(76.21 0.00013769 0)
(76.21 0.000137594 0)
(76.2099 0.000137631 0)
(76.2099 0.000137654 0)
(76.2098 0.000137675 0)
(76.2097 0.000137695 0)
(76.2097 0.000137714 0)
(76.2096 0.000137731 0)
(76.2095 0.000137745 0)
(76.2094 0.000137757 0)
(76.2094 0.000137766 0)
(76.2093 0.000137773 0)
(76.2092 0.000137781 0)
(76.2091 0.000137731 0)
(76.209 0.000137734 0)
(76.2089 0.000137705 0)
(76.2088 0.000137637 0)
(76.2087 0.000137554 0)
(76.2086 0.00013744 0)
(76.2085 0.0001372 0)
(76.2084 0.000137021 0)
(76.2083 0.000137233 0)
(76.2082 0.000136306 0)
(76.2081 0.000136067 0)
(76.208 0.000135586 0)
(76.2079 0.000134953 0)
(76.2078 0.000134184 0)
(76.2077 0.000133257 0)
(76.2076 0.000132154 0)
(76.2075 0.000130852 0)
(76.2074 0.000129334 0)
(76.2073 0.00012758 0)
(76.2071 0.000125573 0)
(76.207 0.000123299 0)
(76.2069 0.000120748 0)
(76.2068 0.00011791 0)
(76.2067 0.000114776 0)
(76.2065 0.000111395 0)
(76.2064 0.000107715 0)
(76.2063 0.00010376 0)
(76.2061 9.95709e-05 0)
(76.206 9.51628e-05 0)
(76.2059 9.05638e-05 0)
(76.2057 8.58069e-05 0)
(76.2056 8.09312e-05 0)
(76.2054 7.59769e-05 0)
(76.2053 7.09678e-05 0)
(76.2051 6.59494e-05 0)
(76.2049 6.1001e-05 0)
(76.2048 5.61205e-05 0)
(76.2046 5.13569e-05 0)
(76.2044 4.67453e-05 0)
(76.2043 4.23158e-05 0)
(76.2041 3.80946e-05 0)
(76.2039 3.4103e-05 0)
(76.2037 3.03576e-05 0)
(76.2035 2.68698e-05 0)
(76.2033 2.36465e-05 0)
(76.2032 2.06898e-05 0)
(76.203 1.79978e-05 0)
(76.2028 1.55648e-05 0)
(76.2026 1.33819e-05 0)
(76.2024 1.14376e-05 0)
(76.2022 9.71813e-06 0)
(76.202 8.20837e-06 0)
(76.2018 6.89206e-06 0)
(76.2016 5.75246e-06 0)
(76.2015 4.77267e-06 0)
(76.2013 3.9361e-06 0)
(76.2011 3.22669e-06 0)
(76.2009 2.6292e-06 0)
(76.2007 2.12935e-06 0)
(76.2005 1.71398e-06 0)
(76.2004 1.37113e-06 0)
(76.2002 1.09002e-06 0)
(76.2 8.61033e-07 0)
(76.1998 6.75748e-07 0)
(76.1996 5.26804e-07 0)
(76.1994 4.07853e-07 0)
(76.1993 3.13469e-07 0)
(76.1991 2.39058e-07 0)
(76.1989 1.80774e-07 0)
(76.1987 1.3541e-07 0)
(76.1985 1.00314e-07 0)
(76.1983 7.33152e-08 0)
(76.1981 5.26507e-08 0)
(76.1979 3.69336e-08 0)
(76.1977 2.50906e-08 0)
(76.1975 1.62382e-08 0)
(76.1973 9.51249e-09 0)
(76.1971 4.53779e-09 0)
(76.1969 8.98323e-10 0)
(76.1967 -1.75589e-09 0)
(76.1965 -3.66455e-09 0)
(76.1963 -5.02686e-09 0)
(76.1961 -5.98013e-09 0)
(76.1958 -6.64884e-09 0)
(76.1956 -7.08701e-09 0)
(76.1954 -7.35861e-09 0)
(76.1952 -7.50959e-09 0)
(76.195 -7.57274e-09 0)
(76.1947 -7.5959e-09 0)
(76.1945 -7.57506e-09 0)
(76.1943 -7.52551e-09 0)
(76.194 -7.41776e-09 0)
(76.1938 -7.37741e-09 0)
(76.1935 -7.24183e-09 0)
(76.1933 -7.15737e-09 0)
(76.193 -7.10928e-09 0)
(76.1928 -6.94891e-09 0)
(76.1925 -6.92784e-09 0)
(76.1923 -6.85146e-09 0)
(76.192 -6.75346e-09 0)
(76.1918 -6.62524e-09 0)
(76.1915 -6.47967e-09 0)
(76.1912 -6.29988e-09 0)
(76.191 -6.0354e-09 0)
(76.1907 -5.02825e-09 0)
(76.1904 -7.03781e-10 0)
(76.1902 1.98976e-08 0)
(76.1899 1.19302e-07 0)
(76.1896 6.00151e-07 0)
(76.1893 2.92371e-06 0)
(76.1889 1.41406e-05 0)
(76.188 6.82443e-05 0)
(76.1851 0.000329349 0)
(76.1725 0.00154382 0)
(76.117 0.00704592 0)
(75.8645 0.0321275 0)
(75.0261 0.157905 0)
(67.7022 0.604154 0)
(76.2001 0.000163415 0)
(76.2004 0.000113704 0)
(76.2007 0.000107335 0)
(76.201 0.000110284 0)
(76.2012 0.000111323 0)
(76.2015 0.000111799 0)
(76.2017 0.000112222 0)
(76.202 0.000112564 0)
(76.2022 0.000112843 0)
(76.2024 0.000113078 0)
(76.2027 0.000113278 0)
(76.2029 0.000113452 0)
(76.2032 0.000113603 0)
(76.2034 0.000113735 0)
(76.2036 0.000113852 0)
(76.2039 0.000113955 0)
(76.2041 0.000114047 0)
(76.2044 0.000114129 0)
(76.2046 0.000114202 0)
(76.2048 0.000114268 0)
(76.2051 0.000114326 0)
(76.2053 0.000114379 0)
(76.2055 0.000114427 0)
(76.2057 0.000114469 0)
(76.206 0.000114508 0)
(76.2062 0.000114542 0)
(76.2064 0.000114573 0)
(76.2066 0.000114601 0)
(76.2069 0.000114623 0)
(76.2071 0.000114644 0)
(76.2073 0.000114651 0)
(76.2075 0.000114644 0)
(76.2077 0.000114876 0)
(76.2079 0.000114655 0)
(76.2081 0.000114752 0)
(76.2083 0.000114774 0)
(76.2085 0.000114782 0)
(76.2087 0.000114789 0)
(76.2088 0.00011481 0)
(76.209 0.000115141 0)
(76.2091 0.000114668 0)
(76.2093 0.0001149 0)
(76.2094 0.000114928 0)
(76.2096 0.000114949 0)
(76.2097 0.000114969 0)
(76.2098 0.000114988 0)
(76.2099 0.000115006 0)
(76.21 0.000115023 0)
(76.2101 0.000115038 0)
(76.2102 0.000115049 0)
(76.2103 0.000115063 0)
(76.2103 0.000115067 0)
(76.2104 0.000115067 0)
(76.2104 0.000115146 0)
(76.2105 0.000115114 0)
(76.2105 0.000115124 0)
(76.2105 0.000115135 0)
(76.2105 0.000115092 0)
(76.2106 0.000115135 0)
(76.2106 0.000115541 0)
(76.2106 0.000114918 0)
(76.2106 0.000115202 0)
(76.2106 0.000115229 0)
(76.2106 0.000115246 0)
(76.2106 0.000115265 0)
(76.2105 0.000115285 0)
(76.2105 0.000115304 0)
(76.2105 0.000115276 0)
(76.2105 0.000115319 0)
(76.2105 0.000115433 0)
(76.2104 0.000115377 0)
(76.2104 0.000115407 0)
(76.2104 0.000115422 0)
(76.2103 0.00011544 0)
(76.2103 0.000115458 0)
(76.2102 0.000115474 0)
(76.2102 0.000115489 0)
(76.2101 0.000115502 0)
(76.21 0.000115513 0)
(76.21 0.00011552 0)
(76.2099 0.000115528 0)
(76.2098 0.000115534 0)
(76.2098 0.000115495 0)
(76.2097 0.000115496 0)
(76.2096 0.000115462 0)
(76.2095 0.000115406 0)
(76.2094 0.000115338 0)
(76.2093 0.00011524 0)
(76.2093 0.000115036 0)
(76.2092 0.000114885 0)
(76.2091 0.000115049 0)
(76.209 0.000114233 0)
(76.2089 0.000114066 0)
(76.2088 0.000113641 0)
(76.2087 0.000113089 0)
(76.2087 0.000112425 0)
(76.2086 0.000111627 0)
(76.2085 0.000110678 0)
(76.2084 0.00010956 0)
(76.2083 0.000108256 0)
(76.2082 0.000106752 0)
(76.2081 0.000105033 0)
(76.208 0.000103089 0)
(76.2078 0.000100909 0)
(76.2077 9.84886e-05 0)
(76.2076 9.58165e-05 0)
(76.2075 9.29294e-05 0)
(76.2073 8.98166e-05 0)
(76.2072 8.64537e-05 0)
(76.2071 8.2903e-05 0)
(76.2069 7.91716e-05 0)
(76.2067 7.5284e-05 0)
(76.2066 7.12686e-05 0)
(76.2064 6.71588e-05 0)
(76.2062 6.29887e-05 0)
(76.2061 5.87787e-05 0)
(76.2059 5.45675e-05 0)
(76.2057 5.04209e-05 0)
(76.2055 4.63365e-05 0)
(76.2053 4.23563e-05 0)
(76.2051 3.85088e-05 0)
(76.2049 3.48188e-05 0)
(76.2047 3.13075e-05 0)
(76.2045 2.79922e-05 0)
(76.2043 2.48859e-05 0)
(76.2041 2.19977e-05 0)
(76.2039 1.93324e-05 0)
(76.2037 1.68912e-05 0)
(76.2035 1.46719e-05 0)
(76.2033 1.2669e-05 0)
(76.2031 1.08747e-05 0)
(76.2029 9.27885e-06 0)
(76.2027 7.86965e-06 0)
(76.2025 6.63413e-06 0)
(76.2023 5.55851e-06 0)
(76.2021 4.62866e-06 0)
(76.2019 3.8304e-06 0)
(76.2017 3.14984e-06 0)
(76.2015 2.57362e-06 0)
(76.2013 2.08905e-06 0)
(76.2011 1.6843e-06 0)
(76.201 1.34848e-06 0)
(76.2008 1.0717e-06 0)
(76.2006 8.45102e-07 0)
(76.2004 6.60783e-07 0)
(76.2002 5.11839e-07 0)
(76.2 3.92239e-07 0)
(76.1998 2.96809e-07 0)
(76.1997 2.21137e-07 0)
(76.1995 1.61491e-07 0)
(76.1993 1.14782e-07 0)
(76.1991 7.84461e-08 0)
(76.1989 5.03459e-08 0)
(76.1987 2.87594e-08 0)
(76.1985 1.22749e-08 0)
(76.1983 -1.96581e-10 0)
(76.1981 -9.56925e-09 0)
(76.1979 -1.66065e-08 0)
(76.1977 -2.18784e-08 0)
(76.1975 -2.57793e-08 0)
(76.1973 -2.86312e-08 0)
(76.1971 -3.07019e-08 0)
(76.1969 -3.21952e-08 0)
(76.1967 -3.3249e-08 0)
(76.1965 -3.39867e-08 0)
(76.1962 -3.44967e-08 0)
(76.196 -3.4838e-08 0)
(76.1958 -3.50558e-08 0)
(76.1956 -3.51529e-08 0)
(76.1954 -3.52086e-08 0)
(76.1951 -3.52068e-08 0)
(76.1949 -3.51822e-08 0)
(76.1947 -3.51872e-08 0)
(76.1944 -3.50508e-08 0)
(76.1942 -3.50835e-08 0)
(76.1939 -3.49203e-08 0)
(76.1937 -3.48181e-08 0)
(76.1934 -3.49382e-08 0)
(76.1932 -3.47789e-08 0)
(76.1929 -3.47666e-08 0)
(76.1927 -3.46875e-08 0)
(76.1924 -3.46911e-08 0)
(76.1922 -3.48064e-08 0)
(76.1919 -3.48181e-08 0)
(76.1916 -3.46698e-08 0)
(76.1914 -3.44269e-08 0)
(76.1911 -3.25837e-08 0)
(76.1908 -2.40468e-08 0)
(76.1906 1.67678e-08 0)
(76.1903 2.1414e-07 0)
(76.19 1.16786e-06 0)
(76.1897 5.77547e-06 0)
(76.1893 2.80186e-05 0)
(76.1885 0.0001353 0)
(76.1855 0.000652959 0)
(76.1734 0.00306272 0)
(76.1193 0.0139869 0)
(75.8744 0.063762 0)
(75.0649 0.312109 0)
(68.1614 1.16529 0)
(76.2001 0.000118012 0)
(76.2004 0.000102523 0)
(76.2007 9.94352e-05 0)
(76.201 0.000103424 0)
(76.2012 0.000105588 0)
(76.2014 0.000106881 0)
(76.2017 0.000107978 0)
(76.2019 0.000108902 0)
(76.2022 0.000109674 0)
(76.2024 0.000110323 0)
(76.2027 0.000110875 0)
(76.2029 0.000111346 0)
(76.2031 0.000111752 0)
(76.2034 0.000112102 0)
(76.2036 0.000112406 0)
(76.2038 0.00011267 0)
(76.2041 0.000112901 0)
(76.2043 0.000113104 0)
(76.2046 0.000113283 0)
(76.2048 0.00011344 0)
(76.205 0.000113578 0)
(76.2053 0.000113701 0)
(76.2055 0.000113809 0)
(76.2057 0.000113905 0)
(76.2059 0.00011399 0)
(76.2062 0.000114066 0)
(76.2064 0.000114132 0)
(76.2066 0.000114191 0)
(76.2068 0.000114242 0)
(76.2071 0.000114287 0)
(76.2073 0.000114321 0)
(76.2075 0.000114344 0)
(76.2077 0.000114509 0)
(76.2079 0.000114401 0)
(76.2081 0.000114475 0)
(76.2083 0.000114508 0)
(76.2084 0.000114529 0)
(76.2086 0.000114554 0)
(76.2088 0.000114582 0)
(76.2089 0.000114795 0)
(76.2091 0.000114537 0)
(76.2093 0.00011468 0)
(76.2094 0.000114713 0)
(76.2095 0.000114738 0)
(76.2097 0.000114762 0)
(76.2098 0.000114784 0)
(76.2099 0.000114805 0)
(76.21 0.000114823 0)
(76.2101 0.000114839 0)
(76.2101 0.000114852 0)
(76.2102 0.000114865 0)
(76.2103 0.000114872 0)
(76.2104 0.000114871 0)
(76.2104 0.000114931 0)
(76.2104 0.000114915 0)
(76.2105 0.000114922 0)
(76.2105 0.000114931 0)
(76.2105 0.000114907 0)
(76.2105 0.000114942 0)
(76.2105 0.00011521 0)
(76.2105 0.000114807 0)
(76.2105 0.000114989 0)
(76.2105 0.000115016 0)
(76.2105 0.000115033 0)
(76.2105 0.000115052 0)
(76.2105 0.000115071 0)
(76.2105 0.000115088 0)
(76.2105 0.000115076 0)
(76.2104 0.000115113 0)
(76.2104 0.000115192 0)
(76.2104 0.000115164 0)
(76.2104 0.000115186 0)
(76.2103 0.000115201 0)
(76.2103 0.000115218 0)
(76.2102 0.000115235 0)
(76.2102 0.000115251 0)
(76.2101 0.000115265 0)
(76.2101 0.000115277 0)
(76.21 0.000115287 0)
(76.2099 0.000115294 0)
(76.2099 0.0001153 0)
(76.2098 0.000115303 0)
(76.2097 0.000115276 0)
(76.2096 0.000115264 0)
(76.2096 0.000115239 0)
(76.2095 0.000115191 0)
(76.2094 0.000115129 0)
(76.2093 0.000115039 0)
(76.2092 0.000114874 0)
(76.2091 0.000114736 0)
(76.209 0.000114785 0)
(76.209 0.000114187 0)
(76.2089 0.000113976 0)
(76.2088 0.000113586 0)
(76.2087 0.000113083 0)
(76.2086 0.000112475 0)
(76.2085 0.000111742 0)
(76.2084 0.000110866 0)
(76.2083 0.000109831 0)
(76.2082 0.000108621 0)
(76.2081 0.00010722 0)
(76.208 0.000105614 0)
(76.2079 0.000103789 0)
(76.2078 0.000101737 0)
(76.2077 9.94526e-05 0)
(76.2076 9.69187e-05 0)
(76.2074 9.4154e-05 0)
(76.2073 9.11934e-05 0)
(76.2072 8.79628e-05 0)
(76.207 8.45394e-05 0)
(76.2069 8.09279e-05 0)
(76.2067 7.71493e-05 0)
(76.2066 7.32299e-05 0)
(76.2064 6.92002e-05 0)
(76.2062 6.50923e-05 0)
(76.206 6.093e-05 0)
(76.2059 5.67499e-05 0)
(76.2057 5.26073e-05 0)
(76.2055 4.85124e-05 0)
(76.2053 4.45032e-05 0)
(76.2051 4.06095e-05 0)
(76.2049 3.68577e-05 0)
(76.2047 3.32707e-05 0)
(76.2045 2.98678e-05 0)
(76.2043 2.66642e-05 0)
(76.2041 2.36713e-05 0)
(76.2039 2.0896e-05 0)
(76.2037 1.83419e-05 0)
(76.2035 1.60087e-05 0)
(76.2033 1.38929e-05 0)
(76.2031 1.19882e-05 0)
(76.2029 1.0286e-05 0)
(76.2027 8.77558e-06 0)
(76.2025 7.44491e-06 0)
(76.2023 6.28082e-06 0)
(76.2021 5.26962e-06 0)
(76.2019 4.39732e-06 0)
(76.2017 3.65004e-06 0)
(76.2015 3.01425e-06 0)
(76.2013 2.47699e-06 0)
(76.2011 2.02606e-06 0)
(76.2009 1.65011e-06 0)
(76.2008 1.33876e-06 0)
(76.2006 1.08262e-06 0)
(76.2004 8.73263e-07 0)
(76.2002 7.03264e-07 0)
(76.2 5.66076e-07 0)
(76.1998 4.56079e-07 0)
(76.1997 3.68439e-07 0)
(76.1995 2.99016e-07 0)
(76.1993 2.44395e-07 0)
(76.1991 2.01701e-07 0)
(76.1989 1.68517e-07 0)
(76.1987 1.42912e-07 0)
(76.1985 1.2327e-07 0)
(76.1983 1.08306e-07 0)
(76.1981 9.69206e-08 0)
(76.1979 8.82942e-08 0)
(76.1977 8.202e-08 0)
(76.1975 7.73747e-08 0)
(76.1973 7.3943e-08 0)
(76.1971 7.14575e-08 0)
(76.1969 6.96455e-08 0)
(76.1967 6.83552e-08 0)
(76.1965 6.74745e-08 0)
(76.1962 6.68198e-08 0)
(76.196 6.63783e-08 0)
(76.1958 6.61258e-08 0)
(76.1956 6.59481e-08 0)
(76.1954 6.58778e-08 0)
(76.1951 6.58167e-08 0)
(76.1949 6.58553e-08 0)
(76.1947 6.58463e-08 0)
(76.1944 6.60249e-08 0)
(76.1942 6.58341e-08 0)
(76.1939 6.61198e-08 0)
(76.1937 6.62183e-08 0)
(76.1934 6.59647e-08 0)
(76.1932 6.63043e-08 0)
(76.1929 6.58639e-08 0)
(76.1927 6.62833e-08 0)
(76.1924 6.64358e-08 0)
(76.1922 6.65408e-08 0)
(76.1919 6.66933e-08 0)
(76.1916 6.68286e-08 0)
(76.1914 6.74546e-08 0)
(76.1911 7.22409e-08 0)
(76.1908 9.34452e-08 0)
(76.1906 1.95987e-07 0)
(76.1903 6.94277e-07 0)
(76.19 3.10256e-06 0)
(76.1897 1.47402e-05 0)
(76.1893 7.09351e-05 0)
(76.1885 0.000341863 0)
(76.1859 0.00164503 0)
(76.1751 0.00774247 0)
(76.1271 0.0352334 0)
(75.9131 0.158637 0)
(75.2126 0.718601 0)
(69.9607 2.63119 0)
(76.2001 3.56577e-05 0)
(76.2004 2.85136e-05 0)
(76.2007 2.04772e-05 0)
(76.2009 1.7161e-05 0)
(76.2012 1.45432e-05 0)
(76.2014 1.2298e-05 0)
(76.2017 1.05188e-05 0)
(76.2019 9.0825e-06 0)
(76.2021 7.89267e-06 0)
(76.2024 6.89364e-06 0)
(76.2026 6.04701e-06 0)
(76.2029 5.32372e-06 0)
(76.2031 4.70165e-06 0)
(76.2033 4.16367e-06 0)
(76.2036 3.69622e-06 0)
(76.2038 3.28842e-06 0)
(76.2041 2.93144e-06 0)
(76.2043 2.61806e-06 0)
(76.2045 2.34217e-06 0)
(76.2048 2.0988e-06 0)
(76.205 1.88368e-06 0)
(76.2052 1.69322e-06 0)
(76.2055 1.52437e-06 0)
(76.2057 1.37449e-06 0)
(76.2059 1.24134e-06 0)
(76.2061 1.12297e-06 0)
(76.2064 1.01769e-06 0)
(76.2066 9.23999e-07 0)
(76.2068 8.40399e-07 0)
(76.207 7.64851e-07 0)
(76.2072 6.96445e-07 0)
(76.2075 6.331e-07 0)
(76.2077 6.13476e-07 0)
(76.2079 5.2957e-07 0)
(76.208 4.97294e-07 0)
(76.2082 4.60438e-07 0)
(76.2084 4.23776e-07 0)
(76.2086 3.93344e-07 0)
(76.2088 3.64331e-07 0)
(76.2089 3.85229e-07 0)
(76.2091 2.93693e-07 0)
(76.2092 3.0013e-07 0)
(76.2094 2.85441e-07 0)
(76.2095 2.70266e-07 0)
(76.2096 2.5676e-07 0)
(76.2098 2.44803e-07 0)
(76.2099 2.34323e-07 0)
(76.21 2.25212e-07 0)
(76.21 2.17312e-07 0)
(76.2101 2.10332e-07 0)
(76.2102 2.04371e-07 0)
(76.2103 1.98651e-07 0)
(76.2103 1.88033e-07 0)
(76.2104 2.00832e-07 0)
(76.2104 1.89896e-07 0)
(76.2104 1.85692e-07 0)
(76.2105 1.82731e-07 0)
(76.2105 1.70929e-07 0)
(76.2105 1.77973e-07 0)
(76.2105 2.50902e-07 0)
(76.2105 1.24511e-07 0)
(76.2105 1.71085e-07 0)
(76.2105 1.76279e-07 0)
(76.2105 1.75875e-07 0)
(76.2105 1.75534e-07 0)
(76.2105 1.75127e-07 0)
(76.2105 1.7412e-07 0)
(76.2105 1.64603e-07 0)
(76.2104 1.7022e-07 0)
(76.2104 1.86396e-07 0)
(76.2104 1.73274e-07 0)
(76.2103 1.75254e-07 0)
(76.2103 1.75143e-07 0)
(76.2103 1.75671e-07 0)
(76.2102 1.76235e-07 0)
(76.2102 1.76735e-07 0)
(76.2101 1.77301e-07 0)
(76.2101 1.77947e-07 0)
(76.21 1.7865e-07 0)
(76.2099 1.79478e-07 0)
(76.2098 1.81675e-07 0)
(76.2098 1.83642e-07 0)
(76.2097 1.78756e-07 0)
(76.2096 1.76468e-07 0)
(76.2095 1.78785e-07 0)
(76.2094 1.74707e-07 0)
(76.2094 1.71173e-07 0)
(76.2093 1.64837e-07 0)
(76.2092 1.43712e-07 0)
(76.2091 1.41087e-07 0)
(76.209 1.99981e-07 0)
(76.2089 8.42647e-08 0)
(76.2089 9.60843e-08 0)
(76.2088 8.05419e-08 0)
(76.2087 5.11313e-08 0)
(76.2086 1.79137e-08 0)
(76.2085 -2.11767e-08 0)
(76.2084 -6.6444e-08 0)
(76.2083 -1.18019e-07 0)
(76.2082 -1.75956e-07 0)
(76.2081 -2.40184e-07 0)
(76.208 -3.10464e-07 0)
(76.2079 -3.86336e-07 0)
(76.2078 -4.66992e-07 0)
(76.2077 -5.50304e-07 0)
(76.2076 -6.42137e-07 0)
(76.2074 -7.37859e-07 0)
(76.2073 -8.09209e-07 0)
(76.2072 -9.04892e-07 0)
(76.207 -9.90456e-07 0)
(76.2069 -1.07031e-06 0)
(76.2067 -1.14372e-06 0)
(76.2065 -1.20917e-06 0)
(76.2064 -1.26488e-06 0)
(76.2062 -1.30964e-06 0)
(76.206 -1.34545e-06 0)
(76.2059 -1.37085e-06 0)
(76.2057 -1.37909e-06 0)
(76.2055 -1.37723e-06 0)
(76.2053 -1.36382e-06 0)
(76.2051 -1.33922e-06 0)
(76.2049 -1.30431e-06 0)
(76.2047 -1.26016e-06 0)
(76.2045 -1.20801e-06 0)
(76.2043 -1.14922e-06 0)
(76.2041 -1.08523e-06 0)
(76.2039 -1.01746e-06 0)
(76.2037 -9.47337e-07 0)
(76.2035 -8.76183e-07 0)
(76.2033 -8.05236e-07 0)
(76.2031 -7.35584e-07 0)
(76.2029 -6.68171e-07 0)
(76.2027 -6.03794e-07 0)
(76.2025 -5.4305e-07 0)
(76.2023 -4.86433e-07 0)
(76.2021 -4.3422e-07 0)
(76.2019 -3.86581e-07 0)
(76.2017 -3.43584e-07 0)
(76.2015 -3.05112e-07 0)
(76.2013 -2.71049e-07 0)
(76.2011 -2.41164e-07 0)
(76.2009 -2.1515e-07 0)
(76.2008 -1.92713e-07 0)
(76.2006 -1.73514e-07 0)
(76.2004 -1.57191e-07 0)
(76.2002 -1.43399e-07 0)
(76.2 -1.31854e-07 0)
(76.1998 -1.22208e-07 0)
(76.1997 -1.14196e-07 0)
(76.1995 -1.07632e-07 0)
(76.1993 -1.02242e-07 0)
(76.1991 -9.78442e-08 0)
(76.1989 -9.43445e-08 0)
(76.1987 -9.15473e-08 0)
(76.1985 -8.9338e-08 0)
(76.1983 -8.76595e-08 0)
(76.1981 -8.63631e-08 0)
(76.1979 -8.53415e-08 0)
(76.1977 -8.46598e-08 0)
(76.1975 -8.41834e-08 0)
(76.1973 -8.38672e-08 0)
(76.1971 -8.36184e-08 0)
(76.1969 -8.34244e-08 0)
(76.1967 -8.33206e-08 0)
(76.1965 -8.3226e-08 0)
(76.1962 -8.31824e-08 0)
(76.196 -8.3136e-08 0)
(76.1958 -8.30868e-08 0)
(76.1956 -8.31026e-08 0)
(76.1954 -8.30669e-08 0)
(76.1951 -8.3081e-08 0)
(76.1949 -8.30472e-08 0)
(76.1947 -8.312e-08 0)
(76.1944 -8.27998e-08 0)
(76.1942 -8.33014e-08 0)
(76.1939 -8.28775e-08 0)
(76.1937 -8.28725e-08 0)
(76.1934 -8.30754e-08 0)
(76.1932 -8.27205e-08 0)
(76.1929 -8.28407e-08 0)
(76.1927 -8.28205e-08 0)
(76.1924 -8.28664e-08 0)
(76.1922 -8.29549e-08 0)
(76.1919 -8.26065e-08 0)
(76.1916 -8.2306e-08 0)
(76.1914 -8.08564e-08 0)
(76.1911 -7.30422e-08 0)
(76.1908 -3.76733e-08 0)
(76.1906 1.32981e-07 0)
(76.1903 9.59738e-07 0)
(76.19 4.95693e-06 0)
(76.1897 2.42748e-05 0)
(76.1894 0.000117585 0)
(76.1889 0.000567507 0)
(76.1877 0.00272788 0)
(76.1832 0.0129006 0)
(76.1633 0.0590013 0)
(76.0712 0.266039 0)
(75.7675 1.17059 0)
(72.6858 4.22186 0)
(76.2001 -3.56577e-05 0)
(76.2004 -2.85136e-05 0)
(76.2007 -2.04772e-05 0)
(76.2009 -1.7161e-05 0)
(76.2012 -1.45432e-05 0)
(76.2014 -1.2298e-05 0)
(76.2017 -1.05188e-05 0)
(76.2019 -9.0825e-06 0)
(76.2021 -7.89267e-06 0)
(76.2024 -6.89364e-06 0)
(76.2026 -6.04701e-06 0)
(76.2029 -5.32372e-06 0)
(76.2031 -4.70165e-06 0)
(76.2033 -4.16367e-06 0)
(76.2036 -3.69622e-06 0)
(76.2038 -3.28842e-06 0)
(76.2041 -2.93144e-06 0)
(76.2043 -2.61806e-06 0)
(76.2045 -2.34217e-06 0)
(76.2048 -2.0988e-06 0)
(76.205 -1.88368e-06 0)
(76.2052 -1.69322e-06 0)
(76.2055 -1.52437e-06 0)
(76.2057 -1.37449e-06 0)
(76.2059 -1.24134e-06 0)
(76.2061 -1.12297e-06 0)
(76.2064 -1.0177e-06 0)
(76.2066 -9.23999e-07 0)
(76.2068 -8.40399e-07 0)
(76.207 -7.64851e-07 0)
(76.2072 -6.96447e-07 0)
(76.2075 -6.33101e-07 0)
(76.2077 -6.13477e-07 0)
(76.2079 -5.29569e-07 0)
(76.208 -4.97294e-07 0)
(76.2082 -4.60439e-07 0)
(76.2084 -4.23775e-07 0)
(76.2086 -3.93343e-07 0)
(76.2088 -3.6433e-07 0)
(76.2089 -3.85229e-07 0)
(76.2091 -2.93693e-07 0)
(76.2092 -3.0013e-07 0)
(76.2094 -2.85441e-07 0)
(76.2095 -2.70267e-07 0)
(76.2096 -2.5676e-07 0)
(76.2098 -2.44802e-07 0)
(76.2099 -2.34324e-07 0)
(76.21 -2.25212e-07 0)
(76.21 -2.17311e-07 0)
(76.2101 -2.10331e-07 0)
(76.2102 -2.04371e-07 0)
(76.2103 -1.98651e-07 0)
(76.2103 -1.88033e-07 0)
(76.2104 -2.00832e-07 0)
(76.2104 -1.89897e-07 0)
(76.2104 -1.85692e-07 0)
(76.2105 -1.82731e-07 0)
(76.2105 -1.70929e-07 0)
(76.2105 -1.77973e-07 0)
(76.2105 -2.50901e-07 0)
(76.2105 -1.24511e-07 0)
(76.2105 -1.71084e-07 0)
(76.2105 -1.76277e-07 0)
(76.2105 -1.75875e-07 0)
(76.2105 -1.75535e-07 0)
(76.2105 -1.75127e-07 0)
(76.2105 -1.74117e-07 0)
(76.2105 -1.64602e-07 0)
(76.2104 -1.70221e-07 0)
(76.2104 -1.86396e-07 0)
(76.2104 -1.73275e-07 0)
(76.2103 -1.75254e-07 0)
(76.2103 -1.75144e-07 0)
(76.2103 -1.75672e-07 0)
(76.2102 -1.76235e-07 0)
(76.2102 -1.76735e-07 0)
(76.2101 -1.77302e-07 0)
(76.2101 -1.77947e-07 0)
(76.21 -1.7865e-07 0)
(76.2099 -1.79478e-07 0)
(76.2098 -1.81674e-07 0)
(76.2098 -1.83641e-07 0)
(76.2097 -1.78756e-07 0)
(76.2096 -1.76468e-07 0)
(76.2095 -1.78784e-07 0)
(76.2094 -1.74707e-07 0)
(76.2094 -1.71173e-07 0)
(76.2093 -1.64835e-07 0)
(76.2092 -1.43711e-07 0)
(76.2091 -1.41087e-07 0)
(76.209 -1.99978e-07 0)
(76.2089 -8.42684e-08 0)
(76.2089 -9.60852e-08 0)
(76.2088 -8.05412e-08 0)
(76.2087 -5.11309e-08 0)
(76.2086 -1.7913e-08 0)
(76.2085 2.11751e-08 0)
(76.2084 6.64442e-08 0)
(76.2083 1.18018e-07 0)
(76.2082 1.75956e-07 0)
(76.2081 2.40183e-07 0)
(76.208 3.10464e-07 0)
(76.2079 3.86338e-07 0)
(76.2078 4.66992e-07 0)
(76.2077 5.50297e-07 0)
(76.2076 6.42106e-07 0)
(76.2074 7.38085e-07 0)
(76.2073 8.0905e-07 0)
(76.2072 9.0486e-07 0)
(76.207 9.90451e-07 0)
(76.2069 1.07031e-06 0)
(76.2067 1.14372e-06 0)
(76.2065 1.20916e-06 0)
(76.2064 1.26488e-06 0)
(76.2062 1.30964e-06 0)
(76.206 1.34546e-06 0)
(76.2059 1.37084e-06 0)
(76.2057 1.37909e-06 0)
(76.2055 1.37724e-06 0)
(76.2053 1.36382e-06 0)
(76.2051 1.33922e-06 0)
(76.2049 1.30431e-06 0)
(76.2047 1.26016e-06 0)
(76.2045 1.20801e-06 0)
(76.2043 1.14922e-06 0)
(76.2041 1.08523e-06 0)
(76.2039 1.01746e-06 0)
(76.2037 9.47337e-07 0)
(76.2035 8.76186e-07 0)
(76.2033 8.05234e-07 0)
(76.2031 7.35583e-07 0)
(76.2029 6.68175e-07 0)
(76.2027 6.03789e-07 0)
(76.2025 5.4306e-07 0)
(76.2023 4.86426e-07 0)
(76.2021 4.34217e-07 0)
(76.2019 3.86593e-07 0)
(76.2017 3.43568e-07 0)
(76.2015 3.05119e-07 0)
(76.2013 2.71057e-07 0)
(76.2011 2.41151e-07 0)
(76.2009 2.15155e-07 0)
(76.2008 1.92719e-07 0)
(76.2006 1.73506e-07 0)
(76.2004 1.57185e-07 0)
(76.2002 1.43417e-07 0)
(76.2 1.31843e-07 0)
(76.1998 1.22195e-07 0)
(76.1997 1.14223e-07 0)
(76.1995 1.07614e-07 0)
(76.1993 1.02225e-07 0)
(76.1991 9.78771e-08 0)
(76.1989 9.43282e-08 0)
(76.1987 9.15245e-08 0)
(76.1985 8.93675e-08 0)
(76.1983 8.76663e-08 0)
(76.1981 8.63396e-08 0)
(76.1979 8.53364e-08 0)
(76.1977 8.46837e-08 0)
(76.1975 8.4192e-08 0)
(76.1973 8.38383e-08 0)
(76.1971 8.36117e-08 0)
(76.1969 8.34543e-08 0)
(76.1967 8.33145e-08 0)
(76.1965 8.32205e-08 0)
(76.1962 8.3171e-08 0)
(76.196 8.31573e-08 0)
(76.1958 8.31027e-08 0)
(76.1956 8.30874e-08 0)
(76.1954 8.30472e-08 0)
(76.1951 8.30746e-08 0)
(76.1949 8.3111e-08 0)
(76.1947 8.29496e-08 0)
(76.1944 8.32837e-08 0)
(76.1942 8.25378e-08 0)
(76.1939 8.33274e-08 0)
(76.1937 8.29978e-08 0)
(76.1934 8.27277e-08 0)
(76.1932 8.28808e-08 0)
(76.1929 8.26882e-08 0)
(76.1927 8.28999e-08 0)
(76.1924 8.30703e-08 0)
(76.1922 8.26317e-08 0)
(76.1919 8.28598e-08 0)
(76.1916 8.29488e-08 0)
(76.1914 8.43253e-08 0)
(76.1911 9.1582e-08 0)
(76.1908 1.27129e-07 0)
(76.1906 2.97958e-07 0)
(76.1903 1.1247e-06 0)
(76.19 5.1248e-06 0)
(76.1897 2.4477e-05 0)
(76.1895 0.000118151 0)
(76.1894 0.000572474 0)
(76.1899 0.00277854 0)
(76.1933 0.0131041 0)
(76.2093 0.0609039 0)
(76.2762 0.283335 0)
(76.5225 1.32258 0)
(77.3801 4.74972 0)
(76.2001 -0.000118012 0)
(76.2004 -0.000102523 0)
(76.2007 -9.94352e-05 0)
(76.201 -0.000103424 0)
(76.2012 -0.000105588 0)
(76.2014 -0.000106881 0)
(76.2017 -0.000107978 0)
(76.2019 -0.000108902 0)
(76.2022 -0.000109674 0)
(76.2024 -0.000110323 0)
(76.2027 -0.000110875 0)
(76.2029 -0.000111346 0)
(76.2031 -0.000111752 0)
(76.2034 -0.000112102 0)
(76.2036 -0.000112406 0)