/*--------------------------------*- C++ -*----------------------------------*\
| =========                 |                                                 |
| \\      /  F ield         | OpenFOAM: The Open Source CFD Toolbox           |
|  \\    /   O peration     | Version:  3.0.x                                 |
|   \\  /    A nd           | Web:      www.OpenFOAM.org                      |
|    \\/     M anipulation  |                                                 |
\*---------------------------------------------------------------------------*/
FoamFile
{
    version     2.0;
    format      ascii;
    class       volScalarField;
    location    "0.53";
    object      p;
}
// * * * * * * * * * * * * * * * * * * * * * * * * * * * * * * * * * * * * * //

dimensions      [1 -1 -2 0 0 0 0];

internalField   nonuniform List<scalar> 
6900
(
1.8473e+07
1.84733e+07
1.84738e+07
1.84743e+07
1.84749e+07
1.84755e+07
1.84761e+07
1.84769e+07
1.84776e+07
1.84785e+07
1.84794e+07
1.84803e+07
1.84813e+07
1.84823e+07
1.84834e+07
1.84846e+07
1.84858e+07
1.84871e+07
1.84884e+07
1.84897e+07
1.84911e+07
1.84926e+07
1.84941e+07
1.84957e+07
1.84973e+07
1.8499e+07
1.85008e+07
1.85025e+07
1.85044e+07
1.85063e+07
1.85083e+07
1.85103e+07
1.85123e+07
1.85145e+07
1.85166e+07
1.85189e+07
1.85212e+07
1.85235e+07
1.85259e+07
1.85284e+07
1.85309e+07
1.85335e+07
1.85361e+07
1.85388e+07
1.85415e+07
1.85443e+07
1.85471e+07
1.855e+07
1.85529e+07
1.85559e+07
1.85589e+07
1.8562e+07
1.85651e+07
1.85682e+07
1.85715e+07
1.85747e+07
1.8578e+07
1.85813e+07
1.85847e+07
1.85882e+07
1.85916e+07
1.85951e+07
1.85987e+07
1.86023e+07
1.8606e+07
1.86097e+07
1.86134e+07
1.86172e+07
1.8621e+07
1.86249e+07
1.86288e+07
1.86327e+07
1.86368e+07
1.86408e+07
1.86449e+07
1.8649e+07
1.86532e+07
1.86575e+07
1.86617e+07
1.86661e+07
1.86704e+07
1.86748e+07
1.86793e+07
1.86838e+07
1.86883e+07
1.86929e+07
1.86975e+07
1.87021e+07
1.87068e+07
1.87115e+07
1.87163e+07
1.8721e+07
1.87259e+07
1.87307e+07
1.87356e+07
1.87405e+07
1.87454e+07
1.87503e+07
1.87553e+07
1.87603e+07
1.87653e+07
1.87704e+07
1.87754e+07
1.87805e+07
1.87856e+07
1.87907e+07
1.87959e+07
1.8801e+07
1.88062e+07
1.88114e+07
1.88166e+07
1.88218e+07
1.88271e+07
1.88323e+07
1.88376e+07
1.88429e+07
1.88482e+07
1.88535e+07
1.88588e+07
1.88641e+07
1.88695e+07
1.88749e+07
1.88802e+07
1.88856e+07
1.8891e+07
1.88964e+07
1.89018e+07
1.89073e+07
1.89127e+07
1.89181e+07
1.89236e+07
1.89291e+07
1.89345e+07
1.894e+07
1.89455e+07
1.8951e+07
1.89564e+07
1.89619e+07
1.89674e+07
1.89729e+07
1.89784e+07
1.89839e+07
1.89894e+07
1.89949e+07
1.90004e+07
1.90058e+07
1.90113e+07
1.90168e+07
1.90222e+07
1.90277e+07
1.90331e+07
1.90385e+07
1.9044e+07
1.90494e+07
1.90548e+07
1.90601e+07
1.90655e+07
1.90708e+07
1.90762e+07
1.90815e+07
1.90868e+07
1.90921e+07
1.90973e+07
1.91026e+07
1.91078e+07
1.9113e+07
1.91182e+07
1.91234e+07
1.91285e+07
1.91337e+07
1.91388e+07
1.91438e+07
1.91489e+07
1.9154e+07
1.9159e+07
1.9164e+07
1.9169e+07
1.91739e+07
1.91788e+07
1.91838e+07
1.91886e+07
1.91935e+07
1.91983e+07
1.92031e+07
1.92079e+07
1.92127e+07
1.92174e+07
1.92221e+07
1.92268e+07
1.92314e+07
1.9236e+07
1.92406e+07
1.92452e+07
1.92497e+07
1.92543e+07
1.92587e+07
1.92632e+07
1.92676e+07
1.9272e+07
1.92764e+07
1.8473e+07
1.84733e+07
1.84738e+07
1.84743e+07
1.84749e+07
1.84755e+07
1.84761e+07
1.84769e+07
1.84776e+07
1.84785e+07
1.84794e+07
1.84803e+07
1.84813e+07
1.84823e+07
1.84834e+07
1.84846e+07
1.84858e+07
1.84871e+07
1.84884e+07
1.84897e+07
1.84911e+07
1.84926e+07
1.84941e+07
1.84957e+07
1.84973e+07
1.8499e+07
1.85008e+07
1.85025e+07
1.85044e+07
1.85063e+07
1.85083e+07
1.85103e+07
1.85123e+07
1.85145e+07
1.85166e+07
1.85189e+07
1.85212e+07
1.85235e+07
1.85259e+07
1.85284e+07
1.85309e+07
1.85335e+07
1.85361e+07
1.85388e+07
1.85415e+07
1.85443e+07
1.85471e+07
1.855e+07
1.85529e+07
1.85559e+07
1.85589e+07
1.8562e+07
1.85651e+07
1.85682e+07
1.85715e+07
1.85747e+07
1.8578e+07
1.85813e+07
1.85847e+07
1.85882e+07
1.85916e+07
1.85951e+07
1.85987e+07
1.86023e+07
1.8606e+07
1.86097e+07
1.86134e+07
1.86172e+07
1.8621e+07
1.86249e+07
1.86288e+07
1.86327e+07
1.86368e+07
1.86408e+07
1.86449e+07
1.8649e+07
1.86532e+07
1.86575e+07
1.86617e+07
1.86661e+07
1.86704e+07
1.86748e+07
1.86793e+07
1.86838e+07
1.86883e+07
1.86929e+07
1.86975e+07
1.87021e+07
1.87068e+07
1.87115e+07
1.87163e+07
1.8721e+07
1.87259e+07
1.87307e+07
1.87356e+07
1.87405e+07
1.87454e+07
1.87503e+07
1.87553e+07
1.87603e+07
1.87653e+07
1.87704e+07
1.87754e+07
1.87805e+07
1.87856e+07
1.87907e+07
1.87959e+07
1.8801e+07
1.88062e+07
1.88114e+07
1.88166e+07
1.88218e+07
1.88271e+07
1.88323e+07
1.88376e+07
1.88429e+07
1.88482e+07
1.88535e+07
1.88588e+07
1.88641e+07
1.88695e+07
1.88749e+07
1.88802e+07
1.88856e+07
1.8891e+07
1.88964e+07
1.89018e+07
1.89073e+07
1.89127e+07
1.89181e+07
1.89236e+07
1.89291e+07
1.89345e+07
1.894e+07
1.89455e+07
1.8951e+07
1.89564e+07
1.89619e+07
1.89674e+07
1.89729e+07
1.89784e+07
1.89839e+07
1.89894e+07
1.89949e+07
1.90004e+07
1.90058e+07
1.90113e+07
1.90168e+07
1.90222e+07
1.90277e+07
1.90331e+07
1.90385e+07
1.9044e+07
1.90494e+07
1.90548e+07
1.90601e+07
1.90655e+07
1.90708e+07
1.90762e+07
1.90815e+07
1.90868e+07
1.90921e+07
1.90973e+07
1.91026e+07
1.91078e+07
1.9113e+07
1.91182e+07
1.91234e+07
1.91285e+07
1.91337e+07
1.91388e+07
1.91438e+07
1.91489e+07
1.9154e+07
1.9159e+07
1.9164e+07
1.9169e+07
1.91739e+07
1.91788e+07
1.91838e+07
1.91886e+07
1.91935e+07
1.91983e+07
1.92031e+07
1.92079e+07
1.92127e+07
1.92174e+07
1.92221e+07
1.92268e+07
1.92314e+07
1.9236e+07
1.92406e+07
1.92452e+07
1.92497e+07
1.92543e+07
1.92587e+07
1.92632e+07
1.92676e+07
1.9272e+07
1.92764e+07
1.8473e+07
1.84733e+07
1.84738e+07
1.84743e+07
1.84749e+07
1.84755e+07
1.84761e+07
1.84769e+07
1.84776e+07
1.84785e+07
1.84794e+07
1.84803e+07
1.84813e+07
1.84823e+07
1.84834e+07
1.84846e+07
1.84858e+07
1.84871e+07
1.84884e+07
1.84897e+07
1.84911e+07
1.84926e+07
1.84941e+07
1.84957e+07
1.84973e+07
1.8499e+07
1.85008e+07
1.85025e+07
1.85044e+07
1.85063e+07
1.85083e+07
1.85103e+07
1.85123e+07
1.85145e+07
1.85166e+07
1.85189e+07
1.85212e+07
1.85235e+07
1.85259e+07
1.85284e+07
1.85309e+07
1.85335e+07
1.85361e+07
1.85388e+07
1.85415e+07
1.85443e+07
1.85471e+07
1.855e+07
1.85529e+07
1.85559e+07
1.85589e+07
1.8562e+07
1.85651e+07
1.85682e+07
1.85715e+07
1.85747e+07
1.8578e+07
1.85813e+07
1.85847e+07
1.85882e+07
1.85916e+07
1.85951e+07
1.85987e+07
1.86023e+07
1.8606e+07
1.86097e+07
1.86134e+07
1.86172e+07
1.8621e+07
1.86249e+07
1.86288e+07
1.86327e+07
1.86368e+07
1.86408e+07
1.86449e+07
1.8649e+07
1.86532e+07
1.86575e+07
1.86617e+07
1.86661e+07
1.86704e+07
1.86748e+07
1.86793e+07
1.86838e+07
1.86883e+07
1.86929e+07
1.86975e+07
1.87021e+07
1.87068e+07
1.87115e+07
1.87163e+07
1.8721e+07
1.87259e+07
1.87307e+07
1.87356e+07
1.87405e+07
1.87454e+07
1.87503e+07
1.87553e+07
1.87603e+07
1.87653e+07
1.87704e+07
1.87754e+07
1.87805e+07
1.87856e+07
1.87907e+07
1.87959e+07
1.8801e+07
1.88062e+07
1.88114e+07
1.88166e+07
1.88218e+07
1.88271e+07
1.88323e+07
1.88376e+07
1.88429e+07
1.88482e+07
1.88535e+07
1.88588e+07
1.88641e+07
1.88695e+07
1.88749e+07
1.88802e+07
1.88856e+07
1.8891e+07
1.88964e+07
1.89018e+07
1.89073e+07
1.89127e+07
1.89181e+07
1.89236e+07
1.89291e+07
1.89345e+07
1.894e+07
1.89455e+07
1.8951e+07
1.89564e+07
1.89619e+07
1.89674e+07
1.89729e+07
1.89784e+07
1.89839e+07
1.89894e+07
1.89949e+07
1.90004e+07
1.90058e+07
1.90113e+07
1.90168e+07
1.90222e+07
1.90277e+07
1.90331e+07
1.90385e+07
1.9044e+07
1.90494e+07
1.90548e+07
1.90601e+07
1.90655e+07
1.90708e+07
1.90762e+07
1.90815e+07
1.90868e+07
1.90921e+07
1.90973e+07
1.91026e+07
1.91078e+07
1.9113e+07
1.91182e+07
1.91234e+07
1.91285e+07
1.91337e+07
1.91388e+07
1.91438e+07
1.91489e+07
1.9154e+07
1.9159e+07
1.9164e+07
1.9169e+07
1.91739e+07
1.91788e+07
1.91838e+07
1.91886e+07
1.91935e+07
1.91983e+07
1.92031e+07
1.92079e+07
1.92127e+07
1.92174e+07
1.92221e+07
1.92268e+07
1.92314e+07
1.9236e+07
1.92406e+07
1.92452e+07
1.92497e+07
1.92543e+07
1.92587e+07
1.92632e+07
1.92676e+07
1.9272e+07
1.92764e+07
1.8473e+07
1.84733e+07
1.84738e+07
1.84743e+07
1.84749e+07
1.84755e+07
1.84761e+07
1.84769e+07
1.84776e+07
1.84785e+07
1.84794e+07
1.84803e+07
1.84813e+07
1.84823e+07
1.84834e+07
1.84846e+07
1.84858e+07
1.84871e+07
1.84884e+07
1.84897e+07
1.84911e+07
1.84926e+07
1.84941e+07
1.84957e+07
1.84973e+07
1.8499e+07
1.85008e+07
1.85025e+07
1.85044e+07
1.85063e+07
1.85083e+07
1.85103e+07
1.85123e+07
1.85145e+07
1.85166e+07
1.85189e+07
1.85212e+07
1.85235e+07
1.85259e+07
1.85284e+07
1.85309e+07
1.85335e+07
1.85361e+07
1.85388e+07
1.85415e+07
1.85443e+07
1.85471e+07
1.855e+07
1.85529e+07
1.85559e+07
1.85589e+07
1.8562e+07
1.85651e+07
1.85682e+07
1.85715e+07
1.85747e+07
1.8578e+07
1.85813e+07
1.85847e+07
1.85882e+07
1.85916e+07
1.85951e+07
1.85987e+07
1.86023e+07
1.8606e+07
1.86097e+07
1.86134e+07
1.86172e+07
1.8621e+07
1.86249e+07
1.86288e+07
1.86327e+07
1.86368e+07
1.86408e+07
1.86449e+07
1.8649e+07
1.86532e+07
1.86575e+07
1.86617e+07
1.86661e+07
1.86704e+07
1.86748e+07
1.86793e+07
1.86838e+07
1.86883e+07
1.86929e+07
1.86975e+07
1.87021e+07
1.87068e+07
1.87115e+07
1.87163e+07
1.8721e+07
1.87259e+07
1.87307e+07
1.87356e+07
1.87405e+07
1.87454e+07
1.87503e+07
1.87553e+07
1.87603e+07
1.87653e+07
1.87704e+07
1.87754e+07
1.87805e+07
1.87856e+07
1.87907e+07
1.87959e+07
1.8801e+07
1.88062e+07
1.88114e+07
1.88166e+07
1.88218e+07
1.88271e+07
1.88323e+07
1.88376e+07
1.88429e+07
1.88482e+07
1.88535e+07
1.88588e+07
1.88641e+07
1.88695e+07
1.88749e+07
1.88802e+07
1.88856e+07
1.8891e+07
1.88964e+07
1.89018e+07
1.89073e+07
1.89127e+07
1.89181e+07
1.89236e+07
1.89291e+07
1.89345e+07
1.894e+07
1.89455e+07
1.8951e+07
1.89564e+07
1.89619e+07
1.89674e+07
1.89729e+07
1.89784e+07
1.89839e+07
1.89894e+07
1.89949e+07
1.90004e+07
1.90058e+07
1.90113e+07
1.90168e+07
1.90222e+07
1.90277e+07
1.90331e+07
1.90385e+07
1.9044e+07
1.90494e+07
1.90548e+07
1.90601e+07
1.90655e+07
1.90708e+07
1.90762e+07
1.90815e+07
1.90868e+07
1.90921e+07
1.90973e+07
1.91026e+07
1.91078e+07
1.9113e+07
1.91182e+07
1.91234e+07
1.91285e+07
1.91337e+07
1.91388e+07
1.91438e+07
1.91489e+07
1.9154e+07
1.9159e+07
1.9164e+07
1.9169e+07
1.91739e+07
1.91788e+07
1.91838e+07
1.91886e+07
1.91935e+07
1.91983e+07
1.92031e+07
1.92079e+07
1.92127e+07
1.92174e+07
1.92221e+07
1.92268e+07
1.92314e+07
1.9236e+07
1.92406e+07
1.92452e+07
1.92497e+07
1.92543e+07
1.92587e+07
1.92632e+07
1.92676e+07
1.9272e+07
1.92764e+07
1.8473e+07
1.84733e+07
1.84738e+07
1.84743e+07
1.84749e+07
1.84755e+07
1.84761e+07
1.84769e+07
1.84776e+07
1.84785e+07
1.84794e+07
1.84803e+07
1.84813e+07
1.84823e+07
1.84834e+07
1.84846e+07
1.84858e+07
1.84871e+07
1.84884e+07
1.84897e+07
1.84911e+07
1.84926e+07
1.84941e+07
1.84957e+07
1.84973e+07
1.8499e+07
1.85008e+07
1.85025e+07
1.85044e+07
1.85063e+07
1.85083e+07
1.85103e+07
1.85123e+07
1.85145e+07
1.85166e+07
1.85189e+07
1.85212e+07
1.85235e+07
1.85259e+07
1.85284e+07
1.85309e+07
1.85335e+07
1.85361e+07
1.85388e+07
1.85415e+07
1.85443e+07
1.85471e+07
1.855e+07
1.85529e+07
1.85559e+07
1.85589e+07
1.8562e+07
1.85651e+07
1.85682e+07
1.85715e+07
1.85747e+07
1.8578e+07
1.85813e+07
1.85847e+07
1.85882e+07
1.85916e+07
1.85951e+07
1.85987e+07
1.86023e+07
1.8606e+07
1.86097e+07
1.86134e+07
1.86172e+07
1.8621e+07
1.86249e+07
1.86288e+07
1.86327e+07
1.86368e+07
1.86408e+07
1.86449e+07
1.8649e+07
1.86532e+07
1.86575e+07
1.86617e+07
1.86661e+07
1.86704e+07
1.86748e+07
1.86793e+07
1.86838e+07
1.86883e+07
1.86929e+07
1.86975e+07
1.87021e+07
1.87068e+07
1.87115e+07
1.87163e+07
1.8721e+07
1.87259e+07
1.87307e+07
1.87356e+07
1.87405e+07
1.87454e+07
1.87503e+07
1.87553e+07
1.87603e+07
1.87653e+07
1.87704e+07
1.87754e+07
1.87805e+07
1.87856e+07
1.87907e+07
1.87959e+07
1.8801e+07
1.88062e+07
1.88114e+07
1.88166e+07
1.88218e+07
1.88271e+07
1.88323e+07
1.88376e+07
1.88429e+07
1.88482e+07
1.88535e+07
1.88588e+07
1.88641e+07
1.88695e+07
1.88749e+07
1.88802e+07
1.88856e+07
1.8891e+07
1.88964e+07
1.89018e+07
1.89073e+07
1.89127e+07
1.89181e+07
1.89236e+07
1.89291e+07
1.89345e+07
1.894e+07
1.89455e+07
1.8951e+07
1.89564e+07
1.89619e+07
1.89674e+07
1.89729e+07
1.89784e+07
1.89839e+07
1.89894e+07
1.89949e+07
1.90004e+07
1.90058e+07
1.90113e+07
1.90168e+07
1.90222e+07
1.90277e+07
1.90331e+07
1.90385e+07
1.9044e+07
1.90494e+07
1.90548e+07
1.90601e+07
1.90655e+07
1.90708e+07
1.90762e+07
1.90815e+07
1.90868e+07
1.90921e+07
1.90973e+07
1.91026e+07
1.91078e+07
1.9113e+07
1.91182e+07
1.91234e+07
1.91285e+07
1.91337e+07
1.91388e+07
1.91438e+07
1.91489e+07
1.9154e+07
1.9159e+07
1.9164e+07
1.9169e+07
1.91739e+07
1.91788e+07
1.91838e+07
1.91886e+07
1.91935e+07
1.91983e+07
1.92031e+07
1.92079e+07
1.92127e+07
1.92174e+07
1.92221e+07
1.92268e+07
1.92314e+07
1.9236e+07
1.92406e+07
1.92452e+07
1.92497e+07
1.92543e+07
1.92587e+07
1.92632e+07
1.92676e+07
1.9272e+07
1.92764e+07
1.92793e+07
1.92804e+07
1.92814e+07
1.92823e+07
1.92832e+07
1.92841e+07
1.92849e+07
1.92855e+07
1.9286e+07
1.92867e+07
1.92875e+07
1.92884e+07
1.92897e+07
1.92914e+07
1.92928e+07
1.92934e+07
1.92929e+07
1.92918e+07
1.92918e+07
1.92921e+07
1.92791e+07
1.92802e+07
1.92811e+07
1.9282e+07
1.92829e+07
1.92838e+07
1.92846e+07
1.92851e+07
1.92856e+07
1.92864e+07
1.92872e+07
1.92881e+07
1.92895e+07
1.92912e+07
1.92924e+07
1.92928e+07
1.92921e+07
1.92908e+07
1.92909e+07
1.92914e+07
1.92789e+07
1.92798e+07
1.92805e+07
1.92813e+07
1.9282e+07
1.92826e+07
1.92833e+07
1.92839e+07
1.92845e+07
1.92851e+07
1.92855e+07
1.9286e+07
1.92864e+07
1.92867e+07
1.92871e+07
1.92876e+07
1.9288e+07
1.92886e+07
1.9289e+07
1.92895e+07
1.92791e+07
1.92798e+07
1.92805e+07
1.9281e+07
1.92816e+07
1.92821e+07
1.92826e+07
1.9283e+07
1.92835e+07
1.92839e+07
1.92844e+07
1.92848e+07
1.92853e+07
1.92857e+07
1.92862e+07
1.92866e+07
1.9287e+07
1.92874e+07
1.92879e+07
1.92884e+07
1.92787e+07
1.92791e+07
1.92797e+07
1.92803e+07
1.92808e+07
1.92813e+07
1.92817e+07
1.92821e+07
1.92825e+07
1.9283e+07
1.92834e+07
1.92838e+07
1.92842e+07
1.92846e+07
1.9285e+07
1.92853e+07
1.92857e+07
1.92861e+07
1.92866e+07
1.92871e+07
1.92921e+07
1.92977e+07
1.93004e+07
1.93015e+07
1.93042e+07
1.93086e+07
1.9312e+07
1.93135e+07
1.93164e+07
1.93209e+07
1.93237e+07
1.93253e+07
1.93282e+07
1.93324e+07
1.93368e+07
1.93381e+07
1.93397e+07
1.93426e+07
1.93461e+07
1.93515e+07
1.93538e+07
1.93544e+07
1.93565e+07
1.93594e+07
1.93628e+07
1.93664e+07
1.93684e+07
1.93702e+07
1.93728e+07
1.93755e+07
1.93781e+07
1.93808e+07
1.93834e+07
1.9386e+07
1.93886e+07
1.93911e+07
1.93938e+07
1.93966e+07
1.94002e+07
1.94022e+07
1.94038e+07
1.9406e+07
1.94084e+07
1.94108e+07
1.94131e+07
1.94155e+07
1.94178e+07
1.94201e+07
1.94224e+07
1.94246e+07
1.94269e+07
1.94291e+07
1.94313e+07
1.94334e+07
1.94356e+07
1.94377e+07
1.94398e+07
1.94419e+07
1.9444e+07
1.9446e+07
1.9448e+07
1.945e+07
1.9452e+07
1.9454e+07
1.94559e+07
1.94578e+07
1.94597e+07
1.94616e+07
1.94634e+07
1.94653e+07
1.94671e+07
1.94689e+07
1.94706e+07
1.94723e+07
1.94741e+07
1.94758e+07
1.94774e+07
1.94791e+07
1.94807e+07
1.94823e+07
1.94839e+07
1.94855e+07
1.9487e+07
1.94885e+07
1.949e+07
1.94915e+07
1.9493e+07
1.94945e+07
1.9496e+07
1.94977e+07
1.94996e+07
1.95024e+07
1.95031e+07
1.95031e+07
1.95039e+07
1.95052e+07
1.95066e+07
1.95079e+07
1.95092e+07
1.95106e+07
1.95119e+07
1.95132e+07
1.95145e+07
1.95157e+07
1.95169e+07
1.95181e+07
1.95193e+07
1.95204e+07
1.95215e+07
1.95226e+07
1.95237e+07
1.95247e+07
1.95257e+07
1.95267e+07
1.95277e+07
1.95286e+07
1.95295e+07
1.95303e+07
1.95311e+07
1.95319e+07
1.95327e+07
1.95334e+07
1.95342e+07
1.95349e+07
1.95356e+07
1.95362e+07
1.95369e+07
1.95375e+07
1.95381e+07
1.95387e+07
1.95393e+07
1.95399e+07
1.95405e+07
1.9541e+07
1.95415e+07
1.9542e+07
1.95425e+07
1.9543e+07
1.95435e+07
1.95439e+07
1.95444e+07
1.95448e+07
1.95452e+07
1.95457e+07
1.95461e+07
1.95465e+07
1.95468e+07
1.95472e+07
1.95476e+07
1.95479e+07
1.95483e+07
1.95486e+07
1.95489e+07
1.95492e+07
1.95495e+07
1.95498e+07
1.95501e+07
1.95504e+07
1.95507e+07
1.9551e+07
1.95512e+07
1.95515e+07
1.95517e+07
1.95519e+07
1.95522e+07
1.95524e+07
1.95526e+07
1.95528e+07
1.9553e+07
1.95531e+07
1.95533e+07
1.95535e+07
1.95537e+07
1.95538e+07
1.9554e+07
1.95541e+07
1.95543e+07
1.95544e+07
1.95545e+07
1.95547e+07
1.95548e+07
1.95549e+07
1.95551e+07
1.95552e+07
1.95553e+07
1.95554e+07
1.95556e+07
1.95557e+07
1.95558e+07
1.95559e+07
1.9556e+07
1.95561e+07
1.95562e+07
1.95564e+07
1.95565e+07
1.95566e+07
1.95567e+07
1.95568e+07
1.95569e+07
1.9557e+07
1.9292e+07
1.92976e+07
1.93004e+07
1.93015e+07
1.93042e+07
1.93086e+07
1.9312e+07
1.93135e+07
1.93164e+07
1.93209e+07
1.93237e+07
1.93253e+07
1.93282e+07
1.93325e+07
1.93368e+07
1.93381e+07
1.93397e+07
1.93426e+07
1.93461e+07
1.93515e+07
1.93538e+07
1.93544e+07
1.93565e+07
1.93594e+07
1.93628e+07
1.93664e+07
1.93683e+07
1.93702e+07
1.93728e+07
1.93755e+07
1.93781e+07
1.93808e+07
1.93834e+07
1.9386e+07
1.93886e+07
1.93911e+07
1.93938e+07
1.93966e+07
1.94002e+07
1.94022e+07
1.94038e+07
1.9406e+07
1.94084e+07
1.94108e+07
1.94131e+07
1.94155e+07
1.94178e+07
1.94201e+07
1.94224e+07
1.94246e+07
1.94269e+07
1.94291e+07
1.94313e+07
1.94334e+07
1.94356e+07
1.94377e+07
1.94398e+07
1.94419e+07
1.9444e+07
1.9446e+07
1.9448e+07
1.945e+07
1.9452e+07
1.9454e+07
1.94559e+07
1.94578e+07
1.94597e+07
1.94616e+07
1.94634e+07
1.94653e+07
1.94671e+07
1.94689e+07
1.94706e+07
1.94723e+07
1.94741e+07
1.94758e+07
1.94774e+07
1.94791e+07
1.94807e+07
1.94823e+07
1.94839e+07
1.94855e+07
1.9487e+07
1.94885e+07
1.949e+07
1.94915e+07
1.9493e+07
1.94945e+07
1.9496e+07
1.94977e+07
1.94997e+07
1.95024e+07
1.95031e+07
1.95031e+07
1.95039e+07
1.95052e+07
1.95066e+07
1.95079e+07
1.95092e+07
1.95105e+07
1.95119e+07
1.95132e+07
1.95145e+07
1.95157e+07
1.95169e+07
1.95181e+07
1.95193e+07
1.95204e+07
1.95215e+07
1.95226e+07
1.95237e+07
1.95247e+07
1.95257e+07
1.95267e+07
1.95277e+07
1.95286e+07
1.95295e+07
1.95303e+07
1.95311e+07
1.95319e+07
1.95327e+07
1.95334e+07
1.95342e+07
1.95349e+07
1.95356e+07
1.95362e+07
1.95369e+07
1.95375e+07
1.95381e+07
1.95387e+07
1.95393e+07
1.95399e+07
1.95405e+07
1.9541e+07
1.95415e+07
1.9542e+07
1.95425e+07
1.9543e+07
1.95435e+07
1.95439e+07
1.95444e+07
1.95448e+07
1.95452e+07
1.95457e+07
1.95461e+07
1.95465e+07
1.95468e+07
1.95472e+07
1.95476e+07
1.95479e+07
1.95483e+07
1.95486e+07
1.95489e+07
1.95492e+07
1.95495e+07
1.95498e+07
1.95501e+07
1.95504e+07
1.95507e+07
1.9551e+07
1.95512e+07
1.95515e+07
1.95517e+07
1.95519e+07
1.95522e+07
1.95524e+07
1.95526e+07
1.95528e+07
1.9553e+07
1.95531e+07
1.95533e+07
1.95535e+07
1.95537e+07
1.95538e+07
1.9554e+07
1.95541e+07
1.95543e+07
1.95544e+07
1.95545e+07
1.95547e+07
1.95548e+07
1.95549e+07
1.95551e+07
1.95552e+07
1.95553e+07
1.95554e+07
1.95556e+07
1.95557e+07
1.95558e+07
1.95559e+07
1.9556e+07
1.95561e+07
1.95562e+07
1.95564e+07
1.95565e+07
1.95566e+07
1.95567e+07
1.95568e+07
1.95569e+07
1.9557e+07
1.92905e+07
1.92943e+07
1.92974e+07
1.93005e+07
1.93037e+07
1.93068e+07
1.93097e+07
1.93128e+07
1.93159e+07
1.93188e+07
1.93217e+07
1.93247e+07
1.93278e+07
1.93308e+07
1.93335e+07
1.93363e+07
1.93393e+07
1.93423e+07
1.93454e+07
1.93479e+07
1.93505e+07
1.93534e+07
1.93563e+07
1.93592e+07
1.9362e+07
1.93646e+07
1.93673e+07
1.937e+07
1.93727e+07
1.93754e+07
1.93781e+07
1.93808e+07
1.93834e+07
1.9386e+07
1.93886e+07
1.93911e+07
1.93937e+07
1.93963e+07
1.93986e+07
1.9401e+07
1.94035e+07
1.94059e+07
1.94084e+07
1.94107e+07
1.94131e+07
1.94155e+07
1.94178e+07
1.94201e+07
1.94224e+07
1.94246e+07
1.94269e+07
1.94291e+07
1.94313e+07
1.94334e+07
1.94356e+07
1.94377e+07
1.94398e+07
1.94419e+07
1.9444e+07
1.9446e+07
1.94481e+07
1.94501e+07
1.9452e+07
1.9454e+07
1.94559e+07
1.94578e+07
1.94597e+07
1.94616e+07
1.94634e+07
1.94653e+07
1.94671e+07
1.94689e+07
1.94706e+07
1.94724e+07
1.94741e+07
1.94758e+07
1.94774e+07
1.94791e+07
1.94807e+07
1.94823e+07
1.94839e+07
1.94855e+07
1.94871e+07
1.94886e+07
1.94901e+07
1.94916e+07
1.94931e+07
1.94946e+07
1.94961e+07
1.94976e+07
1.94991e+07
1.95001e+07
1.95013e+07
1.95026e+07
1.9504e+07
1.95053e+07
1.95067e+07
1.9508e+07
1.95094e+07
1.95107e+07
1.9512e+07
1.95133e+07
1.95146e+07
1.95158e+07
1.9517e+07
1.95182e+07
1.95193e+07
1.95205e+07
1.95216e+07
1.95226e+07
1.95237e+07
1.95247e+07
1.95257e+07
1.95267e+07
1.95277e+07
1.95286e+07
1.95295e+07
1.95303e+07
1.95311e+07
1.95319e+07
1.95327e+07
1.95334e+07
1.95342e+07
1.95349e+07
1.95356e+07
1.95362e+07
1.95369e+07
1.95375e+07
1.95381e+07
1.95387e+07
1.95393e+07
1.95399e+07
1.95405e+07
1.9541e+07
1.95415e+07
1.9542e+07
1.95425e+07
1.9543e+07
1.95435e+07
1.95439e+07
1.95444e+07
1.95448e+07
1.95452e+07
1.95457e+07
1.95461e+07
1.95465e+07
1.95468e+07
1.95472e+07
1.95476e+07
1.95479e+07
1.95483e+07
1.95486e+07
1.95489e+07
1.95492e+07
1.95495e+07
1.95498e+07
1.95501e+07
1.95504e+07
1.95507e+07
1.9551e+07
1.95512e+07
1.95515e+07
1.95517e+07
1.95519e+07
1.95522e+07
1.95524e+07
1.95526e+07
1.95528e+07
1.9553e+07
1.95531e+07
1.95533e+07
1.95535e+07
1.95537e+07
1.95538e+07
1.9554e+07
1.95541e+07
1.95543e+07
1.95544e+07
1.95545e+07
1.95547e+07
1.95548e+07
1.95549e+07
1.95551e+07
1.95552e+07
1.95553e+07
1.95554e+07
1.95556e+07
1.95557e+07
1.95558e+07
1.95559e+07
1.9556e+07
1.95561e+07
1.95562e+07
1.95564e+07
1.95565e+07
1.95566e+07
1.95567e+07
1.95568e+07
1.95569e+07
1.9557e+07
1.92899e+07
1.92935e+07
1.92965e+07
1.92995e+07
1.93026e+07
1.93057e+07
1.93087e+07
1.93117e+07
1.93148e+07
1.93179e+07
1.93208e+07
1.93239e+07
1.9327e+07
1.933e+07
1.93329e+07
1.93357e+07
1.93387e+07
1.93417e+07
1.93447e+07
1.93475e+07
1.93502e+07
1.9353e+07
1.93559e+07
1.93587e+07
1.93615e+07
1.93643e+07
1.93669e+07
1.93697e+07
1.93724e+07
1.93751e+07
1.93778e+07
1.93805e+07
1.93832e+07
1.93858e+07
1.93884e+07
1.9391e+07
1.93936e+07
1.93961e+07
1.93986e+07
1.9401e+07
1.94034e+07
1.94059e+07
1.94083e+07
1.94107e+07
1.94131e+07
1.94154e+07
1.94178e+07
1.94201e+07
1.94224e+07
1.94246e+07
1.94269e+07
1.94291e+07
1.94313e+07
1.94335e+07
1.94356e+07
1.94377e+07
1.94398e+07
1.94419e+07
1.9444e+07
1.9446e+07
1.94481e+07
1.94501e+07
1.9452e+07
1.9454e+07
1.94559e+07
1.94578e+07
1.94597e+07
1.94616e+07
1.94635e+07
1.94653e+07
1.94671e+07
1.94689e+07
1.94706e+07
1.94724e+07
1.94741e+07
1.94758e+07
1.94775e+07
1.94791e+07
1.94808e+07
1.94824e+07
1.9484e+07
1.94856e+07
1.94871e+07
1.94887e+07
1.94902e+07
1.94917e+07
1.94933e+07
1.94948e+07
1.94963e+07
1.94978e+07
1.94992e+07
1.95004e+07
1.95015e+07
1.95027e+07
1.95041e+07
1.95055e+07
1.95069e+07
1.95082e+07
1.95095e+07
1.95108e+07
1.95121e+07
1.95134e+07
1.95147e+07
1.95159e+07
1.95171e+07
1.95182e+07
1.95194e+07
1.95205e+07
1.95216e+07
1.95227e+07
1.95237e+07
1.95247e+07
1.95258e+07
1.95267e+07
1.95277e+07
1.95286e+07
1.95295e+07
1.95303e+07
1.95311e+07
1.95319e+07
1.95327e+07
1.95334e+07
1.95342e+07
1.95349e+07
1.95356e+07
1.95362e+07
1.95369e+07
1.95375e+07
1.95381e+07
1.95387e+07
1.95393e+07
1.95399e+07
1.95405e+07
1.9541e+07
1.95415e+07
1.9542e+07
1.95425e+07
1.9543e+07
1.95435e+07
1.95439e+07
1.95444e+07
1.95448e+07
1.95452e+07
1.95457e+07
1.95461e+07
1.95465e+07
1.95468e+07
1.95472e+07
1.95476e+07
1.95479e+07
1.95483e+07
1.95486e+07
1.95489e+07
1.95492e+07
1.95495e+07
1.95498e+07
1.95501e+07
1.95504e+07
1.95507e+07
1.9551e+07
1.95512e+07
1.95515e+07
1.95517e+07
1.95519e+07
1.95522e+07
1.95524e+07
1.95526e+07
1.95528e+07
1.9553e+07
1.95531e+07
1.95533e+07
1.95535e+07
1.95537e+07
1.95538e+07
1.9554e+07
1.95541e+07
1.95543e+07
1.95544e+07
1.95545e+07
1.95547e+07
1.95548e+07
1.95549e+07
1.95551e+07
1.95552e+07
1.95553e+07
1.95554e+07
1.95556e+07
1.95557e+07
1.95558e+07
1.95559e+07
1.9556e+07
1.95561e+07
1.95562e+07
1.95564e+07
1.95565e+07
1.95566e+07
1.95567e+07
1.95568e+07
1.95569e+07
1.9557e+07
1.92897e+07
1.92935e+07
1.92965e+07
1.92995e+07
1.93026e+07
1.93057e+07
1.93087e+07
1.93117e+07
1.93148e+07
1.93179e+07
1.93208e+07
1.93239e+07
1.9327e+07
1.933e+07
1.93328e+07
1.93357e+07
1.93387e+07
1.93417e+07
1.93447e+07
1.93475e+07
1.93502e+07
1.9353e+07
1.93559e+07
1.93587e+07
1.93615e+07
1.93643e+07
1.93669e+07
1.93697e+07
1.93724e+07
1.93751e+07
1.93778e+07
1.93805e+07
1.93832e+07
1.93858e+07
1.93884e+07
1.9391e+07
1.93936e+07
1.93961e+07
1.93986e+07
1.9401e+07
1.94034e+07
1.94059e+07
1.94083e+07
1.94107e+07
1.94131e+07
1.94154e+07
1.94178e+07
1.94201e+07
1.94224e+07
1.94246e+07
1.94269e+07
1.94291e+07
1.94313e+07
1.94335e+07
1.94356e+07
1.94377e+07
1.94398e+07
1.94419e+07
1.9444e+07
1.9446e+07
1.94481e+07
1.94501e+07
1.9452e+07
1.9454e+07
1.94559e+07
1.94578e+07
1.94597e+07
1.94616e+07
1.94635e+07
1.94653e+07
1.94671e+07
1.94689e+07
1.94706e+07
1.94724e+07
1.94741e+07
1.94758e+07
1.94775e+07
1.94791e+07
1.94808e+07
1.94824e+07
1.9484e+07
1.94856e+07
1.94871e+07
1.94887e+07
1.94902e+07
1.94917e+07
1.94933e+07
1.94948e+07
1.94963e+07
1.94978e+07
1.94991e+07
1.95004e+07
1.95015e+07
1.95027e+07
1.95041e+07
1.95055e+07
1.95069e+07
1.95082e+07
1.95095e+07
1.95108e+07
1.95121e+07
1.95134e+07
1.95147e+07
1.95159e+07
1.95171e+07
1.95182e+07
1.95194e+07
1.95205e+07
1.95216e+07
1.95227e+07
1.95237e+07
1.95247e+07
1.95258e+07
1.95267e+07
1.95277e+07
1.95286e+07
1.95295e+07
1.95303e+07
1.95311e+07
1.95319e+07
1.95327e+07
1.95334e+07
1.95342e+07
1.95349e+07
1.95356e+07
1.95362e+07
1.95369e+07
1.95375e+07
1.95381e+07
1.95387e+07
1.95393e+07
1.95399e+07
1.95405e+07
1.9541e+07
1.95415e+07
1.9542e+07
1.95425e+07
1.9543e+07
1.95435e+07
1.95439e+07
1.95444e+07
1.95448e+07
1.95452e+07
1.95457e+07
1.95461e+07
1.95465e+07
1.95468e+07
1.95472e+07
1.95476e+07
1.95479e+07
1.95483e+07
1.95486e+07
1.95489e+07
1.95492e+07
1.95495e+07
1.95498e+07
1.95501e+07
1.95504e+07
1.95507e+07
1.9551e+07
1.95512e+07
1.95515e+07
1.95517e+07
1.95519e+07
1.95522e+07
1.95524e+07
1.95526e+07
1.95528e+07
1.9553e+07
1.95531e+07
1.95533e+07
1.95535e+07
1.95537e+07
1.95538e+07
1.9554e+07
1.95541e+07
1.95543e+07
1.95544e+07
1.95545e+07
1.95547e+07
1.95548e+07
1.95549e+07
1.95551e+07
1.95552e+07
1.95553e+07
1.95554e+07
1.95556e+07
1.95557e+07
1.95558e+07
1.95559e+07
1.9556e+07
1.95561e+07
1.95562e+07
1.95564e+07
1.95565e+07
1.95566e+07
1.95567e+07
1.95568e+07
1.95569e+07
1.9557e+07
1.9557e+07
1.9557e+07
1.9557e+07
1.9557e+07
1.9557e+07
1.9557e+07
1.9557e+07
1.95569e+07
1.95569e+07
1.95569e+07
1.95569e+07
1.95569e+07
1.95569e+07
1.95568e+07
1.95568e+07
1.95568e+07
1.95568e+07
1.95568e+07
1.95568e+07
1.95568e+07
1.9557e+07
1.9557e+07
1.9557e+07
1.9557e+07
1.9557e+07
1.9557e+07
1.9557e+07
1.9557e+07
1.9557e+07
1.9557e+07
1.95569e+07
1.95569e+07
1.95569e+07
1.95569e+07
1.95569e+07
1.95569e+07
1.95569e+07
1.95569e+07
1.95569e+07
1.95569e+07
1.9557e+07
1.95571e+07
1.95571e+07
1.95571e+07
1.95571e+07
1.95571e+07
1.95571e+07
1.95572e+07
1.95572e+07
1.95572e+07
1.95571e+07
1.95571e+07
1.95571e+07
1.95571e+07
1.95571e+07
1.95571e+07
1.95571e+07
1.95571e+07
1.95571e+07
1.95571e+07
1.95571e+07
1.95571e+07
1.95571e+07
1.95572e+07
1.95572e+07
1.95572e+07
1.95573e+07
1.95573e+07
1.95573e+07
1.95574e+07
1.95576e+07
1.95577e+07
1.95579e+07
1.95579e+07
1.95577e+07
1.95574e+07
1.95575e+07
1.95575e+07
1.95576e+07
1.95575e+07
1.95571e+07
1.95571e+07
1.95572e+07
1.95572e+07
1.95572e+07
1.95573e+07
1.95573e+07
1.95573e+07
1.95574e+07
1.95574e+07
1.95576e+07
1.95578e+07
1.95579e+07
1.9558e+07
1.95578e+07
1.95576e+07
1.95576e+07
1.95576e+07
1.95576e+07
1.95575e+07
1.95568e+07
1.95568e+07
1.95567e+07
1.95567e+07
1.95567e+07
1.95567e+07
1.95565e+07
1.95564e+07
1.95565e+07
1.95565e+07
1.95563e+07
1.95563e+07
1.95565e+07
1.95567e+07
1.95565e+07
1.95564e+07
1.95568e+07
1.95572e+07
1.95573e+07
1.9557e+07
1.95566e+07
1.95568e+07
1.95576e+07
1.95579e+07
1.95579e+07
1.95574e+07
1.9557e+07
1.95572e+07
1.95582e+07
1.95587e+07
1.95586e+07
1.9558e+07
1.95571e+07
1.95563e+07
1.95563e+07
1.95568e+07
1.95572e+07
1.95574e+07
1.95576e+07
1.95577e+07
1.95578e+07
1.95579e+07
1.9558e+07
1.95581e+07
1.95582e+07
1.95583e+07
1.95583e+07
1.95584e+07
1.95585e+07
1.95585e+07
1.95586e+07
1.95587e+07
1.95587e+07
1.95588e+07
1.95589e+07
1.9559e+07
1.9559e+07
1.95591e+07
1.95592e+07
1.95593e+07
1.95594e+07
1.95595e+07
1.95597e+07
1.95598e+07
1.95599e+07
1.956e+07
1.95602e+07
1.95603e+07
1.95605e+07
1.95609e+07
1.95613e+07
1.95618e+07
1.9562e+07
1.95617e+07
1.9561e+07
1.95601e+07
1.95602e+07
1.95607e+07
1.9561e+07
1.95613e+07
1.95615e+07
1.95616e+07
1.95617e+07
1.95618e+07
1.95619e+07
1.95621e+07
1.95622e+07
1.95623e+07
1.95625e+07
1.95627e+07
1.95629e+07
1.95631e+07
1.95633e+07
1.95634e+07
1.95635e+07
1.95636e+07
1.95637e+07
1.95638e+07
1.95639e+07
1.95638e+07
1.95568e+07
1.95568e+07
1.95566e+07
1.95567e+07
1.95567e+07
1.95567e+07
1.95565e+07
1.95564e+07
1.95565e+07
1.95565e+07
1.95563e+07
1.95563e+07
1.95565e+07
1.95567e+07
1.95565e+07
1.95564e+07
1.95568e+07
1.95572e+07
1.95573e+07
1.9557e+07
1.95566e+07
1.95568e+07
1.95576e+07
1.9558e+07
1.95579e+07
1.95574e+07
1.9557e+07
1.95572e+07
1.95582e+07
1.95587e+07
1.95586e+07
1.95581e+07
1.95571e+07
1.95563e+07
1.95563e+07
1.95568e+07
1.95572e+07
1.95574e+07
1.95576e+07
1.95577e+07
1.95578e+07
1.95579e+07
1.9558e+07
1.95581e+07
1.95582e+07
1.95583e+07
1.95583e+07
1.95584e+07
1.95585e+07
1.95585e+07
1.95586e+07
1.95587e+07
1.95587e+07
1.95588e+07
1.95589e+07
1.9559e+07
1.9559e+07
1.95591e+07
1.95592e+07
1.95593e+07
1.95594e+07
1.95595e+07
1.95597e+07
1.95598e+07
1.95599e+07
1.956e+07
1.95602e+07
1.95603e+07
1.95605e+07
1.95609e+07
1.95613e+07
1.95618e+07
1.9562e+07
1.95618e+07
1.9561e+07
1.95601e+07
1.95602e+07
1.95607e+07
1.9561e+07
1.95613e+07
1.95615e+07
1.95616e+07
1.95617e+07
1.95618e+07
1.95619e+07
1.95621e+07
1.95622e+07
1.95623e+07
1.95625e+07
1.95627e+07
1.95629e+07
1.95631e+07
1.95633e+07
1.95634e+07
1.95635e+07
1.95636e+07
1.95637e+07
1.95638e+07
1.95639e+07
1.95638e+07
1.95571e+07
1.95571e+07
1.9557e+07
1.95571e+07
1.95572e+07
1.95572e+07
1.95569e+07
1.95568e+07
1.9557e+07
1.95571e+07
1.95566e+07
1.95566e+07
1.95567e+07
1.95574e+07
1.95568e+07
1.95564e+07
1.95566e+07
1.95571e+07
1.95579e+07
1.95574e+07
1.95564e+07
1.95565e+07
1.95572e+07
1.95581e+07
1.95584e+07
1.95579e+07
1.95568e+07
1.95568e+07
1.95577e+07
1.95589e+07
1.95593e+07
1.95589e+07
1.95572e+07
1.95561e+07
1.95563e+07
1.95568e+07
1.95574e+07
1.95578e+07
1.9558e+07
1.95582e+07
1.95582e+07
1.95583e+07
1.95583e+07
1.95584e+07
1.95584e+07
1.95585e+07
1.95585e+07
1.95586e+07
1.95586e+07
1.95587e+07
1.95587e+07