/*--------------------------------*- C++ -*----------------------------------*\
| =========                 |                                                 |
| \\      /  F ield         | OpenFOAM: The Open Source CFD Toolbox           |
|  \\    /   O peration     | Version:  3.0.x                                 |
|   \\  /    A nd           | Web:      www.OpenFOAM.org                      |
|    \\/     M anipulation  |                                                 |
\*---------------------------------------------------------------------------*/
FoamFile
{
    version     2.0;
    format      ascii;
    class       volScalarField;
    location    "0.53";
    object      rho;
}
// * * * * * * * * * * * * * * * * * * * * * * * * * * * * * * * * * * * * * //

dimensions      [1 -3 0 0 0 0 0];

internalField   nonuniform List<scalar> 
6900
(
51.5581
51.5599
51.5625
51.565
51.5673
51.5694
51.5713
51.5733
51.5754
51.5775
51.5796
51.5818
51.5841
51.5866
51.5891
51.5918
51.5946
51.5976
51.6006
51.6038
51.6071
51.6105
51.6141
51.6177
51.6215
51.6254
51.6295
51.6336
51.6379
51.6424
51.6469
51.6516
51.6564
51.6614
51.6665
51.6717
51.677
51.6825
51.688
51.6938
51.6996
51.7056
51.7116
51.7178
51.7242
51.7307
51.7374
51.7443
51.7513
51.7583
51.7654
51.7727
51.7799
51.7873
51.7948
51.8024
51.8102
51.818
51.826
51.8342
51.8425
51.8509
51.8594
51.868
51.8767
51.8854
51.8942
51.9031
51.912
51.9211
51.9303
51.9396
51.9491
51.9586
51.9683
51.9781
51.988
51.9979
52.0079
52.0181
52.0282
52.0385
52.0489
52.0593
52.0698
52.0805
52.0912
52.1019
52.1128
52.1237
52.1348
52.1459
52.157
52.1683
52.1795
52.1909
52.2023
52.2138
52.2253
52.2369
52.2486
52.2603
52.272
52.2838
52.2956
52.3075
52.3194
52.3313
52.3433
52.3554
52.3674
52.3796
52.3917
52.4039
52.4161
52.4283
52.4406
52.4529
52.4653
52.4776
52.49
52.5025
52.5149
52.5274
52.5399
52.5524
52.565
52.5775
52.5901
52.6027
52.6154
52.628
52.6407
52.6533
52.666
52.6787
52.6914
52.7041
52.7168
52.7295
52.7423
52.755
52.7677
52.7804
52.7931
52.8058
52.8184
52.8311
52.8437
52.8563
52.8689
52.8814
52.894
52.9065
52.9189
52.9314
52.9438
52.9561
52.9685
52.9808
52.993
53.0052
53.0174
53.0295
53.0416
53.0537
53.0657
53.0776
53.0895
53.1014
53.1132
53.125
53.1367
53.1483
53.1599
53.1715
53.183
53.1944
53.2059
53.2172
53.2285
53.2397
53.2509
53.2619
53.2731
53.2839
53.295
53.3056
53.3168
53.3271
53.3383
53.3483
53.3595
53.3693
53.3803
53.3901
53.4007
53.411
53.4207
53.4311
51.5583
51.5602
51.5628
51.5653
51.5676
51.5697
51.5716
51.5736
51.5757
51.5777
51.5798
51.582
51.5844
51.5868
51.5894
51.592
51.5949
51.5978
51.6009
51.604
51.6073
51.6108
51.6143
51.618
51.6217
51.6257
51.6297
51.6339
51.6382
51.6426
51.6472
51.6518
51.6567
51.6616
51.6667
51.6719
51.6772
51.6827
51.6883
51.694
51.6998
51.7058
51.7119
51.7181
51.7244
51.7309
51.7377
51.7445
51.7515
51.7585
51.7657
51.7729
51.7801
51.7875
51.795
51.8026
51.8104
51.8182
51.8262
51.8344
51.8426
51.8511
51.8596
51.8682
51.8769
51.8856
51.8944
51.9033
51.9122
51.9213
51.9305
51.9398
51.9492
51.9588
51.9685
51.9782
51.9881
51.9981
52.0081
52.0182
52.0284
52.0387
52.049
52.0595
52.07
52.0806
52.0913
52.1021
52.113
52.1239
52.1349
52.146
52.1572
52.1684
52.1797
52.1911
52.2025
52.214
52.2255
52.2371
52.2487
52.2604
52.2722
52.2839
52.2958
52.3076
52.3195
52.3315
52.3435
52.3555
52.3676
52.3797
52.3919
52.404
52.4163
52.4285
52.4408
52.4531
52.4654
52.4778
52.4902
52.5026
52.5151
52.5276
52.5401
52.5526
52.5651
52.5777
52.5903
52.6029
52.6155
52.6282
52.6408
52.6535
52.6662
52.6789
52.6916
52.7043
52.717
52.7297
52.7424
52.7551
52.7678
52.7805
52.7932
52.8059
52.8186
52.8312
52.8438
52.8565
52.869
52.8816
52.8941
52.9066
52.9191
52.9315
52.9439
52.9563
52.9686
52.9809
52.9932
53.0054
53.0176
53.0297
53.0418
53.0538
53.0658
53.0778
53.0897
53.1015
53.1133
53.1251
53.1368
53.1485
53.1601
53.1716
53.1832
53.1946
53.206
53.2173
53.2286
53.2398
53.251
53.262
53.2732
53.284
53.2952
53.3057
53.3169
53.3272
53.3384
53.3484
53.3596
53.3694
53.3805
53.3901
53.4012
53.4106
53.4215
53.4308
51.5583
51.5602
51.5628
51.5652
51.5675
51.5696
51.5716
51.5736
51.5756
51.5777
51.5798
51.582
51.5843
51.5868
51.5894
51.592
51.5949
51.5978
51.6008
51.604
51.6073
51.6108
51.6143
51.618
51.6217
51.6257
51.6297
51.6339
51.6382
51.6426
51.6471
51.6518
51.6566
51.6616
51.6667
51.6719
51.6772
51.6827
51.6883
51.694
51.6998
51.7058
51.7119
51.7181
51.7244
51.7309
51.7376
51.7445
51.7515
51.7585
51.7656
51.7729
51.7801
51.7875
51.795
51.8026
51.8103
51.8182
51.8262
51.8344
51.8426
51.8511
51.8596
51.8682
51.8769
51.8856
51.8944
51.9033
51.9122
51.9213
51.9305
51.9398
51.9492
51.9588
51.9685
51.9782
51.9881
51.9981
52.0081
52.0182
52.0284
52.0387
52.049
52.0595
52.07
52.0806
52.0913
52.1021
52.113
52.1239
52.1349
52.146
52.1572
52.1684
52.1797
52.1911
52.2025
52.214
52.2255
52.2371
52.2487
52.2604
52.2722
52.2839
52.2958
52.3076
52.3195
52.3315
52.3435
52.3555
52.3676
52.3797
52.3919
52.404
52.4163
52.4285
52.4408
52.4531
52.4654
52.4778
52.4902
52.5026
52.5151
52.5276
52.5401
52.5526
52.5651
52.5777
52.5903
52.6029
52.6155
52.6282
52.6408
52.6535
52.6662
52.6789
52.6916
52.7043
52.717
52.7297
52.7424
52.7551
52.7678
52.7805
52.7932
52.8059
52.8186
52.8312
52.8438
52.8565
52.869
52.8816
52.8941
52.9066
52.9191
52.9315
52.9439
52.9563
52.9686
52.9809
52.9932
53.0054
53.0176
53.0297
53.0418
53.0538
53.0658
53.0778
53.0897
53.1015
53.1133
53.1251
53.1368
53.1485
53.1601
53.1717
53.1832
53.1946
53.206
53.2173
53.2286
53.2398
53.251
53.2621
53.2732
53.2841
53.2951
53.3059
53.3167
53.3275
53.3381
53.3487
53.3594
53.3696
53.3803
53.3905
53.4008
53.4111
53.4212
53.4311
51.5583
51.5602
51.5628
51.5653
51.5676
51.5697
51.5716
51.5736
51.5757
51.5777
51.5798
51.582
51.5844
51.5868
51.5894
51.592
51.5949
51.5978
51.6009
51.604
51.6073
51.6108
51.6143
51.618
51.6217
51.6257
51.6297
51.6339
51.6382
51.6426
51.6472
51.6518
51.6567
51.6616
51.6667
51.6719
51.6772
51.6827
51.6883
51.694
51.6998
51.7058
51.7119
51.7181
51.7244
51.7309
51.7377
51.7445
51.7515
51.7585
51.7657
51.7729
51.7801
51.7875
51.795
51.8026
51.8104
51.8182
51.8262
51.8344
51.8426
51.8511
51.8596
51.8682
51.8769
51.8856
51.8944
51.9033
51.9122
51.9213
51.9305
51.9398
51.9492
51.9588
51.9685
51.9782
51.9881
51.9981
52.0081
52.0182
52.0284
52.0387
52.049
52.0595
52.07
52.0806
52.0913
52.1021
52.113
52.1239
52.1349
52.146
52.1572
52.1684
52.1797
52.1911
52.2025
52.214
52.2255
52.2371
52.2487
52.2604
52.2722
52.2839
52.2958
52.3076
52.3195
52.3315
52.3435
52.3555
52.3676
52.3797
52.3919
52.404
52.4163
52.4285
52.4408
52.4531
52.4654
52.4778
52.4902
52.5026
52.5151
52.5276
52.5401
52.5526
52.5651
52.5777
52.5903
52.6029
52.6155
52.6282
52.6408
52.6535
52.6662
52.6789
52.6916
52.7043
52.717
52.7297
52.7424
52.7551
52.7678
52.7805
52.7932
52.8059
52.8186
52.8312
52.8438
52.8565
52.869
52.8816
52.8941
52.9066
52.9191
52.9315
52.9439
52.9563
52.9686
52.9809
52.9932
53.0054
53.0176
53.0297
53.0418
53.0538
53.0658
53.0778
53.0897
53.1015
53.1133
53.1251
53.1368
53.1485
53.1601
53.1717
53.1832
53.1946
53.206
53.2174
53.2286
53.2399
53.2509
53.2622
53.2731
53.2843
53.2949
53.3061
53.3165
53.3277
53.3379
53.3491
53.3589
53.3702
53.3798
53.3909
53.4004
53.4114
53.421
53.431
51.5581
51.5599
51.5625
51.565
51.5673
51.5694
51.5713
51.5733
51.5754
51.5775
51.5796
51.5818
51.5841
51.5866
51.5891
51.5918
51.5946
51.5976
51.6006
51.6038
51.6071
51.6105
51.6141
51.6177
51.6215
51.6254
51.6295
51.6336
51.6379
51.6424
51.6469
51.6516
51.6564
51.6614
51.6665
51.6717
51.677
51.6825
51.688
51.6938
51.6996
51.7056
51.7116
51.7178
51.7242
51.7307
51.7374
51.7443
51.7513
51.7583
51.7654
51.7727
51.7799
51.7873
51.7948
51.8024
51.8102
51.818
51.826
51.8342
51.8425
51.8509
51.8594
51.868
51.8767
51.8854
51.8942
51.9031
51.912
51.9211
51.9303
51.9396
51.9491
51.9586
51.9683
51.9781
51.988
51.9979
52.0079
52.0181
52.0282
52.0385
52.0489
52.0593
52.0698
52.0805
52.0912
52.1019
52.1128
52.1237
52.1348
52.1459
52.157
52.1683
52.1795
52.1909
52.2023
52.2138
52.2253
52.2369
52.2486
52.2603
52.272
52.2838
52.2956
52.3075
52.3194
52.3313
52.3433
52.3554
52.3674
52.3796
52.3917
52.4039
52.4161
52.4283
52.4406
52.4529
52.4653
52.4776
52.49
52.5025
52.5149
52.5274
52.5399
52.5524
52.565
52.5775
52.5901
52.6027
52.6154
52.628
52.6407
52.6533
52.666
52.6787
52.6914
52.7041
52.7168
52.7295
52.7423
52.755
52.7677
52.7804
52.7931
52.8058
52.8184
52.8311
52.8437
52.8563
52.8689
52.8814
52.894
52.9065
52.9189
52.9314
52.9438
52.9561
52.9685
52.9808
52.993
53.0052
53.0174
53.0295
53.0416
53.0537
53.0657
53.0776
53.0895
53.1014
53.1132
53.125
53.1367
53.1483
53.1599
53.1715
53.183
53.1945
53.2058
53.2172
53.2284
53.2397
53.2508
53.262
53.2729
53.2841
53.2947
53.3059
53.3164
53.3275
53.3377
53.3489
53.3588
53.37
53.3796
53.3907
53.4003
53.4112
53.421
53.4301
53.4379
53.4404
53.4425
53.4444
53.4464
53.4483
53.45
53.4512
53.452
53.4528
53.4538
53.4555
53.4591
53.4641
53.4683
53.47
53.4682
53.465
53.4642
53.4629
53.4374
53.4397
53.4418
53.4437
53.4457
53.4478
53.4495
53.4506
53.4517
53.453
53.4541
53.4559
53.4595
53.4645
53.4682
53.4694
53.4667
53.4627
53.4625
53.4626
53.437
53.4389
53.4407
53.4424
53.444
53.4455
53.447
53.4484
53.4498
53.4508
53.4515
53.4524
53.4529
53.4529
53.4532
53.454
53.4547
53.4554
53.4554
53.4561
53.4377
53.4394
53.4411
53.4426
53.4439
53.4452
53.4464
53.4476
53.4487
53.4498
53.4509
53.452
53.4532
53.4542
53.455
53.4559
53.4567
53.4577
53.4587
53.4598
53.4362
53.4373
53.4388
53.4403
53.4417
53.4429
53.4441
53.4452
53.4463
53.4473
53.4484
53.4495
53.4505
53.4516
53.4525
53.4534
53.4542
53.4552
53.4562
53.4575
53.4626
53.4779
53.4831
53.4853
53.4926
53.5039
53.5107
53.5133
53.5203
53.532
53.5385
53.5414
53.5475
53.5579
53.5692
53.5718
53.5746
53.5812
53.5894
53.6033
53.6087
53.6092
53.6139
53.6207
53.6286
53.6375
53.6417
53.6458
53.6517
53.658
53.6641
53.6701
53.6761
53.682
53.688
53.694
53.7001
53.7064
53.7152
53.7197
53.7231
53.7281
53.7337
53.7392
53.7446
53.75
53.7554
53.7607
53.766
53.7712
53.7764
53.7815
53.7866
53.7916
53.7966
53.8015
53.8063
53.8111
53.8159
53.8206
53.8252
53.8298
53.8343
53.8388
53.8433
53.8477
53.8521
53.8565
53.8608
53.865
53.8692
53.8733
53.8774
53.8814
53.8854
53.8893
53.8932
53.897
53.9008
53.9045
53.9081
53.9116
53.9151
53.9186
53.922
53.9255
53.929
53.9325
53.936
53.9395
53.9439
53.9509
53.9521
53.9515
53.9535
53.9567
53.9599
53.963
53.9663
53.9694
53.9721
53.9746
53.9777
53.9811
53.9841
53.9862
53.9875
53.99
53.9931
53.9963
53.9988
53.9978
53.9945
53.9951
53.9979
54.0024
54.0098
54.0159
54.0201
54.0228
54.0243
54.0253
54.0265
54.0279
54.0293
54.0307
54.0321
54.0335
54.0349
54.0363
54.0376
54.0389
54.0402
54.0414
54.0426
54.0438
54.0449
54.046
54.0471
54.0482
54.0492
54.0502
54.0512
54.0521
54.053
54.0539
54.0548
54.0557
54.0565
54.0573
54.0581
54.0589
54.0596
54.0603
54.0611
54.0617
54.0624
54.0631
54.0637
54.0643
54.0649
54.0655
54.066
54.0666
54.0671
54.0676
54.068
54.0685
54.069
54.0694
54.0698
54.0702
54.0705
54.0709
54.0712
54.0716
54.0719
54.0723
54.0725
54.0729
54.0731
54.0735
54.0737
54.0741
54.0743
54.0747
54.0748
54.0753
54.0754
54.0758
54.0759
54.0763
54.0764
54.0768
54.0769
54.0773
54.0775
54.0776
54.0782
54.0782
53.4627
53.4758
53.4811
53.4842
53.4909
53.4987
53.5059
53.5103
53.5177
53.5264
53.5329
53.5375
53.5449
53.5529
53.5627
53.5667
53.5716
53.5789
53.5854
53.5967
53.6033
53.6057
53.6116
53.6188
53.6255
53.6339
53.639
53.644
53.6502
53.6565
53.6627
53.6688
53.6748
53.6808
53.6868
53.6928
53.699
53.7047
53.7124
53.7175
53.7215
53.7268
53.7325
53.738
53.7435
53.7489
53.7543
53.7597
53.765
53.7702
53.7754
53.7805
53.7856
53.7906
53.7955
53.8004
53.8052
53.81
53.8147
53.8194
53.8241
53.8287
53.8333
53.8378
53.8423
53.8468
53.8512
53.8556
53.8599
53.8641
53.8683
53.8724
53.8765
53.8805
53.8845
53.8884
53.8922
53.896
53.8997
53.9034
53.9069
53.9104
53.914
53.9175
53.921
53.9244
53.9276
53.9307
53.9338
53.9369
53.941
53.948
53.9497
53.9497
53.9521
53.9553
53.9585
53.9615
53.9642
53.9671
53.9705
53.9738
53.9765
53.9781
53.9803
53.9834
53.9867
53.9898
53.9917
53.9905
53.9885
53.9889
53.9915
53.9949
54.0006
54.0076
54.0134
54.0176
54.0205
54.0224
54.0236
54.0249
54.0263
54.0278
54.0293
54.0307
54.0322
54.0336
54.035
54.0364
54.0377
54.039
54.0403
54.0415
54.0427
54.0439
54.0451
54.0462
54.0473
54.0483
54.0493
54.0503
54.0513
54.0523
54.0532
54.0541
54.055
54.0558
54.0566
54.0574
54.0582
54.059
54.0598
54.0605
54.0612
54.0619
54.0626
54.0632
54.0638
54.0644
54.065
54.0656
54.0662
54.0667
54.0672
54.0677
54.0682
54.0686
54.0691
54.0695
54.0699
54.0703
54.0707
54.071
54.0714
54.0717
54.072
54.0724
54.0726
54.073
54.0732
54.0737
54.0738
54.0743
54.0744
54.0749
54.075
54.0754
54.0755
54.076
54.076
54.0765
54.0765
54.077
54.077
54.0774
54.0775
54.0779
54.0783
54.0781
53.4539
53.4607
53.466
53.4713
53.4766
53.4816
53.4869
53.4931
53.4992
53.5051
53.5115
53.5185
53.5252
53.5317
53.538
53.5451
53.5523
53.5592
53.5659
53.5719
53.5785
53.5858
53.5927
53.5993
53.6057
53.6119
53.6185
53.6252
53.6316
53.638
53.6443
53.6506
53.6568
53.6629
53.6689
53.6748
53.6806
53.6864
53.6917
53.6976
53.7035
53.7093
53.715
53.7207
53.7263
53.7319
53.7374
53.7428
53.7482
53.7535
53.7588
53.7639
53.769
53.7741
53.779
53.7838
53.7886
53.7934
53.7981
53.8028
53.8075
53.8121
53.8167
53.8212
53.8256
53.83
53.8343
53.8385
53.8427
53.8469
53.8509
53.8548
53.8586
53.8623
53.8661
53.8698
53.8734
53.8768
53.8802
53.8838
53.8878
53.8926
53.8978
53.9035
53.91
53.9162
53.9219
53.9273
53.9324
53.9371
53.941
53.9438
53.9471
53.9504
53.9535
53.9565
53.9594
53.9623
53.9652
53.9681
53.9711
53.9741
53.9771
53.9801
53.9831
53.9859
53.9888
53.9916
53.9944
53.9972
53.9999
54.0026
54.0053
54.0078
54.0103
54.0126
54.0147
54.0168
54.0187
54.0205
54.0223
54.024
54.0257
54.0273
54.0289
54.0305
54.032
54.0335
54.0349
54.0363
54.0377
54.039
54.0403
54.0415
54.0427
54.0439
54.0451
54.0462
54.0473
54.0483
54.0493
54.0503
54.0513
54.0523
54.0532
54.0541
54.055
54.0558
54.0566
54.0574
54.0582
54.059
54.0598
54.0605
54.0612
54.0619
54.0626
54.0632
54.0638
54.0644
54.065
54.0656
54.0662
54.0667
54.0672
54.0677
54.0682
54.0686
54.0691
54.0695
54.0699
54.0703
54.0707
54.071
54.0714
54.0717
54.0721
54.0723
54.0727
54.073
54.0733
54.0736
54.0739
54.0742
54.0745
54.0748
54.075
54.0753
54.0757
54.0758
54.0762
54.0763
54.0767
54.0769
54.0771
54.0773
54.0777
54.0778
54.0781
54.0783
53.463
53.4709
53.4777
53.4838
53.4898
53.4962
53.5031
53.5101
53.5167
53.5232
53.5298
53.5368
53.5437
53.5503
53.5567
53.5635
53.5705
53.5773
53.5838
53.5901
53.5965
53.6033
53.6101
53.6167
53.6231
53.6295
53.6359
53.6424
53.6488
53.6552
53.6615
53.6678
53.674
53.6802
53.6863
53.6924
53.6984
53.7043
53.71
53.7156
53.7214
53.7271
53.7328
53.7384
53.7439
53.7493
53.7547
53.7601
53.7654
53.7706
53.7758
53.7809
53.786
53.791
53.796
53.8009
53.8058
53.8106
53.8154
53.8201
53.8248
53.8294
53.8339
53.8384
53.8429
53.8472
53.8516
53.8559
53.8601
53.8644
53.8685
53.8727
53.8767
53.8807
53.8847
53.8887
53.8926
53.8964
53.9002
53.9039
53.9077
53.9114
53.9149
53.9185
53.9221
53.9258
53.9293
53.9327
53.9363
53.9397
53.9425
53.9449
53.947
53.9501
53.9534
53.9564
53.9592
53.962
53.9647
53.9673
53.9698
53.972
53.9739
53.9759
53.978
53.9794
53.98
53.9806
53.983
53.9862
53.9902
53.9961
54.0022
54.0075
54.0117
54.0148
54.0169
54.0183
54.0198
54.0214
54.0229
54.0245
54.0261
54.0276
54.0291
54.0306
54.0321
54.0336
54.035
54.0364
54.0377
54.039
54.0403
54.0415
54.0427
54.0439
54.0451
54.0462
54.0473
54.0483
54.0493
54.0503
54.0513
54.0523
54.0532
54.0541
54.055
54.0558
54.0566
54.0574
54.0582
54.059
54.0598
54.0605
54.0612
54.0619
54.0626
54.0632
54.0638
54.0644
54.065
54.0656
54.0662
54.0667
54.0672
54.0677
54.0682
54.0686
54.0691
54.0695
54.0699
54.0703
54.0707
54.071
54.0714
54.0717
54.0721
54.0723
54.0727
54.0729
54.0733
54.0735
54.074
54.0741
54.0746
54.0747
54.0751
54.0752
54.0757
54.0758
54.0762
54.0763
54.0767
54.0768
54.0772
54.0773
54.0777
54.0778
54.0781
54.0783
53.4637
53.472
53.4785
53.4847
53.491
53.4971
53.5033
53.5096
53.516
53.5222
53.5282
53.5347
53.5413
53.5475
53.5534
53.5595
53.5661
53.5726
53.5788
53.5847
53.5906
53.597
53.6036
53.61
53.6163
53.6224
53.6287
53.635
53.6413
53.6476
53.6538
53.6599
53.6661
53.6721
53.6782
53.6841
53.6901
53.6958
53.7014
53.707
53.7127
53.7183
53.7239
53.7295
53.735
53.7404
53.7458
53.7512
53.7565
53.7618
53.767
53.7722
53.7773
53.7823
53.7873
53.7922
53.797
53.8018
53.8066
53.8113
53.816
53.8206
53.8252
53.8297
53.8342
53.8387
53.843
53.8474
53.8517
53.856
53.8602
53.8644
53.8685
53.8726
53.8766
53.8806
53.8845
53.8884
53.8922
53.896
53.8996
53.9033
53.9069
53.9104
53.9139
53.9173
53.9207
53.9242
53.9277
53.9312
53.9344
53.9371
53.9392
53.9424
53.9461
53.9495
53.9517
53.9536
53.9569
53.9607
53.9644
53.966
53.963
53.9628
53.9659
53.9704
53.9778
53.9848
53.9904
53.9952
53.9993
54.0027
54.0055
54.008
54.0104
54.0126
54.0147
54.0166
54.0186
54.0204
54.0222
54.0239
54.0256
54.0272
54.0288
54.0304
54.0319
54.0334
54.0348
54.0362
54.0375
54.0388
54.0401
54.0414
54.0426
54.0438
54.0449
54.046
54.0471
54.0482
54.0492
54.0502
54.0512
54.0521
54.053
54.0539
54.0548
54.0557
54.0565
54.0573
54.0581
54.0589
54.0596
54.0603
54.0611
54.0617
54.0624
54.0631
54.0637
54.0643
54.0649
54.0655
54.066
54.0666
54.0671
54.0676
54.0681
54.0685
54.069
54.0694
54.0698
54.0702
54.0705
54.0709
54.0713
54.0716
54.0719
54.0722
54.0726
54.0728
54.0732
54.0734
54.0738
54.074
54.0744
54.0745
54.075
54.0751
54.0756
54.0756
54.0761
54.0762
54.0766
54.0768
54.0769
54.0774
54.0773
54.0777
54.078
54.0782
54.0781
54.078
54.078
54.078
54.0779
54.078
54.078
54.078
54.0781
54.0782
54.0783
54.0784
54.0785
54.0785
54.0786
54.0787
54.0787
54.0788
54.0788
54.0789
54.0783
54.0783
54.0784
54.0785
54.0785
54.0786
54.0786
54.0787
54.0788
54.0789
54.0789
54.0789
54.0788
54.0788
54.0789
54.0789
54.0788
54.0787
54.0785
54.0783
54.0785
54.0785
54.0786
54.0786
54.0787
54.0787
54.0787
54.0786
54.0784
54.0783
54.0781
54.0779
54.0778
54.0775
54.0769
54.0766
54.0762
54.076
54.0756
54.0752
54.0784
54.0785
54.0785
54.0786
54.0786
54.0786
54.0785
54.0783
54.0781
54.0782
54.0787
54.0793
54.0797
54.0796
54.0788
54.078
54.0778
54.0772
54.077
54.0769
54.0782
54.0783
54.0783
54.0784
54.0785
54.0784
54.0783
54.0782
54.0781
54.0782
54.0786
54.0792
54.0797
54.0799
54.0793
54.0786
54.0776
54.0766
54.0765
54.077
54.0792
54.0793
54.0791
54.079
54.0784
54.0777
54.077
54.0768
54.0765
54.0752
54.0738
54.0738
54.074
54.0734
54.0715
54.0708
54.0718
54.0726
54.0718
54.0694
54.0679
54.0689
54.071
54.0718
54.07
54.0677
54.0663
54.0678
54.0708
54.0721
54.0708
54.0683
54.0658
54.0644
54.065
54.0665
54.0673
54.0677
54.0681
54.0684
54.0687
54.069
54.0693
54.0695
54.0698
54.07
54.0703
54.0705
54.0707
54.0709
54.0711
54.0713
54.0715
54.0717
54.0719
54.0721
54.0723
54.0725
54.0727
54.073
54.0732
54.0735
54.0738
54.0741
54.0745
54.0748
54.0752
54.0756
54.0761
54.0768
54.0781
54.0797
54.0801
54.0788
54.0766
54.0746
54.0754
54.0766
54.0773
54.0778
54.0783
54.0787
54.0789
54.079
54.0793
54.0797
54.0801
54.0799
54.0795
54.08
54.0808
54.08
54.0731
54.0697
54.0716
54.0791
54.0841
54.0857
54.086
54.0874
54.0773
54.0764
54.0755
54.0739
54.0721
54.0717
54.0717
54.0718
54.0705
54.069
54.0689
54.07
54.0698
54.0685
54.0682
54.0695
54.0711
54.0709
54.069
54.0682
54.0688
54.0713
54.0733
54.0719
54.07
54.0689
54.0694
54.0724
54.0753
54.0748
54.0727
54.0709
54.0698
54.07
54.0715
54.0733
54.0741
54.0744
54.0748
54.0753
54.0757
54.0761
54.0765
54.0769
54.0772
54.0776
54.0779
54.0782
54.0785
54.0788
54.0791
54.0793
54.0795
54.0798
54.08
54.0803
54.0806
54.0808
54.0811
54.0813
54.0815
54.0818
54.082
54.0823
54.0826
54.0828
54.0831
54.0835
54.0839
54.0846
54.0858
54.0869
54.0863
54.0852
54.0834
54.0816
54.0827
54.0843
54.0853
54.0858
54.0861
54.0864
54.0867
54.0868
54.0868
54.087
54.0872
54.0873
54.0873
54.0871
54.0871
54.0872
54.0861
54.0845
54.0841
54.0839
54.0824
54.0807
54.0804
54.0816
54.0725
54.0688
54.0661
54.064
54.0617
54.0592
54.0567
54.0553
54.0542
54.0529
54.0514
54.0516
54.0508
54.0512
54.0499
54.0503
54.0507
54.0508
54.0514
54.0507
54.0504
54.0515
54.0524
54.053
54.0528
54.0527
54.0525
54.0536
54.0548
54.0559
54.0558
54.0551
54.0528
54.0532
54.0556
54.0572
54.0587
54.0598
54.0606
54.061
54.0614
54.0616
54.0618
54.062
54.0622
54.0623
54.0625
54.0626
54.0627
54.0628
54.0629
54.063
54.0632
54.0633
54.0634
54.0635
54.0635
54.0636
54.0637
54.0639
54.064
54.0641
54.0642
54.0643
54.0644
54.0645
54.0644
54.0642
54.0643
54.0648
54.0657
54.0668
54.0689
54.0703
54.0716
54.0748
54.0788
54.0817
54.084
54.0853
54.0859
54.0862
54.0864
54.0864
54.0865
54.0865
54.0866
54.0868
54.0871
54.0875
54.0881
54.0885
54.0893
54.0898
54.0903
54.0909
54.0914
54.092
54.0927
54.0935
54.0759
54.0754
54.0746
54.0744
54.0728
54.0693
54.0704
54.0699
54.0707
54.0683
54.0701
54.067
54.069
54.0673
54.0733
54.0688
54.0688
54.0709
54.0666
54.0765
54.0761
54.0678
54.0726
54.0721
54.0715
54.0835
54.0826
54.0697
54.0746
54.0764
54.0728
54.0872
54.1007
54.0908
54.075
54.0753
54.0775
54.0781
54.0783
54.0783
54.0784
54.0785
54.0786
54.0787
54.0788
54.0789
54.079
54.0791
54.0793
54.0794
54.0795
54.0796
54.0797
54.0798
54.0799
54.08
54.0801
54.0803
54.0804
54.0807
54.0809
54.0812
54.0815
54.0818
54.0821
54.0824
54.0827
54.083
54.0833
54.0837
54.0845
54.0863
54.0865
54.0963
54.1079
54.0968
54.0845
54.0839
54.0848
54.085
54.0851
54.0852
54.0854
54.0856
54.0858
54.0859
54.0861
54.0865
54.0868
54.0871
54.0875
54.0881
54.0886
54.0887
54.0881
54.0881
54.0885
54.0891
54.0893
54.0879
54.0778
54.0789
54.0767
54.0755
54.0762
54.0778
54.0786
54.074
54.0739
54.0772
54.0817
54.0748
54.0737
54.076
54.0867
54.0805
54.074
54.0753
54.0778
54.0898
54.0886
54.0746
54.0749
54.0792
54.0842
54.0959
54.0939
54.0759
54.0757
54.0817
54.0841
54.0986
54.1118
54.1006
54.0795
54.077
54.0789
54.0795
54.0796
54.0795
54.0795
54.0795
54.0796
54.0797
54.0798
54.0799
54.08
54.0801
54.0803
54.0804
54.0805
54.0806
54.0807
54.0808
54.0809
54.0811
54.0812
54.0814
54.0816
54.0818
54.082
54.0822
54.0825
54.0827
54.083
54.0833
54.0836
54.0839
54.0842
54.0846
54.0853
54.0865
54.0894
54.1035
54.1154
54.1031
54.0878
54.0858
54.0863
54.0864
54.0864
54.0864
54.0865
54.0866
54.0869
54.0872
54.0875
54.0879
54.0882
54.0887
54.0892
54.0896
54.0899
54.0904
54.0909
54.0913
54.0913
54.0907
54.0905
54.0907
54.0854
54.0854
54.0856
54.0863
54.0873
54.0886
54.0899
54.0912
54.0923
54.0932
54.0938
54.094
54.0945
54.0952
54.0957
54.0961
54.0964
54.0966
54.0968
54.0969
54.0799
54.0799
54.0801
54.0809
54.0819
54.0831
54.0845
54.086
54.0876
54.0891
54.0903
54.0915
54.0928
54.0939
54.095
54.0961
54.0966
54.0967
54.0964
54.0958
54.0936
54.0934
54.0932
54.0932
54.0934
54.0936
54.0939
54.0942
54.0944
54.0947
54.0948
54.0947
54.0946
54.0943
54.094
54.0937
54.0934
54.0934
54.0934
54.0928
54.0848
54.0827
54.081
54.0798
54.0789
54.0784
54.0781
54.0778
54.0777
54.0776
54.0778
54.0781
54.0789
54.0806
54.0827
54.0847
54.0865
54.0895
54.0936
54.0945
54.0908
54.0911
54.091
54.0911
54.0914
54.0914
54.0906
54.0889
54.0865
54.0842
54.0823
54.0806
54.0791
54.0782
54.078
54.0793
54.082
54.0859
54.0915
54.095
54.0972
54.0974
54.0971
54.0965
54.0958
54.0954
54.0951
54.0951
54.0942
54.093
54.0925
54.0929
54.0929
54.0917
54.0899
54.0886
54.0889
54.0899
54.09
54.0883
54.086
54.084
54.0833
54.0846
54.0863
54.0865
54.0849
54.0829
54.0811
54.0795
54.0779
54.0766
54.0758
54.0768
54.0777
54.078
54.0783
54.0785
54.0786
54.0788
54.0789
54.079
54.0791
54.0792
54.0794
54.0795
54.0796
54.0798
54.08
54.0802
54.0805
54.0809
54.0814
54.0821
54.0832
54.0851
54.0873
54.0879
54.087
54.0852
54.0826
54.0813
54.0836
54.0865
54.0865
54.0841
54.0818
54.0803
54.08
54.0811
54.0823
54.083
54.0836
54.0843
54.0848
54.0852
54.0858
54.0863
54.0867
54.0866
54.0873
54.088
54.084
54.0757
54.0767
54.0864
54.093
54.0962
54.0986
54.1009
54.1027
54.104
54.1049
54.1055
54.106
54.1065
54.1069
54.1073
54.1076
54.1079
54.1082
54.1085
54.1088
54.1092
54.1095
54.1098
54.1101
54.1105
54.1108
54.1112
54.1115
54.1119
54.1122
54.1126
54.1129
54.1133
54.1136
54.114
54.1143
54.1147
54.115
54.1153
54.1157
54.116
54.1163
54.1166
54.117
54.1173
54.1176
54.1179
54.1182
54.1185
54.1188
54.1191
54.1194
54.1197
54.12
54.1203
54.1206
54.1209
54.1213
54.1216
54.1219
54.1222
54.1226
54.1229
54.1233
54.1236
54.124
54.1244
54.1248
54.1251
54.1255
54.1259
54.1263
54.1267
54.1271
54.1275
54.1279
54.1283
54.1287
54.1291
54.1295
54.1299
54.1303
54.1307
54.131
54.1314
54.1318
54.1322
54.1326
54.1329
54.1333
54.1337
54.134
54.1344
54.1348
54.1351
54.1355
54.1359
54.1363
54.1366
54.1371
54.1374
54.1379
54.1381
54.1387
54.1389
54.1395
54.1398
54.1403
54.1406
54.1412
54.1415
54.1419
54.1425
54.1426
54.1432
54.1436
54.1439
54.0951
54.0948
54.0935
54.0906
54.0892
54.0892
54.0893
54.0883
54.0858
54.0857
54.0868
54.0875
54.086
54.0837
54.0834
54.0853
54.0873
54.0879
54.0855
54.0823
54.081
54.0813
54.0842
54.0869
54.088
54.0856
54.0821
54.0801
54.0789
54.0787
54.0806
54.0808
54.0809
54.0821
54.0828
54.0829
54.0831
54.0834
54.0837
54.0841
54.0845
54.0849
54.0853
54.0856
54.0859
54.0862
54.0865
54.0868
54.0871
54.0874
54.088
54.0884
54.0889
54.0896
54.0908
54.0923
54.0932
54.0927
54.0895
54.0869
54.0856
54.0849
54.0883
54.0908
54.0901
54.0884
54.0866
54.0858
54.0866
54.0886
54.0901
54.0909
54.0914
54.092
54.0926
54.0929
54.0931
54.0935
54.0939
54.094
54.094
54.0944
54.0944
54.0926
54.0912
54.0914
54.0912
54.0898
54.0889
54.0894
54.0916
54.0983
54.1041
54.1069
54.1077
54.1079
54.1079
54.108
54.1081
54.1083
54.1085
54.1088
54.1091
54.1093
54.1096
54.1099
54.1103
54.1106
54.1109
54.1113
54.1116
54.112
54.1123
54.1127
54.113
54.1134
54.1137
54.1141
54.1144
54.1148
54.1151
54.1155
54.1158
54.1161
54.1164
54.1168
54.1171
54.1174
54.1177
54.118
54.1183
54.1186
54.1189
54.1192
54.1195
54.1198
54.1201
54.1204
54.1207
54.1211
54.1214
54.1217
54.122
54.1224
54.1227
54.123
54.1234
54.1237
54.1241
54.1245
54.1249
54.1252
54.1256
54.126
54.1264
54.1268
54.1272
54.1276
54.128
54.1284
54.1288
54.1292
54.1296
54.13
54.1304
54.1308
54.1311
54.1315
54.1319
54.1323
54.1327
54.133
54.1334
54.1338
54.1341
54.1345
54.1349
54.1352
54.1356
54.136
54.1364
54.1367
54.1372
54.1375
54.138
54.1383
54.1388
54.139
54.1396
54.1399
54.1404
54.1407
54.1413
54.1415
54.1421
54.1423
54.1429
54.1432
54.1437
54.1441
54.0902
54.0866
54.0837
54.0813
54.0787
54.0762
54.0743
54.0726
54.0713
54.07
54.0695
54.0692
54.0686
54.0683
54.0683
54.0678
54.0681
54.0681
54.0678
54.0678
54.0684
54.068
54.0676
54.0676
54.0678
54.0678
54.0678
54.0679
54.0676
54.067
54.0651
54.064
54.0653
54.0668
54.0682
54.0693
54.0701
54.0705
54.0708
54.0709
54.071
54.071
54.0711
54.0712
54.0713
54.0714
54.0714
54.0714
54.0715
54.0715
54.0716
54.0716
54.0715
54.0711
54.0706
54.0704
54.0696
54.0675
54.0664
54.0671
54.0668
54.0674
54.0696
54.0725
54.0761
54.0793
54.0807
54.0822
54.0853
54.0878
54.0897
54.0909
54.0917
54.0921
54.0923
54.0924
54.0926
54.0929
54.0933
54.0939
54.0946
54.0953
54.0962
54.0971
54.0979
54.0986
54.0993
54.1
54.1007
54.1015
54.1024
54.1033
54.1042
54.1051
54.1059
54.1066
54.107
54.1074
54.1077
54.108
54.1083
54.1086
54.1089
54.1093
54.1096
54.1099
54.1102
54.1106
54.1109
54.1113
54.1116
54.112
54.1123
54.1127
54.113
54.1134
54.1137
54.1141
54.1144
54.1148
54.1151
54.1155
54.1158
54.1161
54.1164
54.1168
54.1171
54.1174
54.1177
54.118
54.1183
54.1186
54.1189
54.1192
54.1195
54.1198
54.1201
54.1204
54.1207
54.1211
54.1214
54.1217
54.122
54.1224
54.1227
54.123
54.1234
54.1237
54.1241
54.1245
54.1249
54.1252
54.1256
54.126
54.1264
54.1268
54.1272
54.1276
54.128
54.1284
54.1288
54.1292
54.1296
54.13
54.1304
54.1308
54.1311
54.1315
54.1319
54.1323
54.1327
54.133
54.1334
54.1338
54.1341
54.1345
54.1349
54.1352
54.1356
54.136
54.1364
54.1367
54.1372
54.1375
54.1379
54.1383
54.1387
54.1391
54.1396
54.1399
54.1404
54.1407
54.1412
54.1416
54.142
54.1424
54.1429
54.1432
54.1437
54.144
54.0925
54.0918
54.0919
54.0917
54.0868
54.0857
54.0861
54.0878
54.0847
54.0828
54.0822
54.0855
54.085
54.0775
54.0812
54.0814
54.0813
54.0854
54.0815
54.0767
54.0791
54.0837
54.0798
54.0809
54.0851
54.0829
54.0799
54.0793
54.0824
54.0903
54.1036
54.1045
54.0869
54.0839
54.087
54.0885
54.0887
54.0886
54.0884
54.0883
54.0882
54.0882
54.0882
54.0881
54.0882
54.0882
54.0882
54.0883
54.0883
54.0883
54.0883
54.0882
54.0881
54.088
54.0884
54.09
54.092
54.0834
54.0775
54.0801
54.0874
54.0852
54.0827
54.0876
54.0889
54.0977
54.1103
54.1096
54.0927
54.0879
54.0897
54.0908
54.0911
54.0913
54.0916
54.0919
54.0922
54.0926
54.0932
54.0937
54.0943
54.0951
54.096
54.0967
54.097
54.0966
54.0967
54.0973
54.0979
54.098
54.0952
54.0907
54.0894
54.0909
54.0973
54.1048
54.1081
54.1088
54.1087
54.1086
54.1087
54.1089
54.1091
54.1094
54.1097
54.11
54.1103
54.1106
54.1109
54.1113
54.1116
54.112
54.1123
54.1127
54.113
54.1134
54.1137
54.1141
54.1144
54.1148
54.1151
54.1155
54.1158
54.1161
54.1164
54.1168
54.1171
54.1174
54.1177
54.118
54.1183
54.1186
54.1189
54.1192
54.1195
54.1198
54.1201
54.1204
54.1207
54.1211
54.1214
54.1217
54.122
54.1224
54.1227
54.123
54.1234
54.1237
54.1241
54.1245
54.1249
54.1252
54.1256
54.126
54.1264
54.1268
54.1272
54.1276
54.128
54.1284
54.1288
54.1292
54.1296
54.13
54.1304
54.1308
54.1311
54.1315
54.1319
54.1323
54.1327
54.133
54.1334
54.1338
54.1341
54.1345
54.1349
54.1353
54.1356
54.136
54.1363
54.1368
54.1371
54.1376
54.1379
54.1384
54.1387
54.1392
54.1394
54.14
54.1403
54.1408
54.1411
54.1417
54.1419
54.1425
54.1428
54.1432
54.1438
54.1439
54.0952
54.0955
54.0942
54.0943
54.0937
54.0941
54.0917
54.0909
54.0919
54.0951
54.0927
54.0904
54.0911
54.0911
54.0933
54.0925
54.086
54.0884
54.0915
54.09
54.0892
54.0932
54.0878
54.0819
54.0862
54.0917
54.0909
54.089
54.0909
54.0981
54.1113
54.1117
54.0902
54.0827
54.0871
54.0894
54.0899
54.0899
54.0896
54.0895
54.0894
54.0893
54.0893
54.0892
54.0892
54.0892
54.0892
54.0892
54.0892
54.0892
54.0892
54.0891
54.089
54.089
54.0892
54.0903
54.0932
54.0946
54.0904
54.0904
54.0976
54.0942
54.0851
54.0889
54.0953
54.1043
54.1158
54.1153
54.0972
54.0896
54.0912
54.0923
54.0926
54.0927
54.0927
54.093
54.0934
54.0939
54.0945
54.0951
54.0958
54.0965
54.0972
54.0978
54.0985
54.0992
54.0997
54.1
54.0998
54.1
54.1006
54.1011
54.0991