/*--------------------------------*- C++ -*----------------------------------*\
| =========                 |                                                 |
| \\      /  F ield         | OpenFOAM: The Open Source CFD Toolbox           |
|  \\    /   O peration     | Version:  3.0.x                                 |
|   \\  /    A nd           | Web:      www.OpenFOAM.org                      |
|    \\/     M anipulation  |                                                 |
\*---------------------------------------------------------------------------*/
FoamFile
{
    version     2.0;
    format      ascii;
    class       volScalarField;
    location    "0.53";
    object      T;
}
// * * * * * * * * * * * * * * * * * * * * * * * * * * * * * * * * * * * * * //

dimensions      [0 0 0 1 0 0 0];

internalField   nonuniform List<scalar> 
6900
(
776.534
776.519
776.5
776.485
776.474
776.468
776.467
776.467
776.469
776.473
776.478
776.485
776.491
776.499
776.506
776.514
776.522
776.531
776.54
776.549
776.559
776.569
776.58
776.591
776.602
776.614
776.626
776.639
776.651
776.665
776.678
776.692
776.707
776.722
776.737
776.752
776.768
776.785
776.802
776.819
776.836
776.855
776.873
776.892
776.911
776.929
776.947
776.965
776.982
777.001
777.021
777.041
777.062
777.084
777.105
777.127
777.149
777.171
777.192
777.213
777.234
777.255
777.276
777.297
777.32
777.343
777.368
777.393
777.419
777.445
777.471
777.497
777.522
777.548
777.574
777.6
777.627
777.655
777.683
777.712
777.741
777.771
777.802
777.833
777.864
777.896
777.928
777.96
777.992
778.025
778.058
778.091
778.125
778.158
778.192
778.226
778.26
778.294
778.329
778.364
778.398
778.433
778.468
778.504
778.539
778.574
778.61
778.646
778.681
778.717
778.753
778.789
778.826
778.862
778.898
778.935
778.971
779.008
779.045
779.082
779.119
779.156
779.193
779.23
779.267
779.304
779.342
779.379
779.416
779.454
779.491
779.529
779.567
779.604
779.642
779.68
779.717
779.755
779.793
779.83
779.868
779.906
779.943
779.981
780.019
780.056
780.094
780.131
780.169
780.206
780.243
780.28
780.317
780.354
780.391
780.428
780.465
780.501
780.538
780.574
780.61
780.646
780.682
780.718
780.754
780.789
780.825
780.86
780.895
780.93
780.965
781
781.034
781.069
781.103
781.137
781.171
781.205
781.238
781.272
781.304
781.338
781.37
781.404
781.434
781.47
781.498
781.535
781.561
781.599
781.623
781.663
781.684
781.725
781.746
781.784
781.81
781.838
781.876
781.9
776.53
776.515
776.496
776.481
776.47
776.464
776.463
776.463
776.465
776.469
776.475
776.481
776.488
776.495
776.503
776.511
776.519
776.528
776.536
776.546
776.556
776.566
776.576
776.587
776.599
776.61
776.623
776.635
776.648
776.661
776.675
776.689
776.703
776.718
776.733
776.749
776.765
776.782
776.798
776.816
776.833
776.851
776.87
776.889
776.908
776.926
776.944
776.962
776.979
776.998
777.018
777.038
777.059
777.08
777.102
777.124
777.146
777.168
777.189
777.211
777.232
777.252
777.273
777.295
777.317
777.341
777.365
777.39
777.416
777.442
777.468
777.494
777.52
777.546
777.572
777.598
777.625
777.653
777.681
777.71
777.739
777.769
777.799
777.83
777.862
777.893
777.925
777.957
777.99
778.023
778.056
778.089
778.122
778.156
778.19
778.224
778.258
778.292
778.327
778.361
778.396
778.431
778.466
778.501
778.536
778.572
778.607
778.643
778.679
778.715
778.751
778.787
778.823
778.86
778.896
778.932
778.969
779.006
779.042
779.079
779.116
779.153
779.19
779.227
779.265
779.302
779.339
779.377
779.414
779.451
779.489
779.527
779.564
779.602
779.639
779.677
779.715
779.753
779.79
779.828
779.866
779.903
779.941
779.979
780.016
780.054
780.091
780.129
780.166
780.204
780.241
780.278
780.315
780.352
780.389
780.426
780.462
780.499
780.535
780.572
780.608
780.644
780.68
780.716
780.752
780.787
780.823
780.858
780.893
780.928
780.963
780.997
781.032
781.066
781.101
781.135
781.169
781.202
781.236
781.269
781.302
781.336
781.368
781.402
781.432
781.468
781.496
781.533
781.558
781.597
781.62
781.66
781.682
781.723
781.743
781.784
781.803
781.844
781.864
781.904
776.531
776.515
776.496
776.481
776.47
776.464
776.463
776.464
776.465
776.469
776.475
776.481
776.488
776.495
776.503
776.511
776.519
776.528
776.537
776.546
776.556
776.566
776.576
776.587
776.599
776.611
776.623
776.635
776.648
776.661
776.675
776.689
776.703
776.718
776.734
776.749
776.765
776.782
776.799
776.816
776.833
776.851
776.87
776.889
776.908
776.926
776.944
776.962
776.98
776.998
777.018
777.038
777.059
777.081
777.102
777.124
777.146
777.168
777.189
777.211
777.232
777.252
777.273
777.295
777.317
777.341
777.365
777.391
777.416
777.442
777.468
777.494
777.52
777.546
777.572
777.598
777.625
777.653
777.681
777.71
777.739
777.769
777.799
777.83
777.862
777.893
777.925
777.957
777.99
778.023
778.056
778.089
778.122
778.156
778.19
778.224
778.258
778.292
778.327
778.361
778.396
778.431
778.466
778.501
778.536
778.572
778.607
778.643
778.679
778.715
778.751
778.787
778.823
778.86
778.896
778.932
778.969
779.006
779.042
779.079
779.116
779.153
779.19
779.227
779.265
779.302
779.339
779.377
779.414
779.451
779.489
779.527
779.564
779.602
779.639
779.677
779.715
779.753
779.79
779.828
779.866
779.903
779.941
779.979
780.016
780.054
780.091
780.129
780.166
780.204
780.241
780.278
780.315
780.352
780.389
780.426
780.462
780.499
780.535
780.572
780.608
780.644
780.68
780.716
780.752
780.787
780.823
780.858
780.893
780.928
780.963
780.997
781.032
781.066
781.101
781.135
781.169
781.202
781.236
781.269
781.302
781.336
781.368
781.401
781.433
781.466
781.497
781.531
781.561
781.593
781.625
781.656
781.686
781.72
781.746
781.78
781.809
781.838
781.867
781.899
776.53
776.515
776.496
776.481
776.47
776.464
776.463
776.463
776.465
776.469
776.475
776.481
776.488
776.495
776.503
776.511
776.519
776.528
776.536
776.546
776.556
776.566
776.576
776.587
776.599
776.61
776.623
776.635
776.648
776.661
776.675
776.689
776.703
776.718
776.733
776.749
776.765
776.782
776.798
776.816
776.833
776.851
776.87
776.889
776.908
776.926
776.944
776.962
776.979
776.998
777.018
777.038
777.059
777.08
777.102
777.124
777.146
777.168
777.189
777.211
777.232
777.252
777.273
777.295
777.317
777.341
777.365
777.39
777.416
777.442
777.468
777.494
777.52
777.546
777.572
777.598
777.625
777.653
777.681
777.71
777.739
777.769
777.799
777.83
777.862
777.893
777.925
777.957
777.99
778.023
778.056
778.089
778.122
778.156
778.19
778.224
778.258
778.292
778.327
778.361
778.396
778.431
778.466
778.501
778.536
778.572
778.607
778.643
778.679
778.715
778.751
778.787
778.823
778.86
778.896
778.932
778.969
779.006
779.042
779.079
779.116
779.153
779.19
779.227
779.265
779.302
779.339
779.377
779.414
779.451
779.489
779.527
779.564
779.602
779.639
779.677
779.715
779.753
779.79
779.828
779.866
779.903
779.941
779.979
780.016
780.054
780.091
780.129
780.166
780.204
780.241
780.278
780.315
780.352
780.389
780.426
780.462
780.499
780.535
780.572
780.608
780.644
780.68
780.716
780.752
780.787
780.823
780.858
780.893
780.928
780.963
780.997
781.032
781.066
781.101
781.135
781.169
781.202
781.236
781.269
781.303
781.335
781.369
781.4
781.435
781.464
781.5
781.527
781.565
781.59
781.629
781.651
781.692
781.712
781.754
781.773
781.814
781.833
781.87
781.903
776.534
776.519
776.5
776.485
776.474
776.468
776.467
776.467
776.469
776.473
776.478
776.485
776.491
776.499
776.506
776.514
776.522
776.531
776.54
776.549
776.559
776.569
776.58
776.591
776.602
776.614
776.626
776.639
776.651
776.665
776.678
776.692
776.707
776.722
776.737
776.752
776.768
776.785
776.802
776.819
776.836
776.855
776.873
776.892
776.911
776.929
776.947
776.965
776.982
777.001
777.021
777.041
777.062
777.084
777.105
777.127
777.149
777.171
777.192
777.213
777.234
777.255
777.276
777.297
777.32
777.343
777.368
777.393
777.419
777.445
777.471
777.497
777.522
777.548
777.574
777.6
777.627
777.655
777.683
777.712
777.741
777.771
777.802
777.833
777.864
777.896
777.928
777.96
777.992
778.025
778.058
778.091
778.125
778.158
778.192
778.226
778.26
778.294
778.329
778.364
778.398
778.433
778.468
778.504
778.539
778.574
778.61
778.646
778.681
778.717
778.753
778.789
778.826
778.862
778.898
778.935
778.971
779.008
779.045
779.082
779.119
779.156
779.193
779.23
779.267
779.304
779.342
779.379
779.416
779.454
779.491
779.529
779.567
779.604
779.642
779.68
779.717
779.755
779.793
779.83
779.868
779.906
779.943
779.981
780.019
780.056
780.094
780.131
780.169
780.206
780.243
780.28
780.317
780.354
780.391
780.428
780.465
780.501
780.538
780.574
780.61
780.646
780.682
780.718
780.754
780.789
780.825
780.86
780.895
780.93
780.965
781
781.034
781.069
781.103
781.137
781.171
781.204
781.238
781.271
781.305
781.337
781.372
781.402
781.437
781.466
781.503
781.529
781.567
781.592
781.631
781.653
781.695
781.714
781.756
781.775
781.817
781.836
781.871
781.916
781.919
781.928
781.936
781.944
781.952
781.961
781.969
781.975
781.984
782
782.019
782.03
782.032
782.029
782.023
782.021
782.026
782.031
782.04
782.074
781.92
781.929
781.937
781.945
781.951
781.957
781.964
781.969
781.975
781.984
782.002
782.014
782.018
782.012
782.007
782.006
782.018
782.024
782.029
782.049
781.917
781.923
781.928
781.934
781.939
781.943
781.948
781.954
781.958
781.965
781.974
781.979
781.987
782.001
782.013
782.018
782.027
782.04
782.058
782.067
781.914
781.918
781.92
781.922
781.924
781.926
781.927
781.929
781.931
781.933
781.935
781.937
781.939
781.943
781.948
781.952
781.957
781.961
781.965
781.968
781.92
781.921
781.922
781.924
781.925
781.926
781.927
781.928
781.929
781.93
781.931
781.932
781.933
781.935
781.936
781.938
781.941
781.943
781.946
781.95
782.076
782.078
782.114
782.125
782.128
782.142
782.181
782.202
782.216
782.228
782.246
782.269
782.299
782.318
782.328
782.342
782.366
782.388
782.41
782.426
782.441
782.457
782.474
782.492
782.513
782.53
782.547
782.564
782.58
782.597
782.615
782.633
782.652
782.67
782.688
782.705
782.722
782.742
782.759
782.775
782.79
782.806
782.822
782.837
782.853
782.869
782.885
782.9
782.915
782.93
782.945
782.959
782.974
782.988
783.003
783.017
783.031
783.046
783.06
783.074
783.088
783.102
783.115
783.128
783.141
783.154
783.166
783.178
783.19
783.202
783.214
783.225
783.237
783.248
783.259
783.27
783.282
783.292
783.303
783.314
783.325
783.337
783.348
783.359
783.37
783.38
783.389
783.397
783.408
783.422
783.437
783.448
783.457
783.465
783.47
783.477
783.484
783.492
783.498
783.506
783.52
783.536
783.542
783.544
783.548
783.566
783.592
783.603
783.602
783.599
783.605
783.662
783.751
783.782
783.78
783.751
783.679
783.624
783.596
783.59
783.598
783.614
783.625
783.634
783.641
783.647
783.653
783.658
783.663
783.667
783.671
783.675
783.679
783.683
783.687
783.69
783.693
783.697
783.7
783.703
783.706
783.709
783.712
783.714
783.717
783.72
783.722
783.725
783.727
783.73
783.732
783.734
783.736
783.738
783.74
783.742
783.744
783.746
783.748
783.75
783.752
783.753
783.755
783.756
783.758
783.759
783.761
783.762
783.763
783.764
783.766
783.767
783.768
783.769
783.77
783.771
783.772
783.772
783.775
783.774
783.777
783.775
783.778
783.777
783.78
783.779
783.782
783.78
783.784
783.782
783.785
783.783
783.787
783.785
783.788
783.786
783.788
783.791
783.786
783.789
782.07
782.109
782.143
782.142
782.152
782.219
782.251
782.247
782.254
782.31
782.328
782.326
782.337
782.392
782.423
782.417
782.41
782.421
782.467
782.521
782.521
782.508
782.506
782.519
782.559
782.583
782.586
782.59
782.602
782.618
782.635
782.653
782.671
782.688
782.706
782.722
782.738
782.767
782.8
782.808
782.814
782.826
782.84
782.855
782.87
782.885
782.901
782.915
782.93
782.945
782.96
782.974
782.989
783.004
783.018
783.033
783.048
783.062
783.076
783.09
783.104
783.117
783.13
783.143
783.155
783.168
783.18
783.192
783.203
783.215
783.227
783.239
783.25
783.261
783.273
783.284
783.296
783.307
783.319
783.33
783.343
783.354
783.365
783.374
783.384
783.396
783.408
783.424
783.44
783.46
783.48
783.489
783.491
783.491
783.492
783.497
783.504
783.513
783.527
783.539
783.543
783.547
783.56
783.586
783.604
783.607
783.605
783.605
783.621
783.682
783.754
783.791
783.794
783.784
783.74
783.675
783.627
783.6
783.59
783.595
783.609
783.619
783.627
783.634
783.641
783.646
783.652
783.656
783.661
783.665
783.67
783.674
783.677
783.681
783.685
783.688
783.691
783.695
783.698
783.701
783.704
783.707
783.71
783.712
783.715
783.718
783.72
783.723
783.725
783.728
783.73
783.732
783.734
783.736
783.738
783.74
783.742
783.744
783.746
783.748
783.75
783.751
783.753
783.754
783.756
783.757
783.759
783.76
783.761
783.763
783.764
783.765
783.766
783.767
783.768
783.769
783.771
783.77
783.773
783.772
783.775
783.773
783.776
783.775
783.778
783.777
783.78
783.778
783.782
783.78
783.783
783.781
783.785
783.783
783.786
783.784
783.787
783.787
783.785
783.791
782.14
782.194
782.242
782.291
782.344
782.394
782.434
782.469
782.506
782.538
782.561
782.582
782.608
782.634
782.65
782.661
782.676
782.698
782.723
782.741
782.748
782.757
782.774
782.793
782.814
782.829
782.841
782.855
782.871
782.887
782.903
782.918
782.934
782.95
782.967
782.984
783.003
783.023
783.04
783.051
783.063
783.078
783.092
783.106
783.12
783.134
783.147
783.161
783.174
783.188
783.201
783.215
783.23
783.244
783.259
783.274
783.289
783.304
783.318
783.333
783.346
783.359
783.372
783.385
783.399
783.412
783.426
783.44
783.453
783.466
783.48
783.495
783.511
783.526
783.541
783.556
783.571
783.587
783.603
783.616
783.622
783.615
783.602
783.581
783.547
783.518
783.495
783.476
783.463
783.456
783.456
783.457
783.457
783.462
783.472
783.483
783.496
783.508
783.519
783.53
783.539
783.548
783.555
783.562
783.568
783.573
783.577
783.581
783.584
783.588
783.59
783.592
783.594
783.597
783.599
783.603
783.607
783.612
783.617
783.622
783.627
783.632
783.636
783.641
783.645
783.65
783.654
783.658
783.662
783.666
783.67
783.674
783.678
783.681
783.685
783.688
783.692
783.695
783.698
783.701
783.704
783.707
783.71
783.712
783.715
783.718
783.72
783.723
783.725
783.728
783.73
783.732
783.734
783.736
783.738
783.74
783.742
783.744
783.746
783.748
783.75
783.751
783.753
783.754
783.756
783.757
783.759
783.76
783.761
783.763
783.764
783.765
783.766
783.767
783.768
783.769
783.77
783.771
783.771
783.773
783.773
783.775
783.775
783.776
783.777
783.778
783.779
783.78
783.78
783.782
783.781
783.783
783.783
783.783
783.785
783.786
783.785
783.787
783.788
783.789
781.984
782.014
782.035
782.065
782.104
782.137
782.157
782.178
782.206
782.237
782.259
782.279
782.303
782.33
782.352
782.369
782.387
782.409
782.434
782.455
782.471
782.485
782.503
782.523
782.543
782.56
782.575
782.591
782.607
782.624
782.641
782.657
782.674
782.689
782.705
782.721
782.738
782.755
782.771
782.786
782.801
782.816
782.831
782.847
782.863
782.878
782.894
782.909
782.924
782.939
782.954
782.969
782.984
782.998
783.012
783.026
783.04
783.054
783.068
783.081
783.095
783.108
783.122
783.135
783.149
783.162
783.175
783.187
783.2
783.212
783.224
783.236
783.247
783.259
783.271
783.281
783.292
783.304
783.314
783.325
783.335
783.345
783.356
783.367
783.375
783.383
783.393
783.405
783.414
783.424
783.438
783.456
783.467
783.472
783.48
783.492
783.506
783.519
783.533
783.548
783.563
783.583
783.606
783.625
783.643
783.669
783.706
783.741
783.751
783.747
783.732
783.689
783.64
783.602
783.579
783.571
783.576
783.59
783.601
783.61
783.618
783.625
783.631
783.637
783.642
783.648
783.652
783.657
783.661
783.666
783.67
783.674
783.677
783.681
783.685
783.688
783.691
783.695
783.698
783.701
783.704
783.707
783.71
783.712
783.715
783.718
783.72
783.723
783.725
783.728
783.73
783.732
783.734
783.736
783.738
783.74
783.742
783.744
783.746
783.748
783.75
783.751
783.753
783.754
783.756
783.757
783.759
783.76
783.761
783.763
783.764
783.765
783.766
783.767
783.768
783.769
783.77
783.771
783.771
783.773
783.773
783.775
783.774
783.777
783.776
783.779
783.777
783.781
783.779
783.783
783.781
783.784
783.782
783.785
783.783
783.787
783.785
783.788
783.786
783.788
781.965
781.996
782.023
782.052
782.087
782.123
782.155
782.185
782.217
782.251
782.282
782.31
782.339
782.371
782.401
782.426
782.451
782.478
782.507
782.535
782.557
782.577
782.598
782.62
782.642
782.662
782.68
782.698
782.717
782.735
782.754
782.772
782.79
782.807
782.825
782.842
782.86
782.878
782.895
782.911
782.927
782.944
782.96
782.976
782.992
783.008
783.023
783.038
783.053
783.067
783.082
783.096
783.11
783.125
783.139
783.153
783.167
783.182
783.196
783.209
783.223
783.236
783.249
783.262
783.274
783.287
783.299
783.311
783.323
783.334
783.345
783.356
783.367
783.378
783.388
783.399
783.41
783.42
783.43
783.44
783.452
783.463
783.473
783.483
783.495
783.506
783.518
783.528
783.538
783.547
783.556
783.568
783.579
783.584
783.585
783.592
783.615
783.641
783.646
783.643
783.642
783.67
783.764
783.817
783.819
783.8
783.738
783.681
783.643
783.617
783.6
783.592
783.592
783.595
783.599
783.603
783.608
783.614
783.619
783.624
783.629
783.633
783.638
783.643
783.647
783.652
783.656
783.66
783.664
783.668
783.672
783.676
783.68
783.683
783.687
783.69
783.694
783.697
783.7
783.703
783.706
783.709
783.712
783.714
783.717
783.72
783.722
783.725
783.727
783.73
783.732
783.734
783.736
783.738
783.74
783.742
783.744
783.746
783.748
783.75
783.752
783.753
783.755
783.756
783.758
783.759
783.761
783.762
783.763
783.765
783.766
783.767
783.768
783.769
783.77
783.771
783.772
783.773
783.773
783.775
783.775
783.777
783.776
783.779
783.778
783.781
783.779
783.783
783.781
783.784
783.782
783.786
783.784
783.786
783.788
783.785
783.79
783.788
783.788
783.791
783.793
783.793
783.794
783.794
783.794
783.793
783.792
783.791
783.79
783.787
783.785
783.783
783.782
783.78
783.779
783.777
783.776
783.774
783.773
783.771
783.79
783.79
783.789
783.788
783.787
783.786
783.784
783.783
783.781
783.779
783.778
783.778
783.778
783.778
783.777
783.777
783.777
783.779
783.781
783.783
783.789
783.789
783.789
783.788
783.789
783.789
783.79
783.792
783.794
783.795
783.797
783.8
783.802
783.805
783.813
783.818
783.823
783.827
783.834
783.84
783.79
783.791
783.792
783.792
783.793
783.795
783.797
783.801
783.806
783.807
783.806
783.805
783.804
783.806
783.811
783.811
783.815
783.827
783.831
783.83
783.793
783.794
783.795
783.796
783.796
783.798
783.8
783.803
783.806
783.808
783.808
783.807
783.806
783.806
783.806
783.808
783.822
783.839
783.84
783.829
783.769
783.766
783.764
783.766
783.777
783.785
783.787
783.788
783.796
783.815
783.826
783.828
783.832
783.847
783.868
783.874
783.875
783.878
783.894
783.917
783.924
783.919
783.918
783.922
783.944
783.959
783.962
783.95
783.945
783.946
783.963
783.976
783.975
783.962
783.952
783.952
783.956
783.958
783.96
783.96
783.961
783.961
783.961
783.96
783.96
783.96
783.959
783.959
783.958
783.958
783.957
783.957
783.957
783.957
783.958
783.958
783.959
783.959
783.96
783.96
783.96
783.96
783.961
783.961
783.961
783.961
783.961
783.962
783.963
783.965
783.965
783.962
783.962
783.971
783.974
783.968
783.96
783.961
783.965
783.968
783.969
783.969
783.97
783.973
783.974
783.972
783.972
783.98
783.993
783.993
783.989
784.009
784.117
784.172
784.148
784.043
783.974
783.955
783.954
783.929
783.797
783.807
783.816
783.841
783.868
783.873
783.863
783.86
783.884
783.904
783.897
783.884
783.893
783.919
783.916
783.893
783.885
783.903
783.936
783.935
783.91
783.884
783.886
783.921
783.946
783.943
783.916
783.882
783.881
783.908
783.936
783.939
783.917
783.881
783.858
783.854
783.857
783.861
783.862
783.861
783.86
783.858
783.856
783.854
783.852
783.85
783.848
783.847
783.845
783.844
783.842
783.842
783.841
783.84
783.839
783.839
783.839
783.839
783.839
783.84
783.84
783.841
783.842
783.843
783.844
783.845
783.846
783.848
783.85
783.853
783.854
783.858
783.874
783.88
783.876
783.867
783.854
783.85
783.85
783.853
783.856
783.857
783.857
783.86
783.864
783.866
783.868
783.873
783.88
783.891
783.898
783.905
783.928
783.958
783.967
783.974
783.998
784.027
784.035
784.012
783.876
783.931
783.965
784
784.04
784.076
784.098
784.115
784.139
784.164
784.164
784.162
784.175
784.199
784.195
784.172
784.172
784.192
784.215
784.205
784.17
784.158
784.174
784.203
784.213
784.195
784.155
784.141
784.158
784.19
784.208
784.201
784.166
784.118
784.092
784.088
784.089
784.089
784.088
784.086
784.084
784.083
784.082
784.082
784.081
784.081
784.081
784.081
784.081
784.081
784.081
784.082
784.082
784.082
784.083
784.084
784.087
784.089
784.091
784.092
784.094
784.097
784.101
784.104
784.106
784.111
784.117
784.124
784.128
784.129
784.127
784.131
784.133
784.103
784.031
783.958
783.912
783.885
783.865
783.856
783.853
783.853
783.853
783.858
783.861
783.866
783.87
783.873
783.876
783.878
783.878
783.881
783.879
783.879
783.878
783.873
783.87
783.865
783.86
783.851
783.858
783.884
783.872
783.855
783.888
783.98
783.989
783.932
783.912
783.991
784.029
783.972
783.93
783.992
784.072
784.05
783.944
783.931
784.032
784.09
784.086
783.992
783.915
783.969
784.068
784.075
784.077
784.002
783.909
783.939
784.024
784.057
784.048
784.049
783.946
783.863
783.836
783.833
783.835
783.837
783.838
783.839
783.839
783.839
783.84
783.84
783.84
783.84
783.841
783.841
783.841
783.842
783.842
783.843
783.844
783.845
783.846
783.847
783.848
783.848
783.849
783.849
783.849
783.85
783.85
783.85
783.85
783.851
783.851
783.853
783.856
783.866
783.916
783.982
783.969
783.968
783.908
783.871
783.86
783.86
783.861
783.862
783.862
783.862
783.864
783.868
783.87
783.871
783.874
783.879
783.881
783.882
783.883
783.89
783.904
783.91
783.909
783.904
783.904
783.923
783.831
783.836
783.841
783.84
783.839
783.858
783.871
783.871
783.865
783.862
783.862
783.858
783.861
783.866
783.882
783.881
783.867
783.867
783.871
783.901
783.908
783.891
783.883
783.867
783.884
783.901
783.918
783.907
783.894
783.864
783.863
783.893
783.894
783.911
783.877
783.839
783.816
783.814
783.816
783.82
783.823
783.824
783.824
783.825
783.825
783.825
783.826
783.826
783.826
783.827
783.827
783.827
783.827
783.828
783.828
783.829
783.83
783.831
783.832
783.833
783.833
783.835
783.835
783.836
783.836
783.836
783.837
783.838
783.838
783.84
783.845
783.864
783.875
783.875
783.866
783.878
783.858
783.845
783.839
783.839
783.842
783.844
783.846
783.848
783.849
783.849
783.85
783.851
783.854
783.855
783.856
783.86
783.865
783.866
783.865
783.864
783.868
783.881
783.887
783.883
783.933
783.925
783.921
783.914
783.904
783.892
783.878
783.864
783.851
783.841
783.836
783.837
783.835
783.83
783.825
783.821
783.819
783.817
783.817
783.816
784.015
784.011
784.006
783.999
783.988
783.975
783.959
783.94
783.92
783.901
783.886
783.873
783.859
783.848
783.834
783.822
783.817
783.817
783.823
783.832
783.851
783.856
783.861
783.863
783.864
783.864
783.862
783.861
783.86
783.858
783.858
783.859
783.861
783.865
783.869
783.873
783.879
783.88
783.881
783.89
783.959
783.983
784.003
784.021
784.035
784.046
784.054
784.061
784.067
784.071
784.073
784.072
784.062
784.041
784.015
783.99
783.97
783.933
783.881
783.87
783.882
783.88
783.878
783.875
783.872
783.875
783.888
783.917
783.954
783.991
784.021
784.048
784.071
784.086
784.092
784.078
784.042
783.991
783.915
783.866
783.814
783.811
783.811
783.82
783.83
783.831
783.831
783.835
783.849
783.862
783.865
783.866
783.871
783.888
783.906
783.913
783.912
783.912
783.917
783.936
783.956
783.97
783.972
783.963
783.958
783.961
783.979
783.996
784.004
784.007
784.003
783.985
783.973
783.971
783.973
783.977
783.979
783.98
783.981
783.981
783.982
783.982
783.982
783.982
783.982
783.982
783.981
783.981
783.98
783.98
783.979
783.98
783.98
783.982
783.984
783.981
783.966
783.96
783.963
783.976
783.995
783.997
783.98
783.969
783.973
783.991
783.995
783.989
783.977
783.976
783.98
783.984
783.985
783.987
783.99
783.992
783.992
783.992
783.996
784.008
784.01
784.013
784.083
784.215
784.209
784.075
783.986
783.949
783.924
783.9
783.884
783.875
783.872
783.871
783.872
783.873
783.874
783.875
783.876
783.877
783.877
783.878
783.879
783.88
783.881
783.882
783.883
783.884
783.885
783.886
783.887
783.888
783.889
783.89
783.891
783.892
783.893
783.894
783.895
783.896
783.897
783.898
783.899
783.9
783.901
783.901
783.902
783.903
783.904
783.905
783.906
783.907
783.908
783.909
783.909
783.91
783.911
783.912
783.913
783.914
783.915
783.916
783.917
783.918
783.919
783.92
783.921
783.922
783.923
783.924
783.925
783.926
783.927
783.928
783.93
783.931
783.932
783.933
783.934
783.935
783.936
783.937
783.939
783.94
783.941
783.942
783.943
783.944
783.945
783.946
783.948
783.949
783.95
783.951
783.952
783.953
783.954
783.955
783.956
783.958
783.958
783.96
783.96
783.963
783.962
783.965
783.964
783.968
783.966
783.97
783.969
783.972
783.971
783.974
783.975
783.974
783.979
783.977
783.979
783.981
783.845
783.849
783.865
783.907
783.925
783.921
783.916
783.933
783.97
783.968
783.947
783.944
783.972
784.005
784
783.96
783.935
783.94
783.982
784.023
784.029
784.009
783.959
783.93
783.934
783.974
784.019
784.036
784.037
784.019
783.964
783.924
783.899
783.893
783.899
783.906
783.909
783.909
783.907
783.904
783.9
783.896
783.893
783.889
783.886
783.884
783.881
783.879
783.876
783.875
783.872
783.871
783.872
783.875
783.876
783.877
783.881
783.892
783.927
783.952
783.951
783.944
783.912
783.906
783.92
783.929
783.926
783.908
783.881
783.868
783.868
783.87
783.873
783.875
783.877
783.881
783.885
783.889
783.893
783.901
783.913
783.92
783.933
783.97
783.998
784.002
784.012
784.043
784.064
784.067
784.045
783.958
783.883
783.851
783.847
783.852
783.86
783.865
783.868
783.871
783.873
783.875
783.876
783.877
783.879
783.88
783.881
783.882
783.883
783.884
783.885
783.886
783.887
783.888
783.889
783.89
783.891
783.892
783.893
783.894
783.895
783.896
783.897
783.898
783.899
783.9
783.901
783.902
783.903
783.904
783.904
783.905
783.906
783.907
783.908
783.909
783.91
783.911
783.911
783.912
783.913
783.914
783.915
783.916
783.917
783.918
783.919
783.92
783.921
783.922
783.923
783.925
783.926
783.927
783.928
783.929
783.93
783.931
783.933
783.934
783.935
783.936
783.937
783.938
783.939
783.941
783.942
783.943
783.944
783.945
783.946
783.947
783.948
783.949
783.95
783.952
783.952
783.954
783.954
783.956
783.956
783.959
783.958
783.961
783.961
783.964
783.963
783.966
783.965
783.969
783.967
783.971
783.97
783.973
783.972
783.976
783.975
783.978
783.977
783.979
783.929
783.977
784.015
784.053
784.093
784.123
784.145
784.17
784.2
784.21
784.205
784.21
784.23
784.243
784.234
784.212
784.205
784.219
784.24
784.243
784.232
784.211
784.194
784.196
784.217
784.236
784.241
784.237
784.23
784.22
784.196
784.157
784.124
784.116
784.117
784.119
784.12
784.12
784.119
784.118
784.117
784.116
784.115
784.114
784.113
784.112
784.112
784.112
784.111
784.11
784.11
784.11
784.115
784.125
784.14
784.16
784.203
784.25
784.26
784.253
784.231
784.195
784.173
784.162
784.135
784.081
784.02
783.953
783.9
783.876
783.869
783.868
783.868
783.871
783.875
783.88
783.885
783.889
783.893
783.896
783.898
783.901
783.902
783.902
783.901
783.899
783.896
783.894
783.892
783.89
783.887
783.884
783.88
783.876
783.873
783.872
783.872
783.873
783.875
783.875
783.876
783.877
783.878
783.878
783.879
783.88
783.881
783.882
783.883
783.884
783.885
783.886
783.887
783.888
783.889
783.89
783.891
783.892
783.893
783.894
783.895
783.896
783.897
783.898
783.899
783.9
783.901
783.902
783.903
783.904
783.904
783.905
783.906
783.907
783.908
783.909
783.91
783.911
783.911
783.912
783.913
783.914
783.915
783.916
783.917
783.918
783.919
783.92
783.921
783.922
783.923
783.925
783.926
783.927
783.928
783.929
783.93
783.931
783.933
783.934
783.935
783.936
783.937
783.938
783.939
783.941
783.942
783.943
783.944
783.945
783.946
783.947
783.948
783.949
783.95
783.952
783.953
783.954
783.955
783.956
783.957
783.958
783.959
783.96
783.961
783.963
783.964
783.965
783.966
783.968
783.968
783.97
783.971
783.972
783.974
783.975
783.975
783.977
783.978
783.98
783.914
783.928
783.902
783.904
783.983
784.037
783.997
783.957
784.015
784.109
784.082
783.987
784.003
784.127
784.164
784.153
784.042
783.983
784.058
784.138
784.158
784.153
784.139
784.026
783.98
784.038
784.088
784.108
784.106
784.099
784.094
784.1
784.044
783.919
783.867
783.855
783.856
783.861
783.864
783.866
783.866
783.867
783.868
783.868
783.868
783.868
783.868
783.867
783.867
783.866
783.866
783.866
783.866
783.866
783.869
783.872
783.894
784.052
784.144
784.155
784.147
784.136
784.03
783.976
783.996
783.996
783.975
783.999
783.982
783.912
783.881
783.874
783.875
783.877
783.878
783.88
783.883
783.886
783.889
783.892
783.896
783.898
783.9
783.901
783.909
783.924
783.931
783.931
783.932
783.939
783.99
784.066
784.094
784.083
783.999
783.899
783.857
783.853
783.86
783.867
783.871
783.873
783.875
783.877
783.878
783.879
783.881
783.882
783.883
783.884
783.885
783.886
783.887
783.888
783.889
783.89
783.891
783.892
783.893
783.894
783.895
783.896
783.897
783.898
783.899
783.9
783.901
783.902
783.903
783.904
783.904
783.905
783.906
783.907
783.908
783.909
783.91
783.911
783.911
783.912
783.913
783.914
783.915
783.916
783.917
783.918
783.919
783.92
783.921
783.922
783.923
783.925
783.926
783.927
783.928
783.929
783.93
783.931
783.933
783.934
783.935
783.936
783.937
783.938
783.939
783.941
783.942
783.943
783.944
783.945
783.946
783.947
783.948
783.949
783.951
783.951
783.953
783.953
783.955
783.955
783.958
783.957
783.96
783.959
783.962
783.962
783.965
783.964
783.967
783.966
783.97
783.969
783.972
783.971
783.975
783.973
783.976
783.978
783.975
783.981
783.875
783.876
783.869
783.867
783.882
783.916
783.917
783.912
783.91
783.931
783.929
783.917
783.914
783.932
783.99
783.993
783.973
783.939
783.915
783.947
784.011
784.017
784.024
784.01
783.963
783.911
783.929
783.968
783.984
783.987
783.986
784.001
783.995
783.935
783.866
783.842
783.839
783.842
783.847
783.849
783.85
783.851
783.852
783.852
783.853
783.853
783.853
783.853
783.853
783.853
783.853
783.852
783.852
783.854
783.858
783.869
783.877
783.891
783.957
784.007
784.003
784.008
783.993
783.957
783.904
783.901
783.899
783.92
783.917
783.887
783.858
783.852
783.854
783.858
783.862
783.865
783.867
783.868
783.87
783.873
783.875
783.878
783.883
783.886
783.887
783.887
783.887
783.891
783.904
783.911
783.912
783.915
783.954
784.052
784.072
784.012