/*--------------------------------*- C++ -*----------------------------------*\
| =========                 |                                                 |
| \\      /  F ield         | OpenFOAM: The Open Source CFD Toolbox           |
|  \\    /   O peration     | Version:  3.0.x                                 |
|   \\  /    A nd           | Web:      www.OpenFOAM.org                      |
|    \\/     M anipulation  |                                                 |
\*---------------------------------------------------------------------------*/
FoamFile
{
    version     2.0;
    format      ascii;
    class       surfaceScalarField;
    location    "1";
    object      phi;
}
// * * * * * * * * * * * * * * * * * * * * * * * * * * * * * * * * * * * * * //

dimensions      [1 0 -1 0 0 0 0];

internalField   nonuniform List<scalar> 
999
(
2523.38
2523.38
2523.38
2523.38
2523.38
2523.38
2523.38
2523.38
2523.38
2523.38
2523.38
2523.38
2523.38
2523.38
2523.38
2523.38
2523.38
2523.38
2523.38
2523.38
2523.38
2523.38
2523.38
2523.38
2523.38
2523.38
2523.38
2523.38
2523.38
2523.38
2523.38
2523.38
2523.38
2523.38
2523.38
2523.38
2523.38
2523.38
2523.38
2523.38
2523.38
2523.38
2523.38
2523.38
2523.38
2523.38
2523.38
2523.38
2523.38
2523.38
2523.38
2523.38
2523.38
2523.38
2523.38
2523.38
2523.38
2523.38
2523.38
2523.38
2523.38
2523.38
2523.38
2523.38
2523.38
2523.38
2523.38
2523.38
2523.38
2523.38
2523.38
2523.38
2523.38
2523.38
2523.38
2523.38
2523.38
2523.38
2523.38
2523.38
2523.38
2523.38
2523.38
2523.38
2523.38
2523.38
2523.38
2523.38
2523.38
2523.38
2523.38
2523.38
2523.38
2523.38
2523.38
2523.38
2523.38
2523.38
2523.38
2523.38
2523.38
2523.38
2523.38
2523.38
2523.38
2523.38
2523.38
2523.38
2523.38
2523.38
2523.38
2523.38
2523.38
2523.38
2523.38
2523.38
2523.38
2523.38
2523.38
2523.38
2523.38
2523.38
2523.38
2523.38
2523.38
2523.38
2523.38
2523.38
2523.38
2523.38
2523.38
2523.38
2523.38
2523.38
2523.38
2523.38
2523.38
2523.38
2523.38
2523.38
2523.38
2523.38
2523.38
2523.38
2523.38
2523.38
2523.38
2523.38
2523.38
2523.38
2523.38
2523.38
2523.38
2523.38
2523.38
2523.38
2523.38
2523.38
2523.38
2523.38
2523.38
2523.38
2523.38
2523.38
2523.38
2523.38
2523.38
2523.38
2523.38
2523.38
2523.38
2523.38
2523.38
2523.38
2523.38
2523.38
2523.38
2523.38
2523.38
2523.38
2523.38
2523.38
2523.38
2523.38
2523.38
2523.38
2523.38
2523.38
2523.38
2523.38
2523.38
2523.38
2523.38
2523.38
2523.38
2523.38
2523.38
2523.38
2523.38
2523.38
2523.38
2523.38
2523.38
2523.38
2523.38
2523.38
2523.38
2523.38
2523.38
2523.38
2523.38
2523.38
2523.38
2523.38
2523.38
2523.38
2523.38
2523.38
2523.38
2523.38
2523.38
2523.38
2523.38
2523.38
2523.38
2523.38
2523.38
2523.38
2523.38
2523.38
2523.38
2523.38
2523.38
2523.38
2523.38
2523.38
2523.38
2523.38
2523.38
2523.38
2523.38
2523.38
2523.38
2523.38
2523.38
2523.38
2523.38
2523.38
2523.38
2523.38
2523.38
2523.38
2523.38
2523.38
2523.38
2523.38
2523.38
2523.38
2523.38
2523.38
2523.38
2523.38
2523.38
2523.38
2523.38
2523.38
2523.38
2523.38
2523.38
2523.38
2523.38
2523.38
2523.38
2523.38
2523.38
2523.38
2523.38
2523.38
2523.38
2523.38
2523.38
2523.38
2523.38
2523.38
2523.38
2523.38
2523.38
2523.38
2523.38
2523.38
2523.38
2523.38
2523.38
2523.38
2523.38
2523.38
2523.38
2523.38
2523.38
2523.38
2523.38
2523.38
2523.38
2523.38
2523.38
2523.38
2523.38
2523.38
2523.38
2523.38
2523.38
2523.38
2523.38
2523.38
2523.38
2523.38
2523.38
2523.38
2523.38
2523.38
2523.38
2523.38
2523.38
2523.38
2523.38
2523.38
2523.38
2523.38
2523.38
2523.38
2523.38
2523.38
2523.38
2523.38
2523.38
2523.38
2523.38
2523.38
2523.38
2523.38
2523.38
2523.38
2523.38
2523.38
2523.38
2523.38
2523.38
2523.38
2523.38
2523.38
2523.38
2523.38
2523.38
2523.38
2523.38
2523.38
2523.38
2523.38
2523.38
2523.38
2523.38
2523.38
2523.38
2523.38
2523.38
2523.38
2523.38
2523.38
2523.38
2523.38
2523.38
2523.38
2523.38
2523.38
2523.38
2523.38
2523.38
2523.38
2523.38
2523.38
2523.38
2523.38
2523.38
2523.38
2523.38
2523.38
2523.38
2523.38
2523.38
2523.38
2523.38
2523.38
2523.38
2523.38
2523.38
2523.38
2523.38
2523.38
2523.38
2523.38
2523.38
2523.38
2523.38
2523.38
2523.38
2523.38
2523.38
2523.38
2523.38
2523.38
2523.38
2523.38
2523.38
2523.38
2523.38
2523.38
2523.38
2523.38
2523.38
2523.38
2523.38
2523.38
2523.38
2523.38
2523.38
2523.38
2523.38
2523.38
2523.38
2523.38
2523.38
2523.38
2523.38
2523.38
2523.38
2523.38
2523.38
2523.38
2523.38
2523.38
2523.38
2523.38
2523.38
2523.38
2523.38
2523.38
2523.38
2523.38
2523.38
2523.38
2523.38
2523.38
2523.38
2523.38
2523.38
2523.37
2523.37
2523.37
2523.37
2523.36
2523.36
2523.35
2523.34
2523.33
2523.32
2523.3
2523.29
2523.26
2523.24
2523.2
2523.16
2523.12
2523.06
2522.99
2522.91
2522.81
2522.7
2522.56
2522.4
2522.21
2521.98
2521.72
2521.41
2521.05
2520.63
2520.14
2519.58
2518.92
2518.17
2517.3
2516.3
2515.16
2513.85
2512.36
2510.67
2508.75
2506.57
2504.11
2501.34
2498.22
2494.71
2490.79
2486.41
2481.52
2476.08
2470.05
2463.36
2455.96
2447.8
2438.82
2428.95
2418.13
2406.3
2393.39
2379.33
2364.06
2347.49
2329.58
2310.25
2289.45
2267.1
2243.17
2217.59
2190.33
2161.35
2130.63
2098.15
2063.91
2027.91
1990.18
1950.75
1909.66
1866.98
1822.78
1777.15
1730.19
1682.02
1632.77
1582.55
1531.53
1479.84
1427.64
1375.08
1322.32
1269.52
1216.83
1164.39
1112.36
1060.85
1010.02
959.971
910.82
862.67
815.614
769.735
725.109
681.8
639.863
599.347
560.289
522.719
486.661
452.128
419.129
387.665
357.73
329.313
302.397
276.961
252.977
230.414
209.238
189.41
170.888
153.628
137.583
122.704
108.941
96.243
84.558
73.8335
64.0176
55.0582
46.9045
39.5065
32.8159
26.786
21.3724
16.5329
12.2285
8.4232
5.08603
2.19442
-0.251704
-2.14436
-3.62656
-4.93068
-6.0662
-7.0464
-7.88739
-8.60661
-9.21965
-9.73964
-10.1783
-10.5459
-10.8521
-11.1056
-11.3138
-11.4831
-11.6189
-11.7266
-11.8108
-11.8755
-11.9244
-11.9603
-11.9859
-12.0031
-12.0137
-12.019
-12.0202
-12.0183
-12.0141
-12.0081
-12.0009
-11.9929
-11.9844
-11.9757
-11.9668
-11.958
-11.9494
-11.9411
-11.9331
-11.9254
-11.9182
-11.9114
-11.9052
-11.8994
-11.8942
-11.8894
-11.8849
-11.8808
-11.8768
-11.8729
-11.8691
-11.8654
-11.8618
-11.8583
-11.8549
-11.8516
-11.8484
-11.8453
-11.8423
-11.8392
-11.8361
-11.833
-11.8298
-11.8266
-11.8233
-11.8201
-11.8169
-11.8138
-11.8107
-11.8078
-11.8051
-11.8024
-11.7999
-11.7974
-11.7951
-11.7929
-11.7908
-11.7888
-11.7869
-11.785
-11.7833
-11.7816
-11.7801
-11.7786
-11.7773
-11.7761
-11.775
-11.7741
-11.7733
-11.7727
-11.7722
-11.7718
-11.7715
-11.7712
-11.7709
-11.7706
-11.7703
-11.77
-11.7696
-11.7691
-11.7686
-11.768
-11.7674
-11.7667
-11.7659
-11.765
-11.764
-11.7629
-11.7617
-11.7604
-11.759
-11.7576
-11.7561
-11.7546
-11.7531
-11.7517
-11.7502
-11.7488
-11.7475
-11.7462
-11.745
-11.7438
-11.7427
-11.7417
-11.7407
-11.7398
-11.739
-11.7382
-11.7375
-11.7369
-11.7364
-11.7359
-11.7356
-11.7354
-11.7353
-11.7353
-11.7354
-11.7355
-11.7358
-11.7361
-11.7365
-11.7369
-11.7373
-11.7377
-11.7381
-11.7385
-11.7388
-11.739
-11.7392
-11.7393
-11.7393
-11.7393
-11.7391
-11.7389
-11.7385
-11.7381
-11.7375
-11.7369
-11.7362
-11.7354
-11.7345
-11.7337
-11.7327
-11.7318
-11.7309
-11.7299
-11.729
-11.7281
-11.7273
-11.7264
-11.7256
-11.7249
-11.7242
-11.7235
-11.7228
-11.7223
-11.7217
-11.7212
-11.7208
-11.7205
-11.7202
-11.72
-11.7198
-11.7198
-11.7198
-11.7199
-11.7201
-11.7203
-11.7206
-11.7209
-11.7213
-11.7217
-11.7221
-11.7225
-11.7228
-11.7232
-11.7235
-11.7238
-11.724
-11.7241
-11.7242
-11.7243
-11.7242
-11.7241
-11.7239
-11.7236
-11.7232
-11.7228
-11.7223
-11.7218
-11.7213
-11.7207
-11.72
-11.7194
-11.7188
-11.7181
-11.7175
-11.7169
-11.7163
-11.7158
-11.7152
-11.7147
-11.7143
-11.7139
-11.7135
-11.7132
-11.7129
-11.7127
-11.7126
-11.7125
-11.7124
-11.7125
-11.7126
-11.7127
-11.713
-11.7133
-11.7137
-11.7141
-11.7146
-11.7151
-11.7157
-11.7163
-11.717
-11.7176
-11.7183
-11.7189
-11.7196
-11.7202
-11.7207
-11.7213
-11.7217
-11.7221
-11.7225
-11.7228
-11.723
-11.7232
-11.7232
-11.7233
-11.7232
-11.7231
-11.7229
-11.7227
-11.7225
-11.7222
-11.7219
-11.7215
-11.7212
-11.7209
-11.7205
-11.7202
-11.7199
-11.7196
-11.7193
-11.7191
-11.7189
-11.7187
-11.7186
-11.7184
-11.7184
-11.7183
-11.7183
-11.7183
-11.7184
-11.7185
-11.7186
-11.7188
-11.7189
-11.7192
-11.7194
-11.7197
-11.72
-11.7203
-11.7207
-11.721
-11.7214
-11.7218
-11.7221
-11.7224
-11.7227
-11.723
-11.7233
-11.7235
-11.7236
-11.7237
-11.7237
-11.7237
-11.7236
-11.7235
-11.7232
-11.723
-11.7226
-11.7222
-11.7217
-11.7212
-11.7206
-11.72
-11.7193
-11.7186
-11.7179
-11.7172
-11.7165
-11.7158
-11.7151
-11.7144
-11.7138
-11.7131
-11.7125
-11.712
-11.7114
-11.711
-11.7105
-11.7101
-11.7098
-11.7095
-11.7092
-11.709
-11.7089
-11.7088
-11.7087
-11.7087
-11.7088
-11.7089
-11.7091
-11.7093
-11.7096
-11.7099
-11.7104
-11.7108
-11.7113
-11.7119
-11.7126
-11.7133
-11.714
-11.7148
-11.7156
-11.7164
-11.7173
-11.7182
-11.719
-11.7199
-11.7208
-11.7216
-11.7224
-11.7232
-11.7239
-11.7245
-11.7251
-11.7256
-11.7261
-11.7264
-11.7266
-11.7268
-11.7268
-11.7268
-11.7267
-11.7264
-11.7261
-11.7257
-11.7252
-11.7246
-11.724
-11.7232
-11.7225
-11.7217
-11.7208
-11.72
-11.7191
-11.7182
-11.7172
-11.7163
-11.7155
-11.7146
-11.7137
-11.7129
-11.7122
-11.7114
-11.7107
-11.7101
-11.7096
-11.709
-11.7086
-11.7082
-11.7079
-11.7077
-11.7074
-11.7075
)
;

boundaryField
{
    inlet
    {
        type            calculated;
        value           uniform -2523.38;
    }
    backWall
    {
        type            calculated;
        value           uniform -11.7075;
    }
    sides
    {
        type            empty;
        value           nonuniform 0();
    }
}


// ************************************************************************* //
