/*--------------------------------*- C++ -*----------------------------------*\
| =========                 |                                                 |
| \\      /  F ield         | OpenFOAM: The Open Source CFD Toolbox           |
|  \\    /   O peration     | Version:  3.0.x                                 |
|   \\  /    A nd           | Web:      www.OpenFOAM.org                      |
|    \\/     M anipulation  |                                                 |
\*---------------------------------------------------------------------------*/
FoamFile
{
    version     2.0;
    format      ascii;
    class       volVectorField;
    location    "1";
    object      U;
}
// * * * * * * * * * * * * * * * * * * * * * * * * * * * * * * * * * * * * * //

dimensions      [0 1 -1 0 0 0 0];

internalField   nonuniform List<vector> 
1000
(
(50 0 0)
(50 0 0)
(50 0 0)
(50 0 0)
(50 0 0)
(50 0 0)
(50 0 0)
(50 0 0)
(50 0 0)
(50 0 0)
(50 0 0)
(50 0 0)
(50 0 0)
(50 0 0)
(50 0 0)
(50 0 0)
(50 0 0)
(50 0 0)
(50 0 0)
(50 0 0)
(50 0 0)
(50 0 0)
(50 0 0)
(50 0 0)
(50 0 0)
(50 0 0)
(50 0 0)
(50 0 0)
(50 0 0)
(50 0 0)
(50 0 0)
(50 0 0)
(50 0 0)
(50 0 0)
(50 0 0)
(50 0 0)
(50 0 0)
(50 0 0)
(50 0 0)
(50 0 0)
(50 0 0)
(50 0 0)
(50 0 0)
(50 0 0)
(50 0 0)
(50 0 0)
(50 0 0)
(50 0 0)
(50 0 0)
(50 0 0)
(50 0 0)
(50 0 0)
(50 0 0)
(50 0 0)
(50 0 0)
(50 0 0)
(50 0 0)
(50 0 0)
(50 0 0)
(50 0 0)
(50 0 0)
(50 0 0)
(50 0 0)
(50 0 0)
(50 0 0)
(50 0 0)
(50 0 0)
(50 0 0)
(50 0 0)
(50 0 0)
(50 0 0)
(50 0 0)
(50 0 0)
(50 0 0)
(50 0 0)
(50 0 0)
(50 0 0)
(50 0 0)
(50 0 0)
(50 0 0)
(50 0 0)
(50 0 0)
(50 0 0)
(50 0 0)
(50 0 0)
(50 0 0)
(50 0 0)
(50 0 0)
(50 0 0)
(50 0 0)
(50 0 0)
(50 0 0)
(50 0 0)
(50 0 0)
(50 0 0)
(50 0 0)
(50 0 0)
(50 0 0)
(50 0 0)
(50 0 0)
(50 0 0)
(50 0 0)
(50 0 0)
(50 0 0)
(50 0 0)
(50 0 0)
(50 0 0)
(50 0 0)
(50 0 0)
(50 0 0)
(50 0 0)
(50 0 0)
(50 0 0)
(50 0 0)
(50 0 0)
(50 0 0)
(50 0 0)
(50 0 0)
(50 0 0)
(50 0 0)
(50 0 0)
(50 0 0)
(50 0 0)
(50 0 0)
(50 0 0)
(50 0 0)
(50 0 0)
(50 0 0)
(50 0 0)
(50 0 0)
(50 0 0)
(50 0 0)
(50 0 0)
(50 0 0)
(50 0 0)
(50 0 0)
(50 0 0)
(50 0 0)
(50 0 0)
(50 0 0)
(50 0 0)
(50 0 0)
(50 0 0)
(50 0 0)
(50 0 0)
(50 0 0)
(50 0 0)
(50 0 0)
(50 0 0)
(50 0 0)
(50 0 0)
(50 0 0)
(50 0 0)
(50 0 0)
(50 0 0)
(50 0 0)
(50 0 0)
(50 0 0)
(50 0 0)
(50 0 0)
(50 0 0)
(50 0 0)
(50 0 0)
(50 0 0)
(50 0 0)
(50 0 0)
(50 0 0)
(50 0 0)
(50 0 0)
(50 0 0)
(50 0 0)
(50 0 0)
(50 0 0)
(50 0 0)
(50 0 0)
(50 0 0)
(50 0 0)
(50 0 0)
(50 0 0)
(50 0 0)
(50 0 0)
(50 0 0)
(50 0 0)
(50 0 0)
(50 0 0)
(50 0 0)
(50 0 0)
(50 0 0)
(50 0 0)
(50 0 0)
(50 0 0)
(50 0 0)
(50 0 0)
(50 0 0)
(50 0 0)
(50 0 0)
(50 0 0)
(50 0 0)
(50 0 0)
(50 0 0)
(50 0 0)
(50 0 0)
(50 0 0)
(50 0 0)
(50 0 0)
(50 0 0)
(50 0 0)
(50 0 0)
(50 0 0)
(50 0 0)
(50 0 0)
(50 0 0)
(50 0 0)
(50 0 0)
(50 0 0)
(50 0 0)
(50 0 0)
(50 0 0)
(50 0 0)
(50 0 0)
(50 0 0)
(50 0 0)
(50 0 0)
(50 0 0)
(50 0 0)
(50 0 0)
(50 0 0)
(50 0 0)
(50 0 0)
(50 0 0)
(50 0 0)
(50 0 0)
(50 0 0)
(50 0 0)
(50 0 0)
(50 0 0)
(50 0 0)
(50 0 0)
(50 0 0)
(50 0 0)
(50 0 0)
(50 0 0)
(50 0 0)
(50 0 0)
(50 0 0)
(50 0 0)
(50 0 0)
(50 0 0)
(50 0 0)
(50 0 0)
(50 0 0)
(50 0 0)
(50 0 0)
(50 0 0)
(50 0 0)
(50 0 0)
(50 0 0)
(50 0 0)
(50 0 0)
(50 0 0)
(50 0 0)
(50 0 0)
(50 0 0)
(50 0 0)
(50 0 0)
(50 0 0)
(50 0 0)
(50 0 0)
(50 0 0)
(50 0 0)
(50 0 0)
(50 0 0)
(50 0 0)
(50 0 0)
(50 0 0)
(50 0 0)
(50 0 0)
(50 0 0)
(50 0 0)
(50 0 0)
(50 0 0)
(50 0 0)
(50 0 0)
(50 0 0)
(50 0 0)
(50 0 0)
(50 0 0)
(50 0 0)
(50 0 0)
(50 0 0)
(50 0 0)
(50 0 0)
(50 0 0)
(50 0 0)
(50 0 0)
(50 0 0)
(50 0 0)
(50 0 0)
(50 0 0)
(50 0 0)
(50 0 0)
(50 0 0)
(50 0 0)
(50 0 0)
(50 0 0)
(50 0 0)
(50 0 0)
(50 0 0)
(50 0 0)
(50 0 0)
(50 0 0)
(50 0 0)
(50 0 0)
(50 0 0)
(50 0 0)
(50 0 0)
(50 0 0)
(50 0 0)
(50 0 0)
(50 0 0)
(50 0 0)
(50 0 0)
(50 0 0)
(50 0 0)
(50 0 0)
(50 0 0)
(50 0 0)
(50 0 0)
(50 0 0)
(50 0 0)
(50 0 0)
(50 0 0)
(50 0 0)
(50 0 0)
(50 0 0)
(50 0 0)
(50 0 0)
(50 0 0)
(50 0 0)
(50 0 0)
(50 0 0)
(50 0 0)
(50 0 0)
(50 0 0)
(50 0 0)
(50 0 0)
(50 0 0)
(50 0 0)
(50 0 0)
(50 0 0)
(50 0 0)
(50 0 0)
(50 0 0)
(50 0 0)
(50 0 0)
(50 0 0)
(50 0 0)
(50 0 0)
(50 0 0)
(50 0 0)
(50 0 0)
(50 0 0)
(50 0 0)
(50 0 0)
(50 0 0)
(50 0 0)
(50 0 0)
(50 0 0)
(50 0 0)
(50 0 0)
(50 0 0)
(50 0 0)
(50 0 0)
(50 0 0)
(50 0 0)
(50 0 0)
(50 0 0)
(50 0 0)
(50 0 0)
(50 0 0)
(50 0 0)
(50 0 0)
(50 0 0)
(50 0 0)
(50 0 0)
(50 0 0)
(50 0 0)
(50 0 0)
(50 0 0)
(50 0 0)
(50 0 0)
(50 0 0)
(50 0 0)
(50 0 0)
(50 0 0)
(50 0 0)
(50 0 0)
(50 0 0)
(50 0 0)
(50 0 0)
(50 0 0)
(50 0 0)
(50 0 0)
(50 0 0)
(50 0 0)
(50 0 0)
(50 0 0)
(50 0 0)
(50 0 0)
(50 0 0)
(50 0 0)
(50 0 0)
(50 0 0)
(50 0 0)
(50 0 0)
(50 0 0)
(50 0 0)
(50 0 0)
(50 0 0)
(50 0 0)
(50 0 0)
(50 0 0)
(50 0 0)
(50 0 0)
(50 0 0)
(50 0 0)
(50 0 0)
(50 0 0)
(50 0 0)
(50 0 0)
(50 0 0)
(50 0 0)
(50 0 0)
(50 0 0)
(50 0 0)
(50 0 0)
(50 0 0)
(50 0 0)
(50 0 0)
(50 0 0)
(50 0 0)
(50 0 0)
(50 0 0)
(50 0 0)
(50 0 0)
(50 0 0)
(50 0 0)
(50 0 0)
(50 0 0)
(50 0 0)
(50 0 0)
(49.9999 0 0)
(49.9999 0 0)
(49.9999 0 0)
(49.9999 0 0)
(49.9998 0 0)
(49.9998 0 0)
(49.9997 0 0)
(49.9997 0 0)
(49.9996 0 0)
(49.9995 0 0)
(49.9994 0 0)
(49.9992 0 0)
(49.999 0 0)
(49.9988 0 0)
(49.9985 0 0)
(49.9981 0 0)
(49.9977 0 0)
(49.9971 0 0)
(49.9965 0 0)
(49.9957 0 0)
(49.9948 0 0)
(49.9937 0 0)
(49.9923 0 0)
(49.9907 0 0)
(49.9888 0 0)
(49.9865 0 0)
(49.9838 0 0)
(49.9806 0 0)
(49.9769 0 0)
(49.9724 0 0)
(49.9672 0 0)
(49.9611 0 0)
(49.9539 0 0)
(49.9455 0 0)
(49.9358 0 0)
(49.9245 0 0)
(49.9115 0 0)
(49.8964 0 0)
(49.879 0 0)
(49.859 0 0)
(49.8361 0 0)
(49.8099 0 0)
(49.78 0 0)
(49.7459 0 0)
(49.7072 0 0)
(49.6634 0 0)
(49.6138 0 0)
(49.5578 0 0)
(49.4947 0 0)
(49.4239 0 0)
(49.3445 0 0)
(49.2558 0 0)
(49.1567 0 0)
(49.0464 0 0)
(48.9238 0 0)
(48.7879 0 0)
(48.6376 0 0)
(48.4717 0 0)
(48.2889 0 0)
(48.088 0 0)
(47.8678 0 0)
(47.6268 0 0)
(47.3637 0 0)
(47.0771 0 0)
(46.7657 0 0)
(46.4281 0 0)
(46.0629 0 0)
(45.6689 0 0)
(45.2447 0 0)
(44.7894 0 0)
(44.3016 0 0)
(43.7806 0 0)
(43.2256 0 0)
(42.6359 0 0)
(42.011 0 0)
(41.3508 0 0)
(40.6553 0 0)
(39.9247 0 0)
(39.1595 0 0)
(38.3607 0 0)
(37.5291 0 0)
(36.6663 0 0)
(35.7739 0 0)
(34.8538 0 0)
(33.9082 0 0)
(32.9395 0 0)
(31.9504 0 0)
(30.9436 0 0)
(29.9222 0 0)
(28.8891 0 0)
(27.8476 0 0)
(26.8008 0 0)
(25.7518 0 0)
(24.7039 0 0)
(23.6599 0 0)
(22.6229 0 0)
(21.5957 0 0)
(20.5809 0 0)
(19.581 0 0)
(18.5983 0 0)
(17.6349 0 0)
(16.6928 0 0)
(15.7736 0 0)
(14.8788 0 0)
(14.0099 0 0)
(13.1678 0 0)
(12.3536 0 0)
(11.568 0 0)
(10.8116 0 0)
(10.085 0 0)
(9.38828 0 0)
(8.72174 0 0)
(8.08537 0 0)
(7.47909 0 0)
(6.90268 0 0)
(6.35584 0 0)
(5.83815 0 0)
(5.34911 0 0)
(4.88814 0 0)
(4.45459 0 0)
(4.04772 0 0)
(3.66676 0 0)
(3.31088 0 0)
(2.97918 0 0)
(2.67076 0 0)
(2.38467 0 0)
(2.11993 0 0)
(1.87556 0 0)
(1.65056 0 0)
(1.44393 0 0)
(1.25468 0 0)
(1.08183 0 0)
(0.924391 0 0)
(0.781432 0 0)
(0.652034 0 0)
(0.535312 0 0)
(0.430427 0 0)
(0.336584 0 0)
(0.253046 0 0)
(0.179143 0 0)
(0.114303 0 0)
(0.0581269 0 0)
(0.0107437 0 0)
(-0.0265978 0 0)
(-0.0559017 0 0)
(-0.0812206 0 0)
(-0.10354 0 0)
(-0.122903 0 0)
(-0.139561 0 0)
(-0.153851 0 0)
(-0.165968 0 0)
(-0.176411 0 0)
(-0.18542 0 0)
(-0.19289 0 0)
(-0.19909 0 0)
(-0.204214 0 0)
(-0.208421 0 0)
(-0.211844 0 0)
(-0.214595 0 0)
(-0.216776 0 0)
(-0.218477 0 0)
(-0.21978 0 0)
(-0.220756 0 0)
(-0.221459 0 0)
(-0.221943 0 0)
(-0.222238 0 0)
(-0.222308 0 0)
(-0.222348 0 0)
(-0.222413 0 0)
(-0.222379 0 0)
(-0.222294 0 0)
(-0.22219 0 0)
(-0.22201 0 0)
(-0.22186 0 0)
(-0.221805 0 0)
(-0.22169 0 0)
(-0.221531 0 0)
(-0.221363 0 0)
(-0.221189 0 0)
(-0.221014 0 0)
(-0.220841 0 0)
(-0.220673 0 0)
(-0.220509 0 0)
(-0.220352 0 0)
(-0.220201 0 0)
(-0.22006 0 0)
(-0.219916 0 0)
(-0.219796 0 0)
(-0.219652 0 0)
(-0.219462 0 0)
(-0.219355 0 0)
(-0.219287 0 0)
(-0.2192 0 0)
(-0.219112 0 0)
(-0.219048 0 0)
(-0.218935 0 0)
(-0.218864 0 0)
(-0.218876 0 0)
(-0.218829 0 0)
(-0.21877 0 0)
(-0.21871 0 0)
(-0.218645 0 0)
(-0.218578 0 0)
(-0.218509 0 0)
(-0.218437 0 0)
(-0.218364 0 0)
(-0.218288 0 0)
(-0.218213 0 0)
(-0.218133 0 0)
(-0.218064 0 0)
(-0.217965 0 0)
(-0.217927 0 0)
(-0.217798 0 0)
(-0.217672 0 0)
(-0.217666 0 0)
(-0.217596 0 0)
(-0.217549 0 0)
(-0.21749 0 0)
(-0.217465 0 0)
(-0.217376 0 0)
(-0.217348 0 0)
(-0.217381 0 0)
(-0.21733 0 0)
(-0.217303 0 0)
(-0.217269 0 0)
(-0.217235 0 0)
(-0.217203 0 0)
(-0.217171 0 0)
(-0.217142 0 0)
(-0.217115 0 0)
(-0.21709 0 0)
(-0.217067 0 0)
(-0.217045 0 0)
(-0.217027 0 0)
(-0.217002 0 0)
(-0.21699 0 0)
(-0.216969 0 0)
(-0.216908 0 0)
(-0.216894 0 0)
(-0.216896 0 0)
(-0.216878 0 0)
(-0.216863 0 0)
(-0.216855 0 0)
(-0.216832 0 0)
(-0.2168 0 0)
(-0.216818 0 0)
(-0.216822 0 0)
(-0.216798 0 0)
(-0.216781 0 0)
(-0.216758 0 0)
(-0.216733 0 0)
(-0.216705 0 0)
(-0.216675 0 0)
(-0.216644 0 0)
(-0.216611 0 0)
(-0.216578 0 0)
(-0.216543 0 0)
(-0.21651 0 0)
(-0.216472 0 0)
(-0.216449 0 0)
(-0.216391 0 0)
(-0.216395 0 0)
(-0.216329 0 0)
(-0.216259 0 0)
(-0.21628 0 0)
(-0.216236 0 0)
(-0.216221 0 0)
(-0.216192 0 0)
(-0.216186 0 0)
(-0.216149 0 0)
(-0.216126 0 0)
(-0.216149 0 0)
(-0.216136 0 0)
(-0.216125 0 0)
(-0.216118 0 0)
(-0.21611 0 0)
(-0.216104 0 0)
(-0.216099 0 0)
(-0.216096 0 0)
(-0.216095 0 0)
(-0.216095 0 0)
(-0.216096 0 0)
(-0.216098 0 0)
(-0.2161 0 0)
(-0.216104 0 0)
(-0.216102 0 0)
(-0.216113 0 0)
(-0.216094 0 0)
(-0.216122 0 0)
(-0.216099 0 0)
(-0.216065 0 0)
(-0.216099 0 0)
(-0.216083 0 0)
(-0.216084 0 0)
(-0.216076 0 0)
(-0.216072 0 0)
(-0.216065 0 0)
(-0.216038 0 0)
(-0.216045 0 0)
(-0.216049 0 0)
(-0.216026 0 0)
(-0.216015 0 0)
(-0.215998 0 0)
(-0.21598 0 0)
(-0.215961 0 0)
(-0.215942 0 0)
(-0.215922 0 0)
(-0.215902 0 0)
(-0.215882 0 0)
(-0.215862 0 0)
(-0.215843 0 0)
(-0.215824 0 0)
(-0.215805 0 0)
(-0.215788 0 0)
(-0.215768 0 0)
(-0.215757 0 0)
(-0.215729 0 0)
(-0.215728 0 0)
(-0.215705 0 0)
(-0.215667 0 0)
(-0.215675 0 0)
(-0.215662 0 0)
(-0.215652 0 0)
(-0.215649 0 0)
(-0.215635 0 0)
(-0.215648 0 0)
(-0.215625 0 0)
(-0.215622 0 0)
(-0.215654 0 0)
(-0.215644 0 0)
(-0.215652 0 0)
(-0.215656 0 0)
(-0.215661 0 0)
(-0.215666 0 0)
(-0.215672 0 0)
(-0.215677 0 0)
(-0.215682 0 0)
(-0.215686 0 0)
(-0.21569 0 0)
(-0.215693 0 0)
(-0.215695 0 0)
(-0.215696 0 0)
(-0.215696 0 0)
(-0.215695 0 0)
(-0.215692 0 0)
(-0.215688 0 0)
(-0.215681 0 0)
(-0.215675 0 0)
(-0.215665 0 0)
(-0.215652 0 0)
(-0.21565 0 0)
(-0.21562 0 0)
(-0.215605 0 0)
(-0.215606 0 0)
(-0.215585 0 0)
(-0.215573 0 0)
(-0.215562 0 0)
(-0.215541 0 0)
(-0.215543 0 0)
(-0.215512 0 0)
(-0.215498 0 0)
(-0.215512 0 0)
(-0.215488 0 0)
(-0.215483 0 0)
(-0.215473 0 0)
(-0.215464 0 0)
(-0.215456 0 0)
(-0.215448 0 0)
(-0.215441 0 0)
(-0.215435 0 0)
(-0.21543 0 0)
(-0.215426 0 0)
(-0.215423 0 0)
(-0.215422 0 0)
(-0.215421 0 0)
(-0.215422 0 0)
(-0.215424 0 0)
(-0.215427 0 0)
(-0.215432 0 0)
(-0.215437 0 0)
(-0.215444 0 0)
(-0.215451 0 0)
(-0.21546 0 0)
(-0.215469 0 0)
(-0.215479 0 0)
(-0.215486 0 0)
(-0.215503 0 0)
(-0.215499 0 0)
(-0.215527 0 0)
(-0.215523 0 0)
(-0.215519 0 0)
(-0.215549 0 0)
(-0.215544 0 0)
(-0.215556 0 0)
(-0.21556 0 0)
(-0.215565 0 0)
(-0.21557 0 0)
(-0.215566 0 0)
(-0.215579 0 0)
(-0.215563 0 0)
(-0.215565 0 0)
(-0.215579 0 0)
(-0.215563 0 0)
(-0.215565 0 0)
(-0.215558 0 0)
(-0.215553 0 0)
(-0.215546 0 0)
(-0.21554 0 0)
(-0.215532 0 0)
(-0.215525 0 0)
(-0.215518 0 0)
(-0.21551 0 0)
(-0.215503 0 0)
(-0.215497 0 0)
(-0.21549 0 0)
(-0.215484 0 0)
(-0.215479 0 0)
(-0.215474 0 0)
(-0.21547 0 0)
(-0.215466 0 0)
(-0.215463 0 0)
(-0.215461 0 0)
(-0.215459 0 0)
(-0.215458 0 0)
(-0.215457 0 0)
(-0.215458 0 0)
(-0.215458 0 0)
(-0.21546 0 0)
(-0.215462 0 0)
(-0.215464 0 0)
(-0.215468 0 0)
(-0.215471 0 0)
(-0.215475 0 0)
(-0.21548 0 0)
(-0.215485 0 0)
(-0.21549 0 0)
(-0.215496 0 0)
(-0.215501 0 0)
(-0.215506 0 0)
(-0.215511 0 0)
(-0.215516 0 0)
(-0.21552 0 0)
(-0.215524 0 0)
(-0.215527 0 0)
(-0.215529 0 0)
(-0.215529 0 0)
(-0.21553 0 0)
(-0.215528 0 0)
(-0.215526 0 0)
(-0.215522 0 0)
(-0.215517 0 0)
(-0.215513 0 0)
(-0.215502 0 0)
(-0.215495 0 0)
(-0.215488 0 0)
(-0.215475 0 0)
(-0.215466 0 0)
(-0.215453 0 0)
(-0.215441 0 0)
(-0.215428 0 0)
(-0.215414 0 0)
(-0.2154 0 0)
(-0.215386 0 0)
(-0.215372 0 0)
(-0.215359 0 0)
(-0.215345 0 0)
(-0.215332 0 0)
(-0.215319 0 0)
(-0.215307 0 0)
(-0.215296 0 0)
(-0.215285 0 0)
(-0.215275 0 0)
(-0.215265 0 0)
(-0.215257 0 0)
(-0.215249 0 0)
(-0.215243 0 0)
(-0.215237 0 0)
(-0.215232 0 0)
(-0.215228 0 0)
(-0.215225 0 0)
(-0.215222 0 0)
(-0.215221 0 0)
(-0.215221 0 0)
(-0.215222 0 0)
(-0.215224 0 0)
(-0.215227 0 0)
(-0.21523 0 0)
(-0.215236 0 0)
(-0.215242 0 0)
(-0.215249 0 0)
(-0.215257 0 0)
(-0.215267 0 0)
(-0.215277 0 0)
(-0.215289 0 0)
(-0.2153 0 0)
(-0.215315 0 0)
(-0.215325 0 0)
(-0.215346 0 0)
(-0.215355 0 0)
(-0.21537 0 0)
(-0.215392 0 0)
(-0.215402 0 0)
(-0.215421 0 0)
(-0.215434 0 0)
(-0.215449 0 0)
(-0.215463 0 0)
(-0.215476 0 0)
(-0.215488 0 0)
(-0.215499 0 0)
(-0.215508 0 0)
(-0.215516 0 0)
(-0.215522 0 0)
(-0.215527 0 0)
(-0.21553 0 0)
(-0.215531 0 0)
(-0.215531 0 0)
(-0.215528 0 0)
(-0.215524 0 0)
(-0.215518 0 0)
(-0.215511 0 0)
(-0.215502 0 0)
(-0.215491 0 0)
(-0.215479 0 0)
(-0.215466 0 0)
(-0.215452 0 0)
(-0.215437 0 0)
(-0.21542 0 0)
(-0.215408 0 0)
(-0.215378 0 0)
(-0.215386 0 0)
(-0.21534 0 0)
(-0.21533 0 0)
(-0.215334 0 0)
(-0.215289 0 0)
(-0.215292 0 0)
(-0.215267 0 0)
(-0.215255 0 0)
(-0.215239 0 0)
(-0.215228 0 0)
(-0.215203 0 0)
(-0.215241 0 0)
(-0.21504 0 0)
(-0.215677 0 0)
(-0.212957 0 0)
(-0.218657 0 0)
(-0.209439 0 0)
(-0.220716 0 0)
(-0.211643 0 0)
(-0.214919 0 0)
)
;

boundaryField
{
    inlet
    {
        type            fixedValue;
        value           uniform (50 0 0);
    }
    backWall
    {
        type            zeroGradient;
    }
    sides
    {
        type            empty;
    }
}


// ************************************************************************* //
