/*--------------------------------*- C++ -*----------------------------------*\
| =========                 |                                                 |
| \\      /  F ield         | OpenFOAM: The Open Source CFD Toolbox           |
|  \\    /   O peration     | Version:  3.0.x                                 |
|   \\  /    A nd           | Web:      www.OpenFOAM.org                      |
|    \\/     M anipulation  |                                                 |
\*---------------------------------------------------------------------------*/
FoamFile
{
    version     2.0;
    format      ascii;
    class       volVectorField;
    location    "0.57";
    object      U;
}
// * * * * * * * * * * * * * * * * * * * * * * * * * * * * * * * * * * * * * //

dimensions      [0 1 -1 0 0 0 0];

internalField   nonuniform List<vector> 
27600
(
(42.5601 0.000275711 0)
(42.2251 0.000234307 0)
(41.829 0.000233698 0)
(41.4569 0.00023805 0)
(41.1053 0.00024242 0)
(40.7568 0.000246442 0)
(40.4054 0.000249984 0)
(40.0525 0.000253032 0)
(39.6996 0.000255628 0)
(39.347 0.000257824 0)
(38.9948 0.000259675 0)
(38.6427 0.000261232 0)
(38.2909 0.000262518 0)
(37.9394 0.000263659 0)
(37.5883 0.000264556 0)
(37.2374 0.000265329 0)
(36.887 0.000266001 0)
(36.5371 0.000266588 0)
(36.1877 0.000267105 0)
(35.8388 0.000267567 0)
(35.4904 0.000267984 0)
(35.1426 0.000268366 0)
(34.7955 0.000268719 0)
(34.4489 0.000269045 0)
(34.1031 0.000269348 0)
(33.758 0.000269629 0)
(33.4136 0.000269891 0)
(33.0699 0.000270135 0)
(32.7271 0.000270367 0)
(32.3851 0.00027058 0)
(32.0439 0.00027078 0)
(31.7036 0.000270966 0)
(31.3642 0.000271138 0)
(31.0258 0.000271299 0)
(30.6883 0.00027145 0)
(30.3519 0.000271591 0)
(30.0164 0.000271724 0)
(29.682 0.000271846 0)
(29.3487 0.000271954 0)
(29.0164 0.000272056 0)
(28.6853 0.000272151 0)
(28.3553 0.00027224 0)
(28.0266 0.000272318 0)
(27.699 0.00027239 0)
(27.3726 0.000272458 0)
(27.0475 0.000272525 0)
(26.7237 0.000272592 0)
(26.4011 0.000272648 0)
(26.0799 0.000272694 0)
(25.7601 0.000272731 0)
(25.4415 0.000272763 0)
(25.1244 0.000272793 0)
(24.8087 0.000272827 0)
(24.4944 0.000272862 0)
(24.1816 0.000272892 0)
(23.8702 0.000272918 0)
(23.5603 0.000272941 0)
(23.2519 0.000272966 0)
(22.9451 0.000272987 0)
(22.6398 0.000272995 0)
(22.3361 0.000272988 0)
(22.0339 0.000272965 0)
(21.7333 0.000272922 0)
(21.4344 0.00027286 0)
(21.1371 0.000272779 0)
(20.8415 0.000272669 0)
(20.5475 0.00027251 0)
(20.2552 0.000272284 0)
(19.9647 0.00027197 0)
(19.6758 0.000271544 0)
(19.3888 0.000270964 0)
(19.1035 0.000270179 0)
(18.82 0.000269136 0)
(18.5383 0.000267777 0)
(18.2586 0.000266047 0)
(17.9807 0.000263889 0)
(17.7048 0.000261237 0)
(17.4309 0.000258023 0)
(17.1591 0.000254174 0)
(16.8893 0.000249623 0)
(16.6217 0.000244309 0)
(16.3564 0.000238187 0)
(16.0933 0.000231227 0)
(15.8325 0.000223424 0)
(15.5742 0.00021479 0)
(15.3183 0.000205359 0)
(15.0649 0.000195187 0)
(14.814 0.000184353 0)
(14.5657 0.000172956 0)
(14.3201 0.000161112 0)
(14.0771 0.000148951 0)
(13.8367 0.000136614 0)
(13.599 0.000124246 0)
(13.364 0.000111992 0)
(13.1316 9.99923e-05 0)
(12.9018 8.83774e-05 0)
(12.6746 7.72672e-05 0)
(12.45 6.67621e-05 0)
(12.2279 5.6926e-05 0)
(12.0083 4.7798e-05 0)
(11.7911 3.94005e-05 0)
(11.5763 3.17434e-05 0)
(11.3639 2.48266e-05 0)
(11.1538 1.86402e-05 0)
(10.946 1.31866e-05 0)
(10.7403 8.49041e-06 0)
(10.5369 4.01796e-06 0)
(10.3357 7.07376e-07 0)
(10.1366 -2.17238e-06 0)
(9.93958 -4.57947e-06 0)
(9.74467 -6.56794e-06 0)
(9.55182 -8.19436e-06 0)
(9.36103 -9.51274e-06 0)
(9.17228 -1.05733e-05 0)
(8.98555 -1.14193e-05 0)
(8.80084 -1.20895e-05 0)
(8.61813 -1.26169e-05 0)
(8.43743 -1.30301e-05 0)
(8.25871 -1.33528e-05 0)
(8.08199 -1.36049e-05 0)
(7.90725 -1.38017e-05 0)
(7.73448 -1.39559e-05 0)
(7.5637 -1.40774e-05 0)
(7.39488 -1.41745e-05 0)
(7.22803 -1.42529e-05 0)
(7.06315 -1.43185e-05 0)
(6.90022 -1.43746e-05 0)
(6.73926 -1.44242e-05 0)
(6.58024 -1.44686e-05 0)
(6.42317 -1.45096e-05 0)
(6.26805 -1.45478e-05 0)
(6.11487 -1.45842e-05 0)
(5.96363 -1.46197e-05 0)
(5.81432 -1.46552e-05 0)
(5.66693 -1.46906e-05 0)
(5.52148 -1.47258e-05 0)
(5.37793 -1.47607e-05 0)
(5.23631 -1.47956e-05 0)
(5.09659 -1.48302e-05 0)
(4.95878 -1.48645e-05 0)
(4.82286 -1.48987e-05 0)
(4.68884 -1.49335e-05 0)
(4.55671 -1.49684e-05 0)
(4.42646 -1.50034e-05 0)
(4.29809 -1.50383e-05 0)
(4.17158 -1.50734e-05 0)
(4.04694 -1.51087e-05 0)
(3.92416 -1.51441e-05 0)
(3.80323 -1.5179e-05 0)
(3.68415 -1.5214e-05 0)
(3.56691 -1.52495e-05 0)
(3.45149 -1.52848e-05 0)
(3.33791 -1.53202e-05 0)
(3.22614 -1.53553e-05 0)
(3.11618 -1.53904e-05 0)
(3.00803 -1.54256e-05 0)
(2.90168 -1.54609e-05 0)
(2.79712 -1.54961e-05 0)
(2.69434 -1.55312e-05 0)
(2.59334 -1.55665e-05 0)
(2.49411 -1.56017e-05 0)
(2.39664 -1.56367e-05 0)
(2.30092 -1.56713e-05 0)
(2.20694 -1.57055e-05 0)
(2.1147 -1.57399e-05 0)
(2.02418 -1.57745e-05 0)
(1.93538 -1.5809e-05 0)
(1.84829 -1.58429e-05 0)
(1.7629 -1.58761e-05 0)
(1.67919 -1.59094e-05 0)
(1.59718 -1.59433e-05 0)
(1.51684 -1.59771e-05 0)
(1.43817 -1.60111e-05 0)
(1.36116 -1.60437e-05 0)
(1.2858 -1.60777e-05 0)
(1.21207 -1.61074e-05 0)
(1.13998 -1.61446e-05 0)
(1.0695 -1.61676e-05 0)
(1.00062 -1.62153e-05 0)
(0.933335 -1.62205e-05 0)
(0.867634 -1.62893e-05 0)
(0.803495 -1.62683e-05 0)
(0.740935 -1.63712e-05 0)
(0.679899 -1.63241e-05 0)
(0.620441 -1.64434e-05 0)
(0.562455 -1.63838e-05 0)
(0.506052 -1.64804e-05 0)
(0.451065 -1.64706e-05 0)
(0.397669 -1.64991e-05 0)
(0.345633 -1.65484e-05 0)
(0.295193 -1.64354e-05 0)
(0.246044 -1.64208e-05 0)
(0.198465 -1.5529e-05 0)
(0.152008 -1.40437e-05 0)
(0.10672 -8.2541e-06 0)
(0.0610582 1.36885e-05 0)
(0.0128317 0.000241276 0)
(-0.0792694 -9.5965e-05 0)
(-0.148892 0.00524868 0)
(-1.17959 0.00653305 0)
(42.5746 0.000442947 0)
(42.2544 0.000322315 0)
(41.8733 0.000310874 0)
(41.5163 0.000311357 0)
(41.1799 0.000312416 0)
(40.8468 0.000313759 0)
(40.511 0.000315038 0)
(40.1737 0.000316073 0)
(39.8365 0.000316835 0)
(39.4998 0.000317343 0)
(39.1634 0.000317628 0)
(38.8273 0.000317721 0)
(38.4914 0.000317614 0)
(38.1559 0.000317502 0)
(37.8207 0.000317158 0)
(37.4858 0.00031678 0)
(37.1514 0.000316373 0)
(36.8174 0.000315947 0)
(36.484 0.000315514 0)
(36.151 0.000315086 0)
(35.8186 0.000314669 0)
(35.4867 0.00031427 0)
(35.1555 0.000313895 0)
(34.8249 0.000313538 0)
(34.4949 0.000313204 0)
(34.1657 0.000312887 0)
(33.8372 0.000312591 0)
(33.5094 0.000312312 0)
(33.1824 0.000312059 0)
(32.8563 0.000311815 0)
(32.5309 0.000311592 0)
(32.2065 0.000311381 0)
(31.8829 0.000311183 0)
(31.5603 0.000311001 0)
(31.2387 0.000310832 0)
(30.918 0.000310678 0)
(30.5983 0.000310539 0)
(30.2797 0.000310408 0)
(29.9621 0.00031028 0)
(29.6456 0.000310166 0)
(29.3303 0.000310064 0)
(29.016 0.000309974 0)
(28.703 0.000309887 0)
(28.3911 0.000309809 0)
(28.0805 0.000309744 0)
(27.7711 0.000309694 0)
(27.4629 0.000309661 0)
(27.1561 0.000309626 0)
(26.8505 0.000309588 0)
(26.5463 0.000309553 0)
(26.2435 0.000309525 0)
(25.942 0.000309505 0)
(25.6419 0.000309506 0)
(25.3432 0.000309519 0)
(25.046 0.000309533 0)
(24.7502 0.000309552 0)
(24.456 0.000309577 0)
(24.1632 0.000309615 0)
(23.8719 0.000309656 0)
(23.5822 0.000309684 0)
(23.294 0.000309695 0)
(23.0074 0.000309691 0)
(22.7224 0.000309661 0)
(22.439 0.000309606 0)
(22.1572 0.000309528 0)
(21.8771 0.000309408 0)
(21.5986 0.000309213 0)
(21.3218 0.000308912 0)
(21.0467 0.000308478 0)
(20.7734 0.000307871 0)
(20.5017 0.000307025 0)
(20.2318 0.000305868 0)
(19.9636 0.000304319 0)
(19.6972 0.0003023 0)
(19.4326 0.000299737 0)
(19.1698 0.000296555 0)
(18.9088 0.000292671 0)
(18.6497 0.000288 0)
(18.3924 0.000282457 0)
(18.1371 0.000275969 0)
(17.8836 0.000268475 0)
(17.632 0.000259942 0)
(17.3824 0.000250368 0)
(17.1347 0.000239778 0)
(16.8889 0.000228229 0)
(16.6451 0.000215805 0)
(16.4032 0.000202618 0)
(16.1633 0.000188805 0)
(15.9254 0.000174525 0)
(15.6895 0.000159953 0)
(15.4555 0.000145273 0)
(15.2234 0.00013067 0)
(14.9933 0.000116327 0)
(14.7652 0.000102412 0)
(14.539 8.90788e-05 0)
(14.3147 7.64589e-05 0)
(14.0923 6.46602e-05 0)
(13.8719 5.37606e-05 0)
(13.6534 4.37957e-05 0)
(13.4368 3.47745e-05 0)
(13.2221 2.66878e-05 0)
(13.0094 1.95107e-05 0)
(12.7985 1.32032e-05 0)
(12.5896 7.70436e-06 0)
(12.3826 2.83685e-06 0)
(12.1775 -1.28115e-06 0)
(11.9744 -4.82803e-06 0)
(11.7732 -7.24941e-06 0)
(11.5739 -9.34214e-06 0)
(11.3766 -1.10422e-05 0)
(11.1813 -1.24035e-05 0)
(10.9879 -1.3483e-05 0)
(10.7964 -1.43317e-05 0)
(10.6069 -1.49954e-05 0)
(10.4194 -1.55107e-05 0)
(10.2339 -1.59101e-05 0)
(10.0503 -1.62194e-05 0)
(9.86873 -1.646e-05 0)
(9.6891 -1.66484e-05 0)
(9.51145 -1.67983e-05 0)
(9.33577 -1.69194e-05 0)
(9.16205 -1.70195e-05 0)
(8.9903 -1.71043e-05 0)
(8.82052 -1.71785e-05 0)
(8.6527 -1.72446e-05 0)
(8.48684 -1.73063e-05 0)
(8.32293 -1.73648e-05 0)
(8.16098 -1.74211e-05 0)
(8.00098 -1.74752e-05 0)
(7.84293 -1.75283e-05 0)
(7.68682 -1.75797e-05 0)
(7.53265 -1.76303e-05 0)
(7.38042 -1.76805e-05 0)
(7.23011 -1.77313e-05 0)
(7.08173 -1.7782e-05 0)
(6.93528 -1.78325e-05 0)
(6.79074 -1.78824e-05 0)
(6.64811 -1.79319e-05 0)
(6.50739 -1.79809e-05 0)
(6.36858 -1.80292e-05 0)
(6.23166 -1.80772e-05 0)
(6.09663 -1.81253e-05 0)
(5.96349 -1.81734e-05 0)
(5.83223 -1.82211e-05 0)
(5.70285 -1.82684e-05 0)
(5.57533 -1.83153e-05 0)
(5.44968 -1.83622e-05 0)
(5.32588 -1.84086e-05 0)
(5.20394 -1.84541e-05 0)
(5.08383 -1.84994e-05 0)
(4.96557 -1.85447e-05 0)
(4.84914 -1.85897e-05 0)
(4.73453 -1.86341e-05 0)
(4.62174 -1.86778e-05 0)
(4.51076 -1.87214e-05 0)
(4.40158 -1.87646e-05 0)
(4.2942 -1.88077e-05 0)
(4.18861 -1.885e-05 0)
(4.0848 -1.88922e-05 0)
(3.98277 -1.89341e-05 0)
(3.8825 -1.8976e-05 0)
(3.784 -1.9017e-05 0)
(3.68724 -1.90575e-05 0)
(3.59223 -1.90971e-05 0)
(3.49895 -1.91365e-05 0)
(3.40739 -1.9176e-05 0)
(3.31755 -1.9215e-05 0)
(3.22942 -1.9253e-05 0)
(3.14298 -1.92901e-05 0)
(3.05824 -1.93269e-05 0)
(2.97517 -1.93644e-05 0)
(2.89379 -1.94017e-05 0)
(2.81407 -1.94389e-05 0)
(2.73601 -1.94743e-05 0)
(2.6596 -1.95105e-05 0)
(2.58482 -1.95422e-05 0)
(2.51168 -1.958e-05 0)
(2.44014 -1.96063e-05 0)
(2.37021 -1.96482e-05 0)
(2.30187 -1.96685e-05 0)
(2.23511 -1.97035e-05 0)
(2.16991 -1.97456e-05 0)
(2.10629 -1.97355e-05 0)
(2.0442 -1.98684e-05 0)
(1.98368 -1.96924e-05 0)
(1.92463 -2.00025e-05 0)
(1.86716 -1.95921e-05 0)
(1.81111 -2.0139e-05 0)
(1.75664 -1.94688e-05 0)
(1.70355 -2.0268e-05 0)
(1.65203 -1.91586e-05 0)
(1.60183 -1.99476e-05 0)
(1.55318 -1.68754e-05 0)
(1.50574 -1.09647e-05 0)
(1.45943 1.87814e-05 0)
(1.41232 0.000135958 0)
(1.36039 0.000809178 0)
(1.26394 0.00188835 0)
(1.10989 0.0147539 0)
(0.184744 0.0211318 0)
(42.5746 0.000352461 0)
(42.2544 0.000233308 0)
(41.8733 0.000230157 0)
(41.5163 0.000235379 0)
(41.18 0.000238822 0)
(40.847 0.000242007 0)
(40.5112 0.000244968 0)
(40.174 0.00024759 0)
(39.8369 0.000249892 0)
(39.5002 0.000251917 0)
(39.1639 0.000253701 0)
(38.8279 0.000255268 0)
(38.4921 0.000256606 0)
(38.1567 0.000257893 0)
(37.8216 0.000258921 0)
(37.4868 0.000259871 0)
(37.1526 0.000260739 0)
(36.8187 0.00026154 0)
(36.4854 0.000262284 0)
(36.1526 0.000262985 0)
(35.8203 0.000263648 0)
(35.4887 0.000264283 0)
(35.1576 0.000264896 0)
(34.8272 0.000265486 0)
(34.4974 0.000266057 0)
(34.1684 0.000266608 0)
(33.8401 0.000267144 0)
(33.5125 0.000267661 0)
(33.1858 0.000268173 0)
(32.8599 0.000268662 0)
(32.5348 0.000269143 0)
(32.2106 0.000269608 0)
(31.8873 0.00027006 0)
(31.5649 0.000270503 0)
(31.2435 0.000270935 0)
(30.9231 0.000271359 0)
(30.6037 0.000271775 0)
(30.2854 0.000272179 0)
(29.9681 0.000272568 0)
(29.652 0.000272952 0)
(29.3369 0.000273329 0)
(29.023 0.000273701 0)
(28.7103 0.00027406 0)
(28.3988 0.000274413 0)
(28.0885 0.000274763 0)
(27.7795 0.000275113 0)
(27.4717 0.000275464 0)
(27.1652 0.0002758 0)
(26.86 0.000276123 0)
(26.5562 0.000276438 0)
(26.2537 0.000276748 0)
(25.9527 0.000277057 0)
(25.653 0.000277372 0)
(25.3548 0.000277687 0)
(25.058 0.000277994 0)
(24.7626 0.000278296 0)
(24.4688 0.000278594 0)
(24.1765 0.000278894 0)
(23.8857 0.000279187 0)
(23.5964 0.000279459 0)
(23.3087 0.000279707 0)
(23.0226 0.000279933 0)
(22.7381 0.000280125 0)
(22.4552 0.000280283 0)
(22.1739 0.000280404 0)
(21.8943 0.000280467 0)
(21.6163 0.000280439 0)
(21.34 0.000280287 0)
(21.0654 0.000279982 0)
(20.7925 0.000279479 0)
(20.5214 0.000278712 0)
(20.252 0.000277605 0)
(19.9843 0.000276081 0)
(19.7184 0.000274059 0)
(19.4542 0.000271464 0)
(19.1918 0.00026822 0)
(18.9313 0.000264244 0)
(18.6725 0.000259455 0)
(18.4155 0.000253777 0)
(18.1604 0.000247148 0)
(17.9071 0.000239523 0)
(17.6556 0.000230886 0)
(17.406 0.000221254 0)
(17.1583 0.000210673 0)
(16.9124 0.000199218 0)
(16.6684 0.000186994 0)
(16.4262 0.000174131 0)
(16.186 0.000160781 0)
(15.9476 0.000147115 0)
(15.7111 0.000133312 0)
(15.4765 0.000119558 0)
(15.2439 0.000106033 0)
(15.0131 9.29059e-05 0)
(14.7843 8.03303e-05 0)
(14.5574 6.84367e-05 0)
(14.3324 5.73305e-05 0)
(14.1094 4.709e-05 0)
(13.8883 3.77649e-05 0)
(13.6691 2.9381e-05 0)
(13.4519 2.19433e-05 0)
(13.2367 1.54364e-05 0)
(13.0234 9.82637e-06 0)
(12.8121 5.06593e-06 0)
(12.6028 1.10979e-06 0)
(12.3954 -1.93214e-06 0)
(12.19 -4.56395e-06 0)
(11.9866 -6.93907e-06 0)
(11.7852 -8.87129e-06 0)
(11.5857 -1.04345e-05 0)
(11.3882 -1.16691e-05 0)
(11.1927 -1.26328e-05 0)
(10.9992 -1.33796e-05 0)
(10.8077 -1.39537e-05 0)
(10.6181 -1.43929e-05 0)
(10.4306 -1.47262e-05 0)
(10.245 -1.49784e-05 0)
(10.0614 -1.51688e-05 0)
(9.87975 -1.53135e-05 0)
(9.70011 -1.54246e-05 0)
(9.52244 -1.55119e-05 0)
(9.34674 -1.5582e-05 0)
(9.17301 -1.56401e-05 0)
(9.00126 -1.56897e-05 0)
(8.83147 -1.57339e-05 0)
(8.66364 -1.5774e-05 0)
(8.49778 -1.58123e-05 0)
(8.33387 -1.58496e-05 0)
(8.17192 -1.58862e-05 0)
(8.01192 -1.5922e-05 0)
(7.85386 -1.59574e-05 0)
(7.69775 -1.5992e-05 0)
(7.54358 -1.60262e-05 0)
(7.39134 -1.60605e-05 0)
(7.24104 -1.60954e-05 0)
(7.09266 -1.61305e-05 0)
(6.9462 -1.61655e-05 0)
(6.80166 -1.62003e-05 0)
(6.65903 -1.62349e-05 0)
(6.51831 -1.62692e-05 0)
(6.37949 -1.6303e-05 0)
(6.24257 -1.63368e-05 0)
(6.10754 -1.63709e-05 0)
(5.9744 -1.64051e-05 0)
(5.84314 -1.64391e-05 0)
(5.71375 -1.6473e-05 0)
(5.58623 -1.65069e-05 0)
(5.46058 -1.65408e-05 0)
(5.33678 -1.65746e-05 0)
(5.21483 -1.66078e-05 0)
(5.09473 -1.6641e-05 0)
(4.97646 -1.66745e-05 0)
(4.86003 -1.67077e-05 0)
(4.74542 -1.67408e-05 0)
(4.63262 -1.67734e-05 0)
(4.52164 -1.6806e-05 0)
(4.41246 -1.68383e-05 0)
(4.30508 -1.68708e-05 0)
(4.19949 -1.69028e-05 0)
(4.09568 -1.69348e-05 0)
(3.99364 -1.69665e-05 0)
(3.89337 -1.69984e-05 0)
(3.79486 -1.70294e-05 0)
(3.69811 -1.70601e-05 0)
(3.60309 -1.70901e-05 0)
(3.50981 -1.712e-05 0)
(3.41825 -1.71502e-05 0)
(3.3284 -1.71797e-05 0)
(3.24027 -1.72087e-05 0)
(3.15383 -1.72367e-05 0)
(3.06908 -1.72646e-05 0)
(2.98602 -1.72929e-05 0)
(2.90463 -1.73212e-05 0)
(2.82491 -1.73489e-05 0)
(2.74684 -1.73762e-05 0)
(2.67043 -1.74019e-05 0)
(2.59566 -1.74286e-05 0)
(2.52251 -1.74507e-05 0)
(2.45097 -1.7483e-05 0)
(2.38103 -1.74883e-05 0)
(2.31269 -1.75529e-05 0)
(2.24593 -1.74879e-05 0)
(2.18073 -1.76786e-05 0)
(2.1171 -1.7413e-05 0)
(2.05501 -1.79283e-05 0)
(1.99448 -1.7188e-05 0)
(1.93543 -1.82461e-05 0)
(1.87796 -1.69499e-05 0)
(1.82191 -1.85235e-05 0)
(1.76744 -1.6721e-05 0)
(1.71434 -1.88032e-05 0)
(1.66282 -1.6236e-05 0)
(1.61262 -1.84535e-05 0)
(1.56397 -1.31707e-05 0)
(1.51653 -5.51139e-06 0)
(1.47034 4.73062e-05 0)
(1.42415 0.000259668 0)
(1.37685 0.00129772 0)
(1.29548 0.00403767 0)
(1.23554 0.0248729 0)
(0.489633 0.0330108 0)
(42.5746 0.000358298 0)
(42.2544 0.000269898 0)
(41.8733 0.000269701 0)
(41.5163 0.000276195 0)
(41.18 0.000279645 0)
(40.847 0.000282532 0)
(40.5112 0.000285014 0)
(40.174 0.00028696 0)
(39.8369 0.000288434 0)
(39.5002 0.000289525 0)
(39.1639 0.000290304 0)
(38.8278 0.000290824 0)
(38.4921 0.000291096 0)
(38.1567 0.000291301 0)
(37.8216 0.000291264 0)
(37.4868 0.000291162 0)
(37.1525 0.000291003 0)
(36.8187 0.000290806 0)
(36.4854 0.000290584 0)
(36.1526 0.000290352 0)
(35.8203 0.000290116 0)
(35.4887 0.000289886 0)
(35.1576 0.000289668 0)
(34.8272 0.000289459 0)
(34.4974 0.000289263 0)
(34.1684 0.000289077 0)
(33.8401 0.000288904 0)
(33.5125 0.000288742 0)
(33.1858 0.000288599 0)
(32.8599 0.000288461 0)
(32.5348 0.000288337 0)
(32.2106 0.000288221 0)
(31.8873 0.000288114 0)
(31.5649 0.000288019 0)
(31.2435 0.000287933 0)
(30.9231 0.000287857 0)
(30.6038 0.000287793 0)
(30.2854 0.000287734 0)
(29.9682 0.000287677 0)
(29.652 0.000287631 0)
(29.337 0.000287592 0)
(29.0231 0.000287564 0)
(28.7103 0.000287537 0)
(28.3988 0.000287517 0)
(28.0885 0.000287507 0)
(27.7795 0.00028751 0)
(27.4717 0.000287526 0)
(27.1652 0.000287539 0)
(26.8601 0.000287549 0)
(26.5563 0.000287562 0)
(26.2538 0.00028758 0)
(25.9527 0.000287606 0)
(25.6531 0.000287648 0)
(25.3548 0.000287699 0)
(25.058 0.000287752 0)
(24.7627 0.000287808 0)
(24.4689 0.00028787 0)
(24.1766 0.000287941 0)
(23.8858 0.000288014 0)
(23.5965 0.000288073 0)
(23.3088 0.000288118 0)
(23.0227 0.000288147 0)
(22.7382 0.000288152 0)
(22.4553 0.000288133 0)
(22.174 0.000288088 0)
(21.8944 0.000287998 0)
(21.6165 0.000287832 0)
(21.3402 0.000287563 0)
(21.0656 0.000287161 0)
(20.7927 0.000286588 0)
(20.5216 0.000285781 0)
(20.2521 0.000284669 0)
(19.9845 0.00028318 0)
(19.7186 0.000281238 0)
(19.4544 0.000278773 0)
(19.1921 0.000275712 0)
(18.9315 0.000271976 0)
(18.6727 0.000267487 0)
(18.4158 0.000262168 0)
(18.1606 0.000255951 0)
(17.9073 0.000248788 0)
(17.6559 0.000240653 0)
(17.4063 0.000231548 0)
(17.1585 0.000221504 0)
(16.9126 0.000210581 0)
(16.6686 0.000198862 0)
(16.4264 0.00018646 0)
(16.1861 0.000173506 0)
(15.9478 0.000160153 0)
(15.7113 0.000146566 0)
(15.4767 0.000132917 0)
(15.244 0.000119378 0)
(15.0133 0.000106115 0)
(14.7844 9.3282e-05 0)
(14.5575 8.10155e-05 0)
(14.3325 6.94311e-05 0)
(14.1095 5.8621e-05 0)
(13.8884 4.86519e-05 0)
(13.6692 3.95652e-05 0)
(13.452 3.13764e-05 0)
(13.2368 2.40761e-05 0)
(13.0235 1.76323e-05 0)
(12.8122 1.19922e-05 0)
(12.6028 7.07549e-06 0)
(12.3955 2.67457e-06 0)
(12.1901 -9.90527e-07 0)
(11.9866 -3.80479e-06 0)
(11.7852 -6.10928e-06 0)
(11.5857 -7.97719e-06 0)
(11.3883 -9.47644e-06 0)
(11.1928 -1.06713e-05 0)
(10.9993 -1.16174e-05 0)
(10.8077 -1.23613e-05 0)
(10.6182 -1.2943e-05 0)
(10.4306 -1.33943e-05 0)
(10.245 -1.37432e-05 0)
(10.0614 -1.40124e-05 0)
(9.87979 -1.42206e-05 0)
(9.70015 -1.43829e-05 0)
(9.52248 -1.45112e-05 0)
(9.34678 -1.46142e-05 0)
(9.17305 -1.46987e-05 0)
(9.0013 -1.47699e-05 0)
(8.83151 -1.48317e-05 0)
(8.66368 -1.48866e-05 0)
(8.49782 -1.49376e-05 0)
(8.33391 -1.49858e-05 0)
(8.17196 -1.50323e-05 0)
(8.01196 -1.5077e-05 0)
(7.8539 -1.51209e-05 0)
(7.69779 -1.51634e-05 0)
(7.54362 -1.52053e-05 0)
(7.39138 -1.52471e-05 0)
(7.24108 -1.52894e-05 0)
(7.0927 -1.53318e-05 0)
(6.94624 -1.53742e-05 0)
(6.8017 -1.54163e-05 0)
(6.65907 -1.54581e-05 0)
(6.51835 -1.54995e-05 0)
(6.37953 -1.55405e-05 0)
(6.24261 -1.55813e-05 0)
(6.10758 -1.56225e-05 0)
(5.97444 -1.56636e-05 0)
(5.84318 -1.57045e-05 0)
(5.71379 -1.57452e-05 0)
(5.58627 -1.57858e-05 0)
(5.46062 -1.58264e-05 0)
(5.33682 -1.58668e-05 0)
(5.21487 -1.59065e-05 0)
(5.09477 -1.59461e-05 0)
(4.9765 -1.59858e-05 0)
(4.86007 -1.60253e-05 0)
(4.74545 -1.60645e-05 0)
(4.63266 -1.61031e-05 0)
(4.52168 -1.61418e-05 0)
(4.4125 -1.61802e-05 0)
(4.30512 -1.62187e-05 0)
(4.19953 -1.62566e-05 0)
(4.09572 -1.62945e-05 0)
(3.99368 -1.63322e-05 0)
(3.89341 -1.637e-05 0)
(3.7949 -1.64071e-05 0)
(3.69815 -1.64439e-05 0)
(3.60313 -1.64801e-05 0)
(3.50985 -1.6516e-05 0)
(3.41829 -1.65523e-05 0)
(3.32844 -1.65881e-05 0)
(3.24031 -1.66234e-05 0)
(3.15387 -1.66577e-05 0)
(3.06912 -1.66921e-05 0)
(2.98606 -1.6727e-05 0)
(2.90467 -1.67622e-05 0)
(2.82495 -1.67965e-05 0)
(2.74688 -1.68315e-05 0)
(2.67047 -1.68625e-05 0)
(2.59569 -1.68998e-05 0)
(2.52255 -1.69218e-05 0)
(2.45101 -1.69754e-05 0)
(2.38107 -1.69614e-05 0)
(2.31273 -1.70822e-05 0)
(2.24597 -1.69386e-05 0)
(2.18077 -1.72783e-05 0)
(2.11714 -1.67838e-05 0)
(2.05505 -1.76632e-05 0)
(1.99452 -1.63958e-05 0)
(1.93547 -1.81453e-05 0)
(1.878 -1.60177e-05 0)
(1.82195 -1.85217e-05 0)
(1.76748 -1.56561e-05 0)
(1.71438 -1.89186e-05 0)
(1.66286 -1.49605e-05 0)
(1.61266 -1.84923e-05 0)
(1.56401 -1.08481e-05 0)
(1.51657 -1.60208e-06 0)
(1.47039 6.47602e-05 0)
(1.42422 0.000328657 0)
(1.37706 0.00161903 0)
(1.29674 0.0047279 0)
(1.25029 0.0326558 0)
(0.574066 0.0439829 0)
(42.5746 0.000335707 0)
(42.2544 0.000245303 0)
(41.8733 0.000233736 0)
(41.5163 0.000235536 0)
(41.18 0.000236107 0)
(40.8469 0.000237305 0)
(40.5112 0.000238887 0)
(40.174 0.000240413 0)
(39.8368 0.000241792 0)
(39.5002 0.000243026 0)
(39.1639 0.00024412 0)
(38.8278 0.000245076 0)
(38.4921 0.000245874 0)
(38.1566 0.00024665 0)
(37.8215 0.000247233 0)
(37.4868 0.000247767 0)
(37.1525 0.000248249 0)
(36.8187 0.000248691 0)
(36.4854 0.0002491 0)
(36.1526 0.000249486 0)
(35.8203 0.000249852 0)
(35.4886 0.000250206 0)
(35.1576 0.000250552 0)
(34.8272 0.000250889 0)
(34.4974 0.000251219 0)
(34.1684 0.00025154 0)
(33.8401 0.000251856 0)
(33.5125 0.000252163 0)
(33.1858 0.000252473 0)
(32.8598 0.00025277 0)
(32.5348 0.000253065 0)
(32.2106 0.000253353 0)
(31.8873 0.000253635 0)
(31.5649 0.000253914 0)
(31.2435 0.000254189 0)
(30.9231 0.00025446 0)
(30.6038 0.00025473 0)
(30.2854 0.000254994 0)
(29.9682 0.000255248 0)
(29.652 0.000255501 0)
(29.3369 0.000255752 0)
(29.0231 0.000256001 0)
(28.7103 0.000256243 0)
(28.3988 0.000256483 0)
(28.0885 0.000256723 0)
(27.7795 0.000256967 0)
(27.4717 0.000257214 0)
(27.1652 0.000257451 0)
(26.8601 0.000257679 0)
(26.5562 0.000257901 0)
(26.2538 0.000258122 0)
(25.9527 0.000258343 0)
(25.6531 0.000258574 0)
(25.3548 0.000258806 0)
(25.058 0.000259034 0)
(24.7627 0.000259259 0)
(24.4689 0.000259483 0)
(24.1765 0.000259711 0)
(23.8857 0.000259934 0)
(23.5965 0.000260139 0)
(23.3088 0.000260325 0)
(23.0227 0.000260491 0)
(22.7382 0.000260629 0)
(22.4553 0.000260738 0)
(22.174 0.000260816 0)
(21.8944 0.000260844 0)
(21.6164 0.000260792 0)
(21.3402 0.00026063 0)
(21.0656 0.000260333 0)
(20.7927 0.000259859 0)
(20.5216 0.000259149 0)
(20.2521 0.000258132 0)
(19.9845 0.000256739 0)
(19.7185 0.000254897 0)
(19.4544 0.000252536 0)
(19.192 0.000249587 0)
(18.9315 0.000245976 0)
(18.6727 0.000241625 0)
(18.4158 0.000236466 0)
(18.1606 0.000230437 0)
(17.9073 0.000223496 0)
(17.6559 0.000215626 0)
(17.4062 0.000206836 0)
(17.1585 0.000197166 0)
(16.9126 0.000186681 0)
(16.6686 0.000175473 0)
(16.4264 0.000163657 0)
(16.1861 0.00015137 0)
(15.9478 0.000138765 0)
(15.7113 0.000126008 0)
(15.4767 0.000113266 0)
(15.244 0.000100707 0)
(15.0132 8.84874e-05 0)
(14.7844 7.67505e-05 0)
(14.5575 6.56202e-05 0)
(14.3325 5.51981e-05 0)
(14.1095 4.55613e-05 0)
(13.8884 3.67612e-05 0)
(13.6692 2.88244e-05 0)
(13.452 2.17546e-05 0)
(13.2368 1.55355e-05 0)
(13.0235 1.01348e-05 0)
(12.8122 5.50985e-06 0)
(12.6028 1.61638e-06 0)
(12.3955 -1.5129e-06 0)
(12.1901 -4.08392e-06 0)
(11.9866 -6.37141e-06 0)
(11.7852 -8.23699e-06 0)
(11.5857 -9.73948e-06 0)
(11.3883 -1.09359e-05 0)
(11.1928 -1.18787e-05 0)
(10.9993 -1.26149e-05 0)
(10.8077 -1.31845e-05 0)
(10.6182 -1.36226e-05 0)
(10.4306 -1.39572e-05 0)
(10.245 -1.42124e-05 0)
(10.0614 -1.44069e-05 0)
(9.87979 -1.45562e-05 0)
(9.70015 -1.46722e-05 0)
(9.52248 -1.47643e-05 0)
(9.34678 -1.48389e-05 0)
(9.17305 -1.49013e-05 0)
(9.0013 -1.49549e-05 0)
(8.83151 -1.50028e-05 0)
(8.66368 -1.50466e-05 0)
(8.49782 -1.50884e-05 0)
(8.33391 -1.51289e-05 0)
(8.17196 -1.51687e-05 0)
(8.01196 -1.52074e-05 0)
(7.8539 -1.52457e-05 0)
(7.69779 -1.52831e-05 0)
(7.54362 -1.53201e-05 0)
(7.39138 -1.5357e-05 0)
(7.24108 -1.53944e-05 0)
(7.0927 -1.5432e-05 0)
(6.94624 -1.54694e-05 0)
(6.8017 -1.55065e-05 0)
(6.65907 -1.55434e-05 0)
(6.51835 -1.55798e-05 0)
(6.37953 -1.56158e-05 0)
(6.24261 -1.56516e-05 0)
(6.10758 -1.56876e-05 0)
(5.97444 -1.57237e-05 0)
(5.84318 -1.57596e-05 0)
(5.71379 -1.57952e-05 0)
(5.58627 -1.58307e-05 0)
(5.46062 -1.58662e-05 0)
(5.33682 -1.59015e-05 0)
(5.21487 -1.59361e-05 0)
(5.09477 -1.59707e-05 0)
(4.9765 -1.60055e-05 0)
(4.86007 -1.60399e-05 0)
(4.74545 -1.60742e-05 0)
(4.63266 -1.61079e-05 0)
(4.52168 -1.61417e-05 0)
(4.4125 -1.61751e-05 0)
(4.30512 -1.62086e-05 0)
(4.19953 -1.62416e-05 0)
(4.09572 -1.62746e-05 0)
(3.99368 -1.63073e-05 0)
(3.89341 -1.63402e-05 0)
(3.7949 -1.63723e-05 0)
(3.69815 -1.6404e-05 0)
(3.60313 -1.64352e-05 0)
(3.50985 -1.64661e-05 0)
(3.41829 -1.64974e-05 0)
(3.32844 -1.6528e-05 0)
(3.24031 -1.65582e-05 0)
(3.15387 -1.65873e-05 0)
(3.06912 -1.66166e-05 0)
(2.98606 -1.6646e-05 0)
(2.90467 -1.6676e-05 0)
(2.82495 -1.67044e-05 0)
(2.74688 -1.67348e-05 0)
(2.67047 -1.67583e-05 0)
(2.59569 -1.67941e-05 0)
(2.52255 -1.68022e-05 0)
(2.45101 -1.6867e-05 0)
(2.38107 -1.68142e-05 0)
(2.31273 -1.69918e-05 0)
(2.24597 -1.67322e-05 0)
(2.18077 -1.7256e-05 0)
(2.11714 -1.64527e-05 0)
(2.05505 -1.78098e-05 0)
(1.99452 -1.58507e-05 0)
(1.93547 -1.85206e-05 0)
(1.878 -1.53011e-05 0)
(1.82195 -1.9065e-05 0)
(1.76748 -1.47843e-05 0)
(1.71438 -1.96477e-05 0)
(1.66286 -1.38169e-05 0)
(1.61266 -1.91357e-05 0)
(1.56401 -8.41163e-06 0)
(1.51657 3.49993e-06 0)
(1.47039 9.11895e-05 0)
(1.42425 0.000438171 0)
(1.37714 0.00208631 0)
(1.29731 0.00617343 0)
(1.25265 0.0416623 0)
(0.607548 0.0565868 0)
(42.5746 0.000315043 0)
(42.2543 0.000238153 0)
(41.8733 0.000230265 0)
(41.5163 0.000236899 0)
(41.18 0.000240549 0)
(40.8469 0.000243654 0)
(40.5112 0.000246488 0)
(40.174 0.000248808 0)
(39.8368 0.000250661 0)
(39.5002 0.00025215 0)
(39.1639 0.000253343 0)
(38.8278 0.000254285 0)
(38.4921 0.000254989 0)
(38.1566 0.000255602 0)
(37.8215 0.000255991 0)
(37.4868 0.000256298 0)
(37.1525 0.000256535 0)
(36.8187 0.00025672 0)
(36.4854 0.000256867 0)
(36.1526 0.000256988 0)
(35.8203 0.000257092 0)
(35.4886 0.000257186 0)
(35.1576 0.000257279 0)
(34.8272 0.000257366 0)
(34.4974 0.000257453 0)
(34.1684 0.000257538 0)
(33.8401 0.000257625 0)
(33.5125 0.000257711 0)
(33.1858 0.000257805 0)
(32.8598 0.000257894 0)
(32.5348 0.000257987 0)
(32.2106 0.000258079 0)
(31.8873 0.000258172 0)
(31.5649 0.000258269 0)
(31.2435 0.000258366 0)
(30.9231 0.000258466 0)
(30.6037 0.00025857 0)
(30.2854 0.000258673 0)
(29.9681 0.000258773 0)
(29.652 0.000258875 0)
(29.3369 0.00025898 0)
(29.023 0.000259088 0)
(28.7103 0.000259193 0)
(28.3988 0.0002593 0)
(28.0885 0.000259412 0)
(27.7795 0.000259531 0)
(27.4717 0.000259657 0)
(27.1652 0.000259776 0)
(26.8601 0.000259889 0)
(26.5562 0.000260001 0)
(26.2538 0.000260115 0)
(25.9527 0.000260232 0)
(25.653 0.000260361 0)
(25.3548 0.000260495 0)
(25.058 0.000260627 0)
(24.7627 0.000260759 0)
(24.4689 0.000260893 0)
(24.1765 0.000261033 0)
(23.8857 0.000261171 0)
(23.5965 0.000261294 0)
(23.3088 0.000261402 0)
(23.0227 0.000261494 0)
(22.7382 0.000261561 0)
(22.4553 0.000261603 0)
(22.174 0.000261619 0)
(21.8944 0.000261589 0)
(21.6164 0.000261488 0)
(21.3402 0.000261286 0)
(21.0656 0.00026096 0)
(20.7927 0.000260471 0)
(20.5215 0.000259763 0)
(20.2521 0.000258769 0)
(19.9844 0.000257423 0)
(19.7185 0.000255657 0)
(19.4544 0.000253404 0)
(19.192 0.000250598 0)
(18.9315 0.000247165 0)
(18.6727 0.000243034 0)
(18.4157 0.000238134 0)
(18.1606 0.000232405 0)
(17.9073 0.000225803 0)
(17.6558 0.000218306 0)
(17.4062 0.000209919 0)
(17.1585 0.000200673 0)
(16.9126 0.000190623 0)
(16.6685 0.000179852 0)
(16.4264 0.000168462 0)
(16.1861 0.000156579 0)
(15.9477 0.000144345 0)
(15.7113 0.000131913 0)
(15.4767 0.000119442 0)
(15.244 0.00010709 0)
(15.0132 9.50097e-05 0)
(14.7844 8.33413e-05 0)
(14.5575 7.22081e-05 0)
(14.3325 6.17141e-05 0)
(14.1095 5.19412e-05 0)
(13.8884 4.29473e-05 0)
(13.6692 3.47675e-05 0)
(13.452 2.74145e-05 0)
(13.2368 2.08804e-05 0)
(13.0235 1.51389e-05 0)
(12.8122 1.01474e-05 0)
(12.6028 5.84623e-06 0)
(12.3955 2.17257e-06 0)
(12.1901 -9.69867e-07 0)
(11.9866 -3.52716e-06 0)
(11.7852 -5.62285e-06 0)
(11.5857 -7.32807e-06 0)
(11.3883 -8.70108e-06 0)
(11.1928 -9.79627e-06 0)
(10.9993 -1.06627e-05 0)
(10.8077 -1.13428e-05 0)
(10.6182 -1.18736e-05 0)
(10.4306 -1.22848e-05 0)
(10.245 -1.26023e-05 0)
(10.0614 -1.28468e-05 0)
(9.87979 -1.30356e-05 0)
(9.70015 -1.31823e-05 0)
(9.52248 -1.3298e-05 0)
(9.34678 -1.33904e-05 0)
(9.17305 -1.34659e-05 0)
(9.0013 -1.3529e-05 0)
(8.83151 -1.35836e-05 0)
(8.66368 -1.36317e-05 0)
(8.49782 -1.36761e-05 0)
(8.33391 -1.3718e-05 0)
(8.17196 -1.37581e-05 0)
(8.01196 -1.37967e-05 0)
(7.8539 -1.38344e-05 0)
(7.69779 -1.38709e-05 0)
(7.54362 -1.39068e-05 0)
(7.39138 -1.39425e-05 0)
(7.24108 -1.39786e-05 0)
(7.0927 -1.40149e-05 0)
(6.94624 -1.4051e-05 0)
(6.8017 -1.40869e-05 0)
(6.65907 -1.41226e-05 0)
(6.51835 -1.41579e-05 0)
(6.37953 -1.41928e-05 0)
(6.24261 -1.42276e-05 0)
(6.10758 -1.42626e-05 0)
(5.97444 -1.42977e-05 0)
(5.84318 -1.43326e-05 0)
(5.71379 -1.43673e-05 0)
(5.58627 -1.4402e-05 0)
(5.46062 -1.44366e-05 0)
(5.33682 -1.44711e-05 0)
(5.21487 -1.4505e-05 0)
(5.09477 -1.45388e-05 0)
(4.9765 -1.45728e-05 0)
(4.86007 -1.46064e-05 0)
(4.74545 -1.46401e-05 0)
(4.63266 -1.4673e-05 0)
(4.52168 -1.47061e-05 0)
(4.4125 -1.47389e-05 0)
(4.30512 -1.47717e-05 0)
(4.19953 -1.48041e-05 0)
(4.09572 -1.48364e-05 0)
(3.99368 -1.48685e-05 0)
(3.89341 -1.49007e-05 0)
(3.7949 -1.49323e-05 0)
(3.69815 -1.49634e-05 0)
(3.60313 -1.49941e-05 0)
(3.50985 -1.50245e-05 0)
(3.41829 -1.50552e-05 0)
(3.32844 -1.50853e-05 0)
(3.24031 -1.51151e-05 0)
(3.15387 -1.51436e-05 0)
(3.06912 -1.51726e-05 0)
(2.98606 -1.52015e-05 0)
(2.90467 -1.52313e-05 0)
(2.82495 -1.52587e-05 0)
(2.74688 -1.52899e-05 0)
(2.67047 -1.53109e-05 0)
(2.59569 -1.53509e-05 0)
(2.52255 -1.53497e-05 0)
(2.45101 -1.54326e-05 0)
(2.38107 -1.5344e-05 0)
(2.31273 -1.55886e-05 0)
(2.24597 -1.52096e-05 0)
(2.18077 -1.59333e-05 0)
(2.11714 -1.47977e-05 0)
(2.05505 -1.66625e-05 0)
(1.99452 -1.39493e-05 0)
(1.93547 -1.76002e-05 0)
(1.878 -1.31891e-05 0)
(1.82195 -1.83e-05 0)
(1.76748 -1.24863e-05 0)
(1.71438 -1.90674e-05 0)
(1.66286 -1.12298e-05 0)
(1.61266 -1.847e-05 0)
(1.56401 -4.50089e-06 0)
(1.51657 9.49446e-06 0)
(1.4704 0.000120284 0)
(1.42429 0.000554437 0)
(1.37725 0.00258707 0)
(1.2981 0.00758017 0)
(1.25387 0.0513855 0)
(0.631951 0.0688938 0)
(42.5745 0.000260693 0)
(42.2543 0.000205018 0)