/*--------------------------------*- C++ -*----------------------------------*\
| =========                 |                                                 |
| \\      /  F ield         | OpenFOAM: The Open Source CFD Toolbox           |
|  \\    /   O peration     | Version:  3.0.x                                 |
|   \\  /    A nd           | Web:      www.OpenFOAM.org                      |
|    \\/     M anipulation  |                                                 |
\*---------------------------------------------------------------------------*/
FoamFile
{
    version     2.0;
    format      ascii;
    class       volVectorField;
    location    "0.40005";
    object      U;
}
// * * * * * * * * * * * * * * * * * * * * * * * * * * * * * * * * * * * * * //

dimensions      [0 1 -1 0 0 0 0];

internalField   nonuniform List<vector> 
27600
(
(42.685 0.000288119 0)
(42.6702 0.000241397 0)
(42.6552 0.000238368 0)
(42.6403 0.000240609 0)
(42.6253 0.000242863 0)
(42.6103 0.000244883 0)
(42.5954 0.000246654 0)
(42.5804 0.000248189 0)
(42.5655 0.000249526 0)
(42.5505 0.000250701 0)
(42.5356 0.000251744 0)
(42.5207 0.000252676 0)
(42.5058 0.000253517 0)
(42.4908 0.00025428 0)
(42.4759 0.000254975 0)
(42.461 0.000255611 0)
(42.4461 0.000256196 0)
(42.4312 0.000256735 0)
(42.4163 0.000257233 0)
(42.4014 0.000257695 0)
(42.3865 0.000258123 0)
(42.3717 0.000258517 0)
(42.3568 0.000258887 0)
(42.3419 0.000259256 0)
(42.327 0.000259569 0)
(42.3122 0.000259871 0)
(42.2973 0.000260152 0)
(42.2825 0.000260414 0)
(42.2676 0.000260726 0)
(42.2527 0.000260887 0)
(42.2379 0.000261131 0)
(42.223 0.000261337 0)
(42.2082 0.000261528 0)
(42.1933 0.000261704 0)
(42.1785 0.000261865 0)
(42.1636 0.000262018 0)
(42.1488 0.000262165 0)
(42.134 0.000262291 0)
(42.1191 0.000262398 0)
(42.1043 0.000262501 0)
(42.0894 0.00026259 0)
(42.0746 0.000262667 0)
(42.0598 0.000262661 0)
(42.045 0.000262677 0)
(42.0301 0.000262627 0)
(42.0153 0.000262503 0)
(42.0005 0.000262283 0)
(41.9858 0.000261934 0)
(41.971 0.000261414 0)
(41.9564 0.00026067 0)
(41.9417 0.000259643 0)
(41.9272 0.000258271 0)
(41.9127 0.000256442 0)
(41.8984 0.00025413 0)
(41.8842 0.000251227 0)
(41.8703 0.00024753 0)
(41.8566 0.000243134 0)
(41.8431 0.00023788 0)
(41.8301 0.000231714 0)
(41.8174 0.000224606 0)
(41.8052 0.000216549 0)
(41.7934 0.000207561 0)
(41.7823 0.000197696 0)
(41.7717 0.000187036 0)
(41.7618 0.000175691 0)
(41.7525 0.000163801 0)
(41.744 0.000151522 0)
(41.7361 0.000139025 0)
(41.729 0.00012649 0)
(41.7226 0.000114093 0)
(41.7168 0.000102001 0)
(41.7118 9.03588e-05 0)
(41.7073 7.93196e-05 0)
(41.7034 6.89766e-05 0)
(41.7001 5.94149e-05 0)
(41.6973 5.06893e-05 0)
(41.6949 4.28275e-05 0)
(41.693 3.58324e-05 0)
(41.6913 2.9685e-05 0)
(41.69 2.43484e-05 0)
(41.6889 1.97712e-05 0)
(41.6881 1.58917e-05 0)
(41.6874 1.2642e-05 0)
(41.6869 9.95172e-06 0)
(41.6865 7.7493e-06 0)
(41.6862 5.96705e-06 0)
(41.686 4.54076e-06 0)
(41.6858 3.41185e-06 0)
(41.6857 2.52801e-06 0)
(41.6856 1.84346e-06 0)
(41.6856 1.31889e-06 0)
(41.6856 9.21089e-07 0)
(41.6856 6.22549e-07 0)
(41.6856 4.00719e-07 0)
(41.6856 2.37349e-07 0)
(41.6856 1.1766e-07 0)
(41.6856 3.10478e-08 0)
(41.6856 -3.05449e-08 0)
(41.6856 -7.25072e-08 0)
(41.6856 -1.00896e-07 0)
(41.6856 -1.19895e-07 0)
(41.6857 -1.32526e-07 0)
(41.6857 -1.40842e-07 0)
(41.6857 -1.4614e-07 0)
(41.6857 -1.49971e-07 0)
(41.6857 -1.52103e-07 0)
(41.6857 -1.53559e-07 0)
(41.6857 -1.54499e-07 0)
(41.6856 -1.55105e-07 0)
(41.6856 -1.55448e-07 0)
(41.6856 -1.55739e-07 0)
(41.6856 -1.55932e-07 0)
(41.6856 -1.56077e-07 0)
(41.6855 -1.56174e-07 0)
(41.6855 -1.56247e-07 0)
(41.6855 -1.56265e-07 0)
(41.6854 -1.56409e-07 0)
(41.6854 -1.56022e-07 0)
(41.6854 -1.56051e-07 0)
(41.6853 -1.56166e-07 0)
(41.6853 -1.55915e-07 0)
(41.6852 -1.55796e-07 0)
(41.6852 -1.55669e-07 0)
(41.6851 -1.55547e-07 0)
(41.6851 -1.55439e-07 0)
(41.685 -1.55324e-07 0)
(41.685 -1.55239e-07 0)
(41.6849 -1.55172e-07 0)
(41.6849 -1.55119e-07 0)
(41.6848 -1.55096e-07 0)
(41.6847 -1.55087e-07 0)
(41.6847 -1.55086e-07 0)
(41.6846 -1.55101e-07 0)
(41.6846 -1.5512e-07 0)
(41.6845 -1.55136e-07 0)
(41.6845 -1.55153e-07 0)
(41.6844 -1.55205e-07 0)
(41.6844 -1.55101e-07 0)
(41.6844 -1.55109e-07 0)
(41.6843 -1.5509e-07 0)
(41.6843 -1.5508e-07 0)
(41.6842 -1.55024e-07 0)
(41.6842 -1.54962e-07 0)
(41.6842 -1.54881e-07 0)
(41.6842 -1.54813e-07 0)
(41.6841 -1.54792e-07 0)
(41.6841 -1.54718e-07 0)
(41.6841 -1.54654e-07 0)
(41.6841 -1.54598e-07 0)
(41.6841 -1.5456e-07 0)
(41.6841 -1.54604e-07 0)
(41.6841 -1.54558e-07 0)
(41.684 -1.54483e-07 0)
(41.684 -1.54491e-07 0)
(41.684 -1.5452e-07 0)
(41.684 -1.54546e-07 0)
(41.684 -1.54591e-07 0)
(41.684 -1.54517e-07 0)
(41.684 -1.5447e-07 0)
(41.684 -1.54473e-07 0)
(41.684 -1.54494e-07 0)
(41.684 -1.54517e-07 0)
(41.684 -1.54519e-07 0)
(41.684 -1.54509e-07 0)
(41.684 -1.54502e-07 0)
(41.684 -1.54477e-07 0)
(41.684 -1.5445e-07 0)
(41.684 -1.54387e-07 0)
(41.684 -1.54325e-07 0)
(41.6839 -1.54223e-07 0)
(41.6839 -1.54105e-07 0)
(41.6839 -1.54096e-07 0)
(41.6838 -1.53599e-07 0)
(41.6838 -1.5369e-07 0)
(41.6837 -1.53394e-07 0)
(41.6836 -1.53039e-07 0)
(41.6835 -1.52671e-07 0)
(41.6834 -1.52296e-07 0)
(41.6833 -1.51861e-07 0)
(41.6832 -1.51392e-07 0)
(41.683 -1.50845e-07 0)
(41.6829 -1.50233e-07 0)
(41.6827 -1.49575e-07 0)
(41.6824 -1.48823e-07 0)
(41.6822 -1.4799e-07 0)
(41.6819 -1.47052e-07 0)
(41.6816 -1.45996e-07 0)
(41.6813 -1.4455e-07 0)
(41.6809 -1.41635e-07 0)
(41.6805 -1.31961e-07 0)
(41.6801 -9.1559e-08 0)
(41.6795 9.46413e-08 0)
(41.6789 1.01567e-06 0)
(41.678 5.58454e-06 0)
(41.6758 2.8121e-05 0)
(41.6675 0.000138555 0)
(41.6313 0.000667142 0)
(41.4627 0.00312041 0)
(40.9863 0.0158006 0)
(36.3436 0.0566897 0)
(42.7002 0.000462908 0)
(42.7006 0.000329772 0)
(42.7009 0.0003134 0)
(42.7011 0.000310389 0)
(42.7013 0.000308063 0)
(42.7016 0.000306211 0)
(42.7018 0.0003047 0)
(42.702 0.000303384 0)
(42.7022 0.000302207 0)
(42.7024 0.000301141 0)
(42.7026 0.000300166 0)
(42.7028 0.000299268 0)
(42.703 0.000298437 0)
(42.7032 0.000297664 0)
(42.7034 0.000296943 0)
(42.7036 0.000296268 0)
(42.7037 0.000295636 0)
(42.7039 0.00029504 0)
(42.7041 0.000294481 0)
(42.7042 0.000293954 0)
(42.7044 0.000293456 0)
(42.7045 0.000292978 0)
(42.7047 0.000292533 0)
(42.7048 0.000292156 0)
(42.705 0.000291741 0)
(42.7051 0.00029137 0)
(42.7052 0.000291015 0)
(42.7053 0.000290675 0)
(42.7055 0.000290484 0)
(42.7056 0.000290052 0)
(42.7057 0.000289831 0)
(42.7058 0.000289576 0)
(42.7058 0.000289333 0)
(42.7059 0.000289102 0)
(42.706 0.000288879 0)
(42.7061 0.000288677 0)
(42.7061 0.000288497 0)
(42.7062 0.000288306 0)
(42.7062 0.000288114 0)
(42.7063 0.000287945 0)
(42.7063 0.000287777 0)
(42.7063 0.000287619 0)
(42.7063 0.00028734 0)
(42.7064 0.000287144 0)
(42.7064 0.000286861 0)
(42.7064 0.000286496 0)
(42.7064 0.000286018 0)
(42.7064 0.000285383 0)
(42.7064 0.000284537 0)
(42.7064 0.000283409 0)
(42.7064 0.000281929 0)
(42.7064 0.000280023 0)
(42.7064 0.000277533 0)
(42.7065 0.00027447 0)
(42.7065 0.000270692 0)
(42.7066 0.000265895 0)
(42.7067 0.000260325 0)
(42.7068 0.000253732 0)
(42.707 0.000246081 0)
(42.7072 0.000237365 0)
(42.7075 0.0002276 0)
(42.7077 0.000216835 0)
(42.708 0.000205159 0)
(42.7084 0.000192694 0)
(42.7088 0.000179594 0)
(42.7092 0.000166037 0)
(42.7096 0.000152217 0)
(42.7101 0.00013834 0)
(42.7106 0.000124609 0)
(42.711 0.000111218 0)
(42.7115 9.8342e-05 0)
(42.7119 8.61169e-05 0)
(42.7124 7.47042e-05 0)
(42.7128 6.41673e-05 0)
(42.7132 5.45738e-05 0)
(42.7135 4.59536e-05 0)
(42.7138 3.83075e-05 0)
(42.7141 3.16112e-05 0)
(42.7144 2.582e-05 0)
(42.7146 2.08732e-05 0)
(42.7148 1.66989e-05 0)
(42.715 1.32187e-05 0)
(42.7152 1.03515e-05 0)
(42.7153 8.01769e-06 0)
(42.7154 6.13867e-06 0)
(42.7155 4.64392e-06 0)
(42.7156 3.46806e-06 0)
(42.7156 2.55332e-06 0)
(42.7157 1.84951e-06 0)
(42.7157 1.31389e-06 0)
(42.7158 9.1061e-07 0)
(42.7158 6.10144e-07 0)
(42.7158 3.88553e-07 0)
(42.7159 2.26678e-07 0)
(42.7159 1.09359e-07 0)
(42.7159 2.51115e-08 0)
(42.7159 -2.95165e-08 0)
(42.7159 -6.96598e-08 0)
(42.7159 -9.70117e-08 0)
(42.7159 -1.15568e-07 0)
(42.7159 -1.28027e-07 0)
(42.7159 -1.36325e-07 0)
(42.7159 -1.41833e-07 0)
(42.7158 -1.45166e-07 0)
(42.7158 -1.48084e-07 0)
(42.7158 -1.49297e-07 0)
(42.7158 -1.50234e-07 0)
(42.7158 -1.50844e-07 0)
(42.7157 -1.51206e-07 0)
(42.7157 -1.51432e-07 0)
(42.7156 -1.51556e-07 0)
(42.7156 -1.51597e-07 0)
(42.7156 -1.51607e-07 0)
(42.7155 -1.51586e-07 0)
(42.7155 -1.51525e-07 0)
(42.7154 -1.51477e-07 0)
(42.7153 -1.51716e-07 0)
(42.7153 -1.50978e-07 0)
(42.7152 -1.51131e-07 0)
(42.7152 -1.51516e-07 0)
(42.7151 -1.51183e-07 0)
(42.715 -1.51124e-07 0)
(42.715 -1.51065e-07 0)
(42.7149 -1.51038e-07 0)
(42.7148 -1.51007e-07 0)
(42.7147 -1.51027e-07 0)
(42.7147 -1.51043e-07 0)
(42.7146 -1.51072e-07 0)
(42.7145 -1.51106e-07 0)
(42.7144 -1.51138e-07 0)
(42.7144 -1.51185e-07 0)
(42.7143 -1.5123e-07 0)
(42.7142 -1.51267e-07 0)
(42.7142 -1.51325e-07 0)
(42.7141 -1.51384e-07 0)
(42.714 -1.51458e-07 0)
(42.7139 -1.51602e-07 0)
(42.7139 -1.51456e-07 0)
(42.7138 -1.51548e-07 0)
(42.7138 -1.51632e-07 0)
(42.7137 -1.51706e-07 0)
(42.7136 -1.51747e-07 0)
(42.7136 -1.51777e-07 0)
(42.7135 -1.51822e-07 0)
(42.7135 -1.51864e-07 0)
(42.7134 -1.5198e-07 0)
(42.7134 -1.52028e-07 0)
(42.7134 -1.52112e-07 0)
(42.7133 -1.52194e-07 0)
(42.7133 -1.52313e-07 0)
(42.7133 -1.52557e-07 0)
(42.7132 -1.5259e-07 0)
(42.7132 -1.52612e-07 0)
(42.7132 -1.5272e-07 0)
(42.7132 -1.52792e-07 0)
(42.7132 -1.52851e-07 0)
(42.7131 -1.52956e-07 0)
(42.7131 -1.52841e-07 0)
(42.7131 -1.52754e-07 0)
(42.7131 -1.52719e-07 0)
(42.7131 -1.52725e-07 0)
(42.713 -1.52682e-07 0)
(42.713 -1.52582e-07 0)
(42.713 -1.52477e-07 0)
(42.713 -1.5236e-07 0)
(42.7129 -1.5222e-07 0)
(42.7129 -1.52062e-07 0)
(42.7129 -1.51882e-07 0)
(42.7128 -1.51673e-07 0)
(42.7128 -1.51446e-07 0)
(42.7127 -1.51147e-07 0)
(42.7126 -1.51088e-07 0)
(42.7126 -1.50231e-07 0)
(42.7125 -1.50174e-07 0)
(42.7124 -1.49773e-07 0)
(42.7123 -1.49028e-07 0)
(42.7122 -1.48359e-07 0)
(42.7121 -1.47648e-07 0)
(42.7119 -1.46854e-07 0)
(42.7118 -1.45985e-07 0)
(42.7116 -1.45015e-07 0)
(42.7114 -1.43896e-07 0)
(42.7112 -1.42666e-07 0)
(42.711 -1.41275e-07 0)
(42.7107 -1.39722e-07 0)
(42.7104 -1.37991e-07 0)
(42.7101 -1.35961e-07 0)
(42.7098 -1.3297e-07 0)
(42.7094 -1.25756e-07 0)
(42.7089 -9.88817e-08 0)
(42.7085 2.30075e-08 0)
(42.7079 6.09651e-07 0)
(42.7073 3.51879e-06 0)
(42.7063 1.79588e-05 0)
(42.7041 8.91761e-05 0)
(42.6956 0.000437968 0)
(42.6588 0.00210619 0)
(42.4875 0.00983924 0)
(41.9891 0.048459 0)
(37.437 0.163867 0)
(42.7002 0.000369096 0)
(42.7006 0.000238549 0)
(42.7009 0.000231862 0)
(42.7012 0.000235249 0)
(42.7014 0.000236591 0)
(42.7017 0.000237559 0)
(42.702 0.000238524 0)
(42.7022 0.000239451 0)
(42.7025 0.000240348 0)
(42.7028 0.000241218 0)
(42.7031 0.000242062 0)
(42.7033 0.000242881 0)
(42.7036 0.000243672 0)
(42.7039 0.000244435 0)
(42.7042 0.000245172 0)
(42.7045 0.000245882 0)
(42.7048 0.000246567 0)
(42.7051 0.000247227 0)
(42.7054 0.000247864 0)
(42.7057 0.000248478 0)
(42.7059 0.00024907 0)
(42.7063 0.000249635 0)
(42.7066 0.000250184 0)
(42.7069 0.000250758 0)
(42.7072 0.000251256 0)
(42.7075 0.000251759 0)
(42.7078 0.000252244 0)
(42.7081 0.000252706 0)
(42.7084 0.000253277 0)
(42.7087 0.000253594 0)
(42.709 0.000254083 0)
(42.7093 0.000254511 0)
(42.7096 0.000254925 0)
(42.7099 0.000255327 0)
(42.7102 0.000255713 0)
(42.7105 0.000256096 0)
(42.7108 0.00025648 0)
(42.7111 0.000256833 0)
(42.7114 0.000257164 0)
(42.7117 0.000257504 0)
(42.7121 0.000257821 0)
(42.7124 0.000258128 0)
(42.7127 0.000258307 0)
(42.713 0.000258546 0)
(42.7133 0.000258677 0)
(42.7136 0.000258711 0)
(42.7139 0.000258615 0)
(42.7142 0.000258345 0)
(42.7145 0.000257845 0)
(42.7148 0.000257047 0)
(42.7151 0.000255878 0)
(42.7154 0.000254266 0)
(42.7157 0.00025206 0)
(42.716 0.000249268 0)
(42.7163 0.000245748 0)
(42.7166 0.000241228 0)
(42.7169 0.000235946 0)
(42.7172 0.00022965 0)
(42.7175 0.000222333 0)
(42.7178 0.000213999 0)
(42.718 0.000204673 0)
(42.7183 0.000194421 0)
(42.7185 0.000183338 0)
(42.7188 0.000171558 0)
(42.719 0.000159238 0)
(42.7192 0.000146557 0)
(42.7194 0.000133708 0)
(42.7196 0.000120886 0)
(42.7197 0.000108284 0)
(42.7199 9.60806e-05 0)
(42.72 8.44319e-05 0)
(42.7201 7.34551e-05 0)
(42.7202 6.32885e-05 0)
(42.7203 5.39764e-05 0)
(42.7204 4.5568e-05 0)
(42.7205 3.80762e-05 0)
(42.7205 3.14882e-05 0)
(42.7206 2.57692e-05 0)
(42.7206 2.08676e-05 0)
(42.7207 1.67189e-05 0)
(42.7207 1.32508e-05 0)
(42.7208 1.0387e-05 0)
(42.7208 8.05043e-06 0)
(42.7208 6.16765e-06 0)
(42.7209 4.66711e-06 0)
(42.7209 3.486e-06 0)
(42.7209 2.56686e-06 0)
(42.7209 1.85982e-06 0)
(42.721 1.32214e-06 0)
(42.721 9.17914e-07 0)
(42.721 6.17476e-07 0)
(42.721 3.96755e-07 0)
(42.721 2.365e-07 0)
(42.721 1.21591e-07 0)
(42.7211 4.01405e-08 0)
(42.7211 -1.72057e-08 0)
(42.7211 -5.90763e-08 0)
(42.7211 -8.7692e-08 0)
(42.7211 -1.07318e-07 0)
(42.7211 -1.20728e-07 0)
(42.7211 -1.29819e-07 0)
(42.721 -1.3599e-07 0)
(42.721 -1.40145e-07 0)
(42.721 -1.42645e-07 0)
(42.721 -1.45032e-07 0)
(42.721 -1.45934e-07 0)
(42.7209 -1.46722e-07 0)
(42.7209 -1.47243e-07 0)
(42.7209 -1.47595e-07 0)
(42.7209 -1.47836e-07 0)
(42.7208 -1.47994e-07 0)
(42.7208 -1.48105e-07 0)
(42.7207 -1.48168e-07 0)
(42.7207 -1.48202e-07 0)
(42.7206 -1.48202e-07 0)
(42.7206 -1.48187e-07 0)
(42.7205 -1.48413e-07 0)
(42.7205 -1.47677e-07 0)
(42.7204 -1.4777e-07 0)
(42.7203 -1.48055e-07 0)
(42.7203 -1.47655e-07 0)
(42.7202 -1.47485e-07 0)
(42.7201 -1.4732e-07 0)
(42.7201 -1.47176e-07 0)
(42.72 -1.47055e-07 0)
(42.7199 -1.46934e-07 0)
(42.7198 -1.46829e-07 0)
(42.7198 -1.46758e-07 0)
(42.7197 -1.46689e-07 0)
(42.7196 -1.4665e-07 0)
(42.7195 -1.4664e-07 0)
(42.7195 -1.46652e-07 0)
(42.7194 -1.46669e-07 0)
(42.7193 -1.4669e-07 0)
(42.7192 -1.46718e-07 0)
(42.7192 -1.46785e-07 0)
(42.7191 -1.46908e-07 0)
(42.719 -1.46737e-07 0)
(42.719 -1.46849e-07 0)
(42.7189 -1.46934e-07 0)
(42.7189 -1.46979e-07 0)
(42.7188 -1.46998e-07 0)
(42.7188 -1.47053e-07 0)
(42.7187 -1.47095e-07 0)
(42.7187 -1.47158e-07 0)
(42.7186 -1.47211e-07 0)
(42.7186 -1.47244e-07 0)
(42.7185 -1.47314e-07 0)
(42.7185 -1.47375e-07 0)
(42.7185 -1.47432e-07 0)
(42.7184 -1.47641e-07 0)
(42.7184 -1.47628e-07 0)
(42.7184 -1.47645e-07 0)
(42.7184 -1.47707e-07 0)
(42.7183 -1.47753e-07 0)
(42.7183 -1.47781e-07 0)
(42.7183 -1.47861e-07 0)
(42.7183 -1.47748e-07 0)
(42.7183 -1.47672e-07 0)
(42.7182 -1.47636e-07 0)
(42.7182 -1.4761e-07 0)
(42.7182 -1.4756e-07 0)
(42.7182 -1.47445e-07 0)
(42.7181 -1.47346e-07 0)
(42.7181 -1.47216e-07 0)
(42.7181 -1.47067e-07 0)
(42.7181 -1.46897e-07 0)
(42.718 -1.46691e-07 0)
(42.718 -1.46473e-07 0)
(42.7179 -1.46216e-07 0)
(42.7179 -1.45922e-07 0)
(42.7178 -1.45787e-07 0)
(42.7177 -1.45149e-07 0)
(42.7177 -1.44752e-07 0)
(42.7176 -1.4459e-07 0)
(42.7175 -1.43806e-07 0)
(42.7174 -1.43171e-07 0)
(42.7172 -1.42512e-07 0)
(42.7171 -1.41759e-07 0)
(42.7169 -1.40918e-07 0)
(42.7168 -1.40103e-07 0)
(42.7166 -1.39041e-07 0)
(42.7164 -1.37919e-07 0)
(42.7161 -1.36686e-07 0)
(42.7159 -1.35289e-07 0)
(42.7156 -1.33707e-07 0)
(42.7153 -1.3177e-07 0)
(42.7149 -1.28312e-07 0)
(42.7145 -1.17819e-07 0)
(42.7141 -7.37128e-08 0)
(42.7136 1.37765e-07 0)
(42.7131 1.18031e-06 0)
(42.7124 6.35744e-06 0)
(42.7115 3.20683e-05 0)
(42.7093 0.000158894 0)
(42.7012 0.000780155 0)
(42.6659 0.0037544 0)
(42.5019 0.0175516 0)
(42.0363 0.0859545 0)
(37.651 0.287181 0)
(42.7002 0.000375192 0)
(42.7006 0.000276269 0)
(42.7009 0.000271759 0)
(42.7012 0.000276035 0)
(42.7014 0.000276926 0)
(42.7017 0.000277097 0)
(42.702 0.000277141 0)
(42.7022 0.000277039 0)
(42.7025 0.000276834 0)
(42.7028 0.000276561 0)
(42.703 0.000276249 0)
(42.7033 0.000275914 0)
(42.7036 0.000275567 0)
(42.7039 0.000275217 0)
(42.7042 0.000274868 0)
(42.7045 0.000274524 0)
(42.7048 0.00027419 0)
(42.7051 0.000273867 0)
(42.7053 0.000273553 0)
(42.7056 0.000273253 0)
(42.7059 0.000272966 0)
(42.7062 0.000272685 0)
(42.7065 0.000272418 0)
(42.7069 0.000272208 0)
(42.7072 0.000271955 0)
(42.7075 0.000271734 0)
(42.7078 0.000271523 0)
(42.7081 0.000271317 0)
(42.7084 0.000271237 0)
(42.7087 0.000270943 0)
(42.709 0.000270831 0)
(42.7093 0.000270683 0)
(42.7096 0.000270544 0)
(42.7099 0.000270413 0)
(42.7102 0.000270283 0)
(42.7105 0.00027017 0)
(42.7108 0.000270076 0)
(42.7112 0.000269966 0)
(42.7115 0.000269852 0)
(42.7118 0.000269764 0)
(42.7121 0.000269666 0)
(42.7124 0.000269573 0)
(42.7127 0.000269373 0)
(42.713 0.000269242 0)
(42.7133 0.000269022 0)
(42.7136 0.000268724 0)
(42.7139 0.000268314 0)
(42.7142 0.000267751 0)
(42.7145 0.000266981 0)
(42.7149 0.000265941 0)
(42.7152 0.000264557 0)
(42.7155 0.000262762 0)
(42.7158 0.000260411 0)
(42.7161 0.000257507 0)
(42.7164 0.000253909 0)
(42.7167 0.000249353 0)
(42.717 0.00024407 0)
(42.7173 0.000237797 0)
(42.7176 0.00023053 0)
(42.7178 0.000222261 0)
(42.7181 0.000213005 0)
(42.7183 0.000202814 0)
(42.7186 0.000191774 0)
(42.7188 0.000180004 0)
(42.719 0.000167652 0)
(42.7192 0.000154887 0)
(42.7194 0.000141893 0)
(42.7196 0.000128862 0)
(42.7198 0.000115985 0)
(42.7199 0.000103446 0)
(42.72 9.14023e-05 0)
(42.7201 7.99827e-05 0)
(42.7202 6.93338e-05 0)
(42.7203 5.9513e-05 0)
(42.7204 5.05814e-05 0)
(42.7205 4.2564e-05 0)
(42.7206 3.54594e-05 0)
(42.7206 2.92431e-05 0)
(42.7207 2.38716e-05 0)
(42.7207 1.92871e-05 0)
(42.7208 1.54216e-05 0)
(42.7208 1.22012e-05 0)
(42.7208 9.54986e-06 0)
(42.7209 7.39326e-06 0)
(42.7209 5.65801e-06 0)
(42.7209 4.27851e-06 0)
(42.7209 3.19395e-06 0)
(42.721 2.35074e-06 0)
(42.721 1.70237e-06 0)
(42.721 1.20923e-06 0)
(42.721 8.38182e-07 0)
(42.721 5.61961e-07 0)
(42.721 3.58465e-07 0)
(42.7211 2.10071e-07 0)
(42.7211 1.0293e-07 0)
(42.7211 2.69988e-08 0)
(42.7211 -2.59561e-08 0)
(42.7211 -6.26596e-08 0)
(42.7211 -8.8026e-08 0)
(42.7211 -1.05336e-07 0)
(42.7211 -1.1703e-07 0)
(42.7211 -1.24863e-07 0)
(42.721 -1.30075e-07 0)
(42.721 -1.33256e-07 0)
(42.721 -1.36011e-07 0)
(42.721 -1.37177e-07 0)
(42.721 -1.38091e-07 0)
(42.7209 -1.38662e-07 0)
(42.7209 -1.39023e-07 0)
(42.7209 -1.39242e-07 0)
(42.7208 -1.39361e-07 0)
(42.7208 -1.39415e-07 0)
(42.7207 -1.39431e-07 0)
(42.7207 -1.39413e-07 0)
(42.7206 -1.3938e-07 0)
(42.7206 -1.39343e-07 0)
(42.7205 -1.39564e-07 0)
(42.7205 -1.389e-07 0)
(42.7204 -1.39042e-07 0)
(42.7203 -1.39386e-07 0)
(42.7203 -1.39095e-07 0)
(42.7202 -1.39045e-07 0)
(42.7201 -1.39001e-07 0)
(42.7201 -1.38981e-07 0)
(42.72 -1.38966e-07 0)
(42.7199 -1.38963e-07 0)
(42.7198 -1.38966e-07 0)
(42.7198 -1.39002e-07 0)
(42.7197 -1.39039e-07 0)
(42.7196 -1.39082e-07 0)
(42.7195 -1.39125e-07 0)
(42.7195 -1.3917e-07 0)
(42.7194 -1.39234e-07 0)
(42.7193 -1.39291e-07 0)
(42.7193 -1.39356e-07 0)
(42.7192 -1.3943e-07 0)
(42.7191 -1.39566e-07 0)
(42.7191 -1.39411e-07 0)
(42.719 -1.3951e-07 0)
(42.7189 -1.39603e-07 0)
(42.7189 -1.3965e-07 0)
(42.7188 -1.39664e-07 0)
(42.7188 -1.39703e-07 0)
(42.7187 -1.39731e-07 0)
(42.7187 -1.39783e-07 0)
(42.7186 -1.39845e-07 0)
(42.7186 -1.39891e-07 0)
(42.7185 -1.39959e-07 0)
(42.7185 -1.40036e-07 0)
(42.7185 -1.40108e-07 0)
(42.7184 -1.40322e-07 0)
(42.7184 -1.40324e-07 0)
(42.7184 -1.40324e-07 0)
(42.7184 -1.40396e-07 0)
(42.7183 -1.40462e-07 0)
(42.7183 -1.40505e-07 0)
(42.7183 -1.40578e-07 0)
(42.7183 -1.4046e-07 0)
(42.7183 -1.40369e-07 0)
(42.7182 -1.40314e-07 0)
(42.7182 -1.40285e-07 0)
(42.7182 -1.4023e-07 0)
(42.7182 -1.40124e-07 0)
(42.7182 -1.4002e-07 0)
(42.7181 -1.39883e-07 0)
(42.7181 -1.39748e-07 0)
(42.7181 -1.39586e-07 0)
(42.718 -1.39393e-07 0)
(42.718 -1.39199e-07 0)
(42.7179 -1.38968e-07 0)
(42.7179 -1.38704e-07 0)
(42.7178 -1.38559e-07 0)
(42.7177 -1.38133e-07 0)
(42.7177 -1.37476e-07 0)
(42.7176 -1.37537e-07 0)
(42.7175 -1.36735e-07 0)
(42.7174 -1.36129e-07 0)
(42.7173 -1.35504e-07 0)
(42.7171 -1.34796e-07 0)
(42.717 -1.3395e-07 0)
(42.7168 -1.33234e-07 0)
(42.7166 -1.32144e-07 0)
(42.7164 -1.31062e-07 0)
(42.7162 -1.29896e-07 0)
(42.7159 -1.28488e-07 0)
(42.7156 -1.26896e-07 0)
(42.7153 -1.24855e-07 0)
(42.7149 -1.2062e-07 0)
(42.7145 -1.06032e-07 0)
(42.7141 -4.14329e-08 0)
(42.7136 2.70695e-07 0)
(42.7131 1.81445e-06 0)
(42.7124 9.48367e-06 0)
(42.7115 4.75812e-05 0)
(42.7093 0.000235568 0)
(42.7013 0.00115694 0)
(42.6662 0.0055737 0)
(42.5035 0.026047 0)
(42.0436 0.127559 0)
(37.7764 0.423236 0)
(42.7002 0.000351875 0)
(42.7006 0.000251266 0)
(42.7009 0.000235086 0)
(42.7012 0.000235173 0)
(42.7014 0.00023371 0)
(42.7017 0.000232613 0)
(42.7019 0.000232124 0)
(42.7022 0.000231926 0)
(42.7025 0.000231896 0)
(42.7028 0.000231977 0)
(42.703 0.000232137 0)
(42.7033 0.000232348 0)
(42.7036 0.000232595 0)
(42.7039 0.000232866 0)
(42.7042 0.000233151 0)
(42.7045 0.000233444 0)
(42.7047 0.000233743 0)
(42.705 0.000234046 0)
(42.7053 0.000234343 0)
(42.7056 0.00023464 0)
(42.7059 0.000234934 0)
(42.7062 0.00023522 0)
(42.7065 0.000235496 0)
(42.7068 0.000235813 0)
(42.7071 0.000236072 0)
(42.7075 0.000236343 0)
(42.7078 0.000236607 0)
(42.7081 0.00023686 0)
(42.7084 0.000237214 0)
(42.7087 0.000237356 0)
(42.709 0.00023765 0)
(42.7093 0.000237899 0)
(42.7096 0.000238141 0)
(42.7099 0.00023838 0)
(42.7102 0.000238605 0)
(42.7105 0.000238835 0)
(42.7108 0.000239073 0)
(42.7111 0.000239283 0)
(42.7114 0.000239477 0)
(42.7118 0.00023969 0)
(42.7121 0.00023988 0)
(42.7124 0.000240065 0)
(42.7127 0.000240141 0)
(42.713 0.000240271 0)
(42.7133 0.000240309 0)
(42.7136 0.000240262 0)
(42.7139 0.0002401 0)
(42.7142 0.000239783 0)
(42.7145 0.000239262 0)
(42.7148 0.000238474 0)
(42.7152 0.000237348 0)
(42.7155 0.000235825 0)
(42.7158 0.000233766 0)
(42.7161 0.000231175 0)
(42.7164 0.00022792 0)
(42.7167 0.000223751 0)
(42.717 0.000218904 0)
(42.7173 0.000213115 0)
(42.7175 0.000206396 0)
(42.7178 0.000198743 0)
(42.7181 0.000190178 0)
(42.7183 0.000180756 0)
(42.7186 0.000170565 0)
(42.7188 0.000159723 0)
(42.719 0.000148373 0)
(42.7192 0.000136678 0)
(42.7194 0.000124814 0)
(42.7196 0.00011296 0)
(42.7197 0.000101292 0)
(42.7199 8.99809e-05 0)
(42.72 7.91656e-05 0)
(42.7201 6.89598e-05 0)
(42.7202 5.94924e-05 0)
(42.7203 5.08076e-05 0)
(42.7204 4.29529e-05 0)
(42.7205 3.59431e-05 0)
(42.7206 2.97686e-05 0)
(42.7206 2.43995e-05 0)
(42.7207 1.97898e-05 0)
(42.7207 1.58815e-05 0)
(42.7207 1.26085e-05 0)
(42.7208 9.90083e-06 0)
(42.7208 7.68765e-06 0)
(42.7209 5.90088e-06 0)
(42.7209 4.47415e-06 0)
(42.7209 3.3489e-06 0)
(42.7209 2.47146e-06 0)
(42.721 1.79507e-06 0)
(42.721 1.27954e-06 0)
(42.721 8.91065e-07 0)
(42.721 6.01601e-07 0)
(42.721 3.88338e-07 0)
(42.721 2.32957e-07 0)
(42.7211 1.21042e-07 0)
(42.7211 4.12127e-08 0)
(42.7211 -1.51484e-08 0)
(42.7211 -5.46132e-08 0)
(42.7211 -8.20882e-08 0)
(42.7211 -1.01001e-07 0)
(42.7211 -1.13903e-07 0)
(42.7211 -1.22625e-07 0)
(42.7211 -1.28507e-07 0)
(42.721 -1.32433e-07 0)
(42.721 -1.34822e-07 0)
(42.721 -1.37046e-07 0)
(42.721 -1.37924e-07 0)
(42.721 -1.38657e-07 0)
(42.7209 -1.39145e-07 0)
(42.7209 -1.39467e-07 0)
(42.7209 -1.3968e-07 0)
(42.7208 -1.39819e-07 0)
(42.7208 -1.39913e-07 0)
(42.7207 -1.39972e-07 0)
(42.7207 -1.39995e-07 0)
(42.7206 -1.39993e-07 0)
(42.7206 -1.39969e-07 0)
(42.7205 -1.40166e-07 0)
(42.7205 -1.39514e-07 0)
(42.7204 -1.39622e-07 0)
(42.7203 -1.39891e-07 0)
(42.7203 -1.39546e-07 0)
(42.7202 -1.39416e-07 0)
(42.7201 -1.39283e-07 0)
(42.7201 -1.39163e-07 0)
(42.72 -1.39065e-07 0)
(42.7199 -1.38988e-07 0)
(42.7198 -1.38928e-07 0)
(42.7198 -1.38873e-07 0)
(42.7197 -1.3883e-07 0)
(42.7196 -1.3882e-07 0)
(42.7195 -1.38818e-07 0)
(42.7195 -1.38825e-07 0)
(42.7194 -1.38846e-07 0)
(42.7193 -1.38871e-07 0)
(42.7193 -1.38906e-07 0)
(42.7192 -1.38975e-07 0)
(42.7191 -1.39082e-07 0)
(42.7191 -1.38939e-07 0)
(42.719 -1.3902e-07 0)
(42.7189 -1.39107e-07 0)
(42.7189 -1.39158e-07 0)
(42.7188 -1.39183e-07 0)
(42.7188 -1.39237e-07 0)
(42.7187 -1.39273e-07 0)
(42.7187 -1.39331e-07 0)
(42.7186 -1.39392e-07 0)
(42.7186 -1.39436e-07 0)
(42.7185 -1.39497e-07 0)
(42.7185 -1.39569e-07 0)
(42.7185 -1.39626e-07 0)
(42.7184 -1.39826e-07 0)
(42.7184 -1.39834e-07 0)
(42.7184 -1.39843e-07 0)
(42.7184 -1.39908e-07 0)
(42.7183 -1.39965e-07 0)
(42.7183 -1.40007e-07 0)
(42.7183 -1.4007e-07 0)
(42.7183 -1.39975e-07 0)
(42.7183 -1.39898e-07 0)
(42.7182 -1.39871e-07 0)
(42.7182 -1.39855e-07 0)
(42.7182 -1.39804e-07 0)
(42.7182 -1.39711e-07 0)
(42.7182 -1.39616e-07 0)
(42.7181 -1.39505e-07 0)
(42.7181 -1.39368e-07 0)
(42.7181 -1.39222e-07 0)
(42.718 -1.39036e-07 0)
(42.718 -1.38841e-07 0)
(42.7179 -1.38613e-07 0)
(42.7179 -1.38353e-07 0)
(42.7178 -1.38158e-07 0)
(42.7177 -1.37966e-07 0)
(42.7177 -1.36993e-07 0)
(42.7176 -1.37278e-07 0)
(42.7175 -1.36419e-07 0)
(42.7174 -1.3583e-07 0)
(42.7173 -1.35231e-07 0)
(42.7171 -1.34557e-07 0)
(42.717 -1.33717e-07 0)
(42.7168 -1.33123e-07 0)
(42.7166 -1.32024e-07 0)
(42.7164 -1.31003e-07 0)
(42.7162 -1.29907e-07 0)
(42.7159 -1.28537e-07 0)
(42.7156 -1.26966e-07 0)
(42.7153 -1.24834e-07 0)
(42.7149 -1.19776e-07 0)
(42.7145 -1.00586e-07 0)
(42.7141 -1.33139e-08 0)
(42.7136 4.13993e-07 0)
(42.7131 2.53051e-06 0)
(42.7124 1.30487e-05 0)
(42.7115 6.53082e-05 0)
(42.7093 0.000323229 0)
(42.7014 0.0015878 0)
(42.6667 0.00765528 0)
(42.5057 0.0357412 0)
(42.051 0.174557 0)
(37.8997 0.574054 0)
(42.7002 0.00033042 0)
(42.7006 0.000244132 0)
(42.7009 0.000231448 0)
(42.7012 0.00023655 0)
(42.7014 0.000238277 0)
(42.7017 0.00023907 0)
(42.7019 0.000239777 0)
(42.7022 0.000240318 0)
(42.7025 0.000240719 0)
(42.7027 0.000241024 0)
(42.703 0.000241263 0)
(42.7033 0.000241452 0)
(42.7036 0.000241603 0)
(42.7039 0.000241726 0)
(42.7042 0.000241829 0)
(42.7044 0.000241913 0)
(42.7047 0.000241987 0)
(42.705 0.000242057 0)
(42.7053 0.000242113 0)
(42.7056 0.000242168 0)
(42.7059 0.00024222 0)
(42.7062 0.000242267 0)
(42.7065 0.000242305 0)
(42.7068 0.000242388 0)
(42.7071 0.000242422 0)
(42.7074 0.000242472 0)
(42.7077 0.000242522 0)
(42.708 0.000242567 0)
(42.7084 0.000242709 0)
(42.7087 0.000242664 0)
(42.709 0.000242763 0)
(42.7093 0.000242826 0)
(42.7096 0.000242889 0)
(42.7099 0.000242953 0)
(42.7102 0.000243009 0)
(42.7105 0.000243074 0)
(42.7108 0.000243153 0)
(42.7111 0.00024321 0)
(42.7114 0.000243253 0)
(42.7117 0.000243325 0)
(42.7121 0.000243374 0)
(42.7124 0.000243423 0)
(42.7127 0.000243374 0)
(42.713 0.000243379 0)
(42.7133 0.0002433 0)
(42.7136 0.000243143 0)
(42.7139 0.00024288 0)
(42.7142 0.000242471 0)
(42.7145 0.00024187 0)
(42.7148 0.000241017 0)
(42.7151 0.000239839 0)
(42.7155 0.000238284 0)
(42.7158 0.000236215 0)
(42.7161 0.000233634 0)
(42.7164 0.000230408 0)
(42.7167 0.000226299 0)
(42.717 0.000221538 0)
(42.7173 0.000215847 0)
(42.7175 0.000209249 0)
(42.7178 0.000201731 0)
(42.7181 0.000193309 0)
(42.7183 0.000184031 0)
(42.7186 0.000173978 0)
(42.7188 0.00016326 0)
(42.719 0.000152012 0)
(42.7192 0.000140391 0)
(42.7194 0.000128566 0)
(42.7196 0.000116712 0)
(42.7197 0.000105002 0)
(42.7199 9.36098e-05 0)
(42.72 8.26711e-05 0)
(42.7201 7.23065e-05 0)
(42.7202 6.26474e-05 0)
(42.7203 5.37458e-05 0)
(42.7204 4.56556e-05 0)
(42.7205 3.83986e-05 0)
(42.7206 3.19724e-05 0)
(42.7206 2.63534e-05 0)
(42.7207 2.15015e-05 0)
(42.7207 1.73633e-05 0)
(42.7207 1.38764e-05 0)
(42.7208 1.09733e-05 0)
(42.7208 8.58482e-06 0)
(42.7209 6.64321e-06 0)
(42.7209 5.08195e-06 0)
(42.7209 3.84152e-06 0)
(42.7209 2.86692e-06 0)
(42.721 2.10967e-06 0)
(42.721 1.52776e-06 0)
(42.721 1.0855e-06 0)
(42.721 7.52993e-07 0)
(42.721 5.05692e-07 0)
(42.721 3.23722e-07 0)
(42.7211 1.91274e-07 0)
(42.7211 9.58664e-08 0)
(42.7211 2.80191e-08 0)
(42.7211 -2.02638e-08 0)
(42.7211 -5.36222e-08 0)
(42.7211 -7.66678e-08 0)
(42.7211 -9.24365e-08 0)
(42.7211 -1.03122e-07 0)
(42.7211 -1.10322e-07 0)
(42.721 -1.15125e-07 0)
(42.721 -1.18109e-07 0)
(42.721 -1.20645e-07 0)
(42.721 -1.21763e-07 0)
(42.721 -1.22631e-07 0)
(42.7209 -1.23194e-07 0)
(42.7209 -1.23552e-07 0)
(42.7209 -1.23782e-07 0)
(42.7208 -1.23913e-07 0)
(42.7208 -1.23993e-07 0)
(42.7207 -1.24022e-07 0)
(42.7207 -1.2403e-07 0)
(42.7206 -1.24006e-07 0)
(42.7206 -1.23989e-07 0)
(42.7205 -1.2418e-07 0)
(42.7205 -1.23586e-07 0)
(42.7204 -1.23698e-07 0)
(42.7203 -1.23958e-07 0)
(42.7203 -1.23679e-07 0)
(42.7202 -1.23591e-07 0)
(42.7201 -1.23514e-07 0)
(42.7201 -1.23449e-07 0)
(42.72 -1.23399e-07 0)
(42.7199 -1.23351e-07 0)
(42.7198 -1.2332e-07 0)
(42.7198 -1.23311e-07 0)
(42.7197 -1.23308e-07 0)
(42.7196 -1.23316e-07 0)
(42.7195 -1.23335e-07 0)
(42.7195 -1.23361e-07 0)
(42.7194 -1.23397e-07 0)
(42.7193 -1.23434e-07 0)
(42.7193 -1.23487e-07 0)
(42.7192 -1.23551e-07 0)
(42.7191 -1.23665e-07 0)
(42.7191 -1.23531e-07 0)
(42.719 -1.23608e-07 0)
(42.7189 -1.23681e-07 0)
(42.7189 -1.23721e-07 0)
(42.7188 -1.23735e-07 0)
(42.7188 -1.23776e-07 0)
(42.7187 -1.23795e-07 0)
(42.7187 -1.23838e-07 0)
(42.7186 -1.23899e-07 0)
(42.7186 -1.23924e-07 0)
(42.7185 -1.23979e-07 0)
(42.7185 -1.24046e-07 0)
(42.7185 -1.241e-07 0)
(42.7184 -1.24276e-07 0)
(42.7184 -1.24284e-07 0)
(42.7184 -1.24281e-07 0)
(42.7184 -1.24339e-07 0)
(42.7183 -1.24389e-07 0)
(42.7183 -1.24428e-07 0)
(42.7183 -1.24482e-07 0)
(42.7183 -1.24389e-07 0)
(42.7183 -1.24302e-07 0)
(42.7182 -1.24265e-07 0)
(42.7182 -1.24243e-07 0)
(42.7182 -1.24194e-07 0)
(42.7182 -1.24101e-07 0)
(42.7182 -1.24004e-07 0)
(42.7181 -1.23894e-07 0)
(42.7181 -1.23763e-07 0)
(42.7181 -1.23621e-07 0)
(42.718 -1.23447e-07 0)
(42.718 -1.23268e-07 0)
(42.7179 -1.2305e-07 0)
(42.7179 -1.22803e-07 0)
(42.7178 -1.22574e-07 0)
(42.7177 -1.22628e-07 0)
(42.7177 -1.21316e-07 0)
(42.7176 -1.21855e-07 0)
(42.7175 -1.20955e-07 0)
(42.7174 -1.2039e-07 0)
(42.7173 -1.19809e-07 0)
(42.7171 -1.19172e-07 0)
(42.717 -1.18352e-07 0)
(42.7168 -1.17865e-07 0)
(42.7166 -1.16745e-07 0)
(42.7164 -1.15784e-07 0)
(42.7162 -1.14749e-07 0)
(42.7159 -1.134e-07 0)
(42.7156 -1.11825e-07 0)
(42.7153 -1.09548e-07 0)
(42.7149 -1.03515e-07 0)
(42.7145 -7.90732e-08 0)
(42.7141 3.44181e-08 0)
(42.7136 5.92362e-07 0)
(42.7131 3.35884e-06 0)
(42.7125 1.71104e-05 0)
(42.7115 8.54422e-05 0)
(42.7094 0.000422749 0)
(42.7015 0.00207702 0)
(42.6674 0.0100213 0)
(42.509 0.0467358 0)
(42.0619 0.227427 0)
(38.0412 0.738082 0)
(42.7002 0.00027335 0)
(42.7005 0.000210594 0)
(42.7008 0.000194497 0)
(42.7011 0.000196827 0)