/*--------------------------------*- C++ -*----------------------------------*\
| =========                 |                                                 |
| \\      /  F ield         | OpenFOAM: The Open Source CFD Toolbox           |
|  \\    /   O peration     | Version:  3.0.x                                 |
|   \\  /    A nd           | Web:      www.OpenFOAM.org                      |
|    \\/     M anipulation  |                                                 |
\*---------------------------------------------------------------------------*/
FoamFile
{
    version     2.0;
    format      ascii;
    class       volVectorField;
    location    "0.85";
    object      U;
}
// * * * * * * * * * * * * * * * * * * * * * * * * * * * * * * * * * * * * * //

dimensions      [0 1 -1 0 0 0 0];

internalField   nonuniform List<vector> 
1000
(
(50 0 0)
(50 0 0)
(50 0 0)
(50 0 0)
(50 0 0)
(50 0 0)
(50 0 0)
(50 0 0)
(50 0 0)
(50 0 0)
(50 0 0)
(50 0 0)
(50 0 0)
(50 0 0)
(50 0 0)
(50 0 0)
(50 0 0)
(50 0 0)
(50 0 0)
(50 0 0)
(50 0 0)
(50 0 0)
(50 0 0)
(50 0 0)
(50 0 0)
(50 0 0)
(50 0 0)
(50 0 0)
(50 0 0)
(50 0 0)
(50 0 0)
(50 0 0)
(50 0 0)
(50 0 0)
(50 0 0)
(50 0 0)
(50 0 0)
(50 0 0)
(50 0 0)
(50 0 0)
(50 0 0)
(50 0 0)
(50 0 0)
(50 0 0)
(50 0 0)
(50 0 0)
(50 0 0)
(50 0 0)
(50 0 0)
(50 0 0)
(50 0 0)
(50 0 0)
(50 0 0)
(50 0 0)
(50 0 0)
(50 0 0)
(50 0 0)
(50 0 0)
(50 0 0)
(50 0 0)
(50 0 0)
(50 0 0)
(50 0 0)
(50 0 0)
(50 0 0)
(50 0 0)
(50 0 0)
(50 0 0)
(50 0 0)
(50 0 0)
(50 0 0)
(50 0 0)
(50 0 0)
(50 0 0)
(50 0 0)
(50 0 0)
(50 0 0)
(50 0 0)
(50 0 0)
(50 0 0)
(50 0 0)
(50 0 0)
(50 0 0)
(50 0 0)
(50 0 0)
(50 0 0)
(50 0 0)
(50 0 0)
(50 0 0)
(50 0 0)
(50 0 0)
(50 0 0)
(50 0 0)
(50 0 0)
(50 0 0)
(50 0 0)
(50 0 0)
(50 0 0)
(50 0 0)
(50 0 0)
(50 0 0)
(50 0 0)
(50 0 0)
(50 0 0)
(50 0 0)
(50 0 0)
(50 0 0)
(50 0 0)
(50 0 0)
(50 0 0)
(50 0 0)
(50 0 0)
(50 0 0)
(50 0 0)
(50 0 0)
(50 0 0)
(50 0 0)
(50 0 0)
(50 0 0)
(50 0 0)
(50 0 0)
(50 0 0)
(50 0 0)
(50 0 0)
(50 0 0)
(50 0 0)
(50 0 0)
(50 0 0)
(50 0 0)
(50 0 0)
(50 0 0)
(50 0 0)
(50 0 0)
(50 0 0)
(50 0 0)
(50 0 0)
(50 0 0)
(50 0 0)
(50 0 0)
(50 0 0)
(50 0 0)
(50 0 0)
(50 0 0)
(50 0 0)
(50 0 0)
(50 0 0)
(50 0 0)
(50 0 0)
(50 0 0)
(50 0 0)
(50 0 0)
(50 0 0)
(50 0 0)
(50 0 0)
(50 0 0)
(50 0 0)
(50 0 0)
(50 0 0)
(50 0 0)
(50 0 0)
(50 0 0)
(50 0 0)
(50 0 0)
(50 0 0)
(50 0 0)
(50 0 0)
(50 0 0)
(50 0 0)
(50 0 0)
(50 0 0)
(50 0 0)
(50 0 0)
(50 0 0)
(50 0 0)
(50 0 0)
(50 0 0)
(50 0 0)
(50 0 0)
(50 0 0)
(50 0 0)
(50 0 0)
(50 0 0)
(50 0 0)
(50 0 0)
(50 0 0)
(50 0 0)
(50 0 0)
(50 0 0)
(50 0 0)
(50 0 0)
(50 0 0)
(50 0 0)
(50 0 0)
(50 0 0)
(50 0 0)
(50 0 0)
(50 0 0)
(50 0 0)
(50 0 0)
(50 0 0)
(50 0 0)
(50 0 0)
(50 0 0)
(50 0 0)
(50 0 0)
(50 0 0)
(50 0 0)
(50 0 0)
(50 0 0)
(50 0 0)
(50 0 0)
(50 0 0)
(50 0 0)
(50 0 0)
(50 0 0)
(50 0 0)
(50 0 0)
(50 0 0)
(50 0 0)
(50 0 0)
(50 0 0)
(50 0 0)
(50 0 0)
(50 0 0)
(50 0 0)
(50 0 0)
(50 0 0)
(50 0 0)
(50 0 0)
(50 0 0)
(50 0 0)
(50 0 0)
(50 0 0)
(50 0 0)
(50 0 0)
(50 0 0)
(50 0 0)
(50 0 0)
(50 0 0)
(50 0 0)
(50 0 0)
(50 0 0)
(50 0 0)
(50 0 0)
(50 0 0)
(50 0 0)
(50 0 0)
(50 0 0)
(50 0 0)
(50 0 0)
(50 0 0)
(50 0 0)
(50 0 0)
(50 0 0)
(50 0 0)
(50 0 0)
(50 0 0)
(50 0 0)
(50 0 0)
(50 0 0)
(50 0 0)
(50 0 0)
(50 0 0)
(50 0 0)
(50 0 0)
(50 0 0)
(50 0 0)
(50 0 0)
(50 0 0)
(50 0 0)
(50 0 0)
(50 0 0)
(50 0 0)
(50 0 0)
(50 0 0)
(50 0 0)
(50 0 0)
(50 0 0)
(50 0 0)
(50 0 0)
(50 0 0)
(50 0 0)
(50 0 0)
(50 0 0)
(50 0 0)
(50 0 0)
(50 0 0)
(50 0 0)
(50 0 0)
(50 0 0)
(50 0 0)
(50 0 0)
(50 0 0)
(50 0 0)
(50 0 0)
(50 0 0)
(50 0 0)
(50 0 0)
(50 0 0)
(50 0 0)
(50 0 0)
(50 0 0)
(50 0 0)
(50 0 0)
(50 0 0)
(50 0 0)
(50 0 0)
(50 0 0)
(50 0 0)
(50 0 0)
(50 0 0)
(50 0 0)
(50 0 0)
(50 0 0)
(50 0 0)
(50 0 0)
(50 0 0)
(50 0 0)
(50 0 0)
(50 0 0)
(50 0 0)
(50 0 0)
(50 0 0)
(50 0 0)
(50 0 0)
(50 0 0)
(50 0 0)
(50 0 0)
(50 0 0)
(50 0 0)
(50 0 0)
(50 0 0)
(50 0 0)
(50 0 0)
(50 0 0)
(50 0 0)
(50 0 0)
(50 0 0)
(50 0 0)
(50 0 0)
(50 0 0)
(50 0 0)
(50 0 0)
(50 0 0)
(50 0 0)
(50 0 0)
(50 0 0)
(50 0 0)
(50 0 0)
(50 0 0)
(50 0 0)
(50 0 0)
(50 0 0)
(50 0 0)
(50 0 0)
(50 0 0)
(50 0 0)
(50 0 0)
(50 0 0)
(50 0 0)
(50 0 0)
(50 0 0)
(50 0 0)
(50 0 0)
(50 0 0)
(50 0 0)
(50 0 0)
(50 0 0)
(50 0 0)
(50 0 0)
(50 0 0)
(50 0 0)
(50 0 0)
(50 0 0)
(50 0 0)
(50 0 0)
(50 0 0)
(50 0 0)
(50 0 0)
(50 0 0)
(50 0 0)
(50 0 0)
(50 0 0)
(50 0 0)
(50 0 0)
(50 0 0)
(50 0 0)
(50 0 0)
(50 0 0)
(50 0 0)
(50 0 0)
(50 0 0)
(50 0 0)
(50 0 0)
(50 0 0)
(50 0 0)
(50 0 0)
(50 0 0)
(50 0 0)
(50 0 0)
(50 0 0)
(50 0 0)
(50 0 0)
(50 0 0)
(50 0 0)
(50 0 0)
(50 0 0)
(50 0 0)
(50 0 0)
(50 0 0)
(50 0 0)
(50 0 0)
(50 0 0)
(50 0 0)
(50 0 0)
(50 0 0)
(50 0 0)
(50 0 0)
(50 0 0)
(50 0 0)
(50 0 0)
(50 0 0)
(50 0 0)
(50 0 0)
(50 0 0)
(50 0 0)
(50 0 0)
(50 0 0)
(50 0 0)
(50 0 0)
(50 0 0)
(50 0 0)
(50 0 0)
(50 0 0)
(50 0 0)
(50 0 0)
(50 0 0)
(50 0 0)
(50 0 0)
(50 0 0)
(50 0 0)
(50 0 0)
(50 0 0)
(50 0 0)
(50 0 0)
(50 0 0)
(50 0 0)
(50 0 0)
(50 0 0)
(50 0 0)
(50 0 0)
(50 0 0)
(50 0 0)
(50 0 0)
(50 0 0)
(50 0 0)
(50 0 0)
(50 0 0)
(50 0 0)
(50 0 0)
(50 0 0)
(50 0 0)
(50 0 0)
(50 0 0)
(50 0 0)
(50 0 0)
(50 0 0)
(50 0 0)
(50 0 0)
(50 0 0)
(50 0 0)
(50 0 0)
(50 0 0)
(50 0 0)
(50 0 0)
(50 0 0)
(50 0 0)
(50 0 0)
(50 0 0)
(50 0 0)
(50 0 0)
(50 0 0)
(50 0 0)
(50 0 0)
(50 0 0)
(50 0 0)
(50 0 0)
(50 0 0)
(50 0 0)
(50 0 0)
(50 0 0)
(50 0 0)
(50 0 0)
(50 0 0)
(50 0 0)
(50 0 0)
(50 0 0)
(50 0 0)
(50 0 0)
(50 0 0)
(50 0 0)
(50 0 0)
(50 0 0)
(50 0 0)
(50 0 0)
(50 0 0)
(50 0 0)
(50 0 0)
(50 0 0)
(50 0 0)
(50 0 0)
(50 0 0)
(50 0 0)
(50 0 0)
(50 0 0)
(50 0 0)
(50 0 0)
(50 0 0)
(50 0 0)
(50 0 0)
(50 0 0)
(50 0 0)
(50 0 0)
(50 0 0)
(50 0 0)
(50 0 0)
(50 0 0)
(50 0 0)
(49.9999 0 0)
(49.9999 0 0)
(49.9999 0 0)
(49.9999 0 0)
(49.9999 0 0)
(49.9998 0 0)
(49.9998 0 0)
(49.9997 0 0)
(49.9996 0 0)
(49.9995 0 0)
(49.9994 0 0)
(49.9992 0 0)
(49.999 0 0)
(49.9988 0 0)
(49.9984 0 0)
(49.998 0 0)
(49.9976 0 0)
(49.997 0 0)
(49.9962 0 0)
(49.9954 0 0)
(49.9943 0 0)
(49.993 0 0)
(49.9914 0 0)
(49.9895 0 0)
(49.9871 0 0)
(49.9844 0 0)
(49.9811 0 0)
(49.9771 0 0)
(49.9724 0 0)
(49.9668 0 0)
(49.9602 0 0)
(49.9524 0 0)
(49.9432 0 0)
(49.9325 0 0)
(49.9199 0 0)
(49.9053 0 0)
(49.8882 0 0)
(49.8685 0 0)
(49.8457 0 0)
(49.8194 0 0)
(49.7892 0 0)
(49.7546 0 0)
(49.715 0 0)
(49.6699 0 0)
(49.6187 0 0)
(49.5605 0 0)
(49.4948 0 0)
(49.4207 0 0)
(49.3374 0 0)
(49.244 0 0)
(49.1395 0 0)
(49.023 0 0)
(48.8933 0 0)
(48.7494 0 0)
(48.5902 0 0)
(48.4145 0 0)
(48.221 0 0)
(48.0086 0 0)
(47.776 0 0)
(47.5221 0 0)
(47.2455 0 0)
(46.945 0 0)
(46.6195 0 0)
(46.2679 0 0)
(45.8891 0 0)
(45.4821 0 0)
(45.0461 0 0)
(44.5803 0 0)
(44.084 0 0)
(43.5568 0 0)
(42.9984 0 0)
(42.4087 0 0)
(41.7876 0 0)
(41.1355 0 0)
(40.4527 0 0)
(39.74 0 0)
(38.9983 0 0)
(38.2285 0 0)
(37.4321 0 0)
(36.6104 0 0)
(35.7651 0 0)
(34.898 0 0)
(34.0111 0 0)
(33.1064 0 0)
(32.186 0 0)
(31.2522 0 0)
(30.3073 0 0)
(29.3535 0 0)
(28.3932 0 0)
(27.4286 0 0)
(26.462 0 0)
(25.4956 0 0)
(24.5315 0 0)
(23.5717 0 0)
(22.6182 0 0)
(21.673 0 0)
(20.7377 0 0)
(19.814 0 0)
(18.9034 0 0)
(18.0075 0 0)
(17.1277 0 0)
(16.265 0 0)
(15.4208 0 0)
(14.5961 0 0)
(13.7918 0 0)
(13.0088 0 0)
(12.248 0 0)
(11.5101 0 0)
(10.7956 0 0)
(10.1052 0 0)
(9.43929 0 0)
(8.79827 0 0)
(8.18244 0 0)
(7.59204 0 0)
(7.02721 0 0)
(6.48802 0 0)
(5.97445 0 0)
(5.48641 0 0)
(5.02373 0 0)
(4.58615 0 0)
(4.17335 0 0)
(3.78491 0 0)
(3.42036 0 0)
(3.07915 0 0)
(2.76068 0 0)
(2.46427 0 0)
(2.1892 0 0)
(1.93469 0 0)
(1.69992 0 0)
(1.48404 0 0)
(1.28618 0 0)
(1.10543 0 0)
(0.940874 0 0)
(0.791608 0 0)
(0.656718 0 0)
(0.535311 0 0)
(0.426521 0 0)
(0.329518 0 0)
(0.243524 0 0)
(0.167829 0 0)
(0.101815 0 0)
(0.0450035 0 0)
(-0.00162501 0 0)
(-0.0383938 0 0)
(-0.0688742 0 0)
(-0.0951101 0 0)
(-0.117375 0 0)
(-0.136249 0 0)
(-0.152229 0 0)
(-0.165708 0 0)
(-0.17701 0 0)
(-0.186416 0 0)
(-0.19418 0 0)
(-0.200533 0 0)
(-0.205685 0 0)
(-0.209818 0 0)
(-0.213094 0 0)
(-0.215644 0 0)
(-0.21761 0 0)
(-0.219039 0 0)
(-0.22001 0 0)
(-0.22078 0 0)
(-0.221377 0 0)
(-0.221751 0 0)
(-0.221966 0 0)
(-0.222069 0 0)
(-0.222053 0 0)
(-0.221985 0 0)
(-0.221983 0 0)
(-0.221938 0 0)
(-0.221803 0 0)
(-0.221645 0 0)
(-0.221471 0 0)
(-0.221292 0 0)
(-0.221113 0 0)
(-0.220939 0 0)
(-0.220769 0 0)
(-0.220605 0 0)
(-0.220445 0 0)
(-0.220287 0 0)
(-0.220133 0 0)
(-0.219977 0 0)
(-0.219835 0 0)
(-0.219662 0 0)
(-0.219557 0 0)
(-0.219343 0 0)
(-0.219135 0 0)
(-0.219084 0 0)
(-0.218971 0 0)
(-0.218877 0 0)
(-0.218776 0 0)
(-0.218697 0 0)
(-0.218573 0 0)
(-0.218482 0 0)
(-0.21847 0 0)
(-0.218407 0 0)
(-0.218328 0 0)
(-0.218249 0 0)
(-0.218167 0 0)
(-0.218086 0 0)
(-0.218007 0 0)
(-0.21793 0 0)
(-0.217856 0 0)
(-0.217784 0 0)
(-0.217715 0 0)
(-0.217648 0 0)
(-0.217583 0 0)
(-0.217521 0 0)
(-0.217457 0 0)
(-0.217405 0 0)
(-0.217325 0 0)
(-0.2173 0 0)
(-0.217202 0 0)
(-0.217096 0 0)
(-0.217094 0 0)
(-0.217045 0 0)
(-0.21701 0 0)
(-0.216972 0 0)
(-0.216941 0 0)
(-0.216907 0 0)
(-0.216858 0 0)
(-0.216867 0 0)
(-0.216882 0 0)
(-0.216859 0 0)
(-0.21685 0 0)
(-0.216838 0 0)
(-0.216827 0 0)
(-0.216817 0 0)
(-0.216808 0 0)
(-0.216799 0 0)
(-0.21679 0 0)
(-0.21678 0 0)
(-0.216768 0 0)
(-0.216756 0 0)
(-0.216742 0 0)
(-0.216726 0 0)
(-0.21671 0 0)
(-0.216689 0 0)
(-0.216674 0 0)
(-0.216639 0 0)
(-0.216634 0 0)
(-0.216592 0 0)
(-0.216529 0 0)
(-0.216525 0 0)
(-0.2165 0 0)
(-0.21647 0 0)
(-0.216445 0 0)
(-0.216407 0 0)
(-0.216394 0 0)
(-0.216336 0 0)
(-0.216304 0 0)
(-0.216319 0 0)
(-0.216281 0 0)
(-0.216256 0 0)
(-0.216229 0 0)
(-0.216201 0 0)
(-0.216174 0 0)
(-0.216147 0 0)
(-0.216121 0 0)
(-0.216096 0 0)
(-0.216072 0 0)
(-0.216049 0 0)
(-0.216026 0 0)
(-0.216005 0 0)
(-0.215984 0 0)
(-0.215963 0 0)
(-0.215944 0 0)
(-0.215925 0 0)
(-0.215907 0 0)
(-0.215889 0 0)
(-0.215873 0 0)
(-0.215857 0 0)
(-0.21584 0 0)
(-0.215835 0 0)
(-0.215798 0 0)
(-0.215784 0 0)
(-0.215796 0 0)
(-0.215784 0 0)
(-0.215784 0 0)
(-0.215787 0 0)
(-0.21578 0 0)
(-0.215801 0 0)
(-0.215783 0 0)
(-0.215788 0 0)
(-0.21583 0 0)
(-0.215825 0 0)
(-0.215838 0 0)
(-0.215845 0 0)
(-0.215851 0 0)
(-0.215857 0 0)
(-0.215861 0 0)
(-0.215864 0 0)
(-0.215866 0 0)
(-0.215866 0 0)
(-0.215865 0 0)
(-0.215863 0 0)
(-0.215859 0 0)
(-0.215853 0 0)
(-0.215846 0 0)
(-0.215837 0 0)
(-0.215826 0 0)
(-0.215814 0 0)
(-0.2158 0 0)
(-0.215785 0 0)
(-0.215768 0 0)
(-0.215751 0 0)
(-0.215733 0 0)
(-0.215716 0 0)
(-0.215693 0 0)
(-0.215681 0 0)
(-0.215648 0 0)
(-0.215649 0 0)
(-0.215613 0 0)
(-0.215578 0 0)
(-0.215588 0 0)
(-0.215558 0 0)
(-0.215547 0 0)
(-0.215531 0 0)
(-0.215516 0 0)
(-0.215504 0 0)
(-0.215484 0 0)
(-0.215483 0 0)
(-0.215452 0 0)
(-0.215443 0 0)
(-0.215454 0 0)
(-0.21543 0 0)
(-0.215426 0 0)
(-0.215414 0 0)
(-0.215405 0 0)
(-0.215397 0 0)
(-0.215389 0 0)
(-0.215382 0 0)
(-0.215376 0 0)
(-0.215371 0 0)
(-0.215368 0 0)
(-0.215366 0 0)
(-0.215365 0 0)
(-0.215366 0 0)
(-0.215368 0 0)
(-0.215372 0 0)
(-0.215376 0 0)
(-0.215382 0 0)
(-0.215388 0 0)
(-0.215395 0 0)
(-0.215403 0 0)
(-0.21541 0 0)
(-0.215418 0 0)
(-0.215426 0 0)
(-0.215433 0 0)
(-0.215441 0 0)
(-0.215447 0 0)
(-0.215453 0 0)
(-0.215458 0 0)
(-0.215462 0 0)
(-0.215465 0 0)
(-0.215466 0 0)
(-0.215467 0 0)
(-0.215466 0 0)
(-0.215464 0 0)
(-0.215461 0 0)
(-0.215456 0 0)
(-0.21545 0 0)
(-0.215443 0 0)
(-0.215435 0 0)
(-0.215426 0 0)
(-0.215417 0 0)
(-0.215406 0 0)
(-0.215396 0 0)
(-0.215384 0 0)
(-0.215373 0 0)
(-0.215362 0 0)
(-0.215351 0 0)
(-0.215339 0 0)
(-0.215328 0 0)
(-0.21532 0 0)
(-0.215304 0 0)
(-0.215296 0 0)
(-0.21529 0 0)
(-0.215279 0 0)
(-0.215272 0 0)
(-0.215264 0 0)
(-0.215257 0 0)
(-0.215251 0 0)
(-0.215244 0 0)
(-0.215239 0 0)
(-0.215233 0 0)
(-0.215228 0 0)
(-0.215223 0 0)
(-0.215219 0 0)
(-0.215215 0 0)
(-0.215212 0 0)
(-0.21521 0 0)
(-0.215208 0 0)
(-0.215207 0 0)
(-0.215206 0 0)
(-0.215206 0 0)
(-0.215208 0 0)
(-0.21521 0 0)
(-0.215213 0 0)
(-0.215217 0 0)
(-0.215223 0 0)
(-0.215229 0 0)
(-0.215236 0 0)
(-0.215245 0 0)
(-0.215254 0 0)
(-0.215265 0 0)
(-0.215276 0 0)
(-0.215288 0 0)
(-0.2153 0 0)
(-0.215313 0 0)
(-0.215327 0 0)
(-0.21534 0 0)
(-0.215354 0 0)
(-0.215368 0 0)
(-0.215381 0 0)
(-0.215395 0 0)
(-0.215408 0 0)
(-0.21542 0 0)
(-0.215434 0 0)
(-0.215441 0 0)
(-0.215458 0 0)
(-0.215461 0 0)
(-0.215469 0 0)
(-0.215485 0 0)
(-0.215486 0 0)
(-0.215494 0 0)
(-0.215497 0 0)
(-0.215501 0 0)
(-0.215502 0 0)
(-0.215502 0 0)
(-0.215501 0 0)
(-0.215498 0 0)
(-0.215495 0 0)
(-0.215489 0 0)
(-0.215483 0 0)
(-0.215476 0 0)
(-0.215467 0 0)
(-0.215457 0 0)
(-0.215447 0 0)
(-0.215436 0 0)
(-0.215424 0 0)
(-0.215411 0 0)
(-0.215398 0 0)
(-0.215384 0 0)
(-0.21537 0 0)
(-0.215355 0 0)
(-0.21534 0 0)
(-0.215325 0 0)
(-0.21531 0 0)
(-0.215293 0 0)
(-0.215282 0 0)
(-0.215252 0 0)
(-0.215265 0 0)
(-0.215216 0 0)
(-0.215209 0 0)
(-0.215218 0 0)
(-0.215172 0 0)
(-0.215178 0 0)
(-0.215155 0 0)
(-0.215144 0 0)
(-0.21513 0 0)
(-0.21512 0 0)
(-0.215097 0 0)
(-0.215135 0 0)
(-0.21494 0 0)
(-0.215524 0 0)
(-0.212829 0 0)
(-0.218729 0 0)
(-0.20869 0 0)
(-0.221469 0 0)
(-0.210952 0 0)
(-0.214761 0 0)
)
;

boundaryField
{
    inlet
    {
        type            fixedValue;
        value           uniform (50 0 0);
    }
    backWall
    {
        type            zeroGradient;
    }
    sides
    {
        type            empty;
    }
}


// ************************************************************************* //
