/*--------------------------------*- C++ -*----------------------------------*\
| =========                 |                                                 |
| \\      /  F ield         | OpenFOAM: The Open Source CFD Toolbox           |
|  \\    /   O peration     | Version:  3.0.x                                 |
|   \\  /    A nd           | Web:      www.OpenFOAM.org                      |
|    \\/     M anipulation  |                                                 |
\*---------------------------------------------------------------------------*/
FoamFile
{
    version     2.0;
    format      ascii;
    class       surfaceScalarField;
    location    "0.10995";
    object      phi;
}
// * * * * * * * * * * * * * * * * * * * * * * * * * * * * * * * * * * * * * //

dimensions      [1 0 -1 0 0 0 0];

internalField   nonuniform List<scalar> 
53800
(
1.97554
0.00102702
1.97484
0.00069538
1.97415
0.000688127
1.97346
0.000690021
1.97276
0.000689817
1.97207
0.000689392
1.97138
0.000689052
1.97069
0.000687638
1.97001
0.000684891
1.96932
0.000679533
1.96865
0.000670068
1.96799
0.000654882
1.96736
0.000632126
1.96676
0.000600636
1.96619
0.000559905
1.96568
0.000510499
1.96522
0.000454082
1.96483
0.000393218
1.96449
0.000331006
1.96422
0.000270529
1.964
0.00021454
1.96383
0.000165056
1.96371
0.000123164
1.96361
8.91646e-05
1.96355
6.26539e-05
1.9635
4.27737e-05
1.96346
2.83605e-05
1.96343
1.83306e-05
1.96341
1.15735e-05
1.9634
7.14633e-06
1.96338
4.35213e-06
1.96336
2.6392e-06
1.96335
1.6211e-06
1.96333
1.03234e-06
1.96331
7.00271e-07
1.96328
5.17644e-07
1.96326
4.19011e-07
1.96323
3.66912e-07
1.9632
3.3986e-07
1.96317
3.25777e-07
1.96313
3.18378e-07
1.9631
3.14983e-07
1.96306
3.1307e-07
1.96302
3.12673e-07
1.96298
3.14096e-07
1.96294
3.15194e-07
1.96291
3.1928e-07
1.96288
3.23598e-07
1.96285
3.29932e-07
1.96284
3.38267e-07
1.96283
3.53812e-07
1.96285
3.75756e-07
1.96288
3.8635e-07
1.96293
4.04791e-07
1.96301
4.28809e-07
1.96311
4.5458e-07
1.96324
4.83364e-07
1.9634
5.16353e-07
1.96358
5.49506e-07
1.9638
5.86839e-07
1.96405
6.25463e-07
1.96432
6.63553e-07
1.96461
7.04295e-07
1.96491
7.43123e-07
1.96523
7.80292e-07
1.96554
8.16264e-07
1.96585
8.48813e-07
1.96613
8.75916e-07
1.96638
8.99192e-07
1.96659
9.17225e-07
1.96675
9.25633e-07
1.96684
9.29249e-07
1.96685
9.25607e-07
1.96678
9.10954e-07
1.96661
8.89326e-07
1.96635
8.55856e-07
1.96599
8.13896e-07
1.96553
7.63845e-07
1.96497
6.99358e-07
1.96432
6.27257e-07
1.96358
5.44427e-07
1.96277
4.50193e-07
1.96191
3.52782e-07
1.961
2.40267e-07
1.96008
1.07997e-07
1.95914
-8.80646e-08
1.95823
1.52166e-07
1.95734
-7.42693e-08
1.9565
-4.44692e-07
1.95572
-4.73538e-07
1.95502
-5.44784e-07
1.95439
-6.17179e-07
1.95386
-6.87873e-07
1.95341
-7.51457e-07
1.95306
-8.02724e-07
1.9528
-8.40122e-07
1.95263
-8.61401e-07
1.95253
-8.68895e-07
1.95251
-8.61572e-07
1.95254
-8.35058e-07
1.95262
-7.96619e-07
1.95274
-7.46259e-07
1.95288
-6.84817e-07
1.95303
-6.14302e-07
1.95319
-5.36627e-07
1.95334
-4.54391e-07
1.95347
-3.72278e-07
1.9536
-2.87826e-07
1.9537
-2.06066e-07
1.95378
-1.28675e-07
1.95383
-5.49735e-08
1.95387
1.22418e-08
1.95389
7.20174e-08
1.95388
1.25627e-07
1.95386
1.72542e-07
1.95383
2.10235e-07
1.95379
2.43093e-07
1.95374
2.69509e-07
1.95369
2.89587e-07
1.95364
3.04557e-07
1.95359
3.03859e-07
1.95353
3.2676e-07
1.95348
3.3524e-07
1.95343
3.34901e-07
1.95338
3.36007e-07
1.95334
3.35542e-07
1.9533
3.34581e-07
1.95327
3.33344e-07
1.95323
3.31762e-07
1.9532
3.30107e-07
1.95318
3.28797e-07
1.95315
3.28102e-07
1.95312
3.27662e-07
1.95309
3.28084e-07
1.95306
3.2955e-07
1.95303
3.31893e-07
1.95299
3.35462e-07
1.95294
3.40329e-07
1.95288
3.46758e-07
1.95282
3.54783e-07
1.95274
3.6462e-07
1.95264
3.76673e-07
1.95252
3.90697e-07
1.95239
4.07043e-07
1.95222
4.25665e-07
1.95203
4.46653e-07
1.9518
4.69972e-07
1.95154
4.95296e-07
1.95124
5.22581e-07
1.9509
5.51241e-07
1.95051
5.8076e-07
1.95008
6.10438e-07
1.94961
6.394e-07
1.94909
6.66732e-07
1.94853
6.91183e-07
1.94793
7.11691e-07
1.94729
7.26919e-07
1.94663
7.35545e-07
1.94596
7.36367e-07
1.94527
7.28291e-07
1.94459
7.10395e-07
1.94392
6.81943e-07
1.94328
6.42631e-07
1.94267
5.92441e-07
1.94212
5.31669e-07
1.94163
4.61107e-07
1.94122
3.81962e-07
1.9409
2.95742e-07
1.94066
2.0436e-07
1.94052
1.10012e-07
1.94049
1.92304e-08
1.94054
-2.44108e-08
1.94068
-1.48564e-07
1.94092
-2.39808e-07
1.94124
-3.12819e-07
1.94163
-3.75174e-07
1.94209
-4.27852e-07
1.9426
-4.64392e-07
1.94314
-4.86423e-07
1.94371
-4.94761e-07
1.94428
-4.90621e-07
1.94485
-4.72031e-07
1.9454
-4.41883e-07
1.94592
-4.05384e-07
1.9464
-3.58741e-07
1.94684
-3.05827e-07
1.94724
-2.52749e-07
1.94758
-1.92555e-07
1.94788
-1.32794e-07
1.94812
-3.9232e-08
1.94832
1.7319e-07
1.94848
1.05751e-06
1.94859
5.25132e-06
1.94864
2.61085e-05
1.94857
0.000129444
1.94795
0.000640986
1.94482
0.0031451
1.92985
0.0149647
1.85579
0.0740355
0.257091
1.59867
2.27054
0.000991372
2.27054
0.000682928
2.27056
0.000668887
2.27057
0.000673029
2.27058
0.000673294
2.27059
0.000673113
2.2706
0.000673102
2.27062
0.000672041
2.27063
0.000669624
2.27064
0.000664583
2.27065
0.000655424
2.27066
0.000640528
2.27067
0.000618086
2.27068
0.000586957
2.27069
0.000546683
2.2707
0.000497877
2.27071
0.000442238
2.27072
0.000382344
2.27072
0.000321276
2.27073
0.00026207
2.27073
0.00020741
2.27073
0.000159237
2.27073
0.000118569
2.27073
8.5658e-05
2.27072
6.00634e-05
2.27072
4.09207e-05
2.27071
2.7079e-05
2.2707
1.74693e-05
2.27069
1.10114e-05
2.27068
6.78991e-06
2.27066
4.13149e-06
2.27065
2.50546e-06
2.27063
1.54106e-06
2.27061
9.84528e-07
2.27058
6.712e-07
2.27056
4.99153e-07
2.27053
4.06355e-07
2.2705
3.57373e-07
2.27046
3.31933e-07
2.27042
3.18687e-07
2.27038
3.11695e-07
2.27034
3.08504e-07
2.27029
3.06693e-07
2.27025
3.06314e-07
2.2702
3.07697e-07
2.27016
3.08795e-07
2.27012
3.1275e-07
2.27008
3.16988e-07
2.27006
3.23176e-07
2.27004
3.31271e-07
2.27004
3.46543e-07
2.27005
3.67781e-07
2.27009
3.78168e-07
2.27015
3.96161e-07
2.27023
4.19575e-07
2.27035
4.44728e-07
2.2705
4.72795e-07
2.27068
5.04962e-07
2.2709
5.37337e-07
2.27115
5.73713e-07
2.27143
6.11395e-07
2.27174
6.48557e-07
2.27207
6.88287e-07
2.27242
7.26166e-07
2.27278
7.624e-07
2.27314
7.97492e-07
2.27349
8.2923e-07
2.27382
8.55645e-07
2.27411
8.78354e-07
2.27435
8.95918e-07
2.27453
9.04158e-07
2.27463
9.07661e-07
2.27465
9.04121e-07
2.27457
8.89886e-07
2.27438
8.68782e-07
2.27408
8.36193e-07
2.27366
7.95277e-07
2.27313
7.46455e-07
2.27249
6.83613e-07
2.27174
6.13312e-07
2.2709
5.32582e-07
2.26997
4.40796e-07
2.26897
3.45764e-07
2.26793
2.35756e-07
2.26687
1.04847e-07
2.2658
-8.32733e-08
2.26474
1.47691e-07
2.26372
-6.68006e-08
2.26276
-4.27965e-07
2.26186
-4.60393e-07
2.26105
-5.29108e-07
2.26033
-5.99437e-07
2.25972
-6.68253e-07
2.2592
-7.30204e-07
2.2588
-7.80172e-07
2.2585
-8.16606e-07
2.2583
-8.37354e-07
2.25819
-8.44626e-07
2.25816
-8.3751e-07
2.25819
-8.1168e-07
2.25829
-7.74235e-07
2.25842
-7.25155e-07
2.25858
-6.65328e-07
2.25875
-5.96658e-07
2.25893
-5.20991e-07
2.2591
-4.40919e-07
2.25926
-3.60946e-07
2.25939
-2.78735e-07
2.25951
-1.99107e-07
2.2596
-1.23746e-07
2.25967
-5.20122e-08
2.25971
1.34714e-08
2.25972
7.17155e-08
2.25972
1.2392e-07
2.2597
1.69613e-07
2.25966
2.06353e-07
2.25962
2.38328e-07
2.25956
2.64055e-07
2.2595
2.83606e-07
2.25944
2.98111e-07
2.25938
2.9763e-07
2.25931
3.19709e-07
2.25925
3.28051e-07
2.2592
3.27767e-07
2.25914
3.28819e-07
2.2591
3.28382e-07
2.25905
3.27436e-07
2.25901
3.26239e-07
2.25897
3.24711e-07
2.25894
3.231e-07
2.2589
3.21823e-07
2.25887
3.2115e-07
2.25884
3.20739e-07
2.25881
3.21139e-07
2.25877
3.22587e-07
2.25873
3.24882e-07
2.25868
3.28364e-07
2.25863
3.33119e-07
2.25857
3.39402e-07
2.25849
3.47245e-07
2.2584
3.56838e-07
2.25828
3.68585e-07
2.25815
3.82286e-07
2.25799
3.98235e-07
2.2578
4.1641e-07
2.25758
4.36892e-07
2.25732
4.59622e-07
2.25702
4.84331e-07
2.25667
5.10943e-07
2.25628
5.38883e-07
2.25584
5.67681e-07
2.25534
5.96621e-07
2.2548
6.24863e-07
2.2542
6.515e-07
2.25356
6.7534e-07
2.25287
6.95327e-07
2.25214
7.10163e-07
2.25139
7.18566e-07
2.25061
7.19345e-07
2.24982
7.11461e-07
2.24904
6.93999e-07
2.24827
6.66234e-07
2.24753
6.27882e-07
2.24684
5.78937e-07
2.2462
5.19663e-07
2.24564
4.50866e-07
2.24517
3.73708e-07
2.24479
2.89652e-07
2.24452
2.00565e-07
2.24436
1.08626e-07
2.24432
2.02599e-08
2.24439
-2.26792e-08
2.24455
-1.42794e-07
2.24481
-2.32187e-07
2.24518
-3.03215e-07
2.24563
-3.63969e-07
2.24616
-4.15228e-07
2.24674
-4.50811e-07
2.24736
-4.72286e-07
2.24801
-4.80388e-07
2.24867
-4.7631e-07
2.24932
-4.58247e-07
2.24995
-4.28925e-07
2.25055
-3.93178e-07
2.2511
-3.4814e-07
2.25161
-2.95746e-07
2.25206
-2.45192e-07
2.25246
-1.82394e-07
2.25279
-1.20719e-07
2.25308
1.58543e-08
2.2533
4.13642e-07
2.25348
2.26711e-06
2.25361
1.12733e-05
2.25367
5.61992e-05
2.25358
0.000279469
2.25287
0.00138409
2.24923
0.00679686
2.23185
0.0323366
2.1469
0.158949
0.541966
1.862
2.60816
0.000950418
2.60817
0.000666852
2.60819
0.000645611
2.6082
0.000651579
2.60822
0.000652011
2.60823
0.000651711
2.60825
0.000651688
2.60827
0.000650679
2.60829
0.000648353
2.60831
0.000643495
2.60832
0.000634665
2.60834
0.000620286
2.60835
0.000598621
2.60837
0.000568552
2.60838
0.000529631
2.60839
0.000482445
2.6084
0.000428629
2.60841
0.000370675
2.60841
0.000311558
2.60841
0.000254221
2.60842
0.000201264
2.60841
0.000154572
2.60841
0.000115137
2.60841
8.32094e-05
2.6084
5.83689e-05
2.60839
3.97819e-05
2.60839
2.6336e-05
2.60837
1.69966e-05
2.60836
1.07173e-05
2.60835
6.61084e-06
2.60833
4.0235e-06
2.60831
2.44024e-06
2.60829
1.50069e-06
2.60827
9.5824e-07
2.60824
6.52693e-07
2.60821
4.84823e-07
2.60818
3.94262e-07
2.60814
3.46434e-07
2.6081
3.21579e-07
2.60805
3.08653e-07
2.60801
3.01814e-07
2.60796
2.98685e-07
2.60791
2.96917e-07
2.60785
2.96546e-07
2.6078
2.97867e-07
2.60775
2.98958e-07
2.60771
3.02764e-07
2.60767
3.06904e-07
2.60764
3.12895e-07
2.60762
3.20713e-07
2.60761
3.35618e-07
2.60763
3.56034e-07
2.60767
3.66152e-07
2.60774
3.83607e-07
2.60784
4.0626e-07
2.60797
4.30638e-07
2.60814
4.57854e-07
2.60835
4.88999e-07
2.6086
5.20391e-07
2.60889
5.5561e-07
2.60921
5.92117e-07
2.60956
6.28126e-07
2.60995
6.6658e-07
2.61035
7.0329e-07
2.61077
7.38371e-07
2.61118
7.72336e-07
2.61158
8.03062e-07
2.61196
8.28604e-07
2.61229
8.50578e-07
2.61257
8.67545e-07
2.61277
8.75527e-07
2.61289
8.78856e-07
2.61291
8.75392e-07
2.61281
8.61619e-07
2.6126
8.41123e-07
2.61225
8.09556e-07
2.61178
7.69895e-07
2.61117
7.2255e-07
2.61043
6.61705e-07
2.60957
5.93554e-07
2.6086
5.15342e-07
2.60753
4.26429e-07
2.60639
3.34276e-07
2.6052
2.27461e-07
2.60397
9.92259e-08
2.60274
-8.01738e-08
2.60153
1.388e-07
2.60036
-6.21694e-08
2.59925
-4.11212e-07
2.59822
-4.46951e-07
2.59729
-5.12809e-07
2.59646
-5.80694e-07
2.59576
-6.47186e-07
2.59517
-7.07085e-07
2.5947
-7.55394e-07
2.59436
-7.90584e-07
2.59413
-8.10604e-07
2.594
-8.17552e-07
2.59397
-8.10611e-07
2.59401
-7.85545e-07
2.59411
-7.49253e-07
2.59426
-7.01686e-07
2.59445
-6.43748e-07
2.59465
-5.77253e-07
2.59485
-5.04006e-07
2.59505
-4.26513e-07
2.59523
-3.4909e-07
2.59539
-2.69563e-07
2.59552
-1.92511e-07
2.59563
-1.19573e-07
2.5957
-5.01968e-08
2.59575
1.31804e-08
2.59577
6.95291e-08
2.59576
1.20024e-07
2.59574
1.64218e-07
2.59569
1.99791e-07
2.59564
2.30684e-07
2.59558
2.55583e-07
2.59551
2.74504e-07
2.59544
2.88459e-07
2.59537
2.88197e-07
2.5953
3.09312e-07
2.59523
3.17475e-07
2.59516
3.17243e-07
2.5951
3.18247e-07
2.59504
3.17854e-07
2.59499
3.16923e-07
2.59494
3.15777e-07
2.5949
3.1431e-07
2.59486
3.12761e-07
2.59482
3.1152e-07
2.59479
3.1088e-07
2.59475
3.10491e-07
2.59471
3.10876e-07
2.59467
3.12302e-07
2.59462
3.14521e-07
2.59457
3.17898e-07
2.59451
3.22518e-07
2.59443
3.28604e-07
2.59435
3.36215e-07
2.59424
3.45499e-07
2.59411
3.56878e-07
2.59396
3.70168e-07
2.59378
3.856e-07
2.59356
4.03212e-07
2.5933
4.23053e-07
2.593
4.45056e-07
2.59266
4.6899e-07
2.59226
4.94747e-07
2.59181
5.21795e-07
2.5913
5.49669e-07
2.59073
5.77682e-07
2.59011
6.05021e-07
2.58942
6.30789e-07
2.58868
6.53858e-07
2.58789
6.73179e-07
2.58706
6.87513e-07
2.58619
6.95625e-07
2.58529
6.96349e-07
2.58439
6.8868e-07
2.58349
6.71749e-07
2.5826
6.44835e-07
2.58176
6.07677e-07
2.58096
5.6026e-07
2.58023
5.02845e-07
2.57959
4.3623e-07
2.57905
3.61524e-07
2.57862
2.80139e-07
2.5783
1.93922e-07
2.57812
1.04945e-07
2.57807
1.95396e-08
2.57815
-2.24827e-08
2.57833
-1.37821e-07
2.57864
-2.24874e-07
2.57906
-2.93494e-07
2.57958
-3.52284e-07
2.58018
-4.01807e-07
2.58085
-4.36215e-07
2.58157
-4.56999e-07
2.58231
-4.64792e-07
2.58307
-4.6079e-07
2.58381
-4.43317e-07
2.58454
-4.14981e-07
2.58522
-3.80154e-07
2.58586
-3.36982e-07
2.58644
-2.85265e-07
2.58696
-2.37684e-07
2.58742
-1.71978e-07
2.5878
-1.08248e-07
2.58813
7.71906e-08
2.58839
6.83896e-07
2.58859
3.62852e-06
2.58874
1.8053e-05
2.58881
9.00705e-05
2.58871
0.000448479
2.58791
0.0022216
2.5838
0.0109208
2.56418
0.0519449
2.46787
0.25523
0.859905
2.14989
2.99599
0.000904558
2.996
0.000647596
2.99602
0.000619214
2.99604
0.0006269
2.99605
0.000627556
2.99607
0.000627124
2.99609
0.000627086
2.99612
0.000626134
2.99614
0.00062391
2.99616
0.000619259
2.99617
0.000610802
2.99619
0.000597012
2.99621
0.000576234
2.99623
0.000547375
2.99624
0.000510003
2.99625
0.00046467
2.99626
0.000412945
2.99627
0.000357214
2.99628
0.000300339
2.99628
0.000245149
2.99628
0.000194152
2.99628
0.000149166
2.99628
0.000111153
2.99627
8.03631e-05
2.99627
5.63958e-05
2.99626
3.84532e-05
2.99625
2.54675e-05
2.99624
1.64428e-05
2.99622
1.0372e-05
2.9962
6.40022e-06
2.99619
3.89629e-06
2.99616
2.36335e-06
2.99614
1.45313e-06
2.99611
9.27335e-07
2.99608
6.31026e-07
2.99605
4.68146e-07
2.99601
3.80249e-07
2.99596
3.33806e-07
2.99592
3.09657e-07
2.99587
2.97103e-07
2.99581
2.90456e-07
2.99576
2.87415e-07
2.9957
2.85705e-07
2.99564
2.8533e-07
2.99558
2.86596e-07
2.99552
2.87659e-07
2.99547
2.913e-07
2.99542
2.9532e-07
2.99539
3.01075e-07
2.99536
3.08581e-07
2.99536
3.23049e-07
2.99538
3.4253e-07
2.99543
3.52338e-07
2.99551
3.69168e-07
2.99562
3.90948e-07
2.99577
4.14446e-07
2.99597
4.4065e-07
2.99621
4.70613e-07
2.99649
5.00888e-07
2.99682
5.34757e-07
2.99719
5.69908e-07
2.9976
6.04592e-07
2.99804
6.41601e-07
2.99851
6.76933e-07
2.99898
7.10694e-07
2.99946
7.43366e-07
2.99992
7.72929e-07
3.00035
7.97492e-07
3.00074
8.18611e-07
3.00106
8.34909e-07
3.00129
8.426e-07
3.00143
8.45746e-07
3.00144
8.42381e-07
3.00134
8.29135e-07
3.00109
8.09345e-07
3.00069
7.78964e-07
3.00014
7.40769e-07
2.99944
6.9513e-07
2.9986
6.36588e-07
2.99761
5.7093e-07
2.99649
4.95613e-07
2.99527
4.10044e-07
2.99396
3.21223e-07
2.99259
2.18166e-07
2.99118
9.34597e-08
2.98977
-7.62047e-08
2.98837
1.29119e-07
2.98703
-5.76001e-08
2.98575
-3.92574e-07
2.98457
-4.31275e-07
2.9835
-4.93928e-07
2.98255
-5.59063e-07
2.98174
-6.22942e-07
2.98106
-6.80495e-07
2.98053
-7.26919e-07
2.98013
-7.60701e-07
2.97987
-7.79928e-07
2.97972
-7.86513e-07
2.97968
-7.7979e-07
2.97973
-7.55623e-07
2.97985
-7.20658e-07
2.98003
-6.74845e-07
2.98024
-6.19093e-07
2.98047
-5.55101e-07
2.9807
-4.84626e-07
2.98093
-4.1008e-07
2.98113
-3.35589e-07
2.98132
-2.59119e-07
2.98147
-1.85017e-07
2.98159
-1.14851e-07
2.98168
-4.81523e-08
2.98173
1.27839e-08
2.98175
6.69861e-08
2.98175
1.15531e-07
2.98172
1.58008e-07
2.98167
1.92253e-07
2.98161
2.21917e-07
2.98154
2.45866e-07
2.98146
2.64059e-07
2.98138
2.77418e-07
2.98129
2.77378e-07
2.98121
2.97416e-07
2.98113
3.05376e-07
2.98106
3.05194e-07
2.98099
3.06125e-07
2.98092
3.05779e-07
2.98086
3.04866e-07
2.98081
3.03786e-07
2.98076
3.02378e-07
2.98071
3.00901e-07
2.98067
2.99704e-07
2.98063
2.991e-07
2.98058
2.9874e-07
2.98054
2.991e-07
2.98049
3.00482e-07
2.98044
3.02625e-07
2.98038
3.05892e-07
2.98031
3.10341e-07
2.98022
3.16202e-07
2.98012
3.23529e-07
2.98
3.32475e-07
2.97985
3.43432e-07
2.97968
3.56227e-07
2.97947
3.71074e-07
2.97922
3.88034e-07
2.97892
4.07123e-07
2.97858
4.28303e-07
2.97818
4.51339e-07
2.97773
4.7612e-07
2.97721
5.02165e-07
2.97662
5.28966e-07
2.97597
5.5592e-07
2.97525
5.82211e-07
2.97447
6.06986e-07
2.97361
6.29181e-07
2.97271
6.47746e-07
2.97175
6.61523e-07
2.97075
6.69294e-07
2.96972
6.69963e-07
2.96868
6.6256e-07
2.96765
6.46229e-07
2.96663
6.20308e-07
2.96566
5.84529e-07
2.96474
5.38868e-07
2.96391
4.83618e-07
2.96317
4.19517e-07
2.96255
3.47627e-07
2.96205
2.69327e-07
2.96169
1.8637e-07
2.96149
1.00794e-07
2.96143
1.87429e-08
2.96151
-2.21917e-08
2.96173
-1.32168e-07
2.96208
-2.16478e-07
2.96256
-2.82351e-07
2.96316
-3.389e-07
2.96385
-3.86462e-07
2.96462
-4.19521e-07
2.96544
-4.39519e-07
2.9663
-4.46973e-07
2.96716
-4.43062e-07
2.96802
-4.26273e-07
2.96885
-3.99075e-07
2.96964
-3.65308e-07
2.97037
-3.24275e-07
2.97104
-2.73321e-07
2.97164
-2.29145e-07
2.97216
-1.601e-07
2.97261
-9.40599e-08
2.97298
1.47156e-07
2.97328
9.92273e-07
2.97351
5.18234e-06
2.97368
2.57908e-05
2.97376
0.000128733
2.97365
0.000641405
2.97273
0.0031779
2.96804
0.0156347
2.94564
0.0743238
2.83632
0.364513
1.21339
2.48279
3.44148
0.000853428
3.4415
0.000624488
3.44152
0.000589284
3.44154
0.000598515
3.44156
0.000599448
3.44158
0.000598879
3.44161
0.000598825
3.44163
0.000597935
3.44166
0.000595825
3.44168
0.000591409
3.4417
0.000583374
3.44172
0.000570253
3.44174
0.000550482
3.44176
0.000523003
3.44178
0.000487397
3.44179
0.000444185
3.4418
0.000394852
3.44181
0.000341672
3.44182
0.000287371
3.44182
0.000234653
3.44182
0.000185913
3.44182
0.000142896
3.44182
0.000106528
3.44181
7.70536e-05
3.44181
5.40985e-05
3.4418
3.69043e-05
3.44178
2.44536e-05
3.44177
1.57954e-05
3.44175
9.96791e-06
3.44173
6.1535e-06
3.44171
3.74718e-06
3.44169
2.2732e-06
3.44166
1.39742e-06
3.44163
8.9123e-07
3.44159
6.058e-07
3.44155
4.48805e-07
3.44151
3.64054e-07
3.44146
3.19251e-07
3.44141
2.95935e-07
3.44135
2.8383e-07
3.44129
2.77403e-07
3.44122
2.74476e-07
3.44115
2.72828e-07
3.44109
2.72457e-07
3.44102
2.73647e-07
3.44095
2.74691e-07
3.44089
2.78138e-07
3.44084
2.82003e-07
3.4408
2.87506e-07
3.44077
2.94644e-07
3.44076
3.08593e-07
3.44079
3.27027e-07
3.44084
3.36475e-07
3.44093
3.52575e-07
3.44106
3.73353e-07
3.44124
3.95836e-07
3.44147
4.20865e-07
3.44174
4.49476e-07
3.44207
4.78447e-07
3.44244
5.1077e-07
3.44287
5.4436e-07
3.44334
5.77516e-07
3.44385
6.12843e-07
3.44438
6.46605e-07
3.44493
6.78841e-07
3.44547
7.10032e-07
3.44601
7.3826e-07
3.4465
7.617e-07
3.44694
7.81856e-07
3.44731
7.97381e-07
3.44758
8.04737e-07
3.44773
8.07688e-07
3.44775
8.04443e-07
3.44763
7.91802e-07
3.44734
7.72845e-07
3.44689
7.43838e-07
3.44626
7.0733e-07
3.44546
6.63678e-07
3.44448
6.07786e-07
3.44335
5.45006e-07
3.44207
4.73028e-07
3.44066
3.91308e-07
3.43915
3.06347e-07
3.43758
2.07683e-07
3.43596
8.74697e-08
3.43434
-7.14808e-08
3.43274
1.18731e-07
3.43119
-5.30454e-08
3.42973
-3.71767e-07
3.42837
-4.12992e-07
3.42714
-4.72101e-07
3.42606
-5.34123e-07
3.42512
-5.95035e-07
3.42434
-6.49929e-07
3.42373
-6.94206e-07
3.42327
-7.26393e-07
3.42297
-7.44712e-07
3.4228
-7.50924e-07
3.42276
-7.44456e-07
3.42281
-7.2134e-07
3.42295
-6.87924e-07
3.42315
-6.44131e-07
3.42339
-5.90881e-07
3.42366
-5.2977e-07
3.42393
-4.62467e-07
3.42418
-3.91316e-07
3.42442
-3.2018e-07
3.42463
-2.47215e-07
3.42481
-1.76478e-07
3.42495
-1.09485e-07
3.42505
-4.58695e-08
3.42511
1.23073e-08
3.42513
6.40412e-08
3.42513
1.10354e-07
3.42509
1.50882e-07
3.42504
1.83598e-07
3.42497
2.11865e-07
3.42489
2.34728e-07
3.42479
2.52099e-07
3.4247
2.64772e-07
3.42461
2.64956e-07
3.42451
2.83813e-07
3.42442
2.91511e-07
3.42434
2.91378e-07
3.42426
2.92248e-07
3.42418
2.9193e-07
3.42411
2.91049e-07
3.42405
2.90029e-07
3.42399
2.88694e-07
3.42394
2.87289e-07
3.42389
2.86149e-07
3.42384
2.8558e-07
3.42379
2.85245e-07
3.42374
2.8559e-07
3.42369
2.86915e-07
3.42363
2.88974e-07
3.42356
2.92093e-07
3.42347
2.9635e-07
3.42338
3.01956e-07
3.42326
3.08959e-07
3.42312
3.17506e-07
3.42295
3.27971e-07
3.42275
3.40209e-07
3.42251
3.54379e-07
3.42222
3.70585e-07
3.42188
3.88825e-07
3.42149
4.09051e-07
3.42103
4.31046e-07
3.42051
4.54709e-07
3.41991
4.7958e-07
3.41924
5.05168e-07
3.41849
5.30907e-07
3.41767
5.56005e-07
3.41676
5.79643e-07
3.41579
6.00832e-07
3.41474
6.18533e-07
3.41364
6.31668e-07
3.41249
6.39076e-07
3.41132
6.39677e-07
3.41012
6.32592e-07
3.40893
6.16974e-07
3.40777
5.92199e-07
3.40665
5.58002e-07
3.4056
5.14385e-07
3.40464
4.61612e-07
3.40379
4.00389e-07
3.40307
3.3174e-07
3.4025
2.56965e-07
3.40209
1.77761e-07
3.40185
9.60918e-08
3.40179
1.78879e-08
3.40189
-2.1797e-08
3.40213
-1.25725e-07
3.40253
-2.06825e-07
3.40309
-2.69567e-07
3.40377
-3.2356e-07
3.40457
-3.68884e-07
3.40545
-4.0041e-07
3.4064
-4.19517e-07
3.40738
-4.266e-07
3.40838
-4.22802e-07
3.40936
-4.06786e-07
3.41032
-3.80891e-07
3.41122
-3.48346e-07
3.41206
-3.09767e-07
3.41283
-2.59679e-07
3.41352
-2.19437e-07
3.41412
-1.46567e-07
3.41463
-7.79692e-08
3.41506
2.2673e-07
3.4154
1.34271e-06
3.41567
6.94849e-06
3.41586
3.45858e-05
3.41596
0.000172684
3.41583
0.000860734
3.41479
0.0042654
3.40944
0.0210006
3.38397
0.0997747
3.26052
0.487925
1.60504
2.86881
3.95323
0.000796571
3.95325
0.00059674
3.95327
0.000555355
3.95329
0.000565881
3.95331
0.000567136
3.95334
0.000566434
3.95337
0.000566362
3.9534
0.000565542
3.95342
0.000563562
3.95345
0.000559411
3.95347
0.000551855
3.9535
0.000539495
3.95352
0.000520869
3.95354
0.000494961
3.95356
0.000461371
3.95358
0.00042058
3.95359
0.000373984
3.9536
0.000323726
3.95361
0.000272379
3.95362
0.0002225
3.95362
0.000176359
3.95362
0.000135613
3.95361
0.000101145
3.95361
7.31952e-05
3.9536
5.14147e-05
3.95359
3.50908e-05
3.95357
2.32638e-05
3.95356
1.50341e-05
3.95354
9.49162e-06
3.95352
5.862e-06
3.95349
3.57072e-06
3.95346
2.16642e-06
3.95343
1.33148e-06
3.95339
8.48608e-07
3.95335
5.7618e-07
3.95331
4.26227e-07
3.95326
3.45262e-07
3.9532
3.02431e-07
3.95314
2.80132e-07
3.95307
2.6856e-07
3.953
2.62414e-07
3.95293
2.59617e-07
3.95285
2.58047e-07
3.95277
2.57687e-07
3.95269
2.58782e-07
3.95261
2.59801e-07
3.95254
2.63035e-07
3.95248
2.66716e-07
3.95244
2.71924e-07
3.95241
2.78642e-07
3.9524
2.91972e-07
3.95242
3.09234e-07
3.95249
3.18244e-07
3.95259
3.33507e-07
3.95274
3.53121e-07
3.95295
3.7442e-07
3.95321
3.98103e-07
3.95352
4.2515e-07
3.9539
4.52603e-07
3.95433
4.83147e-07
3.95482
5.14929e-07
3.95536
5.46327e-07
3.95594
5.79708e-07
3.95655
6.11665e-07
3.95718
6.42152e-07
3.95781
6.71645e-07
3.95842
6.98343e-07
3.95899
7.20499e-07
3.9595
7.39554e-07
3.95992
7.54215e-07
3.96023
7.61194e-07
3.9604
7.6395e-07
3.96043
7.60846e-07
3.96029
7.48908e-07
3.95996
7.30927e-07
3.95943
7.03507e-07
3.95871
6.68962e-07
3.95779
6.27611e-07
3.95667
5.74772e-07
3.95537
5.15336e-07
3.9539
4.47235e-07
3.95228
3.69948e-07
3.95055
2.89468e-07
3.94874
1.95952e-07
3.94689
8.15126e-08
3.94502
-6.54563e-08
3.94318
1.076e-07
3.9414
-4.88926e-08
3.93972
-3.48728e-07
3.93817
-3.91642e-07
3.93675
-4.46793e-07
3.9355
-5.05336e-07
3.93443
-5.62898e-07
3.93354
-6.14767e-07
3.93283
-6.56611e-07
3.93231
-6.87004e-07
3.93196
-7.04319e-07
3.93177
-7.10111e-07
3.93172
-7.03987e-07
3.93178
-6.82092e-07
3.93194
-6.50481e-07
3.93217
-6.09027e-07
3.93245
-5.58656e-07
3.93275
-5.00849e-07
3.93306
-4.37195e-07
3.93336
-3.69925e-07
3.93363
-3.0264e-07
3.93387
-2.33676e-07
3.93407
-1.6679e-07
3.93423
-1.03424e-07
3.93435
-4.33265e-08
3.93442
1.16825e-08
3.93444
6.06242e-08
3.93444
1.04389e-07
3.9344
1.42685e-07
3.93434
1.73662e-07
3.93426
2.00351e-07
3.93416
2.21962e-07
3.93406
2.38391e-07
3.93395
2.50301e-07
3.93384
2.50712e-07
3.93373
2.68258e-07
3.93363
2.75642e-07
3.93353
2.75559e-07
3.93344
2.76349e-07
3.93335
2.76067e-07
3.93327
2.75227e-07
3.9332
2.74266e-07
3.93313
2.7301e-07
3.93307
2.71687e-07
3.93302
2.70604e-07
3.93296
2.70071e-07
3.9329
2.69766e-07
3.93285
2.7009e-07
3.93278
2.71346e-07
3.93271
2.73303e-07
3.93263
2.76248e-07
3.93254
2.80284e-07
3.93243
2.85594e-07
3.93229
2.92222e-07
3.93213
3.00303e-07
3.93194
3.10205e-07
3.93171
3.21789e-07
3.93143
3.35188e-07
3.9311
3.5052e-07
3.93071
3.67772e-07
3.93026
3.86907e-07
3.92974
4.07714e-07
3.92913
4.3009e-07
3.92845
4.5361e-07
3.92768
4.77812e-07
3.92682
5.02153e-07
3.92587
5.25889e-07
3.92483
5.48232e-07
3.92371
5.68266e-07
3.92251
5.84997e-07
3.92125
5.97409e-07
3.91993
6.04398e-07
3.91857
6.04949e-07
3.9172
5.98231e-07
3.91583
5.83445e-07
3.9145
5.59999e-07
3.91321
5.27649e-07
3.912
4.86376e-07
3.9109
4.36462e-07
3.90993
3.7855e-07
3.9091
3.13624e-07
3.90845
2.42905e-07
3.90798
1.67997e-07
3.9077
9.07967e-08
3.90763
1.69439e-08
3.90774
-2.11858e-08
3.90802
-1.18404e-07
3.90848
-1.95737e-07
3.90912
-2.54926e-07
3.90991
-3.05994e-07
3.91082
-3.48773e-07
3.91184
-3.78572e-07
3.91292
-3.96667e-07
3.91405
-4.03339e-07
3.9152
-3.99686e-07
3.91633
-3.84563e-07
3.91742
-3.60157e-07
3.91846
-3.29039e-07
3.91943
-2.9325e-07
3.92031
-2.44168e-07
3.9211
-2.08415e-07
3.92179
-1.312e-07
3.92238
-5.98584e-08
3.92287
3.16773e-07
3.92327
1.7385e-06
3.92357
8.94411e-06
3.92379
4.45229e-05
3.92391
0.000222351
3.92376
0.00110862
3.92259
0.00549477
3.91654
0.0270722
3.88775
0.128545
3.74931
0.626316
2.03689
3.31741
17.246
0.000570202
17.2461
0.000462259
17.2462
0.000412366
17.2463
0.000423481
17.2464
0.000425919
17.2465
0.000424911
17.2466
0.000424761
17.2467
0.000424199
17.2468
0.000422747
17.247
0.000419691
17.2471
0.000414125
17.2472
0.000404977
17.2473
0.000391192
17.2474
0.00037197
17.2474
0.000347
17.2475
0.000316618
17.2476
0.000281847
17.2476
0.00024427
17.2477
0.000205803
17.2477
0.000168363
17.2477
0.000133659
17.2477
0.00010295
17.2477
7.69191e-05
17.2477
5.57653e-05
17.2476
3.9246e-05
17.2476
2.68376e-05
17.2475
1.78281e-05
17.2474
1.15438e-05
17.2474
7.30139e-06
17.2473
4.5175e-06
17.2471
2.75538e-06
17.247
1.67286e-06
17.2469
1.0275e-06
17.2467
6.53351e-07
17.2465
4.41771e-07
17.2463
3.24988e-07
17.2461
2.61844e-07
17.2459
2.28345e-07
17.2456
2.10868e-07
17.2453
2.01819e-07
17.245
1.97002e-07
17.2447
1.94796e-07
17.2443
1.93586e-07
17.244
1.93296e-07
17.2437
1.94055e-07
17.2433
1.94882e-07
17.243
1.97249e-07
17.2428
2.00052e-07
17.2425
2.03963e-07
17.2424
2.08892e-07
17.2424
2.19225e-07
17.2425
2.3172e-07
17.2428
2.38694e-07
17.2432
2.50188e-07
17.2439
2.64817e-07
17.2448
2.80835e-07
17.2459
2.98594e-07
17.2473
3.18834e-07
17.2489
3.39519e-07
17.2508
3.62335e-07
17.253
3.86186e-07
17.2553
4.09796e-07
17.2578
4.34758e-07
17.2605
4.58776e-07
17.2633
4.81626e-07
17.266
5.03736e-07
17.2687
5.23764e-07
17.2711
5.40374e-07
17.2733
5.54669e-07
17.2752
5.65619e-07
17.2765
5.70972e-07
17.2773
5.72963e-07
17.2774
5.70598e-07
17.2768
5.61681e-07
17.2754
5.4811e-07
17.2731
5.27663e-07
17.2699
5.01726e-07
17.2659
4.70632e-07
17.261
4.31116e-07
17.2554
3.86478e-07
17.2489
3.35214e-07
17.2419
2.77532e-07
17.2343
2.16895e-07
17.2264
1.46573e-07
17.2183
6.09857e-08
17.2102
-4.17076e-08
17.2022
6.94217e-08
17.1944
-3.61579e-08
17.1871
-2.55141e-07
17.1803
-2.95702e-07
17.1741
-3.35282e-07
17.1687
-3.78987e-07
17.164
-4.22236e-07
17.1601
-4.61096e-07
17.157
-4.92466e-07
17.1547
-5.15239e-07
17.1532
-5.28253e-07
17.1524
-5.32576e-07
17.1522
-5.27942e-07
17.1524
-5.11542e-07
17.1531
-4.87849e-07
17.1541
-4.5675e-07
17.1553
-4.18959e-07
17.1567
-3.75604e-07
17.158
-3.27839e-07
17.1593
-2.77438e-07
17.1605
-2.26924e-07
17.1616
-1.75249e-07
17.1624
-1.25079e-07
17.1631
-7.74917e-08
17.1636
-3.23748e-08
17.1639
8.56517e-09
17.1641
4.55229e-08
17.164
7.82784e-08
17.1639
1.06965e-07
17.1636
1.30322e-07
17.1632
1.50234e-07
17.1628
1.66444e-07
17.1624
1.78792e-07
17.1619
1.8756e-07
17.1614
1.88483e-07
17.161
2.00916e-07
17.1605
2.06688e-07
17.1601
2.06729e-07
17.1597
2.07236e-07
17.1593
2.07074e-07
17.1589
2.06416e-07
17.1586
2.05678e-07
17.1583
2.04757e-07
17.1581
2.03774e-07
17.1578
2.02949e-07
17.1576
2.0254e-07
17.1573
2.02344e-07
17.1571
2.02561e-07
17.1568
2.03495e-07
17.1565
2.04985e-07
17.1562
2.07187e-07
17.1558
2.10211e-07
17.1553
2.14196e-07
17.1547
2.19174e-07
17.154
2.25229e-07
17.1531
2.32648e-07
17.1521
2.41354e-07
17.1509
2.51389e-07
17.1495
2.62885e-07
17.1478
2.75833e-07
17.1458
2.90184e-07
17.1435
3.05783e-07
17.1409
3.22559e-07
17.1379
3.40206e-07
17.1345
3.58357e-07
17.1308
3.76609e-07
17.1266
3.94418e-07
17.1221
4.11166e-07
17.1172
4.26189e-07
17.112
4.38739e-07
17.1065
4.48047e-07
17.1007
4.53284e-07
17.0948
4.53698e-07
17.0888
4.4866e-07
17.0829
4.37568e-07
17.077
4.19982e-07
17.0714
3.95723e-07
17.0662
3.6477e-07
17.0614
3.27331e-07
17.0571
2.83902e-07
17.0535
2.35208e-07
17.0507
1.82168e-07
17.0486
1.25995e-07
17.0474
6.81671e-08
17.0471
1.30985e-08
17.0476
-1.73409e-08
17.0488
-8.73924e-08
17.0508
-1.4719e-07
17.0536
-1.9118e-07
17.057
-2.29596e-07
17.061
-2.61493e-07
17.0654
-2.83851e-07
17.0702
-2.9751e-07
17.0751
-3.02529e-07
17.0801
-2.99641e-07
17.085
-2.88335e-07
17.0898
-2.70455e-07
17.0943
-2.45606e-07
17.0986
-2.21974e-07
17.1024
-1.77081e-07
17.1059
-1.61307e-07
17.1089
-6.557e-08
17.1114
1.46765e-08
17.1136
6.87456e-07
17.1153
3.35757e-06
17.1166
1.71162e-05
17.1176
8.52044e-05
17.1181
0.000425728
17.1175
0.00212414
17.1127
0.0105244
17.0881
0.0517957
16.9711
0.245479
16.4564
1.14081
3.72209
14.7709
17.2459
0.00036782
17.2461
0.000314351
17.2462
0.000273468
17.2463
0.000281648
17.2464
0.000284209
17.2465
0.000283298
17.2466
0.000283142
17.2467
0.000282802
17.2468
0.000281857
17.2469
0.000279854
17.247
0.000276199
17.2472
0.000270166
17.2473
0.00026107
17.2473
0.000248359
17.2474
0.00023182
17.2475
0.000211664
17.2476
0.000188563
17.2476
0.00016356
17.2477
0.000137927
17.2477
0.000112944
17.2477
8.97543e-05
17.2477
6.92048e-05
17.2477
5.17624e-05
17.2477
3.75677e-05
17.2476
2.64687e-05
17.2476
1.812e-05
17.2475
1.20507e-05
17.2474
7.81098e-06
17.2474
4.94509e-06
17.2473
3.06241e-06
17.2471
1.86899e-06
17.247
1.13493e-06
17.2469
6.96719e-07
17.2467
4.42346e-07
17.2465
2.98338e-07
17.2463
2.18741e-07
17.2461
1.75682e-07
17.2459
1.52807e-07
17.2456
1.40864e-07
17.2453
1.34694e-07
17.245
1.31402e-07
17.2447
1.29893e-07
17.2443
1.29079e-07
17.244
1.28873e-07
17.2437
1.29355e-07
17.2433
1.29939e-07
17.243
1.31485e-07
17.2428
1.33377e-07
17.2425
1.35988e-07
17.2424
1.39215e-07
17.2424
1.46264e-07
17.2425
1.54383e-07
17.2428
1.59136e-07
17.2432
1.66821e-07
17.2439
1.76527e-07
17.2448
1.87231e-07
17.2459
1.99074e-07
17.2473
2.12533e-07
17.2489
2.2638e-07
17.2508
2.41545e-07
17.253
2.57442e-07
17.2553
2.73224e-07
17.2578