/*--------------------------------*- C++ -*----------------------------------*\
| =========                 |                                                 |
| \\      /  F ield         | OpenFOAM: The Open Source CFD Toolbox           |
|  \\    /   O peration     | Version:  3.0.x                                 |
|   \\  /    A nd           | Web:      www.OpenFOAM.org                      |
|    \\/     M anipulation  |                                                 |
\*---------------------------------------------------------------------------*/
FoamFile
{
    version     2.0;
    format      ascii;
    class       volVectorField;
    location    "0.10995";
    object      U;
}
// * * * * * * * * * * * * * * * * * * * * * * * * * * * * * * * * * * * * * //

dimensions      [0 1 -1 0 0 0 0];

internalField   nonuniform List<vector> 
27600
(
(42.685 0.000288391 0)
(42.6701 0.000241658 0)
(42.6552 0.000238522 0)
(42.6402 0.000240831 0)
(42.6252 0.000243062 0)
(42.6102 0.00024502 0)
(42.5952 0.000246685 0)
(42.5803 0.000247772 0)
(42.5654 0.000248145 0)
(42.5506 0.000247404 0)
(42.5359 0.000245018 0)
(42.5215 0.000240389 0)
(42.5075 0.000232861 0)
(42.494 0.000221981 0)
(42.4814 0.000207556 0)
(42.4697 0.000189781 0)
(42.4592 0.000169265 0)
(42.4499 0.000146958 0)
(42.4421 0.000124014 0)
(42.4355 0.000101603 0)
(42.4302 8.07651e-05 0)
(42.4261 6.22751e-05 0)
(42.4229 4.65715e-05 0)
(42.4206 3.3787e-05 0)
(42.4189 2.37898e-05 0)
(42.4176 1.62708e-05 0)
(42.4168 1.08125e-05 0)
(42.4161 6.99998e-06 0)
(42.4156 4.42452e-06 0)
(42.4152 2.73715e-06 0)
(42.4149 1.6695e-06 0)
(42.4146 1.01383e-06 0)
(42.4142 6.23041e-07 0)
(42.4138 3.96587e-07 0)
(42.4134 2.68757e-07 0)
(42.413 1.98548e-07 0)
(42.4125 1.60893e-07 0)
(42.412 1.41284e-07 0)
(42.4114 1.31436e-07 0)
(42.4107 1.26675e-07 0)
(42.41 1.24555e-07 0)
(42.4093 1.23981e-07 0)
(42.4085 1.24044e-07 0)
(42.4077 1.24646e-07 0)
(42.4069 1.25904e-07 0)
(42.4061 1.27104e-07 0)
(42.4054 1.29221e-07 0)
(42.4047 1.31483e-07 0)
(42.4042 1.343e-07 0)
(42.4038 1.37832e-07 0)
(42.4036 1.42802e-07 0)
(42.4036 1.48887e-07 0)
(42.404 1.5271e-07 0)
(42.4049 1.57931e-07 0)
(42.4061 1.6416e-07 0)
(42.4079 1.70355e-07 0)
(42.4101 1.76692e-07 0)
(42.4129 1.83599e-07 0)
(42.4163 1.90035e-07 0)
(42.4203 1.9723e-07 0)
(42.4248 2.04693e-07 0)
(42.4298 2.11701e-07 0)
(42.4352 2.1919e-07 0)
(42.4409 2.25974e-07 0)
(42.4468 2.31964e-07 0)
(42.4527 2.37416e-07 0)
(42.4584 2.41827e-07 0)
(42.4638 2.44605e-07 0)
(42.4685 2.46231e-07 0)
(42.4723 2.46489e-07 0)
(42.475 2.44202e-07 0)
(42.4764 2.40706e-07 0)
(42.4762 2.35564e-07 0)
(42.4743 2.27746e-07 0)
(42.4704 2.1841e-07 0)
(42.4646 2.06356e-07 0)
(42.4566 1.92425e-07 0)
(42.4465 1.76905e-07 0)
(42.4343 1.57992e-07 0)
(42.4201 1.37628e-07 0)
(42.4042 1.15031e-07 0)
(42.3866 9.07512e-08 0)
(42.3679 6.65493e-08 0)
(42.3482 3.86947e-08 0)
(42.328 6.0254e-09 0)
(42.3079 -4.99463e-08 0)
(42.2878 1.65947e-08 0)
(42.268 -3.28203e-08 0)
(42.2495 -1.27423e-07 0)
(42.2326 -1.39696e-07 0)
(42.2173 -1.56656e-07 0)
(42.2038 -1.73742e-07 0)
(42.1922 -1.90732e-07 0)
(42.1827 -2.0616e-07 0)
(42.1753 -2.18622e-07 0)
(42.17 -2.27661e-07 0)
(42.1667 -2.32659e-07 0)
(42.1652 -2.34363e-07 0)
(42.1654 -2.32459e-07 0)
(42.167 -2.25755e-07 0)
(42.1697 -2.15922e-07 0)
(42.1733 -2.03034e-07 0)
(42.1774 -1.87264e-07 0)
(42.1819 -1.69105e-07 0)
(42.1864 -1.49076e-07 0)
(42.1908 -1.27639e-07 0)
(42.195 -1.0618e-07 0)
(42.1987 -8.41168e-08 0)
(42.2019 -6.30057e-08 0)
(42.2046 -4.31616e-08 0)
(42.2066 -2.2006e-08 0)
(42.2081 2.87054e-09 0)
(42.2091 1.87961e-08 0)
(42.2095 3.38723e-08 0)
(42.2096 4.756e-08 0)
(42.2092 5.89455e-08 0)
(42.2086 6.91273e-08 0)
(42.2077 7.76927e-08 0)
(42.2067 8.45224e-08 0)
(42.2056 8.99818e-08 0)
(42.2045 9.17655e-08 0)
(42.2033 9.81573e-08 0)
(42.2021 1.0167e-07 0)
(42.201 1.02977e-07 0)
(42.1999 1.04367e-07 0)
(42.1989 1.0518e-07 0)
(42.198 1.05741e-07 0)
(42.1972 1.06195e-07 0)
(42.1964 1.06451e-07 0)
(42.1957 1.06572e-07 0)
(42.195 1.06689e-07 0)
(42.1944 1.06926e-07 0)
(42.1937 1.07129e-07 0)
(42.1931 1.07485e-07 0)
(42.1924 1.08044e-07 0)
(42.1917 1.08769e-07 0)
(42.1908 1.09719e-07 0)
(42.1898 1.10936e-07 0)
(42.1886 1.12503e-07 0)
(42.1872 1.14381e-07 0)
(42.1855 1.1665e-07 0)
(42.1835 1.1944e-07 0)
(42.181 1.22697e-07 0)
(42.1781 1.26482e-07 0)
(42.1746 1.30816e-07 0)
(42.1705 1.35739e-07 0)
(42.1657 1.41252e-07 0)
(42.16 1.47289e-07 0)
(42.1535 1.53872e-07 0)
(42.1461 1.60821e-07 0)
(42.1378 1.68043e-07 0)
(42.1284 1.75366e-07 0)
(42.1179 1.82595e-07 0)
(42.1065 1.89505e-07 0)
(42.094 1.95783e-07 0)
(42.0806 2.01181e-07 0)
(42.0664 2.0536e-07 0)
(42.0515 2.07989e-07 0)
(42.0361 2.08766e-07 0)
(42.0204 2.07391e-07 0)
(42.0046 2.03643e-07 0)
(41.9889 1.97349e-07 0)
(41.9738 1.88431e-07 0)
(41.9594 1.76924e-07 0)
(41.9461 1.62985e-07 0)
(41.9341 1.46969e-07 0)
(41.9237 1.2894e-07 0)
(41.9151 1.08269e-07 0)
(41.9086 8.40053e-08 0)
(41.9043 5.48377e-08 0)
(41.9022 1.85804e-08 0)
(41.9023 -4.10596e-09 0)
(41.9045 -3.43115e-08 0)
(41.9088 -5.79956e-08 0)
(41.9151 -7.77508e-08 0)
(41.9233 -9.51586e-08 0)
(41.9332 -1.10413e-07 0)
(41.9443 -1.21717e-07 0)
(41.9565 -1.29479e-07 0)
(41.9693 -1.3384e-07 0)
(41.9825 -1.34974e-07 0)
(41.9956 -1.32324e-07 0)
(42.0085 -1.2657e-07 0)
(42.0209 -1.19105e-07 0)
(42.0325 -1.08804e-07 0)
(42.0433 -9.68727e-08 0)
(42.0529 -8.48439e-08 0)
(42.0615 -7.11262e-08 0)
(42.0689 -5.67201e-08 0)
(42.0752 -3.38676e-08 0)
(42.0804 1.02827e-08 0)
(42.0845 1.85239e-07 0)
(42.0876 1.04181e-06 0)
(42.0896 5.24932e-06 0)
(42.0897 2.60327e-05 0)
(42.0835 0.0001289 0)
(42.0498 0.000632708 0)
(41.8871 0.00301811 0)
(41.4251 0.0151268 0)
(36.9052 0.0547258 0)
(42.7002 0.000463357 0)
(42.7006 0.000330205 0)
(42.7009 0.00031354 0)
(42.7011 0.000310688 0)
(42.7014 0.000308321 0)
(42.7015 0.000306371 0)
(42.7017 0.00030476 0)
(42.702 0.000302884 0)
(42.7022 0.000300553 0)
(42.7024 0.000297196 0)
(42.7026 0.000292143 0)
(42.7027 0.000284683 0)
(42.7029 0.000274027 0)
(42.7031 0.000259677 0)
(42.7033 0.000241435 0)
(42.7034 0.000219566 0)
(42.7036 0.000194807 0)
(42.7037 0.000168274 0)
(42.7038 0.000141301 0)
(42.7039 0.000115203 0)
(42.704 9.11416e-05 0)
(42.704 6.99541e-05 0)
(42.704 5.20792e-05 0)
(42.704 3.7619e-05 0)
(42.7039 2.63772e-05 0)
(42.7038 1.79708e-05 0)
(42.7037 1.18941e-05 0)
(42.7036 7.67565e-06 0)
(42.7034 4.841e-06 0)
(42.7032 2.98911e-06 0)
(42.7029 1.82297e-06 0)
(42.7027 1.10942e-06 0)
(42.7023 6.85595e-07 0)
(42.702 4.40405e-07 0)
(42.7016 3.01844e-07 0)
(42.7012 2.25401e-07 0)
(42.7007 1.84022e-07 0)
(42.7001 1.62195e-07 0)
(42.6995 1.50947e-07 0)
(42.6989 1.45202e-07 0)
(42.6982 1.42327e-07 0)
(42.6974 1.41246e-07 0)
(42.6966 1.40836e-07 0)
(42.6958 1.41188e-07 0)
(42.695 1.42468e-07 0)
(42.6942 1.43659e-07 0)
(42.6935 1.46335e-07 0)
(42.6928 1.49251e-07 0)
(42.6923 1.53181e-07 0)
(42.6919 1.5824e-07 0)
(42.6916 1.66288e-07 0)
(42.6917 1.76791e-07 0)
(42.6921 1.82974e-07 0)
(42.6929 1.92312e-07 0)
(42.6942 2.03947e-07 0)
(42.6959 2.16143e-07 0)
(42.6982 2.29373e-07 0)
(42.701 2.44213e-07 0)
(42.7044 2.58962e-07 0)
(42.7083 2.75568e-07 0)
(42.7128 2.92915e-07 0)
(42.7178 3.10121e-07 0)
(42.7232 3.28614e-07 0)
(42.729 3.46296e-07 0)
(42.7348 3.63307e-07 0)
(42.7408 3.79858e-07 0)
(42.7465 3.94886e-07 0)
(42.7518 4.07486e-07 0)
(42.7565 4.18476e-07 0)
(42.7603 4.27187e-07 0)
(42.7631 4.31603e-07 0)
(42.7645 4.34013e-07 0)
(42.7643 4.33203e-07 0)
(42.7623 4.27573e-07 0)
(42.7585 4.18858e-07 0)
(42.7526 4.04809e-07 0)
(42.7446 3.87011e-07 0)
(42.7345 3.65571e-07 0)
(42.7223 3.37683e-07 0)
(42.7082 3.06335e-07 0)
(42.6922 2.70134e-07 0)
(42.6746 2.28071e-07 0)
(42.6558 1.84446e-07 0)
(42.6361 1.33999e-07 0)
(42.616 7.37631e-08 0)
(42.5959 -1.40444e-08 0)
(42.5758 9.30986e-08 0)
(42.5559 -7.58764e-09 0)
(42.5374 -1.71415e-07 0)
(42.5205 -1.89661e-07 0)
(42.5052 -2.22519e-07 0)
(42.4916 -2.56393e-07 0)
(42.48 -2.90013e-07 0)
(42.4705 -3.20808e-07 0)
(42.4631 -3.46313e-07 0)
(42.4577 -3.65791e-07 0)
(42.4544 -3.7822e-07 0)
(42.4529 -3.84541e-07 0)
(42.4531 -3.84086e-07 0)
(42.4547 -3.75151e-07 0)
(42.4574 -3.60477e-07 0)
(42.4609 -3.40423e-07 0)
(42.465 -3.15124e-07 0)
(42.4695 -2.85392e-07 0)
(42.474 -2.51968e-07 0)
(42.4784 -2.16233e-07 0)
(42.4825 -1.8027e-07 0)
(42.4862 -1.42944e-07 0)
(42.4894 -1.06637e-07 0)
(42.4921 -7.19914e-08 0)
(42.4941 -3.6235e-08 0)
(42.4956 2.0947e-09 0)
(42.4966 2.78845e-08 0)
(42.497 5.19475e-08 0)
(42.497 7.3376e-08 0)
(42.4967 9.09728e-08 0)
(42.496 1.06443e-07 0)
(42.4952 1.19051e-07 0)
(42.4941 1.28841e-07 0)
(42.493 1.36279e-07 0)
(42.4919 1.37029e-07 0)
(42.4907 1.47021e-07 0)
(42.4896 1.5145e-07 0)
(42.4884 1.51908e-07 0)
(42.4873 1.52753e-07 0)
(42.4863 1.52843e-07 0)
(42.4854 1.52633e-07 0)
(42.4846 1.52194e-07 0)
(42.4838 1.5156e-07 0)
(42.4831 1.50871e-07 0)
(42.4824 1.50293e-07 0)
(42.4817 1.49927e-07 0)
(42.4811 1.49637e-07 0)
(42.4804 1.49699e-07 0)
(42.4798 1.50205e-07 0)
(42.479 1.51074e-07 0)
(42.4781 1.5247e-07 0)
(42.4771 1.5444e-07 0)
(42.476 1.57079e-07 0)
(42.4745 1.60451e-07 0)
(42.4728 1.64636e-07 0)
(42.4708 1.69836e-07 0)
(42.4683 1.75932e-07 0)
(42.4654 1.83137e-07 0)
(42.4619 1.91445e-07 0)
(42.4578 2.00896e-07 0)
(42.4529 2.11501e-07 0)
(42.4473 2.23127e-07 0)
(42.4408 2.35777e-07 0)
(42.4334 2.49208e-07 0)
(42.425 2.63213e-07 0)
(42.4156 2.77474e-07 0)
(42.4052 2.91601e-07 0)
(42.3937 3.05184e-07 0)
(42.3813 3.17672e-07 0)
(42.3679 3.28559e-07 0)
(42.3537 3.37247e-07 0)
(42.3388 3.43117e-07 0)
(42.3233 3.45613e-07 0)
(42.3076 3.44212e-07 0)
(42.2918 3.38464e-07 0)
(42.2762 3.28003e-07 0)
(42.261 3.12682e-07 0)
(42.2466 2.92482e-07 0)
(42.2333 2.67584e-07 0)
(42.2213 2.38458e-07 0)
(42.2109 2.05319e-07 0)
(42.2023 1.67846e-07 0)
(42.1958 1.25535e-07 0)
(42.1914 7.7894e-08 0)
(42.1894 2.42671e-08 0)
(42.1895 -9.99569e-10 0)
(42.1916 -5.3777e-08 0)
(42.1959 -9.55478e-08 0)
(42.2022 -1.29849e-07 0)
(42.2104 -1.59618e-07 0)
(42.2203 -1.85427e-07 0)
(42.2314 -2.04277e-07 0)
(42.2435 -2.16678e-07 0)
(42.2563 -2.22963e-07 0)
(42.2695 -2.23605e-07 0)
(42.2826 -2.17567e-07 0)
(42.2955 -2.06076e-07 0)
(42.3078 -1.91536e-07 0)
(42.3195 -1.72311e-07 0)
(42.3302 -1.4975e-07 0)
(42.3398 -1.27592e-07 0)
(42.3484 -1.0061e-07 0)
(42.3558 -7.22862e-08 0)
(42.3621 -1.36205e-08 0)
(42.3672 1.11203e-07 0)
(42.3713 6.47259e-07 0)
(42.3744 3.29607e-06 0)
(42.3764 1.64881e-05 0)
(42.3765 8.19483e-05 0)
(42.3703 0.000405844 0)
(42.3364 0.00199233 0)
(42.1732 0.00947791 0)
(41.7058 0.0466769 0)
(37.2854 0.16 0)
(42.7002 0.000369459 0)
(42.7006 0.000238957 0)
(42.7009 0.000231857 0)
(42.7012 0.000235475 0)
(42.7015 0.000236808 0)
(42.7017 0.000237681 0)
(42.7019 0.000238562 0)
(42.7022 0.000239013 0)
(42.7025 0.000238941 0)
(42.7027 0.000237881 0)
(42.703 0.000235281 0)
(42.7032 0.000230543 0)
(42.7035 0.000222993 0)
(42.7037 0.000212204 0)
(42.7039 0.000198001 0)
(42.7041 0.000180601 0)
(42.7043 0.000160625 0)
(42.7044 0.00013902 0)
(42.7045 0.000116919 0)
(42.7045 9.54417e-05 0)
(42.7046 7.55803e-05 0)
(42.7046 5.80551e-05 0)
(42.7045 4.32455e-05 0)
(42.7045 3.12521e-05 0)
(42.7044 2.19195e-05 0)
(42.7043 1.49363e-05 0)
(42.7041 9.88372e-06 0)
(42.704 6.37526e-06 0)
(42.7038 4.01666e-06 0)
(42.7036 2.47355e-06 0)
(42.7033 1.50126e-06 0)
(42.7031 9.06213e-07 0)
(42.7027 5.53213e-07 0)
(42.7024 3.495e-07 0)
(42.702 2.34788e-07 0)
(42.7016 1.71725e-07 0)
(42.7011 1.37619e-07 0)
(42.7005 1.19514e-07 0)
(42.6999 1.09972e-07 0)
(42.6993 1.04841e-07 0)
(42.6986 1.01965e-07 0)
(42.6978 1.00464e-07 0)
(42.697 9.94549e-08 0)
(42.6962 9.89716e-08 0)
(42.6954 9.91301e-08 0)
(42.6946 9.91881e-08 0)
(42.6939 1.00346e-07 0)
(42.6932 1.01598e-07 0)
(42.6927 1.03603e-07 0)
(42.6923 1.06317e-07 0)
(42.692 1.11909e-07 0)
(42.6921 1.19832e-07 0)
(42.6925 1.23516e-07 0)
(42.6933 1.3025e-07 0)
(42.6946 1.39164e-07 0)
(42.6963 1.48835e-07 0)
(42.6986 1.59756e-07 0)
(42.7014 1.72314e-07 0)
(42.7048 1.85053e-07 0)
(42.7087 1.99394e-07 0)
(42.7132 2.14306e-07 0)
(42.7182 2.29093e-07 0)
(42.7236 2.44935e-07 0)
(42.7294 2.60153e-07 0)
(42.7352 2.74779e-07 0)
(42.7412 2.89019e-07 0)
(42.7469 3.02028e-07 0)
(42.7522 3.13013e-07 0)
(42.7569 3.22553e-07 0)
(42.7607 3.30045e-07 0)
(42.7635 3.33931e-07 0)
(42.7649 3.35831e-07 0)
(42.7647 3.34999e-07 0)
(42.7627 3.29822e-07 0)
(42.7589 3.21879e-07 0)
(42.753 3.09465e-07 0)
(42.745 2.93611e-07 0)
(42.7349 2.74594e-07 0)
(42.7227 2.49959e-07 0)
(42.7086 2.22358e-07 0)
(42.6926 1.90702e-07 0)
(42.675 1.54788e-07 0)
(42.6562 1.16955e-07 0)
(42.6365 7.30698e-08 0)
(42.6164 2.09866e-08 0)
(42.5963 -4.68596e-08 0)
(42.5762 3.70982e-08 0)
(42.5563 -4.73342e-08 0)
(42.5378 -1.86753e-07 0)
(42.5209 -1.98114e-07 0)
(42.5056 -2.24686e-07 0)
(42.492 -2.52014e-07 0)
(42.4804 -2.78083e-07 0)
(42.4709 -3.01077e-07 0)
(42.4635 -3.19086e-07 0)
(42.4581 -3.31563e-07 0)
(42.4548 -3.37652e-07 0)
(42.4533 -3.38329e-07 0)
(42.4535 -3.33432e-07 0)
(42.4551 -3.21144e-07 0)
(42.4578 -3.04508e-07 0)
(42.4613 -2.83237e-07 0)
(42.4654 -2.57933e-07 0)
(42.4699 -2.29359e-07 0)
(42.4744 -1.98408e-07 0)
(42.4788 -1.65921e-07 0)
(42.4829 -1.33716e-07 0)
(42.4866 -1.00984e-07 0)
(42.4898 -6.96122e-08 0)
(42.4925 -4.00923e-08 0)
(42.4945 -1.2786e-08 0)
(42.496 8.27246e-09 0)
(42.497 3.11822e-08 0)
(42.4974 5.15367e-08 0)
(42.4974 6.9146e-08 0)
(42.4971 8.30862e-08 0)
(42.4964 9.49966e-08 0)
(42.4956 1.04349e-07 0)
(42.4945 1.11183e-07 0)
(42.4934 1.15954e-07 0)
(42.4923 1.14857e-07 0)
(42.4911 1.22642e-07 0)
(42.49 1.25124e-07 0)
(42.4888 1.24204e-07 0)
(42.4877 1.23818e-07 0)
(42.4867 1.22899e-07 0)
(42.4858 1.21857e-07 0)
(42.485 1.20835e-07 0)
(42.4842 1.1971e-07 0)
(42.4835 1.18586e-07 0)
(42.4828 1.17642e-07 0)
(42.4821 1.17011e-07 0)
(42.4815 1.16534e-07 0)
(42.4808 1.16405e-07 0)
(42.4802 1.16724e-07 0)
(42.4794 1.17411e-07 0)
(42.4785 1.18586e-07 0)
(42.4775 1.20272e-07 0)
(42.4764 1.2258e-07 0)
(42.4749 1.2549e-07 0)
(42.4732 1.29103e-07 0)
(42.4712 1.33563e-07 0)
(42.4687 1.38804e-07 0)
(42.4658 1.4488e-07 0)
(42.4623 1.51815e-07 0)
(42.4582 1.59624e-07 0)
(42.4533 1.68285e-07 0)
(42.4477 1.77676e-07 0)
(42.4412 1.87731e-07 0)
(42.4338 1.98253e-07 0)
(42.4254 2.09014e-07 0)
(42.416 2.19732e-07 0)
(42.4056 2.3007e-07 0)
(42.3941 2.39667e-07 0)
(42.3817 2.48054e-07 0)
(42.3683 2.54817e-07 0)
(42.3541 2.5945e-07 0)
(42.3392 2.61465e-07 0)
(42.3237 2.60404e-07 0)
(42.308 2.55886e-07 0)
(42.2922 2.47582e-07 0)
(42.2766 2.35237e-07 0)
(42.2614 2.18776e-07 0)
(42.247 1.98237e-07 0)
(42.2337 1.73745e-07 0)
(42.2217 1.45655e-07 0)
(42.2113 1.14426e-07 0)
(42.2027 8.07326e-08 0)
(42.1962 4.55796e-08 0)
(42.1918 1.0321e-08 0)
(42.1898 -2.14754e-08 0)
(42.1899 -2.76244e-08 0)
(42.192 -7.25694e-08 0)
(42.1963 -1.07265e-07 0)
(42.2026 -1.3433e-07 0)
(42.2108 -1.5673e-07 0)
(42.2207 -1.75136e-07 0)
(42.2318 -1.87304e-07 0)
(42.2439 -1.93727e-07 0)
(42.2567 -1.94634e-07 0)
(42.2699 -1.90798e-07 0)
(42.283 -1.8158e-07 0)
(42.2959 -1.68047e-07 0)
(42.3082 -1.52023e-07 0)
(42.3199 -1.32727e-07 0)
(42.3306 -1.10607e-07 0)
(42.3402 -8.96336e-08 0)
(42.3488 -6.32304e-08 0)
(42.3562 -3.80803e-08 0)
(42.3625 2.73668e-08 0)
(42.3676 2.30913e-07 0)
(42.3717 1.18496e-06 0)
(42.3748 5.87545e-06 0)
(42.3768 2.93216e-05 0)
(42.3769 0.000145967 0)
(42.3708 0.000723052 0)
(42.3374 0.00355289 0)
(42.1765 0.0169001 0)
(41.7189 0.0830375 0)
(37.3917 0.281054 0)
(42.7002 0.000375567 0)
(42.7006 0.000276776 0)
(42.7009 0.000271711 0)
(42.7012 0.000276274 0)
(42.7014 0.000277186 0)
(42.7017 0.00027725 0)
(42.7019 0.000277193 0)
(42.7022 0.000276581 0)
(42.7025 0.000275313 0)
(42.7027 0.000272926 0)
(42.703 0.000268845 0)
(42.7032 0.000262428 0)
(42.7035 0.000252972 0)
(42.7037 0.000240019 0)
(42.7039 0.00022339 0)
(42.7041 0.000203339 0)
(42.7043 0.000180552 0)
(42.7044 0.000156071 0)
(42.7045 0.000131139 0)
(42.7045 0.000106983 0)
(42.7046 8.46879e-05 0)
(42.7046 6.50385e-05 0)
(42.7045 4.84471e-05 0)
(42.7045 3.50161e-05 0)
(42.7044 2.45666e-05 0)
(42.7043 1.6747e-05 0)
(42.7041 1.10905e-05 0)
(42.704 7.16017e-06 0)
(42.7038 4.51692e-06 0)
(42.7036 2.78852e-06 0)
(42.7033 1.6993e-06 0)
(42.7031 1.03291e-06 0)
(42.7027 6.37643e-07 0)
(42.7024 4.09665e-07 0)
(42.702 2.81452e-07 0)
(42.7016 2.11132e-07 0)
(42.7011 1.73296e-07 0)
(42.7005 1.53366e-07 0)
(42.6999 1.43054e-07 0)
(42.6993 1.37739e-07 0)
(42.6986 1.34947e-07 0)
(42.6978 1.33693e-07 0)
(42.697 1.32996e-07 0)
(42.6962 1.32843e-07 0)
(42.6954 1.33371e-07 0)
(42.6946 1.33778e-07 0)
(42.6939 1.35223e-07 0)
(42.6932 1.36794e-07 0)
(42.6927 1.39053e-07 0)
(42.6923 1.42001e-07 0)
(42.692 1.47719e-07 0)
(42.6921 1.55508e-07 0)
(42.6925 1.59257e-07 0)
(42.6933 1.65832e-07 0)
(42.6946 1.74379e-07 0)
(42.6963 1.83585e-07 0)
(42.6986 1.93851e-07 0)
(42.7014 2.05629e-07 0)
(42.7048 2.17493e-07 0)
(42.7087 2.30787e-07 0)
(42.7132 2.44614e-07 0)
(42.7182 2.58229e-07 0)
(42.7236 2.72743e-07 0)
(42.7294 2.86634e-07 0)
(42.7352 2.99852e-07 0)
(42.7412 3.12574e-07 0)
(42.7469 3.24138e-07 0)
(42.7522 3.33676e-07 0)
(42.7569 3.41794e-07 0)
(42.7607 3.47996e-07 0)
(42.7635 3.50732e-07 0)
(42.7649 3.51586e-07 0)
(42.7647 3.49962e-07 0)
(42.7627 3.44308e-07 0)
(42.7589 3.36063e-07 0)
(42.753 3.23606e-07 0)
(42.745 3.07973e-07 0)
(42.7349 2.89512e-07 0)
(42.7227 2.65779e-07 0)
(42.7086 2.39211e-07 0)
(42.6926 2.08711e-07 0)
(42.675 1.75597e-07 0)
(42.6562 1.41268e-07 0)
(42.6365 1.00795e-07 0)
(42.6164 5.14721e-08 0)
(42.5963 -2.12439e-08 0)
(42.5762 6.57159e-08 0)
(42.5563 -7.09008e-09 0)
(42.5378 -1.44967e-07 0)
(42.5209 -1.602e-07 0)
(42.5056 -1.85695e-07 0)
(42.492 -2.11756e-07 0)
(42.4804 -2.37417e-07 0)
(42.4709 -2.60599e-07 0)
(42.4635 -2.79353e-07 0)
(42.4581 -2.93045e-07 0)
(42.4548 -3.00859e-07 0)
(42.4533 -3.03846e-07 0)
(42.4535 -3.01389e-07 0)
(42.4551 -2.91893e-07 0)
(42.4578 -2.78134e-07 0)
(42.4613 -2.60027e-07 0)
(42.4654 -2.38005e-07 0)
(42.4699 -2.12735e-07 0)
(42.4744 -1.84959e-07 0)
(42.4788 -1.55584e-07 0)
(42.4829 -1.26416e-07 0)
(42.4866 -9.6642e-08 0)
(42.4898 -6.80156e-08 0)
(42.4925 -4.12967e-08 0)
(42.4945 -1.64523e-08 0)
(42.496 6.07117e-09 0)
(42.497 2.84055e-08 0)
(42.4974 4.83821e-08 0)
(42.4974 6.58937e-08 0)
(42.4971 7.99995e-08 0)
(42.4964 9.2233e-08 0)
(42.4956 1.0213e-07 0)
(42.4945 1.09676e-07 0)
(42.4934 1.15241e-07 0)
(42.4923 1.15269e-07 0)
(42.4911 1.23661e-07 0)
(42.49 1.27012e-07 0)
(42.4888 1.27064e-07 0)
(42.4877 1.27607e-07 0)
(42.4867 1.27662e-07 0)
(42.4858 1.27486e-07 0)
(42.485 1.27233e-07 0)
(42.4842 1.2687e-07 0)
(42.4835 1.26502e-07 0)
(42.4828 1.26275e-07 0)
(42.4821 1.26271e-07 0)
(42.4815 1.26373e-07 0)
(42.4808 1.26774e-07 0)
(42.4802 1.27578e-07 0)
(42.4794 1.287e-07 0)
(42.4785 1.30262e-07 0)
(42.4775 1.32318e-07 0)
(42.4764 1.3493e-07 0)
(42.4749 1.38151e-07 0)
(42.4732 1.42013e-07 0)
(42.4712 1.46683e-07 0)
(42.4687 1.52094e-07 0)
(42.4658 1.58344e-07 0)
(42.4623 1.65457e-07 0)
(42.4582 1.73439e-07 0)
(42.4533 1.82257e-07 0)
(42.4477 1.91837e-07 0)
(42.4412 2.02144e-07 0)
(42.4338 2.12968e-07 0)
(42.4254 2.24102e-07 0)
(42.416 2.35323e-07 0)
(42.4056 2.46293e-07 0)
(42.3941 2.56648e-07 0)
(42.3817 2.65977e-07 0)
(42.3683 2.73844e-07 0)
(42.3541 2.79791e-07 0)
(42.3392 2.83313e-07 0)
(42.3237 2.83977e-07 0)
(42.308 2.81384e-07 0)
(42.2922 2.75198e-07 0)
(42.2766 2.65141e-07 0)
(42.2614 2.51115e-07 0)
(42.247 2.33108e-07 0)
(42.2337 2.11249e-07 0)
(42.2217 1.85849e-07 0)
(42.2113 1.57363e-07 0)
(42.2027 1.26347e-07 0)
(42.1962 9.35591e-08 0)
(42.1918 5.98328e-08 0)
(42.1898 2.75912e-08 0)
(42.1899 9.32564e-09 0)
(42.192 -3.69478e-08 0)
(42.1963 -7.14536e-08 0)
(42.2026 -9.84723e-08 0)
(42.2108 -1.21774e-07 0)
(42.2207 -1.41443e-07 0)
(42.2318 -1.55115e-07 0)
(42.2439 -1.63528e-07 0)
(42.2567 -1.66964e-07 0)
(42.2699 -1.65731e-07 0)
(42.283 -1.59335e-07 0)
(42.2959 -1.48846e-07 0)
(42.3082 -1.35772e-07 0)
(42.3199 -1.19788e-07 0)
(42.3306 -1.00131e-07 0)
(42.3402 -8.3298e-08 0)
(42.3488 -5.74527e-08 0)
(42.3562 -3.29533e-08 0)
(42.3625 4.51806e-08 0)
(42.3676 3.38832e-07 0)
(42.3717 1.77355e-06 0)
(42.3748 8.80005e-06 0)
(42.3768 4.3878e-05 0)
(42.377 0.000218516 0)
(42.3709 0.00108253 0)
(42.3377 0.00532391 0)
(42.1778 0.0253144 0)
(41.7239 0.124245 0)
(37.496 0.415819 0)
(42.7002 0.000352234 0)
(42.7005 0.000251824 0)
(42.7009 0.000234941 0)
(42.7012 0.00023536 0)
(42.7014 0.000233954 0)
(42.7017 0.000232742 0)
(42.7019 0.000232165 0)
(42.7022 0.000231526 0)
(42.7024 0.000230588 0)
(42.7027 0.000228862 0)
(42.703 0.000225796 0)
(42.7032 0.000220795 0)
(42.7035 0.000213223 0)
(42.7037 0.000202657 0)
(42.7039 0.000188925 0)
(42.7041 0.000172221 0)
(42.7042 0.000153123 0)
(42.7044 0.000132514 0)
(42.7045 0.000111458 0)
(42.7045 9.10076e-05 0)
(42.7046 7.20972e-05 0)
(42.7046 5.54073e-05 0)
(42.7045 4.12975e-05 0)
(42.7045 2.98644e-05 0)
(42.7044 2.09616e-05 0)
(42.7043 1.42949e-05 0)
(42.7041 9.4681e-06 0)
(42.704 6.11326e-06 0)
(42.7038 3.85629e-06 0)
(42.7036 2.37928e-06 0)
(42.7033 1.44806e-06 0)
(42.7031 8.77821e-07 0)
(42.7027 5.38967e-07 0)
(42.7024 3.4285e-07 0)
(42.702 2.31981e-07 0)
(42.7016 1.70809e-07 0)
(42.7011 1.37683e-07 0)
(42.7005 1.20152e-07 0)
(42.6999 1.11043e-07 0)
(42.6993 1.06344e-07 0)
(42.6986 1.03909e-07 0)
(42.6978 1.02859e-07 0)
(42.697 1.0234e-07 0)
(42.6962 1.02353e-07 0)
(42.6954 1.03002e-07 0)
(42.6946 1.03621e-07 0)
(42.6939 1.05237e-07 0)
(42.6932 1.07035e-07 0)
(42.6927 1.09527e-07 0)
(42.6923 1.12688e-07 0)
(42.692 1.18653e-07 0)
(42.6921 1.26501e-07 0)
(42.6925 1.30599e-07 0)
(42.6933 1.37486e-07 0)
(42.6946 1.46251e-07 0)
(42.6963 1.55698e-07 0)
(42.6986 1.66234e-07 0)
(42.7014 1.78174e-07 0)
(42.7048 1.90281e-07 0)
(42.7087 2.03742e-07 0)
(42.7132 2.17651e-07 0)
(42.7182 2.31486e-07 0)
(42.7236 2.46089e-07 0)
(42.7294 2.59993e-07 0)
(42.7352 2.73441e-07 0)
(42.7412 2.86329e-07 0)
(42.7469 2.97893e-07 0)
(42.7522 3.07511e-07 0)
(42.7569 3.15835e-07 0)
(42.7607 3.22243e-07 0)
(42.7635 3.25227e-07 0)
(42.7649 3.26544e-07 0)
(42.7647 3.25172e-07 0)
(42.7627 3.20201e-07 0)
(42.7589 3.12492e-07 0)
(42.753 3.00289e-07 0)
(42.745 2.85255e-07 0)
(42.7349 2.6724e-07 0)
(42.7227 2.44454e-07 0)
(42.7086 2.18762e-07 0)
(42.6926 1.89382e-07 0)
(42.675 1.54616e-07 0)
(42.6562 1.18322e-07 0)
(42.6365 7.69254e-08 0)
(42.6164 2.71889e-08 0)
(42.5963 -3.70986e-08 0)
(42.5762 4.13021e-08 0)
(42.5563 -3.33037e-08 0)
(42.5378 -1.6448e-07 0)
(42.5209 -1.80581e-07 0)
(42.5056 -2.05085e-07 0)
(42.492 -2.30772e-07 0)
(42.4804 -2.56074e-07 0)
(42.4709 -2.78902e-07 0)
(42.4635 -2.97354e-07 0)
(42.4581 -3.10833e-07 0)
(42.4548 -3.18671e-07 0)
(42.4533 -3.21323e-07 0)
(42.4535 -3.18854e-07 0)
(42.4551 -3.09543e-07 0)
(42.4578 -2.95832e-07 0)
(42.4613 -2.77801e-07 0)
(42.4654 -2.5589e-07 0)
(42.4699 -2.30731e-07 0)
(42.4744 -2.02975e-07 0)
(42.4788 -1.73654e-07 0)
(42.4829 -1.44222e-07 0)
(42.4866 -1.13999e-07 0)
(42.4898 -8.45668e-08 0)
(42.4925 -5.64811e-08 0)
(42.4945 -2.92197e-08 0)
(42.496 1.07323e-10 0)
(42.497 2.1069e-08 0)
(42.4974 3.99898e-08 0)
(42.4974 5.64448e-08 0)
(42.4971 6.9858e-08 0)
(42.4964 8.15011e-08 0)
(42.4956 9.09031e-08 0)
(42.4945 9.80498e-08 0)
(42.4934 1.03326e-07 0)
(42.4923 1.03442e-07 0)
(42.4911 1.11341e-07 0)
(42.49 1.14505e-07 0)
(42.4888 1.14455e-07 0)
(42.4877 1.14857e-07 0)
(42.4867 1.14785e-07 0)
(42.4858 1.14482e-07 0)
(42.485 1.14079e-07 0)
(42.4842 1.13537e-07 0)
(42.4835 1.12975e-07 0)
(42.4828 1.12549e-07 0)
(42.4821 1.12325e-07 0)
(42.4815 1.1217e-07 0)
(42.4808 1.12292e-07 0)
(42.4802 1.12848e-07 0)
(42.4794 1.13706e-07 0)
(42.4785 1.14975e-07 0)
(42.4775 1.16691e-07 0)
(42.4764 1.18964e-07 0)
(42.4749 1.21824e-07 0)
(42.4732 1.25314e-07 0)
(42.4712 1.29574e-07 0)
(42.4687 1.34553e-07 0)
(42.4658 1.40336e-07 0)
(42.4623 1.46946e-07 0)
(42.4582 1.54394e-07 0)
(42.4533 1.62643e-07 0)
(42.4477 1.71616e-07 0)
(42.4412 1.8128e-07 0)
(42.4338 1.91437e-07 0)
(42.4254 2.01881e-07 0)
(42.416 2.12374e-07 0)
(42.4056 2.22605e-07 0)
(42.3941 2.32239e-07 0)
(42.3817 2.40865e-07 0)
(42.3683 2.48059e-07 0)
(42.3541 2.53361e-07 0)
(42.3392 2.56319e-07 0)
(42.3237 2.56474e-07 0)
(42.308 2.53471e-07 0)
(42.2922 2.4695e-07 0)
(42.2766 2.36671e-07 0)
(42.2614 2.22503e-07 0)
(42.247 2.04462e-07 0)
(42.2337 1.82636e-07 0)
(42.2217 1.5731e-07 0)
(42.2113 1.28887e-07 0)
(42.2027 9.78869e-08 0)
(42.1962 6.49577e-08 0)
(42.1918 3.0762e-08 0)
(42.1898 -2.86324e-09 0)
(42.1899 -2.17433e-08 0)
(42.192 -6.47641e-08 0)
(42.1963 -9.79272e-08 0)
(42.2026 -1.23591e-07 0)
(42.2108 -1.45653e-07 0)
(42.2207 -1.64282e-07 0)
(42.2318 -1.77235e-07 0)
(42.2439 -1.84992e-07 0)
(42.2567 -1.87855e-07 0)
(42.2699 -1.86306e-07 0)
(42.283 -1.7968e-07 0)
(42.2959 -1.68914e-07 0)
(42.3082 -1.55582e-07 0)
(42.3199 -1.39483e-07 0)
(42.3306 -1.19157e-07 0)
(42.3402 -1.02099e-07 0)
(42.3488 -7.33301e-08 0)
(42.3562 -4.59146e-08 0)
(42.3625 6.65589e-08 0)
(42.3676 4.59068e-07 0)
(42.3717 2.4239e-06 0)
(42.3748 1.20968e-05 0)
(42.3768 6.04232e-05 0)
(42.377 0.000301157 0)
(42.371 0.00149231 0)
(42.3381 0.00734496 0)
(42.18 0.0349047 0)
(41.731 0.170908 0)
(37.6133 0.56543 0)
(42.7002 0.000330766 0)
(42.7005 0.000244741 0)
(42.7009 0.000231238 0)
(42.7012 0.000236701 0)
(42.7014 0.000238536 0)
(42.7016 0.00023921 0)
(42.7019 0.00023982 0)
(42.7022 0.000239919 0)
(42.7024 0.000239394 0)
(42.7027 0.000237852 0)
(42.7029 0.000234792 0)
(42.7032 0.00022964 0)
(42.7034 0.000221782 0)
(42.7037 0.000210797 0)
(42.7039 0.000196522 0)
(42.7041 0.000179168 0)
(42.7042 0.000159332 0)
(42.7044 0.000137929 0)
(42.7045 0.000116058 0)
(42.7045 9.48105e-05 0)
(42.7046 7.51528e-05 0)
(42.7046 5.77919e-05 0)
(42.7045 4.31049e-05 0)
(42.7045 3.11947e-05 0)
(42.7044 2.19131e-05 0)
(42.7043 1.49564e-05 0)
(42.7041 9.91642e-06 0)
(42.704 6.40906e-06 0)
(42.7038 4.04673e-06 0)
(42.7036 2.4997e-06 0)
(42.7033 1.52296e-06 0)
(42.7031 9.24222e-07 0)
(42.7027 5.68246e-07 0)
(42.7024 3.62482e-07 0)
(42.702 2.46558e-07 0)
(42.7016 1.82893e-07 0)
(42.7011 1.48593e-07 0)
(42.7005 1.30473e-07 0)
(42.6999 1.21031e-07 0)
(42.6993 1.16112e-07 0)
(42.6986 1.13462e-07 0)
(42.6978 1.12218e-07 0)
(42.697 1.11483e-07 0)
(42.6962 1.11251e-07 0)
(42.6954 1.11629e-07 0)
(42.6946 1.11957e-07 0)
(42.6939 1.13217e-07 0)
(42.6932 1.14652e-07 0)
(42.6927 1.16731e-07 0)
(42.6923 1.19445e-07 0)
(42.692 1.2485e-07 0)
(42.6921 1.31942e-07 0)
(42.6925 1.35602e-07 0)
(42.6933 1.4184e-07 0)
(42.6946 1.49892e-07 0)
(42.6963 1.5864e-07 0)
(42.6986 1.6836e-07 0)
(42.7014 1.795e-07 0)
(42.7048 1.90793e-07 0)
(42.7087 2.03369e-07 0)
(42.7132 2.16479e-07 0)
(42.7182 2.29415e-07 0)
(42.7236 2.43156e-07 0)
(42.7294 2.56358e-07 0)
(42.7352 2.68923e-07 0)
(42.7412 2.81041e-07 0)
(42.7469 2.9209e-07 0)
(42.7522 3.01265e-07 0)
(42.7569 3.09127e-07 0)
(42.7607 3.15185e-07 0)
(42.7635 3.18097e-07 0)
(42.7649 3.19221e-07 0)
(42.7647 3.17962e-07 0)
(42.7627 3.1304e-07 0)
(42.7589 3.05609e-07 0)
(42.753 2.94318e-07 0)
(42.745 2.80099e-07 0)
(42.7349 2.63095e-07 0)
(42.7227 2.4128e-07 0)
(42.7086 2.16715e-07 0)
(42.6926 1.88498e-07 0)
(42.675 1.57085e-07 0)
(42.6562 1.24507e-07 0)
(42.6365 8.63577e-08 0)
(42.6164 3.94271e-08 0)
(42.5963 -2.23348e-08 0)
(42.5762 5.06835e-08 0)
(42.5563 -1.39644e-08 0)
(42.5378 -1.37628e-07 0)
(42.5209 -1.54584e-07 0)
(42.5056 -1.77538e-07 0)
(42.492 -2.01699e-07 0)
(42.4804 -2.25371e-07 0)
(42.4709 -2.46664e-07 0)
(42.4635 -2.63825e-07 0)
(42.4581 -2.76253e-07 0)
(42.4548 -2.83239e-07 0)
(42.4533 -2.85535e-07 0)
(42.4535 -2.82917e-07 0)
(42.4551 -2.73736e-07 0)
(42.4578 -2.60664e-07 0)
(42.4613 -2.4355e-07 0)
(42.4654 -2.22739e-07 0)
(42.4699 -1.98859e-07 0)
(42.4744 -1.72583e-07 0)
(42.4788 -1.44781e-07 0)
(42.4829 -1.17045e-07 0)
(42.4866 -8.8616e-08 0)
(42.4898 -6.1106e-08 0)
(42.4925 -3.51168e-08 0)
(42.4945 -1.05942e-08 0)
(42.496 1.01105e-08 0)
(42.497 3.04722e-08 0)
(42.4974 4.85141e-08 0)
(42.4974 6.43667e-08 0)
(42.4971 7.7142e-08 0)
(42.4964 8.81406e-08 0)
(42.4956 9.70297e-08 0)
(42.4945 1.03757e-07 0)
(42.4934 1.08638e-07 0)
(42.4923 1.08674e-07 0)
(42.4911 1.15919e-07 0)
(42.49 1.18927e-07 0)
(42.4888 1.18863e-07 0)
(42.4877 1.19151e-07 0)
(42.4867 1.18961e-07 0)
(42.4858 1.18579e-07 0)
(42.485 1.18153e-07 0)
(42.4842 1.17605e-07 0)
(42.4835 1.17012e-07 0)
(42.4828 1.16511e-07 0)
(42.4821 1.16269e-07 0)
(42.4815 1.16112e-07 0)
(42.4808 1.16225e-07 0)
(42.4802 1.16704e-07 0)
(42.4794 1.17481e-07 0)
(42.4785 1.18669e-07 0)
(42.4775 1.20316e-07 0)
(42.4764 1.22484e-07 0)
(42.4749 1.25189e-07 0)
(42.4732 1.28495e-07 0)
(42.4712 1.32565e-07 0)
(42.4687 1.37331e-07 0)
(42.4658 1.42843e-07 0)
(42.4623 1.49149e-07 0)
(42.4582 1.5625e-07 0)
(42.4533 1.64135e-07 0)
(42.4477 1.72709e-07 0)
(42.4412 1.81929e-07 0)
(42.4338 1.91618e-07 0)
(42.4254 2.01597e-07 0)
(42.416 2.11633e-07 0)
(42.4056 2.21423e-07 0)
(42.3941 2.3064e-07 0)
(42.3817 2.38898e-07 0)
(42.3683 2.45799e-07 0)
(42.3541 2.50921e-07 0)
(42.3392 2.53808e-07 0)
(42.3237 2.5404e-07 0)
(42.308 2.51279e-07 0)
(42.2922 2.45191e-07 0)
(42.2766 2.35531e-07 0)
(42.2614 2.22201e-07 0)
(42.247 2.05199e-07 0)
(42.2337 1.84632e-07 0)
(42.2217 1.60785e-07 0)
(42.2113 1.34041e-07 0)
(42.2027 1.04917e-07 0)
(42.1962 7.40844e-08 0)
(42.1918 4.23335e-08 0)
(42.1898 1.21389e-08 0)
(42.1899 -1.37179e-09 0)
(42.192 -4.14071e-08 0)
(42.1963 -7.30956e-08 0)
(42.2026 -9.75533e-08 0)
(42.2108 -1.18599e-07 0)
(42.2207 -1.36206e-07 0)
(42.2318 -1.48495e-07 0)
(42.2439 -1.55961e-07 0)
(42.2567 -1.58686e-07 0)
(42.2699 -1.57175e-07 0)
(42.283 -1.50946e-07 0)
(42.2959 -1.4088e-07 0)
(42.3082 -1.281e-07 0)
(42.3199 -1.13222e-07 0)
(42.3306 -9.33733e-08 0)
(42.3402 -7.80757e-08 0)
(42.3488 -4.8088e-08 0)
(42.3562 -2.03239e-08 0)
(42.3625 1.16586e-07 0)
(42.3676 6.24414e-07 0)
(42.3717 3.19343e-06 0)
(42.3748 1.58732e-05 0)
(42.3768 7.92428e-05 0)
(42.377 0.000395026 0)
(42.3711 0.00195773 0)
(42.3388 0.00964254 0)
(42.1833 0.0457855 0)
(41.7418 0.223448 0)
(37.7523 0.728196 0)
(42.7002 0.000273655 0)
(42.7005 0.000211271 0)
(42.7008 0.000194244 0)
(42.7011 0.000196857 0)
(42.7014 0.000196081 0)
(42.7016 0.000193986 0)
(42.7019 0.000192222 0)
(42.7021 0.000190417 0)
(42.7024 0.000188414 0)
(42.7027 0.00018588 0)
(42.7029 0.0001824 0)
(42.7032 0.000177501 0)
(42.7034 0.000170705 0)
(42.7036 0.000161668 0)
(42.7039 0.000150257 0)