/*--------------------------------*- C++ -*----------------------------------*\
| =========                 |                                                 |
| \\      /  F ield         | OpenFOAM: The Open Source CFD Toolbox           |
|  \\    /   O peration     | Version:  3.0.x                                 |
|   \\  /    A nd           | Web:      www.OpenFOAM.org                      |
|    \\/     M anipulation  |                                                 |
\*---------------------------------------------------------------------------*/
FoamFile
{
    version     2.0;
    format      ascii;
    class       volScalarField;
    location    "0.59";
    object      rho;
}
// * * * * * * * * * * * * * * * * * * * * * * * * * * * * * * * * * * * * * //

dimensions      [1 -3 0 0 0 0 0];

internalField   nonuniform List<scalar> 
27600
(
54.7684
54.7714
54.7766
54.7819
54.7871
54.7922
54.7974
54.8025
54.8075
54.8124
54.8172
54.8219
54.8264
54.8307
54.8348
54.8387
54.8424
54.8458
54.8491
54.8521
54.8549
54.8574
54.8598
54.8618
54.8637
54.8654
54.8669
54.8682
54.8693
54.8701
54.8709
54.8714
54.8719
54.8723
54.8726
54.8728
54.8729
54.8729
54.8729
54.8728
54.8727
54.8726
54.8724
54.8723
54.8721
54.8718
54.8716
54.8713
54.871
54.8706
54.8703
54.8699
54.8695
54.8691
54.8686
54.8681
54.8676
54.8671
54.8665
54.866
54.8654
54.8647
54.8641
54.8634
54.8627
54.862
54.8613
54.8605
54.8597
54.8589
54.8581
54.8572
54.8563
54.8554
54.8545
54.8535
54.8526
54.8516
54.8505
54.8495
54.8484
54.8474
54.8462
54.8451
54.844
54.8428
54.8416
54.8404
54.8391
54.8379
54.8366
54.8353
54.834
54.8326
54.8313
54.8299
54.8285
54.827
54.8256
54.8241
54.8226
54.8211
54.8196
54.818
54.8164
54.8148
54.8131
54.8115
54.8098
54.8081
54.8064
54.8047
54.8031
54.8013
54.7996
54.7979
54.7961
54.7943
54.7925
54.7907
54.7889
54.787
54.7851
54.7831
54.7812
54.7792
54.7772
54.7752
54.7731
54.7711
54.7691
54.767
54.765
54.7629
54.7608
54.7587
54.7565
54.7544
54.7522
54.7501
54.7479
54.7457
54.7435
54.7413
54.7391
54.7369
54.7346
54.7324
54.7301
54.7278
54.7255
54.7232
54.7208
54.7184
54.716
54.7136
54.7112
54.7087
54.7063
54.7038
54.7013
54.6989
54.6964
54.6939
54.6915
54.689
54.6865
54.684
54.6815
54.6789
54.6764
54.6738
54.6712
54.6687
54.666
54.6634
54.6608
54.6582
54.6555
54.6529
54.6502
54.6475
54.6448
54.6421
54.6394
54.6367
54.634
54.6313
54.6285
54.6258
54.623
54.6203
54.6175
54.6147
54.6119
54.6091
54.6063
54.6035
54.6007
54.5979
54.595
54.5922
54.5893
54.5865
54.5836
54.5808
54.5779
54.575
54.5721
54.5693
54.5664
54.5635
54.5606
54.5576
54.5547
54.5518
54.5489
54.546
54.543
54.5401
54.5371
54.5342
54.5312
54.5283
54.5253
54.5224
54.5194
54.5164
54.5134
54.5105
54.5075
54.5045
54.5015
54.4985
54.4955
54.4925
54.4895
54.4865
54.4835
54.4805
54.4775
54.4745
54.4715
54.4684
54.4654
54.4624
54.4594
54.4564
54.4533
54.4503
54.4473
54.4442
54.4412
54.4382
54.4351
54.4321
54.4291
54.426
54.423
54.42
54.4169
54.4139
54.4109
54.4078
54.4048
54.4018
54.3987
54.3957
54.3927
54.3896
54.3866
54.3836
54.3805
54.3775
54.3745
54.3715
54.3684
54.3654
54.3624
54.3594
54.3564
54.3533
54.3503
54.3473
54.3443
54.3413
54.3383
54.3353
54.3323
54.3293
54.3263
54.3233
54.3204
54.3174
54.3144
54.3114
54.3085
54.3055
54.3025
54.2996
54.2966
54.2937
54.2907
54.2878
54.2849
54.2819
54.279
54.2761
54.2732
54.2703
54.2674
54.2645
54.2616
54.2587
54.2558
54.253
54.2501
54.2472
54.2444
54.2416
54.2387
54.2359
54.2331
54.2302
54.2274
54.2246
54.2218
54.2191
54.2163
54.2135
54.2108
54.208
54.2053
54.2025
54.1998
54.1971
54.1944
54.1917
54.189
54.1863
54.1836
54.181
54.1783
54.1757
54.173
54.1704
54.1678
54.1652
54.1626
54.16
54.1574
54.1549
54.1523
54.1498
54.1472
54.1447
54.1422
54.1397
54.1372
54.1347
54.1323
54.1298
54.1274
54.1249
54.1225
54.1201
54.1177
54.1153
54.113
54.1106
54.1083
54.1059
54.1036
54.1012
54.099
54.0966
54.0945
54.0921
54.09
54.0876
54.0855
54.0832
54.0811
54.0788
54.0767
54.0744
54.0724
54.0701
54.0682
54.0659
54.064
54.0617
54.0598
54.0576
54.0557
54.0535
54.0517
54.0495
54.0477
54.0455
54.769
54.7721
54.7773
54.7825
54.7877
54.7929
54.798
54.8031
54.8081
54.8131
54.8179
54.8225
54.827
54.8313
54.8354
54.8393
54.843
54.8465
54.8497
54.8527
54.8555
54.858
54.8604
54.8625
54.8643
54.866
54.8675
54.8688
54.8699
54.8708
54.8715
54.872
54.8725
54.8729
54.8732
54.8734
54.8735
54.8735
54.8735
54.8734
54.8733
54.8732
54.8731
54.8729
54.8727
54.8724
54.8722
54.8719
54.8716
54.8712
54.8709
54.8705
54.8701
54.8697
54.8692
54.8687
54.8682
54.8677
54.8671
54.8666
54.8659
54.8653
54.8647
54.864
54.8633
54.8626
54.8618
54.8611
54.8603
54.8595
54.8586
54.8578
54.8569
54.856
54.855
54.8541
54.8531
54.8521
54.8511
54.8501
54.849
54.8479
54.8468
54.8457
54.8445
54.8433
54.8421
54.8409
54.8397
54.8384
54.8371
54.8358
54.8345
54.8332
54.8318
54.8304
54.829
54.8276
54.8261
54.8247
54.8232
54.8216
54.8201
54.8185
54.8169
54.8153
54.8136
54.812
54.8103
54.8086
54.8069
54.8052
54.8035
54.8018
54.8001
54.7984
54.7966
54.7948
54.793
54.7912
54.7893
54.7875
54.7856
54.7836
54.7817
54.7797
54.7777
54.7757
54.7736
54.7716
54.7695
54.7675
54.7654
54.7633
54.7612
54.7591
54.757
54.7548
54.7527
54.7505
54.7483
54.7461
54.7439
54.7417
54.7395
54.7373
54.7351
54.7328
54.7305
54.7283
54.7259
54.7236
54.7213
54.7189
54.7165
54.7141
54.7116
54.7092
54.7067
54.7042
54.7018
54.6993
54.6968
54.6943
54.6919
54.6894
54.6869
54.6844
54.6818
54.6793
54.6768
54.6742
54.6716
54.669
54.6664
54.6638
54.6612
54.6586
54.6559
54.6532
54.6506
54.6479
54.6452
54.6425
54.6398
54.6371
54.6344
54.6316
54.6289
54.6261
54.6234
54.6206
54.6179
54.6151
54.6123
54.6095
54.6067
54.6039
54.6011
54.5982
54.5954
54.5926
54.5897
54.5869
54.584
54.5811
54.5783
54.5754
54.5725
54.5696
54.5667
54.5638
54.5609
54.558
54.5551
54.5522
54.5493
54.5463
54.5434
54.5405
54.5375
54.5346
54.5316
54.5287
54.5257
54.5227
54.5198
54.5168
54.5138
54.5108
54.5079
54.5049
54.5019
54.4989
54.4959
54.4929
54.4899
54.4869
54.4839
54.4809
54.4779
54.4748
54.4718
54.4688
54.4658
54.4628
54.4598
54.4567
54.4537
54.4507
54.4476
54.4446
54.4416
54.4386
54.4355
54.4325
54.4295
54.4264
54.4234
54.4203
54.4173
54.4143
54.4112
54.4082
54.4052
54.4021
54.3991
54.3961
54.393
54.39
54.387
54.3839
54.3809
54.3779
54.3748
54.3718
54.3688
54.3658
54.3628
54.3597
54.3567
54.3537
54.3507
54.3477
54.3447
54.3417
54.3387
54.3357
54.3327
54.3297
54.3267
54.3237
54.3207
54.3177
54.3148
54.3118
54.3088
54.3059
54.3029
54.2999
54.297
54.294
54.2911
54.2882
54.2852
54.2823
54.2794
54.2765
54.2736
54.2706
54.2677
54.2648
54.262
54.2591
54.2562
54.2533
54.2505
54.2476
54.2448
54.2419
54.2391
54.2362
54.2334
54.2306
54.2278
54.225
54.2222
54.2194
54.2166
54.2139
54.2111
54.2084
54.2056
54.2029
54.2001
54.1974
54.1947
54.192
54.1893
54.1866
54.184
54.1813
54.1787
54.176
54.1734
54.1707
54.1681
54.1655
54.1629
54.1603
54.1578
54.1552
54.1527
54.1501
54.1476
54.1451
54.1425
54.1401
54.1376
54.1351
54.1326
54.1302
54.1277
54.1253
54.1229
54.1205
54.1181
54.1157
54.1133
54.1109
54.1086
54.1062
54.104
54.1016
54.0994
54.097
54.0948
54.0924
54.0903
54.088
54.0859
54.0835
54.0814
54.0791
54.0771
54.0748
54.0728
54.0705
54.0685
54.0663
54.0643
54.0621
54.0601
54.0579
54.056
54.0539
54.052
54.0498
54.048
54.046
54.769
54.7721
54.7773
54.7825
54.7877
54.7929
54.798
54.8031
54.8081
54.8131
54.8179
54.8225
54.827
54.8313
54.8354
54.8393
54.843
54.8465
54.8497
54.8527
54.8555
54.858
54.8604
54.8624
54.8643
54.866
54.8675
54.8688
54.8699
54.8708
54.8715
54.872
54.8725
54.8729
54.8732
54.8734
54.8735
54.8735
54.8735
54.8734
54.8733
54.8732
54.873
54.8729
54.8727
54.8724
54.8722
54.8719
54.8716
54.8712
54.8709
54.8705
54.8701
54.8697
54.8692
54.8687
54.8682
54.8677
54.8671
54.8665
54.8659
54.8653
54.8647
54.864
54.8633
54.8626
54.8618
54.8611
54.8603
54.8595
54.8586
54.8578
54.8569
54.856
54.855
54.8541
54.8531
54.8521
54.8511
54.8501
54.849
54.8479
54.8468
54.8457
54.8445
54.8433
54.8421
54.8409
54.8397
54.8384
54.8371
54.8358
54.8345
54.8332
54.8318
54.8304
54.829
54.8276
54.8261
54.8247
54.8232
54.8216
54.8201
54.8185
54.8169
54.8153
54.8136
54.812
54.8103
54.8086
54.8069
54.8052
54.8035
54.8018
54.8001
54.7984
54.7966
54.7948
54.793
54.7912
54.7893
54.7875
54.7856
54.7836
54.7817
54.7797
54.7777
54.7757
54.7736
54.7716
54.7695
54.7675
54.7654
54.7633
54.7612
54.7591
54.757
54.7548
54.7527
54.7505
54.7483
54.7461
54.7439
54.7417
54.7395
54.7373
54.7351
54.7328
54.7305
54.7283
54.7259
54.7236
54.7213
54.7189
54.7165
54.7141
54.7116
54.7092
54.7067
54.7042
54.7018
54.6993
54.6968
54.6943
54.6919
54.6894
54.6869
54.6844
54.6819
54.6793
54.6768
54.6742
54.6716
54.669
54.6664
54.6638
54.6612
54.6586
54.6559
54.6533
54.6506
54.6479
54.6452
54.6425
54.6398
54.6371
54.6344
54.6316
54.6289
54.6261
54.6234
54.6206
54.6179
54.6151
54.6123
54.6095
54.6067
54.6039
54.6011
54.5982
54.5954
54.5926
54.5897
54.5869
54.584
54.5811
54.5783
54.5754
54.5725
54.5696
54.5667
54.5638
54.5609
54.558
54.5551
54.5522
54.5493
54.5463
54.5434
54.5405
54.5375
54.5346
54.5316
54.5287
54.5257
54.5227
54.5198
54.5168
54.5138
54.5108
54.5079
54.5049
54.5019
54.4989
54.4959
54.4929
54.4899
54.4869
54.4839
54.4809
54.4779
54.4748
54.4718
54.4688
54.4658
54.4628
54.4598
54.4567
54.4537
54.4507
54.4476
54.4446
54.4416
54.4386
54.4355
54.4325
54.4295
54.4264
54.4234
54.4203
54.4173
54.4143
54.4112
54.4082
54.4052
54.4021
54.3991
54.3961
54.393
54.39
54.387
54.3839
54.3809
54.3779
54.3749
54.3718
54.3688
54.3658
54.3628
54.3597
54.3567
54.3537
54.3507
54.3477
54.3447
54.3417
54.3387
54.3357
54.3327
54.3297
54.3267
54.3237
54.3207
54.3177
54.3148
54.3118
54.3088
54.3059
54.3029
54.2999
54.297
54.294
54.2911
54.2882
54.2852
54.2823
54.2794
54.2765
54.2736
54.2706
54.2677
54.2648
54.262
54.2591
54.2562
54.2533
54.2505
54.2476
54.2448
54.2419
54.2391
54.2362
54.2334
54.2306
54.2278
54.225
54.2222
54.2194
54.2166
54.2139
54.2111
54.2084
54.2056
54.2029
54.2001
54.1974
54.1947
54.192
54.1893
54.1866
54.184
54.1813
54.1787
54.176
54.1734
54.1707
54.1681
54.1655
54.1629
54.1603
54.1578
54.1552
54.1527
54.1501
54.1476
54.1451
54.1426
54.1401
54.1376
54.1351
54.1326
54.1302
54.1277
54.1253
54.1229
54.1205
54.1181
54.1157
54.1133
54.1109
54.1086
54.1062
54.104
54.1016
54.0994
54.097
54.0948
54.0924
54.0903
54.088
54.0859
54.0835
54.0814
54.0791
54.0771
54.0748
54.0728
54.0705
54.0685
54.0663
54.0643
54.0621
54.0601
54.0579
54.056
54.0539
54.052
54.0499
54.048
54.046
54.769
54.7721
54.7773
54.7825
54.7877
54.7928
54.798
54.8031
54.8081
54.813
54.8178
54.8225
54.827
54.8313
54.8354
54.8393
54.843
54.8464
54.8497
54.8527
54.8555
54.858
54.8603
54.8624
54.8643
54.866
54.8675
54.8688
54.8699
54.8707
54.8715
54.872
54.8725
54.8729
54.8732
54.8734
54.8735
54.8735
54.8735
54.8734
54.8733
54.8732
54.873
54.8729
54.8726
54.8724
54.8722
54.8719
54.8716
54.8712
54.8709
54.8705
54.8701
54.8696
54.8692
54.8687
54.8682
54.8677
54.8671
54.8665
54.8659
54.8653
54.8647
54.864
54.8633
54.8626
54.8618
54.8611
54.8603
54.8595
54.8586
54.8578
54.8569
54.856
54.855
54.8541
54.8531
54.8521
54.8511
54.85
54.849
54.8479
54.8468
54.8457
54.8445
54.8433
54.8421
54.8409
54.8397
54.8384
54.8371
54.8358
54.8345
54.8331
54.8318
54.8304
54.829
54.8276
54.8261
54.8246
54.8232
54.8216
54.8201
54.8185
54.8169
54.8153
54.8136
54.812
54.8103
54.8086
54.8069
54.8052
54.8035
54.8018
54.8001
54.7983
54.7966
54.7948
54.793
54.7912
54.7893
54.7875
54.7855
54.7836
54.7816
54.7797
54.7777
54.7756
54.7736
54.7716
54.7695
54.7675
54.7654
54.7633
54.7612
54.7591
54.757
54.7548
54.7527
54.7505
54.7483
54.7461
54.7439
54.7417
54.7395
54.7373
54.7351
54.7328
54.7305
54.7283
54.7259
54.7236
54.7213
54.7189
54.7165
54.7141
54.7116
54.7092
54.7067
54.7042
54.7018
54.6993
54.6968
54.6943
54.6919
54.6894
54.6869
54.6844
54.6818
54.6793
54.6768
54.6742
54.6716
54.669
54.6664
54.6638
54.6612
54.6586
54.6559
54.6533
54.6506
54.6479
54.6452
54.6425
54.6398
54.6371
54.6344
54.6316
54.6289
54.6261
54.6234
54.6206
54.6179
54.6151
54.6123
54.6095
54.6067
54.6039
54.6011
54.5982
54.5954
54.5926
54.5897
54.5869
54.584
54.5811
54.5783
54.5754
54.5725
54.5696
54.5667
54.5638
54.5609
54.558
54.5551
54.5522
54.5493
54.5463
54.5434
54.5405
54.5375
54.5346
54.5316
54.5287
54.5257
54.5227
54.5198
54.5168
54.5138
54.5108
54.5079
54.5049
54.5019
54.4989
54.4959
54.4929
54.4899
54.4869
54.4839
54.4809
54.4779
54.4748
54.4718
54.4688
54.4658
54.4628
54.4598
54.4567
54.4537
54.4507
54.4476
54.4446
54.4416
54.4386
54.4355
54.4325
54.4295
54.4264
54.4234
54.4203
54.4173
54.4143
54.4112
54.4082
54.4052
54.4021
54.3991
54.3961
54.393
54.39
54.387
54.3839
54.3809
54.3779
54.3749
54.3718
54.3688
54.3658
54.3628
54.3597
54.3567
54.3537
54.3507
54.3477
54.3447
54.3417
54.3387
54.3357
54.3327
54.3297
54.3267
54.3237
54.3207
54.3177
54.3148
54.3118
54.3088
54.3059
54.3029
54.2999
54.297
54.294
54.2911
54.2882
54.2852
54.2823
54.2794
54.2765
54.2736
54.2706
54.2677
54.2648
54.262
54.2591
54.2562
54.2533
54.2505
54.2476
54.2448
54.2419
54.2391
54.2362
54.2334
54.2306
54.2278
54.225
54.2222
54.2194
54.2166
54.2139
54.2111
54.2084
54.2056
54.2029
54.2001
54.1974
54.1947
54.192
54.1893
54.1866
54.184
54.1813
54.1787
54.176
54.1734
54.1707
54.1681
54.1655
54.1629
54.1603
54.1578
54.1552
54.1527
54.1501
54.1476
54.1451
54.1426
54.1401
54.1376
54.1351
54.1326
54.1302
54.1277
54.1253
54.1229
54.1205
54.1181
54.1157
54.1133
54.1109
54.1086
54.1062
54.104
54.1016
54.0994
54.097
54.0948
54.0924
54.0903
54.088
54.0859
54.0835
54.0814
54.0791
54.0771
54.0748
54.0728
54.0705
54.0685
54.0663
54.0643
54.0621
54.0601
54.0579
54.056
54.0539
54.052
54.0499
54.048
54.046
54.769
54.772
54.7773
54.7825
54.7877
54.7928
54.798
54.8031
54.8081
54.813
54.8178
54.8225
54.827
54.8313
54.8354
54.8393
54.843
54.8464
54.8497
54.8527
54.8554
54.858
54.8603
54.8624
54.8643
54.866
54.8675
54.8688
54.8699
54.8707
54.8714
54.872
54.8725
54.8729
54.8732
54.8734
54.8735
54.8735
54.8735
54.8734
54.8733
54.8732
54.873
54.8728
54.8726
54.8724
54.8721
54.8719
54.8715
54.8712
54.8709
54.8705
54.8701
54.8696
54.8692
54.8687
54.8682
54.8677
54.8671
54.8665
54.8659
54.8653
54.8647
54.864
54.8633
54.8626
54.8618
54.8611
54.8603
54.8594
54.8586
54.8577
54.8569
54.856
54.855
54.8541
54.8531
54.8521
54.8511
54.85
54.849
54.8479
54.8468
54.8456
54.8445
54.8433
54.8421
54.8409
54.8397
54.8384
54.8371
54.8358
54.8345
54.8331
54.8318
54.8304
54.829
54.8276
54.8261
54.8246
54.8231
54.8216
54.8201
54.8185
54.8169
54.8153
54.8136
54.812
54.8103
54.8086
54.8069
54.8052
54.8035
54.8018
54.8001
54.7983
54.7966
54.7948
54.793
54.7912
54.7893
54.7874
54.7855
54.7836
54.7816
54.7797
54.7777
54.7756
54.7736
54.7716
54.7695
54.7675
54.7654
54.7633
54.7612
54.7591
54.757
54.7548
54.7527
54.7505
54.7483
54.7461
54.7439
54.7417
54.7395
54.7373
54.7351
54.7328
54.7305
54.7282
54.7259
54.7236
54.7213
54.7189
54.7165
54.7141
54.7116
54.7092
54.7067
54.7042
54.7018
54.6993
54.6968
54.6943
54.6919
54.6894
54.6869
54.6844
54.6818
54.6793
54.6768
54.6742
54.6716
54.669
54.6664
54.6638
54.6612
54.6586
54.6559
54.6533
54.6506
54.6479
54.6452
54.6425
54.6398
54.6371
54.6344
54.6316
54.6289
54.6261
54.6234
54.6206
54.6179
54.6151
54.6123
54.6095
54.6067
54.6039
54.6011
54.5982
54.5954
54.5926
54.5897
54.5869
54.584
54.5811
54.5783
54.5754
54.5725
54.5696
54.5667
54.5638
54.5609
54.558
54.5551
54.5522
54.5493
54.5463
54.5434
54.5405
54.5375
54.5346
54.5316
54.5287
54.5257
54.5227
54.5198
54.5168
54.5138
54.5108
54.5079
54.5049
54.5019
54.4989
54.4959
54.4929
54.4899
54.4869
54.4839
54.4809
54.4779
54.4748
54.4718
54.4688
54.4658
54.4628
54.4598
54.4567
54.4537
54.4507
54.4476
54.4446
54.4416
54.4386
54.4355
54.4325
54.4295
54.4264
54.4234
54.4203
54.4173
54.4143
54.4112
54.4082
54.4052
54.4021
54.3991
54.3961
54.393
54.39
54.387
54.3839
54.3809
54.3779
54.3749
54.3718
54.3688
54.3658
54.3628
54.3597
54.3567
54.3537
54.3507
54.3477
54.3447
54.3417
54.3387
54.3357
54.3327
54.3297
54.3267
54.3237
54.3207
54.3177
54.3148
54.3118
54.3088
54.3059
54.3029
54.2999
54.297
54.294
54.2911
54.2882
54.2852
54.2823
54.2794
54.2765
54.2736
54.2706
54.2677
54.2648
54.262
54.2591
54.2562
54.2533
54.2505
54.2476
54.2448
54.2419
54.2391
54.2362
54.2334
54.2306
54.2278
54.225
54.2222
54.2194
54.2166
54.2139
54.2111
54.2084
54.2056
54.2029
54.2001
54.1974
54.1947
54.192
54.1893
54.1866
54.184
54.1813
54.1787
54.176
54.1734
54.1707
54.1681
54.1655
54.1629
54.1603
54.1578
54.1552
54.1527
54.1501
54.1476
54.1451
54.1426
54.1401
54.1376
54.1351
54.1326
54.1302
54.1277
54.1253
54.1229
54.1205
54.1181
54.1157
54.1133
54.1109
54.1086
54.1062
54.104
54.1016
54.0994
54.097
54.0948
54.0924
54.0903
54.0879
54.0859
54.0835
54.0814
54.0791
54.0771
54.0748
54.0728
54.0705
54.0685
54.0663
54.0643
54.0621
54.0601
54.0579
54.056
54.0539
54.052
54.0498
54.048
54.0459
54.769
54.772
54.7773
54.7825
54.7877
54.7928
54.798
54.8031
54.8081
54.813
54.8178
54.8225
54.827
54.8313
54.8354
54.8393
54.843
54.8464
54.8497
54.8527
54.8554
54.858
54.8603
54.8624
54.8643
54.866
54.8675
54.8688
54.8699
54.8707
54.8714
54.872
54.8725
54.8729
54.8732
54.8734
54.8735
54.8735
54.8735
54.8734
54.8733
54.8732
54.873
54.8728
54.8726
54.8724
54.8721
54.8719
54.8715
54.8712
54.8709
54.8705
54.8701
54.8696
54.8692
54.8687
54.8682
54.8677
54.8671
54.8665
54.8659
54.8653
54.8647
54.864
54.8633
54.8626
54.8618
54.8611
54.8603
54.8594
54.8586
54.8577
54.8569
54.856
54.855
54.8541
54.8531
54.8521
54.8511
54.85
54.849
54.8479
54.8468
54.8456
54.8445
54.8433
54.8421
54.8409
54.8397
54.8384
54.8371
54.8358
54.8345
54.8331
54.8318
54.8304
54.829
54.8276
54.8261
54.8246
54.8231
54.8216
54.8201
54.8185
54.8169
54.8153
54.8136
54.812
54.8103
54.8086
54.8069
54.8052
54.8035
54.8018
54.8001
54.7983
54.7966
54.7948
54.793
54.7912
54.7893
54.7874
54.7855
54.7836
54.7816
54.7797
54.7777
54.7756
54.7736
54.7716
54.7695
54.7675
54.7654
54.7633
54.7612
54.7591
54.757
54.7548
54.7527
54.7505
54.7483
54.7461
54.7439
54.7417
54.7395
54.7373
54.7351
54.7328
54.7305
54.7282
54.7259
54.7236
54.7213
54.7189
54.7165
54.7141
54.7116
54.7092
54.7067
54.7042
54.7018
54.6993
54.6968
54.6943
54.6919
54.6894
54.6869
54.6844
54.6818
54.6793
54.6768
54.6742
54.6716
54.669
54.6664
54.6638
54.6612
54.6586
54.6559
54.6533
54.6506
54.6479
54.6452
54.6425
54.6398
54.6371
54.6344
54.6316
54.6289
54.6261
54.6234
54.6206
54.6179
54.6151
54.6123
54.6095
54.6067
54.6039
54.6011
54.5982
54.5954
54.5926
54.5897
54.5869
54.584
54.5811
54.5783
54.5754
54.5725
54.5696
54.5667
54.5638
54.5609
54.558
54.5551
54.5522
54.5493
54.5463
54.5434
54.5405
54.5375
54.5346
54.5316
54.5287
54.5257
54.5227
54.5198
54.5168
54.5138
54.5108
54.5079
54.5049
54.5019
54.4989
54.4959
54.4929
54.4899
54.4869
54.4839
54.4809
54.4779
54.4748
54.4718
54.4688
54.4658
54.4628
54.4598
54.4567
54.4537
54.4507
54.4476
54.4446
54.4416
54.4386
54.4355
54.4325
54.4295
54.4264
54.4234
54.4203
54.4173
54.4143
54.4112
54.4082
54.4052
54.4021
54.3991
54.3961
54.393
54.39
54.387
54.3839
54.3809
54.3779
54.3749
54.3718
54.3688
54.3658
54.3628
54.3597
54.3567
54.3537
54.3507
54.3477
54.3447
54.3417
54.3387
54.3357
54.3327
54.3297
54.3267
54.3237
54.3207
54.3177
54.3148
54.3118
54.3088
54.3059
54.3029
54.2999
54.297
54.294
54.2911
54.2882
54.2852
54.2823
54.2794
54.2765
54.2736
54.2706
54.2677
54.2648
54.262
54.2591
54.2562
54.2533
54.2505
54.2476
54.2448
54.2419
54.2391
54.2362
54.2334
54.2306
54.2278
54.225
54.2222
54.2194
54.2166
54.2139
54.2111
54.2084
54.2056
54.2029
54.2001
54.1974
54.1947
54.192
54.1893
54.1866
54.184
54.1813
54.1787
54.176
54.1734
54.1707
54.1681
54.1655
54.1629
54.1603
54.1578
54.1552
54.1527
54.1501
54.1476
54.1451
54.1425
54.1401
54.1376
54.1351
54.1326
54.1302
54.1277
54.1253
54.1229
54.1205
54.1181
54.1157
54.1133
54.111
54.1086
54.1063
54.104
54.1016
54.0994
54.097
54.0948
54.0925
54.0903
54.088
54.0858
54.0836
54.0813
54.0792
54.077
54.0748
54.0727
54.0705
54.0685
54.0664
54.0642
54.0622
54.06
54.0581
54.0559
54.054
54.0518
54.05
54.0478
54.0459
54.769
54.7721
54.7773
54.7825
54.7877
54.7928
54.798
54.8031
54.8081
54.813
54.8178
54.8225
54.827
54.8313
54.8354
54.8393
54.843
54.8464
54.8497
54.8527
54.8555
54.858
54.8603
54.8624
54.8643
54.866
54.8675
54.8688
54.8699
54.8707
54.8715
54.872
54.8725
54.8729
54.8732
54.8734
54.8735
54.8735
54.8735
54.8734
54.8733
54.8732
54.873
54.8729
54.8726
54.8724
54.8722
54.8719
54.8716
54.8712
54.8709
54.8705
54.8701
54.8696
54.8692
54.8687
54.8682
54.8677
54.8671
54.8665
54.8659
54.8653
54.8647
54.864
54.8633
54.8626
54.8618
54.8611
54.8603
54.8595
54.8586
54.8578
54.8569
54.856
54.855
54.8541
54.8531
54.8521
54.8511
54.85
54.849
54.8479
54.8468
54.8457
54.8445
54.8433
54.8421
54.8409
54.8397
54.8384
54.8371
54.8358
54.8345
54.8331
54.8318
54.8304
54.829
54.8276
54.8261
54.8246
54.8232
54.8216
54.8201
54.8185
54.8169
54.8153
54.8136
54.812
54.8103
54.8086
54.8069
54.8052
54.8035
54.8018
54.8001
54.7983
54.7966
54.7948
54.793
54.7912
54.7893
54.7875
54.7855
54.7836
54.7816
54.7797
54.7777
54.7756
54.7736
54.7716
54.7695
54.7675
54.7654
54.7633
54.7612
54.7591
54.757
54.7548
54.7527
54.7505
54.7483
54.7461
54.7439
54.7417
54.7395
54.7373
54.7351
54.7328
54.7305
54.7283
54.7259
54.7236
54.7213
54.7189
54.7165
54.7141
54.7116
54.7092
54.7067
54.7042
54.7018
54.6993
54.6968
54.6943
54.6919
54.6894
54.6869
54.6844
54.6818
54.6793
54.6768
54.6742
54.6716
54.669
54.6664
54.6638
54.6612
54.6586
54.6559
54.6533
54.6506
54.6479
54.6452
54.6425
54.6398
54.6371
54.6344
54.6316
54.6289
54.6261
54.6234
54.6206
54.6179
54.6151
54.6123
54.6095
54.6067
54.6039
54.6011
54.5982
54.5954
54.5926
54.5897
54.5869
54.584
54.5811
54.5783
54.5754
54.5725
54.5696
54.5667
54.5638
54.5609
54.558
54.5551
54.5522
54.5493
54.5463
54.5434
54.5405
54.5375
54.5346
54.5316
54.5287
54.5257
54.5227
54.5198
54.5168
54.5138
54.5108
54.5079
54.5049
54.5019
54.4989
54.4959
54.4929
54.4899
54.4869
54.4839
54.4809
54.4779
54.4748
54.4718
54.4688
54.4658
54.4628
54.4598
54.4567
54.4537
54.4507
54.4476
54.4446
54.4416
54.4386
54.4355
54.4325
54.4295
54.4264
54.4234
54.4203
54.4173
54.4143
54.4112
54.4082
54.4052
54.4021
54.3991
54.3961
54.393
54.39
54.387
54.3839
54.3809
54.3779
54.3749
54.3718
54.3688
54.3658
54.3628
54.3597
54.3567
54.3537
54.3507
54.3477
54.3447
54.3417
54.3387
54.3357
54.3327
54.3297
54.3267
54.3237
54.3207
54.3177
54.3148
54.3118
54.3088
54.3059
54.3029
54.2999
54.297
54.294
54.2911
54.2882
54.2852
54.2823
54.2794
54.2765
54.2736
54.2706
54.2677
54.2648
54.262
54.2591
54.2562
54.2533
54.2505
54.2476
54.2448
54.2419
54.2391
54.2362
54.2334
54.2306
54.2278
54.225
54.2222
54.2194
54.2166
54.2139
54.2111
54.2084
54.2056
54.2029
54.2001
54.1974
54.1947
54.192
54.1893
54.1866
54.184
54.1813
54.1787
54.176
54.1734
54.1707
54.1681
54.1655
54.1629
54.1603
54.1578
54.1552
54.1527
54.1501
54.1476
54.1451
54.1425
54.1401
54.1376
54.1351
54.1326
54.1302
54.1277
54.1253
54.1229
54.1205
54.1181
54.1157
54.1133
54.1109
54.1086
54.1063
54.1039
54.1017
54.0993
54.0971
54.0947
54.0926
54.0902
54.088
54.0858
54.0835
54.0814
54.0791
54.0771
54.0749
54.0727
54.0707
54.0683
54.0664
54.0642
54.0622
54.06
54.0581
54.0559
54.054
54.0519
54.05
54.0478
54.0457
54.769
54.7721
54.7773
54.7825
54.7877
54.7929
54.798
54.8031
54.8081
54.8131
54.8179
54.8225
54.827
54.8313
54.8354
54.8393
54.843
54.8465
54.8497
54.8527
54.8555
54.858
54.8604
54.8624
54.8643
54.866
54.8675
54.8688
54.8699
54.8708
54.8715
54.872
54.8725
54.8729
54.8732
54.8734
54.8735
54.8735
54.8735
54.8734
54.8733
54.8732
54.873
54.8729
54.8727
54.8724
54.8722
54.8719
54.8716
54.8712
54.8709
54.8705
54.8701
54.8697
54.8692
54.8687
54.8682
54.8677
54.8671
54.8665
54.8659
54.8653
54.8647
54.864
54.8633
54.8626
54.8618
54.8611
54.8603
54.8595
54.8586
54.8578
54.8569
54.856
54.855
54.8541
54.8531
54.8521
54.8511
54.8501
54.849
54.8479
54.8468
54.8457
54.8445
54.8433
54.8421
54.8409
54.8397
54.8384
54.8371
54.8358
54.8345
54.8332
54.8318
54.8304
54.829
54.8276
54.8261
54.8247
54.8232
54.8216
54.8201
54.8185
54.8169
54.8153
54.8136
54.812
54.8103
54.8086
54.8069
54.8052
54.8035
54.8018
54.8001
54.7984
54.7966
54.7948
54.793
54.7912
54.7893
54.7875
54.7856
54.7836
54.7817
54.7797
54.7777
54.7757
54.7736
54.7716
54.7695
54.7675
54.7654
54.7633
54.7612
54.7591
54.757
54.7548
54.7527
54.7505
54.7483
54.7461
54.7439
54.7417
54.7395
54.7373
54.7351
54.7328
54.7305
54.7283
54.7259
54.7236
54.7213
54.7189
54.7165
54.7141
54.7116
54.7092
54.7067
54.7042
54.7018
54.6993
54.6968
54.6943
54.6919
54.6894
54.6869
54.6844
54.6819
54.6793
54.6768
54.6742
54.6716
54.669
54.6664
54.6638
54.6612
54.6586
54.6559
54.6533
54.6506
54.6479
54.6452
54.6425
54.6398
54.6371
54.6344
54.6316
54.6289
54.6261
54.6234
54.6206
54.6179
54.6151
54.6123
54.6095
54.6067
54.6039
54.6011
54.5982
54.5954
54.5926
54.5897
54.5869
54.584
54.5811
54.5783
54.5754
54.5725
54.5696
54.5667
54.5638
54.5609
54.558
54.5551
54.5522
54.5493
54.5463
54.5434
54.5405
54.5375
54.5346
54.5316
54.5287
54.5257
54.5227
54.5198
54.5168
54.5138
54.5108
54.5079
54.5049
54.5019
54.4989
54.4959
54.4929
54.4899
54.4869
54.4839
54.4809
54.4779
54.4748
54.4718
54.4688
54.4658
54.4628
54.4598
54.4567
54.4537
54.4507
54.4476
54.4446
54.4416
54.4386
54.4355
54.4325
54.4295
54.4264
54.4234
54.4203
54.4173
54.4143
54.4112
54.4082
54.4052
54.4021
54.3991
54.3961
54.393
54.39
54.387
54.3839
54.3809
54.3779
54.3749
54.3718
54.3688
54.3658
54.3628
54.3597
54.3567
54.3537
54.3507
54.3477
54.3447
54.3417
54.3387
54.3357
54.3327
54.3297
54.3267
54.3237
54.3207
54.3177
54.3148
54.3118
54.3088
54.3059
54.3029
54.2999
54.297
54.294
54.2911
54.2882
54.2852
54.2823
54.2794
54.2765
54.2736
54.2706
54.2677
54.2648
54.262
54.2591
54.2562
54.2533
54.2505
54.2476
54.2448
54.2419
54.2391
54.2362
54.2334
54.2306
54.2278
54.225
54.2222
54.2194
54.2166
54.2139
54.2111
54.2084
54.2056
54.2029
54.2001
54.1974
54.1947
54.192
54.1893
54.1866
54.184
54.1813
54.1787
54.176
54.1734
54.1707
54.1681
54.1655
54.1629
54.1603
54.1578
54.1552
54.1527
54.1501
54.1476
54.1451
54.1425
54.1401
54.1376
54.1351
54.1326
54.1302
54.1277
54.1253
54.1229
54.1205
54.1181
54.1157
54.1133
54.1109
54.1086
54.1063
54.1039
54.1017
54.0993
54.0971
54.0947
54.0926
54.0902
54.0881
54.0857
54.0836
54.0813
54.0793
54.0769
54.0749
54.0726
54.0706
54.0684
54.0664
54.0642
54.0622
54.06
54.0581
54.0559
54.054
54.0518
54.0499
54.0477
54.0457
54.769
54.7721
54.7773
54.7825
54.7877
54.7929
54.798
54.8031
54.8081
54.8131
54.8179
54.8225
54.827
54.8313
54.8354
54.8393
54.843
54.8465
54.8497
54.8527
54.8555
54.858
54.8604
54.8625
54.8643
54.866
54.8675
54.8688
54.8699
54.8708
54.8715
54.872
54.8725
54.8729
54.8732
54.8734
54.8735
54.8735
54.8735
54.8734
54.8733
54.8732
54.8731
54.8729
54.8727
54.8724
54.8722
54.8719
54.8716
54.8712
54.8709
54.8705
54.8701
54.8697
54.8692
54.8687
54.8682
54.8677
54.8671
54.8666
54.8659
54.8653
54.8647
54.864
54.8633
54.8626
54.8618
54.8611
54.8603
54.8595
54.8586
54.8578
54.8569
54.856
54.855
54.8541
54.8531
54.8521
54.8511
54.8501
54.849
54.8479
54.8468
54.8457
54.8445
54.8433
54.8421
54.8409
54.8397
54.8384
54.8371
54.8358
54.8345
54.8332
54.8318
54.8304
54.829
54.8276
54.8261
54.8247
54.8232
54.8216
54.8201
54.8185
54.8169
54.8153
54.8136
54.812
54.8103
54.8086
54.8069
54.8052
54.8035
54.8018
54.8001
54.7984
54.7966
54.7948
54.793
54.7912
54.7893
54.7875
54.7856
54.7836
54.7817
54.7797
54.7777
54.7757
54.7736
54.7716
54.7695
54.7675
54.7654
54.7633
54.7612
54.7591
54.757
54.7548
54.7527
54.7505
54.7483
54.7461
54.7439
54.7417
54.7395
54.7373
54.7351
54.7328
54.7305
54.7283
54.7259
54.7236
54.7213
54.7189
54.7165
54.7141
54.7116
54.7092
54.7067
54.7042
54.7018
54.6993
54.6968
54.6943
54.6919
54.6894
54.6869
54.6844
54.6818
54.6793
54.6768
54.6742
54.6716
54.669
54.6664
54.6638
54.6612
54.6586
54.6559
54.6532
54.6506
54.6479
54.6452
54.6425
54.6398
54.6371
54.6344
54.6316
54.6289
54.6261
54.6234
54.6206
54.6179
54.6151
54.6123
54.6095
54.6067
54.6039
54.6011
54.5982
54.5954
54.5926
54.5897
54.5869
54.584
54.5811
54.5783
54.5754
54.5725
54.5696
54.5667
54.5638
54.5609
54.558
54.5551
54.5522
54.5493
54.5463
54.5434
54.5405
54.5375
54.5346
54.5316
54.5287
54.5257
54.5227
54.5198
54.5168
54.5138
54.5108
54.5079
54.5049
54.5019
54.4989
54.4959
54.4929
54.4899
54.4869
54.4839
54.4809
54.4779
54.4748
54.4718
54.4688
54.4658
54.4628
54.4598
54.4567
54.4537
54.4507
54.4476
54.4446
54.4416
54.4386
54.4355
54.4325
54.4295
54.4264
54.4234
54.4203
54.4173
54.4143
54.4112
54.4082
54.4052
54.4021
54.3991
54.3961
54.393
54.39
54.387
54.3839
54.3809
54.3779
54.3748
54.3718
54.3688
54.3658
54.3628
54.3597
54.3567
54.3537
54.3507
54.3477
54.3447
54.3417
54.3387
54.3357
54.3327
54.3297
54.3267
54.3237
54.3207
54.3177
54.3148
54.3118
54.3088
54.3059
54.3029
54.2999
54.297
54.294
54.2911
54.2882
54.2852
54.2823
54.2794
54.2765
54.2736
54.2706
54.2677
54.2648
54.262
54.2591
54.2562
54.2533
54.2505
54.2476
54.2448
54.2419
54.2391
54.2362
54.2334
54.2306
54.2278
54.225
54.2222
54.2194
54.2166
54.2139
54.2111
54.2084
54.2056
54.2029
54.2001
54.1974
54.1947
54.192
54.1893
54.1866
54.184
54.1813
54.1787
54.176
54.1734
54.1707
54.1681
54.1655
54.1629
54.1603
54.1578
54.1552
54.1527
54.1501
54.1476
54.1451
54.1425
54.1401
54.1376
54.1351
54.1326
54.1302
54.1277
54.1253
54.1229
54.1205
54.1181
54.1157
54.1133
54.111
54.1086
54.1063
54.1039
54.1017
54.0993
54.0971
54.0947
54.0926
54.0902
54.0881
54.0857
54.0836
54.0813
54.0793
54.0769
54.0749
54.0726
54.0706
54.0684
54.0664
54.0642
54.0622
54.06
54.0581
54.0559
54.054
54.0518
54.05
54.0477
54.0457
54.7684
54.7714
54.7766
54.7819
54.7871
54.7922
54.7974
54.8025
54.8075
54.8124
54.8172
54.8219
54.8264
54.8307
54.8348
54.8387
54.8424
54.8458
54.8491
54.8521
54.8549
54.8574
54.8598
54.8618
54.8637
54.8654
54.8669
54.8682
54.8693
54.8701
54.8709
54.8714
54.8719
54.8723
54.8726
54.8728
54.8729
54.8729
54.8729
54.8728
54.8727
54.8726
54.8724
54.8723
54.8721
54.8718
54.8716
54.8713
54.871
54.8706
54.8703
54.8699
54.8695
54.8691
54.8686
54.8681
54.8676
54.8671
54.8665
54.866
54.8654
54.8647
54.8641
54.8634
54.8627
54.862
54.8613
54.8605
54.8597
54.8589
54.8581
54.8572
54.8563
54.8554
54.8545
54.8535
54.8526
54.8516
54.8505
54.8495
54.8484
54.8474
54.8462
54.8451
54.844