/*--------------------------------*- C++ -*----------------------------------*\
| =========                 |                                                 |
| \\      /  F ield         | OpenFOAM: The Open Source CFD Toolbox           |
|  \\    /   O peration     | Version:  3.0.x                                 |
|   \\  /    A nd           | Web:      www.OpenFOAM.org                      |
|    \\/     M anipulation  |                                                 |
\*---------------------------------------------------------------------------*/
FoamFile
{
    version     2.0;
    format      ascii;
    class       volScalarField;
    location    "0.59";
    object      T;
}
// * * * * * * * * * * * * * * * * * * * * * * * * * * * * * * * * * * * * * //

dimensions      [0 0 0 1 0 0 0];

internalField   nonuniform List<scalar> 
27600
(
787.337
787.305
787.246
787.186
787.126
787.064
787.003
786.942
786.882
786.823
786.765
786.708
786.654
786.602
786.552
786.505
786.461
786.419
786.38
786.345
786.311
786.281
786.253
786.229
786.207
786.187
786.17
786.155
786.143
786.133
786.125
786.119
786.114
786.11
786.106
786.104
786.102
786.101
786.1
786.099
786.099
786.098
786.098
786.097
786.097
786.096
786.095
786.094
786.093
786.092
786.091
786.09
786.089
786.088
786.086
786.085
786.083
786.082
786.08
786.079
786.077
786.075
786.073
786.071
786.069
786.067
786.065
786.063
786.06
786.058
786.056
786.053
786.051
786.048
786.045
786.042
786.04
786.037
786.034
786.031
786.028
786.025
786.021
786.018
786.015
786.011
786.008
786.004
786.001
785.997
785.993
785.99
785.986
785.982
785.978
785.974
785.97
785.966
785.962
785.957
785.953
785.949
785.945
785.941
785.937
785.933
785.929
785.924
785.92
785.915
785.91
785.905
785.9
785.895
785.889
785.883
785.878
785.872
785.866
785.861
785.855
785.85
785.844
785.839
785.834
785.829
785.824
785.818
785.813
785.807
785.801
785.796
785.79
785.784
785.778
785.771
785.765
785.759
785.753
785.747
785.74
785.733
785.727
785.72
785.713
785.706
785.699
785.691
785.684
785.677
785.67
785.663
785.657
785.65
785.644
785.637
785.631
785.624
785.617
785.611
785.604
785.596
785.589
785.582
785.574
785.566
785.558
785.551
785.543
785.535
785.527
785.52
785.512
785.504
785.497
785.489
785.481
785.474
785.466
785.458
785.451
785.443
785.435
785.427
785.419
785.412
785.404
785.396
785.388
785.38
785.372
785.364
785.356
785.348
785.34
785.332
785.324
785.316
785.308
785.3
785.291
785.283
785.275
785.267
785.258
785.25
785.242
785.234
785.225
785.217
785.209
785.2
785.192
785.183
785.175
785.167
785.158
785.15
785.141
785.133
785.124
785.116
785.107
785.099
785.09
785.082
785.073
785.064
785.056
785.047
785.039
785.03
785.021
785.013
785.004
784.995
784.987
784.978
784.969
784.961
784.952
784.943
784.934
784.926
784.917
784.908
784.899
784.891
784.882
784.873
784.864
784.856
784.847
784.838
784.829
784.821
784.812
784.803
784.794
784.785
784.777
784.768
784.759
784.75
784.742
784.733
784.724
784.715
784.706
784.698
784.689
784.68
784.671
784.663
784.654
784.645
784.636
784.628
784.619
784.61
784.601
784.593
784.584
784.575
784.566
784.558
784.549
784.54
784.532
784.523
784.514
784.506
784.497
784.488
784.48
784.471
784.463
784.454
784.445
784.437
784.428
784.42
784.411
784.403
784.394
784.386
784.377
784.369
784.36
784.352
784.343
784.335
784.327
784.318
784.31
784.302
784.293
784.285
784.277
784.269
784.26
784.252
784.244
784.236
784.228
784.219
784.211
784.203
784.195
784.187
784.179
784.171
784.163
784.155
784.147
784.139
784.132
784.124
784.116
784.108
784.1
784.093
784.085
784.077
784.07
784.062
784.054
784.047
784.039
784.032
784.024
784.017
784.009
784.002
783.995
783.987
783.98
783.973
783.966
783.958
783.951
783.944
783.937
783.93
783.923
783.916
783.909
783.902
783.895
783.889
783.881
783.875
783.867
783.862
783.854
783.849
783.84
783.836
783.827
783.823
783.814
783.81
783.801
783.797
783.789
783.785
783.776
783.772
783.764
783.76
783.751
783.748
783.739
783.736
783.727
783.724
783.716
783.712
783.705
783.703
787.328
787.295
787.237
787.177
787.116
787.055
786.994
786.933
786.873
786.813
786.755
786.699
786.645
786.593
786.543
786.496
786.452
786.41
786.372
786.336
786.303
786.272
786.245
786.22
786.198
786.179
786.161
786.146
786.134
786.124
786.117
786.11
786.105
786.101
786.097
786.095
786.093
786.092
786.091
786.091
786.09
786.09
786.089
786.089
786.088
786.087
786.086
786.086
786.085
786.084
786.083
786.082
786.08
786.079
786.078
786.077
786.075
786.074
786.072
786.07
786.069
786.067
786.065
786.063
786.061
786.059
786.057
786.055
786.052
786.05
786.048
786.045
786.043
786.04
786.037
786.034
786.032
786.029
786.026
786.023
786.02
786.017
786.014
786.01
786.007
786.004
786
785.997
785.993
785.989
785.986
785.982
785.978
785.974
785.971
785.967
785.962
785.958
785.954
785.95
785.946
785.941
785.937
785.933
785.929
785.925
785.921
785.917
785.913
785.908
785.903
785.898
785.893
785.887
785.882
785.876
785.871
785.865
785.859
785.854
785.848
785.843
785.837
785.832
785.827
785.822
785.817
785.811
785.806
785.8
785.795
785.789
785.783
785.777
785.771
785.765
785.759
785.753
785.746
785.74
785.734
785.727
785.72
785.714
785.707
785.7
785.693
785.685
785.678
785.671
785.664
785.657
785.65
785.644
785.637
785.631
785.624
785.618
785.611
785.604
785.598
785.591
785.583
785.576
785.568
785.561
785.553
785.545
785.537
785.53
785.522
785.514
785.506
785.499
785.491
785.484
785.476
785.468
785.461
785.453
785.445
785.437
785.43
785.422
785.414
785.406
785.398
785.39
785.383
785.375
785.367
785.359
785.351
785.343
785.335
785.327
785.318
785.31
785.302
785.294
785.286
785.278
785.27
785.261
785.253
785.245
785.236
785.228
785.22
785.212
785.203
785.195
785.186
785.178
785.17
785.161
785.153
785.144
785.136
785.127
785.119
785.11
785.102
785.093
785.085
785.076
785.068
785.059
785.05
785.042
785.033
785.025
785.016
785.007
784.999
784.99
784.981
784.973
784.964
784.955
784.946
784.938
784.929
784.92
784.912
784.903
784.894
784.885
784.877
784.868
784.859
784.85
784.842
784.833
784.824
784.815
784.807
784.798
784.789
784.78
784.771
784.763
784.754
784.745
784.736
784.727
784.719
784.71
784.701
784.692
784.684
784.675
784.666
784.657
784.649
784.64
784.631
784.622
784.614
784.605
784.596
784.587
784.579
784.57
784.561
784.552
784.544
784.535
784.526
784.518
784.509
784.5
784.492
784.483
784.475
784.466
784.457
784.449
784.44
784.432
784.423
784.415
784.406
784.397
784.389
784.38
784.372
784.364
784.355
784.347
784.338
784.33
784.322
784.313
784.305
784.296
784.288
784.28
784.272
784.263
784.255
784.247
784.239
784.231
784.222
784.214
784.206
784.198
784.19
784.182
784.174
784.166
784.158
784.15
784.142
784.134
784.126
784.119
784.111
784.103
784.095
784.088
784.08
784.072
784.065
784.057
784.049
784.042
784.034
784.027
784.019
784.012
784.004
783.997
783.99
783.982
783.975
783.968
783.961
783.953
783.946
783.939
783.932
783.925
783.918
783.911
783.904
783.897
783.89
783.884
783.876
783.87
783.862
783.857
783.849
783.844
783.835
783.831
783.822
783.818
783.809
783.805
783.796
783.792
783.784
783.779
783.771
783.767
783.759
783.755
783.746
783.742
783.734
783.73
783.722
783.719
783.711
783.707
783.7
783.697
787.328
787.295
787.237
787.177
787.116
787.055
786.994
786.933
786.873
786.813
786.756
786.699
786.645
786.593
786.543
786.496
786.452
786.41
786.372
786.336
786.303
786.272
786.245
786.22
786.198
786.179
786.161
786.146
786.134
786.125
786.117
786.11
786.105
786.101
786.097
786.095
786.093
786.092
786.091
786.091
786.09
786.09
786.089
786.089
786.088
786.087
786.086
786.086
786.085
786.084
786.083
786.082
786.08
786.079
786.078
786.077
786.075
786.074
786.072
786.07
786.069
786.067
786.065
786.063
786.061
786.059
786.057
786.055
786.052
786.05
786.048
786.045
786.043
786.04
786.037
786.035
786.032
786.029
786.026
786.023
786.02
786.017
786.014
786.01
786.007
786.004
786
785.997
785.993
785.989
785.986
785.982
785.978
785.974
785.971
785.967
785.963
785.958
785.954
785.95
785.946
785.941
785.937
785.933
785.929
785.925
785.921
785.917
785.913
785.908
785.903
785.898
785.893
785.888
785.882
785.876
785.871
785.865
785.859
785.854
785.848
785.843
785.837
785.832
785.827
785.822
785.817
785.811
785.806
785.8
785.795
785.789
785.783
785.777
785.771
785.765
785.759
785.753
785.746
785.74
785.734
785.727
785.72
785.714
785.707
785.7
785.693
785.685
785.678
785.671
785.664
785.657
785.65
785.644
785.637
785.631
785.624
785.618
785.611
785.604
785.598
785.59
785.583
785.576
785.568
785.561
785.553
785.545
785.537
785.53
785.522
785.514
785.506
785.499
785.491
785.483
785.476
785.468
785.46
785.453
785.445
785.437
785.43
785.422
785.414
785.406
785.398
785.39
785.383
785.375
785.367
785.359
785.351
785.343
785.335
785.327
785.318
785.31
785.302
785.294
785.286
785.278
785.27
785.261
785.253
785.245
785.236
785.228
785.22
785.212
785.203
785.195
785.186
785.178
785.17
785.161
785.153
785.144
785.136
785.127
785.119
785.11
785.102
785.093
785.085
785.076
785.068
785.059
785.05
785.042
785.033
785.025
785.016
785.007
784.999
784.99
784.981
784.973
784.964
784.955
784.946
784.938
784.929
784.92
784.912
784.903
784.894
784.885
784.877
784.868
784.859
784.85
784.842
784.833
784.824
784.815
784.807
784.798
784.789
784.78
784.771
784.763
784.754
784.745
784.736
784.727
784.719
784.71
784.701
784.692
784.684
784.675
784.666
784.657
784.649
784.64
784.631
784.622
784.614
784.605
784.596
784.587
784.579
784.57
784.561
784.552
784.544
784.535
784.526
784.518
784.509
784.5
784.492
784.483
784.475
784.466
784.457
784.449
784.44
784.432
784.423
784.415
784.406
784.397
784.389
784.38
784.372
784.364
784.355
784.347
784.338
784.33
784.322
784.313
784.305
784.296
784.288
784.28
784.272
784.263
784.255
784.247
784.239
784.231
784.222
784.214
784.206
784.198
784.19
784.182
784.174
784.166
784.158
784.15
784.142
784.134
784.126
784.119
784.111
784.103
784.095
784.088
784.08
784.072
784.065
784.057
784.049
784.042
784.034
784.027
784.019
784.012
784.004
783.997
783.99
783.982
783.975
783.968
783.961
783.953
783.946
783.939
783.932
783.925
783.918
783.911
783.904
783.897
783.89
783.884
783.876
783.87
783.862
783.857
783.849
783.844
783.835
783.831
783.822
783.818
783.809
783.805
783.796
783.792
783.784
783.779
783.771
783.767
783.759
783.755
783.746
783.742
783.734
783.73
783.722
783.719
783.711
783.707
783.7
783.696
787.328
787.296
787.237
787.177
787.116
787.055
786.994
786.933
786.873
786.814
786.756
786.7
786.645
786.593
786.544
786.497
786.452
786.41
786.372
786.336
786.303
786.272
786.245
786.22
786.199
786.179
786.162
786.147
786.134
786.125
786.117
786.111
786.105
786.101
786.098
786.095
786.093
786.092
786.092
786.091
786.09
786.09
786.089
786.089
786.088
786.087
786.087
786.086
786.085
786.084
786.083
786.082
786.081
786.079
786.078
786.077
786.075
786.074
786.072
786.07
786.069
786.067
786.065
786.063
786.061
786.059
786.057
786.055
786.052
786.05
786.048
786.045
786.043
786.04
786.037
786.035
786.032
786.029
786.026
786.023
786.02
786.017
786.014
786.01
786.007
786.004
786
785.997
785.993
785.99
785.986
785.982
785.978
785.975
785.971
785.967
785.963
785.958
785.954
785.95
785.946
785.942
785.937
785.933
785.929
785.925
785.921
785.917
785.913
785.908
785.903
785.898
785.893
785.888
785.882
785.877
785.871
785.865
785.86
785.854
785.848
785.843
785.837
785.832
785.827
785.822
785.817
785.811
785.806
785.8
785.795
785.789
785.783
785.777
785.771
785.765
785.759
785.753
785.747
785.74
785.734
785.727
785.72
785.714
785.707
785.7
785.693
785.686
785.678
785.671
785.664
785.657
785.651
785.644
785.637
785.631
785.624
785.618
785.611
785.604
785.598
785.591
785.583
785.576
785.568
785.561
785.553
785.545
785.537
785.53
785.522
785.514
785.506
785.499
785.491
785.484
785.476
785.468
785.461
785.453
785.445
785.437
785.43
785.422
785.414
785.406
785.398
785.39
785.383
785.375
785.367
785.359
785.351
785.343
785.335
785.327
785.318
785.31
785.302
785.294
785.286
785.278
785.27
785.261
785.253
785.245
785.236
785.228
785.22
785.212
785.203
785.195
785.186
785.178
785.17
785.161
785.153
785.144
785.136
785.127
785.119
785.11
785.102
785.093
785.085
785.076
785.068
785.059
785.05
785.042
785.033
785.025
785.016
785.007
784.999
784.99
784.981
784.973
784.964
784.955
784.946
784.938
784.929
784.92
784.912
784.903
784.894
784.885
784.877
784.868
784.859
784.85
784.842
784.833
784.824
784.815
784.807
784.798
784.789
784.78
784.771
784.763
784.754
784.745
784.736
784.727
784.719
784.71
784.701
784.692
784.684
784.675
784.666
784.657
784.649
784.64
784.631
784.622
784.614
784.605
784.596
784.587
784.579
784.57
784.561
784.552
784.544
784.535
784.526
784.518
784.509
784.5
784.492
784.483
784.475
784.466
784.457
784.449
784.44
784.432
784.423
784.415
784.406
784.397
784.389
784.38
784.372
784.364
784.355
784.347
784.338
784.33
784.322
784.313
784.305
784.296
784.288
784.28
784.272
784.263
784.255
784.247
784.239
784.231
784.222
784.214
784.206
784.198
784.19
784.182
784.174
784.166
784.158
784.15
784.142
784.134
784.126
784.119
784.111
784.103
784.095
784.088
784.08
784.072
784.065
784.057
784.049
784.042
784.034
784.027
784.019
784.012
784.004
783.997
783.99
783.982
783.975
783.968
783.961
783.953
783.946
783.939
783.932
783.925
783.918
783.911
783.904
783.897
783.89
783.884
783.876
783.87
783.862
783.857
783.849
783.844
783.835
783.831
783.822
783.818
783.809
783.805
783.796
783.792
783.784
783.779
783.771
783.767
783.759
783.755
783.746
783.742
783.734
783.73
783.722
783.718
783.711
783.706
783.7
783.696
787.328
787.296
787.237
787.177
787.117
787.055
786.994
786.933
786.873
786.814
786.756
786.7
786.645
786.593
786.544
786.497
786.452
786.411
786.372
786.336
786.303
786.272
786.245
786.22
786.199
786.179
786.162
786.147
786.135
786.125
786.117
786.111
786.105
786.101
786.098
786.095
786.094
786.092
786.092
786.091
786.091
786.09
786.089
786.089
786.088
786.088
786.087
786.086
786.085
786.084
786.083
786.082
786.081
786.08
786.078
786.077
786.075
786.074
786.072
786.071
786.069
786.067
786.065
786.063
786.061
786.059
786.057
786.055
786.053
786.05
786.048
786.045
786.043
786.04
786.038
786.035
786.032
786.029
786.026
786.023
786.02
786.017
786.014
786.011
786.007
786.004
786
785.997
785.993
785.99
785.986
785.982
785.978
785.975
785.971
785.967
785.963
785.958
785.954
785.95
785.946
785.942
785.938
785.934
785.929
785.925
785.921
785.917
785.913
785.908
785.903
785.898
785.893
785.888
785.882
785.877
785.871
785.865
785.86
785.854
785.848
785.843
785.838
785.832
785.827
785.822
785.817
785.811
785.806
785.8
785.795
785.789
785.783
785.777
785.771
785.765
785.759
785.753
785.747
785.74
785.734
785.727
785.72
785.714
785.707
785.7
785.693
785.686
785.678
785.671
785.664
785.657
785.651
785.644
785.637
785.631
785.624
785.618
785.611
785.604
785.598
785.591
785.583
785.576
785.568
785.561
785.553
785.545
785.537
785.53
785.522
785.514
785.507
785.499
785.491
785.484
785.476
785.468
785.461
785.453
785.445
785.437
785.43
785.422
785.414
785.406
785.398
785.39
785.383
785.375
785.367
785.359
785.351
785.343
785.335
785.327
785.318
785.31
785.302
785.294
785.286
785.278
785.27
785.261
785.253
785.245
785.236
785.228
785.22
785.212
785.203
785.195
785.186
785.178
785.17
785.161
785.153
785.144
785.136
785.127
785.119
785.11
785.102
785.093
785.085
785.076
785.068
785.059
785.05
785.042
785.033
785.025
785.016
785.007
784.999
784.99
784.981
784.973
784.964
784.955
784.946
784.938
784.929
784.92
784.912
784.903
784.894
784.885
784.877
784.868
784.859
784.85
784.842
784.833
784.824
784.815
784.807
784.798
784.789
784.78
784.771
784.763
784.754
784.745
784.736
784.727
784.719
784.71
784.701
784.692
784.684
784.675
784.666
784.657
784.649
784.64
784.631
784.622
784.614
784.605
784.596
784.587
784.579
784.57
784.561
784.552
784.544
784.535
784.526
784.518
784.509
784.5
784.492
784.483
784.475
784.466
784.457
784.449
784.44
784.432
784.423
784.415
784.406
784.397
784.389
784.38
784.372
784.364
784.355
784.347
784.338
784.33
784.322
784.313
784.305
784.296
784.288
784.28
784.272
784.263
784.255
784.247
784.239
784.231
784.222
784.214
784.206
784.198
784.19
784.182
784.174
784.166
784.158
784.15
784.142
784.134
784.126
784.119
784.111
784.103
784.095
784.088
784.08
784.072
784.065
784.057
784.049
784.042
784.034
784.027
784.019
784.012
784.004
783.997
783.99
783.982
783.975
783.968
783.961
783.953
783.946
783.939
783.932
783.925
783.918
783.911
783.904
783.897
783.89
783.884
783.876
783.87
783.862
783.857
783.849
783.844
783.835
783.831
783.822
783.818
783.809
783.805
783.796
783.792
783.784
783.779
783.771
783.767
783.759
783.755
783.746
783.742
783.734
783.73
783.722
783.719
783.711
783.707
783.699
783.695
787.328
787.296
787.237
787.177
787.117
787.055
786.994
786.933
786.873
786.814
786.756
786.7
786.645
786.593
786.544
786.497
786.452
786.411
786.372
786.336
786.303
786.272
786.245
786.22
786.199
786.179
786.162
786.147
786.135
786.125
786.117
786.111
786.105
786.101
786.098
786.095
786.094
786.092
786.092
786.091
786.091
786.09
786.089
786.089
786.088
786.088
786.087
786.086
786.085
786.084
786.083
786.082
786.081
786.08
786.078
786.077
786.075
786.074
786.072
786.071
786.069
786.067
786.065
786.063
786.061
786.059
786.057
786.055
786.053
786.05
786.048
786.045
786.043
786.04
786.038
786.035
786.032
786.029
786.026
786.023
786.02
786.017
786.014
786.011
786.007
786.004
786
785.997
785.993
785.99
785.986
785.982
785.978
785.975
785.971
785.967
785.963
785.958
785.954
785.95
785.946
785.942
785.938
785.934
785.929
785.925
785.921
785.917
785.913
785.908
785.903
785.898
785.893
785.888
785.882
785.877
785.871
785.865
785.86
785.854
785.848
785.843
785.838
785.832
785.827
785.822
785.817
785.811
785.806
785.8
785.795
785.789
785.783
785.777
785.771
785.765
785.759
785.753
785.747
785.74
785.734
785.727
785.72
785.714
785.707
785.7
785.693
785.686
785.678
785.671
785.664
785.657
785.651
785.644
785.637
785.631
785.624
785.618
785.611
785.604
785.598
785.591
785.583
785.576
785.568
785.561
785.553
785.545
785.537
785.53
785.522
785.514
785.507
785.499
785.491
785.484
785.476
785.468
785.461
785.453
785.445
785.437
785.43
785.422
785.414
785.406
785.398
785.39
785.383
785.375
785.367
785.359
785.351
785.343
785.335
785.327
785.318
785.31
785.302
785.294
785.286
785.278
785.27
785.261
785.253
785.245
785.236
785.228
785.22
785.212
785.203
785.195
785.186
785.178
785.17
785.161
785.153
785.144
785.136
785.127
785.119
785.11
785.102
785.093
785.085
785.076
785.068
785.059
785.05
785.042
785.033
785.025
785.016
785.007
784.999
784.99
784.981
784.973
784.964
784.955
784.946
784.938
784.929
784.92
784.912
784.903
784.894
784.885
784.877
784.868
784.859
784.85
784.842
784.833
784.824
784.815
784.807
784.798
784.789
784.78
784.771
784.763
784.754
784.745
784.736
784.727
784.719
784.71
784.701
784.692
784.684
784.675
784.666
784.657
784.649
784.64
784.631
784.622
784.614
784.605
784.596
784.587
784.579
784.57
784.561
784.552
784.544
784.535
784.526
784.518
784.509
784.5
784.492
784.483
784.475
784.466
784.457
784.449
784.44
784.432
784.423
784.415
784.406
784.397
784.389
784.38
784.372
784.364
784.355
784.347
784.338
784.33
784.322
784.313
784.305
784.296
784.288
784.28
784.272
784.263
784.255
784.247
784.239
784.231
784.222
784.214
784.206
784.198
784.19
784.182
784.174
784.166
784.158
784.15
784.142
784.134
784.126
784.119
784.111
784.103
784.095
784.088
784.08
784.072
784.065
784.057
784.049
784.042
784.034
784.027
784.019
784.012
784.004
783.997
783.99
783.982
783.975
783.968
783.961
783.953
783.946
783.939
783.932
783.925
783.918
783.911
783.904
783.897
783.89
783.883
783.876
783.87
783.863
783.857
783.849
783.843
783.836
783.83
783.823
783.816
783.811
783.803
783.798
783.791
783.785
783.779
783.771
783.766
783.759
783.753
783.748
783.74
783.737
783.729
783.724
783.716
783.712
783.705
783.701
783.694
787.328
787.296
787.237
787.177
787.116
787.055
786.994
786.933
786.873
786.814
786.756
786.7
786.645
786.593
786.544
786.497
786.452
786.41
786.372
786.336
786.303
786.272
786.245
786.22
786.199
786.179
786.162
786.147
786.134
786.125
786.117
786.111
786.105
786.101
786.098
786.095
786.093
786.092
786.092
786.091
786.09
786.09
786.089
786.089
786.088
786.087
786.087
786.086
786.085
786.084
786.083
786.082
786.081
786.079
786.078
786.077
786.075
786.074
786.072
786.07
786.069
786.067
786.065
786.063
786.061
786.059
786.057
786.055
786.052
786.05
786.048
786.045
786.043
786.04
786.037
786.035
786.032
786.029
786.026
786.023
786.02
786.017
786.014
786.01
786.007
786.004
786
785.997
785.993
785.99
785.986
785.982
785.978
785.975
785.971
785.967
785.963
785.958
785.954
785.95
785.946
785.942
785.937
785.933
785.929
785.925
785.921
785.917
785.913
785.908
785.903
785.898
785.893
785.888
785.882
785.877
785.871
785.865
785.86
785.854
785.848
785.843
785.837
785.832
785.827
785.822
785.817
785.811
785.806
785.8
785.795
785.789
785.783
785.777
785.771
785.765
785.759
785.753
785.747
785.74
785.734
785.727
785.72
785.714
785.707
785.7
785.693
785.686
785.678
785.671
785.664
785.657
785.651
785.644
785.637
785.631
785.624
785.618
785.611
785.604
785.598
785.591
785.583
785.576
785.568
785.561
785.553
785.545
785.537
785.53
785.522
785.514
785.506
785.499
785.491
785.484
785.476
785.468
785.461
785.453
785.445
785.437
785.43
785.422
785.414
785.406
785.398
785.39
785.383
785.375
785.367
785.359
785.351
785.343
785.335
785.327
785.318
785.31
785.302
785.294
785.286
785.278
785.27
785.261
785.253
785.245
785.236
785.228
785.22
785.212
785.203
785.195
785.186
785.178
785.17
785.161
785.153
785.144
785.136
785.127
785.119
785.11
785.102
785.093
785.085
785.076
785.068
785.059
785.05
785.042
785.033
785.025
785.016
785.007
784.999
784.99
784.981
784.973
784.964
784.955
784.946
784.938
784.929
784.92
784.912
784.903
784.894
784.885
784.877
784.868
784.859
784.85
784.842
784.833
784.824
784.815
784.807
784.798
784.789
784.78
784.771
784.763
784.754
784.745
784.736
784.727
784.719
784.71
784.701
784.692
784.684
784.675
784.666
784.657
784.649
784.64
784.631
784.622
784.614
784.605
784.596
784.587
784.579
784.57
784.561
784.552
784.544
784.535
784.526
784.518
784.509
784.5
784.492
784.483
784.475
784.466
784.457
784.449
784.44
784.432
784.423
784.415
784.406
784.397
784.389
784.38
784.372
784.364
784.355
784.347
784.338
784.33
784.322
784.313
784.305
784.296
784.288
784.28
784.272
784.263
784.255
784.247
784.239
784.231
784.222
784.214
784.206
784.198
784.19
784.182
784.174
784.166
784.158
784.15
784.142
784.134
784.126
784.119
784.111
784.103
784.095
784.088
784.08
784.072
784.065
784.057
784.049
784.042
784.034
784.027
784.019
784.012
784.004
783.997
783.99
783.982
783.975
783.968
783.961
783.953
783.946
783.939
783.932
783.925
783.918
783.911
783.904
783.897
783.89
783.883
783.876
783.87
783.863
783.856
783.85
783.842
783.837
783.829
783.824
783.816
783.81
783.804
783.796
783.792
783.784
783.778
783.773
783.765
783.761
783.753
783.749
783.74
783.736
783.728
783.724
783.717
783.712
783.705
783.7
783.695
787.328
787.295
787.237
787.177
787.116
787.055
786.994
786.933
786.873
786.813
786.756
786.699
786.645
786.593
786.543
786.496
786.452
786.41
786.372
786.336
786.303
786.272
786.245
786.22
786.198
786.179
786.161
786.146
786.134
786.125
786.117
786.11
786.105
786.101
786.097
786.095
786.093
786.092
786.091
786.091
786.09
786.09
786.089
786.089
786.088
786.087
786.086
786.086
786.085
786.084
786.083
786.082
786.08
786.079
786.078
786.077
786.075
786.074
786.072
786.07
786.069
786.067
786.065
786.063
786.061
786.059
786.057
786.055
786.052
786.05
786.048
786.045
786.043
786.04
786.037
786.035
786.032
786.029
786.026
786.023
786.02
786.017
786.014
786.01
786.007
786.004
786
785.997
785.993
785.989
785.986
785.982
785.978
785.974
785.971
785.967
785.963
785.958
785.954
785.95
785.946
785.941
785.937
785.933
785.929
785.925
785.921
785.917
785.913
785.908
785.903
785.898
785.893
785.888
785.882
785.876
785.871
785.865
785.859
785.854
785.848
785.843
785.837
785.832
785.827
785.822
785.817
785.811
785.806
785.8
785.795
785.789
785.783
785.777
785.771
785.765
785.759
785.753
785.746
785.74
785.734
785.727
785.72
785.714
785.707
785.7
785.693
785.685
785.678
785.671
785.664
785.657
785.65
785.644
785.637
785.631
785.624
785.618
785.611
785.604
785.598
785.59
785.583
785.576
785.568
785.561
785.553
785.545
785.537
785.53
785.522
785.514
785.506
785.499
785.491
785.483
785.476
785.468
785.46
785.453
785.445
785.437
785.43
785.422
785.414
785.406
785.398
785.39
785.383
785.375
785.367
785.359
785.351
785.343
785.335
785.327
785.318
785.31
785.302
785.294
785.286
785.278
785.27
785.261
785.253
785.245
785.236
785.228
785.22
785.212
785.203
785.195
785.186
785.178
785.17
785.161
785.153
785.144
785.136
785.127
785.119
785.11
785.102
785.093
785.085
785.076
785.068
785.059
785.05
785.042
785.033
785.025
785.016
785.007
784.999
784.99
784.981
784.973
784.964
784.955
784.946
784.938
784.929
784.92
784.912
784.903
784.894
784.885
784.877
784.868
784.859
784.85
784.842
784.833
784.824
784.815
784.807
784.798
784.789
784.78
784.771
784.763
784.754
784.745
784.736
784.727
784.719
784.71
784.701
784.692
784.684
784.675
784.666
784.657
784.649
784.64
784.631
784.622
784.614
784.605
784.596
784.587
784.579
784.57
784.561
784.552
784.544
784.535
784.526
784.518
784.509
784.5
784.492
784.483
784.475
784.466
784.457
784.449
784.44
784.432
784.423
784.415
784.406
784.397
784.389
784.38
784.372
784.364
784.355
784.347
784.338
784.33
784.322
784.313
784.305
784.296
784.288
784.28
784.272
784.263
784.255
784.247
784.239
784.231
784.222
784.214
784.206
784.198
784.19
784.182
784.174
784.166
784.158
784.15
784.142
784.134
784.126
784.119
784.111
784.103
784.095
784.088
784.08
784.072
784.065
784.057
784.049
784.042
784.034
784.027
784.019
784.012
784.004
783.997
783.99
783.982
783.975
783.968
783.961
783.953
783.946
783.939
783.932
783.925
783.918
783.911
783.904
783.897
783.89
783.883
783.876
783.87
783.863
783.856
783.85
783.842
783.837
783.829
783.824
783.816
783.811
783.803
783.798
783.79
783.786
783.777
783.773
783.765
783.761
783.753
783.749
783.74
783.736
783.728
783.724
783.716
783.713
783.705
783.701
783.694
787.328
787.295
787.237
787.177
787.116
787.055
786.994
786.933
786.873
786.813
786.755
786.699
786.645
786.593
786.543
786.496
786.452
786.41
786.372
786.336
786.303
786.272
786.245
786.22
786.198
786.179
786.161
786.146
786.134
786.124
786.117
786.11
786.105
786.101
786.097
786.095
786.093
786.092
786.091
786.091
786.09
786.09
786.089
786.089
786.088
786.087
786.086
786.086
786.085
786.084
786.083
786.082
786.08
786.079
786.078
786.077
786.075
786.074
786.072
786.07
786.069
786.067
786.065
786.063
786.061
786.059
786.057
786.055
786.052
786.05
786.048
786.045
786.043
786.04
786.037
786.034
786.032
786.029
786.026
786.023
786.02
786.017
786.014
786.01
786.007
786.004
786
785.997
785.993
785.989
785.986
785.982
785.978
785.974
785.971
785.967
785.962
785.958
785.954
785.95
785.946
785.941
785.937
785.933
785.929
785.925
785.921
785.917
785.913
785.908
785.903
785.898
785.893
785.887
785.882
785.876
785.871
785.865
785.859
785.854
785.848
785.843
785.837
785.832
785.827
785.822
785.817
785.811
785.806
785.8
785.795
785.789
785.783
785.777
785.771
785.765
785.759
785.753
785.746
785.74
785.734
785.727
785.72
785.714
785.707
785.7
785.693
785.685
785.678
785.671
785.664
785.657
785.65
785.644
785.637
785.631
785.624
785.618
785.611
785.604
785.598
785.591
785.583
785.576
785.568
785.561
785.553
785.545
785.537
785.53
785.522
785.514
785.506
785.499
785.491
785.484
785.476
785.468
785.461
785.453
785.445
785.437
785.43
785.422
785.414
785.406
785.398
785.39
785.383
785.375
785.367
785.359
785.351
785.343
785.335
785.327
785.318
785.31
785.302
785.294
785.286
785.278
785.27
785.261
785.253
785.245
785.236
785.228
785.22
785.212
785.203
785.195
785.186
785.178
785.17
785.161
785.153
785.144
785.136
785.127
785.119
785.11
785.102
785.093
785.085
785.076
785.068
785.059
785.05
785.042
785.033
785.025
785.016
785.007
784.999
784.99
784.981
784.973
784.964
784.955
784.946
784.938
784.929
784.92
784.912
784.903
784.894
784.885
784.877
784.868
784.859
784.85
784.842
784.833
784.824
784.815
784.807
784.798
784.789
784.78
784.771
784.763
784.754
784.745
784.736
784.727
784.719
784.71
784.701
784.692
784.684
784.675
784.666
784.657
784.649
784.64
784.631
784.622
784.614
784.605
784.596
784.587
784.579
784.57
784.561
784.552
784.544
784.535
784.526
784.518
784.509
784.5
784.492
784.483
784.475
784.466
784.457
784.449
784.44
784.432
784.423
784.415
784.406
784.397
784.389
784.38
784.372
784.364
784.355
784.347
784.338
784.33
784.322
784.313
784.305
784.296
784.288
784.28
784.272
784.263
784.255
784.247
784.239
784.231
784.222
784.214
784.206
784.198
784.19
784.182
784.174
784.166
784.158
784.15
784.142
784.134
784.126
784.119
784.111
784.103
784.095
784.088
784.08
784.072
784.065
784.057
784.049
784.042
784.034
784.027
784.019
784.012
784.004
783.997
783.99
783.982
783.975
783.968
783.961
783.953
783.946
783.939
783.932
783.925
783.918
783.911
783.904
783.897
783.89
783.883
783.876
783.87
783.863
783.856
783.85
783.842
783.837
783.829
783.824
783.816
783.811
783.803
783.798
783.79
783.786
783.777
783.773
783.765
783.761
783.753
783.749
783.74
783.736
783.728
783.725
783.716
783.713
783.705
783.701
783.694
787.337
787.305
787.246
787.186
787.126
787.064
787.003
786.942
786.882
786.823
786.765
786.708
786.654
786.602
786.552
786.505
786.461
786.419
786.38
786.345
786.311
786.281
786.253
786.229
786.207
786.187
786.17
786.155
786.143
786.133
786.125
786.119
786.114
786.11
786.106
786.104
786.102
786.101
786.1
786.099
786.099
786.098
786.098
786.097
786.097
786.096
786.095
786.094
786.093
786.092
786.091
786.09
786.089
786.088
786.086
786.085
786.083
786.082
786.08
786.079
786.077
786.075
786.073
786.071
786.069
786.067
786.065
786.063
786.06
786.058
786.056
786.053
786.051
786.048
786.045
786.042
786.04
786.037
786.034
786.031
786.028
786.025
786.021
786.018
786.015
786.011
786.008
786.004
786.001
785.997
785.993
785.99
785.986
785.982
785.978
785.974
785.97
785.966
785.962
785.957
785.953
785.949
785.945
785.941