/*--------------------------------*- C++ -*----------------------------------*\
| =========                 |                                                 |
| \\      /  F ield         | OpenFOAM: The Open Source CFD Toolbox           |
|  \\    /   O peration     | Version:  3.0.x                                 |
|   \\  /    A nd           | Web:      www.OpenFOAM.org                      |
|    \\/     M anipulation  |                                                 |
\*---------------------------------------------------------------------------*/
FoamFile
{
    version     2.0;
    format      ascii;
    class       volScalarField;
    location    "0.31995";
    object      rho;
}
// * * * * * * * * * * * * * * * * * * * * * * * * * * * * * * * * * * * * * //

dimensions      [1 -3 0 0 0 0 0];

internalField   nonuniform List<scalar> 
13800
(
50.609
50.609
50.609
50.609
50.609
50.609
50.6091
50.6091
50.6091
50.6091
50.6091
50.6091
50.6091
50.6091
50.609
50.609
50.6089
50.6088
50.6088
50.6088
50.6089
50.609
50.6092
50.6093
50.6094
50.6095
50.6095
50.6095
50.6095
50.6096
50.6096
50.6096
50.6096
50.6096
50.6095
50.6095
50.6094
50.6093
50.6093
50.6093
50.6093
50.6094
50.6095
50.6096
50.6097
50.6097
50.6097
50.6097
50.6097
50.6097
50.6098
50.6098
50.61
50.6101
50.6102
50.6103
50.6104
50.6104
50.6105
50.6106
50.6106
50.6106
50.6107
50.6107
50.6107
50.6106
50.6105
50.6105
50.6104
50.6104
50.6104
50.6105
50.6106
50.6107
50.6108
50.611
50.6111
50.6111
50.6112
50.6112
50.6113
50.6113
50.6113
50.6114
50.6114
50.6114
50.6114
50.6114
50.6114
50.6114
50.6115
50.6115
50.6115
50.6115
50.6115
50.6115
50.6116
50.6116
50.6116
50.6116
50.6116
50.6116
50.6117
50.6117
50.6117
50.6117
50.6117
50.6118
50.6118
50.6118
50.6118
50.6119
50.6119
50.6119
50.612
50.612
50.612
50.6121
50.6121
50.6121
50.6122
50.6122
50.6123
50.6124
50.6124
50.6125
50.6126
50.6126
50.6127
50.6128
50.6129
50.613
50.6132
50.6133
50.6134
50.6136
50.6137
50.6139
50.6141
50.6143
50.6145
50.6147
50.615
50.6152
50.6155
50.6157
50.616
50.6163
50.6167
50.617
50.6173
50.6177
50.618
50.6184
50.6188
50.6192
50.6196
50.62
50.6203
50.6207
50.6211
50.6215
50.6219
50.6223
50.6226
50.623
50.6233
50.6236
50.6239
50.6242
50.6244
50.6246
50.6248
50.6249
50.6251
50.6251
50.6252
50.6252
50.6252
50.6251
50.625
50.6248
50.6246
50.6244
50.6241
50.6238
50.6234
50.623
50.6226
50.6221
50.6216
50.621
50.6204
50.6198
50.6192
50.6186
50.618
50.6175
50.6204
50.6108
50.6101
50.6101
50.6101
50.6101
50.6101
50.6101
50.6101
50.6101
50.6101
50.6101
50.6101
50.6101
50.6101
50.6101
50.6101
50.61
50.6099
50.6099
50.6098
50.6098
50.6099
50.61
50.6101
50.6103
50.6104
50.6105
50.6105
50.6105
50.6105
50.6105
50.6105
50.6105
50.6105
50.6105
50.6105
50.6104
50.6103
50.6102
50.6102
50.6102
50.6102
50.6103
50.6104
50.6105
50.6106
50.6106
50.6106
50.6106
50.6106
50.6106
50.6106
50.6107
50.6108
50.611
50.6111
50.6112
50.6112
50.6113
50.6113
50.6114
50.6114
50.6115
50.6115
50.6115
50.6115
50.6114
50.6113
50.6113
50.6112
50.6112
50.6112
50.6113
50.6114
50.6115
50.6116
50.6117
50.6118
50.6119
50.612
50.612
50.612
50.6121
50.6121
50.6121
50.6121
50.6121
50.6121
50.6121
50.6121
50.6121
50.6122
50.6122
50.6122
50.6122
50.6122
50.6122
50.6122
50.6122
50.6123
50.6123
50.6123
50.6123
50.6123
50.6123
50.6124
50.6124
50.6124
50.6124
50.6125
50.6125
50.6125
50.6125
50.6126
50.6126
50.6126
50.6127
50.6127
50.6127
50.6128
50.6128
50.6129
50.6129
50.613
50.613
50.6131
50.6132
50.6132
50.6133
50.6134
50.6135
50.6136
50.6137
50.6138
50.614
50.6141
50.6143
50.6144
50.6146
50.6148
50.615
50.6152
50.6154
50.6156
50.6159
50.6162
50.6164
50.6167
50.617
50.6173
50.6177
50.618
50.6184
50.6187
50.6191
50.6195
50.6199
50.6202
50.6206
50.621
50.6214
50.6218
50.6222
50.6226
50.6229
50.6233
50.6236
50.624
50.6243
50.6246
50.6248
50.6251
50.6253
50.6255
50.6256
50.6257
50.6258
50.6259
50.6259
50.6259
50.6258
50.6257
50.6255
50.6253
50.6251
50.6248
50.6245
50.6241
50.6237
50.6232
50.6228
50.6222
50.6217
50.6211
50.6205
50.6199
50.6193
50.6187
50.618
50.6212
50.6079
50.6101
50.6101
50.6101
50.6101
50.6101
50.6101
50.6101
50.6101
50.6101
50.6101
50.6101
50.6101
50.6101
50.6101
50.6101
50.61
50.6099
50.6099
50.6098
50.6098
50.6099
50.61
50.6101
50.6103
50.6104
50.6105
50.6105
50.6105
50.6105
50.6105
50.6105
50.6105
50.6105
50.6105
50.6105
50.6104
50.6103
50.6102
50.6102
50.6102
50.6102
50.6103
50.6104
50.6105
50.6106
50.6106
50.6106
50.6106
50.6106
50.6106
50.6106
50.6107
50.6108
50.611
50.6111
50.6112
50.6112
50.6113
50.6113
50.6114
50.6114
50.6115
50.6115
50.6115
50.6115
50.6114
50.6113
50.6113
50.6112
50.6112
50.6112
50.6113
50.6114
50.6115
50.6116
50.6117
50.6118
50.6119
50.612
50.612
50.612
50.6121
50.6121
50.6121
50.6121
50.6121
50.6121
50.6121
50.6121
50.6121
50.6122
50.6122
50.6122
50.6122
50.6122
50.6122
50.6122
50.6122
50.6123
50.6123
50.6123
50.6123
50.6123
50.6123
50.6124
50.6124
50.6124
50.6124
50.6125
50.6125
50.6125
50.6125
50.6126
50.6126
50.6126
50.6127
50.6127
50.6127
50.6128
50.6128
50.6129
50.6129
50.613
50.613
50.6131
50.6132
50.6132
50.6133
50.6134
50.6135
50.6136
50.6137
50.6138
50.614
50.6141
50.6143
50.6144
50.6146
50.6148
50.615
50.6152
50.6154
50.6156
50.6159
50.6162
50.6164
50.6167
50.617
50.6173
50.6177
50.618
50.6184
50.6187
50.6191
50.6195
50.6199
50.6202
50.6206
50.621
50.6214
50.6218
50.6222
50.6226
50.6229
50.6233
50.6236
50.624
50.6243
50.6246
50.6248
50.6251
50.6253
50.6255
50.6256
50.6257
50.6258
50.6259
50.6259
50.6259
50.6258
50.6257
50.6255
50.6253
50.6251
50.6248
50.6245
50.6241
50.6237
50.6232
50.6228
50.6222
50.6217
50.6211
50.6205
50.6199
50.6193
50.6187
50.618
50.6211
50.6083
50.6101
50.6101
50.6101
50.6101
50.6101
50.6101
50.6101
50.6101
50.6101
50.6101
50.6101
50.6101
50.6101
50.6101
50.6101
50.61
50.6099
50.6098
50.6098
50.6098
50.6099
50.61
50.6101
50.6103
50.6104
50.6105
50.6105
50.6105
50.6105
50.6105
50.6105
50.6105
50.6105
50.6105
50.6105
50.6104
50.6103
50.6102
50.6102
50.6102
50.6102
50.6103
50.6104
50.6105
50.6106
50.6106
50.6106
50.6106
50.6106
50.6106
50.6106
50.6107
50.6108
50.611
50.6111
50.6112
50.6112
50.6113
50.6113
50.6114
50.6114
50.6115
50.6115
50.6115
50.6115
50.6114
50.6113
50.6113
50.6112
50.6112
50.6112
50.6113
50.6114
50.6115
50.6116
50.6117
50.6118
50.6119
50.612
50.612
50.612
50.6121
50.6121
50.6121
50.6121
50.6121
50.6121
50.6121
50.6121
50.6121
50.6122
50.6122
50.6122
50.6122
50.6122
50.6122
50.6122
50.6122
50.6123
50.6123
50.6123
50.6123
50.6123
50.6123
50.6124
50.6124
50.6124
50.6124
50.6125
50.6125
50.6125
50.6125
50.6126
50.6126
50.6126
50.6127
50.6127
50.6127
50.6128
50.6128
50.6129
50.6129
50.613
50.613
50.6131
50.6132
50.6132
50.6133
50.6134
50.6135
50.6136
50.6137
50.6138
50.614
50.6141
50.6143
50.6144
50.6146
50.6148
50.615
50.6152
50.6154
50.6156
50.6159
50.6162
50.6164
50.6167
50.617
50.6173
50.6177
50.618
50.6184
50.6187
50.6191
50.6195
50.6199
50.6202
50.6206
50.621
50.6214
50.6218
50.6222
50.6226
50.6229
50.6233
50.6236
50.624
50.6243
50.6246
50.6248
50.6251
50.6253
50.6255
50.6256
50.6257
50.6258
50.6259
50.6259
50.6259
50.6258
50.6257
50.6255
50.6253
50.6251
50.6248
50.6245
50.6241
50.6237
50.6232
50.6228
50.6222
50.6217
50.6211
50.6205
50.6199
50.6193
50.6187
50.6181
50.6205
50.6122
50.6101
50.6101
50.6101
50.6101
50.6101
50.6101
50.6101
50.6101
50.6101
50.6101
50.6101
50.6101
50.6101
50.6101
50.6101
50.61
50.6099
50.6098
50.6098
50.6098
50.6098
50.61
50.6101
50.6103
50.6104
50.6104
50.6105
50.6105
50.6105
50.6105
50.6105
50.6105
50.6105
50.6105
50.6105
50.6104
50.6103
50.6102
50.6102
50.6102
50.6102
50.6103
50.6104
50.6105
50.6106
50.6106
50.6106
50.6106
50.6106
50.6106
50.6106
50.6107
50.6108
50.611
50.6111
50.6112
50.6112
50.6113
50.6113
50.6114
50.6114
50.6115
50.6115
50.6115
50.6115
50.6114
50.6113
50.6113
50.6112
50.6112
50.6112
50.6113
50.6114
50.6115
50.6116
50.6117
50.6118
50.6119
50.612
50.612
50.612
50.6121
50.6121
50.6121
50.6121
50.6121
50.6121
50.6121
50.6121
50.6121
50.6122
50.6122
50.6122
50.6122
50.6122
50.6122
50.6122
50.6122
50.6123
50.6123
50.6123
50.6123
50.6123
50.6123
50.6124
50.6124
50.6124
50.6124
50.6125
50.6125
50.6125
50.6125
50.6126
50.6126
50.6126
50.6127
50.6127
50.6127
50.6128
50.6128
50.6129
50.6129
50.613
50.613
50.6131
50.6132
50.6132
50.6133
50.6134
50.6135
50.6136
50.6137
50.6138
50.614
50.6141
50.6143
50.6144
50.6146
50.6148
50.615
50.6152
50.6154
50.6156
50.6159
50.6162
50.6164
50.6167
50.617
50.6173
50.6177
50.618
50.6184
50.6187
50.6191
50.6195
50.6199
50.6202
50.6206
50.621
50.6214
50.6218
50.6222
50.6226
50.6229
50.6233
50.6236
50.624
50.6243
50.6246
50.6248
50.6251
50.6253
50.6255
50.6256
50.6257
50.6258
50.6259
50.6259
50.6259
50.6258
50.6257
50.6255
50.6253
50.6251
50.6248
50.6245
50.6241
50.6237
50.6232
50.6228
50.6222
50.6217
50.6211
50.6205
50.6199
50.6192
50.6186
50.6179
50.6187
50.6102
50.6101
50.6101
50.6101
50.6101
50.6101
50.6101
50.6101
50.6101
50.6101
50.6101
50.6101
50.6101
50.6101
50.6101
50.6101
50.61
50.6099
50.6098
50.6098
50.6098
50.6098
50.61
50.6101
50.6103
50.6104
50.6104
50.6105
50.6105
50.6105
50.6105
50.6105
50.6105
50.6105
50.6105
50.6105
50.6104
50.6103
50.6102
50.6102
50.6102
50.6102
50.6103
50.6104
50.6105
50.6106
50.6106
50.6106
50.6106
50.6106
50.6106
50.6106
50.6107
50.6108
50.611
50.6111
50.6112
50.6112
50.6113
50.6113
50.6114
50.6114
50.6115
50.6115
50.6115
50.6115
50.6114
50.6113
50.6113
50.6112
50.6112
50.6112
50.6113
50.6114
50.6115
50.6116
50.6117
50.6118
50.6119
50.612
50.612
50.612
50.6121
50.6121
50.6121
50.6121
50.6121
50.6121
50.6121
50.6121
50.6121
50.6122
50.6122
50.6122
50.6122
50.6122
50.6122
50.6122
50.6122
50.6123
50.6123
50.6123
50.6123
50.6123
50.6123
50.6124
50.6124
50.6124
50.6124
50.6125
50.6125
50.6125
50.6125
50.6126
50.6126
50.6126
50.6127
50.6127
50.6127
50.6128
50.6128
50.6129
50.6129
50.613
50.613
50.6131
50.6132
50.6132
50.6133
50.6134
50.6135
50.6136
50.6137
50.6138
50.614
50.6141
50.6143
50.6144
50.6146
50.6148
50.615
50.6152
50.6154
50.6156
50.6159
50.6162
50.6164
50.6167
50.617
50.6173
50.6177
50.618
50.6184
50.6187
50.6191
50.6195
50.6199
50.6202
50.6206
50.621
50.6214
50.6218
50.6222
50.6226
50.6229
50.6233
50.6236
50.624
50.6243
50.6246
50.6248
50.6251
50.6253
50.6255
50.6256
50.6257
50.6258
50.6259
50.6259
50.6259
50.6258
50.6257
50.6255
50.6253
50.6251
50.6248
50.6245
50.6241
50.6237
50.6232
50.6228
50.6222
50.6217
50.6211
50.6205
50.6199
50.6192
50.6185
50.6176
50.616
50.6135
50.6101
50.6101
50.6101
50.6101
50.6101
50.6101
50.6101
50.6101
50.6101
50.6101
50.6101
50.6101
50.6101
50.6101
50.6101
50.61
50.6099
50.6098
50.6098
50.6098
50.6099
50.61
50.6101
50.6103
50.6104
50.6105
50.6105
50.6105
50.6105
50.6105
50.6105
50.6105
50.6105
50.6105
50.6105
50.6104
50.6103
50.6102
50.6102
50.6102
50.6102
50.6103
50.6104
50.6105
50.6106
50.6106
50.6106
50.6106
50.6106
50.6106
50.6106
50.6107
50.6108
50.611
50.6111
50.6112
50.6112
50.6113
50.6113
50.6114
50.6114
50.6115
50.6115
50.6115
50.6115
50.6114
50.6113
50.6113
50.6112
50.6112
50.6112
50.6113
50.6114
50.6115
50.6116
50.6117
50.6118
50.6119
50.612
50.612
50.612
50.6121
50.6121
50.6121
50.6121
50.6121
50.6121
50.6121
50.6121
50.6121
50.6122
50.6122
50.6122
50.6122
50.6122
50.6122
50.6122
50.6122
50.6123
50.6123
50.6123
50.6123
50.6123
50.6123
50.6124
50.6124
50.6124
50.6124
50.6125
50.6125
50.6125
50.6125
50.6126
50.6126
50.6126
50.6127
50.6127
50.6127
50.6128
50.6128
50.6129
50.6129
50.613
50.613
50.6131
50.6132
50.6132
50.6133
50.6134
50.6135
50.6136
50.6137
50.6138
50.614
50.6141
50.6143
50.6144
50.6146
50.6148
50.615
50.6152
50.6154
50.6156
50.6159
50.6162
50.6164
50.6167
50.617
50.6173
50.6177
50.618
50.6184
50.6187
50.6191
50.6195
50.6199
50.6202
50.6206
50.621
50.6214
50.6218
50.6222
50.6226
50.6229
50.6233
50.6236
50.624
50.6243
50.6246
50.6248
50.6251
50.6253
50.6255
50.6256
50.6257
50.6258
50.6259
50.6259
50.6259
50.6258
50.6257
50.6255
50.6253
50.6251
50.6248
50.6245
50.6241
50.6237
50.6232
50.6228
50.6222
50.6217
50.6211
50.6205
50.6199
50.6192
50.6183
50.6176
50.613
50.6241
50.6101
50.6101
50.6101
50.6101
50.6101
50.6101
50.6101
50.6101
50.6101
50.6101
50.6101
50.6101
50.6101
50.6101
50.6101
50.61
50.6099
50.6099
50.6098
50.6098
50.6099
50.61
50.6101
50.6103
50.6104
50.6105
50.6105
50.6105
50.6105
50.6105
50.6105
50.6105
50.6105
50.6105
50.6105
50.6104
50.6103
50.6102
50.6102
50.6102
50.6102
50.6103
50.6104
50.6105
50.6106
50.6106
50.6106
50.6106
50.6106
50.6106
50.6106
50.6107
50.6108
50.611
50.6111
50.6112
50.6112
50.6113
50.6113
50.6114
50.6114
50.6115
50.6115
50.6115
50.6115
50.6114
50.6113
50.6113
50.6112
50.6112
50.6112
50.6113
50.6114
50.6115
50.6116
50.6117
50.6118
50.6119
50.612
50.612
50.612
50.6121
50.6121
50.6121
50.6121
50.6121
50.6121
50.6121
50.6121
50.6121
50.6122
50.6122
50.6122
50.6122
50.6122
50.6122
50.6122
50.6122
50.6123
50.6123
50.6123
50.6123
50.6123
50.6123
50.6124
50.6124
50.6124
50.6124
50.6125
50.6125
50.6125
50.6125
50.6126
50.6126
50.6126
50.6127
50.6127
50.6127
50.6128
50.6128
50.6129
50.6129
50.613
50.613
50.6131
50.6132
50.6132
50.6133
50.6134
50.6135
50.6136
50.6137
50.6138
50.614
50.6141
50.6143
50.6144
50.6146
50.6148
50.615
50.6152
50.6154
50.6156
50.6159
50.6162
50.6164
50.6167
50.617
50.6173
50.6177
50.618
50.6184
50.6187
50.6191
50.6195
50.6199
50.6202
50.6206
50.621
50.6214
50.6218
50.6222
50.6226
50.6229
50.6233
50.6236
50.624
50.6243
50.6246
50.6248
50.6251
50.6253
50.6255
50.6256
50.6257
50.6258
50.6259
50.6259
50.6259
50.6258
50.6257
50.6255
50.6253
50.6251
50.6248
50.6245
50.6241
50.6237
50.6232
50.6228
50.6222
50.6217
50.6211
50.6205
50.6199
50.6192
50.6183
50.6181
50.61
50.6532
50.6101
50.6101
50.6101
50.6101
50.6101
50.6101
50.6101
50.6101
50.6101
50.6101
50.6101
50.6101
50.6101
50.6101
50.6101
50.61
50.6099
50.6099
50.6098
50.6098
50.6099
50.61
50.6101
50.6103
50.6104
50.6105
50.6105
50.6105
50.6105
50.6105
50.6105
50.6105
50.6105
50.6105
50.6105
50.6104
50.6103
50.6102
50.6102
50.6102
50.6102
50.6103
50.6104
50.6105
50.6106
50.6106
50.6106
50.6106
50.6106
50.6106
50.6106
50.6107
50.6108
50.611
50.6111
50.6112
50.6112
50.6113
50.6113
50.6114
50.6114
50.6115
50.6115
50.6115
50.6115
50.6114
50.6113
50.6113
50.6112
50.6112
50.6112
50.6113
50.6114
50.6115
50.6116
50.6117
50.6118
50.6119
50.612
50.612
50.612
50.6121
50.6121
50.6121
50.6121
50.6121
50.6121
50.6121
50.6121
50.6121
50.6122
50.6122
50.6122
50.6122
50.6122
50.6122
50.6122
50.6122
50.6123
50.6123
50.6123
50.6123
50.6123
50.6123
50.6124
50.6124
50.6124
50.6124
50.6125
50.6125
50.6125
50.6125
50.6126
50.6126
50.6126
50.6127
50.6127
50.6127
50.6128
50.6128
50.6129
50.6129
50.613
50.613
50.6131
50.6132
50.6132
50.6133
50.6134
50.6135
50.6136
50.6137
50.6138
50.614
50.6141
50.6143
50.6144
50.6146
50.6148
50.615
50.6152
50.6154
50.6156
50.6159
50.6162
50.6164
50.6167
50.617
50.6173
50.6177
50.618
50.6184
50.6187
50.6191
50.6195
50.6199
50.6202
50.6206
50.621
50.6214
50.6218
50.6222
50.6226
50.6229
50.6233
50.6236
50.624
50.6243
50.6246
50.6248
50.6251
50.6253
50.6255
50.6256
50.6257
50.6258
50.6259
50.6259
50.6259
50.6258
50.6257
50.6255
50.6253
50.6251
50.6248
50.6245
50.6241
50.6237
50.6232
50.6228
50.6222
50.6217
50.6211
50.6205
50.6199
50.6192
50.6183
50.6183
50.6082
50.6686
50.609
50.609
50.609
50.609
50.609
50.609
50.6091
50.6091
50.6091
50.6091
50.6091
50.6091
50.6091
50.6091
50.609
50.609
50.6089
50.6088
50.6088
50.6088
50.6089
50.609
50.6092
50.6093
50.6094
50.6095
50.6095
50.6095
50.6095
50.6096
50.6096
50.6096
50.6096
50.6096
50.6095
50.6095
50.6094
50.6093
50.6093
50.6093
50.6093
50.6094
50.6095
50.6096
50.6097
50.6097
50.6097
50.6097
50.6097
50.6097
50.6098
50.6098
50.61
50.6101
50.6102
50.6103
50.6104
50.6104
50.6105
50.6106
50.6106
50.6106
50.6107
50.6107
50.6107
50.6106
50.6105
50.6105
50.6104
50.6104
50.6104
50.6105
50.6106
50.6107
50.6108
50.611
50.6111
50.6111
50.6112
50.6112
50.6113
50.6113
50.6113
50.6114
50.6114
50.6114
50.6114
50.6114
50.6114
50.6114
50.6115
50.6115
50.6115
50.6115
50.6115
50.6115
50.6116
50.6116
50.6116
50.6116
50.6116
50.6116
50.6117
50.6117
50.6117
50.6117
50.6117
50.6118
50.6118
50.6118
50.6118
50.6119
50.6119
50.6119
50.612
50.612
50.612
50.6121
50.6121
50.6121
50.6122
50.6122
50.6123
50.6124
50.6124
50.6125
50.6126
50.6126
50.6127
50.6128
50.6129
50.613
50.6132
50.6133
50.6134
50.6136
50.6137
50.6139
50.6141
50.6143
50.6145
50.6147
50.615
50.6152
50.6155
50.6157
50.616
50.6163
50.6167
50.617
50.6173
50.6177
50.618
50.6184
50.6188
50.6192
50.6196
50.62
50.6203
50.6207
50.6211
50.6215
50.6219
50.6223
50.6226
50.623
50.6233
50.6236
50.6239
50.6242
50.6244
50.6246
50.6248
50.6249
50.6251
50.6251
50.6252
50.6252
50.6252
50.6251
50.625
50.6248
50.6246
50.6244
50.6241
50.6238
50.6234
50.623
50.6226
50.6221
50.6216
50.621
50.6204
50.6198
50.6192
50.6185
50.6176
50.6178
50.6061
50.6818
50.7059
50.7453
50.7582
50.7598
50.7592
50.7588
50.758
50.7567
50.7549
50.753
50.7509
50.7487
50.7462
50.7434
50.7399
50.7356
50.73
50.7224
50.7118
50.6956
50.7006
50.7353
50.7488
50.7511
50.7508
50.7506
50.7501
50.7491
50.7475
50.7459
50.744
50.7421
50.7397
50.737
50.7336
50.7294
50.7236
50.716
50.7052
50.689
50.6951
50.7301
50.7455
50.7487
50.7486
50.7485
50.7479
50.7467
50.745
50.7433
50.7413
50.7392
50.7368
50.734
50.7306
50.7264
50.7204
50.7123
50.7008
50.6833
50.6767
50.6964
50.7026
50.7018
50.7004
50.6993
50.6981
50.6964
50.6944
50.6923
50.6901
50.6878
50.6851
50.6819
50.678
50.6733
50.6681
50.6604
50.6503
50.6361
50.6455
50.6579
50.6671
50.6736
50.6781
50.681
50.6822
50.6825
50.6821
50.6813
50.6799
50.6779
50.6753
50.672
50.6679
50.6627
50.6559
50.6481
50.6391
50.6284
50.5924
50.5827
50.5722
50.5613
50.5512
50.5427
50.5363
50.531
50.5266
50.5229
50.5199
50.5178
50.5159
50.5145
50.5129
50.5116
50.511
50.5115
50.5124
50.5162
50.5338
50.5122
50.5049
50.5055
50.5069
50.5076
50.5078
50.5084
50.5086
50.509
50.5089
50.5089
50.5084
50.5082
50.5079
50.5087
50.5098
50.513
50.5187
50.5295
50.4641
50.4067
50.3632
50.3338
50.3137
50.2981
50.2859
50.2771
50.2711
50.2675
50.2657
50.2656
50.2674
50.2715
50.2793
50.2894
50.305
50.3226
50.3485
50.38
50.4492
50.3869
50.3481
50.326
50.3111
50.2999
50.2908
50.2848
50.281
50.2798
50.2799
50.2817
50.2849
50.2903
50.2985
50.3096
50.3243
50.342
50.3657
50.3955
50.4305
50.3436
50.2949
50.2664
50.2471
50.2308
50.2173
50.2074
50.2014
50.1961
50.194
50.1928
50.1949
50.1984
50.2061
50.2174
50.2325
50.2524
50.2785
50.3142
50.626
50.5855
50.5739
50.5702
50.5686
50.5677
50.567
50.5665
50.5659
50.5653
50.5647
50.5642
50.5636
50.5631
50.5627
50.5622
50.5618
50.5614
50.5609
50.5605
50.5601
50.5597
50.5593
50.5589
50.5585
50.5581
50.5578
50.5575
50.5572
50.5569
50.5567
50.5564
50.5562
50.556
50.5557
50.5555
50.5553
50.5551
50.5549
50.5548
50.5546
50.5545
50.5544
50.5543
50.5542
50.5541
50.554
50.5538
50.5537
50.5535
50.5535
50.5534
50.5533
50.5533
50.5533
50.5533
50.5533
50.5533
50.5533
50.5533
50.5533
50.5533
50.5533
50.5533
50.5533
50.5533
50.5534
50.5534
50.5535
50.5535
50.5535
50.5535
50.5535
50.5535
50.5535
50.5535
50.5535
50.5535
50.5536
50.5536
50.5537
50.5537
50.5537
50.5538
50.5538
50.5538
50.5539
50.5539
50.5539
50.554
50.5541
50.5542
50.5543
50.5545
50.5546
50.5548
50.5549
50.555
50.5552
50.5553
50.5555
50.5559
50.5564
50.5571
50.5579
50.5585
50.5591
50.5595
50.5599
50.5602
50.5603
50.5605
50.5603
50.559
50.5534
50.5336
50.4924
50.4493
50.409
50.3744
50.3473
50.3286
50.3179
50.3138
50.3136
50.3171
50.3347
50.3789
50.4246
50.4638
50.4954
50.5197
50.5373
50.5494
50.5573
50.562
50.5647
50.566
50.5665
50.5666
50.5665
50.5661
50.5656
50.5652
50.5649
50.5647
50.5646
50.5645
50.5644
50.5643
50.5643
50.5642
50.5642
50.5642
50.5643
50.5643
50.5643
50.5644
50.5645
50.5645
50.5646
50.5647
50.5648
50.5649
50.565
50.5651
50.5652
50.5653
50.5655
50.5656
50.5658
50.5659
50.5661
50.5662
50.5664
50.5666
50.5667
50.5669
50.5671
50.5674
50.5676
50.5678
50.568
50.5683
50.5685
50.5688
50.569
50.5693
50.5696
50.5699
50.5701
50.5704
50.5707
50.571
50.5713
50.5716
50.5715
50.5721
50.5625
50.6174
50.626
50.5879
50.5766
50.5732
50.5717
50.5708
50.5702
50.5697
50.5691
50.5685
50.568
50.5674
50.5669
50.5663
50.5659
50.5654
50.565
50.5646
50.5642
50.5638
50.5634
50.563
50.5626
50.5621
50.5618
50.5614
50.561
50.5607
50.5604
50.5602
50.5599
50.5597
50.5595
50.5592
50.559
50.5588
50.5586
50.5584
50.5582
50.558
50.5579
50.5577
50.5576
50.5575
50.5574
50.5573
50.5573
50.5571
50.557
50.5569
50.5568
50.5567
50.5566
50.5566
50.5566
50.5565
50.5565
50.5566
50.5566
50.5566
50.5566
50.5566
50.5566
50.5566
50.5566
50.5567
50.5567
50.5567
50.5568
50.5568
50.5569
50.5569
50.5569
50.5569
50.5569
50.5569
50.5569
50.5569
50.5569
50.557
50.557
50.5571
50.5571
50.5572
50.5572
50.5572
50.5572
50.5573
50.5573
50.5574
50.5574
50.5575
50.5576
50.5577
50.5578
50.5579
50.558
50.5582
50.5583
50.5585
50.5587
50.559
50.5593
50.5596
50.5599
50.5602
50.5605
50.5607
50.561
50.5613
50.5619
50.5633
50.5663
50.5696
50.5727
50.5753
50.5773
50.5785
50.579
50.5792
50.5788
50.5765
50.5685
50.557
50.5468
50.5388
50.5334
50.5304
50.5295
50.5296
50.5309
50.5362
50.5437
50.5501
50.5551
50.5589
50.5615
50.5633
50.5644
50.5651
50.5654
50.5656
50.5656
50.5656
50.5655
50.5653
50.5652
50.5651
50.565
50.565
50.5649
50.5649
50.5649
50.5649
50.565
50.565
50.565
50.5651
50.5651
50.5652
50.5653
50.5654
50.5655
50.5656
50.5657
50.5658
50.5659
50.566
50.5662
50.5663
50.5664
50.5666
50.5667
50.5669
50.5671
50.5672
50.5674
50.5676
50.5678
50.568
50.5682
50.5685
50.5687
50.5689
50.5692
50.5694
50.5697
50.57
50.5703
50.5705
50.5708
50.5711
50.5714
50.5717
50.572
50.5722
50.5722
50.5727
50.5642
50.608
50.6259
50.589
50.5771
50.5731
50.5713
50.5703
50.5696
50.569
50.5684
50.5679
50.5673
50.5668
50.5662
50.5657
50.5652
50.5647
50.5643
50.5639
50.5635
50.5631
50.5627
50.5623
50.5619
50.5615
50.5611
50.5607
50.5604
50.56
50.5597
50.5595
50.5592
50.559
50.5588
50.5585
50.5583
50.5581
50.5579
50.5577
50.5575
50.5573
50.5572
50.5571
50.5569
50.5568
50.5568
50.5567
50.5566
50.5565
50.5564
50.5562
50.5561
50.556
50.556
50.5559
50.5559
50.5558
50.5558
50.5559
50.5559
50.5559
50.5559
50.5559
50.5559
50.5559
50.556
50.556
50.556
50.5561
50.5561
50.5561
50.5562
50.5562
50.5562
50.5562
50.5562
50.5562
50.5562
50.5562
50.5563
50.5563
50.5563
50.5564
50.5564
50.5565
50.5565
50.5566
50.5566
50.5566
50.5567
50.5567
50.5568
50.5568
50.5569
50.557
50.5571
50.5572
50.5573
50.5574
50.5576
50.5577
50.5579
50.5581
50.5584
50.5587
50.5591
50.5594
50.5596
50.5599
50.5602
50.5604
50.5608
50.5613
50.5628
50.5669
50.5725
50.5778
50.5823
50.5858
50.5881
50.5895
50.59
50.5901
50.5898
50.5874
50.5804
50.5723
50.5653
50.5598
50.556
50.5538
50.5529
50.5528
50.5531
50.5545
50.5572
50.5596
50.5615
50.5629
50.5639
50.5645
50.5649
50.5651
50.5652
50.5653
50.5653
50.5652
50.5651
50.565
50.565
50.5649
50.5649
50.5649
50.5649
50.5649
50.5649
50.565
50.565
50.5651
50.5651
50.5652
50.5653
50.5654
50.5655
50.5656
50.5657
50.5658
50.5659
50.566
50.5662
50.5663
50.5664
50.5666
50.5667
50.5669
50.5671
50.5672
50.5674
50.5676
50.5678
50.568
50.5682
50.5685
50.5687
50.5689
50.5692
50.5694
50.5697
50.57
50.5703
50.5705
50.5708
50.5711
50.5714
50.5717
50.572
50.5722
50.5722
50.5725
50.5657
50.5941
50.5962
50.5704
50.5632
50.5625
50.5625
50.5623
50.5619
50.5616
50.5611
50.5606
50.5601
50.5596
50.559
50.5585
50.558
50.5575
50.557
50.5566
50.5562
50.5558
50.5554
50.555
50.5547
50.5543
50.5539
50.5535
50.5532
50.5529
50.5525
50.5523
50.552
50.5517
50.5515
50.5513
50.5511
50.5509
50.5507
50.5505
50.5504
50.5502
50.55
50.5499
50.5498
50.5497
50.5496
50.5495
50.5494
50.5493
50.5492
50.5491
50.549
50.5489
50.5488
50.5488
50.5487
50.5487
50.5487
50.5487
50.5487
50.5487
50.5487
50.5487
50.5488
50.5488
50.5488
50.5488
50.5489
50.5489
50.5489
50.549
50.549
50.549
50.549
50.549
50.549
50.549
50.549
50.5491
50.5491
50.5492
50.5492
50.5492
50.5493
50.5493
50.5493
50.5494
50.5494
50.5495
50.5495
50.5496
50.5497
50.5498
50.55
50.5501
50.5502
50.5504
50.5505
50.5507
50.5509
50.5512
50.5516
50.5521
50.5526
50.553
50.5534
50.5537
50.5539
50.5542
50.5545
50.5549
50.5559
50.5581
50.5608
50.5635
50.5659
50.568
50.5695
50.5706
50.5712
50.5715
50.5716
50.5715
50.5704
50.568
50.5657
50.5638
50.5623
50.5613
50.5607
50.5606
50.5606
50.5607
50.561
50.5619
50.5627
50.5633
50.5637
50.5641
50.5643
50.5645
50.5645
50.5646
50.5646
50.5646
50.5646
50.5646
50.5646
50.5646
50.5646
50.5646
50.5646
50.5647
50.5647
50.5648
50.5648
50.5649
50.5649
50.565
50.5651
50.5652
50.5653
50.5654
50.5655
50.5656
50.5657
50.5658
50.5659
50.566
50.5662
50.5663
50.5664
50.5666
50.5667
50.5669
50.5671
50.5672
50.5674
50.5676
50.5678
50.568
50.5682
50.5685
50.5687
50.5689
50.5692
50.5694
50.5697
50.57
50.5703
50.5705
50.5708
50.5711
50.5714
50.5717
50.572
50.5722
50.5723
50.5718
50.5677
50.5704
50.603
50.5923
50.5858
50.5797
50.5756
50.5733
50.572
50.571
50.5703
50.5696
50.569
50.5685
50.5679
50.5674
50.5669
50.5664
50.5659
50.5654
50.565
50.5646
50.5642
50.5638
50.5634
50.5631
50.5627
50.5624
50.5621
50.5617
50.5614
50.5611
50.5608
50.5606
50.5603
50.5601
50.5599
50.5597
50.5595
50.5593
50.5592
50.559
50.5588
50.5587
50.5586
50.5584
50.5583
50.5582
50.5581
50.558
50.558
50.5579
50.5578
50.5578
50.5577
50.5577
50.5576
50.5576
50.5575
50.5575
50.5575
50.5575
50.5575
50.5575
50.5575
50.5575
50.5575
50.5575
50.5576
50.5576
50.5576
50.5577
50.5577
50.5577
50.5578
50.5578
50.5578
50.5578
50.5578
50.5579
50.5579
50.5579
50.5579
50.558
50.558
50.558
50.558
50.5581
50.5581
50.5581
50.5582
50.5582
50.5582
50.5582
50.5583
50.5583
50.5584
50.5585
50.5585
50.5586
50.5586
50.5586
50.5586
50.5587
50.5588
50.5589
50.5591
50.5593
50.5594
50.5596
50.5597
50.5598
50.5599
50.5601
50.5603
50.5606
50.561
50.5619
50.5629
50.5637
50.5644
50.5648
50.565
50.5652
50.5652
50.5651
50.5648
50.5644
50.5642
50.564
50.5638
50.5638
50.5638
50.5638
50.5639
50.564
50.5641
50.5641
50.5642
50.5642
50.5642
50.5642
50.5642
50.5643
50.5643
50.5643
50.5643
50.5643
50.5644
50.5644
50.5644
50.5645
50.5645
50.5646
50.5646
50.5647
50.5648
50.5648
50.5649
50.565
50.5651
50.5652
50.5653
50.5653
50.5654
50.5656
50.5657
50.5658
50.5659
50.566
50.5662
50.5663
50.5664
50.5666
50.5667
50.5669
50.5671
50.5672
50.5674
50.5676
50.5678
50.568
50.5682
50.5685
50.5687
50.5689
50.5692
50.5694
50.5697
50.57
50.5703
50.5705
50.5708
50.5711
50.5714
50.5717
50.572
50.5723
50.5725
50.5726
50.5718
50.5682
50.5236
50.5332
50.5387
50.543
50.5457
50.5467
50.5468
50.5466
50.5462
50.5457
50.5453
50.5448
50.5442
50.5437
50.5431
50.5426
50.5421
50.5417
50.5412
50.5409
50.5405
50.5401
50.5398
50.5394
50.5391
50.5387
50.5384
50.538
50.5377
50.5374
50.5371
50.5369
50.5367
50.5365
50.5363
50.5362
50.536
50.5358
50.5356
50.5355
50.5353
50.5351
50.535
50.5349
50.5349
50.5348
50.5347
50.5346
50.5345
50.5344
50.5343
50.5342
50.5341
50.534
50.534
50.534
50.534
50.534
50.534
50.5341
50.5341
50.5341
50.5341
50.5341
50.5342
50.5342
50.5342
50.5343
50.5343
50.5344
50.5344
50.5345
50.5345
50.5346
50.5346
50.5346
50.5347
50.5348
50.5348
50.535
50.5351
50.5353
50.5354
50.5356
50.5358
50.5361
50.5364
50.5367
50.537
50.5373
50.5376
50.5379
50.5382
50.5387
50.5391
50.5397
50.5404
50.5411
50.5419
50.5426
50.5432
50.5437
50.5442
50.5445
50.5447
50.545
50.5454
50.5462
50.5478
50.5498
50.5521
50.5545
50.5568
50.559
50.561
50.5628
50.5643
50.5655
50.5664
50.5671
50.5675
50.5677
50.5678
50.5676
50.5669
50.566
50.5652
50.5646
50.564
50.5636
50.5633
50.5631
50.563
50.5629
50.5629
50.5629
50.563
50.5631
50.5631
50.5632
50.5633
50.5634
50.5635
50.5636
50.5638
50.5639
50.564
50.564
50.5641
50.5642
50.5643
50.5644
50.5645
50.5646
50.5647
50.5648
50.5649
50.5649
50.565
50.5651
50.5652
50.5653
50.5654
50.5655
50.5657
50.5658
50.5659
50.566
50.5662
50.5663
50.5664
50.5666
50.5667
50.5669
50.5671
50.5672
50.5674
50.5676
50.5678
50.568
50.5682
50.5685
50.5687
50.5689
50.5692
50.5694
50.5697
50.57
50.5703
50.5705
50.5708
50.5711
50.5714
50.5717
50.572
50.5724
50.5728
50.5734
50.5756
50.5719
50.5657
50.5871
50.5897
50.5871
50.585
50.5837
50.5827
50.5819
50.5812
50.5805
50.5799
50.5794
50.5789
50.5784
50.5779
50.5774
50.5769
50.5765
50.576
50.5755
50.5751
50.5747
50.5743
50.5739
50.5736
50.5733
50.573
50.5727
50.5724
50.5721
50.5718
50.5716
50.5713
50.571
50.5708
50.5705
50.5703
50.5701
50.57
50.5698
50.5697
50.5696
50.5694
50.5693
50.5692
50.5691
50.569
50.5689
50.5687
50.5687
50.5686
50.5685
50.5685
50.5684
50.5684
50.5684
50.5684
50.5684
50.5684
50.5684
50.5684
50.5684
50.5683
50.5683
50.5683
50.5683
50.5683
50.5683
50.5683
50.5683
50.5684
50.5684
50.5685
50.5685
50.5685
50.5685
50.5685
50.5686
50.5686
50.5686
50.5686
50.5687
50.5687
50.5688
50.5689
50.5689
50.569
50.5691
50.5692
50.5693
50.5694
50.5694
50.5695
50.5695
50.5696
50.5696
50.5697
50.5698
50.5699
50.5699
50.57
50.5702
50.5703
50.5704
50.5704
50.5703
50.5702
50.5702
50.5702
50.5703
50.5704
50.5703
50.5698
50.5692
50.5687
50.5684
50.5683
50.5685
50.5687
50.5694
50.571
50.5727
50.5739
50.5746
50.5749
50.5749
50.5745
50.573
50.5709
50.5692
50.5677
50.5665
50.5656
50.5649
50.5644
50.564
50.5638
50.5636
50.5635
50.5635
50.5635
50.5635
50.5636
50.5637
50.5638
50.5638
50.5639
50.564
50.5641
50.5642
50.5643
50.5644
50.5645
50.5646
50.5647
50.5648
50.5648
50.5649
50.565
50.5651
50.5652
50.5653
50.5654
50.5655
50.5657
50.5658
50.5659
50.566
50.5661
50.5663
50.5664
50.5666
50.5667
50.5669
50.5671
50.5672
50.5674
50.5676
50.5678
50.568
50.5682
50.5685
50.5687
50.5689
50.5692
50.5694
50.5697
50.57
50.5703
50.5705
50.5708
50.5711
50.5714
50.5717
50.5721
50.5725
50.5731
50.5742
50.5785
50.5782
50.4891
50.5341
50.5455
50.5489
50.5493
50.5488
50.5483
50.5476
50.547
50.5465
50.5459
50.5454
50.5449
50.5444
50.5439
50.5434
50.5429
50.5424
50.5419
50.5414
50.541
50.5406
50.5403
50.54
50.5397
50.5394
50.5391
50.5387
50.5384
50.5381
50.5378
50.5375
50.5373
50.5371
50.5369
50.5367
50.5366
50.5364
50.5362
50.5361
50.5359
50.5358
50.5356
50.5355
50.5354
50.5354
50.5354
50.5354
50.5354
50.5353
50.5352
50.5351
50.5351
50.535
50.535
50.535
50.535
50.5351
50.5352
50.5353
50.5354
50.5355
50.5355
50.5356
50.5357
50.5358
50.5359
50.536
50.5361
50.5362
50.5362
50.5362
50.5363
50.5363
50.5362
50.5361
50.5361
50.5361
50.5361
50.5361
50.5362
50.5363
50.5364
50.5366
50.5368
50.537
50.5371
50.5373
50.5375