/*--------------------------------*- C++ -*----------------------------------*\
| =========                 |                                                 |
| \\      /  F ield         | OpenFOAM: The Open Source CFD Toolbox           |
|  \\    /   O peration     | Version:  3.0.x                                 |
|   \\  /    A nd           | Web:      www.OpenFOAM.org                      |
|    \\/     M anipulation  |                                                 |
\*---------------------------------------------------------------------------*/
FoamFile
{
    version     2.0;
    format      ascii;
    class       volScalarField;
    location    "0.13005";
    object      rho;
}
// * * * * * * * * * * * * * * * * * * * * * * * * * * * * * * * * * * * * * //

dimensions      [1 -3 0 0 0 0 0];

internalField   nonuniform List<scalar> 
13800
(
50.5043
50.5043
50.5043
50.5043
50.5043
50.5043
50.5043
50.5043
50.5043
50.5043
50.5042
50.5041
50.504
50.504
50.5041
50.5042
50.5045
50.5048
50.5049
50.5051
50.5052
50.5053
50.5054
50.5055
50.5056
50.5058
50.506
50.5063
50.5066
50.507
50.5074
50.5079
50.5085
50.5092
50.51
50.5109
50.5119
50.513
50.5143
50.5156
50.5171
50.5187
50.5205
50.5223
50.5242
50.5262
50.5282
50.5303
50.5324
50.5345
50.5365
50.5384
50.5403
50.542
50.5435
50.5448
50.546
50.5469
50.5476
50.548
50.5482
50.5481
50.5479
50.5475
50.5469
50.5461
50.5451
50.544
50.5428
50.5416
50.5403
50.5391
50.5378
50.5366
50.5354
50.5344
50.5334
50.5324
50.5316
50.5309
50.5303
50.5297
50.5293
50.5289
50.5286
50.5284
50.5282
50.528
50.5279
50.5279
50.5279
50.5279
50.5279
50.528
50.5281
50.5282
50.5284
50.5286
50.5289
50.5293
50.5296
50.5301
50.5306
50.5312
50.5319
50.5327
50.5336
50.5346
50.5357
50.5369
50.5382
50.5396
50.5411
50.5428
50.5445
50.5464
50.5484
50.5504
50.5525
50.5547
50.557
50.5593
50.5616
50.5639
50.5661
50.5684
50.5705
50.5725
50.5743
50.576
50.5775
50.5787
50.5797
50.5803
50.5807
50.5808
50.5806
50.58
50.5791
50.5779
50.5764
50.5746
50.5726
50.5704
50.5679
50.5654
50.5627
50.5599
50.5571
50.5544
50.5516
50.5489
50.5464
50.5439
50.5416
50.5395
50.5375
50.5358
50.5341
50.5327
50.5314
50.5303
50.5293
50.5284
50.5277
50.527
50.5265
50.526
50.5256
50.5253
50.525
50.5247
50.5245
50.5243
50.5241
50.5239
50.5238
50.5236
50.5235
50.5234
50.5232
50.5231
50.523
50.5229
50.5228
50.5227
50.5226
50.5225
50.5224
50.5224
50.5223
50.5222
50.5221
50.5221
50.522
50.522
50.522
50.5222
50.5259
50.5169
50.5048
50.5048
50.5048
50.5048
50.5047
50.5047
50.5047
50.5047
50.5047
50.5047
50.5046
50.5045
50.5044
50.5044
50.5044
50.5046
50.5049
50.5051
50.5053
50.5054
50.5055
50.5056
50.5057
50.5058
50.506
50.5062
50.5064
50.5066
50.5069
50.5073
50.5077
50.5083
50.5088
50.5095
50.5103
50.5112
50.5122
50.5133
50.5146
50.5159
50.5174
50.519
50.5207
50.5226
50.5245
50.5265
50.5285
50.5306
50.5327
50.5348
50.5368
50.5387
50.5405
50.5422
50.5438
50.5451
50.5462
50.5472
50.5478
50.5483
50.5485
50.5484
50.5482
50.5478
50.5471
50.5463
50.5454
50.5443
50.5431
50.5419
50.5406
50.5394
50.5381
50.5369
50.5357
50.5346
50.5336
50.5327
50.5319
50.5312
50.5306
50.53
50.5296
50.5292
50.5289
50.5287
50.5285
50.5283
50.5282
50.5282
50.5281
50.5282
50.5282
50.5283
50.5284
50.5285
50.5287
50.5289
50.5292
50.5295
50.5299
50.5304
50.5309
50.5315
50.5322
50.533
50.5339
50.5349
50.5359
50.5371
50.5384
50.5399
50.5414
50.5431
50.5448
50.5467
50.5486
50.5507
50.5528
50.555
50.5573
50.5596
50.5619
50.5642
50.5664
50.5686
50.5708
50.5728
50.5746
50.5763
50.5778
50.579
50.58
50.5806
50.581
50.5811
50.5808
50.5803
50.5794
50.5782
50.5767
50.5749
50.5729
50.5706
50.5682
50.5657
50.563
50.5602
50.5574
50.5546
50.5519
50.5492
50.5467
50.5442
50.5419
50.5398
50.5378
50.536
50.5344
50.533
50.5317
50.5306
50.5296
50.5287
50.528
50.5273
50.5268
50.5263
50.5259
50.5256
50.5253
50.525
50.5248
50.5246
50.5244
50.5242
50.5241
50.5239
50.5238
50.5237
50.5235
50.5234
50.5233
50.5232
50.5231
50.523
50.5229
50.5228
50.5227
50.5226
50.5226
50.5225
50.5224
50.5224
50.5223
50.5223
50.5223
50.5223
50.5262
50.5139
50.5048
50.5048
50.5048
50.5048
50.5047
50.5047
50.5047
50.5047
50.5047
50.5047
50.5046
50.5045
50.5044
50.5044
50.5044
50.5046
50.5049
50.5051
50.5053
50.5054
50.5055
50.5056
50.5057
50.5058
50.506
50.5062
50.5064
50.5066
50.5069
50.5073
50.5077
50.5083
50.5088
50.5095
50.5103
50.5112
50.5122
50.5133
50.5146
50.5159
50.5174
50.519
50.5207
50.5226
50.5245
50.5265
50.5285
50.5306
50.5327
50.5348
50.5368
50.5387
50.5405
50.5422
50.5438
50.5451
50.5462
50.5472
50.5478
50.5483
50.5485
50.5484
50.5482
50.5478
50.5471
50.5463
50.5454
50.5443
50.5431
50.5419
50.5406
50.5394
50.5381
50.5369
50.5357
50.5346
50.5336
50.5327
50.5319
50.5312
50.5306
50.53
50.5296
50.5292
50.5289
50.5287
50.5285
50.5283
50.5282
50.5282
50.5281
50.5282
50.5282
50.5283
50.5284
50.5285
50.5287
50.5289
50.5292
50.5295
50.5299
50.5304
50.5309
50.5315
50.5322
50.533
50.5339
50.5349
50.5359
50.5371
50.5384
50.5399
50.5414
50.5431
50.5448
50.5467
50.5486
50.5507
50.5528
50.555
50.5573
50.5596
50.5619
50.5642
50.5664
50.5686
50.5708
50.5728
50.5746
50.5763
50.5778
50.579
50.58
50.5806
50.581
50.5811
50.5808
50.5803
50.5794
50.5782
50.5767
50.5749
50.5729
50.5706
50.5682
50.5657
50.563
50.5602
50.5574
50.5546
50.5519
50.5492
50.5467
50.5442
50.5419
50.5398
50.5378
50.536
50.5344
50.533
50.5317
50.5306
50.5296
50.5287
50.528
50.5273
50.5268
50.5263
50.5259
50.5256
50.5253
50.525
50.5248
50.5246
50.5244
50.5242
50.5241
50.5239
50.5238
50.5237
50.5235
50.5234
50.5233
50.5232
50.5231
50.523
50.5229
50.5228
50.5227
50.5226
50.5226
50.5225
50.5224
50.5224
50.5223
50.5223
50.5223
50.5223
50.5261
50.5142
50.5048
50.5048
50.5047
50.5047
50.5047
50.5047
50.5047
50.5047
50.5047
50.5047
50.5046
50.5045
50.5044
50.5044
50.5044
50.5046
50.5049
50.5051
50.5053
50.5054
50.5055
50.5056
50.5057
50.5058
50.506
50.5062
50.5064
50.5066
50.5069
50.5073
50.5077
50.5083
50.5088
50.5095
50.5103
50.5112
50.5122
50.5133
50.5146
50.5159
50.5174
50.519
50.5207
50.5226
50.5245
50.5265
50.5285
50.5306
50.5327
50.5348
50.5368
50.5387
50.5405
50.5422
50.5438
50.5451
50.5462
50.5472
50.5478
50.5483
50.5485
50.5484
50.5482
50.5478
50.5471
50.5463
50.5454
50.5443
50.5431
50.5419
50.5406
50.5394
50.5381
50.5369
50.5357
50.5346
50.5336
50.5327
50.5319
50.5312
50.5306
50.53
50.5296
50.5292
50.5289
50.5287
50.5285
50.5283
50.5282
50.5282
50.5281
50.5282
50.5282
50.5283
50.5284
50.5285
50.5287
50.5289
50.5292
50.5295
50.5299
50.5304
50.5309
50.5315
50.5322
50.533
50.5339
50.5349
50.5359
50.5371
50.5384
50.5399
50.5414
50.5431
50.5448
50.5467
50.5486
50.5507
50.5528
50.555
50.5573
50.5596
50.5619
50.5642
50.5664
50.5686
50.5708
50.5728
50.5746
50.5763
50.5778
50.579
50.58
50.5806
50.581
50.5811
50.5808
50.5803
50.5794
50.5782
50.5767
50.5749
50.5729
50.5706
50.5682
50.5657
50.563
50.5602
50.5574
50.5546
50.5519
50.5492
50.5467
50.5442
50.5419
50.5398
50.5378
50.536
50.5344
50.533
50.5317
50.5306
50.5296
50.5287
50.528
50.5273
50.5268
50.5263
50.5259
50.5256
50.5253
50.525
50.5248
50.5246
50.5244
50.5242
50.5241
50.5239
50.5238
50.5237
50.5235
50.5234
50.5233
50.5232
50.5231
50.523
50.5229
50.5228
50.5227
50.5226
50.5226
50.5225
50.5224
50.5224
50.5223
50.5223
50.5223
50.5224
50.5255
50.518
50.5048
50.5047
50.5047
50.5047
50.5047
50.5047
50.5047
50.5047
50.5047
50.5047
50.5046
50.5045
50.5044
50.5044
50.5044
50.5046
50.5049
50.5051
50.5053
50.5054
50.5055
50.5056
50.5057
50.5058
50.506
50.5062
50.5064
50.5066
50.5069
50.5073
50.5077
50.5083
50.5088
50.5095
50.5103
50.5112
50.5122
50.5133
50.5146
50.5159
50.5174
50.519
50.5207
50.5226
50.5245
50.5265
50.5285
50.5306
50.5327
50.5348
50.5368
50.5387
50.5405
50.5422
50.5438
50.5451
50.5462
50.5472
50.5478
50.5483
50.5485
50.5484
50.5482
50.5478
50.5471
50.5463
50.5454
50.5443
50.5431
50.5419
50.5406
50.5394
50.5381
50.5369
50.5357
50.5346
50.5336
50.5327
50.5319
50.5312
50.5306
50.53
50.5296
50.5292
50.5289
50.5287
50.5285
50.5283
50.5282
50.5282
50.5281
50.5282
50.5282
50.5283
50.5284
50.5285
50.5287
50.5289
50.5292
50.5295
50.5299
50.5304
50.5309
50.5315
50.5322
50.533
50.5339
50.5349
50.5359
50.5371
50.5384
50.5399
50.5414
50.5431
50.5448
50.5467
50.5486
50.5507
50.5528
50.555
50.5573
50.5596
50.5619
50.5642
50.5664
50.5686
50.5708
50.5728
50.5746
50.5763
50.5778
50.579
50.58
50.5806
50.581
50.5811
50.5808
50.5803
50.5794
50.5782
50.5767
50.5749
50.5729
50.5706
50.5682
50.5657
50.563
50.5602
50.5574
50.5546
50.5519
50.5492
50.5467
50.5442
50.5419
50.5398
50.5378
50.536
50.5344
50.533
50.5317
50.5306
50.5296
50.5287
50.528
50.5273
50.5268
50.5263
50.5259
50.5256
50.5253
50.525
50.5248
50.5246
50.5244
50.5242
50.5241
50.5239
50.5238
50.5237
50.5235
50.5234
50.5233
50.5232
50.5231
50.523
50.5229
50.5228
50.5227
50.5226
50.5226
50.5225
50.5224
50.5224
50.5223
50.5223
50.5222
50.5221
50.5237
50.5161
50.5048
50.5047
50.5047
50.5047
50.5047
50.5047
50.5047
50.5047
50.5047
50.5047
50.5046
50.5045
50.5044
50.5044
50.5044
50.5046
50.5049
50.5051
50.5053
50.5054
50.5055
50.5056
50.5057
50.5058
50.506
50.5062
50.5064
50.5066
50.5069
50.5073
50.5077
50.5083
50.5088
50.5095
50.5103
50.5112
50.5122
50.5133
50.5146
50.5159
50.5174
50.519
50.5207
50.5226
50.5245
50.5265
50.5285
50.5306
50.5327
50.5348
50.5368
50.5387
50.5405
50.5422
50.5438
50.5451
50.5462
50.5472
50.5478
50.5483
50.5485
50.5484
50.5482
50.5478
50.5471
50.5463
50.5454
50.5443
50.5431
50.5419
50.5406
50.5394
50.5381
50.5369
50.5357
50.5346
50.5336
50.5327
50.5319
50.5312
50.5306
50.53
50.5296
50.5292
50.5289
50.5287
50.5285
50.5283
50.5282
50.5282
50.5281
50.5282
50.5282
50.5283
50.5284
50.5285
50.5287
50.5289
50.5292
50.5295
50.5299
50.5304
50.5309
50.5315
50.5322
50.533
50.5339
50.5349
50.5359
50.5371
50.5384
50.5399
50.5414
50.5431
50.5448
50.5467
50.5486
50.5507
50.5528
50.555
50.5573
50.5596
50.5619
50.5642
50.5664
50.5686
50.5708
50.5728
50.5746
50.5763
50.5778
50.579
50.58
50.5806
50.581
50.5811
50.5808
50.5803
50.5794
50.5782
50.5767
50.5749
50.5729
50.5706
50.5682
50.5657
50.563
50.5602
50.5574
50.5546
50.5519
50.5492
50.5467
50.5442
50.5419
50.5398
50.5378
50.536
50.5344
50.533
50.5317
50.5306
50.5296
50.5287
50.528
50.5273
50.5268
50.5263
50.5259
50.5256
50.5253
50.525
50.5248
50.5246
50.5244
50.5242
50.5241
50.5239
50.5238
50.5237
50.5235
50.5234
50.5233
50.5232
50.5231
50.523
50.5229
50.5228
50.5227
50.5226
50.5226
50.5225
50.5224
50.5224
50.5223
50.5222
50.5221
50.5219
50.5212
50.5194
50.5048
50.5048
50.5047
50.5047
50.5047
50.5047
50.5047
50.5047
50.5047
50.5047
50.5046
50.5045
50.5044
50.5044
50.5044
50.5046
50.5049
50.5051
50.5053
50.5054
50.5055
50.5056
50.5057
50.5058
50.506
50.5062
50.5064
50.5066
50.5069
50.5073
50.5077
50.5083
50.5088
50.5095
50.5103
50.5112
50.5122
50.5133
50.5146
50.5159
50.5174
50.519
50.5207
50.5226
50.5245
50.5265
50.5285
50.5306
50.5327
50.5348
50.5368
50.5387
50.5405
50.5422
50.5438
50.5451
50.5462
50.5472
50.5478
50.5483
50.5485
50.5484
50.5482
50.5478
50.5471
50.5463
50.5454
50.5443
50.5431
50.5419
50.5406
50.5394
50.5381
50.5369
50.5357
50.5346
50.5336
50.5327
50.5319
50.5312
50.5306
50.53
50.5296
50.5292
50.5289
50.5287
50.5285
50.5283
50.5282
50.5282
50.5281
50.5282
50.5282
50.5283
50.5284
50.5285
50.5287
50.5289
50.5292
50.5295
50.5299
50.5304
50.5309
50.5315
50.5322
50.533
50.5339
50.5349
50.5359
50.5371
50.5384
50.5399
50.5414
50.5431
50.5448
50.5467
50.5486
50.5507
50.5528
50.555
50.5573
50.5596
50.5619
50.5642
50.5664
50.5686
50.5708
50.5728
50.5746
50.5763
50.5778
50.579
50.58
50.5806
50.581
50.5811
50.5808
50.5803
50.5794
50.5782
50.5767
50.5749
50.5729
50.5706
50.5682
50.5657
50.563
50.5602
50.5574
50.5546
50.5519
50.5492
50.5467
50.5442
50.5419
50.5398
50.5378
50.536
50.5344
50.533
50.5317
50.5306
50.5296
50.5287
50.528
50.5273
50.5268
50.5263
50.5259
50.5256
50.5253
50.525
50.5248
50.5246
50.5244
50.5242
50.5241
50.5239
50.5238
50.5237
50.5235
50.5234
50.5233
50.5232
50.5231
50.523
50.5229
50.5228
50.5227
50.5226
50.5226
50.5225
50.5224
50.5224
50.5223
50.5222
50.522
50.522
50.5182
50.5297
50.5048
50.5048
50.5048
50.5048
50.5047
50.5047
50.5047
50.5047
50.5047
50.5047
50.5046
50.5045
50.5044
50.5044
50.5044
50.5046
50.5049
50.5051
50.5053
50.5054
50.5055
50.5056
50.5057
50.5058
50.506
50.5062
50.5064
50.5066
50.5069
50.5073
50.5077
50.5083
50.5088
50.5095
50.5103
50.5112
50.5122
50.5133
50.5146
50.5159
50.5174
50.519
50.5207
50.5226
50.5245
50.5265
50.5285
50.5306
50.5327
50.5348
50.5368
50.5387
50.5405
50.5422
50.5438
50.5451
50.5462
50.5472
50.5478
50.5483
50.5485
50.5484
50.5482
50.5478
50.5471
50.5463
50.5454
50.5443
50.5431
50.5419
50.5406
50.5394
50.5381
50.5369
50.5357
50.5346
50.5336
50.5327
50.5319
50.5312
50.5306
50.53
50.5296
50.5292
50.5289
50.5287
50.5285
50.5283
50.5282
50.5282
50.5281
50.5282
50.5282
50.5283
50.5284
50.5285
50.5287
50.5289
50.5292
50.5295
50.5299
50.5304
50.5309
50.5315
50.5322
50.533
50.5339
50.5349
50.5359
50.5371
50.5384
50.5399
50.5414
50.5431
50.5448
50.5467
50.5486
50.5507
50.5528
50.555
50.5573
50.5596
50.5619
50.5642
50.5664
50.5686
50.5708
50.5728
50.5746
50.5763
50.5778
50.579
50.58
50.5806
50.581
50.5811
50.5808
50.5803
50.5794
50.5782
50.5767
50.5749
50.5729
50.5706
50.5682
50.5657
50.563
50.5602
50.5574
50.5546
50.5519
50.5492
50.5467
50.5442
50.5419
50.5398
50.5378
50.536
50.5344
50.533
50.5317
50.5306
50.5296
50.5287
50.528
50.5273
50.5268
50.5263
50.5259
50.5256
50.5253
50.525
50.5248
50.5246
50.5244
50.5242
50.5241
50.5239
50.5238
50.5237
50.5235
50.5234
50.5233
50.5232
50.5231
50.523
50.5229
50.5228
50.5227
50.5226
50.5226
50.5225
50.5224
50.5224
50.5223
50.5222
50.522
50.5224
50.5152
50.5583
50.5048
50.5048
50.5048
50.5048
50.5047
50.5047
50.5047
50.5047
50.5047
50.5047
50.5046
50.5045
50.5044
50.5044
50.5044
50.5046
50.5049
50.5051
50.5053
50.5054
50.5055
50.5056
50.5057
50.5058
50.506
50.5062
50.5064
50.5066
50.5069
50.5073
50.5077
50.5083
50.5088
50.5095
50.5103
50.5112
50.5122
50.5133
50.5146
50.5159
50.5174
50.519
50.5207
50.5226
50.5245
50.5265
50.5285
50.5306
50.5327
50.5348
50.5368
50.5387
50.5405
50.5422
50.5438
50.5451
50.5462
50.5472
50.5478
50.5483
50.5485
50.5484
50.5482
50.5478
50.5471
50.5463
50.5454
50.5443
50.5431
50.5419
50.5406
50.5394
50.5381
50.5369
50.5357
50.5346
50.5336
50.5327
50.5319
50.5312
50.5306
50.53
50.5296
50.5292
50.5289
50.5287
50.5285
50.5283
50.5282
50.5282
50.5281
50.5282
50.5282
50.5283
50.5284
50.5285
50.5287
50.5289
50.5292
50.5295
50.5299
50.5304
50.5309
50.5315
50.5322
50.533
50.5339
50.5349
50.5359
50.5371
50.5384
50.5399
50.5414
50.5431
50.5448
50.5467
50.5486
50.5507
50.5528
50.555
50.5573
50.5596
50.5619
50.5642
50.5664
50.5686
50.5708
50.5728
50.5746
50.5763
50.5778
50.579
50.58
50.5806
50.581
50.5811
50.5808
50.5803
50.5794
50.5782
50.5767
50.5749
50.5729
50.5706
50.5682
50.5657
50.563
50.5602
50.5574
50.5546
50.5519
50.5492
50.5467
50.5442
50.5419
50.5398
50.5378
50.536
50.5344
50.533
50.5317
50.5306
50.5296
50.5287
50.528
50.5273
50.5268
50.5263
50.5259
50.5256
50.5253
50.525
50.5248
50.5246
50.5244
50.5242
50.5241
50.5239
50.5238
50.5237
50.5235
50.5234
50.5233
50.5232
50.5231
50.523
50.5229
50.5228
50.5227
50.5226
50.5226
50.5225
50.5224
50.5224
50.5223
50.5222
50.522
50.5226
50.5134
50.5734
50.5043
50.5043
50.5043
50.5043
50.5043
50.5043
50.5043
50.5043
50.5043
50.5043
50.5042
50.5041
50.504
50.504
50.5041
50.5042
50.5045
50.5048
50.5049
50.5051
50.5052
50.5053
50.5054
50.5055
50.5056
50.5058
50.506
50.5063
50.5066
50.507
50.5074
50.5079
50.5085
50.5092
50.51
50.5109
50.5119
50.513
50.5143
50.5156
50.5171
50.5187
50.5205
50.5223
50.5242
50.5262
50.5282
50.5303
50.5324
50.5345
50.5365
50.5384
50.5403
50.542
50.5435
50.5448
50.546
50.5469
50.5476
50.548
50.5482
50.5481
50.5479
50.5475
50.5469
50.5461
50.5451
50.544
50.5428
50.5416
50.5403
50.5391
50.5378
50.5366
50.5354
50.5344
50.5334
50.5324
50.5316
50.5309
50.5303
50.5297
50.5293
50.5289
50.5286
50.5284
50.5282
50.528
50.5279
50.5279
50.5279
50.5279
50.5279
50.528
50.5281
50.5282
50.5284
50.5286
50.5289
50.5293
50.5296
50.5301
50.5306
50.5312
50.5319
50.5327
50.5336
50.5346
50.5357
50.5369
50.5382
50.5396
50.5411
50.5428
50.5445
50.5464
50.5484
50.5504
50.5525
50.5547
50.557
50.5593
50.5616
50.5639
50.5661
50.5684
50.5705
50.5725
50.5743
50.576
50.5775
50.5787
50.5797
50.5803
50.5807
50.5808
50.5806
50.58
50.5791
50.5779
50.5764
50.5746
50.5726
50.5704
50.5679
50.5654
50.5627
50.5599
50.5571
50.5544
50.5516
50.5489
50.5464
50.5439
50.5416
50.5395
50.5375
50.5358
50.5341
50.5327
50.5314
50.5303
50.5293
50.5284
50.5277
50.527
50.5265
50.526
50.5256
50.5253
50.525
50.5247
50.5245
50.5243
50.5241
50.5239
50.5238
50.5236
50.5235
50.5234
50.5232
50.5231
50.523
50.5229
50.5228
50.5227
50.5226
50.5225
50.5224
50.5224
50.5223
50.5222
50.5221
50.5221
50.522
50.5219
50.5217
50.5225
50.5117
50.5867
50.6104
50.649
50.6618
50.6635
50.663
50.6627
50.6621
50.6609
50.6593
50.6576
50.6557
50.6537
50.6515
50.6489
50.6457
50.6417
50.6363
50.629
50.6188
50.6031
50.6047
50.6389
50.6522
50.6546
50.6544
50.6544
50.6541
50.6532
50.6518
50.6504
50.6486
50.6469
50.6447
50.6423
50.6391
50.6353
50.6298
50.6225
50.6121
50.5964
50.5994
50.6338
50.6491
50.6523
50.6524
50.6523
50.6519
50.6509
50.6494
50.6478
50.646
50.6441
50.6419
50.6394
50.6362
50.6323
50.6267
50.619
50.6079
50.5908
50.5814
50.6006
50.6067
50.606
50.6047
50.6039
50.6028
50.6012
50.5994
50.5975
50.5955
50.5934
50.5909
50.5879
50.5843
50.5799
50.5749
50.5676
50.5579
50.5441
50.5511
50.5633
50.5726
50.5791
50.5838
50.5867
50.5879
50.5884
50.5882
50.5876
50.5863
50.5845
50.5821
50.5789
50.5751
50.5701
50.5635
50.556
50.5473
50.537
50.499
50.4894
50.4791
50.4684
50.4586
50.4504
50.4442
50.4392
50.435
50.4315
50.4288
50.4268
50.4251
50.4239
50.4224
50.4213
50.4208
50.4215
50.4225
50.4263
50.4418
50.4209
50.4139
50.4147
50.4162
50.4171
50.4174
50.4182
50.4185
50.419
50.419
50.4191
50.4187
50.4187
50.4185
50.4194
50.4205
50.4237
50.4295
50.4401
50.3734
50.3173
50.2747
50.2459
50.2263
50.2112
50.1994
50.1908
50.1851
50.1817
50.18
50.18
50.1819
50.186
50.1939
50.2039
50.2193
50.2367
50.2622
50.2932
50.359
50.2982
50.2603
50.2387
50.2242
50.2133
50.2045
50.1988
50.1952
50.1942
50.1943
50.1962
50.1995
50.2049
50.2131
50.2241
50.2387
50.2562
50.2794
50.3088
50.3409
50.2559
50.2083
50.1804
50.1616
50.1457
50.1327
50.123
50.1174
50.1122
50.1103
50.1092
50.1114
50.1149
50.1226
50.1338
50.1487
50.1683
50.194
50.229
50.535
50.4956
50.4848
50.4819
50.4809
50.4806
50.4805
50.4805
50.4806
50.4806
50.4806
50.4806
50.4805
50.4804
50.4803
50.4803
50.4803
50.4804
50.4804
50.4805
50.4805
50.4805
50.4805
50.4806
50.4806
50.4807
50.4808
50.481
50.4811
50.4813
50.4816
50.4821
50.4831
50.4842
50.485
50.4856
50.486
50.4863
50.486
50.4835
50.4712
50.4251
50.3305
50.2434
50.178
50.1387
50.1226
50.1214
50.1329
50.1902
50.2959
50.3823
50.4431
50.4808
50.5007
50.5089
50.5107
50.5099
50.5057
50.5005
50.497
50.4947
50.4931
50.4921
50.4915
50.491
50.4907
50.4905
50.4904
50.4902
50.4902
50.4901
50.4901
50.4901
50.4902
50.4902
50.4903
50.4904
50.4905
50.4906
50.4908
50.491
50.4912
50.4914
50.4917
50.4921
50.4924
50.4929
50.4934
50.4939
50.4945
50.4952
50.4959
50.4968
50.4977
50.4986
50.4997
50.5008
50.502
50.5033
50.5047
50.5061
50.5076
50.5092
50.5108
50.5124
50.5141
50.5158
50.5175
50.5191
50.5208
50.5223
50.5239
50.5253
50.5267
50.5279
50.529
50.53
50.5308
50.5315
50.532
50.5324
50.5326
50.5326
50.5325
50.5323
50.5319
50.5313
50.5307
50.5299
50.529
50.528
50.5269
50.5258
50.5247
50.5235
50.5224
50.5212
50.5201
50.519
50.5179
50.5169
50.516
50.5151
50.5143
50.5136
50.5129
50.5123
50.5118
50.5113
50.5109
50.5105
50.5102
50.5099
50.5097
50.5095
50.5093
50.5092
50.5091
50.509
50.5089
50.5088
50.5087
50.5086
50.5086
50.5085
50.5084
50.5084
50.5083
50.5082
50.5082
50.5081
50.508
50.508
50.5079
50.5079
50.5078
50.5078
50.5077
50.5077
50.5076
50.5076
50.5076
50.5075
50.5075
50.5075
50.5074
50.5074
50.5074
50.5074
50.5073
50.5073
50.5073
50.5073
50.5072
50.5071
50.5068
50.507
50.4972
50.5505
50.5349
50.4979
50.4873
50.4846
50.4838
50.4835
50.4834
50.4834
50.4835
50.4836
50.4836
50.4836
50.4836
50.4835
50.4834
50.4834
50.4834
50.4834
50.4834
50.4835
50.4836
50.4836
50.4836
50.4837
50.4837
50.4837
50.4838
50.4839
50.4841
50.4844
50.4847
50.4851
50.4854
50.4857
50.486
50.4866
50.4878
50.4903
50.4938
50.4976
50.5012
50.504
50.5055
50.506
50.5055
50.5013
50.4867
50.4671
50.4518
50.4424
50.4386
50.4383
50.4404
50.4494
50.4632
50.4741
50.4818
50.4867
50.4896
50.4911
50.4918
50.492
50.492
50.4919
50.4915
50.4912
50.4909
50.4908
50.4906
50.4905
50.4904
50.4904
50.4904
50.4904
50.4904
50.4905
50.4906
50.4906
50.4908
50.4909
50.4911
50.4912
50.4915
50.4917
50.492
50.4923
50.4927
50.4932
50.4936
50.4942
50.4948
50.4955
50.4962
50.497
50.4979
50.4989
50.5
50.5011
50.5023
50.5036
50.505
50.5064
50.5079
50.5095
50.5111
50.5127
50.5144
50.5161
50.5177
50.5194
50.521
50.5226
50.5241
50.5256
50.5269
50.5282
50.5293
50.5303
50.5311
50.5318
50.5323
50.5327
50.5329
50.5329
50.5328
50.5326
50.5322
50.5316
50.5309
50.5301
50.5293
50.5283
50.5272
50.5261
50.525
50.5238
50.5227
50.5215
50.5204
50.5193
50.5182
50.5172
50.5163
50.5154
50.5146
50.5138
50.5132
50.5126
50.512
50.5116
50.5112
50.5108
50.5105
50.5102
50.51
50.5098
50.5096
50.5095
50.5093
50.5092
50.5091
50.5091
50.509
50.5089
50.5088
50.5088
50.5087
50.5086
50.5086
50.5085
50.5084
50.5084
50.5083
50.5083
50.5082
50.5081
50.5081
50.508
50.508
50.508
50.5079
50.5079
50.5078
50.5078
50.5078
50.5077
50.5077
50.5077
50.5077
50.5076
50.5076
50.5076
50.5076
50.5075
50.5075
50.5074
50.507
50.5072
50.4986
50.5411
50.5349
50.4991
50.4878
50.4845
50.4834
50.4829
50.4828
50.4828
50.4828
50.4829
50.4829
50.4829
50.4829
50.4828
50.4828
50.4827
50.4827
50.4827
50.4828
50.4828
50.4828
50.4828
50.4829
50.4829
50.483
50.483
50.4831
50.4832
50.4833
50.4835
50.4836
50.4839
50.4844
50.485
50.4855
50.4859
50.4862
50.4867
50.4873
50.4891
50.4947
50.5068
50.518
50.5262
50.5309
50.5326
50.5328
50.5309
50.5212
50.501
50.4844
50.4737
50.4688
50.4677
50.4682
50.4717
50.4784
50.4837
50.4873
50.4895
50.4907
50.4912
50.4914
50.4914
50.4913
50.4911
50.4909
50.4907
50.4906
50.4905
50.4904
50.4904
50.4904
50.4904
50.4904
50.4905
50.4906
50.4906
50.4908
50.4909
50.4911
50.4912
50.4915
50.4917
50.492
50.4923
50.4927
50.4932
50.4936
50.4942
50.4948
50.4955
50.4962
50.497
50.4979
50.4989
50.5
50.5011
50.5023
50.5036
50.505
50.5064
50.5079
50.5095
50.5111
50.5127
50.5144
50.5161
50.5177
50.5194
50.521
50.5226
50.5241
50.5256
50.5269
50.5282
50.5293
50.5303
50.5311
50.5318
50.5323
50.5327
50.5329
50.5329
50.5328
50.5326
50.5322
50.5316
50.5309
50.5301
50.5293
50.5283
50.5272
50.5261
50.525
50.5238
50.5227
50.5215
50.5204
50.5193
50.5182
50.5172
50.5163
50.5154
50.5146
50.5139
50.5132
50.5126
50.512
50.5116
50.5112
50.5108
50.5105
50.5102
50.51
50.5098
50.5096
50.5095
50.5093
50.5092
50.5091
50.5091
50.509
50.5089
50.5088
50.5088
50.5087
50.5086
50.5086
50.5085
50.5084
50.5084
50.5083
50.5083
50.5082
50.5081
50.5081
50.508
50.508
50.508
50.5079
50.5079
50.5078
50.5078
50.5078
50.5077
50.5077
50.5077
50.5077
50.5076
50.5076
50.5076
50.5076
50.5076
50.5075
50.5074
50.5071
50.507
50.5
50.5275
50.5055
50.4808
50.4743
50.474
50.4745
50.4749
50.4752
50.4754
50.4756
50.4757
50.4757
50.4757
50.4757
50.4757
50.4756
50.4756
50.4756
50.4756
50.4756
50.4756
50.4756
50.4757
50.4757
50.4758
50.4758
50.4759
50.476
50.4762
50.4764
50.4766
50.4768
50.4774
50.478
50.4786
50.4792
50.4796
50.48
50.4805
50.4813
50.483
50.4876
50.4943
50.5001
50.5043
50.5067
50.5076
50.5076
50.5065
50.5014
50.4942
50.4889
50.4856
50.4843
50.484
50.4843
50.4855
50.4875
50.489
50.49
50.4905
50.4908
50.4909
50.4909
50.4908
50.4907
50.4905
50.4905
50.4904
50.4903
50.4903
50.4903
50.4903
50.4903
50.4904
50.4904
50.4905
50.4905
50.4906
50.4908
50.4909
50.4911
50.4912
50.4915
50.4917
50.492
50.4923
50.4927
50.4932
50.4936
50.4942
50.4948
50.4955
50.4962
50.497
50.4979
50.4989
50.5
50.5011
50.5023
50.5036
50.505
50.5064
50.5079
50.5095
50.5111
50.5127
50.5144
50.5161
50.5177
50.5194
50.521
50.5226
50.5241
50.5256
50.5269
50.5282
50.5293
50.5303
50.5311
50.5318
50.5323
50.5327
50.5329
50.5329
50.5328
50.5326
50.5322
50.5316
50.5309
50.5301
50.5293
50.5283
50.5272
50.5261
50.525
50.5238
50.5227
50.5215
50.5204
50.5193
50.5182
50.5172
50.5163
50.5154
50.5146
50.5139
50.5132
50.5126
50.512
50.5116
50.5112
50.5108
50.5105
50.5102
50.51
50.5098
50.5096
50.5095
50.5093
50.5092
50.5091
50.5091
50.509
50.5089
50.5088
50.5088
50.5087
50.5086
50.5086
50.5085
50.5084
50.5084
50.5083
50.5083
50.5082
50.5081
50.5081
50.508
50.508
50.5079
50.5079
50.5079
50.5078
50.5078
50.5078
50.5077
50.5077
50.5077
50.5077
50.5076
50.5076
50.5076
50.5076
50.5076
50.5075
50.5074
50.5071
50.5063
50.502
50.5043
50.5125
50.5026
50.4967
50.4912
50.4876
50.486
50.4853
50.4849
50.4847
50.4846
50.4845
50.4845
50.4845
50.4845
50.4845
50.4844
50.4844
50.4844
50.4844
50.4844
50.4845
50.4845
50.4845
50.4846
50.4846
50.4846
50.4846
50.4847
50.4847
50.4848
50.4847
50.4848
50.4849
50.485
50.4853
50.4855
50.4856
50.4854
50.4851
50.4851
50.4852
50.4855
50.4862
50.4881
50.4905
50.492
50.4927
50.4929
50.4929
50.4925
50.4914
50.4907
50.4904
50.4903
50.4903
50.4904
50.4905
50.4907
50.4907
50.4907
50.4907
50.4906
50.4905
50.4904
50.4904
50.4903
50.4903
50.4903
50.4902
50.4902
50.4902
50.4903
50.4903
50.4903
50.4904
50.4905
50.4905
50.4906
50.4907
50.4909
50.491
50.4912
50.4915
50.4917
50.492
50.4923
50.4927
50.4932
50.4936
50.4942
50.4948
50.4955
50.4962
50.497
50.4979
50.4989
50.5
50.5011
50.5023
50.5036
50.505
50.5064
50.5079
50.5095
50.5111
50.5127
50.5144
50.5161
50.5177
50.5194
50.521
50.5226
50.5241
50.5256
50.5269
50.5282
50.5293
50.5303
50.5311
50.5318
50.5323
50.5327
50.5329
50.5329
50.5328
50.5326
50.5322
50.5316
50.5309
50.5301
50.5293
50.5283
50.5272
50.5261
50.525
50.5238
50.5227
50.5215
50.5204
50.5193
50.5182
50.5172
50.5163
50.5154
50.5146
50.5139
50.5132
50.5126
50.512
50.5116
50.5112
50.5108
50.5105
50.5102
50.51
50.5098
50.5096
50.5095
50.5093
50.5092
50.5091
50.5091
50.509
50.5089
50.5088
50.5088
50.5087
50.5086
50.5086
50.5085
50.5084
50.5084
50.5083
50.5083
50.5082
50.5081
50.5081
50.508
50.508
50.5079
50.5079
50.5079
50.5078
50.5078
50.5078
50.5077
50.5077
50.5077
50.5077
50.5076
50.5076
50.5076
50.5076
50.5076
50.5075
50.5075
50.5074
50.507
50.5059
50.5021
50.4339
50.4441
50.4502
50.455
50.4581
50.4597
50.4605
50.4608
50.4609
50.4609
50.4609
50.4609
50.4609
50.4608
50.4608
50.4609
50.4609
50.461
50.461
50.461
50.4611
50.4611
50.4612
50.4614
50.4615
50.4619
50.4622
50.4626
50.463
50.4635
50.4641
50.4647
50.4655
50.4664
50.4672
50.468
50.4686
50.4691
50.4697
50.4707
50.4728
50.477
50.4817
50.4861
50.4897
50.4923
50.4939
50.4947
50.4948
50.4947
50.4938
50.4924
50.4913
50.4905
50.4899
50.4896
50.4894
50.4893
50.4893
50.4893
50.4893
50.4894
50.4895
50.4896
50.4897
50.4898
50.4899
50.49
50.49
50.4901
50.4901
50.4902
50.4902
50.4903
50.4904
50.4904
50.4905
50.4906
50.4907
50.4909
50.491
50.4912
50.4915
50.4917
50.492
50.4923
50.4927
50.4932
50.4936
50.4942
50.4948
50.4955
50.4962
50.497
50.4979
50.4989
50.5
50.5011
50.5023
50.5036
50.505
50.5064
50.5079
50.5095
50.5111
50.5127
50.5144
50.5161
50.5177
50.5194
50.521
50.5226
50.5241
50.5256
50.5269
50.5282
50.5293
50.5303
50.5311
50.5318
50.5323
50.5327
50.5329
50.5329
50.5328
50.5326
50.5322
50.5316
50.5309
50.5301
50.5293
50.5283
50.5272
50.5261
50.525
50.5238
50.5227
50.5215
50.5204
50.5193
50.5182
50.5172
50.5163
50.5154
50.5146
50.5139
50.5132
50.5126
50.512
50.5116
50.5112
50.5108
50.5105
50.5102
50.51
50.5098
50.5096
50.5095
50.5093
50.5092
50.5091
50.5091
50.509
50.5089
50.5088
50.5088
50.5087
50.5086
50.5086
50.5085
50.5084
50.5084
50.5083
50.5083
50.5082
50.5081
50.5081
50.508
50.508
50.5079
50.5079
50.5079
50.5078
50.5078
50.5078
50.5077
50.5077
50.5077
50.5077
50.5076
50.5076
50.5076
50.5076
50.5076
50.5076
50.5076
50.5076
50.5078
50.5097
50.5058
50.4759
50.4973
50.5004
50.4985
50.4971
50.4963
50.4959
50.4957
50.4956
50.4955
50.4955
50.4954
50.4954
50.4952
50.4952
50.4952
50.4952
50.4953
50.4953
50.4954
50.4954
50.4955
50.4955
50.4956
50.4957
50.4957
50.4957
50.4957
50.4957
50.4957
50.4958
50.4959
50.496
50.496
50.4958
50.4955
50.4955
50.4956
50.4955
50.4948
50.4933
50.492
50.4915
50.4916
50.492
50.4938
50.4982
50.5016
50.5034
50.504
50.5039
50.5026
50.4992
50.496
50.4936
50.4919
50.4908
50.49
50.4896
50.4894
50.4893
50.4893
50.4894
50.4895
50.4896
50.4897
50.4898
50.4899
50.49
50.49
50.4901
50.4902
50.4902
50.4903
50.4903
50.4904
50.4905
50.4906
50.4907
50.4909
50.491
50.4912
50.4915
50.4917
50.492
50.4923
50.4927
50.4932
50.4936
50.4942
50.4948
50.4955
50.4962
50.497
50.4979
50.4989
50.5
50.5011
50.5023
50.5036
50.505
50.5064
50.5079
50.5095
50.5111
50.5127
50.5144
50.5161
50.5177
50.5194
50.521
50.5226
50.5241
50.5256
50.5269
50.5282
50.5293
50.5303
50.5311
50.5318
50.5323
50.5327
50.5329
50.5329
50.5328
50.5326
50.5322
50.5316
50.5309
50.5301
50.5293
50.5283
50.5272
50.5261
50.525
50.5238
50.5227
50.5215
50.5204
50.5193
50.5182
50.5172
50.5163
50.5154
50.5146
50.5139
50.5132
50.5126
50.512
50.5116
50.5112
50.5108
50.5105
50.5102
50.51
50.5098
50.5096
50.5095
50.5093
50.5092
50.5091
50.5091
50.509
50.5089
50.5088
50.5088
50.5087
50.5086
50.5086
50.5085
50.5084
50.5084
50.5083
50.5083
50.5082
50.5081
50.5081
50.508
50.508
50.5079
50.5079
50.5079
50.5078
50.5078
50.5078
50.5077
50.5077
50.5077
50.5077
50.5076
50.5076
50.5076
50.5076
50.5076
50.5076
50.5076
50.5079
50.5087
50.5125
50.512
50.4005
50.4452
50.4567
50.4606
50.4616
50.4619
50.462
50.462
50.462
50.4619
50.4618
50.4616
50.4614
50.4614
50.4614
50.4614
50.4616
50.4618
50.4619
50.4619
50.4619
50.4619
50.4618
50.4618
50.4618
50.4618
50.4617
50.4617
50.4619
50.4621
50.4624
50.4627
50.4632
50.4636
50.4637
50.4637
50.4638
50.4641
50.4644
50.4651
50.4672
50.4729
50.4802
50.4867
50.492
50.4958
50.4982
50.4995
50.4998
50.4998
50.4988
50.4963
50.4938
50.4918
50.4904
50.4894
50.4888
50.4885
50.4884
50.4884
50.4885
50.4887
50.4889
50.4891
50.4893
50.4895
50.4897
50.4898
50.4899
50.49
50.49
50.4901
50.4902
50.4903
50.4903
50.4904
50.4905
50.4906
50.4907
50.4909
50.491
50.4912
50.4915
50.4917
50.492
50.4923
50.4927
50.4932
50.4936