/*--------------------------------*- C++ -*----------------------------------*\
| =========                 |                                                 |
| \\      /  F ield         | OpenFOAM: The Open Source CFD Toolbox           |
|  \\    /   O peration     | Version:  3.0.x                                 |
|   \\  /    A nd           | Web:      www.OpenFOAM.org                      |
|    \\/     M anipulation  |                                                 |
\*---------------------------------------------------------------------------*/
FoamFile
{
    version     2.0;
    format      ascii;
    class       volScalarField;
    location    "0.55";
    object      rho;
}
// * * * * * * * * * * * * * * * * * * * * * * * * * * * * * * * * * * * * * //

dimensions      [1 -3 0 0 0 0 0];

internalField   nonuniform List<scalar> 
27600
(
52.0315
52.0339
52.0377
52.0414
52.0449
52.0482
52.0514
52.0545
52.0574
52.0602
52.0628
52.0653
52.0677
52.07
52.0721
52.0741
52.0761
52.078
52.0797
52.0814
52.083
52.0847
52.0863
52.0879
52.0894
52.091
52.0926
52.0942
52.0958
52.0975
52.0992
52.1009
52.1026
52.1044
52.1062
52.1081
52.11
52.1119
52.1138
52.1158
52.1178
52.1198
52.1219
52.124
52.1261
52.1283
52.1305
52.1327
52.1349
52.1372
52.1395
52.1419
52.1443
52.1467
52.1491
52.1516
52.1541
52.1566
52.1591
52.1617
52.1643
52.167
52.1696
52.1723
52.1751
52.1778
52.1806
52.1834
52.1863
52.1891
52.192
52.195
52.1979
52.2009
52.2039
52.2069
52.21
52.2131
52.2162
52.2194
52.2225
52.2257
52.229
52.2322
52.2355
52.2388
52.2421
52.2454
52.2488
52.2522
52.2557
52.2591
52.2626
52.266
52.2695
52.2731
52.2766
52.2802
52.2838
52.2874
52.291
52.2947
52.2984
52.3021
52.3059
52.3097
52.3136
52.3174
52.3213
52.3252
52.3291
52.333
52.337
52.3409
52.3449
52.3489
52.3528
52.3568
52.3609
52.3649
52.369
52.3731
52.3772
52.3813
52.3855
52.3897
52.3939
52.3981
52.4023
52.4066
52.4109
52.4151
52.4194
52.4238
52.4281
52.4325
52.4369
52.4414
52.4458
52.4503
52.4547
52.4592
52.4637
52.4682
52.4727
52.4772
52.4817
52.4863
52.4908
52.4953
52.4999
52.5045
52.509
52.5136
52.5183
52.5229
52.5276
52.5323
52.537
52.5417
52.5464
52.5512
52.5559
52.5607
52.5655
52.5703
52.575
52.5798
52.5846
52.5894
52.5943
52.5991
52.6039
52.6088
52.6136
52.6185
52.6233
52.6282
52.6331
52.638
52.6429
52.6478
52.6527
52.6576
52.6625
52.6675
52.6724
52.6773
52.6823
52.6872
52.6922
52.6972
52.7021
52.7071
52.7121
52.7171
52.7221
52.7271
52.7321
52.7371
52.7421
52.7471
52.7521
52.7571
52.7622
52.7672
52.7722
52.7773
52.7823
52.7873
52.7924
52.7974
52.8024
52.8075
52.8125
52.8176
52.8226
52.8277
52.8327
52.8378
52.8428
52.8479
52.8529
52.858
52.863
52.8681
52.8731
52.8782
52.8832
52.8883
52.8933
52.8984
52.9034
52.9084
52.9135
52.9185
52.9236
52.9286
52.9336
52.9386
52.9437
52.9487
52.9537
52.9587
52.9637
52.9687
52.9737
52.9787
52.9837
52.9887
52.9937
52.9987
53.0037
53.0086
53.0136
53.0186
53.0235
53.0285
53.0334
53.0384
53.0433
53.0482
53.0532
53.0581
53.063
53.0679
53.0728
53.0777
53.0825
53.0874
53.0923
53.0971
53.102
53.1068
53.1117
53.1165
53.1213
53.1261
53.1309
53.1357
53.1405
53.1453
53.1501
53.1548
53.1596
53.1643
53.169
53.1738
53.1785
53.1832
53.1879
53.1925
53.1972
53.2019
53.2065
53.2112
53.2158
53.2204
53.225
53.2296
53.2342
53.2387
53.2433
53.2478
53.2524
53.2569
53.2614
53.2659
53.2704
53.2749
53.2793
53.2838
53.2882
53.2926
53.2971
53.3015
53.3058
53.3102
53.3146
53.3189
53.3232
53.3276
53.3319
53.3361
53.3404
53.3447
53.3489
53.3531
53.3574
53.3616
53.3658
53.3699
53.3741
53.3782
53.3823
53.3865
53.3906
53.3946
53.3987
53.4027
53.4068
53.4108
53.4148
53.4188
53.4227
53.4267
53.4306
53.4346
53.4385
53.4423
53.4462
53.4501
53.4539
53.4577
53.4615
53.4653
53.4691
53.4728
53.4766
53.4803
53.484
53.4877
53.4913
53.495
53.4986
53.5022
53.5058
53.5094
53.513
53.5165
53.52
53.5235
53.527
53.5304
53.534
53.5373
53.5408
53.5441
53.5476
53.5508
53.5543
53.5574
53.561
53.564
53.5675
53.5705
53.574
53.5769
53.5804
53.5833
53.5867
53.5895
53.5929
53.5957
53.5991
53.6019
53.6052
53.6079
53.6111
53.6135
52.0321
52.0345
52.0383
52.042
52.0455
52.0488
52.052
52.0551
52.058
52.0607
52.0634
52.0659
52.0683
52.0705
52.0727
52.0747
52.0767
52.0785
52.0803
52.0819
52.0836
52.0852
52.0869
52.0884
52.09
52.0916
52.0931
52.0948
52.0964
52.098
52.0997
52.1014
52.1032
52.105
52.1068
52.1086
52.1105
52.1124
52.1144
52.1163
52.1183
52.1204
52.1224
52.1245
52.1267
52.1288
52.131
52.1332
52.1355
52.1378
52.1401
52.1424
52.1448
52.1472
52.1496
52.1521
52.1546
52.1571
52.1597
52.1622
52.1649
52.1675
52.1702
52.1729
52.1756
52.1783
52.1811
52.1839
52.1868
52.1897
52.1926
52.1955
52.1984
52.2014
52.2044
52.2075
52.2105
52.2136
52.2167
52.2199
52.223
52.2262
52.2294
52.2327
52.236
52.2393
52.2426
52.2459
52.2493
52.2527
52.2561
52.2596
52.2631
52.2665
52.27
52.2735
52.2771
52.2806
52.2842
52.2878
52.2915
52.2952
52.2989
52.3026
52.3064
52.3102
52.314
52.3179
52.3217
52.3256
52.3296
52.3335
52.3374
52.3414
52.3453
52.3493
52.3533
52.3573
52.3613
52.3654
52.3694
52.3735
52.3776
52.3818
52.3859
52.3901
52.3943
52.3985
52.4028
52.407
52.4113
52.4156
52.4199
52.4242
52.4286
52.4329
52.4373
52.4418
52.4462
52.4507
52.4551
52.4596
52.4641
52.4686
52.4731
52.4776
52.4822
52.4867
52.4912
52.4958
52.5003
52.5049
52.5095
52.5141
52.5187
52.5233
52.528
52.5327
52.5374
52.5421
52.5468
52.5516
52.5563
52.5611
52.5659
52.5706
52.5754
52.5802
52.585
52.5898
52.5946
52.5995
52.6043
52.6091
52.614
52.6188
52.6237
52.6286
52.6334
52.6383
52.6432
52.6481
52.653
52.658
52.6629
52.6678
52.6727
52.6777
52.6826
52.6876
52.6926
52.6975
52.7025
52.7075
52.7125
52.7174
52.7224
52.7274
52.7324
52.7374
52.7425
52.7475
52.7525
52.7575
52.7625
52.7676
52.7726
52.7776
52.7826
52.7877
52.7927
52.7978
52.8028
52.8079
52.8129
52.8179
52.823
52.828
52.8331
52.8381
52.8432
52.8482
52.8533
52.8583
52.8634
52.8684
52.8735
52.8785
52.8836
52.8886
52.8937
52.8987
52.9038
52.9088
52.9138
52.9189
52.9239
52.9289
52.934
52.939
52.944
52.949
52.9541
52.9591
52.9641
52.9691
52.9741
52.9791
52.9841
52.9891
52.9941
52.9991
53.004
53.009
53.014
53.0189
53.0239
53.0288
53.0338
53.0387
53.0437
53.0486
53.0535
53.0584
53.0633
53.0682
53.0731
53.078
53.0829
53.0878
53.0926
53.0975
53.1024
53.1072
53.112
53.1169
53.1217
53.1265
53.1313
53.1361
53.1409
53.1456
53.1504
53.1552
53.1599
53.1647
53.1694
53.1741
53.1788
53.1835
53.1882
53.1929
53.1976
53.2022
53.2069
53.2115
53.2161
53.2207
53.2254
53.2299
53.2345
53.2391
53.2437
53.2482
53.2527
53.2573
53.2618
53.2663
53.2708
53.2752
53.2797
53.2841
53.2886
53.293
53.2974
53.3018
53.3062
53.3106
53.3149
53.3193
53.3236
53.3279
53.3322
53.3365
53.3408
53.345
53.3493
53.3535
53.3577
53.3619
53.3661
53.3703
53.3744
53.3786
53.3827
53.3868
53.3909
53.395
53.399
53.4031
53.4071
53.4111
53.4151
53.4191
53.4231
53.427
53.431
53.4349
53.4388
53.4427
53.4466
53.4504
53.4543
53.4581
53.4619
53.4657
53.4694
53.4732
53.4769
53.4806
53.4843
53.488
53.4917
53.4953
53.499
53.5026
53.5062
53.5097
53.5133
53.5168
53.5204
53.5238
53.5274
53.5307
53.5343
53.5376
53.5412
53.5444
53.548
53.5511
53.5547
53.5577
53.5613
53.5643
53.5679
53.5708
53.5743
53.5772
53.5807
53.5836
53.587
53.5899
53.5933
53.5961
53.5994
53.6022
53.6055
53.6082
53.6114
53.614
52.0321
52.0345
52.0383
52.042
52.0455
52.0488
52.052
52.055
52.058
52.0607
52.0634
52.0659
52.0683
52.0705
52.0727
52.0747
52.0767
52.0785
52.0803
52.0819
52.0836
52.0852
52.0869
52.0884
52.09
52.0916
52.0931
52.0947
52.0964
52.098
52.0997
52.1014
52.1032
52.105
52.1068
52.1086
52.1105
52.1124
52.1144
52.1163
52.1183
52.1204
52.1224
52.1245
52.1267
52.1288
52.131
52.1332
52.1355
52.1378
52.1401
52.1424
52.1448
52.1472
52.1496
52.1521
52.1546
52.1571
52.1597
52.1622
52.1649
52.1675
52.1702
52.1729
52.1756
52.1783
52.1811
52.1839
52.1868
52.1897
52.1926
52.1955
52.1984
52.2014
52.2044
52.2075
52.2105
52.2136
52.2167
52.2199
52.223
52.2262
52.2294
52.2327
52.236
52.2393
52.2426
52.2459
52.2493
52.2527
52.2561
52.2596
52.2631
52.2665
52.27
52.2735
52.2771
52.2806
52.2842
52.2878
52.2915
52.2952
52.2989
52.3026
52.3064
52.3102
52.314
52.3179
52.3217
52.3256
52.3295
52.3335
52.3374
52.3414
52.3453
52.3493
52.3533
52.3573
52.3613
52.3654
52.3694
52.3735
52.3776
52.3818
52.3859
52.3901
52.3943
52.3985
52.4028
52.407
52.4113
52.4156
52.4199
52.4242
52.4286
52.4329
52.4373
52.4418
52.4462
52.4507
52.4551
52.4596
52.4641
52.4686
52.4731
52.4776
52.4822
52.4867
52.4912
52.4958
52.5003
52.5049
52.5095
52.5141
52.5187
52.5233
52.528
52.5327
52.5374
52.5421
52.5468
52.5516
52.5563
52.5611
52.5659
52.5706
52.5754
52.5802
52.585
52.5898
52.5946
52.5995
52.6043
52.6091
52.614
52.6188
52.6237
52.6286
52.6334
52.6383
52.6432
52.6481
52.653
52.658
52.6629
52.6678
52.6728
52.6777
52.6826
52.6876
52.6926
52.6975
52.7025
52.7075
52.7125
52.7175
52.7224
52.7274
52.7324
52.7374
52.7425
52.7475
52.7525
52.7575
52.7625
52.7676
52.7726
52.7776
52.7826
52.7877
52.7927
52.7978
52.8028
52.8079
52.8129
52.8179
52.823
52.828
52.8331
52.8381
52.8432
52.8482
52.8533
52.8583
52.8634
52.8684
52.8735
52.8785
52.8836
52.8886
52.8937
52.8987
52.9038
52.9088
52.9138
52.9189
52.9239
52.9289
52.934
52.939
52.944
52.949
52.9541
52.9591
52.9641
52.9691
52.9741
52.9791
52.9841
52.9891
52.9941
52.9991
53.004
53.009
53.014
53.0189
53.0239
53.0288
53.0338
53.0387
53.0437
53.0486
53.0535
53.0584
53.0633
53.0682
53.0731
53.078
53.0829
53.0878
53.0926
53.0975
53.1024
53.1072
53.112
53.1169
53.1217
53.1265
53.1313
53.1361
53.1409
53.1456
53.1504
53.1552
53.1599
53.1647
53.1694
53.1741
53.1788
53.1835
53.1882
53.1929
53.1976
53.2022
53.2069
53.2115
53.2161
53.2207
53.2254
53.2299
53.2345
53.2391
53.2437
53.2482
53.2527
53.2573
53.2618
53.2663
53.2708
53.2752
53.2797
53.2841
53.2886
53.293
53.2974
53.3018
53.3062
53.3106
53.3149
53.3193
53.3236
53.3279
53.3322
53.3365
53.3408
53.345
53.3493
53.3535
53.3577
53.3619
53.3661
53.3703
53.3744
53.3786
53.3827
53.3868
53.3909
53.395
53.399
53.4031
53.4071
53.4111
53.4151
53.4191
53.4231
53.427
53.431
53.4349
53.4388
53.4427
53.4466
53.4504
53.4543
53.4581
53.4619
53.4657
53.4694
53.4732
53.4769
53.4806
53.4843
53.488
53.4917
53.4953
53.499
53.5026
53.5062
53.5097
53.5133
53.5168
53.5204
53.5238
53.5274
53.5307
53.5343
53.5376
53.5412
53.5444
53.548
53.5511
53.5547
53.5577
53.5613
53.5643
53.5679
53.5708
53.5743
53.5772
53.5807
53.5836
53.587
53.5899
53.5933
53.5961
53.5994
53.6022
53.6055
53.6082
53.6114
53.614
52.0321
52.0345
52.0383
52.042
52.0455
52.0488
52.052
52.055
52.058
52.0607
52.0634
52.0659
52.0683
52.0705
52.0727
52.0747
52.0767
52.0785
52.0803
52.0819
52.0836
52.0852
52.0868
52.0884
52.09
52.0915
52.0931
52.0947
52.0964
52.098
52.0997
52.1014
52.1032
52.105
52.1068
52.1086
52.1105
52.1124
52.1143
52.1163
52.1183
52.1204
52.1224
52.1245
52.1266
52.1288
52.131
52.1332
52.1355
52.1378
52.1401
52.1424
52.1448
52.1472
52.1496
52.1521
52.1546
52.1571
52.1597
52.1622
52.1648
52.1675
52.1702
52.1729
52.1756
52.1783
52.1811
52.1839
52.1868
52.1896
52.1925
52.1955
52.1984
52.2014
52.2044
52.2074
52.2105
52.2136
52.2167
52.2199
52.223
52.2262
52.2294
52.2327
52.236
52.2393
52.2426
52.2459
52.2493
52.2527
52.2561
52.2596
52.263
52.2665
52.27
52.2735
52.2771
52.2806
52.2842
52.2878
52.2915
52.2952
52.2989
52.3026
52.3064
52.3102
52.314
52.3179
52.3217
52.3256
52.3295
52.3335
52.3374
52.3414
52.3453
52.3493
52.3533
52.3573
52.3613
52.3654
52.3694
52.3735
52.3776
52.3818
52.3859
52.3901
52.3943
52.3985
52.4028
52.407
52.4113
52.4156
52.4199
52.4242
52.4286
52.4329
52.4373
52.4418
52.4462
52.4506
52.4551
52.4596
52.4641
52.4686
52.4731
52.4776
52.4822
52.4867
52.4912
52.4958
52.5003
52.5049
52.5095
52.514
52.5187
52.5233
52.528
52.5327
52.5374
52.5421
52.5468
52.5516
52.5563
52.5611
52.5659
52.5706
52.5754
52.5802
52.585
52.5898
52.5946
52.5995
52.6043
52.6091
52.614
52.6188
52.6237
52.6286
52.6334
52.6383
52.6432
52.6481
52.653
52.658
52.6629
52.6678
52.6728
52.6777
52.6826
52.6876
52.6926
52.6975
52.7025
52.7075
52.7125
52.7175
52.7224
52.7274
52.7324
52.7374
52.7425
52.7475
52.7525
52.7575
52.7625
52.7676
52.7726
52.7776
52.7826
52.7877
52.7927
52.7978
52.8028
52.8079
52.8129
52.8179
52.823
52.828
52.8331
52.8381
52.8432
52.8482
52.8533
52.8583
52.8634
52.8684
52.8735
52.8785
52.8836
52.8886
52.8937
52.8987
52.9038
52.9088
52.9138
52.9189
52.9239
52.9289
52.934
52.939
52.944
52.949
52.9541
52.9591
52.9641
52.9691
52.9741
52.9791
52.9841
52.9891
52.9941
52.9991
53.004
53.009
53.014
53.0189
53.0239
53.0288
53.0338
53.0387
53.0437
53.0486
53.0535
53.0584
53.0633
53.0682
53.0731
53.078
53.0829
53.0878
53.0926
53.0975
53.1024
53.1072
53.112
53.1169
53.1217
53.1265
53.1313
53.1361
53.1409
53.1456
53.1504
53.1552
53.1599
53.1647
53.1694
53.1741
53.1788
53.1835
53.1882
53.1929
53.1976
53.2022
53.2069
53.2115
53.2161
53.2207
53.2254
53.2299
53.2345
53.2391
53.2437
53.2482
53.2527
53.2573
53.2618
53.2663
53.2708
53.2752
53.2797
53.2841
53.2886
53.293
53.2974
53.3018
53.3062
53.3106
53.3149
53.3193
53.3236
53.3279
53.3322
53.3365
53.3408
53.345
53.3493
53.3535
53.3577
53.3619
53.3661
53.3703
53.3744
53.3786
53.3827
53.3868
53.3909
53.395
53.399
53.4031
53.4071
53.4111
53.4151
53.4191
53.4231
53.427
53.431
53.4349
53.4388
53.4427
53.4466
53.4504
53.4543
53.4581
53.4619
53.4657
53.4694
53.4732
53.4769
53.4806
53.4843
53.488
53.4917
53.4953
53.499
53.5026
53.5062
53.5097
53.5133
53.5168
53.5204
53.5238
53.5274
53.5307
53.5343
53.5376
53.5412
53.5444
53.548
53.5511
53.5547
53.5577
53.5613
53.5643
53.5679
53.5708
53.5743
53.5772
53.5807
53.5836
53.587
53.5899
53.5933
53.5961
53.5994
53.6022
53.6055
53.6083
53.6113
53.6141
52.032
52.0344
52.0383
52.042
52.0455
52.0488
52.052
52.055
52.0579
52.0607
52.0633
52.0659
52.0683
52.0705
52.0726
52.0747
52.0767
52.0785
52.0803
52.0819
52.0835
52.0852
52.0868
52.0884
52.09
52.0915
52.0931
52.0947
52.0964
52.098
52.0997
52.1014
52.1032
52.105
52.1068
52.1086
52.1105
52.1124
52.1143
52.1163
52.1183
52.1203
52.1224
52.1245
52.1266
52.1288
52.131
52.1332
52.1355
52.1377
52.1401
52.1424
52.1448
52.1472
52.1496
52.1521
52.1546
52.1571
52.1596
52.1622
52.1648
52.1675
52.1701
52.1728
52.1756
52.1783
52.1811
52.1839
52.1868
52.1896
52.1925
52.1955
52.1984
52.2014
52.2044
52.2074
52.2105
52.2136
52.2167
52.2198
52.223
52.2262
52.2294
52.2327
52.236
52.2392
52.2426
52.2459
52.2493
52.2527
52.2561
52.2596
52.263
52.2665
52.27
52.2735
52.2771
52.2806
52.2842
52.2878
52.2915
52.2951
52.2989
52.3026
52.3064
52.3102
52.314
52.3179
52.3217
52.3256
52.3295
52.3335
52.3374
52.3414
52.3453
52.3493
52.3533
52.3573
52.3613
52.3654
52.3694
52.3735
52.3776
52.3818
52.3859
52.3901
52.3943
52.3985
52.4028
52.407
52.4113
52.4156
52.4199
52.4242
52.4286
52.4329
52.4373
52.4418
52.4462
52.4506
52.4551
52.4596
52.4641
52.4686
52.4731
52.4776
52.4822
52.4867
52.4912
52.4958
52.5003
52.5049
52.5095
52.514
52.5187
52.5233
52.528
52.5327
52.5374
52.5421
52.5468
52.5516
52.5563
52.5611
52.5659
52.5706
52.5754
52.5802
52.585
52.5898
52.5946
52.5995
52.6043
52.6091
52.614
52.6188
52.6237
52.6286
52.6334
52.6383
52.6432
52.6481
52.653
52.658
52.6629
52.6678
52.6728
52.6777
52.6826
52.6876
52.6926
52.6975
52.7025
52.7075
52.7125
52.7175
52.7224
52.7274
52.7324
52.7374
52.7425
52.7475
52.7525
52.7575
52.7625
52.7676
52.7726
52.7776
52.7826
52.7877
52.7927
52.7978
52.8028
52.8079
52.8129
52.8179
52.823
52.828
52.8331
52.8381
52.8432
52.8482
52.8533
52.8583
52.8634
52.8684
52.8735
52.8785
52.8836
52.8886
52.8937
52.8987
52.9038
52.9088
52.9138
52.9189
52.9239
52.9289
52.934
52.939
52.944
52.949
52.9541
52.9591
52.9641
52.9691
52.9741
52.9791
52.9841
52.9891
52.9941
52.9991
53.004
53.009
53.014
53.0189
53.0239
53.0288
53.0338
53.0387
53.0437
53.0486
53.0535
53.0584
53.0633
53.0682
53.0731
53.078
53.0829
53.0878
53.0926
53.0975
53.1024
53.1072
53.112
53.1169
53.1217
53.1265
53.1313
53.1361
53.1409
53.1456
53.1504
53.1552
53.1599
53.1647
53.1694
53.1741
53.1788
53.1835
53.1882
53.1929
53.1976
53.2022
53.2069
53.2115
53.2161
53.2207
53.2254
53.2299
53.2345
53.2391
53.2437
53.2482
53.2527
53.2573
53.2618
53.2663
53.2708
53.2752
53.2797
53.2841
53.2886
53.293
53.2974
53.3018
53.3062
53.3106
53.3149
53.3193
53.3236
53.3279
53.3322
53.3365
53.3408
53.345
53.3493
53.3535
53.3577
53.3619
53.3661
53.3703
53.3744
53.3786
53.3827
53.3868
53.3909
53.395
53.399
53.4031
53.4071
53.4111
53.4151
53.4191
53.4231
53.427
53.431
53.4349
53.4388
53.4427
53.4466
53.4504
53.4543
53.4581
53.4619
53.4657
53.4694
53.4732
53.4769
53.4806
53.4843
53.488
53.4917
53.4953
53.499
53.5026
53.5062
53.5097
53.5133
53.5168
53.5204
53.5238
53.5274
53.5307
53.5343
53.5376
53.5412
53.5444
53.548
53.5511
53.5547
53.5577
53.5613
53.5643
53.5679
53.5708
53.5743
53.5772
53.5807
53.5836
53.587
53.5899
53.5933
53.5961
53.5994
53.6022
53.6055
53.6083
53.6115
53.6142
52.032
52.0344
52.0383
52.042
52.0455
52.0488
52.052
52.055
52.0579
52.0607
52.0633
52.0659
52.0683
52.0705
52.0726
52.0747
52.0767
52.0785
52.0803
52.0819
52.0835
52.0852
52.0868
52.0884
52.09
52.0915
52.0931
52.0947
52.0964
52.098
52.0997
52.1014
52.1032
52.105
52.1068
52.1086
52.1105
52.1124
52.1143
52.1163
52.1183
52.1203
52.1224
52.1245
52.1266
52.1288
52.131
52.1332
52.1355
52.1377
52.1401
52.1424
52.1448
52.1472
52.1496
52.1521
52.1546
52.1571
52.1596
52.1622
52.1648
52.1675
52.1701
52.1728
52.1756
52.1783
52.1811
52.1839
52.1868
52.1896
52.1925
52.1955
52.1984
52.2014
52.2044
52.2074
52.2105
52.2136
52.2167
52.2198
52.223
52.2262
52.2294
52.2327
52.236
52.2392
52.2426
52.2459
52.2493
52.2527
52.2561
52.2596
52.263
52.2665
52.27
52.2735
52.2771
52.2806
52.2842
52.2878
52.2915
52.2951
52.2989
52.3026
52.3064
52.3102
52.314
52.3179
52.3217
52.3256
52.3295
52.3335
52.3374
52.3414
52.3453
52.3493
52.3533
52.3573
52.3613
52.3654
52.3694
52.3735
52.3776
52.3818
52.3859
52.3901
52.3943
52.3985
52.4028
52.407
52.4113
52.4156
52.4199
52.4242
52.4286
52.4329
52.4373
52.4418
52.4462
52.4506
52.4551
52.4596
52.4641
52.4686
52.4731
52.4776
52.4822
52.4867
52.4912
52.4958
52.5003
52.5049
52.5095
52.514
52.5187
52.5233
52.528
52.5327
52.5374
52.5421
52.5468
52.5516
52.5563
52.5611
52.5659
52.5706
52.5754
52.5802
52.585
52.5898
52.5946
52.5995
52.6043
52.6091
52.614
52.6188
52.6237
52.6286
52.6334
52.6383
52.6432
52.6481
52.653
52.658
52.6629
52.6678
52.6728
52.6777
52.6826
52.6876
52.6926
52.6975
52.7025
52.7075
52.7125
52.7175
52.7224
52.7274
52.7324
52.7374
52.7425
52.7475
52.7525
52.7575
52.7625
52.7676
52.7726
52.7776
52.7826
52.7877
52.7927
52.7978
52.8028
52.8079
52.8129
52.8179
52.823
52.828
52.8331
52.8381
52.8432
52.8482
52.8533
52.8583
52.8634
52.8684
52.8735
52.8785
52.8836
52.8886
52.8937
52.8987
52.9038
52.9088
52.9138
52.9189
52.9239
52.9289
52.934
52.939
52.944
52.949
52.9541
52.9591
52.9641
52.9691
52.9741
52.9791
52.9841
52.9891
52.9941
52.9991
53.004
53.009
53.014
53.0189
53.0239
53.0288
53.0338
53.0387
53.0437
53.0486
53.0535
53.0584
53.0633
53.0682
53.0731
53.078
53.0829
53.0878
53.0926
53.0975
53.1024
53.1072
53.112
53.1169
53.1217
53.1265
53.1313
53.1361
53.1409
53.1456
53.1504
53.1552
53.1599
53.1647
53.1694
53.1741
53.1788
53.1835
53.1882
53.1929
53.1976
53.2022
53.2069
53.2115
53.2161
53.2207
53.2254
53.2299
53.2345
53.2391
53.2437
53.2482
53.2527
53.2573
53.2618
53.2663
53.2708
53.2752
53.2797
53.2841
53.2886
53.293
53.2974
53.3018
53.3062
53.3106
53.3149
53.3193
53.3236
53.3279
53.3322
53.3365
53.3408
53.345
53.3493
53.3535
53.3577
53.3619
53.3661
53.3703
53.3744
53.3786
53.3827
53.3868
53.3909
53.395
53.399
53.4031
53.4071
53.4111
53.4151
53.4191
53.4231
53.427
53.431
53.4349
53.4388
53.4427
53.4466
53.4504
53.4543
53.4581
53.4619
53.4657
53.4694
53.4732
53.4769
53.4806
53.4843
53.488
53.4917
53.4953
53.499
53.5026
53.5062
53.5097
53.5133
53.5168
53.5204
53.5238
53.5274
53.5308
53.5343
53.5376
53.5411
53.5444
53.5479
53.5512
53.5545
53.5579
53.5611
53.5645
53.5677
53.5709
53.5742
53.5773
53.5806
53.5837
53.5869
53.5901
53.593
53.5964
53.5992
53.6025
53.6053
53.6085
53.6113
53.6144
52.0321
52.0345
52.0383
52.042
52.0455
52.0488
52.052
52.055
52.058
52.0607
52.0634
52.0659
52.0683
52.0705
52.0727
52.0747
52.0767
52.0785
52.0803
52.0819
52.0836
52.0852
52.0868
52.0884
52.09
52.0915
52.0931
52.0947
52.0964
52.098
52.0997
52.1014
52.1032
52.105
52.1068
52.1086
52.1105
52.1124
52.1143
52.1163
52.1183
52.1204
52.1224
52.1245
52.1266
52.1288
52.131
52.1332
52.1355
52.1378
52.1401
52.1424
52.1448
52.1472
52.1496
52.1521
52.1546
52.1571
52.1597
52.1622
52.1648
52.1675
52.1702
52.1729
52.1756
52.1783
52.1811
52.1839
52.1868
52.1896
52.1925
52.1955
52.1984
52.2014
52.2044
52.2074
52.2105
52.2136
52.2167
52.2199
52.223
52.2262
52.2294
52.2327
52.236
52.2393
52.2426
52.2459
52.2493
52.2527
52.2561
52.2596
52.263
52.2665
52.27
52.2735
52.2771
52.2806
52.2842
52.2878
52.2915
52.2952
52.2989
52.3026
52.3064
52.3102
52.314
52.3179
52.3217
52.3256
52.3295
52.3335
52.3374
52.3414
52.3453
52.3493
52.3533
52.3573
52.3613
52.3654
52.3694
52.3735
52.3776
52.3818
52.3859
52.3901
52.3943
52.3985
52.4028
52.407
52.4113
52.4156
52.4199
52.4242
52.4286
52.4329
52.4373
52.4418
52.4462
52.4506
52.4551
52.4596
52.4641
52.4686
52.4731
52.4776
52.4822
52.4867
52.4912
52.4958
52.5003
52.5049
52.5095
52.514
52.5187
52.5233
52.528
52.5327
52.5374
52.5421
52.5468
52.5516
52.5563
52.5611
52.5659
52.5706
52.5754
52.5802
52.585
52.5898
52.5946
52.5995
52.6043
52.6091
52.614
52.6188
52.6237
52.6286
52.6334
52.6383
52.6432
52.6481
52.653
52.658
52.6629
52.6678
52.6728
52.6777
52.6826
52.6876
52.6926
52.6975
52.7025
52.7075
52.7125
52.7175
52.7224
52.7274
52.7324
52.7374
52.7425
52.7475
52.7525
52.7575
52.7625
52.7676
52.7726
52.7776
52.7826
52.7877
52.7927
52.7978
52.8028
52.8079
52.8129
52.8179
52.823
52.828
52.8331
52.8381
52.8432
52.8482
52.8533
52.8583
52.8634
52.8684
52.8735
52.8785
52.8836
52.8886
52.8937
52.8987
52.9038
52.9088
52.9138
52.9189
52.9239
52.9289
52.934
52.939
52.944
52.949
52.9541
52.9591
52.9641
52.9691
52.9741
52.9791
52.9841
52.9891
52.9941
52.9991
53.004
53.009
53.014
53.0189
53.0239
53.0288
53.0338
53.0387
53.0437
53.0486
53.0535
53.0584
53.0633
53.0682
53.0731
53.078
53.0829
53.0878
53.0926
53.0975
53.1024
53.1072
53.112
53.1169
53.1217
53.1265
53.1313
53.1361
53.1409
53.1456
53.1504
53.1552
53.1599
53.1647
53.1694
53.1741
53.1788
53.1835
53.1882
53.1929
53.1976
53.2022
53.2069
53.2115
53.2161
53.2207
53.2254
53.2299
53.2345
53.2391
53.2437
53.2482
53.2527
53.2573
53.2618
53.2663
53.2708
53.2752
53.2797
53.2841
53.2886
53.293
53.2974
53.3018
53.3062
53.3106
53.3149
53.3193
53.3236
53.3279
53.3322
53.3365
53.3408
53.345
53.3493
53.3535
53.3577
53.3619
53.3661
53.3703
53.3744
53.3786
53.3827
53.3868
53.3909
53.395
53.399
53.4031
53.4071
53.4111
53.4151
53.4191
53.4231
53.427
53.431
53.4349
53.4388
53.4427
53.4466
53.4504
53.4543
53.4581
53.4619
53.4657
53.4694
53.4732
53.4769
53.4806
53.4843
53.488
53.4917
53.4953
53.499
53.5026
53.5062
53.5097
53.5133
53.5168
53.5204
53.5238
53.5273
53.5308
53.5342
53.5377
53.541
53.5446
53.5478
53.5513
53.5546
53.5578
53.5612
53.5644
53.5678
53.5709
53.5742
53.5775
53.5804
53.5839
53.5867
53.5902
53.593
53.5964
53.5992
53.6024
53.6054
53.6085
53.6114
53.6146
52.0321
52.0345
52.0383
52.042
52.0455
52.0488
52.052
52.055
52.058
52.0607
52.0634
52.0659
52.0683
52.0705
52.0727
52.0747
52.0767
52.0785
52.0803
52.0819
52.0836
52.0852
52.0869
52.0884
52.09
52.0916
52.0931
52.0947
52.0964
52.098
52.0997
52.1014
52.1032
52.105
52.1068
52.1086
52.1105
52.1124
52.1144
52.1163
52.1183
52.1204
52.1224
52.1245
52.1267
52.1288
52.131
52.1332
52.1355
52.1378
52.1401
52.1424
52.1448
52.1472
52.1496
52.1521
52.1546
52.1571
52.1597
52.1622
52.1649
52.1675
52.1702
52.1729
52.1756
52.1783
52.1811
52.1839
52.1868
52.1897
52.1926
52.1955
52.1984
52.2014
52.2044
52.2075
52.2105
52.2136
52.2167
52.2199
52.223
52.2262
52.2294
52.2327
52.236
52.2393
52.2426
52.2459
52.2493
52.2527
52.2561
52.2596
52.2631
52.2665
52.27
52.2735
52.2771
52.2806
52.2842
52.2878
52.2915
52.2952
52.2989
52.3026
52.3064
52.3102
52.314
52.3179
52.3217
52.3256
52.3295
52.3335
52.3374
52.3414
52.3453
52.3493
52.3533
52.3573
52.3613
52.3654
52.3694
52.3735
52.3776
52.3818
52.3859
52.3901
52.3943
52.3985
52.4028
52.407
52.4113
52.4156
52.4199
52.4242
52.4286
52.4329
52.4373
52.4418
52.4462
52.4507
52.4551
52.4596
52.4641
52.4686
52.4731
52.4776
52.4822
52.4867
52.4912
52.4958
52.5003
52.5049
52.5095
52.5141
52.5187
52.5233
52.528
52.5327
52.5374
52.5421
52.5468
52.5516
52.5563
52.5611
52.5659
52.5706
52.5754
52.5802
52.585
52.5898
52.5946
52.5995
52.6043
52.6091
52.614
52.6188
52.6237
52.6286
52.6334
52.6383
52.6432
52.6481
52.653
52.658
52.6629
52.6678
52.6728
52.6777
52.6826
52.6876
52.6926
52.6975
52.7025
52.7075
52.7125
52.7175
52.7224
52.7274
52.7324
52.7374
52.7425
52.7475
52.7525
52.7575
52.7625
52.7676
52.7726
52.7776
52.7826
52.7877
52.7927
52.7978
52.8028
52.8079
52.8129
52.8179
52.823
52.828
52.8331
52.8381
52.8432
52.8482
52.8533
52.8583
52.8634
52.8684
52.8735
52.8785
52.8836
52.8886
52.8937
52.8987
52.9038
52.9088
52.9138
52.9189
52.9239
52.9289
52.934
52.939
52.944
52.949
52.9541
52.9591
52.9641
52.9691
52.9741
52.9791
52.9841
52.9891
52.9941
52.9991
53.004
53.009
53.014
53.0189
53.0239
53.0288
53.0338
53.0387
53.0437
53.0486
53.0535
53.0584
53.0633
53.0682
53.0731
53.078
53.0829
53.0878
53.0926
53.0975
53.1024
53.1072
53.112
53.1169
53.1217
53.1265
53.1313
53.1361
53.1409
53.1456
53.1504
53.1552
53.1599
53.1647
53.1694
53.1741
53.1788
53.1835
53.1882
53.1929
53.1976
53.2022
53.2069
53.2115
53.2161
53.2207
53.2254
53.2299
53.2345
53.2391
53.2437
53.2482
53.2527
53.2573
53.2618
53.2663
53.2708
53.2752
53.2797
53.2841
53.2886
53.293
53.2974
53.3018
53.3062
53.3106
53.3149
53.3193
53.3236
53.3279
53.3322
53.3365
53.3408
53.345
53.3493
53.3535
53.3577
53.3619
53.3661
53.3703
53.3744
53.3786
53.3827
53.3868
53.3909
53.395
53.399
53.4031
53.4071
53.4111
53.4151
53.4191
53.4231
53.427
53.431
53.4349
53.4388
53.4427
53.4466
53.4504
53.4543
53.4581
53.4619
53.4657
53.4694
53.4732
53.4769
53.4806
53.4843
53.488
53.4917
53.4953
53.499
53.5026
53.5062
53.5097
53.5133
53.5168
53.5204
53.5238
53.5273
53.5308
53.5342
53.5377
53.541
53.5446
53.5478
53.5513
53.5545
53.558
53.5611
53.5645
53.5676
53.5711
53.574
53.5775
53.5804
53.5839
53.5868
53.5902
53.593
53.5964
53.5992
53.6025
53.6053
53.6086
53.6113
53.6147
52.0321
52.0345
52.0383
52.042
52.0455
52.0488
52.052
52.0551
52.058
52.0607
52.0634
52.0659
52.0683
52.0705
52.0727
52.0747
52.0767
52.0785
52.0803
52.0819
52.0836
52.0852
52.0869
52.0884
52.09
52.0916
52.0931
52.0948
52.0964
52.098
52.0997
52.1014
52.1032
52.105
52.1068
52.1086
52.1105
52.1124
52.1144
52.1163
52.1183
52.1204
52.1224
52.1245
52.1267
52.1288
52.131
52.1332
52.1355
52.1378
52.1401
52.1424
52.1448
52.1472
52.1496
52.1521
52.1546
52.1571
52.1597
52.1622
52.1649
52.1675
52.1702
52.1729
52.1756
52.1783
52.1811
52.1839
52.1868
52.1897
52.1926
52.1955
52.1984
52.2014
52.2044
52.2075
52.2105
52.2136
52.2167
52.2199
52.223
52.2262
52.2294
52.2327
52.236
52.2393
52.2426
52.2459
52.2493
52.2527
52.2561
52.2596
52.2631
52.2665
52.27
52.2735
52.2771
52.2806
52.2842
52.2878
52.2915
52.2952
52.2989
52.3026
52.3064
52.3102
52.314
52.3179
52.3217
52.3256
52.3296
52.3335
52.3374
52.3414
52.3453
52.3493
52.3533
52.3573
52.3613
52.3654
52.3694
52.3735
52.3776
52.3818
52.3859
52.3901
52.3943
52.3985
52.4028
52.407
52.4113
52.4156
52.4199
52.4242
52.4286
52.4329
52.4373
52.4418
52.4462
52.4507
52.4551
52.4596
52.4641
52.4686
52.4731
52.4776
52.4822
52.4867
52.4912
52.4958
52.5003
52.5049
52.5095
52.5141
52.5187
52.5233
52.528
52.5327
52.5374
52.5421
52.5468
52.5516
52.5563
52.5611
52.5659
52.5706
52.5754
52.5802
52.585
52.5898
52.5946
52.5995
52.6043
52.6091
52.614
52.6188
52.6237
52.6286
52.6334
52.6383
52.6432
52.6481
52.653
52.658
52.6629
52.6678
52.6727
52.6777
52.6826
52.6876
52.6926
52.6975
52.7025
52.7075
52.7125
52.7174
52.7224
52.7274
52.7324
52.7374
52.7425
52.7475
52.7525
52.7575
52.7625
52.7676
52.7726
52.7776
52.7826
52.7877
52.7927
52.7978
52.8028
52.8079
52.8129
52.8179
52.823
52.828
52.8331
52.8381
52.8432
52.8482
52.8533
52.8583
52.8634
52.8684
52.8735
52.8785
52.8836
52.8886
52.8937
52.8987
52.9038
52.9088
52.9138
52.9189
52.9239
52.9289
52.934
52.939
52.944
52.949
52.9541
52.9591
52.9641
52.9691
52.9741
52.9791
52.9841
52.9891
52.9941
52.9991
53.004
53.009
53.014
53.0189
53.0239
53.0288
53.0338
53.0387
53.0437
53.0486
53.0535
53.0584
53.0633
53.0682
53.0731
53.078
53.0829
53.0878
53.0926
53.0975
53.1024
53.1072
53.112
53.1169
53.1217
53.1265
53.1313
53.1361
53.1409
53.1456
53.1504
53.1552
53.1599
53.1647
53.1694
53.1741
53.1788
53.1835
53.1882
53.1929
53.1976
53.2022
53.2069
53.2115
53.2161
53.2207
53.2254
53.2299
53.2345
53.2391
53.2437
53.2482
53.2527
53.2573
53.2618
53.2663
53.2708
53.2752
53.2797
53.2841
53.2886
53.293
53.2974
53.3018
53.3062
53.3106
53.3149
53.3193
53.3236
53.3279
53.3322
53.3365
53.3408
53.345
53.3493
53.3535
53.3577
53.3619
53.3661
53.3703
53.3744
53.3786
53.3827
53.3868
53.3909
53.395
53.399
53.4031
53.4071
53.4111
53.4151
53.4191
53.4231
53.427
53.431
53.4349
53.4388
53.4427
53.4466
53.4504
53.4543
53.4581
53.4619
53.4657
53.4694
53.4732
53.4769
53.4806
53.4843
53.488
53.4917
53.4953
53.499
53.5026
53.5062
53.5097
53.5133
53.5168
53.5204
53.5239
53.5273
53.5308
53.5342
53.5377
53.541
53.5446
53.5477
53.5513
53.5544
53.558
53.561
53.5646
53.5676
53.5711
53.574
53.5775
53.5804
53.5839
53.5868
53.5902
53.593
53.5964
53.5992
53.6025
53.6053
53.6086
53.6113
53.6147
52.0315
52.0339
52.0377
52.0414
52.0449
52.0482
52.0514
52.0545
52.0574
52.0602
52.0628
52.0653
52.0677
52.07
52.0721
52.0741
52.0761
52.078
52.0797
52.0814
52.083
52.0847
52.0863
52.0879
52.0894
52.091
52.0926
52.0942
52.0958
52.0975
52.0992
52.1009
52.1026
52.1044
52.1062
52.1081
52.11
52.1119
52.1138
52.1158
52.1178
52.1198
52.1219
52.124
52.1261
52.1283
52.1305
52.1327
52.1349
52.1372
52.1395
52.1419
52.1443
52.1467
52.1491
52.1516
52.1541
52.1566
52.1591
52.1617
52.1643
52.167
52.1696
52.1723
52.1751
52.1778
52.1806
52.1834
52.1863
52.1891
52.192
52.195
52.1979
52.2009
52.2039
52.2069
52.21
52.2131
52.2162
52.2194
52.2225
52.2257
52.229
52.2322
52.2355
52.2388
52.2421
52.2454
52.2488
52.2522
52.2557