/*--------------------------------*- C++ -*----------------------------------*\
| =========                 |                                                 |
| \\      /  F ield         | OpenFOAM: The Open Source CFD Toolbox           |
|  \\    /   O peration     | Version:  3.0.x                                 |
|   \\  /    A nd           | Web:      www.OpenFOAM.org                      |
|    \\/     M anipulation  |                                                 |
\*---------------------------------------------------------------------------*/
FoamFile
{
    version     2.0;
    format      ascii;
    class       volScalarField;
    location    "0.55";
    object      T;
}
// * * * * * * * * * * * * * * * * * * * * * * * * * * * * * * * * * * * * * //

dimensions      [0 0 0 1 0 0 0];

internalField   nonuniform List<scalar> 
27600
(
778.326
778.3
778.257
778.217
778.18
778.145
778.114
778.085
778.058
778.034
778.013
777.995
777.979
777.965
777.954
777.945
777.937
777.932
777.929
777.928
777.928
777.928
777.929
777.932
777.935
777.939
777.943
777.948
777.952
777.957
777.962
777.967
777.972
777.978
777.983
777.989
777.994
778
778.006
778.012
778.018
778.024
778.03
778.036
778.042
778.049
778.055
778.062
778.069
778.076
778.082
778.089
778.097
778.104
778.111
778.118
778.126
778.133
778.141
778.149
778.156
778.164
778.172
778.18
778.189
778.197
778.205
778.213
778.222
778.231
778.239
778.248
778.257
778.266
778.275
778.284
778.293
778.302
778.311
778.321
778.33
778.34
778.349
778.359
778.369
778.379
778.389
778.399
778.409
778.419
778.429
778.439
778.45
778.461
778.471
778.482
778.494
778.505
778.516
778.527
778.539
778.55
778.561
778.572
778.582
778.593
778.604
778.615
778.626
778.637
778.648
778.66
778.671
778.683
778.695
778.707
778.719
778.732
778.744
778.757
778.769
778.782
778.794
778.807
778.819
778.832
778.844
778.857
778.869
778.882
778.895
778.908
778.92
778.933
778.946
778.958
778.971
778.983
778.996
779.009
779.021
779.034
779.047
779.06
779.073
779.087
779.1
779.114
779.128
779.142
779.156
779.17
779.184
779.198
779.212
779.226
779.24
779.253
779.267
779.28
779.294
779.307
779.321
779.335
779.348
779.362
779.376
779.39
779.404
779.419
779.433
779.447
779.461
779.476
779.49
779.504
779.519
779.533
779.548
779.562
779.577
779.591
779.606
779.621
779.635
779.65
779.664
779.679
779.694
779.709
779.723
779.738
779.753
779.768
779.782
779.797
779.812
779.827
779.842
779.857
779.871
779.886
779.901
779.916
779.931
779.946
779.961
779.976
779.991
780.006
780.02
780.035
780.05
780.065
780.08
780.095
780.11
780.125
780.14
780.155
780.17
780.185
780.2
780.215
780.23
780.245
780.26
780.275
780.29
780.304
780.319
780.334
780.349
780.364
780.379
780.394
780.409
780.424
780.439
780.453
780.468
780.483
780.498
780.513
780.528
780.542
780.557
780.572
780.587
780.601
780.616
780.631
780.646
780.66
780.675
780.69
780.704
780.719
780.734
780.748
780.763
780.777
780.792
780.806
780.821
780.835
780.85
780.864
780.878
780.893
780.907
780.922
780.936
780.95
780.964
780.979
780.993
781.007
781.021
781.035
781.049
781.064
781.078
781.092
781.106
781.12
781.133
781.147
781.161
781.175
781.189
781.203
781.216
781.23
781.244
781.258
781.271
781.285
781.298
781.312
781.325
781.339
781.352
781.366
781.379
781.392
781.405
781.419
781.432
781.445
781.458
781.471
781.484
781.497
781.51
781.523
781.536
781.549
781.562
781.575
781.587
781.6
781.613
781.625
781.638
781.65
781.663
781.675
781.688
781.7
781.712
781.724
781.737
781.749
781.761
781.773
781.785
781.797
781.809
781.821
781.833
781.844
781.856
781.868
781.88
781.891
781.903
781.914
781.926
781.937
781.948
781.96
781.971
781.982
781.993
782.004
782.015
782.027
782.037
782.048
782.059
782.07
782.081
782.091
782.102
782.113
782.123
782.134
782.144
782.155
782.164
782.176
782.185
782.196
782.205
782.217
782.224
782.237
782.244
782.257
782.263
782.277
782.282
782.296
782.302
782.315
782.32
782.334
782.339
782.353
782.358
782.371
782.376
782.389
782.394
782.407
782.412
782.425
782.43
782.444
778.317
778.291
778.249
778.209
778.171
778.137
778.105
778.076
778.049
778.026
778.005
777.986
777.97
777.956
777.945
777.936
777.929
777.923
777.921
777.92
777.919
777.92
777.921
777.923
777.927
777.931
777.935
777.939
777.944
777.949
777.954
777.959
777.964
777.969
777.975
777.98
777.986
777.992
777.998
778.003
778.009
778.016
778.022
778.028
778.034
778.041
778.047
778.054
778.061
778.068
778.075
778.082
778.089
778.096
778.103
778.11
778.118
778.126
778.133
778.141
778.149
778.157
778.165
778.173
778.181
778.189
778.197
778.206
778.214
778.223
778.232
778.24
778.249
778.258
778.267
778.276
778.285
778.295
778.304
778.313
778.323
778.332
778.342
778.352
778.361
778.371
778.381
778.391
778.401
778.411
778.422
778.432
778.443
778.453
778.464
778.475
778.486
778.498
778.509
778.52
778.531
778.543
778.554
778.565
778.576
778.586
778.597
778.608
778.619
778.63
778.642
778.653
778.664
778.676
778.688
778.7
778.712
778.725
778.737
778.75
778.763
778.775
778.788
778.8
778.813
778.825
778.838
778.85
778.863
778.876
778.888
778.901
778.914
778.927
778.94
778.952
778.965
778.977
778.99
779.003
779.015
779.028
779.041
779.054
779.067
779.081
779.094
779.108
779.122
779.136
779.15
779.164
779.178
779.192
779.206
779.22
779.234
779.247
779.261
779.275
779.288
779.302
779.315
779.329
779.343
779.357
779.371
779.385
779.399
779.413
779.427
779.442
779.456
779.47
779.485
779.499
779.513
779.528
779.542
779.557
779.572
779.586
779.601
779.615
779.63
779.645
779.659
779.674
779.689
779.703
779.718
779.733
779.748
779.762
779.777
779.792
779.807
779.822
779.836
779.851
779.866
779.881
779.896
779.911
779.926
779.94
779.955
779.97
779.985
780
780.015
780.03
780.045
780.06
780.075
780.09
780.105
780.12
780.135
780.15
780.165
780.18
780.195
780.209
780.224
780.239
780.254
780.269
780.284
780.299
780.314
780.329
780.344
780.359
780.374
780.389
780.404
780.418
780.433
780.448
780.463
780.478
780.493
780.508
780.522
780.537
780.552
780.567
780.581
780.596
780.611
780.626
780.64
780.655
780.67
780.684
780.699
780.714
780.728
780.743
780.757
780.772
780.786
780.801
780.815
780.83
780.844
780.859
780.873
780.888
780.902
780.916
780.931
780.945
780.959
780.973
780.988
781.002
781.016
781.03
781.044
781.058
781.072
781.086
781.1
781.114
781.128
781.142
781.156
781.17
781.184
781.198
781.211
781.225
781.239
781.252
781.266
781.28
781.293
781.307
781.32
781.334
781.347
781.36
781.374
781.387
781.4
781.414
781.427
781.44
781.453
781.466
781.479
781.492
781.505
781.518
781.531
781.544
781.557
781.569
781.582
781.595
781.607
781.62
781.633
781.645
781.658
781.67
781.682
781.695
781.707
781.719
781.732
781.744
781.756
781.768
781.78
781.792
781.804
781.816
781.828
781.839
781.851
781.863
781.874
781.886
781.898
781.909
781.921
781.932
781.943
781.955
781.966
781.977
781.988
781.999
782.01
782.021
782.032
782.043
782.054
782.065
782.076
782.086
782.097
782.108
782.118
782.129
782.139
782.15
782.159
782.171
782.179
782.191
782.199
782.212
782.219
782.232
782.239
782.252
782.258
782.272
782.277
782.291
782.296
782.31
782.315
782.329
782.334
782.348
782.353
782.366
782.371
782.384
782.389
782.402
782.407
782.42
782.425
782.438
778.317
778.291
778.249
778.209
778.171
778.137
778.105
778.076
778.05
778.026
778.005
777.986
777.97
777.956
777.945
777.936
777.929
777.923
777.921
777.92
777.92
777.92
777.921
777.923
777.927
777.931
777.935
777.939
777.944
777.949
777.954
777.959
777.964
777.969
777.975
777.98
777.986
777.992
777.998
778.003
778.009
778.016
778.022
778.028
778.034
778.041
778.047
778.054
778.061
778.068
778.075
778.082
778.089
778.096
778.103
778.111
778.118
778.126
778.133
778.141
778.149
778.157
778.165
778.173
778.181
778.189
778.197
778.206
778.214
778.223
778.232
778.24
778.249
778.258
778.267
778.276
778.285
778.295
778.304
778.313
778.323
778.332
778.342
778.352
778.361
778.371
778.381
778.391
778.401
778.412
778.422
778.432
778.443
778.453
778.464
778.475
778.486
778.498
778.509
778.52
778.531
778.543
778.554
778.565
778.576
778.586
778.597
778.608
778.619
778.63
778.642
778.653
778.664
778.676
778.688
778.7
778.712
778.725
778.737
778.75
778.763
778.775
778.788
778.8
778.813
778.825
778.838
778.85
778.863
778.876
778.888
778.901
778.914
778.927
778.94
778.952
778.965
778.977
778.99
779.003
779.015
779.028
779.041
779.054
779.067
779.081
779.094
779.108
779.122
779.136
779.15
779.164
779.178
779.192
779.206
779.22
779.234
779.247
779.261
779.275
779.288
779.302
779.315
779.329
779.343
779.357
779.371
779.385
779.399
779.413
779.427
779.442
779.456
779.47
779.485
779.499
779.513
779.528
779.542
779.557
779.571
779.586
779.601
779.615
779.63
779.645
779.659
779.674
779.689
779.703
779.718
779.733
779.747
779.762
779.777
779.792
779.807
779.821
779.836
779.851
779.866
779.881
779.896
779.911
779.926
779.94
779.955
779.97
779.985
780
780.015
780.03
780.045
780.06
780.075
780.09
780.105
780.12
780.135
780.15
780.165
780.18
780.195
780.209
780.224
780.239
780.254
780.269
780.284
780.299
780.314
780.329
780.344
780.359
780.374
780.389
780.404
780.418
780.433
780.448
780.463
780.478
780.493
780.508
780.522
780.537
780.552
780.567
780.581
780.596
780.611
780.626
780.64
780.655
780.67
780.684
780.699
780.714
780.728
780.743
780.757
780.772
780.786
780.801
780.815
780.83
780.844
780.859
780.873
780.888
780.902
780.916
780.931
780.945
780.959
780.973
780.988
781.002
781.016
781.03
781.044
781.058
781.072
781.086
781.1
781.114
781.128
781.142
781.156
781.17
781.184
781.197
781.211
781.225
781.239
781.252
781.266
781.28
781.293
781.307
781.32
781.334
781.347
781.36
781.374
781.387
781.4
781.414
781.427
781.44
781.453
781.466
781.479
781.492
781.505
781.518
781.531
781.544
781.557
781.569
781.582
781.595
781.607
781.62
781.633
781.645
781.658
781.67
781.682
781.695
781.707
781.719
781.732
781.744
781.756
781.768
781.78
781.792
781.804
781.816
781.828
781.839
781.851
781.863
781.874
781.886
781.898
781.909
781.921
781.932
781.943
781.955
781.966
781.977
781.988
781.999
782.01
782.021
782.032
782.043
782.054
782.065
782.076
782.086
782.097
782.108
782.118
782.129
782.139
782.15
782.159
782.171
782.179
782.191
782.199
782.212
782.219
782.232
782.239
782.252
782.258
782.272
782.277
782.291
782.296
782.31
782.315
782.329
782.334
782.348
782.353
782.366
782.371
782.384
782.389
782.402
782.407
782.42
782.425
782.437
778.317
778.291
778.249
778.209
778.172
778.137
778.105
778.076
778.05
778.026
778.005
777.986
777.97
777.957
777.946
777.936
777.929
777.924
777.921
777.92
777.92
777.92
777.921
777.924
777.927
777.931
777.935
777.94
777.944
777.949
777.954
777.959
777.964
777.97
777.975
777.981
777.986
777.992
777.998
778.004
778.01
778.016
778.022
778.028
778.035
778.041
778.048
778.054
778.061
778.068
778.075
778.082
778.089
778.096
778.103
778.111
778.118
778.126
778.133
778.141
778.149
778.157
778.165
778.173
778.181
778.189
778.198
778.206
778.215
778.223
778.232
778.241
778.249
778.258
778.267
778.276
778.285
778.295
778.304
778.313
778.323
778.332
778.342
778.352
778.362
778.372
778.382
778.392
778.402
778.412
778.422
778.432
778.443
778.453
778.464
778.475
778.486
778.498
778.509
778.52
778.532
778.543
778.554
778.565
778.576
778.586
778.597
778.608
778.619
778.631
778.642
778.653
778.665
778.676
778.688
778.7
778.713
778.725
778.738
778.75
778.763
778.775
778.788
778.8
778.813
778.825
778.838
778.85
778.863
778.876
778.888
778.901
778.914
778.927
778.94
778.952
778.965
778.977
778.99
779.003
779.016
779.028
779.041
779.054
779.067
779.081
779.094
779.108
779.122
779.136
779.15
779.164
779.178
779.192
779.206
779.22
779.234
779.247
779.261
779.275
779.288
779.302
779.315
779.329
779.343
779.357
779.371
779.385
779.399
779.413
779.427
779.442
779.456
779.47
779.485
779.499
779.513
779.528
779.542
779.557
779.571
779.586
779.601
779.615
779.63
779.645
779.659
779.674
779.689
779.703
779.718
779.733
779.747
779.762
779.777
779.792
779.807
779.821
779.836
779.851
779.866
779.881
779.896
779.911
779.926
779.94
779.955
779.97
779.985
780
780.015
780.03
780.045
780.06
780.075
780.09
780.105
780.12
780.135
780.15
780.165
780.18
780.195
780.209
780.224
780.239
780.254
780.269
780.284
780.299
780.314
780.329
780.344
780.359
780.374
780.389
780.404
780.418
780.433
780.448
780.463
780.478
780.493
780.508
780.522
780.537
780.552
780.567
780.581
780.596
780.611
780.626
780.64
780.655
780.67
780.684
780.699
780.714
780.728
780.743
780.757
780.772
780.786
780.801
780.815
780.83
780.844
780.859
780.873
780.888
780.902
780.916
780.931
780.945
780.959
780.973
780.988
781.002
781.016
781.03
781.044
781.058
781.072
781.086
781.1
781.114
781.128
781.142
781.156
781.17
781.184
781.197
781.211
781.225
781.239
781.252
781.266
781.28
781.293
781.307
781.32
781.334
781.347
781.36
781.374
781.387
781.4
781.414
781.427
781.44
781.453
781.466
781.479
781.492
781.505
781.518
781.531
781.544
781.557
781.569
781.582
781.595
781.607
781.62
781.633
781.645
781.658
781.67
781.682
781.695
781.707
781.719
781.732
781.744
781.756
781.768
781.78
781.792
781.804
781.816
781.828
781.839
781.851
781.863
781.874
781.886
781.898
781.909
781.921
781.932
781.943
781.955
781.966
781.977
781.988
781.999
782.01
782.021
782.032
782.043
782.054
782.065
782.076
782.086
782.097
782.108
782.118
782.129
782.139
782.15
782.159
782.171
782.179
782.191
782.199
782.212
782.219
782.232
782.239
782.252
782.258
782.272
782.277
782.291
782.297
782.31
782.315
782.329
782.334
782.348
782.353
782.366
782.371
782.384
782.389
782.402
782.407
782.419
782.426
782.436
778.317
778.292
778.249
778.209
778.172
778.137
778.105
778.076
778.05
778.026
778.005
777.987
777.97
777.957
777.946
777.937
777.929
777.924
777.921
777.92
777.92
777.92
777.921
777.924
777.927
777.931
777.935
777.94
777.944
777.949
777.954
777.959
777.964
777.97
777.975
777.981
777.986
777.992
777.998
778.004
778.01
778.016
778.022
778.028
778.035
778.041
778.048
778.054
778.061
778.068
778.075
778.082
778.089
778.096
778.103
778.111
778.118
778.126
778.133
778.141
778.149
778.157
778.165
778.173
778.181
778.189
778.198
778.206
778.215
778.223
778.232
778.241
778.249
778.258
778.267
778.276
778.286
778.295
778.304
778.314
778.323
778.333
778.342
778.352
778.362
778.372
778.382
778.392
778.402
778.412
778.422
778.432
778.443
778.453
778.464
778.475
778.487
778.498
778.509
778.52
778.532
778.543
778.554
778.565
778.576
778.587
778.597
778.608
778.619
778.631
778.642
778.653
778.665
778.676
778.688
778.7
778.713
778.725
778.738
778.75
778.763
778.775
778.788
778.8
778.813
778.825
778.838
778.85
778.863
778.876
778.888
778.901
778.914
778.927
778.94
778.952
778.965
778.977
778.99
779.003
779.016
779.028
779.041
779.054
779.067
779.081
779.094
779.108
779.122
779.136
779.15
779.164
779.178
779.192
779.206
779.22
779.234
779.248
779.261
779.275
779.288
779.302
779.315
779.329
779.343
779.357
779.371
779.385
779.399
779.413
779.427
779.442
779.456
779.47
779.485
779.499
779.513
779.528
779.542
779.557
779.572
779.586
779.601
779.615
779.63
779.645
779.659
779.674
779.689
779.703
779.718
779.733
779.747
779.762
779.777
779.792
779.807
779.821
779.836
779.851
779.866
779.881
779.896
779.911
779.926
779.94
779.955
779.97
779.985
780
780.015
780.03
780.045
780.06
780.075
780.09
780.105
780.12
780.135
780.15
780.165
780.18
780.195
780.209
780.224
780.239
780.254
780.269
780.284
780.299
780.314
780.329
780.344
780.359
780.374
780.389
780.404
780.418
780.433
780.448
780.463
780.478
780.493
780.508
780.522
780.537
780.552
780.567
780.581
780.596
780.611
780.626
780.64
780.655
780.67
780.684
780.699
780.714
780.728
780.743
780.757
780.772
780.786
780.801
780.815
780.83
780.844
780.859
780.873
780.888
780.902
780.916
780.931
780.945
780.959
780.973
780.988
781.002
781.016
781.03
781.044
781.058
781.072
781.086
781.1
781.114
781.128
781.142
781.156
781.17
781.184
781.197
781.211
781.225
781.239
781.252
781.266
781.28
781.293
781.307
781.32
781.334
781.347
781.36
781.374
781.387
781.4
781.414
781.427
781.44
781.453
781.466
781.479
781.492
781.505
781.518
781.531
781.544
781.557
781.569
781.582
781.595
781.607
781.62
781.633
781.645
781.658
781.67
781.682
781.695
781.707
781.719
781.732
781.744
781.756
781.768
781.78
781.792
781.804
781.816
781.828
781.839
781.851
781.863
781.874
781.886
781.898
781.909
781.921
781.932
781.943
781.955
781.966
781.977
781.988
781.999
782.01
782.021
782.032
782.043
782.054
782.065
782.076
782.086
782.097
782.108
782.118
782.129
782.139
782.15
782.159
782.171
782.179
782.191
782.199
782.212
782.219
782.232
782.239
782.252
782.258
782.272
782.277
782.291
782.296
782.31
782.315
782.329
782.334
782.348
782.353
782.366
782.371
782.384
782.389
782.402
782.407
782.42
782.425
782.437
778.317
778.292
778.249
778.209
778.172
778.137
778.105
778.076
778.05
778.026
778.005
777.987
777.97
777.957
777.946
777.937
777.929
777.924
777.921
777.92
777.92
777.92
777.921
777.924
777.927
777.931
777.935
777.94
777.944
777.949
777.954
777.959
777.964
777.97
777.975
777.981
777.986
777.992
777.998
778.004
778.01
778.016
778.022
778.028
778.035
778.041
778.048
778.054
778.061
778.068
778.075
778.082
778.089
778.096
778.103
778.111
778.118
778.126
778.133
778.141
778.149
778.157
778.165
778.173
778.181
778.189
778.198
778.206
778.215
778.223
778.232
778.241
778.249
778.258
778.267
778.276
778.286
778.295
778.304
778.314
778.323
778.333
778.342
778.352
778.362
778.372
778.382
778.392
778.402
778.412
778.422
778.432
778.443
778.453
778.464
778.475
778.487
778.498
778.509
778.52
778.532
778.543
778.554
778.565
778.576
778.587
778.597
778.608
778.619
778.631
778.642
778.653
778.665
778.676
778.688
778.7
778.713
778.725
778.738
778.75
778.763
778.775
778.788
778.8
778.813
778.825
778.838
778.85
778.863
778.876
778.888
778.901
778.914
778.927
778.94
778.952
778.965
778.977
778.99
779.003
779.016
779.028
779.041
779.054
779.067
779.081
779.094
779.108
779.122
779.136
779.15
779.164
779.178
779.192
779.206
779.22
779.234
779.248
779.261
779.275
779.288
779.302
779.315
779.329
779.343
779.357
779.371
779.385
779.399
779.413
779.427
779.442
779.456
779.47
779.485
779.499
779.513
779.528
779.542
779.557
779.572
779.586
779.601
779.615
779.63
779.645
779.659
779.674
779.689
779.703
779.718
779.733
779.747
779.762
779.777
779.792
779.807
779.821
779.836
779.851
779.866
779.881
779.896
779.911
779.926
779.94
779.955
779.97
779.985
780
780.015
780.03
780.045
780.06
780.075
780.09
780.105
780.12
780.135
780.15
780.165
780.18
780.195
780.209
780.224
780.239
780.254
780.269
780.284
780.299
780.314
780.329
780.344
780.359
780.374
780.389
780.404
780.418
780.433
780.448
780.463
780.478
780.493
780.508
780.522
780.537
780.552
780.567
780.581
780.596
780.611
780.626
780.64
780.655
780.67
780.684
780.699
780.714
780.728
780.743
780.757
780.772
780.786
780.801
780.815
780.83
780.844
780.859
780.873
780.888
780.902
780.916
780.931
780.945
780.959
780.973
780.988
781.002
781.016
781.03
781.044
781.058
781.072
781.086
781.1
781.114
781.128
781.142
781.156
781.17
781.184
781.197
781.211
781.225
781.239
781.252
781.266
781.28
781.293
781.307
781.32
781.334
781.347
781.36
781.374
781.387
781.4
781.414
781.427
781.44
781.453
781.466
781.479
781.492
781.505
781.518
781.531
781.544
781.557
781.569
781.582
781.595
781.607
781.62
781.633
781.645
781.658
781.67
781.682
781.695
781.707
781.719
781.732
781.744
781.756
781.768
781.78
781.792
781.804
781.816
781.828
781.839
781.851
781.863
781.874
781.886
781.898
781.909
781.921
781.932
781.943
781.955
781.966
781.977
781.988
781.999
782.01
782.021
782.032
782.043
782.054
782.065
782.076
782.086
782.097
782.108
782.118
782.129
782.139
782.149
782.16
782.17
782.18
782.191
782.2
782.211
782.22
782.231
782.24
782.25
782.26
782.269
782.28
782.288
782.299
782.308
782.317
782.328
782.336
782.346
782.355
782.362
782.375
782.38
782.393
782.398
782.41
782.416
782.428
782.434
778.317
778.291
778.249
778.209
778.172
778.137
778.105
778.076
778.05
778.026
778.005
777.986
777.97
777.957
777.946
777.936
777.929
777.924
777.921
777.92
777.92
777.92
777.921
777.924
777.927
777.931
777.935
777.94
777.944
777.949
777.954
777.959
777.964
777.97
777.975
777.981
777.986
777.992
777.998
778.004
778.01
778.016
778.022
778.028
778.035
778.041
778.048
778.054
778.061
778.068
778.075
778.082
778.089
778.096
778.103
778.111
778.118
778.126
778.133
778.141
778.149
778.157
778.165
778.173
778.181
778.189
778.198
778.206
778.215
778.223
778.232
778.241
778.249
778.258
778.267
778.276
778.285
778.295
778.304
778.313
778.323
778.332
778.342
778.352
778.362
778.372
778.382
778.392
778.402
778.412
778.422
778.432
778.443
778.453
778.464
778.475
778.486
778.498
778.509
778.52
778.532
778.543
778.554
778.565
778.576
778.586
778.597
778.608
778.619
778.631
778.642
778.653
778.665
778.676
778.688
778.7
778.713
778.725
778.738
778.75
778.763
778.775
778.788
778.8
778.813
778.825
778.838
778.85
778.863
778.876
778.888
778.901
778.914
778.927
778.94
778.952
778.965
778.977
778.99
779.003
779.016
779.028
779.041
779.054
779.067
779.081
779.094
779.108
779.122
779.136
779.15
779.164
779.178
779.192
779.206
779.22
779.234
779.247
779.261
779.275
779.288
779.302
779.315
779.329
779.343
779.357
779.371
779.385
779.399
779.413
779.427
779.442
779.456
779.47
779.485
779.499
779.513
779.528
779.542
779.557
779.571
779.586
779.601
779.615
779.63
779.645
779.659
779.674
779.689
779.703
779.718
779.733
779.747
779.762
779.777
779.792
779.807
779.821
779.836
779.851
779.866
779.881
779.896
779.911
779.926
779.94
779.955
779.97
779.985
780
780.015
780.03
780.045
780.06
780.075
780.09
780.105
780.12
780.135
780.15
780.165
780.18
780.195
780.209
780.224
780.239
780.254
780.269
780.284
780.299
780.314
780.329
780.344
780.359
780.374
780.389
780.404
780.418
780.433
780.448
780.463
780.478
780.493
780.508
780.522
780.537
780.552
780.567
780.581
780.596
780.611
780.626
780.64
780.655
780.67
780.684
780.699
780.714
780.728
780.743
780.757
780.772
780.786
780.801
780.815
780.83
780.844
780.859
780.873
780.888
780.902
780.916
780.931
780.945
780.959
780.973
780.988
781.002
781.016
781.03
781.044
781.058
781.072
781.086
781.1
781.114
781.128
781.142
781.156
781.17
781.184
781.197
781.211
781.225
781.239
781.252
781.266
781.28
781.293
781.307
781.32
781.334
781.347
781.36
781.374
781.387
781.4
781.414
781.427
781.44
781.453
781.466
781.479
781.492
781.505
781.518
781.531
781.544
781.557
781.569
781.582
781.595
781.607
781.62
781.633
781.645
781.658
781.67
781.682
781.695
781.707
781.719
781.732
781.744
781.756
781.768
781.78
781.792
781.804
781.816
781.828
781.839
781.851
781.863
781.874
781.886
781.898
781.909
781.921
781.932
781.943
781.955
781.966
781.977
781.988
781.999
782.01
782.021
782.032
782.043
782.054
782.065
782.076
782.086
782.097
782.108
782.118
782.129
782.139
782.15
782.16
782.17
782.18
782.19
782.201
782.21
782.221
782.229
782.241
782.25
782.26
782.27
782.278
782.29
782.297
782.309
782.318
782.326
782.338
782.343
782.357
782.362
782.375
782.38
782.392
782.399
782.409
782.417
782.428
782.436
778.317
778.291
778.249
778.209
778.171
778.137
778.105
778.076
778.05
778.026
778.005
777.986
777.97
777.956
777.945
777.936
777.929
777.923
777.921
777.92
777.92
777.92
777.921
777.923
777.927
777.931
777.935
777.939
777.944
777.949
777.954
777.959
777.964
777.969
777.975
777.98
777.986
777.992
777.998
778.003
778.009
778.016
778.022
778.028
778.034
778.041
778.047
778.054
778.061
778.068
778.075
778.082
778.089
778.096
778.103
778.111
778.118
778.126
778.133
778.141
778.149
778.157
778.165
778.173
778.181
778.189
778.197
778.206
778.214
778.223
778.232
778.24
778.249
778.258
778.267
778.276
778.285
778.295
778.304
778.313
778.323
778.332
778.342
778.352
778.361
778.371
778.381
778.391
778.401
778.412
778.422
778.432
778.443
778.453
778.464
778.475
778.486
778.498
778.509
778.52
778.531
778.543
778.554
778.565
778.576
778.586
778.597
778.608
778.619
778.63
778.642
778.653
778.664
778.676
778.688
778.7
778.712
778.725
778.737
778.75
778.763
778.775
778.788
778.8
778.813
778.825
778.838
778.85
778.863
778.876
778.888
778.901
778.914
778.927
778.94
778.952
778.965
778.977
778.99
779.003
779.015
779.028
779.041
779.054
779.067
779.081
779.094
779.108
779.122
779.136
779.15
779.164
779.178
779.192
779.206
779.22
779.234
779.247
779.261
779.275
779.288
779.302
779.315
779.329
779.343
779.357
779.371
779.385
779.399
779.413
779.427
779.442
779.456
779.47
779.485
779.499
779.513
779.528
779.542
779.557
779.571
779.586
779.601
779.615
779.63
779.645
779.659
779.674
779.689
779.703
779.718
779.733
779.747
779.762
779.777
779.792
779.807
779.821
779.836
779.851
779.866
779.881
779.896
779.911
779.926
779.94
779.955
779.97
779.985
780
780.015
780.03
780.045
780.06
780.075
780.09
780.105
780.12
780.135
780.15
780.165
780.18
780.195
780.209
780.224
780.239
780.254
780.269
780.284
780.299
780.314
780.329
780.344
780.359
780.374
780.389
780.404
780.418
780.433
780.448
780.463
780.478
780.493
780.508
780.522
780.537
780.552
780.567
780.581
780.596
780.611
780.626
780.64
780.655
780.67
780.684
780.699
780.714
780.728
780.743
780.757
780.772
780.786
780.801
780.815
780.83
780.844
780.859
780.873
780.888
780.902
780.916
780.931
780.945
780.959
780.973
780.988
781.002
781.016
781.03
781.044
781.058
781.072
781.086
781.1
781.114
781.128
781.142
781.156
781.17
781.184
781.197
781.211
781.225
781.239
781.252
781.266
781.28
781.293
781.307
781.32
781.334
781.347
781.36
781.374
781.387
781.4
781.414
781.427
781.44
781.453
781.466
781.479
781.492
781.505
781.518
781.531
781.544
781.557
781.569
781.582
781.595
781.607
781.62
781.633
781.645
781.658
781.67
781.682
781.695
781.707
781.719
781.732
781.744
781.756
781.768
781.78
781.792
781.804
781.816
781.828
781.839
781.851
781.863
781.874
781.886
781.898
781.909
781.921
781.932
781.943
781.955
781.966
781.977
781.988
781.999
782.01
782.021
782.032
782.043
782.054
782.065
782.076
782.086
782.097
782.108
782.118
782.129
782.139
782.149
782.16
782.17
782.18
782.19
782.201
782.21
782.222
782.229
782.242
782.249
782.261
782.268
782.281
782.288
782.3
782.306
782.32
782.325
782.338
782.344
782.357
782.362
782.375
782.38
782.393
782.398
782.411
782.416
782.429
782.434
778.317
778.291
778.249
778.209
778.171
778.137
778.105
778.076
778.049
778.026
778.005
777.986
777.97
777.956
777.945
777.936
777.929
777.923
777.921
777.92
777.919
777.92
777.921
777.923
777.927
777.931
777.935
777.939
777.944
777.949
777.954
777.959
777.964
777.969
777.975
777.98
777.986
777.992
777.998
778.003
778.009
778.016
778.022
778.028
778.034
778.041
778.047
778.054
778.061
778.068
778.075
778.082
778.089
778.096
778.103
778.11
778.118
778.126
778.133
778.141
778.149
778.157
778.165
778.173
778.181
778.189
778.197
778.206
778.214
778.223
778.232
778.24
778.249
778.258
778.267
778.276
778.285
778.295
778.304
778.313
778.323
778.332
778.342
778.352
778.361
778.371
778.381
778.391
778.401
778.411
778.422
778.432
778.443
778.453
778.464
778.475
778.486
778.498
778.509
778.52
778.531
778.543
778.554
778.565
778.576
778.586
778.597
778.608
778.619
778.63
778.642
778.653
778.664
778.676
778.688
778.7
778.712
778.725
778.737
778.75
778.763
778.775
778.788
778.8
778.813
778.825
778.838
778.85
778.863
778.876
778.888
778.901
778.914
778.927
778.94
778.952
778.965
778.977
778.99
779.003
779.015
779.028
779.041
779.054
779.067
779.081
779.094
779.108
779.122
779.136
779.15
779.164
779.178
779.192
779.206
779.22
779.234
779.247
779.261
779.275
779.288
779.302
779.315
779.329
779.343
779.357
779.371
779.385
779.399
779.413
779.427
779.442
779.456
779.47
779.485
779.499
779.513
779.528
779.542
779.557
779.572
779.586
779.601
779.615
779.63
779.645
779.659
779.674
779.689
779.703
779.718
779.733
779.748
779.762
779.777
779.792
779.807
779.822
779.836
779.851
779.866
779.881
779.896
779.911
779.926
779.94
779.955
779.97
779.985
780
780.015
780.03
780.045
780.06
780.075
780.09
780.105
780.12
780.135
780.15
780.165
780.18
780.195
780.209
780.224
780.239
780.254
780.269
780.284
780.299
780.314
780.329
780.344
780.359
780.374
780.389
780.404
780.418
780.433
780.448
780.463
780.478
780.493
780.508
780.522
780.537
780.552
780.567
780.581
780.596
780.611
780.626
780.64
780.655
780.67
780.684
780.699
780.714
780.728
780.743
780.757
780.772
780.786
780.801
780.815
780.83
780.844
780.859
780.873
780.888
780.902
780.916
780.931
780.945
780.959
780.973
780.988
781.002
781.016
781.03
781.044
781.058
781.072
781.086
781.1
781.114
781.128
781.142
781.156
781.17
781.184
781.198
781.211
781.225
781.239
781.252
781.266
781.28
781.293
781.307
781.32
781.334
781.347
781.36
781.374
781.387
781.4
781.414
781.427
781.44
781.453
781.466
781.479
781.492
781.505
781.518
781.531
781.544
781.557
781.569
781.582
781.595
781.607
781.62
781.633
781.645
781.658
781.67
781.682
781.695
781.707
781.719
781.732
781.744
781.756
781.768
781.78
781.792
781.804
781.816
781.828
781.839
781.851
781.863
781.874
781.886
781.898
781.909
781.921
781.932
781.943
781.955
781.966
781.977
781.988
781.999
782.01
782.021
782.032
782.043
782.054
782.065
782.076
782.086
782.097
782.108
782.118
782.129
782.139
782.149
782.16
782.17
782.18
782.19
782.201
782.21
782.222
782.229
782.242
782.248
782.262
782.268
782.281
782.287
782.301
782.306
782.32
782.325
782.338
782.343
782.357
782.362
782.375
782.38
782.393
782.398
782.411
782.416
782.43
782.434
778.326
778.3
778.257
778.217
778.18
778.145
778.114
778.085
778.058
778.034
778.013
777.995
777.979
777.965
777.954
777.945
777.937
777.932
777.929
777.928
777.928
777.928
777.929
777.932
777.935
777.939
777.943
777.948
777.952
777.957
777.962
777.967
777.972
777.978
777.983
777.989
777.994
778
778.006
778.012
778.018
778.024
778.03
778.036
778.042
778.049
778.055
778.062
778.069
778.076
778.082
778.089
778.097
778.104
778.111
778.118
778.126
778.133
778.141
778.149
778.156
778.164
778.172
778.18
778.189
778.197
778.205
778.213
778.222
778.231
778.239
778.248
778.257
778.266
778.275
778.284
778.293
778.302
778.311
778.321
778.33
778.34
778.349
778.359
778.369
778.379
778.389
778.399
778.409
778.419
778.429
778.439
778.45
778.461
778.471
778.482
778.494
778.505
778.516
778.527
778.539
778.55
778.561
778.572
778.582
778.593
778.604