/*--------------------------------*- C++ -*----------------------------------*\
| =========                 |                                                 |
| \\      /  F ield         | OpenFOAM: The Open Source CFD Toolbox           |
|  \\    /   O peration     | Version:  3.0.x                                 |
|   \\  /    A nd           | Web:      www.OpenFOAM.org                      |
|    \\/     M anipulation  |                                                 |
\*---------------------------------------------------------------------------*/
FoamFile
{
    version     2.0;
    format      ascii;
    class       surfaceScalarField;
    location    "0.56";
    object      phi;
}
// * * * * * * * * * * * * * * * * * * * * * * * * * * * * * * * * * * * * * //

dimensions      [1 0 -1 0 0 0 0];

internalField   nonuniform List<scalar> 
26210
(
5.49824
0.00050876
5.45825
0.000356804
5.4182
0.000353574
5.37806
0.000358068
5.33784
0.000361004
5.29757
0.00036362
5.25725
0.000365979
5.21686
0.000367984
5.17642
0.000369631
5.13594
0.000370944
5.09544
0.000372185
5.05491
0.000373206
5.01434
0.000373769
4.97376
0.000374462
4.93316
0.000374968
4.89257
0.000375389
4.85198
0.000375745
4.81139
0.000376058
4.77081
0.000376344
4.73025
0.000376612
4.68971
0.000376871
4.64918
0.000377129
4.60868
0.000377386
4.5682
0.000377649
4.52776
0.000377916
4.48734
0.000378191
4.44696
0.000378472
4.40663
0.000378763
4.36633
0.000379058
4.32608
0.000379363
4.28587
0.000379675
4.24572
0.000379994
4.20562
0.000380323
4.16559
0.000380656
4.12561
0.000380999
4.0857
0.000381348
4.04586
0.000381702
4.00609
0.000382059
3.9664
0.000382428
3.92678
0.000382797
3.88725
0.000383173
3.84781
0.000383557
3.80845
0.00038394
3.76919
0.000384336
3.73003
0.000384725
3.69097
0.000385128
3.65202
0.000385535
3.61317
0.00038594
3.57444
0.000386359
3.53582
0.000386773
3.49732
0.000387192
3.45894
0.000387607
3.42069
0.000388018
3.38257
0.000388435
3.34459
0.000388857
3.30674
0.000389293
3.26904
0.000389748
3.23147
0.000390213
3.19406
0.000390657
3.1568
0.00039107
3.11969
0.000391466
3.08275
0.000391881
3.04596
0.000392304
3.00934
0.000392741
2.97289
0.000393173
2.93661
0.000393599
2.9005
0.000394024
2.86457
0.00039443
2.82883
0.000394847
2.79327
0.000395299
2.7579
0.00039577
2.72272
0.000396285
2.68774
0.000396792
2.65295
0.00039729
2.61836
0.000397743
2.58397
0.000398194
2.54978
0.000398612
2.51581
0.000399015
2.48204
0.00039943
2.44848
0.000399841
2.41514
0.000400259
2.38202
0.000400692
2.34911
0.000401122
2.31643
0.00040154
2.28398
0.000401927
2.25175
0.000402274
2.21974
0.000402609
2.18797
0.000402967
2.15644
0.000403347
2.12513
0.00040372
2.09407
0.000404086
2.06324
0.000404464
2.03265
0.000404843
2.0023
0.00040516
1.9722
0.000405353
1.94233
0.000405394
1.91272
0.000405292
1.88335
0.000405044
1.85423
0.000404607
1.82536
0.000403912
1.79674
0.000402894
1.76837
0.00040152
1.74026
0.000399775
1.71241
0.000397642
1.68481
0.000395076
1.65747
0.000392002
1.63039
0.000388323
1.60358
0.000383942
1.57702
0.00037877
1.55073
0.000372737
1.5247
0.000365786
1.49894
0.000357884
1.47345
0.000349018
1.44823
0.000339194
1.42327
0.000328433
1.39859
0.000316772
1.37418
0.000304255
1.35004
0.000290946
1.32618
0.000276921
1.30259
0.000262279
1.27927
0.000247131
1.25623
0.000231603
1.23346
0.000215827
1.21097
0.000199939
1.18875
0.000184079
1.1668
0.000168386
1.14513
0.000152993
1.12373
0.000138024
1.10259
0.000123593
1.08173
0.0001098
1.06113
9.6727e-05
1.0408
8.44407e-05
1.02073
7.29888e-05
1.00092
6.24013e-05
0.981377
5.2692e-05
0.962089
4.38575e-05
0.943058
3.58814e-05
0.924281
2.87332e-05
0.905757
2.23751e-05
0.887483
1.67591e-05
0.869458
1.18333e-05
0.851679
7.53905e-06
0.834146
3.81915e-06
0.816856
6.29587e-07
0.799806
-2.13142e-06
0.782997
-4.48553e-06
0.766425
-6.48378e-06
0.750089
-8.17673e-06
0.733987
-9.61038e-06
0.718118
-1.08255e-05
0.702479
-1.18592e-05
0.68707
-1.27416e-05
0.671887
-1.3499e-05
0.656931
-1.41532e-05
0.642199
-1.47242e-05
0.627689
-1.52304e-05
0.613399
-1.56848e-05
0.599329
-1.61e-05
0.585477
-1.64828e-05
0.57184
-1.68402e-05
0.558417
-1.71785e-05
0.545207
-1.75007e-05
0.532208
-1.7812e-05
0.519417
-1.8114e-05
0.506834
-1.84095e-05
0.494455
-1.87003e-05
0.48228
-1.89896e-05
0.470306
-1.92736e-05
0.458532
-1.95574e-05
0.446955
-1.9832e-05
0.435573
-2.01146e-05
0.424386
-2.03819e-05
0.413391
-2.06666e-05
0.402587
-2.09355e-05
0.391971
-2.11992e-05
0.381543
-2.15272e-05
0.3713
-2.1654e-05
0.361242
-2.22366e-05
0.351365
-2.19353e-05
0.34167
-2.31338e-05
0.332152
-2.20283e-05
0.322814
-2.41918e-05
0.31365
-2.20025e-05
0.304663
-2.54505e-05
0.295844
-2.17462e-05
0.287202
-2.69366e-05
0.278724
-2.09007e-05
0.270419
-2.89826e-05
0.262274
-2.00997e-05
0.254297
-2.98666e-05
0.246476
-2.04624e-05
0.238815
-2.89055e-05
0.231301
-1.74331e-05
0.223926
-9.72227e-06
0.216638
5.91953e-05
0.209228
0.000330727
0.200823
0.00148415
0.188835
0.0052201
0.142649
0.0395719
0.0637971
0.0723842
7.77662
0.000464346
7.72058
0.000338586
7.66446
0.000328331
7.60823
0.00033421
7.55188
0.000336976
7.49546
0.000339357
7.43898
0.000341621
7.38241
0.000343547
7.32576
0.000345128
7.26906
0.000346398
7.21234
0.000347592
7.15556
0.000348581
7.09874
0.00034916
7.0419
0.000349839
6.98504
0.000350352
6.92819
0.000350784
6.87133
0.000351154
6.81449
0.000351486
6.75766
0.00035179
6.70085
0.000352078
6.64407
0.000352358
6.58731
0.000352637
6.53059
0.000352915
6.47391
0.000353198
6.41726
0.000353486
6.36067
0.00035378
6.30412
0.000354081
6.24763
0.000354391
6.1912
0.000354705
6.13483
0.000355028
6.07854
0.000355358
6.02231
0.000355695
5.96617
0.00035604
5.91011
0.00035639
5.85413
0.000356749
5.79825
0.000357114
5.74247
0.000357483
5.68679
0.000357856
5.63122
0.00035824
5.57576
0.000358624
5.52042
0.000359014
5.4652
0.000359413
5.41012
0.00035981
5.35516
0.000360219
5.30034
0.000360623
5.24567
0.000361039
5.19115
0.00036146
5.13678
0.000361878
5.08257
0.000362309
5.02852
0.000362736
4.97464
0.000363168
4.92094
0.000363596
4.86742
0.000364021
4.81409
0.000364452
4.76094
0.000364888
4.70799
0.000365335
4.65524
0.0003658
4.60269
0.000366275
4.55036
0.000366731
4.49824
0.000367159
4.44634
0.000367573
4.39466
0.000368003
4.34322
0.000368441
4.292
0.00036889
4.24103
0.000369335
4.1903
0.000369774
4.13982
0.000370212
4.08959
0.000370635
4.03962
0.000371068
3.98992
0.000371535
3.94048
0.00037202
3.89131
0.000372543
3.84242
0.00037306
3.79381
0.000373567
3.74547
0.000374034
3.69742
0.000374499
3.64966
0.000374934
3.6022
0.000375354
3.55503
0.000375784
3.50816
0.000376212
3.4616
0.000376646
3.41535
0.000377094
3.3694
0.00037754
3.32378
0.000377974
3.27847
0.000378379
3.23348
0.000378747
3.18881
0.000379103
3.14447
0.000379479
3.10046
0.000379873
3.05679
0.000380262
3.01345
0.000380641
2.97044
0.000381027
2.92778
0.000381406
2.88546
0.000381721
2.84348
0.00038191
2.80184
0.000381951
2.76055
0.000381845
2.71962
0.000381588
2.67903
0.000381136
2.63879
0.00038042
2.59891
0.000379379
2.55939
0.000377978
2.52022
0.000376202
2.48141
0.000374029
2.44297
0.000371416
2.40488
0.000368287
2.36716
0.000364551
2.3298
0.000360117
2.2928
0.000354902
2.25617
0.000348841
2.21991
0.000341886
2.18401
0.000334012
2.14847
0.00032521
2.1133
0.000315495
2.0785
0.000304894
2.04407
0.000293451
2.01
0.000281219
1.97629
0.000268265
1.94296
0.000254673
1.90999
0.000240544
1.87738
0.000225991
1.84515
0.000211141
1.81327
0.000196121
1.78176
0.000181066
1.75062
0.000166108
1.71984
0.000151377
1.68941
0.000136998
1.65936
0.000123082
1.62966
0.000109732
1.60032
9.70331e-05
1.57134
8.50568e-05
1.54271
7.3856e-05
1.51444
6.34669e-05
1.48653
5.39088e-05
1.45897
4.5186e-05
1.43176
3.72874e-05
1.4049
3.01904e-05
1.37839
2.386e-05
1.35223
1.82553e-05
1.32641
1.33273e-05
1.30094
9.02268e-06
1.27581
5.28285e-06
1.25102
2.05755e-06
1.22657
-6.78468e-07
1.20246
-3.05773e-06
1.17868
-5.07269e-06
1.15523
-6.7801e-06
1.13212
-8.22566e-06
1.10934
-9.44978e-06
1.08688
-1.04882e-05
1.06474
-1.13734e-05
1.04293
-1.21314e-05
1.02144
-1.27845e-05
1.00027
-1.33515e-05
0.979411
-1.38492e-05
0.958868
-1.42938e-05
0.938636
-1.4696e-05
0.918714
-1.50661e-05
0.899099
-1.54101e-05
0.879789
-1.57332e-05
0.860781
-1.60414e-05
0.842073
-1.6336e-05
0.823662
-1.66224e-05
0.805546
-1.6901e-05
0.787723
-1.71746e-05
0.770189
-1.74449e-05
0.752943
-1.77126e-05
0.73598
-1.79794e-05
0.719299
-1.82393e-05
0.702897
-1.85047e-05
0.686772
-1.87504e-05
0.67092
-1.90349e-05
0.65534
-1.92349e-05
0.640029
-1.96072e-05
0.624985
-1.96374e-05
0.610205
-2.03209e-05
0.595687
-1.98104e-05
0.58143
-2.13558e-05
0.567428
-1.95684e-05
0.553684
-2.28122e-05
0.54019
-1.89568e-05
0.52695
-2.45623e-05
0.513954
-1.81372e-05
0.50121
-2.6785e-05
0.488703
-1.64781e-05
0.476445
-2.98711e-05
0.464419
-1.34332e-05
0.452638
-3.41828e-05
0.441081
-1.08343e-05
0.429763
-3.54274e-05
0.418664
-1.12272e-05
0.407791
-3.23177e-05
0.397127
-3.84067e-06
0.386658
1.5653e-05
0.376304
0.000191057
0.36576
0.000861865
0.35373
0.0037283
0.335362
0.0140153
0.275552
0.0900319
0.139945
0.190251
10.9978
0.000405563
10.9186
0.000310071
10.8392
0.000293072
10.7597
0.000300057
10.68
0.000302681
10.6002
0.000304714
10.5203
0.00030677
10.4403
0.000308525
10.3602
0.000309953
10.28
0.000311107
10.1998
0.000312179
10.1195
0.000313066
10.0391
0.000313609
9.95875
0.000314213
9.87835
0.00031468
9.79794
0.00031507
9.71754
0.000315405
9.63715
0.000315705
9.55679
0.000315979
9.47645
0.000316239
9.39614
0.000316492
9.31588
0.000316743
9.23566
0.000316994
9.1555
0.000317248
9.0754
0.000317507
8.99536
0.000317771
8.91539
0.000318042
8.83551
0.00031832
8.7557
0.000318603
8.67599
0.000318894
8.59638
0.000319191
8.51687
0.000319493
8.43747
0.000319803
8.35819
0.000320118
8.27903
0.000320441
8.2
0.000320769
8.12112
0.000321102
8.04238
0.000321437
7.96379
0.000321781
7.88536
0.000322127
7.8071
0.000322478
7.72902
0.000322836
7.65111
0.000323194
7.57339
0.000323562
7.49588
0.000323925
7.41856
0.000324299
7.34145
0.000324677
7.26457
0.000325053
7.1879
0.00032544
7.11147
0.000325825
7.03528
0.000326212
6.95934
0.000326598
6.88366
0.000326981
6.80823
0.000327369
6.73307
0.00032776
6.65819
0.000328162
6.58359
0.000328578
6.50929
0.000329003
6.43528
0.000329414
6.36157
0.0003298
6.28818
0.000330175
6.2151
0.000330562
6.14235
0.000330958
6.06993
0.000331361
5.99785
0.00033176
5.92611
0.000332153
5.85472
0.000332544
5.78369
0.000332926
5.71303
0.000333316
5.64274
0.000333738
5.57283
0.000334175
5.5033
0.000334643
5.43416
0.000335107
5.36541
0.000335562
5.29706
0.000335983
5.22912
0.0003364
5.16158
0.000336793
5.09446
0.000337172
5.02775
0.000337558
4.96148
0.000337942
4.89563
0.000338332
4.83023
0.000338734
4.76526
0.000339135
4.70074
0.000339526
4.63666
0.000339891
4.57304
0.000340223
4.50988
0.000340544
4.44718
0.000340883
4.38495
0.000341237
4.32319
0.000341588
4.2619
0.00034193
4.20109
0.000342278
4.14076
0.000342618
4.08092
0.000342899
4.02155
0.00034307
3.96268
0.000343109
3.90429
0.000343018
3.8464
0.00034279
3.78901
0.000342387
3.73211
0.000341747
3.67572
0.000340816
3.61983
0.000339563
3.56444
0.000337975
3.50956
0.000336032
3.45519
0.000333693
3.40134
0.000330892
3.34799
0.000327547
3.29516
0.000323575
3.24285
0.000318903
3.19105
0.000313473
3.13976
0.000307242
3.08899
0.000300185
3.03873
0.000292296
2.98899
0.000283587
2.93977
0.000274082
2.89107
0.000263819
2.84289
0.000252847
2.79522
0.000241226
2.74807
0.00022903
2.70144
0.00021635
2.65532
0.000203287
2.60972
0.000189955
2.56464
0.000176468
2.52007
0.000162946
2.47601
0.00014951
2.43247
0.000136276
2.38944
0.000123355
2.34692
0.000110848
2.30491
9.88465e-05
2.26341
8.7429e-05
2.22242
7.66584e-05
2.18193
6.6583e-05
2.14194
5.72357e-05
2.10246
4.86339e-05
2.06348
4.07821e-05
2.02499
3.36705e-05
1.987
2.72788e-05
1.94951
2.15761e-05
1.91251
1.65259e-05
1.87599
1.20844e-05
1.83997
8.20221e-06
1.80443
4.82307e-06
1.76937
1.90454e-06
1.73479
-5.18576e-07
1.70068
-2.68695e-06
1.66705
-4.51122e-06
1.6339
-6.05245e-06
1.60121
-7.35757e-06
1.56898
-8.46265e-06
1.53722
-9.40013e-06
1.50592
-1.01992e-05
1.47507
-1.08834e-05
1.44468
-1.14728e-05
1.41473
-1.19842e-05
1.38524
-1.24332e-05
1.35619
-1.28341e-05
1.32758
-1.31967e-05
1.2994
-1.35298e-05
1.27166
-1.38397e-05
1.24435
-1.41303e-05
1.21747
-1.44079e-05
1.19101
-1.46726e-05
1.16498
-1.49302e-05
1.13936
-1.51808e-05
1.11415
-1.54265e-05
1.08935
-1.56701e-05
1.06496
-1.59087e-05
1.04098
-1.61523e-05
1.01739
-1.63778e-05
0.994189
-1.66322e-05
0.971384
-1.68219e-05
0.948967
-1.71367e-05
0.926933
-1.72054e-05
0.90528
-1.7742e-05
0.884004
-1.7412e-05
0.863103
-1.86412e-05
0.842571
-1.71668e-05
0.822409
-2.01551e-05
0.802607
-1.61634e-05
0.78317
-2.24191e-05
0.764086
-1.45378e-05
0.745363
-2.51638e-05
0.726983
-1.25675e-05
0.70896
-2.87943e-05
0.691273
-8.84715e-06
0.673938
-3.42377e-05
0.65693
-2.58278e-06
0.640269
-4.18569e-05
0.623925
2.6205e-06
0.607919
-4.36507e-05
0.592222
2.17307e-06
0.576847
-3.763e-05
0.561766
1.5006e-05
0.546966
4.60412e-05
0.532348
0.000352098
0.517552
0.00149766
0.501037
0.00640326
0.477618
0.0238974
0.401903
0.152524
0.241537
0.287364
48.5466
0.000187242
48.1968
0.000161596
47.8464
0.000145241
47.4954
0.000149531
47.1437
0.000151586
46.7915
0.000152418
46.4389
0.000153383
46.0857
0.00015426
45.732
0.000154969
45.3781
0.000155549
45.024
0.000156073
44.6696
0.000156509
44.3149
0.0001568
43.96
0.000157091
43.6051
0.000157326
43.2502
0.000157521
42.8953
0.000157688
42.5404
0.000157838
42.1857
0.000157976
41.831
0.000158105
41.4765
0.000158232
41.1222
0.000158357
40.7682
0.000158483
40.4143
0.00015861
40.0607
0.000158738
39.7074
0.00015887
39.3544
0.000159006
39.0018
0.000159144
38.6495
0.000159286
38.2976
0.000159432
37.9462
0.000159581
37.5952
0.000159732
37.2447
0.000159886
36.8948
0.000160045
36.5454
0.000160206
36.1965
0.00016037
35.8483
0.000160537
35.5007
0.000160704
35.1538
0.000160877
34.8076
0.00016105
34.4622
0.000161226
34.1175
0.000161405
33.7736
0.000161585
33.4305
0.000161769
33.0884
0.000161951
32.7471
0.000162138
32.4067
0.000162327
32.0673
0.000162516
31.7289
0.000162709
31.3915
0.000162902
31.0552
0.000163095
30.72
0.000163289
30.3859
0.000163483
30.0529
0.000163677
29.7212
0.000163873
29.3906
0.000164073
29.0614
0.000164279
28.7334
0.00016449
28.4067
0.000164696
28.0813
0.000164892
27.7573
0.000165083
27.4348
0.000165279
27.1136
0.000165478
26.7939
0.000165679
26.4757
0.000165877
26.1591
0.000166071
25.8439
0.000166265
25.5304
0.000166458
25.2185
0.000166655
24.9082
0.000166867
24.5996
0.000167088
24.2927
0.00016732
23.9875
0.000167551
23.684
0.000167778
23.3823
0.00016799
23.0824
0.000168199
22.7843
0.000168397
22.488
0.000168588
22.1936
0.00016878
21.901
0.000168972
21.6103
0.000169167
21.3216
0.000169367
21.0348
0.000169568
20.75
0.000169764
20.4672
0.000169949
20.1864
0.000170117
19.9076
0.000170279
19.6308
0.000170448
19.3561
0.000170626
19.0835
0.000170803
18.8129
0.000170977
18.5445
0.000171152
18.2782
0.000171321
18.014
0.00017146
17.752
0.000171546
17.4921
0.000171569
17.2344
0.000171529
16.9788
0.00017142
16.7255
0.000171223
16.4743
0.000170908
16.2254
0.000170449
15.9787
0.000169832
15.7342
0.000169048
15.4919
0.000168089
15.2519
0.000166933
15.0142
0.000165548
14.7787
0.000163892
14.5455
0.000161924
14.3146
0.000159608
14.0859
0.000156915
13.8595
0.000153823
13.6354
0.000150319
13.4136
0.0001464
13.194
0.00014207
12.9768
0.000137342
12.7618
0.000132233
12.5491
0.000126769
12.3387
0.000120978
12.1305
0.000114897
11.9247
0.000108571
11.7211
0.00010205
11.5198
9.53913e-05
11.3208
8.86511e-05
11.1241
8.18903e-05
10.9296
7.51684e-05
10.7374
6.85443e-05
10.5475
6.20734e-05
10.3598
5.58071e-05
10.1744
4.97903e-05
9.99117
4.40639e-05
9.81021
3.86586e-05
9.63149
3.35993e-05
9.45499
2.89037e-05
9.2807
2.45796e-05
9.10863
2.06304e-05
8.93875
1.70521e-05
8.77106
1.38336e-05
8.60555
1.09606e-05
8.44221
8.41565e-06
8.28103
6.1759e-06
8.12201
4.2171e-06
7.96512
2.51916e-06
7.81036
1.11756e-06
7.65772
-2.60557e-07
7.50718
-1.3e-06
7.35873
-2.208e-06
7.21236
-2.98478e-06
7.06806
-3.64452e-06
6.92582
-4.20279e-06
6.78562
-4.67707e-06
6.64744
-5.0806e-06
6.51128
-5.42744e-06
6.37712
-5.72474e-06
6.24494
-5.9831e-06
6.11474
-6.20882e-06
5.9865
-6.41184e-06
5.8602
-6.59479e-06
5.73583
-6.76145e-06
5.61338
-6.91764e-06
5.49283
-7.06272e-06
5.37417
-7.2029e-06
5.25739
-7.33518e-06
5.14245
-7.4638e-06
5.02936
-7.59087e-06
4.9181
-7.71277e-06
4.80864
-7.83587e-06
4.70098
-7.95124e-06
4.59509
-8.08148e-06
4.49096
-8.17456e-06
4.38856
-8.34764e-06
4.2879
-8.34116e-06
4.18894
-8.71298e-06
4.09168
-8.30817e-06
3.9961
-9.43449e-06
3.90218
-7.66516e-06
3.80992
-1.11823e-05
3.71929
-5.48171e-06
3.63029
-1.4984e-05
3.54288
-8.50363e-07
3.45708
-2.1159e-05
3.37284
5.71464e-06
3.29019
-2.89734e-05
3.20906
1.3833e-05
3.1295
-4.05476e-05
3.05142
2.90369e-05
2.97491
-5.95507e-05
2.89982
5.3576e-05
2.82629
-8.56691e-05
2.75413
7.26736e-05
2.68349
-9.05463e-05
2.61419
7.0889e-05
2.54633
-7.07662e-05
2.47976
0.000101654
2.41445
0.000155764
2.34999
0.000994418
2.28501
0.00397188
2.21397
0.0163512
2.11987
0.0582447
1.92723
0.286787
0.417709
1.69393
48.5465
-6.82121e-13
48.1968
-4.54747e-13
47.8464
-2.27374e-13
47.4953
-1.59162e-12
47.1436
-2.27374e-13
46.7914
0
46.4388
-4.54747e-13
46.0857
4.54747e-13
45.732
1.13687e-12
45.3781
2.04636e-12
45.024
-1.59162e-12
44.6696
-1.81899e-12
44.3148
-9.09495e-13
43.96
0
43.6051
9.09495e-13
43.2501
-9.09495e-13
42.8952
-1.59162e-12
42.5404
-1.13687e-12
42.1856
-9.09495e-13
41.831
-1.36424e-12
41.4765
-9.09495e-13
41.1222
-1.13687e-12
40.7681
-1.36424e-12
40.4143
6.82121e-13
40.0607
0
39.7074
0
39.3544
0
39.0017
-1.36424e-12
38.6495
-1.13687e-12
38.2976
4.54747e-13
37.9462
1.81899e-12
37.5952
2.27374e-13
37.2447
2.27374e-13
36.8948
2.72848e-12
36.5453
2.27374e-13
36.1965
1.13687e-12
35.8483
2.27374e-13
35.5007
4.54747e-13
35.1538
0
34.8076
-6.82121e-13
34.4622
0
34.1175
-1.36424e-12
33.7736
-1.36424e-12
33.4305
1.13687e-12
33.0883
2.04636e-12
32.747
1.81899e-12
32.4067
-2.27374e-13
32.0673
-2.95586e-12
31.7289
-9.09495e-13
31.3915
-9.09495e-13
31.0552
-1.13687e-12
30.72
2.27374e-13
30.3859
1.36424e-12
30.0529
-2.27374e-13
29.7212
0
29.3906
-1.13687e-12
29.0613
1.13687e-12
28.7333
2.27374e-13
28.4066
1.13687e-12
28.0813
9.09495e-13
27.7573
-9.09495e-13
27.4347
0
27.1136
-1.13687e-12
26.7939
-4.54747e-13
26.4757
4.54747e-13
26.159
2.27374e-12
25.8439
-2.27374e-13
25.5304
-1.13687e-12
25.2185
-1.36424e-12
24.9082
-2.27374e-13
24.5996
-6.82121e-13
24.2927
1.36424e-12
23.9875
0
23.684
9.09495e-13
23.3823
-2.72848e-12
23.0824
-1.81899e-12
22.7843
0
22.488
0
22.1935
-4.54747e-13
21.901
-4.54747e-13
21.6103
4.54747e-13
21.3216
9.09495e-13
21.0348
-4.54747e-13
20.75
-2.27374e-12
20.4672
1.36424e-12
20.1863
-5.00222e-12
19.9075
2.27374e-12
19.6308
0
19.3561
5.45697e-12
19.0834
-5.00222e-12
18.8129
9.54969e-12
18.5445
-1.09139e-11
18.2782
9.54969e-12
18.014
-1.00044e-11
17.7519
9.54969e-12
17.4921
-8.6402e-12
17.2343
3.63798e-12
16.9788
-2.72848e-12
16.7254
-6.36646e-12
16.4743
6.36646e-12
16.2253
-1.00044e-11
15.9786
6.82121e-12
15.7341
0
15.4919
-6.82121e-12
15.2519
1.18234e-11
15.0142
-1.09139e-11
14.7787
6.82121e-12
14.5455
-9.09495e-13
14.3146
-7.27596e-12
14.0859
4.54747e-12
13.8595
-5.45697e-12
13.6354
8.18545e-12
13.4136
-4.54747e-12
13.194
1.31877e-11
12.9768
-9.09495e-12
12.7618
2.27374e-12
12.5491
-2.27374e-12
12.3387
9.09495e-12
12.1305
-3.27418e-11
11.9247
5.63887e-11
11.7211
-7.54881e-11
11.5198
9.32232e-11
11.3208
-1.09594e-10
11.1241
1.25965e-10
10.9296
-1.40062e-10
10.7374
1.71894e-10
10.5475
-2.39197e-10
10.3598
3.18778e-10
10.1744
-3.37423e-10
9.99116
2.0782e-10
9.81021
8.91305e-11
9.63149
-3.83352e-10
9.45498
3.85626e-10
9.2807
-1.36424e-11
9.10862
-4.25189e-10
8.93874
4.90672e-10
8.77105
-4.8658e-11
8.60555
-4.75211e-10
8.44221
4.11546e-10
8.28103
2.13731e-10
8.12201
-5.69798e-10
7.96512
1.13687e-10
7.81036
5.08862e-10
7.65771
-2.82398e-10
7.50718
-3.68345e-10
7.35873
2.1555e-10
7.21236
4.27917e-10
7.06806
-4.32919e-10
6.92582
-2.0782e-10
6.78562
2.87855e-10
6.64744
5.24778e-10
6.51128
-7.76708e-10
6.37712
-9.77707e-11
6.24494
-8.54925e-11
6.11474
1.21554e-09
5.9865
-6.25278e-10
5.8602
-2.65572e-10
5.73583
-6.06633e-10
5.61338
5.82531e-10
5.49283
-3.31966e-11
5.37417
8.56289e-10
5.25739
-4.1382e-10
5.14245
1.61526e-09
5.02936
-3.81351e-09
4.9181
4.8276e-09
4.80864
-1.29062e-08
4.70098
2.61498e-08
4.59509
-4.94629e-08
4.49096
1.00699e-07
4.38856
-1.91457e-07
4.2879
3.59149e-07
4.18894
-6.60135e-07
4.09168
1.18241e-06
3.9961
-2.06251e-06
3.90218
3.48186e-06
3.80992
-5.68312e-06
3.71929
8.87171e-06
3.63029
-1.32708e-05
3.54288
1.88799e-05
3.45708
-2.55704e-05
3.37284
3.31823e-05
3.2902
-4.18634e-05
3.20905
5.15201e-05
3.12951
-6.59046e-05
3.05141
8.36864e-05
2.97492
-0.000102779
2.89981
0.000127954
2.8263
-0.00014841
2.75412
0.000161964
2.6835
-0.000159928
2.61418
0.00016254
2.54635
-0.000135078
2.47977
0.000197937
2.41458
0.000148998
2.35045
0.00130987
2.2869
0.0050145
2.21968
0.0224733
2.12649
0.0916844
1.86099
0.493923
0.784752
1.43682
48.5465
-0.000187242
48.1968
-0.000161596
47.8464
-0.000145241
47.4953
-0.000149531
47.1436
-0.000151586
46.7914
-0.000152418
46.4388
-0.000153383
46.0857
-0.00015426
45.732
-0.000154969
45.3781
-0.000155549
45.024
-0.000156073
44.6696
-0.000156509
44.3148
-0.0001568
43.96
-0.000157091
43.6051
-0.000157326
43.2501
-0.000157521
42.8952
-0.000157688
42.5404
-0.000157838
42.1856
-0.000157976
41.831
-0.000158105
41.4765
-0.000158232
41.1222
-0.000158357
40.7681
-0.000158483
40.4143
-0.00015861
40.0607
-0.000158738
39.7074
-0.00015887
39.3544
-0.000159006
39.0017
-0.000159144
38.6495
-0.000159286
38.2976
-0.000159432
37.9462
-0.000159581
37.5952
-0.000159732
37.2447
-0.000159886
36.8948
-0.000160044
36.5453
-0.000160206
36.1965
-0.00016037
35.8483
-0.000160537
35.5007
-0.000160704
35.1538
-0.000160877
34.8076
-0.00016105
34.4622
-0.000161226
34.1175
-0.000161405
33.7736
-0.000161585
33.4305
-0.000161769
33.0883
-0.000161951
32.747
-0.000162138
32.4067
-0.000162327
32.0673
-0.000162516
31.7289
-0.00016271
31.3915
-0.000162902
31.0552
-0.000163095
30.72
-0.000163289
30.3859
-0.000163483
30.0529
-0.000163677
29.7212
-0.000163873
29.3906
-0.000164073
29.0613
-0.000164279
28.7333
-0.00016449
28.4066
-0.000164696
28.0813
-0.000164892
27.7573
-0.000165083
27.4347
-0.000165279
27.1136
-0.000165478
26.7939
-0.000165679
26.4757
-0.000165877
26.159
-0.000166071
25.8439
-0.000166265
25.5304
-0.000166458
25.2185
-0.000166655
24.9082
-0.000166867
24.5996
-0.000167088
24.2927
-0.00016732
23.9875
-0.000167551
23.684
-0.000167778
23.3823
-0.00016799
23.0824
-0.000168199
22.7843
-0.000168397
22.488
-0.000168588
22.1935
-0.00016878
21.901
-0.000168972
21.6103
-0.000169167
21.3216
-0.000169367
21.0348
-0.000169568
20.75
-0.000169764
20.4672
-0.000169949
20.1863
-0.000170117
19.9075
-0.000170279
19.6308
-0.000170448
19.3561
-0.000170626
19.0834
-0.000170803
18.8129
-0.000170977
18.5445
-0.000171152
18.2782
-0.000171321
18.014
-0.00017146
17.7519
-0.000171546
17.4921
-0.000171569
17.2343
-0.000171529
16.9788
-0.00017142
16.7254
-0.000171223
16.4743
-0.000170908
16.2253
-0.000170449
15.9786
-0.000169832
15.7341
-0.000169048
15.4919
-0.000168089
15.2519
-0.000166933
15.0142
-0.000165548
14.7787
-0.000163892
14.5455
-0.000161924
14.3146
-0.000159608
14.0859
-0.000156915
13.8595
-0.000153823
13.6354
-0.000150319
13.4136
-0.0001464
13.194
-0.00014207
12.9768
-0.000137342
12.7618
-0.000132233
12.5491
-0.000126769
12.3387
-0.000120978
12.1305
-0.000114897
11.9247
-0.000108571
11.7211
-0.00010205
11.5198
-9.53912e-05
11.3208
-8.86511e-05
11.1241
-8.18903e-05
10.9296
-7.51684e-05
10.7374
-6.85442e-05
10.5475
-6.20736e-05
10.3598
-5.58067e-05
10.1744
-4.97907e-05
9.99116
-4.40636e-05
9.81021
-3.86584e-05
9.63149
-3.35999e-05
9.45498
-2.89031e-05
9.2807
-2.45797e-05
9.10862
-2.06309e-05
8.93874
-1.70515e-05
8.77105
-1.38336e-05
8.60555
-1.09613e-05
8.44221
-8.41516e-06
8.28103
-6.17541e-06
8.12201
-4.21806e-06
7.96512
-2.51898e-06
7.81036
-1.11678e-06
7.65771
2.60166e-07
7.50718
1.29935e-06
7.35873
2.20844e-06
7.21236
2.98531e-06
7.06806
3.64397e-06
6.92582
4.20245e-06
6.78562
4.67747e-06
6.64744
5.08124e-06
6.51128
5.42666e-06
6.37712
5.72419e-06
6.24494
5.98326e-06
6.11474
6.21024e-06
5.9865
6.41162e-06
5.8602
6.59373e-06
5.73583
6.76094e-06
5.61338
6.91789e-06
5.49283
7.06338e-06
5.37417
7.20409e-06
5.25739
7.33499e-06
5.14245
7.4653e-06
5.02936
7.58548e-06
4.9181
7.71826e-06
4.80864
7.82202e-06
4.70098
7.98096e-06
4.59509
8.02762e-06
4.49096
8.28391e-06
4.38856
8.13792e-06
4.2879
8.73794e-06
4.18894
7.97527e-06
4.09168
9.6633e-06
3.9961
7.00288e-06
3.90219
1.19258e-05
3.80992
3.84543e-06
3.71929
1.75396e-05
3.63028
-4.09154e-06
3.54288
2.93403e-05
3.45708
-1.87775e-05
3.37284
4.69016e-05
3.29018
-3.64643e-05
3.20907
6.25934e-05
3.12948
-5.08881e-05
3.05146
7.32698e-05
2.97487
-5.84411e-05
2.89987
8.60374e-05
2.82624
-6.94245e-05
2.75418
0.000100801
2.68346
-9.32216e-05
2.61422
0.000129791
2.54634
-0.000113246
2.47981
0.000206752
2.41471
8.25861e-05
2.35104
0.00114466
2.28944
0.00411921
2.23231
0.0184991
2.19413
0.0701357
2.2255
0.404155
0.53782
2.41535
48.5466
-0.000405563
48.1968
-0.000310071
47.8464
-0.000293072
47.4954
-0.000300057
47.1437
-0.000302681
46.7915
-0.000304714
46.4389
-0.00030677
46.0857
-0.000308525
45.732
-0.000309953
45.3781
-0.000311107
45.024
-0.000312179
44.6696
-0.000313066
44.3149
-0.000313609
43.96
-0.000314213
43.6051
-0.00031468
43.2502
-0.00031507
42.8953
-0.000315405
42.5404
-0.000315705
42.1857
-0.000315979
41.831
-0.000316239
41.4765
-0.000316492
41.1222
-0.000316743
40.7682
-0.000316994
40.4143
-0.000317248
40.0607
-0.000317507
39.7074
-0.000317771
39.3544
-0.000318042
39.0018
-0.00031832
38.6495
-0.000318603
38.2976
-0.000318894
37.9462
-0.000319191
37.5952
-0.000319493
37.2447
-0.000319803
36.8948
-0.000320118
36.5454
-0.000320441
36.1965
-0.000320769
35.8483
-0.000321102
35.5007
-0.000321437
35.1538
-0.000321781
34.8076
-0.000322127
34.4622
-0.000322478
34.1175
-0.000322836
33.7736
-0.000323194
33.4305
-0.000323562
33.0884
-0.000323925
32.7471
-0.000324299
32.4067
-0.000324677
32.0673
-0.000325053
31.7289
-0.00032544
31.3915
-0.000325825
31.0552
-0.000326212
30.72
-0.000326598
30.3859
-0.000326981
30.0529
-0.000327369
29.7212
-0.00032776
29.3906
-0.000328162
29.0614
-0.000328578
28.7334
-0.000329003
28.4067
-0.000329414
28.0813
-0.0003298
27.7573
-0.000330175
27.4348
-0.000330562
27.1136
-0.000330958
26.7939
-0.000331361
26.4757
-0.00033176
26.1591
-0.000332153
25.8439
-0.000332544
25.5304
-0.000332926
25.2185
-0.000333316
24.9082
-0.000333738
24.5996
-0.000334175
24.2927
-0.000334643
23.9875
-0.000335107
23.684
-0.000335562
23.3823
-0.000335983
23.0824
-0.0003364
22.7843
-0.000336793
22.488
-0.000337172
22.1936
-0.000337558
21.901
-0.000337942
21.6103
-0.000338332
21.3216
-0.000338734
21.0348
-0.000339135
20.75
-0.000339526
20.4672
-0.000339891
20.1864
-0.000340223
19.9076
-0.000340544
19.6308
-0.000340883
19.3561
-0.000341237
19.0835
-0.000341588
18.8129
-0.00034193
18.5445
-0.000342278
18.2782
-0.000342618
18.014
-0.000342899
17.752
-0.00034307
17.4921
-0.000343109
17.2344
-0.000343018
16.9788
-0.00034279
16.7255
-0.000342387
16.4743
-0.000341747
16.2254
-0.000340816
15.9787
-0.000339563
15.7342
-0.000337975
15.4919
-0.000336032
15.2519
-0.000333693
15.0142
-0.000330892
14.7787
-0.000327547
14.5455
-0.000323575
14.3146
-0.000318903
14.0859
-0.000313473
13.8595
-0.000307242
13.6354
-0.000300185
13.4136
-0.000292296
13.194
-0.000283587
12.9768
-0.000274082
12.7618
-0.000263819
12.5491
-0.000252847
12.3387
-0.000241226
12.1305
-0.00022903
11.9247
-0.00021635
11.7211
-0.000203287
11.5198
-0.000189955
11.3208
-0.000176468
11.1241
-0.000162947
10.9296
-0.00014951
10.7374
-0.000136276
10.5475
-0.000123355
10.3598
-0.000110848
10.1744
-9.88466e-05
9.99117
-8.74288e-05
9.81021
-7.66584e-05
9.63149
-6.6583e-05
9.45499
-5.72356e-05
9.2807
-4.86339e-05
9.10863
-4.07823e-05
8.93875
-3.36702e-05
8.77106
-2.72788e-05
8.60555
-2.15764e-05
8.44221
-1.65257e-05
8.28103
-1.20843e-05
8.12201
-8.20251e-06
7.96512
-4.82299e-06
7.81036
-1.90435e-06
7.65772
5.18486e-07
7.50718
2.68676e-06
7.35873
4.51128e-06
7.21236
6.05272e-06
7.06806
7.35733e-06
6.92582
8.46255e-06
6.78562
9.40029e-06
6.64744
1.01993e-05
6.51128
1.08832e-05
6.37712
1.14726e-05
6.24494
1.19843e-05
6.11474
1.24335e-05
5.9865
1.28342e-05
5.8602
1.31962e-05
5.73583
1.35298e-05
5.61338
1.38395e-05
5.49283
1.41311e-05
5.37417
1.44078e-05
5.25739
1.46727e-05
5.14245
1.49307e-05
5.02936
1.51784e-05
4.9181
1.54302e-05
4.80864
1.56615e-05
4.70098
1.59268e-05
4.59509
1.61186e-05
4.49096
1.64437e-05
4.38856
1.65089e-05
4.2879
1.70447e-05
4.18894
1.67448e-05
4.09168
1.78774e-05
3.9961
1.66243e-05
3.90219
1.92208e-05
3.80992
1.57697e-05
3.7193
2.15658e-05
3.63028
1.36036e-05
3.54289
2.55264e-05
3.45706
9.69775e-06
3.37286
3.10061e-05
3.29016
4.79699e-06
3.20909
3.63417e-05
3.12947
-6.51793e-07
3.05146
4.19503e-05
2.97488
-4.94615e-06
2.89986
4.86053e-05
2.82625
-9.12029e-06
2.75418
5.37499e-05
2.68345
-1.38874e-05
2.61424
5.99914e-05
2.5463
-1.51677e-05
2.47989
8.41717e-05
2.41476
6.1465e-05
2.3516
0.00044092
2.29163
0.00162743
2.24131
0.00768169
2.22164
0.0300941
2.26459
0.3028
0.426916
2.31844
10.9978
-0.000464346
10.9186
-0.000338586
10.8392
-0.000328331
10.7597
-0.00033421
10.68
-0.000336976
10.6002
-0.000339357
10.5203
-0.000341621
10.4403
-0.000343547
10.3602
-0.000345128
10.28
-0.000346398
10.1998
-0.000347592
10.1195
-0.000348581
10.0391
-0.00034916
9.95875
-0.000349839
9.87835
-0.000350352
9.79794
-0.000350784
9.71754
-0.000351154
9.63715
-0.000351486
9.55679
-0.00035179
9.47645
-0.000352078
9.39614
-0.000352358
9.31588
-0.000352637
9.23566
-0.000352915
9.1555
-0.000353198
9.0754
-0.000353486
8.99536
-0.00035378
8.91539
-0.000354081
8.83551
-0.000354391
8.7557
-0.000354705
8.67599
-0.000355028
8.59638
-0.000355358
8.51687
-0.000355695
8.43747
-0.00035604
8.35819
-0.00035639
8.27903
-0.000356749
8.2
-0.000357114
8.12112
-0.000357483
8.04238
-0.000357856
7.96379
-0.00035824
7.88536
-0.000358624
7.8071
-0.000359014
7.72902
-0.000359413
7.65111
-0.00035981
7.57339
-0.000360219
7.49588
-0.000360623
7.41856
-0.000361039