/*--------------------------------*- C++ -*----------------------------------*\
| =========                 |                                                 |
| \\      /  F ield         | OpenFOAM: The Open Source CFD Toolbox           |
|  \\    /   O peration     | Version:  3.0.x                                 |
|   \\  /    A nd           | Web:      www.OpenFOAM.org                      |
|    \\/     M anipulation  |                                                 |
\*---------------------------------------------------------------------------*/
FoamFile
{
    version     2.0;
    format      ascii;
    class       volScalarField;
    location    "0.56";
    object      rho;
}
// * * * * * * * * * * * * * * * * * * * * * * * * * * * * * * * * * * * * * //

dimensions      [1 -3 0 0 0 0 0];

internalField   nonuniform List<scalar> 
13800
(
52.7793
52.7844
52.792
52.7995
52.8065
52.8131
52.8199
52.8266
52.833
52.8394
52.8459
52.8526
52.8591
52.8657
52.8724
52.8792
52.8863
52.8935
52.901
52.9087
52.9166
52.9247
52.9331
52.9417
52.9504
52.9595
52.9687
52.9781
52.9877
52.9975
53.0076
53.0178
53.0282
53.0388
53.0496
53.0606
53.0717
53.083
53.0945
53.1062
53.118
53.13
53.1421
53.1544
53.1668
53.1794
53.1921
53.2049
53.2179
53.231
53.2442
53.2576
53.271
53.2846
53.2983
53.312
53.3259
53.3399
53.3539
53.3681
53.3823
53.3966
53.411
53.4254
53.4399
53.4544
53.469
53.4837
53.4984
53.5132
53.5281
53.543
53.558
53.573
53.588
53.603
53.618
53.633
53.6481
53.6631
53.6781
53.6932
53.7083
53.7234
53.7384
53.7535
53.7685
53.7836
53.7986
53.8137
53.8287
53.8438
53.8588
53.8737
53.8887
53.9035
53.9184
53.9331
53.9479
53.9626
53.9772
53.9917
54.0063
54.0208
54.0352
54.0496
54.064
54.0784
54.0926
54.1068
54.1209
54.135
54.149
54.1629
54.1767
54.1905
54.2042
54.2178
54.2314
54.2449
54.2582
54.2716
54.2848
54.298
54.311
54.324
54.3369
54.3498
54.3625
54.3752
54.3877
54.4002
54.4126
54.4249
54.4371
54.4492
54.4613
54.4732
54.4851
54.4968
54.5085
54.52
54.5315
54.5429
54.5542
54.5653
54.5764
54.5874
54.5983
54.6091
54.6197
54.6303
54.6408
54.6511
54.6614
54.6716
54.6816
54.6916
54.7014
54.7112
54.7208
54.7303
54.7397
54.749
54.7582
54.7673
54.7763
54.7851
54.7939
54.8025
54.811
54.8195
54.8278
54.836
54.844
54.852
54.8599
54.8676
54.8753
54.8826
54.8903
54.8973
54.9048
54.9114
54.9189
54.9251
54.9325
54.9384
54.9456
54.9512
54.9583
54.9636
54.9704
54.9756
54.9822
54.9872
54.9933
54.999
55.0031
55.0093
52.7805
52.7855
52.7931
52.8006
52.8076
52.8142
52.821
52.8277
52.8341
52.8405
52.847
52.8537
52.8602
52.8668
52.8735
52.8803
52.8874
52.8946
52.9021
52.9098
52.9177
52.9258
52.9341
52.9427
52.9515
52.9605
52.9697
52.9791
52.9887
52.9986
53.0086
53.0188
53.0292
53.0398
53.0506
53.0616
53.0727
53.084
53.0955
53.1072
53.119
53.131
53.1431
53.1554
53.1678
53.1804
53.1931
53.2059
53.2189
53.232
53.2452
53.2585
53.272
53.2855
53.2992
53.313
53.3268
53.3408
53.3549
53.369
53.3832
53.3975
53.4119
53.4263
53.4408
53.4553
53.4699
53.4846
53.4993
53.5141
53.529
53.5439
53.5589
53.5738
53.5888
53.6038
53.6189
53.6339
53.6489
53.6639
53.679
53.6941
53.7091
53.7242
53.7393
53.7543
53.7694
53.7844
53.7994
53.8145
53.8295
53.8445
53.8595
53.8745
53.8894
53.9043
53.9191
53.9339
53.9487
53.9633
53.9779
53.9925
54.007
54.0215
54.036
54.0504
54.0647
54.0791
54.0933
54.1075
54.1217
54.1357
54.1497
54.1636
54.1774
54.1912
54.2049
54.2185
54.2321
54.2455
54.2589
54.2722
54.2855
54.2986
54.3117
54.3247
54.3376
54.3504
54.3632
54.3758
54.3884
54.4009
54.4133
54.4256
54.4378
54.4499
54.462
54.4739
54.4857
54.4975
54.5092
54.5207
54.5322
54.5436
54.5548
54.566
54.5771
54.5881
54.599
54.6097
54.6204
54.631
54.6415
54.6518
54.6621
54.6722
54.6823
54.6922
54.7021
54.7118
54.7215
54.731
54.7404
54.7497
54.7589
54.768
54.7769
54.7858
54.7945
54.8032
54.8117
54.8201
54.8284
54.8366
54.8447
54.8526
54.8606
54.8682
54.876
54.8833
54.8909
54.8979
54.9055
54.9121
54.9195
54.9258
54.9331
54.939
54.9463
54.9518
54.9589
54.9642
54.9711
54.9762
54.9828
54.9878
54.9941
54.9989
55.0049
55.0092
52.7805
52.7855
52.7931
52.8006
52.8076
52.8142
52.821
52.8277
52.8341
52.8405
52.847
52.8537
52.8602
52.8668
52.8735
52.8803
52.8874
52.8946
52.9021
52.9098
52.9177
52.9258
52.9341
52.9427
52.9515
52.9605
52.9697
52.9791
52.9888
52.9986
53.0086
53.0188
53.0292
53.0398
53.0506
53.0616
53.0727
53.084
53.0955
53.1072
53.119
53.131
53.1431
53.1554
53.1678
53.1804
53.1931
53.2059
53.2189
53.232
53.2452
53.2585
53.272
53.2855
53.2992
53.313
53.3268
53.3408
53.3549
53.369
53.3832
53.3975
53.4119
53.4263
53.4408
53.4553
53.4699
53.4846
53.4993
53.5141
53.529
53.5439
53.5589
53.5738
53.5888
53.6038
53.6189
53.6339
53.6489
53.6639
53.679
53.6941
53.7091
53.7242
53.7393
53.7543
53.7694
53.7844
53.7994
53.8145
53.8295
53.8445
53.8595
53.8745
53.8894
53.9043
53.9191
53.9339
53.9487
53.9633
53.9779
53.9925
54.007
54.0215
54.036
54.0504
54.0648
54.0791
54.0933
54.1075
54.1217
54.1357
54.1497
54.1636
54.1775
54.1912
54.2049
54.2185
54.2321
54.2455
54.2589
54.2722
54.2855
54.2986
54.3117
54.3247
54.3376
54.3504
54.3632
54.3758
54.3884
54.4009
54.4133
54.4256
54.4378
54.4499
54.462
54.4739
54.4857
54.4975
54.5092
54.5207
54.5322
54.5436
54.5548
54.566
54.5771
54.5881
54.599
54.6097
54.6204
54.631
54.6415
54.6518
54.6621
54.6722
54.6823
54.6923
54.7021
54.7118
54.7215
54.731
54.7404
54.7497
54.7589
54.768
54.7769
54.7858
54.7945
54.8032
54.8117
54.8201
54.8284
54.8366
54.8447
54.8526
54.8606
54.8682
54.876
54.8833
54.8909
54.8979
54.9055
54.9121
54.9195
54.9258
54.9331
54.939
54.9463
54.9518
54.9589
54.9642
54.9711
54.9762
54.9828
54.9878
54.9942
54.9989
55.0049
55.0094
52.7805
52.7855
52.7931
52.8006
52.8076
52.8142
52.821
52.8277
52.8341
52.8405
52.847
52.8537
52.8602
52.8668
52.8735
52.8803
52.8874
52.8946
52.9021
52.9098
52.9177
52.9258
52.9341
52.9427
52.9515
52.9605
52.9697
52.9791
52.9887
52.9986
53.0086
53.0188
53.0292
53.0398
53.0506
53.0616
53.0727
53.084
53.0955
53.1072
53.119
53.131
53.1431
53.1554
53.1678
53.1803
53.1931
53.2059
53.2189
53.232
53.2452
53.2585
53.272
53.2855
53.2992
53.313
53.3268
53.3408
53.3549
53.369
53.3832
53.3975
53.4119
53.4263
53.4408
53.4553
53.4699
53.4846
53.4993
53.5141
53.529
53.5439
53.5589
53.5738
53.5888
53.6038
53.6189
53.6339
53.6489
53.6639
53.679
53.6941
53.7091
53.7242
53.7393
53.7543
53.7694
53.7844
53.7994
53.8145
53.8295
53.8445
53.8595
53.8745
53.8894
53.9043
53.9191
53.9339
53.9487
53.9633
53.9779
53.9925
54.007
54.0215
54.036
54.0504
54.0648
54.0791
54.0933
54.1075
54.1217
54.1357
54.1497
54.1636
54.1775
54.1912
54.2049
54.2185
54.2321
54.2455
54.2589
54.2722
54.2855
54.2986
54.3117
54.3247
54.3376
54.3504
54.3632
54.3758
54.3884
54.4009
54.4133
54.4256
54.4378
54.4499
54.462
54.4739
54.4857
54.4975
54.5092
54.5207
54.5322
54.5436
54.5548
54.566
54.5771
54.5881
54.599
54.6097
54.6204
54.631
54.6415
54.6518
54.6621
54.6722
54.6823
54.6923
54.7021
54.7118
54.7215
54.731
54.7404
54.7497
54.7589
54.768
54.7769
54.7858
54.7945
54.8032
54.8117
54.8201
54.8284
54.8366
54.8447
54.8526
54.8606
54.8682
54.876
54.8833
54.8909
54.8979
54.9055
54.9121
54.9195
54.9258
54.9331
54.939
54.9463
54.9518
54.9589
54.9642
54.9711
54.9762
54.9828
54.9878
54.9942
54.9989
55.0049
55.0097
52.7804
52.7855
52.7931
52.8006
52.8075
52.8142
52.821
52.8277
52.8341
52.8405
52.847
52.8537
52.8602
52.8668
52.8735
52.8803
52.8874
52.8946
52.9021
52.9097
52.9177
52.9258
52.9341
52.9427
52.9515
52.9605
52.9697
52.9791
52.9887
52.9986
53.0086
53.0188
53.0292
53.0398
53.0506
53.0616
53.0727
53.084
53.0955
53.1072
53.119
53.1309
53.1431
53.1554
53.1678
53.1803
53.193
53.2059
53.2189
53.232
53.2452
53.2585
53.272
53.2855
53.2992
53.313
53.3268
53.3408
53.3549
53.369
53.3832
53.3975
53.4119
53.4263
53.4408
53.4553
53.4699
53.4846
53.4993
53.5141
53.529
53.5439
53.5589
53.5738
53.5888
53.6038
53.6189
53.6339
53.6489
53.6639
53.679
53.6941
53.7091
53.7242
53.7393
53.7543
53.7694
53.7844
53.7994
53.8145
53.8295
53.8445
53.8595
53.8745
53.8894
53.9043
53.9191
53.9339
53.9486
53.9633
53.9779
53.9925
54.007
54.0215
54.036
54.0504
54.0647
54.0791
54.0933
54.1075
54.1217
54.1357
54.1497
54.1636
54.1775
54.1912
54.2049
54.2185
54.2321
54.2455
54.2589
54.2722
54.2855
54.2986
54.3117
54.3247
54.3376
54.3504
54.3632
54.3758
54.3884
54.4009
54.4133
54.4256
54.4378
54.4499
54.462
54.4739
54.4857
54.4975
54.5092
54.5207
54.5322
54.5436
54.5548
54.566
54.5771
54.5881
54.599
54.6097
54.6204
54.631
54.6415
54.6518
54.6621
54.6722
54.6823
54.6923
54.7021
54.7118
54.7215
54.731
54.7404
54.7497
54.7589
54.768
54.7769
54.7858
54.7945
54.8032
54.8117
54.8201
54.8284
54.8366
54.8447
54.8526
54.8606
54.8682
54.876
54.8833
54.8909
54.8979
54.9055
54.9121
54.9195
54.9258
54.9331
54.939
54.9463
54.9518
54.9589
54.9642
54.9711
54.9762
54.9828
54.9878
54.9942
54.9989
55.005
55.0094
52.7804
52.7855
52.7931
52.8006
52.8075
52.8142
52.821
52.8277
52.8341
52.8405
52.847
52.8537
52.8602
52.8668
52.8735
52.8803
52.8874
52.8946
52.9021
52.9097
52.9177
52.9258
52.9341
52.9427
52.9515
52.9605
52.9697
52.9791
52.9887
52.9986
53.0086
53.0188
53.0292
53.0398
53.0506
53.0616
53.0727
53.084
53.0955
53.1072
53.119
53.1309
53.1431
53.1554
53.1678
53.1803
53.193
53.2059
53.2189
53.232
53.2452
53.2585
53.272
53.2855
53.2992
53.313
53.3268
53.3408
53.3549
53.369
53.3832
53.3975
53.4119
53.4263
53.4408
53.4553
53.4699
53.4846
53.4993
53.5141
53.529
53.5439
53.5589
53.5738
53.5888
53.6038
53.6189
53.6339
53.6489
53.6639
53.679
53.6941
53.7091
53.7242
53.7393
53.7543
53.7694
53.7844
53.7994
53.8145
53.8295
53.8445
53.8595
53.8745
53.8894
53.9043
53.9191
53.9339
53.9486
53.9633
53.9779
53.9925
54.007
54.0215
54.036
54.0504
54.0647
54.0791
54.0933
54.1075
54.1217
54.1357
54.1497
54.1636
54.1775
54.1912
54.2049
54.2185
54.2321
54.2455
54.2589
54.2722
54.2855
54.2986
54.3117
54.3247
54.3376
54.3504
54.3632
54.3758
54.3884
54.4009
54.4133
54.4256
54.4378
54.4499
54.462
54.4739
54.4857
54.4975
54.5092
54.5207
54.5322
54.5436
54.5548
54.566
54.5771
54.5881
54.599
54.6097
54.6204
54.631
54.6415
54.6518
54.6621
54.6722
54.6823
54.6923
54.7021
54.7118
54.7215
54.731
54.7404
54.7497
54.7589
54.768
54.7769
54.7858
54.7945
54.8032
54.8117
54.8201
54.8284
54.8366
54.8447
54.8527
54.8605
54.8683
54.8759
54.8834
54.8908
54.8981
54.9053
54.9124
54.9191
54.9263
54.9325
54.9398
54.9455
54.9525
54.9583
54.9647
54.9708
54.9764
54.9827
54.988
54.9937
54.9994
55.0047
55.01
52.7805
52.7855
52.7931
52.8006
52.8076
52.8142
52.821
52.8277
52.8341
52.8405
52.847
52.8537
52.8602
52.8668
52.8735
52.8803
52.8874
52.8946
52.9021
52.9098
52.9177
52.9258
52.9341
52.9427
52.9515
52.9605
52.9697
52.9791
52.9887
52.9986
53.0086
53.0188
53.0292
53.0398
53.0506
53.0616
53.0727
53.084
53.0955
53.1072
53.119
53.131
53.1431
53.1554
53.1678
53.1803
53.1931
53.2059
53.2189
53.232
53.2452
53.2585
53.272
53.2855
53.2992
53.313
53.3268
53.3408
53.3549
53.369
53.3832
53.3975
53.4119
53.4263
53.4408
53.4553
53.4699
53.4846
53.4993
53.5141
53.529
53.5439
53.5589
53.5738
53.5888
53.6038
53.6189
53.6339
53.6489
53.6639
53.679
53.6941
53.7091
53.7242
53.7393
53.7543
53.7694
53.7844
53.7994
53.8145
53.8295
53.8445
53.8595
53.8745
53.8894
53.9043
53.9191
53.9339
53.9487
53.9633
53.9779
53.9925
54.007
54.0215
54.036
54.0504
54.0648
54.0791
54.0933
54.1075
54.1217
54.1357
54.1497
54.1636
54.1775
54.1912
54.2049
54.2185
54.2321
54.2455
54.2589
54.2722
54.2855
54.2986
54.3117
54.3247
54.3376
54.3504
54.3632
54.3758
54.3884
54.4009
54.4133
54.4256
54.4378
54.4499
54.462
54.4739
54.4857
54.4975
54.5092
54.5207
54.5322
54.5436
54.5548
54.566
54.5771
54.5881
54.599
54.6097
54.6204
54.631
54.6415
54.6518
54.6621
54.6722
54.6823
54.6923
54.7021
54.7118
54.7215
54.731
54.7404
54.7497
54.7589
54.768
54.7769
54.7858
54.7945
54.8032
54.8117
54.8201
54.8284
54.8366
54.8447
54.8527
54.8605
54.8683
54.8758
54.8835
54.8906
54.8983
54.905
54.9126
54.919
54.9264
54.9325
54.9397
54.9455
54.9526
54.9581
54.9651
54.9703
54.977
54.9821
54.9885
54.9934
54.9997
55.0045
55.0101
52.7805
52.7855
52.7931
52.8006
52.8076
52.8142
52.821
52.8277
52.8341
52.8405
52.847
52.8537
52.8602
52.8668
52.8735
52.8803
52.8874
52.8946
52.9021
52.9098
52.9177
52.9258
52.9341
52.9427
52.9515
52.9605
52.9697
52.9791
52.9888
52.9986
53.0086
53.0188
53.0292
53.0398
53.0506
53.0616
53.0727
53.084
53.0955
53.1072
53.119
53.131
53.1431
53.1554
53.1678
53.1804
53.1931
53.2059
53.2189
53.232
53.2452
53.2585
53.272
53.2855
53.2992
53.313
53.3268
53.3408
53.3549
53.369
53.3832
53.3975
53.4119
53.4263
53.4408
53.4553
53.4699
53.4846
53.4993
53.5141
53.529
53.5439
53.5589
53.5738
53.5888
53.6038
53.6189
53.6339
53.6489
53.6639
53.679
53.6941
53.7091
53.7242
53.7393
53.7543
53.7694
53.7844
53.7994
53.8145
53.8295
53.8445
53.8595
53.8745
53.8894
53.9043
53.9191
53.9339
53.9487
53.9633
53.9779
53.9925
54.007
54.0215
54.036
54.0504
54.0648
54.0791
54.0933
54.1075
54.1217
54.1357
54.1497
54.1636
54.1775
54.1912
54.2049
54.2185
54.2321
54.2455
54.2589
54.2722
54.2855
54.2986
54.3117
54.3247
54.3376
54.3504
54.3632
54.3758
54.3884
54.4009
54.4133
54.4256
54.4378
54.4499
54.462
54.4739
54.4857
54.4975
54.5092
54.5207
54.5322
54.5436
54.5548
54.566
54.5771
54.5881
54.599
54.6097
54.6204
54.631
54.6415
54.6518
54.6621
54.6722
54.6823
54.6923
54.7021
54.7118
54.7215
54.731
54.7404
54.7497
54.7589
54.768
54.7769
54.7858
54.7945
54.8032
54.8117
54.8201
54.8284
54.8366
54.8447
54.8527
54.8605
54.8683
54.8758
54.8835
54.8906
54.8983
54.905
54.9126
54.9189
54.9264
54.9324
54.9398
54.9455
54.9526
54.9581
54.9651
54.9703
54.977
54.9821
54.9885
54.9933
54.9997
55.004
55.0101
52.7805
52.7855
52.7931
52.8006
52.8076
52.8142
52.821
52.8277
52.8341
52.8405
52.847
52.8537
52.8602
52.8668
52.8735
52.8803
52.8874
52.8946
52.9021
52.9098
52.9177
52.9258
52.9341
52.9427
52.9515
52.9605
52.9697
52.9791
52.9887
52.9986
53.0086
53.0188
53.0292
53.0398
53.0506
53.0616
53.0727
53.084
53.0955
53.1072
53.119
53.131
53.1431
53.1554
53.1678
53.1804
53.1931
53.2059
53.2189
53.232
53.2452
53.2585
53.272
53.2855
53.2992
53.313
53.3268
53.3408
53.3549
53.369
53.3832
53.3975
53.4119
53.4263
53.4408
53.4553
53.4699
53.4846
53.4993
53.5141
53.529
53.5439
53.5589
53.5738
53.5888
53.6038
53.6189
53.6339
53.6489
53.6639
53.679
53.6941
53.7091
53.7242
53.7393
53.7543
53.7694
53.7844
53.7994
53.8145
53.8295
53.8445
53.8595
53.8745
53.8894
53.9043
53.9191
53.9339
53.9487
53.9633
53.9779
53.9925
54.007
54.0215
54.036
54.0504
54.0647
54.0791
54.0933
54.1075
54.1217
54.1357
54.1497
54.1636
54.1774
54.1912
54.2049
54.2185
54.2321
54.2455
54.2589
54.2722
54.2855
54.2986
54.3117
54.3247
54.3376
54.3504
54.3632
54.3758
54.3884
54.4009
54.4133
54.4256
54.4378
54.4499
54.462
54.4739
54.4857
54.4975
54.5092
54.5207
54.5322
54.5436
54.5548
54.566
54.5771
54.5881
54.599
54.6097
54.6204
54.631
54.6415
54.6518
54.6621
54.6722
54.6823
54.6922
54.7021
54.7118
54.7215
54.731
54.7404
54.7497
54.7589
54.768
54.7769
54.7858
54.7945
54.8032
54.8117
54.8201
54.8284
54.8366
54.8447
54.8527
54.8605
54.8683
54.8758
54.8835
54.8906
54.8983
54.905
54.9126
54.9189
54.9264
54.9324
54.9398
54.9455
54.9526
54.9581
54.9651
54.9703
54.977
54.9821
54.9885
54.9933
54.9997
55.0039
55.0097
52.7793
52.7844
52.792
52.7995
52.8065
52.8131
52.8199
52.8266
52.833
52.8394
52.8459
52.8526
52.8591
52.8657
52.8724
52.8792
52.8863
52.8935
52.901
52.9087
52.9166
52.9247
52.9331
52.9417
52.9504
52.9595
52.9687
52.9781
52.9877
52.9975
53.0076
53.0178
53.0282
53.0388
53.0496
53.0606
53.0717
53.083
53.0945
53.1062
53.118
53.13
53.1421
53.1544
53.1668
53.1794
53.1921
53.2049
53.2179
53.231
53.2442
53.2576
53.271
53.2846
53.2983
53.312
53.3259
53.3399
53.3539
53.3681
53.3823
53.3966
53.411
53.4254
53.4399
53.4544
53.469
53.4837
53.4984
53.5132
53.5281
53.543
53.558
53.573
53.588
53.603
53.618
53.633
53.6481
53.6631
53.6781
53.6932
53.7083
53.7234
53.7384
53.7535
53.7685
53.7836
53.7986
53.8137
53.8287
53.8438
53.8588
53.8737
53.8887
53.9035
53.9184
53.9331
53.9479
53.9626
53.9772
53.9917
54.0063
54.0208
54.0352
54.0496
54.064
54.0784
54.0926
54.1068
54.1209
54.135
54.149
54.1629
54.1767
54.1905
54.2042
54.2178
54.2314
54.2449
54.2582
54.2716
54.2848
54.298
54.311
54.324
54.3369
54.3498
54.3625
54.3752
54.3877
54.4002
54.4126
54.4249
54.4371
54.4492
54.4613
54.4732
54.4851
54.4968
54.5085
54.52
54.5315
54.5429
54.5542
54.5653
54.5764
54.5874
54.5983
54.6091
54.6197
54.6303
54.6408
54.6511
54.6614
54.6716
54.6816
54.6916
54.7014
54.7112
54.7208
54.7303
54.7397
54.749
54.7582
54.7673
54.7763
54.7851
54.7939
54.8025
54.811
54.8195
54.8278
54.836
54.844
54.852
54.8598
54.8677
54.8751
54.8829
54.89
54.8976
54.9043
54.9119
54.9183
54.9258
54.9317
54.9391
54.9448
54.952
54.9574
54.9644
54.9696
54.9764
54.9814
54.9879
54.9926
54.9991
55.0028
55.0091
55.0125
55.0134
55.0141
55.0147
55.0151
55.0153
55.0154
55.0158
55.0163
55.0171
55.018
55.0189
55.0198
55.0207
55.0215
55.0224
55.0231
55.0239
55.0246
55.0255
55.012
55.013
55.0138
55.0147
55.0155
55.0162
55.0168
55.0174
55.018
55.0186
55.0192
55.0199
55.0206
55.0215
55.0224
55.0233
55.0241
55.025
55.0259
55.0268
55.0118
55.0128
55.0137
55.0145
55.0154
55.0162
55.017
55.0177
55.0183
55.019
55.0195
55.0203
55.0209
55.0217
55.0224
55.0234
55.0242
55.0252
55.0261
55.027
55.0123
55.0133
55.0142
55.0151
55.0159
55.0168
55.0176
55.0185
55.0193
55.0202
55.0208
55.0215
55.022
55.0225
55.0229
55.0234
55.0239
55.0246
55.0253
55.0261
55.0124
55.0135
55.0144
55.0155
55.0164
55.0173
55.0183
55.0192
55.0202
55.0211
55.0221
55.023
55.0239
55.0248
55.0258
55.0267
55.0275
55.0283
55.0291
55.0299
55.0127
55.0136
55.0145
55.0155
55.0164
55.0174
55.0182
55.0192
55.02
55.0209
55.0217
55.0225
55.0232
55.024
55.0245
55.0251
55.0255
55.0259
55.0263
55.0268
55.0133
55.0142
55.0151
55.016
55.0169
55.0179
55.0188
55.0199
55.0208
55.0218
55.0227
55.0237
55.0247
55.0257
55.0267
55.0277
55.0287
55.0298
55.0308
55.0318
55.0132
55.0139
55.0146
55.0155
55.0164
55.0173
55.0183
55.0192
55.0201
55.021
55.022
55.023
55.024
55.0251
55.0263
55.0275
55.0287
55.0299
55.031
55.032
55.013
55.0138
55.0147
55.0156
55.0166
55.0176
55.0187
55.0197
55.0208
55.0219
55.0232
55.0244
55.0257
55.0269
55.0282
55.0295
55.0307
55.0319
55.033
55.0341
55.0125
55.0133
55.0142
55.0153
55.0164
55.0176
55.0187
55.0199
55.0211
55.0223
55.0235
55.0248
55.026
55.0272
55.0284
55.0297
55.0309
55.032
55.033
55.0339
55.0275
55.0305
55.0341
55.0379
55.0415
55.0445
55.0475
55.0507
55.0541
55.0574
55.0606
55.0635
55.0662
55.0689
55.0717
55.0745
55.0772
55.0799
55.0825
55.085
55.0874
55.0898
55.0921
55.0944
55.0966
55.0988
55.1009
55.103
55.105
55.107
55.1089
55.1108
55.1126
55.1144
55.1161
55.1178
55.1194
55.121
55.1225
55.1241
55.1255
55.127
55.1284
55.1298
55.1311
55.1324
55.1336
55.1348
55.136
55.1371
55.1382
55.1393
55.1403
55.1413
55.1423
55.1432
55.1441
55.145
55.1459
55.1468
55.1476
55.1484
55.1492
55.1499
55.1507
55.1514
55.1521
55.1528
55.1534
55.1541
55.1547
55.1552
55.1558
55.1564
55.1569
55.1575
55.158
55.1585
55.1589
55.1594
55.1598
55.1602
55.1606
55.161
55.1614
55.1617
55.1621
55.1624
55.1628
55.1631
55.1634
55.1638
55.1641
55.1644
55.1646
55.1649
55.1651
55.1654
55.1656
55.1658
55.166
55.1662
55.1664
55.1665
55.1667
55.1668
55.1669
55.1671
55.1673
55.1674
55.1675
55.1676
55.1676
55.1678
55.168
55.1683
55.1688
55.1692
55.1696
55.1698
55.1696
55.1694
55.17
55.1714
55.1732
55.1743
55.1738
55.1674
55.1441
55.1092
55.0746
55.0424
55.0144
54.9919
54.9761
54.9678
54.966
54.9664
54.9707
54.9899
55.0335
55.0749
55.1089
55.1339
55.1507
55.1612
55.1679
55.1722
55.1745
55.1747
55.1733
55.1714
55.1701
55.1692
55.1685
55.1679
55.1675
55.1672
55.1669
55.1666
55.1664
55.1662
55.166
55.1658
55.1657
55.1655
55.1653
55.1652
55.1651
55.165
55.1648
55.1647
55.1646
55.1645
55.1643
55.1644
55.1641
55.1643
55.1638
55.1642
55.1637
55.164
55.1635
55.1639
55.1633
55.1638
55.1632
55.1636
55.1631
55.1635
55.163
55.1634
55.1629
55.1633
55.1628
55.1632
55.1627
55.1632
55.1624
55.1627
55.029
55.0323
55.0354
55.039
55.0426
55.0459
55.049
55.0521
55.0554
55.0588
55.0621
55.0651
55.068
55.0707
55.0734
55.0762
55.0789
55.0816
55.0843
55.0868
55.0893
55.0917
55.094
55.0963
55.0985
55.1007
55.1028
55.1049
55.1069
55.1089
55.1108
55.1127
55.1145
55.1163
55.1181
55.1198
55.1214
55.123
55.1245
55.126
55.1275
55.1289
55.1303
55.1317
55.133
55.1343
55.1356
55.1368
55.1379
55.1391
55.1402
55.1413
55.1423
55.1433
55.1443
55.1452
55.1461
55.147
55.1479
55.1488
55.1496
55.1504
55.1512
55.152
55.1527
55.1534
55.1541
55.1548
55.1554
55.1561
55.1567
55.1573
55.1578
55.1584
55.1589
55.1594
55.16
55.1605
55.161
55.1614
55.1619
55.1623
55.1627
55.163
55.1634
55.1638
55.1641
55.1645
55.1648
55.1652
55.1655
55.1658
55.1661
55.1664
55.1667
55.1669
55.1672
55.1674
55.1676
55.1678
55.168
55.1682
55.1684
55.1686
55.1687
55.1688
55.169
55.1691
55.1692
55.1693
55.1694
55.1694
55.1695
55.1697
55.1698
55.17
55.1702
55.1705
55.1706
55.1706
55.1705
55.1703
55.1704
55.171
55.1722
55.174
55.1757
55.1772
55.179
55.1814
55.1838
55.1859
55.1868
55.1858
55.181
55.1737
55.1661
55.1589
55.1524
55.147
55.145
55.145
55.146
55.1493
55.154
55.1586
55.1627
55.1661
55.1686
55.1699
55.17
55.1697
55.1693
55.169
55.1686
55.1683
55.168
55.1677
55.1674
55.1672
55.167
55.1668
55.1666
55.1664
55.1662
55.1661
55.1659
55.1658
55.1657
55.1655
55.1654
55.1653
55.1652
55.1651
55.1649
55.165
55.1647
55.1649
55.1644
55.1647
55.1643
55.1646
55.1641
55.1644
55.1639
55.1643
55.1638
55.1642
55.1637
55.164
55.1636
55.1639
55.1635
55.1638
55.1634
55.1638
55.1633
55.1637
55.1632
55.1633
55.0292
55.0324
55.0354
55.0389
55.0425
55.0458
55.0488
55.0519
55.0551
55.0585
55.0618
55.0648
55.0676
55.0703
55.0731
55.0759
55.0787
55.0814
55.084
55.0865
55.089
55.0914
55.0937
55.096
55.0982
55.1004
55.1025
55.1046
55.1066
55.1086
55.1105
55.1124
55.1142
55.116
55.1178
55.1194
55.1211
55.1226
55.1242
55.1257
55.1272
55.1286
55.13
55.1314
55.1327
55.134
55.1352
55.1364
55.1376
55.1388
55.1399
55.141
55.142
55.143
55.144
55.1449
55.1458
55.1467
55.1476
55.1484
55.1493
55.1501
55.1509
55.1516
55.1524
55.1531
55.1538
55.1544
55.1551
55.1557
55.1564
55.157
55.1575
55.1581
55.1586
55.1591
55.1596
55.1602
55.1606
55.1611
55.1615
55.162
55.1623
55.1627
55.1631
55.1635
55.1638
55.1642
55.1645
55.1649
55.1652
55.1655
55.1658
55.1661
55.1664
55.1667
55.1669
55.1671
55.1674
55.1676
55.1678
55.168
55.1681
55.1683
55.1684
55.1686
55.1687
55.1688
55.1689
55.169
55.1691
55.1692
55.1693
55.1693
55.1694
55.1696
55.1698
55.1701
55.1703
55.1703
55.1702
55.1698
55.1695
55.1699
55.1714
55.1737
55.1767
55.18
55.1832
55.1862
55.1889
55.1912
55.1931
55.1939
55.1933
55.19
55.1851
55.18
55.1749
55.1701
55.1661
55.1631
55.1613
55.1608
55.1612
55.1624
55.164
55.1656
55.1668
55.1677
55.1683
55.1685
55.1686
55.1685
55.1683
55.1681
55.1679
55.1676
55.1674
55.1672
55.167
55.1668
55.1666
55.1664
55.1662
55.1661
55.1659
55.1658
55.1657
55.1655
55.1654
55.1653
55.1652
55.1651
55.1649
55.165
55.1647
55.1649
55.1644
55.1647
55.1643
55.1646
55.1641
55.1644
55.1639
55.1643
55.1638
55.1642
55.1637
55.164
55.1636
55.1639
55.1635
55.1638
55.1634
55.1638
55.1633
55.1637
55.1633
55.1634
55.0283
55.0317
55.0344
55.0372
55.0403
55.0434
55.0464
55.0492
55.052
55.0549
55.0578
55.0608
55.0636
55.0663
55.0689
55.0715
55.0741
55.0767
55.0793
55.0818
55.0842
55.0866
55.0889
55.0912
55.0934
55.0956
55.0977
55.0997
55.1018
55.1037
55.1057
55.1075
55.1094
55.1111
55.1129
55.1145
55.1162
55.1178
55.1193
55.1208
55.1223
55.1238
55.1251
55.1265
55.1278
55.1291
55.1304
55.1316
55.1328
55.1339
55.135
55.1361
55.1371
55.1381
55.1391
55.14
55.1409
55.1418
55.1427
55.1436
55.1444
55.1452
55.146
55.1468
55.1475
55.1482
55.1489
55.1496
55.1502
55.1509
55.1515
55.1521
55.1526
55.1532
55.1538
55.1543
55.1548
55.1553
55.1558
55.1562
55.1566
55.157
55.1574
55.1578
55.1582
55.1586
55.159
55.1593
55.1597
55.16
55.1603
55.1607
55.161
55.1612
55.1615
55.1618
55.162
55.1623
55.1625
55.1627
55.1629
55.1631
55.1633
55.1635
55.1637
55.1639
55.164
55.1642
55.1643
55.1644
55.1646
55.1648
55.1651
55.1655
55.1657
55.1661
55.1664
55.1665
55.1663
55.1663
55.1664
55.1667
55.1678
55.1694
55.1714
55.1732
55.1749
55.1764
55.178
55.1795
55.1806
55.1811
55.1808
55.1797
55.1781
55.1762
55.1743
55.1724
55.1707
55.1693
55.1682
55.1675
55.1672
55.1672
55.1674
55.1677
55.168
55.1682
55.1684
55.1684
55.1684
55.1684
55.1682
55.1681
55.1679
55.1677
55.1675
55.1673
55.1671
55.1669
55.1668
55.1666
55.1665
55.1663
55.1662
55.166
55.1659
55.1658
55.1656
55.1655
55.1654
55.1653
55.1652
55.1651
55.1649
55.165
55.1647
55.1648
55.1645
55.1646
55.1644
55.1645
55.1642
55.1644
55.1639
55.1643
55.1638
55.1641
55.1637
55.164
55.1636
55.164
55.1635
55.1638
55.1634
55.1638
55.1633
55.1637
55.1635
55.1635
55.0319
55.035
55.0381
55.0411
55.0442
55.0473
55.0504
55.0537
55.057
55.0603
55.0634
55.0664
55.0692
55.072
55.0747
55.0775
55.0802
55.0828
55.0853
55.0878
55.0902
55.0926
55.095
55.0973
55.0995
55.1017
55.1038
55.1059
55.108
55.1099
55.1119
55.1137
55.1156
55.1174
55.1191
55.1208
55.1224
55.124
55.1256
55.1271
55.1286
55.13
55.1314
55.1327
55.134
55.1353
55.1366
55.1378
55.139
55.1401
55.1412
55.1423
55.1433
55.1443
55.1453
55.1463
55.1472
55.1481
55.149
55.1498
55.1506
55.1514
55.1522
55.153
55.1537
55.1544
55.1551
55.1558
55.1564
55.1571
55.1577
55.1582
55.1588
55.1594
55.1599
55.1604
55.161
55.1614
55.1619
55.1624
55.1628
55.1632
55.1637
55.1641
55.1645
55.1648
55.1652
55.1655
55.1658
55.1662
55.1665
55.1668
55.167
55.1673
55.1676
55.1678
55.1681
55.1683
55.1685
55.1687
55.1689
55.1691
55.1692
55.1694
55.1695
55.1696
55.1698
55.1699
55.1699
55.1701
55.1702
55.1702
55.1702
55.1702
55.1703
55.1704
55.1704
55.1704
55.1704
55.1705
55.1706
55.1706
55.1703
55.1701
55.1702
55.1706
55.1712
55.1719
55.1728
55.1737
55.1745
55.175
55.1753
55.1752
55.1749
55.1743
55.1736
55.1729
55.1722
55.1715
55.171
55.1705
55.1701
55.1698
55.1696
55.1693
55.1691
55.169
55.1688
55.1686
55.1684
55.1682
55.168
55.1679
55.1677
55.1675
55.1673
55.1672
55.167
55.1668
55.1667
55.1665
55.1664
55.1663
55.1661
55.166
55.1659
55.1657
55.1656
55.1655
55.1654
55.1653
55.1652
55.1651
55.165
55.1649
55.1648
55.1646
55.1647
55.1645
55.1645
55.1644
55.1642
55.1644
55.164
55.1642
55.164
55.1639
55.164
55.1637
55.164
55.1636
55.1638
55.1637
55.1635
55.1637
55.1635
55.1635
55.1634
55.1635
55.0289
55.0311
55.0329
55.0346
55.0364
55.0383
55.0405
55.0427
55.045
55.0473
55.0497
55.0521
55.0546
55.0571
55.0596
55.0622
55.0647
55.0673
55.0698
55.0722
55.0747
55.077
55.0793
55.0816
55.0838
55.086
55.0881
55.0901
55.0922
55.0941
55.0961
55.0979
55.0998
55.1015
55.1032
55.1049
55.1065
55.1081
55.1097
55.1112
55.1127
55.1141
55.1156
55.1169
55.1183
55.1196
55.1208
55.122
55.1232
55.1243
55.1254
55.1264
55.1275
55.1285
55.1295
55.1305
55.1314
55.1323
55.1332
55.1341
55.1349
55.1357
55.1365
55.1373
55.138
55.1387
55.1394
55.1401
55.1408
55.1414
55.1421
55.1427
55.1433
55.1438
55.1443
55.1449
55.1454
55.1459
55.1463
55.1468
55.1473
55.1477
55.1482
55.1486
55.149
55.1495
55.1499
55.1504
55.1508
55.1513
55.1517
55.1521
55.1525
55.1529
55.1533
55.1537
55.1542
55.1546
55.1551
55.1555
55.1559
55.1562
55.1566
55.157
55.1574
55.1578
55.1583
55.1588
55.1593
55.1599
55.1604
55.1607
55.161
55.1612
55.1613
55.1614
55.1616
55.162
55.1627
55.1637
55.1649
55.1663
55.1679
55.1694
55.1707
55.1719
55.1728
55.1736
55.1743
55.1748
55.1752
55.1755
55.1755
55.1754
55.1751
55.1746
55.1739
55.1731
55.1722
55.1714
55.1707
55.1701
55.1696
55.1692
55.1689
55.1686
55.1684
55.1683
55.1681
55.168
55.1678
55.1677
55.1675
55.1674
55.1673
55.1672
55.167
55.1669
55.1668
55.1667
55.1666
55.1664
55.1663
55.1662
55.1661
55.1659
55.1658
55.1657
55.1656
55.1655
55.1654
55.1652
55.1652
55.165
55.165
55.1648
55.1649
55.1646
55.1647
55.1644
55.1646
55.1642
55.1645
55.164
55.1643
55.1639
55.1642
55.1637
55.1641
55.1636
55.164
55.1635
55.1639
55.1634
55.1638
55.1634
55.1637
55.1633
55.1636
55.1633
55.0346
55.0388
55.0428
55.0465
55.0498
55.053
55.0562
55.0595
55.0626
55.0658
55.0689
55.0719
55.0749
55.0778
55.0807
55.0835
55.0863
55.089
55.0916
55.0941
55.0966
55.099
55.1014
55.1038
55.106
55.1083
55.1104
55.1126
55.1147
55.1167
55.1187
55.1206
55.1224
55.1242
55.126
55.1277
55.1294
55.131
55.1325
55.1341
55.1355
55.137
55.1384
55.1397
55.1411
55.1423
55.1436
55.1448
55.1459
55.1471
55.1482
55.1492
55.1503
55.1513
55.1522
55.1532
55.1541
55.155
55.1559
55.1567
55.1576
55.1584
55.1591
55.1599
55.1606
55.1613
55.162
55.1627
55.1633
55.1639
55.1645
55.1651
55.1657
55.1662
55.1668
55.1673
55.1678
55.1683
55.1688
55.1692
55.1696
55.1701
55.1705
55.1709
55.1713
55.1717
55.172
55.1724
55.1727
55.1731
55.1734
55.1737
55.1739
55.1742
55.1745
55.1748
55.1751
55.1753
55.1755
55.1758
55.176
55.1762
55.1764
55.1765
55.1767
55.1768
55.177
55.1771
55.1773
55.1774
55.1774
55.1775
55.1776
55.1777
55.1778
55.1777
55.1777
55.1778
55.178
55.178
55.1778
55.1777
55.1776
55.1774
55.1774
55.1775
55.1775
55.1772
55.1765
55.1758
55.1752
55.1746
55.1747
55.1753
55.1767
55.1782
55.1793
55.1794
55.1787
55.1772
55.1756
55.174
55.1727
55.1715
55.1706
55.1699
55.1693
55.1689
55.1685
55.1682
55.168
55.1678
55.1676
55.1675
55.1673
55.1672
55.167
55.1669
55.1668
55.1667
55.1665
55.1664
55.1663
55.1662
55.1661
55.1659
55.1658
55.1657
55.1656
55.1655
55.1654
55.1652
55.1652
55.165
55.165
55.1648
55.1649
55.1646
55.1647
55.1644
55.1646
55.1642
55.1645
55.164
55.1643
55.1639
55.1642
55.1637
55.1641
55.1636
55.164
55.1635
55.1639
55.1634
55.1638
55.1634
55.1637
55.1635
55.1634
55.1633
55.0351
55.0374
55.0392
55.0407
55.0421
55.0435
55.0451
55.0467
55.0484
55.0502
55.0521
55.0541
55.0561
55.0583
55.0606
55.063
55.0654
55.0678
55.0703
55.0727
55.0751
55.0775
55.0798
55.0821
55.0843
55.0865
55.0886
55.0907
55.0927
55.0947
55.0966
55.0985
55.1004
55.1022
55.1039
55.1056
55.1072
55.1088
55.1103
55.1118
55.1133
55.1147
55.1162
55.1175
55.1189
55.1202
55.1214
55.1227
55.1239
55.125
55.1261
55.1272
55.1283
55.1293
55.1303
55.1313
55.1323
55.1333
55.1342
55.1351
55.136
55.1368
55.1377
55.1385
55.1393
55.1401
55.1408
55.1416
55.1423
55.1429
55.1436
55.1443
55.1449
55.1455
55.146
55.1465
55.147
55.1475
55.1479
55.1483
55.1487
55.1491
55.1495
55.1499
55.1503
55.1507
55.1511
55.1515
55.152
55.1524
55.1528
55.1532
55.1536
55.1541
55.1545
55.1548