/*--------------------------------*- C++ -*----------------------------------*\
| =========                 |                                                 |
| \\      /  F ield         | OpenFOAM: The Open Source CFD Toolbox           |
|  \\    /   O peration     | Version:  3.0.x                                 |
|   \\  /    A nd           | Web:      www.OpenFOAM.org                      |
|    \\/     M anipulation  |                                                 |
\*---------------------------------------------------------------------------*/
FoamFile
{
    version     2.0;
    format      ascii;
    class       volScalarField;
    location    "0.56";
    object      T;
}
// * * * * * * * * * * * * * * * * * * * * * * * * * * * * * * * * * * * * * //

dimensions      [0 0 0 1 0 0 0];

internalField   nonuniform List<scalar> 
13800
(
780.453
780.421
780.378
780.339
780.308
780.285
780.265
780.25
780.244
780.244
780.245
780.249
780.259
780.273
780.289
780.308
780.327
780.348
780.37
780.392
780.416
780.439
780.464
780.489
780.515
780.542
780.569
780.597
780.625
780.654
780.684
780.714
780.745
780.776
780.808
780.84
780.873
780.906
780.94
780.974
781.009
781.044
781.08
781.116
781.153
781.19
781.227
781.265
781.303
781.342
781.381
781.42
781.459
781.499
781.539
781.58
781.621
781.662
781.703
781.744
781.786
781.828
781.87
781.913
781.956
781.999
782.042
782.086
782.129
782.171
782.214
782.257
782.3
782.343
782.386
782.43
782.473
782.517
782.561
782.606
782.65
782.694
782.738
782.782
782.826
782.87
782.914
782.957
783
783.044
783.086
783.129
783.171
783.214
783.256
783.299
783.342
783.385
783.427
783.47
783.513
783.556
783.598
783.641
783.682
783.724
783.765
783.805
783.846
783.886
783.927
783.967
784.007
784.047
784.087
784.127
784.167
784.206
784.245
784.284
784.323
784.361
784.4
784.438
784.476
784.513
784.551
784.588
784.625
784.661
784.698
784.734
784.77
784.805
784.841
784.876
784.911
784.945
784.979
785.013
785.047
785.08
785.114
785.146
785.179
785.211
785.243
785.275
785.306
785.337
785.368
785.399
785.429
785.459
785.488
785.517
785.546
785.575
785.603
785.631
785.659
785.687
785.714
785.74
785.767
785.793
785.819
785.844
785.869
785.894
785.919
785.943
785.967
785.991
786.013
786.037
786.059
786.082
786.102
786.126
786.144
786.169
786.185
786.211
786.224
786.252
786.262
786.291
786.299
786.329
786.335
786.364
786.37
786.398
786.403
786.43
786.439
786.452
786.485
786.484
780.436
780.404
780.361
780.323
780.292
780.269
780.249
780.234
780.228
780.228
780.229
780.233
780.243
780.257
780.274
780.292
780.311
780.332
780.354
780.377
780.4
780.424
780.449
780.474
780.5
780.526
780.554
780.582
780.61
780.639
780.669
780.699
780.73
780.761
780.793
780.825
780.858
780.891
780.925
780.96
780.995
781.03
781.066
781.102
781.138
781.176
781.213
781.251
781.289
781.328
781.367
781.406
781.445
781.485
781.525
781.566
781.607
781.648
781.689
781.731
781.772
781.815
781.857
781.899
781.942
781.986
782.029
782.072
782.116
782.159
782.201
782.244
782.287
782.33
782.373
782.417
782.461
782.505
782.549
782.593
782.637
782.682
782.726
782.77
782.814
782.858
782.902
782.945
782.989
783.032
783.075
783.118
783.16
783.203
783.245
783.288
783.331
783.373
783.416
783.459
783.502
783.545
783.587
783.63
783.672
783.713
783.754
783.795
783.836
783.876
783.917
783.957
783.997
784.037
784.077
784.117
784.157
784.196
784.235
784.274
784.313
784.352
784.39
784.428
784.466
784.504
784.541
784.578
784.615
784.652
784.688
784.724
784.76
784.796
784.831
784.866
784.901
784.935
784.97
785.004
785.037
785.071
785.104
785.137
785.169
785.201
785.233
785.265
785.296
785.328
785.358
785.389
785.419
785.449
785.479
785.508
785.537
785.565
785.594
785.622
785.65
785.677
785.704
785.731
785.757
785.783
785.809
785.835
785.86
785.885
785.909
785.934
785.957
785.981
786.004
786.027
786.049
786.073
786.093
786.117
786.135
786.16
786.175
786.202
786.214
786.242
786.252
786.282
786.289
786.319
786.325
786.355
786.36
786.389
786.394
786.422
786.427
786.453
786.46
786.486
780.436
780.404
780.361
780.323
780.292
780.269
780.248
780.234
780.228
780.228
780.229
780.233
780.243
780.257
780.274
780.292
780.311
780.332
780.354
780.376
780.4
780.424
780.449
780.474
780.5
780.526
780.554
780.582
780.61
780.639
780.669
780.699
780.73
780.761
780.793
780.825
780.858
780.891
780.925
780.96
780.995
781.03
781.066
781.102
781.138
781.176
781.213
781.251
781.289
781.328
781.366
781.406
781.445
781.485
781.525
781.566
781.607
781.648
781.689
781.73
781.772
781.815
781.857
781.899
781.942
781.986
782.029
782.072
782.116
782.159
782.201
782.244
782.287
782.33
782.373
782.417
782.461
782.505
782.549
782.593
782.637
782.682
782.726
782.77
782.814
782.858
782.902
782.945
782.989
783.032
783.075
783.118
783.16
783.203
783.245
783.288
783.331
783.373
783.416
783.459
783.502
783.545
783.587
783.63
783.672
783.713
783.754
783.795
783.836
783.876
783.916
783.957
783.997
784.037
784.077
784.117
784.157
784.196
784.235
784.274
784.313
784.352
784.39
784.428
784.466
784.504
784.541
784.578
784.615
784.652
784.688
784.724
784.76
784.796
784.831
784.866
784.901
784.935
784.97
785.004
785.037
785.071
785.104
785.137
785.169
785.201
785.233
785.265
785.296
785.328
785.358
785.389
785.419
785.449
785.478
785.508
785.537
785.565
785.594
785.622
785.65
785.677
785.704
785.731
785.757
785.783
785.809
785.835
785.86
785.885
785.909
785.933
785.957
785.981
786.004
786.027
786.049
786.073
786.093
786.117
786.135
786.16
786.175
786.202
786.214
786.242
786.252
786.282
786.289
786.319
786.325
786.355
786.36
786.389
786.394
786.422
786.427
786.453
786.459
786.484
780.436
780.404
780.362
780.323
780.292
780.269
780.249
780.234
780.228
780.228
780.229
780.233
780.244
780.257
780.274
780.292
780.311
780.332
780.354
780.377
780.4
780.424
780.449
780.474
780.5
780.527
780.554
780.582
780.61
780.639
780.669
780.699
780.73
780.761
780.793
780.825
780.858
780.891
780.925
780.96
780.995
781.03
781.066
781.102
781.139
781.176
781.213
781.251
781.289
781.328
781.367
781.406
781.445
781.485
781.526
781.566
781.607
781.648
781.689
781.731
781.772
781.815
781.857
781.9
781.942
781.986
782.029
782.072
782.116
782.159
782.201
782.244
782.287
782.33
782.373
782.417
782.461
782.505
782.549
782.593
782.637
782.682
782.726
782.77
782.814
782.858
782.902
782.945
782.989
783.032
783.075
783.118
783.16
783.203
783.245
783.288
783.331
783.373
783.416
783.459
783.502
783.545
783.587
783.63
783.672
783.713
783.754
783.795
783.836
783.876
783.916
783.957
783.997
784.037
784.077
784.117
784.157
784.196
784.235
784.274
784.313
784.352
784.39
784.428
784.466
784.504
784.541
784.578
784.615
784.652
784.688
784.724
784.76
784.796
784.831
784.866
784.901
784.935
784.97
785.004
785.037
785.071
785.104
785.137
785.169
785.201
785.233
785.265
785.296
785.328
785.358
785.389
785.419
785.449
785.478
785.508
785.537
785.565
785.594
785.622
785.65
785.677
785.704
785.731
785.757
785.783
785.809
785.835
785.86
785.885
785.909
785.933
785.957
785.981
786.004
786.027
786.049
786.073
786.093
786.117
786.135
786.16
786.175
786.202
786.214
786.242
786.252
786.282
786.289
786.319
786.325
786.355
786.36
786.389
786.394
786.422
786.427
786.453
786.459
786.479
780.437
780.405
780.362
780.323
780.292
780.269
780.249
780.234
780.228
780.228
780.229
780.233
780.244
780.257
780.274
780.292
780.312
780.332
780.354
780.377
780.4
780.424
780.449
780.474
780.5
780.527
780.554
780.582
780.61
780.639
780.669
780.699
780.73
780.761
780.793
780.825
780.858
780.892
780.925
780.96
780.995
781.03
781.066
781.102
781.139
781.176
781.213
781.251
781.289
781.328
781.367
781.406
781.445
781.485
781.526
781.566
781.607
781.648
781.689
781.731
781.772
781.815
781.857
781.9
781.942
781.986
782.029
782.072
782.116
782.159
782.201
782.244
782.287
782.33
782.373
782.417
782.461
782.505
782.549
782.593
782.638
782.682
782.726
782.77
782.814
782.858
782.902
782.945
782.989
783.032
783.075
783.118
783.16
783.203
783.245
783.288
783.331
783.373
783.416
783.459
783.502
783.545
783.587
783.63
783.672
783.713
783.754
783.795
783.836
783.876
783.916
783.957
783.997
784.037
784.077
784.117
784.157
784.196
784.235
784.274
784.313
784.352
784.39
784.428
784.466
784.504
784.541
784.578
784.615
784.652
784.688
784.724
784.76
784.796
784.831
784.866
784.901
784.935
784.97
785.004
785.037
785.071
785.104
785.137
785.169
785.201
785.233
785.265
785.296
785.328
785.358
785.389
785.419
785.449
785.478
785.508
785.537
785.565
785.594
785.622
785.65
785.677
785.704
785.731
785.757
785.783
785.809
785.835
785.86
785.885
785.909
785.934
785.957
785.981
786.004
786.027
786.049
786.073
786.093
786.117
786.135
786.16
786.175
786.202
786.214
786.242
786.252
786.282
786.289
786.319
786.325
786.355
786.36
786.389
786.394
786.422
786.427
786.453
786.458
786.484
780.437
780.405
780.362
780.323
780.292
780.269
780.249
780.234
780.228
780.228
780.229
780.233
780.244
780.257
780.274
780.292
780.312
780.332
780.354
780.377
780.4
780.424
780.449
780.474
780.5
780.527
780.554
780.582
780.61
780.639
780.669
780.699
780.73
780.761
780.793
780.825
780.858
780.892
780.925
780.96
780.995
781.03
781.066
781.102
781.139
781.176
781.213
781.251
781.289
781.328
781.367
781.406
781.445
781.485
781.526
781.566
781.607
781.648
781.689
781.731
781.772
781.815
781.857
781.9
781.942
781.986
782.029
782.072
782.116
782.159
782.201
782.244
782.287
782.33
782.373
782.417
782.461
782.505
782.549
782.593
782.638
782.682
782.726
782.77
782.814
782.858
782.902
782.945
782.989
783.032
783.075
783.118
783.16
783.203
783.245
783.288
783.331
783.373
783.416
783.459
783.502
783.545
783.587
783.63
783.672
783.713
783.754
783.795
783.836
783.876
783.916
783.957
783.997
784.037
784.077
784.117
784.157
784.196
784.235
784.274
784.313
784.352
784.39
784.428
784.466
784.504
784.541
784.578
784.615
784.652
784.688
784.724
784.76
784.796
784.831
784.866
784.901
784.935
784.97
785.004
785.037
785.071
785.104
785.137
785.169
785.201
785.233
785.265
785.296
785.328
785.358
785.389
785.419
785.449
785.478
785.508
785.537
785.565
785.594
785.622
785.65
785.677
785.704
785.731
785.757
785.783
785.809
785.835
785.86
785.885
785.909
785.933
785.957
785.981
786.004
786.027
786.05
786.072
786.094
786.116
786.136
786.158
786.178
786.198
786.22
786.234
786.262
786.271
786.3
786.309
786.333
786.348
786.364
786.386
786.396
786.418
786.433
786.446
786.462
786.477
780.436
780.404
780.362
780.323
780.292
780.269
780.249
780.234
780.228
780.228
780.229
780.233
780.244
780.257
780.274
780.292
780.311
780.332
780.354
780.377
780.4
780.424
780.449
780.474
780.5
780.527
780.554
780.582
780.61
780.639
780.669
780.699
780.73
780.761
780.793
780.825
780.858
780.891
780.925
780.96
780.995
781.03
781.066
781.102
781.139
781.176
781.213
781.251
781.289
781.328
781.367
781.406
781.445
781.485
781.526
781.566
781.607
781.648
781.689
781.731
781.772
781.815
781.857
781.9
781.942
781.986
782.029
782.072
782.116
782.159
782.201
782.244
782.287
782.33
782.373
782.417
782.461
782.505
782.549
782.593
782.637
782.682
782.726
782.77
782.814
782.858
782.902
782.945
782.989
783.032
783.075
783.118
783.16
783.203
783.245
783.288
783.331
783.373
783.416
783.459
783.502
783.545
783.587
783.63
783.672
783.713
783.754
783.795
783.836
783.876
783.916
783.957
783.997
784.037
784.077
784.117
784.157
784.196
784.235
784.274
784.313
784.352
784.39
784.428
784.466
784.504
784.541
784.578
784.615
784.652
784.688
784.724
784.76
784.796
784.831
784.866
784.901
784.935
784.97
785.004
785.037
785.071
785.104
785.137
785.169
785.201
785.233
785.265
785.296
785.328
785.358
785.389
785.419
785.449
785.478
785.508
785.537
785.565
785.594
785.622
785.65
785.677
785.704
785.731
785.757
785.783
785.809
785.835
785.86
785.885
785.909
785.933
785.957
785.981
786.004
786.027
786.05
786.071
786.095
786.113
786.139
786.154
786.182
786.194
786.223
786.233
786.262
786.271
786.3
786.308
786.337
786.343
786.372
786.378
786.405
786.411
786.438
786.442
786.465
786.478
780.436
780.404
780.361
780.323
780.292
780.269
780.248
780.234
780.228
780.228
780.229
780.233
780.243
780.257
780.274
780.292
780.311
780.332
780.354
780.376
780.4
780.424
780.449
780.474
780.5
780.526
780.554
780.582
780.61
780.639
780.669
780.699
780.73
780.761
780.793
780.825
780.858
780.891
780.925
780.96
780.995
781.03
781.066
781.102
781.138
781.176
781.213
781.251
781.289
781.328
781.366
781.406
781.445
781.485
781.525
781.566
781.607
781.648
781.689
781.73
781.772
781.815
781.857
781.899
781.942
781.986
782.029
782.072
782.116
782.159
782.201
782.244
782.287
782.33
782.373
782.417
782.461
782.505
782.549
782.593
782.637
782.682
782.726
782.77
782.814
782.858
782.902
782.945
782.989
783.032
783.075
783.118
783.16
783.203
783.245
783.288
783.331
783.373
783.416
783.459
783.502
783.545
783.587
783.63
783.672
783.713
783.754
783.795
783.836
783.876
783.916
783.957
783.997
784.037
784.077
784.117
784.157
784.196
784.235
784.274
784.313
784.352
784.39
784.428
784.466
784.504
784.541
784.578
784.615
784.652
784.688
784.724
784.76
784.796
784.831
784.866
784.901
784.935
784.97
785.004
785.037
785.071
785.104
785.137
785.169
785.201
785.233
785.265
785.296
785.328
785.358
785.389
785.419
785.449
785.478
785.508
785.537
785.565
785.594
785.622
785.65
785.677
785.704
785.731
785.757
785.783
785.809
785.835
785.86
785.885
785.909
785.933
785.957
785.981
786.004
786.027
786.05
786.071
786.095
786.113
786.139
786.154
786.182
786.194
786.223
786.233
786.263
786.271
786.301
786.307
786.337
786.343
786.372
786.378
786.405
786.411
786.438
786.442
786.473
786.478
780.436
780.404
780.361
780.323
780.292
780.269
780.249
780.234
780.228
780.228
780.229
780.233
780.243
780.257
780.274
780.292
780.311
780.332
780.354
780.377
780.4
780.424
780.449
780.474
780.5
780.526
780.554
780.582
780.61
780.639
780.669
780.699
780.73
780.761
780.793
780.825
780.858
780.891
780.925
780.96
780.995
781.03
781.066
781.102
781.138
781.176
781.213
781.251
781.289
781.328
781.367
781.406
781.445
781.485
781.525
781.566
781.607
781.648
781.689
781.731
781.772
781.815
781.857
781.899
781.942
781.986
782.029
782.072
782.116
782.159
782.201
782.244
782.287
782.33
782.373
782.417
782.461
782.505
782.549
782.593
782.637
782.682
782.726
782.77
782.814
782.858
782.902
782.945
782.989
783.032
783.075
783.118
783.16
783.203
783.245
783.288
783.331
783.373
783.416
783.459
783.502
783.545
783.587
783.63
783.672
783.713
783.754
783.795
783.836
783.876
783.917
783.957
783.997
784.037
784.077
784.117
784.157
784.196
784.235
784.274
784.313
784.352
784.39
784.428
784.466
784.504
784.541
784.578
784.615
784.652
784.688
784.724
784.76
784.796
784.831
784.866
784.901
784.935
784.97
785.004
785.037
785.071
785.104
785.137
785.169
785.201
785.233
785.265
785.296
785.328
785.358
785.389
785.419
785.449
785.479
785.508
785.537
785.565
785.594
785.622
785.65
785.677
785.704
785.731
785.757
785.783
785.809
785.835
785.86
785.885
785.909
785.933
785.957
785.981
786.004
786.027
786.05
786.071
786.095
786.113
786.139
786.154
786.182
786.194
786.223
786.233
786.263
786.271
786.301
786.307
786.337
786.343
786.372
786.377
786.405
786.411
786.439
786.442
786.475
786.484
780.453
780.421
780.378
780.339
780.308
780.285
780.265
780.25
780.244
780.244
780.245
780.249
780.259
780.273
780.289
780.308
780.327
780.348
780.37
780.392
780.416
780.439
780.464
780.489
780.515
780.542
780.569
780.597
780.625
780.654
780.684
780.714
780.745
780.776
780.808
780.84
780.873
780.906
780.94
780.974
781.009
781.044
781.08
781.116
781.153
781.19
781.227
781.265
781.303
781.342
781.381
781.42
781.459
781.499
781.539
781.58
781.621
781.662
781.703
781.744
781.786
781.828
781.87
781.913
781.956
781.999
782.042
782.086
782.129
782.171
782.214
782.257
782.3
782.343
782.386
782.43
782.473
782.517
782.561
782.606
782.65
782.694
782.738
782.782
782.826
782.87
782.914
782.957
783
783.044
783.086
783.129
783.171
783.214
783.256
783.299
783.342
783.385
783.427
783.47
783.513
783.556
783.598
783.641
783.682
783.724
783.765
783.805
783.846
783.886
783.927
783.967
784.007
784.047
784.087
784.127
784.167
784.206
784.245
784.284
784.323
784.361
784.4
784.438
784.476
784.513
784.551
784.588
784.625
784.661
784.698
784.734
784.77
784.805
784.841
784.876
784.911
784.945
784.979
785.013
785.047
785.08
785.114
785.146
785.179
785.211
785.243
785.275
785.306
785.337
785.368
785.399
785.429
785.459
785.488
785.517
785.546
785.575
785.603
785.631
785.659
785.687
785.714
785.74
785.767
785.793
785.819
785.844
785.869
785.894
785.919
785.943
785.967
785.99
786.014
786.036
786.06
786.08
786.105
786.123
786.148
786.164
786.191
786.204
786.232
786.242
786.272
786.28
786.31
786.317
786.347
786.352
786.381
786.387
786.415
786.42
786.448
786.451
786.489
786.491
786.489
786.495
786.502
786.51
786.521
786.535
786.55
786.562
786.57
786.575
786.579
786.582
786.586
786.589
786.592
786.595
786.599
786.603
786.607
786.61
786.496
786.501
786.506
786.511
786.516
786.523
786.531
786.539
786.547
786.555
786.562
786.568
786.573
786.577
786.58
786.582
786.584
786.587
786.589
786.591
786.499
786.503
786.507
786.512
786.517
786.522
786.528
786.533
786.543
786.548
786.558
786.563
786.57
786.573
786.579
786.58
786.583
786.584
786.585
786.589
786.492
786.495
786.5
786.504
786.51
786.513
786.518
786.521
786.527
786.531
786.538
786.543
786.553
786.559
786.57
786.576
786.584
786.589
786.595
786.598
786.494
786.495
786.499
786.5
786.503
786.506
786.508
786.511
786.513
786.516
786.518
786.521
786.523
786.526
786.528
786.531
786.534
786.537
786.54
786.543
786.49
786.492
786.495
786.497
786.5
786.503
786.506
786.509
786.514
786.517
786.521
786.524
786.53
786.534
786.542
786.548
786.557
786.566
786.574
786.581
786.487
786.489
786.492
786.493
786.496
786.497
786.499
786.499
786.501
786.502
786.503
786.504
786.505
786.506
786.507
786.507
786.508
786.508
786.508
786.508
786.486
786.488
786.491
786.493
786.496
786.498
786.501
786.503
786.505
786.507
786.509
786.511
786.511
786.511
786.51
786.509
786.507
786.505
786.505
786.505
786.489
786.49
786.491
786.492
786.493
786.494
786.495
786.496
786.496
786.494
786.492
786.49
786.488
786.485
786.483
786.481
786.479
786.477
786.476
786.475
786.495
786.495
786.495
786.495
786.494
786.493
786.492
786.49
786.488
786.487
786.485
786.483
786.481
786.48
786.478
786.476
786.475
786.475
786.476
786.478
786.614
786.629
786.634
786.634
786.638
786.647
786.658
786.665
786.668
786.671
786.676
786.685
786.694
786.703
786.711
786.717
786.724
786.73
786.736
786.743
786.75
786.757
786.763
786.77
786.776
786.782
786.788
786.794
786.8
786.806
786.811
786.817
786.822
786.827
786.832
786.837
786.842
786.847
786.852
786.856
786.86
786.864
786.868
786.872
786.875
786.879
786.882
786.886
786.889
786.892
786.895
786.899
786.902
786.905
786.908
786.911
786.914
786.916
786.919
786.921
786.923
786.925
786.928
786.93
786.932
786.934
786.936
786.938
786.94
786.942
786.943
786.945
786.947
786.948
786.95
786.951
786.952
786.953
786.955
786.956
786.958
786.96
786.961
786.962
786.964
786.965
786.966
786.967
786.968
786.969
786.97
786.97
786.971
786.972
786.973
786.974
786.975
786.975
786.976
786.977
786.977
786.978
786.978
786.979
786.98
786.981
786.981
786.981
786.98
786.98
786.98
786.981
786.981
786.98
786.978
786.974
786.969
786.963
786.958
786.957
786.959
786.962
786.954
786.934
786.909
786.892
786.9
786.991
787.322
787.82
788.315
788.776
789.176
789.497
789.722
789.839
789.864
789.856
789.792
789.514
788.885
788.289
787.8
787.44
787.198
787.044
786.946
786.883
786.847
786.841
786.859
786.883
786.899
786.909
786.917
786.922
786.925
786.927
786.929
786.93
786.931
786.932
786.932
786.932
786.932
786.932
786.932
786.932
786.932
786.932
786.932
786.931
786.931
786.93
786.931
786.929
786.932
786.927
786.933
786.926
786.932
786.926
786.932
786.925
786.932
786.925
786.932
786.924
786.931
786.924
786.931
786.924
786.93
786.923
786.93
786.923
786.93
786.922
786.933
786.929
786.593
786.603
786.616
786.619
786.622
786.628
786.637
786.645
786.649
786.652
786.655
786.661
786.669
786.678
786.686
786.693
786.699
786.705
786.71
786.717
786.723
786.73
786.736
786.743
786.749
786.755
786.761
786.767
786.773
786.779
786.784
786.789
786.794
786.799
786.804
786.809
786.814
786.819
786.824
786.828
786.832
786.836
786.84
786.844
786.847
786.851
786.854
786.858
786.861
786.864
786.867
786.87
786.873
786.876
786.879
786.882
786.885
786.888
786.89
786.893
786.895
786.897
786.899
786.901
786.903
786.906
786.908
786.91
786.911
786.913
786.915
786.916
786.918
786.919
786.921
786.922
786.924
786.925
786.926
786.927
786.928
786.93
786.931
786.933
786.934
786.936
786.937
786.938
786.939
786.94
786.941
786.942
786.942
786.943
786.944
786.944
786.945
786.946
786.947
786.948
786.949
786.949
786.95
786.95
786.951
786.952
786.952
786.952
786.953
786.954
786.953
786.954
786.954
786.953
786.952
786.951
786.948
786.945
786.944
786.945
786.947
786.949
786.948
786.94
786.923
786.897
786.873
786.85
786.824
786.79
786.755
786.724
786.71
786.723
786.791
786.893
786.998
787.099
787.189
787.263
787.29
787.288
787.27
787.221
787.151
787.082
787.021
786.969
786.931
786.91
786.905
786.907
786.91
786.912
786.915
786.917
786.919
786.92
786.921
786.922
786.923
786.923
786.923
786.924
786.924
786.924
786.924
786.924
786.924
786.923
786.923
786.923
786.923
786.922
786.923
786.921
786.924
786.919
786.924
786.919
786.924
786.918
786.923
786.917
786.923
786.917
786.923
786.917
786.922
786.916
786.922
786.916
786.922
786.916
786.921
786.916
786.921
786.915
786.922
786.92
786.591
786.602
786.615
786.62
786.623
786.63
786.64
786.648
786.653
786.656
786.66
786.666
786.675
786.684
786.691
786.697
786.702
786.708
786.715
786.721
786.728
786.734
786.741
786.747
786.753
786.759
786.765
786.771
786.777
786.783
786.789
786.794
786.799
786.804
786.809
786.814
786.819
786.824
786.828
786.833
786.837
786.841
786.845
786.848
786.852
786.855
786.859
786.862
786.866
786.869
786.872
786.875
786.878
786.881
786.884
786.887
786.89
786.893
786.895
786.897
786.899
786.901
786.904
786.906
786.908
786.91
786.912
786.914
786.916
786.918
786.919
786.921
786.922
786.924
786.926
786.927
786.928
786.929
786.93
786.932
786.933
786.934
786.936
786.937
786.939
786.94
786.941
786.942
786.943
786.944
786.945
786.946
786.947
786.947
786.948
786.948
786.949
786.95
786.951
786.951
786.952
786.953
786.953
786.954
786.955
786.955
786.956
786.956
786.957
786.957
786.958
786.958
786.958
786.958
786.958
786.957
786.954
786.951
786.949
786.948
786.951
786.957
786.962
786.955
786.934
786.901
786.859
786.812
786.765
786.722
786.683
786.648
786.621
786.607
786.615
786.659
786.727
786.798
786.869
786.934
786.989
787.028
787.052
787.056
787.048
787.028
787.002
786.977
786.956
786.941
786.93
786.924
786.921
786.919
786.919
786.919
786.92
786.921
786.922
786.922
786.923
786.923
786.924
786.924
786.924
786.924
786.924
786.924
786.924
786.923
786.923
786.923
786.923
786.922
786.923
786.921
786.924
786.919
786.924
786.919
786.924
786.918
786.923
786.917
786.923
786.917
786.923
786.917
786.922
786.916
786.922
786.916
786.922
786.916
786.921
786.916
786.921
786.915
786.92
786.918
786.6
786.612
786.629
786.644
786.654
786.663
786.673
786.686
786.698
786.708
786.716
786.723
786.732
786.741
786.751
786.76
786.768
786.775
786.782
786.789
786.795
786.802
786.809
786.816
786.822
786.829
786.835
786.841
786.847
786.852
786.858
786.863
786.868
786.873
786.879
786.884
786.889
786.893
786.898
786.902
786.906
786.91
786.914
786.918
786.922
786.925
786.929
786.932
786.935
786.938
786.941
786.944
786.948
786.951
786.954
786.957
786.959
786.962
786.964
786.967
786.969
786.971
786.973
786.976
786.978
786.98
786.982
786.983
786.985
786.987
786.989
786.991
786.992
786.993
786.995
786.996
786.997
786.999
787
787.002
787.003
787.005
787.006
787.007
787.008
787.009
787.011
787.012
787.013
787.013
787.014
787.015
787.016
787.016
787.017
787.018
787.019
787.02
787.02
787.021
787.021
787.022
787.023
787.023
787.022
787.022
787.022
787.023
787.023
787.023
787.021
787.02
787.018
787.013
787.011
787.007
787.003
787.003
787.005
787.006
787.006
787.001
786.986
786.962
786.935
786.908
786.884
786.862
786.838
786.816
786.8
786.792
786.795
786.81
786.831
786.856
786.882
786.907
786.929
786.946
786.959
786.966
786.967
786.965
786.96
786.953
786.946
786.939
786.934
786.93
786.928
786.926
786.926
786.925
786.925
786.925
786.925
786.925
786.926
786.926
786.926
786.925
786.925
786.925
786.925
786.925
786.924
786.924
786.924
786.924
786.923
786.923
786.923
786.922
786.923
786.921
786.923
786.92
786.923
786.92
786.922
786.92
786.922
786.918
786.923
786.917
786.923
786.917
786.922
786.916
786.922
786.916
786.922
786.916
786.921
786.916
786.921
786.915
786.917
786.917
786.551
786.564
786.576
786.587
786.598
786.607
786.615
786.621
786.625
786.63
786.635
786.642
786.651
786.659
786.666
786.674
786.681
786.688
786.695
786.702
786.709
786.716
786.723
786.729
786.735
786.741
786.747
786.752
786.758
786.764
786.769
786.774
786.78
786.785
786.79
786.795
786.799
786.804
786.808
786.812
786.817
786.821
786.825
786.829
786.833
786.836
786.84
786.843
786.846
786.85
786.853
786.856
786.859
786.862
786.864
786.867
786.87
786.872
786.875
786.877
786.88
786.882
786.885
786.887
786.889
786.891
786.893
786.894
786.896
786.898
786.9
786.902
786.904
786.905
786.906
786.908
786.909
786.911
786.912
786.913
786.915
786.916
786.917
786.918
786.919
786.92
786.921
786.923
786.924
786.925
786.926
786.927
786.928
786.929
786.93
786.931
786.932
786.933
786.934
786.935
786.936
786.936
786.938
786.938
786.939
786.94
786.94
786.941
786.942
786.942
786.942
786.943
786.944
786.945
786.945
786.945
786.946
786.947
786.947
786.946
786.945
786.946
786.95
786.952
786.952
786.946
786.938
786.926
786.913
786.9
786.888
786.879
786.874
786.874
786.877
786.884
786.891
786.9
786.907
786.914
786.919
786.923
786.926
786.927
786.928
786.929
786.929
786.929
786.929
786.928
786.928
786.928
786.928
786.928
786.928
786.928
786.927
786.927
786.927
786.927
786.927
786.926
786.926
786.926
786.925
786.925
786.925
786.924
786.924
786.924
786.924
786.923
786.923
786.923
786.922
786.923
786.921
786.923
786.92
786.922
786.921
786.92
786.922
786.918
786.922
786.919
786.92
786.92
786.918
786.921
786.917
786.921
786.917
786.918
786.92
786.917
786.918
786.919
786.918
786.917
786.591
786.618
786.65
786.68
786.709
786.735
786.758
786.778
786.797
786.815
786.831
786.846
786.86
786.872
786.883
786.892
786.901
786.909
786.917
786.925
786.932
786.939
786.946
786.952
786.959
786.965
786.972
786.978
786.984
786.989
786.995
787
787.005
787.011
787.016
787.021
787.026
787.031
787.035
787.039
787.044
787.047
787.051
787.055
787.058
787.062
787.065
787.069
787.072
787.076
787.079
787.082
787.085
787.088
787.091
787.093
787.096
787.098
787.101
787.103
787.105
787.107
787.109
787.111
787.113
787.115
787.117
787.119
787.12
787.122
787.123
787.125
787.126
787.128
787.129
787.131
787.132
787.133
787.135
787.136
787.137
787.138
787.138
787.139
787.14
787.14
787.14
787.139
787.139
787.138
787.138
787.137
787.137
787.136
787.135
787.133
787.131
787.129
787.126
787.124
787.122
787.12
787.119
787.116
787.113
787.109
787.104
787.099
787.094
787.088
787.083
787.079
787.076
787.075
787.074
787.074
787.072
787.067
787.058
787.044
787.027
787.007
786.985
786.963
786.944
786.927
786.914
786.902
786.892
786.883
786.877
786.873
786.871
786.871
786.874
786.879
786.888
786.897
786.907
786.916
786.924
786.93
786.934
786.937
786.938
786.939
786.939
786.939
786.938
786.937
786.937
786.936
786.935
786.934
786.933
786.932
786.932
786.931
786.93
786.929
786.929
786.928
786.927
786.927
786.926
786.926
786.925
786.925
786.924
786.924
786.923
786.924
786.922
786.924
786.921
786.924
786.92
786.923
786.919
786.923
786.919
786.923
786.918
786.923
786.917
786.923
786.917
786.923
786.917
786.922
786.916
786.922
786.916
786.922
786.916
786.921
786.915
786.921
786.916
786.92
786.51
786.506
786.505
786.507
786.514
786.522
786.529
786.536
786.543
786.549
786.555
786.562
786.568
786.574
786.58
786.586
786.593
786.599
786.605
786.612
786.618
786.624
786.63
786.636
786.641
786.647
786.652
786.657
786.662
786.667
786.672
786.677
786.682
786.686
786.691
786.696
786.7
786.705
786.709
786.713
786.717
786.721
786.725
786.729
786.733
786.736
786.74
786.743
786.747
786.75
786.753
786.757
786.76
786.763
786.765
786.768
786.771
786.773
786.776
786.778
786.781
786.783
786.786
786.788
786.79
786.792
786.794
786.796
786.798
786.8
786.802
786.804
786.806
786.807
786.809
786.81
786.811
786.813
786.814
786.816
786.817
786.819
786.82
786.821
786.822
786.823
786.824
786.825
786.826
786.827
786.828
786.829
786.83
786.831
786.832
786.832
786.833
786.834
786.834
786.835
786.835
786.836
786.836
786.837
786.837
786.838
786.838
786.838
786.838
786.839
786.84
786.84
786.84
786.839
786.84
786.841
786.842
786.842
786.84
786.841
786.844
786.845
786.847
786.85
786.85
786.849
786.848
786.852
786.861
786.87
786.879
786.885
786.883
786.874
786.851
786.828
786.811
786.807
786.814
786.833
786.853
786.873
786.89
786.903
786.914
786.921
786.926
786.93
786.932
786.933
786.934
786.934
786.934
786.934
786.933
786.932
786.932
786.931
786.93
786.929
786.929
786.928
786.928
786.927
786.926
786.926
786.925
786.925
786.924
786.924
786.924
786.924
786.923
786.924
786.921
786.924
786.92
786.924
786.919
786.923
786.919
786.923
786.918
786.923
786.917
786.923
786.917
786.923
786.917
786.922
786.916
786.922
786.916
786.922
786.916
786.921
786.916
786.918
786.919
786.919
786.505
786.527
786.556
786.59
786.625
786.658
786.689
786.718
786.746
786.771
786.795
786.817
786.836
786.853
786.867
786.88
786.891
786.9
786.909
786.917
786.924
786.931
786.938
786.945
786.951
786.957
786.964
786.97
786.976
786.981
786.987
786.992
786.997
787.002
787.007
787.012
787.017
787.022
787.027
787.031
787.035
787.039
787.043
787.046
787.05
787.053
787.056
787.059
787.062
787.065
787.068
787.071
787.074
787.077
787.079
787.081
787.083
787.084
787.086
787.088
787.089
787.091
787.092
787.093
787.094
787.096
787.097
787.098
787.099
787.1
787.101
787.102
787.103
787.104
787.105
787.107
787.108
787.11
787.112
787.114
787.116
787.118
787.119
787.121
787.122
787.123
787.123
787.123
787.123
787.123
787.122
787.122