/*--------------------------------*- C++ -*----------------------------------*\
| =========                 |                                                 |
| \\      /  F ield         | OpenFOAM: The Open Source CFD Toolbox           |
|  \\    /   O peration     | Version:  3.0.x                                 |
|   \\  /    A nd           | Web:      www.OpenFOAM.org                      |
|    \\/     M anipulation  |                                                 |
\*---------------------------------------------------------------------------*/
FoamFile
{
    version     2.0;
    format      ascii;
    class       volVectorField;
    location    "0.56";
    object      U;
}
// * * * * * * * * * * * * * * * * * * * * * * * * * * * * * * * * * * * * * //

dimensions      [0 1 -1 0 0 0 0];

internalField   nonuniform List<vector> 
13800
(
(57.7414 0.000137764 0)
(57.3384 0.000121229 0)
(56.8568 0.000121097 0)
(56.4056 0.000124068 0)
(55.9796 0.000126725 0)
(55.557 0.000129025 0)
(55.1305 0.000130982 0)
(54.7017 0.000132614 0)
(54.2725 0.000133962 0)
(53.8433 0.000135068 0)
(53.4139 0.000136016 0)
(52.9843 0.000136801 0)
(52.5544 0.000137395 0)
(52.1243 0.000137929 0)
(51.6941 0.000138366 0)
(51.2638 0.000138731 0)
(50.8334 0.000139038 0)
(50.403 0.0001393 0)
(49.9726 0.000139527 0)
(49.5422 0.000139727 0)
(49.1119 0.000139904 0)
(48.6817 0.000140066 0)
(48.2517 0.000140213 0)
(47.8219 0.00014035 0)
(47.3923 0.000140478 0)
(46.963 0.000140599 0)
(46.534 0.000140714 0)
(46.1054 0.000140825 0)
(45.6771 0.000140932 0)
(45.2493 0.000141035 0)
(44.822 0.000141137 0)
(44.3952 0.000141236 0)
(43.9689 0.000141335 0)
(43.5433 0.000141431 0)
(43.1183 0.000141528 0)
(42.694 0.000141624 0)
(42.2704 0.000141719 0)
(41.8476 0.000141814 0)
(41.4256 0.00014191 0)
(41.0045 0.000142004 0)
(40.5843 0.000142099 0)
(40.165 0.000142196 0)
(39.7468 0.000142291 0)
(39.3295 0.000142388 0)
(38.9134 0.000142484 0)
(38.4984 0.000142582 0)
(38.0845 0.000142682 0)
(37.6719 0.00014278 0)
(37.2605 0.000142881 0)
(36.8503 0.000142982 0)
(36.4416 0.000143083 0)
(36.0342 0.000143183 0)
(35.6282 0.000143282 0)
(35.2237 0.000143382 0)
(34.8207 0.000143484 0)
(34.4193 0.000143589 0)
(34.0194 0.0001437 0)
(33.6212 0.000143813 0)
(33.2246 0.000143922 0)
(32.8298 0.000144022 0)
(32.4367 0.000144117 0)
(32.0453 0.000144216 0)
(31.6558 0.000144319 0)
(31.2682 0.000144425 0)
(30.8824 0.000144531 0)
(30.4986 0.000144636 0)
(30.1168 0.00014474 0)
(29.7369 0.000144841 0)
(29.3591 0.000144943 0)
(28.9834 0.000145056 0)
(28.6097 0.000145175 0)
(28.2382 0.000145305 0)
(27.8689 0.000145436 0)
(27.5018 0.000145564 0)
(27.1369 0.000145681 0)
(26.7742 0.000145796 0)
(26.4139 0.000145903 0)
(26.0558 0.000146006 0)
(25.7001 0.000146111 0)
(25.3467 0.000146216 0)
(24.9958 0.000146324 0)
(24.6473 0.000146435 0)
(24.3012 0.000146546 0)
(23.9575 0.000146653 0)
(23.6164 0.000146753 0)
(23.2777 0.000146842 0)
(22.9416 0.000146927 0)
(22.6081 0.000147017 0)
(22.2771 0.000147113 0)
(21.9487 0.000147207 0)
(21.6229 0.0001473 0)
(21.2997 0.000147393 0)
(20.9791 0.000147484 0)
(20.6612 0.000147556 0)
(20.346 0.00014759 0)
(20.0334 0.000147576 0)
(19.7236 0.000147514 0)
(19.4164 0.0001474 0)
(19.112 0.000147221 0)
(18.8103 0.000146957 0)
(18.5113 0.000146585 0)
(18.2152 0.000146092 0)
(17.9217 0.00014547 0)
(17.6311 0.000144709 0)
(17.3432 0.000143792 0)
(17.0582 0.000142694 0)
(16.776 0.000141384 0)
(16.4966 0.00013983 0)
(16.22 0.000137999 0)
(15.9463 0.000135869 0)
(15.6754 0.000133418 0)
(15.4074 0.000130632 0)
(15.1423 0.000127507 0)
(14.8801 0.000124041 0)
(14.6207 0.000120241 0)
(14.3643 0.000116116 0)
(14.1108 0.000111684 0)
(13.8602 0.000106965 0)
(13.6125 0.000101987 0)
(13.3678 9.67828e-05 0)
(13.126 9.13927e-05 0)
(12.8871 8.58609e-05 0)
(12.6512 8.02344e-05 0)
(12.4181 7.45615e-05 0)
(12.188 6.88909e-05 0)
(11.9608 6.32709e-05 0)
(11.7365 5.77479e-05 0)
(11.515 5.23648e-05 0)
(11.2964 4.71612e-05 0)
(11.0807 4.21713e-05 0)
(10.8678 3.74241e-05 0)
(10.6578 3.2943e-05 0)
(10.4505 2.87457e-05 0)
(10.246 2.48441e-05 0)
(10.0443 2.1245e-05 0)
(9.84528 1.79499e-05 0)
(9.64899 1.49557e-05 0)
(9.4554 1.22547e-05 0)
(9.26446 9.83311e-06 0)
(9.07618 7.67068e-06 0)
(8.89052 5.7418e-06 0)
(8.70746 4.01541e-06 0)
(8.52698 2.44344e-06 0)
(8.34906 8.20837e-07 0)
(8.17368 -2.56276e-07 0)
(8.00081 -1.02528e-06 0)
(7.83044 -1.6868e-06 0)
(7.66255 -2.25264e-06 0)
(7.49712 -2.73522e-06 0)
(7.33412 -3.1464e-06 0)
(7.17354 -3.49735e-06 0)
(7.01536 -3.79765e-06 0)
(6.85955 -4.05564e-06 0)
(6.70611 -4.27865e-06 0)
(6.555 -4.47301e-06 0)
(6.40622 -4.64506e-06 0)
(6.25975 -4.79916e-06 0)
(6.11555 -4.93955e-06 0)
(5.97363 -5.06864e-06 0)
(5.83395 -5.18895e-06 0)
(5.6965 -5.30246e-06 0)
(5.56126 -5.41057e-06 0)
(5.42821 -5.51482e-06 0)
(5.29733 -5.61592e-06 0)
(5.1686 -5.71477e-06 0)
(5.042 -5.81207e-06 0)
(4.91751 -5.90876e-06 0)
(4.79511 -6.00399e-06 0)
(4.67477 -6.09889e-06 0)
(4.55648 -6.19136e-06 0)
(4.44021 -6.28588e-06 0)
(4.32595 -6.37596e-06 0)
(4.21368 -6.47255e-06 0)
(4.10338 -6.55974e-06 0)
(3.99503 -6.65892e-06 0)
(3.8886 -6.74608e-06 0)
(3.7841 -6.83445e-06 0)
(3.68148 -6.94397e-06 0)
(3.58076 -6.98527e-06 0)
(3.48187 -7.16896e-06 0)
(3.38487 -7.1074e-06 0)
(3.28963 -7.43508e-06 0)
(3.19627 -7.1885e-06 0)
(3.10461 -7.76531e-06 0)
(3.01484 -7.1864e-06 0)
(2.92669 -8.15736e-06 0)
(2.84044 -7.06849e-06 0)
(2.75573 -8.6352e-06 0)
(2.67291 -7.01748e-06 0)
(2.59155 -8.83647e-06 0)
(2.51207 -7.25252e-06 0)
(2.43396 -8.76736e-06 0)
(2.35766 -7.07122e-06 0)
(2.2826 -6.0561e-06 0)
(2.20903 6.80857e-06 0)
(2.13553 5.69425e-05 0)
(2.05958 0.000267218 0)
(1.95526 0.000892565 0)
(1.88105 0.00818896 0)
(0.962508 0.0163621 0)
(57.7451 0.000215076 0)
(57.346 0.000159327 0)
(56.8683 0.000149237 0)
(56.4209 0.00014845 0)
(55.9989 0.000147899 0)
(55.5802 0.00014765 0)
(55.1577 0.0001476 0)
(54.7329 0.000147595 0)
(54.3077 0.000147583 0)
(53.8825 0.000147548 0)
(53.4572 0.000147565 0)
(53.0317 0.000147565 0)
(52.6058 0.000147451 0)
(52.1798 0.000147422 0)
(51.7537 0.000147367 0)
(51.3275 0.00014731 0)
(50.9012 0.000147256 0)
(50.4748 0.000147209 0)
(50.0485 0.000147171 0)
(49.6222 0.000147145 0)
(49.196 0.00014713 0)
(48.77 0.000147127 0)
(48.344 0.000147137 0)
(47.9183 0.000147158 0)
(47.4928 0.000147189 0)
(47.0676 0.000147232 0)
(46.6427 0.000147283 0)
(46.2182 0.000147345 0)
(45.794 0.000147413 0)
(45.3703 0.000147489 0)
(44.9471 0.000147573 0)
(44.5244 0.000147662 0)
(44.1023 0.000147759 0)
(43.6807 0.00014786 0)
(43.2598 0.000147967 0)
(42.8397 0.000148078 0)
(42.4202 0.000148194 0)
(42.0015 0.000148312 0)
(41.5836 0.000148436 0)
(41.1666 0.000148562 0)
(40.7506 0.000148691 0)
(40.3354 0.000148824 0)
(39.9213 0.000148958 0)
(39.5082 0.000149097 0)
(39.0961 0.000149234 0)
(38.6852 0.000149377 0)
(38.2755 0.000149522 0)
(37.867 0.000149667 0)
(37.4597 0.000149817 0)
(37.0537 0.000149966 0)
(36.6491 0.000150116 0)
(36.2458 0.000150265 0)
(35.844 0.000150412 0)
(35.4437 0.000150562 0)
(35.0448 0.000150714 0)
(34.6475 0.000150871 0)
(34.2518 0.000151035 0)
(33.8577 0.000151205 0)
(33.4653 0.000151365 0)
(33.0746 0.000151512 0)
(32.6856 0.000151652 0)
(32.2984 0.0001518 0)
(31.9131 0.000151951 0)
(31.5296 0.000152107 0)
(31.148 0.000152261 0)
(30.7684 0.000152412 0)
(30.3907 0.000152562 0)
(30.015 0.000152705 0)
(29.6414 0.000152852 0)
(29.2698 0.000153013 0)
(28.9003 0.000153182 0)
(28.533 0.000153369 0)
(28.1678 0.000153552 0)
(27.8049 0.000153731 0)
(27.4441 0.000153892 0)
(27.0857 0.00015405 0)
(26.7295 0.000154196 0)
(26.3756 0.000154335 0)
(26.0241 0.000154479 0)
(25.675 0.000154621 0)
(25.3282 0.000154766 0)
(24.9838 0.000154917 0)
(24.6419 0.000155067 0)
(24.3025 0.000155211 0)
(23.9656 0.000155343 0)
(23.6311 0.000155458 0)
(23.2992 0.000155567 0)
(22.9699 0.000155686 0)
(22.6431 0.000155814 0)
(22.3189 0.000155939 0)
(21.9973 0.000156061 0)
(21.6783 0.000156188 0)
(21.3619 0.000156314 0)
(21.0483 0.000156415 0)
(20.7372 0.000156464 0)
(20.4289 0.00015645 0)
(20.1232 0.000156378 0)
(19.8203 0.000156245 0)
(19.5201 0.000156035 0)
(19.2226 0.000155719 0)
(18.9278 0.000155272 0)
(18.6358 0.000154681 0)
(18.3465 0.000153939 0)
(18.06 0.000153042 0)
(17.7763 0.000151971 0)
(17.4953 0.000150697 0)
(17.2171 0.000149183 0)
(16.9417 0.000147389 0)
(16.6691 0.000145282 0)
(16.3992 0.000142835 0)
(16.1322 0.000140028 0)
(15.8679 0.00013685 0)
(15.6065 0.000133298 0)
(15.3478 0.000129376 0)
(15.0919 0.000125098 0)
(14.8388 0.000120477 0)
(14.5885 0.000115537 0)
(14.341 0.000110303 0)
(14.0963 0.000104807 0)
(13.8543 9.90905e-05 0)
(13.6151 9.31986e-05 0)
(13.3787 8.71814e-05 0)
(13.1451 8.10908e-05 0)
(12.9142 7.49793e-05 0)
(12.686 6.88998e-05 0)
(12.4606 6.29032e-05 0)
(12.2379 5.70387e-05 0)
(12.0179 5.13502e-05 0)
(11.8007 4.58783e-05 0)
(11.5861 4.06573e-05 0)
(11.3742 3.57157e-05 0)
(11.165 3.10754e-05 0)
(10.9585 2.67522e-05 0)
(10.7547 2.27554e-05 0)
(10.5535 1.90881e-05 0)
(10.3549 1.57471e-05 0)
(10.1589 1.27239e-05 0)
(9.96558 1.00116e-05 0)
(9.77483 7.60528e-06 0)
(9.58665 5.49494e-06 0)
(9.40105 3.66414e-06 0)
(9.218 2.09088e-06 0)
(9.03748 7.8698e-07 0)
(8.85948 -1.57476e-07 0)
(8.684 -1.13675e-06 0)
(8.511 -1.96818e-06 0)
(8.34047 -2.69151e-06 0)
(8.17241 -3.30963e-06 0)
(8.00678 -3.83498e-06 0)
(7.84358 -4.28105e-06 0)
(7.68278 -4.66126e-06 0)
(7.52437 -4.98643e-06 0)
(7.36833 -5.26623e-06 0)
(7.21464 -5.50855e-06 0)
(7.06329 -5.72092e-06 0)
(6.91426 -5.91004e-06 0)
(6.76753 -6.0807e-06 0)
(6.62308 -6.2374e-06 0)
(6.48089 -6.38274e-06 0)
(6.34094 -6.51891e-06 0)
(6.20322 -6.64845e-06 0)
(6.06771 -6.77216e-06 0)
(5.93439 -6.89213e-06 0)
(5.80324 -7.00868e-06 0)
(5.67423 -7.12306e-06 0)
(5.54735 -7.2357e-06 0)
(5.42258 -7.34803e-06 0)
(5.29989 -7.45811e-06 0)
(5.17927 -7.56859e-06 0)
(5.06069 -7.67481e-06 0)
(4.94414 -7.7849e-06 0)
(4.82959 -7.88853e-06 0)
(4.71703 -7.99713e-06 0)
(4.60643 -8.10693e-06 0)
(4.49778 -8.19184e-06 0)
(4.39106 -8.35571e-06 0)
(4.28626 -8.33417e-06 0)
(4.18334 -8.69237e-06 0)
(4.08232 -8.36183e-06 0)
(3.98312 -9.155e-06 0)
(3.88581 -8.26479e-06 0)
(3.79026 -9.69513e-06 0)
(3.6966 -8.13297e-06 0)
(3.60463 -1.03063e-05 0)
(3.51454 -7.90628e-06 0)
(3.42608 -1.10339e-05 0)
(3.33951 -7.38809e-06 0)
(3.25448 -1.20867e-05 0)
(3.17134 -6.80602e-06 0)
(3.08967 -1.2584e-05 0)
(3.00986 -6.75867e-06 0)
(2.93143 -1.18792e-05 0)
(2.8548 -4.37084e-06 0)
(2.77943 8.09834e-07 0)
(2.70551 4.5677e-05 0)
(2.63163 0.000221876 0)
(2.55509 0.00096877 0)
(2.44975 0.00354837 0)
(2.35705 0.022626 0)
(1.53324 0.0308707 0)
(57.7451 0.00015758 0)
(57.346 0.000111508 0)
(56.8683 0.000107248 0)
(56.4209 0.000110886 0)
(55.9989 0.00011265 0)
(55.5802 0.000113909 0)
(55.1577 0.000115028 0)
(54.7329 0.000115961 0)
(54.3077 0.000116721 0)
(53.8825 0.000117337 0)
(53.4572 0.000117899 0)
(53.0317 0.000118367 0)
(52.6058 0.000118677 0)
(52.1798 0.000119005 0)
(51.7537 0.000119263 0)
(51.3275 0.00011948 0)
(50.9012 0.000119666 0)
(50.4749 0.00011983 0)
(50.0486 0.000119976 0)
(49.6223 0.000120109 0)
(49.1961 0.000120233 0)
(48.77 0.000120351 0)
(48.3441 0.000120463 0)
(47.9184 0.000120572 0)
(47.4929 0.000120679 0)
(47.0677 0.000120784 0)
(46.6428 0.000120888 0)
(46.2183 0.000120991 0)
(45.7942 0.000121094 0)
(45.3705 0.000121197 0)
(44.9472 0.0001213 0)
(44.5245 0.000121402 0)
(44.1024 0.000121506 0)
(43.6809 0.000121609 0)
(43.26 0.000121714 0)
(42.8398 0.000121819 0)
(42.4204 0.000121924 0)
(42.0017 0.000122029 0)
(41.5839 0.000122137 0)
(41.1669 0.000122243 0)
(40.7508 0.00012235 0)
(40.3357 0.000122459 0)
(39.9215 0.000122566 0)
(39.5084 0.000122677 0)
(39.0964 0.000122785 0)
(38.6855 0.000122896 0)
(38.2758 0.000123008 0)
(37.8673 0.000123118 0)
(37.46 0.000123232 0)
(37.0541 0.000123344 0)
(36.6495 0.000123456 0)
(36.2462 0.000123567 0)
(35.8444 0.000123677 0)
(35.4441 0.000123788 0)
(35.0452 0.000123899 0)
(34.648 0.000124014 0)
(34.2523 0.000124134 0)
(33.8582 0.000124258 0)
(33.4658 0.000124374 0)
(33.0751 0.000124481 0)
(32.6862 0.000124583 0)
(32.299 0.00012469 0)
(31.9137 0.0001248 0)
(31.5302 0.000124912 0)
(31.1486 0.000125023 0)
(30.769 0.00012513 0)
(30.3913 0.000125237 0)
(30.0157 0.00012534 0)
(29.6421 0.000125445 0)
(29.2705 0.000125563 0)
(28.9011 0.000125685 0)
(28.5338 0.00012582 0)
(28.1686 0.000125952 0)
(27.8057 0.00012608 0)
(27.445 0.000126195 0)
(27.0865 0.000126309 0)
(26.7304 0.000126414 0)
(26.3765 0.000126513 0)
(26.025 0.000126615 0)
(25.6759 0.000126716 0)
(25.3292 0.000126819 0)
(24.9848 0.000126927 0)
(24.643 0.000127034 0)
(24.3036 0.000127137 0)
(23.9666 0.00012723 0)
(23.6322 0.000127311 0)
(23.3003 0.000127387 0)
(22.971 0.00012747 0)
(22.6442 0.000127559 0)
(22.3201 0.000127646 0)
(21.9985 0.000127729 0)
(21.6796 0.000127814 0)
(21.3632 0.000127896 0)
(21.0496 0.000127955 0)
(20.7386 0.000127971 0)
(20.4303 0.000127937 0)
(20.1247 0.000127853 0)
(19.8217 0.000127717 0)
(19.5215 0.000127514 0)
(19.2241 0.00012722 0)
(18.9293 0.000126815 0)
(18.6373 0.000126288 0)
(18.3481 0.000125632 0)
(18.0616 0.000124841 0)
(17.7779 0.000123899 0)
(17.4969 0.000122781 0)
(17.2187 0.000121456 0)
(16.9434 0.000119893 0)
(16.6707 0.000118066 0)
(16.4009 0.000115954 0)
(16.1339 0.000113541 0)
(15.8696 0.000110819 0)
(15.6082 0.000107786 0)
(15.3495 0.000104449 0)
(15.0936 0.000100818 0)
(14.8405 9.69071e-05 0)
(14.5902 9.27368e-05 0)
(14.3426 8.83305e-05 0)
(14.0979 8.37173e-05 0)
(13.8559 7.8932e-05 0)
(13.6167 7.40139e-05 0)
(13.3802 6.90054e-05 0)
(13.1465 6.39504e-05 0)
(12.9156 5.88935e-05 0)
(12.6874 5.38797e-05 0)
(12.4619 4.89523e-05 0)
(12.2392 4.41525e-05 0)
(12.0191 3.95176e-05 0)
(11.8018 3.50813e-05 0)
(11.5872 3.08721e-05 0)
(11.3753 2.69127e-05 0)
(11.1661 2.32202e-05 0)
(10.9595 1.98055e-05 0)
(10.7557 1.66736e-05 0)
(10.5544 1.3824e-05 0)
(10.3558 1.12503e-05 0)
(10.1598 8.94155e-06 0)
(9.96645 6.88989e-06 0)
(9.77567 5.09107e-06 0)
(9.58748 3.53874e-06 0)
(9.40186 2.22646e-06 0)
(9.21879 1.12432e-06 0)
(9.03826 1.52982e-07 0)
(8.86025 -7.59107e-07 0)
(8.68475 -1.5172e-06 0)
(8.51175 -2.19336e-06 0)
(8.34122 -2.75561e-06 0)
(8.17314 -3.22676e-06 0)
(8.00751 -3.62313e-06 0)
(7.84431 -3.95797e-06 0)
(7.68351 -4.24262e-06 0)
(7.52509 -4.48597e-06 0)
(7.36905 -4.69547e-06 0)
(7.21537 -4.87728e-06 0)
(7.06402 -5.03689e-06 0)
(6.91498 -5.1796e-06 0)
(6.76825 -5.30879e-06 0)
(6.62379 -5.42771e-06 0)
(6.4816 -5.53837e-06 0)
(6.34166 -5.64239e-06 0)
(6.20394 -5.74176e-06 0)
(6.06843 -5.8367e-06 0)
(5.93511 -5.92913e-06 0)
(5.80395 -6.01908e-06 0)
(5.67495 -6.10725e-06 0)
(5.54807 -6.19488e-06 0)
(5.4233 -6.28028e-06 0)
(5.30061 -6.36824e-06 0)
(5.17999 -6.44826e-06 0)
(5.06141 -6.54105e-06 0)
(4.94486 -6.60712e-06 0)
(4.83031 -6.72283e-06 0)
(4.71774 -6.74608e-06 0)
(4.60714 -6.93789e-06 0)
(4.4985 -6.836e-06 0)
(4.39178 -7.23836e-06 0)
(4.28698 -6.79013e-06 0)
(4.18405 -7.70177e-06 0)
(4.08303 -6.52727e-06 0)
(3.98384 -8.36204e-06 0)
(3.88653 -6.11571e-06 0)
(3.79098 -9.18569e-06 0)
(3.69731 -5.53516e-06 0)
(3.60534 -1.03861e-05 0)
(3.51526 -4.28155e-06 0)
(3.4268 -1.22741e-05 0)
(3.34022 -2.1422e-06 0)
(3.25519 -1.48248e-05 0)
(3.17206 -4.76281e-07 0)
(3.09038 -1.51658e-05 0)
(3.01057 -1.03329e-06 0)
(2.93214 -1.32299e-05 0)
(2.85552 2.33001e-06 0)
(2.78015 1.1546e-05 0)
(2.70628 0.000100523 0)
(2.63261 0.000436026 0)
(2.55704 0.00188519 0)
(2.45602 0.00720915 0)
(2.38352 0.0507547 0)
(1.62576 0.0873056 0)
(57.7451 0.000114935 0)
(57.3459 0.000101205 0)
(56.8682 9.97006e-05 0)
(56.4209 0.000104331 0)
(55.9988 0.000107187 0)
(55.5801 0.000109219 0)
(55.1576 0.000110982 0)
(54.7329 0.00011247 0)
(54.3077 0.000113698 0)
(53.8825 0.000114709 0)
(53.4572 0.00011558 0)
(53.0316 0.000116305 0)
(52.6058 0.000116859 0)
(52.1798 0.00011736 0)
(51.7537 0.00011777 0)
(51.3275 0.000118115 0)
(50.9012 0.000118407 0)
(50.4748 0.00011866 0)
(50.0485 0.000118881 0)
(49.6223 0.000119077 0)
(49.1961 0.000119253 0)
(48.77 0.000119415 0)
(48.3441 0.000119565 0)
(47.9184 0.000119705 0)
(47.4929 0.000119837 0)
(47.0677 0.000119963 0)
(46.6428 0.000120084 0)
(46.2183 0.000120202 0)
(45.7941 0.000120316 0)
(45.3704 0.000120427 0)
(44.9472 0.000120537 0)
(44.5245 0.000120644 0)
(44.1024 0.00012075 0)
(43.6809 0.000120856 0)
(43.26 0.000120961 0)
(42.8398 0.000121065 0)
(42.4203 0.000121169 0)
(42.0017 0.000121272 0)
(41.5838 0.000121376 0)
(41.1668 0.000121479 0)
(40.7508 0.000121582 0)
(40.3356 0.000121686 0)
(39.9215 0.00012179 0)
(39.5084 0.000121895 0)
(39.0964 0.000121999 0)
(38.6855 0.000122105 0)
(38.2758 0.000122211 0)
(37.8673 0.000122317 0)
(37.46 0.000122425 0)
(37.054 0.000122532 0)
(36.6494 0.00012264 0)
(36.2462 0.000122747 0)
(35.8444 0.000122853 0)
(35.444 0.00012296 0)
(35.0452 0.000123068 0)
(34.6479 0.000123178 0)
(34.2522 0.000123292 0)
(33.8582 0.000123409 0)
(33.4658 0.000123522 0)
(33.0751 0.000123629 0)
(32.6861 0.000123733 0)
(32.299 0.00012384 0)
(31.9136 0.000123948 0)
(31.5302 0.000124059 0)
(31.1486 0.000124168 0)
(30.769 0.000124276 0)
(30.3913 0.000124383 0)
(30.0156 0.000124489 0)
(29.642 0.000124597 0)
(29.2705 0.000124715 0)
(28.901 0.000124838 0)
(28.5337 0.00012497 0)
(28.1686 0.000125101 0)
(27.8056 0.000125229 0)
(27.4449 0.000125349 0)
(27.0865 0.000125467 0)
(26.7303 0.000125578 0)
(26.3765 0.000125685 0)
(26.025 0.000125794 0)
(25.6759 0.000125902 0)
(25.3291 0.000126012 0)
(24.9848 0.000126125 0)
(24.6429 0.000126239 0)
(24.3035 0.00012635 0)
(23.9666 0.000126454 0)
(23.6322 0.000126549 0)
(23.3003 0.00012664 0)
(22.971 0.000126735 0)
(22.6442 0.000126835 0)
(22.32 0.000126934 0)
(21.9985 0.000127032 0)
(21.6795 0.000127129 0)
(21.3632 0.000127223 0)
(21.0495 0.000127299 0)
(20.7386 0.000127341 0)
(20.4302 0.000127342 0)
(20.1246 0.000127302 0)
(19.8217 0.000127215 0)
(19.5215 0.000127071 0)
(19.224 0.000126849 0)
(18.9293 0.000126533 0)
(18.6373 0.000126111 0)
(18.348 0.000125576 0)
(18.0616 0.000124921 0)
(17.7778 0.000124129 0)
(17.4969 0.00012318 0)
(17.2187 0.000122045 0)
(16.9433 0.000120696 0)
(16.6707 0.000119108 0)
(16.4009 0.00011726 0)
(16.1338 0.000115134 0)
(15.8696 0.000112721 0)
(15.6081 0.000110015 0)
(15.3495 0.000107016 0)
(15.0936 0.000103732 0)
(14.8405 0.000100171 0)
(14.5902 9.63481e-05 0)
(14.3426 9.22825e-05 0)
(14.0979 8.79979e-05 0)
(13.8559 8.3524e-05 0)
(13.6167 7.88949e-05 0)
(13.3802 7.41489e-05 0)
(13.1465 6.93264e-05 0)
(12.9155 6.44695e-05 0)
(12.6873 5.96212e-05 0)
(12.4619 5.48237e-05 0)
(12.2391 5.0118e-05 0)
(12.0191 4.5542e-05 0)
(11.8018 4.11304e-05 0)
(11.5872 3.69137e-05 0)
(11.3753 3.29168e-05 0)
(11.1661 2.91597e-05 0)
(10.9595 2.56571e-05 0)
(10.7556 2.24176e-05 0)
(10.5544 1.94455e-05 0)
(10.3558 1.67399e-05 0)
(10.1598 1.42962e-05 0)
(9.96644 1.21055e-05 0)
(9.77567 1.01553e-05 0)
(9.58748 8.42889e-06 0)
(9.40185 6.91055e-06 0)
(9.21879 5.56313e-06 0)
(9.03826 4.27194e-06 0)
(8.86025 2.92886e-06 0)
(8.68475 2.06409e-06 0)
(8.51175 1.39136e-06 0)
(8.34122 8.25137e-07 0)
(8.17314 3.46204e-07 0)
(8.00751 -5.9025e-08 0)
(7.84431 -4.02639e-07 0)
(7.68351 -6.94293e-07 0)
(7.52509 -9.43101e-07 0)
(7.36905 -1.15569e-06 0)
(7.21537 -1.33859e-06 0)
(7.06402 -1.49716e-06 0)
(6.91498 -1.63719e-06 0)
(6.76825 -1.76222e-06 0)
(6.62379 -1.87491e-06 0)
(6.4816 -1.97889e-06 0)
(6.34166 -2.07467e-06 0)
(6.20394 -2.16585e-06 0)
(6.06843 -2.2515e-06 0)
(5.93511 -2.33453e-06 0)
(5.80395 -2.41482e-06 0)
(5.67495 -2.49342e-06 0)
(5.54807 -2.56946e-06 0)
(5.4233 -2.64749e-06 0)
(5.30061 -2.72013e-06 0)
(5.17999 -2.80007e-06 0)
(5.06141 -2.86607e-06 0)
(4.94486 -2.94837e-06 0)
(4.83031 -3.01355e-06 0)
(4.71774 -3.07441e-06 0)
(4.60714 -3.19855e-06 0)
(4.4985 -3.07169e-06 0)
(4.39178 -3.57811e-06 0)
(4.28698 -2.78204e-06 0)
(4.18406 -4.46486e-06 0)
(4.08303 -1.97162e-06 0)
(3.98384 -5.98812e-06 0)
(3.88653 -5.71732e-07 0)
(3.79098 -7.69791e-06 0)
(3.69731 6.06581e-07 0)
(3.60534 -9.16867e-06 0)
(3.51526 1.84286e-06 0)
(3.4268 -1.07333e-05 0)
(3.34022 3.98928e-06 0)
(3.25519 -1.35736e-05 0)
(3.17206 6.62472e-06 0)
(3.09038 -1.59653e-05 0)
(3.01057 8.76081e-06 0)
(2.93214 -1.34348e-05 0)
(2.85552 2.15704e-05 0)
(2.78016 4.53824e-05 0)
(2.70633 0.000269918 0)
(2.63283 0.0011032 0)
(2.55788 0.00450815 0)
(2.46312 0.0146945 0)
(2.39967 0.0666746 0)
(1.97033 0.0704398 0)
(57.7451 3.44771e-05 0)
(57.3459 2.71384e-05 0)
(56.8682 1.94901e-05 0)
(56.4209 1.63561e-05 0)
(55.9988 1.39293e-05 0)
(55.5801 1.18819e-05 0)
(55.1576 1.02801e-05 0)
(54.7328 8.99303e-06 0)
(54.3076 7.92849e-06 0)
(53.8825 7.03777e-06 0)
(53.4572 6.29688e-06 0)
(53.0316 5.6703e-06 0)
(52.6058 5.12485e-06 0)
(52.1798 4.66864e-06 0)
(51.7536 4.27529e-06 0)
(51.3274 3.9361e-06 0)
(50.9011 3.64265e-06 0)
(50.4748 3.38863e-06 0)
(50.0485 3.16797e-06 0)
(49.6222 2.97594e-06 0)
(49.196 2.80891e-06 0)
(48.77 2.66344e-06 0)
(48.3441 2.53659e-06 0)
(47.9183 2.42614e-06 0)
(47.4929 2.32998e-06 0)
(47.0677 2.24649e-06 0)
(46.6428 2.17446e-06 0)
(46.2182 2.11226e-06 0)
(45.7941 2.05898e-06 0)
(45.3704 2.01359e-06 0)
(44.9472 1.97525e-06 0)
(44.5245 1.94285e-06 0)
(44.1024 1.91605e-06 0)
(43.6808 1.89438e-06 0)
(43.26 1.87723e-06 0)
(42.8398 1.86388e-06 0)
(42.4203 1.85419e-06 0)
(42.0016 1.84733e-06 0)
(41.5838 1.8436e-06 0)
(41.1668 1.84224e-06 0)
(40.7507 1.84312e-06 0)
(40.3356 1.84619e-06 0)
(39.9215 1.85083e-06 0)
(39.5084 1.85759e-06 0)
(39.0964 1.86492e-06 0)
(38.6855 1.87408e-06 0)
(38.2757 1.88439e-06 0)
(37.8672 1.89542e-06 0)
(37.46 1.90775e-06 0)
(37.054 1.92038e-06 0)
(36.6494 1.93369e-06 0)
(36.2462 1.9475e-06 0)
(35.8444 1.96163e-06 0)
(35.444 1.97603e-06 0)
(35.0452 1.99086e-06 0)
(34.6479 2.00634e-06 0)
(34.2522 2.02297e-06 0)
(33.8581 2.0406e-06 0)
(33.4657 2.05732e-06 0)
(33.075 2.07242e-06 0)
(32.6861 2.08659e-06 0)
(32.2989 2.1018e-06 0)
(31.9136 2.11742e-06 0)
(31.5301 2.13278e-06 0)
(31.1486 2.14736e-06 0)
(30.7689 2.16071e-06 0)
(30.3913 2.17377e-06 0)
(30.0156 2.18639e-06 0)
(29.642 2.19987e-06 0)
(29.2704 2.21593e-06 0)
(28.901 2.23289e-06 0)
(28.5337 2.25133e-06 0)
(28.1686 2.26907e-06 0)
(27.8056 2.2855e-06 0)
(27.4449 2.29906e-06 0)
(27.0865 2.31207e-06 0)
(26.7303 2.32311e-06 0)
(26.3765 2.33257e-06 0)
(26.025 2.34215e-06 0)
(25.6758 2.35148e-06 0)
(25.3291 2.3612e-06 0)
(24.9848 2.37171e-06 0)
(24.6429 2.38206e-06 0)
(24.3035 2.39153e-06 0)
(23.9666 2.39885e-06 0)
(23.6322 2.40319e-06 0)
(23.3003 2.40637e-06 0)
(22.971 2.41108e-06 0)
(22.6442 2.4175e-06 0)
(22.32 2.42405e-06 0)
(21.9984 2.43052e-06 0)
(21.6795 2.4379e-06 0)
(21.3632 2.44522e-06 0)
(21.0495 2.44881e-06 0)
(20.7385 2.44561e-06 0)
(20.4302 2.43517e-06 0)
(20.1246 2.4187e-06 0)
(19.8217 2.39646e-06 0)
(19.5215 2.36641e-06 0)
(19.224 2.32519e-06 0)
(18.9293 2.27056e-06 0)
(18.6373 2.20263e-06 0)
(18.348 2.12305e-06 0)
(18.0615 2.03328e-06 0)
(17.7778 1.93299e-06 0)
(17.4969 1.81981e-06 0)
(17.2187 1.69038e-06 0)
(16.9433 1.54164e-06 0)
(16.6707 1.37157e-06 0)
(16.4009 1.17944e-06 0)
(16.1338 9.65505e-07 0)
(15.8696 7.31124e-07 0)
(15.6081 4.7848e-07 0)
(15.3494 2.10623e-07 0)
(15.0936 -6.90086e-08 0)
(14.8405 -3.56842e-07 0)
(14.5901 -6.49541e-07 0)
(14.3426 -9.43724e-07 0)
(14.0978 -1.23606e-06 0)
(13.8559 -1.52279e-06 0)
(13.6166 -1.80047e-06 0)
(13.3802 -2.0654e-06 0)
(13.1465 -2.31493e-06 0)
(12.9155 -2.54615e-06 0)
(12.6873 -2.75739e-06 0)
(12.4619 -2.9468e-06 0)
(12.2391 -3.11394e-06 0)
(12.0191 -3.25808e-06 0)
(11.8018 -3.38023e-06 0)
(11.5872 -3.48041e-06 0)
(11.3753 -3.56057e-06 0)
(11.1661 -3.6222e-06 0)
(10.9595 -3.66671e-06 0)
(10.7556 -3.69689e-06 0)
(10.5544 -3.71437e-06 0)
(10.3558 -3.72082e-06 0)
(10.1598 -3.71912e-06 0)
(9.96644 -3.71071e-06 0)
(9.77567 -3.69693e-06 0)
(9.58747 -3.67976e-06 0)
(9.40185 -3.66005e-06 0)
(9.21878 -3.63635e-06 0)
(9.03826 -3.58474e-06 0)
(8.86025 -3.24716e-06 0)
(8.68475 -3.17715e-06 0)
(8.51175 -3.16664e-06 0)
(8.34122 -3.17388e-06 0)
(8.17314 -3.18581e-06 0)
(8.00751 -3.19813e-06 0)
(7.84431 -3.21053e-06 0)
(7.68351 -3.22278e-06 0)
(7.52509 -3.23568e-06 0)
(7.36905 -3.24782e-06 0)
(7.21537 -3.26047e-06 0)
(7.06402 -3.27297e-06 0)
(6.91498 -3.287e-06 0)
(6.76825 -3.30073e-06 0)
(6.62379 -3.31486e-06 0)
(6.4816 -3.32948e-06 0)
(6.34166 -3.34427e-06 0)
(6.20394 -3.3596e-06 0)
(6.06843 -3.37477e-06 0)
(5.93511 -3.38953e-06 0)
(5.80395 -3.40618e-06 0)
(5.67495 -3.41989e-06 0)
(5.54807 -3.43902e-06 0)
(5.4233 -3.44613e-06 0)
(5.30061 -3.47804e-06 0)
(5.17999 -3.45885e-06 0)
(5.06141 -3.54292e-06 0)
(4.94486 -3.42307e-06 0)
(4.83031 -3.694e-06 0)
(4.71774 -3.23159e-06 0)
(4.60714 -4.09761e-06 0)
(4.4985 -2.61698e-06 0)
(4.39178 -5.09326e-06 0)
(4.28698 -1.17389e-06 0)
(4.18405 -7.10798e-06 0)
(4.08303 1.39066e-06 0)
(3.98384 -1.0242e-05 0)
(3.88653 5.00072e-06 0)
(3.79098 -1.44924e-05 0)
(3.69731 1.0224e-05 0)
(3.60534 -2.23463e-05 0)
(3.51526 2.1314e-05 0)
(3.4268 -3.62174e-05 0)
(3.34022 3.85467e-05 0)
(3.25519 -5.41732e-05 0)
(3.17206 5.09604e-05 0)
(3.09038 -5.50044e-05 0)
(3.01057 4.6563e-05 0)
(2.93215 -4.12965e-05 0)
(2.85553 5.51816e-05 0)
(2.78022 6.63824e-05 0)
(2.70659 0.000460575 0)
(2.63383 0.00182411 0)
(2.56084 0.00784458 0)
(2.47138 0.0303996 0)
(2.39204 0.156971 0)
(1.78669 0.258141 0)
(57.7451 -3.44771e-05 0)
(57.3459 -2.71384e-05 0)
(56.8682 -1.94901e-05 0)
(56.4209 -1.63561e-05 0)
(55.9988 -1.39293e-05 0)
(55.5801 -1.18819e-05 0)
(55.1576 -1.02801e-05 0)
(54.7328 -8.99303e-06 0)
(54.3076 -7.92849e-06 0)
(53.8825 -7.03777e-06 0)
(53.4572 -6.29688e-06 0)
(53.0316 -5.6703e-06 0)
(52.6058 -5.12485e-06 0)
(52.1798 -4.66864e-06 0)
(51.7536 -4.27529e-06 0)
(51.3274 -3.93611e-06 0)
(50.9011 -3.64265e-06 0)
(50.4748 -3.38863e-06 0)
(50.0485 -3.16797e-06 0)
(49.6222 -2.97594e-06 0)
(49.196 -2.80891e-06 0)
(48.77 -2.66344e-06 0)
(48.3441 -2.5366e-06 0)
(47.9183 -2.42614e-06 0)
(47.4929 -2.32998e-06 0)
(47.0677 -2.24649e-06 0)
(46.6428 -2.17446e-06 0)
(46.2182 -2.11226e-06 0)
(45.7941 -2.05898e-06 0)
(45.3704 -2.01359e-06 0)
(44.9472 -1.97524e-06 0)
(44.5245 -1.94285e-06 0)
(44.1024 -1.91605e-06 0)
(43.6808 -1.89438e-06 0)
(43.26 -1.87723e-06 0)
(42.8398 -1.86388e-06 0)
(42.4203 -1.85419e-06 0)
(42.0016 -1.84733e-06 0)
(41.5838 -1.8436e-06 0)
(41.1668 -1.84224e-06 0)
(40.7507 -1.84312e-06 0)
(40.3356 -1.84619e-06 0)
(39.9215 -1.85083e-06 0)
(39.5084 -1.85759e-06 0)
(39.0964 -1.86492e-06 0)
(38.6855 -1.87408e-06 0)
(38.2757 -1.88439e-06 0)
(37.8672 -1.89542e-06 0)
(37.46 -1.90775e-06 0)
(37.054 -1.92038e-06 0)
(36.6494 -1.93369e-06 0)
(36.2462 -1.9475e-06 0)
(35.8444 -1.96163e-06 0)
(35.444 -1.97603e-06 0)
(35.0452 -1.99086e-06 0)
(34.6479 -2.00634e-06 0)
(34.2522 -2.02297e-06 0)
(33.8581 -2.0406e-06 0)
(33.4657 -2.05732e-06 0)
(33.075 -2.07242e-06 0)
(32.6861 -2.08659e-06 0)
(32.2989 -2.1018e-06 0)
(31.9136 -2.11742e-06 0)
(31.5301 -2.13278e-06 0)
(31.1486 -2.14736e-06 0)
(30.7689 -2.1607e-06 0)
(30.3913 -2.17377e-06 0)
(30.0156 -2.18639e-06 0)
(29.642 -2.19987e-06 0)
(29.2704 -2.21593e-06 0)
(28.901 -2.23289e-06 0)
(28.5337 -2.25133e-06 0)
(28.1686 -2.26907e-06 0)
(27.8056 -2.2855e-06 0)
(27.4449 -2.29906e-06 0)
(27.0865 -2.31207e-06 0)
(26.7303 -2.32311e-06 0)
(26.3765 -2.33257e-06 0)
(26.025 -2.34215e-06 0)
(25.6758 -2.35149e-06 0)
(25.3291 -2.3612e-06 0)
(24.9848 -2.3717e-06 0)
(24.6429 -2.38206e-06 0)
(24.3035 -2.39153e-06 0)
(23.9666 -2.39885e-06 0)
(23.6322 -2.40319e-06 0)
(23.3003 -2.40637e-06 0)
(22.971 -2.41108e-06 0)
(22.6442 -2.4175e-06 0)
(22.32 -2.42406e-06 0)
(21.9984 -2.43051e-06 0)
(21.6795 -2.43791e-06 0)
(21.3632 -2.44522e-06 0)
(21.0495 -2.44882e-06 0)
(20.7385 -2.44561e-06 0)
(20.4302 -2.43517e-06 0)
(20.1246 -2.4187e-06 0)
(19.8217 -2.39646e-06 0)
(19.5215 -2.36641e-06 0)
(19.224 -2.32518e-06 0)
(18.9293 -2.27056e-06 0)
(18.6373 -2.20262e-06 0)
(18.348 -2.12305e-06 0)
(18.0615 -2.03328e-06 0)
(17.7778 -1.93298e-06 0)
(17.4969 -1.81982e-06 0)
(17.2187 -1.69037e-06 0)
(16.9433 -1.54164e-06 0)
(16.6707 -1.37157e-06 0)
(16.4009 -1.17944e-06 0)
(16.1338 -9.65509e-07 0)
(15.8696 -7.31117e-07 0)
(15.6081 -4.78482e-07 0)
(15.3494 -2.10614e-07 0)
(15.0936 6.90026e-08 0)
(14.8405 3.56844e-07 0)
(14.5901 6.49539e-07 0)
(14.3426 9.43732e-07 0)
(14.0978 1.23603e-06 0)
(13.8559 1.52283e-06 0)
(13.6166 1.80042e-06 0)
(13.3802 2.06547e-06 0)
(13.1465 2.31486e-06 0)
(12.9155 2.54623e-06 0)
(12.6873 2.7573e-06 0)
(12.4619 2.94691e-06 0)
(12.2391 3.11378e-06 0)
(12.0191 3.2583e-06 0)
(11.8018 3.38e-06 0)
(11.5872 3.48055e-06 0)
(11.3753 3.56064e-06 0)
(11.1661 3.62192e-06 0)
(10.9595 3.66699e-06 0)
(10.7556 3.69687e-06 0)
(10.5544 3.71408e-06 0)
(10.3558 3.72115e-06 0)
(10.1598 3.71909e-06 0)
(9.96644 3.71037e-06 0)
(9.77567 3.69721e-06 0)
(9.58747 3.67993e-06 0)
(9.40185 3.65961e-06 0)
(9.21878 3.63643e-06 0)
(9.03826 3.5851e-06 0)
(8.86025 3.24695e-06 0)
(8.68475 3.17685e-06 0)
(8.51175 3.16682e-06 0)
(8.34122 3.17418e-06 0)
(8.17314 3.18551e-06 0)
(8.00751 3.19797e-06 0)
(7.84431 3.21074e-06 0)
(7.68351 3.22314e-06 0)
(7.52509 3.23515e-06 0)
(7.36905 3.24773e-06 0)
(7.21537 3.26042e-06 0)
(7.06402 3.2738e-06 0)
(6.91498 3.28659e-06 0)
(6.76825 3.3005e-06 0)
(6.62379 3.31445e-06 0)
(6.4816 3.32986e-06 0)
(6.34166 3.34426e-06 0)
(6.20394 3.3602e-06 0)
(6.06843 3.3745e-06 0)
(5.93511 3.39062e-06 0)
(5.80395 3.40354e-06 0)
(5.67495 3.42313e-06 0)
(5.54807 3.43031e-06 0)
(5.4233 3.46381e-06 0)
(5.30061 3.44471e-06 0)
(5.17999 3.52683e-06 0)
(5.06141 3.41353e-06 0)
(4.94486 3.66638e-06 0)
(4.83031 3.24566e-06 0)
(4.71774 4.03815e-06 0)
(4.60715 2.68429e-06 0)
(4.4985 5.0231e-06 0)
(4.39178 1.13814e-06 0)
(4.28697 7.40176e-06 0)
(4.18406 -2.34044e-06 0)
(4.08303 1.20425e-05 0)
(3.98385 -8.32313e-06 0)
(3.88651 1.891e-05 0)
(3.79099 -1.59197e-05 0)
(3.69729 2.63137e-05 0)
(3.60538 -2.41261e-05 0)
(3.51521 3.64333e-05 0)
(3.42686 -3.44485e-05 0)
(3.34014 4.93455e-05 0)
(3.25529 -4.7141e-05 0)
(3.17196 6.02449e-05 0)
(3.09047 -5.5358e-05 0)
(3.0105 6.68968e-05 0)
(2.93221 -5.43284e-05 0)
(2.85551 8.80159e-05 0)
(2.78032 4.33278e-05 0)
(2.70687 0.000505323 0)
(2.63523 0.00187046 0)
(2.56698 0.00846774 0)
(2.51192 0.0344323 0)
(2.47322 0.188549 0)
(2.65472 0.290719 0)
(57.7451 -0.000114935 0)
(57.3459 -0.000101205 0)
(56.8682 -9.97006e-05 0)
(56.4209 -0.000104331 0)
(55.9988 -0.000107187 0)
(55.5801 -0.000109219 0)
(55.1576 -0.000110982 0)
(54.7329 -0.00011247 0)
(54.3077 -0.000113698 0)
(53.8825 -0.000114709 0)
(53.4572 -0.00011558 0)