/*--------------------------------*- C++ -*----------------------------------*\
| =========                 |                                                 |
| \\      /  F ield         | OpenFOAM: The Open Source CFD Toolbox           |
|  \\    /   O peration     | Version:  3.0.x                                 |
|   \\  /    A nd           | Web:      www.OpenFOAM.org                      |
|    \\/     M anipulation  |                                                 |
\*---------------------------------------------------------------------------*/
FoamFile
{
    version     2.0;
    format      ascii;
    class       volScalarField;
    location    "0.49";
    object      p;
}
// * * * * * * * * * * * * * * * * * * * * * * * * * * * * * * * * * * * * * //

dimensions      [1 -1 -2 0 0 0 0];

internalField   nonuniform List<scalar> 
13800
(
1.80358e+07
1.80358e+07
1.80358e+07
1.80358e+07
1.80359e+07
1.80359e+07
1.8036e+07
1.8036e+07
1.80361e+07
1.80362e+07
1.80363e+07
1.80363e+07
1.80364e+07
1.80366e+07
1.80367e+07
1.80368e+07
1.8037e+07
1.80371e+07
1.80373e+07
1.80375e+07
1.80377e+07
1.80379e+07
1.80381e+07
1.80383e+07
1.80386e+07
1.80388e+07
1.80391e+07
1.80394e+07
1.80397e+07
1.80401e+07
1.80404e+07
1.80408e+07
1.80412e+07
1.80416e+07
1.8042e+07
1.80425e+07
1.8043e+07
1.80434e+07
1.8044e+07
1.80445e+07
1.80451e+07
1.80457e+07
1.80463e+07
1.8047e+07
1.80476e+07
1.80483e+07
1.80491e+07
1.80498e+07
1.80506e+07
1.80514e+07
1.80523e+07
1.80532e+07
1.80541e+07
1.8055e+07
1.8056e+07
1.8057e+07
1.80581e+07
1.80592e+07
1.80603e+07
1.80614e+07
1.80626e+07
1.80639e+07
1.80651e+07
1.80664e+07
1.80678e+07
1.80691e+07
1.80705e+07
1.8072e+07
1.80735e+07
1.8075e+07
1.80766e+07
1.80782e+07
1.80799e+07
1.80816e+07
1.80833e+07
1.80851e+07
1.80869e+07
1.80888e+07
1.80907e+07
1.80927e+07
1.80947e+07
1.80967e+07
1.80988e+07
1.81009e+07
1.81031e+07
1.81053e+07
1.81076e+07
1.81099e+07
1.81123e+07
1.81147e+07
1.81172e+07
1.81197e+07
1.81222e+07
1.81248e+07
1.81275e+07
1.81302e+07
1.8133e+07
1.81358e+07
1.81386e+07
1.81415e+07
1.81445e+07
1.81475e+07
1.81506e+07
1.81537e+07
1.81569e+07
1.81601e+07
1.81634e+07
1.81667e+07
1.81701e+07
1.81735e+07
1.8177e+07
1.81805e+07
1.81841e+07
1.81878e+07
1.81915e+07
1.81953e+07
1.81991e+07
1.8203e+07
1.82069e+07
1.82109e+07
1.8215e+07
1.82191e+07
1.82232e+07
1.82275e+07
1.82317e+07
1.82361e+07
1.82405e+07
1.82449e+07
1.82495e+07
1.8254e+07
1.82587e+07
1.82634e+07
1.82681e+07
1.82729e+07
1.82778e+07
1.82827e+07
1.82877e+07
1.82928e+07
1.82979e+07
1.83031e+07
1.83083e+07
1.83136e+07
1.8319e+07
1.83244e+07
1.83299e+07
1.83354e+07
1.8341e+07
1.83467e+07
1.83524e+07
1.83582e+07
1.8364e+07
1.837e+07
1.83759e+07
1.8382e+07
1.8388e+07
1.83942e+07
1.84004e+07
1.84067e+07
1.8413e+07
1.84194e+07
1.84258e+07
1.84324e+07
1.84389e+07
1.84456e+07
1.84522e+07
1.8459e+07
1.84658e+07
1.84726e+07
1.84796e+07
1.84865e+07
1.84936e+07
1.85007e+07
1.85078e+07
1.8515e+07
1.85223e+07
1.85296e+07
1.85369e+07
1.85443e+07
1.85518e+07
1.85593e+07
1.85669e+07
1.85745e+07
1.85822e+07
1.85899e+07
1.85977e+07
1.86055e+07
1.86134e+07
1.86213e+07
1.86293e+07
1.86373e+07
1.86454e+07
1.86535e+07
1.86616e+07
1.86698e+07
1.86781e+07
1.86863e+07
1.86947e+07
1.87031e+07
1.87119e+07
1.87211e+07
1.80358e+07
1.80358e+07
1.80358e+07
1.80358e+07
1.80359e+07
1.80359e+07
1.8036e+07
1.8036e+07
1.80361e+07
1.80362e+07
1.80363e+07
1.80363e+07
1.80364e+07
1.80366e+07
1.80367e+07
1.80368e+07
1.8037e+07
1.80371e+07
1.80373e+07
1.80375e+07
1.80377e+07
1.80379e+07
1.80381e+07
1.80383e+07
1.80386e+07
1.80388e+07
1.80391e+07
1.80394e+07
1.80397e+07
1.80401e+07
1.80404e+07
1.80408e+07
1.80412e+07
1.80416e+07
1.8042e+07
1.80425e+07
1.8043e+07
1.80434e+07
1.8044e+07
1.80445e+07
1.80451e+07
1.80457e+07
1.80463e+07
1.8047e+07
1.80476e+07
1.80483e+07
1.80491e+07
1.80498e+07
1.80506e+07
1.80514e+07
1.80523e+07
1.80532e+07
1.80541e+07
1.8055e+07
1.8056e+07
1.8057e+07
1.80581e+07
1.80592e+07
1.80603e+07
1.80614e+07
1.80626e+07
1.80639e+07
1.80651e+07
1.80664e+07
1.80678e+07
1.80691e+07
1.80705e+07
1.8072e+07
1.80735e+07
1.8075e+07
1.80766e+07
1.80782e+07
1.80799e+07
1.80816e+07
1.80833e+07
1.80851e+07
1.80869e+07
1.80888e+07
1.80907e+07
1.80927e+07
1.80947e+07
1.80967e+07
1.80988e+07
1.81009e+07
1.81031e+07
1.81053e+07
1.81076e+07
1.81099e+07
1.81123e+07
1.81147e+07
1.81172e+07
1.81197e+07
1.81222e+07
1.81248e+07
1.81275e+07
1.81302e+07
1.8133e+07
1.81358e+07
1.81386e+07
1.81415e+07
1.81445e+07
1.81475e+07
1.81506e+07
1.81537e+07
1.81569e+07
1.81601e+07
1.81634e+07
1.81667e+07
1.81701e+07
1.81735e+07
1.8177e+07
1.81805e+07
1.81841e+07
1.81878e+07
1.81915e+07
1.81953e+07
1.81991e+07
1.8203e+07
1.82069e+07
1.82109e+07
1.8215e+07
1.82191e+07
1.82232e+07
1.82275e+07
1.82317e+07
1.82361e+07
1.82405e+07
1.82449e+07
1.82495e+07
1.8254e+07
1.82587e+07
1.82634e+07
1.82681e+07
1.82729e+07
1.82778e+07
1.82827e+07
1.82877e+07
1.82928e+07
1.82979e+07
1.83031e+07
1.83083e+07
1.83136e+07
1.8319e+07
1.83244e+07
1.83299e+07
1.83354e+07
1.8341e+07
1.83467e+07
1.83524e+07
1.83582e+07
1.8364e+07
1.837e+07
1.83759e+07
1.8382e+07
1.8388e+07
1.83942e+07
1.84004e+07
1.84067e+07
1.8413e+07
1.84194e+07
1.84258e+07
1.84324e+07
1.84389e+07
1.84456e+07
1.84522e+07
1.8459e+07
1.84658e+07
1.84726e+07
1.84796e+07
1.84865e+07
1.84936e+07
1.85007e+07
1.85078e+07
1.8515e+07
1.85223e+07
1.85296e+07
1.85369e+07
1.85443e+07
1.85518e+07
1.85593e+07
1.85669e+07
1.85745e+07
1.85822e+07
1.85899e+07
1.85977e+07
1.86055e+07
1.86134e+07
1.86213e+07
1.86293e+07
1.86373e+07
1.86454e+07
1.86535e+07
1.86616e+07
1.86698e+07
1.86781e+07
1.86863e+07
1.86947e+07
1.87031e+07
1.87119e+07
1.87211e+07
1.80358e+07
1.80358e+07
1.80358e+07
1.80358e+07
1.80359e+07
1.80359e+07
1.8036e+07
1.8036e+07
1.80361e+07
1.80362e+07
1.80363e+07
1.80363e+07
1.80364e+07
1.80366e+07
1.80367e+07
1.80368e+07
1.8037e+07
1.80371e+07
1.80373e+07
1.80375e+07
1.80377e+07
1.80379e+07
1.80381e+07
1.80383e+07
1.80386e+07
1.80388e+07
1.80391e+07
1.80394e+07
1.80397e+07
1.80401e+07
1.80404e+07
1.80408e+07
1.80412e+07
1.80416e+07
1.8042e+07
1.80425e+07
1.8043e+07
1.80434e+07
1.8044e+07
1.80445e+07
1.80451e+07
1.80457e+07
1.80463e+07
1.8047e+07
1.80476e+07
1.80483e+07
1.80491e+07
1.80498e+07
1.80506e+07
1.80514e+07
1.80523e+07
1.80532e+07
1.80541e+07
1.8055e+07
1.8056e+07
1.8057e+07
1.80581e+07
1.80592e+07
1.80603e+07
1.80614e+07
1.80626e+07
1.80639e+07
1.80651e+07
1.80664e+07
1.80678e+07
1.80691e+07
1.80705e+07
1.8072e+07
1.80735e+07
1.8075e+07
1.80766e+07
1.80782e+07
1.80799e+07
1.80816e+07
1.80833e+07
1.80851e+07
1.80869e+07
1.80888e+07
1.80907e+07
1.80927e+07
1.80947e+07
1.80967e+07
1.80988e+07
1.81009e+07
1.81031e+07
1.81053e+07
1.81076e+07
1.81099e+07
1.81123e+07
1.81147e+07
1.81172e+07
1.81197e+07
1.81222e+07
1.81248e+07
1.81275e+07
1.81302e+07
1.8133e+07
1.81358e+07
1.81386e+07
1.81415e+07
1.81445e+07
1.81475e+07
1.81506e+07
1.81537e+07
1.81569e+07
1.81601e+07
1.81634e+07
1.81667e+07
1.81701e+07
1.81735e+07
1.8177e+07
1.81805e+07
1.81841e+07
1.81878e+07
1.81915e+07
1.81953e+07
1.81991e+07
1.8203e+07
1.82069e+07
1.82109e+07
1.8215e+07
1.82191e+07
1.82232e+07
1.82275e+07
1.82317e+07
1.82361e+07
1.82405e+07
1.82449e+07
1.82495e+07
1.8254e+07
1.82587e+07
1.82634e+07
1.82681e+07
1.82729e+07
1.82778e+07
1.82827e+07
1.82877e+07
1.82928e+07
1.82979e+07
1.83031e+07
1.83083e+07
1.83136e+07
1.8319e+07
1.83244e+07
1.83299e+07
1.83354e+07
1.8341e+07
1.83467e+07
1.83524e+07
1.83582e+07
1.8364e+07
1.837e+07
1.83759e+07
1.8382e+07
1.8388e+07
1.83942e+07
1.84004e+07
1.84067e+07
1.8413e+07
1.84194e+07
1.84258e+07
1.84324e+07
1.84389e+07
1.84456e+07
1.84522e+07
1.8459e+07
1.84658e+07
1.84726e+07
1.84796e+07
1.84865e+07
1.84936e+07
1.85007e+07
1.85078e+07
1.8515e+07
1.85223e+07
1.85296e+07
1.85369e+07
1.85443e+07
1.85518e+07
1.85593e+07
1.85669e+07
1.85745e+07
1.85822e+07
1.85899e+07
1.85977e+07
1.86055e+07
1.86134e+07
1.86213e+07
1.86293e+07
1.86373e+07
1.86454e+07
1.86535e+07
1.86616e+07
1.86698e+07
1.86781e+07
1.86863e+07
1.86947e+07
1.87031e+07
1.87119e+07
1.87211e+07
1.80358e+07
1.80358e+07
1.80358e+07
1.80358e+07
1.80359e+07
1.80359e+07
1.8036e+07
1.8036e+07
1.80361e+07
1.80362e+07
1.80363e+07
1.80363e+07
1.80364e+07
1.80366e+07
1.80367e+07
1.80368e+07
1.8037e+07
1.80371e+07
1.80373e+07
1.80375e+07
1.80377e+07
1.80379e+07
1.80381e+07
1.80383e+07
1.80386e+07
1.80388e+07
1.80391e+07
1.80394e+07
1.80397e+07
1.80401e+07
1.80404e+07
1.80408e+07
1.80412e+07
1.80416e+07
1.8042e+07
1.80425e+07
1.8043e+07
1.80434e+07
1.8044e+07
1.80445e+07
1.80451e+07
1.80457e+07
1.80463e+07
1.8047e+07
1.80476e+07
1.80483e+07
1.80491e+07
1.80498e+07
1.80506e+07
1.80514e+07
1.80523e+07
1.80532e+07
1.80541e+07
1.8055e+07
1.8056e+07
1.8057e+07
1.80581e+07
1.80592e+07
1.80603e+07
1.80614e+07
1.80626e+07
1.80639e+07
1.80651e+07
1.80664e+07
1.80678e+07
1.80691e+07
1.80705e+07
1.8072e+07
1.80735e+07
1.8075e+07
1.80766e+07
1.80782e+07
1.80799e+07
1.80816e+07
1.80833e+07
1.80851e+07
1.80869e+07
1.80888e+07
1.80907e+07
1.80927e+07
1.80947e+07
1.80967e+07
1.80988e+07
1.81009e+07
1.81031e+07
1.81053e+07
1.81076e+07
1.81099e+07
1.81123e+07
1.81147e+07
1.81172e+07
1.81197e+07
1.81222e+07
1.81248e+07
1.81275e+07
1.81302e+07
1.8133e+07
1.81358e+07
1.81386e+07
1.81415e+07
1.81445e+07
1.81475e+07
1.81506e+07
1.81537e+07
1.81569e+07
1.81601e+07
1.81634e+07
1.81667e+07
1.81701e+07
1.81735e+07
1.8177e+07
1.81805e+07
1.81841e+07
1.81878e+07
1.81915e+07
1.81953e+07
1.81991e+07
1.8203e+07
1.82069e+07
1.82109e+07
1.8215e+07
1.82191e+07
1.82232e+07
1.82275e+07
1.82317e+07
1.82361e+07
1.82405e+07
1.82449e+07
1.82495e+07
1.8254e+07
1.82587e+07
1.82634e+07
1.82681e+07
1.82729e+07
1.82778e+07
1.82827e+07
1.82877e+07
1.82928e+07
1.82979e+07
1.83031e+07
1.83083e+07
1.83136e+07
1.8319e+07
1.83244e+07
1.83299e+07
1.83354e+07
1.8341e+07
1.83467e+07
1.83524e+07
1.83582e+07
1.8364e+07
1.837e+07
1.83759e+07
1.8382e+07
1.8388e+07
1.83942e+07
1.84004e+07
1.84067e+07
1.8413e+07
1.84194e+07
1.84258e+07
1.84324e+07
1.84389e+07
1.84456e+07
1.84522e+07
1.8459e+07
1.84658e+07
1.84726e+07
1.84796e+07
1.84865e+07
1.84936e+07
1.85007e+07
1.85078e+07
1.8515e+07
1.85223e+07
1.85296e+07
1.85369e+07
1.85443e+07
1.85518e+07
1.85593e+07
1.85669e+07
1.85745e+07
1.85822e+07
1.85899e+07
1.85977e+07
1.86055e+07
1.86134e+07
1.86213e+07
1.86293e+07
1.86373e+07
1.86454e+07
1.86535e+07
1.86616e+07
1.86698e+07
1.86781e+07
1.86863e+07
1.86947e+07
1.87031e+07
1.87118e+07
1.87209e+07
1.80358e+07
1.80358e+07
1.80358e+07
1.80358e+07
1.80359e+07
1.80359e+07
1.8036e+07
1.8036e+07
1.80361e+07
1.80362e+07
1.80363e+07
1.80363e+07
1.80364e+07
1.80366e+07
1.80367e+07
1.80368e+07
1.8037e+07
1.80371e+07
1.80373e+07
1.80375e+07
1.80377e+07
1.80379e+07
1.80381e+07
1.80383e+07
1.80386e+07
1.80388e+07
1.80391e+07
1.80394e+07
1.80397e+07
1.80401e+07
1.80404e+07
1.80408e+07
1.80412e+07
1.80416e+07
1.8042e+07
1.80425e+07
1.8043e+07
1.80434e+07
1.8044e+07
1.80445e+07
1.80451e+07
1.80457e+07
1.80463e+07
1.8047e+07
1.80476e+07
1.80483e+07
1.80491e+07
1.80498e+07
1.80506e+07
1.80514e+07
1.80523e+07
1.80532e+07
1.80541e+07
1.8055e+07
1.8056e+07
1.8057e+07
1.80581e+07
1.80592e+07
1.80603e+07
1.80614e+07
1.80626e+07
1.80639e+07
1.80651e+07
1.80664e+07
1.80678e+07
1.80691e+07
1.80705e+07
1.8072e+07
1.80735e+07
1.8075e+07
1.80766e+07
1.80782e+07
1.80799e+07
1.80816e+07
1.80833e+07
1.80851e+07
1.80869e+07
1.80888e+07
1.80907e+07
1.80927e+07
1.80947e+07
1.80967e+07
1.80988e+07
1.81009e+07
1.81031e+07
1.81053e+07
1.81076e+07
1.81099e+07
1.81123e+07
1.81147e+07
1.81172e+07
1.81197e+07
1.81222e+07
1.81248e+07
1.81275e+07
1.81302e+07
1.8133e+07
1.81358e+07
1.81386e+07
1.81415e+07
1.81445e+07
1.81475e+07
1.81506e+07
1.81537e+07
1.81569e+07
1.81601e+07
1.81634e+07
1.81667e+07
1.81701e+07
1.81735e+07
1.8177e+07
1.81805e+07
1.81841e+07
1.81878e+07
1.81915e+07
1.81953e+07
1.81991e+07
1.8203e+07
1.82069e+07
1.82109e+07
1.8215e+07
1.82191e+07
1.82232e+07
1.82275e+07
1.82317e+07
1.82361e+07
1.82405e+07
1.82449e+07
1.82495e+07
1.8254e+07
1.82587e+07
1.82634e+07
1.82681e+07
1.82729e+07
1.82778e+07
1.82827e+07
1.82877e+07
1.82928e+07
1.82979e+07
1.83031e+07
1.83083e+07
1.83136e+07
1.8319e+07
1.83244e+07
1.83299e+07
1.83354e+07
1.8341e+07
1.83467e+07
1.83524e+07
1.83582e+07
1.8364e+07
1.837e+07
1.83759e+07
1.8382e+07
1.8388e+07
1.83942e+07
1.84004e+07
1.84067e+07
1.8413e+07
1.84194e+07
1.84258e+07
1.84324e+07
1.84389e+07
1.84456e+07
1.84522e+07
1.8459e+07
1.84658e+07
1.84726e+07
1.84796e+07
1.84865e+07
1.84936e+07
1.85007e+07
1.85078e+07
1.8515e+07
1.85223e+07
1.85296e+07
1.85369e+07
1.85443e+07
1.85518e+07
1.85593e+07
1.85669e+07
1.85745e+07
1.85822e+07
1.85899e+07
1.85977e+07
1.86055e+07
1.86134e+07
1.86213e+07
1.86293e+07
1.86373e+07
1.86454e+07
1.86535e+07
1.86616e+07
1.86698e+07
1.86781e+07
1.86863e+07
1.86946e+07
1.8703e+07
1.87116e+07
1.87203e+07
1.80358e+07
1.80358e+07
1.80358e+07
1.80358e+07
1.80359e+07
1.80359e+07
1.8036e+07
1.8036e+07
1.80361e+07
1.80362e+07
1.80363e+07
1.80363e+07
1.80364e+07
1.80366e+07
1.80367e+07
1.80368e+07
1.8037e+07
1.80371e+07
1.80373e+07
1.80375e+07
1.80377e+07
1.80379e+07
1.80381e+07
1.80383e+07
1.80386e+07
1.80388e+07
1.80391e+07
1.80394e+07
1.80397e+07
1.80401e+07
1.80404e+07
1.80408e+07
1.80412e+07
1.80416e+07
1.8042e+07
1.80425e+07
1.8043e+07
1.80434e+07
1.8044e+07
1.80445e+07
1.80451e+07
1.80457e+07
1.80463e+07
1.8047e+07
1.80476e+07
1.80483e+07
1.80491e+07
1.80498e+07
1.80506e+07
1.80514e+07
1.80523e+07
1.80532e+07
1.80541e+07
1.8055e+07
1.8056e+07
1.8057e+07
1.80581e+07
1.80592e+07
1.80603e+07
1.80614e+07
1.80626e+07
1.80639e+07
1.80651e+07
1.80664e+07
1.80678e+07
1.80691e+07
1.80705e+07
1.8072e+07
1.80735e+07
1.8075e+07
1.80766e+07
1.80782e+07
1.80799e+07
1.80816e+07
1.80833e+07
1.80851e+07
1.80869e+07
1.80888e+07
1.80907e+07
1.80927e+07
1.80947e+07
1.80967e+07
1.80988e+07
1.81009e+07
1.81031e+07
1.81053e+07
1.81076e+07
1.81099e+07
1.81123e+07
1.81147e+07
1.81172e+07
1.81197e+07
1.81222e+07
1.81248e+07
1.81275e+07
1.81302e+07
1.8133e+07
1.81358e+07
1.81386e+07
1.81415e+07
1.81445e+07
1.81475e+07
1.81506e+07
1.81537e+07
1.81569e+07
1.81601e+07
1.81634e+07
1.81667e+07
1.81701e+07
1.81735e+07
1.8177e+07
1.81805e+07
1.81841e+07
1.81878e+07
1.81915e+07
1.81953e+07
1.81991e+07
1.8203e+07
1.82069e+07
1.82109e+07
1.8215e+07
1.82191e+07
1.82232e+07
1.82275e+07
1.82317e+07
1.82361e+07
1.82405e+07
1.82449e+07
1.82495e+07
1.8254e+07
1.82587e+07
1.82634e+07
1.82681e+07
1.82729e+07
1.82778e+07
1.82827e+07
1.82877e+07
1.82928e+07
1.82979e+07
1.83031e+07
1.83083e+07
1.83136e+07
1.8319e+07
1.83244e+07
1.83299e+07
1.83354e+07
1.8341e+07
1.83467e+07
1.83524e+07
1.83582e+07
1.8364e+07
1.837e+07
1.83759e+07
1.8382e+07
1.8388e+07
1.83942e+07
1.84004e+07
1.84067e+07
1.8413e+07
1.84194e+07
1.84258e+07
1.84324e+07
1.84389e+07
1.84456e+07
1.84522e+07
1.8459e+07
1.84658e+07
1.84726e+07
1.84796e+07
1.84865e+07
1.84936e+07
1.85007e+07
1.85078e+07
1.8515e+07
1.85223e+07
1.85296e+07
1.85369e+07
1.85443e+07
1.85518e+07
1.85593e+07
1.85669e+07
1.85745e+07
1.85822e+07
1.85899e+07
1.85977e+07
1.86055e+07
1.86134e+07
1.86213e+07
1.86293e+07
1.86373e+07
1.86454e+07
1.86535e+07
1.86616e+07
1.86698e+07
1.86781e+07
1.86863e+07
1.86946e+07
1.8703e+07
1.87112e+07
1.87193e+07
1.80358e+07
1.80358e+07
1.80358e+07
1.80358e+07
1.80359e+07
1.80359e+07
1.8036e+07
1.8036e+07
1.80361e+07
1.80362e+07
1.80363e+07
1.80363e+07
1.80364e+07
1.80366e+07
1.80367e+07
1.80368e+07
1.8037e+07
1.80371e+07
1.80373e+07
1.80375e+07
1.80377e+07
1.80379e+07
1.80381e+07
1.80383e+07
1.80386e+07
1.80388e+07
1.80391e+07
1.80394e+07
1.80397e+07
1.80401e+07
1.80404e+07
1.80408e+07
1.80412e+07
1.80416e+07
1.8042e+07
1.80425e+07
1.8043e+07
1.80434e+07
1.8044e+07
1.80445e+07
1.80451e+07
1.80457e+07
1.80463e+07
1.8047e+07
1.80476e+07
1.80483e+07
1.80491e+07
1.80498e+07
1.80506e+07
1.80514e+07
1.80523e+07
1.80532e+07
1.80541e+07
1.8055e+07
1.8056e+07
1.8057e+07
1.80581e+07
1.80592e+07
1.80603e+07
1.80614e+07
1.80626e+07
1.80639e+07
1.80651e+07
1.80664e+07
1.80678e+07
1.80691e+07
1.80705e+07
1.8072e+07
1.80735e+07
1.8075e+07
1.80766e+07
1.80782e+07
1.80799e+07
1.80816e+07
1.80833e+07
1.80851e+07
1.80869e+07
1.80888e+07
1.80907e+07
1.80927e+07
1.80947e+07
1.80967e+07
1.80988e+07
1.81009e+07
1.81031e+07
1.81053e+07
1.81076e+07
1.81099e+07
1.81123e+07
1.81147e+07
1.81172e+07
1.81197e+07
1.81222e+07
1.81248e+07
1.81275e+07
1.81302e+07
1.8133e+07
1.81358e+07
1.81386e+07
1.81415e+07
1.81445e+07
1.81475e+07
1.81506e+07
1.81537e+07
1.81569e+07
1.81601e+07
1.81634e+07
1.81667e+07
1.81701e+07
1.81735e+07
1.8177e+07
1.81805e+07
1.81841e+07
1.81878e+07
1.81915e+07
1.81953e+07
1.81991e+07
1.8203e+07
1.82069e+07
1.82109e+07
1.8215e+07
1.82191e+07
1.82232e+07
1.82275e+07
1.82317e+07
1.82361e+07
1.82405e+07
1.82449e+07
1.82495e+07
1.8254e+07
1.82587e+07
1.82634e+07
1.82681e+07
1.82729e+07
1.82778e+07
1.82827e+07
1.82877e+07
1.82928e+07
1.82979e+07
1.83031e+07
1.83083e+07
1.83136e+07
1.8319e+07
1.83244e+07
1.83299e+07
1.83354e+07
1.8341e+07
1.83467e+07
1.83524e+07
1.83582e+07
1.8364e+07
1.837e+07
1.83759e+07
1.8382e+07
1.8388e+07
1.83942e+07
1.84004e+07
1.84067e+07
1.8413e+07
1.84194e+07
1.84258e+07
1.84324e+07
1.84389e+07
1.84456e+07
1.84522e+07
1.8459e+07
1.84658e+07
1.84726e+07
1.84796e+07
1.84865e+07
1.84936e+07
1.85007e+07
1.85078e+07
1.8515e+07
1.85223e+07
1.85296e+07
1.85369e+07
1.85443e+07
1.85518e+07
1.85593e+07
1.85669e+07
1.85745e+07
1.85822e+07
1.85899e+07
1.85977e+07
1.86055e+07
1.86134e+07
1.86213e+07
1.86293e+07
1.86373e+07
1.86454e+07
1.86535e+07
1.86616e+07
1.86698e+07
1.8678e+07
1.86863e+07
1.86946e+07
1.87029e+07
1.87109e+07
1.87185e+07
1.80358e+07
1.80358e+07
1.80358e+07
1.80358e+07
1.80359e+07
1.80359e+07
1.8036e+07
1.8036e+07
1.80361e+07
1.80362e+07
1.80363e+07
1.80363e+07
1.80364e+07
1.80366e+07
1.80367e+07
1.80368e+07
1.8037e+07
1.80371e+07
1.80373e+07
1.80375e+07
1.80377e+07
1.80379e+07
1.80381e+07
1.80383e+07
1.80386e+07
1.80388e+07
1.80391e+07
1.80394e+07
1.80397e+07
1.80401e+07
1.80404e+07
1.80408e+07
1.80412e+07
1.80416e+07
1.8042e+07
1.80425e+07
1.8043e+07
1.80434e+07
1.8044e+07
1.80445e+07
1.80451e+07
1.80457e+07
1.80463e+07
1.8047e+07
1.80476e+07
1.80483e+07
1.80491e+07
1.80498e+07
1.80506e+07
1.80514e+07
1.80523e+07
1.80532e+07
1.80541e+07
1.8055e+07
1.8056e+07
1.8057e+07
1.80581e+07
1.80592e+07
1.80603e+07
1.80614e+07
1.80626e+07
1.80639e+07
1.80651e+07
1.80664e+07
1.80678e+07
1.80691e+07
1.80705e+07
1.8072e+07
1.80735e+07
1.8075e+07
1.80766e+07
1.80782e+07
1.80799e+07
1.80816e+07
1.80833e+07
1.80851e+07
1.80869e+07
1.80888e+07
1.80907e+07
1.80927e+07
1.80947e+07
1.80967e+07
1.80988e+07
1.81009e+07
1.81031e+07
1.81053e+07
1.81076e+07
1.81099e+07
1.81123e+07
1.81147e+07
1.81172e+07
1.81197e+07
1.81222e+07
1.81248e+07
1.81275e+07
1.81302e+07
1.8133e+07
1.81358e+07
1.81386e+07
1.81415e+07
1.81445e+07
1.81475e+07
1.81506e+07
1.81537e+07
1.81569e+07
1.81601e+07
1.81634e+07
1.81667e+07
1.81701e+07
1.81735e+07
1.8177e+07
1.81805e+07
1.81841e+07
1.81878e+07
1.81915e+07
1.81953e+07
1.81991e+07
1.8203e+07
1.82069e+07
1.82109e+07
1.8215e+07
1.82191e+07
1.82232e+07
1.82275e+07
1.82317e+07
1.82361e+07
1.82405e+07
1.82449e+07
1.82495e+07
1.8254e+07
1.82587e+07
1.82634e+07
1.82681e+07
1.82729e+07
1.82778e+07
1.82827e+07
1.82877e+07
1.82928e+07
1.82979e+07
1.83031e+07
1.83083e+07
1.83136e+07
1.8319e+07
1.83244e+07
1.83299e+07
1.83354e+07
1.8341e+07
1.83467e+07
1.83524e+07
1.83582e+07
1.8364e+07
1.837e+07
1.83759e+07
1.8382e+07
1.8388e+07
1.83942e+07
1.84004e+07
1.84067e+07
1.8413e+07
1.84194e+07
1.84258e+07
1.84324e+07
1.84389e+07
1.84456e+07
1.84522e+07
1.8459e+07
1.84658e+07
1.84726e+07
1.84796e+07
1.84865e+07
1.84936e+07
1.85007e+07
1.85078e+07
1.8515e+07
1.85223e+07
1.85296e+07
1.85369e+07
1.85443e+07
1.85518e+07
1.85593e+07
1.85669e+07
1.85745e+07
1.85822e+07
1.85899e+07
1.85977e+07
1.86055e+07
1.86134e+07
1.86213e+07
1.86293e+07
1.86373e+07
1.86454e+07
1.86535e+07
1.86616e+07
1.86698e+07
1.8678e+07
1.86863e+07
1.86946e+07
1.87029e+07
1.87108e+07
1.87183e+07
1.80358e+07
1.80358e+07
1.80358e+07
1.80358e+07
1.80359e+07
1.80359e+07
1.8036e+07
1.8036e+07
1.80361e+07
1.80362e+07
1.80363e+07
1.80363e+07
1.80364e+07
1.80366e+07
1.80367e+07
1.80368e+07
1.8037e+07
1.80371e+07
1.80373e+07
1.80375e+07
1.80377e+07
1.80379e+07
1.80381e+07
1.80383e+07
1.80386e+07
1.80388e+07
1.80391e+07
1.80394e+07
1.80397e+07
1.80401e+07
1.80404e+07
1.80408e+07
1.80412e+07
1.80416e+07
1.8042e+07
1.80425e+07
1.8043e+07
1.80434e+07
1.8044e+07
1.80445e+07
1.80451e+07
1.80457e+07
1.80463e+07
1.8047e+07
1.80476e+07
1.80483e+07
1.80491e+07
1.80498e+07
1.80506e+07
1.80514e+07
1.80523e+07
1.80532e+07
1.80541e+07
1.8055e+07
1.8056e+07
1.8057e+07
1.80581e+07
1.80592e+07
1.80603e+07
1.80614e+07
1.80626e+07
1.80639e+07
1.80651e+07
1.80664e+07
1.80678e+07
1.80691e+07
1.80705e+07
1.8072e+07
1.80735e+07
1.8075e+07
1.80766e+07
1.80782e+07
1.80799e+07
1.80816e+07
1.80833e+07
1.80851e+07
1.80869e+07
1.80888e+07
1.80907e+07
1.80927e+07
1.80947e+07
1.80967e+07
1.80988e+07
1.81009e+07
1.81031e+07
1.81053e+07
1.81076e+07
1.81099e+07
1.81123e+07
1.81147e+07
1.81172e+07
1.81197e+07
1.81222e+07
1.81248e+07
1.81275e+07
1.81302e+07
1.8133e+07
1.81358e+07
1.81386e+07
1.81415e+07
1.81445e+07
1.81475e+07
1.81506e+07
1.81537e+07
1.81569e+07
1.81601e+07
1.81634e+07
1.81667e+07
1.81701e+07
1.81735e+07
1.8177e+07
1.81805e+07
1.81841e+07
1.81878e+07
1.81915e+07
1.81953e+07
1.81991e+07
1.8203e+07
1.82069e+07
1.82109e+07
1.8215e+07
1.82191e+07
1.82232e+07
1.82275e+07
1.82317e+07
1.82361e+07
1.82405e+07
1.82449e+07
1.82495e+07
1.8254e+07
1.82587e+07
1.82634e+07
1.82681e+07
1.82729e+07
1.82778e+07
1.82827e+07
1.82877e+07
1.82928e+07
1.82979e+07
1.83031e+07
1.83083e+07
1.83136e+07
1.8319e+07
1.83244e+07
1.83299e+07
1.83354e+07
1.8341e+07
1.83467e+07
1.83524e+07
1.83582e+07
1.8364e+07
1.837e+07
1.83759e+07
1.8382e+07
1.8388e+07
1.83942e+07
1.84004e+07
1.84067e+07
1.8413e+07
1.84194e+07
1.84258e+07
1.84324e+07
1.84389e+07
1.84456e+07
1.84522e+07
1.8459e+07
1.84658e+07
1.84726e+07
1.84796e+07
1.84865e+07
1.84936e+07
1.85007e+07
1.85078e+07
1.8515e+07
1.85223e+07
1.85296e+07
1.85369e+07
1.85443e+07
1.85518e+07
1.85593e+07
1.85669e+07
1.85745e+07
1.85822e+07
1.85899e+07
1.85977e+07
1.86055e+07
1.86134e+07
1.86213e+07
1.86293e+07
1.86373e+07
1.86454e+07
1.86535e+07
1.86616e+07
1.86698e+07
1.8678e+07
1.86863e+07
1.86946e+07
1.87029e+07
1.87108e+07
1.87183e+07
1.80358e+07
1.80358e+07
1.80358e+07
1.80358e+07
1.80359e+07
1.80359e+07
1.8036e+07
1.8036e+07
1.80361e+07
1.80362e+07
1.80363e+07
1.80363e+07
1.80364e+07
1.80366e+07
1.80367e+07
1.80368e+07
1.8037e+07
1.80371e+07
1.80373e+07
1.80375e+07
1.80377e+07
1.80379e+07
1.80381e+07
1.80383e+07
1.80386e+07
1.80388e+07
1.80391e+07
1.80394e+07
1.80397e+07
1.80401e+07
1.80404e+07
1.80408e+07
1.80412e+07
1.80416e+07
1.8042e+07
1.80425e+07
1.8043e+07
1.80434e+07
1.8044e+07
1.80445e+07
1.80451e+07
1.80457e+07
1.80463e+07
1.8047e+07
1.80476e+07
1.80483e+07
1.80491e+07
1.80498e+07
1.80506e+07
1.80514e+07
1.80523e+07
1.80532e+07
1.80541e+07
1.8055e+07
1.8056e+07
1.8057e+07
1.80581e+07
1.80592e+07
1.80603e+07
1.80614e+07
1.80626e+07
1.80639e+07
1.80651e+07
1.80664e+07
1.80678e+07
1.80691e+07
1.80705e+07
1.8072e+07
1.80735e+07
1.8075e+07
1.80766e+07
1.80782e+07
1.80799e+07
1.80816e+07
1.80833e+07
1.80851e+07
1.80869e+07
1.80888e+07
1.80907e+07
1.80927e+07
1.80947e+07
1.80967e+07
1.80988e+07
1.81009e+07
1.81031e+07
1.81053e+07
1.81076e+07
1.81099e+07
1.81123e+07
1.81147e+07
1.81172e+07
1.81197e+07
1.81222e+07
1.81248e+07
1.81275e+07
1.81302e+07
1.8133e+07
1.81358e+07
1.81386e+07
1.81415e+07
1.81445e+07
1.81475e+07
1.81506e+07
1.81537e+07
1.81569e+07
1.81601e+07
1.81634e+07
1.81667e+07
1.81701e+07
1.81735e+07
1.8177e+07
1.81805e+07
1.81841e+07
1.81878e+07
1.81915e+07
1.81953e+07
1.81991e+07
1.8203e+07
1.82069e+07
1.82109e+07
1.8215e+07
1.82191e+07
1.82232e+07
1.82275e+07
1.82317e+07
1.82361e+07
1.82405e+07
1.82449e+07
1.82495e+07
1.8254e+07
1.82587e+07
1.82634e+07
1.82681e+07
1.82729e+07
1.82778e+07
1.82827e+07
1.82877e+07
1.82928e+07
1.82979e+07
1.83031e+07
1.83083e+07
1.83136e+07
1.8319e+07
1.83244e+07
1.83299e+07
1.83354e+07
1.8341e+07
1.83467e+07
1.83524e+07
1.83582e+07
1.8364e+07
1.837e+07
1.83759e+07
1.8382e+07
1.8388e+07
1.83942e+07
1.84004e+07
1.84067e+07
1.8413e+07
1.84194e+07
1.84258e+07
1.84324e+07
1.84389e+07
1.84456e+07
1.84522e+07
1.8459e+07
1.84658e+07
1.84726e+07
1.84796e+07
1.84865e+07
1.84936e+07
1.85007e+07
1.85078e+07
1.8515e+07
1.85223e+07
1.85296e+07
1.85369e+07
1.85443e+07
1.85518e+07
1.85593e+07
1.85669e+07
1.85745e+07
1.85822e+07
1.85899e+07
1.85977e+07
1.86055e+07
1.86134e+07
1.86213e+07
1.86293e+07
1.86373e+07
1.86454e+07
1.86535e+07
1.86616e+07
1.86698e+07
1.8678e+07
1.86863e+07
1.86946e+07
1.87029e+07
1.87108e+07
1.87183e+07
1.87343e+07
1.87397e+07
1.87427e+07
1.87445e+07
1.87461e+07
1.87476e+07
1.87492e+07
1.87507e+07
1.87522e+07
1.87536e+07
1.8755e+07
1.87564e+07
1.87578e+07
1.87592e+07
1.87604e+07
1.87616e+07
1.87626e+07
1.87635e+07
1.8764e+07
1.8764e+07
1.87337e+07
1.87386e+07
1.87415e+07
1.87434e+07
1.8745e+07
1.87465e+07
1.87481e+07
1.87496e+07
1.87511e+07
1.87525e+07
1.87539e+07
1.87554e+07
1.87568e+07
1.87581e+07
1.87594e+07
1.87605e+07
1.87616e+07
1.87624e+07
1.8763e+07
1.8763e+07
1.87333e+07
1.87383e+07
1.87414e+07
1.87433e+07
1.87449e+07
1.87465e+07
1.87481e+07
1.87496e+07
1.8751e+07
1.87524e+07
1.87538e+07
1.87552e+07
1.87567e+07
1.8758e+07
1.87592e+07
1.87603e+07
1.87613e+07
1.87621e+07
1.87626e+07
1.87625e+07
1.8731e+07
1.87343e+07
1.87364e+07
1.8738e+07
1.87395e+07
1.87411e+07
1.87426e+07
1.87441e+07
1.87456e+07
1.8747e+07
1.87485e+07
1.87499e+07
1.87514e+07
1.87528e+07
1.87541e+07
1.87553e+07
1.87563e+07
1.87572e+07
1.87578e+07
1.87581e+07
1.87286e+07
1.87317e+07
1.87345e+07
1.87369e+07
1.87389e+07
1.87408e+07
1.87424e+07
1.87439e+07
1.87454e+07
1.87467e+07
1.87479e+07
1.87492e+07
1.87506e+07
1.87517e+07
1.87528e+07
1.87538e+07
1.87547e+07
1.87555e+07
1.87562e+07
1.87568e+07
1.87222e+07
1.87225e+07
1.87227e+07
1.8723e+07
1.87235e+07
1.87244e+07
1.87255e+07
1.87268e+07
1.87282e+07
1.87298e+07
1.87313e+07
1.87328e+07
1.87347e+07
1.87363e+07
1.87379e+07
1.87396e+07
1.87413e+07
1.87431e+07
1.87449e+07
1.8747e+07
1.87171e+07
1.87173e+07
1.87186e+07
1.87204e+07
1.87221e+07
1.87237e+07
1.87251e+07
1.87266e+07
1.8728e+07
1.87292e+07
1.87308e+07
1.87321e+07
1.87331e+07
1.87344e+07
1.87357e+07
1.87372e+07
1.87388e+07
1.87406e+07
1.87428e+07
1.87454e+07
1.87085e+07
1.87045e+07
1.87014e+07
1.86997e+07
1.86993e+07
1.86996e+07
1.87002e+07
1.87012e+07
1.87025e+07
1.87041e+07
1.87059e+07
1.87079e+07
1.871e+07
1.87125e+07
1.87151e+07
1.87181e+07
1.87214e+07
1.87251e+07
1.87293e+07
1.8734e+07
1.87061e+07
1.87021e+07
1.86997e+07
1.86988e+07
1.86987e+07
1.86991e+07
1.86998e+07
1.87009e+07
1.87022e+07
1.87037e+07
1.87055e+07
1.87074e+07
1.87094e+07
1.87118e+07
1.87143e+07
1.87171e+07
1.87203e+07
1.87239e+07
1.8728e+07
1.87327e+07
1.87037e+07
1.86971e+07
1.86935e+07
1.8692e+07
1.86915e+07
1.86917e+07
1.86923e+07
1.86933e+07
1.86947e+07
1.86963e+07
1.86981e+07
1.87001e+07
1.87024e+07
1.87049e+07
1.87077e+07
1.87108e+07
1.87143e+07
1.87182e+07
1.87229e+07
1.87282e+07
1.87607e+07
1.87634e+07
1.87692e+07
1.87756e+07
1.87823e+07
1.8789e+07
1.87958e+07
1.88027e+07
1.88095e+07
1.88164e+07
1.88233e+07
1.88302e+07
1.88371e+07
1.88441e+07
1.8851e+07
1.8858e+07
1.8865e+07
1.8872e+07
1.8879e+07
1.88861e+07
1.88931e+07
1.89002e+07
1.89072e+07
1.89143e+07
1.89214e+07
1.89284e+07
1.89355e+07
1.89426e+07
1.89497e+07
1.89568e+07
1.8964e+07
1.89711e+07
1.89782e+07
1.89853e+07
1.89924e+07
1.89995e+07
1.90067e+07
1.90138e+07
1.90209e+07
1.9028e+07
1.90351e+07
1.90423e+07
1.90494e+07
1.90565e+07
1.90636e+07
1.90707e+07
1.90778e+07
1.90849e+07
1.9092e+07
1.9099e+07
1.91061e+07
1.91132e+07
1.91202e+07
1.91273e+07
1.91343e+07
1.91413e+07
1.91484e+07
1.91554e+07
1.91624e+07
1.91693e+07
1.91763e+07
1.91833e+07
1.91902e+07
1.91972e+07
1.92041e+07
1.9211e+07
1.92179e+07
1.92247e+07
1.92316e+07
1.92384e+07
1.92453e+07
1.92521e+07
1.92589e+07
1.92656e+07
1.92724e+07
1.92791e+07
1.92858e+07
1.92925e+07
1.92992e+07
1.93059e+07
1.93125e+07
1.93191e+07
1.93257e+07
1.93323e+07
1.93388e+07
1.93453e+07
1.93518e+07
1.93583e+07
1.93648e+07
1.93712e+07
1.93776e+07
1.9384e+07
1.93903e+07
1.93966e+07
1.9403e+07
1.94092e+07
1.94155e+07
1.94217e+07
1.94279e+07
1.94341e+07
1.94402e+07
1.94464e+07
1.94524e+07
1.94585e+07
1.94645e+07
1.94705e+07
1.94765e+07
1.94825e+07
1.94884e+07
1.94943e+07
1.95002e+07
1.9506e+07
1.95118e+07
1.95176e+07
1.95233e+07
1.9529e+07
1.95347e+07
1.95404e+07
1.9546e+07
1.95516e+07
1.95571e+07
1.95627e+07
1.95682e+07
1.95736e+07
1.95791e+07
1.95845e+07
1.95898e+07
1.95952e+07
1.96005e+07
1.96057e+07
1.9611e+07
1.96161e+07
1.96213e+07
1.96264e+07
1.96315e+07
1.96365e+07
1.96415e+07
1.96465e+07
1.96514e+07
1.96563e+07
1.96612e+07
1.9666e+07
1.96708e+07
1.96755e+07
1.96802e+07
1.96849e+07
1.96896e+07
1.96942e+07
1.96987e+07
1.97033e+07
1.97078e+07
1.97123e+07
1.97167e+07
1.97211e+07
1.97255e+07
1.97298e+07
1.97341e+07
1.97383e+07
1.97426e+07
1.97468e+07
1.97509e+07
1.9755e+07
1.97591e+07
1.97632e+07
1.97672e+07
1.97712e+07
1.97751e+07
1.9779e+07
1.97829e+07
1.97867e+07
1.97905e+07
1.97943e+07
1.9798e+07
1.98017e+07
1.98054e+07
1.9809e+07
1.98126e+07
1.98162e+07
1.98197e+07
1.98232e+07
1.98267e+07
1.98301e+07
1.98335e+07
1.98368e+07
1.98402e+07
1.98434e+07
1.98467e+07
1.98499e+07
1.98531e+07
1.98562e+07
1.98594e+07
1.98624e+07
1.98655e+07
1.98685e+07
1.98715e+07
1.98744e+07
1.98773e+07
1.98802e+07
1.98831e+07
1.9886e+07
1.87604e+07
1.87633e+07
1.87691e+07
1.87756e+07
1.87823e+07
1.8789e+07
1.87958e+07
1.88027e+07
1.88095e+07
1.88164e+07
1.88233e+07
1.88302e+07
1.88371e+07
1.88441e+07
1.8851e+07
1.8858e+07
1.8865e+07
1.8872e+07
1.8879e+07
1.88861e+07
1.88931e+07
1.89002e+07
1.89072e+07
1.89143e+07
1.89214e+07
1.89284e+07
1.89355e+07
1.89426e+07
1.89497e+07
1.89568e+07
1.8964e+07
1.89711e+07
1.89782e+07
1.89853e+07
1.89924e+07
1.89995e+07
1.90067e+07
1.90138e+07
1.90209e+07
1.9028e+07
1.90351e+07
1.90423e+07
1.90494e+07
1.90565e+07
1.90636e+07
1.90707e+07
1.90778e+07
1.90849e+07
1.9092e+07
1.9099e+07
1.91061e+07
1.91132e+07
1.91202e+07
1.91273e+07
1.91343e+07