/*--------------------------------*- C++ -*----------------------------------*\
| =========                 |                                                 |
| \\      /  F ield         | OpenFOAM: The Open Source CFD Toolbox           |
|  \\    /   O peration     | Version:  3.0.x                                 |
|   \\  /    A nd           | Web:      www.OpenFOAM.org                      |
|    \\/     M anipulation  |                                                 |
\*---------------------------------------------------------------------------*/
FoamFile
{
    version     2.0;
    format      ascii;
    class       volScalarField;
    location    "0.49";
    object      rho;
}
// * * * * * * * * * * * * * * * * * * * * * * * * * * * * * * * * * * * * * //

dimensions      [1 -3 0 0 0 0 0];

internalField   nonuniform List<scalar> 
13800
(
50.5494
50.5495
50.5495
50.5496
50.5497
50.5498
50.5499
50.55
50.5502
50.5504
50.5506
50.5508
50.551
50.5513
50.5516
50.5519
50.5523
50.5526
50.553
50.5534
50.5539
50.5544
50.5549
50.5554
50.556
50.5567
50.5573
50.558
50.5587
50.5595
50.5604
50.5612
50.5621
50.5631
50.5641
50.5652
50.5663
50.5675
50.5687
50.5699
50.5713
50.5727
50.5741
50.5757
50.5772
50.5789
50.5806
50.5824
50.5842
50.5861
50.5881
50.5901
50.5923
50.5945
50.5967
50.5991
50.6016
50.6041
50.6068
50.6095
50.6124
50.6153
50.6182
50.6213
50.6244
50.6276
50.6309
50.6343
50.6378
50.6414
50.645
50.6488
50.6527
50.6567
50.6607
50.6649
50.6692
50.6736
50.6781
50.6827
50.6874
50.6923
50.6972
50.7022
50.7074
50.7126
50.7179
50.7233
50.7288
50.7344
50.7402
50.746
50.752
50.7581
50.7643
50.7706
50.7771
50.7837
50.7904
50.7973
50.8042
50.8112
50.8184
50.8257
50.8331
50.8406
50.8483
50.856
50.8639
50.8719
50.8801
50.8883
50.8967
50.9053
50.9139
50.9227
50.9316
50.9407
50.9498
50.9591
50.9686
50.9781
50.9879
50.9977
51.0077
51.0178
51.028
51.0384
51.049
51.0596
51.0704
51.0814
51.0924
51.1037
51.115
51.1265
51.1381
51.1499
51.1618
51.1739
51.1861
51.1984
51.2109
51.2235
51.2363
51.2492
51.2622
51.2754
51.2887
51.3022
51.3158
51.3296
51.3435
51.3575
51.3717
51.386
51.4004
51.415
51.4297
51.4446
51.4596
51.4747
51.49
51.5054
51.521
51.5367
51.5525
51.5685
51.5845
51.6008
51.6171
51.6336
51.6502
51.6669
51.6838
51.7008
51.7179
51.7351
51.7525
51.77
51.7876
51.8053
51.8231
51.841
51.8592
51.8772
51.8957
51.9138
51.9327
51.9508
51.9701
51.9883
52.0079
52.0261
52.0461
52.0643
52.0848
52.1029
52.1245
52.1414
50.5504
50.5504
50.5505
50.5505
50.5506
50.5507
50.5508
50.551
50.5511
50.5513
50.5515
50.5517
50.552
50.5522
50.5525
50.5528
50.5532
50.5535
50.5539
50.5543
50.5548
50.5553
50.5558
50.5563
50.5569
50.5575
50.5582
50.5589
50.5596
50.5604
50.5612
50.5621
50.563
50.564
50.565
50.566
50.5671
50.5683
50.5695
50.5708
50.5721
50.5735
50.575
50.5765
50.5781
50.5797
50.5814
50.5832
50.585
50.5869
50.5889
50.5909
50.5931
50.5953
50.5975
50.5999
50.6023
50.6049
50.6076
50.6103
50.6131
50.616
50.619
50.6221
50.6252
50.6284
50.6317
50.6351
50.6385
50.6421
50.6458
50.6495
50.6534
50.6574
50.6615
50.6656
50.6699
50.6743
50.6788
50.6834
50.6881
50.693
50.6979
50.7029
50.708
50.7133
50.7186
50.724
50.7295
50.7351
50.7408
50.7467
50.7526
50.7587
50.7649
50.7713
50.7778
50.7844
50.7911
50.7979
50.8048
50.8119
50.819
50.8263
50.8337
50.8412
50.8489
50.8566
50.8645
50.8725
50.8807
50.8889
50.8973
50.9059
50.9145
50.9233
50.9322
50.9412
50.9504
50.9597
50.9692
50.9787
50.9885
50.9983
51.0083
51.0184
51.0287
51.039
51.0496
51.0602
51.071
51.082
51.093
51.1043
51.1156
51.1271
51.1387
51.1505
51.1624
51.1745
51.1867
51.199
51.2115
51.2241
51.2369
51.2498
51.2628
51.276
51.2893
51.3028
51.3164
51.3302
51.3441
51.3581
51.3723
51.3866
51.401
51.4156
51.4303
51.4452
51.4602
51.4754
51.4906
51.5061
51.5216
51.5373
51.5531
51.5691
51.5852
51.6014
51.6177
51.6342
51.6508
51.6675
51.6844
51.7014
51.7185
51.7357
51.7531
51.7706
51.7882
51.8059
51.8237
51.8416
51.8598
51.8778
51.8963
51.9144
51.9333
51.9514
51.9707
51.9889
52.0085
52.0267
52.0468
52.0649
52.0854
52.1035
52.1252
52.1399
50.5504
50.5504
50.5505
50.5505
50.5506
50.5507
50.5508
50.551
50.5511
50.5513
50.5515
50.5517
50.552
50.5522
50.5525
50.5528
50.5532
50.5535
50.5539
50.5543
50.5548
50.5553
50.5558
50.5563
50.5569
50.5575
50.5582
50.5589
50.5596
50.5604
50.5612
50.5621
50.563
50.564
50.565
50.566
50.5671
50.5683
50.5695
50.5708
50.5721
50.5735
50.575
50.5765
50.5781
50.5797
50.5814
50.5832
50.585
50.5869
50.5889
50.5909
50.5931
50.5953
50.5975
50.5999
50.6023
50.6049
50.6076
50.6103
50.6131
50.616
50.619
50.6221
50.6252
50.6284
50.6317
50.6351
50.6385
50.6421
50.6458
50.6495
50.6534
50.6574
50.6615
50.6656
50.6699
50.6743
50.6788
50.6834
50.6881
50.693
50.6979
50.7029
50.708
50.7133
50.7186
50.724
50.7295
50.7351
50.7409
50.7467
50.7526
50.7587
50.7649
50.7713
50.7778
50.7844
50.7911
50.7979
50.8048
50.8119
50.819
50.8263
50.8337
50.8412
50.8489
50.8566
50.8645
50.8725
50.8807
50.8889
50.8973
50.9059
50.9145
50.9233
50.9322
50.9412
50.9504
50.9597
50.9692
50.9788
50.9885
50.9983
51.0083
51.0184
51.0287
51.039
51.0496
51.0602
51.071
51.082
51.093
51.1043
51.1156
51.1271
51.1387
51.1505
51.1624
51.1745
51.1867
51.199
51.2115
51.2241
51.2369
51.2498
51.2628
51.276
51.2893
51.3028
51.3164
51.3302
51.3441
51.3581
51.3723
51.3866
51.401
51.4156
51.4303
51.4452
51.4602
51.4754
51.4906
51.5061
51.5216
51.5373
51.5531
51.5691
51.5852
51.6014
51.6177
51.6342
51.6508
51.6675
51.6844
51.7014
51.7185
51.7357
51.7531
51.7706
51.7882
51.8059
51.8237
51.8416
51.8598
51.8778
51.8963
51.9144
51.9333
51.9514
51.9707
51.9889
52.0085
52.0267
52.0468
52.0649
52.0854
52.1035
52.1252
52.1402
50.5504
50.5504
50.5505
50.5505
50.5506
50.5507
50.5508
50.551
50.5511
50.5513
50.5515
50.5517
50.552
50.5522
50.5525
50.5528
50.5532
50.5535
50.5539
50.5543
50.5548
50.5553
50.5558
50.5563
50.5569
50.5575
50.5582
50.5589
50.5596
50.5604
50.5612
50.5621
50.563
50.564
50.565
50.566
50.5671
50.5683
50.5695
50.5708
50.5721
50.5735
50.575
50.5765
50.5781
50.5797
50.5814
50.5832
50.585
50.5869
50.5889
50.5909
50.5931
50.5953
50.5975
50.5999
50.6023
50.6049
50.6076
50.6103
50.6131
50.616
50.619
50.6221
50.6252
50.6284
50.6317
50.6351
50.6385
50.6421
50.6458
50.6495
50.6534
50.6574
50.6615
50.6656
50.6699
50.6743
50.6788
50.6834
50.6881
50.693
50.6979
50.7029
50.708
50.7133
50.7186
50.724
50.7295
50.7351
50.7409
50.7467
50.7526
50.7587
50.7649
50.7713
50.7778
50.7844
50.7911
50.7979
50.8048
50.8119
50.819
50.8263
50.8337
50.8412
50.8489
50.8566
50.8645
50.8725
50.8807
50.8889
50.8973
50.9059
50.9145
50.9233
50.9322
50.9412
50.9504
50.9597
50.9692
50.9788
50.9885
50.9983
51.0083
51.0184
51.0287
51.039
51.0496
51.0602
51.071
51.082
51.093
51.1043
51.1156
51.1271
51.1387
51.1505
51.1624
51.1745
51.1867
51.199
51.2115
51.2241
51.2369
51.2498
51.2628
51.276
51.2893
51.3028
51.3164
51.3302
51.3441
51.3581
51.3723
51.3866
51.401
51.4156
51.4303
51.4452
51.4602
51.4754
51.4906
51.5061
51.5216
51.5373
51.5531
51.5691
51.5852
51.6014
51.6177
51.6342
51.6508
51.6675
51.6844
51.7014
51.7185
51.7357
51.7531
51.7706
51.7882
51.8059
51.8237
51.8416
51.8598
51.8778
51.8963
51.9144
51.9333
51.9514
51.9707
51.9889
52.0085
52.0267
52.0468
52.0649
52.0854
52.1036
52.125
52.1424
50.5503
50.5504
50.5504
50.5505
50.5506
50.5507
50.5508
50.551
50.5511
50.5513
50.5515
50.5517
50.5519
50.5522
50.5525
50.5528
50.5531
50.5535
50.5539
50.5543
50.5548
50.5553
50.5558
50.5563
50.5569
50.5575
50.5582
50.5589
50.5596
50.5604
50.5612
50.5621
50.563
50.5639
50.565
50.566
50.5671
50.5683
50.5695
50.5708
50.5721
50.5735
50.575
50.5765
50.5781
50.5797
50.5814
50.5832
50.585
50.5869
50.5889
50.5909
50.5931
50.5953
50.5975
50.5999
50.6023
50.6049
50.6076
50.6103
50.6131
50.616
50.619
50.6221
50.6252
50.6284
50.6317
50.635
50.6385
50.6421
50.6458
50.6495
50.6534
50.6574
50.6614
50.6656
50.6699
50.6743
50.6788
50.6834
50.6881
50.693
50.6979
50.7029
50.708
50.7133
50.7186
50.724
50.7295
50.7351
50.7408
50.7467
50.7526
50.7587
50.7649
50.7713
50.7778
50.7844
50.7911
50.7979
50.8048
50.8119
50.819
50.8263
50.8337
50.8412
50.8489
50.8566
50.8645
50.8725
50.8807
50.8889
50.8973
50.9059
50.9145
50.9233
50.9322
50.9412
50.9504
50.9597
50.9692
50.9788
50.9885
50.9983
51.0083
51.0184
51.0287
51.039
51.0496
51.0602
51.071
51.082
51.093
51.1043
51.1156
51.1271
51.1387
51.1505
51.1624
51.1745
51.1867
51.199
51.2115
51.2241
51.2369
51.2498
51.2628
51.276
51.2893
51.3028
51.3164
51.3302
51.3441
51.3581
51.3723
51.3866
51.401
51.4156
51.4303
51.4452
51.4602
51.4754
51.4906
51.5061
51.5216
51.5373
51.5531
51.5691
51.5852
51.6014
51.6177
51.6342
51.6508
51.6675
51.6844
51.7014
51.7185
51.7357
51.7531
51.7706
51.7882
51.8059
51.8238
51.8416
51.8598
51.8778
51.8963
51.9144
51.9333
51.9514
51.9707
51.9889
52.0085
52.0267
52.0467
52.0649
52.0853
52.1036
52.1245
52.1419
50.5503
50.5504
50.5504
50.5505
50.5506
50.5507
50.5508
50.551
50.5511
50.5513
50.5515
50.5517
50.5519
50.5522
50.5525
50.5528
50.5531
50.5535
50.5539
50.5543
50.5548
50.5553
50.5558
50.5563
50.5569
50.5575
50.5582
50.5589
50.5596
50.5604
50.5612
50.5621
50.563
50.5639
50.565
50.566
50.5671
50.5683
50.5695
50.5708
50.5721
50.5735
50.575
50.5765
50.5781
50.5797
50.5814
50.5832
50.585
50.5869
50.5889
50.5909
50.5931
50.5953
50.5975
50.5999
50.6023
50.6049
50.6076
50.6103
50.6131
50.616
50.619
50.6221
50.6252
50.6284
50.6317
50.635
50.6385
50.6421
50.6458
50.6495
50.6534
50.6574
50.6614
50.6656
50.6699
50.6743
50.6788
50.6834
50.6881
50.693
50.6979
50.7029
50.708
50.7133
50.7186
50.724
50.7295
50.7351
50.7408
50.7467
50.7526
50.7587
50.7649
50.7713
50.7778
50.7844
50.7911
50.7979
50.8048
50.8119
50.819
50.8263
50.8337
50.8412
50.8489
50.8566
50.8645
50.8725
50.8807
50.8889
50.8973
50.9059
50.9145
50.9233
50.9322
50.9412
50.9504
50.9597
50.9692
50.9788
50.9885
50.9983
51.0083
51.0184
51.0287
51.039
51.0496
51.0602
51.071
51.082
51.093
51.1043
51.1156
51.1271
51.1387
51.1505
51.1624
51.1745
51.1867
51.199
51.2115
51.2241
51.2369
51.2498
51.2628
51.276
51.2893
51.3028
51.3164
51.3302
51.3441
51.3581
51.3723
51.3866
51.401
51.4156
51.4303
51.4452
51.4602
51.4754
51.4906
51.5061
51.5216
51.5373
51.5531
51.5691
51.5852
51.6014
51.6177
51.6342
51.6508
51.6675
51.6844
51.7014
51.7185
51.7357
51.7531
51.7706
51.7882
51.8059
51.8237
51.8417
51.8597
51.8779
51.8962
51.9145
51.9331
51.9518
51.9702
51.9896
52.0077
52.0275
52.0459
52.0657
52.0847
52.1038
52.1237
52.142
50.5504
50.5504
50.5505
50.5505
50.5506
50.5507
50.5508
50.551
50.5511
50.5513
50.5515
50.5517
50.552
50.5522
50.5525
50.5528
50.5532
50.5535
50.5539
50.5543
50.5548
50.5553
50.5558
50.5563
50.5569
50.5575
50.5582
50.5589
50.5596
50.5604
50.5612
50.5621
50.563
50.564
50.565
50.566
50.5671
50.5683
50.5695
50.5708
50.5721
50.5735
50.575
50.5765
50.5781
50.5797
50.5814
50.5832
50.585
50.5869
50.5889
50.5909
50.5931
50.5953
50.5975
50.5999
50.6023
50.6049
50.6076
50.6103
50.6131
50.616
50.619
50.6221
50.6252
50.6284
50.6317
50.6351
50.6385
50.6421
50.6458
50.6495
50.6534
50.6574
50.6615
50.6656
50.6699
50.6743
50.6788
50.6834
50.6881
50.693
50.6979
50.7029
50.708
50.7133
50.7186
50.724
50.7295
50.7351
50.7409
50.7467
50.7526
50.7587
50.7649
50.7713
50.7778
50.7844
50.7911
50.7979
50.8048
50.8119
50.819
50.8263
50.8337
50.8412
50.8489
50.8566
50.8645
50.8725
50.8807
50.8889
50.8973
50.9059
50.9145
50.9233
50.9322
50.9412
50.9504
50.9597
50.9692
50.9788
50.9885
50.9983
51.0083
51.0184
51.0287
51.039
51.0496
51.0602
51.071
51.082
51.093
51.1043
51.1156
51.1271
51.1387
51.1505
51.1624
51.1745
51.1867
51.199
51.2115
51.2241
51.2369
51.2498
51.2628
51.276
51.2893
51.3028
51.3164
51.3302
51.3441
51.3581
51.3723
51.3866
51.401
51.4156
51.4303
51.4452
51.4602
51.4754
51.4906
51.5061
51.5216
51.5373
51.5531
51.5691
51.5852
51.6014
51.6177
51.6342
51.6508
51.6675
51.6844
51.7014
51.7185
51.7357
51.7531
51.7706
51.7882
51.8059
51.8237
51.8417
51.8596
51.878
51.896
51.9148
51.9328
51.952
51.9701
51.9895
52.0077
52.0275
52.0458
52.066
52.0841
52.1047
52.121
52.1431
50.5504
50.5504
50.5505
50.5505
50.5506
50.5507
50.5508
50.551
50.5511
50.5513
50.5515
50.5517
50.552
50.5522
50.5525
50.5528
50.5532
50.5535
50.5539
50.5543
50.5548
50.5553
50.5558
50.5563
50.5569
50.5575
50.5582
50.5589
50.5596
50.5604
50.5612
50.5621
50.563
50.564
50.565
50.566
50.5671
50.5683
50.5695
50.5708
50.5721
50.5735
50.575
50.5765
50.5781
50.5797
50.5814
50.5832
50.585
50.5869
50.5889
50.5909
50.5931
50.5953
50.5975
50.5999
50.6023
50.6049
50.6076
50.6103
50.6131
50.616
50.619
50.6221
50.6252
50.6284
50.6317
50.6351
50.6385
50.6421
50.6458
50.6495
50.6534
50.6574
50.6615
50.6656
50.6699
50.6743
50.6788
50.6834
50.6881
50.693
50.6979
50.7029
50.708
50.7133
50.7186
50.724
50.7295
50.7351
50.7409
50.7467
50.7526
50.7587
50.7649
50.7713
50.7778
50.7844
50.7911
50.7979
50.8048
50.8119
50.819
50.8263
50.8337
50.8412
50.8489
50.8566
50.8645
50.8725
50.8807
50.8889
50.8973
50.9059
50.9145
50.9233
50.9322
50.9412
50.9504
50.9597
50.9692
50.9788
50.9885
50.9983
51.0083
51.0184
51.0287
51.039
51.0496
51.0602
51.071
51.082
51.093
51.1043
51.1156
51.1271
51.1387
51.1505
51.1624
51.1745
51.1867
51.199
51.2115
51.2241
51.2369
51.2498
51.2628
51.276
51.2893
51.3028
51.3164
51.3302
51.3441
51.3581
51.3723
51.3866
51.401
51.4156
51.4303
51.4452
51.4602
51.4754
51.4906
51.5061
51.5216
51.5373
51.5531
51.5691
51.5852
51.6014
51.6177
51.6342
51.6508
51.6675
51.6844
51.7014
51.7185
51.7357
51.7531
51.7706
51.7882
51.8059
51.8237
51.8417
51.8596
51.878
51.896
51.9148
51.9328
51.952
51.97
51.9896
52.0077
52.0276
52.0457
52.066
52.0841
52.1047
52.1198
52.151
50.5504
50.5504
50.5505
50.5505
50.5506
50.5507
50.5508
50.551
50.5511
50.5513
50.5515
50.5517
50.552
50.5522
50.5525
50.5528
50.5532
50.5535
50.5539
50.5543
50.5548
50.5553
50.5558
50.5563
50.5569
50.5575
50.5582
50.5589
50.5596
50.5604
50.5612
50.5621
50.563
50.564
50.565
50.566
50.5671
50.5683
50.5695
50.5708
50.5721
50.5735
50.575
50.5765
50.5781
50.5797
50.5814
50.5832
50.585
50.5869
50.5889
50.5909
50.5931
50.5953
50.5975
50.5999
50.6023
50.6049
50.6076
50.6103
50.6131
50.616
50.619
50.6221
50.6252
50.6284
50.6317
50.6351
50.6385
50.6421
50.6458
50.6495
50.6534
50.6574
50.6615
50.6656
50.6699
50.6743
50.6788
50.6834
50.6881
50.693
50.6979
50.7029
50.708
50.7133
50.7186
50.724
50.7295
50.7351
50.7408
50.7467
50.7526
50.7587
50.7649
50.7713
50.7778
50.7844
50.7911
50.7979
50.8048
50.8119
50.819
50.8263
50.8337
50.8412
50.8489
50.8566
50.8645
50.8725
50.8807
50.8889
50.8973
50.9059
50.9145
50.9233
50.9322
50.9412
50.9504
50.9597
50.9692
50.9787
50.9885
50.9983
51.0083
51.0184
51.0287
51.039
51.0496
51.0602
51.071
51.082
51.093
51.1043
51.1156
51.1271
51.1387
51.1505
51.1624
51.1745
51.1867
51.199
51.2115
51.2241
51.2369
51.2498
51.2628
51.276
51.2893
51.3028
51.3164
51.3302
51.3441
51.3581
51.3723
51.3866
51.401
51.4156
51.4303
51.4452
51.4602
51.4754
51.4906
51.5061
51.5216
51.5373
51.5531
51.5691
51.5852
51.6014
51.6177
51.6342
51.6508
51.6675
51.6844
51.7014
51.7185
51.7357
51.7531
51.7706
51.7881
51.8059
51.8237
51.8417
51.8596
51.878
51.896
51.9148
51.9328
51.952
51.97
51.9896
52.0077
52.0276
52.0457
52.066
52.084
52.1047
52.1193
52.156
50.5494
50.5495
50.5495
50.5496
50.5497
50.5498
50.5499
50.55
50.5502
50.5504
50.5506
50.5508
50.551
50.5513
50.5516
50.5519
50.5523
50.5526
50.553
50.5534
50.5539
50.5544
50.5549
50.5554
50.556
50.5567
50.5573
50.558
50.5587
50.5595
50.5604
50.5612
50.5621
50.5631
50.5641
50.5652
50.5663
50.5675
50.5687
50.5699
50.5713
50.5727
50.5741
50.5757
50.5772
50.5789
50.5806
50.5824
50.5842
50.5861
50.5881
50.5901
50.5923
50.5945
50.5967
50.5991
50.6016
50.6041
50.6068
50.6095
50.6124
50.6153
50.6182
50.6213
50.6244
50.6276
50.6309
50.6343
50.6378
50.6414
50.645
50.6488
50.6527
50.6567
50.6607
50.6649
50.6692
50.6736
50.6781
50.6827
50.6874
50.6923
50.6972
50.7022
50.7074
50.7126
50.7179
50.7233
50.7288
50.7344
50.7402
50.746
50.752
50.7581
50.7643
50.7706
50.7771
50.7837
50.7904
50.7973
50.8042
50.8112
50.8184
50.8257
50.8331
50.8406
50.8483
50.856
50.8639
50.8719
50.8801
50.8883
50.8967
50.9053
50.9139
50.9227
50.9316
50.9407
50.9498
50.9591
50.9686
50.9781
50.9879
50.9977
51.0077
51.0178
51.028
51.0384
51.049
51.0596
51.0704
51.0814
51.0924
51.1037
51.115
51.1265
51.1381
51.1499
51.1618
51.1739
51.1861
51.1984
51.2109
51.2235
51.2363
51.2492
51.2622
51.2754
51.2887
51.3022
51.3158
51.3296
51.3435
51.3575
51.3717
51.386
51.4004
51.415
51.4297
51.4446
51.4596
51.4747
51.49
51.5054
51.521
51.5367
51.5525
51.5685
51.5845
51.6008
51.6171
51.6336
51.6502
51.6669
51.6838
51.7008
51.7179
51.7351
51.7525
51.77
51.7875
51.8053
51.8231
51.8411
51.859
51.8774
51.8954
51.9142
51.9322
51.9514
51.9694
51.989
52.007
52.027
52.0451
52.0654
52.0834
52.1041
52.1181
52.1602
52.1745
52.1869
52.1936
52.1977
52.2013
52.2048
52.2082
52.2116
52.2148
52.2181
52.2213
52.2246
52.2279
52.2311
52.2341
52.2368
52.2391
52.2409
52.2422
52.2431
52.173
52.1847
52.1917
52.1962
52.1999
52.2036
52.2073
52.2107
52.2141
52.2173
52.2205
52.2238
52.227
52.2301
52.2329
52.2355
52.2378
52.2397
52.241
52.2421
52.1717
52.1836
52.1912
52.1957
52.1996
52.2034
52.2071
52.2106
52.214
52.2171
52.2204
52.2237
52.2268
52.23
52.2328
52.2354
52.2378
52.2396
52.2409
52.2411
52.1671
52.1749
52.1795
52.1832
52.1866
52.1902
52.1937
52.1972
52.2005
52.2039
52.207
52.2104
52.2136
52.2164
52.2191
52.2215
52.2236
52.2254
52.2266
52.2275
52.1629
52.17
52.1763
52.1818
52.1866
52.1907
52.1944
52.198
52.2013
52.2047
52.2076
52.2109
52.2142
52.2173
52.2201
52.2226
52.2249
52.227
52.2286
52.23
52.1481
52.1488
52.149
52.1493
52.1502
52.152
52.1544
52.1572
52.16
52.1633
52.1661
52.1692
52.1727
52.1758
52.1789
52.1821
52.1853
52.189
52.1928
52.1975
52.1383
52.1381
52.1412
52.1456
52.1497
52.1534
52.157
52.1605
52.1641
52.1676
52.1716
52.1752
52.1779
52.1815
52.185
52.1888
52.1928
52.1975
52.2026
52.2084
52.1192
52.109
52.101
52.0963
52.0946
52.0946
52.0957
52.0977
52.1005
52.1038
52.1077
52.1119
52.1162
52.1216
52.1272
52.1337
52.1409
52.1493
52.1586
52.1698
52.1166
52.1064
52.1005
52.0982
52.0978
52.0986
52.1003
52.1027
52.1059
52.1097
52.114
52.1186
52.1236
52.1291
52.1352
52.1417
52.1489
52.1571
52.1664
52.1768
52.112
52.0951
52.0866
52.0829
52.0813
52.0812
52.0821
52.0839
52.0864
52.0896
52.0934
52.0975
52.1021
52.1073
52.1131
52.1196
52.127
52.1356
52.1456
52.1575
52.2341
52.2404
52.2539
52.2692
52.285
52.3009
52.3166
52.3323
52.3481
52.364
52.3801
52.3962
52.4124
52.4285
52.4447
52.4609
52.4771
52.4933
52.5096
52.5259
52.5422
52.5585
52.5748
52.5912
52.6076
52.624
52.6404
52.6569
52.6733
52.6898
52.7062
52.7226
52.7391
52.7555
52.772
52.7885
52.805
52.8215
52.838
52.8545
52.8709
52.8874
52.9039
52.9203
52.9367
52.9532
52.9696
52.986
53.0023
53.0187
53.035
53.0513
53.0676
53.0839
53.1002
53.1164
53.1327
53.1489
53.165
53.1812
53.1973
53.2133
53.2294
53.2454
53.2614
53.2774
53.2933
53.3092
53.325
53.3408
53.3566
53.3723
53.388
53.4037
53.4193
53.4348
53.4503
53.4657
53.4811
53.4964
53.5117
53.527
53.5422
53.5573
53.5724
53.5875
53.6024
53.6174
53.6323
53.6471
53.6619
53.6766
53.6913
53.7059
53.7204
53.7348
53.7493
53.7636
53.7779
53.7921
53.8063
53.8204
53.8344
53.8484
53.8623
53.8762
53.89
53.9038
53.9174
53.931
53.9445
53.9579
53.9714
53.9849
53.9984
54.0119
54.0254
54.0387
54.0518
54.0645
54.0772
54.0905
54.1046
54.119
54.1326
54.1436
54.1459
54.1288
54.1048
54.0811
54.0605
54.0452
54.0366
54.0356
54.0422
54.0545
54.0693
54.0913
54.136
54.1925
54.2416
54.2821
54.3139
54.3382
54.3574
54.3735
54.3877
54.4005
54.4112
54.4197
54.4287
54.4379
54.4474
54.457
54.4667
54.4763
54.486
54.4957
54.5053
54.5148
54.5243
54.5337
54.5431
54.5523
54.5615
54.5707
54.5797
54.5887
54.5976
54.6064
54.6151
54.6238
54.6324
54.6409
54.6493
54.6577
54.6658
54.6743
54.682
54.6905
54.6979
54.7063
54.7135
54.7218
54.7288
54.7371
54.7438
54.7519
54.7585
54.7664
54.7729
54.7807
54.787
54.7946
54.8008
54.8082
54.8142
54.8216
54.8269
54.8345
52.2346
52.2417
52.2553
52.2706
52.2864
52.3024
52.3182
52.334
52.3498
52.3657
52.3817
52.3979
52.4141
52.4303
52.4465
52.4626
52.4789
52.4951
52.5114
52.5277
52.544
52.5603
52.5767
52.593
52.6094
52.6258
52.6423
52.6587
52.6751
52.6916
52.7081
52.7245
52.741
52.7574
52.7739
52.7904
52.8069
52.8233
52.8398
52.8563
52.8728
52.8893
52.9057
52.9222
52.9386
52.9551
52.9715
52.9879
53.0043
53.0206
53.037
53.0533
53.0696
53.0858
53.1021
53.1183
53.1346
53.1508
53.167
53.1831
53.1992
53.2153
53.2313
53.2474
53.2633
53.2793
53.2952
53.3111
53.327
53.3428
53.3585
53.3743
53.3899
53.4056
53.4212
53.4368
53.4523
53.4677
53.4831
53.4985
53.5137
53.529
53.5442
53.5593
53.5744
53.5894
53.6044
53.6194
53.6343
53.6491
53.6639
53.6786
53.6932
53.7079
53.7224
53.7369
53.7513
53.7656
53.7799
53.7941
53.8083
53.8224
53.8364
53.8504
53.8643
53.8781
53.8919
53.9056
53.9192
53.9329
53.9463
53.9598
53.9733
53.9867
54
54.0134
54.0267
54.0397
54.0526
54.0653
54.0781
54.091
54.1044
54.1185
54.1328
54.1468
54.1606
54.1746
54.1891
54.2035
54.2173
54.2292
54.2369
54.2422
54.2465
54.2509
54.256
54.2624
54.2707
54.2816
54.2947
54.3085
54.3234
54.3389
54.3539
54.3683
54.382
54.3948
54.4063
54.4167
54.4269
54.4371
54.4471
54.4571
54.467
54.4768
54.4865
54.4962
54.5058
54.5154
54.5249
54.5343
54.5436
54.5529
54.5621
54.5712
54.5803
54.5893
54.5982
54.607
54.6157
54.6244
54.6329
54.6415
54.6498
54.6583
54.6663
54.6749
54.6825
54.6911
54.6985
54.7069
54.7141
54.7224
54.7294
54.7376
54.7444
54.7525
54.7591
54.767
54.7735
54.7812
54.7876
54.7952
54.8014
54.8088
54.8148
54.8221
54.8278
54.8349
52.2349
52.2421
52.2553
52.2704
52.2862
52.3021
52.3179
52.3337
52.3494
52.3654
52.3815
52.3976
52.4138
52.43
52.4461
52.4623
52.4786
52.4948
52.5111
52.5274
52.5437
52.56
52.5764
52.5927
52.6091
52.6255
52.6419
52.6584
52.6748
52.6913
52.7078
52.7242
52.7407
52.7571
52.7736
52.7901
52.8065
52.823
52.8395
52.856
52.8725
52.889
52.9054
52.9219
52.9383
52.9547
52.9712
52.9876
53.004
53.0203
53.0366
53.053
53.0692
53.0855
53.1018
53.118
53.1343
53.1505
53.1667
53.1828
53.1989
53.215
53.231
53.247
53.263
53.279
53.2949
53.3108
53.3267
53.3425
53.3582
53.3739
53.3896
53.4053
53.4209
53.4365
53.452
53.4674
53.4828
53.4982
53.5134
53.5287
53.5439
53.559
53.5741
53.5891
53.6041
53.6191
53.634
53.6488
53.6636
53.6783
53.693
53.7076
53.7221
53.7366
53.751
53.7653
53.7796
53.7938
53.808
53.8221
53.8361
53.8501
53.864
53.8778
53.8916
53.9053
53.9189
53.9325
53.946
53.9595
53.9729
53.9862
53.9996
54.0129
54.0262
54.0394
54.0523
54.065
54.0775
54.09
54.1031
54.1172
54.1323
54.1476
54.1632
54.1788
54.194
54.2089
54.2234
54.2375
54.2504
54.2605
54.2681
54.2747
54.2808
54.2871
54.294
54.3019
54.3109
54.321
54.3321
54.3439
54.3563
54.3687
54.3809
54.3927
54.4041
54.4152
54.4259
54.4364
54.4467
54.4568
54.4668
54.4766
54.4864
54.4962
54.5058
54.5154
54.5249
54.5343
54.5436
54.5529
54.5621
54.5712
54.5803
54.5893
54.5982
54.607
54.6157
54.6244
54.6329
54.6415
54.6498
54.6583
54.6664
54.6749
54.6826
54.6911
54.6985
54.7069
54.7141
54.7224
54.7294
54.7376
54.7444
54.7525
54.7591
54.767
54.7735
54.7812
54.7876
54.7952
54.8014
54.8088
54.8148
54.8221
54.8279
54.8351
52.2259
52.2367
52.2514
52.2666
52.2822
52.2979
52.3138
52.3298
52.3456
52.3614
52.3773
52.3932
52.4093
52.4254
52.4416
52.4578
52.474
52.4903
52.5065
52.5228
52.5391
52.5554
52.5717
52.5881
52.6045
52.6209
52.6373
52.6537
52.6702
52.6866
52.7031
52.7195
52.736
52.7525
52.7689
52.7854
52.8019
52.8184
52.8349
52.8513
52.8678
52.8843
52.9007
52.9172
52.9336
52.9501
52.9665
52.9829
52.9993
53.0156
53.0319
53.0482
53.0645
53.0808
53.0971
53.1133
53.1296
53.1458
53.1619
53.1781
53.1942
53.2103
53.2263
53.2423
53.2583
53.2743
53.2902
53.3061
53.3219
53.3377
53.3535
53.3693
53.385
53.4006
53.4162
53.4317
53.4472
53.4627
53.4781
53.4934
53.5087
53.5239
53.5391
53.5543
53.5694
53.5844
53.5994
53.6144
53.6292
53.6441
53.6589
53.6736
53.6882
53.7028
53.7174
53.7318
53.7462
53.7606
53.7749
53.7891
53.8033
53.8174
53.8315
53.8455
53.8594
53.8733
53.8871
53.9008
53.9145
53.9281
53.9418
53.9553
53.969
53.9826
53.996
54.0094
54.0226
54.0355
54.0483
54.0612
54.0743
54.0878
54.102
54.1165
54.1311
54.1453
54.1593
54.1733
54.1871
54.2006
54.2132
54.2249
54.2358
54.2459
54.2557
54.2653
54.275
54.2848
54.2949
54.3053
54.316
54.327
54.3382
54.3495
54.3608
54.372
54.3831
54.394
54.4047
54.4153
54.4258
54.4361
54.4463
54.4564
54.4664
54.4763
54.4861
54.4959
54.5056
54.5152
54.5247
54.5342
54.5435
54.5528
54.5621
54.5712
54.5803
54.5892
54.5981
54.607
54.6157
54.6244
54.6329
54.6415
54.6498
54.6583
54.6664
54.6748
54.6826
54.691
54.6986
54.7067
54.7143
54.7223
54.7295
54.7376
54.7444
54.7525
54.7591
54.767
54.7735
54.7813
54.7876
54.7952
54.8014
54.8088
54.8148
54.8221
54.8283
54.835
52.2326
52.2447
52.2589
52.2735
52.2887
52.3041
52.3197
52.3353
52.3511
52.3671
52.3831
52.3991
52.4152
52.4313
52.4474
52.4636
52.4798
52.496
52.5123
52.5286
52.545
52.5613
52.5777
52.594
52.6104
52.6268
52.6433
52.6597
52.6761
52.6926
52.709
52.7255
52.742
52.7585
52.775
52.7914
52.8079
52.8244
52.8408
52.8573
52.8738
52.8903
52.9067
52.9232
52.9396
52.956
52.9725
52.9889
53.0052
53.0216
53.038
53.0543
53.0706
53.0869
53.1031
53.1194
53.1356
53.1518
53.1679
53.1841
53.2002
53.2163
53.2324
53.2484
53.2644
53.2803
53.2962
53.3121
53.3279
53.3437
53.3595
53.3752
53.3909
53.4066
53.4221
53.4377
53.4532
53.4687
53.4841
53.4994
53.5147
53.53
53.5452
53.5603
53.5754
53.5905
53.6054
53.6204
53.6352
53.6501
53.6648
53.6795
53.6942
53.7088
53.7233
53.7378
53.7522
53.7665
53.7808
53.795
53.8092
53.8232
53.8373
53.8513
53.8651
53.8789
53.8927
53.9064
53.92
53.9336
53.947
53.9604
53.9737
53.987
54.0003
54.0134
54.0265
54.0395
54.0526
54.0655
54.0782
54.0907
54.1032
54.1159
54.1288
54.1418
54.1549
54.168
54.1811
54.194
54.2067
54.219
54.2309
54.2424
54.2537
54.2647
54.2756
54.2864
54.2973
54.3082
54.319
54.3299
54.3408
54.3516
54.3624
54.3731
54.3838
54.3944
54.4049
54.4153
54.4256
54.4359
54.4461
54.4562
54.4662
54.4761
54.486
54.4958
54.5055
54.5151
54.5246
54.5341
54.5435
54.5528
54.562
54.5712
54.5802
54.5892
54.5981
54.607
54.6157
54.6244
54.6329
54.6415
54.6499
54.6582
54.6665
54.6746
54.6829
54.6907
54.6988
54.7066
54.7143
54.7222
54.7296
54.7374
54.7447
54.7521
54.7595
54.7665
54.7741
54.7807
54.7881
54.7948
54.8016
54.8086
54.8151
54.8217
54.8283
54.8349
52.2091
52.227
52.2438
52.2599
52.2756
52.2911
52.3065
52.3219
52.3374
52.353
52.3688
52.3846
52.4005
52.4165
52.4326
52.4487
52.4649
52.4811
52.4973
52.5136
52.5299
52.5462
52.5626
52.5789
52.5953
52.6117
52.6281
52.6446
52.661
52.6775
52.6939
52.7104
52.7268
52.7433
52.7597
52.7762
52.7927
52.8092
52.8256
52.8421
52.8586
52.8751
52.8915
52.908
52.9244
52.9409
52.9573
52.9737
52.99
53.0064
53.0227
53.039
53.0553
53.0716
53.0879
53.1041
53.1203
53.1365
53.1527
53.1688
53.185
53.201
53.2171
53.2331
53.2491
53.2651
53.281
53.2969
53.3128
53.3286
53.3444
53.3601
53.3758
53.3914
53.407
53.4226
53.4381
53.4535
53.4689
53.4843
53.4996
53.5149
53.5301
53.5452
53.5603
53.5754
53.5905
53.6055
53.6204
53.6354
53.6502
53.665
53.6797
53.6944
53.709
53.7237
53.7383
53.7528
53.7673
53.7817
53.796
53.8103
53.8245
53.8386
53.8528
53.8669
53.881
53.8951
53.9092
53.9231
53.937
53.9508
53.9644
53.9778
53.9911
54.0042
54.0174
54.0309
54.0446
54.0585
54.0726
54.0868
54.1011
54.1153
54.1291
54.1426
54.1559
54.1691
54.182
54.1947
54.2072
54.2193
54.2311
54.2426
54.2538
54.2647
54.2755
54.2863
54.297
54.3078
54.3185
54.3293
54.3401
54.3509
54.3617
54.3724
54.3831
54.3937
54.4042
54.4147
54.4251
54.4354
54.4456
54.4558
54.4658
54.4758
54.4857
54.4956
54.5053
54.5149
54.5245
54.534
54.5434
54.5527
54.562
54.5711
54.5802
54.5892
54.5981
54.6069
54.6157
54.6243
54.633
54.6414
54.6499
54.6581
54.6666
54.6745
54.6829
54.6906
54.699
54.7064
54.7147
54.7218
54.73
54.737
54.7451
54.7518
54.7598
54.7664
54.7742
54.7806
54.7882
54.7945
54.802
54.8081
54.8155
54.8214
54.8286
54.8344
52.2272
52.2471
52.2633
52.2789
52.2945
52.3101
52.3259
52.3417
52.3577
52.3736
52.3896
52.4056
52.4217
52.4378
52.4539
52.4701
52.4863
52.5026
52.5189
52.5352
52.5515
52.5679
52.5843
52.6007
52.6171
52.6335
52.6499
52.6664
52.6828
52.6993
52.7157
52.7322
52.7487
52.7652
52.7816
52.7981
52.8146
52.8311
52.8476
52.8641
52.8805
52.897
52.9135
52.9299
52.9463
52.9627
52.9792
52.9956
53.0119
53.0283
53.0447
53.061
53.0773
53.0936
53.1099
53.1261
53.1423
53.1585
53.1747
53.1908
53.207
53.223
53.2391
53.2551
53.2711
53.287
53.3029
53.3188
53.3346
53.3504
53.3662
53.3819
53.3976
53.4132
53.4288
53.4444
53.4599
53.4753
53.4907
53.5061
53.5214
53.5367
53.5519
53.567
53.5821
53.5971
53.6121
53.6271
53.6419
53.6568
53.6715
53.6863
53.701
53.7156
53.7301
53.7446
53.759
53.7734
53.7877
53.8019
53.8161
53.8302
53.8443
53.8582
53.8721
53.886
53.8997
53.9134
53.9271
53.9407
53.9542
53.9677
53.9809
53.9942
54.0075
54.0207
54.0338
54.0466
54.0593
54.0722
54.0849
54.0976
54.1102
54.1229
54.1353
54.1472
54.159
54.1707
54.1825
54.1944
54.2065
54.2191
54.2322
54.2454
54.2583
54.2705
54.2818
54.2924
54.3025
54.3124
54.3223
54.3323
54.3424
54.3527
54.363
54.3733
54.3837
54.3942
54.4045
54.4149
54.4252
54.4355
54.4457
54.4558
54.4659
54.4758
54.4857
54.4956
54.5053
54.5149
54.5245
54.534
54.5434
54.5527
54.562
54.5711
54.5802
54.5892
54.5981
54.6069
54.6157
54.6243
54.633
54.6414
54.6499
54.6581
54.6666
54.6745
54.6829
54.6906
54.699
54.7064
54.7147
54.7218
54.73
54.737
54.7451
54.7518
54.7598
54.7663
54.7742
54.7806
54.7882
54.7945
54.802
54.8082
54.8154
54.8216
54.8282
54.8344
52.2064
52.2312
52.2487
52.2643
52.2793
52.2942
52.3092
52.3242
52.3394
52.3547
52.3701
52.3857
52.4014
52.4173
52.4333
52.4493
52.4655
52.4816
52.4979
52.5141
52.5304
52.5468
52.5631
52.5795
52.5959
52.6123
52.6287
52.6451
52.6616
52.678
52.6945
52.711
52.7274
52.7439
52.7604
52.7768
52.7933
52.8097
52.8262
52.8427
52.8592
52.8756
52.8921
52.9086
52.925
52.9414
52.9579
52.9743
52.9907
53.007
53.0233
53.0396
53.0559
53.0722
53.0885
53.1047
53.121
53.1372
53.1534
53.1695
53.1857
53.2018
53.2179
53.2339
53.25
53.266
53.2819
53.2979
53.3137
53.3296
53.3455
53.3612
53.377
53.3927
53.4083
53.4239
53.4394
53.4549
53.4703
53.4856
53.5009
53.5161
53.5313
53.5464
53.5615
53.5765
53.5915
53.6065
53.6214
53.6363
53.6511
53.6658
53.6806
53.6953
53.7099