/*--------------------------------*- C++ -*----------------------------------*\
| =========                 |                                                 |
| \\      /  F ield         | OpenFOAM: The Open Source CFD Toolbox           |
|  \\    /   O peration     | Version:  3.0.x                                 |
|   \\  /    A nd           | Web:      www.OpenFOAM.org                      |
|    \\/     M anipulation  |                                                 |
\*---------------------------------------------------------------------------*/
FoamFile
{
    version     2.0;
    format      ascii;
    class       surfaceScalarField;
    location    "0.31";
    object      phi;
}
// * * * * * * * * * * * * * * * * * * * * * * * * * * * * * * * * * * * * * //

dimensions      [1 0 -1 0 0 0 0];

internalField   nonuniform List<scalar> 
12415
(
5.79665
0.000327734
5.7964
0.000235095
5.79615
0.000224636
5.79591
0.000226683
5.79566
0.000227142
5.79541
0.000226958
5.79517
0.000226921
5.79492
0.000227013
5.79468
0.000227079
5.79446
0.000227252
5.79424
0.000227143
5.79402
0.000227334
5.79381
0.00022743
5.79359
0.000227519
5.79337
0.000227605
5.79315
0.000227687
5.79293
0.000227769
5.79272
0.000227853
5.79251
0.000227925
5.7923
0.000228129
5.79211
0.000228068
5.79192
0.000228249
5.79173
0.000228371
5.79155
0.000228494
5.79137
0.000228621
5.79119
0.000228748
5.79101
0.000228871
5.79082
0.000228987
5.79063
0.00022909
5.79043
0.000229173
5.79021
0.000229226
5.78999
0.000229232
5.78975
0.000229171
5.7895
0.000229013
5.78926
0.00022869
5.78901
0.000228249
5.78876
0.000227476
5.78851
0.000226385
5.78825
0.000224853
5.78799
0.00022278
5.78773
0.000220047
5.78746
0.000216538
5.7872
0.000212147
5.78693
0.000206782
5.78667
0.000200377
5.78643
0.000192897
5.78619
0.000184328
5.78597
0.000174795
5.78577
0.000164314
5.78558
0.000153028
5.78542
0.000141148
5.78528
0.000128861
5.78517
0.000116386
5.78507
0.000103964
5.785
9.17927e-05
5.78496
8.00902e-05
5.78493
6.90167e-05
5.78492
5.87302e-05
5.78492
4.93198e-05
5.78494
4.08669e-05
5.78497
3.33709e-05
5.785
2.68438e-05
5.78504
2.12438e-05
5.78508
1.65119e-05
5.78511
1.2573e-05
5.78515
9.34248e-06
5.78517
6.73124e-06
5.78518
4.65055e-06
5.78518
3.01547e-06
5.78517
1.75234e-06
5.78514
7.82697e-07
5.78509
5.527e-08
5.78503
-4.86694e-07
5.78495
-8.80736e-07
5.78486
-1.1637e-06
5.78476
-1.36992e-06
5.78464
-1.51153e-06
5.78451
-1.60758e-06
5.78438
-1.67387e-06
5.78424
-1.71937e-06
5.78409
-1.75051e-06
5.78395
-1.77181e-06
5.78382
-1.78617e-06
5.78368
-1.79665e-06
5.78356
-1.80449e-06
5.78346
-1.81084e-06
5.78336
-1.81652e-06
5.78328
-1.82171e-06
5.78322
-1.82675e-06
5.78317
-1.83211e-06
5.78315
-1.83772e-06
5.78313
-1.83812e-06
5.78313
-1.84747e-06
5.78315
-1.85305e-06
5.78317
-1.85532e-06
5.78321
-1.86003e-06
5.78324
-1.87369e-06
5.78328
-1.8709e-06
5.78331
-1.86992e-06
5.78334
-1.87201e-06
5.78335
-1.87342e-06
5.78335
-1.87258e-06
5.78333
-1.87377e-06
5.78329
-1.86971e-06
5.78322
-1.86678e-06
5.78312
-1.86379e-06
5.78299
-1.86002e-06
5.78282
-1.85605e-06
5.78262
-1.85207e-06
5.78239
-1.84825e-06
5.78212
-1.84475e-06
5.78181
-1.84174e-06
5.78147
-1.83932e-06
5.78111
-1.83446e-06
5.78071
-1.84063e-06
5.7803
-1.83793e-06
5.77986
-1.83978e-06
5.77942
-1.84309e-06
5.77896
-1.84791e-06
5.7785
-1.85424e-06
5.77805
-1.86206e-06
5.7776
-1.87121e-06
5.77715
-1.8814e-06
5.77672
-1.89233e-06
5.7763
-1.90373e-06
5.7759
-1.91541e-06
5.77551
-1.92716e-06
5.77514
-1.93873e-06
5.77477
-1.94983e-06
5.77442
-1.96022e-06
5.77407
-1.96969e-06
5.77372
-1.97807e-06
5.77336
-1.98523e-06
5.773
-1.99103e-06
5.77263
-1.99539e-06
5.77224
-1.99825e-06
5.77183
-1.9996e-06
5.77139
-1.99956e-06
5.77092
-1.99818e-06
5.77042
-1.99554e-06
5.76987
-1.99148e-06
5.76929
-1.98612e-06
5.76865
-1.97944e-06
5.76797
-1.97215e-06
5.76724
-1.96398e-06
5.76646
-1.95601e-06
5.76562
-1.94742e-06
5.76474
-1.93987e-06
5.76381
-1.93217e-06
5.76284
-1.92632e-06
5.76184
-1.92117e-06
5.76081
-1.91843e-06
5.75976
-1.91762e-06
5.7587
-1.91908e-06
5.75765
-1.92308e-06
5.7566
-1.92954e-06
5.75558
-1.93844e-06
5.75458
-1.94936e-06
5.75362
-1.96135e-06
5.7527
-1.9747e-06
5.75182
-1.98886e-06
5.75099
-2.00345e-06
5.7502
-2.01778e-06
5.74945
-2.03096e-06
5.74874
-2.04234e-06
5.74805
-2.05215e-06
5.74738
-2.05927e-06
5.74673
-2.06495e-06
5.74608
-2.0683e-06
5.74544
-2.07011e-06
5.74479
-2.07045e-06
5.74414
-2.06999e-06
5.74347
-2.06836e-06
5.74278
-2.06474e-06
5.74207
-2.05959e-06
5.74133
-2.05206e-06
5.74055
-2.0434e-06
5.73973
-2.03356e-06
5.73885
-2.02166e-06
5.73792
-2.00803e-06
5.73692
-1.99257e-06
5.73585
-1.97566e-06
5.7347
-1.9581e-06
5.73349
-1.94012e-06
5.7322
-1.92296e-06
5.73084
-1.90678e-06
5.72943
-1.89265e-06
5.72796
-1.88151e-06
5.72647
-1.87381e-06
5.72495
-1.86954e-06
5.72343
-1.85718e-06
5.72194
-1.77018e-06
5.72049
-1.21936e-06
5.7191
2.82544e-06
5.71777
3.11714e-05
5.71635
0.000229674
5.71363
0.00161744
5.70133
0.0113123
5.61095
0.0894819
0.440771
5.16936
11.5941
0.000260485
11.594
0.000215779
11.594
0.000189363
11.594
0.000194036
11.594
0.000195339
11.594
0.000194765
11.594
0.000194625
11.594
0.000194704
11.594
0.000194772
11.594
0.000194894
11.5941
0.000194862
11.5941
0.000194998
11.5942
0.000195096
11.5943
0.000195181
11.5943
0.000195264
11.5944
0.000195346
11.5944
0.000195427
11.5945
0.000195509
11.5945
0.000195589
11.5946
0.000195742
11.5947
0.000195748
11.5948
0.000195887
11.5949
0.000196008
11.5951
0.000196124
11.5952
0.000196244
11.5953
0.000196365
11.5954
0.000196482
11.5956
0.000196593
11.5957
0.000196693
11.5957
0.000196776
11.5958
0.000196833
11.5958
0.000196851
11.5959
0.00019681
11.5959
0.000196684
11.5959
0.000196424
11.5958
0.000196049
11.5958
0.000195397
11.5958
0.000194471
11.5958
0.000193163
11.5957
0.000191388
11.5957
0.000189044
11.5956
0.000186031
11.5955
0.000182257
11.5954
0.000177644
11.5954
0.000172133
11.5953
0.000165696
11.5952
0.000158328
11.5951
0.000150113
11.5951
0.000141097
11.595
0.000131385
11.595
0.000121164
11.595
0.000110595
11.595
9.98674e-05
11.5951
8.91861e-05
11.5951
7.87265e-05
11.5952
6.86712e-05
11.5953
5.91607e-05
11.5954
5.03292e-05
11.5955
4.22514e-05
11.5956
3.49986e-05
11.5958
2.85706e-05
11.5959
2.29743e-05
11.596
1.81754e-05
11.5961
1.41216e-05
11.5962
1.07487e-05
11.5963
7.98329e-06
11.5964
5.74914e-06
11.5964
3.96974e-06
11.5964
2.57249e-06
11.5964
1.49371e-06
11.5963
6.67658e-07
11.5962
4.69349e-08
11.5961
-4.16823e-07
11.5959
-7.53706e-07
11.5958
-9.96182e-07
11.5955
-1.17242e-06
11.5953
-1.29459e-06
11.595
-1.37719e-06
11.5948
-1.4342e-06
11.5945
-1.47355e-06
11.5942
-1.50044e-06
11.5939
-1.51874e-06
11.5936
-1.53125e-06
11.5934
-1.54028e-06
11.5931
-1.5471e-06
11.5929
-1.55256e-06
11.5927
-1.55747e-06
11.5925
-1.56193e-06
11.5924
-1.56631e-06
11.5923
-1.57087e-06
11.5923
-1.57555e-06
11.5922
-1.57587e-06
11.5922
-1.5847e-06
11.5923
-1.58815e-06
11.5923
-1.59113e-06
11.5924
-1.59526e-06
11.5924
-1.60533e-06
11.5925
-1.60466e-06
11.5926
-1.60347e-06
11.5926
-1.60504e-06
11.5926
-1.60626e-06
11.5926
-1.60571e-06
11.5926
-1.60639e-06
11.5925
-1.60325e-06
11.5923
-1.60057e-06
11.5921
-1.59801e-06
11.5919
-1.59481e-06
11.5915
-1.5914e-06
11.5911
-1.58799e-06
11.5907
-1.58472e-06
11.5901
-1.58172e-06
11.5895
-1.57913e-06
11.5888
-1.57699e-06
11.5881
-1.57371e-06
11.5873
-1.57738e-06
11.5865
-1.57598e-06
11.5856
-1.57747e-06
11.5847
-1.5803e-06
11.5838
-1.58443e-06
11.5828
-1.58987e-06
11.5819
-1.59657e-06
11.581
-1.60441e-06
11.5801
-1.61315e-06
11.5793
-1.62253e-06
11.5784
-1.63231e-06
11.5776
-1.64232e-06
11.5768
-1.65239e-06
11.5761
-1.66231e-06
11.5753
-1.67182e-06
11.5746
-1.68074e-06
11.5739
-1.68886e-06
11.5732
-1.69605e-06
11.5725
-1.70218e-06
11.5718
-1.70716e-06
11.571
-1.71089e-06
11.5702
-1.71335e-06
11.5694
-1.71451e-06
11.5685
-1.71446e-06
11.5676
-1.71328e-06
11.5666
-1.71101e-06
11.5655
-1.70753e-06
11.5643
-1.70295e-06
11.563
-1.69724e-06
11.5617
-1.69096e-06
11.5602
-1.68399e-06
11.5586
-1.67711e-06
11.557
-1.66981e-06
11.5552
-1.66328e-06
11.5533
-1.65672e-06
11.5514
-1.65169e-06
11.5494
-1.64726e-06
11.5473
-1.64498e-06
11.5452
-1.64416e-06
11.5431
-1.64557e-06
11.541
-1.64886e-06
11.5389
-1.65452e-06
11.5368
-1.66204e-06
11.5348
-1.67146e-06
11.5329
-1.68183e-06
11.5311
-1.69316e-06
11.5293
-1.70529e-06
11.5276
-1.71783e-06
11.526
-1.73011e-06
11.5245
-1.74151e-06
11.5231
-1.75096e-06
11.5217
-1.75977e-06
11.5204
-1.76548e-06
11.5191
-1.77085e-06
11.5178
-1.77326e-06
11.5165
-1.77509e-06
11.5152
-1.77529e-06
11.5139
-1.77477e-06
11.5125
-1.77358e-06
11.5111
-1.77016e-06
11.5097
-1.76624e-06
11.5082
-1.75946e-06
11.5067
-1.752e-06
11.505
-1.74377e-06
11.5033
-1.73327e-06
11.5014
-1.72181e-06
11.4994
-1.70856e-06
11.4972
-1.69393e-06
11.495
-1.67911e-06
11.4925
-1.66334e-06
11.4899
-1.64895e-06
11.4872
-1.63488e-06
11.4844
-1.62273e-06
11.4814
-1.61351e-06
11.4784
-1.60632e-06
11.4754
-1.5983e-06
11.4724
-1.56397e-06
11.4694
-1.29472e-06
11.4665
3.55165e-07
11.4637
1.23675e-05
11.461
9.63681e-05
11.4582
0.000684433
11.4528
0.00479348
11.4288
0.0333373
11.2796
0.23687
1.10943
10.6093
139.128
-0.000260485
139.128
-0.000215779
139.128
-0.000189363
139.128
-0.000194036
139.128
-0.000195339
139.128
-0.000194765
139.128
-0.000194625
139.128
-0.000194704
139.128
-0.000194772
139.128
-0.000194894
139.129
-0.000194862
139.13
-0.000194998
139.13
-0.000195096
139.131
-0.000195181
139.132
-0.000195264
139.132
-0.000195346
139.133
-0.000195427
139.133
-0.000195509
139.134
-0.000195589
139.135
-0.000195742
139.136
-0.000195748
139.138
-0.000195887
139.139
-0.000196008
139.141
-0.000196124
139.142
-0.000196244
139.144
-0.000196365
139.145
-0.000196482
139.147
-0.000196593
139.148
-0.000196693
139.149
-0.000196776
139.15
-0.000196833
139.15
-0.000196851
139.15
-0.00019681
139.15
-0.000196684
139.15
-0.000196424
139.15
-0.000196049
139.15
-0.000195397
139.15
-0.000194471
139.149
-0.000193163
139.149
-0.000191388
139.148
-0.000189044
139.147
-0.000186031
139.146
-0.000182257
139.145
-0.000177644
139.144
-0.000172133
139.143
-0.000165696
139.142
-0.000158328
139.142
-0.000150113
139.141
-0.000141097
139.14
-0.000131385
139.14
-0.000121164
139.14
-0.000110595
139.14
-9.98674e-05
139.141
-8.91861e-05
139.142
-7.87265e-05
139.142
-6.86712e-05
139.144
-5.91607e-05
139.145
-5.03292e-05
139.146
-4.22514e-05
139.148
-3.49986e-05
139.149
-2.85706e-05
139.151
-2.29743e-05
139.152
-1.81754e-05
139.153
-1.41216e-05
139.155
-1.07487e-05
139.156
-7.98329e-06
139.156
-5.74914e-06
139.157
-3.96974e-06
139.157
-2.57249e-06
139.157
-1.49371e-06
139.156
-6.67661e-07
139.155
-4.6939e-08
139.153
4.16821e-07
139.151
7.53704e-07
139.149
9.96183e-07
139.147
1.17242e-06
139.144
1.29459e-06
139.141
1.37719e-06
139.137
1.4342e-06
139.134
1.47355e-06
139.13
1.50044e-06
139.127
1.51874e-06
139.124
1.53125e-06
139.12
1.54029e-06
139.118
1.5471e-06
139.115
1.55256e-06
139.113
1.55747e-06
139.111
1.56193e-06
139.109
1.56631e-06
139.108
1.57087e-06
139.107
1.57555e-06
139.107
1.57587e-06
139.107
1.58471e-06
139.107
1.58815e-06
139.108
1.59114e-06
139.108
1.59526e-06
139.109
1.60533e-06
139.11
1.60466e-06
139.111
1.60347e-06
139.111
1.60503e-06
139.112
1.60626e-06
139.112
1.60571e-06
139.111
1.60639e-06
139.11
1.60325e-06
139.108
1.60058e-06
139.106
1.59801e-06
139.103
1.59481e-06
139.098
1.5914e-06
139.094
1.58799e-06
139.088
1.58472e-06
139.081
1.58172e-06
139.074
1.57913e-06
139.066
1.57699e-06
139.057
1.57371e-06
139.047
1.57738e-06
139.037
1.57598e-06
139.027
1.57747e-06
139.016
1.58031e-06
139.005
1.58443e-06
138.994
1.58986e-06
138.983
1.59657e-06
138.972
1.60441e-06
138.962
1.61315e-06
138.951
1.62253e-06
138.941
1.63231e-06
138.931
1.64232e-06
138.922
1.65239e-06
138.913
1.6623e-06
138.904
1.67182e-06
138.896
1.68073e-06
138.887
1.68886e-06
138.879
1.69604e-06
138.87
1.70218e-06
138.861
1.70715e-06
138.852
1.71089e-06
138.843
1.71334e-06
138.833
1.71451e-06
138.823
1.71446e-06
138.811
1.71329e-06
138.799
1.711e-06
138.786
1.70755e-06
138.772
1.70292e-06
138.757
1.69728e-06
138.74
1.69089e-06
138.722
1.68409e-06
138.704
1.67697e-06
138.684
1.66999e-06
138.662
1.66304e-06
138.64
1.65701e-06
138.617
1.65134e-06
138.593
1.64763e-06
138.568
1.64468e-06
138.543
1.64444e-06
138.517
1.64522e-06
138.492
1.64917e-06
138.467
1.65416e-06
138.442
1.66255e-06
138.418
1.67117e-06
138.395
1.68184e-06
138.373
1.69308e-06
138.352
1.70544e-06
138.332
1.71796e-06
138.313
1.72993e-06
138.295
1.74088e-06
138.277
1.75235e-06
138.261
1.7583e-06
138.245
1.76721e-06
138.229
1.76906e-06
138.213
1.77456e-06
138.198
1.77443e-06
138.182
1.77532e-06
138.166
1.77485e-06
138.15
1.77296e-06
138.134
1.77143e-06
138.117
1.76538e-06
138.099
1.76034e-06
138.08
1.75104e-06
138.06
1.74353e-06
138.039
1.73347e-06
138.017
1.72271e-06
137.993
1.7076e-06
137.967
1.69435e-06
137.94
1.67892e-06
137.91
1.66373e-06
137.879
1.64848e-06
137.847
1.63508e-06
137.813
1.62389e-06
137.777
1.61251e-06
137.741
1.60472e-06
137.705
1.61917e-06
137.669
1.6375e-06
137.633
1.97869e-06
137.598
4.18636e-06
137.565
2.00109e-05
137.533
0.000132555
137.504
0.000936525
137.476
0.00669527
137.438
0.0481804
137.269
0.383761
1.65081
136.708
11.5941
-0.000327734
11.594
-0.000235095
11.594
-0.000224636
11.594
-0.000226683
11.594
-0.000227142
11.594
-0.000226958
11.594
-0.000226921
11.594
-0.000227013
11.594
-0.000227079
11.594
-0.000227252
11.5941
-0.000227143
11.5941
-0.000227334
11.5942
-0.00022743
11.5943
-0.000227519
11.5943
-0.000227605
11.5944
-0.000227687
11.5944
-0.000227769
11.5945
-0.000227853
11.5945
-0.000227925
11.5946
-0.000228129
11.5947
-0.000228068
11.5948
-0.000228249
11.5949
-0.000228371
11.5951
-0.000228494
11.5952
-0.000228621
11.5953
-0.000228748
11.5954
-0.000228871
11.5956
-0.000228987
11.5957
-0.00022909
11.5957
-0.000229173
11.5958
-0.000229226
11.5958
-0.000229232
11.5959
-0.000229171
11.5959
-0.000229013
11.5959
-0.00022869
11.5958
-0.000228249
11.5958
-0.000227476
11.5958
-0.000226385
11.5958
-0.000224853
11.5957
-0.00022278
11.5957
-0.000220047
11.5956
-0.000216538
11.5955
-0.000212147
11.5954
-0.000206782
11.5954
-0.000200377
11.5953
-0.000192897
11.5952
-0.000184328
11.5951
-0.000174795
11.5951
-0.000164314
11.595
-0.000153028
11.595
-0.000141148
11.595
-0.000128861
11.595
-0.000116386
11.5951
-0.000103964
11.5951
-9.17927e-05
11.5952
-8.00902e-05
11.5953
-6.90167e-05
11.5954
-5.87302e-05
11.5955
-4.93198e-05
11.5956
-4.08669e-05
11.5958
-3.33709e-05
11.5959
-2.68438e-05
11.596
-2.12438e-05
11.5961
-1.65119e-05
11.5962
-1.2573e-05
11.5963
-9.34248e-06
11.5964
-6.73124e-06
11.5964
-4.65055e-06
11.5964
-3.01547e-06
11.5964
-1.75234e-06
11.5963
-7.82695e-07
11.5962
-5.527e-08
11.5961
4.86692e-07
11.5959
8.80735e-07
11.5958
1.1637e-06
11.5955
1.36993e-06
11.5953
1.51153e-06
11.595
1.60758e-06
11.5948
1.67387e-06
11.5945
1.71937e-06
11.5942
1.75051e-06
11.5939
1.77181e-06
11.5936
1.78617e-06
11.5934
1.79665e-06
11.5931
1.80449e-06
11.5929
1.81084e-06
11.5927
1.81652e-06
11.5925
1.82171e-06
11.5924
1.82675e-06
11.5923
1.83211e-06
11.5923
1.83772e-06
11.5922
1.83812e-06
11.5922
1.84747e-06
11.5923
1.85306e-06
11.5923
1.85532e-06
11.5924
1.86003e-06
11.5924
1.87369e-06
11.5925
1.8709e-06
11.5926
1.86992e-06
11.5926
1.87201e-06
11.5926
1.87342e-06
11.5926
1.87258e-06
11.5926
1.87377e-06
11.5925
1.86971e-06
11.5923
1.86678e-06
11.5921
1.86379e-06
11.5919
1.86002e-06
11.5915
1.85605e-06
11.5911
1.85207e-06
11.5907
1.84825e-06
11.5901
1.84475e-06
11.5895
1.84174e-06
11.5888
1.83932e-06
11.5881
1.83446e-06
11.5873
1.84063e-06
11.5865
1.83793e-06
11.5856
1.83978e-06
11.5847
1.84309e-06
11.5838
1.84791e-06
11.5828
1.85425e-06
11.5819
1.86206e-06
11.581
1.87121e-06
11.5801
1.8814e-06
11.5793
1.89233e-06
11.5784
1.90373e-06
11.5776
1.91542e-06
11.5768
1.92716e-06
11.5761
1.93872e-06
11.5753
1.94983e-06
11.5746
1.96022e-06
11.5739
1.96969e-06
11.5732
1.97807e-06
11.5725
1.98523e-06
11.5718
1.99103e-06
11.571
1.99539e-06
11.5702
1.99825e-06
11.5694
1.9996e-06
11.5685
1.99956e-06
11.5676
1.99818e-06
11.5666
1.99552e-06
11.5655
1.9915e-06
11.5643
1.98609e-06
11.563
1.9795e-06
11.5617
1.97206e-06
11.5602
1.9641e-06
11.5586
1.95585e-06
11.557
1.94762e-06
11.5552
1.93964e-06
11.5533
1.93242e-06
11.5514
1.92606e-06
11.5494
1.92141e-06
11.5473
1.91833e-06
11.5452
1.91766e-06
11.5431
1.91897e-06
11.541
1.92313e-06
11.5389
1.92951e-06
11.5368
1.93863e-06
11.5348
1.94923e-06
11.5329
1.9614e-06
11.5311
1.97463e-06
11.5293
1.9889e-06
11.5276
2.00352e-06
11.526
2.01769e-06
11.5245
2.03075e-06
11.5231
2.0428e-06
11.5217
2.05161e-06
11.5204
2.0599e-06
11.5191
2.06438e-06
11.5178
2.06871e-06
11.5165
2.06992e-06
11.5152
2.07047e-06
11.5139
2.06998e-06
11.5125
2.06814e-06
11.5111
2.06517e-06
11.5097
2.05927e-06
11.5082
2.05237e-06
11.5067
2.04311e-06
11.505
2.03348e-06
11.5033
2.02171e-06
11.5014
2.00835e-06
11.4994
1.99224e-06
11.4972
1.97581e-06
11.495
1.95804e-06
11.4925
1.94026e-06
11.4899
1.92277e-06
11.4872
1.90684e-06
11.4844
1.89307e-06
11.4814
1.88119e-06
11.4784
1.87328e-06
11.4754
1.87656e-06
11.4724
1.88241e-06
11.4694
2.00288e-06
11.4665
2.76307e-06
11.4637
8.16749e-06
11.4612
4.66369e-05
11.4594
0.000320707
11.4616
0.00230337
11.4906
0.017194
11.6854
0.187242
0.712678
12.6218
5.79665
5.7964
5.79615
5.79591
5.79566
5.79541
5.79517
5.79492
5.79468
5.79446
5.79424
5.79402
5.79381
5.79359
5.79337
5.79315
5.79293
5.79272
5.79251
5.7923
5.79211
5.79192
5.79173
5.79155
5.79137
5.79119
5.79101
5.79082
5.79063
5.79043
5.79021
5.78999
5.78975
5.7895
5.78926
5.78901
5.78876
5.78851
5.78825
5.78799
5.78773
5.78746
5.7872
5.78693
5.78667
5.78643
5.78619
5.78597
5.78577
5.78558
5.78542
5.78528
5.78517
5.78507
5.785
5.78496
5.78493
5.78492
5.78492
5.78494
5.78497
5.785
5.78504
5.78508
5.78511
5.78515
5.78517
5.78518
5.78518
5.78517
5.78514
5.78509
5.78503
5.78495
5.78486
5.78476
5.78464
5.78451
5.78438
5.78424
5.78409
5.78395
5.78382
5.78368
5.78356
5.78346
5.78336
5.78328
5.78322
5.78317
5.78315
5.78313
5.78313
5.78315
5.78317
5.78321
5.78324
5.78328
5.78331
5.78334
5.78335
5.78335
5.78333
5.78329
5.78322
5.78312
5.78299
5.78282
5.78262
5.78239
5.78212
5.78181
5.78147
5.78111
5.78071
5.7803
5.77986
5.77942
5.77896
5.7785
5.77805
5.7776
5.77715
5.77672
5.7763
5.7759
5.77551
5.77514
5.77477
5.77442
5.77407
5.77372
5.77336
5.773
5.77263
5.77224
5.77183
5.77139
5.77092
5.77042
5.76987
5.76929
5.76865
5.76797
5.76724
5.76646
5.76562
5.76474
5.76381
5.76284
5.76184
5.76081
5.75976
5.7587
5.75765
5.7566
5.75558
5.75458
5.75362
5.7527
5.75182
5.75099
5.7502
5.74945
5.74874
5.74805
5.74738
5.74673
5.74608
5.74544
5.74479
5.74414
5.74347
5.74278
5.74207
5.74133
5.74055
5.73973
5.73885
5.73792
5.73692
5.73585
5.7347
5.73349
5.7322
5.73084
5.72943
5.72796
5.72647
5.72495
5.72343
5.72194
5.72049
5.71912
5.71786
5.71699
5.7182
5.7344
5.92074
6.63259
5.04337
0.125775
5.05086
-0.0076951
5.04861
0.00205782
5.05711
-0.00870077
5.08153
-0.0246223
5.129
-0.0476809
5.19295
-0.0641991
5.21965
-0.0269758
5.1907
0.0287582
5.11847
0.0722265
5.04751
0.0714519
5.14683
-0.0979733
5.4906
-0.342947
5.97407
-0.483827
6.37465
-0.402215
6.48258
-0.110236
6.3654
0.115617
6.1747
0.190086
5.98093
0.193553
-0.395478
6.37711
10.5563
0.178359
10.5761
-0.0278967
10.6267
-0.048903
10.69
-0.0723967
10.7772
-0.112208
10.9144
-0.185253
11.0922
-0.242499
11.1955
-0.130828
11.192
0.0319669
11.0922
0.171987
10.9483
0.216325
11.0705
-0.21751
11.6398
-0.910749
12.5365
-1.38166
13.439
-1.30848
13.8853
-0.561079
13.8863
0.112195
13.6581
0.417401
13.1813
0.670396
-0.630904
13.4183
136.758
0.124593
136.83
-0.103742
136.832
-0.0536708
136.661
0.0950408
136.315
0.230072
135.807
0.320116
135.19
0.372304
134.693
0.361754
134.331
0.391417
134.137
0.361774
133.989
0.358602
133.428
0.337197
132.196
0.316178
130.522
0.291245
128.96
0.256537
128.19
0.211936
128.138
0.163118
128.446
0.107083
129.079
0.0324217
-0.169384
128.61
12.5659
0.180352
12.4683
-0.00641538
12.4222
-0.00782241
12.4932
0.0237558
12.6664
0.0565955
12.9033
0.0826685
13.1744
0.100362
13.4351
0.101424
13.7162
0.109587
13.975
0.103214
14.2326
0.101007
14.4749
0.0945945
14.7042
0.0867427
14.9191
0.07616
15.1147
0.0607196
15.2863
0.0401018
15.4349
0.0143176
15.5619
-0.0201655
15.6726
-0.0783844
-0.255536
15.7585
6.81285
6.80632
6.79839
6.82201
6.87843
6.96088
7.06094
7.16239
7.27178
7.37502
7.476
7.57052
7.65718
7.73323
7.79385
7.83384
7.84806
7.82781
7.74933
7.4937
7.47667
-1.09511
7.89136
-0.414892
7.94729
-0.0577122
7.8797
0.0667629
7.85579
0.0230554
7.89875
-0.0437691
7.93117
-0.0334006
7.93311
-0.00277157
7.92515
0.00720694
7.91965
0.00473265
7.917
0.0019086
7.91454
0.00177326
7.91086
0.00307275
7.90598
0.00431434
7.90066
0.00478505
7.89542
0.00474954
7.89042
0.00455595
7.88564
0.0043598
7.88108
0.00418134
7.87673
0.00399114
7.87263
0.0037605
7.86883
0.00347928
7.86537
0.00314798
7.86229
0.00277751
7.85961
0.00238299
7.85734
0.00198487
7.85543
0.00160825
7.85385
0.00128064
7.85252
0.0010307
7.85132
0.000881236
7.85015
0.000844906
7.8489
0.000919061
7.84749
0.00106982
7.84596
0.00118162
7.84472
0.000893286
7.84528
-0.000898742
7.85015
-0.00521064
7.85668
-0.00689348
7.86122
-0.00492801
7.86217
-0.00132228
7.86034
0.00146977
7.85796
0.00203868
7.85556
0.00206863
7.85338
0.0018509
7.8515
0.00156093
7.84989
0.00129248
7.84849
0.00108562
7.84721
0.000972092
7.84592
0.000976693
7.84447
0.00113127
7.8427
0.00145303
7.84041
0.00195323
7.83733
0.002764
7.83309
0.00392286
7.82725
0.00552859
7.81927
0.00768938
7.80855
0.0104285
7.79445
0.013832
7.7763
0.0178738
7.75354
0.0224896
7.72561
0.0276609
7.69201
0.0333682
7.65213
0.0396762
7.60525
0.0467214
7.55042
0.0547018
7.48654
0.0637931
7.41238
0.0740789
7.3267
0.085529
7.22827
0.0978523
7.11709
0.109808
6.99471
0.121495
6.86336
0.131085
6.72603
0.137408
6.58719
0.139518
6.4513
0.137458
6.32234
0.13005
6.20405
0.118912
6.09932
0.105051
6.00964
0.0898504
5.93513
0.074625
5.87484
0.060334
5.82719
0.047695
5.7903
0.0369518
5.76223
0.0281371
5.7412
0.0211094
5.72563
0.0156333
5.71425
0.0114465
5.706
0.00829592
5.70008
0.00595694
5.69586
0.00424058
5.69287
0.00299439
5.69075
0.00209844
5.68925
0.00145906
5.68817
0.00100714
5.68739
0.000690106
5.6868
0.000469419
5.68634
0.000316924
5.68595
0.000212377
5.68561
0.000141206
5.68529
9.31186e-05
5.68498
6.08659e-05
5.68466
3.93851e-05
5.68434
2.51948e-05
5.684
1.58914e-05
5.68365
9.82131e-06
5.68329
5.92448e-06
5.68291
3.41217e-06
5.68254
1.81594e-06
5.68215
8.08077e-07
5.68177
1.76227e-07
5.68139
-2.15306e-07
5.68102
-4.55102e-07
5.68066
-6.02928e-07
5.68031
-6.9355e-07
5.67999
-7.47797e-07
5.67969
-7.82657e-07
5.67941
-8.05321e-07
5.67915
-8.20761e-07
5.67892
-8.32932e-07
5.67873
-8.43424e-07
5.67855
-8.53268e-07
5.67841
-8.62923e-07
5.67829
-8.72735e-07
5.6782
-8.83256e-07
5.67812
-8.89097e-07
5.67807
-8.91494e-07
5.67803
-9.2443e-07
5.67801
-9.4676e-07
5.67799
-9.39108e-07
5.67798
-9.50798e-07
5.67798
-9.63226e-07
5.67797
-9.75486e-07
5.67795
-9.86167e-07
5.67793
-9.95666e-07
5.67788
-1.00578e-06
5.67782
-1.01256e-06
5.67774
-1.0199e-06
5.67763
-1.02539e-06
5.67748
-1.02962e-06
5.6773
-1.0324e-06
5.67708
-1.03364e-06
5.67681
-1.03321e-06
5.67649
-1.03108e-06
5.67612
-1.02729e-06
5.6757
-1.02203e-06
5.67522
-1.01545e-06
5.67468
-1.00776e-06
5.67409
-9.99136e-07
5.67344
-9.89856e-07
5.67274
-9.80128e-07
5.67198
-9.70322e-07
5.67117
-9.60625e-07
5.67032
-9.51402e-07
5.66943
-9.4274e-07
5.66851
-9.35075e-07
5.66756
-9.28398e-07
5.66659
-9.23257e-07
5.66561
-9.19492e-07
5.66463
-9.17596e-07
5.66366
-9.1724e-07
5.6627
-9.18792e-07
5.66175
-9.21786e-07
5.66084
-9.26437e-07
5.65995
-9.32298e-07
5.65911
-9.39459e-07
5.6583
-9.47361e-07
5.65753
-9.56048e-07
5.6568
-9.64965e-07
5.65612
-9.74291e-07
5.65547
-9.83326e-07
5.65487
-9.92586e-07
5.6543
-1.00126e-06
5.65376
-1.01028e-06
5.65326
-1.0187e-06
5.65279
-1.02759e-06
5.65235
-1.03576e-06
5.65193
-1.04469e-06
5.65154
-1.05296e-06
5.65117
-1.06212e-06
5.65081
-1.06984e-06
5.65048
-1.07901e-06
5.65015
-1.0858e-06
5.64984
-1.09371e-06
5.64952
-1.09808e-06
5.6492
-1.10346e-06
5.64886
-1.10418e-06
5.64849
-1.10598e-06
5.64809
-1.10287e-06
5.64765
-1.10602e-06
5.64716
-1.13175e-06
5.6466
-1.306e-06
5.64598
-2.22987e-06
5.6453
-7.06151e-06
5.64456
-3.20813e-05
5.64387
-0.000161618
5.64378
-0.000833536
5.64713
-0.00435744
5.66963
-0.0235809
5.84119
-0.172723
-0.672394
6.51234
14.4703
-2.13821
15.1684
-1.11361
15.3501
-0.242864
15.2099
0.205303
15.1087
0.122631
15.1567
-0.0932903
15.2232
-0.101949
15.238
-0.0191539
15.2244
0.0192317
15.2126
0.0150639
15.2076
0.00542769
15.2047
0.00325831
15.1999
0.00664074
15.1924
0.0106969
15.1835
0.0126769
15.1742
0.0130514
15.165
0.01281
15.1561
0.0124689
15.1474
0.0121471
15.1389
0.0117891
15.1306
0.0113219
15.1227
0.0107157
15.1153
0.00996717
15.1084
0.00910262
15.102
0.00816185
15.0962
0.00720432
15.0909
0.0063095
15.086
0.00557111
15.0813
0.00509628
15.0766
0.00498306
15.0715
0.00530469
15.0656
0.00609727
15.0587
0.00729679
15.0506
0.00858254
15.0419
0.00888533
15.0356
0.00465921
15.0391
-0.00936347
15.0506
-0.0191266
15.0634
-0.0184334
15.0716
-0.0102491
15.0735
-0.00119649
15.0725
0.00241495
15.0697
0.00416778
15.066
0.00490277
15.0617
0.0052544
15.0568
0.00556803
15.0512
0.00602003
15.0448
0.00674795
15.0373
0.00784881
15.0283
0.00939303
15.0177
0.0114383
15.005
0.0139479
14.9899
0.017233
14.9719
0.0213557
14.9502
0.0265516
14.9242
0.0331254
14.8929
0.0411585
14.8552
0.0509242
14.81
0.0624062
14.7564
0.0755085
14.6934
0.0901491
14.62
0.1063
14.5352
0.124083
14.4379
0.143766
14.3267
0.165711
14.2001
0.190144
14.0569
0.21699
13.8958
0.245677
13.7171
0.274646
13.5231
0.302432
13.3174
0.326772
13.1039
0.344657
12.8884
0.353707
12.6773
0.352862
12.476
0.340744
12.2891
0.318166
12.1211
0.287691
11.9745
0.252121
11.8501
0.214543
11.7472
0.177741
11.664
0.143706
11.5981
0.113777
11.5468
0.0884327
11.5075
0.0676232
11.4778
0.0509862
11.4556
0.0379651
11.4392
0.0279551
11.4272
0.0203763
11.4185
0.0147132
11.4123
0.0105305
11.4078
0.00747497
11.4046
0.00526255
11.4023
0.00367571
11.4006
0.00254761
11.3994
0.00175226
11.3984
0.00119607
11.3976
0.000810157
11.397
0.000544638
11.3963
0.000363314
11.3957
0.000240468
11.3951
0.000157884
11.3945
0.000102797
11.3939
6.63395e-05
11.3932
4.24055e-05
11.3925
2.67744e-05
11.3918
1.67278e-05
11.391
1.02478e-05
11.3903
6.12674e-06
11.3895
3.52438e-06
11.3887
1.89394e-06
11.388
8.79956e-07
11.3872
2.57554e-07
11.3865
-1.28146e-07
11.3858
-3.62728e-07
11.3852
-5.03773e-07
11.3846
-5.89984e-07
11.384
-6.43073e-07
11.3835
-6.76198e-07
11.383
-6.98306e-07
11.3826
-7.13989e-07
11.3823
-7.26381e-07
11.382
-7.36891e-07
11.3818
-7.46613e-07
11.3816
-7.55887e-07
11.3814
-7.61934e-07
11.3813
-7.66417e-07
11.3812
-7.9084e-07
11.3812
-8.09419e-07
11.3811
-8.07209e-07
11.3811
-8.148e-07
11.3811
-8.2591e-07
11.3811
-8.3632e-07
11.3811
-8.45491e-07
11.381
-8.53771e-07
11.3809
-8.62112e-07
11.3808
-8.68281e-07
11.3806
-8.74372e-07
11.3804
-8.79119e-07
11.3801
-8.82749e-07
11.3797
-8.85125e-07
11.3793
-8.86185e-07
11.3787
-8.85815e-07
11.3781
-8.83998e-07
11.3774
-8.80764e-07
11.3765
-8.76256e-07
11.3756
-8.70607e-07
11.3745
-8.64018e-07
11.3733
-8.56616e-07
11.372
-8.48688e-07
11.3706
-8.40327e-07
11.3691
-8.31972e-07
11.3674
-8.23593e-07
11.3657
-8.15767e-07
11.364
-8.08242e-07
11.3621
-8.01808e-07
11.3602
-7.95917e-07
11.3583
-7.91698e-07
11.3563
-7.88274e-07
11.3544
-7.86843e-07
11.3524
-7.86316e-07
11.3505
-7.87838e-07
11.3486
-7.9026e-07
11.3468
-7.94377e-07
11.345
-7.99262e-07
11.3433
-8.05549e-07
11.3417
-8.12177e-07
11.3401
-8.19754e-07
11.3387
-8.27229e-07
11.3373
-8.35477e-07
11.336
-8.42901e-07
11.3348
-8.51241e-07
11.3337
-8.58211e-07
11.3326
-8.66426e-07
11.3316
-8.73129e-07
11.3306
-8.81381e-07
11.3297
-8.87631e-07
11.3289
-8.96064e-07
11.3281
-9.0241e-07
11.3274
-9.11373e-07
11.3267
-9.1632e-07
11.326
-9.26017e-07
11.3253
-9.30042e-07
11.3247
-9.38895e-07
11.3241
-9.40218e-07
11.3234
-9.47368e-07
11.3227
-9.45325e-07
11.322
-9.50331e-07
11.3212
-9.46464e-07
11.3203
-9.65753e-07
11.3193
-1.05593e-06
11.3182
-1.58764e-06
11.317
-4.32783e-06
11.3156
-1.85525e-05
11.3141
-9.20952e-05
11.3127
-0.000472613
11.3125
-0.00244287
11.3188
-0.012678
11.3593
-0.0662432
11.5568
-0.372558
-1.5431
12.425
126.378
0.0583218
125.267
-0.0259143
125
0.0048664
125.154
0.0311903
125.226
0.0298169
125.095
0.0155
124.971
0.00187343
124.937
-0.00498442
124.94
-0.00284391
124.94
-0.00238728
124.933
-0.00400762
124.926
-0.00570685
124.924
-0.00666511
124.928
-0.00705657
124.936
-0.00735387
124.945
-0.00774626
124.955
-0.00814891
124.966
-0.00843085
124.978
-0.00852617
124.989
-0.00843244
125.001
-0.0081775
125.011
-0.00780069
125.021
-0.00733221
125.03
-0.00681075
125.037
-0.006268
125.043
-0.00572823
125.047
-0.00520241
125.05
-0.00468593
125.052
-0.00415729
125.054
-0.00361088
125.054
-0.00301902
125.055
-0.00230141
125.055
-0.00138745
125.056
-0.000569039
125.056
0.000111476
125.051
0.000530549
125.033
0.000402651
125.006
-0.00101297
124.981
-0.00274953
124.966
-0.0035496
124.959
-0.00338065
124.956
-0.00298205
124.954
-0.00281843
124.954
-0.00307048
124.955
-0.00380808
124.957
-0.00493206
124.962
-0.00649545
124.969
-0.00855441
124.981
-0.0112437
124.999
-0.0148209
125.026
-0.0196431
125.067
-0.0260394
125.12
-0.0348665
125.188
-0.0466537
125.275
-0.0620818
125.387
-0.081732
125.53
-0.106142
125.712
-0.135203
125.937
-0.168528
126.212
-0.205005
126.54
-0.242795
126.921
-0.279401
127.353
-0.311948
127.831
-0.337585
128.347
-0.354037
128.896
-0.360811
129.47
-0.358298
130.063
-0.347845
130.669
-0.331229
131.284
-0.310163
131.898
-0.285796
132.505
-0.25907
133.092
-0.230601
133.649
-0.20146
134.166
-0.172923
134.632
-0.145935
135.044
-0.121156
135.398
-0.0990855
135.696
-0.079983
135.941
-0.063802
136.138
-0.0503737
136.294
-0.0393666
136.416
-0.0304638
136.509
-0.023336
136.58
-0.0177004
136.634
-0.0132902
136.673
-0.00987746
136.702
-0.00726633
136.723
-0.00529109
136.738
-0.00381468
136.749
-0.00272173
136.755
-0.00192273
136.759
-0.00134483
136.761
-0.000931324
136.761
-0.000638614
136.76
-0.00043362
136.758
-0.000291439
136.754
-0.000193976
136.75
-0.000127782
136.745
-8.32878e-05
136.739
-5.36789e-05
136.733
-3.41694e-05
136.725
-2.14451e-05
136.718
-1.32324e-05
136.71
-7.96771e-06
136.701
-4.65822e-06