/*--------------------------------*- C++ -*----------------------------------*\
| =========                 |                                                 |
| \\      /  F ield         | OpenFOAM: The Open Source CFD Toolbox           |
|  \\    /   O peration     | Version:  3.0.x                                 |
|   \\  /    A nd           | Web:      www.OpenFOAM.org                      |
|    \\/     M anipulation  |                                                 |
\*---------------------------------------------------------------------------*/
FoamFile
{
    version     2.0;
    format      ascii;
    class       volVectorField;
    location    "0.31";
    object      U;
}
// * * * * * * * * * * * * * * * * * * * * * * * * * * * * * * * * * * * * * //

dimensions      [0 1 -1 0 0 0 0];

internalField   nonuniform List<vector> 
6900
(
(42.6982 0.000101131 0)
(42.6965 9.25746e-05 0)
(42.6947 8.99283e-05 0)
(42.6929 9.08566e-05 0)
(42.691 9.15841e-05 0)
(42.6892 9.19993e-05 0)
(42.6873 9.23203e-05 0)
(42.6855 9.25938e-05 0)
(42.6836 9.28085e-05 0)
(42.6818 9.30023e-05 0)
(42.68 9.31076e-05 0)
(42.6782 9.32448e-05 0)
(42.6764 9.33508e-05 0)
(42.6747 9.34381e-05 0)
(42.6729 9.35122e-05 0)
(42.6712 9.35765e-05 0)
(42.6696 9.36336e-05 0)
(42.668 9.36862e-05 0)
(42.6664 9.37329e-05 0)
(42.6648 9.3806e-05 0)
(42.6632 9.38243e-05 0)
(42.6617 9.3885e-05 0)
(42.6602 9.39403e-05 0)
(42.6587 9.39941e-05 0)
(42.6573 9.40478e-05 0)
(42.6558 9.41005e-05 0)
(42.6543 9.4151e-05 0)
(42.6528 9.41977e-05 0)
(42.6512 9.42388e-05 0)
(42.6497 9.42712e-05 0)
(42.6481 9.42907e-05 0)
(42.6464 9.4291e-05 0)
(42.6447 9.42633e-05 0)
(42.6429 9.41952e-05 0)
(42.6411 9.40653e-05 0)
(42.6392 9.3872e-05 0)
(42.6373 9.3552e-05 0)
(42.6353 9.31e-05 0)
(42.6333 9.2467e-05 0)
(42.6312 9.161e-05 0)
(42.6292 9.04817e-05 0)
(42.6271 8.90349e-05 0)
(42.625 8.72258e-05 0)
(42.623 8.50168e-05 0)
(42.621 8.23806e-05 0)
(42.619 7.93033e-05 0)
(42.6172 7.57834e-05 0)
(42.6155 7.18551e-05 0)
(42.6138 6.75475e-05 0)
(42.6124 6.29093e-05 0)
(42.6111 5.80254e-05 0)
(42.6099 5.2975e-05 0)
(42.609 4.7848e-05 0)
(42.6082 4.27405e-05 0)
(42.6076 3.77383e-05 0)
(42.6071 3.29276e-05 0)
(42.6068 2.8377e-05 0)
(42.6067 2.4148e-05 0)
(42.6067 2.02803e-05 0)
(42.6068 1.68029e-05 0)
(42.607 1.37221e-05 0)
(42.6072 1.10378e-05 0)
(42.6075 8.73477e-06 0)
(42.6079 6.78802e-06 0)
(42.6082 5.16715e-06 0)
(42.6085 3.83737e-06 0)
(42.6087 2.76239e-06 0)
(42.6088 1.90593e-06 0)
(42.6089 1.23352e-06 0)
(42.6089 7.14538e-07 0)
(42.6088 3.16636e-07 0)
(42.6085 1.68056e-08 0)
(42.6081 -2.09859e-07 0)
(42.6076 -3.74489e-07 0)
(42.607 -4.92918e-07 0)
(42.6062 -5.78212e-07 0)
(42.6054 -6.37857e-07 0)
(42.6045 -6.78662e-07 0)
(42.6035 -7.06732e-07 0)
(42.6024 -7.25903e-07 0)
(42.6013 -7.3893e-07 0)
(42.6002 -7.47763e-07 0)
(42.5992 -7.53733e-07 0)
(42.5981 -7.57864e-07 0)
(42.5971 -7.60798e-07 0)
(42.5963 -7.63015e-07 0)
(42.5955 -7.64825e-07 0)
(42.5948 -7.66358e-07 0)
(42.5943 -7.67778e-07 0)
(42.5939 -7.69235e-07 0)
(42.5936 -7.70761e-07 0)
(42.5934 -7.71258e-07 0)
(42.5934 -7.73533e-07 0)
(42.5935 -7.75089e-07 0)
(42.5937 -7.76199e-07 0)
(42.5939 -7.77541e-07 0)
(42.5942 -7.80982e-07 0)
(42.5946 -7.81614e-07 0)
(42.5949 -7.81921e-07 0)
(42.5952 -7.82822e-07 0)
(42.5954 -7.83711e-07 0)
(42.5955 -7.84138e-07 0)
(42.5955 -7.84916e-07 0)
(42.5953 -7.84613e-07 0)
(42.5949 -7.84472e-07 0)
(42.5944 -7.84296e-07 0)
(42.5935 -7.83948e-07 0)
(42.5925 -7.83522e-07 0)
(42.5912 -7.83079e-07 0)
(42.5896 -7.82624e-07 0)
(42.5878 -7.82227e-07 0)
(42.5857 -7.81886e-07 0)
(42.5833 -7.81616e-07 0)
(42.5807 -7.80807e-07 0)
(42.5779 -7.82142e-07 0)
(42.575 -7.81679e-07 0)
(42.5718 -7.82103e-07 0)
(42.5686 -7.82822e-07 0)
(42.5653 -7.83857e-07 0)
(42.562 -7.85239e-07 0)
(42.5587 -7.86954e-07 0)
(42.5554 -7.88993e-07 0)
(42.5522 -7.91285e-07 0)
(42.549 -7.93738e-07 0)
(42.546 -7.96292e-07 0)
(42.5432 -7.98914e-07 0)
(42.5404 -8.01568e-07 0)
(42.5378 -8.04212e-07 0)
(42.5352 -8.06784e-07 0)
(42.5328 -8.09222e-07 0)
(42.5305 -8.11468e-07 0)
(42.5281 -8.13485e-07 0)
(42.5258 -8.15251e-07 0)
(42.5235 -8.16732e-07 0)
(42.5211 -8.17907e-07 0)
(42.5186 -8.18749e-07 0)
(42.516 -8.19263e-07 0)
(42.5131 -8.19472e-07 0)
(42.5101 -8.19388e-07 0)
(42.5069 -8.19035e-07 0)
(42.5033 -8.1836e-07 0)
(42.4995 -8.1735e-07 0)
(42.4953 -8.15999e-07 0)
(42.4907 -8.14462e-07 0)
(42.4858 -8.12718e-07 0)
(42.4805 -8.10966e-07 0)
(42.4748 -8.09064e-07 0)
(42.4687 -8.07288e-07 0)
(42.4623 -8.05456e-07 0)
(42.4555 -8.03903e-07 0)
(42.4485 -8.02488e-07 0)
(42.4412 -8.0149e-07 0)
(42.4338 -8.00863e-07 0)
(42.4262 -8.00683e-07 0)
(42.4187 -8.00992e-07 0)
(42.4111 -8.01821e-07 0)
(42.4038 -8.03126e-07 0)
(42.3966 -8.04838e-07 0)
(42.3897 -8.06753e-07 0)
(42.383 -8.08908e-07 0)
(42.3768 -8.11291e-07 0)
(42.3708 -8.13879e-07 0)
(42.3653 -8.16498e-07 0)
(42.36 -8.18981e-07 0)
(42.3551 -8.21155e-07 0)
(42.3504 -8.23058e-07 0)
(42.3459 -8.24471e-07 0)
(42.3415 -8.25595e-07 0)
(42.3372 -8.26265e-07 0)
(42.333 -8.26649e-07 0)
(42.3288 -8.26733e-07 0)
(42.3245 -8.26691e-07 0)
(42.3202 -8.26471e-07 0)
(42.3157 -8.25784e-07 0)
(42.3111 -8.24651e-07 0)
(42.3063 -8.22943e-07 0)
(42.3012 -8.2095e-07 0)
(42.2958 -8.18718e-07 0)
(42.2901 -8.16039e-07 0)
(42.2839 -8.12953e-07 0)
(42.2772 -8.0942e-07 0)
(42.27 -8.05489e-07 0)
(42.2623 -8.0131e-07 0)
(42.254 -7.96935e-07 0)
(42.2451 -7.92621e-07 0)
(42.2356 -7.88406e-07 0)
(42.2257 -7.84495e-07 0)
(42.2154 -7.81074e-07 0)
(42.2047 -7.78257e-07 0)
(42.1939 -7.7619e-07 0)
(42.183 -7.72515e-07 0)
(42.1722 -7.55084e-07 0)
(42.1616 -6.77103e-07 0)
(42.1515 -6.92207e-08 0)
(42.1418 4.47351e-06 0)
(42.1322 3.64195e-05 0)
(42.1185 0.000260311 0)
(42.0716 0.00184249 0)
(41.8859 0.0165593 0)
(39.353 0.0858136 0)
(42.7 0.000128288 0)
(42.7 9.9063e-05 0)
(42.7 8.5913e-05 0)
(42.7 8.53774e-05 0)
(42.6999 8.53512e-05 0)
(42.6999 8.49518e-05 0)
(42.6998 8.46665e-05 0)
(42.6998 8.45135e-05 0)
(42.6997 8.44051e-05 0)
(42.6997 8.43605e-05 0)
(42.6996 8.42521e-05 0)
(42.6996 8.42527e-05 0)
(42.6997 8.4244e-05 0)
(42.6997 8.42408e-05 0)
(42.6998 8.42449e-05 0)
(42.6999 8.42548e-05 0)
(42.7 8.42698e-05 0)
(42.7002 8.42897e-05 0)
(42.7004 8.43095e-05 0)
(42.7006 8.43742e-05 0)
(42.7008 8.43578e-05 0)
(42.7011 8.44156e-05 0)
(42.7014 8.44629e-05 0)
(42.7018 8.4509e-05 0)
(42.7021 8.45573e-05 0)
(42.7024 8.46063e-05 0)
(42.7027 8.46545e-05 0)
(42.703 8.47006e-05 0)
(42.7033 8.47425e-05 0)
(42.7035 8.47773e-05 0)
(42.7037 8.48011e-05 0)
(42.7038 8.48083e-05 0)
(42.7039 8.47906e-05 0)
(42.704 8.47368e-05 0)
(42.704 8.4624e-05 0)
(42.7039 8.44652e-05 0)
(42.7037 8.41819e-05 0)
(42.7036 8.37846e-05 0)
(42.7033 8.32223e-05 0)
(42.703 8.24589e-05 0)
(42.7027 8.14507e-05 0)
(42.7023 8.01548e-05 0)
(42.7019 7.85314e-05 0)
(42.7016 7.65465e-05 0)
(42.7012 7.41754e-05 0)
(42.7008 7.14052e-05 0)
(42.7004 6.82324e-05 0)
(42.7001 6.46975e-05 0)
(42.6998 6.08167e-05 0)
(42.6996 5.66334e-05 0)
(42.6995 5.22314e-05 0)
(42.6994 4.76791e-05 0)
(42.6994 4.30577e-05 0)
(42.6995 3.84561e-05 0)
(42.6996 3.39489e-05 0)
(42.6999 2.96158e-05 0)
(42.7002 2.55166e-05 0)
(42.7005 2.17096e-05 0)
(42.7009 1.82279e-05 0)
(42.7014 1.51009e-05 0)
(42.7019 1.23291e-05 0)
(42.7024 9.91598e-06 0)
(42.7029 7.84663e-06 0)
(42.7033 6.09845e-06 0)
(42.7037 4.64394e-06 0)
(42.7041 3.45137e-06 0)
(42.7044 2.48779e-06 0)
(42.7046 1.72001e-06 0)
(42.7047 1.11654e-06 0)
(42.7047 6.49781e-07 0)
(42.7046 2.90894e-07 0)
(42.7043 2.32455e-08 0)
(42.7039 -1.75021e-07 0)
(42.7034 -3.19182e-07 0)
(42.7028 -4.23017e-07 0)
(42.702 -4.9873e-07 0)
(42.7012 -5.51129e-07 0)
(42.7002 -5.86328e-07 0)
(42.6992 -6.10491e-07 0)
(42.6981 -6.27101e-07 0)
(42.697 -6.38393e-07 0)
(42.6959 -6.46033e-07 0)
(42.6948 -6.51164e-07 0)
(42.6938 -6.54819e-07 0)
(42.6928 -6.57542e-07 0)
(42.6919 -6.59729e-07 0)
(42.6911 -6.61709e-07 0)
(42.6904 -6.6354e-07 0)
(42.6899 -6.65382e-07 0)
(42.6894 -6.67369e-07 0)
(42.6891 -6.69488e-07 0)
(42.689 -6.69739e-07 0)
(42.6889 -6.73468e-07 0)
(42.689 -6.75416e-07 0)
(42.6892 -6.76754e-07 0)
(42.6894 -6.78635e-07 0)
(42.6897 -6.83738e-07 0)
(42.69 -6.83733e-07 0)
(42.6903 -6.83397e-07 0)
(42.6906 -6.84258e-07 0)
(42.6908 -6.85072e-07 0)
(42.6909 -6.85081e-07 0)
(42.6908 -6.85704e-07 0)
(42.6906 -6.84497e-07 0)
(42.6902 -6.83544e-07 0)
(42.6897 -6.82568e-07 0)
(42.6888 -6.81291e-07 0)
(42.6878 -6.79886e-07 0)
(42.6865 -6.78441e-07 0)
(42.6849 -6.77021e-07 0)
(42.683 -6.75684e-07 0)
(42.6809 -6.74486e-07 0)
(42.6785 -6.73471e-07 0)
(42.6759 -6.71727e-07 0)
(42.6731 -6.73554e-07 0)
(42.6701 -6.72615e-07 0)
(42.667 -6.73177e-07 0)
(42.6637 -6.74328e-07 0)
(42.6604 -6.76073e-07 0)
(42.6571 -6.78426e-07 0)
(42.6537 -6.8138e-07 0)
(42.6504 -6.84882e-07 0)
(42.6472 -6.88826e-07 0)
(42.6441 -6.93097e-07 0)
(42.641 -6.97597e-07 0)
(42.6381 -7.02256e-07 0)
(42.6354 -7.06997e-07 0)
(42.6327 -7.1171e-07 0)
(42.6302 -7.16285e-07 0)
(42.6277 -7.20621e-07 0)
(42.6254 -7.24632e-07 0)
(42.623 -7.28252e-07 0)
(42.6207 -7.3143e-07 0)
(42.6183 -7.34112e-07 0)
(42.6159 -7.36262e-07 0)
(42.6134 -7.37862e-07 0)
(42.6108 -7.38891e-07 0)
(42.6079 -7.39384e-07 0)
(42.6049 -7.39352e-07 0)
(42.6016 -7.38811e-07 0)
(42.5981 -7.37688e-07 0)
(42.5942 -7.36027e-07 0)
(42.59 -7.33811e-07 0)
(42.5854 -7.31303e-07 0)
(42.5805 -7.28429e-07 0)
(42.5752 -7.25542e-07 0)
(42.5694 -7.22393e-07 0)
(42.5634 -7.19526e-07 0)
(42.5569 -7.16586e-07 0)
(42.5501 -7.14242e-07 0)
(42.5431 -7.12172e-07 0)
(42.5358 -7.10941e-07 0)
(42.5283 -7.10409e-07 0)
(42.5207 -7.10778e-07 0)
(42.5132 -7.12045e-07 0)
(42.5056 -7.14329e-07 0)
(42.4982 -7.17515e-07 0)
(42.491 -7.21537e-07 0)
(42.4841 -7.26031e-07 0)
(42.4775 -7.31051e-07 0)
(42.4712 -7.36472e-07 0)
(42.4652 -7.42167e-07 0)
(42.4597 -7.47846e-07 0)
(42.4544 -7.53234e-07 0)
(42.4494 -7.57934e-07 0)
(42.4447 -7.62262e-07 0)
(42.4402 -7.65527e-07 0)
(42.4358 -7.68439e-07 0)
(42.4315 -7.70381e-07 0)
(42.4273 -7.71884e-07 0)
(42.4231 -7.72779e-07 0)
(42.4188 -7.73379e-07 0)
(42.4144 -7.7354e-07 0)
(42.4099 -7.72738e-07 0)
(42.4053 -7.71376e-07 0)
(42.4005 -7.69015e-07 0)
(42.3954 -7.66163e-07 0)
(42.39 -7.62913e-07 0)
(42.3842 -7.58701e-07 0)
(42.378 -7.53806e-07 0)
(42.3713 -7.48064e-07 0)
(42.3641 -7.41644e-07 0)
(42.3563 -7.34931e-07 0)
(42.348 -7.27899e-07 0)
(42.3391 -7.21119e-07 0)
(42.3296 -7.14564e-07 0)
(42.3197 -7.08654e-07 0)
(42.3094 -7.03909e-07 0)
(42.2987 -7.00206e-07 0)
(42.2878 -6.96782e-07 0)
(42.2769 -6.85103e-07 0)
(42.2661 -5.97394e-07 0)
(42.2555 -2.95978e-09 0)
(42.2453 3.91325e-06 0)
(42.2357 3.13989e-05 0)
(42.2261 0.000223503 0)
(42.2125 0.00156518 0)
(42.1667 0.0108756 0)
(41.986 0.0782174 0)
(40.0192 0.370247 0)
(42.7 1.56239e-12 0)
(42.7 1.14618e-12 0)
(42.7 1.53335e-12 0)
(42.7 -6.21748e-13 0)
(42.6999 -3.24642e-12 0)
(42.6998 -7.03526e-12 0)
(42.6998 -1.06666e-11 0)
(42.6997 -1.04682e-11 0)
(42.6997 -8.23149e-12 0)
(42.6996 -3.72097e-12 0)
(42.6996 -8.73645e-13 0)
(42.6996 -1.05748e-12 0)
(42.6996 -2.56072e-12 0)
(42.6997 -2.27509e-12 0)
(42.6997 -4.02606e-12 0)
(42.6998 -5.73007e-12 0)
(42.7 -6.82382e-12 0)
(42.7001 -8.48778e-12 0)
(42.7003 -1.01654e-11 0)
(42.7006 -1.23023e-11 0)
(42.7008 -1.1429e-11 0)
(42.7011 -9.77038e-12 0)
(42.7014 -9.30753e-12 0)
(42.7017 -8.36679e-12 0)
(42.702 -7.84291e-12 0)
(42.7024 -6.75135e-12 0)
(42.7027 -5.89839e-12 0)
(42.703 -7.17363e-12 0)
(42.7032 -8.46388e-12 0)
(42.7035 -1.05203e-11 0)
(42.7037 -1.12344e-11 0)
(42.7038 -1.14358e-11 0)
(42.7039 -1.17239e-11 0)
(42.704 -1.1696e-11 0)
(42.7039 -1.15833e-11 0)
(42.7039 -1.22061e-11 0)
(42.7037 -1.32448e-11 0)
(42.7036 -1.53245e-11 0)
(42.7033 -1.53089e-11 0)
(42.703 -1.71434e-11 0)
(42.7027 -1.90644e-11 0)
(42.7023 -2.00621e-11 0)
(42.702 -2.03268e-11 0)
(42.7016 -2.02203e-11 0)
(42.7012 -1.90019e-11 0)
(42.7008 -1.72966e-11 0)
(42.7004 -1.64655e-11 0)
(42.7001 -1.55121e-11 0)
(42.6999 -1.46094e-11 0)
(42.6996 -1.45561e-11 0)
(42.6995 -1.51899e-11 0)
(42.6994 -1.61705e-11 0)
(42.6994 -1.75507e-11 0)
(42.6995 -1.84275e-11 0)
(42.6997 -1.90013e-11 0)
(42.6999 -1.81401e-11 0)
(42.7002 -1.95434e-11 0)
(42.7006 -1.9221e-11 0)
(42.701 -1.84998e-11 0)
(42.7014 -1.70691e-11 0)
(42.7019 -1.74931e-11 0)
(42.7024 -1.70664e-11 0)
(42.7029 -1.60257e-11 0)
(42.7033 -1.43549e-11 0)
(42.7038 -1.04592e-11 0)
(42.7041 -7.57596e-12 0)
(42.7044 -4.76659e-12 0)
(42.7046 -2.83375e-12 0)
(42.7047 2.3184e-13 0)
(42.7047 3.22196e-12 0)
(42.7046 4.5088e-12 0)
(42.7043 4.19801e-12 0)
(42.7039 4.86595e-12 0)
(42.7034 4.30817e-12 0)
(42.7028 5.14714e-12 0)
(42.702 5.36963e-12 0)
(42.7012 5.07522e-12 0)
(42.7002 4.10746e-12 0)
(42.6992 3.30723e-12 0)
(42.6981 -1.15984e-12 0)
(42.697 -4.81131e-12 0)
(42.6959 -8.64806e-12 0)
(42.6948 -1.10113e-11 0)
(42.6938 -1.21707e-11 0)
(42.6928 -1.26362e-11 0)
(42.6919 -1.2463e-11 0)
(42.6911 -1.28045e-11 0)
(42.6904 -1.27177e-11 0)
(42.6899 -1.18345e-11 0)
(42.6895 -1.0412e-11 0)
(42.6892 -1.09872e-11 0)
(42.689 -1.24956e-11 0)
(42.6889 -1.37621e-11 0)
(42.689 -1.43228e-11 0)
(42.6892 -1.37469e-11 0)
(42.6894 -1.37026e-11 0)
(42.6897 -1.51707e-11 0)
(42.69 -1.66153e-11 0)
(42.6903 -1.76712e-11 0)
(42.6906 -1.91433e-11 0)
(42.6908 -1.91548e-11 0)
(42.6909 -1.75171e-11 0)
(42.6908 -1.74739e-11 0)
(42.6906 -1.77511e-11 0)
(42.6903 -1.75196e-11 0)
(42.6897 -1.78039e-11 0)
(42.6889 -1.75065e-11 0)
(42.6878 -1.73443e-11 0)
(42.6865 -1.80538e-11 0)
(42.6849 -1.93038e-11 0)
(42.683 -1.90668e-11 0)
(42.6809 -1.75799e-11 0)
(42.6785 -1.63733e-11 0)
(42.6759 -1.52838e-11 0)
(42.6731 -1.50264e-11 0)
(42.6701 -1.27622e-11 0)
(42.667 -1.14413e-11 0)
(42.6638 -1.0225e-11 0)
(42.6604 -8.82989e-12 0)
(42.6571 -8.43311e-12 0)
(42.6538 -7.03264e-12 0)
(42.6505 -6.86374e-12 0)
(42.6472 -6.34755e-12 0)
(42.6441 -6.21056e-12 0)
(42.6411 -4.68422e-12 0)
(42.6382 -2.04869e-12 0)
(42.6354 -9.55e-13 0)
(42.6327 1.15181e-13 0)
(42.6302 1.5018e-12 0)
(42.6278 6.19841e-13 0)
(42.6254 9.66554e-13 0)
(42.623 3.29214e-12 0)
(42.6207 5.16123e-12 0)
(42.6184 5.78516e-12 0)
(42.6159 7.00697e-12 0)
(42.6134 8.34497e-12 0)
(42.6108 1.10748e-11 0)
(42.608 1.25872e-11 0)
(42.6049 1.51017e-11 0)
(42.6016 1.33386e-11 0)
(42.5981 1.77317e-11 0)
(42.5942 5.64109e-12 0)
(42.59 1.99503e-11 0)
(42.5854 -3.20305e-12 0)
(42.5805 3.30807e-11 0)
(42.5752 -2.00373e-11 0)
(42.5695 4.96183e-11 0)
(42.5634 -4.25335e-11 0)
(42.5569 6.57089e-11 0)
(42.5501 -6.55413e-11 0)
(42.5431 6.65581e-11 0)
(42.5358 -5.24453e-11 0)
(42.5283 3.06798e-11 0)
(42.5208 -9.6556e-11 0)
(42.5132 2.78203e-11 0)
(42.5057 -9.84733e-11 0)
(42.4983 9.56265e-12 0)
(42.4911 -1.55601e-10 0)
(42.4841 -1.30308e-10 0)
(42.4775 -2.14559e-10 0)
(42.4712 -2.10613e-10 0)
(42.4653 -2.55243e-10 0)
(42.4597 -2.69653e-10 0)
(42.4544 -4.86774e-10 0)
(42.4494 -1.03409e-10 0)
(42.4447 -6.33373e-10 0)
(42.4402 -9.11805e-11 0)
(42.4358 -6.47447e-10 0)
(42.4316 -1.32493e-10 0)
(42.4273 -3.26757e-10 0)
(42.4231 -1.15442e-10 0)
(42.4188 -2.04994e-10 0)
(42.4144 -3.56032e-10 0)
(42.41 -2.7067e-10 0)
(42.4053 -8.73588e-10 0)
(42.4005 -1.08251e-09 0)
(42.3954 -1.4369e-09 0)
(42.39 -1.60632e-09 0)
(42.3842 -1.40425e-09 0)
(42.378 -1.66235e-09 0)
(42.3713 -2.22096e-09 0)
(42.3641 -2.58172e-09 0)
(42.3564 -2.65058e-09 0)
(42.348 -2.84005e-09 0)
(42.3391 -2.99306e-09 0)
(42.3297 -3.18791e-09 0)
(42.3197 -2.77781e-09 0)
(42.3094 -3.19343e-09 0)
(42.2987 -2.98215e-09 0)
(42.2879 -5.97429e-10 0)
(42.2769 1.2737e-08 0)
(42.2661 1.64723e-07 0)
(42.2555 1.27955e-06 0)
(42.2454 9.06894e-06 0)
(42.2358 6.40969e-05 0)
(42.227 0.00045344 0)
(42.2187 0.00321024 0)
(42.2094 0.0226029 0)
(42.186 0.160659 0)
(42.0275 0.736041 0)
(42.7 -0.000128288 0)
(42.7 -9.9063e-05 0)
(42.7 -8.5913e-05 0)
(42.7 -8.53774e-05 0)
(42.6999 -8.53512e-05 0)
(42.6999 -8.49518e-05 0)
(42.6998 -8.46665e-05 0)
(42.6998 -8.45135e-05 0)
(42.6997 -8.44051e-05 0)
(42.6997 -8.43605e-05 0)
(42.6996 -8.42521e-05 0)
(42.6996 -8.42527e-05 0)
(42.6997 -8.4244e-05 0)
(42.6997 -8.42407e-05 0)
(42.6998 -8.42449e-05 0)
(42.6999 -8.42548e-05 0)
(42.7 -8.42698e-05 0)
(42.7002 -8.42897e-05 0)
(42.7004 -8.43095e-05 0)
(42.7006 -8.43742e-05 0)
(42.7008 -8.43578e-05 0)
(42.7011 -8.44156e-05 0)
(42.7014 -8.44629e-05 0)
(42.7018 -8.4509e-05 0)
(42.7021 -8.45573e-05 0)
(42.7024 -8.46063e-05 0)
(42.7027 -8.46545e-05 0)
(42.703 -8.47006e-05 0)
(42.7033 -8.47425e-05 0)
(42.7035 -8.47773e-05 0)
(42.7037 -8.48011e-05 0)
(42.7038 -8.48083e-05 0)
(42.7039 -8.47906e-05 0)
(42.704 -8.47368e-05 0)
(42.704 -8.4624e-05 0)
(42.7039 -8.44652e-05 0)
(42.7037 -8.41819e-05 0)
(42.7036 -8.37846e-05 0)
(42.7033 -8.32223e-05 0)
(42.703 -8.24589e-05 0)
(42.7027 -8.14507e-05 0)
(42.7023 -8.01548e-05 0)
(42.7019 -7.85314e-05 0)
(42.7016 -7.65465e-05 0)
(42.7012 -7.41754e-05 0)
(42.7008 -7.14052e-05 0)
(42.7004 -6.82324e-05 0)
(42.7001 -6.46975e-05 0)
(42.6998 -6.08167e-05 0)
(42.6996 -5.66334e-05 0)
(42.6995 -5.22314e-05 0)
(42.6994 -4.76791e-05 0)
(42.6994 -4.30577e-05 0)
(42.6995 -3.84561e-05 0)
(42.6996 -3.39488e-05 0)
(42.6999 -2.96158e-05 0)
(42.7002 -2.55166e-05 0)
(42.7005 -2.17096e-05 0)
(42.7009 -1.82279e-05 0)
(42.7014 -1.51009e-05 0)
(42.7019 -1.23291e-05 0)
(42.7024 -9.91597e-06 0)
(42.7029 -7.84662e-06 0)
(42.7033 -6.09844e-06 0)
(42.7037 -4.64394e-06 0)
(42.7041 -3.45138e-06 0)
(42.7044 -2.48779e-06 0)
(42.7046 -1.72001e-06 0)
(42.7047 -1.11654e-06 0)
(42.7047 -6.4978e-07 0)
(42.7046 -2.90895e-07 0)
(42.7043 -2.32467e-08 0)
(42.7039 1.75018e-07 0)
(42.7034 3.19179e-07 0)
(42.7028 4.23013e-07 0)
(42.702 4.98727e-07 0)
(42.7012 5.51127e-07 0)
(42.7002 5.86326e-07 0)
(42.6992 6.10495e-07 0)
(42.6981 6.27109e-07 0)
(42.697 6.384e-07 0)
(42.6959 6.46039e-07 0)
(42.6948 6.51171e-07 0)
(42.6938 6.54825e-07 0)
(42.6928 6.57544e-07 0)
(42.6919 6.59735e-07 0)
(42.6911 6.61712e-07 0)
(42.6904 6.63545e-07 0)
(42.6899 6.65382e-07 0)
(42.6894 6.67369e-07 0)
(42.6891 6.6949e-07 0)
(42.689 6.69743e-07 0)
(42.6889 6.73472e-07 0)
(42.689 6.75419e-07 0)
(42.6892 6.76754e-07 0)
(42.6894 6.78636e-07 0)
(42.6897 6.83741e-07 0)
(42.69 6.83736e-07 0)
(42.6903 6.83399e-07 0)
(42.6906 6.84263e-07 0)
(42.6908 6.85073e-07 0)
(42.6909 6.85081e-07 0)
(42.6908 6.85705e-07 0)
(42.6906 6.84499e-07 0)
(42.6902 6.83548e-07 0)
(42.6897 6.82573e-07 0)
(42.6888 6.81291e-07 0)
(42.6878 6.79888e-07 0)
(42.6865 6.78442e-07 0)
(42.6849 6.77019e-07 0)
(42.683 6.75678e-07 0)
(42.6809 6.74483e-07 0)
(42.6785 6.73468e-07 0)
(42.6759 6.7173e-07 0)
(42.6731 6.73559e-07 0)
(42.6701 6.7262e-07 0)
(42.667 6.7318e-07 0)
(42.6637 6.74332e-07 0)
(42.6604 6.76077e-07 0)
(42.6571 6.7843e-07 0)
(42.6537 6.81384e-07 0)
(42.6504 6.84886e-07 0)
(42.6472 6.88832e-07 0)
(42.6441 6.93099e-07 0)
(42.641 6.97599e-07 0)
(42.6381 7.02256e-07 0)
(42.6354 7.06996e-07 0)
(42.6327 7.11709e-07 0)
(42.6302 7.16287e-07 0)
(42.6277 7.20625e-07 0)
(42.6254 7.24633e-07 0)
(42.623 7.28254e-07 0)
(42.6207 7.31429e-07 0)
(42.6183 7.34111e-07 0)
(42.6159 7.36262e-07 0)
(42.6134 7.37857e-07 0)
(42.6108 7.38887e-07 0)
(42.6079 7.39378e-07 0)
(42.6049 7.39348e-07 0)
(42.6016 7.38802e-07 0)
(42.5981 7.37698e-07 0)
(42.5942 7.36013e-07 0)
(42.59 7.33825e-07 0)
(42.5854 7.31269e-07 0)
(42.5805 7.28468e-07 0)
(42.5752 7.25479e-07 0)
(42.5694 7.22465e-07 0)
(42.5634 7.19437e-07 0)
(42.5569 7.16685e-07 0)
(42.5501 7.14139e-07 0)
(42.5431 7.12273e-07 0)
(42.5358 7.1087e-07 0)
(42.5283 7.1046e-07 0)
(42.5207 7.10672e-07 0)
(42.5132 7.121e-07 0)
(42.5056 7.14238e-07 0)
(42.4982 7.1761e-07 0)
(42.491 7.21427e-07 0)
(42.4841 7.25988e-07 0)
(42.4775 7.30942e-07 0)
(42.4712 7.36421e-07 0)
(42.4652 7.42095e-07 0)
(42.4597 7.47751e-07 0)
(42.4544 7.52905e-07 0)
(42.4494 7.58154e-07 0)
(42.4447 7.61771e-07 0)
(42.4402 7.65798e-07 0)
(42.4358 7.67908e-07 0)
(42.4315 7.70523e-07 0)
(42.4273 7.71661e-07 0)
(42.4231 7.72751e-07 0)
(42.4188 7.73268e-07 0)
(42.4144 7.73283e-07 0)
(42.4099 7.72802e-07 0)
(42.4053 7.70891e-07 0)
(42.4005 7.68647e-07 0)
(42.3954 7.65447e-07 0)
(42.39 7.62123e-07 0)
(42.3842 7.58179e-07 0)
(42.378 7.53206e-07 0)
(42.3713 7.47042e-07 0)
(42.3641 7.40586e-07 0)
(42.3563 7.33913e-07 0)
(42.348 7.26796e-07 0)
(42.3391 7.19924e-07 0)
(42.3296 7.13318e-07 0)
(42.3197 7.07926e-07 0)
(42.3094 7.0255e-07 0)
(42.2987 6.9889e-07 0)
(42.2878 7.00076e-07 0)
(42.2769 7.06082e-07 0)
(42.2661 8.08627e-07 0)
(42.2555 1.53995e-06 0)
(42.2454 6.87205e-06 0)
(42.236 4.4897e-05 0)
(42.2283 0.000316181 0)
(42.228 0.00226402 0)
(42.277 0.0163825 0)
(42.4788 0.135741 0)
(45.6316 0.57331 0)
(42.6982 -0.000101131 0)
(42.6965 -9.25746e-05 0)
(42.6947 -8.99283e-05 0)
(42.6929 -9.08566e-05 0)
(42.691 -9.15841e-05 0)
(42.6892 -9.19993e-05 0)
(42.6873 -9.23203e-05 0)
(42.6855 -9.25938e-05 0)
(42.6836 -9.28085e-05 0)
(42.6818 -9.30023e-05 0)
(42.68 -9.31076e-05 0)
(42.6782 -9.32449e-05 0)
(42.6764 -9.33508e-05 0)
(42.6747 -9.34381e-05 0)
(42.6729 -9.35122e-05 0)
(42.6712 -9.35765e-05 0)
(42.6696 -9.36336e-05 0)
(42.668 -9.36862e-05 0)
(42.6664 -9.37329e-05 0)
(42.6648 -9.3806e-05 0)
(42.6632 -9.38243e-05 0)
(42.6617 -9.3885e-05 0)
(42.6602 -9.39403e-05 0)
(42.6587 -9.39941e-05 0)
(42.6573 -9.40478e-05 0)
(42.6558 -9.41005e-05 0)
(42.6543 -9.4151e-05 0)
(42.6528 -9.41977e-05 0)
(42.6512 -9.42388e-05 0)
(42.6497 -9.42712e-05 0)
(42.6481 -9.42907e-05 0)
(42.6464 -9.4291e-05 0)
(42.6447 -9.42633e-05 0)
(42.6429 -9.41952e-05 0)
(42.6411 -9.40653e-05 0)
(42.6392 -9.3872e-05 0)
(42.6373 -9.3552e-05 0)
(42.6353 -9.31e-05 0)
(42.6333 -9.2467e-05 0)
(42.6312 -9.161e-05 0)
(42.6292 -9.04817e-05 0)
(42.6271 -8.90349e-05 0)
(42.625 -8.72258e-05 0)
(42.623 -8.50168e-05 0)
(42.621 -8.23806e-05 0)
(42.619 -7.93033e-05 0)
(42.6172 -7.57834e-05 0)
(42.6155 -7.18551e-05 0)
(42.6138 -6.75475e-05 0)
(42.6124 -6.29093e-05 0)
(42.6111 -5.80254e-05 0)
(42.6099 -5.2975e-05 0)
(42.609 -4.7848e-05 0)
(42.6082 -4.27405e-05 0)
(42.6076 -3.77383e-05 0)
(42.6071 -3.29276e-05 0)
(42.6068 -2.8377e-05 0)
(42.6067 -2.4148e-05 0)
(42.6067 -2.02803e-05 0)
(42.6068 -1.68029e-05 0)
(42.607 -1.37221e-05 0)
(42.6072 -1.10378e-05 0)
(42.6075 -8.73477e-06 0)
(42.6079 -6.78803e-06 0)
(42.6082 -5.16716e-06 0)
(42.6085 -3.83737e-06 0)
(42.6087 -2.76239e-06 0)
(42.6088 -1.90593e-06 0)
(42.6089 -1.23353e-06 0)
(42.6089 -7.14539e-07 0)
(42.6088 -3.16637e-07 0)
(42.6085 -1.6807e-08 0)
(42.6081 2.0986e-07 0)
(42.6076 3.74495e-07 0)
(42.607 4.92921e-07 0)
(42.6062 5.78219e-07 0)
(42.6054 6.37862e-07 0)
(42.6045 6.78659e-07 0)
(42.6035 7.06713e-07 0)
(42.6024 7.2589e-07 0)
(42.6013 7.38919e-07 0)
(42.6002 7.47757e-07 0)
(42.5992 7.53725e-07 0)
(42.5981 7.57859e-07 0)
(42.5971 7.60796e-07 0)
(42.5963 7.63011e-07 0)
(42.5955 7.64822e-07 0)
(42.5948 7.66352e-07 0)
(42.5943 7.67779e-07 0)
(42.5939 7.69233e-07 0)
(42.5936 7.70757e-07 0)
(42.5934 7.71256e-07 0)
(42.5934 7.73534e-07 0)
(42.5935 7.75088e-07 0)
(42.5937 7.762e-07 0)
(42.5939 7.77541e-07 0)
(42.5942 7.80979e-07 0)
(42.5946 7.81613e-07 0)
(42.5949 7.81919e-07 0)
(42.5952 7.82821e-07 0)
(42.5954 7.83714e-07 0)
(42.5955 7.84137e-07 0)
(42.5955 7.84917e-07 0)
(42.5953 7.84618e-07 0)
(42.5949 7.84475e-07 0)
(42.5944 7.84295e-07 0)
(42.5935 7.83948e-07 0)
(42.5925 7.8352e-07 0)
(42.5912 7.83079e-07 0)
(42.5896 7.82644e-07 0)
(42.5878 7.82243e-07 0)
(42.5857 7.81894e-07 0)
(42.5833 7.81618e-07 0)
(42.5807 7.80802e-07 0)
(42.5779 7.82136e-07 0)
(42.575 7.81674e-07 0)
(42.5718 7.82104e-07 0)
(42.5686 7.8282e-07 0)
(42.5653 7.83858e-07 0)
(42.562 7.85233e-07 0)
(42.5587 7.86954e-07 0)
(42.5554 7.88991e-07 0)
(42.5522 7.91281e-07 0)
(42.549 7.93734e-07 0)
(42.546 7.96292e-07 0)
(42.5432 7.98915e-07 0)
(42.5404 8.01571e-07 0)
(42.5378 8.04214e-07 0)
(42.5352 8.06783e-07 0)
(42.5328 8.09217e-07 0)
(42.5305 8.11465e-07 0)
(42.5281 8.13486e-07 0)
(42.5258 8.15247e-07 0)
(42.5235 8.16733e-07 0)
(42.5211 8.17906e-07 0)
(42.5186 8.18753e-07 0)
(42.516 8.19268e-07 0)
(42.5131 8.19472e-07 0)
(42.5101 8.19397e-07 0)
(42.5069 8.19037e-07 0)
(42.5033 8.1836e-07 0)
(42.4995 8.17344e-07 0)
(42.4953 8.16016e-07 0)
(42.4907 8.14452e-07 0)
(42.4858 8.12743e-07 0)
(42.4805 8.10942e-07 0)
(42.4748 8.091e-07 0)
(42.4687 8.0725e-07 0)
(42.4623 8.05494e-07 0)
(42.4555 8.03857e-07 0)
(42.4485 8.02521e-07 0)
(42.4412 8.01478e-07 0)
(42.4338 8.00889e-07 0)
(42.4262 8.00681e-07 0)
(42.4187 8.01025e-07 0)
(42.4111 8.01831e-07 0)
(42.4038 8.03212e-07 0)
(42.3966 8.04883e-07 0)
(42.3897 8.06846e-07 0)
(42.383 8.0901e-07 0)
(42.3768 8.11455e-07 0)
(42.3708 8.14058e-07 0)
(42.3653 8.16667e-07 0)
(42.36 8.19136e-07 0)
(42.3551 8.21478e-07 0)
(42.3504 8.23201e-07 0)
(42.3459 8.24839e-07 0)
(42.3415 8.25716e-07 0)
(42.3372 8.26552e-07 0)
(42.333 8.26759e-07 0)
(42.3288 8.26827e-07 0)
(42.3245 8.26791e-07 0)
(42.3202 8.26569e-07 0)
(42.3157 8.26114e-07 0)
(42.3111 8.25039e-07 0)
(42.3063 8.23656e-07 0)
(42.3012 8.2168e-07 0)
(42.2958 8.19546e-07 0)
(42.2901 8.16935e-07 0)
(42.2839 8.14027e-07 0)
(42.2772 8.10626e-07 0)
(42.27 8.07026e-07 0)
(42.2623 8.02959e-07 0)
(42.254 7.98692e-07 0)
(42.2451 7.94439e-07 0)
(42.2356 7.90379e-07 0)
(42.2257 7.86567e-07 0)
(42.2154 7.82922e-07 0)
(42.2047 7.79933e-07 0)
(42.1939 7.80107e-07 0)
(42.183 7.80787e-07 0)
(42.1722 8.01716e-07 0)
(42.1616 9.35098e-07 0)
(42.1515 1.78928e-06 0)
(42.1421 7.75196e-06 0)
(42.1345 5.00178e-05 0)
(42.1345 0.000360375 0)
(42.1869 0.00284682 0)
(42.407 0.0396706 0)
(47.6876 0.162468 0)
(37.9358 1.28841 -3.16245e-15)
(36.8535 3.69622 6.34363e-15)
(36.4317 6.43873 -1.18931e-14)
(36.0247 9.21795 2.45724e-14)
(35.3952 11.9789 -2.53468e-14)
(34.6171 14.7339 -1.58207e-15)
(33.7571 17.5185 1.07344e-19)
(32.639 20.2381 -2.20955e-14)
(31.0445 22.6757 -1.02579e-13)
(28.9451 24.7057 1.01073e-13)
(26.5272 26.3875 -2.53144e-14)
(24.359 28.3469 -5.21726e-14)
(22.9929 31.4626 2.66413e-14)
(22.0463 35.9254 0)
(20.6473 40.7264 2.45256e-14)
(18.2267 44.1614 2.4462e-14)
(14.9132 45.3849 -2.44615e-14)
(11.2559 45.0889 2.45316e-14)
(7.69852 44.1435 1.92575e-16)
(4.39682 44.3264 -1.91639e-16)
(39.1371 2.03636 0)
(38.4911 4.96328 0)
(38.0742 8.18845 -1.61008e-15)
(37.5566 11.3926 -3.21664e-15)
(36.7934 14.5369 8.03012e-15)
(35.8639 17.633 1.60259e-14)
(34.8141 20.7745 0)
(33.3592 24.0251 9.58178e-15)
(31.2724 27.0781 1.59732e-14)
(28.6256 29.6215 -3.83074e-14)
(25.7197 31.5082 2.55705e-14)
(23.6014 32.8456 1.27848e-14)
(22.6589 34.8564 -1.26477e-14)
(21.8484 38.5244 1.24816e-14)
(19.8599 43.4763 0)
(15.959 48.1659 -1.54136e-15)
(11.113 50.5521 1.54172e-15)
(6.17772 50.8552 -5.39118e-15)
(1.4274 49.9275 -7.72284e-16)
(-0.0934342 48.3065 0)
(41.9774 1.6218 -4.10368e-17)
(41.9755 2.67618 -2.08556e-14)
(42.0756 3.74752 2.11815e-14)
(42.2599 4.81269 -2.03586e-14)
(42.4783 5.94112 -2.23309e-14)
(42.6877 7.20016 8.3121e-14)
(42.8653 8.61228 -4.2081e-14)
(43.0266 10.1861 4.07916e-14)
(43.1451 11.9861 -8.29506e-14)
(43.1173 14.0929 1.32445e-15)
(42.8196 16.5228 4.08368e-14)
(42.0521 19.2225 0)
(40.7342 21.9601 -4.08778e-14)
(39.2127 24.3945 4.09539e-14)
(37.998 26.4356 -3.30864e-16)
(37.3041 28.3621 0)
(36.7106 30.582 3.31899e-16)
(35.7074 33.1493 0)
(34.1472 35.8971 0)
(32.1016 38.6527 0)
(46.1739 2.61673 6.2745e-16)
(45.903 6.01054 -6.29519e-15)
(44.887 10.0469 -1.26167e-15)
(43.6847 14.1897 2.52074e-15)
(42.5888 18.277 -2.51001e-15)
(41.5357 22.2995 -4.89787e-19)
(40.3564 26.2518 -9.92391e-15)
(38.8957 30.0893 0)
(37.1163 33.7945 0)
(35.0223 37.3605 -4.88248e-15)
(32.5919 40.7396 4.8582e-15)
(29.847 43.925 0)
(26.7877 46.8725 -4.81133e-15)
(23.4296 49.5549 4.79427e-15)
(19.7893 51.9414 -4.77762e-15)
(15.8859 53.9891 9.52502e-15)
(11.7629 55.6533 -4.75263e-15)
(7.50063 56.9061 0)
(3.20482 57.764 -2.36488e-15)
(-0.708405 58.2053 0)
(49.1496 1.80391 -9.57143e-16)
(50.1174 4.62298 7.33711e-15)
(49.8197 8.01048 5.10432e-15)
(49.0012 11.5616 1.02011e-14)
(48.1679 15.2439 0)
(47.3418 19.0571 0)
(46.3832 22.951 1.01003e-14)
(45.1629 26.8419 2.5137e-15)
(43.6135 30.7099 -5.0047e-15)
(41.74 34.4899 2.49202e-15)
(39.506 38.1491 1.98512e-14)
(36.9322 41.6415 -1.2359e-14)
(34.0214 44.9205 1.23185e-14)
(30.7927 47.9355 -2.45537e-15)
(27.2738 50.6266 -9.79795e-15)
(23.4937 52.9286 -1.71224e-14)
(19.4886 54.779 -8.5552e-15)
(15.3019 56.1086 -1.22229e-15)
(11.0177 56.7908 7.03537e-15)
(6.90003 56.4906 3.06821e-16)
(1.27665 52.5797 0)
(0.872992 58.1359 0)
(1.04627 59.3661 0)
(1.08867 58.471 0)
(1.09057 57.9105 0)
(1.0549 58.1414 0)
(1.0518 58.5432 0)
(1.06887 58.6646 0)
(1.07298 58.5933 0)
(1.07296 58.5255 0)
(1.071 58.5031 0)
(1.06905 58.4918 0)
(1.06727 58.4695 0)
(1.06524 58.436 0)
(1.06283 58.3973 0)
(1.06012 58.3579 0)
(1.05724 58.3201 0)
(1.05435 58.2842 0)
(1.05151 58.2498 0)
(1.04881 58.2168 0)
(1.04628 58.1856 0)
(1.04396 58.1563 0)
(1.04187 58.1295 0)
(1.04001 58.1054 0)
(1.03839 58.0841 0)
(1.03698 58.0659 0)
(1.03574 58.0507 0)
(1.03463 58.0381 0)
(1.03362 58.0276 0)
(1.03267 58.0187 0)
(1.03173 58.0104 0)
(1.03078 58.0018 0)
(1.02977 57.9923 0)
(1.02864 57.9813 0)
(1.02719 57.9702 0)
(1.02482 57.9657 0)
(1.02046 57.9846 0)
(1.01716 58.0304 0)
(1.01689 58.0772 0)
(1.0189 58.1002 0)
(1.02021 58.0955 0)
(1.02039 58.0776 0)
(1.01936 58.0589 0)
(1.01733 58.0421 0)
(1.01426 58.0274 0)
(1.00997 58.0149 0)
(1.00424 58.0042 0)
(0.996769 57.9948 0)
(0.98727 57.9858 0)
(0.975418 57.9762 0)
(0.960887 57.9649 0)
(0.943325 57.9506 0)
(0.922427 57.9315 0)
(0.897923 57.9054 0)
(0.869639 57.8692 0)
(0.837537 57.8194 0)
(0.801742 57.7515 0)
(0.762549 57.6608 0)
(0.720423 57.5427 0)
(0.675974 57.3927 0)
(0.629888 57.2064 0)
(0.582899 56.9801 0)
(0.535721 56.7097 0)
(0.488998 56.3903 0)
(0.443264 56.0159 0)
(0.398927 55.5789 0)
(0.356263 55.0707 0)
(0.315402 54.4823 0)
(0.276474 53.806 0)
(0.239752 53.0373 0)
(0.205144 52.1786 0)
(0.173158 51.2398 0)
(0.144143 50.2396 0)
(0.118369 49.2062 0)
(0.0959257 48.1742 0)
(0.0771493 47.1792 0)
(0.061628 46.2537 0)
(0.0490665 45.4234 0)
(0.0390329 44.703 0)
(0.031053 44.0974 0)
(0.0247046 43.6023 0)
(0.0196086 43.2074 0)
(0.0155018 42.8991 0)
(0.0121805 42.663 0)
(0.00949476 42.4851 0)
(0.00733262 42.3527 0)
(0.0056052 42.2554 0)
(0.00423872 42.1848 0)
(0.00317002 42.1339 0)
(0.00234442 42.0976 0)
(0.00171457 42.0718 0)
(0.00124 42.0536 0)
(0.000887172 42.0408 0)
(0.000627926 42.0317 0)
(0.00043978 42.0252 0)
(0.000304851 42.0204 0)
(0.000209215 42.0167 0)
(0.000142184 42.0137 0)
(9.57287e-05 42.0112 0)