/*--------------------------------*- C++ -*----------------------------------*\
| =========                 |                                                 |
| \\      /  F ield         | OpenFOAM: The Open Source CFD Toolbox           |
|  \\    /   O peration     | Version:  3.0.x                                 |
|   \\  /    A nd           | Web:      www.OpenFOAM.org                      |
|    \\/     M anipulation  |                                                 |
\*---------------------------------------------------------------------------*/
FoamFile
{
    version     2.0;
    format      ascii;
    class       volScalarField;
    location    "0.39";
    object      p;
}
// * * * * * * * * * * * * * * * * * * * * * * * * * * * * * * * * * * * * * //

dimensions      [1 -1 -2 0 0 0 0];

internalField   nonuniform List<scalar> 
6900
(
1.81939e+07
1.81939e+07
1.81939e+07
1.81939e+07
1.81939e+07
1.81938e+07
1.81938e+07
1.81938e+07
1.81938e+07
1.81938e+07
1.81937e+07
1.81937e+07
1.81937e+07
1.81937e+07
1.81937e+07
1.81936e+07
1.81936e+07
1.81936e+07
1.81936e+07
1.81936e+07
1.81937e+07
1.81937e+07
1.81937e+07
1.81937e+07
1.81937e+07
1.81938e+07
1.81938e+07
1.81938e+07
1.81939e+07
1.81939e+07
1.81939e+07
1.8194e+07
1.8194e+07
1.8194e+07
1.8194e+07
1.81941e+07
1.81941e+07
1.81941e+07
1.81941e+07
1.81941e+07
1.81941e+07
1.81941e+07
1.8194e+07
1.8194e+07
1.8194e+07
1.8194e+07
1.8194e+07
1.8194e+07
1.81939e+07
1.81939e+07
1.81939e+07
1.81939e+07
1.81939e+07
1.81939e+07
1.81939e+07
1.8194e+07
1.8194e+07
1.8194e+07
1.8194e+07
1.81941e+07
1.81941e+07
1.81941e+07
1.81942e+07
1.81942e+07
1.81943e+07
1.81943e+07
1.81944e+07
1.81944e+07
1.81944e+07
1.81945e+07
1.81945e+07
1.81945e+07
1.81945e+07
1.81945e+07
1.81945e+07
1.81945e+07
1.81945e+07
1.81945e+07
1.81945e+07
1.81944e+07
1.81944e+07
1.81944e+07
1.81944e+07
1.81943e+07
1.81943e+07
1.81943e+07
1.81943e+07
1.81943e+07
1.81943e+07
1.81943e+07
1.81943e+07
1.81943e+07
1.81944e+07
1.81944e+07
1.81944e+07
1.81945e+07
1.81945e+07
1.81946e+07
1.81946e+07
1.81947e+07
1.81947e+07
1.81948e+07
1.81948e+07
1.81949e+07
1.81949e+07
1.81949e+07
1.81949e+07
1.81949e+07
1.81949e+07
1.81949e+07
1.81949e+07
1.81949e+07
1.81948e+07
1.81948e+07
1.81948e+07
1.81947e+07
1.81947e+07
1.81946e+07
1.81946e+07
1.81945e+07
1.81945e+07
1.81945e+07
1.81944e+07
1.81944e+07
1.81944e+07
1.81944e+07
1.81945e+07
1.81945e+07
1.81945e+07
1.81946e+07
1.81947e+07
1.81947e+07
1.81948e+07
1.81949e+07
1.81949e+07
1.8195e+07
1.81951e+07
1.81952e+07
1.81952e+07
1.81953e+07
1.81953e+07
1.81953e+07
1.81953e+07
1.81953e+07
1.81953e+07
1.81953e+07
1.81953e+07
1.81952e+07
1.81952e+07
1.81951e+07
1.8195e+07
1.8195e+07
1.81949e+07
1.81948e+07
1.81948e+07
1.81947e+07
1.81946e+07
1.81946e+07
1.81946e+07
1.81945e+07
1.81945e+07
1.81945e+07
1.81946e+07
1.81946e+07
1.81947e+07
1.81948e+07
1.81949e+07
1.8195e+07
1.81951e+07
1.81952e+07
1.81953e+07
1.81954e+07
1.81955e+07
1.81956e+07
1.81957e+07
1.81958e+07
1.81958e+07
1.81959e+07
1.81959e+07
1.81958e+07
1.81958e+07
1.81958e+07
1.81957e+07
1.81956e+07
1.81955e+07
1.81954e+07
1.81954e+07
1.81953e+07
1.81952e+07
1.81951e+07
1.8195e+07
1.81949e+07
1.81948e+07
1.81947e+07
1.81947e+07
1.81946e+07
1.81946e+07
1.81947e+07
1.81949e+07
1.81956e+07
1.81939e+07
1.81939e+07
1.81939e+07
1.81939e+07
1.81939e+07
1.81938e+07
1.81938e+07
1.81938e+07
1.81938e+07
1.81938e+07
1.81937e+07
1.81937e+07
1.81937e+07
1.81937e+07
1.81937e+07
1.81936e+07
1.81936e+07
1.81936e+07
1.81936e+07
1.81936e+07
1.81937e+07
1.81937e+07
1.81937e+07
1.81937e+07
1.81937e+07
1.81938e+07
1.81938e+07
1.81938e+07
1.81939e+07
1.81939e+07
1.81939e+07
1.8194e+07
1.8194e+07
1.8194e+07
1.8194e+07
1.81941e+07
1.81941e+07
1.81941e+07
1.81941e+07
1.81941e+07
1.81941e+07
1.81941e+07
1.8194e+07
1.8194e+07
1.8194e+07
1.8194e+07
1.8194e+07
1.8194e+07
1.81939e+07
1.81939e+07
1.81939e+07
1.81939e+07
1.81939e+07
1.81939e+07
1.81939e+07
1.8194e+07
1.8194e+07
1.8194e+07
1.8194e+07
1.81941e+07
1.81941e+07
1.81941e+07
1.81942e+07
1.81942e+07
1.81943e+07
1.81943e+07
1.81944e+07
1.81944e+07
1.81944e+07
1.81945e+07
1.81945e+07
1.81945e+07
1.81945e+07
1.81945e+07
1.81945e+07
1.81945e+07
1.81945e+07
1.81945e+07
1.81945e+07
1.81944e+07
1.81944e+07
1.81944e+07
1.81944e+07
1.81943e+07
1.81943e+07
1.81943e+07
1.81943e+07
1.81943e+07
1.81943e+07
1.81943e+07
1.81943e+07
1.81943e+07
1.81944e+07
1.81944e+07
1.81944e+07
1.81945e+07
1.81945e+07
1.81946e+07
1.81946e+07
1.81947e+07
1.81947e+07
1.81948e+07
1.81948e+07
1.81949e+07
1.81949e+07
1.81949e+07
1.81949e+07
1.81949e+07
1.81949e+07
1.81949e+07
1.81949e+07
1.81949e+07
1.81948e+07
1.81948e+07
1.81948e+07
1.81947e+07
1.81947e+07
1.81946e+07
1.81946e+07
1.81945e+07
1.81945e+07
1.81945e+07
1.81944e+07
1.81944e+07
1.81944e+07
1.81944e+07
1.81945e+07
1.81945e+07
1.81945e+07
1.81946e+07
1.81947e+07
1.81947e+07
1.81948e+07
1.81949e+07
1.81949e+07
1.8195e+07
1.81951e+07
1.81952e+07
1.81952e+07
1.81953e+07
1.81953e+07
1.81953e+07
1.81953e+07
1.81953e+07
1.81953e+07
1.81953e+07
1.81953e+07
1.81952e+07
1.81952e+07
1.81951e+07
1.8195e+07
1.8195e+07
1.81949e+07
1.81948e+07
1.81948e+07
1.81947e+07
1.81946e+07
1.81946e+07
1.81946e+07
1.81945e+07
1.81945e+07
1.81945e+07
1.81946e+07
1.81946e+07
1.81947e+07
1.81948e+07
1.81949e+07
1.8195e+07
1.81951e+07
1.81952e+07
1.81953e+07
1.81954e+07
1.81955e+07
1.81956e+07
1.81957e+07
1.81958e+07
1.81958e+07
1.81959e+07
1.81959e+07
1.81958e+07
1.81958e+07
1.81958e+07
1.81957e+07
1.81956e+07
1.81955e+07
1.81954e+07
1.81954e+07
1.81953e+07
1.81952e+07
1.81951e+07
1.8195e+07
1.81949e+07
1.81948e+07
1.81947e+07
1.81947e+07
1.81946e+07
1.81946e+07
1.81947e+07
1.81949e+07
1.81956e+07
1.81939e+07
1.81939e+07
1.81939e+07
1.81939e+07
1.81939e+07
1.81938e+07
1.81938e+07
1.81938e+07
1.81938e+07
1.81938e+07
1.81937e+07
1.81937e+07
1.81937e+07
1.81937e+07
1.81937e+07
1.81936e+07
1.81936e+07
1.81936e+07
1.81936e+07
1.81936e+07
1.81937e+07
1.81937e+07
1.81937e+07
1.81937e+07
1.81937e+07
1.81938e+07
1.81938e+07
1.81938e+07
1.81939e+07
1.81939e+07
1.81939e+07
1.8194e+07
1.8194e+07
1.8194e+07
1.8194e+07
1.81941e+07
1.81941e+07
1.81941e+07
1.81941e+07
1.81941e+07
1.81941e+07
1.81941e+07
1.8194e+07
1.8194e+07
1.8194e+07
1.8194e+07
1.8194e+07
1.8194e+07
1.81939e+07
1.81939e+07
1.81939e+07
1.81939e+07
1.81939e+07
1.81939e+07
1.81939e+07
1.8194e+07
1.8194e+07
1.8194e+07
1.8194e+07
1.81941e+07
1.81941e+07
1.81941e+07
1.81942e+07
1.81942e+07
1.81943e+07
1.81943e+07
1.81944e+07
1.81944e+07
1.81944e+07
1.81945e+07
1.81945e+07
1.81945e+07
1.81945e+07
1.81945e+07
1.81945e+07
1.81945e+07
1.81945e+07
1.81945e+07
1.81945e+07
1.81944e+07
1.81944e+07
1.81944e+07
1.81944e+07
1.81943e+07
1.81943e+07
1.81943e+07
1.81943e+07
1.81943e+07
1.81943e+07
1.81943e+07
1.81943e+07
1.81943e+07
1.81944e+07
1.81944e+07
1.81944e+07
1.81945e+07
1.81945e+07
1.81946e+07
1.81946e+07
1.81947e+07
1.81947e+07
1.81948e+07
1.81948e+07
1.81949e+07
1.81949e+07
1.81949e+07
1.81949e+07
1.81949e+07
1.81949e+07
1.81949e+07
1.81949e+07
1.81949e+07
1.81948e+07
1.81948e+07
1.81948e+07
1.81947e+07
1.81947e+07
1.81946e+07
1.81946e+07
1.81945e+07
1.81945e+07
1.81945e+07
1.81944e+07
1.81944e+07
1.81944e+07
1.81944e+07
1.81945e+07
1.81945e+07
1.81945e+07
1.81946e+07
1.81947e+07
1.81947e+07
1.81948e+07
1.81949e+07
1.81949e+07
1.8195e+07
1.81951e+07
1.81952e+07
1.81952e+07
1.81953e+07
1.81953e+07
1.81953e+07
1.81953e+07
1.81953e+07
1.81953e+07
1.81953e+07
1.81953e+07
1.81952e+07
1.81952e+07
1.81951e+07
1.8195e+07
1.8195e+07
1.81949e+07
1.81948e+07
1.81948e+07
1.81947e+07
1.81946e+07
1.81946e+07
1.81946e+07
1.81945e+07
1.81945e+07
1.81945e+07
1.81946e+07
1.81946e+07
1.81947e+07
1.81948e+07
1.81949e+07
1.8195e+07
1.81951e+07
1.81952e+07
1.81953e+07
1.81954e+07
1.81955e+07
1.81956e+07
1.81957e+07
1.81958e+07
1.81958e+07
1.81959e+07
1.81959e+07
1.81958e+07
1.81958e+07
1.81958e+07
1.81957e+07
1.81956e+07
1.81955e+07
1.81954e+07
1.81954e+07
1.81953e+07
1.81952e+07
1.81951e+07
1.8195e+07
1.81949e+07
1.81948e+07
1.81947e+07
1.81947e+07
1.81946e+07
1.81946e+07
1.81947e+07
1.81947e+07
1.81948e+07
1.81939e+07
1.81939e+07
1.81939e+07
1.81939e+07
1.81939e+07
1.81938e+07
1.81938e+07
1.81938e+07
1.81938e+07
1.81938e+07
1.81937e+07
1.81937e+07
1.81937e+07
1.81937e+07
1.81937e+07
1.81936e+07
1.81936e+07
1.81936e+07
1.81936e+07
1.81936e+07
1.81937e+07
1.81937e+07
1.81937e+07
1.81937e+07
1.81937e+07
1.81938e+07
1.81938e+07
1.81938e+07
1.81939e+07
1.81939e+07
1.81939e+07
1.8194e+07
1.8194e+07
1.8194e+07
1.8194e+07
1.81941e+07
1.81941e+07
1.81941e+07
1.81941e+07
1.81941e+07
1.81941e+07
1.81941e+07
1.8194e+07
1.8194e+07
1.8194e+07
1.8194e+07
1.8194e+07
1.8194e+07
1.81939e+07
1.81939e+07
1.81939e+07
1.81939e+07
1.81939e+07
1.81939e+07
1.81939e+07
1.8194e+07
1.8194e+07
1.8194e+07
1.8194e+07
1.81941e+07
1.81941e+07
1.81941e+07
1.81942e+07
1.81942e+07
1.81943e+07
1.81943e+07
1.81944e+07
1.81944e+07
1.81944e+07
1.81945e+07
1.81945e+07
1.81945e+07
1.81945e+07
1.81945e+07
1.81945e+07
1.81945e+07
1.81945e+07
1.81945e+07
1.81945e+07
1.81944e+07
1.81944e+07
1.81944e+07
1.81944e+07
1.81943e+07
1.81943e+07
1.81943e+07
1.81943e+07
1.81943e+07
1.81943e+07
1.81943e+07
1.81943e+07
1.81943e+07
1.81944e+07
1.81944e+07
1.81944e+07
1.81945e+07
1.81945e+07
1.81946e+07
1.81946e+07
1.81947e+07
1.81947e+07
1.81948e+07
1.81948e+07
1.81949e+07
1.81949e+07
1.81949e+07
1.81949e+07
1.81949e+07
1.81949e+07
1.81949e+07
1.81949e+07
1.81949e+07
1.81948e+07
1.81948e+07
1.81948e+07
1.81947e+07
1.81947e+07
1.81946e+07
1.81946e+07
1.81945e+07
1.81945e+07
1.81945e+07
1.81944e+07
1.81944e+07
1.81944e+07
1.81944e+07
1.81945e+07
1.81945e+07
1.81945e+07
1.81946e+07
1.81947e+07
1.81947e+07
1.81948e+07
1.81949e+07
1.81949e+07
1.8195e+07
1.81951e+07
1.81952e+07
1.81952e+07
1.81953e+07
1.81953e+07
1.81953e+07
1.81953e+07
1.81953e+07
1.81953e+07
1.81953e+07
1.81953e+07
1.81952e+07
1.81952e+07
1.81951e+07
1.8195e+07
1.8195e+07
1.81949e+07
1.81948e+07
1.81948e+07
1.81947e+07
1.81946e+07
1.81946e+07
1.81946e+07
1.81945e+07
1.81945e+07
1.81945e+07
1.81946e+07
1.81946e+07
1.81947e+07
1.81948e+07
1.81949e+07
1.8195e+07
1.81951e+07
1.81952e+07
1.81953e+07
1.81954e+07
1.81955e+07
1.81956e+07
1.81957e+07
1.81958e+07
1.81958e+07
1.81959e+07
1.81959e+07
1.81958e+07
1.81958e+07
1.81958e+07
1.81957e+07
1.81956e+07
1.81955e+07
1.81954e+07
1.81954e+07
1.81953e+07
1.81952e+07
1.81951e+07
1.8195e+07
1.81949e+07
1.81948e+07
1.81947e+07
1.81947e+07
1.81946e+07
1.81946e+07
1.81946e+07
1.81944e+07
1.81938e+07
1.81939e+07
1.81939e+07
1.81939e+07
1.81939e+07
1.81939e+07
1.81938e+07
1.81938e+07
1.81938e+07
1.81938e+07
1.81938e+07
1.81937e+07
1.81937e+07
1.81937e+07
1.81937e+07
1.81937e+07
1.81936e+07
1.81936e+07
1.81936e+07
1.81936e+07
1.81936e+07
1.81937e+07
1.81937e+07
1.81937e+07
1.81937e+07
1.81937e+07
1.81938e+07
1.81938e+07
1.81938e+07
1.81939e+07
1.81939e+07
1.81939e+07
1.8194e+07
1.8194e+07
1.8194e+07
1.8194e+07
1.81941e+07
1.81941e+07
1.81941e+07
1.81941e+07
1.81941e+07
1.81941e+07
1.81941e+07
1.8194e+07
1.8194e+07
1.8194e+07
1.8194e+07
1.8194e+07
1.8194e+07
1.81939e+07
1.81939e+07
1.81939e+07
1.81939e+07
1.81939e+07
1.81939e+07
1.81939e+07
1.8194e+07
1.8194e+07
1.8194e+07
1.8194e+07
1.81941e+07
1.81941e+07
1.81941e+07
1.81942e+07
1.81942e+07
1.81943e+07
1.81943e+07
1.81944e+07
1.81944e+07
1.81944e+07
1.81945e+07
1.81945e+07
1.81945e+07
1.81945e+07
1.81945e+07
1.81945e+07
1.81945e+07
1.81945e+07
1.81945e+07
1.81945e+07
1.81944e+07
1.81944e+07
1.81944e+07
1.81944e+07
1.81943e+07
1.81943e+07
1.81943e+07
1.81943e+07
1.81943e+07
1.81943e+07
1.81943e+07
1.81943e+07
1.81943e+07
1.81944e+07
1.81944e+07
1.81944e+07
1.81945e+07
1.81945e+07
1.81946e+07
1.81946e+07
1.81947e+07
1.81947e+07
1.81948e+07
1.81948e+07
1.81949e+07
1.81949e+07
1.81949e+07
1.81949e+07
1.81949e+07
1.81949e+07
1.81949e+07
1.81949e+07
1.81949e+07
1.81948e+07
1.81948e+07
1.81948e+07
1.81947e+07
1.81947e+07
1.81946e+07
1.81946e+07
1.81945e+07
1.81945e+07
1.81945e+07
1.81944e+07
1.81944e+07
1.81944e+07
1.81944e+07
1.81945e+07
1.81945e+07
1.81945e+07
1.81946e+07
1.81947e+07
1.81947e+07
1.81948e+07
1.81949e+07
1.81949e+07
1.8195e+07
1.81951e+07
1.81952e+07
1.81952e+07
1.81953e+07
1.81953e+07
1.81953e+07
1.81953e+07
1.81953e+07
1.81953e+07
1.81953e+07
1.81953e+07
1.81952e+07
1.81952e+07
1.81951e+07
1.8195e+07
1.8195e+07
1.81949e+07
1.81948e+07
1.81948e+07
1.81947e+07
1.81946e+07
1.81946e+07
1.81946e+07
1.81945e+07
1.81945e+07
1.81945e+07
1.81946e+07
1.81946e+07
1.81947e+07
1.81948e+07
1.81949e+07
1.8195e+07
1.81951e+07
1.81952e+07
1.81953e+07
1.81954e+07
1.81955e+07
1.81956e+07
1.81957e+07
1.81958e+07
1.81958e+07
1.81959e+07
1.81959e+07
1.81958e+07
1.81958e+07
1.81958e+07
1.81957e+07
1.81956e+07
1.81955e+07
1.81954e+07
1.81954e+07
1.81953e+07
1.81952e+07
1.81951e+07
1.8195e+07
1.81949e+07
1.81948e+07
1.81947e+07
1.81947e+07
1.81946e+07
1.81946e+07
1.81946e+07
1.81944e+07
1.81938e+07
1.8202e+07
1.82049e+07
1.82051e+07
1.82044e+07
1.82037e+07
1.8203e+07
1.82023e+07
1.82019e+07
1.82021e+07
1.82024e+07
1.8201e+07
1.81974e+07
1.81925e+07
1.81891e+07
1.81864e+07
1.81841e+07
1.81828e+07
1.81839e+07
1.81864e+07
1.81855e+07
1.82004e+07
1.82018e+07
1.82017e+07
1.8201e+07
1.82002e+07
1.81995e+07
1.81988e+07
1.81983e+07
1.81986e+07
1.81988e+07
1.81972e+07
1.81931e+07
1.8188e+07
1.81845e+07
1.8182e+07
1.818e+07
1.8179e+07
1.81803e+07
1.81827e+07
1.81809e+07
1.81952e+07
1.81952e+07
1.81947e+07
1.81939e+07
1.81927e+07
1.81913e+07
1.81896e+07
1.81876e+07
1.8185e+07
1.81824e+07
1.81796e+07
1.81769e+07
1.81739e+07
1.81705e+07
1.81667e+07
1.81626e+07
1.81582e+07
1.81535e+07
1.81487e+07
1.81444e+07
1.81849e+07
1.81838e+07
1.81843e+07
1.81849e+07
1.81845e+07
1.81829e+07
1.81805e+07
1.81774e+07
1.81748e+07
1.81716e+07
1.81686e+07
1.81656e+07
1.81627e+07
1.81601e+07
1.81576e+07
1.81555e+07
1.81535e+07
1.81519e+07
1.81507e+07
1.81497e+07
1.818e+07
1.8175e+07
1.81733e+07
1.81732e+07
1.81725e+07
1.81706e+07
1.81679e+07
1.81646e+07
1.81614e+07
1.81579e+07
1.81545e+07
1.81511e+07
1.81478e+07
1.81447e+07
1.8142e+07
1.81395e+07
1.81373e+07
1.81356e+07
1.81345e+07
1.81345e+07
1.8155e+07
1.81437e+07
1.81467e+07
1.81485e+07
1.81466e+07
1.81449e+07
1.81445e+07
1.81446e+07
1.81448e+07
1.81448e+07
1.81447e+07
1.81447e+07
1.81447e+07
1.81447e+07
1.81446e+07
1.81446e+07
1.81446e+07
1.81446e+07
1.81445e+07
1.81445e+07
1.81445e+07
1.81444e+07
1.81444e+07
1.81444e+07
1.81444e+07
1.81444e+07
1.81444e+07
1.81444e+07
1.81444e+07
1.81444e+07
1.81444e+07
1.81445e+07
1.81445e+07
1.81446e+07
1.81446e+07
1.81447e+07
1.81448e+07
1.81449e+07
1.81451e+07
1.81452e+07
1.81454e+07
1.81455e+07
1.81457e+07
1.81459e+07
1.81461e+07
1.81463e+07
1.81465e+07
1.81468e+07
1.8147e+07
1.81473e+07
1.81475e+07
1.81478e+07
1.8148e+07
1.81483e+07
1.81485e+07
1.81488e+07
1.8149e+07
1.81493e+07
1.81495e+07
1.81498e+07
1.81501e+07
1.81504e+07
1.81507e+07
1.81509e+07
1.8151e+07
1.81512e+07
1.81514e+07
1.81516e+07
1.81518e+07
1.81521e+07
1.81523e+07
1.81526e+07
1.81529e+07
1.81533e+07
1.81536e+07
1.8154e+07
1.81544e+07
1.81548e+07
1.81553e+07
1.81558e+07
1.81563e+07
1.81569e+07
1.81574e+07
1.81581e+07
1.81587e+07
1.81593e+07
1.816e+07
1.81607e+07
1.81614e+07
1.81621e+07
1.81628e+07
1.81635e+07
1.81642e+07
1.8165e+07
1.81657e+07
1.81664e+07
1.81671e+07
1.81679e+07
1.81686e+07
1.81693e+07
1.81701e+07
1.81708e+07
1.81716e+07
1.81723e+07
1.81731e+07
1.81739e+07
1.81747e+07
1.81754e+07
1.81762e+07
1.8177e+07
1.81778e+07
1.81786e+07
1.81794e+07
1.81803e+07
1.81811e+07
1.81819e+07
1.81828e+07
1.81836e+07
1.81845e+07
1.81854e+07
1.81863e+07
1.81872e+07
1.81882e+07
1.81891e+07
1.81901e+07
1.81911e+07
1.81921e+07
1.81931e+07
1.81942e+07
1.81953e+07
1.81964e+07
1.81975e+07
1.81987e+07
1.81999e+07
1.82011e+07
1.82023e+07
1.82035e+07
1.82048e+07
1.82061e+07
1.82074e+07
1.82087e+07
1.821e+07
1.82114e+07
1.82127e+07
1.82141e+07
1.82155e+07
1.82169e+07
1.82183e+07
1.82198e+07
1.82212e+07
1.82227e+07
1.82241e+07
1.82256e+07
1.82271e+07
1.82286e+07
1.82301e+07
1.82316e+07
1.82331e+07
1.82346e+07
1.82362e+07
1.82377e+07
1.82393e+07
1.82408e+07
1.82424e+07
1.8244e+07
1.82456e+07
1.82472e+07
1.82489e+07
1.82505e+07
1.82522e+07
1.82538e+07
1.82555e+07
1.82573e+07
1.8259e+07
1.82608e+07
1.82626e+07
1.82644e+07
1.82662e+07
1.82681e+07
1.827e+07
1.82719e+07
1.82738e+07
1.82758e+07
1.82778e+07
1.82798e+07
1.82818e+07
1.82838e+07
1.82859e+07
1.8288e+07
1.829e+07
1.82921e+07
1.82942e+07
1.82963e+07
1.82984e+07
1.83006e+07
1.83027e+07
1.83048e+07
1.8307e+07
1.83089e+07
1.83103e+07
1.81532e+07
1.81435e+07
1.81468e+07
1.81485e+07
1.81467e+07
1.81449e+07
1.81445e+07
1.81446e+07
1.81448e+07
1.81448e+07
1.81447e+07
1.81447e+07
1.81447e+07
1.81447e+07
1.81446e+07
1.81446e+07
1.81446e+07
1.81446e+07
1.81445e+07
1.81445e+07
1.81445e+07
1.81444e+07
1.81444e+07
1.81444e+07
1.81444e+07
1.81444e+07
1.81444e+07
1.81444e+07
1.81444e+07
1.81444e+07
1.81444e+07
1.81445e+07
1.81445e+07
1.81446e+07
1.81446e+07
1.81447e+07
1.81448e+07
1.81449e+07
1.81451e+07
1.81452e+07
1.81454e+07
1.81455e+07
1.81457e+07
1.81459e+07
1.81461e+07
1.81463e+07
1.81465e+07
1.81468e+07
1.8147e+07
1.81473e+07
1.81475e+07
1.81478e+07
1.8148e+07
1.81483e+07
1.81485e+07
1.81488e+07
1.8149e+07
1.81493e+07
1.81495e+07
1.81498e+07
1.81501e+07
1.81504e+07
1.81507e+07
1.81509e+07
1.8151e+07
1.81512e+07
1.81514e+07
1.81516e+07
1.81518e+07
1.81521e+07
1.81523e+07
1.81526e+07
1.81529e+07
1.81532e+07
1.81536e+07
1.8154e+07
1.81544e+07
1.81548e+07
1.81553e+07
1.81558e+07
1.81563e+07
1.81569e+07
1.81574e+07
1.8158e+07
1.81587e+07
1.81593e+07
1.816e+07
1.81607e+07
1.81614e+07
1.81621e+07
1.81628e+07
1.81635e+07
1.81642e+07
1.8165e+07
1.81657e+07
1.81664e+07
1.81671e+07
1.81679e+07
1.81686e+07
1.81693e+07
1.81701e+07
1.81708e+07
1.81716e+07
1.81723e+07
1.81731e+07
1.81739e+07
1.81747e+07
1.81754e+07
1.81762e+07
1.8177e+07
1.81778e+07
1.81786e+07
1.81794e+07
1.81803e+07
1.81811e+07
1.81819e+07
1.81828e+07
1.81836e+07
1.81845e+07
1.81854e+07
1.81863e+07
1.81872e+07
1.81882e+07
1.81891e+07
1.81901e+07
1.81911e+07
1.81921e+07
1.81931e+07
1.81942e+07
1.81953e+07
1.81964e+07
1.81975e+07
1.81987e+07
1.81999e+07
1.82011e+07
1.82023e+07
1.82035e+07
1.82048e+07
1.82061e+07
1.82074e+07
1.82087e+07
1.821e+07
1.82114e+07
1.82127e+07
1.82141e+07
1.82155e+07
1.82169e+07
1.82183e+07
1.82198e+07
1.82212e+07
1.82227e+07
1.82241e+07
1.82256e+07
1.82271e+07
1.82286e+07
1.82301e+07
1.82316e+07
1.82331e+07
1.82346e+07
1.82362e+07
1.82377e+07
1.82393e+07
1.82408e+07
1.82424e+07
1.8244e+07
1.82456e+07
1.82472e+07
1.82489e+07
1.82505e+07
1.82522e+07
1.82538e+07
1.82555e+07
1.82573e+07
1.8259e+07
1.82608e+07
1.82626e+07
1.82644e+07
1.82662e+07
1.82681e+07
1.827e+07
1.82719e+07
1.82738e+07
1.82758e+07
1.82778e+07
1.82798e+07
1.82818e+07
1.82838e+07
1.82859e+07
1.8288e+07
1.829e+07
1.82921e+07
1.82942e+07
1.82963e+07
1.82984e+07
1.83006e+07
1.83027e+07
1.83048e+07
1.8307e+07
1.83089e+07
1.83104e+07
1.81355e+07
1.81405e+07
1.81442e+07
1.81447e+07
1.81443e+07
1.81442e+07
1.81444e+07
1.81445e+07
1.81446e+07
1.81446e+07
1.81446e+07
1.81447e+07
1.81447e+07
1.81447e+07
1.81446e+07
1.81446e+07
1.81446e+07
1.81446e+07
1.81445e+07
1.81445e+07
1.81445e+07
1.81445e+07
1.81444e+07
1.81444e+07
1.81444e+07
1.81444e+07
1.81444e+07
1.81444e+07
1.81444e+07
1.81444e+07
1.81444e+07
1.81445e+07
1.81445e+07
1.81446e+07
1.81446e+07
1.81447e+07
1.81448e+07
1.81449e+07
1.81451e+07
1.81452e+07
1.81454e+07
1.81455e+07
1.81457e+07
1.81459e+07
1.81461e+07
1.81463e+07
1.81465e+07
1.81468e+07
1.8147e+07
1.81473e+07
1.81475e+07
1.81478e+07
1.8148e+07
1.81483e+07
1.81485e+07
1.81488e+07
1.81491e+07
1.81493e+07
1.81496e+07
1.81498e+07
1.815e+07
1.81502e+07
1.81505e+07
1.81507e+07
1.81509e+07
1.81512e+07
1.81514e+07
1.81516e+07
1.81519e+07
1.81522e+07
1.81524e+07
1.81527e+07
1.8153e+07
1.81534e+07
1.81537e+07
1.81541e+07
1.81545e+07
1.8155e+07
1.81554e+07
1.81559e+07
1.81564e+07
1.8157e+07
1.81576e+07
1.81582e+07
1.81588e+07
1.81594e+07
1.81601e+07
1.81607e+07
1.81614e+07
1.81621e+07
1.81628e+07
1.81635e+07
1.81642e+07
1.8165e+07
1.81657e+07
1.81664e+07
1.81671e+07
1.81679e+07
1.81686e+07
1.81693e+07
1.81701e+07
1.81708e+07
1.81716e+07
1.81723e+07
1.81731e+07
1.81739e+07
1.81747e+07
1.81754e+07
1.81762e+07
1.8177e+07
1.81778e+07
1.81786e+07
1.81794e+07
1.81803e+07
1.81811e+07
1.81819e+07
1.81828e+07
1.81836e+07
1.81845e+07
1.81854e+07
1.81863e+07
1.81872e+07
1.81882e+07
1.81891e+07
1.81901e+07
1.81911e+07
1.81921e+07
1.81931e+07
1.81942e+07
1.81953e+07
1.81964e+07
1.81975e+07
1.81987e+07
1.81999e+07
1.82011e+07
1.82023e+07
1.82035e+07
1.82048e+07
1.82061e+07
1.82074e+07
1.82087e+07
1.821e+07
1.82114e+07
1.82127e+07
1.82141e+07
1.82155e+07
1.82169e+07
1.82183e+07
1.82198e+07
1.82212e+07
1.82227e+07
1.82241e+07
1.82256e+07
1.82271e+07
1.82286e+07
1.82301e+07
1.82316e+07
1.82331e+07
1.82346e+07
1.82362e+07
1.82377e+07
1.82393e+07
1.82408e+07
1.82424e+07
1.8244e+07
1.82456e+07
1.82472e+07
1.82489e+07
1.82505e+07
1.82522e+07
1.82538e+07
1.82555e+07
1.82573e+07
1.8259e+07
1.82608e+07
1.82626e+07
1.82644e+07
1.82662e+07
1.82681e+07
1.827e+07
1.82719e+07
1.82738e+07
1.82758e+07
1.82778e+07
1.82798e+07
1.82818e+07
1.82838e+07
1.82859e+07
1.8288e+07
1.829e+07
1.82921e+07
1.82942e+07
1.82963e+07
1.82984e+07
1.83006e+07
1.83027e+07
1.83049e+07
1.8307e+07
1.83092e+07
1.83114e+07
1.81464e+07
1.81455e+07
1.81453e+07
1.81449e+07
1.81445e+07
1.81444e+07
1.81444e+07
1.81446e+07
1.81446e+07
1.81446e+07
1.81447e+07
1.81447e+07
1.81447e+07
1.81447e+07
1.81447e+07
1.81446e+07
1.81446e+07
1.81446e+07
1.81445e+07
1.81445e+07
1.81445e+07
1.81445e+07
1.81444e+07
1.81444e+07
1.81444e+07
1.81444e+07
1.81444e+07
1.81444e+07
1.81444e+07
1.81444e+07
1.81444e+07
1.81445e+07
1.81445e+07
1.81446e+07
1.81447e+07
1.81447e+07
1.81448e+07
1.81449e+07
1.81451e+07
1.81452e+07
1.81454e+07
1.81455e+07
1.81457e+07
1.81459e+07
1.81461e+07
1.81463e+07
1.81466e+07
1.81468e+07
1.8147e+07
1.81473e+07
1.81475e+07
1.81478e+07
1.8148e+07
1.81483e+07
1.81486e+07
1.81488e+07
1.81491e+07
1.81493e+07
1.81496e+07
1.81498e+07
1.81501e+07
1.81503e+07
1.81505e+07
1.81507e+07
1.8151e+07
1.81512e+07
1.81514e+07
1.81517e+07
1.8152e+07
1.81523e+07
1.81525e+07
1.81528e+07
1.81532e+07
1.81535e+07
1.81539e+07
1.81542e+07
1.81547e+07
1.81551e+07
1.81556e+07
1.8156e+07
1.81566e+07
1.81571e+07
1.81577e+07
1.81583e+07
1.81589e+07
1.81595e+07
1.81601e+07
1.81608e+07
1.81615e+07
1.81621e+07
1.81628e+07
1.81635e+07
1.81643e+07
1.8165e+07
1.81657e+07
1.81664e+07
1.81671e+07
1.81679e+07
1.81686e+07
1.81693e+07
1.81701e+07
1.81708e+07
1.81716e+07
1.81723e+07
1.81731e+07
1.81739e+07
1.81747e+07
1.81754e+07
1.81762e+07
1.8177e+07
1.81778e+07
1.81786e+07
1.81794e+07
1.81803e+07
1.81811e+07
1.81819e+07
1.81828e+07
1.81836e+07
1.81845e+07
1.81854e+07
1.81863e+07
1.81872e+07
1.81882e+07
1.81891e+07
1.81901e+07
1.81911e+07
1.81921e+07
1.81931e+07
1.81942e+07
1.81953e+07
1.81964e+07
1.81975e+07
1.81987e+07
1.81999e+07
1.82011e+07
1.82023e+07
1.82035e+07
1.82048e+07
1.82061e+07
1.82074e+07
1.82087e+07
1.821e+07
1.82114e+07
1.82127e+07
1.82141e+07
1.82155e+07
1.82169e+07
1.82183e+07
1.82198e+07
1.82212e+07
1.82227e+07
1.82241e+07
1.82256e+07
1.82271e+07
1.82286e+07
1.82301e+07
1.82316e+07
1.82331e+07
1.82346e+07
1.82362e+07
1.82377e+07
1.82393e+07
1.82408e+07
1.82424e+07
1.8244e+07
1.82456e+07
1.82472e+07
1.82489e+07
1.82505e+07
1.82522e+07
1.82538e+07
1.82555e+07
1.82573e+07
1.8259e+07
1.82608e+07
1.82626e+07
1.82644e+07
1.82662e+07
1.82681e+07
1.827e+07
1.82719e+07
1.82738e+07
1.82758e+07
1.82778e+07
1.82798e+07
1.82818e+07
1.82838e+07
1.82859e+07
1.8288e+07
1.829e+07
1.82921e+07
1.82942e+07
1.82963e+07
1.82984e+07
1.83006e+07
1.83027e+07
1.83049e+07
1.83071e+07
1.83094e+07
1.83122e+07
1.81436e+07
1.81451e+07
1.81451e+07
1.81449e+07
1.81445e+07
1.81444e+07
1.81444e+07
1.81446e+07
1.81446e+07
1.81446e+07
1.81447e+07
1.81447e+07
1.81447e+07
1.81447e+07
1.81447e+07
1.81446e+07
1.81446e+07
1.81446e+07
1.81445e+07
1.81445e+07
1.81445e+07
1.81445e+07
1.81444e+07
1.81444e+07
1.81444e+07
1.81444e+07
1.81444e+07
1.81444e+07
1.81444e+07
1.81444e+07
1.81444e+07
1.81445e+07
1.81445e+07
1.81446e+07
1.81447e+07
1.81447e+07
1.81448e+07
1.81449e+07
1.81451e+07
1.81452e+07
1.81454e+07
1.81455e+07
1.81457e+07
1.81459e+07
1.81461e+07
1.81463e+07
1.81466e+07
1.81468e+07
1.8147e+07
1.81473e+07
1.81475e+07
1.81478e+07
1.8148e+07
1.81483e+07
1.81486e+07
1.81488e+07
1.81491e+07
1.81493e+07
1.81496e+07
1.81498e+07
1.81501e+07
1.81503e+07
1.81505e+07
1.81507e+07
1.8151e+07
1.81512e+07
1.81514e+07
1.81517e+07
1.8152e+07
1.81523e+07
1.81525e+07
1.81528e+07
1.81532e+07
1.81535e+07
1.81539e+07
1.81542e+07
1.81546e+07
1.81551e+07
1.81555e+07
1.8156e+07
1.81566e+07
1.81571e+07
1.81577e+07
1.81582e+07
1.81589e+07
1.81595e+07
1.81601e+07
1.81608e+07
1.81615e+07
1.81621e+07
1.81628e+07
1.81635e+07
1.81643e+07
1.8165e+07
1.81657e+07
1.81664e+07
1.81671e+07
1.81679e+07
1.81686e+07
1.81693e+07
1.81701e+07
1.81708e+07
1.81716e+07
1.81723e+07
1.81731e+07
1.81739e+07
1.81747e+07
1.81754e+07
1.81762e+07
1.8177e+07
1.81778e+07
1.81786e+07
1.81794e+07
1.81803e+07
1.81811e+07
1.81819e+07
1.81828e+07
1.81836e+07
1.81845e+07
1.81854e+07
1.81863e+07
1.81872e+07
1.81882e+07
1.81891e+07
1.81901e+07
1.81911e+07
1.81921e+07
1.81931e+07
1.81942e+07
1.81953e+07
1.81964e+07
1.81975e+07
1.81987e+07
1.81999e+07
1.82011e+07
1.82023e+07
1.82035e+07
1.82048e+07
1.82061e+07
1.82074e+07
1.82087e+07
1.821e+07
1.82114e+07
1.82127e+07
1.82141e+07
1.82155e+07
1.82169e+07
1.82183e+07
1.82198e+07
1.82212e+07
1.82227e+07
1.82241e+07
1.82256e+07
1.82271e+07
1.82286e+07
1.82301e+07
1.82316e+07
1.82331e+07
1.82346e+07
1.82362e+07
1.82377e+07
1.82393e+07
1.82408e+07
1.82424e+07
1.8244e+07
1.82456e+07
1.82472e+07
1.82489e+07
1.82505e+07
1.82522e+07
1.82538e+07
1.82555e+07
1.82573e+07
1.8259e+07
1.82608e+07
1.82626e+07
1.82644e+07
1.82662e+07
1.82681e+07
1.827e+07
1.82719e+07
1.82738e+07
1.82758e+07
1.82778e+07
1.82798e+07
1.82818e+07
1.82838e+07
1.82859e+07
1.8288e+07
1.829e+07
1.82921e+07
1.82942e+07
1.82963e+07
1.82984e+07
1.83006e+07
1.83027e+07
1.83049e+07
1.83071e+07
1.83094e+07
1.83122e+07
1.83026e+07
1.8299e+07
1.8298e+07
1.82982e+07
1.82979e+07
1.82968e+07
1.82949e+07
1.82929e+07
1.82908e+07
1.82887e+07
1.82863e+07
1.82842e+07
1.82821e+07
1.82801e+07
1.82782e+07
1.82764e+07
1.82749e+07
1.82739e+07
1.82734e+07
1.82738e+07
1.83062e+07
1.83059e+07
1.83066e+07
1.83073e+07
1.83072e+07
1.83063e+07
1.83046e+07
1.8303e+07
1.83011e+07
1.82995e+07
1.82973e+07
1.82956e+07
1.82938e+07
1.82921e+07
1.82905e+07
1.8289e+07
1.82877e+07
1.82867e+07
1.82861e+07
1.82857e+07
1.83131e+07
1.83136e+07
1.83137e+07
1.83136e+07
1.83131e+07
1.83125e+07
1.83117e+07
1.83106e+07
1.83094e+07
1.83078e+07
1.83059e+07
1.83037e+07
1.83012e+07
1.82986e+07
1.82963e+07
1.82942e+07
1.82923e+07
1.82901e+07
1.82874e+07
1.82845e+07
1.83168e+07
1.83185e+07
1.8319e+07
1.83191e+07
1.83193e+07
1.83195e+07
1.83195e+07
1.83187e+07
1.83173e+07
1.83164e+07
1.83161e+07
1.83164e+07
1.8319e+07
1.83213e+07
1.8321e+07
1.83163e+07
1.83084e+07
1.8303e+07
1.82996e+07
1.8296e+07
1.83181e+07
1.8321e+07
1.83218e+07
1.83219e+07
1.8322e+07
1.83223e+07
1.83223e+07
1.83216e+07
1.83203e+07
1.83194e+07
1.8319e+07
1.83192e+07
1.83216e+07
1.83241e+07
1.83243e+07
1.83205e+07
1.83134e+07
1.83079e+07
1.83042e+07
1.83001e+07
1.82825e+07
1.82857e+07
1.82874e+07
1.82893e+07
1.82913e+07
1.82934e+07
1.82956e+07
1.82979e+07
1.83002e+07
1.83026e+07
1.83049e+07
1.83073e+07
1.83097e+07
1.8312e+07
1.83145e+07
1.83169e+07
1.83193e+07
1.83218e+07
1.83243e+07
1.83268e+07
1.83293e+07
1.83318e+07
1.83344e+07
1.8337e+07
1.83395e+07
1.83422e+07
1.83448e+07
1.83474e+07
1.83501e+07
1.83527e+07
1.83554e+07
1.83581e+07
1.83608e+07
1.83635e+07
1.83663e+07
1.8369e+07
1.83718e+07
1.83746e+07
1.83774e+07
1.83802e+07
1.8383e+07
1.83858e+07
1.83887e+07
1.83915e+07
1.83944e+07
1.83973e+07
1.84002e+07
1.84032e+07
1.84061e+07
1.8409e+07
1.8412e+07
1.8415e+07
1.8418e+07
1.8421e+07
1.8424e+07
1.8427e+07
1.84301e+07
1.84331e+07
1.84362e+07
1.84392e+07
1.84423e+07
1.84454e+07
1.84485e+07
1.84517e+07
1.84548e+07
1.8458e+07
1.84611e+07
1.84643e+07
1.84675e+07
1.84708e+07
1.8474e+07
1.84773e+07
1.84806e+07
1.84839e+07
1.84872e+07
1.84906e+07
1.84939e+07
1.84974e+07
1.85008e+07
1.85042e+07
1.85077e+07
1.85112e+07
1.85147e+07
1.85183e+07
1.85218e+07
1.85253e+07
1.85289e+07
1.85324e+07
1.8536e+07
1.85396e+07
1.85431e+07
1.85467e+07
1.85503e+07
1.85539e+07
1.85574e+07
1.8561e+07
1.85645e+07
1.85681e+07
1.85715e+07
1.85746e+07
1.82847e+07
1.8286e+07
1.82875e+07
1.82893e+07
1.82913e+07
1.82934e+07
1.82956e+07
1.82979e+07
1.83002e+07
1.83026e+07
1.83049e+07
1.83073e+07
1.83097e+07
1.8312e+07
1.83145e+07
1.83169e+07
1.83193e+07
1.83218e+07
1.83243e+07
1.83268e+07
1.83293e+07
1.83318e+07
1.83344e+07
1.8337e+07
1.83395e+07
1.83422e+07
1.83448e+07
1.83474e+07
1.83501e+07
1.83527e+07
1.83554e+07
1.83581e+07
1.83608e+07
1.83635e+07
1.83663e+07
1.8369e+07
1.83718e+07
1.83746e+07
1.83774e+07
1.83802e+07
1.8383e+07
1.83858e+07
1.83887e+07
1.83915e+07
1.83944e+07
1.83973e+07
1.84002e+07
1.84032e+07
1.84061e+07
1.8409e+07
1.8412e+07
1.8415e+07
1.8418e+07
1.8421e+07
1.8424e+07
1.8427e+07
1.84301e+07
1.84331e+07
1.84362e+07
1.84392e+07
1.84423e+07
1.84454e+07
1.84485e+07
1.84517e+07
1.84548e+07
1.8458e+07
1.84611e+07
1.84643e+07
1.84675e+07
1.84708e+07
1.8474e+07
1.84773e+07
1.84806e+07
1.84839e+07
1.84872e+07
1.84906e+07
1.84939e+07
1.84974e+07
1.85008e+07
1.85043e+07
1.85077e+07
1.85112e+07
1.85147e+07
1.85183e+07
1.85218e+07
1.85253e+07
1.85289e+07
1.85324e+07
1.8536e+07
1.85396e+07
1.85431e+07
1.85467e+07
1.85503e+07
1.85539e+07
1.85574e+07
1.8561e+07
1.85645e+07
1.85681e+07
1.85715e+07
1.85746e+07
1.82761e+07
1.82818e+07
1.82867e+07
1.82894e+07
1.82915e+07
1.82937e+07
1.82958e+07
1.82981e+07
1.83005e+07
1.83028e+07
1.83051e+07
1.83074e+07
1.83098e+07
1.83122e+07
1.83146e+07
1.8317e+07
1.83194e+07
1.83218e+07
1.83243e+07
1.83268e+07
1.83293e+07
1.83318e+07
1.83344e+07
1.8337e+07
1.83395e+07
1.83421e+07
1.83448e+07
1.83474e+07
1.835e+07
1.83527e+07
1.83554e+07
1.83581e+07
1.83608e+07
1.83635e+07
1.83663e+07
1.8369e+07
1.83718e+07
1.83746e+07
1.83774e+07
1.83802e+07
1.8383e+07
1.83858e+07
1.83887e+07
1.83915e+07
1.83944e+07
1.83973e+07
1.84002e+07
1.84031e+07
1.84061e+07