/*--------------------------------*- C++ -*----------------------------------*\
| =========                 |                                                 |
| \\      /  F ield         | OpenFOAM: The Open Source CFD Toolbox           |
|  \\    /   O peration     | Version:  3.0.x                                 |
|   \\  /    A nd           | Web:      www.OpenFOAM.org                      |
|    \\/     M anipulation  |                                                 |
\*---------------------------------------------------------------------------*/
FoamFile
{
    version     2.0;
    format      ascii;
    class       surfaceScalarField;
    location    "0.39";
    object      phi;
}
// * * * * * * * * * * * * * * * * * * * * * * * * * * * * * * * * * * * * * //

dimensions      [1 0 -1 0 0 0 0];

internalField   nonuniform List<scalar> 
12415
(
5.79723
0.000327746
5.797
0.000235151
5.79678
0.000224593
5.79656
0.000226668
5.79634
0.000227121
5.79612
0.000226907
5.79589
0.000226845
5.79567
0.000226844
5.79544
0.00022684
5.7952
0.000226834
5.79496
0.00022683
5.79471
0.000226827
5.79446
0.000226825
5.79419
0.000226824
5.79392
0.00022683
5.79365
0.000226839
5.79336
0.000226854
5.79307
0.000226854
5.79277
0.00022697
5.79247
0.000226905
5.79216
0.000226965
5.79185
0.000227047
5.79154
0.000227136
5.79124
0.000227188
5.79094
0.000227259
5.79065
0.000227344
5.79035
0.000227428
5.79006
0.000227516
5.78976
0.000227605
5.78947
0.000227696
5.78919
0.000227789
5.78892
0.00022789
5.78866
0.000228022
5.78841
0.000228033
5.78819
0.00022818
5.78797
0.000228287
5.78777
0.000228398
5.78758
0.000228502
5.7874
0.000228604
5.78722
0.000228701
5.78705
0.000228778
5.78687
0.000228836
5.78669
0.00022886
5.7865
0.000228834
5.7863
0.000228737
5.78609
0.000228541
5.78586
0.000228213
5.78563
0.000227712
5.78538
0.000226986
5.78512
0.000225966
5.78485
0.000224607
5.78455
0.000222817
5.78424
0.000220519
5.78392
0.000217639
5.78357
0.000214094
5.78321
0.000209816
5.78283
0.000204747
5.78244
0.000198847
5.78204
0.000192096
5.78164
0.000184468
5.78124
0.000176166
5.78085
0.00016694
5.78047
0.000157122
5.78011
0.000146792
5.77976
0.000136034
5.77944
0.000125018
5.77915
0.000113902
5.77889
0.000102846
5.77866
9.20053e-05
5.77846
8.15228e-05
5.77829
7.15272e-05
5.77816
6.21221e-05
5.77806
5.33924e-05
5.77799
4.54045e-05
5.77795
3.81385e-05
5.77792
3.17174e-05
5.77792
2.60194e-05
5.77794
2.10542e-05
5.77796
1.6792e-05
5.778
1.31736e-05
5.77803
1.01356e-05
5.77806
7.61564e-06
5.77808
5.55115e-06
5.77808
3.8795e-06
5.77807
2.54007e-06
5.77803
1.4845e-06
5.77797
6.53636e-07
5.77789
1.25619e-08
5.77777
-4.6987e-07
5.77763
-8.39304e-07
5.77745
-1.10808e-06
5.77725
-1.30455e-06
5.77702
-1.44883e-06
5.77677
-1.55064e-06
5.7765
-1.62223e-06
5.77621
-1.67284e-06
5.77591
-1.7081e-06
5.77561
-1.73324e-06
5.77531
-1.75185e-06
5.77501
-1.76648e-06
5.77473
-1.77889e-06
5.77447
-1.7903e-06
5.77424
-1.8017e-06
5.77403
-1.81322e-06
5.77386
-1.8254e-06
5.77373
-1.83814e-06
5.77363
-1.85098e-06
5.77357
-1.86439e-06
5.77355
-1.87008e-06
5.77356
-1.88905e-06
5.7736
-1.9026e-06
5.77367
-1.90905e-06
5.77377
-1.91953e-06
5.77389
-1.92647e-06
5.77403
-1.93131e-06
5.77417
-1.93433e-06
5.77431
-1.93514e-06
5.77444
-1.93327e-06
5.77456
-1.9291e-06
5.77467
-1.92294e-06
5.77475
-1.91462e-06
5.77479
-1.90357e-06
5.7748
-1.89149e-06
5.77477
-1.87966e-06
5.7747
-1.869e-06
5.77459
-1.84932e-06
5.77443
-1.83543e-06
5.77423
-1.81817e-06
5.77399
-1.80552e-06
5.77371
-1.79056e-06
5.7734
-1.78038e-06
5.77306
-1.77073e-06
5.77271
-1.76438e-06
5.77235
-1.76092e-06
5.77198
-1.76124e-06
5.77164
-1.76396e-06
5.77131
-1.77118e-06
5.77101
-1.78087e-06
5.77075
-1.79376e-06
5.77053
-1.8086e-06
5.77036
-1.82605e-06
5.77024
-1.84376e-06
5.77018
-1.85972e-06
5.77018
-1.88349e-06
5.77022
-1.89479e-06
5.77031
-1.91595e-06
5.77045
-1.93229e-06
5.77062
-1.94565e-06
5.77083
-1.95638e-06
5.77107
-1.96572e-06
5.77132
-1.9703e-06
5.77158
-1.97347e-06
5.77184
-1.97399e-06
5.7721
-1.96928e-06
5.77234
-1.96456e-06
5.77255
-1.95449e-06
5.77274
-1.94256e-06
5.77288
-1.92748e-06
5.77297
-1.9102e-06
5.773
-1.88955e-06
5.77297
-1.83714e-06
5.77288
-1.91088e-06
5.77272
-1.79911e-06
5.7725
-1.79729e-06
5.7722
-1.77637e-06
5.77185
-1.75426e-06
5.77145
-1.73773e-06
5.771
-1.72125e-06
5.77053
-1.71345e-06
5.77005
-1.70755e-06
5.76957
-1.70901e-06
5.76911
-1.71674e-06
5.76869
-1.72872e-06
5.76832
-1.74734e-06
5.76802
-1.77121e-06
5.76779
-1.79717e-06
5.76764
-1.82699e-06
5.76757
-1.85456e-06
5.76758
-1.86759e-06
5.76766
-1.9435e-06
5.7678
-1.92052e-06
5.768
-1.9473e-06
5.76824
-1.97484e-06
5.76852
-1.98101e-06
5.76883
-1.99901e-06
5.76916
-1.99965e-06
5.7695
-2.00868e-06
5.76986
-2.00708e-06
5.77023
-2.01496e-06
5.77059
-2.00015e-06
5.77095
-2.00272e-06
5.77129
-1.87362e-06
5.77159
-1.30767e-06
5.77183
2.93358e-06
5.77197
3.21611e-05
5.77182
0.00023636
5.77014
0.00167158
5.7584
0.0116242
5.66755
0.0906132
0.447328
5.21989
11.5952
0.000260512
11.5953
0.000215916
11.5953
0.000189248
11.5953
0.000193998
11.5954
0.00019532
11.5954
0.000194721
11.5955
0.000194554
11.5955
0.000194564
11.5955
0.000194568
11.5955
0.000194566
11.5955
0.000194568
11.5955
0.000194573
11.5955
0.00019458
11.5955
0.000194589
11.5954
0.000194603
11.5953
0.000194621
11.5953
0.000194643
11.5952
0.000194663
11.595
0.000194743
11.5949
0.000194731
11.5948
0.000194785
11.5947
0.000194861
11.5945
0.00019494
11.5944
0.000195011
11.5943
0.000195072
11.5942
0.000195161
11.5941
0.000195243
11.594
0.000195329
11.5939
0.000195417
11.5938
0.000195506
11.5937
0.000195598
11.5937
0.000195693
11.5936
0.000195807
11.5936
0.00019586
11.5937
0.000195974
11.5937
0.000196084
11.5938
0.000196188
11.5939
0.00019629
11.594
0.000196389
11.5942
0.000196483
11.5943
0.000196561
11.5945
0.000196621
11.5946
0.000196653
11.5947
0.000196641
11.5948
0.000196567
11.5948
0.000196407
11.5949
0.000196132
11.5949
0.000195709
11.5949
0.000195087
11.5948
0.000194212
11.5948
0.000193042
11.5947
0.000191497
11.5945
0.000189513
11.5943
0.000187022
11.5941
0.000183957
11.5938
0.000180256
11.5935
0.000175872
11.5931
0.000170768
11.5928
0.00016493
11.5924
0.000158349
11.5919
0.000151151
11.5915
0.000143198
11.5911
0.000134732
11.5907
0.000125815
11.5903
0.000116543
11.5899
0.000107054
11.5896
9.74865e-05
11.5893
8.79771e-05
11.589
7.86608e-05
11.5888
6.96574e-05
11.5886
6.10808e-05
11.5885
5.30158e-05
11.5884
4.55368e-05
11.5883
3.86954e-05
11.5883
3.24893e-05
11.5883
2.69894e-05
11.5884
2.2128e-05
11.5885
1.78928e-05
11.5886
1.42561e-05
11.5887
1.11739e-05
11.5887
8.58878e-06
11.5888
6.44423e-06
11.5889
4.69064e-06
11.5889
3.27158e-06
11.5889
2.13542e-06
11.5888
1.24189e-06
11.5887
5.38903e-07
11.5885
-3.02043e-09
11.5883
-4.11956e-07
11.588
-7.22607e-07
11.5876
-9.52869e-07
11.5872
-1.12004e-06
11.5868
-1.24275e-06
11.5863
-1.32969e-06
11.5857
-1.39089e-06
11.5851
-1.43421e-06
11.5845
-1.46454e-06
11.5839
-1.48614e-06
11.5833
-1.50215e-06
11.5827
-1.51477e-06
11.5822
-1.52542e-06
11.5816
-1.53528e-06
11.5812
-1.545e-06
11.5807
-1.55497e-06
11.5804
-1.56539e-06
11.5801
-1.57633e-06
11.5799
-1.58737e-06
11.5798
-1.59846e-06
11.5797
-1.60448e-06
11.5798
-1.61955e-06
11.5798
-1.63151e-06
11.58
-1.63751e-06
11.5802
-1.64603e-06
11.5804
-1.65213e-06
11.5807
-1.65624e-06
11.581
-1.65884e-06
11.5812
-1.65947e-06
11.5815
-1.65795e-06
11.5817
-1.65438e-06
11.5819
-1.64904e-06
11.5821
-1.64186e-06
11.5822
-1.63252e-06
11.5822
-1.62217e-06
11.5821
-1.61186e-06
11.582
-1.6025e-06
11.5818
-1.58707e-06
11.5814
-1.57352e-06
11.581
-1.55895e-06
11.5805
-1.5484e-06
11.58
-1.53546e-06
11.5793
-1.52694e-06
11.5787
-1.51835e-06
11.578
-1.51342e-06
11.5772
-1.5098e-06
11.5765
-1.51075e-06
11.5758
-1.5124e-06
11.5751
-1.51935e-06
11.5745
-1.52695e-06
11.574
-1.53847e-06
11.5736
-1.55106e-06
11.5732
-1.5658e-06
11.573
-1.58147e-06
11.5729
-1.59576e-06
11.5728
-1.61262e-06
11.5729
-1.626e-06
11.5731
-1.64423e-06
11.5734
-1.65656e-06
11.5737
-1.66849e-06
11.5741
-1.67784e-06
11.5746
-1.68543e-06
11.5751
-1.69019e-06
11.5756
-1.69196e-06
11.5761
-1.69365e-06
11.5766
-1.68761e-06
11.5771
-1.68632e-06
11.5775
-1.67469e-06
11.5779
-1.66622e-06
11.5782
-1.65306e-06
11.5784
-1.63795e-06
11.5784
-1.62038e-06
11.5784
-1.58941e-06
11.5782
-1.63137e-06
11.5779
-1.53863e-06
11.5774
-1.53755e-06
11.5768
-1.52569e-06
11.5761
-1.50341e-06
11.5753
-1.49106e-06
11.5744
-1.47532e-06
11.5735
-1.46943e-06
11.5725
-1.4649e-06
11.5715
-1.46561e-06
11.5706
-1.47186e-06
11.5698
-1.48308e-06
11.569
-1.49812e-06
11.5684
-1.51928e-06
11.5679
-1.54089e-06
11.5676
-1.56713e-06
11.5675
-1.58746e-06
11.5675
-1.58529e-06
11.5677
-1.73692e-06
11.5679
-1.61599e-06
11.5683
-1.64938e-06
11.5688
-1.6973e-06
11.5694
-1.69033e-06
11.57
-1.72161e-06
11.5706
-1.7102e-06
11.5713
-1.72904e-06
11.572
-1.71464e-06
11.5727
-1.73737e-06
11.5735
-1.69615e-06
11.5742
-1.70869e-06
11.5749
-1.34633e-06
11.5755
2.9388e-07
11.5759
1.28126e-05
11.5762
9.93545e-05
11.5759
0.000704199
11.5726
0.00495478
11.5497
0.0342689
11.3998
0.240083
1.12674
10.7197
139.142
-0.000260512
139.143
-0.000215916
139.143
-0.000189248
139.144
-0.000193998
139.145
-0.00019532
139.145
-0.000194721
139.145
-0.000194554
139.146
-0.000194564
139.146
-0.000194568
139.146
-0.000194566
139.146
-0.000194568
139.146
-0.000194573
139.146
-0.00019458
139.145
-0.000194589
139.145
-0.000194603
139.144
-0.000194621
139.143
-0.000194643
139.142
-0.000194663
139.14
-0.000194743
139.139
-0.000194731
139.137
-0.000194785
139.136
-0.000194861
139.134
-0.00019494
139.133
-0.000195011
139.132
-0.000195072
139.13
-0.000195161
139.129
-0.000195243
139.128
-0.000195329
139.127
-0.000195417
139.125
-0.000195506
139.125
-0.000195598
139.124
-0.000195693
139.123
-0.000195807
139.123
-0.00019586
139.124
-0.000195974
139.125
-0.000196084
139.126
-0.000196188
139.127
-0.00019629
139.128
-0.000196389
139.13
-0.000196483
139.132
-0.000196561
139.133
-0.000196621
139.135
-0.000196653
139.136
-0.000196641
139.137
-0.000196567
139.138
-0.000196407
139.139
-0.000196132
139.139
-0.000195709
139.139
-0.000195087
139.138
-0.000194212
139.137
-0.000193042
139.136
-0.000191497
139.134
-0.000189513
139.132
-0.000187022
139.129
-0.000183957
139.126
-0.000180256
139.122
-0.000175872
139.118
-0.000170768
139.113
-0.00016493
139.108
-0.000158349
139.103
-0.000151151
139.098
-0.000143198
139.093
-0.000134732
139.088
-0.000125815
139.083
-0.000116543
139.079
-0.000107054
139.075
-9.74865e-05
139.071
-8.79771e-05
139.068
-7.86608e-05
139.065
-6.96574e-05
139.063
-6.10808e-05
139.062
-5.30158e-05
139.061
-4.55368e-05
139.06
-3.86954e-05
139.06
-3.24893e-05
139.06
-2.69894e-05
139.061
-2.2128e-05
139.062
-1.78928e-05
139.063
-1.42561e-05
139.064
-1.11739e-05
139.065
-8.58878e-06
139.066
-6.44423e-06
139.066
-4.69064e-06
139.067
-3.27158e-06
139.066
-2.13542e-06
139.066
-1.24189e-06
139.064
-5.38903e-07
139.062
3.02225e-09
139.059
4.11955e-07
139.056
7.22609e-07
139.052
9.52869e-07
139.047
1.12004e-06
139.041
1.24275e-06
139.035
1.32969e-06
139.029
1.39089e-06
139.022
1.43422e-06
139.014
1.46454e-06
139.007
1.48614e-06
139
1.50215e-06
138.993
1.51477e-06
138.986
1.52542e-06
138.98
1.53527e-06
138.974
1.545e-06
138.969
1.55497e-06
138.965
1.56539e-06
138.961
1.57633e-06
138.959
1.58737e-06
138.958
1.59846e-06
138.957
1.60448e-06
138.957
1.61955e-06
138.958
1.63151e-06
138.96
1.63751e-06
138.962
1.64603e-06
138.965
1.65213e-06
138.968
1.65624e-06
138.971
1.65884e-06
138.975
1.65947e-06
138.978
1.65796e-06
138.981
1.65439e-06
138.983
1.64904e-06
138.985
1.64186e-06
138.986
1.63252e-06
138.986
1.62216e-06
138.986
1.6118e-06
138.984
1.60289e-06
138.981
1.5867e-06
138.977
1.57335e-06
138.972
1.55919e-06
138.967
1.54828e-06
138.96
1.53574e-06
138.952
1.52652e-06
138.944
1.51877e-06
138.936
1.51293e-06
138.927
1.51047e-06
138.918
1.51001e-06
138.91
1.51337e-06
138.902
1.5183e-06
138.895
1.5279e-06
138.888
1.53768e-06
138.883
1.55163e-06
138.879
1.56531e-06
138.876
1.58288e-06
138.875
1.5987e-06
138.874
1.59785e-06
138.875
1.63585e-06
138.877
1.64388e-06
138.881
1.65764e-06
138.885
1.66845e-06
138.89
1.67755e-06
138.895
1.68664e-06
138.901
1.68795e-06
138.908
1.69514e-06
138.914
1.68701e-06
138.92
1.69559e-06
138.926
1.67495e-06
138.931
1.68563e-06
138.935
1.66342e-06
138.938
1.65305e-06
138.94
1.63781e-06
138.941
1.61981e-06
138.94
1.54372e-06
138.938
1.65492e-06
138.934
1.54312e-06
138.929
1.56184e-06
138.922
1.51759e-06
138.913
1.50693e-06
138.904
1.48603e-06
138.893
1.48417e-06
138.882
1.46372e-06
138.87
1.46656e-06
138.858
1.46338e-06
138.847
1.47516e-06
138.837
1.4793e-06
138.828
1.50171e-06
138.821
1.51618e-06
138.815
1.54311e-06
138.812
1.56559e-06
138.81
1.60236e-06
138.81
1.69945e-06
138.812
1.50504e-06
138.815
1.60285e-06
138.82
1.77232e-06
138.826
1.67135e-06
138.832
1.7577e-06
138.84
1.65505e-06
138.848
1.76047e-06
138.856
1.66445e-06
138.864
1.77382e-06
138.873
1.67312e-06
138.882
1.80743e-06
138.89
1.6895e-06
138.898
2.17256e-06
138.906
4.25862e-06
138.911
2.07728e-05
138.916
0.000137232
138.917
0.000963955
138.915
0.00691024
138.897
0.0496073
138.741
0.390276
1.67629
138.184
11.5952
-0.000327746
11.5953
-0.000235151
11.5953
-0.000224593
11.5953
-0.000226668
11.5954
-0.000227121
11.5954
-0.000226907
11.5955
-0.000226845
11.5955
-0.000226844
11.5955
-0.00022684
11.5955
-0.000226834
11.5955
-0.00022683
11.5955
-0.000226827
11.5955
-0.000226825
11.5955
-0.000226824
11.5954
-0.00022683
11.5953
-0.000226839
11.5953
-0.000226854
11.5952
-0.000226854
11.595
-0.00022697
11.5949
-0.000226905
11.5948
-0.000226965
11.5947
-0.000227047
11.5945
-0.000227136
11.5944
-0.000227188
11.5943
-0.000227259
11.5942
-0.000227344
11.5941
-0.000227428
11.594
-0.000227516
11.5939
-0.000227605
11.5938
-0.000227696
11.5937
-0.000227789
11.5937
-0.00022789
11.5936
-0.000228022
11.5936
-0.000228033
11.5937
-0.00022818
11.5937
-0.000228287
11.5938
-0.000228398
11.5939
-0.000228502
11.594
-0.000228604
11.5942
-0.000228701
11.5943
-0.000228778
11.5945
-0.000228836
11.5946
-0.00022886
11.5947
-0.000228834
11.5948
-0.000228737
11.5948
-0.000228541
11.5949
-0.000228213
11.5949
-0.000227712
11.5949
-0.000226986
11.5948
-0.000225966
11.5948
-0.000224607
11.5947
-0.000222817
11.5945
-0.000220519
11.5943
-0.000217639
11.5941
-0.000214094
11.5938
-0.000209816
11.5935
-0.000204747
11.5931
-0.000198847
11.5928
-0.000192096
11.5924
-0.000184468
11.5919
-0.000176166
11.5915
-0.00016694
11.5911
-0.000157122
11.5907
-0.000146792
11.5903
-0.000136034
11.5899
-0.000125018
11.5896
-0.000113902
11.5893
-0.000102846
11.589
-9.20053e-05
11.5888
-8.15228e-05
11.5886
-7.15272e-05
11.5885
-6.21221e-05
11.5884
-5.33924e-05
11.5883
-4.54045e-05
11.5883
-3.81385e-05
11.5883
-3.17174e-05
11.5884
-2.60194e-05
11.5885
-2.10542e-05
11.5886
-1.6792e-05
11.5887
-1.31736e-05
11.5887
-1.01356e-05
11.5888
-7.61564e-06
11.5889
-5.55115e-06
11.5889
-3.8795e-06
11.5889
-2.54007e-06
11.5888
-1.4845e-06
11.5887
-6.53636e-07
11.5885
-1.25619e-08
11.5883
4.6987e-07
11.588
8.39307e-07
11.5876
1.10808e-06
11.5872
1.30455e-06
11.5868
1.44883e-06
11.5863
1.55064e-06
11.5857
1.62223e-06
11.5851
1.67284e-06
11.5845
1.70811e-06
11.5839
1.73324e-06
11.5833
1.75185e-06
11.5827
1.76648e-06
11.5822
1.77889e-06
11.5816
1.79029e-06
11.5812
1.80169e-06
11.5807
1.81322e-06
11.5804
1.8254e-06
11.5801
1.83814e-06
11.5799
1.85098e-06
11.5798
1.86439e-06
11.5797
1.87008e-06
11.5798
1.88905e-06
11.5798
1.9026e-06
11.58
1.90905e-06
11.5802
1.91953e-06
11.5804
1.92647e-06
11.5807
1.93132e-06
11.581
1.93433e-06
11.5812
1.93514e-06
11.5815
1.93327e-06
11.5817
1.9291e-06
11.5819
1.92294e-06
11.5821
1.91462e-06
11.5822
1.90357e-06
11.5822
1.89149e-06
11.5821
1.87955e-06
11.582
1.86951e-06
11.5818
1.84901e-06
11.5814
1.83525e-06
11.581
1.81827e-06
11.5805
1.80548e-06
11.58
1.79066e-06
11.5793
1.78023e-06
11.5787
1.77088e-06
11.578
1.7642e-06
11.5772
1.76116e-06
11.5765
1.76097e-06
11.5758
1.7643e-06
11.5751
1.77081e-06
11.5745
1.7812e-06
11.574
1.79349e-06
11.5736
1.80879e-06
11.5732
1.82589e-06
11.573
1.84423e-06
11.5729
1.86438e-06
11.5728
1.86811e-06
11.5729
1.90542e-06
11.5731
1.91522e-06
11.5734
1.93267e-06
11.5737
1.94564e-06
11.5741
1.95629e-06
11.5746
1.96613e-06
11.5751
1.96953e-06
11.5756
1.97456e-06
11.5761
1.9717e-06
11.5766
1.97202e-06
11.5771
1.96066e-06
11.5775
1.95825e-06
11.5779
1.9416e-06
11.5782
1.92746e-06
11.5784
1.91015e-06
11.5784
1.88943e-06
11.5784
1.85504e-06
11.5782
1.86862e-06
11.5779
1.81708e-06
11.5774
1.80588e-06
11.5768
1.77358e-06
11.5761
1.75549e-06
11.5753
1.73601e-06
11.5744
1.72429e-06
11.5735
1.71147e-06
11.5725
1.70812e-06
11.5715
1.70825e-06
11.5706
1.71787e-06
11.5698
1.72741e-06
11.569
1.74857e-06
11.5684
1.77013e-06
11.5679
1.79794e-06
11.5676
1.82646e-06
11.5675
1.85966e-06
11.5675
1.90569e-06
11.5677
1.86667e-06
11.5679
1.9146e-06
11.5683
1.98924e-06
11.5688
1.96595e-06
11.5694
2.00402e-06
11.57
1.97632e-06
11.5706
2.01678e-06
11.5713
1.98667e-06
11.572
2.0272e-06
11.5727
1.9932e-06
11.5735
2.03789e-06
11.5742
1.99649e-06
11.5749
2.15529e-06
11.5755
2.85713e-06
11.576
8.48174e-06
11.5764
4.83509e-05
11.5772
0.000330563
11.5817
0.00238202
11.6133
0.0177467
11.8127
0.19046
0.723505
12.7648
5.79723
5.797
5.79678
5.79656
5.79634
5.79612
5.79589
5.79567
5.79544
5.7952
5.79496
5.79471
5.79446
5.79419
5.79392
5.79365
5.79336
5.79307
5.79277
5.79247
5.79216
5.79185
5.79154
5.79124
5.79094
5.79065
5.79035
5.79006
5.78976
5.78947
5.78919
5.78892
5.78866
5.78841
5.78819
5.78797
5.78777
5.78758
5.7874
5.78722
5.78705
5.78687
5.78669
5.7865
5.7863
5.78609
5.78586
5.78563
5.78538
5.78512
5.78485
5.78455
5.78424
5.78392
5.78357
5.78321
5.78283
5.78244
5.78204
5.78164
5.78124
5.78085
5.78047
5.78011
5.77976
5.77944
5.77915
5.77889
5.77866
5.77846
5.77829
5.77816
5.77806
5.77799
5.77795
5.77792
5.77792
5.77794
5.77796
5.778
5.77803
5.77806
5.77808
5.77808
5.77807
5.77803
5.77797
5.77789
5.77777
5.77763
5.77745
5.77725
5.77702
5.77677
5.7765
5.77621
5.77591
5.77561
5.77531
5.77501
5.77473
5.77447
5.77424
5.77403
5.77386
5.77373
5.77363
5.77357
5.77355
5.77356
5.7736
5.77367
5.77377
5.77389
5.77403
5.77417
5.77431
5.77444
5.77456
5.77467
5.77475
5.77479
5.7748
5.77477
5.7747
5.77459
5.77443
5.77423
5.77399
5.77371
5.7734
5.77306
5.77271
5.77235
5.77198
5.77164
5.77131
5.77101
5.77075
5.77053
5.77036
5.77024
5.77018
5.77018
5.77022
5.77031
5.77045
5.77062
5.77083
5.77107
5.77132
5.77158
5.77184
5.7721
5.77234
5.77255
5.77274
5.77288
5.77297
5.773
5.77297
5.77288
5.77272
5.7725
5.7722
5.77185
5.77145
5.771
5.77053
5.77005
5.76957
5.76911
5.76869
5.76832
5.76802
5.76779
5.76764
5.76757
5.76758
5.76766
5.7678
5.768
5.76824
5.76852
5.76883
5.76916
5.7695
5.76986
5.77023
5.77059
5.77095
5.77129
5.77159
5.77184
5.77206
5.77248
5.77485
5.79248
5.98271
6.70589
5.09283
0.126964
5.10093
-0.00819473
5.09878
0.00204002
5.10533
-0.00666433
5.12068
-0.0154678
5.13238
-0.011825
5.12841
0.00384926
5.13648
-0.0081237
5.2547
-0.118154
5.48408
-0.229705
5.72472
-0.24137
5.81923
-0.0957326
5.76516
0.0531773
5.64243
0.122137
5.475
0.166943
5.30905
0.165667
5.26023
0.0492797
5.53728
-0.275082
6.18784
-0.648685
-1.26043
7.44862
10.6665
0.179966
10.6875
-0.0293896
10.7388
-0.0494263
10.799
-0.0670833
10.8708
-0.0875092
10.9375
-0.07882
10.9733
-0.0321122
11.0183
-0.0532149
11.2689
-0.368678
11.7436
-0.705109
12.2814
-0.780967
12.5764
-0.393158
12.5827
0.0453961
12.4237
0.280167
12.1154
0.474526
11.7068
0.573946
11.3797
0.377263
11.5798
-0.470805
12.3947
-1.46045
-3.19401
14.3284
138.236
0.125278
138.314
-0.108647
138.323
-0.0600476
138.163
0.0905904
137.845
0.228107
137.443
0.321993
137.036
0.374102
136.612
0.366924
135.843
0.398455
134.764
0.371597
133.616
0.36631
132.887
0.335778
132.628
0.302006
132.637
0.267476
132.875
0.232917
133.246
0.197504
133.457
0.159491
132.863
0.113984
131.353
0.0429326
-0.161427
128.318
12.708
0.181936
12.6068
-0.00751172
12.5563
-0.00971468
12.6245
0.0221463
12.7966
0.0556567
13.0355
0.0827015
13.3082
0.100669
13.5725
0.102967
13.8582
0.112217
14.1232
0.106845
14.3861
0.103356
14.629
0.0927854
14.8518
0.0791678
15.0546
0.0645249
15.2379
0.0494645
15.4017
0.0335876
15.5465
0.0146174
15.6747
-0.0142313
15.7888
-0.0712686
-0.251901
15.8792
6.88777
6.88018
6.87039
6.89242
6.94793
7.03042
7.13083
7.23385
7.3459
7.4528
7.55616
7.6489
7.72801
7.79249
7.84191
7.87546
7.89004
7.87577
7.80446
7.55251
7.90668
-0.462989
7.70074
0.204535
7.77964
-0.076963
7.95607
-0.175728
8.03457
-0.0788519
8.03552
-0.000963282
8.0173
0.0183551
8.0149
0.00243209
8.0258
-0.0109966
8.03234
-0.00670467
8.03206
0.000100608
8.02958
0.00226798
8.02699
0.00233199
8.02466
0.00202462
8.02214
0.00219537
8.01914
0.00266774
8.01573
0.00306651
8.01215
0.00323465
8.00863
0.00317786
8.00533
0.00295571
8.00236
0.00262947
7.99978
0.00224757
7.9976
0.00185264
7.99578
0.001488
7.99425
0.00119552
7.9929
0.00100684
7.99161
0.00094287
7.99025
0.00100504
7.9887
0.00117977
7.98687
0.0014499
7.98469
0.00178887
7.98213
0.0021646
7.97917
0.00254769
7.97585
0.00291129
7.97219
0.0032337
7.96826
0.00349849
7.96414
0.00369497
7.95989
0.00381705
7.9556
0.00386498
7.95133
0.00384138
7.94715
0.00375289
7.94312
0.00360846
7.93927
0.00341909
7.93565
0.00319706
7.93227
0.00295551
7.92914
0.00270787
7.92624
0.00246745
7.92355
0.00224661
7.92104
0.00205588
7.91867
0.00190318
7.91638
0.00179444
7.91413
0.00173332
7.91187
0.00172159
7.90954
0.00175933
7.90709
0.00184438
7.90449
0.0019695
7.90172
0.00210875
7.89882
0.00219255
7.89609
0.00197689
7.8947
0.000605892
7.89865
-0.00474791
7.90959
-0.0118051
7.9218
-0.013161
7.92939
-0.00860789
7.93026
-0.00194485
7.92595
0.00321939
7.92043
0.00440836
7.91437
0.00489808
7.90787
0.00529138
7.90073
0.00588816
7.89257
0.00685071
7.883
0.0082208
7.87159
0.0100032
7.85795
0.0121799
7.84175
0.0147073
7.82268
0.01752
7.80055
0.0205414
7.77522
0.0237003
7.7466
0.0269532
7.71458
0.030308
7.67894
0.033855
7.63933
0.0377649
7.59514
0.0422796
7.54554
0.0476591
7.48944
0.0541408
7.42558
0.0618689
7.35269
0.0708366
7.26957
0.0809569
7.17539
0.091694
7.07014
0.102328
6.95507
0.112383
6.83204
0.120621
6.70372
0.126085
6.57381
0.127897
6.44622
0.126147
6.32449
0.120073
6.21177
0.110749
6.11054
0.0990035
6.02224
0.0859284
5.94719
0.0726019
5.8848
0.0598527
5.83389
0.0482974
5.793
0.0382685
5.76051
0.0298323
5.73489
0.0229346
5.71474
0.0174202
5.69887
0.0130925
5.68631
0.00974828
5.67624
0.00719718
5.66805
0.00527274
5.66123
0.00383514
5.65542
0.00277056
5.65033
0.00198848
5.64574
0.00141817
5.6415
0.00100519
5.63748
0.000708156
5.6336
0.000495896
5.6298
0.000345182
5.62603
0.000238839
5.62225
0.000164269
5.61844
0.000112304
5.61459
7.63127e-05
5.61067
5.15399e-05
5.60669
3.45947e-05
5.60264
2.30765e-05
5.59851
1.52972e-05
5.5943
1.00775e-05
5.59001
6.5991e-06
5.58564
4.29798e-06
5.58119
2.78773e-06
5.57666
1.80512e-06
5.57206
1.17236e-06
5.56739
7.69745e-07
5.56265
5.1761e-07
5.55785
3.62861e-07
5.55298
2.707e-07
5.54806
2.17828e-07
5.54309
1.89455e-07
5.53808
1.75869e-07
5.53301
1.71443e-07
5.52791
1.7198e-07
5.52277
1.75365e-07
5.51759
1.7974e-07
5.51238
1.84331e-07
5.50713
1.88631e-07
5.50184
1.92395e-07
5.49653
1.95556e-07
5.49117
1.98354e-07
5.48578
2.00671e-07
5.48035
2.02428e-07
5.47487
2.03263e-07
5.46936
2.03363e-07
5.46379
2.02723e-07
5.45818
2.01944e-07
5.45252
2.00847e-07
5.4468
1.99543e-07
5.44104
1.97664e-07
5.43521
1.95412e-07
5.42932
1.92291e-07
5.42337
1.89482e-07
5.41736
1.86223e-07
5.41127
1.84293e-07
5.40512
1.82359e-07
5.39889
1.82505e-07
5.39257
1.82707e-07
5.38618
1.85632e-07
5.37969
1.88293e-07
5.37311
1.94912e-07
5.36644
2.00745e-07
5.35965
2.0998e-07
5.35277
2.19043e-07
5.34577
2.30311e-07
5.33867
2.42166e-07
5.33145
2.56239e-07
5.32412
2.69385e-07
5.31668
2.86729e-07
5.30912
2.99848e-07
5.30145
3.19014e-07
5.29368
3.30661e-07
5.2858
3.49553e-07
5.27782
3.58552e-07
5.26975
3.76524e-07
5.26159
3.80325e-07
5.25335
3.9828e-07
5.24503
3.93262e-07
5.23664
4.16621e-07
5.2282
3.89678e-07
5.21969
4.33161e-07
5.21115
3.55649e-07
5.20256
4.19355e-07
5.19393
1.04952e-07
5.18526
-5.68079e-07
5.17657
-5.2854e-06
5.16785
-2.76983e-05
5.15921
-0.000144476
5.15112
-0.000741311
5.14607
-0.00383339
5.15771
-0.0205772
5.30112
-0.152427
-0.584093
5.87619
15.5106
-1.65615
15.0856
0.626919
15.0295
-0.0173193
15.2677
-0.412443
15.4317
-0.243551
15.4527
-0.0219145
15.4101
0.0611626
15.391
0.0216399
15.4054
-0.0256062
15.4213
-0.0229562
15.4253
-0.00421795
15.4228
0.00430858
15.4193
0.00534367
15.4163
0.00437183
15.4132
0.00470153
15.409
0.00617851
15.4037
0.00768419
15.3976
0.00863457
15.3912
0.00893525
15.3848
0.008699
15.3786
0.00807381
15.373
0.00718272
15.3681
0.00613963
15.3638
0.00506902
15.3603
0.00410122
15.3572
0.00335568
15.3546
0.00291398
15.352
0.00281377
15.3494
0.00304496
15.3465
0.00357968
15.3432
0.00435859
15.3393
0.00529823
15.3347
0.00631569
15.3294
0.00733311
15.3236
0.0082792
15.3171
0.00910163
15.3102
0.00976007
15.3029
0.0102296
15.2954
0.0105038
15.2878
0.0105868
15.2802
0.0104926
15.2727
0.0102459
15.2654
0.0098789
15.2583
0.00942914
15.2515
0.00893857
15.2449
0.00845189
15.2385
0.00801522
15.2322
0.00767379
15.2258
0.007469
15.2194
0.00743615
15.2126
0.00760619
15.2053
0.00800474
15.1972
0.00865318
15.1883
0.00956915
15.1782
0.0107655
15.1666
0.0122431
15.1534
0.0139479
15.1385
0.0156984
15.1221
0.0167882
15.1064
0.0147367
15.1004
-0.00040523
15.1128
-0.0258689
15.1375
-0.0397813
15.1622
-0.0353205
15.1777
-0.0194706
15.1809
-0.00219573
15.1777
0.00541577
15.17
0.0102441
15.1588
0.0141528
15.1439
0.0182254
15.125
0.0230804
15.1016
0.0289227
15.0729
0.0358221
15.0384
0.0437523
14.9976
0.0525889
14.9499
0.0621274
14.8951
0.0721178
14.8333
0.0823177
14.7642
0.0925608
14.6882
0.10283
14.6051
0.113343
14.5146
0.124538
14.4161
0.137034
14.3085
0.151455
14.1904
0.168307
14.0605
0.187781
13.9173
0.209669
13.76
0.2331
13.5893
0.257067
13.407
0.279636
13.2158
0.299078
13.019
0.313077
12.8212
0.319827
12.6278
0.318334
12.4429
0.307725
12.2703
0.288706
12.1136
0.263087
11.9749
0.233056
11.8551
0.201023
11.7535
0.169201
11.669
0.13928
11.5997
0.112465
11.5435
0.0892797
11.4982
0.0698225
11.4618
0.0539014
11.4327
0.0411386
11.4092
0.0310819
11.39
0.0232714
11.3742
0.0172794
11.3609
0.0127317
11.3495
0.0093131
11.3394
0.00676536
11.3303
0.0048818
11.3219
0.00349973
11.3139
0.00249291
11.3062
0.00176452
11.2987
0.00124114
11.2913
0.000867562
11.2838
0.000602661
11.2764
0.000416047
11.2688
0.000285435
11.2611
0.000194609
11.2533
0.000131858
11.2454
8.87824e-05
11.2373
5.94051e-05
11.229
3.94997e-05
11.2206
2.61004e-05
11.212
1.71407e-05
11.2033
1.11901e-05
11.1944
7.26569e-06
11.1853
4.696e-06
11.1761
3.02625e-06
11.1668
1.94989e-06
11.1573
1.26249e-06
11.1477
8.27928e-07
11.138
5.57004e-07
11.1281
3.89955e-07
11.1182
2.88971e-07
11.1082
2.28977e-07
11.098
1.95257e-07
11.0878
1.76869e-07
11.0776
1.68409e-07
11.0672
1.65073e-07
11.0568
1.64728e-07
11.0463
1.65873e-07
11.0357
1.67612e-07
11.0251
1.69337e-07
11.0144
1.71288e-07
11.0036
1.7288e-07
10.9927
1.74283e-07
10.9818
1.74839e-07
10.9707
1.74948e-07
10.9596
1.74183e-07
10.9484
1.73687e-07
10.9371
1.72708e-07
10.9256
1.71587e-07
10.9141
1.69797e-07
10.9024
1.68174e-07
10.8907
1.65064e-07
10.8788
1.63344e-07
10.8667
1.59751e-07
10.8546
1.58935e-07
10.8422
1.56349e-07
10.8298
1.57434e-07
10.8172
1.56499e-07
10.8044
1.60554e-07
10.7914
1.60777e-07
10.7782
1.6894e-07
10.7649
1.71505e-07
10.7513
1.81346e-07
10.7376
1.88e-07
10.7236
1.98443e-07
10.7094
2.078e-07
10.6949
2.21208e-07
10.6803
2.29788e-07
10.6654
2.48899e-07
10.6503
2.54538e-07
10.6349
2.77827e-07
10.6194
2.79997e-07
10.6036
3.04659e-07
10.5877
3.03489e-07
10.5715
3.29039e-07
10.5552
3.19857e-07
10.5387
3.50003e-07
10.5221
3.25813e-07
10.5053
3.77242e-07
10.4884
3.01319e-07
10.4714
4.20388e-07
10.4543
2.03828e-07
10.4371
3.90922e-07
10.4199
-5.04438e-07
10.4026
-2.49204e-06
10.3852
-1.62575e-05
10.3677
-8.20567e-05
10.3504
-0.000424279
10.3342
-0.00217103
10.3237
-0.0111386
10.3429
-0.0576068
10.495
-0.322544
-1.31315
11.2059
126.646
0.0337517
127.271
0.0096104
127.178
0.0769825
126.698
0.0677206
126.434
0.0218342
126.419
-0.00569642
126.485
-0.00425543
126.505
0.00127204
126.476
0.00132321
126.451
-0.000632994
126.444
-0.00130359
126.445
-0.00127102
126.446
-0.00172591
126.446
-0.00265536
126.446
-0.00338631
126.448
-0.00380218
126.452
-0.00396329
126.456
-0.00402568
126.461
-0.00408074
126.465
-0.00415431
126.469
-0.00425489
126.473
-0.00439543
126.476
-0.00459055
126.478
-0.00484518
126.48
-0.00514805
126.481
-0.00547588
126.481
-0.00580278
126.482
-0.00610127
126.483
-0.0063504
126.484
-0.00655678
126.486
-0.00670843
126.489
-0.00680747
126.492
-0.00686151
126.497
-0.00687739
126.502
-0.00686135
126.507
-0.00681985
126.513
-0.00675583
126.52
-0.00666963
126.526
-0.00656435
126.533
-0.00643847
126.539
-0.00629102
126.545
-0.00612169
126.551
-0.00593011
126.556
-0.0057156
126.56
-0.00547721
126.563
-0.00521339
126.566
-0.00492368
126.568
-0.00461513
126.568
-0.0042881
126.568
-0.00398235
126.568
-0.00365813
126.566
-0.0033233
126.565
-0.00295844
126.563
-0.0025544
126.561
-0.00208666
126.559
-0.00152315
126.558
-0.000986119
126.556
-0.000377908
126.554
7.8701e-05
126.549
0.000375035
126.528
-0.000142976
126.484
-0.0036082
126.43
-0.00897601
126.385
-0.0133545
126.358
-0.0161145
126.349
-0.0177046
126.351
-0.0195454
126.364
-0.0224272
126.384
-0.0270154
126.412
-0.0334064
126.451
-0.0419078
126.505
-0.0528731
126.577
-0.0667023
126.672
-0.0837904
126.794
-0.104447
126.949
-0.128792
127.14
-0.156597
127.371
-0.18716
127.642
-0.219221
127.955
-0.250942
128.306
-0.280096
128.691
-0.304326
129.105
-0.321523
129.541
-0.330822
129.995
-0.332042
130.462
-0.326117
130.938
-0.31454
131.421
-0.298955
131.909
-0.280527
132.398
-0.259769
132.883
-0.23753
133.358
-0.214
133.814
-0.189559
134.244
-0.165242
134.638
-0.141734
134.991
-0.119641
135.296
-0.0995819
135.554
-0.0818953
135.763
-0.0666981
135.927
-0.0538944
136.049
-0.0432358
136.135
-0.0344476
136.19
-0.0272576
136.218
-0.0214161
136.225
-0.0167019
136.214
-0.0129241
136.189
-0.00992077
136.152
-0.00755352
136.107
-0.00570345
136.054
-0.0042707
135.995
-0.00317129
135.931
-0.00233541
135.863
-0.00170569
135.792
-0.00123559
135.717
-0.000887803
135.64
-0.000632776
135.561
-0.000447406