/*--------------------------------*- C++ -*----------------------------------*\
| =========                 |                                                 |
| \\      /  F ield         | OpenFOAM: The Open Source CFD Toolbox           |
|  \\    /   O peration     | Version:  3.0.x                                 |
|   \\  /    A nd           | Web:      www.OpenFOAM.org                      |
|    \\/     M anipulation  |                                                 |
\*---------------------------------------------------------------------------*/
FoamFile
{
    version     2.0;
    format      ascii;
    class       volScalarField;
    location    "0.51";
    object      rho;
}
// * * * * * * * * * * * * * * * * * * * * * * * * * * * * * * * * * * * * * //

dimensions      [1 -3 0 0 0 0 0];

internalField   nonuniform List<scalar> 
27600
(
50.671
50.6717
50.6727
50.6736
50.6745
50.6752
50.6758
50.6765
50.6771
50.6776
50.6782
50.6788
50.6794
50.6799
50.6805
50.6812
50.6818
50.6825
50.6832
50.6839
50.6847
50.6855
50.6863
50.6872
50.688
50.689
50.6899
50.6909
50.6918
50.6929
50.6939
50.695
50.6961
50.6972
50.6984
50.6996
50.7008
50.7021
50.7034
50.7047
50.706
50.7074
50.7088
50.7102
50.7116
50.7131
50.7146
50.7162
50.7177
50.7193
50.7209
50.7226
50.7243
50.726
50.7277
50.7295
50.7313
50.7331
50.7349
50.7368
50.7387
50.7407
50.7426
50.7446
50.7466
50.7487
50.7508
50.7529
50.755
50.7572
50.7593
50.7616
50.7638
50.7661
50.7684
50.7707
50.773
50.7754
50.7778
50.7803
50.7827
50.7852
50.7877
50.7902
50.7928
50.7953
50.7979
50.8006
50.8032
50.8059
50.8086
50.8114
50.8142
50.817
50.8199
50.8228
50.8258
50.8287
50.8317
50.8347
50.8377
50.8408
50.8438
50.8469
50.85
50.8531
50.8563
50.8594
50.8626
50.8658
50.8691
50.8723
50.8756
50.879
50.8823
50.8857
50.8892
50.8926
50.8961
50.8996
50.9031
50.9067
50.9102
50.9138
50.9175
50.9212
50.9249
50.9286
50.9324
50.9361
50.9399
50.9438
50.9476
50.9515
50.9554
50.9593
50.9632
50.9671
50.9711
50.975
50.979
50.983
50.9871
50.9911
50.9952
50.9994
51.0035
51.0077
51.012
51.0162
51.0205
51.0248
51.0291
51.0335
51.0378
51.0422
51.0466
51.0511
51.0555
51.06
51.0645
51.069
51.0735
51.0781
51.0826
51.0872
51.0919
51.0965
51.1012
51.1058
51.1105
51.1153
51.12
51.1248
51.1296
51.1344
51.1392
51.1441
51.1489
51.1538
51.1587
51.1637
51.1686
51.1736
51.1786
51.1836
51.1887
51.1937
51.1988
51.2039
51.209
51.2142
51.2194
51.2245
51.2297
51.235
51.2402
51.2455
51.2507
51.256
51.2614
51.2667
51.2721
51.2774
51.2828
51.2882
51.2937
51.2991
51.3046
51.3101
51.3156
51.3211
51.3267
51.3322
51.3378
51.3434
51.349
51.3546
51.3603
51.366
51.3716
51.3773
51.3831
51.3888
51.3946
51.4003
51.4061
51.4119
51.4177
51.4236
51.4294
51.4353
51.4412
51.4471
51.453
51.4589
51.4649
51.4709
51.4768
51.4828
51.4888
51.4949
51.5009
51.507
51.513
51.5191
51.5252
51.5313
51.5375
51.5436
51.5498
51.556
51.5621
51.5683
51.5746
51.5808
51.587
51.5933
51.5995
51.6058
51.6121
51.6184
51.6247
51.6311
51.6374
51.6438
51.6501
51.6565
51.6629
51.6693
51.6757
51.6822
51.6886
51.695
51.7015
51.708
51.7145
51.7209
51.7274
51.734
51.7405
51.747
51.7536
51.7601
51.7667
51.7733
51.7798
51.7864
51.793
51.7996
51.8063
51.8129
51.8195
51.8262
51.8328
51.8395
51.8461
51.8528
51.8595
51.8662
51.8729
51.8796
51.8863
51.893
51.8998
51.9065
51.9132
51.92
51.9267
51.9335
51.9403
51.947
51.9538
51.9606
51.9674
51.9742
51.9809
51.9877
51.9946
52.0014
52.0082
52.015
52.0218
52.0286
52.0355
52.0423
52.0491
52.056
52.0628
52.0697
52.0765
52.0834
52.0902
52.0971
52.1039
52.1108
52.1176
52.1245
52.1314
52.1382
52.1451
52.152
52.1588
52.1657
52.1726
52.1794
52.1863
52.1932
52.2
52.2069
52.2138
52.2206
52.2275
52.2344
52.2412
52.2481
52.255
52.2618
52.2687
52.2755
52.2824
52.2892
52.2961
52.3029
52.3098
52.3166
52.3234
52.3303
52.3371
52.3439
52.3508
52.3576
52.3644
52.3712
52.3781
52.3848
52.3917
52.3983
52.4053
52.4119
52.4188
52.4254
52.4324
52.4389
52.4459
52.4524
52.4595
52.4659
52.4729
52.4793
52.4864
52.4927
52.4998
52.5061
52.5133
52.5195
52.5267
52.533
52.5403
52.5464
50.6716
50.6723
50.6733
50.6742
50.675
50.6757
50.6764
50.677
50.6776
50.6782
50.6787
50.6793
50.6799
50.6805
50.6811
50.6817
50.6823
50.683
50.6837
50.6845
50.6852
50.686
50.6868
50.6877
50.6886
50.6895
50.6904
50.6914
50.6924
50.6934
50.6944
50.6955
50.6966
50.6977
50.6989
50.7001
50.7013
50.7026
50.7039
50.7052
50.7065
50.7079
50.7093
50.7107
50.7121
50.7136
50.7151
50.7166
50.7182
50.7198
50.7214
50.7231
50.7248
50.7265
50.7282
50.73
50.7318
50.7336
50.7354
50.7373
50.7392
50.7411
50.7431
50.7451
50.7471
50.7492
50.7512
50.7533
50.7555
50.7576
50.7598
50.762
50.7643
50.7665
50.7688
50.7711
50.7735
50.7759
50.7783
50.7807
50.7832
50.7857
50.7882
50.7907
50.7932
50.7958
50.7984
50.801
50.8037
50.8064
50.8091
50.8118
50.8146
50.8175
50.8203
50.8232
50.8262
50.8291
50.8321
50.8351
50.8381
50.8412
50.8442
50.8473
50.8504
50.8535
50.8567
50.8598
50.863
50.8662
50.8695
50.8727
50.8761
50.8794
50.8828
50.8862
50.8896
50.893
50.8965
50.9
50.9035
50.9071
50.9106
50.9142
50.9179
50.9215
50.9252
50.929
50.9327
50.9365
50.9403
50.9441
50.948
50.9519
50.9557
50.9596
50.9636
50.9675
50.9715
50.9754
50.9794
50.9834
50.9875
50.9915
50.9956
50.9997
51.0039
51.0081
51.0123
51.0166
51.0208
51.0252
51.0295
51.0338
51.0382
51.0426
51.047
51.0514
51.0559
51.0603
51.0648
51.0693
51.0739
51.0784
51.083
51.0876
51.0922
51.0968
51.1015
51.1062
51.1109
51.1156
51.1203
51.1251
51.1299
51.1347
51.1395
51.1444
51.1493
51.1542
51.1591
51.164
51.169
51.174
51.179
51.184
51.189
51.1941
51.1992
51.2043
51.2094
51.2145
51.2197
51.2249
51.2301
51.2353
51.2405
51.2458
51.2511
51.2564
51.2617
51.267
51.2724
51.2778
51.2832
51.2886
51.294
51.2995
51.3049
51.3104
51.3159
51.3215
51.327
51.3326
51.3381
51.3437
51.3494
51.355
51.3606
51.3663
51.372
51.3777
51.3834
51.3891
51.3949
51.4007
51.4065
51.4123
51.4181
51.4239
51.4298
51.4356
51.4415
51.4474
51.4534
51.4593
51.4652
51.4712
51.4772
51.4832
51.4892
51.4952
51.5013
51.5073
51.5134
51.5195
51.5256
51.5317
51.5378
51.544
51.5501
51.5563
51.5625
51.5687
51.5749
51.5811
51.5874
51.5936
51.5999
51.6062
51.6125
51.6188
51.6251
51.6314
51.6378
51.6441
51.6505
51.6569
51.6632
51.6697
51.6761
51.6825
51.6889
51.6954
51.7018
51.7083
51.7148
51.7213
51.7278
51.7343
51.7408
51.7474
51.7539
51.7605
51.767
51.7736
51.7802
51.7868
51.7934
51.8
51.8066
51.8132
51.8199
51.8265
51.8332
51.8398
51.8465
51.8532
51.8598
51.8665
51.8732
51.8799
51.8867
51.8934
51.9001
51.9068
51.9136
51.9203
51.9271
51.9338
51.9406
51.9474
51.9541
51.9609
51.9677
51.9745
51.9813
51.9881
51.9949
52.0017
52.0085
52.0153
52.0222
52.029
52.0358
52.0426
52.0495
52.0563
52.0632
52.07
52.0768
52.0837
52.0905
52.0974
52.1043
52.1111
52.118
52.1248
52.1317
52.1386
52.1454
52.1523
52.1592
52.166
52.1729
52.1798
52.1866
52.1935
52.2004
52.2072
52.2141
52.221
52.2278
52.2347
52.2416
52.2484
52.2553
52.2622
52.269
52.2759
52.2827
52.2896
52.2964
52.3033
52.3101
52.3169
52.3238
52.3306
52.3375
52.3443
52.3511
52.3579
52.3648
52.3715
52.3784
52.3851
52.392
52.3987
52.4056
52.4122
52.4192
52.4258
52.4327
52.4393
52.4463
52.4528
52.4598
52.4662
52.4733
52.4797
52.4867
52.4931
52.5002
52.5065
52.5136
52.5198
52.527
52.5333
52.5406
52.547
50.6716
50.6723
50.6733
50.6742
50.675
50.6757
50.6764
50.677
50.6776
50.6782
50.6787
50.6793
50.6799
50.6805
50.6811
50.6817
50.6823
50.683
50.6837
50.6845
50.6852
50.686
50.6868
50.6877
50.6886
50.6895
50.6904
50.6914
50.6923
50.6934
50.6944
50.6955
50.6966
50.6977
50.6989
50.7001
50.7013
50.7026
50.7038
50.7052
50.7065
50.7079
50.7093
50.7107
50.7121
50.7136
50.7151
50.7166
50.7182
50.7198
50.7214
50.7231
50.7248
50.7265
50.7282
50.73
50.7318
50.7336
50.7354
50.7373
50.7392
50.7411
50.7431
50.7451
50.7471
50.7492
50.7512
50.7533
50.7555
50.7576
50.7598
50.762
50.7643
50.7665
50.7688
50.7711
50.7735
50.7759
50.7783
50.7807
50.7832
50.7857
50.7882
50.7907
50.7932
50.7958
50.7984
50.801
50.8037
50.8064
50.8091
50.8118
50.8146
50.8175
50.8203
50.8232
50.8262
50.8291
50.8321
50.8351
50.8381
50.8412
50.8442
50.8473
50.8504
50.8535
50.8567
50.8598
50.863
50.8662
50.8695
50.8727
50.8761
50.8794
50.8828
50.8862
50.8896
50.893
50.8965
50.9
50.9035
50.9071
50.9106
50.9142
50.9179
50.9215
50.9252
50.929
50.9327
50.9365
50.9403
50.9441
50.948
50.9519
50.9557
50.9597
50.9636
50.9675
50.9715
50.9754
50.9794
50.9834
50.9875
50.9915
50.9956
50.9997
51.0039
51.0081
51.0123
51.0166
51.0208
51.0252
51.0295
51.0338
51.0382
51.0426
51.047
51.0514
51.0559
51.0603
51.0648
51.0693
51.0739
51.0784
51.083
51.0876
51.0922
51.0968
51.1015
51.1062
51.1109
51.1156
51.1203
51.1251
51.1299
51.1347
51.1395
51.1444
51.1493
51.1542
51.1591
51.164
51.169
51.174
51.179
51.184
51.189
51.1941
51.1992
51.2043
51.2094
51.2145
51.2197
51.2249
51.2301
51.2353
51.2405
51.2458
51.2511
51.2564
51.2617
51.267
51.2724
51.2778
51.2832
51.2886
51.294
51.2995
51.3049
51.3104
51.3159
51.3215
51.327
51.3326
51.3381
51.3437
51.3494
51.355
51.3606
51.3663
51.372
51.3777
51.3834
51.3891
51.3949
51.4007
51.4065
51.4123
51.4181
51.4239
51.4298
51.4356
51.4415
51.4474
51.4534
51.4593
51.4652
51.4712
51.4772
51.4832
51.4892
51.4952
51.5013
51.5073
51.5134
51.5195
51.5256
51.5317
51.5378
51.544
51.5501
51.5563
51.5625
51.5687
51.5749
51.5811
51.5874
51.5936
51.5999
51.6062
51.6125
51.6188
51.6251
51.6314
51.6378
51.6441
51.6505
51.6569
51.6632
51.6697
51.6761
51.6825
51.6889
51.6954
51.7018
51.7083
51.7148
51.7213
51.7278
51.7343
51.7408
51.7474
51.7539
51.7605
51.767
51.7736
51.7802
51.7868
51.7934
51.8
51.8066
51.8132
51.8199
51.8265
51.8332
51.8398
51.8465
51.8532
51.8598
51.8665
51.8732
51.8799
51.8867
51.8934
51.9001
51.9068
51.9136
51.9203
51.9271
51.9338
51.9406
51.9474
51.9541
51.9609
51.9677
51.9745
51.9813
51.9881
51.9949
52.0017
52.0085
52.0153
52.0222
52.029
52.0358
52.0426
52.0495
52.0563
52.0632
52.07
52.0768
52.0837
52.0906
52.0974
52.1043
52.1111
52.118
52.1248
52.1317
52.1386
52.1454
52.1523
52.1592
52.166
52.1729
52.1798
52.1866
52.1935
52.2004
52.2072
52.2141
52.221
52.2278
52.2347
52.2416
52.2484
52.2553
52.2622
52.269
52.2759
52.2827
52.2896
52.2964
52.3033
52.3101
52.3169
52.3238
52.3306
52.3375
52.3443
52.3511
52.3579
52.3648
52.3715
52.3784
52.3851
52.392
52.3987
52.4056
52.4122
52.4192
52.4258
52.4327
52.4393
52.4463
52.4528
52.4598
52.4662
52.4733
52.4797
52.4867
52.4931
52.5002
52.5065
52.5136
52.5198
52.527
52.5333
52.5406
52.547
50.6716
50.6722
50.6732
50.6742
50.675
50.6757
50.6764
50.677
50.6776
50.6781
50.6787
50.6793
50.6799
50.6804
50.681
50.6817
50.6823
50.683
50.6837
50.6844
50.6852
50.686
50.6868
50.6877
50.6885
50.6894
50.6904
50.6913
50.6923
50.6934
50.6944
50.6955
50.6966
50.6977
50.6989
50.7001
50.7013
50.7026
50.7038
50.7051
50.7065
50.7078
50.7092
50.7107
50.7121
50.7136
50.7151
50.7166
50.7182
50.7198
50.7214
50.7231
50.7247
50.7265
50.7282
50.73
50.7317
50.7336
50.7354
50.7373
50.7392
50.7411
50.7431
50.7451
50.7471
50.7491
50.7512
50.7533
50.7554
50.7576
50.7598
50.762
50.7642
50.7665
50.7688
50.7711
50.7735
50.7759
50.7783
50.7807
50.7832
50.7857
50.7882
50.7907
50.7932
50.7958
50.7984
50.801
50.8037
50.8064
50.8091
50.8118
50.8146
50.8175
50.8203
50.8232
50.8262
50.8291
50.8321
50.8351
50.8381
50.8412
50.8442
50.8473
50.8504
50.8535
50.8567
50.8598
50.863
50.8662
50.8695
50.8727
50.8761
50.8794
50.8828
50.8861
50.8896
50.893
50.8965
50.9
50.9035
50.9071
50.9106
50.9142
50.9179
50.9215
50.9252
50.929
50.9327
50.9365
50.9403
50.9441
50.948
50.9518
50.9557
50.9596
50.9636
50.9675
50.9715
50.9754
50.9794
50.9834
50.9875
50.9915
50.9956
50.9997
51.0039
51.0081
51.0123
51.0166
51.0208
51.0251
51.0295
51.0338
51.0382
51.0426
51.047
51.0514
51.0559
51.0603
51.0648
51.0693
51.0739
51.0784
51.083
51.0876
51.0922
51.0968
51.1015
51.1062
51.1109
51.1156
51.1203
51.1251
51.1299
51.1347
51.1395
51.1444
51.1493
51.1542
51.1591
51.164
51.169
51.174
51.179
51.184
51.189
51.1941
51.1992
51.2043
51.2094
51.2145
51.2197
51.2249
51.2301
51.2353
51.2405
51.2458
51.2511
51.2564
51.2617
51.267
51.2724
51.2778
51.2832
51.2886
51.294
51.2995
51.3049
51.3104
51.3159
51.3215
51.327
51.3326
51.3381
51.3437
51.3494
51.355
51.3606
51.3663
51.372
51.3777
51.3834
51.3891
51.3949
51.4007
51.4065
51.4123
51.4181
51.4239
51.4298
51.4356
51.4415
51.4474
51.4534
51.4593
51.4652
51.4712
51.4772
51.4832
51.4892
51.4952
51.5013
51.5073
51.5134
51.5195
51.5256
51.5317
51.5378
51.544
51.5501
51.5563
51.5625
51.5687
51.5749
51.5811
51.5874
51.5936
51.5999
51.6062
51.6125
51.6188
51.6251
51.6314
51.6378
51.6441
51.6505
51.6569
51.6632
51.6697
51.6761
51.6825
51.6889
51.6954
51.7018
51.7083
51.7148
51.7213
51.7278
51.7343
51.7408
51.7474
51.7539
51.7605
51.767
51.7736
51.7802
51.7868
51.7934
51.8
51.8066
51.8132
51.8199
51.8265
51.8332
51.8398
51.8465
51.8532
51.8598
51.8665
51.8732
51.8799
51.8867
51.8934
51.9001
51.9068
51.9136
51.9203
51.9271
51.9338
51.9406
51.9474
51.9541
51.9609
51.9677
51.9745
51.9813
51.9881
51.9949
52.0017
52.0085
52.0153
52.0222
52.029
52.0358
52.0426
52.0495
52.0563
52.0632
52.07
52.0768
52.0837
52.0906
52.0974
52.1043
52.1111
52.118
52.1248
52.1317
52.1386
52.1454
52.1523
52.1592
52.166
52.1729
52.1798
52.1866
52.1935
52.2004
52.2072
52.2141
52.221
52.2278
52.2347
52.2416
52.2484
52.2553
52.2622
52.269
52.2759
52.2827
52.2896
52.2964
52.3033
52.3101
52.3169
52.3238
52.3306
52.3375
52.3443
52.3511
52.3579
52.3648
52.3715
52.3784
52.3851
52.392
52.3987
52.4056
52.4122
52.4192
52.4258
52.4327
52.4393
52.4463
52.4528
52.4598
52.4662
52.4733
52.4797
52.4867
52.4931
52.5002
52.5065
52.5136
52.5199
52.527
52.5333
52.5405
52.5471
50.6716
50.6722
50.6732
50.6741
50.675
50.6757
50.6764
50.677
50.6776
50.6781
50.6787
50.6793
50.6799
50.6804
50.681
50.6817
50.6823
50.683
50.6837
50.6844
50.6852
50.686
50.6868
50.6877
50.6885
50.6894
50.6904
50.6913
50.6923
50.6934
50.6944
50.6955
50.6966
50.6977
50.6989
50.7001
50.7013
50.7026
50.7038
50.7051
50.7065
50.7078
50.7092
50.7107
50.7121
50.7136
50.7151
50.7166
50.7182
50.7198
50.7214
50.7231
50.7247
50.7264
50.7282
50.7299
50.7317
50.7336
50.7354
50.7373
50.7392
50.7411
50.7431
50.7451
50.7471
50.7491
50.7512
50.7533
50.7554
50.7576
50.7598
50.762
50.7642
50.7665
50.7688
50.7711
50.7735
50.7759
50.7783
50.7807
50.7832
50.7857
50.7882
50.7907
50.7932
50.7958
50.7984
50.801
50.8037
50.8063
50.8091
50.8118
50.8146
50.8175
50.8203
50.8232
50.8262
50.8291
50.8321
50.8351
50.8381
50.8412
50.8442
50.8473
50.8504
50.8535
50.8567
50.8598
50.863
50.8662
50.8695
50.8727
50.876
50.8794
50.8828
50.8861
50.8896
50.893
50.8965
50.9
50.9035
50.9071
50.9106
50.9142
50.9179
50.9215
50.9252
50.929
50.9327
50.9365
50.9403
50.9441
50.948
50.9518
50.9557
50.9596
50.9636
50.9675
50.9715
50.9754
50.9794
50.9834
50.9875
50.9915
50.9956
50.9997
51.0039
51.0081
51.0123
51.0166
51.0208
51.0251
51.0295
51.0338
51.0382
51.0426
51.047
51.0514
51.0559
51.0603
51.0648
51.0693
51.0739
51.0784
51.083
51.0876
51.0922
51.0968
51.1015
51.1062
51.1109
51.1156
51.1203
51.1251
51.1299
51.1347
51.1395
51.1444
51.1493
51.1542
51.1591
51.164
51.169
51.174
51.179
51.184
51.189
51.1941
51.1992
51.2043
51.2094
51.2145
51.2197
51.2249
51.2301
51.2353
51.2405
51.2458
51.2511
51.2564
51.2617
51.267
51.2724
51.2778
51.2832
51.2886
51.294
51.2995
51.3049
51.3104
51.3159
51.3215
51.327
51.3326
51.3381
51.3437
51.3494
51.355
51.3606
51.3663
51.372
51.3777
51.3834
51.3891
51.3949
51.4007
51.4065
51.4123
51.4181
51.4239
51.4298
51.4356
51.4415
51.4474
51.4534
51.4593
51.4652
51.4712
51.4772
51.4832
51.4892
51.4952
51.5013
51.5073
51.5134
51.5195
51.5256
51.5317
51.5378
51.544
51.5501
51.5563
51.5625
51.5687
51.5749
51.5811
51.5874
51.5936
51.5999
51.6062
51.6125
51.6188
51.6251
51.6314
51.6378
51.6441
51.6505
51.6569
51.6632
51.6697
51.6761
51.6825
51.6889
51.6954
51.7018
51.7083
51.7148
51.7213
51.7278
51.7343
51.7408
51.7474
51.7539
51.7605
51.767
51.7736
51.7802
51.7868
51.7934
51.8
51.8066
51.8132
51.8199
51.8265
51.8332
51.8398
51.8465
51.8532
51.8598
51.8665
51.8732
51.8799
51.8867
51.8934
51.9001
51.9068
51.9136
51.9203
51.9271
51.9338
51.9406
51.9474
51.9541
51.9609
51.9677
51.9745
51.9813
51.9881
51.9949
52.0017
52.0085
52.0153
52.0222
52.029
52.0358
52.0426
52.0495
52.0563
52.0632
52.07
52.0768
52.0837
52.0906
52.0974
52.1043
52.1111
52.118
52.1248
52.1317
52.1386
52.1454
52.1523
52.1592
52.166
52.1729
52.1798
52.1866
52.1935
52.2004
52.2072
52.2141
52.221
52.2278
52.2347
52.2416
52.2484
52.2553
52.2622
52.269
52.2759
52.2827
52.2896
52.2964
52.3033
52.3101
52.3169
52.3238
52.3306
52.3375
52.3443
52.3511
52.3579
52.3648
52.3715
52.3784
52.3851
52.392
52.3987
52.4056
52.4122
52.4192
52.4258
52.4327
52.4393
52.4463
52.4528
52.4598
52.4662
52.4733
52.4797
52.4867
52.4931
52.5002
52.5065
52.5136
52.5198
52.527
52.5332
52.5404
52.5466
50.6716
50.6722
50.6732
50.6741
50.675
50.6757
50.6764
50.677
50.6776
50.6781
50.6787
50.6793
50.6799
50.6804
50.681
50.6817
50.6823
50.683
50.6837
50.6844
50.6852
50.686
50.6868
50.6877
50.6885
50.6894
50.6904
50.6913
50.6923
50.6934
50.6944
50.6955
50.6966
50.6977
50.6989
50.7001
50.7013
50.7026
50.7038
50.7051
50.7065
50.7078
50.7092
50.7107
50.7121
50.7136
50.7151
50.7166
50.7182
50.7198
50.7214
50.7231
50.7247
50.7264
50.7282
50.7299
50.7317
50.7336
50.7354
50.7373
50.7392
50.7411
50.7431
50.7451
50.7471
50.7491
50.7512
50.7533
50.7554
50.7576
50.7598
50.762
50.7642
50.7665
50.7688
50.7711
50.7735
50.7759
50.7783
50.7807
50.7832
50.7857
50.7882
50.7907
50.7932
50.7958
50.7984
50.801
50.8037
50.8063
50.8091
50.8118
50.8146
50.8175
50.8203
50.8232
50.8262
50.8291
50.8321
50.8351
50.8381
50.8412
50.8442
50.8473
50.8504
50.8535
50.8567
50.8598
50.863
50.8662
50.8695
50.8727
50.876
50.8794
50.8828
50.8861
50.8896
50.893
50.8965
50.9
50.9035
50.9071
50.9106
50.9142
50.9179
50.9215
50.9252
50.929
50.9327
50.9365
50.9403
50.9441
50.948
50.9518
50.9557
50.9596
50.9636
50.9675
50.9715
50.9754
50.9794
50.9834
50.9875
50.9915
50.9956
50.9997
51.0039
51.0081
51.0123
51.0166
51.0208
51.0251
51.0295
51.0338
51.0382
51.0426
51.047
51.0514
51.0559
51.0603
51.0648
51.0693
51.0739
51.0784
51.083
51.0876
51.0922
51.0968
51.1015
51.1062
51.1109
51.1156
51.1203
51.1251
51.1299
51.1347
51.1395
51.1444
51.1493
51.1542
51.1591
51.164
51.169
51.174
51.179
51.184
51.189
51.1941
51.1992
51.2043
51.2094
51.2145
51.2197
51.2249
51.2301
51.2353
51.2405
51.2458
51.2511
51.2564
51.2617
51.267
51.2724
51.2778
51.2832
51.2886
51.294
51.2995
51.3049
51.3104
51.3159
51.3215
51.327
51.3326
51.3381
51.3437
51.3494
51.355
51.3606
51.3663
51.372
51.3777
51.3834
51.3891
51.3949
51.4007
51.4065
51.4123
51.4181
51.4239
51.4298
51.4356
51.4415
51.4474
51.4534
51.4593
51.4652
51.4712
51.4772
51.4832
51.4892
51.4952
51.5013
51.5073
51.5134
51.5195
51.5256
51.5317
51.5378
51.544
51.5501
51.5563
51.5625
51.5687
51.5749
51.5811
51.5874
51.5936
51.5999
51.6062
51.6125
51.6188
51.6251
51.6314
51.6378
51.6441
51.6505
51.6569
51.6632
51.6697
51.6761
51.6825
51.6889
51.6954
51.7018
51.7083
51.7148
51.7213
51.7278
51.7343
51.7408
51.7474
51.7539
51.7605
51.767
51.7736
51.7802
51.7868
51.7934
51.8
51.8066
51.8132
51.8199
51.8265
51.8332
51.8398
51.8465
51.8532
51.8598
51.8665
51.8732
51.8799
51.8867
51.8934
51.9001
51.9068
51.9136
51.9203
51.9271
51.9338
51.9406
51.9474
51.9541
51.9609
51.9677
51.9745
51.9813
51.9881
51.9949
52.0017
52.0085
52.0153
52.0222
52.029
52.0358
52.0426
52.0495
52.0563
52.0632
52.07
52.0768
52.0837
52.0906
52.0974
52.1043
52.1111
52.118
52.1248
52.1317
52.1386
52.1454
52.1523
52.1592
52.166
52.1729
52.1798
52.1866
52.1935
52.2004
52.2072
52.2141
52.221
52.2278
52.2347
52.2416
52.2484
52.2553
52.2622
52.269
52.2759
52.2827
52.2896
52.2964
52.3033
52.3101
52.3169
52.3238
52.3306
52.3374
52.3443
52.3511
52.3579
52.3647
52.3715
52.3784
52.3851
52.392
52.3987
52.4056
52.4123
52.4191
52.4258
52.4326
52.4394
52.4461
52.453
52.4596
52.4664
52.4731
52.4798
52.4866
52.4932
52.5
52.5067
52.5132
52.5202
52.5265
52.5334
52.5398
52.5464
50.6716
50.6722
50.6732
50.6742
50.675
50.6757
50.6764
50.677
50.6776
50.6781
50.6787
50.6793
50.6799
50.6804
50.681
50.6817
50.6823
50.683
50.6837
50.6844
50.6852
50.686
50.6868
50.6877
50.6885
50.6894
50.6904
50.6913
50.6923
50.6934
50.6944
50.6955
50.6966
50.6977
50.6989
50.7001
50.7013
50.7026
50.7038
50.7051
50.7065
50.7078
50.7092
50.7107
50.7121
50.7136
50.7151
50.7166
50.7182
50.7198
50.7214
50.7231
50.7247
50.7265
50.7282
50.73
50.7317
50.7336
50.7354
50.7373
50.7392
50.7411
50.7431
50.7451
50.7471
50.7491
50.7512
50.7533
50.7554
50.7576
50.7598
50.762
50.7642
50.7665
50.7688
50.7711
50.7735
50.7759
50.7783
50.7807
50.7832
50.7857
50.7882
50.7907
50.7932
50.7958
50.7984
50.801
50.8037
50.8064
50.8091
50.8118
50.8146
50.8175
50.8203
50.8232
50.8262
50.8291
50.8321
50.8351
50.8381
50.8412
50.8442
50.8473
50.8504
50.8535
50.8567
50.8598
50.863
50.8662
50.8695
50.8727
50.8761
50.8794
50.8828
50.8861
50.8896
50.893
50.8965
50.9
50.9035
50.9071
50.9106
50.9142
50.9179
50.9215
50.9252
50.929
50.9327
50.9365
50.9403
50.9441
50.948
50.9518
50.9557
50.9596
50.9636
50.9675
50.9715
50.9754
50.9794
50.9834
50.9875
50.9915
50.9956
50.9997
51.0039
51.0081
51.0123
51.0166
51.0208
51.0251
51.0295
51.0338
51.0382
51.0426
51.047
51.0514
51.0559
51.0603
51.0648
51.0693
51.0739
51.0784
51.083
51.0876
51.0922
51.0968
51.1015
51.1062
51.1109
51.1156
51.1203
51.1251
51.1299
51.1347
51.1395
51.1444
51.1493
51.1542
51.1591
51.164
51.169
51.174
51.179
51.184
51.189
51.1941
51.1992
51.2043
51.2094
51.2145
51.2197
51.2249
51.2301
51.2353
51.2405
51.2458
51.2511
51.2564
51.2617
51.267
51.2724
51.2778
51.2832
51.2886
51.294
51.2995
51.3049
51.3104
51.3159
51.3215
51.327
51.3326
51.3381
51.3437
51.3494
51.355
51.3606
51.3663
51.372
51.3777
51.3834
51.3891
51.3949
51.4007
51.4065
51.4123
51.4181
51.4239
51.4298
51.4356
51.4415
51.4474
51.4534
51.4593
51.4652
51.4712
51.4772
51.4832
51.4892
51.4952
51.5013
51.5073
51.5134
51.5195
51.5256
51.5317
51.5378
51.544
51.5501
51.5563
51.5625
51.5687
51.5749
51.5811
51.5874
51.5936
51.5999
51.6062
51.6125
51.6188
51.6251
51.6314
51.6378
51.6441
51.6505
51.6569
51.6632
51.6697
51.6761
51.6825
51.6889
51.6954
51.7018
51.7083
51.7148
51.7213
51.7278
51.7343
51.7408
51.7474
51.7539
51.7605
51.767
51.7736
51.7802
51.7868
51.7934
51.8
51.8066
51.8132
51.8199
51.8265
51.8332
51.8398
51.8465
51.8532
51.8598
51.8665
51.8732
51.8799
51.8867
51.8934
51.9001
51.9068
51.9136
51.9203
51.9271
51.9338
51.9406
51.9474
51.9541
51.9609
51.9677
51.9745
51.9813
51.9881
51.9949
52.0017
52.0085
52.0153
52.0222
52.029
52.0358
52.0426
52.0495
52.0563
52.0632
52.07
52.0768
52.0837
52.0906
52.0974
52.1043
52.1111
52.118
52.1248
52.1317
52.1386
52.1454
52.1523
52.1592
52.166
52.1729
52.1798
52.1866
52.1935
52.2004
52.2072
52.2141
52.221
52.2278
52.2347
52.2416
52.2484
52.2553
52.2622
52.269
52.2759
52.2827
52.2896
52.2964
52.3033
52.3101
52.3169
52.3238
52.3306
52.3374
52.3443
52.3511
52.3579
52.3647
52.3715
52.3784
52.3851
52.3919
52.3988
52.4055
52.4124
52.419
52.4259
52.4326
52.4394
52.4462
52.4528
52.4597
52.4663
52.4732
52.4799
52.4865
52.4934
52.4998
52.5069
52.5131
52.5202
52.5265
52.5333
52.5396
52.546
50.6716
50.6723
50.6733
50.6742
50.675
50.6757
50.6764
50.677
50.6776
50.6782
50.6787
50.6793
50.6799
50.6805
50.6811
50.6817
50.6823
50.683
50.6837
50.6845
50.6852
50.686
50.6868
50.6877
50.6886
50.6895
50.6904
50.6914
50.6923
50.6934
50.6944
50.6955
50.6966
50.6977
50.6989
50.7001
50.7013
50.7026
50.7038
50.7052
50.7065
50.7079
50.7093
50.7107
50.7121
50.7136
50.7151
50.7166
50.7182
50.7198
50.7214
50.7231
50.7248
50.7265
50.7282
50.73
50.7318
50.7336
50.7354
50.7373
50.7392
50.7411
50.7431
50.7451
50.7471
50.7492
50.7512
50.7533
50.7555
50.7576
50.7598
50.762
50.7643
50.7665
50.7688
50.7711
50.7735
50.7759
50.7783
50.7807
50.7832
50.7857
50.7882
50.7907
50.7932
50.7958
50.7984
50.801
50.8037
50.8064
50.8091
50.8118
50.8146
50.8175
50.8203
50.8232
50.8262
50.8291
50.8321
50.8351
50.8381
50.8412
50.8442
50.8473
50.8504
50.8535
50.8567
50.8598
50.863
50.8662
50.8695
50.8727
50.8761
50.8794
50.8828
50.8862
50.8896
50.893
50.8965
50.9
50.9035
50.9071
50.9106
50.9142
50.9179
50.9215
50.9252
50.929
50.9327
50.9365
50.9403
50.9441
50.948
50.9519
50.9557
50.9597
50.9636
50.9675
50.9715
50.9754
50.9794
50.9834
50.9875
50.9915
50.9956
50.9997
51.0039
51.0081
51.0123
51.0166
51.0208
51.0252
51.0295
51.0338
51.0382
51.0426
51.047
51.0514
51.0559
51.0603
51.0648
51.0693
51.0739
51.0784
51.083
51.0876
51.0922
51.0968
51.1015
51.1062
51.1109
51.1156
51.1203
51.1251
51.1299
51.1347
51.1395
51.1444
51.1493
51.1542
51.1591
51.164
51.169
51.174
51.179
51.184
51.189
51.1941
51.1992
51.2043
51.2094
51.2145
51.2197
51.2249
51.2301
51.2353
51.2405
51.2458
51.2511
51.2564
51.2617
51.267
51.2724
51.2778
51.2832
51.2886
51.294
51.2995
51.3049
51.3104
51.3159
51.3215
51.327
51.3326
51.3381
51.3437
51.3494
51.355
51.3606
51.3663
51.372
51.3777
51.3834
51.3891
51.3949
51.4007
51.4065
51.4123
51.4181
51.4239
51.4298
51.4356
51.4415
51.4474
51.4534
51.4593
51.4652
51.4712
51.4772
51.4832
51.4892
51.4952
51.5013
51.5073
51.5134
51.5195
51.5256
51.5317
51.5378
51.544
51.5501
51.5563
51.5625
51.5687
51.5749
51.5811
51.5874
51.5936
51.5999
51.6062
51.6125
51.6188
51.6251
51.6314
51.6378
51.6441
51.6505
51.6569
51.6632
51.6697
51.6761
51.6825
51.6889
51.6954
51.7018
51.7083
51.7148
51.7213
51.7278
51.7343
51.7408
51.7474
51.7539
51.7605
51.767
51.7736
51.7802
51.7868
51.7934
51.8
51.8066
51.8132
51.8199
51.8265
51.8332
51.8398
51.8465
51.8532
51.8598
51.8665
51.8732
51.8799
51.8867
51.8934
51.9001
51.9068
51.9136
51.9203
51.9271
51.9338
51.9406
51.9474
51.9541
51.9609
51.9677
51.9745
51.9813
51.9881
51.9949
52.0017
52.0085
52.0153
52.0222
52.029
52.0358
52.0426
52.0495
52.0563
52.0632
52.07
52.0768
52.0837
52.0906
52.0974
52.1043
52.1111
52.118
52.1248
52.1317
52.1386
52.1454
52.1523
52.1592
52.166
52.1729
52.1798
52.1866
52.1935
52.2004
52.2072
52.2141
52.221
52.2278
52.2347
52.2416
52.2484
52.2553
52.2622
52.269
52.2759
52.2827
52.2896
52.2964
52.3033
52.3101
52.3169
52.3238
52.3306
52.3374
52.3443
52.3511
52.3579
52.3647
52.3715
52.3784
52.3851
52.3919
52.3988
52.4055
52.4124
52.419
52.426
52.4325
52.4395
52.4461
52.453
52.4596
52.4665
52.473
52.48
52.4863
52.4935
52.4997
52.5069
52.5131
52.5202
52.5264
52.5334
52.539
52.5465
50.6716
50.6723
50.6733
50.6742
50.675
50.6757
50.6764
50.677
50.6776
50.6782
50.6787
50.6793
50.6799
50.6805
50.6811
50.6817
50.6823
50.683
50.6837
50.6845
50.6852
50.686
50.6868
50.6877
50.6886
50.6895
50.6904
50.6914
50.6924
50.6934
50.6944
50.6955
50.6966
50.6977
50.6989
50.7001
50.7013
50.7026
50.7039
50.7052
50.7065
50.7079
50.7093
50.7107
50.7121
50.7136
50.7151
50.7166
50.7182
50.7198
50.7214
50.7231
50.7248
50.7265
50.7282
50.73
50.7318
50.7336
50.7354
50.7373
50.7392
50.7411
50.7431
50.7451
50.7471
50.7492
50.7512
50.7533
50.7555
50.7576
50.7598
50.762
50.7643
50.7665
50.7688
50.7711
50.7735
50.7759
50.7783
50.7807
50.7832
50.7857
50.7882
50.7907
50.7932
50.7958
50.7984
50.801
50.8037
50.8064
50.8091
50.8118
50.8146
50.8175
50.8203
50.8232
50.8262
50.8291
50.8321
50.8351
50.8381
50.8412
50.8442
50.8473
50.8504
50.8535
50.8567
50.8598
50.863
50.8662
50.8695
50.8727
50.8761
50.8794
50.8828
50.8862
50.8896
50.893
50.8965
50.9
50.9035
50.9071
50.9106
50.9142
50.9179
50.9215
50.9252
50.929
50.9327
50.9365
50.9403
50.9441
50.948
50.9519
50.9557
50.9596
50.9636
50.9675
50.9715
50.9754
50.9794
50.9834
50.9875
50.9915
50.9956
50.9997
51.0039
51.0081
51.0123
51.0166
51.0208
51.0252
51.0295
51.0338
51.0382
51.0426
51.047
51.0514
51.0559
51.0603
51.0648
51.0693
51.0739
51.0784
51.083
51.0876
51.0922
51.0968
51.1015
51.1062
51.1109
51.1156
51.1203
51.1251
51.1299
51.1347
51.1395
51.1444
51.1493
51.1542
51.1591
51.164
51.169
51.174
51.179
51.184
51.189
51.1941
51.1992
51.2043
51.2094
51.2145
51.2197
51.2249
51.2301
51.2353
51.2405
51.2458
51.2511
51.2564
51.2617
51.267
51.2724
51.2778
51.2832
51.2886
51.294
51.2995
51.3049
51.3104
51.3159
51.3215
51.327
51.3326
51.3381
51.3437
51.3494
51.355
51.3606
51.3663
51.372
51.3777
51.3834
51.3891
51.3949
51.4007
51.4065
51.4123
51.4181
51.4239
51.4298
51.4356
51.4415
51.4474
51.4534
51.4593
51.4652
51.4712
51.4772
51.4832
51.4892
51.4952
51.5013
51.5073
51.5134
51.5195
51.5256
51.5317
51.5378
51.544
51.5501
51.5563
51.5625
51.5687
51.5749
51.5811
51.5874
51.5936
51.5999
51.6062
51.6125
51.6188
51.6251
51.6314
51.6378
51.6441
51.6505
51.6569
51.6632
51.6697
51.6761
51.6825
51.6889
51.6954
51.7018
51.7083
51.7148
51.7213
51.7278
51.7343
51.7408
51.7474
51.7539
51.7605
51.767
51.7736
51.7802
51.7868
51.7934
51.8
51.8066
51.8132
51.8199
51.8265
51.8332
51.8398
51.8465
51.8532
51.8598
51.8665
51.8732
51.8799
51.8867
51.8934
51.9001
51.9068
51.9136
51.9203
51.9271
51.9338
51.9406
51.9474
51.9541
51.9609
51.9677
51.9745
51.9813
51.9881
51.9949
52.0017
52.0085
52.0153
52.0222
52.029
52.0358
52.0426
52.0495
52.0563
52.0632
52.07
52.0768
52.0837
52.0905
52.0974
52.1043
52.1111
52.118
52.1248
52.1317
52.1386
52.1454
52.1523
52.1592
52.166
52.1729
52.1798
52.1866
52.1935
52.2004
52.2072
52.2141
52.221
52.2278
52.2347
52.2416
52.2484
52.2553
52.2622
52.269
52.2759
52.2827
52.2896
52.2964
52.3033
52.3101
52.3169
52.3238
52.3306
52.3374
52.3443
52.3511
52.3579
52.3647
52.3715
52.3784
52.3852
52.3919
52.3988
52.4055
52.4124
52.419
52.426
52.4325
52.4395
52.446
52.453
52.4595
52.4666
52.4729
52.48
52.4863
52.4935
52.4997
52.5069
52.5131
52.5202
52.5264
52.5334
52.5389
52.5473
50.671
50.6717
50.6727
50.6736
50.6745
50.6752
50.6758
50.6765
50.6771
50.6776
50.6782
50.6788
50.6794
50.6799
50.6805
50.6812
50.6818
50.6825
50.6832
50.6839
50.6847
50.6855
50.6863
50.6872
50.688
50.689
50.6899
50.6909
50.6918
50.6929
50.6939
50.695
50.6961
50.6972
50.6984
50.6996
50.7008
50.7021
50.7034
50.7047
50.706
50.7074
50.7088
50.7102
50.7116
50.7131
50.7146
50.7162
50.7177
50.7193
50.7209
50.7226
50.7243
50.726
50.7277
50.7295
50.7313
50.7331
50.7349
50.7368
50.7387
50.7407
50.7426
50.7446
50.7466
50.7487
50.7508
50.7529
50.755
50.7572
50.7593
50.7616
50.7638
50.7661
50.7684
50.7707
50.773
50.7754
50.7778
50.7803
50.7827
50.7852
50.7877
50.7902
50.7928
50.7953
50.7979
50.8006
50.8032
50.8059
50.8086
50.8114
50.8142