/*--------------------------------*- C++ -*----------------------------------*\
| =========                 |                                                 |
| \\      /  F ield         | OpenFOAM: The Open Source CFD Toolbox           |
|  \\    /   O peration     | Version:  3.0.x                                 |
|   \\  /    A nd           | Web:      www.OpenFOAM.org                      |
|    \\/     M anipulation  |                                                 |
\*---------------------------------------------------------------------------*/
FoamFile
{
    version     2.0;
    format      ascii;
    class       volScalarField;
    location    "0.51";
    object      T;
}
// * * * * * * * * * * * * * * * * * * * * * * * * * * * * * * * * * * * * * //

dimensions      [0 0 0 1 0 0 0];

internalField   nonuniform List<scalar> 
27600
(
773.708
773.701
773.69
773.682
773.675
773.67
773.666
773.663
773.662
773.662
773.662
773.662
773.663
773.665
773.666
773.668
773.67
773.672
773.674
773.676
773.678
773.681
773.683
773.686
773.689
773.691
773.694
773.697
773.7
773.703
773.706
773.71
773.713
773.717
773.72
773.724
773.728
773.731
773.735
773.739
773.743
773.747
773.752
773.756
773.76
773.765
773.77
773.774
773.779
773.784
773.789
773.794
773.799
773.804
773.81
773.815
773.82
773.826
773.832
773.837
773.843
773.849
773.855
773.861
773.867
773.873
773.88
773.886
773.893
773.899
773.906
773.913
773.92
773.926
773.934
773.941
773.948
773.955
773.962
773.97
773.977
773.985
773.993
774.001
774.01
774.018
774.026
774.035
774.043
774.052
774.061
774.069
774.077
774.086
774.094
774.102
774.11
774.119
774.127
774.136
774.145
774.154
774.163
774.173
774.182
774.192
774.202
774.212
774.223
774.233
774.243
774.254
774.264
774.274
774.284
774.295
774.305
774.316
774.326
774.337
774.347
774.358
774.369
774.38
774.391
774.402
774.412
774.423
774.434
774.445
774.456
774.467
774.478
774.49
774.501
774.513
774.525
774.537
774.55
774.562
774.575
774.587
774.6
774.613
774.626
774.638
774.651
774.664
774.676
774.689
774.701
774.714
774.726
774.739
774.752
774.765
774.778
774.791
774.804
774.818
774.831
774.845
774.859
774.873
774.886
774.9
774.914
774.928
774.943
774.957
774.971
774.986
775
775.014
775.029
775.044
775.058
775.073
775.088
775.103
775.118
775.133
775.148
775.163
775.178
775.193
775.209
775.224
775.239
775.255
775.271
775.286
775.302
775.318
775.333
775.349
775.365
775.381
775.397
775.413
775.429
775.446
775.462
775.478
775.494
775.511
775.527
775.544
775.56
775.577
775.594
775.611
775.627
775.644
775.661
775.678
775.695
775.712
775.729
775.746
775.764
775.781
775.798
775.816
775.833
775.851
775.868
775.886
775.903
775.921
775.939
775.956
775.974
775.992
776.01
776.028
776.046
776.064
776.082
776.1
776.118
776.137
776.155
776.173
776.191
776.21
776.228
776.247
776.265
776.284
776.302
776.321
776.34
776.358
776.377
776.396
776.415
776.434
776.453
776.472
776.491
776.51
776.529
776.548
776.567
776.586
776.605
776.625
776.644
776.663
776.682
776.702
776.721
776.741
776.76
776.78
776.799
776.819
776.838
776.858
776.878
776.897
776.917
776.937
776.956
776.976
776.996
777.016
777.036
777.056
777.076
777.096
777.115
777.135
777.155
777.176
777.196
777.216
777.236
777.256
777.276
777.296
777.316
777.336
777.357
777.377
777.397
777.417
777.438
777.458
777.478
777.499
777.519
777.539
777.56
777.58
777.6
777.621
777.641
777.662
777.682
777.703
777.723
777.743
777.764
777.784
777.805
777.825
777.846
777.866
777.887
777.907
777.928
777.949
777.969
777.99
778.01
778.031
778.051
778.072
778.092
778.113
778.133
778.154
778.175
778.195
778.216
778.236
778.257
778.277
778.298
778.318
778.339
778.359
778.38
778.4
778.421
778.441
778.462
778.482
778.503
778.523
778.544
778.564
778.585
778.605
778.625
778.646
778.666
778.687
778.707
778.727
778.747
778.768
778.788
778.809
778.828
778.85
778.868
778.891
778.908
778.931
778.948
778.972
778.988
779.012
779.028
779.053
779.068
779.093
779.108
779.134
779.147
779.174
779.187
779.214
779.228
779.255
779.27
779.307
773.7
773.692
773.682
773.674
773.667
773.662
773.658
773.655
773.654
773.654
773.654
773.654
773.655
773.657
773.658
773.66
773.662
773.664
773.666
773.668
773.671
773.673
773.676
773.678
773.681
773.684
773.686
773.689
773.692
773.696
773.699
773.702
773.705
773.709
773.712
773.716
773.72
773.724
773.728
773.732
773.736
773.74
773.744
773.749
773.753
773.758
773.762
773.767
773.772
773.776
773.781
773.787
773.792
773.797
773.802
773.808
773.813
773.819
773.824
773.83
773.836
773.842
773.848
773.854
773.86
773.866
773.873
773.879
773.886
773.892
773.899
773.906
773.912
773.919
773.927
773.934
773.941
773.948
773.955
773.963
773.97
773.978
773.986
773.994
774.003
774.011
774.02
774.028
774.037
774.045
774.054
774.062
774.071
774.079
774.087
774.096
774.104
774.112
774.121
774.13
774.139
774.148
774.157
774.166
774.176
774.186
774.196
774.206
774.216
774.226
774.237
774.247
774.257
774.268
774.278
774.288
774.299
774.309
774.32
774.331
774.341
774.352
774.363
774.374
774.385
774.396
774.407
774.417
774.428
774.439
774.45
774.461
774.473
774.484
774.495
774.507
774.519
774.531
774.544
774.556
774.569
774.582
774.594
774.607
774.62
774.633
774.645
774.658
774.671
774.683
774.696
774.708
774.721
774.734
774.746
774.759
774.773
774.786
774.799
774.813
774.826
774.84
774.854
774.867
774.881
774.895
774.909
774.923
774.937
774.952
774.966
774.98
774.995
775.009
775.024
775.038
775.053
775.068
775.083
775.098
775.113
775.128
775.143
775.158
775.173
775.188
775.204
775.219
775.234
775.25
775.265
775.281
775.297
775.312
775.328
775.344
775.36
775.376
775.392
775.408
775.424
775.44
775.457
775.473
775.489
775.506
775.522
775.539
775.555
775.572
775.589
775.605
775.622
775.639
775.656
775.673
775.69
775.707
775.724
775.741
775.758
775.776
775.793
775.81
775.828
775.845
775.863
775.88
775.898
775.916
775.933
775.951
775.969
775.987
776.005
776.023
776.041
776.059
776.077
776.095
776.113
776.131
776.15
776.168
776.186
776.205
776.223
776.242
776.26
776.279
776.297
776.316
776.335
776.353
776.372
776.391
776.41
776.429
776.448
776.467
776.486
776.505
776.524
776.543
776.562
776.581
776.6
776.619
776.639
776.658
776.677
776.697
776.716
776.736
776.755
776.775
776.794
776.814
776.833
776.853
776.873
776.892
776.912
776.932
776.951
776.971
776.991
777.011
777.031
777.051
777.07
777.09
777.11
777.13
777.15
777.17
777.19
777.211
777.231
777.251
777.271
777.291
777.311
777.331
777.352
777.372
777.392
777.412
777.433
777.453
777.473
777.494
777.514
777.534
777.555
777.575
777.595
777.616
777.636
777.657
777.677
777.698
777.718
777.738
777.759
777.779
777.8
777.82
777.841
777.861
777.882
777.902
777.923
777.943
777.964
777.985
778.005
778.026
778.046
778.067
778.087
778.108
778.128
778.149
778.169
778.19
778.211
778.231
778.252
778.272
778.293
778.313
778.334
778.354
778.375
778.395
778.416
778.436
778.457
778.477
778.498
778.518
778.539
778.559
778.58
778.6
778.62
778.641
778.661
778.682
778.702
778.722
778.742
778.763
778.783
778.804
778.823
778.845
778.863
778.886
778.903
778.926
778.943
778.967
778.983
779.007
779.023
779.048
779.063
779.088
779.103
779.129
779.142
779.169
779.182
779.209
779.223
779.25
779.265
779.298
773.7
773.693
773.682
773.674
773.667
773.662
773.658
773.655
773.654
773.654
773.654
773.654
773.655
773.657
773.658
773.66
773.662
773.664
773.666
773.668
773.671
773.673
773.676
773.678
773.681
773.684
773.686
773.689
773.692
773.696
773.699
773.702
773.706
773.709
773.713
773.716
773.72
773.724
773.728
773.732
773.736
773.74
773.744
773.749
773.753
773.758
773.762
773.767
773.772
773.777
773.781
773.787
773.792
773.797
773.802
773.808
773.813
773.819
773.824
773.83
773.836
773.842
773.848
773.854
773.86
773.866
773.873
773.879
773.886
773.892
773.899
773.906
773.913
773.919
773.927
773.934
773.941
773.948
773.956
773.963
773.97
773.978
773.986
773.994
774.003
774.011
774.02
774.028
774.037
774.045
774.054
774.062
774.071
774.079
774.087
774.096
774.104
774.112
774.121
774.13
774.139
774.148
774.157
774.166
774.176
774.186
774.196
774.206
774.216
774.226
774.237
774.247
774.257
774.268
774.278
774.288
774.299
774.309
774.32
774.331
774.341
774.352
774.363
774.374
774.385
774.396
774.407
774.417
774.428
774.439
774.45
774.461
774.473
774.484
774.495
774.507
774.519
774.531
774.544
774.556
774.569
774.582
774.594
774.607
774.62
774.633
774.645
774.658
774.671
774.683
774.696
774.708
774.721
774.734
774.746
774.759
774.773
774.786
774.799
774.813
774.826
774.84
774.853
774.867
774.881
774.895
774.909
774.923
774.937
774.952
774.966
774.98
774.995
775.009
775.024
775.038
775.053
775.068
775.083
775.098
775.113
775.128
775.143
775.158
775.173
775.188
775.204
775.219
775.234
775.25
775.265
775.281
775.297
775.312
775.328
775.344
775.36
775.376
775.392
775.408
775.424
775.44
775.457
775.473
775.489
775.506
775.522
775.539
775.555
775.572
775.589
775.605
775.622
775.639
775.656
775.673
775.69
775.707
775.724
775.741
775.758
775.776
775.793
775.81
775.828
775.845
775.863
775.88
775.898
775.916
775.933
775.951
775.969
775.987
776.005
776.023
776.041
776.059
776.077
776.095
776.113
776.131
776.15
776.168
776.186
776.205
776.223
776.242
776.26
776.279
776.297
776.316
776.335
776.353
776.372
776.391
776.41
776.429
776.448
776.467
776.485
776.505
776.524
776.543
776.562
776.581
776.6
776.619
776.639
776.658
776.677
776.697
776.716
776.736
776.755
776.775
776.794
776.814
776.833
776.853
776.872
776.892
776.912
776.932
776.951
776.971
776.991
777.011
777.031
777.051
777.07
777.09
777.11
777.13
777.15
777.17
777.19
777.211
777.231
777.251
777.271
777.291
777.311
777.331
777.352
777.372
777.392
777.412
777.433
777.453
777.473
777.494
777.514
777.534
777.555
777.575
777.595
777.616
777.636
777.657
777.677
777.697
777.718
777.738
777.759
777.779
777.8
777.82
777.841
777.861
777.882
777.902
777.923
777.943
777.964
777.985
778.005
778.026
778.046
778.067
778.087
778.108
778.128
778.149
778.169
778.19
778.211
778.231
778.252
778.272
778.293
778.313
778.334
778.354
778.375
778.395
778.416
778.436
778.457
778.477
778.498
778.518
778.539
778.559
778.58
778.6
778.62
778.641
778.661
778.682
778.702
778.722
778.742
778.763
778.783
778.804
778.823
778.845
778.863
778.886
778.903
778.926
778.943
778.967
778.983
779.007
779.023
779.048
779.063
779.088
779.103
779.129
779.142
779.169
779.182
779.209
779.223
779.25
779.265
779.297
773.7
773.693
773.682
773.674
773.667
773.662
773.658
773.656
773.654
773.654
773.654
773.654
773.655
773.657
773.658
773.66
773.662
773.664
773.666
773.668
773.671
773.673
773.676
773.678
773.681
773.684
773.687
773.69
773.693
773.696
773.699
773.702
773.706
773.709
773.713
773.716
773.72
773.724
773.728
773.732
773.736
773.74
773.744
773.749
773.753
773.758
773.762
773.767
773.772
773.777
773.782
773.787
773.792
773.797
773.802
773.808
773.813
773.819
773.824
773.83
773.836
773.842
773.848
773.854
773.86
773.866
773.873
773.879
773.886
773.892
773.899
773.906
773.913
773.92
773.927
773.934
773.941
773.948
773.956
773.963
773.97
773.978
773.986
773.994
774.003
774.011
774.02
774.028
774.037
774.045
774.054
774.062
774.071
774.079
774.087
774.096
774.104
774.112
774.121
774.13
774.139
774.148
774.157
774.166
774.176
774.186
774.196
774.206
774.216
774.227
774.237
774.247
774.258
774.268
774.278
774.289
774.299
774.309
774.32
774.331
774.341
774.352
774.363
774.374
774.385
774.396
774.407
774.417
774.428
774.439
774.45
774.461
774.473
774.484
774.496
774.507
774.519
774.531
774.544
774.556
774.569
774.582
774.594
774.607
774.62
774.633
774.645
774.658
774.671
774.683
774.696
774.708
774.721
774.734
774.746
774.759
774.773
774.786
774.799
774.813
774.826
774.84
774.854
774.867
774.881
774.895
774.909
774.923
774.937
774.952
774.966
774.98
774.995
775.009
775.024
775.038
775.053
775.068
775.083
775.098
775.113
775.128
775.143
775.158
775.173
775.188
775.204
775.219
775.234
775.25
775.265
775.281
775.297
775.312
775.328
775.344
775.36
775.376
775.392
775.408
775.424
775.44
775.457
775.473
775.489
775.506
775.522
775.539
775.555
775.572
775.589
775.605
775.622
775.639
775.656
775.673
775.69
775.707
775.724
775.741
775.758
775.776
775.793
775.81
775.828
775.845
775.863
775.88
775.898
775.916
775.933
775.951
775.969
775.987
776.005
776.023
776.041
776.059
776.077
776.095
776.113
776.131
776.15
776.168
776.186
776.205
776.223
776.242
776.26
776.279
776.297
776.316
776.335
776.353
776.372
776.391
776.41
776.429
776.448
776.467
776.485
776.505
776.524
776.543
776.562
776.581
776.6
776.619
776.639
776.658
776.677
776.697
776.716
776.736
776.755
776.775
776.794
776.814
776.833
776.853
776.872
776.892
776.912
776.932
776.951
776.971
776.991
777.011
777.031
777.051
777.07
777.09
777.11
777.13
777.15
777.17
777.19
777.211
777.231
777.251
777.271
777.291
777.311
777.331
777.352
777.372
777.392
777.412
777.433
777.453
777.473
777.494
777.514
777.534
777.555
777.575
777.595
777.616
777.636
777.657
777.677
777.697
777.718
777.738
777.759
777.779
777.8
777.82
777.841
777.861
777.882
777.902
777.923
777.943
777.964
777.985
778.005
778.026
778.046
778.067
778.087
778.108
778.128
778.149
778.169
778.19
778.211
778.231
778.252
778.272
778.293
778.313
778.334
778.354
778.375
778.395
778.416
778.436
778.457
778.477
778.498
778.518
778.539
778.559
778.58
778.6
778.62
778.641
778.661
778.682
778.702
778.722
778.742
778.763
778.783
778.804
778.823
778.845
778.863
778.886
778.903
778.926
778.943
778.967
778.983
779.007
779.023
779.048
779.063
779.088
779.103
779.128
779.143
779.168
779.182
779.209
779.223
779.249
779.266
779.292
773.7
773.693
773.682
773.674
773.667
773.662
773.658
773.656
773.654
773.654
773.654
773.655
773.656
773.657
773.659
773.66
773.662
773.664
773.666
773.669
773.671
773.673
773.676
773.678
773.681
773.684
773.687
773.69
773.693
773.696
773.699
773.702
773.706
773.709
773.713
773.716
773.72
773.724
773.728
773.732
773.736
773.74
773.744
773.749
773.753
773.758
773.762
773.767
773.772
773.777
773.782
773.787
773.792
773.797
773.802
773.808
773.813
773.819
773.825
773.83
773.836
773.842
773.848
773.854
773.86
773.867
773.873
773.879
773.886
773.892
773.899
773.906
773.913
773.92
773.927
773.934
773.941
773.948
773.956
773.963
773.971
773.978
773.986
773.994
774.003
774.011
774.02
774.028
774.037
774.045
774.054
774.062
774.071
774.079
774.087
774.096
774.104
774.112
774.121
774.13
774.139
774.148
774.157
774.166
774.176
774.186
774.196
774.206
774.216
774.227
774.237
774.247
774.258
774.268
774.278
774.289
774.299
774.309
774.32
774.331
774.341
774.352
774.363
774.374
774.385
774.396
774.407
774.417
774.428
774.439
774.45
774.461
774.473
774.484
774.496
774.507
774.519
774.531
774.544
774.556
774.569
774.582
774.594
774.607
774.62
774.633
774.645
774.658
774.671
774.683
774.696
774.708
774.721
774.734
774.747
774.759
774.773
774.786
774.799
774.813
774.826
774.84
774.854
774.867
774.881
774.895
774.909
774.923
774.937
774.952
774.966
774.98
774.995
775.009
775.024
775.038
775.053
775.068
775.083
775.098
775.113
775.128
775.143
775.158
775.173
775.188
775.204
775.219
775.234
775.25
775.265
775.281
775.297
775.312
775.328
775.344
775.36
775.376
775.392
775.408
775.424
775.44
775.457
775.473
775.489
775.506
775.522
775.539
775.555
775.572
775.589
775.605
775.622
775.639
775.656
775.673
775.69
775.707
775.724
775.741
775.758
775.776
775.793
775.81
775.828
775.845
775.863
775.88
775.898
775.916
775.933
775.951
775.969
775.987
776.005
776.023
776.041
776.059
776.077
776.095
776.113
776.131
776.15
776.168
776.186
776.205
776.223
776.242
776.26
776.279
776.297
776.316
776.335
776.353
776.372
776.391
776.41
776.429
776.448
776.467
776.485
776.505
776.524
776.543
776.562
776.581
776.6
776.619
776.639
776.658
776.677
776.697
776.716
776.736
776.755
776.775
776.794
776.814
776.833
776.853
776.872
776.892
776.912
776.932
776.951
776.971
776.991
777.011
777.031
777.051
777.07
777.09
777.11
777.13
777.15
777.17
777.19
777.211
777.231
777.251
777.271
777.291
777.311
777.331
777.352
777.372
777.392
777.412
777.433
777.453
777.473
777.494
777.514
777.534
777.555
777.575
777.595
777.616
777.636
777.657
777.677
777.697
777.718
777.738
777.759
777.779
777.8
777.82
777.841
777.861
777.882
777.902
777.923
777.943
777.964
777.985
778.005
778.026
778.046
778.067
778.087
778.108
778.128
778.149
778.169
778.19
778.211
778.231
778.252
778.272
778.293
778.313
778.334
778.354
778.375
778.395
778.416
778.436
778.457
778.477
778.498
778.518
778.539
778.559
778.58
778.6
778.62
778.641
778.661
778.682
778.702
778.723
778.742
778.763
778.783
778.804
778.823
778.845
778.863
778.886
778.903
778.926
778.943
778.967
778.983
779.007
779.023
779.048
779.063
779.088
779.103
779.128
779.143
779.169
779.182
779.209
779.222
779.249
779.263
779.293
773.7
773.693
773.682
773.674
773.667
773.662
773.658
773.656
773.654
773.654
773.654
773.655
773.656
773.657
773.659
773.66
773.662
773.664
773.666
773.669
773.671
773.673
773.676
773.678
773.681
773.684
773.687
773.69
773.693
773.696
773.699
773.702
773.706
773.709
773.713
773.716
773.72
773.724
773.728
773.732
773.736
773.74
773.744
773.749
773.753
773.758
773.762
773.767
773.772
773.777
773.782
773.787
773.792
773.797
773.802
773.808
773.813
773.819
773.825
773.83
773.836
773.842
773.848
773.854
773.86
773.867
773.873
773.879
773.886
773.892
773.899
773.906
773.913
773.92
773.927
773.934
773.941
773.948
773.956
773.963
773.971
773.978
773.986
773.994
774.003
774.011
774.02
774.028
774.037
774.045
774.054
774.062
774.071
774.079
774.087
774.096
774.104
774.112
774.121
774.13
774.139
774.148
774.157
774.166
774.176
774.186
774.196
774.206
774.216
774.227
774.237
774.247
774.258
774.268
774.278
774.289
774.299
774.309
774.32
774.331
774.341
774.352
774.363
774.374
774.385
774.396
774.407
774.417
774.428
774.439
774.45
774.461
774.473
774.484
774.496
774.507
774.519
774.531
774.544
774.556
774.569
774.582
774.594
774.607
774.62
774.633
774.645
774.658
774.671
774.683
774.696
774.708
774.721
774.734
774.747
774.759
774.773
774.786
774.799
774.813
774.826
774.84
774.854
774.867
774.881
774.895
774.909
774.923
774.937
774.952
774.966
774.98
774.995
775.009
775.024
775.038
775.053
775.068
775.083
775.098
775.113
775.128
775.143
775.158
775.173
775.188
775.204
775.219
775.234
775.25
775.265
775.281
775.297
775.312
775.328
775.344
775.36
775.376
775.392
775.408
775.424
775.44
775.457
775.473
775.489
775.506
775.522
775.539
775.555
775.572
775.589
775.605
775.622
775.639
775.656
775.673
775.69
775.707
775.724
775.741
775.758
775.776
775.793
775.81
775.828
775.845
775.863
775.88
775.898
775.916
775.933
775.951
775.969
775.987
776.005
776.023
776.041
776.059
776.077
776.095
776.113
776.131
776.15
776.168
776.186
776.205
776.223
776.242
776.26
776.279
776.297
776.316
776.335
776.353
776.372
776.391
776.41
776.429
776.448
776.467
776.485
776.505
776.524
776.543
776.562
776.581
776.6
776.619
776.639
776.658
776.677
776.697
776.716
776.736
776.755
776.775
776.794
776.814
776.833
776.853
776.872
776.892
776.912
776.932
776.951
776.971
776.991
777.011
777.031
777.051
777.07
777.09
777.11
777.13
777.15
777.17
777.19
777.211
777.231
777.251
777.271
777.291
777.311
777.331
777.352
777.372
777.392
777.412
777.433
777.453
777.473
777.494
777.514
777.534
777.555
777.575
777.595
777.616
777.636
777.657
777.677
777.697
777.718
777.738
777.759
777.779
777.8
777.82
777.841
777.861
777.882
777.902
777.923
777.943
777.964
777.985
778.005
778.026
778.046
778.067
778.087
778.108
778.128
778.149
778.169
778.19
778.211
778.231
778.252
778.272
778.293
778.313
778.334
778.354
778.375
778.395
778.416
778.436
778.457
778.477
778.498
778.518
778.539
778.559
778.58
778.6
778.62
778.641
778.661
778.682
778.702
778.722
778.743
778.763
778.783
778.804
778.823
778.844
778.864
778.885
778.904
778.925
778.945
778.965
778.986
779.005
779.026
779.045
779.065
779.086
779.105
779.126
779.145
779.165
779.187
779.203
779.227
779.243
779.266
779.28
773.7
773.693
773.682
773.674
773.667
773.662
773.658
773.656
773.654
773.654
773.654
773.654
773.655
773.657
773.658
773.66
773.662
773.664
773.666
773.668
773.671
773.673
773.676
773.678
773.681
773.684
773.687
773.69
773.693
773.696
773.699
773.702
773.706
773.709
773.713
773.716
773.72
773.724
773.728
773.732
773.736
773.74
773.744
773.749
773.753
773.758
773.762
773.767
773.772
773.777
773.782
773.787
773.792
773.797
773.802
773.808
773.813
773.819
773.824
773.83
773.836
773.842
773.848
773.854
773.86
773.866
773.873
773.879
773.886
773.892
773.899
773.906
773.913
773.92
773.927
773.934
773.941
773.948
773.956
773.963
773.97
773.978
773.986
773.994
774.003
774.011
774.02
774.028
774.037
774.045
774.054
774.062
774.071
774.079
774.087
774.096
774.104
774.112
774.121
774.13
774.139
774.148
774.157
774.166
774.176
774.186
774.196
774.206
774.216
774.227
774.237
774.247
774.258
774.268
774.278
774.289
774.299
774.309
774.32
774.331
774.341
774.352
774.363
774.374
774.385
774.396
774.407
774.417
774.428
774.439
774.45
774.461
774.473
774.484
774.496
774.507
774.519
774.531
774.544
774.556
774.569
774.582
774.594
774.607
774.62
774.633
774.645
774.658
774.671
774.683
774.696
774.708
774.721
774.734
774.746
774.759
774.773
774.786
774.799
774.813
774.826
774.84
774.854
774.867
774.881
774.895
774.909
774.923
774.937
774.952
774.966
774.98
774.995
775.009
775.024
775.038
775.053
775.068
775.083
775.098
775.113
775.128
775.143
775.158
775.173
775.188
775.204
775.219
775.234
775.25
775.265
775.281
775.297
775.312
775.328
775.344
775.36
775.376
775.392
775.408
775.424
775.44
775.457
775.473
775.489
775.506
775.522
775.539
775.555
775.572
775.589
775.605
775.622
775.639
775.656
775.673
775.69
775.707
775.724
775.741
775.758
775.776
775.793
775.81
775.828
775.845
775.863
775.88
775.898
775.916
775.933
775.951
775.969
775.987
776.005
776.023
776.041
776.059
776.077
776.095
776.113
776.131
776.15
776.168
776.186
776.205
776.223
776.242
776.26
776.279
776.297
776.316
776.335
776.353
776.372
776.391
776.41
776.429
776.448
776.467
776.485
776.505
776.524
776.543
776.562
776.581
776.6
776.619
776.639
776.658
776.677
776.697
776.716
776.736
776.755
776.775
776.794
776.814
776.833
776.853
776.872
776.892
776.912
776.932
776.951
776.971
776.991
777.011
777.031
777.051
777.07
777.09
777.11
777.13
777.15
777.17
777.19
777.211
777.231
777.251
777.271
777.291
777.311
777.331
777.352
777.372
777.392
777.412
777.433
777.453
777.473
777.494
777.514
777.534
777.555
777.575
777.595
777.616
777.636
777.657
777.677
777.697
777.718
777.738
777.759
777.779
777.8
777.82
777.841
777.861
777.882
777.902
777.923
777.943
777.964
777.985
778.005
778.026
778.046
778.067
778.087
778.108
778.128
778.149
778.169
778.19
778.211
778.231
778.252
778.272
778.293
778.313
778.334
778.354
778.375
778.395
778.416
778.436
778.457
778.477
778.498
778.518
778.539
778.559
778.58
778.6
778.62
778.641
778.661
778.682
778.702
778.722
778.742
778.763
778.783
778.804
778.824
778.844
778.865
778.884
778.906
778.924
778.946
778.965
778.985
779.006
779.024
779.047
779.065
779.085
779.107
779.123
779.149
779.162
779.189
779.202
779.227
779.243
779.262
779.277
773.7
773.693
773.682
773.674
773.667
773.662
773.658
773.655
773.654
773.654
773.654
773.654
773.655
773.657
773.658
773.66
773.662
773.664
773.666
773.668
773.671
773.673
773.676
773.678
773.681
773.684
773.686
773.689
773.692
773.696
773.699
773.702
773.706
773.709
773.713
773.716
773.72
773.724
773.728
773.732
773.736
773.74
773.744
773.749
773.753
773.758
773.762
773.767
773.772
773.777
773.781
773.787
773.792
773.797
773.802
773.808
773.813
773.819
773.824
773.83
773.836
773.842
773.848
773.854
773.86
773.866
773.873
773.879
773.886
773.892
773.899
773.906
773.913
773.919
773.927
773.934
773.941
773.948
773.956
773.963
773.97
773.978
773.986
773.994
774.003
774.011
774.02
774.028
774.037
774.045
774.054
774.062
774.071
774.079
774.087
774.096
774.104
774.112
774.121
774.13
774.139
774.148
774.157
774.166
774.176
774.186
774.196
774.206
774.216
774.226
774.237
774.247
774.257
774.268
774.278
774.288
774.299
774.309
774.32
774.331
774.341
774.352
774.363
774.374
774.385
774.396
774.407
774.417
774.428
774.439
774.45
774.461
774.473
774.484
774.495
774.507
774.519
774.531
774.544
774.556
774.569
774.582
774.594
774.607
774.62
774.633
774.645
774.658
774.671
774.683
774.696
774.708
774.721
774.734
774.746
774.759
774.773
774.786
774.799
774.813
774.826
774.84
774.853
774.867
774.881
774.895
774.909
774.923
774.937
774.952
774.966
774.98
774.995
775.009
775.024
775.038
775.053
775.068
775.083
775.098
775.113
775.128
775.143
775.158
775.173
775.188
775.204
775.219
775.234
775.25
775.265
775.281
775.297
775.312
775.328
775.344
775.36
775.376
775.392
775.408
775.424
775.44
775.457
775.473
775.489
775.506
775.522
775.539
775.555
775.572
775.589
775.605
775.622
775.639
775.656
775.673
775.69
775.707
775.724
775.741
775.758
775.776
775.793
775.81
775.828
775.845
775.863
775.88
775.898
775.916
775.933
775.951
775.969
775.987
776.005
776.023
776.041
776.059
776.077
776.095
776.113
776.131
776.15
776.168
776.186
776.205
776.223
776.242
776.26
776.279
776.297
776.316
776.335
776.353
776.372
776.391
776.41
776.429
776.448
776.467
776.485
776.505
776.524
776.543
776.562
776.581
776.6
776.619
776.639
776.658
776.677
776.697
776.716
776.736
776.755
776.775
776.794
776.814
776.833
776.853
776.872
776.892
776.912
776.932
776.951
776.971
776.991
777.011
777.031
777.051
777.07
777.09
777.11
777.13
777.15
777.17
777.19
777.211
777.231
777.251
777.271
777.291
777.311
777.331
777.352
777.372
777.392
777.412
777.433
777.453
777.473
777.494
777.514
777.534
777.555
777.575
777.595
777.616
777.636
777.657
777.677
777.697
777.718
777.738
777.759
777.779
777.8
777.82
777.841
777.861
777.882
777.902
777.923
777.943
777.964
777.985
778.005
778.026
778.046
778.067
778.087
778.108
778.128
778.149
778.169
778.19
778.211
778.231
778.252
778.272
778.293
778.313
778.334
778.354
778.375
778.395
778.416
778.436
778.457
778.477
778.498
778.518
778.539
778.559
778.58
778.6
778.62
778.641
778.661
778.682
778.702
778.722
778.743
778.763
778.783
778.804
778.824
778.844
778.865
778.883
778.906
778.923
778.947
778.964
778.987
779.004
779.027
779.044
779.067
779.083
779.109
779.122
779.149
779.162
779.189
779.202
779.228
779.24
779.269
779.265
773.7
773.692
773.682
773.674
773.667
773.662
773.658
773.655
773.654
773.654
773.654
773.654
773.655
773.657
773.658
773.66
773.662
773.664
773.666
773.668
773.671
773.673
773.676
773.678
773.681
773.684
773.686
773.689
773.692
773.696
773.699
773.702
773.705
773.709
773.712
773.716
773.72
773.724
773.728
773.732
773.736
773.74
773.744
773.749
773.753
773.758
773.762
773.767
773.772
773.776
773.781
773.787
773.792
773.797
773.802
773.808
773.813
773.819
773.824
773.83
773.836
773.842
773.848
773.854
773.86
773.866
773.873
773.879
773.886
773.892
773.899
773.906
773.912
773.919
773.927
773.934
773.941
773.948
773.955
773.963
773.97
773.978
773.986
773.994
774.003
774.011
774.02
774.028
774.037
774.045
774.054
774.062
774.071
774.079
774.087
774.096
774.104
774.112
774.121
774.13
774.139
774.148
774.157
774.166
774.176
774.186
774.196
774.206
774.216
774.226
774.237
774.247
774.257
774.268
774.278
774.288
774.299
774.309
774.32
774.331
774.341
774.352
774.363
774.374
774.385
774.396
774.407
774.417
774.428
774.439
774.45
774.461
774.473
774.484
774.495
774.507
774.519
774.531
774.544
774.556
774.569
774.582
774.594
774.607
774.62
774.633
774.645
774.658
774.671
774.683
774.696
774.708
774.721
774.734
774.746
774.759
774.773
774.786
774.799
774.813
774.826
774.84
774.854
774.867
774.881
774.895
774.909
774.923
774.937
774.952
774.966
774.98
774.995
775.009
775.024
775.038
775.053
775.068
775.083
775.098
775.113
775.128
775.143
775.158
775.173
775.188
775.204
775.219
775.234
775.25
775.265
775.281
775.297
775.312
775.328
775.344
775.36
775.376
775.392
775.408
775.424
775.44
775.457
775.473
775.489
775.506
775.522
775.539
775.555
775.572
775.589
775.605
775.622
775.639
775.656
775.673
775.69
775.707
775.724
775.741
775.758
775.776
775.793
775.81
775.828
775.845
775.863
775.88
775.898
775.916
775.933
775.951
775.969
775.987
776.005
776.023
776.041
776.059
776.077
776.095
776.113
776.131
776.15
776.168
776.186
776.205
776.223
776.242
776.26
776.279
776.297
776.316
776.335
776.353
776.372
776.391
776.41
776.429
776.448
776.467
776.486
776.505
776.524
776.543
776.562
776.581
776.6
776.619
776.639
776.658
776.677
776.697
776.716
776.736
776.755
776.775
776.794
776.814
776.833
776.853
776.873
776.892
776.912
776.932
776.951
776.971
776.991
777.011
777.031
777.051
777.07
777.09
777.11
777.13
777.15
777.17
777.19
777.211
777.231
777.251
777.271
777.291
777.311
777.331
777.352
777.372
777.392
777.412
777.433
777.453
777.473
777.494
777.514
777.534
777.555
777.575
777.595
777.616
777.636
777.657
777.677
777.698
777.718
777.738
777.759
777.779
777.8
777.82
777.841
777.861
777.882
777.902
777.923
777.943
777.964
777.985
778.005
778.026
778.046
778.067
778.087
778.108
778.128
778.149
778.169
778.19
778.211
778.231
778.252
778.272
778.293
778.313
778.334
778.354
778.375
778.395
778.416
778.436
778.457
778.477
778.498
778.518
778.539
778.559
778.58
778.6
778.62
778.641
778.661
778.682
778.702
778.722
778.743
778.763
778.783
778.803
778.824
778.844
778.865
778.883
778.906
778.923
778.947
778.963
778.987
779.003
779.028
779.043
779.068
779.083
779.109
779.122
779.149
779.162
779.189
779.202
779.228
779.24
779.271
779.253
773.708
773.701
773.69
773.682
773.675
773.67
773.666
773.663
773.662
773.662
773.662
773.662
773.663
773.665
773.666
773.668
773.67
773.672
773.674
773.676
773.678
773.681
773.683
773.686
773.689
773.691
773.694
773.697
773.7
773.703
773.706
773.71
773.713
773.717
773.72
773.724
773.728
773.731
773.735
773.739
773.743
773.747
773.752
773.756
773.76
773.765
773.77
773.774
773.779
773.784
773.789
773.794
773.799
773.804
773.81
773.815
773.82
773.826
773.832
773.837
773.843
773.849
773.855
773.861
773.867
773.873
773.88
773.886
773.893
773.899
773.906
773.913
773.92
773.926
773.934
773.941
773.948
773.955
773.962
773.97
773.977
773.985
773.993
774.001
774.01
774.018
774.026
774.035
774.043
774.052
774.061
774.069
774.077