/*--------------------------------*- C++ -*----------------------------------*\
| =========                 |                                                 |
| \\      /  F ield         | OpenFOAM: The Open Source CFD Toolbox           |
|  \\    /   O peration     | Version:  3.0.x                                 |
|   \\  /    A nd           | Web:      www.OpenFOAM.org                      |
|    \\/     M anipulation  |                                                 |
\*---------------------------------------------------------------------------*/
FoamFile
{
    version     2.0;
    format      ascii;
    class       volScalarField;
    location    "0.02";
    object      rho;
}
// * * * * * * * * * * * * * * * * * * * * * * * * * * * * * * * * * * * * * //

dimensions      [1 -3 0 0 0 0 0];

internalField   nonuniform List<scalar> 
6900
(
50.4677
50.4677
50.4677
50.4677
50.4677
50.4677
50.4677
50.4677
50.4677
50.4677
50.4677
50.4677
50.4677
50.4677
50.4677
50.4677
50.4677
50.4677
50.4677
50.4677
50.4677
50.4677
50.4677
50.4677
50.4677
50.4677
50.4677
50.4677
50.4677
50.4677
50.4677
50.4677
50.4677
50.4677
50.4677
50.4677
50.4677
50.4677
50.4677
50.4677
50.4677
50.4677
50.4677
50.4677
50.4677
50.4677
50.4677
50.4677
50.4677
50.4677
50.4677
50.4677
50.4677
50.4677
50.4677
50.4677
50.4677
50.4677
50.4677
50.4677
50.4677
50.4677
50.4677
50.4677
50.4677
50.4677
50.4677
50.4677
50.4677
50.4677
50.4677
50.4677
50.4677
50.4677
50.4677
50.4677
50.4677
50.4677
50.4677
50.4677
50.4677
50.4677
50.4677
50.4677
50.4677
50.4677
50.4677
50.4677
50.4677
50.4677
50.4677
50.4677
50.4677
50.4677
50.4677
50.4677
50.4677
50.4677
50.4677
50.4677
50.4677
50.4677
50.4677
50.4677
50.4677
50.4677
50.4677
50.4677
50.4677
50.4677
50.4677
50.4677
50.4677
50.4677
50.4677
50.4677
50.4677
50.4677
50.4677
50.4677
50.4677
50.4677
50.4677
50.4677
50.4677
50.4677
50.4677
50.4677
50.4677
50.4678
50.4679
50.468
50.4681
50.4684
50.4687
50.4692
50.4698
50.4707
50.4718
50.4733
50.4752
50.4776
50.4804
50.4837
50.4875
50.4917
50.4961
50.5006
50.5049
50.5088
50.5121
50.5145
50.5158
50.516
50.5151
50.5131
50.5102
50.5067
50.503
50.4994
50.4961
50.4934
50.4915
50.4904
50.4901
50.4905
50.4913
50.4926
50.494
50.4956
50.4973
50.4989
50.5004
50.5018
50.5032
50.5045
50.5058
50.5069
50.5081
50.5092
50.5103
50.5114
50.5124
50.5134
50.5144
50.5154
50.5163
50.5172
50.5181
50.519
50.5198
50.5206
50.5214
50.5221
50.5229
50.5234
50.5241
50.5248
50.5257
50.524
50.4677
50.4677
50.4677
50.4677
50.4677
50.4677
50.4677
50.4677
50.4677
50.4677
50.4677
50.4677
50.4677
50.4677
50.4677
50.4677
50.4677
50.4677
50.4677
50.4677
50.4677
50.4677
50.4677
50.4677
50.4677
50.4677
50.4677
50.4677
50.4677
50.4677
50.4677
50.4677
50.4677
50.4677
50.4677
50.4677
50.4677
50.4677
50.4677
50.4677
50.4677
50.4677
50.4677
50.4677
50.4677
50.4677
50.4677
50.4677
50.4677
50.4677
50.4677
50.4677
50.4677
50.4677
50.4677
50.4677
50.4677
50.4677
50.4677
50.4677
50.4677
50.4677
50.4677
50.4677
50.4677
50.4677
50.4677
50.4677
50.4677
50.4677
50.4677
50.4677
50.4677
50.4677
50.4677
50.4677
50.4677
50.4677
50.4677
50.4677
50.4677
50.4677
50.4677
50.4677
50.4677
50.4677
50.4677
50.4677
50.4677
50.4677
50.4677
50.4677
50.4677
50.4677
50.4677
50.4677
50.4677
50.4677
50.4677
50.4677
50.4677
50.4677
50.4677
50.4677
50.4677
50.4677
50.4677
50.4677
50.4677
50.4677
50.4677
50.4677
50.4677
50.4677
50.4677
50.4677
50.4677
50.4677
50.4677
50.4677
50.4677
50.4677
50.4677
50.4677
50.4677
50.4677
50.4677
50.4677
50.4677
50.4678
50.4679
50.468
50.4681
50.4684
50.4687
50.4692
50.4698
50.4707
50.4719
50.4734
50.4752
50.4776
50.4804
50.4837
50.4875
50.4917
50.4961
50.5006
50.5049
50.5088
50.5121
50.5145
50.5159
50.516
50.5151
50.5131
50.5102
50.5067
50.503
50.4994
50.4961
50.4934
50.4915
50.4904
50.4901
50.4905
50.4913
50.4926
50.494
50.4956
50.4973
50.4989
50.5004
50.5018
50.5032
50.5045
50.5058
50.507
50.5081
50.5092
50.5103
50.5114
50.5124
50.5134
50.5144
50.5154
50.5163
50.5172
50.5181
50.519
50.5198
50.5206
50.5214
50.5221
50.5228
50.5235
50.5241
50.5248
50.5255
50.5243
50.4677
50.4677
50.4677
50.4677
50.4677
50.4677
50.4677
50.4677
50.4677
50.4677
50.4677
50.4677
50.4677
50.4677
50.4677
50.4677
50.4677
50.4677
50.4677
50.4677
50.4677
50.4677
50.4677
50.4677
50.4677
50.4677
50.4677
50.4677
50.4677
50.4677
50.4677
50.4677
50.4677
50.4677
50.4677
50.4677
50.4677
50.4677
50.4677
50.4677
50.4677
50.4677
50.4677
50.4677
50.4677
50.4677
50.4677
50.4677
50.4677
50.4677
50.4677
50.4677
50.4677
50.4677
50.4677
50.4677
50.4677
50.4677
50.4677
50.4677
50.4677
50.4677
50.4677
50.4677
50.4677
50.4677
50.4677
50.4677
50.4677
50.4677
50.4677
50.4677
50.4677
50.4677
50.4677
50.4677
50.4677
50.4677
50.4677
50.4677
50.4677
50.4677
50.4677
50.4677
50.4677
50.4677
50.4677
50.4677
50.4677
50.4677
50.4677
50.4677
50.4677
50.4677
50.4677
50.4677
50.4677
50.4677
50.4677
50.4677
50.4677
50.4677
50.4677
50.4677
50.4677
50.4677
50.4677
50.4677
50.4677
50.4677
50.4677
50.4677
50.4677
50.4677
50.4677
50.4677
50.4677
50.4677
50.4677
50.4677
50.4677
50.4677
50.4677
50.4677
50.4677
50.4677
50.4677
50.4677
50.4677
50.4678
50.4679
50.468
50.4681
50.4684
50.4687
50.4692
50.4698
50.4707
50.4719
50.4734
50.4752
50.4776
50.4804
50.4837
50.4875
50.4917
50.4961
50.5006
50.5049
50.5088
50.5121
50.5145
50.5159
50.516
50.5151
50.5131
50.5102
50.5067
50.503
50.4994
50.4961
50.4934
50.4915
50.4904
50.4901
50.4905
50.4913
50.4926
50.494
50.4956
50.4973
50.4989
50.5004
50.5018
50.5032
50.5045
50.5058
50.507
50.5081
50.5092
50.5103
50.5114
50.5124
50.5134
50.5144
50.5154
50.5163
50.5172
50.5181
50.519
50.5198
50.5206
50.5214
50.5221
50.5228
50.5235
50.5241
50.5247
50.5252
50.5254
50.4677
50.4677
50.4677
50.4677
50.4677
50.4677
50.4677
50.4677
50.4677
50.4677
50.4677
50.4677
50.4677
50.4677
50.4677
50.4677
50.4677
50.4677
50.4677
50.4677
50.4677
50.4677
50.4677
50.4677
50.4677
50.4677
50.4677
50.4677
50.4677
50.4677
50.4677
50.4677
50.4677
50.4677
50.4677
50.4677
50.4677
50.4677
50.4677
50.4677
50.4677
50.4677
50.4677
50.4677
50.4677
50.4677
50.4677
50.4677
50.4677
50.4677
50.4677
50.4677
50.4677
50.4677
50.4677
50.4677
50.4677
50.4677
50.4677
50.4677
50.4677
50.4677
50.4677
50.4677
50.4677
50.4677
50.4677
50.4677
50.4677
50.4677
50.4677
50.4677
50.4677
50.4677
50.4677
50.4677
50.4677
50.4677
50.4677
50.4677
50.4677
50.4677
50.4677
50.4677
50.4677
50.4677
50.4677
50.4677
50.4677
50.4677
50.4677
50.4677
50.4677
50.4677
50.4677
50.4677
50.4677
50.4677
50.4677
50.4677
50.4677
50.4677
50.4677
50.4677
50.4677
50.4677
50.4677
50.4677
50.4677
50.4677
50.4677
50.4677
50.4677
50.4677
50.4677
50.4677
50.4677
50.4677
50.4677
50.4677
50.4677
50.4677
50.4677
50.4677
50.4677
50.4677
50.4677
50.4677
50.4677
50.4678
50.4679
50.468
50.4681
50.4684
50.4687
50.4692
50.4698
50.4707
50.4719
50.4734
50.4752
50.4776
50.4804
50.4837
50.4875
50.4917
50.4961
50.5006
50.5049
50.5088
50.5121
50.5145
50.5159
50.516
50.5151
50.5131
50.5102
50.5067
50.503
50.4994
50.4961
50.4934
50.4915
50.4904
50.4901
50.4905
50.4913
50.4926
50.494
50.4956
50.4973
50.4989
50.5004
50.5018
50.5032
50.5045
50.5058
50.507
50.5081
50.5092
50.5103
50.5114
50.5124
50.5134
50.5144
50.5154
50.5163
50.5172
50.5181
50.519
50.5198
50.5206
50.5214
50.5221
50.5228
50.5235
50.524
50.5247
50.5243
50.5302
50.4677
50.4677
50.4677
50.4677
50.4677
50.4677
50.4677
50.4677
50.4677
50.4677
50.4677
50.4677
50.4677
50.4677
50.4677
50.4677
50.4677
50.4677
50.4677
50.4677
50.4677
50.4677
50.4677
50.4677
50.4677
50.4677
50.4677
50.4677
50.4677
50.4677
50.4677
50.4677
50.4677
50.4677
50.4677
50.4677
50.4677
50.4677
50.4677
50.4677
50.4677
50.4677
50.4677
50.4677
50.4677
50.4677
50.4677
50.4677
50.4677
50.4677
50.4677
50.4677
50.4677
50.4677
50.4677
50.4677
50.4677
50.4677
50.4677
50.4677
50.4677
50.4677
50.4677
50.4677
50.4677
50.4677
50.4677
50.4677
50.4677
50.4677
50.4677
50.4677
50.4677
50.4677
50.4677
50.4677
50.4677
50.4677
50.4677
50.4677
50.4677
50.4677
50.4677
50.4677
50.4677
50.4677
50.4677
50.4677
50.4677
50.4677
50.4677
50.4677
50.4677
50.4677
50.4677
50.4677
50.4677
50.4677
50.4677
50.4677
50.4677
50.4677
50.4677
50.4677
50.4677
50.4677
50.4677
50.4677
50.4677
50.4677
50.4677
50.4677
50.4677
50.4677
50.4677
50.4677
50.4677
50.4677
50.4677
50.4677
50.4677
50.4677
50.4677
50.4677
50.4677
50.4677
50.4677
50.4677
50.4677
50.4678
50.4679
50.468
50.4681
50.4684
50.4687
50.4692
50.4698
50.4707
50.4718
50.4733
50.4752
50.4776
50.4804
50.4837
50.4875
50.4917
50.4961
50.5006
50.5049
50.5088
50.5121
50.5145
50.5158
50.516
50.5151
50.5131
50.5102
50.5067
50.503
50.4994
50.4961
50.4934
50.4915
50.4904
50.4901
50.4905
50.4913
50.4926
50.494
50.4956
50.4973
50.4989
50.5004
50.5018
50.5032
50.5045
50.5058
50.5069
50.5081
50.5092
50.5103
50.5114
50.5124
50.5134
50.5144
50.5154
50.5163
50.5172
50.5181
50.519
50.5198
50.5206
50.5214
50.5221
50.5228
50.5235
50.524
50.5247
50.5242
50.5344
50.5428
50.5503
50.5515
50.5509
50.5509
50.5515
50.5527
50.5521
50.5465
50.5266
50.4659
50.307
50.0174
49.7347
49.6112
49.5976
49.6867
49.8558
49.9857
50.1814
50.5392
50.543
50.5435
50.5428
50.5439
50.5502
50.5592
50.5644
50.5638
50.5568
50.542
50.5199
50.4963
50.4739
50.4577
50.4578
50.466
50.4806
50.4866
50.5043
50.5266
50.5266
50.5257
50.5237
50.521
50.5175
50.5133
50.5085
50.5035
50.4993
50.4965
50.4932
50.4881
50.4806
50.4726
50.4645
50.457
50.4505
50.443
50.4353
50.5028
50.4996
50.5003
50.5015
50.5006
50.4967
50.4909
50.4839
50.477
50.4694
50.4619
50.4542
50.447
50.4398
50.4333
50.4272
50.4219
50.4171
50.413
50.4096
50.4922
50.4802
50.4753
50.4746
50.4725
50.4675
50.4608
50.4527
50.4443
50.4353
50.4263
50.417
50.4081
50.3996
50.3915
50.384
50.3774
50.3721
50.3685
50.3673
50.3608
50.5622
50.6482
50.6512
50.5928
50.4965
50.4477
50.4283
50.4219
50.4201
50.4198
50.4201
50.4205
50.4209
50.4214
50.422
50.4225
50.4231
50.4236
50.4242
50.4248
50.4255
50.4261
50.4268
50.4274
50.4281
50.4288
50.4295
50.4303
50.431
50.4317
50.4325
50.4333
50.4341
50.4349
50.4357
50.4366
50.4374
50.4384
50.4393
50.4403
50.4413
50.4423
50.4434
50.4445
50.4456
50.4466
50.4476
50.4485
50.4493
50.4498
50.45
50.4499
50.4495
50.4486
50.4473
50.4455
50.4434
50.4409
50.4381
50.4352
50.4322
50.4294
50.4267
50.4244
50.4225
50.4211
50.4204
50.4202
50.4207
50.4218
50.4234
50.4255
50.428
50.4307
50.4337
50.4368
50.44
50.4431
50.446
50.4488
50.4515
50.4538
50.456
50.4579
50.4596
50.461
50.4623
50.4633
50.4642
50.4649
50.4655
50.466
50.4664
50.4667
50.4669
50.4671
50.4672
50.4673
50.4674
50.4675
50.4675
50.4676
50.4676
50.4676
50.4676
50.4677
50.4677
50.4677
50.4677
50.4678
50.4678
50.4679
50.468
50.4681
50.4683
50.4685
50.4688
50.4693
50.4698
50.4704
50.4713
50.4723
50.4736
50.4751
50.4769
50.479
50.4814
50.4842
50.4872
50.4904
50.4939
50.4974
50.501
50.5045
50.5077
50.5106
50.5129
50.5147
50.5158
50.5162
50.5159
50.5149
50.5132
50.511
50.5084
50.5056
50.5027
50.4998
50.4972
50.495
50.4932
50.4918
50.491
50.4906
50.4907
50.4911
50.4918
50.4927
50.4938
50.495
50.4962
50.4975
50.4987
50.4999
50.501
50.5021
50.5032
50.5042
50.5052
50.5061
50.507
50.5079
50.5088
50.5097
50.5105
50.5114
50.5122
50.513
50.5138
50.5146
50.5153
50.5161
50.5168
50.5175
50.5183
50.5189
50.5196
50.5202
50.5208
50.5214
50.522
50.5226
50.5231
50.5236
50.5242
50.5245
50.525
50.5245
50.5321
50.4575
50.4067
50.3708
50.3662
50.374
50.3975
50.4116
50.417
50.4187
50.4193
50.4197
50.4201
50.4205
50.4209
50.4215
50.422
50.4225
50.4231
50.4236
50.4242
50.4249
50.4255
50.4261
50.4268
50.4275
50.4281
50.4288
50.4295
50.4303
50.431
50.4318
50.4325
50.4333
50.4341
50.4349
50.4357
50.4366
50.4374
50.4384
50.4393
50.4403
50.4413
50.4423
50.4434
50.4445
50.4456
50.4466
50.4476
50.4485
50.4493
50.4498
50.45
50.4499
50.4495
50.4486
50.4473
50.4455
50.4434
50.4409
50.4381
50.4352
50.4322
50.4294
50.4267
50.4244
50.4225
50.4212
50.4204
50.4202
50.4207
50.4218
50.4234
50.4255
50.428
50.4308
50.4337
50.4368
50.44
50.4431
50.446
50.4488
50.4515
50.4538
50.456
50.4579
50.4596
50.461
50.4623
50.4633
50.4642
50.4649
50.4655
50.466
50.4664
50.4667
50.4669
50.4671
50.4672
50.4673
50.4674
50.4675
50.4675
50.4676
50.4676
50.4676
50.4676
50.4677
50.4677
50.4677
50.4677
50.4678
50.4678
50.4679
50.468
50.4681
50.4683
50.4685
50.4689
50.4693
50.4698
50.4704
50.4713
50.4723
50.4736
50.4751
50.4769
50.479
50.4815
50.4842
50.4872
50.4905
50.4939
50.4975
50.501
50.5045
50.5077
50.5106
50.5129
50.5147
50.5158
50.5162
50.5159
50.5149
50.5132
50.511
50.5084
50.5056
50.5027
50.4998
50.4972
50.495
50.4932
50.4918
50.491
50.4906
50.4907
50.4911
50.4918
50.4927
50.4938
50.495
50.4962
50.4975
50.4987
50.4999
50.501
50.5021
50.5032
50.5042
50.5052
50.5061
50.507
50.5079
50.5088
50.5097
50.5106
50.5114
50.5122
50.513
50.5138
50.5146
50.5154
50.5161
50.5168
50.5175
50.5183
50.5189
50.5196
50.5202
50.5208
50.5214
50.522
50.5226
50.5231
50.5236
50.5242
50.5245
50.5249
50.5247
50.528
50.4096
50.413
50.4164
50.418
50.4186
50.4192
50.4196
50.4193
50.4191
50.4193
50.4196
50.42
50.4204
50.4209
50.4214
50.422
50.4225
50.4231
50.4236
50.4242
50.4249
50.4255
50.4261
50.4268
50.4275
50.4281
50.4288
50.4295
50.4303
50.431
50.4318
50.4325
50.4333
50.4341
50.4349
50.4357
50.4366
50.4374
50.4384
50.4393
50.4403
50.4413
50.4423
50.4434
50.4445
50.4456
50.4466
50.4476
50.4485
50.4493
50.4498
50.45
50.4499
50.4495
50.4486
50.4473
50.4455
50.4434
50.4409
50.4381
50.4352
50.4322
50.4294
50.4267
50.4244
50.4225
50.4212
50.4204
50.4202
50.4207
50.4218
50.4234
50.4255
50.428
50.4308
50.4337
50.4368
50.44
50.4431
50.446
50.4488
50.4515
50.4538
50.456
50.4579
50.4596
50.461
50.4623
50.4633
50.4642
50.4649
50.4655
50.466
50.4664
50.4667
50.4669
50.4671
50.4672
50.4673
50.4674
50.4675
50.4675
50.4676
50.4676
50.4676
50.4676
50.4677
50.4677
50.4677
50.4677
50.4678
50.4678
50.4679
50.468
50.4681
50.4683
50.4685
50.4689
50.4693
50.4698
50.4704
50.4713
50.4723
50.4736
50.4751
50.4769
50.479
50.4815
50.4842
50.4872
50.4905
50.4939
50.4975
50.501
50.5045
50.5077
50.5106
50.5129
50.5147
50.5158
50.5162
50.5159
50.5149
50.5132
50.511
50.5084
50.5056
50.5027
50.4998
50.4972
50.495
50.4932
50.4918
50.491
50.4906
50.4907
50.4911
50.4918
50.4927
50.4938
50.495
50.4962
50.4975
50.4987
50.4999
50.501
50.5021
50.5032
50.5042
50.5052
50.5061
50.507
50.5079
50.5088
50.5097
50.5106
50.5114
50.5122
50.513
50.5138
50.5146
50.5154
50.5161
50.5168
50.5175
50.5183
50.5189
50.5196
50.5202
50.5208
50.5214
50.522
50.5226
50.5231
50.5236
50.5242
50.5246
50.525
50.5255
50.5257
50.3932
50.3842
50.3886
50.4016
50.4161
50.4215
50.4221
50.421
50.4197
50.4194
50.4196
50.42
50.4204
50.4209
50.4214
50.422
50.4225
50.4231
50.4236
50.4242
50.4249
50.4255
50.4261
50.4268
50.4275
50.4281
50.4288
50.4295
50.4303
50.431
50.4318
50.4325
50.4333
50.4341
50.4349
50.4357
50.4366
50.4374
50.4384
50.4393
50.4403
50.4413
50.4423
50.4434
50.4445
50.4456
50.4466
50.4476
50.4485
50.4493
50.4498
50.45
50.4499
50.4495
50.4486
50.4473
50.4455
50.4434
50.4409
50.4381
50.4352
50.4322
50.4294
50.4267
50.4244
50.4225
50.4212
50.4204
50.4202
50.4207
50.4218
50.4234
50.4255
50.428
50.4308
50.4337
50.4368
50.44
50.4431
50.446
50.4488
50.4515
50.4538
50.456
50.4579
50.4596
50.461
50.4623
50.4633
50.4642
50.4649
50.4655
50.466
50.4664
50.4667
50.4669
50.4671
50.4672
50.4673
50.4674
50.4675
50.4675
50.4676
50.4676
50.4676
50.4676
50.4677
50.4677
50.4677
50.4677
50.4678
50.4678
50.4679
50.468
50.4681
50.4683
50.4685
50.4689
50.4693
50.4698
50.4704
50.4713
50.4723
50.4736
50.4751
50.4769
50.479
50.4815
50.4842
50.4872
50.4905
50.4939
50.4975
50.501
50.5045
50.5077
50.5106
50.5129
50.5147
50.5158
50.5162
50.5159
50.5149
50.5132
50.511
50.5084
50.5056
50.5027
50.4998
50.4972
50.495
50.4932
50.4918
50.491
50.4906
50.4907
50.4911
50.4918
50.4927
50.4938
50.495
50.4962
50.4975
50.4987
50.4999
50.501
50.5021
50.5032
50.5042
50.5052
50.5061
50.507
50.5079
50.5088
50.5097
50.5106
50.5114
50.5122
50.513
50.5138
50.5146
50.5154
50.5161
50.5168
50.5175
50.5183
50.5189
50.5196
50.5202
50.5208
50.5214
50.522
50.5226
50.5231
50.5236
50.5242
50.5246
50.5251
50.5259
50.5253
50.4831
50.5162
50.378
50.2204
50.2157
50.2885
50.371
50.4039
50.4148
50.4181
50.4193
50.4199
50.4204
50.4209
50.4214
50.422
50.4225
50.4231
50.4236
50.4242
50.4248
50.4255
50.4261
50.4268
50.4274
50.4281
50.4288
50.4295
50.4303
50.431
50.4317
50.4325
50.4333
50.4341
50.4349
50.4357
50.4366
50.4374
50.4384
50.4393
50.4403
50.4413
50.4423
50.4434
50.4445
50.4456
50.4466
50.4476
50.4485
50.4493
50.4498
50.45
50.4499
50.4495
50.4486
50.4473
50.4455
50.4434
50.4409
50.4381
50.4352
50.4322
50.4294
50.4267
50.4244
50.4225
50.4211
50.4204
50.4202
50.4207
50.4218
50.4234
50.4255
50.428
50.4307
50.4337
50.4368
50.44
50.4431
50.446
50.4488
50.4515
50.4538
50.456
50.4579
50.4596
50.461
50.4623
50.4633
50.4642
50.4649
50.4655
50.466
50.4664
50.4667
50.4669
50.4671
50.4672
50.4673
50.4674
50.4675
50.4675
50.4676
50.4676
50.4676
50.4676
50.4677
50.4677
50.4677
50.4677
50.4678
50.4678
50.4679
50.468
50.4681
50.4683
50.4685
50.4688
50.4693
50.4698
50.4704
50.4713
50.4723
50.4736
50.4751
50.4769
50.479
50.4814
50.4842
50.4872
50.4904
50.4939
50.4974
50.501
50.5045
50.5077
50.5106
50.5129
50.5147
50.5158
50.5162
50.5159
50.5149
50.5132
50.511
50.5084
50.5056
50.5027
50.4998
50.4972
50.495
50.4932
50.4918
50.491
50.4906
50.4907
50.4911
50.4918
50.4927
50.4938
50.495
50.4962
50.4975
50.4987
50.4999
50.501
50.5021
50.5032
50.5042
50.5052
50.5061
50.507
50.5079
50.5088
50.5097
50.5105
50.5114
50.5122
50.513
50.5138
50.5146
50.5153
50.5161
50.5168
50.5175
50.5183
50.5189
50.5196
50.5202
50.5208
50.5214
50.522
50.5226
50.5231
50.5236
50.5241
50.5246
50.5251
50.526
50.5253
50.4947
50.4819
50.4767
50.4759
50.4737
50.4687
50.4618
50.4538
50.4452
50.4361
50.4269
50.4177
50.4085
50.3997
50.3913
50.3835
50.3763
50.3707
50.3667
50.365
50.5042
50.5007
50.5011
50.5024
50.5011
50.4973
50.4912
50.4842
50.4769
50.4692
50.4611
50.4532
50.4455
50.4381
50.4307
50.4238
50.4176
50.4126
50.4081
50.4047
50.5265
50.5265
50.5254
50.5234
50.5206
50.517
50.5126
50.5075
50.5021
50.4971
50.4936
50.4909
50.4865
50.4799
50.4723
50.4642
50.4563
50.4492
50.4414
50.4336
50.538
50.5419
50.5422
50.5411
50.5413
50.545
50.5547
50.5618
50.563
50.5576
50.5441
50.5224
50.4988
50.4756
50.457
50.4525
50.4586
50.4739
50.48
50.499
50.5418
50.5493
50.5505
50.5495
50.5498
50.5509
50.5529
50.5537
50.5504
50.5354
50.4875
50.3565
50.0961
49.8011
49.6537
49.621
49.6917
49.8481
49.9797
50.1763
50.4826
50.5243
50.3959
50.2243
50.2115
50.276
50.3641
50.4013
50.414
50.418
50.4194
50.4202
50.4208
50.4215
50.4222
50.4231
50.4241
50.4252
50.4265
50.4279
50.4296
50.4316
50.4338
50.4363
50.4391
50.4422
50.4456
50.4493
50.4532
50.4573
50.4615
50.4657
50.4698
50.4736
50.4772
50.4803
50.4829
50.4848
50.4861
50.4867
50.4867
50.4861
50.4849
50.4834
50.4817
50.4798
50.4779
50.4763
50.4748
50.4736
50.4728
50.4723
50.472
50.472
50.4719
50.4719
50.4717
50.4714
50.4708
50.4699
50.4688
50.4674
50.466
50.4645
50.4629
50.4616
50.4605
50.4598
50.4595
50.4597
50.4604
50.4617
50.4635
50.4657
50.4685
50.4715
50.4749
50.4784
50.4821
50.4859
50.4896
50.4932
50.4966
50.4999
50.503
50.5058
50.5084
50.5108
50.513
50.5148
50.5166
50.5181
50.5194
50.5206
50.5216
50.5226
50.5233
50.524
50.5237
50.5312
50.4
50.3948
50.3955
50.4005
50.4128
50.42
50.4215
50.4212
50.4199
50.4196
50.4198
50.4203
50.4208
50.4215
50.4223
50.4231
50.4241
50.4252
50.4265
50.428
50.4297
50.4316
50.4338
50.4363
50.4391
50.4422
50.4456
50.4493
50.4532
50.4573
50.4615
50.4657
50.4698
50.4737
50.4772
50.4803
50.4829
50.4848
50.4861
50.4867
50.4867
50.4861
50.4849
50.4834
50.4817
50.4798
50.4779
50.4763
50.4748
50.4737
50.4728
50.4723
50.4721
50.472
50.4719
50.4719
50.4717
50.4714
50.4708
50.4699
50.4688
50.4674
50.466
50.4645
50.4629
50.4616
50.4605
50.4598
50.4595
50.4597
50.4604
50.4617
50.4635
50.4657
50.4685
50.4715
50.4749
50.4785
50.4821
50.4859
50.4896
50.4932
50.4966
50.4999
50.503
50.5058
50.5084
50.5108
50.513
50.5148
50.5166
50.5181
50.5194
50.5206
50.5216
50.5226
50.5233
50.524
50.5239
50.5272
50.4092
50.4132
50.416
50.4173
50.418
50.4189
50.4194
50.4195
50.4192
50.4194
50.4197
50.4203
50.4208
50.4215
50.4223
50.4231
50.4241
50.4252
50.4265
50.428
50.4297
50.4316
50.4338
50.4363
50.4391
50.4422
50.4456
50.4493
50.4532
50.4573
50.4615
50.4657
50.4698
50.4737
50.4772
50.4803
50.4829
50.4848
50.4861
50.4867
50.4867
50.4861
50.4849
50.4834
50.4817
50.4798
50.4779
50.4763
50.4748
50.4737
50.4728
50.4723
50.4721
50.472
50.4719
50.4719
50.4717
50.4714
50.4708
50.4699
50.4688
50.4674
50.466
50.4645
50.4629
50.4616
50.4605
50.4598
50.4595
50.4597
50.4604
50.4617
50.4635
50.4657
50.4685
50.4715
50.4749
50.4785
50.4821
50.4859
50.4896
50.4932
50.4966
50.4999
50.503
50.5058
50.5084
50.5108
50.513
50.5148
50.5166
50.5181
50.5194
50.5206
50.5216
50.5226
50.5234
50.5241
50.5248
50.5251
50.4562
50.4124
50.3768
50.3713
50.3775
50.3984
50.4119
50.4171
50.4188
50.4195
50.4199
50.4203
50.4209
50.4215
50.4223
50.4231
50.4241
50.4252
50.4265
50.428
50.4297
50.4316
50.4338
50.4363
50.4391
50.4422
50.4456
50.4493
50.4532
50.4573
50.4615
50.4657
50.4698
50.4737
50.4772
50.4803
50.4829
50.4848
50.4861
50.4867
50.4867
50.4861
50.4849
50.4834
50.4817
50.4798
50.4779
50.4763
50.4748
50.4737
50.4728
50.4723
50.4721
50.472
50.4719
50.4719
50.4717
50.4714
50.4708
50.4699
50.4688
50.4674
50.466
50.4645
50.4629
50.4616
50.4605
50.4598
50.4595
50.4597
50.4604
50.4617
50.4635
50.4657
50.4685
50.4715
50.4749
50.4785
50.4821
50.4859
50.4896
50.4932
50.4966
50.4999
50.503
50.5058
50.5084
50.5108
50.513
50.5148
50.5166
50.5181
50.5194
50.5206
50.5216
50.5226
50.5234
50.5242
50.5253
50.5249
50.3496
50.5509
50.6422
50.6484
50.5976
50.5018
50.4508
50.4298
50.4225
50.4204
50.4201
50.4204
50.4209
50.4215
50.4223
50.4231
50.4241
50.4252
50.4265
50.4279
50.4296
50.4316
50.4338
50.4363
50.4391
50.4422
50.4456
50.4493
50.4532
50.4573
50.4615
50.4657
50.4698
50.4736
50.4772
50.4803
50.4829
50.4848
50.4861
50.4867
50.4867
50.4861
50.4849
50.4834
50.4817
50.4798
50.4779
50.4763
50.4748
50.4736
50.4728
50.4723
50.472
50.472
50.4719
50.4719
50.4717
50.4714
50.4708
50.4699
50.4688
50.4674
50.466
50.4645
50.4629
50.4616
50.4605
50.4598
50.4595
50.4597
50.4604
50.4617
50.4635
50.4657
50.4685
50.4715
50.4749
50.4784
50.4821
50.4859
50.4896
50.4932
50.4966
50.4999
50.503
50.5058
50.5084
50.5108
50.513
50.5148
50.5166
50.5181
50.5194
50.5206
50.5217
50.5226
50.5234
50.5242
50.5254
50.5249
50.4946
50.4817
50.4766
50.4758
50.4736
50.4687
50.4618
50.4538
50.4452
50.4363
50.4271
50.4179
50.4089
50.4002
50.3919
50.3841
50.3772
50.3718
50.368
50.3664
50.504
50.5005
50.5011
50.5023
50.5013
50.4974
50.4916
50.4846
50.4776
50.4699
50.4623
50.4545
50.4474
50.4401
50.4336
50.4275
50.422
50.4172
50.4131
50.4095
50.526
50.5261
50.5251
50.5231
50.5203
50.5168
50.5123
50.5072
50.5017
50.4965
50.4926
50.49
50.4862
50.48
50.4728
50.4646
50.4565
50.4491
50.441
50.433
50.5374
50.5414
50.5417
50.5406
50.5407
50.544
50.5533
50.56
50.5609
50.5554
50.5417
50.5196
50.4955
50.4722
50.4534
50.449
50.4552
50.471
50.4776
50.4973
50.5412
50.5487
50.55
50.549
50.5492
50.5503
50.5524
50.5533
50.5501
50.5351
50.4872
50.3573
50.1044
49.8223
49.6812
49.6422
49.7043
49.8553
49.9854
50.1807
50.483
50.5115
50.3701
50.2224
50.2206
50.2945
50.3735
50.4047
50.415
50.4182
50.4193
50.4199
50.4205
50.4209
50.4214
50.422
50.4225
50.4231
50.4237
50.4243
50.4249
50.4255
50.4262
50.4268
50.4275
50.4282
50.4289
50.4296
50.4303
50.4311
50.4318
50.4326
50.4333
50.4341
50.4349
50.4357
50.4366
50.4374
50.4383
50.4392
50.4401
50.4411
50.4421
50.4431
50.4441
50.4451
50.446
50.4469
50.4477
50.4484
50.4488
50.449
50.4489
50.4485
50.4476
50.4463
50.4447
50.4427
50.4403
50.4377
50.435
50.4322
50.4296
50.4271
50.4249
50.4232
50.422
50.4213
50.4212
50.4217
50.4228
50.4244
50.4264
50.4289
50.4316
50.4345
50.4375
50.4406
50.4436
50.4465
50.4492
50.4518
50.4541
50.4562
50.4581
50.4597
50.4611
50.4624
50.4634
50.4642
50.4649
50.4655
50.466
50.4664
50.4667
50.4669
50.4671
50.4672
50.4673
50.4674
50.4675
50.4675
50.4676
50.4676
50.4676
50.4676
50.4677
50.4677
50.4677
50.4677
50.4678
50.4678
50.4679
50.468
50.4681
50.4683
50.4686
50.4689
50.4693
50.4698
50.4705
50.4714
50.4725
50.4738
50.4754
50.4773
50.4795
50.482
50.4849
50.4881
50.4916
50.4952
50.499
50.5028
50.5066
50.5101
50.5132
50.5158
50.5179
50.5191
50.5196
50.5194
50.5183
50.5166
50.5142
50.5113
50.5082
50.5049
50.5017
50.4987
50.496
50.4939
50.4922
50.4911
50.4905
50.4904
50.4907
50.4913
50.4922
50.4933
50.4945
50.4957
50.497
50.4982
50.4994
50.5006
50.5017
50.5028
50.5038
50.5048
50.5058
50.5067
50.5076
50.5085
50.5094
50.5102
50.5111
50.5119
50.5127
50.5135
50.5143
50.515
50.5158
50.5166
50.5173
50.518
50.5187
50.5194
50.5201
50.5207
50.5213
50.5219
50.5226
50.5231
50.5237
50.5242
50.5247
50.5253
50.5262
50.5255
50.3985
50.3948
50.3975
50.4033
50.4146
50.4202
50.4212
50.4207
50.4196
50.4194
50.4196
50.42
50.4205
50.4209
50.4215
50.422
50.4225
50.4231
50.4237
50.4243
50.4249
50.4255
50.4262
50.4268
50.4275
50.4282
50.4289
50.4296
50.4303
50.4311
50.4318
50.4326
50.4333
50.4341
50.4349
50.4357
50.4366
50.4374
50.4383
50.4392
50.4401
50.4411
50.4421
50.4431
50.4441
50.4451
50.446
50.4469
50.4477
50.4484
50.4488
50.449
50.4489
50.4485
50.4476
50.4463
50.4447
50.4427
50.4403
50.4377
50.435
50.4322
50.4296
50.4271
50.4249
50.4232
50.422
50.4213
50.4212
50.4217
50.4228
50.4244
50.4264
50.4289
50.4316
50.4345
50.4375
50.4406
50.4436
50.4465
50.4492
50.4518
50.4541
50.4562
50.4581
50.4597
50.4612
50.4624
50.4634
50.4642
50.465
50.4655
50.466
50.4664
50.4667
50.4669
50.4671
50.4672
50.4673
50.4674
50.4675
50.4675
50.4676
50.4676
50.4676
50.4677
50.4677
50.4677
50.4677
50.4677
50.4678
50.4678
50.4679
50.468
50.4681
50.4683
50.4686
50.4689
50.4693
50.4698
50.4705
50.4714
50.4725
50.4738
50.4754
50.4773
50.4795
50.482
50.4849
50.4881
50.4916
50.4952
50.499
50.5029
50.5066
50.5101
50.5132
50.5159
50.5179
50.5191
50.5197
50.5194
50.5183
50.5166
50.5142
50.5113
50.5082
50.5049
50.5017
50.4987
50.496
50.4939
50.4922
50.4911
50.4905
50.4904
50.4907
50.4913
50.4922
50.4933
50.4945
50.4957
50.497
50.4982
50.4994
50.5006
50.5017
50.5028
50.5038
50.5048
50.5058
50.5067
50.5076
50.5085
50.5094
50.5102
50.5111
50.5119
50.5127
50.5135
50.5143
50.515
50.5158
50.5166
50.5173
50.518
50.5187
50.5194
50.5201
50.5207
50.5214
50.522
50.5225
50.5231
50.5237
50.5242
50.5247
50.5253
50.5261
50.5255
50.4079
50.4123
50.4158
50.4174
50.4181
50.4189
50.4193
50.4192
50.4191
50.4192
50.4196
50.42
50.4205
50.4209
50.4215
50.422
50.4225
50.4231
50.4237
50.4243
50.4249
50.4255
50.4262
50.4268
50.4275
50.4282
50.4289
50.4296
50.4303
50.4311
50.4318
50.4326
50.4333
50.4341
50.4349
50.4357
50.4366
50.4374
50.4383
50.4392
50.4401
50.4411
50.4421
50.4431
50.4441
50.4451
50.446
50.4469
50.4477
50.4484
50.4488
50.449
50.4489
50.4485
50.4476
50.4463
50.4447
50.4427
50.4403
50.4377
50.435
50.4322
50.4296
50.4271
50.4249
50.4232
50.422
50.4213
50.4212
50.4217
50.4228
50.4244
50.4264
50.4289
50.4316
50.4345
50.4375
50.4406
50.4436
50.4465
50.4492
50.4518
50.4541
50.4562
50.4581
50.4597
50.4612
50.4624
50.4634
50.4642
50.465
50.4655
50.466
50.4664
50.4667
50.4669
50.4671
50.4672
50.4673
50.4674
50.4675
50.4675
50.4676
50.4676
50.4676
50.4677
50.4677
50.4677
50.4677
50.4677
50.4678
50.4678
50.4679
50.468
50.4681
50.4683
50.4686
50.4689
50.4693
50.4698
50.4705
50.4714
50.4725
50.4738
50.4754
50.4773
50.4795
50.482
50.4849
50.4881
50.4916
50.4952
50.499
50.5029
50.5066
50.5101
50.5132
50.5159
50.5179
50.5191
50.5197
50.5194
50.5183
50.5166
50.5142
50.5113
50.5082
50.5049
50.5017
50.4987
50.496
50.4939
50.4922
50.4911
50.4905
50.4904
50.4907
50.4913
50.4922
50.4933
50.4945
50.4957
50.497
50.4982
50.4994
50.5006
50.5017
50.5028
50.5038
50.5048
50.5058
50.5067
50.5076
50.5085
50.5094
50.5102
50.5111
50.5119
50.5127
50.5135
50.5143
50.515
50.5158
50.5166
50.5173
50.518
50.5187
50.5194
50.5201
50.5207
50.5213
50.522
50.5225
50.5232
50.5236
50.5242
50.5247
50.5252
50.5257
50.5259
50.4529
50.409
50.3777
50.3742
50.3814
50.4015
50.4131
50.4174
50.4188
50.4194
50.4197
50.4201
50.4205
50.421
50.4215
50.422
50.4225
50.4231
50.4237
50.4243
50.4249
50.4255
50.4262
50.4268
50.4275
50.4282
50.4289
50.4296
50.4303
50.4311
50.4318
50.4326
50.4333
50.4341
50.4349
50.4357
50.4366
50.4374
50.4383
50.4392
50.4401
50.4411
50.4421
50.4431
50.4441
50.4451
50.446
50.4469
50.4477
50.4484
50.4488
50.449
50.4489
50.4485
50.4476
50.4463
50.4447
50.4427
50.4403
50.4377
50.435
50.4322
50.4296
50.4271
50.4249
50.4232
50.422
50.4213
50.4212
50.4217
50.4228
50.4244
50.4264
50.4289
50.4316
50.4345
50.4375
50.4406
50.4436
50.4465
50.4492
50.4518
50.4541
50.4562
50.4581
50.4597
50.4612
50.4624
50.4634
50.4642
50.465
50.4655
50.466
50.4664
50.4667
50.4669
50.4671
50.4672
50.4673
50.4674
50.4675
50.4675
50.4676
50.4676
50.4676
50.4677
50.4677
50.4677
50.4677
50.4677
50.4678
50.4678
50.4679
50.468
50.4681
50.4683
50.4686
50.4689
50.4693
50.4698
50.4705
50.4714
50.4725
50.4738
50.4754
50.4773
50.4795
50.482
50.4849
50.4881
50.4916
50.4952
50.499
50.5029
50.5066
50.5101
50.5132
50.5159
50.5179
50.5191
50.5197
50.5194
50.5183
50.5166
50.5142
50.5113
50.5082
50.5049
50.5017
50.4987
50.496
50.4939
50.4922
50.4911
50.4905
50.4904
50.4907
50.4913
50.4922
50.4933
50.4945
50.4957
50.497
50.4982
50.4994
50.5006
50.5017
50.5028
50.5038
50.5048
50.5058
50.5067
50.5076
50.5085
50.5094
50.5102
50.5111
50.5119
50.5127
50.5135
50.5143
50.515
50.5158
50.5166
50.5173
50.518
50.5187
50.5194
50.5201
50.5207
50.5214
50.522
50.5225
50.5231
50.5237
50.5242
50.5246
50.5251
50.5249
50.5282
50.3559
50.5538
50.6373
50.6393
50.5807
50.4904
50.4454
50.4276
50.4217
50.42
50.4198
50.4201
50.4205
50.4209
50.4215
50.422
50.4225
50.4231
50.4237
50.4243
50.4249
50.4255
50.4262
50.4268
50.4275
50.4282
50.4289
50.4296
50.4303
50.4311
50.4318
50.4326
50.4333
50.4341
50.4349
50.4357
50.4366
50.4374
50.4383
50.4392
50.4401
50.4411
50.4421
50.4431
50.4441
50.4451
50.446
50.4469
50.4477
50.4484
50.4488
50.449
50.4489
50.4485
50.4476
50.4463
50.4447
50.4427
50.4403
50.4377
50.435
50.4322
50.4296
50.4271
50.4249
50.4232
50.422
50.4213
50.4212
50.4217
50.4228
50.4244
50.4264
50.4289
50.4316
50.4345
50.4375
50.4406
50.4436
50.4465
50.4492