/*--------------------------------*- C++ -*----------------------------------*\
| =========                 |                                                 |
| \\      /  F ield         | OpenFOAM: The Open Source CFD Toolbox           |
|  \\    /   O peration     | Version:  3.0.x                                 |
|   \\  /    A nd           | Web:      www.OpenFOAM.org                      |
|    \\/     M anipulation  |                                                 |
\*---------------------------------------------------------------------------*/
FoamFile
{
    version     2.0;
    format      ascii;
    class       volVectorField;
    location    "0.239925";
    object      U;
}
// * * * * * * * * * * * * * * * * * * * * * * * * * * * * * * * * * * * * * //

dimensions      [0 1 -1 0 0 0 0];

internalField   nonuniform List<vector> 
13800
(
(57.8903 0.000142496 0)
(57.872 0.00012411 0)
(57.8513 0.000122699 0)
(57.8318 0.000124852 0)
(57.8129 0.000126646 0)
(57.7941 0.000128137 0)
(57.7753 0.000129387 0)
(57.7567 0.000130419 0)
(57.7383 0.000131272 0)
(57.7203 0.000131983 0)
(57.7026 0.000132583 0)
(57.6854 0.000133093 0)
(57.6686 0.00013353 0)
(57.6524 0.000133908 0)
(57.6367 0.000134239 0)
(57.6218 0.000134527 0)
(57.6075 0.000134786 0)
(57.5941 0.000134992 0)
(57.5814 0.000135193 0)
(57.5696 0.000135363 0)
(57.5587 0.000135512 0)
(57.5487 0.000135618 0)
(57.5396 0.000135781 0)
(57.5315 0.000135868 0)
(57.5244 0.000135948 0)
(57.5182 0.000136027 0)
(57.5129 0.000136092 0)
(57.5085 0.000136141 0)
(57.5049 0.000136188 0)
(57.5022 0.000136229 0)
(57.5002 0.000136246 0)
(57.4991 0.000136245 0)
(57.4986 0.000136311 0)
(57.4987 0.000136171 0)
(57.4994 0.000136107 0)
(57.5006 0.000136017 0)
(57.5022 0.000135827 0)
(57.5042 0.000135541 0)
(57.5064 0.000135124 0)
(57.5089 0.000134535 0)
(57.5115 0.000133724 0)
(57.5142 0.000132637 0)
(57.5169 0.000131211 0)
(57.5196 0.000129387 0)
(57.5222 0.000127104 0)
(57.5248 0.000124308 0)
(57.5273 0.000120958 0)
(57.5296 0.000117023 0)
(57.5317 0.000112494 0)
(57.5338 0.000107385 0)
(57.5357 0.000101731 0)
(57.5374 9.55907e-05 0)
(57.539 8.90449e-05 0)
(57.5405 8.21925e-05 0)
(57.5419 7.51455e-05 0)
(57.5432 6.8024e-05 0)
(57.5443 6.09495e-05 0)
(57.5455 5.40389e-05 0)
(57.5465 4.73989e-05 0)
(57.5475 4.11218e-05 0)
(57.5484 3.52815e-05 0)
(57.5493 2.99323e-05 0)
(57.5502 2.51076e-05 0)
(57.551 2.08216e-05 0)
(57.5518 1.70704e-05 0)
(57.5525 1.3835e-05 0)
(57.5533 1.10844e-05 0)
(57.554 8.77903e-06 0)
(57.5547 6.87363e-06 0)
(57.5554 5.32037e-06 0)
(57.556 4.07124e-06 0)
(57.5567 3.08004e-06 0)
(57.5573 2.3038e-06 0)
(57.5579 1.70373e-06 0)
(57.5585 1.24569e-06 0)
(57.5592 9.00265e-07 0)
(57.5598 6.42496e-07 0)
(57.5604 4.52179e-07 0)
(57.561 3.13811e-07 0)
(57.5616 2.15396e-07 0)
(57.5622 1.4697e-07 0)
(57.5628 1.00342e-07 0)
(57.5634 6.90523e-08 0)
(57.564 4.83256e-08 0)
(57.5646 3.47123e-08 0)
(57.5652 2.53297e-08 0)
(57.5658 2.04335e-08 0)
(57.5664 1.73826e-08 0)
(57.567 1.48306e-08 0)
(57.5676 1.84151e-08 0)
(57.5682 1.87521e-08 0)
(57.5688 1.73317e-08 0)
(57.5694 1.53447e-08 0)
(57.57 1.46399e-08 0)
(57.5706 1.54373e-08 0)
(57.5711 1.73524e-08 0)
(57.5717 1.93839e-08 0)
(57.5723 2.10299e-08 0)
(57.5729 2.22452e-08 0)
(57.5735 2.3165e-08 0)
(57.5741 2.39905e-08 0)
(57.5747 2.48321e-08 0)
(57.5754 2.57338e-08 0)
(57.576 2.66876e-08 0)
(57.5767 2.7699e-08 0)
(57.5773 2.87643e-08 0)
(57.5781 2.98735e-08 0)
(57.5788 3.10304e-08 0)
(57.5796 3.2219e-08 0)
(57.5804 3.34942e-08 0)
(57.5813 3.4811e-08 0)
(57.5822 3.62285e-08 0)
(57.5832 3.77592e-08 0)
(57.5842 3.94043e-08 0)
(57.5854 4.11825e-08 0)
(57.5866 4.31036e-08 0)
(57.588 4.51864e-08 0)
(57.5894 4.74325e-08 0)
(57.591 4.98224e-08 0)
(57.5927 5.23325e-08 0)
(57.5945 5.49327e-08 0)
(57.5965 5.75827e-08 0)
(57.5986 6.02429e-08 0)
(57.6009 6.28926e-08 0)
(57.6034 6.54912e-08 0)
(57.6061 6.80306e-08 0)
(57.6089 7.04787e-08 0)
(57.612 7.28201e-08 0)
(57.6153 7.50496e-08 0)
(57.6187 7.71618e-08 0)
(57.6224 7.92106e-08 0)
(57.6262 8.12414e-08 0)
(57.6303 8.3094e-08 0)
(57.6345 8.45636e-08 0)
(57.6389 8.53532e-08 0)
(57.6435 8.58784e-08 0)
(57.6483 8.65148e-08 0)
(57.6532 8.71117e-08 0)
(57.6582 8.72993e-08 0)
(57.6633 8.68799e-08 0)
(57.6684 8.58586e-08 0)
(57.6737 8.43341e-08 0)
(57.6789 8.23895e-08 0)
(57.6841 8.00084e-08 0)
(57.6893 7.70785e-08 0)
(57.6944 7.34913e-08 0)
(57.6994 6.92414e-08 0)
(57.7042 6.43379e-08 0)
(57.7088 5.88563e-08 0)
(57.7132 5.28527e-08 0)
(57.7173 4.64629e-08 0)
(57.7211 3.95053e-08 0)
(57.7246 3.21358e-08 0)
(57.7277 2.43617e-08 0)
(57.7304 1.65476e-08 0)
(57.7326 8.01304e-09 0)
(57.7344 -8.40138e-10 0)
(57.7357 -9.41142e-09 0)
(57.7364 -2.13074e-08 0)
(57.7367 -3.90278e-08 0)
(57.7364 -5.27758e-08 0)
(57.7356 -6.84246e-08 0)
(57.7341 -7.71518e-08 0)
(57.7321 -8.73415e-08 0)
(57.7295 -9.69475e-08 0)
(57.7264 -1.05749e-07 0)
(57.7228 -1.13682e-07 0)
(57.7187 -1.20745e-07 0)
(57.714 -1.26987e-07 0)
(57.7089 -1.32438e-07 0)
(57.7034 -1.37193e-07 0)
(57.6974 -1.41284e-07 0)
(57.6911 -1.44792e-07 0)
(57.6844 -1.4767e-07 0)
(57.6774 -1.49934e-07 0)
(57.6701 -1.5144e-07 0)
(57.6626 -1.52309e-07 0)
(57.6549 -1.52455e-07 0)
(57.6471 -1.52033e-07 0)
(57.6391 -1.50984e-07 0)
(57.6311 -1.49356e-07 0)
(57.623 -1.47022e-07 0)
(57.6149 -1.44009e-07 0)
(57.6069 -1.40362e-07 0)
(57.5989 -1.36345e-07 0)
(57.5911 -1.31835e-07 0)
(57.5834 -1.27053e-07 0)
(57.5759 -1.21232e-07 0)
(57.5686 -1.12324e-07 0)
(57.5614 -9.00382e-08 0)
(57.5546 2.31752e-08 0)
(57.5479 5.2296e-07 0)
(57.5415 2.84904e-06 0)
(57.535 1.39845e-05 0)
(57.5273 6.7481e-05 0)
(57.5127 0.000323715 0)
(57.4654 0.00154438 0)
(57.2668 0.00716391 0)
(56.637 0.0364947 0)
(50.7185 0.143823 0)
(57.8942 0.000222475 0)
(57.8797 0.000162183 0)
(57.863 0.000149522 0)
(57.8474 0.0001476 0)
(57.8324 0.000145829 0)
(57.8175 0.000144397 0)
(57.8026 0.000143321 0)
(57.7879 0.000142455 0)
(57.7734 0.000141735 0)
(57.7593 0.00014113 0)
(57.7455 0.000140621 0)
(57.7322 0.00014019 0)
(57.7193 0.000139824 0)
(57.7069 0.000139513 0)
(57.6952 0.00013925 0)
(57.6841 0.000139025 0)
(57.6738 0.000138844 0)
(57.6642 0.000138651 0)
(57.6555 0.00013852 0)
(57.6476 0.000138395 0)
(57.6405 0.000138285 0)
(57.6344 0.000138143 0)
(57.6293 0.000138149 0)
(57.6251 0.000138043 0)
(57.6219 0.000137967 0)
(57.6196 0.000137912 0)
(57.6182 0.000137859 0)
(57.6177 0.000137799 0)
(57.618 0.000137756 0)
(57.6191 0.000137726 0)
(57.6211 0.000137668 0)
(57.6238 0.000137596 0)
(57.6272 0.000137673 0)
(57.6312 0.000137403 0)
(57.6358 0.000137293 0)
(57.6409 0.000137192 0)
(57.6464 0.000136966 0)
(57.6523 0.000136646 0)
(57.6584 0.000136197 0)
(57.6647 0.000135573 0)
(57.6711 0.000134724 0)
(57.6776 0.000133594 0)
(57.6841 0.00013212 0)
(57.6905 0.00013024 0)
(57.6968 0.000127892 0)
(57.703 0.000125024 0)
(57.7089 0.000121591 0)
(57.7146 0.000117566 0)
(57.7201 0.000112942 0)
(57.7253 0.000107732 0)
(57.7301 0.000101976 0)
(57.7347 9.57351e-05 0)
(57.7389 8.90927e-05 0)
(57.7429 8.21507e-05 0)
(57.7465 7.5024e-05 0)
(57.7498 6.78344e-05 0)
(57.7528 6.07049e-05 0)
(57.7556 5.37532e-05 0)
(57.7581 4.70856e-05 0)
(57.7603 4.07941e-05 0)
(57.7624 3.49514e-05 0)
(57.7642 2.96097e-05 0)
(57.7658 2.48008e-05 0)
(57.7673 2.05367e-05 0)
(57.7686 1.68116e-05 0)
(57.7698 1.36048e-05 0)
(57.7709 1.08835e-05 0)
(57.7719 8.6068e-06 0)
(57.7728 6.7286e-06 0)
(57.7736 5.20036e-06 0)
(57.7744 3.97373e-06 0)
(57.7751 3.00242e-06 0)
(57.7758 2.2436e-06 0)
(57.7765 1.65874e-06 0)
(57.7772 1.21418e-06 0)
(57.7778 8.81153e-07 0)
(57.7784 6.35879e-07 0)
(57.7791 4.58069e-07 0)
(57.7797 3.30134e-07 0)
(57.7803 2.38244e-07 0)
(57.7809 1.72358e-07 0)
(57.7815 1.25459e-07 0)
(57.7821 9.25424e-08 0)
(57.7827 6.98407e-08 0)
(57.7833 5.43759e-08 0)
(57.7839 4.29898e-08 0)
(57.7845 3.73946e-08 0)
(57.7851 3.37407e-08 0)
(57.7857 3.03404e-08 0)
(57.7863 3.51847e-08 0)
(57.7869 3.30921e-08 0)
(57.7874 2.95156e-08 0)
(57.788 2.56323e-08 0)
(57.7886 2.40477e-08 0)
(57.7892 2.43751e-08 0)
(57.7898 2.59867e-08 0)
(57.7903 2.7577e-08 0)
(57.7909 2.86523e-08 0)
(57.7915 2.91997e-08 0)
(57.7921 2.94414e-08 0)
(57.7927 2.96171e-08 0)
(57.7933 2.98409e-08 0)
(57.7939 3.0171e-08 0)
(57.7946 3.05985e-08 0)
(57.7952 3.11421e-08 0)
(57.7959 3.17992e-08 0)
(57.7966 3.25724e-08 0)
(57.7973 3.347e-08 0)
(57.7981 3.44878e-08 0)
(57.7989 3.56736e-08 0)
(57.7998 3.70381e-08 0)
(57.8007 3.86424e-08 0)
(57.8017 4.04971e-08 0)
(57.8028 4.26038e-08 0)
(57.8039 4.50077e-08 0)
(57.8051 4.77091e-08 0)
(57.8065 5.07283e-08 0)
(57.8079 5.4064e-08 0)
(57.8095 5.76916e-08 0)
(57.8112 6.15903e-08 0)
(57.813 6.57366e-08 0)
(57.815 7.01057e-08 0)
(57.8171 7.46604e-08 0)
(57.8194 7.93556e-08 0)
(57.8219 8.41645e-08 0)
(57.8245 8.90585e-08 0)
(57.8274 9.39924e-08 0)
(57.8305 9.89464e-08 0)
(57.8337 1.03899e-07 0)
(57.8372 1.08825e-07 0)
(57.8408 1.13785e-07 0)
(57.8447 1.18813e-07 0)
(57.8487 1.23642e-07 0)
(57.8529 1.27982e-07 0)
(57.8574 1.3158e-07 0)
(57.8619 1.34825e-07 0)
(57.8667 1.38222e-07 0)
(57.8716 1.41631e-07 0)
(57.8766 1.4448e-07 0)
(57.8817 1.46445e-07 0)
(57.8868 1.47563e-07 0)
(57.8921 1.4796e-07 0)
(57.8973 1.47649e-07 0)
(57.9025 1.46586e-07 0)
(57.9077 1.44669e-07 0)
(57.9128 1.41793e-07 0)
(57.9177 1.37865e-07 0)
(57.9226 1.32875e-07 0)
(57.9272 1.26886e-07 0)
(57.9316 1.1995e-07 0)
(57.9357 1.12004e-07 0)
(57.9395 1.03473e-07 0)
(57.9429 9.41329e-08 0)
(57.946 8.41753e-08 0)
(57.9487 7.35382e-08 0)
(57.9509 6.21942e-08 0)
(57.9527 5.04243e-08 0)
(57.954 3.83886e-08 0)
(57.9547 2.6117e-08 0)
(57.955 1.25288e-08 0)
(57.9547 2.61611e-09 0)
(57.9538 -2.85014e-08 0)
(57.9524 -3.84963e-08 0)
(57.9504 -5.35051e-08 0)
(57.9478 -6.88455e-08 0)
(57.9447 -8.35347e-08 0)
(57.941 -9.73909e-08 0)
(57.9369 -1.10332e-07 0)
(57.9323 -1.2237e-07 0)
(57.9271 -1.3343e-07 0)
(57.9216 -1.4359e-07 0)
(57.9156 -1.52808e-07 0)
(57.9093 -1.61162e-07 0)
(57.9026 -1.68544e-07 0)
(57.8956 -1.75077e-07 0)
(57.8883 -1.80482e-07 0)
(57.8808 -1.85031e-07 0)
(57.8731 -1.88363e-07 0)
(57.8652 -1.90617e-07 0)
(57.8572 -1.91652e-07 0)
(57.8492 -1.91554e-07 0)
(57.8411 -1.90677e-07 0)
(57.833 -1.88954e-07 0)
(57.825 -1.86475e-07 0)
(57.817 -1.83442e-07 0)
(57.8092 -1.78678e-07 0)
(57.8015 -1.73455e-07 0)
(57.794 -1.64356e-07 0)
(57.7866 -1.4235e-07 0)
(57.7795 -6.12671e-08 0)
(57.7726 2.77947e-07 0)
(57.766 1.92681e-06 0)
(57.7595 9.81947e-06 0)
(57.753 4.774e-05 0)
(57.7453 0.000229949 0)
(57.7308 0.00110269 0)
(57.6836 0.00526085 0)
(57.4859 0.024361 0)
(56.8575 0.121529 0)
(51.2614 0.452687 0)
(57.8942 0.000163249 0)
(57.8797 0.000113637 0)
(57.863 0.000107286 0)
(57.8474 0.000110543 0)
(57.8324 0.000111653 0)
(57.8175 0.0001121 0)
(57.8026 0.000112493 0)
(57.7879 0.000112819 0)
(57.7734 0.000113081 0)
(57.7593 0.0001133 0)
(57.7455 0.000113489 0)
(57.7322 0.000113654 0)
(57.7193 0.0001138 0)
(57.707 0.000113933 0)
(57.6952 0.000114053 0)
(57.6842 0.000114162 0)
(57.6738 0.000114272 0)
(57.6643 0.00011434 0)
(57.6555 0.000114433 0)
(57.6476 0.000114507 0)
(57.6406 0.000114573 0)
(57.6345 0.000114596 0)
(57.6294 0.000114726 0)
(57.6252 0.000114744 0)
(57.6219 0.000114784 0)
(57.6196 0.000114826 0)
(57.6183 0.00011486 0)
(57.6177 0.00011488 0)
(57.6181 0.000114906 0)
(57.6192 0.00011494 0)
(57.6212 0.000114943 0)
(57.6239 0.000114922 0)
(57.6273 0.000115029 0)
(57.6314 0.000114853 0)
(57.636 0.000114781 0)
(57.6411 0.000114728 0)
(57.6466 0.000114565 0)
(57.6524 0.00011432 0)
(57.6585 0.000113962 0)
(57.6649 0.000113454 0)
(57.6713 0.000112755 0)
(57.6778 0.000111815 0)
(57.6843 0.000110584 0)
(57.6907 0.000109009 0)
(57.697 0.000107038 0)
(57.7032 0.000104628 0)
(57.7092 0.000101743 0)
(57.7149 9.83579e-05 0)
(57.7203 9.44694e-05 0)
(57.7255 9.00906e-05 0)
(57.7304 8.52539e-05 0)
(57.7349 8.00117e-05 0)
(57.7392 7.44356e-05 0)
(57.7431 6.86116e-05 0)
(57.7467 6.26361e-05 0)
(57.75 5.66117e-05 0)
(57.7531 5.06416e-05 0)
(57.7558 4.48242e-05 0)
(57.7583 3.92481e-05 0)
(57.7605 3.39901e-05 0)
(57.7625 2.91101e-05 0)
(57.7643 2.46513e-05 0)
(57.766 2.06397e-05 0)
(57.7674 1.70847e-05 0)
(57.7687 1.39807e-05 0)
(57.7699 1.131e-05 0)
(57.771 9.04492e-06 0)
(57.772 7.15097e-06 0)
(57.7729 5.58942e-06 0)
(57.7737 4.31964e-06 0)
(57.7745 3.30117e-06 0)
(57.7753 2.49527e-06 0)
(57.776 1.86591e-06 0)
(57.7766 1.38056e-06 0)
(57.7773 1.01077e-06 0)
(57.7779 7.3221e-07 0)
(57.7786 5.24756e-07 0)
(57.7792 3.71713e-07 0)
(57.7798 2.59699e-07 0)
(57.7804 1.78907e-07 0)
(57.781 1.22128e-07 0)
(57.7816 8.30053e-08 0)
(57.7822 5.64365e-08 0)
(57.7828 3.86289e-08 0)
(57.7834 2.67624e-08 0)
(57.784 1.81742e-08 0)
(57.7846 1.42601e-08 0)
(57.7852 1.19718e-08 0)
(57.7858 9.72438e-09 0)
(57.7864 1.27096e-08 0)
(57.787 1.09686e-08 0)
(57.7876 9.23207e-09 0)
(57.7881 6.93916e-09 0)
(57.7887 6.21997e-09 0)
(57.7893 6.60608e-09 0)
(57.7899 7.86155e-09 0)
(57.7905 9.14991e-09 0)
(57.791 1.01188e-08 0)
(57.7916 1.07231e-08 0)
(57.7922 1.10818e-08 0)
(57.7928 1.13542e-08 0)
(57.7934 1.1621e-08 0)
(57.7941 1.19127e-08 0)
(57.7947 1.22349e-08 0)
(57.7954 1.25915e-08 0)
(57.796 1.29868e-08 0)
(57.7967 1.34218e-08 0)
(57.7975 1.38961e-08 0)
(57.7982 1.4413e-08 0)
(57.7991 1.50201e-08 0)
(57.7999 1.56993e-08 0)
(57.8008 1.64982e-08 0)
(57.8018 1.74364e-08 0)
(57.8029 1.85252e-08 0)
(57.804 1.97811e-08 0)
(57.8053 2.1218e-08 0)
(57.8066 2.28563e-08 0)
(57.808 2.46965e-08 0)
(57.8096 2.67257e-08 0)
(57.8113 2.8944e-08 0)
(57.8131 3.13448e-08 0)
(57.8151 3.3925e-08 0)
(57.8172 3.66696e-08 0)
(57.8195 3.95705e-08 0)
(57.822 4.26103e-08 0)
(57.8247 4.5786e-08 0)
(57.8275 4.90657e-08 0)
(57.8306 5.24223e-08 0)
(57.8338 5.58362e-08 0)
(57.8373 5.92644e-08 0)
(57.8409 6.27229e-08 0)
(57.8448 6.62149e-08 0)
(57.8488 6.95533e-08 0)
(57.8531 7.25303e-08 0)
(57.8575 7.49882e-08 0)
(57.8621 7.71883e-08 0)
(57.8668 7.95525e-08 0)
(57.8717 8.18979e-08 0)
(57.8767 8.38099e-08 0)
(57.8818 8.51115e-08 0)
(57.887 8.58269e-08 0)
(57.8922 8.60194e-08 0)
(57.8974 8.57171e-08 0)
(57.9026 8.48981e-08 0)
(57.9078 8.34441e-08 0)
(57.9129 8.12682e-08 0)
(57.9179 7.83085e-08 0)
(57.9227 7.45574e-08 0)
(57.9273 7.00847e-08 0)
(57.9317 6.4895e-08 0)
(57.9358 5.90135e-08 0)
(57.9396 5.2535e-08 0)
(57.9431 4.5324e-08 0)
(57.9461 3.75623e-08 0)
(57.9488 2.96352e-08 0)
(57.951 2.01301e-08 0)
(57.9528 1.14683e-08 0)
(57.9541 -5.82826e-10 0)
(57.9549 -9.64688e-09 0)
(57.9551 -1.72452e-08 0)
(57.9548 -3.28243e-09 0)
(57.954 -4.53344e-08 0)
(57.9525 -4.53147e-08 0)
(57.9505 -5.30172e-08 0)
(57.9479 -6.27916e-08 0)
(57.9448 -7.26719e-08 0)
(57.9412 -8.23312e-08 0)
(57.937 -9.16394e-08 0)
(57.9324 -1.00584e-07 0)
(57.9273 -1.08985e-07 0)
(57.9217 -1.1683e-07 0)
(57.9157 -1.24025e-07 0)
(57.9094 -1.30517e-07 0)
(57.9027 -1.36229e-07 0)
(57.8957 -1.41233e-07 0)
(57.8884 -1.4521e-07 0)
(57.8809 -1.4861e-07 0)
(57.8732 -1.50978e-07 0)
(57.8653 -1.52724e-07 0)
(57.8574 -1.5369e-07 0)
(57.8493 -1.53907e-07 0)
(57.8412 -1.53558e-07 0)
(57.8332 -1.52091e-07 0)
(57.8251 -1.49962e-07 0)
(57.8172 -1.47567e-07 0)
(57.8093 -1.43398e-07 0)
(57.8016 -1.39428e-07 0)
(57.7941 -1.29072e-07 0)
(57.7867 -9.51082e-08 0)
(57.7796 5.63504e-08 0)
(57.7727 7.28695e-07 0)
(57.7661 3.97352e-06 0)
(57.7596 1.96028e-05 0)
(57.7532 9.4814e-05 0)
(57.7455 0.000456269 0)
(57.7312 0.00218788 0)
(57.685 0.0104435 0)
(57.4925 0.048364 0)
(56.8829 0.240139 0)
(51.5922 0.875167 0)
(57.8942 0.000118963 0)
(57.8797 0.000103535 0)
(57.863 9.99045e-05 0)
(57.8474 0.000103991 0)
(57.8324 0.00010624 0)
(57.8174 0.000107464 0)
(57.8026 0.00010849 0)
(57.7879 0.000109365 0)
(57.7734 0.000110091 0)
(57.7593 0.000110698 0)
(57.7455 0.000111214 0)
(57.7321 0.000111657 0)
(57.7193 0.00011204 0)
(57.7069 0.000112375 0)
(57.6952 0.00011267 0)
(57.6841 0.00011293 0)
(57.6738 0.000113167 0)
(57.6642 0.000113358 0)
(57.6555 0.000113545 0)
(57.6476 0.000113706 0)
(57.6406 0.000113848 0)
(57.6345 0.000113955 0)
(57.6293 0.000114112 0)
(57.6251 0.000114197 0)
(57.6219 0.000114284 0)
(57.6196 0.000114366 0)
(57.6182 0.000114437 0)
(57.6177 0.000114492 0)
(57.618 0.000114545 0)
(57.6192 0.0001146 0)
(57.6212 0.000114629 0)
(57.6239 0.00011463 0)
(57.6273 0.000114711 0)
(57.6313 0.00011462 0)
(57.6359 0.000114562 0)
(57.641 0.000114508 0)
(57.6465 0.000114366 0)
(57.6524 0.000114143 0)
(57.6585 0.000113811 0)
(57.6648 0.000113335 0)
(57.6713 0.000112673 0)
(57.6778 0.000111779 0)
(57.6843 0.000110602 0)
(57.6907 0.00010909 0)
(57.697 0.000107191 0)
(57.7032 0.000104862 0)
(57.7091 0.000102066 0)
(57.7148 9.87759e-05 0)
(57.7203 9.49852e-05 0)
(57.7255 9.0704e-05 0)
(57.7304 8.59614e-05 0)
(57.7349 8.08061e-05 0)
(57.7392 7.53058e-05 0)
(57.7431 6.95436e-05 0)
(57.7467 6.36133e-05 0)
(57.75 5.76161e-05 0)
(57.753 5.16544e-05 0)
(57.7558 4.58269e-05 0)
(57.7583 4.02237e-05 0)
(57.7605 3.49231e-05 0)
(57.7625 2.99881e-05 0)
(57.7643 2.54648e-05 0)
(57.766 2.13822e-05 0)
(57.7674 1.77528e-05 0)
(57.7687 1.4574e-05 0)
(57.7699 1.18302e-05 0)
(57.771 9.49591e-06 0)
(57.772 7.53794e-06 0)
(57.7729 5.91847e-06 0)
(57.7737 4.59729e-06 0)
(57.7745 3.53394e-06 0)
(57.7753 2.6894e-06 0)
(57.776 2.02714e-06 0)
(57.7766 1.51407e-06 0)
(57.7773 1.12117e-06 0)
(57.7779 8.23933e-07 0)
(57.7786 6.01432e-07 0)
(57.7792 4.36533e-07 0)
(57.7798 3.16125e-07 0)
(57.7804 2.30256e-07 0)
(57.781 1.70925e-07 0)
(57.7816 1.30742e-07 0)
(57.7822 1.03799e-07 0)
(57.7828 8.58982e-08 0)
(57.7834 7.40663e-08 0)
(57.784 6.58567e-08 0)
(57.7846 6.16748e-08 0)
(57.7852 5.92339e-08 0)
(57.7858 5.71714e-08 0)
(57.7864 5.91723e-08 0)
(57.787 5.93452e-08 0)
(57.7876 5.86616e-08 0)
(57.7881 5.70521e-08 0)
(57.7887 5.66165e-08 0)
(57.7893 5.72033e-08 0)
(57.7899 5.86892e-08 0)
(57.7905 6.03075e-08 0)
(57.791 6.1654e-08 0)
(57.7916 6.26561e-08 0)
(57.7922 6.3413e-08 0)
(57.7928 6.40788e-08 0)
(57.7934 6.4738e-08 0)
(57.7941 6.54251e-08 0)
(57.7947 6.61386e-08 0)
(57.7954 6.68784e-08 0)
(57.796 6.76463e-08 0)
(57.7967 6.84382e-08 0)
(57.7975 6.9255e-08 0)
(57.7982 7.00932e-08 0)
(57.7991 7.09675e-08 0)
(57.7999 7.1879e-08 0)
(57.8008 7.28521e-08 0)
(57.8018 7.3907e-08 0)
(57.8029 7.50474e-08 0)
(57.804 7.62841e-08 0)
(57.8053 7.76352e-08 0)
(57.8066 7.9119e-08 0)
(57.808 8.0741e-08 0)
(57.8096 8.25043e-08 0)
(57.8113 8.43962e-08 0)
(57.8131 8.64031e-08 0)
(57.8151 8.8504e-08 0)
(57.8172 9.06897e-08 0)
(57.8195 9.2946e-08 0)
(57.822 9.52607e-08 0)
(57.8247 9.76286e-08 0)
(57.8275 1.0003e-07 0)
(57.8306 1.02441e-07 0)
(57.8338 1.04841e-07 0)
(57.8373 1.07211e-07 0)
(57.8409 1.09563e-07 0)
(57.8448 1.11901e-07 0)
(57.8488 1.14093e-07 0)
(57.8531 1.15951e-07 0)
(57.8575 1.17297e-07 0)
(57.8621 1.18412e-07 0)
(57.8668 1.19619e-07 0)
(57.8717 1.2081e-07 0)
(57.8767 1.21645e-07 0)
(57.8818 1.21967e-07 0)
(57.887 1.218e-07 0)
(57.8922 1.21201e-07 0)
(57.8974 1.20227e-07 0)
(57.9026 1.18871e-07 0)
(57.9078 1.17021e-07 0)
(57.9129 1.14598e-07 0)
(57.9179 1.11574e-07 0)
(57.9227 1.07943e-07 0)
(57.9273 1.03773e-07 0)
(57.9317 9.90952e-08 0)
(57.9358 9.39019e-08 0)
(57.9396 8.85554e-08 0)
(57.9431 8.26674e-08 0)
(57.9461 7.58203e-08 0)
(57.9488 6.99985e-08 0)
(57.951 6.00007e-08 0)
(57.9528 5.1017e-08 0)
(57.9541 4.47393e-08 0)
(57.9549 2.90383e-08 0)
(57.9551 7.95819e-09 0)
(57.9548 7.0203e-08 0)
(57.954 -2.69052e-08 0)
(57.9525 -1.18657e-08 0)
(57.9505 -1.32954e-08 0)
(57.9479 -2.00647e-08 0)
(57.9448 -2.74016e-08 0)
(57.9412 -3.44722e-08 0)
(57.937 -4.12286e-08 0)
(57.9324 -4.76003e-08 0)
(57.9273 -5.34871e-08 0)
(57.9217 -5.88882e-08 0)
(57.9157 -6.37841e-08 0)
(57.9094 -6.80938e-08 0)
(57.9027 -7.1882e-08 0)
(57.8957 -7.49768e-08 0)
(57.8884 -7.77881e-08 0)
(57.8809 -7.95763e-08 0)
(57.8732 -8.15215e-08 0)
(57.8653 -8.16591e-08 0)
(57.8574 -8.18754e-08 0)
(57.8493 -8.0331e-08 0)
(57.8412 -7.96311e-08 0)
(57.8332 -7.76017e-08 0)
(57.8251 -7.58979e-08 0)
(57.8172 -7.39274e-08 0)
(57.8093 -6.89685e-08 0)
(57.8016 -6.29107e-08 0)
(57.7941 -4.33456e-08 0)
(57.7867 3.50827e-08 0)
(57.7796 3.87901e-07 0)
(57.7727 2.10332e-06 0)
(57.7661 1.03276e-05 0)
(57.7597 4.99562e-05 0)
(57.7532 0.000240655 0)
(57.7458 0.0011572 0)
(57.7324 0.00554501 0)
(57.691 0.0263731 0)
(57.5223 0.12082 0)
(56.9936 0.551329 0)
(52.987 1.9738 0)
(57.8942 3.56893e-05 0)
(57.8797 2.79482e-05 0)
(57.8629 1.94039e-05 0)
(57.8474 1.61483e-05 0)
(57.8323 1.37107e-05 0)
(57.8174 1.15539e-05 0)
(57.8025 9.8515e-06 0)
(57.7878 8.49299e-06 0)
(57.7734 7.37266e-06 0)
(57.7592 6.43488e-06 0)
(57.7455 5.64261e-06 0)
(57.7321 4.96745e-06 0)
(57.7192 4.38775e-06 0)
(57.7069 3.88702e-06 0)
(57.6952 3.45237e-06 0)
(57.6841 3.07367e-06 0)
(57.6738 2.74366e-06 0)
(57.6642 2.44931e-06 0)
(57.6554 2.19456e-06 0)
(57.6475 1.96842e-06 0)
(57.6405 1.7677e-06 0)
(57.6344 1.58548e-06 0)
(57.6293 1.43825e-06 0)
(57.6251 1.29474e-06 0)
(57.6219 1.16891e-06 0)
(57.6196 1.05846e-06 0)
(57.6182 9.59732e-07 0)
(57.6177 8.69716e-07 0)
(57.618 7.91099e-07 0)
(57.6192 7.25523e-07 0)
(57.6211 6.61169e-07 0)
(57.6239 5.98092e-07 0)
(57.6273 5.679e-07 0)
(57.6313 5.07012e-07 0)
(57.6359 4.59344e-07 0)
(57.641 4.30964e-07 0)
(57.6465 3.96965e-07 0)
(57.6524 3.65313e-07 0)
(57.6585 3.35579e-07 0)
(57.6648 3.06653e-07 0)
(57.6712 2.77867e-07 0)
(57.6777 2.48403e-07 0)
(57.6842 2.175e-07 0)
(57.6907 1.84553e-07 0)
(57.697 1.48824e-07 0)
(57.7031 1.10386e-07 0)
(57.7091 6.92992e-08 0)
(57.7148 2.52086e-08 0)
(57.7203 -2.09701e-08 0)
(57.7255 -6.8005e-08 0)
(57.7303 -1.14871e-07 0)
(57.7349 -1.60482e-07 0)
(57.7391 -2.032e-07 0)
(57.7431 -2.41526e-07 0)
(57.7467 -2.74258e-07 0)
(57.75 -3.00386e-07 0)
(57.753 -3.1922e-07 0)
(57.7558 -3.30456e-07 0)
(57.7583 -3.34364e-07 0)
(57.7605 -3.31232e-07 0)
(57.7625 -3.21887e-07 0)
(57.7643 -3.07379e-07 0)
(57.766 -2.88825e-07 0)
(57.7674 -2.67425e-07 0)
(57.7687 -2.44346e-07 0)
(57.7699 -2.20663e-07 0)
(57.771 -1.97321e-07 0)
(57.772 -1.75093e-07 0)
(57.7729 -1.54571e-07 0)
(57.7737 -1.36174e-07 0)
(57.7745 -1.20132e-07 0)
(57.7753 -1.0648e-07 0)
(57.776 -9.50812e-08 0)
(57.7766 -8.56494e-08 0)
(57.7773 -7.76449e-08 0)
(57.7779 -6.99562e-08 0)
(57.7786 -6.16373e-08 0)
(57.7792 -5.26217e-08 0)
(57.7798 -4.42485e-08 0)
(57.7804 -3.80175e-08 0)
(57.781 -3.44897e-08 0)
(57.7816 -3.32376e-08 0)
(57.7822 -3.33973e-08 0)
(57.7828 -3.41619e-08 0)
(57.7834 -3.50817e-08 0)
(57.784 -3.60861e-08 0)
(57.7846 -3.6629e-08 0)
(57.7852 -3.70905e-08 0)
(57.7858 -3.75581e-08 0)
(57.7864 -3.71559e-08 0)
(57.787 -3.76584e-08 0)
(57.7876 -3.8791e-08 0)
(57.7881 -3.99943e-08 0)
(57.7887 -4.05561e-08 0)
(57.7893 -4.07883e-08 0)
(57.7899 -4.08534e-08 0)
(57.7905 -4.09786e-08 0)
(57.791 -4.12118e-08 0)
(57.7916 -4.1514e-08 0)
(57.7922 -4.18362e-08 0)
(57.7928 -4.21411e-08 0)
(57.7934 -4.24075e-08 0)
(57.7941 -4.26325e-08 0)
(57.7947 -4.28133e-08 0)
(57.7954 -4.29455e-08 0)
(57.796 -4.30291e-08 0)
(57.7967 -4.30616e-08 0)
(57.7975 -4.30465e-08 0)
(57.7982 -4.29771e-08 0)
(57.7991 -4.28438e-08 0)
(57.7999 -4.26417e-08 0)
(57.8008 -4.23695e-08 0)
(57.8018 -4.20235e-08 0)
(57.8029 -4.16041e-08 0)
(57.804 -4.11086e-08 0)
(57.8053 -4.05332e-08 0)
(57.8066 -3.98764e-08 0)
(57.808 -3.91395e-08 0)
(57.8096 -3.83279e-08 0)
(57.8113 -3.74397e-08 0)
(57.8131 -3.64758e-08 0)
(57.8151 -3.54376e-08 0)
(57.8172 -3.433e-08 0)
(57.8195 -3.31623e-08 0)
(57.822 -3.19447e-08 0)
(57.8247 -3.06843e-08 0)
(57.8275 -2.93841e-08 0)
(57.8306 -2.80495e-08 0)
(57.8338 -2.66798e-08 0)
(57.8373 -2.52902e-08 0)
(57.8409 -2.38811e-08 0)
(57.8448 -2.24464e-08 0)
(57.8488 -2.10525e-08 0)
(57.8531 -1.97583e-08 0)
(57.8575 -1.85317e-08 0)
(57.8621 -1.73851e-08 0)
(57.8668 -1.6278e-08 0)
(57.8717 -1.51251e-08 0)
(57.8767 -1.40681e-08 0)
(57.8818 -1.32081e-08 0)
(57.887 -1.25065e-08 0)
(57.8922 -1.19354e-08 0)
(57.8974 -1.15406e-08 0)
(57.9026 -1.13294e-08 0)
(57.9078 -1.12848e-08 0)
(57.9129 -1.13795e-08 0)
(57.9179 -1.1677e-08 0)
(57.9227 -1.21589e-08 0)
(57.9273 -1.28651e-08 0)
(57.9317 -1.37677e-08 0)
(57.9358 -1.51205e-08 0)
(57.9396 -1.6034e-08 0)
(57.9431 -1.78271e-08 0)
(57.9461 -1.89156e-08 0)
(57.9488 -1.82954e-08 0)
(57.951 -2.4434e-08 0)
(57.9528 -2.44978e-08 0)
(57.9541 -3.23499e-08 0)
(57.9549 -1.50788e-08 0)
(57.9551 -8.1972e-08 0)
(57.9548 1.11686e-07 0)
(57.954 -1.18757e-07 0)
(57.9525 -5.45265e-08 0)
(57.9505 -4.46991e-08 0)
(57.9479 -4.61841e-08 0)
(57.9448 -4.91768e-08 0)
(57.9412 -5.19918e-08 0)
(57.937 -5.48548e-08 0)
(57.9324 -5.75469e-08 0)
(57.9273 -6.01665e-08 0)
(57.9217 -6.23847e-08 0)
(57.9157 -6.49161e-08 0)
(57.9094 -6.65653e-08 0)
(57.9027 -6.8869e-08 0)
(57.8957 -7.0088e-08 0)
(57.8884 -7.18521e-08 0)
(57.8809 -7.25267e-08 0)
(57.8732 -7.42005e-08 0)
(57.8653 -7.39437e-08 0)
(57.8574 -7.51838e-08 0)
(57.8493 -7.46701e-08 0)
(57.8412 -7.60013e-08 0)
(57.8332 -7.52653e-08 0)
(57.8251 -7.56316e-08 0)
(57.8172 -7.56852e-08 0)
(57.8093 -7.20906e-08 0)
(57.8016 -6.73363e-08 0)
(57.7941 -4.0957e-08 0)
(57.7867 8.70113e-08 0)
(57.7796 6.69241e-07 0)
(57.7727 3.50821e-06 0)
(57.7661 1.71633e-05 0)
(57.7597 8.296e-05 0)
(57.7535 0.000399792 0)
(57.7471 0.00192306 0)
(57.7385 0.00922056 0)
(57.7186 0.0438721 0)
(57.6436 0.202495 0)
(57.4088 0.898457 0)
(55.0064 3.18482 0)
(57.8942 -3.56893e-05 0)
(57.8797 -2.79482e-05 0)
(57.8629 -1.94039e-05 0)
(57.8474 -1.61483e-05 0)
(57.8323 -1.37107e-05 0)
(57.8174 -1.15539e-05 0)
(57.8025 -9.85151e-06 0)
(57.7878 -8.49299e-06 0)
(57.7734 -7.37266e-06 0)
(57.7592 -6.43488e-06 0)
(57.7455 -5.64261e-06 0)
(57.7321 -4.96745e-06 0)
(57.7192 -4.38775e-06 0)
(57.7069 -3.88702e-06 0)
(57.6952 -3.45237e-06 0)
(57.6841 -3.07367e-06 0)
(57.6738 -2.74367e-06 0)
(57.6642 -2.44931e-06 0)
(57.6554 -2.19456e-06 0)
(57.6475 -1.96842e-06 0)
(57.6405 -1.7677e-06 0)
(57.6344 -1.58548e-06 0)
(57.6293 -1.43825e-06 0)
(57.6251 -1.29474e-06 0)
(57.6219 -1.16891e-06 0)
(57.6196 -1.05846e-06 0)
(57.6182 -9.59734e-07 0)
(57.6177 -8.69717e-07 0)
(57.618 -7.91099e-07 0)
(57.6192 -7.25523e-07 0)
(57.6211 -6.61167e-07 0)
(57.6239 -5.98092e-07 0)
(57.6273 -5.679e-07 0)
(57.6313 -5.07013e-07 0)
(57.6359 -4.59343e-07 0)
(57.641 -4.30966e-07 0)
(57.6465 -3.96965e-07 0)
(57.6524 -3.65312e-07 0)
(57.6585 -3.35581e-07 0)
(57.6648 -3.06654e-07 0)
(57.6712 -2.77867e-07 0)
(57.6777 -2.48402e-07 0)
(57.6842 -2.175e-07 0)
(57.6907 -1.84555e-07 0)
(57.697 -1.48825e-07 0)
(57.7031 -1.10385e-07 0)
(57.7091 -6.93001e-08 0)
(57.7148 -2.52108e-08 0)
(57.7203 2.0969e-08 0)
(57.7255 6.80044e-08 0)
(57.7303 1.14872e-07 0)
(57.7349 1.60481e-07 0)
(57.7391 2.032e-07 0)
(57.7431 2.41528e-07 0)
(57.7467 2.74259e-07 0)
(57.75 3.00387e-07 0)
(57.753 3.1922e-07 0)
(57.7558 3.30456e-07 0)
(57.7583 3.34365e-07 0)
(57.7605 3.31232e-07 0)
(57.7625 3.21887e-07 0)
(57.7643 3.0738e-07 0)
(57.766 2.88825e-07 0)
(57.7674 2.67424e-07 0)
(57.7687 2.44346e-07 0)
(57.7699 2.20663e-07 0)
(57.771 1.97322e-07 0)
(57.772 1.75092e-07 0)
(57.7729 1.5457e-07 0)
(57.7737 1.36174e-07 0)
(57.7745 1.20131e-07 0)
(57.7753 1.0648e-07 0)
(57.776 9.50815e-08 0)
(57.7766 8.56495e-08 0)
(57.7773 7.7645e-08 0)
(57.7779 6.99549e-08 0)
(57.7786 6.16356e-08 0)
(57.7792 5.26207e-08 0)
(57.7798 4.42488e-08 0)
(57.7804 3.80191e-08 0)
(57.781 3.4493e-08 0)
(57.7816 3.32381e-08 0)
(57.7822 3.33954e-08 0)
(57.7828 3.41607e-08 0)
(57.7834 3.50802e-08 0)
(57.784 3.60855e-08 0)
(57.7846 3.66286e-08 0)
(57.7852 3.70895e-08 0)
(57.7858 3.75567e-08 0)
(57.7864 3.71558e-08 0)
(57.787 3.76586e-08 0)
(57.7876 3.879e-08 0)
(57.7881 3.99932e-08 0)
(57.7887 4.05567e-08 0)
(57.7893 4.07899e-08 0)
(57.7899 4.08517e-08 0)
(57.7905 4.09777e-08 0)
(57.791 4.12124e-08 0)
(57.7916 4.15149e-08 0)
(57.7922 4.18355e-08 0)
(57.7928 4.21397e-08 0)
(57.7934 4.24066e-08 0)
(57.7941 4.26313e-08 0)
(57.7947 4.28128e-08 0)
(57.7954 4.29452e-08 0)
(57.796 4.3028e-08 0)
(57.7967 4.30623e-08 0)
(57.7975 4.30458e-08 0)
(57.7982 4.29755e-08 0)
(57.7991 4.28434e-08 0)
(57.7999 4.26426e-08 0)
(57.8008 4.23687e-08 0)
(57.8018 4.20239e-08 0)
(57.8029 4.16039e-08 0)
(57.804 4.11081e-08 0)
(57.8053 4.05326e-08 0)
(57.8066 3.98764e-08 0)
(57.808 3.91391e-08 0)
(57.8096 3.83258e-08 0)
(57.8113 3.74403e-08 0)
(57.8131 3.6477e-08 0)
(57.8151 3.54386e-08 0)
(57.8172 3.43307e-08 0)
(57.8195 3.31626e-08 0)
(57.822 3.19459e-08 0)
(57.8247 3.06845e-08 0)
(57.8275 2.93837e-08 0)
(57.8306 2.80502e-08 0)
(57.8338 2.66804e-08 0)
(57.8373 2.52907e-08 0)
(57.8409 2.38821e-08 0)
(57.8448 2.24475e-08 0)
(57.8488 2.1053e-08 0)
(57.8531 1.97584e-08 0)
(57.8575 1.85313e-08 0)
(57.8621 1.73841e-08 0)
(57.8668 1.62773e-08 0)
(57.8717 1.5125e-08 0)
(57.8767 1.407e-08 0)
(57.8818 1.32096e-08 0)
(57.887 1.25061e-08 0)
(57.8922 1.19345e-08 0)
(57.8974 1.15397e-08 0)
(57.9026 1.13304e-08 0)
(57.9078 1.1279e-08 0)
(57.9129 1.13826e-08 0)
(57.9179 1.16562e-08 0)
(57.9227 1.21936e-08 0)
(57.9273 1.28593e-08 0)
(57.9317 1.38102e-08 0)
(57.9358 1.47174e-08 0)
(57.9396 1.65704e-08 0)
(57.9431 1.82924e-08 0)
(57.9461 1.90653e-08 0)
(57.9488 2.55237e-08 0)
(57.951 1.84898e-08 0)
(57.9528 2.36363e-08 0)
(57.9541 1.98205e-08 0)
(57.9549 3.71257e-08 0)
(57.9551 -2.62477e-08 0)
(57.9548 2.07882e-07 0)
(57.954 -6.67853e-08 0)
(57.9525 2.29957e-08 0)
(57.9505 4.11154e-08 0)
(57.9479 4.59481e-08 0)
(57.9448 4.89358e-08 0)
(57.9412 5.20799e-08 0)
(57.937 5.47436e-08 0)
(57.9324 5.76114e-08 0)
(57.9273 5.99794e-08 0)
(57.9217 6.26847e-08 0)
(57.9157 6.44953e-08 0)
(57.9094 6.70365e-08 0)
(57.9027 6.83267e-08 0)
(57.8957 7.05003e-08 0)
(57.8884 7.14443e-08 0)
(57.8809 7.33106e-08 0)
(57.8732 7.33792e-08 0)
(57.8653 7.52445e-08 0)
(57.8574 7.43282e-08 0)
(57.8493 7.5381e-08 0)
(57.8412 7.52078e-08 0)
(57.8332 7.56565e-08 0)
(57.8251 7.60069e-08 0)
(57.8172 7.5386e-08 0)
(57.8093 7.62561e-08 0)
(57.8016 8.02944e-08 0)
(57.7941 1.05373e-07 0)
(57.7867 2.28799e-07 0)
(57.7796 8.1467e-07 0)
(57.7727 3.65226e-06 0)
(57.7661 1.73291e-05 0)
(57.7598 8.31963e-05 0)
(57.7538 0.000401013 0)
(57.7486 0.0019346 0)
(57.746 0.00934595 0)
(57.7537 0.0451872 0)
(57.8015 0.216075 0)
(57.9806 1.02011 0)
(58.6761 3.57993 0)
(57.8942 -0.000118963 0)
(57.8797 -0.000103535 0)
(57.863 -9.99045e-05 0)
(57.8474 -0.000103991 0)
(57.8324 -0.00010624 0)
(57.8174 -0.000107464 0)
(57.8026 -0.00010849 0)
(57.7879 -0.000109365 0)
(57.7734 -0.000110091 0)
(57.7593 -0.000110698 0)
(57.7455 -0.000111214 0)
(57.7321 -0.000111657 0)
(57.7193 -0.00011204 0)
(57.7069 -0.000112375 0)
(57.6952 -0.00011267 0)