/*--------------------------------*- C++ -*----------------------------------*\
| =========                 |                                                 |
| \\      /  F ield         | OpenFOAM: The Open Source CFD Toolbox           |
|  \\    /   O peration     | Version:  3.0.x                                 |
|   \\  /    A nd           | Web:      www.OpenFOAM.org                      |
|    \\/     M anipulation  |                                                 |
\*---------------------------------------------------------------------------*/
FoamFile
{
    version     2.0;
    format      ascii;
    class       volScalarField;
    location    "0.56";
    object      rho;
}
// * * * * * * * * * * * * * * * * * * * * * * * * * * * * * * * * * * * * * //

dimensions      [1 -3 0 0 0 0 0];

internalField   nonuniform List<scalar> 
13800
(
52.6649
52.6685
52.6741
52.6795
52.6844
52.689
52.6933
52.6975
52.7013
52.7048
52.708
52.7113
52.7145
52.7177
52.7208
52.7238
52.727
52.7303
52.7337
52.7371
52.7407
52.7444
52.748
52.7518
52.7557
52.7597
52.7638
52.768
52.7721
52.7765
52.7808
52.7854
52.7899
52.7945
52.7992
52.804
52.8089
52.8138
52.8188
52.8239
52.829
52.8343
52.8394
52.8448
52.8502
52.8557
52.8612
52.8667
52.8724
52.878
52.8838
52.8896
52.8955
52.9014
52.9074
52.9135
52.9196
52.9256
52.9319
52.938
52.9443
52.9506
52.9569
52.9633
52.9697
52.9762
52.9826
52.9892
52.9958
53.0024
53.0091
53.0157
53.0224
53.0291
53.0358
53.0425
53.0493
53.0561
53.0629
53.0698
53.0767
53.0836
53.0904
53.0974
53.1043
53.1112
53.1182
53.1251
53.1321
53.139
53.146
53.153
53.16
53.1669
53.1739
53.1809
53.1878
53.1948
53.2018
53.2088
53.2157
53.2227
53.2296
53.2366
53.2435
53.2504
53.2573
53.2642
53.2711
53.278
53.2849
53.2918
53.2986
53.3055
53.3123
53.3191
53.3259
53.3326
53.3393
53.3461
53.3528
53.3594
53.3661
53.3728
53.3794
53.386
53.3926
53.399
53.4056
53.412
53.4186
53.425
53.4313
53.4377
53.4441
53.4504
53.4567
53.4629
53.4691
53.4753
53.4815
53.4876
53.4937
53.4997
53.5057
53.5118
53.5177
53.5236
53.5295
53.5353
53.5411
53.5469
53.5526
53.5583
53.5639
53.5695
53.5751
53.5806
53.5861
53.5915
53.5969
53.6023
53.6075
53.6129
53.618
53.6232
53.6283
53.6335
53.6385
53.6435
53.6485
53.6534
53.6582
53.663
53.6678
53.6724
53.6771
53.6817
53.6863
53.6908
53.6953
53.6996
53.704
53.7082
53.7127
53.7166
53.7211
53.7247
53.7292
53.7327
53.7372
53.7404
53.7449
53.748
53.7523
53.7555
53.7595
53.763
53.7658
53.7699
52.6655
52.6691
52.6747
52.6801
52.685
52.6896
52.6939
52.698
52.7019
52.7053
52.7086
52.7119
52.7151
52.7183
52.7213
52.7244
52.7276
52.7309
52.7342
52.7377
52.7412
52.7449
52.7486
52.7524
52.7563
52.7602
52.7643
52.7685
52.7727
52.777
52.7814
52.7859
52.7904
52.795
52.7997
52.8045
52.8094
52.8143
52.8193
52.8244
52.8295
52.8347
52.8399
52.8453
52.8507
52.8562
52.8617
52.8672
52.8729
52.8785
52.8843
52.8901
52.896
52.9019
52.9079
52.9139
52.92
52.9261
52.9323
52.9385
52.9447
52.9511
52.9573
52.9637
52.9701
52.9766
52.9831
52.9896
52.9962
53.0028
53.0095
53.0162
53.0228
53.0295
53.0362
53.043
53.0498
53.0565
53.0633
53.0702
53.0771
53.084
53.0908
53.0978
53.1047
53.1116
53.1185
53.1254
53.1324
53.1394
53.1463
53.1533
53.1603
53.1672
53.1742
53.1812
53.1882
53.1951
53.2021
53.2091
53.216
53.223
53.23
53.2369
53.2438
53.2508
53.2577
53.2647
53.2715
53.2784
53.2853
53.2921
53.299
53.3058
53.3126
53.3194
53.3263
53.333
53.3397
53.3464
53.3531
53.3598
53.3665
53.3731
53.3797
53.3863
53.3929
53.3994
53.4059
53.4124
53.4189
53.4254
53.4317
53.4381
53.4444
53.4507
53.457
53.4633
53.4695
53.4757
53.4819
53.488
53.494
53.5001
53.5061
53.5121
53.518
53.524
53.5298
53.5357
53.5415
53.5472
53.553
53.5586
53.5643
53.5699
53.5754
53.5809
53.5864
53.5919
53.5972
53.6026
53.6079
53.6132
53.6184
53.6236
53.6287
53.6338
53.6388
53.6438
53.6488
53.6537
53.6585
53.6634
53.6681
53.6728
53.6775
53.6821
53.6866
53.6911
53.6956
53.6999
53.7044
53.7086
53.713
53.717
53.7214
53.7251
53.7296
53.7331
53.7375
53.7408
53.7452
53.7484
53.7527
53.7558
53.7599
53.7629
53.7669
53.7697
52.6655
52.6691
52.6747
52.6801
52.685
52.6896
52.6939
52.6981
52.7019
52.7053
52.7086
52.7119
52.7151
52.7183
52.7213
52.7244
52.7276
52.7309
52.7342
52.7377
52.7412
52.7449
52.7486
52.7524
52.7563
52.7602
52.7643
52.7685
52.7727
52.777
52.7814
52.7859
52.7904
52.7951
52.7997
52.8045
52.8094
52.8143
52.8193
52.8244
52.8295
52.8347
52.84
52.8453
52.8507
52.8562
52.8617
52.8672
52.8729
52.8785
52.8843
52.8901
52.896
52.9019
52.9079
52.9139
52.92
52.9261
52.9323
52.9385
52.9448
52.951
52.9574
52.9637
52.9701
52.9766
52.9831
52.9896
52.9962
53.0029
53.0095
53.0161
53.0228
53.0295
53.0363
53.043
53.0498
53.0565
53.0633
53.0702
53.0771
53.084
53.0908
53.0978
53.1047
53.1116
53.1185
53.1254
53.1324
53.1394
53.1463
53.1533
53.1603
53.1672
53.1742
53.1812
53.1882
53.1951
53.2021
53.2091
53.216
53.223
53.23
53.2369
53.2438
53.2508
53.2577
53.2647
53.2715
53.2784
53.2853
53.2921
53.299
53.3058
53.3126
53.3194
53.3263
53.333
53.3397
53.3464
53.3531
53.3598
53.3665
53.3731
53.3797
53.3863
53.3929
53.3994
53.4059
53.4124
53.4189
53.4254
53.4317
53.4381
53.4444
53.4507
53.457
53.4633
53.4695
53.4757
53.4819
53.488
53.494
53.5001
53.5061
53.5121
53.518
53.524
53.5298
53.5357
53.5415
53.5472
53.553
53.5586
53.5643
53.5699
53.5754
53.5809
53.5864
53.5919
53.5972
53.6026
53.6079
53.6132
53.6184
53.6236
53.6287
53.6338
53.6388
53.6438
53.6488
53.6537
53.6585
53.6634
53.6681
53.6728
53.6775
53.6821
53.6866
53.6911
53.6956
53.6999
53.7044
53.7086
53.713
53.717
53.7214
53.7251
53.7296
53.7331
53.7375
53.7408
53.7452
53.7484
53.7527
53.7558
53.7599
53.7629
53.7669
53.7697
52.6655
52.6691
52.6747
52.6801
52.685
52.6896
52.6939
52.6981
52.7019
52.7053
52.7086
52.7119
52.7151
52.7183
52.7213
52.7244
52.7276
52.7309
52.7342
52.7377
52.7412
52.7449
52.7486
52.7524
52.7563
52.7602
52.7643
52.7685
52.7727
52.777
52.7814
52.7859
52.7904
52.795
52.7997
52.8045
52.8094
52.8143
52.8193
52.8244
52.8295
52.8347
52.8399
52.8453
52.8507
52.8562
52.8617
52.8672
52.8729
52.8785
52.8843
52.8901
52.896
52.9019
52.9079
52.9139
52.92
52.9261
52.9323
52.9385
52.9447
52.9511
52.9573
52.9637
52.9701
52.9766
52.9831
52.9896
52.9962
53.0028
53.0095
53.0162
53.0228
53.0295
53.0362
53.043
53.0498
53.0565
53.0633
53.0702
53.0771
53.084
53.0908
53.0978
53.1047
53.1116
53.1185
53.1254
53.1324
53.1394
53.1463
53.1533
53.1603
53.1672
53.1742
53.1812
53.1882
53.1951
53.2021
53.2091
53.216
53.223
53.23
53.2369
53.2438
53.2508
53.2577
53.2647
53.2715
53.2784
53.2853
53.2921
53.299
53.3058
53.3126
53.3194
53.3263
53.333
53.3397
53.3464
53.3531
53.3598
53.3665
53.3731
53.3797
53.3863
53.3929
53.3994
53.4059
53.4124
53.4189
53.4254
53.4317
53.4381
53.4444
53.4507
53.457
53.4633
53.4695
53.4757
53.4819
53.488
53.494
53.5001
53.5061
53.5121
53.518
53.524
53.5298
53.5357
53.5415
53.5472
53.553
53.5586
53.5643
53.5699
53.5754
53.5809
53.5864
53.5919
53.5972
53.6026
53.6079
53.6132
53.6184
53.6236
53.6287
53.6338
53.6388
53.6438
53.6488
53.6537
53.6585
53.6634
53.6681
53.6728
53.6775
53.6821
53.6866
53.6911
53.6956
53.6999
53.7044
53.7086
53.713
53.717
53.7214
53.7251
53.7296
53.7331
53.7375
53.7408
53.7452
53.7484
53.7527
53.7558
53.7599
53.7629
53.7668
53.7699
52.6655
52.6691
52.6748
52.6801
52.685
52.6896
52.6939
52.6981
52.7019
52.7053
52.7086
52.7118
52.7151
52.7182
52.7213
52.7244
52.7276
52.7309
52.7342
52.7377
52.7412
52.7449
52.7486
52.7524
52.7563
52.7602
52.7643
52.7685
52.7727
52.777
52.7814
52.7859
52.7904
52.795
52.7997
52.8045
52.8094
52.8143
52.8193
52.8244
52.8295
52.8347
52.8399
52.8453
52.8507
52.8562
52.8617
52.8672
52.8729
52.8785
52.8843
52.8901
52.896
52.9019
52.9079
52.9139
52.92
52.9261
52.9323
52.9385
52.9447
52.9511
52.9573
52.9637
52.9701
52.9766
52.9831
52.9896
52.9962
53.0028
53.0095
53.0162
53.0228
53.0295
53.0362
53.043
53.0498
53.0565
53.0633
53.0702
53.0771
53.084
53.0908
53.0978
53.1047
53.1116
53.1185
53.1254
53.1324
53.1394
53.1463
53.1533
53.1603
53.1672
53.1742
53.1812
53.1882
53.1951
53.2021
53.2091
53.216
53.223
53.23
53.2369
53.2438
53.2508
53.2577
53.2647
53.2715
53.2784
53.2853
53.2921
53.299
53.3058
53.3126
53.3194
53.3263
53.333
53.3397
53.3464
53.3531
53.3598
53.3665
53.3731
53.3797
53.3863
53.3929
53.3994
53.4059
53.4124
53.4189
53.4254
53.4317
53.4381
53.4444
53.4507
53.457
53.4633
53.4695
53.4757
53.4819
53.488
53.494
53.5001
53.5061
53.5121
53.518
53.524
53.5298
53.5357
53.5415
53.5472
53.553
53.5586
53.5643
53.5699
53.5754
53.5809
53.5864
53.5919
53.5972
53.6026
53.6079
53.6132
53.6184
53.6236
53.6287
53.6338
53.6388
53.6438
53.6488
53.6537
53.6585
53.6634
53.6681
53.6728
53.6775
53.6821
53.6866
53.6911
53.6956
53.6999
53.7044
53.7086
53.713
53.717
53.7214
53.7251
53.7296
53.7331
53.7375
53.7408
53.7452
53.7484
53.7527
53.7557
53.7599
53.7629
53.7669
53.7698
52.6655
52.6691
52.6748
52.6801
52.685
52.6896
52.6939
52.6981
52.7019
52.7053
52.7086
52.7118
52.7151
52.7182
52.7213
52.7244
52.7276
52.7309
52.7342
52.7377
52.7412
52.7449
52.7486
52.7524
52.7563
52.7602
52.7643
52.7685
52.7727
52.777
52.7814
52.7859
52.7904
52.795
52.7997
52.8045
52.8094
52.8143
52.8193
52.8244
52.8295
52.8347
52.8399
52.8453
52.8507
52.8562
52.8617
52.8672
52.8729
52.8785
52.8843
52.8901
52.896
52.9019
52.9079
52.9139
52.92
52.9261
52.9323
52.9385
52.9447
52.9511
52.9573
52.9637
52.9701
52.9766
52.9831
52.9896
52.9962
53.0028
53.0095
53.0162
53.0228
53.0295
53.0362
53.043
53.0498
53.0565
53.0633
53.0702
53.0771
53.084
53.0908
53.0978
53.1047
53.1116
53.1185
53.1254
53.1324
53.1394
53.1463
53.1533
53.1603
53.1672
53.1742
53.1812
53.1882
53.1951
53.2021
53.2091
53.216
53.223
53.23
53.2369
53.2438
53.2508
53.2577
53.2647
53.2715
53.2784
53.2853
53.2921
53.299
53.3058
53.3126
53.3194
53.3263
53.333
53.3397
53.3464
53.3531
53.3598
53.3665
53.3731
53.3797
53.3863
53.3929
53.3994
53.4059
53.4124
53.4189
53.4254
53.4317
53.4381
53.4444
53.4507
53.457
53.4633
53.4695
53.4757
53.4819
53.488
53.494
53.5001
53.5061
53.5121
53.518
53.524
53.5298
53.5357
53.5415
53.5472
53.553
53.5586
53.5643
53.5699
53.5754
53.5809
53.5864
53.5919
53.5972
53.6026
53.6079
53.6132
53.6184
53.6236
53.6287
53.6338
53.6388
53.6438
53.6488
53.6537
53.6585
53.6634
53.6681
53.6728
53.6775
53.6821
53.6866
53.6911
53.6956
53.7
53.7043
53.7087
53.7129
53.7171
53.7212
53.7254
53.7292
53.7335
53.737
53.7412
53.745
53.7486
53.7525
53.756
53.7596
53.7633
53.7665
53.7703
52.6655
52.6691
52.6747
52.6801
52.685
52.6896
52.6939
52.6981
52.7019
52.7053
52.7086
52.7119
52.7151
52.7183
52.7213
52.7244
52.7276
52.7309
52.7342
52.7377
52.7412
52.7449
52.7486
52.7524
52.7563
52.7602
52.7643
52.7685
52.7727
52.777
52.7814
52.7859
52.7904
52.795
52.7997
52.8045
52.8094
52.8143
52.8193
52.8244
52.8295
52.8347
52.8399
52.8453
52.8507
52.8562
52.8617
52.8672
52.8729
52.8785
52.8843
52.8901
52.896
52.9019
52.9079
52.9139
52.92
52.9261
52.9323
52.9385
52.9447
52.9511
52.9573
52.9637
52.9701
52.9766
52.9831
52.9896
52.9962
53.0028
53.0095
53.0162
53.0228
53.0295
53.0362
53.043
53.0498
53.0565
53.0633
53.0702
53.0771
53.084
53.0908
53.0978
53.1047
53.1116
53.1185
53.1254
53.1324
53.1394
53.1463
53.1533
53.1603
53.1672
53.1742
53.1812
53.1882
53.1951
53.2021
53.2091
53.216
53.223
53.23
53.2369
53.2438
53.2508
53.2577
53.2647
53.2715
53.2784
53.2853
53.2921
53.299
53.3058
53.3126
53.3194
53.3263
53.333
53.3397
53.3464
53.3531
53.3598
53.3665
53.3731
53.3797
53.3863
53.3929
53.3994
53.4059
53.4124
53.4189
53.4254
53.4317
53.4381
53.4444
53.4507
53.457
53.4633
53.4695
53.4757
53.4819
53.488
53.494
53.5001
53.5061
53.5121
53.518
53.524
53.5298
53.5357
53.5415
53.5472
53.553
53.5586
53.5643
53.5699
53.5754
53.5809
53.5864
53.5919
53.5972
53.6026
53.6079
53.6132
53.6184
53.6236
53.6287
53.6338
53.6388
53.6438
53.6488
53.6537
53.6585
53.6634
53.6681
53.6728
53.6775
53.6821
53.6866
53.6912
53.6955
53.7001
53.7042
53.7087
53.7128
53.7172
53.721
53.7255
53.7291
53.7336
53.737
53.7414
53.7446
53.749
53.752
53.7563
53.7594
53.7635
53.7665
53.7703
52.6655
52.6691
52.6747
52.6801
52.685
52.6896
52.6939
52.6981
52.7019
52.7053
52.7086
52.7119
52.7151
52.7183
52.7213
52.7244
52.7276
52.7309
52.7342
52.7377
52.7412
52.7449
52.7486
52.7524
52.7563
52.7602
52.7643
52.7685
52.7727
52.777
52.7814
52.7859
52.7904
52.7951
52.7997
52.8045
52.8094
52.8143
52.8193
52.8244
52.8295
52.8347
52.84
52.8453
52.8507
52.8562
52.8617
52.8672
52.8729
52.8785
52.8843
52.8901
52.896
52.9019
52.9079
52.9139
52.92
52.9261
52.9323
52.9385
52.9448
52.951
52.9574
52.9637
52.9701
52.9766
52.9831
52.9896
52.9962
53.0029
53.0095
53.0161
53.0228
53.0295
53.0363
53.043
53.0498
53.0565
53.0633
53.0702
53.0771
53.084
53.0908
53.0978
53.1047
53.1116
53.1185
53.1254
53.1324
53.1394
53.1463
53.1533
53.1603
53.1672
53.1742
53.1812
53.1882
53.1951
53.2021
53.2091
53.216
53.223
53.23
53.2369
53.2438
53.2508
53.2577
53.2647
53.2715
53.2784
53.2853
53.2921
53.299
53.3058
53.3126
53.3194
53.3263
53.333
53.3397
53.3464
53.3531
53.3598
53.3665
53.3731
53.3797
53.3863
53.3929
53.3994
53.4059
53.4124
53.4189
53.4254
53.4317
53.4381
53.4444
53.4507
53.457
53.4633
53.4695
53.4757
53.4819
53.488
53.494
53.5001
53.5061
53.5121
53.518
53.524
53.5298
53.5357
53.5415
53.5472
53.553
53.5586
53.5643
53.5699
53.5754
53.5809
53.5864
53.5919
53.5972
53.6026
53.6079
53.6132
53.6184
53.6236
53.6287
53.6338
53.6388
53.6438
53.6488
53.6537
53.6585
53.6634
53.6681
53.6728
53.6775
53.6821
53.6866
53.6912
53.6955
53.7001
53.7042
53.7087
53.7128
53.7172
53.721
53.7255
53.7291
53.7336
53.737
53.7414
53.7446
53.749
53.7521
53.7563
53.7594
53.7635
53.7662
53.7702
52.6655
52.6691
52.6747
52.6801
52.685
52.6896
52.6939
52.698
52.7019
52.7053
52.7086
52.7119
52.7151
52.7183
52.7213
52.7244
52.7276
52.7309
52.7342
52.7377
52.7412
52.7449
52.7486
52.7524
52.7563
52.7602
52.7643
52.7685
52.7727
52.777
52.7814
52.7859
52.7904
52.795
52.7997
52.8045
52.8094
52.8143
52.8193
52.8244
52.8295
52.8347
52.8399
52.8453
52.8507
52.8562
52.8617
52.8672
52.8729
52.8785
52.8843
52.8901
52.896
52.9019
52.9079
52.9139
52.92
52.9261
52.9323
52.9385
52.9447
52.9511
52.9573
52.9637
52.9701
52.9766
52.9831
52.9896
52.9962
53.0028
53.0095
53.0162
53.0228
53.0295
53.0362
53.043
53.0498
53.0565
53.0633
53.0702
53.0771
53.084
53.0908
53.0978
53.1047
53.1116
53.1185
53.1254
53.1324
53.1394
53.1463
53.1533
53.1603
53.1672
53.1742
53.1812
53.1882
53.1951
53.2021
53.2091
53.216
53.223
53.23
53.2369
53.2438
53.2508
53.2577
53.2647
53.2715
53.2784
53.2853
53.2921
53.299
53.3058
53.3126
53.3194
53.3263
53.333
53.3397
53.3464
53.3531
53.3598
53.3665
53.3731
53.3797
53.3863
53.3929
53.3994
53.4059
53.4124
53.4189
53.4254
53.4317
53.4381
53.4444
53.4507
53.457
53.4633
53.4695
53.4757
53.4819
53.488
53.494
53.5001
53.5061
53.5121
53.518
53.524
53.5298
53.5357
53.5415
53.5472
53.553
53.5586
53.5643
53.5699
53.5754
53.5809
53.5864
53.5919
53.5972
53.6026
53.6079
53.6132
53.6184
53.6236
53.6287
53.6338
53.6388
53.6438
53.6488
53.6537
53.6585
53.6634
53.6681
53.6728
53.6775
53.6821
53.6866
53.6912
53.6955
53.7001
53.7042
53.7087
53.7128
53.7173
53.721
53.7255
53.7291
53.7336
53.7369
53.7413
53.7446
53.7489
53.7521
53.7563
53.7593
53.7635
53.7661
53.7699
52.6649
52.6685
52.6741
52.6795
52.6844
52.689
52.6933
52.6975
52.7013
52.7048
52.708
52.7113
52.7145
52.7177
52.7208
52.7238
52.727
52.7303
52.7337
52.7371
52.7407
52.7444
52.748
52.7518
52.7557
52.7597
52.7638
52.768
52.7721
52.7765
52.7808
52.7854
52.7899
52.7945
52.7992
52.804
52.8089
52.8138
52.8188
52.8239
52.829
52.8343
52.8394
52.8448
52.8502
52.8557
52.8612
52.8667
52.8724
52.878
52.8838
52.8896
52.8955
52.9014
52.9074
52.9135
52.9196
52.9256
52.9319
52.938
52.9443
52.9506
52.9569
52.9633
52.9697
52.9762
52.9826
52.9892
52.9958
53.0024
53.0091
53.0157
53.0224
53.0291
53.0358
53.0425
53.0493
53.0561
53.0629
53.0698
53.0767
53.0836
53.0904
53.0974
53.1043
53.1112
53.1182
53.1251
53.1321
53.139
53.146
53.153
53.16
53.1669
53.1739
53.1809
53.1878
53.1948
53.2018
53.2088
53.2157
53.2227
53.2296
53.2366
53.2435
53.2504
53.2573
53.2642
53.2711
53.278
53.2849
53.2918
53.2986
53.3055
53.3123
53.3191
53.3259
53.3326
53.3393
53.3461
53.3528
53.3594
53.3661
53.3728
53.3794
53.386
53.3926
53.399
53.4056
53.412
53.4186
53.425
53.4313
53.4377
53.4441
53.4504
53.4567
53.4629
53.4691
53.4753
53.4815
53.4876
53.4937
53.4997
53.5057
53.5118
53.5177
53.5236
53.5295
53.5353
53.5411
53.5469
53.5526
53.5583
53.5639
53.5695
53.5751
53.5806
53.5861
53.5915
53.5969
53.6023
53.6075
53.6129
53.618
53.6232
53.6283
53.6335
53.6385
53.6435
53.6485
53.6534
53.6582
53.663
53.6678
53.6724
53.6771
53.6817
53.6863
53.6908
53.6952
53.6997
53.7039
53.7084
53.7124
53.7169
53.7207
53.7252
53.7287
53.7333
53.7366
53.741
53.7443
53.7487
53.7517
53.756
53.759
53.7632
53.7655
53.7697
53.7719
53.7723
53.7727
53.773
53.7732
53.7732
53.7734
53.7737
53.7741
53.7746
53.7752
53.7757
53.7763
53.7768
53.7774
53.7779
53.7784
53.7789
53.7794
53.78
53.7715
53.7721
53.7727
53.7731
53.7735
53.7739
53.7743
53.7746
53.775
53.7754
53.7758
53.7763
53.7768
53.7774
53.778
53.7786
53.7792
53.7797
53.7803
53.781
53.7713
53.772
53.7725
53.773
53.7735
53.774
53.7745
53.7749
53.7752
53.7757
53.776
53.7765
53.7769
53.7775
53.778
53.7787
53.7793
53.7799
53.7805
53.781
53.7717
53.7722
53.7728
53.7734
53.7739
53.7745
53.775
53.7755
53.776
53.7765
53.7769
53.7773
53.7776
53.778
53.7782
53.7786
53.779
53.7794
53.7799
53.7805
53.7718
53.7724
53.773
53.7737
53.7743
53.775
53.7756
53.7762
53.7767
53.7773
53.778
53.7785
53.7792
53.7798
53.7804
53.7809
53.7815
53.7821
53.7826
53.7831
53.7719
53.7726
53.7731
53.7738
53.7744
53.775
53.7755
53.7762
53.7767
53.7773
53.7778
53.7784
53.7789
53.7793
53.7797
53.7801
53.7804
53.7807
53.781
53.7813
53.7724
53.773
53.7736
53.7742
53.7747
53.7754
53.776
53.7767
53.7773
53.778
53.7786
53.7793
53.78
53.7807
53.7814
53.7821
53.7828
53.7835
53.7842
53.7848
53.7723
53.7727
53.7732
53.7738
53.7744
53.7751
53.7757
53.7763
53.777
53.7776
53.7783
53.779
53.7797
53.7805
53.7813
53.7822
53.783
53.7838
53.7845
53.7852
53.7722
53.7727
53.7733
53.774
53.7747
53.7753
53.776
53.7768
53.7776
53.7784
53.7793
53.7802
53.781
53.7819
53.7827
53.7836
53.7844
53.7852
53.7859
53.7867
53.772
53.7725
53.7732
53.7739
53.7747
53.7755
53.7763
53.7771
53.7779
53.7787
53.7796
53.7804
53.7812
53.7821
53.7829
53.7837
53.7845
53.7852
53.7858
53.7865
53.7815
53.7836
53.786
53.7885
53.791
53.7933
53.7955
53.7979
53.8002
53.8025
53.8046
53.8066
53.8086
53.8107
53.8127
53.8146
53.8166
53.8184
53.8203
53.8221
53.8239
53.8256
53.8272
53.8288
53.8304
53.8321
53.8336
53.8351
53.8366
53.8381
53.8396
53.841
53.8424
53.8437
53.845
53.8463
53.8475
53.8487
53.8499
53.8511
53.8522
53.8534
53.8545
53.8555
53.8566
53.8576
53.8585
53.8596
53.8605
53.8613
53.8623
53.8631
53.864
53.8648
53.8655
53.8664
53.8671
53.8678
53.8685
53.8692
53.8698
53.8705
53.8711
53.8718
53.8724
53.8729
53.8735
53.874
53.8746
53.8752
53.8756
53.8761
53.8766
53.8771
53.8776
53.8781
53.8785
53.8789
53.8793
53.8798
53.8803
53.8808
53.8814
53.882
53.8823
53.8826
53.8829
53.8835
53.8847
53.8861
53.887
53.8867
53.8824
53.8634
53.8155
53.7631
53.7155
53.6761
53.6474
53.6303
53.6239
53.6236
53.6279
53.6516
53.7153
53.7787
53.8285
53.8634
53.8853
53.8975
53.9035
53.906
53.9059
53.9023
53.8977
53.8948
53.8929
53.8917
53.891
53.8906
53.8903
53.8902
53.8901
53.8901
53.89
53.89
53.8901
53.89
53.89
53.89
53.89
53.8899
53.8899
53.8899
53.8899
53.8899
53.8898
53.8898
53.8897
53.8897
53.8897
53.8896
53.8896
53.8895
53.8894
53.8894
53.8893
53.8893
53.8891
53.8891
53.889
53.8889
53.8889
53.8888
53.8887
53.8886
53.8885
53.8885
53.8883
53.8883
53.8882
53.8881
53.888
53.8879
53.8878
53.8877
53.8876
53.8875
53.8874
53.8873
53.8872
53.8872
53.8871
53.887
53.8869
53.8868
53.8867
53.8867
53.8865
53.8865
53.8863
53.8864
53.8861
53.8863
53.8859
53.8862
53.8858
53.8861
53.8856
53.886
53.8855
53.8858
53.8854
53.8857
53.8852
53.8856
53.8851
53.8855
53.8848
53.8851
53.7824
53.7847
53.7867
53.7892
53.7917
53.7941
53.7964
53.7987
53.801
53.8033
53.8055
53.8076
53.8096
53.8117
53.8137
53.8156
53.8176
53.8195
53.8213
53.8231
53.8249
53.8266
53.8283
53.8299
53.8315
53.8331
53.8347
53.8362
53.8377
53.8392
53.8406
53.842
53.8434
53.8448
53.8461
53.8474
53.8486
53.8498
53.851
53.8522
53.8533
53.8545
53.8556
53.8566
53.8577
53.8587
53.8596
53.8607
53.8616
53.8625
53.8633
53.8642
53.8651
53.8659
53.8667
53.8675
53.8682
53.8689
53.8697
53.8704
53.871
53.8717
53.8722
53.8729
53.8735
53.8741
53.8746
53.8752
53.8757
53.8763
53.8768
53.8773
53.8778
53.8782
53.8786
53.8792
53.8796
53.88
53.8805
53.8809
53.8813
53.8817
53.8822
53.8827
53.883
53.8832
53.8834
53.884
53.8847
53.8857
53.8869
53.888
53.8895
53.8915
53.8937
53.8957
53.897
53.8968
53.8928
53.8845
53.876
53.868
53.8616
53.8581
53.8577
53.8585
53.8615
53.8699
53.8784
53.8843
53.8885
53.8914
53.8932
53.8936
53.893
53.892
53.8914
53.891
53.8908
53.8906
53.8905
53.8905
53.8904
53.8904
53.8904
53.8904
53.8903
53.8904
53.8903
53.8903
53.8903
53.8903
53.8903
53.8902
53.8902
53.8902
53.8901
53.8901
53.89
53.89
53.89
53.8899
53.8898
53.8898
53.8898
53.8897
53.8896
53.8896
53.8895
53.8894
53.8893
53.8893
53.8891
53.8891
53.889
53.8889
53.8888
53.8887
53.8886
53.8886
53.8885
53.8884
53.8883
53.8882
53.8881
53.888
53.8879
53.8878
53.8878
53.8877
53.8876
53.8875
53.8874
53.8873
53.8872
53.8871
53.887
53.887
53.8868
53.8868
53.8866
53.8868
53.8864
53.8866
53.8863
53.8865
53.8861
53.8864
53.886
53.8862
53.8858
53.8861
53.8857
53.8859
53.8856
53.8858
53.8854
53.8858
53.8853
53.8853
53.7825
53.7847
53.7868
53.7893
53.7917
53.794
53.7962
53.7985
53.8008
53.8031
53.8053
53.8074
53.8094
53.8115
53.8135
53.8155
53.8174
53.8193
53.8211
53.8229
53.8247
53.8264
53.8281
53.8297
53.8313
53.8329
53.8345
53.836
53.8375
53.839
53.8404
53.8419
53.8432
53.8446
53.8459
53.8472
53.8484
53.8496
53.8509
53.852
53.8531
53.8543
53.8554
53.8564
53.8575
53.8585
53.8595
53.8604
53.8614
53.8623
53.8632
53.8641
53.8649
53.8657
53.8665
53.8673
53.868
53.8688
53.8695
53.8701
53.8708
53.8715
53.8721
53.8727
53.8733
53.8738
53.8745
53.875
53.8755
53.8761
53.8766
53.8771
53.8775
53.878
53.8785
53.879
53.8794
53.8798
53.8802
53.8806
53.8811
53.8815
53.8819
53.8824
53.8829
53.8833
53.8833
53.8834
53.8834
53.8845
53.8861
53.8882
53.8913
53.8959
53.9001
53.9035
53.9063
53.9087
53.9107
53.912
53.9116
53.9073
53.9006
53.8947
53.8897
53.886
53.8837
53.8829
53.8833
53.8844
53.8859
53.8873
53.8885
53.8893
53.8898
53.8901
53.8903
53.8904
53.8904
53.8904
53.8904
53.8904
53.8903
53.8904
53.8903
53.8903
53.8903
53.8904
53.8903
53.8903
53.8903
53.8903
53.8903
53.8902
53.8902
53.8902
53.8901
53.8901
53.89
53.89
53.89
53.8899
53.8898
53.8898
53.8897
53.8897
53.8896
53.8896
53.8895
53.8894
53.8893
53.8893
53.8891
53.8891
53.889
53.8889
53.8888
53.8887
53.8886
53.8886
53.8885
53.8884
53.8883
53.8882
53.8881
53.888
53.8879
53.8878
53.8878
53.8877
53.8876
53.8875
53.8874
53.8873
53.8872
53.8871
53.887
53.887
53.8868
53.8868
53.8866
53.8868
53.8864
53.8866
53.8863
53.8865
53.8861
53.8864
53.886
53.8862
53.8858
53.8861
53.8857
53.886
53.8856
53.8858
53.8854
53.8858
53.8854
53.8855
53.7821
53.7844
53.7862
53.7883
53.7905
53.7928
53.7948
53.7969
53.799
53.8011
53.8032
53.8052
53.8072
53.8092
53.8111
53.8131
53.815
53.8168
53.8186
53.8204
53.8222
53.8239
53.8256
53.8272
53.8288
53.8304
53.8319
53.8335
53.835
53.8365
53.8379
53.8393
53.8407
53.842
53.8434
53.8446
53.8459
53.8471
53.8483
53.8495
53.8507
53.8518
53.8528
53.8539
53.855
53.856
53.8569
53.8579
53.8588
53.8598
53.8607
53.8615
53.8624
53.8632
53.8639
53.8648
53.8655
53.8663
53.8669
53.8676
53.8683
53.8689
53.8695
53.8702
53.8708
53.8714
53.8719
53.8725
53.873
53.8736
53.8741
53.8746
53.8751
53.8756
53.8761
53.8765
53.877
53.8774
53.8779
53.8784
53.8789
53.8794
53.88
53.8805
53.8809
53.8811
53.8812
53.8815
53.8823
53.8838
53.8859
53.8886
53.8925
53.8962
53.8992
53.9017
53.9041
53.9061
53.9075
53.9075
53.9049
53.9012
53.8979
53.8948
53.8923
53.8905
53.8893
53.8886
53.8884
53.8885
53.8887
53.8891
53.8894
53.8896
53.8898
53.89
53.8901
53.8901
53.8902
53.8902
53.8903
53.8902
53.8902
53.8903
53.8902
53.8903
53.8903
53.8903
53.8903
53.8903
53.8902
53.8903
53.8902
53.8902
53.8902
53.8902
53.8901
53.8901
53.89
53.89
53.89
53.8899
53.8898
53.8898
53.8897
53.8897
53.8896
53.8896
53.8895
53.8894
53.8893
53.8893
53.8891
53.8891
53.889
53.8889
53.8888
53.8887
53.8886
53.8886
53.8885
53.8884
53.8883
53.8882
53.8881
53.888
53.8879
53.8878
53.8878
53.8877
53.8876
53.8875
53.8874
53.8873
53.8872
53.8871
53.887
53.887
53.8869
53.8868
53.8866
53.8867
53.8865
53.8866
53.8863
53.8864
53.8861
53.8864
53.8859
53.8862
53.8858
53.8861
53.8857
53.886
53.8855
53.8858
53.8855
53.8858
53.8855
53.8855
53.7845
53.7865
53.7887
53.7909
53.7929
53.7951
53.7973
53.7997
53.802
53.8042
53.8062
53.8082
53.8103
53.8123
53.8142
53.8162
53.818
53.8199
53.8217
53.8235
53.8253
53.827
53.8287
53.8303
53.832
53.8335
53.8351
53.8366
53.8382
53.8396
53.8411
53.8425
53.8438
53.8452
53.8465
53.8478
53.849
53.8503
53.8515
53.8527
53.8538
53.855
53.856
53.8571
53.8581
53.8591
53.8601
53.8611
53.862
53.8629
53.8638
53.8647
53.8655
53.8663
53.8671
53.8679
53.8686
53.8694
53.8701
53.8708
53.8714
53.8721
53.8727
53.8733
53.8739
53.8745
53.875
53.8755
53.8761
53.8766
53.8771
53.8776
53.878
53.8785
53.879
53.8795
53.8799
53.8803
53.8807
53.8811
53.8815
53.8819
53.8822
53.8825
53.8829
53.8833
53.8837
53.8839
53.8839
53.884
53.8845
53.8857
53.8874
53.8895
53.8917
53.8939
53.8959
53.8975
53.8986
53.8989
53.8984
53.8974
53.8961
53.8947
53.8934
53.8923
53.8915
53.8908
53.8904
53.8901
53.89
53.8898
53.8899
53.8899
53.8899
53.89
53.89
53.89
53.8901
53.8901
53.8902
53.8902
53.8902
53.8903
53.8902
53.8903
53.8903
53.8903
53.8903
53.8903
53.8902
53.8903
53.8902
53.8902
53.8902
53.8902
53.8901
53.8901
53.89
53.89
53.89
53.8899
53.8898
53.8898
53.8897
53.8897
53.8896
53.8896
53.8895
53.8894
53.8893
53.8893
53.8891
53.8891
53.889
53.8889
53.8888
53.8887
53.8886
53.8886
53.8885
53.8884
53.8883
53.8882
53.8881
53.888
53.8879
53.8878
53.8878
53.8877
53.8876
53.8875
53.8874
53.8873
53.8872
53.8871
53.887
53.887
53.8869
53.8867
53.8867
53.8866
53.8866
53.8865
53.8864
53.8863
53.8862
53.8862
53.8861
53.886
53.8861
53.8858
53.8859
53.8858
53.8857
53.8858
53.8855
53.8856
53.8855
53.8856
53.7829
53.7845
53.7858
53.787
53.7885
53.79
53.7917
53.7934
53.795
53.7968
53.7986
53.8005
53.8023
53.8043
53.8061
53.808
53.8099
53.8117
53.8135
53.8154
53.8171
53.8188
53.8205
53.8221
53.8237
53.8253
53.8269
53.8284
53.8299
53.8314
53.8328
53.8342
53.8356
53.8369
53.8382
53.8396
53.8408
53.842
53.8432
53.8444
53.8455
53.8467
53.8478
53.8488
53.8499
53.8509
53.8519
53.8529
53.8539
53.8548
53.8556
53.8565
53.8573
53.8582
53.8589
53.8598
53.8605
53.8613
53.862
53.8627
53.8634
53.8641
53.8647
53.8654
53.8661
53.8668
53.8674
53.8681
53.8688
53.8694
53.8699
53.8706
53.8712
53.8718
53.8725
53.8731
53.8737
53.8744
53.875
53.8756
53.8761
53.8764
53.8768
53.8772
53.8776
53.8784
53.8797
53.8814
53.8833
53.8855
53.8876
53.8896
53.8911
53.8923
53.8936
53.8946
53.8954
53.8957
53.8957
53.8953
53.8947
53.8938
53.8928
53.8918
53.891
53.8904
53.8899
53.8896
53.8895
53.8894
53.8894
53.8893
53.8894
53.8895
53.8895
53.8896
53.8897
53.8898
53.8899
53.8899
53.89
53.8901
53.89
53.8902
53.8902
53.8902
53.8903
53.8903
53.8903
53.8903
53.8902
53.8903
53.8902
53.8902
53.8902
53.8902
53.8901
53.8901
53.89
53.89
53.89
53.8899
53.8898
53.8898
53.8897
53.8897
53.8896
53.8896
53.8895
53.8894
53.8893
53.8893
53.8891
53.8891
53.889
53.8889
53.8888
53.8887
53.8886
53.8886
53.8885
53.8884
53.8883
53.8882
53.8881
53.888
53.8879
53.8878
53.8878
53.8877
53.8876
53.8875
53.8874
53.8873
53.8872
53.8871
53.8871
53.8869
53.8869
53.8867
53.8868
53.8866
53.8867
53.8863
53.8865
53.8862
53.8864
53.886
53.8863
53.8859
53.8861
53.8857
53.886
53.8856
53.8859
53.8855
53.8858
53.8855
53.8857
53.8853
53.7869
53.7897
53.7923
53.7947
53.7968
53.799
53.8012
53.8034
53.8055
53.8077
53.8098
53.8119
53.8139
53.8158
53.8177
53.8197
53.8215
53.8234
53.8252
53.827
53.8288
53.8305
53.8322
53.834
53.8356
53.8372
53.8389
53.8403
53.8419
53.8433
53.8448
53.8462
53.8476
53.849
53.8502
53.8515
53.8528
53.854
53.8552
53.8563
53.8575
53.8585
53.8598
53.8608
53.8618
53.8628
53.8638
53.8648
53.8657
53.8666
53.8675
53.8683
53.8692
53.87
53.8707
53.8715
53.8723
53.873
53.8737
53.8744
53.8751
53.8757
53.8764
53.877
53.8776
53.8782
53.8788
53.8793
53.8798
53.8803
53.8809
53.8814
53.8819
53.8824
53.8828
53.8833
53.8837
53.8842
53.8846
53.885
53.8853
53.8857
53.8861
53.8865
53.8869
53.8871
53.8873
53.8876
53.888
53.8883
53.8886
53.8889
53.8889
53.8884
53.8879
53.888
53.8887
53.8898
53.8915
53.8937
53.8959
53.8975
53.8979
53.897
53.8954
53.8939
53.8926
53.8915
53.8907
53.8902
53.8899
53.8897
53.8896
53.8896
53.8896
53.8897
53.8897
53.8898
53.8899
53.8899
53.89
53.8901
53.8901
53.8901
53.8901
53.8902
53.8903
53.8902
53.8903
53.8903
53.8902
53.8903
53.8902
53.8902
53.8902
53.8902
53.8901
53.8901
53.89
53.89
53.89
53.8899
53.8898
53.8898
53.8897
53.8897
53.8896
53.8896
53.8895
53.8894
53.8893
53.8893
53.8891
53.8891
53.889
53.8889
53.8888
53.8887
53.8886
53.8886
53.8885
53.8884
53.8883
53.8882
53.8881
53.888
53.8879
53.8878
53.8878
53.8877
53.8876
53.8875
53.8874
53.8873
53.8872
53.8871
53.8871
53.8869
53.8869
53.8867
53.8868
53.8866
53.8867
53.8863
53.8865
53.8862
53.8864
53.886
53.8863
53.8859
53.8861
53.8857
53.886
53.8856
53.8859
53.8856
53.8858
53.8855
53.8855
53.8855
53.7872
53.7887
53.7898
53.7908
53.7918
53.793
53.7942
53.7954
53.7966
53.798
53.7995
53.8011
53.8028
53.8046
53.8065
53.8083
53.8102
53.812
53.8137
53.8156
53.8174
53.8191
53.8208
53.8224
53.8241
53.8257
53.8272
53.8287
53.8302
53.8316
53.8331
53.8345
53.8359
53.8373
53.8386
53.8399
53.8412
53.8424
53.8437
53.8448
53.846
53.8472
53.8482
53.8494
53.8505
53.8515
53.8525
53.8535
53.8544
53.8554
53.8562
53.8571
53.858
53.8588
53.8596
53.8604
53.8611
53.8618
53.8625
53.8632
53.8638
53.8645
53.8651
53.8658
53.8664
53.867
53.8677
53.8683
53.8689
53.8696
53.8702
53.8709
53.8715
53.8722
53.8729
53.8735
53.8741
53.8746
53.875
53.8754
53.8758
53.8763
53.8766
53.8768
53.8771
53.8774
53.8779
53.8786
53.8798
53.8813
53.8831
53.8849
53.8868
53.8886
53.8902
53.8917
53.893
53.8941
53.8948