/*--------------------------------*- C++ -*----------------------------------*\
| =========                 |                                                 |
| \\      /  F ield         | OpenFOAM: The Open Source CFD Toolbox           |
|  \\    /   O peration     | Version:  3.0.x                                 |
|   \\  /    A nd           | Web:      www.OpenFOAM.org                      |
|    \\/     M anipulation  |                                                 |
\*---------------------------------------------------------------------------*/
FoamFile
{
    version     2.0;
    format      ascii;
    class       volScalarField;
    location    "0.56";
    object      T;
}
// * * * * * * * * * * * * * * * * * * * * * * * * * * * * * * * * * * * * * //

dimensions      [0 0 0 1 0 0 0];

internalField   nonuniform List<scalar> 
13800
(
780.064
780.032
779.985
779.942
779.905
779.875
779.85
779.829
779.815
779.808
779.806
779.806
779.807
779.812
779.82
779.829
779.839
779.848
779.857
779.868
779.878
779.888
779.9
779.911
779.922
779.935
779.946
779.958
779.971
779.983
779.997
780.01
780.023
780.037
780.051
780.065
780.079
780.094
780.109
780.123
780.139
780.153
780.17
780.185
780.201
780.217
780.234
780.25
780.267
780.285
780.301
780.319
780.336
780.353
780.37
780.388
780.405
780.424
780.441
780.46
780.478
780.497
780.516
780.534
780.554
780.572
780.591
780.609
780.628
780.647
780.666
780.685
780.704
780.724
780.744
780.764
780.784
780.804
780.824
780.843
780.863
780.883
780.903
780.923
780.942
780.963
780.983
781.004
781.024
781.044
781.065
781.085
781.105
781.126
781.147
781.167
781.188
781.209
781.229
781.249
781.27
781.291
781.311
781.332
781.351
781.372
781.393
781.413
781.434
781.454
781.474
781.494
781.514
781.534
781.554
781.574
781.594
781.614
781.634
781.653
781.673
781.693
781.712
781.731
781.751
781.77
781.789
781.809
781.828
781.847
781.866
781.884
781.904
781.923
781.941
781.96
781.978
781.996
782.014
782.033
782.051
782.069
782.087
782.105
782.122
782.139
782.157
782.174
782.191
782.208
782.225
782.242
782.259
782.276
782.292
782.309
782.325
782.341
782.357
782.373
782.39
782.405
782.421
782.435
782.451
782.467
782.481
782.496
782.511
782.525
782.539
782.554
782.569
782.582
782.596
782.61
782.624
782.637
782.651
782.664
782.676
782.69
782.702
782.716
782.725
782.741
782.749
782.767
782.772
782.79
782.794
782.814
782.817
782.836
782.838
782.857
782.861
782.872
782.892
782.891
780.055
780.023
779.976
779.933
779.896
779.866
779.841
779.82
779.807
779.8
779.798
779.798
779.799
779.804
779.812
779.82
779.829
779.839
779.849
779.859
779.87
779.88
779.892
779.903
779.915
779.927
779.938
779.95
779.963
779.976
779.989
780.002
780.016
780.029
780.043
780.057
780.072
780.087
780.1
780.116
780.132
780.146
780.163
780.178
780.194
780.21
780.226
780.243
780.26
780.277
780.294
780.312
780.329
780.346
780.363
780.381
780.398
780.417
780.435
780.453
780.471
780.49
780.509
780.527
780.547
780.565
780.584
780.603
780.622
780.64
780.659
780.679
780.698
780.719
780.738
780.757
780.777
780.798
780.818
780.837
780.857
780.877
780.897
780.917
780.937
780.957
780.978
780.999
781.018
781.039
781.06
781.08
781.1
781.121
781.142
781.162
781.182
781.203
781.224
781.244
781.265
781.285
781.306
781.326
781.347
781.367
781.387
781.407
781.428
781.448
781.469
781.489
781.508
781.529
781.549
781.569
781.588
781.608
781.628
781.649
781.668
781.687
781.707
781.726
781.746
781.765
781.784
781.804
781.823
781.842
781.86
781.879
781.899
781.917
781.936
781.954
781.972
781.991
782.01
782.027
782.045
782.063
782.081
782.099
782.117
782.134
782.152
782.169
782.186
782.203
782.22
782.237
782.254
782.27
782.287
782.304
782.32
782.336
782.352
782.368
782.384
782.399
782.415
782.43
782.446
782.461
782.476
782.491
782.506
782.52
782.534
782.549
782.564
782.577
782.591
782.605
782.619
782.632
782.646
782.659
782.671
782.685
782.697
782.711
782.72
782.736
782.744
782.762
782.767
782.785
782.789
782.809
782.812
782.831
782.833
782.852
782.855
782.873
782.876
782.894
780.055
780.023
779.976
779.933
779.896
779.866
779.841
779.82
779.806
779.8
779.798
779.798
779.799
779.804
779.812
779.82
779.829
779.839
779.849
779.859
779.87
779.88
779.892
779.903
779.915
779.927
779.938
779.95
779.963
779.975
779.989
780.002
780.015
780.029
780.044
780.058
780.071
780.087
780.101
780.116
780.132
780.146
780.162
780.178
780.193
780.21
780.226
780.243
780.26
780.277
780.294
780.312
780.329
780.346
780.363
780.381
780.398
780.417
780.435
780.453
780.471
780.49
780.509
780.528
780.547
780.565
780.585
780.603
780.622
780.64
780.659
780.679
780.698
780.718
780.737
780.757
780.777
780.798
780.818
780.837
780.857
780.877
780.897
780.917
780.937
780.957
780.978
780.999
781.018
781.039
781.06
781.08
781.1
781.121
781.142
781.162
781.182
781.203
781.224
781.244
781.265
781.285
781.306
781.326
781.347
781.367
781.387
781.407
781.428
781.448
781.469
781.489
781.508
781.529
781.549
781.569
781.588
781.608
781.628
781.649
781.668
781.687
781.707
781.726
781.746
781.765
781.784
781.804
781.823
781.842
781.86
781.879
781.899
781.917
781.936
781.954
781.972
781.991
782.01
782.027
782.045
782.063
782.081
782.099
782.117
782.134
782.152
782.169
782.186
782.203
782.22
782.237
782.254
782.27
782.287
782.304
782.32
782.336
782.352
782.368
782.384
782.399
782.415
782.43
782.446
782.461
782.476
782.491
782.506
782.52
782.534
782.549
782.564
782.577
782.591
782.605
782.619
782.632
782.646
782.659
782.671
782.685
782.697
782.711
782.72
782.736
782.744
782.762
782.767
782.785
782.789
782.809
782.812
782.831
782.833
782.852
782.855
782.873
782.876
782.893
780.055
780.023
779.976
779.933
779.896
779.866
779.841
779.82
779.806
779.8
779.798
779.798
779.799
779.804
779.812
779.82
779.829
779.839
779.849
779.859
779.87
779.88
779.892
779.903
779.915
779.927
779.938
779.95
779.963
779.976
779.989
780.002
780.016
780.029
780.043
780.057
780.072
780.087
780.1
780.116
780.132
780.146
780.163
780.178
780.194
780.21
780.226
780.243
780.26
780.277
780.294
780.312
780.329
780.346
780.363
780.381
780.398
780.417
780.435
780.453
780.471
780.49
780.509
780.527
780.547
780.565
780.584
780.603
780.622
780.64
780.659
780.679
780.698
780.719
780.738
780.757
780.777
780.798
780.818
780.837
780.857
780.877
780.897
780.917
780.937
780.957
780.978
780.999
781.018
781.039
781.06
781.08
781.1
781.121
781.142
781.162
781.182
781.203
781.224
781.244
781.265
781.285
781.306
781.326
781.347
781.367
781.387
781.407
781.428
781.448
781.469
781.489
781.508
781.529
781.549
781.569
781.588
781.608
781.628
781.649
781.668
781.687
781.707
781.726
781.746
781.765
781.784
781.804
781.823
781.842
781.86
781.879
781.899
781.917
781.936
781.954
781.972
781.991
782.01
782.027
782.045
782.063
782.081
782.099
782.117
782.134
782.152
782.169
782.186
782.203
782.22
782.237
782.254
782.27
782.287
782.304
782.32
782.336
782.352
782.368
782.384
782.399
782.415
782.43
782.446
782.461
782.476
782.491
782.506
782.52
782.534
782.549
782.564
782.577
782.591
782.605
782.619
782.632
782.646
782.659
782.671
782.685
782.697
782.711
782.72
782.736
782.744
782.762
782.767
782.785
782.789
782.809
782.812
782.831
782.833
782.852
782.855
782.873
782.876
782.891
780.054
780.023
779.976
779.933
779.896
779.866
779.841
779.82
779.807
779.8
779.798
779.798
779.799
779.804
779.813
779.82
779.829
779.839
779.849
779.859
779.87
779.88
779.892
779.903
779.915
779.927
779.938
779.95
779.963
779.976
779.989
780.002
780.016
780.029
780.043
780.057
780.072
780.087
780.1
780.116
780.132
780.146
780.163
780.178
780.194
780.21
780.226
780.243
780.26
780.277
780.294
780.312
780.329
780.346
780.363
780.381
780.398
780.417
780.435
780.453
780.471
780.49
780.509
780.527
780.547
780.565
780.584
780.603
780.622
780.64
780.659
780.679
780.698
780.719
780.738
780.757
780.777
780.798
780.818
780.837
780.857
780.877
780.897
780.917
780.937
780.957
780.978
780.999
781.018
781.039
781.06
781.08
781.1
781.121
781.142
781.162
781.182
781.203
781.224
781.244
781.265
781.285
781.306
781.326
781.347
781.367
781.387
781.407
781.428
781.448
781.469
781.489
781.508
781.529
781.549
781.569
781.588
781.608
781.628
781.649
781.668
781.687
781.707
781.726
781.746
781.765
781.784
781.804
781.823
781.842
781.86
781.879
781.899
781.917
781.936
781.954
781.972
781.991
782.01
782.027
782.045
782.063
782.081
782.099
782.117
782.134
782.152
782.169
782.186
782.203
782.22
782.237
782.254
782.27
782.287
782.304
782.32
782.336
782.352
782.368
782.384
782.399
782.415
782.43
782.446
782.461
782.476
782.491
782.506
782.52
782.534
782.549
782.564
782.577
782.591
782.605
782.619
782.632
782.646
782.659
782.671
782.685
782.697
782.711
782.72
782.736
782.744
782.762
782.767
782.785
782.789
782.809
782.812
782.831
782.833
782.853
782.855
782.873
782.876
782.893
780.054
780.023
779.976
779.933
779.896
779.866
779.841
779.82
779.807
779.8
779.798
779.798
779.799
779.804
779.813
779.82
779.829
779.839
779.849
779.859
779.87
779.88
779.892
779.903
779.915
779.927
779.938
779.95
779.963
779.976
779.989
780.002
780.016
780.029
780.043
780.057
780.072
780.087
780.1
780.116
780.132
780.146
780.163
780.178
780.194
780.21
780.226
780.243
780.26
780.277
780.294
780.312
780.329
780.346
780.363
780.381
780.398
780.417
780.435
780.453
780.471
780.49
780.509
780.527
780.547
780.565
780.584
780.603
780.622
780.64
780.659
780.679
780.698
780.719
780.738
780.757
780.777
780.798
780.818
780.837
780.857
780.877
780.897
780.917
780.937
780.957
780.978
780.999
781.018
781.039
781.06
781.08
781.1
781.121
781.142
781.162
781.182
781.203
781.224
781.244
781.265
781.285
781.306
781.326
781.347
781.367
781.387
781.407
781.428
781.448
781.469
781.489
781.508
781.529
781.549
781.569
781.588
781.608
781.628
781.649
781.668
781.687
781.707
781.726
781.746
781.765
781.784
781.804
781.823
781.842
781.86
781.879
781.899
781.917
781.936
781.954
781.972
781.991
782.01
782.027
782.045
782.063
782.081
782.099
782.117
782.134
782.152
782.169
782.186
782.203
782.22
782.237
782.254
782.27
782.287
782.304
782.32
782.336
782.352
782.368
782.384
782.399
782.415
782.43
782.446
782.461
782.476
782.491
782.506
782.52
782.534
782.549
782.564
782.577
782.591
782.605
782.619
782.632
782.646
782.658
782.671
782.685
782.698
782.709
782.722
782.734
782.747
782.757
782.773
782.779
782.796
782.803
782.815
782.829
782.835
782.849
782.859
782.868
782.881
782.887
780.055
780.023
779.976
779.933
779.896
779.866
779.841
779.82
779.806
779.8
779.798
779.798
779.799
779.804
779.812
779.82
779.829
779.839
779.849
779.859
779.87
779.88
779.892
779.903
779.915
779.927
779.938
779.95
779.963
779.976
779.989
780.002
780.016
780.029
780.043
780.057
780.072
780.087
780.1
780.116
780.132
780.146
780.163
780.178
780.194
780.21
780.226
780.243
780.26
780.277
780.294
780.312
780.329
780.346
780.363
780.381
780.398
780.417
780.435
780.453
780.471
780.49
780.509
780.527
780.547
780.565
780.584
780.603
780.622
780.64
780.659
780.679
780.698
780.719
780.738
780.757
780.777
780.798
780.818
780.837
780.857
780.877
780.897
780.917
780.937
780.957
780.978
780.999
781.018
781.039
781.06
781.08
781.1
781.121
781.142
781.162
781.182
781.203
781.224
781.244
781.265
781.285
781.306
781.326
781.347
781.367
781.387
781.407
781.428
781.448
781.469
781.489
781.508
781.529
781.549
781.569
781.588
781.608
781.628
781.649
781.668
781.687
781.707
781.726
781.746
781.765
781.784
781.804
781.823
781.842
781.86
781.879
781.899
781.917
781.936
781.954
781.972
781.991
782.01
782.027
782.045
782.063
782.081
782.099
782.117
782.134
782.152
782.169
782.186
782.203
782.22
782.237
782.254
782.27
782.287
782.304
782.32
782.336
782.352
782.368
782.384
782.399
782.415
782.43
782.446
782.461
782.476
782.491
782.506
782.52
782.534
782.549
782.564
782.577
782.591
782.605
782.619
782.632
782.646
782.658
782.672
782.683
782.699
782.708
782.724
782.732
782.75
782.756
782.774
782.778
782.797
782.801
782.82
782.823
782.843
782.845
782.863
782.865
782.882
782.888
780.055
780.023
779.976
779.933
779.896
779.866
779.841
779.82
779.806
779.8
779.798
779.798
779.799
779.804
779.812
779.82
779.829
779.839
779.849
779.859
779.87
779.88
779.892
779.903
779.915
779.927
779.938
779.95
779.963
779.975
779.989
780.002
780.015
780.029
780.044
780.058
780.071
780.087
780.101
780.116
780.132
780.146
780.162
780.178
780.193
780.21
780.226
780.243
780.26
780.277
780.294
780.312
780.329
780.346
780.363
780.381
780.398
780.417
780.435
780.453
780.471
780.49
780.509
780.528
780.547
780.565
780.585
780.603
780.622
780.64
780.659
780.679
780.698
780.718
780.737
780.757
780.777
780.798
780.818
780.837
780.857
780.877
780.897
780.917
780.937
780.957
780.978
780.999
781.018
781.039
781.06
781.08
781.1
781.121
781.142
781.162
781.182
781.203
781.224
781.244
781.265
781.285
781.306
781.326
781.347
781.367
781.387
781.407
781.428
781.448
781.469
781.489
781.508
781.529
781.549
781.569
781.588
781.608
781.628
781.649
781.668
781.687
781.707
781.726
781.746
781.765
781.784
781.804
781.823
781.842
781.86
781.879
781.899
781.917
781.936
781.954
781.972
781.991
782.01
782.027
782.045
782.063
782.081
782.099
782.117
782.134
782.152
782.169
782.186
782.203
782.22
782.237
782.254
782.27
782.287
782.304
782.32
782.336
782.352
782.368
782.384
782.399
782.415
782.43
782.446
782.461
782.476
782.491
782.506
782.52
782.534
782.549
782.564
782.577
782.591
782.605
782.619
782.632
782.646
782.658
782.672
782.683
782.699
782.708
782.724
782.732
782.75
782.756
782.774
782.778
782.797
782.801
782.82
782.822
782.842
782.844
782.863
782.865
782.887
782.889
780.055
780.023
779.976
779.933
779.896
779.866
779.841
779.82
779.807
779.8
779.798
779.798
779.799
779.804
779.812
779.82
779.829
779.839
779.849
779.859
779.87
779.88
779.892
779.903
779.915
779.927
779.938
779.95
779.963
779.976
779.989
780.002
780.016
780.029
780.043
780.057
780.072
780.087
780.1
780.116
780.132
780.146
780.163
780.178
780.194
780.21
780.226
780.243
780.26
780.277
780.294
780.312
780.329
780.346
780.363
780.381
780.398
780.417
780.435
780.453
780.471
780.49
780.509
780.527
780.547
780.565
780.584
780.603
780.622
780.64
780.659
780.679
780.698
780.719
780.738
780.757
780.777
780.798
780.818
780.837
780.857
780.877
780.897
780.917
780.937
780.957
780.978
780.999
781.018
781.039
781.06
781.08
781.1
781.121
781.142
781.162
781.182
781.203
781.224
781.244
781.265
781.285
781.306
781.326
781.347
781.367
781.387
781.407
781.428
781.448
781.469
781.489
781.508
781.529
781.549
781.569
781.588
781.608
781.628
781.649
781.668
781.687
781.707
781.726
781.746
781.765
781.784
781.804
781.823
781.842
781.86
781.879
781.899
781.917
781.936
781.954
781.972
781.991
782.01
782.027
782.045
782.063
782.081
782.099
782.117
782.134
782.152
782.169
782.186
782.203
782.22
782.237
782.254
782.27
782.287
782.304
782.32
782.336
782.352
782.368
782.384
782.399
782.415
782.43
782.446
782.461
782.476
782.491
782.506
782.52
782.534
782.549
782.564
782.577
782.591
782.605
782.619
782.632
782.646
782.658
782.672
782.683
782.699
782.708
782.724
782.732
782.75
782.755
782.774
782.778
782.798
782.801
782.82
782.823
782.842
782.845
782.864
782.865
782.888
782.893
780.064
780.032
779.985
779.942
779.905
779.875
779.85
779.829
779.815
779.808
779.806
779.806
779.807
779.812
779.82
779.829
779.839
779.848
779.857
779.868
779.878
779.888
779.9
779.911
779.922
779.935
779.946
779.958
779.971
779.983
779.997
780.01
780.023
780.037
780.051
780.065
780.079
780.094
780.109
780.123
780.139
780.153
780.17
780.185
780.201
780.217
780.234
780.25
780.267
780.285
780.301
780.319
780.336
780.353
780.37
780.388
780.405
780.424
780.441
780.46
780.478
780.497
780.516
780.534
780.554
780.572
780.591
780.609
780.628
780.647
780.666
780.685
780.704
780.724
780.744
780.764
780.784
780.804
780.824
780.843
780.863
780.883
780.903
780.923
780.942
780.963
780.983
781.004
781.024
781.044
781.065
781.085
781.105
781.126
781.147
781.167
781.188
781.209
781.229
781.249
781.27
781.291
781.311
781.332
781.351
781.372
781.393
781.413
781.434
781.454
781.474
781.494
781.514
781.534
781.554
781.574
781.594
781.614
781.634
781.653
781.673
781.693
781.712
781.731
781.751
781.77
781.789
781.809
781.828
781.847
781.866
781.884
781.904
781.923
781.941
781.96
781.978
781.996
782.014
782.033
782.051
782.069
782.087
782.105
782.122
782.139
782.157
782.174
782.191
782.208
782.225
782.242
782.259
782.276
782.292
782.309
782.325
782.341
782.357
782.373
782.39
782.405
782.421
782.435
782.451
782.467
782.481
782.496
782.511
782.525
782.539
782.554
782.569
782.582
782.596
782.61
782.624
782.637
782.651
782.663
782.677
782.688
782.704
782.713
782.729
782.737
782.755
782.761
782.779
782.783
782.803
782.806
782.825
782.827
782.847
782.85
782.869
782.87
782.897
782.897
782.895
782.902
782.907
782.914
782.923
782.933
782.942
782.949
782.954
782.957
782.96
782.963
782.965
782.968
782.971
782.973
782.976
782.978
782.981
782.982
782.901
782.904
782.908
782.912
782.917
782.923
782.929
782.935
782.941
782.946
782.951
782.955
782.957
782.96
782.961
782.963
782.965
782.966
782.968
782.969
782.903
782.906
782.91
782.914
782.917
782.922
782.926
782.931
782.938
782.941
782.948
782.951
782.957
782.958
782.961
782.961
782.963
782.964
782.965
782.967
782.898
782.902
782.906
782.908
782.912
782.914
782.918
782.921
782.925
782.929
782.934
782.939
782.945
782.949
782.957
782.96
782.965
782.968
782.971
782.973
782.899
782.901
782.904
782.905
782.907
782.908
782.91
782.912
782.914
782.917
782.918
782.92
782.921
782.923
782.925
782.927
782.929
782.931
782.932
782.935
782.896
782.898
782.9
782.901
782.904
782.905
782.908
782.91
782.913
782.914
782.918
782.919
782.923
782.927
782.932
782.936
782.942
782.947
782.952
782.956
782.894
782.896
782.897
782.899
782.9
782.901
782.902
782.902
782.903
782.904
782.904
782.905
782.905
782.905
782.905
782.905
782.905
782.905
782.905
782.905
782.893
782.895
782.897
782.898
782.9
782.901
782.903
782.904
782.905
782.906
782.907
782.907
782.907
782.906
782.904
782.903
782.901
782.9
782.899
782.9
782.896
782.896
782.896
782.897
782.897
782.897
782.897
782.897
782.895
782.894
782.892
782.89
782.888
782.886
782.884
782.882
782.881
782.88
782.879
782.878
782.898
782.897
782.897
782.896
782.895
782.894
782.892
782.891
782.889
782.888
782.886
782.885
782.883
782.881
782.88
782.879
782.878
782.879
782.88
782.881
782.984
782.992
782.995
782.997
782.999
783.004
783.009
783.01
783.013
783.017
783.022
783.027
783.033
783.038
783.043
783.048
783.052
783.058
783.062
783.067
783.072
783.077
783.083
783.088
783.093
783.097
783.103
783.107
783.111
783.115
783.119
783.123
783.127
783.131
783.136
783.139
783.143
783.147
783.15
783.154
783.158
783.16
783.163
783.167
783.169
783.172
783.176
783.178
783.181
783.184
783.186
783.188
783.191
783.193
783.196
783.198
783.201
783.202
783.204
783.207
783.209
783.21
783.213
783.214
783.216
783.218
783.22
783.222
783.223
783.224
783.226
783.227
783.229
783.23
783.231
783.232
783.234
783.235
783.237
783.237
783.237
783.236
783.233
783.232
783.233
783.235
783.237
783.234
783.222
783.209
783.201
783.21
783.278
783.559
784.261
785.031
785.731
786.312
786.736
786.991
787.089
787.096
787.037
786.692
785.761
784.837
784.114
783.608
783.291
783.117
783.031
782.997
783
783.055
783.122
783.166
783.195
783.214
783.224
783.232
783.236
783.239
783.241
783.242
783.243
783.244
783.243
783.244
783.245
783.244
783.245
783.245
783.245
783.245
783.244
783.245
783.245
783.244
783.245
783.245
783.244
783.244
783.244
783.244
783.244
783.244
783.243
783.242
783.244
783.242
783.242
783.243
783.242
783.241
783.242
783.242
783.241
783.241
783.241
783.24
783.24
783.239
783.24
783.239
783.239
783.239
783.239
783.239
783.238
783.238
783.238
783.237
783.237
783.237
783.237
783.236
783.236
783.235
783.236
783.235
783.236
783.233
783.237
783.233
783.237
783.232
783.237
783.23
783.236
783.23
783.236
783.23
783.235
783.23
783.235
783.229
783.235
783.228
783.237
783.233
782.97
782.977
782.986
782.987
782.988
782.992
782.996
782.999
783.002
783.004
783.008
783.014
783.019
783.023
783.028
783.033
783.037
783.042
783.048
783.052
783.057
783.062
783.067
783.072
783.077
783.082
783.086
783.091
783.095
783.1
783.104
783.108
783.111
783.115
783.12
783.123
783.127
783.131
783.134
783.138
783.142
783.144
783.147
783.151
783.153
783.156
783.16
783.162
783.165
783.168
783.171
783.173
783.175
783.178
783.18
783.182
783.184
783.186
783.188
783.19
783.193
783.194
783.197
783.198
783.2
783.201
783.203
783.205
783.207
783.208
783.209
783.211
783.212
783.214
783.216
783.216
783.218
783.22
783.22
783.221
783.222
783.222
783.222
783.222
783.224
783.227
783.229
783.227
783.222
783.214
783.202
783.191
783.174
783.151
783.124
783.099
783.085
783.092
783.154
783.278
783.405
783.525
783.622
783.675
783.683
783.675
783.634
783.513
783.393
783.308
783.249
783.209
783.185
783.18
783.191
783.207
783.217
783.224
783.228
783.231
783.234
783.235
783.237
783.237
783.238
783.239
783.239
783.239
783.24
783.241
783.24
783.24
783.24
783.241
783.24
783.24
783.241
783.24
783.24
783.24
783.24
783.24
783.24
783.239
783.239
783.239
783.239
783.238
783.239
783.238
783.239
783.238
783.238
783.237
783.237
783.237
783.237
783.237
783.236
783.236
783.236
783.235
783.236
783.235
783.234
783.235
783.234
783.234
783.233
783.233
783.233
783.233
783.232
783.233
783.233
783.232
783.232
783.231
783.232
783.231
783.232
783.228
783.232
783.228
783.232
783.227
783.232
783.227
783.231
783.226
783.231
783.226
783.231
783.226
783.23
783.225
783.231
783.224
783.23
783.229
782.968
782.976
782.984
782.986
782.989
782.993
782.998
783.002
783.004
783.007
783.011
783.016
783.022
783.026
783.031
783.036
783.04
783.045
783.05
783.056
783.06
783.065
783.07
783.075
783.08
783.085
783.089
783.095
783.098
783.103
783.107
783.11
783.115
783.118
783.122
783.126
783.13
783.134
783.137
783.141
783.144
783.147
783.15
783.154
783.156
783.159
783.163
783.165
783.167
783.171
783.173
783.175
783.178
783.18
783.182
783.184
783.186
783.189
783.191
783.193
783.195
783.196
783.199
783.2
783.203
783.205
783.206
783.208
783.21
783.211
783.212
783.214
783.216
783.217
783.219
783.219
783.221
783.222
783.223
783.225
783.225
783.226
783.227
783.226
783.225
783.226
783.231
783.236
783.241
783.231
783.214
783.189
783.149
783.087
783.03
782.986
782.95
782.92
782.894
782.879
782.889
782.955
783.054
783.143
783.219
783.275
783.31
783.324
783.321
783.307
783.287
783.269
783.254
783.243
783.237
783.234
783.233
783.233
783.234
783.235
783.235
783.237
783.238
783.237
783.239
783.239
783.239
783.239
783.24
783.241
783.24
783.24
783.24
783.241
783.24
783.24
783.241
783.24
783.24
783.24
783.24
783.24
783.24
783.239
783.239
783.238
783.239
783.238
783.239
783.238
783.239
783.238
783.238
783.237
783.237
783.237
783.237
783.237
783.236
783.236
783.236
783.235
783.236
783.235
783.234
783.235
783.234
783.234
783.233
783.233
783.233
783.233
783.232
783.233
783.233
783.232
783.232
783.231
783.232
783.231
783.232
783.228
783.232
783.228
783.232
783.227
783.232
783.227
783.231
783.226
783.231
783.226
783.23
783.226
783.23
783.225
783.231
783.224
783.229
783.227
782.973
782.98
782.992
783
783.006
783.01
783.018
783.025
783.032
783.037
783.042
783.048
783.054
783.06
783.065
783.07
783.075
783.082
783.086
783.091
783.096
783.102
783.106
783.112
783.117
783.122
783.126
783.131
783.135
783.139
783.144
783.147
783.151
783.156
783.159
783.163
783.167
783.171
783.174
783.177
783.18
783.183
783.188
783.19
783.193
783.196
783.199
783.202
783.205
783.207
783.21
783.213
783.215
783.217
783.22
783.221
783.224
783.225
783.228
783.23
783.232
783.233
783.236
783.237
783.239
783.241
783.243
783.244
783.246
783.247
783.248
783.25
783.251
783.253
783.254
783.255
783.256
783.257
783.257
783.258
783.257
783.256
783.254
783.254
783.255
783.258
783.261
783.264
783.258
783.241
783.217
783.183
783.131
783.083
783.044
783.012
782.982
782.957
782.941
782.945
782.985
783.042
783.094
783.142
783.18
783.21
783.229
783.242
783.247
783.248
783.246
783.243
783.24
783.238
783.237
783.237
783.236
783.236
783.237
783.238
783.238
783.239
783.24
783.239
783.241
783.24
783.24
783.241
783.241
783.24
783.241
783.24
783.241
783.241
783.24
783.24
783.241
783.241
783.241
783.24
783.24
783.24
783.24
783.239
783.239
783.238
783.239
783.238
783.239
783.238
783.239
783.238
783.238
783.237
783.237
783.237
783.237
783.237
783.236
783.236
783.236
783.235
783.236
783.235
783.234
783.235
783.234
783.234
783.233
783.233
783.233
783.233
783.232
783.233
783.233
783.232
783.232
783.231
783.231
783.231
783.232
783.229
783.231
783.228
783.231
783.228
783.232
783.227
783.232
783.226
783.231
783.226
783.23
783.226
783.231
783.226
783.23
783.224
783.227
783.227
782.94
782.949
782.956
782.963
782.97
782.976
782.981
782.984
782.987
782.992
782.997
783.003
783.009
783.014
783.02
783.025
783.031
783.036
783.042
783.047
783.051
783.056
783.061
783.066
783.071
783.076
783.08
783.085
783.088
783.093
783.097
783.101
783.106
783.109
783.113
783.117
783.121
783.125
783.128
783.131
783.134
783.137
783.141
783.144
783.148
783.15
783.153
783.156
783.159
783.161
783.164
783.166
783.168
783.171
783.174
783.176
783.178
783.18
783.182
783.184
783.186
783.187
783.19
783.191
783.194
783.195
783.197
783.2
783.201
783.202
783.204
783.206
783.208
783.209
783.211
783.212
783.213
783.215
783.216
783.218
783.218
783.22
783.222
783.224
783.225
783.226
783.226
783.228
783.234
783.239
783.237
783.225
783.206
783.18
783.153
783.126
783.101
783.082
783.07
783.069
783.08
783.098
783.12
783.142
783.164
783.183
783.198
783.209
783.218
783.225
783.228
783.232
783.233
783.234
783.236
783.236
783.238
783.238
783.238
783.239
783.239
783.239
783.24
783.239
783.241
783.24
783.24
783.241
783.241
783.24
783.241
783.24
783.241
783.241
783.24
783.24
783.241
783.241
783.241
783.24
783.24
783.24
783.24
783.239
783.239
783.238
783.239
783.238
783.239
783.238
783.239
783.238
783.238
783.237
783.237
783.237
783.237
783.237
783.236
783.236
783.236
783.235
783.236
783.235
783.234
783.235
783.234
783.234
783.233
783.233
783.233
783.233
783.232
783.233
783.233
783.232
783.232
783.231
783.231
783.232
783.231
783.23
783.229
783.23
783.229
783.229
783.23
783.229
783.229
783.229
783.227
783.23
783.227
783.228
783.229
783.226
783.229
783.227
783.227
783.226
782.96
782.978
782.998
783.018
783.035
783.05
783.063
783.076
783.089
783.099
783.109
783.116
783.125
783.131
783.138
783.143
783.149
783.155
783.161
783.165
783.171
783.176
783.181
783.186
783.191
783.195
783.2
783.205
783.209
783.213
783.218
783.222
783.225
783.23
783.234
783.237
783.24
783.244
783.248
783.252
783.255
783.258
783.261
783.264
783.266
783.27
783.273
783.275
783.277
783.28
783.283
783.286
783.288
783.29
783.292
783.294
783.296
783.297
783.299
783.301
783.303
783.304
783.306
783.306
783.307
783.308
783.308
783.308
783.308
783.308
783.309
783.309
783.308
783.307
783.306
783.304
783.303
783.301
783.299
783.298
783.298
783.3
783.301
783.302
783.302
783.298
783.284
783.265
783.243
783.218
783.192
783.169
783.151
783.139
783.126
783.115
783.108
783.108
783.112
783.121
783.134
783.15
783.168
783.185
783.199
783.211
783.22
783.227
783.231
783.235
783.237
783.239
783.241
783.241
783.241
783.241
783.242
783.242
783.242
783.241
783.241
783.241
783.242
783.241
783.242
783.241
783.241
783.241
783.241
783.24
783.241
783.24
783.241
783.241
783.24
783.24
783.241
783.241
783.241
783.24
783.24
783.24
783.24
783.239
783.239
783.238
783.239
783.238
783.239
783.238
783.239
783.238
783.238
783.237
783.237
783.237
783.237
783.237
783.236
783.236
783.236
783.235
783.236
783.235
783.234
783.235
783.234
783.234
783.233
783.233
783.233
783.233
783.232
783.233
783.233
783.232
783.231
783.232
783.23
783.232
783.23
783.231
783.228
783.232
783.228
783.232
783.227
783.231
783.226
783.231
783.226
783.231
783.226
783.231
783.225
783.23
783.226
783.229
783.225
783.229
782.903
782.9
782.901
782.905
782.912
782.917
782.924
782.929
782.935
782.94
782.944
782.95
782.956
782.962
782.968
782.974
782.98
782.985
782.99
782.995
783
783.005
783.01
783.013
783.018
783.022
783.026
783.031
783.035
783.039
783.043
783.047
783.051
783.055
783.059
783.063
783.066
783.071
783.074
783.078
783.081
783.085
783.086
783.09
783.094
783.096
783.1
783.102
783.105
783.108
783.111
783.113
783.115
783.118
783.121
783.123
783.125
783.127
783.129
783.131
783.133
783.135
783.136
783.138
783.14
783.142
783.143
783.145
783.147
783.149
783.15
783.151
783.152
783.153
783.155
783.157
783.159
783.159
783.16
783.162
783.164
783.165
783.166
783.167
783.168
783.171
783.174
783.175
783.175
783.177
783.177
783.179
783.184
783.196
783.208
783.211
783.206
783.193
783.173
783.145
783.117
783.097
783.093
783.109
783.135
783.16
783.182
783.2
783.213
783.223
783.228
783.233
783.237
783.239
783.24
783.241
783.242
783.242
783.241
783.242
783.241
783.241
783.242
783.242
783.242
783.241
783.24
783.241
783.241
783.24
783.241
783.24
783.241
783.241
783.24
783.24
783.241
783.241
783.241
783.24
783.24
783.24
783.24
783.239
783.239
783.238
783.239
783.238
783.239
783.238
783.239
783.238
783.238
783.237
783.237
783.237
783.237
783.237
783.236
783.236
783.236
783.235
783.236
783.235
783.234
783.235
783.234
783.234
783.233
783.233
783.233
783.233
783.232
783.233
783.233
783.232
783.231
783.232
783.23
783.232
783.23
783.231
783.228
783.232
783.228
783.232
783.227
783.231
783.226
783.231
783.226
783.231
783.226
783.231
783.225
783.229
783.225
783.228
783.228
783.227
782.899
782.916
782.938
782.961
782.984
783.005
783.026
783.045
783.064
783.08
783.094
783.107
783.117
783.125
783.132
783.139
783.145
783.151
783.157
783.162
783.166
783.171
783.176
783.181
783.186
783.19
783.195
783.2
783.204
783.209
783.214
783.217
783.221
783.225
783.228
783.232
783.236
783.239
783.242
783.245
783.248
783.251
783.254
783.256
783.258
783.261
783.265
783.267
783.269
783.271
783.274
783.276
783.279
783.28
783.282
783.285
783.287
783.29
783.292
783.295
783.296
783.298
783.3
783.302
783.303
783.304
783.305
783.306
783.306
783.305
783.305
783.305
783.303
783.302
783.3
783.299
783.298
783.298
783.3
783.302
783.302
783.303
783.305
783.309
783.311
783.312
783.311
783.306
783.295
783.278
783.257
783.237
783.215
783.194
783.176
783.158
783.143
783.132
783.125