/*--------------------------------*- C++ -*----------------------------------*\
| =========                 |                                                 |
| \\      /  F ield         | OpenFOAM: The Open Source CFD Toolbox           |
|  \\    /   O peration     | Version:  3.0.x                                 |
|   \\  /    A nd           | Web:      www.OpenFOAM.org                      |
|    \\/     M anipulation  |                                                 |
\*---------------------------------------------------------------------------*/
FoamFile
{
    version     2.0;
    format      ascii;
    class       surfaceScalarField;
    location    "0.34";
    object      phi;
}
// * * * * * * * * * * * * * * * * * * * * * * * * * * * * * * * * * * * * * //

dimensions      [1 0 -1 0 0 0 0];

internalField   nonuniform List<scalar> 
12415
(
5.79667
0.000327745
5.79636
0.000235178
5.79606
0.000224555
5.79576
0.00022666
5.79546
0.000227115
5.79517
0.000226901
5.79488
0.000226841
5.79459
0.000226848
5.79431
0.000226859
5.79404
0.000226876
5.79377
0.000226905
5.79351
0.000226934
5.79326
0.000226996
5.79301
0.000227057
5.79279
0.000227242
5.79258
0.000227127
5.79237
0.000227299
5.79216
0.000227388
5.79196
0.000227474
5.79175
0.000227561
5.79154
0.000227649
5.79133
0.000227734
5.79111
0.000227821
5.79089
0.000227871
5.79067
0.000228056
5.79045
0.000228117
5.79023
0.000228226
5.79
0.000228344
5.78977
0.000228459
5.78952
0.00022858
5.78927
0.000228702
5.78901
0.000228818
5.78873
0.000228924
5.78844
0.000229014
5.78814
0.000229078
5.78782
0.000229102
5.78748
0.000229066
5.78714
0.000228948
5.78679
0.000228712
5.78645
0.000228288
5.78611
0.000227711
5.78577
0.000226793
5.78545
0.000225535
5.78513
0.000223825
5.78482
0.00022157
5.78452
0.000218669
5.78424
0.000215026
5.78397
0.00021055
5.78371
0.000205169
5.78348
0.000198831
5.78326
0.000191515
5.78307
0.000183228
5.7829
0.000174029
5.78276
0.000163988
5.78264
0.000153241
5.78254
0.000141945
5.78246
0.00013024
5.7824
0.000118349
5.78236
0.000106461
5.78232
9.47684e-05
5.7823
8.34528e-05
5.78229
7.26732e-05
5.78228
6.25634e-05
5.78226
5.32255e-05
5.78225
4.4729e-05
5.78222
3.71122e-05
5.78219
3.03852e-05
5.78215
2.45214e-05
5.78209
1.94857e-05
5.78202
1.5222e-05
5.78193
1.16632e-05
5.78183
8.72772e-06
5.78172
6.34239e-06
5.78159
4.42681e-06
5.78145
2.90886e-06
5.78131
1.72115e-06
5.78115
8.02418e-07
5.781
1.0111e-07
5.78085
-4.28345e-07
5.78071
-8.22614e-07
5.78057
-1.11306e-06
5.78045
-1.32537e-06
5.78034
-1.47904e-06
5.78026
-1.59018e-06
5.78019
-1.67007e-06
5.78015
-1.72768e-06
5.78013
-1.76958e-06
5.78014
-1.80052e-06
5.78017
-1.82237e-06
5.78022
-1.83821e-06
5.7803
-1.85274e-06
5.7804
-1.8631e-06
5.78051
-1.87044e-06
5.78064
-1.87632e-06
5.78078
-1.88011e-06
5.78092
-1.88249e-06
5.78106
-1.88353e-06
5.78121
-1.88343e-06
5.78134
-1.88236e-06
5.78146
-1.87988e-06
5.78157
-1.87613e-06
5.78166
-1.87095e-06
5.78172
-1.86462e-06
5.78176
-1.85796e-06
5.78177
-1.85336e-06
5.78175
-1.83962e-06
5.7817
-1.83961e-06
5.78163
-1.8259e-06
5.78153
-1.8191e-06
5.78139
-1.81187e-06
5.78124
-1.80592e-06
5.78107
-1.80002e-06
5.78088
-1.79626e-06
5.78069
-1.79383e-06
5.78049
-1.79296e-06
5.78029
-1.79391e-06
5.7801
-1.79658e-06
5.77993
-1.80125e-06
5.77978
-1.80782e-06
5.77965
-1.8161e-06
5.77955
-1.8247e-06
5.77949
-1.83406e-06
5.77946
-1.84301e-06
5.77946
-1.84788e-06
5.7795
-1.86553e-06
5.77957
-1.87271e-06
5.77968
-1.88177e-06
5.77981
-1.88996e-06
5.77997
-1.89704e-06
5.78015
-1.9019e-06
5.78034
-1.90573e-06
5.78054
-1.90751e-06
5.78075
-1.90744e-06
5.78095
-1.90569e-06
5.78114
-1.90238e-06
5.78132
-1.89711e-06
5.78147
-1.89029e-06
5.7816
-1.88185e-06
5.7817
-1.87296e-06
5.78176
-1.86088e-06
5.78178
-1.8224e-06
5.78175
-1.96673e-06
5.78169
-1.74753e-06
5.78157
-1.7817e-06
5.78142
-1.80094e-06
5.78122
-1.77859e-06
5.78098
-1.77373e-06
5.7807
-1.76101e-06
5.7804
-1.75685e-06
5.78008
-1.7488e-06
5.77976
-1.74913e-06
5.77943
-1.74956e-06
5.77912
-1.75646e-06
5.77883
-1.76207e-06
5.77857
-1.77606e-06
5.77835
-1.78749e-06
5.77818
-1.80414e-06
5.77805
-1.82122e-06
5.77799
-1.82762e-06
5.77797
-1.93381e-06
5.77801
-1.81174e-06
5.77809
-1.86815e-06
5.77822
-1.92557e-06
5.77838
-1.9115e-06
5.77857
-1.92959e-06
5.77879
-1.92978e-06
5.77901
-1.93929e-06
5.77925
-1.93889e-06
5.77949
-1.94156e-06
5.77972
-1.93567e-06
5.77993
-1.9363e-06
5.78013
-1.92445e-06
5.7803
-1.92322e-06
5.78043
-1.90363e-06
5.78053
-1.90134e-06
5.78056
-1.87966e-06
5.78054
-1.86698e-06
5.78045
-1.84719e-06
5.78029
-1.84223e-06
5.78005
-1.78697e-06
5.77973
-1.78584e-06
5.77933
-1.75244e-06
5.77886
-1.73973e-06
5.77833
-1.71824e-06
5.77774
-1.71306e-06
5.77711
-1.69609e-06
5.77645
-1.69897e-06
5.77579
-1.68234e-06
5.77514
-1.72637e-06
5.77453
-1.69554e-06
5.77398
-1.75852e-06
5.77351
-1.6462e-06
5.77313
-1.14413e-06
5.77284
2.93465e-06
5.77261
3.23834e-05
5.77227
0.00023525
5.77059
0.00165472
5.75909
0.0115259
5.66873
0.0904112
0.446821
5.22198
11.5941
0.00026051
11.594
0.000215953
11.5939
0.000189201
11.5937
0.000193988
11.5936
0.000195319
11.5935
0.000194716
11.5934
0.000194551
11.5933
0.000194568
11.5933
0.000194584
11.5932
0.000194602
11.5932
0.000194631
11.5931
0.000194668
11.5931
0.000194726
11.5931
0.00019479
11.5931
0.000194924
11.5932
0.000194894
11.5933
0.000195016
11.5933
0.000195111
11.5934
0.000195194
11.5935
0.00019528
11.5936
0.000195366
11.5936
0.00019545
11.5937
0.000195535
11.5937
0.000195603
11.5938
0.000195748
11.5938
0.000195825
11.5939
0.000195928
11.5939
0.00019604
11.5939
0.000196151
11.5939
0.000196266
11.5939
0.000196382
11.5939
0.000196493
11.5938
0.000196596
11.5937
0.000196685
11.5936
0.000196751
11.5934
0.000196782
11.5933
0.000196764
11.5931
0.000196672
11.5929
0.00019648
11.5927
0.000196127
11.5925
0.000195638
11.5923
0.000194855
11.5921
0.000193781
11.592
0.000192314
11.5918
0.000190376
11.5917
0.000187881
11.5916
0.000184743
11.5915
0.000180887
11.5914
0.000176249
11.5914
0.000170785
11.5913
0.000164478
11.5914
0.000157335
11.5914
0.000149407
11.5915
0.000140759
11.5915
0.000131506
11.5916
0.000121758
11.5918
0.000111697
11.5919
0.000101466
11.592
9.12418e-05
11.5922
8.11914e-05
11.5923
7.14699e-05
11.5924
6.22129e-05
11.5925
5.35359e-05
11.5926
4.55259e-05
11.5927
3.82414e-05
11.5927
3.17149e-05
11.5927
2.59531e-05
11.5927
2.09349e-05
11.5926
1.66259e-05
11.5925
1.29797e-05
11.5924
9.94029e-06
11.5922
7.43396e-06
11.592
5.3968e-06
11.5917
3.76333e-06
11.5914
2.46964e-06
11.5912
1.45867e-06
11.5909
6.76374e-07
11.5906
8.13982e-08
11.5903
-3.70266e-07
11.59
-7.0596e-07
11.5897
-9.53994e-07
11.5894
-1.13555e-06
11.5892
-1.26728e-06
11.589
-1.36263e-06
11.5889
-1.43125e-06
11.5888
-1.48083e-06
11.5888
-1.51677e-06
11.5888
-1.54382e-06
11.5888
-1.56095e-06
11.589
-1.57715e-06
11.5891
-1.58863e-06
11.5893
-1.59769e-06
11.5895
-1.60376e-06
11.5898
-1.60887e-06
11.59
-1.61213e-06
11.5903
-1.61418e-06
11.5906
-1.61503e-06
11.5909
-1.61496e-06
11.5911
-1.61411e-06
11.5914
-1.61194e-06
11.5916
-1.60874e-06
11.5918
-1.60426e-06
11.5919
-1.5989e-06
11.592
-1.5932e-06
11.592
-1.5886e-06
11.5919
-1.57893e-06
11.5918
-1.5749e-06
11.5917
-1.56682e-06
11.5915
-1.5601e-06
11.5912
-1.55379e-06
11.5909
-1.54854e-06
11.5905
-1.54348e-06
11.5902
-1.54024e-06
11.5898
-1.53818e-06
11.5894
-1.53742e-06
11.589
-1.53827e-06
11.5886
-1.54057e-06
11.5882
-1.54451e-06
11.5879
-1.55021e-06
11.5877
-1.55726e-06
11.5875
-1.56465e-06
11.5873
-1.57264e-06
11.5873
-1.58022e-06
11.5873
-1.5852e-06
11.5874
-1.59894e-06
11.5875
-1.60616e-06
11.5877
-1.61346e-06
11.588
-1.6206e-06
11.5883
-1.62662e-06
11.5886
-1.6309e-06
11.589
-1.63411e-06
11.5894
-1.63561e-06
11.5898
-1.6356e-06
11.5902
-1.63405e-06
11.5906
-1.63128e-06
11.5909
-1.62662e-06
11.5912
-1.62113e-06
11.5915
-1.61329e-06
11.5917
-1.60662e-06
11.5918
-1.59393e-06
11.5918
-1.57069e-06
11.5918
-1.68181e-06
11.5916
-1.50647e-06
11.5914
-1.51249e-06
11.5911
-1.55392e-06
11.5907
-1.51862e-06
11.5902
-1.52434e-06
11.5897
-1.50778e-06
11.5891
-1.51024e-06
11.5884
-1.49651e-06
11.5878
-1.50033e-06
11.5871
-1.49923e-06
11.5865
-1.50776e-06
11.5859
-1.50919e-06
11.5854
-1.52539e-06
11.5849
-1.53099e-06
11.5846
-1.54695e-06
11.5843
-1.5602e-06
11.5842
-1.55122e-06
11.5841
-1.79157e-06
11.5842
-1.44656e-06
11.5844
-1.55619e-06
11.5846
-1.69601e-06
11.5849
-1.6272e-06
11.5853
-1.66336e-06
11.5857
-1.64925e-06
11.5862
-1.66546e-06
11.5867
-1.66073e-06
11.5871
-1.66855e-06
11.5876
-1.65514e-06
11.588
-1.66548e-06
11.5884
-1.64353e-06
11.5887
-1.65704e-06
11.589
-1.62108e-06
11.5892
-1.6397e-06
11.5893
-1.60707e-06
11.5892
-1.60832e-06
11.589
-1.57137e-06
11.5887
-1.61147e-06
11.5882
-1.50538e-06
11.5876
-1.54237e-06
11.5868
-1.49178e-06
11.5858
-1.49577e-06
11.5848
-1.46591e-06
11.5836
-1.47744e-06
11.5823
-1.44751e-06
11.581
-1.46619e-06
11.5797
-1.41317e-06
11.5784
-1.52561e-06
11.5771
-1.39951e-06
11.576
-1.53677e-06
11.5751
-1.14204e-06
11.5743
4.14397e-07
11.5737
1.25516e-05
11.5733
9.98494e-05
11.5726
0.000700837
11.5693
0.00490384
11.5469
0.0339695
11.3979
0.239492
1.1253
10.7196
139.129
-0.00026051
139.128
-0.000215953
139.126
-0.000189201
139.125
-0.000193988
139.123
-0.000195319
139.122
-0.000194716
139.121
-0.000194551
139.12
-0.000194568
139.119
-0.000194584
139.118
-0.000194602
139.118
-0.000194631
139.117
-0.000194668
139.117
-0.000194726
139.117
-0.00019479
139.117
-0.000194924
139.118
-0.000194894
139.119
-0.000195016
139.12
-0.000195111
139.121
-0.000195194
139.122
-0.00019528
139.123
-0.000195366
139.123
-0.00019545
139.124
-0.000195535
139.125
-0.000195603
139.125
-0.000195748
139.126
-0.000195825
139.126
-0.000195928
139.127
-0.00019604
139.127
-0.000196151
139.127
-0.000196266
139.127
-0.000196382
139.126
-0.000196493
139.126
-0.000196596
139.124
-0.000196685
139.123
-0.000196751
139.121
-0.000196782
139.119
-0.000196764
139.117
-0.000196672
139.114
-0.00019648
139.112
-0.000196127
139.11
-0.000195638
139.107
-0.000194855
139.105
-0.000193781
139.103
-0.000192314
139.102
-0.000190376
139.1
-0.000187881
139.099
-0.000184743
139.098
-0.000180887
139.097
-0.000176249
139.096
-0.000170785
139.096
-0.000164478
139.096
-0.000157335
139.097
-0.000149407
139.097
-0.000140759
139.099
-0.000131506
139.1
-0.000121758
139.101
-0.000111697
139.103
-0.000101466
139.105
-9.12418e-05
139.106
-8.11914e-05
139.108
-7.14699e-05
139.109
-6.22129e-05
139.111
-5.35359e-05
139.112
-4.55259e-05
139.112
-3.82414e-05
139.113
-3.17149e-05
139.113
-2.59531e-05
139.112
-2.09349e-05
139.112
-1.66259e-05
139.11
-1.29797e-05
139.108
-9.94029e-06
139.106
-7.43395e-06
139.104
-5.3968e-06
139.101
-3.76333e-06
139.097
-2.46963e-06
139.094
-1.45867e-06
139.09
-6.76373e-07
139.087
-8.1402e-08
139.083
3.70266e-07
139.08
7.0596e-07
139.076
9.53993e-07
139.073
1.13555e-06
139.071
1.26728e-06
139.069
1.36263e-06
139.067
1.43126e-06
139.066
1.48083e-06
139.065
1.51677e-06
139.066
1.54382e-06
139.066
1.56095e-06
139.067
1.57716e-06
139.069
1.58863e-06
139.072
1.59769e-06
139.074
1.60376e-06
139.077
1.60887e-06
139.08
1.61213e-06
139.084
1.61418e-06
139.087
1.61503e-06
139.091
1.61496e-06
139.094
1.6141e-06
139.097
1.61194e-06
139.099
1.60874e-06
139.101
1.60426e-06
139.103
1.59891e-06
139.104
1.5932e-06
139.104
1.5886e-06
139.103
1.57893e-06
139.102
1.5749e-06
139.1
1.56682e-06
139.098
1.5601e-06
139.095
1.5538e-06
139.091
1.54855e-06
139.087
1.54347e-06
139.082
1.54024e-06
139.077
1.53818e-06
139.073
1.53742e-06
139.068
1.53826e-06
139.063
1.54057e-06
139.059
1.54451e-06
139.055
1.55022e-06
139.052
1.55726e-06
139.05
1.56465e-06
139.048
1.57264e-06
139.047
1.58022e-06
139.047
1.58519e-06
139.048
1.59894e-06
139.05
1.60616e-06
139.052
1.61346e-06
139.056
1.6206e-06
139.059
1.62662e-06
139.064
1.63091e-06
139.068
1.63411e-06
139.073
1.63563e-06
139.078
1.63557e-06
139.083
1.63409e-06
139.087
1.63119e-06
139.091
1.6268e-06
139.095
1.62077e-06
139.098
1.61384e-06
139.1
1.60557e-06
139.102
1.5975e-06
139.102
1.59436e-06
139.101
1.52215e-06
139.1
1.59622e-06
139.097
1.57492e-06
139.093
1.52681e-06
139.088
1.5339e-06
139.083
1.51194e-06
139.076
1.51747e-06
139.069
1.49766e-06
139.061
1.50851e-06
139.053
1.49316e-06
139.045
1.50727e-06
139.038
1.49706e-06
139.031
1.51917e-06
139.024
1.5164e-06
139.019
1.53656e-06
139.015
1.5473e-06
139.012
1.5702e-06
139.01
1.69799e-06
139.01
8.88071e-07
139.011
2.42646e-06
139.013
1.50859e-06
139.016
1.45449e-06
139.019
1.71178e-06
139.024
1.59814e-06
139.029
1.69168e-06
139.034
1.64108e-06
139.04
1.67723e-06
139.046
1.63239e-06
139.051
1.70503e-06
139.056
1.61306e-06
139.061
1.69964e-06
139.065
1.60099e-06
139.068
1.67889e-06
139.07
1.58577e-06
139.071
1.65366e-06
139.071
1.54833e-06
139.068
1.50057e-06
139.064
1.90628e-06
139.059
1.44062e-06
139.051
1.35842e-06
139.041
1.58049e-06
139.03
1.44708e-06
139.017
1.5289e-06
139.003
1.40877e-06
138.988
1.50424e-06
138.972
1.37454e-06
138.956
1.57244e-06
138.94
1.32446e-06
138.926
1.63147e-06
138.912
1.39561e-06
138.901
2.07628e-06
138.892
4.26884e-06
138.885
1.83509e-05
138.88
0.000142059
138.878
0.00096381
138.875
0.00691413
138.86
0.0495606
138.711
0.389379
1.67623
138.162
11.5941
-0.000327745
11.594
-0.000235178
11.5939
-0.000224555
11.5937
-0.00022666
11.5936
-0.000227115
11.5935
-0.000226901
11.5934
-0.000226841
11.5933
-0.000226848
11.5933
-0.000226859
11.5932
-0.000226876
11.5932
-0.000226905
11.5931
-0.000226934
11.5931
-0.000226996
11.5931
-0.000227057
11.5931
-0.000227242
11.5932
-0.000227127
11.5933
-0.000227299
11.5933
-0.000227388
11.5934
-0.000227474
11.5935
-0.000227561
11.5936
-0.000227649
11.5936
-0.000227734
11.5937
-0.000227821
11.5937
-0.000227871
11.5938
-0.000228056
11.5938
-0.000228117
11.5939
-0.000228226
11.5939
-0.000228344
11.5939
-0.000228459
11.5939
-0.00022858
11.5939
-0.000228702
11.5939
-0.000228818
11.5938
-0.000228924
11.5937
-0.000229014
11.5936
-0.000229078
11.5934
-0.000229102
11.5933
-0.000229066
11.5931
-0.000228948
11.5929
-0.000228712
11.5927
-0.000228288
11.5925
-0.000227711
11.5923
-0.000226793
11.5921
-0.000225535
11.592
-0.000223825
11.5918
-0.00022157
11.5917
-0.000218669
11.5916
-0.000215026
11.5915
-0.00021055
11.5914
-0.000205169
11.5914
-0.000198831
11.5913
-0.000191515
11.5914
-0.000183228
11.5914
-0.000174029
11.5915
-0.000163988
11.5915
-0.000153241
11.5916
-0.000141945
11.5918
-0.00013024
11.5919
-0.000118349
11.592
-0.000106461
11.5922
-9.47684e-05
11.5923
-8.34528e-05
11.5924
-7.26732e-05
11.5925
-6.25634e-05
11.5926
-5.32255e-05
11.5927
-4.4729e-05
11.5927
-3.71122e-05
11.5927
-3.03852e-05
11.5927
-2.45214e-05
11.5926
-1.94857e-05
11.5925
-1.5222e-05
11.5924
-1.16632e-05
11.5922
-8.72771e-06
11.592
-6.34239e-06
11.5917
-4.42681e-06
11.5914
-2.90886e-06
11.5912
-1.72115e-06
11.5909
-8.02414e-07
11.5906
-1.01112e-07
11.5903
4.28343e-07
11.59
8.22612e-07
11.5897
1.11306e-06
11.5894
1.32537e-06
11.5892
1.47904e-06
11.589
1.59018e-06
11.5889
1.67008e-06
11.5888
1.72768e-06
11.5888
1.76958e-06
11.5888
1.80052e-06
11.5888
1.82237e-06
11.589
1.83822e-06
11.5891
1.85274e-06
11.5893
1.8631e-06
11.5895
1.87044e-06
11.5898
1.87632e-06
11.59
1.88011e-06
11.5903
1.88249e-06
11.5906
1.88353e-06
11.5909
1.88343e-06
11.5911
1.88236e-06
11.5914
1.87988e-06
11.5916
1.87613e-06
11.5918
1.87095e-06
11.5919
1.86462e-06
11.592
1.85796e-06
11.592
1.85336e-06
11.5919
1.83962e-06
11.5918
1.83961e-06
11.5917
1.8259e-06
11.5915
1.8191e-06
11.5912
1.81187e-06
11.5909
1.80592e-06
11.5905
1.80002e-06
11.5902
1.79626e-06
11.5898
1.79383e-06
11.5894
1.79296e-06
11.589
1.7939e-06
11.5886
1.79658e-06
11.5882
1.80125e-06
11.5879
1.80783e-06
11.5877
1.8161e-06
11.5875
1.8247e-06
11.5873
1.83405e-06
11.5873
1.84301e-06
11.5873
1.84787e-06
11.5874
1.86554e-06
11.5875
1.87272e-06
11.5877
1.88177e-06
11.588
1.88996e-06
11.5883
1.89704e-06
11.5886
1.90191e-06
11.589
1.90573e-06
11.5894
1.90752e-06
11.5898
1.90743e-06
11.5902
1.90571e-06
11.5906
1.90236e-06
11.5909
1.89718e-06
11.5912
1.89016e-06
11.5915
1.88206e-06
11.5917
1.87257e-06
11.5918
1.8622e-06
11.5918
1.85237e-06
11.5918
1.82456e-06
11.5916
1.83167e-06
11.5914
1.81532e-06
11.5911
1.7914e-06
11.5907
1.78401e-06
11.5902
1.76946e-06
11.5897
1.76432e-06
11.5891
1.75266e-06
11.5884
1.7528e-06
11.5878
1.7467e-06
11.5871
1.7523e-06
11.5865
1.75277e-06
11.5859
1.76555e-06
11.5854
1.77289e-06
11.5849
1.78948e-06
11.5846
1.80422e-06
11.5843
1.82464e-06
11.5842
1.88027e-06
11.5841
1.61849e-06
11.5842
2.15093e-06
11.5844
1.85114e-06
11.5846
1.84363e-06
11.5849
1.94036e-06
11.5853
1.90729e-06
11.5857
1.94431e-06
11.5862
1.93091e-06
11.5867
1.94453e-06
11.5871
1.92924e-06
11.5876
1.95266e-06
11.588
1.91843e-06
11.5884
1.94361e-06
11.5887
1.90413e-06
11.589
1.9233e-06
11.5892
1.88304e-06
11.5893
1.89544e-06
11.5892
1.84657e-06
11.589
1.82535e-06
11.5887
1.9389e-06
11.5882
1.7653e-06
11.5876
1.72425e-06
11.5868
1.78266e-06
11.5858
1.72317e-06
11.5848
1.73971e-06
11.5836
1.68976e-06
11.5823
1.71525e-06
11.581
1.66803e-06
11.5797
1.73603e-06
11.5784
1.65854e-06
11.5771
1.77378e-06
11.576
1.71151e-06
11.5751
1.96359e-06
11.5743
2.7509e-06
11.5738
7.54365e-06
11.5735
4.97405e-05
11.5739
0.000330348
11.5784
0.00238013
11.6103
0.0176942
11.8099
0.189906
0.723194
12.763
5.79667
5.79636
5.79606
5.79576
5.79546
5.79517
5.79488
5.79459
5.79431
5.79404
5.79377
5.79351
5.79326
5.79301
5.79279
5.79258
5.79237
5.79216
5.79196
5.79175
5.79154
5.79133
5.79111
5.79089
5.79067
5.79045
5.79023
5.79
5.78977
5.78952
5.78927
5.78901
5.78873
5.78844
5.78814
5.78782
5.78748
5.78714
5.78679
5.78645
5.78611
5.78577
5.78545
5.78513
5.78482
5.78452
5.78424
5.78397
5.78371
5.78348
5.78326
5.78307
5.7829
5.78276
5.78264
5.78254
5.78246
5.7824
5.78236
5.78232
5.7823
5.78229
5.78228
5.78226
5.78225
5.78222
5.78219
5.78215
5.78209
5.78202
5.78193
5.78183
5.78172
5.78159
5.78145
5.78131
5.78115
5.781
5.78085
5.78071
5.78057
5.78045
5.78034
5.78026
5.78019
5.78015
5.78013
5.78014
5.78017
5.78022
5.7803
5.7804
5.78051
5.78064
5.78078
5.78092
5.78106
5.78121
5.78134
5.78146
5.78157
5.78166
5.78172
5.78176
5.78177
5.78175
5.7817
5.78163
5.78153
5.78139
5.78124
5.78107
5.78088
5.78069
5.78049
5.78029
5.7801
5.77993
5.77978
5.77965
5.77955
5.77949
5.77946
5.77946
5.7795
5.77957
5.77968
5.77981
5.77997
5.78015
5.78034
5.78054
5.78075
5.78095
5.78114
5.78132
5.78147
5.7816
5.7817
5.78176
5.78178
5.78175
5.78169
5.78157
5.78142
5.78122
5.78098
5.7807
5.7804
5.78008
5.77976
5.77943
5.77912
5.77883
5.77857
5.77835
5.77818
5.77805
5.77799
5.77797
5.77801
5.77809
5.77822
5.77838
5.77857
5.77879
5.77901
5.77925
5.77949
5.77972
5.77993
5.78013
5.7803
5.78043
5.78053
5.78056
5.78054
5.78045
5.78029
5.78005
5.77973
5.77933
5.77886
5.77833
5.77774
5.77711
5.77645
5.77579
5.77514
5.77453
5.77398
5.77351
5.77313
5.77285
5.77271
5.77293
5.77529
5.793
5.98296
6.70623
5.09473
0.127269
5.10227
-0.00752668
5.09952
0.00276658
5.10659
-0.00704801
5.12817
-0.0215593
5.17275
-0.0445727
5.25286
-0.0801992
5.32013
-0.0675209
5.31942
0.000388388
5.25918
0.0599091
5.1651
0.0937273
5.10348
0.0614651
5.28557
-0.18107
5.71726
-0.430863
6.25736
-0.54058
6.65662
-0.400966
6.71999
-0.0662497
6.58558
0.133349
6.42837
0.157411
-0.24668
6.6761
10.6661
0.180787
10.6862
-0.0276399
10.7366
-0.0475284
10.7978
-0.0681808
10.8798
-0.103552
11.0092
-0.173927
11.2189
-0.29007
11.4057
-0.254857
11.4629
-0.0573553
11.3964
0.125817
11.2431
0.246383
11.0772
0.22689
11.3204
-0.421752
12.0238
-1.13302
13.0418
-1.56001
13.9844
-1.34813
14.3869
-0.474354
14.3704
0.148612
14.1109
0.417712
-0.284999
14.1518
138.217
0.125871
138.297
-0.106897
138.307
-0.0575534
138.146
0.0931668
137.813
0.230662
137.316
0.324519
136.651
0.376339
136.029
0.36716
135.577
0.396024
135.336
0.366248
135.222
0.360292
135.113
0.335891
134.375
0.31372
132.95
0.29161
131.13
0.262797
129.569
0.221386
128.933
0.169055
128.976
0.10848
129.363
0.0296044
-0.179607
129.254
12.7068
0.182164
12.6068
-0.00698381
12.5582
-0.00889989
12.6282
0.0230398
12.8021
0.0565742
13.0427
0.0836261
13.317
0.101451
13.5818
0.102903
13.8666
0.110877
14.129
0.104218
14.3887
0.100809
14.6314
0.0933373
14.8598
0.0852247
15.0754
0.0760917
15.2751
0.0630567
15.4529
0.0436081
15.6054
0.0166233
15.734
-0.0200807
15.8441
-0.0804816
-0.261329
15.9258
6.8884
6.88141
6.8725
6.8955
6.952
7.03548
7.13674
7.23978
7.35057
7.45492
7.55583
7.64922
7.73446
7.81056
7.87362
7.91722
7.93385
7.91377
7.8333
7.57197
7.41555
-0.733202
7.88348
-0.466476
8.04248
-0.160591
8.00117
0.040551
7.94924
0.0515552
7.96362
-0.0146223
7.99546
-0.0324133
8.004
-0.00915676
7.99938
0.00416688
7.99467
0.0041883
7.99389
0.000234042
7.99577
-0.00240615
7.99642
-0.00115185
7.99568
0.000269175
7.99453
0.000691257
7.99305
0.00105359
7.99112
0.00152957
7.9886
0.0021601
7.98546
0.00280257
7.9818
0.00335365
7.97774
0.00377629
7.9734
0.00407233
7.96889
0.00425969
7.96429
0.00435425
7.95969
0.00436632
7.95515
0.00430303
7.95073
0.00417235
7.94649
0.00398361
7.94248
0.00374083
7.93874
0.00345708
7.93528
0.00314284
7.93213
0.00281053
7.92929
0.00247379
7.92675
0.00214897
7.92446
0.00185552
7.92239
0.00160957
7.92046
0.00142707
7.9186
0.00131842
7.91675
0.00128863
7.91481
0.00133418
7.91275
0.00143996
7.91053
0.00156874
7.90826
0.00160063
7.9064
0.00116846
7.9065
-0.000808888
7.91161
-0.00582162
7.91949
-0.00864177
7.92573
-0.00704463
7.92775
-0.0028398
7.9261
0.000817896
7.92292
0.00235748
7.91971
0.00237298
7.91665
0.00219842
7.9138
0.00198177
7.91105
0.00187103
7.90823
0.00192184
7.90516
0.0021671
7.90161
0.00262643
7.89728
0.0034147
7.89182
0.0045394
7.88484
0.0060586
7.87591
0.00801632
7.86459
0.0104283
7.85043
0.0132897
7.83301
0.0165692
7.81197
0.0202266
7.78697
0.0242006
7.7577
0.0284944
7.72377
0.0331522
7.68471
0.0383024
7.63987
0.044131
7.58832
0.0508892
7.52891
0.058786
7.46037
0.0679389
7.38143
0.0783203
7.29087
0.089792
7.18805
0.101398
7.07373
0.112815
6.94982
0.122903
6.8187
0.130489
6.68394
0.134369
6.55
0.134352
6.42083
0.129711
6.30005
0.120878
6.19083
0.108967
6.09523
0.09512
6.01404
0.080597
5.9469
0.0664879
5.89264
0.0535355
5.84966
0.0422398
5.81617
0.0327297
5.79043
0.0249703
5.77084
0.0187966
5.75603
0.013984
5.74489
0.0102953
5.7365
0.00751193
5.73015
0.00543212
5.72532
0.00389742
5.72158
0.00277542
5.71862
0.00196216
5.71622
0.00137748
5.71421
0.000960351
5.71248
0.000664962
5.71094
0.000457278
5.70954
0.00031228
5.70822
0.000211748
5.70697
0.000142524
5.70577
9.51802e-05
5.7046
6.3025e-05
5.70347
4.13329e-05
5.70238
2.67996e-05
5.70131
1.71275e-05
5.70028
1.07335e-05
5.69929
6.5362e-06
5.69833
3.80022e-06
5.69742
2.02856e-06
5.69655
8.88896e-07
5.69573
1.61304e-07
5.69496
-3.00834e-07
5.69424
-5.91377e-07
5.69358
-7.73416e-07
5.69296
-8.87076e-07
5.6924
-9.58002e-07
5.69188
-1.00245e-06
5.69141
-1.03053e-06
5.69099
-1.0486e-06
5.69061
-1.06045e-06
5.69027
-1.06866e-06
5.68996
-1.07493e-06
5.68969
-1.08015e-06
5.68945
-1.08449e-06
5.68922
-1.09106e-06
5.68902
-1.08923e-06
5.68883
-1.08661e-06
5.68865
-1.08754e-06
5.68847
-1.08829e-06
5.68828
-1.08704e-06
5.68809
-1.08418e-06
5.68789
-1.07986e-06
5.68766
-1.07406e-06
5.68742
-1.06676e-06
5.68715
-1.05863e-06
5.68684
-1.04893e-06
5.6865
-1.03783e-06
5.68613
-1.0259e-06
5.68572
-1.01346e-06
5.68527
-9.99416e-07
5.68478
-9.86009e-07
5.68426
-9.71448e-07
5.6837
-9.57822e-07
5.68312
-9.43255e-07
5.6825
-9.3063e-07
5.68187
-9.18104e-07
5.68123
-9.13627e-07
5.68057
-9.04522e-07
5.67992
-8.92443e-07
5.67927
-8.82108e-07
5.67863
-8.78345e-07
5.67802
-8.71845e-07
5.67743
-8.74061e-07
5.67688
-8.72402e-07
5.67636
-8.75958e-07
5.67589
-8.77288e-07
5.67546
-8.83992e-07
5.67507
-8.8297e-07
5.67474
-8.91165e-07
5.67445
-8.91951e-07
5.67421
-9.00316e-07
5.67401
-9.00091e-07
5.67386
-9.07319e-07
5.67375
-9.06744e-07
5.67368
-9.17502e-07
5.67365
-9.36991e-07
5.67366
-8.27738e-07
5.6737
-9.76363e-07
5.67377
-9.56716e-07
5.67388
-8.83541e-07
5.67401
-1.00508e-06
5.67416
-8.67925e-07
5.67433
-9.97057e-07
5.67452
-8.99418e-07
5.67471
-9.91609e-07
5.67489
-9.00569e-07
5.67507
-9.86203e-07
5.67522
-9.03003e-07
5.67534
-9.6373e-07
5.67542
-9.36652e-07
5.67544
-7.28811e-07
5.67541
-1.27144e-06
5.67531
-6.65545e-07
5.67514
-1.08913e-06
5.6749
-2.20374e-06
5.67457
-6.90881e-06
5.67419
-3.27938e-05
5.67386
-0.000165637
5.67413
-0.000854147
5.67791
-0.004456
5.70124
-0.0240681
5.87451
-0.174096
-0.677261
6.5509
14.4975
-1.06599
15.1498
-1.11628
15.5039
-0.517902
15.4515
0.091293
15.3158
0.186592
15.3049
-0.00440311
15.3562
-0.0847238
15.3786
-0.032718
15.3702
0.0115487
15.3569
0.0164402
15.3512
0.00490748
15.3531
-0.00542314
15.3549
-0.00392305
15.3545
-0.000251405
15.3534
0.000812793
15.3522
0.00149015
15.3504
0.00250242
15.3477
0.0041448
15.3438
0.00602281
15.3388
0.00777768
15.3327
0.00923468
15.3259
0.0103523
15.3185
0.0111583
15.3107
0.0116884
15.3026
0.0119689
15.2944
0.0120195
15.2863
0.0118634
15.2782
0.011529
15.2704
0.0110306
15.2629
0.0104079
15.2557
0.00969448
15.2489
0.0089303
15.2425
0.00816019
15.2364
0.00743967
15.2305
0.0068366
15.2248
0.00641274
15.219
0.00623356
15.2129
0.00635116
15.2062
0.00680381
15.1987
0.0076043
15.1902
0.00873032
15.1804
0.0100808
15.1693
0.0113233
15.1577
0.0113432
15.1487
0.00673492
15.1507
-0.00927232
15.1636
-0.0229945
15.1798
-0.0248226
15.1916
-0.0163329
15.1963
-0.00547857
15.1956
0.00139643
15.1925
0.0037991
15.1879
0.0051569
15.182
0.00610385
15.1749
0.00718341
15.1664
0.0086287
15.1562
0.0105785
15.1438
0.0131063
15.1288
0.0165486
15.1106
0.0209358
15.0884
0.026404
15.0615
0.0330546
15.0293
0.0409163
14.9908
0.0499497
14.9457
0.0600442
14.8931
0.0710717
14.8328
0.0828242
14.7644
0.0953108
14.6873
0.108651
14.601
0.123129
14.5046
0.139221
14.3967
0.157503
14.2758
0.178361
14.1406
0.201892
13.9896
0.227698
13.8223
0.254562
13.64
0.281223
13.4456
0.305497
13.2424
0.324926
13.0349
0.337134
12.829
0.340479
12.6303
0.333927
12.4431
0.317087
12.2718
0.291788
12.1195
0.260448
11.9877
0.225783
11.8766
0.190514
11.7849
0.156883
11.7107
0.126382
11.6516
0.0999068
11.6051
0.0776742
11.5691
0.0595156
11.5413
0.0450239
11.5199
0.0336791
11.5036
0.0249397
11.4911
0.0182974
11.4814
0.0133085
11.4738
0.00960173
11.4678
0.00687434
11.4628
0.00488496
11.4587
0.00344602
11.4552
0.00241356
11.452
0.00167846
11.4492
0.00115902
11.4465
0.000794695
11.444
0.000541032
11.4415
0.000365701
11.4392
0.000245387
11.4369
0.00016342
11.4346
0.000107979
11.4324
7.07488e-05
11.4303
4.59245e-05
11.4283
2.94896e-05
11.4263
1.86871e-05
11.4244
1.16378e-05
11.4225
7.06902e-06
11.4208
4.12927e-06
11.4192
2.252e-06
11.4176
1.05961e-06
11.4162
3.09266e-07
11.4148
-1.60875e-07
11.4136
-4.53733e-07
11.4125
-6.35154e-07
11.4114
-7.47283e-07
11.4105
-8.16426e-07
11.4096
-8.59133e-07
11.4089
-8.85659e-07
11.4082
-9.02455e-07
11.4076
-9.13599e-07
11.407
-9.21484e-07
11.4065
-9.27378e-07
11.4061
-9.33097e-07
11.4057
-9.33577e-07
11.4053
-9.31686e-07
11.4049
-9.31952e-07
11.4046
-9.33297e-07
11.4042
-9.31642e-07
11.4038
-9.29453e-07
11.4034
-9.25879e-07
11.403
-9.20922e-07
11.4025
-9.14678e-07
11.4019
-9.07644e-07
11.4013
-8.99309e-07
11.4006
-8.89986e-07
11.3999
-8.79429e-07
11.3991
-8.68963e-07
11.3981
-8.56829e-07
11.3972
-8.45361e-07
11.3961
-8.33029e-07
11.395
-8.21464e-07
11.3938
-8.08208e-07
11.3926
-7.98736e-07
11.3913
-7.86742e-07
11.3901
-7.87775e-07
11.3887
-7.65855e-07
11.3874
-7.70081e-07
11.3861
-7.55649e-07
11.3849
-7.56101e-07
11.3836
-7.44624e-07
11.3824
-7.52123e-07
11.3813
-7.4581e-07
11.3803
-7.52577e-07
11.3793
-7.50346e-07
11.3785
-7.62723e-07
11.3777
-7.5192e-07
11.377
-7.67407e-07
11.3765
-7.6072e-07
11.376
-7.76733e-07
11.3756
-7.67357e-07
11.3753
-7.80977e-07
11.3751
-7.72146e-07
11.3749
-7.96898e-07
11.3749
-8.29607e-07
11.3749
-5.26012e-07
11.375
-9.54577e-07
11.3751
-8.84474e-07
11.3753
-6.57461e-07
11.3756
-1.01069e-06
11.3759
-5.93357e-07
11.3762
-9.68836e-07
11.3766
-6.74572e-07
11.3769
-9.47188e-07
11.3773
-6.76988e-07
11.3777
-9.34102e-07
11.378
-6.98305e-07
11.3782
-8.93791e-07
11.3784
-8.39901e-07
11.3784
-2.16728e-07
11.3783
-1.90392e-06
11.3781
-1.39737e-07
11.3778
-1.34934e-06
11.3773
-4.69396e-06
11.3767
-1.85804e-05
11.3759
-9.46162e-05
11.3752
-0.000484626
11.3757
-0.00250235
11.3828
-0.012959
11.4249
-0.0675705
11.6245
-0.375404
-1.55353
12.4991
128.097
0.0601988
126.973
-0.00558514
126.443
0.00389871
126.505
0.0206143
126.663
0.0179795
126.634
0.011762
126.534
0.00244773
126.496
-0.0065283
126.5
-0.0059267
126.508
-0.00428756
126.505
-0.00419573
126.492
-0.00494167
126.482
-0.00530691
126.475
-0.00510019
126.47
-0.00502363
126.467
-0.00521505
126.466
-0.00551981
126.467
-0.00578754
126.472
-0.00599416
126.478
-0.00619203
126.487
-0.00641528
126.498
-0.00666663
126.51
-0.0069192
126.523
-0.00714007
126.537
-0.0073023
126.55
-0.00738776
126.564
-0.007394
126.576
-0.00731132
126.588
-0.0071401
126.598
-0.0069007
126.607
-0.00660358
126.614
-0.00626428
126.619
-0.00589204
126.622
-0.00549402
126.624
-0.00507511
126.624
-0.00463444
126.622
-0.00415787
126.62
-0.0036698
126.616
-0.00311164
126.612
-0.00247451
126.607
-0.0016713
126.602
-0.00091363
126.597
-0.000178287
126.591
0.000322784
126.58
0.000703609
126.552
0.000400638
126.512
-0.00167131
126.472
-0.0045087
126.442
-0.00598909
126.423
-0.00642821
126.411
-0.0064441
126.401
-0.00673999
126.393
-0.00758997
126.387
-0.00910947
126.384
-0.0113669
126.387
-0.0145039
126.399
-0.0187127
126.423
-0.024178
126.457
-0.0315461
126.504
-0.041138
126.568
-0.0535351
126.653
-0.0693169
126.765
-0.0889789
126.909
-0.112851
127.09
-0.140981
127.315
-0.172875
127.587
-0.207456
127.907
-0.242972
128.275
-0.277021
128.688
-0.306911
129.141
-0.330003
129.627
-0.344378
130.14
-0.349703
130.674
-0.346443
131.225
-0.335963
131.787
-0.320017
132.357
-0.30025
132.928
-0.277431
133.494
-0.25269
134.046
-0.226315
134.574
-0.19913
135.068
-0.172271
135.52
-0.146605
135.921
-0.122774
136.269
-0.101316
136.564
-0.0825637
136.806
-0.0665537
137.001
-0.0531264
137.154
-0.04204
137.27
-0.0329755
137.357
-0.0256394
137.418
-0.0197586
137.46
-0.015092
137.485
-0.0114189
137.499
-0.00855985
137.503
-0.00635701
137.499
-0.00467706
137.489
-0.00340862
137.476
-0.00246144
137.458
-0.00176105
137.439
-0.00124838
137.417
-0.000876891
137.394
-0.000610346
137.369
-0.000420954
137.344
-0.000287675
137.318
-0.000194771
137.292
-0.00013062
137.266
-8.67327e-05
137.24