/*--------------------------------*- C++ -*----------------------------------*\
| =========                 |                                                 |
| \\      /  F ield         | OpenFOAM: The Open Source CFD Toolbox           |
|  \\    /   O peration     | Version:  3.0.x                                 |
|   \\  /    A nd           | Web:      www.OpenFOAM.org                      |
|    \\/     M anipulation  |                                                 |
\*---------------------------------------------------------------------------*/
FoamFile
{
    version     2.0;
    format      ascii;
    class       volScalarField;
    location    "0.34";
    object      rho;
}
// * * * * * * * * * * * * * * * * * * * * * * * * * * * * * * * * * * * * * //

dimensions      [1 -3 0 0 0 0 0];

internalField   nonuniform List<scalar> 
6900
(
50.9111
50.9111
50.9111
50.9112
50.9112
50.9112
50.9113
50.9113
50.9113
50.9114
50.9114
50.9115
50.9115
50.9116
50.9117
50.9119
50.9121
50.9123
50.9125
50.9126
50.9127
50.9127
50.9127
50.9127
50.9127
50.9128
50.9129
50.9131
50.9133
50.9135
50.9137
50.9139
50.9141
50.9144
50.9146
50.9147
50.9148
50.9149
50.9149
50.915
50.9152
50.9154
50.9156
50.9158
50.9161
50.9163
50.9165
50.9166
50.9168
50.9169
50.9169
50.917
50.917
50.917
50.917
50.917
50.917
50.917
50.917
50.917
50.917
50.9169
50.9169
50.9169
50.9169
50.9168
50.9168
50.9168
50.9168
50.9168
50.9169
50.9169
50.9169
50.917
50.917
50.9171
50.9171
50.9172
50.9173
50.9173
50.9174
50.9175
50.9175
50.9176
50.9176
50.9176
50.9176
50.9176
50.9176
50.9176
50.9176
50.9175
50.9175
50.9174
50.9174
50.9173
50.9172
50.9171
50.9171
50.917
50.9169
50.9169
50.9168
50.9168
50.9168
50.9168
50.9168
50.9168
50.9169
50.9169
50.917
50.9171
50.9172
50.9173
50.9174
50.9175
50.9176
50.9177
50.9177
50.9178
50.9179
50.9179
50.9179
50.9179
50.9179
50.9178
50.9178
50.9177
50.9176
50.9175
50.9174
50.9173
50.9172
50.9171
50.9169
50.9168
50.9167
50.9167
50.9166
50.9166
50.9166
50.9166
50.9166
50.9167
50.9168
50.9169
50.917
50.9172
50.9173
50.9175
50.9177
50.9179
50.9181
50.9182
50.9184
50.9185
50.9186
50.9187
50.9187
50.9187
50.9187
50.9186
50.9185
50.9184
50.9183
50.9181
50.9179
50.9178
50.9176
50.9174
50.9173
50.9171
50.917
50.9168
50.9167
50.9166
50.9166
50.9166
50.9166
50.9167
50.9168
50.917
50.9172
50.9174
50.9177
50.918
50.9183
50.9186
50.9189
50.9191
50.9193
50.9195
50.9196
50.9196
50.9196
50.9195
50.9194
50.9191
50.9193
50.9161
50.9113
50.9113
50.9113
50.9113
50.9113
50.9114
50.9114
50.9115
50.9115
50.9115
50.9116
50.9116
50.9117
50.9117
50.9118
50.912
50.9123
50.9125
50.9126
50.9127
50.9128
50.9128
50.9128
50.9129
50.9129
50.9129
50.9131
50.9132
50.9134
50.9136
50.9138
50.914
50.9143
50.9145
50.9147
50.9148
50.9149
50.915
50.9151
50.9151
50.9153
50.9155
50.9157
50.916
50.9162
50.9164
50.9166
50.9167
50.9169
50.917
50.917
50.9171
50.9171
50.9171
50.9171
50.9172
50.9171
50.9171
50.9171
50.9171
50.9171
50.917
50.917
50.917
50.917
50.9169
50.9169
50.9169
50.9169
50.9169
50.917
50.917
50.917
50.9171
50.9171
50.9172
50.9172
50.9173
50.9174
50.9174
50.9175
50.9176
50.9176
50.9177
50.9177
50.9177
50.9177
50.9177
50.9177
50.9177
50.9177
50.9176
50.9176
50.9175
50.9175
50.9174
50.9173
50.9172
50.9172
50.9171
50.917
50.917
50.9169
50.9169
50.9169
50.9169
50.9169
50.9169
50.917
50.917
50.9171
50.9172
50.9173
50.9174
50.9175
50.9176
50.9177
50.9178
50.9179
50.9179
50.918
50.918
50.918
50.918
50.918
50.9179
50.9179
50.9178
50.9177
50.9176
50.9175
50.9174
50.9173
50.9172
50.917
50.9169
50.9169
50.9168
50.9167
50.9167
50.9167
50.9167
50.9167
50.9168
50.9169
50.917
50.9171
50.9173
50.9174
50.9176
50.9178
50.918
50.9182
50.9183
50.9185
50.9186
50.9187
50.9188
50.9188
50.9188
50.9188
50.9187
50.9186
50.9185
50.9184
50.9182
50.918
50.9179
50.9177
50.9175
50.9174
50.9172
50.9171
50.9169
50.9168
50.9167
50.9167
50.9167
50.9167
50.9168
50.9169
50.9171
50.9173
50.9175
50.9178
50.9181
50.9184
50.9187
50.919
50.9192
50.9194
50.9196
50.9197
50.9198
50.9197
50.9196
50.9195
50.9192
50.9194
50.9165
50.9113
50.9113
50.9113
50.9113
50.9113
50.9114
50.9114
50.9115
50.9115
50.9115
50.9116
50.9116
50.9117
50.9117
50.9118
50.912
50.9123
50.9125
50.9126
50.9127
50.9128
50.9128
50.9128
50.9129
50.9129
50.9129
50.9131
50.9132
50.9134
50.9136
50.9138
50.914
50.9143
50.9145
50.9147
50.9148
50.9149
50.915
50.9151
50.9151
50.9153
50.9155
50.9157
50.9159
50.9162
50.9164
50.9166
50.9167
50.9169
50.917
50.917
50.9171
50.9171
50.9171
50.9171
50.9172
50.9171
50.9171
50.9171
50.9171
50.9171
50.917
50.917
50.917
50.917
50.9169
50.9169
50.9169
50.9169
50.9169
50.917
50.917
50.917
50.9171
50.9171
50.9172
50.9172
50.9173
50.9174
50.9174
50.9175
50.9176
50.9176
50.9177
50.9177
50.9177
50.9177
50.9177
50.9177
50.9177
50.9177
50.9176
50.9176
50.9175
50.9175
50.9174
50.9173
50.9172
50.9172
50.9171
50.917
50.917
50.9169
50.9169
50.9169
50.9169
50.9169
50.9169
50.917
50.917
50.9171
50.9172
50.9173
50.9174
50.9175
50.9176
50.9177
50.9178
50.9179
50.9179
50.918
50.918
50.918
50.918
50.918
50.9179
50.9179
50.9178
50.9177
50.9176
50.9175
50.9174
50.9173
50.9172
50.917
50.9169
50.9169
50.9168
50.9167
50.9167
50.9167
50.9167
50.9167
50.9168
50.9169
50.917
50.9171
50.9173
50.9174
50.9176
50.9178
50.918
50.9182
50.9183
50.9185
50.9186
50.9187
50.9188
50.9188
50.9188
50.9188
50.9187
50.9186
50.9185
50.9184
50.9182
50.918
50.9179
50.9177
50.9175
50.9174
50.9172
50.9171
50.9169
50.9168
50.9167
50.9167
50.9167
50.9167
50.9168
50.9169
50.9171
50.9173
50.9175
50.9178
50.9181
50.9184
50.9187
50.919
50.9192
50.9194
50.9196
50.9197
50.9198
50.9197
50.9196
50.9195
50.9192
50.919
50.9186
50.9113
50.9113
50.9113
50.9113
50.9113
50.9114
50.9114
50.9115
50.9115
50.9115
50.9116
50.9116
50.9117
50.9117
50.9118
50.912
50.9123
50.9125
50.9126
50.9127
50.9128
50.9128
50.9128
50.9129
50.9129
50.9129
50.9131
50.9132
50.9134
50.9136
50.9138
50.914
50.9143
50.9145
50.9147
50.9148
50.9149
50.915
50.9151
50.9151
50.9153
50.9155
50.9157
50.916
50.9162
50.9164
50.9166
50.9167
50.9169
50.917
50.917
50.9171
50.9171
50.9171
50.9171
50.9172
50.9171
50.9171
50.9171
50.9171
50.9171
50.917
50.917
50.917
50.917
50.9169
50.9169
50.9169
50.9169
50.9169
50.917
50.917
50.917
50.9171
50.9171
50.9172
50.9172
50.9173
50.9174
50.9174
50.9175
50.9176
50.9176
50.9177
50.9177
50.9177
50.9177
50.9177
50.9177
50.9177
50.9177
50.9176
50.9176
50.9175
50.9175
50.9174
50.9173
50.9172
50.9172
50.9171
50.917
50.917
50.9169
50.9169
50.9169
50.9169
50.9169
50.9169
50.917
50.917
50.9171
50.9172
50.9173
50.9174
50.9175
50.9176
50.9177
50.9178
50.9179
50.9179
50.918
50.918
50.918
50.918
50.918
50.9179
50.9179
50.9178
50.9177
50.9176
50.9175
50.9174
50.9173
50.9172
50.917
50.9169
50.9169
50.9168
50.9167
50.9167
50.9167
50.9167
50.9167
50.9168
50.9169
50.917
50.9171
50.9173
50.9174
50.9176
50.9178
50.918
50.9182
50.9183
50.9185
50.9186
50.9187
50.9188
50.9188
50.9188
50.9188
50.9187
50.9186
50.9185
50.9184
50.9182
50.918
50.9179
50.9177
50.9175
50.9174
50.9172
50.9171
50.9169
50.9168
50.9168
50.9167
50.9167
50.9167
50.9168
50.9169
50.9171
50.9173
50.9175
50.9178
50.9181
50.9184
50.9187
50.919
50.9192
50.9194
50.9196
50.9197
50.9198
50.9197
50.9196
50.9194
50.9193
50.9181
50.9242
50.9111
50.9111
50.9111
50.9112
50.9112
50.9112
50.9113
50.9113
50.9113
50.9114
50.9114
50.9115
50.9115
50.9116
50.9117
50.9119
50.9121
50.9123
50.9125
50.9126
50.9127
50.9127
50.9127
50.9127
50.9127
50.9128
50.9129
50.9131
50.9133
50.9135
50.9137
50.9139
50.9141
50.9144
50.9146
50.9147
50.9148
50.9149
50.9149
50.915
50.9152
50.9154
50.9156
50.9158
50.9161
50.9163
50.9165
50.9166
50.9168
50.9169
50.9169
50.917
50.917
50.917
50.917
50.917
50.917
50.917
50.917
50.917
50.917
50.9169
50.9169
50.9169
50.9169
50.9168
50.9168
50.9168
50.9168
50.9168
50.9169
50.9169
50.9169
50.917
50.917
50.9171
50.9171
50.9172
50.9173
50.9173
50.9174
50.9175
50.9175
50.9176
50.9176
50.9176
50.9176
50.9176
50.9176
50.9176
50.9176
50.9175
50.9175
50.9174
50.9174
50.9173
50.9172
50.9171
50.9171
50.917
50.9169
50.9169
50.9168
50.9168
50.9168
50.9168
50.9168
50.9168
50.9169
50.9169
50.917
50.9171
50.9172
50.9173
50.9174
50.9175
50.9176
50.9177
50.9177
50.9178
50.9179
50.9179
50.9179
50.9179
50.9179
50.9178
50.9178
50.9177
50.9176
50.9175
50.9174
50.9173
50.9172
50.9171
50.9169
50.9168
50.9167
50.9167
50.9166
50.9166
50.9166
50.9166
50.9166
50.9167
50.9168
50.9169
50.917
50.9172
50.9173
50.9175
50.9177
50.9179
50.9181
50.9182
50.9184
50.9185
50.9186
50.9187
50.9187
50.9187
50.9187
50.9186
50.9185
50.9184
50.9183
50.9181
50.9179
50.9178
50.9176
50.9174
50.9173
50.9171
50.917
50.9168
50.9167
50.9166
50.9166
50.9166
50.9166
50.9167
50.9168
50.917
50.9172
50.9174
50.9177
50.918
50.9183
50.9186
50.9188
50.9191
50.9193
50.9195
50.9196
50.9197
50.9196
50.9195
50.9193
50.9193
50.9175
50.93
50.9349
50.9419
50.9426
50.9407
50.9391
50.9379
50.9365
50.9333
50.9279
50.9225
50.9184
50.9164
50.9208
50.9283
50.9302
50.9203
50.9015
50.8807
50.8649
50.8505
50.9313
50.9348
50.9345
50.9328
50.9313
50.9301
50.9288
50.9256
50.9199
50.9147
50.911
50.9091
50.9139
50.9222
50.9219
50.9092
50.8867
50.8671
50.8531
50.8393
50.9193
50.9191
50.9179
50.9158
50.9127
50.909
50.9046
50.8996
50.8938
50.8871
50.8792
50.87
50.8598
50.8487
50.8383
50.8294
50.8215
50.8122
50.8017
50.7899
50.8951
50.8919
50.8928
50.8944
50.8933
50.8896
50.8839
50.8763
50.87
50.8622
50.8548
50.8483
50.8412
50.8344
50.828
50.8221
50.8167
50.8123
50.8092
50.8071
50.8851
50.8724
50.8676
50.8669
50.8648
50.8596
50.8528
50.8442
50.8362
50.827
50.8186
50.8099
50.8018
50.7936
50.7861
50.7787
50.7724
50.7669
50.7632
50.7613
50.8191
50.8083
50.8023
50.7966
50.7952
50.7944
50.7934
50.7923
50.7921
50.7921
50.7918
50.7916
50.7914
50.7914
50.7913
50.7912
50.7912
50.7912
50.7912
50.7912
50.7913
50.7913
50.7914
50.7914
50.7915
50.7915
50.7915
50.7915
50.7915
50.7914
50.7913
50.7912
50.791
50.7908
50.7906
50.7903
50.79
50.7896
50.7892
50.7888
50.7883
50.7879
50.7875
50.7871
50.7867
50.7864
50.786
50.7854
50.7848
50.7842
50.7837
50.7833
50.7829
50.7825
50.7821
50.7818
50.7815
50.7811
50.7807
50.7804
50.78
50.7797
50.7794
50.7792
50.7791
50.779
50.779
50.7789
50.7788
50.7785
50.7783
50.7782
50.7783
50.7784
50.7783
50.7776
50.774
50.7661
50.7608
50.759
50.7593
50.7631
50.7719
50.7783
50.7816
50.7828
50.7828
50.7823
50.7814
50.7804
50.7795
50.7787
50.7779
50.7773
50.7766
50.776
50.7754
50.7749
50.7743
50.7738
50.7733
50.7728
50.7724
50.7719
50.7715
50.7711
50.7708
50.7704
50.7701
50.7697
50.7694
50.7691
50.7689
50.7686
50.7683
50.7681
50.7678
50.7676
50.7673
50.7671
50.7668
50.7666
50.7663
50.766
50.7658
50.7655
50.7652
50.7649
50.7646
50.7643
50.764
50.7637
50.7633
50.763
50.7627
50.7623
50.762
50.7617
50.7614
50.761
50.7607
50.7605
50.7602
50.7599
50.7597
50.7595
50.7593
50.7591
50.759
50.7589
50.7588
50.7588
50.7587
50.7587
50.7587
50.7588
50.7588
50.7589
50.7589
50.759
50.7591
50.7591
50.7592
50.7593
50.7593
50.7594
50.7594
50.7594
50.7595
50.7595
50.7595
50.7595
50.7595
50.7595
50.7594
50.7594
50.7594
50.7594
50.7593
50.7593
50.7592
50.7591
50.7591
50.759
50.7589
50.7589
50.7589
50.7589
50.7589
50.7589
50.759
50.7591
50.7593
50.7595
50.7597
50.76
50.7603
50.7607
50.7599
50.7694
50.8173
50.8081
50.8017
50.796
50.7943
50.7934
50.7923
50.7913
50.791
50.7909
50.7907
50.7904
50.7903
50.7902
50.7901
50.7901
50.79
50.7901
50.7901
50.7902
50.7902
50.7903
50.7904
50.7904
50.7905
50.7905
50.7906
50.7905
50.7905
50.7904
50.7903
50.7902
50.79
50.7898
50.7896
50.7893
50.7889
50.7885
50.7881
50.7877
50.7872
50.7868
50.7863
50.7858
50.7854
50.7849
50.7846
50.784
50.7834
50.7829
50.7825
50.7821
50.7818
50.7814
50.781
50.7806
50.7802
50.7798
50.7793
50.7789
50.7785
50.7782
50.7779
50.7777
50.7776
50.7774
50.7771
50.7767
50.7764
50.7763
50.7762
50.7763
50.7764
50.7763
50.7756
50.7722
50.7662
50.7624
50.7611
50.7613
50.7639
50.7709
50.7768
50.7802
50.7818
50.7823
50.782
50.7815
50.7808
50.78
50.7793
50.7786
50.7779
50.7772
50.7766
50.7761
50.7755
50.7749
50.7744
50.7739
50.7734
50.7729
50.7725
50.772
50.7716
50.7712
50.7709
50.7705
50.7702
50.7698
50.7695
50.7692
50.769
50.7687
50.7684
50.7682
50.7679
50.7677
50.7674
50.7672
50.7669
50.7667
50.7664
50.7661
50.7659
50.7656
50.7653
50.765
50.7647
50.7644
50.7641
50.7638
50.7634
50.7631
50.7628
50.7624
50.7621
50.7618
50.7615
50.7611
50.7608
50.7606
50.7603
50.76
50.7598
50.7596
50.7594
50.7592
50.7591
50.759
50.7589
50.7589
50.7588
50.7588
50.7588
50.7589
50.7589
50.759
50.759
50.7591
50.7592
50.7592
50.7593
50.7594
50.7594
50.7595
50.7595
50.7595
50.7595
50.7596
50.7596
50.7596
50.7596
50.7596
50.7595
50.7595
50.7595
50.7594
50.7594
50.7593
50.7593
50.7592
50.7592
50.7591
50.759
50.759
50.759
50.759
50.759
50.759
50.7591
50.7592
50.7594
50.7596
50.7598
50.7601
50.7604
50.7608
50.7604
50.7646
50.7546
50.7656
50.7748
50.7765
50.7754
50.7746
50.7742
50.7741
50.774
50.7739
50.7737
50.7736
50.7735
50.7735
50.7736
50.7737
50.7738
50.7739
50.774
50.7741
50.7743
50.7744
50.7745
50.7746
50.7747
50.7747
50.7747
50.7746
50.7745
50.7744
50.7742
50.7741
50.7739
50.7737
50.7734
50.7732
50.7729
50.7726
50.7722
50.7718
50.7713
50.7708
50.7702
50.7696
50.7691
50.7684
50.7678
50.7671
50.7664
50.7657
50.7651
50.7645
50.764
50.7636
50.7632
50.763
50.7636
50.766
50.7691
50.7718
50.7742
50.7759
50.7772
50.778
50.7784
50.7787
50.7789
50.7789
50.779
50.779
50.779
50.7791
50.7792
50.7793
50.7795
50.7799
50.7803
50.7808
50.7812
50.7815
50.7817
50.7818
50.7817
50.7815
50.7812
50.7809
50.7805
50.78
50.7796
50.7791
50.7786
50.7781
50.7775
50.777
50.7765
50.7759
50.7754
50.7749
50.7744
50.7739
50.7734
50.7729
50.7725
50.772
50.7716
50.7712
50.7709
50.7705
50.7702
50.7698
50.7695
50.7692
50.769
50.7687
50.7684
50.7682
50.7679
50.7677
50.7674
50.7672
50.7669
50.7667
50.7664
50.7661
50.7659
50.7656
50.7653
50.765
50.7647
50.7644
50.7641
50.7638
50.7634
50.7631
50.7628
50.7624
50.7621
50.7618
50.7615
50.7611
50.7608
50.7606
50.7603
50.76
50.7598
50.7596
50.7594
50.7592
50.7591
50.759
50.7589
50.7589
50.7588
50.7588
50.7588
50.7589
50.7589
50.759
50.759
50.7591
50.7592
50.7592
50.7593
50.7594
50.7594
50.7595
50.7595
50.7595
50.7595
50.7596
50.7596
50.7596
50.7596
50.7596
50.7595
50.7595
50.7595
50.7594
50.7594
50.7593
50.7593
50.7592
50.7592
50.7591
50.759
50.759
50.759
50.759
50.759
50.759
50.7591
50.7592
50.7594
50.7596
50.7598
50.7601
50.7604
50.7608
50.7612
50.7616
50.801
50.7981
50.7958
50.7944
50.793
50.7921
50.7917
50.7916
50.7915
50.7914
50.7912
50.7911
50.791
50.7909
50.7908
50.7907
50.7907
50.7906
50.7906
50.7907
50.7907
50.7907
50.7908
50.7908
50.7908
50.7908
50.7909
50.7909
50.7908
50.7908
50.7907
50.7905
50.7904
50.7902
50.79
50.7897
50.7894
50.7891
50.7888
50.7884
50.788
50.7876
50.7872
50.7867
50.7862
50.7857
50.7852
50.7847
50.7842
50.7837
50.7833
50.7829
50.7825
50.7821
50.7817
50.7814
50.781
50.7807
50.7804
50.7801
50.7798
50.7796
50.7793
50.7789
50.7787
50.7784
50.7778
50.777
50.7764
50.7761
50.776
50.7755
50.7739
50.7714
50.7697
50.7689
50.7688
50.7692
50.7713
50.7757
50.7793
50.7815
50.7826
50.7829
50.7828
50.7823
50.7818
50.7811
50.7804
50.7797
50.779
50.7784
50.7778
50.7772
50.7766
50.776
50.7755
50.7749
50.7744
50.7739
50.7734
50.7729
50.7725
50.772
50.7716
50.7712
50.7709
50.7705
50.7702
50.7698
50.7695
50.7692
50.769
50.7687
50.7684
50.7682
50.7679
50.7677
50.7674
50.7672
50.7669
50.7667
50.7664
50.7661
50.7659
50.7656
50.7653
50.765
50.7647
50.7644
50.7641
50.7638
50.7634
50.7631
50.7628
50.7624
50.7621
50.7618
50.7615
50.7611
50.7608
50.7606
50.7603
50.76
50.7598
50.7596
50.7594
50.7592
50.7591
50.759
50.7589
50.7589
50.7588
50.7588
50.7588
50.7589
50.7589
50.759
50.759
50.7591
50.7592
50.7592
50.7593
50.7594
50.7594
50.7595
50.7595
50.7595
50.7595
50.7596
50.7596
50.7596
50.7596
50.7596
50.7595
50.7595
50.7595
50.7594
50.7594
50.7593
50.7593
50.7592
50.7592
50.7591
50.759
50.759
50.759
50.759
50.759
50.759
50.7591
50.7592
50.7594
50.7596
50.7598
50.7601
50.7604
50.7608
50.7617
50.7608
50.7847
50.7885
50.7868
50.7858
50.7845
50.7836
50.7833
50.7832
50.7832
50.7831
50.7829
50.7828
50.7827
50.7826
50.7825
50.7824
50.7824
50.7824
50.7824
50.7824
50.7825
50.7825
50.7826
50.7827
50.7828
50.7828
50.7829
50.7829
50.7829
50.7828
50.7828
50.7827
50.7826
50.7825
50.7823
50.7821
50.7818
50.7815
50.7812
50.7808
50.7804
50.7799
50.7795
50.779
50.7785
50.778
50.7774
50.7769
50.7765
50.7761
50.7757
50.7753
50.7749
50.7746
50.7742
50.7739
50.7736
50.7733
50.773
50.7727
50.7724
50.7721
50.7719
50.7714
50.7708
50.7703
50.7702
50.7702
50.7702
50.7701
50.7688
50.7634
50.7568
50.7534
50.7526
50.7531
50.7566
50.7639
50.7699
50.7742
50.7771
50.7789
50.7799
50.7804
50.7806
50.7805
50.7803
50.7799
50.7795
50.779
50.7785
50.778
50.7775
50.7769
50.7764
50.7758
50.7753
50.7748
50.7743
50.7738
50.7733
50.7728
50.7724
50.7719
50.7715
50.7711
50.7708
50.7704
50.7701
50.7697
50.7694
50.7691
50.7689
50.7686
50.7683
50.7681
50.7678
50.7676
50.7673
50.7671
50.7668
50.7666
50.7663
50.766
50.7658
50.7655
50.7652
50.7649
50.7646
50.7643
50.764
50.7637
50.7633
50.763
50.7627
50.7623
50.762
50.7617
50.7614
50.761
50.7607
50.7605
50.7602
50.7599
50.7597
50.7595
50.7593
50.7591
50.759
50.7589
50.7588
50.7588
50.7587
50.7587
50.7587
50.7588
50.7588
50.7589
50.7589
50.759
50.7591
50.7591
50.7592
50.7593
50.7593
50.7594
50.7594
50.7594
50.7595
50.7595
50.7595
50.7595
50.7595
50.7595
50.7594
50.7594
50.7594
50.7593
50.7593
50.7592
50.7592
50.7591
50.7591
50.759
50.7589
50.7589
50.7589
50.7589
50.7589
50.7589
50.759
50.7591
50.7593
50.7595
50.7597
50.76
50.7603
50.7607
50.7616
50.7605
50.7315
50.7184
50.7136
50.7128
50.7107
50.7057
50.699
50.6918
50.6836
50.6755
50.6673
50.6586
50.6507
50.6426
50.6357
50.629
50.6237
50.6188
50.6154
50.6138
50.7405
50.7372
50.7379
50.7394
50.7384
50.7347
50.7289
50.7233
50.7162
50.7099
50.7026
50.6959
50.6891
50.6824
50.6767
50.6714
50.6666
50.6628
50.6597
50.6578
50.7627
50.7627
50.7618
50.7598
50.7572
50.7538
50.7498
50.7448
50.7389
50.7316
50.7236
50.7158
50.7085
50.7012
50.6925
50.6825
50.6717
50.6602
50.6473
50.6328
50.7735
50.7773
50.7773
50.7757
50.774
50.7723
50.7701
50.7673
50.7658
50.7689
50.7725
50.7699
50.7594
50.7449
50.7343
50.7259
50.7181
50.712
50.7108
50.7276
50.777
50.7842
50.7851
50.7833
50.7816
50.7798
50.7774
50.7747
50.773
50.7755
50.7791
50.7776
50.7693
50.7552
50.7436
50.7347
50.7263
50.719
50.7178
50.7347
50.6348
50.6375
50.6374
50.637
50.6365
50.6367
50.6372
50.6381
50.6388
50.6395
50.6402
50.6409
50.6416
50.6424
50.6431
50.6438
50.6445
50.6452
50.6458
50.6464
50.6471
50.6476
50.6482
50.6487
50.6493
50.6498
50.6503
50.6509
50.6514
50.652
50.6526
50.6532
50.6538
50.6545
50.6552
50.6559
50.6567
50.6574
50.6582
50.659
50.6598
50.6607
50.6616
50.6626
50.6636
50.6646
50.6657
50.6668
50.668
50.6693
50.6706
50.672
50.6734
50.6748
50.6764
50.6779
50.6796
50.6812
50.6829
50.6846
50.6862
50.6879
50.6896
50.6913
50.6928
50.6943
50.6959
50.6976
50.6996
50.7017
50.7036
50.7047
50.7023
50.6974
50.695
50.6956
50.698
50.7023
50.7109
50.7195
50.7263
50.7317
50.7359
50.7394
50.7424
50.7449
50.7473
50.7496
50.7518
50.754
50.7561
50.7584
50.7606
50.763
50.7653
50.7679
50.7702
50.7729
50.7742
50.785
50.6502
50.6471
50.6461
50.6454
50.6448
50.6449
50.6455
50.6464
50.647
50.6476
50.6483
50.649
50.6497
50.6504
50.6511
50.6518
50.6524
50.6531
50.6537
50.6543
50.6549
50.6554
50.656
50.6565
50.6571
50.6576
50.6581
50.6586
50.6592
50.6597
50.6603
50.6609
50.6615
50.6621
50.6627
50.6634
50.6641
50.6649
50.6657
50.6665
50.6673
50.6682
50.6691
50.67
50.671
50.6721
50.6731
50.6743
50.6755
50.6767
50.678
50.6794
50.6808
50.6823
50.6838
50.6853
50.6869
50.6885
50.6902
50.6919
50.6936
50.6953
50.697
50.6986
50.7003
50.702
50.7036
50.7051
50.7064
50.7077
50.7093
50.7112
50.7128
50.7134
50.7131
50.7131
50.7139
50.7158
50.7183
50.7216
50.7273
50.7335
50.7384
50.742
50.7447
50.7471
50.7493
50.7512
50.753
50.7549
50.7569
50.7589
50.7611
50.7634
50.7656
50.7681
50.7704
50.773
50.7747
50.7808
50.604
50.6174
50.6268
50.6285
50.6277
50.6277
50.6285
50.6295
50.6303
50.631
50.6318
50.6325
50.6333
50.634
50.6347
50.6354
50.636
50.6366
50.6372
50.6379
50.6385
50.6392
50.6398
50.6404
50.6411
50.6417
50.6422
50.6428
50.6433
50.6439
50.6444
50.645
50.6456
50.6462
50.6469
50.6475
50.6482
50.6489
50.6497
50.6504
50.6512
50.652
50.6528
50.6536
50.6545
50.6554
50.6564
50.6575
50.6585
50.6596
50.6606
50.6618
50.663
50.6643
50.6657
50.6672
50.6691
50.6713
50.6748
50.6799
50.6846
50.6889
50.6927
50.6959
50.6988
50.7013
50.7036
50.7058
50.7078
50.7098
50.7118
50.7138
50.7158
50.7179
50.72
50.7222
50.7246
50.727
50.7295
50.732
50.7344
50.7368
50.7392
50.7414
50.7436
50.7456
50.7477
50.7498
50.7519
50.754
50.7562
50.7584
50.7607
50.763
50.7655
50.7679
50.7705
50.7729
50.7757
50.7785
50.6933
50.6519
50.6464
50.6511
50.6502
50.6465
50.6455
50.6463
50.647
50.6473
50.6478
50.6486
50.6493
50.65
50.6506
50.6513
50.652
50.6526
50.6532
50.6538
50.6543
50.6549
50.6554
50.6559
50.6564
50.657
50.6575
50.658
50.6586
50.6592
50.6598
50.6604
50.6611
50.6617
50.6624
50.6631
50.6638
50.6645
50.6653
50.666
50.6668
50.6676
50.6685
50.6694
50.6703
50.6714
50.6725
50.6736
50.6748
50.676
50.6773
50.6786
50.68
50.6815
50.683
50.6845
50.686
50.6875
50.6891
50.6907
50.6923
50.6939
50.6957
50.6974
50.6991
50.7008
50.7024
50.704
50.7057
50.7075
50.7094
50.7114
50.7134
50.7156
50.7177
50.7192
50.7186
50.7148
50.7123
50.7123
50.7144
50.7181
50.7257
50.7347
50.7413
50.7457
50.7488
50.7513
50.7536
50.7554
50.7572
50.7592
50.7613
50.7634
50.7658
50.7681
50.7707
50.773
50.7763
50.7778
50.697
50.6527
50.6469
50.6516
50.6512
50.6475
50.6463
50.6473
50.6481
50.6483
50.6488
50.6496
50.6504
50.6511
50.6517
50.6523
50.653
50.6536
50.6542
50.6548
50.6554
50.6559
50.6565
50.657
50.6575
50.658
50.6585
50.6591
50.6596
50.6602
50.6608
50.6614
50.662
50.6627
50.6634
50.6641
50.6648
50.6655
50.6663
50.667
50.6679
50.6687
50.6696
50.6705
50.6714
50.6724
50.6735
50.6747
50.6759
50.6771
50.6784
50.6797
50.6811
50.6826
50.6841
50.6856
50.6872
50.6888
50.6904
50.692
50.6937
50.6954
50.6971
50.6989
50.7007
50.7025
50.7043
50.7061
50.7079
50.7096
50.7115
50.7133
50.7152
50.7172
50.7194
50.7215
50.7232
50.7232
50.7185
50.7138
50.7128
50.7148
50.7188
50.7279
50.738
50.7448
50.749
50.7519
50.7542
50.7561
50.7577
50.7595
50.7614
50.7635
50.7658
50.768
50.7706
50.773
50.7762
50.7777
50.7541
50.743
50.7391
50.7389
50.7374
50.7334
50.7277
50.7219
50.715
50.7084
50.7014
50.6943
50.6877
50.6812
50.6756
50.6703
50.6661
50.6623
50.6597
50.6586
50.7624
50.7599
50.761
50.7629
50.7623
50.7595
50.7545
50.7503
50.7442
50.7393
50.7333
50.7276
50.7221
50.717
50.7123
50.7079
50.7045
50.7017
50.6994
50.6982
50.7807
50.7815
50.7812
50.78
50.7781
50.7756
50.7726
50.7685
50.7634
50.7574
50.7514
50.7456
50.7398
50.733
50.7249
50.716
50.7063
50.6958
50.6835
50.6722
50.7903
50.7942
50.7949
50.7941
50.7933
50.7923
50.791
50.79
50.7916
50.7955
50.7951
50.788
50.7765
50.7676
50.7611
50.7549
50.7502
50.7502
50.762
50.7714
50.7933
50.8004
50.8019
50.8009
50.8
50.799
50.7977
50.7966
50.7979
50.8015
50.8017
50.7962
50.7853
50.7757
50.7687
50.7621
50.7566
50.7558
50.7668
50.7789
50.6784
50.6837
50.6867
50.6889
50.6912
50.6943
50.6976
50.701
50.7045
50.708
50.7115
50.715
50.7186
50.7222
50.7257
50.7292
50.7327
50.7363
50.7399
50.7434
50.747
50.7507
50.7543
50.7581
50.7618
50.7656
50.7694
50.7732
50.7771
50.781
50.7849
50.7888
50.7928
50.7968
50.8008
50.8049
50.809
50.8131
50.8173
50.8216
50.8259
50.8303
50.8347
50.8392
50.8438
50.8484
50.8531
50.8579
50.8627
50.8676
50.8726
50.8776
50.8827
50.8879
50.8932
50.8986
50.9039
50.9093
50.9147
50.9202
50.9257
50.9311
50.9364
50.9416
50.9471
50.953
50.9594
50.9657
50.9708
50.9716
50.9701
50.9715
50.9762
50.9832
50.992
51.0046
51.0175
51.0286
51.038
51.0461
51.0535
51.0607
51.0676
51.074
51.0803
51.0865
51.0928
51.0991
51.1053
51.1117
51.118
51.1244
51.1309
51.1373
51.1439
51.1504
51.1571
51.1638
51.1705
51.1773
51.1841
51.191
51.1979
51.2049
51.212
51.2191
51.2262
51.2334
51.2406
51.2479
51.2552
51.2625
51.2699
51.2774
51.2848
51.2923
51.2998
51.3074
51.3149
51.3225
51.3302
51.3378
51.3455
51.3531
51.3608
51.3686
51.3763
51.384
51.3918
51.3995
51.4073
51.4151
51.4229
51.4308
51.4386
51.4465
51.4544
51.4623
51.4702
51.4781
51.4861
51.4941
51.5021
51.5102
51.5183
51.5264
51.5345
51.5427
51.5509
51.5592
51.5675
51.5758
51.5841
51.5925
51.601
51.6094
51.6179
51.6264
51.635
51.6436
51.6522
51.6608
51.6695
51.6782
51.6869
51.6957
51.7044
51.7132
51.722
51.7308
51.7397
51.7485
51.7574
51.7663
51.7753
51.7842
51.7932
51.8022
51.8112
51.8202
51.8292
51.8382
51.8474
51.8564
51.8656
51.8746
51.8839
51.8928
51.9023
51.9112
51.9207
51.9296
51.9393
51.9481
51.9579
51.9667
51.9764
51.9856
51.9948
52.0048
50.6916
50.6922
50.6949
50.6968
50.699
50.7021
50.7056
50.7089
50.7124
50.7159
50.7194
50.7229
50.7264
50.73
50.7335
50.7371
50.7406
50.7441
50.7477
50.7513
50.7548
50.7585
50.7621
50.7658
50.7695
50.7732
50.777
50.7808
50.7846
50.7885
50.7924
50.7964
50.8003
50.8043
50.8084
50.8124
50.8165
50.8207
50.8249
50.8291
50.8335
50.8378
50.8423
50.8468
50.8513
50.8559
50.8606
50.8654
50.8702
50.8751
50.8801
50.8851
50.8902
50.8954
50.9007
50.9059
50.9112
50.9166
50.9221
50.9276
50.933
50.9384
50.944
50.9496
50.955
50.9601
50.9651
50.9708
50.9771
50.9827
50.987
50.9905
50.9942
50.999
51.0051
51.0123
51.0202
51.0301
51.0402
51.0486
51.0561
51.0633
51.07
51.0759
51.0817
51.0876
51.0936
51.0997
51.1058
51.112
51.1183
51.1246
51.131
51.1375
51.144
51.1506
51.1572
51.1639
51.1706
51.1774
51.1842
51.1911
51.198
51.205
51.2121
51.2192
51.2263
51.2335
51.2407
51.248
51.2553
51.2626
51.27
51.2774
51.2849
51.2924
51.2999
51.3075
51.315
51.3226
51.3303
51.3379
51.3456
51.3532
51.3609
51.3686
51.3764
51.3841
51.3919
51.3996
51.4074
51.4152
51.423
51.4309
51.4387
51.4466
51.4544
51.4623
51.4703
51.4782
51.4862
51.4942
51.5022
51.5103
51.5183
51.5265
51.5346
51.5428
51.551
51.5593
51.5675
51.5759
51.5842
51.5926
51.6011
51.6095
51.618
51.6265
51.6351
51.6437
51.6523
51.6609
51.6696
51.6783
51.687
51.6957
51.7045
51.7133
51.7221
51.7309
51.7398
51.7486
51.7575
51.7664
51.7754
51.7843
51.7933
51.8022
51.8113
51.8203
51.8293
51.8383
51.8475
51.8565
51.8657
51.8747
51.884
51.8929
51.9024
51.9113
51.9208
51.9297
51.9394
51.9482
51.958
51.9668
51.9766
51.9854
51.9954
52.0043
50.6514
50.6664
50.6768
50.6804
50.6826
50.6855
50.6889
50.6926
50.6961
50.6995
50.703
50.7065
50.71
50.7136
50.7172
50.7208
50.7244
50.7281
50.7317
50.7354
50.739
50.7426
50.7463
50.7499
50.7536
50.7573
50.7611
50.7648
50.7686
50.7725
50.7764
50.7803
50.7842
50.7882
50.7923
50.7963
50.8004
50.8046
50.8088
50.8131
50.8173
50.8216
50.826
50.8304
50.8349
50.8394
50.8438
50.8483
50.8528
50.8574
50.8622
50.867
50.872
50.8773
50.8832
50.8896
50.8971
50.9058
50.9143
50.9223
50.9294
50.9362
50.9428
50.9493
50.9554
50.9614
50.9673
50.9733
50.9792
50.9852
50.9913
50.9976
51.0039
51.0103
51.0167
51.0233
51.0299
51.0364
51.0429
51.0494
51.0557
51.0619
51.0681
51.0743
51.0805
51.0866
51.0929
51.0991
51.1054
51.1117
51.1181
51.1245
51.1309
51.1374
51.144
51.1505
51.1572
51.1639
51.1706
51.1774
51.1842
51.1911
51.198
51.205
51.2121
51.2192
51.2263
51.2335
51.2407
51.248
51.2553
51.2626
51.27
51.2774
51.2849
51.2924
51.2999
51.3075
51.315
51.3226
51.3303
51.3379
51.3456
51.3532
51.3609
51.3686
51.3764
51.3841
51.3919
51.3996
51.4074
51.4152
51.423
51.4309
51.4387
51.4466
51.4544
51.4623
51.4703
51.4782
51.4862
51.4942
51.5022
51.5103
51.5183
51.5265
51.5346
51.5428
51.551
51.5593
51.5675
51.5759
51.5842
51.5926
51.6011
51.6095
51.618
51.6265
51.6351
51.6437
51.6523
51.6609
51.6696
51.6783
51.687
51.6957
51.7045
51.7133
51.7221
51.7309
51.7398
51.7486
51.7575
51.7664
51.7754
51.7843
51.7933
51.8022
51.8112
51.8203
51.8293
51.8383
51.8474
51.8565
51.8657
51.8747
51.8839
51.893
51.9022
51.9115
51.9207
51.9299
51.9392
51.9483
51.9579
51.967
51.9763
51.9857
51.9951
52.0043
50.7192
50.6907
50.6968
50.7047
50.7036
50.7025
50.7054
50.7093
50.7124
50.7155
50.719
50.7226
50.726
50.7295
50.733
50.7365
50.74
50.7436
50.7472
50.7508
50.7544
50.758
50.7617
50.7654
50.7691
50.7729
50.7766
50.7804
50.7842
50.7881
50.792
50.7959
50.7998
50.8037
50.8077
50.8118
50.8159
50.8201
50.8243
50.8285
50.8328
50.8372
50.8416
50.8461
50.8507
50.8553
50.86
50.8647
50.8696
50.8744
50.8794
50.8844
50.8895
50.8946
50.8998
50.905
50.9102
50.9154
50.9208
50.9263
50.932
50.9376
50.9431
50.9486
50.954
50.9595
50.9651
50.9707
50.9764
50.9826
50.9891
50.9956
51.0011
51.0033
51.0032
51.005
51.0096
51.0166
51.0253
51.0379
51.0505
51.0603
51.0683
51.0757
51.0825
51.0883
51.0941
51.1
51.106
51.1122
51.1184
51.1247
51.1311
51.1375
51.144
51.1506
51.1572
51.1639
51.1706
51.1774
51.1842
51.1911
51.198
51.205
51.2121
51.2192
51.2263
51.2335
51.2407
51.248
51.2553
51.2626
51.27
51.2774
51.2849
51.2924
51.2999
51.3075
51.315
51.3226
51.3303
51.3379
51.3456
51.3532
51.3609
51.3686
51.3764
51.3841
51.3919
51.3996
51.4074
51.4152
51.423
51.4309
51.4387
51.4466
51.4544
51.4623
51.4703
51.4782
51.4862
51.4942
51.5022
51.5103
51.5183
51.5265
51.5346
51.5428
51.551
51.5593
51.5675
51.5759
51.5842
51.5926
51.6011
51.6095
51.618
51.6265
51.6351
51.6437
51.6523
51.6609
51.6696
51.6783
51.687
51.6957
51.7045
51.7133
51.7221
51.7309
51.7398
51.7486
51.7575
51.7664
51.7754
51.7843
51.7933
51.8023
51.8112
51.8203
51.8293
51.8384
51.8474
51.8566
51.8655
51.8749
51.8838
51.8932
51.9021
51.9116
51.9205
51.9301
51.9389
51.9487
51.9574
51.9673
51.976
51.986
51.9945
52.0045
50.7236
50.6912
50.6972
50.7058
50.7046
50.7034
50.7063
50.7103
50.7135
50.7165
50.7199
50.7236
50.7271
50.7305
50.734
50.7376
50.7411
50.7446
50.7482
50.7518
50.7554
50.759
50.7627
50.7664
50.7701
50.7738
50.7776
50.7814
50.7852
50.7891
50.793
50.7969
50.8008
50.8048
50.8088
50.8129
50.817
50.8212
50.8254
50.8296
50.8339
50.8382
50.8427
50.8472
50.8517
50.8563
50.861
50.8658
50.8706
50.8755
50.8804
50.8854
50.8905
50.8957
50.9009
50.9061
50.9114
50.9168
50.9221
50.9275
50.9331
50.9388
50.9445
50.9503
50.956
50.9617
50.9674
50.9731
50.9787
50.9844
50.9904
50.9969
51.0035
51.0093
51.012
51.0098
51.0097
51.0137
51.0208
51.0304
51.045
51.0582
51.068
51.0759
51.0831
51.0893
51.0947
51.1004
51.1062
51.1123
51.1184
51.1247
51.1311
51.1375
51.144
51.1505