/*--------------------------------*- C++ -*----------------------------------*\
| =========                 |                                                 |
| \\      /  F ield         | OpenFOAM: The Open Source CFD Toolbox           |
|  \\    /   O peration     | Version:  3.0.x                                 |
|   \\  /    A nd           | Web:      www.OpenFOAM.org                      |
|    \\/     M anipulation  |                                                 |
\*---------------------------------------------------------------------------*/
FoamFile
{
    version     2.0;
    format      ascii;
    class       surfaceScalarField;
    location    "0.12";
    object      phi;
}
// * * * * * * * * * * * * * * * * * * * * * * * * * * * * * * * * * * * * * //

dimensions      [1 0 -1 0 0 0 0];

internalField   nonuniform List<scalar> 
53800
(
1.97555
0.00102707
1.97485
0.000695215
1.97416
0.000688427
1.97346
0.00068992
1.97277
0.000689848
1.97207
0.000689712
1.97137
0.000689301
1.97068
0.000688852
1.96999
0.000687864
1.9693
0.00068547
1.96862
0.000681204
1.96794
0.000673637
1.96727
0.000661357
1.96662
0.000642848
1.966
0.000616795
1.96541
0.000582407
1.96487
0.000539676
1.96438
0.000489511
1.96394
0.000433706
1.96356
0.000374709
1.96323
0.000315287
1.96297
0.000258149
1.96275
0.000205504
1.96259
0.000159082
1.96246
0.000119716
1.96236
8.75998e-05
1.96228
6.2352e-05
1.96222
4.31975e-05
1.96217
2.91584e-05
1.96212
1.92035e-05
1.96207
1.23677e-05
1.96203
7.81778e-06
1.96197
4.88084e-06
1.96191
3.0415e-06
1.96183
1.924e-06
1.96174
1.2663e-06
1.96164
8.92698e-07
1.96151
6.90026e-07
1.96137
5.87697e-07
1.9612
5.43176e-07
1.961
5.31287e-07
1.96077
5.37933e-07
1.9605
5.54704e-07
1.96021
5.77322e-07
1.95987
6.03002e-07
1.9595
6.29811e-07
1.95909
6.56983e-07
1.95864
6.82958e-07
1.95815
7.07048e-07
1.95763
7.28058e-07
1.95708
7.444e-07
1.9565
7.54106e-07
1.9559
7.68992e-07
1.95529
7.67628e-07
1.95467
7.49089e-07
1.95405
7.27989e-07
1.95344
7.00722e-07
1.95286
6.64601e-07
1.95231
6.1731e-07
1.9518
5.60245e-07
1.95134
4.94303e-07
1.95094
4.20459e-07
1.95062
3.40613e-07
1.95036
2.55764e-07
1.95018
1.67711e-07
1.95009
7.85039e-08
1.95008
4.02179e-08
1.95013
-7.74453e-08
1.95027
-1.71367e-07
1.95048
-2.43061e-07
1.95075
-3.09636e-07
1.95108
-3.56904e-07
1.95147
-3.94892e-07
1.95189
-4.19725e-07
1.95234
-4.30671e-07
1.95282
-4.29962e-07
1.95331
-4.15163e-07
1.95381
-3.89809e-07
1.95431
-3.52444e-07
1.9548
-3.03928e-07
1.95528
-2.47041e-07
1.95575
-1.84664e-07
1.95621
-1.1448e-07
1.95665
-4.19932e-08
1.95709
3.44553e-08
1.95752
1.68744e-07
1.95795
1.22054e-07
1.95837
-4.21642e-09
1.9588
4.39177e-07
1.95923
4.299e-07
1.95967
4.68262e-07
1.96012
4.87362e-07
1.96057
5.12697e-07
1.96104
5.40895e-07
1.96151
5.61911e-07
1.96198
5.74546e-07
1.96245
5.81793e-07
1.96291
5.74557e-07
1.96336
5.60689e-07
1.96379
5.39047e-07
1.96418
5.05985e-07
1.96454
4.70674e-07
1.96486
4.24894e-07
1.96512
3.73217e-07
1.96532
3.17446e-07
1.96546
2.60807e-07
1.96553
1.95319e-07
1.96553
1.35642e-07
1.96546
7.55281e-08
1.9653
-1.9576e-08
1.96507
-6.4214e-08
1.96476
-1.02806e-07
1.96438
-1.48899e-07
1.96393
-1.87767e-07
1.96341
-2.18959e-07
1.96283
-2.41933e-07
1.96219
-2.5579e-07
1.9615
-2.60308e-07
1.96077
-2.55328e-07
1.95999
-2.40991e-07
1.95917
-2.21025e-07
1.95833
-1.84264e-07
1.95745
-1.42769e-07
1.95655
-9.80835e-08
1.95562
-4.7763e-08
1.95468
7.5197e-09
1.95372
6.57419e-08
1.95276
-7.34508e-09
1.95178
5.63123e-08
1.9508
5.53759e-07
1.94983
3.0423e-07
1.94886
3.15253e-07
1.9479
3.73104e-07
1.94696
4.176e-07
1.94605
4.42851e-07
1.94517
4.54387e-07
1.94434
4.54096e-07
1.94355
4.41712e-07
1.94283
4.17171e-07
1.94218
3.80867e-07
1.9416
3.33508e-07
1.94111
2.76261e-07
1.94071
2.10584e-07
1.94041
1.38294e-07
1.9402
6.13072e-08
1.94009
-1.66983e-09
1.94007
-6.28424e-08
1.94013
-1.65066e-07
1.94028
-2.31426e-07
1.94051
-2.9918e-07
1.94082
-3.58141e-07
1.94118
-4.08076e-07
1.9416
-4.43117e-07
1.94206
-4.71751e-07
1.94255
-4.83153e-07
1.94305
-4.82756e-07
1.94356
-4.73847e-07
1.94406
-4.51408e-07
1.94454
-4.1995e-07
1.94499
-3.81959e-07
1.94541
-3.37419e-07
1.9458
-2.87884e-07
1.94615
-2.35581e-07
1.94645
-1.83863e-07
1.94671
-1.30996e-07
1.94693
-7.97809e-08
1.94711
-3.28801e-08
1.94725
1.14269e-08
1.94736
5.13901e-08
1.94744
8.62674e-08
1.94749
1.16073e-07
1.94752
1.4155e-07
1.94753
1.62734e-07
1.94753
1.75554e-07
1.94752
1.85977e-07
1.9475
1.99561e-07
1.94747
2.05804e-07
1.94744
2.09919e-07
1.94741
2.12e-07
1.94738
2.1224e-07
1.94734
2.10774e-07
1.94731
2.0874e-07
1.94728
2.0583e-07
1.94726
2.02832e-07
1.94723
1.98143e-07
1.94721
1.96964e-07
1.94719
1.90441e-07
1.94718
1.92067e-07
1.94716
1.90943e-07
1.94715
2.24445e-07
1.94714
3.969e-07
1.94713
1.23932e-06
1.94712
5.57752e-06
1.94709
2.69771e-05
1.94696
0.000133662
1.94629
0.000660883
1.9431
0.00319381
1.92812
0.014986
1.85406
0.0740645
0.257215
1.59685
2.27055
0.000991409
2.27055
0.000682632
2.27057
0.000669328
2.27058
0.000672955
2.27058
0.000673305
2.27059
0.000673425
2.2706
0.000673367
2.27061
0.000673266
2.27062
0.000672612
2.27063
0.000670547
2.27064
0.000666578
2.27065
0.000659283
2.27065
0.000647249
2.27066
0.000628968
2.27067
0.000603153
2.27067
0.000569053
2.27068
0.000526707
2.27069
0.000477076
2.27069
0.000421986
2.27069
0.000363898
2.27069
0.000305561
2.27069
0.000249635
2.27069
0.000198271
2.27069
0.000153123
2.27068
0.000114955
2.27067
8.39158e-05
2.27065
5.95885e-05
2.27063
4.11871e-05
2.27061
2.7739e-05
2.27058
1.82301e-05
2.27054
1.17183e-05
2.27049
7.39567e-06
2.27044
4.61281e-06
2.27037
2.87452e-06
2.27028
1.82122e-06
2.27018
1.20303e-06
2.27006
8.52979e-07
2.26992
6.63833e-07
2.26975
5.68965e-07
2.26955
5.28315e-07
2.26932
5.18223e-07
2.26906
5.25524e-07
2.26875
5.42295e-07
2.26841
5.6456e-07
2.26803
5.89709e-07
2.2676
6.15921e-07
2.26713
6.42427e-07
2.26661
6.67787e-07
2.26606
6.91267e-07
2.26546
7.11741e-07
2.26482
7.27596e-07
2.26416
7.37175e-07
2.26347
7.51737e-07
2.26277
7.50573e-07
2.26205
7.32412e-07
2.26134
7.11651e-07
2.26065
6.85071e-07
2.25998
6.49863e-07
2.25934
6.03741e-07
2.25876
5.48072e-07
2.25823
4.83771e-07
2.25778
4.11757e-07
2.2574
3.33908e-07
2.2571
2.51177e-07
2.2569
1.65321e-07
2.25679
7.85803e-08
2.25678
4.04179e-08
2.25684
-7.2916e-08
2.25699
-1.65284e-07
2.25723
-2.35021e-07
2.25755
-2.99857e-07
2.25793
-3.46023e-07
2.25837
-3.83039e-07
2.25885
-4.07272e-07
2.25937
-4.17964e-07
2.25992
-4.17276e-07
2.26048
-4.02895e-07
2.26105
-3.78201e-07
2.26162
-3.41817e-07
2.26219
-2.94585e-07
2.26274
-2.39179e-07
2.26328
-1.78381e-07
2.2638
-1.10016e-07
2.26431
-3.9352e-08
2.26482
3.61433e-08
2.26531
1.68297e-07
2.2658
1.22793e-07
2.26628
1.95723e-09
2.26677
4.23217e-07
2.26727
4.21813e-07
2.26777
4.58793e-07
2.26829
4.77474e-07
2.26881
5.02139e-07
2.26935
5.29599e-07
2.26989
5.50026e-07
2.27043
5.6229e-07
2.27097
5.69245e-07
2.2715
5.62195e-07
2.27202
5.48589e-07
2.27251
5.27409e-07
2.27296
4.95183e-07
2.27337
4.60648e-07
2.27373
4.16003e-07
2.27404
3.65555e-07
2.27427
3.11171e-07
2.27443
2.55877e-07
2.27451
1.92067e-07
2.27451
1.33889e-07
2.27443
7.53098e-08
2.27425
-1.77788e-08
2.27397
-6.04923e-08
2.27362
-9.84801e-08
2.27318
-1.43304e-07
2.27266
-1.81128e-07
2.27206
-2.11487e-07
2.2714
-2.33864e-07
2.27066
-2.4735e-07
2.26987
-2.51734e-07
2.26903
-2.46877e-07
2.26813
-2.3298e-07
2.26719
-2.13491e-07
2.26622
-1.77686e-07
2.26521
-1.3705e-07
2.26417
-9.34633e-08
2.26311
-4.44197e-08
2.26203
9.51695e-09
2.26093
6.52544e-08
2.25982
-5.64614e-09
2.2587
5.90771e-08
2.25757
5.38494e-07
2.25645
3.02487e-07
2.25534
3.09457e-07
2.25424
3.65773e-07
2.25316
4.09174e-07
2.25211
4.33774e-07
2.2511
4.44972e-07
2.25014
4.44641e-07
2.24924
4.32534e-07
2.24841
4.08563e-07
2.24766
3.73129e-07
2.247
3.26931e-07
2.24644
2.7108e-07
2.24598
2.0703e-07
2.24563
1.36526e-07
2.24538
6.15219e-08
2.24526
-2.29193e-10
2.24523
-5.89498e-08
2.24531
-1.59329e-07
2.24548
-2.23848e-07
2.24574
-2.89725e-07
2.24609
-3.47212e-07
2.24651
-3.95819e-07
2.24699
-4.30045e-07
2.24752
-4.57843e-07
2.24808
-4.69016e-07
2.24865
-4.6863e-07
2.24923
-4.59902e-07
2.2498
-4.38107e-07
2.25035
-4.07465e-07
2.25087
-3.70444e-07
2.25136
-3.27072e-07
2.2518
-2.78847e-07
2.2522
-2.27912e-07
2.25255
-1.77519e-07
2.25284
-1.26078e-07
2.2531
-7.6212e-08
2.2533
-3.05117e-08
2.25346
1.26238e-08
2.25359
5.15465e-08
2.25368
8.55143e-08
2.25374
1.14571e-07
2.25377
1.39367e-07
2.25379
1.5998e-07
2.25378
1.72524e-07
2.25377
1.82539e-07
2.25375
1.95902e-07
2.25372
2.01959e-07
2.25368
2.05942e-07
2.25364
2.07965e-07
2.2536
2.08234e-07
2.25357
2.06768e-07
2.25353
2.04916e-07
2.2535
2.01762e-07
2.25346
1.99627e-07
2.25344
1.93428e-07
2.25341
1.95025e-07
2.25339
1.85199e-07
2.25337
1.92613e-07
2.25335
1.93857e-07
2.25334
2.69356e-07
2.25333
6.54265e-07
2.25332
2.45759e-06
2.2533
1.18407e-05
2.25327
5.80769e-05
2.25311
0.000288567
2.25234
0.00142767
2.24863
0.00690502
2.23123
0.0323967
2.14627
0.159032
0.542209
1.86128
2.60818
0.00095044
2.60818
0.000666423
2.6082
0.00064619
2.60821
0.000651538
2.60822
0.000651997
2.60823
0.000652005
2.60825
0.000651947
2.60826
0.000651857
2.60828
0.000651228
2.60829
0.000649245
2.60831
0.000645419
2.60832
0.000638384
2.60833
0.000626772
2.60835
0.000609122
2.60836
0.000584189
2.60837
0.000551239
2.60838
0.000510305
2.60838
0.000462309
2.60839
0.000409014
2.60839
0.000352798
2.60839
0.000296319
2.60839
0.000242155
2.60838
0.000192387
2.60837
0.000148627
2.60836
0.000111617
2.60835
8.15071e-05
2.60833
5.78988e-05
2.6083
4.00337e-05
2.60827
2.69721e-05
2.60824
1.77324e-05
2.60819
1.14023e-05
2.60814
7.19841e-06
2.60807
4.49079e-06
2.60799
2.79869e-06
2.6079
1.77289e-06
2.60778
1.17051e-06
2.60764
8.29208e-07
2.60748
6.44657e-07
2.60728
5.51961e-07
2.60706
5.12126e-07
2.60679
5.02096e-07
2.60649
5.09015e-07
2.60614
5.25186e-07
2.60575
5.46697e-07
2.60531
5.71024e-07
2.60482
5.96378e-07
2.60428
6.22014e-07
2.60369
6.46567e-07
2.60304
6.69283e-07
2.60236
6.89055e-07
2.60163
7.04338e-07
2.60087
7.13677e-07
2.60007
7.27727e-07
2.59926
7.26777e-07
2.59845
7.09155e-07
2.59763
6.88844e-07
2.59683
6.63109e-07
2.59606
6.28992e-07
2.59533
5.84318e-07
2.59466
5.30388e-07
2.59406
4.68131e-07
2.59353
3.98421e-07
2.5931
3.23038e-07
2.59276
2.42948e-07
2.59253
1.59835e-07
2.5924
7.61065e-08
2.59238
3.82825e-08
2.59246
-6.99911e-08
2.59264
-1.60268e-07
2.59291
-2.27614e-07
2.59327
-2.90296e-07
2.59371
-3.35065e-07
2.59421
-3.70826e-07
2.59477
-3.94277e-07
2.59537
-4.04583e-07
2.596
-4.03874e-07
2.59664
-3.89922e-07
2.5973
-3.65966e-07
2.59795
-3.30707e-07
2.5986
-2.84963e-07
2.59923
-2.31332e-07
2.59985
-1.72437e-07
2.60045
-1.06294e-07
2.60104
-3.78568e-08
2.60162
3.59651e-08
2.60218
1.64186e-07
2.60275
1.20159e-07
2.60331
6.28279e-09
2.60387
4.02386e-07
2.60444
4.08974e-07
2.60502
4.44379e-07
2.60561
4.62533e-07
2.60621
4.86336e-07
2.60683
5.12908e-07
2.60745
5.32651e-07
2.60807
5.44525e-07
2.60869
5.51216e-07
2.6093
5.44467e-07
2.60989
5.31258e-07
2.61045
5.1071e-07
2.61098
4.79558e-07
2.61145
4.46031e-07
2.61186
4.02801e-07
2.61221
3.53903e-07
2.61248
3.01214e-07
2.61266
2.47594e-07
2.61276
1.85832e-07
2.61276
1.29483e-07
2.61266
7.27523e-08
2.61245
-1.77788e-08
2.61214
-5.83641e-08
2.61173
-9.55406e-08
2.61123
-1.38883e-07
2.61063
-1.75507e-07
2.60994
-2.04884e-07
2.60918
-2.2653e-07
2.60834
-2.3959e-07
2.60743
-2.43814e-07
2.60646
-2.39095e-07
2.60543
-2.25693e-07
2.60435
-2.06761e-07
2.60323
-1.72171e-07
2.60207
-1.32652e-07
2.60088
-9.0422e-08
2.59966
-4.299e-08
2.59842
9.18226e-09
2.59715
6.22131e-08
2.59588
-5.62432e-09
2.59459
5.89826e-08
2.5933
5.16895e-07
2.59201
2.9683e-07
2.59073
2.99664e-07
2.58947
3.54001e-07
2.58823
3.96056e-07
2.58702
4.19855e-07
2.58587
4.30671e-07
2.58476
4.30333e-07
2.58373
4.18597e-07
2.58278
3.95376e-07
2.58192
3.61051e-07
2.58116
3.16308e-07
2.58051
2.62226e-07
2.57998
2.00223e-07
2.57958
1.31986e-07
2.5793
5.94446e-08
2.57915
-6.6575e-10
2.57912
-5.6596e-08
2.57921
-1.54501e-07
2.5794
-2.16809e-07
2.57971
-2.80397e-07
2.58011
-3.36062e-07
2.58059
-3.83028e-07
2.58115
-4.16207e-07
2.58175
-4.42986e-07
2.58239
-4.53845e-07
2.58305
-4.53456e-07
2.58372
-4.44932e-07
2.58437
-4.23868e-07
2.58501
-3.94208e-07
2.58561
-3.58359e-07
2.58616
-3.16359e-07
2.58667
-2.69723e-07
2.58713
-2.20436e-07
2.58752
-1.71647e-07
2.58787
-1.21894e-07
2.58816
-7.36582e-08
2.58839
-2.94349e-08
2.58858
1.22818e-08
2.58872
4.99422e-08
2.58882
8.27968e-08
2.58889
1.10907e-07
2.58893
1.34889e-07
2.58895
1.54811e-07
2.58895
1.67009e-07
2.58893
1.76547e-07
2.5889
1.89608e-07
2.58887
1.95432e-07
2.58883
1.99278e-07
2.58878
2.01231e-07
2.58874
2.01515e-07
2.5887
2.00049e-07
2.58865
1.98419e-07
2.58862
1.94996e-07
2.58858
1.93868e-07
2.58855
1.8593e-07
2.58852
1.90717e-07
2.58849
1.77111e-07
2.58847
1.91154e-07
2.58845
1.9497e-07
2.58844
3.17861e-07
2.58842
9.43779e-07
2.58841
3.8237e-06
2.5884
1.88834e-05
2.58836
9.30517e-05
2.58818
0.000462818
2.58731
0.00229076
2.58313
0.0110905
2.56351
0.052019
2.46728
0.255275
0.86016
2.14933
2.99601
0.000904565
2.99602
0.000647033
2.99603
0.000619926
2.99605
0.0006269
2.99606
0.000627514
2.99607
0.000627399
2.99609
0.000627338
2.9961
0.000627259
2.99612
0.000626657
2.99614
0.000624765
2.99616
0.0006211
2.99617
0.00061436
2.99619
0.000603228
2.9962
0.0005863
2.99621
0.000562373
2.99623
0.000530739
2.99624
0.000491421
2.99624
0.0004453
2.99625
0.000394064
2.99625
0.000339996
2.99625
0.000285651
2.99625
0.000233511
2.99624
0.000185581
2.99623
0.000143421
2.99622
0.000107746
2.9962
7.87095e-05
2.99618
5.59331e-05
2.99615
3.86896e-05
2.99612
2.60767e-05
2.99608
1.71503e-05
2.99603
1.1032e-05
2.99597
6.96688e-06
2.99589
4.34735e-06
2.9958
2.70949e-06
2.99569
1.71606e-06
2.99555
1.13236e-06
2.9954
8.01439e-07
2.99521
6.22338e-07
2.99498
5.32265e-07
2.99472
4.9343e-07
2.99442
4.83502e-07
2.99407
4.90007e-07
2.99367
5.0549e-07
2.99322
5.26154e-07
2.99272
5.49528e-07
2.99215
5.73906e-07
2.99153
5.9856e-07
2.99085
6.22174e-07
2.99011
6.4401e-07
2.98932
6.63011e-07
2.98849
6.77657e-07
2.98761
6.86712e-07
2.9867
7.00151e-07
2.98577
6.99416e-07
2.98483
6.82448e-07
2.98389
6.62698e-07
2.98298
6.3792e-07
2.98209
6.05058e-07
2.98126
5.62068e-07
2.98048
5.10157e-07
2.97979
4.50251e-07
2.97919
3.83166e-07
2.97869
3.10614e-07
2.9783
2.33566e-07
2.97803
1.53614e-07
2.97789
7.32871e-08
2.97787
3.59723e-08
2.97795
-6.67133e-08
2.97816
-1.54483e-07
2.97847
-2.19094e-07
2.97889
-2.79309e-07
2.97939
-3.22452e-07
2.97997
-3.56817e-07
2.98061
-3.79368e-07
2.9813
-3.89242e-07
2.98202
-3.88518e-07
2.98276
-3.75054e-07
2.98351
-3.51967e-07
2.98426
-3.1801e-07
2.98501
-2.73998e-07
2.98573
-2.2239e-07
2.98644
-1.65695e-07
2.98714
-1.02085e-07
2.98781
-3.62234e-08
2.98847
3.55176e-08
2.98913
1.58838e-07
2.98977
1.16561e-07
2.99041
1.08012e-08
2.99106
3.79954e-07
2.99171
3.94208e-07
2.99238
4.27772e-07
2.99306
4.45281e-07
2.99375
4.68124e-07
2.99446
4.93677e-07
2.99517
5.12649e-07
2.99589
5.24087e-07
2.9966
5.30457e-07
2.9973
5.24047e-07
2.99798
5.11303e-07
2.99862
4.91509e-07
2.99922
4.61583e-07
2.99977
4.29227e-07
3.00024
3.87623e-07
3.00064
3.40515e-07
3.00095
2.89798e-07
3.00116
2.38106e-07
3.00127
1.78694e-07
3.00127
1.2447e-07
3.00116
6.98456e-08
3.00092
-1.76515e-08
3.00056
-5.59376e-08
3.00009
-9.21063e-08
2.99951
-1.33765e-07
2.99882
-1.6901e-07
2.99804
-1.97266e-07
2.99716
-2.18071e-07
2.99619
-2.30633e-07
2.99515
-2.34682e-07
2.99403
-2.30146e-07
2.99285
-2.17289e-07
2.99161
-1.99001e-07
2.99033
-1.65808e-07
2.989
-1.2762e-07
2.98763
-8.69659e-08
2.98623
-4.13602e-08
2.9848
8.80027e-09
2.98335
5.88843e-08
2.98188
-5.34055e-09
2.9804
5.87715e-08
2.97892
4.92502e-07
2.97744
2.8955e-07
2.97597
2.88393e-07
2.97451
3.40508e-07
2.97309
3.81006e-07
2.97171
4.03907e-07
2.97038
4.14293e-07
2.96911
4.13944e-07
2.96793
4.02644e-07
2.96683
3.80285e-07
2.96584
3.47234e-07
2.96497
3.04175e-07
2.96423
2.52134e-07
2.96362
1.92482e-07
2.96315
1.26827e-07
2.96284
5.71017e-08
2.96267
-1.05501e-09
2.96264
-5.40022e-08
2.96273
-1.48892e-07
2.96296
-2.08736e-07
2.96331
-2.69702e-07
2.96377
-3.23282e-07
2.96432
-3.68378e-07
2.96496
-4.00374e-07
2.96565
-4.25996e-07
2.96639
-4.36492e-07
2.96715
-4.36114e-07
2.96791
-4.27834e-07
2.96867
-4.07614e-07
2.96939
-3.79077e-07
2.97008
-3.4456e-07
2.97072
-3.0416e-07
2.9713
-2.59319e-07
2.97183
-2.11912e-07
2.97229
-1.64971e-07
2.97268
-1.17168e-07
2.97301
-7.0766e-08
2.97328
-2.82271e-08
2.9735
1.18562e-08
2.97366
4.80868e-08
2.97378
7.96826e-08
2.97386
1.06702e-07
2.9739
1.29756e-07
2.97392
1.48884e-07
2.97392
1.6069e-07
2.9739
1.69697e-07
2.97387
1.82394e-07
2.97383
1.87974e-07
2.97378
1.91656e-07
2.97373
1.93522e-07
2.97368
1.93835e-07
2.97363
1.92365e-07
2.97358
1.9099e-07
2.97354
1.87258e-07
2.9735
1.87265e-07
2.97346
1.77341e-07
2.97343
1.85795e-07
2.9734
1.67824e-07
2.97337
1.89473e-07
2.97335
1.96167e-07
2.97333
3.73147e-07
2.97332
1.27396e-06
2.9733
5.38277e-06
2.97329
2.69221e-05
2.97324
0.000132971
2.97304
0.000661723
2.97205
0.00327627
2.96727
0.0158746
2.94488
0.0744115
2.83568
0.364489
1.21363
2.48222
3.4415
0.000853417
3.44152
0.000623796
3.44154
0.000590121
3.44155
0.000598562
3.44157
0.000599377
3.44158
0.000599133
3.4416
0.000599068
3.44162
0.000599001
3.44164
0.000598429
3.44166
0.000596639
3.44168
0.000593156
3.4417
0.00058675
3.44172
0.000576163
3.44173
0.000560055
3.44175
0.000537275
3.44176
0.000507141
3.44177
0.000469669
3.44178
0.000425694
3.44179
0.000376816
3.44179
0.000325213
3.44179
0.00027332
3.44179
0.000223511
3.44178
0.000177698
3.44177
0.000137383
3.44175
0.000103252
3.44173
7.54582e-05
3.44171
5.36458e-05
3.44168
3.71237e-05
3.44164
2.50323e-05
3.44159
1.64706e-05
3.44153
1.05992e-05
3.44146
6.69598e-06
3.44138
4.17944e-06
3.44127
2.60506e-06
3.44114
1.64959e-06
3.44099
1.08784e-06
3.44081
7.69125e-07
3.44059
5.96468e-07
3.44033
5.09508e-07
3.44003
4.71882e-07
3.43968
4.62103e-07
3.43928
4.68142e-07
3.43883
4.82849e-07
3.43831
5.02534e-07
3.43773
5.2482e-07
3.43708
5.48091e-07
3.43636
5.71616e-07
3.43558
5.94164e-07
3.43474
6.14988e-07
3.43383
6.33096e-07
3.43287
6.47036e-07
3.43186
6.5576e-07
3.43082
6.6849e-07
3.42975
6.67962e-07
3.42867
6.51749e-07
3.42759
6.3271e-07
3.42654
6.0903e-07
3.42552
5.77633e-07
3.42456
5.36582e-07
3.42368
4.86978e-07
3.42288
4.29774e-07
3.42219
3.6571e-07
3.42161
2.96421e-07
3.42117
2.22864e-07
3.42086
1.46525e-07
3.42069
7.00675e-08
3.42067
3.34694e-08
3.42077
-6.30207e-08
3.421
-1.47797e-07
3.42137
-2.09287e-07
3.42184
-2.66697e-07
3.42242
-3.07951e-07
3.42309
-3.40722e-07
3.42382
-3.62244e-07
3.42461
-3.71645e-07
3.42544
-3.70912e-07
3.42629
-3.58032e-07
3.42716
-3.35946e-07
3.42802
-3.03504e-07
3.42887
-2.61469e-07
3.42971
-2.12181e-07
3.43052
-1.58016e-07
3.43132
-9.73159e-08
3.4321
-3.43898e-08
3.43286
3.47536e-08
3.4336
1.52217e-07
3.43434
1.11986e-07
3.43508
1.53395e-08
3.43582
3.55751e-07
3.43658
3.77177e-07
3.43734
4.08663e-07
3.43812
4.25409e-07
3.43892
4.47177e-07
3.43973
4.71553e-07
3.44055
4.89648e-07
3.44137
5.00573e-07
3.44219
5.06598e-07
3.44299
5.0055e-07
3.44377
4.88351e-07
3.44451
4.69419e-07
3.4452
4.40899e-07
3.44583
4.09907e-07
3.44637
3.70184e-07
3.44683
3.2515e-07
3.44719
2.76697e-07
3.44743
2.27259e-07
3.44755
1.70541e-07
3.44755
1.18776e-07
3.44742
6.65204e-08
3.44715
-1.73732e-08
3.44674
-5.31727e-08
3.4462
-8.81118e-08
3.44553
-1.27844e-07
3.44474
-1.61504e-07
3.44384
-1.88482e-07
3.44283
-2.08334e-07
3.44172
-2.20323e-07
3.44052
-2.24181e-07
3.43924
-2.19827e-07
3.43788
-2.07605e-07
3.43646
-1.90066e-07
3.43498
-1.58465e-07
3.43345
-1.21843e-07
3.43188
-8.30023e-08
3.43027
-3.94848e-08
3.42863
8.36008e-09
3.42697
5.52554e-08
3.42528
-4.86216e-09
3.42358
5.83095e-08
3.42188
4.65143e-07
3.42018
2.8037e-07
3.41849
2.75451e-07
3.41682
3.25046e-07
3.41519
3.63747e-07
3.4136
3.85608e-07
3.41207
3.95523e-07
3.41062
3.95166e-07
3.40925
3.84363e-07
3.408
3.62998e-07
3.40686
3.31434e-07
3.40586
2.90303e-07
3.405
2.40607e-07
3.4043
1.83649e-07
3.40377
1.20954e-07
3.4034
5.44533e-08
3.40321
-1.43154e-09
3.40318
-5.11209e-08
3.40328
-1.42376e-07
3.40354
-1.99452e-07
3.40395
-2.5744e-07
3.40448
-3.08633e-07
3.40511
-3.51603e-07
3.40584
-3.82228e-07
3.40664
-4.06548e-07
3.40749
-4.16634e-07
3.40836
-4.16278e-07
3.40924
-4.08278e-07
3.4101
-3.89027e-07
3.41094
-3.61781e-07
3.41173
-3.28793e-07
3.41246
-2.90223e-07
3.41313
-2.47446e-07
3.41373
-2.02197e-07
3.41426
-1.57355e-07
3.41471
-1.11771e-07
3.41509
-6.74936e-08
3.4154
-2.68719e-08
3.41565
1.1376e-08
3.41584
4.5944e-08
3.41597
7.6092e-08
3.41607
1.01882e-07
3.41612
1.2387e-07
3.41614
1.42103e-07
3.41614
1.53446e-07
3.41611
1.61883e-07
3.41608
1.74132e-07
3.41603
1.79432e-07
3.41598
1.82927e-07
3.41592
1.84707e-07
3.41586
1.85053e-07
3.41581
1.83563e-07
3.41575
1.82472e-07
3.4157
1.78376e-07
3.41565
1.79711e-07
3.41561
1.67498e-07
3.41557
1.8016e-07
3.41554
1.57172e-07
3.41551
1.87552e-07
3.41548
1.97373e-07
3.41546
4.35857e-07
3.41545
1.64884e-06
3.41543
7.15465e-06
3.41541
3.60607e-05
3.41536
0.000178347
3.41513
0.000887845
3.414
0.00439699
3.40856
0.0213209
3.3831
0.0998792
3.25979
0.48781
1.60526
2.86817
3.95325
0.000796544
3.95326
0.000595927
3.95329
0.000556301
3.95331
0.000565981
3.95332
0.000567037
3.95334
0.000566664
3.95336
0.000566594
3.95338
0.000566541
3.95341
0.000566004
3.95343
0.000564329
3.95345
0.000561052
3.95347
0.000555026
3.95349
0.000545058
3.95351
0.000529882
3.95353
0.000508407
3.95354
0.000479984
3.95356
0.000444621
3.95357
0.000403096
3.95357
0.000356919
3.95358
0.000308141
3.95358
0.000259064
3.95357
0.000211932
3.95356
0.000168559
3.95355
0.000130372
3.95354
9.8025e-05
3.95351
7.16693e-05
3.95348
5.09754e-05
3.95345
3.52919e-05
3.95341
2.3808e-05
3.95335
1.56721e-05
3.95328
1.00896e-05
3.9532
6.37641e-06
3.9531
3.98104e-06
3.95298
2.4816e-06
3.95283
1.57106e-06
3.95266
1.03537e-06
3.95245
7.31223e-07
3.9522
5.6629e-07
3.9519
4.83096e-07
3.95156
4.46974e-07
3.95116
4.37421e-07
3.9507
4.42963e-07
3.95018
4.56792e-07
3.94958
4.75367e-07
3.94891
4.96414e-07
3.94817
5.18414e-07
3.94735
5.40646e-07
3.94645
5.61969e-07
3.94548
5.81649e-07
3.94444
5.98749e-07
3.94333
6.11913e-07
3.94218
6.20247e-07
3.94098
6.32134e-07
3.93975
6.31785e-07
3.93851
6.16481e-07
3.93727
5.98334e-07
3.93606
5.75932e-07
3.93489
5.46216e-07
3.93379
5.07397e-07
3.93277
4.60463e-07
3.93186
4.0636e-07
3.93106
3.45774e-07
3.9304
2.80231e-07
3.92989
2.10669e-07
3.92954
1.38487e-07
3.92935
6.64104e-08
3.92932
3.07864e-08
3.92943
-5.8867e-08
3.9297
-1.40048e-07
3.93012
-1.97998e-07
3.93066
-2.52195e-07
3.93133
-2.91278e-07
3.93209
-3.22235e-07
3.93294
-3.42593e-07
3.93384
-3.51466e-07
3.9348
-3.50741e-07
3.93578
-3.3855e-07
3.93677
-3.1763e-07
3.93776
-2.86936e-07
3.93874
-2.47182e-07
3.9397
-2.00567e-07
3.94064
-1.49315e-07
3.94155
-9.19435e-08
3.94244
-3.24017e-08
3.94332
3.36204e-08
3.94417
1.43739e-07
3.94503
1.05876e-07
3.94587
1.9958e-08
3.94673
3.30098e-07
3.94759
3.57611e-07
3.94847
3.86635e-07
3.94936
4.02467e-07
3.95028
4.23038e-07
3.95121
4.46074e-07
3.95215
4.63172e-07
3.9531
4.7351e-07
3.95404
4.79155e-07
3.95496
4.73502e-07
3.95586
4.61933e-07
3.95671
4.44007e-07
3.9575
4.17086e-07
3.95822
3.87689e-07
3.95884
3.50133e-07
3.95937
3.07512e-07
3.95978
2.61676e-07
3.96006
2.14855e-07
3.9602
1.61242e-07
3.9602
1.1233e-07
3.96005
6.2767e-08
3.95974
-1.68693e-08
3.95926
-5.00149e-08
3.95864
-8.34607e-08
3.95788
-1.20982e-07
3.95697
-1.52817e-07
3.95594
-1.7833e-07
3.95477
-1.97097e-07
3.9535
-2.08434e-07
3.95212
-2.12075e-07
3.95065
-2.07949e-07
3.94909
-1.96428e-07
3.94746
-1.7975e-07
3.94576
-1.49978e-07
3.944
-1.15223e-07
3.9422
-7.84676e-08
3.94035
-3.73411e-08
3.93846
7.85803e-09
3.93655
5.13282e-08
3.93461
-3.98359e-09
3.93267
5.7621e-08
3.93071
4.34409e-07
3.92875
2.68697e-07
3.92681
2.60547e-07
3.9249
3.07334e-07
3.92302
3.43973e-07
3.92119
3.64647e-07
3.91944
3.74023e-07
3.91777
3.73678e-07
3.9162
3.63444e-07
3.91476
3.43234e-07
3.91346
3.13372e-07
3.9123
2.74463e-07
3.91132
2.27462e-07
3.91052
1.73589e-07
3.9099
1.14301e-07
3.90949
5.14829e-08
3.90926
-1.73168e-09
3.90922
-4.79249e-08
3.90935
-1.34831e-07
3.90965
-1.88788e-07
3.91011
-2.434e-07
3.91072
-2.91854e-07
3.91145
-3.32427e-07
3.91229
-3.61466e-07
3.9132
-3.84332e-07
3.91418
-3.93945e-07
3.91518
-3.93607e-07
3.91619
-3.85958e-07
3.91718
-3.67811e-07
3.91814
-3.42045e-07
3.91904
-3.10823e-07
3.91989
-2.74345e-07
3.92066
-2.33918e-07
3.92135
-1.91136e-07
3.92195
-1.48699e-07
3.92247
-1.05643e-07
3.92291
-6.37865e-08
3.92327
-2.53567e-08
3.92355
1.08266e-08
3.92377
4.34629e-08
3.92392
7.19619e-08
3.92403
9.63628e-08
3.92409
1.17133e-07
3.92411
1.34347e-07
3.92411
1.45151e-07
3.92408
1.52973e-07
3.92404
1.6468e-07
3.92399
1.69669e-07
3.92393
1.72957e-07
3.92386
1.74629e-07
3.9238
1.75e-07
3.92373
1.73493e-07
3.92367
1.7273e-07
3.92361
1.68224e-07
3.92355
1.71063e-07
3.9235
1.56226e-07
3.92346
1.73709e-07
3.92342
1.44952e-07
3.92339
1.85317e-07
3.92336
1.98484e-07
3.92334
5.06488e-07
3.92332
2.07259e-06
3.9233
9.1554e-06
3.92328
4.63888e-05
3.92322
0.000229621
3.92296
0.0011434
3.92169
0.00566401
3.91553
0.0274846
3.88674
0.128673
3.74847
0.626087
2.03707
3.31667
17.2461
0.00057013
17.2462
0.000461267
17.2462
0.000413401
17.2463
0.000423768
17.2464
0.000425748
17.2465
0.000425057
17.2466
0.000424943
17.2467
0.000424926
17.2468
0.000424529
17.2469
0.00042331
17.247
0.000420891
17.2471
0.000416447
17.2471
0.000409082
17.2472
0.000397846
17.2473
0.00038192
17.2474
0.000360803
17.2474
0.000334484
17.2475
0.000303525
17.2475
0.000269037
17.2475
0.000232541
17.2475
0.000195754
17.2475
0.000160363
17.2475
0.000127731
17.2474
9.89483e-05
17.2473
7.45207e-05
17.2472
5.45771e-05
17.2471
3.88869e-05
17.247
2.69715e-05
17.2468
1.82284e-05
17.2465
1.20212e-05
17.2462
7.75274e-06
17.2459
4.9073e-06
17.2455
3.06752e-06
17.2449
1.91312e-06
17.2443
1.21037e-06
17.2435
7.95808e-07
17.2426
5.59709e-07
17.2415
4.31165e-07
17.2402
3.65912e-07
17.2387
3.37181e-07
17.237
3.29105e-07
17.235
3.32755e-07
17.2327
3.42874e-07
17.2301
3.56661e-07
17.2272
3.72367e-07
17.2239
3.88846e-07
17.2203
4.05487e-07
17.2164
4.21483e-07
17.2122
4.36228e-07
17.2077
4.49036e-07
17.2028
4.58927e-07
17.1978
4.65403e-07
17.1926
4.73782e-07
17.1872
4.73774e-07
17.1818
4.62528e-07
17.1764
4.48721e-07
17.1711
4.31953e-07
17.166
4.09634e-07
17.1612
3.80544e-07
17.1568
3.45325e-07
17.1528
3.04752e-07
17.1493
2.59331e-07
17.1464
2.10155e-07
17.1442
1.58004e-07
17.1427
1.03905e-07
17.1418
5.03933e-08
17.1417
2.11089e-08
17.1422
-4.23383e-08
17.1434
-1.05681e-07
17.1452
-1.48601e-07
17.1476
-1.88959e-07
17.1505
-2.18493e-07
17.1538
-2.41607e-07
17.1575
-2.5692e-07
17.1614
-2.63621e-07
17.1656
-2.62979e-07
17.1699
-2.53903e-07
17.1742
-2.38183e-07
17.1785
-2.15154e-07
17.1828
-1.85371e-07
17.187
-1.50443e-07
17.1911
-1.11883e-07
17.1951
-6.89106e-08
17.199
-2.38938e-08
17.2028
2.56023e-08
17.2065
1.04405e-07
17.2102
7.72161e-08
17.2139
2.93544e-08
17.2176
2.35091e-07
17.2214
2.70678e-07
17.2252
2.90287e-07
17.2292
3.01874e-07
17.2331
3.17347e-07
17.2372
3.34615e-07
17.2413
3.47407e-07
17.2454
3.55238e-07
17.2495
3.59236e-07
17.2536
3.552e-07
17.2575
3.46454e-07
17.2612
3.32958e-07
17.2646
3.12936e-07
17.2678
2.90675e-07
17.2705
2.62588e-07
17.2728
2.30632e-07
17.2746
1.96328e-07
17.2758
1.61008e-07
17.2764
1.21026e-07
17.2764
8.45089e-08
17.2758
4.67821e-08
17.2744
-1.32131e-08
17.2723
-3.67872e-08
17.2696
-6.27488e-08
17.2663
-9.07507e-08
17.2623
-1.14645e-07
17.2578
-1.33775e-07
17.2528
-1.47822e-07
17.2472
-1.56339e-07
17.2412
-1.59069e-07
17.2347
-1.5597e-07
17.228
-1.47379e-07
17.2208
-1.34621e-07
17.2134
-1.12645e-07
17.2058
-8.64338e-08
17.1979
-5.88052e-08
17.1898
-2.8082e-08
17.1816
5.70526e-09
17.1732
3.64544e-08
17.1648
5.45697e-12
17.1563
5.02982e-08
17.1478
3.10877e-07
17.1392
2.08691e-07
17.1308
1.95545e-07
17.1224
2.30349e-07
17.1142
2.57945e-07
17.1063
2.73449e-07
17.0986
2.80503e-07
17.0913
2.8025e-07
17.0845
2.72573e-07
17.0782
2.57417e-07
17.0725
2.35025e-07
17.0675
2.05844e-07
17.0632
1.70589e-07
17.0597
1.30191e-07
17.057
8.57335e-08
17.0552
3.87799e-08
17.0542
-1.95951e-09
17.054
-3.50747e-08
17.0546
-1.01154e-07
17.0559
-1.42133e-07
17.0579
-1.82386e-07
17.0605
-2.18902e-07
17.0637
-2.49172e-07
17.0674
-2.71239e-07
17.0714
-2.88049e-07
17.0756
-2.95473e-07
17.08
-2.95283e-07
17.0844
-2.89311e-07
17.0887
-2.75869e-07
17.0929
-2.56573e-07
17.0969
-2.33089e-07
17.1006
-2.05691e-07
17.1039
-1.75449e-07
17.1069
-1.43382e-07
17.1096
-1.11437e-07
17.1118
-7.92475e-08
17.1137
-4.78799e-08
17.1153
-1.89357e-08
17.1165
7.91078e-09
17.1175
3.26031e-08
17.1182
5.39544e-08
17.1186
7.23066e-08
17.1189
8.78413e-08
17.119
1.0069e-07
17.119
1.09025e-07
17.1189
1.14438e-07
17.1187
1.23646e-07
17.1185
1.27314e-07
17.1182
1.29698e-07
17.1179
1.30921e-07
17.1176
1.31395e-07
17.1173
1.29772e-07
17.117
1.30454e-07
17.1168
1.2414e-07
17.1165
1.33463e-07
17.1163
1.07271e-07
17.1161
1.45662e-07
17.116
9.16002e-08
17.1158
1.74998e-07
17.1157
1.98598e-07
17.1156
7.91414e-07
17.1155
3.81332e-06
17.1154
1.73236e-05
17.1153
8.87178e-05
17.1151
0.000439604
17.114
0.00219016
17.1088
0.0108496
17.0837
0.0526124
16.9666
0.245852
16.4529
1.13981
3.7222
14.7678
17.246
0.000367745
17.2461
0.000313522
17.2462
0.000274278
17.2463
0.000281966
17.2464
0.000284045
17.2465
0.000283381
17.2466
0.000283267
17.2466
0.000283276
17.2468
0.00028302
17.2469
0.00028223
17.247
0.000280644
17.247
0.000277723
17.2471
0.000272872
17.2472
0.000265457
17.2473
0.000254929
17.2474
0.000240949
17.2474
0.000223499
17.2475
0.000202944
17.2475
0.000180015
17.2475
0.000155718
17.2475
0.000131196
17.2475
0.000107573
17.2475
8.57621e-05
17.2474
6.65018e-05
17.2473
5.01341e-05
17.2472
3.67537e-05
17.2471
2.62145e-05
17.247
1.82005e-05
17.2468
1.2313e-05
17.2465
8.12804e-06
17.2462
5.2467e-06
17.2459
3.3236e-06
17.2455
2.07866e-06
17.2449
1.29654e-06
17.2443
8.1982e-07
17.2435
5.38204e-07
17.2426
3.77575e-07
17.2415
2.89944e-07
17.2402
2.45318e-07
17.2387
2.25526e-07
17.237
2.19792e-07
17.235
2.22031e-07
17.2327
2.28685e-07
17.2301
2.37824e-07
17.2272
2.48262e-07
17.2239
2.59241e-07
17.2203
2.70323e-07
17.2164
2.80991e-07
17.2122
2.90815e-07
17.2077
2.99345e-07
17.2028
3.05953e-07
17.1978
3.10369e-07
17.1926
3.15716e-07
17.1872
3.15813e-07
17.1818
3.08428e-07
17.1764
2.99138e-07
17.1711