/*--------------------------------*- C++ -*----------------------------------*\
| =========                 |                                                 |
| \\      /  F ield         | OpenFOAM: The Open Source CFD Toolbox           |
|  \\    /   O peration     | Version:  3.0.x                                 |
|   \\  /    A nd           | Web:      www.OpenFOAM.org                      |
|    \\/     M anipulation  |                                                 |
\*---------------------------------------------------------------------------*/
FoamFile
{
    version     2.0;
    format      ascii;
    class       volVectorField;
    location    "0.12";
    object      U;
}
// * * * * * * * * * * * * * * * * * * * * * * * * * * * * * * * * * * * * * //

dimensions      [0 1 -1 0 0 0 0];

internalField   nonuniform List<vector> 
27600
(
(42.685 0.000288404 0)
(42.6701 0.000241629 0)
(42.6551 0.000238588 0)
(42.6401 0.000240812 0)
(42.625 0.000243068 0)
(42.61 0.000245104 0)
(42.595 0.000246799 0)
(42.58 0.000248208 0)
(42.565 0.000249218 0)
(42.55 0.000249586 0)
(42.5351 0.000249101 0)
(42.5204 0.000247294 0)
(42.5058 0.000243648 0)
(42.4916 0.000237601 0)
(42.4778 0.000228664 0)
(42.4647 0.000216532 0)
(42.4524 0.00020119 0)
(42.4412 0.000182964 0)
(42.431 0.000162514 0)
(42.4222 0.000140751 0)
(42.4146 0.000118713 0)
(42.4083 9.74229e-05 0)
(42.4031 7.77368e-05 0)
(42.3991 6.03079e-05 0)
(42.3959 4.54818e-05 0)
(42.3934 3.33498e-05 0)
(42.3915 2.37854e-05 0)
(42.39 1.65096e-05 0)
(42.3888 1.1163e-05 0)
(42.3877 7.36237e-06 0)
(42.3867 4.74611e-06 0)
(42.3857 3.00041e-06 0)
(42.3845 1.87046e-06 0)
(42.3832 1.16048e-06 0)
(42.3816 7.27313e-07 0)
(42.3797 4.70795e-07 0)
(42.3775 3.2364e-07 0)
(42.3748 2.42347e-07 0)
(42.3717 1.99696e-07 0)
(42.368 1.79197e-07 0)
(42.3637 1.71109e-07 0)
(42.3588 1.69963e-07 0)
(42.3531 1.72583e-07 0)
(42.3466 1.77303e-07 0)
(42.3393 1.8316e-07 0)
(42.3312 1.89498e-07 0)
(42.3222 1.96067e-07 0)
(42.3123 2.02467e-07 0)
(42.3015 2.08484e-07 0)
(42.2899 2.13836e-07 0)
(42.2775 2.18099e-07 0)
(42.2645 2.20654e-07 0)
(42.2509 2.25038e-07 0)
(42.2368 2.25458e-07 0)
(42.2226 2.2113e-07 0)
(42.2083 2.16241e-07 0)
(42.1942 2.10164e-07 0)
(42.1805 2.0206e-07 0)
(42.1674 1.91286e-07 0)
(42.1551 1.78253e-07 0)
(42.144 1.63385e-07 0)
(42.1342 1.46657e-07 0)
(42.1258 1.2773e-07 0)
(42.1191 1.05666e-07 0)
(42.1141 7.96215e-08 0)
(42.111 4.89194e-08 0)
(42.1098 2.65406e-08 0)
(42.1102 -1.03513e-08 0)
(42.1125 -3.53798e-08 0)
(42.1166 -5.45553e-08 0)
(42.1222 -7.31021e-08 0)
(42.1293 -8.64953e-08 0)
(42.1377 -9.77099e-08 0)
(42.1471 -1.05343e-07 0)
(42.1573 -1.09147e-07 0)
(42.1681 -1.09916e-07 0)
(42.1793 -1.06827e-07 0)
(42.1908 -1.00776e-07 0)
(42.2022 -9.15399e-08 0)
(42.2136 -7.90763e-08 0)
(42.2247 -6.41056e-08 0)
(42.2355 -4.73704e-08 0)
(42.246 -2.82623e-08 0)
(42.2561 -8.26815e-09 0)
(42.2659 1.19448e-08 0)
(42.2753 5.39591e-08 0)
(42.2845 5.5265e-08 0)
(42.2938 -2.19276e-09 0)
(42.303 1.14747e-07 0)
(42.312 1.21614e-07 0)
(42.321 1.31587e-07 0)
(42.3302 1.35152e-07 0)
(42.3395 1.40355e-07 0)
(42.3489 1.46457e-07 0)
(42.3584 1.50509e-07 0)
(42.3679 1.5208e-07 0)
(42.3775 1.51793e-07 0)
(42.3869 1.4752e-07 0)
(42.396 1.41229e-07 0)
(42.4048 1.32769e-07 0)
(42.413 1.21229e-07 0)
(42.4205 1.09092e-07 0)
(42.4273 9.41094e-08 0)
(42.433 7.77069e-08 0)
(42.4376 6.06812e-08 0)
(42.441 4.34229e-08 0)
(42.4431 2.45696e-08 0)
(42.4437 7.05027e-09 0)
(42.4428 -1.09361e-08 0)
(42.4404 -4.37011e-08 0)
(42.4364 -5.86586e-08 0)
(42.4308 -7.2845e-08 0)
(42.4236 -8.5235e-08 0)
(42.4149 -9.39588e-08 0)
(42.4049 -9.96582e-08 0)
(42.3935 -1.02785e-07 0)
(42.3809 -1.03366e-07 0)
(42.3671 -1.01499e-07 0)
(42.3523 -9.71929e-08 0)
(42.3364 -9.04503e-08 0)
(42.3198 -8.24134e-08 0)
(42.3023 -6.98142e-08 0)
(42.2841 -5.58828e-08 0)
(42.2652 -4.13445e-08 0)
(42.2458 -2.51987e-08 0)
(42.2258 -5.34464e-09 0)
(42.2055 1.54135e-08 0)
(42.1849 -3.28632e-09 0)
(42.1643 1.01531e-08 0)
(42.143 1.44154e-07 0)
(42.1212 9.08896e-08 0)
(42.0997 9.08688e-08 0)
(42.0785 1.06536e-07 0)
(42.0575 1.20233e-07 0)
(42.037 1.29164e-07 0)
(42.0171 1.34497e-07 0)
(41.998 1.36781e-07 0)
(41.9799 1.36022e-07 0)
(41.9631 1.32285e-07 0)
(41.9477 1.25578e-07 0)
(41.9339 1.15834e-07 0)
(41.9219 1.02832e-07 0)
(41.9119 8.61531e-08 0)
(41.904 6.51694e-08 0)
(41.8982 3.87386e-08 0)
(41.8946 9.60127e-09 0)
(41.8932 -1.26352e-08 0)
(41.8938 -3.73458e-08 0)
(41.8963 -5.51892e-08 0)
(41.9008 -7.34737e-08 0)
(41.907 -8.96691e-08 0)
(41.9148 -1.04045e-07 0)
(41.924 -1.14883e-07 0)
(41.9342 -1.24179e-07 0)
(41.9451 -1.29205e-07 0)
(41.9566 -1.31242e-07 0)
(41.9682 -1.31039e-07 0)
(41.9798 -1.27256e-07 0)
(41.9911 -1.21037e-07 0)
(42.002 -1.13003e-07 0)
(42.0121 -1.03159e-07 0)
(42.0215 -9.1961e-08 0)
(42.03 -8.00925e-08 0)
(42.0375 -6.80734e-08 0)
(42.0441 -5.4582e-08 0)
(42.0496 -3.95074e-08 0)
(42.0543 -2.30584e-08 0)
(42.058 -4.37343e-09 0)
(42.0609 7.521e-09 0)
(42.0631 1.69668e-08 0)
(42.0646 2.54392e-08 0)
(42.0656 3.30184e-08 0)
(42.0661 3.96127e-08 0)
(42.0662 4.41306e-08 0)
(42.0661 4.79305e-08 0)
(42.0657 5.22835e-08 0)
(42.0652 5.50499e-08 0)
(42.0646 5.71509e-08 0)
(42.0638 5.86412e-08 0)
(42.0631 5.95862e-08 0)
(42.0623 6.00323e-08 0)
(42.0616 6.02741e-08 0)
(42.0609 6.02262e-08 0)
(42.0602 5.99749e-08 0)
(42.0596 5.93419e-08 0)
(42.0591 5.93501e-08 0)
(42.0586 5.82857e-08 0)
(42.0582 5.8716e-08 0)
(42.0579 5.8439e-08 0)
(42.0576 6.43825e-08 0)
(42.0574 9.6405e-08 0)
(42.0572 2.61394e-07 0)
(42.0569 1.12882e-06 0)
(42.0565 5.43331e-06 0)
(42.055 2.68932e-05 0)
(42.0476 0.000132941 0)
(42.0133 0.0006427 0)
(41.8503 0.00302324 0)
(41.3876 0.0151368 0)
(36.8646 0.0547738 0)
(42.7002 0.000463374 0)
(42.7005 0.000330108 0)
(42.7008 0.000313691 0)
(42.701 0.000310654 0)
(42.7011 0.000308331 0)
(42.7013 0.000306506 0)
(42.7015 0.000304875 0)
(42.7016 0.000303413 0)
(42.7018 0.000301854 0)
(42.702 0.000299798 0)
(42.7021 0.000297008 0)
(42.7023 0.00029286 0)
(42.7024 0.000286736 0)
(42.7025 0.00027798 0)
(42.7027 0.000266034 0)
(42.7028 0.000250573 0)
(42.7029 0.000231611 0)
(42.703 0.000209562 0)
(42.7031 0.000185213 0)
(42.7032 0.000159624 0)
(42.7033 0.00013398 0)
(42.7033 0.00010943 0)
(42.7033 8.69033e-05 0)
(42.7032 6.71109e-05 0)
(42.7031 5.03846e-05 0)
(42.7029 3.67833e-05 0)
(42.7026 2.61236e-05 0)
(42.7023 1.80598e-05 0)
(42.7018 1.21662e-05 0)
(42.7013 7.99848e-06 0)
(42.7006 5.14404e-06 0)
(42.6997 3.2489e-06 0)
(42.6987 2.02855e-06 0)
(42.6974 1.266e-06 0)
(42.6959 8.03689e-07 0)
(42.694 5.32177e-07 0)
(42.6918 3.7834e-07 0)
(42.6891 2.95293e-07 0)
(42.686 2.53838e-07 0)
(42.6823 2.3641e-07 0)
(42.678 2.32611e-07 0)
(42.6731 2.36624e-07 0)
(42.6674 2.44958e-07 0)
(42.6609 2.55897e-07 0)
(42.6536 2.68277e-07 0)
(42.6455 2.81285e-07 0)
(42.6365 2.94606e-07 0)
(42.6265 3.07542e-07 0)
(42.6158 3.19788e-07 0)
(42.6042 3.30809e-07 0)
(42.5918 3.39849e-07 0)
(42.5787 3.46057e-07 0)
(42.5651 3.54914e-07 0)
(42.5511 3.5655e-07 0)
(42.5369 3.50238e-07 0)
(42.5226 3.42841e-07 0)
(42.5085 3.32853e-07 0)
(42.4947 3.18952e-07 0)
(42.4816 3.00077e-07 0)
(42.4694 2.76925e-07 0)
(42.4583 2.50017e-07 0)
(42.4484 2.19403e-07 0)
(42.44 1.85033e-07 0)
(42.4333 1.4619e-07 0)
(42.4283 1.02618e-07 0)
(42.4252 5.41375e-08 0)
(42.424 2.6211e-08 0)
(42.4244 -2.62061e-08 0)
(42.4267 -6.86543e-08 0)
(42.4307 -1.02288e-07 0)
(42.4364 -1.33493e-07 0)
(42.4435 -1.56456e-07 0)
(42.4518 -1.75161e-07 0)
(42.4612 -1.8822e-07 0)
(42.4714 -1.95105e-07 0)
(42.4822 -1.96529e-07 0)
(42.4934 -1.91441e-07 0)
(42.5048 -1.8139e-07 0)
(42.5162 -1.65503e-07 0)
(42.5275 -1.44249e-07 0)
(42.5386 -1.18824e-07 0)
(42.5494 -9.05497e-08 0)
(42.5599 -5.82108e-08 0)
(42.57 -2.40423e-08 0)
(42.5798 1.27315e-08 0)
(42.5892 7.06541e-08 0)
(42.5984 5.72453e-08 0)
(42.6077 -4.34631e-09 0)
(42.6169 1.96034e-07 0)
(42.6259 2.00648e-07 0)
(42.6349 2.18861e-07 0)
(42.644 2.28881e-07 0)
(42.6533 2.41909e-07 0)
(42.6627 2.56176e-07 0)
(42.6722 2.66953e-07 0)
(42.6818 2.73584e-07 0)
(42.6913 2.77742e-07 0)
(42.7007 2.74981e-07 0)
(42.7098 2.6903e-07 0)
(42.7186 2.5941e-07 0)
(42.7268 2.4445e-07 0)
(42.7344 2.2843e-07 0)
(42.7411 2.07774e-07 0)
(42.7468 1.84458e-07 0)
(42.7514 1.5923e-07 0)
(42.7548 1.33887e-07 0)
(42.7568 1.04582e-07 0)
(42.7574 7.79641e-08 0)
(42.7566 5.13749e-08 0)
(42.7542 6.24441e-09 0)
(42.7502 -1.51436e-08 0)
(42.7445 -3.73247e-08 0)
(42.7373 -6.02411e-08 0)
(42.7286 -7.85968e-08 0)
(42.7186 -9.27874e-08 0)
(42.7072 -1.02943e-07 0)
(42.6946 -1.08917e-07 0)
(42.6808 -1.10691e-07 0)
(42.6659 -1.08256e-07 0)
(42.6501 -1.0165e-07 0)
(42.6333 -9.25009e-08 0)
(42.6158 -7.57235e-08 0)
(42.5976 -5.67526e-08 0)
(42.5788 -3.64225e-08 0)
(42.5593 -1.36849e-08 0)
(42.5394 1.20449e-08 0)
(42.519 4.04411e-08 0)
(42.4984 5.50344e-09 0)
(42.4778 3.27842e-08 0)
(42.4565 2.59174e-07 0)
(42.4346 1.564e-07 0)
(42.4132 1.58252e-07 0)
(42.3919 1.85036e-07 0)
(42.371 2.06791e-07 0)
(42.3505 2.20076e-07 0)
(42.3305 2.27222e-07 0)
(42.3115 2.29112e-07 0)
(42.2934 2.25653e-07 0)
(42.2765 2.16819e-07 0)
(42.2611 2.02678e-07 0)
(42.2473 1.83248e-07 0)
(42.2353 1.58521e-07 0)
(42.2253 1.28414e-07 0)
(42.2173 9.27814e-08 0)
(42.2116 5.11132e-08 0)
(42.208 1.06682e-08 0)
(42.2065 -1.81852e-08 0)
(42.2071 -6.25416e-08 0)
(42.2096 -9.3089e-08 0)
(42.2141 -1.24461e-07 0)
(42.2203 -1.52478e-07 0)
(42.2281 -1.76783e-07 0)
(42.2372 -1.94572e-07 0)
(42.2474 -2.09768e-07 0)
(42.2583 -2.17227e-07 0)
(42.2698 -2.19258e-07 0)
(42.2814 -2.17464e-07 0)
(42.293 -2.09421e-07 0)
(42.3043 -1.97072e-07 0)
(42.3151 -1.81585e-07 0)
(42.3252 -1.62982e-07 0)
(42.3346 -1.41978e-07 0)
(42.3431 -1.19658e-07 0)
(42.3506 -9.71094e-08 0)
(42.3571 -7.28163e-08 0)
(42.3627 -4.73769e-08 0)
(42.3673 -2.17377e-08 0)
(42.371 4.71072e-09 0)
(42.3739 2.35349e-08 0)
(42.3761 3.90654e-08 0)
(42.3776 5.26019e-08 0)
(42.3786 6.43775e-08 0)
(42.3791 7.43718e-08 0)
(42.3792 8.08866e-08 0)
(42.3791 8.61626e-08 0)
(42.3787 9.25631e-08 0)
(42.3782 9.58733e-08 0)
(42.3775 9.81726e-08 0)
(42.3768 9.95597e-08 0)
(42.376 1.00082e-07 0)
(42.3752 9.97123e-08 0)
(42.3745 9.9037e-08 0)
(42.3738 9.78643e-08 0)
(42.3731 9.68024e-08 0)
(42.3725 9.45484e-08 0)
(42.372 9.4562e-08 0)
(42.3715 9.10444e-08 0)
(42.3711 9.27292e-08 0)
(42.3707 9.26635e-08 0)
(42.3704 1.14881e-07 0)
(42.3702 2.2723e-07 0)
(42.37 7.5666e-07 0)
(42.3697 3.50173e-06 0)
(42.3693 1.70558e-05 0)
(42.3677 8.46285e-05 0)
(42.3604 0.000418558 0)
(42.3259 0.00202366 0)
(42.1622 0.00949375 0)
(41.6936 0.0466972 0)
(37.2698 0.160068 0)
(42.7002 0.000369466 0)
(42.7005 0.000238807 0)
(42.7008 0.000232057 0)
(42.701 0.000235448 0)
(42.7012 0.000236803 0)
(42.7015 0.000237797 0)
(42.7017 0.000238656 0)
(42.7019 0.000239463 0)
(42.7021 0.000240036 0)
(42.7023 0.000240061 0)
(42.7026 0.000239361 0)
(42.7028 0.000237406 0)
(42.703 0.000233671 0)
(42.7032 0.000227595 0)
(42.7034 0.000218697 0)
(42.7036 0.000206695 0)
(42.7037 0.000191599 0)
(42.7039 0.000173759 0)
(42.7039 0.000153849 0)
(42.704 0.000132779 0)
(42.704 0.000111563 0)
(42.704 9.11899e-05 0)
(42.7039 7.24529e-05 0)
(42.7038 5.59709e-05 0)
(42.7037 4.20277e-05 0)
(42.7034 3.06836e-05 0)
(42.7032 2.17898e-05 0)
(42.7028 1.50609e-05 0)
(42.7023 1.01424e-05 0)
(42.7018 6.66411e-06 0)
(42.7011 4.28185e-06 0)
(42.7002 2.70031e-06 0)
(42.6992 1.68214e-06 0)
(42.6979 1.04626e-06 0)
(42.6964 6.61134e-07 0)
(42.6945 4.35311e-07 0)
(42.6923 3.07661e-07 0)
(42.6896 2.38909e-07 0)
(42.6865 2.04658e-07 0)
(42.6828 1.9025e-07 0)
(42.6785 1.87013e-07 0)
(42.6736 1.90122e-07 0)
(42.6679 1.96679e-07 0)
(42.6614 2.05211e-07 0)
(42.6541 2.14743e-07 0)
(42.646 2.24576e-07 0)
(42.6369 2.34422e-07 0)
(42.627 2.43708e-07 0)
(42.6162 2.52156e-07 0)
(42.6046 2.59299e-07 0)
(42.5923 2.64548e-07 0)
(42.5792 2.67314e-07 0)
(42.5656 2.71712e-07 0)
(42.5516 2.69821e-07 0)
(42.5373 2.61454e-07 0)
(42.523 2.52073e-07 0)
(42.5089 2.40331e-07 0)
(42.4952 2.25139e-07 0)
(42.4821 2.05738e-07 0)
(42.4699 1.82709e-07 0)
(42.4587 1.56411e-07 0)
(42.4489 1.27187e-07 0)
(42.4405 9.57989e-08 0)
(42.4338 6.28406e-08 0)
(42.4288 2.93486e-08 0)
(42.4257 -3.48262e-09 0)
(42.4244 -1.35641e-08 0)
(42.4249 -4.83604e-08 0)
(42.4271 -8.27656e-08 0)
(42.4312 -1.08596e-07 0)
(42.4368 -1.32296e-07 0)
(42.4439 -1.4859e-07 0)
(42.4523 -1.61484e-07 0)
(42.4616 -1.6928e-07 0)
(42.4718 -1.71854e-07 0)
(42.4826 -1.70117e-07 0)
(42.4938 -1.63139e-07 0)
(42.5053 -1.52218e-07 0)
(42.5167 -1.37033e-07 0)
(42.528 -1.17822e-07 0)
(42.5391 -9.56533e-08 0)
(42.5499 -7.15757e-08 0)
(42.5604 -4.48211e-08 0)
(42.5705 -1.72895e-08 0)
(42.5803 1.21698e-08 0)
(42.5897 5.75995e-08 0)
(42.5989 3.3653e-08 0)
(42.6082 -1.39367e-09 0)
(42.6174 1.58466e-07 0)
(42.6264 1.54036e-07 0)
(42.6354 1.66721e-07 0)
(42.6445 1.73299e-07 0)
(42.6538 1.82254e-07 0)
(42.6632 1.92206e-07 0)
(42.6727 1.99476e-07 0)
(42.6823 2.03838e-07 0)
(42.6918 2.06281e-07 0)
(42.7012 2.03514e-07 0)
(42.7103 1.98352e-07 0)
(42.7191 1.90482e-07 0)
(42.7273 1.78515e-07 0)
(42.7348 1.65754e-07 0)
(42.7415 1.49303e-07 0)
(42.7473 1.30644e-07 0)
(42.7519 1.10433e-07 0)
(42.7553 9.00709e-08 0)
(42.7573 6.62761e-08 0)
(42.7579 4.50256e-08 0)
(42.7571 2.44929e-08 0)
(42.7547 -6.15776e-09 0)
(42.7506 -2.05992e-08 0)
(42.745 -3.56043e-08 0)
(42.7378 -5.35887e-08 0)
(42.7291 -6.86115e-08 0)
(42.7191 -8.06706e-08 0)
(42.7077 -8.96428e-08 0)
(42.695 -9.51806e-08 0)
(42.6812 -9.72252e-08 0)
(42.6664 -9.57378e-08 0)
(42.6505 -9.0848e-08 0)
(42.6338 -8.37555e-08 0)
(42.6163 -7.05459e-08 0)
(42.5981 -5.55151e-08 0)
(42.5792 -3.93801e-08 0)
(42.5598 -2.13979e-08 0)
(42.5398 -3.36018e-09 0)
(42.5195 1.57234e-08 0)
(42.4989 -1.22715e-08 0)
(42.4783 1.39248e-08 0)
(42.4569 1.96524e-07 0)
(42.4351 1.02266e-07 0)
(42.4136 1.04276e-07 0)
(42.3924 1.25314e-07 0)
(42.3715 1.40662e-07 0)
(42.3509 1.48554e-07 0)
(42.331 1.51237e-07 0)
(42.3119 1.49464e-07 0)
(42.2938 1.4315e-07 0)
(42.277 1.32293e-07 0)
(42.2616 1.17057e-07 0)
(42.2478 9.77617e-08 0)
(42.2358 7.49025e-08 0)
(42.2257 4.92176e-08 0)
(42.2178 2.16591e-08 0)
(42.212 -6.53771e-09 0)
(42.2085 -2.58348e-08 0)
(42.207 -4.07738e-08 0)
(42.2076 -7.92327e-08 0)
(42.2101 -1.03483e-07 0)
(42.2145 -1.28026e-07 0)
(42.2208 -1.49315e-07 0)
(42.2286 -1.66847e-07 0)
(42.2377 -1.78509e-07 0)
(42.2479 -1.87528e-07 0)
(42.2588 -1.89927e-07 0)
(42.2702 -1.87703e-07 0)
(42.2819 -1.82209e-07 0)
(42.2935 -1.7171e-07 0)
(42.3048 -1.57835e-07 0)
(42.3156 -1.41642e-07 0)
(42.3257 -1.23186e-07 0)
(42.3351 -1.03081e-07 0)
(42.3435 -8.21233e-08 0)
(42.351 -6.16168e-08 0)
(42.3576 -4.10753e-08 0)
(42.3631 -2.17603e-08 0)
(42.3678 -5.0794e-09 0)
(42.3715 7.87486e-09 0)
(42.3744 2.21206e-08 0)
(42.3766 3.48103e-08 0)
(42.3781 4.58115e-08 0)
(42.379 5.5061e-08 0)
(42.3796 6.25768e-08 0)
(42.3797 6.68765e-08 0)
(42.3795 7.00063e-08 0)
(42.3792 7.45825e-08 0)
(42.3786 7.62933e-08 0)
(42.378 7.71703e-08 0)
(42.3772 7.72653e-08 0)
(42.3765 7.6675e-08 0)
(42.3757 7.5503e-08 0)
(42.3749 7.42808e-08 0)
(42.3742 7.24742e-08 0)
(42.3736 7.13648e-08 0)
(42.373 6.81096e-08 0)
(42.3724 6.9039e-08 0)
(42.372 6.40625e-08 0)
(42.3716 6.82069e-08 0)
(42.3712 6.90536e-08 0)
(42.3709 1.09155e-07 0)
(42.3707 3.13892e-07 0)
(42.3704 1.25563e-06 0)
(42.3702 6.15703e-06 0)
(42.3698 3.0302e-05 0)
(42.3682 0.000150675 0)
(42.361 0.000745673 0)
(42.327 0.00360866 0)
(42.1659 0.0169273 0)
(41.7077 0.0830635 0)
(37.3797 0.281154 0)
(42.7002 0.00037557 0)
(42.7005 0.000276578 0)
(42.7008 0.000271972 0)
(42.701 0.000276267 0)
(42.7012 0.000277174 0)
(42.7014 0.000277364 0)
(42.7017 0.000277301 0)
(42.7019 0.000277067 0)
(42.7021 0.000276506 0)
(42.7023 0.000275324 0)
(42.7025 0.000273331 0)
(42.7028 0.000269983 0)
(42.703 0.000264725 0)
(42.7032 0.000256958 0)
(42.7034 0.000246174 0)
(42.7036 0.000232073 0)
(42.7037 0.000214675 0)
(42.7038 0.000194366 0)
(42.7039 0.000171881 0)
(42.704 0.00014821 0)
(42.704 0.000124459 0)
(42.704 0.000101699 0)
(42.7039 8.07984e-05 0)
(42.7038 6.24249e-05 0)
(42.7037 4.68869e-05 0)
(42.7034 3.42453e-05 0)
(42.7032 2.43324e-05 0)
(42.7028 1.68296e-05 0)
(42.7023 1.13428e-05 0)
(42.7018 7.4605e-06 0)
(42.7011 4.79994e-06 0)
(42.7002 3.0325e-06 0)
(42.6992 1.89376e-06 0)
(42.6979 1.18183e-06 0)
(42.6964 7.50022e-07 0)
(42.6945 4.96264e-07 0)
(42.6923 3.52296e-07 0)
(42.6896 2.74226e-07 0)
(42.6865 2.3477e-07 0)
(42.6828 2.17514e-07 0)
(42.6785 2.12763e-07 0)
(42.6736 2.15116e-07 0)
(42.6679 2.21324e-07 0)
(42.6614 2.29765e-07 0)
(42.6541 2.39374e-07 0)
(42.646 2.49424e-07 0)
(42.6369 2.59622e-07 0)
(42.627 2.6941e-07 0)
(42.6162 2.78489e-07 0)
(42.6046 2.86431e-07 0)
(42.5923 2.92625e-07 0)
(42.5792 2.96519e-07 0)
(42.5656 3.02279e-07 0)
(42.5516 3.02279e-07 0)
(42.5373 2.95718e-07 0)
(42.523 2.88033e-07 0)
(42.5089 2.78289e-07 0)
(42.4952 2.65316e-07 0)
(42.4821 2.48255e-07 0)
(42.4699 2.27563e-07 0)
(42.4587 2.03627e-07 0)
(42.4489 1.7681e-07 0)
(42.4405 1.47873e-07 0)
(42.4338 1.17219e-07 0)
(42.4288 8.54675e-08 0)
(42.4257 5.34901e-08 0)
(42.4244 3.86977e-08 0)
(42.4249 -6.4258e-09 0)
(42.4271 -4.27838e-08 0)
(42.4312 -6.85753e-08 0)
(42.4368 -9.35401e-08 0)
(42.4439 -1.11105e-07 0)
(42.4523 -1.2571e-07 0)
(42.4616 -1.35115e-07 0)
(42.4718 -1.39163e-07 0)
(42.4826 -1.39226e-07 0)
(42.4938 -1.34194e-07 0)
(42.5053 -1.25392e-07 0)
(42.5167 -1.12441e-07 0)
(42.528 -9.5384e-08 0)
(42.5391 -7.53117e-08 0)
(42.5499 -5.32312e-08 0)
(42.5604 -2.85749e-08 0)
(42.5705 -3.74697e-09 0)
(42.5803 2.08241e-08 0)
(42.5897 7.63411e-08 0)
(42.5989 6.15501e-08 0)
(42.6082 1.29502e-08 0)
(42.6174 1.6588e-07 0)
(42.6264 1.69141e-07 0)
(42.6354 1.82991e-07 0)
(42.6445 1.89406e-07 0)
(42.6538 1.97943e-07 0)
(42.6632 2.07704e-07 0)
(42.6727 2.14948e-07 0)
(42.6823 2.19315e-07 0)
(42.6918 2.21474e-07 0)
(42.7012 2.18791e-07 0)
(42.7103 2.13252e-07 0)
(42.7191 2.05128e-07 0)
(42.7273 1.92693e-07 0)
(42.7348 1.79344e-07 0)
(42.7415 1.61913e-07 0)
(42.7473 1.4217e-07 0)
(42.7519 1.20827e-07 0)
(42.7553 9.94821e-08 0)
(42.7573 7.43972e-08 0)
(42.7579 5.21401e-08 0)
(42.7571 2.90984e-08 0)
(42.7547 -7.58209e-09 0)
(42.7506 -2.34275e-08 0)
(42.745 -3.77776e-08 0)
(42.7378 -5.43038e-08 0)
(42.7291 -6.82206e-08 0)
(42.7191 -7.92934e-08 0)
(42.7077 -8.74252e-08 0)
(42.695 -9.21709e-08 0)
(42.6812 -9.34445e-08 0)
(42.6664 -9.11908e-08 0)
(42.6505 -8.5484e-08 0)
(42.6338 -7.76817e-08 0)
(42.6163 -6.37286e-08 0)
(42.5981 -4.7781e-08 0)
(42.5792 -3.0774e-08 0)
(42.5598 -1.16956e-08 0)
(42.5398 9.89081e-09 0)
(42.5195 3.14053e-08 0)
(42.4989 5.83559e-09 0)
(42.4783 3.15194e-08 0)
(42.4569 2.09991e-07 0)
(42.4351 1.26176e-07 0)
(42.4136 1.26916e-07 0)
(42.3924 1.48457e-07 0)
(42.3715 1.65397e-07 0)
(42.3509 1.75265e-07 0)
(42.331 1.80082e-07 0)
(42.3119 1.80549e-07 0)
(42.2938 1.76589e-07 0)
(42.277 1.68159e-07 0)
(42.2616 1.55428e-07 0)
(42.2478 1.38666e-07 0)
(42.2358 1.18318e-07 0)
(42.2257 9.49488e-08 0)
(42.2178 6.92132e-08 0)
(42.212 4.18926e-08 0)
(42.2085 1.94181e-08 0)
(42.207 -4.42409e-09 0)
(42.2076 -4.34425e-08 0)
(42.2101 -6.84195e-08 0)
(42.2145 -9.36602e-08 0)
(42.2208 -1.1572e-07 0)
(42.2286 -1.344e-07 0)
(42.2377 -1.47937e-07 0)
(42.2479 -1.58516e-07 0)
(42.2588 -1.63113e-07 0)
(42.2702 -1.63564e-07 0)
(42.2819 -1.60568e-07 0)
(42.2935 -1.5278e-07 0)
(42.3048 -1.41872e-07 0)
(42.3156 -1.2859e-07 0)
(42.3257 -1.12916e-07 0)
(42.3351 -9.55944e-08 0)
(42.3435 -7.74628e-08 0)
(42.3511 -5.95913e-08 0)
(42.3576 -4.15191e-08 0)
(42.3631 -2.42584e-08 0)
(42.3678 -8.6826e-09 0)
(42.3715 6.34598e-09 0)
(42.3744 2.11201e-08 0)
(42.3766 3.41145e-08 0)
(42.3781 4.52382e-08 0)
(42.379 5.47464e-08 0)
(42.3796 6.26573e-08 0)
(42.3797 6.75102e-08 0)
(42.3795 7.132e-08 0)
(42.3792 7.65776e-08 0)
(42.3786 7.8967e-08 0)
(42.378 8.05794e-08 0)
(42.3772 8.1468e-08 0)
(42.3765 8.17358e-08 0)
(42.3757 8.13148e-08 0)
(42.3749 8.0897e-08 0)
(42.3742 7.96572e-08 0)
(42.3736 7.96545e-08 0)
(42.373 7.63154e-08 0)
(42.3724 7.92028e-08 0)
(42.372 7.31353e-08 0)
(42.3716 8.03835e-08 0)
(42.3712 8.26128e-08 0)
(42.3709 1.42293e-07 0)
(42.3707 4.479e-07 0)
(42.3704 1.84941e-06 0)
(42.3702 9.18786e-06 0)
(42.3698 4.53196e-05 0)
(42.3683 0.000225456 0)
(42.3611 0.00111609 0)
(42.3273 0.00540593 0)
(42.1672 0.0253464 0)
(41.7128 0.124247 0)
(37.4847 0.415913 0)
(42.7002 0.000352231 0)
(42.7005 0.000251566 0)
(42.7008 0.000235249 0)
(42.701 0.000235368 0)
(42.7012 0.000233928 0)
(42.7014 0.000232845 0)
(42.7016 0.000232258 0)
(42.7019 0.000231945 0)
(42.7021 0.00023161 0)
(42.7023 0.000230907 0)
(42.7025 0.000229621 0)
(42.7028 0.00022724 0)
(42.703 0.000223256 0)
(42.7032 0.000217129 0)
(42.7034 0.0002084 0)
(42.7035 0.000196795 0)
(42.7037 0.000182316 0)
(42.7038 0.000165285 0)
(42.7039 0.00014633 0)
(42.704 0.000126298 0)
(42.704 0.000106143 0)
(42.704 8.67911e-05 0)
(42.7039 6.89903e-05 0)
(42.7038 5.33268e-05 0)
(42.7037 4.00682e-05 0)
(42.7034 2.92735e-05 0)
(42.7032 2.08044e-05 0)
(42.7028 1.43914e-05 0)
(42.7023 9.69992e-06 0)
(42.7018 6.3793e-06 0)
(42.7011 4.10306e-06 0)
(42.7002 2.59052e-06 0)
(42.6992 1.61575e-06 0)
(42.6979 1.00618e-06 0)
(42.6964 6.36374e-07 0)
(42.6945 4.19039e-07 0)
(42.6923 2.95831e-07 0)
(42.6896 2.29226e-07 0)
(42.6865 1.95849e-07 0)
(42.6828 1.8164e-07 0)
(42.6785 1.78274e-07 0)
(42.6736 1.81068e-07 0)
(42.6679 1.87264e-07 0)
(42.6614 1.95417e-07 0)
(42.6541 2.04599e-07 0)
(42.646 2.14167e-07 0)
(42.6369 2.23833e-07 0)
(42.627 2.33087e-07 0)
(42.6162 2.41643e-07 0)
(42.6046 2.49085e-07 0)
(42.5923 2.54828e-07 0)
(42.5792 2.58405e-07 0)
(42.5656 2.63684e-07 0)
(42.5516 2.63456e-07 0)
(42.5373 2.56811e-07 0)
(42.523 2.49043e-07 0)
(42.5089 2.39351e-07 0)
(42.4952 2.26491e-07 0)
(42.4821 2.09659e-07 0)
(42.4699 1.89303e-07 0)
(42.4587 1.65806e-07 0)
(42.4489 1.39456e-07 0)
(42.4405 1.10887e-07 0)
(42.4338 8.04169e-08 0)
(42.4288 4.85974e-08 0)
(42.4257 1.62655e-08 0)
(42.4244 -2.64159e-10 0)
(42.4249 -4.13716e-08 0)
(42.4271 -7.59473e-08 0)
(42.4312 -1.01363e-07 0)
(42.4368 -1.24992e-07 0)
(42.4439 -1.42002e-07 0)
(42.4523 -1.55431e-07 0)
(42.4616 -1.64271e-07 0)
(42.4718 -1.68179e-07 0)
(42.4826 -1.67911e-07 0)
(42.4938 -1.62482e-07 0)
(42.5053 -1.53275e-07 0)
(42.5167 -1.39626e-07 0)
(42.528 -1.21915e-07 0)
(42.5391 -1.01107e-07 0)
(42.5499 -7.82584e-08 0)
(42.5604 -5.25897e-08 0)
(42.5705 -2.5586e-08 0)
(42.5803 5.94677e-09 0)
(42.5897 5.22433e-08 0)
(42.5989 3.49832e-08 0)
(42.6082 -4.07083e-09 0)
(42.6174 1.38356e-07 0)
(42.6264 1.4603e-07 0)
(42.6354 1.59221e-07 0)
(42.6445 1.66581e-07 0)
(42.6538 1.76067e-07 0)
(42.6632 1.86589e-07 0)
(42.6727 1.94473e-07 0)
(42.6823 1.99115e-07 0)
(42.6918 2.02335e-07 0)
(42.7012 2.00328e-07 0)
(42.7103 1.95611e-07 0)
(42.7191 1.88319e-07 0)
(42.7273 1.76738e-07 0)
(42.7348 1.64287e-07 0)
(42.7415 1.48182e-07 0)
(42.7473 1.2987e-07 0)
(42.7519 1.09746e-07 0)
(42.7553 8.99051e-08 0)
(42.7573 6.62889e-08 0)
(42.7579 4.55695e-08 0)
(42.7571 2.4058e-08 0)
(42.7547 -1.0785e-08 0)
(42.7506 -2.52291e-08 0)
(42.745 -3.88954e-08 0)
(42.7378 -5.49899e-08 0)
(42.7291 -6.89844e-08 0)
(42.7191 -8.03349e-08 0)
(42.7077 -8.88172e-08 0)
(42.695 -9.40251e-08 0)
(42.6812 -9.58479e-08 0)
(42.6664 -9.42496e-08 0)
(42.6505 -8.9368e-08 0)
(42.6338 -8.23261e-08 0)
(42.6163 -6.94697e-08 0)
(42.5981 -5.46398e-08 0)
(42.5792 -3.88729e-08 0)
(42.5598 -2.11618e-08 0)
(42.5398 -1.8484e-09 0)
(42.5195 1.75506e-08 0)
(42.4989 -7.90651e-09 0)
(42.4783 1.76911e-08 0)
(42.4569 1.8655e-07 0)
(42.4351 1.08797e-07 0)
(42.4136 1.07496e-07 0)
(42.3924 1.27784e-07 0)
(42.3715 1.4358e-07 0)
(42.3509 1.52461e-07 0)
(42.331 1.56417e-07 0)
(42.3119 1.56154e-07 0)
(42.2938 1.51581e-07 0)
(42.277 1.42651e-07 0)
(42.2616 1.29515e-07 0)
(42.2478 1.12422e-07 0)
(42.2358 9.17577e-08 0)
(42.2257 6.80269e-08 0)
(42.2178 4.18084e-08 0)
(42.212 1.36933e-08 0)
(42.2085 -1.15262e-08 0)
(42.207 -3.38973e-08 0)
(42.2076 -7.10817e-08 0)
(42.2101 -9.44277e-08 0)
(42.2145 -1.18341e-07 0)
(42.2208 -1.39216e-07 0)
(42.2286 -1.56857e-07 0)
(42.2377 -1.69325e-07 0)
(42.2479 -1.79294e-07 0)
(42.2588 -1.83414e-07 0)
(42.2702 -1.83202e-07 0)
(42.2819 -1.79864e-07 0)
(42.2935 -1.71913e-07 0)
(42.3048 -1.6068e-07 0)
(42.3156 -1.47009e-07 0)
(42.3257 -1.31047e-07 0)
(42.3351 -1.13356e-07 0)
(42.3435 -9.46099e-08 0)
(42.3511 -7.59867e-08 0)
(42.3576 -5.69773e-08 0)
(42.3631 -3.83711e-08 0)
(42.3678 -2.08423e-08 0)
(42.3715 -1.58364e-09 0)
(42.3744 1.32941e-08 0)
(42.3766 2.5992e-08 0)
(42.3781 3.67153e-08 0)
(42.379 4.58023e-08 0)
(42.3796 5.33255e-08 0)
(42.3797 5.80479e-08 0)
(42.3795 6.1687e-08 0)
(42.3792 6.67379e-08 0)
(42.3786 6.89168e-08 0)
(42.378 7.03666e-08 0)
(42.3772 7.11264e-08 0)
(42.3765 7.13473e-08 0)
(42.3757 7.08002e-08 0)
(42.3749 7.02838e-08 0)
(42.3742 6.86941e-08 0)
(42.3736 6.89838e-08 0)
(42.373 6.45799e-08 0)
(42.3724 6.88511e-08 0)
(42.372 6.06411e-08 0)
(42.3716 7.11204e-08 0)
(42.3712 7.43647e-08 0)
(42.3709 1.57366e-07 0)
(42.3707 5.80668e-07 0)
(42.3704 2.50804e-06 0)
(42.3702 1.26214e-05 0)
(42.3698 6.24089e-05 0)
(42.3683 0.000310662 0)
(42.3612 0.00153838 0)
(42.3277 0.00745717 0)
(42.1693 0.0349428 0)
(41.7199 0.170877 0)
(37.6022 0.565513 0)
(42.7002 0.000330756 0)
(42.7005 0.000244436 0)
(42.7008 0.000231592 0)
(42.701 0.000236736 0)
(42.7012 0.000238501 0)
(42.7014 0.000239305 0)
(42.7016 0.000239917 0)
(42.7018 0.000240342 0)
(42.7021 0.000240432 0)
(42.7023 0.000239944 0)
(42.7025 0.000238709 0)
(42.7027 0.000236253 0)
(42.703 0.000232084 0)
(42.7032 0.00022567 0)
(42.7034 0.000216557 0)
(42.7035 0.000204472 0)
(42.7037 0.000189423 0)
(42.7038 0.000171744 0)
(42.7039 0.00015208 0)
(42.704 0.000131304 0)
(42.704 0.000110399 0)
(42.704 9.03206e-05 0)
(42.7039 7.18419e-05 0)
(42.7038 5.557e-05 0)
(42.7037 4.17859e-05 0)
(42.7034 3.05536e-05 0)
(42.7032 2.17334e-05 0)
(42.7028 1.50482e-05 0)
(42.7023 1.01527e-05 0)
(42.7018 6.68408e-06 0)
(42.7011 4.30384e-06 0)
(42.7002 2.72047e-06 0)
(42.6992 1.69893e-06 0)
(42.6979 1.05944e-06 0)
(42.6964 6.71102e-07 0)
(42.6945 4.42655e-07 0)
(42.6923 3.12946e-07 0)
(42.6896 2.42575e-07 0)
(42.6865 2.06994e-07 0)
(42.6828 1.91433e-07 0)
(42.6785 1.8714e-07 0)
(42.6736 1.89241e-07 0)
(42.6679 1.94846e-07 0)
(42.6614 2.02443e-07 0)
(42.6541 2.11078e-07 0)
(42.646 2.20109e-07 0)
(42.6369 2.29238e-07 0)
(42.627 2.3799e-07 0)
(42.6162 2.46067e-07 0)
(42.6046 2.53075e-07 0)
(42.5923 2.58454e-07 0)
(42.5792 2.61815e-07 0)
(42.5656 2.66678e-07 0)
(42.5516 2.6643e-07 0)
(42.5373 2.60052e-07 0)
(42.523 2.5253e-07 0)
(42.5089 2.43213e-07 0)
(42.4952 2.30887e-07 0)
(42.4821 2.14801e-07 0)
(42.4699 1.95382e-07 0)
(42.4587 1.73014e-07 0)
(42.4489 1.47986e-07 0)
(42.4405 1.20931e-07 0)
(42.4338 9.22576e-08 0)
(42.4288 6.25668e-08 0)
(42.4257 3.30265e-08 0)
(42.4244 1.9328e-08 0)
(42.4249 -1.61384e-08 0)
(42.4271 -4.91799e-08 0)
(42.4312 -7.32397e-08 0)
(42.4368 -9.54323e-08 0)
(42.4439 -1.11551e-07 0)
(42.4523 -1.24205e-07 0)
(42.4616 -1.32583e-07 0)
(42.4718 -1.36288e-07 0)
(42.4826 -1.35925e-07 0)
(42.4938 -1.3094e-07 0)
(42.5053 -1.22286e-07 0)
(42.5167 -1.0965e-07 0)
(42.528 -9.33714e-08 0)
(42.5391 -7.4332e-08 0)
(42.5499 -5.33696e-08 0)
(42.5604 -2.98916e-08 0)
(42.5705 -5.6904e-09 0)
(42.5803 2.02579e-08 0)
(42.5897 6.65299e-08 0)
(42.5989 5.06979e-08 0)
(42.6082 1.39147e-08 0)
(42.6174 1.43479e-07 0)
(42.6264 1.53289e-07 0)
(42.6354 1.65568e-07 0)
(42.6445 1.72009e-07 0)
(42.6538 1.80356e-07 0)
(42.6632 1.89738e-07 0)
(42.6727 1.96643e-07 0)
(42.6823 2.00836e-07 0)
(42.6918 2.03099e-07 0)
(42.7012 2.00528e-07 0)
(42.7103 1.95646e-07 0)
(42.7191 1.88107e-07 0)
(42.7273 1.76858e-07 0)
(42.7348 1.64567e-07 0)
(42.7415 1.49007e-07 0)
(42.7473 1.31581e-07 0)
(42.7519 1.12843e-07 0)
(42.7553 9.32038e-08 0)
(42.7573 7.14779e-08 0)
(42.7579 5.09387e-08 0)
(42.7571 3.07937e-08 0)
(42.7547 -1.76937e-09 0)
(42.7506 -1.59233e-08 0)
(42.745 -3.02563e-08 0)
(42.7378 -4.61663e-08 0)
(42.7291 -5.93664e-08 0)
(42.7191 -6.98368e-08 0)
(42.7077 -7.74621e-08 0)
(42.695 -8.20284e-08 0)
(42.6812 -8.34514e-08 0)
(42.6664 -8.1706e-08 0)
(42.6505 -7.69363e-08 0)
(42.6338 -7.00818e-08 0)
(42.6163 -5.77617e-08 0)
(42.5981 -4.34051e-08 0)
(42.5792 -2.81966e-08 0)
(42.5598 -1.11896e-08 0)
(42.5398 7.55131e-09 0)
(42.5195 2.5717e-08 0)
(42.4989 2.61979e-09 0)
(42.4783 2.77439e-08 0)
(42.4569 1.84771e-07 0)
(42.4351 1.14417e-07 0)
(42.4136 1.11939e-07 0)
(42.3924 1.31195e-07 0)
(42.3715 1.46298e-07 0)
(42.3509 1.5483e-07 0)
(42.331 1.58705e-07 0)
(42.3119 1.58571e-07 0)
(42.2938 1.54368e-07 0)
(42.277 1.46053e-07 0)
(42.2616 1.33757e-07 0)
(42.2478 1.17733e-07 0)
(42.2358 9.83815e-08 0)
(42.2257 7.62128e-08 0)
(42.2178 5.18293e-08 0)
(42.212 2.6026e-08 0)
(42.2085 4.674e-09 0)
(42.207 -1.29293e-08 0)
(42.2076 -4.8381e-08 0)
(42.2101 -7.047e-08 0)
(42.2145 -9.29389e-08 0)
(42.2208 -1.12943e-07 0)
(42.2286 -1.29619e-07 0)
(42.2377 -1.41508e-07 0)
(42.2479 -1.51016e-07 0)
(42.2588 -1.54928e-07 0)
(42.2702 -1.54709e-07 0)
(42.2819 -1.51621e-07 0)
(42.2935 -1.44133e-07 0)
(42.3048 -1.33467e-07 0)
(42.3156 -1.20601e-07 0)
(42.3257 -1.05595e-07 0)
(42.3351 -8.89248e-08 0)
(42.3435 -7.12684e-08 0)
(42.3511 -5.38157e-08 0)
(42.3576 -3.61184e-08 0)
(42.3631 -1.89278e-08 0)
(42.3678 -3.26586e-09 0)
(42.3715 1.08245e-08 0)
(42.3744 2.36871e-08 0)
(42.3766 3.51915e-08 0)
(42.3781 4.52301e-08 0)
(42.379 5.38011e-08 0)
(42.3796 6.08545e-08 0)
(42.3797 6.51712e-08 0)
(42.3795 6.83151e-08 0)
(42.3792 7.30988e-08 0)
(42.3786 7.5178e-08 0)
(42.378 7.65031e-08 0)
(42.3772 7.71189e-08 0)
(42.3765 7.71802e-08 0)
(42.3757 7.65699e-08 0)
(42.3749 7.61793e-08 0)
(42.3742 7.44384e-08 0)
(42.3736 7.51961e-08 0)
(42.373 6.97056e-08 0)
(42.3724 7.55143e-08 0)
(42.372 6.52558e-08 0)
(42.3716 7.94529e-08 0)
(42.3712 8.42219e-08 0)
(42.3709 1.94179e-07 0)
(42.3707 7.51711e-07 0)
(42.3704 3.27674e-06 0)
(42.3702 1.65428e-05 0)
(42.3698 8.18353e-05 0)
(42.3683 0.000407433 0)
(42.3613 0.00201804 0)
(42.3284 0.00978935 0)
(42.1726 0.0458309 0)
(41.7307 0.223377 0)
(37.7413 0.728266 0)
(42.7002 0.000273631 0)
(42.7005 0.000210883 0)
(42.7007 0.000194612 0)
(42.701 0.000196959 0)
(42.7012 0.000196037 0)
(42.7014 0.000194061 0)
(42.7016 0.000192299 0)
(42.7018 0.00019074 0)
(42.702 0.000189204 0)
(42.7023 0.000187469 0)
(42.7025 0.000185369 0)
(42.7027 0.000182514 0)
(42.7029 0.000178502 0)