/*--------------------------------*- C++ -*----------------------------------*\
| =========                 |                                                 |
| \\      /  F ield         | OpenFOAM: The Open Source CFD Toolbox           |
|  \\    /   O peration     | Version:  3.0.x                                 |
|   \\  /    A nd           | Web:      www.OpenFOAM.org                      |
|    \\/     M anipulation  |                                                 |
\*---------------------------------------------------------------------------*/
FoamFile
{
    version     2.0;
    format      ascii;
    class       volScalarField;
    location    "0.39";
    object      rho;
}
// * * * * * * * * * * * * * * * * * * * * * * * * * * * * * * * * * * * * * //

dimensions      [1 -3 0 0 0 0 0];

internalField   nonuniform List<scalar> 
13800
(
50.6094
50.6094
50.6094
50.6094
50.6094
50.6094
50.6094
50.6094
50.6094
50.6094
50.6094
50.6094
50.6094
50.6094
50.6094
50.6094
50.6094
50.6094
50.6094
50.6094
50.6094
50.6095
50.6095
50.6095
50.6095
50.6095
50.6095
50.6095
50.6095
50.6095
50.6095
50.6095
50.6095
50.6095
50.6095
50.6095
50.6095
50.6094
50.6094
50.6094
50.6094
50.6095
50.6095
50.6097
50.6098
50.61
50.61
50.6101
50.6102
50.6102
50.6103
50.6103
50.6103
50.6103
50.6103
50.6103
50.6103
50.6102
50.6102
50.6102
50.6102
50.6103
50.6103
50.6104
50.6105
50.6106
50.6106
50.6107
50.6107
50.6107
50.6107
50.6108
50.6109
50.611
50.6111
50.6112
50.6113
50.6114
50.6115
50.6116
50.6116
50.6117
50.6117
50.6117
50.6117
50.6117
50.6117
50.6116
50.6116
50.6116
50.6116
50.6116
50.6116
50.6117
50.6118
50.6119
50.612
50.6121
50.6122
50.6123
50.6124
50.6124
50.6125
50.6125
50.6125
50.6125
50.6126
50.6126
50.6126
50.6126
50.6126
50.6126
50.6127
50.6127
50.6127
50.6127
50.6127
50.6127
50.6127
50.6127
50.6128
50.6128
50.6128
50.6128
50.6128
50.6128
50.6128
50.6128
50.6128
50.6128
50.6128
50.6128
50.6128
50.6128
50.6128
50.6128
50.6129
50.6129
50.6129
50.6129
50.6129
50.6129
50.6129
50.6129
50.6129
50.6129
50.613
50.613
50.613
50.613
50.613
50.613
50.613
50.6131
50.6131
50.6131
50.6131
50.6131
50.6131
50.6132
50.6132
50.6132
50.6132
50.6132
50.6133
50.6133
50.6133
50.6133
50.6133
50.6134
50.6134
50.6134
50.6134
50.6134
50.6134
50.6135
50.6135
50.6135
50.6135
50.6135
50.6136
50.6136
50.6136
50.6136
50.6136
50.6137
50.6137
50.6137
50.6137
50.6137
50.6138
50.6138
50.6138
50.6138
50.6138
50.6139
50.614
50.6142
50.618
50.609
50.6108
50.6107
50.6107
50.6107
50.6107
50.6107
50.6107
50.6107
50.6107
50.6107
50.6107
50.6107
50.6107
50.6107
50.6107
50.6107
50.6107
50.6107
50.6107
50.6107
50.6107
50.6107
50.6107
50.6107
50.6107
50.6107
50.6107
50.6107
50.6107
50.6107
50.6107
50.6107
50.6107
50.6108
50.6108
50.6107
50.6107
50.6106
50.6106
50.6106
50.6106
50.6106
50.6107
50.6108
50.611
50.6111
50.6112
50.6113
50.6113
50.6114
50.6114
50.6114
50.6114
50.6114
50.6114
50.6114
50.6114
50.6113
50.6113
50.6113
50.6113
50.6113
50.6114
50.6115
50.6116
50.6116
50.6117
50.6117
50.6117
50.6118
50.6118
50.6118
50.6119
50.612
50.6121
50.6122
50.6123
50.6124
50.6125
50.6125
50.6126
50.6126
50.6127
50.6127
50.6127
50.6127
50.6127
50.6126
50.6126
50.6125
50.6125
50.6125
50.6126
50.6126
50.6127
50.6128
50.6129
50.613
50.6131
50.6132
50.6133
50.6133
50.6134
50.6134
50.6134
50.6134
50.6134
50.6135
50.6135
50.6135
50.6135
50.6135
50.6135
50.6135
50.6135
50.6135
50.6135
50.6135
50.6136
50.6136
50.6136
50.6136
50.6136
50.6136
50.6136
50.6136
50.6136
50.6136
50.6136
50.6136
50.6136
50.6136
50.6137
50.6137
50.6137
50.6137
50.6137
50.6137
50.6137
50.6137
50.6137
50.6137
50.6137
50.6138
50.6138
50.6138
50.6138
50.6138
50.6138
50.6138
50.6139
50.6139
50.6139
50.6139
50.6139
50.6139
50.6139
50.614
50.614
50.614
50.614
50.614
50.6141
50.6141
50.6141
50.6141
50.6141
50.6141
50.6142
50.6142
50.6142
50.6142
50.6142
50.6143
50.6143
50.6143
50.6143
50.6143
50.6144
50.6144
50.6144
50.6144
50.6144
50.6145
50.6145
50.6145
50.6145
50.6145
50.6146
50.6146
50.6146
50.6146
50.6146
50.6146
50.6147
50.6147
50.6148
50.6149
50.6189
50.6063
50.6108
50.6107
50.6107
50.6107
50.6107
50.6107
50.6107
50.6107
50.6107
50.6107
50.6107
50.6107
50.6107
50.6107
50.6107
50.6107
50.6107
50.6107
50.6107
50.6107
50.6107
50.6107
50.6107
50.6107
50.6107
50.6107
50.6107
50.6107
50.6107
50.6107
50.6107
50.6107
50.6107
50.6108
50.6108
50.6107
50.6107
50.6106
50.6106
50.6106
50.6106
50.6106
50.6107
50.6108
50.611
50.6111
50.6112
50.6113
50.6113
50.6114
50.6114
50.6114
50.6114
50.6114
50.6115
50.6114
50.6114
50.6113
50.6113
50.6113
50.6113
50.6113
50.6114
50.6115
50.6116
50.6116
50.6117
50.6117
50.6117
50.6118
50.6118
50.6118
50.6119
50.612
50.6121
50.6122
50.6123
50.6124
50.6125
50.6125
50.6126
50.6126
50.6127
50.6127
50.6127
50.6127
50.6127
50.6126
50.6126
50.6125
50.6125
50.6125
50.6126
50.6126
50.6127
50.6128
50.6129
50.613
50.6131
50.6132
50.6133
50.6133
50.6134
50.6134
50.6134
50.6134
50.6134
50.6135
50.6135
50.6135
50.6135
50.6135
50.6135
50.6135
50.6135
50.6135
50.6135
50.6135
50.6136
50.6136
50.6136
50.6136
50.6136
50.6136
50.6136
50.6136
50.6136
50.6136
50.6136
50.6136
50.6136
50.6136
50.6137
50.6137
50.6137
50.6137
50.6137
50.6137
50.6137
50.6137
50.6137
50.6137
50.6137
50.6138
50.6138
50.6138
50.6138
50.6138
50.6138
50.6138
50.6139
50.6139
50.6139
50.6139
50.6139
50.6139
50.6139
50.614
50.614
50.614
50.614
50.614
50.6141
50.6141
50.6141
50.6141
50.6141
50.6141
50.6142
50.6142
50.6142
50.6142
50.6142
50.6143
50.6143
50.6143
50.6143
50.6143
50.6144
50.6144
50.6144
50.6144
50.6144
50.6145
50.6145
50.6145
50.6145
50.6145
50.6146
50.6146
50.6146
50.6146
50.6146
50.6146
50.6147
50.6147
50.6148
50.6149
50.6188
50.6067
50.6107
50.6107
50.6107
50.6107
50.6107
50.6107
50.6107
50.6107
50.6107
50.6107
50.6107
50.6107
50.6107
50.6107
50.6107
50.6107
50.6107
50.6107
50.6107
50.6107
50.6107
50.6107
50.6107
50.6107
50.6107
50.6107
50.6107
50.6107
50.6107
50.6107
50.6107
50.6107
50.6107
50.6107
50.6107
50.6107
50.6107
50.6106
50.6106
50.6106
50.6106
50.6106
50.6107
50.6108
50.611
50.6111
50.6112
50.6112
50.6113
50.6113
50.6114
50.6114
50.6114
50.6114
50.6114
50.6114
50.6114
50.6113
50.6113
50.6113
50.6113
50.6113
50.6114
50.6115
50.6116
50.6116
50.6117
50.6117
50.6117
50.6118
50.6118
50.6118
50.6119
50.612
50.6121
50.6122
50.6123
50.6124
50.6125
50.6125
50.6126
50.6126
50.6127
50.6127
50.6127
50.6127
50.6127
50.6126
50.6126
50.6125
50.6125
50.6125
50.6126
50.6126
50.6127
50.6128
50.6129
50.613
50.6131
50.6132
50.6133
50.6133
50.6134
50.6134
50.6134
50.6134
50.6134
50.6135
50.6135
50.6135
50.6135
50.6135
50.6135
50.6135
50.6135
50.6135
50.6135
50.6135
50.6136
50.6136
50.6136
50.6136
50.6136
50.6136
50.6136
50.6136
50.6136
50.6136
50.6136
50.6136
50.6136
50.6136
50.6137
50.6137
50.6137
50.6137
50.6137
50.6137
50.6137
50.6137
50.6137
50.6137
50.6137
50.6138
50.6138
50.6138
50.6138
50.6138
50.6138
50.6138
50.6139
50.6139
50.6139
50.6139
50.6139
50.6139
50.6139
50.614
50.614
50.614
50.614
50.614
50.6141
50.6141
50.6141
50.6141
50.6141
50.6141
50.6142
50.6142
50.6142
50.6142
50.6142
50.6143
50.6143
50.6143
50.6143
50.6143
50.6144
50.6144
50.6144
50.6144
50.6144
50.6145
50.6145
50.6145
50.6145
50.6145
50.6146
50.6146
50.6146
50.6146
50.6146
50.6146
50.6147
50.6147
50.6148
50.615
50.6182
50.6106
50.6107
50.6107
50.6107
50.6107
50.6107
50.6107
50.6107
50.6107
50.6107
50.6107
50.6107
50.6107
50.6107
50.6107
50.6107
50.6107
50.6107
50.6107
50.6107
50.6107
50.6107
50.6107
50.6107
50.6107
50.6107
50.6107
50.6107
50.6107
50.6107
50.6107
50.6107
50.6107
50.6107
50.6107
50.6107
50.6107
50.6106
50.6106
50.6106
50.6106
50.6106
50.6106
50.6107
50.6108
50.611
50.6111
50.6112
50.6112
50.6113
50.6113
50.6114
50.6114
50.6114
50.6114
50.6114
50.6114
50.6114
50.6113
50.6113
50.6113
50.6113
50.6113
50.6114
50.6115
50.6116
50.6116
50.6117
50.6117
50.6117
50.6118
50.6118
50.6118
50.6119
50.612
50.6121
50.6122
50.6123
50.6124
50.6125
50.6125
50.6126
50.6126
50.6127
50.6127
50.6127
50.6127
50.6127
50.6126
50.6126
50.6125
50.6125
50.6125
50.6126
50.6126
50.6127
50.6128
50.6129
50.613
50.6131
50.6132
50.6133
50.6133
50.6134
50.6134
50.6134
50.6134
50.6134
50.6135
50.6135
50.6135
50.6135
50.6135
50.6135
50.6135
50.6135
50.6135
50.6135
50.6135
50.6136
50.6136
50.6136
50.6136
50.6136
50.6136
50.6136
50.6136
50.6136
50.6136
50.6136
50.6136
50.6136
50.6136
50.6137
50.6137
50.6137
50.6137
50.6137
50.6137
50.6137
50.6137
50.6137
50.6137
50.6137
50.6138
50.6138
50.6138
50.6138
50.6138
50.6138
50.6138
50.6139
50.6139
50.6139
50.6139
50.6139
50.6139
50.6139
50.614
50.614
50.614
50.614
50.614
50.6141
50.6141
50.6141
50.6141
50.6141
50.6141
50.6142
50.6142
50.6142
50.6142
50.6142
50.6143
50.6143
50.6143
50.6143
50.6143
50.6144
50.6144
50.6144
50.6144
50.6144
50.6145
50.6145
50.6145
50.6145
50.6145
50.6146
50.6146
50.6146
50.6146
50.6146
50.6146
50.6146
50.6147
50.6147
50.6147
50.6164
50.6087
50.6107
50.6107
50.6107
50.6107
50.6107
50.6107
50.6107
50.6107
50.6107
50.6107
50.6107
50.6107
50.6107
50.6107
50.6107
50.6107
50.6107
50.6107
50.6107
50.6107
50.6107
50.6107
50.6107
50.6107
50.6107
50.6107
50.6107
50.6107
50.6107
50.6107
50.6107
50.6107
50.6107
50.6107
50.6107
50.6107
50.6106
50.6106
50.6106
50.6106
50.6106
50.6106
50.6107
50.6108
50.611
50.6111
50.6112
50.6112
50.6113
50.6113
50.6114
50.6114
50.6114
50.6114
50.6114
50.6114
50.6114
50.6113
50.6113
50.6113
50.6113
50.6113
50.6114
50.6115
50.6116
50.6116
50.6117
50.6117
50.6117
50.6118
50.6118
50.6118
50.6119
50.612
50.6121
50.6122
50.6123
50.6124
50.6125
50.6125
50.6126
50.6126
50.6127
50.6127
50.6127
50.6127
50.6127
50.6126
50.6126
50.6125
50.6125
50.6125
50.6126
50.6126
50.6127
50.6128
50.6129
50.613
50.6131
50.6132
50.6133
50.6133
50.6134
50.6134
50.6134
50.6134
50.6134
50.6135
50.6135
50.6135
50.6135
50.6135
50.6135
50.6135
50.6135
50.6135
50.6135
50.6135
50.6136
50.6136
50.6136
50.6136
50.6136
50.6136
50.6136
50.6136
50.6136
50.6136
50.6136
50.6136
50.6136
50.6136
50.6137
50.6137
50.6137
50.6137
50.6137
50.6137
50.6137
50.6137
50.6137
50.6137
50.6137
50.6138
50.6138
50.6138
50.6138
50.6138
50.6138
50.6138
50.6139
50.6139
50.6139
50.6139
50.6139
50.6139
50.6139
50.614
50.614
50.614
50.614
50.614
50.6141
50.6141
50.6141
50.6141
50.6141
50.6141
50.6142
50.6142
50.6142
50.6142
50.6142
50.6143
50.6143
50.6143
50.6143
50.6143
50.6144
50.6144
50.6144
50.6144
50.6144
50.6145
50.6145
50.6145
50.6145
50.6145
50.6146
50.6146
50.6146
50.6146
50.6146
50.6146
50.6146
50.6147
50.6146
50.6145
50.6138
50.612
50.6107
50.6107
50.6107
50.6107
50.6107
50.6107
50.6107
50.6107
50.6107
50.6107
50.6107
50.6107
50.6107
50.6107
50.6107
50.6107
50.6107
50.6107
50.6107
50.6107
50.6107
50.6107
50.6107
50.6107
50.6107
50.6107
50.6107
50.6107
50.6107
50.6107
50.6107
50.6107
50.6107
50.6107
50.6107
50.6107
50.6107
50.6106
50.6106
50.6106
50.6106
50.6106
50.6107
50.6108
50.611
50.6111
50.6112
50.6112
50.6113
50.6113
50.6114
50.6114
50.6114
50.6114
50.6114
50.6114
50.6114
50.6113
50.6113
50.6113
50.6113
50.6113
50.6114
50.6115
50.6116
50.6116
50.6117
50.6117
50.6117
50.6118
50.6118
50.6118
50.6119
50.612
50.6121
50.6122
50.6123
50.6124
50.6125
50.6125
50.6126
50.6126
50.6127
50.6127
50.6127
50.6127
50.6127
50.6126
50.6126
50.6125
50.6125
50.6125
50.6126
50.6126
50.6127
50.6128
50.6129
50.613
50.6131
50.6132
50.6133
50.6133
50.6134
50.6134
50.6134
50.6134
50.6134
50.6135
50.6135
50.6135
50.6135
50.6135
50.6135
50.6135
50.6135
50.6135
50.6135
50.6135
50.6136
50.6136
50.6136
50.6136
50.6136
50.6136
50.6136
50.6136
50.6136
50.6136
50.6136
50.6136
50.6136
50.6136
50.6137
50.6137
50.6137
50.6137
50.6137
50.6137
50.6137
50.6137
50.6137
50.6137
50.6137
50.6138
50.6138
50.6138
50.6138
50.6138
50.6138
50.6138
50.6139
50.6139
50.6139
50.6139
50.6139
50.6139
50.6139
50.614
50.614
50.614
50.614
50.614
50.6141
50.6141
50.6141
50.6141
50.6141
50.6141
50.6142
50.6142
50.6142
50.6142
50.6142
50.6143
50.6143
50.6143
50.6143
50.6143
50.6144
50.6144
50.6144
50.6144
50.6144
50.6145
50.6145
50.6145
50.6145
50.6145
50.6146
50.6146
50.6146
50.6146
50.6146
50.6146
50.6146
50.6146
50.6145
50.6145
50.6107
50.6225
50.6108
50.6107
50.6107
50.6107
50.6107
50.6107
50.6107
50.6107
50.6107
50.6107
50.6107
50.6107
50.6107
50.6107
50.6107
50.6107
50.6107
50.6107
50.6107
50.6107
50.6107
50.6107
50.6107
50.6107
50.6107
50.6107
50.6107
50.6107
50.6107
50.6107
50.6107
50.6107
50.6107
50.6108
50.6108
50.6107
50.6107
50.6106
50.6106
50.6106
50.6106
50.6106
50.6107
50.6108
50.611
50.6111
50.6112
50.6113
50.6113
50.6114
50.6114
50.6114
50.6114
50.6114
50.6115
50.6114
50.6114
50.6113
50.6113
50.6113
50.6113
50.6113
50.6114
50.6115
50.6116
50.6116
50.6117
50.6117
50.6117
50.6118
50.6118
50.6118
50.6119
50.612
50.6121
50.6122
50.6123
50.6124
50.6125
50.6125
50.6126
50.6126
50.6127
50.6127
50.6127
50.6127
50.6127
50.6126
50.6126
50.6125
50.6125
50.6125
50.6126
50.6126
50.6127
50.6128
50.6129
50.613
50.6131
50.6132
50.6133
50.6133
50.6134
50.6134
50.6134
50.6134
50.6134
50.6135
50.6135
50.6135
50.6135
50.6135
50.6135
50.6135
50.6135
50.6135
50.6135
50.6135
50.6136
50.6136
50.6136
50.6136
50.6136
50.6136
50.6136
50.6136
50.6136
50.6136
50.6136
50.6136
50.6136
50.6136
50.6137
50.6137
50.6137
50.6137
50.6137
50.6137
50.6137
50.6137
50.6137
50.6137
50.6137
50.6138
50.6138
50.6138
50.6138
50.6138
50.6138
50.6138
50.6139
50.6139
50.6139
50.6139
50.6139
50.6139
50.6139
50.614
50.614
50.614
50.614
50.614
50.6141
50.6141
50.6141
50.6141
50.6141
50.6142
50.6142
50.6142
50.6142
50.6142
50.6142
50.6143
50.6143
50.6143
50.6143
50.6143
50.6144
50.6144
50.6144
50.6144
50.6144
50.6145
50.6145
50.6145
50.6145
50.6145
50.6146
50.6146
50.6146
50.6146
50.6146
50.6146
50.6146
50.6146
50.6145
50.615
50.6077
50.6517
50.6108
50.6107
50.6107
50.6107
50.6107
50.6107
50.6107
50.6107
50.6107
50.6107
50.6107
50.6107
50.6107
50.6107
50.6107
50.6107
50.6107
50.6107
50.6107
50.6107
50.6107
50.6107
50.6107
50.6107
50.6107
50.6107
50.6107
50.6107
50.6107
50.6107
50.6107
50.6107
50.6107
50.6108
50.6108
50.6107
50.6107
50.6106
50.6106
50.6106
50.6106
50.6106
50.6107
50.6108
50.611
50.6111
50.6112
50.6113
50.6113
50.6114
50.6114
50.6114
50.6114
50.6114
50.6114
50.6114
50.6114
50.6113
50.6113
50.6113
50.6113
50.6113
50.6114
50.6115
50.6116
50.6116
50.6117
50.6117
50.6117
50.6118
50.6118
50.6118
50.6119
50.612
50.6121
50.6122
50.6123
50.6124
50.6125
50.6125
50.6126
50.6126
50.6127
50.6127
50.6127
50.6127
50.6127
50.6126
50.6126
50.6125
50.6125
50.6125
50.6126
50.6126
50.6127
50.6128
50.6129
50.613
50.6131
50.6132
50.6133
50.6133
50.6134
50.6134
50.6134
50.6134
50.6134
50.6135
50.6135
50.6135
50.6135
50.6135
50.6135
50.6135
50.6135
50.6135
50.6135
50.6135
50.6136
50.6136
50.6136
50.6136
50.6136
50.6136
50.6136
50.6136
50.6136
50.6136
50.6136
50.6136
50.6136
50.6136
50.6137
50.6137
50.6137
50.6137
50.6137
50.6137
50.6137
50.6137
50.6137
50.6137
50.6137
50.6138
50.6138
50.6138
50.6138
50.6138
50.6138
50.6138
50.6139
50.6139
50.6139
50.6139
50.6139
50.6139
50.6139
50.614
50.614
50.614
50.614
50.614
50.6141
50.6141
50.6141
50.6141
50.6141
50.6141
50.6142
50.6142
50.6142
50.6142
50.6142
50.6143
50.6143
50.6143
50.6143
50.6143
50.6144
50.6144
50.6144
50.6144
50.6144
50.6145
50.6145
50.6145
50.6145
50.6145
50.6146
50.6146
50.6146
50.6146
50.6146
50.6146
50.6146
50.6146
50.6145
50.6152
50.6059
50.6671
50.6094
50.6094
50.6094
50.6094
50.6094
50.6094
50.6094
50.6094
50.6094
50.6094
50.6094
50.6094
50.6094
50.6094
50.6094
50.6094
50.6094
50.6094
50.6094
50.6094
50.6094
50.6095
50.6095
50.6095
50.6095
50.6095
50.6095
50.6095
50.6095
50.6095
50.6095
50.6095
50.6095
50.6095
50.6095
50.6095
50.6095
50.6094
50.6094
50.6094
50.6094
50.6095
50.6095
50.6097
50.6098
50.61
50.61
50.6101
50.6102
50.6102
50.6103
50.6103
50.6103
50.6103
50.6103
50.6103
50.6103
50.6102
50.6102
50.6102
50.6102
50.6103
50.6103
50.6104
50.6105
50.6106
50.6106
50.6107
50.6107
50.6107
50.6107
50.6108
50.6109
50.611
50.6111
50.6112
50.6113
50.6114
50.6115
50.6116
50.6116
50.6117
50.6117
50.6117
50.6117
50.6117
50.6117
50.6116
50.6116
50.6116
50.6116
50.6116
50.6116
50.6117
50.6118
50.6119
50.612
50.6121
50.6122
50.6123
50.6124
50.6124
50.6125
50.6125
50.6125
50.6125
50.6126
50.6126
50.6126
50.6126
50.6126
50.6126
50.6127
50.6127
50.6127
50.6127
50.6127
50.6127
50.6127
50.6127
50.6128
50.6128
50.6128
50.6128
50.6128
50.6128
50.6128
50.6128
50.6128
50.6128
50.6128
50.6128
50.6128
50.6128
50.6128
50.6128
50.6129
50.6129
50.6129
50.6129
50.6129
50.6129
50.6129
50.6129
50.6129
50.6129
50.613
50.613
50.613
50.613
50.613
50.613
50.613
50.6131
50.6131
50.6131
50.6131
50.6131
50.6131
50.6132
50.6132
50.6132
50.6132
50.6132
50.6133
50.6133
50.6133
50.6133
50.6133
50.6134
50.6134
50.6134
50.6134
50.6134
50.6134
50.6135
50.6135
50.6135
50.6135
50.6135
50.6136
50.6136
50.6136
50.6136
50.6136
50.6137
50.6137
50.6137
50.6137
50.6137
50.6138
50.6138
50.6138
50.6138
50.6138
50.6138
50.6137
50.6145
50.6036
50.6803
50.7042
50.7436
50.7566
50.7583
50.7579
50.7576
50.757
50.7558
50.7542
50.7524
50.7505
50.7485
50.7462
50.7435
50.7402
50.7361
50.7306
50.7232
50.7128
50.6968
50.699
50.7337
50.7473
50.7497
50.7496
50.7496
50.7492
50.7484
50.747
50.7455
50.7438
50.742
50.7398
50.7373
50.734
50.73
50.7243
50.7169
50.7063
50.6903
50.6936
50.7286
50.744
50.7474
50.7474
50.7474
50.747
50.746
50.7445
50.7429
50.741
50.7392
50.7369
50.7343
50.731
50.727
50.7211
50.7132
50.7019
50.6845
50.6753
50.695
50.7013
50.7007
50.6994
50.6985
50.6974
50.6959
50.6941
50.6921
50.6901
50.6879
50.6854
50.6823
50.6786
50.6741
50.6689
50.6615
50.6515
50.6375
50.6441
50.6566
50.6659
50.6725
50.6772
50.6802
50.6814
50.6819
50.6817
50.6811
50.6799
50.6783
50.6755
50.6723
50.6684
50.6633
50.6567
50.6491
50.6402
50.6297
50.5913
50.5816
50.5713
50.5605
50.5505
50.5422
50.5359
50.5308
50.5265
50.523
50.5201
50.5178
50.5164
50.5152
50.5137
50.5125
50.512
50.5127
50.5137
50.5176
50.5327
50.5113
50.5041
50.5048
50.5063
50.5072
50.5075
50.5082
50.5086
50.5091
50.509
50.5091
50.5088
50.5088
50.5087
50.5096
50.5108
50.5141
50.52
50.5309
50.4633
50.4061
50.3628
50.3336
50.3136
50.2982
50.2862
50.2775
50.2716
50.2681
50.2664
50.2664
50.2684
50.2726
50.2806
50.2908
50.3064
50.3242
50.3502
50.3818
50.4485
50.3864
50.3478
50.3259
50.3111
50.3
50.291
50.2852
50.2815
50.2804
50.2806
50.2825
50.2858
50.2914
50.2997
50.311
50.3258
50.3436
50.3673
50.3973
50.4298
50.3431
50.2947
50.2663
50.2472
50.231
50.2177
50.2079
50.2021
50.1968
50.1949
50.1938
50.1961
50.1996
50.2075
50.2189
50.2341
50.2541
50.2803
50.316
50.6277
50.5878
50.5768
50.5737
50.5727
50.5724
50.5723
50.5723
50.5723
50.5723
50.5723
50.5723
50.5723
50.5723
50.5723
50.5723
50.5724
50.5724
50.5724
50.5724
50.5725
50.5725
50.5725
50.5725
50.5725
50.5725
50.5725
50.5725
50.5725
50.5725
50.5725
50.5725
50.5726
50.5726
50.5726
50.5726
50.5725
50.5725
50.5725
50.5725
50.5725
50.5725
50.5726
50.5726
50.5727
50.5727
50.5727
50.5727
50.5727
50.5727
50.5727
50.5727
50.5727
50.5727
50.5727
50.5728
50.5728
50.5728
50.5729
50.5729
50.5729
50.573
50.573
50.573
50.573
50.573
50.5731
50.5731
50.5732
50.5732
50.5733
50.5733
50.5734
50.5734
50.5734
50.5734
50.5735
50.5735
50.5735
50.5736
50.5737
50.5738
50.5739
50.574
50.5741
50.5742
50.5743
50.5744
50.5745
50.5746
50.5747
50.5749
50.575
50.5752
50.5754
50.5756
50.5758
50.576
50.5761
50.5763
50.5765
50.5768
50.577
50.5773
50.5776
50.578
50.5783
50.5787
50.5791
50.5795
50.5799
50.5804
50.5809
50.5814
50.5819
50.5825
50.5832
50.5838
50.5846
50.5854
50.5862
50.5871
50.588
50.5889
50.5899
50.5909
50.592
50.5932
50.5946
50.5962
50.5979
50.5997
50.6016
50.6033
50.6049
50.6066
50.6083
50.61
50.6117
50.6132
50.6142
50.6127
50.6029
50.5748
50.5404
50.5068
50.4764
50.4509
50.4314
50.4184
50.4117
50.4103
50.4124
50.417
50.4301
50.4646
50.5071
50.5452
50.578
50.6051
50.6268
50.6436
50.6565
50.6665
50.6741
50.68
50.6848
50.6892
50.6935
50.6974
50.701
50.7047
50.7085
50.7124
50.7164
50.7206
50.7249
50.7293
50.7339
50.7385
50.7433
50.7481
50.7531
50.7582
50.7634
50.7687
50.7741
50.7796
50.7852
50.7909
50.7968
50.8027
50.8086
50.815
50.8208
50.8275
50.833
50.8395
50.8376
50.8965
50.6277
50.5903
50.5797
50.5768
50.5759
50.5756
50.5755
50.5756
50.5756
50.5756
50.5756
50.5756
50.5756
50.5756
50.5756
50.5756
50.5756
50.5757
50.5757
50.5758
50.5758
50.5758
50.5758
50.5758
50.5758
50.5758
50.5758
50.5758
50.5758
50.5759
50.5759
50.5759
50.5759
50.5759
50.5759
50.5759
50.5759
50.5759
50.5759
50.5759
50.5759
50.5759
50.5759
50.576
50.576
50.5761
50.5761
50.5761
50.5761
50.5762
50.5762
50.5761
50.5761
50.5761
50.5761
50.5762
50.5762
50.5762
50.5763
50.5763
50.5763
50.5764
50.5764
50.5764
50.5764
50.5765
50.5765
50.5765
50.5766
50.5766
50.5767
50.5767
50.5768
50.5769
50.5769
50.577
50.577
50.577
50.577
50.5771
50.5771
50.5772
50.5773
50.5774
50.5775
50.5776
50.5777
50.5778
50.578
50.5781
50.5782
50.5784
50.5785
50.5787
50.5788
50.579
50.5792
50.5794
50.5797
50.5799
50.5801
50.5803
50.5806
50.5808
50.5811
50.5814
50.5818
50.5822
50.5826
50.583
50.5834
50.5839
50.5844
50.5849
50.5854
50.586
50.5866
50.5872
50.5879
50.5887
50.5895
50.5903
50.5911
50.5921
50.593
50.594
50.5951
50.5963
50.5976
50.5989
50.6004
50.6018
50.6032
50.6047
50.6062
50.6078
50.6096
50.6115
50.6139
50.6177
50.6224
50.6271
50.6315
50.6355
50.6388
50.6415
50.644
50.6463
50.6481
50.6478
50.6424
50.6351
50.6289
50.6243
50.6217
50.621
50.6222
50.6248
50.6284
50.6334
50.6419
50.6513
50.6596
50.6668
50.6732
50.679
50.6839
50.6883
50.6927
50.697
50.7011
50.7051
50.709
50.7131
50.7172
50.7214
50.7257
50.7302
50.7347
50.7393
50.7441
50.749
50.7539
50.759
50.7642
50.7695
50.7749
50.7804
50.786
50.7917
50.7976
50.8035
50.8094
50.8158
50.8217
50.8284
50.8338
50.8403
50.8394
50.8879
50.6276
50.5914
50.5801
50.5767
50.5755
50.575
50.5749
50.5749
50.5749
50.5749
50.5749
50.5749
50.5749
50.5749
50.5749
50.5749
50.5749
50.575
50.575
50.5751
50.5751
50.5751
50.5751
50.5751
50.5751
50.5751
50.5752
50.5752
50.5752
50.5752
50.5752
50.5752
50.5752
50.5752
50.5752
50.5752
50.5752
50.5752
50.5752
50.5752
50.5752
50.5752
50.5752
50.5753
50.5753
50.5754
50.5754
50.5754
50.5755
50.5755
50.5755
50.5755
50.5754
50.5754
50.5755
50.5755
50.5755
50.5755
50.5756
50.5756
50.5756
50.5757
50.5757
50.5757
50.5758
50.5758
50.5758
50.5758
50.5759
50.5759
50.576
50.5761
50.5761
50.5762
50.5762
50.5763
50.5763
50.5763
50.5764
50.5764
50.5765
50.5765
50.5766
50.5767
50.5768
50.5769
50.577
50.5772
50.5773
50.5774
50.5775
50.5777
50.5778
50.578
50.5782
50.5784
50.5786
50.5788
50.579
50.5792
50.5794
50.5797
50.5799
50.5802
50.5805
50.5808
50.5811
50.5815
50.5819
50.5823
50.5828
50.5833
50.5837
50.5842
50.5848
50.5854
50.586
50.5866
50.5873
50.588
50.5888
50.5896
50.5905
50.5914
50.5923
50.5933
50.5944
50.5955
50.5968
50.5981
50.5995
50.601
50.6025
50.6039
50.6054
50.607
50.6086
50.6105
50.6126
50.6157
50.621
50.6274
50.6335
50.6391
50.6441
50.6482
50.6515
50.6542
50.6568
50.6592
50.6608
50.6599
50.6559
50.6521
50.6492
50.6475
50.6469
50.6476
50.6493
50.652
50.6553
50.6591
50.6637
50.6691
50.6744
50.6793
50.6838
50.6881
50.6924
50.6966
50.7007
50.7047
50.7088
50.7129
50.717
50.7213
50.7256
50.7301
50.7346
50.7393
50.7441
50.7489
50.7539
50.759
50.7642
50.7695
50.7749
50.7804
50.786
50.7917
50.7976
50.8035
50.8094
50.8158
50.8217
50.8284
50.8339
50.8401
50.8408
50.8749
50.598
50.5728
50.5663
50.566
50.5666
50.567
50.5673
50.5675
50.5676
50.5677
50.5677
50.5677
50.5677
50.5677
50.5677
50.5677
50.5677
50.5677
50.5678
50.5678
50.5678
50.5679
50.5679
50.5679
50.5679
50.5679
50.568
50.568
50.568
50.568
50.568
50.568
50.568
50.568
50.568
50.568
50.568
50.568
50.568
50.568
50.568
50.568
50.568
50.5681
50.5681
50.5682
50.5682
50.5682
50.5682
50.5683
50.5683
50.5683
50.5683
50.5683
50.5683
50.5683
50.5683
50.5683
50.5684
50.5684
50.5684
50.5685
50.5685
50.5685
50.5686
50.5686
50.5686
50.5687
50.5687
50.5688
50.5689
50.5689
50.569
50.569
50.569
50.5691
50.5691
50.5691
50.5692
50.5692
50.5693
50.5694
50.5695
50.5696
50.5697
50.5698
50.5699
50.57
50.5701
50.5702
50.5704
50.5705
50.5707
50.5708
50.571
50.5712
50.5714
50.5716
50.5718
50.572
50.5722
50.5724
50.5727
50.573
50.5733
50.5736
50.574
50.5744
50.5747
50.5752
50.5756
50.5761
50.5766
50.5771
50.5777
50.5783
50.5789
50.5797
50.5804
50.5812
50.582
50.5829
50.5837
50.5847
50.5857
50.5869
50.5882
50.5897
50.5911
50.5925
50.594
50.5954
50.5968
50.5983
50.5998
50.6016
50.6036
50.6065
50.6103
50.6141
50.6179
50.6215
50.6249
50.6279
50.6306
50.633
50.6354
50.6378
50.6399
50.6414
50.642
50.6425
50.6433
50.6445
50.646
50.6479
50.6502
50.6528
50.6556
50.6587
50.6621
50.6658
50.6695
50.6734
50.6772
50.681
50.6848
50.6885
50.6924
50.6962
50.7001
50.7041
50.7081
50.7122
50.7165
50.7208
50.7252
50.7297
50.7343
50.739
50.7438
50.7487
50.7537
50.7589
50.7641
50.7694
50.7748
50.7803
50.786
50.7916
50.7976
50.8035
50.8094
50.8158
50.8217
50.8284
50.8341
50.8399
50.843
50.8524
50.6048
50.5947
50.5888
50.5833
50.5798
50.5781
50.5773
50.577
50.5768
50.5767
50.5766
50.5766
50.5766
50.5766
50.5766
50.5766
50.5766
50.5766
50.5766
50.5766
50.5767
50.5767
50.5767
50.5767
50.5767
50.5768
50.5768
50.5768
50.5768
50.5768
50.5768
50.5768
50.5768
50.5768
50.5769
50.5769
50.5769
50.5769
50.5769
50.5769
50.5769
50.5769
50.5769
50.5769
50.5769
50.577
50.577
50.577
50.577
50.577
50.5771
50.5771
50.5771
50.5771
50.5771
50.5772
50.5772
50.5772
50.5772
50.5772
50.5772
50.5772
50.5773
50.5773
50.5774
50.5774
50.5774
50.5775
50.5775
50.5775
50.5776
50.5776
50.5777
50.5777
50.5778
50.5778
50.5779
50.578
50.578
50.5781
50.5782
50.5782
50.5783
50.5784
50.5784
50.5785
50.5786
50.5787
50.5788
50.579
50.5791
50.5792
50.5794
50.5795
50.5797
50.5799
50.5801
50.5803
50.5805
50.5807
50.5809
50.5812
50.5814
50.5817
50.582
50.5823
50.5827
50.583
50.5834
50.5838
50.5842
50.5847
50.5852
50.5857
50.5862
50.5867
50.5873
50.5879
50.5886
50.5893
50.59
50.5908
50.5916
50.5924
50.5933
50.5942
50.5951
50.5961
50.5972
50.5984
50.5996
50.6009
50.6022
50.6037
50.6051
50.6066
50.6081
50.6098
50.6115
50.6133
50.6153
50.6175
50.62
50.6227
50.6252
50.6276
50.63
50.6324
50.6348
50.637
50.6391
50.6412
50.6433
50.6456
50.6479
50.6504
50.653
50.6557
50.6586
50.6615
50.6646
50.6678
50.671
50.6743
50.6777
50.6812
50.6848
50.6884
50.6921
50.6959
50.6998
50.7037
50.7078
50.712
50.7162
50.7205
50.725
50.7295
50.7341
50.7389
50.7437
50.7486
50.7537
50.7588
50.764
50.7693
50.7748
50.7803
50.7859
50.7917
50.7974
50.8035
50.8095
50.8156
50.822
50.828
50.8348
50.8406
50.8462
50.8496
50.5254
50.5356
50.5417
50.5466
50.5498
50.5514
50.5521
50.5525
50.5526
50.5527
50.5528
50.5528
50.5529
50.5529
50.5528
50.5528
50.5528
50.5528
50.5528
50.5528
50.5528
50.5529
50.5529
50.553
50.553
50.553
50.5531
50.5531
50.5531
50.5531
50.5531
50.5531
50.5531
50.5532
50.5532
50.5532
50.5532
50.5532
50.5531
50.5531
50.5531
50.5531
50.5532
50.5532
50.5532
50.5533
50.5533
50.5534
50.5534
50.5534
50.5534
50.5534
50.5534
50.5534
50.5534
50.5535
50.5535
50.5536
50.5536
50.5537
50.5537
50.5537
50.5538
50.5538
50.5538
50.5539
50.5539
50.554
50.5541
50.5541
50.5542
50.5542
50.5543
50.5543
50.5543
50.5544
50.5544
50.5544
50.5545
50.5546
50.5547
50.5548
50.5549
50.555
50.5551
50.5552
50.5553
50.5554
50.5556
50.5557
50.5559
50.556
50.5562
50.5564
50.5566
50.5568
50.557
50.5572
50.5575
50.5577
50.558
50.5584
50.5587
50.5591
50.5596
50.56
50.5605
50.561
50.5616
50.5623
50.563
50.5637
50.5645
50.5652
50.566
50.5668
50.5677
50.5686
50.5697
50.5709
50.5721
50.5735
50.5749
50.5764
50.5779
50.5794
50.5808
50.5821
50.5834
50.5847
50.586
50.5875
50.5892
50.5915
50.5944
50.5976
50.6009
50.6044
50.6079
50.6114
50.6147
50.618
50.6211
50.6241
50.627
50.6296
50.6322
50.6346
50.6371
50.6395
50.6417
50.6435
50.6453
50.6471
50.6489
50.651
50.6532
50.6556
50.6582
50.661
50.6638
50.6669
50.67
50.6733
50.6767
50.6802
50.6837
50.6874
50.6912
50.6951
50.699
50.7031
50.7072
50.7114
50.7157
50.7201
50.7246
50.7292
50.7339
50.7387
50.7435
50.7485
50.7535
50.7587
50.7639
50.7693
50.7747
50.7802
50.7859
50.7916
50.7975
50.8034
50.8096
50.8155
50.822
50.8281
50.835
50.8414
50.8503
50.853
50.5675
50.5895
50.5927
50.5907
50.5892
50.5885
50.5881
50.5878
50.5877
50.5876
50.5876
50.5876
50.5876
50.5876
50.5876
50.5876
50.5876
50.5877
50.5877
50.5876
50.5876
50.5876
50.5876
50.5876
50.5876
50.5877
50.5877
50.5877
50.5878
50.5878
50.5878
50.5878
50.5878
50.5878
50.5878
50.5878
50.5878
50.5878
50.5878
50.5878
50.5879
50.5879
50.5879
50.5879
50.5879
50.588
50.588
50.588
50.588
50.588
50.5879
50.588
50.588
50.588
50.588
50.588
50.5881
50.5881
50.5881
50.5882
50.5882
50.5882
50.5882
50.5882
50.5882
50.5882
50.5882
50.5882
50.5883
50.5883
50.5884
50.5884
50.5885
50.5885
50.5886
50.5886
50.5886
50.5887
50.5887
50.5888
50.5888
50.5889
50.5889
50.589
50.5891
50.5892
50.5894
50.5895
50.5896
50.5897
50.5899
50.59
50.5901
50.5902
50.5904
50.5905
50.5907
50.5909
50.5911
50.5914
50.5916
50.5919
50.5922
50.5925
50.5928
50.5931
50.5934
50.5938
50.5942
50.5946
50.595
50.5955
50.596
50.5966
50.5971
50.5978
50.5984
50.5991
50.5998
50.6005
50.6013
50.6021
50.6029
50.6038
50.6047
50.6056
50.6065
50.6075
50.6086
50.6098
50.611
50.6122
50.6133
50.6145
50.6157
50.6171
50.6187
50.6202
50.6216
50.6229
50.6241
50.6253
50.6267
50.6284
50.6302
50.6323
50.6348
50.6375
50.6409
50.6445
50.6475
50.6504
50.6533
50.6559
50.6581
50.6592
50.6602
50.6614
50.6629
50.6647
50.6668
50.6692
50.6719
50.6747
50.6778
50.681
50.6844
50.6879
50.6916
50.6953
50.6992
50.7032
50.7073
50.7115
50.7158
50.7202
50.7246
50.7292
50.7339
50.7386
50.7435
50.7485
50.7535
50.7587
50.7639
50.7693
50.7747
50.7802
50.7859
50.7916
50.7975
50.8033
50.8096
50.8155
50.8221
50.8282
50.8352
50.8422
50.8531
50.8587
50.491
50.5366
50.5485
50.5524
50.5534
50.5535
50.5536
50.5535
50.5535
50.5535
50.5535
50.5535
50.5535
50.5535
50.5535
50.5535
50.5535
50.5534
50.5534
50.5534
50.5534
50.5534
50.5534
50.5535
50.5536
50.5536
50.5537
50.5537
50.5537
50.5537
50.5537
50.5538
50.5538
50.5538
50.5539
50.5539
50.5539
50.5539
50.5539
50.5539
50.5539
50.5538
50.5538
50.5538
50.5539
50.5539
50.554
50.554
50.5541
50.5541
50.5541
50.5541
50.5541
50.5541
50.5541
50.5541
50.5541
50.5542
50.5543
50.5544
50.5544
50.5545
50.5546
50.5546
50.5547
50.5547
50.5548
50.555
50.5551
50.5553
50.5554
50.5556
50.5557
50.5558
50.5559
50.556
50.5561
50.5562