/*--------------------------------*- C++ -*----------------------------------*\
| =========                 |                                                 |
| \\      /  F ield         | OpenFOAM: The Open Source CFD Toolbox           |
|  \\    /   O peration     | Version:  3.0.x                                 |
|   \\  /    A nd           | Web:      www.OpenFOAM.org                      |
|    \\/     M anipulation  |                                                 |
\*---------------------------------------------------------------------------*/
FoamFile
{
    version     2.0;
    format      ascii;
    class       volVectorField;
    location    "0.39";
    object      U;
}
// * * * * * * * * * * * * * * * * * * * * * * * * * * * * * * * * * * * * * //

dimensions      [0 1 -1 0 0 0 0];

internalField   nonuniform List<vector> 
13800
(
(76.1963 0.000140778 0)
(76.1927 0.000123043 0)
(76.1891 0.000121886 0)
(76.1855 0.000124064 0)
(76.1819 0.00012594 0)
(76.1782 0.000127512 0)
(76.1746 0.000128833 0)
(76.171 0.000129925 0)
(76.1674 0.000130834 0)
(76.1637 0.0001316 0)
(76.1601 0.000132245 0)
(76.1564 0.000132793 0)
(76.1528 0.00013326 0)
(76.1491 0.000133661 0)
(76.1455 0.000134007 0)
(76.1418 0.000134305 0)
(76.1382 0.000134563 0)
(76.1345 0.000134788 0)
(76.1308 0.000134985 0)
(76.1271 0.000135155 0)
(76.1235 0.000135305 0)
(76.1198 0.000135435 0)
(76.1161 0.000135549 0)
(76.1124 0.000135649 0)
(76.1086 0.000135735 0)
(76.1049 0.000135811 0)
(76.1012 0.000135877 0)
(76.0974 0.000135934 0)
(76.0937 0.000135983 0)
(76.0899 0.000136026 0)
(76.0862 0.000136068 0)
(76.0824 0.00013609 0)
(76.0786 0.000136115 0)
(76.0748 0.000136128 0)
(76.0711 0.000136133 0)
(76.0673 0.000136231 0)
(76.0634 0.000136203 0)
(76.0596 0.000136215 0)
(76.0558 0.000136229 0)
(76.052 0.000136242 0)
(76.0482 0.000136221 0)
(76.0443 0.000136251 0)
(76.0405 0.000136482 0)
(76.0367 0.00013617 0)
(76.0328 0.000136304 0)
(76.029 0.000136323 0)
(76.0251 0.000136334 0)
(76.0212 0.000136344 0)
(76.0174 0.000136352 0)
(76.0135 0.000136358 0)
(76.0096 0.000136363 0)
(76.0057 0.000136365 0)
(76.0018 0.000136362 0)
(75.9979 0.000136367 0)
(75.994 0.000136356 0)
(75.9901 0.000136354 0)
(75.9862 0.00013639 0)
(75.9823 0.000136363 0)
(75.9783 0.000136358 0)
(75.9744 0.000136354 0)
(75.9705 0.000136319 0)
(75.9665 0.000136325 0)
(75.9626 0.000136523 0)
(75.9587 0.000136256 0)
(75.9547 0.000136349 0)
(75.9508 0.00013636 0)
(75.9468 0.000136364 0)
(75.9429 0.000136369 0)
(75.9389 0.000136374 0)
(75.935 0.000136379 0)
(75.931 0.000136352 0)
(75.9271 0.00013639 0)
(75.9231 0.000136453 0)
(75.9192 0.000136392 0)
(75.9152 0.000136405 0)
(75.9112 0.000136413 0)
(75.9073 0.000136418 0)
(75.9033 0.000136422 0)
(75.8993 0.000136424 0)
(75.8953 0.000136425 0)
(75.8913 0.000136423 0)
(75.8874 0.000136419 0)
(75.8834 0.00013641 0)
(75.8794 0.000136399 0)
(75.8754 0.000136385 0)
(75.8714 0.000136338 0)
(75.8674 0.000136306 0)
(75.8634 0.000136266 0)
(75.8594 0.000136188 0)
(75.8554 0.000136091 0)
(75.8514 0.000135964 0)
(75.8474 0.000135761 0)
(75.8434 0.000135552 0)
(75.8394 0.000135486 0)
(75.8354 0.000134987 0)
(75.8315 0.000134578 0)
(75.8275 0.000134096 0)
(75.8236 0.000133485 0)
(75.8197 0.000132744 0)
(75.8158 0.000131856 0)
(75.8119 0.000130803 0)
(75.8081 0.000129565 0)
(75.8043 0.000128124 0)
(75.8005 0.000126463 0)
(75.7968 0.000124565 0)
(75.7932 0.000122417 0)
(75.7896 0.000120007 0)
(75.7861 0.000117327 0)
(75.7827 0.000114367 0)
(75.7794 0.000111152 0)
(75.7761 0.000107676 0)
(75.773 0.000103921 0)
(75.77 9.99363e-05 0)
(75.767 9.57333e-05 0)
(75.7642 9.13367e-05 0)
(75.7616 8.67757e-05 0)
(75.759 8.20833e-05 0)
(75.7566 7.72949e-05 0)
(75.7543 7.24498e-05 0)
(75.7522 6.75897e-05 0)
(75.7502 6.27279e-05 0)
(75.7483 5.79401e-05 0)
(75.7466 5.32474e-05 0)
(75.7449 4.86784e-05 0)
(75.7434 4.42673e-05 0)
(75.7421 4.00411e-05 0)
(75.7408 3.60228e-05 0)
(75.7396 3.22307e-05 0)
(75.7386 2.86786e-05 0)
(75.7376 2.5376e-05 0)
(75.7367 2.23276e-05 0)
(75.7359 1.95345e-05 0)
(75.7352 1.69935e-05 0)
(75.7345 1.46984e-05 0)
(75.7339 1.26401e-05 0)
(75.7334 1.08071e-05 0)
(75.7329 9.18619e-06 0)
(75.7324 7.76269e-06 0)
(75.732 6.52115e-06 0)
(75.7316 5.44571e-06 0)
(75.7312 4.52045e-06 0)
(75.7309 3.72974e-06 0)
(75.7305 3.05853e-06 0)
(75.7302 2.49253e-06 0)
(75.7299 2.0184e-06 0)
(75.7297 1.62382e-06 0)
(75.7294 1.29757e-06 0)
(75.7291 1.02957e-06 0)
(75.7289 8.108e-07 0)
(75.7286 6.33366e-07 0)
(75.7284 4.90355e-07 0)
(75.7281 3.75821e-07 0)
(75.7279 2.84669e-07 0)
(75.7276 2.12578e-07 0)
(75.7274 1.55916e-07 0)
(75.7272 1.11665e-07 0)
(75.7269 7.73152e-08 0)
(75.7267 5.08245e-08 0)
(75.7264 3.05312e-08 0)
(75.7262 1.50942e-08 0)
(75.7259 3.48813e-09 0)
(75.7257 -5.12982e-09 0)
(75.7254 -1.17738e-08 0)
(75.7252 -1.67031e-08 0)
(75.7249 -2.02729e-08 0)
(75.7247 -2.28557e-08 0)
(75.7244 -2.47259e-08 0)
(75.7242 -2.60681e-08 0)
(75.7239 -2.70223e-08 0)
(75.7237 -2.77035e-08 0)
(75.7234 -2.81698e-08 0)
(75.7231 -2.85064e-08 0)
(75.7229 -2.87596e-08 0)
(75.7226 -2.8936e-08 0)
(75.7223 -2.90631e-08 0)
(75.722 -2.91694e-08 0)
(75.7218 -2.92475e-08 0)
(75.7215 -2.93267e-08 0)
(75.7212 -2.9431e-08 0)
(75.721 -2.95342e-08 0)
(75.7207 -2.96575e-08 0)
(75.7204 -2.98023e-08 0)
(75.7201 -2.99685e-08 0)
(75.7199 -3.01656e-08 0)
(75.7196 -3.0382e-08 0)
(75.7193 -3.05829e-08 0)
(75.7191 -3.0598e-08 0)
(75.7188 -2.95923e-08 0)
(75.7185 -2.38225e-08 0)
(75.7183 5.2277e-09 0)
(75.718 1.46126e-07 0)
(75.7178 8.28232e-07 0)
(75.7174 4.12265e-06 0)
(75.7166 2.00244e-05 0)
(75.7137 9.68153e-05 0)
(75.7012 0.000453549 0)
(75.6456 0.0020696 0)
(75.3922 0.00945363 0)
(74.5538 0.0473682 0)
(66.8113 0.192324 0)
(76.2002 0.000221835 0)
(76.2005 0.000162738 0)
(76.2008 0.000150277 0)
(76.2011 0.0001481 0)
(76.2013 0.000146244 0)
(76.2016 0.000144764 0)
(76.2019 0.000143638 0)
(76.2021 0.000142717 0)
(76.2024 0.000141952 0)
(76.2026 0.000141315 0)
(76.2029 0.000140772 0)
(76.2032 0.000140307 0)
(76.2034 0.000139908 0)
(76.2036 0.000139562 0)
(76.2039 0.000139263 0)
(76.2041 0.000139002 0)
(76.2043 0.000138774 0)
(76.2046 0.00013857 0)
(76.2048 0.000138401 0)
(76.205 0.000138245 0)
(76.2052 0.000138109 0)
(76.2054 0.000137989 0)
(76.2056 0.000137883 0)
(76.2058 0.000137789 0)
(76.2059 0.000137706 0)
(76.2061 0.000137632 0)
(76.2062 0.000137567 0)
(76.2064 0.000137509 0)
(76.2065 0.000137456 0)
(76.2067 0.000137412 0)
(76.2068 0.000137381 0)
(76.2069 0.000137327 0)
(76.207 0.000137294 0)
(76.2071 0.000137249 0)
(76.2072 0.000137196 0)
(76.2073 0.000137315 0)
(76.2074 0.000137218 0)
(76.2074 0.000137205 0)
(76.2075 0.000137198 0)
(76.2076 0.000137192 0)
(76.2076 0.000137128 0)
(76.2077 0.000137162 0)
(76.2077 0.000137564 0)
(76.2078 0.000136952 0)
(76.2078 0.000137206 0)
(76.2078 0.000137229 0)
(76.2079 0.00013724 0)
(76.2079 0.000137252 0)
(76.2079 0.000137264 0)
(76.2079 0.000137275 0)
(76.2079 0.000137286 0)
(76.2079 0.000137296 0)
(76.2079 0.000137298 0)
(76.2079 0.000137316 0)
(76.2079 0.000137306 0)
(76.2078 0.000137312 0)
(76.2078 0.00013739 0)
(76.2078 0.000137352 0)
(76.2077 0.000137359 0)
(76.2077 0.000137368 0)
(76.2076 0.000137319 0)
(76.2076 0.000137347 0)
(76.2075 0.000137721 0)
(76.2075 0.000137223 0)
(76.2074 0.000137428 0)
(76.2073 0.000137458 0)
(76.2073 0.000137477 0)
(76.2072 0.000137497 0)
(76.2072 0.000137518 0)
(76.2071 0.000137538 0)
(76.207 0.000137499 0)
(76.2069 0.000137578 0)
(76.2069 0.000137685 0)
(76.2068 0.000137608 0)
(76.2067 0.000137647 0)
(76.2066 0.00013767 0)
(76.2066 0.00013769 0)
(76.2065 0.00013771 0)
(76.2064 0.000137728 0)
(76.2063 0.000137745 0)
(76.2062 0.000137759 0)
(76.2061 0.000137771 0)
(76.206 0.000137778 0)
(76.2059 0.000137784 0)
(76.2058 0.000137788 0)
(76.2057 0.000137742 0)
(76.2056 0.00013773 0)
(76.2054 0.000137701 0)
(76.2053 0.000137627 0)
(76.2052 0.000137537 0)
(76.2051 0.000137415 0)
(76.2049 0.000137177 0)
(76.2048 0.000136963 0)
(76.2047 0.00013704 0)
(76.2046 0.000136351 0)
(76.2044 0.000135969 0)
(76.2043 0.00013547 0)
(76.2042 0.000134818 0)
(76.2041 0.000134028 0)
(76.204 0.000133082 0)
(76.2038 0.00013196 0)
(76.2037 0.000130641 0)
(76.2036 0.000129109 0)
(76.2035 0.000127344 0)
(76.2033 0.000125331 0)
(76.2032 0.000123057 0)
(76.2031 0.000120512 0)
(76.203 0.000117688 0)
(76.2029 0.00011457 0)
(76.2028 0.000111205 0)
(76.2026 0.000107583 0)
(76.2025 0.000103661 0)
(76.2024 9.95203e-05 0)
(76.2023 9.51671e-05 0)
(76.2021 9.06277e-05 0)
(76.202 8.59338e-05 0)
(76.2019 8.11205e-05 0)
(76.2017 7.62255e-05 0)
(76.2016 7.12907e-05 0)
(76.2014 6.63618e-05 0)
(76.2013 6.14307e-05 0)
(76.2011 5.66074e-05 0)
(76.201 5.18956e-05 0)
(76.2008 4.73217e-05 0)
(76.2006 4.29219e-05 0)
(76.2004 3.87218e-05 0)
(76.2003 3.47427e-05 0)
(76.2001 3.10011e-05 0)
(76.1999 2.75092e-05 0)
(76.1997 2.42742e-05 0)
(76.1995 2.12991e-05 0)
(76.1992 1.85829e-05 0)
(76.199 1.61209e-05 0)
(76.1988 1.39052e-05 0)
(76.1986 1.19252e-05 0)
(76.1984 1.01683e-05 0)
(76.1981 8.62023e-06 0)
(76.1979 7.26556e-06 0)
(76.1977 6.08825e-06 0)
(76.1974 5.07205e-06 0)
(76.1972 4.20084e-06 0)
(76.197 3.45895e-06 0)
(76.1967 2.83139e-06 0)
(76.1965 2.30404e-06 0)
(76.1962 1.86384e-06 0)
(76.196 1.49878e-06 0)
(76.1958 1.19802e-06 0)
(76.1955 9.51834e-07 0)
(76.1953 7.51625e-07 0)
(76.195 5.89863e-07 0)
(76.1948 4.5998e-07 0)
(76.1945 3.56364e-07 0)
(76.1943 2.7424e-07 0)
(76.1941 2.09553e-07 0)
(76.1938 1.58925e-07 0)
(76.1936 1.19541e-07 0)
(76.1933 8.90956e-08 0)
(76.1931 6.57106e-08 0)
(76.1928 4.78672e-08 0)
(76.1926 3.43261e-08 0)
(76.1923 2.40809e-08 0)
(76.192 1.63276e-08 0)
(76.1918 1.06094e-08 0)
(76.1915 6.31602e-09 0)
(76.1913 3.16993e-09 0)
(76.191 8.80341e-10 0)
(76.1907 -7.96896e-10 0)
(76.1905 -2.00919e-09 0)
(76.1902 -2.90069e-09 0)
(76.1899 -3.53869e-09 0)
(76.1896 -3.99441e-09 0)
(76.1894 -4.31352e-09 0)
(76.1891 -4.56778e-09 0)
(76.1888 -4.78093e-09 0)
(76.1885 -4.92124e-09 0)
(76.1883 -5.08173e-09 0)
(76.188 -5.19833e-09 0)
(76.1877 -5.30658e-09 0)
(76.1874 -5.48098e-09 0)
(76.1871 -5.61355e-09 0)
(76.1868 -5.80784e-09 0)
(76.1865 -6.02659e-09 0)
(76.1863 -6.21185e-09 0)
(76.186 -6.44349e-09 0)
(76.1857 -6.64396e-09 0)
(76.1854 -6.69712e-09 0)
(76.1851 -6.14713e-09 0)
(76.1849 -2.19766e-09 0)
(76.1846 1.79472e-08 0)
(76.1843 1.17253e-07 0)
(76.1841 5.97285e-07 0)
(76.1838 2.91982e-06 0)
(76.1834 1.41364e-05 0)
(76.1826 6.82733e-05 0)
(76.1797 0.00032967 0)
(76.1672 0.0015441 0)
(76.1117 0.0070478 0)
(75.8593 0.0321355 0)
(75.0207 0.15794 0)
(67.6961 0.604191 0)
(76.2001 0.000163416 0)
(76.2005 0.000113697 0)
(76.2008 0.000107341 0)
(76.2011 0.000110277 0)
(76.2013 0.000111324 0)
(76.2016 0.000111806 0)
(76.2019 0.000112226 0)
(76.2021 0.000112558 0)
(76.2024 0.00011284 0)
(76.2026 0.000113077 0)
(76.2029 0.000113277 0)
(76.2032 0.000113451 0)
(76.2034 0.000113602 0)
(76.2037 0.000113734 0)
(76.2039 0.000113851 0)
(76.2041 0.000113955 0)
(76.2044 0.00011405 0)
(76.2046 0.00011412 0)
(76.2048 0.000114207 0)
(76.205 0.000114269 0)
(76.2052 0.000114327 0)
(76.2054 0.000114381 0)
(76.2056 0.000114429 0)
(76.2058 0.000114472 0)
(76.206 0.000114512 0)
(76.2061 0.000114547 0)
(76.2063 0.000114579 0)
(76.2065 0.000114608 0)
(76.2066 0.000114634 0)
(76.2067 0.00011466 0)
(76.2069 0.00011469 0)
(76.207 0.000114694 0)
(76.2071 0.000114713 0)
(76.2072 0.000114717 0)
(76.2073 0.00011471 0)
(76.2074 0.000114835 0)
(76.2075 0.000114787 0)
(76.2076 0.000114805 0)
(76.2077 0.000114822 0)
(76.2077 0.000114839 0)
(76.2078 0.000114806 0)
(76.2078 0.000114856 0)
(76.2079 0.00011521 0)
(76.208 0.000114685 0)
(76.208 0.000114931 0)
(76.208 0.000114961 0)
(76.2081 0.000114979 0)
(76.2081 0.000114998 0)
(76.2081 0.000115016 0)
(76.2082 0.000115033 0)
(76.2082 0.000115049 0)
(76.2082 0.000115064 0)
(76.2082 0.000115073 0)
(76.2082 0.000115094 0)
(76.2082 0.00011509 0)
(76.2081 0.000115094 0)
(76.2081 0.000115169 0)
(76.2081 0.000115138 0)
(76.2081 0.000115149 0)
(76.208 0.00011516 0)
(76.208 0.000115123 0)
(76.2079 0.000115154 0)
(76.2079 0.00011547 0)
(76.2078 0.000115031 0)
(76.2078 0.000115225 0)
(76.2078 0.000115251 0)
(76.2077 0.000115267 0)
(76.2077 0.000115286 0)
(76.2076 0.000115305 0)
(76.2076 0.000115323 0)
(76.2075 0.000115292 0)
(76.2074 0.00011536 0)
(76.2074 0.000115432 0)
(76.2073 0.000115394 0)
(76.2073 0.000115425 0)
(76.2072 0.000115439 0)
(76.2071 0.000115457 0)
(76.2071 0.000115474 0)
(76.207 0.00011549 0)
(76.2069 0.000115504 0)
(76.2068 0.000115517 0)
(76.2067 0.000115527 0)
(76.2066 0.000115533 0)
(76.2066 0.00011554 0)
(76.2065 0.000115543 0)
(76.2064 0.000115506 0)
(76.2063 0.000115495 0)
(76.2062 0.000115461 0)
(76.2061 0.0001154 0)
(76.206 0.000115325 0)
(76.2059 0.000115219 0)
(76.2058 0.000115016 0)
(76.2056 0.000114835 0)
(76.2055 0.000114886 0)
(76.2054 0.000114268 0)
(76.2053 0.000113982 0)
(76.2052 0.000113541 0)
(76.2051 0.000112971 0)
(76.205 0.000112289 0)
(76.2049 0.000111474 0)
(76.2048 0.000110507 0)
(76.2047 0.000109373 0)
(76.2046 0.000108056 0)
(76.2044 0.000106542 0)
(76.2043 0.000104817 0)
(76.2042 0.00010287 0)
(76.2041 0.000100695 0)
(76.204 9.82854e-05 0)
(76.2039 9.56263e-05 0)
(76.2037 9.2755e-05 0)
(76.2036 8.96806e-05 0)
(76.2035 8.6348e-05 0)
(76.2033 8.28369e-05 0)
(76.2032 7.91506e-05 0)
(76.2031 7.5312e-05 0)
(76.2029 7.13485e-05 0)
(76.2028 6.72901e-05 0)
(76.2026 6.31689e-05 0)
(76.2024 5.90205e-05 0)
(76.2023 5.48831e-05 0)
(76.2021 5.07495e-05 0)
(76.2019 4.67148e-05 0)
(76.2017 4.27769e-05 0)
(76.2015 3.89607e-05 0)
(76.2013 3.52956e-05 0)
(76.2011 3.18021e-05 0)
(76.2009 2.84976e-05 0)
(76.2007 2.53952e-05 0)
(76.2005 2.25042e-05 0)
(76.2002 1.983e-05 0)
(76.2 1.73745e-05 0)
(76.1998 1.51361e-05 0)
(76.1996 1.31102e-05 0)
(76.1993 1.12898e-05 0)
(76.1991 9.66563e-06 0)
(76.1988 8.22664e-06 0)
(76.1986 6.96061e-06 0)
(76.1984 5.85444e-06 0)
(76.1981 4.89456e-06 0)
(76.1979 4.06732e-06 0)
(76.1976 3.3592e-06 0)
(76.1974 2.75713e-06 0)
(76.1972 2.24863e-06 0)
(76.1969 1.82201e-06 0)
(76.1967 1.46643e-06 0)
(76.1964 1.172e-06 0)
(76.1962 9.29791e-07 0)
(76.1959 7.31819e-07 0)
(76.1957 5.71045e-07 0)
(76.1955 4.41314e-07 0)
(76.1952 3.37269e-07 0)
(76.195 2.54342e-07 0)
(76.1947 1.88667e-07 0)
(76.1945 1.36974e-07 0)
(76.1942 9.65553e-08 0)
(76.194 6.51414e-08 0)
(76.1937 4.08779e-08 0)
(76.1935 2.22463e-08 0)
(76.1932 8.02761e-09 0)
(76.193 -2.76768e-09 0)
(76.1927 -1.09525e-08 0)
(76.1925 -1.71238e-08 0)
(76.1922 -2.15596e-08 0)
(76.1919 -2.4872e-08 0)
(76.1917 -2.73232e-08 0)
(76.1914 -2.9134e-08 0)
(76.1912 -3.04379e-08 0)
(76.1909 -3.14054e-08 0)
(76.1906 -3.21179e-08 0)
(76.1903 -3.26119e-08 0)
(76.1901 -3.30132e-08 0)
(76.1898 -3.32496e-08 0)
(76.1895 -3.34548e-08 0)
(76.1892 -3.36655e-08 0)
(76.189 -3.37471e-08 0)
(76.1887 -3.39338e-08 0)
(76.1884 -3.40394e-08 0)
(76.1881 -3.40971e-08 0)
(76.1878 -3.43108e-08 0)
(76.1875 -3.43802e-08 0)
(76.1872 -3.45841e-08 0)
(76.187 -3.4818e-08 0)
(76.1867 -3.49319e-08 0)
(76.1864 -3.52432e-08 0)
(76.1861 -3.54594e-08 0)
(76.1858 -3.53075e-08 0)
(76.1855 -3.39849e-08 0)
(76.1853 -2.59839e-08 0)
(76.185 1.42361e-08 0)
(76.1847 2.11554e-07 0)
(76.1845 1.16388e-06 0)
(76.1842 5.76971e-06 0)
(76.1838 2.80125e-05 0)
(76.183 0.000135357 0)
(76.1802 0.000653618 0)
(76.168 0.0030634 0)
(76.1141 0.0139902 0)
(75.8692 0.0637758 0)
(75.0599 0.312163 0)
(68.1567 1.16533 0)
(76.2001 0.000118011 0)
(76.2004 0.000102519 0)
(76.2008 9.94384e-05 0)
(76.201 0.000103415 0)
(76.2013 0.000105593 0)
(76.2016 0.000106888 0)
(76.2018 0.000107981 0)
(76.2021 0.000108893 0)
(76.2024 0.000109673 0)
(76.2026 0.000110322 0)
(76.2029 0.000110873 0)
(76.2031 0.000111345 0)
(76.2034 0.00011175 0)
(76.2036 0.000112101 0)
(76.2039 0.000112405 0)
(76.2041 0.00011267 0)
(76.2043 0.000112906 0)
(76.2046 0.000113093 0)
(76.2048 0.000113286 0)
(76.205 0.000113442 0)
(76.2052 0.000113579 0)
(76.2054 0.000113702 0)
(76.2056 0.000113811 0)
(76.2058 0.000113908 0)
(76.2059 0.000113995 0)
(76.2061 0.00011407 0)
(76.2063 0.000114139 0)
(76.2064 0.0001142 0)
(76.2066 0.000114252 0)
(76.2067 0.000114301 0)
(76.2068 0.000114349 0)
(76.207 0.000114376 0)
(76.2071 0.000114411 0)
(76.2072 0.000114435 0)
(76.2073 0.000114448 0)
(76.2074 0.000114543 0)
(76.2075 0.000114533 0)
(76.2075 0.000114555 0)
(76.2076 0.000114579 0)
(76.2077 0.000114602 0)
(76.2078 0.000114594 0)
(76.2078 0.000114644 0)
(76.2079 0.000114886 0)
(76.2079 0.000114546 0)
(76.208 0.000114715 0)
(76.208 0.000114749 0)
(76.208 0.000114771 0)
(76.2081 0.000114793 0)
(76.2081 0.000114812 0)
(76.2081 0.00011483 0)
(76.2081 0.000114847 0)
(76.2081 0.000114862 0)
(76.2081 0.000114872 0)
(76.2081 0.000114889 0)
(76.2081 0.000114891 0)
(76.2081 0.00011489 0)
(76.2081 0.00011495 0)
(76.208 0.000114932 0)
(76.208 0.00011494 0)
(76.208 0.000114949 0)
(76.2079 0.000114928 0)
(76.2079 0.000114955 0)
(76.2079 0.000115166 0)
(76.2078 0.000114877 0)
(76.2078 0.000115005 0)
(76.2077 0.00011503 0)
(76.2077 0.000115046 0)
(76.2076 0.000115064 0)
(76.2076 0.000115082 0)
(76.2075 0.000115098 0)
(76.2075 0.000115085 0)
(76.2074 0.000115137 0)
(76.2073 0.000115189 0)
(76.2073 0.000115172 0)
(76.2072 0.000115194 0)
(76.2072 0.000115208 0)
(76.2071 0.000115226 0)
(76.207 0.000115242 0)
(76.2069 0.000115257 0)
(76.2069 0.000115271 0)
(76.2068 0.000115283 0)
(76.2067 0.000115292 0)
(76.2066 0.000115298 0)
(76.2065 0.000115303 0)
(76.2064 0.000115304 0)
(76.2064 0.000115278 0)
(76.2063 0.000115256 0)
(76.2061 0.000115231 0)
(76.206 0.000115179 0)
(76.2059 0.000115111 0)
(76.2058 0.000115014 0)
(76.2057 0.000114847 0)
(76.2056 0.000114687 0)
(76.2055 0.000114662 0)
(76.2054 0.000114187 0)
(76.2053 0.000113899 0)
(76.2052 0.000113493 0)
(76.2051 0.000112975 0)
(76.205 0.000112353 0)
(76.2049 0.000111605 0)
(76.2047 0.000110716 0)
(76.2046 0.000109669 0)
(76.2045 0.00010845 0)
(76.2044 0.000107042 0)
(76.2043 0.000105433 0)
(76.2042 0.00010361 0)
(76.2041 0.000101566 0)
(76.2039 9.92947e-05 0)
(76.2038 9.678e-05 0)
(76.2037 9.40405e-05 0)
(76.2036 9.11073e-05 0)
(76.2035 8.79177e-05 0)
(76.2033 8.45371e-05 0)
(76.2032 8.09736e-05 0)
(76.203 7.72469e-05 0)
(76.2029 7.33822e-05 0)
(76.2027 6.94073e-05 0)
(76.2026 6.53527e-05 0)
(76.2024 6.12519e-05 0)
(76.2022 5.71403e-05 0)
(76.2021 5.30244e-05 0)
(76.2019 4.89782e-05 0)
(76.2017 4.50113e-05 0)
(76.2015 4.11501e-05 0)
(76.2013 3.74238e-05 0)
(76.2011 3.38548e-05 0)
(76.2009 3.04623e-05 0)
(76.2007 2.72617e-05 0)
(76.2005 2.42644e-05 0)
(76.2002 2.14783e-05 0)
(76.2 1.89073e-05 0)
(76.1998 1.6552e-05 0)
(76.1996 1.44098e-05 0)
(76.1993 1.24752e-05 0)
(76.1991 1.07405e-05 0)
(76.1988 9.19587e-06 0)
(76.1986 7.83012e-06 0)
(76.1984 6.63083e-06 0)
(76.1981 5.58495e-06 0)
(76.1979 4.67904e-06 0)
(76.1976 3.89968e-06 0)
(76.1974 3.2337e-06 0)
(76.1972 2.66838e-06 0)
(76.1969 2.1917e-06 0)
(76.1967 1.79237e-06 0)
(76.1964 1.46004e-06 0)
(76.1962 1.18527e-06 0)
(76.1959 9.59531e-07 0)
(76.1957 7.7526e-07 0)
(76.1955 6.2581e-07 0)
(76.1952 5.05322e-07 0)
(76.195 4.08808e-07 0)
(76.1947 3.31979e-07 0)
(76.1945 2.71198e-07 0)
(76.1942 2.23429e-07 0)
(76.194 1.86088e-07 0)
(76.1937 1.57108e-07 0)
(76.1935 1.34743e-07 0)
(76.1932 1.17565e-07 0)
(76.193 1.04499e-07 0)
(76.1927 9.46417e-08 0)
(76.1925 8.73104e-08 0)
(76.1922 8.17359e-08 0)
(76.1919 7.75901e-08 0)
(76.1917 7.45403e-08 0)
(76.1914 7.23653e-08 0)
(76.1912 7.07444e-08 0)
(76.1909 6.95973e-08 0)
(76.1906 6.87307e-08 0)
(76.1903 6.81632e-08 0)
(76.1901 6.77206e-08 0)
(76.1898 6.74407e-08 0)
(76.1895 6.7246e-08 0)
(76.1892 6.70256e-08 0)
(76.189 6.69871e-08 0)
(76.1887 6.68289e-08 0)
(76.1884 6.67729e-08 0)
(76.1881 6.67415e-08 0)
(76.1878 6.65687e-08 0)
(76.1875 6.65445e-08 0)
(76.1872 6.63496e-08 0)
(76.187 6.61983e-08 0)
(76.1867 6.62206e-08 0)
(76.1864 6.60185e-08 0)
(76.1861 6.61095e-08 0)
(76.1858 6.70104e-08 0)
(76.1855 7.09451e-08 0)
(76.1853 9.18398e-08 0)
(76.185 1.94042e-07 0)
(76.1847 6.9277e-07 0)
(76.1845 3.09772e-06 0)
(76.1842 1.47282e-05 0)
(76.1839 7.08997e-05 0)
(76.1831 0.000341814 0)
(76.1806 0.00164527 0)
(76.1698 0.00774377 0)
(76.1219 0.035239 0)
(75.9079 0.158652 0)
(75.2075 0.718646 0)
(69.9559 2.6312 0)
(76.2001 3.56568e-05 0)
(76.2004 2.85127e-05 0)
(76.2007 2.0478e-05 0)
(76.201 1.71567e-05 0)
(76.2013 1.45476e-05 0)
(76.2015 1.23015e-05 0)
(76.2018 1.05194e-05 0)
(76.2021 9.07748e-06 0)
(76.2023 7.89378e-06 0)
(76.2026 6.894e-06 0)
(76.2028 6.04688e-06 0)
(76.2031 5.32362e-06 0)
(76.2034 4.70156e-06 0)
(76.2036 4.16358e-06 0)
(76.2038 3.69615e-06 0)
(76.2041 3.28852e-06 0)
(76.2043 2.93395e-06 0)
(76.2045 2.61284e-06 0)
(76.2048 2.34283e-06 0)
(76.205 2.10027e-06 0)
(76.2052 1.88372e-06 0)
(76.2054 1.69313e-06 0)
(76.2056 1.52429e-06 0)
(76.2057 1.3743e-06 0)
(76.2059 1.24162e-06 0)
(76.2061 1.1223e-06 0)
(76.2062 1.0176e-06 0)
(76.2064 9.24204e-07 0)
(76.2065 8.40354e-07 0)
(76.2067 7.66499e-07 0)
(76.2068 7.01885e-07 0)
(76.2069 6.39851e-07 0)
(76.207 5.87124e-07 0)
(76.2072 5.38774e-07 0)
(76.2073 4.92112e-07 0)
(76.2074 4.7221e-07 0)
(76.2074 4.30167e-07 0)
(76.2075 3.99139e-07 0)
(76.2076 3.72496e-07 0)
(76.2077 3.47988e-07 0)
(76.2077 3.17757e-07 0)
(76.2078 3.07724e-07 0)
(76.2078 3.54343e-07 0)
(76.2079 2.2578e-07 0)
(76.208 2.55389e-07 0)
(76.208 2.49277e-07 0)
(76.208 2.38646e-07 0)
(76.2081 2.29397e-07 0)
(76.2081 2.2121e-07 0)
(76.2081 2.14085e-07 0)
(76.2081 2.07926e-07 0)
(76.2081 2.02763e-07 0)
(76.2081 1.97951e-07 0)
(76.2081 1.95246e-07 0)
(76.2081 1.89911e-07 0)
(76.2081 1.80482e-07 0)
(76.2081 1.96916e-07 0)
(76.208 1.86015e-07 0)
(76.208 1.83337e-07 0)
(76.208 1.81673e-07 0)
(76.2079 1.71879e-07 0)
(76.2079 1.77842e-07 0)
(76.2078 2.35711e-07 0)
(76.2078 1.4091e-07 0)
(76.2078 1.74683e-07 0)
(76.2077 1.79851e-07 0)
(76.2077 1.79637e-07 0)
(76.2076 1.79815e-07 0)
(76.2076 1.79879e-07 0)
(76.2075 1.79224e-07 0)
(76.2074 1.70292e-07 0)
(76.2074 1.80413e-07 0)
(76.2073 1.88742e-07 0)
(76.2073 1.79171e-07 0)
(76.2072 1.81929e-07 0)
(76.2071 1.81894e-07 0)
(76.2071 1.82591e-07 0)
(76.207 1.83304e-07 0)
(76.2069 1.83931e-07 0)
(76.2068 1.84604e-07 0)
(76.2068 1.85313e-07 0)
(76.2067 1.86035e-07 0)
(76.2066 1.86831e-07 0)
(76.2065 1.89072e-07 0)
(76.2064 1.90794e-07 0)
(76.2063 1.86629e-07 0)
(76.2062 1.82143e-07 0)
(76.2061 1.84901e-07 0)
(76.206 1.80484e-07 0)
(76.2059 1.76267e-07 0)
(76.2058 1.69313e-07 0)
(76.2057 1.49059e-07 0)
(76.2056 1.40975e-07 0)
(76.2055 1.8094e-07 0)
(76.2054 1.02593e-07 0)
(76.2053 9.46254e-08 0)
(76.2052 7.61562e-08 0)
(76.2051 4.45199e-08 0)
(76.2049 8.84815e-09 0)
(76.2048 -3.28698e-08 0)
(76.2047 -8.10002e-08 0)
(76.2046 -1.35575e-07 0)
(76.2045 -1.96654e-07 0)
(76.2044 -2.64155e-07 0)
(76.2043 -3.37773e-07 0)
(76.2042 -4.16979e-07 0)
(76.204 -5.00979e-07 0)
(76.2039 -5.87706e-07 0)
(76.2038 -6.82e-07 0)
(76.2037 -7.79234e-07 0)
(76.2036 -8.59764e-07 0)
(76.2034 -9.5496e-07 0)
(76.2033 -1.04355e-06 0)
(76.2032 -1.12612e-06 0)
(76.203 -1.20212e-06 0)
(76.2029 -1.27002e-06 0)
(76.2027 -1.32845e-06 0)
(76.2026 -1.37623e-06 0)
(76.2024 -1.4119e-06 0)
(76.2022 -1.43423e-06 0)
(76.2021 -1.45072e-06 0)
(76.2019 -1.44879e-06 0)
(76.2017 -1.43498e-06 0)
(76.2015 -1.41068e-06 0)
(76.2013 -1.37568e-06 0)
(76.2011 -1.33106e-06 0)
(76.2009 -1.27805e-06 0)
(76.2007 -1.218e-06 0)
(76.2005 -1.15236e-06 0)
(76.2002 -1.08256e-06 0)
(76.2 -1.01006e-06 0)
(76.1998 -9.36203e-07 0)
(76.1996 -8.62286e-07 0)
(76.1993 -7.89438e-07 0)
(76.1991 -7.18639e-07 0)
(76.1988 -6.50765e-07 0)
(76.1986 -5.86447e-07 0)
(76.1984 -5.26213e-07 0)
(76.1981 -4.70435e-07 0)
(76.1979 -4.19293e-07 0)
(76.1976 -3.72872e-07 0)
(76.1974 -3.31152e-07 0)
(76.1972 -2.93994e-07 0)
(76.1969 -2.61175e-07 0)
(76.1967 -2.32475e-07 0)
(76.1964 -2.0756e-07 0)
(76.1962 -1.86076e-07 0)
(76.1959 -1.67742e-07 0)
(76.1957 -1.52182e-07 0)
(76.1955 -1.39034e-07 0)
(76.1952 -1.28061e-07 0)
(76.195 -1.18941e-07 0)
(76.1947 -1.11381e-07 0)
(76.1945 -1.05207e-07 0)
(76.1942 -1.00186e-07 0)
(76.194 -9.6123e-08 0)
(76.1937 -9.28732e-08 0)
(76.1935 -9.02881e-08 0)
(76.1932 -8.82681e-08 0)
(76.193 -8.66754e-08 0)
(76.1927 -8.5428e-08 0)
(76.1925 -8.45585e-08 0)
(76.1922 -8.3902e-08 0)
(76.1919 -8.34176e-08 0)
(76.1917 -8.30723e-08 0)
(76.1914 -8.27913e-08 0)
(76.1912 -8.26537e-08 0)
(76.1909 -8.25069e-08 0)
(76.1906 -8.24375e-08 0)
(76.1903 -8.23697e-08 0)
(76.1901 -8.23458e-08 0)
(76.1898 -8.23661e-08 0)
(76.1895 -8.23072e-08 0)
(76.1892 -8.23944e-08 0)
(76.189 -8.23562e-08 0)
(76.1887 -8.23756e-08 0)
(76.1884 -8.24823e-08 0)
(76.1881 -8.2386e-08 0)
(76.1878 -8.24632e-08 0)
(76.1875 -8.25491e-08 0)
(76.1872 -8.24872e-08 0)
(76.187 -8.25405e-08 0)
(76.1867 -8.26373e-08 0)
(76.1864 -8.25431e-08 0)
(76.1861 -8.23006e-08 0)
(76.1858 -8.08353e-08 0)
(76.1855 -7.36984e-08 0)
(76.1853 -3.8912e-08 0)
(76.185 1.30348e-07 0)
(76.1847 9.59549e-07 0)
(76.1845 4.95051e-06 0)
(76.1842 2.42586e-05 0)
(76.1839 0.00011756 0)
(76.1835 0.000567691 0)
(76.1823 0.00272987 0)
(76.1779 0.0129004 0)
(76.1581 0.0590043 0)
(76.066 0.266054 0)
(75.7625 1.17062 0)
(72.6812 4.22175 0)
(76.2001 -3.56568e-05 0)
(76.2004 -2.85127e-05 0)
(76.2007 -2.0478e-05 0)
(76.201 -1.71567e-05 0)
(76.2013 -1.45476e-05 0)
(76.2015 -1.23015e-05 0)
(76.2018 -1.05194e-05 0)
(76.2021 -9.07748e-06 0)
(76.2023 -7.89378e-06 0)
(76.2026 -6.894e-06 0)
(76.2028 -6.04688e-06 0)
(76.2031 -5.32362e-06 0)
(76.2034 -4.70156e-06 0)
(76.2036 -4.16358e-06 0)
(76.2038 -3.69615e-06 0)
(76.2041 -3.28852e-06 0)
(76.2043 -2.93395e-06 0)
(76.2045 -2.61284e-06 0)
(76.2048 -2.34283e-06 0)
(76.205 -2.10027e-06 0)
(76.2052 -1.88372e-06 0)
(76.2054 -1.69313e-06 0)
(76.2056 -1.52429e-06 0)
(76.2057 -1.3743e-06 0)
(76.2059 -1.24162e-06 0)
(76.2061 -1.1223e-06 0)
(76.2062 -1.0176e-06 0)
(76.2064 -9.24205e-07 0)
(76.2065 -8.40355e-07 0)
(76.2067 -7.665e-07 0)
(76.2068 -7.01885e-07 0)
(76.2069 -6.39849e-07 0)
(76.207 -5.87125e-07 0)
(76.2072 -5.38774e-07 0)
(76.2073 -4.92112e-07 0)
(76.2074 -4.7221e-07 0)
(76.2074 -4.30166e-07 0)
(76.2075 -3.99139e-07 0)
(76.2076 -3.72497e-07 0)
(76.2077 -3.47989e-07 0)
(76.2077 -3.17756e-07 0)
(76.2078 -3.07724e-07 0)
(76.2078 -3.54342e-07 0)
(76.2079 -2.2578e-07 0)
(76.208 -2.55388e-07 0)
(76.208 -2.49276e-07 0)
(76.208 -2.38647e-07 0)
(76.2081 -2.29397e-07 0)
(76.2081 -2.2121e-07 0)
(76.2081 -2.14085e-07 0)
(76.2081 -2.07925e-07 0)
(76.2081 -2.02762e-07 0)
(76.2081 -1.97951e-07 0)
(76.2081 -1.95244e-07 0)
(76.2081 -1.89911e-07 0)
(76.2081 -1.80482e-07 0)
(76.2081 -1.96917e-07 0)
(76.208 -1.86016e-07 0)
(76.208 -1.83337e-07 0)
(76.208 -1.81672e-07 0)
(76.2079 -1.7188e-07 0)
(76.2079 -1.77842e-07 0)
(76.2078 -2.35712e-07 0)
(76.2078 -1.4091e-07 0)
(76.2078 -1.74683e-07 0)
(76.2077 -1.7985e-07 0)
(76.2077 -1.79637e-07 0)
(76.2076 -1.79814e-07 0)
(76.2076 -1.79877e-07 0)
(76.2075 -1.79224e-07 0)
(76.2074 -1.70292e-07 0)
(76.2074 -1.80412e-07 0)
(76.2073 -1.88741e-07 0)
(76.2073 -1.79172e-07 0)
(76.2072 -1.8193e-07 0)
(76.2071 -1.81895e-07 0)
(76.2071 -1.82591e-07 0)
(76.207 -1.83303e-07 0)
(76.2069 -1.83932e-07 0)
(76.2068 -1.84604e-07 0)
(76.2068 -1.85313e-07 0)
(76.2067 -1.86035e-07 0)
(76.2066 -1.86831e-07 0)
(76.2065 -1.89071e-07 0)
(76.2064 -1.90793e-07 0)
(76.2063 -1.86629e-07 0)
(76.2062 -1.82144e-07 0)
(76.2061 -1.84902e-07 0)
(76.206 -1.80484e-07 0)
(76.2059 -1.76268e-07 0)
(76.2058 -1.69314e-07 0)
(76.2057 -1.49061e-07 0)
(76.2056 -1.40976e-07 0)
(76.2055 -1.80942e-07 0)
(76.2054 -1.02593e-07 0)
(76.2053 -9.46252e-08 0)
(76.2052 -7.61552e-08 0)
(76.2051 -4.45198e-08 0)
(76.2049 -8.8483e-09 0)
(76.2048 3.28685e-08 0)
(76.2047 8.10001e-08 0)
(76.2046 1.35575e-07 0)
(76.2045 1.96654e-07 0)
(76.2044 2.64155e-07 0)
(76.2043 3.37773e-07 0)
(76.2042 4.16981e-07 0)
(76.204 5.00977e-07 0)
(76.2039 5.87709e-07 0)
(76.2038 6.81994e-07 0)
(76.2037 7.79245e-07 0)
(76.2036 8.59757e-07 0)
(76.2034 9.54956e-07 0)
(76.2033 1.04355e-06 0)
(76.2032 1.12612e-06 0)
(76.203 1.20212e-06 0)
(76.2029 1.27002e-06 0)
(76.2027 1.32845e-06 0)
(76.2026 1.37623e-06 0)
(76.2024 1.41189e-06 0)
(76.2022 1.43422e-06 0)
(76.2021 1.45083e-06 0)
(76.2019 1.44872e-06 0)
(76.2017 1.43496e-06 0)
(76.2015 1.41068e-06 0)
(76.2013 1.37568e-06 0)
(76.2011 1.33106e-06 0)
(76.2009 1.27805e-06 0)
(76.2007 1.218e-06 0)
(76.2005 1.15235e-06 0)
(76.2002 1.08256e-06 0)
(76.2 1.01005e-06 0)
(76.1998 9.3621e-07 0)
(76.1996 8.62286e-07 0)
(76.1993 7.89431e-07 0)
(76.1991 7.18653e-07 0)
(76.1988 6.50755e-07 0)
(76.1986 5.86445e-07 0)
(76.1984 5.26224e-07 0)
(76.1981 4.70425e-07 0)
(76.1979 4.1929e-07 0)
(76.1976 3.72879e-07 0)
(76.1974 3.31149e-07 0)
(76.1972 2.93982e-07 0)
(76.1969 2.61189e-07 0)
(76.1967 2.32474e-07 0)
(76.1964 2.07541e-07 0)
(76.1962 1.86101e-07 0)
(76.1959 1.67743e-07 0)
(76.1957 1.52157e-07 0)
(76.1955 1.3906e-07 0)
(76.1952 1.28062e-07 0)
(76.195 1.18914e-07 0)
(76.1947 1.11404e-07 0)
(76.1945 1.0522e-07 0)
(76.1942 1.00163e-07 0)
(76.194 9.61166e-08 0)
(76.1937 9.28902e-08 0)
(76.1935 9.02927e-08 0)
(76.1932 8.82432e-08 0)
(76.193 8.66667e-08 0)
(76.1927 8.54641e-08 0)
(76.1925 8.45496e-08 0)
(76.1922 8.38915e-08 0)
(76.1919 8.34123e-08 0)
(76.1917 8.30861e-08 0)
(76.1914 8.28011e-08 0)
(76.1912 8.26325e-08 0)
(76.1909 8.25025e-08 0)
(76.1906 8.24369e-08 0)
(76.1903 8.24126e-08 0)
(76.1901 8.23012e-08 0)
(76.1898 8.23659e-08 0)
(76.1895 8.23423e-08 0)
(76.1892 8.23131e-08 0)
(76.189 8.24517e-08 0)
(76.1887 8.23369e-08 0)
(76.1884 8.24254e-08 0)
(76.1881 8.25212e-08 0)
(76.1878 8.23758e-08 0)
(76.1875 8.253e-08 0)
(76.1872 8.2523e-08 0)
(76.187 8.25106e-08 0)
(76.1867 8.27134e-08 0)
(76.1864 8.27343e-08 0)
(76.1861 8.29428e-08 0)
(76.1858 8.46827e-08 0)
(76.1855 9.17591e-08 0)
(76.1853 1.26187e-07 0)
(76.185 2.93978e-07 0)
(76.1847 1.12721e-06 0)
(76.1845 5.11955e-06 0)
(76.1842 2.44644e-05 0)
(76.184 0.000118152 0)
(76.184 0.000572892 0)
(76.1846 0.00278231 0)
(76.188 0.0131012 0)
(76.2041 0.0609095 0)
(76.2711 0.283349 0)
(76.5175 1.32259 0)
(77.3751 4.74957 0)
(76.2001 -0.000118011 0)
(76.2004 -0.000102519 0)
(76.2008 -9.94384e-05 0)
(76.201 -0.000103415 0)
(76.2013 -0.000105593 0)
(76.2016 -0.000106888 0)
(76.2018 -0.000107981 0)
(76.2021 -0.000108893 0)
(76.2024 -0.000109673 0)
(76.2026 -0.000110322 0)
(76.2029 -0.000110873 0)
(76.2031 -0.000111345 0)
(76.2034 -0.00011175 0)
(76.2036 -0.000112101 0)
(76.2039 -0.000112405 0)
(76.2041 -0.00011267 0)