/*--------------------------------*- C++ -*----------------------------------*\
| =========                 |                                                 |
| \\      /  F ield         | OpenFOAM: The Open Source CFD Toolbox           |
|  \\    /   O peration     | Version:  3.0.x                                 |
|   \\  /    A nd           | Web:      www.OpenFOAM.org                      |
|    \\/     M anipulation  |                                                 |
\*---------------------------------------------------------------------------*/
FoamFile
{
    version     2.0;
    format      ascii;
    class       volScalarField;
    location    "0.14";
    object      rho;
}
// * * * * * * * * * * * * * * * * * * * * * * * * * * * * * * * * * * * * * //

dimensions      [1 -3 0 0 0 0 0];

internalField   nonuniform List<scalar> 
6900
(
50.609
50.6093
50.6095
50.6098
50.6101
50.6104
50.6107
50.6112
50.6117
50.6123
50.613
50.6136
50.6142
50.6147
50.6152
50.6157
50.6162
50.6166
50.617
50.6174
50.6178
50.6182
50.6186
50.619
50.6194
50.6197
50.6201
50.6204
50.6208
50.6211
50.6215
50.6219
50.6223
50.6227
50.6231
50.6235
50.624
50.6245
50.625
50.6255
50.6261
50.6267
50.6273
50.6279
50.6285
50.6292
50.6299
50.6306
50.6313
50.6321
50.6328
50.6335
50.6343
50.635
50.6358
50.6365
50.6372
50.638
50.6387
50.6394
50.6401
50.6407
50.6414
50.6421
50.6427
50.6434
50.644
50.6446
50.6453
50.6459
50.6465
50.6472
50.6479
50.6485
50.6492
50.6499
50.6507
50.6514
50.6522
50.653
50.6539
50.6547
50.6556
50.6565
50.6575
50.6584
50.6594
50.6603
50.6613
50.6622
50.6632
50.6641
50.665
50.6659
50.6668
50.6676
50.6683
50.669
50.6697
50.6703
50.6708
50.6713
50.6717
50.6721
50.6724
50.6726
50.6728
50.6729
50.673
50.6731
50.6731
50.6731
50.673
50.673
50.6729
50.6728
50.6727
50.6727
50.6726
50.6725
50.6725
50.6725
50.6724
50.6725
50.6725
50.6725
50.6726
50.6727
50.6728
50.6729
50.673
50.6732
50.6733
50.6734
50.6735
50.6736
50.6737
50.6737
50.6738
50.6738
50.6738
50.6737
50.6736
50.6735
50.6733
50.6732
50.6729
50.6727
50.6724
50.672
50.6717
50.6712
50.6708
50.6703
50.6698
50.6693
50.6688
50.6682
50.6676
50.667
50.6664
50.6658
50.6652
50.6646
50.6639
50.6633
50.6627
50.6621
50.6614
50.6608
50.6601
50.6595
50.6588
50.6581
50.6573
50.6566
50.6558
50.655
50.6541
50.6533
50.6525
50.6516
50.6508
50.65
50.6491
50.6483
50.6475
50.6467
50.646
50.6452
50.6444
50.6437
50.643
50.6423
50.6416
50.641
50.6405
50.6399
50.6398
50.6369
50.6091
50.6093
50.6096
50.6099
50.6101
50.6104
50.6108
50.6112
50.6117
50.6123
50.613
50.6136
50.6142
50.6148
50.6153
50.6158
50.6162
50.6166
50.6171
50.6175
50.6179
50.6183
50.6187
50.619
50.6194
50.6198
50.6201
50.6205
50.6208
50.6212
50.6216
50.6219
50.6223
50.6227
50.6231
50.6236
50.624
50.6245
50.625
50.6256
50.6261
50.6267
50.6273
50.6279
50.6286
50.6293
50.6299
50.6307
50.6314
50.6321
50.6328
50.6336
50.6343
50.6351
50.6358
50.6365
50.6373
50.638
50.6387
50.6394
50.6401
50.6408
50.6415
50.6421
50.6428
50.6434
50.644
50.6447
50.6453
50.646
50.6466
50.6472
50.6479
50.6486
50.6493
50.65
50.6507
50.6515
50.6523
50.6531
50.6539
50.6548
50.6557
50.6566
50.6575
50.6584
50.6594
50.6604
50.6613
50.6623
50.6632
50.6642
50.6651
50.666
50.6668
50.6676
50.6684
50.6691
50.6697
50.6703
50.6709
50.6713
50.6718
50.6721
50.6724
50.6726
50.6728
50.673
50.673
50.6731
50.6731
50.6731
50.6731
50.673
50.6729
50.6729
50.6728
50.6727
50.6726
50.6726
50.6725
50.6725
50.6725
50.6725
50.6725
50.6726
50.6726
50.6727
50.6728
50.6729
50.6731
50.6732
50.6733
50.6734
50.6736
50.6736
50.6737
50.6738
50.6738
50.6738
50.6738
50.6737
50.6737
50.6735
50.6734
50.6732
50.673
50.6727
50.6724
50.6721
50.6717
50.6713
50.6708
50.6704
50.6699
50.6694
50.6688
50.6682
50.6677
50.6671
50.6665
50.6658
50.6652
50.6646
50.664
50.6634
50.6627
50.6621
50.6615
50.6608
50.6602
50.6595
50.6588
50.6581
50.6574
50.6566
50.6558
50.655
50.6542
50.6534
50.6525
50.6517
50.6508
50.65
50.6492
50.6484
50.6476
50.6468
50.646
50.6452
50.6445
50.6437
50.643
50.6423
50.6417
50.641
50.6405
50.64
50.6399
50.6372
50.6091
50.6093
50.6096
50.6099
50.6101
50.6104
50.6108
50.6112
50.6117
50.6123
50.613
50.6136
50.6142
50.6148
50.6153
50.6158
50.6162
50.6166
50.6171
50.6175
50.6179
50.6183
50.6187
50.619
50.6194
50.6198
50.6201
50.6205
50.6208
50.6212
50.6216
50.6219
50.6223
50.6227
50.6231
50.6236
50.624
50.6245
50.625
50.6256
50.6261
50.6267
50.6273
50.6279
50.6286
50.6293
50.6299
50.6307
50.6314
50.6321
50.6328
50.6336
50.6343
50.6351
50.6358
50.6365
50.6373
50.638
50.6387
50.6394
50.6401
50.6408
50.6415
50.6421
50.6428
50.6434
50.644
50.6447
50.6453
50.646
50.6466
50.6472
50.6479
50.6486
50.6493
50.65
50.6507
50.6515
50.6523
50.6531
50.6539
50.6548
50.6557
50.6566
50.6575
50.6584
50.6594
50.6604
50.6613
50.6623
50.6632
50.6642
50.6651
50.666
50.6668
50.6676
50.6684
50.6691
50.6697
50.6703
50.6709
50.6713
50.6718
50.6721
50.6724
50.6726
50.6728
50.673
50.673
50.6731
50.6731
50.6731
50.6731
50.673
50.6729
50.6729
50.6728
50.6727
50.6726
50.6726
50.6725
50.6725
50.6725
50.6725
50.6725
50.6726
50.6726
50.6727
50.6728
50.6729
50.6731
50.6732
50.6733
50.6734
50.6736
50.6736
50.6737
50.6738
50.6738
50.6738
50.6738
50.6737
50.6737
50.6735
50.6734
50.6732
50.673
50.6727
50.6724
50.6721
50.6717
50.6713
50.6708
50.6704
50.6699
50.6694
50.6688
50.6682
50.6677
50.6671
50.6665
50.6658
50.6652
50.6646
50.664
50.6634
50.6627
50.6621
50.6615
50.6608
50.6602
50.6595
50.6588
50.6581
50.6574
50.6566
50.6558
50.655
50.6542
50.6534
50.6525
50.6517
50.6508
50.65
50.6492
50.6484
50.6476
50.6468
50.646
50.6452
50.6445
50.6437
50.643
50.6423
50.6417
50.641
50.6405
50.64
50.6396
50.6391
50.6091
50.6093
50.6096
50.6099
50.6101
50.6104
50.6108
50.6112
50.6117
50.6123
50.613
50.6136
50.6142
50.6148
50.6153
50.6158
50.6162
50.6166
50.6171
50.6175
50.6179
50.6183
50.6187
50.619
50.6194
50.6198
50.6201
50.6205
50.6208
50.6212
50.6216
50.6219
50.6223
50.6227
50.6231
50.6236
50.624
50.6245
50.625
50.6256
50.6261
50.6267
50.6273
50.6279
50.6286
50.6293
50.6299
50.6307
50.6314
50.6321
50.6328
50.6336
50.6343
50.6351
50.6358
50.6365
50.6373
50.638
50.6387
50.6394
50.6401
50.6408
50.6415
50.6421
50.6428
50.6434
50.644
50.6447
50.6453
50.646
50.6466
50.6472
50.6479
50.6486
50.6493
50.65
50.6507
50.6515
50.6523
50.6531
50.6539
50.6548
50.6557
50.6566
50.6575
50.6584
50.6594
50.6604
50.6613
50.6623
50.6632
50.6642
50.6651
50.666
50.6668
50.6676
50.6684
50.6691
50.6697
50.6703
50.6709
50.6713
50.6718
50.6721
50.6724
50.6726
50.6728
50.673
50.673
50.6731
50.6731
50.6731
50.6731
50.673
50.6729
50.6729
50.6728
50.6727
50.6726
50.6726
50.6725
50.6725
50.6725
50.6725
50.6725
50.6726
50.6726
50.6727
50.6728
50.6729
50.6731
50.6732
50.6733
50.6734
50.6736
50.6736
50.6737
50.6738
50.6738
50.6738
50.6738
50.6737
50.6737
50.6735
50.6734
50.6732
50.673
50.6727
50.6724
50.6721
50.6717
50.6713
50.6708
50.6704
50.6699
50.6694
50.6688
50.6682
50.6677
50.6671
50.6665
50.6658
50.6652
50.6646
50.664
50.6634
50.6627
50.6621
50.6615
50.6608
50.6602
50.6595
50.6588
50.6581
50.6574
50.6566
50.6558
50.655
50.6542
50.6534
50.6525
50.6517
50.6508
50.65
50.6492
50.6484
50.6476
50.6468
50.646
50.6452
50.6445
50.6437
50.643
50.6423
50.6416
50.641
50.6405
50.6401
50.6388
50.644
50.609
50.6093
50.6095
50.6098
50.6101
50.6104
50.6107
50.6112
50.6117
50.6123
50.613
50.6136
50.6142
50.6147
50.6152
50.6157
50.6162
50.6166
50.617
50.6174
50.6178
50.6182
50.6186
50.619
50.6194
50.6197
50.6201
50.6204
50.6208
50.6211
50.6215
50.6219
50.6223
50.6227
50.6231
50.6235
50.624
50.6245
50.625
50.6255
50.6261
50.6267
50.6273
50.6279
50.6285
50.6292
50.6299
50.6306
50.6313
50.6321
50.6328
50.6335
50.6343
50.635
50.6358
50.6365
50.6372
50.638
50.6387
50.6394
50.6401
50.6407
50.6414
50.6421
50.6427
50.6434
50.644
50.6446
50.6453
50.6459
50.6465
50.6472
50.6479
50.6485
50.6492
50.6499
50.6507
50.6514
50.6522
50.653
50.6539
50.6547
50.6556
50.6565
50.6575
50.6584
50.6594
50.6603
50.6613
50.6622
50.6632
50.6641
50.665
50.6659
50.6668
50.6676
50.6683
50.669
50.6697
50.6703
50.6708
50.6713
50.6717
50.6721
50.6724
50.6726
50.6728
50.6729
50.673
50.6731
50.6731
50.6731
50.673
50.673
50.6729
50.6728
50.6727
50.6727
50.6726
50.6725
50.6725
50.6725
50.6724
50.6725
50.6725
50.6725
50.6726
50.6727
50.6728
50.6729
50.673
50.6732
50.6733
50.6734
50.6735
50.6736
50.6737
50.6737
50.6738
50.6738
50.6738
50.6737
50.6736
50.6735
50.6733
50.6732
50.6729
50.6727
50.6724
50.672
50.6717
50.6712
50.6708
50.6703
50.6698
50.6693
50.6688
50.6682
50.6676
50.667
50.6664
50.6658
50.6652
50.6646
50.6639
50.6633
50.6627
50.6621
50.6614
50.6608
50.6601
50.6595
50.6588
50.6581
50.6573
50.6566
50.6558
50.655
50.6541
50.6533
50.6525
50.6516
50.6508
50.65
50.6491
50.6483
50.6475
50.6467
50.646
50.6452
50.6444
50.6437
50.643
50.6423
50.6416
50.641
50.6404
50.6401
50.6382
50.6492
50.6537
50.6599
50.6604
50.6585
50.6568
50.6549
50.653
50.6518
50.6535
50.6539
50.6498
50.6404
50.6303
50.6225
50.6154
50.609
50.607
50.6143
50.6261
50.6262
50.6504
50.6534
50.6531
50.6514
50.6497
50.6479
50.646
50.645
50.647
50.6473
50.642
50.6316
50.6221
50.6147
50.608
50.6023
50.6006
50.6098
50.6202
50.6168
50.6397
50.6396
50.6385
50.6365
50.6339
50.6305
50.6265
50.6216
50.6155
50.6091
50.6026
50.5962
50.5891
50.5806
50.5711
50.561
50.5499
50.5372
50.5247
50.5138
50.6188
50.616
50.6168
50.618
50.6168
50.6132
50.6084
50.6017
50.5961
50.589
50.5829
50.5761
50.57
50.5639
50.5583
50.5534
50.5494
50.5457
50.543
50.5409
50.6096
50.5983
50.594
50.5933
50.5911
50.5864
50.5803
50.5727
50.5656
50.5573
50.5497
50.5416
50.5343
50.5269
50.5206
50.5145
50.5096
50.5051
50.5018
50.5001
50.5536
50.5251
50.5349
50.5388
50.532
50.528
50.5279
50.5281
50.5278
50.5271
50.527
50.5275
50.5277
50.5274
50.5268
50.5265
50.5265
50.5265
50.5265
50.5265
50.5264
50.5265
50.5268
50.5272
50.5276
50.5271
50.5194
50.4853
50.4456
50.4324
50.4363
50.4671
50.5216
50.5509
50.5602
50.5606
50.5554
50.5484
50.5446
50.5428
50.5422
50.5421
50.5424
50.5429
50.5434
50.5441
50.5447
50.5454
50.5461
50.5469
50.5477
50.5485
50.5493
50.5501
50.5509
50.5518
50.5526
50.5534
50.5542
50.555
50.5558
50.5565
50.5573
50.558
50.5587
50.5594
50.56
50.5606
50.5612
50.5617
50.5623
50.5627
50.5632
50.5636
50.564
50.5644
50.5647
50.565
50.5653
50.5656
50.5658
50.566
50.5663
50.5664
50.5666
50.5668
50.567
50.5672
50.5673
50.5675
50.5677
50.5679
50.5681
50.5684
50.5686
50.5689
50.5692
50.5695
50.5699
50.5703
50.5707
50.5711
50.5716
50.5721
50.5726
50.5731
50.5737
50.5743
50.5749
50.5755
50.5761
50.5767
50.5773
50.578
50.5786
50.5792
50.5798
50.5804
50.581
50.5816
50.5821
50.5826
50.5831
50.5835
50.5839
50.5843
50.5846
50.5849
50.5852
50.5854
50.5856
50.5857
50.5858
50.5859
50.5859
50.5859
50.5859
50.5858
50.5858
50.5857
50.5856
50.5854
50.5853
50.5851
50.585
50.5848
50.5847
50.5845
50.5844
50.5842
50.5841
50.584
50.584
50.5839
50.5839
50.5839
50.5839
50.584
50.5841
50.5842
50.5844
50.5845
50.5847
50.5849
50.5852
50.5854
50.5857
50.5859
50.5861
50.5864
50.5866
50.5868
50.587
50.5871
50.5872
50.5873
50.5874
50.5874
50.5874
50.5874
50.5873
50.5873
50.5871
50.587
50.5869
50.5867
50.5865
50.5863
50.5861
50.5859
50.5857
50.5854
50.5851
50.5849
50.5846
50.5843
50.584
50.5838
50.5824
50.5902
50.5488
50.5244
50.5347
50.5378
50.531
50.5272
50.5268
50.5269
50.5265
50.5259
50.5258
50.5261
50.5262
50.5259
50.5254
50.5252
50.5252
50.5251
50.5251
50.525
50.525
50.5251
50.5255
50.526
50.5266
50.5266
50.5228
50.5073
50.4929
50.4887
50.4908
50.5025
50.5223
50.5341
50.5393
50.5409
50.5414
50.5413
50.5411
50.5412
50.5415
50.5418
50.5423
50.5428
50.5434
50.5441
50.5447
50.5454
50.5462
50.5469
50.5477
50.5485
50.5493
50.5501
50.551
50.5518
50.5526
50.5534
50.5542
50.555
50.5558
50.5566
50.5573
50.558
50.5587
50.5594
50.56
50.5607
50.5612
50.5618
50.5623
50.5628
50.5632
50.5637
50.5641
50.5644
50.5648
50.5651
50.5654
50.5656
50.5659
50.5661
50.5663
50.5665
50.5667
50.5669
50.567
50.5672
50.5674
50.5676
50.5678
50.568
50.5682
50.5684
50.5687
50.569
50.5693
50.5696
50.5699
50.5703
50.5707
50.5712
50.5716
50.5721
50.5726
50.5732
50.5737
50.5743
50.5749
50.5755
50.5761
50.5768
50.5774
50.578
50.5786
50.5793
50.5799
50.5805
50.5811
50.5816
50.5822
50.5827
50.5831
50.5836
50.584
50.5844
50.5847
50.585
50.5852
50.5854
50.5856
50.5858
50.5859
50.5859
50.5859
50.586
50.5859
50.5859
50.5858
50.5857
50.5856
50.5855
50.5853
50.5852
50.585
50.5849
50.5847
50.5846
50.5844
50.5843
50.5842
50.5841
50.584
50.5839
50.5839
50.5839
50.584
50.584
50.5841
50.5842
50.5844
50.5846
50.5848
50.585
50.5852
50.5854
50.5857
50.5859
50.5862
50.5864
50.5866
50.5868
50.587
50.5872
50.5873
50.5874
50.5874
50.5875
50.5875
50.5874
50.5874
50.5873
50.5872
50.5871
50.5869
50.5868
50.5866
50.5864
50.5862
50.5859
50.5857
50.5855
50.5852
50.5849
50.5846
50.5843
50.584
50.5838
50.5828
50.5859
50.4938
50.505
50.5117
50.512
50.5107
50.5101
50.51
50.5099
50.5096
50.5095
50.5093
50.5091
50.5088
50.5085
50.5083
50.5082
50.5082
50.5083
50.5092
50.5123
50.5176
50.5219
50.525
50.527
50.5282
50.5292
50.53
50.5307
50.5315
50.5326
50.534
50.5355
50.5366
50.5374
50.5381
50.5385
50.5389
50.5394
50.5398
50.5404
50.5409
50.5415
50.5421
50.5427
50.5433
50.544
50.5447
50.5454
50.5462
50.5469
50.5477
50.5485
50.5493
50.5501
50.551
50.5518
50.5526
50.5534
50.5542
50.555
50.5558
50.5566
50.5573
50.558
50.5587
50.5594
50.56
50.5607
50.5612
50.5618
50.5623
50.5628
50.5632
50.5637
50.5641
50.5644
50.5648
50.5651
50.5654
50.5656
50.5659
50.5661
50.5663
50.5665
50.5667
50.5669
50.567
50.5672
50.5674
50.5676
50.5678
50.568
50.5682
50.5684
50.5687
50.569
50.5693
50.5696
50.5699
50.5703
50.5707
50.5712
50.5716
50.5721
50.5726
50.5732
50.5737
50.5743
50.5749
50.5755
50.5761
50.5768
50.5774
50.578
50.5786
50.5793
50.5799
50.5805
50.5811
50.5816
50.5822
50.5827
50.5831
50.5836
50.584
50.5844
50.5847
50.585
50.5852
50.5854
50.5856
50.5858
50.5859
50.5859
50.5859
50.586
50.5859
50.5859
50.5858
50.5857
50.5856
50.5855
50.5853
50.5852
50.585
50.5849
50.5847
50.5846
50.5844
50.5843
50.5842
50.5841
50.584
50.5839
50.5839
50.5839
50.584
50.584
50.5841
50.5842
50.5844
50.5846
50.5848
50.585
50.5852
50.5854
50.5857
50.5859
50.5862
50.5864
50.5866
50.5868
50.587
50.5872
50.5873
50.5874
50.5874
50.5875
50.5875
50.5874
50.5874
50.5873
50.5872
50.5871
50.5869
50.5868
50.5866
50.5864
50.5862
50.5859
50.5857
50.5854
50.5852
50.5849
50.5846
50.5843
50.5841
50.5838
50.5836
50.5833
50.5327
50.5307
50.53
50.5287
50.5276
50.5273
50.5272
50.5271
50.5269
50.5268
50.5267
50.5266
50.5264
50.5263
50.5262
50.5262
50.5262
50.5262
50.5261
50.526
50.526
50.5261
50.5258
50.5252
50.5251
50.5255
50.5256
50.5241
50.5213
50.5205
50.5213
50.5235
50.5292
50.5344
50.5376
50.5392
50.54
50.5405
50.5408
50.541
50.5413
50.5417
50.5422
50.5428
50.5434
50.544
50.5447
50.5454
50.5462
50.5469
50.5477
50.5485
50.5493
50.5501
50.551
50.5518
50.5526
50.5534
50.5542
50.555
50.5558
50.5566
50.5573
50.558
50.5587
50.5594
50.56
50.5607
50.5612
50.5618
50.5623
50.5628
50.5632
50.5637
50.5641
50.5644
50.5648
50.5651
50.5654
50.5656
50.5659
50.5661
50.5663
50.5665
50.5667
50.5669
50.567
50.5672
50.5674
50.5676
50.5678
50.568
50.5682
50.5684
50.5687
50.569
50.5693
50.5696
50.5699
50.5703
50.5707
50.5712
50.5716
50.5721
50.5726
50.5732
50.5737
50.5743
50.5749
50.5755
50.5761
50.5768
50.5774
50.578
50.5786
50.5793
50.5799
50.5805
50.5811
50.5816
50.5822
50.5827
50.5831
50.5836
50.584
50.5844
50.5847
50.585
50.5852
50.5854
50.5856
50.5858
50.5859
50.5859
50.5859
50.586
50.5859
50.5859
50.5858
50.5857
50.5856
50.5855
50.5853
50.5852
50.585
50.5849
50.5847
50.5846
50.5844
50.5843
50.5842
50.5841
50.584
50.5839
50.5839
50.5839
50.584
50.584
50.5841
50.5842
50.5844
50.5846
50.5848
50.585
50.5852
50.5854
50.5857
50.5859
50.5862
50.5864
50.5866
50.5868
50.587
50.5872
50.5873
50.5874
50.5874
50.5875
50.5875
50.5874
50.5874
50.5873
50.5872
50.5871
50.5869
50.5868
50.5866
50.5864
50.5862
50.5859
50.5857
50.5854
50.5852
50.5849
50.5846
50.5843
50.5841
50.5838
50.584
50.5827
50.5185
50.5221
50.5222
50.5212
50.5201
50.5198
50.5197
50.5196
50.5194
50.5193
50.5192
50.519
50.5188
50.5187
50.5186
50.5185
50.5184
50.5183
50.5183
50.5181
50.5176
50.5173
50.5177
50.5188
50.521
50.5222
50.5211
50.5095
50.4861
50.4735
50.471
50.4736
50.4857
50.5048
50.5185
50.5275
50.533
50.5363
50.5383
50.5396
50.5406
50.5413
50.542
50.5426
50.5433
50.544
50.5447
50.5454
50.5461
50.5469
50.5477
50.5485
50.5493
50.5501
50.5509
50.5518
50.5526
50.5534
50.5542
50.555
50.5558
50.5565
50.5573
50.558
50.5587
50.5594
50.56
50.5606
50.5612
50.5617
50.5623
50.5627
50.5632
50.5636
50.564
50.5644
50.5647
50.565
50.5653
50.5656
50.5658
50.566
50.5663
50.5664
50.5666
50.5668
50.567
50.5672
50.5673
50.5675
50.5677
50.5679
50.5681
50.5684
50.5686
50.5689
50.5692
50.5695
50.5699
50.5703
50.5707
50.5711
50.5716
50.5721
50.5726
50.5731
50.5737
50.5743
50.5749
50.5755
50.5761
50.5767
50.5773
50.578
50.5786
50.5792
50.5798
50.5804
50.581
50.5816
50.5821
50.5826
50.5831
50.5835
50.5839
50.5843
50.5846
50.5849
50.5852
50.5854
50.5856
50.5857
50.5858
50.5859
50.5859
50.5859
50.5859
50.5858
50.5858
50.5857
50.5856
50.5854
50.5853
50.5851
50.585
50.5848
50.5847
50.5845
50.5844
50.5842
50.5841
50.584
50.584
50.5839
50.5839
50.5839
50.5839
50.584
50.5841
50.5842
50.5844
50.5845
50.5847
50.5849
50.5852
50.5854
50.5857
50.5859
50.5861
50.5864
50.5866
50.5868
50.587
50.5871
50.5872
50.5873
50.5874
50.5874
50.5874
50.5874
50.5873
50.5873
50.5871
50.587
50.5869
50.5867
50.5865
50.5863
50.5861
50.5859
50.5857
50.5854
50.5851
50.5849
50.5846
50.5843
50.584
50.5838
50.5839
50.5824
50.5562
50.5443
50.54
50.539
50.5367
50.532
50.5256
50.519
50.5115
50.5042
50.4965
50.4888
50.4818
50.4749
50.4689
50.4632
50.4584
50.454
50.4507
50.449
50.5644
50.5615
50.5619
50.563
50.5617
50.5582
50.5525
50.5476
50.5408
50.5353
50.5285
50.5224
50.5162
50.5104
50.5057
50.5012
50.4971
50.4936
50.4909
50.4886
50.5838
50.5837
50.5827
50.5808
50.5782
50.575
50.5711
50.5661
50.5607
50.5549
50.5491
50.5424
50.5346
50.5258
50.5163
50.5057
50.4939
50.4826
50.4724
50.4642
50.5936
50.5967
50.5966
50.595
50.5936
50.5923
50.5913
50.5918
50.5914
50.5872
50.5787
50.5711
50.5651
50.5596
50.5554
50.5565
50.5679
50.5755
50.5736
50.5582
50.5968
50.603
50.6037
50.602
50.6004
50.599
50.5981
50.5982
50.5979
50.5944
50.5866
50.5786
50.5722
50.5664
50.5617
50.5627
50.5725
50.5811
50.5827
50.57
50.4686
50.4725
50.4721
50.4709
50.4702
50.4698
50.4697
50.4695
50.4694
50.4693
50.4692
50.469
50.4689
50.4688
50.4688
50.4689
50.4689
50.4689
50.4688
50.4687
50.4683
50.4679
50.4679
50.4683
50.4698
50.4714
50.4716
50.4673
50.4478
50.4274
50.4192
50.4188
50.4237
50.4402
50.4568
50.4678
50.4746
50.4786
50.4807
50.4819
50.4824
50.4826
50.4827
50.4827
50.4826
50.4826
50.4826
50.4825
50.4825
50.4825
50.4825
50.4825
50.4826
50.4826
50.4827
50.4827
50.4828
50.4829
50.483
50.4831
50.4832
50.4833
50.4834
50.4835
50.4836
50.4837
50.4838
50.4839
50.484
50.4841
50.4841
50.4842
50.4842
50.4841
50.4841
50.484
50.484
50.4839
50.4837
50.4836
50.4835
50.4833
50.4831
50.4829
50.4828
50.4826
50.4824
50.4822
50.482
50.4818
50.4816
50.4814
50.4811
50.4809
50.4807
50.4805
50.4803
50.4802
50.4789
50.4864
50.4825
50.4809
50.4798
50.4783
50.4776
50.4772
50.477
50.4768
50.4767
50.4766
50.4766
50.4765
50.4763
50.4763
50.4763
50.4764
50.4765
50.4766
50.4765
50.4763
50.4761
50.4761
50.476
50.4755
50.475
50.4749
50.475
50.4743
50.4714
50.4692
50.4689
50.4697
50.4726
50.478
50.4817
50.4835
50.4842
50.4843
50.4842
50.4838
50.4835
50.4832
50.483
50.4829
50.4828
50.4827
50.4826
50.4826
50.4826
50.4826
50.4826
50.4826
50.4826
50.4826
50.4827
50.4828
50.4828
50.4829
50.483
50.4831
50.4832
50.4833
50.4835
50.4836
50.4837
50.4838
50.4839
50.484
50.4841
50.4841
50.4842
50.4842
50.4842
50.4842
50.4841
50.4841
50.484
50.4839
50.4838
50.4837
50.4835
50.4833
50.4832
50.483
50.4828
50.4826
50.4824
50.4822
50.482
50.4818
50.4816
50.4814
50.4812
50.481
50.4808
50.4805
50.4803
50.4802
50.4793
50.4822
50.4463
50.4557
50.4616
50.4619
50.461
50.4605
50.4603
50.4602
50.46
50.4599
50.4597
50.4596
50.4594
50.4593
50.459
50.4587
50.4586
50.4587
50.4589
50.4603
50.4646
50.4694
50.4729
50.4752
50.4766
50.4775
50.4781
50.4785
50.479
50.4796
50.4804
50.4816
50.4826
50.4831
50.4833
50.4834
50.4833
50.4832
50.4831
50.483
50.4829
50.4828
50.4828
50.4827
50.4827
50.4826
50.4826
50.4826
50.4826
50.4826
50.4826
50.4826
50.4826
50.4826
50.4827
50.4828
50.4828
50.4829
50.483
50.4831
50.4832
50.4833
50.4835
50.4836
50.4837
50.4838
50.4839
50.484
50.4841
50.4841
50.4842
50.4842
50.4842
50.4842
50.4841
50.4841
50.484
50.4839
50.4838
50.4836
50.4835
50.4833
50.4832
50.483
50.4828
50.4826
50.4824
50.4822
50.482
50.4818
50.4816
50.4814
50.4812
50.481
50.4808
50.4806
50.4804
50.4802
50.48
50.4799
50.4806
50.4718
50.4881
50.4879
50.4796
50.477
50.477
50.4768
50.4761
50.4757
50.4759
50.4764
50.4763
50.4757
50.4753
50.4752
50.4754
50.4755
50.4756
50.4755
50.4749
50.4747
50.4748
50.475
50.4754
50.4757
50.4746
50.4666
50.4486
50.4384
50.437
50.441
50.4574
50.4744
50.4828
50.4858
50.4863
50.4859
50.4849
50.4842
50.4837
50.4834
50.4831
50.483
50.4828
50.4827
50.4827
50.4826
50.4826
50.4826
50.4826
50.4826
50.4826
50.4827
50.4827
50.4828
50.4828
50.4829
50.483
50.4831
50.4832
50.4833
50.4835
50.4836
50.4837
50.4838
50.4839
50.484
50.4841
50.4841
50.4842
50.4842
50.4842
50.4842
50.4841
50.4841
50.484
50.4839
50.4838
50.4836
50.4835
50.4833
50.4832
50.483
50.4828
50.4826
50.4824
50.4822
50.482
50.4818
50.4816
50.4814
50.4812
50.481
50.4808
50.4806
50.4804
50.4802
50.4805
50.4794
50.4858
50.472
50.4886
50.4887
50.4804
50.4779
50.4781
50.4781
50.4773
50.4768
50.4771
50.4779
50.4778
50.4771
50.4766
50.4765
50.4766
50.4768
50.4771
50.4773
50.4769
50.4764
50.4763
50.4764
50.4766
50.4767
50.4747
50.4608
50.4195
50.39
50.3841
50.3927
50.4344
50.4801
50.5007
50.5054
50.5038
50.4966
50.4903
50.4868
50.4849
50.4839
50.4834
50.483
50.4829
50.4827
50.4826
50.4826
50.4825
50.4825
50.4825
50.4825
50.4826
50.4826
50.4827
50.4827
50.4828
50.4829
50.483
50.4831
50.4832
50.4833
50.4834
50.4835
50.4836
50.4837
50.4838
50.4839
50.484
50.4841
50.4841
50.4842
50.4842
50.4841
50.4841
50.484
50.484
50.4839
50.4837
50.4836
50.4835
50.4833
50.4831
50.4829
50.4828
50.4826
50.4824
50.4822
50.482
50.4818
50.4816
50.4814
50.4811
50.4809
50.4807
50.4805
50.4803
50.4802
50.4805
50.4792
50.4529
50.4409
50.4365
50.4356
50.4333
50.4286
50.4222
50.4156
50.4081
50.4007
50.393
50.3853
50.3783
50.3714
50.3654
50.3596
50.3549
50.3504
50.347
50.3453
50.4611
50.4581
50.4586
50.4596
50.4584
50.4549
50.4492
50.4442
50.4375
50.432
50.4252
50.4191
50.4129
50.407
50.4023
50.3977
50.3937
50.3901
50.3874
50.3851
50.4805
50.4804
50.4794
50.4775
50.4749
50.4717
50.4679
50.4628
50.4574
50.4516
50.4458
50.4392
50.4313
50.4226
50.4131
50.4025
50.3907
50.3794
50.3692
50.361
50.4902
50.4934
50.4933
50.4917
50.4903
50.489
50.4881
50.4885
50.4882
50.4841
50.4756
50.4681
50.462
50.4565
50.4522
50.4532
50.4645
50.4722
50.4702
50.455
50.4934
50.4997
50.5004
50.4987
50.4972
50.4958
50.4949
50.495
50.4947
50.4912
50.4836
50.4756
50.4691
50.4633
50.4585
50.4593
50.4691
50.4779
50.4793
50.4668
50.3649
50.369
50.3688
50.3678
50.367
50.3666
50.3665
50.3663
50.3662
50.3662
50.366
50.3658
50.3656
50.3655
50.3653
50.3652
50.365
50.3648
50.3645
50.3641
50.3634
50.3632
50.3636
50.3647
50.3663
50.3666
50.3632
50.3456
50.3246
50.3156
50.3148
50.3191
50.335
50.3518
50.3631
50.37
50.3741
50.3763
50.3775
50.3781
50.3784
50.3785
50.3786
50.3787
50.3787
50.3788
50.3789
50.3789
50.379
50.3791
50.3792
50.3793
50.3794
50.3795
50.3796
50.3797
50.3798
50.3799
50.38
50.38
50.3801
50.3802
50.3802
50.3803
50.3803
50.3803
50.3804
50.3804
50.3804
50.3803
50.3803
50.3803
50.3802
50.3802
50.3801
50.38
50.3799
50.3798
50.3797
50.3796
50.3795
50.3793
50.3792
50.3791
50.3789
50.3788
50.3787
50.3785
50.3784
50.3783
50.3782
50.3782
50.3781
50.378
50.378
50.378
50.378
50.378
50.3781
50.3781
50.3782
50.3783
50.3785
50.3786
50.3788
50.3789
50.3791
50.3793
50.3795
50.3798
50.38
50.3802
50.3805
50.3807
50.3809
50.3812
50.3814
50.3816
50.3818
50.382
50.3822
50.3824
50.3826
50.3827
50.3829
50.383
50.3831
50.3833
50.3834
50.3835
50.3836
50.3838
50.3839
50.384
50.3842
50.3843
50.3845
50.3847
50.3849
50.3851
50.3853
50.3856
50.3859
50.3862
50.3865
50.3868
50.3872
50.3876
50.388
50.3885
50.3889
50.3894
50.3899
50.3905
50.391
50.3916
50.3921
50.3927
50.3933
50.3939
50.3945
50.395
50.3956
50.3961
50.3966
50.3971
50.3975
50.3979
50.3982
50.3985
50.3988
50.399
50.3992
50.3994
50.3995
50.3996
50.3996
50.3997
50.3997
50.3997
50.3997
50.3997
50.3998
50.3998
50.3998
50.3999
50.3999
50.4
50.4001
50.4002
50.4003
50.4005
50.4007
50.4009
50.4012
50.4015
50.4019
50.4024
50.4033
50.4024
50.3788
50.3774
50.3765
50.3752
50.3745
50.374
50.3738
50.3737
50.3735
50.3735
50.3734
50.3732
50.373
50.3729
50.3728
50.3727
50.3727
50.3725
50.3722
50.3719
50.3718
50.3716
50.371
50.3703
50.3702
50.3702
50.3697
50.3672
50.365
50.3647
50.3655
50.3683
50.3735
50.3771
50.379
50.3796
50.3798
50.3797
50.3794
50.3791
50.379
50.3789
50.3788
50.3788
50.3788
50.3789
50.3789
50.379
50.3791
50.3792
50.3793
50.3794
50.3795
50.3796
50.3797
50.3797
50.3798
50.3799
50.38
50.3801
50.3801
50.3802
50.3803
50.3803
50.3803
50.3804
50.3804
50.3804
50.3804
50.3804
50.3804
50.3803
50.3803
50.3802
50.3802
50.3801
50.38
50.3799
50.3798
50.3796
50.3795
50.3794
50.3792
50.3791
50.379
50.3788
50.3787
50.3786
50.3785
50.3784
50.3783
50.3782
50.3781
50.3781
50.378
50.378
50.378
50.3781
50.3781
50.3782
50.3783
50.3784
50.3785
50.3787
50.3788
50.379
50.3792
50.3794
50.3796
50.3798
50.38
50.3803
50.3805
50.3807
50.381
50.3812
50.3814
50.3817
50.3819
50.3821
50.3823
50.3824
50.3826
50.3828
50.3829
50.3831
50.3832
50.3833
50.3834
50.3836
50.3837
50.3838
50.3839
50.3841
50.3842
50.3844
50.3845
50.3847
50.3849
50.3851
50.3854
50.3856
50.3859
50.3862
50.3865
50.3869
50.3872
50.3876
50.388
50.3885
50.389
50.3895
50.39
50.3905
50.3911
50.3916
50.3922
50.3928
50.3934
50.3939
50.3945
50.3951
50.3956
50.3961
50.3966
50.3971
50.3975
50.3979
50.3983
50.3986
50.3988
50.3991
50.3992
50.3994
50.3995
50.3996
50.3997
50.3997
50.3997
50.3998
50.3998
50.3998
50.3998
50.3998
50.3999
50.3999
50.4
50.4
50.4001
50.4002
50.4004
50.4005
50.4007
50.401
50.4012
50.4015
50.402
50.4024
50.4033
50.4026
50.3425
50.3525
50.3586
50.359
50.3582
50.3576
50.3575
50.3573
50.357
50.3567
50.3564
50.3561
50.3558
50.3555
50.3552
50.355
50.3549
50.3549
50.3556
50.3589
50.3637
50.3675
50.3701
50.3717
50.3727
50.3733
50.3738
50.3743
50.3748
50.3757
50.3769
50.3778
50.3784
50.3787
50.3787
50.3787
50.3786
50.3786
50.3786
50.3786
50.3786
50.3786
50.3787
50.3787
50.3788
50.3788
50.3789
50.379
50.3791
50.3792
50.3793
50.3794
50.3795
50.3796
50.3797
50.3797
50.3798
50.3799
50.38
50.3801
50.3801
50.3802
50.3803
50.3803
50.3803
50.3804
50.3804
50.3804
50.3804
50.3804
50.3804
50.3803
50.3803
50.3802
50.3802
50.3801
50.38
50.3799
50.3798
50.3796
50.3795
50.3794
50.3792
50.3791
50.379
50.3788
50.3787
50.3786
50.3785
50.3784
50.3783
50.3782
50.3781
50.3781
50.378
50.378
50.378
50.3781
50.3781
50.3782
50.3783
50.3784
50.3785
50.3787
50.3788
50.379
50.3792
50.3794
50.3796
50.3798
50.38
50.3803
50.3805
50.3807
50.381
50.3812
50.3814
50.3817
50.3819
50.3821
50.3823
50.3824
50.3826
50.3828
50.3829
50.3831
50.3832
50.3833
50.3834
50.3836
50.3837
50.3838
50.3839
50.3841
50.3842
50.3844
50.3845
50.3847
50.3849
50.3851
50.3854
50.3856
50.3859
50.3862
50.3865
50.3869
50.3872
50.3876
50.388
50.3885
50.389
50.3895
50.39
50.3905
50.3911
50.3916
50.3922
50.3928
50.3934
50.3939
50.3945
50.3951
50.3956
50.3961
50.3966
50.3971
50.3975
50.3979
50.3983
50.3986
50.3988
50.3991
50.3992
50.3994
50.3995
50.3996
50.3997
50.3997
50.3997
50.3998
50.3998
50.3998
50.3998
50.3998
50.3999
50.3999
50.4
50.4
50.4001
50.4002
50.4004
50.4005
50.4007
50.401
50.4012
50.4016
50.4019
50.4023
50.4029
50.4034
50.3762
50.3685
50.3846
50.3838
50.3761
50.3739
50.3738
50.3735
50.3728
50.3725
50.3727
50.373
50.3728
50.3721
50.3716
50.3715
50.3715
50.3715
50.3713
50.3709
50.3706
50.3705
50.3707
50.3709
50.3711
50.3702
50.3631
50.3457
50.3352
50.3335
50.3371
50.3528
50.3695
50.3779
50.381
50.3815
50.3812
50.3804
50.3797
50.3794
50.3791
50.379
50.3789
50.3788
50.3789
50.3789
50.3789
50.379
50.3791
50.3792
50.3793
50.3794
50.3795
50.3796
50.3797
50.3797
50.3798
50.3799
50.38
50.3801
50.3801
50.3802
50.3803
50.3803
50.3803
50.3804
50.3804
50.3804
50.3804
50.3804
50.3804
50.3803
50.3803
50.3802
50.3802
50.3801
50.38
50.3799
50.3798
50.3796
50.3795
50.3794
50.3792
50.3791
50.379
50.3788
50.3787
50.3786
50.3785
50.3784
50.3783
50.3782
50.3781
50.3781
50.378
50.378
50.378
50.3781
50.3781
50.3782
50.3783
50.3784
50.3785
50.3787
50.3788
50.379
50.3792
50.3794
50.3796
50.3798
50.38
50.3803
50.3805
50.3807
50.381
50.3812
50.3814
50.3817
50.3819
50.3821
50.3823
50.3824
50.3826
50.3828
50.3829
50.3831
50.3832
50.3833
50.3834
50.3836
50.3837
50.3838
50.3839
50.3841
50.3842
50.3844
50.3845
50.3847
50.3849
50.3851
50.3854
50.3856
50.3859
50.3862
50.3865
50.3869
50.3872
50.3876
50.388
50.3885
50.389
50.3895
50.39
50.3905
50.3911
50.3916
50.3922
50.3928
50.3934
50.3939
50.3945
50.3951
50.3956
50.3961
50.3966
50.3971
50.3975
50.3979
50.3983
50.3986
50.3988
50.3991
50.3992
50.3994
50.3995
50.3996
50.3997
50.3997
50.3997
50.3998
50.3998
50.3998
50.3998
50.3998
50.3999
50.3999
50.4
50.4
50.4001
50.4002
50.4004
50.4005
50.4007
50.401
50.4012
50.4016
50.4019
50.4023
50.4021
50.4061
50.3812
50.3686
50.3852
50.3845
50.3768
50.3748
50.3748
50.3746
50.3739
50.3736
50.3739
50.3745
50.3743
50.3735
50.3729
50.3728
50.3728
50.3729
50.3727
50.3724
50.3721
50.3719
50.372
50.3721
50.3721
50.3704
50.3578
50.3181
50.288
50.2816
50.2896
50.3297
50.3748
50.3952
50.3999
50.3984
50.3916
50.3855
50.3822
50.3805
50.3796
50.3792
50.379
50.3789
50.3788
50.3789
50.3789
50.379
50.379
50.3791
50.3792
50.3793
50.3794
50.3795
50.3796
50.3797
50.3798
50.3799
50.38
50.38
50.3801
50.3802
50.3802
50.3803
50.3803
50.3803
50.3804
50.3804
50.3804
50.3803
50.3803
50.3803
50.3802
50.3802
50.3801
50.38
50.3799
50.3798
50.3797
50.3796
50.3795
50.3793
50.3792
50.3791
50.3789
50.3788
50.3787
50.3785
50.3784
50.3783
50.3782
50.3782
50.3781
50.378
50.378
50.378
50.378
50.378
50.3781
50.3781