/*--------------------------------*- C++ -*----------------------------------*\
| =========                 |                                                 |
| \\      /  F ield         | OpenFOAM: The Open Source CFD Toolbox           |
|  \\    /   O peration     | Version:  3.0.x                                 |
|   \\  /    A nd           | Web:      www.OpenFOAM.org                      |
|    \\/     M anipulation  |                                                 |
\*---------------------------------------------------------------------------*/
FoamFile
{
    version     2.0;
    format      ascii;
    class       volVectorField;
    location    "0.14";
    object      U;
}
// * * * * * * * * * * * * * * * * * * * * * * * * * * * * * * * * * * * * * //

dimensions      [0 1 -1 0 0 0 0];

internalField   nonuniform List<vector> 
6900
(
(42.69 0.000101757 0)
(42.6686 9.30921e-05 0)
(42.6449 9.06084e-05 0)
(42.6225 9.14795e-05 0)
(42.6008 9.22042e-05 0)
(42.5793 9.26362e-05 0)
(42.5579 9.29675e-05 0)
(42.5368 9.3268e-05 0)
(42.516 9.34552e-05 0)
(42.4956 9.36124e-05 0)
(42.4757 9.36548e-05 0)
(42.4562 9.35693e-05 0)
(42.4373 9.32744e-05 0)
(42.4191 9.26628e-05 0)
(42.4014 9.16247e-05 0)
(42.3844 8.99552e-05 0)
(42.3682 8.75468e-05 0)
(42.3527 8.42479e-05 0)
(42.3379 7.99816e-05 0)
(42.324 7.47437e-05 0)
(42.3109 6.86181e-05 0)
(42.2986 6.17758e-05 0)
(42.2871 5.44595e-05 0)
(42.2763 4.69553e-05 0)
(42.2663 3.95593e-05 0)
(42.257 3.25427e-05 0)
(42.2484 2.61255e-05 0)
(42.2403 2.04599e-05 0)
(42.2327 1.56248e-05 0)
(42.2255 1.16314e-05 0)
(42.2187 8.43604e-06 0)
(42.2121 5.95618e-06 0)
(42.2058 4.08771e-06 0)
(42.1995 2.71973e-06 0)
(42.1933 1.74584e-06 0)
(42.1871 1.07138e-06 0)
(42.1808 6.16696e-07 0)
(42.1744 3.17457e-07 0)
(42.1679 1.22061e-07 0)
(42.1611 1.34376e-09 0)
(42.1541 -7.11857e-08 0)
(42.1468 -1.15242e-07 0)
(42.1393 -1.41441e-07 0)
(42.1314 -1.56729e-07 0)
(42.1233 -1.65561e-07 0)
(42.1148 -1.70703e-07 0)
(42.106 -1.73824e-07 0)
(42.097 -1.75894e-07 0)
(42.0876 -1.77467e-07 0)
(42.078 -1.78836e-07 0)
(42.0682 -1.80166e-07 0)
(42.0581 -1.81556e-07 0)
(42.0479 -1.83043e-07 0)
(42.0375 -1.84659e-07 0)
(42.027 -1.86399e-07 0)
(42.0164 -1.88256e-07 0)
(42.0058 -1.9022e-07 0)
(41.9951 -1.92267e-07 0)
(41.9845 -1.94368e-07 0)
(41.9739 -1.96486e-07 0)
(41.9634 -1.98703e-07 0)
(41.953 -2.00781e-07 0)
(41.9427 -2.02522e-07 0)
(41.9325 -2.03881e-07 0)
(41.9223 -2.05208e-07 0)
(41.9124 -2.06895e-07 0)
(41.9025 -2.08765e-07 0)
(41.8927 -2.10152e-07 0)
(41.8829 -2.12216e-07 0)
(41.8733 -2.14134e-07 0)
(41.8636 -2.15529e-07 0)
(41.854 -2.16341e-07 0)
(41.8443 -2.16921e-07 0)
(41.8346 -2.17637e-07 0)
(41.8247 -2.18507e-07 0)
(41.8147 -2.19404e-07 0)
(41.8045 -2.20265e-07 0)
(41.7942 -2.21082e-07 0)
(41.7836 -2.21848e-07 0)
(41.7728 -2.22565e-07 0)
(41.7617 -2.23285e-07 0)
(41.7504 -2.24018e-07 0)
(41.7388 -2.24791e-07 0)
(41.727 -2.25665e-07 0)
(41.7149 -2.26724e-07 0)
(41.7026 -2.28163e-07 0)
(41.6901 -2.30138e-07 0)
(41.6774 -2.30748e-07 0)
(41.6646 -2.31174e-07 0)
(41.6518 -2.3251e-07 0)
(41.6389 -2.35884e-07 0)
(41.6261 -2.4037e-07 0)
(41.6133 -2.4434e-07 0)
(41.6006 -2.47673e-07 0)
(41.5882 -2.51031e-07 0)
(41.5759 -2.54759e-07 0)
(41.5639 -2.58817e-07 0)
(41.5522 -2.63074e-07 0)
(41.5408 -2.67411e-07 0)
(41.5297 -2.71728e-07 0)
(41.519 -2.75994e-07 0)
(41.5085 -2.80203e-07 0)
(41.4984 -2.84364e-07 0)
(41.4885 -2.88472e-07 0)
(41.4788 -2.92521e-07 0)
(41.4693 -2.96447e-07 0)
(41.46 -3.00231e-07 0)
(41.4507 -3.03805e-07 0)
(41.4414 -3.07116e-07 0)
(41.432 -3.09366e-07 0)
(41.4224 -3.09317e-07 0)
(41.4126 -3.18234e-07 0)
(41.4027 -3.19821e-07 0)
(41.3924 -3.20395e-07 0)
(41.3817 -3.20983e-07 0)
(41.3706 -3.21505e-07 0)
(41.3589 -3.22048e-07 0)
(41.3467 -3.22784e-07 0)
(41.334 -3.23385e-07 0)
(41.3207 -3.23566e-07 0)
(41.3067 -3.23395e-07 0)
(41.2923 -3.22937e-07 0)
(41.2772 -3.22278e-07 0)
(41.2616 -3.21037e-07 0)
(41.2455 -3.20452e-07 0)
(41.2289 -3.19309e-07 0)
(41.212 -3.18428e-07 0)
(41.1947 -3.17758e-07 0)
(41.1773 -3.17468e-07 0)
(41.1596 -3.15586e-07 0)
(41.142 -3.13237e-07 0)
(41.1243 -3.14421e-07 0)
(41.1069 -3.16743e-07 0)
(41.0898 -3.17955e-07 0)
(41.0731 -3.18394e-07 0)
(41.0569 -3.18974e-07 0)
(41.0412 -3.20212e-07 0)
(41.0262 -3.21812e-07 0)
(41.0119 -3.23645e-07 0)
(40.9984 -3.25394e-07 0)
(40.9857 -3.2756e-07 0)
(40.9738 -3.29606e-07 0)
(40.9627 -3.31575e-07 0)
(40.9524 -3.33614e-07 0)
(40.943 -3.35663e-07 0)
(40.9343 -3.37691e-07 0)
(40.9264 -3.39462e-07 0)
(40.9192 -3.41255e-07 0)
(40.9125 -3.42644e-07 0)
(40.9064 -3.43858e-07 0)
(40.9009 -3.52577e-07 0)
(40.8958 -3.52198e-07 0)
(40.8909 -3.51444e-07 0)
(40.8862 -3.53259e-07 0)
(40.8816 -3.58185e-07 0)
(40.877 -3.55966e-07 0)
(40.8723 -3.56176e-07 0)
(40.8673 -3.58811e-07 0)
(40.8619 -3.61673e-07 0)
(40.8562 -3.63142e-07 0)
(40.8499 -3.63348e-07 0)
(40.8429 -3.63151e-07 0)
(40.8353 -3.63005e-07 0)
(40.827 -3.62676e-07 0)
(40.818 -3.62129e-07 0)
(40.8083 -3.61555e-07 0)
(40.7979 -3.60877e-07 0)
(40.7868 -3.59986e-07 0)
(40.7752 -3.59192e-07 0)
(40.7632 -3.58329e-07 0)
(40.7507 -3.57413e-07 0)
(40.738 -3.56718e-07 0)
(40.7252 -3.5587e-07 0)
(40.7124 -3.55166e-07 0)
(40.6996 -3.54422e-07 0)
(40.687 -3.54124e-07 0)
(40.6746 -3.53016e-07 0)
(40.6626 -3.51816e-07 0)
(40.6509 -3.50379e-07 0)
(40.6396 -3.48759e-07 0)
(40.6286 -3.47981e-07 0)
(40.6181 -3.46121e-07 0)
(40.608 -3.46265e-07 0)
(40.5983 -3.4508e-07 0)
(40.5891 -3.45502e-07 0)
(40.5804 -3.4238e-07 0)
(40.5722 -3.45373e-07 0)
(40.5647 -3.40202e-07 0)
(40.5578 -3.4064e-07 0)
(40.5516 -3.37484e-07 0)
(40.546 -3.34079e-07 0)
(40.5411 -3.17282e-07 0)
(40.5368 -2.56688e-07 0)
(40.5328 3.67486e-07 0)
(40.5291 4.71565e-06 0)
(40.525 3.51559e-05 0)
(40.5162 0.000248055 0)
(40.4751 0.00175308 0)
(40.3019 0.0158497 0)
(37.8902 0.0815002 0)
(42.6918 0.000129048 0)
(42.6722 9.9367e-05 0)
(42.6503 8.68344e-05 0)
(42.6297 8.60603e-05 0)
(42.6098 8.59706e-05 0)
(42.5901 8.55817e-05 0)
(42.5705 8.53014e-05 0)
(42.5512 8.51865e-05 0)
(42.5322 8.50374e-05 0)
(42.5136 8.49611e-05 0)
(42.4955 8.48261e-05 0)
(42.4778 8.46229e-05 0)
(42.4607 8.42656e-05 0)
(42.4442 8.36505e-05 0)
(42.4284 8.26904e-05 0)
(42.4131 8.11629e-05 0)
(42.3986 7.90014e-05 0)
(42.3847 7.60495e-05 0)
(42.3716 7.22349e-05 0)
(42.3591 6.75489e-05 0)
(42.3474 6.20617e-05 0)
(42.3363 5.59227e-05 0)
(42.3259 4.93471e-05 0)
(42.3162 4.2591e-05 0)
(42.307 3.59208e-05 0)
(42.2984 2.95821e-05 0)
(42.2903 2.37755e-05 0)
(42.2826 1.86408e-05 0)
(42.2754 1.42523e-05 0)
(42.2685 1.06226e-05 0)
(42.2618 7.71433e-06 0)
(42.2554 5.45444e-06 0)
(42.2491 3.74961e-06 0)
(42.2429 2.49973e-06 0)
(42.2368 1.60821e-06 0)
(42.2306 9.88848e-07 0)
(42.2243 5.69219e-07 0)
(42.218 2.91569e-07 0)
(42.2114 1.12542e-07 0)
(42.2046 3.00614e-09 0)
(42.1976 -6.44847e-08 0)
(42.1904 -1.04285e-07 0)
(42.1828 -1.27051e-07 0)
(42.1749 -1.39753e-07 0)
(42.1668 -1.46614e-07 0)
(42.1583 -1.50195e-07 0)
(42.1495 -1.52006e-07 0)
(42.1404 -1.52921e-07 0)
(42.1311 -1.53452e-07 0)
(42.1215 -1.53858e-07 0)
(42.1116 -1.5432e-07 0)
(42.1016 -1.54933e-07 0)
(42.0913 -1.5574e-07 0)
(42.0809 -1.56781e-07 0)
(42.0704 -1.5803e-07 0)
(42.0598 -1.59494e-07 0)
(42.0492 -1.61152e-07 0)
(42.0386 -1.62968e-07 0)
(42.0279 -1.64919e-07 0)
(42.0174 -1.66993e-07 0)
(42.0068 -1.69278e-07 0)
(41.9964 -1.71479e-07 0)
(41.9861 -1.73382e-07 0)
(41.9758 -1.74962e-07 0)
(41.9657 -1.76571e-07 0)
(41.9557 -1.78553e-07 0)
(41.9458 -1.80588e-07 0)
(41.936 -1.81965e-07 0)
(41.9263 -1.84148e-07 0)
(41.9166 -1.85909e-07 0)
(41.907 -1.86834e-07 0)
(41.8973 -1.86995e-07 0)
(41.8876 -1.86819e-07 0)
(41.8779 -1.86695e-07 0)
(41.868 -1.8659e-07 0)
(41.858 -1.8635e-07 0)
(41.8479 -1.85947e-07 0)
(41.8375 -1.85404e-07 0)
(41.8269 -1.84714e-07 0)
(41.8161 -1.83982e-07 0)
(41.805 -1.8327e-07 0)
(41.7937 -1.82631e-07 0)
(41.7821 -1.82135e-07 0)
(41.7702 -1.81908e-07 0)
(41.7581 -1.82091e-07 0)
(41.7458 -1.82887e-07 0)
(41.7333 -1.84364e-07 0)
(41.7207 -1.8417e-07 0)
(41.7079 -1.84157e-07 0)
(41.695 -1.85757e-07 0)
(41.6821 -1.89828e-07 0)
(41.6693 -1.94938e-07 0)
(41.6565 -1.99303e-07 0)
(41.6438 -2.03152e-07 0)
(41.6314 -2.07436e-07 0)
(41.6191 -2.12438e-07 0)
(41.6071 -2.17979e-07 0)
(41.5954 -2.23893e-07 0)
(41.584 -2.30053e-07 0)
(41.5729 -2.36335e-07 0)
(41.5621 -2.42688e-07 0)
(41.5517 -2.49068e-07 0)
(41.5415 -2.55433e-07 0)
(41.5316 -2.61725e-07 0)
(41.522 -2.67898e-07 0)
(41.5125 -2.73843e-07 0)
(41.5031 -2.79527e-07 0)
(41.4938 -2.84867e-07 0)
(41.4845 -2.89731e-07 0)
(41.4751 -2.92763e-07 0)
(41.4655 -2.92372e-07 0)
(41.4557 -3.06501e-07 0)
(41.4458 -3.07968e-07 0)
(41.4355 -3.07848e-07 0)
(41.4248 -3.08171e-07 0)
(41.4136 -3.0851e-07 0)
(41.4019 -3.08775e-07 0)
(41.3897 -3.09122e-07 0)
(41.377 -3.09146e-07 0)
(41.3637 -3.08594e-07 0)
(41.3497 -3.07637e-07 0)
(41.3352 -3.06361e-07 0)
(41.3202 -3.04946e-07 0)
(41.3046 -3.02715e-07 0)
(41.2885 -3.016e-07 0)
(41.2719 -2.99736e-07 0)
(41.2549 -2.984e-07 0)
(41.2377 -2.97399e-07 0)
(41.2202 -2.96753e-07 0)
(41.2026 -2.93836e-07 0)
(41.1849 -2.90657e-07 0)
(41.1672 -2.92695e-07 0)
(41.1498 -2.9555e-07 0)
(41.1327 -2.96325e-07 0)
(41.116 -2.96316e-07 0)
(41.0997 -2.9688e-07 0)
(41.0841 -2.9852e-07 0)
(41.069 -3.00589e-07 0)
(41.0547 -3.02989e-07 0)
(41.0412 -3.05288e-07 0)
(41.0285 -3.08315e-07 0)
(41.0166 -3.1128e-07 0)
(41.0055 -3.14314e-07 0)
(40.9953 -3.17471e-07 0)
(40.9858 -3.20765e-07 0)
(40.9771 -3.2416e-07 0)
(40.9692 -3.27243e-07 0)
(40.962 -3.30402e-07 0)
(40.9553 -3.32959e-07 0)
(40.9492 -3.3572e-07 0)
(40.9436 -3.4917e-07 0)
(40.9385 -3.4796e-07 0)
(40.9337 -3.46626e-07 0)
(40.929 -3.49645e-07 0)
(40.9244 -3.5596e-07 0)
(40.9198 -3.52635e-07 0)
(40.915 -3.5321e-07 0)
(40.91 -3.56989e-07 0)
(40.9046 -3.60211e-07 0)
(40.8989 -3.61246e-07 0)
(40.8925 -3.6076e-07 0)
(40.8856 -3.59937e-07 0)
(40.878 -3.59248e-07 0)
(40.8697 -3.58354e-07 0)
(40.8607 -3.57303e-07 0)
(40.8509 -3.56378e-07 0)
(40.8405 -3.55494e-07 0)
(40.8295 -3.54551e-07 0)
(40.8179 -3.53971e-07 0)
(40.8058 -3.53534e-07 0)
(40.7933 -3.53302e-07 0)
(40.7806 -3.53545e-07 0)
(40.7678 -3.54013e-07 0)
(40.7549 -3.5423e-07 0)
(40.7422 -3.55231e-07 0)
(40.7295 -3.55395e-07 0)
(40.7172 -3.56479e-07 0)
(40.7051 -3.56376e-07 0)
(40.6934 -3.57373e-07 0)
(40.6821 -3.5644e-07 0)
(40.6711 -3.56471e-07 0)
(40.6606 -3.54024e-07 0)
(40.6504 -3.52466e-07 0)
(40.6408 -3.46334e-07 0)
(40.6315 -3.46296e-07 0)
(40.6228 -3.38676e-07 0)
(40.6147 -3.42592e-07 0)
(40.6072 -3.25828e-07 0)
(40.6003 -3.36899e-07 0)
(40.594 -3.24991e-07 0)
(40.5885 -3.17826e-07 0)
(40.5836 -2.29748e-07 0)
(40.5792 3.09314e-07 0)
(40.5752 4.11439e-06 0)
(40.5716 3.05508e-05 0)
(40.5674 0.000215012 0)
(40.5588 0.00149914 0)
(40.5187 0.0104078 0)
(40.3504 0.0747089 0)
(38.4872 0.352144 0)
(42.6917 -2.46749e-12 0)
(42.6721 -3.33735e-12 0)
(42.6502 -3.93853e-12 0)
(42.6297 -3.65241e-12 0)
(42.6098 -3.11222e-12 0)
(42.59 -3.95847e-12 0)
(42.5704 -5.77293e-12 0)
(42.5511 -6.74389e-12 0)
(42.5321 -4.97464e-12 0)
(42.5136 -3.84321e-12 0)
(42.4954 -3.45695e-12 0)
(42.4778 -5.02525e-12 0)
(42.4607 -7.94069e-12 0)
(42.4442 -9.34017e-12 0)
(42.4283 -1.2174e-11 0)
(42.4131 -1.38342e-11 0)
(42.3985 -1.51401e-11 0)
(42.3847 -1.39061e-11 0)
(42.3715 -1.38675e-11 0)
(42.3591 -1.32371e-11 0)
(42.3474 -1.26076e-11 0)
(42.3363 -1.38133e-11 0)
(42.3259 -1.52897e-11 0)
(42.3162 -1.37952e-11 0)
(42.307 -1.25854e-11 0)
(42.2984 -1.30123e-11 0)
(42.2903 -1.46767e-11 0)
(42.2826 -1.41904e-11 0)
(42.2754 -1.27218e-11 0)
(42.2685 -1.21846e-11 0)
(42.2618 -1.27051e-11 0)
(42.2554 -1.32424e-11 0)
(42.2491 -1.42447e-11 0)
(42.2429 -1.45324e-11 0)
(42.2368 -1.38043e-11 0)
(42.2306 -1.17702e-11 0)
(42.2244 -7.76591e-12 0)
(42.218 -4.30405e-12 0)
(42.2114 -2.6196e-12 0)
(42.2046 -5.96062e-13 0)
(42.1976 3.50175e-12 0)
(42.1904 5.98624e-12 0)
(42.1828 6.4345e-12 0)
(42.1749 6.3411e-12 0)
(42.1668 5.67194e-12 0)
(42.1583 5.14956e-12 0)
(42.1495 5.51551e-12 0)
(42.1404 7.17239e-12 0)
(42.1311 7.22552e-12 0)
(42.1215 7.49539e-12 0)
(42.1116 7.28259e-12 0)
(42.1016 6.01734e-12 0)
(42.0913 4.77134e-12 0)
(42.0809 4.20263e-12 0)
(42.0704 4.25898e-12 0)
(42.0598 4.13568e-12 0)
(42.0492 5.00212e-12 0)
(42.0386 5.04371e-12 0)
(42.0279 3.61906e-12 0)
(42.0174 5.02582e-13 0)
(42.0068 -1.73836e-12 0)
(41.9964 -2.5233e-12 0)
(41.9861 -1.152e-12 0)
(41.9758 2.19542e-13 0)
(41.9657 7.09116e-13 0)
(41.9557 4.60461e-14 0)
(41.9458 -7.33767e-13 0)
(41.936 1.195e-13 0)
(41.9263 5.72476e-13 0)
(41.9166 9.87316e-13 0)
(41.907 -5.4437e-13 0)
(41.8973 3.2538e-13 0)
(41.8876 1.36956e-12 0)
(41.8779 1.4253e-12 0)
(41.868 1.14734e-12 0)
(41.858 7.68317e-13 0)
(41.8479 -3.11654e-13 0)
(41.8375 -1.40682e-12 0)
(41.8269 -3.31507e-12 0)
(41.8161 -7.32318e-12 0)
(41.805 -1.11619e-11 0)
(41.7937 -1.31529e-11 0)
(41.7821 -1.51168e-11 0)
(41.7702 -1.59365e-11 0)
(41.7581 -1.52619e-11 0)
(41.7458 -1.40978e-11 0)
(41.7333 -1.43431e-11 0)
(41.7207 -1.53251e-11 0)
(41.7079 -1.79495e-11 0)
(41.695 -1.92297e-11 0)
(41.6821 -1.7583e-11 0)
(41.6693 -1.32602e-11 0)
(41.6565 -1.17715e-11 0)
(41.6439 -1.18127e-11 0)
(41.6314 -9.85602e-12 0)
(41.6191 -7.83021e-12 0)
(41.6071 -4.26056e-12 0)
(41.5954 -2.31156e-12 0)
(41.584 -6.37581e-13 0)
(41.5729 -1.46974e-13 0)
(41.5621 -7.69689e-13 0)
(41.5517 -2.05692e-12 0)
(41.5415 -2.88412e-12 0)
(41.5316 -4.54374e-12 0)
(41.522 -4.97524e-12 0)
(41.5125 -4.61366e-12 0)
(41.5031 -4.02285e-12 0)
(41.4938 -4.75476e-12 0)
(41.4845 -5.79165e-12 0)
(41.4751 -5.48521e-12 0)
(41.4655 -5.00706e-13 0)
(41.4557 5.02802e-12 0)
(41.4458 9.59466e-12 0)
(41.4355 1.19388e-11 0)
(41.4248 1.23381e-11 0)
(41.4136 1.20862e-11 0)
(41.4019 1.12434e-11 0)
(41.3897 9.65034e-12 0)
(41.377 7.80682e-12 0)
(41.3637 6.62355e-12 0)
(41.3497 5.25408e-12 0)
(41.3352 6.03288e-12 0)
(41.3202 6.06254e-12 0)
(41.3046 7.4945e-12 0)
(41.2885 9.63259e-12 0)
(41.2719 1.17113e-11 0)
(41.255 1.39089e-11 0)
(41.2377 1.33857e-11 0)
(41.2202 1.10712e-11 0)
(41.2026 8.31405e-12 0)
(41.1849 6.04209e-12 0)
(41.1672 5.517e-12 0)
(41.1498 5.99897e-12 0)
(41.1327 5.72536e-12 0)
(41.116 4.67189e-12 0)
(41.0997 3.00663e-12 0)
(41.0841 2.1205e-12 0)
(41.069 7.31583e-13 0)
(41.0547 7.79006e-13 0)
(41.0412 2.60284e-12 0)
(41.0285 3.69692e-12 0)
(41.0166 4.05635e-12 0)
(41.0055 5.48559e-12 0)
(40.9953 5.23737e-12 0)
(40.9858 4.10471e-12 0)
(40.9771 1.79451e-12 0)
(40.9692 9.81575e-14 0)
(40.962 -2.74764e-12 0)
(40.9553 -4.22368e-12 0)
(40.9492 -3.581e-12 0)
(40.9436 -1.39323e-12 0)
(40.9385 -1.4612e-12 0)
(40.9337 -1.17237e-12 0)
(40.929 5.78298e-13 0)
(40.9244 4.18657e-12 0)
(40.9198 5.33736e-12 0)
(40.915 5.22881e-12 0)
(40.91 5.82238e-12 0)
(40.9046 5.22754e-12 0)
(40.8989 5.60254e-12 0)
(40.8925 5.78105e-12 0)
(40.8856 6.29951e-12 0)
(40.878 7.52694e-12 0)
(40.8697 8.96604e-12 0)
(40.8607 8.1337e-12 0)
(40.8509 7.49692e-12 0)
(40.8405 9.71577e-12 0)
(40.8295 7.00057e-12 0)
(40.8179 1.53285e-11 0)
(40.8058 9.16926e-12 0)
(40.7933 1.24102e-11 0)
(40.7806 -1.5081e-11 0)
(40.7678 -1.99472e-10 0)
(40.7549 1.66287e-10 0)
(40.7422 -1.31686e-10 0)
(40.7296 7.9831e-10 0)
(40.7172 3.4504e-11 0)
(40.7051 3.41414e-10 0)
(40.6934 -9.15099e-10 0)
(40.6821 -1.20819e-09 0)
(40.6711 -2.8963e-09 0)
(40.6606 -2.12758e-09 0)
(40.6505 -4.56709e-09 0)
(40.6408 1.22449e-09 0)
(40.6315 -6.68695e-09 0)
(40.6228 -9.36464e-10 0)
(40.6147 -3.17327e-08 0)
(40.6072 1.73084e-08 0)
(40.6003 -5.54978e-08 0)
(40.594 8.1583e-09 0)
(40.5885 -2.30734e-08 0)
(40.5836 1.75455e-07 0)
(40.5792 1.21122e-06 0)
(40.5753 8.78926e-06 0)
(40.5717 6.18101e-05 0)
(40.5683 0.000436635 0)
(40.5647 0.00308101 0)
(40.5595 0.0216315 0)
(40.5402 0.152727 0)
(40.3969 0.694909 0)
(42.6918 -0.000129048 0)
(42.6722 -9.9367e-05 0)
(42.6503 -8.68344e-05 0)
(42.6297 -8.60603e-05 0)
(42.6098 -8.59706e-05 0)
(42.5901 -8.55817e-05 0)
(42.5705 -8.53014e-05 0)
(42.5512 -8.51865e-05 0)
(42.5322 -8.50374e-05 0)
(42.5136 -8.49611e-05 0)
(42.4955 -8.48261e-05 0)
(42.4778 -8.46229e-05 0)
(42.4607 -8.42656e-05 0)
(42.4442 -8.36505e-05 0)
(42.4284 -8.26904e-05 0)
(42.4131 -8.11628e-05 0)
(42.3986 -7.90014e-05 0)
(42.3847 -7.60495e-05 0)
(42.3716 -7.22349e-05 0)
(42.3591 -6.75489e-05 0)
(42.3474 -6.20617e-05 0)
(42.3363 -5.59227e-05 0)
(42.3259 -4.93471e-05 0)
(42.3162 -4.2591e-05 0)
(42.307 -3.59208e-05 0)
(42.2984 -2.95821e-05 0)
(42.2903 -2.37755e-05 0)
(42.2826 -1.86408e-05 0)
(42.2754 -1.42523e-05 0)
(42.2685 -1.06226e-05 0)
(42.2618 -7.71432e-06 0)
(42.2554 -5.45443e-06 0)
(42.2491 -3.7496e-06 0)
(42.2429 -2.49972e-06 0)
(42.2368 -1.60821e-06 0)
(42.2306 -9.88845e-07 0)
(42.2243 -5.69218e-07 0)
(42.218 -2.91572e-07 0)
(42.2114 -1.12541e-07 0)
(42.2046 -3.00543e-09 0)
(42.1976 6.44856e-08 0)
(42.1904 1.04281e-07 0)
(42.1828 1.2705e-07 0)
(42.1749 1.39752e-07 0)
(42.1668 1.46613e-07 0)
(42.1583 1.50196e-07 0)
(42.1495 1.52004e-07 0)
(42.1404 1.52921e-07 0)
(42.1311 1.53448e-07 0)
(42.1215 1.53859e-07 0)
(42.1116 1.54318e-07 0)
(42.1016 1.54934e-07 0)
(42.0913 1.55739e-07 0)
(42.0809 1.56781e-07 0)
(42.0704 1.58029e-07 0)
(42.0598 1.59494e-07 0)
(42.0492 1.61149e-07 0)
(42.0386 1.62964e-07 0)
(42.0279 1.64918e-07 0)
(42.0174 1.66991e-07 0)
(42.0068 1.69278e-07 0)
(41.9964 1.71477e-07 0)
(41.9861 1.73382e-07 0)
(41.9758 1.7496e-07 0)
(41.9657 1.76571e-07 0)
(41.9557 1.78555e-07 0)
(41.9458 1.8059e-07 0)
(41.936 1.81964e-07 0)
(41.9263 1.84146e-07 0)
(41.9166 1.85911e-07 0)
(41.907 1.86834e-07 0)
(41.8973 1.86995e-07 0)
(41.8876 1.86816e-07 0)
(41.8779 1.86691e-07 0)
(41.868 1.86588e-07 0)
(41.858 1.86349e-07 0)
(41.8479 1.85944e-07 0)
(41.8375 1.85404e-07 0)
(41.8269 1.84716e-07 0)
(41.8161 1.83988e-07 0)
(41.805 1.83278e-07 0)
(41.7937 1.82637e-07 0)
(41.7821 1.82137e-07 0)
(41.7702 1.8191e-07 0)
(41.7581 1.8209e-07 0)
(41.7458 1.82887e-07 0)
(41.7333 1.84366e-07 0)
(41.7207 1.84173e-07 0)
(41.7079 1.84163e-07 0)
(41.695 1.85763e-07 0)
(41.6821 1.8983e-07 0)
(41.6693 1.94942e-07 0)
(41.6565 1.99306e-07 0)
(41.6438 2.03156e-07 0)
(41.6314 2.0744e-07 0)
(41.6191 2.12439e-07 0)
(41.6071 2.1798e-07 0)
(41.5954 2.23893e-07 0)
(41.584 2.3005e-07 0)
(41.5729 2.36334e-07 0)
(41.5621 2.42691e-07 0)
(41.5517 2.49069e-07 0)
(41.5415 2.55435e-07 0)
(41.5316 2.61728e-07 0)
(41.522 2.67899e-07 0)
(41.5125 2.73842e-07 0)
(41.5031 2.79529e-07 0)
(41.4938 2.84871e-07 0)
(41.4845 2.89734e-07 0)
(41.4751 2.92759e-07 0)
(41.4655 2.92368e-07 0)
(41.4557 3.06494e-07 0)
(41.4458 3.07959e-07 0)
(41.4355 3.07844e-07 0)
(41.4248 3.08164e-07 0)
(41.4136 3.08507e-07 0)
(41.4019 3.08774e-07 0)
(41.3897 3.0912e-07 0)
(41.377 3.09145e-07 0)
(41.3637 3.08596e-07 0)
(41.3497 3.07636e-07 0)
(41.3352 3.06359e-07 0)
(41.3202 3.04945e-07 0)
(41.3046 3.02713e-07 0)
(41.2885 3.01595e-07 0)
(41.2719 2.99732e-07 0)
(41.2549 2.98398e-07 0)
(41.2377 2.97396e-07 0)
(41.2202 2.96752e-07 0)
(41.2026 2.93835e-07 0)
(41.1849 2.90657e-07 0)
(41.1672 2.92691e-07 0)
(41.1498 2.95545e-07 0)
(41.1327 2.96319e-07 0)
(41.116 2.96312e-07 0)
(41.0997 2.96878e-07 0)
(41.0841 2.98521e-07 0)
(41.069 3.00589e-07 0)
(41.0547 3.02989e-07 0)
(41.0412 3.05287e-07 0)
(41.0285 3.08315e-07 0)
(41.0166 3.11275e-07 0)
(41.0055 3.14312e-07 0)
(40.9953 3.1747e-07 0)
(40.9858 3.20764e-07 0)
(40.9771 3.24157e-07 0)
(40.9692 3.27244e-07 0)
(40.962 3.30404e-07 0)
(40.9553 3.32961e-07 0)
(40.9492 3.3572e-07 0)
(40.9436 3.49171e-07 0)
(40.9385 3.4796e-07 0)
(40.9337 3.46629e-07 0)
(40.929 3.49646e-07 0)
(40.9244 3.55958e-07 0)
(40.9198 3.52633e-07 0)
(40.915 3.5321e-07 0)
(40.91 3.56986e-07 0)
(40.9046 3.60207e-07 0)
(40.8989 3.61243e-07 0)
(40.8925 3.60758e-07 0)
(40.8856 3.59933e-07 0)
(40.878 3.59246e-07 0)
(40.8697 3.58351e-07 0)
(40.8607 3.573e-07 0)
(40.8509 3.56375e-07 0)
(40.8405 3.55495e-07 0)
(40.8295 3.5454e-07 0)
(40.8179 3.53992e-07 0)
(40.8058 3.53508e-07 0)
(40.7933 3.53354e-07 0)
(40.7806 3.53449e-07 0)
(40.7678 3.53824e-07 0)
(40.7549 3.54341e-07 0)
(40.7422 3.55115e-07 0)
(40.7295 3.55749e-07 0)
(40.7172 3.56364e-07 0)
(40.7051 3.56802e-07 0)
(40.6934 3.5689e-07 0)
(40.6821 3.56423e-07 0)
(40.6711 3.54294e-07 0)
(40.6606 3.54223e-07 0)
(40.6504 3.4834e-07 0)
(40.6408 3.49812e-07 0)
(40.6315 3.38546e-07 0)
(40.6228 3.48059e-07 0)
(40.6147 3.0819e-07 0)
(40.6072 3.6561e-07 0)
(40.6003 2.86203e-07 0)
(40.594 3.55724e-07 0)
(40.5885 3.06199e-07 0)
(40.5836 4.6268e-07 0)
(40.5792 1.11983e-06 0)
(40.5753 6.31185e-06 0)
(40.5719 4.27803e-05 0)
(40.5695 0.000303161 0)
(40.5736 0.00216494 0)
(40.6236 0.0155959 0)
(40.8152 0.128772 0)
(43.7792 0.53975 0)
(42.69 -0.000101757 0)
(42.6686 -9.30921e-05 0)
(42.6449 -9.06084e-05 0)
(42.6225 -9.14795e-05 0)
(42.6008 -9.22043e-05 0)
(42.5793 -9.26362e-05 0)
(42.5579 -9.29675e-05 0)
(42.5368 -9.3268e-05 0)
(42.516 -9.34552e-05 0)
(42.4956 -9.36124e-05 0)
(42.4757 -9.36548e-05 0)
(42.4562 -9.35694e-05 0)
(42.4373 -9.32745e-05 0)
(42.4191 -9.26628e-05 0)
(42.4014 -9.16247e-05 0)
(42.3844 -8.99552e-05 0)
(42.3682 -8.75468e-05 0)
(42.3527 -8.42479e-05 0)
(42.3379 -7.99816e-05 0)
(42.324 -7.47437e-05 0)
(42.3109 -6.86181e-05 0)
(42.2986 -6.17758e-05 0)
(42.2871 -5.44594e-05 0)
(42.2763 -4.69553e-05 0)
(42.2663 -3.95593e-05 0)
(42.257 -3.25427e-05 0)
(42.2484 -2.61255e-05 0)
(42.2403 -2.04599e-05 0)
(42.2327 -1.56248e-05 0)
(42.2255 -1.16314e-05 0)
(42.2187 -8.43605e-06 0)
(42.2121 -5.95618e-06 0)
(42.2058 -4.08772e-06 0)
(42.1995 -2.71973e-06 0)
(42.1933 -1.74585e-06 0)
(42.1871 -1.07139e-06 0)
(42.1808 -6.16696e-07 0)
(42.1744 -3.17453e-07 0)
(42.1679 -1.22064e-07 0)
(42.1611 -1.34437e-09 0)
(42.1541 7.1184e-08 0)
(42.1468 1.15244e-07 0)
(42.1393 1.41438e-07 0)
(42.1314 1.56728e-07 0)
(42.1233 1.6556e-07 0)
(42.1148 1.70701e-07 0)
(42.106 1.73823e-07 0)
(42.097 1.75894e-07 0)
(42.0876 1.7747e-07 0)
(42.078 1.78834e-07 0)
(42.0682 1.80166e-07 0)
(42.0581 1.81556e-07 0)
(42.0479 1.83045e-07 0)
(42.0375 1.84665e-07 0)
(42.027 1.86398e-07 0)
(42.0164 1.88256e-07 0)
(42.0058 1.90223e-07 0)
(41.9951 1.92272e-07 0)
(41.9845 1.94372e-07 0)
(41.9739 1.96486e-07 0)
(41.9634 1.98702e-07 0)
(41.953 2.00781e-07 0)
(41.9427 2.02522e-07 0)
(41.9325 2.03883e-07 0)
(41.9223 2.05209e-07 0)
(41.9124 2.06895e-07 0)
(41.9025 2.0877e-07 0)
(41.8927 2.10152e-07 0)
(41.8829 2.12217e-07 0)
(41.8733 2.14132e-07 0)
(41.8636 2.15526e-07 0)
(41.854 2.16346e-07 0)
(41.8443 2.16922e-07 0)
(41.8346 2.17637e-07 0)
(41.8247 2.18508e-07 0)
(41.8147 2.19406e-07 0)
(41.8045 2.20265e-07 0)
(41.7942 2.21082e-07 0)
(41.7836 2.2183e-07 0)
(41.7728 2.22552e-07 0)
(41.7617 2.23278e-07 0)
(41.7504 2.24017e-07 0)
(41.7388 2.24789e-07 0)
(41.727 2.25663e-07 0)
(41.7149 2.26726e-07 0)
(41.7026 2.28164e-07 0)
(41.6901 2.30138e-07 0)
(41.6774 2.30749e-07 0)
(41.6646 2.31171e-07 0)
(41.6518 2.32505e-07 0)
(41.6389 2.35884e-07 0)
(41.6261 2.40369e-07 0)
(41.6133 2.44338e-07 0)
(41.6006 2.47669e-07 0)
(41.5882 2.51027e-07 0)
(41.5759 2.54755e-07 0)
(41.5639 2.58818e-07 0)
(41.5522 2.63077e-07 0)
(41.5408 2.6741e-07 0)
(41.5297 2.71729e-07 0)
(41.519 2.75996e-07 0)
(41.5085 2.80207e-07 0)
(41.4984 2.84364e-07 0)
(41.4885 2.88473e-07 0)
(41.4788 2.92521e-07 0)
(41.4693 2.96449e-07 0)
(41.46 3.00229e-07 0)
(41.4507 3.03803e-07 0)
(41.4414 3.07115e-07 0)
(41.432 3.09378e-07 0)
(41.4224 3.09327e-07 0)
(41.4126 3.18242e-07 0)
(41.4027 3.19827e-07 0)
(41.3924 3.20397e-07 0)
(41.3817 3.20984e-07 0)
(41.3706 3.21503e-07 0)
(41.3589 3.22048e-07 0)
(41.3467 3.22784e-07 0)
(41.334 3.23378e-07 0)
(41.3207 3.23567e-07 0)
(41.3067 3.23397e-07 0)
(41.2923 3.22936e-07 0)
(41.2772 3.22279e-07 0)
(41.2616 3.2104e-07 0)
(41.2455 3.20455e-07 0)
(41.2289 3.19312e-07 0)
(41.212 3.18432e-07 0)
(41.1947 3.17763e-07 0)
(41.1773 3.17465e-07 0)
(41.1596 3.1559e-07 0)
(41.142 3.13238e-07 0)
(41.1243 3.14423e-07 0)
(41.1069 3.16744e-07 0)
(41.0898 3.17961e-07 0)
(41.0731 3.18399e-07 0)
(41.0569 3.18973e-07 0)
(41.0412 3.20213e-07 0)
(41.0262 3.21812e-07 0)
(41.0119 3.23644e-07 0)
(40.9984 3.25397e-07 0)
(40.9857 3.27563e-07 0)
(40.9738 3.29607e-07 0)
(40.9627 3.31575e-07 0)
(40.9524 3.3362e-07 0)
(40.943 3.35661e-07 0)
(40.9343 3.37691e-07 0)
(40.9264 3.39459e-07 0)
(40.9192 3.41258e-07 0)
(40.9125 3.42645e-07 0)
(40.9064 3.43859e-07 0)
(40.9009 3.52576e-07 0)
(40.8958 3.52197e-07 0)
(40.8909 3.5144e-07 0)
(40.8862 3.53254e-07 0)
(40.8816 3.58184e-07 0)
(40.877 3.55969e-07 0)
(40.8723 3.56177e-07 0)
(40.8673 3.58812e-07 0)
(40.8619 3.61674e-07 0)
(40.8562 3.63144e-07 0)
(40.8499 3.63351e-07 0)
(40.8429 3.63153e-07 0)
(40.8353 3.63011e-07 0)
(40.827 3.62678e-07 0)
(40.818 3.62131e-07 0)
(40.8083 3.61553e-07 0)
(40.7979 3.60886e-07 0)
(40.7868 3.59979e-07 0)
(40.7752 3.59213e-07 0)
(40.7632 3.58305e-07 0)
(40.7507 3.57456e-07 0)
(40.738 3.56634e-07 0)
(40.7252 3.55873e-07 0)
(40.7124 3.55101e-07 0)
(40.6996 3.54432e-07 0)
(40.687 3.5367e-07 0)
(40.6746 3.52856e-07 0)
(40.6626 3.51887e-07 0)
(40.6509 3.50802e-07 0)
(40.6396 3.49945e-07 0)
(40.6286 3.48686e-07 0)
(40.6181 3.48446e-07 0)
(40.608 3.46699e-07 0)
(40.5983 3.47331e-07 0)
(40.5891 3.44442e-07 0)
(40.5804 3.52698e-07 0)
(40.5722 3.42708e-07 0)
(40.5647 3.62697e-07 0)
(40.5578 3.45431e-07 0)
(40.5516 3.60061e-07 0)
(40.546 3.45521e-07 0)
(40.5411 3.74806e-07 0)
(40.5368 4.74797e-07 0)
(40.5329 1.27102e-06 0)
(40.5294 6.81644e-06 0)
(40.5272 4.64675e-05 0)
(40.5315 0.000335964 0)
(40.5845 0.00264593 0)
(40.7916 0.0375951 0)
(45.7891 0.153028 0)
(36.5403 1.24475 -3.17485e-15)
(35.508 3.57169 6.36768e-15)
(35.1019 6.2166 -1.19382e-14)
(34.6977 8.89027 2.46679e-14)
(34.05 11.532 -2.54527e-14)
(33.1484 14.1129 -1.59031e-15)
(31.9804 16.5917 5.1341e-20)
(30.6354 18.9993 -2.22516e-14)
(29.5097 21.6146 -1.02937e-13)
(28.7746 24.726 1.00766e-13)
(27.9516 28.1235 -2.50603e-14)
(26.3878 30.966 -5.16383e-14)
(23.9439 32.7776 2.66024e-14)
(21.0094 33.7616 0)
(17.8799 34.1869 2.51675e-14)
(14.7212 34.2614 2.52776e-14)
(11.7291 34.6827 -2.53748e-14)
(9.13736 36.7072 2.51521e-14)
(6.73415 41.0536 1.93187e-16)
(4.10804 48.2904 -1.87609e-16)
(37.6536 1.95621 0)
(37.0408 4.77765 0)
(36.6363 7.88515 -1.61704e-15)
(36.122 10.9772 -3.23103e-15)
(35.3348 14.0256 8.06928e-15)
(34.24 17.0405 1.61266e-14)
(32.8128 19.9571 0)
(31.2538 22.5766 9.65957e-15)
(30.058 25.0635 1.60187e-14)
(29.2521 28.0331 -3.81554e-14)
(28.0677 31.753 2.52893e-14)
(25.6985 35.499 1.2644e-14)
(22.3727 38.0791 -1.26355e-14)
(18.5571 39.5617 1.26333e-14)
(14.5731 40.1582 0)
(10.8167 39.8615 -1.58952e-15)
(8.02901 39.094 1.601e-15)
(6.88083 39.2608 -5.57194e-15)
(5.77862 41.8227 -7.83569e-16)
(4.9739 46.4897 0)
(40.3506 1.52708 -4.12919e-17)
(40.3536 2.51834 -2.09841e-14)
(40.4566 3.5273 2.13122e-14)
(40.6427 4.53551 -2.04844e-14)
(40.866 5.6117 -2.24687e-14)
(41.0931 6.83123 8.36298e-14)
(41.2933 8.25344 -4.23309e-14)
(41.4042 9.9278 4.10219e-14)
(41.3181 11.8249 -8.34176e-14)
(41.0386 13.7855 1.33224e-15)
(40.7341 15.6779 4.11496e-14)
(40.5443 17.5772 0)
(40.3119 19.7267 -4.12227e-14)
(39.7937 22.1905 4.1229e-14)
(38.8517 24.9036 -3.32233e-16)
(37.3758 27.7875 0)
(35.2135 30.7108 3.32162e-16)
(32.2348 33.4083 0)
(28.9623 35.5462 0)
(26.2958 37.0264 0)
(44.2793 2.50495 6.33639e-16)
(44.0107 5.77062 -6.35685e-15)
(43.0496 9.65445 -1.27388e-15)
(41.9219 13.6322 2.54422e-15)
(40.8948 17.5553 -2.53351e-15)
(39.8931 21.4151 -4.33847e-19)
(38.761 25.2064 -1.00205e-14)
(37.3618 28.8884 0)
(35.6598 32.4461 0)
(33.6554 35.8754 -4.93202e-15)
(31.3204 39.1312 4.90766e-15)
(28.6732 42.2066 0)
(25.7046 45.0422 -4.86361e-15)
(22.4412 47.596 4.84844e-15)
(18.9215 49.838 -4.83328e-15)
(15.1895 51.744 9.63764e-15)
(11.2941 53.2931 -4.80869e-15)
(7.29664 54.4725 0)
(3.28129 55.3055 -2.39295e-15)
(-0.417082 55.7923 0)
(47.1744 1.74029 -9.67251e-16)
(48.0951 4.46112 7.41464e-15)
(47.8181 7.72656 5.158e-15)
(47.05 11.1484 1.03059e-14)
(46.2672 14.6938 0)
(45.4812 18.3579 0)
(44.5584 22.1019 1.02053e-14)
(43.3846 25.8443 2.54014e-15)
(41.8961 29.5721 -5.05738e-15)
(40.1023 33.216 2.51837e-15)
(37.9638 36.7419 2.00617e-14)
(35.5014 40.0891 -1.24924e-14)
(32.7056 43.1992 1.24561e-14)
(29.5883 46.0273 -2.48416e-15)
(26.175 48.5394 -9.91736e-15)
(22.4997 50.7044 -1.73346e-14)
(18.6039 52.4846 -8.66031e-15)
(14.542 53.8141 -1.2373e-15)
(10.3961 54.5462 7.11877e-15)
(6.4299 54.3383 3.10298e-16)
(1.2641 58.7827 0)
(1.19262 56.0121 0)
(1.06723 53.9064 0)
(0.947213 55.0414 0)
(0.979 56.4673 0)
(1.02961 56.7819 0)
(1.0384 56.5644 0)
(1.03671 56.4583 0)
(1.03007 56.5409 0)
(1.03465 56.6279 0)
(1.03837 56.6378 0)
(1.03462 56.6537 0)
(1.02977 56.7423 0)
(1.03204 56.855 0)
(1.03887 56.9141 0)
(1.04195 56.9139 0)
(1.0389 56.8996 0)
(1.03054 56.8958 0)
(1.0168 56.8939 0)
(0.997269 56.8752 0)
(0.970503 56.8214 0)
(0.935655 56.714 0)
(0.892613 56.5357 0)
(0.841827 56.2703 0)
(0.78422 55.901 0)
(0.720977 55.4096 0)
(0.653379 54.777 0)
(0.583342 53.9808 0)
(0.511629 53.0074 0)
(0.441356 51.8609 0)
(0.374396 50.5628 0)
(0.311589 49.1647 0)
(0.255598 47.7374 0)
(0.205826 46.3553 0)
(0.162762 45.0887 0)
(0.126472 43.9876 0)
(0.0967614 43.0753 0)
(0.0726372 42.3506 0)
(0.0535914 41.7954 0)
(0.0388129 41.3825 0)
(0.0275685 41.0825 0)
(0.0191945 40.8687 0)
(0.0130967 40.7184 0)
(0.00875723 40.6139 0)
(0.00573926 40.5415 0)
(0.00368754 40.4914 0)
(0.00232352 40.4563 0)
(0.00143621 40.4314 0)
(0.000871185 40.413 0)
(0.00051877 40.3989 0)
(0.000303361 40.3875 0)
(0.000174269 40.3776 0)
(9.83819e-05 40.3687 0)
(5.46041e-05 40.3602 0)
(2.98108e-05 40.352 0)
(1.60203e-05 40.3438 0)
(8.48443e-06 40.3355 0)
(4.43759e-06 40.3271 0)
(2.30134e-06 40.3186 0)
(1.19246e-06 40.3099 0)
(6.26196e-07 40.3011 0)
(3.41435e-07 40.2921 0)
(2.00335e-07 40.283 0)
(1.31129e-07 40.2739 0)
(9.96595e-08 40.2647 0)
(8.70489e-08 40.2555 0)
(8.31908e-08 40.2463 0)
(8.27395e-08 40.2372 0)
(8.38405e-08 40.2283 0)
(8.5661e-08 40.2194 0)
(8.78403e-08 40.2108 0)
(9.01955e-08 40.2024 0)
(9.26295e-08 40.1943 0)
(9.51837e-08 40.1864 0)
(9.78758e-08 40.1789 0)
(1.00641e-07 40.1717 0)
(1.03284e-07 40.1648 0)
(1.05698e-07 40.1583 0)
(1.07958e-07 40.1521 0)
(1.1018e-07 40.1462 0)
(1.12394e-07 40.1407 0)
(1.14543e-07 40.1355 0)
(1.16549e-07 40.1307 0)
(1.18385e-07 40.1261 0)
(1.20017e-07 40.1218 0)
(1.21433e-07 40.1177 0)
(1.22627e-07 40.1138 0)
(1.236e-07 40.1102 0)
(1.2434e-07 40.1067 0)
(1.24852e-07 40.1034 0)
(1.25139e-07 40.1001 0)
(1.25206e-07 40.097 0)
(1.25085e-07 40.0939 0)