/*--------------------------------*- C++ -*----------------------------------*\
| =========                 |                                                 |
| \\      /  F ield         | OpenFOAM: The Open Source CFD Toolbox           |
|  \\    /   O peration     | Version:  3.0.x                                 |
|   \\  /    A nd           | Web:      www.OpenFOAM.org                      |
|    \\/     M anipulation  |                                                 |
\*---------------------------------------------------------------------------*/
FoamFile
{
    version     2.0;
    format      ascii;
    class       surfaceScalarField;
    location    "0.07";
    object      phi;
}
// * * * * * * * * * * * * * * * * * * * * * * * * * * * * * * * * * * * * * //

dimensions      [1 0 -1 0 0 0 0];

internalField   nonuniform List<scalar> 
12415
(
5.74577
0.000327751
5.74476
0.000235169
5.74371
0.000224219
5.74261
0.000225537
5.74143
0.000223946
5.74017
0.000219441
5.73881
0.000211689
5.73735
0.000199625
5.73578
0.000182802
5.73409
0.000161677
5.73228
0.000137543
5.73035
0.000112238
5.7283
8.77108e-05
5.72614
6.56007e-05
5.72386
4.69657e-05
5.72149
3.22135e-05
5.71902
2.11999e-05
5.7165
1.34173e-05
5.71392
8.19472e-06
5.71134
4.85614e-06
5.70878
2.81654e-06
5.70626
1.62138e-06
5.70383
9.46329e-07
5.70153
5.75877e-07
5.69937
3.75492e-07
5.69739
2.65822e-07
5.69562
2.02528e-07
5.69408
1.62092e-07
5.69276
1.32695e-07
5.69169
1.08776e-07
5.69085
8.79645e-08
5.69024
6.94363e-08
5.68983
5.31036e-08
5.68961
3.90992e-08
5.68954
2.74595e-08
5.68958
2.16314e-08
5.6897
1.24019e-08
5.68987
9.02583e-09
5.69004
8.10542e-09
5.69019
1.00972e-08
5.69028
1.37352e-08
5.69027
1.77552e-08
5.69015
2.42162e-08
5.68991
3.41333e-08
5.68951
4.31737e-08
5.68897
5.16447e-08
5.68826
6.02886e-08
5.68741
6.84104e-08
5.68641
7.54844e-08
5.68527
8.13307e-08
5.68402
8.55689e-08
5.68267
8.92724e-08
5.68124
9.06093e-08
5.67974
9.10186e-08
5.67819
8.9527e-08
5.67661
8.75298e-08
5.67501
8.37281e-08
5.67341
7.91297e-08
5.67181
7.37346e-08
5.67024
6.77246e-08
5.66869
6.11526e-08
5.66718
5.38093e-08
5.66571
4.6799e-08
5.66428
3.9141e-08
5.66289
3.1474e-08
5.66156
2.36578e-08
5.66028
1.6018e-08
5.65906
8.41646e-09
5.65789
6.27551e-10
5.65679
-6.76846e-09
5.65574
-1.42682e-08
5.65475
-2.15623e-08
5.65382
-2.87746e-08
5.65296
-3.58395e-08
5.65215
-4.2648e-08
5.65142
-4.94947e-08
5.65074
-5.5943e-08
5.65013
-6.23404e-08
5.64959
-6.85486e-08
5.64911
-7.44203e-08
5.64869
-8.01483e-08
5.64833
-8.55198e-08
5.64804
-9.07075e-08
5.6478
-9.55479e-08
5.64762
-1.00046e-07
5.64749
-1.04292e-07
5.64742
-1.08053e-07
5.64739
-1.11668e-07
5.64741
-1.12947e-07
5.64747
-1.17625e-07
5.64756
-1.19353e-07
5.64769
-1.21319e-07
5.64784
-1.22929e-07
5.64801
-1.23871e-07
5.6482
-1.24455e-07
5.64841
-1.24799e-07
5.64861
-1.24459e-07
5.64882
-1.2386e-07
5.64902
-1.22996e-07
5.64921
-1.21539e-07
5.64938
-1.19922e-07
5.64953
-1.18043e-07
5.64965
-1.15753e-07
5.64974
-1.13416e-07
5.64979
-1.10897e-07
5.64981
-1.08341e-07
5.64978
-1.06482e-07
5.64972
-1.03228e-07
5.64961
-1.00219e-07
5.64946
-9.79071e-08
5.64927
-9.56315e-08
5.64905
-9.37853e-08
5.64879
-9.20154e-08
5.6485
-9.09258e-08
5.64818
-9.00673e-08
5.64785
-8.97544e-08
5.6475
-9.00418e-08
5.64716
-9.05511e-08
5.64681
-9.1879e-08
5.64648
-9.3527e-08
5.64617
-9.56115e-08
5.64588
-9.82454e-08
5.64563
-1.01003e-07
5.64541
-1.04221e-07
5.64523
-1.0755e-07
5.6451
-1.11e-07
5.64502
-1.14505e-07
5.64499
-1.17847e-07
5.645
-1.20221e-07
5.64505
-1.23579e-07
5.64516
-1.26898e-07
5.6453
-1.29479e-07
5.64548
-1.31318e-07
5.64569
-1.33094e-07
5.64592
-1.34311e-07
5.64618
-1.34913e-07
5.64646
-1.35353e-07
5.64674
-1.35049e-07
5.64702
-1.34274e-07
5.6473
-1.33223e-07
5.64756
-1.31467e-07
5.6478
-1.2937e-07
5.64801
-1.26898e-07
5.64818
-1.23895e-07
5.64831
-1.20668e-07
5.64839
-1.17148e-07
5.64841
-1.13521e-07
5.64838
-1.11037e-07
5.64829
-1.06049e-07
5.64813
-1.01885e-07
5.64791
-9.83528e-08
5.64764
-9.49894e-08
5.6473
-9.22464e-08
5.64691
-8.95652e-08
5.64648
-8.77953e-08
5.64601
-8.63201e-08
5.6455
-8.55762e-08
5.64497
-8.53379e-08
5.64441
-8.54143e-08
5.64384
-8.60928e-08
5.64325
-8.6693e-08
5.64265
-8.76262e-08
5.64202
-8.8321e-08
5.64137
-8.86448e-08
5.64068
-8.86957e-08
5.63994
-8.79099e-08
5.63913
-8.66075e-08
5.63826
-8.45266e-08
5.63728
-8.16581e-08
5.63621
-7.82929e-08
5.63501
-7.42566e-08
5.63369
-7.00875e-08
5.63223
-6.5822e-08
5.63064
-6.17893e-08
5.62892
-5.82622e-08
5.62708
-5.53828e-08
5.62511
-5.35747e-08
5.62305
-5.28544e-08
5.6209
-5.34692e-08
5.61868
-5.55938e-08
5.61641
-5.89662e-08
5.61412
-6.45432e-08
5.61183
-7.04913e-08
5.60956
-8.03757e-08
5.60735
-8.78463e-08
5.60521
-1.02795e-07
5.60318
-1.12657e-07
5.60127
-1.28413e-07
5.59952
-1.44622e-07
5.59792
-1.55213e-07
5.5965
-1.63167e-07
5.59526
-1.00599e-07
5.59421
4.38045e-07
5.59334
4.29383e-06
5.59262
3.16786e-05
5.59187
0.000221216
5.58996
0.00155621
5.57888
0.0108523
5.49232
0.0864882
0.427034
5.0653
11.4923
0.00026053
11.4907
0.000216092
11.4891
0.000188793
11.4874
0.000193101
11.4855
0.000192723
11.4835
0.000188543
11.4812
0.000181931
11.4787
0.00017176
11.476
0.000157496
11.4729
0.000139503
11.4696
0.000118873
11.466
9.71695e-05
11.4621
7.60696e-05
11.4579
5.69958e-05
11.4534
4.08782e-05
11.4487
2.80876e-05
11.4439
1.85163e-05
11.4388
1.17379e-05
11.4337
7.17957e-06
11.4286
4.25962e-06
11.4234
2.47225e-06
11.4184
1.42295e-06
11.4135
8.29334e-07
11.4089
5.0328e-07
11.4046
3.26886e-07
11.4007
2.30414e-07
11.3971
1.74869e-07
11.394
1.39557e-07
11.3914
1.14043e-07
11.3893
9.33956e-08
11.3876
7.54851e-08
11.3864
5.95599e-08
11.3855
4.56275e-08
11.3851
3.37595e-08
11.385
2.38249e-08
11.385
1.80464e-08
11.3853
1.10001e-08
11.3856
7.60724e-09
11.386
6.92285e-09
11.3863
8.70887e-09
11.3864
1.1994e-08
11.3864
1.55151e-08
11.3862
2.06885e-08
11.3857
2.92177e-08
11.3849
3.72097e-08
11.3838
4.43476e-08
11.3824
5.17141e-08
11.3807
5.86224e-08
11.3787
6.47865e-08
11.3764
6.97178e-08
11.3739
7.33994e-08
11.3712
7.64769e-08
11.3684
7.77356e-08
11.3654
7.80033e-08
11.3623
7.6782e-08
11.3591
7.49915e-08
11.3559
7.18155e-08
11.3527
6.78388e-08
11.3495
6.32076e-08
11.3464
5.80642e-08
11.3433
5.24324e-08
11.3402
4.61612e-08
11.3373
4.00962e-08
11.3344
3.35901e-08
11.3317
2.69952e-08
11.329
2.02901e-08
11.3264
1.37441e-08
11.324
7.25413e-09
11.3217
6.5279e-10
11.3194
-5.87579e-09
11.3173
-1.22368e-08
11.3154
-1.84421e-08
11.3135
-2.46316e-08
11.3118
-3.06916e-08
11.3102
-3.6541e-08
11.3087
-4.23779e-08
11.3074
-4.79313e-08
11.3061
-5.34058e-08
11.305
-5.87222e-08
11.3041
-6.37679e-08
11.3032
-6.86616e-08
11.3025
-7.32805e-08
11.3019
-7.7715e-08
11.3015
-8.18704e-08
11.3011
-8.57217e-08
11.3008
-8.93626e-08
11.3007
-9.25936e-08
11.3006
-9.55886e-08
11.3007
-9.70526e-08
11.3008
-1.00501e-07
11.301
-1.02386e-07
11.3012
-1.0397e-07
11.3015
-1.0532e-07
11.3019
-1.06153e-07
11.3023
-1.06648e-07
11.3027
-1.06925e-07
11.3031
-1.06667e-07
11.3035
-1.06131e-07
11.3039
-1.05392e-07
11.3043
-1.04166e-07
11.3046
-1.02756e-07
11.3049
-1.01145e-07
11.3051
-9.92029e-08
11.3053
-9.71822e-08
11.3054
-9.50333e-08
11.3055
-9.28533e-08
11.3054
-9.11705e-08
11.3053
-8.85057e-08
11.3051
-8.59015e-08
11.3048
-8.387e-08
11.3044
-8.19762e-08
11.3039
-8.03605e-08
11.3034
-7.88768e-08
11.3028
-7.79157e-08
11.3022
-7.71925e-08
11.3015
-7.69307e-08
11.3009
-7.71606e-08
11.3002
-7.76313e-08
11.2995
-7.87275e-08
11.2988
-8.01692e-08
11.2982
-8.19537e-08
11.2976
-8.41885e-08
11.2971
-8.65894e-08
11.2967
-8.9316e-08
11.2963
-9.21789e-08
11.296
-9.51406e-08
11.2959
-9.81324e-08
11.2958
-1.00981e-07
11.2958
-1.03141e-07
11.2959
-1.05765e-07
11.2961
-1.08837e-07
11.2964
-1.10952e-07
11.2968
-1.12572e-07
11.2972
-1.14047e-07
11.2977
-1.15096e-07
11.2982
-1.15637e-07
11.2987
-1.1598e-07
11.2993
-1.15747e-07
11.2999
-1.15078e-07
11.3004
-1.14161e-07
11.3009
-1.12679e-07
11.3014
-1.10868e-07
11.3018
-1.08744e-07
11.3022
-1.06187e-07
11.3024
-1.03406e-07
11.3026
-1.00401e-07
11.3026
-9.73221e-08
11.3026
-9.50097e-08
11.3024
-9.10029e-08
11.3021
-8.73235e-08
11.3016
-8.42545e-08
11.3011
-8.14391e-08
11.3004
-7.90394e-08
11.2996
-7.67925e-08
11.2988
-7.52386e-08
11.2978
-7.39951e-08
11.2968
-7.33537e-08
11.2957
-7.31472e-08
11.2946
-7.32239e-08
11.2935
-7.37782e-08
11.2923
-7.43282e-08
11.2911
-7.50942e-08
11.2899
-7.56975e-08
11.2885
-7.59878e-08
11.2872
-7.59976e-08
11.2857
-7.53721e-08
11.2841
-7.4195e-08
11.2823
-7.24478e-08
11.2804
-6.99733e-08
11.2782
-6.70791e-08
11.2758
-6.36467e-08
11.2732
-6.00505e-08
11.2703
-5.64035e-08
11.2671
-5.29483e-08
11.2637
-4.99267e-08
11.26
-4.74572e-08
11.256
-4.58983e-08
11.2519
-4.52865e-08
11.2476
-4.58135e-08
11.2432
-4.76491e-08
11.2386
-5.0559e-08
11.234
-5.53266e-08
11.2295
-6.05012e-08
11.2249
-6.88676e-08
11.2205
-7.52239e-08
11.2162
-8.80902e-08
11.2122
-9.72159e-08
11.2083
-1.09112e-07
11.2048
-1.24255e-07
11.2016
-1.29187e-07
11.1988
-1.10346e-07
11.1963
1.03354e-07
11.1942
1.73262e-06
11.1925
1.31694e-05
11.191
9.36153e-05
11.1896
0.0006554
11.1858
0.00460285
11.1643
0.0319367
11.0226
0.228009
1.07236
10.3773
137.907
-0.00026053
137.889
-0.000216092
137.869
-0.000188793
137.849
-0.000193101
137.826
-0.000192723
137.802
-0.000188543
137.774
-0.000181931
137.744
-0.00017176
137.711
-0.000157496
137.675
-0.000139503
137.635
-0.000118873
137.592
-9.71695e-05
137.545
-7.60696e-05
137.495
-5.69958e-05
137.441
-4.08782e-05
137.385
-2.80876e-05
137.326
-1.85163e-05
137.266
-1.17379e-05
137.205
-7.17957e-06
137.143
-4.25962e-06
137.081
-2.47225e-06
137.021
-1.42295e-06
136.963
-8.29333e-07
136.907
-5.03277e-07
136.855
-3.26883e-07
136.808
-2.30415e-07
136.766
-1.74872e-07
136.728
-1.39558e-07
136.697
-1.14041e-07
136.671
-9.33924e-08
136.651
-7.54828e-08
136.636
-5.95603e-08
136.627
-4.56284e-08
136.621
-3.37589e-08
136.619
-2.3826e-08
136.621
-1.8048e-08
136.623
-1.10003e-08
136.627
-7.60997e-09
136.632
-6.92557e-09
136.635
-8.71023e-09
136.637
-1.19915e-08
136.637
-1.5516e-08
136.634
-2.06931e-08
136.628
-2.92202e-08
136.619
-3.7209e-08
136.606
-4.43497e-08
136.589
-5.17148e-08
136.568
-5.86222e-08
136.544
-6.47858e-08
136.517
-6.97157e-08
136.487
-7.33967e-08
136.455
-7.64762e-08
136.42
-7.7732e-08
136.384
-7.80051e-08
136.347
-7.67782e-08
136.309
-7.49917e-08
136.271
-7.18114e-08
136.232
-6.78381e-08
136.194
-6.32051e-08
136.156
-5.80621e-08
136.119
-5.2431e-08
136.083
-4.61605e-08
136.047
-4.00958e-08
136.013
-3.35926e-08
135.98
-2.6997e-08
135.948
-2.0294e-08
135.917
-1.37431e-08
135.888
-7.25231e-09
135.86
-6.54154e-10
135.833
5.87397e-09
135.808
1.22363e-08
135.784
1.84443e-08
135.762
2.46334e-08
135.741
3.06939e-08
135.722
3.65424e-08
135.704
4.23749e-08
135.688
4.79379e-08
135.674
5.34042e-08
135.661
5.87279e-08
135.649
6.3764e-08
135.639
6.86607e-08
135.63
7.32796e-08
135.623
7.77172e-08
135.618
8.1872e-08
135.613
8.57272e-08
135.61
8.9364e-08
135.608
9.25977e-08
135.608
9.55874e-08
135.608
9.70558e-08
135.61
1.00503e-07
135.612
1.02387e-07
135.615
1.0397e-07
135.618
1.05322e-07
135.623
1.06153e-07
135.627
1.06647e-07
135.632
1.06923e-07
135.637
1.06663e-07
135.642
1.0613e-07
135.647
1.05391e-07
135.651
1.04164e-07
135.655
1.02756e-07
135.659
1.01147e-07
135.662
9.92034e-08
135.664
9.71809e-08
135.665
9.5034e-08
135.666
9.28535e-08
135.665
9.11709e-08
135.663
8.85054e-08
135.661
8.59054e-08
135.657
8.3872e-08
135.653
8.19759e-08
135.647
8.03595e-08
135.641
7.88734e-08
135.634
7.79137e-08
135.626
7.71936e-08
135.618
7.69307e-08
135.61
7.71595e-08
135.602
7.76292e-08
135.594
7.8727e-08
135.586
8.01665e-08
135.578
8.19518e-08
135.571
8.4191e-08
135.565
8.65909e-08
135.56
8.93172e-08
135.556
9.21791e-08
135.553
9.51425e-08
135.551
9.81317e-08
135.55
1.00978e-07
135.55
1.0314e-07
135.551
1.05765e-07
135.554
1.08837e-07
135.557
1.10951e-07
135.561
1.12573e-07
135.566
1.14051e-07
135.572
1.15099e-07
135.578
1.15639e-07
135.585
1.15978e-07
135.592
1.15745e-07
135.598
1.15078e-07
135.605
1.14162e-07
135.611
1.12677e-07
135.617
1.10867e-07
135.622
1.08743e-07
135.626
1.06188e-07
135.629
1.03404e-07
135.631
1.00401e-07
135.632
9.73228e-08
135.631
9.50101e-08
135.629
9.10002e-08
135.625
8.73206e-08
135.62
8.42531e-08
135.613
8.14382e-08
135.605
7.90394e-08
135.596
7.67918e-08
135.585
7.52386e-08
135.574
7.3994e-08
135.562
7.33539e-08
135.549
7.31459e-08
135.536
7.32236e-08
135.522
7.37796e-08
135.508
7.43291e-08
135.493
7.50924e-08
135.478
7.56986e-08
135.463
7.59887e-08
135.446
7.59912e-08
135.428
7.53682e-08
135.409
7.41936e-08
135.388
7.24467e-08
135.365
6.99783e-08
135.339
6.70791e-08
135.31
6.36492e-08
135.278
6.00528e-08
135.243
5.64016e-08
135.205
5.29494e-08
135.164
4.99258e-08
135.119
4.74552e-08
135.072
4.5899e-08
135.023
4.52828e-08
134.971
4.58224e-08
134.918
4.7617e-08
134.863
5.06316e-08
134.809
5.51308e-08
134.754
6.08616e-08
134.699
6.80893e-08
134.646
7.67807e-08
134.595
8.63338e-08
134.546
9.82811e-08
134.5
1.09298e-07
134.458
1.24916e-07
134.42
1.40831e-07
134.386
2.03039e-07
134.356
5.03082e-07
134.331
2.65183e-06
134.31
1.76994e-05
134.293
0.000125086
134.28
0.000888633
134.27
0.00648147
134.25
0.04653
134.105
0.370714
1.58856
133.59
11.4923
-0.000327751
11.4907
-0.000235169
11.4891
-0.000224219
11.4874
-0.000225537
11.4855
-0.000223946
11.4835
-0.000219441
11.4812
-0.000211689
11.4787
-0.000199625
11.476
-0.000182802
11.4729
-0.000161677
11.4696
-0.000137543
11.466
-0.000112238
11.4621
-8.77108e-05
11.4579
-6.56007e-05
11.4534
-4.69657e-05
11.4487
-3.22135e-05
11.4439
-2.11999e-05
11.4388
-1.34173e-05
11.4337
-8.19472e-06
11.4286
-4.85614e-06
11.4234
-2.81654e-06
11.4184
-1.62138e-06
11.4135
-9.46329e-07
11.4089
-5.75877e-07
11.4046
-3.75492e-07
11.4007
-2.65823e-07
11.3971
-2.02528e-07
11.394
-1.62092e-07
11.3914
-1.32695e-07
11.3893
-1.08774e-07
11.3876
-8.79645e-08
11.3864
-6.94363e-08
11.3855
-5.31036e-08
11.3851
-3.90992e-08
11.385
-2.74595e-08
11.385
-2.16332e-08
11.3853
-1.24001e-08
11.3856
-9.02401e-09
11.386
-8.10724e-09
11.3863
-1.00972e-08
11.3864
-1.37334e-08
11.3864
-1.77552e-08
11.3862
-2.4218e-08
11.3857
-3.41352e-08
11.3849
-4.31719e-08
11.3838
-5.16447e-08
11.3824
-6.02886e-08
11.3807
-6.84104e-08
11.3787
-7.54862e-08
11.3764
-8.13307e-08
11.3739
-8.55671e-08
11.3712
-8.92724e-08
11.3684
-9.06075e-08
11.3654
-9.10204e-08
11.3623
-8.9527e-08
11.3591
-8.75298e-08
11.3559
-8.37281e-08
11.3527
-7.91297e-08
11.3495
-7.37327e-08
11.3464
-6.7721e-08
11.3433
-6.11526e-08
11.3402
-5.38093e-08
11.3373
-4.6799e-08
11.3344
-3.91428e-08
11.3317
-3.14758e-08
11.329
-2.36578e-08
11.3264
-1.60144e-08
11.324
-8.4201e-09
11.3217
-6.2937e-10
11.3194
6.76664e-09
11.3173
1.42663e-08
11.3154
2.15659e-08
11.3135
2.87764e-08
11.3118
3.58395e-08
11.3102
4.26462e-08
11.3087
4.94911e-08
11.3074
5.59467e-08
11.3061
6.23404e-08
11.305
6.85504e-08
11.3041
7.44185e-08
11.3032
8.01483e-08
11.3025
8.5518e-08
11.3019
9.07075e-08
11.3015
9.55479e-08
11.3011
1.00048e-07
11.3008
1.04292e-07
11.3007
1.08057e-07
11.3006
1.11668e-07
11.3007
1.12948e-07
11.3008
1.17625e-07
11.301
1.19355e-07
11.3012
1.21317e-07
11.3015
1.22933e-07
11.3019
1.23871e-07
11.3023
1.24452e-07
11.3027
1.24797e-07
11.3031
1.24457e-07
11.3035
1.2386e-07
11.3039
1.22996e-07
11.3043
1.21539e-07
11.3046
1.19922e-07
11.3049
1.18043e-07
11.3051
1.15753e-07
11.3053
1.13414e-07
11.3054
1.10893e-07
11.3055
1.08337e-07
11.3054
1.0648e-07
11.3053
1.03228e-07
11.3051
1.00219e-07
11.3048
9.79071e-08
11.3044
9.56334e-08
11.3039
9.37853e-08
11.3034
9.20172e-08
11.3028
9.09258e-08
11.3022
9.00673e-08
11.3015
8.97544e-08
11.3009
9.00436e-08
11.3002
9.05511e-08
11.2995
9.18753e-08
11.2988
9.35252e-08
11.2982
9.56115e-08
11.2976
9.82454e-08
11.2971
1.01007e-07
11.2967
1.04221e-07
11.2963
1.07548e-07
11.296
1.11002e-07
11.2959
1.14505e-07
11.2958
1.17847e-07
11.2958
1.20217e-07
11.2959
1.23579e-07
11.2961
1.26898e-07
11.2964
1.29477e-07
11.2968
1.3132e-07
11.2972
1.33092e-07
11.2977
1.34311e-07
11.2982
1.34913e-07
11.2987
1.35351e-07
11.2993
1.35047e-07
11.2999
1.34272e-07
11.3004
1.33221e-07
11.3009
1.31467e-07
11.3014
1.2937e-07
11.3018
1.26898e-07
11.3022
1.23897e-07
11.3024
1.20666e-07
11.3026
1.17147e-07
11.3026
1.13521e-07
11.3026
1.11037e-07
11.3024
1.06047e-07
11.3021
1.01883e-07
11.3016
9.83528e-08
11.3011
9.49876e-08
11.3004
9.22464e-08
11.2996
8.95652e-08
11.2988
8.77953e-08
11.2978
8.6322e-08
11.2968
8.55762e-08
11.2957
8.53361e-08
11.2946
8.54125e-08
11.2935
8.60946e-08
11.2923
8.66967e-08
11.2911
8.76262e-08
11.2899
8.83192e-08
11.2885
8.8643e-08
11.2872
8.86921e-08
11.2857
8.79099e-08
11.2841
8.66094e-08
11.2823
8.45266e-08
11.2804
8.16599e-08
11.2782
7.82929e-08
11.2758
7.42566e-08
11.2732
7.00875e-08
11.2703
6.5822e-08
11.2671
6.17893e-08
11.2637
5.8264e-08
11.26
5.5381e-08
11.256
5.35747e-08
11.2519
5.28489e-08
11.2476
5.34801e-08
11.2432
5.55519e-08
11.2386
5.9068e-08
11.234
6.43031e-08
11.2295
7.09733e-08
11.2249
7.94498e-08
11.2205
8.94379e-08
11.2162
1.00898e-07
11.2122
1.14207e-07
11.2083
1.27897e-07
11.2048
1.44111e-07
11.2016
1.60646e-07
11.1988
1.93402e-07
11.1963
3.06412e-07
11.1942
1.0456e-06
11.1925
6.15024e-06
11.1912
4.25782e-05
11.1908
0.000300903
11.1943
0.00221431
11.2239
0.0164778
11.4136
0.180868
0.687959
12.3142
5.74577
5.74476
5.74371
5.74261
5.74143
5.74017
5.73881
5.73735
5.73578
5.73409
5.73228
5.73035
5.7283
5.72614
5.72386
5.72149
5.71902
5.7165
5.71392
5.71134
5.70878
5.70626
5.70383
5.70153
5.69937
5.69739
5.69562
5.69408
5.69276
5.69169
5.69085
5.69024
5.68983
5.68961
5.68954
5.68958
5.6897
5.68987
5.69004
5.69019
5.69028
5.69027
5.69015
5.68991
5.68951
5.68897
5.68826
5.68741
5.68641
5.68527
5.68402
5.68267
5.68124
5.67974
5.67819
5.67661
5.67501
5.67341
5.67181
5.67024
5.66869
5.66718
5.66571
5.66428
5.66289
5.66156
5.66028
5.65906
5.65789
5.65679
5.65574
5.65475
5.65382
5.65296
5.65215
5.65142
5.65074
5.65013
5.64959
5.64911
5.64869
5.64833
5.64804
5.6478
5.64762
5.64749
5.64742
5.64739
5.64741
5.64747
5.64756
5.64769
5.64784
5.64801
5.6482
5.64841
5.64861
5.64882
5.64902
5.64921
5.64938
5.64953
5.64965
5.64974
5.64979
5.64981
5.64978
5.64972
5.64961
5.64946
5.64927
5.64905
5.64879
5.6485
5.64818
5.64785
5.6475
5.64716
5.64681
5.64648
5.64617
5.64588
5.64563
5.64541
5.64523
5.6451
5.64502
5.64499
5.645
5.64505
5.64516
5.6453
5.64548
5.64569
5.64592
5.64618
5.64646
5.64674
5.64702
5.6473
5.64756
5.6478
5.64801
5.64818
5.64831
5.64839
5.64841
5.64838
5.64829
5.64813
5.64791
5.64764
5.6473
5.64691
5.64648
5.64601
5.6455
5.64497
5.64441
5.64384
5.64325
5.64265
5.64202
5.64137
5.64068
5.63994
5.63913
5.63826
5.63728
5.63621
5.63501
5.63369
5.63223
5.63064
5.62892
5.62708
5.62511
5.62305
5.6209
5.61868
5.61641
5.61412
5.61183
5.60956
5.60735
5.60521
5.60318
5.60127
5.59951
5.59792
5.5965
5.59526
5.59421
5.59335
5.5927
5.59249
5.59433
5.61059
5.79137
6.47938
4.94313
0.122183
4.95187
-0.00873611
4.95159
0.000289666
4.96276
-0.0111727
4.98977
-0.0270389
5.02967
-0.0399519
5.05938
-0.0297729
5.04801
0.0112982
4.99606
0.0519476
4.94468
0.051506
5.05088
-0.10528
5.36266
-0.311193
5.78073
-0.418424
6.10571
-0.326193
6.16166
-0.0582617
6.04964
0.110874
5.87435
0.174767
5.65482
0.219184
5.4701
0.184721
-0.653539
6.12484
10.3281
0.171349
10.3507
-0.0313042
10.4046
-0.0536061
10.4731
-0.079636
10.5667
-0.120681
10.6898
-0.163225
10.7956
-0.135653
10.8238
-0.0170027
10.7637
0.112078
10.6703
0.145057
10.838
-0.271054
11.3898
-0.862081
12.2024
-1.23199
12.962
-1.08905
13.2736
-0.374289
13.2382
0.144599
13.012
0.400229
12.5927
0.638172
11.9856
0.792021
-1.27457
12.6091
133.641
0.120424
133.71
-0.0997306
133.704
-0.0474764
133.526
0.0987015
133.176
0.230227
132.701
0.312921
132.2
0.36758
131.828
0.354212
131.554
0.386913
131.343
0.355611
130.712
0.359454
129.51
0.339966
127.965
0.316042
126.597
0.283893
125.985
0.244433
125.93
0.202768
126.171
0.15912
126.7
0.108378
127.451
0.0380201
-0.151198
126.323
12.2588
0.175919
12.1648
-0.00569617
12.1233
-0.00601962
12.1969
0.0251433
12.3701
0.0569344
12.6018
0.0812023
12.8697
0.0990998
13.125
0.0995128
13.4029
0.108453
13.6568
0.102242
13.9138
0.102326
14.1574
0.0963135
14.3865
0.0870108
14.597
0.0734071
14.7854
0.0560511
14.9519
0.0362796
15.0982
0.0129205
15.2253
-0.018693
15.3375
-0.0742062
-0.245365
15.4316
6.65531
6.64962
6.64361
6.66875
6.72567
6.80682
6.90574
7.0054
7.11374
7.21611
7.31845
7.41476
7.50177
7.57518
7.63124
7.66753
7.68046
7.66178
7.58758
7.34222
7.54317
-1.41582
7.83
-0.288329
7.77621
0.0521554
7.70351
0.0725567
7.73132
-0.027349
7.80656
-0.0757994
7.84218
-0.0364743
7.83515
0.00613997
7.79401
0.0378699
7.70439
0.0750884
7.56364
0.125173
7.37636
0.182538
7.14975
0.228001
6.9063
0.26366
6.65856
0.262307
6.42298
0.240309
6.21671
0.206075
6.04616
0.166895
5.91141
0.129712
5.80953
0.0988043
5.73459
0.0729238
5.68075
0.0523495
5.64299
0.0365036
5.61714
0.0246839
5.59983
0.0161702
5.58844
0.0102584
5.58099
0.00630273
5.57609
0.00375183
5.57276
0.00216525
5.57038
0.00121235
5.56855
0.0006591
5.56703
0.000348216
5.56569
0.00017894
5.56445
8.95278e-05
5.56328
4.36629e-05
5.56215
2.0791e-05
5.56105
9.69114e-06
5.55999
4.44334e-06
5.55896
2.02386e-06
5.55796
9.34629e-07
5.55699
4.55071e-07
5.55605
2.48136e-07
5.55513
1.60142e-07
5.55425
1.23018e-07
5.55338
1.07239e-07
5.55253
1.00392e-07
5.5517
9.73578e-08
5.55089
9.59535e-08
5.55008
9.54788e-08
5.54927
9.55006e-08
5.54847
9.60499e-08
5.54766
9.70213e-08
5.54684
9.84692e-08
5.54601
1.00377e-07
5.54516
1.02693e-07
5.54428
1.05325e-07
5.54338
1.08184e-07
5.54244
1.11242e-07
5.54147
1.14438e-07
5.54045
1.17758e-07
5.53939
1.21137e-07
5.53827
1.24481e-07
5.5371
1.27669e-07
5.53587
1.30571e-07
5.53459
1.33075e-07
5.53324
1.35044e-07
5.53184
1.36346e-07
5.53039
1.36846e-07
5.52888
1.36462e-07
5.52732
1.35127e-07
5.52573
1.3279e-07
5.52411
1.29363e-07
5.52246
1.24805e-07
5.52081
1.19104e-07
5.51915
1.12275e-07
5.51751
1.0437e-07
5.5159
9.54478e-08
5.51432
8.55889e-08
5.5128
7.4906e-08
5.51133
6.35373e-08
5.50994
5.16393e-08
5.50863
3.93757e-08
5.50741
2.69283e-08
5.50629
1.44883e-08
5.50526
2.4811e-09
5.50434
-9.83528e-09
5.50351
-2.09566e-08
5.50278
-3.13685e-08
5.50214
-4.10037e-08
5.50158
-4.95493e-08
5.5011
-5.6958e-08
5.50068
-6.3148e-08
5.50031
-6.79393e-08
5.49998
-7.11589e-08
5.49967
-7.40765e-08
5.49938
-7.60865e-08
5.49909
-7.57536e-08
5.49879
-7.4866e-08
5.49847
-7.21229e-08
5.49812
-7.17591e-08
5.49774
-6.57983e-08
5.49731
-6.2013e-08
5.49684
-5.60958e-08
5.49631
-5.27998e-08
5.49574
-5.10427e-08
5.49512
-4.71846e-08
5.49446
-4.291e-08
5.49375
-3.85171e-08
5.493
-3.42898e-08
5.49223
-3.05245e-08
5.49143
-2.73922e-08
5.49061
-2.50056e-08
5.48977
-2.33831e-08
5.48894
-2.24099e-08
5.4881
-2.20643e-08
5.48726
-2.21589e-08
5.48644
-2.2972e-08
5.48562
-2.52185e-08
5.48482
-2.64336e-08
5.48404
-2.72103e-08
5.48328
-2.84253e-08
5.48253
-3.01716e-08
5.4818
-3.29965e-08
5.48109
-3.64926e-08
5.48038
-4.04416e-08
5.47969
-4.45816e-08
5.479
-4.85034e-08
5.47832
-5.20631e-08
5.47763
-5.53446e-08
5.47694
-5.85642e-08
5.47624
-6.15873e-08
5.47553
-6.48142e-08
5.47481
-6.81484e-08
5.47407
-7.15117e-08
5.47331
-7.46477e-08
5.47254
-7.87404e-08
5.47176
-8.3035e-08
5.47096
-8.73188e-08
5.47015
-9.14551e-08
5.46933
-9.56334e-08
5.46852
-1.00035e-07
5.4677
-1.04721e-07
5.46689
-1.09665e-07
5.4661
-1.14851e-07
5.46532
-1.20297e-07
5.46458
-1.26056e-07
5.46387
-1.31946e-07
5.4632
-1.37656e-07
5.46258
-1.43045e-07
5.46201
-1.48355e-07
5.4615
-1.54141e-07
5.46106
-1.60368e-07
5.46067
-1.66512e-07
5.46036
-1.71409e-07
5.46012
-1.75258e-07
5.45994
-1.81568e-07
5.45984
-1.8671e-07
5.4598
-1.91305e-07
5.45983
-1.94979e-07
5.45991
-1.95818e-07
5.46006
-1.96766e-07
5.46027
-1.97351e-07
5.46052
-1.98563e-07
5.46083
-1.9863e-07
5.46118
-1.98535e-07
5.46157
-1.98321e-07
5.462
-1.97131e-07
5.46247
-1.95898e-07
5.46297
-1.94397e-07
5.4635
-1.92244e-07
5.46406
-1.88687e-07
5.46464
-1.84562e-07
5.46524
-1.80356e-07
5.46585
-1.77208e-07
5.46647
-1.7427e-07
5.46709
-1.70949e-07
5.4677
-1.66596e-07
5.46831
-1.61137e-07
5.46889
-1.58856e-07
5.46946
-1.47367e-07
5.46999
-1.44832e-07
5.47049
-1.25101e-07
5.47095
-1.42552e-07
5.47138
-1.20846e-07
5.47177
-1.19915e-07
5.47212
-1.13432e-07
5.47243
-1.08041e-07
5.47272
-1.04847e-07
5.47298
-1.04053e-07
5.47322
-1.43147e-07
5.47344
-3.00686e-07
5.47367
-1.22971e-06
5.4739
-5.84577e-06
5.47418
-2.9918e-05
5.47461
-0.000153854
5.47572
-0.000795736
5.48025
-0.00415011
5.50313
-0.0224249
5.66883
-0.165174
-0.641917
6.31139
14.4549
-3.2571
15.0683
-0.904883
15.0227
0.0943414
14.8175
0.277465
14.7757
0.0151698
14.8639
-0.164933
14.9165
-0.0901135
14.9014
0.020119
14.8431
0.09442
14.729
0.18337
14.5396
0.306147
14.2634
0.455578
13.9017
0.589208
13.4864
0.683417
13.0499
0.701383
12.6328
0.657332
12.2651
0.572472
11.9616
0.468791
11.7237
0.36576
11.5453
0.275408
11.4158
0.200397
11.3247
0.141404
11.2622
0.0968313
11.2204
0.0643544
11.1928
0.0415015
11.1749
0.0259647
11.1631
0.0157613
11.1553
0.00928557
11.1498
0.00531188
11.1458
0.00295212
11.1425
0.00159492
11.1396
0.000838224
11.1371
0.000428855
11.1346
0.000213761
11.1323
0.000103892
11.1301
4.92855e-05
11.1279
2.28525e-05
11.1258
1.03796e-05
11.1237
4.63723e-06
11.1217
2.05561e-06
11.1198
9.20952e-07
11.1179
4.32818e-07
11.1161
2.2676e-07
11.1143
1.41144e-07
11.1126
1.05912e-07
11.1109
9.14455e-08
11.1092
8.55034e-08
11.1076
8.30381e-08
11.1059
8.21332e-08
11.1043
8.19998e-08
11.1027
8.23842e-08
11.1011
8.32104e-08
11.0995
8.44445e-08
11.0978
8.60855e-08
11.0961
8.8079e-08
11.0944
9.03453e-08
11.0926
9.28026e-08
11.0907
9.54177e-08
11.0887
9.81577e-08
11.0867
1.00992e-07
11.0846
1.03886e-07
11.0823
1.06748e-07
11.08
1.09474e-07
11.0775
1.11954e-07
11.075
1.14097e-07
11.0723
1.15786e-07
11.0695
1.16897e-07
11.0666
1.17324e-07
11.0635
1.16993e-07
11.0604
1.15849e-07
11.0573
1.13842e-07
11.054
1.10907e-07
11.0507
1.06999e-07
11.0474
1.02111e-07
11.0441
9.62571e-08
11.0408
8.94778e-08
11.0376
8.18284e-08
11.0344
7.33755e-08
11.0314
6.42128e-08
11.0285
5.44618e-08
11.0257
4.42694e-08
11.0231
3.37828e-08
11.0206
2.31551e-08
11.0184
1.25445e-08
11.0163
2.658e-09
11.0145
-8.86257e-09
11.0128
-1.80132e-08
11.0114
-2.67681e-08
11.0101
-3.51415e-08
11.009
-4.24376e-08
11.008
-4.87737e-08
11.0071
-5.40791e-08
11.0064
-5.82226e-08
11.0057
-6.09142e-08
11.0051
-6.34806e-08
11.0045
-6.51637e-08
11.004
-6.49692e-08
11.0034
-6.4075e-08
11.0027
-6.19766e-08
11.002
-6.13085e-08
11.0013
-5.64778e-08
11.0004
-5.29375e-08
10.9995
-4.81143e-08
10.9984
-4.54169e-08
10.9973
-4.36547e-08
10.996
-4.03667e-08
10.9947
-3.67578e-08
10.9933
-3.29899e-08
10.9918
-2.93627e-08
10.9902
-2.61393e-08
10.9886
-2.34588e-08
10.987
-2.1413e-08
10.9853
-2.00573e-08
10.9836
-1.92514e-08
10.982
-1.89538e-08
10.9803
-1.90043e-08
10.9786
-1.96408e-08
10.977
-2.15917e-08
10.9754
-2.27276e-08
10.9739
-2.33114e-08
10.9723
-2.43043e-08
10.9708
-2.57991e-08
10.9694
-2.82204e-08
10.9679
-3.12504e-08
10.9665
-3.46497e-08
10.9652
-3.82198e-08
10.9638
-4.1594e-08
10.9624
-4.46522e-08
10.961
-4.74637e-08
10.9597
-5.02176e-08
10.9583
-5.28308e-08
10.9568
-5.5576e-08
10.9554
-5.84513e-08
10.9539
-6.134e-08
10.9524
-6.40418e-08
10.9509
-6.74069e-08
10.9493
-7.11657e-08
10.9477
-7.485e-08
10.9461
-7.83987e-08
10.9444
-8.19866e-08
10.9428
-8.57675e-08
10.9412
-8.97805e-08
10.9395
-9.4002e-08
10.938
-9.84436e-08
10.9364
-1.03112e-07
10.9349
-1.08043e-07
10.9335
-1.13099e-07
10.9322
-1.17986e-07
10.9309
-1.22607e-07
10.9298
-1.27173e-07
10.9288
-1.32114e-07
10.9279
-1.37441e-07
10.9271
-1.42691e-07
10.9265
-1.46917e-07
10.926
-1.5037e-07
10.9256
-1.55517e-07
10.9254
-1.60016e-07
10.9254
-1.64132e-07
10.9254
-1.66883e-07
10.9256
-1.67865e-07
10.9259
-1.68647e-07
10.9263
-1.69182e-07
10.9268
-1.70105e-07
10.9274
-1.70285e-07
10.9281
-1.70191e-07
10.9289
-1.6997e-07
10.9298
-1.6901e-07
10.9307
-1.67946e-07
10.9317
-1.6665e-07
10.9328
-1.64817e-07
10.9339
-1.61795e-07
10.935
-1.58157e-07
10.9362
-1.54624e-07
10.9374
-1.51891e-07
10.9387
-1.49387e-07
10.9399
-1.46521e-07
10.9412
-1.42863e-07
10.9424
-1.39358e-07
10.9435
-1.20722e-07
10.9447
-1.36531e-07
10.9457
-1.38481e-07
10.9467
-7.94597e-08
10.9476
-1.48474e-07
10.9485
-9.39258e-08
10.9493
-1.04713e-07
10.95
-9.67444e-08
10.9506
-9.2269e-08
10.9512
-9.33418e-08
10.9517
-1.04285e-07
10.9522
-2.22397e-07
10.9526
-6.88196e-07
10.9531
-3.4377e-06
10.9535
-1.70722e-05
10.9541
-8.81567e-05
10.9549
-0.000453993
10.9571
-0.00234556
10.9659
-0.0121411
11.0077
-0.0633567
11.1997
-0.356118
-1.46602
12.0251
122.997
0.0602528
122.128
-0.0415462
122.205
0.0107185
122.431
0.0415984
122.404
0.0275911
122.289
-0.0623534
122.364
-0.169034
122.67
-0.284107
123.179
-0.419701
123.9
-0.548063
124.828
-0.636378
125.934
-0.666189
127.144
-0.638545
128.385
-0.574685
129.564
-0.496087
130.616
-0.41371
131.502
-0.334598
132.21
-0.261343
132.747
-0.195377
133.138
-0.139867
133.409
-0.095655
133.588
-0.0624024
133.698
-0.0388188
133.76
-0.0229847
133.788
-0.0129366
133.794
-0.00690061
133.786
-0.00346537
133.769
-0.00162447
133.748
-0.000696084
133.723
-0.000260672
133.696
-7.47618e-05
133.669
-5.71225e-06
133.642
1.36595e-05
133.614
1.4764e-05
133.587
1.08772e-05
133.561
6.82198e-06
133.535
3.87262e-06
133.509
2.03325e-06
133.484
9.8883e-07
133.46
4.3507e-07
133.437
1.57007e-07
133.415
2.39754e-08
133.393
-3.75927e-08
133.371
-6.42847e-08
133.351
-7.53074e-08
133.33
-7.95005e-08
133.31
-8.09263e-08
133.291
-8.13175e-08
133.271
-8.1498e-08
133.252
-8.17698e-08
133.233
-8.2303e-08
133.213
-8.31798e-08
133.194
-8.44367e-08
133.174
-8.6084e-08
133.153
-8.80787e-08
133.132
-9.03447e-08
133.111
-9.28032e-08
133.088
-9.54161e-08
133.065
-9.81559e-08
133.04
-1.00992e-07
133.015
-1.03887e-07
132.988
-1.06746e-07
132.96
-1.09474e-07
132.93
-1.11957e-07
132.9
-1.14097e-07
132.867
-1.15784e-07
132.834
-1.16894e-07
132.799
-1.17323e-07
132.763
-1.16992e-07
132.725
-1.15851e-07
132.687
-1.13842e-07
132.648
-1.10908e-07
132.609
-1.07002e-07
132.569
-1.0211e-07
132.529
-9.62583e-08
132.49
-8.94792e-08
132.451
-8.18271e-08
132.413
-7.3373e-08
132.377
-6.42141e-08
132.341
-5.44622e-08
132.308
-4.42705e-08
132.277
-3.37807e-08
132.247
-2.31532e-08
132.22
-1.25455e-08
132.196
-2.65652e-09
132.174
8.86314e-09
132.154
1.80175e-08
132.136
2.67711e-08
132.121
3.51436e-08
132.107
4.24376e-08
132.096
4.87778e-08