/*--------------------------------*- C++ -*----------------------------------*\
| =========                 |                                                 |
| \\      /  F ield         | OpenFOAM: The Open Source CFD Toolbox           |
|  \\    /   O peration     | Version:  3.0.x                                 |
|   \\  /    A nd           | Web:      www.OpenFOAM.org                      |
|    \\/     M anipulation  |                                                 |
\*---------------------------------------------------------------------------*/
FoamFile
{
    version     2.0;
    format      ascii;
    class       volVectorField;
    location    "0.07";
    object      U;
}
// * * * * * * * * * * * * * * * * * * * * * * * * * * * * * * * * * * * * * //

dimensions      [0 1 -1 0 0 0 0];

internalField   nonuniform List<vector> 
6900
(
(42.6958 0.000102016 0)
(42.6885 9.33895e-05 0)
(42.6804 9.05693e-05 0)
(42.6722 9.11744e-05 0)
(42.6634 9.10374e-05 0)
(42.654 8.96466e-05 0)
(42.6439 8.6748e-05 0)
(42.6329 8.19682e-05 0)
(42.621 7.51557e-05 0)
(42.6082 6.65175e-05 0)
(42.5944 5.66036e-05 0)
(42.5797 4.61867e-05 0)
(42.564 3.60815e-05 0)
(42.5474 2.69705e-05 0)
(42.5298 1.92931e-05 0)
(42.5114 1.32181e-05 0)
(42.4922 8.68546e-06 0)
(42.4724 5.48496e-06 0)
(42.4522 3.33931e-06 0)
(42.4317 1.96946e-06 0)
(42.4113 1.13432e-06 0)
(42.3911 6.46777e-07 0)
(42.3715 3.73338e-07 0)
(42.3527 2.25223e-07 0)
(42.3349 1.4693e-07 0)
(42.3185 1.05746e-07 0)
(42.3036 8.34896e-08 0)
(42.2904 7.0448e-08 0)
(42.279 6.16417e-08 0)
(42.2695 5.46004e-08 0)
(42.2619 4.81716e-08 0)
(42.2561 4.18718e-08 0)
(42.252 3.56496e-08 0)
(42.2495 2.96692e-08 0)
(42.2483 2.40907e-08 0)
(42.2482 1.97245e-08 0)
(42.2488 1.48554e-08 0)
(42.25 1.07096e-08 0)
(42.2513 8.27073e-09 0)
(42.2526 7.55796e-09 0)
(42.2535 7.59909e-09 0)
(42.2539 8.05438e-09 0)
(42.2534 9.08433e-09 0)
(42.252 1.09665e-08 0)
(42.2495 1.29239e-08 0)
(42.2458 1.48524e-08 0)
(42.2409 1.6979e-08 0)
(42.2347 1.91006e-08 0)
(42.2274 2.10235e-08 0)
(42.2189 2.26634e-08 0)
(42.2095 2.39175e-08 0)
(42.1992 2.51409e-08 0)
(42.1881 2.57319e-08 0)
(42.1765 2.60978e-08 0)
(42.1644 2.59404e-08 0)
(42.152 2.56844e-08 0)
(42.1394 2.49032e-08 0)
(42.1267 2.38713e-08 0)
(42.114 2.26059e-08 0)
(42.1014 2.11301e-08 0)
(42.089 1.9467e-08 0)
(42.0769 1.75201e-08 0)
(42.065 1.56617e-08 0)
(42.0535 1.35789e-08 0)
(42.0423 1.14633e-08 0)
(42.0316 9.30034e-09 0)
(42.0212 7.14982e-09 0)
(42.0113 4.86368e-09 0)
(42.0018 1.99377e-09 0)
(41.9928 -9.53632e-10 0)
(41.9842 -3.27581e-09 0)
(41.9761 -5.56496e-09 0)
(41.9685 -7.86978e-09 0)
(41.9614 -1.01676e-08 0)
(41.9548 -1.24019e-08 0)
(41.9487 -1.46615e-08 0)
(41.9431 -1.68198e-08 0)
(41.938 -1.89755e-08 0)
(41.9334 -2.10964e-08 0)
(41.9293 -2.3101e-08 0)
(41.9257 -2.50853e-08 0)
(41.9227 -2.69694e-08 0)
(41.9201 -2.88051e-08 0)
(41.918 -3.05411e-08 0)
(41.9163 -3.21828e-08 0)
(41.9151 -3.37577e-08 0)
(41.9143 -3.51905e-08 0)
(41.9139 -3.65676e-08 0)
(41.9139 -3.74494e-08 0)
(41.9142 -3.89444e-08 0)
(41.9147 -3.98503e-08 0)
(41.9156 -4.07573e-08 0)
(41.9167 -4.15764e-08 0)
(41.918 -4.22082e-08 0)
(41.9195 -4.27226e-08 0)
(41.921 -4.31725e-08 0)
(41.9227 -4.34289e-08 0)
(41.9243 -4.35921e-08 0)
(41.9259 -4.36954e-08 0)
(41.9275 -4.36117e-08 0)
(41.9289 -4.34791e-08 0)
(41.9302 -4.32714e-08 0)
(41.9312 -4.29379e-08 0)
(41.9321 -4.25845e-08 0)
(41.9327 -4.21804e-08 0)
(41.9329 -4.17389e-08 0)
(41.9329 -4.14352e-08 0)
(41.9326 -4.0861e-08 0)
(41.9319 -4.0317e-08 0)
(41.9309 -3.98989e-08 0)
(41.9296 -3.95267e-08 0)
(41.9279 -3.92225e-08 0)
(41.926 -3.89356e-08 0)
(41.9238 -3.87821e-08 0)
(41.9214 -3.86671e-08 0)
(41.9189 -3.8664e-08 0)
(41.9162 -3.87961e-08 0)
(41.9134 -3.89605e-08 0)
(41.9107 -3.93085e-08 0)
(41.908 -3.9733e-08 0)
(41.9055 -4.02436e-08 0)
(41.9031 -4.08795e-08 0)
(41.9009 -4.15419e-08 0)
(41.8991 -4.2286e-08 0)
(41.8975 -4.30643e-08 0)
(41.8963 -4.38751e-08 0)
(41.8954 -4.47121e-08 0)
(41.895 -4.55276e-08 0)
(41.8949 -4.61616e-08 0)
(41.8951 -4.69942e-08 0)
(41.8957 -4.78358e-08 0)
(41.8967 -4.85509e-08 0)
(41.898 -4.91014e-08 0)
(41.8995 -4.96458e-08 0)
(41.9013 -5.0071e-08 0)
(41.9033 -5.03462e-08 0)
(41.9054 -5.05899e-08 0)
(41.9076 -5.06512e-08 0)
(41.9098 -5.05924e-08 0)
(41.912 -5.0472e-08 0)
(41.9142 -5.01745e-08 0)
(41.9161 -4.9793e-08 0)
(41.9179 -4.93268e-08 0)
(41.9194 -4.8727e-08 0)
(41.9207 -4.80751e-08 0)
(41.9215 -4.73672e-08 0)
(41.9219 -4.6629e-08 0)
(41.9219 -4.61314e-08 0)
(41.9214 -4.51355e-08 0)
(41.9204 -4.42815e-08 0)
(41.919 -4.3523e-08 0)
(41.917 -4.27813e-08 0)
(41.9146 -4.21452e-08 0)
(41.9117 -4.14892e-08 0)
(41.9085 -4.10226e-08 0)
(41.9049 -4.06033e-08 0)
(41.901 -4.03598e-08 0)
(41.8969 -4.02423e-08 0)
(41.8926 -4.02003e-08 0)
(41.8881 -4.0339e-08 0)
(41.8835 -4.04701e-08 0)
(41.8788 -4.07245e-08 0)
(41.8739 -4.09513e-08 0)
(41.8688 -4.11141e-08 0)
(41.8635 -4.12677e-08 0)
(41.8578 -4.12409e-08 0)
(41.8517 -4.11275e-08 0)
(41.8451 -4.08562e-08 0)
(41.8377 -4.03967e-08 0)
(41.8296 -3.98135e-08 0)
(41.8206 -3.90229e-08 0)
(41.8106 -3.81385e-08 0)
(41.7997 -3.7136e-08 0)
(41.7876 -3.60909e-08 0)
(41.7745 -3.50739e-08 0)
(41.7604 -3.41204e-08 0)
(41.7453 -3.33999e-08 0)
(41.7293 -3.29299e-08 0)
(41.7126 -3.28338e-08 0)
(41.6953 -3.32008e-08 0)
(41.6775 -3.395e-08 0)
(41.6595 -3.54281e-08 0)
(41.6413 -3.69726e-08 0)
(41.6233 -3.97726e-08 0)
(41.6055 -4.16699e-08 0)
(41.5883 -4.57531e-08 0)
(41.5717 -4.8323e-08 0)
(41.5561 -5.24303e-08 0)
(41.5416 -5.67497e-08 0)
(41.5283 -5.94689e-08 0)
(41.5163 -6.28788e-08 0)
(41.5058 -5.80288e-08 0)
(41.4967 2.46756e-08 0)
(41.489 6.43469e-07 0)
(41.4827 5.06975e-06 0)
(41.4771 3.56992e-05 0)
(41.4681 0.000252531 0)
(41.4273 0.0017785 0)
(41.2514 0.0161353 0)
(38.7835 0.0836765 0)
(42.6976 0.000129425 0)
(42.6921 0.000100037 0)
(42.6858 8.64478e-05 0)
(42.6794 8.57049e-05 0)
(42.6724 8.49574e-05 0)
(42.6648 8.29745e-05 0)
(42.6563 7.9857e-05 0)
(42.647 7.52287e-05 0)
(42.6366 6.88741e-05 0)
(42.6252 6.09353e-05 0)
(42.6127 5.18774e-05 0)
(42.5989 4.23768e-05 0)
(42.584 3.31577e-05 0)
(42.568 2.48345e-05 0)
(42.5508 1.78075e-05 0)
(42.5327 1.22348e-05 0)
(42.5137 8.06682e-06 0)
(42.4941 5.11633e-06 0)
(42.4739 3.13302e-06 0)
(42.4535 1.86315e-06 0)
(42.4331 1.08631e-06 0)
(42.4129 6.30533e-07 0)
(42.3933 3.72607e-07 0)
(42.3745 2.30404e-07 0)
(42.3568 1.52749e-07 0)
(42.3403 1.09668e-07 0)
(42.3254 8.44367e-08 0)
(42.3122 6.8024e-08 0)
(42.3008 5.57307e-08 0)
(42.2913 4.5276e-08 0)
(42.2837 3.56558e-08 0)
(42.2779 2.65312e-08 0)
(42.2739 1.78758e-08 0)
(42.2713 1.00907e-08 0)
(42.2701 4.17688e-09 0)
(42.27 1.88654e-09 0)
(42.2706 -5.89246e-10 0)
(42.2718 -1.2616e-09 0)
(42.2731 -3.56243e-10 0)
(42.2744 1.55967e-09 0)
(42.2753 3.49614e-09 0)
(42.2757 5.40213e-09 0)
(42.2752 8.00688e-09 0)
(42.2738 1.20217e-08 0)
(42.2713 1.60336e-08 0)
(42.2676 1.99991e-08 0)
(42.2627 2.41687e-08 0)
(42.2565 2.81569e-08 0)
(42.2492 3.17212e-08 0)
(42.2407 3.47209e-08 0)
(42.2313 3.70005e-08 0)
(42.221 3.89264e-08 0)
(42.2099 3.98419e-08 0)
(42.1983 4.02463e-08 0)
(42.1862 3.98221e-08 0)
(42.1738 3.90705e-08 0)
(42.1612 3.75554e-08 0)
(42.1485 3.56191e-08 0)
(42.1358 3.33111e-08 0)
(42.1232 3.07216e-08 0)
(42.1108 2.78668e-08 0)
(42.0987 2.46837e-08 0)
(42.0868 2.1597e-08 0)
(42.0753 1.82835e-08 0)
(42.0641 1.49388e-08 0)
(42.0533 1.15522e-08 0)
(42.043 8.2032e-09 0)
(42.0331 4.7242e-09 0)
(42.0236 6.98568e-10 0)
(42.0145 -3.04194e-09 0)
(42.006 -5.82656e-09 0)
(41.9979 -8.68383e-09 0)
(41.9903 -1.15657e-08 0)
(41.9832 -1.44007e-08 0)
(41.9765 -1.71653e-08 0)
(41.9704 -1.99794e-08 0)
(41.9648 -2.26501e-08 0)
(41.9597 -2.52962e-08 0)
(41.9551 -2.78715e-08 0)
(41.9511 -3.0332e-08 0)
(41.9475 -3.27189e-08 0)
(41.9444 -3.49653e-08 0)
(41.9418 -3.7133e-08 0)
(41.9397 -3.91616e-08 0)
(41.938 -4.10441e-08 0)
(41.9368 -4.28165e-08 0)
(41.936 -4.43907e-08 0)
(41.9356 -4.58705e-08 0)
(41.9356 -4.65469e-08 0)
(41.9359 -4.82641e-08 0)
(41.9365 -4.908e-08 0)
(41.9373 -4.98596e-08 0)
(41.9384 -5.05056e-08 0)
(41.9397 -5.08756e-08 0)
(41.9412 -5.1082e-08 0)
(41.9427 -5.11813e-08 0)
(41.9444 -5.09989e-08 0)
(41.946 -5.06874e-08 0)
(41.9476 -5.02624e-08 0)
(41.9492 -4.95951e-08 0)
(41.9506 -4.88342e-08 0)
(41.9519 -4.79691e-08 0)
(41.9529 -4.69298e-08 0)
(41.9538 -4.58551e-08 0)
(41.9544 -4.47051e-08 0)
(41.9546 -4.35331e-08 0)
(41.9546 -4.25971e-08 0)
(41.9543 -4.11892e-08 0)
(41.9536 -3.98394e-08 0)
(41.9526 -3.87433e-08 0)
(41.9513 -3.76926e-08 0)
(41.9496 -3.67737e-08 0)
(41.9477 -3.59027e-08 0)
(41.9455 -3.52687e-08 0)
(41.9431 -3.47334e-08 0)
(41.9405 -3.44073e-08 0)
(41.9379 -3.43106e-08 0)
(41.9351 -3.43202e-08 0)
(41.9324 -3.46414e-08 0)
(41.9297 -3.51209e-08 0)
(41.9271 -3.57768e-08 0)
(41.9247 -3.66616e-08 0)
(41.9226 -3.76202e-08 0)
(41.9207 -3.87608e-08 0)
(41.9191 -3.99839e-08 0)
(41.9179 -4.1287e-08 0)
(41.9171 -4.26475e-08 0)
(41.9166 -4.39853e-08 0)
(41.9165 -4.50301e-08 0)
(41.9168 -4.63866e-08 0)
(41.9174 -4.78639e-08 0)
(41.9183 -4.90374e-08 0)
(41.9196 -4.99618e-08 0)
(41.9211 -5.08567e-08 0)
(41.9229 -5.15442e-08 0)
(41.9249 -5.19785e-08 0)
(41.927 -5.23379e-08 0)
(41.9292 -5.23912e-08 0)
(41.9314 -5.22297e-08 0)
(41.9336 -5.1936e-08 0)
(41.9358 -5.13451e-08 0)
(41.9377 -5.05812e-08 0)
(41.9395 -4.96482e-08 0)
(41.941 -4.8482e-08 0)
(41.9422 -4.71954e-08 0)
(41.9431 -4.5782e-08 0)
(41.9435 -4.43078e-08 0)
(41.9435 -4.32002e-08 0)
(41.943 -4.12358e-08 0)
(41.942 -3.94588e-08 0)
(41.9406 -3.78758e-08 0)
(41.9386 -3.6341e-08 0)
(41.9362 -3.4987e-08 0)
(41.9333 -3.36287e-08 0)
(41.9301 -3.25871e-08 0)
(41.9265 -3.16443e-08 0)
(41.9226 -3.09849e-08 0)
(41.9185 -3.05502e-08 0)
(41.9141 -3.02665e-08 0)
(41.9097 -3.02709e-08 0)
(41.9051 -3.0283e-08 0)
(41.9003 -3.04691e-08 0)
(41.8954 -3.0601e-08 0)
(41.8904 -3.06164e-08 0)
(41.885 -3.05406e-08 0)
(41.8794 -3.01576e-08 0)
(41.8733 -2.95478e-08 0)
(41.8666 -2.86413e-08 0)
(41.8593 -2.73771e-08 0)
(41.8512 -2.58714e-08 0)
(41.8422 -2.40418e-08 0)
(41.8322 -2.20835e-08 0)
(41.8212 -2.00393e-08 0)
(41.8091 -1.80556e-08 0)
(41.796 -1.62875e-08 0)
(41.7819 -1.48343e-08 0)
(41.7668 -1.38908e-08 0)
(41.7508 -1.34774e-08 0)
(41.7341 -1.3671e-08 0)
(41.7168 -1.45146e-08 0)
(41.699 -1.5884e-08 0)
(41.681 -1.81043e-08 0)
(41.6628 -2.051e-08 0)
(41.6448 -2.43511e-08 0)
(41.627 -2.73272e-08 0)
(41.6098 -3.3105e-08 0)
(41.5932 -3.72181e-08 0)
(41.5776 -4.26592e-08 0)
(41.5631 -4.9424e-08 0)
(41.5498 -5.24391e-08 0)
(41.5378 -4.88753e-08 0)
(41.5272 1.96973e-08 0)
(41.5181 5.54781e-07 0)
(41.5105 4.32826e-06 0)
(41.5042 3.08797e-05 0)
(41.4986 0.000215861 0)
(41.4897 0.00151296 0)
(41.45 0.0104871 0)
(41.2793 0.0758396 0)
(39.3729 0.36069 0)
(42.6976 6.50753e-13 0)
(42.692 -2.63023e-13 0)
(42.6858 2.0348e-14 0)
(42.6793 4.46246e-13 0)
(42.6724 -7.0738e-13 0)
(42.6647 -3.457e-12 0)
(42.6563 -7.0788e-12 0)
(42.647 -9.0017e-12 0)
(42.6366 -9.56398e-12 0)
(42.6252 -8.28904e-12 0)
(42.6126 -7.2848e-12 0)
(42.5989 -1.00737e-11 0)
(42.584 -1.17236e-11 0)
(42.568 -1.27988e-11 0)
(42.5508 -1.32309e-11 0)
(42.5327 -1.42909e-11 0)
(42.5137 -1.52008e-11 0)
(42.4941 -1.454e-11 0)
(42.4739 -1.27402e-11 0)
(42.4535 -1.2695e-11 0)
(42.4331 -1.24655e-11 0)
(42.4129 -1.11742e-11 0)
(42.3933 -8.15616e-12 0)
(42.3745 -2.8341e-12 0)
(42.3568 2.97311e-12 0)
(42.3403 4.43446e-12 0)
(42.3254 5.15993e-12 0)
(42.3122 3.35096e-12 0)
(42.3008 1.51388e-12 0)
(42.2913 2.95751e-12 0)
(42.2837 3.18701e-12 0)
(42.2779 1.80982e-12 0)
(42.2739 2.39344e-12 0)
(42.2713 4.4001e-12 0)
(42.2701 9.08489e-12 0)
(42.27 7.72977e-12 0)
(42.2706 6.81509e-12 0)
(42.2718 4.94475e-12 0)
(42.2731 5.20679e-12 0)
(42.2744 3.42681e-12 0)
(42.2754 3.83948e-12 0)
(42.2757 2.99395e-13 0)
(42.2752 -3.88298e-13 0)
(42.2738 2.26716e-12 0)
(42.2713 2.40704e-12 0)
(42.2676 1.91841e-12 0)
(42.2627 8.01832e-13 0)
(42.2565 -8.53135e-13 0)
(42.2492 -2.28494e-12 0)
(42.2407 -2.52794e-12 0)
(42.2313 -1.26497e-12 0)
(42.221 -1.75175e-12 0)
(42.2099 -5.66764e-13 0)
(42.1983 1.20129e-12 0)
(42.1862 1.10505e-12 0)
(42.1738 -6.24416e-13 0)
(42.1612 -2.01113e-12 0)
(42.1485 -2.86088e-12 0)
(42.1358 -4.47009e-12 0)
(42.1232 -8.38057e-12 0)
(42.1108 -8.33323e-12 0)
(42.0987 -8.05282e-12 0)
(42.0868 -6.28726e-12 0)
(42.0753 -6.0566e-12 0)
(42.0641 -3.90619e-12 0)
(42.0533 -5.68012e-13 0)
(42.043 -1.94768e-12 0)
(42.0331 -4.12055e-12 0)
(42.0236 -1.09387e-12 0)
(42.0145 -1.56217e-12 0)
(42.006 -8.30784e-13 0)
(41.9979 3.17368e-13 0)
(41.9903 5.17516e-13 0)
(41.9832 -8.58627e-14 0)
(41.9765 -4.09565e-13 0)
(41.9704 -1.98285e-13 0)
(41.9648 -1.93185e-12 0)
(41.9597 -4.71236e-12 0)
(41.9551 -1.00792e-11 0)
(41.9511 -1.59851e-11 0)
(41.9475 -1.81283e-11 0)
(41.9444 -1.64633e-11 0)
(41.9418 -1.62752e-11 0)
(41.9397 -1.71682e-11 0)
(41.938 -1.34265e-11 0)
(41.9368 -1.11769e-11 0)
(41.936 -7.98729e-12 0)
(41.9356 -5.75639e-12 0)
(41.9356 -4.60765e-12 0)
(41.9359 -3.30961e-12 0)
(41.9365 -1.83503e-13 0)
(41.9373 2.19837e-13 0)
(41.9384 -2.38846e-12 0)
(41.9397 -4.71132e-12 0)
(41.9412 -4.45127e-12 0)
(41.9427 -2.48628e-12 0)
(41.9444 -2.6399e-12 0)
(41.946 -3.26963e-12 0)
(41.9476 -3.53297e-12 0)
(41.9492 -1.62801e-12 0)
(41.9506 6.15643e-13 0)
(41.9519 8.94258e-13 0)
(41.9529 7.03706e-15 0)
(41.9538 -2.07148e-12 0)
(41.9544 -5.51765e-12 0)
(41.9546 -4.12148e-12 0)
(41.9546 -2.60494e-12 0)
(41.9543 -4.56735e-12 0)
(41.9536 -6.0368e-12 0)
(41.9526 -6.80406e-13 0)
(41.9513 7.80237e-12 0)
(41.9496 1.37892e-11 0)
(41.9477 1.7725e-11 0)
(41.9455 1.81798e-11 0)
(41.9431 1.75998e-11 0)
(41.9405 1.71393e-11 0)
(41.9379 1.59342e-11 0)
(41.9351 1.40164e-11 0)
(41.9324 1.08197e-11 0)
(41.9297 7.18618e-12 0)
(41.9271 3.48388e-12 0)
(41.9247 5.55982e-13 0)
(41.9226 -1.08391e-12 0)
(41.9207 -1.45148e-12 0)
(41.9191 -1.52401e-12 0)
(41.9179 -1.9437e-15 0)
(41.9171 -6.45108e-13 0)
(41.9166 -1.50866e-12 0)
(41.9165 -2.37395e-12 0)
(41.9168 -3.46877e-12 0)
(41.9174 -4.63982e-12 0)
(41.9183 -5.86041e-12 0)
(41.9196 -5.39706e-12 0)
(41.9211 -4.17952e-12 0)
(41.9229 -3.34385e-12 0)
(41.9249 -3.59656e-12 0)
(41.927 -3.61052e-12 0)
(41.9292 -2.77702e-12 0)
(41.9314 -1.71369e-12 0)
(41.9336 5.37664e-13 0)
(41.9358 2.94313e-12 0)
(41.9377 5.29351e-12 0)
(41.9395 6.90475e-12 0)
(41.941 7.5144e-12 0)
(41.9422 6.50648e-12 0)
(41.9431 5.75413e-12 0)
(41.9435 5.03971e-12 0)
(41.9435 4.24861e-12 0)
(41.943 3.50832e-12 0)
(41.942 3.2479e-12 0)
(41.9406 4.12355e-12 0)
(41.9386 3.9609e-12 0)
(41.9362 3.61214e-12 0)
(41.9333 1.81044e-12 0)
(41.9301 1.3964e-12 0)
(41.9265 1.41071e-12 0)
(41.9226 5.70825e-13 0)
(41.9185 -1.21819e-12 0)
(41.9141 -2.24412e-12 0)
(41.9097 -2.41068e-12 0)
(41.9051 -3.19136e-12 0)
(41.9003 -3.89352e-12 0)
(41.8954 -3.96888e-12 0)
(41.8904 -3.3484e-12 0)
(41.885 -4.44967e-12 0)
(41.8794 -2.80602e-12 0)
(41.8733 -3.23187e-12 0)
(41.8666 -5.14275e-12 0)
(41.8593 -3.7376e-12 0)
(41.8512 -1.9978e-12 0)
(41.8422 -1.40922e-12 0)
(41.8322 -2.44593e-12 0)
(41.8212 -4.58881e-12 0)
(41.8091 -3.89586e-12 0)
(41.796 -2.37461e-12 0)
(41.7819 -1.28429e-12 0)
(41.7668 -4.8849e-13 0)
(41.7508 -7.58334e-13 0)
(41.7341 -4.58579e-12 0)
(41.7168 -6.90414e-12 0)
(41.699 -4.28939e-12 0)
(41.681 -9.32818e-12 0)
(41.6628 -1.90742e-12 0)
(41.6448 -5.53324e-11 0)
(41.627 6.92113e-11 0)
(41.6098 -3.61359e-10 0)
(41.5932 -1.35362e-10 0)
(41.5776 -8.00296e-11 0)
(41.5631 1.14768e-10 0)
(41.5498 2.56336e-09 0)
(41.5378 2.51018e-08 0)
(41.5272 1.72706e-07 0)
(41.5182 1.23904e-06 0)
(41.5105 8.72285e-06 0)
(41.5043 6.17828e-05 0)
(41.4995 0.000436465 0)
(41.4957 0.00312173 0)
(41.4913 0.0219431 0)
(41.4734 0.156054 0)
(41.326 0.714388 0)
(42.6976 -0.000129425 0)
(42.6921 -0.000100037 0)
(42.6858 -8.64478e-05 0)
(42.6794 -8.57049e-05 0)
(42.6724 -8.49574e-05 0)
(42.6648 -8.29745e-05 0)
(42.6563 -7.9857e-05 0)
(42.647 -7.52287e-05 0)
(42.6366 -6.88742e-05 0)
(42.6252 -6.09353e-05 0)
(42.6127 -5.18774e-05 0)
(42.5989 -4.23768e-05 0)
(42.584 -3.31577e-05 0)
(42.568 -2.48345e-05 0)
(42.5508 -1.78075e-05 0)
(42.5327 -1.22348e-05 0)
(42.5137 -8.06682e-06 0)
(42.4941 -5.11633e-06 0)
(42.4739 -3.13302e-06 0)
(42.4535 -1.86315e-06 0)
(42.4331 -1.0863e-06 0)
(42.4129 -6.30528e-07 0)
(42.3933 -3.72604e-07 0)
(42.3745 -2.30401e-07 0)
(42.3568 -1.52749e-07 0)
(42.3403 -1.09668e-07 0)
(42.3254 -8.44391e-08 0)
(42.3122 -6.80237e-08 0)
(42.3008 -5.57309e-08 0)
(42.2913 -4.52749e-08 0)
(42.2837 -3.56557e-08 0)
(42.2779 -2.6532e-08 0)
(42.2739 -1.78752e-08 0)
(42.2713 -1.00912e-08 0)
(42.2701 -4.18041e-09 0)
(42.27 -1.88781e-09 0)
(42.2706 5.88198e-10 0)
(42.2718 1.26074e-09 0)
(42.2731 3.5454e-10 0)
(42.2744 -1.5613e-09 0)
(42.2753 -3.49544e-09 0)
(42.2757 -5.4019e-09 0)
(42.2752 -8.00918e-09 0)
(42.2738 -1.20225e-08 0)
(42.2713 -1.60332e-08 0)
(42.2676 -1.99999e-08 0)
(42.2627 -2.4169e-08 0)
(42.2565 -2.81587e-08 0)
(42.2492 -3.17219e-08 0)
(42.2407 -3.47208e-08 0)
(42.2313 -3.70001e-08 0)
(42.221 -3.89268e-08 0)
(42.2099 -3.98394e-08 0)
(42.1983 -4.02458e-08 0)
(42.1862 -3.98217e-08 0)
(42.1738 -3.90709e-08 0)
(42.1612 -3.75532e-08 0)
(42.1485 -3.56182e-08 0)
(42.1358 -3.33093e-08 0)
(42.1232 -3.07178e-08 0)
(42.1108 -2.78649e-08 0)
(42.0987 -2.46815e-08 0)
(42.0868 -2.15952e-08 0)
(42.0753 -1.82832e-08 0)
(42.0641 -1.49389e-08 0)
(42.0533 -1.15533e-08 0)
(42.043 -8.2016e-09 0)
(42.0331 -4.72389e-09 0)
(42.0236 -6.99507e-10 0)
(42.0145 3.04134e-09 0)
(42.006 5.82793e-09 0)
(41.9979 8.6842e-09 0)
(41.9903 1.15648e-08 0)
(41.9832 1.44021e-08 0)
(41.9765 1.71682e-08 0)
(41.9704 1.99769e-08 0)
(41.9648 2.26557e-08 0)
(41.9597 2.52965e-08 0)
(41.9551 2.78789e-08 0)
(41.9511 3.03331e-08 0)
(41.9475 3.27231e-08 0)
(41.9444 3.49668e-08 0)
(41.9418 3.7137e-08 0)
(41.9397 3.91667e-08 0)
(41.938 4.10489e-08 0)
(41.9368 4.28193e-08 0)
(41.936 4.43944e-08 0)
(41.9356 4.58703e-08 0)
(41.9356 4.65506e-08 0)
(41.9359 4.82658e-08 0)
(41.9365 4.90797e-08 0)
(41.9373 4.98587e-08 0)
(41.9384 5.05082e-08 0)
(41.9397 5.0877e-08 0)
(41.9412 5.10824e-08 0)
(41.9427 5.11808e-08 0)
(41.9444 5.0998e-08 0)
(41.946 5.06867e-08 0)
(41.9476 5.02632e-08 0)
(41.9492 4.95935e-08 0)
(41.9506 4.88343e-08 0)
(41.9519 4.79692e-08 0)
(41.9529 4.69302e-08 0)
(41.9538 4.58543e-08 0)
(41.9544 4.47075e-08 0)
(41.9546 4.35312e-08 0)
(41.9546 4.25966e-08 0)
(41.9543 4.11896e-08 0)
(41.9536 3.98435e-08 0)
(41.9526 3.87435e-08 0)
(41.9513 3.76889e-08 0)
(41.9496 3.67727e-08 0)
(41.9477 3.58998e-08 0)
(41.9455 3.52644e-08 0)
(41.9431 3.47314e-08 0)
(41.9405 3.4403e-08 0)
(41.9379 3.43087e-08 0)
(41.9351 3.43181e-08 0)
(41.9324 3.46393e-08 0)
(41.9297 3.51192e-08 0)
(41.9271 3.57759e-08 0)
(41.9247 3.66604e-08 0)
(41.9226 3.76224e-08 0)
(41.9207 3.87632e-08 0)
(41.9191 3.99835e-08 0)
(41.9179 4.12861e-08 0)
(41.9171 4.26464e-08 0)
(41.9166 4.39827e-08 0)
(41.9165 4.50267e-08 0)
(41.9168 4.63858e-08 0)
(41.9174 4.78629e-08 0)
(41.9183 4.90383e-08 0)
(41.9196 4.99628e-08 0)
(41.9211 5.08569e-08 0)
(41.9229 5.15436e-08 0)
(41.9249 5.19805e-08 0)
(41.927 5.23377e-08 0)
(41.9292 5.23904e-08 0)
(41.9314 5.22298e-08 0)
(41.9336 5.19379e-08 0)
(41.9358 5.13416e-08 0)
(41.9377 5.05785e-08 0)
(41.9395 4.96443e-08 0)
(41.941 4.84777e-08 0)
(41.9422 4.71908e-08 0)
(41.9431 4.57827e-08 0)
(41.9435 4.43081e-08 0)
(41.9435 4.3201e-08 0)
(41.943 4.12351e-08 0)
(41.942 3.94575e-08 0)
(41.9406 3.78759e-08 0)
(41.9386 3.63411e-08 0)
(41.9362 3.49864e-08 0)
(41.9333 3.36288e-08 0)
(41.9301 3.25833e-08 0)
(41.9265 3.16393e-08 0)
(41.9226 3.09859e-08 0)
(41.9185 3.05502e-08 0)
(41.9141 3.0266e-08 0)
(41.9097 3.02692e-08 0)
(41.9051 3.02844e-08 0)
(41.9003 3.0469e-08 0)
(41.8954 3.06032e-08 0)
(41.8904 3.06182e-08 0)
(41.885 3.05396e-08 0)
(41.8794 3.01563e-08 0)
(41.8733 2.95493e-08 0)
(41.8666 2.86426e-08 0)
(41.8593 2.73793e-08 0)
(41.8512 2.58697e-08 0)
(41.8422 2.40413e-08 0)
(41.8322 2.20839e-08 0)
(41.8212 2.00402e-08 0)
(41.8091 1.80585e-08 0)
(41.796 1.62887e-08 0)
(41.7819 1.48331e-08 0)
(41.7668 1.38922e-08 0)
(41.7508 1.34759e-08 0)
(41.7341 1.36755e-08 0)
(41.7168 1.45011e-08 0)
(41.699 1.59187e-08 0)
(41.681 1.8017e-08 0)
(41.6628 2.06756e-08 0)
(41.6448 2.40074e-08 0)
(41.627 2.79585e-08 0)
(41.6098 3.23546e-08 0)
(41.5932 3.76554e-08 0)
(41.5776 4.26762e-08 0)
(41.5631 4.94706e-08 0)
(41.5498 5.64937e-08 0)
(41.5378 7.91743e-08 0)
(41.5272 1.82823e-07 0)
(41.5182 9.14421e-07 0)
(41.5106 6.02517e-06 0)
(41.5045 4.25137e-05 0)
(41.5008 0.000302021 0)
(41.5048 0.00220412 0)
(41.5571 0.015915 0)
(41.757 0.132092 0)
(44.8139 0.555994 0)
(42.6958 -0.000102016 0)
(42.6885 -9.33895e-05 0)
(42.6804 -9.05693e-05 0)
(42.6722 -9.11744e-05 0)
(42.6634 -9.10375e-05 0)
(42.654 -8.96466e-05 0)
(42.6439 -8.6748e-05 0)
(42.6329 -8.19682e-05 0)
(42.621 -7.51557e-05 0)
(42.6082 -6.65175e-05 0)
(42.5944 -5.66036e-05 0)
(42.5797 -4.61868e-05 0)
(42.564 -3.60816e-05 0)
(42.5474 -2.69705e-05 0)
(42.5298 -1.92931e-05 0)
(42.5114 -1.32181e-05 0)
(42.4922 -8.68546e-06 0)
(42.4724 -5.48496e-06 0)
(42.4522 -3.33931e-06 0)
(42.4317 -1.96946e-06 0)
(42.4113 -1.13433e-06 0)
(42.3911 -6.46783e-07 0)
(42.3715 -3.73342e-07 0)
(42.3527 -2.25226e-07 0)
(42.3349 -1.46929e-07 0)
(42.3185 -1.05748e-07 0)
(42.3036 -8.3492e-08 0)
(42.2904 -7.04493e-08 0)
(42.279 -6.16439e-08 0)
(42.2695 -5.4602e-08 0)
(42.2619 -4.81686e-08 0)
(42.2561 -4.18714e-08 0)
(42.252 -3.56484e-08 0)
(42.2495 -2.96677e-08 0)
(42.2483 -2.40875e-08 0)
(42.2482 -1.97233e-08 0)
(42.2488 -1.48537e-08 0)
(42.25 -1.07088e-08 0)
(42.2513 -8.27114e-09 0)
(42.2526 -7.55687e-09 0)
(42.2535 -7.59833e-09 0)
(42.2539 -8.05545e-09 0)
(42.2534 -9.08412e-09 0)
(42.252 -1.09676e-08 0)
(42.2495 -1.29229e-08 0)
(42.2458 -1.48524e-08 0)
(42.2409 -1.69786e-08 0)
(42.2347 -1.90989e-08 0)
(42.2274 -2.10234e-08 0)
(42.2189 -2.26623e-08 0)
(42.2095 -2.39162e-08 0)
(42.1992 -2.51413e-08 0)
(42.1881 -2.57349e-08 0)
(42.1765 -2.60987e-08 0)
(42.1644 -2.59398e-08 0)
(42.152 -2.56838e-08 0)
(42.1394 -2.49039e-08 0)
(42.1267 -2.38708e-08 0)
(42.114 -2.26053e-08 0)
(42.1014 -2.11341e-08 0)
(42.089 -1.9468e-08 0)
(42.0769 -1.75217e-08 0)
(42.065 -1.56652e-08 0)
(42.0535 -1.35827e-08 0)
(42.0423 -1.14645e-08 0)
(42.0316 -9.29723e-09 0)
(42.0212 -7.14673e-09 0)
(42.0113 -4.86184e-09 0)
(42.0018 -1.9923e-09 0)
(41.9928 9.55034e-10 0)
(41.9842 3.27527e-09 0)
(41.9761 5.56582e-09 0)
(41.9685 7.87092e-09 0)
(41.9614 1.0165e-08 0)
(41.9548 1.24003e-08 0)
(41.9487 1.46617e-08 0)
(41.9431 1.68181e-08 0)
(41.938 1.89729e-08 0)
(41.9334 2.10869e-08 0)
(41.9293 2.3098e-08 0)
(41.9257 2.50811e-08 0)
(41.9227 2.69684e-08 0)
(41.9201 2.88025e-08 0)
(41.918 3.05391e-08 0)
(41.9163 3.21806e-08 0)
(41.9151 3.37569e-08 0)
(41.9143 3.51894e-08 0)
(41.9139 3.65684e-08 0)
(41.9139 3.74476e-08 0)
(41.9142 3.89455e-08 0)
(41.9147 3.98521e-08 0)
(41.9156 4.07605e-08 0)
(41.9167 4.15764e-08 0)
(41.918 4.22075e-08 0)
(41.9195 4.27219e-08 0)
(41.921 4.31728e-08 0)
(41.9227 4.3428e-08 0)
(41.9243 4.35929e-08 0)
(41.9259 4.36955e-08 0)
(41.9275 4.36124e-08 0)
(41.9289 4.34781e-08 0)
(41.9302 4.3273e-08 0)
(41.9312 4.29405e-08 0)
(41.9321 4.25832e-08 0)
(41.9327 4.21793e-08 0)
(41.9329 4.17395e-08 0)
(41.9329 4.14372e-08 0)
(41.9326 4.08622e-08 0)
(41.9319 4.03153e-08 0)
(41.9309 3.99093e-08 0)
(41.9296 3.95327e-08 0)
(41.9279 3.92247e-08 0)
(41.926 3.89372e-08 0)
(41.9238 3.87821e-08 0)
(41.9214 3.86686e-08 0)
(41.9189 3.86666e-08 0)
(41.9162 3.87959e-08 0)
(41.9134 3.89607e-08 0)
(41.9107 3.931e-08 0)
(41.908 3.9734e-08 0)
(41.9055 4.02404e-08 0)
(41.9031 4.08818e-08 0)
(41.9009 4.15407e-08 0)
(41.8991 4.22881e-08 0)
(41.8975 4.30682e-08 0)
(41.8963 4.38771e-08 0)
(41.8954 4.47124e-08 0)
(41.895 4.55266e-08 0)
(41.8949 4.6165e-08 0)
(41.8951 4.69944e-08 0)
(41.8957 4.78378e-08 0)
(41.8967 4.855e-08 0)
(41.898 4.91039e-08 0)
(41.8995 4.96485e-08 0)
(41.9013 5.00741e-08 0)
(41.9033 5.03487e-08 0)
(41.9054 5.0589e-08 0)
(41.9076 5.06522e-08 0)
(41.9098 5.05922e-08 0)
(41.912 5.04719e-08 0)
(41.9142 5.01772e-08 0)
(41.9161 4.97944e-08 0)
(41.9179 4.93287e-08 0)
(41.9194 4.87319e-08 0)
(41.9207 4.8078e-08 0)
(41.9215 4.73672e-08 0)
(41.9219 4.663e-08 0)
(41.9219 4.61304e-08 0)
(41.9214 4.51359e-08 0)
(41.9204 4.42812e-08 0)
(41.919 4.35211e-08 0)
(41.917 4.27825e-08 0)
(41.9146 4.21436e-08 0)
(41.9117 4.14883e-08 0)
(41.9085 4.10248e-08 0)
(41.9049 4.06054e-08 0)
(41.901 4.03588e-08 0)
(41.8969 4.02426e-08 0)
(41.8926 4.02007e-08 0)
(41.8881 4.03412e-08 0)
(41.8835 4.04706e-08 0)
(41.8788 4.07235e-08 0)
(41.8739 4.09489e-08 0)
(41.8688 4.11142e-08 0)
(41.8635 4.12681e-08 0)
(41.8578 4.12415e-08 0)
(41.8517 4.11272e-08 0)
(41.8451 4.08574e-08 0)
(41.8377 4.03966e-08 0)
(41.8296 3.98173e-08 0)
(41.8206 3.90245e-08 0)
(41.8106 3.81376e-08 0)
(41.7997 3.71335e-08 0)
(41.7876 3.60899e-08 0)
(41.7745 3.50751e-08 0)
(41.7604 3.41199e-08 0)
(41.7453 3.33979e-08 0)
(41.7293 3.29292e-08 0)
(41.7126 3.28393e-08 0)
(41.6953 3.31854e-08 0)
(41.6775 3.39864e-08 0)
(41.6595 3.53429e-08 0)
(41.6413 3.71375e-08 0)
(41.6233 3.94805e-08 0)
(41.6055 4.22255e-08 0)
(41.5883 4.53517e-08 0)
(41.5717 4.88954e-08 0)
(41.5561 5.25202e-08 0)
(41.5416 5.66793e-08 0)
(41.5283 6.09583e-08 0)
(41.5163 6.80764e-08 0)
(41.5058 8.78567e-08 0)
(41.4967 2.05586e-07 0)
(41.4891 9.87801e-07 0)
(41.483 6.54588e-06 0)
(41.4793 4.57604e-05 0)
(41.4836 0.000343462 0)
(41.5389 0.00270538 0)
(41.754 0.0384996 0)
(46.8943 0.157743 0)
(37.4066 1.27213 -3.16424e-15)
(36.3571 3.64977 6.34657e-15)
(35.9532 6.35769 -1.18985e-14)
(35.5673 9.10418 2.45808e-14)
(34.968 11.8369 -2.53536e-14)
(34.1935 14.5573 -1.5828e-15)
(33.2235 17.2391 1.02711e-19)
(31.9062 19.7586 -2.214e-14)
(30.1285 21.9867 -1.02817e-13)
(28.0086 23.9145 1.01371e-13)
(26.1214 26.0674 -2.53046e-14)
(24.9925 29.1766 -5.17729e-14)
(24.2446 33.3755 2.6389e-14)
(23.029 37.7684 0)
(20.7866 40.8599 2.46019e-14)
(17.6311 42.0932 2.46017e-14)
(14.1135 42.1251 -2.46714e-14)
(10.5806 41.5448 2.47817e-14)
(7.20466 40.4894 1.94714e-16)
(4.12777 41.6064 -1.92405e-16)
(38.5237 2.00056 0)
(37.9059 4.88399 0)
(37.5107 8.06186 -1.61132e-15)
(37.0203 11.2208 -3.21877e-15)
(36.2955 14.3299 8.03471e-15)
(35.3645 17.4209 1.60398e-14)
(34.155 20.5517 0)
(32.4522 23.6508 9.61069e-15)
(30.2259 26.3927 1.60109e-14)
(27.6883 28.5745 -3.84493e-14)
(25.8022 30.2583 2.55867e-14)
(24.9211 32.5253 1.26685e-14)
(24.1794 36.1949 -1.25169e-14)
(22.3473 40.9484 1.24117e-14)
(18.7817 45.2989 0)
(14.3449 47.541 -1.54956e-15)
(9.69914 48.1081 1.54934e-15)
(5.0974 47.59 -5.43619e-15)
(0.876419 45.9572 -7.81071e-16)
(1.38406 44.455 0)
(41.2803 1.56997 -4.11103e-17)
(41.2838 2.58731 -2.08923e-14)
(41.3887 3.61925 2.12189e-14)
(41.5784 4.64438 -2.03948e-14)
(41.8053 5.7296 -2.23708e-14)
(42.0337 6.94079 8.32703e-14)
(42.2499 8.31396 -4.21549e-14)
(42.4431 9.89769 4.08574e-14)
(42.5493 11.7596 -8.30618e-14)
(42.4531 13.9433 1.32627e-15)
(41.9684 16.4172 4.09042e-14)
(41.0264 18.9621 0)
(39.9117 21.2761 -4.09974e-14)
(39.0396 23.2778 4.10907e-14)
(38.5603 25.2238 -3.31829e-16)
(38.0828 27.4743 0)
(37.208 30.0519 3.32012e-16)
(35.8018 32.8215 0)
(33.7967 35.6766 0)
(31.1176 38.3959 0)
(45.3356 2.5662 6.29642e-16)
(45.0644 5.90616 -6.31696e-15)
(44.0722 9.87967 -1.26598e-15)
(42.9042 13.9546 2.52882e-15)
(41.8424 17.9749 -2.51799e-15)
(40.8155 21.9312 -4.64146e-19)
(39.6597 25.8184 -9.95632e-15)
(38.2279 29.593 0)
(36.4834 33.2379 0)
(34.4308 36.7479 -4.89898e-15)
(32.0488 40.0767 4.87407e-15)
(29.3615 43.2235 0)
(26.3567 46.1455 -4.82669e-15)
(23.0422 48.806 4.80999e-15)
(19.4352 51.1615 -4.79398e-15)
(15.5744 53.1682 9.55829e-15)
(11.5172 54.7952 -4.76909e-15)
(7.33629 56.0254 0)
(3.13116 56.8745 -2.37287e-15)
(-0.703787 57.333 0)
(48.3202 1.77677 -9.60528e-16)
(49.2677 4.55426 7.36305e-15)
(48.9813 7.8903 5.12222e-15)
(48.1886 11.3878 1.02354e-14)
(47.3823 15.0142 0)
(46.5786 18.7662 0)
(45.6394 22.5995 1.01338e-14)
(44.4419 26.4296 2.52218e-15)
(42.919 30.2411 -5.02151e-15)
(41.0791 33.9689 2.50039e-15)
(38.8855 37.5875 1.9916e-14)
(36.3639 41.0481 -1.23979e-14)
(33.5144 44.2929 1.23566e-14)
(30.3505 47.2601 -2.46317e-15)
(26.8913 49.89 -9.83062e-15)
(23.1631 52.1323 -1.71817e-14)
(19.2069 53.9407 -8.58533e-15)
(15.07 55.2527 -1.22659e-15)
(10.8368 55.9408 7.05972e-15)
(6.76622 55.6725 3.07842e-16)
(1.10313 53.3151 0)
(0.889555 58.9264 0)
(1.06589 58.7434 0)
(1.10189 57.3136 0)
(1.07652 57.1077 0)
(1.02906 57.7489 0)
(1.02641 58.2724 0)
(1.01899 58.3641 0)
(0.986085 58.1829 0)
(0.931621 57.781 0)
(0.85957 57.043 0)
(0.778442 55.8746 0)
(0.692819 54.2797 0)
(0.601393 52.3859 0)
(0.51118 50.3945 0)
(0.419737 48.4933 0)
(0.331499 46.8186 0)
(0.251726 45.4299 0)
(0.183327 44.3262 0)
(0.127881 43.4769 0)
(0.0857863 42.8411 0)
(0.0553725 42.3767 0)
(0.0344329 42.0463 0)
(0.0206557 41.8172 0)
(0.0119677 41.6622 0)
(0.00670353 41.5593 0)
(0.00363295 41.4919 0)
(0.00190611 41.4477 0)
(0.000968663 41.418 0)
(0.000476979 41.3973 0)
(0.000227634 41.3817 0)
(0.0001053 41.3692 0)
(4.72057e-05 41.3584 0)
(2.04935e-05 41.3486 0)
(8.59887e-06 41.3393 0)
(3.46977e-06 41.3304 0)
(1.32885e-06 41.3219 0)
(4.64685e-07 41.3136 0)
(1.28045e-07 41.3055 0)
(2.14068e-09 41.2977 0)
(-4.24567e-08 41.2902 0)
(-5.69287e-08 41.2828 0)
(-6.07725e-08 41.2757 0)
(-6.11826e-08 41.2688 0)
(-6.06304e-08 41.2621 0)
(-5.99192e-08 41.2555 0)
(-5.92899e-08 41.249 0)
(-5.87565e-08 41.2427 0)
(-5.8377e-08 41.2364 0)
(-5.81099e-08 41.2302 0)
(-5.80075e-08 41.2239 0)
(-5.80449e-08 41.2176 0)
(-5.82452e-08 41.2113 0)
(-5.85833e-08 41.2048 0)
(-5.90178e-08 41.1982 0)
(-5.94829e-08 41.1914 0)
(-5.9919e-08 41.1844 0)
(-6.02954e-08 41.1771 0)
(-6.05913e-08 41.1695 0)
(-6.07865e-08 41.1616 0)
(-6.0929e-08 41.1532 0)
(-6.10857e-08 41.1445 0)
(-6.12517e-08 41.1353 0)
(-6.13981e-08 41.1256 0)
(-6.1479e-08 41.1155 0)
(-6.14496e-08 41.1049 0)
(-6.12479e-08 41.0938 0)
(-6.08317e-08 41.0823 0)
(-6.0163e-08 41.0703 0)
(-5.9222e-08 41.0579 0)
(-5.79871e-08 41.0452 0)
(-5.64364e-08 41.0322 0)
(-5.45372e-08 41.0191 0)
(-5.2294e-08 41.0058 0)
(-4.97052e-08 40.9925 0)
(-4.67967e-08 40.9792 0)
(-4.3589e-08 40.9662 0)
(-4.01179e-08 40.9534 0)
(-3.6435e-08 40.941 0)
(-3.26311e-08 40.929 0)
(-2.87286e-08 40.9177 0)
(-2.45981e-08 40.9069 0)
(-2.00042e-08 40.8969 0)
(-1.46208e-08 40.8876 0)
(-7.826e-09 40.8791 0)
(-1.50661e-09 40.8715 0)
(3.35023e-09 40.8646 0)
(7.43394e-09 40.8585 0)