/*--------------------------------*- C++ -*----------------------------------*\
| =========                 |                                                 |
| \\      /  F ield         | OpenFOAM: The Open Source CFD Toolbox           |
|  \\    /   O peration     | Version:  3.0.x                                 |
|   \\  /    A nd           | Web:      www.OpenFOAM.org                      |
|    \\/     M anipulation  |                                                 |
\*---------------------------------------------------------------------------*/
FoamFile
{
    version     2.0;
    format      ascii;
    class       volVectorField;
    location    "0.029925";
    object      U;
}
// * * * * * * * * * * * * * * * * * * * * * * * * * * * * * * * * * * * * * //

dimensions      [0 1 -1 0 0 0 0];

internalField   nonuniform List<vector> 
13800
(
(57.8962 0.000142147 0)
(57.8926 0.000121767 0)
(57.889 0.000115609 0)
(57.8856 0.000108378 0)
(57.8825 9.6008e-05 0)
(57.8798 7.96165e-05 0)
(57.8778 6.15184e-05 0)
(57.8763 4.42237e-05 0)
(57.8752 2.96111e-05 0)
(57.8745 1.85197e-05 0)
(57.8741 1.08717e-05 0)
(57.8739 6.03044e-06 0)
(57.8738 3.19785e-06 0)
(57.8737 1.65631e-06 0)
(57.8737 8.6959e-07 0)
(57.8736 4.9299e-07 0)
(57.8736 3.227e-07 0)
(57.8736 2.49735e-07 0)
(57.8736 2.20022e-07 0)
(57.8736 2.08478e-07 0)
(57.8736 2.04197e-07 0)
(57.8735 2.02672e-07 0)
(57.8735 2.02156e-07 0)
(57.8735 2.01986e-07 0)
(57.8735 2.01938e-07 0)
(57.8735 2.01925e-07 0)
(57.8735 2.01921e-07 0)
(57.8734 2.01919e-07 0)
(57.8734 2.01921e-07 0)
(57.8734 2.01927e-07 0)
(57.8734 2.01928e-07 0)
(57.8734 2.01931e-07 0)
(57.8734 2.01937e-07 0)
(57.8734 2.01937e-07 0)
(57.8733 2.01936e-07 0)
(57.8733 2.01944e-07 0)
(57.8733 2.01945e-07 0)
(57.8733 2.01947e-07 0)
(57.8733 2.01946e-07 0)
(57.8733 2.01949e-07 0)
(57.8733 2.01956e-07 0)
(57.8732 2.01955e-07 0)
(57.8732 2.01956e-07 0)
(57.8732 2.01962e-07 0)
(57.8732 2.01966e-07 0)
(57.8732 2.01967e-07 0)
(57.8732 2.01973e-07 0)
(57.8732 2.01972e-07 0)
(57.8731 2.01976e-07 0)
(57.8731 2.01977e-07 0)
(57.8731 2.01979e-07 0)
(57.8731 2.01982e-07 0)
(57.8731 2.01982e-07 0)
(57.8731 2.01982e-07 0)
(57.8731 2.01987e-07 0)
(57.873 2.01992e-07 0)
(57.873 2.01993e-07 0)
(57.873 2.01997e-07 0)
(57.873 2.01999e-07 0)
(57.873 2.01998e-07 0)
(57.873 2.02002e-07 0)
(57.873 2.02006e-07 0)
(57.8729 2.0201e-07 0)
(57.8729 2.02011e-07 0)
(57.8729 2.02014e-07 0)
(57.8729 2.02015e-07 0)
(57.8729 2.02017e-07 0)
(57.8729 2.02022e-07 0)
(57.8729 2.02022e-07 0)
(57.8728 2.02026e-07 0)
(57.8728 2.02028e-07 0)
(57.8728 2.02032e-07 0)
(57.8728 2.02032e-07 0)
(57.8728 2.02038e-07 0)
(57.8728 2.02038e-07 0)
(57.8728 2.02043e-07 0)
(57.8727 2.0205e-07 0)
(57.8727 2.0205e-07 0)
(57.8727 2.02034e-07 0)
(57.8727 2.02046e-07 0)
(57.8727 2.02054e-07 0)
(57.8727 2.02054e-07 0)
(57.8727 2.0206e-07 0)
(57.8727 2.02066e-07 0)
(57.8727 2.02071e-07 0)
(57.8726 2.02075e-07 0)
(57.8726 2.02075e-07 0)
(57.8726 2.02079e-07 0)
(57.8726 2.02079e-07 0)
(57.8726 2.02083e-07 0)
(57.8726 2.02084e-07 0)
(57.8726 2.02087e-07 0)
(57.8726 2.02093e-07 0)
(57.8726 2.02093e-07 0)
(57.8726 2.02095e-07 0)
(57.8726 2.02095e-07 0)
(57.8726 2.02103e-07 0)
(57.8726 2.02109e-07 0)
(57.8726 2.02116e-07 0)
(57.8725 2.02131e-07 0)
(57.8725 2.02153e-07 0)
(57.8724 2.02194e-07 0)
(57.8723 2.02246e-07 0)
(57.8721 2.02342e-07 0)
(57.8718 2.02482e-07 0)
(57.8712 2.02699e-07 0)
(57.8704 2.03015e-07 0)
(57.8692 2.03482e-07 0)
(57.8674 2.04146e-07 0)
(57.8646 2.0509e-07 0)
(57.8607 2.06351e-07 0)
(57.8551 2.08033e-07 0)
(57.8473 2.10224e-07 0)
(57.8366 2.12996e-07 0)
(57.8222 2.16384e-07 0)
(57.8035 2.20371e-07 0)
(57.7795 2.24857e-07 0)
(57.7494 2.2962e-07 0)
(57.7127 2.3427e-07 0)
(57.6691 2.3825e-07 0)
(57.6188 2.40811e-07 0)
(57.5626 2.41075e-07 0)
(57.5017 2.38095e-07 0)
(57.4384 2.30966e-07 0)
(57.3753 2.19004e-07 0)
(57.3159 2.01907e-07 0)
(57.2636 1.80009e-07 0)
(57.2221 1.54385e-07 0)
(57.1943 1.25277e-07 0)
(57.1825 9.38596e-08 0)
(57.1866 6.60396e-08 0)
(57.2062 1.24931e-08 0)
(57.2413 -1.93865e-08 0)
(57.2902 -3.67004e-08 0)
(57.3491 -4.67336e-08 0)
(57.4139 -4.83307e-08 0)
(57.4802 -3.97606e-08 0)
(57.5438 -2.58484e-08 0)
(57.6015 -5.20395e-09 0)
(57.6507 1.9931e-08 0)
(57.6901 4.36447e-08 0)
(57.7195 6.95377e-08 0)
(57.7394 9.27356e-08 0)
(57.7511 1.12536e-07 0)
(57.7564 1.29321e-07 0)
(57.757 1.38855e-07 0)
(57.7546 1.49284e-07 0)
(57.7504 1.55581e-07 0)
(57.7452 1.58846e-07 0)
(57.7396 1.60818e-07 0)
(57.7344 1.61329e-07 0)
(57.7297 1.61175e-07 0)
(57.7256 1.60771e-07 0)
(57.7222 1.59999e-07 0)
(57.7193 1.59444e-07 0)
(57.717 1.58993e-07 0)
(57.7152 1.58274e-07 0)
(57.7138 1.57989e-07 0)
(57.7127 1.57639e-07 0)
(57.7121 1.57252e-07 0)
(57.7117 1.57163e-07 0)
(57.7116 1.57102e-07 0)
(57.7117 1.56946e-07 0)
(57.7121 1.57183e-07 0)
(57.7126 1.5693e-07 0)
(57.7133 1.57103e-07 0)
(57.7142 1.57397e-07 0)
(57.7152 1.57597e-07 0)
(57.7162 1.57906e-07 0)
(57.7174 1.58281e-07 0)
(57.7186 1.58684e-07 0)
(57.7198 1.59101e-07 0)
(57.7209 1.59533e-07 0)
(57.7221 1.59987e-07 0)
(57.7232 1.60477e-07 0)
(57.7243 1.60933e-07 0)
(57.7253 1.61419e-07 0)
(57.7262 1.61878e-07 0)
(57.7271 1.62317e-07 0)
(57.728 1.6281e-07 0)
(57.7287 1.63273e-07 0)
(57.7294 1.63699e-07 0)
(57.7301 1.64099e-07 0)
(57.7306 1.6451e-07 0)
(57.7312 1.65001e-07 0)
(57.7316 1.60811e-07 0)
(57.732 1.70269e-07 0)
(57.7324 1.65709e-07 0)
(57.7327 1.82078e-07 0)
(57.733 1.81175e-07 0)
(57.7333 3.17067e-07 0)
(57.7335 7.09175e-07 0)
(57.7337 3.08969e-06 0)
(57.7335 1.42565e-05 0)
(57.7318 6.85928e-05 0)
(57.723 0.000329003 0)
(57.6819 0.00152192 0)
(57.4896 0.00705103 0)
(56.8663 0.0360467 0)
(50.9907 0.142654 0)
(57.9001 0.000222054 0)
(57.9003 0.00015923 0)
(57.9005 0.000141406 0)
(57.9007 0.000128944 0)
(57.9008 0.00011163 0)
(57.9009 9.09068e-05 0)
(57.901 6.9266e-05 0)
(57.901 4.92375e-05 0)
(57.9011 3.26671e-05 0)
(57.9011 2.02733e-05 0)
(57.9011 1.1826e-05 0)
(57.9011 6.52599e-06 0)
(57.9011 3.44793e-06 0)
(57.901 1.78378e-06 0)
(57.901 9.37883e-07 0)
(57.901 5.34886e-07 0)
(57.901 3.53265e-07 0)
(57.901 2.75636e-07 0)
(57.901 2.44079e-07 0)
(57.901 2.3184e-07 0)
(57.9009 2.27305e-07 0)
(57.9009 2.25692e-07 0)
(57.9009 2.25144e-07 0)
(57.9009 2.24965e-07 0)
(57.9009 2.2491e-07 0)
(57.9009 2.24895e-07 0)
(57.9009 2.24891e-07 0)
(57.9008 2.24895e-07 0)
(57.9008 2.24893e-07 0)
(57.9008 2.24896e-07 0)
(57.9008 2.249e-07 0)
(57.9008 2.24897e-07 0)
(57.9008 2.24899e-07 0)
(57.9008 2.24902e-07 0)
(57.9007 2.24906e-07 0)
(57.9007 2.24906e-07 0)
(57.9007 2.24907e-07 0)
(57.9007 2.24912e-07 0)
(57.9007 2.24911e-07 0)
(57.9007 2.24918e-07 0)
(57.9007 2.24919e-07 0)
(57.9006 2.2492e-07 0)
(57.9006 2.24926e-07 0)
(57.9006 2.24927e-07 0)
(57.9006 2.24929e-07 0)
(57.9006 2.24932e-07 0)
(57.9006 2.24927e-07 0)
(57.9006 2.24934e-07 0)
(57.9005 2.24936e-07 0)
(57.9005 2.24938e-07 0)
(57.9005 2.24941e-07 0)
(57.9005 2.24944e-07 0)
(57.9005 2.24948e-07 0)
(57.9005 2.24952e-07 0)
(57.9005 2.24957e-07 0)
(57.9004 2.24957e-07 0)
(57.9004 2.24956e-07 0)
(57.9004 2.24961e-07 0)
(57.9004 2.24961e-07 0)
(57.9004 2.24964e-07 0)
(57.9004 2.24967e-07 0)
(57.9004 2.24968e-07 0)
(57.9003 2.24971e-07 0)
(57.9003 2.24974e-07 0)
(57.9003 2.24978e-07 0)
(57.9003 2.24978e-07 0)
(57.9003 2.24979e-07 0)
(57.9003 2.24982e-07 0)
(57.9003 2.24982e-07 0)
(57.9002 2.24986e-07 0)
(57.9002 2.24988e-07 0)
(57.9002 2.24992e-07 0)
(57.9002 2.24997e-07 0)
(57.9002 2.24996e-07 0)
(57.9002 2.24998e-07 0)
(57.9002 2.24999e-07 0)
(57.9001 2.25e-07 0)
(57.9001 2.25006e-07 0)
(57.9001 2.25012e-07 0)
(57.9001 2.25023e-07 0)
(57.9001 2.25021e-07 0)
(57.9001 2.25031e-07 0)
(57.9001 2.25031e-07 0)
(57.9001 2.25032e-07 0)
(57.9001 2.25037e-07 0)
(57.9 2.25041e-07 0)
(57.9 2.25041e-07 0)
(57.9 2.25047e-07 0)
(57.9 2.25052e-07 0)
(57.9 2.25052e-07 0)
(57.9 2.25053e-07 0)
(57.9 2.25058e-07 0)
(57.9 2.25058e-07 0)
(57.9 2.25062e-07 0)
(57.9 2.25064e-07 0)
(57.9 2.25066e-07 0)
(57.9 2.25076e-07 0)
(57.9 2.25093e-07 0)
(57.9 2.25113e-07 0)
(57.8999 2.25139e-07 0)
(57.8999 2.2519e-07 0)
(57.8998 2.25269e-07 0)
(57.8997 2.25407e-07 0)
(57.8995 2.25614e-07 0)
(57.8992 2.25943e-07 0)
(57.8986 2.26437e-07 0)
(57.8978 2.27178e-07 0)
(57.8966 2.28264e-07 0)
(57.8947 2.29822e-07 0)
(57.892 2.32016e-07 0)
(57.8881 2.35032e-07 0)
(57.8825 2.39098e-07 0)
(57.8747 2.4442e-07 0)
(57.864 2.51214e-07 0)
(57.8496 2.59628e-07 0)
(57.8309 2.69704e-07 0)
(57.8068 2.81308e-07 0)
(57.7768 2.94052e-07 0)
(57.7401 3.07236e-07 0)
(57.6965 3.19797e-07 0)
(57.6462 3.303e-07 0)
(57.59 3.36998e-07 0)
(57.5291 3.37981e-07 0)
(57.4658 3.31378e-07 0)
(57.4027 3.15637e-07 0)
(57.3433 2.89856e-07 0)
(57.291 2.5412e-07 0)
(57.2495 2.09754e-07 0)
(57.2217 1.57754e-07 0)
(57.2099 1.03693e-07 0)
(57.214 5.92721e-08 0)
(57.2336 -2.38914e-08 0)
(57.2687 -7.58398e-08 0)
(57.3176 -1.06234e-07 0)
(57.3765 -1.25094e-07 0)
(57.4413 -1.29094e-07 0)
(57.5075 -1.14887e-07 0)
(57.5712 -9.06258e-08 0)
(57.6288 -5.3183e-08 0)
(57.678 -3.25258e-09 0)
(57.7174 3.76896e-08 0)
(57.7468 7.89189e-08 0)
(57.7667 1.16108e-07 0)
(57.7784 1.46937e-07 0)
(57.7837 1.72871e-07 0)
(57.7843 1.8591e-07 0)
(57.782 2.01636e-07 0)
(57.7777 2.09584e-07 0)
(57.7725 2.12796e-07 0)
(57.767 2.1364e-07 0)
(57.7617 2.12279e-07 0)
(57.757 2.09889e-07 0)
(57.7529 2.07266e-07 0)
(57.7495 2.04115e-07 0)
(57.7466 2.01579e-07 0)
(57.7443 1.99195e-07 0)
(57.7425 1.96636e-07 0)
(57.7411 1.94864e-07 0)
(57.7401 1.93069e-07 0)
(57.7394 1.91295e-07 0)
(57.739 1.90098e-07 0)
(57.7389 1.88959e-07 0)
(57.739 1.87724e-07 0)
(57.7394 1.87176e-07 0)
(57.7399 1.85778e-07 0)
(57.7406 1.85219e-07 0)
(57.7415 1.84797e-07 0)
(57.7425 1.84218e-07 0)
(57.7435 1.83873e-07 0)
(57.7447 1.83687e-07 0)
(57.7459 1.83602e-07 0)
(57.747 1.8361e-07 0)
(57.7482 1.83702e-07 0)
(57.7494 1.83865e-07 0)
(57.7505 1.84103e-07 0)
(57.7516 1.84309e-07 0)
(57.7526 1.84584e-07 0)
(57.7535 1.84799e-07 0)
(57.7544 1.85005e-07 0)
(57.7552 1.85312e-07 0)
(57.756 1.85591e-07 0)
(57.7567 1.85841e-07 0)
(57.7573 1.86099e-07 0)
(57.7579 1.86409e-07 0)
(57.7584 1.86953e-07 0)
(57.7589 1.79852e-07 0)
(57.7593 1.94583e-07 0)
(57.7597 1.8719e-07 0)
(57.76 2.17697e-07 0)
(57.7603 2.61274e-07 0)
(57.7605 6.52237e-07 0)
(57.7608 2.13101e-06 0)
(57.7609 1.01226e-05 0)
(57.7608 4.81967e-05 0)
(57.7591 0.000233373 0)
(57.7504 0.00112074 0)
(57.7095 0.00518688 0)
(57.5183 0.0239863 0)
(56.8989 0.120269 0)
(51.3474 0.4505 0)
(57.9001 0.000162944 0)
(57.9003 0.00011131 0)
(57.9005 0.000101376 0)
(57.9007 9.64266e-05 0)
(57.9008 8.53134e-05 0)
(57.9009 7.04742e-05 0)
(57.901 5.43496e-05 0)
(57.901 3.90509e-05 0)
(57.9011 2.61687e-05 0)
(57.9011 1.63906e-05 0)
(57.9011 9.64489e-06 0)
(57.9011 5.36548e-06 0)
(57.9011 2.85383e-06 0)
(57.901 1.48252e-06 0)
(57.901 7.78706e-07 0)
(57.901 4.40293e-07 0)
(57.901 2.86385e-07 0)
(57.901 2.20021e-07 0)
(57.901 1.92809e-07 0)
(57.901 1.82166e-07 0)
(57.9009 1.78185e-07 0)
(57.9009 1.76759e-07 0)
(57.9009 1.7627e-07 0)
(57.9009 1.76108e-07 0)
(57.9009 1.76059e-07 0)
(57.9009 1.76045e-07 0)
(57.9009 1.76044e-07 0)
(57.9008 1.76045e-07 0)
(57.9008 1.76046e-07 0)
(57.9008 1.76049e-07 0)
(57.9008 1.76051e-07 0)
(57.9008 1.76055e-07 0)
(57.9008 1.76058e-07 0)
(57.9008 1.76059e-07 0)
(57.9007 1.76059e-07 0)
(57.9007 1.76062e-07 0)
(57.9007 1.76065e-07 0)
(57.9007 1.76067e-07 0)
(57.9007 1.76071e-07 0)
(57.9007 1.76072e-07 0)
(57.9007 1.76072e-07 0)
(57.9006 1.76076e-07 0)
(57.9006 1.76076e-07 0)
(57.9006 1.76078e-07 0)
(57.9006 1.7608e-07 0)
(57.9006 1.76083e-07 0)
(57.9006 1.76087e-07 0)
(57.9006 1.7609e-07 0)
(57.9005 1.76087e-07 0)
(57.9005 1.7609e-07 0)
(57.9005 1.76097e-07 0)
(57.9005 1.76095e-07 0)
(57.9005 1.76096e-07 0)
(57.9005 1.76099e-07 0)
(57.9005 1.76102e-07 0)
(57.9004 1.76105e-07 0)
(57.9004 1.76104e-07 0)
(57.9004 1.76109e-07 0)
(57.9004 1.76108e-07 0)
(57.9004 1.7611e-07 0)
(57.9004 1.76112e-07 0)
(57.9004 1.76116e-07 0)
(57.9003 1.76119e-07 0)
(57.9003 1.76121e-07 0)
(57.9003 1.76122e-07 0)
(57.9003 1.76121e-07 0)
(57.9003 1.76123e-07 0)
(57.9003 1.76127e-07 0)
(57.9003 1.76127e-07 0)
(57.9002 1.76131e-07 0)
(57.9002 1.76131e-07 0)
(57.9002 1.76132e-07 0)
(57.9002 1.76135e-07 0)
(57.9002 1.7614e-07 0)
(57.9002 1.76142e-07 0)
(57.9002 1.76146e-07 0)
(57.9001 1.76148e-07 0)
(57.9001 1.76148e-07 0)
(57.9001 1.7615e-07 0)
(57.9001 1.76151e-07 0)
(57.9001 1.76155e-07 0)
(57.9001 1.76157e-07 0)
(57.9001 1.76161e-07 0)
(57.9001 1.76164e-07 0)
(57.9001 1.7617e-07 0)
(57.9 1.76173e-07 0)
(57.9 1.76176e-07 0)
(57.9 1.7618e-07 0)
(57.9 1.76182e-07 0)
(57.9 1.76184e-07 0)
(57.9 1.76188e-07 0)
(57.9 1.76191e-07 0)
(57.9 1.76193e-07 0)
(57.9 1.76197e-07 0)
(57.9 1.76199e-07 0)
(57.9 1.76201e-07 0)
(57.9 1.7621e-07 0)
(57.9 1.76223e-07 0)
(57.9 1.7624e-07 0)
(57.8999 1.76266e-07 0)
(57.8999 1.76309e-07 0)
(57.8998 1.76383e-07 0)
(57.8997 1.76498e-07 0)
(57.8995 1.76679e-07 0)
(57.8992 1.76959e-07 0)
(57.8986 1.7738e-07 0)
(57.8978 1.78014e-07 0)
(57.8966 1.78933e-07 0)
(57.8948 1.8025e-07 0)
(57.892 1.82089e-07 0)
(57.8881 1.84605e-07 0)
(57.8825 1.87952e-07 0)
(57.8747 1.92289e-07 0)
(57.864 1.97747e-07 0)
(57.8496 2.04383e-07 0)
(57.8309 2.12148e-07 0)
(57.8068 2.20842e-07 0)
(57.7768 2.30037e-07 0)
(57.7401 2.39042e-07 0)
(57.6965 2.46894e-07 0)
(57.6462 2.52375e-07 0)
(57.59 2.54056e-07 0)
(57.5291 2.50455e-07 0)
(57.4658 2.402e-07 0)
(57.4027 2.22252e-07 0)
(57.3433 1.96155e-07 0)
(57.291 1.62237e-07 0)
(57.2495 1.2173e-07 0)
(57.2217 7.69477e-08 0)
(57.2099 3.65195e-08 0)
(57.214 1.07489e-08 0)
(57.2336 -3.58615e-08 0)
(57.2687 -6.91793e-08 0)
(57.3176 -8.70536e-08 0)
(57.3765 -9.51876e-08 0)
(57.4413 -9.10865e-08 0)
(57.5075 -7.27308e-08 0)
(57.5712 -4.74812e-08 0)
(57.6288 -1.46599e-08 0)
(57.678 2.01506e-08 0)
(57.7174 5.19508e-08 0)
(57.7468 8.54407e-08 0)
(57.7667 1.14325e-07 0)
(57.7784 1.36978e-07 0)
(57.7837 1.54798e-07 0)
(57.7843 1.61796e-07 0)
(57.782 1.71324e-07 0)
(57.7777 1.74592e-07 0)
(57.7725 1.74027e-07 0)
(57.767 1.71845e-07 0)
(57.7617 1.68325e-07 0)
(57.757 1.64314e-07 0)
(57.7529 1.60451e-07 0)
(57.7495 1.56598e-07 0)
(57.7466 1.53474e-07 0)
(57.7443 1.50756e-07 0)
(57.7425 1.48162e-07 0)
(57.7411 1.46304e-07 0)
(57.7401 1.44608e-07 0)
(57.7394 1.43069e-07 0)
(57.739 1.42051e-07 0)
(57.7389 1.41197e-07 0)
(57.739 1.40326e-07 0)
(57.7394 1.39994e-07 0)
(57.7399 1.39048e-07 0)
(57.7406 1.38831e-07 0)
(57.7415 1.38733e-07 0)
(57.7425 1.38563e-07 0)
(57.7435 1.38588e-07 0)
(57.7447 1.38737e-07 0)
(57.7459 1.38944e-07 0)
(57.747 1.39214e-07 0)
(57.7482 1.39533e-07 0)
(57.7494 1.39906e-07 0)
(57.7505 1.40319e-07 0)
(57.7516 1.40704e-07 0)
(57.7526 1.41126e-07 0)
(57.7535 1.41507e-07 0)
(57.7544 1.41868e-07 0)
(57.7552 1.42291e-07 0)
(57.756 1.42673e-07 0)
(57.7567 1.43022e-07 0)
(57.7573 1.43372e-07 0)
(57.7579 1.43853e-07 0)
(57.7584 1.44765e-07 0)
(57.7589 1.41297e-07 0)
(57.7593 1.48796e-07 0)
(57.7597 1.46283e-07 0)
(57.76 1.74766e-07 0)
(57.7603 3.20466e-07 0)
(57.7605 1.01178e-06 0)
(57.7608 4.11958e-06 0)
(57.7609 1.98153e-05 0)
(57.7608 9.54362e-05 0)
(57.7591 0.000463038 0)
(57.7506 0.0022256 0)
(57.7105 0.0103077 0)
(57.5236 0.0476569 0)
(56.9186 0.237989 0)
(51.6543 0.872068 0)
(57.9001 0.000118694 0)
(57.9003 0.00010142 0)
(57.9005 9.45603e-05 0)
(57.9006 9.09749e-05 0)
(57.9008 8.14644e-05 0)
(57.9009 6.78767e-05 0)
(57.901 5.27381e-05 0)
(57.901 3.81531e-05 0)
(57.901 2.57303e-05 0)
(57.9011 1.62057e-05 0)
(57.9011 9.5826e-06 0)
(57.9011 5.35362e-06 0)
(57.9011 2.85628e-06 0)
(57.901 1.48526e-06 0)
(57.901 7.78833e-07 0)
(57.901 4.37495e-07 0)
(57.901 2.81652e-07 0)
(57.901 2.14211e-07 0)
(57.901 1.86463e-07 0)
(57.901 1.75574e-07 0)
(57.9009 1.71489e-07 0)
(57.9009 1.70019e-07 0)
(57.9009 1.69511e-07 0)
(57.9009 1.69342e-07 0)
(57.9009 1.6929e-07 0)
(57.9009 1.69274e-07 0)
(57.9009 1.69271e-07 0)
(57.9008 1.69271e-07 0)
(57.9008 1.6927e-07 0)
(57.9008 1.69272e-07 0)
(57.9008 1.69272e-07 0)
(57.9008 1.69273e-07 0)
(57.9008 1.69274e-07 0)
(57.9008 1.69276e-07 0)
(57.9007 1.69278e-07 0)
(57.9007 1.6928e-07 0)
(57.9007 1.69282e-07 0)
(57.9007 1.69283e-07 0)
(57.9007 1.69283e-07 0)
(57.9007 1.69286e-07 0)
(57.9007 1.69288e-07 0)
(57.9006 1.69289e-07 0)
(57.9006 1.69292e-07 0)
(57.9006 1.69294e-07 0)
(57.9006 1.69295e-07 0)
(57.9006 1.69296e-07 0)
(57.9006 1.69296e-07 0)
(57.9006 1.69299e-07 0)
(57.9005 1.693e-07 0)
(57.9005 1.69301e-07 0)
(57.9005 1.69304e-07 0)
(57.9005 1.69306e-07 0)
(57.9005 1.69306e-07 0)
(57.9005 1.69309e-07 0)
(57.9005 1.69311e-07 0)
(57.9004 1.6931e-07 0)
(57.9004 1.69312e-07 0)
(57.9004 1.69313e-07 0)
(57.9004 1.69314e-07 0)
(57.9004 1.69317e-07 0)
(57.9004 1.69319e-07 0)
(57.9004 1.6932e-07 0)
(57.9003 1.69321e-07 0)
(57.9003 1.69323e-07 0)
(57.9003 1.69324e-07 0)
(57.9003 1.69324e-07 0)
(57.9003 1.69327e-07 0)
(57.9003 1.69331e-07 0)
(57.9003 1.69331e-07 0)
(57.9002 1.6933e-07 0)
(57.9002 1.6933e-07 0)
(57.9002 1.69333e-07 0)
(57.9002 1.69336e-07 0)
(57.9002 1.69336e-07 0)
(57.9002 1.69336e-07 0)
(57.9002 1.69341e-07 0)
(57.9001 1.69341e-07 0)
(57.9001 1.69344e-07 0)
(57.9001 1.69345e-07 0)
(57.9001 1.69351e-07 0)
(57.9001 1.69355e-07 0)
(57.9001 1.69358e-07 0)
(57.9001 1.69362e-07 0)
(57.9001 1.69364e-07 0)
(57.9001 1.69364e-07 0)
(57.9 1.69367e-07 0)
(57.9 1.69369e-07 0)
(57.9 1.6937e-07 0)
(57.9 1.69373e-07 0)
(57.9 1.69373e-07 0)
(57.9 1.69374e-07 0)
(57.9 1.69378e-07 0)
(57.9 1.69378e-07 0)
(57.9 1.69379e-07 0)
(57.9 1.6938e-07 0)
(57.9 1.69382e-07 0)
(57.9 1.69386e-07 0)
(57.9 1.69396e-07 0)
(57.9 1.69409e-07 0)
(57.8999 1.69426e-07 0)
(57.8999 1.69457e-07 0)
(57.8998 1.69508e-07 0)
(57.8997 1.69591e-07 0)
(57.8995 1.69719e-07 0)
(57.8992 1.69919e-07 0)
(57.8986 1.70221e-07 0)
(57.8978 1.70674e-07 0)
(57.8966 1.71333e-07 0)
(57.8948 1.72276e-07 0)
(57.892 1.73598e-07 0)
(57.8881 1.75397e-07 0)
(57.8825 1.778e-07 0)
(57.8747 1.80917e-07 0)
(57.864 1.8485e-07 0)
(57.8496 1.89648e-07 0)
(57.8309 1.95289e-07 0)
(57.8068 2.0164e-07 0)
(57.7768 2.08421e-07 0)
(57.7401 2.15165e-07 0)
(57.6965 2.21224e-07 0)
(57.6462 2.25756e-07 0)
(57.59 2.27783e-07 0)
(57.5291 2.26275e-07 0)
(57.4658 2.20266e-07 0)
(57.4027 2.09018e-07 0)
(57.3433 1.92182e-07 0)
(57.291 1.69955e-07 0)
(57.2495 1.43183e-07 0)
(57.2217 1.1353e-07 0)
(57.2099 8.6518e-08 0)
(57.214 6.84641e-08 0)
(57.2336 3.26217e-08 0)
(57.2687 4.5139e-09 0)
(57.3176 -1.10392e-08 0)
(57.3765 -1.97191e-08 0)
(57.4413 -2.02702e-08 0)
(57.5075 -1.13145e-08 0)
(57.5712 2.08033e-09 0)
(57.6288 1.92222e-08 0)
(57.678 3.4847e-08 0)
(57.7174 5.66411e-08 0)
(57.7468 8.07367e-08 0)
(57.7667 1.01154e-07 0)
(57.7784 1.17506e-07 0)
(57.7837 1.30304e-07 0)
(57.7843 1.36147e-07 0)
(57.782 1.43236e-07 0)
(57.7777 1.46726e-07 0)
(57.7725 1.47282e-07 0)
(57.767 1.46877e-07 0)
(57.7617 1.45586e-07 0)
(57.757 1.43897e-07 0)
(57.7529 1.42281e-07 0)
(57.7495 1.4072e-07 0)
(57.7466 1.39492e-07 0)
(57.7443 1.38605e-07 0)
(57.7425 1.37708e-07 0)
(57.7411 1.37223e-07 0)
(57.7401 1.36839e-07 0)
(57.7394 1.36504e-07 0)
(57.739 1.36453e-07 0)
(57.7389 1.36535e-07 0)
(57.739 1.36539e-07 0)
(57.7394 1.36847e-07 0)
(57.7399 1.36764e-07 0)
(57.7406 1.37073e-07 0)
(57.7415 1.37475e-07 0)
(57.7425 1.37821e-07 0)
(57.7435 1.38216e-07 0)
(57.7447 1.38682e-07 0)
(57.7459 1.39172e-07 0)
(57.747 1.39653e-07 0)
(57.7482 1.40148e-07 0)
(57.7494 1.40652e-07 0)
(57.7505 1.41174e-07 0)
(57.7516 1.4166e-07 0)
(57.7526 1.42142e-07 0)
(57.7535 1.42594e-07 0)
(57.7544 1.43018e-07 0)
(57.7552 1.43468e-07 0)
(57.756 1.43898e-07 0)
(57.7567 1.4429e-07 0)
(57.7573 1.44726e-07 0)
(57.7579 1.45488e-07 0)
(57.7584 1.47556e-07 0)
(57.7589 1.53413e-07 0)
(57.7593 1.41291e-07 0)
(57.7597 1.52433e-07 0)
(57.76 1.79255e-07 0)
(57.7603 6.30496e-07 0)
(57.7605 2.30771e-06 0)
(57.7608 1.03654e-05 0)
(57.761 5.00058e-05 0)
(57.7608 0.00024195 0)
(57.7594 0.00117324 0)
(57.7519 0.00565769 0)
(57.7164 0.0261364 0)
(57.5532 0.119135 0)
(57.0287 0.546299 0)
(53.0541 1.96193 0)
(57.9001 3.5657e-05 0)
(57.9003 2.75636e-05 0)
(57.9005 1.89617e-05 0)
(57.9006 1.50845e-05 0)
(57.9008 1.17348e-05 0)
(57.9009 8.64934e-06 0)
(57.9009 6.09164e-06 0)
(57.901 4.07523e-06 0)
(57.901 2.58414e-06 0)
(57.9011 1.54374e-06 0)
(57.9011 8.74915e-07 0)
(57.9011 4.72928e-07 0)
(57.9011 2.46203e-07 0)
(57.901 1.26705e-07 0)
(57.901 6.6561e-08 0)
(57.901 3.81226e-08 0)
(57.901 2.52897e-08 0)
(57.901 1.97498e-08 0)
(57.901 1.74618e-08 0)
(57.901 1.65575e-08 0)
(57.9009 1.62148e-08 0)
(57.9009 1.60888e-08 0)
(57.9009 1.60451e-08 0)
(57.9009 1.60311e-08 0)
(57.9009 1.60274e-08 0)
(57.9009 1.60277e-08 0)
(57.9009 1.60291e-08 0)
(57.9008 1.60301e-08 0)
(57.9008 1.6031e-08 0)
(57.9008 1.60322e-08 0)
(57.9008 1.60323e-08 0)
(57.9008 1.60321e-08 0)
(57.9008 1.60323e-08 0)
(57.9008 1.60331e-08 0)
(57.9007 1.60334e-08 0)
(57.9007 1.60347e-08 0)
(57.9007 1.60365e-08 0)
(57.9007 1.60369e-08 0)
(57.9007 1.60372e-08 0)
(57.9007 1.60372e-08 0)
(57.9007 1.60364e-08 0)
(57.9006 1.60366e-08 0)
(57.9006 1.6036e-08 0)
(57.9006 1.60368e-08 0)
(57.9006 1.60381e-08 0)
(57.9006 1.60399e-08 0)
(57.9006 1.60397e-08 0)
(57.9006 1.60406e-08 0)
(57.9005 1.60401e-08 0)
(57.9005 1.60403e-08 0)
(57.9005 1.60416e-08 0)
(57.9005 1.60419e-08 0)
(57.9005 1.60405e-08 0)
(57.9005 1.6041e-08 0)
(57.9005 1.6043e-08 0)
(57.9004 1.60441e-08 0)
(57.9004 1.60444e-08 0)
(57.9004 1.60451e-08 0)
(57.9004 1.60452e-08 0)
(57.9004 1.60465e-08 0)
(57.9004 1.60471e-08 0)
(57.9004 1.60482e-08 0)
(57.9003 1.60498e-08 0)
(57.9003 1.60495e-08 0)
(57.9003 1.60487e-08 0)
(57.9003 1.60482e-08 0)
(57.9003 1.60491e-08 0)
(57.9003 1.60495e-08 0)
(57.9003 1.60507e-08 0)
(57.9002 1.60505e-08 0)
(57.9002 1.60516e-08 0)
(57.9002 1.60524e-08 0)
(57.9002 1.6054e-08 0)
(57.9002 1.60541e-08 0)
(57.9002 1.60548e-08 0)
(57.9002 1.60545e-08 0)
(57.9001 1.60539e-08 0)
(57.9001 1.60551e-08 0)
(57.9001 1.60552e-08 0)
(57.9001 1.60556e-08 0)
(57.9001 1.60553e-08 0)
(57.9001 1.60562e-08 0)
(57.9001 1.60562e-08 0)
(57.9001 1.60567e-08 0)
(57.9001 1.60573e-08 0)
(57.9 1.606e-08 0)
(57.9 1.60601e-08 0)
(57.9 1.60609e-08 0)
(57.9 1.60613e-08 0)
(57.9 1.60616e-08 0)
(57.9 1.60623e-08 0)
(57.9 1.60625e-08 0)
(57.9 1.60647e-08 0)
(57.9 1.60675e-08 0)
(57.9 1.60675e-08 0)
(57.9 1.60673e-08 0)
(57.9 1.60702e-08 0)
(57.9 1.6074e-08 0)
(57.9 1.6077e-08 0)
(57.8999 1.60832e-08 0)
(57.8999 1.60929e-08 0)
(57.8998 1.61101e-08 0)
(57.8997 1.61386e-08 0)
(57.8995 1.61834e-08 0)
(57.8992 1.62504e-08 0)
(57.8986 1.63496e-08 0)
(57.8978 1.65013e-08 0)
(57.8966 1.67204e-08 0)
(57.8948 1.70345e-08 0)
(57.892 1.74763e-08 0)
(57.8881 1.80781e-08 0)
(57.8825 1.88832e-08 0)
(57.8747 1.99264e-08 0)
(57.864 2.12421e-08 0)
(57.8496 2.28464e-08 0)
(57.8309 2.47304e-08 0)
(57.8068 2.68504e-08 0)
(57.7768 2.91096e-08 0)
(57.7401 3.13539e-08 0)
(57.6965 3.33594e-08 0)
(57.6462 3.48429e-08 0)
(57.59 3.54695e-08 0)
(57.5291 3.48886e-08 0)
(57.4658 3.2763e-08 0)
(57.4027 2.88309e-08 0)
(57.3433 2.29509e-08 0)
(57.291 1.5149e-08 0)
(57.2495 5.64705e-09 0)
(57.2217 -5.0995e-09 0)
(57.2099 -1.56333e-08 0)
(57.214 -2.4103e-08 0)
(57.2336 -4.07992e-08 0)
(57.2687 -5.18048e-08 0)
(57.3176 -5.72567e-08 0)
(57.3765 -6.02163e-08 0)
(57.4413 -6.0222e-08 0)
(57.5075 -5.6791e-08 0)
(57.5712 -5.13615e-08 0)
(57.6288 -4.39719e-08 0)
(57.678 -3.29967e-08 0)
(57.7174 -2.1454e-08 0)
(57.7468 -1.23022e-08 0)
(57.7667 -4.59021e-09 0)
(57.7784 1.44966e-09 0)
(57.7837 6.17355e-09 0)
(57.7843 8.61343e-09 0)
(57.782 1.12318e-08 0)
(57.7777 1.2649e-08 0)
(57.7725 1.31453e-08 0)
(57.767 1.3208e-08 0)
(57.7617 1.29872e-08 0)
(57.757 1.25587e-08 0)
(57.7529 1.21408e-08 0)
(57.7495 1.16729e-08 0)
(57.7466 1.12773e-08 0)
(57.7443 1.09186e-08 0)
(57.7425 1.05648e-08 0)
(57.7411 1.02862e-08 0)
(57.7401 1.00413e-08 0)
(57.7394 9.78059e-09 0)
(57.739 9.59418e-09 0)
(57.7389 9.43683e-09 0)
(57.739 9.25426e-09 0)
(57.7394 9.13642e-09 0)
(57.7399 8.91402e-09 0)
(57.7406 8.78688e-09 0)
(57.7415 8.65459e-09 0)
(57.7425 8.48468e-09 0)
(57.7435 8.32282e-09 0)
(57.7447 8.20754e-09 0)
(57.7459 8.11998e-09 0)
(57.747 8.05155e-09 0)
(57.7482 8.00501e-09 0)
(57.7494 7.96647e-09 0)
(57.7505 7.93689e-09 0)
(57.7516 7.89028e-09 0)
(57.7526 7.83946e-09 0)
(57.7535 7.78101e-09 0)
(57.7544 7.70727e-09 0)
(57.7552 7.6457e-09 0)
(57.756 7.59269e-09 0)
(57.7567 7.56215e-09 0)
(57.7573 7.65224e-09 0)
(57.7579 8.30585e-09 0)
(57.7584 1.12341e-08 0)
(57.7589 2.47986e-08 0)
(57.7593 -4.45874e-09 0)
(57.7597 1.93905e-08 0)
(57.76 5.63701e-08 0)
(57.7603 8.17327e-07 0)
(57.7605 3.54709e-06 0)
(57.7608 1.71182e-05 0)
(57.761 8.2804e-05 0)
(57.7611 0.000401777 0)
(57.7607 0.00194591 0)
(57.7579 0.00937796 0)
(57.7436 0.0437815 0)
(57.6733 0.200233 0)
(57.4415 0.89201 0)
(55.0448 3.17507 0)
(57.9001 -3.5657e-05 0)
(57.9003 -2.75636e-05 0)
(57.9005 -1.89617e-05 0)
(57.9006 -1.50845e-05 0)
(57.9008 -1.17348e-05 0)
(57.9009 -8.64934e-06 0)
(57.9009 -6.09164e-06 0)
(57.901 -4.07523e-06 0)
(57.901 -2.58414e-06 0)
(57.9011 -1.54374e-06 0)
(57.9011 -8.74916e-07 0)
(57.9011 -4.72927e-07 0)
(57.9011 -2.46203e-07 0)
(57.901 -1.26705e-07 0)
(57.901 -6.65616e-08 0)
(57.901 -3.81232e-08 0)
(57.901 -2.52909e-08 0)
(57.901 -1.97505e-08 0)
(57.901 -1.74622e-08 0)
(57.901 -1.65579e-08 0)
(57.9009 -1.62146e-08 0)
(57.9009 -1.60894e-08 0)
(57.9009 -1.60474e-08 0)
(57.9009 -1.60334e-08 0)
(57.9009 -1.60291e-08 0)
(57.9009 -1.60293e-08 0)
(57.9009 -1.6029e-08 0)
(57.9008 -1.60297e-08 0)
(57.9008 -1.60307e-08 0)
(57.9008 -1.60318e-08 0)
(57.9008 -1.60326e-08 0)
(57.9008 -1.60328e-08 0)
(57.9008 -1.60333e-08 0)
(57.9008 -1.60336e-08 0)
(57.9007 -1.60329e-08 0)
(57.9007 -1.60339e-08 0)
(57.9007 -1.6034e-08 0)
(57.9007 -1.60352e-08 0)
(57.9007 -1.60368e-08 0)
(57.9007 -1.60363e-08 0)
(57.9007 -1.60364e-08 0)
(57.9006 -1.60369e-08 0)
(57.9006 -1.60372e-08 0)
(57.9006 -1.60369e-08 0)
(57.9006 -1.6037e-08 0)
(57.9006 -1.60387e-08 0)
(57.9006 -1.60399e-08 0)
(57.9006 -1.60396e-08 0)
(57.9005 -1.60397e-08 0)
(57.9005 -1.60407e-08 0)
(57.9005 -1.60407e-08 0)
(57.9005 -1.60417e-08 0)
(57.9005 -1.60421e-08 0)
(57.9005 -1.60421e-08 0)
(57.9005 -1.60424e-08 0)
(57.9004 -1.60437e-08 0)
(57.9004 -1.60441e-08 0)
(57.9004 -1.60457e-08 0)
(57.9004 -1.60454e-08 0)
(57.9004 -1.60462e-08 0)
(57.9004 -1.60475e-08 0)
(57.9004 -1.60492e-08 0)
(57.9003 -1.60492e-08 0)
(57.9003 -1.60495e-08 0)
(57.9003 -1.60508e-08 0)
(57.9003 -1.6049e-08 0)
(57.9003 -1.60482e-08 0)
(57.9003 -1.60483e-08 0)
(57.9003 -1.6049e-08 0)
(57.9002 -1.60504e-08 0)
(57.9002 -1.60518e-08 0)
(57.9002 -1.60523e-08 0)
(57.9002 -1.60523e-08 0)
(57.9002 -1.60527e-08 0)
(57.9002 -1.60543e-08 0)
(57.9002 -1.60545e-08 0)
(57.9001 -1.60554e-08 0)
(57.9001 -1.60549e-08 0)
(57.9001 -1.60568e-08 0)
(57.9001 -1.60559e-08 0)
(57.9001 -1.60558e-08 0)
(57.9001 -1.60569e-08 0)
(57.9001 -1.60565e-08 0)
(57.9001 -1.60575e-08 0)
(57.9001 -1.60582e-08 0)
(57.9 -1.60597e-08 0)
(57.9 -1.60598e-08 0)
(57.9 -1.60607e-08 0)
(57.9 -1.606e-08 0)
(57.9 -1.60621e-08 0)
(57.9 -1.60619e-08 0)
(57.9 -1.60624e-08 0)
(57.9 -1.60648e-08 0)
(57.9 -1.60659e-08 0)
(57.9 -1.60658e-08 0)
(57.9 -1.60665e-08 0)
(57.9 -1.60695e-08 0)
(57.9 -1.60737e-08 0)
(57.9 -1.60758e-08 0)
(57.8999 -1.60839e-08 0)
(57.8999 -1.60945e-08 0)
(57.8998 -1.61118e-08 0)
(57.8997 -1.61397e-08 0)
(57.8995 -1.61832e-08 0)
(57.8992 -1.62487e-08 0)
(57.8986 -1.63499e-08 0)
(57.8978 -1.65008e-08 0)
(57.8966 -1.67208e-08 0)
(57.8948 -1.70347e-08 0)
(57.892 -1.74747e-08 0)
(57.8881 -1.80783e-08 0)
(57.8825 -1.88817e-08 0)
(57.8747 -1.99259e-08 0)
(57.864 -2.12407e-08 0)
(57.8496 -2.28465e-08 0)
(57.8309 -2.47321e-08 0)
(57.8068 -2.68511e-08 0)
(57.7768 -2.91102e-08 0)
(57.7401 -3.13537e-08 0)
(57.6965 -3.336e-08 0)
(57.6462 -3.48425e-08 0)
(57.59 -3.54701e-08 0)
(57.5291 -3.48873e-08 0)
(57.4658 -3.27631e-08 0)
(57.4027 -2.88304e-08 0)
(57.3433 -2.29491e-08 0)
(57.291 -1.51483e-08 0)
(57.2495 -5.64684e-09 0)
(57.2217 5.09922e-09 0)
(57.2099 1.56339e-08 0)
(57.214 2.41038e-08 0)
(57.2336 4.07995e-08 0)
(57.2687 5.1804e-08 0)
(57.3176 5.72569e-08 0)
(57.3765 6.02151e-08 0)
(57.4413 6.02209e-08 0)
(57.5075 5.67906e-08 0)
(57.5712 5.13627e-08 0)
(57.6288 4.39728e-08 0)
(57.678 3.29952e-08 0)
(57.7174 2.14523e-08 0)
(57.7468 1.23011e-08 0)
(57.7667 4.59023e-09 0)
(57.7784 -1.45091e-09 0)
(57.7837 -6.17325e-09 0)
(57.7843 -8.61437e-09 0)
(57.782 -1.1233e-08 0)
(57.7777 -1.2649e-08 0)
(57.7725 -1.3146e-08 0)
(57.767 -1.32077e-08 0)
(57.7617 -1.29874e-08 0)
(57.757 -1.25584e-08 0)
(57.7529 -1.21412e-08 0)
(57.7495 -1.16722e-08 0)
(57.7466 -1.12788e-08 0)
(57.7443 -1.09196e-08 0)
(57.7425 -1.05659e-08 0)
(57.7411 -1.02873e-08 0)
(57.7401 -1.00425e-08 0)
(57.7394 -9.7819e-09 0)
(57.739 -9.5956e-09 0)
(57.7389 -9.43748e-09 0)
(57.739 -9.2558e-09 0)
(57.7394 -9.13673e-09 0)
(57.7399 -8.91303e-09 0)
(57.7406 -8.7856e-09 0)
(57.7415 -8.65358e-09 0)
(57.7425 -8.48344e-09 0)
(57.7435 -8.32279e-09 0)
(57.7447 -8.20601e-09 0)
(57.7459 -8.12021e-09 0)
(57.747 -8.05214e-09 0)
(57.7482 -8.00565e-09 0)
(57.7494 -7.96663e-09 0)
(57.7505 -7.937e-09 0)
(57.7516 -7.8899e-09 0)
(57.7526 -7.83919e-09 0)
(57.7535 -7.7803e-09 0)
(57.7544 -7.7065e-09 0)
(57.7552 -7.6432e-09 0)
(57.756 -7.58095e-09 0)
(57.7567 -7.49491e-09 0)
(57.7573 -7.28452e-09 0)
(57.7579 -6.51287e-09 0)
(57.7584 -3.48626e-09 0)
(57.7589 8.4536e-09 0)
(57.7593 -1.64808e-08 0)
(57.7597 7.92464e-09 0)
(57.76 6.86598e-08 0)
(57.7603 7.89982e-07 0)
(57.7605 3.51948e-06 0)
(57.7608 1.71444e-05 0)
(57.7611 8.28704e-05 0)
(57.7614 0.000402564 0)
(57.7623 0.00195394 0)
(57.7654 0.00947493 0)
(57.7783 0.0452234 0)
(57.8302 0.213526 0)
(58.0129 1.01144 0)
(58.7285 3.56533 0)
(57.9001 -0.000118694 0)
(57.9003 -0.00010142 0)
(57.9005 -9.45603e-05 0)
(57.9006 -9.09749e-05 0)
(57.9008 -8.14644e-05 0)
(57.9009 -6.78767e-05 0)
(57.901 -5.27381e-05 0)
(57.901 -3.81531e-05 0)
(57.901 -2.57303e-05 0)
(57.9011 -1.62057e-05 0)
(57.9011 -9.5826e-06 0)
(57.9011 -5.35362e-06 0)
(57.9011 -2.85628e-06 0)
(57.901 -1.48526e-06 0)
(57.901 -7.78832e-07 0)
(57.901 -4.37491e-07 0)
(57.901 -2.8165e-07 0)
(57.901 -2.14209e-07 0)
(57.901 -1.8646e-07 0)
(57.901 -1.75571e-07 0)
(57.9009 -1.71486e-07 0)
(57.9009 -1.70018e-07 0)
(57.9009 -1.69511e-07 0)
(57.9009 -1.69344e-07 0)
(57.9009 -1.69291e-07 0)
(57.9009 -1.69273e-07 0)
(57.9009 -1.6927e-07 0)