/*--------------------------------*- C++ -*----------------------------------*\
| =========                 |                                                 |
| \\      /  F ield         | OpenFOAM: The Open Source CFD Toolbox           |
|  \\    /   O peration     | Version:  3.0.x                                 |
|   \\  /    A nd           | Web:      www.OpenFOAM.org                      |
|    \\/     M anipulation  |                                                 |
\*---------------------------------------------------------------------------*/
FoamFile
{
    version     2.0;
    format      ascii;
    class       volScalarField;
    location    "0.24";
    object      p;
}
// * * * * * * * * * * * * * * * * * * * * * * * * * * * * * * * * * * * * * //

dimensions      [1 -1 -2 0 0 0 0];

internalField   nonuniform List<scalar> 
6900
(
1.81621e+07
1.81621e+07
1.81622e+07
1.81622e+07
1.81622e+07
1.81623e+07
1.81623e+07
1.81623e+07
1.81623e+07
1.81623e+07
1.81623e+07
1.81624e+07
1.81624e+07
1.81624e+07
1.81624e+07
1.81624e+07
1.81624e+07
1.81624e+07
1.81625e+07
1.81625e+07
1.81625e+07
1.81626e+07
1.81626e+07
1.81627e+07
1.81628e+07
1.81628e+07
1.81629e+07
1.8163e+07
1.81631e+07
1.81632e+07
1.81633e+07
1.81635e+07
1.81636e+07
1.81637e+07
1.81639e+07
1.8164e+07
1.81642e+07
1.81643e+07
1.81645e+07
1.81646e+07
1.81648e+07
1.81649e+07
1.81651e+07
1.81653e+07
1.81654e+07
1.81656e+07
1.81657e+07
1.81659e+07
1.8166e+07
1.81661e+07
1.81663e+07
1.81664e+07
1.81665e+07
1.81667e+07
1.81668e+07
1.81669e+07
1.8167e+07
1.81671e+07
1.81672e+07
1.81673e+07
1.81674e+07
1.81675e+07
1.81676e+07
1.81677e+07
1.81678e+07
1.81679e+07
1.8168e+07
1.81681e+07
1.81682e+07
1.81683e+07
1.81683e+07
1.81684e+07
1.81685e+07
1.81686e+07
1.81686e+07
1.81687e+07
1.81687e+07
1.81687e+07
1.81688e+07
1.81688e+07
1.81688e+07
1.81688e+07
1.81688e+07
1.81688e+07
1.81688e+07
1.81688e+07
1.81688e+07
1.81687e+07
1.81687e+07
1.81687e+07
1.81687e+07
1.81686e+07
1.81686e+07
1.81686e+07
1.81685e+07
1.81685e+07
1.81685e+07
1.81684e+07
1.81684e+07
1.81684e+07
1.81684e+07
1.81683e+07
1.81683e+07
1.81683e+07
1.81683e+07
1.81683e+07
1.81683e+07
1.81682e+07
1.81682e+07
1.81682e+07
1.81682e+07
1.81681e+07
1.81681e+07
1.8168e+07
1.81679e+07
1.81678e+07
1.81677e+07
1.81676e+07
1.81675e+07
1.81674e+07
1.81672e+07
1.81671e+07
1.81669e+07
1.81668e+07
1.81666e+07
1.81664e+07
1.81662e+07
1.8166e+07
1.81658e+07
1.81656e+07
1.81653e+07
1.81651e+07
1.81649e+07
1.81647e+07
1.81645e+07
1.81643e+07
1.81641e+07
1.81639e+07
1.81637e+07
1.81635e+07
1.81633e+07
1.81632e+07
1.8163e+07
1.81628e+07
1.81627e+07
1.81625e+07
1.81624e+07
1.81622e+07
1.8162e+07
1.81619e+07
1.81617e+07
1.81615e+07
1.81613e+07
1.81611e+07
1.81609e+07
1.81607e+07
1.81605e+07
1.81602e+07
1.816e+07
1.81597e+07
1.81595e+07
1.81592e+07
1.81589e+07
1.81586e+07
1.81584e+07
1.81581e+07
1.81578e+07
1.81575e+07
1.81572e+07
1.81569e+07
1.81566e+07
1.81563e+07
1.8156e+07
1.81557e+07
1.81554e+07
1.81551e+07
1.81549e+07
1.81546e+07
1.81544e+07
1.81541e+07
1.81539e+07
1.81537e+07
1.81534e+07
1.81532e+07
1.8153e+07
1.81528e+07
1.81525e+07
1.81522e+07
1.8152e+07
1.81517e+07
1.81514e+07
1.8151e+07
1.81507e+07
1.81504e+07
1.815e+07
1.81497e+07
1.81493e+07
1.8149e+07
1.81488e+07
1.81491e+07
1.81621e+07
1.81621e+07
1.81622e+07
1.81622e+07
1.81622e+07
1.81623e+07
1.81623e+07
1.81623e+07
1.81623e+07
1.81623e+07
1.81623e+07
1.81624e+07
1.81624e+07
1.81624e+07
1.81624e+07
1.81624e+07
1.81624e+07
1.81624e+07
1.81625e+07
1.81625e+07
1.81625e+07
1.81626e+07
1.81626e+07
1.81627e+07
1.81628e+07
1.81628e+07
1.81629e+07
1.8163e+07
1.81631e+07
1.81632e+07
1.81633e+07
1.81635e+07
1.81636e+07
1.81637e+07
1.81639e+07
1.8164e+07
1.81642e+07
1.81643e+07
1.81645e+07
1.81646e+07
1.81648e+07
1.81649e+07
1.81651e+07
1.81653e+07
1.81654e+07
1.81656e+07
1.81657e+07
1.81659e+07
1.8166e+07
1.81661e+07
1.81663e+07
1.81664e+07
1.81665e+07
1.81667e+07
1.81668e+07
1.81669e+07
1.8167e+07
1.81671e+07
1.81672e+07
1.81673e+07
1.81674e+07
1.81675e+07
1.81676e+07
1.81677e+07
1.81678e+07
1.81679e+07
1.8168e+07
1.81681e+07
1.81682e+07
1.81683e+07
1.81683e+07
1.81684e+07
1.81685e+07
1.81686e+07
1.81686e+07
1.81687e+07
1.81687e+07
1.81687e+07
1.81688e+07
1.81688e+07
1.81688e+07
1.81688e+07
1.81688e+07
1.81688e+07
1.81688e+07
1.81688e+07
1.81688e+07
1.81687e+07
1.81687e+07
1.81687e+07
1.81687e+07
1.81686e+07
1.81686e+07
1.81686e+07
1.81685e+07
1.81685e+07
1.81685e+07
1.81684e+07
1.81684e+07
1.81684e+07
1.81684e+07
1.81683e+07
1.81683e+07
1.81683e+07
1.81683e+07
1.81683e+07
1.81683e+07
1.81682e+07
1.81682e+07
1.81682e+07
1.81682e+07
1.81681e+07
1.81681e+07
1.8168e+07
1.81679e+07
1.81678e+07
1.81677e+07
1.81676e+07
1.81675e+07
1.81674e+07
1.81672e+07
1.81671e+07
1.81669e+07
1.81668e+07
1.81666e+07
1.81664e+07
1.81662e+07
1.8166e+07
1.81658e+07
1.81656e+07
1.81653e+07
1.81651e+07
1.81649e+07
1.81647e+07
1.81645e+07
1.81643e+07
1.81641e+07
1.81639e+07
1.81637e+07
1.81635e+07
1.81633e+07
1.81632e+07
1.8163e+07
1.81628e+07
1.81627e+07
1.81625e+07
1.81624e+07
1.81622e+07
1.8162e+07
1.81619e+07
1.81617e+07
1.81615e+07
1.81613e+07
1.81611e+07
1.81609e+07
1.81607e+07
1.81605e+07
1.81602e+07
1.816e+07
1.81597e+07
1.81595e+07
1.81592e+07
1.81589e+07
1.81586e+07
1.81584e+07
1.81581e+07
1.81578e+07
1.81575e+07
1.81572e+07
1.81569e+07
1.81566e+07
1.81563e+07
1.8156e+07
1.81557e+07
1.81554e+07
1.81551e+07
1.81549e+07
1.81546e+07
1.81544e+07
1.81541e+07
1.81539e+07
1.81537e+07
1.81534e+07
1.81532e+07
1.8153e+07
1.81528e+07
1.81525e+07
1.81522e+07
1.8152e+07
1.81517e+07
1.81514e+07
1.8151e+07
1.81507e+07
1.81504e+07
1.815e+07
1.81497e+07
1.81493e+07
1.8149e+07
1.81488e+07
1.81491e+07
1.81621e+07
1.81621e+07
1.81622e+07
1.81622e+07
1.81622e+07
1.81623e+07
1.81623e+07
1.81623e+07
1.81623e+07
1.81623e+07
1.81623e+07
1.81624e+07
1.81624e+07
1.81624e+07
1.81624e+07
1.81624e+07
1.81624e+07
1.81624e+07
1.81625e+07
1.81625e+07
1.81625e+07
1.81626e+07
1.81626e+07
1.81627e+07
1.81628e+07
1.81628e+07
1.81629e+07
1.8163e+07
1.81631e+07
1.81632e+07
1.81633e+07
1.81635e+07
1.81636e+07
1.81637e+07
1.81639e+07
1.8164e+07
1.81642e+07
1.81643e+07
1.81645e+07
1.81646e+07
1.81648e+07
1.81649e+07
1.81651e+07
1.81653e+07
1.81654e+07
1.81656e+07
1.81657e+07
1.81659e+07
1.8166e+07
1.81661e+07
1.81663e+07
1.81664e+07
1.81665e+07
1.81667e+07
1.81668e+07
1.81669e+07
1.8167e+07
1.81671e+07
1.81672e+07
1.81673e+07
1.81674e+07
1.81675e+07
1.81676e+07
1.81677e+07
1.81678e+07
1.81679e+07
1.8168e+07
1.81681e+07
1.81682e+07
1.81683e+07
1.81683e+07
1.81684e+07
1.81685e+07
1.81686e+07
1.81686e+07
1.81687e+07
1.81687e+07
1.81687e+07
1.81688e+07
1.81688e+07
1.81688e+07
1.81688e+07
1.81688e+07
1.81688e+07
1.81688e+07
1.81688e+07
1.81688e+07
1.81687e+07
1.81687e+07
1.81687e+07
1.81687e+07
1.81686e+07
1.81686e+07
1.81686e+07
1.81685e+07
1.81685e+07
1.81685e+07
1.81684e+07
1.81684e+07
1.81684e+07
1.81684e+07
1.81683e+07
1.81683e+07
1.81683e+07
1.81683e+07
1.81683e+07
1.81683e+07
1.81682e+07
1.81682e+07
1.81682e+07
1.81682e+07
1.81681e+07
1.81681e+07
1.8168e+07
1.81679e+07
1.81678e+07
1.81677e+07
1.81676e+07
1.81675e+07
1.81674e+07
1.81672e+07
1.81671e+07
1.81669e+07
1.81668e+07
1.81666e+07
1.81664e+07
1.81662e+07
1.8166e+07
1.81658e+07
1.81656e+07
1.81653e+07
1.81651e+07
1.81649e+07
1.81647e+07
1.81645e+07
1.81643e+07
1.81641e+07
1.81639e+07
1.81637e+07
1.81635e+07
1.81633e+07
1.81632e+07
1.8163e+07
1.81628e+07
1.81627e+07
1.81625e+07
1.81624e+07
1.81622e+07
1.8162e+07
1.81619e+07
1.81617e+07
1.81615e+07
1.81613e+07
1.81611e+07
1.81609e+07
1.81607e+07
1.81605e+07
1.81602e+07
1.816e+07
1.81597e+07
1.81595e+07
1.81592e+07
1.81589e+07
1.81586e+07
1.81584e+07
1.81581e+07
1.81578e+07
1.81575e+07
1.81572e+07
1.81569e+07
1.81566e+07
1.81563e+07
1.8156e+07
1.81557e+07
1.81554e+07
1.81551e+07
1.81549e+07
1.81546e+07
1.81544e+07
1.81541e+07
1.81539e+07
1.81537e+07
1.81534e+07
1.81532e+07
1.8153e+07
1.81528e+07
1.81525e+07
1.81522e+07
1.8152e+07
1.81517e+07
1.81514e+07
1.8151e+07
1.81507e+07
1.81504e+07
1.815e+07
1.81497e+07
1.81493e+07
1.8149e+07
1.81487e+07
1.81484e+07
1.81621e+07
1.81621e+07
1.81622e+07
1.81622e+07
1.81622e+07
1.81623e+07
1.81623e+07
1.81623e+07
1.81623e+07
1.81623e+07
1.81623e+07
1.81624e+07
1.81624e+07
1.81624e+07
1.81624e+07
1.81624e+07
1.81624e+07
1.81624e+07
1.81625e+07
1.81625e+07
1.81625e+07
1.81626e+07
1.81626e+07
1.81627e+07
1.81628e+07
1.81628e+07
1.81629e+07
1.8163e+07
1.81631e+07
1.81632e+07
1.81633e+07
1.81635e+07
1.81636e+07
1.81637e+07
1.81639e+07
1.8164e+07
1.81642e+07
1.81643e+07
1.81645e+07
1.81646e+07
1.81648e+07
1.81649e+07
1.81651e+07
1.81653e+07
1.81654e+07
1.81656e+07
1.81657e+07
1.81659e+07
1.8166e+07
1.81661e+07
1.81663e+07
1.81664e+07
1.81665e+07
1.81667e+07
1.81668e+07
1.81669e+07
1.8167e+07
1.81671e+07
1.81672e+07
1.81673e+07
1.81674e+07
1.81675e+07
1.81676e+07
1.81677e+07
1.81678e+07
1.81679e+07
1.8168e+07
1.81681e+07
1.81682e+07
1.81683e+07
1.81683e+07
1.81684e+07
1.81685e+07
1.81686e+07
1.81686e+07
1.81687e+07
1.81687e+07
1.81687e+07
1.81688e+07
1.81688e+07
1.81688e+07
1.81688e+07
1.81688e+07
1.81688e+07
1.81688e+07
1.81688e+07
1.81688e+07
1.81687e+07
1.81687e+07
1.81687e+07
1.81687e+07
1.81686e+07
1.81686e+07
1.81686e+07
1.81685e+07
1.81685e+07
1.81685e+07
1.81684e+07
1.81684e+07
1.81684e+07
1.81684e+07
1.81683e+07
1.81683e+07
1.81683e+07
1.81683e+07
1.81683e+07
1.81683e+07
1.81682e+07
1.81682e+07
1.81682e+07
1.81682e+07
1.81681e+07
1.81681e+07
1.8168e+07
1.81679e+07
1.81678e+07
1.81677e+07
1.81676e+07
1.81675e+07
1.81674e+07
1.81672e+07
1.81671e+07
1.81669e+07
1.81668e+07
1.81666e+07
1.81664e+07
1.81662e+07
1.8166e+07
1.81658e+07
1.81656e+07
1.81653e+07
1.81651e+07
1.81649e+07
1.81647e+07
1.81645e+07
1.81643e+07
1.81641e+07
1.81639e+07
1.81637e+07
1.81635e+07
1.81633e+07
1.81632e+07
1.8163e+07
1.81628e+07
1.81627e+07
1.81625e+07
1.81624e+07
1.81622e+07
1.8162e+07
1.81619e+07
1.81617e+07
1.81615e+07
1.81613e+07
1.81611e+07
1.81609e+07
1.81607e+07
1.81605e+07
1.81602e+07
1.816e+07
1.81597e+07
1.81595e+07
1.81592e+07
1.81589e+07
1.81586e+07
1.81584e+07
1.81581e+07
1.81578e+07
1.81575e+07
1.81572e+07
1.81569e+07
1.81566e+07
1.81563e+07
1.8156e+07
1.81557e+07
1.81554e+07
1.81551e+07
1.81549e+07
1.81546e+07
1.81544e+07
1.81541e+07
1.81539e+07
1.81537e+07
1.81534e+07
1.81532e+07
1.8153e+07
1.81528e+07
1.81525e+07
1.81522e+07
1.8152e+07
1.81517e+07
1.81514e+07
1.8151e+07
1.81507e+07
1.81504e+07
1.815e+07
1.81497e+07
1.81493e+07
1.8149e+07
1.81484e+07
1.81474e+07
1.81621e+07
1.81621e+07
1.81622e+07
1.81622e+07
1.81622e+07
1.81623e+07
1.81623e+07
1.81623e+07
1.81623e+07
1.81623e+07
1.81623e+07
1.81624e+07
1.81624e+07
1.81624e+07
1.81624e+07
1.81624e+07
1.81624e+07
1.81624e+07
1.81625e+07
1.81625e+07
1.81625e+07
1.81626e+07
1.81626e+07
1.81627e+07
1.81628e+07
1.81628e+07
1.81629e+07
1.8163e+07
1.81631e+07
1.81632e+07
1.81633e+07
1.81635e+07
1.81636e+07
1.81637e+07
1.81639e+07
1.8164e+07
1.81642e+07
1.81643e+07
1.81645e+07
1.81646e+07
1.81648e+07
1.81649e+07
1.81651e+07
1.81653e+07
1.81654e+07
1.81656e+07
1.81657e+07
1.81659e+07
1.8166e+07
1.81661e+07
1.81663e+07
1.81664e+07
1.81665e+07
1.81667e+07
1.81668e+07
1.81669e+07
1.8167e+07
1.81671e+07
1.81672e+07
1.81673e+07
1.81674e+07
1.81675e+07
1.81676e+07
1.81677e+07
1.81678e+07
1.81679e+07
1.8168e+07
1.81681e+07
1.81682e+07
1.81683e+07
1.81683e+07
1.81684e+07
1.81685e+07
1.81686e+07
1.81686e+07
1.81687e+07
1.81687e+07
1.81687e+07
1.81688e+07
1.81688e+07
1.81688e+07
1.81688e+07
1.81688e+07
1.81688e+07
1.81688e+07
1.81688e+07
1.81688e+07
1.81687e+07
1.81687e+07
1.81687e+07
1.81687e+07
1.81686e+07
1.81686e+07
1.81686e+07
1.81685e+07
1.81685e+07
1.81685e+07
1.81684e+07
1.81684e+07
1.81684e+07
1.81684e+07
1.81683e+07
1.81683e+07
1.81683e+07
1.81683e+07
1.81683e+07
1.81683e+07
1.81682e+07
1.81682e+07
1.81682e+07
1.81682e+07
1.81681e+07
1.81681e+07
1.8168e+07
1.81679e+07
1.81678e+07
1.81677e+07
1.81676e+07
1.81675e+07
1.81674e+07
1.81672e+07
1.81671e+07
1.81669e+07
1.81668e+07
1.81666e+07
1.81664e+07
1.81662e+07
1.8166e+07
1.81658e+07
1.81656e+07
1.81653e+07
1.81651e+07
1.81649e+07
1.81647e+07
1.81645e+07
1.81643e+07
1.81641e+07
1.81639e+07
1.81637e+07
1.81635e+07
1.81633e+07
1.81632e+07
1.8163e+07
1.81628e+07
1.81627e+07
1.81625e+07
1.81624e+07
1.81622e+07
1.8162e+07
1.81619e+07
1.81617e+07
1.81615e+07
1.81613e+07
1.81611e+07
1.81609e+07
1.81607e+07
1.81605e+07
1.81602e+07
1.816e+07
1.81597e+07
1.81595e+07
1.81592e+07
1.81589e+07
1.81586e+07
1.81584e+07
1.81581e+07
1.81578e+07
1.81575e+07
1.81572e+07
1.81569e+07
1.81566e+07
1.81563e+07
1.8156e+07
1.81557e+07
1.81554e+07
1.81551e+07
1.81549e+07
1.81546e+07
1.81544e+07
1.81541e+07
1.81539e+07
1.81537e+07
1.81534e+07
1.81532e+07
1.8153e+07
1.81528e+07
1.81525e+07
1.81522e+07
1.8152e+07
1.81517e+07
1.81514e+07
1.8151e+07
1.81507e+07
1.81504e+07
1.815e+07
1.81497e+07
1.81493e+07
1.8149e+07
1.81484e+07
1.81474e+07
1.81549e+07
1.81575e+07
1.81577e+07
1.8157e+07
1.81564e+07
1.81559e+07
1.81555e+07
1.81547e+07
1.81528e+07
1.81502e+07
1.81481e+07
1.81467e+07
1.81459e+07
1.81467e+07
1.8149e+07
1.81502e+07
1.81476e+07
1.81403e+07
1.81304e+07
1.81226e+07
1.81534e+07
1.81546e+07
1.81544e+07
1.81537e+07
1.81531e+07
1.81526e+07
1.81522e+07
1.81513e+07
1.81493e+07
1.81465e+07
1.81444e+07
1.81431e+07
1.81425e+07
1.81433e+07
1.81456e+07
1.81464e+07
1.81429e+07
1.81344e+07
1.8124e+07
1.81168e+07
1.81485e+07
1.81484e+07
1.81479e+07
1.8147e+07
1.81458e+07
1.81444e+07
1.81426e+07
1.81407e+07
1.81385e+07
1.81361e+07
1.81333e+07
1.81302e+07
1.81267e+07
1.81229e+07
1.81189e+07
1.8115e+07
1.81115e+07
1.81083e+07
1.8105e+07
1.81013e+07
1.81389e+07
1.81378e+07
1.81382e+07
1.81386e+07
1.8138e+07
1.81363e+07
1.81341e+07
1.8131e+07
1.81285e+07
1.81253e+07
1.81225e+07
1.81197e+07
1.81169e+07
1.81143e+07
1.81119e+07
1.81096e+07
1.81074e+07
1.81056e+07
1.81042e+07
1.81032e+07
1.81343e+07
1.81295e+07
1.81278e+07
1.81275e+07
1.81267e+07
1.81248e+07
1.81222e+07
1.81189e+07
1.81159e+07
1.81124e+07
1.81092e+07
1.81059e+07
1.81028e+07
1.80998e+07
1.8097e+07
1.80944e+07
1.80921e+07
1.80901e+07
1.80889e+07
1.8089e+07
1.81013e+07
1.81007e+07
1.81028e+07
1.80998e+07
1.80978e+07
1.80971e+07
1.80971e+07
1.80968e+07
1.80963e+07
1.8096e+07
1.80957e+07
1.80955e+07
1.80952e+07
1.80949e+07
1.80946e+07
1.80944e+07
1.80941e+07
1.80939e+07
1.80936e+07
1.80933e+07
1.80931e+07
1.80928e+07
1.80926e+07
1.80924e+07
1.80922e+07
1.8092e+07
1.80918e+07
1.80917e+07
1.80915e+07
1.80913e+07
1.80912e+07
1.80911e+07
1.80909e+07
1.80908e+07
1.80906e+07
1.80905e+07
1.80904e+07
1.80903e+07
1.80903e+07
1.80902e+07
1.809e+07
1.80899e+07
1.80898e+07
1.80897e+07
1.80897e+07
1.80897e+07
1.80897e+07
1.80897e+07
1.80897e+07
1.80897e+07
1.80898e+07
1.80898e+07
1.80898e+07
1.80898e+07
1.80898e+07
1.80897e+07
1.80896e+07
1.80895e+07
1.80894e+07
1.80892e+07
1.8089e+07
1.80888e+07
1.80885e+07
1.80883e+07
1.80881e+07
1.80878e+07
1.80875e+07
1.80873e+07
1.8087e+07
1.80868e+07
1.80865e+07
1.80863e+07
1.8086e+07
1.80858e+07
1.80856e+07
1.80853e+07
1.80851e+07
1.80849e+07
1.80847e+07
1.80845e+07
1.80843e+07
1.80841e+07
1.8084e+07
1.80838e+07
1.80836e+07
1.80835e+07
1.80833e+07
1.80832e+07
1.80831e+07
1.80829e+07
1.80828e+07
1.80827e+07
1.80826e+07
1.80824e+07
1.80823e+07
1.80822e+07
1.8082e+07
1.80819e+07
1.80818e+07
1.80816e+07
1.80814e+07
1.80813e+07
1.80811e+07
1.80809e+07
1.80807e+07
1.80805e+07
1.80804e+07
1.80801e+07
1.80799e+07
1.80797e+07
1.80795e+07
1.80793e+07
1.80791e+07
1.80789e+07
1.80786e+07
1.80784e+07
1.80782e+07
1.8078e+07
1.80778e+07
1.80776e+07
1.80774e+07
1.80772e+07
1.8077e+07
1.80769e+07
1.80767e+07
1.80766e+07
1.80764e+07
1.80763e+07
1.80762e+07
1.80762e+07
1.80761e+07
1.80761e+07
1.8076e+07
1.8076e+07
1.8076e+07
1.80761e+07
1.80761e+07
1.80761e+07
1.80762e+07
1.80762e+07
1.80763e+07
1.80764e+07
1.80765e+07
1.80765e+07
1.80766e+07
1.80767e+07
1.80767e+07
1.80768e+07
1.80768e+07
1.80769e+07
1.80769e+07
1.80769e+07
1.80769e+07
1.80769e+07
1.80769e+07
1.80769e+07
1.80768e+07
1.80768e+07
1.80767e+07
1.80766e+07
1.80765e+07
1.80764e+07
1.80763e+07
1.80762e+07
1.80761e+07
1.8076e+07
1.80759e+07
1.80757e+07
1.80756e+07
1.80755e+07
1.80754e+07
1.80753e+07
1.80752e+07
1.80751e+07
1.8075e+07
1.80749e+07
1.80748e+07
1.80748e+07
1.80748e+07
1.80747e+07
1.80748e+07
1.80748e+07
1.80748e+07
1.80749e+07
1.80749e+07
1.8075e+07
1.80751e+07
1.80753e+07
1.80754e+07
1.80755e+07
1.80756e+07
1.80757e+07
1.80759e+07
1.8076e+07
1.80761e+07
1.80761e+07
1.80762e+07
1.80762e+07
1.80759e+07
1.80749e+07
1.80999e+07
1.81006e+07
1.81027e+07
1.80998e+07
1.80978e+07
1.80971e+07
1.80971e+07
1.80968e+07
1.80963e+07
1.8096e+07
1.80957e+07
1.80955e+07
1.80952e+07
1.80949e+07
1.80946e+07
1.80944e+07
1.80941e+07
1.80939e+07
1.80936e+07
1.80933e+07
1.80931e+07
1.80928e+07
1.80926e+07
1.80924e+07
1.80922e+07
1.8092e+07
1.80918e+07
1.80917e+07
1.80915e+07
1.80913e+07
1.80912e+07
1.80911e+07
1.80909e+07
1.80908e+07
1.80906e+07
1.80905e+07
1.80904e+07
1.80903e+07
1.80903e+07
1.80902e+07
1.809e+07
1.80898e+07
1.80898e+07
1.80897e+07
1.80897e+07
1.80896e+07
1.80896e+07
1.80897e+07
1.80897e+07
1.80897e+07
1.80898e+07
1.80898e+07
1.80898e+07
1.80898e+07
1.80898e+07
1.80897e+07
1.80896e+07
1.80895e+07
1.80894e+07
1.80892e+07
1.8089e+07
1.80888e+07
1.80885e+07
1.80883e+07
1.8088e+07
1.80878e+07
1.80875e+07
1.80873e+07
1.8087e+07
1.80868e+07
1.80865e+07
1.80863e+07
1.8086e+07
1.80858e+07
1.80856e+07
1.80853e+07
1.80851e+07
1.80849e+07
1.80847e+07
1.80845e+07
1.80843e+07
1.80841e+07
1.8084e+07
1.80838e+07
1.80836e+07
1.80835e+07
1.80833e+07
1.80832e+07
1.80831e+07
1.80829e+07
1.80828e+07
1.80827e+07
1.80826e+07
1.80824e+07
1.80823e+07
1.80822e+07
1.8082e+07
1.80819e+07
1.80818e+07
1.80816e+07
1.80814e+07
1.80813e+07
1.80811e+07
1.80809e+07
1.80807e+07
1.80805e+07
1.80804e+07
1.80801e+07
1.80799e+07
1.80797e+07
1.80795e+07
1.80793e+07
1.80791e+07
1.80789e+07
1.80786e+07
1.80784e+07
1.80782e+07
1.8078e+07
1.80778e+07
1.80776e+07
1.80774e+07
1.80772e+07
1.8077e+07
1.80769e+07
1.80767e+07
1.80766e+07
1.80764e+07
1.80763e+07
1.80762e+07
1.80762e+07
1.80761e+07
1.80761e+07
1.8076e+07
1.8076e+07
1.8076e+07
1.80761e+07
1.80761e+07
1.80761e+07
1.80762e+07
1.80762e+07
1.80763e+07
1.80764e+07
1.80765e+07
1.80765e+07
1.80766e+07
1.80767e+07
1.80767e+07
1.80768e+07
1.80768e+07
1.80769e+07
1.80769e+07
1.80769e+07
1.80769e+07
1.80769e+07
1.80769e+07
1.80769e+07
1.80768e+07
1.80768e+07
1.80767e+07
1.80766e+07
1.80765e+07
1.80764e+07
1.80763e+07
1.80762e+07
1.80761e+07
1.8076e+07
1.80759e+07
1.80757e+07
1.80756e+07
1.80755e+07
1.80754e+07
1.80753e+07
1.80752e+07
1.80751e+07
1.8075e+07
1.80749e+07
1.80748e+07
1.80748e+07
1.80748e+07
1.80747e+07
1.80748e+07
1.80748e+07
1.80748e+07
1.80749e+07
1.80749e+07
1.8075e+07
1.80751e+07
1.80753e+07
1.80754e+07
1.80755e+07
1.80756e+07
1.80757e+07
1.80759e+07
1.8076e+07
1.80761e+07
1.80761e+07
1.80762e+07
1.80762e+07
1.80759e+07
1.80749e+07
1.80909e+07
1.80949e+07
1.80975e+07
1.80977e+07
1.80973e+07
1.80969e+07
1.80967e+07
1.80964e+07
1.80962e+07
1.80959e+07
1.80957e+07
1.80954e+07
1.80952e+07
1.80949e+07
1.80946e+07
1.80944e+07
1.80941e+07
1.80938e+07
1.80936e+07
1.80933e+07
1.80931e+07
1.80928e+07
1.80926e+07
1.80924e+07
1.80922e+07
1.8092e+07
1.80918e+07
1.80917e+07
1.80915e+07
1.80913e+07
1.80912e+07
1.80911e+07
1.80909e+07
1.80908e+07
1.80907e+07
1.80906e+07
1.80905e+07
1.80904e+07
1.80903e+07
1.80901e+07
1.809e+07
1.809e+07
1.80899e+07
1.80899e+07
1.80898e+07
1.80898e+07
1.80898e+07
1.80898e+07
1.80899e+07
1.80899e+07
1.80899e+07
1.80899e+07
1.80899e+07
1.80899e+07
1.80898e+07
1.80897e+07
1.80896e+07
1.80895e+07
1.80894e+07
1.80892e+07
1.8089e+07
1.80888e+07
1.80885e+07
1.80883e+07
1.8088e+07
1.80878e+07
1.80875e+07
1.80873e+07
1.8087e+07
1.80868e+07
1.80865e+07
1.80863e+07
1.8086e+07
1.80858e+07
1.80856e+07
1.80853e+07
1.80851e+07
1.80849e+07
1.80847e+07
1.80845e+07
1.80843e+07
1.80841e+07
1.8084e+07
1.80838e+07
1.80836e+07
1.80835e+07
1.80833e+07
1.80832e+07
1.80831e+07
1.80829e+07
1.80828e+07
1.80827e+07
1.80826e+07
1.80824e+07
1.80823e+07
1.80822e+07
1.8082e+07
1.80819e+07
1.80818e+07
1.80816e+07
1.80814e+07
1.80813e+07
1.80811e+07
1.80809e+07
1.80807e+07
1.80805e+07
1.80804e+07
1.80801e+07
1.80799e+07
1.80797e+07
1.80795e+07
1.80793e+07
1.80791e+07
1.80789e+07
1.80786e+07
1.80784e+07
1.80782e+07
1.8078e+07
1.80778e+07
1.80776e+07
1.80774e+07
1.80772e+07
1.8077e+07
1.80769e+07
1.80767e+07
1.80766e+07
1.80764e+07
1.80763e+07
1.80762e+07
1.80762e+07
1.80761e+07
1.80761e+07
1.8076e+07
1.8076e+07
1.8076e+07
1.80761e+07
1.80761e+07
1.80761e+07
1.80762e+07
1.80762e+07
1.80763e+07
1.80764e+07
1.80765e+07
1.80765e+07
1.80766e+07
1.80767e+07
1.80767e+07
1.80768e+07
1.80768e+07
1.80769e+07
1.80769e+07
1.80769e+07
1.80769e+07
1.80769e+07
1.80769e+07
1.80769e+07
1.80768e+07
1.80768e+07
1.80767e+07
1.80766e+07
1.80765e+07
1.80764e+07
1.80763e+07
1.80762e+07
1.80761e+07
1.8076e+07
1.80759e+07
1.80757e+07
1.80756e+07
1.80755e+07
1.80754e+07
1.80753e+07
1.80752e+07
1.80751e+07
1.8075e+07
1.80749e+07
1.80748e+07
1.80748e+07
1.80748e+07
1.80747e+07
1.80748e+07
1.80748e+07
1.80748e+07
1.80749e+07
1.80749e+07
1.8075e+07
1.80751e+07
1.80753e+07
1.80754e+07
1.80755e+07
1.80756e+07
1.80757e+07
1.80759e+07
1.8076e+07
1.80761e+07
1.80761e+07
1.80762e+07
1.80763e+07
1.80763e+07
1.80764e+07
1.81008e+07
1.81e+07
1.8099e+07
1.80982e+07
1.80975e+07
1.80971e+07
1.80968e+07
1.80965e+07
1.80962e+07
1.8096e+07
1.80957e+07
1.80954e+07
1.80952e+07
1.80949e+07
1.80946e+07
1.80944e+07
1.80941e+07
1.80938e+07
1.80936e+07
1.80933e+07
1.80931e+07
1.80928e+07
1.80926e+07
1.80924e+07
1.80922e+07
1.8092e+07
1.80918e+07
1.80917e+07
1.80915e+07
1.80913e+07
1.80912e+07
1.80911e+07
1.80909e+07
1.80908e+07
1.80907e+07
1.80906e+07
1.80905e+07
1.80904e+07
1.80903e+07
1.80902e+07
1.80901e+07
1.80901e+07
1.809e+07
1.809e+07
1.809e+07
1.809e+07
1.809e+07
1.809e+07
1.809e+07
1.809e+07
1.809e+07
1.809e+07
1.809e+07
1.80899e+07
1.80899e+07
1.80898e+07
1.80897e+07
1.80895e+07
1.80894e+07
1.80892e+07
1.8089e+07
1.80888e+07
1.80885e+07
1.80883e+07
1.80881e+07
1.80878e+07
1.80875e+07
1.80873e+07
1.8087e+07
1.80868e+07
1.80865e+07
1.80863e+07
1.8086e+07
1.80858e+07
1.80856e+07
1.80853e+07
1.80851e+07
1.80849e+07
1.80847e+07
1.80845e+07
1.80843e+07
1.80841e+07
1.8084e+07
1.80838e+07
1.80836e+07
1.80835e+07
1.80833e+07
1.80832e+07
1.80831e+07
1.80829e+07
1.80828e+07
1.80827e+07
1.80826e+07
1.80824e+07
1.80823e+07
1.80822e+07
1.8082e+07
1.80819e+07
1.80818e+07
1.80816e+07
1.80814e+07
1.80813e+07
1.80811e+07
1.80809e+07
1.80807e+07
1.80805e+07
1.80804e+07
1.80801e+07
1.80799e+07
1.80797e+07
1.80795e+07
1.80793e+07
1.80791e+07
1.80789e+07
1.80786e+07
1.80784e+07
1.80782e+07
1.8078e+07
1.80778e+07
1.80776e+07
1.80774e+07
1.80772e+07
1.8077e+07
1.80769e+07
1.80767e+07
1.80766e+07
1.80764e+07
1.80763e+07
1.80762e+07
1.80762e+07
1.80761e+07
1.80761e+07
1.8076e+07
1.8076e+07
1.8076e+07
1.80761e+07
1.80761e+07
1.80761e+07
1.80762e+07
1.80762e+07
1.80763e+07
1.80764e+07
1.80765e+07
1.80765e+07
1.80766e+07
1.80767e+07
1.80767e+07
1.80768e+07
1.80768e+07
1.80769e+07
1.80769e+07
1.80769e+07
1.80769e+07
1.80769e+07
1.80769e+07
1.80769e+07
1.80768e+07
1.80768e+07
1.80767e+07
1.80766e+07
1.80765e+07
1.80764e+07
1.80763e+07
1.80762e+07
1.80761e+07
1.8076e+07
1.80759e+07
1.80757e+07
1.80756e+07
1.80755e+07
1.80754e+07
1.80753e+07
1.80752e+07
1.80751e+07
1.8075e+07
1.80749e+07
1.80748e+07
1.80748e+07
1.80748e+07
1.80747e+07
1.80748e+07
1.80748e+07
1.80748e+07
1.80749e+07
1.80749e+07
1.8075e+07
1.80751e+07
1.80753e+07
1.80754e+07
1.80755e+07
1.80756e+07
1.80757e+07
1.80759e+07
1.8076e+07
1.80761e+07
1.80761e+07
1.80762e+07
1.80763e+07
1.80765e+07
1.80773e+07
1.80982e+07
1.80996e+07
1.80989e+07
1.80982e+07
1.80975e+07
1.80971e+07
1.80968e+07
1.80965e+07
1.80962e+07
1.8096e+07
1.80957e+07
1.80954e+07
1.80952e+07
1.80949e+07
1.80946e+07
1.80944e+07
1.80941e+07
1.80938e+07
1.80936e+07
1.80933e+07
1.80931e+07
1.80928e+07
1.80926e+07
1.80924e+07
1.80922e+07
1.8092e+07
1.80918e+07
1.80917e+07
1.80915e+07
1.80913e+07
1.80912e+07
1.80911e+07
1.80909e+07
1.80908e+07
1.80907e+07
1.80906e+07
1.80905e+07
1.80904e+07
1.80903e+07
1.80902e+07
1.80901e+07
1.80901e+07
1.809e+07
1.809e+07
1.809e+07
1.809e+07
1.809e+07
1.809e+07
1.809e+07
1.809e+07
1.809e+07
1.809e+07
1.809e+07
1.80899e+07
1.80899e+07
1.80898e+07
1.80897e+07
1.80895e+07
1.80894e+07
1.80892e+07
1.8089e+07
1.80888e+07
1.80885e+07
1.80883e+07
1.80881e+07
1.80878e+07
1.80875e+07
1.80873e+07
1.8087e+07
1.80868e+07
1.80865e+07
1.80863e+07
1.8086e+07
1.80858e+07
1.80856e+07
1.80853e+07
1.80851e+07
1.80849e+07
1.80847e+07
1.80845e+07
1.80843e+07
1.80841e+07
1.8084e+07
1.80838e+07
1.80836e+07
1.80835e+07
1.80833e+07
1.80832e+07
1.80831e+07
1.80829e+07
1.80828e+07
1.80827e+07
1.80826e+07
1.80824e+07
1.80823e+07
1.80822e+07
1.8082e+07
1.80819e+07
1.80818e+07
1.80816e+07
1.80814e+07
1.80813e+07
1.80811e+07
1.80809e+07
1.80807e+07
1.80805e+07
1.80804e+07
1.80801e+07
1.80799e+07
1.80797e+07
1.80795e+07
1.80793e+07
1.80791e+07
1.80789e+07
1.80786e+07
1.80784e+07
1.80782e+07
1.8078e+07
1.80778e+07
1.80776e+07
1.80774e+07
1.80772e+07
1.8077e+07
1.80769e+07
1.80767e+07
1.80766e+07
1.80764e+07
1.80763e+07
1.80762e+07
1.80762e+07
1.80761e+07
1.80761e+07
1.8076e+07
1.8076e+07
1.8076e+07
1.80761e+07
1.80761e+07
1.80761e+07
1.80762e+07
1.80762e+07
1.80763e+07
1.80764e+07
1.80765e+07
1.80765e+07
1.80766e+07
1.80767e+07
1.80767e+07
1.80768e+07
1.80768e+07
1.80769e+07
1.80769e+07
1.80769e+07
1.80769e+07
1.80769e+07
1.80769e+07
1.80769e+07
1.80768e+07
1.80768e+07
1.80767e+07
1.80766e+07
1.80765e+07
1.80764e+07
1.80763e+07
1.80762e+07
1.80761e+07
1.8076e+07
1.80759e+07
1.80757e+07
1.80756e+07
1.80755e+07
1.80754e+07
1.80753e+07
1.80752e+07
1.80751e+07
1.8075e+07
1.80749e+07
1.80748e+07
1.80748e+07
1.80748e+07
1.80747e+07
1.80748e+07
1.80748e+07
1.80748e+07
1.80749e+07
1.80749e+07
1.8075e+07
1.80751e+07
1.80753e+07
1.80754e+07
1.80755e+07
1.80756e+07
1.80757e+07
1.80759e+07
1.8076e+07
1.80761e+07
1.80761e+07
1.80762e+07
1.80763e+07
1.80765e+07
1.80773e+07
1.80637e+07
1.80588e+07
1.80571e+07
1.80567e+07
1.80559e+07
1.8054e+07
1.80514e+07
1.80487e+07
1.80455e+07
1.80425e+07
1.80393e+07
1.80362e+07
1.80332e+07
1.80302e+07
1.80275e+07
1.8025e+07
1.80228e+07
1.80211e+07
1.80201e+07
1.80201e+07
1.80678e+07
1.80667e+07
1.8067e+07
1.80674e+07
1.80668e+07
1.80652e+07
1.80627e+07
1.80605e+07
1.80575e+07
1.80551e+07
1.80522e+07
1.80495e+07
1.80468e+07
1.80443e+07
1.80418e+07
1.80396e+07
1.80376e+07
1.8036e+07
1.80348e+07
1.80339e+07
1.80766e+07
1.80766e+07
1.80762e+07
1.80754e+07
1.80743e+07
1.8073e+07
1.80714e+07
1.80696e+07
1.80675e+07
1.8065e+07
1.80621e+07
1.80589e+07
1.80556e+07
1.80524e+07
1.80494e+07
1.80466e+07
1.80434e+07
1.80397e+07
1.80357e+07
1.80314e+07
1.80811e+07
1.80824e+07
1.80824e+07
1.80818e+07
1.80812e+07
1.80806e+07
1.80798e+07
1.80782e+07
1.80767e+07
1.80757e+07
1.80755e+07
1.80763e+07
1.80778e+07
1.80773e+07
1.80728e+07
1.8065e+07
1.80592e+07
1.80561e+07
1.80535e+07
1.80514e+07
1.80826e+07
1.80852e+07
1.80855e+07
1.80849e+07
1.80844e+07
1.80838e+07
1.8083e+07
1.80816e+07
1.80801e+07
1.8079e+07
1.80787e+07
1.80795e+07
1.8081e+07
1.80809e+07
1.80771e+07
1.80701e+07
1.80645e+07
1.80611e+07
1.80581e+07
1.80551e+07
1.80286e+07
1.80296e+07
1.8029e+07
1.80285e+07
1.80281e+07
1.80278e+07
1.80277e+07
1.80276e+07
1.80275e+07
1.80274e+07
1.80273e+07
1.80273e+07
1.80272e+07
1.80271e+07
1.8027e+07
1.8027e+07
1.80269e+07
1.80268e+07
1.80268e+07
1.80267e+07
1.80267e+07
1.80266e+07
1.80266e+07
1.80265e+07
1.80265e+07
1.80264e+07
1.80264e+07
1.80263e+07
1.80263e+07
1.80262e+07
1.80262e+07
1.80261e+07
1.80261e+07
1.80261e+07
1.8026e+07
1.8026e+07
1.80259e+07
1.80259e+07
1.80258e+07
1.80257e+07
1.80256e+07
1.80256e+07
1.80256e+07
1.80255e+07
1.80255e+07
1.80255e+07
1.80255e+07
1.80255e+07
1.80255e+07
1.80255e+07
1.80255e+07
1.80255e+07
1.80255e+07
1.80254e+07
1.80254e+07
1.80253e+07
1.80252e+07
1.80251e+07
1.80249e+07
1.80248e+07
1.80246e+07
1.80244e+07
1.80241e+07
1.80239e+07
1.80237e+07
1.80235e+07
1.80233e+07
1.8023e+07
1.80228e+07
1.80226e+07
1.80224e+07
1.80222e+07
1.8022e+07
1.80219e+07
1.80217e+07
1.80215e+07
1.80214e+07
1.80213e+07
1.80211e+07
1.8021e+07
1.80209e+07
1.80209e+07
1.80208e+07
1.80207e+07
1.80207e+07
1.80206e+07
1.80205e+07
1.80205e+07
1.80204e+07
1.80204e+07
1.80203e+07
1.80202e+07
1.80201e+07
1.802e+07
1.80199e+07
1.80198e+07
1.80196e+07
1.80194e+07
1.80189e+07
1.80176e+07
1.80312e+07
1.80299e+07
1.80291e+07
1.80285e+07
1.80281e+07
1.80278e+07
1.80277e+07
1.80276e+07
1.80275e+07
1.80274e+07
1.80273e+07
1.80273e+07
1.80272e+07
1.80271e+07
1.8027e+07
1.8027e+07
1.80269e+07
1.80268e+07
1.80268e+07
1.80267e+07
1.80267e+07
1.80266e+07
1.80266e+07
1.80265e+07
1.80265e+07
1.80264e+07
1.80264e+07
1.80263e+07
1.80263e+07
1.80262e+07
1.80262e+07
1.80261e+07
1.80261e+07
1.80261e+07
1.8026e+07
1.8026e+07
1.80259e+07
1.80259e+07
1.80258e+07
1.80257e+07
1.80256e+07
1.80256e+07
1.80256e+07
1.80255e+07
1.80255e+07
1.80255e+07
1.80255e+07
1.80255e+07
1.80255e+07
1.80255e+07
1.80255e+07
1.80255e+07
1.80255e+07
1.80254e+07
1.80254e+07
1.80253e+07
1.80252e+07
1.80251e+07
1.80249e+07
1.80248e+07
1.80246e+07
1.80244e+07
1.80241e+07
1.80239e+07
1.80237e+07
1.80235e+07
1.80233e+07
1.8023e+07
1.80228e+07
1.80226e+07
1.80224e+07
1.80222e+07
1.8022e+07
1.80219e+07
1.80217e+07
1.80215e+07
1.80214e+07
1.80213e+07
1.80211e+07
1.8021e+07
1.80209e+07
1.80209e+07
1.80208e+07
1.80207e+07
1.80207e+07
1.80206e+07
1.80205e+07
1.80205e+07
1.80204e+07
1.80204e+07
1.80203e+07
1.80202e+07
1.80201e+07
1.802e+07
1.80199e+07
1.80198e+07
1.80196e+07
1.80194e+07
1.80189e+07
1.80177e+07
1.80201e+07
1.80243e+07
1.80276e+07
1.80282e+07
1.8028e+07
1.80277e+07
1.80276e+07
1.80275e+07
1.80275e+07
1.80274e+07
1.80273e+07
1.80272e+07
1.80272e+07
1.80271e+07
1.8027e+07
1.80269e+07
1.80269e+07
1.80268e+07
1.80268e+07
1.80267e+07
1.80267e+07
1.80266e+07
1.80266e+07
1.80265e+07
1.80265e+07
1.80264e+07
1.80264e+07
1.80263e+07
1.80263e+07
1.80262e+07
1.80262e+07
1.80261e+07
1.80261e+07
1.8026e+07
1.8026e+07
1.80259e+07
1.80259e+07
1.80258e+07
1.80257e+07
1.80256e+07
1.80255e+07
1.80255e+07
1.80254e+07
1.80254e+07
1.80254e+07
1.80254e+07
1.80254e+07
1.80254e+07
1.80254e+07
1.80254e+07
1.80254e+07