/*--------------------------------*- C++ -*----------------------------------*\
| =========                 |                                                 |
| \\      /  F ield         | OpenFOAM: The Open Source CFD Toolbox           |
|  \\    /   O peration     | Version:  3.0.x                                 |
|   \\  /    A nd           | Web:      www.OpenFOAM.org                      |
|    \\/     M anipulation  |                                                 |
\*---------------------------------------------------------------------------*/
FoamFile
{
    version     2.0;
    format      ascii;
    class       surfaceScalarField;
    location    "0.24";
    object      phi;
}
// * * * * * * * * * * * * * * * * * * * * * * * * * * * * * * * * * * * * * //

dimensions      [1 0 -1 0 0 0 0];

internalField   nonuniform List<scalar> 
12415
(
5.78644
0.000327817
5.78377
0.000234819
5.78111
0.000225457
5.77846
0.000227081
5.77583
0.000227437
5.77324
0.000227346
5.77068
0.000227317
5.76816
0.00022743
5.7657
0.000227498
5.76329
0.000227672
5.76093
0.000227783
5.75862
0.00022793
5.75637
0.000228079
5.75416
0.000228227
5.75202
0.000228372
5.74992
0.000228508
5.74787
0.000228635
5.74586
0.000228749
5.7439
0.00022885
5.74197
0.000228934
5.74008
0.000228989
5.73823
0.000228929
5.73641
0.00022901
5.73463
0.000228887
5.73289
0.000228505
5.73118
0.000228028
5.72951
0.000227176
5.72786
0.000225885
5.72622
0.000223996
5.72461
0.000221346
5.72303
0.000217761
5.72146
0.000213057
5.71992
0.00020717
5.71841
0.000199899
5.71693
0.000191234
5.71548
0.000181209
5.71407
0.000169909
5.7127
0.000157505
5.71138
0.000144233
5.7101
0.00013038
5.70887
0.000116267
5.70768
0.000102223
5.70655
8.85655e-05
5.70547
7.55781e-05
5.70444
6.34953e-05
5.70346
5.24916e-05
5.70254
4.26779e-05
5.70166
3.41024e-05
5.70084
2.67571e-05
5.70006
2.05873e-05
5.69932
1.55029e-05
5.69863
1.13906e-05
5.69799
8.12489e-06
5.69738
5.57756e-06
5.69681
3.62521e-06
5.69627
2.15426e-06
5.69576
1.06474e-06
5.69529
2.70569e-07
5.69484
-2.99211e-07
5.69441
-7.00247e-07
5.69401
-9.78738e-07
5.69362
-1.16927e-06
5.69326
-1.29805e-06
5.69291
-1.38419e-06
5.69257
-1.44144e-06
5.69225
-1.4795e-06
5.69194
-1.50504e-06
5.69165
-1.52257e-06
5.69137
-1.53511e-06
5.6911
-1.54462e-06
5.69084
-1.55236e-06
5.6906
-1.5591e-06
5.69038
-1.56535e-06
5.69017
-1.57137e-06
5.68997
-1.57735e-06
5.6898
-1.58336e-06
5.68964
-1.58945e-06
5.6895
-1.59561e-06
5.68938
-1.60183e-06
5.68928
-1.60808e-06
5.68919
-1.61432e-06
5.68913
-1.62047e-06
5.68908
-1.6258e-06
5.68904
-1.62875e-06
5.68902
-1.63419e-06
5.68901
-1.63899e-06
5.68902
-1.64768e-06
5.68902
-1.65435e-06
5.68904
-1.6558e-06
5.68905
-1.65346e-06
5.68906
-1.65518e-06
5.68907
-1.66538e-06
5.68907
-1.65458e-06
5.68906
-1.65047e-06
5.68903
-1.65247e-06
5.68899
-1.65039e-06
5.68893
-1.64979e-06
5.68884
-1.64766e-06
5.68872
-1.64528e-06
5.68858
-1.64364e-06
5.68841
-1.642e-06
5.68821
-1.64037e-06
5.68798
-1.63812e-06
5.68771
-1.63606e-06
5.68742
-1.63512e-06
5.6871
-1.63551e-06
5.68676
-1.63705e-06
5.68639
-1.63966e-06
5.68599
-1.64329e-06
5.68558
-1.64792e-06
5.68515
-1.65351e-06
5.68471
-1.65996e-06
5.68426
-1.66719e-06
5.68379
-1.67508e-06
5.68332
-1.6835e-06
5.68284
-1.69232e-06
5.68235
-1.70136e-06
5.68186
-1.71053e-06
5.68136
-1.71963e-06
5.68085
-1.72851e-06
5.68034
-1.73703e-06
5.67982
-1.74508e-06
5.67929
-1.75258e-06
5.67875
-1.75945e-06
5.67819
-1.76553e-06
5.67763
-1.77063e-06
5.67704
-1.77448e-06
5.67644
-1.7771e-06
5.67582
-1.77862e-06
5.67518
-1.77917e-06
5.67451
-1.77876e-06
5.67382
-1.77727e-06
5.6731
-1.77455e-06
5.67234
-1.77057e-06
5.67156
-1.76542e-06
5.67074
-1.7594e-06
5.66988
-1.75283e-06
5.66899
-1.74604e-06
5.66807
-1.73921e-06
5.66711
-1.73247e-06
5.66612
-1.72591e-06
5.66511
-1.71968e-06
5.66407
-1.71396e-06
5.66301
-1.70911e-06
5.66195
-1.70552e-06
5.66088
-1.70354e-06
5.6598
-1.70313e-06
5.65874
-1.70406e-06
5.65769
-1.70608e-06
5.65665
-1.70916e-06
5.65564
-1.71325e-06
5.65464
-1.71848e-06
5.65368
-1.72425e-06
5.65273
-1.73054e-06
5.6518
-1.73603e-06
5.6509
-1.74198e-06
5.65001
-1.74645e-06
5.64913
-1.75234e-06
5.64826
-1.75622e-06
5.6474
-1.76222e-06
5.64654
-1.76543e-06
5.64567
-1.77054e-06
5.64481
-1.77304e-06
5.64393
-1.7764e-06
5.64304
-1.77838e-06
5.64214
-1.77961e-06
5.64123
-1.78027e-06
5.64028
-1.77973e-06
5.63932
-1.77763e-06
5.63831
-1.77537e-06
5.63727
-1.77019e-06
5.63619
-1.76485e-06
5.63505
-1.75777e-06
5.63385
-1.74915e-06
5.6326
-1.73998e-06
5.63128
-1.73036e-06
5.6299
-1.71945e-06
5.62847
-1.70988e-06
5.62698
-1.69997e-06
5.62545
-1.6921e-06
5.62388
-1.68411e-06
5.62229
-1.67972e-06
5.62068
-1.67552e-06
5.61908
-1.67585e-06
5.61749
-1.67808e-06
5.61594
-1.68391e-06
5.61443
-1.69114e-06
5.61298
-1.70194e-06
5.61159
-1.71081e-06
5.61026
-1.72275e-06
5.60899
-1.71686e-06
5.60777
-1.64165e-06
5.60658
-1.09642e-06
5.60542
2.85251e-06
5.60424
3.03512e-05
5.60288
0.000223178
5.60017
0.00156996
5.58803
0.0109835
5.49946
0.0874197
0.430077
5.06825
11.5736
0.000260441
11.5688
0.000214711
11.5639
0.000190875
11.5591
0.000194535
11.5544
0.000195567
11.5497
0.000195088
11.545
0.000194964
11.5405
0.000195058
11.536
0.000195137
11.5317
0.000195274
11.5275
0.000195381
11.5233
0.000195514
11.5193
0.00019565
11.5154
0.000195787
11.5116
0.000195921
11.5079
0.000196048
11.5043
0.000196168
11.5008
0.000196277
11.4973
0.000196376
11.494
0.000196459
11.4907
0.000196516
11.4874
0.000196498
11.4843
0.000196552
11.4812
0.000196458
11.4782
0.000196167
11.4753
0.00019576
11.4725
0.000195048
11.4696
0.000193959
11.4668
0.000192356
11.4641
0.0001901
11.4614
0.000187042
11.4587
0.000183032
11.4561
0.000177975
11.4535
0.000171764
11.4509
0.000164335
11.4484
0.000155737
11.446
0.000146041
11.4436
0.000135393
11.4412
0.000123996
11.4389
0.000112096
11.4367
9.99702e-05
11.4346
8.79013e-05
11.4325
7.61625e-05
11.4305
6.49982e-05
11.4286
5.46103e-05
11.4267
4.51492e-05
11.425
3.67106e-05
11.4233
2.93362e-05
11.4217
2.30193e-05
11.4202
1.7713e-05
11.4188
1.334e-05
11.4174
9.80295e-06
11.4161
6.99402e-06
11.4149
4.80318e-06
11.4138
3.12439e-06
11.4127
1.85956e-06
11.4117
9.23704e-07
11.4107
2.4078e-07
11.4098
-2.49621e-07
11.409
-5.94621e-07
11.4082
-8.34864e-07
11.4074
-9.99336e-07
11.4067
-1.1106e-06
11.406
-1.18512e-06
11.4053
-1.23469e-06
11.4047
-1.26766e-06
11.404
-1.28979e-06
11.4034
-1.30499e-06
11.4029
-1.31584e-06
11.4023
-1.32407e-06
11.4018
-1.33075e-06
11.4013
-1.33656e-06
11.4009
-1.34193e-06
11.4005
-1.34711e-06
11.4001
-1.35224e-06
11.3997
-1.3574e-06
11.3994
-1.36262e-06
11.3991
-1.36791e-06
11.3989
-1.37324e-06
11.3987
-1.3786e-06
11.3985
-1.38395e-06
11.3983
-1.38919e-06
11.3982
-1.39381e-06
11.3982
-1.39616e-06
11.3981
-1.40176e-06
11.3981
-1.40498e-06
11.3981
-1.41173e-06
11.3981
-1.41853e-06
11.3981
-1.4194e-06
11.3982
-1.41782e-06
11.3982
-1.41932e-06
11.3982
-1.42634e-06
11.3982
-1.41948e-06
11.3982
-1.41503e-06
11.3981
-1.41643e-06
11.398
-1.415e-06
11.3979
-1.4143e-06
11.3977
-1.41256e-06
11.3975
-1.41052e-06
11.3972
-1.40901e-06
11.3968
-1.40776e-06
11.3964
-1.40625e-06
11.396
-1.40436e-06
11.3954
-1.40262e-06
11.3948
-1.40181e-06
11.3942
-1.40212e-06
11.3935
-1.40345e-06
11.3928
-1.40568e-06
11.392
-1.4088e-06
11.3911
-1.41278e-06
11.3903
-1.41757e-06
11.3894
-1.42311e-06
11.3885
-1.4293e-06
11.3875
-1.43607e-06
11.3866
-1.44329e-06
11.3856
-1.45084e-06
11.3846
-1.4586e-06
11.3837
-1.46646e-06
11.3827
-1.47426e-06
11.3816
-1.48187e-06
11.3806
-1.48918e-06
11.3796
-1.49609e-06
11.3785
-1.50251e-06
11.3774
-1.50839e-06
11.3763
-1.51362e-06
11.3752
-1.51798e-06
11.374
-1.5213e-06
11.3728
-1.52354e-06
11.3715
-1.52485e-06
11.3703
-1.52532e-06
11.3689
-1.52497e-06
11.3675
-1.52369e-06
11.3661
-1.52136e-06
11.3646
-1.51795e-06
11.363
-1.51354e-06
11.3613
-1.50837e-06
11.3596
-1.50275e-06
11.3578
-1.49691e-06
11.356
-1.49106e-06
11.3541
-1.48529e-06
11.3521
-1.47967e-06
11.3501
-1.47432e-06
11.348
-1.46943e-06
11.3459
-1.46526e-06
11.3437
-1.4622e-06
11.3416
-1.46048e-06
11.3394
-1.46014e-06
11.3373
-1.46094e-06
11.3352
-1.46268e-06
11.3331
-1.46533e-06
11.3311
-1.46883e-06
11.3291
-1.4733e-06
11.3272
-1.47826e-06
11.3253
-1.48363e-06
11.3234
-1.4884e-06
11.3216
-1.49341e-06
11.3198
-1.49736e-06
11.318
-1.50226e-06
11.3163
-1.50575e-06
11.3146
-1.51073e-06
11.3128
-1.51356e-06
11.3111
-1.51802e-06
11.3094
-1.51987e-06
11.3076
-1.52336e-06
11.3058
-1.52408e-06
11.304
-1.52645e-06
11.3022
-1.52552e-06
11.3003
-1.52651e-06
11.2984
-1.52354e-06
11.2964
-1.52235e-06
11.2943
-1.51753e-06
11.2921
-1.51309e-06
11.2898
-1.50706e-06
11.2874
-1.49958e-06
11.2849
-1.49159e-06
11.2823
-1.48384e-06
11.2795
-1.47371e-06
11.2766
-1.46653e-06
11.2737
-1.45686e-06
11.2706
-1.45161e-06
11.2674
-1.44286e-06
11.2643
-1.44111e-06
11.261
-1.43545e-06
11.2578
-1.43746e-06
11.2547
-1.43837e-06
11.2515
-1.4442e-06
11.2485
-1.44922e-06
11.2456
-1.46054e-06
11.2428
-1.46388e-06
11.2402
-1.47671e-06
11.2376
-1.43939e-06
11.2352
-1.20074e-06
11.2328
4.19144e-07
11.2305
1.21115e-05
11.2281
9.35265e-05
11.2254
0.000664416
11.22
0.00465113
11.1963
0.0323627
11.0505
0.230938
1.08183
10.3965
138.883
-0.000260441
138.825
-0.000214711
138.767
-0.000190875
138.709
-0.000194535
138.652
-0.000195567
138.596
-0.000195088
138.54
-0.000194964
138.486
-0.000195058
138.432
-0.000195137
138.38
-0.000195274
138.33
-0.000195381
138.28
-0.000195514
138.232
-0.00019565
138.185
-0.000195787
138.139
-0.000195921
138.095
-0.000196048
138.051
-0.000196168
138.009
-0.000196277
137.968
-0.000196376
137.927
-0.000196459
137.888
-0.000196516
137.849
-0.000196498
137.812
-0.000196552
137.775
-0.000196458
137.739
-0.000196167
137.704
-0.00019576
137.669
-0.000195048
137.635
-0.000193959
137.602
-0.000192356
137.569
-0.0001901
137.537
-0.000187042
137.505
-0.000183032
137.473
-0.000177975
137.442
-0.000171764
137.411
-0.000164335
137.381
-0.000155737
137.352
-0.000146041
137.323
-0.000135393
137.295
-0.000123996
137.267
-0.000112096
137.241
-9.99702e-05
137.215
-8.79013e-05
137.19
-7.61625e-05
137.166
-6.49982e-05
137.143
-5.46103e-05
137.121
-4.51492e-05
137.1
-3.67106e-05
137.08
-2.93362e-05
137.06
-2.30193e-05
137.042
-1.7713e-05
137.025
-1.334e-05
137.009
-9.80295e-06
136.993
-6.99402e-06
136.979
-4.80318e-06
136.965
-3.12439e-06
136.953
-1.85956e-06
136.94
-9.23702e-07
136.929
-2.40777e-07
136.918
2.49624e-07
136.908
5.94623e-07
136.898
8.34866e-07
136.889
9.99338e-07
136.88
1.1106e-06
136.872
1.18512e-06
136.864
1.23469e-06
136.856
1.26766e-06
136.848
1.2898e-06
136.841
1.30499e-06
136.835
1.31584e-06
136.828
1.32407e-06
136.822
1.33075e-06
136.816
1.33656e-06
136.811
1.34193e-06
136.806
1.34711e-06
136.801
1.35224e-06
136.797
1.35741e-06
136.793
1.36263e-06
136.789
1.36791e-06
136.786
1.37324e-06
136.784
1.3786e-06
136.782
1.38395e-06
136.78
1.3892e-06
136.779
1.39381e-06
136.778
1.39616e-06
136.778
1.40175e-06
136.777
1.40497e-06
136.777
1.41173e-06
136.777
1.41853e-06
136.778
1.4194e-06
136.778
1.41782e-06
136.778
1.41932e-06
136.778
1.42634e-06
136.778
1.41948e-06
136.778
1.41503e-06
136.777
1.41643e-06
136.776
1.415e-06
136.775
1.4143e-06
136.772
1.41255e-06
136.77
1.41052e-06
136.766
1.40901e-06
136.762
1.40776e-06
136.757
1.40626e-06
136.752
1.40436e-06
136.745
1.40261e-06
136.738
1.4018e-06
136.73
1.40213e-06
136.722
1.40345e-06
136.713
1.40569e-06
136.704
1.40881e-06
136.694
1.41278e-06
136.683
1.41757e-06
136.673
1.4231e-06
136.662
1.4293e-06
136.651
1.43607e-06
136.639
1.44329e-06
136.628
1.45084e-06
136.616
1.45861e-06
136.604
1.46646e-06
136.592
1.47426e-06
136.58
1.48187e-06
136.567
1.48918e-06
136.555
1.49609e-06
136.542
1.50251e-06
136.529
1.5084e-06
136.516
1.51362e-06
136.502
1.51798e-06
136.488
1.5213e-06
136.474
1.52354e-06
136.459
1.52485e-06
136.443
1.52532e-06
136.427
1.52497e-06
136.41
1.52369e-06
136.393
1.52136e-06
136.375
1.51795e-06
136.356
1.51354e-06
136.336
1.50838e-06
136.316
1.50275e-06
136.294
1.49691e-06
136.272
1.49106e-06
136.249
1.48529e-06
136.225
1.47966e-06
136.201
1.47432e-06
136.176
1.46943e-06
136.15
1.46527e-06
136.125
1.4622e-06
136.099
1.46049e-06
136.073
1.46014e-06
136.048
1.46093e-06
136.022
1.46269e-06
135.997
1.46532e-06
135.973
1.46885e-06
135.949
1.47327e-06
135.926
1.47832e-06
135.903
1.48354e-06
135.881
1.48854e-06
135.859
1.49319e-06
135.838
1.49767e-06
135.817
1.50183e-06
135.796
1.50631e-06
135.775
1.50999e-06
135.754
1.51451e-06
135.733
1.51685e-06
135.713
1.52133e-06
135.691
1.52153e-06
135.67
1.52637e-06
135.648
1.52362e-06
135.626
1.52887e-06
135.604
1.52285e-06
135.58
1.52716e-06
135.556
1.51917e-06
135.531
1.51989e-06
135.505
1.51175e-06
135.478
1.50756e-06
135.449
1.49917e-06
135.419
1.49281e-06
135.387
1.48135e-06
135.354
1.47731e-06
135.32
1.46238e-06
135.284
1.46088e-06
135.247
1.44767e-06
135.209
1.44761e-06
135.171
1.43529e-06
135.133
1.44166e-06
135.094
1.43193e-06
135.056
1.44314e-06
135.019
1.43819e-06
134.982
1.45778e-06
134.948
1.44977e-06
134.914
1.47883e-06
134.882
1.47058e-06
134.852
1.54356e-06
134.822
1.82297e-06
134.794
3.9997e-06
134.766
1.92507e-05
134.738
0.000128168
134.711
0.000907464
134.681
0.0064888
134.639
0.0466751
134.469
0.373303
1.60157
133.923
11.5736
-0.000327817
11.5688
-0.000234819
11.5639
-0.000225457
11.5591
-0.000227081
11.5544
-0.000227437
11.5497
-0.000227346
11.545
-0.000227317
11.5405
-0.00022743
11.536
-0.000227498
11.5317
-0.000227672
11.5275
-0.000227783
11.5233
-0.00022793
11.5193
-0.000228079
11.5154
-0.000228227
11.5116
-0.000228372
11.5079
-0.000228508
11.5043
-0.000228635
11.5008
-0.000228749
11.4973
-0.00022885
11.494
-0.000228934
11.4907
-0.000228989
11.4874
-0.000228929
11.4843
-0.00022901
11.4812
-0.000228887
11.4782
-0.000228505
11.4753
-0.000228028
11.4725
-0.000227176
11.4696
-0.000225885
11.4668
-0.000223996
11.4641
-0.000221346
11.4614
-0.000217761
11.4587
-0.000213057
11.4561
-0.00020717
11.4535
-0.000199899
11.4509
-0.000191234
11.4484
-0.000181209
11.446
-0.000169909
11.4436
-0.000157505
11.4412
-0.000144233
11.4389
-0.00013038
11.4367
-0.000116267
11.4346
-0.000102223
11.4325
-8.85655e-05
11.4305
-7.55781e-05
11.4286
-6.34953e-05
11.4267
-5.24916e-05
11.425
-4.26779e-05
11.4233
-3.41024e-05
11.4217
-2.67571e-05
11.4202
-2.05873e-05
11.4188
-1.55029e-05
11.4174
-1.13906e-05
11.4161
-8.12488e-06
11.4149
-5.57757e-06
11.4138
-3.62521e-06
11.4127
-2.15426e-06
11.4117
-1.06474e-06
11.4107
-2.70567e-07
11.4098
2.99213e-07
11.409
7.00249e-07
11.4082
9.7874e-07
11.4074
1.16928e-06
11.4067
1.29805e-06
11.406
1.38419e-06
11.4053
1.44144e-06
11.4047
1.4795e-06
11.404
1.50504e-06
11.4034
1.52257e-06
11.4029
1.53511e-06
11.4023
1.54462e-06
11.4018
1.55236e-06
11.4013
1.5591e-06
11.4009
1.56535e-06
11.4005
1.57137e-06
11.4001
1.57735e-06
11.3997
1.58336e-06
11.3994
1.58945e-06
11.3991
1.59561e-06
11.3989
1.60183e-06
11.3987
1.60808e-06
11.3985
1.61432e-06
11.3983
1.62047e-06
11.3982
1.6258e-06
11.3982
1.62876e-06
11.3981
1.6342e-06
11.3981
1.63899e-06
11.3981
1.64767e-06
11.3981
1.65436e-06
11.3981
1.6558e-06
11.3982
1.65346e-06
11.3982
1.65518e-06
11.3982
1.66538e-06
11.3982
1.65458e-06
11.3982
1.65047e-06
11.3981
1.65247e-06
11.398
1.65039e-06
11.3979
1.64979e-06
11.3977
1.64766e-06
11.3975
1.64528e-06
11.3972
1.64364e-06
11.3968
1.642e-06
11.3964
1.64037e-06
11.396
1.63812e-06
11.3954
1.63605e-06
11.3948
1.63512e-06
11.3942
1.63551e-06
11.3935
1.63705e-06
11.3928
1.63966e-06
11.392
1.64329e-06
11.3911
1.64792e-06
11.3903
1.65351e-06
11.3894
1.65996e-06
11.3885
1.66719e-06
11.3875
1.67508e-06
11.3866
1.6835e-06
11.3856
1.69232e-06
11.3846
1.70136e-06
11.3837
1.71053e-06
11.3827
1.71963e-06
11.3816
1.72851e-06
11.3806
1.73704e-06
11.3796
1.74508e-06
11.3785
1.75258e-06
11.3774
1.75944e-06
11.3763
1.76554e-06
11.3752
1.77063e-06
11.374
1.77448e-06
11.3728
1.7771e-06
11.3715
1.77862e-06
11.3703
1.77917e-06
11.3689
1.77876e-06
11.3675
1.77727e-06
11.3661
1.77455e-06
11.3646
1.77056e-06
11.363
1.76542e-06
11.3613
1.7594e-06
11.3596
1.75284e-06
11.3578
1.74604e-06
11.356
1.73921e-06
11.3541
1.73247e-06
11.3521
1.72591e-06
11.3501
1.71967e-06
11.348
1.71396e-06
11.3459
1.70911e-06
11.3437
1.70552e-06
11.3416
1.70354e-06
11.3394
1.70313e-06
11.3373
1.70405e-06
11.3352
1.70609e-06
11.3331
1.70915e-06
11.3311
1.71328e-06
11.3291
1.71843e-06
11.3272
1.72433e-06
11.3253
1.73041e-06
11.3234
1.73623e-06
11.3216
1.74169e-06
11.3198
1.74684e-06
11.318
1.75184e-06
11.3163
1.75684e-06
11.3146
1.76151e-06
11.3128
1.76619e-06
11.3111
1.76979e-06
11.3094
1.77373e-06
11.3076
1.77577e-06
11.3058
1.77896e-06
11.304
1.77898e-06
11.3022
1.78109e-06
11.3003
1.77868e-06
11.2984
1.77888e-06
11.2964
1.7741e-06
11.2943
1.77117e-06
11.2921
1.76435e-06
11.2898
1.75786e-06
11.2874
1.74912e-06
11.2849
1.74036e-06
11.2823
1.72942e-06
11.2795
1.72075e-06
11.2766
1.70852e-06
11.2737
1.70125e-06
11.2706
1.69078e-06
11.2674
1.68572e-06
11.2643
1.67772e-06
11.261
1.67764e-06
11.2578
1.6741e-06
11.2547
1.67961e-06
11.2515
1.68183e-06
11.2485
1.69407e-06
11.2456
1.69831e-06
11.2428
1.71586e-06
11.2402
1.72062e-06
11.2376
1.75256e-06
11.2352
1.85289e-06
11.2328
2.59645e-06
11.2305
7.78427e-06
11.2283
4.48264e-05
11.2266
0.000310192
11.2286
0.00222786
11.2563
0.0166132
11.4451
0.182285
0.692478
12.3519
5.78644
5.78377
5.78111
5.77846
5.77583
5.77324
5.77068
5.76816
5.7657
5.76329
5.76093
5.75862
5.75637
5.75416
5.75202
5.74992
5.74787
5.74586
5.7439
5.74197
5.74008
5.73823
5.73641
5.73463
5.73289
5.73118
5.72951
5.72786
5.72622
5.72461
5.72303
5.72146
5.71992
5.71841
5.71693
5.71548
5.71407
5.7127
5.71138
5.7101
5.70887
5.70768
5.70655
5.70547
5.70444
5.70346
5.70254
5.70166
5.70084
5.70006
5.69932
5.69863
5.69799
5.69738
5.69681
5.69627
5.69576
5.69529
5.69484
5.69441
5.69401
5.69362
5.69326
5.69291
5.69257
5.69225
5.69194
5.69165
5.69137
5.6911
5.69084
5.6906
5.69038
5.69017
5.68997
5.6898
5.68964
5.6895
5.68938
5.68928
5.68919
5.68913
5.68908
5.68904
5.68902
5.68901
5.68902
5.68902
5.68904
5.68905
5.68906
5.68907
5.68907
5.68906
5.68903
5.68899
5.68893
5.68884
5.68872
5.68858
5.68841
5.68821
5.68798
5.68771
5.68742
5.6871
5.68676
5.68639
5.68599
5.68558
5.68515
5.68471
5.68426
5.68379
5.68332
5.68284
5.68235
5.68186
5.68136
5.68085
5.68034
5.67982
5.67929
5.67875
5.67819
5.67763
5.67704
5.67644
5.67582
5.67518
5.67451
5.67382
5.6731
5.67234
5.67156
5.67074
5.66988
5.66899
5.66807
5.66711
5.66612
5.66511
5.66407
5.66301
5.66195
5.66088
5.6598
5.65874
5.65769
5.65665
5.65564
5.65464
5.65368
5.65273
5.6518
5.6509
5.65001
5.64913
5.64826
5.6474
5.64654
5.64567
5.64481
5.64393
5.64304
5.64214
5.64123
5.64028
5.63932
5.63831
5.63727
5.63619
5.63505
5.63385
5.6326
5.63128
5.6299
5.62847
5.62698
5.62545
5.62388
5.62229
5.62068
5.61908
5.61749
5.61594
5.61443
5.61298
5.61159
5.61026
5.60899
5.60777
5.60658
5.60543
5.60433
5.6035
5.60459
5.62005
5.80118
6.49252
4.94465
0.123322
4.95114
-0.00677824
4.9468
0.00406597
4.95076
-0.0042503
4.96557
-0.0151113
4.99399
-0.0287593
5.07242
-0.0787887
5.1844
-0.112509
5.247
-0.0632597
5.22487
0.0215479
5.14497
0.0794565
5.02939
0.115306
4.94657
0.0830807
5.10692
-0.159078
5.54579
-0.437692
6.14059
-0.594947
6.64847
-0.509609
6.86829
-0.222408
6.83247
0.0331913
-0.158906
6.98935
10.3446
0.174718
10.3613
-0.0240879
10.4062
-0.0413997
10.4593
-0.0578465
10.5272
-0.0836406
10.6191
-0.121329
10.8189
-0.279224
11.0927
-0.387396
11.2737
-0.245567
11.2934
0.000790632
11.1898
0.18229
10.9845
0.320055
10.7583
0.309749
10.9198
-0.317593
11.5813
-1.09714
12.6326
-1.64709
13.74
-1.62109
14.4634
-0.951266
14.6428
-0.150466
-0.246233
14.7268
133.97
0.121772
134.04
-0.0985299
134.04
-0.0468263
133.879
0.0985925
133.561
0.22959
133.123
0.312701
132.473
0.367527
131.725
0.354993
131.09
0.386425
130.733
0.35282
130.56
0.349321
130.551
0.323284
130.556
0.297991
129.955
0.275379
128.598
0.252902
126.725
0.222583
124.93
0.176659
123.869
0.112423
123.692
0.0273707
-0.184521
123.629
12.2966
0.176766
12.2033
-0.00551851
12.1621
-0.00593648
12.2353
0.0250865
12.4077
0.0568124
12.6387
0.0812829
12.906
0.0994006
13.1611
0.10009
13.4382
0.108555
13.6903
0.10091
13.9415
0.0977845
14.1753
0.089269
14.3929
0.0801415
14.5966
0.0713883
14.7876
0.0615257
14.9631
0.0467268
15.117
0.0224693
15.2444
-0.0153377
15.3487
-0.0772148
-0.255549
15.4195
6.66915
6.6635
6.65742
6.68236
6.739
6.82008
6.91916
7.01925
7.12756
7.22846
7.32615
7.4153
7.49531
7.56656
7.62794
7.6745
7.69681
7.68131
7.60396
7.34828
7.04943
-0.0603301
7.44356
-0.392819
7.74711
-0.305527
7.77889
-0.0335808
7.72536
0.0525105
7.70232
0.021962
7.72353
-0.0222807
7.74021
-0.0178332
7.74107
-0.00187962
7.73714
0.00292044
7.73483
0.00128189
7.73595
-0.00212438
7.73729
-0.00232932
7.73687
-0.0005283
7.73624
-0.000295337
7.73667
-0.0013156
7.73822
-0.00240477
7.74013
-0.00272705
7.74105
-0.00171169
7.74004
0.000244418
7.73815
0.00118111
7.73593
0.00156176
7.73338
0.00192241
7.73056
0.00223195
7.72751
0.00248738
7.72436
0.00262213
7.72134
0.00252116
7.71886
0.00199646
7.71777
0.000633749
7.71978
-0.00243264
7.72352
-0.0042168
7.72495
-0.0019358
7.72484
-0.000398014
7.72292
0.00139531
7.71932
0.00305677
7.71462
0.00412599
7.71022
0.00383177
7.70961
4.27193e-05
7.71933
-0.0103238
7.73216
-0.0135558
7.73483
-0.00349616
7.72752
0.00647198
7.71139
0.0152964
7.68628
0.0242693
7.65262
0.0327838
7.61052
0.0412089
7.5598
0.049821
7.49992
0.0589551
7.42993
0.0690439
7.34849
0.0804366
7.25386
0.0933159
7.14412
0.107128
7.01992
0.120982
6.88339
0.134529
6.73685
0.145387
6.58455
0.151828
6.43223
0.153765
6.28442
0.148793
6.14615
0.138384
6.02199
0.123649
5.91487
0.106325
5.8257
0.0882816
5.75376
0.0709285
5.69731
0.0555139
5.65403
0.0424039
5.62147
0.0317366
5.59735
0.0233421
5.57968
0.0169116
5.56685
0.0120913
5.55758
0.00854533
5.5509
0.00597478
5.54607
0.00413535
5.54254
0.00283538
5.53993
0.0019264
5.53795
0.00129713
5.53641
0.000865666
5.53515
0.000572597
5.53408
0.000375354
5.53313
0.00024381
5.53225
0.000156878
5.53142
9.99501e-05
5.5306
6.30123e-05
5.52978
3.92658e-05
5.52896
2.41406e-05
5.52812
1.45973e-05
5.52726
8.63315e-06
5.52638
4.94081e-06
5.52547
2.67649e-06
5.52453
1.30019e-06
5.52357
4.71844e-07
5.52258
-2.12567e-08
5.52157
-3.122e-07
5.52054
-4.81421e-07
5.51949
-5.80221e-07
5.51843
-6.37723e-07
5.51736
-6.71702e-07
5.51629
-6.92275e-07
5.51522
-7.0544e-07
5.51414
-7.14459e-07
5.51308
-7.21267e-07
5.51203
-7.27136e-07
5.511
-7.33096e-07
5.50999
-7.3921e-07
5.50901
-7.44747e-07
5.50805
-7.49125e-07
5.50713
-7.52389e-07
5.50624
-7.55059e-07
5.50539
-7.57636e-07
5.50458
-7.62509e-07
5.50381
-7.63246e-07
5.50308
-7.5895e-07
5.5024
-7.623e-07
5.50175
-7.64479e-07
5.50115
-7.64587e-07
5.50059
-7.61898e-07
5.50006
-7.58479e-07
5.49958
-7.54091e-07
5.49912
-7.49145e-07
5.49871
-7.42908e-07
5.49832
-7.36336e-07
5.49796
-7.282e-07
5.49762
-7.19054e-07
5.4973
-7.0914e-07
5.497
-6.98301e-07
5.4967
-6.86288e-07
5.49642
-6.73919e-07
5.49614
-6.60702e-07
5.49587
-6.47469e-07
5.49559
-6.34294e-07
5.4953
-6.20515e-07
5.495
-6.06064e-07
5.4947
-5.91122e-07
5.49438
-5.76989e-07
5.49405
-5.65566e-07
5.49371
-5.5881e-07
5.49335
-5.35932e-07
5.49298
-5.2756e-07
5.49261
-5.20789e-07
5.49222
-5.13388e-07
5.49182
-5.0818e-07
5.49143
-5.04015e-07
5.49103
-5.0153e-07
5.49064
-5.00759e-07
5.49026
-5.01683e-07
5.4899
-5.04615e-07
5.48955
-5.08948e-07
5.48922
-5.14457e-07
5.48891
-5.21337e-07
5.48863
-5.29042e-07
5.48837
-5.38043e-07
5.48815
-5.46859e-07
5.48795
-5.57038e-07
5.48779
-5.66706e-07
5.48765
-5.66446e-07
5.48755
-5.92481e-07
5.48748
-5.98397e-07
5.48743
-6.07241e-07
5.48742
-6.15124e-07
5.48742
-6.24033e-07
5.48746
-6.3072e-07
5.48752
-6.37172e-07
5.4876
-6.44151e-07
5.48771
-6.48424e-07
5.48783
-6.53887e-07
5.48798
-6.56404e-07
5.48814
-6.61132e-07
5.48831
-6.59844e-07
5.48849
-6.6288e-07
5.48868
-6.58243e-07
5.48887
-6.61497e-07
5.48905
-6.49257e-07
5.48922
-6.53145e-07
5.48938
-6.35966e-07
5.48951
-6.37594e-07
5.48962
-6.18656e-07
5.48969
-6.1541e-07
5.48972
-5.90902e-07
5.48971
-5.90164e-07
5.48965
-5.64421e-07
5.48954
-5.41419e-07
5.48939
-6.32004e-07
5.48919
-4.53598e-07
5.48894
-5.06183e-07
5.48864
-5.15147e-07
5.4883
-4.61116e-07
5.48793
-5.05695e-07
5.48753
-4.40365e-07
5.4871
-4.84099e-07
5.48666
-4.39248e-07
5.48621
-5.21117e-07
5.48577
-6.50072e-07
5.48535
-1.62052e-06
5.48496
-6.31365e-06
5.48463
-3.08528e-05
5.48447
-0.000157249
5.48502
-0.000812317
5.48906
-0.00424323
5.51184
-0.0229401
5.67831
-0.166569
-0.646819
6.32508
14.0172
0.649275
14.3434
-0.716486
14.8739
-0.840059
14.9872
-0.150553
14.8792
0.158529
14.8019
0.0970642
14.8204
-0.0429476
14.8516
-0.0512865
14.856
-0.00833152
14.8459
0.0110115
14.8366
0.00845663
14.8351
-0.00262964
14.8362
-0.00533388
14.8341
-0.000403427
14.8309
0.0010634
14.8295
-0.00165744
14.8311
-0.00576001
14.8355
-0.00873522
14.84
-0.00776637
14.8413
-0.00255786
14.8402
0.000846381
14.8376
0.00282341
14.8335
0.00474827
14.8279
0.00664744
14.8207
0.0085643
14.812
0.0103108
14.802
0.0115013
14.7916
0.0114538
14.7825
0.00875675
14.7794
-0.00023365
14.7815
-0.00726265
14.78
-0.00139306
14.774
0.0044849
14.7623
0.0121082
14.7439
0.0203182
14.7195
0.0274904
14.6914
0.0307263
14.6675
0.0227064
14.6668
-0.010931
14.685
-0.0332093
14.6945
-0.0146671
14.688
0.0113803
14.6639
0.0377005
14.6209
0.0656583
14.559
0.0928982
14.4785
0.119964
14.3794
0.147147
14.2616
0.174965
14.1245
0.204236
13.9672
0.235562
13.7884
0.268845
13.5883
0.302449
13.3702
0.335366
13.1381
0.364242
12.8967
0.384986
12.6537
0.394504
12.4171
0.391677
12.1925
0.373444
11.9869
0.343226
11.8051
0.30411
11.6497
0.260147
11.5208
0.215466
11.4167
0.173269
11.3347
0.135845
11.2713
0.104155
11.2231
0.0783138
11.187
0.0578965
11.1602
0.0421709
11.1405
0.0303127
11.1261
0.0215279
11.1156
0.0151195
11.1078
0.0105075
11.102
0.00722927
11.0977
0.00492579
11.0943
0.00332438
11.0916
0.00222256
11.0893
0.00147208
11.0873
0.000965943
11.0855
0.000627914
11.0838
0.00040434
11.0822
0.000257891
11.0806
0.000162883
11.079
0.000101839
11.0773
6.29937e-05
11.0757
3.85125e-05
11.0739
2.32324e-05
11.0722
1.37872e-05
11.0703
8.00466e-06
11.0685
4.49635e-06
11.0665
2.38904e-06
11.0646
1.13595e-06
11.0626
3.96765e-07
11.0605
-3.22185e-08
11.0584
-2.8177e-07
11.0563
-4.25635e-07
11.0541
-5.08466e-07
11.052
-5.56387e-07
11.0498
-5.84506e-07
11.0477
-6.01526e-07
11.0456
-6.12481e-07
11.0435
-6.20248e-07
11.0414
-6.26812e-07
11.0394
-6.32819e-07
11.0374
-6.37999e-07
11.0355
-6.41997e-07
11.0336
-6.44949e-07
11.0319
-6.4734e-07
11.0302
-6.49717e-07
11.0285
-6.53234e-07
11.027
-6.54294e-07
11.0255
-6.5156e-07
11.0242
-6.53103e-07
11.0229
-6.55391e-07
11.0217
-6.55446e-07
11.0205
-6.5313e-07
11.0195
-6.503e-07
11.0185
-6.46494e-07
11.0176
-6.42229e-07
11.0168
-6.36985e-07
11.016
-6.31103e-07
11.0153
-6.24405e-07
11.0146
-6.16352e-07
11.014
-6.08013e-07
11.0133
-5.98647e-07
11.0128
-5.8843e-07
11.0122
-5.77702e-07
11.0116
-5.66466e-07
11.0111
-5.55074e-07
11.0105
-5.43765e-07
11.0099
-5.31982e-07
11.0093
-5.19611e-07
11.0087
-5.06871e-07
11.0081
-4.948e-07
11.0074
-4.85019e-07
11.0068
-4.77938e-07
11.006
-4.60383e-07
11.0053
-4.52182e-07
11.0045
-4.46491e-07
11.0038
-4.4017e-07
11.003
-4.35592e-07
11.0022
-4.32164e-07
11.0014
-4.29744e-07
11.0006
-4.29589e-07
10.9998
-4.3002e-07
10.9991
-4.32505e-07
10.9984
-4.36414e-07
10.9977
-4.40962e-07
10.9971
-4.47079e-07
10.9966
-4.53415e-07
10.9961
-4.61374e-07
10.9956
-4.68802e-07
10.9952
-4.77831e-07
10.9949
-4.86761e-07
10.9946
-4.80557e-07
10.9944
-5.10725e-07
10.9943
-5.14404e-07
10.9942
-5.20362e-07
10.9941
-5.27645e-07
10.9941
-5.34785e-07
10.9942
-5.41217e-07
10.9943
-5.45553e-07
10.9945
-5.53249e-07
10.9947
-5.54734e-07
10.995
-5.61658e-07
10.9952
-5.60706e-07
10.9956
-5.69446e-07
10.9959
-5.6337e-07
10.9963
-5.71577e-07
10.9966
-5.59178e-07
10.997
-5.74023e-07
10.9974
-5.46783e-07
10.9977
-5.69661e-07
10.998
-5.34587e-07
10.9983
-5.57716e-07
10.9985
-5.22895e-07
10.9986
-5.37928e-07
10.9987
-4.91953e-07
10.9987
-5.18497e-07
10.9986
-4.70967e-07
10.9983
-4.35147e-07
10.998
-7.01619e-07
10.9976
-2.61117e-07
10.9971
-4.16319e-07
10.9965
-4.81406e-07
10.9959
-3.43192e-07
10.9951
-4.99413e-07
10.9943
-3.23947e-07
10.9935
-4.67089e-07
10.9926
-3.452e-07
10.9917
-5.89994e-07
10.9908
-9.68172e-07
10.9899
-3.81599e-06
10.9892
-1.76135e-05
10.9885
-8.97966e-05
10.9882
-0.00046157
10.9892
-0.00238513
10.9969
-0.0123675
11.0382
-0.0645602
11.2302
-0.358697
-1.47937
12.0626
124.197
0.046015
123.421
0.021808
122.537
0.0151132
122.35
0.00930074
122.481
0.00154175
122.549
0.00286013
122.477
0.00216856
122.403
-0.0040528
122.376
-0.00643834
122.366
-0.00441346
122.353
-0.0026892
122.328
-0.00227848
122.301
-0.00230974
122.28
-0.00158694
122.259
-0.000715839
122.236
-0.000108491
122.21
4.97161e-05
122.182
-9.04215e-05
122.155
-0.000357947
122.135
-0.000390221
122.119
-0.000172444
122.106
-1.21864e-05
122.095
0.000106198
122.087
0.00020309
122.082
0.000306033
122.079
0.000421072
122.077
0.000553351
122.076
0.000684256
122.072
0.000720953
122.06
0.000397429
122.042
-0.0017606
122.034
-0.0047963
122.033
-0.00701133
122.041
-0.00870474
122.059
-0.0101541
122.085
-0.012168
122.12
-0.0163011
122.159
-0.025132
122.184
-0.0421132
122.21
-0.0679015
122.282
-0.0980247
122.41
-0.130731
122.598
-0.166662
122.852
-0.205656
123.172
-0.247003
123.559
-0.288663
124.012
-0.327453
124.525
-0.359742
125.088
-0.382212
125.694
-0.392766
126.332
-0.392197
126.993
-0.381235
127.669
-0.361523
128.348
-0.335301
129.017
-0.304759
129.661
-0.270893
130.267
-0.235261
130.819
-0.200076
131.308
-0.166789
131.728
-0.136469
132.077
-0.109737
132.359
-0.0868168
132.58
-0.067671
132.749
-0.0520089
132.874
-0.0394372
132.963
-0.0295086
133.025
-0.0217917
133.065
-0.0158831
133.089
-0.0114253
133.102
-0.00811279
133.106
-0.00568672
133.104
-0.00393547
133.097
-0.00268886
133.088
-0.00181415
133.076
-0.00120867
133.063
-0.000795215
133.048
-0.000516667
133.033
-0.000331485
133.017
-0.000209984
133
-0.000131299
132.983
-8.10013e-05
132.965
-4.92621e-05
132.946
-2.94909e-05
132.927
-1.73323e-05
132.907
-9.95126e-06
132.887
-5.52919e-06
132.866
-2.91452e-06
132.844
-1.38687e-06
132.822
-5.05e-07
132.799
-5.86158e-09
132.775
2.72848e-07
132.751
4.2769e-07
132.726
5.12347e-07
132.701
5.58399e-07
132.675
5.83474e-07
132.65
5.97661e-07
132.624
6.06281e-07
132.598
6.12163e-07
132.572
6.16723e-07