/*--------------------------------*- C++ -*----------------------------------*\
| =========                 |                                                 |
| \\      /  F ield         | OpenFOAM: The Open Source CFD Toolbox           |
|  \\    /   O peration     | Version:  3.0.x                                 |
|   \\  /    A nd           | Web:      www.OpenFOAM.org                      |
|    \\/     M anipulation  |                                                 |
\*---------------------------------------------------------------------------*/
FoamFile
{
    version     2.0;
    format      ascii;
    class       volScalarField;
    location    "0.24";
    object      T;
}
// * * * * * * * * * * * * * * * * * * * * * * * * * * * * * * * * * * * * * //

dimensions      [0 0 0 1 0 0 0];

internalField   nonuniform List<scalar> 
6900
(
774.22
774.218
774.216
774.215
774.215
774.215
774.215
774.215
774.214
774.212
774.209
774.206
774.203
774.2
774.196
774.192
774.189
774.187
774.185
774.184
774.183
774.183
774.183
774.183
774.182
774.18
774.177
774.175
774.173
774.172
774.171
774.171
774.171
774.172
774.172
774.173
774.174
774.175
774.177
774.178
774.179
774.18
774.181
774.182
774.183
774.184
774.185
774.186
774.187
774.188
774.189
774.19
774.191
774.192
774.193
774.194
774.195
774.195
774.196
774.197
774.198
774.198
774.199
774.2
774.2
774.201
774.202
774.202
774.203
774.204
774.204
774.205
774.205
774.206
774.206
774.206
774.207
774.207
774.207
774.207
774.207
774.207
774.207
774.207
774.207
774.207
774.207
774.207
774.207
774.207
774.206
774.206
774.206
774.206
774.205
774.205
774.205
774.205
774.205
774.204
774.204
774.204
774.204
774.204
774.204
774.204
774.204
774.203
774.203
774.203
774.203
774.202
774.202
774.202
774.201
774.201
774.2
774.199
774.198
774.197
774.196
774.195
774.194
774.193
774.191
774.19
774.189
774.187
774.186
774.184
774.183
774.181
774.18
774.178
774.177
774.175
774.174
774.172
774.171
774.17
774.168
774.167
774.166
774.165
774.164
774.163
774.162
774.16
774.159
774.158
774.157
774.156
774.154
774.153
774.151
774.15
774.148
774.146
774.145
774.143
774.141
774.139
774.137
774.135
774.133
774.131
774.129
774.127
774.125
774.122
774.12
774.118
774.116
774.114
774.112
774.11
774.108
774.106
774.105
774.103
774.101
774.1
774.098
774.096
774.095
774.093
774.091
774.089
774.087
774.085
774.083
774.081
774.078
774.076
774.073
774.072
774.068
774.067
774.065
774.13
774.218
774.216
774.214
774.213
774.213
774.213
774.213
774.213
774.212
774.21
774.207
774.204
774.201
774.198
774.195
774.191
774.188
774.185
774.183
774.182
774.181
774.181
774.182
774.181
774.18
774.179
774.176
774.174
774.172
774.17
774.17
774.169
774.17
774.17
774.171
774.172
774.173
774.174
774.175
774.177
774.178
774.179
774.18
774.181
774.182
774.183
774.184
774.185
774.186
774.187
774.188
774.189
774.19
774.191
774.192
774.193
774.193
774.194
774.195
774.196
774.197
774.197
774.198
774.199
774.199
774.2
774.201
774.201
774.202
774.202
774.203
774.204
774.204
774.204
774.205
774.205
774.206
774.206
774.206
774.206
774.206
774.206
774.206
774.206
774.206
774.206
774.206
774.206
774.206
774.205
774.205
774.205
774.205
774.205
774.204
774.204
774.204
774.204
774.203
774.203
774.203
774.203
774.203
774.203
774.203
774.203
774.202
774.202
774.202
774.202
774.202
774.201
774.201
774.201
774.2
774.199
774.199
774.198
774.197
774.196
774.195
774.194
774.193
774.192
774.19
774.189
774.188
774.186
774.185
774.183
774.182
774.18
774.179
774.177
774.176
774.174
774.173
774.171
774.17
774.169
774.167
774.166
774.165
774.164
774.163
774.162
774.16
774.159
774.158
774.157
774.156
774.154
774.153
774.152
774.15
774.149
774.147
774.145
774.144
774.142
774.14
774.138
774.136
774.134
774.132
774.13
774.128
774.126
774.123
774.121
774.119
774.117
774.115
774.113
774.111
774.109
774.107
774.105
774.103
774.102
774.1
774.099
774.097
774.095
774.094
774.092
774.09
774.088
774.086
774.084
774.082
774.08
774.077
774.075
774.072
774.07
774.067
774.066
774.064
774.124
774.218
774.216
774.214
774.213
774.213
774.213
774.213
774.213
774.212
774.21
774.207
774.204
774.201
774.198
774.195
774.191
774.188
774.185
774.184
774.182
774.181
774.181
774.182
774.181
774.18
774.179
774.176
774.174
774.172
774.17
774.17
774.169
774.17
774.17
774.171
774.172
774.173
774.174
774.175
774.177
774.178
774.179
774.18
774.181
774.182
774.183
774.184
774.185
774.186
774.187
774.188
774.189
774.19
774.191
774.192
774.193
774.193
774.194
774.195
774.196
774.197
774.197
774.198
774.199
774.199
774.2
774.201
774.201
774.202
774.202
774.203
774.204
774.204
774.204
774.205
774.205
774.206
774.206
774.206
774.206
774.206
774.206
774.206
774.206
774.206
774.206
774.206
774.206
774.206
774.205
774.205
774.205
774.205
774.205
774.204
774.204
774.204
774.204
774.203
774.203
774.203
774.203
774.203
774.203
774.203
774.203
774.202
774.202
774.202
774.202
774.202
774.201
774.201
774.201
774.2
774.199
774.199
774.198
774.197
774.196
774.195
774.194
774.193
774.192
774.19
774.189
774.188
774.186
774.185
774.183
774.182
774.18
774.179
774.177
774.176
774.174
774.173
774.171
774.17
774.169
774.167
774.166
774.165
774.164
774.163
774.162
774.16
774.159
774.158
774.157
774.156
774.154
774.153
774.152
774.15
774.149
774.147
774.145
774.144
774.142
774.14
774.138
774.136
774.134
774.132
774.13
774.128
774.126
774.123
774.121
774.119
774.117
774.115
774.113
774.111
774.109
774.107
774.105
774.103
774.102
774.1
774.099
774.097
774.095
774.094
774.092
774.09
774.088
774.086
774.084
774.082
774.08
774.077
774.075
774.072
774.07
774.067
774.066
774.062
774.064
774.218
774.216
774.214
774.213
774.213
774.213
774.213
774.213
774.212
774.21
774.207
774.204
774.201
774.198
774.195
774.191
774.188
774.185
774.183
774.182
774.181
774.181
774.182
774.181
774.18
774.179
774.176
774.174
774.172
774.17
774.17
774.169
774.17
774.17
774.171
774.172
774.173
774.174
774.175
774.177
774.178
774.179
774.18
774.181
774.182
774.183
774.184
774.185
774.186
774.187
774.188
774.189
774.19
774.191
774.192
774.193
774.193
774.194
774.195
774.196
774.197
774.197
774.198
774.199
774.199
774.2
774.201
774.201
774.202
774.202
774.203
774.204
774.204
774.204
774.205
774.205
774.206
774.206
774.206
774.206
774.206
774.206
774.206
774.206
774.206
774.206
774.206
774.206
774.206
774.205
774.205
774.205
774.205
774.205
774.204
774.204
774.204
774.204
774.203
774.203
774.203
774.203
774.203
774.203
774.203
774.203
774.202
774.202
774.202
774.202
774.202
774.201
774.201
774.201
774.2
774.199
774.199
774.198
774.197
774.196
774.195
774.194
774.193
774.192
774.19
774.189
774.188
774.186
774.185
774.183
774.182
774.18
774.179
774.177
774.176
774.174
774.173
774.171
774.17
774.169
774.167
774.166
774.165
774.164
774.163
774.162
774.16
774.159
774.158
774.157
774.156
774.154
774.153
774.152
774.15
774.149
774.147
774.145
774.144
774.142
774.14
774.138
774.136
774.134
774.132
774.13
774.128
774.126
774.123
774.121
774.119
774.117
774.115
774.113
774.111
774.109
774.107
774.105
774.104
774.102
774.1
774.098
774.097
774.095
774.094
774.092
774.09
774.088
774.086
774.084
774.082
774.08
774.078
774.075
774.073
774.07
774.068
774.062
774.065
773.943
774.22
774.218
774.216
774.215
774.215
774.215
774.215
774.215
774.214
774.212
774.209
774.206
774.203
774.2
774.196
774.192
774.189
774.187
774.185
774.184
774.183
774.183
774.183
774.183
774.182
774.18
774.177
774.175
774.173
774.172
774.171
774.171
774.171
774.172
774.172
774.173
774.174
774.175
774.177
774.178
774.179
774.18
774.181
774.182
774.183
774.184
774.185
774.186
774.187
774.188
774.189
774.19
774.191
774.192
774.193
774.194
774.195
774.195
774.196
774.197
774.198
774.198
774.199
774.2
774.2
774.201
774.202
774.202
774.203
774.204
774.204
774.205
774.205
774.206
774.206
774.206
774.207
774.207
774.207
774.207
774.207
774.207
774.207
774.207
774.207
774.207
774.207
774.207
774.207
774.207
774.206
774.206
774.206
774.206
774.205
774.205
774.205
774.205
774.205
774.204
774.204
774.204
774.204
774.204
774.204
774.204
774.204
774.203
774.203
774.203
774.203
774.202
774.202
774.202
774.201
774.201
774.2
774.199
774.198
774.197
774.196
774.195
774.194
774.193
774.191
774.19
774.189
774.187
774.186
774.184
774.183
774.181
774.18
774.178
774.177
774.175
774.174
774.172
774.171
774.17
774.168
774.167
774.166
774.165
774.164
774.163
774.162
774.16
774.159
774.158
774.157
774.156
774.154
774.153
774.151
774.15
774.148
774.146
774.145
774.143
774.141
774.139
774.137
774.135
774.133
774.131
774.129
774.127
774.125
774.122
774.12
774.118
774.116
774.114
774.112
774.11
774.108
774.106
774.105
774.103
774.101
774.1
774.098
774.096
774.095
774.093
774.091
774.089
774.088
774.085
774.083
774.081
774.079
774.076
774.074
774.071
774.069
774.063
774.073
773.86
774.113
774.126
774.125
774.123
774.122
774.119
774.114
774.107
774.096
774.084
774.085
774.093
774.104
774.081
774.043
774.016
774.001
773.953
773.902
773.882
774.101
774.104
774.102
774.098
774.094
774.089
774.082
774.072
774.06
774.043
774.039
774.048
774.062
774.04
773.983
773.967
773.958
773.928
773.857
773.833
774.063
774.062
774.059
774.053
774.047
774.041
774.033
774.027
774.018
774.01
773.999
773.991
773.984
773.979
773.982
773.983
773.974
773.956
773.941
773.93
773.994
773.995
774
773.999
773.992
773.978
773.963
773.94
773.927
773.902
773.889
773.873
773.85
773.834
773.823
773.809
773.797
773.787
773.778
773.771
773.943
773.923
773.919
773.921
773.919
773.915
773.903
773.888
773.873
773.859
773.842
773.831
773.814
773.804
773.79
773.784
773.774
773.776
773.783
773.813
773.756
773.754
773.76
773.75
773.716
773.709
773.716
773.724
773.719
773.711
773.71
773.71
773.709
773.707
773.704
773.702
773.701
773.699
773.697
773.695
773.693
773.692
773.69
773.688
773.687
773.686
773.685
773.683
773.681
773.679
773.679
773.679
773.679
773.68
773.681
773.681
773.68
773.675
773.672
773.672
773.675
773.68
773.684
773.685
773.686
773.687
773.688
773.689
773.691
773.695
773.715
773.816
774.077
774.262
774.315
774.293
774.124
773.837
773.662
773.584
773.563
773.564
773.579
773.598
773.609
773.616
773.619
773.62
773.62
773.62
773.619
773.618
773.616
773.615
773.613
773.612
773.61
773.609
773.607
773.606
773.605
773.603
773.602
773.601
773.6
773.599
773.598
773.597
773.596
773.595
773.594
773.593
773.592
773.591
773.59
773.589
773.588
773.587
773.586
773.585
773.584
773.583
773.582
773.581
773.579
773.578
773.576
773.575
773.574
773.572
773.57
773.569
773.567
773.566
773.564
773.563
773.561
773.56
773.558
773.557
773.555
773.554
773.553
773.551
773.55
773.549
773.549
773.548
773.547
773.547
773.546
773.546
773.546
773.546
773.546
773.546
773.546
773.546
773.547
773.547
773.548
773.548
773.549
773.549
773.55
773.55
773.551
773.551
773.551
773.552
773.552
773.552
773.552
773.552
773.552
773.551
773.551
773.551
773.55
773.55
773.549
773.548
773.548
773.547
773.546
773.545
773.544
773.543
773.543
773.542
773.541
773.54
773.539
773.539
773.538
773.537
773.537
773.537
773.536
773.536
773.536
773.537
773.537
773.537
773.538
773.538
773.539
773.54
773.541
773.542
773.543
773.543
773.544
773.545
773.546
773.546
773.547
773.543
773.549
773.377
773.744
773.748
773.765
773.759
773.729
773.723
773.734
773.739
773.735
773.728
773.727
773.727
773.727
773.724
773.722
773.721
773.72
773.717
773.715
773.713
773.711
773.709
773.707
773.705
773.704
773.703
773.701
773.7
773.699
773.699
773.699
773.7
773.702
773.703
773.704
773.703
773.701
773.701
773.702
773.705
773.708
773.711
773.714
773.714
773.714
773.714
773.714
773.715
773.716
773.724
773.766
773.905
774.049
774.112
774.117
774.073
773.913
773.758
773.669
773.627
773.612
773.609
773.61
773.615
773.618
773.62
773.621
773.621
773.621
773.62
773.618
773.617
773.615
773.614
773.612
773.611
773.609
773.608
773.606
773.605
773.604
773.602
773.601
773.6
773.599
773.598
773.597
773.596
773.595
773.594
773.593
773.592
773.591
773.59
773.589
773.588
773.587
773.586
773.585
773.584
773.583
773.582
773.581
773.579
773.578
773.577
773.575
773.574
773.572
773.571
773.569
773.568
773.566
773.565
773.563
773.562
773.56
773.558
773.557
773.556
773.554
773.553
773.552
773.55
773.549
773.548
773.547
773.547
773.546
773.545
773.545
773.545
773.545
773.545
773.545
773.545
773.545
773.545
773.546
773.546
773.546
773.547
773.548
773.548
773.549
773.549
773.55
773.55
773.55
773.55
773.551
773.551
773.551
773.551
773.551
773.55
773.55
773.55
773.549
773.549
773.548
773.547
773.547
773.546
773.545
773.544
773.543
773.542
773.542
773.541
773.54
773.539
773.538
773.537
773.537
773.536
773.536
773.536
773.535
773.535
773.535
773.536
773.536
773.536
773.537
773.537
773.538
773.539
773.54
773.541
773.542
773.542
773.543
773.544
773.545
773.545
773.546
773.543
773.543
773.447
773.937
773.976
773.98
773.974
773.974
773.976
773.977
773.976
773.974
773.973
773.972
773.971
773.97
773.968
773.965
773.963
773.96
773.958
773.955
773.953
773.952
773.952
773.952
773.952
773.954
773.954
773.955
773.956
773.957
773.96
773.962
773.965
773.966
773.967
773.967
773.967
773.962
773.939
773.882
773.822
773.773
773.736
773.712
773.697
773.688
773.685
773.684
773.685
773.686
773.688
773.688
773.688
773.684
773.674
773.665
773.657
773.651
773.647
773.644
773.642
773.64
773.638
773.636
773.634
773.632
773.63
773.628
773.626
773.624
773.622
773.62
773.618
773.616
773.614
773.613
773.611
773.609
773.608
773.606
773.605
773.604
773.602
773.601
773.6
773.599
773.598
773.597
773.596
773.595
773.594
773.593
773.592
773.591
773.59
773.589
773.588
773.587
773.586
773.585
773.584
773.583
773.582
773.581
773.579
773.578
773.577
773.575
773.574
773.572
773.571
773.569
773.568
773.566
773.565
773.563
773.562
773.56
773.558
773.557
773.556
773.554
773.553
773.552
773.55
773.549
773.548
773.547
773.547
773.546
773.545
773.545
773.545
773.545
773.545
773.545
773.545
773.545
773.545
773.546
773.546
773.546
773.547
773.548
773.548
773.549
773.549
773.55
773.55
773.55
773.55
773.551
773.551
773.551
773.551
773.551
773.55
773.55
773.55
773.549
773.549
773.548
773.547
773.547
773.546
773.545
773.544
773.543
773.542
773.542
773.541
773.54
773.539
773.538
773.538
773.537
773.536
773.536
773.536
773.535
773.535
773.535
773.536
773.536
773.536
773.537
773.537
773.538
773.539
773.54
773.541
773.541
773.542
773.543
773.544
773.545
773.545
773.546
773.546
773.546
773.549
773.748
773.747
773.744
773.735
773.729
773.729
773.729
773.727
773.722
773.72
773.719
773.717
773.715
773.713
773.711
773.709
773.708
773.706
773.704
773.703
773.701
773.7
773.698
773.697
773.696
773.694
773.693
773.691
773.689
773.688
773.687
773.687
773.686
773.684
773.683
773.682
773.682
773.683
773.684
773.688
773.693
773.697
773.699
773.704
773.713
773.725
773.732
773.737
773.747
773.777
773.827
773.859
773.868
773.866
773.844
773.773
773.704
773.66
773.635
773.624
773.62
773.619
773.62
773.622
773.623
773.623
773.623
773.623
773.622
773.62
773.619
773.617
773.616
773.614
773.612
773.611
773.609
773.608
773.606
773.605
773.604
773.602
773.601
773.6
773.599
773.598
773.597
773.596
773.595
773.594
773.593
773.592
773.591
773.59
773.589
773.588
773.587
773.586
773.585
773.584
773.583
773.582
773.581
773.579
773.578
773.577
773.575
773.574
773.572
773.571
773.569
773.568
773.566
773.565
773.563
773.562
773.56
773.558
773.557
773.556
773.554
773.553
773.552
773.55
773.549
773.548
773.547
773.547
773.546
773.545
773.545
773.545
773.545
773.545
773.545
773.545
773.545
773.545
773.546
773.546
773.546
773.547
773.548
773.548
773.549
773.549
773.55
773.55
773.55
773.55
773.551
773.551
773.551
773.551
773.551
773.55
773.55
773.55
773.549
773.549
773.548
773.547
773.547
773.546
773.545
773.544
773.543
773.542
773.542
773.541
773.54
773.539
773.538
773.538
773.537
773.536
773.536
773.536
773.535
773.535
773.535
773.536
773.536
773.536
773.537
773.537
773.538
773.539
773.54
773.541
773.541
773.542
773.543
773.544
773.545
773.545
773.546
773.547
773.549
773.6
773.867
773.867
773.865
773.856
773.849
773.848
773.846
773.843
773.839
773.837
773.835
773.832
773.83
773.829
773.827
773.825
773.824
773.823
773.821
773.819
773.818
773.816
773.815
773.813
773.811
773.809
773.806
773.805
773.803
773.802
773.802
773.801
773.799
773.798
773.798
773.798
773.799
773.801
773.805
773.807
773.808
773.812
773.819
773.824
773.825
773.825
773.826
773.834
773.888
774.062
774.219
774.289
774.299
774.271
774.146
773.981
773.861
773.778
773.723
773.688
773.666
773.652
773.643
773.638
773.634
773.631
773.629
773.626
773.624
773.623
773.621
773.619
773.617
773.615
773.614
773.612
773.61
773.609
773.607
773.606
773.605
773.603
773.602
773.601
773.6
773.599
773.598
773.597
773.596
773.595
773.594
773.593
773.592
773.591
773.59
773.589
773.588
773.587
773.586
773.585
773.584
773.583
773.582
773.581
773.579
773.578
773.576
773.575
773.574
773.572
773.57
773.569
773.567
773.566
773.564
773.563
773.561
773.56
773.558
773.557
773.555
773.554
773.553
773.551
773.55
773.549
773.549
773.548
773.547
773.547
773.546
773.546
773.546
773.546
773.546
773.546
773.546
773.546
773.547
773.547
773.548
773.548
773.549
773.549
773.55
773.55
773.551
773.551
773.551
773.552
773.552
773.552
773.552
773.552
773.552
773.551
773.551
773.551
773.55
773.55
773.549
773.548
773.548
773.547
773.546
773.545
773.544
773.543
773.543
773.542
773.541
773.54
773.539
773.539
773.538
773.537
773.537
773.537
773.536
773.536
773.536
773.537
773.537
773.537
773.538
773.538
773.539
773.54
773.541
773.542
773.543
773.543
773.544
773.545
773.546
773.547
773.547
773.548
773.55
773.605
773.439
773.419
773.413
773.415
773.413
773.408
773.394
773.385
773.367
773.358
773.339
773.329
773.313
773.305
773.293
773.288
773.281
773.282
773.288
773.316
773.486
773.486
773.491
773.489
773.482
773.468
773.45
773.437
773.414
773.403
773.379
773.363
773.354
773.334
773.321
773.306
773.297
773.286
773.277
773.269
773.549
773.548
773.545
773.541
773.537
773.53
773.524
773.517
773.508
773.499
773.492
773.487
773.486
773.484
773.473
773.462
773.453
773.449
773.438
773.435
773.588
773.591
773.589
773.585
773.58
773.576
773.568
773.559
773.554
773.558
773.569
773.545
773.512
773.507
773.494
773.449
773.403
773.406
773.425
773.422
773.599
773.612
773.61
773.61
773.608
773.605
773.6
773.593
773.592
773.598
773.606
773.586
773.56
773.546
773.526
773.478
773.458
773.464
773.486
773.456
773.364
773.363
773.359
773.352
773.352
773.352
773.35
773.347
773.346
773.345
773.344
773.342
773.341
773.341
773.34
773.34
773.339
773.339
773.338
773.338
773.337
773.337
773.337
773.336
773.335
773.335
773.334
773.334
773.334
773.334
773.333
773.332
773.332
773.331
773.331
773.332
773.333
773.336
773.338
773.34
773.341
773.342
773.346
773.352
773.357
773.358
773.358
773.358
773.366
773.419
773.592
773.749
773.82
773.83
773.804
773.682
773.519
773.399
773.316
773.261
773.226
773.204
773.19
773.181
773.176
773.172
773.169
773.167
773.165
773.163
773.162
773.161
773.159
773.158
773.157
773.156
773.155
773.154
773.153
773.152
773.151
773.151
773.15
773.15
773.149
773.149
773.148
773.148
773.148
773.147
773.147
773.146
773.146
773.145
773.144
773.143
773.142
773.137
773.14
772.974
773.25
773.247
773.239
773.235
773.235
773.236
773.235
773.232
773.23
773.23
773.23
773.229
773.228
773.227
773.227
773.227
773.226
773.226
773.225
773.225
773.224
773.224
773.224
773.224
773.224
773.223
773.222
773.222
773.222
773.222
773.222
773.222
773.221
773.22
773.219
773.218
773.219
773.219
773.222
773.224
773.227
773.23
773.233
773.235
773.239
773.249
773.261
773.268
773.272
773.281
773.309
773.357
773.389
773.399
773.397
773.377
773.311
773.243
773.198
773.173
773.162
773.158
773.157
773.157
773.159
773.161
773.161
773.161
773.161
773.16
773.16
773.159
773.157
773.156
773.155
773.154
773.153
773.152
773.152
773.151
773.15
773.15
773.149
773.149
773.148
773.148
773.147
773.147
773.147
773.146
773.146
773.145
773.144
773.144
773.143
773.142
773.141
773.137
773.135
773.041
773.454
773.458
773.466
773.469
773.475
773.476
773.475
773.474
773.474
773.474
773.474
773.474
773.473
773.473
773.472
773.472
773.471
773.471
773.47
773.47
773.47
773.471
773.472
773.473
773.475
773.477
773.478
773.48
773.481
773.482
773.483
773.486
773.49
773.493
773.496
773.497
773.497
773.492
773.469
773.413
773.356
773.31
773.276
773.253
773.239
773.231
773.227
773.226
773.226
773.226
773.227
773.227
773.226
773.221
773.211
773.203
773.195
773.188
773.184
773.181
773.179
773.177
773.176
773.174
773.172
773.17
773.168
773.166
773.164
773.163
773.161
773.16
773.158
773.157
773.156
773.154
773.153
773.153
773.152
773.151
773.15
773.15
773.149
773.149
773.148
773.148
773.147
773.147
773.147
773.146
773.146
773.145
773.144
773.144
773.143
773.142
773.141
773.14
773.138
773.139
773.274
773.267
773.26
773.237
773.225
773.239
773.25
773.244
773.235
773.234
773.237
773.238
773.238
773.236
773.236
773.236
773.236
773.236
773.235
773.235
773.234
773.233
773.233
773.234
773.234
773.234
773.233
773.232
773.232
773.232
773.233
773.235
773.237
773.238
773.238
773.237
773.237
773.238
773.24
773.245
773.247
773.247
773.247
773.245
773.245
773.245
773.247
773.249
773.251
773.254
773.263
773.305
773.438
773.577
773.641
773.647
773.61
773.463
773.305
773.211
773.166
773.149
773.145
773.146
773.151
773.156
773.158
773.159
773.159
773.159
773.159
773.158
773.157
773.156
773.155
773.154
773.153
773.152
773.152
773.151
773.15
773.15
773.149
773.149
773.148
773.148
773.147
773.147
773.147
773.146
773.146
773.145
773.144
773.144
773.143
773.142
773.141
773.141
773.142
773.188
773.298
773.264
773.251
773.227
773.213
773.222
773.236
773.23
773.22
773.218
773.22
773.222
773.221
773.22
773.219
773.219
773.219
773.219
773.218
773.218
773.217
773.216
773.216
773.216
773.216
773.217
773.216
773.215
773.214
773.213
773.213
773.214
773.216
773.217
773.217
773.217
773.215
773.211
773.209
773.211
773.214
773.218
773.219
773.22
773.22
773.22
773.221
773.223
773.225
773.227
773.231
773.249
773.333
773.571
773.763
773.827
773.816
773.687
773.406
773.22
773.132
773.104
773.103
773.114
773.133
773.146
773.153
773.156
773.158
773.159
773.159
773.159
773.158
773.157
773.156
773.155
773.154
773.153
773.153
773.152
773.151
773.151
773.15
773.15
773.149
773.149
773.148
773.148
773.148
773.147
773.147
773.146
773.145
773.145
773.144
773.143
773.142
773.142
773.143
773.193
773.031
773.011
773.005
773.006
773.004
772.998
772.985
772.975
772.957
772.948
772.929
772.919
772.902
772.894
772.881
772.877
772.869
772.87
772.875
772.901
773.077
773.076
773.081
773.079
773.071
773.058
773.039
773.026
773.004
772.992
772.968
772.952
772.943
772.923
772.909
772.894
772.885
772.873
772.864
772.856
773.139
773.138
773.134
773.13
773.125
773.118
773.112
773.104
773.096
773.086
773.079
773.074
773.072
773.069
773.058
773.047
773.038
773.033
773.022
773.019
773.176
773.179
773.177
773.172
773.168
773.163
773.155
773.145
773.141
773.144
773.153
773.128
773.098
773.093
773.08
773.033
772.99
772.994
773.012
773.008
773.187
773.2
773.198
773.198
773.195
773.191
773.186
773.179
773.178
773.183
773.19
773.169
773.145
773.132
773.111
773.063
773.045
773.051
773.072
773.038
772.947
772.944
772.939
772.93
772.929
772.928
772.925
772.922
772.92
772.919
772.918
772.916
772.914
772.913
772.912
772.91
772.909
772.908
772.907
772.906
772.905
772.904
772.903
772.902
772.901
772.9
772.899
772.898
772.898
772.897
772.895
772.894
772.893
772.891
772.891
772.891
772.892
772.895
772.896
772.897
772.899
772.905
772.912
772.916
772.916
772.916
772.918
772.944
773.066
773.252
773.357
773.386
773.376
773.3
773.132
772.997
772.901
772.838
772.797
772.771
772.756
772.747
772.742
772.739
772.737
772.736
772.735
772.734
772.734
772.734
772.734
772.734
772.734
772.734
772.734
772.734
772.735
772.735
772.736
772.736
772.736
772.737
772.737
772.738
772.738
772.739
772.739
772.739
772.739
772.74
772.74
772.74
772.74
772.74
772.74
772.74
772.74
772.739
772.739
772.739
772.738
772.738
772.737
772.737
772.736
772.736
772.735
772.734
772.734
772.733
772.733
772.732
772.732
772.731
772.731
772.73
772.73
772.73
772.73
772.73
772.73
772.73
772.73
772.73
772.73
772.731
772.731
772.732
772.732
772.733
772.733
772.734
772.735
772.735
772.736
772.737
772.737
772.738
772.738
772.739
772.739
772.739
772.739
772.74
772.74
772.74
772.739
772.739
772.739
772.739
772.738
772.738
772.737
772.737
772.736
772.735
772.735
772.734
772.733
772.733
772.732
772.732
772.731
772.73
772.73
772.729
772.729
772.729
772.728
772.728
772.728
772.728
772.728
772.728
772.729
772.729
772.73
772.73
772.731
772.732
772.732
772.733
772.734
772.735
772.736
772.737
772.738
772.738
772.739
772.74
772.74
772.74
772.741
772.741
772.741
772.741
772.741
772.742
772.744
772.796
772.835
772.83
772.821
772.816
772.815
772.815
772.812
772.808
772.806
772.805
772.804
772.802
772.801
772.799
772.798
772.797
772.795
772.794
772.793
772.792
772.791
772.79
772.789
772.789
772.788
772.787
772.786
772.785
772.784
772.784
772.783
772.782
772.781
772.78
772.778
772.778
772.778
772.778
772.781
772.785
772.788
772.79
772.792
772.798
772.811
772.82
772.825
772.832
772.851
772.898
772.938
772.953
772.954
772.942
772.89
772.817
772.767
772.738
772.725
772.72
772.719
772.72
772.723
772.726
772.728
772.729
772.73
772.731
772.731
772.732
772.732
772.732
772.732
772.733
772.733
772.733
772.734
772.734
772.734
772.735
772.735
772.736
772.736
772.737
772.737
772.737
772.738
772.738
772.738
772.739
772.739
772.739
772.739
772.739
772.739
772.739
772.739
772.738
772.738
772.738
772.737
772.737
772.736
772.736
772.735
772.735
772.734
772.733
772.733
772.732
772.732
772.731
772.731
772.73
772.73
772.729
772.729
772.729
772.729
772.729
772.729
772.729
772.729
772.729
772.729
772.73
772.73
772.731
772.731
772.732
772.732
772.733
772.734
772.734
772.735
772.735
772.736
772.737
772.737
772.738
772.738
772.738
772.738
772.739
772.739
772.739
772.738
772.738
772.738
772.737
772.737
772.737
772.736
772.736
772.735
772.734
772.734
772.733
772.732
772.732
772.731
772.73
772.73
772.729
772.729
772.728
772.728
772.728
772.727
772.727
772.727
772.727
772.727
772.727
772.728
772.728
772.729
772.729
772.73
772.731
772.731
772.732
772.733
772.734
772.735
772.736
772.736
772.737
772.738
772.738
772.739
772.739
772.74
772.74
772.74
772.74
772.74
772.741
772.743
772.791
773.034
773.039
773.048
773.05
773.057
773.057
773.054
773.052
773.051
773.05
773.049
773.047
773.045
773.044
773.042
773.041
773.04
773.038
773.037
773.036
773.035
773.035
773.034
773.035
773.036
773.037
773.038
773.039
773.041
773.044
773.048
773.052
773.055
773.056
773.056
773.055
773.047
773.017
772.957
772.902
772.858
772.826
772.806
772.793
772.786
772.783
772.782
772.782
772.783
772.783
772.782
772.779
772.771
772.763
772.755
772.749
772.745
772.742
772.741
772.74
772.739
772.738
772.737
772.736
772.735
772.735
772.734
772.733
772.733
772.733
772.733
772.733
772.733
772.733
772.733
772.733
772.734
772.734
772.735
772.735
772.735
772.736
772.736
772.737
772.737
772.737
772.738
772.738
772.738
772.739
772.739
772.739
772.739
772.739
772.739
772.739
772.739
772.738
772.738
772.738
772.737
772.737
772.736
772.736
772.735
772.735
772.734
772.733
772.733
772.732
772.732
772.731
772.731
772.73
772.73
772.729
772.729
772.729
772.729
772.729
772.729
772.729
772.729
772.729
772.729
772.73
772.73
772.731
772.731
772.732
772.732
772.733
772.734
772.734
772.735
772.735
772.736
772.737
772.737
772.738
772.738
772.738
772.738
772.739
772.739
772.739
772.738
772.738
772.738
772.737
772.737
772.737
772.736
772.736
772.735
772.734
772.734
772.733
772.732
772.732
772.731
772.73
772.73
772.729
772.729
772.728
772.728
772.728
772.727
772.727
772.727
772.727
772.727
772.727
772.728
772.728
772.729
772.729
772.73
772.731
772.731
772.732
772.733
772.734
772.735
772.736
772.736
772.737
772.738
772.738
772.739
772.739
772.74
772.74
772.74
772.74
772.74
772.74
772.74
772.742
772.859
772.852
772.843
772.818
772.81
772.824
772.83
772.821
772.813
772.812
772.813
772.813
772.81
772.808
772.807
772.806
772.805
772.804
772.802
772.801
772.8
772.799
772.798
772.798
772.797
772.796
772.795
772.794
772.793
772.793
772.794
772.795
772.795
772.795
772.795
772.794
772.794
772.795
772.8
772.806
772.807
772.807
772.808
772.807
772.807
772.806
772.807
772.808
772.813
772.838
772.939
773.094
773.18
773.199
773.179
773.066
772.896
772.789
772.735
772.714
772.708
772.709
772.715
772.721
772.724
772.727
772.729
772.73
772.731
772.731
772.732
772.732
772.732
772.733
772.733
772.733
772.734
772.734
772.734
772.735
772.735
772.736
772.736
772.737
772.737
772.737
772.738
772.738
772.738
772.739
772.739
772.739
772.739
772.739
772.739
772.739
772.739
772.738
772.738
772.738
772.737
772.737
772.736
772.736
772.735
772.735
772.734
772.733
772.733
772.732
772.732
772.731
772.731
772.73
772.73
772.729
772.729
772.729
772.729
772.729
772.729
772.729
772.729
772.729
772.729
772.73
772.73
772.731
772.731
772.732
772.732
772.733
772.734
772.734
772.735
772.735
772.736
772.737
772.737
772.738
772.738
772.738
772.738
772.739
772.739
772.739
772.738
772.738
772.738
772.737
772.737
772.737
772.736
772.736
772.735
772.734
772.734
772.733
772.732
772.732
772.731
772.73
772.73
772.729
772.729
772.728
772.728
772.728
772.727
772.727
772.727
772.727
772.727
772.727
772.728
772.728
772.729
772.729
772.73
772.731
772.731
772.732
772.733
772.734
772.735
772.736
772.736
772.737
772.738
772.738
772.739
772.739
772.74
772.74
772.74
772.74
772.74
772.737
772.736
772.643
772.882
772.847
772.835
772.807
772.797
772.807
772.815
772.807
772.797
772.795
772.797
772.796
772.794
772.791
772.79
772.789
772.789
772.787
772.786
772.785
772.784
772.783
772.782
772.781
772.781
772.78
772.779
772.778
772.777
772.776
772.776
772.776
772.776
772.776
772.776
772.775
772.772
772.767
772.766
772.769
772.774
772.779
772.779
772.779
772.78
772.781
772.782
772.783
772.786
772.797
772.852
773.055
773.281
773.375
773.378
773.291
773.026
772.812
772.706
772.669
772.664
772.673
772.695
772.71
772.719
772.724
772.727
772.73
772.731
772.732
772.732
772.733
772.733
772.734
772.734
772.734
772.735
772.735
772.736
772.736
772.736
772.737
772.737
772.738
772.738
772.739
772.739
772.739
772.739
772.74
772.74
772.74