/*--------------------------------*- C++ -*----------------------------------*\
| =========                 |                                                 |
| \\      /  F ield         | OpenFOAM: The Open Source CFD Toolbox           |
|  \\    /   O peration     | Version:  3.0.x                                 |
|   \\  /    A nd           | Web:      www.OpenFOAM.org                      |
|    \\/     M anipulation  |                                                 |
\*---------------------------------------------------------------------------*/
FoamFile
{
    version     2.0;
    format      ascii;
    class       surfaceScalarField;
    location    "0.06";
    object      phi;
}
// * * * * * * * * * * * * * * * * * * * * * * * * * * * * * * * * * * * * * //

dimensions      [1 0 -1 0 0 0 0];

internalField   nonuniform List<scalar> 
12415
(
5.74626
0.00032763
5.74603
0.000234238
5.7458
0.00022395
5.74558
0.000223027
5.74536
0.000217887
5.74515
0.000207796
5.74495
0.000192419
5.74478
0.000171659
5.74463
0.000146641
5.7445
0.000119505
5.7444
9.26372e-05
5.74432
6.83225e-05
5.74426
4.7918e-05
5.74421
3.19968e-05
5.74417
2.03781e-05
5.74412
1.24114e-05
5.74407
7.2582e-06
5.74402
4.10229e-06
5.74395
2.26682e-06
5.74386
1.25022e-06
5.74375
7.12853e-07
5.7436
4.41383e-07
5.74343
3.10347e-07
5.74321
2.50238e-07
5.74293
2.24507e-07
5.7426
2.14899e-07
5.74219
2.12698e-07
5.74169
2.13931e-07
5.7411
2.16845e-07
5.74039
2.20705e-07
5.73956
2.25184e-07
5.73859
2.30124e-07
5.73746
2.35417e-07
5.73617
2.40943e-07
5.7347
2.46573e-07
5.73305
2.52139e-07
5.73121
2.5744e-07
5.72917
2.62244e-07
5.72696
2.66284e-07
5.72457
2.69274e-07
5.72201
2.70917e-07
5.71933
2.70915e-07
5.71653
2.68981e-07
5.71367
2.64867e-07
5.71077
2.58371e-07
5.70788
2.49356e-07
5.70505
2.37775e-07
5.70233
2.2367e-07
5.69976
2.07199e-07
5.69739
1.88622e-07
5.69526
1.68318e-07
5.69341
1.4676e-07
5.69185
1.24503e-07
5.69061
1.02165e-07
5.68968
8.03902e-08
5.68906
5.98229e-08
5.68873
4.11746e-08
5.68866
2.59151e-08
5.6888
1.54396e-08
5.68911
1.38425e-09
5.68955
-6.31371e-09
5.69006
-1.03573e-08
5.6906
-1.03992e-08
5.6911
-7.71979e-09
5.69152
-3.13776e-09
5.69181
4.42742e-09
5.69195
1.42245e-08
5.69191
2.10803e-08
5.69169
3.1856e-08
5.69126
4.58513e-08
5.69063
5.57175e-08
5.68979
6.49816e-08
5.68878
7.31688e-08
5.68759
7.9719e-08
5.68627
8.48104e-08
5.68482
8.72187e-08
5.68328
8.92942e-08
5.68167
8.85957e-08
5.68001
8.63329e-08
5.67831
8.35898e-08
5.67661
7.89096e-08
5.67492
7.36873e-08
5.67323
6.73372e-08
5.67158
6.08543e-08
5.66996
5.38093e-08
5.66838
4.60932e-08
5.66684
3.90974e-08
5.66535
3.13103e-08
5.66391
2.35304e-08
5.66253
1.634e-08
5.66119
8.69295e-09
5.65992
1.45337e-09
5.6587
-5.87534e-09
5.65753
-1.30676e-08
5.65643
-1.99107e-08
5.65538
-2.69556e-08
5.6544
-3.35858e-08
5.65348
-4.02324e-08
5.65262
-4.68845e-08
5.65183
-5.29944e-08
5.6511
-5.92936e-08
5.65044
-6.53836e-08
5.64984
-7.10697e-08
5.64932
-7.6805e-08
5.64886
-8.21856e-08
5.64846
-8.7286e-08
5.64813
-9.22955e-08
5.64786
-9.68612e-08
5.64766
-1.01187e-07
5.64751
-1.05276e-07
5.64742
-1.08927e-07
5.64739
-1.12288e-07
5.64741
-1.14334e-07
5.64747
-1.17803e-07
5.64757
-1.19882e-07
5.64771
-1.22098e-07
5.64789
-1.23544e-07
5.64809
-1.24521e-07
5.64832
-1.2539e-07
5.64856
-1.25625e-07
5.64881
-1.25436e-07
5.64907
-1.25088e-07
5.64933
-1.24181e-07
5.64957
-1.22916e-07
5.64981
-1.21485e-07
5.65002
-1.19589e-07
5.6502
-1.17449e-07
5.65035
-1.15169e-07
5.65046
-1.12574e-07
5.65053
-1.09896e-07
5.65055
-1.07411e-07
5.65053
-1.04974e-07
5.65045
-1.01956e-07
5.65033
-9.91749e-08
5.65015
-9.63628e-08
5.64993
-9.42291e-08
5.64965
-9.23028e-08
5.64933
-9.05547e-08
5.64898
-8.95743e-08
5.6486
-8.87776e-08
5.64819
-8.86794e-08
5.64778
-8.91396e-08
5.64736
-9.00473e-08
5.64695
-9.16643e-08
5.64655
-9.36452e-08
5.64618
-9.62664e-08
5.64585
-9.92277e-08
5.64556
-1.02536e-07
5.64532
-1.0616e-07
5.64513
-1.09789e-07
5.645
-1.13616e-07
5.64493
-1.17268e-07
5.64492
-1.20444e-07
5.64497
-1.22893e-07
5.64506
-1.26785e-07
5.64521
-1.29665e-07
5.6454
-1.31757e-07
5.64563
-1.33314e-07
5.6459
-1.34842e-07
5.6462
-1.35613e-07
5.64652
-1.35955e-07
5.64685
-1.36137e-07
5.6472
-1.35622e-07
5.64754
-1.34773e-07
5.64789
-1.33588e-07
5.64821
-1.31775e-07
5.64852
-1.29574e-07
5.64879
-1.27035e-07
5.64902
-1.23804e-07
5.64919
-1.20401e-07
5.64931
-1.16574e-07
5.64935
-1.12434e-07
5.64932
-1.09821e-07
5.64922
-1.04797e-07
5.64903
-9.99935e-08
5.64877
-9.60736e-08
5.64843
-9.29413e-08
5.64802
-8.97908e-08
5.64755
-8.76626e-08
5.64703
-8.6231e-08
5.64648
-8.53051e-08
5.64589
-8.5638e-08
5.64529
-8.65148e-08
5.6447
-8.84011e-08
5.64411
-8.95106e-08
5.64354
-9.2723e-08
5.64298
-9.85692e-08
5.64244
-9.39181e-08
5.64191
-1.0791e-07
5.64136
-9.12569e-08
5.64078
-9.72177e-08
5.64013
-1.41154e-09
5.6394
5.49939e-07
5.63854
4.48833e-06
5.63752
3.19886e-05
5.63614
0.000224495
5.63324
0.0015692
5.62077
0.0109707
5.532
0.0870837
0.430988
5.09917
11.4933
0.000260288
11.4933
0.000214222
11.4933
0.000189671
11.4933
0.000191249
11.4934
0.000187666
11.4934
0.00017881
11.4934
0.000165715
11.4934
0.000148092
11.4934
0.000126749
11.4934
0.000103495
11.4934
8.03992e-05
11.4934
5.94187e-05
11.4934
4.1761e-05
11.4934
2.79443e-05
11.4933
1.78335e-05
11.4933
1.08828e-05
11.4932
6.37565e-06
11.4931
3.60875e-06
11.4929
1.99583e-06
11.4928
1.1004e-06
11.4925
6.26045e-07
11.4922
3.85873e-07
11.4919
2.69648e-07
11.4915
2.162e-07
11.4909
1.93223e-07
11.4902
1.84563e-07
11.4894
1.82493e-07
11.4884
1.83471e-07
11.4872
1.85938e-07
11.4858
1.89234e-07
11.4842
1.93069e-07
11.4822
1.97301e-07
11.48
2.01834e-07
11.4774
2.06571e-07
11.4744
2.11396e-07
11.4711
2.16168e-07
11.4675
2.20709e-07
11.4634
2.24823e-07
11.459
2.28282e-07
11.4542
2.3084e-07
11.4491
2.32244e-07
11.4437
2.32238e-07
11.4381
2.30573e-07
11.4324
2.2704e-07
11.4266
2.21465e-07
11.4208
2.13733e-07
11.4151
2.038e-07
11.4097
1.91705e-07
11.4046
1.77582e-07
11.3998
1.61658e-07
11.3956
1.44254e-07
11.3919
1.2578e-07
11.3887
1.06714e-07
11.3863
8.75846e-08
11.3844
6.89251e-08
11.3832
5.12889e-08
11.3825
3.54803e-08
11.3824
2.26978e-08
11.3826
1.2667e-08
11.3833
1.38698e-09
11.3841
-5.46447e-09
11.3852
-8.95375e-09
11.3862
-8.72501e-09
11.3872
-6.45059e-09
11.3881
-2.60161e-09
11.3887
3.83579e-09
11.3889
1.23105e-08
11.3889
1.85905e-08
11.3884
2.71057e-08
11.3876
3.92852e-08
11.3863
4.79799e-08
11.3846
5.57748e-08
11.3826
6.27019e-08
11.3802
6.83817e-08
11.3776
7.26925e-08
11.3747
7.48312e-08
11.3716
7.64867e-08
11.3684
7.59692e-08
11.365
7.40336e-08
11.3617
7.15988e-08
11.3583
6.76796e-08
11.3549
6.31571e-08
11.3515
5.77204e-08
11.3482
5.21588e-08
11.3449
4.61307e-08
11.3418
3.95357e-08
11.3387
3.3486e-08
11.3357
2.68769e-08
11.3329
2.01887e-08
11.3301
1.39748e-08
11.3274
7.49492e-09
11.3249
1.35242e-09
11.3224
-5.14638e-09
11.3201
-1.12152e-08
11.3179
-1.70448e-08
11.3158
-2.30782e-08
11.3138
-2.87871e-08
11.312
-3.4446e-08
11.3103
-4.01583e-08
11.3087
-4.54238e-08
11.3072
-5.07878e-08
11.3059
-5.60196e-08
11.3047
-6.09107e-08
11.3037
-6.57899e-08
11.3027
-7.04347e-08
11.3019
-7.47975e-08
11.3013
-7.90735e-08
11.3007
-8.30112e-08
11.3003
-8.67065e-08
11.3
-9.02005e-08
11.2999
-9.33451e-08
11.2998
-9.61868e-08
11.2998
-9.81024e-08
11.3
-1.00749e-07
11.3002
-1.0286e-07
11.3004
-1.04617e-07
11.3008
-1.05865e-07
11.3012
-1.06722e-07
11.3016
-1.07437e-07
11.3021
-1.0765e-07
11.3026
-1.07505e-07
11.3032
-1.07173e-07
11.3037
-1.06422e-07
11.3042
-1.0534e-07
11.3046
-1.04094e-07
11.305
-1.02487e-07
11.3054
-1.00651e-07
11.3057
-9.86872e-08
11.3059
-9.64753e-08
11.3061
-9.41836e-08
11.3061
-9.20293e-08
11.3061
-8.99515e-08
11.3059
-8.7414e-08
11.3057
-8.49575e-08
11.3053
-8.25892e-08
11.3049
-8.07565e-08
11.3043
-7.91003e-08
11.3037
-7.76311e-08
11.303
-7.67527e-08
11.3022
-7.61229e-08
11.3014
-7.59933e-08
11.3006
-7.63991e-08
11.2997
-7.72002e-08
11.2989
-7.85537e-08
11.2981
-8.0282e-08
11.2974
-8.25107e-08
11.2967
-8.50544e-08
11.2961
-8.78945e-08
11.2956
-9.09888e-08
11.2953
-9.41191e-08
11.295
-9.73751e-08
11.2949
-1.00507e-07
11.2948
-1.0324e-07
11.2949
-1.054e-07
11.2951
-1.08595e-07
11.2954
-1.11134e-07
11.2958
-1.12922e-07
11.2963
-1.14283e-07
11.2968
-1.15537e-07
11.2974
-1.16239e-07
11.298
-1.16528e-07
11.2987
-1.16648e-07
11.2994
-1.16241e-07
11.3001
-1.15508e-07
11.3008
-1.14471e-07
11.3014
-1.12949e-07
11.302
-1.11037e-07
11.3026
-1.08884e-07
11.303
-1.06069e-07
11.3034
-1.03215e-07
11.3036
-9.99082e-08
11.3037
-9.64212e-08
11.3036
-9.39212e-08
11.3034
-9.00172e-08
11.303
-8.56385e-08
11.3025
-8.23302e-08
11.3018
-7.96385e-08
11.301
-7.69808e-08
11.3001
-7.51361e-08
11.299
-7.39053e-08
11.2979
-7.31898e-08
11.2968
-7.33671e-08
11.2956
-7.45508e-08
11.2944
-7.68225e-08
11.2932
-7.42195e-08
11.292
-8.01904e-08
11.2909
-8.73081e-08
11.2899
-7.54621e-08
11.2888
-1.00212e-07
11.2877
-6.34284e-08
11.2865
-6.49916e-08
11.2852
2.04465e-07
11.2838
1.83582e-06
11.2821
1.34771e-05
11.28
9.48069e-05
11.2773
0.000664192
11.2715
0.00464007
11.2472
0.0322804
11.1011
0.229821
1.08276
10.4456
137.919
-0.000260288
137.919
-0.000214222
137.92
-0.000189671
137.92
-0.000191249
137.92
-0.000187666
137.92
-0.00017881
137.921
-0.000165715
137.921
-0.000148092
137.921
-0.000126749
137.921
-0.000103495
137.921
-8.03992e-05
137.921
-5.94187e-05
137.921
-4.1761e-05
137.92
-2.79443e-05
137.92
-1.78335e-05
137.919
-1.08828e-05
137.918
-6.37565e-06
137.917
-3.60875e-06
137.915
-1.99583e-06
137.913
-1.1004e-06
137.91
-6.26047e-07
137.907
-3.85871e-07
137.903
-2.69644e-07
137.897
-2.16203e-07
137.891
-1.93223e-07
137.883
-1.84563e-07
137.873
-1.82491e-07
137.861
-1.83471e-07
137.847
-1.85939e-07
137.83
-1.89232e-07
137.81
-1.93067e-07
137.787
-1.97299e-07
137.76
-2.01836e-07
137.729
-2.06572e-07
137.693
-2.11398e-07
137.654
-2.16169e-07
137.609
-2.20712e-07
137.561
-2.24821e-07
137.507
-2.2828e-07
137.45
-2.30843e-07
137.389
-2.32246e-07
137.324
-2.32236e-07
137.257
-2.30577e-07
137.189
-2.27043e-07
137.119
-2.21466e-07
137.05
-2.13736e-07
136.982
-2.03799e-07
136.916
-1.91706e-07
136.855
-1.77583e-07
136.798
-1.61658e-07
136.747
-1.44254e-07
136.702
-1.25781e-07
136.665
-1.06716e-07
136.635
-8.75832e-08
136.613
-6.89265e-08
136.598
-5.12898e-08
136.59
-3.54778e-08
136.588
-2.26953e-08
136.592
-1.26627e-08
136.599
-1.3863e-09
136.61
5.46765e-09
136.622
8.95329e-09
136.635
8.72501e-09
136.647
6.44877e-09
136.657
2.59638e-09
136.664
-3.83693e-09
136.667
-1.23068e-08
136.666
-1.85898e-08
136.661
-2.7107e-08
136.651
-3.92879e-08
136.635
-4.79804e-08
136.615
-5.5775e-08
136.591
-6.27012e-08
136.563
-6.83881e-08
136.531
-7.26966e-08
136.496
-7.48275e-08
136.459
-7.64844e-08
136.42
-7.59776e-08
136.381
-7.4031e-08
136.34
-7.15975e-08
136.299
-6.76766e-08
136.258
-6.31596e-08
136.218
-5.77222e-08
136.178
-5.21593e-08
136.139
-4.61284e-08
136.101
-3.95407e-08
136.065
-3.34821e-08
136.029
-2.68767e-08
135.994
-2.01876e-08
135.961
-1.39753e-08
135.929
-7.49833e-09
135.898
-1.34901e-09
135.869
5.14729e-09
135.841
1.1212e-08
135.815
1.70473e-08
135.79
2.3083e-08
135.766
2.87855e-08
135.744
3.44455e-08
135.723
4.01571e-08
135.704
4.54249e-08
135.687
5.07864e-08
135.671
5.60226e-08
135.657
6.09073e-08
135.644
6.57924e-08
135.633
7.04365e-08
135.623
7.47937e-08
135.615
7.9076e-08
135.609
8.3013e-08
135.604
8.67078e-08
135.601
9.02037e-08
135.598
9.33478e-08
135.598
9.61845e-08
135.598
9.81001e-08
135.599
1.00748e-07
135.602
1.0286e-07
135.605
1.04618e-07
135.609
1.05865e-07
135.614
1.06719e-07
135.62
1.0744e-07
135.626
1.0765e-07
135.632
1.07505e-07
135.638
1.07175e-07
135.644
1.06422e-07
135.65
1.05342e-07
135.655
1.04095e-07
135.661
1.02488e-07
135.665
1.00654e-07
135.669
9.86881e-08
135.671
9.64778e-08
135.673
9.41857e-08
135.673
9.20279e-08
135.673
8.99533e-08
135.671
8.74138e-08
135.668
8.49589e-08
135.664
8.2588e-08
135.658
8.07609e-08
135.652
7.91008e-08
135.644
7.7632e-08
135.636
7.67543e-08
135.626
7.61192e-08
135.617
7.59921e-08
135.607
7.63989e-08
135.597
7.72027e-08
135.587
7.85535e-08
135.577
8.028e-08
135.568
8.25121e-08
135.56
8.50566e-08
135.553
8.78947e-08
135.548
9.09909e-08
135.543
9.41193e-08
135.54
9.73737e-08
135.538
1.00509e-07
135.538
1.03243e-07
135.539
1.05403e-07
135.541
1.08594e-07
135.545
1.11135e-07
135.55
1.12927e-07
135.555
1.14284e-07
135.561
1.15533e-07
135.569
1.16236e-07
135.576
1.16528e-07
135.584
1.16647e-07
135.593
1.16241e-07
135.601
1.15509e-07
135.609
1.14472e-07
135.617
1.12948e-07
135.624
1.11037e-07
135.631
1.08884e-07
135.636
1.06069e-07
135.64
1.03214e-07
135.643
9.99071e-08
135.644
9.64194e-08
135.643
9.39256e-08
135.641
9.002e-08
135.637
8.56339e-08
135.63
8.2332e-08
135.622
7.96385e-08
135.612
7.69828e-08
135.601
7.51388e-08
135.589
7.39069e-08
135.575
7.3177e-08
135.561
7.3306e-08
135.547
7.41566e-08
135.532
7.50299e-08
135.518
7.824e-08
135.505
7.90028e-08
135.491
8.31481e-08
135.478
8.44786e-08
135.465
8.54548e-08
135.452
9.74087e-08
135.438
1.30583e-07
135.423
4.52677e-07
135.405
2.58216e-06
135.385
1.80361e-05
135.361
0.000128009
135.333
0.000913726
135.299
0.00653184
135.248
0.0470645
135.063
0.37432
1.60442
134.497
11.4933
-0.00032763
11.4933
-0.000234238
11.4933
-0.00022395
11.4933
-0.000223027
11.4934
-0.000217887
11.4934
-0.000207796
11.4934
-0.000192419
11.4934
-0.000171659
11.4934
-0.000146641
11.4934
-0.000119505
11.4934
-9.26372e-05
11.4934
-6.83225e-05
11.4934
-4.7918e-05
11.4934
-3.19968e-05
11.4933
-2.03781e-05
11.4933
-1.24114e-05
11.4932
-7.25819e-06
11.4931
-4.10229e-06
11.4929
-2.26682e-06
11.4928
-1.25022e-06
11.4925
-7.12853e-07
11.4922
-4.41381e-07
11.4919
-3.10345e-07
11.4915
-2.5024e-07
11.4909
-2.24509e-07
11.4902
-2.14899e-07
11.4894
-2.12698e-07
11.4884
-2.13931e-07
11.4872
-2.16849e-07
11.4858
-2.20703e-07
11.4842
-2.25184e-07
11.4822
-2.3012e-07
11.48
-2.35414e-07
11.4774
-2.40942e-07
11.4744
-2.46573e-07
11.4711
-2.52141e-07
11.4675
-2.57442e-07
11.4634
-2.62242e-07
11.459
-2.66284e-07
11.4542
-2.69274e-07
11.4491
-2.70917e-07
11.4437
-2.70915e-07
11.4381
-2.68985e-07
11.4324
-2.64869e-07
11.4266
-2.58373e-07
11.4208
-2.4936e-07
11.4151
-2.37773e-07
11.4097
-2.2367e-07
11.4046
-2.07199e-07
11.3998
-1.88622e-07
11.3956
-1.68318e-07
11.3919
-1.46762e-07
11.3887
-1.24504e-07
11.3863
-1.02165e-07
11.3844
-8.03902e-08
11.3832
-5.98247e-08
11.3825
-4.11728e-08
11.3824
-2.59151e-08
11.3826
-1.54378e-08
11.3833
-1.38243e-09
11.3841
6.31553e-09
11.3852
1.0361e-08
11.3862
1.03992e-08
11.3872
7.71979e-09
11.3881
3.13412e-09
11.3887
-4.42924e-09
11.3889
-1.42227e-08
11.3889
-2.10803e-08
11.3884
-3.18578e-08
11.3876
-4.58513e-08
11.3863
-5.57175e-08
11.3846
-6.49816e-08
11.3826
-7.31725e-08
11.3802
-7.97227e-08
11.3776
-8.48122e-08
11.3747
-8.72133e-08
11.3716
-8.92924e-08
11.3684
-8.85975e-08
11.365
-8.63311e-08
11.3617
-8.35917e-08
11.3583
-7.89096e-08
11.3549
-7.36891e-08
11.3515
-6.73353e-08
11.3482
-6.08561e-08
11.3449
-5.38075e-08
11.3418
-4.6095e-08
11.3387
-3.90955e-08
11.3357
-3.13103e-08
11.3329
-2.35304e-08
11.3301
-1.63382e-08
11.3274
-8.69477e-09
11.3249
-1.45337e-09
11.3224
5.87352e-09
11.3201
1.30658e-08
11.3179
1.99125e-08
11.3158
2.69611e-08
11.3138
3.3584e-08
11.312
4.02306e-08
11.3103
4.68826e-08
11.3087
5.29944e-08
11.3072
5.92936e-08
11.3059
6.53836e-08
11.3047
7.10679e-08
11.3037
7.68068e-08
11.3027
8.21856e-08
11.3019
8.7286e-08
11.3013
9.22973e-08
11.3007
9.68612e-08
11.3003
1.01187e-07
11.3
1.05276e-07
11.2999
1.08927e-07
11.2998
1.12288e-07
11.2998
1.14331e-07
11.3
1.17801e-07
11.3002
1.1988e-07
11.3004
1.22098e-07
11.3008
1.23546e-07
11.3012
1.24523e-07
11.3016
1.25392e-07
11.3021
1.25623e-07
11.3026
1.25434e-07
11.3032
1.25086e-07
11.3037
1.24182e-07
11.3042
1.22916e-07
11.3046
1.21485e-07
11.305
1.19591e-07
11.3054
1.17452e-07
11.3057
1.15169e-07
11.3059
1.12574e-07
11.3061
1.09898e-07
11.3061
1.07411e-07
11.3061
1.04974e-07
11.3059
1.01958e-07
11.3057
9.91768e-08
11.3053
9.63628e-08
11.3049
9.42327e-08
11.3043
9.23046e-08
11.3037
9.05547e-08
11.303
8.9578e-08
11.3022
8.8774e-08
11.3014
8.86812e-08
11.3006
8.91414e-08
11.2997
9.00491e-08
11.2989
9.16625e-08
11.2981
9.36416e-08
11.2974
9.62664e-08
11.2967
9.92313e-08
11.2961
1.02535e-07
11.2956
1.0616e-07
11.2953
1.09791e-07
11.295
1.1362e-07
11.2949
1.1727e-07
11.2948
1.20444e-07
11.2949
1.22893e-07
11.2951
1.26785e-07
11.2954
1.29665e-07
11.2958
1.31758e-07
11.2963
1.33316e-07
11.2968
1.3484e-07
11.2974
1.35611e-07
11.298
1.35953e-07
11.2987
1.36135e-07
11.2994
1.3562e-07
11.3001
1.34774e-07
11.3008
1.3359e-07
11.3014
1.31775e-07
11.302
1.29574e-07
11.3026
1.27035e-07
11.303
1.23806e-07
11.3034
1.20399e-07
11.3036
1.16575e-07
11.3037
1.12434e-07
11.3036
1.09821e-07
11.3034
1.04797e-07
11.303
9.99917e-08
11.3025
9.60717e-08
11.3018
9.29413e-08
11.301
8.97926e-08
11.3001
8.76644e-08
11.299
8.62292e-08
11.2979
8.53015e-08
11.2968
8.56144e-08
11.2956
8.63838e-08
11.2944
8.79063e-08
11.2932
9.06548e-08
11.292
9.27012e-08
11.2909
9.63191e-08
11.2899
9.84346e-08
11.2888
1.00594e-07
11.2877
1.05425e-07
11.2865
1.16932e-07
11.2852
2.25416e-07
11.2838
9.44332e-07
11.2821
6.1729e-06
11.2802
4.33994e-05
11.2785
0.000309738
11.2801
0.00223056
11.3075
0.0166647
11.4961
0.182392
0.694393
12.4024
5.74626
5.74603
5.7458
5.74558
5.74536
5.74515
5.74495
5.74478
5.74463
5.7445
5.7444
5.74432
5.74426
5.74421
5.74417
5.74412
5.74407
5.74402
5.74395
5.74386
5.74375
5.7436
5.74343
5.74321
5.74293
5.7426
5.74219
5.74169
5.7411
5.74039
5.73956
5.73859
5.73746
5.73617
5.7347
5.73305
5.73121
5.72917
5.72696
5.72457
5.72201
5.71933
5.71653
5.71367
5.71077
5.70788
5.70505
5.70233
5.69976
5.69739
5.69526
5.69341
5.69185
5.69061
5.68968
5.68906
5.68873
5.68866
5.6888
5.68911
5.68955
5.69006
5.6906
5.6911
5.69152
5.69181
5.69195
5.69191
5.69169
5.69126
5.69063
5.68979
5.68878
5.68759
5.68627
5.68482
5.68328
5.68167
5.68001
5.67831
5.67661
5.67492
5.67323
5.67158
5.66996
5.66838
5.66684
5.66535
5.66391
5.66253
5.66119
5.65992
5.6587
5.65753
5.65643
5.65538
5.6544
5.65348
5.65262
5.65183
5.6511
5.65044
5.64984
5.64932
5.64886
5.64846
5.64813
5.64786
5.64766
5.64751
5.64742
5.64739
5.64741
5.64747
5.64757
5.64771
5.64789
5.64809
5.64832
5.64856
5.64881
5.64907
5.64933
5.64957
5.64981
5.65002
5.6502
5.65035
5.65046
5.65053
5.65055
5.65053
5.65045
5.65033
5.65015
5.64993
5.64965
5.64933
5.64898
5.6486
5.64819
5.64778
5.64736
5.64695
5.64655
5.64618
5.64585
5.64556
5.64532
5.64513
5.645
5.64493
5.64492
5.64497
5.64506
5.64521
5.6454
5.64563
5.6459
5.6462
5.64652
5.64685
5.6472
5.64754
5.64789
5.64821
5.64852
5.64879
5.64902
5.64919
5.64931
5.64935
5.64932
5.64922
5.64903
5.64877
5.64843
5.64802
5.64755
5.64703
5.64648
5.64589
5.64529
5.6447
5.64411
5.64354
5.64298
5.64244
5.64191
5.64136
5.64078
5.64013
5.6394
5.63855
5.6376
5.63676
5.63767
5.65284
5.83355
6.52609
4.97551
0.123182
4.98294
-0.00791532
4.97953
0.00293229
4.98441
-0.00536893
5.00096
-0.0170307
5.03407
-0.0336001
5.11723
-0.0837726
5.22586
-0.109543
5.276
-0.0514175
5.24825
0.0267718
5.16524
0.0822443
5.04911
0.115528
4.96921
0.0799298
5.12977
-0.159522
5.56277
-0.431964
6.16172
-0.599118
6.70631
-0.546401
6.99721
-0.293867
7.0047
-0.010896
-0.164041
7.16569
10.3947
0.173236
10.4143
-0.0284959
10.4622
-0.0459201
10.5184
-0.062485
10.5905
-0.0900711
10.6932
-0.137307
10.9041
-0.295819
11.174
-0.381233
11.3309
-0.210887
11.34
0.0158123
11.2291
0.191792
11.0196
0.323874
10.7952
0.304273
10.9539
-0.315723
11.5964
-1.07268
12.633
-1.63664
13.7808
-1.69839
14.6342
-1.15372
14.9271
-0.30958
-0.301898
15.0597
134.541
0.120427
134.607
-0.103556
134.604
-0.0518975
134.437
0.0960229
134.108
0.229695
133.645
0.316094
132.971
0.37063
132.221
0.358695
131.613
0.389689
131.262
0.356419
131.091
0.352285
131.077
0.326316
131.067
0.301348
130.458
0.279261
129.115
0.257416
127.24
0.227775
125.355
0.182159
124.081
0.116957
123.738
0.0293893
-0.185637
123.615
12.3456
0.176656
12.2482
-0.00667086
12.2032
-0.00745352
12.2745
0.0240331
12.4471
0.0565095
12.6806
0.0817887
12.9501
0.0999693
13.208
0.10082
13.4874
0.109193
13.742
0.101629
13.9954
0.0983534
14.2312
0.0899443
14.4509
0.0809986
14.6569
0.0725346
14.8507
0.0629878
15.0293
0.0484153
15.1867
0.0240254
15.3175
-0.014646
15.4241
-0.0779113
-0.258146
15.496
6.70249
6.69554
6.68781
6.71154
6.76773
6.84915
6.94864
7.04931
7.1581
7.25957
7.35767
7.44733
7.52802
7.60023
7.66287
7.71093
7.73459
7.71959
7.64132
7.38283
7.08501
0.0772087
7.46518
-0.380304
7.81975
-0.357795
7.88576
-0.0692347
7.8576
0.0255906
7.85466
-0.000190031
7.82558
0.0180048
7.73374
0.0671766
7.5638
0.158321
7.32539
0.236267
7.05587
0.28404
6.78474
0.295006
6.52849
0.265001
6.30506
0.22421
6.12037
0.181988
5.97239
0.141572
5.85844
0.110221
5.77331
0.0832167
5.71151
0.0609252
5.66816
0.0430466
5.63892
0.02926
5.62003
0.0191123
5.6084
0.011999
5.60163
0.00724804
5.59795
0.00421724
5.59616
0.00236793
5.59546
0.00128386
5.59535
0.00067346
5.59553
0.000342199
5.59583
0.000168346
5.59613
8.0746e-05
5.59637
3.76057e-05
5.59652
1.70817e-05
5.59656
7.62565e-06
5.59647
3.39239e-06
5.59625
1.54264e-06
5.5959
7.60223e-07
5.59542
4.3726e-07
5.59481
3.08526e-07
5.59408
2.57494e-07
5.59323
2.37684e-07
5.59228
2.30302e-07
5.59123
2.26039e-07
5.5901
2.2289e-07
5.58889
2.19719e-07
5.58761
2.16287e-07
5.58628
2.12469e-07
5.5849
2.07723e-07
5.58349
2.03327e-07
5.58205
1.98041e-07
5.58059
1.93177e-07
5.57912
1.88034e-07
5.57764
1.83098e-07
5.57618
1.78215e-07
5.57472
1.73372e-07
5.57328
1.68497e-07
5.57186
1.63605e-07
5.57047
1.59042e-07
5.56911
1.54663e-07
5.56778
1.50609e-07
5.56648
1.46729e-07
5.56523
1.43014e-07
5.56402
1.39469e-07
5.56285
1.36029e-07
5.56172
1.32832e-07
5.56065
1.29656e-07
5.55962
1.26573e-07
5.55864
1.23639e-07
5.55771
1.20934e-07
5.55683
1.18407e-07
5.55601
1.16033e-07
5.55523
1.138e-07
5.55452
1.11731e-07
5.55385
1.09902e-07
5.55323
1.08301e-07
5.55266
1.06871e-07
5.55214
1.05674e-07
5.55166
1.04679e-07
5.55122
1.03937e-07
5.5508
1.03375e-07
5.55041
1.03066e-07
5.55004
1.02937e-07
5.54968
1.03031e-07
5.54931
1.03342e-07
5.54893
1.03892e-07
5.54852
1.04668e-07
5.54808
1.05667e-07
5.5476
1.06829e-07
5.54705
1.08164e-07
5.54643
1.09645e-07
5.54574
1.11233e-07
5.54495
1.12854e-07
5.54406
1.14422e-07
5.54307
1.15891e-07
5.54195
1.17116e-07
5.54072
1.18041e-07
5.53937
1.18889e-07
5.5379
1.19813e-07
5.53631
1.2073e-07
5.53462
1.20775e-07
5.53281
1.1904e-07
5.53092
1.15295e-07
5.52895
1.10122e-07
5.52692
1.04601e-07
5.52484
9.93023e-08
5.52275
9.38126e-08
5.52065
8.74825e-08
5.51857
7.98973e-08
5.51654
7.09442e-08
5.51458
6.07542e-08
5.5127
4.95766e-08
5.51093
3.76804e-08
5.50928
2.53476e-08
5.50776
1.27293e-08
5.5064
4.00178e-11
5.50519
-1.33059e-08
5.50414
-2.54913e-08
5.50325
-3.62834e-08
5.50251
-4.53583e-08
5.50192
-5.34437e-08
5.50147
-6.13982e-08
5.50114
-6.75409e-08
5.50091
-7.67941e-08
5.50076
-8.25403e-08
5.50068
-8.60273e-08
5.50064
-8.73115e-08
5.50064
-8.65293e-08
5.50064
-8.49359e-08
5.50063
-8.17945e-08
5.5006
-7.8031e-08
5.50052
-7.30652e-08
5.5004
-7.05331e-08
5.50023
-6.40703e-08
5.49999
-5.60376e-08
5.49969
-4.71846e-08
5.49933
-4.48217e-08
5.49891
-4.01724e-08
5.49843
-3.48537e-08
5.49791
-3.01134e-08
5.49734
-2.61498e-08
5.49675
-2.28283e-08
5.49613
-2.02308e-08
5.49551
-1.8319e-08
5.49488
-1.71167e-08
5.49426
-1.66929e-08
5.49367
-1.71585e-08
5.49309
-1.73841e-08
5.49255
-1.7315e-08
5.49206
-1.83954e-08
5.49161
-2.07147e-08
5.4912
-2.41726e-08
5.49085
-2.74958e-08
5.49056
-3.02207e-08
5.49032
-3.04954e-08
5.49014
-3.40478e-08
5.49001
-4.1955e-08
5.48993
-4.3774e-08
5.48989
-4.43106e-08
5.48991
-4.46271e-08
5.48996
-4.65952e-08
5.49005
-4.93565e-08
5.49017
-5.20413e-08
5.49033
-5.46916e-08
5.4905
-5.67888e-08
5.4907
-5.92609e-08
5.49093
-6.14564e-08
5.49117
-6.39775e-08
5.49142
-6.68551e-08
5.4917
-7.00038e-08
5.492
-7.24795e-08
5.49231
-7.15427e-08
5.49264
-7.66995e-08
5.493
-8.4312e-08
5.49338
-9.14406e-08
5.49378
-9.72686e-08
5.49421
-1.02928e-07
5.49466
-1.09478e-07
5.49515
-1.17054e-07
5.49565
-1.25185e-07
5.49619
-1.34674e-07
5.49674
-1.44655e-07
5.49731
-1.55091e-07
5.4979
-1.68215e-07
5.49849
-1.77055e-07
5.49908
-1.90745e-07
5.49965
-2.00316e-07
5.5002
-2.12347e-07
5.50072
-2.19941e-07
5.50118
-1.9548e-07
5.50159
-3.38738e-07
5.50194
-1.63763e-06
5.50221
-3.32624e-07
5.5024
-6.83053e-06
5.50254
-2.94765e-05
5.50273
-0.000154747
5.50348
-0.000795809
5.50754
-0.00415997
5.52987
-0.0224868
5.69542
-0.165731
-0.646692
6.34192
14.1162
1.01463
14.3457
-0.610291
14.9046
-0.923291
15.0338
-0.204859
14.9372
0.118047
14.9053
0.0276586
14.8951
0.0214621
14.8238
0.125881
14.6162
0.358164
14.2629
0.586475
13.8138
0.734509
13.3291
0.782104
12.8594
0.733456
12.4448
0.636721
12.1026
0.522588
11.833
0.410105
11.6295
0.313019
11.4809
0.231239
11.3763
0.16523
11.3054
0.114016
11.259
0.0758762
11.23
0.0486539
11.2127
0.0300823
11.203
0.0179395
11.1979
0.0103306
11.1957
0.00574943
11.1951
0.00309595
11.1953
0.00161497
11.1958
0.00081669
11.1965
0.000400533
11.1972
0.000191433
11.1977
8.88869e-05
11.198
4.01865e-05
11.1981
1.77678e-05
11.1979
7.73104e-06
11.1975
3.34013e-06
11.1968
1.47807e-06
11.1958
7.05619e-07
11.1946
3.93701e-07
11.1931
2.70272e-07
11.1914
2.22327e-07
11.1895
2.04136e-07
11.1874
1.96229e-07
11.1852
1.91914e-07
11.1828
1.88643e-07
11.1802
1.85477e-07
11.1775
1.82116e-07
11.1748
1.78133e-07
11.172
1.74218e-07
11.1691
1.69838e-07
11.1662
1.65554e-07
11.1632
1.61227e-07
11.1603
1.5699e-07
11.1573
1.52799e-07
11.1544
1.48644e-07
11.1515
1.44475e-07
11.1487
1.40302e-07
11.1459
1.36358e-07
11.1432
1.32623e-07
11.1405
1.29119e-07
11.1379
1.25794e-07
11.1354
1.22607e-07
11.133
1.19566e-07
11.1307
1.16622e-07
11.1284
1.13863e-07
11.1263
1.11168e-07
11.1242
1.08515e-07
11.1222
1.05997e-07
11.1204
1.03678e-07
11.1186
1.01517e-07
11.117
9.94746e-08
11.1154
9.75647e-08
11.114
9.57946e-08
11.1127
9.42185e-08
11.1114
9.28453e-08
11.1103
9.16264e-08
11.1093
9.05887e-08
11.1083
8.9746e-08
11.1074
8.91091e-08
11.1066
8.86395e-08
11.1058
8.83671e-08
11.1051
8.8275e-08
11.1043
8.83535e-08
11.1036
8.86242e-08
11.1028
8.90938e-08
11.102
8.97668e-08
11.1011
9.06232e-08
11.1002
9.16274e-08
11.0991
9.27674e-08
11.0978
9.40378e-08
11.0965
9.53933e-08
11.0949
9.67723e-08
11.0931
9.81142e-08
11.0911
9.93668e-08
11.0889
1.00409e-07
11.0864
1.01195e-07
11.0837
1.01915e-07
11.0808
1.02707e-07
11.0776
1.03482e-07
11.0742
1.03548e-07
11.0706
1.02061e-07
11.0668
9.88423e-08
11.0629
9.44173e-08
11.0588
8.96658e-08
11.0547
8.50899e-08
11.0505
8.03844e-08
11.0463
7.49661e-08
11.0421
6.84706e-08
11.0381
6.08011e-08
11.0341
5.2063e-08
11.0304
4.24835e-08
11.0268
3.23037e-08
11.0235
2.17618e-08
11.0205
1.09987e-08
11.0178
3.43562e-10
11.0154
-1.18744e-08
11.0133
-2.19163e-08
11.0115
-3.09426e-08
11.01
-3.87816e-08
11.0088
-4.57904e-08
11.0079
-5.25274e-08
11.0072
-5.81822e-08
11.0068
-6.54933e-08
11.0065
-7.06801e-08
11.0063
-7.37566e-08
11.0063
-7.48098e-08
11.0062
-7.41826e-08
11.0062
-7.27592e-08
11.0062
-7.01152e-08
11.0062
-6.68509e-08
11.006
-6.27809e-08
11.0058
-6.01819e-08
11.0054
-5.48642e-08
11.005
-4.8071e-08
11.0043
-4.08603e-08
11.0036
-3.81334e-08
11.0028
-3.43795e-08
11.0018
-2.98942e-08
11.0008
-2.58196e-08
10.9996
-2.24152e-08
10.9985
-1.95821e-08
10.9972
-1.7349e-08
10.996
-1.57147e-08
10.9947
-1.46857e-08
10.9935
-1.43273e-08
10.9923
-1.47331e-08
10.9911
-1.5006e-08
10.9901
-1.48381e-08
10.9891
-1.56894e-08
10.9882
-1.77124e-08
10.9874
-2.07053e-08
10.9867
-2.36067e-08
10.9861
-2.60314e-08
10.9856
-2.58219e-08
10.9852
-2.87512e-08
10.985
-3.60767e-08
10.9848
-3.79408e-08
10.9847
-3.78557e-08
10.9848
-3.80873e-08
10.9849
-3.98336e-08
10.9851
-4.22182e-08
10.9853
-4.45943e-08
10.9856
-4.68121e-08
10.986
-4.87057e-08
10.9864
-5.08144e-08
10.9868
-5.27374e-08
10.9873
-5.48974e-08
10.9878
-5.74013e-08
10.9884
-6.0107e-08
10.9889
-6.22218e-08
10.9896
-6.16872e-08
10.9902
-6.53311e-08
10.9909
-7.215e-08
10.9917
-7.83676e-08
10.9925
-8.33722e-08
10.9934
-8.82767e-08
10.9943
-9.38868e-08
10.9952
-1.00361e-07
10.9963
-1.07276e-07
10.9973
-1.15221e-07
10.9984
-1.23913e-07
10.9996
-1.31722e-07
11.0007
-1.46857e-07
11.0019
-1.49061e-07
11.0031
-1.66214e-07
11.0042
-1.70285e-07
11.0053
-1.81839e-07
11.0064
-1.81449e-07
11.0073
-1.13649e-07
11.0081
-4.9062e-07
11.0088
-4.24506e-06
11.0094
-4.21619e-07
11.0097
-1.95938e-05
11.01
-8.65073e-05
11.0104
-0.000455933
11.0118
-0.00234614
11.0197
-0.0121708
11.0604
-0.0635417
11.2518
-0.357444
-1.47944
12.0841
124.521
0.0457664
123.82
0.0184592
122.848
-0.0143618
122.628
-0.0420384
122.831
-0.136771
123.103
-0.283862
123.548
-0.465672
124.254
-0.626056
125.276
-0.709752
126.528
-0.709161
127.87
-0.648163
129.182
-0.565003
130.362
-0.4775
131.363
-0.391649
132.174
-0.310441
132.8
-0.235108
133.268
-0.168917
133.605
-0.115225
133.84
-0.0743376
133.999
-0.0453637
134.105
-0.0260756
134.174
-0.0140757
134.221
-0.00709011
134.253
-0.00329109
134.278
-0.00137071
134.298
-0.000480778
134.316
-0.000112084
134.331
1.51398e-05
134.344
4.34117e-05
134.356
3.81627e-05
134.365
2.58779e-05
134.372
1.53793e-05
134.376
8.34792e-06
134.377
4.20477e-06
134.375
1.96116e-06
134.37
8.17692e-07
134.361
2.66087e-07
134.35
7.96251e-09
134.335
-1.09499e-07
134.318
-1.59397e-07
134.297
-1.80147e-07
134.274
-1.8843e-07
134.249
-1.90488e-07
134.222
-1.89857e-07
134.193
-1.87916e-07
134.162
-1.85224e-07
134.13
-1.82031e-07
134.097
-1.78104e-07
134.063
-1.74211e-07
134.029
-1.69837e-07
133.994
-1.65552e-07
133.959
-1.61227e-07
133.923
-1.5699e-07
133.888
-1.52802e-07
133.853
-1.48645e-07
133.818
-1.44477e-07
133.784
-1.40302e-07
133.751
-1.36359e-07
133.718
-1.32625e-07
133.686
-1.29116e-07
133.655
-1.25793e-07
133.625
-1.22609e-07
133.596
-1.19567e-07
133.568
-1.1662e-07
133.541
-1.13864e-07
133.515
-1.11167e-07
133.49
-1.08513e-07
133.467
-1.05995e-07
133.445
-1.0368e-07
133.424
-1.01519e-07
133.404
-9.94756e-08
133.385
-9.75646e-08
133.368
-9.57918e-08
133.352
-9.42152e-08
133.337
-9.28434e-08
133.324
-9.16266e-08
133.311
-9.059e-08
133.3
-8.97483e-08
133.289
-8.91092e-08
133.279
-8.86399e-08
133.27
-8.83668e-08
133.261
-8.82741e-08
133.252
-8.83547e-08
133.243
-8.86229e-08
133.234
-8.90938e-08
133.224
-8.97652e-08
133.214
-9.06234e-08
133.202
-9.16241e-08
133.189
-9.27664e-08
133.174
-9.40357e-08
133.157
-9.53911e-08
133.139
-9.67716e-08
133.117
-9.81175e-08
133.093