/*--------------------------------*- C++ -*----------------------------------*\
| =========                 |                                                 |
| \\      /  F ield         | OpenFOAM: The Open Source CFD Toolbox           |
|  \\    /   O peration     | Version:  3.0.x                                 |
|   \\  /    A nd           | Web:      www.OpenFOAM.org                      |
|    \\/     M anipulation  |                                                 |
\*---------------------------------------------------------------------------*/
FoamFile
{
    version     2.0;
    format      ascii;
    class       volVectorField;
    location    "0.06";
    object      U;
}
// * * * * * * * * * * * * * * * * * * * * * * * * * * * * * * * * * * * * * //

dimensions      [0 1 -1 0 0 0 0];

internalField   nonuniform List<vector> 
6900
(
(42.6983 0.000101995 0)
(42.6967 9.31613e-05 0)
(42.695 9.03313e-05 0)
(42.6933 9.0119e-05 0)
(42.6916 8.85309e-05 0)
(42.69 8.48232e-05 0)
(42.6885 7.87671e-05 0)
(42.6871 7.03903e-05 0)
(42.6859 6.01942e-05 0)
(42.6849 4.90771e-05 0)
(42.684 3.80573e-05 0)
(42.6834 2.80627e-05 0)
(42.6828 1.96757e-05 0)
(42.6824 1.31325e-05 0)
(42.6821 8.35934e-06 0)
(42.6817 5.08817e-06 0)
(42.6814 2.9735e-06 0)
(42.681 1.67932e-06 0)
(42.6805 9.27124e-07 0)
(42.6798 5.10752e-07 0)
(42.6791 2.90724e-07 0)
(42.6781 1.79517e-07 0)
(42.6768 1.25689e-07 0)
(42.6752 1.00778e-07 0)
(42.6732 8.98275e-08 0)
(42.6708 8.53712e-08 0)
(42.6679 8.38423e-08 0)
(42.6643 8.36151e-08 0)
(42.66 8.39808e-08 0)
(42.6548 8.46345e-08 0)
(42.6487 8.5453e-08 0)
(42.6416 8.63822e-08 0)
(42.6333 8.7394e-08 0)
(42.6237 8.84587e-08 0)
(42.6127 8.95494e-08 0)
(42.6003 9.06317e-08 0)
(42.5864 9.16603e-08 0)
(42.5711 9.25816e-08 0)
(42.5542 9.33344e-08 0)
(42.5359 9.38495e-08 0)
(42.5163 9.40605e-08 0)
(42.4955 9.38824e-08 0)
(42.4737 9.32542e-08 0)
(42.4513 9.21033e-08 0)
(42.4283 9.03786e-08 0)
(42.4054 8.80455e-08 0)
(42.3826 8.50854e-08 0)
(42.3606 8.15147e-08 0)
(42.3396 7.73759e-08 0)
(42.3199 7.2749e-08 0)
(42.302 6.77666e-08 0)
(42.2862 6.25181e-08 0)
(42.2726 5.69864e-08 0)
(42.2615 5.10966e-08 0)
(42.2528 4.47734e-08 0)
(42.2466 3.79871e-08 0)
(42.2428 3.08499e-08 0)
(42.2412 2.38369e-08 0)
(42.2414 1.78576e-08 0)
(42.2431 1.09444e-08 0)
(42.2461 5.52679e-09 0)
(42.2499 2.04559e-09 0)
(42.254 7.21091e-10 0)
(42.2581 4.33577e-10 0)
(42.2618 8.34413e-10 0)
(42.2647 2.02988e-09 0)
(42.2664 4.19688e-09 0)
(42.2669 5.79651e-09 0)
(42.2659 8.30787e-09 0)
(42.2634 1.17751e-08 0)
(42.2592 1.44727e-08 0)
(42.2534 1.70343e-08 0)
(42.2461 1.94024e-08 0)
(42.2374 2.13876e-08 0)
(42.2275 2.30248e-08 0)
(42.2165 2.39462e-08 0)
(42.2046 2.48637e-08 0)
(42.1921 2.5013e-08 0)
(42.1791 2.46825e-08 0)
(42.1658 2.42724e-08 0)
(42.1524 2.3267e-08 0)
(42.1389 2.20748e-08 0)
(42.1255 2.05206e-08 0)
(42.1122 1.88934e-08 0)
(42.0992 1.70627e-08 0)
(42.0865 1.49662e-08 0)
(42.0741 1.30664e-08 0)
(42.0621 1.08977e-08 0)
(42.0505 8.67871e-09 0)
(42.0393 6.65382e-09 0)
(42.0285 4.40033e-09 0)
(42.0181 1.93561e-09 0)
(42.0082 -9.78154e-10 0)
(41.9987 -3.21858e-09 0)
(41.9897 -5.40057e-09 0)
(41.9812 -7.69717e-09 0)
(41.9732 -9.8854e-09 0)
(41.9656 -1.20772e-08 0)
(41.9585 -1.42999e-08 0)
(41.952 -1.63669e-08 0)
(41.946 -1.85021e-08 0)
(41.9404 -2.05824e-08 0)
(41.9355 -2.25298e-08 0)
(41.931 -2.45142e-08 0)
(41.9271 -2.63974e-08 0)
(41.9237 -2.81813e-08 0)
(41.9208 -2.99541e-08 0)
(41.9184 -3.15995e-08 0)
(41.9165 -3.31664e-08 0)
(41.9152 -3.46624e-08 0)
(41.9142 -3.60442e-08 0)
(41.9137 -3.73391e-08 0)
(41.9137 -3.83357e-08 0)
(41.914 -3.95616e-08 0)
(41.9146 -4.04885e-08 0)
(41.9156 -4.14272e-08 0)
(41.9168 -4.21708e-08 0)
(41.9183 -4.2766e-08 0)
(41.92 -4.33284e-08 0)
(41.9219 -4.37113e-08 0)
(41.9239 -4.39704e-08 0)
(41.9259 -4.41768e-08 0)
(41.928 -4.42254e-08 0)
(41.93 -4.41647e-08 0)
(41.9319 -4.40575e-08 0)
(41.9336 -4.38167e-08 0)
(41.9352 -4.35029e-08 0)
(41.9365 -4.31475e-08 0)
(41.9376 -4.27022e-08 0)
(41.9383 -4.22232e-08 0)
(41.9387 -4.17856e-08 0)
(41.9387 -4.13449e-08 0)
(41.9383 -4.07934e-08 0)
(41.9375 -4.03063e-08 0)
(41.9363 -3.97973e-08 0)
(41.9347 -3.94345e-08 0)
(41.9328 -3.91175e-08 0)
(41.9304 -3.88251e-08 0)
(41.9278 -3.86912e-08 0)
(41.9249 -3.85999e-08 0)
(41.9217 -3.86387e-08 0)
(41.9185 -3.88111e-08 0)
(41.9152 -3.90771e-08 0)
(41.9119 -3.94973e-08 0)
(41.9087 -4.00027e-08 0)
(41.9057 -4.06461e-08 0)
(41.9029 -4.13661e-08 0)
(41.9004 -4.21486e-08 0)
(41.8983 -4.30038e-08 0)
(41.8966 -4.38523e-08 0)
(41.8953 -4.47567e-08 0)
(41.8945 -4.56399e-08 0)
(41.8942 -4.64325e-08 0)
(41.8943 -4.70944e-08 0)
(41.8948 -4.80344e-08 0)
(41.8958 -4.88026e-08 0)
(41.8971 -4.94148e-08 0)
(41.8988 -4.98949e-08 0)
(41.9008 -5.03842e-08 0)
(41.903 -5.06883e-08 0)
(41.9055 -5.08799e-08 0)
(41.9081 -5.10354e-08 0)
(41.9108 -5.10224e-08 0)
(41.9135 -5.09157e-08 0)
(41.9163 -5.07324e-08 0)
(41.9189 -5.03831e-08 0)
(41.9214 -4.99545e-08 0)
(41.9237 -4.944e-08 0)
(41.9257 -4.87685e-08 0)
(41.9273 -4.80679e-08 0)
(41.9285 -4.72798e-08 0)
(41.9291 -4.6423e-08 0)
(41.9292 -4.58816e-08 0)
(41.9287 -4.48695e-08 0)
(41.9275 -4.38739e-08 0)
(41.9258 -4.30241e-08 0)
(41.9234 -4.23251e-08 0)
(41.9205 -4.15746e-08 0)
(41.917 -4.10369e-08 0)
(41.9131 -4.06454e-08 0)
(41.9088 -4.0323e-08 0)
(41.9043 -4.03668e-08 0)
(41.8996 -4.03516e-08 0)
(41.8948 -4.08093e-08 0)
(41.8901 -3.61718e-08 0)
(41.8855 -4.04588e-08 0)
(41.8811 -3.91211e-08 0)
(41.8767 -4.15263e-08 0)
(41.8725 -3.85591e-08 0)
(41.8682 -3.83814e-08 0)
(41.8637 -3.9462e-08 0)
(41.8588 -2.98353e-08 0)
(41.8533 5.40014e-08 0)
(41.847 6.8953e-07 0)
(41.8396 5.13791e-06 0)
(41.8303 3.63353e-05 0)
(41.815 0.00025491 0)
(41.765 0.00180122 0)
(41.5759 0.0162494 0)
(39.0713 0.0845152 0)
(42.7001 0.000129335 0)
(42.7002 9.93421e-05 0)
(42.7004 8.66195e-05 0)
(42.7005 8.49144e-05 0)
(42.7006 8.2765e-05 0)
(42.7007 7.87107e-05 0)
(42.7007 7.27623e-05 0)
(42.7008 6.48862e-05 0)
(42.7009 5.54507e-05 0)
(42.7009 4.52269e-05 0)
(42.7009 3.51016e-05 0)
(42.7008 2.59241e-05 0)
(42.7008 1.82101e-05 0)
(42.7007 1.21799e-05 0)
(42.7005 7.77037e-06 0)
(42.7003 4.74066e-06 0)
(42.7 2.77684e-06 0)
(42.6996 1.57166e-06 0)
(42.6992 8.69306e-07 0)
(42.6986 4.79483e-07 0)
(42.6978 2.73015e-07 0)
(42.6968 1.6851e-07 0)
(42.6955 1.17978e-07 0)
(42.6939 9.47851e-08 0)
(42.692 8.4878e-08 0)
(42.6895 8.12279e-08 0)
(42.6866 8.04747e-08 0)
(42.683 8.10866e-08 0)
(42.6787 8.23856e-08 0)
(42.6735 8.40968e-08 0)
(42.6674 8.60967e-08 0)
(42.6603 8.83302e-08 0)
(42.652 9.07617e-08 0)
(42.6424 9.33494e-08 0)
(42.6314 9.60439e-08 0)
(42.619 9.87719e-08 0)
(42.6052 1.01452e-07 0)
(42.5898 1.03981e-07 0)
(42.5729 1.06244e-07 0)
(42.5546 1.08105e-07 0)
(42.535 1.0943e-07 0)
(42.5142 1.1008e-07 0)
(42.4924 1.09914e-07 0)
(42.47 1.08815e-07 0)
(42.4471 1.06683e-07 0)
(42.4241 1.03448e-07 0)
(42.4014 9.90738e-08 0)
(42.3793 9.35745e-08 0)
(42.3583 8.70207e-08 0)
(42.3386 7.95332e-08 0)
(42.3208 7.12947e-08 0)
(42.3049 6.24779e-08 0)
(42.2913 5.31583e-08 0)
(42.2802 4.34253e-08 0)
(42.2715 3.33902e-08 0)
(42.2653 2.32336e-08 0)
(42.2615 1.3199e-08 0)
(42.2599 4.36357e-09 0)
(42.2601 -5.17462e-10 0)
(42.2618 -5.43699e-09 0)
(42.2648 -7.74298e-09 0)
(42.2686 -8.09334e-09 0)
(42.2727 -6.9736e-09 0)
(42.2768 -5.26744e-09 0)
(42.2805 -2.85944e-09 0)
(42.2834 5.77814e-10 0)
(42.2851 4.72073e-09 0)
(42.2856 7.67696e-09 0)
(42.2846 1.20739e-08 0)
(42.2821 1.81398e-08 0)
(42.2779 2.28682e-08 0)
(42.2721 2.72727e-08 0)
(42.2648 3.12228e-08 0)
(42.2561 3.44734e-08 0)
(42.2461 3.70547e-08 0)
(42.2352 3.84682e-08 0)
(42.2233 3.95978e-08 0)
(42.2108 3.95498e-08 0)
(42.1978 3.87597e-08 0)
(42.1845 3.76588e-08 0)
(42.171 3.57465e-08 0)
(42.1576 3.35107e-08 0)
(42.1441 3.07729e-08 0)
(42.1309 2.79455e-08 0)
(42.1179 2.48652e-08 0)
(42.1052 2.14958e-08 0)
(42.0928 1.8397e-08 0)
(42.0808 1.50117e-08 0)
(42.0692 1.16029e-08 0)
(42.0579 8.42252e-09 0)
(42.0472 4.99832e-09 0)
(42.0368 1.37866e-09 0)
(42.0269 -2.38158e-09 0)
(42.0174 -5.07204e-09 0)
(42.0084 -7.70556e-09 0)
(41.9999 -1.04603e-08 0)
(41.9918 -1.30932e-08 0)
(41.9842 -1.57797e-08 0)
(41.9772 -1.84888e-08 0)
(41.9706 -2.09988e-08 0)
(41.9646 -2.35831e-08 0)
(41.9591 -2.61133e-08 0)
(41.9541 -2.84897e-08 0)
(41.9496 -3.08667e-08 0)
(41.9457 -3.31204e-08 0)
(41.9423 -3.52637e-08 0)
(41.9394 -3.73611e-08 0)
(41.937 -3.92824e-08 0)
(41.9352 -4.11014e-08 0)
(41.9338 -4.28246e-08 0)
(41.9328 -4.43658e-08 0)
(41.9324 -4.57717e-08 0)
(41.9323 -4.67064e-08 0)
(41.9326 -4.80362e-08 0)
(41.9332 -4.89756e-08 0)
(41.9342 -4.98712e-08 0)
(41.9354 -5.04786e-08 0)
(41.9369 -5.0882e-08 0)
(41.9386 -5.12251e-08 0)
(41.9405 -5.13069e-08 0)
(41.9425 -5.12037e-08 0)
(41.9445 -5.10167e-08 0)
(41.9465 -5.06062e-08 0)
(41.9485 -5.00312e-08 0)
(41.9504 -4.9374e-08 0)
(41.9522 -4.85273e-08 0)
(41.9538 -4.75636e-08 0)
(41.9551 -4.65336e-08 0)
(41.9562 -4.53716e-08 0)
(41.9569 -4.41678e-08 0)
(41.9572 -4.30212e-08 0)
(41.9573 -4.18944e-08 0)
(41.9569 -4.056e-08 0)
(41.9561 -3.92948e-08 0)
(41.9549 -3.80296e-08 0)
(41.9533 -3.70052e-08 0)
(41.9513 -3.60565e-08 0)
(41.949 -3.51752e-08 0)
(41.9463 -3.45634e-08 0)
(41.9434 -3.40408e-08 0)
(41.9403 -3.37611e-08 0)
(41.937 -3.37166e-08 0)
(41.9337 -3.386e-08 0)
(41.9304 -3.42816e-08 0)
(41.9272 -3.48703e-08 0)
(41.9242 -3.57239e-08 0)
(41.9214 -3.67322e-08 0)
(41.9189 -3.78964e-08 0)
(41.9168 -3.9203e-08 0)
(41.9151 -4.05554e-08 0)
(41.9138 -4.20143e-08 0)
(41.913 -4.34565e-08 0)
(41.9127 -4.47717e-08 0)
(41.9128 -4.58653e-08 0)
(41.9134 -4.74697e-08 0)
(41.9143 -4.87895e-08 0)
(41.9156 -4.98315e-08 0)
(41.9173 -5.06603e-08 0)
(41.9193 -5.14896e-08 0)
(41.9215 -5.20227e-08 0)
(41.924 -5.23619e-08 0)
(41.9266 -5.26253e-08 0)
(41.9293 -5.26043e-08 0)
(41.932 -5.2416e-08 0)
(41.9347 -5.2076e-08 0)
(41.9374 -5.14619e-08 0)
(41.9399 -5.06668e-08 0)
(41.9422 -4.97169e-08 0)
(41.9442 -4.84536e-08 0)
(41.9458 -4.71218e-08 0)
(41.9469 -4.55844e-08 0)
(41.9476 -4.39231e-08 0)
(41.9476 -4.27484e-08 0)
(41.9471 -4.07829e-08 0)
(41.946 -3.87177e-08 0)
(41.9442 -3.69702e-08 0)
(41.9419 -3.54743e-08 0)
(41.9389 -3.39183e-08 0)
(41.9354 -3.27181e-08 0)
(41.9315 -3.17671e-08 0)
(41.9272 -3.10005e-08 0)
(41.9227 -3.07263e-08 0)
(41.918 -3.07468e-08 0)
(41.9133 -3.13303e-08 0)
(41.9086 -3.18977e-08 0)
(41.904 -3.34547e-08 0)
(41.8995 -3.69868e-08 0)
(41.8951 -3.10934e-08 0)
(41.8909 -4.40964e-08 0)
(41.8866 -2.89937e-08 0)
(41.8821 -3.10534e-08 0)
(41.8772 5.94255e-08 0)
(41.8718 6.02224e-07 0)
(41.8655 4.44563e-06 0)
(41.858 3.12574e-05 0)
(41.8488 0.000218731 0)
(41.8335 0.00152591 0)
(41.7847 0.0106028 0)
(41.6008 0.0764516 0)
(39.6607 0.364191 0)
(42.7001 -1.01174e-12 0)
(42.7002 4.78608e-13 0)
(42.7003 1.97885e-12 0)
(42.7004 1.03382e-12 0)
(42.7005 -2.0908e-12 0)
(42.7006 -4.88717e-12 0)
(42.7007 -9.31801e-12 0)
(42.7008 -1.15292e-11 0)
(42.7008 -1.00101e-11 0)
(42.7009 -9.09077e-12 0)
(42.7009 -8.20717e-12 0)
(42.7008 -9.60384e-12 0)
(42.7008 -9.72514e-12 0)
(42.7007 -1.08706e-11 0)
(42.7005 -1.35789e-11 0)
(42.7003 -1.37657e-11 0)
(42.7 -1.38852e-11 0)
(42.6996 -1.37191e-11 0)
(42.6992 -1.30793e-11 0)
(42.6986 -1.05998e-11 0)
(42.6978 -8.82657e-12 0)
(42.6968 -3.42225e-12 0)
(42.6955 2.65493e-12 0)
(42.6939 4.08749e-12 0)
(42.692 5.20026e-12 0)
(42.6895 4.43424e-12 0)
(42.6866 4.55634e-12 0)
(42.683 3.00142e-12 0)
(42.6787 2.66301e-12 0)
(42.6735 2.48327e-12 0)
(42.6674 2.63534e-12 0)
(42.6603 3.40136e-12 0)
(42.652 3.47475e-12 0)
(42.6424 2.89296e-12 0)
(42.6314 4.25746e-13 0)
(42.619 -2.83197e-13 0)
(42.6052 -2.6928e-13 0)
(42.5898 1.13385e-12 0)
(42.5729 1.05586e-12 0)
(42.5546 1.99835e-12 0)
(42.535 2.77856e-12 0)
(42.5142 2.47721e-12 0)
(42.4924 1.71323e-12 0)
(42.47 3.22807e-12 0)
(42.4471 2.53224e-12 0)
(42.4241 1.99356e-12 0)
(42.4014 1.01499e-12 0)
(42.3793 -7.05166e-13 0)
(42.3583 -1.39426e-12 0)
(42.3386 -1.03601e-12 0)
(42.3208 -2.95455e-12 0)
(42.3049 -3.09685e-12 0)
(42.2913 -1.04155e-12 0)
(42.2802 -2.04145e-12 0)
(42.2715 -2.08026e-12 0)
(42.2653 -2.35095e-12 0)
(42.2615 -4.39771e-12 0)
(42.2599 -5.64859e-12 0)
(42.2601 -7.31984e-12 0)
(42.2618 -5.49517e-12 0)
(42.2648 -3.27464e-12 0)
(42.2686 -2.97448e-12 0)
(42.2727 -1.34396e-12 0)
(42.2768 -5.30573e-13 0)
(42.2805 -1.1067e-12 0)
(42.2834 -1.26576e-12 0)
(42.2851 -2.57275e-12 0)
(42.2856 -1.85366e-12 0)
(42.2846 1.02678e-12 0)
(42.2821 2.89695e-12 0)
(42.2779 3.39686e-12 0)
(42.2721 2.2526e-12 0)
(42.2648 1.52286e-12 0)
(42.2561 1.34346e-12 0)
(42.2461 4.37175e-13 0)
(42.2352 -9.08485e-13 0)
(42.2233 -1.37437e-13 0)
(42.2108 -3.30997e-13 0)
(42.1978 -7.64824e-12 0)
(42.1845 -1.37908e-11 0)
(42.171 -1.6781e-11 0)
(42.1576 -1.76925e-11 0)
(42.1441 -1.59768e-11 0)
(42.1309 -1.14622e-11 0)
(42.1179 -8.00743e-12 0)
(42.1052 -6.50112e-12 0)
(42.0928 -7.49555e-12 0)
(42.0808 -9.15327e-12 0)
(42.0692 -7.2469e-12 0)
(42.0579 -2.38501e-12 0)
(42.0472 -1.87756e-12 0)
(42.0368 -4.34204e-12 0)
(42.0269 -4.63126e-12 0)
(42.0174 -2.63357e-12 0)
(42.0084 -7.41218e-13 0)
(41.9999 9.40449e-13 0)
(41.9918 5.53923e-13 0)
(41.9842 8.50426e-13 0)
(41.9772 1.94723e-12 0)
(41.9706 7.70779e-13 0)
(41.9646 1.15021e-14 0)
(41.9591 -3.17415e-12 0)
(41.9541 -6.72376e-12 0)
(41.9496 -7.27869e-12 0)
(41.9457 -5.50866e-12 0)
(41.9423 -4.04806e-12 0)
(41.9394 -4.93099e-12 0)
(41.937 -6.48143e-12 0)
(41.9352 -3.07117e-12 0)
(41.9338 7.78801e-12 0)
(41.9328 1.63443e-11 0)
(41.9324 1.87571e-11 0)
(41.9323 1.79326e-11 0)
(41.9326 1.68631e-11 0)
(41.9332 1.63934e-11 0)
(41.9342 1.49283e-11 0)
(41.9354 1.13545e-11 0)
(41.9369 7.27607e-12 0)
(41.9386 4.91624e-12 0)
(41.9405 -9.0923e-13 0)
(41.9425 -3.69915e-12 0)
(41.9445 -3.24104e-12 0)
(41.9465 -2.19574e-12 0)
(41.9485 -2.60699e-12 0)
(41.9504 -2.02637e-12 0)
(41.9522 -1.62645e-12 0)
(41.9538 -3.00323e-12 0)
(41.9551 -3.51709e-12 0)
(41.9562 -3.96663e-12 0)
(41.9569 -4.18884e-12 0)
(41.9572 -6.2514e-12 0)
(41.9573 -5.48392e-12 0)
(41.9569 -4.74428e-12 0)
(41.9561 -2.85903e-12 0)
(41.9549 -2.80778e-12 0)
(41.9533 -2.58881e-12 0)
(41.9513 -1.89489e-12 0)
(41.949 -5.26944e-13 0)
(41.9463 1.4003e-12 0)
(41.9434 4.81334e-12 0)
(41.9403 6.76589e-12 0)
(41.937 5.21448e-12 0)
(41.9337 4.43269e-12 0)
(41.9304 2.91216e-12 0)
(41.9272 2.18994e-12 0)
(41.9242 2.80041e-12 0)
(41.9214 3.35422e-12 0)
(41.9189 3.54412e-12 0)
(41.9168 4.83166e-12 0)
(41.9151 5.2222e-12 0)
(41.9138 5.39137e-12 0)
(41.913 4.09674e-12 0)
(41.9127 1.67718e-12 0)
(41.9128 1.48972e-13 0)
(41.9134 -1.98976e-12 0)
(41.9143 -2.55455e-12 0)
(41.9156 -2.05833e-12 0)
(41.9173 -3.47853e-12 0)
(41.9193 -4.07593e-12 0)
(41.9215 -3.2283e-12 0)
(41.924 -2.4883e-12 0)
(41.9266 -4.02181e-12 0)
(41.9293 -3.65319e-12 0)
(41.932 -2.55333e-12 0)
(41.9347 -1.58894e-12 0)
(41.9374 -1.10776e-12 0)
(41.9399 -1.76309e-12 0)
(41.9422 -1.75846e-12 0)
(41.9442 -5.56745e-13 0)
(41.9458 -1.29565e-12 0)
(41.9469 -3.66829e-12 0)
(41.9476 -3.56662e-12 0)
(41.9476 -1.04869e-12 0)
(41.9471 -9.94409e-13 0)
(41.946 -1.61494e-12 0)
(41.9442 -1.50274e-12 0)
(41.9419 -3.34092e-12 0)
(41.9389 -2.39921e-12 0)
(41.9354 -6.30564e-12 0)
(41.9315 2.70495e-12 0)
(41.9272 -1.96832e-11 0)
(41.9227 3.01384e-11 0)
(41.918 -1.69963e-10 0)
(41.9133 -4.13315e-10 0)
(41.9086 -5.20443e-09 0)
(41.904 -2.48661e-09 0)
(41.8995 -6.4442e-09 0)
(41.8951 1.57759e-09 0)
(41.8909 -1.35623e-08 0)
(41.8866 3.30873e-09 0)
(41.8821 1.18403e-08 0)
(41.8772 1.84117e-07 0)
(41.8718 1.25313e-06 0)
(41.8655 8.90485e-06 0)
(41.8582 6.29394e-05 0)
(41.8496 0.000445655 0)
(41.8396 0.00315155 0)
(41.8263 0.0222128 0)
(41.7967 0.157617 0)
(41.6322 0.721909 0)
(42.7001 -0.000129335 0)
(42.7002 -9.93421e-05 0)
(42.7004 -8.66196e-05 0)
(42.7005 -8.49144e-05 0)
(42.7006 -8.2765e-05 0)
(42.7007 -7.87107e-05 0)
(42.7007 -7.27623e-05 0)
(42.7008 -6.48862e-05 0)
(42.7009 -5.54507e-05 0)
(42.7009 -4.52269e-05 0)
(42.7009 -3.51016e-05 0)
(42.7008 -2.59241e-05 0)
(42.7008 -1.82101e-05 0)
(42.7007 -1.21799e-05 0)
(42.7005 -7.77036e-06 0)
(42.7003 -4.74065e-06 0)
(42.7 -2.77684e-06 0)
(42.6996 -1.57166e-06 0)
(42.6992 -8.69303e-07 0)
(42.6986 -4.79478e-07 0)
(42.6978 -2.73011e-07 0)
(42.6968 -1.68509e-07 0)
(42.6955 -1.17979e-07 0)
(42.6939 -9.47873e-08 0)
(42.692 -8.48808e-08 0)
(42.6895 -8.12313e-08 0)
(42.6866 -8.04768e-08 0)
(42.683 -8.10883e-08 0)
(42.6787 -8.23882e-08 0)
(42.6735 -8.40973e-08 0)
(42.6674 -8.60972e-08 0)
(42.6603 -8.83325e-08 0)
(42.652 -9.07649e-08 0)
(42.6424 -9.33513e-08 0)
(42.6314 -9.60444e-08 0)
(42.619 -9.87743e-08 0)
(42.6052 -1.01454e-07 0)
(42.5898 -1.03982e-07 0)
(42.5729 -1.06242e-07 0)
(42.5546 -1.08107e-07 0)
(42.535 -1.0943e-07 0)
(42.5142 -1.1008e-07 0)
(42.4924 -1.09918e-07 0)
(42.47 -1.08817e-07 0)
(42.4471 -1.06684e-07 0)
(42.4241 -1.03449e-07 0)
(42.4014 -9.90716e-08 0)
(42.3793 -9.35739e-08 0)
(42.3583 -8.70204e-08 0)
(42.3386 -7.95325e-08 0)
(42.3208 -7.12932e-08 0)
(42.3049 -6.24771e-08 0)
(42.2913 -5.31608e-08 0)
(42.2802 -4.34245e-08 0)
(42.2715 -3.33901e-08 0)
(42.2653 -2.32343e-08 0)
(42.2615 -1.31979e-08 0)
(42.2599 -4.36109e-09 0)
(42.2601 5.20037e-10 0)
(42.2618 5.4387e-09 0)
(42.2648 7.74524e-09 0)
(42.2686 8.09412e-09 0)
(42.2727 6.97498e-09 0)
(42.2768 5.26644e-09 0)
(42.2805 2.85669e-09 0)
(42.2834 -5.78301e-10 0)
(42.2851 -4.71918e-09 0)
(42.2856 -7.67621e-09 0)
(42.2846 -1.20749e-08 0)
(42.2821 -1.81422e-08 0)
(42.2779 -2.28682e-08 0)
(42.2721 -2.72723e-08 0)
(42.2648 -3.12229e-08 0)
(42.2561 -3.44766e-08 0)
(42.2461 -3.7056e-08 0)
(42.2352 -3.84658e-08 0)
(42.2233 -3.95963e-08 0)
(42.2108 -3.95535e-08 0)
(42.1978 -3.87556e-08 0)
(42.1845 -3.76557e-08 0)
(42.171 -3.57429e-08 0)
(42.1576 -3.3508e-08 0)
(42.1441 -3.07704e-08 0)
(42.1309 -2.79439e-08 0)
(42.1179 -2.48639e-08 0)
(42.1052 -2.14973e-08 0)
(42.0928 -1.83939e-08 0)
(42.0808 -1.50099e-08 0)
(42.0692 -1.16013e-08 0)
(42.0579 -8.42285e-09 0)
(42.0472 -4.99972e-09 0)
(42.0368 -1.37639e-09 0)
(42.0269 2.38327e-09 0)
(42.0174 5.07223e-09 0)
(42.0084 7.70514e-09 0)
(41.9999 1.04621e-08 0)
(41.9918 1.30952e-08 0)
(41.9842 1.57811e-08 0)
(41.9772 1.849e-08 0)
(41.9706 2.09993e-08 0)
(41.9646 2.35788e-08 0)
(41.9591 2.61149e-08 0)
(41.9541 2.84881e-08 0)
(41.9496 3.08702e-08 0)
(41.9457 3.31208e-08 0)
(41.9423 3.52629e-08 0)
(41.9394 3.73652e-08 0)
(41.937 3.92871e-08 0)
(41.9352 4.11024e-08 0)
(41.9338 4.28213e-08 0)
(41.9328 4.43613e-08 0)
(41.9324 4.57659e-08 0)
(41.9323 4.66999e-08 0)
(41.9326 4.80328e-08 0)
(41.9332 4.8972e-08 0)
(41.9342 4.98688e-08 0)
(41.9354 5.04767e-08 0)
(41.9369 5.08804e-08 0)
(41.9386 5.12244e-08 0)
(41.9405 5.13067e-08 0)
(41.9425 5.12051e-08 0)
(41.9445 5.1018e-08 0)
(41.9465 5.06076e-08 0)
(41.9485 5.00315e-08 0)
(41.9504 4.93738e-08 0)
(41.9522 4.85287e-08 0)
(41.9538 4.75663e-08 0)
(41.9551 4.65343e-08 0)
(41.9562 4.53728e-08 0)
(41.9569 4.41696e-08 0)
(41.9572 4.30215e-08 0)
(41.9573 4.18942e-08 0)
(41.9569 4.05612e-08 0)
(41.9561 3.92962e-08 0)
(41.9549 3.80307e-08 0)
(41.9533 3.70093e-08 0)
(41.9513 3.6056e-08 0)
(41.949 3.51764e-08 0)
(41.9463 3.45631e-08 0)
(41.9434 3.40369e-08 0)
(41.9403 3.37583e-08 0)
(41.937 3.37185e-08 0)
(41.9337 3.38592e-08 0)
(41.9304 3.42783e-08 0)
(41.9272 3.48686e-08 0)
(41.9242 3.57234e-08 0)
(41.9214 3.67332e-08 0)
(41.9189 3.78943e-08 0)
(41.9168 3.9204e-08 0)
(41.9151 4.05524e-08 0)
(41.9138 4.20124e-08 0)
(41.913 4.34582e-08 0)
(41.9127 4.47724e-08 0)
(41.9128 4.58643e-08 0)
(41.9134 4.74674e-08 0)
(41.9143 4.87916e-08 0)
(41.9156 4.98336e-08 0)
(41.9173 5.06629e-08 0)
(41.9193 5.14889e-08 0)
(41.9215 5.2023e-08 0)
(41.924 5.2363e-08 0)
(41.9266 5.26282e-08 0)
(41.9293 5.26038e-08 0)
(41.932 5.24176e-08 0)
(41.9347 5.20781e-08 0)
(41.9374 5.14616e-08 0)
(41.9399 5.067e-08 0)
(41.9422 4.97179e-08 0)
(41.9442 4.84545e-08 0)
(41.9458 4.71232e-08 0)
(41.9469 4.55884e-08 0)
(41.9476 4.39243e-08 0)
(41.9476 4.27493e-08 0)
(41.9471 4.07846e-08 0)
(41.946 3.8715e-08 0)
(41.9442 3.69709e-08 0)
(41.9419 3.54747e-08 0)
(41.9389 3.3921e-08 0)
(41.9354 3.27227e-08 0)
(41.9315 3.17703e-08 0)
(41.9272 3.09916e-08 0)
(41.9227 3.07367e-08 0)
(41.918 3.06842e-08 0)
(41.9133 3.0887e-08 0)
(41.9086 3.19179e-08 0)
(41.904 3.24294e-08 0)
(41.8995 3.39783e-08 0)
(41.8951 3.44679e-08 0)
(41.8909 3.5703e-08 0)
(41.8866 3.90042e-08 0)
(41.8821 5.06741e-08 0)
(41.8772 1.59479e-07 0)
(41.8718 8.80657e-07 0)
(41.8655 6.1263e-06 0)
(41.8583 4.34857e-05 0)
(41.8509 0.000310632 0)
(41.8488 0.00222529 0)
(41.8928 0.0161215 0)
(42.0835 0.133435 0)
(45.159 0.561852 0)
(42.6983 -0.000101995 0)
(42.6967 -9.31613e-05 0)
(42.695 -9.03313e-05 0)
(42.6933 -9.0119e-05 0)
(42.6916 -8.85309e-05 0)
(42.69 -8.48232e-05 0)
(42.6885 -7.87671e-05 0)
(42.6871 -7.03903e-05 0)
(42.6859 -6.01942e-05 0)
(42.6849 -4.90771e-05 0)
(42.684 -3.80573e-05 0)
(42.6834 -2.80627e-05 0)
(42.6828 -1.96757e-05 0)
(42.6824 -1.31326e-05 0)
(42.6821 -8.35934e-06 0)
(42.6817 -5.08816e-06 0)
(42.6814 -2.9735e-06 0)
(42.681 -1.67932e-06 0)
(42.6805 -9.27126e-07 0)
(42.6798 -5.1075e-07 0)
(42.6791 -2.90728e-07 0)
(42.6781 -1.79514e-07 0)
(42.6768 -1.25684e-07 0)
(42.6752 -1.00779e-07 0)
(42.6732 -8.98266e-08 0)
(42.6708 -8.53699e-08 0)
(42.6679 -8.38416e-08 0)
(42.6643 -8.36114e-08 0)
(42.66 -8.39791e-08 0)
(42.6548 -8.46325e-08 0)
(42.6487 -8.54496e-08 0)
(42.6416 -8.638e-08 0)
(42.6333 -8.73892e-08 0)
(42.6237 -8.84564e-08 0)
(42.6127 -8.95476e-08 0)
(42.6003 -9.06277e-08 0)
(42.5864 -9.16589e-08 0)
(42.5711 -9.25796e-08 0)
(42.5542 -9.33357e-08 0)
(42.5359 -9.38492e-08 0)
(42.5163 -9.40589e-08 0)
(42.4955 -9.3882e-08 0)
(42.4737 -9.32529e-08 0)
(42.4513 -9.21008e-08 0)
(42.4283 -9.03808e-08 0)
(42.4054 -8.8044e-08 0)
(42.3826 -8.5089e-08 0)
(42.3606 -8.15172e-08 0)
(42.3396 -7.7376e-08 0)
(42.3199 -7.27505e-08 0)
(42.302 -6.7771e-08 0)
(42.2862 -6.252e-08 0)
(42.2726 -5.69855e-08 0)
(42.2615 -5.10962e-08 0)
(42.2528 -4.47754e-08 0)
(42.2466 -3.79887e-08 0)
(42.2428 -3.08501e-08 0)
(42.2412 -2.38387e-08 0)
(42.2414 -1.78599e-08 0)
(42.2431 -1.09454e-08 0)
(42.2461 -5.52845e-09 0)
(42.2499 -2.04592e-09 0)
(42.254 -7.22349e-10 0)
(42.2581 -4.32743e-10 0)
(42.2618 -8.34741e-10 0)
(42.2647 -2.0309e-09 0)
(42.2664 -4.19721e-09 0)
(42.2669 -5.79693e-09 0)
(42.2659 -8.30867e-09 0)
(42.2634 -1.17755e-08 0)
(42.2592 -1.44736e-08 0)
(42.2534 -1.70349e-08 0)
(42.2461 -1.94043e-08 0)
(42.2374 -2.13887e-08 0)
(42.2275 -2.30239e-08 0)
(42.2165 -2.3946e-08 0)
(42.2046 -2.48636e-08 0)
(42.1921 -2.50119e-08 0)
(42.1791 -2.46892e-08 0)
(42.1658 -2.42738e-08 0)
(42.1524 -2.32681e-08 0)
(42.1389 -2.20764e-08 0)
(42.1255 -2.05232e-08 0)
(42.1122 -1.88957e-08 0)
(42.0992 -1.70617e-08 0)
(42.0865 -1.49652e-08 0)
(42.0741 -1.30643e-08 0)
(42.0621 -1.08988e-08 0)
(42.0505 -8.68031e-09 0)
(42.0393 -6.65033e-09 0)
(42.0285 -4.39678e-09 0)
(42.0181 -1.93645e-09 0)
(42.0082 9.772e-10 0)
(41.9987 3.21841e-09 0)
(41.9897 5.40347e-09 0)
(41.9812 7.69834e-09 0)
(41.9732 9.88147e-09 0)
(41.9656 1.20737e-08 0)
(41.9585 1.4298e-08 0)
(41.952 1.63681e-08 0)
(41.946 1.85053e-08 0)
(41.9404 2.05814e-08 0)
(41.9355 2.25311e-08 0)
(41.931 2.45124e-08 0)
(41.9271 2.63965e-08 0)
(41.9237 2.81846e-08 0)
(41.9208 2.9953e-08 0)
(41.9184 3.15956e-08 0)
(41.9165 3.31675e-08 0)
(41.9152 3.4672e-08 0)
(41.9142 3.60492e-08 0)
(41.9137 3.73449e-08 0)
(41.9137 3.8341e-08 0)
(41.914 3.95638e-08 0)
(41.9146 4.04878e-08 0)
(41.9156 4.14279e-08 0)
(41.9168 4.21711e-08 0)
(41.9183 4.27674e-08 0)
(41.92 4.33296e-08 0)
(41.9219 4.3711e-08 0)
(41.9239 4.39663e-08 0)
(41.9259 4.41751e-08 0)
(41.928 4.42258e-08 0)
(41.93 4.41663e-08 0)
(41.9319 4.40574e-08 0)
(41.9336 4.38186e-08 0)
(41.9352 4.35018e-08 0)
(41.9365 4.31442e-08 0)
(41.9376 4.27015e-08 0)
(41.9383 4.22236e-08 0)
(41.9387 4.17858e-08 0)
(41.9387 4.13469e-08 0)
(41.9383 4.07946e-08 0)
(41.9375 4.03042e-08 0)
(41.9363 3.97964e-08 0)
(41.9347 3.94359e-08 0)
(41.9328 3.91187e-08 0)
(41.9304 3.88269e-08 0)
(41.9278 3.86935e-08 0)
(41.9249 3.86012e-08 0)
(41.9217 3.86401e-08 0)
(41.9185 3.88135e-08 0)
(41.9152 3.90791e-08 0)
(41.9119 3.94996e-08 0)
(41.9087 4.00043e-08 0)
(41.9057 4.06494e-08 0)
(41.9029 4.13649e-08 0)
(41.9004 4.21496e-08 0)
(41.8983 4.30019e-08 0)
(41.8966 4.38553e-08 0)
(41.8953 4.47565e-08 0)
(41.8945 4.56388e-08 0)
(41.8942 4.64312e-08 0)
(41.8943 4.70954e-08 0)
(41.8948 4.80366e-08 0)
(41.8958 4.88032e-08 0)
(41.8971 4.94174e-08 0)
(41.8988 4.98952e-08 0)
(41.9008 5.03828e-08 0)
(41.903 5.06869e-08 0)
(41.9055 5.08774e-08 0)
(41.9081 5.10343e-08 0)
(41.9108 5.10219e-08 0)
(41.9135 5.09121e-08 0)
(41.9163 5.07292e-08 0)
(41.9189 5.0384e-08 0)
(41.9214 4.99516e-08 0)
(41.9237 4.94376e-08 0)
(41.9257 4.87683e-08 0)
(41.9273 4.80669e-08 0)
(41.9285 4.72787e-08 0)
(41.9291 4.64218e-08 0)
(41.9292 4.58804e-08 0)
(41.9287 4.48716e-08 0)
(41.9275 4.38766e-08 0)
(41.9258 4.30249e-08 0)
(41.9234 4.23258e-08 0)
(41.9205 4.15739e-08 0)
(41.917 4.10368e-08 0)
(41.9131 4.06407e-08 0)
(41.9088 4.03355e-08 0)
(41.9043 4.03515e-08 0)
(41.8996 4.046e-08 0)
(41.8948 4.07768e-08 0)
(41.8901 4.13834e-08 0)
(41.8855 4.19054e-08 0)
(41.8811 4.25555e-08 0)
(41.8767 4.33146e-08 0)
(41.8725 4.374e-08 0)
(41.8682 4.50743e-08 0)
(41.8637 4.72469e-08 0)
(41.8588 6.46327e-08 0)
(41.8533 1.75828e-07 0)
(41.8471 9.78132e-07 0)
(41.8399 6.67013e-06 0)
(41.8326 4.74094e-05 0)
(41.8306 0.000345357 0)
(41.8777 0.00273563 0)
(42.0836 0.0388011 0)
(47.2578 0.15926 0)
(37.6739 1.27987 -3.16103e-15)
(36.6068 3.67151 6.34051e-15)
(36.1847 6.39472 -1.18874e-14)
(35.7635 9.14968 2.45635e-14)
(35.1002 11.8758 -2.53427e-14)
(34.2485 14.5762 -1.58242e-15)
(33.3992 17.3272 4.19673e-20)
(32.5919 20.221 -2.2042e-14)
(31.4829 23.0536 -1.02199e-13)
(29.7639 25.4664 1.00625e-13)
(27.4623 27.3323 -2.51728e-14)
(24.7892 28.701 -5.2033e-14)
(21.9912 29.8191 2.68875e-14)
(19.6364 31.6168 0)
(18.0335 35.0456 2.49719e-14)
(16.6476 40.0701 2.45964e-14)
(14.7159 45.5744 -2.42665e-14)
(11.8286 49.8756 2.40936e-14)
(8.30277 51.7381 1.88164e-16)
(4.6513 52.271 -1.87508e-16)
(38.7947 2.01651 0)
(38.1611 4.92295 0)
(37.7443 8.12712 -1.60986e-15)
(37.2124 11.3116 -3.21662e-15)
(36.4121 14.434 8.03205e-15)
(35.4001 17.4728 1.6038e-14)
(34.4073 20.4521 0)
(33.4113 23.6273 9.55163e-15)
(31.8975 27.0338 1.59036e-14)
(29.5862 30.128 -3.81719e-14)
(26.6327 32.5477 2.54251e-14)
(23.2854 34.2645 1.27267e-14)
(20.0517 35.1974 -1.27652e-14)
(18.1081 35.8422 1.27618e-14)
(17.2661 37.7588 0)
(16.1965 41.6248 -1.55231e-15)
(13.798 46.8832 1.53137e-15)
(9.51089 52.1117 -5.32155e-15)
(4.07852 55.3533 -7.60088e-16)
(-0.491528 56.0929 0)
(41.579 1.58374 -4.10532e-17)
(41.5781 2.61181 -2.08636e-14)
(41.6818 3.65754 2.11897e-14)
(41.8715 4.70047 -2.03669e-14)
(42.0969 5.81284 -2.23401e-14)
(42.3149 7.06905 8.3153e-14)
(42.4771 8.50162 -4.20949e-14)
(42.5785 10.0692 4.08091e-14)
(42.6747 11.7412 -8.30186e-14)
(42.7423 13.6204 1.32524e-15)
(42.6528 15.8118 4.08924e-14)
(42.2605 18.3277 0)
(41.4256 21.1303 -4.08869e-14)
(39.9252 24.0992 4.09128e-14)
(37.8065 26.9123 -3.30081e-16)
(35.6088 29.2496 0)
(33.9945 31.0887 3.31603e-16)
(33.2414 32.7628 0)
(32.9434 34.7262 0)
(32.4326 37.1296 0)
(45.6797 2.58337 6.28372e-16)
(45.4008 5.94377 -6.30425e-15)
(44.3916 9.9428 -1.26352e-15)
(43.2034 14.0464 2.52431e-15)
(42.1243 18.0944 -2.51351e-15)
(41.087 22.0779 -4.54692e-19)
(39.9243 25.9916 -9.93786e-15)
(38.484 29.7929 0)
(36.7261 33.4658 0)
(34.653 37.0028 -4.88966e-15)
(32.2412 40.351 4.86557e-15)
(29.5136 43.5039 0)
(26.4706 46.4119 -4.82011e-15)
(23.1411 49.0427 4.80356e-15)
(19.5588 51.377 -4.78642e-15)
(15.7477 53.3965 9.53998e-15)
(11.7253 55.0702 -4.75897e-15)
(7.52669 56.3529 0)
(3.243 57.2314 -2.36841e-15)
(-0.679295 57.6502 0)
(48.6883 1.78803 -9.58415e-16)
(49.6364 4.58192 7.34695e-15)
(49.3386 7.93805 5.1113e-15)
(48.5295 11.4561 1.02148e-14)
(47.7079 15.1045 0)
(46.8934 18.8819 0)
(45.9469 22.7418 1.01137e-14)
(44.7428 26.5996 2.51708e-15)
(43.2131 30.4356 -5.01131e-15)
(41.3627 34.1798 2.4954e-15)
(39.1511 37.7975 1.98799e-14)
(36.599 41.2383 -1.23788e-14)
(33.7056 44.458 1.23409e-14)
(30.4873 47.422 -2.46019e-15)
(26.9753 50.0954 -9.81626e-15)
(23.2099 52.4249 -1.71487e-14)
(19.2383 54.3298 -8.5651e-15)
(15.1091 55.7017 -1.22371e-15)
(10.8914 56.3895 7.04211e-15)
(6.84332 56.0626 3.0712e-16)
(1.6944 53.22 0)
(1.0802 54.5163 0)
(0.9416 57.2685 0)
(1.04153 58.7142 0)
(1.06453 58.5818 0)
(1.03605 58.359 0)
(0.986547 58.4244 0)
(0.929583 58.2033 0)
(0.858141 57.318 0)
(0.78333 55.7463 0)
(0.702762 53.6855 0)
(0.612135 51.4606 0)
(0.51484 49.353 0)
(0.413284 47.5208 0)
(0.316403 46.0165 0)
(0.231234 44.8181 0)
(0.160453 43.8828 0)
(0.106392 43.1695 0)
(0.0674736 42.6403 0)
(0.0409923 42.2612 0)
(0.0238975 42.0004 0)
(0.0133889 41.8286 0)
(0.00721805 41.7206 0)
(0.00374767 41.6563 0)
(0.00187533 41.6203 0)
(0.000904548 41.6019 0)
(0.000420837 41.5939 0)
(0.000188759 41.5917 0)
(8.1586e-05 41.5924 0)
(3.40229e-05 41.5944 0)
(1.35515e-05 41.5967 0)
(5.16075e-06 41.5986 0)
(1.84275e-06 41.5999 0)
(5.79651e-07 41.6004 0)
(1.19653e-07 41.5999 0)
(-3.75989e-08 41.5984 0)
(-8.84883e-08 41.5959 0)
(-1.03269e-07 41.5923 0)
(-1.07214e-07 41.5877 0)
(-1.07722e-07 41.5822 0)
(-1.07382e-07 41.5757 0)
(-1.07062e-07 41.5684 0)
(-1.06367e-07 41.5604 0)
(-1.05547e-07 41.5516 0)
(-1.04585e-07 41.5422 0)
(-1.03518e-07 41.5323 0)
(-1.02371e-07 41.522 0)
(-1.00947e-07 41.5112 0)
(-9.96492e-08 41.5002 0)
(-9.81054e-08 41.489 0)
(-9.66713e-08 41.4776 0)
(-9.5193e-08 41.4661 0)
(-9.37642e-08 41.4546 0)
(-9.23319e-08 41.4431 0)
(-9.08815e-08 41.4317 0)
(-8.93716e-08 41.4204 0)
(-8.77809e-08 41.4093 0)
(-8.62345e-08 41.3984 0)
(-8.47053e-08 41.3877 0)
(-8.32349e-08 41.3772 0)
(-8.1793e-08 41.367 0)
(-8.03693e-08 41.3571 0)
(-7.89732e-08 41.3476 0)
(-7.75844e-08 41.3383 0)
(-7.62536e-08 41.3294 0)
(-7.49133e-08 41.3209 0)
(-7.3574e-08 41.3127 0)
(-7.2267e-08 41.3049 0)
(-7.10295e-08 41.2974 0)
(-6.98458e-08 41.2904 0)
(-6.86995e-08 41.2837 0)
(-6.75823e-08 41.2775 0)
(-6.65098e-08 41.2716 0)
(-6.55099e-08 41.2662 0)
(-6.45824e-08 41.2611 0)
(-6.37071e-08 41.2564 0)
(-6.2902e-08 41.252 0)
(-6.21618e-08 41.248 0)
(-6.1501e-08 41.2442 0)
(-6.08835e-08 41.2407 0)
(-6.0325e-08 41.2374 0)
(-5.97896e-08 41.2342 0)
(-5.92788e-08 41.2311 0)
(-5.8788e-08 41.228 0)
(-5.83225e-08 41.2248 0)
(-5.78845e-08 41.2214 0)