/*--------------------------------*- C++ -*----------------------------------*\
| =========                 |                                                 |
| \\      /  F ield         | OpenFOAM: The Open Source CFD Toolbox           |
|  \\    /   O peration     | Version:  3.0.x                                 |
|   \\  /    A nd           | Web:      www.OpenFOAM.org                      |
|    \\/     M anipulation  |                                                 |
\*---------------------------------------------------------------------------*/
FoamFile
{
    version     2.0;
    format      ascii;
    class       volScalarField;
    location    "0.6";
    object      T;
}
// * * * * * * * * * * * * * * * * * * * * * * * * * * * * * * * * * * * * * //

dimensions      [0 0 0 1 0 0 0];

internalField   nonuniform List<scalar> 
13800
(
799.75
799.695
799.604
799.5
799.385
799.269
799.151
799.035
798.925
798.825
798.73
798.643
798.565
798.499
798.441
798.387
798.338
798.293
798.254
798.22
798.189
798.161
798.135
798.11
798.086
798.061
798.036
798.009
797.982
797.954
797.924
797.893
797.861
797.827
797.793
797.757
797.72
797.682
797.643
797.602
797.561
797.519
797.475
797.431
797.386
797.341
797.294
797.247
797.199
797.15
797.101
797.051
797
796.949
796.897
796.845
796.793
796.74
796.687
796.633
796.58
796.525
796.471
796.416
796.362
796.307
796.252
796.197
796.141
796.086
796.031
795.975
795.92
795.865
795.81
795.755
795.7
795.645
795.591
795.536
795.482
795.428
795.374
795.32
795.267
795.214
795.162
795.11
795.059
795.007
794.956
794.904
794.852
794.8
794.748
794.697
794.646
794.596
794.546
794.497
794.449
794.401
794.354
794.308
794.262
794.217
794.172
794.127
794.082
794.037
793.992
793.948
793.904
793.862
793.819
793.777
793.735
793.693
793.652
793.61
793.569
793.529
793.489
793.449
793.41
793.371
793.334
793.297
793.261
793.225
793.19
793.156
793.123
793.09
793.057
793.024
792.991
792.958
792.925
792.892
792.86
792.829
792.798
792.767
792.737
792.708
792.679
792.651
792.624
792.596
792.57
792.543
792.517
792.492
792.467
792.442
792.418
792.394
792.37
792.347
792.324
792.302
792.28
792.258
792.237
792.216
792.195
792.175
792.155
792.136
792.116
792.098
792.078
792.061
792.041
792.026
792.005
791.993
791.971
791.96
791.938
791.929
791.906
791.9
791.875
791.872
791.846
791.844
791.819
791.818
791.793
791.792
791.768
791.767
791.744
791.741
791.727
791.706
791.721
791.695
799.718
799.663
799.573
799.469
799.354
799.238
799.12
799.004
798.895
798.794
798.7
798.612
798.535
798.469
798.411
798.357
798.308
798.264
798.224
798.19
798.159
798.132
798.106
798.081
798.056
798.031
798.006
797.98
797.953
797.925
797.895
797.864
797.832
797.799
797.764
797.728
797.692
797.653
797.614
797.574
797.533
797.491
797.448
797.404
797.359
797.313
797.267
797.219
797.171
797.123
797.074
797.024
796.973
796.922
796.871
796.819
796.766
796.714
796.661
796.607
796.553
796.499
796.445
796.391
796.336
796.281
796.226
796.171
796.116
796.061
796.005
795.95
795.895
795.84
795.785
795.73
795.675
795.621
795.566
795.512
795.457
795.403
795.35
795.296
795.243
795.19
795.138
795.087
795.035
794.984
794.933
794.881
794.829
794.777
794.726
794.675
794.624
794.574
794.524
794.475
794.427
794.379
794.332
794.286
794.24
794.195
794.15
794.105
794.06
794.016
793.971
793.927
793.883
793.84
793.798
793.756
793.714
793.673
793.632
793.591
793.55
793.509
793.469
793.43
793.391
793.352
793.314
793.277
793.241
793.206
793.171
793.137
793.103
793.07
793.038
793.005
792.972
792.94
792.907
792.875
792.843
792.811
792.78
792.749
792.72
792.69
792.662
792.634
792.606
792.579
792.552
792.526
792.5
792.475
792.45
792.425
792.401
792.377
792.353
792.33
792.308
792.285
792.263
792.241
792.22
792.199
792.178
792.158
792.138
792.119
792.099
792.081
792.061
792.045
792.024
792.01
791.989
791.976
791.954
791.944
791.921
791.912
791.89
791.883
791.859
791.854
791.83
791.827
791.803
791.8
791.777
791.774
791.752
791.75
791.728
791.727
791.706
791.704
791.688
791.69
799.718
799.663
799.573
799.469
799.354
799.238
799.12
799.004
798.894
798.794
798.7
798.612
798.535
798.469
798.41
798.357
798.308
798.263
798.224
798.19
798.159
798.131
798.105
798.081
798.056
798.031
798.006
797.98
797.953
797.925
797.895
797.864
797.832
797.799
797.764
797.728
797.691
797.653
797.614
797.574
797.533
797.491
797.448
797.404
797.359
797.313
797.267
797.219
797.171
797.123
797.073
797.024
796.973
796.922
796.871
796.819
796.766
796.714
796.661
796.607
796.553
796.499
796.445
796.391
796.336
796.281
796.226
796.171
796.116
796.061
796.005
795.95
795.895
795.84
795.785
795.73
795.675
795.621
795.566
795.512
795.457
795.403
795.349
795.296
795.243
795.19
795.138
795.086
795.035
794.984
794.932
794.881
794.829
794.777
794.726
794.675
794.624
794.574
794.524
794.475
794.427
794.379
794.332
794.285
794.24
794.195
794.15
794.105
794.06
794.016
793.971
793.927
793.883
793.84
793.798
793.756
793.714
793.673
793.632
793.591
793.549
793.509
793.469
793.429
793.39
793.352
793.314
793.277
793.241
793.205
793.171
793.136
793.103
793.07
793.037
793.005
792.972
792.94
792.907
792.875
792.842
792.811
792.78
792.749
792.719
792.69
792.662
792.633
792.606
792.579
792.552
792.526
792.5
792.475
792.45
792.425
792.401
792.377
792.353
792.33
792.308
792.285
792.263
792.241
792.22
792.199
792.178
792.158
792.138
792.119
792.099
792.081
792.061
792.045
792.024
792.01
791.988
791.976
791.954
791.943
791.921
791.912
791.89
791.883
791.859
791.854
791.83
791.827
791.803
791.8
791.777
791.774
791.752
791.75
791.728
791.727
791.706
791.704
791.686
791.684
799.719
799.664
799.573
799.469
799.354
799.238
799.121
799.004
798.895
798.794
798.7
798.613
798.535
798.469
798.411
798.358
798.308
798.264
798.224
798.19
798.159
798.132
798.106
798.081
798.056
798.032
798.006
797.98
797.953
797.925
797.895
797.864
797.832
797.799
797.764
797.729
797.692
797.654
797.615
797.574
797.533
797.491
797.448
797.404
797.359
797.313
797.267
797.22
797.172
797.123
797.074
797.024
796.973
796.922
796.871
796.819
796.767
796.714
796.661
796.607
796.554
796.499
796.445
796.391
796.336
796.281
796.226
796.171
796.116
796.061
796.006
795.95
795.895
795.84
795.785
795.73
795.675
795.621
795.566
795.512
795.457
795.403
795.35
795.296
795.243
795.191
795.138
795.087
795.035
794.984
794.933
794.881
794.829
794.777
794.726
794.675
794.624
794.574
794.524
794.475
794.427
794.379
794.332
794.286
794.24
794.195
794.15
794.105
794.06
794.016
793.971
793.927
793.883
793.84
793.798
793.756
793.714
793.673
793.632
793.591
793.55
793.509
793.469
793.43
793.391
793.352
793.314
793.277
793.241
793.206
793.171
793.137
793.103
793.07
793.037
793.005
792.972
792.94
792.907
792.875
792.842
792.811
792.78
792.749
792.719
792.69
792.662
792.633
792.606
792.579
792.552
792.526
792.5
792.475
792.45
792.425
792.401
792.377
792.353
792.33
792.308
792.285
792.263
792.241
792.22
792.199
792.178
792.158
792.138
792.119
792.099
792.081
792.061
792.044
792.024
792.01
791.989
791.976
791.954
791.943
791.921
791.912
791.89
791.883
791.859
791.854
791.83
791.827
791.803
791.8
791.777
791.774
791.752
791.75
791.728
791.727
791.706
791.704
791.685
791.679
799.719
799.664
799.573
799.469
799.354
799.238
799.121
799.004
798.895
798.794
798.7
798.613
798.535
798.469
798.411
798.358
798.308
798.264
798.225
798.19
798.16
798.132
798.106
798.081
798.056
798.032
798.007
797.981
797.953
797.925
797.895
797.865
797.833
797.799
797.765
797.729
797.692
797.654
797.615
797.574
797.533
797.491
797.448
797.404
797.359
797.313
797.267
797.22
797.172
797.123
797.074
797.024
796.973
796.922
796.871
796.819
796.767
796.714
796.661
796.607
796.554
796.5
796.445
796.391
796.336
796.281
796.226
796.171
796.116
796.061
796.006
795.951
795.895
795.84
795.785
795.73
795.675
795.621
795.566
795.512
795.457
795.403
795.35
795.296
795.243
795.191
795.138
795.087
795.035
794.984
794.933
794.881
794.829
794.777
794.726
794.675
794.624
794.574
794.524
794.475
794.427
794.379
794.332
794.286
794.24
794.195
794.15
794.105
794.061
794.016
793.971
793.927
793.883
793.841
793.798
793.756
793.714
793.673
793.632
793.591
793.55
793.509
793.469
793.43
793.391
793.352
793.314
793.277
793.241
793.206
793.171
793.137
793.103
793.07
793.037
793.005
792.972
792.94
792.907
792.875
792.842
792.811
792.78
792.749
792.719
792.69
792.662
792.633
792.606
792.579
792.552
792.526
792.5
792.475
792.45
792.425
792.401
792.377
792.353
792.33
792.308
792.285
792.263
792.241
792.22
792.199
792.178
792.158
792.138
792.119
792.099
792.081
792.061
792.045
792.024
792.01
791.989
791.976
791.954
791.944
791.921
791.913
791.89
791.883
791.859
791.854
791.83
791.826
791.803
791.8
791.777
791.774
791.752
791.75
791.728
791.727
791.706
791.704
791.685
791.684
799.719
799.664
799.573
799.469
799.354
799.238
799.121
799.004
798.895
798.794
798.7
798.613
798.535
798.469
798.411
798.358
798.308
798.264
798.225
798.19
798.16
798.132
798.106
798.081
798.056
798.032
798.007
797.981
797.953
797.925
797.895
797.865
797.833
797.799
797.765
797.729
797.692
797.654
797.615
797.574
797.533
797.491
797.448
797.404
797.359
797.313
797.267
797.22
797.172
797.123
797.074
797.024
796.973
796.922
796.871
796.819
796.767
796.714
796.661
796.607
796.554
796.5
796.445
796.391
796.336
796.281
796.226
796.171
796.116
796.061
796.006
795.951
795.895
795.84
795.785
795.73
795.675
795.621
795.566
795.512
795.457
795.403
795.35
795.296
795.243
795.191
795.138
795.087
795.035
794.984
794.933
794.881
794.829
794.777
794.726
794.675
794.624
794.574
794.524
794.475
794.427
794.379
794.332
794.286
794.24
794.195
794.15
794.105
794.061
794.016
793.971
793.927
793.883
793.841
793.798
793.756
793.714
793.673
793.632
793.591
793.55
793.509
793.469
793.43
793.391
793.352
793.314
793.277
793.241
793.206
793.171
793.137
793.103
793.07
793.037
793.005
792.972
792.94
792.907
792.875
792.842
792.811
792.78
792.749
792.719
792.69
792.662
792.633
792.606
792.579
792.552
792.526
792.5
792.475
792.45
792.425
792.401
792.377
792.353
792.33
792.308
792.285
792.263
792.241
792.22
792.199
792.178
792.158
792.138
792.119
792.099
792.08
792.062
792.044
792.025
792.008
791.99
791.975
791.956
791.941
791.925
791.907
791.897
791.874
791.869
791.845
791.839
791.817
791.81
791.793
791.779
791.774
791.751
791.75
791.73
791.722
791.708
791.704
791.686
791.675
799.719
799.664
799.573
799.469
799.354
799.238
799.121
799.004
798.895
798.794
798.7
798.613
798.535
798.469
798.411
798.358
798.308
798.264
798.224
798.19
798.159
798.132
798.106
798.081
798.056
798.032
798.006
797.98
797.953
797.925
797.895
797.864
797.832
797.799
797.764
797.729
797.692
797.654
797.615
797.574
797.533
797.491
797.448
797.404
797.359
797.313
797.267
797.22
797.172
797.123
797.074
797.024
796.973
796.922
796.871
796.819
796.767
796.714
796.661
796.607
796.554
796.499
796.445
796.391
796.336
796.281
796.226
796.171
796.116
796.061
796.006
795.95
795.895
795.84
795.785
795.73
795.675
795.621
795.566
795.512
795.457
795.403
795.35
795.296
795.243
795.191
795.138
795.087
795.035
794.984
794.933
794.881
794.829
794.777
794.726
794.675
794.624
794.574
794.524
794.475
794.427
794.379
794.332
794.286
794.24
794.195
794.15
794.105
794.06
794.016
793.971
793.927
793.883
793.84
793.798
793.756
793.714
793.673
793.632
793.591
793.55
793.509
793.469
793.43
793.391
793.352
793.314
793.277
793.241
793.206
793.171
793.137
793.103
793.07
793.037
793.005
792.972
792.94
792.907
792.875
792.842
792.811
792.78
792.749
792.719
792.69
792.662
792.633
792.606
792.579
792.552
792.526
792.5
792.475
792.45
792.425
792.401
792.377
792.353
792.33
792.308
792.285
792.263
792.241
792.22
792.199
792.178
792.158
792.138
792.118
792.1
792.08
792.062
792.042
792.027
792.006
791.993
791.971
791.96
791.937
791.928
791.905
791.897
791.874
791.868
791.845
791.84
791.817
791.813
791.79
791.787
791.765
791.762
791.74
791.738
791.717
791.716
791.695
791.689
791.675
799.718
799.663
799.573
799.469
799.354
799.238
799.12
799.004
798.894
798.794
798.7
798.612
798.535
798.469
798.41
798.357
798.308
798.263
798.224
798.19
798.159
798.131
798.105
798.081
798.056
798.031
798.006
797.98
797.953
797.925
797.895
797.864
797.832
797.799
797.764
797.728
797.691
797.653
797.614
797.574
797.533
797.491
797.448
797.404
797.359
797.313
797.267
797.219
797.171
797.123
797.073
797.024
796.973
796.922
796.871
796.819
796.766
796.714
796.661
796.607
796.553
796.499
796.445
796.391
796.336
796.281
796.226
796.171
796.116
796.061
796.005
795.95
795.895
795.84
795.785
795.73
795.675
795.621
795.566
795.512
795.457
795.403
795.349
795.296
795.243
795.19
795.138
795.086
795.035
794.984
794.932
794.881
794.829
794.777
794.726
794.675
794.624
794.574
794.524
794.475
794.427
794.379
794.332
794.285
794.24
794.195
794.15
794.105
794.06
794.016
793.971
793.927
793.883
793.84
793.798
793.756
793.714
793.673
793.632
793.591
793.549
793.509
793.469
793.429
793.39
793.352
793.314
793.277
793.241
793.205
793.171
793.136
793.103
793.07
793.037
793.005
792.972
792.94
792.907
792.875
792.842
792.811
792.78
792.749
792.719
792.69
792.662
792.633
792.606
792.579
792.552
792.526
792.5
792.475
792.45
792.425
792.401
792.377
792.353
792.33
792.308
792.285
792.263
792.241
792.22
792.199
792.179
792.158
792.138
792.118
792.1
792.08
792.063
792.042
792.027
792.006
791.993
791.971
791.96
791.937
791.928
791.905
791.898
791.874
791.869
791.845
791.84
791.817
791.813
791.79
791.787
791.765
791.762
791.74
791.738
791.717
791.716
791.695
791.697
791.68
799.718
799.663
799.573
799.469
799.354
799.238
799.12
799.004
798.895
798.794
798.7
798.612
798.535
798.469
798.411
798.357
798.308
798.264
798.224
798.19
798.159
798.132
798.106
798.081
798.056
798.031
798.006
797.98
797.953
797.925
797.895
797.864
797.832
797.799
797.764
797.728
797.692
797.653
797.614
797.574
797.533
797.491
797.448
797.404
797.359
797.313
797.267
797.219
797.171
797.123
797.074
797.024
796.973
796.922
796.871
796.819
796.766
796.714
796.661
796.607
796.553
796.499
796.445
796.391
796.336
796.281
796.226
796.171
796.116
796.061
796.005
795.95
795.895
795.84
795.785
795.73
795.675
795.621
795.566
795.512
795.457
795.403
795.35
795.296
795.243
795.19
795.138
795.087
795.035
794.984
794.933
794.881
794.829
794.777
794.726
794.675
794.624
794.574
794.524
794.475
794.427
794.379
794.332
794.286
794.24
794.195
794.15
794.105
794.06
794.016
793.971
793.927
793.883
793.84
793.798
793.756
793.714
793.673
793.632
793.591
793.55
793.509
793.469
793.43
793.391
793.352
793.314
793.277
793.241
793.206
793.171
793.137
793.103
793.07
793.038
793.005
792.972
792.94
792.907
792.875
792.843
792.811
792.78
792.749
792.72
792.69
792.662
792.634
792.606
792.579
792.552
792.526
792.5
792.475
792.45
792.425
792.401
792.377
792.353
792.33
792.308
792.285
792.263
792.241
792.22
792.199
792.179
792.158
792.138
792.118
792.1
792.08
792.063
792.042
792.027
792.006
791.993
791.971
791.96
791.937
791.928
791.905
791.898
791.874
791.869
791.845
791.84
791.817
791.813
791.79
791.787
791.764
791.762
791.74
791.738
791.717
791.716
791.695
791.698
791.686
799.75
799.695
799.604
799.5
799.385
799.269
799.151
799.035
798.925
798.825
798.73
798.643
798.565
798.499
798.441
798.387
798.338
798.293
798.254
798.22
798.189
798.161
798.135
798.11
798.086
798.061
798.036
798.009
797.982
797.954
797.924
797.893
797.861
797.827
797.793
797.757
797.72
797.682
797.643
797.602
797.561
797.519
797.475
797.431
797.386
797.341
797.294
797.247
797.199
797.15
797.101
797.051
797
796.949
796.897
796.845
796.793
796.74
796.687
796.633
796.58
796.525
796.471
796.416
796.362
796.307
796.252
796.197
796.141
796.086
796.031
795.975
795.92
795.865
795.81
795.755
795.7
795.645
795.591
795.536
795.482
795.428
795.374
795.32
795.267
795.214
795.162
795.11
795.059
795.007
794.956
794.904
794.852
794.8
794.748
794.697
794.646
794.596
794.546
794.497
794.449
794.401
794.354
794.308
794.262
794.217
794.172
794.127
794.082
794.037
793.992
793.948
793.904
793.862
793.819
793.777
793.735
793.693
793.652
793.61
793.569
793.529
793.489
793.449
793.41
793.371
793.334
793.297
793.261
793.225
793.19
793.156
793.123
793.09
793.057
793.024
792.991
792.958
792.925
792.892
792.86
792.829
792.798
792.767
792.737
792.708
792.679
792.651
792.624
792.596
792.57
792.543
792.517
792.492
792.467
792.442
792.418
792.394
792.37
792.347
792.324
792.302
792.28
792.258
792.237
792.216
792.195
792.175
792.155
792.135
792.117
792.097
792.079
792.059
792.044
792.023
792.01
791.987
791.977
791.954
791.946
791.921
791.915
791.89
791.886
791.86
791.858
791.832
791.831
791.805
791.805
791.78
791.78
791.756
791.756
791.732
791.734
791.709
791.72
791.703
791.683
791.682
791.683
791.685
791.694
791.708
791.725
791.74
791.749
791.753
791.753
791.751
791.75
791.748
791.746
791.744
791.743
791.742
791.742
791.738
791.685
791.685
791.686
791.687
791.688
791.69
791.694
791.699
791.705
791.711
791.716
791.72
791.724
791.726
791.726
791.726
791.724
791.722
791.72
791.717
791.689
791.692
791.69
791.69
791.69
791.69
791.693
791.693
791.697
791.701
791.707
791.711
791.716
791.718
791.72
791.721
791.72
791.72
791.717
791.715
791.681
791.679
791.679
791.677
791.677
791.677
791.678
791.679
791.68
791.681
791.683
791.684
791.687
791.69
791.697
791.702
791.707
791.71
791.712
791.714
791.682
791.68
791.678
791.674
791.672
791.67
791.668
791.667
791.665
791.663
791.662
791.66
791.659
791.657
791.656
791.656
791.656
791.655
791.655
791.652
791.673
791.672
791.672
791.671
791.669
791.668
791.667
791.666
791.667
791.667
791.668
791.669
791.671
791.671
791.674
791.678
791.684
791.69
791.694
791.696
791.668
791.667
791.666
791.664
791.662
791.66
791.658
791.655
791.653
791.65
791.648
791.646
791.644
791.642
791.639
791.635
791.629
791.619
791.611
791.606
791.669
791.666
791.664
791.663
791.662
791.661
791.659
791.658
791.657
791.655
791.653
791.651
791.649
791.646
791.639
791.626
791.604
791.59
791.584
791.578
791.675
791.673
791.671
791.669
791.667
791.664
791.662
791.659
791.656
791.653
791.649
791.645
791.64
791.633
791.623
791.607
791.592
791.602
791.617
791.611
791.691
791.688
791.685
791.683
791.68
791.677
791.674
791.67
791.665
791.66
791.653
791.646
791.638
791.629
791.619
791.602
791.604
791.666
791.723
791.756
791.732
791.735
791.731
791.716
791.694
791.681
791.677
791.674
791.666
791.654
791.641
791.63
791.624
791.622
791.62
791.617
791.612
791.605
791.598
791.592
791.588
791.584
791.58
791.576
791.572
791.568
791.564
791.561
791.557
791.554
791.551
791.549
791.546
791.543
791.541
791.538
791.536
791.534
791.532
791.53
791.528
791.526
791.524
791.522
791.52
791.519
791.517
791.516
791.515
791.514
791.513
791.512
791.511
791.51
791.509
791.508
791.507
791.505
791.504
791.503
791.503
791.502
791.502
791.501
791.501
791.501
791.5
791.5
791.499
791.499
791.499
791.5
791.5
791.5
791.501
791.501
791.501
791.501
791.501
791.501
791.501
791.501
791.501
791.502
791.502
791.503
791.504
791.504
791.505
791.506
791.506
791.506
791.507
791.507
791.508
791.509
791.51
791.511
791.512
791.512
791.513
791.513
791.514
791.515
791.516
791.517
791.518
791.52
791.522
791.523
791.525
791.526
791.527
791.528
791.529
791.53
791.531
791.533
791.534
791.535
791.536
791.537
791.538
791.539
791.54
791.541
791.542
791.544
791.545
791.547
791.549
791.55
791.551
791.553
791.554
791.555
791.556
791.557
791.558
791.56
791.561
791.562
791.563
791.564
791.564
791.564
791.563
791.562
791.562
791.562
791.563
791.564
791.562
791.558
791.553
791.545
791.536
791.526
791.52
791.518
791.526
791.532
791.515
791.486
791.448
791.423
791.43
791.536
791.862
792.286
792.718
793.14
793.529
793.875
794.169
794.404
794.556
794.611
794.628
794.623
794.558
794.279
793.741
793.212
792.739
792.352
792.069
791.866
791.725
791.615
791.543
791.491
791.476
791.471
791.481
791.482
791.492
791.49
791.499
791.501
791.708
791.696
791.693
791.685
791.67
791.653
791.643
791.638
791.631
791.621
791.607
791.594
791.583
791.576
791.571
791.569
791.565
791.56
791.553
791.545
791.539
791.533
791.529
791.525
791.52
791.516
791.512
791.509
791.505
791.502
791.499
791.496
791.493
791.49
791.488
791.485
791.483
791.481
791.478
791.476
791.474
791.472
791.471
791.469
791.467
791.465
791.463
791.462
791.46
791.459
791.458
791.457
791.456
791.456
791.455
791.454
791.453
791.452
791.451
791.45
791.449
791.448
791.447
791.446
791.446
791.446
791.445
791.445
791.445
791.445
791.445
791.444
791.444
791.444
791.445
791.445
791.446
791.446
791.447
791.447
791.447
791.447
791.447
791.447
791.447
791.447
791.448
791.448
791.449
791.45
791.451
791.452
791.452
791.453
791.453
791.454
791.454
791.455
791.456
791.457
791.458
791.459
791.46
791.46
791.461
791.461
791.462
791.463
791.464
791.466
791.467
791.469
791.471
791.472
791.474
791.475
791.476
791.477
791.478
791.479
791.48
791.482
791.483
791.484
791.485
791.486
791.488
791.488
791.489
791.49
791.492
791.493
791.495
791.497
791.498
791.5
791.501
791.502
791.503
791.504
791.506
791.507
791.508
791.51
791.511
791.512
791.512
791.512
791.513
791.513
791.513
791.514
791.514
791.512
791.511
791.509
791.504
791.499
791.496
791.497
791.5
791.502
791.503
791.498
791.479
791.441
791.4
791.371
791.342
791.307
791.262
791.215
791.176
791.16
791.168
791.211
791.309
791.415
791.528
791.643
791.744
791.844
791.912
791.935
791.936
791.916
791.854
791.773
791.696
791.617
791.561
791.515
791.495
791.48
791.479
791.476
791.48
791.479
791.483
791.488
791.707
791.696
791.693
791.687
791.674
791.66
791.651
791.645
791.639
791.628
791.615
791.602
791.592
791.586
791.582
791.579
791.574
791.567
791.56
791.553
791.548
791.543
791.539
791.534
791.53
791.526
791.522
791.518
791.515
791.512
791.509
791.506
791.503
791.501
791.498
791.496
791.493
791.491
791.489
791.487
791.485
791.483
791.481
791.479
791.478
791.476
791.474
791.473
791.471
791.47
791.469
791.468
791.467
791.466
791.465
791.464
791.463
791.462
791.461
791.46
791.459
791.458
791.458
791.457
791.457
791.456
791.456
791.456
791.456
791.455
791.455
791.455
791.455
791.455
791.455
791.456
791.456
791.457
791.457
791.457
791.457
791.457
791.457
791.457
791.457
791.458
791.458
791.459
791.46
791.46
791.461
791.462
791.462
791.463
791.463
791.464
791.464
791.465
791.466
791.467
791.468
791.469
791.47
791.47
791.471
791.472
791.472
791.473
791.475
791.476
791.478
791.479
791.481
791.482
791.484
791.485
791.486
791.487
791.488
791.489
791.49
791.491
791.492
791.494
791.494
791.495
791.496
791.497
791.498
791.499
791.5
791.502
791.503
791.505
791.506
791.507
791.509
791.51
791.511
791.512
791.513
791.514
791.515
791.516
791.518
791.519
791.519
791.52
791.52
791.521
791.521
791.521
791.522
791.522
791.52
791.515
791.513
791.509
791.504
791.508
791.516
791.519
791.517
791.502
791.472
791.425
791.372
791.325
791.286
791.249
791.215
791.182
791.161
791.149
791.159
791.181
791.238
791.283
791.355
791.404
791.478
791.52
791.579
791.608
791.633
791.637
791.632
791.611
791.586
791.555
791.533
791.508
791.497
791.484
791.483
791.479
791.482
791.481
791.487
791.489
791.708
791.704
791.706
791.711
791.711
791.706
791.701
791.699
791.699
791.698
791.694
791.688
791.682
791.677
791.675
791.674
791.672
791.67
791.666
791.661
791.656
791.652
791.647
791.643
791.64
791.636
791.633
791.63
791.627
791.624
791.621
791.619
791.616
791.613
791.611
791.608
791.606
791.604
791.601
791.599
791.598
791.596
791.594
791.592
791.59
791.588
791.587
791.585
791.584
791.583
791.582
791.581
791.58
791.579
791.578
791.577
791.576
791.575
791.574
791.573
791.572
791.571
791.57
791.57
791.57
791.569
791.569
791.569
791.568
791.568
791.568
791.568
791.569
791.569
791.569
791.569
791.57
791.57
791.569
791.569
791.569
791.569
791.569
791.57
791.57
791.571
791.572
791.572
791.573
791.574
791.574
791.574
791.575
791.575
791.576
791.577
791.577
791.578
791.579
791.579
791.58
791.581
791.581
791.582
791.583
791.585
791.586
791.587
791.589
791.59
791.591
791.593
791.594
791.595
791.596
791.597
791.598
791.599
791.6
791.601
791.602
791.603
791.604
791.605
791.607
791.608
791.609
791.611
791.612
791.614
791.615
791.616
791.617
791.618
791.619
791.621
791.621
791.623
791.624
791.625
791.625
791.626
791.625
791.625
791.625
791.625
791.625
791.626
791.625
791.621
791.618
791.613
791.607
791.602
791.599
791.598
791.598
791.598
791.597
791.591
791.576
791.554
791.529
791.504
791.481
791.462
791.444
791.426
791.41
791.397
791.393
791.392
791.403
791.411
791.433
791.445
791.466
791.482
791.5
791.513
791.526
791.528
791.536
791.531
791.531
791.525
791.521
791.51
791.507
791.498
791.496
791.49
791.492
791.488
791.492
791.488
791.493
791.491
791.493
791.494
791.646
791.645
791.644
791.641
791.638
791.634
791.629
791.621
791.609
791.597
791.584
791.573
791.564
791.557
791.552
791.548
791.543
791.538
791.532
791.527
791.523
791.519
791.516
791.512
791.508
791.504
791.5
791.496
791.492
791.488
791.485
791.482
791.479
791.476
791.473
791.471
791.468
791.466
791.464
791.461
791.459
791.457
791.456
791.454
791.452
791.45
791.449
791.447
791.446
791.445
791.443
791.442
791.441
791.44
791.439
791.438
791.437
791.437
791.436
791.435
791.435
791.434
791.433
791.433
791.432
791.432
791.431
791.431
791.431
791.43
791.43
791.43
791.43
791.43
791.43
791.43
791.43
791.431
791.431
791.431
791.432
791.432
791.433
791.433
791.434
791.434
791.434
791.435
791.435
791.436
791.436
791.437
791.437
791.438
791.439
791.44
791.441
791.441
791.442
791.443
791.444
791.445
791.445
791.446
791.447
791.448
791.449
791.45
791.451
791.452
791.453
791.454
791.455
791.456
791.458
791.459
791.46
791.462
791.464
791.465
791.467
791.468
791.47
791.471
791.473
791.474
791.475
791.477
791.478
791.479
791.481
791.482
791.484
791.485
791.487
791.488
791.49
791.491
791.493
791.494
791.496
791.497
791.498
791.5
791.501
791.503
791.504
791.506
791.507
791.507
791.508
791.509
791.51
791.511
791.511
791.512
791.513
791.513
791.511
791.51
791.51
791.512
791.514
791.513
791.51
791.504
791.495
791.484
791.474
791.465
791.458
791.455
791.451
791.456
791.454
791.464
791.464
791.472
791.476
791.479
791.486
791.487
791.492
791.491
791.493
791.492
791.491
791.494
791.49
791.494
791.491
791.492
791.493
791.492
791.495
791.495
791.496
791.496
791.499
791.499
791.695
791.728
791.764
791.796
791.822
791.844
791.86
791.873
791.882
791.89
791.895
791.898
791.9
791.9
791.9
791.899
791.897
791.894
791.891
791.888
791.884
791.881
791.877
791.874
791.871
791.868
791.864
791.862
791.859
791.856
791.853
791.851
791.848
791.845
791.843
791.841
791.839
791.837
791.834
791.832
791.83
791.828
791.827
791.825
791.824
791.823
791.821
791.82
791.819
791.818
791.816
791.815
791.813
791.811
791.81
791.809
791.807
791.807
791.806
791.805
791.804
791.803
791.802
791.802
791.802
791.802
791.802
791.802
791.802
791.801
791.801
791.8
791.8
791.799
791.799
791.798
791.798
791.799
791.799
791.799
791.799
791.799
791.799
791.799
791.799
791.799
791.799
791.799
791.8
791.8
791.8
791.801
791.801
791.801
791.802
791.802
791.803
791.804
791.806
791.807
791.808
791.81
791.811
791.811
791.812
791.813
791.813
791.814
791.815
791.815
791.816
791.816
791.816
791.816
791.815
791.815
791.814
791.814
791.814
791.813
791.812
791.811
791.81
791.809
791.808
791.806
791.804
791.802
791.8
791.797
791.794
791.79
791.786
791.783
791.78
791.777
791.775
791.772
791.768
791.764
791.759
791.753
791.745
791.738
791.73
791.722
791.715
791.708
791.704
791.701
791.699
791.698
791.696
791.691
791.684
791.672
791.656
791.637
791.617
791.595
791.572
791.548
791.525
791.504
791.484
791.469
791.453
791.442
791.429
791.422
791.415
791.414
791.409
791.411
791.408
791.414
791.414
791.428
791.433
791.454
791.459
791.481
791.481
791.499
791.494
791.507
791.501
791.511
791.502
791.511
791.502
791.51
791.502
791.509
791.502
791.508
791.501
791.507
791.502
791.506
791.592
791.579
791.563
791.548
791.534
791.523
791.514
791.506
791.498
791.49
791.481
791.471
791.461
791.452
791.443
791.434
791.426
791.417
791.409
791.401
791.393
791.385
791.378
791.371
791.365
791.359
791.353
791.347
791.342
791.337
791.332
791.328
791.323
791.318
791.314
791.31
791.306
791.303
791.299
791.296
791.294
791.291
791.289
791.286
791.284
791.282
791.28
791.279
791.277
791.276
791.274
791.273
791.272
791.271
791.27
791.269
791.268
791.267
791.266
791.266
791.265
791.264
791.264
791.263
791.263
791.263
791.263
791.263
791.263
791.263
791.263
791.263
791.263
791.263
791.263
791.263
791.264
791.264
791.264
791.265
791.265
791.266
791.266
791.267
791.267
791.268
791.268
791.269
791.269
791.27
791.271
791.271
791.272
791.273
791.275
791.276
791.277
791.277
791.278
791.279
791.279
791.28
791.281
791.282
791.283
791.284
791.285
791.287
791.288
791.289
791.29
791.291
791.292
791.293
791.294
791.295
791.297
791.298
791.299
791.301
791.302
791.304
791.305
791.307
791.308
791.309
791.31
791.31
791.311
791.312
791.314
791.315
791.316
791.318
791.319
791.32
791.321
791.322
791.323
791.324
791.325
791.326
791.327
791.327
791.328
791.329
791.33
791.332
791.332
791.333
791.333
791.334
791.334
791.334
791.333
791.331
791.331
791.332
791.334
791.334
791.334
791.335
791.336
791.338
791.341
791.343
791.345
791.345
791.345
791.349
791.357
791.371
791.386
791.392
791.392
791.385
791.358
791.328
791.313
791.314
791.326
791.363
791.384
791.422
791.434
791.461
791.466
791.483
791.484
791.495
791.493
791.502
791.497
791.505
791.499
791.505
791.5
791.503
791.503
791.505
791.573
791.598
791.623
791.656
791.694
791.731
791.764
791.793
791.816
791.835
791.851
791.863
791.873
791.88
791.885
791.887
791.888
791.887
791.884
791.881
791.878
791.874
791.871
791.867
791.864
791.86
791.857
791.854
791.851
791.848
791.845
791.842
791.839
791.836
791.834
791.831
791.829
791.827
791.824
791.822
791.819
791.817
791.815
791.813
791.812
791.811
791.81
791.809
791.808
791.806
791.804
791.802
791.8
791.798
791.796
791.795
791.793
791.791
791.79
791.788
791.786
791.785
791.783
791.781
791.78
791.779
791.778
791.777
791.776
791.775
791.773
791.771
791.769
791.767
791.766
791.764
791.763
791.762
791.761
791.76
791.759
791.758
791.756
791.755
791.753
791.752
791.751
791.751
791.75
791.75
791.75
791.749
791.748
791.748
791.747
791.747
791.748
791.749
791.75
791.752
791.754
791.756
791.758
791.76
791.762
791.763