/*--------------------------------*- C++ -*----------------------------------*\
| =========                 |                                                 |
| \\      /  F ield         | OpenFOAM: The Open Source CFD Toolbox           |
|  \\    /   O peration     | Version:  3.0.x                                 |
|   \\  /    A nd           | Web:      www.OpenFOAM.org                      |
|    \\/     M anipulation  |                                                 |
\*---------------------------------------------------------------------------*/
FoamFile
{
    version     2.0;
    format      ascii;
    class       volVectorField;
    location    "0.42";
    object      U;
}
// * * * * * * * * * * * * * * * * * * * * * * * * * * * * * * * * * * * * * //

dimensions      [0 1 -1 0 0 0 0];

internalField   nonuniform List<vector> 
27600
(
(42.6981 0.000129712 0)
(42.6963 0.000119187 0)
(42.6945 0.000117666 0)
(42.6926 0.000120458 0)
(42.6907 0.000122875 0)
(42.6888 0.000124754 0)
(42.6869 0.000126344 0)
(42.685 0.000127701 0)
(42.6832 0.000128853 0)
(42.6813 0.000129834 0)
(42.6794 0.000130673 0)
(42.6775 0.000131396 0)
(42.6756 0.000132021 0)
(42.6738 0.000132565 0)
(42.6719 0.000133036 0)
(42.67 0.000133448 0)
(42.6681 0.000133809 0)
(42.6662 0.000134125 0)
(42.6644 0.000134403 0)
(42.6625 0.000134647 0)
(42.6606 0.000134862 0)
(42.6587 0.000135052 0)
(42.6568 0.00013522 0)
(42.655 0.000135367 0)
(42.6531 0.000135498 0)
(42.6512 0.000135613 0)
(42.6493 0.000135715 0)
(42.6475 0.000135805 0)
(42.6456 0.000135884 0)
(42.6437 0.000135954 0)
(42.6418 0.000136016 0)
(42.64 0.00013607 0)
(42.6381 0.000136117 0)
(42.6362 0.000136159 0)
(42.6343 0.000136195 0)
(42.6325 0.000136226 0)
(42.6306 0.000136253 0)
(42.6287 0.000136277 0)
(42.6268 0.000136297 0)
(42.625 0.000136313 0)
(42.6231 0.000136327 0)
(42.6212 0.000136337 0)
(42.6194 0.000136345 0)
(42.6175 0.00013635 0)
(42.6156 0.000136365 0)
(42.6137 0.000136368 0)
(42.6119 0.000136359 0)
(42.61 0.000136363 0)
(42.6081 0.000136362 0)
(42.6063 0.00013636 0)
(42.6044 0.000136358 0)
(42.6025 0.000136353 0)
(42.6007 0.000136347 0)
(42.5988 0.000136346 0)
(42.5969 0.000136333 0)
(42.5951 0.000136329 0)
(42.5932 0.000136323 0)
(42.5913 0.000136316 0)
(42.5895 0.000136309 0)
(42.5876 0.000136301 0)
(42.5857 0.000136292 0)
(42.5839 0.000136276 0)
(42.582 0.00013628 0)
(42.5801 0.000136363 0)
(42.5783 0.000136195 0)
(42.5764 0.000136257 0)
(42.5745 0.000136253 0)
(42.5727 0.000136246 0)
(42.5708 0.00013624 0)
(42.569 0.000136233 0)
(42.5671 0.000136225 0)
(42.5652 0.000136218 0)
(42.5634 0.00013621 0)
(42.5615 0.000136203 0)
(42.5596 0.000136196 0)
(42.5578 0.000136184 0)
(42.5559 0.00013617 0)
(42.554 0.000136168 0)
(42.5522 0.000136156 0)
(42.5503 0.000136146 0)
(42.5485 0.000136135 0)
(42.5466 0.000136125 0)
(42.5447 0.000136115 0)
(42.5429 0.000136096 0)
(42.541 0.000136092 0)
(42.5391 0.000136117 0)
(42.5373 0.00013606 0)
(42.5354 0.000136067 0)
(42.5336 0.000136059 0)
(42.5317 0.000136051 0)
(42.5298 0.000136043 0)
(42.528 0.000136034 0)
(42.5261 0.000136026 0)
(42.5242 0.000136012 0)
(42.5224 0.000136001 0)
(42.5205 0.000136104 0)
(42.5186 0.000135919 0)
(42.5168 0.000135978 0)
(42.5149 0.000135976 0)
(42.513 0.000135967 0)
(42.5112 0.000135956 0)
(42.5093 0.000135943 0)
(42.5075 0.000135928 0)
(42.5056 0.000135911 0)
(42.5037 0.000135889 0)
(42.5019 0.000135862 0)
(42.5 0.000135833 0)
(42.4981 0.000135793 0)
(42.4963 0.000135735 0)
(42.4944 0.000135584 0)
(42.4925 0.000135637 0)
(42.4907 0.000135474 0)
(42.4888 0.000135339 0)
(42.487 0.000135173 0)
(42.4851 0.000134969 0)
(42.4833 0.000134718 0)
(42.4814 0.000134396 0)
(42.4796 0.000134034 0)
(42.4777 0.00013366 0)
(42.4759 0.000133076 0)
(42.4741 0.000132447 0)
(42.4723 0.000131724 0)
(42.4704 0.00013087 0)
(42.4687 0.000129879 0)
(42.4669 0.00012874 0)
(42.4651 0.000127439 0)
(42.4634 0.000125963 0)
(42.4617 0.000124302 0)
(42.46 0.000122445 0)
(42.4583 0.000120385 0)
(42.4567 0.000118114 0)
(42.4551 0.00011563 0)
(42.4535 0.00011293 0)
(42.452 0.000110018 0)
(42.4505 0.000106896 0)
(42.449 0.000103574 0)
(42.4476 0.000100062 0)
(42.4463 9.63738e-05 0)
(42.445 9.25273e-05 0)
(42.4438 8.8542e-05 0)
(42.4426 8.44399e-05 0)
(42.4414 8.02451e-05 0)
(42.4404 7.59834e-05 0)
(42.4394 7.16813e-05 0)
(42.4384 6.73663e-05 0)
(42.4375 6.30658e-05 0)
(42.4367 5.88065e-05 0)
(42.4359 5.46149e-05 0)
(42.4352 5.05143e-05 0)
(42.4345 4.65263e-05 0)
(42.4339 4.26759e-05 0)
(42.4334 3.89772e-05 0)
(42.4329 3.54465e-05 0)
(42.4324 3.20962e-05 0)
(42.432 2.89361e-05 0)
(42.4316 2.59728e-05 0)
(42.4313 2.32103e-05 0)
(42.431 2.065e-05 0)
(42.4307 1.82907e-05 0)
(42.4305 1.61291e-05 0)
(42.4303 1.41599e-05 0)
(42.4301 1.23761e-05 0)
(42.4299 1.07693e-05 0)
(42.4298 9.32995e-06 0)
(42.4296 8.04781e-06 0)
(42.4295 6.91194e-06 0)
(42.4294 5.91106e-06 0)
(42.4294 5.03417e-06 0)
(42.4293 4.27008e-06 0)
(42.4292 3.60732e-06 0)
(42.4292 3.03596e-06 0)
(42.4291 2.54591e-06 0)
(42.4291 2.12779e-06 0)
(42.4291 1.7729e-06 0)
(42.429 1.47325e-06 0)
(42.429 1.22154e-06 0)
(42.429 1.01119e-06 0)
(42.429 8.36295e-07 0)
(42.429 6.91619e-07 0)
(42.4289 5.72535e-07 0)
(42.4289 4.7501e-07 0)
(42.4289 3.95544e-07 0)
(42.4289 3.31113e-07 0)
(42.4289 2.79122e-07 0)
(42.4289 2.37377e-07 0)
(42.4289 2.04027e-07 0)
(42.4289 1.77507e-07 0)
(42.4288 1.56525e-07 0)
(42.4288 1.39998e-07 0)
(42.4288 1.27049e-07 0)
(42.4288 1.16941e-07 0)
(42.4288 1.09101e-07 0)
(42.4288 1.0305e-07 0)
(42.4288 9.83914e-08 0)
(42.4288 9.48294e-08 0)
(42.4288 9.2115e-08 0)
(42.4288 9.00606e-08 0)
(42.4288 8.85174e-08 0)
(42.4287 8.73575e-08 0)
(42.4287 8.64901e-08 0)
(42.4287 8.58545e-08 0)
(42.4287 8.53896e-08 0)
(42.4287 8.50504e-08 0)
(42.4287 8.48033e-08 0)
(42.4287 8.46325e-08 0)
(42.4287 8.45168e-08 0)
(42.4286 8.44413e-08 0)
(42.4286 8.43897e-08 0)
(42.4286 8.43616e-08 0)
(42.4286 8.43551e-08 0)
(42.4286 8.43557e-08 0)
(42.4286 8.43749e-08 0)
(42.4285 8.43919e-08 0)
(42.4285 8.44187e-08 0)
(42.4285 8.44531e-08 0)
(42.4285 8.44892e-08 0)
(42.4285 8.45243e-08 0)
(42.4284 8.45725e-08 0)
(42.4284 8.45988e-08 0)
(42.4284 8.46522e-08 0)
(42.4283 8.47079e-08 0)
(42.4283 8.47644e-08 0)
(42.4283 8.48216e-08 0)
(42.4282 8.48856e-08 0)
(42.4282 8.49455e-08 0)
(42.4282 8.502e-08 0)
(42.4281 8.5088e-08 0)
(42.4281 8.51678e-08 0)
(42.428 8.52502e-08 0)
(42.428 8.53322e-08 0)
(42.4279 8.54257e-08 0)
(42.4279 8.55197e-08 0)
(42.4278 8.56132e-08 0)
(42.4278 8.5714e-08 0)
(42.4277 8.58177e-08 0)
(42.4277 8.59288e-08 0)
(42.4276 8.60405e-08 0)
(42.4275 8.61594e-08 0)
(42.4274 8.6289e-08 0)
(42.4274 8.6419e-08 0)
(42.4273 8.6557e-08 0)
(42.4272 8.66994e-08 0)
(42.4271 8.68492e-08 0)
(42.427 8.70114e-08 0)
(42.4269 8.71758e-08 0)
(42.4268 8.73517e-08 0)
(42.4267 8.7531e-08 0)
(42.4265 8.77187e-08 0)
(42.4264 8.79231e-08 0)
(42.4263 8.81326e-08 0)
(42.4261 8.83546e-08 0)
(42.426 8.85853e-08 0)
(42.4258 8.8822e-08 0)
(42.4257 8.90766e-08 0)
(42.4255 8.93377e-08 0)
(42.4253 8.96076e-08 0)
(42.4252 8.98953e-08 0)
(42.425 9.01951e-08 0)
(42.4248 9.05073e-08 0)
(42.4246 9.08362e-08 0)
(42.4243 9.11748e-08 0)
(42.4241 9.15246e-08 0)
(42.4239 9.18851e-08 0)
(42.4236 9.22632e-08 0)
(42.4233 9.26542e-08 0)
(42.4231 9.3064e-08 0)
(42.4228 9.34884e-08 0)
(42.4225 9.39285e-08 0)
(42.4222 9.4388e-08 0)
(42.4219 9.48655e-08 0)
(42.4215 9.53575e-08 0)
(42.4212 9.58726e-08 0)
(42.4208 9.63975e-08 0)
(42.4204 9.69447e-08 0)
(42.42 9.75148e-08 0)
(42.4196 9.81034e-08 0)
(42.4192 9.87144e-08 0)
(42.4187 9.935e-08 0)
(42.4183 1.00005e-07 0)
(42.4178 1.00685e-07 0)
(42.4173 1.01386e-07 0)
(42.4167 1.0211e-07 0)
(42.4162 1.02861e-07 0)
(42.4156 1.03634e-07 0)
(42.415 1.04438e-07 0)
(42.4144 1.05269e-07 0)
(42.4138 1.06127e-07 0)
(42.4131 1.07012e-07 0)
(42.4125 1.0792e-07 0)
(42.4117 1.08859e-07 0)
(42.411 1.09828e-07 0)
(42.4102 1.10828e-07 0)
(42.4095 1.11858e-07 0)
(42.4086 1.12918e-07 0)
(42.4078 1.14011e-07 0)
(42.4069 1.15132e-07 0)
(42.406 1.16293e-07 0)
(42.4051 1.17484e-07 0)
(42.4041 1.18711e-07 0)
(42.4031 1.1997e-07 0)
(42.4021 1.21265e-07 0)
(42.401 1.22601e-07 0)
(42.3999 1.23972e-07 0)
(42.3987 1.25382e-07 0)
(42.3975 1.26822e-07 0)
(42.3963 1.28311e-07 0)
(42.395 1.29834e-07 0)
(42.3937 1.31391e-07 0)
(42.3924 1.32994e-07 0)
(42.391 1.34635e-07 0)
(42.3895 1.36321e-07 0)
(42.388 1.38041e-07 0)
(42.3865 1.39812e-07 0)
(42.3849 1.41623e-07 0)
(42.3833 1.4348e-07 0)
(42.3816 1.45377e-07 0)
(42.3799 1.47321e-07 0)
(42.3781 1.4931e-07 0)
(42.3762 1.51344e-07 0)
(42.3743 1.53423e-07 0)
(42.3724 1.55547e-07 0)
(42.3704 1.57719e-07 0)
(42.3683 1.59942e-07 0)
(42.3662 1.62207e-07 0)
(42.364 1.64526e-07 0)
(42.3618 1.66897e-07 0)
(42.3594 1.69314e-07 0)
(42.3571 1.71782e-07 0)
(42.3546 1.74294e-07 0)
(42.3521 1.76862e-07 0)
(42.3495 1.79484e-07 0)
(42.3469 1.82147e-07 0)
(42.3441 1.84867e-07 0)
(42.3413 1.87635e-07 0)
(42.3385 1.90463e-07 0)
(42.3355 1.93336e-07 0)
(42.3325 1.96263e-07 0)
(42.3294 1.99241e-07 0)
(42.3262 2.02274e-07 0)
(42.3229 2.05359e-07 0)
(42.3196 2.08495e-07 0)
(42.3162 2.11677e-07 0)
(42.3126 2.14919e-07 0)
(42.309 2.18214e-07 0)
(42.3054 2.21553e-07 0)
(42.3016 2.24954e-07 0)
(42.2977 2.28403e-07 0)
(42.2937 2.31907e-07 0)
(42.2897 2.35466e-07 0)
(42.2855 2.39073e-07 0)
(42.2813 2.42739e-07 0)
(42.2769 2.46452e-07 0)
(42.2724 2.50216e-07 0)
(42.2679 2.54038e-07 0)
(42.2632 2.57915e-07 0)
(42.2585 2.6184e-07 0)
(42.2536 2.65816e-07 0)
(42.2486 2.69843e-07 0)
(42.2435 2.73921e-07 0)
(42.2383 2.78053e-07 0)
(42.233 2.82234e-07 0)
(42.2276 2.86472e-07 0)
(42.2221 2.90756e-07 0)
(42.2164 2.95086e-07 0)
(42.2107 2.99472e-07 0)
(42.2048 3.03904e-07 0)
(42.1988 3.08381e-07 0)
(42.1927 3.12911e-07 0)
(42.1864 3.17492e-07 0)
(42.18 3.22115e-07 0)
(42.1735 3.2678e-07 0)
(42.1669 3.31496e-07 0)
(42.1601 3.36265e-07 0)
(42.1533 3.41078e-07 0)
(42.1462 3.45954e-07 0)
(42.1391 3.5091e-07 0)
(42.1318 3.55984e-07 0)
(42.1244 3.61299e-07 0)
(42.1168 3.67124e-07 0)
(42.1091 3.74111e-07 0)
(42.1013 3.83831e-07 0)
(42.0933 4.0013e-07 0)
(42.0852 4.32209e-07 0)
(42.077 5.02632e-07 0)
(42.0685 6.66391e-07 0)
(42.06 1.05608e-06 0)
(42.0513 1.98875e-06 0)
(42.0424 4.22024e-06 0)
(42.0332 9.55451e-06 0)
(42.0237 2.22998e-05 0)
(42.0134 5.27419e-05 0)
(42.0018 0.000125412 0)
(41.9869 0.000298724 0)
(41.9644 0.000711411 0)
(41.9244 0.00169181 0)
(41.8429 0.00401433 0)
(41.6638 0.00951239 0)
(41.2535 0.0227102 0)
(40.3526 0.0571517 0)
(36.7384 0.157958 0)
(42.7001 0.000208894 0)
(42.7002 0.000168673 0)
(42.7003 0.000152642 0)
(42.7004 0.000150639 0)
(42.7004 0.00014918 0)
(42.7005 0.000147462 0)
(42.7006 0.000146047 0)
(42.7006 0.000144911 0)
(42.7007 0.000143948 0)
(42.7008 0.000143117 0)
(42.7009 0.0001424 0)
(42.7009 0.000141778 0)
(42.701 0.000141235 0)
(42.7011 0.000140765 0)
(42.7011 0.00014035 0)
(42.7012 0.000139986 0)
(42.7013 0.000139665 0)
(42.7014 0.000139383 0)
(42.7014 0.000139133 0)
(42.7015 0.000138912 0)
(42.7016 0.000138716 0)
(42.7016 0.000138543 0)
(42.7017 0.000138389 0)
(42.7018 0.000138253 0)
(42.7019 0.000138132 0)
(42.7019 0.000138024 0)
(42.702 0.000137928 0)
(42.7021 0.000137843 0)
(42.7021 0.000137767 0)
(42.7022 0.0001377 0)
(42.7023 0.000137641 0)
(42.7024 0.000137588 0)
(42.7024 0.000137541 0)
(42.7025 0.000137499 0)
(42.7026 0.000137463 0)
(42.7027 0.000137431 0)
(42.7027 0.000137402 0)
(42.7028 0.000137375 0)
(42.7029 0.000137355 0)
(42.703 0.000137335 0)
(42.703 0.000137317 0)
(42.7031 0.000137301 0)
(42.7032 0.000137285 0)
(42.7033 0.00013727 0)
(42.7033 0.000137275 0)
(42.7034 0.000137271 0)
(42.7035 0.000137241 0)
(42.7036 0.000137242 0)
(42.7037 0.000137237 0)
(42.7037 0.000137232 0)
(42.7038 0.000137229 0)
(42.7039 0.000137225 0)
(42.704 0.00013722 0)
(42.704 0.000137221 0)
(42.7041 0.000137212 0)
(42.7042 0.000137215 0)
(42.7043 0.000137215 0)
(42.7044 0.000137215 0)
(42.7044 0.000137216 0)
(42.7045 0.000137216 0)
(42.7046 0.000137214 0)
(42.7047 0.000137202 0)
(42.7047 0.000137225 0)
(42.7048 0.000137384 0)
(42.7049 0.000137102 0)
(42.705 0.000137231 0)
(42.7051 0.000137242 0)
(42.7052 0.000137247 0)
(42.7052 0.000137253 0)
(42.7053 0.000137258 0)
(42.7054 0.000137264 0)
(42.7055 0.000137269 0)
(42.7055 0.000137274 0)
(42.7056 0.000137282 0)
(42.7057 0.000137289 0)
(42.7058 0.000137289 0)
(42.7059 0.000137284 0)
(42.7059 0.0001373 0)
(42.706 0.0001373 0)
(42.7061 0.000137304 0)
(42.7062 0.000137308 0)
(42.7063 0.000137311 0)
(42.7063 0.000137314 0)
(42.7064 0.000137303 0)
(42.7065 0.000137319 0)
(42.7066 0.000137381 0)
(42.7067 0.000137302 0)
(42.7067 0.000137337 0)
(42.7068 0.000137344 0)
(42.7069 0.00013735 0)
(42.707 0.000137356 0)
(42.707 0.000137362 0)
(42.7071 0.000137367 0)
(42.7072 0.000137364 0)
(42.7073 0.000137365 0)
(42.7074 0.000137565 0)
(42.7074 0.000137254 0)
(42.7075 0.000137388 0)
(42.7076 0.000137405 0)
(42.7077 0.000137409 0)
(42.7077 0.000137412 0)
(42.7078 0.000137413 0)
(42.7079 0.000137411 0)
(42.708 0.000137406 0)
(42.708 0.000137397 0)
(42.7081 0.000137382 0)
(42.7082 0.000137368 0)
(42.7083 0.00013734 0)
(42.7083 0.000137289 0)
(42.7084 0.000137077 0)
(42.7085 0.000137249 0)
(42.7085 0.000137041 0)
(42.7086 0.000136902 0)
(42.7087 0.000136732 0)
(42.7088 0.00013652 0)
(42.7088 0.000136256 0)
(42.7089 0.0001359 0)
(42.709 0.000135521 0)
(42.709 0.000135162 0)
(42.7091 0.000134485 0)
(42.7092 0.000133821 0)
(42.7093 0.00013305 0)
(42.7093 0.00013213 0)
(42.7094 0.000131065 0)
(42.7095 0.000129841 0)
(42.7095 0.000128444 0)
(42.7096 0.000126864 0)
(42.7097 0.000125088 0)
(42.7097 0.000123107 0)
(42.7098 0.000120913 0)
(42.7099 0.000118502 0)
(42.7099 0.00011587 0)
(42.71 0.000113018 0)
(42.7101 0.000109949 0)
(42.7101 0.00010667 0)
(42.7102 0.000103191 0)
(42.7102 9.95237e-05 0)
(42.7103 9.56853e-05 0)
(42.7104 9.16947e-05 0)
(42.7104 8.75735e-05 0)
(42.7105 8.33456e-05 0)
(42.7105 7.90368e-05 0)
(42.7106 7.46742e-05 0)
(42.7106 7.02857e-05 0)
(42.7107 6.58994e-05 0)
(42.7107 6.15432e-05 0)
(42.7107 5.72443e-05 0)
(42.7108 5.30292e-05 0)
(42.7108 4.892e-05 0)
(42.7108 4.49371e-05 0)
(42.7109 4.11077e-05 0)
(42.7109 3.7442e-05 0)
(42.7109 3.39554e-05 0)
(42.7109 3.06592e-05 0)
(42.711 2.75616e-05 0)
(42.711 2.46676e-05 0)
(42.711 2.19798e-05 0)
(42.711 1.94978e-05 0)
(42.711 1.72192e-05 0)
(42.711 1.51393e-05 0)
(42.711 1.32513e-05 0)
(42.711 1.15475e-05 0)
(42.711 1.00184e-05 0)
(42.711 8.65373e-06 0)
(42.711 7.44252e-06 0)
(42.711 6.37341e-06 0)
(42.711 5.43465e-06 0)
(42.711 4.61555e-06 0)
(42.711 3.90426e-06 0)
(42.711 3.28938e-06 0)
(42.711 2.76132e-06 0)
(42.711 2.31005e-06 0)
(42.711 1.9264e-06 0)
(42.711 1.60195e-06 0)
(42.711 1.32899e-06 0)
(42.711 1.10053e-06 0)
(42.711 9.1029e-07 0)
(42.711 7.52683e-07 0)
(42.7109 6.22777e-07 0)
(42.7109 5.16245e-07 0)
(42.7109 4.2931e-07 0)
(42.7109 3.58722e-07 0)
(42.7109 3.01693e-07 0)
(42.7109 2.55844e-07 0)
(42.7109 2.19158e-07 0)
(42.7109 1.89959e-07 0)
(42.7109 1.66824e-07 0)
(42.7109 1.48583e-07 0)
(42.7109 1.34275e-07 0)
(42.7108 1.23097e-07 0)
(42.7108 1.14418e-07 0)
(42.7108 1.077e-07 0)
(42.7108 1.02533e-07 0)
(42.7108 9.85844e-08 0)
(42.7108 9.55673e-08 0)
(42.7108 9.32877e-08 0)
(42.7108 9.15673e-08 0)
(42.7108 9.02828e-08 0)
(42.7108 8.93278e-08 0)
(42.7107 8.86239e-08 0)
(42.7107 8.81049e-08 0)
(42.7107 8.77326e-08 0)
(42.7107 8.74714e-08 0)
(42.7107 8.72943e-08 0)
(42.7107 8.71734e-08 0)
(42.7107 8.70954e-08 0)
(42.7107 8.70528e-08 0)
(42.7106 8.70403e-08 0)
(42.7106 8.70437e-08 0)
(42.7106 8.70635e-08 0)
(42.7106 8.70933e-08 0)
(42.7106 8.71332e-08 0)
(42.7105 8.71792e-08 0)
(42.7105 8.72392e-08 0)
(42.7105 8.72955e-08 0)
(42.7105 8.73572e-08 0)
(42.7105 8.74275e-08 0)
(42.7104 8.75042e-08 0)
(42.7104 8.75873e-08 0)
(42.7104 8.76773e-08 0)
(42.7103 8.7768e-08 0)
(42.7103 8.78689e-08 0)
(42.7103 8.79683e-08 0)
(42.7102 8.80781e-08 0)
(42.7102 8.81918e-08 0)
(42.7102 8.83166e-08 0)
(42.7101 8.8446e-08 0)
(42.7101 8.85778e-08 0)
(42.71 8.87217e-08 0)
(42.71 8.88752e-08 0)
(42.7099 8.90359e-08 0)
(42.7099 8.91989e-08 0)
(42.7098 8.93726e-08 0)
(42.7098 8.95561e-08 0)
(42.7097 8.97439e-08 0)
(42.7096 8.99476e-08 0)
(42.7096 9.01579e-08 0)
(42.7095 9.03788e-08 0)
(42.7094 9.0602e-08 0)
(42.7093 9.08424e-08 0)
(42.7093 9.10901e-08 0)
(42.7092 9.13533e-08 0)
(42.7091 9.16274e-08 0)
(42.709 9.19134e-08 0)
(42.7089 9.22097e-08 0)
(42.7088 9.25196e-08 0)
(42.7086 9.28479e-08 0)
(42.7085 9.31939e-08 0)
(42.7084 9.35493e-08 0)
(42.7083 9.39238e-08 0)
(42.7081 9.43153e-08 0)
(42.708 9.47232e-08 0)
(42.7078 9.51508e-08 0)
(42.7077 9.55933e-08 0)
(42.7075 9.60545e-08 0)
(42.7073 9.65382e-08 0)
(42.7071 9.70391e-08 0)
(42.707 9.75595e-08 0)
(42.7067 9.80964e-08 0)
(42.7065 9.86519e-08 0)
(42.7063 9.92366e-08 0)
(42.7061 9.98427e-08 0)
(42.7058 1.00472e-07 0)
(42.7056 1.01126e-07 0)
(42.7053 1.01804e-07 0)
(42.7051 1.02503e-07 0)
(42.7048 1.03232e-07 0)
(42.7045 1.03987e-07 0)
(42.7042 1.04772e-07 0)
(42.7038 1.0558e-07 0)
(42.7035 1.06423e-07 0)
(42.7031 1.07296e-07 0)
(42.7028 1.082e-07 0)
(42.7024 1.09136e-07 0)
(42.702 1.10098e-07 0)
(42.7016 1.111e-07 0)
(42.7012 1.12131e-07 0)
(42.7007 1.13197e-07 0)
(42.7002 1.143e-07 0)
(42.6997 1.15443e-07 0)
(42.6992 1.16624e-07 0)
(42.6987 1.17839e-07 0)
(42.6982 1.19096e-07 0)
(42.6976 1.20394e-07 0)
(42.697 1.21731e-07 0)
(42.6964 1.23114e-07 0)
(42.6958 1.2453e-07 0)
(42.6951 1.25991e-07 0)
(42.6944 1.27504e-07 0)
(42.6937 1.29061e-07 0)
(42.693 1.30665e-07 0)
(42.6922 1.32311e-07 0)
(42.6914 1.3401e-07 0)
(42.6906 1.35756e-07 0)
(42.6898 1.3755e-07 0)
(42.6889 1.39402e-07 0)
(42.688 1.41298e-07 0)
(42.687 1.43247e-07 0)
(42.6861 1.45248e-07 0)
(42.6851 1.4731e-07 0)
(42.684 1.49425e-07 0)
(42.683 1.51595e-07 0)
(42.6818 1.53816e-07 0)
(42.6807 1.56095e-07 0)
(42.6795 1.58442e-07 0)
(42.6783 1.60838e-07 0)
(42.677 1.633e-07 0)
(42.6757 1.65823e-07 0)
(42.6743 1.68406e-07 0)
(42.6729 1.71057e-07 0)
(42.6715 1.7376e-07 0)
(42.67 1.76533e-07 0)
(42.6685 1.7937e-07 0)
(42.6669 1.82271e-07 0)
(42.6653 1.85238e-07 0)
(42.6636 1.88274e-07 0)
(42.6618 1.91374e-07 0)
(42.6601 1.94545e-07 0)
(42.6582 1.9778e-07 0)
(42.6563 2.01079e-07 0)
(42.6544 2.04456e-07 0)
(42.6524 2.07898e-07 0)
(42.6503 2.11416e-07 0)
(42.6482 2.15003e-07 0)
(42.646 2.18664e-07 0)
(42.6437 2.22396e-07 0)
(42.6414 2.26198e-07 0)
(42.639 2.30076e-07 0)
(42.6366 2.3403e-07 0)
(42.6341 2.38053e-07 0)
(42.6315 2.42152e-07 0)
(42.6289 2.46329e-07 0)
(42.6261 2.5058e-07 0)
(42.6233 2.54899e-07 0)
(42.6205 2.59298e-07 0)
(42.6175 2.63773e-07 0)
(42.6145 2.68321e-07 0)
(42.6114 2.72949e-07 0)
(42.6082 2.7765e-07 0)
(42.6049 2.82424e-07 0)
(42.6016 2.87279e-07 0)
(42.5982 2.92202e-07 0)
(42.5946 2.97201e-07 0)
(42.591 3.02281e-07 0)
(42.5873 3.07433e-07 0)
(42.5836 3.12657e-07 0)
(42.5797 3.17962e-07 0)
(42.5757 3.23337e-07 0)
(42.5717 3.28789e-07 0)
(42.5675 3.3432e-07 0)
(42.5632 3.39917e-07 0)
(42.5589 3.45593e-07 0)
(42.5544 3.51342e-07 0)
(42.5499 3.57164e-07 0)
(42.5452 3.63057e-07 0)
(42.5405 3.69022e-07 0)
(42.5356 3.7506e-07 0)
(42.5306 3.81175e-07 0)
(42.5255 3.87359e-07 0)
(42.5204 3.93617e-07 0)
(42.5151 3.9994e-07 0)
(42.5096 4.06331e-07 0)
(42.5041 4.12795e-07 0)
(42.4985 4.19328e-07 0)
(42.4927 4.25928e-07 0)
(42.4868 4.32592e-07 0)
(42.4808 4.39323e-07 0)
(42.4747 4.46118e-07 0)
(42.4684 4.52977e-07 0)
(42.4621 4.59903e-07 0)
(42.4556 4.66895e-07 0)
(42.4489 4.73946e-07 0)
(42.4422 4.81067e-07 0)
(42.4353 4.88275e-07 0)
(42.4283 4.95596e-07 0)
(42.4211 5.03099e-07 0)
(42.4138 5.10969e-07 0)
(42.4064 5.19622e-07 0)
(42.3989 5.3007e-07 0)
(42.3912 5.44729e-07 0)
(42.3833 5.69404e-07 0)
(42.3754 6.18054e-07 0)
(42.3673 7.2338e-07 0)
(42.359 9.63515e-07 0)
(42.3506 1.52559e-06 0)
(42.342 2.85819e-06 0)
(42.3333 6.03495e-06 0)
(42.3244 1.36217e-05 0)
(42.3152 3.17481e-05 0)
(42.3057 7.50546e-05 0)
(42.2955 0.000178494 0)
(42.2838 0.000425422 0)
(42.269 0.00101431 0)
(42.2466 0.0024164 0)
(42.2067 0.00574636 0)
(42.1256 0.0136295 0)
(41.9473 0.0322593 0)
(41.5393 0.0767657 0)
(40.6442 0.190964 0)
(37.2501 0.497961 0)
(42.7001 0.000149852 0)
(42.7002 0.000119674 0)
(42.7003 0.00010597 0)
(42.7003 0.0001084 0)
(42.7004 0.000110399 0)
(42.7005 0.00011097 0)
(42.7006 0.000111369 0)
(42.7006 0.000111789 0)
(42.7007 0.000112159 0)
(42.7008 0.000112469 0)
(42.7008 0.000112737 0)
(42.7009 0.000112974 0)
(42.701 0.000113174 0)
(42.7011 0.00011336 0)
(42.7011 0.000113522 0)
(42.7012 0.000113665 0)
(42.7013 0.000113794 0)
(42.7013 0.000113909 0)
(42.7014 0.000114009 0)
(42.7015 0.000114102 0)
(42.7016 0.000114184 0)
(42.7016 0.000114259 0)
(42.7017 0.000114326 0)
(42.7018 0.000114387 0)
(42.7019 0.000114441 0)
(42.7019 0.000114491 0)
(42.702 0.000114536 0)
(42.7021 0.000114577 0)
(42.7022 0.000114615 0)
(42.7022 0.000114649 0)
(42.7023 0.00011468 0)
(42.7024 0.000114708 0)
(42.7025 0.000114734 0)
(42.7025 0.000114757 0)
(42.7026 0.000114781 0)
(42.7027 0.000114801 0)
(42.7028 0.000114822 0)
(42.7029 0.000114833 0)
(42.7029 0.000114852 0)
(42.703 0.000114867 0)
(42.7031 0.00011488 0)
(42.7032 0.000114891 0)
(42.7033 0.000114902 0)
(42.7033 0.000114911 0)
(42.7034 0.000114922 0)
(42.7035 0.000114954 0)
(42.7036 0.000114938 0)
(42.7037 0.000114951 0)
(42.7037 0.000114959 0)
(42.7038 0.000114966 0)
(42.7039 0.000114974 0)
(42.704 0.000114981 0)
(42.7041 0.000114985 0)
(42.7042 0.000114986 0)
(42.7042 0.000114998 0)
(42.7043 0.000115003 0)
(42.7044 0.000115008 0)
(42.7045 0.000115013 0)
(42.7046 0.000115018 0)
(42.7047 0.000115024 0)
(42.7047 0.000115026 0)
(42.7048 0.000115024 0)
(42.7049 0.000115046 0)
(42.705 0.000115164 0)
(42.7051 0.000114956 0)
(42.7052 0.000115053 0)
(42.7052 0.000115067 0)
(42.7053 0.000115075 0)
(42.7054 0.000115081 0)
(42.7055 0.000115088 0)
(42.7056 0.000115095 0)
(42.7057 0.000115101 0)
(42.7058 0.000115107 0)
(42.7058 0.000115117 0)
(42.7059 0.000115124 0)
(42.706 0.000115126 0)
(42.7061 0.00011512 0)
(42.7062 0.000115135 0)
(42.7063 0.000115138 0)
(42.7064 0.000115143 0)
(42.7065 0.000115147 0)
(42.7065 0.000115151 0)
(42.7066 0.000115155 0)
(42.7067 0.000115149 0)
(42.7068 0.000115164 0)
(42.7069 0.000115208 0)
(42.707 0.000115152 0)
(42.7071 0.000115179 0)
(42.7071 0.000115187 0)
(42.7072 0.000115193 0)
(42.7073 0.000115199 0)
(42.7074 0.000115205 0)
(42.7075 0.00011521 0)
(42.7076 0.00011521 0)
(42.7076 0.000115217 0)
(42.7077 0.000115363 0)
(42.7078 0.000115128 0)
(42.7079 0.000115232 0)
(42.708 0.000115248 0)
(42.7081 0.000115251 0)
(42.7082 0.000115254 0)
(42.7082 0.000115256 0)
(42.7083 0.000115255 0)
(42.7084 0.000115251 0)
(42.7085 0.000115244 0)
(42.7086 0.000115232 0)
(42.7087 0.00011522 0)
(42.7087 0.000115196 0)
(42.7088 0.000115149 0)
(42.7089 0.000114976 0)
(42.709 0.000115114 0)
(42.7091 0.000114942 0)
(42.7091 0.00011482 0)
(42.7092 0.000114675 0)
(42.7093 0.000114492 0)
(42.7094 0.000114265 0)
(42.7095 0.000113963 0)
(42.7095 0.00011364 0)
(42.7096 0.000113317 0)
(42.7097 0.000112738 0)
(42.7098 0.000112179 0)
(42.7099 0.000111516 0)
(42.7099 0.000110725 0)
(42.71 0.000109813 0)
(42.7101 0.000108766 0)
(42.7102 0.000107573 0)
(42.7102 0.000106223 0)
(42.7103 0.000104707 0)
(42.7104 0.000103018 0)
(42.7104 0.00010115 0)
(42.7105 9.90978e-05 0)
(42.7106 9.68602e-05 0)
(42.7106 9.44377e-05 0)
(42.7107 9.18336e-05 0)
(42.7108 8.90537e-05 0)
(42.7108 8.61067e-05 0)
(42.7109 8.3004e-05 0)
(42.7109 7.97598e-05 0)
(42.711 7.63903e-05 0)
(42.711 7.29142e-05 0)
(42.7111 6.93518e-05 0)
(42.7111 6.57252e-05 0)
(42.7111 6.20571e-05 0)
(42.7112 5.83712e-05 0)
(42.7112 5.46911e-05 0)
(42.7112 5.10401e-05 0)
(42.7112 4.74411e-05 0)
(42.7113 4.3916e-05 0)
(42.7113 4.0483e-05 0)
(42.7113 3.71595e-05 0)
(42.7113 3.39671e-05 0)
(42.7113 3.09145e-05 0)
(42.7113 2.80142e-05 0)
(42.7113 2.52752e-05 0)
(42.7114 2.27038e-05 0)
(42.7114 2.0304e-05 0)
(42.7114 1.80775e-05 0)
(42.7114 1.60235e-05 0)
(42.7114 1.41398e-05 0)
(42.7114 1.24221e-05 0)
(42.7114 1.08644e-05 0)
(42.7114 9.46009e-06 0)
(42.7113 8.20097e-06 0)
(42.7113 7.07831e-06 0)
(42.7113 6.08288e-06 0)
(42.7113 5.20506e-06 0)
(42.7113 4.43493e-06 0)
(42.7113 3.76374e-06 0)
(42.7113 3.1812e-06 0)
(42.7113 2.6782e-06 0)
(42.7113 2.24659e-06 0)
(42.7113 1.87806e-06 0)
(42.7113 1.56503e-06 0)
(42.7113 1.30052e-06 0)
(42.7113 1.07818e-06 0)
(42.7112 8.92239e-07 0)
(42.7112 7.37535e-07 0)
(42.7112 6.09475e-07 0)
(42.7112 5.04003e-07 0)
(42.7112 4.17575e-07 0)
(42.7112 3.47105e-07 0)
(42.7112 2.89929e-07 0)
(42.7112 2.43774e-07 0)
(42.7112 2.06695e-07 0)
(42.7112 1.77053e-07 0)
(42.7112 1.53471e-07 0)
(42.7111 1.34807e-07 0)
(42.7111 1.20101e-07 0)
(42.7111 1.08569e-07 0)
(42.7111 9.95759e-08 0)
(42.7111 9.25892e-08 0)
(42.7111 8.71944e-08 0)
(42.7111 8.30437e-08 0)
(42.7111 7.98679e-08 0)
(42.7111 7.74535e-08 0)
(42.7111 7.56299e-08 0)
(42.7111 7.4251e-08 0)
(42.711 7.32237e-08 0)
(42.711 7.24566e-08 0)
(42.711 7.18921e-08 0)
(42.711 7.14853e-08 0)
(42.711 7.11897e-08 0)
(42.711 7.09825e-08 0)
(42.711 7.08352e-08 0)
(42.711 7.07409e-08 0)
(42.7109 7.06811e-08 0)
(42.7109 7.06527e-08 0)
(42.7109 7.06389e-08 0)
(42.7109 7.0642e-08 0)
(42.7109 7.06602e-08 0)
(42.7109 7.06844e-08 0)
(42.7108 7.07209e-08 0)
(42.7108 7.07599e-08 0)
(42.7108 7.08089e-08 0)
(42.7108 7.08606e-08 0)
(42.7108 7.09161e-08 0)
(42.7107 7.09725e-08 0)
(42.7107 7.10387e-08 0)
(42.7107 7.11073e-08 0)
(42.7107 7.1178e-08 0)
(42.7106 7.12511e-08 0)
(42.7106 7.1334e-08 0)
(42.7106 7.14176e-08 0)
(42.7105 7.1513e-08 0)
(42.7105 7.16037e-08 0)
(42.7104 7.17072e-08 0)
(42.7104 7.18109e-08 0)
(42.7104 7.1922e-08 0)
(42.7103 7.20383e-08 0)
(42.7103 7.21645e-08 0)
(42.7102 7.22918e-08 0)
(42.7102 7.24288e-08 0)
(42.7101 7.25726e-08 0)
(42.7101 7.27193e-08 0)
(42.71 7.28728e-08 0)
(42.7099 7.30365e-08 0)
(42.7099 7.32002e-08 0)
(42.7098 7.33751e-08 0)
(42.7097 7.35603e-08 0)
(42.7096 7.37527e-08 0)
(42.7095 7.39526e-08 0)
(42.7094 7.41632e-08 0)
(42.7094 7.43804e-08 0)
(42.7093 7.4611e-08 0)
(42.7091 7.48535e-08 0)
(42.709 7.51012e-08 0)
(42.7089 7.5359e-08 0)
(42.7088 7.56334e-08 0)
(42.7087 7.59181e-08 0)
(42.7085 7.62121e-08 0)
(42.7084 7.65235e-08 0)
(42.7083 7.68477e-08 0)
(42.7081 7.71828e-08 0)
(42.7079 7.7528e-08 0)
(42.7078 7.7891e-08 0)
(42.7076 7.82659e-08 0)
(42.7074 7.86571e-08 0)
(42.7072 7.90682e-08 0)
(42.707 7.94923e-08 0)
(42.7068 7.99308e-08 0)
(42.7066 8.03844e-08 0)
(42.7064 8.08589e-08 0)
(42.7061 8.13445e-08 0)
(42.7059 8.18455e-08 0)
(42.7056 8.23702e-08 0)
(42.7053 8.29121e-08 0)
(42.705 8.34695e-08 0)
(42.7047 8.405e-08 0)
(42.7044 8.46556e-08 0)
(42.7041 8.5277e-08 0)
(42.7038 8.59183e-08 0)
(42.7034 8.65839e-08 0)
(42.7031 8.72724e-08 0)
(42.7027 8.79842e-08 0)
(42.7023 8.87172e-08 0)
(42.7019 8.94749e-08 0)
(42.7014 9.0259e-08 0)
(42.701 9.10708e-08 0)
(42.7005 9.19038e-08 0)
(42.7 9.27608e-08 0)
(42.6995 9.36491e-08 0)
(42.699 9.4566e-08 0)
(42.6984 9.55099e-08 0)
(42.6979 9.64815e-08 0)
(42.6973 9.74831e-08 0)
(42.6967 9.85155e-08 0)
(42.696 9.95763e-08 0)
(42.6954 1.00671e-07 0)
(42.6947 1.01795e-07 0)
(42.694 1.02951e-07 0)
(42.6933 1.04141e-07 0)
(42.6925 1.05365e-07 0)
(42.6917 1.06619e-07 0)
(42.6909 1.0791e-07 0)
(42.69 1.09234e-07 0)
(42.6892 1.10595e-07 0)
(42.6883 1.11996e-07 0)
(42.6873 1.13428e-07 0)
(42.6864 1.14901e-07 0)
(42.6853 1.16411e-07 0)
(42.6843 1.17959e-07 0)
(42.6832 1.19543e-07 0)
(42.6821 1.21176e-07 0)
(42.681 1.22842e-07 0)
(42.6798 1.2455e-07 0)
(42.6785 1.26301e-07 0)
(42.6773 1.28091e-07 0)
(42.676 1.29927e-07 0)
(42.6746 1.31803e-07 0)
(42.6732 1.33726e-07 0)
(42.6718 1.35688e-07 0)
(42.6703 1.37695e-07 0)
(42.6688 1.39752e-07 0)
(42.6672 1.41848e-07 0)
(42.6655 1.43996e-07 0)
(42.6639 1.46186e-07 0)
(42.6621 1.48423e-07 0)
(42.6603 1.5071e-07 0)
(42.6585 1.5304e-07 0)
(42.6566 1.5542e-07 0)
(42.6547 1.57841e-07 0)
(42.6526 1.60317e-07 0)
(42.6506 1.62847e-07 0)
(42.6485 1.65421e-07 0)
(42.6463 1.68047e-07 0)
(42.644 1.70727e-07 0)
(42.6417 1.73456e-07 0)
(42.6393 1.76234e-07 0)
(42.6369 1.79059e-07 0)
(42.6344 1.81943e-07 0)
(42.6318 1.84874e-07 0)
(42.6291 1.87856e-07 0)
(42.6264 1.90889e-07 0)
(42.6236 1.93975e-07 0)
(42.6207 1.97112e-07 0)
(42.6178 2.00303e-07 0)
(42.6148 2.03546e-07 0)
(42.6117 2.0684e-07 0)
(42.6085 2.1019e-07 0)
(42.6052 2.13588e-07 0)
(42.6019 2.1704e-07 0)
(42.5984 2.20538e-07 0)
(42.5949 2.24092e-07 0)
(42.5913 2.27699e-07 0)
(42.5876 2.31356e-07 0)
(42.5838 2.35063e-07 0)
(42.58 2.38823e-07 0)
(42.576 2.42635e-07 0)
(42.5719 2.46503e-07 0)
(42.5678 2.50419e-07 0)
(42.5635 2.54386e-07 0)
(42.5592 2.58403e-07 0)
(42.5547 2.62472e-07 0)
(42.5502 2.66588e-07 0)
(42.5455 2.70757e-07 0)
(42.5407 2.74972e-07 0)
(42.5359 2.7924e-07 0)
(42.5309 2.83558e-07 0)
(42.5258 2.87924e-07 0)
(42.5206 2.92337e-07 0)
(42.5153 2.96796e-07 0)
(42.5099 3.01308e-07 0)
(42.5044 3.05864e-07 0)
(42.4987 3.10466e-07 0)
(42.493 3.15119e-07 0)
(42.4871 3.19808e-07 0)
(42.4811 3.24545e-07 0)
(42.4749 3.29327e-07 0)
(42.4687 3.3415e-07 0)
(42.4623 3.39024e-07 0)
(42.4558 3.43935e-07 0)
(42.4492 3.48898e-07 0)
(42.4424 3.53921e-07 0)
(42.4356 3.59027e-07 0)
(42.4285 3.64276e-07 0)
(42.4214 3.69819e-07 0)
(42.4141 3.76002e-07 0)
(42.4067 3.83648e-07 0)
(42.3991 3.94743e-07 0)
(42.3915 4.14058e-07 0)
(42.3836 4.53035e-07 0)
(42.3756 5.39287e-07 0)
(42.3675 7.37881e-07 0)
(42.3593 1.20472e-06 0)
(42.3509 2.31208e-06 0)
(42.3423 4.94941e-06 0)
(42.3336 1.12437e-05 0)
(42.3247 2.62803e-05 0)
(42.3155 6.22111e-05 0)
(42.306 0.000148064 0)
(42.2958 0.000353142 0)
(42.2842 0.000842728 0)
(42.2695 0.00201038 0)
(42.2475 0.0047907 0)
(42.2084 0.0113947 0)
(42.1291 0.0270305 0)
(41.9553 0.0639817 0)
(41.5586 0.152157 0)
(40.6934 0.37718 0)
(37.5501 0.951909 0)
(42.7 9.72839e-05 0)
(42.7001 9.88146e-05 0)
(42.7002 9.45381e-05 0)
(42.7003 9.88206e-05 0)
(42.7004 0.000102585 0)
(42.7004 0.000104512 0)
(42.7005 0.000105835 0)
(42.7006 0.000106989 0)
(42.7006 0.000107981 0)
(42.7007 0.000108819 0)
(42.7008 0.000109534 0)
(42.7009 0.000110154 0)
(42.7009 0.000110687 0)
(42.701 0.00011115 0)
(42.7011 0.000111565 0)
(42.7011 0.000111923 0)
(42.7012 0.00011224 0)
(42.7013 0.000112518 0)
(42.7014 0.000112763 0)
(42.7014 0.000112983 0)
(42.7015 0.000113174 0)
(42.7016 0.000113348 0)
(42.7017 0.000113501 0)
(42.7017 0.000113637 0)
(42.7018 0.000113759 0)
(42.7019 0.000113868 0)
(42.702 0.000113965 0)
(42.702 0.000114052 0)
(42.7021 0.00011413 0)