/*--------------------------------*- C++ -*----------------------------------*\
| =========                 |                                                 |
| \\      /  F ield         | OpenFOAM: The Open Source CFD Toolbox           |
|  \\    /   O peration     | Version:  3.0.x                                 |
|   \\  /    A nd           | Web:      www.OpenFOAM.org                      |
|    \\/     M anipulation  |                                                 |
\*---------------------------------------------------------------------------*/
FoamFile
{
    version     2.0;
    format      ascii;
    class       volVectorField;
    location    "0.29";
    object      U;
}
// * * * * * * * * * * * * * * * * * * * * * * * * * * * * * * * * * * * * * //

dimensions      [0 1 -1 0 0 0 0];

internalField   nonuniform List<vector> 
13800
(
(42.6962 0.000141829 0)
(42.6926 0.00012348 0)
(42.689 0.000122317 0)
(42.6853 0.00012445 0)
(42.6816 0.000126258 0)
(42.6779 0.000127798 0)
(42.6743 0.000129031 0)
(42.6706 0.000130109 0)
(42.6669 0.000130981 0)
(42.6632 0.000131741 0)
(42.6595 0.000132359 0)
(42.6559 0.000132883 0)
(42.6522 0.000133332 0)
(42.6485 0.000133714 0)
(42.6449 0.000134033 0)
(42.6412 0.000134319 0)
(42.6375 0.000134575 0)
(42.6339 0.000134772 0)
(42.6302 0.000134945 0)
(42.6265 0.000135118 0)
(42.6229 0.000135254 0)
(42.6192 0.000135374 0)
(42.6156 0.000135481 0)
(42.6119 0.000135575 0)
(42.6082 0.000135671 0)
(42.6046 0.000135704 0)
(42.601 0.000135767 0)
(42.5973 0.000135796 0)
(42.5937 0.000135795 0)
(42.59 0.000135753 0)
(42.5864 0.000135651 0)
(42.5828 0.000135471 0)
(42.5792 0.000135197 0)
(42.5756 0.000134743 0)
(42.572 0.000134086 0)
(42.5684 0.000133183 0)
(42.5649 0.000131979 0)
(42.5614 0.000130276 0)
(42.558 0.000128181 0)
(42.5546 0.000125522 0)
(42.5513 0.000122261 0)
(42.5481 0.000118356 0)
(42.5451 0.000113788 0)
(42.5422 0.000108563 0)
(42.5394 0.000102716 0)
(42.5368 9.63081e-05 0)
(42.5344 8.94467e-05 0)
(42.5322 8.22228e-05 0)
(42.5302 7.47921e-05 0)
(42.5284 6.72609e-05 0)
(42.5268 5.98197e-05 0)
(42.5254 5.25757e-05 0)
(42.5242 4.56569e-05 0)
(42.5232 3.91673e-05 0)
(42.5224 3.31868e-05 0)
(42.5217 2.777e-05 0)
(42.5212 2.29466e-05 0)
(42.5208 1.87226e-05 0)
(42.5205 1.50836e-05 0)
(42.5204 1.19986e-05 0)
(42.5203 9.42437e-06 0)
(42.5203 7.3098e-06 0)
(42.5203 5.59793e-06 0)
(42.5204 4.2343e-06 0)
(42.5206 3.1633e-06 0)
(42.5208 2.33432e-06 0)
(42.521 1.70184e-06 0)
(42.5213 1.22608e-06 0)
(42.5216 8.73142e-07 0)
(42.5219 6.14929e-07 0)
(42.5223 4.28645e-07 0)
(42.5227 2.96235e-07 0)
(42.5231 2.03567e-07 0)
(42.5236 1.39789e-07 0)
(42.5241 9.65713e-08 0)
(42.5247 6.77751e-08 0)
(42.5253 4.89039e-08 0)
(42.526 3.67531e-08 0)
(42.5267 2.91589e-08 0)
(42.5275 2.4583e-08 0)
(42.5283 2.20309e-08 0)
(42.5292 2.07467e-08 0)
(42.5302 2.02903e-08 0)
(42.5313 2.03627e-08 0)
(42.5324 2.07016e-08 0)
(42.5335 2.12543e-08 0)
(42.5348 2.18436e-08 0)
(42.5361 2.24992e-08 0)
(42.5376 2.31568e-08 0)
(42.5391 2.37782e-08 0)
(42.5406 2.4451e-08 0)
(42.5423 2.50489e-08 0)
(42.544 2.57242e-08 0)
(42.5458 2.63131e-08 0)
(42.5477 2.68681e-08 0)
(42.5497 2.72923e-08 0)
(42.5517 2.75405e-08 0)
(42.5538 2.77433e-08 0)
(42.556 2.77186e-08 0)
(42.5582 2.77505e-08 0)
(42.5605 2.76103e-08 0)
(42.5628 2.74607e-08 0)
(42.5651 2.72345e-08 0)
(42.5675 2.68294e-08 0)
(42.5699 2.64398e-08 0)
(42.5723 2.56887e-08 0)
(42.5747 2.49941e-08 0)
(42.5771 2.39852e-08 0)
(42.5795 2.28717e-08 0)
(42.5819 2.16342e-08 0)
(42.5842 2.0077e-08 0)
(42.5865 1.86215e-08 0)
(42.5887 1.67126e-08 0)
(42.5908 1.49239e-08 0)
(42.5928 1.28776e-08 0)
(42.5948 1.06479e-08 0)
(42.5966 8.49977e-09 0)
(42.5983 5.8677e-09 0)
(42.5999 3.56685e-09 0)
(42.6014 8.00345e-10 0)
(42.6026 -1.89633e-09 0)
(42.6038 -4.70219e-09 0)
(42.6047 -8.34668e-09 0)
(42.6055 -1.24165e-08 0)
(42.6061 -1.81689e-08 0)
(42.6066 -2.2554e-08 0)
(42.6068 -2.7422e-08 0)
(42.6068 -3.17169e-08 0)
(42.6066 -3.61036e-08 0)
(42.6062 -3.93187e-08 0)
(42.6056 -4.25884e-08 0)
(42.6048 -4.58603e-08 0)
(42.6038 -4.89047e-08 0)
(42.6026 -5.17254e-08 0)
(42.6012 -5.43122e-08 0)
(42.5995 -5.66878e-08 0)
(42.5977 -5.88858e-08 0)
(42.5957 -6.09003e-08 0)
(42.5935 -6.27362e-08 0)
(42.5912 -6.43964e-08 0)
(42.5887 -6.58506e-08 0)
(42.586 -6.70937e-08 0)
(42.5832 -6.81269e-08 0)
(42.5802 -6.89606e-08 0)
(42.5771 -6.96037e-08 0)
(42.574 -7.00665e-08 0)
(42.5707 -7.03765e-08 0)
(42.5673 -7.05376e-08 0)
(42.5638 -7.05616e-08 0)
(42.5603 -7.04287e-08 0)
(42.5567 -7.01415e-08 0)
(42.5531 -6.96836e-08 0)
(42.5494 -6.90522e-08 0)
(42.5457 -6.82509e-08 0)
(42.542 -6.72836e-08 0)
(42.5383 -6.61551e-08 0)
(42.5347 -6.48803e-08 0)
(42.531 -6.34692e-08 0)
(42.5274 -6.19376e-08 0)
(42.5238 -6.0299e-08 0)
(42.5203 -5.8552e-08 0)
(42.5168 -5.67292e-08 0)
(42.5134 -5.48268e-08 0)
(42.5101 -5.28689e-08 0)
(42.5069 -5.08562e-08 0)
(42.5037 -4.88019e-08 0)
(42.5006 -4.67166e-08 0)
(42.4976 -4.4605e-08 0)
(42.4947 -4.24749e-08 0)
(42.492 -4.0341e-08 0)
(42.4893 -3.82185e-08 0)
(42.4867 -3.60949e-08 0)
(42.4842 -3.40004e-08 0)
(42.4818 -3.19247e-08 0)
(42.4796 -2.98944e-08 0)
(42.4774 -2.78986e-08 0)
(42.4753 -2.59699e-08 0)
(42.4734 -2.40499e-08 0)
(42.4715 -2.22132e-08 0)
(42.4698 -2.0406e-08 0)
(42.4681 -1.86191e-08 0)
(42.4665 -1.68973e-08 0)
(42.4651 -1.5241e-08 0)
(42.4637 -1.35742e-08 0)
(42.4624 -1.2083e-08 0)
(42.4612 -1.05998e-08 0)
(42.4601 -9.18035e-09 0)
(42.459 -7.5068e-09 0)
(42.4581 -3.03253e-09 0)
(42.4571 1.66059e-08 0)
(42.4563 9.30141e-08 0)
(42.4555 4.4799e-07 0)
(42.4548 2.15323e-06 0)
(42.4538 1.03616e-05 0)
(42.4518 4.98328e-05 0)
(42.4446 0.000238487 0)
(42.4133 0.00111897 0)
(42.2682 0.00522892 0)
(41.8033 0.0269473 0)
(37.389 0.10613 0)
(42.7001 0.000222492 0)
(42.7004 0.000161976 0)
(42.7007 0.000149859 0)
(42.7009 0.000147785 0)
(42.7011 0.000145938 0)
(42.7013 0.000144525 0)
(42.7016 0.000143354 0)
(42.7018 0.000142512 0)
(42.702 0.000141768 0)
(42.7022 0.0001412 0)
(42.7024 0.000140676 0)
(42.7027 0.000140238 0)
(42.7029 0.000139867 0)
(42.7031 0.000139545 0)
(42.7033 0.000139251 0)
(42.7036 0.000139018 0)
(42.7038 0.000138831 0)
(42.704 0.000138626 0)
(42.7042 0.00013845 0)
(42.7045 0.000138337 0)
(42.7047 0.000138208 0)
(42.7049 0.000138102 0)
(42.7052 0.000138013 0)
(42.7054 0.000137936 0)
(42.7057 0.000137897 0)
(42.7059 0.000137771 0)
(42.7062 0.000137736 0)
(42.7064 0.000137669 0)
(42.7066 0.000137583 0)
(42.7069 0.000137467 0)
(42.7072 0.000137296 0)
(42.7074 0.000137054 0)
(42.7077 0.000136739 0)
(42.7079 0.000136223 0)
(42.7082 0.000135505 0)
(42.7084 0.000134551 0)
(42.7087 0.000133313 0)
(42.709 0.000131486 0)
(42.7092 0.000129334 0)
(42.7095 0.000126585 0)
(42.7098 0.000123221 0)
(42.71 0.000119204 0)
(42.7103 0.000114515 0)
(42.7106 0.000109162 0)
(42.7108 0.000103183 0)
(42.7111 9.66411e-05 0)
(42.7113 8.96591e-05 0)
(42.7116 8.2314e-05 0)
(42.7118 7.47845e-05 0)
(42.712 6.71478e-05 0)
(42.7123 5.96392e-05 0)
(42.7125 5.23387e-05 0)
(42.7127 4.53808e-05 0)
(42.7129 3.88687e-05 0)
(42.7131 3.28806e-05 0)
(42.7133 2.74689e-05 0)
(42.7135 2.26605e-05 0)
(42.7137 1.84588e-05 0)
(42.7139 1.48468e-05 0)
(42.7141 1.17914e-05 0)
(42.7143 9.24727e-06 0)
(42.7146 7.16223e-06 0)
(42.7148 5.47697e-06 0)
(42.715 4.13816e-06 0)
(42.7153 3.08876e-06 0)
(42.7155 2.27829e-06 0)
(42.7158 1.66138e-06 0)
(42.7161 1.19846e-06 0)
(42.7165 8.5597e-07 0)
(42.7168 6.06086e-07 0)
(42.7172 4.26193e-07 0)
(42.7176 2.9832e-07 0)
(42.7181 2.08443e-07 0)
(42.7185 1.46046e-07 0)
(42.7191 1.03242e-07 0)
(42.7196 7.43427e-08 0)
(42.7203 5.52162e-08 0)
(42.7209 4.28622e-08 0)
(42.7216 3.52647e-08 0)
(42.7224 3.08025e-08 0)
(42.7233 2.85565e-08 0)
(42.7242 2.77136e-08 0)
(42.7251 2.78125e-08 0)
(42.7262 2.85439e-08 0)
(42.7273 2.95906e-08 0)
(42.7285 3.09529e-08 0)
(42.7297 3.23713e-08 0)
(42.731 3.39255e-08 0)
(42.7325 3.54864e-08 0)
(42.734 3.70618e-08 0)
(42.7355 3.87361e-08 0)
(42.7372 4.03301e-08 0)
(42.7389 4.20737e-08 0)
(42.7407 4.36862e-08 0)
(42.7426 4.52841e-08 0)
(42.7446 4.67191e-08 0)
(42.7466 4.79378e-08 0)
(42.7487 4.91188e-08 0)
(42.7508 4.9974e-08 0)
(42.7531 5.09391e-08 0)
(42.7553 5.16298e-08 0)
(42.7576 5.2322e-08 0)
(42.76 5.28629e-08 0)
(42.7624 5.31688e-08 0)
(42.7648 5.34915e-08 0)
(42.7672 5.32617e-08 0)
(42.7696 5.3132e-08 0)
(42.772 5.24608e-08 0)
(42.7744 5.16663e-08 0)
(42.7767 5.06212e-08 0)
(42.779 4.91338e-08 0)
(42.7813 4.7756e-08 0)
(42.7835 4.5623e-08 0)
(42.7856 4.36993e-08 0)
(42.7877 4.12448e-08 0)
(42.7896 3.85926e-08 0)
(42.7914 3.5974e-08 0)
(42.7931 3.26185e-08 0)
(42.7947 2.974e-08 0)
(42.7962 2.60759e-08 0)
(42.7975 2.27172e-08 0)
(42.7986 1.91324e-08 0)
(42.7995 1.54503e-08 0)
(42.8003 1.21271e-08 0)
(42.8009 7.44977e-09 0)
(42.8013 3.2765e-09 0)
(42.8016 -2.35426e-09 0)
(42.8016 -7.89934e-09 0)
(42.8014 -1.4594e-08 0)
(42.801 -1.92481e-08 0)
(42.8004 -2.42527e-08 0)
(42.7996 -2.94807e-08 0)
(42.7986 -3.44965e-08 0)
(42.7973 -3.92991e-08 0)
(42.7959 -4.38761e-08 0)
(42.7943 -4.82309e-08 0)
(42.7925 -5.23865e-08 0)
(42.7905 -5.63397e-08 0)
(42.7883 -6.00861e-08 0)
(42.7859 -6.35735e-08 0)
(42.7834 -6.67966e-08 0)
(42.7807 -6.97318e-08 0)
(42.7779 -7.23763e-08 0)
(42.7749 -7.47266e-08 0)
(42.7719 -7.67947e-08 0)
(42.7687 -7.85973e-08 0)
(42.7654 -8.01551e-08 0)
(42.762 -8.14785e-08 0)
(42.7585 -8.25706e-08 0)
(42.755 -8.34097e-08 0)
(42.7514 -8.39858e-08 0)
(42.7477 -8.42943e-08 0)
(42.7441 -8.43299e-08 0)
(42.7404 -8.40861e-08 0)
(42.7367 -8.35771e-08 0)
(42.733 -8.28047e-08 0)
(42.7293 -8.17861e-08 0)
(42.7257 -8.05446e-08 0)
(42.7221 -7.9086e-08 0)
(42.7185 -7.7427e-08 0)
(42.7149 -7.55914e-08 0)
(42.7115 -7.35969e-08 0)
(42.7081 -7.1459e-08 0)
(42.7047 -6.91902e-08 0)
(42.7015 -6.68054e-08 0)
(42.6983 -6.43215e-08 0)
(42.6952 -6.17683e-08 0)
(42.6922 -5.91406e-08 0)
(42.6893 -5.64761e-08 0)
(42.6866 -5.37478e-08 0)
(42.6839 -5.10088e-08 0)
(42.6813 -4.82519e-08 0)
(42.6788 -4.55035e-08 0)
(42.6764 -4.27447e-08 0)
(42.6741 -4.00063e-08 0)
(42.672 -3.72616e-08 0)
(42.6699 -3.4621e-08 0)
(42.6679 -3.19111e-08 0)
(42.6661 -2.93895e-08 0)
(42.6643 -2.68872e-08 0)
(42.6627 -2.44198e-08 0)
(42.6611 -2.2207e-08 0)
(42.6596 -1.98115e-08 0)
(42.6582 -1.7927e-08 0)
(42.657 -1.54804e-08 0)
(42.6557 -1.37726e-08 0)
(42.6546 -1.07723e-08 0)
(42.6536 -6.76674e-09 0)
(42.6526 3.67289e-09 0)
(42.6517 5.80096e-08 0)
(42.6508 3.10609e-07 0)
(42.65 1.51543e-06 0)
(42.6493 7.32104e-06 0)
(42.6483 3.52777e-05 0)
(42.6463 0.00016971 0)
(42.6392 0.000812212 0)
(42.6079 0.00381153 0)
(42.4635 0.0177827 0)
(41.9992 0.089757 0)
(37.8214 0.334219 0)
(42.7001 0.000163813 0)
(42.7004 0.000112956 0)
(42.7007 0.000107349 0)
(42.7009 0.000110448 0)
(42.7011 0.000111468 0)
(42.7013 0.000111964 0)
(42.7016 0.000112313 0)
(42.7018 0.000112685 0)
(42.702 0.00011295 0)
(42.7022 0.000113217 0)
(42.7024 0.000113411 0)
(42.7027 0.000113588 0)
(42.7029 0.000113745 0)
(42.7031 0.000113881 0)
(42.7034 0.000113989 0)
(42.7036 0.000114103 0)
(42.7038 0.000114217 0)
(42.7041 0.000114285 0)
(42.7043 0.000114351 0)
(42.7045 0.000114444 0)
(42.7048 0.0001145 0)
(42.705 0.000114559 0)
(42.7053 0.000114616 0)
(42.7055 0.000114669 0)
(42.7058 0.000114741 0)
(42.706 0.000114727 0)
(42.7063 0.000114783 0)
(42.7065 0.0001148 0)
(42.7068 0.000114794 0)
(42.707 0.000114756 0)
(42.7073 0.000114666 0)
(42.7076 0.000114507 0)
(42.7078 0.000114283 0)
(42.7081 0.000113884 0)
(42.7084 0.00011331 0)
(42.7087 0.000112533 0)
(42.7089 0.00011151 0)
(42.7092 0.000109986 0)
(42.7095 0.000108189 0)
(42.7098 0.000105883 0)
(42.71 0.000103056 0)
(42.7103 9.96784e-05 0)
(42.7106 9.5734e-05 0)
(42.7108 9.12316e-05 0)
(42.7111 8.62049e-05 0)
(42.7113 8.0708e-05 0)
(42.7116 7.48411e-05 0)
(42.7118 6.86772e-05 0)
(42.712 6.23639e-05 0)
(42.7123 5.59639e-05 0)
(42.7125 4.96783e-05 0)
(42.7127 4.3571e-05 0)
(42.7129 3.77554e-05 0)
(42.7131 3.23173e-05 0)
(42.7133 2.7321e-05 0)
(42.7135 2.28094e-05 0)
(42.7137 1.88039e-05 0)
(42.7139 1.53065e-05 0)
(42.7141 1.23023e-05 0)
(42.7143 9.76276e-06 0)
(42.7145 7.64969e-06 0)
(42.7147 5.91905e-06 0)
(42.7149 4.52098e-06 0)
(42.7152 3.411e-06 0)
(42.7154 2.54133e-06 0)
(42.7157 1.86984e-06 0)
(42.716 1.35879e-06 0)
(42.7163 9.75232e-07 0)
(42.7166 6.91301e-07 0)
(42.717 4.83972e-07 0)
(42.7173 3.34667e-07 0)
(42.7177 2.28735e-07 0)
(42.7182 1.54689e-07 0)
(42.7187 1.03781e-07 0)
(42.7192 6.93222e-08 0)
(42.7198 4.64123e-08 0)
(42.7204 3.1487e-08 0)
(42.7211 2.19739e-08 0)
(42.7218 1.61345e-08 0)
(42.7226 1.26786e-08 0)
(42.7234 1.08518e-08 0)
(42.7243 1.00509e-08 0)
(42.7253 9.93037e-09 0)
(42.7263 1.02723e-08 0)
(42.7274 1.08675e-08 0)
(42.7286 1.16991e-08 0)
(42.7298 1.26055e-08 0)
(42.7312 1.36258e-08 0)
(42.7326 1.46816e-08 0)
(42.7341 1.57641e-08 0)
(42.7357 1.69214e-08 0)
(42.7373 1.80403e-08 0)
(42.739 1.9261e-08 0)
(42.7408 2.03851e-08 0)
(42.7427 2.15043e-08 0)
(42.7447 2.24908e-08 0)
(42.7467 2.33254e-08 0)
(42.7488 2.41162e-08 0)
(42.751 2.4694e-08 0)
(42.7532 2.53333e-08 0)
(42.7555 2.57896e-08 0)
(42.7578 2.62401e-08 0)
(42.7601 2.65894e-08 0)
(42.7625 2.67737e-08 0)
(42.7649 2.69376e-08 0)
(42.7673 2.67367e-08 0)
(42.7697 2.65742e-08 0)
(42.7721 2.60498e-08 0)
(42.7745 2.54099e-08 0)
(42.7768 2.45831e-08 0)
(42.7792 2.34351e-08 0)
(42.7814 2.233e-08 0)
(42.7836 2.07077e-08 0)
(42.7857 1.91837e-08 0)
(42.7878 1.72916e-08 0)
(42.7897 1.52099e-08 0)
(42.7916 1.31228e-08 0)
(42.7933 1.04868e-08 0)
(42.7949 8.13696e-09 0)
(42.7963 5.19692e-09 0)
(42.7976 2.37951e-09 0)
(42.7987 -6.8867e-10 0)
(42.7997 -3.91548e-09 0)
(42.8005 -6.63746e-09 0)
(42.8011 -9.02765e-09 0)
(42.8015 -1.06207e-08 0)
(42.8017 -1.32828e-08 0)
(42.8017 -1.62767e-08 0)
(42.8015 -2.08025e-08 0)
(42.8011 -2.35425e-08 0)
(42.8005 -2.6665e-08 0)
(42.7997 -3.01035e-08 0)
(42.7987 -3.34983e-08 0)
(42.7975 -3.6825e-08 0)
(42.796 -4.00754e-08 0)
(42.7944 -4.32473e-08 0)
(42.7926 -4.63468e-08 0)
(42.7906 -4.93539e-08 0)
(42.7884 -5.22435e-08 0)
(42.786 -5.49754e-08 0)
(42.7835 -5.75158e-08 0)
(42.7808 -5.98323e-08 0)
(42.778 -6.19117e-08 0)
(42.7751 -6.37551e-08 0)
(42.772 -6.53736e-08 0)
(42.7688 -6.67809e-08 0)
(42.7655 -6.79901e-08 0)
(42.7621 -6.90247e-08 0)
(42.7586 -6.98719e-08 0)
(42.7551 -7.05298e-08 0)
(42.7515 -7.09945e-08 0)
(42.7479 -7.12443e-08 0)
(42.7442 -7.12828e-08 0)
(42.7405 -7.11141e-08 0)
(42.7368 -7.07381e-08 0)
(42.7331 -7.0166e-08 0)
(42.7295 -6.93914e-08 0)
(42.7258 -6.84467e-08 0)
(42.7222 -6.73491e-08 0)
(42.7186 -6.60957e-08 0)
(42.7151 -6.47041e-08 0)
(42.7116 -6.31847e-08 0)
(42.7082 -6.15501e-08 0)
(42.7049 -5.982e-08 0)
(42.7016 -5.80035e-08 0)
(42.6984 -5.61073e-08 0)
(42.6954 -5.41448e-08 0)
(42.6924 -5.2122e-08 0)
(42.6895 -5.0067e-08 0)
(42.6867 -4.7946e-08 0)
(42.684 -4.58355e-08 0)
(42.6814 -4.3682e-08 0)
(42.6789 -4.15632e-08 0)
(42.6765 -3.94074e-08 0)
(42.6743 -3.73159e-08 0)
(42.6721 -3.51875e-08 0)
(42.67 -3.32196e-08 0)
(42.6681 -3.10824e-08 0)
(42.6662 -2.91656e-08 0)
(42.6645 -2.72436e-08 0)
(42.6628 -2.51908e-08 0)
(42.6612 -2.3367e-08 0)
(42.6598 -2.1471e-08 0)
(42.6584 -1.96523e-08 0)
(42.6571 -1.78573e-08 0)
(42.6559 -1.61876e-08 0)
(42.6547 -1.36715e-08 0)
(42.6537 -8.30408e-09 0)
(42.6527 1.50426e-08 0)
(42.6518 1.17856e-07 0)
(42.651 6.15059e-07 0)
(42.6502 3.00283e-06 0)
(42.6494 1.45155e-05 0)
(42.6485 6.99667e-05 0)
(42.6465 0.000336628 0)
(42.6395 0.00161138 0)
(42.6091 0.00756761 0)
(42.4685 0.0353057 0)
(42.0189 0.177336 0)
(38.0719 0.645736 0)
(42.7001 0.000119139 0)
(42.7004 0.000102303 0)
(42.7006 9.96752e-05 0)
(42.7009 0.00010379 0)
(42.7011 0.000105914 0)
(42.7013 0.000107178 0)
(42.7015 0.000108205 0)
(42.7017 0.000109124 0)
(42.702 0.00010987 0)
(42.7022 0.000110524 0)
(42.7024 0.000111061 0)
(42.7026 0.000111524 0)
(42.7029 0.000111924 0)
(42.7031 0.000112267 0)
(42.7033 0.000112558 0)
(42.7036 0.00011282 0)
(42.7038 0.000113059 0)
(42.704 0.000113247 0)
(42.7043 0.000113415 0)
(42.7045 0.000113585 0)
(42.7047 0.000113719 0)
(42.705 0.000113844 0)
(42.7052 0.000113957 0)
(42.7055 0.00011406 0)
(42.7057 0.000114165 0)
(42.706 0.000114209 0)
(42.7062 0.000114289 0)
(42.7065 0.000114336 0)
(42.7068 0.000114358 0)
(42.707 0.000114346 0)
(42.7073 0.000114284 0)
(42.7075 0.000114152 0)
(42.7078 0.000113948 0)
(42.7081 0.000113589 0)
(42.7084 0.00011306 0)
(42.7086 0.000112326 0)
(42.7089 0.000111341 0)
(42.7092 0.000109922 0)
(42.7095 0.00010819 0)
(42.7097 0.000105976 0)
(42.71 0.000103253 0)
(42.7103 9.99878e-05 0)
(42.7105 9.61616e-05 0)
(42.7108 9.17793e-05 0)
(42.7111 8.68697e-05 0)
(42.7113 8.14853e-05 0)
(42.7116 7.57081e-05 0)
(42.7118 6.96268e-05 0)
(42.712 6.33692e-05 0)
(42.7123 5.70141e-05 0)
(42.7125 5.07367e-05 0)
(42.7127 4.46192e-05 0)
(42.7129 3.87722e-05 0)
(42.7131 3.32842e-05 0)
(42.7133 2.8223e-05 0)
(42.7135 2.36356e-05 0)
(42.7137 1.95476e-05 0)
(42.7139 1.59649e-05 0)
(42.7141 1.28759e-05 0)
(42.7143 1.02551e-05 0)
(42.7145 8.06633e-06 0)
(42.7147 6.26696e-06 0)
(42.7149 4.8087e-06 0)
(42.7152 3.64627e-06 0)
(42.7154 2.73235e-06 0)
(42.7157 2.02424e-06 0)
(42.716 1.48342e-06 0)
(42.7163 1.07615e-06 0)
(42.7166 7.73694e-07 0)
(42.717 5.52221e-07 0)
(42.7173 3.92375e-07 0)
(42.7177 2.78745e-07 0)
(42.7182 1.99203e-07 0)
(42.7187 1.44438e-07 0)
(42.7192 1.07343e-07 0)
(42.7198 8.26581e-08 0)
(42.7204 6.65201e-08 0)
(42.7211 5.61682e-08 0)
(42.7218 4.97197e-08 0)
(42.7226 4.58257e-08 0)
(42.7234 4.36294e-08 0)
(42.7243 4.2527e-08 0)
(42.7253 4.21286e-08 0)
(42.7263 4.21897e-08 0)
(42.7274 4.2514e-08 0)
(42.7286 4.30431e-08 0)
(42.7298 4.3659e-08 0)
(42.7312 4.43495e-08 0)
(42.7326 4.50768e-08 0)
(42.7341 4.58162e-08 0)
(42.7357 4.66079e-08 0)
(42.7373 4.73721e-08 0)
(42.739 4.81883e-08 0)
(42.7408 4.8951e-08 0)
(42.7427 4.96737e-08 0)
(42.7447 5.02906e-08 0)
(42.7467 5.07745e-08 0)
(42.7488 5.12056e-08 0)
(42.751 5.14728e-08 0)
(42.7532 5.17509e-08 0)
(42.7555 5.19173e-08 0)
(42.7578 5.20518e-08 0)
(42.7601 5.21269e-08 0)
(42.7625 5.20648e-08 0)
(42.7649 5.19727e-08 0)
(42.7673 5.16312e-08 0)
(42.7697 5.12736e-08 0)
(42.7721 5.06863e-08 0)
(42.7745 4.9974e-08 0)
(42.7768 4.91351e-08 0)
(42.7792 4.80526e-08 0)
(42.7814 4.69835e-08 0)
(42.7836 4.5577e-08 0)
(42.7857 4.419e-08 0)
(42.7878 4.26023e-08 0)
(42.7897 4.08172e-08 0)
(42.7916 3.90453e-08 0)
(42.7933 3.68874e-08 0)
(42.7949 3.48881e-08 0)
(42.7963 3.2518e-08 0)
(42.7976 3.01112e-08 0)
(42.7987 2.75539e-08 0)
(42.7997 2.41393e-08 0)
(42.8005 2.02814e-08 0)
(42.8011 1.59633e-08 0)
(42.8015 1.33016e-08 0)
(42.8017 1.03882e-08 0)
(42.8017 7.53966e-09 0)
(42.8015 4.08123e-09 0)
(42.8011 1.84142e-09 0)
(42.8005 -5.70791e-10 0)
(42.7997 -3.14267e-09 0)
(42.7987 -5.65599e-09 0)
(42.7975 -8.09787e-09 0)
(42.796 -1.04661e-08 0)
(42.7944 -1.27511e-08 0)
(42.7926 -1.49673e-08 0)
(42.7906 -1.71026e-08 0)
(42.7884 -1.91472e-08 0)
(42.786 -2.10659e-08 0)
(42.7835 -2.28335e-08 0)
(42.7808 -2.44236e-08 0)
(42.778 -2.58251e-08 0)
(42.7751 -2.70318e-08 0)
(42.772 -2.80595e-08 0)
(42.7688 -2.89242e-08 0)
(42.7655 -2.96377e-08 0)
(42.7621 -3.0217e-08 0)
(42.7586 -3.066e-08 0)
(42.7551 -3.09637e-08 0)
(42.7515 -3.11194e-08 0)
(42.7479 -3.11191e-08 0)
(42.7442 -3.09628e-08 0)
(42.7405 -3.06527e-08 0)
(42.7368 -3.01792e-08 0)
(42.7331 -2.95679e-08 0)
(42.7295 -2.87954e-08 0)
(42.7258 -2.79122e-08 0)
(42.7222 -2.69083e-08 0)
(42.7186 -2.57957e-08 0)
(42.7151 -2.45816e-08 0)
(42.7116 -2.32833e-08 0)
(42.7082 -2.189e-08 0)
(42.7049 -2.04441e-08 0)
(42.7016 -1.89157e-08 0)
(42.6984 -1.73434e-08 0)
(42.6954 -1.57347e-08 0)
(42.6924 -1.41487e-08 0)
(42.6895 -1.25036e-08 0)
(42.6867 -1.08008e-08 0)
(42.684 -9.12412e-09 0)
(42.6814 -7.47712e-09 0)
(42.6789 -5.78906e-09 0)
(42.6765 -4.17355e-09 0)
(42.6743 -2.38081e-09 0)
(42.6721 -7.08108e-10 0)
(42.67 8.75585e-10 0)
(42.6681 2.86634e-09 0)
(42.6662 4.13873e-09 0)
(42.6645 5.72485e-09 0)
(42.6628 7.47087e-09 0)
(42.6612 8.01595e-09 0)
(42.6598 1.05945e-08 0)
(42.6584 9.79953e-09 0)
(42.6571 1.37232e-08 0)
(42.6559 1.23316e-08 0)
(42.6547 2.02705e-08 0)
(42.6537 2.8753e-08 0)
(42.6527 8.79887e-08 0)
(42.6518 3.48441e-07 0)
(42.651 1.60527e-06 0)
(42.6502 7.6473e-06 0)
(42.6494 3.67934e-05 0)
(42.6485 0.000177182 0)
(42.6467 0.000852138 0)
(42.6404 0.00407696 0)
(42.6134 0.0191074 0)
(42.4906 0.088024 0)
(42.1007 0.407585 0)
(39.0992 1.46233 0)
(42.7001 3.599e-05 0)
(42.7003 2.78309e-05 0)
(42.7006 1.98452e-05 0)
(42.7008 1.66413e-05 0)
(42.7011 1.40785e-05 0)
(42.7013 1.18816e-05 0)
(42.7015 1.01422e-05 0)
(42.7017 8.75438e-06 0)
(42.7019 7.60235e-06 0)
(42.7022 6.64259e-06 0)
(42.7024 5.82579e-06 0)
(42.7026 5.13052e-06 0)
(42.7028 4.53417e-06 0)
(42.7031 4.01898e-06 0)
(42.7033 3.57078e-06 0)
(42.7035 3.18236e-06 0)
(42.7038 2.84603e-06 0)
(42.704 2.54534e-06 0)
(42.7042 2.28156e-06 0)
(42.7045 2.05396e-06 0)
(42.7047 1.84849e-06 0)
(42.705 1.66768e-06 0)
(42.7052 1.50798e-06 0)
(42.7055 1.3666e-06 0)
(42.7057 1.24491e-06 0)
(42.706 1.12335e-06 0)
(42.7062 1.02844e-06 0)
(42.7065 9.40587e-07 0)
(42.7067 8.61782e-07 0)
(42.707 7.91382e-07 0)
(42.7073 7.2771e-07 0)
(42.7075 6.68535e-07 0)
(42.7078 6.20586e-07 0)
(42.7081 5.69495e-07 0)
(42.7083 5.20368e-07 0)
(42.7086 4.7742e-07 0)
(42.7089 4.40967e-07 0)
(42.7092 3.75806e-07 0)
(42.7094 3.33088e-07 0)
(42.7097 2.81116e-07 0)
(42.71 2.24869e-07 0)
(42.7102 1.65421e-07 0)
(42.7105 1.03274e-07 0)
(42.7108 3.95525e-08 0)
(42.711 -2.42118e-08 0)
(42.7113 -8.59553e-08 0)
(42.7115 -1.45144e-07 0)
(42.7118 -1.97705e-07 0)
(42.712 -2.39167e-07 0)
(42.7122 -2.81085e-07 0)
(42.7125 -3.05462e-07 0)
(42.7127 -3.21636e-07 0)
(42.7129 -3.28311e-07 0)
(42.7131 -3.25838e-07 0)
(42.7133 -3.15432e-07 0)
(42.7135 -2.98548e-07 0)
(42.7137 -2.768e-07 0)
(42.7139 -2.51819e-07 0)
(42.7141 -2.25146e-07 0)
(42.7143 -1.98141e-07 0)
(42.7145 -1.71916e-07 0)
(42.7147 -1.4721e-07 0)
(42.7149 -1.25072e-07 0)
(42.7152 -1.05136e-07 0)
(42.7154 -8.78892e-08 0)
(42.7157 -7.32297e-08 0)
(42.716 -6.09478e-08 0)
(42.7163 -5.07989e-08 0)
(42.7166 -4.24785e-08 0)
(42.717 -3.56992e-08 0)
(42.7173 -3.03274e-08 0)
(42.7177 -2.64016e-08 0)
(42.7182 -2.39145e-08 0)
(42.7187 -2.2647e-08 0)
(42.7192 -2.22211e-08 0)
(42.7198 -2.2261e-08 0)
(42.7204 -2.24759e-08 0)
(42.7211 -2.26894e-08 0)
(42.7218 -2.28111e-08 0)
(42.7226 -2.28196e-08 0)
(42.7234 -2.27104e-08 0)
(42.7243 -2.2504e-08 0)
(42.7253 -2.22272e-08 0)
(42.7263 -2.18904e-08 0)
(42.7274 -2.15185e-08 0)
(42.7286 -2.11118e-08 0)
(42.7298 -2.06916e-08 0)
(42.7312 -2.02547e-08 0)
(42.7326 -1.98095e-08 0)
(42.7341 -1.93584e-08 0)
(42.7357 -1.88925e-08 0)
(42.7373 -1.84285e-08 0)
(42.739 -1.79505e-08 0)
(42.7408 -1.74893e-08 0)
(42.7427 -1.70399e-08 0)
(42.7447 -1.6618e-08 0)
(42.7467 -1.62301e-08 0)
(42.7488 -1.5855e-08 0)
(42.751 -1.55205e-08 0)
(42.7532 -1.51872e-08 0)
(42.7555 -1.48941e-08 0)
(42.7578 -1.46216e-08 0)
(42.7601 -1.43806e-08 0)
(42.7625 -1.41725e-08 0)
(42.7649 -1.39833e-08 0)
(42.7673 -1.38706e-08 0)
(42.7697 -1.37748e-08 0)
(42.7721 -1.37657e-08 0)
(42.7745 -1.37867e-08 0)
(42.7768 -1.38511e-08 0)
(42.7792 -1.39771e-08 0)
(42.7814 -1.41167e-08 0)
(42.7836 -1.43648e-08 0)
(42.7857 -1.46016e-08 0)
(42.7878 -1.49325e-08 0)
(42.7897 -1.52765e-08 0)
(42.7916 -1.56408e-08 0)
(42.7933 -1.60826e-08 0)
(42.7949 -1.64794e-08 0)
(42.7963 -1.69703e-08 0)
(42.7976 -1.7366e-08 0)
(42.7987 -1.77602e-08 0)
(42.7997 -1.80954e-08 0)
(42.8005 -1.85704e-08 0)
(42.8011 -1.94935e-08 0)
(42.8015 -2.03915e-08 0)
(42.8017 -2.14252e-08 0)
(42.8017 -2.25249e-08 0)
(42.8015 -2.37465e-08 0)
(42.8011 -2.46411e-08 0)
(42.8005 -2.55893e-08 0)
(42.7997 -2.65906e-08 0)
(42.7987 -2.75773e-08 0)
(42.7975 -2.85449e-08 0)
(42.796 -2.94872e-08 0)
(42.7944 -3.04015e-08 0)
(42.7926 -3.12872e-08 0)
(42.7906 -3.21391e-08 0)
(42.7884 -3.29535e-08 0)
(42.786 -3.37197e-08 0)
(42.7835 -3.44365e-08 0)
(42.7808 -3.51001e-08 0)
(42.778 -3.571e-08 0)
(42.7751 -3.62622e-08 0)
(42.772 -3.67618e-08 0)
(42.7688 -3.72103e-08 0)
(42.7655 -3.76047e-08 0)
(42.7621 -3.79494e-08 0)
(42.7586 -3.82405e-08 0)
(42.7551 -3.84823e-08 0)
(42.7515 -3.86644e-08 0)
(42.7479 -3.87959e-08 0)
(42.7442 -3.88605e-08 0)
(42.7405 -3.88874e-08 0)
(42.7368 -3.88409e-08 0)
(42.7331 -3.87682e-08 0)
(42.7295 -3.86049e-08 0)
(42.7258 -3.84263e-08 0)
(42.7222 -3.8222e-08 0)
(42.7186 -3.79536e-08 0)
(42.7151 -3.76842e-08 0)
(42.7116 -3.73342e-08 0)
(42.7082 -3.69572e-08 0)
(42.7049 -3.65923e-08 0)
(42.7016 -3.61784e-08 0)
(42.6984 -3.57485e-08 0)
(42.6954 -3.53133e-08 0)
(42.6924 -3.48116e-08 0)
(42.6895 -3.44339e-08 0)
(42.6867 -3.3794e-08 0)
(42.684 -3.3435e-08 0)
(42.6814 -3.27553e-08 0)
(42.6789 -3.24917e-08 0)
(42.6765 -3.17862e-08 0)
(42.6743 -3.15529e-08 0)
(42.6721 -3.07382e-08 0)
(42.67 -3.08457e-08 0)
(42.6681 -2.97241e-08 0)
(42.6662 -2.96212e-08 0)
(42.6645 -2.95197e-08 0)
(42.6628 -2.83451e-08 0)
(42.6612 -2.84345e-08 0)
(42.6598 -2.77159e-08 0)
(42.6584 -2.71041e-08 0)
(42.6571 -2.68095e-08 0)
(42.6559 -2.55322e-08 0)
(42.6547 -2.1024e-08 0)
(42.6537 -2.07571e-09 0)
(42.6527 8.44883e-08 0)
(42.6518 5.17993e-07 0)
(42.651 2.5995e-06 0)
(42.6502 1.26318e-05 0)
(42.6495 6.10123e-05 0)
(42.6487 0.000294126 0)
(42.6476 0.00141516 0)
(42.6448 0.00677933 0)
(42.6335 0.0319792 0)
(42.5804 0.147675 0)
(42.4093 0.663663 0)
(40.6252 2.35669 0)
(42.7001 -3.599e-05 0)
(42.7003 -2.78309e-05 0)
(42.7006 -1.98452e-05 0)
(42.7008 -1.66413e-05 0)
(42.7011 -1.40785e-05 0)
(42.7013 -1.18816e-05 0)
(42.7015 -1.01422e-05 0)
(42.7017 -8.75438e-06 0)
(42.7019 -7.60235e-06 0)
(42.7022 -6.64259e-06 0)
(42.7024 -5.82579e-06 0)
(42.7026 -5.13052e-06 0)
(42.7028 -4.53417e-06 0)
(42.7031 -4.01898e-06 0)
(42.7033 -3.57078e-06 0)
(42.7035 -3.18236e-06 0)
(42.7038 -2.84603e-06 0)
(42.704 -2.54534e-06 0)
(42.7042 -2.28156e-06 0)
(42.7045 -2.05396e-06 0)
(42.7047 -1.84849e-06 0)
(42.705 -1.66768e-06 0)
(42.7052 -1.50798e-06 0)
(42.7055 -1.3666e-06 0)
(42.7057 -1.24491e-06 0)
(42.706 -1.12335e-06 0)
(42.7062 -1.02844e-06 0)
(42.7065 -9.40586e-07 0)
(42.7067 -8.61781e-07 0)
(42.707 -7.9138e-07 0)
(42.7073 -7.2771e-07 0)
(42.7075 -6.68535e-07 0)
(42.7078 -6.20588e-07 0)
(42.7081 -5.69496e-07 0)
(42.7083 -5.20369e-07 0)
(42.7086 -4.77422e-07 0)
(42.7089 -4.40968e-07 0)
(42.7092 -3.75804e-07 0)
(42.7094 -3.33087e-07 0)
(42.7097 -2.81115e-07 0)
(42.71 -2.24867e-07 0)
(42.7102 -1.65419e-07 0)
(42.7105 -1.03275e-07 0)
(42.7108 -3.9553e-08 0)
(42.711 2.42142e-08 0)
(42.7113 8.59585e-08 0)
(42.7115 1.45144e-07 0)
(42.7118 1.97703e-07 0)
(42.712 2.39168e-07 0)
(42.7122 2.81087e-07 0)
(42.7125 3.05463e-07 0)
(42.7127 3.21638e-07 0)
(42.7129 3.28311e-07 0)
(42.7131 3.25837e-07 0)
(42.7133 3.15431e-07 0)
(42.7135 2.98547e-07 0)
(42.7137 2.76799e-07 0)
(42.7139 2.51817e-07 0)
(42.7141 2.25146e-07 0)
(42.7143 1.9814e-07 0)
(42.7145 1.71914e-07 0)
(42.7147 1.47209e-07 0)
(42.7149 1.25071e-07 0)
(42.7152 1.05135e-07 0)
(42.7154 8.78886e-08 0)
(42.7157 7.32288e-08 0)
(42.716 6.09457e-08 0)
(42.7163 5.07982e-08 0)
(42.7166 4.24796e-08 0)
(42.717 3.56992e-08 0)
(42.7173 3.03282e-08 0)
(42.7177 2.64018e-08 0)
(42.7182 2.39171e-08 0)
(42.7187 2.26494e-08 0)
(42.7192 2.22213e-08 0)
(42.7198 2.22605e-08 0)
(42.7204 2.24743e-08 0)
(42.7211 2.26886e-08 0)
(42.7218 2.28128e-08 0)
(42.7226 2.28206e-08 0)
(42.7234 2.27094e-08 0)
(42.7243 2.25054e-08 0)
(42.7253 2.22283e-08 0)
(42.7263 2.18883e-08 0)
(42.7274 2.15159e-08 0)
(42.7286 2.11111e-08 0)
(42.7298 2.06918e-08 0)
(42.7312 2.02546e-08 0)
(42.7326 1.98093e-08 0)
(42.7341 1.93581e-08 0)
(42.7357 1.88914e-08 0)
(42.7373 1.8427e-08 0)
(42.739 1.79512e-08 0)
(42.7408 1.74886e-08 0)
(42.7427 1.70422e-08 0)
(42.7447 1.66199e-08 0)
(42.7467 1.62297e-08 0)
(42.7488 1.58561e-08 0)
(42.751 1.55187e-08 0)
(42.7532 1.51855e-08 0)
(42.7555 1.48941e-08 0)
(42.7578 1.46203e-08 0)
(42.7601 1.43809e-08 0)
(42.7625 1.41713e-08 0)
(42.7649 1.39816e-08 0)
(42.7673 1.38708e-08 0)
(42.7697 1.37746e-08 0)
(42.7721 1.37641e-08 0)
(42.7745 1.37846e-08 0)
(42.7768 1.38508e-08 0)
(42.7792 1.39764e-08 0)
(42.7814 1.41153e-08 0)
(42.7836 1.43618e-08 0)
(42.7857 1.46036e-08 0)
(42.7878 1.49333e-08 0)
(42.7897 1.52762e-08 0)
(42.7916 1.56433e-08 0)
(42.7933 1.60819e-08 0)
(42.7949 1.6481e-08 0)
(42.7963 1.69678e-08 0)
(42.7976 1.73653e-08 0)
(42.7987 1.77577e-08 0)
(42.7997 1.80937e-08 0)
(42.8005 1.85699e-08 0)
(42.8011 1.94934e-08 0)
(42.8015 2.03932e-08 0)
(42.8017 2.1426e-08 0)
(42.8017 2.25255e-08 0)
(42.8015 2.37449e-08 0)
(42.8011 2.46408e-08 0)
(42.8005 2.55896e-08 0)
(42.7997 2.65922e-08 0)
(42.7987 2.75796e-08 0)
(42.7975 2.8545e-08 0)
(42.796 2.94872e-08 0)
(42.7944 3.04011e-08 0)
(42.7926 3.12842e-08 0)
(42.7906 3.21381e-08 0)
(42.7884 3.29522e-08 0)
(42.786 3.37209e-08 0)
(42.7835 3.44366e-08 0)
(42.7808 3.51e-08 0)
(42.778 3.5708e-08 0)
(42.7751 3.62623e-08 0)
(42.772 3.67623e-08 0)
(42.7688 3.72097e-08 0)
(42.7655 3.76069e-08 0)
(42.7621 3.79501e-08 0)
(42.7586 3.82432e-08 0)
(42.7551 3.84793e-08 0)
(42.7515 3.86671e-08 0)
(42.7479 3.87865e-08 0)
(42.7442 3.88687e-08 0)
(42.7405 3.88688e-08 0)
(42.7368 3.88487e-08 0)
(42.7331 3.87429e-08 0)
(42.7295 3.86385e-08 0)
(42.7258 3.84525e-08 0)
(42.7222 3.82071e-08 0)
(42.7186 3.79592e-08 0)
(42.7151 3.76308e-08 0)
(42.7116 3.73241e-08 0)
(42.7082 3.69717e-08 0)
(42.7049 3.6585e-08 0)
(42.7016 3.61829e-08 0)
(42.6984 3.57796e-08 0)
(42.6954 3.52795e-08 0)
(42.6924 3.48672e-08 0)
(42.6895 3.42788e-08 0)
(42.6867 3.40027e-08 0)
(42.684 3.3275e-08 0)
(42.6814 3.31292e-08 0)
(42.6789 3.21704e-08 0)
(42.6765 3.22096e-08 0)
(42.6743 3.107e-08 0)
(42.6721 3.13448e-08 0)
(42.67 2.99319e-08 0)
(42.6681 3.03459e-08 0)
(42.6662 2.93476e-08 0)
(42.6645 2.91194e-08 0)
(42.6628 2.85273e-08 0)
(42.6612 2.88776e-08 0)
(42.6598 2.68524e-08 0)
(42.6584 2.91878e-08 0)
(42.6571 2.5321e-08 0)
(42.6559 2.99677e-08 0)
(42.6547 2.93005e-08 0)
(42.6537 5.25236e-08 0)
(42.6527 1.38191e-07 0)
(42.6518 5.73196e-07 0)
(42.651 2.6521e-06 0)
(42.6502 1.26963e-05 0)
(42.6495 6.11391e-05 0)
(42.6489 0.000294959 0)
(42.6488 0.00142433 0)
(42.6503 0.00687462 0)
(42.6591 0.0330344 0)
(42.697 0.157558 0)
(42.8318 0.75414 0)
(43.3371 2.65127 0)
(42.7001 -0.000119139 0)
(42.7004 -0.000102303 0)
(42.7006 -9.96752e-05 0)
(42.7009 -0.00010379 0)
(42.7011 -0.000105914 0)
(42.7013 -0.000107178 0)
(42.7015 -0.000108205 0)
(42.7017 -0.000109124 0)
(42.702 -0.00010987 0)