/*--------------------------------*- C++ -*----------------------------------*\
| =========                 |                                                 |
| \\      /  F ield         | OpenFOAM: The Open Source CFD Toolbox           |
|  \\    /   O peration     | Version:  3.0.x                                 |
|   \\  /    A nd           | Web:      www.OpenFOAM.org                      |
|    \\/     M anipulation  |                                                 |
\*---------------------------------------------------------------------------*/
FoamFile
{
    version     2.0;
    format      ascii;
    class       surfaceScalarField;
    location    "0.37005";
    object      phi;
}
// * * * * * * * * * * * * * * * * * * * * * * * * * * * * * * * * * * * * * //

dimensions      [1 0 -1 0 0 0 0];

internalField   nonuniform List<scalar> 
53800
(
1.97754
0.00102707
1.97684
0.000695218
1.97616
0.000688454
1.97547
0.000690026
1.97478
0.000689935
1.97409
0.00068973
1.9734
0.000689597
1.97271
0.000689473
1.97203
0.000689344
1.97134
0.000689215
1.97065
0.000689084
1.96996
0.000688954
1.96927
0.000688826
1.96859
0.0006887
1.9679
0.000688557
1.96721
0.000688433
1.96652
0.000688295
1.96584
0.000688138
1.96515
0.000688131
1.96446
0.000687956
1.96377
0.000687836
1.96309
0.000687723
1.9624
0.000687615
1.96172
0.000687746
1.96103
0.000687368
1.96034
0.000687393
1.95966
0.000687309
1.95897
0.000687223
1.95828
0.000687124
1.9576
0.000687057
1.95691
0.000686966
1.95622
0.000686851
1.95554
0.000686862
1.95485
0.000686642
1.95417
0.000686598
1.95348
0.00068649
1.95279
0.000686408
1.95211
0.00068614
1.95142
0.00068596
1.95074
0.000685634
1.95006
0.000685163
1.94937
0.00068448
1.94869
0.000683498
1.948
0.000682104
1.94732
0.000680139
1.94664
0.000677486
1.94597
0.00067389
1.9453
0.000669065
1.94463
0.000662939
1.94398
0.000655285
1.94333
0.000645116
1.9427
0.00063329
1.94208
0.000618887
1.94148
0.0006019
1.94089
0.000582233
1.94033
0.000559866
1.93979
0.000534874
1.93928
0.00050743
1.9388
0.000477802
1.93836
0.000446349
1.93794
0.000413503
1.93756
0.000379754
1.93721
0.000345626
1.93689
0.000311652
1.93661
0.000278328
1.93636
0.000246148
1.93614
0.000215533
1.93595
0.000186826
1.93579
0.000160285
1.93565
0.000136094
1.93553
0.000114349
1.93544
9.50673e-05
1.93536
7.81992e-05
1.93529
6.36363e-05
1.93524
5.1227e-05
1.93519
4.07881e-05
1.93516
3.21187e-05
1.93513
2.50033e-05
1.93511
1.92423e-05
1.93509
1.46303e-05
1.93508
1.09823e-05
1.93507
8.13014e-06
1.93506
5.93009e-06
1.93506
4.24866e-06
1.93505
2.97881e-06
1.93505
2.03128e-06
1.93505
1.33155e-06
1.93505
8.20361e-07
1.93504
4.50738e-07
1.93504
1.86068e-07
1.93504
-9.74978e-10
1.93504
-1.29901e-07
1.93504
-2.16805e-07
1.93504
-2.74798e-07
1.93504
-3.13146e-07
1.93504
-3.38237e-07
1.93504
-3.54426e-07
1.93504
-3.64758e-07
1.93503
-3.71252e-07
1.93503
-3.75236e-07
1.93503
-3.77568e-07
1.93503
-3.78812e-07
1.93503
-3.79354e-07
1.93503
-3.80722e-07
1.93503
-3.7784e-07
1.93502
-3.79769e-07
1.93502
-3.79005e-07
1.93502
-3.78961e-07
1.93502
-3.78936e-07
1.93502
-3.77666e-07
1.93501
-3.77077e-07
1.93501
-3.76174e-07
1.93501
-3.76036e-07
1.93501
-3.75567e-07
1.935
-3.7505e-07
1.935
-3.74501e-07
1.935
-3.73977e-07
1.935
-3.73544e-07
1.935
-3.73224e-07
1.93499
-3.7302e-07
1.93499
-3.72922e-07
1.93499
-3.72926e-07
1.93499
-3.73038e-07
1.93499
-3.73235e-07
1.93498
-3.73522e-07
1.93498
-3.73882e-07
1.93498
-3.74312e-07
1.93498
-3.74821e-07
1.93498
-3.75381e-07
1.93498
-3.75974e-07
1.93498
-3.76604e-07
1.93498
-3.77251e-07
1.93497
-3.7787e-07
1.93497
-3.7847e-07
1.93497
-3.79041e-07
1.93497
-3.79827e-07
1.93497
-3.78932e-07
1.93497
-3.81591e-07
1.93497
-3.8174e-07
1.93497
-3.78466e-07
1.93497
-3.83319e-07
1.93498
-3.82344e-07
1.93498
-3.82712e-07
1.93498
-3.83123e-07
1.93498
-3.83487e-07
1.93498
-3.83818e-07
1.93498
-3.84134e-07
1.93498
-3.84414e-07
1.93498
-3.84654e-07
1.93498
-3.84873e-07
1.93499
-3.85051e-07
1.93499
-3.85207e-07
1.93499
-3.8528e-07
1.93499
-3.85266e-07
1.93499
-3.85207e-07
1.93499
-3.85087e-07
1.93499
-3.84985e-07
1.93499
-3.84898e-07
1.935
-3.84833e-07
1.935
-3.84753e-07
1.935
-3.84676e-07
1.935
-3.84589e-07
1.935
-3.84476e-07
1.935
-3.84371e-07
1.935
-3.84251e-07
1.935
-3.8412e-07
1.935
-3.8397e-07
1.93501
-3.83785e-07
1.93501
-3.83592e-07
1.93501
-3.83367e-07
1.93501
-3.83101e-07
1.93501
-3.82832e-07
1.93501
-3.82577e-07
1.93501
-3.82326e-07
1.93501
-3.82064e-07
1.93501
-3.81719e-07
1.93501
-3.81478e-07
1.93501
-3.81253e-07
1.93501
-3.80962e-07
1.93501
-3.80496e-07
1.93501
-3.79849e-07
1.93501
-3.7967e-07
1.93501
-3.807e-07
1.93501
-3.79314e-07
1.93501
-3.82737e-07
1.93501
-3.7584e-07
1.93501
-3.7974e-07
1.93501
-3.75694e-07
1.93501
-3.69284e-07
1.93501
-3.26574e-07
1.93501
-1.34351e-07
1.93501
8.12102e-07
1.935
5.51813e-06
1.93497
2.89003e-05
1.93483
0.000142748
1.93414
0.000689212
1.93085
0.00328882
1.91547
0.0153742
1.83893
0.0765387
0.263429
1.5755
2.27287
0.000991422
2.27289
0.000682615
2.27291
0.000669416
2.27292
0.000673074
2.27294
0.000673394
2.27296
0.000673457
2.27297
0.000673675
2.27299
0.00067391
2.27301
0.000674135
2.27302
0.000674359
2.27304
0.000674582
2.27305
0.000674805
2.27306
0.000675029
2.27308
0.000675255
2.27309
0.000675464
2.2731
0.000675692
2.27312
0.000675906
2.27313
0.000676103
2.27314
0.000676441
2.27315
0.000676619
2.27316
0.00067685
2.27317
0.000677088
2.27318
0.00067733
2.27319
0.000677801
2.2732
0.000677784
2.27321
0.000678153
2.27322
0.000678417
2.27323
0.000678679
2.27324
0.000678929
2.27325
0.000679206
2.27325
0.000679465
2.27326
0.000679698
2.27327
0.000680049
2.27327
0.000680179
2.27328
0.000680476
2.27328
0.000680707
2.27329
0.000680954
2.27329
0.000681017
2.2733
0.000681144
2.2733
0.000681109
2.27331
0.0006809
2.27331
0.00068044
2.27331
0.000679627
2.27331
0.000678333
2.27332
0.00067638
2.27332
0.00067362
2.27332
0.00066979
2.27332
0.000664574
2.27332
0.000657875
2.27333
0.000649449
2.27333
0.000638337
2.27334
0.000625346
2.27335
0.000609603
2.27335
0.000591117
2.27336
0.000569832
2.27337
0.000545779
2.27339
0.000519093
2.2734
0.000490014
2.27342
0.000458881
2.27343
0.000426119
2.27345
0.000392217
2.27347
0.000357716
2.27349
0.000323177
2.2735
0.00028914
2.27352
0.000256107
2.27354
0.000224555
2.27356
0.000194867
2.27357
0.000167343
2.27359
0.000142189
2.2736
0.000119528
2.27361
9.94017e-05
2.27362
8.17689e-05
2.27363
6.6529e-05
2.27363
5.35361e-05
2.27364
4.26015e-05
2.27364
3.35168e-05
2.27365
2.60757e-05
2.27365
2.00362e-05
2.27365
1.52166e-05
2.27365
1.14075e-05
2.27365
8.43461e-06
2.27365
6.14249e-06
2.27365
4.39703e-06
2.27365
3.08326e-06
2.27365
2.10463e-06
2.27365
1.3852e-06
2.27364
8.61946e-07
2.27364
4.85772e-07
2.27364
2.18359e-07
2.27364
3.04426e-08
2.27364
-1.00204e-07
2.27363
-1.89946e-07
2.27363
-2.51079e-07
2.27363
-2.92323e-07
2.27363
-3.19851e-07
2.27363
-3.38045e-07
2.27362
-3.49879e-07
2.27362
-3.57479e-07
2.27362
-3.62288e-07
2.27362
-3.65235e-07
2.27361
-3.66959e-07
2.27361
-3.67829e-07
2.27361
-3.68153e-07
2.27361
-3.69335e-07
2.2736
-3.66483e-07
2.2736
-3.68218e-07
2.2736
-3.67439e-07
2.27359
-3.67312e-07
2.27359
-3.6721e-07
2.27359
-3.65893e-07
2.27358
-3.65246e-07
2.27358
-3.64296e-07
2.27358
-3.6406e-07
2.27357
-3.63525e-07
2.27357
-3.62961e-07
2.27356
-3.62357e-07
2.27356
-3.61775e-07
2.27356
-3.61302e-07
2.27355
-3.60938e-07
2.27355
-3.60684e-07
2.27355
-3.60542e-07
2.27354
-3.60513e-07
2.27354
-3.60586e-07
2.27354
-3.60746e-07
2.27353
-3.60993e-07
2.27353
-3.61335e-07
2.27353
-3.61742e-07
2.27353
-3.62223e-07
2.27352
-3.62776e-07
2.27352
-3.6335e-07
2.27352
-3.63987e-07
2.27352
-3.64624e-07
2.27351
-3.65257e-07
2.27351
-3.65882e-07
2.27351
-3.66497e-07
2.27351
-3.6729e-07
2.27351
-3.66501e-07
2.27351
-3.69193e-07
2.27351
-3.694e-07
2.27351
-3.66355e-07
2.27351
-3.71103e-07
2.27351
-3.70299e-07
2.27351
-3.70754e-07
2.2735
-3.71248e-07
2.2735
-3.71696e-07
2.27351
-3.72092e-07
2.27351
-3.72493e-07
2.27351
-3.7282e-07
2.27351
-3.73097e-07
2.27351
-3.73322e-07
2.27351
-3.73504e-07
2.27351
-3.73642e-07
2.27351
-3.73668e-07
2.27351
-3.7358e-07
2.27351
-3.73479e-07
2.27351
-3.73275e-07
2.27351
-3.73071e-07
2.27351
-3.729e-07
2.27351
-3.72747e-07
2.27351
-3.72547e-07
2.27351
-3.72384e-07
2.27351
-3.72191e-07
2.27351
-3.71998e-07
2.27351
-3.71798e-07
2.27351
-3.71605e-07
2.27351
-3.71405e-07
2.27351
-3.71187e-07
2.27351
-3.70957e-07
2.27351
-3.70739e-07
2.27351
-3.70481e-07
2.27351
-3.70208e-07
2.27351
-3.69932e-07
2.27351
-3.69684e-07
2.27351
-3.69462e-07
2.27351
-3.69229e-07
2.27351
-3.68938e-07
2.27351
-3.68735e-07
2.27351
-3.6856e-07
2.27351
-3.68302e-07
2.2735
-3.67701e-07
2.2735
-3.67927e-07
2.2735
-3.65588e-07
2.2735
-3.69262e-07
2.2735
-3.66555e-07
2.2735
-3.73253e-07
2.2735
-3.60164e-07
2.2735
-3.68753e-07
2.27349
-3.61226e-07
2.27349
-3.44993e-07
2.27349
-2.62204e-07
2.27349
1.52519e-07
2.27349
2.2188e-06
2.27348
1.25171e-05
2.27344
6.36722e-05
2.27327
0.000312691
2.27245
0.00150772
2.26854
0.00719262
2.25025
0.0336615
2.16185
0.164942
0.554761
1.87051
2.61085
0.000950451
2.61086
0.000666371
2.61089
0.000646324
2.61091
0.000651656
2.61093
0.000652071
2.61095
0.000652035
2.61098
0.000652242
2.611
0.000652478
2.61102
0.000652697
2.61104
0.000652915
2.61106
0.000653133
2.61109
0.00065335
2.61111
0.000653571
2.61113
0.000653788
2.61115
0.000653994
2.61117
0.000654219
2.61119
0.000654427
2.61121
0.000654623
2.61124
0.000654947
2.61126
0.000655127
2.61128
0.000655353
2.6113
0.000655588
2.61132
0.000655826
2.61134
0.000656277
2.61137
0.000656275
2.61139
0.000656632
2.61141
0.000656892
2.61143
0.00065715
2.61145
0.000657399
2.61147
0.000657666
2.61149
0.000657924
2.61151
0.000658157
2.61154
0.000658497
2.61156
0.00065863
2.61158
0.000658923
2.6116
0.000659152
2.61162
0.000659394
2.61164
0.000659466
2.61166
0.000659592
2.61168
0.000659563
2.61171
0.000659366
2.61173
0.000658926
2.61175
0.000658145
2.61177
0.000656897
2.61178
0.000655012
2.6118
0.000652339
2.61182
0.000648636
2.61184
0.00064359
2.61186
0.000637104
2.61187
0.000628942
2.61189
0.000618185
2.61191
0.000605601
2.61193
0.000590356
2.61194
0.000572453
2.61196
0.000551839
2.61197
0.000528546
2.61198
0.000502704
2.61199
0.000474546
2.61201
0.000444399
2.61201
0.000412677
2.61202
0.000379853
2.61203
0.000346445
2.61203
0.000313009
2.61204
0.000280054
2.61204
0.000248072
2.61204
0.000217524
2.61205
0.000188778
2.61205
0.000162127
2.61205
0.00013777
2.61205
0.000115824
2.61204
9.6332e-05
2.61204
7.9253e-05
2.61204
6.449e-05
2.61204
5.19022e-05
2.61204
4.13071e-05
2.61203
3.25033e-05
2.61203
2.52911e-05
2.61203
1.94367e-05
2.61202
1.47638e-05
2.61202
1.10702e-05
2.61202
8.18695e-06
2.61202
5.96354e-06
2.61201
4.27008e-06
2.61201
2.99521e-06
2.61201
2.04539e-06
2.61201
1.34699e-06
2.612
8.38922e-07
2.612
4.73599e-07
2.612
2.13844e-07
2.612
3.12684e-08
2.61199
-9.57007e-08
2.61199
-1.8295e-07
2.61199
-2.42395e-07
2.61199
-2.8254e-07
2.61198
-3.09334e-07
2.61198
-3.27054e-07
2.61198
-3.38579e-07
2.61198
-3.45986e-07
2.61197
-3.50687e-07
2.61197
-3.53553e-07
2.61197
-3.55245e-07
2.61196
-3.56107e-07
2.61196
-3.56416e-07
2.61196
-3.57537e-07
2.61195
-3.54823e-07
2.61195
-3.56478e-07
2.61195
-3.55747e-07
2.61194
-3.55612e-07
2.61194
-3.55518e-07
2.61194
-3.54252e-07
2.61193
-3.53612e-07
2.61193
-3.52702e-07
2.61192
-3.52462e-07
2.61192
-3.51942e-07
2.61192
-3.51392e-07
2.61191
-3.50807e-07
2.61191
-3.50246e-07
2.6119
-3.49792e-07
2.6119
-3.49435e-07
2.61189
-3.49199e-07
2.61189
-3.4906e-07
2.61189
-3.49031e-07
2.61188
-3.4909e-07
2.61188
-3.49239e-07
2.61188
-3.49486e-07
2.61187
-3.49817e-07
2.61187
-3.50214e-07
2.61187
-3.50676e-07
2.61186
-3.51203e-07
2.61186
-3.51756e-07
2.61186
-3.52386e-07
2.61186
-3.52997e-07
2.61185
-3.53601e-07
2.61185
-3.54208e-07
2.61185
-3.54816e-07
2.61185
-3.55565e-07
2.61185
-3.54819e-07
2.61185
-3.57431e-07
2.61184
-3.57621e-07
2.61184
-3.54736e-07
2.61184
-3.59229e-07
2.61184
-3.58505e-07
2.61184
-3.58927e-07
2.61184
-3.59421e-07
2.61184
-3.59843e-07
2.61184
-3.60233e-07
2.61184
-3.60626e-07
2.61184
-3.60938e-07
2.61184
-3.61215e-07
2.61184
-3.6143e-07
2.61184
-3.61615e-07
2.61184
-3.61735e-07
2.61185
-3.61768e-07
2.61185
-3.61666e-07
2.61185
-3.6159e-07
2.61185
-3.61382e-07
2.61185
-3.61182e-07
2.61185
-3.61029e-07
2.61185
-3.60884e-07
2.61185
-3.60673e-07
2.61185
-3.60527e-07
2.61185
-3.60335e-07
2.61185
-3.60149e-07
2.61185
-3.59945e-07
2.61185
-3.59763e-07
2.61185
-3.59571e-07
2.61185
-3.5936e-07
2.61185
-3.59152e-07
2.61185
-3.58934e-07
2.61185
-3.58672e-07
2.61185
-3.5841e-07
2.61185
-3.58144e-07
2.61185
-3.57908e-07
2.61185
-3.57697e-07
2.61185
-3.57461e-07
2.61185
-3.5718e-07
2.61184
-3.56977e-07
2.61184
-3.56813e-07
2.61184
-3.56526e-07
2.61184
-3.55732e-07
2.61184
-3.56638e-07
2.61184
-3.52247e-07
2.61184
-3.5865e-07
2.61184
-3.54357e-07
2.61183
-3.61877e-07
2.61183
-3.47311e-07
2.61183
-3.58814e-07
2.61183
-3.46456e-07
2.61183
-3.1904e-07
2.61183
-1.91227e-07
2.61182
4.68466e-07
2.61182
3.75034e-06
2.61181
2.01039e-05
2.61177
0.000101342
2.61158
0.000496901
2.61069
0.00239575
2.60644
0.0114407
2.58655
0.0535537
2.48885
0.262635
0.876645
2.16697
2.99908
0.000904573
2.9991
0.000646946
2.99912
0.000620102
2.99915
0.000627019
2.99917
0.000627574
2.9992
0.000627426
2.99922
0.000627619
2.99925
0.000627852
2.99927
0.000628063
2.9993
0.000628273
2.99932
0.000628482
2.99935
0.000628691
2.99937
0.000628905
2.9994
0.000629108
2.99942
0.00062931
2.99945
0.000629526
2.99947
0.000629726
2.9995
0.000629917
2.99952
0.000630223
2.99955
0.0006304
2.99957
0.000630617
2.99959
0.000630844
2.99962
0.000631074
2.99965
0.0006315
2.99967
0.000631508
2.9997
0.000631847
2.99972
0.000632097
2.99975
0.000632346
2.99977
0.000632588
2.9998
0.00063284
2.99982
0.000633091
2.99984
0.000633317
2.99987
0.00063364
2.99989
0.00063377
2.99992
0.000634052
2.99994
0.000634273
2.99996
0.000634503
2.99999
0.000634579
3.00001
0.000634697
3.00004
0.00063467
3.00006
0.000634482
3.00009
0.00063406
3.00011
0.000633311
3.00013
0.000632112
3.00015
0.000630306
3.00018
0.000627733
3.0002
0.00062418
3.00022
0.000619335
3.00024
0.000613104
3.00026
0.00060526
3.00028
0.00059493
3.0003
0.000582836
3.00032
0.000568188
3.00034
0.000550982
3.00035
0.00053117
3.00037
0.000508779
3.00038
0.000483937
3.0004
0.000456864
3.00041
0.000427876
3.00042
0.000397369
3.00043
0.0003658
3.00044
0.00033366
3.00044
0.000301495
3.00045
0.000269785
3.00045
0.000239007
3.00045
0.000209603
3.00045
0.000181931
3.00046
0.000156271
3.00045
0.000132815
3.00045
0.000111678
3.00045
9.28997e-05
3.00045
7.64435e-05
3.00045
6.22161e-05
3.00044
5.00824e-05
3.00044
3.98674e-05
3.00044
3.13776e-05
3.00043
2.44208e-05
3.00043
1.87727e-05
3.00043
1.42632e-05
3.00043
1.0698e-05
3.00042
7.91416e-06
3.00042
5.7669e-06
3.00042
4.131e-06
3.00041
2.89907e-06
3.00041
1.98102e-06
3.00041
1.30575e-06
3.0004
8.14387e-07
3.0004
4.60939e-07
3.0004
2.09555e-07
3.0004
3.28255e-08
3.00039
-9.01746e-08
3.00039
-1.74703e-07
3.00039
-2.3231e-07
3.00039
-2.7124e-07
3.00038
-2.97219e-07
3.00038
-3.1442e-07
3.00038
-3.25606e-07
3.00037
-3.32806e-07
3.00037
-3.37372e-07
3.00037
-3.40151e-07
3.00036
-3.41799e-07
3.00036
-3.42632e-07
3.00036
-3.42963e-07
3.00035
-3.44015e-07
3.00035
-3.41457e-07
3.00034
-3.43e-07
3.00034
-3.42337e-07
3.00034
-3.42177e-07
3.00033
-3.42097e-07
3.00033
-3.4089e-07
3.00032
-3.40267e-07
3.00032
-3.39409e-07
3.00031
-3.39154e-07
3.00031
-3.38659e-07
3.0003
-3.38143e-07
3.0003
-3.37564e-07
3.00029
-3.3703e-07
3.00029
-3.36604e-07
3.00028
-3.3624e-07
3.00028
-3.36026e-07
3.00028
-3.35887e-07
3.00027
-3.35858e-07
3.00027
-3.3592e-07
3.00026
-3.36044e-07
3.00026
-3.36295e-07
3.00025
-3.36611e-07
3.00025
-3.3699e-07
3.00025
-3.37433e-07
3.00024
-3.3795e-07
3.00024
-3.38481e-07
3.00024
-3.39089e-07
3.00023
-3.39667e-07
3.00023
-3.40253e-07
3.00023
-3.40839e-07
3.00023
-3.41413e-07
3.00023
-3.42134e-07
3.00022
-3.41435e-07
3.00022
-3.43931e-07
3.00022
-3.44106e-07
3.00022
-3.41399e-07
3.00022
-3.45615e-07
3.00022
-3.4499e-07
3.00022
-3.45372e-07
3.00022
-3.45848e-07
3.00022
-3.46259e-07
3.00022
-3.46627e-07
3.00022
-3.47016e-07
3.00022
-3.47325e-07
3.00022
-3.47583e-07
3.00022
-3.4778e-07
3.00022
-3.47976e-07
3.00022
-3.48078e-07
3.00022
-3.48115e-07
3.00022
-3.47998e-07
3.00022
-3.47947e-07
3.00022
-3.47743e-07
3.00023
-3.47536e-07
3.00023
-3.47402e-07
3.00023
-3.47281e-07
3.00023
-3.47056e-07
3.00023
-3.46929e-07
3.00023
-3.46736e-07
3.00023
-3.46554e-07
3.00023
-3.46372e-07
3.00023
-3.46186e-07
3.00023
-3.45994e-07
3.00023
-3.4579e-07
3.00023
-3.45604e-07
3.00023
-3.45382e-07
3.00023
-3.45131e-07
3.00023
-3.44888e-07
3.00023
-3.44618e-07
3.00023
-3.44407e-07
3.00022
-3.44196e-07
3.00022
-3.43971e-07
3.00022
-3.43716e-07
3.00022
-3.43505e-07
3.00022
-3.43338e-07
3.00022
-3.43021e-07
3.00022
-3.42006e-07
3.00022
-3.43764e-07
3.00022
-3.36859e-07
3.00021
-3.46492e-07
3.00021
-3.40358e-07
3.00021
-3.4886e-07
3.00021
-3.32544e-07
3.00021
-3.47354e-07
3.00021
-3.29725e-07
3.0002
-2.89139e-07
3.0002
-1.10307e-07
3.0002
8.28994e-07
3.00019
5.49741e-06
3.00018
2.87577e-05
3.00014
0.000144311
2.99993
0.000707049
2.99891
0.00340911
2.99406
0.016291
2.97142
0.0761867
2.86116
0.372896
1.23359
2.50421
3.44503
0.000853423
3.44506
0.000623675
3.44509
0.000590334
3.44512
0.000598688
3.44514
0.00059942
3.44517
0.000599158
3.4452
0.000599334
3.44523
0.000599562
3.44526
0.000599764
3.44529
0.000599965
3.44532
0.000600164
3.44535
0.000600364
3.44537
0.000600571
3.4454
0.000600758
3.44543
0.000600955
3.44546
0.000601162
3.44549
0.000601351
3.44552
0.000601537
3.44554
0.000601822
3.44557
0.000601995
3.4456
0.000602202
3.44563
0.00060242
3.44566
0.00060264
3.44569
0.000603038
3.44572
0.000603057
3.44575
0.000603376
3.44578
0.000603616
3.4458
0.000603853
3.44583
0.000604087
3.44586
0.000604322
3.44589
0.000604565
3.44591
0.000604783
3.44594
0.000605087
3.44597
0.000605213
3.446
0.000605482
3.44602
0.000605694
3.44605
0.00060591
3.44608
0.000605989
3.44611
0.000606099
3.44614
0.000606074
3.44617
0.000605895
3.44619
0.000605494
3.44622
0.000604781
3.44625
0.00060364
3.44627
0.000601922
3.4463
0.000599466
3.44632
0.000596082
3.44634
0.000591466
3.44637
0.000585527
3.44639
0.000578047
3.44642
0.000568203
3.44644
0.00055667
3.44646
0.000542705
3.44648
0.000526297
3.4465
0.000507402
3.44652
0.000486045
3.44654
0.000462347
3.44655
0.000436518
3.44656
0.000408858
3.44658
0.000379745
3.44659
0.000349616
3.4466
0.00031893
3.4466
0.000288226
3.44661
0.000257945
3.44661
0.000228551
3.44662
0.000200464
3.44662
0.000174027
3.44662
0.000149507
3.44662
0.000127089
3.44662
0.000106884
3.44661
8.89293e-05
3.44661
7.31917e-05
3.44661
5.95826e-05
3.44661
4.79735e-05
3.4466
3.81979e-05
3.4466
3.00713e-05
3.44659
2.34103e-05
3.44659
1.80012e-05
3.44659
1.36811e-05
3.44658
1.02648e-05
3.44658
7.5964e-06
3.44658
5.53759e-06
3.44657
3.9686e-06
3.44657
2.78665e-06
3.44657
1.90561e-06
3.44656
1.2573e-06
3.44656
7.85405e-07
3.44656
4.45831e-07
3.44655
2.04218e-07
3.44655
3.42934e-08
3.44655
-8.40155e-08
3.44654
-1.65363e-07
3.44654
-2.20818e-07
3.44654
-2.5832e-07
3.44654
-2.83349e-07
3.44653
-2.99926e-07
3.44653
-3.10727e-07
3.44652
-3.17674e-07
3.44652
-3.22079e-07
3.44652
-3.24757e-07
3.44651
-3.26361e-07
3.44651
-3.27173e-07
3.4465
-3.27502e-07
3.4465
-3.28475e-07
3.4465
-3.26083e-07
3.44649
-3.27529e-07
3.44649
-3.26922e-07
3.44648
-3.2676e-07
3.44648
-3.26672e-07
3.44647
-3.25535e-07
3.44647
-3.24933e-07
3.44646
-3.24128e-07
3.44645
-3.23858e-07
3.44645
-3.23405e-07
3.44644
-3.22916e-07
3.44644
-3.22358e-07
3.44643
-3.21839e-07
3.44643
-3.21445e-07
3.44642
-3.21086e-07
3.44642
-3.20888e-07
3.44641
-3.20755e-07
3.44641
-3.20735e-07
3.4464
-3.20786e-07
3.4464
-3.20901e-07
3.44639
-3.21137e-07
3.44639
-3.21439e-07
3.44638
-3.21801e-07
3.44638
-3.22223e-07
3.44637
-3.22718e-07
3.44637
-3.23224e-07
3.44637
-3.23798e-07
3.44636
-3.24364e-07
3.44636
-3.24921e-07
3.44636
-3.25477e-07
3.44636
-3.26027e-07
3.44635
-3.26692e-07
3.44635
-3.26054e-07
3.44635
-3.28428e-07
3.44635
-3.28579e-07
3.44635
-3.26076e-07
3.44635
-3.29981e-07
3.44635
-3.29454e-07
3.44635
-3.29803e-07
3.44635
-3.30263e-07
3.44635
-3.30652e-07
3.44635
-3.31005e-07
3.44635
-3.31378e-07
3.44635
-3.31675e-07
3.44635
-3.31916e-07
3.44635
-3.32102e-07
3.44635
-3.32302e-07
3.44635
-3.32384e-07
3.44635
-3.32424e-07
3.44635
-3.323e-07
3.44635
-3.32278e-07
3.44635
-3.32067e-07
3.44635
-3.31871e-07
3.44635
-3.31751e-07
3.44636
-3.31649e-07
3.44636
-3.31416e-07
3.44636
-3.31302e-07
3.44636
-3.31114e-07
3.44636
-3.30936e-07
3.44636
-3.3077e-07
3.44636
-3.30596e-07
3.44636
-3.3041e-07
3.44636
-3.30207e-07
3.44636
-3.30039e-07
3.44636
-3.29828e-07
3.44636
-3.29572e-07
3.44636
-3.29357e-07
3.44635
-3.29095e-07
3.44635
-3.28888e-07
3.44635
-3.2869e-07
3.44635
-3.28473e-07
3.44635
-3.28233e-07
3.44635
-3.28026e-07
3.44635
-3.27869e-07
3.44635
-3.27516e-07
3.44635
-3.26227e-07
3.44634
-3.29066e-07
3.44634
-3.19096e-07
3.44634
-3.32544e-07
3.44634
-3.24257e-07
3.44634
-3.33928e-07
3.44634
-3.15526e-07
3.44633
-3.34087e-07
3.44633
-3.10751e-07
3.44633
-2.54791e-07
3.44633
-1.82936e-08
3.44632
1.23889e-06
3.44632
7.48302e-06
3.44631
3.85916e-05
3.44625
0.000193141
3.44601
0.000945919
3.44486
0.00456148
3.43933
0.0218119
3.4136
0.101918
3.28925
0.497239
1.62879
2.89405
3.9573
0.000796546
3.95733
0.000595777
3.95736
0.000556543
3.9574
0.000566116
3.95743
0.000567062
3.95746
0.000566686
3.9575
0.000566844
3.95753
0.000567066
3.95756
0.000567258
3.9576
0.000567449
3.95763
0.000567636
3.95766
0.000567825
3.9577
0.000568023
3.95773
0.000568194
3.95776
0.000568385
3.95779
0.00056858
3.95783
0.000568758
3.95786
0.000568936
3.95789
0.0005692
3.95792
0.000569368
3.95795
0.000569562
3.95799
0.00056977
3.95802
0.000569979
3.95805
0.000570346
3.95809
0.000570376
3.95812
0.000570672
3.95816
0.000570899
3.95819
0.000571124
3.95822
0.000571348
3.95825
0.000571564
3.95828
0.000571797
3.95831
0.000572006
3.95835
0.000572289
3.95838
0.00057241
3.95841
0.000572664
3.95844
0.000572865
3.95847
0.000573066
3.95851
0.000573148
3.95854
0.000573249
3.95857
0.000573226
3.95861
0.000573058
3.95864
0.000572681
3.95867
0.000572008
3.9587
0.000570932
3.95873
0.000569315
3.95875
0.000566992
3.95878
0.000563802
3.95881
0.000559448
3.95884
0.000553842
3.95886
0.000546779
3.95889
0.00053749
3.95892
0.000526599
3.95894
0.000513414
3.95897
0.000497919
3.95899
0.000480073
3.95901
0.0004599
3.95903
0.000437512
3.95905
0.000413107
3.95906
0.000386969
3.95908
0.000359453
3.95909
0.000330974
3.9591
0.000301958
3.95911
0.000272929
3.95911
0.00024429
3.95912
0.000216485
3.95912
0.000189912
3.95912
0.000164895
3.95912
0.000141688
3.95912
0.000120465
3.95912
0.000101334
3.95912
8.43291e-05
3.95912
6.9421e-05
3.95911
5.6526e-05
3.95911
4.55234e-05
3.95911
3.62561e-05
3.9591
2.85503e-05
3.9591
2.22322e-05
3.95909
1.71005e-05
3.95909
1.30005e-05
3.95908
9.75743e-06
3.95908
7.2236e-06
3.95908
5.268e-06
3.95907
3.77722e-06
3.95907
2.65376e-06
3.95907
1.81608e-06
3.95906
1.19946e-06
3.95906
7.50462e-07
3.95905
4.27252e-07
3.95905
1.97199e-07
3.95905
3.53666e-08
3.95904
-7.74271e-08
3.95904
-1.54967e-07
3.95904
-2.07862e-07
3.95903
-2.43643e-07
3.95903
-2.67529e-07
3.95903
-2.83359e-07
3.95902
-2.93678e-07
3.95902
-3.00322e-07
3.95901
-3.04539e-07
3.95901
-3.07094e-07
3.959
-3.08636e-07
3.959
-3.09415e-07
3.95899
-3.09742e-07
3.95899
-3.10639e-07
3.95898
-3.08435e-07
3.95898
-3.09763e-07
3.95897
-3.09208e-07
3.95897
-3.09048e-07
3.95896
-3.08959e-07
3.95896
-3.07897e-07
3.95895
-3.07321e-07
3.95894
-3.06576e-07
3.95894
-3.06293e-07
3.95893
-3.05879e-07
3.95892
-3.0542e-07
3.95892
-3.04888e-07
3.95891
-3.04392e-07
3.95891
-3.04027e-07
3.9589
-3.03685e-07
3.95889
-3.03492e-07
3.95889
-3.03367e-07
3.95888
-3.03353e-07
3.95888
-3.03402e-07
3.95887
-3.03509e-07
3.95886
-3.03733e-07
3.95886
-3.04018e-07
3.95885
-3.04356e-07
3.95885
-3.04754e-07
3.95885
-3.05227e-07
3.95884
-3.05707e-07
3.95884
-3.06245e-07
3.95883
-3.06774e-07
3.95883
-3.07312e-07
3.95883
-3.07836e-07
3.95882
-3.08354e-07
3.95882
-3.08964e-07
3.95882
-3.08387e-07
3.95882
-3.10621e-07
3.95882
-3.10754e-07
3.95882
-3.08476e-07
3.95881
-3.1204e-07
3.95881
-3.11605e-07
3.95881
-3.11928e-07
3.95881
-3.12362e-07
3.95881
-3.12727e-07
3.95881
-3.13062e-07
3.95881
-3.13409e-07
3.95881
-3.13702e-07
3.95882
-3.13925e-07
3.95882
-3.14094e-07
3.95882
-3.14293e-07
3.95882
-3.14368e-07
3.95882
-3.1441e-07
3.95882
-3.14277e-07
3.95882
-3.14282e-07
3.95882
-3.14066e-07
3.95882
-3.13875e-07
3.95882
-3.13769e-07
3.95882
-3.13689e-07
3.95882
-3.13449e-07
3.95882
-3.13352e-07
3.95882
-3.13162e-07
3.95882
-3.12995e-07
3.95882
-3.12848e-07
3.95882
-3.12682e-07
3.95882
-3.12501e-07
3.95882
-3.12299e-07
3.95882
-3.12157e-07
3.95882
-3.1196e-07
3.95882
-3.11706e-07
3.95882
-3.11506e-07
3.95882
-3.11258e-07
3.95882
-3.11058e-07
3.95882
-3.10874e-07
3.95882
-3.10671e-07
3.95882
-3.10441e-07
3.95882
-3.10247e-07
3.95882
-3.10093e-07
3.95881
-3.09701e-07
3.95881
-3.08096e-07
3.95881
-3.1226e-07
3.95881
-2.98591e-07
3.95881
-3.16547e-07
3.9588
-3.05728e-07
3.9588
-3.16827e-07
3.9588
-2.9591e-07
3.9588
-3.18822e-07
3.9588
-2.89264e-07
3.95879
-2.15526e-07
3.95879
8.59573e-08
3.95879
1.70223e-06
3.95878
9.72649e-06
3.95877
4.97002e-05
3.95871
0.000248299
3.95844
0.00121584
3.95713
0.00586429
3.95088
0.0280594
3.92179
0.131004
3.78241
0.636609
2.06444
3.34677
17.2637
0.000570122
17.2639
0.000461079
17.264
0.00041364
17.2642
0.000423958
17.2643
0.000425722
17.2645
0.000425064
17.2646
0.000425131
17.2648
0.000425306
17.2649
0.000425448
17.265
0.000425592
17.2652
0.000425728
17.2653
0.000425867
17.2655
0.000426022
17.2656
0.00042613
17.2658
0.000426287
17.2659
0.000426432
17.266
0.000426563
17.2662
0.000426703
17.2663
0.000426884
17.2665
0.000427021
17.2666
0.000427166
17.2667
0.000427325
17.2669
0.000427483
17.267
0.000427737
17.2672
0.000427788
17.2673
0.000427998
17.2675
0.00042817
17.2676
0.000428338
17.2678
0.000428513
17.2679
0.000428661
17.268
0.000428844
17.2682
0.000429008
17.2683
0.000429207
17.2685
0.000429304
17.2686
0.000429494
17.2687
0.000429646
17.2689
0.000429788
17.269
0.000429867
17.2692
0.000429936
17.2693
0.000429921
17.2695
0.000429797
17.2696
0.000429518
17.2697
0.000429019
17.2698
0.00042822
17.27
0.000427024
17.2701
0.000425284
17.2702
0.000422915
17.2703
0.000419679
17.2705
0.000415503
17.2706
0.000410232
17.2707
0.00040332
17.2708
0.000395194
17.2709
0.000385364
17.271
0.000373804
17.2711
0.000360485
17.2712
0.000345422
17.2713
0.000328699
17.2714
0.000310461
17.2714
0.000290919
17.2715
0.000270336
17.2716
0.000249025
17.2716
0.000227284
17.2716
0.000205546
17.2717
0.000184074
17.2717
0.000163214
17.2717
0.000143267
17.2717
0.000124474
17.2717
0.000107029
17.2717
9.10635e-05
17.2717
7.66609e-05
17.2717
6.38476e-05
17.2717
5.26054e-05
17.2717
4.28727e-05
17.2717
3.45604e-05
17.2716
2.75526e-05
17.2716
2.17198e-05
17.2716
1.6932e-05
17.2716
1.30396e-05
17.2716
9.92592e-06
17.2716
7.46023e-06
17.2715
5.53143e-06
17.2715
4.0409e-06
17.2715
2.90321e-06
17.2715
2.04454e-06
17.2715
1.40348e-06
17.2715
9.30834e-07
17.2714
5.86159e-07
17.2714
3.37648e-07
17.2714
1.60417e-07
17.2714
3.53207e-08
17.2714
-5.14856e-08
17.2714
-1.11615e-07
17.2713
-1.52654e-07
17.2713
-1.80496e-07
17.2713
-1.99112e-07
17.2713
-2.11483e-07
17.2713
-2.19557e-07
17.2713
-2.24775e-07
17.2712
-2.28097e-07
17.2712
-2.30109e-07
17.2712
-2.31353e-07
17.2712
-2.31982e-07
17.2712
-2.32272e-07
17.2711
-2.3288e-07
17.2711
-2.3138e-07
17.2711
-2.32282e-07
17.2711
-2.31925e-07
17.271
-2.31773e-07
17.271
-2.31695e-07
17.271
-2.30928e-07
17.271
-2.30473e-07
17.2709
-2.29962e-07
17.2709
-2.29695e-07
17.2709
-2.294e-07
17.2709
-2.29074e-07
17.2708
-2.2866e-07
17.2708
-2.28281e-07
17.2708
-2.28033e-07
17.2707
-2.27758e-07
17.2707
-2.27622e-07
17.2707
-2.27526e-07
17.2707
-2.27517e-07
17.2706
-2.27556e-07
17.2706
-2.27633e-07
17.2706
-2.27804e-07
17.2706
-2.28016e-07
17.2705
-2.2827e-07
17.2705
-2.28566e-07
17.2705
-2.28919e-07
17.2705
-2.29284e-07
17.2705
-2.29684e-07
17.2705
-2.3008e-07
17.2704
-2.30486e-07
17.2704
-2.30878e-07
17.2704
-2.31262e-07
17.2704
-2.31673e-07
17.2704
-2.31316e-07
17.2704
-2.32978e-07
17.2704
-2.33018e-07
17.2704
-2.3156e-07
17.2704
-2.33884e-07
17.2704
-2.33722e-07
17.2704
-2.33944e-07
17.2704
-2.34282e-07
17.2704
-2.34533e-07
17.2704
-2.3479e-07
17.2704
-2.3505e-07
17.2704
-2.35286e-07
17.2704
-2.35461e-07
17.2704
-2.35554e-07
17.2704
-2.35741e-07
17.2704
-2.35757e-07
17.2704
-2.35821e-07
17.2704
-2.35636e-07
17.2704
-2.35804e-07
17.2704
-2.35524e-07
17.2704
-2.35376e-07
17.2704
-2.35309e-07
17.2704
-2.35338e-07
17.2704
-2.35059e-07
17.2704
-2.35036e-07
17.2704
-2.34847e-07
17.2704
-2.34746e-07
17.2704
-2.34649e-07
17.2704
-2.34523e-07
17.2704
-2.34369e-07
17.2704
-2.34179e-07
17.2704
-2.34144e-07
17.2704
-2.34012e-07
17.2704
-2.33747e-07
17.2704
-2.33638e-07
17.2704
-2.33437e-07
17.2704
-2.33295e-07
17.2704
-2.33149e-07
17.2704
-2.33001e-07
17.2704
-2.32831e-07
17.2704
-2.32677e-07
17.2704
-2.32537e-07
17.2704
-2.32009e-07
17.2704
-2.28892e-07
17.2704
-2.40563e-07
17.2704
-2.07249e-07
17.2703
-2.47319e-07
17.2703
-2.24406e-07
17.2703
-2.42932e-07
17.2703
-2.09564e-07
17.2703
-2.53089e-07
17.2703
-1.97171e-07
17.2703
-4.88412e-08
17.2703
5.17161e-07
17.2703
3.60267e-06
17.2702
1.89128e-05
17.2702
9.5147e-05
17.2699
0.000473918
17.2688
0.00232081
17.2635
0.0111983
17.238
0.0535305
17.1196
0.249366
16.6022
1.15394
3.76436
14.9023
17.2637
0.000367736
17.2639
0.000313369
17.264
0.000274441
17.2642
0.000282154
17.2643
0.000284004
17.2645
0.000283379
17.2646
0.000283392
17.2647
0.000283522
17.2649
0.000283618
17.265
0.000283723
17.2652
0.000283813
17.2653
0.000283908
17.2655
0.000284016
17.2656
0.00028408
17.2657
0.000284193
17.2659
0.00028429
17.266
0.000284376
17.2662
0.000284473
17.2663
0.000284587
17.2665
0.000284683
17.2666
0.000284779
17.2667
0.000284887
17.2669
0.000284993
17.267
0.000285152
17.2672
0.000285198
17.2673
0.000285333
17.2675
0.000285448
17.2676
0.000285561
17.2678
0.00028568
17.2679
0.000285772
17.268
0.000285897
17.2682
0.000286009
17.2683
0.000286137
17.2684
0.000286203
17.2686
0.00028633
17.2687
0.000286432
17.2689
0.000286523
17.269
0.000286584
17.2691
0.000286627
17.2693
0.000286617
17.2694
0.000286536
17.2696