/*--------------------------------*- C++ -*----------------------------------*\
| =========                 |                                                 |
| \\      /  F ield         | OpenFOAM: The Open Source CFD Toolbox           |
|  \\    /   O peration     | Version:  3.0.x                                 |
|   \\  /    A nd           | Web:      www.OpenFOAM.org                      |
|    \\/     M anipulation  |                                                 |
\*---------------------------------------------------------------------------*/
FoamFile
{
    version     2.0;
    format      ascii;
    class       volVectorField;
    location    "0.37005";
    object      U;
}
// * * * * * * * * * * * * * * * * * * * * * * * * * * * * * * * * * * * * * //

dimensions      [0 1 -1 0 0 0 0];

internalField   nonuniform List<vector> 
27600
(
(42.685 0.000288118 0)
(42.6703 0.000241396 0)
(42.6555 0.000238368 0)
(42.6406 0.000240609 0)
(42.6258 0.000242861 0)
(42.6109 0.000244883 0)
(42.596 0.000246654 0)
(42.5812 0.000248189 0)
(42.5663 0.000249526 0)
(42.5515 0.000250701 0)
(42.5366 0.000251743 0)
(42.5218 0.000252676 0)
(42.5069 0.000253516 0)
(42.4921 0.000254279 0)
(42.4772 0.000254971 0)
(42.4624 0.000255608 0)
(42.4475 0.000256191 0)
(42.4327 0.000256726 0)
(42.4179 0.000257252 0)
(42.403 0.000257709 0)
(42.3882 0.000258141 0)
(42.3734 0.000258545 0)
(42.3585 0.000258925 0)
(42.3437 0.000259329 0)
(42.3289 0.000259603 0)
(42.3141 0.000259936 0)
(42.2992 0.000260228 0)
(42.2844 0.0002605 0)
(42.2696 0.000260751 0)
(42.2548 0.000260991 0)
(42.2399 0.000261212 0)
(42.2251 0.00026141 0)
(42.2103 0.000261621 0)
(42.1955 0.00026177 0)
(42.1807 0.000261939 0)
(42.1659 0.000262085 0)
(42.151 0.00026222 0)
(42.1362 0.000262301 0)
(42.1214 0.000262379 0)
(42.1066 0.000262405 0)
(42.0918 0.000262371 0)
(42.077 0.000262253 0)
(42.0622 0.000262022 0)
(42.0475 0.000261636 0)
(42.0327 0.000261043 0)
(42.018 0.000260191 0)
(42.0034 0.000258997 0)
(41.9889 0.000257363 0)
(41.9745 0.000255236 0)
(41.9602 0.000252526 0)
(41.9461 0.000248974 0)
(41.9323 0.000244717 0)
(41.9187 0.000239536 0)
(41.9055 0.000233383 0)
(41.8926 0.000226215 0)
(41.8802 0.000218016 0)
(41.8684 0.000208803 0)
(41.857 0.00019863 0)
(41.8463 0.000187587 0)
(41.8363 0.000175799 0)
(41.827 0.00016342 0)
(41.8183 0.000150628 0)
(41.8104 0.000137617 0)
(41.8033 0.000124589 0)
(41.7969 0.000111738 0)
(41.7911 9.92526e-05 0)
(41.7861 8.73016e-05 0)
(41.7817 7.60269e-05 0)
(41.7779 6.55397e-05 0)
(41.7747 5.59218e-05 0)
(41.7719 4.72227e-05 0)
(41.7696 3.9461e-05 0)
(41.7677 3.26285e-05 0)
(41.7661 2.66928e-05 0)
(41.7648 2.16033e-05 0)
(41.7638 1.72951e-05 0)
(41.763 1.36946e-05 0)
(41.7623 1.0722e-05 0)
(41.7618 8.29931e-06 0)
(41.7614 6.34806e-06 0)
(41.7611 4.79527e-06 0)
(41.7608 3.57405e-06 0)
(41.7607 2.62558e-06 0)
(41.7605 1.89668e-06 0)
(41.7604 1.34306e-06 0)
(41.7603 9.27381e-07 0)
(41.7603 6.18675e-07 0)
(41.7602 3.91896e-07 0)
(41.7602 2.27009e-07 0)
(41.7602 1.07984e-07 0)
(41.7602 2.27777e-08 0)
(41.7601 -3.6539e-08 0)
(41.7601 -7.67139e-08 0)
(41.7601 -1.03578e-07 0)
(41.7601 -1.21346e-07 0)
(41.7601 -1.33003e-07 0)
(41.76 -1.40574e-07 0)
(41.76 -1.45425e-07 0)
(41.76 -1.48507e-07 0)
(41.76 -1.50404e-07 0)
(41.7599 -1.5157e-07 0)
(41.7599 -1.52264e-07 0)
(41.7599 -1.52675e-07 0)
(41.7598 -1.53127e-07 0)
(41.7598 -1.52652e-07 0)
(41.7598 -1.53146e-07 0)
(41.7597 -1.53132e-07 0)
(41.7597 -1.5319e-07 0)
(41.7597 -1.5326e-07 0)
(41.7596 -1.53011e-07 0)
(41.7596 -1.52947e-07 0)
(41.7595 -1.5281e-07 0)
(41.7595 -1.52691e-07 0)
(41.7594 -1.52542e-07 0)
(41.7594 -1.52354e-07 0)
(41.7593 -1.52144e-07 0)
(41.7593 -1.51932e-07 0)
(41.7592 -1.51751e-07 0)
(41.7592 -1.51549e-07 0)
(41.7591 -1.51406e-07 0)
(41.7591 -1.51292e-07 0)
(41.759 -1.51228e-07 0)
(41.759 -1.5119e-07 0)
(41.7589 -1.51194e-07 0)
(41.7589 -1.51227e-07 0)
(41.7589 -1.51278e-07 0)
(41.7588 -1.51363e-07 0)
(41.7588 -1.51469e-07 0)
(41.7588 -1.51593e-07 0)
(41.7587 -1.51736e-07 0)
(41.7587 -1.51864e-07 0)
(41.7587 -1.51986e-07 0)
(41.7587 -1.52121e-07 0)
(41.7587 -1.52225e-07 0)
(41.7586 -1.52315e-07 0)
(41.7586 -1.52443e-07 0)
(41.7586 -1.52227e-07 0)
(41.7586 -1.52712e-07 0)
(41.7586 -1.52694e-07 0)
(41.7586 -1.51965e-07 0)
(41.7587 -1.52855e-07 0)
(41.7587 -1.52635e-07 0)
(41.7587 -1.52637e-07 0)
(41.7587 -1.52663e-07 0)
(41.7587 -1.52681e-07 0)
(41.7588 -1.52704e-07 0)
(41.7588 -1.52745e-07 0)
(41.7588 -1.52776e-07 0)
(41.7588 -1.52784e-07 0)
(41.7589 -1.52814e-07 0)
(41.7589 -1.52861e-07 0)
(41.7589 -1.52906e-07 0)
(41.759 -1.52924e-07 0)
(41.759 -1.52917e-07 0)
(41.759 -1.52924e-07 0)
(41.7591 -1.52927e-07 0)
(41.7591 -1.52934e-07 0)
(41.7591 -1.52955e-07 0)
(41.7592 -1.52979e-07 0)
(41.7592 -1.52997e-07 0)
(41.7592 -1.53024e-07 0)
(41.7592 -1.53044e-07 0)
(41.7593 -1.5306e-07 0)
(41.7593 -1.53065e-07 0)
(41.7593 -1.53066e-07 0)
(41.7593 -1.53068e-07 0)
(41.7594 -1.53048e-07 0)
(41.7594 -1.53012e-07 0)
(41.7594 -1.52974e-07 0)
(41.7594 -1.52922e-07 0)
(41.7594 -1.52853e-07 0)
(41.7595 -1.52765e-07 0)
(41.7595 -1.52691e-07 0)
(41.7595 -1.52613e-07 0)
(41.7595 -1.52535e-07 0)
(41.7595 -1.52429e-07 0)
(41.7595 -1.52351e-07 0)
(41.7595 -1.52284e-07 0)
(41.7595 -1.52194e-07 0)
(41.7595 -1.52061e-07 0)
(41.7595 -1.51904e-07 0)
(41.7595 -1.51832e-07 0)
(41.7595 -1.52026e-07 0)
(41.7595 -1.51705e-07 0)
(41.7595 -1.52379e-07 0)
(41.7595 -1.50963e-07 0)
(41.7595 -1.51637e-07 0)
(41.7595 -1.5078e-07 0)
(41.7595 -1.49417e-07 0)
(41.7595 -1.40644e-07 0)
(41.7595 -1.01486e-07 0)
(41.7595 8.97195e-08 0)
(41.7594 1.04005e-06 0)
(41.7591 5.76069e-06 0)
(41.7575 2.87493e-05 0)
(41.75 0.00013911 0)
(41.7149 0.000664452 0)
(41.5477 0.00311248 0)
(41.0731 0.0157418 0)
(36.4396 0.0565436 0)
(42.7003 0.000462906 0)
(42.7007 0.000329772 0)
(42.7011 0.0003134 0)
(42.7015 0.00031039 0)
(42.7018 0.00030806 0)
(42.7021 0.000306212 0)
(42.7024 0.000304701 0)
(42.7027 0.000303386 0)
(42.703 0.000302208 0)
(42.7033 0.000301142 0)
(42.7036 0.000300166 0)
(42.7039 0.000299268 0)
(42.7042 0.000298437 0)
(42.7044 0.000297666 0)
(42.7047 0.000296939 0)
(42.7049 0.000296267 0)
(42.7052 0.00029563 0)
(42.7054 0.000295025 0)
(42.7056 0.000294514 0)
(42.7058 0.000293971 0)
(42.706 0.000293476 0)
(42.7062 0.000293013 0)
(42.7064 0.000292578 0)
(42.7066 0.000292263 0)
(42.7068 0.000291766 0)
(42.707 0.00029145 0)
(42.7072 0.000291112 0)
(42.7073 0.000290791 0)
(42.7075 0.000290482 0)
(42.7076 0.000290202 0)
(42.7078 0.00028993 0)
(42.7079 0.000289661 0)
(42.708 0.000289457 0)
(42.7081 0.000289173 0)
(42.7082 0.000288971 0)
(42.7083 0.000288756 0)
(42.7084 0.00028856 0)
(42.7085 0.000288298 0)
(42.7086 0.000288074 0)
(42.7086 0.000287798 0)
(42.7087 0.000287463 0)
(42.7088 0.000287038 0)
(42.7088 0.000286483 0)
(42.7088 0.000285746 0)
(42.7089 0.000284756 0)
(42.7089 0.000283455 0)
(42.7089 0.000281737 0)
(42.709 0.000279471 0)
(42.709 0.000276622 0)
(42.7091 0.000273093 0)
(42.7091 0.000268475 0)
(42.7092 0.000263107 0)
(42.7093 0.000256635 0)
(42.7094 0.000249046 0)
(42.7096 0.000240313 0)
(42.7098 0.000230441 0)
(42.71 0.000219477 0)
(42.7102 0.00020751 0)
(42.7105 0.000194671 0)
(42.7108 0.000181128 0)
(42.7111 0.000167076 0)
(42.7115 0.000152732 0)
(42.7118 0.000138327 0)
(42.7122 0.000124084 0)
(42.7125 0.000110214 0)
(42.7128 9.69163e-05 0)
(42.7132 8.43581e-05 0)
(42.7135 7.26713e-05 0)
(42.7137 6.19493e-05 0)
(42.714 5.2252e-05 0)
(42.7142 4.36045e-05 0)
(42.7144 3.59979e-05 0)
(42.7146 2.93971e-05 0)
(42.7147 2.37457e-05 0)
(42.7148 1.89699e-05 0)
(42.7149 1.49859e-05 0)
(42.715 1.17068e-05 0)
(42.715 9.03657e-06 0)
(42.715 6.89468e-06 0)
(42.715 5.19482e-06 0)
(42.715 3.86214e-06 0)
(42.715 2.8297e-06 0)
(42.715 2.04016e-06 0)
(42.715 1.44252e-06 0)
(42.715 9.9524e-07 0)
(42.715 6.64518e-07 0)
(42.7149 4.22557e-07 0)
(42.7149 2.4738e-07 0)
(42.7149 1.21681e-07 0)
(42.7149 3.21386e-08 0)
(42.7148 -2.69692e-08 0)
(42.7148 -6.86054e-08 0)
(42.7148 -9.68889e-08 0)
(42.7147 -1.15822e-07 0)
(42.7147 -1.28346e-07 0)
(42.7146 -1.36552e-07 0)
(42.7146 -1.41845e-07 0)
(42.7146 -1.45225e-07 0)
(42.7145 -1.47324e-07 0)
(42.7145 -1.48602e-07 0)
(42.7144 -1.49356e-07 0)
(42.7144 -1.49722e-07 0)
(42.7143 -1.49849e-07 0)
(42.7143 -1.50292e-07 0)
(42.7142 -1.49062e-07 0)
(42.7142 -1.49728e-07 0)
(42.7141 -1.49402e-07 0)
(42.714 -1.49266e-07 0)
(42.714 -1.49168e-07 0)
(42.7139 -1.48584e-07 0)
(42.7139 -1.48327e-07 0)
(42.7138 -1.47944e-07 0)
(42.7137 -1.47777e-07 0)
(42.7136 -1.476e-07 0)
(42.7136 -1.47419e-07 0)
(42.7135 -1.47225e-07 0)
(42.7134 -1.4707e-07 0)
(42.7134 -1.46992e-07 0)
(42.7133 -1.4691e-07 0)
(42.7132 -1.46889e-07 0)
(42.7132 -1.46909e-07 0)
(42.7131 -1.46966e-07 0)
(42.713 -1.47061e-07 0)
(42.713 -1.47186e-07 0)
(42.7129 -1.47329e-07 0)
(42.7128 -1.47512e-07 0)
(42.7128 -1.47713e-07 0)
(42.7127 -1.47933e-07 0)
(42.7127 -1.48176e-07 0)
(42.7126 -1.48432e-07 0)
(42.7126 -1.48711e-07 0)
(42.7125 -1.4899e-07 0)
(42.7125 -1.49268e-07 0)
(42.7125 -1.49547e-07 0)
(42.7124 -1.49808e-07 0)
(42.7124 -1.50152e-07 0)
(42.7124 -1.4986e-07 0)
(42.7124 -1.50969e-07 0)
(42.7123 -1.51102e-07 0)
(42.7123 -1.499e-07 0)
(42.7123 -1.51853e-07 0)
(42.7123 -1.51585e-07 0)
(42.7123 -1.51806e-07 0)
(42.7123 -1.5205e-07 0)
(42.7123 -1.52289e-07 0)
(42.7123 -1.52509e-07 0)
(42.7123 -1.52726e-07 0)
(42.7123 -1.52897e-07 0)
(42.7123 -1.53051e-07 0)
(42.7123 -1.53201e-07 0)
(42.7124 -1.53317e-07 0)
(42.7124 -1.53411e-07 0)
(42.7124 -1.53461e-07 0)
(42.7124 -1.53438e-07 0)
(42.7124 -1.53422e-07 0)
(42.7124 -1.5337e-07 0)
(42.7124 -1.53303e-07 0)
(42.7124 -1.53246e-07 0)
(42.7124 -1.53197e-07 0)
(42.7125 -1.53141e-07 0)
(42.7125 -1.53087e-07 0)
(42.7125 -1.5304e-07 0)
(42.7125 -1.52989e-07 0)
(42.7125 -1.52925e-07 0)
(42.7125 -1.52874e-07 0)
(42.7125 -1.52816e-07 0)
(42.7125 -1.52753e-07 0)
(42.7125 -1.52687e-07 0)
(42.7125 -1.52625e-07 0)
(42.7125 -1.52547e-07 0)
(42.7125 -1.52451e-07 0)
(42.7125 -1.52367e-07 0)
(42.7125 -1.52274e-07 0)
(42.7125 -1.52209e-07 0)
(42.7125 -1.52126e-07 0)
(42.7125 -1.52003e-07 0)
(42.7124 -1.51935e-07 0)
(42.7124 -1.51869e-07 0)
(42.7124 -1.51774e-07 0)
(42.7124 -1.51572e-07 0)
(42.7124 -1.51492e-07 0)
(42.7124 -1.50986e-07 0)
(42.7123 -1.5195e-07 0)
(42.7123 -1.51141e-07 0)
(42.7123 -1.53215e-07 0)
(42.7123 -1.49243e-07 0)
(42.7123 -1.5166e-07 0)
(42.7122 -1.49415e-07 0)
(42.7122 -1.44887e-07 0)
(42.7122 -1.19714e-07 0)
(42.7121 2.38557e-09 0)
(42.7121 6.04822e-07 0)
(42.712 3.6069e-06 0)
(42.7116 1.85209e-05 0)
(42.71 9.1123e-05 0)
(42.7024 0.000439552 0)
(42.6667 0.00209683 0)
(42.497 0.00980784 0)
(42.0022 0.0483061 0)
(37.4604 0.163632 0)
(42.7003 0.000369095 0)
(42.7007 0.000238549 0)
(42.7012 0.000231863 0)
(42.7015 0.000235251 0)
(42.7019 0.000236588 0)
(42.7023 0.00023756 0)
(42.7026 0.000238524 0)
(42.703 0.000239453 0)
(42.7033 0.000240349 0)
(42.7037 0.000241219 0)
(42.704 0.000242063 0)
(42.7044 0.00024288 0)
(42.7048 0.000243672 0)
(42.7051 0.000244436 0)
(42.7055 0.000245168 0)
(42.7058 0.000245882 0)
(42.7062 0.000246563 0)
(42.7065 0.000247214 0)
(42.7069 0.000247895 0)
(42.7072 0.000248492 0)
(42.7076 0.000249087 0)
(42.7079 0.000249664 0)
(42.7083 0.000250223 0)
(42.7086 0.000250851 0)
(42.709 0.000251272 0)
(42.7094 0.000251827 0)
(42.7097 0.000252324 0)
(42.7101 0.000252805 0)
(42.7104 0.000253267 0)
(42.7107 0.000253725 0)
(42.7111 0.000254164 0)
(42.7114 0.000254579 0)
(42.7118 0.000255028 0)
(42.7121 0.00025538 0)
(42.7125 0.000255787 0)
(42.7128 0.000256156 0)
(42.7131 0.000256521 0)
(42.7135 0.000256805 0)
(42.7138 0.000257103 0)
(42.7141 0.000257328 0)
(42.7145 0.000257475 0)
(42.7148 0.000257513 0)
(42.7151 0.000257403 0)
(42.7154 0.000257093 0)
(42.7157 0.000256514 0)
(42.7161 0.000255605 0)
(42.7164 0.000254265 0)
(42.7167 0.000252368 0)
(42.717 0.000249877 0)
(42.7172 0.000246696 0)
(42.7175 0.000242452 0)
(42.7178 0.000237464 0)
(42.7181 0.000231391 0)
(42.7183 0.000224241 0)
(42.7185 0.000215999 0)
(42.7188 0.000206681 0)
(42.719 0.000196347 0)
(42.7192 0.000185097 0)
(42.7193 0.000173068 0)
(42.7195 0.000160432 0)
(42.7196 0.000147384 0)
(42.7198 0.000134136 0)
(42.7199 0.000120909 0)
(42.7199 0.000107909 0)
(42.72 9.53308e-05 0)
(42.72 8.3354e-05 0)
(42.7201 7.21217e-05 0)
(42.7201 6.17439e-05 0)
(42.7201 5.22935e-05 0)
(42.7201 4.38106e-05 0)
(42.7201 3.63051e-05 0)
(42.72 2.97551e-05 0)
(42.72 2.41164e-05 0)
(42.72 1.93289e-05 0)
(42.7199 1.53166e-05 0)
(42.7199 1.19973e-05 0)
(42.7198 9.2907e-06 0)
(42.7198 7.10339e-06 0)
(42.7197 5.36619e-06 0)
(42.7197 3.99972e-06 0)
(42.7196 2.93839e-06 0)
(42.7196 2.12427e-06 0)
(42.7196 1.50762e-06 0)
(42.7195 1.04606e-06 0)
(42.7195 7.04238e-07 0)
(42.7194 4.54566e-07 0)
(42.7194 2.74215e-07 0)
(42.7194 1.45562e-07 0)
(42.7193 5.49611e-08 0)
(42.7193 -8.07737e-09 0)
(42.7193 -5.32746e-08 0)
(42.7192 -8.41168e-08 0)
(42.7192 -1.05096e-07 0)
(42.7191 -1.19331e-07 0)
(42.7191 -1.28918e-07 0)
(42.7191 -1.35314e-07 0)
(42.719 -1.39504e-07 0)
(42.719 -1.4223e-07 0)
(42.7189 -1.4397e-07 0)
(42.7189 -1.45051e-07 0)
(42.7189 -1.457e-07 0)
(42.7188 -1.46023e-07 0)
(42.7188 -1.46153e-07 0)
(42.7187 -1.46632e-07 0)
(42.7186 -1.45556e-07 0)
(42.7186 -1.46275e-07 0)
(42.7185 -1.46011e-07 0)
(42.7185 -1.46018e-07 0)
(42.7184 -1.46026e-07 0)
(42.7183 -1.45544e-07 0)
(42.7183 -1.45308e-07 0)
(42.7182 -1.4493e-07 0)
(42.7181 -1.44817e-07 0)
(42.7181 -1.44585e-07 0)
(42.718 -1.44317e-07 0)
(42.7179 -1.44007e-07 0)
(42.7179 -1.43691e-07 0)
(42.7178 -1.43415e-07 0)
(42.7177 -1.43178e-07 0)
(42.7177 -1.42999e-07 0)
(42.7176 -1.42862e-07 0)
(42.7175 -1.42769e-07 0)
(42.7175 -1.42734e-07 0)
(42.7174 -1.42745e-07 0)
(42.7173 -1.42792e-07 0)
(42.7173 -1.42885e-07 0)
(42.7172 -1.43013e-07 0)
(42.7172 -1.43182e-07 0)
(42.7171 -1.43373e-07 0)
(42.7171 -1.43591e-07 0)
(42.717 -1.43828e-07 0)
(42.717 -1.44082e-07 0)
(42.7169 -1.44323e-07 0)
(42.7169 -1.44556e-07 0)
(42.7169 -1.44815e-07 0)
(42.7168 -1.45132e-07 0)
(42.7168 -1.44816e-07 0)
(42.7168 -1.45882e-07 0)
(42.7168 -1.4596e-07 0)
(42.7168 -1.44765e-07 0)
(42.7167 -1.46613e-07 0)
(42.7167 -1.46298e-07 0)
(42.7167 -1.4647e-07 0)
(42.7167 -1.46664e-07 0)
(42.7167 -1.46818e-07 0)
(42.7167 -1.46954e-07 0)
(42.7167 -1.47085e-07 0)
(42.7168 -1.47212e-07 0)
(42.7168 -1.47311e-07 0)
(42.7168 -1.47388e-07 0)
(42.7168 -1.47461e-07 0)
(42.7168 -1.47502e-07 0)
(42.7168 -1.47498e-07 0)
(42.7168 -1.47461e-07 0)
(42.7168 -1.47425e-07 0)
(42.7168 -1.47352e-07 0)
(42.7169 -1.47262e-07 0)
(42.7169 -1.47202e-07 0)
(42.7169 -1.47131e-07 0)
(42.7169 -1.47041e-07 0)
(42.7169 -1.46972e-07 0)
(42.7169 -1.4688e-07 0)
(42.7169 -1.46791e-07 0)
(42.7169 -1.46696e-07 0)
(42.7169 -1.46608e-07 0)
(42.7169 -1.46511e-07 0)
(42.7169 -1.46404e-07 0)
(42.7169 -1.46304e-07 0)
(42.7169 -1.46191e-07 0)
(42.7169 -1.46068e-07 0)
(42.7169 -1.4594e-07 0)
(42.7169 -1.45813e-07 0)
(42.7169 -1.45712e-07 0)
(42.7169 -1.45609e-07 0)
(42.7169 -1.45497e-07 0)
(42.7169 -1.45369e-07 0)
(42.7169 -1.45285e-07 0)
(42.7169 -1.45205e-07 0)
(42.7168 -1.45088e-07 0)
(42.7168 -1.44807e-07 0)
(42.7168 -1.45032e-07 0)
(42.7168 -1.43692e-07 0)
(42.7168 -1.45699e-07 0)
(42.7167 -1.443e-07 0)
(42.7167 -1.47164e-07 0)
(42.7167 -1.41614e-07 0)
(42.7167 -1.45602e-07 0)
(42.7166 -1.41639e-07 0)
(42.7166 -1.32878e-07 0)
(42.7166 -9.07328e-08 0)
(42.7166 1.25257e-07 0)
(42.7165 1.19793e-06 0)
(42.7164 6.54483e-06 0)
(42.7161 3.31062e-05 0)
(42.7145 0.000162423 0)
(42.7072 0.00078311 0)
(42.6729 0.00373785 0)
(42.5101 0.017494 0)
(42.0456 0.0857092 0)
(37.6631 0.286838 0)
(42.7002 0.000375191 0)
(42.7007 0.000276268 0)
(42.7012 0.000271759 0)
(42.7015 0.000276037 0)
(42.7019 0.000276923 0)
(42.7022 0.000277098 0)
(42.7026 0.000277141 0)
(42.703 0.000277042 0)
(42.7033 0.000276834 0)
(42.7037 0.000276562 0)
(42.704 0.00027625 0)
(42.7044 0.000275914 0)
(42.7048 0.000275568 0)
(42.7051 0.000275216 0)
(42.7055 0.000274864 0)
(42.7058 0.000274524 0)
(42.7062 0.000274186 0)
(42.7065 0.000273854 0)
(42.7069 0.000273582 0)
(42.7072 0.000273268 0)
(42.7076 0.000272984 0)
(42.7079 0.000272717 0)
(42.7083 0.000272463 0)
(42.7086 0.000272303 0)
(42.709 0.000271981 0)
(42.7094 0.000271809 0)
(42.7097 0.000271611 0)
(42.7101 0.000271423 0)
(42.7104 0.000271243 0)
(42.7107 0.000271079 0)
(42.7111 0.000270922 0)
(42.7114 0.000270765 0)
(42.7118 0.000270657 0)
(42.7121 0.000270478 0)
(42.7125 0.000270369 0)
(42.7128 0.000270243 0)
(42.7131 0.000270129 0)
(42.7135 0.000269958 0)
(42.7138 0.000269813 0)
(42.7142 0.000269615 0)
(42.7145 0.000269358 0)
(42.7148 0.000269011 0)
(42.7151 0.000268537 0)
(42.7155 0.000267885 0)
(42.7158 0.00026699 0)
(42.7161 0.000265788 0)
(42.7164 0.000264189 0)
(42.7167 0.000262066 0)
(42.717 0.000259379 0)
(42.7173 0.000256034 0)
(42.7176 0.00025167 0)
(42.7178 0.000246583 0)
(42.7181 0.000240445 0)
(42.7184 0.000233252 0)
(42.7186 0.00022498 0)
(42.7188 0.000215637 0)
(42.719 0.000205272 0)
(42.7192 0.000193971 0)
(42.7194 0.000181861 0)
(42.7195 0.000169102 0)
(42.7197 0.000155881 0)
(42.7198 0.0001424 0)
(42.7199 0.000128884 0)
(42.72 0.000115533 0)
(42.72 0.000102548 0)
(42.7201 9.01141e-05 0)
(42.7201 7.83848e-05 0)
(42.7201 6.74811e-05 0)
(42.7201 5.74881e-05 0)
(42.7201 4.84588e-05 0)
(42.7201 4.04149e-05 0)
(42.72 3.33455e-05 0)
(42.72 2.72155e-05 0)
(42.72 2.19718e-05 0)
(42.7199 1.75437e-05 0)
(42.7199 1.38519e-05 0)
(42.7198 1.08168e-05 0)
(42.7198 8.34493e-06 0)
(42.7197 6.36448e-06 0)
(42.7197 4.79339e-06 0)
(42.7196 3.56233e-06 0)
(42.7196 2.60934e-06 0)
(42.7196 1.88054e-06 0)
(42.7195 1.32957e-06 0)
(42.7195 9.17331e-07 0)
(42.7194 6.12788e-07 0)
(42.7194 3.90172e-07 0)
(42.7194 2.29285e-07 0)
(42.7193 1.14291e-07 0)
(42.7193 3.31367e-08 0)
(42.7193 -2.29359e-08 0)
(42.7192 -6.14362e-08 0)
(42.7192 -8.76738e-08 0)
(42.7192 -1.05357e-07 0)
(42.7191 -1.17125e-07 0)
(42.7191 -1.24861e-07 0)
(42.719 -1.29866e-07 0)
(42.719 -1.3306e-07 0)
(42.719 -1.35069e-07 0)
(42.7189 -1.36297e-07 0)
(42.7189 -1.37012e-07 0)
(42.7188 -1.37365e-07 0)
(42.7188 -1.37483e-07 0)
(42.7187 -1.37896e-07 0)
(42.7187 -1.36808e-07 0)
(42.7186 -1.37405e-07 0)
(42.7185 -1.37088e-07 0)
(42.7185 -1.36976e-07 0)
(42.7184 -1.36891e-07 0)
(42.7184 -1.36363e-07 0)
(42.7183 -1.36082e-07 0)
(42.7182 -1.35717e-07 0)
(42.7182 -1.35636e-07 0)
(42.7181 -1.3546e-07 0)
(42.718 -1.3528e-07 0)
(42.7179 -1.35095e-07 0)
(42.7179 -1.34945e-07 0)
(42.7178 -1.34845e-07 0)
(42.7177 -1.34768e-07 0)
(42.7177 -1.3474e-07 0)
(42.7176 -1.34755e-07 0)
(42.7175 -1.34803e-07 0)
(42.7175 -1.34878e-07 0)
(42.7174 -1.34978e-07 0)
(42.7173 -1.3511e-07 0)
(42.7173 -1.35277e-07 0)
(42.7172 -1.35461e-07 0)
(42.7172 -1.35653e-07 0)
(42.7171 -1.35879e-07 0)
(42.7171 -1.36104e-07 0)
(42.717 -1.36357e-07 0)
(42.717 -1.36603e-07 0)
(42.7169 -1.36849e-07 0)
(42.7169 -1.37071e-07 0)
(42.7169 -1.37307e-07 0)
(42.7168 -1.37589e-07 0)
(42.7168 -1.37293e-07 0)
(42.7168 -1.38308e-07 0)
(42.7168 -1.38374e-07 0)
(42.7168 -1.37239e-07 0)
(42.7168 -1.38973e-07 0)
(42.7168 -1.38702e-07 0)
(42.7167 -1.38863e-07 0)
(42.7167 -1.39054e-07 0)
(42.7167 -1.39216e-07 0)
(42.7168 -1.39369e-07 0)
(42.7168 -1.3953e-07 0)
(42.7168 -1.39657e-07 0)
(42.7168 -1.39754e-07 0)
(42.7168 -1.39825e-07 0)
(42.7168 -1.39896e-07 0)
(42.7168 -1.39932e-07 0)
(42.7168 -1.39944e-07 0)
(42.7168 -1.39891e-07 0)
(42.7168 -1.39854e-07 0)
(42.7168 -1.39755e-07 0)
(42.7169 -1.39657e-07 0)
(42.7169 -1.39587e-07 0)
(42.7169 -1.39528e-07 0)
(42.7169 -1.39434e-07 0)
(42.7169 -1.39378e-07 0)
(42.7169 -1.39291e-07 0)
(42.7169 -1.39211e-07 0)
(42.7169 -1.39142e-07 0)
(42.7169 -1.39063e-07 0)
(42.7169 -1.38996e-07 0)
(42.7169 -1.38907e-07 0)
(42.7169 -1.38832e-07 0)
(42.7169 -1.38739e-07 0)
(42.7169 -1.38635e-07 0)
(42.7169 -1.38534e-07 0)
(42.7169 -1.38428e-07 0)
(42.7169 -1.38339e-07 0)
(42.7169 -1.38243e-07 0)
(42.7169 -1.38153e-07 0)
(42.7169 -1.38041e-07 0)
(42.7169 -1.37955e-07 0)
(42.7169 -1.3788e-07 0)
(42.7168 -1.37745e-07 0)
(42.7168 -1.37379e-07 0)
(42.7168 -1.37899e-07 0)
(42.7168 -1.35626e-07 0)
(42.7168 -1.3883e-07 0)
(42.7168 -1.36718e-07 0)
(42.7167 -1.39908e-07 0)
(42.7167 -1.33714e-07 0)
(42.7167 -1.3897e-07 0)
(42.7167 -1.32956e-07 0)
(42.7166 -1.19322e-07 0)
(42.7166 -5.78897e-08 0)
(42.7166 2.62298e-07 0)
(42.7165 1.85472e-06 0)
(42.7164 9.78937e-06 0)
(42.7161 4.92064e-05 0)
(42.7145 0.000241151 0)
(42.7073 0.00116271 0)
(42.6732 0.00555458 0)
(42.5116 0.025987 0)
(42.0526 0.127305 0)
(37.7863 0.422902 0)
(42.7002 0.000351874 0)
(42.7007 0.000251265 0)
(42.7011 0.000235087 0)
(42.7015 0.000235175 0)
(42.7019 0.000233706 0)
(42.7022 0.000232614 0)
(42.7026 0.000232125 0)
(42.703 0.000231928 0)
(42.7033 0.000231896 0)
(42.7037 0.000231978 0)
(42.704 0.000232137 0)
(42.7044 0.000232348 0)
(42.7047 0.000232597 0)
(42.7051 0.000232864 0)
(42.7055 0.000233147 0)
(42.7058 0.000233445 0)
(42.7062 0.00023374 0)
(42.7065 0.000234033 0)
(42.7069 0.000234369 0)
(42.7072 0.000234654 0)
(42.7076 0.00023495 0)
(42.7079 0.000235245 0)
(42.7083 0.000235536 0)
(42.7086 0.000235896 0)
(42.709 0.000236091 0)
(42.7093 0.000236406 0)
(42.7097 0.000236682 0)
(42.71 0.000236952 0)
(42.7104 0.000237214 0)
(42.7107 0.000237472 0)
(42.7111 0.000237727 0)
(42.7114 0.000237967 0)
(42.7118 0.000238238 0)
(42.7121 0.00023843 0)
(42.7125 0.000238676 0)
(42.7128 0.000238894 0)
(42.7131 0.00023911 0)
(42.7135 0.000239264 0)
(42.7138 0.000239428 0)
(42.7141 0.000239533 0)
(42.7145 0.000239571 0)
(42.7148 0.000239514 0)
(42.7151 0.000239327 0)
(42.7154 0.000238961 0)
(42.7158 0.000238357 0)
(42.7161 0.00023745 0)
(42.7164 0.00023616 0)
(42.7167 0.000234367 0)
(42.717 0.000232033 0)
(42.7173 0.000229072 0)
(42.7176 0.000225146 0)
(42.7178 0.000220538 0)
(42.7181 0.000214943 0)
(42.7183 0.00020836 0)
(42.7186 0.000200774 0)
(42.7188 0.0001922 0)
(42.719 0.000182687 0)
(42.7192 0.000172325 0)
(42.7194 0.000161239 0)
(42.7195 0.000149582 0)
(42.7197 0.000137534 0)
(42.7198 0.000125282 0)
(42.7199 0.000113042 0)
(42.72 0.000100993 0)
(42.72 8.93199e-05 0)
(42.7201 7.8189e-05 0)
(42.7201 6.77349e-05 0)
(42.7201 5.80617e-05 0)
(42.7201 4.92393e-05 0)
(42.7201 4.1308e-05 0)
(42.7201 3.42791e-05 0)
(42.72 2.81352e-05 0)
(42.72 2.28375e-05 0)
(42.72 1.83318e-05 0)
(42.7199 1.45494e-05 0)
(42.7199 1.1415e-05 0)
(42.7198 8.85448e-06 0)
(42.7198 6.78186e-06 0)
(42.7197 5.13257e-06 0)
(42.7197 3.83294e-06 0)
(42.7196 2.82162e-06 0)
(42.7196 2.04435e-06 0)
(42.7196 1.4544e-06 0)
(42.7195 1.01188e-06 0)
(42.7195 6.83426e-07 0)
(42.7194 4.42894e-07 0)
(42.7194 2.68651e-07 0)
(42.7194 1.43882e-07 0)
(42.7193 5.55163e-08 0)
(42.7193 -6.4476e-09 0)
(42.7193 -4.94382e-08 0)
(42.7192 -7.91252e-08 0)
(42.7192 -9.935e-08 0)
(42.7192 -1.13025e-07 0)
(42.7191 -1.22168e-07 0)
(42.7191 -1.28243e-07 0)
(42.719 -1.32211e-07 0)
(42.719 -1.34785e-07 0)
(42.719 -1.36421e-07 0)
(42.7189 -1.37417e-07 0)
(42.7189 -1.38013e-07 0)
(42.7188 -1.38322e-07 0)
(42.7188 -1.38455e-07 0)
(42.7187 -1.38875e-07 0)
(42.7187 -1.37906e-07 0)
(42.7186 -1.3854e-07 0)
(42.7185 -1.38314e-07 0)
(42.7185 -1.38293e-07 0)
(42.7184 -1.38293e-07 0)
(42.7184 -1.37854e-07 0)
(42.7183 -1.37633e-07 0)
(42.7182 -1.37309e-07 0)
(42.7182 -1.37199e-07 0)
(42.7181 -1.36997e-07 0)
(42.718 -1.36771e-07 0)
(42.7179 -1.36509e-07 0)
(42.7179 -1.36255e-07 0)
(42.7178 -1.36049e-07 0)
(42.7177 -1.35858e-07 0)
(42.7177 -1.3573e-07 0)
(42.7176 -1.35638e-07 0)
(42.7175 -1.35596e-07 0)
(42.7175 -1.35591e-07 0)
(42.7174 -1.3561e-07 0)
(42.7173 -1.35689e-07 0)
(42.7173 -1.35792e-07 0)
(42.7172 -1.35922e-07 0)
(42.7172 -1.36082e-07 0)
(42.7171 -1.36278e-07 0)
(42.7171 -1.36481e-07 0)
(42.717 -1.36715e-07 0)
(42.717 -1.36945e-07 0)
(42.7169 -1.37178e-07 0)
(42.7169 -1.37414e-07 0)
(42.7169 -1.37653e-07 0)
(42.7168 -1.37942e-07 0)
(42.7168 -1.37684e-07 0)
(42.7168 -1.3867e-07 0)
(42.7168 -1.38753e-07 0)
(42.7168 -1.37728e-07 0)
(42.7168 -1.39369e-07 0)
(42.7168 -1.39142e-07 0)
(42.7167 -1.39301e-07 0)
(42.7167 -1.39501e-07 0)
(42.7167 -1.3967e-07 0)
(42.7168 -1.39817e-07 0)
(42.7168 -1.3998e-07 0)
(42.7168 -1.40104e-07 0)
(42.7168 -1.40218e-07 0)
(42.7168 -1.40306e-07 0)
(42.7168 -1.40403e-07 0)
(42.7168 -1.40447e-07 0)
(42.7168 -1.40483e-07 0)
(42.7168 -1.40443e-07 0)
(42.7168 -1.4044e-07 0)
(42.7168 -1.40373e-07 0)
(42.7169 -1.40309e-07 0)
(42.7169 -1.40266e-07 0)
(42.7169 -1.40238e-07 0)
(42.7169 -1.40157e-07 0)
(42.7169 -1.4012e-07 0)
(42.7169 -1.40051e-07 0)
(42.7169 -1.39992e-07 0)
(42.7169 -1.39927e-07 0)
(42.7169 -1.39872e-07 0)
(42.7169 -1.39792e-07 0)
(42.7169 -1.39721e-07 0)
(42.7169 -1.39662e-07 0)
(42.7169 -1.39589e-07 0)
(42.7169 -1.39494e-07 0)
(42.7169 -1.39417e-07 0)
(42.7169 -1.39323e-07 0)
(42.7169 -1.39252e-07 0)
(42.7169 -1.39187e-07 0)
(42.7169 -1.39103e-07 0)
(42.7169 -1.39019e-07 0)
(42.7169 -1.38951e-07 0)
(42.7169 -1.38893e-07 0)
(42.7168 -1.38786e-07 0)
(42.7168 -1.38349e-07 0)
(42.7168 -1.39286e-07 0)
(42.7168 -1.35922e-07 0)
(42.7168 -1.40569e-07 0)
(42.7168 -1.377e-07 0)
(42.7167 -1.41365e-07 0)
(42.7167 -1.34432e-07 0)
(42.7167 -1.41152e-07 0)
(42.7167 -1.32957e-07 0)
(42.7166 -1.13625e-07 0)
(42.7166 -3.03381e-08 0)
(42.7166 4.09584e-07 0)
(42.7165 2.59549e-06 0)
(42.7164 1.34863e-05 0)
(42.7161 6.7592e-05 0)
(42.7146 0.000331111 0)
(42.7074 0.00159663 0)
(42.6737 0.00763252 0)
(42.5138 0.0356766 0)
(42.06 0.174304 0)
(37.909 0.573753 0)
(42.7002 0.00033042 0)
(42.7007 0.000244131 0)
(42.7011 0.000231449 0)
(42.7015 0.000236552 0)
(42.7019 0.000238272 0)
(42.7022 0.000239072 0)
(42.7026 0.000239778 0)
(42.7029 0.00024032 0)
(42.7033 0.000240719 0)
(42.7037 0.000241025 0)
(42.704 0.000241263 0)
(42.7044 0.000241451 0)
(42.7047 0.000241606 0)
(42.7051 0.000241723 0)
(42.7054 0.000241825 0)
(42.7058 0.000241914 0)
(42.7062 0.000241984 0)
(42.7065 0.000242045 0)
(42.7069 0.000242137 0)
(42.7072 0.000242182 0)
(42.7076 0.000242236 0)
(42.7079 0.000242292 0)
(42.7083 0.000242348 0)
(42.7086 0.00024247 0)
(42.709 0.000242448 0)
(42.7093 0.000242538 0)
(42.7097 0.0002426 0)
(42.71 0.00024266 0)
(42.7104 0.000242721 0)
(42.7107 0.000242779 0)
(42.7111 0.000242844 0)
(42.7114 0.0002429 0)
(42.7118 0.000242988 0)
(42.7121 0.000243008 0)
(42.7124 0.000243085 0)
(42.7128 0.00024314 0)
(42.7131 0.000243196 0)
(42.7135 0.000243202 0)
(42.7138 0.000243218 0)
(42.7141 0.000243183 0)
(42.7145 0.000243087 0)
(42.7148 0.000242906 0)
(42.7151 0.000242602 0)
(42.7154 0.00024213 0)
(42.7157 0.000241433 0)
(42.7161 0.000240444 0)
(42.7164 0.000239091 0)
(42.7167 0.000237254 0)
(42.717 0.000234894 0)
(42.7173 0.000231925 0)
(42.7175 0.000228025 0)
(42.7178 0.000223453 0)
(42.7181 0.000217919 0)
(42.7183 0.000211416 0)
(42.7186 0.000203923 0)
(42.7188 0.000195449 0)
(42.719 0.000186039 0)
(42.7192 0.000175775 0)
(42.7194 0.000164772 0)
(42.7195 0.000153179 0)
(42.7197 0.000141168 0)
(42.7198 0.000128918 0)
(42.7199 0.000116646 0)
(42.72 0.000104525 0)
(42.72 9.27412e-05 0)
(42.7201 8.14636e-05 0)
(42.7201 7.08304e-05 0)
(42.7201 6.0951e-05 0)
(42.7201 5.19019e-05 0)
(42.7201 4.37304e-05 0)
(42.7201 3.64547e-05 0)
(42.72 3.00643e-05 0)
(42.72 2.45265e-05 0)
(42.72 1.97921e-05 0)
(42.7199 1.57964e-05 0)
(42.7199 1.24671e-05 0)
(42.7198 9.73137e-06 0)
(42.7198 7.50467e-06 0)
(42.7197 5.72153e-06 0)
(42.7197 4.30778e-06 0)
(42.7196 3.20059e-06 0)
(42.7196 2.34396e-06 0)
(42.7196 1.68925e-06 0)
(42.7195 1.19457e-06 0)
(42.7195 8.24729e-07 0)
(42.7194 5.51717e-07 0)
(42.7194 3.52356e-07 0)
(42.7194 2.08445e-07 0)
(42.7193 1.05762e-07 0)
(42.7193 3.34108e-08 0)
(42.7193 -1.74613e-08 0)
(42.7192 -5.23182e-08 0)
(42.7192 -7.61026e-08 0)
(42.7192 -9.2201e-08 0)
(42.7191 -1.02965e-07 0)
(42.7191 -1.10094e-07 0)
(42.719 -1.14746e-07 0)
(42.719 -1.17736e-07 0)
(42.719 -1.19639e-07 0)
(42.7189 -1.20795e-07 0)
(42.7189 -1.21486e-07 0)
(42.7188 -1.21845e-07 0)
(42.7188 -1.21994e-07 0)
(42.7187 -1.22378e-07 0)
(42.7187 -1.21461e-07 0)
(42.7186 -1.22006e-07 0)
(42.7185 -1.21759e-07 0)
(42.7185 -1.2169e-07 0)
(42.7184 -1.2164e-07 0)
(42.7184 -1.21187e-07 0)
(42.7183 -1.20944e-07 0)
(42.7182 -1.20627e-07 0)
(42.7182 -1.20519e-07 0)
(42.7181 -1.20342e-07 0)
(42.718 -1.2016e-07 0)
(42.7179 -1.19949e-07 0)
(42.7179 -1.19753e-07 0)
(42.7178 -1.1961e-07 0)
(42.7177 -1.19482e-07 0)
(42.7177 -1.19409e-07 0)
(42.7176 -1.19365e-07 0)
(42.7175 -1.1936e-07 0)
(42.7175 -1.19384e-07 0)
(42.7174 -1.19442e-07 0)
(42.7173 -1.19531e-07 0)
(42.7173 -1.19657e-07 0)
(42.7172 -1.19799e-07 0)
(42.7172 -1.19971e-07 0)
(42.7171 -1.2016e-07 0)
(42.7171 -1.2036e-07 0)
(42.717 -1.20584e-07 0)
(42.717 -1.20796e-07 0)
(42.7169 -1.21012e-07 0)
(42.7169 -1.21226e-07 0)
(42.7169 -1.21433e-07 0)
(42.7168 -1.21682e-07 0)
(42.7168 -1.21426e-07 0)
(42.7168 -1.22342e-07 0)
(42.7168 -1.22386e-07 0)
(42.7168 -1.21412e-07 0)
(42.7168 -1.22896e-07 0)
(42.7168 -1.2269e-07 0)
(42.7167 -1.22819e-07 0)
(42.7167 -1.22987e-07 0)
(42.7167 -1.23128e-07 0)
(42.7168 -1.23254e-07 0)
(42.7168 -1.23389e-07 0)
(42.7168 -1.23507e-07 0)
(42.7168 -1.23582e-07 0)
(42.7168 -1.23652e-07 0)
(42.7168 -1.23721e-07 0)
(42.7168 -1.23744e-07 0)
(42.7168 -1.23753e-07 0)
(42.7168 -1.23693e-07 0)
(42.7168 -1.23689e-07 0)
(42.7168 -1.23595e-07 0)
(42.7169 -1.23512e-07 0)
(42.7169 -1.23461e-07 0)
(42.7169 -1.23417e-07 0)
(42.7169 -1.23322e-07 0)
(42.7169 -1.23274e-07 0)
(42.7169 -1.232e-07 0)
(42.7169 -1.23126e-07 0)
(42.7169 -1.23049e-07 0)
(42.7169 -1.22975e-07 0)
(42.7169 -1.229e-07 0)
(42.7169 -1.22813e-07 0)
(42.7169 -1.22741e-07 0)
(42.7169 -1.22653e-07 0)
(42.7169 -1.22539e-07 0)
(42.7169 -1.2245e-07 0)
(42.7169 -1.22337e-07 0)
(42.7169 -1.22242e-07 0)
(42.7169 -1.22155e-07 0)
(42.7169 -1.22068e-07 0)
(42.7169 -1.21964e-07 0)
(42.7169 -1.21875e-07 0)
(42.7169 -1.21803e-07 0)
(42.7168 -1.21641e-07 0)
(42.7168 -1.21049e-07 0)
(42.7168 -1.22435e-07 0)
(42.7168 -1.17684e-07 0)
(42.7168 -1.23977e-07 0)
(42.7168 -1.2013e-07 0)
(42.7167 -1.24291e-07 0)
(42.7167 -1.16385e-07 0)
(42.7167 -1.24669e-07 0)
(42.7167 -1.14058e-07 0)
(42.7166 -8.80433e-08 0)
(42.7166 1.97105e-08 0)
(42.7166 5.95605e-07 0)
(42.7165 3.45516e-06 0)
(42.7164 1.77006e-05 0)
(42.7161 8.84748e-05 0)
(42.7146 0.000433245 0)
(42.7076 0.00208942 0)
(42.6744 0.00999442 0)
(42.5171 0.0466664 0)
(42.0709 0.227182 0)
(38.0504 0.737822 0)
(42.7002 0.00027335 0)
(42.7007 0.000210593 0)