/*--------------------------------*- C++ -*----------------------------------*\
| =========                 |                                                 |
| \\      /  F ield         | OpenFOAM: The Open Source CFD Toolbox           |
|  \\    /   O peration     | Version:  3.0.x                                 |
|   \\  /    A nd           | Web:      www.OpenFOAM.org                      |
|    \\/     M anipulation  |                                                 |
\*---------------------------------------------------------------------------*/
FoamFile
{
    version     2.0;
    format      ascii;
    class       volScalarField;
    location    "0.5";
    object      rho;
}
// * * * * * * * * * * * * * * * * * * * * * * * * * * * * * * * * * * * * * //

dimensions      [1 -3 0 0 0 0 0];

internalField   nonuniform List<scalar> 
27600
(
50.5564
50.5567
50.5573
50.5577
50.5581
50.5585
50.5588
50.5591
50.5595
50.5598
50.5601
50.5605
50.5609
50.5613
50.5617
50.5621
50.5626
50.563
50.5635
50.5641
50.5646
50.5652
50.5658
50.5664
50.567
50.5677
50.5684
50.5691
50.5698
50.5705
50.5713
50.5721
50.5729
50.5737
50.5746
50.5755
50.5764
50.5773
50.5783
50.5792
50.5802
50.5812
50.5823
50.5833
50.5844
50.5855
50.5866
50.5878
50.589
50.5902
50.5914
50.5926
50.5939
50.5952
50.5965
50.5978
50.5991
50.6005
50.6019
50.6033
50.6047
50.6062
50.6077
50.6092
50.6107
50.6123
50.6138
50.6154
50.617
50.6187
50.6203
50.622
50.6237
50.6254
50.6271
50.6289
50.6307
50.6325
50.6343
50.6362
50.638
50.6399
50.6417
50.6437
50.6456
50.6475
50.6495
50.6515
50.6536
50.6557
50.6578
50.6599
50.6621
50.6643
50.6665
50.6687
50.6709
50.6732
50.6754
50.6777
50.68
50.6823
50.6846
50.687
50.6893
50.6917
50.6941
50.6965
50.699
50.7015
50.704
50.7065
50.709
50.7116
50.7142
50.7168
50.7195
50.7221
50.7248
50.7275
50.7302
50.733
50.7358
50.7386
50.7414
50.7443
50.7472
50.7501
50.753
50.7559
50.7588
50.7618
50.7648
50.7678
50.7708
50.7738
50.7768
50.7798
50.7829
50.786
50.7891
50.7922
50.7954
50.7986
50.8018
50.8051
50.8084
50.8117
50.815
50.8184
50.8217
50.8251
50.8285
50.8319
50.8354
50.8388
50.8423
50.8458
50.8493
50.8528
50.8564
50.8599
50.8635
50.8671
50.8708
50.8744
50.8781
50.8818
50.8855
50.8892
50.893
50.8967
50.9005
50.9043
50.9082
50.912
50.9159
50.9198
50.9237
50.9276
50.9316
50.9356
50.9396
50.9436
50.9476
50.9517
50.9557
50.9598
50.964
50.9681
50.9722
50.9764
50.9806
50.9848
50.9891
50.9933
50.9976
51.0019
51.0062
51.0106
51.0149
51.0193
51.0237
51.0281
51.0325
51.037
51.0415
51.046
51.0505
51.055
51.0596
51.0641
51.0687
51.0734
51.078
51.0826
51.0873
51.092
51.0967
51.1015
51.1062
51.111
51.1158
51.1206
51.1254
51.1302
51.1351
51.14
51.1449
51.1498
51.1548
51.1597
51.1647
51.1697
51.1747
51.1798
51.1848
51.1899
51.195
51.2001
51.2052
51.2104
51.2156
51.2207
51.2259
51.2312
51.2364
51.2417
51.2469
51.2522
51.2575
51.2629
51.2682
51.2736
51.279
51.2844
51.2898
51.2952
51.3007
51.3062
51.3116
51.3172
51.3227
51.3282
51.3338
51.3394
51.3449
51.3505
51.3562
51.3618
51.3675
51.3731
51.3788
51.3845
51.3903
51.396
51.4018
51.4075
51.4133
51.4191
51.4249
51.4308
51.4366
51.4425
51.4484
51.4543
51.4602
51.4661
51.4721
51.478
51.484
51.49
51.496
51.502
51.508
51.5141
51.5201
51.5262
51.5323
51.5384
51.5445
51.5506
51.5568
51.5629
51.5691
51.5753
51.5815
51.5877
51.5939
51.6001
51.6064
51.6126
51.6189
51.6252
51.6315
51.6378
51.6441
51.6504
51.6568
51.6631
51.6695
51.6759
51.6822
51.6886
51.6951
51.7015
51.7079
51.7143
51.7208
51.7273
51.7337
51.7402
51.7467
51.7532
51.7597
51.7662
51.7728
51.7793
51.7859
51.7924
51.799
51.8056
51.8121
51.8187
51.8253
51.8319
51.8386
51.8452
51.8518
51.8585
51.8651
51.8718
51.8784
51.8851
51.8918
51.8984
51.9051
51.9118
51.9185
51.9252
51.9319
51.9386
51.9454
51.9521
51.9588
51.9656
51.9723
51.9791
51.9858
51.9926
51.9993
52.0061
52.0129
52.0196
52.0264
52.0332
52.04
52.0467
52.0536
52.0603
52.0672
52.0739
52.0809
52.0875
52.0945
52.1011
52.1081
52.1147
52.1218
52.1283
52.1354
52.1419
52.1491
52.1555
52.1628
52.1692
52.1765
52.1831
52.1908
52.1973
50.5569
50.5573
50.5578
50.5582
50.5586
50.559
50.5593
50.5597
50.56
50.5603
50.5607
50.561
50.5614
50.5618
50.5622
50.5626
50.5631
50.5636
50.5641
50.5646
50.5651
50.5657
50.5663
50.5669
50.5675
50.5682
50.5689
50.5696
50.5703
50.571
50.5718
50.5726
50.5734
50.5742
50.5751
50.576
50.5769
50.5778
50.5787
50.5797
50.5807
50.5817
50.5828
50.5838
50.5849
50.586
50.5871
50.5883
50.5894
50.5906
50.5918
50.5931
50.5943
50.5956
50.5969
50.5983
50.5996
50.601
50.6024
50.6038
50.6052
50.6067
50.6081
50.6096
50.6112
50.6127
50.6143
50.6159
50.6175
50.6191
50.6208
50.6224
50.6241
50.6259
50.6276
50.6294
50.6311
50.633
50.6348
50.6366
50.6385
50.6403
50.6422
50.6441
50.646
50.648
50.65
50.652
50.654
50.6561
50.6582
50.6603
50.6625
50.6647
50.6669
50.6691
50.6713
50.6736
50.6758
50.6781
50.6804
50.6828
50.6851
50.6874
50.6898
50.6921
50.6945
50.6969
50.6994
50.7019
50.7044
50.7069
50.7095
50.712
50.7146
50.7172
50.7199
50.7225
50.7252
50.7279
50.7306
50.7334
50.7362
50.739
50.7418
50.7446
50.7475
50.7504
50.7533
50.7563
50.7592
50.7622
50.7652
50.7681
50.7711
50.7742
50.7772
50.7802
50.7833
50.7864
50.7895
50.7926
50.7958
50.799
50.8022
50.8055
50.8087
50.812
50.8154
50.8187
50.8221
50.8255
50.8289
50.8323
50.8357
50.8392
50.8426
50.8461
50.8496
50.8532
50.8567
50.8603
50.8639
50.8675
50.8711
50.8748
50.8784
50.8821
50.8858
50.8896
50.8933
50.8971
50.9009
50.9047
50.9085
50.9124
50.9162
50.9201
50.924
50.928
50.9319
50.9359
50.9399
50.9439
50.9479
50.952
50.9561
50.9602
50.9643
50.9684
50.9726
50.9768
50.981
50.9852
50.9894
50.9937
50.9979
51.0022
51.0066
51.0109
51.0152
51.0196
51.024
51.0284
51.0329
51.0373
51.0418
51.0463
51.0508
51.0554
51.0599
51.0645
51.0691
51.0737
51.0783
51.083
51.0877
51.0923
51.0971
51.1018
51.1065
51.1113
51.1161
51.1209
51.1257
51.1306
51.1354
51.1403
51.1452
51.1502
51.1551
51.1601
51.165
51.17
51.1751
51.1801
51.1852
51.1902
51.1953
51.2004
51.2056
51.2107
51.2159
51.2211
51.2263
51.2315
51.2367
51.242
51.2473
51.2526
51.2579
51.2632
51.2686
51.2739
51.2793
51.2847
51.2901
51.2956
51.301
51.3065
51.312
51.3175
51.323
51.3286
51.3341
51.3397
51.3453
51.3509
51.3565
51.3622
51.3678
51.3735
51.3792
51.3849
51.3906
51.3963
51.4021
51.4079
51.4137
51.4195
51.4253
51.4311
51.437
51.4428
51.4487
51.4546
51.4605
51.4665
51.4724
51.4784
51.4843
51.4903
51.4963
51.5023
51.5084
51.5144
51.5205
51.5265
51.5326
51.5387
51.5448
51.551
51.5571
51.5633
51.5694
51.5756
51.5818
51.588
51.5942
51.6005
51.6067
51.613
51.6192
51.6255
51.6318
51.6381
51.6444
51.6508
51.6571
51.6635
51.6698
51.6762
51.6826
51.689
51.6954
51.7018
51.7082
51.7147
51.7211
51.7276
51.7341
51.7406
51.747
51.7535
51.7601
51.7666
51.7731
51.7796
51.7862
51.7928
51.7993
51.8059
51.8125
51.8191
51.8257
51.8323
51.8389
51.8455
51.8521
51.8588
51.8654
51.8721
51.8787
51.8854
51.8921
51.8988
51.9055
51.9121
51.9188
51.9256
51.9323
51.939
51.9457
51.9524
51.9592
51.9659
51.9726
51.9794
51.9862
51.9929
51.9997
52.0064
52.0132
52.02
52.0268
52.0335
52.0404
52.0471
52.054
52.0606
52.0676
52.0742
52.0812
52.0878
52.0948
52.1014
52.1085
52.115
52.1221
52.1286
52.1358
52.1422
52.1494
52.1558
52.1631
52.1695
52.1769
52.1834
52.1911
52.198
50.5569
50.5573
50.5578
50.5582
50.5586
50.559
50.5593
50.5596
50.56
50.5603
50.5607
50.561
50.5614
50.5618
50.5622
50.5626
50.5631
50.5635
50.564
50.5646
50.5651
50.5657
50.5663
50.5669
50.5675
50.5682
50.5689
50.5696
50.5703
50.571
50.5718
50.5726
50.5734
50.5742
50.5751
50.576
50.5769
50.5778
50.5787
50.5797
50.5807
50.5817
50.5828
50.5838
50.5849
50.586
50.5871
50.5883
50.5894
50.5906
50.5918
50.5931
50.5943
50.5956
50.5969
50.5983
50.5996
50.601
50.6024
50.6038
50.6052
50.6067
50.6081
50.6096
50.6112
50.6127
50.6143
50.6159
50.6175
50.6191
50.6208
50.6224
50.6241
50.6259
50.6276
50.6294
50.6311
50.633
50.6348
50.6366
50.6385
50.6403
50.6422
50.6441
50.646
50.648
50.65
50.652
50.654
50.6561
50.6582
50.6603
50.6625
50.6647
50.6669
50.6691
50.6713
50.6736
50.6758
50.6781
50.6804
50.6827
50.6851
50.6874
50.6898
50.6921
50.6945
50.6969
50.6994
50.7019
50.7044
50.7069
50.7095
50.712
50.7146
50.7172
50.7199
50.7225
50.7252
50.7279
50.7306
50.7334
50.7362
50.739
50.7418
50.7446
50.7475
50.7504
50.7533
50.7563
50.7592
50.7622
50.7652
50.7681
50.7711
50.7742
50.7772
50.7802
50.7833
50.7864
50.7895
50.7926
50.7958
50.799
50.8022
50.8055
50.8087
50.812
50.8154
50.8187
50.8221
50.8255
50.8289
50.8323
50.8357
50.8392
50.8426
50.8461
50.8496
50.8532
50.8567
50.8603
50.8639
50.8675
50.8711
50.8748
50.8784
50.8821
50.8858
50.8896
50.8933
50.8971
50.9009
50.9047
50.9085
50.9124
50.9162
50.9201
50.924
50.928
50.9319
50.9359
50.9399
50.9439
50.9479
50.952
50.9561
50.9602
50.9643
50.9684
50.9726
50.9768
50.981
50.9852
50.9894
50.9937
50.9979
51.0022
51.0066
51.0109
51.0152
51.0196
51.024
51.0284
51.0329
51.0373
51.0418
51.0463
51.0508
51.0554
51.0599
51.0645
51.0691
51.0737
51.0783
51.083
51.0877
51.0923
51.0971
51.1018
51.1065
51.1113
51.1161
51.1209
51.1257
51.1306
51.1355
51.1403
51.1452
51.1502
51.1551
51.1601
51.165
51.17
51.1751
51.1801
51.1852
51.1902
51.1953
51.2004
51.2056
51.2107
51.2159
51.2211
51.2263
51.2315
51.2367
51.242
51.2473
51.2526
51.2579
51.2632
51.2686
51.2739
51.2793
51.2847
51.2901
51.2956
51.301
51.3065
51.312
51.3175
51.323
51.3286
51.3341
51.3397
51.3453
51.3509
51.3565
51.3622
51.3678
51.3735
51.3792
51.3849
51.3906
51.3963
51.4021
51.4079
51.4137
51.4195
51.4253
51.4311
51.437
51.4428
51.4487
51.4546
51.4605
51.4665
51.4724
51.4784
51.4843
51.4903
51.4963
51.5023
51.5084
51.5144
51.5205
51.5265
51.5326
51.5387
51.5448
51.551
51.5571
51.5633
51.5694
51.5756
51.5818
51.588
51.5942
51.6005
51.6067
51.613
51.6192
51.6255
51.6318
51.6381
51.6444
51.6508
51.6571
51.6635
51.6698
51.6762
51.6826
51.689
51.6954
51.7018
51.7082
51.7147
51.7211
51.7276
51.7341
51.7406
51.747
51.7535
51.7601
51.7666
51.7731
51.7796
51.7862
51.7928
51.7993
51.8059
51.8125
51.8191
51.8257
51.8323
51.8389
51.8455
51.8521
51.8588
51.8654
51.8721
51.8787
51.8854
51.8921
51.8988
51.9055
51.9121
51.9188
51.9256
51.9323
51.939
51.9457
51.9524
51.9592
51.9659
51.9726
51.9794
51.9862
51.9929
51.9997
52.0064
52.0132
52.02
52.0268
52.0335
52.0404
52.0471
52.054
52.0606
52.0676
52.0742
52.0812
52.0878
52.0948
52.1014
52.1085
52.115
52.1221
52.1286
52.1358
52.1422
52.1494
52.1558
52.1631
52.1695
52.1769
52.1834
52.1911
52.1979
50.5569
50.5573
50.5578
50.5582
50.5586
50.559
50.5593
50.5596
50.56
50.5603
50.5606
50.561
50.5614
50.5618
50.5622
50.5626
50.5631
50.5635
50.564
50.5646
50.5651
50.5657
50.5663
50.5669
50.5675
50.5682
50.5688
50.5695
50.5703
50.571
50.5718
50.5726
50.5734
50.5742
50.5751
50.576
50.5769
50.5778
50.5787
50.5797
50.5807
50.5817
50.5827
50.5838
50.5849
50.586
50.5871
50.5883
50.5894
50.5906
50.5918
50.5931
50.5943
50.5956
50.5969
50.5982
50.5996
50.601
50.6024
50.6038
50.6052
50.6067
50.6081
50.6096
50.6112
50.6127
50.6143
50.6159
50.6175
50.6191
50.6208
50.6224
50.6241
50.6258
50.6276
50.6294
50.6311
50.6329
50.6348
50.6366
50.6384
50.6403
50.6422
50.6441
50.646
50.648
50.65
50.652
50.654
50.6561
50.6582
50.6603
50.6625
50.6647
50.6669
50.6691
50.6713
50.6736
50.6758
50.6781
50.6804
50.6827
50.6851
50.6874
50.6897
50.6921
50.6945
50.6969
50.6994
50.7019
50.7044
50.7069
50.7094
50.712
50.7146
50.7172
50.7199
50.7225
50.7252
50.7279
50.7306
50.7334
50.7361
50.739
50.7418
50.7446
50.7475
50.7504
50.7533
50.7563
50.7592
50.7622
50.7651
50.7681
50.7711
50.7742
50.7772
50.7802
50.7833
50.7864
50.7895
50.7926
50.7958
50.799
50.8022
50.8054
50.8087
50.812
50.8154
50.8187
50.8221
50.8255
50.8289
50.8323
50.8357
50.8392
50.8426
50.8461
50.8496
50.8532
50.8567
50.8603
50.8639
50.8675
50.8711
50.8748
50.8784
50.8821
50.8858
50.8896
50.8933
50.8971
50.9009
50.9047
50.9085
50.9124
50.9162
50.9201
50.924
50.928
50.9319
50.9359
50.9399
50.9439
50.9479
50.952
50.9561
50.9602
50.9643
50.9684
50.9726
50.9768
50.981
50.9852
50.9894
50.9937
50.9979
51.0022
51.0066
51.0109
51.0152
51.0196
51.024
51.0284
51.0329
51.0373
51.0418
51.0463
51.0508
51.0554
51.0599
51.0645
51.0691
51.0737
51.0783
51.083
51.0877
51.0923
51.0971
51.1018
51.1065
51.1113
51.1161
51.1209
51.1257
51.1306
51.1355
51.1403
51.1452
51.1502
51.1551
51.1601
51.165
51.17
51.1751
51.1801
51.1852
51.1902
51.1953
51.2004
51.2056
51.2107
51.2159
51.2211
51.2263
51.2315
51.2367
51.242
51.2473
51.2526
51.2579
51.2632
51.2686
51.2739
51.2793
51.2847
51.2901
51.2956
51.301
51.3065
51.312
51.3175
51.323
51.3286
51.3341
51.3397
51.3453
51.3509
51.3565
51.3622
51.3678
51.3735
51.3792
51.3849
51.3906
51.3963
51.4021
51.4079
51.4137
51.4195
51.4253
51.4311
51.437
51.4428
51.4487
51.4546
51.4605
51.4665
51.4724
51.4784
51.4843
51.4903
51.4963
51.5023
51.5084
51.5144
51.5205
51.5265
51.5326
51.5387
51.5448
51.551
51.5571
51.5633
51.5694
51.5756
51.5818
51.588
51.5942
51.6005
51.6067
51.613
51.6192
51.6255
51.6318
51.6381
51.6444
51.6508
51.6571
51.6635
51.6698
51.6762
51.6826
51.689
51.6954
51.7018
51.7082
51.7147
51.7211
51.7276
51.7341
51.7406
51.747
51.7535
51.7601
51.7666
51.7731
51.7796
51.7862
51.7928
51.7993
51.8059
51.8125
51.8191
51.8257
51.8323
51.8389
51.8455
51.8521
51.8588
51.8654
51.8721
51.8787
51.8854
51.8921
51.8988
51.9055
51.9121
51.9188
51.9256
51.9323
51.939
51.9457
51.9524
51.9592
51.9659
51.9726
51.9794
51.9862
51.9929
51.9997
52.0064
52.0132
52.02
52.0268
52.0335
52.0404
52.0471
52.054
52.0606
52.0676
52.0742
52.0812
52.0878
52.0948
52.1014
52.1085
52.115
52.1221
52.1286
52.1358
52.1422
52.1494
52.1559
52.1631
52.1695
52.1768
52.1834
52.191
52.198
50.5569
50.5572
50.5578
50.5582
50.5586
50.559
50.5593
50.5596
50.56
50.5603
50.5606
50.561
50.5614
50.5617
50.5622
50.5626
50.5631
50.5635
50.564
50.5646
50.5651
50.5657
50.5663
50.5669
50.5675
50.5682
50.5688
50.5695
50.5703
50.571
50.5718
50.5726
50.5734
50.5742
50.5751
50.576
50.5769
50.5778
50.5787
50.5797
50.5807
50.5817
50.5827
50.5838
50.5849
50.586
50.5871
50.5883
50.5894
50.5906
50.5918
50.5931
50.5943
50.5956
50.5969
50.5982
50.5996
50.601
50.6023
50.6038
50.6052
50.6067
50.6081
50.6096
50.6112
50.6127
50.6143
50.6159
50.6175
50.6191
50.6208
50.6224
50.6241
50.6258
50.6276
50.6293
50.6311
50.6329
50.6348
50.6366
50.6384
50.6403
50.6422
50.6441
50.646
50.648
50.6499
50.652
50.654
50.6561
50.6582
50.6603
50.6625
50.6647
50.6669
50.6691
50.6713
50.6736
50.6758
50.6781
50.6804
50.6827
50.6851
50.6874
50.6897
50.6921
50.6945
50.6969
50.6994
50.7019
50.7044
50.7069
50.7094
50.712
50.7146
50.7172
50.7199
50.7225
50.7252
50.7279
50.7306
50.7334
50.7361
50.739
50.7418
50.7446
50.7475
50.7504
50.7533
50.7563
50.7592
50.7622
50.7651
50.7681
50.7711
50.7742
50.7772
50.7802
50.7833
50.7864
50.7895
50.7926
50.7958
50.799
50.8022
50.8054
50.8087
50.812
50.8154
50.8187
50.8221
50.8255
50.8289
50.8323
50.8357
50.8392
50.8426
50.8461
50.8496
50.8532
50.8567
50.8603
50.8639
50.8675
50.8711
50.8748
50.8784
50.8821
50.8858
50.8896
50.8933
50.8971
50.9009
50.9047
50.9085
50.9124
50.9162
50.9201
50.924
50.928
50.9319
50.9359
50.9399
50.9439
50.9479
50.952
50.9561
50.9602
50.9643
50.9684
50.9726
50.9768
50.981
50.9852
50.9894
50.9937
50.9979
51.0022
51.0066
51.0109
51.0152
51.0196
51.024
51.0284
51.0329
51.0373
51.0418
51.0463
51.0508
51.0554
51.0599
51.0645
51.0691
51.0737
51.0783
51.083
51.0877
51.0923
51.0971
51.1018
51.1065
51.1113
51.1161
51.1209
51.1257
51.1306
51.1355
51.1403
51.1452
51.1502
51.1551
51.1601
51.165
51.17
51.1751
51.1801
51.1852
51.1902
51.1953
51.2004
51.2056
51.2107
51.2159
51.2211
51.2263
51.2315
51.2367
51.242
51.2473
51.2526
51.2579
51.2632
51.2686
51.2739
51.2793
51.2847
51.2901
51.2956
51.301
51.3065
51.312
51.3175
51.323
51.3286
51.3341
51.3397
51.3453
51.3509
51.3565
51.3622
51.3678
51.3735
51.3792
51.3849
51.3906
51.3963
51.4021
51.4079
51.4137
51.4195
51.4253
51.4311
51.437
51.4428
51.4487
51.4546
51.4605
51.4665
51.4724
51.4784
51.4843
51.4903
51.4963
51.5023
51.5084
51.5144
51.5205
51.5265
51.5326
51.5387
51.5448
51.551
51.5571
51.5633
51.5694
51.5756
51.5818
51.588
51.5942
51.6005
51.6067
51.613
51.6192
51.6255
51.6318
51.6381
51.6444
51.6508
51.6571
51.6635
51.6698
51.6762
51.6826
51.689
51.6954
51.7018
51.7082
51.7147
51.7211
51.7276
51.7341
51.7406
51.747
51.7535
51.7601
51.7666
51.7731
51.7796
51.7862
51.7928
51.7993
51.8059
51.8125
51.8191
51.8257
51.8323
51.8389
51.8455
51.8521
51.8588
51.8654
51.8721
51.8787
51.8854
51.8921
51.8988
51.9055
51.9121
51.9188
51.9256
51.9323
51.939
51.9457
51.9524
51.9592
51.9659
51.9726
51.9794
51.9862
51.9929
51.9997
52.0064
52.0132
52.02
52.0268
52.0335
52.0404
52.0471
52.054
52.0606
52.0676
52.0742
52.0812
52.0878
52.0948
52.1014
52.1085
52.115
52.1221
52.1286
52.1358
52.1422
52.1494
52.1559
52.1631
52.1695
52.1768
52.1832
52.1907
52.1971
50.5569
50.5572
50.5578
50.5582
50.5586
50.559
50.5593
50.5596
50.56
50.5603
50.5606
50.561
50.5614
50.5617
50.5622
50.5626
50.5631
50.5635
50.564
50.5646
50.5651
50.5657
50.5663
50.5669
50.5675
50.5682
50.5688
50.5695
50.5703
50.571
50.5718
50.5726
50.5734
50.5742
50.5751
50.576
50.5769
50.5778
50.5787
50.5797
50.5807
50.5817
50.5827
50.5838
50.5849
50.586
50.5871
50.5883
50.5894
50.5906
50.5918
50.5931
50.5943
50.5956
50.5969
50.5982
50.5996
50.601
50.6023
50.6038
50.6052
50.6067
50.6081
50.6096
50.6112
50.6127
50.6143
50.6159
50.6175
50.6191
50.6208
50.6224
50.6241
50.6258
50.6276
50.6293
50.6311
50.6329
50.6348
50.6366
50.6384
50.6403
50.6422
50.6441
50.646
50.648
50.6499
50.652
50.654
50.6561
50.6582
50.6603
50.6625
50.6647
50.6669
50.6691
50.6713
50.6736
50.6758
50.6781
50.6804
50.6827
50.6851
50.6874
50.6897
50.6921
50.6945
50.6969
50.6994
50.7019
50.7044
50.7069
50.7094
50.712
50.7146
50.7172
50.7199
50.7225
50.7252
50.7279
50.7306
50.7334
50.7361
50.739
50.7418
50.7446
50.7475
50.7504
50.7533
50.7563
50.7592
50.7622
50.7651
50.7681
50.7711
50.7742
50.7772
50.7802
50.7833
50.7864
50.7895
50.7926
50.7958
50.799
50.8022
50.8054
50.8087
50.812
50.8154
50.8187
50.8221
50.8255
50.8289
50.8323
50.8357
50.8392
50.8426
50.8461
50.8496
50.8532
50.8567
50.8603
50.8639
50.8675
50.8711
50.8748
50.8784
50.8821
50.8858
50.8896
50.8933
50.8971
50.9009
50.9047
50.9085
50.9124
50.9162
50.9201
50.924
50.928
50.9319
50.9359
50.9399
50.9439
50.9479
50.952
50.9561
50.9602
50.9643
50.9684
50.9726
50.9768
50.981
50.9852
50.9894
50.9937
50.9979
51.0022
51.0066
51.0109
51.0152
51.0196
51.024
51.0284
51.0329
51.0373
51.0418
51.0463
51.0508
51.0554
51.0599
51.0645
51.0691
51.0737
51.0783
51.083
51.0877
51.0923
51.0971
51.1018
51.1065
51.1113
51.1161
51.1209
51.1257
51.1306
51.1355
51.1403
51.1452
51.1502
51.1551
51.1601
51.165
51.17
51.1751
51.1801
51.1852
51.1902
51.1953
51.2004
51.2056
51.2107
51.2159
51.2211
51.2263
51.2315
51.2367
51.242
51.2473
51.2526
51.2579
51.2632
51.2686
51.2739
51.2793
51.2847
51.2901
51.2956
51.301
51.3065
51.312
51.3175
51.323
51.3286
51.3341
51.3397
51.3453
51.3509
51.3565
51.3622
51.3678
51.3735
51.3792
51.3849
51.3906
51.3963
51.4021
51.4079
51.4137
51.4195
51.4253
51.4311
51.437
51.4428
51.4487
51.4546
51.4605
51.4665
51.4724
51.4784
51.4843
51.4903
51.4963
51.5023
51.5084
51.5144
51.5205
51.5265
51.5326
51.5387
51.5448
51.551
51.5571
51.5633
51.5694
51.5756
51.5818
51.588
51.5942
51.6005
51.6067
51.613
51.6192
51.6255
51.6318
51.6381
51.6444
51.6508
51.6571
51.6635
51.6698
51.6762
51.6826
51.689
51.6954
51.7018
51.7082
51.7147
51.7211
51.7276
51.7341
51.7406
51.747
51.7535
51.7601
51.7666
51.7731
51.7796
51.7862
51.7928
51.7993
51.8059
51.8125
51.8191
51.8257
51.8323
51.8389
51.8455
51.8521
51.8588
51.8654
51.8721
51.8787
51.8854
51.8921
51.8988
51.9055
51.9121
51.9188
51.9256
51.9323
51.939
51.9457
51.9524
51.9592
51.9659
51.9726
51.9794
51.9861
51.9929
51.9997
52.0064
52.0132
52.02
52.0268
52.0335
52.0403
52.0471
52.0539
52.0607
52.0675
52.0742
52.0811
52.0879
52.0947
52.1016
52.1083
52.1152
52.1219
52.1288
52.1356
52.1423
52.1493
52.156
52.1628
52.1698
52.1763
52.1834
52.1897
52.1964
50.5569
50.5573
50.5578
50.5582
50.5586
50.559
50.5593
50.5596
50.56
50.5603
50.5606
50.561
50.5614
50.5618
50.5622
50.5626
50.5631
50.5635
50.564
50.5646
50.5651
50.5657
50.5663
50.5669
50.5675
50.5682
50.5688
50.5695
50.5703
50.571
50.5718
50.5726
50.5734
50.5742
50.5751
50.576
50.5769
50.5778
50.5787
50.5797
50.5807
50.5817
50.5827
50.5838
50.5849
50.586
50.5871
50.5883
50.5894
50.5906
50.5918
50.5931
50.5943
50.5956
50.5969
50.5982
50.5996
50.601
50.6024
50.6038
50.6052
50.6067
50.6081
50.6096
50.6112
50.6127
50.6143
50.6159
50.6175
50.6191
50.6208
50.6224
50.6241
50.6258
50.6276
50.6294
50.6311
50.6329
50.6348
50.6366
50.6384
50.6403
50.6422
50.6441
50.646
50.648
50.65
50.652
50.654
50.6561
50.6582
50.6603
50.6625
50.6647
50.6669
50.6691
50.6713
50.6736
50.6758
50.6781
50.6804
50.6827
50.6851
50.6874
50.6897
50.6921
50.6945
50.6969
50.6994
50.7019
50.7044
50.7069
50.7094
50.712
50.7146
50.7172
50.7199
50.7225
50.7252
50.7279
50.7306
50.7334
50.7361
50.739
50.7418
50.7446
50.7475
50.7504
50.7533
50.7563
50.7592
50.7622
50.7651
50.7681
50.7711
50.7742
50.7772
50.7802
50.7833
50.7864
50.7895
50.7926
50.7958
50.799
50.8022
50.8054
50.8087
50.812
50.8154
50.8187
50.8221
50.8255
50.8289
50.8323
50.8357
50.8392
50.8426
50.8461
50.8496
50.8532
50.8567
50.8603
50.8639
50.8675
50.8711
50.8748
50.8784
50.8821
50.8858
50.8896
50.8933
50.8971
50.9009
50.9047
50.9085
50.9124
50.9162
50.9201
50.924
50.928
50.9319
50.9359
50.9399
50.9439
50.9479
50.952
50.9561
50.9602
50.9643
50.9684
50.9726
50.9768
50.981
50.9852
50.9894
50.9937
50.9979
51.0022
51.0066
51.0109
51.0152
51.0196
51.024
51.0284
51.0329
51.0373
51.0418
51.0463
51.0508
51.0554
51.0599
51.0645
51.0691
51.0737
51.0783
51.083
51.0877
51.0923
51.0971
51.1018
51.1065
51.1113
51.1161
51.1209
51.1257
51.1306
51.1355
51.1403
51.1452
51.1502
51.1551
51.1601
51.165
51.17
51.1751
51.1801
51.1852
51.1902
51.1953
51.2004
51.2056
51.2107
51.2159
51.2211
51.2263
51.2315
51.2367
51.242
51.2473
51.2526
51.2579
51.2632
51.2686
51.2739
51.2793
51.2847
51.2901
51.2956
51.301
51.3065
51.312
51.3175
51.323
51.3286
51.3341
51.3397
51.3453
51.3509
51.3565
51.3622
51.3678
51.3735
51.3792
51.3849
51.3906
51.3963
51.4021
51.4079
51.4137
51.4195
51.4253
51.4311
51.437
51.4428
51.4487
51.4546
51.4605
51.4665
51.4724
51.4784
51.4843
51.4903
51.4963
51.5023
51.5084
51.5144
51.5205
51.5265
51.5326
51.5387
51.5448
51.551
51.5571
51.5633
51.5694
51.5756
51.5818
51.588
51.5942
51.6005
51.6067
51.613
51.6192
51.6255
51.6318
51.6381
51.6444
51.6508
51.6571
51.6635
51.6698
51.6762
51.6826
51.689
51.6954
51.7018
51.7082
51.7147
51.7211
51.7276
51.7341
51.7406
51.747
51.7535
51.7601
51.7666
51.7731
51.7796
51.7862
51.7928
51.7993
51.8059
51.8125
51.8191
51.8257
51.8323
51.8389
51.8455
51.8521
51.8588
51.8654
51.8721
51.8787
51.8854
51.8921
51.8988
51.9055
51.9121
51.9188
51.9256
51.9323
51.939
51.9457
51.9524
51.9592
51.9659
51.9726
51.9794
51.9861
51.9929
51.9997
52.0064
52.0132
52.02
52.0268
52.0335
52.0403
52.0471
52.0539
52.0607
52.0674
52.0744
52.081
52.088
52.0947
52.1015
52.1084
52.1151
52.122
52.1287
52.1356
52.1425
52.1491
52.1562
52.1626
52.1699
52.1761
52.1832
52.1893
52.1953
50.5569
50.5573
50.5578
50.5582
50.5586
50.559
50.5593
50.5596
50.56
50.5603
50.5607
50.561
50.5614
50.5618
50.5622
50.5626
50.5631
50.5635
50.564
50.5646
50.5651
50.5657
50.5663
50.5669
50.5675
50.5682
50.5689
50.5696
50.5703
50.571
50.5718
50.5726
50.5734
50.5742
50.5751
50.576
50.5769
50.5778
50.5787
50.5797
50.5807
50.5817
50.5828
50.5838
50.5849
50.586
50.5871
50.5883
50.5894
50.5906
50.5918
50.5931
50.5943
50.5956
50.5969
50.5983
50.5996
50.601
50.6024
50.6038
50.6052
50.6067
50.6081
50.6096
50.6112
50.6127
50.6143
50.6159
50.6175
50.6191
50.6208
50.6224
50.6241
50.6259
50.6276
50.6294
50.6311
50.633
50.6348
50.6366
50.6385
50.6403
50.6422
50.6441
50.646
50.648
50.65
50.652
50.654
50.6561
50.6582
50.6603
50.6625
50.6647
50.6669
50.6691
50.6713
50.6736
50.6758
50.6781
50.6804
50.6827
50.6851
50.6874
50.6898
50.6921
50.6945
50.6969
50.6994
50.7019
50.7044
50.7069
50.7095
50.712
50.7146
50.7172
50.7199
50.7225
50.7252
50.7279
50.7306
50.7334
50.7362
50.739
50.7418
50.7446
50.7475
50.7504
50.7533
50.7563
50.7592
50.7622
50.7652
50.7681
50.7711
50.7742
50.7772
50.7802
50.7833
50.7864
50.7895
50.7926
50.7958
50.799
50.8022
50.8055
50.8087
50.812
50.8154
50.8187
50.8221
50.8255
50.8289
50.8323
50.8357
50.8392
50.8426
50.8461
50.8496
50.8532
50.8567
50.8603
50.8639
50.8675
50.8711
50.8748
50.8784
50.8821
50.8858
50.8896
50.8933
50.8971
50.9009
50.9047
50.9085
50.9124
50.9162
50.9201
50.924
50.928
50.9319
50.9359
50.9399
50.9439
50.9479
50.952
50.9561
50.9602
50.9643
50.9684
50.9726
50.9768
50.981
50.9852
50.9894
50.9937
50.9979
51.0022
51.0066
51.0109
51.0152
51.0196
51.024
51.0284
51.0329
51.0373
51.0418
51.0463
51.0508
51.0554
51.0599
51.0645
51.0691
51.0737
51.0783
51.083
51.0877
51.0923
51.0971
51.1018
51.1065
51.1113
51.1161
51.1209
51.1257
51.1306
51.1355
51.1403
51.1452
51.1502
51.1551
51.1601
51.165
51.17
51.1751
51.1801
51.1852
51.1902
51.1953
51.2004
51.2056
51.2107
51.2159
51.2211
51.2263
51.2315
51.2367
51.242
51.2473
51.2526
51.2579
51.2632
51.2686
51.2739
51.2793
51.2847
51.2901
51.2956
51.301
51.3065
51.312
51.3175
51.323
51.3286
51.3341
51.3397
51.3453
51.3509
51.3565
51.3622
51.3678
51.3735
51.3792
51.3849
51.3906
51.3963
51.4021
51.4079
51.4137
51.4195
51.4253
51.4311
51.437
51.4428
51.4487
51.4546
51.4605
51.4665
51.4724
51.4784
51.4843
51.4903
51.4963
51.5023
51.5084
51.5144
51.5205
51.5265
51.5326
51.5387
51.5448
51.551
51.5571
51.5633
51.5694
51.5756
51.5818
51.588
51.5942
51.6005
51.6067
51.613
51.6192
51.6255
51.6318
51.6381
51.6444
51.6508
51.6571
51.6635
51.6698
51.6762
51.6826
51.689
51.6954
51.7018
51.7082
51.7147
51.7211
51.7276
51.7341
51.7406
51.747
51.7535
51.7601
51.7666
51.7731
51.7796
51.7862
51.7928
51.7993
51.8059
51.8125
51.8191
51.8257
51.8323
51.8389
51.8455
51.8521
51.8588
51.8654
51.8721
51.8787
51.8854
51.8921
51.8988
51.9055
51.9121
51.9188
51.9256
51.9323
51.939
51.9457
51.9524
51.9592
51.9659
51.9726
51.9794
51.9861
51.9929
51.9997
52.0064
52.0132
52.02
52.0268
52.0335
52.0403
52.0471
52.0539
52.0607
52.0674
52.0744
52.081
52.088
52.0946
52.1016
52.1082
52.1152
52.1219
52.1289
52.1354
52.1426
52.149
52.1563
52.1626
52.1699
52.1761
52.1832
52.1887
52.1967
50.5569
50.5573
50.5578
50.5582
50.5586
50.559
50.5593
50.5597
50.56
50.5603
50.5607
50.561
50.5614
50.5618
50.5622
50.5626
50.5631
50.5636
50.5641
50.5646
50.5651
50.5657
50.5663
50.5669
50.5675
50.5682
50.5689
50.5696
50.5703
50.571
50.5718
50.5726
50.5734
50.5742
50.5751
50.576
50.5769
50.5778
50.5787
50.5797
50.5807
50.5817
50.5828
50.5838
50.5849
50.586
50.5871
50.5883
50.5894
50.5906
50.5918
50.5931
50.5943
50.5956
50.5969
50.5983
50.5996
50.601
50.6024
50.6038
50.6052
50.6067
50.6081
50.6096
50.6112
50.6127
50.6143
50.6159
50.6175
50.6191
50.6208
50.6224
50.6241
50.6259
50.6276
50.6294
50.6311
50.633
50.6348
50.6366
50.6385
50.6403
50.6422
50.6441
50.646
50.648
50.65
50.652
50.654
50.6561
50.6582
50.6603
50.6625
50.6647
50.6669
50.6691
50.6713
50.6736
50.6758
50.6781
50.6804
50.6828
50.6851
50.6874
50.6898
50.6921
50.6945
50.6969
50.6994
50.7019
50.7044
50.7069
50.7095
50.712
50.7146
50.7172
50.7199
50.7225
50.7252
50.7279
50.7306
50.7334
50.7362
50.739
50.7418
50.7446
50.7475
50.7504
50.7533
50.7563
50.7592
50.7622
50.7652
50.7681
50.7711
50.7742
50.7772
50.7802
50.7833
50.7864
50.7895
50.7926
50.7958
50.799
50.8022
50.8055
50.8087
50.812
50.8154
50.8187
50.8221
50.8255
50.8289
50.8323
50.8357
50.8392
50.8426
50.8461
50.8496
50.8532
50.8567
50.8603
50.8639
50.8675
50.8711
50.8748
50.8784
50.8821
50.8858
50.8896
50.8933
50.8971
50.9009
50.9047
50.9085
50.9124
50.9162
50.9201
50.924
50.928
50.9319
50.9359
50.9399
50.9439
50.9479
50.952
50.9561
50.9602
50.9643
50.9684
50.9726
50.9768
50.981
50.9852
50.9894
50.9937
50.9979
51.0022
51.0066
51.0109
51.0152
51.0196
51.024
51.0284
51.0329
51.0373
51.0418
51.0463
51.0508
51.0554
51.0599
51.0645
51.0691
51.0737
51.0783
51.083
51.0877
51.0923
51.0971
51.1018
51.1065
51.1113
51.1161
51.1209
51.1257
51.1306
51.1354
51.1403
51.1452
51.1502
51.1551
51.1601
51.165
51.17
51.1751
51.1801
51.1852
51.1902
51.1953
51.2004
51.2056
51.2107
51.2159
51.2211
51.2263
51.2315
51.2367
51.242
51.2473
51.2526
51.2579
51.2632
51.2686
51.2739
51.2793
51.2847
51.2901
51.2956
51.301
51.3065
51.312
51.3175
51.323
51.3286
51.3341
51.3397
51.3453
51.3509
51.3565
51.3622
51.3678
51.3735
51.3792
51.3849
51.3906
51.3963
51.4021
51.4079
51.4137
51.4195
51.4253
51.4311
51.437
51.4428
51.4487
51.4546
51.4605
51.4665
51.4724
51.4784
51.4843
51.4903
51.4963
51.5023
51.5084
51.5144
51.5205
51.5265
51.5326
51.5387
51.5448
51.551
51.5571
51.5633
51.5694
51.5756
51.5818
51.588
51.5942
51.6005
51.6067
51.613
51.6192
51.6255
51.6318
51.6381
51.6444
51.6508
51.6571
51.6635
51.6698
51.6762
51.6826
51.689
51.6954
51.7018
51.7082
51.7147
51.7211
51.7276
51.7341
51.7406
51.747
51.7535
51.7601
51.7666
51.7731
51.7796
51.7862
51.7928
51.7993
51.8059
51.8125
51.8191
51.8257
51.8323
51.8389
51.8455
51.8521
51.8588
51.8654
51.8721
51.8787
51.8854
51.8921
51.8988
51.9055
51.9121
51.9188
51.9256
51.9323
51.939
51.9457
51.9524
51.9592
51.9659
51.9726
51.9794
51.9861
51.9929
51.9997
52.0064
52.0132
52.02
52.0268
52.0335
52.0403
52.0471
52.0539
52.0607
52.0674
52.0744
52.081
52.088
52.0946
52.1016
52.1082
52.1153
52.1218
52.1289
52.1354
52.1426
52.149
52.1563
52.1626
52.1699
52.1761
52.1832
52.1885
52.198
50.5564
50.5567
50.5573
50.5577
50.5581
50.5585
50.5588
50.5591
50.5595
50.5598
50.5601
50.5605
50.5609
50.5613
50.5617
50.5621
50.5626
50.563
50.5635
50.5641
50.5646
50.5652
50.5658
50.5664
50.567
50.5677
50.5684
50.5691
50.5698
50.5705
50.5713
50.5721
50.5729
50.5737
50.5746
50.5755
50.5764
50.5773
50.5783
50.5792
50.5802
50.5812
50.5823
50.5833
50.5844
50.5855
50.5866
50.5878
50.589
50.5902
50.5914
50.5926
50.5939
50.5952
50.5965
50.5978
50.5991
50.6005
50.6019
50.6033
50.6047
50.6062
50.6077
50.6092
50.6107
50.6123
50.6138
50.6154
50.617
50.6187
50.6203
50.622
50.6237
50.6254
50.6271
50.6289
50.6307
50.6325
50.6343
50.6362
50.638
50.6399
50.6417
50.6437
50.6456
50.6475
50.6495
50.6515
50.6536
50.6557
50.6578
50.6599