/*--------------------------------*- C++ -*----------------------------------*\
| =========                 |                                                 |
| \\      /  F ield         | OpenFOAM: The Open Source CFD Toolbox           |
|  \\    /   O peration     | Version:  3.0.x                                 |
|   \\  /    A nd           | Web:      www.OpenFOAM.org                      |
|    \\/     M anipulation  |                                                 |
\*---------------------------------------------------------------------------*/
FoamFile
{
    version     2.0;
    format      ascii;
    class       volScalarField;
    location    "0.5";
    object      T;
}
// * * * * * * * * * * * * * * * * * * * * * * * * * * * * * * * * * * * * * //

dimensions      [0 0 0 1 0 0 0];

internalField   nonuniform List<scalar> 
27600
(
773.314
773.31
773.305
773.301
773.299
773.297
773.296
773.296
773.296
773.296
773.297
773.298
773.299
773.3
773.301
773.303
773.304
773.306
773.307
773.309
773.31
773.312
773.314
773.316
773.318
773.32
773.322
773.324
773.326
773.328
773.331
773.333
773.335
773.338
773.341
773.343
773.346
773.349
773.352
773.355
773.358
773.361
773.364
773.367
773.371
773.374
773.377
773.381
773.384
773.388
773.392
773.396
773.399
773.403
773.407
773.411
773.416
773.42
773.424
773.428
773.433
773.437
773.442
773.446
773.451
773.456
773.46
773.465
773.47
773.475
773.48
773.485
773.491
773.496
773.501
773.507
773.512
773.517
773.523
773.529
773.535
773.542
773.548
773.554
773.561
773.567
773.574
773.58
773.586
773.592
773.598
773.604
773.61
773.616
773.622
773.629
773.635
773.642
773.648
773.655
773.662
773.669
773.677
773.685
773.692
773.7
773.708
773.716
773.724
773.731
773.739
773.747
773.755
773.762
773.77
773.778
773.786
773.794
773.803
773.811
773.819
773.827
773.835
773.843
773.851
773.859
773.868
773.876
773.884
773.893
773.901
773.91
773.919
773.928
773.938
773.947
773.957
773.967
773.977
773.986
773.996
774.006
774.016
774.026
774.035
774.045
774.054
774.064
774.074
774.083
774.093
774.103
774.113
774.123
774.133
774.144
774.154
774.165
774.175
774.186
774.197
774.208
774.219
774.23
774.241
774.252
774.263
774.274
774.285
774.297
774.308
774.32
774.331
774.343
774.355
774.366
774.378
774.39
774.402
774.414
774.426
774.438
774.45
774.463
774.475
774.487
774.5
774.512
774.525
774.537
774.55
774.563
774.576
774.588
774.601
774.614
774.627
774.64
774.654
774.667
774.68
774.693
774.707
774.72
774.734
774.747
774.761
774.775
774.788
774.802
774.816
774.83
774.844
774.858
774.872
774.886
774.9
774.915
774.929
774.943
774.958
774.972
774.987
775.002
775.016
775.031
775.046
775.061
775.076
775.091
775.106
775.121
775.136
775.151
775.166
775.182
775.197
775.212
775.228
775.243
775.259
775.274
775.29
775.306
775.322
775.338
775.353
775.369
775.385
775.402
775.418
775.434
775.45
775.466
775.483
775.499
775.515
775.532
775.549
775.565
775.582
775.598
775.615
775.632
775.649
775.666
775.683
775.7
775.717
775.734
775.751
775.768
775.785
775.803
775.82
775.837
775.855
775.872
775.89
775.907
775.925
775.943
775.96
775.978
775.996
776.014
776.032
776.049
776.067
776.085
776.103
776.122
776.14
776.158
776.176
776.194
776.213
776.231
776.249
776.268
776.286
776.305
776.323
776.342
776.361
776.379
776.398
776.417
776.435
776.454
776.473
776.492
776.511
776.53
776.549
776.568
776.587
776.606
776.625
776.644
776.664
776.683
776.702
776.721
776.741
776.76
776.779
776.799
776.818
776.838
776.857
776.877
776.896
776.916
776.935
776.955
776.975
776.994
777.014
777.034
777.054
777.073
777.093
777.113
777.133
777.153
777.173
777.193
777.212
777.232
777.252
777.272
777.292
777.312
777.333
777.353
777.373
777.393
777.413
777.433
777.453
777.473
777.494
777.514
777.534
777.554
777.574
777.595
777.615
777.635
777.655
777.676
777.696
777.717
777.736
777.758
777.777
777.798
777.817
777.839
777.858
777.88
777.898
777.921
777.939
777.963
777.979
778.004
778.02
778.045
778.06
778.086
778.101
778.127
778.141
778.169
778.183
778.212
778.228
778.272
773.306
773.302
773.297
773.293
773.291
773.289
773.288
773.288
773.288
773.289
773.289
773.29
773.291
773.292
773.294
773.295
773.296
773.298
773.299
773.301
773.303
773.304
773.306
773.308
773.31
773.312
773.314
773.316
773.318
773.321
773.323
773.325
773.328
773.331
773.333
773.336
773.339
773.341
773.344
773.347
773.35
773.354
773.357
773.36
773.363
773.367
773.37
773.374
773.377
773.381
773.385
773.388
773.392
773.396
773.4
773.404
773.408
773.413
773.417
773.421
773.426
773.43
773.435
773.439
773.444
773.449
773.453
773.458
773.463
773.468
773.473
773.478
773.484
773.489
773.494
773.5
773.505
773.511
773.516
773.522
773.528
773.535
773.541
773.548
773.554
773.56
773.567
773.573
773.579
773.586
773.592
773.598
773.604
773.61
773.616
773.622
773.629
773.635
773.642
773.649
773.656
773.663
773.67
773.678
773.686
773.694
773.702
773.71
773.717
773.725
773.733
773.741
773.748
773.756
773.764
773.772
773.78
773.788
773.797
773.805
773.813
773.821
773.829
773.838
773.846
773.854
773.862
773.87
773.879
773.887
773.896
773.904
773.913
773.922
773.932
773.941
773.951
773.961
773.971
773.981
773.991
774
774.01
774.02
774.03
774.04
774.049
774.059
774.068
774.078
774.088
774.098
774.108
774.118
774.128
774.138
774.149
774.159
774.17
774.181
774.192
774.202
774.213
774.224
774.235
774.247
774.258
774.269
774.28
774.292
774.303
774.315
774.326
774.338
774.35
774.361
774.373
774.385
774.397
774.409
774.421
774.433
774.445
774.458
774.47
774.482
774.495
774.507
774.52
774.532
774.545
774.558
774.57
774.583
774.596
774.609
774.622
774.635
774.648
774.662
774.675
774.688
774.702
774.715
774.729
774.742
774.756
774.77
774.783
774.797
774.811
774.825
774.839
774.853
774.867
774.881
774.895
774.91
774.924
774.938
774.953
774.967
774.982
774.997
775.011
775.026
775.041
775.056
775.07
775.085
775.1
775.116
775.131
775.146
775.161
775.176
775.192
775.207
775.223
775.238
775.254
775.269
775.285
775.301
775.317
775.332
775.348
775.364
775.38
775.396
775.413
775.429
775.445
775.461
775.478
775.494
775.51
775.527
775.543
775.56
775.577
775.593
775.61
775.627
775.644
775.661
775.678
775.695
775.712
775.729
775.746
775.763
775.78
775.798
775.815
775.832
775.85
775.867
775.885
775.902
775.92
775.938
775.955
775.973
775.991
776.009
776.026
776.044
776.062
776.08
776.098
776.117
776.135
776.153
776.171
776.189
776.208
776.226
776.244
776.263
776.281
776.3
776.318
776.337
776.356
776.374
776.393
776.412
776.43
776.449
776.468
776.487
776.506
776.525
776.544
776.563
776.582
776.601
776.62
776.639
776.659
776.678
776.697
776.716
776.736
776.755
776.774
776.794
776.813
776.833
776.852
776.872
776.891
776.911
776.93
776.95
776.97
776.989
777.009
777.029
777.049
777.068
777.088
777.108
777.128
777.148
777.168
777.188
777.207
777.227
777.247
777.267
777.287
777.307
777.328
777.348
777.368
777.388
777.408
777.428
777.448
777.468
777.489
777.509
777.529
777.549
777.569
777.59
777.61
777.63
777.65
777.671
777.691
777.712
777.731
777.753
777.772
777.794
777.812
777.835
777.853
777.876
777.893
777.917
777.934
777.958
777.974
777.999
778.015
778.04
778.055
778.081
778.096
778.122
778.136
778.164
778.178
778.207
778.224
778.262
773.306
773.302
773.297
773.293
773.291
773.289
773.288
773.288
773.288
773.289
773.289
773.29
773.291
773.292
773.294
773.295
773.296
773.298
773.299
773.301
773.303
773.304
773.306
773.308
773.31
773.312
773.314
773.316
773.318
773.321
773.323
773.326
773.328
773.331
773.333
773.336
773.339
773.342
773.344
773.347
773.35
773.354
773.357
773.36
773.363
773.367
773.37
773.374
773.377
773.381
773.385
773.388
773.392
773.396
773.4
773.404
773.408
773.413
773.417
773.421
773.426
773.43
773.435
773.439
773.444
773.449
773.453
773.458
773.463
773.468
773.473
773.478
773.484
773.489
773.494
773.5
773.505
773.511
773.516
773.522
773.528
773.535
773.541
773.548
773.554
773.56
773.567
773.573
773.58
773.586
773.592
773.598
773.604
773.61
773.616
773.622
773.629
773.635
773.642
773.649
773.656
773.663
773.671
773.678
773.686
773.694
773.702
773.71
773.717
773.725
773.733
773.741
773.748
773.756
773.764
773.772
773.78
773.788
773.797
773.805
773.813
773.821
773.829
773.838
773.846
773.854
773.862
773.87
773.879
773.887
773.896
773.904
773.913
773.922
773.932
773.941
773.951
773.961
773.971
773.981
773.991
774
774.01
774.02
774.03
774.04
774.049
774.059
774.068
774.078
774.088
774.098
774.108
774.118
774.128
774.138
774.149
774.159
774.17
774.181
774.192
774.202
774.213
774.224
774.235
774.247
774.258
774.269
774.28
774.292
774.303
774.315
774.326
774.338
774.35
774.361
774.373
774.385
774.397
774.409
774.421
774.433
774.445
774.458
774.47
774.482
774.495
774.507
774.52
774.532
774.545
774.558
774.57
774.583
774.596
774.609
774.622
774.635
774.648
774.662
774.675
774.688
774.702
774.715
774.729
774.742
774.756
774.77
774.783
774.797
774.811
774.825
774.839
774.853
774.867
774.881
774.895
774.91
774.924
774.938
774.953
774.967
774.982
774.996
775.011
775.026
775.041
775.056
775.07
775.085
775.1
775.116
775.131
775.146
775.161
775.176
775.192
775.207
775.223
775.238
775.254
775.269
775.285
775.301
775.317
775.332
775.348
775.364
775.38
775.396
775.413
775.429
775.445
775.461
775.478
775.494
775.51
775.527
775.543
775.56
775.577
775.593
775.61
775.627
775.644
775.661
775.678
775.695
775.712
775.729
775.746
775.763
775.78
775.798
775.815
775.832
775.85
775.867
775.885
775.902
775.92
775.938
775.955
775.973
775.991
776.009
776.026
776.044
776.062
776.08
776.098
776.117
776.135
776.153
776.171
776.189
776.208
776.226
776.244
776.263
776.281
776.3
776.318
776.337
776.356
776.374
776.393
776.412
776.43
776.449
776.468
776.487
776.506
776.525
776.544
776.563
776.582
776.601
776.62
776.639
776.659
776.678
776.697
776.716
776.736
776.755
776.774
776.794
776.813
776.833
776.852
776.872
776.891
776.911
776.93
776.95
776.97
776.989
777.009
777.029
777.049
777.068
777.088
777.108
777.128
777.148
777.168
777.188
777.207
777.227
777.247
777.267
777.287
777.307
777.328
777.348
777.368
777.388
777.408
777.428
777.448
777.468
777.489
777.509
777.529
777.549
777.569
777.59
777.61
777.63
777.65
777.671
777.691
777.712
777.731
777.753
777.772
777.794
777.812
777.835
777.853
777.876
777.893
777.917
777.934
777.958
777.974
777.999
778.015
778.04
778.055
778.081
778.096
778.122
778.136
778.164
778.178
778.206
778.223
778.261
773.306
773.303
773.297
773.294
773.291
773.289
773.289
773.288
773.288
773.289
773.289
773.29
773.291
773.293
773.294
773.295
773.297
773.298
773.3
773.301
773.303
773.305
773.306
773.308
773.31
773.312
773.314
773.316
773.319
773.321
773.323
773.326
773.328
773.331
773.333
773.336
773.339
773.342
773.345
773.348
773.351
773.354
773.357
773.36
773.363
773.367
773.37
773.374
773.377
773.381
773.385
773.389
773.392
773.396
773.4
773.404
773.409
773.413
773.417
773.421
773.426
773.43
773.435
773.439
773.444
773.449
773.454
773.458
773.463
773.468
773.473
773.479
773.484
773.489
773.495
773.5
773.505
773.511
773.516
773.522
773.529
773.535
773.541
773.548
773.554
773.561
773.567
773.573
773.58
773.586
773.592
773.598
773.604
773.61
773.616
773.622
773.629
773.635
773.642
773.649
773.656
773.663
773.671
773.678
773.686
773.694
773.702
773.71
773.717
773.725
773.733
773.741
773.749
773.756
773.764
773.772
773.78
773.788
773.797
773.805
773.813
773.821
773.829
773.838
773.846
773.854
773.862
773.87
773.879
773.887
773.896
773.905
773.913
773.922
773.932
773.941
773.951
773.961
773.971
773.981
773.991
774
774.01
774.02
774.03
774.04
774.049
774.059
774.068
774.078
774.088
774.098
774.108
774.118
774.128
774.138
774.149
774.159
774.17
774.181
774.192
774.202
774.213
774.224
774.235
774.247
774.258
774.269
774.28
774.292
774.303
774.315
774.326
774.338
774.35
774.361
774.373
774.385
774.397
774.409
774.421
774.433
774.445
774.458
774.47
774.482
774.495
774.507
774.52
774.532
774.545
774.558
774.57
774.583
774.596
774.609
774.622
774.635
774.648
774.662
774.675
774.688
774.702
774.715
774.729
774.742
774.756
774.77
774.783
774.797
774.811
774.825
774.839
774.853
774.867
774.881
774.895
774.91
774.924
774.938
774.953
774.967
774.982
774.996
775.011
775.026
775.041
775.056
775.07
775.085
775.1
775.116
775.131
775.146
775.161
775.176
775.192
775.207
775.223
775.238
775.254
775.269
775.285
775.301
775.317
775.332
775.348
775.364
775.38
775.396
775.413
775.429
775.445
775.461
775.478
775.494
775.51
775.527
775.543
775.56
775.577
775.593
775.61
775.627
775.644
775.661
775.678
775.695
775.712
775.729
775.746
775.763
775.78
775.798
775.815
775.832
775.85
775.867
775.885
775.902
775.92
775.938
775.955
775.973
775.991
776.009
776.026
776.044
776.062
776.08
776.098
776.117
776.135
776.153
776.171
776.189
776.208
776.226
776.244
776.263
776.281
776.3
776.318
776.337
776.356
776.374
776.393
776.412
776.43
776.449
776.468
776.487
776.506
776.525
776.544
776.563
776.582
776.601
776.62
776.639
776.659
776.678
776.697
776.716
776.736
776.755
776.774
776.794
776.813
776.833
776.852
776.872
776.891
776.911
776.93
776.95
776.97
776.989
777.009
777.029
777.049
777.068
777.088
777.108
777.128
777.148
777.168
777.188
777.207
777.227
777.247
777.267
777.287
777.307
777.328
777.348
777.368
777.388
777.408
777.428
777.448
777.468
777.489
777.509
777.529
777.549
777.569
777.59
777.61
777.63
777.65
777.671
777.691
777.712
777.731
777.753
777.772
777.794
777.812
777.835
777.853
777.875
777.893
777.916
777.934
777.958
777.974
777.999
778.015
778.04
778.055
778.081
778.096
778.122
778.137
778.163
778.178
778.206
778.223
778.254
773.306
773.303
773.298
773.294
773.291
773.29
773.289
773.288
773.289
773.289
773.29
773.291
773.292
773.293
773.294
773.295
773.297
773.298
773.3
773.301
773.303
773.305
773.306
773.308
773.31
773.312
773.314
773.317
773.319
773.321
773.323
773.326
773.328
773.331
773.333
773.336
773.339
773.342
773.345
773.348
773.351
773.354
773.357
773.36
773.364
773.367
773.37
773.374
773.377
773.381
773.385
773.389
773.393
773.396
773.4
773.404
773.409
773.413
773.417
773.421
773.426
773.43
773.435
773.439
773.444
773.449
773.454
773.458
773.463
773.468
773.474
773.479
773.484
773.489
773.495
773.5
773.505
773.511
773.517
773.522
773.529
773.535
773.541
773.548
773.554
773.561
773.567
773.573
773.58
773.586
773.592
773.598
773.604
773.61
773.616
773.622
773.629
773.636
773.642
773.649
773.656
773.663
773.671
773.678
773.686
773.694
773.702
773.71
773.717
773.725
773.733
773.741
773.749
773.756
773.764
773.772
773.78
773.788
773.797
773.805
773.813
773.821
773.829
773.838
773.846
773.854
773.862
773.87
773.879
773.887
773.896
773.905
773.913
773.923
773.932
773.941
773.951
773.961
773.971
773.981
773.991
774.001
774.01
774.02
774.03
774.04
774.049
774.059
774.068
774.078
774.088
774.098
774.108
774.118
774.128
774.138
774.149
774.159
774.17
774.181
774.192
774.202
774.213
774.224
774.235
774.247
774.258
774.269
774.28
774.292
774.303
774.315
774.326
774.338
774.35
774.361
774.373
774.385
774.397
774.409
774.421
774.433
774.445
774.458
774.47
774.482
774.495
774.507
774.52
774.532
774.545
774.558
774.57
774.583
774.596
774.609
774.622
774.635
774.648
774.662
774.675
774.688
774.702
774.715
774.729
774.742
774.756
774.77
774.783
774.797
774.811
774.825
774.839
774.853
774.867
774.881
774.895
774.91
774.924
774.938
774.953
774.967
774.982
774.996
775.011
775.026
775.041
775.056
775.07
775.085
775.1
775.116
775.131
775.146
775.161
775.176
775.192
775.207
775.223
775.238
775.254
775.269
775.285
775.301
775.317
775.332
775.348
775.364
775.38
775.396
775.413
775.429
775.445
775.461
775.478
775.494
775.51
775.527
775.543
775.56
775.577
775.593
775.61
775.627
775.644
775.661
775.678
775.695
775.712
775.729
775.746
775.763
775.78
775.798
775.815
775.832
775.85
775.867
775.885
775.902
775.92
775.938
775.955
775.973
775.991
776.009
776.026
776.044
776.062
776.08
776.098
776.117
776.135
776.153
776.171
776.189
776.208
776.226
776.244
776.263
776.281
776.3
776.318
776.337
776.356
776.374
776.393
776.412
776.43
776.449
776.468
776.487
776.506
776.525
776.544
776.563
776.582
776.601
776.62
776.639
776.659
776.678
776.697
776.716
776.736
776.755
776.774
776.794
776.813
776.833
776.852
776.872
776.891
776.911
776.93
776.95
776.97
776.989
777.009
777.029
777.049
777.068
777.088
777.108
777.128
777.148
777.168
777.188
777.207
777.227
777.247
777.267
777.287
777.307
777.328
777.348
777.368
777.388
777.408
777.428
777.448
777.468
777.489
777.509
777.529
777.549
777.569
777.59
777.61
777.63
777.65
777.671
777.691
777.712
777.731
777.753
777.772
777.794
777.812
777.834
777.853
777.875
777.893
777.917
777.934
777.958
777.974
777.999
778.015
778.04
778.055
778.081
778.096
778.122
778.136
778.163
778.177
778.205
778.22
778.253
773.306
773.303
773.298
773.294
773.291
773.29
773.289
773.288
773.289
773.289
773.29
773.291
773.292
773.293
773.294
773.295
773.297
773.298
773.3
773.301
773.303
773.305
773.306
773.308
773.31
773.312
773.314
773.317
773.319
773.321
773.323
773.326
773.328
773.331
773.333
773.336
773.339
773.342
773.345
773.348
773.351
773.354
773.357
773.36
773.364
773.367
773.37
773.374
773.377
773.381
773.385
773.389
773.393
773.396
773.4
773.404
773.409
773.413
773.417
773.421
773.426
773.43
773.435
773.439
773.444
773.449
773.454
773.458
773.463
773.468
773.474
773.479
773.484
773.489
773.495
773.5
773.505
773.511
773.517
773.522
773.529
773.535
773.541
773.548
773.554
773.561
773.567
773.573
773.58
773.586
773.592
773.598
773.604
773.61
773.616
773.622
773.629
773.636
773.642
773.649
773.656
773.663
773.671
773.678
773.686
773.694
773.702
773.71
773.717
773.725
773.733
773.741
773.749
773.756
773.764
773.772
773.78
773.788
773.797
773.805
773.813
773.821
773.829
773.838
773.846
773.854
773.862
773.87
773.879
773.887
773.896
773.905
773.913
773.923
773.932
773.941
773.951
773.961
773.971
773.981
773.991
774.001
774.01
774.02
774.03
774.04
774.049
774.059
774.068
774.078
774.088
774.098
774.108
774.118
774.128
774.138
774.149
774.159
774.17
774.181
774.192
774.202
774.213
774.224
774.235
774.247
774.258
774.269
774.28
774.292
774.303
774.315
774.326
774.338
774.35
774.361
774.373
774.385
774.397
774.409
774.421
774.433
774.445
774.458
774.47
774.482
774.495
774.507
774.52
774.532
774.545
774.558
774.57
774.583
774.596
774.609
774.622
774.635
774.648
774.662
774.675
774.688
774.702
774.715
774.729
774.742
774.756
774.77
774.783
774.797
774.811
774.825
774.839
774.853
774.867
774.881
774.895
774.91
774.924
774.938
774.953
774.967
774.982
774.996
775.011
775.026
775.041
775.056
775.07
775.085
775.1
775.116
775.131
775.146
775.161
775.176
775.192
775.207
775.223
775.238
775.254
775.269
775.285
775.301
775.317
775.332
775.348
775.364
775.38
775.396
775.413
775.429
775.445
775.461
775.478
775.494
775.51
775.527
775.543
775.56
775.577
775.593
775.61
775.627
775.644
775.661
775.678
775.695
775.712
775.729
775.746
775.763
775.78
775.798
775.815
775.832
775.85
775.867
775.885
775.902
775.92
775.938
775.955
775.973
775.991
776.009
776.026
776.044
776.062
776.08
776.098
776.117
776.135
776.153
776.171
776.189
776.208
776.226
776.244
776.263
776.281
776.3
776.318
776.337
776.356
776.374
776.393
776.412
776.43
776.449
776.468
776.487
776.506
776.525
776.544
776.563
776.582
776.601
776.62
776.639
776.659
776.678
776.697
776.716
776.736
776.755
776.774
776.794
776.813
776.833
776.852
776.872
776.891
776.911
776.93
776.95
776.97
776.989
777.009
777.029
777.049
777.068
777.088
777.108
777.128
777.148
777.168
777.188
777.207
777.227
777.247
777.267
777.287
777.307
777.328
777.348
777.368
777.388
777.408
777.428
777.448
777.468
777.489
777.509
777.529
777.549
777.569
777.59
777.61
777.63
777.651
777.671
777.691
777.711
777.732
777.752
777.772
777.793
777.813
777.834
777.853
777.875
777.894
777.915
777.936
777.955
777.977
777.996
778.017
778.037
778.057
778.079
778.098
778.119
778.14
778.158
778.182
778.198
778.222
778.236
773.306
773.303
773.297
773.294
773.291
773.289
773.289
773.288
773.288
773.289
773.289
773.29
773.291
773.293
773.294
773.295
773.297
773.298
773.3
773.301
773.303
773.305
773.306
773.308
773.31
773.312
773.314
773.316
773.319
773.321
773.323
773.326
773.328
773.331
773.333
773.336
773.339
773.342
773.345
773.348
773.351
773.354
773.357
773.36
773.363
773.367
773.37
773.374
773.377
773.381
773.385
773.389
773.392
773.396
773.4
773.404
773.409
773.413
773.417
773.421
773.426
773.43
773.435
773.439
773.444
773.449
773.454
773.458
773.463
773.468
773.473
773.479
773.484
773.489
773.495
773.5
773.505
773.511
773.516
773.522
773.529
773.535
773.541
773.548
773.554
773.561
773.567
773.573
773.58
773.586
773.592
773.598
773.604
773.61
773.616
773.622
773.629
773.635
773.642
773.649
773.656
773.663
773.671
773.678
773.686
773.694
773.702
773.71
773.717
773.725
773.733
773.741
773.749
773.756
773.764
773.772
773.78
773.788
773.797
773.805
773.813
773.821
773.829
773.838
773.846
773.854
773.862
773.87
773.879
773.887
773.896
773.905
773.913
773.922
773.932
773.941
773.951
773.961
773.971
773.981
773.991
774
774.01
774.02
774.03
774.04
774.049
774.059
774.068
774.078
774.088
774.098
774.108
774.118
774.128
774.138
774.149
774.159
774.17
774.181
774.192
774.202
774.213
774.224
774.235
774.247
774.258
774.269
774.28
774.292
774.303
774.315
774.326
774.338
774.35
774.361
774.373
774.385
774.397
774.409
774.421
774.433
774.445
774.458
774.47
774.482
774.495
774.507
774.52
774.532
774.545
774.558
774.57
774.583
774.596
774.609
774.622
774.635
774.648
774.662
774.675
774.688
774.702
774.715
774.729
774.742
774.756
774.77
774.783
774.797
774.811
774.825
774.839
774.853
774.867
774.881
774.895
774.91
774.924
774.938
774.953
774.967
774.982
774.996
775.011
775.026
775.041
775.056
775.07
775.085
775.1
775.116
775.131
775.146
775.161
775.176
775.192
775.207
775.223
775.238
775.254
775.269
775.285
775.301
775.317
775.332
775.348
775.364
775.38
775.396
775.413
775.429
775.445
775.461
775.478
775.494
775.51
775.527
775.543
775.56
775.577
775.593
775.61
775.627
775.644
775.661
775.678
775.695
775.712
775.729
775.746
775.763
775.78
775.798
775.815
775.832
775.85
775.867
775.885
775.902
775.92
775.938
775.955
775.973
775.991
776.009
776.026
776.044
776.062
776.08
776.098
776.117
776.135
776.153
776.171
776.189
776.208
776.226
776.244
776.263
776.281
776.3
776.318
776.337
776.356
776.374
776.393
776.412
776.43
776.449
776.468
776.487
776.506
776.525
776.544
776.563
776.582
776.601
776.62
776.639
776.659
776.678
776.697
776.716
776.736
776.755
776.774
776.794
776.813
776.833
776.852
776.872
776.891
776.911
776.93
776.95
776.97
776.989
777.009
777.029
777.049
777.068
777.088
777.108
777.128
777.148
777.168
777.188
777.207
777.227
777.247
777.267
777.287
777.307
777.328
777.348
777.368
777.388
777.408
777.428
777.448
777.468
777.489
777.509
777.529
777.549
777.569
777.59
777.61
777.63
777.651
777.671
777.691
777.711
777.732
777.752
777.772
777.793
777.813
777.833
777.855
777.873
777.896
777.914
777.936
777.956
777.975
777.998
778.016
778.038
778.058
778.077
778.101
778.116
778.143
778.156
778.183
778.196
778.218
778.231
773.306
773.302
773.297
773.293
773.291
773.289
773.288
773.288
773.288
773.289
773.289
773.29
773.291
773.292
773.294
773.295
773.296
773.298
773.299
773.301
773.303
773.304
773.306
773.308
773.31
773.312
773.314
773.316
773.318
773.321
773.323
773.326
773.328
773.331
773.333
773.336
773.339
773.342
773.344
773.347
773.35
773.354
773.357
773.36
773.363
773.367
773.37
773.374
773.377
773.381
773.385
773.388
773.392
773.396
773.4
773.404
773.408
773.413
773.417
773.421
773.426
773.43
773.435
773.439
773.444
773.449
773.453
773.458
773.463
773.468
773.473
773.478
773.484
773.489
773.494
773.5
773.505
773.511
773.516
773.522
773.528
773.535
773.541
773.548
773.554
773.56
773.567
773.573
773.58
773.586
773.592
773.598
773.604
773.61
773.616
773.622
773.629
773.635
773.642
773.649
773.656
773.663
773.671
773.678
773.686
773.694
773.702
773.71
773.717
773.725
773.733
773.741
773.748
773.756
773.764
773.772
773.78
773.788
773.797
773.805
773.813
773.821
773.829
773.838
773.846
773.854
773.862
773.87
773.879
773.887
773.896
773.904
773.913
773.922
773.932
773.941
773.951
773.961
773.971
773.981
773.991
774
774.01
774.02
774.03
774.04
774.049
774.059
774.068
774.078
774.088
774.098
774.108
774.118
774.128
774.138
774.149
774.159
774.17
774.181
774.192
774.202
774.213
774.224
774.235
774.247
774.258
774.269
774.28
774.292
774.303
774.315
774.326
774.338
774.35
774.361
774.373
774.385
774.397
774.409
774.421
774.433
774.445
774.458
774.47
774.482
774.495
774.507
774.52
774.532
774.545
774.558
774.57
774.583
774.596
774.609
774.622
774.635
774.648
774.662
774.675
774.688
774.702
774.715
774.729
774.742
774.756
774.77
774.783
774.797
774.811
774.825
774.839
774.853
774.867
774.881
774.895
774.91
774.924
774.938
774.953
774.967
774.982
774.996
775.011
775.026
775.041
775.056
775.07
775.085
775.1
775.116
775.131
775.146
775.161
775.176
775.192
775.207
775.223
775.238
775.254
775.269
775.285
775.301
775.317
775.332
775.348
775.364
775.38
775.396
775.413
775.429
775.445
775.461
775.478
775.494
775.51
775.527
775.543
775.56
775.577
775.593
775.61
775.627
775.644
775.661
775.678
775.695
775.712
775.729
775.746
775.763
775.78
775.798
775.815
775.832
775.85
775.867
775.885
775.902
775.92
775.938
775.955
775.973
775.991
776.009
776.026
776.044
776.062
776.08
776.098
776.117
776.135
776.153
776.171
776.189
776.208
776.226
776.244
776.263
776.281
776.3
776.318
776.337
776.356
776.374
776.393
776.412
776.43
776.449
776.468
776.487
776.506
776.525
776.544
776.563
776.582
776.601
776.62
776.639
776.659
776.678
776.697
776.716
776.736
776.755
776.774
776.794
776.813
776.833
776.852
776.872
776.891
776.911
776.93
776.95
776.97
776.989
777.009
777.029
777.049
777.068
777.088
777.108
777.128
777.148
777.168
777.188
777.207
777.227
777.247
777.267
777.287
777.307
777.328
777.348
777.368
777.388
777.408
777.428
777.448
777.468
777.489
777.509
777.529
777.549
777.569
777.59
777.61
777.63
777.651
777.671
777.691
777.711
777.732
777.752
777.772
777.793
777.813
777.833
777.855
777.873
777.896
777.913
777.937
777.954
777.977
777.995
778.018
778.036
778.06
778.075
778.102
778.116
778.142
778.156
778.183
778.195
778.223
778.203
773.306
773.302
773.297
773.293
773.291
773.289
773.288
773.288
773.288
773.289
773.289
773.29
773.291
773.292
773.294
773.295
773.296
773.298
773.299
773.301
773.303
773.304
773.306
773.308
773.31
773.312
773.314
773.316
773.318
773.321
773.323
773.325
773.328
773.331
773.333
773.336
773.339
773.341
773.344
773.347
773.35
773.354
773.357
773.36
773.363
773.367
773.37
773.374
773.377
773.381
773.385
773.388
773.392
773.396
773.4
773.404
773.408
773.413
773.417
773.421
773.426
773.43
773.435
773.439
773.444
773.449
773.453
773.458
773.463
773.468
773.473
773.478
773.484
773.489
773.494
773.5
773.505
773.511
773.516
773.522
773.528
773.535
773.541
773.548
773.554
773.56
773.567
773.573
773.579
773.586
773.592
773.598
773.604
773.61
773.616
773.622
773.629
773.635
773.642
773.649
773.656
773.663
773.67
773.678
773.686
773.694
773.702
773.71
773.717
773.725
773.733
773.741
773.748
773.756
773.764
773.772
773.78
773.788
773.797
773.805
773.813
773.821
773.829
773.838
773.846
773.854
773.862
773.87
773.879
773.887
773.896
773.904
773.913
773.922
773.932
773.941
773.951
773.961
773.971
773.981
773.991
774
774.01
774.02
774.03
774.04
774.049
774.059
774.068
774.078
774.088
774.098
774.108
774.118
774.128
774.138
774.149
774.159
774.17
774.181
774.192
774.202
774.213
774.224
774.235
774.247
774.258
774.269
774.28
774.292
774.303
774.315
774.326
774.338
774.35
774.361
774.373
774.385
774.397
774.409
774.421
774.433
774.445
774.458
774.47
774.482
774.495
774.507
774.52
774.532
774.545
774.558
774.57
774.583
774.596
774.609
774.622
774.635
774.648
774.662
774.675
774.688
774.702
774.715
774.729
774.742
774.756
774.77
774.783
774.797
774.811
774.825
774.839
774.853
774.867
774.881
774.895
774.91
774.924
774.938
774.953
774.967
774.982
774.997
775.011
775.026
775.041
775.056
775.07
775.085
775.1
775.116
775.131
775.146
775.161
775.176
775.192
775.207
775.223
775.238
775.254
775.269
775.285
775.301
775.317
775.332
775.348
775.364
775.38
775.396
775.413
775.429
775.445
775.461
775.478
775.494
775.51
775.527
775.543
775.56
775.577
775.593
775.61
775.627
775.644
775.661
775.678
775.695
775.712
775.729
775.746
775.763
775.78
775.798
775.815
775.832
775.85
775.867
775.885
775.902
775.92
775.938
775.955
775.973
775.991
776.009
776.026
776.044
776.062
776.08
776.098
776.117
776.135
776.153
776.171
776.189
776.208
776.226
776.244
776.263
776.281
776.3
776.318
776.337
776.356
776.374
776.393
776.412
776.43
776.449
776.468
776.487
776.506
776.525
776.544
776.563
776.582
776.601
776.62
776.639
776.659
776.678
776.697
776.716
776.736
776.755
776.774
776.794
776.813
776.833
776.852
776.872
776.891
776.911
776.93
776.95
776.97
776.989
777.009
777.029
777.049
777.068
777.088
777.108
777.128
777.148
777.168
777.188
777.207
777.227
777.247
777.267
777.287
777.307
777.328
777.348
777.368
777.388
777.408
777.428
777.448
777.468
777.489
777.509
777.529
777.549
777.569
777.59
777.61
777.63
777.651
777.671
777.691
777.711
777.732
777.752
777.772
777.793
777.813
777.833
777.855
777.873
777.896
777.913
777.937
777.954
777.978
777.994
778.019
778.035
778.061
778.075
778.102
778.116
778.143
778.156
778.183
778.195
778.225
778.181
773.314
773.31
773.305
773.301
773.299
773.297
773.296
773.296
773.296
773.296
773.297
773.298
773.299
773.3
773.301
773.303
773.304
773.306
773.307
773.309
773.31
773.312
773.314
773.316
773.318
773.32
773.322
773.324
773.326
773.328
773.331
773.333
773.335
773.338
773.341
773.343
773.346
773.349
773.352
773.355
773.358
773.361
773.364
773.367
773.371
773.374
773.377
773.381
773.384
773.388
773.392
773.396
773.399
773.403
773.407
773.411
773.416
773.42
773.424
773.428
773.433
773.437
773.442
773.446
773.451
773.456
773.46
773.465
773.47
773.475
773.48
773.485
773.491
773.496
773.501
773.507
773.512
773.517
773.523
773.529
773.535
773.542
773.548
773.554
773.561
773.567
773.574
773.58
773.586
773.592
773.598
773.604
773.61
773.616
773.622
773.629
773.635
773.642
773.648
773.655
773.662
773.669
773.677