/*--------------------------------*- C++ -*----------------------------------*\
| =========                 |                                                 |
| \\      /  F ield         | OpenFOAM: The Open Source CFD Toolbox           |
|  \\    /   O peration     | Version:  3.0.x                                 |
|   \\  /    A nd           | Web:      www.OpenFOAM.org                      |
|    \\/     M anipulation  |                                                 |
\*---------------------------------------------------------------------------*/
FoamFile
{
    version     2.0;
    format      ascii;
    class       volVectorField;
    location    "0.5";
    object      U;
}
// * * * * * * * * * * * * * * * * * * * * * * * * * * * * * * * * * * * * * //

dimensions      [0 1 -1 0 0 0 0];

internalField   nonuniform List<vector> 
27600
(
(42.6902 0.000129579 0)
(42.6691 0.000119127 0)
(42.6452 0.000117653 0)
(42.6223 0.000120476 0)
(42.6003 0.000122919 0)
(42.5783 0.000124821 0)
(42.5561 0.000126428 0)
(42.5339 0.000127795 0)
(42.5116 0.000128963 0)
(42.4892 0.000129953 0)
(42.4668 0.00013079 0)
(42.4444 0.000131519 0)
(42.4218 0.000132148 0)
(42.3993 0.000132694 0)
(42.3766 0.000133169 0)
(42.3539 0.000133584 0)
(42.3311 0.000133947 0)
(42.3083 0.000134267 0)
(42.2854 0.000134548 0)
(42.2624 0.000134796 0)
(42.2393 0.000135015 0)
(42.2162 0.000135208 0)
(42.1929 0.00013538 0)
(42.1696 0.000135532 0)
(42.1463 0.000135668 0)
(42.1228 0.000135788 0)
(42.0992 0.000135895 0)
(42.0756 0.000135991 0)
(42.0519 0.000136076 0)
(42.0281 0.000136151 0)
(42.0041 0.000136219 0)
(41.9801 0.00013628 0)
(41.956 0.000136334 0)
(41.9318 0.000136382 0)
(41.9075 0.000136426 0)
(41.8831 0.000136465 0)
(41.8586 0.0001365 0)
(41.834 0.000136531 0)
(41.8093 0.000136559 0)
(41.7844 0.000136585 0)
(41.7595 0.000136608 0)
(41.7344 0.000136629 0)
(41.7093 0.000136648 0)
(41.684 0.000136665 0)
(41.6586 0.00013668 0)
(41.6331 0.000136695 0)
(41.6074 0.000136708 0)
(41.5817 0.00013672 0)
(41.5558 0.000136731 0)
(41.5298 0.000136741 0)
(41.5036 0.000136751 0)
(41.4773 0.00013676 0)
(41.4509 0.000136768 0)
(41.4244 0.000136776 0)
(41.3977 0.000136784 0)
(41.3709 0.000136792 0)
(41.344 0.000136799 0)
(41.3169 0.000136806 0)
(41.2897 0.000136812 0)
(41.2623 0.000136819 0)
(41.2348 0.000136825 0)
(41.2071 0.000136831 0)
(41.1793 0.000136837 0)
(41.1514 0.000136844 0)
(41.1233 0.00013685 0)
(41.095 0.000136856 0)
(41.0666 0.000136862 0)
(41.0381 0.000136868 0)
(41.0093 0.000136874 0)
(40.9805 0.000136879 0)
(40.9514 0.000136885 0)
(40.9222 0.000136891 0)
(40.8929 0.000136897 0)
(40.8633 0.000136904 0)
(40.8337 0.00013691 0)
(40.8038 0.000136917 0)
(40.7738 0.000136923 0)
(40.7436 0.00013693 0)
(40.7132 0.000136937 0)
(40.6827 0.000136943 0)
(40.652 0.00013695 0)
(40.6211 0.000136956 0)
(40.59 0.000136963 0)
(40.5588 0.000136971 0)
(40.5274 0.000136978 0)
(40.4958 0.000136987 0)
(40.464 0.000136995 0)
(40.4321 0.000137003 0)
(40.3999 0.000137012 0)
(40.3676 0.000137021 0)
(40.3351 0.000137032 0)
(40.3024 0.000137043 0)
(40.2695 0.000137055 0)
(40.2364 0.000137068 0)
(40.2031 0.00013708 0)
(40.1696 0.000137093 0)
(40.136 0.000137106 0)
(40.1021 0.000137119 0)
(40.0681 0.000137133 0)
(40.0338 0.000137147 0)
(39.9994 0.000137161 0)
(39.9647 0.000137174 0)
(39.9298 0.000137185 0)
(39.8948 0.000137197 0)
(39.8595 0.000137208 0)
(39.8241 0.00013722 0)
(39.7884 0.000137233 0)
(39.7525 0.000137246 0)
(39.7164 0.00013726 0)
(39.6801 0.000137274 0)
(39.6436 0.000137289 0)
(39.6069 0.000137304 0)
(39.57 0.00013732 0)
(39.5329 0.000137336 0)
(39.4955 0.000137353 0)
(39.4579 0.00013737 0)
(39.4202 0.000137386 0)
(39.3822 0.000137401 0)
(39.3439 0.000137416 0)
(39.3055 0.000137429 0)
(39.2668 0.000137444 0)
(39.228 0.00013746 0)
(39.1889 0.000137477 0)
(39.1495 0.000137493 0)
(39.11 0.000137511 0)
(39.0702 0.000137527 0)
(39.0302 0.000137541 0)
(38.99 0.000137551 0)
(38.9496 0.000137557 0)
(38.9089 0.000137558 0)
(38.868 0.000137555 0)
(38.8269 0.000137545 0)
(38.7855 0.000137524 0)
(38.7439 0.000137491 0)
(38.7021 0.00013744 0)
(38.6601 0.000137369 0)
(38.6178 0.000137276 0)
(38.5753 0.000137158 0)
(38.5326 0.00013701 0)
(38.4896 0.000136826 0)
(38.4464 0.000136598 0)
(38.403 0.000136321 0)
(38.3593 0.000135986 0)
(38.3154 0.000135587 0)
(38.2713 0.000135115 0)
(38.2269 0.000134561 0)
(38.1823 0.000133915 0)
(38.1375 0.000133165 0)
(38.0925 0.0001323 0)
(38.0472 0.000131309 0)
(38.0017 0.000130181 0)
(37.956 0.000128907 0)
(37.91 0.000127477 0)
(37.8639 0.000125883 0)
(37.8175 0.000124116 0)
(37.7709 0.000122172 0)
(37.7241 0.000120046 0)
(37.6771 0.000117734 0)
(37.6298 0.000115237 0)
(37.5824 0.000112555 0)
(37.5348 0.000109692 0)
(37.4869 0.000106654 0)
(37.4389 0.000103449 0)
(37.3906 0.000100088 0)
(37.3422 9.65819e-05 0)
(37.2935 9.29468e-05 0)
(37.2447 8.9199e-05 0)
(37.1957 8.53566e-05 0)
(37.1464 8.14392e-05 0)
(37.097 7.74676e-05 0)
(37.0474 7.34632e-05 0)
(36.9976 6.94479e-05 0)
(36.9476 6.54436e-05 0)
(36.8974 6.14719e-05 0)
(36.8471 5.75537e-05 0)
(36.7965 5.3709e-05 0)
(36.7457 4.99565e-05 0)
(36.6948 4.63133e-05 0)
(36.6436 4.27949e-05 0)
(36.5922 3.94147e-05 0)
(36.5406 3.61843e-05 0)
(36.4889 3.3113e-05 0)
(36.4369 3.02079e-05 0)
(36.3847 2.74743e-05 0)
(36.3323 2.49152e-05 0)
(36.2796 2.25315e-05 0)
(36.2268 2.03225e-05 0)
(36.1737 1.82857e-05 0)
(36.1204 1.64172e-05 0)
(36.0669 1.47117e-05 0)
(36.0132 1.31626e-05 0)
(35.9592 1.17628e-05 0)
(35.905 1.05042e-05 0)
(35.8506 9.37809e-06 0)
(35.7959 8.37563e-06 0)
(35.741 7.48767e-06 0)
(35.6859 6.70504e-06 0)
(35.6305 6.01869e-06 0)
(35.5749 5.41974e-06 0)
(35.519 4.89964e-06 0)
(35.4629 4.45023e-06 0)
(35.4066 4.0638e-06 0)
(35.35 3.73314e-06 0)
(35.2931 3.45159e-06 0)
(35.2361 3.21299e-06 0)
(35.1788 3.0118e-06 0)
(35.1212 2.84296e-06 0)
(35.0634 2.70199e-06 0)
(35.0053 2.58488e-06 0)
(34.947 2.48809e-06 0)
(34.8885 2.40852e-06 0)
(34.8297 2.34348e-06 0)
(34.7707 2.29064e-06 0)
(34.7114 2.24797e-06 0)
(34.6519 2.21375e-06 0)
(34.5921 2.18653e-06 0)
(34.5321 2.16507e-06 0)
(34.4719 2.14831e-06 0)
(34.4114 2.13536e-06 0)
(34.3507 2.12554e-06 0)
(34.2897 2.11819e-06 0)
(34.2285 2.11285e-06 0)
(34.167 2.10907e-06 0)
(34.1053 2.10655e-06 0)
(34.0434 2.105e-06 0)
(33.9812 2.1042e-06 0)
(33.9188 2.10397e-06 0)
(33.8562 2.10418e-06 0)
(33.7933 2.1047e-06 0)
(33.7302 2.10546e-06 0)
(33.6668 2.10638e-06 0)
(33.6032 2.1074e-06 0)
(33.5394 2.10847e-06 0)
(33.4753 2.10956e-06 0)
(33.411 2.11065e-06 0)
(33.3465 2.11171e-06 0)
(33.2817 2.11273e-06 0)
(33.2167 2.1137e-06 0)
(33.1515 2.11461e-06 0)
(33.086 2.11545e-06 0)
(33.0203 2.11621e-06 0)
(32.9544 2.11689e-06 0)
(32.8882 2.11749e-06 0)
(32.8218 2.11799e-06 0)
(32.7552 2.11842e-06 0)
(32.6884 2.11874e-06 0)
(32.6213 2.11897e-06 0)
(32.554 2.1191e-06 0)
(32.4865 2.11915e-06 0)
(32.4188 2.1191e-06 0)
(32.3508 2.11897e-06 0)
(32.2826 2.11875e-06 0)
(32.2142 2.11842e-06 0)
(32.1456 2.118e-06 0)
(32.0767 2.11746e-06 0)
(32.0077 2.11681e-06 0)
(31.9384 2.11607e-06 0)
(31.8689 2.11522e-06 0)
(31.7992 2.11427e-06 0)
(31.7293 2.11322e-06 0)
(31.6591 2.11209e-06 0)
(31.5888 2.11086e-06 0)
(31.5182 2.10953e-06 0)
(31.4474 2.1081e-06 0)
(31.3764 2.10657e-06 0)
(31.3052 2.10493e-06 0)
(31.2338 2.10316e-06 0)
(31.1622 2.10128e-06 0)
(31.0904 2.09929e-06 0)
(31.0183 2.0972e-06 0)
(30.9461 2.09501e-06 0)
(30.8737 2.09271e-06 0)
(30.801 2.0903e-06 0)
(30.7282 2.08778e-06 0)
(30.6552 2.08514e-06 0)
(30.5819 2.08239e-06 0)
(30.5085 2.07953e-06 0)
(30.4349 2.07658e-06 0)
(30.3611 2.07353e-06 0)
(30.287 2.07038e-06 0)
(30.2128 2.06712e-06 0)
(30.1384 2.06373e-06 0)
(30.0638 2.06022e-06 0)
(29.9891 2.05658e-06 0)
(29.9141 2.05282e-06 0)
(29.8389 2.04894e-06 0)
(29.7636 2.04494e-06 0)
(29.6881 2.04083e-06 0)
(29.6124 2.03662e-06 0)
(29.5365 2.03231e-06 0)
(29.4604 2.02789e-06 0)
(29.3842 2.02336e-06 0)
(29.3077 2.0187e-06 0)
(29.2311 2.01393e-06 0)
(29.1544 2.00902e-06 0)
(29.0774 2.00399e-06 0)
(29.0003 1.99882e-06 0)
(28.923 1.99354e-06 0)
(28.8456 1.98814e-06 0)
(28.7679 1.98261e-06 0)
(28.6901 1.97697e-06 0)
(28.6122 1.97121e-06 0)
(28.5341 1.96533e-06 0)
(28.4558 1.95935e-06 0)
(28.3773 1.95324e-06 0)
(28.2987 1.947e-06 0)
(28.22 1.94063e-06 0)
(28.141 1.93414e-06 0)
(28.062 1.92753e-06 0)
(27.9827 1.92079e-06 0)
(27.9034 1.91392e-06 0)
(27.8238 1.90693e-06 0)
(27.7442 1.89981e-06 0)
(27.6643 1.89256e-06 0)
(27.5844 1.88519e-06 0)
(27.5043 1.8777e-06 0)
(27.424 1.87008e-06 0)
(27.3436 1.86233e-06 0)
(27.2631 1.85445e-06 0)
(27.1824 1.84645e-06 0)
(27.1016 1.83833e-06 0)
(27.0207 1.83008e-06 0)
(26.9396 1.82171e-06 0)
(26.8584 1.81319e-06 0)
(26.7771 1.80454e-06 0)
(26.6956 1.79576e-06 0)
(26.614 1.78686e-06 0)
(26.5323 1.77783e-06 0)
(26.4505 1.76869e-06 0)
(26.3685 1.75941e-06 0)
(26.2865 1.74999e-06 0)
(26.2043 1.74041e-06 0)
(26.122 1.73069e-06 0)
(26.0396 1.72086e-06 0)
(25.957 1.71093e-06 0)
(25.8744 1.70088e-06 0)
(25.7916 1.6907e-06 0)
(25.7088 1.68039e-06 0)
(25.6258 1.66993e-06 0)
(25.5428 1.65931e-06 0)
(25.4596 1.64854e-06 0)
(25.3763 1.63764e-06 0)
(25.293 1.62663e-06 0)
(25.2095 1.61551e-06 0)
(25.126 1.60427e-06 0)
(25.0423 1.59292e-06 0)
(24.9586 1.58143e-06 0)
(24.8748 1.56981e-06 0)
(24.7909 1.55806e-06 0)
(24.7069 1.54618e-06 0)
(24.6228 1.53414e-06 0)
(24.5386 1.52195e-06 0)
(24.4544 1.50961e-06 0)
(24.3701 1.49713e-06 0)
(24.2857 1.48452e-06 0)
(24.2012 1.47178e-06 0)
(24.1167 1.45894e-06 0)
(24.0321 1.44599e-06 0)
(23.9474 1.43293e-06 0)
(23.8627 1.41976e-06 0)
(23.7779 1.40645e-06 0)
(23.693 1.393e-06 0)
(23.6081 1.37938e-06 0)
(23.5231 1.36564e-06 0)
(23.4381 1.35174e-06 0)
(23.353 1.33775e-06 0)
(23.2678 1.32358e-06 0)
(23.1826 1.3094e-06 0)
(23.0974 1.29495e-06 0)
(23.0121 1.2806e-06 0)
(22.9267 1.26576e-06 0)
(22.8413 1.25138e-06 0)
(22.7559 1.23594e-06 0)
(22.6705 1.22174e-06 0)
(22.585 1.20553e-06 0)
(22.4994 1.19157e-06 0)
(22.4139 1.17503e-06 0)
(22.3283 1.16055e-06 0)
(22.2426 1.14519e-06 0)
(22.157 1.12958e-06 0)
(22.0713 1.11791e-06 0)
(21.9856 1.10515e-06 0)
(21.8999 1.1071e-06 0)
(21.8141 1.12185e-06 0)
(21.7283 1.19485e-06 0)
(21.6426 1.37899e-06 0)
(21.5568 1.8673e-06 0)
(21.4709 3.04596e-06 0)
(21.385 5.91208e-06 0)
(21.299 1.27395e-05 0)
(21.2127 2.90056e-05 0)
(21.1256 6.75182e-05 0)
(21.037 0.0001587 0)
(20.9446 0.000373871 0)
(20.8433 0.000880685 0)
(20.7211 0.00207084 0)
(20.55 0.00487021 0)
(20.2631 0.0116023 0)
(19.7537 0.0301617 0)
(17.8045 0.0794122 0)
(42.6921 0.000208683 0)
(42.673 0.000168639 0)
(42.651 0.000152709 0)
(42.6301 0.000150759 0)
(42.61 0.000149343 0)
(42.59 0.000147662 0)
(42.5698 0.000146275 0)
(42.5495 0.000145154 0)
(42.5291 0.000144218 0)
(42.5087 0.000143404 0)
(42.4883 0.000142683 0)
(42.4678 0.000142074 0)
(42.4472 0.000141541 0)
(42.4266 0.000141075 0)
(42.4059 0.000140667 0)
(42.3851 0.000140309 0)
(42.3643 0.000139995 0)
(42.3434 0.000139719 0)
(42.3225 0.000139476 0)
(42.3014 0.000139262 0)
(42.2803 0.000139074 0)
(42.2591 0.000138908 0)
(42.2379 0.000138762 0)
(42.2165 0.000138634 0)
(42.1951 0.000138521 0)
(42.1736 0.000138422 0)
(42.152 0.000138335 0)
(42.1303 0.00013826 0)
(42.1085 0.000138194 0)
(42.0866 0.000138137 0)
(42.0647 0.000138088 0)
(42.0426 0.000138046 0)
(42.0205 0.000138011 0)
(41.9982 0.000137981 0)
(41.9759 0.000137956 0)
(41.9534 0.000137936 0)
(41.9309 0.00013792 0)
(41.9082 0.000137908 0)
(41.8854 0.000137899 0)
(41.8626 0.000137894 0)
(41.8396 0.000137891 0)
(41.8165 0.000137891 0)
(41.7933 0.000137893 0)
(41.7699 0.000137897 0)
(41.7465 0.000137903 0)
(41.7229 0.000137911 0)
(41.6992 0.000137921 0)
(41.6754 0.000137932 0)
(41.6515 0.000137945 0)
(41.6274 0.000137959 0)
(41.6032 0.000137974 0)
(41.5789 0.00013799 0)
(41.5544 0.000138007 0)
(41.5299 0.000138025 0)
(41.5051 0.000138044 0)
(41.4803 0.000138063 0)
(41.4553 0.000138084 0)
(41.4302 0.000138105 0)
(41.4049 0.000138127 0)
(41.3795 0.000138149 0)
(41.3539 0.000138172 0)
(41.3282 0.000138195 0)
(41.3024 0.000138219 0)
(41.2764 0.000138244 0)
(41.2502 0.000138269 0)
(41.2239 0.000138295 0)
(41.1975 0.00013832 0)
(41.1709 0.000138346 0)
(41.1441 0.000138372 0)
(41.1172 0.000138399 0)
(41.0901 0.000138426 0)
(41.0628 0.000138453 0)
(41.0354 0.000138481 0)
(41.0079 0.000138509 0)
(40.9801 0.000138537 0)
(40.9522 0.000138567 0)
(40.9242 0.000138596 0)
(40.8959 0.000138626 0)
(40.8675 0.000138656 0)
(40.8389 0.000138685 0)
(40.8102 0.000138714 0)
(40.7813 0.000138744 0)
(40.7522 0.000138774 0)
(40.7229 0.000138805 0)
(40.6934 0.000138836 0)
(40.6638 0.000138868 0)
(40.6339 0.0001389 0)
(40.6039 0.000138932 0)
(40.5737 0.000138965 0)
(40.5434 0.000138999 0)
(40.5128 0.000139034 0)
(40.4821 0.00013907 0)
(40.4511 0.000139108 0)
(40.42 0.000139146 0)
(40.3887 0.000139184 0)
(40.3572 0.000139222 0)
(40.3254 0.000139261 0)
(40.2935 0.0001393 0)
(40.2614 0.00013934 0)
(40.2291 0.00013938 0)
(40.1966 0.000139419 0)
(40.1639 0.000139457 0)
(40.131 0.000139494 0)
(40.0979 0.00013953 0)
(40.0646 0.000139567 0)
(40.0311 0.000139604 0)
(39.9974 0.000139642 0)
(39.9635 0.000139682 0)
(39.9294 0.000139722 0)
(39.895 0.000139762 0)
(39.8605 0.000139803 0)
(39.8257 0.000139845 0)
(39.7908 0.000139888 0)
(39.7556 0.000139931 0)
(39.7202 0.000139975 0)
(39.6846 0.000140019 0)
(39.6487 0.000140063 0)
(39.6127 0.000140104 0)
(39.5764 0.000140144 0)
(39.54 0.000140184 0)
(39.5033 0.000140225 0)
(39.4663 0.000140267 0)
(39.4292 0.000140311 0)
(39.3918 0.000140355 0)
(39.3543 0.0001404 0)
(39.3164 0.000140444 0)
(39.2784 0.000140486 0)
(39.2402 0.000140522 0)
(39.2017 0.000140553 0)
(39.163 0.000140578 0)
(39.124 0.000140599 0)
(39.0849 0.000140612 0)
(39.0455 0.000140613 0)
(39.0058 0.000140598 0)
(38.966 0.000140562 0)
(38.9259 0.000140502 0)
(38.8856 0.000140417 0)
(38.845 0.000140302 0)
(38.8042 0.000140154 0)
(38.7632 0.000139965 0)
(38.7219 0.000139727 0)
(38.6805 0.000139431 0)
(38.6387 0.000139071 0)
(38.5968 0.000138639 0)
(38.5546 0.000138126 0)
(38.5121 0.000137522 0)
(38.4694 0.000136817 0)
(38.4265 0.000135996 0)
(38.3834 0.00013505 0)
(38.34 0.000133965 0)
(38.2964 0.000132731 0)
(38.2525 0.000131337 0)
(38.2084 0.000129775 0)
(38.164 0.000128037 0)
(38.1194 0.000126115 0)
(38.0746 0.000124006 0)
(38.0295 0.000121705 0)
(37.9841 0.000119211 0)
(37.9386 0.000116524 0)
(37.8928 0.000113649 0)
(37.8467 0.000110591 0)
(37.8004 0.000107356 0)
(37.7538 0.000103956 0)
(37.707 0.000100403 0)
(37.66 9.67127e-05 0)
(37.6127 9.29008e-05 0)
(37.5651 8.89861e-05 0)
(37.5173 8.49889e-05 0)
(37.4693 8.09302e-05 0)
(37.421 7.68324e-05 0)
(37.3725 7.27181e-05 0)
(37.3237 6.861e-05 0)
(37.2746 6.45308e-05 0)
(37.2254 6.05021e-05 0)
(37.1758 5.65451e-05 0)
(37.126 5.26793e-05 0)
(37.076 4.89227e-05 0)
(37.0257 4.52917e-05 0)
(36.9751 4.18005e-05 0)
(36.9244 3.84614e-05 0)
(36.8733 3.52844e-05 0)
(36.822 3.22773e-05 0)
(36.7705 2.94457e-05 0)
(36.7187 2.67929e-05 0)
(36.6666 2.43204e-05 0)
(36.6143 2.20274e-05 0)
(36.5617 1.99117e-05 0)
(36.5089 1.79692e-05 0)
(36.4559 1.61947e-05 0)
(36.4026 1.45815e-05 0)
(36.349 1.31223e-05 0)
(36.2952 1.18087e-05 0)
(36.2411 1.06319e-05 0)
(36.1868 9.58282e-06 0)
(36.1323 8.652e-06 0)
(36.0774 7.83009e-06 0)
(36.0224 7.10781e-06 0)
(35.9671 6.47609e-06 0)
(35.9115 5.92624e-06 0)
(35.8557 5.44994e-06 0)
(35.7996 5.03935e-06 0)
(35.7433 4.68714e-06 0)
(35.6868 4.38649e-06 0)
(35.63 4.13116e-06 0)
(35.5729 3.91544e-06 0)
(35.5156 3.73415e-06 0)
(35.4581 3.58262e-06 0)
(35.4003 3.4567e-06 0)
(35.3423 3.35267e-06 0)
(35.284 3.26727e-06 0)
(35.2255 3.19763e-06 0)
(35.1667 3.14126e-06 0)
(35.1077 3.09598e-06 0)
(35.0484 3.05996e-06 0)
(34.9889 3.03159e-06 0)
(34.9291 3.00952e-06 0)
(34.8691 2.99261e-06 0)
(34.8089 2.97989e-06 0)
(34.7484 2.97058e-06 0)
(34.6877 2.96399e-06 0)
(34.6267 2.95959e-06 0)
(34.5655 2.9569e-06 0)
(34.5041 2.95558e-06 0)
(34.4424 2.95532e-06 0)
(34.3805 2.95587e-06 0)
(34.3183 2.95703e-06 0)
(34.2559 2.95865e-06 0)
(34.1932 2.96062e-06 0)
(34.1303 2.96282e-06 0)
(34.0672 2.96519e-06 0)
(34.0039 2.96766e-06 0)
(33.9403 2.97017e-06 0)
(33.8764 2.97269e-06 0)
(33.8124 2.97519e-06 0)
(33.7481 2.97764e-06 0)
(33.6835 2.98004e-06 0)
(33.6188 2.98237e-06 0)
(33.5538 2.98462e-06 0)
(33.4885 2.98677e-06 0)
(33.4231 2.98883e-06 0)
(33.3574 2.99078e-06 0)
(33.2915 2.99262e-06 0)
(33.2253 2.99437e-06 0)
(33.1589 2.99599e-06 0)
(33.0923 2.9975e-06 0)
(33.0255 2.99889e-06 0)
(32.9584 3.00015e-06 0)
(32.8911 3.0013e-06 0)
(32.8236 3.00234e-06 0)
(32.7559 3.00327e-06 0)
(32.6879 3.00408e-06 0)
(32.6197 3.00478e-06 0)
(32.5513 3.00534e-06 0)
(32.4827 3.00578e-06 0)
(32.4139 3.00608e-06 0)
(32.3448 3.00624e-06 0)
(32.2755 3.00627e-06 0)
(32.206 3.00617e-06 0)
(32.1363 3.00595e-06 0)
(32.0664 3.0056e-06 0)
(31.9962 3.00514e-06 0)
(31.9259 3.00457e-06 0)
(31.8553 3.00388e-06 0)
(31.7845 3.00306e-06 0)
(31.7135 3.0021e-06 0)
(31.6423 3.001e-06 0)
(31.5709 2.99974e-06 0)
(31.4993 2.99834e-06 0)
(31.4275 2.9968e-06 0)
(31.3555 2.99513e-06 0)
(31.2832 2.99333e-06 0)
(31.2108 2.99141e-06 0)
(31.1382 2.98934e-06 0)
(31.0653 2.98712e-06 0)
(30.9923 2.98476e-06 0)
(30.919 2.98225e-06 0)
(30.8456 2.97961e-06 0)
(30.772 2.97684e-06 0)
(30.6982 2.97395e-06 0)
(30.6241 2.97093e-06 0)
(30.5499 2.96777e-06 0)
(30.4755 2.96445e-06 0)
(30.4009 2.96098e-06 0)
(30.3261 2.95734e-06 0)
(30.2512 2.95353e-06 0)
(30.176 2.94958e-06 0)
(30.1007 2.94546e-06 0)
(30.0251 2.94122e-06 0)
(29.9494 2.93686e-06 0)
(29.8735 2.93236e-06 0)
(29.7975 2.92772e-06 0)
(29.7212 2.92293e-06 0)
(29.6448 2.918e-06 0)
(29.5682 2.9129e-06 0)
(29.4914 2.90763e-06 0)
(29.4145 2.9022e-06 0)
(29.3373 2.89661e-06 0)
(29.26 2.89085e-06 0)
(29.1826 2.88495e-06 0)
(29.1049 2.87888e-06 0)
(29.0271 2.87267e-06 0)
(28.9492 2.86631e-06 0)
(28.8711 2.85981e-06 0)
(28.7928 2.85316e-06 0)
(28.7143 2.84635e-06 0)
(28.6357 2.83937e-06 0)
(28.5569 2.83222e-06 0)
(28.478 2.82493e-06 0)
(28.3989 2.81748e-06 0)
(28.3197 2.80986e-06 0)
(28.2403 2.80207e-06 0)
(28.1608 2.79412e-06 0)
(28.0811 2.786e-06 0)
(28.0013 2.77773e-06 0)
(27.9213 2.76931e-06 0)
(27.8412 2.76072e-06 0)
(27.7609 2.75196e-06 0)
(27.6805 2.74303e-06 0)
(27.6 2.73394e-06 0)
(27.5193 2.72469e-06 0)
(27.4385 2.71529e-06 0)
(27.3575 2.70573e-06 0)
(27.2764 2.69599e-06 0)
(27.1952 2.68608e-06 0)
(27.1139 2.676e-06 0)
(27.0324 2.66575e-06 0)
(26.9508 2.65533e-06 0)
(26.8691 2.64477e-06 0)
(26.7873 2.63405e-06 0)
(26.7053 2.62315e-06 0)
(26.6232 2.61206e-06 0)
(26.541 2.60077e-06 0)
(26.4587 2.58931e-06 0)
(26.3763 2.57768e-06 0)
(26.2937 2.56593e-06 0)
(26.2111 2.55403e-06 0)
(26.1283 2.54197e-06 0)
(26.0455 2.52974e-06 0)
(25.9625 2.5173e-06 0)
(25.8794 2.50466e-06 0)
(25.7962 2.49182e-06 0)
(25.713 2.47882e-06 0)
(25.6296 2.46567e-06 0)
(25.5461 2.45239e-06 0)
(25.4625 2.43895e-06 0)
(25.3789 2.42535e-06 0)
(25.2951 2.41158e-06 0)
(25.2113 2.39763e-06 0)
(25.1274 2.38351e-06 0)
(25.0434 2.36921e-06 0)
(24.9593 2.35473e-06 0)
(24.8751 2.34005e-06 0)
(24.7908 2.32516e-06 0)
(24.7065 2.31009e-06 0)
(24.6221 2.29486e-06 0)
(24.5376 2.27946e-06 0)
(24.4531 2.26392e-06 0)
(24.3685 2.24824e-06 0)
(24.2838 2.23241e-06 0)
(24.199 2.21643e-06 0)
(24.1142 2.20027e-06 0)
(24.0293 2.18394e-06 0)
(23.9444 2.16736e-06 0)
(23.8593 2.15066e-06 0)
(23.7743 2.13367e-06 0)
(23.6892 2.11667e-06 0)
(23.604 2.09933e-06 0)
(23.5188 2.08208e-06 0)
(23.4335 2.06434e-06 0)
(23.3482 2.04692e-06 0)
(23.2628 2.0286e-06 0)
(23.1774 2.01123e-06 0)
(23.092 1.99192e-06 0)
(23.0065 1.975e-06 0)
(22.921 1.95458e-06 0)
(22.8354 1.93786e-06 0)
(22.7498 1.91809e-06 0)
(22.6642 1.89945e-06 0)
(22.5786 1.88505e-06 0)
(22.4929 1.86404e-06 0)
(22.4072 1.86388e-06 0)
(22.3215 1.85752e-06 0)
(22.2357 1.91132e-06 0)
(22.1499 2.01348e-06 0)
(22.0641 2.33535e-06 0)
(21.9783 3.05394e-06 0)
(21.8925 4.83187e-06 0)
(21.8066 8.96246e-06 0)
(21.7207 1.88128e-05 0)
(21.6346 4.20612e-05 0)
(21.5483 9.72607e-05 0)
(21.4613 0.000227783 0)
(21.3727 0.000536637 0)
(21.2802 0.00126523 0)
(21.179 0.0029806 0)
(21.0569 0.00700535 0)
(20.8861 0.0164532 0)
(20.6002 0.0390481 0)
(20.0918 0.0993168 0)
(18.2708 0.246326 0)
(42.6921 0.00014969 0)
(42.673 0.000119643 0)
(42.651 0.000106014 0)
(42.6301 0.000108471 0)
(42.61 0.000110496 0)
(42.59 0.000111091 0)
(42.5698 0.00011151 0)
(42.5495 0.000111942 0)
(42.5291 0.000112329 0)
(42.5087 0.00011265 0)
(42.4883 0.000112918 0)
(42.4678 0.000113162 0)
(42.4472 0.000113374 0)
(42.4266 0.000113561 0)
(42.4059 0.000113728 0)
(42.3851 0.000113876 0)
(42.3643 0.000114008 0)
(42.3434 0.000114127 0)
(42.3225 0.000114234 0)
(42.3014 0.00011433 0)
(42.2803 0.000114418 0)
(42.2591 0.000114498 0)
(42.2379 0.00011457 0)
(42.2165 0.000114637 0)
(42.1951 0.000114697 0)
(42.1736 0.000114753 0)
(42.152 0.000114805 0)
(42.1303 0.000114853 0)
(42.1085 0.000114897 0)
(42.0867 0.000114939 0)
(42.0647 0.000114977 0)
(42.0427 0.000115013 0)
(42.0205 0.000115047 0)
(41.9983 0.00011508 0)
(41.9759 0.00011511 0)
(41.9535 0.000115139 0)
(41.9309 0.000115167 0)
(41.9083 0.000115194 0)
(41.8855 0.00011522 0)
(41.8626 0.000115245 0)
(41.8396 0.000115269 0)
(41.8165 0.000115292 0)
(41.7933 0.000115315 0)
(41.77 0.000115337 0)
(41.7466 0.000115359 0)
(41.723 0.000115381 0)
(41.6993 0.000115402 0)
(41.6755 0.000115424 0)
(41.6516 0.000115444 0)
(41.6275 0.000115465 0)
(41.6033 0.000115486 0)
(41.579 0.000115507 0)
(41.5546 0.000115527 0)
(41.53 0.000115548 0)
(41.5053 0.000115568 0)
(41.4804 0.000115589 0)
(41.4554 0.00011561 0)
(41.4303 0.00011563 0)
(41.405 0.000115651 0)
(41.3796 0.000115672 0)
(41.3541 0.000115693 0)
(41.3284 0.000115714 0)
(41.3025 0.000115735 0)
(41.2765 0.000115756 0)
(41.2504 0.000115777 0)
(41.2241 0.000115799 0)
(41.1976 0.000115821 0)
(41.171 0.000115842 0)
(41.1443 0.000115864 0)
(41.1174 0.000115885 0)
(41.0903 0.000115907 0)
(41.0631 0.000115929 0)
(41.0357 0.000115951 0)
(41.0081 0.000115973 0)
(40.9804 0.000115996 0)
(40.9525 0.000116018 0)
(40.9244 0.000116042 0)
(40.8962 0.000116065 0)
(40.8678 0.000116088 0)
(40.8392 0.000116111 0)
(40.8105 0.000116134 0)
(40.7815 0.000116157 0)
(40.7524 0.00011618 0)
(40.7232 0.000116204 0)
(40.6937 0.000116228 0)
(40.6641 0.000116253 0)
(40.6343 0.000116277 0)
(40.6043 0.000116301 0)
(40.5741 0.000116327 0)
(40.5437 0.000116353 0)
(40.5132 0.00011638 0)
(40.4824 0.000116408 0)
(40.4515 0.000116437 0)
(40.4204 0.000116466 0)
(40.389 0.000116495 0)
(40.3575 0.000116524 0)
(40.3258 0.000116553 0)
(40.2939 0.000116583 0)
(40.2618 0.000116613 0)
(40.2296 0.000116644 0)
(40.1971 0.000116674 0)
(40.1644 0.000116703 0)
(40.1315 0.000116731 0)
(40.0984 0.000116759 0)
(40.0651 0.000116786 0)
(40.0316 0.000116815 0)
(39.9979 0.000116844 0)
(39.964 0.000116873 0)
(39.9299 0.000116904 0)
(39.8955 0.000116934 0)
(39.861 0.000116966 0)
(39.8263 0.000116997 0)
(39.7913 0.00011703 0)
(39.7561 0.000117062 0)
(39.7207 0.000117096 0)
(39.6851 0.000117129 0)
(39.6493 0.000117162 0)
(39.6133 0.000117193 0)
(39.577 0.000117224 0)
(39.5406 0.000117254 0)
(39.5039 0.000117285 0)
(39.467 0.000117317 0)
(39.4298 0.000117349 0)
(39.3925 0.000117382 0)
(39.3549 0.000117416 0)
(39.3171 0.000117448 0)
(39.2791 0.000117478 0)
(39.2409 0.000117504 0)
(39.2024 0.000117525 0)
(39.1637 0.000117541 0)
(39.1248 0.000117552 0)
(39.0856 0.000117557 0)
(39.0462 0.000117552 0)
(39.0066 0.000117532 0)
(38.9667 0.000117495 0)
(38.9267 0.000117438 0)
(38.8864 0.000117358 0)
(38.8458 0.000117253 0)
(38.805 0.000117117 0)
(38.764 0.000116947 0)
(38.7228 0.000116733 0)
(38.6813 0.000116471 0)
(38.6396 0.000116152 0)
(38.5976 0.000115771 0)
(38.5554 0.00011532 0)
(38.513 0.000114791 0)
(38.4704 0.000114173 0)
(38.4274 0.000113457 0)
(38.3843 0.000112632 0)
(38.3409 0.00011169 0)
(38.2973 0.000110619 0)
(38.2534 0.000109413 0)
(38.2093 0.000108064 0)
(38.1649 0.000106565 0)
(38.1203 0.00010491 0)
(38.0755 0.000103097 0)
(38.0304 0.000101122 0)
(37.9851 9.89846e-05 0)
(37.9395 9.66861e-05 0)
(37.8937 9.42295e-05 0)
(37.8476 9.162e-05 0)
(37.8013 8.88646e-05 0)
(37.7547 8.59726e-05 0)
(37.7079 8.2955e-05 0)
(37.6609 7.9825e-05 0)
(37.6135 7.65969e-05 0)
(37.566 7.32869e-05 0)
(37.5182 6.99121e-05 0)
(37.4701 6.64908e-05 0)
(37.4218 6.30417e-05 0)
(37.3733 5.95841e-05 0)
(37.3245 5.61371e-05 0)
(37.2754 5.27196e-05 0)
(37.2261 4.93499e-05 0)
(37.1765 4.60452e-05 0)
(37.1267 4.28218e-05 0)
(37.0767 3.96945e-05 0)
(37.0263 3.66765e-05 0)
(36.9758 3.37793e-05 0)
(36.925 3.10128e-05 0)
(36.8739 2.83847e-05 0)
(36.8226 2.59012e-05 0)
(36.771 2.35663e-05 0)
(36.7192 2.13824e-05 0)
(36.6671 1.93501e-05 0)
(36.6148 1.74685e-05 0)
(36.5622 1.57352e-05 0)
(36.5094 1.41465e-05 0)
(36.4564 1.26975e-05 0)
(36.403 1.13826e-05 0)
(36.3495 1.01952e-05 0)
(36.2956 9.1283e-06 0)
(36.2416 8.17429e-06 0)
(36.1873 7.32543e-06 0)
(36.1327 6.57383e-06 0)
(36.0779 5.91159e-06 0)
(36.0228 5.33093e-06 0)
(35.9675 4.82429e-06 0)
(35.9119 4.38438e-06 0)
(35.8561 4.00428e-06 0)
(35.8001 3.67746e-06 0)
(35.7437 3.39782e-06 0)
(35.6872 3.15972e-06 0)
(35.6304 2.958e-06 0)
(35.5733 2.78794e-06 0)
(35.516 2.6453e-06 0)
(35.4585 2.52626e-06 0)
(35.4007 2.42744e-06 0)
(35.3427 2.34583e-06 0)
(35.2844 2.2788e-06 0)
(35.2258 2.22408e-06 0)
(35.1671 2.17966e-06 0)
(35.1081 2.14383e-06 0)
(35.0488 2.11514e-06 0)
(34.9893 2.09234e-06 0)
(34.9295 2.07436e-06 0)
(34.8695 2.06033e-06 0)
(34.8093 2.0495e-06 0)
(34.7488 2.04126e-06 0)
(34.6881 2.03508e-06 0)
(34.6271 2.03055e-06 0)
(34.5659 2.02733e-06 0)
(34.5045 2.02512e-06 0)
(34.4428 2.0237e-06 0)
(34.3808 2.0229e-06 0)
(34.3187 2.02255e-06 0)
(34.2563 2.02254e-06 0)
(34.1936 2.02278e-06 0)
(34.1307 2.0232e-06 0)
(34.0676 2.02373e-06 0)
(34.0043 2.02433e-06 0)
(33.9407 2.02496e-06 0)
(33.8768 2.02559e-06 0)
(33.8128 2.0262e-06 0)
(33.7485 2.02676e-06 0)
(33.6839 2.02728e-06 0)
(33.6192 2.02774e-06 0)
(33.5542 2.02814e-06 0)
(33.4889 2.02846e-06 0)
(33.4235 2.0287e-06 0)
(33.3578 2.02886e-06 0)
(33.2919 2.02894e-06 0)
(33.2257 2.02893e-06 0)
(33.1593 2.02883e-06 0)
(33.0927 2.02863e-06 0)
(33.0259 2.02834e-06 0)
(32.9588 2.02796e-06 0)
(32.8915 2.02748e-06 0)
(32.824 2.02692e-06 0)
(32.7563 2.02626e-06 0)
(32.6883 2.02552e-06 0)
(32.6201 2.02469e-06 0)
(32.5517 2.02375e-06 0)
(32.4831 2.02271e-06 0)
(32.4143 2.02156e-06 0)
(32.3452 2.02031e-06 0)
(32.2759 2.01896e-06 0)
(32.2064 2.0175e-06 0)
(32.1367 2.01594e-06 0)
(32.0668 2.01429e-06 0)
(31.9966 2.01255e-06 0)
(31.9263 2.01072e-06 0)
(31.8557 2.00879e-06 0)
(31.7849 2.00677e-06 0)
(31.7139 2.00463e-06 0)
(31.6427 2.00238e-06 0)
(31.5713 2.00002e-06 0)
(31.4997 1.99754e-06 0)
(31.4279 1.99495e-06 0)
(31.3559 1.99226e-06 0)
(31.2836 1.98947e-06 0)
(31.2112 1.98659e-06 0)
(31.1386 1.98359e-06 0)
(31.0657 1.98047e-06 0)
(30.9927 1.97724e-06 0)
(30.9194 1.9739e-06 0)
(30.846 1.97046e-06 0)
(30.7724 1.96692e-06 0)
(30.6986 1.96328e-06 0)
(30.6245 1.95954e-06 0)
(30.5503 1.95569e-06 0)
(30.4759 1.95172e-06 0)
(30.4013 1.94763e-06 0)
(30.3265 1.94341e-06 0)
(30.2516 1.93906e-06 0)
(30.1764 1.93459e-06 0)
(30.1011 1.93001e-06 0)
(30.0255 1.92533e-06 0)
(29.9498 1.92055e-06 0)
(29.8739 1.91566e-06 0)
(29.7979 1.91067e-06 0)
(29.7216 1.90556e-06 0)
(29.6452 1.90034e-06 0)
(29.5686 1.89499e-06 0)
(29.4918 1.88951e-06 0)
(29.4149 1.88391e-06 0)
(29.3377 1.87818e-06 0)
(29.2604 1.87233e-06 0)
(29.183 1.86636e-06 0)
(29.1053 1.86027e-06 0)
(29.0275 1.85406e-06 0)
(28.9496 1.84774e-06 0)
(28.8715 1.84132e-06 0)
(28.7932 1.83478e-06 0)
(28.7147 1.82811e-06 0)
(28.6361 1.82132e-06 0)
(28.5573 1.8144e-06 0)
(28.4784 1.80737e-06 0)
(28.3993 1.80021e-06 0)
(28.3201 1.79293e-06 0)
(28.2407 1.78551e-06 0)
(28.1612 1.77797e-06 0)
(28.0815 1.77031e-06 0)
(28.0017 1.76253e-06 0)
(27.9217 1.75463e-06 0)
(27.8416 1.7466e-06 0)
(27.7613 1.73845e-06 0)
(27.6809 1.73017e-06 0)
(27.6004 1.72176e-06 0)
(27.5197 1.71324e-06 0)
(27.4389 1.7046e-06 0)
(27.3579 1.69583e-06 0)
(27.2768 1.68693e-06 0)
(27.1956 1.6779e-06 0)
(27.1143 1.66874e-06 0)
(27.0328 1.65945e-06 0)
(26.9512 1.65003e-06 0)
(26.8695 1.64051e-06 0)
(26.7877 1.63086e-06 0)
(26.7057 1.62108e-06 0)
(26.6236 1.61115e-06 0)
(26.5414 1.60108e-06 0)
(26.4591 1.59088e-06 0)
(26.3767 1.58055e-06 0)
(26.2941 1.57013e-06 0)
(26.2115 1.55959e-06 0)
(26.1287 1.54894e-06 0)
(26.0459 1.53814e-06 0)
(25.9629 1.5272e-06 0)
(25.8798 1.5161e-06 0)
(25.7966 1.50486e-06 0)
(25.7134 1.49349e-06 0)
(25.63 1.48202e-06 0)
(25.5465 1.47043e-06 0)
(25.4629 1.45874e-06 0)
(25.3793 1.44692e-06 0)
(25.2955 1.43499e-06 0)
(25.2117 1.42291e-06 0)
(25.1278 1.4107e-06 0)
(25.0438 1.39837e-06 0)
(24.9597 1.38588e-06 0)
(24.8755 1.37325e-06 0)
(24.7913 1.36046e-06 0)
(24.7069 1.34755e-06 0)
(24.6225 1.33451e-06 0)
(24.538 1.32136e-06 0)
(24.4535 1.3081e-06 0)
(24.3689 1.29472e-06 0)
(24.2842 1.28123e-06 0)
(24.1994 1.26764e-06 0)
(24.1146 1.2539e-06 0)
(24.0297 1.24005e-06 0)
(23.9448 1.22599e-06 0)
(23.8598 1.21188e-06 0)
(23.7747 1.19752e-06 0)
(23.6896 1.1832e-06 0)
(23.6044 1.16857e-06 0)
(23.5192 1.15404e-06 0)
(23.4339 1.13917e-06 0)
(23.3486 1.12442e-06 0)
(23.2632 1.10928e-06 0)
(23.1778 1.0944e-06 0)
(23.0924 1.07887e-06 0)
(23.0069 1.06402e-06 0)
(22.9214 1.04843e-06 0)
(22.8358 1.03269e-06 0)
(22.7502 1.01989e-06 0)
(22.6646 9.99836e-07 0)
(22.579 9.96867e-07 0)
(22.4933 9.72482e-07 0)
(22.4076 9.94494e-07 0)
(22.3219 9.95643e-07 0)
(22.2361 1.11553e-06 0)
(22.1503 1.31858e-06 0)
(22.0645 1.94448e-06 0)
(21.9787 3.33366e-06 0)
(21.8929 6.81522e-06 0)
(21.807 1.49354e-05 0)
(21.7211 3.43802e-05 0)
(21.6351 8.03043e-05 0)
(21.5487 0.000189383 0)
(21.4618 0.0004473 0)
(21.3732 0.00105764 0)
(21.2811 0.00249752 0)
(21.1803 0.00588781 0)
(21.0595 0.013843 0)
(20.8919 0.032513 0)
(20.6138 0.0771031 0)
(20.125 0.194869 0)
(18.4429 0.474579 0)
(42.6921 9.71802e-05 0)
(42.6729 9.87774e-05 0)
(42.6509 9.45622e-05 0)
(42.6301 9.88746e-05 0)
(42.61 0.000102664 0)
(42.5899 0.000104616 0)
(42.5697 0.000105958 0)
(42.5494 0.000107126 0)
(42.5291 0.000108131 0)
(42.5087 0.000108977 0)
(42.4882 0.000109697 0)
(42.4677 0.000110321 0)
(42.4472 0.000110862 0)
(42.4265 0.000111334 0)
(42.4058 0.000111746 0)
(42.3851 0.000112108 0)
(42.3643 0.000112427 0)
(42.3434 0.000112709 0)
(42.3224 0.000112959 0)
(42.3014 0.00011318 0)
(42.2803 0.000113378 0)
(42.2591 0.000113554 0)
(42.2378 0.000113711 0)
(42.2165 0.000113852 0)
(42.195 0.000113978 0)
(42.1735 0.000114092 0)
(42.1519 0.000114195 0)