/*--------------------------------*- C++ -*----------------------------------*\
| =========                 |                                                 |
| \\      /  F ield         | OpenFOAM: The Open Source CFD Toolbox           |
|  \\    /   O peration     | Version:  3.0.x                                 |
|   \\  /    A nd           | Web:      www.OpenFOAM.org                      |
|    \\/     M anipulation  |                                                 |
\*---------------------------------------------------------------------------*/
FoamFile
{
    version     2.0;
    format      ascii;
    class       volScalarField;
    location    "0.49005";
    object      p;
}
// * * * * * * * * * * * * * * * * * * * * * * * * * * * * * * * * * * * * * //

dimensions      [1 -1 -2 0 0 0 0];

internalField   nonuniform List<scalar> 
13800
(
1.80648e+07
1.80648e+07
1.80648e+07
1.80648e+07
1.80648e+07
1.80648e+07
1.80648e+07
1.80648e+07
1.80649e+07
1.80649e+07
1.80649e+07
1.80649e+07
1.80649e+07
1.80649e+07
1.80649e+07
1.80649e+07
1.80649e+07
1.80649e+07
1.80649e+07
1.80649e+07
1.80649e+07
1.80649e+07
1.8065e+07
1.8065e+07
1.8065e+07
1.8065e+07
1.8065e+07
1.8065e+07
1.80651e+07
1.80651e+07
1.80651e+07
1.80652e+07
1.80652e+07
1.80652e+07
1.80653e+07
1.80653e+07
1.80654e+07
1.80654e+07
1.80655e+07
1.80656e+07
1.80656e+07
1.80657e+07
1.80658e+07
1.80659e+07
1.8066e+07
1.80661e+07
1.80662e+07
1.80664e+07
1.80665e+07
1.80667e+07
1.80668e+07
1.8067e+07
1.80672e+07
1.80674e+07
1.80676e+07
1.80679e+07
1.80681e+07
1.80684e+07
1.80687e+07
1.8069e+07
1.80694e+07
1.80697e+07
1.80701e+07
1.80705e+07
1.80709e+07
1.80714e+07
1.80719e+07
1.80724e+07
1.80729e+07
1.80735e+07
1.80741e+07
1.80747e+07
1.80754e+07
1.8076e+07
1.80768e+07
1.80775e+07
1.80784e+07
1.80792e+07
1.80801e+07
1.8081e+07
1.8082e+07
1.8083e+07
1.8084e+07
1.80851e+07
1.80863e+07
1.80875e+07
1.80887e+07
1.809e+07
1.80913e+07
1.80927e+07
1.80941e+07
1.80956e+07
1.80972e+07
1.80988e+07
1.81004e+07
1.81021e+07
1.81039e+07
1.81057e+07
1.81076e+07
1.81096e+07
1.81116e+07
1.81136e+07
1.81158e+07
1.8118e+07
1.81202e+07
1.81225e+07
1.81249e+07
1.81274e+07
1.81299e+07
1.81325e+07
1.81352e+07
1.81379e+07
1.81407e+07
1.81436e+07
1.81465e+07
1.81495e+07
1.81526e+07
1.81558e+07
1.81591e+07
1.81624e+07
1.81658e+07
1.81693e+07
1.81728e+07
1.81765e+07
1.81802e+07
1.8184e+07
1.81879e+07
1.81919e+07
1.81959e+07
1.82001e+07
1.82043e+07
1.82086e+07
1.82131e+07
1.82176e+07
1.82222e+07
1.82268e+07
1.82316e+07
1.82365e+07
1.82414e+07
1.82465e+07
1.82517e+07
1.82569e+07
1.82623e+07
1.82677e+07
1.82733e+07
1.82789e+07
1.82847e+07
1.82905e+07
1.82965e+07
1.83025e+07
1.83087e+07
1.8315e+07
1.83213e+07
1.83278e+07
1.83344e+07
1.83411e+07
1.83479e+07
1.83549e+07
1.83619e+07
1.83691e+07
1.83763e+07
1.83837e+07
1.83912e+07
1.83988e+07
1.84065e+07
1.84144e+07
1.84223e+07
1.84304e+07
1.84386e+07
1.84469e+07
1.84553e+07
1.84639e+07
1.84725e+07
1.84813e+07
1.84902e+07
1.84993e+07
1.85084e+07
1.85177e+07
1.85271e+07
1.85366e+07
1.85462e+07
1.8556e+07
1.85658e+07
1.85758e+07
1.8586e+07
1.85962e+07
1.86065e+07
1.8617e+07
1.86276e+07
1.86383e+07
1.86492e+07
1.86601e+07
1.86712e+07
1.86824e+07
1.86937e+07
1.87051e+07
1.87166e+07
1.87284e+07
1.87411e+07
1.8755e+07
1.80648e+07
1.80648e+07
1.80648e+07
1.80648e+07
1.80648e+07
1.80648e+07
1.80648e+07
1.80648e+07
1.80649e+07
1.80649e+07
1.80649e+07
1.80649e+07
1.80649e+07
1.80649e+07
1.80649e+07
1.80649e+07
1.80649e+07
1.80649e+07
1.80649e+07
1.80649e+07
1.80649e+07
1.80649e+07
1.8065e+07
1.8065e+07
1.8065e+07
1.8065e+07
1.8065e+07
1.8065e+07
1.80651e+07
1.80651e+07
1.80651e+07
1.80652e+07
1.80652e+07
1.80652e+07
1.80653e+07
1.80653e+07
1.80654e+07
1.80654e+07
1.80655e+07
1.80656e+07
1.80656e+07
1.80657e+07
1.80658e+07
1.80659e+07
1.8066e+07
1.80661e+07
1.80662e+07
1.80664e+07
1.80665e+07
1.80667e+07
1.80668e+07
1.8067e+07
1.80672e+07
1.80674e+07
1.80676e+07
1.80679e+07
1.80681e+07
1.80684e+07
1.80687e+07
1.8069e+07
1.80694e+07
1.80697e+07
1.80701e+07
1.80705e+07
1.80709e+07
1.80714e+07
1.80719e+07
1.80724e+07
1.80729e+07
1.80735e+07
1.80741e+07
1.80747e+07
1.80754e+07
1.8076e+07
1.80768e+07
1.80775e+07
1.80784e+07
1.80792e+07
1.80801e+07
1.8081e+07
1.8082e+07
1.8083e+07
1.8084e+07
1.80851e+07
1.80863e+07
1.80875e+07
1.80887e+07
1.809e+07
1.80913e+07
1.80927e+07
1.80941e+07
1.80956e+07
1.80972e+07
1.80988e+07
1.81004e+07
1.81021e+07
1.81039e+07
1.81057e+07
1.81076e+07
1.81096e+07
1.81116e+07
1.81136e+07
1.81158e+07
1.8118e+07
1.81202e+07
1.81225e+07
1.81249e+07
1.81274e+07
1.81299e+07
1.81325e+07
1.81352e+07
1.81379e+07
1.81407e+07
1.81436e+07
1.81465e+07
1.81495e+07
1.81526e+07
1.81558e+07
1.81591e+07
1.81624e+07
1.81658e+07
1.81693e+07
1.81728e+07
1.81765e+07
1.81802e+07
1.8184e+07
1.81879e+07
1.81919e+07
1.81959e+07
1.82001e+07
1.82043e+07
1.82086e+07
1.82131e+07
1.82176e+07
1.82222e+07
1.82268e+07
1.82316e+07
1.82365e+07
1.82414e+07
1.82465e+07
1.82517e+07
1.82569e+07
1.82623e+07
1.82677e+07
1.82733e+07
1.82789e+07
1.82847e+07
1.82905e+07
1.82965e+07
1.83025e+07
1.83087e+07
1.8315e+07
1.83213e+07
1.83278e+07
1.83344e+07
1.83411e+07
1.83479e+07
1.83549e+07
1.83619e+07
1.83691e+07
1.83763e+07
1.83837e+07
1.83912e+07
1.83988e+07
1.84065e+07
1.84144e+07
1.84223e+07
1.84304e+07
1.84386e+07
1.84469e+07
1.84553e+07
1.84639e+07
1.84725e+07
1.84813e+07
1.84902e+07
1.84993e+07
1.85084e+07
1.85177e+07
1.85271e+07
1.85366e+07
1.85462e+07
1.8556e+07
1.85658e+07
1.85758e+07
1.8586e+07
1.85962e+07
1.86065e+07
1.8617e+07
1.86276e+07
1.86383e+07
1.86492e+07
1.86601e+07
1.86712e+07
1.86824e+07
1.86937e+07
1.87051e+07
1.87166e+07
1.87284e+07
1.87411e+07
1.8755e+07
1.80648e+07
1.80648e+07
1.80648e+07
1.80648e+07
1.80648e+07
1.80648e+07
1.80648e+07
1.80648e+07
1.80649e+07
1.80649e+07
1.80649e+07
1.80649e+07
1.80649e+07
1.80649e+07
1.80649e+07
1.80649e+07
1.80649e+07
1.80649e+07
1.80649e+07
1.80649e+07
1.80649e+07
1.80649e+07
1.8065e+07
1.8065e+07
1.8065e+07
1.8065e+07
1.8065e+07
1.8065e+07
1.80651e+07
1.80651e+07
1.80651e+07
1.80652e+07
1.80652e+07
1.80652e+07
1.80653e+07
1.80653e+07
1.80654e+07
1.80654e+07
1.80655e+07
1.80656e+07
1.80656e+07
1.80657e+07
1.80658e+07
1.80659e+07
1.8066e+07
1.80661e+07
1.80662e+07
1.80664e+07
1.80665e+07
1.80667e+07
1.80668e+07
1.8067e+07
1.80672e+07
1.80674e+07
1.80676e+07
1.80679e+07
1.80681e+07
1.80684e+07
1.80687e+07
1.8069e+07
1.80694e+07
1.80697e+07
1.80701e+07
1.80705e+07
1.80709e+07
1.80714e+07
1.80719e+07
1.80724e+07
1.80729e+07
1.80735e+07
1.80741e+07
1.80747e+07
1.80754e+07
1.8076e+07
1.80768e+07
1.80775e+07
1.80784e+07
1.80792e+07
1.80801e+07
1.8081e+07
1.8082e+07
1.8083e+07
1.8084e+07
1.80851e+07
1.80863e+07
1.80875e+07
1.80887e+07
1.809e+07
1.80913e+07
1.80927e+07
1.80941e+07
1.80956e+07
1.80972e+07
1.80988e+07
1.81004e+07
1.81021e+07
1.81039e+07
1.81057e+07
1.81076e+07
1.81096e+07
1.81116e+07
1.81136e+07
1.81158e+07
1.8118e+07
1.81202e+07
1.81225e+07
1.81249e+07
1.81274e+07
1.81299e+07
1.81325e+07
1.81352e+07
1.81379e+07
1.81407e+07
1.81436e+07
1.81465e+07
1.81495e+07
1.81526e+07
1.81558e+07
1.81591e+07
1.81624e+07
1.81658e+07
1.81693e+07
1.81728e+07
1.81765e+07
1.81802e+07
1.8184e+07
1.81879e+07
1.81919e+07
1.81959e+07
1.82001e+07
1.82043e+07
1.82086e+07
1.82131e+07
1.82176e+07
1.82222e+07
1.82268e+07
1.82316e+07
1.82365e+07
1.82414e+07
1.82465e+07
1.82517e+07
1.82569e+07
1.82623e+07
1.82677e+07
1.82733e+07
1.82789e+07
1.82847e+07
1.82905e+07
1.82965e+07
1.83025e+07
1.83087e+07
1.8315e+07
1.83213e+07
1.83278e+07
1.83344e+07
1.83411e+07
1.83479e+07
1.83549e+07
1.83619e+07
1.83691e+07
1.83763e+07
1.83837e+07
1.83912e+07
1.83988e+07
1.84065e+07
1.84144e+07
1.84223e+07
1.84304e+07
1.84386e+07
1.84469e+07
1.84553e+07
1.84639e+07
1.84725e+07
1.84813e+07
1.84902e+07
1.84993e+07
1.85084e+07
1.85177e+07
1.85271e+07
1.85366e+07
1.85462e+07
1.8556e+07
1.85658e+07
1.85758e+07
1.8586e+07
1.85962e+07
1.86065e+07
1.8617e+07
1.86276e+07
1.86383e+07
1.86492e+07
1.86601e+07
1.86712e+07
1.86824e+07
1.86937e+07
1.87051e+07
1.87166e+07
1.87284e+07
1.8741e+07
1.87549e+07
1.80648e+07
1.80648e+07
1.80648e+07
1.80648e+07
1.80648e+07
1.80648e+07
1.80648e+07
1.80648e+07
1.80649e+07
1.80649e+07
1.80649e+07
1.80649e+07
1.80649e+07
1.80649e+07
1.80649e+07
1.80649e+07
1.80649e+07
1.80649e+07
1.80649e+07
1.80649e+07
1.80649e+07
1.80649e+07
1.8065e+07
1.8065e+07
1.8065e+07
1.8065e+07
1.8065e+07
1.8065e+07
1.80651e+07
1.80651e+07
1.80651e+07
1.80652e+07
1.80652e+07
1.80652e+07
1.80653e+07
1.80653e+07
1.80654e+07
1.80654e+07
1.80655e+07
1.80656e+07
1.80656e+07
1.80657e+07
1.80658e+07
1.80659e+07
1.8066e+07
1.80661e+07
1.80662e+07
1.80664e+07
1.80665e+07
1.80667e+07
1.80668e+07
1.8067e+07
1.80672e+07
1.80674e+07
1.80676e+07
1.80679e+07
1.80681e+07
1.80684e+07
1.80687e+07
1.8069e+07
1.80694e+07
1.80697e+07
1.80701e+07
1.80705e+07
1.80709e+07
1.80714e+07
1.80719e+07
1.80724e+07
1.80729e+07
1.80735e+07
1.80741e+07
1.80747e+07
1.80754e+07
1.8076e+07
1.80768e+07
1.80775e+07
1.80784e+07
1.80792e+07
1.80801e+07
1.8081e+07
1.8082e+07
1.8083e+07
1.8084e+07
1.80851e+07
1.80863e+07
1.80875e+07
1.80887e+07
1.809e+07
1.80913e+07
1.80927e+07
1.80941e+07
1.80956e+07
1.80972e+07
1.80988e+07
1.81004e+07
1.81021e+07
1.81039e+07
1.81057e+07
1.81076e+07
1.81096e+07
1.81116e+07
1.81136e+07
1.81158e+07
1.8118e+07
1.81202e+07
1.81225e+07
1.81249e+07
1.81274e+07
1.81299e+07
1.81325e+07
1.81352e+07
1.81379e+07
1.81407e+07
1.81436e+07
1.81465e+07
1.81495e+07
1.81526e+07
1.81558e+07
1.81591e+07
1.81624e+07
1.81658e+07
1.81693e+07
1.81728e+07
1.81765e+07
1.81802e+07
1.8184e+07
1.81879e+07
1.81919e+07
1.81959e+07
1.82001e+07
1.82043e+07
1.82086e+07
1.82131e+07
1.82176e+07
1.82222e+07
1.82268e+07
1.82316e+07
1.82365e+07
1.82414e+07
1.82465e+07
1.82517e+07
1.82569e+07
1.82623e+07
1.82677e+07
1.82733e+07
1.82789e+07
1.82847e+07
1.82905e+07
1.82965e+07
1.83025e+07
1.83087e+07
1.8315e+07
1.83213e+07
1.83278e+07
1.83344e+07
1.83411e+07
1.83479e+07
1.83549e+07
1.83619e+07
1.83691e+07
1.83763e+07
1.83837e+07
1.83912e+07
1.83988e+07
1.84065e+07
1.84144e+07
1.84223e+07
1.84304e+07
1.84386e+07
1.84469e+07
1.84553e+07
1.84639e+07
1.84725e+07
1.84813e+07
1.84902e+07
1.84993e+07
1.85084e+07
1.85177e+07
1.85271e+07
1.85366e+07
1.85462e+07
1.8556e+07
1.85658e+07
1.85758e+07
1.8586e+07
1.85962e+07
1.86065e+07
1.8617e+07
1.86276e+07
1.86383e+07
1.86492e+07
1.86601e+07
1.86712e+07
1.86824e+07
1.86937e+07
1.87051e+07
1.87166e+07
1.87284e+07
1.87409e+07
1.87545e+07
1.80648e+07
1.80648e+07
1.80648e+07
1.80648e+07
1.80648e+07
1.80648e+07
1.80648e+07
1.80648e+07
1.80649e+07
1.80649e+07
1.80649e+07
1.80649e+07
1.80649e+07
1.80649e+07
1.80649e+07
1.80649e+07
1.80649e+07
1.80649e+07
1.80649e+07
1.80649e+07
1.80649e+07
1.80649e+07
1.8065e+07
1.8065e+07
1.8065e+07
1.8065e+07
1.8065e+07
1.8065e+07
1.80651e+07
1.80651e+07
1.80651e+07
1.80652e+07
1.80652e+07
1.80652e+07
1.80653e+07
1.80653e+07
1.80654e+07
1.80654e+07
1.80655e+07
1.80656e+07
1.80656e+07
1.80657e+07
1.80658e+07
1.80659e+07
1.8066e+07
1.80661e+07
1.80662e+07
1.80664e+07
1.80665e+07
1.80667e+07
1.80668e+07
1.8067e+07
1.80672e+07
1.80674e+07
1.80676e+07
1.80679e+07
1.80681e+07
1.80684e+07
1.80687e+07
1.8069e+07
1.80694e+07
1.80697e+07
1.80701e+07
1.80705e+07
1.80709e+07
1.80714e+07
1.80719e+07
1.80724e+07
1.80729e+07
1.80735e+07
1.80741e+07
1.80747e+07
1.80754e+07
1.8076e+07
1.80768e+07
1.80775e+07
1.80784e+07
1.80792e+07
1.80801e+07
1.8081e+07
1.8082e+07
1.8083e+07
1.8084e+07
1.80851e+07
1.80863e+07
1.80875e+07
1.80887e+07
1.809e+07
1.80913e+07
1.80927e+07
1.80941e+07
1.80956e+07
1.80972e+07
1.80988e+07
1.81004e+07
1.81021e+07
1.81039e+07
1.81057e+07
1.81076e+07
1.81096e+07
1.81116e+07
1.81136e+07
1.81158e+07
1.8118e+07
1.81202e+07
1.81225e+07
1.81249e+07
1.81274e+07
1.81299e+07
1.81325e+07
1.81352e+07
1.81379e+07
1.81407e+07
1.81436e+07
1.81465e+07
1.81495e+07
1.81526e+07
1.81558e+07
1.81591e+07
1.81624e+07
1.81658e+07
1.81693e+07
1.81728e+07
1.81765e+07
1.81802e+07
1.8184e+07
1.81879e+07
1.81919e+07
1.81959e+07
1.82001e+07
1.82043e+07
1.82086e+07
1.82131e+07
1.82176e+07
1.82222e+07
1.82268e+07
1.82316e+07
1.82365e+07
1.82414e+07
1.82465e+07
1.82517e+07
1.82569e+07
1.82623e+07
1.82677e+07
1.82733e+07
1.82789e+07
1.82847e+07
1.82905e+07
1.82965e+07
1.83025e+07
1.83087e+07
1.8315e+07
1.83213e+07
1.83278e+07
1.83344e+07
1.83411e+07
1.83479e+07
1.83549e+07
1.83619e+07
1.83691e+07
1.83763e+07
1.83837e+07
1.83912e+07
1.83988e+07
1.84065e+07
1.84144e+07
1.84223e+07
1.84304e+07
1.84386e+07
1.84469e+07
1.84553e+07
1.84639e+07
1.84725e+07
1.84813e+07
1.84902e+07
1.84993e+07
1.85084e+07
1.85177e+07
1.85271e+07
1.85366e+07
1.85462e+07
1.8556e+07
1.85658e+07
1.85758e+07
1.8586e+07
1.85962e+07
1.86065e+07
1.8617e+07
1.86276e+07
1.86383e+07
1.86492e+07
1.86601e+07
1.86712e+07
1.86824e+07
1.86936e+07
1.87051e+07
1.87166e+07
1.87283e+07
1.87404e+07
1.87529e+07
1.80648e+07
1.80648e+07
1.80648e+07
1.80648e+07
1.80648e+07
1.80648e+07
1.80648e+07
1.80648e+07
1.80649e+07
1.80649e+07
1.80649e+07
1.80649e+07
1.80649e+07
1.80649e+07
1.80649e+07
1.80649e+07
1.80649e+07
1.80649e+07
1.80649e+07
1.80649e+07
1.80649e+07
1.80649e+07
1.8065e+07
1.8065e+07
1.8065e+07
1.8065e+07
1.8065e+07
1.8065e+07
1.80651e+07
1.80651e+07
1.80651e+07
1.80652e+07
1.80652e+07
1.80652e+07
1.80653e+07
1.80653e+07
1.80654e+07
1.80654e+07
1.80655e+07
1.80656e+07
1.80656e+07
1.80657e+07
1.80658e+07
1.80659e+07
1.8066e+07
1.80661e+07
1.80662e+07
1.80664e+07
1.80665e+07
1.80667e+07
1.80668e+07
1.8067e+07
1.80672e+07
1.80674e+07
1.80676e+07
1.80679e+07
1.80681e+07
1.80684e+07
1.80687e+07
1.8069e+07
1.80694e+07
1.80697e+07
1.80701e+07
1.80705e+07
1.80709e+07
1.80714e+07
1.80719e+07
1.80724e+07
1.80729e+07
1.80735e+07
1.80741e+07
1.80747e+07
1.80754e+07
1.8076e+07
1.80768e+07
1.80775e+07
1.80784e+07
1.80792e+07
1.80801e+07
1.8081e+07
1.8082e+07
1.8083e+07
1.8084e+07
1.80851e+07
1.80863e+07
1.80875e+07
1.80887e+07
1.809e+07
1.80913e+07
1.80927e+07
1.80941e+07
1.80956e+07
1.80972e+07
1.80988e+07
1.81004e+07
1.81021e+07
1.81039e+07
1.81057e+07
1.81076e+07
1.81096e+07
1.81116e+07
1.81136e+07
1.81158e+07
1.8118e+07
1.81202e+07
1.81225e+07
1.81249e+07
1.81274e+07
1.81299e+07
1.81325e+07
1.81352e+07
1.81379e+07
1.81407e+07
1.81436e+07
1.81465e+07
1.81495e+07
1.81526e+07
1.81558e+07
1.81591e+07
1.81624e+07
1.81658e+07
1.81693e+07
1.81728e+07
1.81765e+07
1.81802e+07
1.8184e+07
1.81879e+07
1.81919e+07
1.81959e+07
1.82001e+07
1.82043e+07
1.82086e+07
1.82131e+07
1.82176e+07
1.82222e+07
1.82268e+07
1.82316e+07
1.82365e+07
1.82414e+07
1.82465e+07
1.82517e+07
1.82569e+07
1.82623e+07
1.82677e+07
1.82733e+07
1.82789e+07
1.82847e+07
1.82905e+07
1.82965e+07
1.83025e+07
1.83087e+07
1.8315e+07
1.83213e+07
1.83278e+07
1.83344e+07
1.83411e+07
1.83479e+07
1.83549e+07
1.83619e+07
1.83691e+07
1.83763e+07
1.83837e+07
1.83912e+07
1.83988e+07
1.84065e+07
1.84144e+07
1.84223e+07
1.84304e+07
1.84386e+07
1.84469e+07
1.84553e+07
1.84639e+07
1.84725e+07
1.84813e+07
1.84902e+07
1.84993e+07
1.85084e+07
1.85177e+07
1.85271e+07
1.85366e+07
1.85462e+07
1.8556e+07
1.85658e+07
1.85758e+07
1.8586e+07
1.85962e+07
1.86065e+07
1.8617e+07
1.86276e+07
1.86383e+07
1.86492e+07
1.86601e+07
1.86712e+07
1.86824e+07
1.86936e+07
1.87051e+07
1.87166e+07
1.87281e+07
1.87396e+07
1.87505e+07
1.80648e+07
1.80648e+07
1.80648e+07
1.80648e+07
1.80648e+07
1.80648e+07
1.80648e+07
1.80648e+07
1.80649e+07
1.80649e+07
1.80649e+07
1.80649e+07
1.80649e+07
1.80649e+07
1.80649e+07
1.80649e+07
1.80649e+07
1.80649e+07
1.80649e+07
1.80649e+07
1.80649e+07
1.80649e+07
1.8065e+07
1.8065e+07
1.8065e+07
1.8065e+07
1.8065e+07
1.8065e+07
1.80651e+07
1.80651e+07
1.80651e+07
1.80652e+07
1.80652e+07
1.80652e+07
1.80653e+07
1.80653e+07
1.80654e+07
1.80654e+07
1.80655e+07
1.80656e+07
1.80656e+07
1.80657e+07
1.80658e+07
1.80659e+07
1.8066e+07
1.80661e+07
1.80662e+07
1.80664e+07
1.80665e+07
1.80667e+07
1.80668e+07
1.8067e+07
1.80672e+07
1.80674e+07
1.80676e+07
1.80679e+07
1.80681e+07
1.80684e+07
1.80687e+07
1.8069e+07
1.80694e+07
1.80697e+07
1.80701e+07
1.80705e+07
1.80709e+07
1.80714e+07
1.80719e+07
1.80724e+07
1.80729e+07
1.80735e+07
1.80741e+07
1.80747e+07
1.80754e+07
1.8076e+07
1.80768e+07
1.80775e+07
1.80784e+07
1.80792e+07
1.80801e+07
1.8081e+07
1.8082e+07
1.8083e+07
1.8084e+07
1.80851e+07
1.80863e+07
1.80875e+07
1.80887e+07
1.809e+07
1.80913e+07
1.80927e+07
1.80941e+07
1.80956e+07
1.80972e+07
1.80988e+07
1.81004e+07
1.81021e+07
1.81039e+07
1.81057e+07
1.81076e+07
1.81096e+07
1.81116e+07
1.81136e+07
1.81158e+07
1.8118e+07
1.81202e+07
1.81225e+07
1.81249e+07
1.81274e+07
1.81299e+07
1.81325e+07
1.81352e+07
1.81379e+07
1.81407e+07
1.81436e+07
1.81465e+07
1.81495e+07
1.81526e+07
1.81558e+07
1.81591e+07
1.81624e+07
1.81658e+07
1.81693e+07
1.81728e+07
1.81765e+07
1.81802e+07
1.8184e+07
1.81879e+07
1.81919e+07
1.81959e+07
1.82001e+07
1.82043e+07
1.82086e+07
1.82131e+07
1.82176e+07
1.82222e+07
1.82268e+07
1.82316e+07
1.82365e+07
1.82414e+07
1.82465e+07
1.82517e+07
1.82569e+07
1.82623e+07
1.82677e+07
1.82733e+07
1.82789e+07
1.82847e+07
1.82905e+07
1.82965e+07
1.83025e+07
1.83087e+07
1.8315e+07
1.83213e+07
1.83278e+07
1.83344e+07
1.83411e+07
1.83479e+07
1.83549e+07
1.83619e+07
1.83691e+07
1.83763e+07
1.83837e+07
1.83912e+07
1.83988e+07
1.84065e+07
1.84144e+07
1.84223e+07
1.84304e+07
1.84386e+07
1.84469e+07
1.84553e+07
1.84639e+07
1.84725e+07
1.84813e+07
1.84902e+07
1.84993e+07
1.85084e+07
1.85177e+07
1.85271e+07
1.85366e+07
1.85462e+07
1.8556e+07
1.85658e+07
1.85758e+07
1.8586e+07
1.85962e+07
1.86065e+07
1.8617e+07
1.86276e+07
1.86383e+07
1.86492e+07
1.86601e+07
1.86712e+07
1.86824e+07
1.86936e+07
1.8705e+07
1.87165e+07
1.8728e+07
1.87389e+07
1.87486e+07
1.80648e+07
1.80648e+07
1.80648e+07
1.80648e+07
1.80648e+07
1.80648e+07
1.80648e+07
1.80648e+07
1.80649e+07
1.80649e+07
1.80649e+07
1.80649e+07
1.80649e+07
1.80649e+07
1.80649e+07
1.80649e+07
1.80649e+07
1.80649e+07
1.80649e+07
1.80649e+07
1.80649e+07
1.80649e+07
1.8065e+07
1.8065e+07
1.8065e+07
1.8065e+07
1.8065e+07
1.8065e+07
1.80651e+07
1.80651e+07
1.80651e+07
1.80652e+07
1.80652e+07
1.80652e+07
1.80653e+07
1.80653e+07
1.80654e+07
1.80654e+07
1.80655e+07
1.80656e+07
1.80656e+07
1.80657e+07
1.80658e+07
1.80659e+07
1.8066e+07
1.80661e+07
1.80662e+07
1.80664e+07
1.80665e+07
1.80667e+07
1.80668e+07
1.8067e+07
1.80672e+07
1.80674e+07
1.80676e+07
1.80679e+07
1.80681e+07
1.80684e+07
1.80687e+07
1.8069e+07
1.80694e+07
1.80697e+07
1.80701e+07
1.80705e+07
1.80709e+07
1.80714e+07
1.80719e+07
1.80724e+07
1.80729e+07
1.80735e+07
1.80741e+07
1.80747e+07
1.80754e+07
1.8076e+07
1.80768e+07
1.80775e+07
1.80784e+07
1.80792e+07
1.80801e+07
1.8081e+07
1.8082e+07
1.8083e+07
1.8084e+07
1.80851e+07
1.80863e+07
1.80875e+07
1.80887e+07
1.809e+07
1.80913e+07
1.80927e+07
1.80941e+07
1.80956e+07
1.80972e+07
1.80988e+07
1.81004e+07
1.81021e+07
1.81039e+07
1.81057e+07
1.81076e+07
1.81096e+07
1.81116e+07
1.81136e+07
1.81158e+07
1.8118e+07
1.81202e+07
1.81225e+07
1.81249e+07
1.81274e+07
1.81299e+07
1.81325e+07
1.81352e+07
1.81379e+07
1.81407e+07
1.81436e+07
1.81465e+07
1.81495e+07
1.81526e+07
1.81558e+07
1.81591e+07
1.81624e+07
1.81658e+07
1.81693e+07
1.81728e+07
1.81765e+07
1.81802e+07
1.8184e+07
1.81879e+07
1.81919e+07
1.81959e+07
1.82001e+07
1.82043e+07
1.82086e+07
1.82131e+07
1.82176e+07
1.82222e+07
1.82268e+07
1.82316e+07
1.82365e+07
1.82414e+07
1.82465e+07
1.82517e+07
1.82569e+07
1.82623e+07
1.82677e+07
1.82733e+07
1.82789e+07
1.82847e+07
1.82905e+07
1.82965e+07
1.83025e+07
1.83087e+07
1.8315e+07
1.83213e+07
1.83278e+07
1.83344e+07
1.83411e+07
1.83479e+07
1.83549e+07
1.83619e+07
1.83691e+07
1.83763e+07
1.83837e+07
1.83912e+07
1.83988e+07
1.84065e+07
1.84144e+07
1.84223e+07
1.84304e+07
1.84386e+07
1.84469e+07
1.84553e+07
1.84639e+07
1.84725e+07
1.84813e+07
1.84902e+07
1.84993e+07
1.85084e+07
1.85177e+07
1.85271e+07
1.85366e+07
1.85462e+07
1.8556e+07
1.85658e+07
1.85758e+07
1.8586e+07
1.85962e+07
1.86065e+07
1.8617e+07
1.86276e+07
1.86383e+07
1.86492e+07
1.86601e+07
1.86712e+07
1.86824e+07
1.86936e+07
1.8705e+07
1.87165e+07
1.8728e+07
1.87387e+07
1.87482e+07
1.80648e+07
1.80648e+07
1.80648e+07
1.80648e+07
1.80648e+07
1.80648e+07
1.80648e+07
1.80648e+07
1.80649e+07
1.80649e+07
1.80649e+07
1.80649e+07
1.80649e+07
1.80649e+07
1.80649e+07
1.80649e+07
1.80649e+07
1.80649e+07
1.80649e+07
1.80649e+07
1.80649e+07
1.80649e+07
1.8065e+07
1.8065e+07
1.8065e+07
1.8065e+07
1.8065e+07
1.8065e+07
1.80651e+07
1.80651e+07
1.80651e+07
1.80652e+07
1.80652e+07
1.80652e+07
1.80653e+07
1.80653e+07
1.80654e+07
1.80654e+07
1.80655e+07
1.80656e+07
1.80656e+07
1.80657e+07
1.80658e+07
1.80659e+07
1.8066e+07
1.80661e+07
1.80662e+07
1.80664e+07
1.80665e+07
1.80667e+07
1.80668e+07
1.8067e+07
1.80672e+07
1.80674e+07
1.80676e+07
1.80679e+07
1.80681e+07
1.80684e+07
1.80687e+07
1.8069e+07
1.80694e+07
1.80697e+07
1.80701e+07
1.80705e+07
1.80709e+07
1.80714e+07
1.80719e+07
1.80724e+07
1.80729e+07
1.80735e+07
1.80741e+07
1.80747e+07
1.80754e+07
1.8076e+07
1.80768e+07
1.80775e+07
1.80784e+07
1.80792e+07
1.80801e+07
1.8081e+07
1.8082e+07
1.8083e+07
1.8084e+07
1.80851e+07
1.80863e+07
1.80875e+07
1.80887e+07
1.809e+07
1.80913e+07
1.80927e+07
1.80941e+07
1.80956e+07
1.80972e+07
1.80988e+07
1.81004e+07
1.81021e+07
1.81039e+07
1.81057e+07
1.81076e+07
1.81096e+07
1.81116e+07
1.81136e+07
1.81158e+07
1.8118e+07
1.81202e+07
1.81225e+07
1.81249e+07
1.81274e+07
1.81299e+07
1.81325e+07
1.81352e+07
1.81379e+07
1.81407e+07
1.81436e+07
1.81465e+07
1.81495e+07
1.81526e+07
1.81558e+07
1.81591e+07
1.81624e+07
1.81658e+07
1.81693e+07
1.81728e+07
1.81765e+07
1.81802e+07
1.8184e+07
1.81879e+07
1.81919e+07
1.81959e+07
1.82001e+07
1.82043e+07
1.82086e+07
1.82131e+07
1.82176e+07
1.82222e+07
1.82268e+07
1.82316e+07
1.82365e+07
1.82414e+07
1.82465e+07
1.82517e+07
1.82569e+07
1.82623e+07
1.82677e+07
1.82733e+07
1.82789e+07
1.82847e+07
1.82905e+07
1.82965e+07
1.83025e+07
1.83087e+07
1.8315e+07
1.83213e+07
1.83278e+07
1.83344e+07
1.83411e+07
1.83479e+07
1.83549e+07
1.83619e+07
1.83691e+07
1.83763e+07
1.83837e+07
1.83912e+07
1.83988e+07
1.84065e+07
1.84144e+07
1.84223e+07
1.84304e+07
1.84386e+07
1.84469e+07
1.84553e+07
1.84639e+07
1.84725e+07
1.84813e+07
1.84902e+07
1.84993e+07
1.85084e+07
1.85177e+07
1.85271e+07
1.85366e+07
1.85462e+07
1.8556e+07
1.85658e+07
1.85758e+07
1.8586e+07
1.85962e+07
1.86065e+07
1.8617e+07
1.86276e+07
1.86383e+07
1.86492e+07
1.86601e+07
1.86712e+07
1.86824e+07
1.86936e+07
1.8705e+07
1.87165e+07
1.8728e+07
1.87386e+07
1.87481e+07
1.80648e+07
1.80648e+07
1.80648e+07
1.80648e+07
1.80648e+07
1.80648e+07
1.80648e+07
1.80648e+07
1.80649e+07
1.80649e+07
1.80649e+07
1.80649e+07
1.80649e+07
1.80649e+07
1.80649e+07
1.80649e+07
1.80649e+07
1.80649e+07
1.80649e+07
1.80649e+07
1.80649e+07
1.80649e+07
1.8065e+07
1.8065e+07
1.8065e+07
1.8065e+07
1.8065e+07
1.8065e+07
1.80651e+07
1.80651e+07
1.80651e+07
1.80652e+07
1.80652e+07
1.80652e+07
1.80653e+07
1.80653e+07
1.80654e+07
1.80654e+07
1.80655e+07
1.80656e+07
1.80656e+07
1.80657e+07
1.80658e+07
1.80659e+07
1.8066e+07
1.80661e+07
1.80662e+07
1.80664e+07
1.80665e+07
1.80667e+07
1.80668e+07
1.8067e+07
1.80672e+07
1.80674e+07
1.80676e+07
1.80679e+07
1.80681e+07
1.80684e+07
1.80687e+07
1.8069e+07
1.80694e+07
1.80697e+07
1.80701e+07
1.80705e+07
1.80709e+07
1.80714e+07
1.80719e+07
1.80724e+07
1.80729e+07
1.80735e+07
1.80741e+07
1.80747e+07
1.80754e+07
1.8076e+07
1.80768e+07
1.80775e+07
1.80784e+07
1.80792e+07
1.80801e+07
1.8081e+07
1.8082e+07
1.8083e+07
1.8084e+07
1.80851e+07
1.80863e+07
1.80875e+07
1.80887e+07
1.809e+07
1.80913e+07
1.80927e+07
1.80941e+07
1.80956e+07
1.80972e+07
1.80988e+07
1.81004e+07
1.81021e+07
1.81039e+07
1.81057e+07
1.81076e+07
1.81096e+07
1.81116e+07
1.81136e+07
1.81158e+07
1.8118e+07
1.81202e+07
1.81225e+07
1.81249e+07
1.81274e+07
1.81299e+07
1.81325e+07
1.81352e+07
1.81379e+07
1.81407e+07
1.81436e+07
1.81465e+07
1.81495e+07
1.81526e+07
1.81558e+07
1.81591e+07
1.81624e+07
1.81658e+07
1.81693e+07
1.81728e+07
1.81765e+07
1.81802e+07
1.8184e+07
1.81879e+07
1.81919e+07
1.81959e+07
1.82001e+07
1.82043e+07
1.82086e+07
1.82131e+07
1.82176e+07
1.82222e+07
1.82268e+07
1.82316e+07
1.82365e+07
1.82414e+07
1.82465e+07
1.82517e+07
1.82569e+07
1.82623e+07
1.82677e+07
1.82733e+07
1.82789e+07
1.82847e+07
1.82905e+07
1.82965e+07
1.83025e+07
1.83087e+07
1.8315e+07
1.83213e+07
1.83278e+07
1.83344e+07
1.83411e+07
1.83479e+07
1.83549e+07
1.83619e+07
1.83691e+07
1.83763e+07
1.83837e+07
1.83912e+07
1.83988e+07
1.84065e+07
1.84144e+07
1.84223e+07
1.84304e+07
1.84386e+07
1.84469e+07
1.84553e+07
1.84639e+07
1.84725e+07
1.84813e+07
1.84902e+07
1.84993e+07
1.85084e+07
1.85177e+07
1.85271e+07
1.85366e+07
1.85462e+07
1.8556e+07
1.85658e+07
1.85758e+07
1.8586e+07
1.85962e+07
1.86065e+07
1.8617e+07
1.86276e+07
1.86383e+07
1.86492e+07
1.86601e+07
1.86712e+07
1.86824e+07
1.86936e+07
1.8705e+07
1.87165e+07
1.8728e+07
1.87386e+07
1.87481e+07
1.87803e+07
1.8791e+07
1.87963e+07
1.8799e+07
1.88012e+07
1.88034e+07
1.88056e+07
1.88076e+07
1.88096e+07
1.88115e+07
1.88134e+07
1.88152e+07
1.8817e+07
1.88187e+07
1.88202e+07
1.88215e+07
1.88226e+07
1.88232e+07
1.88231e+07
1.88216e+07
1.87791e+07
1.87886e+07
1.87938e+07
1.87965e+07
1.87988e+07
1.8801e+07
1.88032e+07
1.88052e+07
1.88072e+07
1.88091e+07
1.8811e+07
1.88129e+07
1.88147e+07
1.88164e+07
1.88179e+07
1.88192e+07
1.88202e+07
1.88208e+07
1.88208e+07
1.88194e+07
1.8778e+07
1.87878e+07
1.87934e+07
1.87963e+07
1.87986e+07
1.88008e+07
1.8803e+07
1.8805e+07
1.8807e+07
1.88089e+07
1.88108e+07
1.88126e+07
1.88144e+07
1.8816e+07
1.88175e+07
1.88187e+07
1.88197e+07
1.88201e+07
1.88199e+07
1.88182e+07
1.87733e+07
1.87794e+07
1.87828e+07
1.87849e+07
1.8787e+07
1.87892e+07
1.87912e+07
1.87933e+07
1.87953e+07
1.87972e+07
1.87992e+07
1.88012e+07
1.8803e+07
1.88048e+07
1.88064e+07
1.88078e+07
1.88089e+07
1.88096e+07
1.88096e+07
1.88089e+07
1.8767e+07
1.87724e+07
1.8777e+07
1.87809e+07
1.87843e+07
1.87871e+07
1.87896e+07
1.87918e+07
1.87938e+07
1.87957e+07
1.87975e+07
1.8799e+07
1.88004e+07
1.88017e+07
1.88029e+07
1.88038e+07
1.88045e+07
1.88051e+07
1.88054e+07
1.88056e+07
1.87535e+07
1.87534e+07
1.87529e+07
1.87524e+07
1.87524e+07
1.8753e+07
1.87541e+07
1.87555e+07
1.87572e+07
1.87591e+07
1.87612e+07
1.87636e+07
1.87661e+07
1.87685e+07
1.8771e+07
1.87735e+07
1.87761e+07
1.87788e+07
1.87816e+07
1.87848e+07
1.8741e+07
1.87396e+07
1.8741e+07
1.87436e+07
1.87462e+07
1.87485e+07
1.87506e+07
1.87527e+07
1.87546e+07
1.87565e+07
1.87583e+07
1.876e+07
1.87616e+07
1.87633e+07
1.8765e+07
1.87671e+07
1.87695e+07
1.87724e+07
1.87761e+07
1.87806e+07
1.87229e+07
1.87129e+07
1.87053e+07
1.87008e+07
1.86987e+07
1.86979e+07
1.8698e+07
1.86988e+07
1.87003e+07
1.87024e+07
1.87049e+07
1.8708e+07
1.87115e+07
1.87157e+07
1.87203e+07
1.87255e+07
1.87316e+07
1.87386e+07
1.87467e+07
1.87559e+07
1.87176e+07
1.87072e+07
1.87008e+07
1.86978e+07
1.86965e+07
1.86962e+07
1.86965e+07
1.86975e+07
1.86991e+07
1.87011e+07
1.87036e+07
1.87065e+07
1.87099e+07
1.87138e+07
1.87182e+07
1.87232e+07
1.87289e+07
1.87356e+07
1.87436e+07
1.87529e+07
1.87125e+07
1.86965e+07
1.86875e+07
1.86833e+07
1.86812e+07
1.86803e+07
1.86804e+07
1.86813e+07
1.86828e+07
1.8685e+07
1.86876e+07
1.86908e+07
1.86945e+07
1.86988e+07
1.87038e+07
1.87094e+07
1.87158e+07
1.87233e+07
1.87323e+07
1.87431e+07
1.88114e+07
1.88122e+07
1.88196e+07
1.88289e+07
1.88386e+07
1.88484e+07
1.88584e+07
1.88684e+07
1.88786e+07
1.88888e+07
1.8899e+07
1.89093e+07
1.89197e+07
1.89301e+07
1.89405e+07
1.8951e+07
1.89616e+07
1.89722e+07
1.89829e+07
1.89936e+07
1.90043e+07
1.90151e+07
1.9026e+07
1.90368e+07
1.90477e+07
1.90587e+07
1.90696e+07
1.90806e+07
1.90917e+07
1.91027e+07
1.91138e+07
1.91249e+07
1.91361e+07
1.91472e+07
1.91584e+07
1.91696e+07
1.91808e+07
1.91921e+07
1.92033e+07
1.92146e+07
1.92259e+07
1.92372e+07
1.92485e+07
1.92598e+07
1.92711e+07
1.92824e+07
1.92937e+07
1.9305e+07
1.93163e+07
1.93276e+07
1.9339e+07
1.93503e+07
1.93616e+07
1.93729e+07
1.93841e+07
1.93954e+07
1.94067e+07
1.94179e+07
1.94292e+07
1.94404e+07
1.94516e+07
1.94628e+07
1.94739e+07
1.94851e+07
1.94962e+07
1.95073e+07
1.95183e+07
1.95294e+07
1.95404e+07
1.95514e+07
1.95623e+07
1.95733e+07
1.95842e+07
1.9595e+07
1.96059e+07
1.96167e+07
1.96274e+07
1.96381e+07
1.96488e+07
1.96595e+07
1.96701e+07
1.96807e+07
1.96912e+07
1.97017e+07
1.97121e+07
1.97225e+07
1.97329e+07
1.97432e+07
1.97534e+07
1.97636e+07
1.97738e+07
1.97839e+07
1.9794e+07
1.9804e+07
1.9814e+07
1.98239e+07
1.98337e+07
1.98435e+07
1.98533e+07
1.9863e+07
1.98726e+07
1.98822e+07
1.98917e+07
1.99012e+07
1.99106e+07
1.992e+07
1.99293e+07
1.99386e+07
1.99477e+07
1.99569e+07
1.99659e+07
1.9975e+07
1.99839e+07
1.99928e+07
2.00016e+07
2.00104e+07
2.00191e+07
2.00278e+07
2.00364e+07
2.00449e+07
2.00534e+07
2.00618e+07
2.00702e+07
2.00785e+07
2.00867e+07
2.00949e+07
2.0103e+07
2.01111e+07
2.01191e+07
2.0127e+07
2.01349e+07
2.01427e+07
2.01504e+07
2.01581e+07
2.01658e+07
2.01733e+07
2.01808e+07
2.01883e+07
2.01957e+07
2.0203e+07
2.02103e+07
2.02175e+07
2.02246e+07
2.02317e+07
2.02387e+07
2.02457e+07
2.02526e+07
2.02594e+07
2.02662e+07
2.02729e+07
2.02796e+07
2.02862e+07
2.02927e+07
2.02992e+07
2.03057e+07
2.0312e+07
2.03183e+07
2.03246e+07
2.03308e+07
2.03369e+07
2.0343e+07
2.0349e+07
2.0355e+07
2.03609e+07
2.03668e+07
2.03726e+07
2.03783e+07
2.0384e+07
2.03896e+07
2.03952e+07
2.04007e+07
2.04061e+07
2.04115e+07
2.04168e+07
2.04221e+07
2.04273e+07
2.04324e+07
2.04375e+07
2.04425e+07
2.04475e+07
2.04524e+07
2.04572e+07
2.0462e+07
2.04667e+07
2.04714e+07
2.0476e+07
2.04805e+07
2.0485e+07
2.04895e+07
2.04939e+07
2.04982e+07
2.05025e+07
2.05067e+07
2.05109e+07
2.0515e+07
2.05191e+07
2.05231e+07
2.05271e+07
2.0531e+07
2.0535e+07
1.88106e+07
1.8812e+07
1.88195e+07
1.88289e+07
1.88386e+07
1.88484e+07
1.88584e+07
1.88684e+07
1.88786e+07
1.88887e+07
1.8899e+07
1.89093e+07
1.89197e+07
1.89301e+07
1.89405e+07
1.8951e+07
1.89616e+07
1.89722e+07
1.89829e+07
1.89936e+07
1.90043e+07
1.90151e+07
1.9026e+07
1.90368e+07
1.90477e+07
1.90587e+07
1.90696e+07
1.90806e+07
1.90917e+07
1.91027e+07
1.91138e+07
1.91249e+07
1.91361e+07
1.91472e+07
1.91584e+07
1.91696e+07
1.91808e+07
1.91921e+07
1.92033e+07
1.92146e+07
1.92259e+07
1.92372e+07
1.92485e+07
1.92598e+07
1.92711e+07
1.92824e+07
1.92937e+07
1.9305e+07
1.93163e+07
1.93276e+07
1.9339e+07
1.93503e+07