/*--------------------------------*- C++ -*----------------------------------*\
| =========                 |                                                 |
| \\      /  F ield         | OpenFOAM: The Open Source CFD Toolbox           |
|  \\    /   O peration     | Version:  3.0.x                                 |
|   \\  /    A nd           | Web:      www.OpenFOAM.org                      |
|    \\/     M anipulation  |                                                 |
\*---------------------------------------------------------------------------*/
FoamFile
{
    version     2.0;
    format      ascii;
    class       volScalarField;
    location    "0.49005";
    object      rho;
}
// * * * * * * * * * * * * * * * * * * * * * * * * * * * * * * * * * * * * * //

dimensions      [1 -3 0 0 0 0 0];

internalField   nonuniform List<scalar> 
13800
(
50.6155
50.6155
50.6155
50.6155
50.6155
50.6155
50.6155
50.6155
50.6156
50.6156
50.6156
50.6156
50.6156
50.6156
50.6157
50.6157
50.6157
50.6157
50.6158
50.6158
50.6158
50.6159
50.6159
50.6159
50.616
50.616
50.6161
50.6161
50.6162
50.6163
50.6163
50.6164
50.6165
50.6166
50.6167
50.6168
50.6169
50.6171
50.6172
50.6174
50.6175
50.6177
50.6179
50.6182
50.6184
50.6187
50.619
50.6193
50.6196
50.62
50.6204
50.6208
50.6213
50.6218
50.6223
50.6229
50.6235
50.6241
50.6248
50.6255
50.6263
50.6271
50.628
50.629
50.6299
50.631
50.632
50.6332
50.6344
50.6357
50.6371
50.6386
50.6402
50.6419
50.6437
50.6456
50.6476
50.6496
50.6517
50.6539
50.6562
50.6586
50.6611
50.6636
50.6663
50.669
50.6719
50.6749
50.678
50.6812
50.6845
50.688
50.6917
50.6955
50.6994
50.7034
50.7076
50.7119
50.7163
50.7208
50.7255
50.7304
50.7355
50.7407
50.746
50.7515
50.7572
50.763
50.769
50.7751
50.7813
50.7877
50.7943
50.801
50.8079
50.8149
50.8221
50.8295
50.837
50.8448
50.8527
50.8608
50.8691
50.8777
50.8864
50.8954
50.9046
50.9139
50.9235
50.9332
50.9431
50.9532
50.9636
50.9741
50.9848
50.9957
51.0069
51.0182
51.0298
51.0416
51.0536
51.0659
51.0783
51.091
51.1039
51.1171
51.1305
51.1441
51.158
51.1721
51.1865
51.2011
51.216
51.2311
51.2464
51.262
51.2779
51.294
51.3104
51.327
51.3439
51.3611
51.3785
51.3962
51.4142
51.4324
51.4509
51.4697
51.4888
51.5081
51.5277
51.5476
51.5677
51.5882
51.6089
51.6299
51.6511
51.6727
51.6945
51.7166
51.739
51.7616
51.7847
51.8077
51.8315
51.8549
51.8793
51.9032
51.9284
51.9526
51.9785
52.0031
52.0297
52.0545
52.082
52.1071
52.1355
52.1608
52.1918
52.2131
50.6171
50.6171
50.6171
50.6171
50.6171
50.6172
50.6172
50.6172
50.6172
50.6172
50.6172
50.6172
50.6172
50.6173
50.6173
50.6173
50.6173
50.6173
50.6174
50.6174
50.6174
50.6174
50.6175
50.6175
50.6175
50.6176
50.6176
50.6177
50.6177
50.6178
50.6179
50.6179
50.618
50.6181
50.6182
50.6183
50.6184
50.6186
50.6187
50.6189
50.6191
50.6192
50.6194
50.6197
50.6199
50.6202
50.6205
50.6208
50.6211
50.6215
50.6219
50.6223
50.6227
50.6232
50.6237
50.6243
50.6249
50.6255
50.6262
50.627
50.6277
50.6286
50.6295
50.6304
50.6314
50.6324
50.6334
50.6346
50.6358
50.6371
50.6385
50.64
50.6416
50.6433
50.6451
50.647
50.6489
50.651
50.6531
50.6553
50.6576
50.6599
50.6624
50.665
50.6676
50.6704
50.6732
50.6762
50.6793
50.6825
50.6858
50.6893
50.6929
50.6967
50.7006
50.7047
50.7088
50.7131
50.7175
50.7221
50.7268
50.7317
50.7367
50.7419
50.7472
50.7527
50.7584
50.7642
50.7702
50.7763
50.7825
50.7889
50.7955
50.8022
50.8091
50.8161
50.8233
50.8307
50.8382
50.8459
50.8539
50.8619
50.8703
50.8788
50.8875
50.8965
50.9057
50.915
50.9246
50.9343
50.9442
50.9543
50.9647
50.9752
50.9859
50.9968
51.008
51.0193
51.0309
51.0427
51.0547
51.0669
51.0794
51.0921
51.105
51.1182
51.1315
51.1452
51.1591
51.1732
51.1875
51.2021
51.217
51.2321
51.2474
51.2631
51.2789
51.295
51.3114
51.3281
51.345
51.3621
51.3796
51.3973
51.4152
51.4335
51.452
51.4708
51.4898
51.5092
51.5288
51.5486
51.5688
51.5892
51.6099
51.6309
51.6522
51.6737
51.6956
51.7177
51.7401
51.7627
51.7857
51.8088
51.8325
51.856
51.8804
51.9043
51.9294
51.9537
51.9795
52.0041
52.0308
52.0556
52.0831
52.1081
52.1366
52.1617
52.193
52.2102
50.6171
50.6171
50.6171
50.6171
50.6172
50.6172
50.6172
50.6172
50.6172
50.6172
50.6172
50.6172
50.6172
50.6173
50.6173
50.6173
50.6173
50.6173
50.6174
50.6174
50.6174
50.6174
50.6175
50.6175
50.6175
50.6176
50.6176
50.6177
50.6177
50.6178
50.6179
50.6179
50.618
50.6181
50.6182
50.6183
50.6184
50.6186
50.6187
50.6189
50.6191
50.6192
50.6194
50.6197
50.6199
50.6202
50.6205
50.6208
50.6211
50.6215
50.6219
50.6223
50.6227
50.6232
50.6237
50.6243
50.6249
50.6255
50.6262
50.627
50.6277
50.6286
50.6295
50.6304
50.6314
50.6324
50.6335
50.6346
50.6358
50.6371
50.6385
50.64
50.6416
50.6433
50.6451
50.647
50.6489
50.651
50.6531
50.6553
50.6576
50.6599
50.6624
50.665
50.6676
50.6704
50.6732
50.6762
50.6793
50.6825
50.6858
50.6893
50.6929
50.6967
50.7006
50.7047
50.7088
50.7131
50.7175
50.7221
50.7268
50.7317
50.7367
50.7419
50.7472
50.7527
50.7584
50.7642
50.7702
50.7763
50.7825
50.7889
50.7955
50.8022
50.8091
50.8161
50.8233
50.8307
50.8382
50.8459
50.8539
50.862
50.8703
50.8788
50.8875
50.8965
50.9057
50.915
50.9246
50.9343
50.9442
50.9543
50.9647
50.9752
50.9859
50.9968
51.008
51.0193
51.0309
51.0427
51.0547
51.0669
51.0794
51.0921
51.105
51.1182
51.1316
51.1452
51.1591
51.1732
51.1875
51.2021
51.217
51.2321
51.2475
51.2631
51.2789
51.295
51.3114
51.3281
51.345
51.3621
51.3796
51.3973
51.4152
51.4335
51.452
51.4708
51.4898
51.5092
51.5288
51.5486
51.5688
51.5892
51.6099
51.6309
51.6522
51.6737
51.6956
51.7177
51.7401
51.7627
51.7857
51.8088
51.8325
51.856
51.8804
51.9043
51.9294
51.9537
51.9795
52.0041
52.0308
52.0556
52.0831
52.1081
52.1366
52.1618
52.1929
52.2105
50.6171
50.6171
50.6171
50.6171
50.6171
50.6171
50.6172
50.6172
50.6172
50.6172
50.6172
50.6172
50.6172
50.6172
50.6173
50.6173
50.6173
50.6173
50.6173
50.6174
50.6174
50.6174
50.6175
50.6175
50.6175
50.6176
50.6176
50.6177
50.6177
50.6178
50.6179
50.6179
50.618
50.6181
50.6182
50.6183
50.6184
50.6186
50.6187
50.6189
50.619
50.6192
50.6194
50.6197
50.6199
50.6202
50.6205
50.6208
50.6211
50.6215
50.6219
50.6223
50.6227
50.6232
50.6237
50.6243
50.6249
50.6255
50.6262
50.627
50.6277
50.6286
50.6295
50.6304
50.6314
50.6324
50.6334
50.6346
50.6358
50.6371
50.6385
50.64
50.6416
50.6433
50.6451
50.647
50.6489
50.651
50.6531
50.6553
50.6576
50.6599
50.6624
50.665
50.6676
50.6704
50.6732
50.6762
50.6793
50.6825
50.6858
50.6893
50.6929
50.6967
50.7006
50.7047
50.7088
50.7131
50.7175
50.7221
50.7268
50.7317
50.7367
50.7419
50.7472
50.7527
50.7584
50.7642
50.7702
50.7763
50.7825
50.7889
50.7955
50.8022
50.8091
50.8161
50.8233
50.8307
50.8382
50.8459
50.8539
50.862
50.8703
50.8788
50.8875
50.8965
50.9057
50.915
50.9246
50.9343
50.9442
50.9543
50.9647
50.9752
50.9859
50.9968
51.008
51.0193
51.0309
51.0427
51.0547
51.0669
51.0794
51.0921
51.105
51.1182
51.1316
51.1452
51.1591
51.1732
51.1875
51.2021
51.217
51.2321
51.2475
51.2631
51.2789
51.295
51.3114
51.3281
51.345
51.3621
51.3796
51.3973
51.4152
51.4335
51.452
51.4708
51.4898
51.5092
51.5288
51.5486
51.5688
51.5892
51.6099
51.6309
51.6522
51.6737
51.6956
51.7177
51.7401
51.7627
51.7857
51.8088
51.8325
51.856
51.8804
51.9043
51.9294
51.9537
51.9795
52.0041
52.0308
52.0556
52.0831
52.1081
52.1366
52.1618
52.1926
52.2139
50.6171
50.6171
50.6171
50.6171
50.6171
50.6171
50.6171
50.6172
50.6172
50.6172
50.6172
50.6172
50.6172
50.6172
50.6172
50.6173
50.6173
50.6173
50.6173
50.6174
50.6174
50.6174
50.6174
50.6175
50.6175
50.6176
50.6176
50.6177
50.6177
50.6178
50.6179
50.6179
50.618
50.6181
50.6182
50.6183
50.6184
50.6186
50.6187
50.6189
50.619
50.6192
50.6194
50.6197
50.6199
50.6202
50.6205
50.6208
50.6211
50.6215
50.6218
50.6223
50.6227
50.6232
50.6237
50.6243
50.6249
50.6255
50.6262
50.6269
50.6277
50.6286
50.6295
50.6304
50.6313
50.6324
50.6334
50.6346
50.6358
50.6371
50.6385
50.64
50.6416
50.6433
50.6451
50.6469
50.6489
50.651
50.6531
50.6553
50.6575
50.6599
50.6624
50.665
50.6676
50.6704
50.6732
50.6762
50.6793
50.6825
50.6858
50.6893
50.6929
50.6967
50.7006
50.7047
50.7088
50.7131
50.7175
50.7221
50.7268
50.7316
50.7367
50.7419
50.7472
50.7527
50.7584
50.7642
50.7702
50.7763
50.7825
50.7889
50.7955
50.8022
50.8091
50.8161
50.8233
50.8307
50.8382
50.8459
50.8539
50.8619
50.8703
50.8788
50.8875
50.8965
50.9057
50.915
50.9246
50.9343
50.9442
50.9543
50.9647
50.9752
50.9859
50.9968
51.008
51.0193
51.0309
51.0427
51.0547
51.0669
51.0794
51.0921
51.105
51.1182
51.1316
51.1452
51.1591
51.1732
51.1875
51.2021
51.217
51.2321
51.2475
51.2631
51.2789
51.295
51.3114
51.3281
51.345
51.3621
51.3796
51.3973
51.4152
51.4335
51.452
51.4708
51.4898
51.5092
51.5288
51.5486
51.5688
51.5892
51.6099
51.6309
51.6522
51.6737
51.6956
51.7176
51.7401
51.7627
51.7857
51.8088
51.8325
51.856
51.8804
51.9043
51.9294
51.9537
51.9796
52.0041
52.0308
52.0556
52.0831
52.1081
52.1365
52.1618
52.1915
52.2148
50.6171
50.6171
50.6171
50.6171
50.6171
50.6171
50.6171
50.6172
50.6172
50.6172
50.6172
50.6172
50.6172
50.6172
50.6172
50.6173
50.6173
50.6173
50.6173
50.6174
50.6174
50.6174
50.6174
50.6175
50.6175
50.6176
50.6176
50.6177
50.6177
50.6178
50.6179
50.6179
50.618
50.6181
50.6182
50.6183
50.6184
50.6186
50.6187
50.6189
50.619
50.6192
50.6194
50.6197
50.6199
50.6202
50.6205
50.6208
50.6211
50.6215
50.6218
50.6223
50.6227
50.6232
50.6237
50.6243
50.6249
50.6255
50.6262
50.6269
50.6277
50.6286
50.6295
50.6304
50.6313
50.6324
50.6334
50.6346
50.6358
50.6371
50.6385
50.64
50.6416
50.6433
50.6451
50.6469
50.6489
50.651
50.6531
50.6553
50.6575
50.6599
50.6624
50.665
50.6676
50.6704
50.6732
50.6762
50.6793
50.6825
50.6858
50.6893
50.6929
50.6967
50.7006
50.7047
50.7088
50.7131
50.7175
50.7221
50.7268
50.7316
50.7367
50.7419
50.7472
50.7527
50.7584
50.7642
50.7702
50.7763
50.7825
50.7889
50.7955
50.8022
50.8091
50.8161
50.8233
50.8307
50.8382
50.8459
50.8539
50.8619
50.8703
50.8788
50.8875
50.8965
50.9057
50.915
50.9246
50.9343
50.9442
50.9543
50.9647
50.9752
50.9859
50.9968
51.008
51.0193
51.0309
51.0427
51.0547
51.0669
51.0794
51.0921
51.105
51.1182
51.1316
51.1452
51.1591
51.1732
51.1875
51.2021
51.217
51.2321
51.2475
51.2631
51.2789
51.295
51.3114
51.3281
51.345
51.3621
51.3796
51.3973
51.4152
51.4335
51.452
51.4708
51.4898
51.5092
51.5288
51.5486
51.5688
51.5892
51.6099
51.6309
51.6522
51.6737
51.6956
51.7177
51.7401
51.7627
51.7857
51.8089
51.8324
51.8561
51.8804
51.9044
51.9292
51.9542
51.9788
52.005
52.0297
52.0568
52.0818
52.1094
52.1352
52.1624
52.19
52.2139
50.6171
50.6171
50.6171
50.6171
50.6171
50.6171
50.6172
50.6172
50.6172
50.6172
50.6172
50.6172
50.6172
50.6172
50.6173
50.6173
50.6173
50.6173
50.6173
50.6174
50.6174
50.6174
50.6175
50.6175
50.6175
50.6176
50.6176
50.6177
50.6177
50.6178
50.6179
50.6179
50.618
50.6181
50.6182
50.6183
50.6184
50.6186
50.6187
50.6189
50.619
50.6192
50.6194
50.6197
50.6199
50.6202
50.6205
50.6208
50.6211
50.6215
50.6219
50.6223
50.6227
50.6232
50.6237
50.6243
50.6249
50.6255
50.6262
50.627
50.6277
50.6286
50.6295
50.6304
50.6314
50.6324
50.6334
50.6346
50.6358
50.6371
50.6385
50.64
50.6416
50.6433
50.6451
50.647
50.6489
50.651
50.6531
50.6553
50.6576
50.6599
50.6624
50.665
50.6676
50.6704
50.6732
50.6762
50.6793
50.6825
50.6858
50.6893
50.6929
50.6967
50.7006
50.7047
50.7088
50.7131
50.7175
50.7221
50.7268
50.7317
50.7367
50.7419
50.7472
50.7527
50.7584
50.7642
50.7702
50.7763
50.7825
50.7889
50.7955
50.8022
50.8091
50.8161
50.8233
50.8307
50.8382
50.8459
50.8539
50.862
50.8703
50.8788
50.8875
50.8965
50.9057
50.915
50.9246
50.9343
50.9442
50.9543
50.9647
50.9752
50.9859
50.9968
51.008
51.0193
51.0309
51.0427
51.0547
51.0669
51.0794
51.0921
51.105
51.1182
51.1316
51.1452
51.1591
51.1732
51.1875
51.2021
51.217
51.2321
51.2475
51.2631
51.2789
51.295
51.3114
51.3281
51.345
51.3621
51.3796
51.3973
51.4152
51.4335
51.452
51.4708
51.4898
51.5092
51.5288
51.5486
51.5688
51.5892
51.6099
51.6309
51.6522
51.6737
51.6956
51.7177
51.74
51.7628
51.7856
51.809
51.8322
51.8564
51.8799
51.9048
51.9288
51.9544
51.9787
52.005
52.0298
52.0567
52.0818
52.1096
52.1347
52.1633
52.1854
52.2189
50.6171
50.6171
50.6171
50.6171
50.6172
50.6172
50.6172
50.6172
50.6172
50.6172
50.6172
50.6172
50.6172
50.6173
50.6173
50.6173
50.6173
50.6173
50.6174
50.6174
50.6174
50.6174
50.6175
50.6175
50.6175
50.6176
50.6176
50.6177
50.6177
50.6178
50.6179
50.6179
50.618
50.6181
50.6182
50.6183
50.6184
50.6186
50.6187
50.6189
50.6191
50.6192
50.6194
50.6197
50.6199
50.6202
50.6205
50.6208
50.6211
50.6215
50.6219
50.6223
50.6227
50.6232
50.6237
50.6243
50.6249
50.6255
50.6262
50.627
50.6277
50.6286
50.6295
50.6304
50.6314
50.6324
50.6335
50.6346
50.6358
50.6371
50.6385
50.64
50.6416
50.6433
50.6451
50.647
50.6489
50.651
50.6531
50.6553
50.6576
50.6599
50.6624
50.665
50.6676
50.6704
50.6732
50.6762
50.6793
50.6825
50.6858
50.6893
50.6929
50.6967
50.7006
50.7047
50.7088
50.7131
50.7175
50.7221
50.7268
50.7317
50.7367
50.7419
50.7472
50.7527
50.7584
50.7642
50.7702
50.7763
50.7825
50.7889
50.7955
50.8022
50.8091
50.8161
50.8233
50.8307
50.8382
50.8459
50.8539
50.862
50.8703
50.8788
50.8875
50.8965
50.9057
50.915
50.9246
50.9343
50.9442
50.9543
50.9647
50.9752
50.9859
50.9968
51.008
51.0193
51.0309
51.0427
51.0547
51.0669
51.0794
51.0921
51.105
51.1182
51.1316
51.1452
51.1591
51.1732
51.1875
51.2021
51.217
51.2321
51.2475
51.2631
51.2789
51.295
51.3114
51.3281
51.345
51.3621
51.3796
51.3973
51.4152
51.4335
51.452
51.4708
51.4898
51.5092
51.5288
51.5486
51.5688
51.5892
51.6099
51.6309
51.6522
51.6738
51.6956
51.7177
51.74
51.7628
51.7856
51.809
51.8322
51.8564
51.8799
51.9049
51.9288
51.9544
51.9787
52.0051
52.0297
52.0568
52.0817
52.1096
52.1347
52.1633
52.1831
52.2361
50.6171
50.6171
50.6171
50.6171
50.6171
50.6172
50.6172
50.6172
50.6172
50.6172
50.6172
50.6172
50.6172
50.6173
50.6173
50.6173
50.6173
50.6173
50.6174
50.6174
50.6174
50.6174
50.6175
50.6175
50.6175
50.6176
50.6176
50.6177
50.6177
50.6178
50.6179
50.6179
50.618
50.6181
50.6182
50.6183
50.6184
50.6186
50.6187
50.6189
50.6191
50.6192
50.6194
50.6197
50.6199
50.6202
50.6205
50.6208
50.6211
50.6215
50.6219
50.6223
50.6227
50.6232
50.6237
50.6243
50.6249
50.6255
50.6262
50.627
50.6277
50.6286
50.6295
50.6304
50.6314
50.6324
50.6334
50.6346
50.6358
50.6371
50.6385
50.64
50.6416
50.6433
50.6451
50.647
50.6489
50.651
50.6531
50.6553
50.6576
50.6599
50.6624
50.665
50.6676
50.6704
50.6732
50.6762
50.6793
50.6825
50.6858
50.6893
50.6929
50.6967
50.7006
50.7047
50.7088
50.7131
50.7175
50.7221
50.7268
50.7317
50.7367
50.7419
50.7472
50.7527
50.7584
50.7642
50.7702
50.7763
50.7825
50.7889
50.7955
50.8022
50.8091
50.8161
50.8233
50.8307
50.8382
50.8459
50.8539
50.8619
50.8703
50.8788
50.8875
50.8965
50.9057
50.915
50.9246
50.9343
50.9442
50.9543
50.9647
50.9752
50.9859
50.9968
51.008
51.0193
51.0309
51.0427
51.0547
51.0669
51.0794
51.0921
51.105
51.1182
51.1315
51.1452
51.1591
51.1732
51.1875
51.2021
51.217
51.2321
51.2474
51.2631
51.2789
51.295
51.3114
51.3281
51.345
51.3621
51.3796
51.3973
51.4152
51.4335
51.452
51.4708
51.4898
51.5092
51.5288
51.5486
51.5688
51.5892
51.6099
51.6309
51.6522
51.6738
51.6956
51.7177
51.74
51.7628
51.7856
51.809
51.8322
51.8564
51.8799
51.9049
51.9288
51.9544
51.9787
52.0051
52.0296
52.0569
52.0817
52.1097
52.1347
52.1633
52.1819
52.2459
50.6155
50.6155
50.6155
50.6155
50.6155
50.6155
50.6155
50.6155
50.6156
50.6156
50.6156
50.6156
50.6156
50.6156
50.6157
50.6157
50.6157
50.6157
50.6158
50.6158
50.6158
50.6159
50.6159
50.6159
50.616
50.616
50.6161
50.6161
50.6162
50.6163
50.6163
50.6164
50.6165
50.6166
50.6167
50.6168
50.6169
50.6171
50.6172
50.6174
50.6175
50.6177
50.6179
50.6182
50.6184
50.6187
50.619
50.6193
50.6196
50.62
50.6204
50.6208
50.6213
50.6218
50.6223
50.6229
50.6235
50.6241
50.6248
50.6255
50.6263
50.6271
50.628
50.629
50.6299
50.631
50.632
50.6332
50.6344
50.6357
50.6371
50.6386
50.6402
50.6419
50.6437
50.6456
50.6476
50.6496
50.6517
50.6539
50.6562
50.6586
50.6611
50.6636
50.6663
50.669
50.6719
50.6749
50.678
50.6812
50.6845
50.688
50.6917
50.6955
50.6994
50.7034
50.7076
50.7119
50.7163
50.7208
50.7255
50.7304
50.7355
50.7407
50.746
50.7515
50.7572
50.763
50.769
50.7751
50.7813
50.7877
50.7943
50.801
50.8079
50.8149
50.8221
50.8295
50.837
50.8448
50.8527
50.8608
50.8691
50.8777
50.8864
50.8954
50.9046
50.9139
50.9235
50.9332
50.9431
50.9532
50.9636
50.9741
50.9848
50.9957
51.0069
51.0182
51.0298
51.0416
51.0536
51.0659
51.0783
51.091
51.1039
51.1171
51.1305
51.1441
51.158
51.1721
51.1865
51.2011
51.216
51.2311
51.2464
51.262
51.2779
51.294
51.3104
51.327
51.3439
51.3611
51.3785
51.3962
51.4142
51.4324
51.4509
51.4697
51.4888
51.5081
51.5277
51.5476
51.5677
51.5882
51.6089
51.6299
51.6511
51.6727
51.6945
51.7166
51.739
51.7617
51.7845
51.808
51.8311
51.8553
51.8789
51.9038
51.9277
51.9534
51.9776
52.0041
52.0286
52.0558
52.0806
52.1087
52.1336
52.1623
52.1799
52.2539
52.2794
52.3052
52.3171
52.3233
52.3282
52.3332
52.3381
52.3427
52.3472
52.3516
52.3559
52.36
52.3639
52.3674
52.3706
52.3734
52.3757
52.3776
52.3774
52.3754
52.2769
52.3013
52.3137
52.3201
52.3251
52.3301
52.335
52.3397
52.3442
52.3485
52.3528
52.357
52.3609
52.3646
52.368
52.371
52.3735
52.3752
52.3748
52.3727
52.2739
52.2988
52.3125
52.3193
52.3246
52.3296
52.3345
52.3391
52.3434
52.3478
52.352
52.3562
52.3604
52.364
52.3675
52.3704
52.3724
52.3737
52.3732
52.37
52.2636
52.2788
52.2869
52.2922
52.297
52.3022
52.3068
52.3114
52.3155
52.3198
52.324
52.328
52.3317
52.3353
52.3381
52.3409
52.343
52.3441
52.3441
52.3429
52.2504
52.2626
52.2732
52.2825
52.2902
52.2971
52.3028
52.3081
52.3132
52.3181
52.3228
52.3267
52.3307
52.3343
52.3374
52.3399
52.3417
52.3431
52.3439
52.344
52.2205
52.2199
52.2181
52.2164
52.2157
52.2163
52.2184
52.2212
52.2244
52.2282
52.2318
52.2366
52.2409
52.2458
52.25
52.2547
52.2592
52.2646
52.2702
52.2775
52.1946
52.1899
52.1923
52.1988
52.2051
52.2104
52.2156
52.2208
52.2261
52.2313
52.2364
52.2413
52.2462
52.251
52.2562
52.2618
52.2678
52.2753
52.284
52.2942
52.1547
52.1293
52.1097
52.0976
52.0914
52.0885
52.0876
52.0885
52.0911
52.095
52.1002
52.1063
52.1135
52.1225
52.1318
52.1434
52.1561
52.1721
52.19
52.2118
52.1478
52.1211
52.1055
52.0979
52.0949
52.094
52.0947
52.0969
52.1006
52.1055
52.1116
52.1187
52.1268
52.136
52.1469
52.1582
52.1711
52.1862
52.2039
52.2243
52.1374
52.097
52.0753
52.0648
52.0589
52.0556
52.0545
52.0553
52.0572
52.0608
52.0655
52.0717
52.0788
52.0875
52.0975
52.109
52.1223
52.1383
52.1576
52.1814
52.3513
52.3502
52.3693
52.3916
52.4139
52.4364
52.4592
52.4823
52.5056
52.5293
52.5532
52.5773
52.6014
52.6255
52.6497
52.674
52.6985
52.723
52.7477
52.7725
52.7974
52.8224
52.8474
52.8726
52.8978
52.9231
52.9484
52.9739
52.9994
53.0249
53.0506
53.0763
53.102
53.1278
53.1536
53.1795
53.2054
53.2314
53.2574
53.2834
53.3095
53.3355
53.3616
53.3877
53.4138
53.4399
53.466
53.4921
53.5182
53.5443
53.5704
53.5965
53.6226
53.6487
53.6747
53.7007
53.7267
53.7527
53.7786
53.8044
53.8302
53.856
53.8817
53.9074
53.933
53.9586
53.9841
54.0095
54.0348
54.0601
54.0853
54.1105
54.1355
54.1606
54.1855
54.2104
54.2352
54.2599
54.2845
54.309
54.3334
54.3577
54.3819
54.406
54.43
54.4539
54.4777
54.5014
54.525
54.5485
54.5719
54.5951
54.6183
54.6413
54.6642
54.6869
54.7096
54.7321
54.7546
54.7769
54.799
54.8211
54.8429
54.8647
54.8863
54.9077
54.9291
54.9503
54.9713
54.9923
55.0131
55.0338
55.0543
55.0747
55.095
55.1152
55.1352
55.155
55.1747
55.1943
55.2138
55.2331
55.2523
55.2713
55.2902
55.3089
55.3275
55.346
55.3643
55.3824
55.4005
55.4184
55.4361
55.4537
55.4712
55.4886
55.5058
55.5228
55.5397
55.5565
55.5731
55.5896
55.6059
55.6222
55.6383
55.6544
55.6703
55.686
55.7015
55.7169
55.7321
55.7473
55.7625
55.7777
55.7929
55.8081
55.8232
55.8382
55.8527
55.8666
55.88
55.8939
55.9096
55.9259
55.9417
55.9556
55.9624
55.9523
55.9325
55.9105
55.8886
55.8692
55.8538
55.8433
55.8389
55.8418
55.852
55.866
55.8822
55.9067
55.953
56.0055
56.053
56.0942
56.1278
56.1547
56.1763
56.1949
56.2111
56.2257
56.2382
56.2497
56.2584
56.2684
56.2765
56.2865
56.2945
56.3044
56.3115
56.3217
52.3521
52.3527
52.3718
52.3942
52.4168
52.4395
52.4624
52.4855
52.5089
52.5325
52.5564
52.5805
52.6047
52.6289
52.6531
52.6775
52.7019
52.7265
52.7512
52.776
52.8009
52.8259
52.8509
52.8761
52.9013
52.9266
52.952
52.9774
53.0029
53.0285
53.0541
53.0798
53.1056
53.1314
53.1572
53.1831
53.209
53.235
53.261
53.287
53.3131
53.3392
53.3653
53.3913
53.4174
53.4435
53.4696
53.4957
53.5219
53.548
53.5741
53.6002
53.6263
53.6524
53.6784
53.7044
53.7304
53.7564
53.7823
53.8081
53.834
53.8597
53.8854
53.9111
53.9367
53.9623
53.9878
54.0133
54.0386
54.0639
54.0891
54.1143
54.1393
54.1643
54.1893
54.2141
54.2389
54.2636
54.2883
54.3128
54.3372
54.3615
54.3857
54.4098
54.4338
54.4577
54.4815
54.5052
54.5288
54.5523
54.5757
54.599
54.6221
54.6451
54.668
54.6908
54.7134
54.736
54.7584
54.7807
54.8028
54.8249
54.8468
54.8686
54.8902
54.9117
54.933
54.9542
54.9753
54.9962
55.017
55.0377
55.0582
55.0786
55.0989
55.119
55.1391
55.1589
55.1786
55.1982
55.2177
55.237
55.2562
55.2752
55.2941
55.3129
55.3315
55.3499
55.3683
55.3864
55.4044
55.4223
55.44
55.4576
55.4751
55.4925
55.5097
55.5267
55.5436
55.5604
55.577
55.5934
55.6098
55.626
55.642
55.658
55.6739
55.6895
55.705
55.7205
55.7357
55.7509
55.7661
55.781
55.7959
55.8108
55.8257
55.8401
55.8542
55.8681
55.8819
55.8958
55.9099
55.9249
55.941
55.9571
55.9725
55.987
56.0025
56.0184
56.0343
56.0492
56.0621
56.0707
56.0762
56.08
56.0829
56.086
56.0898
56.0948
56.1019
56.1109
56.1233
56.1368
56.1512
56.167
56.1825
56.1979
56.212
56.2254
56.2372
56.2485
56.258
56.2685
56.2771
56.2872
56.2954
56.3053
56.3129
56.3223
52.3519
52.3534
52.3718
52.3938
52.4163
52.4389
52.4617
52.4848
52.5082
52.5319
52.5559
52.5799
52.604
52.6282
52.6524
52.6767
52.7012
52.7258
52.7505
52.7753
52.8002
52.8252
52.8502
52.8754
52.9006
52.9259
52.9513
52.9767
53.0022
53.0278
53.0534
53.0791
53.1049
53.1307
53.1565
53.1824
53.2083
53.2343
53.2603
53.2863
53.3124
53.3384
53.3645
53.3906
53.4167
53.4428
53.4689
53.495
53.5211
53.5472
53.5734
53.5995
53.6255
53.6516
53.6777
53.7037
53.7297
53.7556
53.7815
53.8074
53.8332
53.859
53.8847
53.9104
53.936
53.9616
53.9871
54.0125
54.0379
54.0632
54.0884
54.1135
54.1386
54.1636
54.1885
54.2134
54.2382
54.2629
54.2875
54.3121
54.3365
54.3608
54.385
54.4091
54.4331
54.457
54.4808
54.5045
54.5281
54.5516
54.575
54.5982
54.6214
54.6444
54.6673
54.6901
54.7127
54.7352
54.7576
54.7799
54.8021
54.8242
54.8461
54.8679
54.8895
54.911
54.9323
54.9535
54.9745
54.9955
55.0163
55.0369
55.0575
55.0779
55.0982
55.1183
55.1383
55.1582
55.1779
55.1975
55.217
55.2363
55.2555
55.2745
55.2934
55.3122
55.3308
55.3493
55.3676
55.3857
55.4038
55.4216
55.4394
55.457
55.4745
55.4918
55.509
55.5261
55.543
55.5597
55.5764
55.5928
55.6092
55.6253
55.6414
55.6574
55.6732
55.6889
55.7044
55.7197
55.735
55.7502
55.7652
55.7802
55.7952
55.8101
55.8247
55.8394
55.8537
55.8672
55.8807
55.8947
55.9089
55.924
55.9405
55.9574
55.9744
55.9907
56.0064
56.0222
56.0377
56.0528
56.0666
56.0787
56.0876
56.0961
56.1022
56.1091
56.1145
56.1217
56.1279
56.1369
56.1449
56.1559
56.1663
56.1786
56.1903
56.2027
56.2144
56.2263
56.2369
56.2481
56.2576
56.2681
56.2768
56.287
56.2952
56.3051
56.3129
56.3226
52.3333
52.3431
52.3636
52.3857
52.4089
52.4323
52.4556
52.4788
52.502
52.5253
52.5489
52.5727
52.5966
52.6208
52.6451
52.6695
52.694
52.7185
52.7432
52.7679
52.7928
52.8177
52.8428
52.8679
52.8931
52.9184
52.9438
52.9692
52.9947
53.0203
53.0459
53.0716
53.0973
53.1231
53.149
53.1748
53.2008
53.2267
53.2527
53.2787
53.3048
53.3309
53.3569
53.383
53.4091
53.4352
53.4613
53.4874
53.5135
53.5396
53.5657
53.5918
53.6179
53.644
53.67
53.696
53.722
53.748
53.7739
53.7997
53.8256
53.8513
53.877
53.9027
53.9283
53.9539
53.9794
54.0048
54.0302
54.0555
54.0807
54.1058
54.1309
54.1559
54.1808
54.2057
54.2305
54.2552
54.2798
54.3043
54.3287
54.353
54.3772
54.4013
54.4253
54.4492
54.473
54.4967
54.5203
54.5438
54.5672
54.5905
54.6136
54.6366
54.6595
54.6823
54.705
54.7275
54.7499
54.7722
54.7944
54.8164
54.8383
54.86
54.8816
54.9031
54.9244
54.9456
54.9667
54.9877
55.0085
55.0291
55.0497
55.0701
55.0904
55.1105
55.1305
55.1504
55.1701
55.1897
55.2092
55.2285
55.2476
55.2667
55.2855
55.3043
55.3229
55.3413
55.3596
55.3778
55.3958
55.4137
55.4315
55.4491
55.4666
55.4839
55.5012
55.5182
55.5351
55.5519
55.5685
55.585
55.6015
55.6179
55.6339
55.6499
55.6657
55.6814
55.697
55.7126
55.7282
55.7436
55.759
55.7743
55.7893
55.804
55.8184
55.8327
55.847
55.8613
55.8762
55.8916
55.9072
55.9226
55.9378
55.9526
55.9673
55.9817
55.9959
56.0097
56.0226
56.035
56.0462
56.0576
56.0677
56.0785
56.0884
56.0989
56.1091
56.1196
56.1301
56.1411
56.1517
56.1634
56.1737
56.1856
56.1958
56.2073
56.2171
56.2282
56.2375
56.2483
56.2572
56.2676
56.2761
56.2863
56.2945
56.3044
56.3128
56.3221
52.342
52.3589
52.3784
52.3984
52.4196
52.4416
52.4643
52.4873
52.5107
52.5342
52.558
52.5818
52.6058
52.6298
52.654
52.6784
52.7028
52.7274
52.7522
52.777
52.8019
52.8268
52.8519
52.8771
52.9023
52.9276
52.953
52.9784
53.0039
53.0295
53.0552
53.0808
53.1066
53.1324
53.1582
53.1841
53.21
53.236
53.262
53.288
53.3141
53.3401
53.3662
53.3923
53.4184
53.4446
53.4707
53.4968
53.5229
53.549
53.5751
53.6012
53.6273
53.6533
53.6794
53.7054
53.7313
53.7573
53.7832
53.8091
53.8349
53.8607
53.8864
53.9121
53.9377
53.9633
53.9888
54.0142
54.0396
54.0649
54.0902
54.1153
54.1404
54.1654
54.1904
54.2152
54.24
54.2646
54.2892
54.3137
54.3381
54.3624
54.3867
54.4108
54.4348
54.4588
54.4826
54.5063
54.5298
54.5533
54.5767
54.5999
54.623
54.6461
54.669
54.6917
54.7144
54.7369
54.7593
54.7816
54.8038
54.8258
54.8477
54.8695
54.8911
54.9126
54.934
54.9552
54.9763
54.9973
55.0181
55.0388
55.0593
55.0797
55.1
55.1201
55.1401
55.1599
55.1796
55.1992
55.2186
55.2379
55.2571
55.2761
55.295
55.3137
55.3323
55.3508
55.3691
55.3873
55.4053
55.4232
55.4409
55.4585
55.476
55.4933
55.5105
55.5275
55.5444
55.5612
55.5778
55.5942
55.6105
55.6267
55.6427
55.6586
55.6744
55.69
55.7055
55.7209
55.736
55.7511
55.766
55.7808
55.7955
55.81
55.8246
55.839
55.8534
55.8674
55.8812
55.895
55.9086
55.9224
55.9361
55.9499
55.9637
55.9774
55.9909
56.0042
56.0172
56.0298
56.0423
56.054
56.0661
56.0772
56.089
56.1
56.1112
56.1224
56.1331
56.1444
56.1548
56.166
56.1763
56.1871
56.1975
56.2076
56.2182
56.2276
56.2382
56.2474
56.2573
56.2669
56.2761
56.2855
56.2947
56.3038
56.3125
56.3215
52.2953
52.3229
52.3483
52.3728
52.3964
52.4195
52.4423
52.4651
52.4881
52.5113
52.5346
52.5582
52.5819
52.6058
52.6299
52.6541
52.6785
52.703
52.7276
52.7524
52.7772
52.8021
52.8272
52.8523
52.8775
52.9028
52.9282
52.9536
52.9791
53.0046
53.0303
53.056
53.0817
53.1075
53.1333
53.1592
53.1851
53.211
53.237
53.263
53.2891
53.3151
53.3412
53.3673
53.3933
53.4194
53.4455
53.4716
53.4977
53.5238
53.5499
53.576
53.6021
53.6282
53.6542
53.6802
53.7062
53.7321
53.758
53.7839
53.8097
53.8355
53.8612
53.8869
53.9125
53.938
53.9635
53.9889
54.0142
54.0395
54.0647
54.0899
54.115
54.14
54.165
54.1899
54.2146
54.2393
54.2639
54.2884
54.3128
54.3371
54.3613
54.3854
54.4095
54.4334
54.4573
54.481
54.5046
54.5281
54.5514
54.5747
54.5978
54.6209
54.6438
54.6666
54.6893
54.7118
54.7342
54.7564
54.7785
54.8005
54.8224
54.8441
54.8657
54.8872
54.9086
54.9298
54.9509
54.9719
54.9927
55.0134
55.0339
55.0544
55.0747
55.0948
55.1149
55.1348
55.1546
55.1742
55.1937
55.2131
55.2323
55.2514
55.2704
55.2893
55.308
55.3266
55.3451
55.3634
55.3817
55.3998
55.4178
55.4357
55.4535
55.4712
55.4886
55.506
55.5232
55.5402
55.5571
55.574
55.5908
55.6075
55.6242
55.6408
55.6573
55.6736
55.6897
55.7056
55.7212
55.7365
55.7516
55.7666
55.7815
55.7966
55.8119
55.8275
55.8432
55.8589
55.8746
55.8904
55.906
55.9213
55.9363
55.9509
55.9652
55.9792
55.9931
56.0064
56.0198
56.0324
56.0453
56.057
56.0691
56.08
56.0915
56.1017
56.113
56.1228
56.1341
56.1438
56.1552
56.1647
56.1762
56.1856
56.1969
56.2062
56.2173
56.2264
56.2373
56.2462
56.2568
56.2656
56.2759
56.2844
56.2945
56.3028
56.3126
56.3206
52.3278
52.3603
52.3842
52.4066
52.429
52.4517
52.4747
52.498
52.5215
52.5451
52.5689
52.5928
52.6168
52.641
52.6652
52.6896
52.7141
52.7387
52.7634
52.7882
52.8131
52.8381
52.8632
52.8884
52.9136
52.939
52.9644
52.9898
53.0153
53.0409
53.0666
53.0923
53.118
53.1438
53.1697
53.1956
53.2215
53.2475
53.2735
53.2995
53.3256
53.3517
53.3777
53.4039
53.43
53.4561
53.4822
53.5084
53.5345
53.5606
53.5867
53.6128
53.6389
53.665
53.691
53.717
53.743
53.7689
53.7948
53.8207
53.8465
53.8723
53.898
53.9237
53.9493
53.9749
54.0004
54.0259
54.0512
54.0766
54.1018
54.127
54.1521
54.1771
54.202
54.2269
54.2516
54.2763
54.3009
54.3254
54.3498
54.3742
54.3984
54.4225
54.4465
54.4704
54.4941
54.5178
54.5414
54.5649
54.5882
54.6115
54.6346
54.6577
54.6806
54.7033
54.726
54.7485
54.7709
54.7931
54.8152
54.8373
54.8591
54.8809
54.9026
54.9241
54.9454
54.9667
54.9878
55.0087
55.0295
55.0502
55.0708
55.0912
55.1114
55.1315
55.1515
55.1714
55.1912
55.2108
55.2302
55.2496
55.2687
55.2878
55.3067
55.3254
55.344
55.3624
55.3808
55.3989
55.417
55.4349
55.4527
55.4703
55.4878
55.5052
55.5224
55.5394
55.5564
55.5731
55.5897
55.6062
55.6226
55.6388
55.655
55.6709
55.6868
55.7024
55.718
55.7335
55.7488
55.7638
55.7787
55.7935
55.8081
55.8228
55.8373
55.8515
55.8655
55.8794
55.8933
55.9069
55.9205
55.9341
55.9475
55.9604
55.9729
55.985
55.9974
56.0093
56.0218
56.0339
56.0473
56.0605
56.0746
56.0876
56.1005
56.1115
56.1226
56.1317
56.1419
56.1504
56.1605
56.169
56.1796
56.1881
56.199
56.2077
56.2185
56.2273
56.238
56.2467
56.2572
56.2658
56.2761
56.2846
56.2946
56.3031
56.3122
56.3206
52.2843
52.3283
52.3559
52.3795
52.4018
52.4238
52.4459
52.4682
52.4908
52.5136
52.5366
52.5599
52.5833
52.607
52.6309
52.655
52.6793
52.7037
52.7283
52.753
52.7778
52.8028
52.8278
52.8529
52.8781
52.9034
52.9288
52.9542
52.9797
53.0053
53.0309
53.0566
53.0823
53.1081
53.134
53.1598
53.1857
53.2117
53.2377
53.2637
53.2897
53.3158
53.3419
53.368
53.3941
53.4202
53.4462
53.4723
53.4984
53.5245
53.5506
53.5767
53.6028
53.6289
53.6549
53.6809
53.7069
53.7329
53.7588
53.7846
53.8105
53.8362
53.862
53.8877
53.9133
53.9388
53.9643
53.9897
54.015
54.0403
54.0655
54.0906
54.1158
54.1408
54.1658
54.1907
54.2155
54.2403
54.2649
54.2894
54.3139
54.3382
54.3625
54.3867
54.4108
54.4349
54.4588
54.4826
54.5062
54.5298