/*--------------------------------*- C++ -*----------------------------------*\
| =========                 |                                                 |
| \\      /  F ield         | OpenFOAM: The Open Source CFD Toolbox           |
|  \\    /   O peration     | Version:  3.0.x                                 |
|   \\  /    A nd           | Web:      www.OpenFOAM.org                      |
|    \\/     M anipulation  |                                                 |
\*---------------------------------------------------------------------------*/
FoamFile
{
    version     2.0;
    format      ascii;
    class       volScalarField;
    location    "0.49005";
    object      T;
}
// * * * * * * * * * * * * * * * * * * * * * * * * * * * * * * * * * * * * * //

dimensions      [0 0 0 1 0 0 0];

internalField   nonuniform List<scalar> 
13800
(
773.519
773.519
773.519
773.519
773.518
773.518
773.518
773.518
773.518
773.518
773.518
773.518
773.518
773.518
773.518
773.518
773.518
773.518
773.518
773.518
773.518
773.518
773.518
773.518
773.518
773.518
773.518
773.518
773.518
773.518
773.518
773.518
773.519
773.519
773.519
773.519
773.52
773.52
773.52
773.521
773.521
773.522
773.522
773.523
773.524
773.524
773.525
773.526
773.527
773.528
773.529
773.531
773.532
773.533
773.535
773.537
773.538
773.54
773.542
773.545
773.547
773.549
773.552
773.555
773.558
773.562
773.566
773.57
773.574
773.578
773.583
773.587
773.591
773.595
773.599
773.602
773.607
773.612
773.617
773.623
773.63
773.636
773.644
773.651
773.66
773.669
773.678
773.688
773.697
773.708
773.718
773.728
773.739
773.749
773.76
773.772
773.784
773.796
773.81
773.823
773.837
773.851
773.865
773.879
773.894
773.909
773.925
773.941
773.958
773.975
773.994
774.013
774.032
774.052
774.073
774.095
774.118
774.141
774.164
774.188
774.213
774.238
774.263
774.288
774.314
774.34
774.366
774.393
774.42
774.449
774.478
774.508
774.539
774.571
774.603
774.636
774.67
774.704
774.739
774.775
774.812
774.849
774.886
774.925
774.964
775.004
775.045
775.086
775.128
775.171
775.215
775.259
775.304
775.35
775.397
775.444
775.492
775.541
775.591
775.642
775.693
775.745
775.798
775.851
775.906
775.961
776.017
776.074
776.131
776.19
776.249
776.309
776.37
776.432
776.494
776.557
776.622
776.687
776.752
776.819
776.886
776.955
777.023
777.095
777.162
777.238
777.305
777.385
777.451
777.535
777.599
777.688
777.751
777.845
777.905
778.006
778.062
778.176
778.238
778.5
773.493
773.493
773.493
773.493
773.493
773.493
773.493
773.493
773.493
773.493
773.493
773.493
773.493
773.493
773.493
773.493
773.493
773.493
773.493
773.493
773.493
773.493
773.494
773.494
773.494
773.494
773.494
773.494
773.494
773.494
773.495
773.495
773.495
773.495
773.496
773.496
773.496
773.497
773.497
773.498
773.498
773.499
773.5
773.5
773.501
773.502
773.503
773.504
773.505
773.506
773.507
773.508
773.51
773.511
773.513
773.514
773.516
773.518
773.52
773.523
773.525
773.528
773.53
773.533
773.537
773.541
773.545
773.549
773.553
773.557
773.562
773.566
773.57
773.574
773.578
773.582
773.586
773.591
773.597
773.603
773.609
773.616
773.623
773.631
773.639
773.648
773.658
773.668
773.677
773.688
773.698
773.709
773.719
773.73
773.741
773.752
773.764
773.777
773.79
773.804
773.818
773.832
773.846
773.861
773.876
773.891
773.907
773.923
773.94
773.957
773.976
773.994
774.014
774.034
774.055
774.077
774.1
774.123
774.146
774.171
774.195
774.22
774.246
774.271
774.297
774.323
774.349
774.376
774.404
774.432
774.462
774.492
774.522
774.554
774.586
774.619
774.653
774.688
774.723
774.759
774.795
774.832
774.87
774.909
774.948
774.988
775.029
775.071
775.113
775.156
775.199
775.244
775.289
775.335
775.381
775.429
775.477
775.526
775.575
775.626
775.677
775.729
775.782
775.835
775.89
775.945
776.001
776.058
776.115
776.174
776.233
776.293
776.354
776.416
776.478
776.542
776.606
776.671
776.736
776.803
776.87
776.939
777.007
777.079
777.146
777.222
777.289
777.369
777.435
777.519
777.584
777.672
777.735
777.829
777.889
777.99
778.046
778.162
778.22
778.543
773.493
773.493
773.493
773.493
773.493
773.493
773.493
773.493
773.493
773.493
773.493
773.493
773.493
773.493
773.493
773.493
773.493
773.493
773.493
773.493
773.493
773.493
773.493
773.494
773.494
773.494
773.494
773.494
773.494
773.494
773.495
773.495
773.495
773.495
773.496
773.496
773.496
773.497
773.497
773.498
773.498
773.499
773.5
773.5
773.501
773.502
773.503
773.504
773.505
773.506
773.507
773.508
773.51
773.511
773.513
773.514
773.516
773.518
773.52
773.523
773.525
773.527
773.53
773.533
773.537
773.541
773.545
773.549
773.553
773.557
773.562
773.566
773.57
773.574
773.578
773.582
773.586
773.591
773.597
773.603
773.609
773.616
773.623
773.631
773.639
773.648
773.658
773.667
773.677
773.688
773.698
773.709
773.719
773.73
773.741
773.752
773.764
773.777
773.79
773.804
773.818
773.832
773.846
773.861
773.876
773.891
773.907
773.923
773.94
773.957
773.975
773.994
774.014
774.034
774.055
774.077
774.099
774.123
774.146
774.17
774.195
774.22
774.246
774.271
774.297
774.323
774.349
774.376
774.404
774.432
774.461
774.492
774.522
774.554
774.586
774.619
774.653
774.688
774.723
774.759
774.795
774.832
774.87
774.909
774.948
774.988
775.029
775.071
775.113
775.156
775.199
775.244
775.289
775.335
775.381
775.429
775.477
775.526
775.575
775.626
775.677
775.729
775.782
775.835
775.89
775.945
776.001
776.058
776.115
776.174
776.233
776.293
776.354
776.416
776.478
776.542
776.606
776.671
776.736
776.803
776.87
776.939
777.007
777.079
777.146
777.222
777.289
777.369
777.435
777.519
777.583
777.672
777.735
777.829
777.889
777.99
778.046
778.161
778.22
778.536
773.494
773.494
773.494
773.494
773.494
773.494
773.494
773.494
773.494
773.493
773.493
773.493
773.493
773.493
773.493
773.493
773.493
773.493
773.494
773.494
773.494
773.494
773.494
773.494
773.494
773.494
773.494
773.494
773.494
773.495
773.495
773.495
773.495
773.496
773.496
773.496
773.497
773.497
773.497
773.498
773.498
773.499
773.5
773.5
773.501
773.502
773.503
773.504
773.505
773.506
773.507
773.508
773.51
773.511
773.513
773.515
773.516
773.518
773.52
773.523
773.525
773.528
773.53
773.533
773.537
773.541
773.545
773.549
773.553
773.557
773.562
773.566
773.57
773.574
773.578
773.582
773.586
773.591
773.597
773.603
773.609
773.616
773.623
773.631
773.639
773.648
773.658
773.668
773.678
773.688
773.698
773.709
773.719
773.73
773.741
773.752
773.764
773.777
773.79
773.804
773.818
773.832
773.846
773.861
773.876
773.891
773.907
773.923
773.94
773.957
773.976
773.994
774.014
774.034
774.055
774.077
774.099
774.123
774.146
774.171
774.195
774.22
774.246
774.271
774.297
774.323
774.349
774.376
774.404
774.432
774.461
774.492
774.522
774.554
774.586
774.619
774.653
774.688
774.723
774.759
774.795
774.832
774.87
774.909
774.948
774.988
775.029
775.071
775.113
775.156
775.199
775.244
775.289
775.335
775.381
775.429
775.477
775.526
775.575
775.626
775.677
775.729
775.782
775.835
775.89
775.945
776.001
776.058
776.115
776.174
776.233
776.293
776.354
776.416
776.478
776.542
776.606
776.671
776.736
776.803
776.87
776.939
777.007
777.079
777.146
777.222
777.289
777.369
777.435
777.519
777.583
777.672
777.735
777.829
777.889
777.99
778.046
778.159
778.219
778.465
773.494
773.494
773.494
773.494
773.494
773.494
773.494
773.494
773.494
773.494
773.494
773.494
773.494
773.494
773.494
773.494
773.494
773.494
773.494
773.494
773.494
773.494
773.494
773.494
773.494
773.494
773.494
773.494
773.494
773.495
773.495
773.495
773.495
773.496
773.496
773.496
773.497
773.497
773.498
773.498
773.499
773.499
773.5
773.5
773.501
773.502
773.503
773.504
773.505
773.506
773.507
773.508
773.51
773.511
773.513
773.515
773.517
773.518
773.521
773.523
773.525
773.528
773.53
773.533
773.537
773.541
773.545
773.549
773.553
773.557
773.562
773.566
773.57
773.574
773.578
773.582
773.587
773.591
773.597
773.603
773.609
773.616
773.623
773.631
773.64
773.649
773.658
773.668
773.678
773.688
773.698
773.709
773.72
773.73
773.741
773.753
773.765
773.777
773.791
773.804
773.818
773.832
773.847
773.861
773.876
773.891
773.907
773.923
773.94
773.957
773.976
773.994
774.014
774.034
774.055
774.077
774.1
774.123
774.146
774.171
774.195
774.22
774.246
774.271
774.297
774.323
774.349
774.376
774.404
774.432
774.461
774.492
774.522
774.554
774.586
774.619
774.653
774.688
774.723
774.759
774.795
774.832
774.87
774.909
774.948
774.988
775.029
775.071
775.113
775.156
775.199
775.244
775.289
775.335
775.381
775.429
775.477
775.526
775.575
775.626
775.677
775.729
775.782
775.835
775.89
775.945
776.001
776.058
776.115
776.174
776.233
776.293
776.354
776.416
776.478
776.542
776.606
776.671
776.736
776.803
776.87
776.94
777.007
777.079
777.146
777.222
777.289
777.369
777.435
777.519
777.583
777.673
777.735
777.83
777.888
777.99
778.046
778.154
778.213
778.385
773.494
773.494
773.494
773.494
773.494
773.494
773.494
773.494
773.494
773.494
773.494
773.494
773.494
773.494
773.494
773.494
773.494
773.494
773.494
773.494
773.494
773.494
773.494
773.494
773.494
773.494
773.494
773.494
773.494
773.495
773.495
773.495
773.495
773.496
773.496
773.496
773.497
773.497
773.498
773.498
773.499
773.499
773.5
773.5
773.501
773.502
773.503
773.504
773.505
773.506
773.507
773.508
773.51
773.511
773.513
773.515
773.517
773.518
773.521
773.523
773.525
773.528
773.53
773.533
773.537
773.541
773.545
773.549
773.553
773.557
773.562
773.566
773.57
773.574
773.578
773.582
773.587
773.591
773.597
773.603
773.609
773.616
773.623
773.631
773.64
773.649
773.658
773.668
773.678
773.688
773.698
773.709
773.72
773.73
773.741
773.753
773.765
773.777
773.791
773.804
773.818
773.832
773.847
773.861
773.876
773.891
773.907
773.923
773.94
773.957
773.976
773.994
774.014
774.034
774.055
774.077
774.1
774.123
774.146
774.171
774.195
774.22
774.246
774.271
774.297
774.323
774.349
774.376
774.404
774.432
774.461
774.492
774.522
774.554
774.586
774.619
774.653
774.688
774.723
774.759
774.795
774.832
774.87
774.909
774.948
774.988
775.029
775.071
775.113
775.156
775.199
775.244
775.289
775.335
775.381
775.429
775.477
775.526
775.575
775.626
775.677
775.729
775.782
775.835
775.89
775.945
776.001
776.058
776.115
776.174
776.233
776.293
776.354
776.416
776.478
776.541
776.606
776.671
776.736
776.803
776.871
776.939
777.008
777.078
777.147
777.221
777.29
777.367
777.439
777.512
777.594
777.659
777.751
777.812
777.908
777.97
778.063
778.139
778.205
778.301
773.494
773.494
773.494
773.494
773.494
773.494
773.494
773.494
773.494
773.493
773.493
773.493
773.493
773.493
773.493
773.493
773.493
773.493
773.494
773.494
773.494
773.494
773.494
773.494
773.494
773.494
773.494
773.494
773.494
773.495
773.495
773.495
773.495
773.496
773.496
773.496
773.497
773.497
773.497
773.498
773.498
773.499
773.5
773.5
773.501
773.502
773.503
773.504
773.505
773.506
773.507
773.508
773.51
773.511
773.513
773.515
773.516
773.518
773.52
773.523
773.525
773.528
773.53
773.533
773.537
773.541
773.545
773.549
773.553
773.557
773.562
773.566
773.57
773.574
773.578
773.582
773.586
773.591
773.597
773.603
773.609
773.616
773.623
773.631
773.639
773.648
773.658
773.668
773.678
773.688
773.698
773.709
773.719
773.73
773.741
773.752
773.764
773.777
773.79
773.804
773.818
773.832
773.846
773.861
773.876
773.891
773.907
773.923
773.94
773.957
773.976
773.994
774.014
774.034
774.055
774.077
774.099
774.123
774.146
774.171
774.195
774.22
774.246
774.271
774.297
774.323
774.349
774.376
774.404
774.432
774.461
774.492
774.522
774.554
774.586
774.619
774.653
774.688
774.723
774.759
774.795
774.832
774.87
774.909
774.948
774.988
775.029
775.071
775.113
775.156
775.199
775.244
775.289
775.335
775.381
775.429
775.477
775.526
775.575
775.626
775.677
775.729
775.782
775.835
775.89
775.945
776.001
776.058
776.115
776.174
776.233
776.293
776.354
776.416
776.478
776.541
776.606
776.671
776.736
776.803
776.871
776.938
777.009
777.076
777.151
777.216
777.296
777.361
777.444
777.508
777.596
777.659
777.75
777.813
777.908
777.967
778.07
778.12
778.243
778.144
773.493
773.493
773.493
773.493
773.493
773.493
773.493
773.493
773.493
773.493
773.493
773.493
773.493
773.493
773.493
773.493
773.493
773.493
773.493
773.493
773.493
773.493
773.493
773.494
773.494
773.494
773.494
773.494
773.494
773.494
773.495
773.495
773.495
773.495
773.496
773.496
773.496
773.497
773.497
773.498
773.498
773.499
773.5
773.5
773.501
773.502
773.503
773.504
773.505
773.506
773.507
773.508
773.51
773.511
773.513
773.514
773.516
773.518
773.52
773.523
773.525
773.527
773.53
773.533
773.537
773.541
773.545
773.549
773.553
773.557
773.562
773.566
773.57
773.574
773.578
773.582
773.586
773.591
773.597
773.603
773.609
773.616
773.623
773.631
773.639
773.648
773.658
773.667
773.677
773.688
773.698
773.709
773.719
773.73
773.741
773.752
773.764
773.777
773.79
773.804
773.818
773.832
773.846
773.861
773.876
773.891
773.907
773.923
773.94
773.957
773.975
773.994
774.014
774.034
774.055
774.077
774.099
774.123
774.146
774.17
774.195
774.22
774.246
774.271
774.297
774.323
774.349
774.376
774.404
774.432
774.461
774.492
774.522
774.554
774.586
774.619
774.653
774.688
774.723
774.759
774.795
774.832
774.87
774.909
774.948
774.988
775.029
775.071
775.113
775.156
775.199
775.244
775.289
775.335
775.381
775.429
775.477
775.526
775.575
775.626
775.677
775.729
775.782
775.835
775.89
775.945
776.001
776.058
776.115
776.174
776.233
776.293
776.354
776.416
776.478
776.541
776.606
776.671
776.737
776.803
776.871
776.938
777.009
777.076
777.151
777.216
777.296
777.361
777.444
777.508
777.596
777.657
777.751
777.811
777.909
777.967
778.07
778.118
778.268
777.872
773.493
773.493
773.493
773.493
773.493
773.493
773.493
773.493
773.493
773.493
773.493
773.493
773.493
773.493
773.493
773.493
773.493
773.493
773.493
773.493
773.493
773.493
773.494
773.494
773.494
773.494
773.494
773.494
773.494
773.494
773.495
773.495
773.495
773.495
773.496
773.496
773.496
773.497
773.497
773.498
773.498
773.499
773.5
773.5
773.501
773.502
773.503
773.504
773.505
773.506
773.507
773.508
773.51
773.511
773.513
773.514
773.516
773.518
773.52
773.523
773.525
773.528
773.53
773.533
773.537
773.541
773.545
773.549
773.553
773.557
773.562
773.566
773.57
773.574
773.578
773.582
773.586
773.591
773.597
773.603
773.609
773.616
773.623
773.631
773.639
773.648
773.658
773.668
773.677
773.688
773.698
773.709
773.719
773.73
773.741
773.752
773.764
773.777
773.79
773.804
773.818
773.832
773.846
773.861
773.876
773.891
773.907
773.923
773.94
773.957
773.976
773.994
774.014
774.034
774.055
774.077
774.1
774.123
774.146
774.171
774.195
774.22
774.246
774.271
774.297
774.323
774.349
774.376
774.404
774.432
774.462
774.492
774.522
774.554
774.586
774.619
774.653
774.688
774.723
774.759
774.795
774.832
774.87
774.909
774.948
774.988
775.029
775.071
775.113
775.156
775.199
775.244
775.289
775.335
775.381
775.429
775.477
775.526
775.575
775.626
775.677
775.729
775.782
775.835
775.89
775.945
776.001
776.058
776.115
776.174
776.233
776.293
776.354
776.416
776.478
776.541
776.606
776.671
776.737
776.803
776.871
776.938
777.009
777.076
777.151
777.216
777.296
777.361
777.445
777.508
777.597
777.657
777.752
777.81
777.91
777.966
778.07
778.118
778.283
777.725
773.519
773.519
773.519
773.519
773.518
773.518
773.518
773.518
773.518
773.518
773.518
773.518
773.518
773.518
773.518
773.518
773.518
773.518
773.518
773.518
773.518
773.518
773.518
773.518
773.518
773.518
773.518
773.518
773.518
773.518
773.518
773.518
773.519
773.519
773.519
773.519
773.52
773.52
773.52
773.521
773.521
773.522
773.522
773.523
773.524
773.524
773.525
773.526
773.527
773.528
773.529
773.531
773.532
773.533
773.535
773.537
773.538
773.54
773.542
773.545
773.547
773.549
773.552
773.555
773.558
773.562
773.566
773.57
773.574
773.578
773.583
773.587
773.591
773.595
773.599
773.602
773.607
773.612
773.617
773.623
773.63
773.636
773.644
773.651
773.66
773.669
773.678
773.688
773.697
773.708
773.718
773.728
773.739
773.749
773.76
773.772
773.784
773.796
773.81
773.823
773.837
773.851
773.865
773.879
773.894
773.909
773.925
773.941
773.958
773.975
773.994
774.013
774.032
774.052
774.073
774.095
774.118
774.141
774.164
774.188
774.213
774.238
774.263
774.288
774.314
774.34
774.366
774.393
774.42
774.449
774.478
774.508
774.539
774.571
774.603
774.636
774.67
774.704
774.739
774.775
774.812
774.849
774.886
774.925
774.964
775.004
775.045
775.086
775.128
775.171
775.215
775.259
775.304
775.35
775.397
775.444
775.492
775.541
775.591
775.642
775.693
775.745
775.798
775.851
775.906
775.961
776.017
776.074
776.131
776.19
776.249
776.309
776.37
776.432
776.494
776.557
776.622
776.686
776.753
776.819
776.887
776.954
777.025
777.092
777.167
777.232
777.312
777.376
777.46
777.524
777.612
777.673
777.768
777.826
777.926
777.981
778.087
778.133
778.313
777.604
778.56
778.621
778.66
778.681
778.7
778.718
778.735
778.75
778.764
778.777
778.792
778.807
778.823
778.84
778.857
778.87
778.877
778.874
778.874
778.843
778.546
778.579
778.609
778.628
778.646
778.663
778.68
778.696
778.71
778.725
778.74
778.756
778.772
778.787
778.8
778.808
778.814
778.815
778.816
778.79
778.547
778.581
778.609
778.631
778.645
778.664
778.68
778.697
778.713
778.727
778.743
778.756
778.767
778.782
778.791
778.799
778.806
778.807
778.802
778.784
778.504
778.532
778.551
778.562
778.575
778.588
778.606
778.621
778.642
778.661
778.681
778.701
778.724
778.742
778.767
778.784
778.799
778.81
778.812
778.801
778.442
778.483
778.517
778.54
778.564
778.579
778.595
778.607
778.616
778.623
778.628
778.629
778.63
778.631
778.632
778.634
778.636
778.638
778.642
778.646
778.328
778.332
778.336
778.342
778.353
778.366
778.382
778.399
778.421
778.444
778.476
778.506
778.542
778.573
778.612
778.645
778.685
778.717
778.753
778.776
778.195
778.208
778.226
778.239
778.253
778.268
778.279
778.287
778.289
778.29
778.287
778.285
778.28
778.277
778.274
778.276
778.283
778.293
778.319
778.353
778.036
778.001
777.974
777.969
777.975
777.986
778.002
778.023
778.047
778.074
778.103
778.137
778.178
778.217
778.271
778.315
778.378
778.43
778.497
778.557
777.919
777.884
777.853
777.839
777.831
777.831
777.836
777.844
777.854
777.866
777.878
777.893
777.912
777.937
777.959
777.998
778.041
778.096
778.164
778.245
777.86
777.801
777.75
777.73
777.732
777.745
777.764
777.788
777.824
777.859
777.9
777.941
777.989
778.039
778.095
778.156
778.223
778.298
778.383
778.476
778.777
778.827
778.851
778.905
778.973
779.045
779.118
779.19
779.261
779.331
779.398
779.467
779.536
779.608
779.68
779.753
779.826
779.899
779.971
780.045
780.118
780.192
780.266
780.341
780.416
780.491
780.566
780.641
780.717
780.792
780.868
780.944
781.02
781.096
781.172
781.249
781.325
781.401
781.478
781.554
781.631
781.708
781.785
781.862
781.939
782.016
782.093
782.169
782.246
782.322
782.399
782.475
782.551
782.627
782.703
782.779
782.854
782.93
783.006
783.082
783.157
783.232
783.307
783.382
783.457
783.531
783.606
783.68
783.754
783.828
783.902
783.975
784.048
784.121
784.193
784.265
784.336
784.408
784.479
784.55
784.621
784.691
784.762
784.832
784.901
784.97
785.039
785.107
785.175
785.243
785.31
785.377
785.444
785.511
785.577
785.642
785.708
785.772
785.837
785.9
785.964
786.027
786.09
786.153
786.215
786.278
786.34
786.401
786.462
786.522
786.582
786.641
786.7
786.759
786.816
786.874
786.931
786.988
787.045
787.101
787.156
787.211
787.265
787.319
787.373
787.427
787.481
787.534
787.586
787.639
787.69
787.742
787.792
787.843
787.893
787.942
787.991
788.04
788.089
788.137
788.185
788.232
788.278
788.324
788.369
788.413
788.456
788.499
788.543
788.587
788.631
788.673
788.712
788.749
788.784
788.817
788.848
788.88
788.915
788.957
789.004
789.041
789.052
789.051
789.054
789.084
789.209
789.572
790.07
790.596
791.119
791.605
792.033
792.388
792.654
792.815
792.868
792.867
792.832
792.676
792.21
791.654
791.168
790.77
790.476
790.275
790.147
790.06
790.004
789.967
789.959
789.963
790.004
790.024
790.069
790.086
790.129
790.143
790.195
790.205
778.735
778.783
778.81
778.864
778.929
778.999
779.07
779.142
779.213
779.283
779.351
779.418
779.487
779.558
779.629
779.702
779.775
779.847
779.92
779.993
780.066
780.14
780.214
780.289
780.364
780.438
780.514
780.589
780.664
780.74
780.815
780.891
780.967
781.043
781.119
781.196
781.272
781.349
781.425
781.502
781.578
781.655
781.731
781.808
781.885
781.962
782.039
782.116
782.192
782.269
782.345
782.421
782.497
782.573
782.649
782.725
782.801
782.876
782.952
783.027
783.103
783.178
783.253
783.328
783.403
783.477
783.551
783.625
783.699
783.773
783.847
783.92
783.994
784.066
784.139
784.211
784.283
784.354
784.424
784.495
784.566
784.636
784.706
784.776
784.846
784.915
784.984
785.053
785.121
785.188
785.256
785.322
785.389
785.455
785.521
785.587
785.652
785.717
785.782
785.846
785.909
785.972
786.035
786.097
786.159
786.221
786.283
786.344
786.406
786.466
786.526
786.586
786.645
786.703
786.761
786.819
786.876
786.932
786.989
787.045
787.1
787.156
787.21
787.264
787.318
787.371
787.424
787.477
787.53
787.582
787.634
787.686
787.737
787.787
787.837
787.887
787.936
787.985
788.033
788.081
788.129
788.177
788.224
788.27
788.316
788.361
788.405
788.45
788.494
788.536
788.58
788.622
788.662
788.702
788.742
788.778
788.814
788.852
788.894
788.936
788.977
789.015
789.048
789.065
789.064
789.062
789.068
789.083
789.083
789.074
789.063
789.063
789.089
789.174
789.299
789.447
789.605
789.756
789.897
790.018
790.108
790.168
790.178
790.169
790.146
790.103
790.06
790.018
789.99
789.972
789.973
789.98
790.009
790.023
790.061
790.076
790.116
790.131
790.175
790.195
778.744
778.788
778.818
778.874
778.938
779.008
779.08
779.152
779.223
779.292
779.359
779.427
779.497
779.568
779.641
779.713
779.785
779.858
779.93
780.003
780.077
780.151
780.225
780.299
780.374
780.449
780.524
780.599
780.675
780.75
780.826
780.902
780.978
781.054
781.13
781.206
781.283
781.359
781.436
781.512
781.589
781.665
781.742
781.819
781.895
781.972
782.049
782.126
782.203
782.279
782.356
782.432
782.508
782.584
782.66
782.736
782.811
782.887
782.962
783.038
783.113
783.189
783.264
783.339
783.413
783.488
783.562
783.636
783.71
783.784
783.857
783.931
784.004
784.077
784.149
784.221
784.293
784.364
784.435
784.506
784.576
784.647
784.717
784.787
784.856
784.926
784.995
785.063
785.131
785.199
785.266
785.333
785.399
785.466
785.532
785.597
785.663
785.728
785.792
785.856
785.92
785.983
786.045
786.108
786.17
786.232
786.293
786.355
786.416
786.476
786.537
786.596
786.655
786.713
786.771
786.829
786.886
786.943
786.999
787.055
787.111
787.166
787.22
787.274
787.328
787.381
787.434
787.487
787.539
787.592
787.644
787.695
787.746
787.796
787.847
787.896
787.945
787.994
788.042
788.09
788.138
788.185
788.232
788.279
788.325
788.37
788.414
788.459
788.503
788.547
788.59
788.632
788.674
788.714
788.751
788.788
788.827
788.863
788.902
788.949
788.994
789.031
789.061
789.077
789.072
789.058
789.041
789.031
789.026
789.02
789.014
789.013
789.026
789.062
789.14
789.22
789.333
789.432
789.55
789.639
789.741
789.801
789.872
789.9
789.934
789.939
789.951
789.949
789.957
789.959
789.977
789.985
790.015
790.028
790.065
790.079
790.119
790.133
790.175
790.191
778.808
778.837
778.888
778.965
779.034
779.1
779.169
779.241
779.315
779.389
779.463
779.535
779.606
779.677
779.748
779.82
779.892
779.965
780.039
780.113
780.187
780.261
780.335
780.41
780.485
780.56
780.635
780.71
780.786
780.861
780.937
781.013
781.089
781.165
781.241
781.318
781.394
781.47
781.547
781.623
781.7
781.776
781.853
781.93
782.007
782.084
782.161
782.238
782.314
782.391
782.467
782.544
782.62
782.696
782.772
782.847
782.923
782.998
783.074
783.15
783.225
783.3
783.375
783.45
783.525
783.599
783.673
783.748
783.822
783.896
783.969
784.043
784.116
784.189
784.261
784.333
784.404
784.476
784.547
784.617
784.688
784.758
784.829
784.899
784.968
785.038
785.107
785.175
785.243
785.311
785.378
785.445
785.511
785.578
785.644
785.709
785.774
785.839
785.903
785.967
786.031
786.094
786.157
786.22
786.282
786.344
786.406
786.467
786.528
786.588
786.648
786.708
786.766
786.825
786.883
786.94
786.998
787.054
787.111
787.166
787.222
787.277
787.331
787.386
787.44
787.494
787.547
787.6
787.653
787.705
787.756
787.807
787.858
787.908
787.958
788.008
788.057
788.106
788.154
788.202
788.249
788.296
788.341
788.385
788.431
788.476
788.52
788.565
788.608
788.648
788.687
788.725
788.762
788.797
788.835
788.876
788.916
788.957
788.997
789.032
789.058
789.075
789.086
789.097
789.109
789.125
789.141
789.157
789.174
789.196
789.227
789.262
789.313
789.358
789.419
789.468
789.527
789.575
789.626
789.669
789.71
789.742
789.777
789.795
789.831
789.841
789.873
789.886
789.919
789.932
789.968
789.982
790.021
790.036
790.075
790.089
790.128
790.143
790.176
790.198
778.697
778.724
778.778
778.843
778.908
778.977
779.047
779.118
779.188
779.258
779.328
779.399
779.471
779.543
779.616
779.688
779.761
779.833
779.906
779.979
780.052
780.126
780.2
780.274
780.349
780.424
780.499
780.574
780.649
780.725
780.801
780.876
780.952
781.029
781.105
781.181
781.257
781.334
781.41
781.487
781.564
781.64
781.717
781.793
781.87
781.947
782.023
782.1
782.177
782.253
782.33
782.406
782.483
782.559
782.635
782.711
782.787
782.863
782.938
783.014
783.089
783.164
783.239
783.314
783.388
783.463
783.537
783.611
783.685
783.758
783.832
783.905
783.978
784.05
784.123
784.195
784.267
784.339
784.41
784.481
784.552
784.622
784.692
784.762
784.831
784.9
784.969
785.038
785.106
785.174
785.241
785.308
785.375
785.442
785.507
785.573
785.638
785.703
785.767
785.831
785.895
785.959
786.022
786.084
786.146
786.208
786.269
786.33
786.39
786.45
786.51
786.57
786.629
786.687
786.746
786.804
786.861
786.918
786.975
787.031
787.087
787.142
787.197
787.251
787.305
787.358
787.412
787.464
787.517
787.569
787.621
787.672
787.723
787.774
787.824
787.874
787.924
787.973
788.021
788.069
788.117
788.165
788.213
788.259
788.306
788.352
788.397
788.442
788.486
788.531
788.575
788.619
788.663
788.705
788.748
788.789
788.829
788.868
788.906
788.946
788.987
789.027
789.066
789.101
789.134
789.164
789.192
789.219
789.246
789.274
789.303
789.337
789.369
789.409
789.442
789.486
789.519
789.56
789.596
789.63
789.668
789.696
789.733
789.758
789.793
789.82
789.849
789.881
789.903
789.941
789.959
789.994
790.019
790.045
790.075
790.1
790.126
790.152
790.18
790.202
778.848
778.939
779.029
779.117
779.202
779.283
779.363
779.442
779.519
779.597
779.673
779.749
779.825
779.899
779.974
780.048
780.121
780.195
780.269
780.343
780.417
780.491
780.565
780.64
780.715
780.79
780.865
780.94
781.016
781.091
781.167
781.243
781.319
781.395
781.471
781.548
781.624
781.701
781.777
781.854
781.93
782.007
782.084
782.161
782.238
782.315
782.392
782.469
782.546
782.622
782.698
782.774
782.85
782.926
783.002
783.078
783.153
783.229
783.305
783.38
783.455
783.53
783.605
783.68
783.755
783.83
783.904
783.979
784.053
784.127
784.201
784.274
784.346
784.419
784.49
784.562
784.634
784.705
784.777
784.848
784.919
784.989
785.059
785.128
785.197
785.266
785.335
785.403
785.47
785.538
785.605
785.672
785.739
785.805
785.87
785.936
786
786.065
786.13
786.194
786.258
786.322
786.385
786.448
786.51
786.572
786.633
786.694
786.755
786.814
786.874
786.933
786.992
787.05
787.108
787.165
787.221
787.277
787.332
787.387
787.442
787.496
787.55
787.603
787.656
787.708
787.759
787.81
787.86
787.91
787.958
788.006
788.053
788.099
788.144
788.19
788.235
788.279
788.324
788.368
788.411
788.453
788.493
788.532
788.569
788.606
788.641
788.676
788.711
788.748
788.787
788.827
788.868
788.908
788.946
788.98
789.009
789.032
789.051
789.067
789.081
789.092
789.103
789.116
789.131
789.15
789.17
789.193
789.215
789.242
789.266
789.299
789.326
789.367
789.4
789.448
789.484
789.536
789.571
789.623
789.654
789.704
789.728
789.777
789.796
789.842
789.858
789.901
789.916
789.957
789.972
790.011
790.026
790.064
790.078
790.115
790.129
790.165
790.179
790.214
778.47
778.554
778.621
778.686
778.752
778.82
778.888
778.956
779.025
779.095
779.164
779.235
779.306
779.377
779.449
779.521
779.594
779.666
779.74
779.813
779.886
779.96
780.034
780.107
780.182
780.256
780.331
780.406
780.481
780.557
780.632
780.708
780.784
780.86
780.936
781.012
781.089
781.165
781.242
781.318
781.395
781.471
781.548
781.625
781.701
781.778
781.855
781.931
782.008
782.084
782.161
782.237
782.313
782.389
782.465
782.541
782.618
782.694
782.769
782.845
782.921
782.996
783.071
783.145
783.22
783.294
783.368
783.442
783.516
783.59
783.663
783.736
783.809
783.882
783.954
784.027
784.099
784.17
784.241
784.312
784.383
784.453
784.524
784.594
784.663
784.733
784.802
784.871
784.939
785.007
785.075
785.142
785.208
785.274
785.34
785.406
785.472
785.537
785.602
785.667
785.731
785.794
785.857
785.92
785.982
786.044
786.105
786.166
786.226
786.287
786.346
786.406
786.465
786.524
786.582
786.64
786.697
786.754
786.81
786.866
786.921
786.976
787.031
787.085
787.139
787.193
787.246
787.299
787.352
787.404
787.455
787.507
787.557
787.607
787.657
787.707
787.756
787.805
787.853
787.901
787.949
787.996
788.043
788.089
788.134
788.179
788.223
788.268
788.311
788.354
788.397
788.44
788.484
788.528
788.571
788.611
788.651
788.693
788.737
788.778
788.818
788.859
788.899
788.937
788.974
789.017
789.063
789.111
789.155
789.202
789.239
789.278
789.298
789.318
789.323
789.34
789.357
789.398
789.436
789.499
789.545
789.612
789.653
789.716
789.747
789.805
789.828
789.88
789.899
789.945
789.962
790.005
790.02
790.061
790.075
790.113
790.128
790.16
790.183
790.21
778.76
778.873
778.968
779.058
779.145
779.23
779.314
779.397
779.48
779.562
779.643
779.723
779.802
779.88
779.957
780.033
780.109
780.184
780.258
780.333
780.407
780.481
780.556
780.63
780.705
780.78
780.855
780.93
781.006
781.081
781.157
781.233
781.309
781.385
781.462
781.538
781.614
781.691
781.767
781.844
781.92
781.997
782.073
782.15
782.227
782.304
782.381
782.458
782.535
782.612
782.689
782.765
782.84
782.916
782.992
783.067
783.143
783.219
783.294
783.37
783.445
783.52
783.594
783.669
783.743
783.818
783.892
783.967
784.042
784.116
784.19
784.263
784.335
784.407
784.478
784.55
784.62
784.691
784.762
784.832
784.903
784.972
785.041
785.11
785.178
785.245
785.312
785.379