/*--------------------------------*- C++ -*----------------------------------*\
| =========                 |                                                 |
| \\      /  F ield         | OpenFOAM: The Open Source CFD Toolbox           |
|  \\    /   O peration     | Version:  3.0.x                                 |
|   \\  /    A nd           | Web:      www.OpenFOAM.org                      |
|    \\/     M anipulation  |                                                 |
\*---------------------------------------------------------------------------*/
FoamFile
{
    version     2.0;
    format      ascii;
    class       volVectorField;
    location    "0.49005";
    object      U;
}
// * * * * * * * * * * * * * * * * * * * * * * * * * * * * * * * * * * * * * //

dimensions      [0 1 -1 0 0 0 0];

internalField   nonuniform List<vector> 
13800
(
(76.1961 0.000140783 0)
(76.1921 0.000123405 0)
(76.1879 0.00012151 0)
(76.1838 0.000124007 0)
(76.1796 0.000125939 0)
(76.1755 0.000127503 0)
(76.1714 0.000128821 0)
(76.1672 0.000129917 0)
(76.1631 0.000130829 0)
(76.1589 0.000131594 0)
(76.1548 0.00013224 0)
(76.1506 0.000132789 0)
(76.1464 0.000133257 0)
(76.1422 0.000133659 0)
(76.138 0.000134007 0)
(76.1338 0.000134306 0)
(76.1296 0.000134566 0)
(76.1253 0.000134792 0)
(76.121 0.000134989 0)
(76.1167 0.000135161 0)
(76.1124 0.000135311 0)
(76.108 0.000135443 0)
(76.1036 0.000135564 0)
(76.0991 0.000135658 0)
(76.0947 0.000135745 0)
(76.0901 0.000135827 0)
(76.0855 0.000135894 0)
(76.0809 0.000135954 0)
(76.0761 0.000136006 0)
(76.0713 0.000136051 0)
(76.0664 0.000136091 0)
(76.0615 0.000136126 0)
(76.0564 0.000136156 0)
(76.0512 0.000136182 0)
(76.0459 0.000136204 0)
(76.0404 0.000136223 0)
(76.0349 0.00013624 0)
(76.0291 0.000136254 0)
(76.0232 0.000136266 0)
(76.0171 0.000136276 0)
(76.0109 0.000136285 0)
(76.0044 0.000136292 0)
(75.9977 0.000136298 0)
(75.9907 0.000136303 0)
(75.9836 0.000136307 0)
(75.9761 0.000136311 0)
(75.9683 0.000136313 0)
(75.9602 0.000136316 0)
(75.9518 0.000136317 0)
(75.9431 0.000136319 0)
(75.9339 0.00013632 0)
(75.9244 0.000136322 0)
(75.9144 0.000136323 0)
(75.904 0.000136324 0)
(75.8932 0.000136326 0)
(75.8818 0.000136327 0)
(75.8699 0.00013633 0)
(75.8575 0.000136332 0)
(75.8445 0.000136335 0)
(75.8309 0.000136339 0)
(75.8167 0.000136344 0)
(75.8018 0.00013635 0)
(75.7862 0.000136357 0)
(75.7699 0.000136366 0)
(75.7528 0.000136375 0)
(75.735 0.000136387 0)
(75.7164 0.0001364 0)
(75.6969 0.000136415 0)
(75.6765 0.000136431 0)
(75.6553 0.000136449 0)
(75.6331 0.000136469 0)
(75.6099 0.000136491 0)
(75.5857 0.000136516 0)
(75.5605 0.000136543 0)
(75.5343 0.000136571 0)
(75.5069 0.000136601 0)
(75.4784 0.000136634 0)
(75.4488 0.000136668 0)
(75.4179 0.000136704 0)
(75.3859 0.000136741 0)
(75.3525 0.00013678 0)
(75.3179 0.000136821 0)
(75.282 0.000136864 0)
(75.2447 0.000136907 0)
(75.2061 0.000136951 0)
(75.166 0.000136997 0)
(75.1245 0.000137044 0)
(75.0815 0.000137094 0)
(75.0371 0.000137145 0)
(74.9911 0.000137198 0)
(74.9435 0.000137253 0)
(74.8944 0.000137311 0)
(74.8436 0.000137371 0)
(74.7913 0.000137436 0)
(74.7372 0.000137504 0)
(74.6815 0.000137574 0)
(74.624 0.000137646 0)
(74.5648 0.000137719 0)
(74.5038 0.000137794 0)
(74.4411 0.000137871 0)
(74.3765 0.000137952 0)
(74.31 0.000138036 0)
(74.2417 0.000138123 0)
(74.1715 0.000138213 0)
(74.0993 0.000138304 0)
(74.0252 0.000138396 0)
(73.9491 0.00013849 0)
(73.871 0.000138585 0)
(73.7909 0.00013868 0)
(73.7088 0.000138773 0)
(73.6245 0.000138864 0)
(73.5382 0.000138953 0)
(73.4497 0.000139037 0)
(73.359 0.000139113 0)
(73.2662 0.000139177 0)
(73.1712 0.000139226 0)
(73.0739 0.000139259 0)
(72.9744 0.000139273 0)
(72.8726 0.000139261 0)
(72.7686 0.000139215 0)
(72.6621 0.000139128 0)
(72.5534 0.000138993 0)
(72.4422 0.000138804 0)
(72.3287 0.000138553 0)
(72.2127 0.000138228 0)
(72.0943 0.000137817 0)
(71.9734 0.000137305 0)
(71.85 0.00013668 0)
(71.7242 0.000135926 0)
(71.5958 0.00013503 0)
(71.4648 0.000133977 0)
(71.3312 0.000132755 0)
(71.1951 0.000131351 0)
(71.0564 0.000129754 0)
(70.915 0.000127954 0)
(70.771 0.000125943 0)
(70.6243 0.000123714 0)
(70.4749 0.000121263 0)
(70.3228 0.000118591 0)
(70.1679 0.000115701 0)
(70.0104 0.000112598 0)
(69.85 0.000109291 0)
(69.6869 0.000105793 0)
(69.5209 0.000102119 0)
(69.3522 9.82882e-05 0)
(69.1805 9.43213e-05 0)
(69.006 9.02422e-05 0)
(68.8286 8.60765e-05 0)
(68.6483 8.18515e-05 0)
(68.4651 7.75949e-05 0)
(68.2789 7.33358e-05 0)
(68.0896 6.91024e-05 0)
(67.8974 6.49229e-05 0)
(67.7022 6.0824e-05 0)
(67.5039 5.68305e-05 0)
(67.3025 5.2966e-05 0)
(67.098 4.92505e-05 0)
(66.8903 4.57027e-05 0)
(66.6795 4.23372e-05 0)
(66.4656 3.91661e-05 0)
(66.2484 3.61979e-05 0)
(66.028 3.34388e-05 0)
(65.8044 3.08904e-05 0)
(65.5774 2.8554e-05 0)
(65.3472 2.64258e-05 0)
(65.1137 2.45019e-05 0)
(64.8769 2.27743e-05 0)
(64.6367 2.1235e-05 0)
(64.3932 1.98731e-05 0)
(64.1463 1.86786e-05 0)
(63.896 1.76385e-05 0)
(63.6423 1.67422e-05 0)
(63.3852 1.59757e-05 0)
(63.1247 1.53285e-05 0)
(62.8608 1.47865e-05 0)
(62.5934 1.43413e-05 0)
(62.3226 1.39772e-05 0)
(62.0484 1.36922e-05 0)
(61.7708 1.3464e-05 0)
(61.4897 1.33025e-05 0)
(61.2052 1.31793e-05 0)
(60.9173 1.31006e-05 0)
(60.626 1.3075e-05 0)
(60.3313 1.30255e-05 0)
(60.0332 1.30987e-05 0)
(59.7317 1.30481e-05 0)
(59.4268 1.31965e-05 0)
(59.1186 1.31405e-05 0)
(58.8071 1.33757e-05 0)
(58.4922 1.32459e-05 0)
(58.1741 1.37448e-05 0)
(57.8526 1.38584e-05 0)
(57.5279 1.66096e-05 0)
(57.1997 2.67426e-05 0)
(56.8669 7.94578e-05 0)
(56.5238 0.000327695 0)
(56.1449 0.00150843 0)
(55.6067 0.00706649 0)
(54.6798 0.0375248 0)
(48.3761 0.140998 0)
(76.2 0.000221885 0)
(76.1998 0.000163935 0)
(76.1996 0.000149109 0)
(76.1993 0.000147937 0)
(76.1991 0.000146264 0)
(76.1989 0.000144755 0)
(76.1986 0.000143624 0)
(76.1984 0.000142714 0)
(76.1981 0.000141955 0)
(76.1979 0.000141315 0)
(76.1976 0.000140773 0)
(76.1973 0.00014031 0)
(76.197 0.000139913 0)
(76.1967 0.00013956 0)
(76.1964 0.000139273 0)
(76.1961 0.000139009 0)
(76.1957 0.000138782 0)
(76.1954 0.000138584 0)
(76.195 0.00013841 0)
(76.1945 0.000138257 0)
(76.1941 0.000138123 0)
(76.1936 0.000138005 0)
(76.1931 0.000137912 0)
(76.1925 0.000137806 0)
(76.1919 0.000137722 0)
(76.1913 0.000137658 0)
(76.1906 0.000137595 0)
(76.1898 0.000137539 0)
(76.189 0.000137491 0)
(76.1881 0.000137449 0)
(76.1871 0.000137412 0)
(76.186 0.00013738 0)
(76.1848 0.000137352 0)
(76.1835 0.000137328 0)
(76.182 0.000137308 0)
(76.1805 0.000137291 0)
(76.1788 0.000137277 0)
(76.1769 0.000137266 0)
(76.1749 0.000137257 0)
(76.1727 0.000137251 0)
(76.1704 0.000137247 0)
(76.1678 0.000137245 0)
(76.1649 0.000137245 0)
(76.1619 0.000137247 0)
(76.1586 0.00013725 0)
(76.155 0.000137255 0)
(76.1511 0.000137262 0)
(76.1469 0.00013727 0)
(76.1424 0.000137279 0)
(76.1375 0.00013729 0)
(76.1322 0.000137302 0)
(76.1266 0.000137316 0)
(76.1205 0.000137331 0)
(76.114 0.000137347 0)
(76.107 0.000137365 0)
(76.0996 0.000137384 0)
(76.0916 0.000137405 0)
(76.083 0.000137427 0)
(76.0739 0.000137452 0)
(76.0642 0.000137477 0)
(76.0538 0.000137505 0)
(76.0428 0.000137536 0)
(76.0311 0.000137568 0)
(76.0187 0.000137603 0)
(76.0055 0.000137639 0)
(75.9916 0.000137678 0)
(75.9768 0.00013772 0)
(75.9612 0.000137765 0)
(75.9447 0.000137813 0)
(75.9274 0.000137863 0)
(75.9091 0.000137916 0)
(75.8898 0.000137971 0)
(75.8695 0.000138029 0)
(75.8482 0.000138092 0)
(75.8258 0.000138157 0)
(75.8023 0.000138227 0)
(75.7777 0.000138299 0)
(75.752 0.000138374 0)
(75.725 0.000138451 0)
(75.6968 0.000138531 0)
(75.6674 0.000138613 0)
(75.6367 0.000138699 0)
(75.6047 0.000138786 0)
(75.5713 0.000138876 0)
(75.5365 0.000138967 0)
(75.5004 0.00013906 0)
(75.4628 0.000139156 0)
(75.4237 0.000139256 0)
(75.3831 0.000139359 0)
(75.341 0.000139464 0)
(75.2974 0.000139571 0)
(75.2522 0.000139682 0)
(75.2053 0.000139798 0)
(75.1568 0.00013992 0)
(75.1067 0.000140046 0)
(75.0549 0.000140177 0)
(75.0013 0.00014031 0)
(74.946 0.000140443 0)
(74.889 0.000140579 0)
(74.8301 0.000140717 0)
(74.7694 0.000140862 0)
(74.7069 0.000141011 0)
(74.6425 0.000141164 0)
(74.5762 0.000141322 0)
(74.508 0.000141481 0)
(74.4378 0.000141643 0)
(74.3657 0.000141807 0)
(74.2915 0.000141974 0)
(74.2153 0.00014214 0)
(74.1371 0.000142305 0)
(74.0568 0.000142468 0)
(73.9744 0.000142631 0)
(73.8898 0.000142787 0)
(73.8031 0.000142935 0)
(73.7143 0.000143069 0)
(73.6232 0.000143185 0)
(73.5299 0.000143283 0)
(73.4343 0.000143361 0)
(73.3365 0.00014341 0)
(73.2363 0.000143421 0)
(73.1338 0.000143385 0)
(73.029 0.000143294 0)
(72.9218 0.000143144 0)
(72.8122 0.000142925 0)
(72.7001 0.000142627 0)
(72.5856 0.000142234 0)
(72.4686 0.000141731 0)
(72.3491 0.000141101 0)
(72.2271 0.00014033 0)
(72.1025 0.000139403 0)
(71.9753 0.000138305 0)
(71.8456 0.000137023 0)
(71.7132 0.000135546 0)
(71.5781 0.000133862 0)
(71.4403 0.000131962 0)
(71.2999 0.000129839 0)
(71.1567 0.000127486 0)
(71.0108 0.000124902 0)
(70.862 0.00012209 0)
(70.7105 0.000119054 0)
(70.5561 0.000115802 0)
(70.3989 0.000112346 0)
(70.2388 0.000108701 0)
(70.0757 0.000104884 0)
(69.9097 0.000100917 0)
(69.7408 9.6824e-05 0)
(69.5689 9.26301e-05 0)
(69.3939 8.83629e-05 0)
(69.2159 8.40515e-05 0)
(69.0349 7.9724e-05 0)
(68.8507 7.54116e-05 0)
(68.6635 7.11417e-05 0)
(68.4731 6.69433e-05 0)
(68.2795 6.28428e-05 0)
(68.0828 5.8863e-05 0)
(67.8829 5.50285e-05 0)
(67.6797 5.13558e-05 0)
(67.4733 4.78635e-05 0)
(67.2637 4.45637e-05 0)
(67.0508 4.14671e-05 0)
(66.8346 3.85793e-05 0)
(66.615 3.59063e-05 0)
(66.3922 3.3445e-05 0)
(66.166 3.11988e-05 0)
(65.9364 2.91589e-05 0)
(65.7035 2.73233e-05 0)
(65.4672 2.56805e-05 0)
(65.2275 2.42243e-05 0)
(64.9844 2.29406e-05 0)
(64.7379 2.18223e-05 0)
(64.4879 2.08532e-05 0)
(64.2346 2.00263e-05 0)
(63.9778 1.93242e-05 0)
(63.7176 1.874e-05 0)
(63.4539 1.82565e-05 0)
(63.1868 1.78687e-05 0)
(62.9162 1.75577e-05 0)
(62.6422 1.73258e-05 0)
(62.3648 1.71455e-05 0)
(62.0839 1.70296e-05 0)
(61.7996 1.69648e-05 0)
(61.5119 1.68907e-05 0)
(61.2207 1.69903e-05 0)
(60.9262 1.68364e-05 0)
(60.6282 1.71533e-05 0)
(60.3269 1.68809e-05 0)
(60.0222 1.73612e-05 0)
(59.7141 1.70002e-05 0)
(59.4027 1.77246e-05 0)
(59.088 1.70606e-05 0)
(58.7701 1.87e-05 0)
(58.4488 1.89777e-05 0)
(58.1243 2.8703e-05 0)
(57.7962 6.39397e-05 0)
(57.4635 0.000244264 0)
(57.1206 0.00108964 0)
(56.7419 0.0051101 0)
(56.2044 0.0239983 0)
(55.2732 0.124093 0)
(49.2976 0.439668 0)
(76.2 0.00016354 0)
(76.1998 0.000115796 0)
(76.1996 0.000105374 0)
(76.1993 0.000109953 0)
(76.1991 0.000111369 0)
(76.1989 0.000111806 0)
(76.1986 0.000112212 0)
(76.1984 0.000112558 0)
(76.1981 0.000112839 0)
(76.1979 0.000113074 0)
(76.1976 0.000113275 0)
(76.1973 0.00011345 0)
(76.197 0.000113609 0)
(76.1967 0.000113719 0)
(76.1964 0.000113862 0)
(76.1961 0.000113959 0)
(76.1957 0.000114051 0)
(76.1954 0.000114134 0)
(76.195 0.000114209 0)
(76.1946 0.000114276 0)
(76.1941 0.000114337 0)
(76.1937 0.000114392 0)
(76.1931 0.000114451 0)
(76.1926 0.000114483 0)
(76.192 0.000114521 0)
(76.1914 0.000114565 0)
(76.1906 0.000114599 0)
(76.1899 0.000114631 0)
(76.189 0.00011466 0)
(76.1881 0.000114687 0)
(76.1871 0.000114712 0)
(76.1861 0.000114735 0)
(76.1849 0.000114757 0)
(76.1836 0.000114777 0)
(76.1822 0.000114797 0)
(76.1806 0.000114815 0)
(76.1789 0.000114833 0)
(76.1771 0.00011485 0)
(76.1751 0.000114867 0)
(76.1729 0.000114883 0)
(76.1705 0.000114899 0)
(76.1679 0.000114915 0)
(76.1651 0.000114931 0)
(76.1621 0.000114946 0)
(76.1588 0.000114962 0)
(76.1552 0.000114978 0)
(76.1513 0.000114994 0)
(76.1471 0.00011501 0)
(76.1426 0.000115026 0)
(76.1377 0.000115043 0)
(76.1325 0.00011506 0)
(76.1269 0.000115078 0)
(76.1208 0.000115096 0)
(76.1143 0.000115114 0)
(76.1073 0.000115134 0)
(76.0999 0.000115154 0)
(76.0919 0.000115174 0)
(76.0833 0.000115196 0)
(76.0742 0.000115219 0)
(76.0645 0.000115243 0)
(76.0542 0.000115268 0)
(76.0432 0.000115295 0)
(76.0315 0.000115324 0)
(76.0191 0.000115353 0)
(76.0059 0.000115385 0)
(75.992 0.000115418 0)
(75.9772 0.000115453 0)
(75.9617 0.00011549 0)
(75.9452 0.00011553 0)
(75.9278 0.000115571 0)
(75.9095 0.000115614 0)
(75.8903 0.000115658 0)
(75.87 0.000115705 0)
(75.8487 0.000115755 0)
(75.8263 0.000115808 0)
(75.8029 0.000115864 0)
(75.7783 0.000115921 0)
(75.7526 0.00011598 0)
(75.7256 0.000116041 0)
(75.6975 0.000116104 0)
(75.668 0.000116168 0)
(75.6373 0.000116235 0)
(75.6053 0.000116303 0)
(75.572 0.000116373 0)
(75.5372 0.000116444 0)
(75.5011 0.000116516 0)
(75.4635 0.000116591 0)
(75.4244 0.000116668 0)
(75.3839 0.000116746 0)
(75.3418 0.000116827 0)
(75.2982 0.00011691 0)
(75.253 0.000116995 0)
(75.2061 0.000117083 0)
(75.1577 0.000117176 0)
(75.1076 0.000117273 0)
(75.0558 0.000117372 0)
(75.0022 0.000117473 0)
(74.947 0.000117574 0)
(74.8899 0.000117677 0)
(74.8311 0.000117782 0)
(74.7704 0.000117891 0)
(74.7079 0.000118003 0)
(74.6435 0.000118118 0)
(74.5773 0.000118236 0)
(74.5091 0.000118356 0)
(74.4389 0.000118477 0)
(74.3668 0.0001186 0)
(74.2926 0.000118723 0)
(74.2165 0.000118846 0)
(74.1383 0.000118967 0)
(74.058 0.000119086 0)
(73.9756 0.000119204 0)
(73.8911 0.000119315 0)
(73.8044 0.000119419 0)
(73.7155 0.00011951 0)
(73.6245 0.000119585 0)
(73.5312 0.000119644 0)
(73.4357 0.000119684 0)
(73.3378 0.000119698 0)
(73.2377 0.000119678 0)
(73.1353 0.000119617 0)
(73.0304 0.000119508 0)
(72.9233 0.000119346 0)
(72.8137 0.000119123 0)
(72.7016 0.00011883 0)
(72.5871 0.000118454 0)
(72.4702 0.000117981 0)
(72.3507 0.000117399 0)
(72.2287 0.000116695 0)
(72.1041 0.000115855 0)
(71.9769 0.000114869 0)
(71.8472 0.000113725 0)
(71.7148 0.000112413 0)
(71.5797 0.000110924 0)
(71.442 0.000109252 0)
(71.3015 0.000107389 0)
(71.1583 0.000105333 0)
(71.0124 0.000103082 0)
(70.8636 0.000100639 0)
(70.7121 9.80081e-05 0)
(70.5577 9.51984e-05 0)
(70.4005 9.22195e-05 0)
(70.2403 8.90847e-05 0)
(70.0772 8.58109e-05 0)
(69.9112 8.24152e-05 0)
(69.7423 7.892e-05 0)
(69.5703 7.53465e-05 0)
(69.3953 7.17185e-05 0)
(69.2173 6.80616e-05 0)
(69.0362 6.4398e-05 0)
(68.852 6.07563e-05 0)
(68.6647 5.71577e-05 0)
(68.4743 5.36268e-05 0)
(68.2807 5.0187e-05 0)
(68.084 4.6854e-05 0)
(67.884 4.36517e-05 0)
(67.6808 4.05899e-05 0)
(67.4744 3.76861e-05 0)
(67.2647 3.49483e-05 0)
(67.0518 3.23857e-05 0)
(66.8355 3.00009e-05 0)
(66.616 2.78012e-05 0)
(66.3931 2.57783e-05 0)
(66.1669 2.39404e-05 0)
(65.9373 2.22737e-05 0)
(65.7043 2.07804e-05 0)
(65.468 1.94464e-05 0)
(65.2283 1.82697e-05 0)
(64.9852 1.72332e-05 0)
(64.7387 1.63359e-05 0)
(64.4887 1.5558e-05 0)
(64.2353 1.48985e-05 0)
(63.9785 1.43381e-05 0)
(63.7183 1.38739e-05 0)
(63.4546 1.349e-05 0)
(63.1875 1.3181e-05 0)
(62.9169 1.29372e-05 0)
(62.6429 1.27473e-05 0)
(62.3655 1.26135e-05 0)
(62.0846 1.24968e-05 0)
(61.8003 1.24946e-05 0)
(61.5126 1.2331e-05 0)
(61.2214 1.25902e-05 0)
(60.9269 1.21792e-05 0)
(60.6289 1.28086e-05 0)
(60.3276 1.21177e-05 0)
(60.0229 1.30102e-05 0)
(59.7148 1.21099e-05 0)
(59.4034 1.34666e-05 0)
(59.0887 1.1902e-05 0)
(58.7708 1.50668e-05 0)
(58.4495 1.5212e-05 0)
(58.125 3.42822e-05 0)
(57.7969 0.000103768 0)
(57.4643 0.000461164 0)
(57.1217 0.00213559 0)
(56.7444 0.0101077 0)
(56.2139 0.0475447 0)
(55.3099 0.244548 0)
(49.6622 0.850485 0)
(76.2 0.000118245 0)
(76.1998 0.00010506 0)
(76.1996 9.70491e-05 0)
(76.1993 0.000102755 0)
(76.1991 0.000105583 0)
(76.1988 0.000106876 0)
(76.1986 0.000107959 0)
(76.1983 0.000108892 0)
(76.1981 0.000109666 0)
(76.1978 0.000110317 0)
(76.1976 0.00011087 0)
(76.1973 0.000111343 0)
(76.197 0.000111758 0)
(76.1967 0.000112088 0)
(76.1964 0.000112411 0)
(76.1961 0.000112675 0)
(76.1957 0.000112905 0)
(76.1953 0.000113109 0)
(76.195 0.00011329 0)
(76.1945 0.000113449 0)
(76.1941 0.000113589 0)
(76.1936 0.000113714 0)
(76.1931 0.000113831 0)
(76.1926 0.000113921 0)
(76.192 0.000114007 0)
(76.1913 0.00011409 0)
(76.1906 0.00011416 0)
(76.1898 0.000114223 0)
(76.189 0.000114279 0)
(76.1881 0.00011433 0)
(76.1871 0.000114376 0)
(76.186 0.000114417 0)
(76.1848 0.000114454 0)
(76.1835 0.000114488 0)
(76.1821 0.000114519 0)
(76.1806 0.000114548 0)
(76.1789 0.000114574 0)
(76.177 0.000114598 0)
(76.175 0.00011462 0)
(76.1729 0.000114641 0)
(76.1705 0.000114661 0)
(76.1679 0.000114679 0)
(76.1651 0.000114697 0)
(76.162 0.000114714 0)
(76.1587 0.00011473 0)
(76.1551 0.000114745 0)
(76.1513 0.00011476 0)
(76.1471 0.000114775 0)
(76.1426 0.000114789 0)
(76.1377 0.000114803 0)
(76.1325 0.000114817 0)
(76.1268 0.000114831 0)
(76.1208 0.000114845 0)
(76.1143 0.000114859 0)
(76.1073 0.000114874 0)
(76.0998 0.000114889 0)
(76.0918 0.000114904 0)
(76.0833 0.000114919 0)
(76.0742 0.000114936 0)
(76.0645 0.000114953 0)
(76.0541 0.000114971 0)
(76.0431 0.00011499 0)
(76.0315 0.00011501 0)
(76.0191 0.000115032 0)
(76.0059 0.000115055 0)
(75.992 0.000115079 0)
(75.9772 0.000115105 0)
(75.9616 0.000115133 0)
(75.9452 0.000115163 0)
(75.9278 0.000115194 0)
(75.9095 0.000115227 0)
(75.8902 0.000115262 0)
(75.87 0.000115299 0)
(75.8487 0.000115338 0)
(75.8263 0.000115379 0)
(75.8029 0.000115423 0)
(75.7783 0.000115467 0)
(75.7525 0.000115514 0)
(75.7256 0.000115562 0)
(75.6974 0.000115612 0)
(75.668 0.000115662 0)
(75.6373 0.000115715 0)
(75.6053 0.000115769 0)
(75.5719 0.000115823 0)
(75.5372 0.000115879 0)
(75.501 0.000115936 0)
(75.4635 0.000115995 0)
(75.4244 0.000116056 0)
(75.3839 0.000116118 0)
(75.3418 0.000116181 0)
(75.2981 0.000116247 0)
(75.2529 0.000116315 0)
(75.2061 0.000116386 0)
(75.1577 0.00011646 0)
(75.1075 0.000116537 0)
(75.0557 0.000116617 0)
(75.0022 0.000116698 0)
(74.9469 0.00011678 0)
(74.8899 0.000116864 0)
(74.831 0.00011695 0)
(74.7704 0.00011704 0)
(74.7079 0.000117132 0)
(74.6435 0.000117226 0)
(74.5772 0.000117323 0)
(74.509 0.000117422 0)
(74.4389 0.000117522 0)
(74.3667 0.000117623 0)
(74.2926 0.000117725 0)
(74.2164 0.000117827 0)
(74.1382 0.000117927 0)
(74.0579 0.000118025 0)
(73.9756 0.000118122 0)
(73.891 0.000118214 0)
(73.8044 0.0001183 0)
(73.7155 0.000118375 0)
(73.6245 0.000118437 0)
(73.5312 0.000118484 0)
(73.4356 0.000118515 0)
(73.3378 0.000118523 0)
(73.2377 0.000118502 0)
(73.1352 0.000118445 0)
(73.0304 0.000118347 0)
(72.9232 0.000118201 0)
(72.8136 0.000118002 0)
(72.7016 0.000117738 0)
(72.5871 0.000117401 0)
(72.4701 0.000116976 0)
(72.3506 0.000116453 0)
(72.2286 0.000115819 0)
(72.1041 0.000115062 0)
(71.9769 0.00011417 0)
(71.8471 0.000113132 0)
(71.7147 0.000111938 0)
(71.5797 0.000110578 0)
(71.4419 0.000109044 0)
(71.3015 0.000107328 0)
(71.1583 0.000105427 0)
(71.0124 0.000103337 0)
(70.8636 0.000101058 0)
(70.7121 9.85939e-05 0)
(70.5577 9.59474e-05 0)
(70.4004 9.31311e-05 0)
(70.2403 9.01492e-05 0)
(70.0772 8.70231e-05 0)
(69.9112 8.3761e-05 0)
(69.7423 8.03883e-05 0)
(69.5703 7.69203e-05 0)
(69.3953 7.3382e-05 0)
(69.2173 6.97954e-05 0)
(69.0362 6.61842e-05 0)
(68.852 6.25733e-05 0)
(68.6647 5.89877e-05 0)
(68.4743 5.54478e-05 0)
(68.2807 5.19825e-05 0)
(68.084 4.8604e-05 0)
(67.884 4.53418e-05 0)
(67.6808 4.22033e-05 0)
(67.4744 3.92125e-05 0)
(67.2647 3.63738e-05 0)
(67.0518 3.37058e-05 0)
(66.8355 3.12037e-05 0)
(66.616 2.88894e-05 0)
(66.3931 2.67414e-05 0)
(66.1669 2.47874e-05 0)
(65.9373 2.29966e-05 0)
(65.7043 2.13903e-05 0)
(65.468 1.99399e-05 0)
(65.2283 1.866e-05 0)
(64.9852 1.75166e-05 0)
(64.7387 1.65304e-05 0)
(64.4887 1.56581e-05 0)
(64.2353 1.49234e-05 0)
(63.9785 1.42832e-05 0)
(63.7183 1.37579e-05 0)
(63.4546 1.33078e-05 0)
(63.1875 1.29539e-05 0)
(62.9169 1.26497e-05 0)
(62.6429 1.24383e-05 0)
(62.3655 1.22438e-05 0)
(62.0846 1.21033e-05 0)
(61.8003 1.21188e-05 0)
(61.5126 1.17395e-05 0)
(61.2214 1.24006e-05 0)
(60.9269 1.12498e-05 0)
(60.6289 1.29182e-05 0)
(60.3276 1.09768e-05 0)
(60.0229 1.33865e-05 0)
(59.7148 1.08723e-05 0)
(59.4034 1.43697e-05 0)
(59.0887 1.0463e-05 0)
(58.7708 1.82593e-05 0)
(58.4495 1.98695e-05 0)
(58.125 6.75191e-05 0)
(57.7969 0.000241385 0)
(57.4645 0.00114544 0)
(57.1229 0.00537758 0)
(56.7502 0.0254517 0)
(56.2443 0.118129 0)
(55.4181 0.553274 0)
(51.0793 1.90006 0)
(76.1999 3.58112e-05 0)
(76.1998 2.97905e-05 0)
(76.1995 1.92633e-05 0)
(76.1993 1.67139e-05 0)
(76.199 1.45142e-05 0)
(76.1988 1.22893e-05 0)
(76.1986 1.05075e-05 0)
(76.1983 9.07879e-06 0)
(76.1981 7.89277e-06 0)
(76.1978 6.8951e-06 0)
(76.1975 6.04898e-06 0)
(76.1973 5.32599e-06 0)
(76.197 4.70633e-06 0)
(76.1967 4.16256e-06 0)
(76.1964 3.69643e-06 0)
(76.196 3.29184e-06 0)
(76.1957 2.93323e-06 0)
(76.1953 2.61937e-06 0)
(76.1949 2.34403e-06 0)
(76.1945 2.10077e-06 0)
(76.1941 1.88591e-06 0)
(76.1936 1.69559e-06 0)
(76.1931 1.52872e-06 0)
(76.1925 1.3767e-06 0)
(76.1919 1.24269e-06 0)
(76.1913 1.12586e-06 0)
(76.1906 1.02065e-06 0)
(76.1898 9.26934e-07 0)
(76.189 8.43435e-07 0)
(76.1881 7.69086e-07 0)
(76.1871 7.02861e-07 0)
(76.186 6.43875e-07 0)
(76.1848 5.9139e-07 0)
(76.1835 5.44728e-07 0)
(76.1821 5.03287e-07 0)
(76.1806 4.66526e-07 0)
(76.1789 4.33947e-07 0)
(76.177 4.05128e-07 0)
(76.175 3.7969e-07 0)
(76.1728 3.57302e-07 0)
(76.1705 3.37646e-07 0)
(76.1679 3.2047e-07 0)
(76.1651 3.05522e-07 0)
(76.162 2.92595e-07 0)
(76.1587 2.81493e-07 0)
(76.1551 2.72054e-07 0)
(76.1513 2.64131e-07 0)
(76.1471 2.57588e-07 0)
(76.1426 2.52311e-07 0)
(76.1377 2.482e-07 0)
(76.1324 2.45161e-07 0)
(76.1268 2.43129e-07 0)
(76.1207 2.42029e-07 0)
(76.1142 2.41782e-07 0)
(76.1073 2.4233e-07 0)
(76.0998 2.43617e-07 0)
(76.0918 2.45623e-07 0)
(76.0833 2.48303e-07 0)
(76.0742 2.51658e-07 0)
(76.0645 2.55613e-07 0)
(76.0541 2.60191e-07 0)
(76.0431 2.6535e-07 0)
(76.0314 2.71033e-07 0)
(76.019 2.77094e-07 0)
(76.0059 2.83486e-07 0)
(75.9919 2.90262e-07 0)
(75.9772 2.97522e-07 0)
(75.9616 3.053e-07 0)
(75.9451 3.13532e-07 0)
(75.9278 3.22105e-07 0)
(75.9095 3.30913e-07 0)
(75.8902 3.39972e-07 0)
(75.8699 3.49415e-07 0)
(75.8486 3.59439e-07 0)
(75.8263 3.7014e-07 0)
(75.8028 3.81697e-07 0)
(75.7782 3.93722e-07 0)
(75.7525 4.06199e-07 0)
(75.7256 4.18974e-07 0)
(75.6974 4.32098e-07 0)
(75.668 4.45735e-07 0)
(75.6373 4.5998e-07 0)
(75.6053 4.74815e-07 0)
(75.5719 4.90043e-07 0)
(75.5372 5.05644e-07 0)
(75.501 5.21538e-07 0)
(75.4634 5.37987e-07 0)
(75.4244 5.55083e-07 0)
(75.3838 5.72612e-07 0)
(75.3418 5.90613e-07 0)
(75.2981 6.08976e-07 0)
(75.2529 6.27795e-07 0)
(75.2061 6.4726e-07 0)
(75.1576 6.67481e-07 0)
(75.1075 6.8846e-07 0)
(75.0557 7.10087e-07 0)
(75.0022 7.32028e-07 0)
(74.9469 7.53945e-07 0)
(74.8899 7.76051e-07 0)
(74.831 7.98311e-07 0)
(74.7704 8.21388e-07 0)
(74.7079 8.45051e-07 0)
(74.6435 8.69521e-07 0)
(74.5772 8.94777e-07 0)
(74.509 9.20392e-07 0)
(74.4388 9.46392e-07 0)
(74.3667 9.72935e-07 0)
(74.2926 9.99908e-07 0)
(74.2164 1.02699e-06 0)
(74.1382 1.05423e-06 0)
(74.0579 1.08153e-06 0)
(73.9755 1.10928e-06 0)
(73.891 1.13677e-06 0)
(73.8043 1.16386e-06 0)
(73.7155 1.18968e-06 0)
(73.6244 1.21412e-06 0)
(73.5311 1.23725e-06 0)
(73.4356 1.25939e-06 0)
(73.3378 1.27933e-06 0)
(73.2377 1.29668e-06 0)
(73.1352 1.31017e-06 0)
(73.0304 1.32027e-06 0)
(72.9232 1.32653e-06 0)
(72.8136 1.32931e-06 0)
(72.7016 1.32746e-06 0)
(72.5871 1.32065e-06 0)
(72.4701 1.30716e-06 0)
(72.3506 1.28684e-06 0)
(72.2286 1.25886e-06 0)
(72.104 1.22246e-06 0)
(71.9769 1.17833e-06 0)
(71.8471 1.12547e-06 0)
(71.7147 1.06493e-06 0)
(71.5797 9.96164e-07 0)
(71.4419 9.21341e-07 0)
(71.3015 8.38649e-07 0)
(71.1583 7.5223e-07 0)
(71.0123 6.60068e-07 0)
(70.8636 5.65837e-07 0)
(70.712 4.70284e-07 0)
(70.5577 3.73931e-07 0)
(70.4004 2.81759e-07 0)
(70.2403 1.90063e-07 0)
(70.0772 1.07268e-07 0)
(69.9112 2.86123e-08 0)
(69.7422 -3.96059e-08 0)
(69.5703 -9.82508e-08 0)
(69.3953 -1.46118e-07 0)
(69.2173 -1.80678e-07 0)
(69.0362 -2.03885e-07 0)
(68.852 -2.1272e-07 0)
(68.6647 -2.0814e-07 0)
(68.4743 -1.92105e-07 0)
(68.2807 -1.6034e-07 0)
(68.084 -1.20393e-07 0)
(67.884 -6.59151e-08 0)
(67.6808 -5.35513e-09 0)
(67.4744 6.7025e-08 0)
(67.2647 1.41994e-07 0)
(67.0518 2.28174e-07 0)
(66.8355 3.08657e-07 0)
(66.616 4.03354e-07 0)
(66.3931 4.84151e-07 0)
(66.1669 5.78147e-07 0)
(65.9373 6.57038e-07 0)
(65.7043 7.44724e-07 0)
(65.468 8.15898e-07 0)
(65.2283 8.97922e-07 0)
(64.9852 9.56428e-07 0)
(64.7387 1.03059e-06 0)
(64.4887 1.0801e-06 0)
(64.2353 1.13998e-06 0)
(63.9785 1.18957e-06 0)
(63.7183 1.22528e-06 0)
(63.4546 1.28856e-06 0)
(63.1875 1.28378e-06 0)
(62.9169 1.39079e-06 0)
(62.6429 1.28898e-06 0)
(62.3655 1.56216e-06 0)
(62.0846 1.11107e-06 0)
(61.8003 2.00376e-06 0)
(61.5126 5.19891e-07 0)
(61.2214 2.87741e-06 0)
(60.9269 -4.07831e-07 0)
(60.6289 3.72215e-06 0)
(60.3276 -1.22591e-06 0)
(60.0229 4.06955e-06 0)
(59.7148 -2.7145e-06 0)
(59.4034 6.95688e-06 0)
(59.0887 -6.30254e-06 0)
(58.7708 1.6278e-05 0)
(58.4495 1.95478e-06 0)
(58.125 9.89963e-05 0)
(57.7972 0.000373258 0)
(57.4658 0.00189428 0)
(57.1288 0.00892689 0)
(56.7772 0.0425069 0)
(56.3652 0.197902 0)
(55.8137 0.89757 0)
(52.9286 3.07554 0)
(76.1999 -3.58112e-05 0)
(76.1998 -2.97905e-05 0)
(76.1995 -1.92633e-05 0)
(76.1993 -1.67139e-05 0)
(76.199 -1.45142e-05 0)
(76.1988 -1.22893e-05 0)
(76.1986 -1.05075e-05 0)
(76.1983 -9.07879e-06 0)
(76.1981 -7.89277e-06 0)
(76.1978 -6.8951e-06 0)
(76.1975 -6.04898e-06 0)
(76.1973 -5.32599e-06 0)
(76.197 -4.70633e-06 0)
(76.1967 -4.16256e-06 0)
(76.1964 -3.69643e-06 0)
(76.196 -3.29184e-06 0)
(76.1957 -2.93322e-06 0)
(76.1953 -2.61937e-06 0)
(76.1949 -2.34403e-06 0)
(76.1945 -2.10077e-06 0)
(76.1941 -1.88591e-06 0)
(76.1936 -1.69559e-06 0)
(76.1931 -1.52872e-06 0)
(76.1925 -1.3767e-06 0)
(76.1919 -1.24269e-06 0)
(76.1913 -1.12586e-06 0)
(76.1906 -1.02065e-06 0)
(76.1898 -9.26935e-07 0)
(76.189 -8.43435e-07 0)
(76.1881 -7.69086e-07 0)
(76.1871 -7.0286e-07 0)
(76.186 -6.43876e-07 0)
(76.1848 -5.91391e-07 0)
(76.1835 -5.44729e-07 0)
(76.1821 -5.03287e-07 0)
(76.1806 -4.66527e-07 0)
(76.1789 -4.33948e-07 0)
(76.177 -4.05128e-07 0)
(76.175 -3.79691e-07 0)
(76.1728 -3.57302e-07 0)
(76.1705 -3.37646e-07 0)
(76.1679 -3.20469e-07 0)
(76.1651 -3.05523e-07 0)
(76.162 -2.92597e-07 0)
(76.1587 -2.81494e-07 0)
(76.1551 -2.72055e-07 0)
(76.1513 -2.64131e-07 0)
(76.1471 -2.57588e-07 0)
(76.1426 -2.52311e-07 0)
(76.1377 -2.482e-07 0)
(76.1324 -2.45161e-07 0)
(76.1268 -2.43128e-07 0)
(76.1207 -2.4203e-07 0)
(76.1142 -2.41784e-07 0)
(76.1073 -2.42331e-07 0)
(76.0998 -2.43618e-07 0)
(76.0918 -2.45623e-07 0)
(76.0833 -2.48304e-07 0)
(76.0742 -2.51659e-07 0)
(76.0645 -2.55613e-07 0)
(76.0541 -2.6019e-07 0)
(76.0431 -2.65349e-07 0)
(76.0314 -2.71033e-07 0)
(76.019 -2.77093e-07 0)
(76.0059 -2.83485e-07 0)
(75.9919 -2.90262e-07 0)
(75.9772 -2.97521e-07 0)
(75.9616 -3.053e-07 0)
(75.9451 -3.1353e-07 0)
(75.9278 -3.22103e-07 0)
(75.9095 -3.30912e-07 0)
(75.8902 -3.39972e-07 0)
(75.8699 -3.49416e-07 0)
(75.8486 -3.59439e-07 0)
(75.8263 -3.7014e-07 0)
(75.8028 -3.81696e-07 0)
(75.7782 -3.93721e-07 0)
(75.7525 -4.06198e-07 0)
(75.7256 -4.18973e-07 0)
(75.6974 -4.32099e-07 0)
(75.668 -4.45734e-07 0)
(75.6373 -4.59978e-07 0)
(75.6053 -4.74813e-07 0)
(75.5719 -4.90041e-07 0)
(75.5372 -5.05643e-07 0)
(75.501 -5.21537e-07 0)
(75.4634 -5.37985e-07 0)
(75.4244 -5.55082e-07 0)
(75.3838 -5.72613e-07 0)
(75.3418 -5.90613e-07 0)
(75.2981 -6.08976e-07 0)
(75.2529 -6.27796e-07 0)
(75.2061 -6.47262e-07 0)
(75.1576 -6.67483e-07 0)
(75.1075 -6.88462e-07 0)
(75.0557 -7.10088e-07 0)
(75.0022 -7.3203e-07 0)
(74.9469 -7.53946e-07 0)
(74.8899 -7.7605e-07 0)
(74.831 -7.98311e-07 0)
(74.7704 -8.21388e-07 0)
(74.7079 -8.45051e-07 0)
(74.6435 -8.69519e-07 0)
(74.5772 -8.94776e-07 0)
(74.509 -9.20392e-07 0)
(74.4388 -9.46393e-07 0)
(74.3667 -9.72936e-07 0)
(74.2926 -9.99908e-07 0)
(74.2164 -1.02699e-06 0)
(74.1382 -1.05423e-06 0)
(74.0579 -1.08153e-06 0)
(73.9755 -1.10928e-06 0)
(73.891 -1.13678e-06 0)
(73.8043 -1.16385e-06 0)
(73.7155 -1.1897e-06 0)
(73.6244 -1.21408e-06 0)
(73.5311 -1.23731e-06 0)
(73.4356 -1.25931e-06 0)
(73.3378 -1.27941e-06 0)
(73.2377 -1.29662e-06 0)
(73.1352 -1.31021e-06 0)
(73.0304 -1.32024e-06 0)
(72.9232 -1.32656e-06 0)
(72.8136 -1.32927e-06 0)
(72.7016 -1.32754e-06 0)
(72.5871 -1.32051e-06 0)
(72.4701 -1.30724e-06 0)
(72.3506 -1.28693e-06 0)
(72.2286 -1.25857e-06 0)
(72.104 -1.22282e-06 0)
(71.9769 -1.17802e-06 0)
(71.8471 -1.12576e-06 0)
(71.7147 -1.06451e-06 0)
(71.5797 -9.96924e-07 0)
(71.4419 -9.2016e-07 0)
(71.3015 -8.40061e-07 0)
(71.1583 -7.50772e-07 0)
(71.0123 -6.61455e-07 0)
(70.8636 -5.64555e-07 0)
(70.712 -4.71376e-07 0)
(70.5577 -3.73304e-07 0)
(70.4004 -2.81812e-07 0)
(70.2403 -1.90438e-07 0)
(70.0772 -1.06778e-07 0)
(69.9112 -2.88162e-08 0)
(69.7422 3.95241e-08 0)
(69.5703 9.85771e-08 0)
(69.3953 1.45446e-07 0)
(69.2173 1.81825e-07 0)
(69.0362 2.02487e-07 0)
(68.852 2.13733e-07 0)
(68.6647 2.07984e-07 0)
(68.4743 1.9131e-07 0)
(68.2807 1.61674e-07 0)
(68.084 1.18924e-07 0)
(67.884 6.74413e-08 0)
(67.6808 4.02417e-09 0)
(67.4744 -6.59647e-08 0)
(67.2647 -1.43713e-07 0)
(67.0518 -2.24943e-07 0)
(66.8355 -3.13524e-07 0)
(66.616 -3.97532e-07 0)
(66.3931 -4.89699e-07 0)
(66.1669 -5.73231e-07 0)
(65.9373 -6.61355e-07 0)
(65.7043 -7.40155e-07 0)
(65.468 -8.22232e-07 0)
(65.2283 -8.89797e-07 0)
(64.9852 -9.6524e-07 0)
(64.7387 -1.02251e-06 0)
(64.4887 -1.08673e-06 0)
(64.2353 -1.13715e-06 0)
(63.9785 -1.18479e-06 0)
(63.7183 -1.243e-06 0)
(63.4546 -1.2495e-06 0)
(63.1875 -1.3573e-06 0)
(62.9169 -1.26312e-06 0)
(62.6429 -1.51005e-06 0)
(62.3655 -1.16721e-06 0)
(62.0846 -1.83635e-06 0)
(61.8003 -7.09343e-07 0)
(61.5126 -2.71032e-06 0)
(61.2214 5.8297e-07 0)
(60.9269 -4.41744e-06 0)
(60.6289 3.11381e-06 0)
(60.3276 -6.68764e-06 0)
(60.0229 5.91069e-06 0)
(59.7148 -8.93734e-06 0)
(59.4034 8.29808e-06 0)
(59.0887 -1.15485e-05 0)
(58.7708 1.51397e-05 0)
(58.4495 -4.32801e-07 0)
(58.1251 9.66376e-05 0)
(57.7976 0.000371626 0)
(57.4673 0.00190483 0)
(57.1361 0.00906255 0)
(56.8113 0.0439249 0)
(56.5231 0.211426 0)
(56.3687 1.02283 0)
(56.6951 3.45804 0)
(76.2 -0.000118245 0)
(76.1998 -0.00010506 0)
(76.1996 -9.70491e-05 0)
(76.1993 -0.000102755 0)
(76.1991 -0.000105583 0)
(76.1988 -0.000106876 0)
(76.1986 -0.000107959 0)
(76.1983 -0.000108892 0)
(76.1981 -0.000109666 0)
(76.1978 -0.000110317 0)
(76.1976 -0.00011087 0)
(76.1973 -0.000111343 0)
(76.197 -0.000111758 0)
(76.1967 -0.000112088 0)
(76.1964 -0.000112411 0)
(76.1961 -0.000112675 0)
(76.1957 -0.000112905 0)
(76.1953 -0.000113109 0)
(76.195 -0.00011329 0)
(76.1945 -0.000113449 0)