/*--------------------------------*- C++ -*----------------------------------*\
| =========                 |                                                 |
| \\      /  F ield         | OpenFOAM: The Open Source CFD Toolbox           |
|  \\    /   O peration     | Version:  3.0.x                                 |
|   \\  /    A nd           | Web:      www.OpenFOAM.org                      |
|    \\/     M anipulation  |                                                 |
\*---------------------------------------------------------------------------*/
FoamFile
{
    version     2.0;
    format      ascii;
    class       volScalarField;
    location    "0.519925";
    object      p;
}
// * * * * * * * * * * * * * * * * * * * * * * * * * * * * * * * * * * * * * //

dimensions      [1 -1 -2 0 0 0 0];

internalField   nonuniform List<scalar> 
13800
(
1.81268e+07
1.81271e+07
1.81275e+07
1.8128e+07
1.81286e+07
1.81292e+07
1.81299e+07
1.81307e+07
1.81316e+07
1.81325e+07
1.81335e+07
1.81346e+07
1.81357e+07
1.8137e+07
1.81383e+07
1.81396e+07
1.81411e+07
1.81426e+07
1.81442e+07
1.81459e+07
1.81476e+07
1.81494e+07
1.81513e+07
1.81533e+07
1.81553e+07
1.81575e+07
1.81597e+07
1.81619e+07
1.81643e+07
1.81667e+07
1.81692e+07
1.81717e+07
1.81744e+07
1.81771e+07
1.81799e+07
1.81828e+07
1.81857e+07
1.81887e+07
1.81918e+07
1.8195e+07
1.81982e+07
1.82015e+07
1.82049e+07
1.82084e+07
1.82119e+07
1.82156e+07
1.82192e+07
1.8223e+07
1.82268e+07
1.82308e+07
1.82347e+07
1.82388e+07
1.82429e+07
1.82472e+07
1.82514e+07
1.82558e+07
1.82602e+07
1.82647e+07
1.82693e+07
1.8274e+07
1.82787e+07
1.82835e+07
1.82884e+07
1.82933e+07
1.82983e+07
1.83034e+07
1.83086e+07
1.83138e+07
1.83191e+07
1.83245e+07
1.83299e+07
1.83354e+07
1.8341e+07
1.83467e+07
1.83524e+07
1.83582e+07
1.83641e+07
1.837e+07
1.8376e+07
1.83821e+07
1.83883e+07
1.83945e+07
1.84008e+07
1.84071e+07
1.84136e+07
1.842e+07
1.84266e+07
1.84332e+07
1.84399e+07
1.84467e+07
1.84535e+07
1.84604e+07
1.84673e+07
1.84744e+07
1.84814e+07
1.84886e+07
1.84958e+07
1.85031e+07
1.85104e+07
1.85178e+07
1.85252e+07
1.85328e+07
1.85403e+07
1.8548e+07
1.85557e+07
1.85634e+07
1.85712e+07
1.85791e+07
1.8587e+07
1.8595e+07
1.8603e+07
1.86111e+07
1.86192e+07
1.86274e+07
1.86356e+07
1.86439e+07
1.86523e+07
1.86606e+07
1.86691e+07
1.86776e+07
1.86861e+07
1.86946e+07
1.87033e+07
1.87119e+07
1.87206e+07
1.87293e+07
1.87381e+07
1.87469e+07
1.87558e+07
1.87647e+07
1.87736e+07
1.87825e+07
1.87915e+07
1.88005e+07
1.88096e+07
1.88187e+07
1.88278e+07
1.88369e+07
1.8846e+07
1.88552e+07
1.88644e+07
1.88736e+07
1.88829e+07
1.88921e+07
1.89014e+07
1.89107e+07
1.892e+07
1.89293e+07
1.89386e+07
1.8948e+07
1.89573e+07
1.89667e+07
1.8976e+07
1.89854e+07
1.89948e+07
1.90042e+07
1.90135e+07
1.90229e+07
1.90323e+07
1.90416e+07
1.9051e+07
1.90604e+07
1.90697e+07
1.90791e+07
1.90884e+07
1.90977e+07
1.9107e+07
1.91163e+07
1.91256e+07
1.91349e+07
1.91441e+07
1.91534e+07
1.91626e+07
1.91718e+07
1.91809e+07
1.91901e+07
1.91992e+07
1.92083e+07
1.92174e+07
1.92264e+07
1.92355e+07
1.92444e+07
1.92534e+07
1.92623e+07
1.92712e+07
1.92801e+07
1.92889e+07
1.92977e+07
1.93064e+07
1.93152e+07
1.93238e+07
1.93325e+07
1.93411e+07
1.93496e+07
1.93581e+07
1.93666e+07
1.9375e+07
1.93834e+07
1.93919e+07
1.94002e+07
1.81268e+07
1.81271e+07
1.81275e+07
1.8128e+07
1.81286e+07
1.81292e+07
1.81299e+07
1.81307e+07
1.81316e+07
1.81325e+07
1.81335e+07
1.81346e+07
1.81357e+07
1.8137e+07
1.81383e+07
1.81396e+07
1.81411e+07
1.81426e+07
1.81442e+07
1.81459e+07
1.81476e+07
1.81494e+07
1.81513e+07
1.81533e+07
1.81553e+07
1.81575e+07
1.81597e+07
1.81619e+07
1.81643e+07
1.81667e+07
1.81692e+07
1.81717e+07
1.81744e+07
1.81771e+07
1.81799e+07
1.81828e+07
1.81857e+07
1.81887e+07
1.81918e+07
1.8195e+07
1.81982e+07
1.82015e+07
1.82049e+07
1.82084e+07
1.82119e+07
1.82156e+07
1.82192e+07
1.8223e+07
1.82268e+07
1.82308e+07
1.82347e+07
1.82388e+07
1.82429e+07
1.82472e+07
1.82514e+07
1.82558e+07
1.82602e+07
1.82647e+07
1.82693e+07
1.8274e+07
1.82787e+07
1.82835e+07
1.82884e+07
1.82933e+07
1.82983e+07
1.83034e+07
1.83086e+07
1.83138e+07
1.83191e+07
1.83245e+07
1.83299e+07
1.83354e+07
1.8341e+07
1.83467e+07
1.83524e+07
1.83582e+07
1.83641e+07
1.837e+07
1.8376e+07
1.83821e+07
1.83883e+07
1.83945e+07
1.84008e+07
1.84071e+07
1.84136e+07
1.842e+07
1.84266e+07
1.84332e+07
1.84399e+07
1.84467e+07
1.84535e+07
1.84604e+07
1.84673e+07
1.84744e+07
1.84814e+07
1.84886e+07
1.84958e+07
1.85031e+07
1.85104e+07
1.85178e+07
1.85252e+07
1.85328e+07
1.85403e+07
1.8548e+07
1.85557e+07
1.85634e+07
1.85712e+07
1.85791e+07
1.8587e+07
1.8595e+07
1.8603e+07
1.86111e+07
1.86192e+07
1.86274e+07
1.86356e+07
1.86439e+07
1.86523e+07
1.86606e+07
1.86691e+07
1.86776e+07
1.86861e+07
1.86946e+07
1.87033e+07
1.87119e+07
1.87206e+07
1.87293e+07
1.87381e+07
1.87469e+07
1.87558e+07
1.87647e+07
1.87736e+07
1.87825e+07
1.87915e+07
1.88005e+07
1.88096e+07
1.88187e+07
1.88278e+07
1.88369e+07
1.8846e+07
1.88552e+07
1.88644e+07
1.88736e+07
1.88829e+07
1.88921e+07
1.89014e+07
1.89107e+07
1.892e+07
1.89293e+07
1.89386e+07
1.8948e+07
1.89573e+07
1.89667e+07
1.8976e+07
1.89854e+07
1.89948e+07
1.90042e+07
1.90135e+07
1.90229e+07
1.90323e+07
1.90416e+07
1.9051e+07
1.90604e+07
1.90697e+07
1.90791e+07
1.90884e+07
1.90977e+07
1.9107e+07
1.91163e+07
1.91256e+07
1.91349e+07
1.91441e+07
1.91534e+07
1.91626e+07
1.91718e+07
1.91809e+07
1.91901e+07
1.91992e+07
1.92083e+07
1.92174e+07
1.92264e+07
1.92355e+07
1.92444e+07
1.92534e+07
1.92623e+07
1.92712e+07
1.92801e+07
1.92889e+07
1.92977e+07
1.93064e+07
1.93152e+07
1.93238e+07
1.93325e+07
1.93411e+07
1.93496e+07
1.93581e+07
1.93666e+07
1.9375e+07
1.93834e+07
1.93919e+07
1.94002e+07
1.81268e+07
1.81271e+07
1.81275e+07
1.8128e+07
1.81286e+07
1.81292e+07
1.81299e+07
1.81307e+07
1.81316e+07
1.81325e+07
1.81335e+07
1.81346e+07
1.81357e+07
1.8137e+07
1.81383e+07
1.81396e+07
1.81411e+07
1.81426e+07
1.81442e+07
1.81459e+07
1.81476e+07
1.81494e+07
1.81513e+07
1.81533e+07
1.81553e+07
1.81575e+07
1.81597e+07
1.81619e+07
1.81643e+07
1.81667e+07
1.81692e+07
1.81717e+07
1.81744e+07
1.81771e+07
1.81799e+07
1.81828e+07
1.81857e+07
1.81887e+07
1.81918e+07
1.8195e+07
1.81982e+07
1.82015e+07
1.82049e+07
1.82084e+07
1.82119e+07
1.82156e+07
1.82192e+07
1.8223e+07
1.82268e+07
1.82308e+07
1.82347e+07
1.82388e+07
1.82429e+07
1.82472e+07
1.82514e+07
1.82558e+07
1.82602e+07
1.82647e+07
1.82693e+07
1.8274e+07
1.82787e+07
1.82835e+07
1.82884e+07
1.82933e+07
1.82983e+07
1.83034e+07
1.83086e+07
1.83138e+07
1.83191e+07
1.83245e+07
1.83299e+07
1.83354e+07
1.8341e+07
1.83467e+07
1.83524e+07
1.83582e+07
1.83641e+07
1.837e+07
1.8376e+07
1.83821e+07
1.83883e+07
1.83945e+07
1.84008e+07
1.84071e+07
1.84136e+07
1.842e+07
1.84266e+07
1.84332e+07
1.84399e+07
1.84467e+07
1.84535e+07
1.84604e+07
1.84673e+07
1.84744e+07
1.84814e+07
1.84886e+07
1.84958e+07
1.85031e+07
1.85104e+07
1.85178e+07
1.85252e+07
1.85328e+07
1.85403e+07
1.8548e+07
1.85557e+07
1.85634e+07
1.85712e+07
1.85791e+07
1.8587e+07
1.8595e+07
1.8603e+07
1.86111e+07
1.86192e+07
1.86274e+07
1.86356e+07
1.86439e+07
1.86523e+07
1.86606e+07
1.86691e+07
1.86776e+07
1.86861e+07
1.86946e+07
1.87033e+07
1.87119e+07
1.87206e+07
1.87293e+07
1.87381e+07
1.87469e+07
1.87558e+07
1.87647e+07
1.87736e+07
1.87825e+07
1.87915e+07
1.88005e+07
1.88096e+07
1.88187e+07
1.88278e+07
1.88369e+07
1.8846e+07
1.88552e+07
1.88644e+07
1.88736e+07
1.88829e+07
1.88921e+07
1.89014e+07
1.89107e+07
1.892e+07
1.89293e+07
1.89386e+07
1.8948e+07
1.89573e+07
1.89667e+07
1.8976e+07
1.89854e+07
1.89948e+07
1.90042e+07
1.90135e+07
1.90229e+07
1.90323e+07
1.90416e+07
1.9051e+07
1.90604e+07
1.90697e+07
1.90791e+07
1.90884e+07
1.90977e+07
1.9107e+07
1.91163e+07
1.91256e+07
1.91349e+07
1.91441e+07
1.91534e+07
1.91626e+07
1.91718e+07
1.91809e+07
1.91901e+07
1.91992e+07
1.92083e+07
1.92174e+07
1.92264e+07
1.92355e+07
1.92444e+07
1.92534e+07
1.92623e+07
1.92712e+07
1.92801e+07
1.92889e+07
1.92977e+07
1.93064e+07
1.93152e+07
1.93238e+07
1.93325e+07
1.93411e+07
1.93496e+07
1.93581e+07
1.93666e+07
1.9375e+07
1.93834e+07
1.93919e+07
1.94002e+07
1.81268e+07
1.81271e+07
1.81275e+07
1.8128e+07
1.81286e+07
1.81292e+07
1.81299e+07
1.81307e+07
1.81316e+07
1.81325e+07
1.81335e+07
1.81346e+07
1.81357e+07
1.8137e+07
1.81383e+07
1.81396e+07
1.81411e+07
1.81426e+07
1.81442e+07
1.81459e+07
1.81476e+07
1.81494e+07
1.81513e+07
1.81533e+07
1.81553e+07
1.81575e+07
1.81597e+07
1.81619e+07
1.81643e+07
1.81667e+07
1.81692e+07
1.81717e+07
1.81744e+07
1.81771e+07
1.81799e+07
1.81828e+07
1.81857e+07
1.81887e+07
1.81918e+07
1.8195e+07
1.81982e+07
1.82015e+07
1.82049e+07
1.82084e+07
1.82119e+07
1.82156e+07
1.82192e+07
1.8223e+07
1.82268e+07
1.82308e+07
1.82347e+07
1.82388e+07
1.82429e+07
1.82472e+07
1.82514e+07
1.82558e+07
1.82602e+07
1.82647e+07
1.82693e+07
1.8274e+07
1.82787e+07
1.82835e+07
1.82884e+07
1.82933e+07
1.82983e+07
1.83034e+07
1.83086e+07
1.83138e+07
1.83191e+07
1.83245e+07
1.83299e+07
1.83354e+07
1.8341e+07
1.83467e+07
1.83524e+07
1.83582e+07
1.83641e+07
1.837e+07
1.8376e+07
1.83821e+07
1.83883e+07
1.83945e+07
1.84008e+07
1.84071e+07
1.84136e+07
1.842e+07
1.84266e+07
1.84332e+07
1.84399e+07
1.84467e+07
1.84535e+07
1.84604e+07
1.84673e+07
1.84744e+07
1.84814e+07
1.84886e+07
1.84958e+07
1.85031e+07
1.85104e+07
1.85178e+07
1.85252e+07
1.85328e+07
1.85403e+07
1.8548e+07
1.85557e+07
1.85634e+07
1.85712e+07
1.85791e+07
1.8587e+07
1.8595e+07
1.8603e+07
1.86111e+07
1.86192e+07
1.86274e+07
1.86356e+07
1.86439e+07
1.86523e+07
1.86606e+07
1.86691e+07
1.86776e+07
1.86861e+07
1.86946e+07
1.87033e+07
1.87119e+07
1.87206e+07
1.87293e+07
1.87381e+07
1.87469e+07
1.87558e+07
1.87647e+07
1.87736e+07
1.87825e+07
1.87915e+07
1.88005e+07
1.88096e+07
1.88187e+07
1.88278e+07
1.88369e+07
1.8846e+07
1.88552e+07
1.88644e+07
1.88736e+07
1.88829e+07
1.88921e+07
1.89014e+07
1.89107e+07
1.892e+07
1.89293e+07
1.89386e+07
1.8948e+07
1.89573e+07
1.89667e+07
1.8976e+07
1.89854e+07
1.89948e+07
1.90042e+07
1.90135e+07
1.90229e+07
1.90323e+07
1.90416e+07
1.9051e+07
1.90604e+07
1.90697e+07
1.90791e+07
1.90884e+07
1.90977e+07
1.9107e+07
1.91163e+07
1.91256e+07
1.91349e+07
1.91441e+07
1.91534e+07
1.91626e+07
1.91718e+07
1.91809e+07
1.91901e+07
1.91992e+07
1.92083e+07
1.92174e+07
1.92264e+07
1.92355e+07
1.92444e+07
1.92534e+07
1.92623e+07
1.92712e+07
1.92801e+07
1.92889e+07
1.92977e+07
1.93064e+07
1.93152e+07
1.93238e+07
1.93325e+07
1.93411e+07
1.93496e+07
1.93581e+07
1.93666e+07
1.9375e+07
1.93834e+07
1.93918e+07
1.94001e+07
1.81268e+07
1.81271e+07
1.81275e+07
1.8128e+07
1.81286e+07
1.81292e+07
1.81299e+07
1.81307e+07
1.81316e+07
1.81325e+07
1.81335e+07
1.81346e+07
1.81357e+07
1.8137e+07
1.81383e+07
1.81396e+07
1.81411e+07
1.81426e+07
1.81442e+07
1.81459e+07
1.81476e+07
1.81494e+07
1.81513e+07
1.81533e+07
1.81553e+07
1.81575e+07
1.81597e+07
1.81619e+07
1.81643e+07
1.81667e+07
1.81692e+07
1.81717e+07
1.81744e+07
1.81771e+07
1.81799e+07
1.81828e+07
1.81857e+07
1.81887e+07
1.81918e+07
1.8195e+07
1.81982e+07
1.82015e+07
1.82049e+07
1.82084e+07
1.82119e+07
1.82156e+07
1.82192e+07
1.8223e+07
1.82268e+07
1.82308e+07
1.82347e+07
1.82388e+07
1.82429e+07
1.82472e+07
1.82514e+07
1.82558e+07
1.82602e+07
1.82647e+07
1.82693e+07
1.8274e+07
1.82787e+07
1.82835e+07
1.82884e+07
1.82933e+07
1.82983e+07
1.83034e+07
1.83086e+07
1.83138e+07
1.83191e+07
1.83245e+07
1.83299e+07
1.83354e+07
1.8341e+07
1.83467e+07
1.83524e+07
1.83582e+07
1.83641e+07
1.837e+07
1.8376e+07
1.83821e+07
1.83883e+07
1.83945e+07
1.84008e+07
1.84071e+07
1.84136e+07
1.842e+07
1.84266e+07
1.84332e+07
1.84399e+07
1.84467e+07
1.84535e+07
1.84604e+07
1.84673e+07
1.84744e+07
1.84814e+07
1.84886e+07
1.84958e+07
1.85031e+07
1.85104e+07
1.85178e+07
1.85252e+07
1.85328e+07
1.85403e+07
1.8548e+07
1.85557e+07
1.85634e+07
1.85712e+07
1.85791e+07
1.8587e+07
1.8595e+07
1.8603e+07
1.86111e+07
1.86192e+07
1.86274e+07
1.86356e+07
1.86439e+07
1.86523e+07
1.86606e+07
1.86691e+07
1.86776e+07
1.86861e+07
1.86946e+07
1.87033e+07
1.87119e+07
1.87206e+07
1.87293e+07
1.87381e+07
1.87469e+07
1.87558e+07
1.87647e+07
1.87736e+07
1.87825e+07
1.87915e+07
1.88005e+07
1.88096e+07
1.88187e+07
1.88278e+07
1.88369e+07
1.8846e+07
1.88552e+07
1.88644e+07
1.88736e+07
1.88829e+07
1.88921e+07
1.89014e+07
1.89107e+07
1.892e+07
1.89293e+07
1.89386e+07
1.8948e+07
1.89573e+07
1.89667e+07
1.8976e+07
1.89854e+07
1.89948e+07
1.90042e+07
1.90135e+07
1.90229e+07
1.90323e+07
1.90416e+07
1.9051e+07
1.90604e+07
1.90697e+07
1.90791e+07
1.90884e+07
1.90977e+07
1.9107e+07
1.91163e+07
1.91256e+07
1.91349e+07
1.91441e+07
1.91534e+07
1.91626e+07
1.91718e+07
1.91809e+07
1.91901e+07
1.91992e+07
1.92083e+07
1.92174e+07
1.92264e+07
1.92355e+07
1.92444e+07
1.92534e+07
1.92623e+07
1.92712e+07
1.92801e+07
1.92889e+07
1.92977e+07
1.93064e+07
1.93152e+07
1.93238e+07
1.93325e+07
1.93411e+07
1.93496e+07
1.93581e+07
1.93666e+07
1.9375e+07
1.93834e+07
1.93918e+07
1.94001e+07
1.81268e+07
1.81271e+07
1.81275e+07
1.8128e+07
1.81286e+07
1.81292e+07
1.81299e+07
1.81307e+07
1.81316e+07
1.81325e+07
1.81335e+07
1.81346e+07
1.81357e+07
1.8137e+07
1.81383e+07
1.81396e+07
1.81411e+07
1.81426e+07
1.81442e+07
1.81459e+07
1.81476e+07
1.81494e+07
1.81513e+07
1.81533e+07
1.81553e+07
1.81575e+07
1.81597e+07
1.81619e+07
1.81643e+07
1.81667e+07
1.81692e+07
1.81717e+07
1.81744e+07
1.81771e+07
1.81799e+07
1.81828e+07
1.81857e+07
1.81887e+07
1.81918e+07
1.8195e+07
1.81982e+07
1.82015e+07
1.82049e+07
1.82084e+07
1.82119e+07
1.82156e+07
1.82192e+07
1.8223e+07
1.82268e+07
1.82308e+07
1.82347e+07
1.82388e+07
1.82429e+07
1.82472e+07
1.82514e+07
1.82558e+07
1.82602e+07
1.82647e+07
1.82693e+07
1.8274e+07
1.82787e+07
1.82835e+07
1.82884e+07
1.82933e+07
1.82983e+07
1.83034e+07
1.83086e+07
1.83138e+07
1.83191e+07
1.83245e+07
1.83299e+07
1.83354e+07
1.8341e+07
1.83467e+07
1.83524e+07
1.83582e+07
1.83641e+07
1.837e+07
1.8376e+07
1.83821e+07
1.83883e+07
1.83945e+07
1.84008e+07
1.84071e+07
1.84136e+07
1.842e+07
1.84266e+07
1.84332e+07
1.84399e+07
1.84467e+07
1.84535e+07
1.84604e+07
1.84673e+07
1.84744e+07
1.84814e+07
1.84886e+07
1.84958e+07
1.85031e+07
1.85104e+07
1.85178e+07
1.85252e+07
1.85328e+07
1.85403e+07
1.8548e+07
1.85557e+07
1.85634e+07
1.85712e+07
1.85791e+07
1.8587e+07
1.8595e+07
1.8603e+07
1.86111e+07
1.86192e+07
1.86274e+07
1.86356e+07
1.86439e+07
1.86523e+07
1.86606e+07
1.86691e+07
1.86776e+07
1.86861e+07
1.86946e+07
1.87033e+07
1.87119e+07
1.87206e+07
1.87293e+07
1.87381e+07
1.87469e+07
1.87558e+07
1.87647e+07
1.87736e+07
1.87825e+07
1.87915e+07
1.88005e+07
1.88096e+07
1.88187e+07
1.88278e+07
1.88369e+07
1.8846e+07
1.88552e+07
1.88644e+07
1.88736e+07
1.88829e+07
1.88921e+07
1.89014e+07
1.89107e+07
1.892e+07
1.89293e+07
1.89386e+07
1.8948e+07
1.89573e+07
1.89667e+07
1.8976e+07
1.89854e+07
1.89948e+07
1.90042e+07
1.90135e+07
1.90229e+07
1.90323e+07
1.90416e+07
1.9051e+07
1.90604e+07
1.90697e+07
1.90791e+07
1.90884e+07
1.90977e+07
1.9107e+07
1.91163e+07
1.91256e+07
1.91349e+07
1.91441e+07
1.91534e+07
1.91626e+07
1.91718e+07
1.91809e+07
1.91901e+07
1.91992e+07
1.92083e+07
1.92174e+07
1.92264e+07
1.92355e+07
1.92444e+07
1.92534e+07
1.92623e+07
1.92712e+07
1.92801e+07
1.92889e+07
1.92977e+07
1.93064e+07
1.93152e+07
1.93238e+07
1.93325e+07
1.93411e+07
1.93496e+07
1.93581e+07
1.93666e+07
1.9375e+07
1.93834e+07
1.93917e+07
1.94e+07
1.81268e+07
1.81271e+07
1.81275e+07
1.8128e+07
1.81286e+07
1.81292e+07
1.81299e+07
1.81307e+07
1.81316e+07
1.81325e+07
1.81335e+07
1.81346e+07
1.81357e+07
1.8137e+07
1.81383e+07
1.81396e+07
1.81411e+07
1.81426e+07
1.81442e+07
1.81459e+07
1.81476e+07
1.81494e+07
1.81513e+07
1.81533e+07
1.81553e+07
1.81575e+07
1.81597e+07
1.81619e+07
1.81643e+07
1.81667e+07
1.81692e+07
1.81717e+07
1.81744e+07
1.81771e+07
1.81799e+07
1.81828e+07
1.81857e+07
1.81887e+07
1.81918e+07
1.8195e+07
1.81982e+07
1.82015e+07
1.82049e+07
1.82084e+07
1.82119e+07
1.82156e+07
1.82192e+07
1.8223e+07
1.82268e+07
1.82308e+07
1.82347e+07
1.82388e+07
1.82429e+07
1.82472e+07
1.82514e+07
1.82558e+07
1.82602e+07
1.82647e+07
1.82693e+07
1.8274e+07
1.82787e+07
1.82835e+07
1.82884e+07
1.82933e+07
1.82983e+07
1.83034e+07
1.83086e+07
1.83138e+07
1.83191e+07
1.83245e+07
1.83299e+07
1.83354e+07
1.8341e+07
1.83467e+07
1.83524e+07
1.83582e+07
1.83641e+07
1.837e+07
1.8376e+07
1.83821e+07
1.83883e+07
1.83945e+07
1.84008e+07
1.84071e+07
1.84136e+07
1.842e+07
1.84266e+07
1.84332e+07
1.84399e+07
1.84467e+07
1.84535e+07
1.84604e+07
1.84673e+07
1.84744e+07
1.84814e+07
1.84886e+07
1.84958e+07
1.85031e+07
1.85104e+07
1.85178e+07
1.85252e+07
1.85328e+07
1.85403e+07
1.8548e+07
1.85557e+07
1.85634e+07
1.85712e+07
1.85791e+07
1.8587e+07
1.8595e+07
1.8603e+07
1.86111e+07
1.86192e+07
1.86274e+07
1.86356e+07
1.86439e+07
1.86523e+07
1.86606e+07
1.86691e+07
1.86776e+07
1.86861e+07
1.86946e+07
1.87033e+07
1.87119e+07
1.87206e+07
1.87293e+07
1.87381e+07
1.87469e+07
1.87558e+07
1.87647e+07
1.87736e+07
1.87825e+07
1.87915e+07
1.88005e+07
1.88096e+07
1.88187e+07
1.88278e+07
1.88369e+07
1.8846e+07
1.88552e+07
1.88644e+07
1.88736e+07
1.88829e+07
1.88921e+07
1.89014e+07
1.89107e+07
1.892e+07
1.89293e+07
1.89386e+07
1.8948e+07
1.89573e+07
1.89667e+07
1.8976e+07
1.89854e+07
1.89948e+07
1.90042e+07
1.90135e+07
1.90229e+07
1.90323e+07
1.90416e+07
1.9051e+07
1.90604e+07
1.90697e+07
1.90791e+07
1.90884e+07
1.90977e+07
1.9107e+07
1.91163e+07
1.91256e+07
1.91349e+07
1.91441e+07
1.91534e+07
1.91626e+07
1.91718e+07
1.91809e+07
1.91901e+07
1.91992e+07
1.92083e+07
1.92174e+07
1.92264e+07
1.92355e+07
1.92444e+07
1.92534e+07
1.92623e+07
1.92712e+07
1.92801e+07
1.92889e+07
1.92977e+07
1.93064e+07
1.93152e+07
1.93238e+07
1.93325e+07
1.93411e+07
1.93496e+07
1.93581e+07
1.93666e+07
1.9375e+07
1.93834e+07
1.93917e+07
1.93999e+07
1.81268e+07
1.81271e+07
1.81275e+07
1.8128e+07
1.81286e+07
1.81292e+07
1.81299e+07
1.81307e+07
1.81316e+07
1.81325e+07
1.81335e+07
1.81346e+07
1.81357e+07
1.8137e+07
1.81383e+07
1.81396e+07
1.81411e+07
1.81426e+07
1.81442e+07
1.81459e+07
1.81476e+07
1.81494e+07
1.81513e+07
1.81533e+07
1.81553e+07
1.81575e+07
1.81597e+07
1.81619e+07
1.81643e+07
1.81667e+07
1.81692e+07
1.81717e+07
1.81744e+07
1.81771e+07
1.81799e+07
1.81828e+07
1.81857e+07
1.81887e+07
1.81918e+07
1.8195e+07
1.81982e+07
1.82015e+07
1.82049e+07
1.82084e+07
1.82119e+07
1.82156e+07
1.82192e+07
1.8223e+07
1.82268e+07
1.82308e+07
1.82347e+07
1.82388e+07
1.82429e+07
1.82472e+07
1.82514e+07
1.82558e+07
1.82602e+07
1.82647e+07
1.82693e+07
1.8274e+07
1.82787e+07
1.82835e+07
1.82884e+07
1.82933e+07
1.82983e+07
1.83034e+07
1.83086e+07
1.83138e+07
1.83191e+07
1.83245e+07
1.83299e+07
1.83354e+07
1.8341e+07
1.83467e+07
1.83524e+07
1.83582e+07
1.83641e+07
1.837e+07
1.8376e+07
1.83821e+07
1.83883e+07
1.83945e+07
1.84008e+07
1.84071e+07
1.84136e+07
1.842e+07
1.84266e+07
1.84332e+07
1.84399e+07
1.84467e+07
1.84535e+07
1.84604e+07
1.84673e+07
1.84744e+07
1.84814e+07
1.84886e+07
1.84958e+07
1.85031e+07
1.85104e+07
1.85178e+07
1.85252e+07
1.85328e+07
1.85403e+07
1.8548e+07
1.85557e+07
1.85634e+07
1.85712e+07
1.85791e+07
1.8587e+07
1.8595e+07
1.8603e+07
1.86111e+07
1.86192e+07
1.86274e+07
1.86356e+07
1.86439e+07
1.86523e+07
1.86606e+07
1.86691e+07
1.86776e+07
1.86861e+07
1.86946e+07
1.87033e+07
1.87119e+07
1.87206e+07
1.87293e+07
1.87381e+07
1.87469e+07
1.87558e+07
1.87647e+07
1.87736e+07
1.87825e+07
1.87915e+07
1.88005e+07
1.88096e+07
1.88187e+07
1.88278e+07
1.88369e+07
1.8846e+07
1.88552e+07
1.88644e+07
1.88736e+07
1.88829e+07
1.88921e+07
1.89014e+07
1.89107e+07
1.892e+07
1.89293e+07
1.89386e+07
1.8948e+07
1.89573e+07
1.89667e+07
1.8976e+07
1.89854e+07
1.89948e+07
1.90042e+07
1.90135e+07
1.90229e+07
1.90323e+07
1.90416e+07
1.9051e+07
1.90604e+07
1.90697e+07
1.90791e+07
1.90884e+07
1.90977e+07
1.9107e+07
1.91163e+07
1.91256e+07
1.91349e+07
1.91441e+07
1.91534e+07
1.91626e+07
1.91718e+07
1.91809e+07
1.91901e+07
1.91992e+07
1.92083e+07
1.92174e+07
1.92264e+07
1.92355e+07
1.92444e+07
1.92534e+07
1.92623e+07
1.92712e+07
1.92801e+07
1.92889e+07
1.92977e+07
1.93064e+07
1.93152e+07
1.93238e+07
1.93325e+07
1.93411e+07
1.93496e+07
1.93581e+07
1.93666e+07
1.9375e+07
1.93834e+07
1.93916e+07
1.93999e+07
1.81268e+07
1.81271e+07
1.81275e+07
1.8128e+07
1.81286e+07
1.81292e+07
1.81299e+07
1.81307e+07
1.81316e+07
1.81325e+07
1.81335e+07
1.81346e+07
1.81357e+07
1.8137e+07
1.81383e+07
1.81396e+07
1.81411e+07
1.81426e+07
1.81442e+07
1.81459e+07
1.81476e+07
1.81494e+07
1.81513e+07
1.81533e+07
1.81553e+07
1.81575e+07
1.81597e+07
1.81619e+07
1.81643e+07
1.81667e+07
1.81692e+07
1.81717e+07
1.81744e+07
1.81771e+07
1.81799e+07
1.81828e+07
1.81857e+07
1.81887e+07
1.81918e+07
1.8195e+07
1.81982e+07
1.82015e+07
1.82049e+07
1.82084e+07
1.82119e+07
1.82156e+07
1.82192e+07
1.8223e+07
1.82268e+07
1.82308e+07
1.82347e+07
1.82388e+07
1.82429e+07
1.82472e+07
1.82514e+07
1.82558e+07
1.82602e+07
1.82647e+07
1.82693e+07
1.8274e+07
1.82787e+07
1.82835e+07
1.82884e+07
1.82933e+07
1.82983e+07
1.83034e+07
1.83086e+07
1.83138e+07
1.83191e+07
1.83245e+07
1.83299e+07
1.83354e+07
1.8341e+07
1.83467e+07
1.83524e+07
1.83582e+07
1.83641e+07
1.837e+07
1.8376e+07
1.83821e+07
1.83883e+07
1.83945e+07
1.84008e+07
1.84071e+07
1.84136e+07
1.842e+07
1.84266e+07
1.84332e+07
1.84399e+07
1.84467e+07
1.84535e+07
1.84604e+07
1.84673e+07
1.84744e+07
1.84814e+07
1.84886e+07
1.84958e+07
1.85031e+07
1.85104e+07
1.85178e+07
1.85252e+07
1.85328e+07
1.85403e+07
1.8548e+07
1.85557e+07
1.85634e+07
1.85712e+07
1.85791e+07
1.8587e+07
1.8595e+07
1.8603e+07
1.86111e+07
1.86192e+07
1.86274e+07
1.86356e+07
1.86439e+07
1.86523e+07
1.86606e+07
1.86691e+07
1.86776e+07
1.86861e+07
1.86946e+07
1.87033e+07
1.87119e+07
1.87206e+07
1.87293e+07
1.87381e+07
1.87469e+07
1.87558e+07
1.87647e+07
1.87736e+07
1.87825e+07
1.87915e+07
1.88005e+07
1.88096e+07
1.88187e+07
1.88278e+07
1.88369e+07
1.8846e+07
1.88552e+07
1.88644e+07
1.88736e+07
1.88829e+07
1.88921e+07
1.89014e+07
1.89107e+07
1.892e+07
1.89293e+07
1.89386e+07
1.8948e+07
1.89573e+07
1.89667e+07
1.8976e+07
1.89854e+07
1.89948e+07
1.90042e+07
1.90135e+07
1.90229e+07
1.90323e+07
1.90416e+07
1.9051e+07
1.90604e+07
1.90697e+07
1.90791e+07
1.90884e+07
1.90977e+07
1.9107e+07
1.91163e+07
1.91256e+07
1.91349e+07
1.91441e+07
1.91534e+07
1.91626e+07
1.91718e+07
1.91809e+07
1.91901e+07
1.91992e+07
1.92083e+07
1.92174e+07
1.92264e+07
1.92355e+07
1.92444e+07
1.92534e+07
1.92623e+07
1.92712e+07
1.92801e+07
1.92889e+07
1.92977e+07
1.93064e+07
1.93152e+07
1.93238e+07
1.93325e+07
1.93411e+07
1.93496e+07
1.93581e+07
1.93666e+07
1.9375e+07
1.93834e+07
1.93916e+07
1.93999e+07
1.81268e+07
1.81271e+07
1.81275e+07
1.8128e+07
1.81286e+07
1.81292e+07
1.81299e+07
1.81307e+07
1.81316e+07
1.81325e+07
1.81335e+07
1.81346e+07
1.81357e+07
1.8137e+07
1.81383e+07
1.81396e+07
1.81411e+07
1.81426e+07
1.81442e+07
1.81459e+07
1.81476e+07
1.81494e+07
1.81513e+07
1.81533e+07
1.81553e+07
1.81575e+07
1.81597e+07
1.81619e+07
1.81643e+07
1.81667e+07
1.81692e+07
1.81717e+07
1.81744e+07
1.81771e+07
1.81799e+07
1.81828e+07
1.81857e+07
1.81887e+07
1.81918e+07
1.8195e+07
1.81982e+07
1.82015e+07
1.82049e+07
1.82084e+07
1.82119e+07
1.82156e+07
1.82192e+07
1.8223e+07
1.82268e+07
1.82308e+07
1.82347e+07
1.82388e+07
1.82429e+07
1.82472e+07
1.82514e+07
1.82558e+07
1.82602e+07
1.82647e+07
1.82693e+07
1.8274e+07
1.82787e+07
1.82835e+07
1.82884e+07
1.82933e+07
1.82983e+07
1.83034e+07
1.83086e+07
1.83138e+07
1.83191e+07
1.83245e+07
1.83299e+07
1.83354e+07
1.8341e+07
1.83467e+07
1.83524e+07
1.83582e+07
1.83641e+07
1.837e+07
1.8376e+07
1.83821e+07
1.83883e+07
1.83945e+07
1.84008e+07
1.84071e+07
1.84136e+07
1.842e+07
1.84266e+07
1.84332e+07
1.84399e+07
1.84467e+07
1.84535e+07
1.84604e+07
1.84673e+07
1.84744e+07
1.84814e+07
1.84886e+07
1.84958e+07
1.85031e+07
1.85104e+07
1.85178e+07
1.85252e+07
1.85328e+07
1.85403e+07
1.8548e+07
1.85557e+07
1.85634e+07
1.85712e+07
1.85791e+07
1.8587e+07
1.8595e+07
1.8603e+07
1.86111e+07
1.86192e+07
1.86274e+07
1.86356e+07
1.86439e+07
1.86523e+07
1.86606e+07
1.86691e+07
1.86776e+07
1.86861e+07
1.86946e+07
1.87033e+07
1.87119e+07
1.87206e+07
1.87293e+07
1.87381e+07
1.87469e+07
1.87558e+07
1.87647e+07
1.87736e+07
1.87825e+07
1.87915e+07
1.88005e+07
1.88096e+07
1.88187e+07
1.88278e+07
1.88369e+07
1.8846e+07
1.88552e+07
1.88644e+07
1.88736e+07
1.88829e+07
1.88921e+07
1.89014e+07
1.89107e+07
1.892e+07
1.89293e+07
1.89386e+07
1.8948e+07
1.89573e+07
1.89667e+07
1.8976e+07
1.89854e+07
1.89948e+07
1.90042e+07
1.90135e+07
1.90229e+07
1.90323e+07
1.90416e+07
1.9051e+07
1.90604e+07
1.90697e+07
1.90791e+07
1.90884e+07
1.90977e+07
1.9107e+07
1.91163e+07
1.91256e+07
1.91349e+07
1.91441e+07
1.91534e+07
1.91626e+07
1.91718e+07
1.91809e+07
1.91901e+07
1.91992e+07
1.92083e+07
1.92174e+07
1.92264e+07
1.92355e+07
1.92444e+07
1.92534e+07
1.92623e+07
1.92712e+07
1.92801e+07
1.92889e+07
1.92977e+07
1.93064e+07
1.93152e+07
1.93238e+07
1.93325e+07
1.93411e+07
1.93496e+07
1.93581e+07
1.93666e+07
1.9375e+07
1.93834e+07
1.93916e+07
1.93999e+07
1.94067e+07
1.94093e+07
1.94112e+07
1.94128e+07
1.94143e+07
1.94159e+07
1.94174e+07
1.94189e+07
1.94205e+07
1.9422e+07
1.94235e+07
1.9425e+07
1.94264e+07
1.94279e+07
1.94293e+07
1.94308e+07
1.94321e+07
1.94335e+07
1.94348e+07
1.94361e+07
1.94066e+07
1.9409e+07
1.94109e+07
1.94125e+07
1.94141e+07
1.94156e+07
1.94172e+07
1.94187e+07
1.94202e+07
1.94218e+07
1.94233e+07
1.94247e+07
1.94262e+07
1.94277e+07
1.94291e+07
1.94305e+07
1.94319e+07
1.94333e+07
1.94346e+07
1.94358e+07
1.94065e+07
1.9409e+07
1.94109e+07
1.94125e+07
1.94141e+07
1.94157e+07
1.94172e+07
1.94187e+07
1.94202e+07
1.94217e+07
1.94232e+07
1.94247e+07
1.94262e+07
1.94276e+07
1.94291e+07
1.94305e+07
1.94319e+07
1.94332e+07
1.94345e+07
1.94357e+07
1.94059e+07
1.94079e+07
1.94096e+07
1.94112e+07
1.94127e+07
1.94144e+07
1.94159e+07
1.94174e+07
1.9419e+07
1.94205e+07
1.9422e+07
1.94235e+07
1.9425e+07
1.94264e+07
1.94278e+07
1.94292e+07
1.94306e+07
1.94319e+07
1.94332e+07
1.94345e+07
1.94059e+07
1.94079e+07
1.94098e+07
1.94115e+07
1.94131e+07
1.94146e+07
1.94161e+07
1.94175e+07
1.9419e+07
1.94205e+07
1.94219e+07
1.94234e+07
1.94248e+07
1.94262e+07
1.94276e+07
1.9429e+07
1.94304e+07
1.94318e+07
1.94331e+07
1.94344e+07
1.94041e+07
1.94052e+07
1.94063e+07
1.94075e+07
1.94089e+07
1.94102e+07
1.94118e+07
1.94134e+07
1.94148e+07
1.94164e+07
1.94179e+07
1.94194e+07
1.9421e+07
1.94225e+07
1.9424e+07
1.94255e+07
1.94269e+07
1.94284e+07
1.943e+07
1.94315e+07
1.94039e+07
1.94051e+07
1.94066e+07
1.94082e+07
1.94096e+07
1.94111e+07
1.94124e+07
1.94138e+07
1.94152e+07
1.94166e+07
1.9418e+07
1.94193e+07
1.94208e+07
1.94222e+07
1.94236e+07
1.9425e+07
1.94265e+07
1.94281e+07
1.94297e+07
1.94313e+07
1.94014e+07
1.94014e+07
1.94016e+07
1.94022e+07
1.94032e+07
1.94045e+07
1.94058e+07
1.94073e+07
1.94088e+07
1.94103e+07
1.94119e+07
1.94136e+07
1.94153e+07
1.9417e+07
1.94188e+07
1.94206e+07
1.94225e+07
1.94245e+07
1.94265e+07
1.94287e+07
1.94009e+07
1.9401e+07
1.94014e+07
1.94023e+07
1.94033e+07
1.94046e+07
1.94059e+07
1.94073e+07
1.94088e+07
1.94104e+07
1.94119e+07
1.94135e+07
1.94152e+07
1.94169e+07
1.94186e+07
1.94204e+07
1.94223e+07
1.94243e+07
1.94263e+07
1.94284e+07
1.94003e+07
1.93996e+07
1.93998e+07
1.94005e+07
1.94015e+07
1.94027e+07
1.9404e+07
1.94054e+07
1.94069e+07
1.94085e+07
1.94101e+07
1.94118e+07
1.94135e+07
1.94152e+07
1.9417e+07
1.94189e+07
1.94209e+07
1.9423e+07
1.94251e+07
1.94274e+07
1.9438e+07
1.94433e+07
1.94492e+07
1.94553e+07
1.94614e+07
1.94674e+07
1.94735e+07
1.94795e+07
1.94855e+07
1.94915e+07
1.94974e+07
1.95034e+07
1.95093e+07
1.95152e+07
1.9521e+07
1.95268e+07
1.95326e+07
1.95384e+07
1.95441e+07
1.95498e+07
1.95555e+07
1.95611e+07
1.95667e+07
1.95722e+07
1.95778e+07
1.95833e+07
1.95887e+07
1.95942e+07
1.95995e+07
1.96049e+07
1.96102e+07
1.96155e+07
1.96207e+07
1.9626e+07
1.96311e+07
1.96363e+07
1.96414e+07
1.96464e+07
1.96515e+07
1.96564e+07
1.96614e+07
1.96663e+07
1.96712e+07
1.9676e+07
1.96808e+07
1.96856e+07
1.96903e+07
1.9695e+07
1.96997e+07
1.97043e+07
1.97089e+07
1.97134e+07
1.9718e+07
1.97224e+07
1.97269e+07
1.97313e+07
1.97356e+07
1.974e+07
1.97442e+07
1.97485e+07
1.97527e+07
1.97569e+07
1.9761e+07
1.97651e+07
1.97692e+07
1.97732e+07
1.97772e+07
1.97812e+07
1.97851e+07
1.9789e+07
1.97928e+07
1.97967e+07
1.98004e+07
1.98042e+07
1.98079e+07
1.98115e+07
1.98152e+07
1.98187e+07
1.98223e+07
1.98258e+07
1.98293e+07
1.98327e+07
1.98362e+07
1.98395e+07
1.98429e+07
1.98462e+07
1.98494e+07
1.98527e+07
1.98559e+07
1.9859e+07
1.98621e+07
1.98652e+07
1.98683e+07
1.98713e+07
1.98743e+07
1.98773e+07
1.98802e+07
1.98831e+07
1.98859e+07
1.98888e+07
1.98916e+07
1.98943e+07
1.9897e+07
1.98997e+07
1.99024e+07
1.9905e+07
1.99076e+07
1.99101e+07
1.99126e+07
1.99151e+07
1.99176e+07
1.992e+07
1.99224e+07
1.99248e+07
1.99271e+07
1.99294e+07
1.99317e+07
1.99339e+07
1.99361e+07
1.99383e+07
1.99404e+07
1.99425e+07
1.99446e+07
1.99467e+07
1.99487e+07
1.99507e+07
1.99526e+07
1.99546e+07
1.99565e+07
1.99583e+07
1.99602e+07
1.9962e+07
1.99637e+07
1.99654e+07
1.99671e+07
1.99688e+07
1.99704e+07
1.9972e+07
1.99736e+07
1.99751e+07
1.99766e+07
1.99781e+07
1.99796e+07
1.9981e+07
1.99824e+07
1.99837e+07
1.9985e+07
1.99863e+07
1.99876e+07
1.99889e+07
1.99901e+07
1.99913e+07
1.99925e+07
1.99936e+07
1.99947e+07
1.99958e+07
1.99969e+07
1.99979e+07
1.99989e+07
1.99999e+07
2.00009e+07
2.00018e+07
2.00027e+07
2.00036e+07
2.00045e+07
2.00053e+07
2.00062e+07
2.0007e+07
2.00077e+07
2.00085e+07
2.00092e+07
2.001e+07
2.00107e+07
2.00113e+07
2.0012e+07
2.00126e+07
2.00133e+07
2.00139e+07
2.00144e+07
2.0015e+07
2.00156e+07
2.00161e+07
2.00166e+07
2.00171e+07
2.00176e+07
2.00181e+07
2.00185e+07
2.0019e+07
2.00194e+07
2.00198e+07
2.00202e+07
2.00206e+07
2.0021e+07
2.00214e+07
2.00217e+07
2.00221e+07
2.00224e+07
2.00227e+07
2.0023e+07
2.00233e+07
1.9438e+07
1.94433e+07
1.94492e+07
1.94553e+07
1.94614e+07
1.94674e+07
1.94735e+07
1.94795e+07
1.94855e+07
1.94915e+07
1.94974e+07
1.95034e+07
1.95093e+07
1.95152e+07
1.9521e+07
1.95268e+07
1.95326e+07
1.95384e+07
1.95441e+07
1.95498e+07
1.95555e+07
1.95611e+07
1.95667e+07
1.95722e+07
1.95778e+07
1.95833e+07
1.95887e+07
1.95942e+07
1.95995e+07
1.96049e+07
1.96102e+07
1.96155e+07
1.96207e+07
1.9626e+07
1.96311e+07
1.96363e+07
1.96414e+07
1.96464e+07
1.96515e+07
1.96564e+07
1.96614e+07
1.96663e+07
1.96712e+07
1.9676e+07
1.96808e+07
1.96856e+07
1.96903e+07
1.9695e+07
1.96997e+07
1.97043e+07
1.97089e+07