/*--------------------------------*- C++ -*----------------------------------*\
| =========                 |                                                 |
| \\      /  F ield         | OpenFOAM: The Open Source CFD Toolbox           |
|  \\    /   O peration     | Version:  3.0.x                                 |
|   \\  /    A nd           | Web:      www.OpenFOAM.org                      |
|    \\/     M anipulation  |                                                 |
\*---------------------------------------------------------------------------*/
FoamFile
{
    version     2.0;
    format      ascii;
    class       surfaceScalarField;
    location    "0.519925";
    object      phi;
}
// * * * * * * * * * * * * * * * * * * * * * * * * * * * * * * * * * * * * * //

dimensions      [1 0 -1 0 0 0 0];

internalField   nonuniform List<scalar> 
26210
(
5.31737
0.00050486
5.30849
0.000348356
5.29957
0.000342187
5.29061
0.000344008
5.28161
0.000344453
5.27257
0.000344485
5.26349
0.00034462
5.25438
0.000344759
5.24524
0.000344851
5.23606
0.000344932
5.22684
0.000345011
5.21758
0.00034509
5.20828
0.000345172
5.19894
0.000345258
5.18956
0.000345351
5.18013
0.00034545
5.17065
0.000345555
5.16112
0.000345668
5.15154
0.000345787
5.14191
0.000345913
5.13222
0.000346047
5.12247
0.000346188
5.11266
0.000346335
5.10279
0.00034649
5.09286
0.000346652
5.08286
0.000346821
5.07279
0.000346997
5.06265
0.000347181
5.05244
0.000347371
5.04215
0.000347569
5.03179
0.000347773
5.02135
0.000347985
5.01083
0.000348203
5.00022
0.000348429
4.98953
0.000348662
4.97876
0.000348902
4.96789
0.000349148
4.95694
0.000349402
4.94589
0.000349664
4.93474
0.000349931
4.9235
0.000350207
4.91216
0.00035049
4.90072
0.000350779
4.88917
0.000351075
4.87752
0.000351377
4.86576
0.000351684
4.85389
0.000351999
4.8419
0.000352319
4.82981
0.000352648
4.8176
0.00035299
4.80527
0.000353338
4.79282
0.000353696
4.78025
0.000354056
4.76756
0.000354416
4.75474
0.000354778
4.74179
0.000355145
4.72871
0.000355527
4.71551
0.000355926
4.70217
0.000356334
4.68869
0.000356745
4.67508
0.000357157
4.66134
0.000357577
4.64746
0.000358007
4.63344
0.000358448
4.61927
0.000358904
4.60497
0.000359378
4.59052
0.000359864
4.57592
0.000360356
4.56118
0.000360844
4.54628
0.000361332
4.53124
0.00036182
4.51604
0.000362313
4.50069
0.000362817
4.48518
0.000363328
4.46952
0.000363845
4.45371
0.000364374
4.43774
0.000364909
4.42162
0.000365451
4.40534
0.000365991
4.3889
0.000366536
4.3723
0.000367072
4.35554
0.000367611
4.33862
0.000368156
4.32154
0.000368709
4.30431
0.000369269
4.28691
0.000369822
4.26936
0.000370359
4.25164
0.000370877
4.23376
0.000371368
4.21572
0.000371807
4.19751
0.000372161
4.17915
0.000372409
4.16062
0.000372545
4.14194
0.000372552
4.12309
0.000372397
4.10409
0.000372029
4.08492
0.000371399
4.0656
0.000370471
4.04613
0.000369213
4.02651
0.000367585
4.00673
0.000365537
3.9868
0.000363005
3.96672
0.000359922
3.94649
0.000356223
3.92612
0.00035185
3.9056
0.000346756
3.88493
0.000340902
3.86413
0.000334263
3.84318
0.000326825
3.8221
0.000318589
3.80089
0.000309567
3.77954
0.00029979
3.75807
0.000289295
3.73647
0.000278139
3.71474
0.000266387
3.6929
0.000254122
3.67093
0.000241437
3.64885
0.000228436
3.62665
0.000215229
3.60434
0.000201928
3.58192
0.000188647
3.5594
0.000175499
3.53677
0.000162593
3.51403
0.00015003
3.4912
0.000137902
3.46826
0.000126291
3.44523
0.000115264
3.4221
0.000104876
3.39889
9.517e-05
3.37558
8.61708e-05
3.35218
7.78928e-05
3.3287
7.03365e-05
3.30513
6.34917e-05
3.28148
5.73375e-05
3.25775
5.18447e-05
3.23394
4.69775e-05
3.21006
4.26953e-05
3.18611
3.89534e-05
3.16209
3.57054e-05
3.13801
3.29035e-05
3.11386
3.05006e-05
3.08965
2.84503e-05
3.06538
2.67095e-05
3.04106
2.52376e-05
3.01669
2.39973e-05
2.99226
2.2954e-05
2.9678
2.20767e-05
2.94329
2.13378e-05
2.91875
2.07126e-05
2.89417
2.01811e-05
2.86956
1.97255e-05
2.84492
1.93313e-05
2.82026
1.89851e-05
2.79558
1.86758e-05
2.77088
1.83941e-05
2.74617
1.81332e-05
2.72144
1.78879e-05
2.69671
1.76534e-05
2.67198
1.74268e-05
2.64725
1.72043e-05
2.62252
1.69842e-05
2.59779
1.67645e-05
2.57308
1.65435e-05
2.54838
1.63206e-05
2.5237
1.60941e-05
2.49904
1.58644e-05
2.47441
1.56314e-05
2.4498
1.53954e-05
2.42522
1.51551e-05
2.40068
1.49112e-05
2.37617
1.46613e-05
2.35171
1.44095e-05
2.32729
1.41489e-05
2.30292
1.38909e-05
2.27859
1.36196e-05
2.25432
1.33523e-05
2.23011
1.3084e-05
2.20596
1.27758e-05
2.18187
1.25776e-05
2.15784
1.21097e-05
2.13389
1.21576e-05
2.11
1.13091e-05
2.08619
1.1829e-05
2.06246
1.04216e-05
2.03881
1.15545e-05
2.01524
9.41926e-06
1.99175
1.14444e-05
1.96836
8.15218e-06
1.94505
1.15535e-05
1.92184
6.92667e-06
1.89872
1.17183e-05
1.87571
7.43803e-06
1.85278
1.819e-05
1.82993
3.92174e-05
1.80706
0.000169407
1.78372
0.000745652
1.75781
0.00342712
1.7199
0.0155218
1.6137
0.0839638
0.23558
1.35599
7.5208
0.000461007
7.50875
0.000330869
7.49665
0.000317489
7.48448
0.000321056
7.47226
0.000321587
7.45999
0.000321562
7.44766
0.000321717
7.43528
0.000321886
7.42286
0.000322004
7.41039
0.000322112
7.39786
0.000322217
7.38528
0.000322323
7.37264
0.000322431
7.35994
0.000322544
7.34718
0.000322662
7.33435
0.000322786
7.32146
0.000322916
7.30849
0.000323052
7.29545
0.000323195
7.28234
0.000323344
7.26914
0.000323501
7.25587
0.000323664
7.24251
0.000323833
7.22906
0.000324009
7.21552
0.000324192
7.20189
0.000324382
7.18816
0.000324578
7.17434
0.000324782
7.16041
0.000324991
7.14637
0.000325208
7.13223
0.000325431
7.11798
0.00032566
7.10361
0.000325896
7.08913
0.000326139
7.07453
0.000326389
7.0598
0.000326645
7.04495
0.000326907
7.02997
0.000327177
7.01486
0.000327453
6.99962
0.000327736
6.98423
0.000328025
6.96871
0.000328322
6.95305
0.000328625
6.93723
0.000328934
6.92127
0.000329249
6.90516
0.000329569
6.88889
0.000329895
6.87246
0.000330228
6.85588
0.000330568
6.83913
0.00033092
6.82221
0.000331278
6.80513
0.000331646
6.78787
0.000332016
6.77045
0.000332386
6.75284
0.000332758
6.73505
0.000333134
6.71708
0.000333525
6.69893
0.000333932
6.68059
0.000334347
6.66206
0.000334764
6.64334
0.000335183
6.62442
0.00033561
6.60532
0.000336046
6.58602
0.000336494
6.56652
0.000336955
6.54682
0.000337432
6.52691
0.000337921
6.5068
0.000338416
6.48648
0.000338907
6.46594
0.000339398
6.4452
0.00033989
6.42424
0.000340386
6.40306
0.000340893
6.38167
0.000341406
6.36006
0.000341925
6.33823
0.000342455
6.31619
0.000342991
6.29392
0.000343534
6.27143
0.000344074
6.24872
0.00034462
6.22579
0.000345157
6.20263
0.000345696
6.17924
0.000346239
6.15564
0.00034679
6.1318
0.000347345
6.10775
0.000347894
6.08346
0.000348424
6.05895
0.000348932
6.03421
0.000349411
6.00924
0.000349836
5.98405
0.000350175
5.95862
0.000350407
5.93297
0.000350524
5.90709
0.000350509
5.88099
0.000350327
5.85466
0.000349928
5.8281
0.000349267
5.80133
0.000348305
5.77433
0.000347011
5.74712
0.000345346
5.71968
0.000343259
5.69203
0.000340691
5.66417
0.000337577
5.63609
0.000333856
5.60779
0.000329476
5.57928
0.000324393
5.55056
0.000318575
5.52164
0.000312001
5.4925
0.000304663
5.46316
0.000296566
5.43362
0.00028773
5.40387
0.000278188
5.37393
0.000267985
5.3438
0.000257179
5.31347
0.000245839
5.28295
0.00023405
5.25225
0.000221904
5.22136
0.000209505
5.19029
0.000196959
5.15904
0.000184375
5.12762
0.000171861
5.09603
0.000159524
5.06427
0.000147462
5.03234
0.00013577
5.00025
0.00012453
4.96801
0.000113813
4.93561
0.000103678
4.90307
9.41717e-05
4.87037
8.53253e-05
4.83754
7.71578e-05
4.80457
6.96763e-05
4.77146
6.28757e-05
4.73823
5.67409e-05
4.70487
5.12479e-05
4.67139
4.63654e-05
4.6378
4.20566e-05
4.60409
3.82808e-05
4.57028
3.49944e-05
4.53636
3.21528e-05
4.50235
2.97105e-05
4.46824
2.76234e-05
4.43404
2.58484e-05
4.39976
2.4346e-05
4.3654
2.3079e-05
4.33097
2.20137e-05
4.29647
2.11191e-05
4.2619
2.03673e-05
4.22728
1.97341e-05
4.1926
1.91977e-05
4.15787
1.87405e-05
4.12309
1.83471e-05
4.08828
1.80051e-05
4.05343
1.77028e-05
4.01855
1.74307e-05
3.98364
1.71809e-05
3.94872
1.69478e-05
3.91378
1.67269e-05
3.87883
1.65142e-05
3.84388
1.63074e-05
3.80893
1.61032e-05
3.77398
1.59004e-05
3.73904
1.56973e-05
3.70412
1.54922e-05
3.66921
1.52853e-05
3.63433
1.50744e-05
3.59948
1.48605e-05
3.56466
1.46431e-05
3.52988
1.44228e-05
3.49515
1.41988e-05
3.46046
1.39702e-05
3.42582
1.37384e-05
3.39125
1.34997e-05
3.35673
1.32632e-05
3.32228
1.30081e-05
3.2879
1.27822e-05
3.2536
1.24785e-05
3.21938
1.23296e-05
3.18524
1.18568e-05
3.15119
1.19936e-05
3.11723
1.1026e-05
3.08337
1.18899e-05
3.04961
9.91596e-06
3.01595
1.19848e-05
2.98241
8.66274e-06
2.94897
1.21938e-05
2.91566
7.15285e-06
2.88245
1.28517e-05
2.84939
5.00103e-06
2.81643
1.40611e-05
2.78363
2.9936e-06
2.75094
1.53925e-05
2.7184
5.21602e-06
2.68599
3.21808e-05
2.65369
8.35333e-05
2.62135
0.000404289
2.58833
0.00180419
2.55161
0.00835273
2.49757
0.03792
2.35405
0.196014
0.539711
2.01859
10.636
0.00040275
10.619
0.000303375
10.6019
0.000283208
10.5846
0.000288246
10.5674
0.000288933
10.55
0.000288814
10.5326
0.000288953
10.5151
0.000289117
10.4975
0.000289228
10.4799
0.000289327
10.4622
0.000289423
10.4444
0.00028952
10.4265
0.000289618
10.4085
0.000289719
10.3905
0.000289826
10.3723
0.000289938
10.3541
0.000290055
10.3358
0.000290178
10.3173
0.000290306
10.2988
0.000290441
10.2801
0.000290581
10.2614
0.000290728
10.2425
0.00029088
10.2234
0.000291039
10.2043
0.000291203
10.185
0.000291374
10.1656
0.00029155
10.1461
0.000291733
10.1264
0.000291921
10.1065
0.000292116
10.0865
0.000292316
10.0664
0.000292522
10.0461
0.000292734
10.0256
0.000292953
10.0049
0.000293177
9.9841
0.000293407
9.9631
0.000293643
9.94192
0.000293885
9.92055
0.000294134
9.89899
0.000294388
9.87724
0.000294648
9.85529
0.000294914
9.83314
0.000295187
9.81078
0.000295464
9.78821
0.000295747
9.76542
0.000296034
9.74242
0.000296328
9.71919
0.000296627
9.69573
0.000296933
9.67205
0.000297248
9.64813
0.00029757
9.62397
0.0002979
9.59957
0.000298232
9.57493
0.000298565
9.55003
0.0002989
9.52488
0.000299239
9.49947
0.000299591
9.4738
0.000299955
9.44786
0.000300328
9.42166
0.000300702
9.39519
0.000301078
9.36845
0.000301462
9.34143
0.000301854
9.31414
0.000302257
9.28656
0.000302672
9.25871
0.000303101
9.23056
0.000303539
9.20212
0.000303983
9.17338
0.000304425
9.14435
0.000304866
9.11501
0.000305308
9.08537
0.000305754
9.05543
0.000306209
9.02518
0.00030667
8.99462
0.000307136
8.96376
0.000307613
8.93259
0.000308095
8.9011
0.000308582
8.8693
0.000309068
8.83719
0.000309558
8.80475
0.000310042
8.77201
0.000310526
8.73894
0.000311015
8.70556
0.00031151
8.67186
0.000312009
8.63784
0.000312502
8.6035
0.000312979
8.56884
0.000313437
8.53386
0.000313867
8.49856
0.000314249
8.46293
0.000314555
8.42698
0.000314766
8.3907
0.000314873
8.35411
0.000314863
8.3172
0.000314702
8.27997
0.000314347
8.24242
0.000313758
8.20455
0.000312899
8.16638
0.000311743
8.12789
0.000310255
8.0891
0.000308389
8.05
0.000306091
8.0106
0.000303304
7.97089
0.000299973
7.93087
0.00029605
7.89056
0.000291498
7.84994
0.000286286
7.80903
0.000280396
7.76783
0.000273819
7.72633
0.000266561
7.68455
0.00025864
7.64249
0.000250084
7.60014
0.000240933
7.55752
0.000231239
7.51462
0.000221065
7.47146
0.000210486
7.42803
0.000199585
7.38434
0.000188454
7.3404
0.000177189
7.2962
0.000165888
7.25176
0.000154647
7.20707
0.000143563
7.16215
0.000132725
7.11699
0.000122216
7.07161
0.000112112
7.026
0.000102476
6.98018
9.33611e-05
6.93415
8.48092e-05
6.88791
7.68495e-05
6.84147
6.94989e-05
6.79483
6.2764e-05
6.74801
5.66406e-05
6.70101
5.11153e-05
6.65383
4.61668e-05
6.60648
4.17672e-05
6.55897
3.78834e-05
6.51129
3.44793e-05
6.46347
3.15156e-05
6.41551
2.89523e-05
6.3674
2.67487e-05
6.31916
2.48651e-05
6.2708
2.32628e-05
6.22232
2.19062e-05
6.17373
2.07621e-05
6.12503
1.97998e-05
6.07624
1.89916e-05
6.02736
1.83125e-05
5.97839
1.77405e-05
5.92934
1.72559e-05
5.88023
1.68429e-05
5.83105
1.64877e-05
5.78181
1.6179e-05
5.73253
1.59062e-05
5.6832
1.56607e-05
5.63384
1.54355e-05
5.58445
1.52255e-05
5.53504
1.50267e-05
5.48562
1.48353e-05
5.43619
1.46491e-05
5.38675
1.44656e-05
5.33733
1.42831e-05
5.28792
1.41007e-05
5.23853
1.39162e-05
5.18916
1.37303e-05
5.13984
1.35409e-05
5.09055
1.33487e-05
5.04131
1.31535e-05
4.99212
1.29553e-05
4.943
1.27546e-05
4.89394
1.25479e-05
4.84496
1.23426e-05
4.79606
1.21221e-05
4.74725
1.1922e-05
4.69853
1.16683e-05
4.64991
1.15134e-05
4.6014
1.11486e-05
4.553
1.11861e-05
4.50473
1.04555e-05
4.45657
1.11038e-05
4.40855
9.38098e-06
4.36066
1.1461e-05
4.31292
7.82514e-06
4.26532
1.21643e-05
4.21788
6.04657e-06
4.17059
1.30781e-05
4.12348
3.78465e-06
4.07652
1.48789e-05
4.02976
3.14757e-07
3.98316
1.77139e-05
3.93676
-2.86461e-06
3.89054
2.07006e-05
3.84452
1.56995e-06
3.79868
5.1244e-05
3.75301
0.000141645
3.70729
0.00071674
3.66069
0.00320774
3.60919
0.014889
3.535
0.0673546
3.344
0.342512
0.940455
2.89895
46.9496
0.000185793
46.8744
0.000158625
46.7988
0.000140399
46.7229
0.000143691
46.6466
0.000144789
46.57
0.000144553
46.493
0.000144543
46.4158
0.000144614
46.3382
0.000144659
46.2603
0.000144698
46.1821
0.000144739
46.1036
0.000144781
46.0247
0.000144826
45.9454
0.000144873
45.8658
0.000144924
45.7857
0.000144977
45.7052
0.000145033
45.6243
0.000145093
45.5429
0.000145156
45.461
0.000145222
45.3787
0.000145291
45.2958
0.000145364
45.2124
0.00014544
45.1285
0.000145518
45.0439
0.0001456
44.9589
0.000145685
44.8732
0.000145773
44.7869
0.000145863
44.6999
0.000145958
44.6123
0.000146055
44.524
0.000146155
44.4351
0.000146257
44.3454
0.000146363
44.255
0.000146472
44.1638
0.000146584
44.0719
0.000146699
43.9792
0.000146817
43.8857
0.000146938
43.7914
0.000147062
43.6962
0.000147189
43.6002
0.000147319
43.5033
0.000147452
43.4055
0.000147588
43.3068
0.000147727
43.2072
0.000147868
43.1066
0.000148012
43.0051
0.000148159
42.9025
0.000148309
42.799
0.000148461
42.6945
0.000148619
42.5889
0.000148779
42.4822
0.000148943
42.3745
0.00014911
42.2657
0.000149277
42.1558
0.000149445
42.0448
0.000149615
41.9326
0.000149791
41.8193
0.000149973
41.7049
0.000150158
41.5892
0.000150345
41.4723
0.000150533
41.3543
0.000150724
41.235
0.000150921
41.1146
0.000151123
40.9928
0.000151331
40.8699
0.000151546
40.7456
0.000151764
40.6201
0.000151985
40.4932
0.000152206
40.3651
0.000152427
40.2356
0.000152649
40.1047
0.000152872
39.9726
0.0001531
39.839
0.00015333
39.7042
0.000153563
39.5679
0.000153801
39.4303
0.000154042
39.2913
0.000154285
39.151
0.000154529
39.0092
0.000154774
38.866
0.000155017
38.7215
0.000155259
38.5755
0.000155504
38.4282
0.000155752
38.2794
0.000156002
38.1293
0.000156249
37.9777
0.000156489
37.8247
0.000156718
37.6703
0.000156934
37.5144
0.000157125
37.3571
0.00015728
37.1984
0.000157389
37.0383
0.000157447
36.8768
0.000157446
36.7139
0.00015737
36.5495
0.000157198
36.3838
0.00015691
36.2166
0.000156489
36.0481
0.000155921
35.8782
0.000155188
35.707
0.000154267
35.5344
0.000153132
35.3605
0.000151754
35.1852
0.000150105
35.0085
0.000148162
34.8306
0.000145905
34.6513
0.00014332
34.4707
0.000140396
34.2888
0.00013713
34.1057
0.000133523
33.9212
0.000129583
33.7355
0.000125325
33.5486
0.000120768
33.3605
0.000115938
33.1711
0.000110866
32.9806
0.000105589
32.7889
0.000100148
32.5961
9.45897e-05
32.4021
8.89608e-05
32.207
8.33107e-05
32.0108
7.76878e-05
31.8135
7.21401e-05
31.6152
6.67126e-05
31.4159
6.14474e-05
31.2156
5.63817e-05
31.0143
5.15483e-05
30.812
4.69739e-05
30.6088
4.26796e-05
30.4047
3.86805e-05
30.1997
3.49854e-05
29.9938
3.15979e-05
29.7872
2.85165e-05
29.5797
2.57342e-05
29.3714
2.32413e-05
29.1624
2.10238e-05
28.9527
1.9065e-05
28.7422
1.73475e-05
28.5311
1.58515e-05
28.3194
1.45566e-05
28.1071
1.34432e-05
27.8941
1.24911e-05
27.6807
1.16806e-05
27.4667
1.09941e-05
27.2522
1.04153e-05
27.0372
9.92807e-06
26.8218
9.51872e-06
26.606
9.17475e-06
26.3899
8.88532e-06
26.1734
8.63997e-06
25.9566
8.43081e-06
25.7395
8.25126e-06
25.5222
8.09526e-06
25.3046
7.95793e-06
25.0869
7.8337e-06
24.869
7.72027e-06
24.651
7.61451e-06
24.4329
7.51517e-06
24.2147
7.41884e-06
23.9965
7.32534e-06
23.7783
7.23352e-06
23.5601
7.14176e-06
23.342
7.05086e-06
23.124
6.95778e-06
22.9061
6.86525e-06
22.6883
6.77094e-06
22.4708
6.67455e-06
22.2534
6.57706e-06
22.0363
6.47747e-06
21.8195
6.37756e-06
21.6029
6.27289e-06
21.3867
6.17406e-06
21.1708
6.05242e-06
20.9554
5.98172e-06
20.7403
5.78444e-06
20.5257
5.86744e-06
20.3116
5.33613e-06
20.0979
6.0721e-06
19.8848
4.32834e-06
19.6722
7.14654e-06
19.4603
2.08925e-06
19.2489
9.7006e-06
19.0381
-1.67526e-06
18.828
1.34042e-05
18.6186
-6.20204e-06
18.4099
1.80705e-05
18.2019
-1.27595e-05
17.9946
2.62889e-05
17.7882
-2.37575e-05
17.5825
3.81171e-05
17.3777
-3.37477e-05
17.1737
4.92466e-05
16.9705
-2.13028e-05
16.7682
0.000133163
16.5666
0.000361738
16.365
0.00193509
16.16
0.00870762
15.9361
0.0402536
15.6275
0.178411
15.0019
0.771652
2.09463
13.6522
46.9495
6.82121e-13
46.8744
1.36424e-12
46.7988
6.82121e-13
46.7228
2.27374e-13
46.6466
1.36424e-12
46.57
2.27374e-13
46.493
1.59162e-12
46.4158
2.27374e-13
46.3382
-1.13687e-12
46.2603
-1.59162e-12
46.1821
-2.95586e-12
46.1036
-2.27374e-13
46.0247
0
45.9454
-6.82121e-13
45.8658
-2.27374e-13
45.7857
-1.36424e-12
45.7052
-1.59162e-12
45.6243
1.13687e-12
45.5429
4.54747e-13
45.461
6.82121e-13
45.3786
1.13687e-12
45.2958
2.27374e-13
45.2124
-1.13687e-12
45.1284
2.27374e-13
45.0439
2.27374e-13
44.9588
6.82121e-13
44.8731
1.36424e-12
44.7868
2.95586e-12
44.6999
4.54747e-13
44.6123
1.81899e-12
44.524
-6.82121e-13
44.435
-1.59162e-12
44.3454
-1.81899e-12
44.255
4.54747e-13
44.1638
-1.13687e-12
44.0719
1.13687e-12
43.9792
1.59162e-12
43.8857
4.54747e-13
43.7914
-1.13687e-12
43.6962
-1.36424e-12
43.6002
2.04636e-12
43.5033
-2.27374e-13
43.4055
-1.13687e-12
43.3068
0
43.2072
-1.81899e-12
43.1066
-1.59162e-12
43.005
-9.09495e-13
42.9025
9.09495e-13
42.799
0
42.6944
-6.82121e-13
42.5888
-6.82121e-13
42.4822
1.13687e-12
42.3745
9.09495e-13
42.2657
-4.54747e-13
42.1558
0
42.0448
1.59162e-12
41.9326
2.27374e-12
41.8193
1.59162e-12
41.7048
-9.09495e-13
41.5892
9.09495e-13
41.4723
-9.09495e-13
41.3543
1.13687e-12
41.235
0
41.1145
4.54747e-13
40.9928
-1.13687e-12
40.8699
-6.82121e-13
40.7456
-1.13687e-12
40.6201
-1.81899e-12
40.4932
-9.09495e-13
40.365
-1.59162e-12
40.2355
-1.59162e-12
40.1047
-1.36424e-12
39.9725
-2.04636e-12
39.839
4.54747e-13
39.7041
1.13687e-12
39.5679
-2.27374e-13
39.4303
2.50111e-12
39.2913
1.36424e-12
39.1509
1.13687e-12
39.0092
1.36424e-12
38.866
1.36424e-12
38.7215
9.09495e-13
38.5755
0
38.4281
-1.13687e-12
38.2794
-4.54747e-13
38.1292
2.04636e-12
37.9777
2.27374e-13
37.8247
-9.09495e-13
37.6702
-4.54747e-13
37.5144
4.54747e-13
37.3571
1.13687e-12
37.1984
-1.36424e-12
37.0383
-4.54747e-13
36.8768
-1.59162e-12
36.7138
2.95586e-12
36.5495
-1.59162e-12
36.3837
3.63798e-12
36.2166
-2.50111e-12
36.0481
4.54747e-12
35.8782
-5.22959e-12
35.707
2.27374e-12
35.5344
0
35.3604
1.59162e-12
35.1852
2.27374e-12
35.0085
-2.72848e-12
34.8306
3.41061e-12
34.6513
-1.36424e-12
34.4707
-4.54747e-13
34.2888
4.09273e-12
34.1056
-4.77485e-12
33.9212
2.04636e-12
33.7355
-2.27374e-13
33.5486
4.54747e-13
33.3605
3.41061e-12
33.1711
0
32.9806
4.09273e-12
32.7889
-4.54747e-12
32.596
4.3201e-12
32.4021
-2.04636e-12
32.207
-1.81899e-12
32.0108
-1.13687e-12
31.8135
5.68434e-12
31.6152
-1.31877e-11
31.4159
2.13731e-11
31.2156
-3.04681e-11
31.0143
3.84262e-11
30.812
-4.47926e-11
30.6088
4.61569e-11
30.4047
-5.45697e-11
30.1997
8.04903e-11
29.9938
-1.38016e-10
29.7872
1.85537e-10
29.5797
-1.3506e-10
29.3714
-2.86491e-11
29.1624
1.84173e-10
28.9527
-1.844e-10
28.7422
-2.59206e-11
28.5311
2.39652e-10
28.3194
-1.90767e-10
28.1071
-9.86802e-11
27.8941
2.60798e-10
27.6807
-1.68257e-11
27.4667
-2.66255e-10
27.2522
9.61791e-11
27.0372
2.08956e-10
26.8218
-1.12323e-10
26.606
-1.70758e-10
26.3899
1.03228e-10
26.1734
2.23963e-10
25.9566
-2.13959e-10
25.7395
-2.21235e-10
25.5222
1.06866e-10
25.3046
4.29054e-10
25.0869
-1.31877e-10
24.869
-2.32376e-10
24.651
-4.42924e-10
24.4329
4.90445e-10
24.2147
5.20686e-11
23.9965
3.95175e-10
23.7783
-1.12323e-10
23.5601
1.15961e-10
23.342
-5.64796e-10
23.124
-3.84489e-10
22.9061
-6.03677e-10
22.6883
9.40418e-10
22.4708
-1.47793e-10
22.2534
2.62958e-09
22.0363
-4.31055e-09
21.8195
8.95375e-09
21.6029
-2.00685e-08
21.3867
4.02933e-08
21.1708
-8.1593e-08
20.9554
1.59268e-07
20.7403
-3.0489e-07
20.5257
5.68424e-07
20.3116
-1.03141e-06
20.0979
1.81108e-06
19.8848
-3.03879e-06
19.6722
4.90067e-06
19.4603
-7.49807e-06
19.2489
1.08264e-05
19.0381
-1.4789e-05
18.828
1.92727e-05
18.6186
-2.44495e-05
18.4099
3.07982e-05
18.2019
-3.89576e-05
17.9946
4.92831e-05
17.7882
-6.10928e-05
17.5825
7.2952e-05
17.3777
-8.09201e-05
17.1736
9.28396e-05
16.9706
-6.94136e-05
16.7682
0.000202045
16.5668
0.00040309
16.3659
0.00243816
16.1643
0.0108655
15.9548
0.051227
15.7014
0.234267
15.1914
1.0851
3.04493
14.0456
46.9495
-0.000185793
46.8744
-0.000158625
46.7988
-0.000140399
46.7228
-0.000143691
46.6466
-0.000144789
46.57
-0.000144553
46.493
-0.000144543
46.4158
-0.000144614
46.3382
-0.000144659
46.2603
-0.000144698
46.1821
-0.000144739
46.1036
-0.000144781
46.0247
-0.000144826
45.9454
-0.000144873
45.8658
-0.000144924
45.7857
-0.000144977
45.7052
-0.000145033
45.6243
-0.000145093
45.5429
-0.000145156
45.461
-0.000145222
45.3786
-0.000145291
45.2958
-0.000145364
45.2124
-0.00014544
45.1284
-0.000145518
45.0439
-0.0001456
44.9588
-0.000145685
44.8731
-0.000145773
44.7868
-0.000145863
44.6999
-0.000145958
44.6123
-0.000146055
44.524
-0.000146155
44.435
-0.000146257
44.3454
-0.000146363
44.255
-0.000146472
44.1638
-0.000146584
44.0719
-0.000146699
43.9792
-0.000146817
43.8857
-0.000146938
43.7914
-0.000147062
43.6962
-0.000147189
43.6002
-0.000147319
43.5033
-0.000147452
43.4055
-0.000147588
43.3068
-0.000147727
43.2072
-0.000147868
43.1066
-0.000148012
43.005
-0.000148159
42.9025
-0.000148309
42.799
-0.000148461
42.6944
-0.000148619
42.5888
-0.000148779
42.4822
-0.000148943
42.3745
-0.00014911
42.2657
-0.000149277
42.1558
-0.000149445
42.0448
-0.000149615
41.9326
-0.000149791
41.8193
-0.000149973
41.7048
-0.000150158
41.5892
-0.000150345
41.4723
-0.000150533
41.3543
-0.000150724
41.235
-0.000150921
41.1145
-0.000151123
40.9928
-0.000151331
40.8699
-0.000151546
40.7456
-0.000151764
40.6201
-0.000151985
40.4932
-0.000152206
40.365
-0.000152427
40.2355
-0.000152649
40.1047
-0.000152872
39.9725
-0.0001531
39.839
-0.00015333
39.7041
-0.000153563
39.5679
-0.000153801
39.4303
-0.000154042
39.2913
-0.000154285
39.1509
-0.000154529
39.0092
-0.000154774
38.866
-0.000155017
38.7215
-0.000155259
38.5755
-0.000155504
38.4281
-0.000155752
38.2794
-0.000156002
38.1292
-0.000156249
37.9777
-0.000156489
37.8247
-0.000156718
37.6702
-0.000156934
37.5144
-0.000157125
37.3571
-0.00015728
37.1984
-0.000157389
37.0383
-0.000157447
36.8768
-0.000157446
36.7138
-0.00015737
36.5495
-0.000157198
36.3837
-0.00015691
36.2166
-0.000156489
36.0481
-0.000155921
35.8782
-0.000155188
35.707
-0.000154267
35.5344
-0.000153132
35.3604
-0.000151754
35.1852
-0.000150105
35.0085
-0.000148162
34.8306
-0.000145905
34.6513
-0.00014332
34.4707
-0.000140396
34.2888
-0.00013713
34.1056
-0.000133523
33.9212
-0.000129583
33.7355
-0.000125325
33.5486
-0.000120768
33.3605
-0.000115938
33.1711
-0.000110866
32.9806
-0.000105589
32.7889
-0.000100148
32.596
-9.45897e-05
32.4021
-8.89608e-05
32.207
-8.33106e-05
32.0108
-7.76879e-05
31.8135
-7.21401e-05
31.6152
-6.67126e-05
31.4159
-6.14474e-05
31.2156
-5.63817e-05
31.0143
-5.15483e-05
30.812
-4.69739e-05
30.6088
-4.26797e-05
30.4047
-3.86805e-05
30.1997
-3.49854e-05
29.9938
-3.1598e-05
29.7872
-2.85162e-05
29.5797
-2.57344e-05
29.3714
-2.32414e-05
29.1624
-2.10235e-05
28.9527
-1.90653e-05
28.7422
-1.73475e-05
28.5311
-1.58512e-05
28.3194
-1.45568e-05
28.1071
-1.34434e-05
27.8941
-1.24907e-05
27.6807
-1.16806e-05
27.4667
-1.09945e-05
27.2522
-1.04151e-05
27.0372
-9.92776e-06
26.8218
-9.51887e-06
26.606
-9.17506e-06
26.3899
-8.8851e-06
26.1734
-8.63972e-06
25.9566
-8.43103e-06
25.7395
-8.25162e-06
25.5222
-8.09515e-06
25.3046
-7.95732e-06
25.0869
-7.83369e-06
24.869
-7.7208e-06
24.651
-7.61508e-06
24.4329
-7.51472e-06
24.2147
-7.41833e-06
23.9965
-7.32493e-06
23.7783
-7.23333e-06
23.5601
-7.14216e-06
23.342
-7.05162e-06
23.124
-6.95858e-06
22.9061
-6.86548e-06
22.6883
-6.76931e-06
22.4708
-6.67466e-06
22.2534
-6.57436e-06
22.0363
-6.48255e-06
21.8195
-6.36839e-06
21.6029
-6.29329e-06
21.3867
-6.13357e-06
21.1708
-6.13529e-06
20.9554
-5.82057e-06
20.7403
-6.09787e-06
20.5257
-5.26918e-06
20.3116
-6.46598e-06
20.0979
-3.98123e-06
19.8848
-8.03584e-06
19.6723
-7.10675e-07
19.4603
-1.26353e-05
19.2489
6.56701e-06
19.0381
-2.16717e-05
18.828
1.76392e-05
18.6186
-3.23573e-05
18.4099
2.71144e-05
18.2019
-3.81283e-05
17.9947
2.99296e-05
17.7882
-3.87892e-05
17.5826
3.3182e-05
17.3777
-4.459e-05
17.1737
4.93132e-05
16.9706
-4.52355e-05
16.7683
0.000157246
16.5671
0.000309404
16.367
0.00201557
16.1695
0.00890699
15.9791
0.0431146
15.8133
0.202487
15.6824
1.01945
2.52201
16.0098
46.9496
-0.00040275
46.8744
-0.000303375
46.7988
-0.000283208
46.7229
-0.000288246
46.6466
-0.000288933
46.57
-0.000288814
46.493
-0.000288953
46.4158
-0.000289117
46.3382
-0.000289228
46.2603
-0.000289327
46.1821
-0.000289423
46.1036
-0.00028952
46.0247
-0.000289618
45.9454
-0.000289719
45.8658
-0.000289826
45.7857
-0.000289938
45.7052
-0.000290055
45.6243
-0.000290178
45.5429
-0.000290306
45.461
-0.000290441
45.3787
-0.000290581
45.2958
-0.000290728
45.2124
-0.00029088
45.1285
-0.000291039
45.0439
-0.000291203
44.9589
-0.000291374
44.8732
-0.00029155
44.7869
-0.000291733
44.6999
-0.000291921
44.6123
-0.000292116
44.524
-0.000292316
44.4351
-0.000292522
44.3454
-0.000292734
44.255
-0.000292953
44.1638
-0.000293177
44.0719
-0.000293407
43.9792
-0.000293643
43.8857
-0.000293885
43.7914
-0.000294134
43.6962
-0.000294388
43.6002
-0.000294648
43.5033
-0.000294914
43.4055
-0.000295187
43.3068
-0.000295464
43.2072
-0.000295747
43.1066
-0.000296034
43.0051
-0.000296328
42.9025
-0.000296627
42.799
-0.000296933
42.6945
-0.000297248
42.5889
-0.00029757
42.4822
-0.0002979
42.3745
-0.000298232
42.2657
-0.000298565
42.1558
-0.0002989
42.0448
-0.000299239
41.9326
-0.000299591
41.8193
-0.000299955
41.7049
-0.000300328
41.5892
-0.000300702
41.4723
-0.000301078
41.3543
-0.000301462
41.235
-0.000301854
41.1146
-0.000302257
40.9928
-0.000302672
40.8699
-0.000303101
40.7456
-0.000303539
40.6201
-0.000303983
40.4932
-0.000304425
40.3651
-0.000304866
40.2356
-0.000305308
40.1047
-0.000305755
39.9726
-0.000306209
39.839
-0.00030667
39.7042
-0.000307136
39.5679
-0.000307613
39.4303
-0.000308095
39.2913
-0.000308582
39.151
-0.000309068
39.0092
-0.000309558
38.866
-0.000310042
38.7215
-0.000310526
38.5755
-0.000311015
38.4282
-0.00031151
38.2794
-0.000312009
38.1293
-0.000312502
37.9777
-0.000312979
37.8247
-0.000313437
37.6703
-0.000313867
37.5144
-0.000314249
37.3571
-0.000314555
37.1984
-0.000314766
37.0383
-0.000314873
36.8768
-0.000314863
36.7139
-0.000314702
36.5495
-0.000314347
36.3838
-0.000313758
36.2166
-0.000312899
36.0481
-0.000311743
35.8782
-0.000310255
35.707
-0.000308389
35.5344
-0.000306091
35.3605
-0.000303304
35.1852
-0.000299973
35.0085
-0.00029605
34.8306
-0.000291498
34.6513
-0.000286286
34.4707
-0.000280396
34.2888
-0.000273819
34.1057
-0.000266561
33.9212
-0.00025864
33.7355
-0.000250084
33.5486
-0.000240933
33.3605
-0.000231239
33.1711
-0.000221065
32.9806
-0.000210486
32.7889
-0.000199585
32.5961
-0.000188454
32.4021
-0.000177189
32.207
-0.000165888
32.0108
-0.000154647
31.8135
-0.000143563
31.6152
-0.000132725
31.4159
-0.000122216
31.2156
-0.000112112
31.0143
-0.000102476
30.812
-9.33611e-05
30.6088
-8.48092e-05
30.4047
-7.68494e-05
30.1997
-6.94989e-05
29.9938
-6.27641e-05
29.7872
-5.66406e-05
29.5797
-5.11154e-05
29.3714
-4.61668e-05
29.1624
-4.17672e-05
28.9527
-3.78835e-05
28.7422
-3.44793e-05
28.5311
-3.15155e-05
28.3194
-2.89524e-05
28.1071
-2.67487e-05
27.8941
-2.4865e-05
27.6807
-2.32628e-05
27.4667
-2.19064e-05
27.2522
-2.0762e-05
27.0372
-1.97997e-05
26.8218
-1.89917e-05
26.606
-1.83126e-05
26.3899
-1.77404e-05
26.1734
-1.72558e-05
25.9566
-1.6843e-05
25.7395
-1.64878e-05
25.5222
-1.61789e-05
25.3046
-1.5906e-05
25.0869
-1.56607e-05
24.869
-1.54357e-05
24.651
-1.52257e-05
24.4329
-1.50266e-05
24.2147
-1.4835e-05
23.9965
-1.4649e-05
23.7783
-1.44655e-05
23.5601
-1.42835e-05
23.342
-1.41007e-05
23.124
-1.39167e-05
22.9061
-1.37302e-05
22.6883
-1.35404e-05
22.4708
-1.33489e-05
22.2534
-1.31521e-05
22.0363
-1.29586e-05
21.8195
-1.27485e-05
21.6029
-1.25613e-05
21.3867
-1.23155e-05
21.1708
-1.21751e-05
20.9554
-1.18222e-05
20.7403
-1.18513e-05
20.5257
-1.11898e-05
20.3116
-1.1706e-05
20.0979
-1.02524e-05
19.8848
-1.19611e-05
19.6723
-8.71657e-06
19.4603
-1.3021e-05
19.2489
-6.1533e-06
19.0381
-1.51713e-05
18.828
-2.59676e-06
18.6186
-1.78664e-05
18.4099
8.87622e-07
18.2019
-1.97652e-05
17.9947
3.21367e-06
17.7882
-2.09772e-05
17.5826
6.32278e-06
17.3777
-2.37567e-05
17.1737
1.27124e-05
16.9705
-2.17996e-05
16.7684
4.92908e-05
16.5672
0.00011338
16.3681
0.000732015
16.1742
0.00331482
16.0023
0.0164618
15.9245
0.0827869
16.1225
0.624671
1.4262
17.0227
10.636
-0.000461007
10.619
-0.000330869
10.6019
-0.000317489
10.5846
-0.000321056
10.5674
-0.000321587
10.55
-0.000321562
10.5326
-0.000321717
10.5151
-0.000321886
10.4975
-0.000322004
10.4799
-0.000322112
10.4622
-0.000322217
10.4444
-0.000322323
10.4265
-0.000322431
10.4085
-0.000322544
10.3905
-0.000322662
10.3723
-0.000322786
10.3541
-0.000322916
10.3358
-0.000323052
10.3173
-0.000323195
10.2988
-0.000323344
10.2801
-0.000323501
10.2614
-0.000323664
10.2425
-0.000323833
10.2234
-0.000324009
10.2043
-0.000324192
10.185
-0.000324382
10.1656
-0.000324578
10.1461
-0.000324782
10.1264
-0.000324991
10.1065
-0.000325208
10.0865
-0.000325431
10.0664
-0.00032566
10.0461
-0.000325896
10.0256
-0.000326139
10.0049
-0.000326389
9.9841
-0.000326645
9.9631
-0.000326907
9.94192
-0.000327177
9.92055
-0.000327453
9.89899
-0.000327736
9.87724
-0.000328025
9.85529
-0.000328322
9.83314
-0.000328625
9.81078
-0.000328934
9.78821
-0.000329249
9.76542
-0.000329569
9.74242
-0.000329895
9.71919
-0.000330228
9.69573
-0.000330568
9.67205
-0.00033092
9.64813
-0.000331278
9.62397
-0.000331646
9.59957
-0.000332016