/*--------------------------------*- C++ -*----------------------------------*\
| =========                 |                                                 |
| \\      /  F ield         | OpenFOAM: The Open Source CFD Toolbox           |
|  \\    /   O peration     | Version:  3.0.x                                 |
|   \\  /    A nd           | Web:      www.OpenFOAM.org                      |
|    \\/     M anipulation  |                                                 |
\*---------------------------------------------------------------------------*/
FoamFile
{
    version     2.0;
    format      ascii;
    class       volScalarField;
    location    "0.519925";
    object      T;
}
// * * * * * * * * * * * * * * * * * * * * * * * * * * * * * * * * * * * * * //

dimensions      [0 0 0 1 0 0 0];

internalField   nonuniform List<scalar> 
13800
(
773.971
773.964
773.957
773.954
773.954
773.956
773.958
773.963
773.969
773.975
773.982
773.99
773.998
774.007
774.016
774.026
774.036
774.047
774.058
774.07
774.082
774.095
774.109
774.123
774.137
774.152
774.168
774.184
774.201
774.218
774.236
774.254
774.273
774.292
774.312
774.332
774.353
774.374
774.396
774.419
774.442
774.465
774.489
774.514
774.539
774.565
774.591
774.618
774.645
774.673
774.701
774.73
774.759
774.789
774.819
774.85
774.882
774.914
774.947
774.98
775.014
775.048
775.082
775.117
775.151
775.186
775.222
775.259
775.296
775.333
775.372
775.411
775.45
775.49
775.531
775.572
775.613
775.655
775.697
775.74
775.783
775.827
775.871
775.915
775.96
776.004
776.05
776.095
776.141
776.188
776.235
776.284
776.332
776.381
776.431
776.482
776.532
776.584
776.635
776.687
776.739
776.791
776.843
776.896
776.949
777.002
777.056
777.111
777.166
777.221
777.277
777.334
777.39
777.447
777.505
777.562
777.62
777.679
777.737
777.796
777.856
777.915
777.975
778.035
778.095
778.156
778.217
778.278
778.34
778.401
778.463
778.525
778.587
778.65
778.712
778.775
778.838
778.901
778.964
779.027
779.091
779.155
779.218
779.282
779.346
779.41
779.474
779.538
779.602
779.666
779.731
779.795
779.859
779.924
779.988
780.052
780.116
780.181
780.245
780.309
780.373
780.437
780.501
780.565
780.629
780.692
780.756
780.82
780.883
780.946
781.009
781.072
781.135
781.197
781.26
781.322
781.384
781.446
781.507
781.57
781.629
781.693
781.75
781.815
781.87
781.936
781.989
782.057
782.106
782.177
782.222
782.295
782.337
782.413
782.451
782.528
782.567
782.637
782.694
782.735
773.956
773.949
773.942
773.939
773.939
773.94
773.943
773.948
773.954
773.96
773.967
773.975
773.983
773.992
774.001
774.011
774.021
774.032
774.044
774.056
774.068
774.081
774.094
774.108
774.123
774.138
774.154
774.17
774.187
774.204
774.221
774.24
774.259
774.278
774.298
774.318
774.339
774.361
774.383
774.405
774.428
774.452
774.476
774.5
774.526
774.551
774.578
774.604
774.632
774.659
774.688
774.717
774.746
774.776
774.806
774.837
774.869
774.901
774.934
774.967
775.001
775.035
775.07
775.104
775.139
775.174
775.21
775.246
775.283
775.321
775.359
775.398
775.438
775.478
775.519
775.56
775.601
775.643
775.686
775.728
775.772
775.816
775.86
775.904
775.949
775.993
776.039
776.084
776.13
776.177
776.225
776.273
776.321
776.371
776.42
776.471
776.522
776.573
776.625
776.676
776.728
776.78
776.833
776.885
776.939
776.992
777.046
777.101
777.156
777.212
777.267
777.324
777.38
777.438
777.495
777.553
777.611
777.669
777.728
777.787
777.846
777.906
777.966
778.026
778.086
778.147
778.208
778.269
778.33
778.392
778.453
778.515
778.578
778.64
778.703
778.765
778.828
778.891
778.955
779.018
779.081
779.145
779.209
779.273
779.336
779.4
779.464
779.529
779.593
779.657
779.721
779.785
779.85
779.914
779.978
780.043
780.107
780.171
780.235
780.3
780.364
780.428
780.492
780.556
780.619
780.683
780.747
780.81
780.873
780.937
781
781.063
781.125
781.188
781.25
781.313
781.375
781.437
781.498
781.56
781.62
781.683
781.741
781.806
781.861
781.927
781.979
782.048
782.097
782.167
782.213
782.286
782.327
782.404
782.441
782.519
782.556
782.633
782.672
782.758
773.956
773.949
773.942
773.939
773.939
773.94
773.943
773.948
773.954
773.96
773.967
773.975
773.983
773.992
774.001
774.011
774.021
774.032
774.044
774.055
774.068
774.081
774.094
774.108
774.123
774.138
774.154
774.17
774.186
774.204
774.221
774.24
774.259
774.278
774.298
774.318
774.339
774.361
774.383
774.405
774.428
774.452
774.476
774.5
774.526
774.551
774.578
774.604
774.632
774.659
774.688
774.717
774.746
774.776
774.806
774.837
774.869
774.901
774.934
774.967
775.001
775.035
775.07
775.104
775.139
775.174
775.21
775.246
775.283
775.321
775.359
775.398
775.438
775.478
775.519
775.56
775.601
775.643
775.686
775.728
775.772
775.815
775.86
775.904
775.949
775.993
776.039
776.084
776.13
776.177
776.225
776.273
776.321
776.371
776.42
776.471
776.522
776.573
776.625
776.676
776.728
776.78
776.833
776.885
776.939
776.992
777.046
777.101
777.156
777.212
777.267
777.324
777.38
777.437
777.495
777.553
777.611
777.669
777.728
777.787
777.846
777.906
777.965
778.026
778.086
778.147
778.208
778.269
778.33
778.392
778.453
778.515
778.578
778.64
778.703
778.765
778.828
778.891
778.955
779.018
779.081
779.145
779.209
779.273
779.336
779.4
779.464
779.529
779.593
779.657
779.721
779.785
779.85
779.914
779.978
780.043
780.107
780.171
780.235
780.3
780.364
780.428
780.492
780.556
780.619
780.683
780.747
780.81
780.873
780.937
781
781.063
781.125
781.188
781.25
781.313
781.375
781.437
781.498
781.56
781.62
781.683
781.741
781.806
781.86
781.927
781.979
782.048
782.097
782.167
782.213
782.286
782.327
782.404
782.441
782.519
782.556
782.633
782.671
782.758
773.956
773.949
773.942
773.939
773.939
773.94
773.943
773.948
773.954
773.96
773.967
773.975
773.983
773.992
774.001
774.011
774.021
774.032
774.044
774.056
774.068
774.081
774.094
774.109
774.123
774.138
774.154
774.17
774.187
774.204
774.222
774.24
774.259
774.278
774.298
774.318
774.339
774.361
774.383
774.405
774.428
774.452
774.476
774.501
774.526
774.551
774.578
774.604
774.632
774.659
774.688
774.717
774.746
774.776
774.806
774.837
774.869
774.901
774.934
774.967
775.001
775.035
775.07
775.104
775.139
775.174
775.21
775.246
775.283
775.321
775.359
775.398
775.438
775.478
775.519
775.56
775.602
775.643
775.686
775.729
775.772
775.816
775.86
775.904
775.949
775.993
776.039
776.084
776.13
776.177
776.225
776.273
776.321
776.371
776.42
776.471
776.522
776.573
776.625
776.676
776.728
776.78
776.833
776.885
776.939
776.992
777.046
777.101
777.156
777.212
777.267
777.324
777.38
777.437
777.495
777.553
777.611
777.669
777.728
777.787
777.846
777.906
777.965
778.026
778.086
778.147
778.208
778.269
778.33
778.392
778.453
778.515
778.578
778.64
778.703
778.765
778.828
778.891
778.955
779.018
779.081
779.145
779.209
779.273
779.336
779.4
779.464
779.529
779.593
779.657
779.721
779.785
779.85
779.914
779.978
780.043
780.107
780.171
780.235
780.3
780.364
780.428
780.492
780.556
780.619
780.683
780.747
780.81
780.873
780.937
781
781.063
781.125
781.188
781.25
781.313
781.375
781.437
781.498
781.56
781.62
781.683
781.741
781.806
781.861
781.927
781.979
782.048
782.097
782.167
782.213
782.286
782.327
782.404
782.442
782.519
782.556
782.632
782.671
782.746
773.956
773.949
773.942
773.939
773.939
773.941
773.943
773.948
773.954
773.96
773.968
773.975
773.983
773.992
774.001
774.011
774.022
774.032
774.044
774.056
774.068
774.081
774.095
774.109
774.123
774.138
774.154
774.17
774.187
774.204
774.222
774.24
774.259
774.278
774.298
774.318
774.339
774.361
774.383
774.405
774.428
774.452
774.476
774.501
774.526
774.551
774.578
774.604
774.632
774.66
774.688
774.717
774.746
774.776
774.806
774.837
774.869
774.901
774.934
774.967
775.001
775.035
775.07
775.104
775.139
775.174
775.21
775.246
775.283
775.321
775.359
775.398
775.438
775.478
775.519
775.56
775.602
775.643
775.686
775.729
775.772
775.816
775.86
775.904
775.949
775.993
776.039
776.084
776.131
776.177
776.225
776.273
776.321
776.371
776.42
776.471
776.522
776.573
776.625
776.676
776.728
776.78
776.833
776.885
776.939
776.992
777.046
777.101
777.156
777.212
777.267
777.324
777.38
777.437
777.495
777.553
777.611
777.669
777.728
777.787
777.846
777.906
777.965
778.026
778.086
778.147
778.208
778.269
778.33
778.392
778.453
778.515
778.578
778.64
778.703
778.765
778.828
778.891
778.955
779.018
779.081
779.145
779.209
779.273
779.336
779.4
779.464
779.529
779.593
779.657
779.721
779.785
779.85
779.914
779.978
780.043
780.107
780.171
780.235
780.3
780.364
780.428
780.492
780.556
780.619
780.683
780.747
780.81
780.873
780.937
781
781.063
781.125
781.188
781.25
781.313
781.374
781.437
781.498
781.56
781.62
781.683
781.741
781.806
781.86
781.927
781.979
782.048
782.096
782.167
782.213
782.286
782.328
782.403
782.442
782.518
782.556
782.633
782.67
782.752
773.956
773.949
773.942
773.939
773.939
773.941
773.943
773.948
773.954
773.96
773.968
773.975
773.983
773.992
774.001
774.011
774.022
774.032
774.044
774.056
774.068
774.081
774.095
774.109
774.123
774.138
774.154
774.17
774.187
774.204
774.222
774.24
774.259
774.278
774.298
774.318
774.339
774.361
774.383
774.405
774.428
774.452
774.476
774.501
774.526
774.551
774.578
774.604
774.632
774.66
774.688
774.717
774.746
774.776
774.806
774.837
774.869
774.901
774.934
774.967
775.001
775.035
775.07
775.104
775.139
775.174
775.21
775.246
775.283
775.321
775.359
775.398
775.438
775.478
775.519
775.56
775.602
775.643
775.686
775.729
775.772
775.816
775.86
775.904
775.949
775.993
776.039
776.084
776.131
776.177
776.225
776.273
776.321
776.371
776.42
776.471
776.522
776.573
776.625
776.676
776.728
776.78
776.833
776.885
776.939
776.992
777.046
777.101
777.156
777.212
777.267
777.324
777.38
777.437
777.495
777.553
777.611
777.669
777.728
777.787
777.846
777.906
777.965
778.026
778.086
778.147
778.208
778.269
778.33
778.392
778.453
778.515
778.578
778.64
778.703
778.765
778.828
778.891
778.955
779.018
779.081
779.145
779.209
779.273
779.336
779.4
779.464
779.529
779.593
779.657
779.721
779.785
779.85
779.914
779.978
780.043
780.107
780.171
780.235
780.3
780.364
780.428
780.492
780.556
780.619
780.683
780.747
780.81
780.873
780.937
781
781.063
781.125
781.188
781.25
781.313
781.375
781.437
781.498
781.56
781.621
781.682
781.742
781.804
781.863
781.923
781.986
782.039
782.108
782.155
782.225
782.274
782.338
782.395
782.449
782.513
782.563
782.621
782.679
782.732
773.956
773.949
773.942
773.939
773.939
773.94
773.943
773.948
773.954
773.96
773.967
773.975
773.983
773.992
774.001
774.011
774.021
774.032
774.044
774.056
774.068
774.081
774.094
774.109
774.123
774.138
774.154
774.17
774.187
774.204
774.222
774.24
774.259
774.278
774.298
774.318
774.339
774.361
774.383
774.405
774.428
774.452
774.476
774.501
774.526
774.551
774.578
774.604
774.632
774.659
774.688
774.717
774.746
774.776
774.806
774.837
774.869
774.901
774.934
774.967
775.001
775.035
775.07
775.104
775.139
775.174
775.21
775.246
775.283
775.321
775.359
775.398
775.438
775.478
775.519
775.56
775.602
775.643
775.686
775.729
775.772
775.816
775.86
775.904
775.949
775.993
776.039
776.084
776.13
776.177
776.225
776.273
776.321
776.371
776.42
776.471
776.522
776.573
776.625
776.676
776.728
776.78
776.833
776.885
776.939
776.992
777.046
777.101
777.156
777.212
777.267
777.324
777.38
777.437
777.495
777.553
777.611
777.669
777.728
777.787
777.846
777.906
777.965
778.026
778.086
778.147
778.208
778.269
778.33
778.392
778.453
778.515
778.578
778.64
778.703
778.765
778.828
778.891
778.955
779.018
779.081
779.145
779.209
779.273
779.336
779.4
779.464
779.529
779.593
779.657
779.721
779.785
779.85
779.914
779.978
780.043
780.107
780.171
780.235
780.3
780.364
780.428
780.492
780.556
780.619
780.683
780.747
780.81
780.873
780.937
781
781.063
781.125
781.188
781.25
781.313
781.375
781.436
781.499
781.559
781.622
781.68
781.745
781.8
781.867
781.919
781.988
782.038
782.107
782.155
782.226
782.271
782.345
782.385
782.462
782.499
782.576
782.612
782.689
782.726
773.956
773.949
773.942
773.939
773.939
773.94
773.943
773.948
773.954
773.96
773.967
773.975
773.983
773.992
774.001
774.011
774.021
774.032
774.044
774.055
774.068
774.081
774.094
774.108
774.123
774.138
774.154
774.17
774.186
774.204
774.221
774.24
774.259
774.278
774.298
774.318
774.339
774.361
774.383
774.405
774.428
774.452
774.476
774.5
774.526
774.551
774.578
774.604
774.632
774.659
774.688
774.717
774.746
774.776
774.806
774.837
774.869
774.901
774.934
774.967
775.001
775.035
775.07
775.104
775.139
775.174
775.21
775.246
775.283
775.321
775.359
775.398
775.438
775.478
775.519
775.56
775.601
775.643
775.686
775.728
775.772
775.815
775.86
775.904
775.949
775.993
776.039
776.084
776.13
776.177
776.225
776.273
776.321
776.371
776.42
776.471
776.522
776.573
776.625
776.676
776.728
776.78
776.833
776.885
776.939
776.992
777.046
777.101
777.156
777.212
777.267
777.324
777.38
777.437
777.495
777.553
777.611
777.669
777.728
777.787
777.846
777.906
777.965
778.026
778.086
778.147
778.208
778.269
778.33
778.392
778.453
778.515
778.578
778.64
778.703
778.765
778.828
778.891
778.955
779.018
779.081
779.145
779.209
779.273
779.336
779.4
779.464
779.529
779.593
779.657
779.721
779.785
779.85
779.914
779.978
780.043
780.107
780.171
780.235
780.3
780.364
780.428
780.492
780.556
780.619
780.683
780.747
780.81
780.873
780.937
781
781.063
781.125
781.188
781.25
781.313
781.375
781.436
781.499
781.559
781.622
781.68
781.745
781.8
781.867
781.919
781.988
782.037
782.108
782.154
782.227
782.27
782.345
782.384
782.462
782.499
782.576
782.611
782.705
782.718
773.956
773.949
773.942
773.939
773.939
773.94
773.943
773.948
773.954
773.96
773.967
773.975
773.983
773.992
774.001
774.011
774.021
774.032
774.044
774.056
774.068
774.081
774.094
774.108
774.123
774.138
774.154
774.17
774.187
774.204
774.221
774.24
774.259
774.278
774.298
774.318
774.339
774.361
774.383
774.405
774.428
774.452
774.476
774.5
774.526
774.551
774.578
774.604
774.632
774.659
774.688
774.717
774.746
774.776
774.806
774.837
774.869
774.901
774.934
774.967
775.001
775.035
775.07
775.104
775.139
775.174
775.21
775.246
775.283
775.321
775.359
775.398
775.438
775.478
775.519
775.56
775.601
775.643
775.686
775.728
775.772
775.816
775.86
775.904
775.949
775.993
776.039
776.084
776.13
776.177
776.225
776.273
776.321
776.371
776.42
776.471
776.522
776.573
776.625
776.676
776.728
776.78
776.833
776.885
776.939
776.992
777.046
777.101
777.156
777.212
777.267
777.324
777.38
777.438
777.495
777.553
777.611
777.669
777.728
777.787
777.846
777.906
777.966
778.026
778.086
778.147
778.208
778.269
778.33
778.392
778.453
778.515
778.578
778.64
778.703
778.765
778.828
778.891
778.955
779.018
779.081
779.145
779.209
779.273
779.336
779.4
779.464
779.529
779.593
779.657
779.721
779.785
779.85
779.914
779.978
780.043
780.107
780.171
780.235
780.3
780.364
780.428
780.492
780.556
780.619
780.683
780.747
780.81
780.873
780.937
781
781.063
781.125
781.188
781.25
781.312
781.375
781.436
781.499
781.559
781.622
781.68
781.745
781.8
781.867
781.919
781.988
782.037
782.108
782.154
782.228
782.27
782.345
782.384
782.462
782.499
782.576
782.61
782.71
782.704
773.971
773.964
773.957
773.954
773.954
773.956
773.958
773.963
773.969
773.975
773.982
773.99
773.998
774.007
774.016
774.026
774.036
774.047
774.058
774.07
774.082
774.095
774.109
774.123
774.137
774.152
774.168
774.184
774.201
774.218
774.236
774.254
774.273
774.292
774.312
774.332
774.353
774.374
774.396
774.419
774.442
774.465
774.489
774.514
774.539
774.565
774.591
774.618
774.645
774.673
774.701
774.73
774.759
774.789
774.819
774.85
774.882
774.914
774.947
774.98
775.014
775.048
775.082
775.117
775.151
775.186
775.222
775.259
775.296
775.333
775.372
775.411
775.45
775.49
775.531
775.572
775.613
775.655
775.697
775.74
775.783
775.827
775.871
775.915
775.96
776.004
776.05
776.095
776.141
776.188
776.235
776.284
776.332
776.381
776.431
776.482
776.532
776.584
776.635
776.687
776.739
776.791
776.843
776.896
776.949
777.002
777.056
777.111
777.166
777.221
777.277
777.334
777.39
777.447
777.505
777.562
777.62
777.679
777.737
777.796
777.856
777.915
777.975
778.035
778.095
778.156
778.217
778.278
778.34
778.401
778.463
778.525
778.587
778.65
778.712
778.775
778.838
778.901
778.964
779.027
779.091
779.155
779.218
779.282
779.346
779.41
779.474
779.538
779.602
779.666
779.731
779.795
779.859
779.924
779.988
780.052
780.116
780.181
780.245
780.309
780.373
780.437
780.501
780.565
780.629
780.692
780.756
780.82
780.883
780.946
781.009
781.072
781.135
781.197
781.26
781.322
781.384
781.446
781.508
781.568
781.632
781.689
781.755
781.809
781.877
781.928
781.998
782.046
782.118
782.163
782.237
782.279
782.355
782.393
782.471
782.508
782.586
782.619
782.723
782.687
782.792
782.818
782.841
782.863
782.883
782.899
782.911
782.921
782.932
782.943
782.954
782.965
782.976
782.987
782.999
783.01
783.021
783.031
783.042
783.046
782.792
782.812
782.829
782.844
782.861
782.877
782.891
782.906
782.918
782.93
782.94
782.949
782.959
782.968
782.979
782.989
782.998
783.008
783.016
783.02
782.794
782.812
782.829
782.841
782.857
782.873
782.888
782.903
782.916
782.928
782.94
782.949
782.959
782.965
782.974
782.98
782.991
782.997
783.008
783.013
782.784
782.798
782.811
782.823
782.835
782.848
782.862
782.875
782.891
782.906
782.924
782.937
782.954
782.966
782.982
782.994
783.007
783.016
783.025
783.03
782.777
782.792
782.805
782.816
782.827
782.836
782.848
782.856
782.867
782.875
782.885
782.893
782.902
782.911
782.918
782.927
782.936
782.946
782.956
782.968
782.763
782.771
782.779
782.787
782.798
782.807
782.82
782.832
782.846
782.859
782.874
782.889
782.904
782.92
782.937
782.953
782.971
782.986
783.003
783.015
782.757
782.765
782.775
782.785
782.793
782.801
782.808
782.815
782.822
782.828
782.834
782.84
782.846
782.851
782.856
782.861
782.867
782.872
782.88
782.887
782.732
782.732
782.736
782.74
782.746
782.754
782.762
782.773
782.785
782.797
782.81
782.823
782.837
782.851
782.866
782.879
782.894
782.907
782.922
782.933
782.706
782.706
782.708
782.711
782.716
782.722
782.728
782.735
782.742
782.75
782.757
782.765
782.774
782.783
782.793
782.803
782.814
782.826
782.839
782.854
782.689
782.686
782.689
782.691
782.695
782.702
782.709
782.719
782.729
782.74
782.751
782.763
782.774
782.788
782.801
782.816
782.83
782.847
782.863
782.882
783.064
783.094
783.123
783.162
783.205
783.246
783.284
783.319
783.354
783.392
783.433
783.475
783.515
783.554
783.592
783.629
783.667
783.705
783.743
783.781
783.819
783.857
783.894
783.931
783.968
784.005
784.042
784.078
784.114
784.15
784.185
784.221
784.256
784.291
784.326
784.36
784.395
784.429
784.462
784.495
784.528
784.56
784.593
784.625
784.657
784.689
784.72
784.751
784.782
784.813
784.844
784.874
784.904
784.935
784.964
784.994
785.023
785.051
785.079
785.107
785.135
785.163
785.191
785.218
785.245
785.272
785.299
785.325
785.351
785.376
785.402
785.427
785.452
785.477
785.501
785.525
785.549
785.573
785.597
785.62
785.643
785.667
785.689
785.712
785.734
785.756
785.778
785.799
785.82
785.841
785.862
785.882
785.902
785.922
785.942
785.961
785.981
786
786.019
786.038
786.056
786.074
786.092
786.11
786.128
786.146
786.162
786.179
786.194
786.21
786.227
786.243
786.259
786.274
786.286
786.297
786.307
786.315
786.325
786.338
786.355
786.371
786.375
786.367
786.356
786.354
786.382
786.526
786.945
787.479
788.003
788.483
788.89
789.203
789.407
789.496
789.505
789.482
789.359
788.909
788.261
787.712
787.287
786.991
786.802
786.687
786.615
786.573
786.555
786.563
786.597
786.626
786.648
786.666
786.68
786.693
786.703
786.713
786.721
786.729
786.737
786.744
786.751
786.757
786.763
786.769
786.775
786.78
786.786
786.791
786.796
786.8
786.806
786.809
786.815
786.817
786.825
786.824
786.833
786.831
786.841
786.838
786.848
786.844
786.855
786.851
786.861
786.856
786.866
786.862
786.872
786.867
786.877
786.872
786.882
786.877
786.886
786.88
786.895
786.891
783.038
783.077
783.109
783.144
783.184
783.225
783.263
783.299
783.333
783.37
783.409
783.45
783.49
783.529
783.567
783.604
783.641
783.679
783.717
783.755
783.792
783.83
783.867
783.904
783.941
783.978
784.015
784.051
784.087
784.123
784.158
784.193
784.228
784.263
784.298
784.332
784.367
784.401
784.434
784.468
784.5
784.533
784.565
784.597
784.629
784.661
784.692
784.723
784.754
784.785
784.815
784.846
784.876
784.906
784.936
784.965
784.994
785.023
785.051
785.079
785.107
785.135
785.162
785.189
785.217
785.243
785.27
785.296
785.322
785.348
785.373
785.398
785.423
785.448
785.473
785.497
785.521
785.544
785.567
785.591
785.614
785.637
785.66
785.682
785.705
785.727
785.748
785.77
785.791
785.812
785.833
785.853
785.873
785.893
785.913
785.932
785.952
785.971
785.99
786.009
786.027
786.046
786.064
786.081
786.099
786.116
786.134
786.15
786.168
786.184
786.2
786.216
786.232
786.246
786.26
786.274
786.285
786.297
786.311
786.327
786.343
786.359
786.37
786.373
786.366
786.353
786.343
786.334
786.32
786.298
786.276
786.262
786.268
786.32
786.427
786.543
786.66
786.767
786.857
786.92
786.934
786.926
786.903
786.851
786.792
786.739
786.693
786.657
786.636
786.63
786.637
786.648
786.658
786.668
786.678
786.687
786.697
786.705
786.713
786.721
786.728
786.735
786.742
786.749
786.755
786.761
786.767
786.772
786.777
786.782
786.788
786.792
786.797
786.801
786.807
786.809
786.816
786.816
786.825
786.823
786.832
786.83
786.839
786.836
786.846
786.843
786.852
786.849
786.858
786.854
786.863
786.859
786.868
786.864
786.873
786.869
786.878
786.873
786.883
786.883
783.034
783.076
783.109
783.145
783.185
783.228
783.267
783.302
783.337
783.374
783.414
783.455
783.495
783.534
783.571
783.608
783.646
783.683
783.721
783.759
783.797
783.834
783.872
783.909
783.946
783.983
784.019
784.056
784.092
784.127
784.163
784.198
784.233
784.268
784.302
784.337
784.371
784.405
784.439
784.472
784.505
784.538
784.57
784.602
784.634
784.665
784.697
784.728
784.759
784.79
784.82
784.85
784.88
784.91
784.94
784.97
784.999
785.028
785.056
785.084
785.112
785.139
785.167
785.194
785.221
785.248
785.275
785.301
785.327
785.352
785.378
785.403
785.428
785.453
785.477
785.501
785.525
785.549
785.572
785.595
785.618
785.641
785.664
785.687
785.709
785.731
785.753
785.774
785.795
785.816
785.837
785.857
785.877
785.897
785.917
785.936
785.956
785.975
785.994
786.013
786.031
786.05
786.067
786.085
786.103
786.121
786.138
786.155
786.171
786.188
786.205
786.221
786.236
786.251
786.266
786.28
786.292
786.303
786.316
786.33
786.347
786.367
786.384
786.391
786.38
786.36
786.329
786.294
786.259
786.228
786.2
786.177
786.161
786.159
786.187
786.259
786.342
786.428
786.512
786.585
786.645
786.688
786.713
786.721
786.715
786.703
786.687
786.673
786.664
786.659
786.659
786.662
786.667
786.674
786.682
786.69
786.698
786.706
786.714
786.721
786.729
786.736
786.742
786.749
786.755
786.761
786.767
786.772
786.777
786.782
786.788
786.792
786.797
786.801
786.807
786.809
786.816
786.816
786.825
786.823
786.832
786.83
786.839
786.836
786.846
786.843
786.852
786.849
786.858
786.854
786.863
786.859
786.868
786.864
786.873
786.869
786.878
786.873
786.882
786.88
783.046
783.095
783.14
783.18
783.221
783.263
783.307
783.351
783.393
783.432
783.472
783.512
783.553
783.594
783.635
783.674
783.713
783.751
783.789
783.827
783.865
783.903
783.94
783.978
784.015
784.052
784.088
784.125
784.161
784.196
784.232
784.267
784.302
784.337
784.372
784.406
784.441
784.474
784.508
784.541
784.574
784.607
784.639
784.671
784.703
784.735
784.766
784.797
784.828
784.859
784.889
784.92
784.95
784.98
785.01
785.039
785.068
785.097
785.125
785.153
785.181
785.209
785.236
785.264
785.291
785.317
785.344
785.37
785.396
785.422
785.447
785.473
785.497
785.522
785.546
785.57
785.594
785.618
785.642
785.665
785.688
785.711
785.734
785.757
785.779
785.801
785.822
785.844
785.865
785.885
785.906
785.926
785.946
785.966
785.986
786.006
786.025
786.044
786.063
786.082
786.1
786.119
786.137
786.154
786.171
786.187
786.204
786.221
786.238
786.254
786.268
786.283
786.296
786.307
786.32
786.331
786.342
786.356
786.372
786.388
786.402
786.412
786.412
786.402
786.387
786.372
786.36
786.349
786.337
786.327
786.321
786.325
786.342
786.369
786.404
786.442
786.48
786.517
786.549
786.577
786.599
786.614
786.625
786.631
786.635
786.637
786.639
786.642
786.647
786.652
786.658
786.665
786.672
786.68
786.688
786.696
786.703
786.71
786.718
786.725
786.731
786.738
786.744
786.75
786.756
786.762
786.767
786.773
786.778
786.783
786.788
786.793
786.797
786.801
786.807
786.809
786.816
786.816
786.824
786.824
786.831
786.832
786.838
786.837
786.846
786.842
786.853
786.849
786.858
786.854
786.863
786.859
786.869
786.864
786.873
786.869
786.878
786.873
786.877
786.88
782.994
783.034
783.078
783.119
783.16
783.199
783.236
783.272
783.31
783.349
783.39
783.43
783.47
783.509
783.548
783.586
783.625
783.664
783.703
783.741
783.778
783.816
783.853
783.89
783.927
783.963
784
784.036
784.072
784.108
784.143
784.179
784.214
784.248
784.283
784.317
784.351
784.385
784.418
784.452
784.485
784.518
784.551
784.583
784.615
784.646
784.678
784.709
784.74
784.771
784.801
784.831
784.861
784.891
784.92
784.949
784.978
785.007
785.036
785.064
785.092
785.12
785.148
785.175
785.202
785.228
785.255
785.281
785.307
785.333
785.359
785.384
785.409
785.434
785.458
785.482
785.506
785.53
785.554
785.577
785.6
785.622
785.645
785.667
785.689
785.711
785.733
785.755
785.776
785.797
785.818
785.839
785.859
785.879
785.899
785.919
785.938
785.958
785.976
785.996
786.014
786.032
786.051
786.069
786.086
786.104
786.122
786.139
786.156
786.172
786.189
786.206
786.222
786.238
786.254
786.269
786.285
786.3
786.314
786.327
786.34
786.356
786.373
786.389
786.401
786.408
786.413
786.414
786.414
786.413
786.413
786.416
786.424
786.435
786.45
786.468
786.487
786.506
786.525
786.542
786.557
786.571
786.583
786.595
786.605
786.615
786.624
786.633
786.642
786.65
786.659
786.667
786.675
786.683
786.69
786.698
786.705
786.712
786.719
786.726
786.732
786.739
786.745
786.751
786.756
786.762
786.768
786.773
786.778
786.783
786.788
786.792
786.797
786.802
786.806
786.811
786.814
786.819
786.821
786.827
786.829
786.832
786.838
786.838
786.845
786.844
786.849
786.852
786.853
786.86
786.857
786.865
786.863
786.867
786.872
786.87
786.874
786.877
786.879
786.879
783.048
783.107
783.167
783.227
783.285
783.34
783.392
783.443
783.493
783.541
783.588
783.634
783.679
783.723
783.765
783.806
783.846
783.886
783.925
783.963
784.002
784.04
784.077
784.114
784.151
784.188
784.225
784.261
784.297
784.333
784.368
784.404
784.439
784.474
784.509
784.543
784.578
784.611
784.645
784.678
784.711
784.744
784.776
784.808
784.84
784.871
784.903
784.934
784.965
784.996
785.027
785.057
785.087
785.117
785.146
785.175
785.204
785.233
785.262
785.29
785.318
785.345
785.373
785.4
785.427
785.453
785.479
785.506
785.531
785.557
785.582
785.607
785.632
785.657
785.681
785.705
785.729
785.753
785.776
785.8
785.822
785.845
785.867
785.889
785.911
785.933
785.953
785.974
785.994
786.013
786.032
786.052
786.071
786.089
786.108
786.125
786.142
786.159
786.175
786.19
786.206
786.222
786.238
786.253
786.267
786.281
786.293
786.305
786.316
786.326
786.337
786.347
786.359
786.372
786.386
786.402
786.416
786.427
786.434
786.436
786.434
786.428
786.419
786.409
786.402
786.397
786.395
786.395
786.396
786.399
786.403
786.41
786.419
786.432
786.447
786.466
786.486
786.506
786.527
786.546
786.563
786.578
786.592
786.604
786.615
786.625
786.635
786.643
786.652
786.66
786.667
786.675
786.682
786.689
786.696
786.703
786.709
786.716
786.722
786.728
786.734
786.74
786.746
786.752
786.757
786.763
786.768
786.773
786.778
786.784
786.788
786.793
786.797
786.803
786.805
786.812
786.813
786.82
786.82
786.828
786.827
786.836
786.833
786.843
786.84
786.849
786.846
786.855
786.851
786.861
786.857
786.866
786.862
786.871
786.867
786.875
786.871
786.879
786.876
786.883
782.912
782.949
782.988
783.028
783.067
783.105
783.144
783.183
783.221
783.26
783.299
783.337
783.376
783.415
783.453
783.492
783.53
783.569
783.607
783.645
783.682
783.72
783.757
783.794
783.83
783.866
783.902
783.938
783.974
784.009
784.045
784.08
784.115
784.149
784.184
784.218
784.252
784.286
784.319
784.353
784.385
784.418
784.451
784.483
784.515
784.547
784.578
784.61
784.641
784.672
784.702
784.732
784.762
784.792
784.821
784.85
784.879
784.908
784.937
784.965
784.993
785.021
785.048
785.076
785.103
785.129
785.156
785.183
785.209
785.235
785.26
785.286
785.311
785.335
785.36
785.384
785.408
785.432
785.456
785.479
785.503
785.525
785.548
785.57
785.592
785.614
785.635
785.657
785.678
785.699
785.72
785.741
785.761
785.781
785.8
785.82
785.839
785.858
785.877
785.896
785.914
785.932
785.95
785.968
785.985
786.003
786.019
786.036
786.053
786.07
786.087
786.102
786.117
786.134
786.15
786.166
786.18
786.193
786.209
786.227
786.243
786.257
786.273
786.287
786.299
786.312
786.329
786.351
786.372
786.392
786.41
786.423
786.427
786.421
786.41
786.402
786.402
786.414
786.438
786.466
786.496
786.525
786.55
786.572
786.592
786.608
786.622
786.634
786.646
786.655
786.665
786.673
786.681
786.688
786.696
786.702
786.709
786.716
786.722
786.728
786.734
786.74
786.746
786.752
786.757
786.763
786.768
786.773
786.778
786.783
786.788
786.793
786.797
786.803
786.805
786.812
786.813
786.82
786.82
786.828
786.827
786.836
786.833
786.843
786.84
786.849
786.846
786.855
786.851
786.861
786.857
786.866
786.862
786.871
786.867
786.875
786.871
786.877
786.879
786.881
782.973
783.03
783.091
783.153
783.215
783.275
783.333
783.39
783.445
783.5
783.553
783.605
783.655
783.703
783.748
783.792
783.835
783.876
783.915
783.955
783.993
784.031
784.069
784.106
784.143
784.18
784.217
784.253
784.289
784.325
784.36
784.395
784.43
784.465
784.499
784.534
784.568
784.602
784.636
784.67
784.703
784.735
784.768
784.8
784.831
784.863
784.894
784.925
784.956
784.986
785.017
785.047
785.078
785.108
785.137
785.166
785.195
785.223
785.251
785.278
785.306
785.333
785.36
785.386
785.412
785.438
785.464
785.489
785.515
785.54
785.564
785.588
785.612
785.636
785.66
785.684
785.707
785.731
785.755
785.778
785.802
785.825
785.848
785.871
785.894
785.916
785.937
785.958
785.979
785.999
786.019
786.038
786.057
786.076
786.094
786.112
786.13