/*--------------------------------*- C++ -*----------------------------------*\
| =========                 |                                                 |
| \\      /  F ield         | OpenFOAM: The Open Source CFD Toolbox           |
|  \\    /   O peration     | Version:  3.0.x                                 |
|   \\  /    A nd           | Web:      www.OpenFOAM.org                      |
|    \\/     M anipulation  |                                                 |
\*---------------------------------------------------------------------------*/
FoamFile
{
    version     2.0;
    format      ascii;
    class       volVectorField;
    location    "0.34005";
    object      U;
}
// * * * * * * * * * * * * * * * * * * * * * * * * * * * * * * * * * * * * * //

dimensions      [0 1 -1 0 0 0 0];

internalField   nonuniform List<vector> 
27600
(
(42.685 0.000288116 0)
(42.6702 0.000241398 0)
(42.6554 0.000238367 0)
(42.6404 0.000240609 0)
(42.6255 0.000242861 0)
(42.6106 0.000244882 0)
(42.5957 0.000246653 0)
(42.5808 0.000248188 0)
(42.5659 0.000249523 0)
(42.551 0.000250696 0)
(42.5361 0.000251738 0)
(42.5212 0.000252668 0)
(42.5063 0.000253499 0)
(42.4914 0.000254284 0)
(42.4765 0.00025499 0)
(42.4616 0.000255621 0)
(42.4467 0.000256215 0)
(42.4318 0.000256768 0)
(42.4169 0.000257329 0)
(42.4021 0.000257748 0)
(42.3872 0.000258213 0)
(42.3723 0.000258627 0)
(42.3574 0.000259011 0)
(42.3425 0.000259354 0)
(42.3277 0.000259719 0)
(42.3128 0.000260015 0)
(42.2979 0.000260296 0)
(42.2831 0.000260606 0)
(42.2682 0.000260819 0)
(42.2533 0.000261067 0)
(42.2385 0.000261287 0)
(42.2236 0.000261491 0)
(42.2087 0.00026166 0)
(42.1939 0.000261812 0)
(42.179 0.000261924 0)
(42.1642 0.000261985 0)
(42.1494 0.000261975 0)
(42.1345 0.000261867 0)
(42.1197 0.000261623 0)
(42.105 0.000261183 0)
(42.0902 0.000260541 0)
(42.0755 0.000259533 0)
(42.0609 0.000258116 0)
(42.0465 0.000256213 0)
(42.0321 0.000253739 0)
(42.0179 0.000250373 0)
(42.004 0.000246283 0)
(41.9903 0.000241215 0)
(41.977 0.000235105 0)
(41.964 0.000227897 0)
(41.9516 0.000219564 0)
(41.9396 0.000210119 0)
(41.9282 0.000199616 0)
(41.9175 0.000188155 0)
(41.9075 0.000175874 0)
(41.8981 0.000162949 0)
(41.8896 0.000149585 0)
(41.8818 0.000136001 0)
(41.8748 0.000122427 0)
(41.8685 0.000109088 0)
(41.863 9.61807e-05 0)
(41.8582 8.39003e-05 0)
(41.854 7.23991e-05 0)
(41.8505 6.17872e-05 0)
(41.8475 5.21452e-05 0)
(41.845 4.35142e-05 0)
(41.8429 3.59008e-05 0)
(41.8412 2.92816e-05 0)
(41.8399 2.36079e-05 0)
(41.8388 1.88124e-05 0)
(41.838 1.48145e-05 0)
(41.8373 1.15267e-05 0)
(41.8368 8.85982e-06 0)
(41.8364 6.72349e-06 0)
(41.8362 5.03488e-06 0)
(41.8359 3.71734e-06 0)
(41.8358 2.70221e-06 0)
(41.8357 1.92983e-06 0)
(41.8356 1.34934e-06 0)
(41.8356 9.18481e-07 0)
(41.8355 6.02486e-07 0)
(41.8355 3.73448e-07 0)
(41.8355 2.09297e-07 0)
(41.8355 9.27943e-08 0)
(41.8355 1.10565e-08 0)
(41.8355 -4.48395e-08 0)
(41.8355 -8.22442e-08 0)
(41.8355 -1.06985e-07 0)
(41.8356 -1.2323e-07 0)
(41.8356 -1.33793e-07 0)
(41.8356 -1.40583e-07 0)
(41.8356 -1.44902e-07 0)
(41.8356 -1.47618e-07 0)
(41.8357 -1.49308e-07 0)
(41.8357 -1.50373e-07 0)
(41.8357 -1.50967e-07 0)
(41.8357 -1.51467e-07 0)
(41.8358 -1.51671e-07 0)
(41.8358 -1.51838e-07 0)
(41.8358 -1.51998e-07 0)
(41.8359 -1.52093e-07 0)
(41.8359 -1.5232e-07 0)
(41.836 -1.52591e-07 0)
(41.836 -1.52706e-07 0)
(41.836 -1.52846e-07 0)
(41.8361 -1.52943e-07 0)
(41.8361 -1.52983e-07 0)
(41.8362 -1.52938e-07 0)
(41.8362 -1.52808e-07 0)
(41.8363 -1.52566e-07 0)
(41.8363 -1.52363e-07 0)
(41.8364 -1.52139e-07 0)
(41.8364 -1.51897e-07 0)
(41.8364 -1.51661e-07 0)
(41.8365 -1.51438e-07 0)
(41.8365 -1.51268e-07 0)
(41.8365 -1.51106e-07 0)
(41.8366 -1.50972e-07 0)
(41.8366 -1.50833e-07 0)
(41.8366 -1.50766e-07 0)
(41.8366 -1.50677e-07 0)
(41.8366 -1.50599e-07 0)
(41.8366 -1.50554e-07 0)
(41.8366 -1.50491e-07 0)
(41.8366 -1.50445e-07 0)
(41.8366 -1.50422e-07 0)
(41.8366 -1.50527e-07 0)
(41.8366 -1.50441e-07 0)
(41.8365 -1.49869e-07 0)
(41.8365 -1.50193e-07 0)
(41.8365 -1.49963e-07 0)
(41.8364 -1.49797e-07 0)
(41.8364 -1.49382e-07 0)
(41.8363 -1.49656e-07 0)
(41.8363 -1.49233e-07 0)
(41.8362 -1.48991e-07 0)
(41.8362 -1.48796e-07 0)
(41.8361 -1.48657e-07 0)
(41.836 -1.48376e-07 0)
(41.836 -1.48275e-07 0)
(41.8359 -1.48155e-07 0)
(41.8358 -1.48052e-07 0)
(41.8357 -1.47987e-07 0)
(41.8356 -1.47972e-07 0)
(41.8355 -1.47965e-07 0)
(41.8355 -1.47979e-07 0)
(41.8354 -1.48027e-07 0)
(41.8353 -1.4802e-07 0)
(41.8352 -1.48143e-07 0)
(41.8351 -1.48386e-07 0)
(41.8351 -1.48411e-07 0)
(41.835 -1.48625e-07 0)
(41.8349 -1.4871e-07 0)
(41.8349 -1.48872e-07 0)
(41.8348 -1.49025e-07 0)
(41.8347 -1.49158e-07 0)
(41.8347 -1.49325e-07 0)
(41.8346 -1.49465e-07 0)
(41.8346 -1.49606e-07 0)
(41.8345 -1.49722e-07 0)
(41.8344 -1.49817e-07 0)
(41.8344 -1.49897e-07 0)
(41.8343 -1.49945e-07 0)
(41.8343 -1.49974e-07 0)
(41.8342 -1.49961e-07 0)
(41.8342 -1.49926e-07 0)
(41.8341 -1.49864e-07 0)
(41.834 -1.49767e-07 0)
(41.834 -1.49667e-07 0)
(41.8339 -1.49552e-07 0)
(41.8338 -1.49442e-07 0)
(41.8338 -1.49325e-07 0)
(41.8337 -1.49197e-07 0)
(41.8336 -1.48908e-07 0)
(41.8335 -1.48614e-07 0)
(41.8335 -1.48454e-07 0)
(41.8334 -1.48333e-07 0)
(41.8333 -1.48169e-07 0)
(41.8332 -1.47908e-07 0)
(41.8331 -1.47612e-07 0)
(41.833 -1.47314e-07 0)
(41.8329 -1.47004e-07 0)
(41.8328 -1.46689e-07 0)
(41.8327 -1.46343e-07 0)
(41.8326 -1.45975e-07 0)
(41.8325 -1.45513e-07 0)
(41.8324 -1.45033e-07 0)
(41.8323 -1.44163e-07 0)
(41.8322 -1.42907e-07 0)
(41.832 -1.33873e-07 0)
(41.8319 -9.91798e-08 0)
(41.8318 9.02775e-08 0)
(41.8316 1.0141e-06 0)
(41.8312 5.66139e-06 0)
(41.8296 2.8426e-05 0)
(41.822 0.000138046 0)
(41.7868 0.000661998 0)
(41.6198 0.00310516 0)
(41.146 0.0156826 0)
(36.522 0.0563821 0)
(42.7002 0.000462905 0)
(42.7007 0.000329776 0)
(42.701 0.0003134 0)
(42.7013 0.000310391 0)
(42.7016 0.000308061 0)
(42.7018 0.000306212 0)
(42.7021 0.0003047 0)
(42.7023 0.000303384 0)
(42.7026 0.000302206 0)
(42.7028 0.000301137 0)
(42.7031 0.000300162 0)
(42.7033 0.00029926 0)
(42.7035 0.00029841 0)
(42.7037 0.000297675 0)
(42.7039 0.000296968 0)
(42.7041 0.000296279 0)
(42.7043 0.000295657 0)
(42.7045 0.000295077 0)
(42.7047 0.000294624 0)
(42.7049 0.000294004 0)
(42.705 0.000293568 0)
(42.7052 0.000293119 0)
(42.7053 0.000292693 0)
(42.7055 0.000292261 0)
(42.7056 0.000291939 0)
(42.7058 0.000291548 0)
(42.7059 0.000291191 0)
(42.706 0.000290942 0)
(42.7061 0.000290556 0)
(42.7062 0.000290296 0)
(42.7063 0.000290025 0)
(42.7064 0.000289768 0)
(42.7065 0.00028949 0)
(42.7066 0.000289229 0)
(42.7067 0.000288941 0)
(42.7067 0.000288614 0)
(42.7068 0.000288222 0)
(42.7069 0.000287728 0)
(42.7069 0.000287082 0)
(42.707 0.000286199 0)
(42.707 0.000285112 0)
(42.7071 0.000283553 0)
(42.7071 0.000281512 0)
(42.7072 0.000278904 0)
(42.7073 0.000275655 0)
(42.7074 0.000271242 0)
(42.7075 0.000266082 0)
(42.7076 0.000259759 0)
(42.7078 0.000252247 0)
(42.708 0.000243501 0)
(42.7082 0.000233514 0)
(42.7084 0.000222325 0)
(42.7087 0.000210027 0)
(42.709 0.000196758 0)
(42.7093 0.000182702 0)
(42.7097 0.000168078 0)
(42.71 0.00015313 0)
(42.7104 0.000138115 0)
(42.7108 0.000123286 0)
(42.7112 0.000108892 0)
(42.7115 9.51267e-05 0)
(42.7119 8.21934e-05 0)
(42.7122 7.0233e-05 0)
(42.7125 5.93342e-05 0)
(42.7128 4.95565e-05 0)
(42.7131 4.09154e-05 0)
(42.7133 3.33908e-05 0)
(42.7135 2.69329e-05 0)
(42.7137 2.14691e-05 0)
(42.7138 1.69109e-05 0)
(42.7139 1.31602e-05 0)
(42.714 1.0116e-05 0)
(42.7141 7.67982e-06 0)
(42.7142 5.75321e-06 0)
(42.7142 4.25048e-06 0)
(42.7143 3.09357e-06 0)
(42.7143 2.21391e-06 0)
(42.7143 1.5534e-06 0)
(42.7143 1.06349e-06 0)
(42.7143 7.04462e-07 0)
(42.7143 4.44399e-07 0)
(42.7143 2.5815e-07 0)
(42.7143 1.26168e-07 0)
(42.7143 3.35452e-08 0)
(42.7143 -2.82936e-08 0)
(42.7143 -7.07404e-08 0)
(42.7143 -9.90364e-08 0)
(42.7143 -1.1764e-07 0)
(42.7143 -1.29808e-07 0)
(42.7143 -1.37658e-07 0)
(42.7143 -1.42654e-07 0)
(42.7143 -1.45808e-07 0)
(42.7143 -1.47813e-07 0)
(42.7143 -1.49085e-07 0)
(42.7143 -1.49925e-07 0)
(42.7143 -1.50367e-07 0)
(42.7143 -1.50904e-07 0)
(42.7143 -1.5102e-07 0)
(42.7143 -1.51139e-07 0)
(42.7143 -1.51213e-07 0)
(42.7143 -1.51202e-07 0)
(42.7144 -1.51382e-07 0)
(42.7144 -1.51462e-07 0)
(42.7144 -1.51408e-07 0)
(42.7144 -1.51422e-07 0)
(42.7145 -1.51419e-07 0)
(42.7145 -1.51397e-07 0)
(42.7145 -1.51344e-07 0)
(42.7145 -1.5126e-07 0)
(42.7146 -1.51204e-07 0)
(42.7146 -1.51135e-07 0)
(42.7146 -1.51089e-07 0)
(42.7146 -1.51037e-07 0)
(42.7147 -1.51009e-07 0)
(42.7147 -1.50987e-07 0)
(42.7147 -1.50955e-07 0)
(42.7147 -1.50925e-07 0)
(42.7147 -1.50886e-07 0)
(42.7147 -1.50796e-07 0)
(42.7147 -1.50782e-07 0)
(42.7147 -1.50692e-07 0)
(42.7147 -1.50618e-07 0)
(42.7147 -1.50561e-07 0)
(42.7146 -1.50499e-07 0)
(42.7146 -1.50433e-07 0)
(42.7146 -1.50396e-07 0)
(42.7145 -1.50673e-07 0)
(42.7145 -1.5057e-07 0)
(42.7144 -1.49554e-07 0)
(42.7144 -1.50333e-07 0)
(42.7143 -1.50029e-07 0)
(42.7143 -1.49933e-07 0)
(42.7142 -1.49356e-07 0)
(42.7141 -1.50143e-07 0)
(42.7141 -1.49606e-07 0)
(42.714 -1.49451e-07 0)
(42.7139 -1.49395e-07 0)
(42.7138 -1.4943e-07 0)
(42.7137 -1.49205e-07 0)
(42.7136 -1.49304e-07 0)
(42.7135 -1.4938e-07 0)
(42.7134 -1.49497e-07 0)
(42.7133 -1.49635e-07 0)
(42.7132 -1.49806e-07 0)
(42.7131 -1.50004e-07 0)
(42.713 -1.50229e-07 0)
(42.7129 -1.50473e-07 0)
(42.7128 -1.5054e-07 0)
(42.7127 -1.50874e-07 0)
(42.7126 -1.51414e-07 0)
(42.7125 -1.51489e-07 0)
(42.7124 -1.5191e-07 0)
(42.7123 -1.52087e-07 0)
(42.7122 -1.52419e-07 0)
(42.7122 -1.52752e-07 0)
(42.7121 -1.53055e-07 0)
(42.712 -1.53396e-07 0)
(42.7119 -1.53719e-07 0)
(42.7118 -1.54036e-07 0)
(42.7118 -1.54347e-07 0)
(42.7117 -1.54631e-07 0)
(42.7116 -1.54896e-07 0)
(42.7115 -1.55136e-07 0)
(42.7115 -1.55344e-07 0)
(42.7114 -1.55534e-07 0)
(42.7113 -1.5567e-07 0)
(42.7112 -1.55788e-07 0)
(42.7111 -1.55859e-07 0)
(42.7111 -1.55907e-07 0)
(42.711 -1.55953e-07 0)
(42.7109 -1.56003e-07 0)
(42.7108 -1.56054e-07 0)
(42.7107 -1.56046e-07 0)
(42.7106 -1.55778e-07 0)
(42.7105 -1.55544e-07 0)
(42.7104 -1.55511e-07 0)
(42.7103 -1.55514e-07 0)
(42.7102 -1.55424e-07 0)
(42.7101 -1.55221e-07 0)
(42.71 -1.5497e-07 0)
(42.7098 -1.54768e-07 0)
(42.7097 -1.54549e-07 0)
(42.7096 -1.54355e-07 0)
(42.7095 -1.54137e-07 0)
(42.7093 -1.5389e-07 0)
(42.7092 -1.53387e-07 0)
(42.7091 -1.52914e-07 0)
(42.709 -1.51185e-07 0)
(42.7088 -1.48404e-07 0)
(42.7087 -1.22139e-07 0)
(42.7086 -9.34527e-09 0)
(42.7084 5.85519e-07 0)
(42.7082 3.50392e-06 0)
(42.7078 1.81795e-05 0)
(42.7061 9.00494e-05 0)
(42.6984 0.000435986 0)
(42.6627 0.00208824 0)
(42.4934 0.00977881 0)
(42.0012 0.0481512 0)
(37.4697 0.16335 0)
(42.7002 0.000369093 0)
(42.7007 0.000238553 0)
(42.701 0.000231862 0)
(42.7014 0.000235251 0)
(42.7017 0.000236588 0)
(42.702 0.00023756 0)
(42.7023 0.000238523 0)
(42.7026 0.000239452 0)
(42.7029 0.000240347 0)
(42.7032 0.000241215 0)
(42.7035 0.00024206 0)
(42.7038 0.000242875 0)
(42.7041 0.000243648 0)
(42.7044 0.000244445 0)
(42.7047 0.000245195 0)
(42.705 0.000245892 0)
(42.7054 0.000246586 0)
(42.7057 0.000247257 0)
(42.706 0.000247989 0)
(42.7063 0.000248513 0)
(42.7066 0.000249162 0)
(42.7069 0.00024975 0)
(42.7072 0.000250317 0)
(42.7075 0.000250838 0)
(42.7078 0.00025142 0)
(42.7081 0.000251902 0)
(42.7084 0.000252384 0)
(42.7087 0.000252932 0)
(42.7091 0.000253318 0)
(42.7094 0.0002538 0)
(42.7097 0.000254238 0)
(42.71 0.000254662 0)
(42.7103 0.000255041 0)
(42.7106 0.00025541 0)
(42.7109 0.000255729 0)
(42.7112 0.000255985 0)
(42.7115 0.000256154 0)
(42.7118 0.000256201 0)
(42.7121 0.000256077 0)
(42.7124 0.0002557 0)
(42.7127 0.000255094 0)
(42.713 0.000254009 0)
(42.7134 0.000252434 0)
(42.7137 0.000250283 0)
(42.714 0.00024748 0)
(42.7143 0.000243546 0)
(42.7146 0.000238875 0)
(42.7148 0.000233067 0)
(42.7151 0.000226114 0)
(42.7154 0.000217985 0)
(42.7157 0.000208685 0)
(42.7159 0.000198267 0)
(42.7162 0.00018683 0)
(42.7164 0.000174521 0)
(42.7166 0.000161524 0)
(42.7168 0.000148058 0)
(42.717 0.000134356 0)
(42.7172 0.000120663 0)
(42.7173 0.000107214 0)
(42.7174 9.42347e-05 0)
(42.7176 8.18986e-05 0)
(42.7177 7.03823e-05 0)
(42.7177 5.98018e-05 0)
(42.7178 5.02253e-05 0)
(42.7179 4.16934e-05 0)
(42.7179 3.42063e-05 0)
(42.718 2.77334e-05 0)
(42.718 2.22184e-05 0)
(42.718 1.75869e-05 0)
(42.7181 1.3752e-05 0)
(42.7181 1.06204e-05 0)
(42.7181 8.09822e-06 0)
(42.7181 6.09566e-06 0)
(42.7181 4.52444e-06 0)
(42.7181 3.30892e-06 0)
(42.7181 2.38097e-06 0)
(42.7181 1.6815e-06 0)
(42.7181 1.16107e-06 0)
(42.7181 7.78774e-07 0)
(42.7181 5.01516e-07 0)
(42.7181 3.02994e-07 0)
(42.7181 1.62681e-07 0)
(42.7181 6.48049e-08 0)
(42.7181 -2.74236e-09 0)
(42.7181 -5.00625e-08 0)
(42.718 -8.20878e-08 0)
(42.718 -1.03672e-07 0)
(42.718 -1.18174e-07 0)
(42.718 -1.27911e-07 0)
(42.718 -1.34343e-07 0)
(42.718 -1.38598e-07 0)
(42.718 -1.41355e-07 0)
(42.718 -1.43144e-07 0)
(42.718 -1.4428e-07 0)
(42.718 -1.45055e-07 0)
(42.718 -1.45495e-07 0)
(42.718 -1.4602e-07 0)
(42.718 -1.46122e-07 0)
(42.7181 -1.46265e-07 0)
(42.7181 -1.4639e-07 0)
(42.7181 -1.46523e-07 0)
(42.7181 -1.46862e-07 0)
(42.7181 -1.46927e-07 0)
(42.7182 -1.47026e-07 0)
(42.7182 -1.47157e-07 0)
(42.7182 -1.47215e-07 0)
(42.7182 -1.47191e-07 0)
(42.7183 -1.47109e-07 0)
(42.7183 -1.4692e-07 0)
(42.7183 -1.46674e-07 0)
(42.7183 -1.46377e-07 0)
(42.7184 -1.46067e-07 0)
(42.7184 -1.45734e-07 0)
(42.7184 -1.45423e-07 0)
(42.7184 -1.45129e-07 0)
(42.7184 -1.44861e-07 0)
(42.7184 -1.44605e-07 0)
(42.7184 -1.44379e-07 0)
(42.7184 -1.4415e-07 0)
(42.7184 -1.44007e-07 0)
(42.7184 -1.43838e-07 0)
(42.7184 -1.43685e-07 0)
(42.7184 -1.4357e-07 0)
(42.7184 -1.43449e-07 0)
(42.7183 -1.43354e-07 0)
(42.7183 -1.43298e-07 0)
(42.7183 -1.43535e-07 0)
(42.7182 -1.43413e-07 0)
(42.7182 -1.42448e-07 0)
(42.7181 -1.4318e-07 0)
(42.7181 -1.42892e-07 0)
(42.718 -1.42796e-07 0)
(42.718 -1.42259e-07 0)
(42.7179 -1.43027e-07 0)
(42.7178 -1.42479e-07 0)
(42.7177 -1.42362e-07 0)
(42.7177 -1.42296e-07 0)
(42.7176 -1.4228e-07 0)
(42.7175 -1.42051e-07 0)
(42.7174 -1.4215e-07 0)
(42.7173 -1.42199e-07 0)
(42.7172 -1.42265e-07 0)
(42.7171 -1.4237e-07 0)
(42.717 -1.42541e-07 0)
(42.7169 -1.42733e-07 0)
(42.7167 -1.42948e-07 0)
(42.7166 -1.43182e-07 0)
(42.7165 -1.43249e-07 0)
(42.7164 -1.43613e-07 0)
(42.7163 -1.44176e-07 0)
(42.7162 -1.4426e-07 0)
(42.7162 -1.44667e-07 0)
(42.7161 -1.4486e-07 0)
(42.716 -1.45172e-07 0)
(42.7159 -1.4549e-07 0)
(42.7158 -1.45765e-07 0)
(42.7157 -1.46068e-07 0)
(42.7157 -1.46338e-07 0)
(42.7156 -1.46596e-07 0)
(42.7155 -1.46844e-07 0)
(42.7154 -1.47064e-07 0)
(42.7154 -1.47261e-07 0)
(42.7153 -1.47425e-07 0)
(42.7152 -1.47562e-07 0)
(42.7151 -1.47676e-07 0)
(42.715 -1.4775e-07 0)
(42.715 -1.47812e-07 0)
(42.7149 -1.47843e-07 0)
(42.7148 -1.4785e-07 0)
(42.7147 -1.47868e-07 0)
(42.7146 -1.47897e-07 0)
(42.7145 -1.47902e-07 0)
(42.7144 -1.47892e-07 0)
(42.7143 -1.47671e-07 0)
(42.7142 -1.47526e-07 0)
(42.7141 -1.47509e-07 0)
(42.714 -1.47524e-07 0)
(42.7139 -1.47468e-07 0)
(42.7138 -1.47331e-07 0)
(42.7137 -1.47137e-07 0)
(42.7136 -1.46974e-07 0)
(42.7135 -1.46793e-07 0)
(42.7133 -1.46628e-07 0)
(42.7132 -1.46417e-07 0)
(42.7131 -1.46166e-07 0)
(42.713 -1.45464e-07 0)
(42.7128 -1.44795e-07 0)
(42.7127 -1.41925e-07 0)
(42.7126 -1.37037e-07 0)
(42.7124 -9.15982e-08 0)
(42.7123 1.1007e-07 0)
(42.7121 1.16601e-06 0)
(42.7119 6.36098e-06 0)
(42.7115 3.2492e-05 0)
(42.7099 0.000160502 0)
(42.7025 0.000776711 0)
(42.6681 0.00372252 0)
(42.5051 0.017441 0)
(42.0408 0.0854599 0)
(37.6611 0.286411 0)
(42.7002 0.00037519 0)
(42.7007 0.000276273 0)
(42.701 0.000271758 0)
(42.7013 0.000276038 0)
(42.7016 0.000276923 0)
(42.7019 0.000277098 0)
(42.7022 0.000277141 0)
(42.7026 0.00027704 0)
(42.7029 0.000276832 0)
(42.7032 0.000276558 0)
(42.7035 0.000276245 0)
(42.7038 0.000275907 0)
(42.7041 0.000275544 0)
(42.7044 0.000275222 0)
(42.7047 0.000274891 0)
(42.705 0.000274536 0)
(42.7053 0.000274212 0)
(42.7057 0.000273901 0)
(42.706 0.000273681 0)
(42.7063 0.000273302 0)
(42.7066 0.00027307 0)
(42.7069 0.000272813 0)
(42.7072 0.000272568 0)
(42.7075 0.000272311 0)
(42.7078 0.000272135 0)
(42.7081 0.000271899 0)
(42.7084 0.000271686 0)
(42.7087 0.000271561 0)
(42.7091 0.000271308 0)
(42.7094 0.000271168 0)
(42.7097 0.00027101 0)
(42.71 0.000270859 0)
(42.7103 0.000270689 0)
(42.7106 0.000270526 0)
(42.7109 0.000270334 0)
(42.7112 0.000270101 0)
(42.7115 0.000269801 0)
(42.7118 0.000269401 0)
(42.7121 0.000268852 0)
(42.7125 0.000268075 0)
(42.7128 0.00026709 0)
(42.7131 0.00026566 0)
(42.7134 0.000263768 0)
(42.7137 0.000261328 0)
(42.714 0.000258264 0)
(42.7143 0.000254114 0)
(42.7146 0.000249242 0)
(42.7149 0.000243264 0)
(42.7152 0.000236162 0)
(42.7154 0.000227896 0)
(42.7157 0.000218462 0)
(42.716 0.000207901 0)
(42.7162 0.000196302 0)
(42.7164 0.000183802 0)
(42.7166 0.000170573 0)
(42.7168 0.000156826 0)
(42.717 0.000142791 0)
(42.7172 0.000128709 0)
(42.7173 0.000114818 0)
(42.7175 0.000101348 0)
(42.7176 8.84813e-05 0)
(42.7177 7.6405e-05 0)
(42.7178 6.52476e-05 0)
(42.7178 5.50904e-05 0)
(42.7179 4.59862e-05 0)
(42.7179 3.79472e-05 0)
(42.718 3.09524e-05 0)
(42.718 2.49537e-05 0)
(42.718 1.9882e-05 0)
(42.7181 1.56538e-05 0)
(42.7181 1.21768e-05 0)
(42.7181 9.35638e-06 0)
(42.7181 7.10042e-06 0)
(42.7181 5.31738e-06 0)
(42.7181 3.92737e-06 0)
(42.7181 2.85775e-06 0)
(42.7181 2.04487e-06 0)
(42.7181 1.43476e-06 0)
(42.7181 9.82477e-07 0)
(42.7181 6.51204e-07 0)
(42.7181 4.11437e-07 0)
(42.7181 2.39972e-07 0)
(42.7181 1.18808e-07 0)
(42.7181 3.43896e-08 0)
(42.7181 -2.31454e-08 0)
(42.7181 -6.20913e-08 0)
(42.718 -8.82652e-08 0)
(42.718 -1.05626e-07 0)
(42.718 -1.17026e-07 0)
(42.718 -1.24416e-07 0)
(42.718 -1.29143e-07 0)
(42.718 -1.32129e-07 0)
(42.718 -1.34042e-07 0)
(42.718 -1.35215e-07 0)
(42.718 -1.35994e-07 0)
(42.718 -1.36414e-07 0)
(42.718 -1.36896e-07 0)
(42.7181 -1.36963e-07 0)
(42.7181 -1.37047e-07 0)
(42.7181 -1.37085e-07 0)
(42.7181 -1.37084e-07 0)
(42.7181 -1.37244e-07 0)
(42.7181 -1.37188e-07 0)
(42.7182 -1.37133e-07 0)
(42.7182 -1.3713e-07 0)
(42.7182 -1.37098e-07 0)
(42.7182 -1.37018e-07 0)
(42.7183 -1.3694e-07 0)
(42.7183 -1.36823e-07 0)
(42.7183 -1.36703e-07 0)
(42.7183 -1.36598e-07 0)
(42.7184 -1.3649e-07 0)
(42.7184 -1.36393e-07 0)
(42.7184 -1.36302e-07 0)
(42.7184 -1.36232e-07 0)
(42.7184 -1.36167e-07 0)
(42.7184 -1.36081e-07 0)
(42.7184 -1.3601e-07 0)
(42.7184 -1.35895e-07 0)
(42.7184 -1.35847e-07 0)
(42.7184 -1.35737e-07 0)
(42.7184 -1.35639e-07 0)
(42.7184 -1.35562e-07 0)
(42.7184 -1.35481e-07 0)
(42.7184 -1.35394e-07 0)
(42.7183 -1.35345e-07 0)
(42.7183 -1.35561e-07 0)
(42.7182 -1.35424e-07 0)
(42.7182 -1.34495e-07 0)
(42.7181 -1.35154e-07 0)
(42.7181 -1.34855e-07 0)
(42.718 -1.34719e-07 0)
(42.718 -1.34171e-07 0)
(42.7179 -1.34877e-07 0)
(42.7178 -1.3431e-07 0)
(42.7177 -1.34144e-07 0)
(42.7177 -1.34064e-07 0)
(42.7176 -1.34025e-07 0)
(42.7175 -1.33783e-07 0)
(42.7174 -1.33827e-07 0)
(42.7173 -1.33859e-07 0)
(42.7172 -1.33893e-07 0)
(42.7171 -1.33973e-07 0)
(42.717 -1.34096e-07 0)
(42.7169 -1.34213e-07 0)
(42.7168 -1.34379e-07 0)
(42.7167 -1.34554e-07 0)
(42.7166 -1.34523e-07 0)
(42.7164 -1.348e-07 0)
(42.7164 -1.35266e-07 0)
(42.7163 -1.35212e-07 0)
(42.7162 -1.35563e-07 0)
(42.7161 -1.35657e-07 0)
(42.716 -1.35872e-07 0)
(42.7159 -1.36099e-07 0)
(42.7158 -1.36272e-07 0)
(42.7157 -1.365e-07 0)
(42.7157 -1.36691e-07 0)
(42.7156 -1.36874e-07 0)
(42.7155 -1.37035e-07 0)
(42.7154 -1.37168e-07 0)
(42.7154 -1.37287e-07 0)
(42.7153 -1.37378e-07 0)
(42.7152 -1.37452e-07 0)
(42.7151 -1.37484e-07 0)
(42.7151 -1.37465e-07 0)
(42.715 -1.3745e-07 0)
(42.7149 -1.37391e-07 0)
(42.7148 -1.3731e-07 0)
(42.7147 -1.3725e-07 0)
(42.7146 -1.37164e-07 0)
(42.7145 -1.37074e-07 0)
(42.7144 -1.36977e-07 0)
(42.7143 -1.36642e-07 0)
(42.7142 -1.36351e-07 0)
(42.7141 -1.36188e-07 0)
(42.714 -1.36085e-07 0)
(42.7139 -1.35905e-07 0)
(42.7138 -1.35628e-07 0)
(42.7137 -1.35291e-07 0)
(42.7136 -1.35006e-07 0)
(42.7135 -1.34681e-07 0)
(42.7133 -1.34392e-07 0)
(42.7132 -1.34033e-07 0)
(42.7131 -1.33612e-07 0)
(42.713 -1.32516e-07 0)
(42.7128 -1.31478e-07 0)
(42.7127 -1.27128e-07 0)
(42.7126 -1.19837e-07 0)
(42.7124 -5.32915e-08 0)
(42.7123 2.44235e-07 0)
(42.7122 1.81328e-06 0)
(42.712 9.53429e-06 0)
(42.7115 4.83591e-05 0)
(42.7099 0.000238589 0)
(42.7026 0.00115442 0)
(42.6684 0.00553736 0)
(42.5066 0.025934 0)
(42.0476 0.127043 0)
(37.7822 0.422442 0)
(42.7002 0.000351872 0)
(42.7006 0.000251271 0)
(42.701 0.000235084 0)
(42.7013 0.000235176 0)
(42.7016 0.000233707 0)
(42.7019 0.000232614 0)
(42.7022 0.000232125 0)
(42.7025 0.000231926 0)
(42.7029 0.000231894 0)
(42.7032 0.000231975 0)
(42.7035 0.000232134 0)
(42.7038 0.000232344 0)
(42.7041 0.000232574 0)
(42.7044 0.000232869 0)
(42.7047 0.000233174 0)
(42.705 0.000233454 0)
(42.7053 0.000233762 0)
(42.7056 0.000234073 0)
(42.7059 0.000234455 0)
(42.7063 0.000234679 0)
(42.7066 0.000235021 0)
(42.7069 0.000235325 0)
(42.7072 0.000235623 0)
(42.7075 0.000235896 0)
(42.7078 0.000236222 0)
(42.7081 0.000236479 0)
(42.7084 0.000236742 0)
(42.7087 0.00023707 0)
(42.709 0.000237262 0)
(42.7094 0.000237546 0)
(42.7097 0.000237798 0)
(42.71 0.000238042 0)
(42.7103 0.000238256 0)
(42.7106 0.000238462 0)
(42.7109 0.000238629 0)
(42.7112 0.000238744 0)
(42.7115 0.000238785 0)
(42.7118 0.00023872 0)
(42.7121 0.000238505 0)
(42.7124 0.000238063 0)
(42.7128 0.000237414 0)
(42.7131 0.000236338 0)
(42.7134 0.000234818 0)
(42.7137 0.000232775 0)
(42.714 0.000230139 0)
(42.7143 0.000226479 0)
(42.7146 0.00022214 0)
(42.7149 0.000216766 0)
(42.7152 0.000210344 0)
(42.7154 0.000202842 0)
(42.7157 0.000194263 0)
(42.716 0.000184652 0)
(42.7162 0.000174098 0)
(42.7164 0.000162732 0)
(42.7166 0.000150723 0)
(42.7168 0.000138268 0)
(42.717 0.000125582 0)
(42.7172 0.00011289 0)
(42.7173 0.000100409 0)
(42.7175 8.83476e-05 0)
(42.7176 7.68689e-05 0)
(42.7177 6.61375e-05 0)
(42.7178 5.62638e-05 0)
(42.7178 4.73139e-05 0)
(42.7179 3.93281e-05 0)
(42.7179 3.23094e-05 0)
(42.718 2.62318e-05 0)
(42.718 2.10456e-05 0)
(42.718 1.6683e-05 0)
(42.7181 1.30649e-05 0)
(42.7181 1.01056e-05 0)
(42.7181 7.71809e-06 0)
(42.7181 5.81922e-06 0)
(42.7181 4.32684e-06 0)
(42.7181 3.17026e-06 0)
(42.7181 2.28568e-06 0)
(42.7181 1.61768e-06 0)
(42.7181 1.11962e-06 0)
(42.7181 7.53024e-07 0)
(42.7181 4.86524e-07 0)
(42.7181 2.95189e-07 0)
(42.7181 1.59497e-07 0)
(42.7181 6.43963e-08 0)
(42.7181 -1.5548e-09 0)
(42.7181 -4.72724e-08 0)
(42.7181 -7.83897e-08 0)
(42.718 -9.92864e-08 0)
(42.718 -1.13226e-07 0)
(42.718 -1.22508e-07 0)
(42.718 -1.28613e-07 0)
(42.718 -1.32603e-07 0)
(42.718 -1.35183e-07 0)
(42.718 -1.36869e-07 0)
(42.718 -1.3793e-07 0)
(42.718 -1.38656e-07 0)
(42.718 -1.3908e-07 0)
(42.718 -1.39581e-07 0)
(42.7181 -1.39696e-07 0)
(42.7181 -1.39838e-07 0)
(42.7181 -1.39973e-07 0)
(42.7181 -1.40104e-07 0)
(42.7181 -1.40377e-07 0)
(42.7181 -1.40496e-07 0)
(42.7182 -1.4057e-07 0)
(42.7182 -1.40699e-07 0)
(42.7182 -1.40763e-07 0)
(42.7182 -1.40769e-07 0)
(42.7183 -1.40724e-07 0)
(42.7183 -1.40592e-07 0)
(42.7183 -1.40427e-07 0)
(42.7183 -1.40227e-07 0)
(42.7184 -1.40008e-07 0)
(42.7184 -1.39772e-07 0)
(42.7184 -1.39556e-07 0)
(42.7184 -1.39356e-07 0)
(42.7184 -1.39183e-07 0)
(42.7184 -1.39014e-07 0)
(42.7184 -1.38867e-07 0)
(42.7184 -1.38698e-07 0)
(42.7184 -1.38606e-07 0)
(42.7184 -1.38477e-07 0)
(42.7184 -1.38371e-07 0)
(42.7184 -1.38296e-07 0)
(42.7184 -1.38208e-07 0)
(42.7184 -1.38139e-07 0)
(42.7183 -1.38119e-07 0)
(42.7183 -1.38353e-07 0)
(42.7182 -1.38266e-07 0)
(42.7182 -1.37432e-07 0)
(42.7181 -1.38081e-07 0)
(42.7181 -1.37858e-07 0)
(42.718 -1.37781e-07 0)
(42.718 -1.3732e-07 0)
(42.7179 -1.38076e-07 0)
(42.7178 -1.37606e-07 0)
(42.7177 -1.37505e-07 0)
(42.7177 -1.37489e-07 0)
(42.7176 -1.37499e-07 0)
(42.7175 -1.37339e-07 0)
(42.7174 -1.37434e-07 0)
(42.7173 -1.37529e-07 0)
(42.7172 -1.37619e-07 0)
(42.7171 -1.37752e-07 0)
(42.717 -1.37927e-07 0)
(42.7169 -1.38116e-07 0)
(42.7168 -1.38349e-07 0)
(42.7167 -1.38576e-07 0)
(42.7166 -1.38634e-07 0)
(42.7164 -1.38989e-07 0)
(42.7164 -1.39526e-07 0)
(42.7163 -1.39527e-07 0)
(42.7162 -1.3997e-07 0)
(42.7161 -1.40142e-07 0)
(42.716 -1.40414e-07 0)
(42.7159 -1.40721e-07 0)
(42.7158 -1.4094e-07 0)
(42.7157 -1.41248e-07 0)
(42.7157 -1.4151e-07 0)
(42.7156 -1.41749e-07 0)
(42.7155 -1.41996e-07 0)
(42.7154 -1.42215e-07 0)
(42.7154 -1.42423e-07 0)
(42.7153 -1.42589e-07 0)
(42.7152 -1.42755e-07 0)
(42.7151 -1.42879e-07 0)
(42.7151 -1.42964e-07 0)
(42.715 -1.43063e-07 0)
(42.7149 -1.43105e-07 0)
(42.7148 -1.43131e-07 0)
(42.7147 -1.4317e-07 0)
(42.7146 -1.43201e-07 0)
(42.7145 -1.43229e-07 0)
(42.7144 -1.43222e-07 0)
(42.7143 -1.43006e-07 0)
(42.7142 -1.42842e-07 0)
(42.7141 -1.4279e-07 0)
(42.714 -1.42818e-07 0)
(42.7139 -1.42768e-07 0)
(42.7138 -1.42626e-07 0)
(42.7137 -1.4244e-07 0)
(42.7136 -1.42306e-07 0)
(42.7135 -1.42132e-07 0)
(42.7133 -1.42004e-07 0)
(42.7132 -1.41799e-07 0)
(42.7131 -1.41519e-07 0)
(42.713 -1.40304e-07 0)
(42.7128 -1.39188e-07 0)
(42.7127 -1.33495e-07 0)
(42.7126 -1.23715e-07 0)
(42.7124 -3.12615e-08 0)
(42.7123 3.78093e-07 0)
(42.7122 2.5315e-06 0)
(42.712 1.31378e-05 0)
(42.7115 6.6458e-05 0)
(42.7099 0.000327773 0)
(42.7027 0.00158599 0)
(42.6688 0.00761247 0)
(42.5088 0.0356222 0)
(42.0549 0.174039 0)
(37.9043 0.57328 0)
(42.7002 0.000330418 0)
(42.7006 0.000244137 0)
(42.701 0.000231445 0)
(42.7013 0.000236553 0)
(42.7016 0.000238274 0)
(42.7019 0.000239071 0)
(42.7022 0.000239779 0)
(42.7025 0.000240317 0)
(42.7028 0.000240717 0)
(42.7032 0.000241021 0)
(42.7035 0.000241259 0)
(42.7038 0.000241447 0)
(42.7041 0.000241583 0)
(42.7044 0.000241726 0)
(42.7047 0.000241852 0)
(42.705 0.000241924 0)
(42.7053 0.000242009 0)
(42.7056 0.000242086 0)
(42.7059 0.000242222 0)
(42.7062 0.000242214 0)
(42.7066 0.000242311 0)
(42.7069 0.000242377 0)
(42.7072 0.000242439 0)
(42.7075 0.000242483 0)
(42.7078 0.000242577 0)
(42.7081 0.000242617 0)
(42.7084 0.000242667 0)
(42.7087 0.000242781 0)
(42.709 0.000242774 0)
(42.7093 0.000242859 0)
(42.7097 0.000242921 0)
(42.71 0.000242978 0)
(42.7103 0.000243016 0)
(42.7106 0.000243049 0)
(42.7109 0.000243049 0)
(42.7112 0.000243005 0)
(42.7115 0.000242895 0)
(42.7118 0.000242685 0)
(42.7121 0.000242336 0)
(42.7124 0.000241772 0)
(42.7127 0.000241007 0)
(42.713 0.000239837 0)
(42.7134 0.000238238 0)
(42.7137 0.000236132 0)
(42.714 0.000233446 0)
(42.7143 0.000229773 0)
(42.7146 0.000225426 0)
(42.7149 0.00022007 0)
(42.7151 0.000213681 0)
(42.7154 0.000206226 0)
(42.7157 0.000197702 0)
(42.7159 0.000188147 0)
(42.7162 0.000177644 0)
(42.7164 0.000166317 0)
(42.7166 0.000154328 0)
(42.7168 0.000141866 0)
(42.717 0.000129143 0)
(42.7172 0.000116378 0)
(42.7173 0.000103789 0)
(42.7174 9.15859e-05 0)
(42.7176 7.99336e-05 0)
(42.7177 6.90008e-05 0)
(42.7178 5.8904e-05 0)
(42.7178 4.97165e-05 0)
(42.7179 4.14853e-05 0)
(42.7179 3.42206e-05 0)
(42.718 2.79025e-05 0)
(42.718 2.24868e-05 0)
(42.718 1.79101e-05 0)
(42.7181 1.40962e-05 0)
(42.7181 1.09615e-05 0)
(42.7181 8.41987e-06 0)
(42.7181 6.38776e-06 0)
(42.7181 4.78236e-06 0)
(42.7181 3.53139e-06 0)
(42.7181 2.56919e-06 0)
(42.7181 1.83834e-06 0)
(42.7181 1.29008e-06 0)
(42.7181 8.83932e-07 0)
(42.7181 5.86688e-07 0)
(42.7181 3.71776e-07 0)
(42.7181 2.18283e-07 0)
(42.7181 1.09989e-07 0)
(42.7181 3.45782e-08 0)
(42.7181 -1.74375e-08 0)
(42.7181 -5.26049e-08 0)
(42.718 -7.62944e-08 0)
(42.718 -9.21018e-08 0)
(42.718 -1.02585e-07 0)
(42.718 -1.09434e-07 0)
(42.718 -1.13876e-07 0)
(42.718 -1.16718e-07 0)
(42.718 -1.18554e-07 0)
(42.718 -1.19689e-07 0)
(42.718 -1.2045e-07 0)
(42.718 -1.20866e-07 0)
(42.718 -1.21336e-07 0)
(42.7181 -1.21426e-07 0)
(42.7181 -1.21525e-07 0)
(42.7181 -1.21606e-07 0)
(42.7181 -1.21668e-07 0)
(42.7181 -1.21834e-07 0)
(42.7181 -1.21873e-07 0)
(42.7182 -1.21859e-07 0)
(42.7182 -1.21914e-07 0)
(42.7182 -1.21912e-07 0)
(42.7182 -1.21865e-07 0)
(42.7183 -1.21787e-07 0)
(42.7183 -1.21654e-07 0)
(42.7183 -1.21502e-07 0)
(42.7183 -1.21322e-07 0)
(42.7184 -1.21148e-07 0)
(42.7184 -1.20973e-07 0)
(42.7184 -1.20815e-07 0)
(42.7184 -1.20661e-07 0)
(42.7184 -1.20526e-07 0)
(42.7184 -1.2039e-07 0)
(42.7184 -1.20266e-07 0)
(42.7184 -1.20123e-07 0)
(42.7184 -1.20049e-07 0)
(42.7184 -1.19937e-07 0)
(42.7184 -1.19829e-07 0)
(42.7184 -1.19755e-07 0)
(42.7184 -1.1967e-07 0)
(42.7184 -1.19598e-07 0)
(42.7183 -1.19561e-07 0)
(42.7183 -1.19762e-07 0)
(42.7182 -1.19639e-07 0)
(42.7182 -1.18847e-07 0)
(42.7181 -1.19392e-07 0)
(42.7181 -1.1916e-07 0)
(42.718 -1.19037e-07 0)
(42.718 -1.18562e-07 0)
(42.7179 -1.19207e-07 0)
(42.7178 -1.18724e-07 0)
(42.7177 -1.18558e-07 0)
(42.7177 -1.18505e-07 0)
(42.7176 -1.18446e-07 0)
(42.7175 -1.18241e-07 0)
(42.7174 -1.18285e-07 0)
(42.7173 -1.18323e-07 0)
(42.7172 -1.18365e-07 0)
(42.7171 -1.18445e-07 0)
(42.717 -1.18565e-07 0)
(42.7169 -1.18706e-07 0)
(42.7168 -1.18883e-07 0)
(42.7167 -1.19064e-07 0)
(42.7166 -1.19067e-07 0)
(42.7164 -1.19365e-07 0)
(42.7164 -1.19856e-07 0)
(42.7163 -1.19775e-07 0)
(42.7162 -1.20221e-07 0)
(42.7161 -1.20352e-07 0)
(42.716 -1.20572e-07 0)
(42.7159 -1.20841e-07 0)
(42.7158 -1.21014e-07 0)
(42.7157 -1.21298e-07 0)
(42.7157 -1.21507e-07 0)
(42.7156 -1.21713e-07 0)
(42.7155 -1.21907e-07 0)
(42.7154 -1.22078e-07 0)
(42.7154 -1.22233e-07 0)
(42.7153 -1.22358e-07 0)
(42.7152 -1.22464e-07 0)
(42.7151 -1.22545e-07 0)
(42.7151 -1.22581e-07 0)
(42.715 -1.22626e-07 0)
(42.7149 -1.22623e-07 0)
(42.7148 -1.22598e-07 0)
(42.7147 -1.226e-07 0)
(42.7146 -1.22584e-07 0)
(42.7145 -1.2257e-07 0)
(42.7144 -1.22548e-07 0)
(42.7143 -1.22309e-07 0)
(42.7142 -1.22134e-07 0)
(42.7141 -1.22039e-07 0)
(42.714 -1.22041e-07 0)
(42.7139 -1.21954e-07 0)
(42.7138 -1.21774e-07 0)
(42.7137 -1.21542e-07 0)
(42.7136 -1.21362e-07 0)
(42.7135 -1.21135e-07 0)
(42.7133 -1.20933e-07 0)
(42.7132 -1.20644e-07 0)
(42.7131 -1.20242e-07 0)
(42.713 -1.18605e-07 0)
(42.7128 -1.17113e-07 0)
(42.7127 -1.09564e-07 0)
(42.7126 -9.66957e-08 0)
(42.7124 2.38685e-08 0)
(42.7123 5.60246e-07 0)
(42.7122 3.37483e-06 0)
(42.712 1.72539e-05 0)
(42.7115 8.70142e-05 0)
(42.7099 0.000429036 0)
(42.7028 0.00207611 0)
(42.6695 0.0099713 0)
(42.5121 0.0466111 0)
(42.0659 0.226918 0)
(38.0456 0.73734 0)
(42.7002 0.000273348 0)