/*--------------------------------*- C++ -*----------------------------------*\
| =========                 |                                                 |
| \\      /  F ield         | OpenFOAM: The Open Source CFD Toolbox           |
|  \\    /   O peration     | Version:  3.0.x                                 |
|   \\  /    A nd           | Web:      www.OpenFOAM.org                      |
|    \\/     M anipulation  |                                                 |
\*---------------------------------------------------------------------------*/
FoamFile
{
    version     2.0;
    format      ascii;
    class       surfaceScalarField;
    location    "0.03";
    object      phi;
}
// * * * * * * * * * * * * * * * * * * * * * * * * * * * * * * * * * * * * * //

dimensions      [1 0 -1 0 0 0 0];

internalField   nonuniform List<scalar> 
26210
(
3.90502
0.000495648
3.9047
0.000320221
3.90442
0.000278718
3.90419
0.000229762
3.90401
0.000172219
3.9039
0.000117656
3.90382
7.34971e-05
3.90378
4.21591e-05
3.90375
2.23531e-05
3.90374
1.10554e-05
3.90374
5.18228e-06
3.90373
2.36723e-06
3.90373
1.11886e-06
3.90373
6.02085e-07
3.90373
4.01447e-07
3.90373
3.28044e-07
3.90373
3.02636e-07
3.90373
2.94287e-07
3.90373
2.91682e-07
3.90372
2.909e-07
3.90372
2.90678e-07
3.90372
2.90627e-07
3.90372
2.90609e-07
3.90372
2.90613e-07
3.90372
2.9062e-07
3.90372
2.90624e-07
3.90372
2.90627e-07
3.90372
2.90627e-07
3.90371
2.90638e-07
3.90371
2.90642e-07
3.90371
2.90645e-07
3.90371
2.90649e-07
3.90371
2.90653e-07
3.90371
2.90664e-07
3.90371
2.9066e-07
3.90371
2.90667e-07
3.90371
2.90675e-07
3.90371
2.90682e-07
3.9037
2.90685e-07
3.9037
2.90689e-07
3.9037
2.90693e-07
3.9037
2.90696e-07
3.9037
2.90704e-07
3.9037
2.90707e-07
3.9037
2.90707e-07
3.9037
2.90711e-07
3.9037
2.90725e-07
3.90369
2.90725e-07
3.90369
2.90733e-07
3.90369
2.90733e-07
3.90369
2.90744e-07
3.90369
2.90747e-07
3.90369
2.90755e-07
3.90369
2.90755e-07
3.90369
2.90758e-07
3.90369
2.90765e-07
3.90369
2.90769e-07
3.90368
2.90776e-07
3.90368
2.9078e-07
3.90368
2.90791e-07
3.90368
2.90784e-07
3.90368
2.90791e-07
3.90368
2.90795e-07
3.90368
2.90798e-07
3.90368
2.90809e-07
3.90368
2.90809e-07
3.90367
2.9082e-07
3.90367
2.9082e-07
3.90367
2.90831e-07
3.90367
2.90831e-07
3.90367
2.90835e-07
3.90367
2.90835e-07
3.90367
2.90845e-07
3.90367
2.90853e-07
3.90367
2.90856e-07
3.90367
2.9086e-07
3.90366
2.90867e-07
3.90366
2.90871e-07
3.90366
2.90878e-07
3.90366
2.90889e-07
3.90366
2.90896e-07
3.90366
2.909e-07
3.90366
2.90907e-07
3.90366
2.90911e-07
3.90366
2.90918e-07
3.90366
2.90922e-07
3.90366
2.90926e-07
3.90366
2.90936e-07
3.90366
2.90944e-07
3.90366
2.90955e-07
3.90365
2.90969e-07
3.90365
2.90998e-07
3.90365
2.91024e-07
3.90365
2.91071e-07
3.90364
2.91129e-07
3.90364
2.91227e-07
3.90363
2.91355e-07
3.90361
2.91555e-07
3.90359
2.91828e-07
3.90356
2.92213e-07
3.90351
2.92745e-07
3.90345
2.93472e-07
3.90336
2.94454e-07
3.90323
2.95753e-07
3.90306
2.97441e-07
3.90283
2.99598e-07
3.90252
3.02298e-07
3.90211
3.05612e-07
3.90158
3.09567e-07
3.90091
3.14187e-07
3.90006
3.19396e-07
3.89901
3.25072e-07
3.89773
3.30951e-07
3.8962
3.36677e-07
3.89441
3.41737e-07
3.89234
3.4547e-07
3.89001
3.47089e-07
3.88744
3.45695e-07
3.88467
3.40351e-07
3.88178
3.30121e-07
3.87884
3.14223e-07
3.87596
2.92075e-07
3.87326
2.63481e-07
3.87087
2.2868e-07
3.8689
1.88433e-07
3.86748
1.44082e-07
3.86669
9.7516e-08
3.8666
5.73636e-08
3.8672
2.18315e-08
3.86847
-3.0057e-08
3.87039
-6.25041e-08
3.87286
-8.52378e-08
3.87576
-9.34633e-08
3.87892
-9.69922e-08
3.8822
-8.23347e-08
3.88543
-6.0194e-08
3.88848
-3.07045e-08
3.89123
8.80755e-09
3.89361
4.73774e-08
3.89556
8.98326e-08
3.89707
1.31051e-07
3.89817
1.65721e-07
3.8989
1.9915e-07
3.89931
2.24223e-07
3.89948
2.43876e-07
3.89945
2.57114e-07
3.89931
2.65438e-07
3.89909
2.72554e-07
3.89882
2.75035e-07
3.89854
2.7394e-07
3.89827
2.7295e-07
3.89802
2.69109e-07
3.89779
2.66104e-07
3.89759
2.63313e-07
3.89742
2.59657e-07
3.89726
2.57602e-07
3.89713
2.54706e-07
3.89701
2.5245e-07
3.89691
2.51246e-07
3.89683
2.48583e-07
3.89675
2.4779e-07
3.89668
2.46626e-07
3.89663
2.45316e-07
3.89658
2.44756e-07
3.89654
2.43355e-07
3.89651
2.42686e-07
3.89649
2.42067e-07
3.89647
2.41176e-07
3.89646
2.41223e-07
3.89646
2.40409e-07
3.89646
2.40077e-07
3.89647
2.39841e-07
3.89648
2.39241e-07
3.89649
2.39164e-07
3.89651
2.38862e-07
3.89654
2.3875e-07
3.89657
2.38968e-07
3.8966
2.38702e-07
3.89663
2.38786e-07
3.89666
2.38877e-07
3.8967
2.38848e-07
3.89674
2.39179e-07
3.89678
2.39295e-07
3.89682
2.39455e-07
3.89686
2.39852e-07
3.8969
2.40088e-07
3.89693
2.40991e-07
3.89697
2.44407e-07
3.897
2.78091e-07
3.89704
3.02625e-07
3.89707
6.40452e-07
3.89709
2.11355e-06
3.89711
9.98545e-06
3.89709
4.70289e-05
3.89689
0.000228732
3.8958
0.00111163
3.89054
0.00527964
3.86571
0.0248522
3.73798
0.127744
0.493397
3.24464
5.52327
0.000453084
5.52329
0.000304538
5.52331
0.000258786
5.52332
0.000215245
5.52333
0.000161735
5.52333
0.000110668
5.52334
6.93057e-05
5.52334
3.98654e-05
5.52334
2.11984e-05
5.52334
1.05156e-05
5.52333
4.94242e-06
5.52333
2.2617e-06
5.52333
1.06822e-06
5.52333
5.72178e-07
5.52333
3.78768e-07
5.52333
3.07691e-07
5.52333
2.82973e-07
5.52332
2.74807e-07
5.52332
2.72245e-07
5.52332
2.71471e-07
5.52332
2.71259e-07
5.52332
2.71206e-07
5.52332
2.71186e-07
5.52332
2.71188e-07
5.52331
2.71189e-07
5.52331
2.71193e-07
5.52331
2.71199e-07
5.52331
2.712e-07
5.52331
2.71211e-07
5.52331
2.71217e-07
5.52331
2.71215e-07
5.5233
2.7122e-07
5.5233
2.71226e-07
5.5233
2.71237e-07
5.5233
2.71235e-07
5.5233
2.71246e-07
5.5233
2.71251e-07
5.52329
2.71251e-07
5.52329
2.71251e-07
5.52329
2.71259e-07
5.52329
2.71264e-07
5.52329
2.7127e-07
5.52329
2.7127e-07
5.52329
2.71273e-07
5.52328
2.71286e-07
5.52328
2.71284e-07
5.52328
2.7129e-07
5.52328
2.7129e-07
5.52328
2.71299e-07
5.52328
2.71302e-07
5.52328
2.71311e-07
5.52327
2.71317e-07
5.52327
2.71319e-07
5.52327
2.71322e-07
5.52327
2.71328e-07
5.52327
2.71333e-07
5.52327
2.71331e-07
5.52326
2.71342e-07
5.52326
2.71344e-07
5.52326
2.71355e-07
5.52326
2.71344e-07
5.52326
2.7135e-07
5.52326
2.7135e-07
5.52326
2.71355e-07
5.52325
2.71368e-07
5.52325
2.71362e-07
5.52325
2.71375e-07
5.52325
2.71377e-07
5.52325
2.71386e-07
5.52325
2.71384e-07
5.52325
2.71391e-07
5.52324
2.71395e-07
5.52324
2.71399e-07
5.52324
2.71406e-07
5.52324
2.71404e-07
5.52324
2.7141e-07
5.52324
2.71426e-07
5.52324
2.71428e-07
5.52323
2.71431e-07
5.52323
2.71439e-07
5.52323
2.71446e-07
5.52323
2.71448e-07
5.52323
2.7145e-07
5.52323
2.71464e-07
5.52323
2.71464e-07
5.52323
2.71464e-07
5.52323
2.71471e-07
5.52323
2.71486e-07
5.52323
2.71493e-07
5.52323
2.71501e-07
5.52322
2.71513e-07
5.52322
2.71544e-07
5.52322
2.71564e-07
5.52321
2.71608e-07
5.52321
2.71659e-07
5.5232
2.71755e-07
5.52318
2.71879e-07
5.52316
2.72066e-07
5.52313
2.72321e-07
5.52309
2.72679e-07
5.52302
2.73185e-07
5.52293
2.7386e-07
5.5228
2.74787e-07
5.52263
2.76006e-07
5.52238
2.77591e-07
5.52205
2.7961e-07
5.52162
2.8214e-07
5.52104
2.85247e-07
5.52029
2.88946e-07
5.51934
2.93274e-07
5.51814
2.98149e-07
5.51666
3.03455e-07
5.51485
3.08944e-07
5.51269
3.14289e-07
5.51015
3.19e-07
5.50722
3.22467e-07
5.50393
3.23942e-07
5.50029
3.22598e-07
5.49638
3.17546e-07
5.49228
3.07933e-07
5.48813
2.93021e-07
5.48406
2.72274e-07
5.48024
2.45504e-07
5.47686
2.12958e-07
5.47408
1.75349e-07
5.47207
1.33936e-07
5.47095
9.05457e-08
5.47082
5.29471e-08
5.47167
2.00471e-08
5.47346
-2.81489e-08
5.47618
-5.8455e-08
5.47967
-7.93716e-08
5.48377
-8.70277e-08
5.48824
-8.99763e-08
5.49288
-7.63357e-08
5.49745
-5.55319e-08
5.50176
-2.79197e-08
5.50565
8.96944e-09
5.50901
4.49691e-08
5.51176
8.44393e-08
5.51391
1.22824e-07
5.51546
1.55154e-07
5.51649
1.86092e-07
5.51708
2.09471e-07
5.51731
2.2767e-07
5.51728
2.39959e-07
5.51707
2.47594e-07
5.51676
2.54195e-07
5.51638
2.56487e-07
5.51599
2.55484e-07
5.51561
2.54493e-07
5.51525
2.50981e-07
5.51493
2.48139e-07
5.51464
2.45558e-07
5.51439
2.42209e-07
5.51418
2.40239e-07
5.51399
2.37607e-07
5.51383
2.35506e-07
5.51368
2.34366e-07
5.51356
2.31945e-07
5.51345
2.3111e-07
5.51336
2.30099e-07
5.51328
2.28903e-07
5.51321
2.2835e-07
5.51316
2.27084e-07
5.51311
2.26402e-07
5.51308
2.25857e-07
5.51306
2.25045e-07
5.51304
2.25062e-07
5.51304
2.24351e-07
5.51304
2.23999e-07
5.51305
2.23799e-07
5.51306
2.23266e-07
5.51309
2.23145e-07
5.51312
2.22894e-07
5.51315
2.22781e-07
5.51319
2.2299e-07
5.51323
2.22777e-07
5.51328
2.22801e-07
5.51333
2.22906e-07
5.51338
2.22901e-07
5.51344
2.23185e-07
5.51349
2.23316e-07
5.51355
2.23457e-07
5.5136
2.23856e-07
5.51366
2.24269e-07
5.51371
2.25908e-07
5.51376
2.33444e-07
5.51381
2.83397e-07
5.51385
4.03557e-07
5.5139
1.18557e-06
5.51393
4.86817e-06
5.51396
2.34369e-05
5.51393
0.000112933
5.51365
0.000550142
5.51212
0.00267584
5.50471
0.0127147
5.46971
0.0598931
5.29389
0.303586
1.14131
4.64602
7.81109
0.000396322
7.81111
0.000279693
7.81113
0.000231123
7.81115
0.000194248
7.81117
0.000146537
7.81117
0.000100517
7.81118
6.31866e-05
7.81118
3.64987e-05
7.81118
1.94939e-05
7.81118
9.71394e-06
7.81118
4.58437e-06
7.81117
2.10379e-06
7.81117
9.92848e-07
7.81117
5.283e-07
7.81117
3.4601e-07
7.81117
2.78582e-07
7.81116
2.54972e-07
7.81116
2.47118e-07
7.81116
2.44633e-07
7.81116
2.43876e-07
7.81115
2.43671e-07
7.81115
2.43615e-07
7.81115
2.43593e-07
7.81115
2.43598e-07
7.81115
2.43599e-07
7.81114
2.43604e-07
7.81114
2.43609e-07
7.81114
2.43608e-07
7.81114
2.43615e-07
7.81114
2.43623e-07
7.81113
2.43622e-07
7.81113
2.43624e-07
7.81113
2.4363e-07
7.81113
2.43639e-07
7.81112
2.43636e-07
7.81112
2.43643e-07
7.81112
2.43651e-07
7.81112
2.43653e-07
7.81112
2.43655e-07
7.81111
2.43662e-07
7.81111
2.43658e-07
7.81111
2.43672e-07
7.81111
2.43672e-07
7.81111
2.43677e-07
7.8111
2.43688e-07
7.8111
2.43685e-07
7.8111
2.43688e-07
7.8111
2.4369e-07
7.8111
2.43698e-07
7.81109
2.43698e-07
7.81109
2.43708e-07
7.81109
2.43713e-07
7.81109
2.43714e-07
7.81108
2.43714e-07
7.81108
2.43725e-07
7.81108
2.43726e-07
7.81108
2.43727e-07
7.81108
2.43733e-07
7.81107
2.43735e-07
7.81107
2.43742e-07
7.81107
2.43734e-07
7.81107
2.4374e-07
7.81107
2.43741e-07
7.81106
2.43747e-07
7.81106
2.43758e-07
7.81106
2.43755e-07
7.81106
2.43764e-07
7.81106
2.43766e-07
7.81105
2.4377e-07
7.81105
2.43771e-07
7.81105
2.43779e-07
7.81105
2.43781e-07
7.81104
2.43785e-07
7.81104
2.43795e-07
7.81104
2.43789e-07
7.81104
2.43796e-07
7.81104
2.43808e-07
7.81104
2.43811e-07
7.81103
2.43812e-07
7.81103
2.43818e-07
7.81103
2.43825e-07
7.81103
2.43825e-07
7.81103
2.4383e-07
7.81103
2.4384e-07
7.81103
2.43842e-07
7.81103
2.43843e-07
7.81102
2.43846e-07
7.81102
2.4386e-07
7.81102
2.43867e-07
7.81102
2.43875e-07
7.81102
2.4389e-07
7.81102
2.43915e-07
7.81101
2.43935e-07
7.81101
2.43975e-07
7.811
2.44018e-07
7.81098
2.44106e-07
7.81096
2.44218e-07
7.81093
2.44383e-07
7.81089
2.44618e-07
7.81083
2.44941e-07
7.81073
2.45395e-07
7.81061
2.46004e-07
7.81042
2.46839e-07
7.81017
2.47934e-07
7.80983
2.49365e-07
7.80937
2.51184e-07
7.80875
2.53461e-07
7.80793
2.56255e-07
7.80688
2.59591e-07
7.80553
2.63485e-07
7.80383
2.67871e-07
7.80173
2.72636e-07
7.79917
2.77572e-07
7.79612
2.82372e-07
7.79253
2.86597e-07
7.78839
2.89701e-07
7.78373
2.91009e-07
7.77858
2.89775e-07
7.77305
2.85209e-07
7.76726
2.76535e-07
7.76138
2.631e-07
7.75563
2.44419e-07
7.75023
2.20325e-07
7.74544
1.91052e-07
7.74151
1.57236e-07
7.73867
1.20026e-07
7.7371
8.11297e-08
7.73691
4.71427e-08
7.73811
1.78252e-08
7.74064
-2.53958e-08
7.74448
-5.26434e-08
7.74943
-7.12043e-08
7.75522
-7.8172e-08
7.76155
-8.04948e-08
7.7681
-6.83649e-08
7.77457
-4.95884e-08
7.78067
-2.47483e-08
7.78617
8.58836e-09
7.79091
4.07481e-08
7.79481
7.61129e-08
7.79784
1.10582e-07
7.80004
1.39661e-07
7.8015
1.67233e-07
7.80233
1.88316e-07
7.80265
2.04552e-07
7.80261
2.15552e-07
7.80232
2.22361e-07
7.80187
2.28264e-07
7.80134
2.30306e-07
7.80079
2.29444e-07
7.80025
2.28466e-07
7.79974
2.25399e-07
7.79929
2.228e-07
7.79888
2.20485e-07
7.79853
2.17546e-07
7.79822
2.15695e-07
7.79796
2.13406e-07
7.79773
2.11522e-07
7.79753
2.10446e-07
7.79735
2.08364e-07
7.7972
2.07518e-07
7.79707
2.06663e-07
7.79696
2.05614e-07
7.79686
2.05068e-07
7.79678
2.04e-07
7.79672
2.03334e-07
7.79667
2.02857e-07
7.79664
2.02155e-07
7.79662
2.02124e-07
7.79661
2.01537e-07
7.79661
2.01197e-07
7.79663
2.01017e-07
7.79665
2.00573e-07
7.79668
2.00414e-07
7.79672
2.00219e-07
7.79677
2.00115e-07
7.79683
2.00283e-07
7.79689
2.00136e-07
7.79696
2.00118e-07
7.79703
2.00222e-07
7.7971
2.0024e-07
7.79718
2.00468e-07
7.79725
2.00607e-07
7.79733
2.00738e-07
7.79741
2.01137e-07
7.79749
2.01786e-07
7.79756
2.0449e-07
7.79763
2.17618e-07
7.7977
2.90866e-07
7.79777
5.42123e-07
7.79783
1.94098e-06
7.79788
8.68285e-06
7.79792
4.20882e-05
7.79788
0.000204243
7.79749
0.000995539
7.79537
0.00484332
7.7851
0.0230302
7.73661
0.108429
7.49709
0.543138
1.996
6.64247
34.4798
0.000183537
34.4799
0.000147073
34.48
0.00011538
34.4801
9.8286e-05
34.4801
7.52071e-05
34.4802
5.18053e-05
34.4802
3.27531e-05
34.4802
1.90454e-05
34.4802
1.02363e-05
34.4802
5.13028e-06
34.4802
2.43185e-06
34.4802
1.11834e-06
34.4802
5.2578e-07
34.4802
2.76306e-07
34.4802
1.77749e-07
34.4802
1.41043e-07
34.4801
1.28099e-07
34.4801
1.23763e-07
34.4801
1.22381e-07
34.4801
1.21956e-07
34.4801
1.2184e-07
34.4801
1.21808e-07
34.4801
1.21796e-07
34.4801
1.21798e-07
34.4801
1.21799e-07
34.4801
1.21803e-07
34.48
1.21804e-07
34.48
1.21804e-07
34.48
1.21807e-07
34.48
1.2181e-07
34.48
1.2181e-07
34.48
1.21809e-07
34.48
1.21815e-07
34.48
1.2182e-07
34.48
1.21817e-07
34.48
1.2182e-07
34.48
1.21823e-07
34.4799
1.21825e-07
34.4799
1.21826e-07
34.4799
1.21832e-07
34.4799
1.2183e-07
34.4799
1.21835e-07
34.4799
1.21835e-07
34.4799
1.21839e-07
34.4799
1.21845e-07
34.4799
1.21842e-07
34.4799
1.21843e-07
34.4799
1.21843e-07
34.4798
1.21847e-07
34.4798
1.21847e-07
34.4798
1.21853e-07
34.4798
1.21857e-07
34.4798
1.21856e-07
34.4798
1.21857e-07
34.4798
1.21861e-07
34.4798
1.21863e-07
34.4798
1.21864e-07
34.4798
1.21866e-07
34.4797
1.21866e-07
34.4797
1.21871e-07
34.4797
1.21868e-07
34.4797
1.2187e-07
34.4797
1.2187e-07
34.4797
1.21874e-07
34.4797
1.21878e-07
34.4797
1.21879e-07
34.4797
1.21882e-07
34.4797
1.21883e-07
34.4797
1.21885e-07
34.4796
1.21886e-07
34.4796
1.2189e-07
34.4796
1.21891e-07
34.4796
1.21892e-07
34.4796
1.219e-07
34.4796
1.21896e-07
34.4796
1.219e-07
34.4796
1.21905e-07
34.4796
1.21905e-07
34.4796
1.21905e-07
34.4796
1.21909e-07
34.4796
1.21915e-07
34.4796
1.21913e-07
34.4795
1.21916e-07
34.4795
1.2192e-07
34.4795
1.2192e-07
34.4795
1.2192e-07
34.4795
1.21922e-07
34.4795
1.21931e-07
34.4795
1.21933e-07
34.4795
1.21937e-07
34.4795
1.21946e-07
34.4795
1.21957e-07
34.4795
1.21966e-07
34.4794
1.21989e-07
34.4794
1.22009e-07
34.4793
1.22052e-07
34.4793
1.2211e-07
34.4791
1.22193e-07
34.4789
1.22307e-07
34.4787
1.22468e-07
34.4783
1.22694e-07
34.4777
1.23e-07
34.4769
1.23418e-07
34.4758
1.23965e-07
34.4743
1.24681e-07
34.4722
1.25591e-07
34.4695
1.26731e-07
34.4659
1.28127e-07
34.4612
1.29793e-07
34.4553
1.3174e-07
34.4478
1.33933e-07
34.4385
1.36315e-07
34.4272
1.38783e-07
34.4137
1.41181e-07
34.3979
1.43292e-07
34.3796
1.44842e-07
34.359
1.45496e-07
34.3363
1.44875e-07
34.3119
1.42591e-07
34.2864
1.38251e-07
34.2604
1.31531e-07
34.235
1.22192e-07
34.2112
1.10143e-07
34.19
9.55069e-08
34.1727
7.86008e-08
34.1601
5.99975e-08
34.1532
4.06171e-08
34.1524
2.33172e-08
34.1577
8.73752e-09
34.1689
-1.18703e-08
34.1858
-2.67555e-08
34.2076
-3.55035e-08
34.2332
-3.91988e-08
34.2611
-4.01333e-08
34.2901
-3.41465e-08
34.3186
-2.48097e-08
34.3455
-1.22518e-08
34.3698
4.24961e-09
34.3908
2.04109e-08
34.408
3.80614e-08
34.4213
5.5189e-08
34.4311
6.99383e-08
34.4375
8.35958e-08
34.4411
9.411e-08
34.4426
1.02257e-07
34.4424
1.0784e-07
34.4411
1.11113e-07
34.4391
1.14111e-07
34.4368
1.15169e-07
34.4343
1.14759e-07
34.432
1.14149e-07
34.4297
1.12737e-07
34.4277
1.11413e-07
34.4259
1.10205e-07
34.4244
1.08807e-07
34.423
1.07817e-07
34.4219
1.06723e-07
34.4208
1.05755e-07
34.4199
1.0519e-07
34.4192
1.04246e-07
34.4185
1.03708e-07
34.4179
1.03337e-07
34.4174
1.02813e-07
34.417
1.02511e-07
34.4167
1.02028e-07
34.4164
1.01653e-07
34.4162
1.0143e-07
34.416
1.01097e-07
34.4159
1.01031e-07
34.4159
1.00783e-07
34.4159
1.00593e-07
34.416
1.00496e-07
34.4161
1.00314e-07
34.4162
1.00185e-07
34.4164
1.00125e-07
34.4166
1.00058e-07
34.4169
1.0012e-07
34.4171
1.00088e-07
34.4174
1.00053e-07
34.4177
1.00104e-07
34.4181
1.00138e-07
34.4184
1.00221e-07
34.4187
1.00323e-07
34.4191
1.00436e-07
34.4194
1.00849e-07
34.4198
1.02349e-07
34.4201
1.09277e-07
34.4204
1.43444e-07
34.4207
3.14093e-07
34.421
1.06614e-06
34.4213
4.88759e-06
34.4215
2.35654e-05
34.4217
0.000115088
34.4216
0.000561119
34.4201
0.00273668
34.4118
0.0133016
34.3717
0.0633262
34.1862
0.294129
33.3934
1.33607
4.77446
30.6153
34.4797
4.54747e-13
34.4799
9.09495e-13
34.48
-4.54747e-13
34.4801
2.72848e-12
34.4801
1.81899e-12
34.4802
-4.54747e-13
34.4802
-3.18323e-12
34.4802
-2.72848e-12
34.4802
3.18323e-12
34.4802
4.54747e-13
34.4802
-4.54747e-13
34.4802
9.09495e-13
34.4802
2.27374e-12
34.4802
1.81899e-12
34.4802
1.81899e-12
34.4802
-4.54747e-13
34.4801
-2.72848e-12
34.4801
-1.81899e-12
34.4801
-2.27374e-12
34.4801
-5.00222e-12
34.4801
1.36424e-12
34.4801
9.09495e-13
34.4801
-2.27374e-12
34.4801
0
34.4801
1.81899e-12
34.4801
9.09495e-13
34.48
1.36424e-12
34.48
-9.09495e-13
34.48
-4.54747e-13
34.48
-1.36424e-12
34.48
4.54747e-13
34.48
-3.63798e-12
34.48
0
34.48
1.81899e-12
34.48
-9.09495e-13
34.48
-1.81899e-12
34.48
0
34.4799
-1.36424e-12
34.4799
-2.72848e-12
34.4799
9.09495e-13
34.4799
0
34.4799
0
34.4799
0
34.4799
0
34.4799
2.27374e-12
34.4799
9.09495e-13
34.4799
-1.81899e-12
34.4799
-2.27374e-12
34.4798
-4.54747e-13
34.4798
-3.63798e-12
34.4798
1.36424e-12
34.4798
1.81899e-12
34.4798
-9.09495e-13
34.4798
-9.09495e-13
34.4798
-4.54747e-13
34.4798
1.81899e-12
34.4798
1.36424e-12
34.4798
1.36424e-12
34.4797
-1.81899e-12
34.4797
1.36424e-12
34.4797
9.09495e-13
34.4797
1.36424e-12
34.4797
0
34.4797
1.36424e-12
34.4797
3.18323e-12
34.4797
2.27374e-12
34.4797
2.27374e-12
34.4797
2.72848e-12
34.4797
2.27374e-12
34.4796
4.54747e-13
34.4796
3.18323e-12
34.4796
1.81899e-12
34.4796
1.36424e-12
34.4796
6.36646e-12
34.4796
2.27374e-12
34.4796
2.27374e-12
34.4796
3.63798e-12
34.4796
0
34.4796
-9.09495e-13
34.4796
0
34.4796
4.54747e-12
34.4796
0
34.4795
9.09495e-13
34.4795
0
34.4795
-9.09495e-13
34.4795
-2.72848e-12
34.4795
-1.81899e-12
34.4795
1.81899e-12
34.4795
4.54747e-13
34.4795
9.09495e-13
34.4795
1.36424e-12
34.4795
1.81899e-12
34.4795
-1.36424e-12
34.4794
3.18323e-12
34.4794
-3.18323e-12
34.4793
-4.54747e-13
34.4793
1.81899e-12
34.4791
2.72848e-12
34.4789
-2.27374e-12
34.4787
-3.18323e-12
34.4783
-4.09273e-12
34.4777
-3.18323e-12
34.4769
-4.54747e-13
34.4758
-1.81899e-12
34.4743
-1.81899e-12
34.4722
-2.27374e-12
34.4695
0
34.4659
4.54747e-13
34.4612
-1.81899e-12
34.4553
0
34.4478
-1.36424e-12
34.4385
-9.09495e-13
34.4272
4.54747e-13
34.4137
0
34.3979
-4.54747e-13
34.3796
9.09495e-13
34.359
1.81899e-12
34.3363
9.09495e-13
34.3119
1.36424e-12
34.2864
4.54747e-13
34.2604
9.09495e-13
34.235
2.27374e-12
34.2112
-1.36424e-12
34.19
-9.09495e-13
34.1727
0
34.1601
-1.81899e-12
34.1532
4.54747e-13
34.1524
3.18323e-12
34.1577
3.63798e-12
34.1689
1.81899e-12
34.1858
9.09495e-13
34.2076
9.09495e-13
34.2332
0
34.2611
-4.54747e-13
34.2901
-1.36424e-12
34.3186
0
34.3455
-9.09495e-13
34.3698
0
34.3908
-4.54747e-13
34.408
2.27374e-12
34.4213
2.72848e-12
34.4311
9.09495e-13
34.4375
-3.18323e-12
34.4411
-1.81899e-12
34.4426
9.09495e-13
34.4424
4.54747e-13
34.4411
4.54747e-13
34.4391
-1.36424e-12
34.4368
1.36424e-12
34.4343
4.54747e-13
34.432
2.27374e-12
34.4297
-2.27374e-12
34.4277
-1.36424e-12
34.4259
1.36424e-12
34.4244
2.27374e-12
34.423
2.27374e-12
34.4219
2.72848e-12
34.4208
2.72848e-12
34.4199
-4.54747e-13
34.4192
-1.36424e-12
34.4185
-1.81899e-12
34.4179
-1.81899e-12
34.4174
4.54747e-13
34.417
4.54747e-13
34.4167
0
34.4164
-3.18323e-12
34.4162
-1.36424e-12
34.416
1.36424e-12
34.4159
0
34.4159
0
34.4159
-2.27374e-12
34.416
-4.54747e-13
34.4161
-2.27374e-12
34.4162
-1.36424e-12
34.4164
-1.36424e-12
34.4166
4.54747e-13
34.4169
0
34.4171
1.36424e-12
34.4174
1.81899e-12
34.4177
0
34.4181
4.54747e-13
34.4184
4.09273e-12
34.4187
1.81899e-11
34.4191
8.95852e-11
34.4194
4.44288e-10
34.4198
2.18506e-09
34.4201
1.06975e-08
34.4204
5.22577e-08
34.4207
2.54395e-07
34.421
1.20862e-06
34.4213
5.95157e-06
34.4215
2.91813e-05
34.4217
0.000142883
34.4218
0.000698043
34.4214
0.003408
34.4183
0.0165928
34.4018
0.0800687
34.3177
0.378403
33.8995
1.75443
6.37519
32.299
34.4797
-0.000183537
34.4799
-0.000147073
34.48
-0.00011538
34.4801
-9.8286e-05
34.4801
-7.52071e-05
34.4802
-5.18053e-05
34.4802
-3.27531e-05
34.4802
-1.90454e-05
34.4802
-1.02363e-05
34.4802
-5.13028e-06
34.4802
-2.43185e-06
34.4802
-1.11834e-06
34.4802
-5.25776e-07
34.4802
-2.76303e-07
34.4802
-1.77745e-07
34.4802
-1.41043e-07
34.4801
-1.28105e-07
34.4801
-1.23768e-07
34.4801
-1.22384e-07
34.4801
-1.21965e-07
34.4801
-1.21839e-07
34.4801
-1.21805e-07
34.4801
-1.218e-07
34.4801
-1.21798e-07
34.4801
-1.21798e-07
34.4801
-1.218e-07
34.48
-1.21803e-07
34.48
-1.21805e-07
34.48
-1.21808e-07
34.48
-1.21812e-07
34.48
-1.2181e-07
34.48
-1.21816e-07
34.48
-1.21817e-07
34.48
-1.21815e-07
34.48
-1.2182e-07
34.48
-1.21824e-07
34.48
-1.21822e-07
34.4799
-1.21827e-07
34.4799
-1.21833e-07
34.4799
-1.21829e-07
34.4799
-1.2183e-07
34.4799
-1.21835e-07
34.4799
-1.21836e-07
34.4799
-1.21838e-07
34.4799
-1.21837e-07
34.4799
-1.21842e-07
34.4799
-1.21846e-07
34.4799
-1.21848e-07
34.4798
-1.21849e-07
34.4798
-1.21853e-07
34.4798
-1.21851e-07
34.4798
-1.21853e-07
34.4798
-1.21856e-07
34.4798
-1.21859e-07
34.4798
-1.21862e-07
34.4798
-1.2186e-07
34.4798
-1.21863e-07
34.4798
-1.21863e-07
34.4797
-1.2187e-07
34.4797
-1.21869e-07
34.4797
-1.21866e-07
34.4797
-1.21867e-07
34.4797
-1.2187e-07
34.4797
-1.21871e-07
34.4797
-1.21872e-07
34.4797
-1.21875e-07
34.4797
-1.21878e-07
34.4797
-1.21879e-07
34.4797
-1.21882e-07
34.4796
-1.21885e-07
34.4796
-1.21885e-07
34.4796
-1.21889e-07
34.4796
-1.2189e-07
34.4796
-1.21888e-07
34.4796
-1.21893e-07
34.4796
-1.21896e-07
34.4796
-1.21896e-07
34.4796
-1.21903e-07
34.4796
-1.21907e-07
34.4796
-1.2191e-07
34.4796
-1.21907e-07
34.4796
-1.21912e-07
34.4795
-1.21915e-07
34.4795
-1.2192e-07
34.4795
-1.21922e-07
34.4795
-1.21925e-07
34.4795
-1.21927e-07
34.4795
-1.21928e-07
34.4795
-1.21932e-07
34.4795
-1.21934e-07
34.4795
-1.21942e-07
34.4795
-1.21955e-07
34.4795
-1.2197e-07
34.4794
-1.21983e-07
34.4794
-1.22016e-07
34.4793
-1.22052e-07
34.4793
-1.22106e-07
34.4791
-1.22187e-07
34.4789
-1.22311e-07
34.4787
-1.22474e-07
34.4783
-1.22704e-07
34.4777
-1.23008e-07
34.4769
-1.23418e-07
34.4758
-1.2397e-07
34.4743
-1.24682e-07
34.4722
-1.25597e-07
34.4695
-1.26731e-07
34.4659
-1.28125e-07
34.4612
-1.29794e-07
34.4553
-1.31742e-07
34.4478
-1.33934e-07
34.4385
-1.36317e-07
34.4272
-1.38782e-07
34.4137
-1.41181e-07
34.3979
-1.43294e-07
34.3796
-1.44841e-07
34.359
-1.45492e-07
34.3363
-1.44873e-07
34.3119
-1.42588e-07
34.2864
-1.3825e-07
34.2604
-1.31529e-07
34.235
-1.22186e-07
34.2112
-1.10147e-07
34.19
-9.55074e-08
34.1727
-7.86017e-08
34.1601
-6.00003e-08
34.1532
-4.06158e-08
34.1524
-2.33117e-08
34.1577
-8.72933e-09
34.1689
1.18725e-08
34.1858
2.67592e-08
34.2076
3.5503e-08
34.2332
3.91983e-08
34.2611
4.01301e-08
34.2901
3.41447e-08
34.3186
2.48092e-08
34.3455
1.22491e-08
34.3698
-4.25007e-09
34.3908
-2.04122e-08
34.408
-3.80569e-08
34.4213
-5.51854e-08
34.4311
-6.9937e-08
34.4375
-8.36003e-08
34.4411
-9.4115e-08
34.4426
-1.02256e-07
34.4424
-1.07839e-07
34.4411
-1.11111e-07
34.4391
-1.14115e-07
34.4368
-1.15167e-07
34.4343
-1.14758e-07
34.432
-1.14143e-07
34.4297
-1.12742e-07
34.4277
-1.11416e-07
34.4259
-1.10202e-07
34.4244
-1.08802e-07
34.423
-1.07814e-07
34.4219
-1.06716e-07
34.4208
-1.0575e-07
34.4199
-1.0519e-07
34.4192
-1.0425e-07
34.4185
-1.03711e-07
34.4179
-1.03339e-07
34.4174
-1.02811e-07
34.417
-1.02508e-07
34.4167
-1.02029e-07
34.4164
-1.0166e-07
34.4162
-1.01434e-07
34.416
-1.01096e-07
34.4159
-1.01031e-07
34.4159
-1.00785e-07
34.4159
-1.00599e-07
34.416
-1.00496e-07
34.4161
-1.00316e-07
34.4162
-1.00187e-07
34.4164
-1.00129e-07
34.4166
-1.00059e-07
34.4169
-1.0012e-07
34.4171
-1.00085e-07
34.4174
-1.00049e-07
34.4177
-1.00103e-07
34.4181
-1.00137e-07
34.4184
-1.00214e-07
34.4187
-1.00295e-07
34.4191
-1.00291e-07
34.4194
-1.0013e-07
34.4198
-9.88116e-08
34.4201
-9.19631e-08
34.4204
-5.8727e-08
34.4207
1.02222e-07
34.421
8.73058e-07
34.4213
4.6918e-06
34.4215
2.34071e-05
34.4218
0.000115018
34.4222
0.000563446
34.4231
0.00276106
34.4263
0.0135552
34.4399
0.0667184
34.4912
0.327203
34.5727
1.67311
5.79274
35.1553
34.4798
-0.000396322
34.4799
-0.000279693
34.48
-0.000231123
34.4801
-0.000194248
34.4801
-0.000146537
34.4802
-0.000100517
34.4802
-6.31866e-05
34.4802
-3.64987e-05
34.4802
-1.94939e-05
34.4802
-9.71394e-06
34.4802
-4.58437e-06
34.4802
-2.10378e-06
34.4802
-9.92842e-07
34.4802
-5.28295e-07
34.4802
-3.46007e-07
34.4802
-2.78583e-07
34.4801
-2.54978e-07
34.4801
-2.47122e-07
34.4801
-2.44633e-07
34.4801
-2.43889e-07
34.4801
-2.43666e-07
34.4801
-2.43606e-07
34.4801
-2.43601e-07
34.4801
-2.436e-07
34.4801
-2.43598e-07
34.4801
-2.43603e-07
34.48
-2.4361e-07
34.48
-2.43611e-07
34.48
-2.43615e-07
34.48
-2.43624e-07
34.48
-2.43622e-07
34.48
-2.43634e-07
34.48
-2.43636e-07
34.48
-2.43634e-07
34.48
-2.43641e-07
34.48
-2.43645e-07
34.48
-2.43645e-07
34.4799
-2.43651e-07
34.4799
-2.43665e-07
34.4799
-2.4366e-07
34.4799
-2.43662e-07
34.4799
-2.43673e-07
34.4799
-2.43673e-07
34.4799
-2.43678e-07
34.4799
-2.43678e-07
34.4799
-2.43684e-07
34.4799
-2.43689e-07
34.4799
-2.43694e-07
34.4798
-2.43701e-07
34.4798
-2.43706e-07
34.4798
-2.43705e-07
34.4798
-2.43709e-07
34.4798
-2.43715e-07
34.4798
-2.43716e-07
34.4798
-2.43723e-07
34.4798
-2.43723e-07
34.4798
-2.43727e-07
34.4798
-2.43732e-07
34.4797
-2.43741e-07
34.4797
-2.43741e-07
34.4797
-2.43731e-07
34.4797
-2.43738e-07
34.4797
-2.43742e-07
34.4797
-2.43743e-07
34.4797
-2.43749e-07
34.4797
-2.43755e-07
34.4797
-2.43757e-07
34.4797
-2.43764e-07
34.4797
-2.43767e-07
34.4796
-2.43773e-07
34.4796
-2.43774e-07
34.4796
-2.43779e-07
34.4796
-2.43783e-07
34.4796
-2.43782e-07
34.4796
-2.43791e-07
34.4796
-2.43797e-07
34.4796
-2.43793e-07
34.4796
-2.43807e-07
34.4796
-2.43813e-07
34.4796
-2.43822e-07
34.4796
-2.4382e-07
34.4796
-2.43826e-07
34.4795
-2.43836e-07
34.4795
-2.43842e-07
34.4795
-2.43843e-07
34.4795
-2.43849e-07
34.4795
-2.43856e-07
34.4795
-2.43858e-07
34.4795
-2.43866e-07
34.4795
-2.43873e-07
34.4795
-2.43886e-07
34.4795
-2.43913e-07
34.4795
-2.43937e-07
34.4794
-2.43966e-07
34.4794
-2.44032e-07
34.4793
-2.44107e-07
34.4793
-2.44216e-07
34.4791
-2.44378e-07
34.4789
-2.44624e-07
34.4787
-2.44944e-07
34.4783
-2.45404e-07
34.4777
-2.46015e-07
34.4769
-2.46839e-07
34.4758
-2.4794e-07
34.4743
-2.49363e-07
34.4722
-2.51192e-07
34.4695
-2.53461e-07
34.4659
-2.56254e-07
34.4612
-2.5959e-07
34.4553
-2.63488e-07
34.4478
-2.67872e-07
34.4385
-2.72639e-07
34.4272
-2.77568e-07
34.4137
-2.82372e-07
34.3979
-2.86598e-07
34.3796
-2.897e-07
34.359
-2.91006e-07
34.3363
-2.89776e-07
34.3119
-2.85208e-07
34.2864
-2.76536e-07
34.2604
-2.63098e-07
34.235
-2.44409e-07
34.2112
-2.2033e-07
34.19
-1.91051e-07
34.1727
-1.57241e-07
34.1601
-1.20026e-07
34.1532
-8.11287e-08
34.1524
-4.71337e-08
34.1577
-1.78161e-08
34.1689
2.53985e-08
34.1858
5.26488e-08
34.2076
7.12071e-08
34.2332
7.81711e-08
34.2611
8.04857e-08
34.2901
6.83622e-08
34.3186
4.95902e-08
34.3455
2.47474e-08
34.3698
-8.58745e-09
34.3908
-4.07517e-08
34.408
-7.61056e-08
34.4213
-1.10575e-07
34.4311
-1.3966e-07
34.4375
-1.67239e-07
34.4411
-1.88322e-07
34.4426
-2.04548e-07
34.4424
-2.15551e-07
34.4411
-2.2236e-07
34.4391
-2.28267e-07
34.4368
-2.30308e-07
34.4343
-2.29448e-07
34.432
-2.28458e-07
34.4297
-2.25404e-07
34.4277
-2.22807e-07
34.4259
-2.20483e-07
34.4244
-2.17541e-07
34.423
-2.15692e-07
34.4219
-2.13399e-07
34.4208
-2.11518e-07
34.4199
-2.10447e-07
34.4192
-2.08373e-07
34.4185
-2.07523e-07
34.4179
-2.06663e-07
34.4174
-2.05611e-07
34.417
-2.05067e-07
34.4167
-2.04004e-07
34.4164
-2.03346e-07
34.4162
-2.02859e-07
34.416
-2.02155e-07
34.4159
-2.02124e-07
34.4159
-2.01537e-07
34.4159
-2.01208e-07
34.416
-2.01017e-07
34.4161
-2.00575e-07
34.4162
-2.00414e-07
34.4164
-2.00223e-07
34.4166
-2.00118e-07
34.4169
-2.00283e-07
34.4171
-2.00136e-07
34.4174
-2.00119e-07
34.4177
-2.00219e-07
34.4181
-2.00241e-07
34.4184
-2.00466e-07
34.4187
-2.00603e-07
34.4191
-2.00688e-07
34.4194
-2.00874e-07
34.4198
-2.00504e-07
34.4201
-1.98204e-07
34.4204
-1.86548e-07
34.4207
-1.29828e-07
34.421
1.54181e-07
34.4213
1.5416e-06
34.4216
8.35098e-06
34.4219
4.16777e-05
34.4225
0.000204979
34.4244
0.00100638
34.4333
0.0049651
34.4753
0.0248548
34.673
0.129676
35.4369
0.909406
2.97767
38.2519
7.81109
-0.000453084
7.81111
-0.000304538
7.81113
-0.000258786
7.81115
-0.000215245
7.81117
-0.000161735
7.81117
-0.000110668
7.81118
-6.93057e-05
7.81118
-3.98654e-05
7.81118
-2.11984e-05
7.81118
-1.05156e-05
7.81118
-4.94241e-06
7.81117
-2.2617e-06
7.81117
-1.06822e-06
7.81117
-5.72176e-07
7.81117
-3.78757e-07
7.81117
-3.07684e-07
7.81116
-2.82977e-07
7.81116
-2.74815e-07
7.81116
-2.72245e-07
7.81116
-2.71481e-07
7.81115
-2.71255e-07
7.81115
-2.71197e-07
7.81115
-2.71191e-07
7.81115
-2.71191e-07
7.81115
-2.71188e-07
7.81114
-2.71193e-07
7.81114
-2.71202e-07
7.81114
-2.71204e-07
7.81114
-2.71208e-07
7.81114
-2.71217e-07
7.81113
-2.71217e-07
7.81113
-2.71228e-07
7.81113
-2.71228e-07
7.81113
-2.71226e-07
7.81112
-2.71237e-07
7.81112
-2.71242e-07
7.81112
-2.71239e-07
7.81112
-2.7125e-07
7.81112
-2.71259e-07
7.81111
-2.71255e-07
7.81111
-2.71264e-07
7.81111
-2.71271e-07
7.81111
-2.7127e-07
7.81111
-2.71279e-07
7.8111
-2.71279e-07
7.8111
-2.71284e-07
7.8111
-2.71291e-07
7.8111
-2.71295e-07
7.8111
-2.71304e-07
7.81109
-2.71304e-07
7.81109
-2.7131e-07
7.81109
-2.71315e-07
7.81109
-2.71319e-07
7.81108
-2.71322e-07
7.81108
-2.71324e-07
7.81108
-2.71326e-07
7.81108
-2.71331e-07
7.81108
-2.7134e-07
7.81107
-2.71346e-07
7.81107
-2.71348e-07
7.81107
-2.71339e-07
7.81107
-2.71344e-07
7.81107
-2.71353e-07
7.81106
-2.71353e-07
7.81106