/*--------------------------------*- C++ -*----------------------------------*\
| =========                 |                                                 |
| \\      /  F ield         | OpenFOAM: The Open Source CFD Toolbox           |
|  \\    /   O peration     | Version:  3.0.x                                 |
|   \\  /    A nd           | Web:      www.OpenFOAM.org                      |
|    \\/     M anipulation  |                                                 |
\*---------------------------------------------------------------------------*/
FoamFile
{
    version     2.0;
    format      ascii;
    class       volScalarField;
    location    "0.449925";
    object      p;
}
// * * * * * * * * * * * * * * * * * * * * * * * * * * * * * * * * * * * * * //

dimensions      [1 -1 -2 0 0 0 0];

internalField   nonuniform List<scalar> 
13800
(
1.80345e+07
1.80345e+07
1.80345e+07
1.80345e+07
1.80345e+07
1.80345e+07
1.80345e+07
1.80345e+07
1.80345e+07
1.80345e+07
1.80345e+07
1.80345e+07
1.80345e+07
1.80345e+07
1.80345e+07
1.80345e+07
1.80345e+07
1.80345e+07
1.80345e+07
1.80345e+07
1.80345e+07
1.80345e+07
1.80345e+07
1.80345e+07
1.80345e+07
1.80345e+07
1.80345e+07
1.80345e+07
1.80345e+07
1.80345e+07
1.80345e+07
1.80345e+07
1.80345e+07
1.80345e+07
1.80345e+07
1.80346e+07
1.80346e+07
1.80346e+07
1.80346e+07
1.80346e+07
1.80346e+07
1.80346e+07
1.80346e+07
1.80346e+07
1.80346e+07
1.80346e+07
1.80346e+07
1.80346e+07
1.80346e+07
1.80346e+07
1.80346e+07
1.80346e+07
1.80346e+07
1.80346e+07
1.80346e+07
1.80346e+07
1.80346e+07
1.80346e+07
1.80346e+07
1.80346e+07
1.80346e+07
1.80346e+07
1.80346e+07
1.80346e+07
1.80346e+07
1.80346e+07
1.80346e+07
1.80346e+07
1.80346e+07
1.80346e+07
1.80346e+07
1.80346e+07
1.80346e+07
1.80346e+07
1.80346e+07
1.80346e+07
1.80346e+07
1.80346e+07
1.80346e+07
1.80346e+07
1.80346e+07
1.80346e+07
1.80346e+07
1.80346e+07
1.80347e+07
1.80347e+07
1.80347e+07
1.80347e+07
1.80347e+07
1.80347e+07
1.80348e+07
1.80348e+07
1.80348e+07
1.80348e+07
1.80349e+07
1.80349e+07
1.8035e+07
1.8035e+07
1.8035e+07
1.80351e+07
1.80351e+07
1.80352e+07
1.80353e+07
1.80353e+07
1.80354e+07
1.80355e+07
1.80356e+07
1.80357e+07
1.80358e+07
1.80359e+07
1.8036e+07
1.80361e+07
1.80363e+07
1.80364e+07
1.80366e+07
1.80368e+07
1.80369e+07
1.80371e+07
1.80373e+07
1.80375e+07
1.80378e+07
1.8038e+07
1.80383e+07
1.80385e+07
1.80388e+07
1.80391e+07
1.80395e+07
1.80398e+07
1.80402e+07
1.80406e+07
1.8041e+07
1.80414e+07
1.80418e+07
1.80423e+07
1.80428e+07
1.80433e+07
1.80438e+07
1.80444e+07
1.8045e+07
1.80456e+07
1.80462e+07
1.80469e+07
1.80476e+07
1.80483e+07
1.8049e+07
1.80498e+07
1.80506e+07
1.80514e+07
1.80523e+07
1.80532e+07
1.80542e+07
1.80551e+07
1.80561e+07
1.80572e+07
1.80582e+07
1.80593e+07
1.80605e+07
1.80616e+07
1.80628e+07
1.80641e+07
1.80654e+07
1.80667e+07
1.80681e+07
1.80694e+07
1.80709e+07
1.80724e+07
1.80739e+07
1.80754e+07
1.8077e+07
1.80786e+07
1.80803e+07
1.8082e+07
1.80838e+07
1.80856e+07
1.80874e+07
1.80893e+07
1.80912e+07
1.80932e+07
1.80952e+07
1.80973e+07
1.80994e+07
1.81015e+07
1.81037e+07
1.81059e+07
1.81082e+07
1.81105e+07
1.81129e+07
1.81153e+07
1.81178e+07
1.81203e+07
1.81228e+07
1.81254e+07
1.81281e+07
1.81308e+07
1.81335e+07
1.81363e+07
1.81392e+07
1.81423e+07
1.8146e+07
1.81513e+07
1.80345e+07
1.80345e+07
1.80345e+07
1.80345e+07
1.80345e+07
1.80345e+07
1.80345e+07
1.80345e+07
1.80345e+07
1.80345e+07
1.80345e+07
1.80345e+07
1.80345e+07
1.80345e+07
1.80345e+07
1.80345e+07
1.80345e+07
1.80345e+07
1.80345e+07
1.80345e+07
1.80345e+07
1.80345e+07
1.80345e+07
1.80345e+07
1.80345e+07
1.80345e+07
1.80345e+07
1.80345e+07
1.80345e+07
1.80345e+07
1.80345e+07
1.80345e+07
1.80345e+07
1.80345e+07
1.80345e+07
1.80346e+07
1.80346e+07
1.80346e+07
1.80346e+07
1.80346e+07
1.80346e+07
1.80346e+07
1.80346e+07
1.80346e+07
1.80346e+07
1.80346e+07
1.80346e+07
1.80346e+07
1.80346e+07
1.80346e+07
1.80346e+07
1.80346e+07
1.80346e+07
1.80346e+07
1.80346e+07
1.80346e+07
1.80346e+07
1.80346e+07
1.80346e+07
1.80346e+07
1.80346e+07
1.80346e+07
1.80346e+07
1.80346e+07
1.80346e+07
1.80346e+07
1.80346e+07
1.80346e+07
1.80346e+07
1.80346e+07
1.80346e+07
1.80346e+07
1.80346e+07
1.80346e+07
1.80346e+07
1.80346e+07
1.80346e+07
1.80346e+07
1.80346e+07
1.80346e+07
1.80346e+07
1.80346e+07
1.80346e+07
1.80346e+07
1.80347e+07
1.80347e+07
1.80347e+07
1.80347e+07
1.80347e+07
1.80347e+07
1.80348e+07
1.80348e+07
1.80348e+07
1.80348e+07
1.80349e+07
1.80349e+07
1.8035e+07
1.8035e+07
1.8035e+07
1.80351e+07
1.80351e+07
1.80352e+07
1.80353e+07
1.80353e+07
1.80354e+07
1.80355e+07
1.80356e+07
1.80357e+07
1.80358e+07
1.80359e+07
1.8036e+07
1.80361e+07
1.80363e+07
1.80364e+07
1.80366e+07
1.80368e+07
1.80369e+07
1.80371e+07
1.80373e+07
1.80375e+07
1.80378e+07
1.8038e+07
1.80383e+07
1.80385e+07
1.80388e+07
1.80391e+07
1.80395e+07
1.80398e+07
1.80402e+07
1.80406e+07
1.8041e+07
1.80414e+07
1.80418e+07
1.80423e+07
1.80428e+07
1.80433e+07
1.80438e+07
1.80444e+07
1.8045e+07
1.80456e+07
1.80462e+07
1.80469e+07
1.80476e+07
1.80483e+07
1.8049e+07
1.80498e+07
1.80506e+07
1.80514e+07
1.80523e+07
1.80532e+07
1.80542e+07
1.80551e+07
1.80561e+07
1.80572e+07
1.80582e+07
1.80593e+07
1.80605e+07
1.80616e+07
1.80628e+07
1.80641e+07
1.80654e+07
1.80667e+07
1.80681e+07
1.80694e+07
1.80709e+07
1.80724e+07
1.80739e+07
1.80754e+07
1.8077e+07
1.80786e+07
1.80803e+07
1.8082e+07
1.80838e+07
1.80856e+07
1.80874e+07
1.80893e+07
1.80912e+07
1.80932e+07
1.80952e+07
1.80973e+07
1.80994e+07
1.81015e+07
1.81037e+07
1.81059e+07
1.81082e+07
1.81105e+07
1.81129e+07
1.81153e+07
1.81178e+07
1.81203e+07
1.81228e+07
1.81254e+07
1.81281e+07
1.81308e+07
1.81335e+07
1.81363e+07
1.81392e+07
1.81423e+07
1.8146e+07
1.81513e+07
1.80345e+07
1.80345e+07
1.80345e+07
1.80345e+07
1.80345e+07
1.80345e+07
1.80345e+07
1.80345e+07
1.80345e+07
1.80345e+07
1.80345e+07
1.80345e+07
1.80345e+07
1.80345e+07
1.80345e+07
1.80345e+07
1.80345e+07
1.80345e+07
1.80345e+07
1.80345e+07
1.80345e+07
1.80345e+07
1.80345e+07
1.80345e+07
1.80345e+07
1.80345e+07
1.80345e+07
1.80345e+07
1.80345e+07
1.80345e+07
1.80345e+07
1.80345e+07
1.80345e+07
1.80345e+07
1.80345e+07
1.80346e+07
1.80346e+07
1.80346e+07
1.80346e+07
1.80346e+07
1.80346e+07
1.80346e+07
1.80346e+07
1.80346e+07
1.80346e+07
1.80346e+07
1.80346e+07
1.80346e+07
1.80346e+07
1.80346e+07
1.80346e+07
1.80346e+07
1.80346e+07
1.80346e+07
1.80346e+07
1.80346e+07
1.80346e+07
1.80346e+07
1.80346e+07
1.80346e+07
1.80346e+07
1.80346e+07
1.80346e+07
1.80346e+07
1.80346e+07
1.80346e+07
1.80346e+07
1.80346e+07
1.80346e+07
1.80346e+07
1.80346e+07
1.80346e+07
1.80346e+07
1.80346e+07
1.80346e+07
1.80346e+07
1.80346e+07
1.80346e+07
1.80346e+07
1.80346e+07
1.80346e+07
1.80346e+07
1.80346e+07
1.80346e+07
1.80347e+07
1.80347e+07
1.80347e+07
1.80347e+07
1.80347e+07
1.80347e+07
1.80348e+07
1.80348e+07
1.80348e+07
1.80348e+07
1.80349e+07
1.80349e+07
1.8035e+07
1.8035e+07
1.8035e+07
1.80351e+07
1.80351e+07
1.80352e+07
1.80353e+07
1.80353e+07
1.80354e+07
1.80355e+07
1.80356e+07
1.80357e+07
1.80358e+07
1.80359e+07
1.8036e+07
1.80361e+07
1.80363e+07
1.80364e+07
1.80366e+07
1.80368e+07
1.80369e+07
1.80371e+07
1.80373e+07
1.80375e+07
1.80378e+07
1.8038e+07
1.80383e+07
1.80385e+07
1.80388e+07
1.80391e+07
1.80395e+07
1.80398e+07
1.80402e+07
1.80406e+07
1.8041e+07
1.80414e+07
1.80418e+07
1.80423e+07
1.80428e+07
1.80433e+07
1.80438e+07
1.80444e+07
1.8045e+07
1.80456e+07
1.80462e+07
1.80469e+07
1.80476e+07
1.80483e+07
1.8049e+07
1.80498e+07
1.80506e+07
1.80514e+07
1.80523e+07
1.80532e+07
1.80542e+07
1.80551e+07
1.80561e+07
1.80572e+07
1.80582e+07
1.80593e+07
1.80605e+07
1.80616e+07
1.80628e+07
1.80641e+07
1.80654e+07
1.80667e+07
1.80681e+07
1.80694e+07
1.80709e+07
1.80724e+07
1.80739e+07
1.80754e+07
1.8077e+07
1.80786e+07
1.80803e+07
1.8082e+07
1.80838e+07
1.80856e+07
1.80874e+07
1.80893e+07
1.80912e+07
1.80932e+07
1.80952e+07
1.80973e+07
1.80994e+07
1.81015e+07
1.81037e+07
1.81059e+07
1.81082e+07
1.81105e+07
1.81129e+07
1.81153e+07
1.81178e+07
1.81203e+07
1.81228e+07
1.81254e+07
1.81281e+07
1.81308e+07
1.81335e+07
1.81363e+07
1.81392e+07
1.81423e+07
1.8146e+07
1.81512e+07
1.80345e+07
1.80345e+07
1.80345e+07
1.80345e+07
1.80345e+07
1.80345e+07
1.80345e+07
1.80345e+07
1.80345e+07
1.80345e+07
1.80345e+07
1.80345e+07
1.80345e+07
1.80345e+07
1.80345e+07
1.80345e+07
1.80345e+07
1.80345e+07
1.80345e+07
1.80345e+07
1.80345e+07
1.80345e+07
1.80345e+07
1.80345e+07
1.80345e+07
1.80345e+07
1.80345e+07
1.80345e+07
1.80345e+07
1.80345e+07
1.80345e+07
1.80345e+07
1.80345e+07
1.80345e+07
1.80345e+07
1.80346e+07
1.80346e+07
1.80346e+07
1.80346e+07
1.80346e+07
1.80346e+07
1.80346e+07
1.80346e+07
1.80346e+07
1.80346e+07
1.80346e+07
1.80346e+07
1.80346e+07
1.80346e+07
1.80346e+07
1.80346e+07
1.80346e+07
1.80346e+07
1.80346e+07
1.80346e+07
1.80346e+07
1.80346e+07
1.80346e+07
1.80346e+07
1.80346e+07
1.80346e+07
1.80346e+07
1.80346e+07
1.80346e+07
1.80346e+07
1.80346e+07
1.80346e+07
1.80346e+07
1.80346e+07
1.80346e+07
1.80346e+07
1.80346e+07
1.80346e+07
1.80346e+07
1.80346e+07
1.80346e+07
1.80346e+07
1.80346e+07
1.80346e+07
1.80346e+07
1.80346e+07
1.80346e+07
1.80346e+07
1.80346e+07
1.80347e+07
1.80347e+07
1.80347e+07
1.80347e+07
1.80347e+07
1.80347e+07
1.80348e+07
1.80348e+07
1.80348e+07
1.80348e+07
1.80349e+07
1.80349e+07
1.8035e+07
1.8035e+07
1.8035e+07
1.80351e+07
1.80351e+07
1.80352e+07
1.80353e+07
1.80353e+07
1.80354e+07
1.80355e+07
1.80356e+07
1.80357e+07
1.80358e+07
1.80359e+07
1.8036e+07
1.80361e+07
1.80363e+07
1.80364e+07
1.80366e+07
1.80368e+07
1.80369e+07
1.80371e+07
1.80373e+07
1.80375e+07
1.80378e+07
1.8038e+07
1.80383e+07
1.80385e+07
1.80388e+07
1.80391e+07
1.80395e+07
1.80398e+07
1.80402e+07
1.80406e+07
1.8041e+07
1.80414e+07
1.80418e+07
1.80423e+07
1.80428e+07
1.80433e+07
1.80438e+07
1.80444e+07
1.8045e+07
1.80456e+07
1.80462e+07
1.80469e+07
1.80476e+07
1.80483e+07
1.8049e+07
1.80498e+07
1.80506e+07
1.80514e+07
1.80523e+07
1.80532e+07
1.80542e+07
1.80551e+07
1.80561e+07
1.80572e+07
1.80582e+07
1.80593e+07
1.80605e+07
1.80616e+07
1.80628e+07
1.80641e+07
1.80654e+07
1.80667e+07
1.80681e+07
1.80694e+07
1.80709e+07
1.80724e+07
1.80739e+07
1.80754e+07
1.8077e+07
1.80786e+07
1.80803e+07
1.8082e+07
1.80838e+07
1.80856e+07
1.80874e+07
1.80893e+07
1.80912e+07
1.80932e+07
1.80952e+07
1.80973e+07
1.80994e+07
1.81015e+07
1.81037e+07
1.81059e+07
1.81082e+07
1.81105e+07
1.81129e+07
1.81153e+07
1.81178e+07
1.81203e+07
1.81228e+07
1.81254e+07
1.81281e+07
1.81308e+07
1.81335e+07
1.81363e+07
1.81392e+07
1.81422e+07
1.81459e+07
1.81508e+07
1.80345e+07
1.80345e+07
1.80345e+07
1.80345e+07
1.80345e+07
1.80345e+07
1.80345e+07
1.80345e+07
1.80345e+07
1.80345e+07
1.80345e+07
1.80345e+07
1.80345e+07
1.80345e+07
1.80345e+07
1.80345e+07
1.80345e+07
1.80345e+07
1.80345e+07
1.80345e+07
1.80345e+07
1.80345e+07
1.80345e+07
1.80345e+07
1.80345e+07
1.80345e+07
1.80345e+07
1.80345e+07
1.80345e+07
1.80345e+07
1.80345e+07
1.80345e+07
1.80345e+07
1.80345e+07
1.80345e+07
1.80346e+07
1.80346e+07
1.80346e+07
1.80346e+07
1.80346e+07
1.80346e+07
1.80346e+07
1.80346e+07
1.80346e+07
1.80346e+07
1.80346e+07
1.80346e+07
1.80346e+07
1.80346e+07
1.80346e+07
1.80346e+07
1.80346e+07
1.80346e+07
1.80346e+07
1.80346e+07
1.80346e+07
1.80346e+07
1.80346e+07
1.80346e+07
1.80346e+07
1.80346e+07
1.80346e+07
1.80346e+07
1.80346e+07
1.80346e+07
1.80346e+07
1.80346e+07
1.80346e+07
1.80346e+07
1.80346e+07
1.80346e+07
1.80346e+07
1.80346e+07
1.80346e+07
1.80346e+07
1.80346e+07
1.80346e+07
1.80346e+07
1.80346e+07
1.80346e+07
1.80346e+07
1.80346e+07
1.80346e+07
1.80346e+07
1.80347e+07
1.80347e+07
1.80347e+07
1.80347e+07
1.80347e+07
1.80347e+07
1.80348e+07
1.80348e+07
1.80348e+07
1.80348e+07
1.80349e+07
1.80349e+07
1.8035e+07
1.8035e+07
1.8035e+07
1.80351e+07
1.80351e+07
1.80352e+07
1.80353e+07
1.80353e+07
1.80354e+07
1.80355e+07
1.80356e+07
1.80357e+07
1.80358e+07
1.80359e+07
1.8036e+07
1.80361e+07
1.80363e+07
1.80364e+07
1.80366e+07
1.80368e+07
1.80369e+07
1.80371e+07
1.80373e+07
1.80375e+07
1.80378e+07
1.8038e+07
1.80383e+07
1.80385e+07
1.80388e+07
1.80391e+07
1.80395e+07
1.80398e+07
1.80402e+07
1.80406e+07
1.8041e+07
1.80414e+07
1.80418e+07
1.80423e+07
1.80428e+07
1.80433e+07
1.80438e+07
1.80444e+07
1.8045e+07
1.80456e+07
1.80462e+07
1.80469e+07
1.80476e+07
1.80483e+07
1.8049e+07
1.80498e+07
1.80506e+07
1.80514e+07
1.80523e+07
1.80532e+07
1.80542e+07
1.80551e+07
1.80561e+07
1.80572e+07
1.80582e+07
1.80593e+07
1.80605e+07
1.80616e+07
1.80628e+07
1.80641e+07
1.80654e+07
1.80667e+07
1.80681e+07
1.80694e+07
1.80709e+07
1.80724e+07
1.80739e+07
1.80754e+07
1.8077e+07
1.80786e+07
1.80803e+07
1.8082e+07
1.80838e+07
1.80856e+07
1.80874e+07
1.80893e+07
1.80912e+07
1.80932e+07
1.80952e+07
1.80973e+07
1.80994e+07
1.81015e+07
1.81037e+07
1.81059e+07
1.81082e+07
1.81105e+07
1.81129e+07
1.81153e+07
1.81178e+07
1.81203e+07
1.81228e+07
1.81254e+07
1.81281e+07
1.81308e+07
1.81335e+07
1.81363e+07
1.81392e+07
1.81421e+07
1.81454e+07
1.81491e+07
1.80345e+07
1.80345e+07
1.80345e+07
1.80345e+07
1.80345e+07
1.80345e+07
1.80345e+07
1.80345e+07
1.80345e+07
1.80345e+07
1.80345e+07
1.80345e+07
1.80345e+07
1.80345e+07
1.80345e+07
1.80345e+07
1.80345e+07
1.80345e+07
1.80345e+07
1.80345e+07
1.80345e+07
1.80345e+07
1.80345e+07
1.80345e+07
1.80345e+07
1.80345e+07
1.80345e+07
1.80345e+07
1.80345e+07
1.80345e+07
1.80345e+07
1.80345e+07
1.80345e+07
1.80345e+07
1.80345e+07
1.80346e+07
1.80346e+07
1.80346e+07
1.80346e+07
1.80346e+07
1.80346e+07
1.80346e+07
1.80346e+07
1.80346e+07
1.80346e+07
1.80346e+07
1.80346e+07
1.80346e+07
1.80346e+07
1.80346e+07
1.80346e+07
1.80346e+07
1.80346e+07
1.80346e+07
1.80346e+07
1.80346e+07
1.80346e+07
1.80346e+07
1.80346e+07
1.80346e+07
1.80346e+07
1.80346e+07
1.80346e+07
1.80346e+07
1.80346e+07
1.80346e+07
1.80346e+07
1.80346e+07
1.80346e+07
1.80346e+07
1.80346e+07
1.80346e+07
1.80346e+07
1.80346e+07
1.80346e+07
1.80346e+07
1.80346e+07
1.80346e+07
1.80346e+07
1.80346e+07
1.80346e+07
1.80346e+07
1.80346e+07
1.80346e+07
1.80347e+07
1.80347e+07
1.80347e+07
1.80347e+07
1.80347e+07
1.80347e+07
1.80348e+07
1.80348e+07
1.80348e+07
1.80348e+07
1.80349e+07
1.80349e+07
1.8035e+07
1.8035e+07
1.8035e+07
1.80351e+07
1.80351e+07
1.80352e+07
1.80353e+07
1.80353e+07
1.80354e+07
1.80355e+07
1.80356e+07
1.80357e+07
1.80358e+07
1.80359e+07
1.8036e+07
1.80361e+07
1.80363e+07
1.80364e+07
1.80366e+07
1.80368e+07
1.80369e+07
1.80371e+07
1.80373e+07
1.80375e+07
1.80378e+07
1.8038e+07
1.80383e+07
1.80385e+07
1.80388e+07
1.80391e+07
1.80395e+07
1.80398e+07
1.80402e+07
1.80406e+07
1.8041e+07
1.80414e+07
1.80418e+07
1.80423e+07
1.80428e+07
1.80433e+07
1.80438e+07
1.80444e+07
1.8045e+07
1.80456e+07
1.80462e+07
1.80469e+07
1.80476e+07
1.80483e+07
1.8049e+07
1.80498e+07
1.80506e+07
1.80514e+07
1.80523e+07
1.80532e+07
1.80542e+07
1.80551e+07
1.80561e+07
1.80572e+07
1.80582e+07
1.80593e+07
1.80605e+07
1.80616e+07
1.80628e+07
1.80641e+07
1.80654e+07
1.80667e+07
1.80681e+07
1.80694e+07
1.80709e+07
1.80724e+07
1.80739e+07
1.80754e+07
1.8077e+07
1.80786e+07
1.80803e+07
1.8082e+07
1.80838e+07
1.80856e+07
1.80874e+07
1.80893e+07
1.80912e+07
1.80932e+07
1.80952e+07
1.80973e+07
1.80994e+07
1.81015e+07
1.81037e+07
1.81059e+07
1.81082e+07
1.81105e+07
1.81129e+07
1.81153e+07
1.81178e+07
1.81203e+07
1.81228e+07
1.81254e+07
1.81281e+07
1.81308e+07
1.81335e+07
1.81363e+07
1.81391e+07
1.8142e+07
1.81447e+07
1.81468e+07
1.80345e+07
1.80345e+07
1.80345e+07
1.80345e+07
1.80345e+07
1.80345e+07
1.80345e+07
1.80345e+07
1.80345e+07
1.80345e+07
1.80345e+07
1.80345e+07
1.80345e+07
1.80345e+07
1.80345e+07
1.80345e+07
1.80345e+07
1.80345e+07
1.80345e+07
1.80345e+07
1.80345e+07
1.80345e+07
1.80345e+07
1.80345e+07
1.80345e+07
1.80345e+07
1.80345e+07
1.80345e+07
1.80345e+07
1.80345e+07
1.80345e+07
1.80345e+07
1.80345e+07
1.80345e+07
1.80345e+07
1.80346e+07
1.80346e+07
1.80346e+07
1.80346e+07
1.80346e+07
1.80346e+07
1.80346e+07
1.80346e+07
1.80346e+07
1.80346e+07
1.80346e+07
1.80346e+07
1.80346e+07
1.80346e+07
1.80346e+07
1.80346e+07
1.80346e+07
1.80346e+07
1.80346e+07
1.80346e+07
1.80346e+07
1.80346e+07
1.80346e+07
1.80346e+07
1.80346e+07
1.80346e+07
1.80346e+07
1.80346e+07
1.80346e+07
1.80346e+07
1.80346e+07
1.80346e+07
1.80346e+07
1.80346e+07
1.80346e+07
1.80346e+07
1.80346e+07
1.80346e+07
1.80346e+07
1.80346e+07
1.80346e+07
1.80346e+07
1.80346e+07
1.80346e+07
1.80346e+07
1.80346e+07
1.80346e+07
1.80346e+07
1.80346e+07
1.80347e+07
1.80347e+07
1.80347e+07
1.80347e+07
1.80347e+07
1.80347e+07
1.80348e+07
1.80348e+07
1.80348e+07
1.80348e+07
1.80349e+07
1.80349e+07
1.8035e+07
1.8035e+07
1.8035e+07
1.80351e+07
1.80351e+07
1.80352e+07
1.80353e+07
1.80353e+07
1.80354e+07
1.80355e+07
1.80356e+07
1.80357e+07
1.80358e+07
1.80359e+07
1.8036e+07
1.80361e+07
1.80363e+07
1.80364e+07
1.80366e+07
1.80368e+07
1.80369e+07
1.80371e+07
1.80373e+07
1.80375e+07
1.80378e+07
1.8038e+07
1.80383e+07
1.80385e+07
1.80388e+07
1.80391e+07
1.80395e+07
1.80398e+07
1.80402e+07
1.80406e+07
1.8041e+07
1.80414e+07
1.80418e+07
1.80423e+07
1.80428e+07
1.80433e+07
1.80438e+07
1.80444e+07
1.8045e+07
1.80456e+07
1.80462e+07
1.80469e+07
1.80476e+07
1.80483e+07
1.8049e+07
1.80498e+07
1.80506e+07
1.80514e+07
1.80523e+07
1.80532e+07
1.80542e+07
1.80551e+07
1.80561e+07
1.80572e+07
1.80582e+07
1.80593e+07
1.80605e+07
1.80616e+07
1.80628e+07
1.80641e+07
1.80654e+07
1.80667e+07
1.80681e+07
1.80694e+07
1.80709e+07
1.80724e+07
1.80739e+07
1.80754e+07
1.8077e+07
1.80786e+07
1.80803e+07
1.8082e+07
1.80838e+07
1.80856e+07
1.80874e+07
1.80893e+07
1.80912e+07
1.80932e+07
1.80952e+07
1.80973e+07
1.80994e+07
1.81015e+07
1.81037e+07
1.81059e+07
1.81082e+07
1.81105e+07
1.81129e+07
1.81153e+07
1.81178e+07
1.81203e+07
1.81228e+07
1.81254e+07
1.81281e+07
1.81308e+07
1.81335e+07
1.81363e+07
1.81391e+07
1.81418e+07
1.8144e+07
1.81448e+07
1.80345e+07
1.80345e+07
1.80345e+07
1.80345e+07
1.80345e+07
1.80345e+07
1.80345e+07
1.80345e+07
1.80345e+07
1.80345e+07
1.80345e+07
1.80345e+07
1.80345e+07
1.80345e+07
1.80345e+07
1.80345e+07
1.80345e+07
1.80345e+07
1.80345e+07
1.80345e+07
1.80345e+07
1.80345e+07
1.80345e+07
1.80345e+07
1.80345e+07
1.80345e+07
1.80345e+07
1.80345e+07
1.80345e+07
1.80345e+07
1.80345e+07
1.80345e+07
1.80345e+07
1.80345e+07
1.80345e+07
1.80346e+07
1.80346e+07
1.80346e+07
1.80346e+07
1.80346e+07
1.80346e+07
1.80346e+07
1.80346e+07
1.80346e+07
1.80346e+07
1.80346e+07
1.80346e+07
1.80346e+07
1.80346e+07
1.80346e+07
1.80346e+07
1.80346e+07
1.80346e+07
1.80346e+07
1.80346e+07
1.80346e+07
1.80346e+07
1.80346e+07
1.80346e+07
1.80346e+07
1.80346e+07
1.80346e+07
1.80346e+07
1.80346e+07
1.80346e+07
1.80346e+07
1.80346e+07
1.80346e+07
1.80346e+07
1.80346e+07
1.80346e+07
1.80346e+07
1.80346e+07
1.80346e+07
1.80346e+07
1.80346e+07
1.80346e+07
1.80346e+07
1.80346e+07
1.80346e+07
1.80346e+07
1.80346e+07
1.80346e+07
1.80346e+07
1.80347e+07
1.80347e+07
1.80347e+07
1.80347e+07
1.80347e+07
1.80347e+07
1.80348e+07
1.80348e+07
1.80348e+07
1.80348e+07
1.80349e+07
1.80349e+07
1.8035e+07
1.8035e+07
1.8035e+07
1.80351e+07
1.80351e+07
1.80352e+07
1.80353e+07
1.80353e+07
1.80354e+07
1.80355e+07
1.80356e+07
1.80357e+07
1.80358e+07
1.80359e+07
1.8036e+07
1.80361e+07
1.80363e+07
1.80364e+07
1.80366e+07
1.80368e+07
1.80369e+07
1.80371e+07
1.80373e+07
1.80375e+07
1.80378e+07
1.8038e+07
1.80383e+07
1.80385e+07
1.80388e+07
1.80391e+07
1.80395e+07
1.80398e+07
1.80402e+07
1.80406e+07
1.8041e+07
1.80414e+07
1.80418e+07
1.80423e+07
1.80428e+07
1.80433e+07
1.80438e+07
1.80444e+07
1.8045e+07
1.80456e+07
1.80462e+07
1.80469e+07
1.80476e+07
1.80483e+07
1.8049e+07
1.80498e+07
1.80506e+07
1.80514e+07
1.80523e+07
1.80532e+07
1.80542e+07
1.80551e+07
1.80561e+07
1.80572e+07
1.80582e+07
1.80593e+07
1.80605e+07
1.80616e+07
1.80628e+07
1.80641e+07
1.80654e+07
1.80667e+07
1.80681e+07
1.80694e+07
1.80709e+07
1.80724e+07
1.80739e+07
1.80754e+07
1.8077e+07
1.80786e+07
1.80803e+07
1.8082e+07
1.80838e+07
1.80856e+07
1.80874e+07
1.80893e+07
1.80912e+07
1.80932e+07
1.80952e+07
1.80973e+07
1.80994e+07
1.81015e+07
1.81037e+07
1.81059e+07
1.81082e+07
1.81105e+07
1.81129e+07
1.81153e+07
1.81178e+07
1.81203e+07
1.81228e+07
1.81254e+07
1.81281e+07
1.81308e+07
1.81335e+07
1.81363e+07
1.81391e+07
1.81418e+07
1.81438e+07
1.81443e+07
1.80345e+07
1.80345e+07
1.80345e+07
1.80345e+07
1.80345e+07
1.80345e+07
1.80345e+07
1.80345e+07
1.80345e+07
1.80345e+07
1.80345e+07
1.80345e+07
1.80345e+07
1.80345e+07
1.80345e+07
1.80345e+07
1.80345e+07
1.80345e+07
1.80345e+07
1.80345e+07
1.80345e+07
1.80345e+07
1.80345e+07
1.80345e+07
1.80345e+07
1.80345e+07
1.80345e+07
1.80345e+07
1.80345e+07
1.80345e+07
1.80345e+07
1.80345e+07
1.80345e+07
1.80345e+07
1.80345e+07
1.80346e+07
1.80346e+07
1.80346e+07
1.80346e+07
1.80346e+07
1.80346e+07
1.80346e+07
1.80346e+07
1.80346e+07
1.80346e+07
1.80346e+07
1.80346e+07
1.80346e+07
1.80346e+07
1.80346e+07
1.80346e+07
1.80346e+07
1.80346e+07
1.80346e+07
1.80346e+07
1.80346e+07
1.80346e+07
1.80346e+07
1.80346e+07
1.80346e+07
1.80346e+07
1.80346e+07
1.80346e+07
1.80346e+07
1.80346e+07
1.80346e+07
1.80346e+07
1.80346e+07
1.80346e+07
1.80346e+07
1.80346e+07
1.80346e+07
1.80346e+07
1.80346e+07
1.80346e+07
1.80346e+07
1.80346e+07
1.80346e+07
1.80346e+07
1.80346e+07
1.80346e+07
1.80346e+07
1.80346e+07
1.80346e+07
1.80347e+07
1.80347e+07
1.80347e+07
1.80347e+07
1.80347e+07
1.80347e+07
1.80348e+07
1.80348e+07
1.80348e+07
1.80348e+07
1.80349e+07
1.80349e+07
1.8035e+07
1.8035e+07
1.8035e+07
1.80351e+07
1.80351e+07
1.80352e+07
1.80353e+07
1.80353e+07
1.80354e+07
1.80355e+07
1.80356e+07
1.80357e+07
1.80358e+07
1.80359e+07
1.8036e+07
1.80361e+07
1.80363e+07
1.80364e+07
1.80366e+07
1.80368e+07
1.80369e+07
1.80371e+07
1.80373e+07
1.80375e+07
1.80378e+07
1.8038e+07
1.80383e+07
1.80385e+07
1.80388e+07
1.80391e+07
1.80395e+07
1.80398e+07
1.80402e+07
1.80406e+07
1.8041e+07
1.80414e+07
1.80418e+07
1.80423e+07
1.80428e+07
1.80433e+07
1.80438e+07
1.80444e+07
1.8045e+07
1.80456e+07
1.80462e+07
1.80469e+07
1.80476e+07
1.80483e+07
1.8049e+07
1.80498e+07
1.80506e+07
1.80514e+07
1.80523e+07
1.80532e+07
1.80542e+07
1.80551e+07
1.80561e+07
1.80572e+07
1.80582e+07
1.80593e+07
1.80605e+07
1.80616e+07
1.80628e+07
1.80641e+07
1.80654e+07
1.80667e+07
1.80681e+07
1.80694e+07
1.80709e+07
1.80724e+07
1.80739e+07
1.80754e+07
1.8077e+07
1.80786e+07
1.80803e+07
1.8082e+07
1.80838e+07
1.80856e+07
1.80874e+07
1.80893e+07
1.80912e+07
1.80932e+07
1.80952e+07
1.80973e+07
1.80994e+07
1.81015e+07
1.81037e+07
1.81059e+07
1.81082e+07
1.81105e+07
1.81129e+07
1.81153e+07
1.81178e+07
1.81203e+07
1.81228e+07
1.81254e+07
1.81281e+07
1.81308e+07
1.81335e+07
1.81363e+07
1.81391e+07
1.81418e+07
1.81437e+07
1.81443e+07
1.80345e+07
1.80345e+07
1.80345e+07
1.80345e+07
1.80345e+07
1.80345e+07
1.80345e+07
1.80345e+07
1.80345e+07
1.80345e+07
1.80345e+07
1.80345e+07
1.80345e+07
1.80345e+07
1.80345e+07
1.80345e+07
1.80345e+07
1.80345e+07
1.80345e+07
1.80345e+07
1.80345e+07
1.80345e+07
1.80345e+07
1.80345e+07
1.80345e+07
1.80345e+07
1.80345e+07
1.80345e+07
1.80345e+07
1.80345e+07
1.80345e+07
1.80345e+07
1.80345e+07
1.80345e+07
1.80345e+07
1.80346e+07
1.80346e+07
1.80346e+07
1.80346e+07
1.80346e+07
1.80346e+07
1.80346e+07
1.80346e+07
1.80346e+07
1.80346e+07
1.80346e+07
1.80346e+07
1.80346e+07
1.80346e+07
1.80346e+07
1.80346e+07
1.80346e+07
1.80346e+07
1.80346e+07
1.80346e+07
1.80346e+07
1.80346e+07
1.80346e+07
1.80346e+07
1.80346e+07
1.80346e+07
1.80346e+07
1.80346e+07
1.80346e+07
1.80346e+07
1.80346e+07
1.80346e+07
1.80346e+07
1.80346e+07
1.80346e+07
1.80346e+07
1.80346e+07
1.80346e+07
1.80346e+07
1.80346e+07
1.80346e+07
1.80346e+07
1.80346e+07
1.80346e+07
1.80346e+07
1.80346e+07
1.80346e+07
1.80346e+07
1.80346e+07
1.80347e+07
1.80347e+07
1.80347e+07
1.80347e+07
1.80347e+07
1.80347e+07
1.80348e+07
1.80348e+07
1.80348e+07
1.80348e+07
1.80349e+07
1.80349e+07
1.8035e+07
1.8035e+07
1.8035e+07
1.80351e+07
1.80351e+07
1.80352e+07
1.80353e+07
1.80353e+07
1.80354e+07
1.80355e+07
1.80356e+07
1.80357e+07
1.80358e+07
1.80359e+07
1.8036e+07
1.80361e+07
1.80363e+07
1.80364e+07
1.80366e+07
1.80368e+07
1.80369e+07
1.80371e+07
1.80373e+07
1.80375e+07
1.80378e+07
1.8038e+07
1.80383e+07
1.80385e+07
1.80388e+07
1.80391e+07
1.80395e+07
1.80398e+07
1.80402e+07
1.80406e+07
1.8041e+07
1.80414e+07
1.80418e+07
1.80423e+07
1.80428e+07
1.80433e+07
1.80438e+07
1.80444e+07
1.8045e+07
1.80456e+07
1.80462e+07
1.80469e+07
1.80476e+07
1.80483e+07
1.8049e+07
1.80498e+07
1.80506e+07
1.80514e+07
1.80523e+07
1.80532e+07
1.80542e+07
1.80551e+07
1.80561e+07
1.80572e+07
1.80582e+07
1.80593e+07
1.80605e+07
1.80616e+07
1.80628e+07
1.80641e+07
1.80654e+07
1.80667e+07
1.80681e+07
1.80694e+07
1.80709e+07
1.80724e+07
1.80739e+07
1.80754e+07
1.8077e+07
1.80786e+07
1.80803e+07
1.8082e+07
1.80838e+07
1.80856e+07
1.80874e+07
1.80893e+07
1.80912e+07
1.80932e+07
1.80952e+07
1.80973e+07
1.80994e+07
1.81015e+07
1.81037e+07
1.81059e+07
1.81082e+07
1.81105e+07
1.81129e+07
1.81153e+07
1.81178e+07
1.81203e+07
1.81228e+07
1.81254e+07
1.81281e+07
1.81308e+07
1.81335e+07
1.81363e+07
1.81391e+07
1.81418e+07
1.81437e+07
1.81443e+07
1.81701e+07
1.81785e+07
1.81818e+07
1.81829e+07
1.81835e+07
1.81841e+07
1.81846e+07
1.8185e+07
1.81853e+07
1.81856e+07
1.81858e+07
1.8186e+07
1.81862e+07
1.81862e+07
1.81861e+07
1.81858e+07
1.81852e+07
1.81842e+07
1.81825e+07
1.81793e+07
1.81689e+07
1.81762e+07
1.81795e+07
1.81806e+07
1.81812e+07
1.81818e+07
1.81823e+07
1.81827e+07
1.8183e+07
1.81833e+07
1.81836e+07
1.81838e+07
1.81839e+07
1.8184e+07
1.81839e+07
1.81836e+07
1.8183e+07
1.8182e+07
1.81802e+07
1.81771e+07
1.81679e+07
1.81753e+07
1.81791e+07
1.81803e+07
1.8181e+07
1.81816e+07
1.81821e+07
1.81825e+07
1.81828e+07
1.81831e+07
1.81833e+07
1.81835e+07
1.81836e+07
1.81837e+07
1.81835e+07
1.81832e+07
1.81825e+07
1.81813e+07
1.81793e+07
1.8176e+07
1.81635e+07
1.81678e+07
1.81695e+07
1.81699e+07
1.81703e+07
1.81708e+07
1.81712e+07
1.81716e+07
1.81719e+07
1.81722e+07
1.81725e+07
1.81727e+07
1.8173e+07
1.81731e+07
1.8173e+07
1.81728e+07
1.81723e+07
1.81714e+07
1.81698e+07
1.81674e+07
1.81571e+07
1.81604e+07
1.81631e+07
1.81652e+07
1.81668e+07
1.8168e+07
1.81688e+07
1.81693e+07
1.81698e+07
1.81701e+07
1.81702e+07
1.817e+07
1.81701e+07
1.81698e+07
1.81694e+07
1.81687e+07
1.81678e+07
1.81667e+07
1.81654e+07
1.81639e+07
1.81448e+07
1.81433e+07
1.81415e+07
1.81397e+07
1.81382e+07
1.81372e+07
1.81366e+07
1.81364e+07
1.81364e+07
1.81365e+07
1.81369e+07
1.81376e+07
1.81381e+07
1.81388e+07
1.81396e+07
1.81403e+07
1.81412e+07
1.81422e+07
1.81434e+07
1.81448e+07
1.81321e+07
1.8129e+07
1.81285e+07
1.81294e+07
1.81303e+07
1.8131e+07
1.81315e+07
1.8132e+07
1.81323e+07
1.81326e+07
1.81328e+07
1.8133e+07
1.81331e+07
1.81331e+07
1.81333e+07
1.81337e+07
1.81344e+07
1.81357e+07
1.81377e+07
1.81405e+07
1.81154e+07
1.81048e+07
1.80964e+07
1.8091e+07
1.80875e+07
1.80851e+07
1.80835e+07
1.80827e+07
1.80824e+07
1.80827e+07
1.80834e+07
1.80845e+07
1.80861e+07
1.80882e+07
1.80909e+07
1.80942e+07
1.80983e+07
1.81034e+07
1.81095e+07
1.81169e+07
1.81104e+07
1.80992e+07
1.80919e+07
1.80877e+07
1.8085e+07
1.80831e+07
1.80818e+07
1.80811e+07
1.80809e+07
1.80812e+07
1.80818e+07
1.80829e+07
1.80843e+07
1.80863e+07
1.80888e+07
1.80919e+07
1.80957e+07
1.81005e+07
1.81065e+07
1.8114e+07
1.81057e+07
1.80895e+07
1.80797e+07
1.80744e+07
1.80709e+07
1.80685e+07
1.80669e+07
1.8066e+07
1.80658e+07
1.80661e+07
1.80669e+07
1.80681e+07
1.80699e+07
1.80722e+07
1.80751e+07
1.80787e+07
1.80832e+07
1.80887e+07
1.80956e+07
1.81044e+07
1.81656e+07
1.816e+07
1.81603e+07
1.81623e+07
1.81648e+07
1.81674e+07
1.81701e+07
1.81729e+07
1.81756e+07
1.81785e+07
1.81813e+07
1.81842e+07
1.81871e+07
1.81901e+07
1.81931e+07
1.81961e+07
1.81992e+07
1.82023e+07
1.82054e+07
1.82085e+07
1.82117e+07
1.8215e+07
1.82182e+07
1.82215e+07
1.82248e+07
1.82282e+07
1.82316e+07
1.8235e+07
1.82385e+07
1.8242e+07
1.82455e+07
1.82491e+07
1.82527e+07
1.82563e+07
1.826e+07
1.82637e+07
1.82674e+07
1.82712e+07
1.8275e+07
1.82788e+07
1.82827e+07
1.82866e+07
1.82906e+07
1.82946e+07
1.82986e+07
1.83026e+07
1.83067e+07
1.83108e+07
1.8315e+07
1.83192e+07
1.83234e+07
1.83276e+07
1.83319e+07
1.83363e+07
1.83406e+07
1.8345e+07
1.83495e+07
1.83539e+07
1.83584e+07
1.8363e+07
1.83675e+07
1.83722e+07
1.83768e+07
1.83815e+07
1.83862e+07
1.83909e+07
1.83957e+07
1.84005e+07
1.84054e+07
1.84103e+07
1.84152e+07
1.84201e+07
1.84251e+07
1.84301e+07
1.84352e+07
1.84403e+07
1.84454e+07
1.84505e+07
1.84557e+07
1.84609e+07
1.84662e+07
1.84714e+07
1.84768e+07
1.84821e+07
1.84875e+07
1.84929e+07
1.84983e+07
1.85038e+07
1.85093e+07
1.85148e+07
1.85204e+07
1.8526e+07
1.85316e+07
1.85373e+07
1.8543e+07
1.85487e+07
1.85544e+07
1.85602e+07
1.8566e+07
1.85718e+07
1.85777e+07
1.85836e+07
1.85895e+07
1.85955e+07
1.86015e+07
1.86075e+07
1.86135e+07
1.86196e+07
1.86256e+07
1.86317e+07
1.86379e+07
1.8644e+07
1.86502e+07
1.86564e+07
1.86627e+07
1.86689e+07
1.86752e+07
1.86815e+07
1.86879e+07
1.86942e+07
1.87006e+07
1.8707e+07
1.87134e+07
1.87198e+07
1.87263e+07
1.87328e+07
1.87392e+07
1.87457e+07
1.87522e+07
1.87588e+07
1.87653e+07
1.87719e+07
1.87784e+07
1.8785e+07
1.87916e+07
1.87982e+07
1.88048e+07
1.88115e+07
1.88181e+07
1.88248e+07
1.88315e+07
1.88381e+07
1.88448e+07
1.88516e+07
1.88583e+07
1.8865e+07
1.88718e+07
1.88785e+07
1.88853e+07
1.8892e+07
1.88988e+07
1.89056e+07
1.89124e+07
1.89192e+07
1.8926e+07
1.89328e+07
1.89396e+07
1.89464e+07
1.89532e+07
1.896e+07
1.89669e+07
1.89737e+07
1.89805e+07
1.89874e+07
1.89942e+07
1.9001e+07
1.90079e+07
1.90147e+07
1.90216e+07
1.90284e+07
1.90352e+07
1.90421e+07
1.90489e+07
1.90557e+07
1.90625e+07
1.90694e+07
1.90762e+07
1.9083e+07
1.90898e+07
1.90966e+07
1.91034e+07
1.91102e+07
1.91169e+07
1.91237e+07
1.91305e+07
1.91372e+07
1.9144e+07
1.91507e+07
1.91575e+07
1.91642e+07
1.91709e+07
1.91776e+07
1.91843e+07
1.91909e+07
1.91976e+07
1.92042e+07
1.92109e+07
1.92174e+07
1.92238e+07
1.92301e+07
1.81649e+07
1.81598e+07
1.81602e+07
1.81623e+07
1.81648e+07
1.81674e+07
1.81701e+07
1.81729e+07
1.81756e+07
1.81785e+07
1.81813e+07
1.81842e+07
1.81871e+07
1.81901e+07
1.81931e+07
1.81961e+07
1.81992e+07
1.82023e+07
1.82054e+07
1.82085e+07
1.82117e+07
1.8215e+07
1.82182e+07
1.82215e+07
1.82248e+07
1.82282e+07
1.82316e+07
1.8235e+07
1.82385e+07
1.8242e+07
1.82455e+07
1.82491e+07
1.82527e+07
1.82563e+07
1.826e+07
1.82637e+07
1.82674e+07
1.82712e+07
1.8275e+07
1.82788e+07
1.82827e+07