/*--------------------------------*- C++ -*----------------------------------*\
| =========                 |                                                 |
| \\      /  F ield         | OpenFOAM: The Open Source CFD Toolbox           |
|  \\    /   O peration     | Version:  3.0.x                                 |
|   \\  /    A nd           | Web:      www.OpenFOAM.org                      |
|    \\/     M anipulation  |                                                 |
\*---------------------------------------------------------------------------*/
FoamFile
{
    version     2.0;
    format      ascii;
    class       volScalarField;
    location    "0.449925";
    object      T;
}
// * * * * * * * * * * * * * * * * * * * * * * * * * * * * * * * * * * * * * //

dimensions      [0 0 0 1 0 0 0];

internalField   nonuniform List<scalar> 
13800
(
773.273
773.273
773.273
773.273
773.273
773.273
773.273
773.273
773.273
773.273
773.273
773.273
773.273
773.273
773.273
773.273
773.273
773.273
773.273
773.273
773.273
773.273
773.273
773.272
773.272
773.272
773.272
773.272
773.272
773.272
773.272
773.272
773.272
773.272
773.272
773.272
773.272
773.272
773.272
773.272
773.272
773.272
773.273
773.273
773.273
773.273
773.273
773.273
773.273
773.272
773.271
773.27
773.269
773.269
773.269
773.269
773.269
773.269
773.269
773.269
773.269
773.269
773.269
773.269
773.269
773.269
773.268
773.268
773.268
773.267
773.266
773.265
773.264
773.263
773.262
773.262
773.262
773.262
773.262
773.262
773.262
773.262
773.263
773.263
773.263
773.263
773.262
773.261
773.261
773.26
773.26
773.259
773.259
773.259
773.259
773.259
773.259
773.26
773.26
773.26
773.26
773.261
773.261
773.262
773.262
773.263
773.263
773.264
773.265
773.266
773.267
773.268
773.269
773.27
773.271
773.272
773.273
773.275
773.276
773.278
773.279
773.281
773.283
773.285
773.287
773.289
773.291
773.294
773.296
773.299
773.302
773.305
773.308
773.312
773.315
773.319
773.323
773.327
773.331
773.335
773.34
773.344
773.349
773.354
773.36
773.365
773.371
773.377
773.383
773.39
773.397
773.403
773.411
773.418
773.426
773.434
773.442
773.45
773.459
773.468
773.477
773.486
773.496
773.506
773.516
773.527
773.538
773.549
773.56
773.572
773.584
773.596
773.609
773.621
773.634
773.648
773.662
773.676
773.69
773.705
773.72
773.735
773.751
773.767
773.783
773.799
773.816
773.834
773.851
773.869
773.887
773.907
773.923
773.946
773.961
773.986
774.001
774.035
774.052
774.259
773.26
773.26
773.26
773.26
773.26
773.26
773.26
773.26
773.26
773.26
773.26
773.26
773.26
773.26
773.26
773.26
773.26
773.26
773.26
773.26
773.26
773.26
773.26
773.26
773.26
773.26
773.26
773.26
773.26
773.26
773.26
773.26
773.26
773.26
773.26
773.26
773.26
773.26
773.26
773.26
773.26
773.261
773.261
773.262
773.262
773.262
773.262
773.262
773.262
773.261
773.26
773.259
773.258
773.258
773.258
773.258
773.258
773.258
773.258
773.259
773.259
773.259
773.259
773.259
773.258
773.258
773.258
773.258
773.258
773.257
773.256
773.255
773.254
773.253
773.253
773.252
773.252
773.252
773.252
773.252
773.252
773.253
773.253
773.253
773.253
773.253
773.253
773.252
773.252
773.251
773.251
773.25
773.25
773.25
773.25
773.25
773.251
773.251
773.251
773.252
773.252
773.252
773.253
773.253
773.254
773.255
773.255
773.256
773.257
773.257
773.258
773.259
773.26
773.261
773.262
773.263
773.265
773.266
773.268
773.269
773.271
773.273
773.274
773.276
773.278
773.281
773.283
773.285
773.288
773.291
773.294
773.297
773.3
773.303
773.307
773.31
773.314
773.318
773.322
773.327
773.331
773.336
773.341
773.346
773.351
773.357
773.363
773.369
773.375
773.381
773.388
773.395
773.402
773.41
773.417
773.425
773.433
773.442
773.45
773.459
773.468
773.478
773.487
773.497
773.508
773.518
773.529
773.54
773.552
773.563
773.575
773.587
773.6
773.613
773.626
773.639
773.653
773.667
773.682
773.696
773.711
773.727
773.742
773.758
773.774
773.791
773.808
773.825
773.843
773.861
773.878
773.898
773.915
773.937
773.953
773.978
773.993
774.027
774.043
774.278
773.26
773.26
773.26
773.26
773.26
773.26
773.26
773.26
773.26
773.26
773.26
773.26
773.26
773.26
773.26
773.26
773.26
773.26
773.26
773.26
773.26
773.26
773.26
773.26
773.26
773.26
773.26
773.26
773.26
773.26
773.26
773.26
773.26
773.26
773.26
773.26
773.26
773.26
773.26
773.26
773.26
773.261
773.261
773.262
773.262
773.262
773.262
773.262
773.262
773.261
773.26
773.259
773.258
773.258
773.258
773.258
773.258
773.258
773.258
773.259
773.259
773.259
773.259
773.259
773.258
773.258
773.258
773.258
773.257
773.257
773.256
773.255
773.254
773.253
773.253
773.252
773.252
773.252
773.252
773.252
773.252
773.253
773.253
773.253
773.253
773.253
773.253
773.252
773.252
773.251
773.251
773.25
773.25
773.25
773.25
773.25
773.251
773.251
773.251
773.252
773.252
773.252
773.253
773.253
773.254
773.254
773.255
773.256
773.257
773.257
773.258
773.259
773.26
773.261
773.262
773.263
773.265
773.266
773.268
773.269
773.271
773.273
773.274
773.276
773.278
773.281
773.283
773.285
773.288
773.291
773.294
773.297
773.3
773.303
773.307
773.31
773.314
773.318
773.322
773.327
773.331
773.336
773.341
773.346
773.351
773.357
773.363
773.369
773.375
773.381
773.388
773.395
773.402
773.41
773.417
773.425
773.433
773.442
773.45
773.459
773.468
773.478
773.487
773.497
773.508
773.518
773.529
773.54
773.552
773.563
773.575
773.587
773.6
773.613
773.626
773.639
773.653
773.667
773.682
773.696
773.711
773.727
773.742
773.758
773.774
773.791
773.808
773.825
773.843
773.861
773.878
773.898
773.915
773.937
773.953
773.978
773.993
774.027
774.043
774.272
773.26
773.26
773.26
773.26
773.26
773.26
773.26
773.26
773.26
773.26
773.26
773.26
773.26
773.26
773.26
773.26
773.26
773.26
773.26
773.26
773.26
773.26
773.26
773.26
773.26
773.26
773.26
773.26
773.26
773.26
773.26
773.26
773.26
773.26
773.26
773.26
773.26
773.26
773.26
773.26
773.26
773.261
773.261
773.262
773.262
773.262
773.262
773.262
773.262
773.261
773.26
773.259
773.258
773.258
773.258
773.258
773.258
773.258
773.258
773.259
773.259
773.259
773.259
773.259
773.258
773.258
773.258
773.258
773.258
773.257
773.256
773.255
773.254
773.253
773.253
773.252
773.252
773.252
773.252
773.252
773.252
773.253
773.253
773.253
773.253
773.253
773.253
773.252
773.252
773.251
773.251
773.25
773.25
773.25
773.25
773.25
773.251
773.251
773.251
773.252
773.252
773.252
773.253
773.253
773.254
773.254
773.255
773.256
773.257
773.257
773.258
773.259
773.26
773.261
773.262
773.263
773.265
773.266
773.268
773.269
773.271
773.273
773.274
773.276
773.278
773.281
773.283
773.285
773.288
773.291
773.294
773.297
773.3
773.303
773.307
773.31
773.314
773.318
773.322
773.327
773.331
773.336
773.341
773.346
773.351
773.357
773.363
773.369
773.375
773.381
773.388
773.395
773.402
773.41
773.417
773.425
773.433
773.442
773.45
773.459
773.468
773.478
773.487
773.497
773.508
773.518
773.529
773.54
773.552
773.563
773.575
773.587
773.6
773.613
773.626
773.639
773.653
773.667
773.682
773.696
773.711
773.727
773.742
773.758
773.774
773.791
773.808
773.825
773.843
773.861
773.878
773.898
773.915
773.937
773.953
773.978
773.993
774.025
774.042
774.219
773.26
773.26
773.26
773.26
773.26
773.26
773.26
773.26
773.26
773.26
773.26
773.26
773.26
773.26
773.26
773.26
773.26
773.26
773.26
773.26
773.26
773.26
773.26
773.26
773.26
773.26
773.26
773.26
773.26
773.26
773.26
773.26
773.26
773.26
773.26
773.26
773.26
773.26
773.26
773.26
773.26
773.261
773.261
773.262
773.262
773.262
773.262
773.262
773.262
773.261
773.26
773.259
773.258
773.258
773.258
773.258
773.258
773.258
773.259
773.259
773.259
773.259
773.259
773.259
773.258
773.258
773.258
773.258
773.258
773.257
773.256
773.255
773.254
773.253
773.253
773.252
773.252
773.252
773.252
773.252
773.252
773.253
773.253
773.253
773.253
773.253
773.253
773.252
773.252
773.251
773.251
773.25
773.25
773.25
773.25
773.25
773.251
773.251
773.251
773.252
773.252
773.252
773.253
773.253
773.254
773.254
773.255
773.256
773.257
773.257
773.258
773.259
773.26
773.261
773.262
773.263
773.265
773.266
773.268
773.269
773.271
773.273
773.274
773.276
773.278
773.281
773.283
773.285
773.288
773.291
773.294
773.297
773.3
773.303
773.307
773.31
773.314
773.318
773.322
773.327
773.331
773.336
773.341
773.346
773.351
773.357
773.363
773.369
773.375
773.381
773.388
773.395
773.402
773.41
773.417
773.425
773.433
773.442
773.45
773.459
773.468
773.478
773.487
773.497
773.508
773.518
773.529
773.54
773.552
773.563
773.575
773.587
773.6
773.613
773.626
773.639
773.653
773.667
773.682
773.696
773.711
773.727
773.742
773.758
773.774
773.791
773.808
773.825
773.842
773.861
773.878
773.898
773.915
773.937
773.953
773.978
773.992
774.023
774.036
774.16
773.26
773.26
773.26
773.26
773.26
773.26
773.26
773.26
773.26
773.26
773.26
773.26
773.26
773.26
773.26
773.26
773.26
773.26
773.26
773.26
773.26
773.26
773.26
773.26
773.26
773.26
773.26
773.26
773.26
773.26
773.26
773.26
773.26
773.26
773.26
773.26
773.26
773.26
773.26
773.26
773.26
773.261
773.261
773.262
773.262
773.262
773.262
773.262
773.262
773.261
773.26
773.259
773.258
773.258
773.258
773.258
773.258
773.258
773.259
773.259
773.259
773.259
773.259
773.259
773.258
773.258
773.258
773.258
773.258
773.257
773.256
773.255
773.254
773.253
773.253
773.252
773.252
773.252
773.252
773.252
773.252
773.253
773.253
773.253
773.253
773.253
773.253
773.252
773.252
773.251
773.251
773.25
773.25
773.25
773.25
773.25
773.251
773.251
773.251
773.252
773.252
773.252
773.253
773.253
773.254
773.254
773.255
773.256
773.257
773.257
773.258
773.259
773.26
773.261
773.262
773.263
773.265
773.266
773.268
773.269
773.271
773.273
773.274
773.276
773.278
773.281
773.283
773.285
773.288
773.291
773.294
773.297
773.3
773.303
773.307
773.31
773.314
773.318
773.322
773.327
773.331
773.336
773.341
773.346
773.351
773.357
773.363
773.369
773.375
773.381
773.388
773.395
773.402
773.41
773.417
773.425
773.433
773.442
773.45
773.459
773.468
773.478
773.487
773.497
773.508
773.518
773.529
773.54
773.552
773.563
773.575
773.587
773.6
773.613
773.626
773.639
773.653
773.667
773.682
773.696
773.711
773.727
773.742
773.758
773.774
773.791
773.808
773.825
773.843
773.86
773.879
773.897
773.916
773.936
773.954
773.976
773.996
774.011
774.039
774.036
773.26
773.26
773.26
773.26
773.26
773.26
773.26
773.26
773.26
773.26
773.26
773.26
773.26
773.26
773.26
773.26
773.26
773.26
773.26
773.26
773.26
773.26
773.26
773.26
773.26
773.26
773.26
773.26
773.26
773.26
773.26
773.26
773.26
773.26
773.26
773.26
773.26
773.26
773.26
773.26
773.26
773.261
773.261
773.262
773.262
773.262
773.262
773.262
773.262
773.261
773.26
773.259
773.258
773.258
773.258
773.258
773.258
773.258
773.258
773.259
773.259
773.259
773.259
773.259
773.258
773.258
773.258
773.258
773.258
773.257
773.256
773.255
773.254
773.253
773.253
773.252
773.252
773.252
773.252
773.252
773.252
773.253
773.253
773.253
773.253
773.253
773.253
773.252
773.252
773.251
773.251
773.25
773.25
773.25
773.25
773.25
773.251
773.251
773.251
773.252
773.252
773.252
773.253
773.253
773.254
773.254
773.255
773.256
773.257
773.257
773.258
773.259
773.26
773.261
773.262
773.263
773.265
773.266
773.268
773.269
773.271
773.273
773.274
773.276
773.278
773.281
773.283
773.285
773.288
773.291
773.294
773.297
773.3
773.303
773.307
773.31
773.314
773.318
773.322
773.327
773.331
773.336
773.341
773.346
773.351
773.357
773.363
773.369
773.375
773.381
773.388
773.395
773.402
773.41
773.417
773.425
773.433
773.442
773.45
773.459
773.468
773.478
773.487
773.497
773.508
773.518
773.529
773.54
773.552
773.563
773.575
773.587
773.6
773.613
773.626
773.639
773.653
773.667
773.682
773.696
773.711
773.727
773.742
773.758
773.774
773.791
773.808
773.825
773.843
773.86
773.879
773.896
773.918
773.933
773.958
773.971
773.998
774.009
774.036
773.853
773.26
773.26
773.26
773.26
773.26
773.26
773.26
773.26
773.26
773.26
773.26
773.26
773.26
773.26
773.26
773.26
773.26
773.26
773.26
773.26
773.26
773.26
773.26
773.26
773.26
773.26
773.26
773.26
773.26
773.26
773.26
773.26
773.26
773.26
773.26
773.26
773.26
773.26
773.26
773.26
773.26
773.261
773.261
773.262
773.262
773.262
773.262
773.262
773.262
773.261
773.26
773.259
773.258
773.258
773.258
773.258
773.258
773.258
773.258
773.259
773.259
773.259
773.259
773.259
773.258
773.258
773.258
773.258
773.257
773.257
773.256
773.255
773.254
773.253
773.253
773.252
773.252
773.252
773.252
773.252
773.252
773.253
773.253
773.253
773.253
773.253
773.253
773.252
773.252
773.251
773.251
773.25
773.25
773.25
773.25
773.25
773.251
773.251
773.251
773.252
773.252
773.252
773.253
773.253
773.254
773.254
773.255
773.256
773.257
773.257
773.258
773.259
773.26
773.261
773.262
773.263
773.265
773.266
773.268
773.269
773.271
773.273
773.274
773.276
773.278
773.281
773.283
773.285
773.288
773.291
773.294
773.297
773.3
773.303
773.307
773.31
773.314
773.318
773.322
773.327
773.331
773.336
773.341
773.346
773.351
773.357
773.363
773.369
773.375
773.381
773.388
773.395
773.402
773.41
773.417
773.425
773.433
773.442
773.45
773.459
773.468
773.478
773.487
773.497
773.508
773.518
773.529
773.54
773.552
773.563
773.575
773.587
773.6
773.613
773.626
773.639
773.653
773.667
773.682
773.696
773.711
773.727
773.742
773.758
773.774
773.791
773.808
773.825
773.843
773.86
773.879
773.896
773.918
773.933
773.958
773.971
774
774.008
774.055
773.592
773.26
773.26
773.26
773.26
773.26
773.26
773.26
773.26
773.26
773.26
773.26
773.26
773.26
773.26
773.26
773.26
773.26
773.26
773.26
773.26
773.26
773.26
773.26
773.26
773.26
773.26
773.26
773.26
773.26
773.26
773.26
773.26
773.26
773.26
773.26
773.26
773.26
773.26
773.26
773.26
773.26
773.261
773.261
773.262
773.262
773.262
773.262
773.262
773.262
773.261
773.26
773.259
773.258
773.258
773.258
773.258
773.258
773.258
773.258
773.259
773.259
773.259
773.259
773.259
773.258
773.258
773.258
773.258
773.258
773.257
773.256
773.255
773.254
773.253
773.253
773.252
773.252
773.252
773.252
773.252
773.252
773.253
773.253
773.253
773.253
773.253
773.253
773.252
773.252
773.251
773.251
773.25
773.25
773.25
773.25
773.25
773.251
773.251
773.251
773.252
773.252
773.252
773.253
773.253
773.254
773.255
773.255
773.256
773.257
773.257
773.258
773.259
773.26
773.261
773.262
773.263
773.265
773.266
773.268
773.269
773.271
773.273
773.274
773.276
773.278
773.281
773.283
773.285
773.288
773.291
773.294
773.297
773.3
773.303
773.307
773.31
773.314
773.318
773.322
773.327
773.331
773.336
773.341
773.346
773.351
773.357
773.363
773.369
773.375
773.381
773.388
773.395
773.402
773.41
773.417
773.425
773.433
773.442
773.45
773.459
773.468
773.478
773.487
773.497
773.508
773.518
773.529
773.54
773.552
773.563
773.575
773.587
773.6
773.613
773.626
773.639
773.653
773.667
773.682
773.696
773.711
773.727
773.742
773.758
773.774
773.791
773.808
773.825
773.843
773.86
773.879
773.896
773.918
773.933
773.958
773.971
774
774.007
774.067
773.464
773.273
773.273
773.273
773.273
773.273
773.273
773.273
773.273
773.273
773.273
773.273
773.273
773.273
773.273
773.273
773.273
773.273
773.273
773.273
773.273
773.273
773.273
773.273
773.272
773.272
773.272
773.272
773.272
773.272
773.272
773.272
773.272
773.272
773.272
773.272
773.272
773.272
773.272
773.272
773.272
773.272
773.272
773.273
773.273
773.273
773.273
773.273
773.273
773.273
773.272
773.271
773.27
773.269
773.269
773.269
773.269
773.269
773.269
773.269
773.269
773.269
773.269
773.269
773.269
773.269
773.269
773.268
773.268
773.268
773.267
773.266
773.265
773.264
773.263
773.262
773.262
773.262
773.262
773.262
773.262
773.262
773.262
773.263
773.263
773.263
773.263
773.262
773.261
773.261
773.26
773.26
773.259
773.259
773.259
773.259
773.259
773.259
773.26
773.26
773.26
773.26
773.261
773.261
773.262
773.262
773.263
773.263
773.264
773.265
773.266
773.267
773.268
773.269
773.27
773.271
773.272
773.273
773.275
773.276
773.278
773.279
773.281
773.283
773.285
773.287
773.289
773.291
773.294
773.296
773.299
773.302
773.305
773.308
773.312
773.315
773.319
773.323
773.327
773.331
773.335
773.34
773.344
773.349
773.354
773.36
773.365
773.371
773.377
773.383
773.39
773.397
773.403
773.411
773.418
773.426
773.434
773.442
773.45
773.459
773.468
773.477
773.486
773.496
773.506
773.516
773.527
773.538
773.549
773.56
773.572
773.584
773.596
773.609
773.621
773.634
773.648
773.662
773.676
773.69
773.705
773.72
773.735
773.751
773.767
773.783
773.799
773.816
773.833
773.851
773.869
773.888
773.905
773.927
773.941
773.966
773.98
774.009
774.015
774.088
773.35
774.243
774.278
774.304
774.314
774.324
774.333
774.34
774.345
774.349
774.354
774.358
774.362
774.364
774.366
774.367
774.365
774.362
774.353
774.338
774.302
774.235
774.261
774.277
774.285
774.293
774.298
774.302
774.306
774.309
774.312
774.315
774.317
774.319
774.32
774.321
774.319
774.316
774.307
774.292
774.261
774.233
774.259
774.279
774.286
774.294
774.301
774.306
774.31
774.314
774.318
774.32
774.323
774.324
774.324
774.323
774.32
774.313
774.303
774.284
774.256
774.191
774.206
774.214
774.22
774.226
774.232
774.238
774.244
774.25
774.257
774.264
774.271
774.279
774.287
774.294
774.3
774.3
774.298
774.286
774.27
774.145
774.164
774.181
774.194
774.204
774.21
774.217
774.219
774.219
774.216
774.212
774.203
774.199
774.19
774.182
774.171
774.163
774.154
774.148
774.143
774.047
774.042
774.033
774.027
774.024
774.027
774.031
774.037
774.045
774.057
774.072
774.093
774.112
774.131
774.153
774.174
774.197
774.213
774.232
774.241
773.937
773.931
773.937
773.944
773.947
773.947
773.948
773.941
773.937
773.925
773.915
773.9
773.888
773.873
773.864
773.855
773.857
773.862
773.877
773.897
773.781
773.743
773.708
773.693
773.685
773.685
773.687
773.693
773.705
773.722
773.742
773.765
773.792
773.82
773.856
773.883
773.933
773.969
774.024
774.073
773.681
773.643
773.604
773.581
773.565
773.553
773.544
773.537
773.535
773.536
773.54
773.546
773.558
773.573
773.591
773.608
773.642
773.681
773.737
773.806
773.626
773.569
773.507
773.484
773.47
773.473
773.483
773.494
773.515
773.536
773.57
773.598
773.638
773.673
773.715
773.758
773.81
773.869
773.941
774.019
774.199
774.181
774.194
774.201
774.216
774.235
774.255
774.275
774.295
774.315
774.335
774.356
774.377
774.398
774.419
774.441
774.463
774.484
774.507
774.529
774.552
774.575
774.598
774.622
774.646
774.67
774.694
774.718
774.743
774.767
774.792
774.817
774.843
774.868
774.894
774.921
774.947
774.974
775.001
775.028
775.056
775.084
775.112
775.14
775.169
775.198
775.226
775.255
775.284
775.314
775.344
775.374
775.404
775.435
775.466
775.497
775.528
775.56
775.592
775.624
775.656
775.688
775.721
775.754
775.787
775.821
775.854
775.888
775.922
775.956
775.991
776.026
776.062
776.097
776.133
776.169
776.205
776.241
776.278
776.314
776.351
776.388
776.425
776.463
776.5
776.538
776.576
776.615
776.654
776.693
776.732
776.771
776.811
776.85
776.89
776.93
776.97
777.011
777.052
777.093
777.133
777.174
777.214
777.256
777.297
777.34
777.381
777.422
777.462
777.5
777.538
777.576
777.615
777.656
777.699
777.741
777.78
777.811
777.837
777.874
777.948
778.143
778.613
779.194
779.769
780.291
780.731
781.067
781.295
781.418
781.457
781.449
781.339
780.904
780.296
779.791
779.401
779.128
778.961
778.879
778.851
778.848
778.855
778.89
778.96
779.028
779.091
779.15
779.206
779.259
779.311
779.361
779.41
779.459
779.508
779.556
779.603
779.651
779.699
779.746
779.793
779.84
779.888
779.935
779.982
780.029
780.076
780.123
780.17
780.217
780.264
780.31
780.357
780.404
780.451
780.497
780.544
780.59
780.638
780.681
780.732
780.773
780.826
780.865
780.919
780.956
781.011
781.047
781.104
781.138
781.196
781.228
781.288
781.319
781.379
781.409
781.469
781.497
781.577
781.508
774.169
774.155
774.168
774.175
774.191
774.209
774.229
774.249
774.269
774.289
774.309
774.329
774.35
774.371
774.393
774.414
774.436
774.458
774.48
774.502
774.525
774.548
774.571
774.595
774.619
774.643
774.667
774.691
774.716
774.74
774.765
774.79
774.815
774.841
774.867
774.893
774.92
774.946
774.973
775
775.028
775.056
775.084
775.112
775.141
775.17
775.199
775.228
775.257
775.286
775.316
775.346
775.376
775.407
775.438
775.469
775.501
775.532
775.564
775.596
775.628
775.66
775.693
775.726
775.759
775.793
775.826
775.86
775.894
775.928
775.962
775.998
776.033
776.069
776.104
776.14
776.176
776.213
776.249
776.286
776.323
776.36
776.397
776.434
776.472
776.51
776.548
776.586
776.625
776.664
776.703
776.742
776.782
776.822
776.862
776.902
776.942
776.982
777.023
777.064
777.105
777.147
777.188
777.23
777.271
777.313
777.354
777.395
777.436
777.477
777.517
777.559
777.601
777.644
777.69
777.733
777.772
777.804
777.829
777.848
777.866
777.886
777.91
777.933
777.951
777.974
778.021
778.125
778.264
778.416
778.565
778.699
778.81
778.893
778.948
778.975
778.98
778.971
778.945
778.932
778.931
778.933
778.945
778.976
779.019
779.064
779.111
779.16
779.208
779.257
779.306
779.355
779.403
779.452
779.5
779.548
779.595
779.643
779.69
779.738
779.785
779.832
779.88
779.927
779.974
780.021
780.068
780.115
780.162
780.209
780.255
780.302
780.349
780.396
780.443
780.489
780.536
780.582
780.63
780.673
780.724
780.765
780.818
780.857
780.911
780.948
781.003
781.039
781.096
781.13
781.188
781.22
781.28
781.311
781.371
781.401
781.461
781.489
781.566
781.527
774.172
774.16
774.173
774.18
774.194
774.214
774.234
774.254
774.273
774.293
774.313
774.334
774.355
774.376
774.397
774.419
774.44
774.462
774.485
774.507
774.529
774.552
774.576
774.599
774.623
774.647
774.671
774.696
774.72
774.745
774.77
774.795
774.82
774.846
774.872
774.898
774.924
774.951
774.978
775.005
775.033
775.06
775.088
775.117
775.145
775.174
775.203
775.232
775.262
775.291
775.321
775.351
775.381
775.412
775.443
775.474
775.505
775.537
775.568
775.6
775.632
775.665
775.697
775.73
775.764
775.797
775.831
775.864
775.898
775.932
775.967
776.002
776.037
776.073
776.109
776.145
776.181
776.217
776.254
776.29
776.327
776.364
776.401
776.439
776.476
776.514
776.552
776.59
776.629
776.668
776.707
776.747
776.786
776.826
776.866
776.906
776.946
776.987
777.028
777.069
777.11
777.151
777.192
777.234
777.276
777.318
777.36
777.401
777.443
777.484
777.524
777.565
777.606
777.649
777.694
777.74
777.784
777.822
777.848
777.86
777.861
777.854
777.85
777.851
777.857
777.874
777.891
777.917
777.974
778.071
778.191
778.317
778.438
778.549
778.646
778.725
778.788
778.836
778.872
778.899
778.923
778.947
778.974
779.005
779.041
779.081
779.123
779.168
779.214
779.261
779.309
779.357
779.405
779.452
779.5
779.548
779.596
779.643
779.691
779.738
779.785
779.832
779.88
779.927
779.974
780.021
780.068
780.115
780.162
780.209
780.255
780.302
780.349
780.396
780.442
780.489
780.536
780.582
780.63
780.673
780.724
780.765
780.818
780.857
780.91
780.948
781.003
781.039
781.096
781.13
781.188
781.22
781.28
781.311
781.371
781.401
781.461
781.489
781.562
781.552
774.213
774.218
774.226
774.244
774.263
774.282
774.301
774.32
774.34
774.36
774.381
774.402
774.423
774.444
774.465
774.487
774.509
774.531
774.553
774.575
774.598
774.621
774.644
774.667
774.691
774.715
774.74
774.764
774.789
774.813
774.838
774.863
774.889
774.914
774.94
774.967
774.993
775.019
775.046
775.073
775.101
775.129
775.157
775.185
775.214
775.243
775.272
775.301
775.33
775.359
775.389
775.419
775.45
775.48
775.511
775.542
775.573
775.605
775.637
775.669
775.701
775.733
775.766
775.799
775.832
775.865
775.899
775.932
775.967
776.001
776.036
776.071
776.106
776.142
776.177
776.213
776.249
776.286
776.322
776.359
776.396
776.432
776.47
776.507
776.544
776.582
776.621
776.659
776.698
776.737
776.776
776.815
776.854
776.894
776.934
776.974
777.014
777.054
777.094
777.134
777.175
777.216
777.258
777.299
777.339
777.379
777.419
777.458
777.497
777.536
777.576
777.617
777.661
777.704
777.748
777.79
777.823
777.847
777.867
777.88
777.893
777.912
777.935
777.958
777.983
778.015
778.058
778.115
778.182
778.256
778.331
778.405
778.474
778.539
778.599
778.654
778.703
778.747
778.789
778.829
778.868
778.908
778.95
778.992
779.036
779.081
779.127
779.173
779.22
779.267
779.314
779.362
779.409
779.456
779.503
779.551
779.598
779.645
779.692
779.739
779.786
779.833
779.88
779.927
779.974
780.021
780.068
780.115
780.162
780.209
780.255
780.302
780.349
780.396
780.442
780.489
780.536
780.582
780.63
780.674
780.724
780.766
780.816
780.859
780.908
780.951
781.001
781.04
781.096
781.13
781.188
781.221
781.279
781.312
781.371
781.401
781.461
781.49
781.551
781.577
774.134
774.144
774.15
774.162
774.179
774.196
774.216
774.235
774.255
774.274
774.294
774.315
774.335
774.356
774.378
774.399
774.421
774.443
774.465
774.488
774.51
774.533
774.556
774.58
774.603
774.627
774.651
774.676
774.7
774.725
774.751
774.776
774.801
774.827
774.853
774.879
774.905
774.932
774.959
774.986
775.014
775.041
775.069
775.097
775.126
775.154
775.183
775.213
775.242
775.272
775.302
775.332
775.362
775.392
775.423
775.454
775.485
775.517
775.549
775.581
775.613
775.646
775.679
775.711
775.745
775.778
775.812
775.846
775.88
775.914
775.949
775.983
776.018
776.054
776.089
776.125
776.161
776.197
776.234
776.271
776.308
776.345
776.382
776.42
776.458
776.496
776.534
776.572
776.611
776.65
776.689
776.729
776.768
776.808
776.848
776.888
776.929
776.97
777.011
777.052
777.093
777.134
777.176
777.218
777.26
777.304
777.346
777.389
777.432
777.475
777.518
777.561
777.604
777.647
777.69
777.734
777.78
777.826
777.869
777.909
777.944
777.978
778.011
778.044
778.078
778.113
778.152
778.195
778.242
778.293
778.346
778.4
778.454
778.507
778.559
778.609
778.659
778.707
778.755
778.802
778.849
778.895
778.942
778.989
779.035
779.082
779.129
779.176
779.223
779.27
779.317
779.364
779.411
779.458
779.505
779.552
779.599
779.646
779.693
779.74
779.787
779.833
779.88
779.927
779.974
780.021
780.068
780.115
780.162
780.209
780.256
780.302
780.349
780.396
780.443
780.489
780.536
780.582
780.629
780.676
780.721
780.769
780.813
780.861
780.907
780.951
781.001
781.042
781.092
781.135
781.182
781.229
781.27
781.322
781.361
781.41
781.455
781.497
781.543
781.585
774.274
774.308
774.338
774.366
774.391
774.413
774.435
774.455
774.475
774.496
774.516
774.537
774.558
774.579
774.6
774.622
774.644
774.666
774.688
774.71
774.733
774.756
774.779
774.802
774.826
774.85
774.875
774.899
774.924
774.949
774.974
774.999
775.024
775.05
775.076
775.102
775.128
775.154
775.181
775.208
775.236
775.264
775.292
775.32
775.349
775.378
775.407
775.436
775.465
775.494
775.524
775.554
775.585
775.615
775.646
775.677
775.708
775.739
775.771
775.803
775.835
775.867
775.9
775.933
775.966
775.999
776.033
776.066
776.101
776.135
776.17
776.204
776.239
776.275
776.31
776.346
776.382
776.418
776.454
776.49
776.526
776.563
776.599
776.636
776.672
776.709
776.746
776.784
776.821
776.859
776.896
776.933
776.97
777.007
777.044
777.082
777.12
777.158
777.196
777.234
777.271
777.308
777.344
777.38
777.417
777.453
777.491
777.529
777.569
777.611
777.654
777.695
777.735
777.77
777.8
777.826
777.849
777.87
777.89
777.912
777.938
777.968
778
778.034
778.069
778.106
778.147
778.191
778.24
778.292
778.346
778.402
778.457
778.511
778.564
778.616
778.667
778.716
778.765
778.812
778.859
778.906
778.952
778.999
779.045
779.091
779.137
779.183
779.229
779.275
779.322
779.368
779.414
779.461
779.507
779.554
779.6
779.647
779.694
779.741
779.787
779.834
779.881
779.928
779.975
780.021
780.068
780.115
780.162
780.209
780.256
780.302
780.349
780.396
780.442
780.49
780.535
780.583
780.627
780.677
780.72
780.77
780.811
780.864
780.903
780.956
780.994
781.049
781.085
781.142
781.176
781.234
781.267
781.325
781.357
781.416
781.447
781.507
781.538
781.605
773.984
774.021
774.042
774.061
774.078
774.097
774.117
774.136
774.156
774.176
774.196
774.217
774.237
774.258
774.279
774.301
774.322
774.344
774.367
774.389
774.412
774.435
774.458
774.481
774.505
774.529
774.553
774.577
774.601
774.626
774.651
774.677
774.702
774.728
774.754
774.781
774.807
774.834
774.861
774.888
774.915
774.943
774.971
774.999
775.027
775.056
775.085
775.114
775.143
775.173
775.203
775.233
775.263
775.294
775.325
775.356
775.387
775.419
775.451
775.483
775.515
775.547
775.58
775.613
775.647
775.68
775.714
775.748
775.783
775.817
775.852
775.886
775.921
775.957
775.992
776.028
776.064
776.101
776.137
776.174
776.211
776.248
776.285
776.323
776.36
776.398
776.436
776.474
776.513
776.552
776.591
776.63
776.669
776.709
776.749
776.789
776.829
776.87
776.911
776.952
776.993
777.034
777.076
777.117
777.159
777.201
777.244
777.287
777.33
777.372
777.415
777.459
777.506
777.552
777.596
777.639
777.682
777.727
777.774
777.821
777.872
777.925
777.978
778.026
778.069
778.11
778.146
778.176
778.203
778.231
778.267
778.313
778.368
778.429
778.493
778.557
778.62
778.679
778.736
778.791
778.843
778.894
778.944
778.993
779.041
779.088
779.135
779.182
779.228
779.275
779.321
779.368
779.414
779.461
779.507
779.554
779.601
779.647
779.694
779.741
779.787
779.834
779.881
779.928
779.975
780.022
780.068
780.115
780.162
780.209
780.256
780.302
780.349
780.396
780.442
780.49
780.535
780.583
780.627
780.677
780.72
780.77
780.812
780.863
780.903
780.956
780.995
781.049
781.085
781.142
781.176
781.234
781.266
781.325
781.357
781.416
781.447
781.507
781.542
781.6
774.24
774.295
774.329
774.356
774.38
774.403
774.425
774.446
774.467
774.487
774.508
774.529
774.55
774.571
774.592
774.614
774.635
774.657
774.68
774.702
774.725
774.748
774.771
774.794
774.817
774.841
774.865
774.89
774.915
774.94
774.965
774.991
775.016
775.042
775.068
775.093
775.12
775.146
775.173
775.2
775.227
775.255
775.283
775.311
775.34
775.369
775.398
775.427
775.456
775.486
775.515
775.545
775.575
775.606
775.637
775.668
775.699
775.73
775.761
775.793
775.824
775.856
775.889
775.921
775.953
775.985
776.018
776.051
776.084
776.118
776.152
776.187
776.222
776.257
776.292
776.328
776.365
776.401
776.438
776.475
776.512
776.549
776.586
776.623
776.66
776.698
776.735
776.773
776.811
776.848
776.886
776.925
776.963
777.001
777.039
777.076
777.112
777.148
777.184
777.22
777.256
777.293
777.33
777.368
777.407
777.447
777.486
777.527
777.569
777.611
777.655
777.699
777.741
777.78
777.814
777.842
777.865
777.886
777.905
777.923
777.944
777.97
777.999
778.03
778.062
778.096
778.132
778.173