/*--------------------------------*- C++ -*----------------------------------*\
| =========                 |                                                 |
| \\      /  F ield         | OpenFOAM: The Open Source CFD Toolbox           |
|  \\    /   O peration     | Version:  3.0.x                                 |
|   \\  /    A nd           | Web:      www.OpenFOAM.org                      |
|    \\/     M anipulation  |                                                 |
\*---------------------------------------------------------------------------*/
FoamFile
{
    version     2.0;
    format      ascii;
    class       volScalarField;
    location    "0.54";
    object      p;
}
// * * * * * * * * * * * * * * * * * * * * * * * * * * * * * * * * * * * * * //

dimensions      [1 -1 -2 0 0 0 0];

internalField   nonuniform List<scalar> 
6900
(
1.86269e+07
1.86273e+07
1.86279e+07
1.86285e+07
1.86292e+07
1.86299e+07
1.86307e+07
1.86315e+07
1.86324e+07
1.86334e+07
1.86344e+07
1.86355e+07
1.86366e+07
1.86378e+07
1.86391e+07
1.86404e+07
1.86417e+07
1.86432e+07
1.86446e+07
1.86461e+07
1.86477e+07
1.86493e+07
1.8651e+07
1.86527e+07
1.86545e+07
1.86564e+07
1.86582e+07
1.86602e+07
1.86622e+07
1.86642e+07
1.86663e+07
1.86684e+07
1.86706e+07
1.86728e+07
1.86751e+07
1.86775e+07
1.86798e+07
1.86823e+07
1.86848e+07
1.86873e+07
1.86899e+07
1.86926e+07
1.86953e+07
1.8698e+07
1.87008e+07
1.87037e+07
1.87066e+07
1.87096e+07
1.87126e+07
1.87157e+07
1.87188e+07
1.8722e+07
1.87252e+07
1.87284e+07
1.87318e+07
1.87351e+07
1.87385e+07
1.8742e+07
1.87455e+07
1.87491e+07
1.87526e+07
1.87563e+07
1.876e+07
1.87637e+07
1.87674e+07
1.87712e+07
1.87751e+07
1.87789e+07
1.87828e+07
1.87868e+07
1.87908e+07
1.87948e+07
1.87988e+07
1.88029e+07
1.8807e+07
1.88112e+07
1.88153e+07
1.88195e+07
1.88238e+07
1.88281e+07
1.88324e+07
1.88367e+07
1.8841e+07
1.88454e+07
1.88498e+07
1.88543e+07
1.88588e+07
1.88633e+07
1.88678e+07
1.88723e+07
1.88769e+07
1.88815e+07
1.88861e+07
1.88908e+07
1.88954e+07
1.89001e+07
1.89048e+07
1.89096e+07
1.89143e+07
1.89191e+07
1.89239e+07
1.89287e+07
1.89335e+07
1.89384e+07
1.89432e+07
1.89481e+07
1.8953e+07
1.89579e+07
1.89628e+07
1.89678e+07
1.89727e+07
1.89777e+07
1.89827e+07
1.89877e+07
1.89927e+07
1.89977e+07
1.90028e+07
1.90078e+07
1.90129e+07
1.90179e+07
1.9023e+07
1.9028e+07
1.90331e+07
1.90382e+07
1.90433e+07
1.90484e+07
1.90534e+07
1.90585e+07
1.90636e+07
1.90687e+07
1.90737e+07
1.90788e+07
1.90838e+07
1.90889e+07
1.90939e+07
1.9099e+07
1.9104e+07
1.9109e+07
1.9114e+07
1.9119e+07
1.91239e+07
1.91289e+07
1.91339e+07
1.91388e+07
1.91437e+07
1.91486e+07
1.91535e+07
1.91584e+07
1.91633e+07
1.91681e+07
1.91729e+07
1.91777e+07
1.91825e+07
1.91873e+07
1.91921e+07
1.91968e+07
1.92015e+07
1.92062e+07
1.92109e+07
1.92156e+07
1.92202e+07
1.92248e+07
1.92294e+07
1.9234e+07
1.92386e+07
1.92431e+07
1.92476e+07
1.92521e+07
1.92565e+07
1.9261e+07
1.92654e+07
1.92697e+07
1.92741e+07
1.92784e+07
1.92827e+07
1.9287e+07
1.92912e+07
1.92954e+07
1.92996e+07
1.93038e+07
1.93079e+07
1.9312e+07
1.9316e+07
1.93201e+07
1.93241e+07
1.9328e+07
1.9332e+07
1.93359e+07
1.93397e+07
1.93436e+07
1.93474e+07
1.93512e+07
1.93549e+07
1.93587e+07
1.93623e+07
1.9366e+07
1.93696e+07
1.93732e+07
1.93768e+07
1.93803e+07
1.86269e+07
1.86273e+07
1.86279e+07
1.86285e+07
1.86292e+07
1.86299e+07
1.86307e+07
1.86315e+07
1.86324e+07
1.86334e+07
1.86344e+07
1.86355e+07
1.86366e+07
1.86378e+07
1.86391e+07
1.86404e+07
1.86417e+07
1.86432e+07
1.86446e+07
1.86461e+07
1.86477e+07
1.86493e+07
1.8651e+07
1.86527e+07
1.86545e+07
1.86564e+07
1.86582e+07
1.86602e+07
1.86622e+07
1.86642e+07
1.86663e+07
1.86684e+07
1.86706e+07
1.86728e+07
1.86751e+07
1.86775e+07
1.86798e+07
1.86823e+07
1.86848e+07
1.86873e+07
1.86899e+07
1.86926e+07
1.86953e+07
1.8698e+07
1.87008e+07
1.87037e+07
1.87066e+07
1.87096e+07
1.87126e+07
1.87157e+07
1.87188e+07
1.8722e+07
1.87252e+07
1.87284e+07
1.87318e+07
1.87351e+07
1.87385e+07
1.8742e+07
1.87455e+07
1.87491e+07
1.87526e+07
1.87563e+07
1.876e+07
1.87637e+07
1.87674e+07
1.87712e+07
1.87751e+07
1.87789e+07
1.87828e+07
1.87868e+07
1.87908e+07
1.87948e+07
1.87988e+07
1.88029e+07
1.8807e+07
1.88112e+07
1.88153e+07
1.88195e+07
1.88238e+07
1.88281e+07
1.88324e+07
1.88367e+07
1.8841e+07
1.88454e+07
1.88498e+07
1.88543e+07
1.88588e+07
1.88633e+07
1.88678e+07
1.88723e+07
1.88769e+07
1.88815e+07
1.88861e+07
1.88908e+07
1.88954e+07
1.89001e+07
1.89048e+07
1.89096e+07
1.89143e+07
1.89191e+07
1.89239e+07
1.89287e+07
1.89335e+07
1.89384e+07
1.89432e+07
1.89481e+07
1.8953e+07
1.89579e+07
1.89628e+07
1.89678e+07
1.89727e+07
1.89777e+07
1.89827e+07
1.89877e+07
1.89927e+07
1.89977e+07
1.90028e+07
1.90078e+07
1.90129e+07
1.90179e+07
1.9023e+07
1.9028e+07
1.90331e+07
1.90382e+07
1.90433e+07
1.90484e+07
1.90534e+07
1.90585e+07
1.90636e+07
1.90687e+07
1.90737e+07
1.90788e+07
1.90838e+07
1.90889e+07
1.90939e+07
1.9099e+07
1.9104e+07
1.9109e+07
1.9114e+07
1.9119e+07
1.91239e+07
1.91289e+07
1.91339e+07
1.91388e+07
1.91437e+07
1.91486e+07
1.91535e+07
1.91584e+07
1.91633e+07
1.91681e+07
1.91729e+07
1.91777e+07
1.91825e+07
1.91873e+07
1.91921e+07
1.91968e+07
1.92015e+07
1.92062e+07
1.92109e+07
1.92156e+07
1.92202e+07
1.92248e+07
1.92294e+07
1.9234e+07
1.92386e+07
1.92431e+07
1.92476e+07
1.92521e+07
1.92565e+07
1.9261e+07
1.92654e+07
1.92697e+07
1.92741e+07
1.92784e+07
1.92827e+07
1.9287e+07
1.92912e+07
1.92954e+07
1.92996e+07
1.93038e+07
1.93079e+07
1.9312e+07
1.9316e+07
1.93201e+07
1.93241e+07
1.9328e+07
1.9332e+07
1.93359e+07
1.93397e+07
1.93436e+07
1.93474e+07
1.93512e+07
1.93549e+07
1.93587e+07
1.93623e+07
1.9366e+07
1.93696e+07
1.93732e+07
1.93768e+07
1.93803e+07
1.86269e+07
1.86273e+07
1.86279e+07
1.86285e+07
1.86292e+07
1.86299e+07
1.86307e+07
1.86315e+07
1.86324e+07
1.86334e+07
1.86344e+07
1.86355e+07
1.86366e+07
1.86378e+07
1.86391e+07
1.86404e+07
1.86417e+07
1.86432e+07
1.86446e+07
1.86461e+07
1.86477e+07
1.86493e+07
1.8651e+07
1.86527e+07
1.86545e+07
1.86564e+07
1.86582e+07
1.86602e+07
1.86622e+07
1.86642e+07
1.86663e+07
1.86684e+07
1.86706e+07
1.86728e+07
1.86751e+07
1.86775e+07
1.86798e+07
1.86823e+07
1.86848e+07
1.86873e+07
1.86899e+07
1.86926e+07
1.86953e+07
1.8698e+07
1.87008e+07
1.87037e+07
1.87066e+07
1.87096e+07
1.87126e+07
1.87157e+07
1.87188e+07
1.8722e+07
1.87252e+07
1.87284e+07
1.87318e+07
1.87351e+07
1.87385e+07
1.8742e+07
1.87455e+07
1.87491e+07
1.87526e+07
1.87563e+07
1.876e+07
1.87637e+07
1.87674e+07
1.87712e+07
1.87751e+07
1.87789e+07
1.87828e+07
1.87868e+07
1.87908e+07
1.87948e+07
1.87988e+07
1.88029e+07
1.8807e+07
1.88112e+07
1.88153e+07
1.88195e+07
1.88238e+07
1.88281e+07
1.88324e+07
1.88367e+07
1.8841e+07
1.88454e+07
1.88498e+07
1.88543e+07
1.88588e+07
1.88633e+07
1.88678e+07
1.88723e+07
1.88769e+07
1.88815e+07
1.88861e+07
1.88908e+07
1.88954e+07
1.89001e+07
1.89048e+07
1.89096e+07
1.89143e+07
1.89191e+07
1.89239e+07
1.89287e+07
1.89335e+07
1.89384e+07
1.89432e+07
1.89481e+07
1.8953e+07
1.89579e+07
1.89628e+07
1.89678e+07
1.89727e+07
1.89777e+07
1.89827e+07
1.89877e+07
1.89927e+07
1.89977e+07
1.90028e+07
1.90078e+07
1.90129e+07
1.90179e+07
1.9023e+07
1.9028e+07
1.90331e+07
1.90382e+07
1.90433e+07
1.90484e+07
1.90534e+07
1.90585e+07
1.90636e+07
1.90687e+07
1.90737e+07
1.90788e+07
1.90838e+07
1.90889e+07
1.90939e+07
1.9099e+07
1.9104e+07
1.9109e+07
1.9114e+07
1.9119e+07
1.91239e+07
1.91289e+07
1.91339e+07
1.91388e+07
1.91437e+07
1.91486e+07
1.91535e+07
1.91584e+07
1.91633e+07
1.91681e+07
1.91729e+07
1.91777e+07
1.91825e+07
1.91873e+07
1.91921e+07
1.91968e+07
1.92015e+07
1.92062e+07
1.92109e+07
1.92156e+07
1.92202e+07
1.92248e+07
1.92294e+07
1.9234e+07
1.92386e+07
1.92431e+07
1.92476e+07
1.92521e+07
1.92565e+07
1.9261e+07
1.92654e+07
1.92697e+07
1.92741e+07
1.92784e+07
1.92827e+07
1.9287e+07
1.92912e+07
1.92954e+07
1.92996e+07
1.93038e+07
1.93079e+07
1.9312e+07
1.9316e+07
1.93201e+07
1.93241e+07
1.9328e+07
1.9332e+07
1.93359e+07
1.93397e+07
1.93436e+07
1.93474e+07
1.93512e+07
1.93549e+07
1.93587e+07
1.93623e+07
1.9366e+07
1.93696e+07
1.93732e+07
1.93768e+07
1.93803e+07
1.86269e+07
1.86273e+07
1.86279e+07
1.86285e+07
1.86292e+07
1.86299e+07
1.86307e+07
1.86315e+07
1.86324e+07
1.86334e+07
1.86344e+07
1.86355e+07
1.86366e+07
1.86378e+07
1.86391e+07
1.86404e+07
1.86417e+07
1.86432e+07
1.86446e+07
1.86461e+07
1.86477e+07
1.86493e+07
1.8651e+07
1.86527e+07
1.86545e+07
1.86564e+07
1.86582e+07
1.86602e+07
1.86622e+07
1.86642e+07
1.86663e+07
1.86684e+07
1.86706e+07
1.86728e+07
1.86751e+07
1.86775e+07
1.86798e+07
1.86823e+07
1.86848e+07
1.86873e+07
1.86899e+07
1.86926e+07
1.86953e+07
1.8698e+07
1.87008e+07
1.87037e+07
1.87066e+07
1.87096e+07
1.87126e+07
1.87157e+07
1.87188e+07
1.8722e+07
1.87252e+07
1.87284e+07
1.87318e+07
1.87351e+07
1.87385e+07
1.8742e+07
1.87455e+07
1.87491e+07
1.87526e+07
1.87563e+07
1.876e+07
1.87637e+07
1.87674e+07
1.87712e+07
1.87751e+07
1.87789e+07
1.87828e+07
1.87868e+07
1.87908e+07
1.87948e+07
1.87988e+07
1.88029e+07
1.8807e+07
1.88112e+07
1.88153e+07
1.88195e+07
1.88238e+07
1.88281e+07
1.88324e+07
1.88367e+07
1.8841e+07
1.88454e+07
1.88498e+07
1.88543e+07
1.88588e+07
1.88633e+07
1.88678e+07
1.88723e+07
1.88769e+07
1.88815e+07
1.88861e+07
1.88908e+07
1.88954e+07
1.89001e+07
1.89048e+07
1.89096e+07
1.89143e+07
1.89191e+07
1.89239e+07
1.89287e+07
1.89335e+07
1.89384e+07
1.89432e+07
1.89481e+07
1.8953e+07
1.89579e+07
1.89628e+07
1.89678e+07
1.89727e+07
1.89777e+07
1.89827e+07
1.89877e+07
1.89927e+07
1.89977e+07
1.90028e+07
1.90078e+07
1.90129e+07
1.90179e+07
1.9023e+07
1.9028e+07
1.90331e+07
1.90382e+07
1.90433e+07
1.90484e+07
1.90534e+07
1.90585e+07
1.90636e+07
1.90687e+07
1.90737e+07
1.90788e+07
1.90838e+07
1.90889e+07
1.90939e+07
1.9099e+07
1.9104e+07
1.9109e+07
1.9114e+07
1.9119e+07
1.91239e+07
1.91289e+07
1.91339e+07
1.91388e+07
1.91437e+07
1.91486e+07
1.91535e+07
1.91584e+07
1.91633e+07
1.91681e+07
1.91729e+07
1.91777e+07
1.91825e+07
1.91873e+07
1.91921e+07
1.91968e+07
1.92015e+07
1.92062e+07
1.92109e+07
1.92156e+07
1.92202e+07
1.92248e+07
1.92294e+07
1.9234e+07
1.92386e+07
1.92431e+07
1.92476e+07
1.92521e+07
1.92565e+07
1.9261e+07
1.92654e+07
1.92697e+07
1.92741e+07
1.92784e+07
1.92827e+07
1.9287e+07
1.92912e+07
1.92954e+07
1.92996e+07
1.93038e+07
1.93079e+07
1.9312e+07
1.9316e+07
1.93201e+07
1.93241e+07
1.9328e+07
1.9332e+07
1.93359e+07
1.93397e+07
1.93436e+07
1.93474e+07
1.93512e+07
1.93549e+07
1.93587e+07
1.93623e+07
1.9366e+07
1.93696e+07
1.93732e+07
1.93768e+07
1.93803e+07
1.86269e+07
1.86273e+07
1.86279e+07
1.86285e+07
1.86292e+07
1.86299e+07
1.86307e+07
1.86315e+07
1.86324e+07
1.86334e+07
1.86344e+07
1.86355e+07
1.86366e+07
1.86378e+07
1.86391e+07
1.86404e+07
1.86417e+07
1.86432e+07
1.86446e+07
1.86461e+07
1.86477e+07
1.86493e+07
1.8651e+07
1.86527e+07
1.86545e+07
1.86564e+07
1.86582e+07
1.86602e+07
1.86622e+07
1.86642e+07
1.86663e+07
1.86684e+07
1.86706e+07
1.86728e+07
1.86751e+07
1.86775e+07
1.86798e+07
1.86823e+07
1.86848e+07
1.86873e+07
1.86899e+07
1.86926e+07
1.86953e+07
1.8698e+07
1.87008e+07
1.87037e+07
1.87066e+07
1.87096e+07
1.87126e+07
1.87157e+07
1.87188e+07
1.8722e+07
1.87252e+07
1.87284e+07
1.87318e+07
1.87351e+07
1.87385e+07
1.8742e+07
1.87455e+07
1.87491e+07
1.87526e+07
1.87563e+07
1.876e+07
1.87637e+07
1.87674e+07
1.87712e+07
1.87751e+07
1.87789e+07
1.87828e+07
1.87868e+07
1.87908e+07
1.87948e+07
1.87988e+07
1.88029e+07
1.8807e+07
1.88112e+07
1.88153e+07
1.88195e+07
1.88238e+07
1.88281e+07
1.88324e+07
1.88367e+07
1.8841e+07
1.88454e+07
1.88498e+07
1.88543e+07
1.88588e+07
1.88633e+07
1.88678e+07
1.88723e+07
1.88769e+07
1.88815e+07
1.88861e+07
1.88908e+07
1.88954e+07
1.89001e+07
1.89048e+07
1.89096e+07
1.89143e+07
1.89191e+07
1.89239e+07
1.89287e+07
1.89335e+07
1.89384e+07
1.89432e+07
1.89481e+07
1.8953e+07
1.89579e+07
1.89628e+07
1.89678e+07
1.89727e+07
1.89777e+07
1.89827e+07
1.89877e+07
1.89927e+07
1.89977e+07
1.90028e+07
1.90078e+07
1.90129e+07
1.90179e+07
1.9023e+07
1.9028e+07
1.90331e+07
1.90382e+07
1.90433e+07
1.90484e+07
1.90534e+07
1.90585e+07
1.90636e+07
1.90687e+07
1.90737e+07
1.90788e+07
1.90838e+07
1.90889e+07
1.90939e+07
1.9099e+07
1.9104e+07
1.9109e+07
1.9114e+07
1.9119e+07
1.91239e+07
1.91289e+07
1.91339e+07
1.91388e+07
1.91437e+07
1.91486e+07
1.91535e+07
1.91584e+07
1.91633e+07
1.91681e+07
1.91729e+07
1.91777e+07
1.91825e+07
1.91873e+07
1.91921e+07
1.91968e+07
1.92015e+07
1.92062e+07
1.92109e+07
1.92156e+07
1.92202e+07
1.92248e+07
1.92294e+07
1.9234e+07
1.92386e+07
1.92431e+07
1.92476e+07
1.92521e+07
1.92565e+07
1.9261e+07
1.92654e+07
1.92697e+07
1.92741e+07
1.92784e+07
1.92827e+07
1.9287e+07
1.92912e+07
1.92954e+07
1.92996e+07
1.93038e+07
1.93079e+07
1.9312e+07
1.9316e+07
1.93201e+07
1.93241e+07
1.9328e+07
1.9332e+07
1.93359e+07
1.93397e+07
1.93436e+07
1.93474e+07
1.93512e+07
1.93549e+07
1.93587e+07
1.93623e+07
1.9366e+07
1.93696e+07
1.93732e+07
1.93768e+07
1.93803e+07
1.93825e+07
1.93834e+07
1.93841e+07
1.93848e+07
1.93856e+07
1.93863e+07
1.93871e+07
1.93878e+07
1.93883e+07
1.93886e+07
1.93891e+07
1.93897e+07
1.93903e+07
1.93911e+07
1.93924e+07
1.93937e+07
1.93948e+07
1.93955e+07
1.93956e+07
1.9395e+07
1.93824e+07
1.93832e+07
1.9384e+07
1.93847e+07
1.93854e+07
1.93862e+07
1.9387e+07
1.93876e+07
1.9388e+07
1.93884e+07
1.93889e+07
1.93895e+07
1.93902e+07
1.9391e+07
1.93923e+07
1.93935e+07
1.93945e+07
1.93951e+07
1.9395e+07
1.93943e+07
1.93823e+07
1.9383e+07
1.93836e+07
1.93842e+07
1.93848e+07
1.93854e+07
1.93859e+07
1.93865e+07
1.9387e+07
1.93875e+07
1.9388e+07
1.93884e+07
1.93888e+07
1.93892e+07
1.93895e+07
1.93899e+07
1.93903e+07
1.93907e+07
1.9391e+07
1.93914e+07
1.93826e+07
1.93831e+07
1.93837e+07
1.93841e+07
1.93846e+07
1.9385e+07
1.93854e+07
1.93859e+07
1.93863e+07
1.93867e+07
1.93871e+07
1.93875e+07
1.93879e+07
1.93883e+07
1.93887e+07
1.93891e+07
1.93895e+07
1.93899e+07
1.93902e+07
1.93906e+07
1.93823e+07
1.93828e+07
1.93832e+07
1.93837e+07
1.93842e+07
1.93846e+07
1.9385e+07
1.93854e+07
1.93858e+07
1.93861e+07
1.93865e+07
1.93869e+07
1.93873e+07
1.93877e+07
1.93881e+07
1.93884e+07
1.93888e+07
1.93891e+07
1.93894e+07
1.93898e+07
1.93933e+07
1.93965e+07
1.94011e+07
1.94026e+07
1.94035e+07
1.94059e+07
1.941e+07
1.94119e+07
1.94129e+07
1.94154e+07
1.94197e+07
1.94208e+07
1.94219e+07
1.94244e+07
1.94287e+07
1.94325e+07
1.9432e+07
1.94327e+07
1.9435e+07
1.94381e+07
1.94442e+07
1.94455e+07
1.9444e+07
1.94451e+07
1.94474e+07
1.94505e+07
1.94541e+07
1.94546e+07
1.94552e+07
1.94569e+07
1.94588e+07
1.94608e+07
1.94626e+07
1.94645e+07
1.94664e+07
1.94682e+07
1.94701e+07
1.94721e+07
1.94745e+07
1.94785e+07
1.94787e+07
1.9479e+07
1.94804e+07
1.94821e+07
1.94837e+07
1.94854e+07
1.9487e+07
1.94886e+07
1.94901e+07
1.94917e+07
1.94932e+07
1.94947e+07
1.94962e+07
1.94976e+07
1.94991e+07
1.95005e+07
1.95019e+07
1.95033e+07
1.95047e+07
1.9506e+07
1.95073e+07
1.95086e+07
1.95099e+07
1.95111e+07
1.95124e+07
1.95136e+07
1.95148e+07
1.95159e+07
1.95171e+07
1.95182e+07
1.95193e+07
1.95204e+07
1.95214e+07
1.95225e+07
1.95235e+07
1.95245e+07
1.95255e+07
1.95264e+07
1.95274e+07
1.95283e+07
1.95292e+07
1.95301e+07
1.9531e+07
1.95319e+07
1.95327e+07
1.95336e+07
1.95344e+07
1.95352e+07
1.95361e+07
1.95371e+07
1.95383e+07
1.95401e+07
1.95421e+07
1.95417e+07
1.95408e+07
1.95411e+07
1.95418e+07
1.95425e+07
1.95432e+07
1.9544e+07
1.95448e+07
1.95455e+07
1.95463e+07
1.9547e+07
1.95477e+07
1.95483e+07
1.9549e+07
1.95496e+07
1.95502e+07
1.95507e+07
1.95513e+07
1.95518e+07
1.95524e+07
1.95529e+07
1.95534e+07
1.95538e+07
1.95543e+07
1.95546e+07
1.9555e+07
1.95554e+07
1.95557e+07
1.9556e+07
1.95563e+07
1.95566e+07
1.95568e+07
1.95571e+07
1.95573e+07
1.95576e+07
1.95578e+07
1.9558e+07
1.95582e+07
1.95584e+07
1.95586e+07
1.95588e+07
1.9559e+07
1.95592e+07
1.95594e+07
1.95595e+07
1.95597e+07
1.95598e+07
1.956e+07
1.95601e+07
1.95603e+07
1.95604e+07
1.95605e+07
1.95607e+07
1.95608e+07
1.95609e+07
1.9561e+07
1.95612e+07
1.95613e+07
1.95614e+07
1.95615e+07
1.95616e+07
1.95618e+07
1.95619e+07
1.9562e+07
1.95621e+07
1.95622e+07
1.95623e+07
1.95624e+07
1.95625e+07
1.95626e+07
1.95627e+07
1.95628e+07
1.95629e+07
1.9563e+07
1.95631e+07
1.95632e+07
1.95633e+07
1.95633e+07
1.95634e+07
1.95635e+07
1.95635e+07
1.95636e+07
1.95637e+07
1.95637e+07
1.95638e+07
1.95639e+07
1.95639e+07
1.9564e+07
1.95641e+07
1.95641e+07
1.95642e+07
1.95643e+07
1.95644e+07
1.95645e+07
1.95646e+07
1.95647e+07
1.95648e+07
1.95649e+07
1.9565e+07
1.95651e+07
1.95653e+07
1.95654e+07
1.95655e+07
1.95657e+07
1.95658e+07
1.9566e+07
1.95661e+07
1.93931e+07
1.93965e+07
1.94011e+07
1.94026e+07
1.94035e+07
1.94059e+07
1.941e+07
1.94119e+07
1.94129e+07
1.94155e+07
1.94197e+07
1.94208e+07
1.94219e+07
1.94244e+07
1.94287e+07
1.94325e+07
1.9432e+07
1.94327e+07
1.9435e+07
1.94381e+07
1.94442e+07
1.94455e+07
1.94441e+07
1.94451e+07
1.94474e+07
1.94505e+07
1.94541e+07
1.94546e+07
1.94552e+07
1.94569e+07
1.94588e+07
1.94608e+07
1.94626e+07
1.94645e+07
1.94664e+07
1.94682e+07
1.94701e+07
1.94721e+07
1.94745e+07
1.94785e+07
1.94787e+07
1.9479e+07
1.94804e+07
1.94821e+07
1.94837e+07
1.94854e+07
1.9487e+07
1.94886e+07
1.94901e+07
1.94917e+07
1.94932e+07
1.94947e+07
1.94962e+07
1.94976e+07
1.94991e+07
1.95005e+07
1.95019e+07
1.95033e+07
1.95047e+07
1.9506e+07
1.95073e+07
1.95086e+07
1.95099e+07
1.95111e+07
1.95124e+07
1.95136e+07
1.95148e+07
1.95159e+07
1.95171e+07
1.95182e+07
1.95193e+07
1.95204e+07
1.95214e+07
1.95225e+07
1.95235e+07
1.95245e+07
1.95255e+07
1.95264e+07
1.95274e+07
1.95283e+07
1.95292e+07
1.95301e+07
1.9531e+07
1.95319e+07
1.95327e+07
1.95336e+07
1.95344e+07
1.95352e+07
1.95361e+07
1.95371e+07
1.95383e+07
1.95401e+07
1.95421e+07
1.95417e+07
1.95408e+07
1.95411e+07
1.95418e+07
1.95425e+07
1.95432e+07
1.9544e+07
1.95448e+07
1.95455e+07
1.95463e+07
1.9547e+07
1.95477e+07
1.95483e+07
1.9549e+07
1.95496e+07
1.95502e+07
1.95507e+07
1.95513e+07
1.95518e+07
1.95524e+07
1.95529e+07
1.95534e+07
1.95538e+07
1.95542e+07
1.95546e+07
1.9555e+07
1.95554e+07
1.95557e+07
1.9556e+07
1.95563e+07
1.95566e+07
1.95568e+07
1.95571e+07
1.95573e+07
1.95576e+07
1.95578e+07
1.9558e+07
1.95582e+07
1.95584e+07
1.95586e+07
1.95588e+07
1.9559e+07
1.95592e+07
1.95594e+07
1.95595e+07
1.95597e+07
1.95598e+07
1.956e+07
1.95601e+07
1.95603e+07
1.95604e+07
1.95605e+07
1.95607e+07
1.95608e+07
1.95609e+07
1.9561e+07
1.95612e+07
1.95613e+07
1.95614e+07
1.95615e+07
1.95616e+07
1.95618e+07
1.95619e+07
1.9562e+07
1.95621e+07
1.95622e+07
1.95623e+07
1.95624e+07
1.95625e+07
1.95626e+07
1.95627e+07
1.95628e+07
1.95629e+07
1.9563e+07
1.95631e+07
1.95632e+07
1.95633e+07
1.95633e+07
1.95634e+07
1.95635e+07
1.95635e+07
1.95636e+07
1.95637e+07
1.95637e+07
1.95638e+07
1.95639e+07
1.95639e+07
1.9564e+07
1.95641e+07
1.95641e+07
1.95642e+07
1.95643e+07
1.95644e+07
1.95645e+07
1.95646e+07
1.95647e+07
1.95648e+07
1.95649e+07
1.9565e+07
1.95651e+07
1.95653e+07
1.95654e+07
1.95655e+07
1.95657e+07
1.95658e+07
1.9566e+07
1.95661e+07
1.93925e+07
1.93961e+07
1.93982e+07
1.94004e+07
1.94029e+07
1.94054e+07
1.94077e+07
1.941e+07
1.94124e+07
1.94148e+07
1.94169e+07
1.94191e+07
1.94214e+07
1.94238e+07
1.94261e+07
1.94279e+07
1.943e+07
1.94323e+07
1.94347e+07
1.94371e+07
1.94388e+07
1.94405e+07
1.94426e+07
1.94448e+07
1.9447e+07
1.94492e+07
1.94509e+07
1.94528e+07
1.94548e+07
1.94568e+07
1.94588e+07
1.94607e+07
1.94626e+07
1.94645e+07
1.94664e+07
1.94682e+07
1.94701e+07
1.9472e+07
1.94738e+07
1.94752e+07
1.94769e+07
1.94786e+07
1.94803e+07
1.9482e+07
1.94837e+07
1.94854e+07
1.9487e+07
1.94886e+07
1.94901e+07
1.94917e+07
1.94932e+07
1.94947e+07
1.94962e+07
1.94976e+07
1.94991e+07
1.95005e+07
1.95019e+07
1.95033e+07
1.95047e+07
1.9506e+07
1.95073e+07
1.95086e+07
1.95099e+07
1.95111e+07
1.95124e+07
1.95136e+07
1.95148e+07
1.95159e+07
1.95171e+07
1.95182e+07
1.95193e+07
1.95204e+07
1.95215e+07
1.95225e+07
1.95235e+07
1.95245e+07
1.95255e+07
1.95265e+07
1.95274e+07
1.95283e+07
1.95293e+07
1.95302e+07
1.95311e+07
1.95319e+07
1.95328e+07
1.95336e+07
1.95345e+07
1.95353e+07
1.95362e+07
1.95371e+07
1.95382e+07
1.9539e+07
1.9539e+07
1.95396e+07
1.95403e+07
1.95411e+07
1.95419e+07
1.95426e+07
1.95434e+07
1.95441e+07
1.95449e+07
1.95456e+07
1.95464e+07
1.95471e+07
1.95478e+07
1.95484e+07
1.9549e+07
1.95496e+07
1.95502e+07
1.95508e+07
1.95513e+07
1.95519e+07
1.95524e+07
1.95529e+07
1.95534e+07
1.95538e+07
1.95542e+07
1.95546e+07
1.9555e+07
1.95553e+07
1.95557e+07
1.9556e+07
1.95563e+07
1.95566e+07
1.95568e+07
1.95571e+07
1.95573e+07
1.95576e+07
1.95578e+07
1.9558e+07
1.95582e+07
1.95584e+07
1.95586e+07
1.95588e+07
1.9559e+07
1.95592e+07
1.95594e+07
1.95595e+07
1.95597e+07
1.95598e+07
1.956e+07
1.95601e+07
1.95603e+07
1.95604e+07
1.95605e+07
1.95607e+07
1.95608e+07
1.95609e+07
1.9561e+07
1.95612e+07
1.95613e+07
1.95614e+07
1.95615e+07
1.95616e+07
1.95618e+07
1.95619e+07
1.9562e+07
1.95621e+07
1.95622e+07
1.95623e+07
1.95624e+07
1.95625e+07
1.95626e+07
1.95627e+07
1.95628e+07
1.95629e+07
1.9563e+07
1.95631e+07
1.95632e+07
1.95633e+07
1.95633e+07
1.95634e+07
1.95635e+07
1.95635e+07
1.95636e+07
1.95637e+07
1.95637e+07
1.95638e+07
1.95639e+07
1.95639e+07
1.9564e+07
1.95641e+07
1.95641e+07
1.95642e+07
1.95643e+07
1.95644e+07
1.95645e+07
1.95646e+07
1.95647e+07
1.95648e+07
1.95649e+07
1.9565e+07
1.95651e+07
1.95653e+07
1.95654e+07
1.95655e+07
1.95657e+07
1.95658e+07
1.9566e+07
1.95661e+07
1.93919e+07
1.93949e+07
1.93973e+07
1.93995e+07
1.94019e+07
1.94044e+07
1.94068e+07
1.9409e+07
1.94114e+07
1.94138e+07
1.94161e+07
1.94183e+07
1.94206e+07
1.94231e+07
1.94253e+07
1.94274e+07
1.94295e+07
1.94318e+07
1.94342e+07
1.94364e+07
1.94384e+07
1.94402e+07
1.94423e+07
1.94445e+07
1.94467e+07
1.94487e+07
1.94506e+07
1.94525e+07
1.94545e+07
1.94565e+07
1.94585e+07
1.94605e+07
1.94624e+07
1.94643e+07
1.94662e+07
1.94681e+07
1.947e+07
1.94718e+07
1.94736e+07
1.94753e+07
1.94768e+07
1.94785e+07
1.94803e+07
1.9482e+07
1.94837e+07
1.94853e+07
1.94869e+07
1.94885e+07
1.94901e+07
1.94917e+07
1.94932e+07
1.94947e+07
1.94962e+07
1.94977e+07
1.94991e+07
1.95005e+07
1.95019e+07
1.95033e+07
1.95047e+07
1.9506e+07
1.95073e+07
1.95086e+07
1.95099e+07
1.95111e+07
1.95124e+07
1.95136e+07
1.95148e+07
1.95159e+07
1.95171e+07
1.95182e+07
1.95193e+07
1.95204e+07
1.95215e+07
1.95225e+07
1.95235e+07
1.95245e+07
1.95255e+07
1.95265e+07
1.95274e+07
1.95284e+07
1.95293e+07
1.95302e+07
1.95311e+07
1.9532e+07
1.95329e+07
1.95338e+07
1.95346e+07
1.95355e+07
1.95364e+07
1.95374e+07
1.95382e+07
1.9539e+07
1.95394e+07
1.95398e+07
1.95404e+07
1.95412e+07
1.9542e+07
1.95428e+07
1.95435e+07
1.95443e+07
1.9545e+07
1.95458e+07
1.95465e+07
1.95472e+07
1.95478e+07
1.95485e+07
1.95491e+07
1.95497e+07
1.95502e+07
1.95508e+07
1.95514e+07
1.95519e+07
1.95524e+07
1.95529e+07
1.95534e+07
1.95538e+07
1.95542e+07
1.95546e+07
1.9555e+07
1.95553e+07
1.95557e+07
1.9556e+07
1.95563e+07
1.95566e+07
1.95568e+07
1.95571e+07
1.95573e+07
1.95576e+07
1.95578e+07
1.9558e+07
1.95582e+07
1.95584e+07
1.95586e+07
1.95588e+07
1.9559e+07
1.95592e+07
1.95594e+07
1.95595e+07
1.95597e+07
1.95598e+07
1.956e+07
1.95601e+07
1.95603e+07
1.95604e+07
1.95605e+07
1.95607e+07
1.95608e+07
1.95609e+07
1.9561e+07
1.95612e+07
1.95613e+07
1.95614e+07
1.95615e+07
1.95616e+07
1.95618e+07
1.95619e+07
1.9562e+07
1.95621e+07
1.95622e+07
1.95623e+07
1.95624e+07
1.95625e+07
1.95626e+07
1.95627e+07
1.95628e+07
1.95629e+07
1.9563e+07
1.95631e+07
1.95632e+07
1.95633e+07
1.95633e+07
1.95634e+07
1.95635e+07
1.95635e+07
1.95636e+07
1.95637e+07
1.95637e+07
1.95638e+07
1.95639e+07
1.95639e+07
1.9564e+07
1.95641e+07
1.95641e+07
1.95642e+07
1.95643e+07
1.95644e+07
1.95645e+07
1.95646e+07
1.95647e+07
1.95648e+07
1.95649e+07
1.9565e+07
1.95651e+07
1.95653e+07
1.95654e+07
1.95655e+07
1.95657e+07
1.95658e+07
1.9566e+07
1.95661e+07
1.93918e+07
1.93949e+07
1.93973e+07
1.93995e+07
1.94019e+07
1.94044e+07
1.94068e+07
1.9409e+07
1.94114e+07
1.94138e+07
1.94161e+07
1.94183e+07
1.94206e+07
1.94231e+07
1.94253e+07
1.94274e+07
1.94295e+07
1.94318e+07
1.94342e+07
1.94363e+07
1.94383e+07
1.94402e+07
1.94423e+07
1.94445e+07
1.94466e+07
1.94487e+07
1.94506e+07
1.94525e+07
1.94545e+07
1.94565e+07
1.94585e+07
1.94605e+07
1.94624e+07
1.94643e+07
1.94662e+07
1.94681e+07
1.947e+07
1.94718e+07
1.94736e+07
1.94752e+07
1.94768e+07
1.94785e+07
1.94803e+07
1.9482e+07
1.94837e+07
1.94853e+07
1.94869e+07
1.94885e+07
1.94901e+07
1.94917e+07
1.94932e+07
1.94947e+07
1.94962e+07
1.94977e+07
1.94991e+07
1.95005e+07
1.95019e+07
1.95033e+07
1.95047e+07
1.9506e+07
1.95073e+07
1.95086e+07
1.95099e+07
1.95111e+07
1.95124e+07
1.95136e+07
1.95148e+07
1.95159e+07
1.95171e+07
1.95182e+07
1.95193e+07
1.95204e+07
1.95215e+07
1.95225e+07
1.95235e+07
1.95245e+07
1.95255e+07
1.95265e+07
1.95274e+07
1.95284e+07
1.95293e+07
1.95302e+07
1.95311e+07
1.9532e+07
1.95329e+07
1.95338e+07
1.95346e+07
1.95355e+07
1.95364e+07
1.95374e+07
1.95382e+07
1.95389e+07
1.95394e+07
1.95398e+07
1.95404e+07
1.95412e+07
1.9542e+07
1.95428e+07
1.95435e+07
1.95443e+07
1.9545e+07
1.95458e+07
1.95465e+07
1.95472e+07
1.95478e+07
1.95485e+07
1.95491e+07
1.95497e+07
1.95502e+07
1.95508e+07
1.95514e+07
1.95519e+07
1.95524e+07
1.95529e+07
1.95534e+07
1.95538e+07
1.95542e+07
1.95546e+07
1.9555e+07
1.95553e+07
1.95557e+07
1.9556e+07
1.95563e+07
1.95566e+07
1.95568e+07
1.95571e+07
1.95573e+07
1.95576e+07
1.95578e+07
1.9558e+07
1.95582e+07
1.95584e+07
1.95586e+07
1.95588e+07
1.9559e+07
1.95592e+07
1.95594e+07
1.95595e+07
1.95597e+07
1.95598e+07
1.956e+07
1.95601e+07
1.95603e+07
1.95604e+07
1.95605e+07
1.95607e+07
1.95608e+07
1.95609e+07
1.9561e+07
1.95612e+07
1.95613e+07
1.95614e+07
1.95615e+07
1.95616e+07
1.95618e+07
1.95619e+07
1.9562e+07
1.95621e+07
1.95622e+07
1.95623e+07
1.95624e+07
1.95625e+07
1.95626e+07
1.95627e+07
1.95628e+07
1.95629e+07
1.9563e+07
1.95631e+07
1.95632e+07
1.95633e+07
1.95633e+07
1.95634e+07
1.95635e+07
1.95635e+07
1.95636e+07
1.95637e+07
1.95637e+07
1.95638e+07
1.95639e+07
1.95639e+07
1.9564e+07
1.95641e+07
1.95641e+07
1.95642e+07
1.95643e+07
1.95644e+07
1.95645e+07
1.95646e+07
1.95647e+07
1.95648e+07
1.95649e+07
1.9565e+07
1.95651e+07
1.95653e+07
1.95654e+07
1.95655e+07
1.95657e+07
1.95658e+07
1.9566e+07
1.95661e+07
1.95661e+07
1.95662e+07
1.95662e+07
1.95662e+07
1.95662e+07
1.95662e+07
1.95662e+07
1.95662e+07
1.95662e+07
1.95662e+07
1.95662e+07
1.95662e+07
1.95662e+07
1.95662e+07
1.95662e+07
1.95662e+07
1.95662e+07
1.95662e+07
1.95662e+07
1.95662e+07
1.95662e+07
1.95662e+07
1.95662e+07
1.95662e+07
1.95662e+07
1.95662e+07
1.95662e+07
1.95662e+07
1.95662e+07
1.95662e+07
1.95662e+07
1.95662e+07
1.95663e+07
1.95662e+07
1.95662e+07
1.95663e+07
1.95663e+07
1.95663e+07
1.95663e+07
1.95663e+07
1.95662e+07
1.95662e+07
1.95662e+07
1.95663e+07
1.95663e+07
1.95663e+07
1.95663e+07
1.95664e+07
1.95664e+07
1.95664e+07
1.95664e+07
1.95664e+07
1.95664e+07
1.95664e+07
1.95664e+07
1.95664e+07
1.95664e+07
1.95664e+07
1.95664e+07
1.95665e+07
1.95662e+07
1.95662e+07
1.95663e+07
1.95663e+07
1.95664e+07
1.95664e+07
1.95664e+07
1.95665e+07
1.95665e+07
1.95666e+07
1.95667e+07
1.95668e+07
1.9567e+07
1.95671e+07
1.95671e+07
1.95668e+07
1.95667e+07
1.95667e+07
1.95668e+07
1.95668e+07
1.95662e+07
1.95663e+07
1.95663e+07
1.95664e+07
1.95664e+07
1.95664e+07
1.95665e+07
1.95665e+07
1.95665e+07
1.95666e+07
1.95667e+07
1.95668e+07
1.9567e+07
1.95671e+07
1.95671e+07
1.95669e+07
1.95668e+07
1.95668e+07
1.95669e+07
1.95668e+07
1.95663e+07
1.95663e+07
1.95662e+07
1.95662e+07
1.95662e+07
1.95662e+07
1.9566e+07
1.95659e+07
1.9566e+07
1.9566e+07
1.95659e+07
1.95658e+07
1.9566e+07
1.95661e+07
1.9566e+07
1.95656e+07
1.95657e+07
1.95661e+07
1.95663e+07
1.95661e+07
1.95656e+07
1.95654e+07
1.95659e+07
1.95664e+07
1.95664e+07
1.9566e+07
1.95653e+07
1.95649e+07
1.95654e+07
1.95661e+07
1.95662e+07
1.95659e+07
1.95652e+07
1.95643e+07
1.95634e+07
1.9563e+07
1.95635e+07
1.95639e+07
1.95641e+07
1.95643e+07
1.95644e+07
1.95645e+07
1.95646e+07
1.95647e+07
1.95648e+07
1.95649e+07
1.9565e+07
1.9565e+07
1.95651e+07
1.95652e+07
1.95653e+07
1.95653e+07
1.95654e+07
1.95655e+07
1.95655e+07
1.95656e+07
1.95656e+07
1.95657e+07
1.95658e+07
1.95658e+07
1.95659e+07
1.95659e+07
1.95659e+07
1.95659e+07
1.9566e+07
1.9566e+07
1.9566e+07
1.95661e+07
1.95662e+07
1.95664e+07
1.95667e+07
1.95672e+07
1.95675e+07
1.95673e+07
1.95667e+07
1.9566e+07
1.95649e+07
1.95649e+07
1.95653e+07
1.95656e+07
1.95658e+07
1.95659e+07
1.95661e+07
1.95661e+07
1.95662e+07
1.95663e+07
1.95663e+07
1.95664e+07
1.95666e+07
1.95667e+07
1.95669e+07
1.95671e+07
1.95672e+07
1.95674e+07
1.95675e+07
1.95675e+07
1.95676e+07
1.95677e+07
1.95678e+07
1.95677e+07
1.95663e+07
1.95663e+07
1.95662e+07
1.95662e+07
1.95662e+07
1.95662e+07
1.9566e+07
1.95659e+07
1.9566e+07
1.9566e+07
1.95659e+07
1.95657e+07
1.9566e+07
1.95661e+07
1.9566e+07
1.95656e+07
1.95657e+07
1.95661e+07
1.95663e+07
1.95661e+07
1.95656e+07
1.95654e+07
1.95659e+07
1.95664e+07
1.95664e+07
1.9566e+07
1.95653e+07
1.95649e+07
1.95654e+07
1.95661e+07
1.95662e+07
1.95659e+07
1.95652e+07
1.95643e+07
1.95634e+07
1.9563e+07
1.95635e+07
1.95639e+07
1.95641e+07
1.95643e+07
1.95644e+07
1.95645e+07
1.95646e+07
1.95647e+07
1.95648e+07
1.95649e+07
1.9565e+07
1.9565e+07
1.95651e+07
1.95652e+07
1.95653e+07
1.95653e+07
1.95654e+07
1.95655e+07
1.95655e+07
1.95656e+07
1.95656e+07
1.95657e+07
1.95658e+07
1.95658e+07
1.95659e+07
1.95659e+07
1.95659e+07
1.95659e+07
1.9566e+07
1.9566e+07
1.9566e+07
1.95661e+07
1.95662e+07
1.95664e+07
1.95668e+07
1.95672e+07
1.95675e+07
1.95674e+07
1.95667e+07
1.9566e+07
1.95649e+07
1.95649e+07
1.95653e+07
1.95656e+07
1.95658e+07
1.95659e+07
1.95661e+07
1.95661e+07
1.95662e+07
1.95663e+07
1.95663e+07
1.95664e+07
1.95666e+07
1.95667e+07
1.95669e+07
1.95671e+07
1.95672e+07
1.95674e+07
1.95675e+07
1.95675e+07
1.95676e+07
1.95677e+07
1.95678e+07
1.95677e+07
1.95665e+07
1.95666e+07
1.95664e+07
1.95665e+07
1.95666e+07
1.95667e+07
1.95665e+07
1.95663e+07
1.95663e+07
1.95666e+07
1.95663e+07
1.9566e+07
1.9566e+07
1.95665e+07
1.95664e+07
1.95657e+07
1.95655e+07
1.95658e+07
1.95665e+07
1.95665e+07
1.95658e+07
1.95653e+07
1.95655e+07
1.95662e+07
1.95666e+07
1.95665e+07
1.95655e+07
1.95647e+07
1.95649e+07
1.95659e+07
1.95665e+07
1.95665e+07
1.95661e+07
1.95645e+07
1.95632e+07
1.95631e+07
1.95635e+07
1.95641e+07
1.95645e+07
1.95648e+07
1.9565e+07
1.9565e+07
1.95651e+07
1.95651e+07
1.95652e+07
1.95652e+07
1.95652e+07
1.95653e+07
1.95653e+07
1.95654e+07
1.95654e+07