/*--------------------------------*- C++ -*----------------------------------*\
| =========                 |                                                 |
| \\      /  F ield         | OpenFOAM: The Open Source CFD Toolbox           |
|  \\    /   O peration     | Version:  3.0.x                                 |
|   \\  /    A nd           | Web:      www.OpenFOAM.org                      |
|    \\/     M anipulation  |                                                 |
\*---------------------------------------------------------------------------*/
FoamFile
{
    version     2.0;
    format      ascii;
    class       surfaceScalarField;
    location    "0.54";
    object      phi;
}
// * * * * * * * * * * * * * * * * * * * * * * * * * * * * * * * * * * * * * //

dimensions      [1 0 -1 0 0 0 0];

internalField   nonuniform List<scalar> 
12415
(
5.88444
0.000329476
5.85791
0.000238081
5.83132
0.000229999
5.80466
0.000232519
5.77793
0.000233702
5.75115
0.000234253
5.72429
0.000234782
5.69737
0.000235205
5.67039
0.000235557
5.64337
0.00023578
5.6163
0.000235978
5.58918
0.000236112
5.56201
0.000236225
5.53481
0.000236319
5.50758
0.000236402
5.48032
0.00023648
5.45302
0.000236556
5.4257
0.000236631
5.39836
0.000236708
5.371
0.000236788
5.34362
0.000236868
5.31624
0.000236953
5.28884
0.000237037
5.26144
0.000237128
5.23403
0.000237217
5.20663
0.000237312
5.17923
0.000237409
5.15183
0.000237508
5.12445
0.000237609
5.09707
0.000237719
5.06971
0.000237822
5.04235
0.00023794
5.01501
0.000238056
4.98768
0.000238175
4.96036
0.000238305
4.93304
0.00023843
4.90574
0.000238571
4.87845
0.000238711
4.85115
0.000238857
4.82386
0.000239019
4.79658
0.00023919
4.76929
0.000239363
4.74199
0.000239542
4.71468
0.00023972
4.68737
0.000239903
4.66005
0.000240093
4.63272
0.000240305
4.60538
0.000240545
4.57803
0.000240801
4.55066
0.000241083
4.52326
0.000241353
4.49584
0.000241627
4.4684
0.000241889
4.44094
0.000242147
4.41346
0.000242409
4.38597
0.000242683
4.35846
0.000242961
4.33094
0.000243239
4.30341
0.000243517
4.27588
0.000243793
4.24836
0.000244067
4.22083
0.000244347
4.19332
0.000244629
4.16581
0.000244894
4.13831
0.000245111
4.11083
0.000245246
4.08337
0.00024527
4.05594
0.000245155
4.02853
0.000244877
4.00116
0.000244415
3.97382
0.000243742
3.94653
0.000242818
3.91929
0.000241594
3.8921
0.000240013
3.86496
0.000238007
3.83788
0.000235511
3.81084
0.000232458
3.78387
0.000228791
3.75694
0.00022446
3.73008
0.000219427
3.70327
0.000213672
3.67653
0.000207184
3.64984
0.000199975
3.62322
0.000192071
3.59665
0.00018352
3.57015
0.000174384
3.54371
0.000164741
3.51734
0.000154686
3.49102
0.000144323
3.46477
0.000133765
3.43859
0.000123132
3.41246
0.000112542
3.3864
0.000102114
3.3604
9.19569e-05
3.33446
8.21728e-05
3.30858
7.28501e-05
3.28277
6.40619e-05
3.25702
5.58652e-05
3.23133
4.82993e-05
3.2057
4.1387e-05
3.18014
3.51364e-05
3.15463
2.95413e-05
3.12919
2.45831e-05
3.10382
2.02317e-05
3.07851
1.64495e-05
3.05327
1.31928e-05
3.02809
1.04152e-05
3.00298
8.06767e-06
2.97795
6.10163e-06
2.95298
4.46875e-06
2.92809
3.12384e-06
2.90327
2.02362e-06
2.87853
1.13006e-06
2.85387
4.1147e-07
2.82929
-1.76615e-07
2.8048
-6.35597e-07
2.78039
-1.00544e-06
2.75607
-1.30235e-06
2.73184
-1.54225e-06
2.7077
-1.73757e-06
2.68366
-1.89855e-06
2.65971
-2.03406e-06
2.63586
-2.15091e-06
2.61211
-2.25519e-06
2.58846
-2.34973e-06
2.56492
-2.4368e-06
2.54148
-2.51871e-06
2.51814
-2.59754e-06
2.49491
-2.67604e-06
2.47179
-2.7552e-06
2.44878
-2.83474e-06
2.42588
-2.91476e-06
2.4031
-2.99483e-06
2.38042
-3.07572e-06
2.35785
-3.15788e-06
2.3354
-3.24195e-06
2.31307
-3.32803e-06
2.29085
-3.41535e-06
2.26874
-3.50328e-06
2.24675
-3.59099e-06
2.22488
-3.67844e-06
2.20313
-3.76698e-06
2.1815
-3.85678e-06
2.15998
-3.94738e-06
2.13859
-4.03925e-06
2.11732
-4.13239e-06
2.09617
-4.2267e-06
2.07514
-4.32171e-06
2.05424
-4.41714e-06
2.03346
-4.5122e-06
2.0128
-4.60729e-06
1.99228
-4.70232e-06
1.97188
-4.79765e-06
1.9516
-4.89475e-06
1.93146
-4.99246e-06
1.91144
-5.09142e-06
1.89155
-5.19043e-06
1.87178
-5.28964e-06
1.85215
-5.38736e-06
1.83264
-5.4875e-06
1.81326
-5.5884e-06
1.79401
-5.69184e-06
1.77489
-5.79366e-06
1.7559
-5.89655e-06
1.73703
-5.99839e-06
1.71829
-6.10193e-06
1.69968
-6.20481e-06
1.6812
-6.31197e-06
1.66284
-6.41509e-06
1.64462
-6.52742e-06
1.62652
-6.6288e-06
1.60856
-6.74583e-06
1.59073
-6.84229e-06
1.57302
-6.96714e-06
1.55545
-7.05519e-06
1.53801
-7.19843e-06
1.52071
-7.26303e-06
1.50353
-7.44817e-06
1.48649
-7.44035e-06
1.46958
-7.73717e-06
1.4528
-7.54927e-06
1.43615
-8.11353e-06
1.41964
-7.55745e-06
1.40325
-8.60796e-06
1.387
-7.42773e-06
1.37089
-9.282e-06
1.3549
-7.04283e-06
1.33906
-1.02953e-05
1.32334
-6.29839e-06
1.30777
-1.15904e-05
1.29232
-5.64472e-06
1.27702
-1.19218e-05
1.26185
-5.0632e-06
1.24683
-9.90548e-06
1.23193
4.32278e-06
1.2171
7.33275e-05
1.20201
0.000483316
1.18453
0.00300897
1.14307
0.027132
0.0753173
1.05358
11.7697
0.000261805
11.7171
0.000217263
11.6644
0.000194816
11.6116
0.000199222
11.5586
0.000200893
11.5056
0.000200983
11.4524
0.000201341
11.399
0.000201723
11.3456
0.000202025
11.292
0.000202231
11.2384
0.000202404
11.1846
0.00020253
11.1308
0.000202638
11.0769
0.000202729
11.023
0.000202812
10.969
0.00020289
10.9149
0.000202967
10.8607
0.000203044
10.8066
0.000203122
10.7523
0.000203201
10.6981
0.000203283
10.6438
0.000203367
10.5895
0.000203452
10.5352
0.000203541
10.4809
0.000203631
10.4266
0.000203723
10.3723
0.000203819
10.3181
0.000203916
10.2638
0.000204016
10.2096
0.000204121
10.1553
0.000204224
10.1011
0.000204336
10.047
0.000204448
9.99281
0.000204563
9.93867
0.000204686
9.88456
0.000204807
9.83046
0.000204939
9.77638
0.000205073
9.72231
0.000205211
9.66824
0.000205361
9.61418
0.00020552
9.56011
0.000205681
9.50603
0.000205846
9.45193
0.000206012
9.39782
0.000206183
9.34369
0.000206361
9.28955
0.000206558
9.23538
0.000206775
9.18119
0.000207008
9.12696
0.000207259
9.07268
0.000207504
9.01836
0.000207751
8.964
0.000207991
8.9096
0.000208228
8.85515
0.000208468
8.80068
0.000208717
8.74618
0.000208968
8.69166
0.000209219
8.63713
0.00020947
8.5826
0.000209719
8.52806
0.000209969
8.47353
0.000210222
8.41902
0.000210475
8.36454
0.000210711
8.31007
0.000210904
8.25564
0.000211026
8.20124
0.000211051
8.14689
0.000210955
8.0926
0.000210716
8.03837
0.000210315
7.98423
0.000209726
7.93017
0.000208914
7.87621
0.000207838
7.82234
0.000206447
7.76856
0.000204683
7.71489
0.00020249
7.66133
0.00019981
7.60786
0.000196593
7.5545
0.000192799
7.50124
0.000188394
7.44809
0.000183363
7.39504
0.000177698
7.34209
0.000171411
7.28926
0.000164527
7.23652
0.000157089
7.18389
0.000149153
7.13137
0.000140788
7.07895
0.000132078
7.02663
0.000123115
6.97442
0.000113997
6.92231
0.000104827
6.8703
9.57099e-05
6.81839
8.67453e-05
6.76659
7.80282e-05
6.71489
6.96443e-05
6.66329
6.16685e-05
6.6118
5.4162e-05
6.56042
4.71718e-05
6.50914
4.073e-05
6.45798
3.48541e-05
6.40692
2.95491e-05
6.35598
2.48081e-05
6.30516
2.06134e-05
6.25445
1.6938e-05
6.20387
1.37484e-05
6.15341
1.10063e-05
6.10308
8.67132e-06
6.05288
6.70102e-06
6.00282
5.05344e-06
5.9529
3.68712e-06
5.90312
2.56334e-06
5.85349
1.64524e-06
5.80401
9.00797e-07
5.75469
3.0972e-07
5.70553
-2.0206e-07
5.65654
-5.72093e-07
5.60772
-8.7977e-07
5.55908
-1.12831e-06
5.51061
-1.32934e-06
5.46233
-1.49366e-06
5.41424
-1.62938e-06
5.36634
-1.74394e-06
5.31864
-1.84303e-06
5.27113
-1.93159e-06
5.22383
-2.01219e-06
5.17674
-2.08649e-06
5.12985
-2.15641e-06
5.08318
-2.22406e-06
5.03671
-2.29112e-06
4.99047
-2.35903e-06
4.94444
-2.42712e-06
4.89864
-2.49576e-06
4.85305
-2.56436e-06
4.80769
-2.63377e-06
4.76256
-2.70421e-06
4.71765
-2.77629e-06
4.67297
-2.85012e-06
4.62852
-2.925e-06
4.5843
-3.00032e-06
4.54032
-3.07573e-06
4.49657
-3.15045e-06
4.45306
-3.22675e-06
4.40978
-3.30339e-06
4.36674
-3.38127e-06
4.32395
-3.46011e-06
4.28139
-3.53989e-06
4.23908
-3.62069e-06
4.19702
-3.70227e-06
4.1552
-3.78418e-06
4.11364
-3.86548e-06
4.07232
-3.94703e-06
4.03125
-4.02885e-06
3.99044
-4.11016e-06
3.94988
-4.19378e-06
3.90958
-4.27725e-06
3.86953
-4.36253e-06
3.82974
-4.44675e-06
3.7902
-4.53284e-06
3.75092
-4.61557e-06
3.7119
-4.70262e-06
3.67313
-4.7873e-06
3.63461
-4.87799e-06
3.59636
-4.96427e-06
3.55835
-5.05364e-06
3.5206
-5.1388e-06
3.48311
-5.22962e-06
3.44588
-5.31553e-06
3.4089
-5.4123e-06
3.37218
-5.49226e-06
3.33572
-5.6001e-06
3.29951
-5.67252e-06
3.26357
-5.79277e-06
3.22789
-5.84824e-06
3.19247
-5.99127e-06
3.15731
-6.01701e-06
3.12242
-6.21255e-06
3.08779
-6.15919e-06
3.05342
-6.48614e-06
3.01932
-6.21204e-06
2.98548
-6.89125e-06
2.95191
-6.06351e-06
2.9186
-7.5581e-06
2.88555
-5.60612e-06
2.85277
-8.57389e-06
2.82025
-4.73322e-06
2.788
-1.0138e-05
2.75601
-3.08451e-06
2.7243
-1.27294e-05
2.69285
-3.45414e-07
2.66168
-1.61971e-05
2.63077
2.17533e-06
2.60015
-1.69156e-05
2.5698
6.06683e-06
2.53972
-1.29146e-05
2.5099
4.28916e-05
2.48023
0.000224718
2.45
0.00149501
2.41516
0.00891092
2.35374
0.0599096
0.160116
2.24058
141.236
-0.000261805
140.605
-0.000217263
139.973
-0.000194816
139.339
-0.000199222
138.704
-0.000200893
138.067
-0.000200983
137.428
-0.000201341
136.788
-0.000201723
136.147
-0.000202025
135.504
-0.000202231
134.86
-0.000202404
134.216
-0.00020253
133.57
-0.000202638
132.923
-0.000202729
132.276
-0.000202812
131.627
-0.00020289
130.978
-0.000202967
130.329
-0.000203044
129.679
-0.000203122
129.028
-0.000203201
128.377
-0.000203283
127.726
-0.000203367
127.074
-0.000203452
126.423
-0.000203541
125.771
-0.000203631
125.12
-0.000203723
124.468
-0.000203819
123.817
-0.000203916
123.166
-0.000204016
122.515
-0.000204121
121.864
-0.000204224
121.214
-0.000204336
120.563
-0.000204448
119.914
-0.000204563
119.264
-0.000204686
118.615
-0.000204807
117.966
-0.000204939
117.317
-0.000205073
116.668
-0.000205211
116.019
-0.000205361
115.37
-0.00020552
114.721
-0.000205681
114.072
-0.000205846
113.423
-0.000206012
112.774
-0.000206183
112.124
-0.000206361
111.475
-0.000206558
110.825
-0.000206775
110.174
-0.000207008
109.524
-0.000207259
108.872
-0.000207504
108.22
-0.000207751
107.568
-0.000207991
106.915
-0.000208228
106.262
-0.000208468
105.608
-0.000208717
104.954
-0.000208968
104.3
-0.000209219
103.646
-0.00020947
102.991
-0.000209719
102.337
-0.000209969
101.683
-0.000210222
101.029
-0.000210475
100.375
-0.000210711
99.7211
-0.000210904
99.0679
-0.000211026
98.4151
-0.000211051
97.7629
-0.000210955
97.1114
-0.000210716
96.4608
-0.000210315
95.8111
-0.000209726
95.1624
-0.000208914
94.5148
-0.000207838
93.8684
-0.000206447
93.2231
-0.000204683
92.5791
-0.00020249
91.9363
-0.00019981
91.2947
-0.000196593
90.6544
-0.000192799
90.0153
-0.000188394
89.3774
-0.000183363
88.7408
-0.000177698
88.1055
-0.000171411
87.4715
-0.000164527
86.8387
-0.000157089
86.2071
-0.000149153
85.5768
-0.000140788
84.9477
-0.000132078
84.3199
-0.000123115
83.6933
-0.000113997
83.068
-0.000104827
82.4439
-9.57099e-05
81.821
-8.67453e-05
81.1993
-7.80282e-05
80.5789
-6.96443e-05
79.9598
-6.16685e-05
79.3419
-5.4162e-05
78.7253
-4.71718e-05
78.1099
-4.07299e-05
77.496
-3.48541e-05
76.8833
-2.95491e-05
76.272
-2.48081e-05
75.6621
-2.06134e-05
75.0536
-1.6938e-05
74.4466
-1.37483e-05
73.8411
-1.10063e-05
73.2372
-8.67127e-06
72.6348
-6.70107e-06
72.034
-5.05336e-06
71.4349
-3.6872e-06
70.8376
-2.56325e-06
70.242
-1.64533e-06
69.6483
-9.00696e-07
69.0565
-3.09817e-07
68.4666
2.02155e-07
67.8787
5.72005e-07
67.2928
8.79873e-07
66.7091
1.12822e-06
66.1275
1.32943e-06
65.5482
1.49358e-06
64.9711
1.62946e-06
64.3963
1.74386e-06
63.8238
1.84311e-06
63.2538
1.93152e-06
62.6862
2.01223e-06
62.121
2.08646e-06
61.5584
2.1565e-06
60.9983
2.22384e-06
60.4408
2.29151e-06
59.8858
2.35853e-06
59.3335
2.42763e-06
58.7838
2.49533e-06
58.2368
2.56468e-06
57.6925
2.6336e-06
57.1509
2.70423e-06
56.612
2.77632e-06
56.0758
2.85013e-06
55.5424
2.92489e-06
55.0118
3.00067e-06
54.484
3.07493e-06
53.959
3.1516e-06
53.4369
3.2258e-06
52.9176
3.30371e-06
52.4011
3.38136e-06
51.8876
3.46009e-06
51.3769
3.53948e-06
50.8692
3.62155e-06
50.3644
3.70125e-06
49.8626
3.78493e-06
49.3638
3.86511e-06
48.868
3.94767e-06
48.3752
4.02773e-06
47.8855
4.11106e-06
47.3988
4.19311e-06
46.9152
4.27844e-06
46.4346
4.36069e-06
45.9571
4.4497e-06
45.4826
4.52877e-06
45.0113
4.61939e-06
44.543
4.69723e-06
44.0777
4.79658e-06
43.6156
4.87039e-06
43.1565
4.96808e-06
42.7004
5.04518e-06
42.2475
5.15035e-06
41.7976
5.22094e-06
41.3507
5.32764e-06
40.907
5.39251e-06
40.4663
5.5181e-06
40.0288
5.56866e-06
39.5944
5.71389e-06
39.163
5.73388e-06
38.7349
5.92509e-06
38.3098
5.88996e-06
37.888
6.16301e-06
37.4692
5.99939e-06
37.0537
6.47649e-06
36.6413
5.98315e-06
36.2321
7.00634e-06
35.826
5.62505e-06
35.4231
8.00531e-06
35.0234
4.66777e-06
34.6268
9.69398e-06
34.2334
3.08138e-06
33.8432
1.1807e-05
33.4562
1.3952e-06
33.0724
1.3644e-05
32.6918
2.99562e-07
32.3144
1.49564e-05
31.9403
-1.05671e-06
31.5695
1.7182e-05
31.202
-8.91434e-06
30.8378
2.72225e-05
30.4769
-9.65514e-06
30.1194
6.08576e-05
29.7653
0.000167521
29.4152
0.000978374
29.0721
0.00478151
28.7495
0.0387316
0.0516454
28.5177
11.7697
-0.000329476
11.7171
-0.000238081
11.6644
-0.000229999
11.6116
-0.000232519
11.5586
-0.000233702
11.5056
-0.000234253
11.4524
-0.000234782
11.399
-0.000235205
11.3456
-0.000235557
11.292
-0.00023578
11.2384
-0.000235978
11.1846
-0.000236112
11.1308
-0.000236225
11.0769
-0.000236319
11.023
-0.000236402
10.969
-0.00023648
10.9149
-0.000236556
10.8607
-0.000236631
10.8066
-0.000236708
10.7523
-0.000236788
10.6981
-0.000236868
10.6438
-0.000236953
10.5895
-0.000237037
10.5352
-0.000237128
10.4809
-0.000237217
10.4266
-0.000237312
10.3723
-0.000237409
10.3181
-0.000237508
10.2638
-0.000237609
10.2096
-0.000237719
10.1553
-0.000237822
10.1011
-0.00023794
10.047
-0.000238056
9.99281
-0.000238175
9.93867
-0.000238305
9.88456
-0.00023843
9.83046
-0.000238571
9.77638
-0.000238711
9.72231
-0.000238857
9.66824
-0.000239019
9.61418
-0.00023919
9.56011
-0.000239363
9.50603
-0.000239542
9.45193
-0.00023972
9.39782
-0.000239903
9.34369
-0.000240093
9.28955
-0.000240305
9.23538
-0.000240545
9.18119
-0.000240801
9.12696
-0.000241083
9.07268
-0.000241353
9.01836
-0.000241627
8.964
-0.000241889
8.9096
-0.000242147
8.85515
-0.000242409
8.80068
-0.000242683
8.74618
-0.000242961
8.69166
-0.000243239
8.63713
-0.000243517
8.5826
-0.000243793
8.52806
-0.000244067
8.47353
-0.000244347
8.41902
-0.000244629
8.36454
-0.000244894
8.31007
-0.000245111
8.25564
-0.000245246
8.20124
-0.00024527
8.14689
-0.000245155
8.0926
-0.000244877
8.03837
-0.000244415
7.98423
-0.000243742
7.93017
-0.000242818
7.87621
-0.000241594
7.82234
-0.000240013
7.76856
-0.000238007
7.71489
-0.000235511
7.66133
-0.000232458
7.60786
-0.000228791
7.5545
-0.00022446
7.50124
-0.000219427
7.44809
-0.000213672
7.39504
-0.000207184
7.34209
-0.000199975
7.28926
-0.000192071
7.23652
-0.00018352
7.18389
-0.000174384
7.13137
-0.000164741
7.07895
-0.000154686
7.02663
-0.000144323
6.97442
-0.000133765
6.92231
-0.000123132
6.8703
-0.000112542
6.81839
-0.000102114
6.76659
-9.19569e-05
6.71489
-8.21728e-05
6.66329
-7.28501e-05
6.6118
-6.40619e-05
6.56042
-5.58652e-05
6.50914
-4.82993e-05
6.45798
-4.1387e-05
6.40692
-3.51364e-05
6.35598
-2.95413e-05
6.30516
-2.45831e-05
6.25445
-2.02317e-05
6.20387
-1.64495e-05
6.15341
-1.31928e-05
6.10308
-1.04151e-05
6.05288
-8.06773e-06
6.00282
-6.10155e-06
5.9529
-4.46882e-06
5.90312
-3.12377e-06
5.85349
-2.02367e-06
5.80401
-1.13002e-06
5.75469
-4.11488e-07
5.70553
1.76611e-07
5.65654
6.3562e-07
5.60772
1.0054e-06
5.55908
1.30238e-06
5.51061
1.54223e-06
5.46233
1.73756e-06
5.41424
1.89862e-06
5.36634
2.03394e-06
5.31864
2.15105e-06
5.27113
2.25509e-06
5.22383
2.34975e-06
5.17674
2.43686e-06
5.12985
2.51864e-06
5.08318
2.59752e-06
5.03671
2.67618e-06
4.99047
2.75497e-06
4.94444
2.83496e-06
4.89864
2.91459e-06
4.85305
2.99496e-06
4.80769
3.07566e-06
4.76256
3.15789e-06
4.71765
3.24196e-06
4.67297
3.32803e-06
4.62852
3.41536e-06
4.5843
3.50334e-06
4.54032
3.5907e-06
4.49657
3.67886e-06
4.45306
3.76678e-06
4.40978
3.85667e-06
4.36674
3.94744e-06
4.32395
4.03941e-06
4.28139
4.13228e-06
4.23908
4.22683e-06
4.19702
4.3213e-06
4.1552
4.41754e-06
4.11364
4.51225e-06
4.07232
4.60739e-06
4.03125
4.70175e-06
3.99044
4.79801e-06
3.94988
4.89458e-06
3.90958
4.9929e-06
3.86953
5.09094e-06
3.82974
5.19119e-06
3.7902
5.28809e-06
3.75092
5.38882e-06
3.7119
5.48618e-06
3.67313
5.59148e-06
3.63461
5.68889e-06
3.59636
5.79455e-06
3.55835
5.89381e-06
3.5206
6.00258e-06
3.48311
6.09932e-06
3.44588
6.2087e-06
3.4089
6.30514e-06
3.37218
6.42381e-06
3.33572
6.51698e-06
3.29951
6.6429e-06
3.26357
6.72564e-06
3.22789
6.86791e-06
3.19247
6.93278e-06
3.15731
7.10472e-06
3.12242
7.12736e-06
3.08779
7.36996e-06
3.05342
7.27826e-06
3.01932
7.70911e-06
2.98548
7.30507e-06
2.95191
8.21591e-06
2.9186
7.1143e-06
2.88555
8.98192e-06
2.85276
6.68166e-06
2.82025
9.92302e-06
2.78799
6.19049e-06
2.75602
1.07695e-05
2.7243
5.93747e-06
2.69286
1.13611e-05
2.66167
5.69409e-06
2.63078
1.21774e-05
2.60015
3.11928e-06
2.5698
1.58108e-05
2.53973
3.39973e-06
2.50996
2.75358e-05
2.48056
6.67464e-05
2.45194
0.000363961
2.42572
0.00207198
2.40243
0.033358
0.0733165
2.3524
5.88444
5.85791
5.83132
5.80466
5.77793
5.75115
5.72429
5.69737
5.67039
5.64337
5.6163
5.58918
5.56201
5.53481
5.50758
5.48032
5.45302
5.4257
5.39836
5.371
5.34362
5.31624
5.28884
5.26144
5.23403
5.20663
5.17923
5.15183
5.12445
5.09707
5.06971
5.04235
5.01501
4.98768
4.96036
4.93304
4.90574
4.87845
4.85115
4.82386
4.79658
4.76929
4.74199
4.71468
4.68737
4.66005
4.63272
4.60538
4.57803
4.55066
4.52326
4.49584
4.4684
4.44094
4.41346
4.38597
4.35846
4.33094
4.30341
4.27588
4.24836
4.22083
4.19332
4.16581
4.13831
4.11083
4.08337
4.05594
4.02853
4.00116
3.97382
3.94653
3.91929
3.8921
3.86496
3.83788
3.81084
3.78387
3.75694
3.73008
3.70327
3.67653
3.64984
3.62322
3.59665
3.57015
3.54371
3.51734
3.49102
3.46477
3.43859
3.41246
3.3864
3.3604
3.33446
3.30858
3.28277
3.25702
3.23133
3.2057
3.18014
3.15463
3.12919
3.10382
3.07851
3.05327
3.02809
3.00298
2.97795
2.95298
2.92809
2.90327
2.87853
2.85387
2.82929
2.8048
2.78039
2.75607
2.73184
2.7077
2.68366
2.65971
2.63586
2.61211
2.58846
2.56492
2.54148
2.51814
2.49491
2.47179
2.44878
2.42588
2.4031
2.38042
2.35785
2.3354
2.31307
2.29085
2.26874
2.24675
2.22488
2.20313
2.1815
2.15998
2.13859
2.11732
2.09617
2.07514
2.05424
2.03346
2.0128
1.99228
1.97188
1.9516
1.93146
1.91144
1.89155
1.87178
1.85215
1.83264
1.81326
1.79401
1.77489
1.7559
1.73703
1.71829
1.69968
1.6812
1.66284
1.64462
1.62652
1.60856
1.59073
1.57302
1.55545
1.53801
1.52071
1.50353
1.48649
1.46958
1.4528
1.43615
1.41964
1.40325
1.38701
1.37089
1.35491
1.33905
1.32334
1.30776
1.29233
1.27702
1.26186
1.24683
1.23196
1.21727
1.20302
1.19063
1.20965
1.26878
1.03086
0.0191736
1.03913
-0.0117955
1.04506
-0.00945556
1.05071
-0.00916957
1.06212
-0.0149199
1.10276
-0.0441478
1.19145
-0.0921923
1.29459
-0.106641
1.32921
-0.0381298
1.28722
0.0384889
1.19976
0.0839598
1.06957
0.126692
0.924764
0.141325
0.89002
0.0312884
1.08048
-0.193862
1.3961
-0.318987
1.77695
-0.384232
2.17477
-0.401247
2.4296
-0.25838
-0.0223055
2.44831
2.23794
0.0149043
2.25973
-0.0404812
2.28858
-0.0451823
2.31229
-0.0397455
2.33898
-0.0484639
2.41323
-0.125233
2.57694
-0.262728
2.8019
-0.338444
2.92513
-0.1682
2.90634
0.0504584
2.78395
0.199537
2.5429
0.360928
2.19667
0.480761
1.98647
0.234745
2.15589
-0.36991
2.53377
-0.70347
3.05047
-0.907549
3.73865
-1.09613
4.41342
-0.940122
-0.219938
4.60405
28.4647
0.00353223
28.3691
-0.00918633
28.2365
0.0234193
28.0821
0.0505953
27.8955
0.0741576
27.614
0.0923706
27.1825
0.104913
26.669
0.111209
26.3255
0.111736
26.2024
0.109956
26.2294
0.108852
26.4174
0.109323
26.7235
0.111207
26.7796
0.115079
26.2217
0.124288
25.3202
0.134425
24.2132
0.136183
22.9303
0.123421
21.8277
0.0991803
0.0683782
21.4763
2.32211
0.029974
2.30752
0.00153527
2.31734
0.00969962
2.34721
0.0168893
2.39457
0.0229745
2.45509
0.0280468
2.52381
0.0323957
2.59627
0.0349538
2.66866
0.0355622
2.73973
0.0351092
2.81015
0.0346499
2.88088
0.034817
2.95233
0.0359902
3.02494
0.038695
3.10201
0.0434544
3.1844
0.0482587
3.26832
0.0484955
3.34821
0.03977
3.42402
0.0196158
-0.02201
3.51066
1.29691
1.2966
1.30445
1.3195
1.34065
1.36687
1.39746
1.4306
1.46435
1.49765
1.5305
1.56351
1.5977
1.63459
1.67624
1.7227
1.76939
1.80736
1.82518
1.80137
1.94406
0.493531
2.02435
-0.0907445
2.52251
-0.508699
2.7553
-0.243512
2.70505
0.039784
2.64767
0.0471015
2.90448
-0.267029
3.03614
-0.142072
2.96712
0.0588664
2.96018
-0.00304884
3.22177
-0.271559
3.28347
-0.0717957
3.19074
0.0828788
3.01409
0.167051
3.17581
-0.170858
3.49288
-0.32682
3.50152
-0.0184437
3.38427
0.107881
3.17569
0.199378
3.05755
0.109071
3.44233
-0.393823
3.6718
-0.239193
3.60877
0.0538317
3.48703
0.112954
3.32501
0.153372
3.35566
-0.0388313
3.5313
-0.184398
3.54627
-0.0237355
3.49654
0.041363
3.44974
0.0385362
3.41234
0.0292275
3.3851
0.0191421
3.3645
0.0125852
3.34673
0.00984517
3.32793
0.0109651
3.30116
0.0190184
3.24963
0.0438766
3.14535
0.0967307
3.14725
-0.00932399
3.35468
-0.21517
3.38727
-0.0402823
3.34828
0.0316928
3.31141
0.0297185
3.2815
0.0228428
3.25968
0.014844
3.24345
0.0093313
3.23025
0.00638
3.2187
0.00481421
3.20809
0.00396453
3.19801
0.0035006
3.18828
0.00324444
3.17877
0.00310009
3.16943
0.00300258
3.16031
0.00287668
3.1514
0.00273858
3.14267
0.0026368
3.13409
0.00257967
3.1256
0.00256211
3.11717
0.00257591
3.10879
0.002614
3.10044
0.00267071
3.0921
0.00274071
3.08376
0.00281875
3.07542
0.00289932
3.06709
0.00297692
3.05878
0.00304635
3.05049
0.00310286
3.04224
0.00314306
3.03406
0.00316485
3.02595
0.00316757
3.01794
0.00315145
3.01005
0.00311688
3.00228
0.00306621
2.99466
0.00300288
2.98719
0.00291984
2.9799
0.00282473
2.97272
0.00278854
2.96567
0.00272997
2.95869
0.00272288
2.9517
0.00279479
2.94458
0.00298691
2.93715
0.0033616
2.92912
0.00401949
2.92005
0.00513101
2.90906
0.0071265
2.8947
0.0105709
2.8738
0.0171591
2.83965
0.0304135
2.7792
0.0566697
2.67681
0.0986358
2.55402
0.119569
2.66047
-0.109446
2.9371
-0.27976
3.05592
-0.122205
3.01124
0.0414374
2.94207
0.0661166
2.87135
0.067711
2.80804
0.0603568
2.75124
0.0539287
2.69828
0.0501645
2.64769
0.0478391
2.59919
0.0458051
2.55264
0.0439428
2.50738
0.042714
2.46206
0.0428386
2.41454
0.0450709
2.3623
0.0497836
2.3028
0.0571299
2.23353
0.0669638
2.15203
0.0792618
2.05592
0.0939027
1.94311
0.110556
1.81226
0.128505
1.66337
0.146712
1.49898
0.162325
1.3254
0.171614
1.15236
0.171196
0.990756
0.159748
0.849589
0.139299
0.733537
0.114191
0.64265
0.0890467
0.573829
0.067005
0.522725
0.0493237
0.485118
0.0358584
0.457494
0.0259047
0.437149
0.0186536
0.42208
0.0134044
0.410827
0.00961348
0.402333
0.00687858
0.395834
0.00490734
0.390777
0.00348851
0.38676
0.0024694
0.383494
0.00173944
0.380768
0.00121838
0.378432
0.000847919
0.376376
0.000585715
0.37452
0.000401029
0.37281
0.000271616
0.371203
0.00018142
0.369672
0.00011891
0.368195
7.58346e-05
0.366758
4.63302e-05
0.36535
2.62381e-05
0.363964
1.26378e-05
0.362594
3.43376e-06
0.361236
-2.73633e-06
0.359888
-6.81351e-06
0.358547
-9.5219e-06
0.357214
-1.12121e-05
0.355888
-1.23453e-05
0.354567
-1.30853e-05
0.353253
-1.3552e-05
0.351947
-1.38614e-05
0.350648
-1.40451e-05
0.349357
-1.41739e-05
0.348076
-1.42449e-05
0.346804
-1.43068e-05
0.345543
-1.43388e-05
0.344293
-1.43678e-05
0.343054
-1.43766e-05
0.341829
-1.43857e-05
0.340616
-1.43824e-05
0.339417
-1.44025e-05
0.338232
-1.43975e-05
0.337062
-1.4431e-05
0.335909
-1.44142e-05
0.334773
-1.44464e-05
0.333655
-1.44155e-05
0.332556
-1.44528e-05
0.331477
-1.44141e-05
0.330418
-1.44766e-05
0.32938
-1.44059e-05
0.328362
-1.45111e-05
0.327364
-1.43141e-05
0.326384
-1.46694e-05
0.325421
-1.42023e-05
0.324474
-1.49125e-05
0.323539
-1.39654e-05
0.322614
-1.51403e-05
0.321695
-1.36913e-05
0.32078
-1.5355e-05
0.319863
-1.34905e-05
0.318942
-1.54581e-05
0.318013
-1.34138e-05
0.317073
-1.53987e-05
0.316117
-1.35154e-05
0.315145
-1.53898e-05
0.314153
-1.33163e-05
0.31314
-1.58829e-05
0.312105
-1.27349e-05
0.31105
-1.59314e-05
0.309974
-1.28748e-05
0.308878
-1.43043e-05
0.307762
-9.17606e-06
0.306614
7.13091e-06
0.305368
9.50285e-05
0.303722
0.000485144
0.300719
0.00183723
0.306582
-0.0070303
-0.0104458
0.315856
3.64645
1.42978
3.37434
0.160298
4.12513
-1.28044
4.62695
-0.766577
4.49353
0.152302
4.1913
0.328581
4.60442
-0.700625
4.94817
-0.506374
4.80069
0.18618
4.63339
0.144149
5.1153
-0.773358
5.36105
-0.337526
5.20345
0.221012
4.69434
0.656946
4.83735
-0.332463
5.53992
-1.04865
5.75999
-0.257687
5.59826
0.251048
5.09157
0.687719
4.62208
0.560036
5.2845
-1.07423
5.9583
-0.932027
6.06603
-0.0719045
5.91515
0.246366
5.55276
0.498524
5.5209
-0.023629
5.90268
-0.58345
6.08933
-0.227632
6.10753
0.00654207
6.07827
0.0513414
6.04212
0.0490005
6.01122
0.0338594
5.98428
0.0235058
5.95705
0.0212279
5.92328
0.0290641
5.86836
0.0584574
5.74949
0.14746
5.45627
0.374804
5.31076
0.121162
5.68752
-0.607163
5.8717
-0.239611
5.88624
0.00266467
5.85757
0.0441252
5.82308
0.0431983
5.79418
0.0297783
5.77061
0.0191146
5.74983
0.0135268
5.73048
0.0107035
5.71186
0.00927875
5.69363
0.00859206
5.6756
0.00828841
5.6577
0.00817651
5.63993
0.00811568
5.6224
0.00790589
5.60518
0.00761634
5.58823
0.00740548
5.57149
0.00729925
5.55491
0.00728257
5.53846
0.00733305
5.52211
0.00743308
5.50585
0.00757051
5.48965
0.00773456
5.47352
0.00791526
5.45745
0.0081019
5.44144
0.00828372
5.4255
0.00845119
5.40964
0.00859603
5.39386
0.00871382
5.37818
0.00880401
5.3626
0.00887026
5.34712
0.00891903
5.33173
0.00895669
5.3164
0.00899636
5.3011
0.0090558
5.2858
0.00911924
5.27048
0.00922077
5.25489
0.00958843
5.23898
0.00999272
5.2225
0.0106789
5.20515
0.0117588
5.18646
0.0133976
5.16583
0.0158435
5.14235
0.0194919
5.11461
0.0250079
5.08006
0.0339616
5.03446
0.0485859
4.96891
0.07521
4.86427
0.127545
4.6806
0.232725
4.35511
0.416587
3.88297
0.585233
3.85002
-0.0825366
4.36262
-0.79857
4.80173
-0.568057
4.92237
-0.0856148
4.9042
0.078172
4.83171
0.134208
4.74455
0.141617
4.65134
0.141338
4.55343
0.142456
4.45192
0.143896
4.34875
0.143663
4.24524
0.142223
4.14126
0.141498
4.03495
0.144104
3.92275
0.152383
3.80039
0.167381
3.66398
0.188862
3.51058
0.215742
3.33843
0.246677
3.14728
0.280304
2.93802
0.315321
2.71249
0.349726
2.47467
0.380374
2.23067
0.402381
1.98983
0.40863
1.76387
0.393345
1.5626
0.357208
1.39215
0.305965
1.2539
0.248698
1.14538
0.193874
1.06201
0.146752
0.998731
0.109047
0.950928
0.0801665
0.914805
0.0585901
0.887404
0.0426727
0.86648
0.0309986
0.850354
0.0224603
0.837776
0.0162267
0.827817
0.0116834
0.819788
0.00837927
0.81318
0.00598307
0.807615
0.00425126
0.802815
0.00300465
0.798575
0.00211135
0.794745
0.00147439
0.791214
0.0010226
0.787904
0.000703939
0.784755
0.00048047
0.781725
0.000324695
0.778782
0.000216763
0.775904
0.000142453
0.773075
9.16048e-05
0.770283
5.70334e-05
0.76752
3.35985e-05
0.764778
1.79406e-05
0.762053
7.52281e-06
0.759344
4.67556e-07
0.756648
-3.93123e-06
0.753964
-6.92409e-06
0.751293
-8.88385e-06
0.748635
-1.01235e-05
0.745991
-1.09504e-05
0.743362
-1.14443e-05
0.74075
-1.1793e-05
0.738157
-1.19771e-05
0.735582
-1.21339e-05
0.733029
-1.22035e-05
0.730498
-1.22713e-05
0.727991
-1.22918e-05
0.725508
-1.23216e-05
0.723052
-1.23109e-05
0.720623
-1.2358e-05
0.718222
-1.2321e-05
0.715853
-1.23954e-05
0.713515
-1.23313e-05
0.711212
-1.24155e-05
0.708946
-1.23292e-05
0.706717
-1.24276e-05
0.704528
-1.23167e-05
0.702379
-1.24673e-05
0.700271
-1.22725e-05
0.698204
-1.25303e-05
0.696177
-1.19708e-05
0.694186
-1.29739e-05
0.69223
-1.15928e-05
0.690304
-1.36877e-05
0.688403
-1.0904e-05
0.686522
-1.43118e-05
0.684653
-1.02091e-05
0.682791
-1.4836e-05
0.680927
-9.79796e-06
0.679055
-1.50237e-05
0.677165
-9.62943e-06
0.675253
-1.4895e-05
0.673312
-9.81717e-06
0.671336
-1.50624e-05
0.669321
-9.13413e-06
0.667265
-1.66775e-05
0.665164
-7.41366e-06
0.663023
-1.6887e-05
0.660839
-7.83356e-06
0.658617
-1.2111e-05
0.656354
3.27868e-06
0.654025
5.36154e-05
0.651493
0.000326422
0.648092
0.00156459
0.64115
0.00644929
0.615349
0.0164337
0.0318602
0.570699
22.2895
0.355733
21.6914
0.49955
19.7712
0.383755
18.4939
0.257615
18.1589
0.236368
17.9674
0.2711
16.7544
0.265485
15.8101
0.193661
15.5731
0.181023
15.2652
0.212008
14.0662
0.187917
13.368
0.125559
13.2341
0.121528
13.5046
0.154849
12.7588
0.182904
11.3654
0.118362
10.8194
0.064663
10.7799
0.0680887
11.1445
0.102817
11.332
0.153948
9.91341
0.128058
8.71839
0.0504897
8.40606
0.0292718
8.40033
0.0421567
8.62381
0.0667619
8.30357
0.0891003
7.45817
0.0584604
6.99584
0.033568
6.77286
0.0297466
6.59316
0.0332424
6.41234
0.0339482
6.2195
0.0327875
6.02049
0.0305848
5.8242
0.027601
5.64111
0.0242565
5.49252
0.0211934
5.43534
0.0208247
5.59561
0.0327134
5.48464
0.0519754
4.66834
0.0328407
4.25057
0.00404551
4.07959
0.000794471
3.94716
0.00548168
3.81365
0.00750549
3.6682
0.00789518
3.51461
0.00729107
3.35838
0.00627016
3.20232
0.00521737
3.04781
0.00416208
2.89558
0.00313712
2.74596
0.00214668
2.59904
0.00126554
2.4556
-0.000343495
2.31643
-0.00288991
2.18038
-0.0043735
2.04693
-0.00524099
1.91591
-0.00583619
1.78728
-0.0063032
1.66105
-0.00669907
1.5372
-0.00703157
1.41573
-0.00729547
1.29657
-0.00748188
1.17967
-0.00758464
1.06495
-0.00760179
0.952332
-0.00753782
0.841736
-0.00740122
0.733076
-0.00720543
0.626283
-0.0069683
0.521302
-0.00671014
0.4181
-0.00645652
0.316678
-0.00624002
0.217068
-0.00609612
0.119333
-0.00605242
0.0236408
-0.00620521
-0.0699211
-0.00646451
-0.160961
-0.00683644
-0.249287
-0.00756035
-0.334727
-0.00828758
-0.416965
-0.00922341
-0.495478
-0.0103851
-0.56947
-0.011815
-0.637758
-0.0135799
-0.698598
-0.0157899
-0.749471
-0.018561
-0.78578
-0.0224445
-0.80159
-0.0266771
-0.786162
-0.0301547
-0.721145
-0.0274498
-0.56417
-0.015532
-0.239235
0.000753736
0.222885
0.0457011
-0.0060984
0.0655636
-0.82683
-0.0503111
-1.29429
-0.174575
-1.26952
-0.184399
-1.08945
-0.175129
-0.843377
-0.183891
-0.561327
-0.21117
-0.236147
-0.253053
0.141503
-0.302355
0.573489
-0.353692
1.05144
-0.398401
1.55794
-0.426934
2.07049
-0.432278
2.56731
-0.412606
3.0361
-0.375062
3.47922
-0.333254
3.91063
-0.298963
4.34783
-0.276814
4.80328
-0.263111
5.28709
-0.256787
5.80179
-0.251618
6.3349
-0.234631
6.86867
-0.20364
7.38692