/*--------------------------------*- C++ -*----------------------------------*\
| =========                 |                                                 |
| \\      /  F ield         | OpenFOAM: The Open Source CFD Toolbox           |
|  \\    /   O peration     | Version:  3.0.x                                 |
|   \\  /    A nd           | Web:      www.OpenFOAM.org                      |
|    \\/     M anipulation  |                                                 |
\*---------------------------------------------------------------------------*/
FoamFile
{
    version     2.0;
    format      ascii;
    class       volScalarField;
    location    "0.54";
    object      T;
}
// * * * * * * * * * * * * * * * * * * * * * * * * * * * * * * * * * * * * * //

dimensions      [0 0 0 1 0 0 0];

internalField   nonuniform List<scalar> 
6900
(
777.667
777.647
777.62
777.599
777.582
777.568
777.561
777.559
777.559
777.561
777.565
777.571
777.578
777.586
777.595
777.604
777.613
777.623
777.633
777.643
777.654
777.665
777.677
777.689
777.701
777.714
777.727
777.74
777.754
777.768
777.782
777.797
777.812
777.828
777.843
777.86
777.876
777.893
777.911
777.928
777.946
777.965
777.984
778.003
778.023
778.043
778.062
778.081
778.099
778.118
778.137
778.158
778.179
778.201
778.223
778.246
778.268
778.291
778.314
778.337
778.359
778.381
778.403
778.424
778.447
778.47
778.494
778.519
778.545
778.571
778.598
778.624
778.65
778.676
778.702
778.729
778.755
778.782
778.809
778.837
778.865
778.894
778.924
778.954
778.984
779.014
779.045
779.076
779.107
779.138
779.17
779.201
779.233
779.265
779.297
779.33
779.362
779.395
779.427
779.46
779.493
779.526
779.56
779.593
779.626
779.66
779.694
779.727
779.761
779.795
779.829
779.863
779.898
779.932
779.966
780.001
780.035
780.07
780.104
780.139
780.174
780.209
780.243
780.278
780.313
780.348
780.382
780.417
780.452
780.486
780.521
780.556
780.59
780.625
780.659
780.694
780.728
780.762
780.796
780.83
780.864
780.898
780.932
780.965
780.999
781.032
781.066
781.099
781.132
781.165
781.198
781.231
781.263
781.296
781.328
781.36
781.392
781.424
781.456
781.488
781.519
781.551
781.582
781.613
781.644
781.675
781.705
781.736
781.766
781.796
781.826
781.856
781.885
781.914
781.943
781.972
782.001
782.03
782.058
782.086
782.113
782.142
782.168
782.197
782.222
782.252
782.274
782.306
782.326
782.359
782.377
782.411
782.427
782.462
782.478
782.509
782.531
782.552
782.584
782.604
777.663
777.644
777.616
777.595
777.578
777.565
777.557
777.555
777.555
777.557
777.561
777.567
777.575
777.583
777.591
777.6
777.61
777.619
777.629
777.64
777.651
777.662
777.673
777.685
777.697
777.71
777.723
777.737
777.75
777.764
777.779
777.794
777.809
777.824
777.84
777.856
777.873
777.89
777.907
777.925
777.943
777.961
777.98
778
778.02
778.039
778.059
778.078
778.096
778.115
778.134
778.154
778.176
778.197
778.22
778.243
778.265
778.288
778.311
778.334
778.356
778.378
778.4
778.422
778.444
778.467
778.491
778.516
778.542
778.569
778.595
778.622
778.648
778.674
778.7
778.726
778.753
778.779
778.807
778.835
778.863
778.892
778.921
778.951
778.981
779.012
779.042
779.073
779.104
779.136
779.167
779.199
779.231
779.263
779.295
779.327
779.36
779.392
779.425
779.458
779.491
779.524
779.557
779.59
779.624
779.657
779.691
779.725
779.759
779.793
779.827
779.861
779.895
779.93
779.964
779.998
780.033
780.067
780.102
780.137
780.171
780.206
780.241
780.276
780.31
780.345
780.38
780.415
780.449
780.484
780.519
780.553
780.588
780.622
780.657
780.691
780.725
780.76
780.794
780.828
780.862
780.896
780.929
780.963
780.997
781.03
781.063
781.097
781.13
781.163
781.196
781.228
781.261
781.293
781.326
781.358
781.39
781.422
781.454
781.486
781.517
781.548
781.58
781.611
781.642
781.672
781.703
781.733
781.764
781.794
781.824
781.853
781.883
781.912
781.941
781.97
781.999
782.027
782.055
782.084
782.111
782.14
782.166
782.195
782.219
782.25
782.272
782.304
782.324
782.357
782.374
782.409
782.425
782.46
782.475
782.509
782.524
782.558
782.573
782.605
777.663
777.644
777.616
777.595
777.578
777.565
777.557
777.555
777.555
777.557
777.561
777.567
777.575
777.583
777.591
777.6
777.61
777.619
777.629
777.64
777.651
777.662
777.673
777.685
777.698
777.71
777.723
777.737
777.75
777.765
777.779
777.794
777.809
777.824
777.84
777.856
777.873
777.89
777.907
777.925
777.943
777.961
777.98
778
778.02
778.039
778.059
778.078
778.096
778.115
778.134
778.155
778.176
778.198
778.22
778.243
778.265
778.288
778.311
778.334
778.356
778.378
778.4
778.422
778.444
778.467
778.491
778.516
778.542
778.569
778.595
778.622
778.648
778.674
778.7
778.726
778.753
778.779
778.807
778.835
778.863
778.892
778.921
778.951
778.981
779.012
779.042
779.073
779.104
779.136
779.167
779.199
779.231
779.263
779.295
779.327
779.36
779.392
779.425
779.458
779.491
779.524
779.557
779.59
779.624
779.657
779.691
779.725
779.759
779.793
779.827
779.861
779.895
779.93
779.964
779.998
780.033
780.067
780.102
780.137
780.171
780.206
780.241
780.276
780.31
780.345
780.38
780.415
780.449
780.484
780.519
780.553
780.588
780.622
780.657
780.691
780.725
780.76
780.794
780.828
780.862
780.896
780.929
780.963
780.997
781.03
781.063
781.097
781.13
781.163
781.196
781.228
781.261
781.293
781.326
781.358
781.39
781.422
781.454
781.486
781.517
781.548
781.58
781.611
781.642
781.672
781.703
781.733
781.764
781.794
781.824
781.853
781.883
781.912
781.941
781.97
781.999
782.027
782.055
782.084
782.111
782.139
782.166
782.194
782.22
782.248
782.274
782.301
782.327
782.353
782.379
782.405
782.428
782.457
782.478
782.505
782.53
782.553
782.576
782.601
777.663
777.644
777.616
777.595
777.578
777.565
777.557
777.555
777.555
777.557
777.561
777.567
777.575
777.583
777.591
777.6
777.61
777.619
777.629
777.64
777.651
777.662
777.673
777.685
777.697
777.71
777.723
777.737
777.75
777.764
777.779
777.794
777.809
777.824
777.84
777.856
777.873
777.89
777.907
777.925
777.943
777.961
777.98
778
778.02
778.039
778.059
778.078
778.096
778.115
778.134
778.154
778.176
778.197
778.22
778.243
778.265
778.288
778.311
778.334
778.356
778.378
778.4
778.422
778.444
778.467
778.491
778.516
778.542
778.569
778.595
778.622
778.648
778.674
778.7
778.726
778.753
778.779
778.807
778.835
778.863
778.892
778.921
778.951
778.981
779.012
779.042
779.073
779.104
779.136
779.167
779.199
779.231
779.263
779.295
779.327
779.36
779.392
779.425
779.458
779.491
779.524
779.557
779.59
779.624
779.657
779.691
779.725
779.759
779.793
779.827
779.861
779.895
779.93
779.964
779.998
780.033
780.067
780.102
780.137
780.171
780.206
780.241
780.276
780.31
780.345
780.38
780.415
780.449
780.484
780.519
780.553
780.588
780.622
780.657
780.691
780.725
780.76
780.794
780.828
780.862
780.896
780.929
780.963
780.997
781.03
781.063
781.097
781.13
781.163
781.196
781.228
781.261
781.293
781.326
781.358
781.39
781.422
781.454
781.486
781.517
781.548
781.58
781.611
781.642
781.672
781.703
781.733
781.764
781.794
781.824
781.853
781.883
781.912
781.941
781.97
781.999
782.027
782.056
782.083
782.112
782.138
782.168
782.193
782.223
782.246
782.277
782.298
782.33
782.349
782.383
782.399
782.435
782.45
782.485
782.5
782.534
782.549
782.577
782.607
777.667
777.647
777.62
777.599
777.582
777.568
777.561
777.559
777.559
777.561
777.565
777.571
777.578
777.586
777.595
777.604
777.613
777.623
777.633
777.643
777.654
777.665
777.677
777.689
777.701
777.714
777.727
777.74
777.754
777.768
777.782
777.797
777.812
777.828
777.843
777.86
777.876
777.893
777.911
777.928
777.946
777.965
777.984
778.003
778.023
778.043
778.062
778.081
778.099
778.118
778.137
778.158
778.179
778.201
778.223
778.246
778.268
778.291
778.314
778.337
778.359
778.381
778.403
778.424
778.447
778.47
778.494
778.519
778.545
778.571
778.598
778.624
778.65
778.676
778.702
778.729
778.755
778.782
778.809
778.837
778.865
778.894
778.924
778.954
778.984
779.014
779.045
779.076
779.107
779.138
779.17
779.201
779.233
779.265
779.297
779.33
779.362
779.395
779.427
779.46
779.493
779.526
779.56
779.593
779.626
779.66
779.694
779.727
779.761
779.795
779.829
779.863
779.898
779.932
779.966
780.001
780.035
780.07
780.104
780.139
780.174
780.209
780.243
780.278
780.313
780.348
780.382
780.417
780.452
780.486
780.521
780.556
780.59
780.625
780.659
780.694
780.728
780.762
780.796
780.83
780.864
780.898
780.932
780.965
780.999
781.032
781.066
781.099
781.132
781.165
781.198
781.231
781.263
781.296
781.328
781.36
781.392
781.424
781.456
781.488
781.519
781.551
781.582
781.613
781.644
781.675
781.705
781.736
781.766
781.796
781.826
781.856
781.885
781.914
781.943
781.972
782.001
782.029
782.058
782.086
782.114
782.141
782.17
782.195
782.225
782.248
782.279
782.3
782.333
782.351
782.386
782.402
782.437
782.452
782.487
782.502
782.536
782.551
782.575
782.618
782.618
782.624
782.63
782.637
782.644
782.651
782.659
782.665
782.669
782.675
782.689
782.709
782.722
782.724
782.722
782.714
782.709
782.708
782.712
782.717
782.619
782.625
782.631
782.638
782.645
782.65
782.655
782.661
782.666
782.669
782.676
782.692
782.707
782.711
782.708
782.702
782.701
782.702
782.714
782.72
782.616
782.621
782.626
782.63
782.635
782.639
782.643
782.648
782.652
782.656
782.662
782.671
782.677
782.683
782.696
782.709
782.719
782.725
782.74
782.749
782.616
782.618
782.62
782.621
782.622
782.623
782.624
782.625
782.626
782.627
782.629
782.631
782.632
782.634
782.636
782.641
782.647
782.651
782.657
782.66
782.625
782.626
782.627
782.628
782.629
782.629
782.629
782.629
782.63
782.631
782.631
782.632
782.632
782.633
782.634
782.635
782.636
782.638
782.64
782.643
782.76
782.762
782.778
782.81
782.814
782.816
782.828
782.857
782.875
782.887
782.892
782.902
782.924
782.95
782.968
782.969
782.979
782.994
783.013
783.034
783.046
783.055
783.063
783.069
783.085
783.105
783.115
783.124
783.136
783.146
783.158
783.171
783.185
783.198
783.212
783.225
783.237
783.252
783.268
783.279
783.287
783.296
783.306
783.317
783.328
783.339
783.35
783.361
783.371
783.381
783.391
783.401
783.41
783.42
783.429
783.439
783.448
783.458
783.467
783.477
783.486
783.495
783.504
783.512
783.521
783.529
783.536
783.544
783.551
783.558
783.565
783.572
783.578
783.585
783.591
783.598
783.604
783.611
783.617
783.622
783.628
783.635
783.642
783.649
783.655
783.662
783.667
783.672
783.677
783.684
783.696
783.709
783.71
783.718
783.718
783.719
783.721
783.725
783.728
783.73
783.735
783.748
783.758
783.758
783.757
783.76
783.777
783.796
783.799
783.795
783.791
783.804
783.879
783.943
783.954
783.942
783.881
783.808
783.765
783.749
783.75
783.762
783.772
783.778
783.783
783.786
783.789
783.792
783.794
783.796
783.798
783.8
783.801
783.802
783.804
783.805
783.806
783.807
783.808
783.809
783.81
783.811
783.812
783.813
783.814
783.815
783.816
783.817
783.817
783.818
783.819
783.82
783.821
783.821
783.822
783.823
783.824
783.825
783.825
783.826
783.827
783.827
783.828
783.829
783.829
783.83
783.831
783.831
783.832
783.832
783.833
783.833
783.834
783.834
783.835
783.835
783.836
783.835
783.837
783.836
783.838
783.837
783.839
783.838
783.84
783.839
783.842
783.84
783.843
783.841
783.844
783.843
783.846
783.845
783.848
783.846
783.848
783.851
783.848
783.85
782.745
782.775
782.835
782.845
782.835
782.851
782.925
782.933
782.923
782.939
782.997
782.994
782.983
782.993
783.062
783.085
783.068
783.043
783.049
783.098
783.166
783.16
783.128
783.108
783.114
783.159
783.185
783.177
783.167
783.169
783.179
783.192
783.205
783.217
783.23
783.243
783.252
783.265
783.303
783.339
783.332
783.324
783.326
783.335
783.346
783.356
783.366
783.376
783.386
783.396
783.406
783.416
783.425
783.435
783.445
783.455
783.464
783.474
783.484
783.493
783.502
783.511
783.519
783.527
783.535
783.543
783.55
783.557
783.564
783.571
783.578
783.585
783.592
783.598
783.605
783.611
783.618
783.625
783.631
783.638
783.645
783.653
783.66
783.666
783.671
783.676
783.683
783.693
783.704
783.718
783.736
783.752
783.751
783.752
783.746
783.741
783.741
783.744
783.752
783.763
783.766
783.767
783.769
783.782
783.805
783.812
783.81
783.805
783.806
783.831
783.904
783.958
783.972
783.969
783.941
783.872
783.812
783.772
783.753
783.752
783.76
783.769
783.775
783.779
783.783
783.786
783.788
783.791
783.793
783.795
783.796
783.798
783.799
783.8
783.802
783.803
783.804
783.805
783.806
783.807
783.808
783.809
783.81
783.811
783.812
783.813
783.814
783.815
783.815
783.816
783.817
783.818
783.819
783.819
783.82
783.821
783.822
783.823
783.823
783.824
783.825
783.825
783.826
783.827
783.827
783.828
783.829
783.829
783.83
783.83
783.831
783.831
783.832
783.832
783.833
783.833
783.834
783.834
783.835
783.834
783.836
783.835
783.837
783.836
783.838
783.837
783.84
783.838
783.841
783.839
783.842
783.841
783.844
783.843
783.846
783.845
783.847
783.847
783.846
783.851
782.807
782.872
782.921
782.963
783.007
783.057
783.099
783.129
783.158
783.191
783.213
783.226
783.243
783.266
783.289
783.296
783.298
783.308
783.329
783.353
783.367
783.363
783.362
783.374
783.391
783.41
783.418
783.42
783.427
783.437
783.448
783.459
783.47
783.481
783.492
783.504
783.518
783.534
783.553
783.563
783.564
783.569
783.577
783.587
783.596
783.604
783.613
783.622
783.63
783.639
783.648
783.657
783.666
783.676
783.686
783.696
783.707
783.716
783.726
783.736
783.744
783.753
783.761
783.769
783.778
783.787
783.796
783.805
783.813
783.822
783.831
783.841
783.852
783.863
783.873
783.882
783.893
783.905
783.916
783.925
783.926
783.915
783.897
783.872
783.833
783.799
783.772
783.749
783.732
783.722
783.72
783.722
783.718
783.714
783.716
783.723
783.731
783.74
783.747
783.754
783.76
783.765
783.769
783.772
783.774
783.776
783.777
783.778
783.778
783.777
783.777
783.776
783.775
783.774
783.773
783.773
783.773
783.775
783.777
783.779
783.781
783.783
783.785
783.786
783.788
783.789
783.791
783.793
783.794
783.795
783.797
783.798
783.799
783.801
783.802
783.803
783.804
783.805
783.806
783.807
783.808
783.809
783.81
783.811
783.812
783.813
783.814
783.815
783.815
783.816
783.817
783.818
783.819
783.819
783.82
783.821
783.822
783.823
783.823
783.824
783.825
783.825
783.826
783.827
783.827
783.828
783.829
783.829
783.83
783.83
783.831
783.831
783.832
783.832
783.833
783.833
783.833
783.834
783.834
783.835
783.835
783.836
783.836
783.837
783.837
783.838
783.838
783.839
783.839
783.842
783.84
783.843
783.843
783.843
783.845
783.846
783.846
783.848
783.849
783.85
782.674
782.709
782.728
782.744
782.772
782.807
782.832
782.845
782.862
782.888
782.912
782.925
782.94
782.961
782.985
782.999
783.008
783.02
783.039
783.062
783.078
783.085
783.092
783.104
783.119
783.136
783.148
783.156
783.166
783.177
783.189
783.2
783.212
783.223
783.233
783.244
783.255
783.267
783.28
783.291
783.299
783.307
783.317
783.328
783.339
783.349
783.36
783.37
783.38
783.39
783.4
783.41
783.42
783.43
783.439
783.449
783.458
783.467
783.476
783.484
783.493
783.502
783.511
783.519
783.527
783.536
783.544
783.552
783.56
783.567
783.575
783.582
783.589
783.596
783.603
783.609
783.615
783.622
783.628
783.634
783.64
783.645
783.651
783.658
783.663
783.667
783.671
783.677
783.684
783.689
783.695
783.706
783.72
783.726
783.727
783.73
783.739
783.749
783.759
783.77
783.78
783.792
783.813
783.833
783.847
783.862
783.888
783.925
783.942
783.941
783.931
783.895
783.838
783.791
783.758
783.743
783.742
783.751
783.76
783.766
783.771
783.775
783.779
783.782
783.785
783.787
783.789
783.791
783.793
783.795
783.796
783.798
783.799
783.801
783.802
783.803
783.804
783.805
783.806
783.807
783.808
783.809
783.81
783.811
783.812
783.813
783.814
783.815
783.815
783.816
783.817
783.818
783.819
783.819
783.82
783.821
783.822
783.823
783.823
783.824
783.825
783.825
783.826
783.827
783.827
783.828
783.829
783.829
783.83
783.83
783.831
783.831
783.832
783.832
783.832
783.833
783.833
783.834
783.834
783.835
783.835
783.836
783.835
783.838
783.836
783.839
783.837
783.84
783.839
783.842
783.84
783.843
783.842
783.845
783.844
783.847
783.846
783.848
783.847
783.849
782.653
782.675
782.7
782.721
782.746
782.777
782.808
782.834
782.858
782.886
782.916
782.94
782.962
782.987
783.015
783.04
783.059
783.079
783.1
783.125
783.149
783.166
783.18
783.195
783.212
783.23
783.245
783.257
783.27
783.284
783.297
783.31
783.323
783.336
783.349
783.361
783.374
783.386
783.4
783.413
783.423
783.433
783.444
783.456
783.467
783.478
783.489
783.499
783.509
783.519
783.528
783.538
783.547
783.556
783.566
783.575
783.585
783.594
783.603
783.612
783.621
783.63
783.638
783.646
783.654
783.662
783.669
783.676
783.683
783.69
783.697
783.703
783.709
783.715
783.721
783.727
783.733
783.739
783.744
783.749
783.755
783.762
783.768
783.774
783.78
783.787
783.794
783.801
783.808
783.813
783.817
783.824
783.833
783.836
783.834
783.833
783.84
783.865
783.876
783.874
783.866
783.874
783.942
784.016
784.026
784.011
783.95
783.884
783.84
783.808
783.788
783.776
783.771
783.771
783.771
783.772
783.774
783.776
783.779
783.781
783.783
783.784
783.786
783.788
783.79
783.791
783.793
783.794
783.796
783.797
783.799
783.8
783.801
783.803
783.804
783.805
783.806
783.807
783.808
783.809
783.81
783.811
783.812
783.813
783.814
783.815
783.816
783.817
783.817
783.818
783.819
783.82
783.821
783.821
783.822
783.823
783.824
783.825
783.825
783.826
783.827
783.827
783.828
783.829
783.829
783.83
783.83
783.831
783.832
783.832
783.833
783.833
783.834
783.834
783.834
783.835
783.835
783.836
783.836
783.837
783.836
783.838
783.837
783.84
783.838
783.841
783.839
783.842
783.841
783.844
783.842
783.845
783.844
783.845
783.848
783.846
783.85
783.849
783.849
783.851
783.853
783.854
783.855
783.856
783.855
783.855
783.855
783.854
783.853
783.851
783.849
783.847
783.846
783.844
783.843
783.841
783.84
783.838
783.838
783.836
783.852
783.852
783.851
783.85
783.849
783.848
783.847
783.846
783.845
783.843
783.841
783.841
783.842
783.842
783.841
783.841
783.841
783.842
783.844
783.846
783.85
783.85
783.85
783.85
783.85
783.85
783.851
783.853
783.855
783.857
783.858
783.861
783.863
783.866
783.873
783.879
783.885
783.888
783.895
783.899
783.851
783.852
783.853
783.853
783.854
783.856
783.857
783.86
783.866
783.868
783.868
783.866
783.865
783.866
783.87
783.872
783.873
783.881
783.891
783.892
783.854
783.855
783.856
783.857
783.858
783.859
783.861
783.864
783.867
783.87
783.87
783.869
783.867
783.866
783.867
783.867
783.871
783.89
783.9
783.894
783.834
783.831
783.829
783.83
783.838
783.848
783.851
783.852
783.855
783.87
783.886
783.89
783.892
783.899
783.92
783.934
783.935
783.936
783.941
783.963
783.981
783.982
783.976
783.974
783.982
784.005
784.016
784.014
783.998
783.992
783.997
784.016
784.026
784.025
784.011
783.998
783.997
784
784.003
784.005
784.005
784.006
784.006
784.006
784.005
784.005
784.004
784.004
784.003
784.003
784.003
784.002
784.002
784.002
784.002
784.003
784.003
784.003
784.003
784.004
784.004
784.003
784.003
784.003
784.002
784.002
784.001
784.001
784.001
784.003
784.003
783.999
783.994
783.997
784.008
784.01
784
783.992
783.992
783.996
783.998
783.998
783.999
784.001
784.002
784.002
784.001
784.003
784.015
784.02
784.017
784.025
784.112
784.192
784.179
784.076
784.004
783.986
783.986
783.965
783.862
783.875
783.881
783.901
783.934
783.948
783.942
783.931
783.942
783.976
783.975
783.958
783.957
783.984
783.993
783.976
783.951
783.955
783.992
784.01
783.999
783.962
783.945
783.959
784.002
784.016
784.004
783.967
783.937
783.943
783.98
784.005
784.005
783.978
783.936
783.908
783.901
783.904
783.909
783.911
783.91
783.909
783.907
783.904
783.902
783.9
783.898
783.895
783.894
783.892
783.89
783.889
783.888
783.887
783.886
783.885
783.884
783.884
783.883
783.883
783.883
783.883
783.884
783.884
783.884
783.885
783.885
783.886
783.888
783.891
783.892
783.893
783.902
783.921
783.923
783.919
783.906
783.887
783.881
783.882
783.884
783.886
783.887
783.888
783.891
783.894
783.896
783.899
783.904
783.914
783.924
783.93
783.945
783.979
783.995
783.997
784.009
784.042
784.057
784.039
783.933
783.992
784.028
784.061
784.1
784.139
784.165
784.18
784.2
784.228
784.236
784.229
784.235
784.258
784.266
784.246
784.233
784.245
784.27
784.273
784.249
784.222
784.225
784.249
784.269
784.262
784.233
784.203
784.204
784.229
784.255
784.26
784.25
784.221
784.174
784.141
784.134
784.134
784.134
784.133
784.132
784.13
784.129
784.128
784.128
784.127
784.127
784.127
784.127
784.127
784.127
784.127
784.127
784.127
784.128
784.129
784.132
784.134
784.135
784.136
784.137
784.14
784.143
784.145
784.147
784.151
784.157
784.163
784.165
784.164
784.16
784.16
784.162
784.145
784.094
784.027
783.958
783.916
783.894
783.885
783.882
783.882
783.882
783.886
783.889
783.894
783.897
783.901
783.903
783.905
783.905
783.908
783.906
783.906
783.905
783.9
783.896
783.892
783.886
783.877
783.917
783.953
783.951
783.923
783.936
784.027
784.072
784.031
783.979
784.022
784.113
784.081
784.003
784.025
784.144
784.149
784.07
783.992
784.054
784.16
784.161
784.135
784.01
783.998
784.096
784.148
784.14
784.133
784.023
783.973
784.044
784.107
784.11
784.102
784.109
784.03
783.923
783.883
783.877
783.878
783.881
783.883
783.884
783.884
783.884
783.885
783.885
783.885
783.886
783.886
783.886
783.887
783.887
783.888
783.888
783.889
783.89
783.891
783.891
783.892
783.892
783.892
783.892
783.891
783.891
783.89
783.89
783.89
783.889
783.889
783.891
783.896
783.922
783.99
784.002
783.984
783.999
783.949
783.905
783.891
783.89
783.891
783.891
783.891
783.892
783.894
783.897
783.898
783.899
783.903
783.907
783.909
783.909
783.911
783.923
783.933
783.935
783.933
783.929
783.934
783.895
783.902
783.907
783.904
783.903
783.913
783.939
783.939
783.935
783.927
783.935
783.931
783.928
783.93
783.955
783.959
783.948
783.94
783.931
783.963
783.98
783.982
783.966
783.937
783.929
783.967
783.975
783.992
783.978
783.946
783.915
783.931
783.958
783.96
783.978
783.954
783.904
783.866
783.858
783.86
783.864
783.867
783.869
783.869
783.87
783.87
783.87
783.871
783.871
783.871
783.872
783.872
783.872
783.872
783.873
783.873
783.874
783.874
783.875
783.876
783.876
783.877
783.877
783.877
783.877
783.877
783.877
783.876
783.876
783.877
783.88
783.892
783.908
783.905
783.909
783.905
783.921
783.899
783.879
783.869
783.869
783.871
783.873
783.876
783.877
783.878
783.878
783.878
783.88
783.882
783.883
783.885
783.889
783.892
783.892
783.892
783.892
783.898
783.909
783.91
783.969
783.962
783.957
783.952
783.945
783.934
783.918
783.9
783.882
783.868
783.862
783.866
783.865
783.859
783.853
783.849
783.846
783.845
783.844
783.845
784.041
784.04
784.04
784.036
784.03
784.021
784.008
783.99
783.969
783.945
783.927
783.913
783.896
783.883
783.869
783.855
783.846
783.845
783.849
783.86
783.878
783.884
783.89
783.892
783.893
783.893
783.893
783.891
783.889
783.888
783.887
783.887
783.889
783.892
783.897
783.901
783.907
783.909
783.909
783.913
783.945
783.965
783.989
784.011
784.032
784.048
784.061
784.07
784.079
784.087
784.093
784.097
784.097
784.094
784.078
784.05
784.031
784.009
783.947
783.904
783.91
783.909
783.908
783.906
783.904
783.902
783.899
783.9
783.918
783.952
783.99
784.024
784.057
784.085
784.107
784.118
784.112
784.082
784.009
783.921
783.843
783.839
783.839
783.846
783.858
783.861
783.86
783.861
783.871
783.887
783.891
783.892
783.895
783.906
783.925
783.937
783.94
783.939
783.939
783.949
783.971
783.989
783.999
783.995
783.985
783.983
783.99
784.011
784.026
784.033
784.036
784.032
784.015
784.001
783.997
784
784.004
784.007
784.009
784.011
784.012
784.013
784.013
784.014
784.015
784.015
784.015
784.016
784.016
784.016
784.016
784.017
784.018
784.02
784.023
784.022
784.01
783.999
783.999
784.005
784.024
784.041
784.035
784.015
784.01
784.021
784.037
784.04
784.033
784.022
784.021
784.025
784.029
784.031
784.035
784.038
784.038
784.039
784.041
784.051
784.056
784.058
784.102
784.246
784.258
784.125
784.033
783.998
783.973
783.95
783.935
783.926
783.922
783.922
783.923
783.924
783.926
783.927
783.928
783.929
783.93
783.931
783.932
783.933
783.934
783.935
783.936
783.937
783.938
783.939
783.941
783.942
783.943
783.944
783.945
783.946
783.947
783.948
783.949
783.95
783.952
783.953
783.954
783.955
783.956
783.957
783.958
783.96
783.961
783.962
783.963
783.964
783.966
783.967
783.968
783.969
783.971
783.972
783.973
783.974
783.976
783.977
783.978
783.98
783.981
783.982
783.983
783.985
783.986
783.987
783.988
783.99
783.991
783.992
783.993
783.995
783.996
783.997
783.998
783.999
784
784.002
784.003
784.004
784.005
784.006
784.007
784.009
784.01
784.011
784.012
784.013
784.014
784.015
784.016
784.017
784.018
784.02
784.02
784.022
784.022
784.024
784.024
784.027
784.026
784.029
784.028
784.031
784.029
784.033
784.031
784.035
784.033
784.035
784.037
784.035
784.04
784.038
784.038
784.041
783.878
783.881
783.892
783.932
783.96
783.96
783.95
783.959
783.999
784.007
783.987
783.975
783.989
784.033
784.042
784.016
783.972
783.966
783.987
784.042
784.065
784.061
784.023
783.973
783.959
783.975
784.028
784.064
784.076
784.076
784.055
783.998
783.957
783.93
783.922
783.927
783.937
783.941
783.942
783.941
783.938
783.935
783.931
783.928
783.925
783.923
783.92
783.918
783.916
783.915
783.912
783.91
783.911
783.914
783.917
783.918
783.92
783.928
783.948
783.992
784.001
783.999
783.986
783.956
783.959
783.974
783.98
783.977
783.959
783.929
783.914
783.913
783.916
783.92
783.922
783.925
783.93
783.935
783.938
783.944
783.957
783.966
783.977
784.008
784.046
784.051
784.056
784.077
784.107
784.116
784.106
784.036
783.946
783.906
783.899
783.903
783.911
783.916
783.92
783.923
783.925
783.927
783.929
783.93
783.932
783.933
783.934
783.936
783.937
783.938
783.939
783.94
783.941
783.942
783.943
783.944
783.946
783.947
783.948
783.949
783.95
783.951
783.952
783.953
783.955
783.956
783.957
783.958
783.959
783.961
783.962
783.963
783.964
783.965
783.967
783.968
783.969
783.97
783.972
783.973
783.974
783.976
783.977
783.978
783.979
783.981
783.982
783.983
783.984
783.986
783.987
783.988
783.989
783.991
783.992
783.993
783.994
783.996
783.997
783.998
783.999
784
784.001
784.002
784.004
784.005
784.006
784.007
784.008
784.009
784.01
784.011
784.013
784.014
784.015
784.016
784.017
784.018
784.019
784.021
784.021
784.023
784.023
784.025
784.024
784.027
784.026
784.029
784.028
784.031
784.03
784.033
784.032
784.035
784.033
784.037
784.035
784.038
784.037
784.038
783.953
784.003
784.041
784.078
784.118
784.152
784.173
784.196
784.225
784.24
784.235
784.235
784.251
784.268
784.263
784.245
784.233
784.24
784.261
784.268
784.259
784.244
784.227
784.222
784.236
784.255
784.264
784.264
784.26
784.255
784.247
784.228
784.193
784.157
784.145
784.146
784.148
784.15
784.151
784.15
784.15
784.15
784.149
784.148
784.147
784.147
784.147
784.147
784.148
784.147
784.147
784.147
784.151
784.161
784.175
784.194
784.232
784.284
784.302
784.297
784.281
784.248
784.215
784.197
784.173
784.127
784.08
784.027
783.969
783.927
783.913
783.911
783.912
783.916
783.92
783.926
783.931
783.935
783.939
783.943
783.945
783.948
783.95
783.951
783.95
783.948
783.945
783.943
783.942
783.941
783.938
783.935
783.932
783.928
783.925
783.923
783.924
783.925
783.927
783.928
783.929
783.93
783.931
783.932
783.933
783.934
783.935
783.936
783.937
783.938
783.939
783.94
783.941
783.942
783.943
783.944
783.946
783.947
783.948
783.949
783.95
783.951
783.952
783.953
783.955
783.956
783.957
783.958
783.959
783.961
783.962
783.963
783.964
783.965
783.967
783.968
783.969
783.97
783.972
783.973
783.974
783.976
783.977
783.978
783.979
783.981
783.982
783.983
783.984
783.986
783.987
783.988
783.989
783.991
783.992
783.993
783.994
783.996
783.997
783.998
783.999
784
784.001
784.002
784.004
784.005
784.006
784.007
784.008
784.009
784.01
784.011
784.013
784.014
784.015
784.016
784.017
784.018
784.019
784.02
784.021
784.022
784.023
784.024
784.025
784.026
784.027
784.028
784.029
784.031
784.03
784.033
784.033
784.033
784.035
784.036
784.035
784.037
784.038
784.039
783.935
783.962
783.941
783.93
783.99
784.072
784.054
783.991
784.021
784.14
784.139
784.045
784.019
784.128
784.199
784.196
784.133
784.024
784.056
784.147
784.19
784.191
784.185
784.118
784.025
784.039
784.095
784.126
784.136
784.134
784.128
784.124
784.126
784.1
783.971
783.903
783.883
783.883
783.889
783.893
783.896
783.898
783.899
783.9
783.901
783.902
783.902
783.902
783.903
783.903
783.904
783.903
783.903
783.904
783.906
783.911
783.918
784.057
784.176
784.21
784.206
784.195
784.138
784.04
784.025
784.026
784.01
784
784.02
784.021
783.964
783.928
783.919
783.92
783.923
783.925
783.928
783.932
783.934
783.938
783.942
783.946
783.947
783.949
783.952
783.965
783.977
783.98
783.981
783.984
784.009
784.086
784.134
784.137
784.086
783.975
783.917
783.906
783.911
783.919
783.923
783.926
783.928
783.93
783.931
783.933
783.934
783.935
783.937
783.938
783.939
783.94
783.941
783.942
783.943
783.944
783.946
783.947
783.948
783.949
783.95
783.951
783.952
783.953
783.955
783.956
783.957
783.958
783.959
783.961
783.962
783.963
783.964
783.965
783.967
783.968
783.969
783.97
783.972
783.973
783.974
783.976
783.977
783.978
783.979
783.981
783.982
783.983
783.984
783.986
783.987
783.988
783.989
783.991
783.992
783.993
783.994
783.996
783.997
783.998
783.999
784
784.001
784.002
784.004
784.005
784.006
784.007
784.008
784.009
784.01
784.011
784.013
784.014
784.015
784.016
784.017
784.018
784.02
784.02
784.022
784.021
784.024
784.023
784.026
784.025
784.028
784.027
784.03
784.029
784.032
784.031
784.034
784.033
784.036
784.034
784.037
784.038
784.035
784.041
783.903
783.907
783.902
783.895
783.903
783.942
783.949
783.943
783.94
783.963
783.968
783.954
783.945
783.949
784.014
784.035
784.029
783.997
783.953
783.958
784.03
784.061
784.067
784.061
784.038
783.966
783.948
783.983
784.01
784.02
784.022
784.023
784.033
784.044
783.998
783.916
783.875
783.868
783.87
783.875
783.879
783.881
783.883
783.884
783.885
783.886
783.887
783.888
783.889
783.889
783.889
783.889
783.89
783.891
783.895
783.905
783.915
783.922
783.985
784.063
784.075
784.069
784.063
784.044
783.978
783.94
783.942
783.944
783.967
783.972
783.945
783.909
783.898
783.898
783.903
783.909
783.912
783.914
783.916
783.919
783.922
783.924
783.929
783.933
783.936
783.936
783.937
783.938
783.946
783.957
783.961
783.963
783.977
784.058
784.116
784.093