/*--------------------------------*- C++ -*----------------------------------*\
| =========                 |                                                 |
| \\      /  F ield         | OpenFOAM: The Open Source CFD Toolbox           |
|  \\    /   O peration     | Version:  3.0.x                                 |
|   \\  /    A nd           | Web:      www.OpenFOAM.org                      |
|    \\/     M anipulation  |                                                 |
\*---------------------------------------------------------------------------*/
FoamFile
{
    version     2.0;
    format      ascii;
    class       volScalarField;
    location    "0.43005";
    object      rho;
}
// * * * * * * * * * * * * * * * * * * * * * * * * * * * * * * * * * * * * * //

dimensions      [1 -3 0 0 0 0 0];

internalField   nonuniform List<scalar> 
13800
(
50.611
50.611
50.611
50.611
50.611
50.6111
50.6111
50.6111
50.6111
50.6111
50.6111
50.6111
50.6111
50.6111
50.6111
50.6111
50.6111
50.6111
50.6111
50.6111
50.6111
50.6111
50.6111
50.6112
50.6112
50.6112
50.6112
50.6112
50.6112
50.6112
50.6112
50.6112
50.6112
50.6112
50.6112
50.6112
50.6112
50.6112
50.6112
50.6112
50.6112
50.6112
50.6112
50.6112
50.6113
50.6113
50.6112
50.6112
50.6112
50.6111
50.6111
50.6111
50.6111
50.6111
50.6112
50.6113
50.6114
50.6115
50.6116
50.6117
50.6118
50.6118
50.6119
50.6119
50.6119
50.6119
50.6119
50.6119
50.6119
50.6118
50.6118
50.6118
50.6118
50.6118
50.6119
50.612
50.6121
50.6122
50.6122
50.6122
50.6123
50.6123
50.6123
50.6124
50.6125
50.6126
50.6127
50.6128
50.6129
50.613
50.6131
50.6132
50.6133
50.6133
50.6134
50.6134
50.6134
50.6134
50.6134
50.6134
50.6133
50.6133
50.6133
50.6134
50.6134
50.6134
50.6135
50.6136
50.6138
50.6139
50.614
50.614
50.6141
50.6142
50.6142
50.6142
50.6143
50.6143
50.6143
50.6143
50.6144
50.6144
50.6144
50.6144
50.6144
50.6145
50.6145
50.6145
50.6145
50.6145
50.6146
50.6146
50.6146
50.6146
50.6146
50.6146
50.6146
50.6147
50.6147
50.6147
50.6147
50.6147
50.6147
50.6148
50.6148
50.6148
50.6148
50.6148
50.6149
50.6149
50.6149
50.6149
50.6149
50.615
50.615
50.615
50.615
50.6151
50.6151
50.6151
50.6151
50.6152
50.6152
50.6152
50.6153
50.6153
50.6154
50.6154
50.6154
50.6155
50.6156
50.6156
50.6157
50.6158
50.6158
50.6159
50.616
50.6161
50.6163
50.6164
50.6165
50.6167
50.6169
50.617
50.6172
50.6175
50.6177
50.618
50.6182
50.6186
50.6189
50.6192
50.6196
50.6201
50.6205
50.621
50.6217
50.6224
50.6269
50.6185
50.6125
50.6125
50.6125
50.6125
50.6125
50.6125
50.6125
50.6125
50.6125
50.6125
50.6125
50.6125
50.6125
50.6125
50.6125
50.6125
50.6125
50.6125
50.6125
50.6125
50.6125
50.6125
50.6125
50.6125
50.6125
50.6125
50.6125
50.6125
50.6125
50.6125
50.6125
50.6125
50.6125
50.6125
50.6125
50.6125
50.6125
50.6125
50.6125
50.6125
50.6125
50.6125
50.6125
50.6125
50.6126
50.6125
50.6125
50.6125
50.6124
50.6124
50.6124
50.6124
50.6124
50.6124
50.6124
50.6125
50.6127
50.6128
50.6128
50.6129
50.613
50.613
50.6131
50.6131
50.6131
50.6131
50.6131
50.6131
50.613
50.613
50.613
50.613
50.613
50.613
50.613
50.6131
50.6132
50.6133
50.6133
50.6134
50.6134
50.6134
50.6135
50.6135
50.6136
50.6137
50.6138
50.6139
50.614
50.6141
50.6142
50.6143
50.6143
50.6144
50.6144
50.6145
50.6145
50.6145
50.6145
50.6144
50.6144
50.6144
50.6144
50.6144
50.6144
50.6144
50.6145
50.6146
50.6147
50.6148
50.6149
50.615
50.6151
50.6151
50.6152
50.6152
50.6152
50.6153
50.6153
50.6153
50.6153
50.6153
50.6153
50.6154
50.6154
50.6154
50.6154
50.6154
50.6154
50.6154
50.6155
50.6155
50.6155
50.6155
50.6155
50.6155
50.6156
50.6156
50.6156
50.6156
50.6156
50.6156
50.6157
50.6157
50.6157
50.6157
50.6157
50.6158
50.6158
50.6158
50.6158
50.6158
50.6159
50.6159
50.6159
50.6159
50.616
50.616
50.616
50.616
50.6161
50.6161
50.6161
50.6162
50.6162
50.6162
50.6163
50.6163
50.6164
50.6164
50.6165
50.6165
50.6166
50.6167
50.6168
50.6169
50.617
50.6171
50.6172
50.6173
50.6175
50.6176
50.6178
50.618
50.6182
50.6184
50.6186
50.6189
50.6192
50.6195
50.6198
50.6202
50.6206
50.621
50.6214
50.622
50.6226
50.6232
50.6279
50.6159
50.6125
50.6125
50.6125
50.6125
50.6125
50.6125
50.6125
50.6125
50.6125
50.6125
50.6125
50.6125
50.6125
50.6125
50.6125
50.6125
50.6125
50.6125
50.6125
50.6125
50.6125
50.6125
50.6125
50.6125
50.6125
50.6125
50.6125
50.6125
50.6125
50.6125
50.6125
50.6125
50.6125
50.6125
50.6125
50.6125
50.6125
50.6125
50.6125
50.6125
50.6125
50.6125
50.6125
50.6125
50.6126
50.6126
50.6125
50.6125
50.6124
50.6124
50.6124
50.6124
50.6124
50.6124
50.6124
50.6125
50.6127
50.6128
50.6128
50.6129
50.613
50.613
50.6131
50.6131
50.6131
50.6131
50.6131
50.6131
50.6131
50.613
50.613
50.613
50.613
50.613
50.613
50.6131
50.6132
50.6133
50.6133
50.6134
50.6134
50.6134
50.6135
50.6135
50.6136
50.6137
50.6138
50.6139
50.614
50.6141
50.6142
50.6143
50.6144
50.6144
50.6144
50.6145
50.6145
50.6145
50.6145
50.6144
50.6144
50.6144
50.6144
50.6144
50.6144
50.6144
50.6145
50.6146
50.6147
50.6149
50.6149
50.615
50.6151
50.6151
50.6152
50.6152
50.6152
50.6153
50.6153
50.6153
50.6153
50.6153
50.6154
50.6154
50.6154
50.6154
50.6154
50.6154
50.6154
50.6154
50.6155
50.6155
50.6155
50.6155
50.6155
50.6155
50.6156
50.6156
50.6156
50.6156
50.6156
50.6156
50.6157
50.6157
50.6157
50.6157
50.6157
50.6158
50.6158
50.6158
50.6158
50.6158
50.6159
50.6159
50.6159
50.6159
50.616
50.616
50.616
50.616
50.6161
50.6161
50.6161
50.6162
50.6162
50.6162
50.6163
50.6163
50.6164
50.6164
50.6165
50.6165
50.6166
50.6167
50.6168
50.6169
50.617
50.6171
50.6172
50.6173
50.6175
50.6176
50.6178
50.618
50.6182
50.6184
50.6186
50.6189
50.6192
50.6195
50.6198
50.6202
50.6206
50.621
50.6214
50.622
50.6226
50.6232
50.6278
50.6163
50.6125
50.6125
50.6125
50.6125
50.6125
50.6125
50.6125
50.6125
50.6125
50.6125
50.6125
50.6125
50.6125
50.6125
50.6125
50.6125
50.6125
50.6125
50.6125
50.6125
50.6125
50.6125
50.6125
50.6125
50.6125
50.6125
50.6125
50.6125
50.6125
50.6125
50.6125
50.6125
50.6125
50.6125
50.6125
50.6125
50.6125
50.6125
50.6125
50.6125
50.6125
50.6125
50.6125
50.6125
50.6125
50.6125
50.6125
50.6125
50.6124
50.6124
50.6124
50.6124
50.6124
50.6124
50.6124
50.6125
50.6126
50.6128
50.6128
50.6129
50.613
50.613
50.613
50.6131
50.6131
50.6131
50.6131
50.6131
50.613
50.613
50.613
50.613
50.613
50.613
50.613
50.6131
50.6132
50.6133
50.6133
50.6134
50.6134
50.6134
50.6135
50.6135
50.6136
50.6137
50.6138
50.6139
50.614
50.6141
50.6142
50.6143
50.6143
50.6144
50.6144
50.6145
50.6145
50.6145
50.6145
50.6144
50.6144
50.6144
50.6144
50.6144
50.6144
50.6144
50.6145
50.6146
50.6147
50.6148
50.6149
50.615
50.6151
50.6151
50.6152
50.6152
50.6152
50.6153
50.6153
50.6153
50.6153
50.6153
50.6154
50.6154
50.6154
50.6154
50.6154
50.6154
50.6154
50.6154
50.6155
50.6155
50.6155
50.6155
50.6155
50.6155
50.6156
50.6156
50.6156
50.6156
50.6156
50.6156
50.6157
50.6157
50.6157
50.6157
50.6157
50.6158
50.6158
50.6158
50.6158
50.6158
50.6159
50.6159
50.6159
50.6159
50.616
50.616
50.616
50.616
50.6161
50.6161
50.6161
50.6162
50.6162
50.6162
50.6163
50.6163
50.6164
50.6164
50.6165
50.6165
50.6166
50.6167
50.6168
50.6169
50.617
50.6171
50.6172
50.6173
50.6175
50.6176
50.6178
50.618
50.6182
50.6184
50.6186
50.6189
50.6192
50.6195
50.6198
50.6202
50.6206
50.621
50.6214
50.622
50.6226
50.6233
50.6272
50.6202
50.6125
50.6125
50.6125
50.6125
50.6125
50.6125
50.6125
50.6125
50.6125
50.6125
50.6125
50.6125
50.6125
50.6125
50.6125
50.6125
50.6125
50.6125
50.6125
50.6125
50.6125
50.6125
50.6125
50.6125
50.6125
50.6125
50.6125
50.6125
50.6125
50.6125
50.6125
50.6125
50.6125
50.6125
50.6125
50.6125
50.6125
50.6125
50.6125
50.6125
50.6125
50.6125
50.6125
50.6125
50.6125
50.6125
50.6125
50.6125
50.6124
50.6124
50.6124
50.6124
50.6124
50.6124
50.6124
50.6125
50.6126
50.6127
50.6128
50.6129
50.613
50.613
50.613
50.6131
50.6131
50.6131
50.6131
50.6131
50.613
50.613
50.613
50.613
50.613
50.613
50.613
50.6131
50.6132
50.6133
50.6133
50.6134
50.6134
50.6134
50.6135
50.6135
50.6136
50.6137
50.6138
50.6139
50.614
50.6141
50.6142
50.6143
50.6143
50.6144
50.6144
50.6145
50.6145
50.6145
50.6145
50.6144
50.6144
50.6144
50.6144
50.6144
50.6144
50.6144
50.6145
50.6146
50.6147
50.6148
50.6149
50.615
50.6151
50.6151
50.6152
50.6152
50.6152
50.6153
50.6153
50.6153
50.6153
50.6153
50.6154
50.6154
50.6154
50.6154
50.6154
50.6154
50.6154
50.6154
50.6155
50.6155
50.6155
50.6155
50.6155
50.6155
50.6156
50.6156
50.6156
50.6156
50.6156
50.6156
50.6157
50.6157
50.6157
50.6157
50.6157
50.6158
50.6158
50.6158
50.6158
50.6158
50.6159
50.6159
50.6159
50.6159
50.616
50.616
50.616
50.616
50.6161
50.6161
50.6161
50.6162
50.6162
50.6162
50.6163
50.6163
50.6164
50.6164
50.6165
50.6165
50.6166
50.6167
50.6168
50.6169
50.617
50.6171
50.6172
50.6173
50.6175
50.6176
50.6178
50.618
50.6182
50.6184
50.6186
50.6189
50.6192
50.6195
50.6198
50.6202
50.6206
50.621
50.6214
50.6219
50.6225
50.623
50.6253
50.6183
50.6125
50.6125
50.6125
50.6125
50.6125
50.6125
50.6125
50.6125
50.6125
50.6125
50.6125
50.6125
50.6125
50.6125
50.6125
50.6125
50.6125
50.6125
50.6125
50.6125
50.6125
50.6125
50.6125
50.6125
50.6125
50.6125
50.6125
50.6125
50.6125
50.6125
50.6125
50.6125
50.6125
50.6125
50.6125
50.6125
50.6125
50.6125
50.6125
50.6125
50.6125
50.6125
50.6125
50.6125
50.6125
50.6125
50.6125
50.6125
50.6124
50.6124
50.6124
50.6124
50.6124
50.6124
50.6124
50.6125
50.6126
50.6127
50.6128
50.6129
50.613
50.613
50.613
50.6131
50.6131
50.6131
50.6131
50.6131
50.613
50.613
50.613
50.613
50.613
50.613
50.613
50.6131
50.6132
50.6133
50.6133
50.6134
50.6134
50.6134
50.6135
50.6135
50.6136
50.6137
50.6138
50.6139
50.614
50.6141
50.6142
50.6143
50.6143
50.6144
50.6144
50.6145
50.6145
50.6145
50.6145
50.6144
50.6144
50.6144
50.6144
50.6144
50.6144
50.6144
50.6145
50.6146
50.6147
50.6148
50.6149
50.615
50.6151
50.6151
50.6152
50.6152
50.6152
50.6153
50.6153
50.6153
50.6153
50.6153
50.6154
50.6154
50.6154
50.6154
50.6154
50.6154
50.6154
50.6154
50.6155
50.6155
50.6155
50.6155
50.6155
50.6155
50.6156
50.6156
50.6156
50.6156
50.6156
50.6156
50.6157
50.6157
50.6157
50.6157
50.6157
50.6158
50.6158
50.6158
50.6158
50.6158
50.6159
50.6159
50.6159
50.6159
50.616
50.616
50.616
50.616
50.6161
50.6161
50.6161
50.6162
50.6162
50.6162
50.6163
50.6163
50.6164
50.6164
50.6165
50.6165
50.6166
50.6167
50.6168
50.6169
50.617
50.6171
50.6172
50.6173
50.6175
50.6176
50.6178
50.618
50.6182
50.6184
50.6186
50.6189
50.6192
50.6195
50.6198
50.6202
50.6206
50.621
50.6214
50.6219
50.6224
50.6228
50.6228
50.6216
50.6125
50.6125
50.6125
50.6125
50.6125
50.6125
50.6125
50.6125
50.6125
50.6125
50.6125
50.6125
50.6125
50.6125
50.6125
50.6125
50.6125
50.6125
50.6125
50.6125
50.6125
50.6125
50.6125
50.6125
50.6125
50.6125
50.6125
50.6125
50.6125
50.6125
50.6125
50.6125
50.6125
50.6125
50.6125
50.6125
50.6125
50.6125
50.6125
50.6125
50.6125
50.6125
50.6125
50.6125
50.6125
50.6125
50.6125
50.6125
50.6124
50.6124
50.6124
50.6124
50.6124
50.6124
50.6124
50.6125
50.6126
50.6128
50.6128
50.6129
50.613
50.613
50.613
50.6131
50.6131
50.6131
50.6131
50.6131
50.613
50.613
50.613
50.613
50.613
50.613
50.613
50.6131
50.6132
50.6133
50.6133
50.6134
50.6134
50.6134
50.6135
50.6135
50.6136
50.6137
50.6138
50.6139
50.614
50.6141
50.6142
50.6143
50.6143
50.6144
50.6144
50.6145
50.6145
50.6145
50.6145
50.6144
50.6144
50.6144
50.6144
50.6144
50.6144
50.6144
50.6145
50.6146
50.6147
50.6148
50.6149
50.615
50.6151
50.6151
50.6152
50.6152
50.6152
50.6153
50.6153
50.6153
50.6153
50.6153
50.6154
50.6154
50.6154
50.6154
50.6154
50.6154
50.6154
50.6154
50.6155
50.6155
50.6155
50.6155
50.6155
50.6155
50.6156
50.6156
50.6156
50.6156
50.6156
50.6156
50.6157
50.6157
50.6157
50.6157
50.6157
50.6158
50.6158
50.6158
50.6158
50.6158
50.6159
50.6159
50.6159
50.6159
50.616
50.616
50.616
50.616
50.6161
50.6161
50.6161
50.6162
50.6162
50.6162
50.6163
50.6163
50.6164
50.6164
50.6165
50.6165
50.6166
50.6167
50.6168
50.6169
50.617
50.6171
50.6172
50.6173
50.6175
50.6176
50.6178
50.618
50.6182
50.6184
50.6186
50.6189
50.6192
50.6195
50.6198
50.6202
50.6206
50.621
50.6214
50.6219
50.6223
50.6229
50.6198
50.6322
50.6125
50.6125
50.6125
50.6125
50.6125
50.6125
50.6125
50.6125
50.6125
50.6125
50.6125
50.6125
50.6125
50.6125
50.6125
50.6125
50.6125
50.6125
50.6125
50.6125
50.6125
50.6125
50.6125
50.6125
50.6125
50.6125
50.6125
50.6125
50.6125
50.6125
50.6125
50.6125
50.6125
50.6125
50.6125
50.6125
50.6125
50.6125
50.6125
50.6125
50.6125
50.6125
50.6125
50.6125
50.6126
50.6126
50.6125
50.6125
50.6124
50.6124
50.6124
50.6124
50.6124
50.6124
50.6124
50.6125
50.6127
50.6128
50.6128
50.6129
50.613
50.613
50.6131
50.6131
50.6131
50.6131
50.6131
50.6131
50.6131
50.613
50.613
50.613
50.613
50.613
50.613
50.6131
50.6132
50.6133
50.6133
50.6134
50.6134
50.6134
50.6135
50.6135
50.6136
50.6137
50.6138
50.6139
50.614
50.6141
50.6142
50.6143
50.6144
50.6144
50.6144
50.6145
50.6145
50.6145
50.6145
50.6144
50.6144
50.6144
50.6144
50.6144
50.6144
50.6144
50.6145
50.6146
50.6147
50.6149
50.6149
50.615
50.6151
50.6151
50.6152
50.6152
50.6152
50.6153
50.6153
50.6153
50.6153
50.6153
50.6154
50.6154
50.6154
50.6154
50.6154
50.6154
50.6154
50.6154
50.6155
50.6155
50.6155
50.6155
50.6155
50.6155
50.6156
50.6156
50.6156
50.6156
50.6156
50.6156
50.6157
50.6157
50.6157
50.6157
50.6157
50.6158
50.6158
50.6158
50.6158
50.6158
50.6159
50.6159
50.6159
50.6159
50.616
50.616
50.616
50.616
50.6161
50.6161
50.6161
50.6162
50.6162
50.6162
50.6163
50.6163
50.6164
50.6164
50.6165
50.6165
50.6166
50.6167
50.6168
50.6169
50.617
50.6171
50.6172
50.6173
50.6175
50.6176
50.6178
50.618
50.6182
50.6184
50.6186
50.6189
50.6192
50.6195
50.6198
50.6202
50.6206
50.621
50.6214
50.6219
50.6223
50.6233
50.6167
50.6613
50.6125
50.6125
50.6125
50.6125
50.6125
50.6125
50.6125
50.6125
50.6125
50.6125
50.6125
50.6125
50.6125
50.6125
50.6125
50.6125
50.6125
50.6125
50.6125
50.6125
50.6125
50.6125
50.6125
50.6125
50.6125
50.6125
50.6125
50.6125
50.6125
50.6125
50.6125
50.6125
50.6125
50.6125
50.6125
50.6125
50.6125
50.6125
50.6125
50.6125
50.6125
50.6125
50.6125
50.6125
50.6126
50.6125
50.6125
50.6125
50.6124
50.6124
50.6124
50.6124
50.6124
50.6124
50.6124
50.6125
50.6127
50.6128
50.6128
50.6129
50.613
50.613
50.6131
50.6131
50.6131
50.6131
50.6131
50.6131
50.613
50.613
50.613
50.613
50.613
50.613
50.613
50.6131
50.6132
50.6133
50.6133
50.6134
50.6134
50.6134
50.6135
50.6135
50.6136
50.6137
50.6138
50.6139
50.614
50.6141
50.6142
50.6143
50.6143
50.6144
50.6144
50.6145
50.6145
50.6145
50.6145
50.6144
50.6144
50.6144
50.6144
50.6144
50.6144
50.6144
50.6145
50.6146
50.6147
50.6148
50.6149
50.615
50.6151
50.6151
50.6152
50.6152
50.6152
50.6153
50.6153
50.6153
50.6153
50.6153
50.6153
50.6154
50.6154
50.6154
50.6154
50.6154
50.6154
50.6154
50.6155
50.6155
50.6155
50.6155
50.6155
50.6155
50.6156
50.6156
50.6156
50.6156
50.6156
50.6156
50.6157
50.6157
50.6157
50.6157
50.6157
50.6158
50.6158
50.6158
50.6158
50.6158
50.6159
50.6159
50.6159
50.6159
50.616
50.616
50.616
50.616
50.6161
50.6161
50.6161
50.6162
50.6162
50.6162
50.6163
50.6163
50.6164
50.6164
50.6165
50.6165
50.6166
50.6167
50.6168
50.6169
50.617
50.6171
50.6172
50.6173
50.6175
50.6176
50.6178
50.618
50.6182
50.6184
50.6186
50.6189
50.6192
50.6195
50.6198
50.6202
50.6206
50.621
50.6214
50.6219
50.6223
50.6235
50.6149
50.6767
50.611
50.611
50.611
50.611
50.611
50.6111
50.6111
50.6111
50.6111
50.6111
50.6111
50.6111
50.6111
50.6111
50.6111
50.6111
50.6111
50.6111
50.6111
50.6111
50.6111
50.6111
50.6111
50.6112
50.6112
50.6112
50.6112
50.6112
50.6112
50.6112
50.6112
50.6112
50.6112
50.6112
50.6112
50.6112
50.6112
50.6112
50.6112
50.6112
50.6112
50.6112
50.6112
50.6112
50.6113
50.6113
50.6112
50.6112
50.6112
50.6111
50.6111
50.6111
50.6111
50.6111
50.6112
50.6113
50.6114
50.6115
50.6116
50.6117
50.6118
50.6118
50.6119
50.6119
50.6119
50.6119
50.6119
50.6119
50.6119
50.6118
50.6118
50.6118
50.6118
50.6118
50.6119
50.612
50.6121
50.6122
50.6122
50.6122
50.6123
50.6123
50.6123
50.6124
50.6125
50.6126
50.6127
50.6128
50.6129
50.613
50.6131
50.6132
50.6133
50.6133
50.6134
50.6134
50.6134
50.6134
50.6134
50.6134
50.6133
50.6133
50.6133
50.6134
50.6134
50.6134
50.6135
50.6136
50.6138
50.6139
50.614
50.614
50.6141
50.6142
50.6142
50.6142
50.6143
50.6143
50.6143
50.6143
50.6144
50.6144
50.6144
50.6144
50.6144
50.6145
50.6145
50.6145
50.6145
50.6145
50.6146
50.6146
50.6146
50.6146
50.6146
50.6146
50.6146
50.6147
50.6147
50.6147
50.6147
50.6147
50.6147
50.6148
50.6148
50.6148
50.6148
50.6148
50.6149
50.6149
50.6149
50.6149
50.6149
50.615
50.615
50.615
50.615
50.6151
50.6151
50.6151
50.6151
50.6152
50.6152
50.6152
50.6153
50.6153
50.6154
50.6154
50.6154
50.6155
50.6156
50.6156
50.6157
50.6158
50.6158
50.6159
50.616
50.6161
50.6163
50.6164
50.6165
50.6167
50.6169
50.617
50.6172
50.6175
50.6177
50.618
50.6182
50.6186
50.6189
50.6192
50.6196
50.6201
50.6205
50.621
50.6213
50.6227
50.6125
50.6898
50.7138
50.7532
50.7663
50.7682
50.7679
50.7677
50.7672
50.7662
50.7648
50.7631
50.7614
50.7595
50.7573
50.7548
50.7517
50.7477
50.7424
50.7351
50.725
50.7093
50.7087
50.7434
50.7572
50.7597
50.7597
50.7598
50.7596
50.7589
50.7576
50.7563
50.7547
50.7531
50.751
50.7487
50.7456
50.7417
50.7362
50.729
50.7186
50.7028
50.7033
50.7383
50.7539
50.7573
50.7575
50.7576
50.7574
50.7565
50.7551
50.7537
50.752
50.7502
50.7481
50.7457
50.7426
50.7387
50.733
50.7253
50.7142
50.6971
50.6851
50.7049
50.7112
50.7108
50.7097
50.7089
50.708
50.7066
50.7049
50.7031
50.7012
50.6992
50.6968
50.6939
50.6904
50.686
50.6811
50.6738
50.664
50.6502
50.6541
50.6666
50.676
50.6827
50.6876
50.6906
50.692
50.6927
50.6926
50.6921
50.691
50.6892
50.687
50.684
50.6802
50.6753
50.6688
50.6614
50.6528
50.6425
50.6014
50.5919
50.5817
50.5711
50.5613
50.5531
50.547
50.5421
50.5379
50.5346
50.5319
50.5301
50.5284
50.5273
50.526
50.525
50.5246
50.5255
50.5266
50.5307
50.5431
50.5219
50.5147
50.5156
50.5172
50.5182
50.5187
50.5196
50.5201
50.5207
50.5209
50.5211
50.5209
50.521
50.5211
50.5221
50.5235
50.5269
50.533
50.544
50.4739
50.417
50.3739
50.345
50.3252
50.31
50.2981
50.2896
50.2839
50.2806
50.279
50.2792
50.2813
50.2857
50.2939
50.3042
50.3199
50.3378
50.3638
50.3954
50.4592
50.3974
50.359
50.3373
50.3227
50.3118
50.303
50.2973
50.2938
50.2929
50.2932
50.2953
50.2987
50.3044
50.3129
50.3243
50.3392
50.3571
50.3809
50.4109
50.4405
50.3542
50.306
50.2778
50.259
50.243
50.2299
50.2202
50.2147
50.2096
50.2078
50.2069
50.2093
50.213
50.2211
50.2325
50.2479
50.268
50.2942
50.3299
50.6408
50.6018
50.5916
50.5893
50.5891
50.5897
50.5905
50.5915
50.5925
50.5936
50.5947
50.5958
50.5971
50.5983
50.5996
50.601
50.6024
50.6038
50.6053
50.6069
50.6086
50.6103
50.612
50.6138
50.6157
50.6176
50.6196
50.6216
50.6237
50.6259
50.6282
50.6306
50.633
50.6355
50.6381
50.6407
50.6435
50.6463
50.6491
50.652
50.6551
50.6581
50.6613
50.6646
50.6679
50.6713
50.6748
50.6784
50.6821
50.6858
50.6896
50.6935
50.6975
50.7016
50.7058
50.71
50.7144
50.7189
50.7235
50.7282
50.733
50.7378
50.7428
50.7478
50.7529
50.7581
50.7634
50.7689
50.7744
50.78
50.7858
50.7917
50.7976
50.8037
50.8099
50.8162
50.8225
50.829
50.8356
50.8423
50.8491
50.856
50.8631
50.8703
50.8775
50.8849
50.8924
50.9
50.9077
50.9155
50.9234
50.9315
50.9396
50.9479
50.9563
50.9649
50.9735
50.9823
50.9912
51.0003
51.0094
51.0187
51.0281
51.0376
51.0472
51.057
51.0669
51.077
51.0872
51.0975
51.1079
51.1184
51.1291
51.1399
51.1508
51.1619
51.1731
51.1844
51.1959
51.2075
51.2193
51.2312
51.2433
51.2554
51.2677
51.2802
51.2928
51.3055
51.3184
51.3314
51.3446
51.3579
51.3714
51.3851
51.3989
51.4128
51.4269
51.4411
51.4555
51.4699
51.4846
51.4995
51.5147
51.5302
51.5459
51.5617
51.5777
51.5937
51.6097
51.6258
51.6419
51.6584
51.6755
51.6932
51.7106
51.7256
51.7337
51.7261
51.7113
51.6949
51.6799
51.6683
51.6615
51.6604
51.6652
51.676
51.6922
51.7127
51.7361
51.7684
51.8213
51.8783
51.9301
51.9766
52.0182
52.0548
52.0867
52.1143
52.139
52.1627
52.1861
52.2084
52.2285
52.2494
52.269
52.2899
52.3096
52.3308
52.3506
52.3723
52.3922
52.4142
52.4342
52.4567
52.4767
52.4996
52.5196
52.5424
52.5567
52.6079
50.6409
50.6043
50.5944
50.5924
50.5922
50.5929
50.5938
50.5948
50.5958
50.5969
50.598
50.5992
50.6004
50.6016
50.6029
50.6043
50.6057
50.6072
50.6087
50.6103
50.6119
50.6136
50.6154
50.6172
50.619
50.621
50.623
50.625
50.6271
50.6293
50.6316
50.634
50.6364
50.6389
50.6415
50.6441
50.6469
50.6497
50.6525
50.6555
50.6585
50.6616
50.6647
50.668
50.6713
50.6747
50.6782
50.6818
50.6855
50.6892
50.6931
50.697
50.701
50.7051
50.7092
50.7135
50.7179
50.7224
50.7269
50.7316
50.7364
50.7413
50.7462
50.7513
50.7564
50.7617
50.767
50.7724
50.7779
50.7835
50.7893
50.7951
50.8011
50.8072
50.8134
50.8196
50.826
50.8325
50.8391
50.8458
50.8526
50.8596
50.8666
50.8737
50.881
50.8884
50.8959
50.9035
50.9113
50.9191
50.927
50.9351
50.9432
50.9515
50.9599
50.9684
50.9771
50.9859
50.9948
51.0038
51.013
51.0222
51.0316
51.0412
51.0508
51.0606
51.0705
51.0805
51.0907
51.101
51.1115
51.122
51.1327
51.1435
51.1545
51.1655
51.1767
51.1881
51.1995
51.2111
51.2229
51.2348
51.2468
51.259
51.2713
51.2838
51.2964
51.3091
51.322
51.335
51.3481
51.3614
51.3749
51.3885
51.4022
51.4161
51.4302
51.4444
51.4587
51.4732
51.4879
51.5028
51.5178
51.533
51.5484
51.564
51.5796
51.5953
51.6111
51.627
51.6431
51.6596
51.677
51.6952
51.714
51.7332
51.7527
51.7719
51.7907
51.8094
51.8286
51.848
51.866
51.8804
51.8919
51.9019
51.9118
51.9224
51.9344
51.9481
51.9637
51.9812
52.0007
52.022
52.0447
52.0686
52.0932
52.1168
52.1403
52.1635
52.1856
52.2073
52.2277
52.249
52.269
52.2902
52.3101
52.3315
52.3514
52.3731
52.3931
52.4152
52.4351
52.4577
52.4777
52.5006
52.5206
52.5433
52.5583
52.6032
50.6408
50.6054
50.5949
50.5923
50.5919
50.5923
50.5932
50.5941
50.5951
50.5962
50.5973
50.5985
50.5997
50.6009
50.6022
50.6036
50.605
50.6065
50.608
50.6096
50.6112
50.6129
50.6147
50.6165
50.6184
50.6203
50.6223
50.6243
50.6264
50.6286
50.6309
50.6333
50.6357
50.6382
50.6408
50.6434
50.6462
50.649
50.6518
50.6548
50.6578
50.6609
50.664
50.6673
50.6706
50.674
50.6775
50.6811
50.6848
50.6886
50.6924
50.6963
50.7003
50.7044
50.7086
50.7128
50.7172
50.7217
50.7262
50.7309
50.7357
50.7406
50.7455
50.7506
50.7557
50.761
50.7663
50.7717
50.7772
50.7829
50.7886
50.7945
50.8004
50.8065
50.8127
50.819
50.8253
50.8318
50.8384
50.8451
50.8519
50.8589
50.8659
50.8731
50.8803
50.8877
50.8952
50.9029
50.9106
50.9184
50.9264
50.9344
50.9426
50.9508
50.9592
50.9677
50.9764
50.9852
50.9941
51.0031
51.0123
51.0216
51.031
51.0405
51.0502
51.0599
51.0698
51.0799
51.09
51.1003
51.1108
51.1214
51.1321
51.1429
51.1538
51.1649
51.1761
51.1874
51.1989
51.2105
51.2223
51.2342
51.2462
51.2584
51.2707
51.2832
51.2958
51.3085
51.3214
51.3344
51.3475
51.3608
51.3742
51.3878
51.4016
51.4155
51.4295
51.4437
51.458
51.4725
51.4871
51.502
51.517
51.5322
51.5476
51.5632
51.5789
51.5946
51.6103
51.6261
51.6421
51.6586
51.6758
51.694
51.7133
51.7335
51.7542
51.7746
51.7949
51.8147
51.8337
51.8531
51.8726
51.8907
51.9069
51.9212
51.9345
51.9473
51.9605
51.9745
51.9894
52.0053
52.0224
52.0406
52.0599
52.08
52.1008
52.122
52.1433
52.1648
52.1857
52.2071
52.2274
52.2487
52.2687
52.2899
52.3099
52.3313
52.3512
52.373
52.3929
52.4151
52.4351
52.4576
52.4777
52.5005
52.5206
52.5433
52.5591
52.5956
50.6113
50.5869
50.581
50.5816
50.5831
50.5844
50.5856
50.5867
50.5879
50.589
50.5901
50.5913
50.5925
50.5937
50.5951
50.5964
50.5978
50.5993
50.6008
50.6024
50.604
50.6057
50.6075
50.6093
50.6112
50.6131
50.6151
50.6171
50.6192
50.6214
50.6237
50.6261
50.6285
50.631
50.6336
50.6362
50.6389
50.6417
50.6446
50.6476
50.6506
50.6537
50.6568
50.6601
50.6634
50.6668
50.6703
50.6739
50.6776
50.6813
50.6852
50.6891
50.6931
50.6972
50.7013
50.7056
50.71
50.7145
50.719
50.7237
50.7285
50.7334
50.7383
50.7434
50.7485
50.7537
50.7591
50.7645
50.77
50.7756
50.7814
50.7872
50.7932
50.7993
50.8054
50.8117
50.8181
50.8246
50.8312
50.8379
50.8447
50.8517
50.8587
50.8659
50.8732
50.8805
50.888
50.8956
50.9033
50.9112
50.9191
50.9271
50.9353
50.9436
50.952
50.9605
50.9692
50.978
50.9869
50.9959
51.0051
51.0143
51.0237
51.0333
51.0429
51.0527
51.0626
51.0727
51.0828
51.0931
51.1035
51.1141
51.1248
51.1355
51.1465
51.1576
51.1688
51.1801
51.1916
51.2032
51.215
51.2269
51.239
51.2511
51.2635
51.2759
51.2885
51.3012
51.3141
51.3272
51.3404
51.3538
51.3673
51.3809
51.3947
51.4086
51.4226
51.4369
51.4514
51.4661
51.481
51.4961
51.5113
51.5266
51.5421
51.5574
51.573
51.5886
51.6045
51.6208
51.6377
51.6552
51.6732
51.6916
51.7102
51.7286
51.7468
51.7649
51.7832
51.8014
51.8195
51.8371
51.8542
51.871
51.8875
51.904
51.9207
51.9378
51.9551
51.9728
51.9908
52.0093
52.0281
52.0473
52.0669
52.0867
52.1067
52.1267
52.1468
52.1671
52.187
52.2076
52.2275
52.2483
52.2683
52.2891
52.3095
52.3303
52.3511
52.372
52.3928
52.4144
52.4348
52.4573
52.4775
52.5001
52.5205
52.5432
52.5608
52.5836
50.618
50.6087
50.6036
50.5989
50.5962
50.5954
50.5955
50.5962
50.597
50.598
50.599
50.6002
50.6013
50.6026
50.6039
50.6053
50.6067
50.6081
50.6096
50.6112
50.6129
50.6146
50.6163
50.6181
50.62
50.6219
50.624
50.626
50.6282
50.6304
50.6326
50.635
50.6374
50.6398
50.6424
50.645
50.6477
50.6505
50.6534
50.6564
50.6594
50.6625
50.6657
50.6689
50.6723
50.6757
50.6792
50.6828
50.6864
50.6902
50.694
50.6979
50.702
50.7061
50.7103
50.7145
50.7189
50.7234
50.7279
50.7326
50.7373
50.7422
50.7471
50.7522
50.7573
50.7626
50.7679
50.7733
50.7789
50.7845
50.7903
50.7961
50.8021
50.8081
50.8143
50.8205
50.8269
50.8334
50.84
50.8467
50.8535
50.8605
50.8675
50.8747
50.8819
50.8893
50.8968
50.9044
50.9121
50.92
50.9279
50.936
50.9442
50.9525
50.9609
50.9694
50.9781
50.9869
50.9958
51.0048
51.0139
51.0232
51.0326
51.0421
51.0517
51.0615
51.0714
51.0814
51.0916
51.1019
51.1123
51.1228
51.1335
51.1444
51.1553
51.1664
51.1776
51.1889
51.2004
51.212
51.2238
51.2357
51.2477
51.2598
51.2721
51.2846
51.2972
51.3099
51.3227
51.3357
51.3488
51.3621
51.3755
51.3891
51.4028
51.4166
51.4306
51.4448
51.459
51.4734
51.4879
51.5026
51.5174
51.5325
51.5477
51.5631
51.5786
51.5943
51.6101
51.6261
51.6421
51.6582
51.6746
51.6913
51.7083
51.7255
51.743
51.7606
51.7783
51.7961
51.8139
51.8317
51.8495
51.8672
51.8849
51.9027
51.9205
51.9386
51.9567
51.9751
51.9936
52.0123
52.0312
52.0502
52.0694
52.0888
52.1082
52.1278
52.1475
52.1673
52.1873
52.2072
52.2277
52.2476
52.2683
52.2885
52.3093
52.33
52.3507
52.3719
52.3925
52.4141
52.435
52.4566
52.478
52.4993
52.5215
52.5423
52.5643
52.5836
50.5389
50.5498
50.5566
50.5622
50.5662
50.5687
50.5704
50.5717
50.5729
50.5741
50.5752
50.5764
50.5776
50.5788
50.5801
50.5815
50.5829
50.5844
50.5859
50.5875
50.5891
50.5908
50.5925
50.5944
50.5963
50.5982
50.6002
50.6022
50.6043
50.6065
50.6088
50.6111
50.6135
50.616
50.6186
50.6212
50.624
50.6268
50.6297
50.6326
50.6357
50.6388
50.6419
50.6452
50.6485
50.6519
50.6554
50.659
50.6627
50.6664
50.6703
50.6742
50.6781
50.6822
50.6864
50.6907
50.6951
50.6996
50.7042
50.7088
50.7136
50.7185
50.7234
50.7285
50.7336
50.7388
50.7441
50.7496
50.7551
50.7608
50.7666
50.7724
50.7784
50.7845
50.7907
50.797
50.8033
50.8098
50.8165
50.8232
50.83
50.837
50.844
50.8512
50.8585
50.8658
50.8733
50.8809
50.8886
50.8964
50.9043
50.9124
50.9205
50.9289
50.9373
50.9459
50.9545
50.9633
50.9722
50.9813
50.9904
50.9997
51.0091
51.0187
51.0284
51.0382
51.0481
51.0582
51.0684
51.0787
51.0892
51.0997
51.1105
51.1214
51.1324
51.1436
51.1549
51.1664
51.178
51.1898
51.2017
51.2138
51.2261
51.2385
51.2511
51.2638
51.2767
51.2896
51.3027
51.316
51.3294
51.3431
51.3569
51.371
51.3853
51.3997
51.4144
51.4291
51.444
51.4588
51.4738
51.4887
51.5037
51.5189
51.5343
51.55
51.5662
51.5828
51.5999
51.6174
51.6352
51.6532
51.6713
51.6895
51.7077
51.7259
51.7439
51.7619
51.7799
51.798
51.816
51.8341
51.852
51.8698
51.8875
51.9051
51.9226
51.9402
51.958
51.9759
51.994
52.0124
52.031
52.0497
52.0688
52.0879
52.1073
52.1267
52.1466
52.1662
52.1864
52.2062
52.2268
52.2467
52.2676
52.2876
52.3089
52.329
52.3506
52.3709
52.3928
52.4131
52.4354
52.4557
52.4784
52.4987
52.5217
52.5423
52.5662
52.5867
50.5809
50.6035
50.6074
50.6063
50.6056
50.6058
50.6063
50.607
50.6079
50.6089
50.61
50.6111
50.6123
50.6136
50.6149
50.6162
50.6176
50.6191
50.6206
50.6222
50.6238
50.6255
50.6273
50.6291
50.631
50.6329
50.6349
50.637
50.6391
50.6413
50.6436
50.646
50.6484
50.6509
50.6534
50.6561
50.6588
50.6615
50.6644
50.6673
50.6703
50.6734
50.6766
50.6799
50.6832
50.6866
50.6901
50.6937
50.6974
50.7011
50.705
50.7089
50.7129
50.717
50.7212
50.7255
50.7299
50.7344
50.7389
50.7436
50.7483
50.7532
50.7581
50.7632
50.7683
50.7735
50.7788
50.7842
50.7898
50.7954
50.8012
50.807
50.813
50.819
50.8252
50.8315
50.8379
50.8443
50.8509
50.8576
50.8644
50.8713
50.8783
50.8854
50.8927
50.9001
50.9076
50.9152
50.9229
50.9307
50.9387
50.9467
50.9549
50.9632
50.9716
50.9801
50.9888
50.9975
51.0064
51.0155
51.0246
51.0339
51.0433
51.0529
51.0625
51.0723
51.0822
51.0923
51.1024
51.1127
51.1231
51.1336
51.1443
51.1551
51.1661
51.1772
51.1884
51.1998
51.2113
51.2229
51.2347
51.2466
51.2586
51.2708
51.2831
51.2956
51.3082
51.3209
51.3338
51.3468
51.36
51.3734
51.3869
51.4005
51.4143
51.4281
51.4422
51.4563
51.4706
51.4851
51.4996
51.5142
51.5291
51.5442
51.5594
51.5746
51.59
51.6054
51.621
51.6369
51.653
51.6691
51.6853
51.7015
51.7177
51.734
51.7504
51.7667
51.7834
51.8007
51.8185
51.8365
51.8549
51.8738
51.893
51.9123
51.9311
51.9493
51.967
51.9844
52.0016
52.0188
52.0364
52.0542
52.0723
52.0907
52.1096
52.1285
52.148
52.1673
52.1872
52.2068
52.2272
52.247
52.2679
52.2879
52.309
52.3292
52.3507
52.3709
52.3928
52.4131
52.4354
52.4557
52.4784
52.4987
52.5219
52.5426
52.5674
52.59
50.5047
50.5508
50.5634
50.568
50.5698
50.5709
50.5718
50.5727
50.5737
50.5748
50.5759
50.577
50.5782
50.5794
50.5807
50.5821
50.5835
50.585
50.5865
50.5881
50.5897
50.5914
50.5932
50.595
50.5969
50.5988
50.6008
50.6029
50.605
50.6072
50.6094
50.6118
50.6141
50.6166
50.6192
50.6218
50.6246
50.6274
50.6303
50.6333
50.6363
50.6394
50.6426
50.6458
50.6492
50.6526
50.6561
50.6597
50.6634
50.6672
50.671
50.6749
50.6789
50.683
50.6871
50.6914
50.6957
50.7002
50.7048
50.7095
50.7143
50.7192
50.7241
50.7292
50.7343
50.7396
50.7449
50.7503
50.7559
50.7616
50.7674
50.7733
50.7793
50.7855
50.7917
50.798
50.8044
50.811
50.8176
50.8244
50.8313
50.8384
50.8455
50.8528
50.8602
50.8677
50.8752
50.8829
50.8907