/*--------------------------------*- C++ -*----------------------------------*\
| =========                 |                                                 |
| \\      /  F ield         | OpenFOAM: The Open Source CFD Toolbox           |
|  \\    /   O peration     | Version:  3.0.x                                 |
|   \\  /    A nd           | Web:      www.OpenFOAM.org                      |
|    \\/     M anipulation  |                                                 |
\*---------------------------------------------------------------------------*/
FoamFile
{
    version     2.0;
    format      ascii;
    class       volScalarField;
    location    "0.43005";
    object      T;
}
// * * * * * * * * * * * * * * * * * * * * * * * * * * * * * * * * * * * * * //

dimensions      [0 0 0 1 0 0 0];

internalField   nonuniform List<scalar> 
13800
(
773.501
773.5
773.5
773.5
773.5
773.5
773.5
773.5
773.5
773.5
773.5
773.5
773.5
773.5
773.5
773.5
773.5
773.5
773.5
773.5
773.499
773.499
773.499
773.499
773.499
773.499
773.499
773.499
773.499
773.499
773.499
773.499
773.499
773.499
773.499
773.499
773.499
773.499
773.498
773.498
773.498
773.498
773.498
773.498
773.498
773.498
773.499
773.499
773.5
773.5
773.501
773.501
773.501
773.501
773.5
773.498
773.496
773.495
773.494
773.493
773.492
773.491
773.491
773.491
773.49
773.49
773.49
773.491
773.492
773.492
773.493
773.493
773.493
773.493
773.492
773.491
773.49
773.489
773.489
773.488
773.488
773.488
773.488
773.487
773.486
773.484
773.483
773.482
773.48
773.479
773.478
773.477
773.476
773.476
773.476
773.475
773.475
773.476
773.476
773.477
773.478
773.478
773.479
773.479
773.479
773.478
773.477
773.475
773.474
773.472
773.471
773.47
773.47
773.469
773.469
773.468
773.468
773.468
773.468
773.468
773.468
773.468
773.468
773.467
773.467
773.467
773.467
773.467
773.467
773.467
773.467
773.467
773.467
773.467
773.468
773.468
773.468
773.468
773.468
773.468
773.468
773.468
773.468
773.468
773.468
773.468
773.468
773.468
773.469
773.469
773.469
773.469
773.469
773.469
773.469
773.469
773.469
773.469
773.469
773.469
773.469
773.47
773.47
773.47
773.47
773.47
773.47
773.47
773.47
773.471
773.471
773.471
773.471
773.471
773.472
773.472
773.472
773.472
773.473
773.473
773.474
773.474
773.475
773.475
773.476
773.477
773.477
773.478
773.479
773.48
773.481
773.482
773.483
773.485
773.486
773.488
773.49
773.505
773.516
773.86
773.478
773.478
773.478
773.478
773.478
773.478
773.478
773.478
773.478
773.478
773.478
773.478
773.478
773.478
773.478
773.478
773.478
773.478
773.478
773.478
773.478
773.478
773.478
773.478
773.478
773.478
773.478
773.478
773.478
773.478
773.478
773.478
773.478
773.478
773.478
773.478
773.478
773.478
773.478
773.478
773.478
773.478
773.478
773.478
773.478
773.479
773.479
773.48
773.48
773.481
773.481
773.482
773.482
773.482
773.481
773.48
773.478
773.476
773.475
773.474
773.473
773.473
773.472
773.472
773.472
773.472
773.472
773.472
773.473
773.474
773.475
773.475
773.475
773.475
773.475
773.474
773.473
773.472
773.471
773.471
773.471
773.471
773.471
773.47
773.469
773.468
773.467
773.465
773.464
773.463
773.462
773.461
773.46
773.46
773.459
773.459
773.459
773.459
773.46
773.461
773.462
773.462
773.463
773.463
773.463
773.463
773.462
773.46
773.459
773.458
773.456
773.455
773.455
773.454
773.454
773.453
773.453
773.453
773.453
773.453
773.453
773.453
773.453
773.453
773.453
773.453
773.453
773.453
773.453
773.453
773.454
773.454
773.454
773.454
773.454
773.454
773.454
773.454
773.454
773.454
773.454
773.454
773.454
773.454
773.454
773.454
773.454
773.454
773.454
773.455
773.455
773.455
773.455
773.455
773.455
773.455
773.455
773.455
773.455
773.455
773.455
773.455
773.456
773.456
773.456
773.456
773.456
773.456
773.456
773.456
773.457
773.457
773.457
773.457
773.458
773.458
773.458
773.458
773.459
773.459
773.46
773.46
773.461
773.461
773.462
773.462
773.463
773.464
773.465
773.466
773.467
773.468
773.469
773.47
773.472
773.473
773.476
773.492
773.5
773.899
773.478
773.478
773.478
773.478
773.478
773.478
773.478
773.478
773.478
773.478
773.478
773.478
773.478
773.478
773.478
773.478
773.478
773.478
773.478
773.478
773.478
773.478
773.478
773.478
773.478
773.478
773.478
773.478
773.478
773.478
773.478
773.478
773.478
773.478
773.478
773.478
773.478
773.478
773.478
773.478
773.478
773.478
773.478
773.478
773.478
773.479
773.479
773.479
773.48
773.481
773.481
773.482
773.482
773.482
773.481
773.479
773.478
773.476
773.475
773.474
773.473
773.473
773.472
773.472
773.472
773.472
773.472
773.472
773.473
773.474
773.475
773.475
773.475
773.475
773.475
773.474
773.473
773.472
773.471
773.471
773.471
773.471
773.471
773.47
773.469
773.468
773.467
773.465
773.464
773.463
773.462
773.461
773.46
773.46
773.459
773.459
773.459
773.459
773.46
773.461
773.462
773.462
773.463
773.463
773.463
773.463
773.462
773.46
773.459
773.457
773.456
773.455
773.455
773.454
773.454
773.453
773.453
773.453
773.453
773.453
773.453
773.453
773.453
773.453
773.453
773.453
773.453
773.453
773.453
773.453
773.453
773.454
773.454
773.454
773.454
773.454
773.454
773.454
773.454
773.454
773.454
773.454
773.454
773.454
773.454
773.454
773.454
773.454
773.454
773.455
773.455
773.455
773.455
773.455
773.455
773.455
773.455
773.455
773.455
773.455
773.455
773.455
773.456
773.456
773.456
773.456
773.456
773.456
773.456
773.456
773.457
773.457
773.457
773.457
773.457
773.458
773.458
773.458
773.459
773.459
773.46
773.46
773.461
773.461
773.462
773.462
773.463
773.464
773.465
773.466
773.467
773.468
773.469
773.47
773.472
773.473
773.476
773.492
773.5
773.886
773.479
773.478
773.478
773.478
773.478
773.478
773.478
773.478
773.478
773.478
773.478
773.478
773.478
773.478
773.478
773.478
773.478
773.478
773.478
773.478
773.478
773.478
773.478
773.478
773.478
773.478
773.478
773.478
773.478
773.478
773.478
773.478
773.478
773.478
773.478
773.478
773.479
773.479
773.479
773.479
773.479
773.479
773.479
773.479
773.479
773.479
773.479
773.48
773.48
773.481
773.482
773.482
773.482
773.482
773.481
773.48
773.478
773.476
773.475
773.474
773.473
773.473
773.472
773.472
773.472
773.472
773.472
773.473
773.473
773.474
773.475
773.475
773.475
773.475
773.475
773.474
773.473
773.472
773.471
773.471
773.471
773.471
773.471
773.47
773.469
773.468
773.467
773.465
773.464
773.463
773.462
773.461
773.46
773.46
773.459
773.459
773.459
773.459
773.46
773.461
773.462
773.462
773.463
773.463
773.463
773.463
773.462
773.46
773.459
773.457
773.456
773.455
773.455
773.454
773.454
773.453
773.453
773.453
773.453
773.453
773.453
773.453
773.453
773.453
773.453
773.453
773.453
773.453
773.453
773.453
773.453
773.454
773.454
773.454
773.454
773.454
773.454
773.454
773.454
773.454
773.454
773.454
773.454
773.454
773.454
773.454
773.454
773.454
773.454
773.455
773.455
773.455
773.455
773.455
773.455
773.455
773.455
773.455
773.455
773.455
773.455
773.455
773.456
773.456
773.456
773.456
773.456
773.456
773.456
773.456
773.457
773.457
773.457
773.457
773.457
773.458
773.458
773.458
773.459
773.459
773.46
773.46
773.461
773.461
773.462
773.462
773.463
773.464
773.465
773.466
773.467
773.468
773.469
773.47
773.472
773.473
773.476
773.489
773.498
773.789
773.479
773.479
773.479
773.479
773.479
773.478
773.478
773.478
773.478
773.478
773.478
773.478
773.478
773.478
773.478
773.479
773.479
773.479
773.479
773.479
773.479
773.479
773.479
773.479
773.479
773.479
773.479
773.479
773.479
773.479
773.479
773.479
773.479
773.479
773.479
773.479
773.479
773.479
773.479
773.479
773.479
773.479
773.479
773.479
773.479
773.479
773.479
773.48
773.481
773.481
773.482
773.482
773.482
773.482
773.481
773.48
773.478
773.476
773.475
773.474
773.473
773.473
773.472
773.472
773.472
773.472
773.472
773.473
773.474
773.474
773.475
773.475
773.475
773.475
773.475
773.474
773.473
773.472
773.471
773.471
773.471
773.471
773.471
773.47
773.469
773.468
773.467
773.465
773.464
773.463
773.462
773.461
773.46
773.46
773.459
773.459
773.459
773.459
773.46
773.461
773.462
773.462
773.463
773.463
773.463
773.463
773.462
773.46
773.459
773.458
773.456
773.455
773.455
773.454
773.454
773.453
773.453
773.453
773.453
773.453
773.453
773.453
773.453
773.453
773.453
773.453
773.453
773.453
773.453
773.453
773.453
773.454
773.454
773.454
773.454
773.454
773.454
773.454
773.454
773.454
773.454
773.454
773.454
773.454
773.454
773.454
773.454
773.454
773.454
773.455
773.455
773.455
773.455
773.455
773.455
773.455
773.455
773.455
773.455
773.455
773.455
773.455
773.456
773.456
773.456
773.456
773.456
773.456
773.456
773.456
773.457
773.457
773.457
773.457
773.457
773.458
773.458
773.458
773.459
773.459
773.46
773.46
773.461
773.461
773.462
773.462
773.463
773.464
773.465
773.466
773.467
773.468
773.469
773.47
773.472
773.474
773.475
773.484
773.484
773.672
773.479
773.479
773.479
773.479
773.479
773.478
773.478
773.478
773.478
773.478
773.478
773.478
773.478
773.478
773.478
773.479
773.479
773.479
773.479
773.479
773.479
773.479
773.479
773.479
773.479
773.479
773.479
773.479
773.479
773.479
773.479
773.479
773.479
773.479
773.479
773.479
773.479
773.479
773.479
773.479
773.479
773.479
773.479
773.479
773.479
773.479
773.479
773.48
773.481
773.481
773.482
773.482
773.482
773.482
773.481
773.48
773.478
773.476
773.475
773.474
773.473
773.473
773.472
773.472
773.472
773.472
773.472
773.473
773.474
773.474
773.475
773.475
773.475
773.475
773.475
773.474
773.473
773.472
773.471
773.471
773.471
773.471
773.471
773.47
773.469
773.468
773.467
773.465
773.464
773.463
773.462
773.461
773.46
773.46
773.459
773.459
773.459
773.459
773.46
773.461
773.462
773.462
773.463
773.463
773.463
773.463
773.462
773.46
773.459
773.458
773.456
773.455
773.455
773.454
773.454
773.453
773.453
773.453
773.453
773.453
773.453
773.453
773.453
773.453
773.453
773.453
773.453
773.453
773.453
773.453
773.453
773.454
773.454
773.454
773.454
773.454
773.454
773.454
773.454
773.454
773.454
773.454
773.454
773.454
773.454
773.454
773.454
773.454
773.454
773.455
773.455
773.455
773.455
773.455
773.455
773.455
773.455
773.455
773.455
773.455
773.455
773.455
773.456
773.456
773.456
773.456
773.456
773.456
773.456
773.456
773.457
773.457
773.457
773.457
773.457
773.458
773.458
773.458
773.459
773.459
773.46
773.46
773.461
773.461
773.462
773.462
773.463
773.464
773.465
773.466
773.467
773.468
773.469
773.47
773.472
773.473
773.475
773.474
773.468
773.423
773.479
773.478
773.478
773.478
773.478
773.478
773.478
773.478
773.478
773.478
773.478
773.478
773.478
773.478
773.478
773.478
773.478
773.478
773.478
773.478
773.478
773.478
773.478
773.478
773.478
773.478
773.478
773.478
773.478
773.478
773.478
773.478
773.478
773.478
773.478
773.478
773.479
773.479
773.479
773.479
773.479
773.479
773.479
773.479
773.479
773.479
773.479
773.48
773.48
773.481
773.482
773.482
773.482
773.482
773.481
773.48
773.478
773.476
773.475
773.474
773.473
773.473
773.472
773.472
773.472
773.472
773.472
773.473
773.473
773.474
773.475
773.475
773.475
773.475
773.475
773.474
773.473
773.472
773.471
773.471
773.471
773.471
773.471
773.47
773.469
773.468
773.467
773.465
773.464
773.463
773.462
773.461
773.46
773.46
773.459
773.459
773.459
773.459
773.46
773.461
773.462
773.462
773.463
773.463
773.463
773.463
773.462
773.46
773.459
773.457
773.456
773.455
773.455
773.454
773.454
773.453
773.453
773.453
773.453
773.453
773.453
773.453
773.453
773.453
773.453
773.453
773.453
773.453
773.453
773.453
773.453
773.454
773.454
773.454
773.454
773.454
773.454
773.454
773.454
773.454
773.454
773.454
773.454
773.454
773.454
773.454
773.454
773.454
773.454
773.455
773.455
773.455
773.455
773.455
773.455
773.455
773.455
773.455
773.455
773.455
773.455
773.455
773.456
773.456
773.456
773.456
773.456
773.456
773.456
773.456
773.457
773.457
773.457
773.457
773.457
773.458
773.458
773.458
773.459
773.459
773.46
773.46
773.461
773.461
773.462
773.462
773.463
773.464
773.465
773.466
773.467
773.468
773.469
773.47
773.472
773.473
773.473
773.461
773.457
773.083
773.478
773.478
773.478
773.478
773.478
773.478
773.478
773.478
773.478
773.478
773.478
773.478
773.478
773.478
773.478
773.478
773.478
773.478
773.478
773.478
773.478
773.478
773.478
773.478
773.478
773.478
773.478
773.478
773.478
773.478
773.478
773.478
773.478
773.478
773.478
773.478
773.478
773.478
773.478
773.478
773.478
773.478
773.478
773.478
773.478
773.479
773.479
773.479
773.48
773.481
773.481
773.482
773.482
773.482
773.481
773.479
773.478
773.476
773.475
773.474
773.473
773.473
773.472
773.472
773.472
773.472
773.472
773.472
773.473
773.474
773.475
773.475
773.475
773.475
773.475
773.474
773.473
773.472
773.471
773.471
773.471
773.471
773.471
773.47
773.469
773.468
773.467
773.465
773.464
773.463
773.462
773.461
773.46
773.46
773.459
773.459
773.459
773.459
773.46
773.461
773.462
773.462
773.463
773.463
773.463
773.463
773.462
773.46
773.459
773.457
773.456
773.455
773.455
773.454
773.454
773.453
773.453
773.453
773.453
773.453
773.453
773.453
773.453
773.453
773.453
773.453
773.453
773.453
773.453
773.453
773.453
773.454
773.454
773.454
773.454
773.454
773.454
773.454
773.454
773.454
773.454
773.454
773.454
773.454
773.454
773.454
773.454
773.454
773.454
773.455
773.455
773.455
773.455
773.455
773.455
773.455
773.455
773.455
773.455
773.455
773.455
773.455
773.456
773.456
773.456
773.456
773.456
773.456
773.456
773.456
773.457
773.457
773.457
773.457
773.457
773.458
773.458
773.458
773.459
773.459
773.46
773.46
773.461
773.461
773.462
773.462
773.463
773.464
773.465
773.466
773.467
773.468
773.469
773.47
773.472
773.473
773.473
773.452
773.487
772.602
773.478
773.478
773.478
773.478
773.478
773.478
773.478
773.478
773.478
773.478
773.478
773.478
773.478
773.478
773.478
773.478
773.478
773.478
773.478
773.478
773.478
773.478
773.478
773.478
773.478
773.478
773.478
773.478
773.478
773.478
773.478
773.478
773.478
773.478
773.478
773.478
773.478
773.478
773.478
773.478
773.478
773.478
773.478
773.478
773.478
773.479
773.479
773.48
773.48
773.481
773.481
773.482
773.482
773.482
773.481
773.48
773.478
773.476
773.475
773.474
773.473
773.473
773.472
773.472
773.472
773.472
773.472
773.472
773.473
773.474
773.475
773.475
773.475
773.475
773.475
773.474
773.473
773.472
773.471
773.471
773.471
773.471
773.471
773.47
773.469
773.468
773.467
773.465
773.464
773.463
773.462
773.461
773.46
773.46
773.459
773.459
773.459
773.459
773.46
773.461
773.462
773.462
773.463
773.463
773.463
773.463
773.462
773.46
773.459
773.458
773.456
773.455
773.455
773.454
773.454
773.453
773.453
773.453
773.453
773.453
773.453
773.453
773.453
773.453
773.453
773.453
773.453
773.453
773.453
773.453
773.454
773.454
773.454
773.454
773.454
773.454
773.454
773.454
773.454
773.454
773.454
773.454
773.454
773.454
773.454
773.454
773.454
773.454
773.454
773.455
773.455
773.455
773.455
773.455
773.455
773.455
773.455
773.455
773.455
773.455
773.455
773.455
773.456
773.456
773.456
773.456
773.456
773.456
773.456
773.456
773.457
773.457
773.457
773.457
773.458
773.458
773.458
773.458
773.459
773.459
773.46
773.46
773.461
773.461
773.462
773.462
773.463
773.464
773.465
773.466
773.467
773.468
773.469
773.47
773.472
773.473
773.473
773.449
773.511
772.362
773.501
773.5
773.5
773.5
773.5
773.5
773.5
773.5
773.5
773.5
773.5
773.5
773.5
773.5
773.5
773.5
773.5
773.5
773.5
773.5
773.499
773.499
773.499
773.499
773.499
773.499
773.499
773.499
773.499
773.499
773.499
773.499
773.499
773.499
773.499
773.499
773.499
773.499
773.498
773.498
773.498
773.498
773.498
773.498
773.498
773.498
773.499
773.499
773.5
773.5
773.501
773.501
773.501
773.501
773.5
773.498
773.496
773.495
773.494
773.493
773.492
773.491
773.491
773.491
773.49
773.49
773.49
773.491
773.492
773.492
773.493
773.493
773.493
773.493
773.492
773.491
773.49
773.489
773.489
773.488
773.488
773.488
773.488
773.487
773.486
773.484
773.483
773.482
773.48
773.479
773.478
773.477
773.476
773.476
773.476
773.475
773.475
773.476
773.476
773.477
773.478
773.478
773.479
773.479
773.479
773.478
773.477
773.475
773.474
773.472
773.471
773.47
773.47
773.469
773.469
773.468
773.468
773.468
773.468
773.468
773.468
773.468
773.468
773.467
773.467
773.467
773.467
773.467
773.467
773.467
773.467
773.467
773.467
773.467
773.468
773.468
773.468
773.468
773.468
773.468
773.468
773.468
773.468
773.468
773.468
773.468
773.468
773.468
773.469
773.469
773.469
773.469
773.469
773.469
773.469
773.469
773.469
773.469
773.469
773.469
773.469
773.47
773.47
773.47
773.47
773.47
773.47
773.47
773.47
773.471
773.471
773.471
773.471
773.471
773.472
773.472
773.472
773.472
773.473
773.473
773.474
773.474
773.475
773.475
773.476
773.477
773.477
773.478
773.479
773.48
773.481
773.482
773.483
773.484
773.486
773.487
773.487
773.46
773.547
772.16
773.803
773.868
773.911
773.926
773.934
773.94
773.945
773.948
773.95
773.952
773.953
773.953
773.952
773.949
773.944
773.934
773.919
773.894
773.854
773.775
773.788
773.835
773.861
773.867
773.87
773.872
773.874
773.872
773.872
773.869
773.869
773.865
773.863
773.857
773.852
773.84
773.826
773.8
773.762
773.692
773.784
773.832
773.864
773.872
773.877
773.882
773.885
773.887
773.888
773.886
773.885
773.881
773.878
773.87
773.861
773.846
773.827
773.796
773.753
773.685
773.708
773.734
773.744
773.747
773.749
773.752
773.755
773.758
773.762
773.767
773.772
773.778
773.785
773.79
773.794
773.795
773.786
773.772
773.741
773.698
773.616
773.647
773.672
773.69
773.702
773.71
773.712
773.709
773.705
773.695
773.683
773.664
773.646
773.623
773.599
773.573
773.548
773.525
773.504
773.487
773.445
773.43
773.407
773.388
773.374
773.366
773.365
773.368
773.376
773.388
773.407
773.43
773.457
773.485
773.518
773.548
773.582
773.607
773.636
773.645
773.227
773.207
773.202
773.208
773.21
773.204
773.198
773.183
773.167
773.141
773.116
773.083
773.054
773.021
772.995
772.972
772.967
772.974
773.005
773.032
772.942
772.858
772.784
772.744
772.722
772.709
772.704
772.706
772.718
772.739
772.769
772.806
772.851
772.904
772.956
773.027
773.073
773.178
773.25
773.344
772.758
772.67
772.592
772.539
772.504
772.469
772.445
772.42
772.407
772.394
772.393
772.396
772.411
772.434
772.464
772.502
772.55
772.624
772.722
772.852
772.66
772.542
772.408
772.361
772.326
772.324
772.337
772.359
772.372
772.425
772.465
772.529
772.583
772.663
772.733
772.813
772.902
773.007
773.14
773.284
773.553
773.481
773.462
773.459
773.46
773.461
773.464
773.467
773.47
773.474
773.477
773.481
773.484
773.488
773.492
773.497
773.501
773.505
773.51
773.515
773.52
773.525
773.53
773.536
773.542
773.549
773.555
773.562
773.568
773.575
773.582
773.589
773.596
773.603
773.611
773.619
773.627
773.635
773.644
773.653
773.662
773.672
773.682
773.692
773.702
773.713
773.723
773.734
773.746
773.757
773.769
773.782
773.795
773.807
773.82
773.834
773.847
773.86
773.874
773.888
773.902
773.916
773.932
773.947
773.963
773.979
773.996
774.013
774.03
774.047
774.065
774.082
774.1
774.118
774.137
774.156
774.176
774.196
774.216
774.237
774.257
774.279
774.3
774.321
774.343
774.366
774.388
774.412
774.436
774.46
774.485
774.51
774.535
774.561
774.587
774.613
774.639
774.666
774.693
774.72
774.748
774.777
774.805
774.834
774.863
774.893
774.923
774.953
774.984
775.015
775.047
775.079
775.112
775.145
775.179
775.213
775.247
775.282
775.317
775.353
775.388
775.425
775.461
775.498
775.536
775.574
775.613
775.652
775.691
775.731
775.771
775.811
775.851
775.891
775.932
775.972
776.014
776.056
776.099
776.143
776.186
776.228
776.269
776.308
776.346
776.384
776.423
776.465
776.508
776.555
776.602
776.646
776.683
776.715
776.754
776.83
777.014
777.435
777.968
778.526
779.067
779.56
779.982
780.321
780.572
780.735
780.819
780.84
780.82
780.667
780.207
779.689
779.252
778.897
778.621
778.419
778.292
778.231
778.215
778.216
778.224
778.251
778.312
778.365
778.438
778.493
778.569
778.623
778.702
778.753
778.833
778.883
778.965
779.012
779.097
779.14
779.227
779.264
779.39
778.908
773.494
773.428
773.411
773.408
773.409
773.411
773.413
773.417
773.42
773.423
773.426
773.43
773.434
773.437
773.441
773.446
773.45
773.454
773.459
773.464
773.469
773.474
773.479
773.485
773.491
773.497
773.503
773.51
773.517
773.524
773.53
773.537
773.544
773.552
773.559
773.567
773.575
773.583
773.592
773.601
773.61
773.62
773.63
773.64
773.65
773.66
773.671
773.682
773.693
773.705
773.717
773.729
773.741
773.754
773.767
773.781
773.794
773.808
773.822
773.835
773.85
773.864
773.879
773.894
773.91
773.926
773.942
773.959
773.976
773.994
774.011
774.029
774.047
774.066
774.084
774.103
774.122
774.142
774.162
774.183
774.204
774.225
774.247
774.268
774.29
774.313
774.335
774.358
774.381
774.405
774.43
774.455
774.481
774.507
774.533
774.559
774.585
774.612
774.639
774.667
774.694
774.722
774.751
774.78
774.809
774.839
774.869
774.899
774.93
774.961
774.993
775.025
775.057
775.09
775.123
775.157
775.192
775.227
775.262
775.298
775.334
775.37
775.407
775.444
775.482
775.52
775.558
775.597
775.637
775.677
775.717
775.758
775.798
775.84
775.881
775.922
775.965
776.007
776.05
776.094
776.136
776.179
776.222
776.265
776.307
776.35
776.394
776.44
776.488
776.536
776.583
776.627
776.661
776.685
776.703
776.717
776.729
776.747
776.775
776.805
776.832
776.858
776.907
777.011
777.162
777.337
777.516
777.687
777.839
777.968
778.07
778.145
778.194
778.219
778.224
778.214
778.195
778.192
778.195
778.205
778.232
778.268
778.324
778.369
778.436
778.488
778.56
778.612
778.689
778.74
778.82
778.869
778.951
778.998
779.083
779.127
779.212
779.251
779.369
778.978
773.503
773.44
773.423
773.419
773.42
773.422
773.424
773.427
773.43
773.433
773.437
773.44
773.444
773.448
773.452
773.456
773.46
773.465
773.47
773.474
773.479
773.484
773.49
773.495
773.501
773.507
773.514
773.52
773.527
773.534
773.541
773.548
773.555
773.562
773.57
773.578
773.586
773.594
773.603
773.612
773.621
773.63
773.64
773.65
773.66
773.671
773.682
773.693
773.704
773.715
773.727
773.739
773.752
773.765
773.778
773.791
773.805
773.818
773.832
773.846
773.86
773.874
773.889
773.904
773.92
773.936
773.953
773.97
773.987
774.004
774.022
774.04
774.058
774.076
774.095
774.114
774.133
774.153
774.173
774.193
774.214
774.235
774.257
774.279
774.301
774.323
774.345
774.368
774.392
774.416
774.44
774.465
774.491
774.517
774.543
774.569
774.596
774.623
774.65
774.677
774.705
774.733
774.761
774.79
774.819
774.849
774.879
774.909
774.94
774.971
775.003
775.034
775.067
775.1
775.133
775.167
775.202
775.237
775.272
775.308
775.344
775.38
775.416
775.454
775.491
775.529
775.567
775.606
775.646
775.686
775.726
775.767
775.808
775.849
775.891
775.932
775.975
776.017
776.061
776.104
776.148
776.191
776.234
776.276
776.319
776.362
776.406
776.451
776.5
776.549
776.598
776.642
776.679
776.703
776.713
776.712
776.706
776.707
776.712
776.726
776.756
776.781
776.808
776.857
776.938
777.047
777.176
777.313
777.447
777.572
777.685
777.785
777.87
777.94
777.997
778.043
778.081
778.116
778.15
778.185
778.231
778.271
778.329
778.375
778.442
778.493
778.564
778.616
778.692
778.742
778.821
778.87
778.952
778.999
779.083
779.128
779.212
779.252
779.358
779.095
773.572
773.528
773.522
773.523
773.526
773.53
773.533
773.536
773.54
773.543
773.547
773.55
773.554
773.558
773.562
773.566
773.57
773.575
773.58
773.584
773.589
773.594
773.6
773.605
773.611
773.617
773.624
773.63
773.637
773.644
773.651
773.658
773.666
773.673
773.68
773.688
773.696
773.705
773.713
773.722
773.731
773.74
773.75
773.76
773.771
773.781
773.792
773.803
773.814
773.825
773.837
773.85
773.862
773.875
773.888
773.901
773.915
773.928
773.942
773.956
773.97
773.985
773.999
774.015
774.03
774.047
774.063
774.08
774.097
774.114
774.132
774.15
774.168
774.186
774.205
774.224
774.243
774.263
774.283
774.303
774.324
774.345
774.367
774.388
774.41
774.432
774.455
774.478
774.502
774.526
774.551
774.576
774.601
774.627
774.653
774.679
774.705
774.732
774.759
774.787
774.814
774.842
774.871
774.9
774.929
774.959
774.989
775.019
775.05
775.081
775.113
775.145
775.178
775.211
775.244
775.278
775.313
775.347
775.382
775.418
775.454
775.49
775.526
775.564
775.601
775.639
775.678
775.717
775.755
775.795
775.834
775.874
775.913
775.953
775.995
776.036
776.079
776.12
776.161
776.201
776.241
776.28
776.32
776.361
776.403
776.449
776.495
776.541
776.587
776.63
776.664
776.694
776.719
776.739
776.759
776.785
776.817
776.852
776.888
776.926
776.969
777.02
777.082
777.152
777.228
777.305
777.382
777.457
777.529
777.598
777.664
777.726
777.785
777.84
777.892
777.943
777.993
778.045
778.098
778.151
778.21
778.262
778.328
778.381
778.448
778.505
778.57
778.631
778.694
778.757
778.823
778.88
778.957
779.003
779.086
779.133
779.215
779.255
779.344
779.294
773.44
773.426
773.414
773.404
773.4
773.4
773.401
773.403
773.405
773.408
773.412
773.415
773.419
773.423
773.427
773.431
773.435
773.44
773.444
773.449
773.454
773.459
773.465
773.47
773.476
773.482
773.488
773.494
773.501
773.508
773.515
773.522
773.53
773.537
773.545
773.553
773.561
773.57
773.578
773.587
773.596
773.606
773.615
773.625
773.635
773.646
773.657
773.668
773.679
773.69
773.702
773.714
773.726
773.739
773.752
773.765
773.778
773.792
773.806
773.821
773.835
773.85
773.865
773.881
773.896
773.912
773.928
773.944
773.961
773.979
773.996
774.014
774.033
774.051
774.07
774.089
774.109
774.128
774.149
774.169
774.19
774.211
774.232
774.254
774.276
774.299
774.322
774.345
774.368
774.392
774.416
774.441
774.466
774.491
774.517
774.543
774.569
774.596
774.624
774.651
774.68
774.708
774.737
774.766
774.795
774.825
774.855
774.886
774.917
774.948
774.98
775.012
775.044
775.077
775.11
775.144
775.178
775.213
775.248
775.284
775.32
775.357
775.394
775.431
775.469
775.507
775.546
775.585
775.625
775.665
775.705
775.747
775.788
775.83
775.872
775.914
775.957
776.001
776.045
776.09
776.135
776.181
776.227
776.272
776.318
776.364
776.41
776.456
776.502
776.55
776.599
776.649
776.698
776.744
776.789
776.832
776.875
776.918
776.961
777.005
777.052
777.101
777.154
777.209
777.266
777.325
777.385
777.445
777.504
777.564
777.622
777.681
777.739
777.797
777.854
777.912
777.971
778.028
778.088
778.147
778.206
778.269
778.325
778.392
778.447
778.514
778.573
778.635
778.7
778.759
778.828
778.884
778.954
779.014
779.078
779.147
779.202
779.277
779.328
779.391
773.68
773.705
773.724
773.739
773.749
773.756
773.76
773.764
773.768
773.771
773.774
773.778
773.782
773.786
773.79
773.794
773.798
773.803
773.808
773.812
773.817
773.823
773.828
773.834
773.839
773.845
773.852
773.858
773.865
773.872
773.88
773.887
773.894
773.902
773.909
773.917
773.925
773.933
773.941
773.95
773.959
773.968
773.978
773.988
773.998
774.009
774.019
774.03
774.041
774.053
774.065
774.077
774.09
774.103
774.116
774.129
774.142
774.156
774.169
774.183
774.197
774.212
774.227
774.242
774.258
774.274
774.291
774.307
774.324
774.341
774.358
774.376
774.393
774.411
774.43
774.449
774.468
774.488
774.508
774.528
774.549
774.57
774.591
774.612
774.634
774.657
774.68
774.704
774.728
774.752
774.776
774.801
774.826
774.851
774.877
774.902
774.929
774.955
774.982
775.009
775.037
775.065
775.093
775.122
775.151
775.18
775.209
775.239
775.269
775.3
775.331
775.363
775.394
775.426
775.458
775.491
775.523
775.556
775.589
775.622
775.655
775.688
775.722
775.755
775.788
775.822
775.857
775.892
775.928
775.964
776
776.035
776.07
776.104
776.137
776.17
776.204
776.238
776.273
776.311
776.35
776.392
776.435
776.479
776.521
776.562
776.598
776.63
776.657
776.681
776.703
776.725
776.748
776.772
776.798
776.827
776.86
776.897
776.937
776.978
777.02
777.066
777.116
777.17
777.228
777.289
777.354
777.419
777.485
777.551
777.616
777.68
777.742
777.804
777.864
777.925
777.984
778.045
778.102
778.164
778.22
778.284
778.338
778.405
778.458
778.526
778.579
778.649
778.7
778.774
778.823
778.9
778.948
779.027
779.073
779.156
779.201
779.287
779.336
779.457
773.178
773.224
773.229
773.228
773.229
773.23
773.232
773.235
773.238
773.241
773.244
773.248
773.251
773.255
773.259
773.263
773.268
773.272
773.277
773.281
773.286
773.292
773.297
773.303
773.308
773.314
773.32
773.327
773.333
773.34
773.347
773.354
773.361
773.369
773.377
773.385
773.393
773.402
773.411
773.42
773.43
773.439
773.449
773.458
773.468
773.479
773.489
773.5
773.511
773.523
773.535
773.547
773.559
773.572
773.585
773.598
773.611
773.625
773.639
773.653
773.667
773.682
773.697
773.713
773.729
773.745
773.761
773.778
773.795
773.813
773.83
773.848
773.866
773.884
773.903
773.922
773.942
773.962
773.982
774.003
774.024
774.046
774.068
774.09
774.112
774.135
774.157
774.181
774.204
774.228
774.252
774.277
774.302
774.328
774.354
774.38
774.407
774.434
774.461
774.489
774.517
774.545
774.573
774.602
774.631
774.66
774.691
774.721
774.752
774.784
774.816
774.848
774.881
774.914
774.947
774.981
775.015
775.049
775.084
775.119
775.156
775.192
775.229
775.266
775.304
775.342
775.38
775.419
775.458
775.498
775.537
775.577
775.618
775.659
775.7
775.742
775.785
775.828
775.871
775.916
775.962
776.008
776.053
776.098
776.144
776.191
776.24
776.29
776.34
776.389
776.437
776.486
776.538
776.592
776.648
776.705
776.764
776.826
776.885
776.937
776.985
777.031
777.073
777.11
777.145
777.182
777.227
777.284
777.35
777.425
777.503
777.583
777.661
777.738
777.811
777.882
777.95
778.018
778.081
778.148
778.207
778.275
778.331
778.399
778.454
778.523
778.577
778.648
778.7
778.773
778.823
778.9
778.948
779.027
779.073
779.157
779.202
779.291
779.346
779.484
773.649
773.715
773.735
773.744
773.748
773.75
773.753
773.756
773.759
773.762
773.766
773.769
773.773
773.777
773.781
773.785
773.789
773.794
773.798
773.803
773.808
773.813
773.819
773.824
773.83
773.835
773.841
773.848
773.854
773.862
773.869
773.877
773.885
773.893
773.9
773.908
773.916
773.924
773.932
773.94
773.949
773.958
773.968
773.978
773.988
773.998
774.009
774.019
774.03
774.042
774.053
774.066
774.079
774.092
774.105
774.119
774.132
774.146
774.159
774.173
774.187
774.201
774.216
774.231
774.247
774.263
774.279
774.296
774.312
774.329
774.346
774.362
774.379
774.397
774.415
774.433
774.452
774.471
774.49
774.509
774.528
774.548
774.567
774.587
774.607
774.628
774.65
774.672
774.695
774.719
774.743
774.767
774.791
774.816
774.841