/*--------------------------------*- C++ -*----------------------------------*\
| =========                 |                                                 |
| \\      /  F ield         | OpenFOAM: The Open Source CFD Toolbox           |
|  \\    /   O peration     | Version:  3.0.x                                 |
|   \\  /    A nd           | Web:      www.OpenFOAM.org                      |
|    \\/     M anipulation  |                                                 |
\*---------------------------------------------------------------------------*/
FoamFile
{
    version     2.0;
    format      ascii;
    class       volVectorField;
    location    "0.55005";
    object      U;
}
// * * * * * * * * * * * * * * * * * * * * * * * * * * * * * * * * * * * * * //

dimensions      [0 1 -1 0 0 0 0];

internalField   nonuniform List<vector> 
13800
(
(76.0897 0.000139029 0)
(75.8007 0.000122247 0)
(75.4479 0.000121623 0)
(75.1185 0.000124184 0)
(74.8077 0.000126428 0)
(74.4982 0.000128309 0)
(74.1846 0.00012995 0)
(73.868 0.000131244 0)
(73.5496 0.000132338 0)
(73.2297 0.000133246 0)
(72.9082 0.000134012 0)
(72.5848 0.000134661 0)
(72.2596 0.000135215 0)
(71.9324 0.000135694 0)
(71.6032 0.000136112 0)
(71.2721 0.00013648 0)
(70.9388 0.000136809 0)
(70.6034 0.000137106 0)
(70.2659 0.000137378 0)
(69.9261 0.000137628 0)
(69.584 0.000137861 0)
(69.2397 0.000138081 0)
(68.8929 0.000138289 0)
(68.5438 0.000138489 0)
(68.1922 0.000138681 0)
(67.8382 0.000138868 0)
(67.4816 0.000139051 0)
(67.1225 0.000139231 0)
(66.7607 0.000139408 0)
(66.3963 0.000139584 0)
(66.0293 0.000139759 0)
(65.6596 0.000139935 0)
(65.2871 0.000140111 0)
(64.9119 0.000140289 0)
(64.5339 0.000140467 0)
(64.1532 0.000140648 0)
(63.7696 0.00014083 0)
(63.3832 0.000141015 0)
(62.9939 0.000141202 0)
(62.6018 0.000141393 0)
(62.2068 0.000141587 0)
(61.8089 0.000141784 0)
(61.4082 0.000141985 0)
(61.0046 0.000142188 0)
(60.5982 0.000142396 0)
(60.1888 0.000142606 0)
(59.7767 0.00014282 0)
(59.3616 0.000143038 0)
(58.9438 0.000143259 0)
(58.5232 0.000143484 0)
(58.0998 0.000143712 0)
(57.6736 0.000143944 0)
(57.2448 0.000144179 0)
(56.8132 0.000144419 0)
(56.379 0.000144661 0)
(55.9423 0.000144908 0)
(55.5029 0.000145157 0)
(55.0611 0.00014541 0)
(54.6168 0.000145666 0)
(54.1702 0.000145926 0)
(53.7212 0.000146186 0)
(53.2699 0.000146451 0)
(52.8165 0.000146717 0)
(52.361 0.000146988 0)
(51.9034 0.00014726 0)
(51.4438 0.000147532 0)
(50.9824 0.000147809 0)
(50.5192 0.000148083 0)
(50.0543 0.00014836 0)
(49.5878 0.000148635 0)
(49.1198 0.000148913 0)
(48.6504 0.000149193 0)
(48.1797 0.00014948 0)
(47.7078 0.000149775 0)
(47.2349 0.000150072 0)
(46.7609 0.00015037 0)
(46.2861 0.000150649 0)
(45.8106 0.000150912 0)
(45.3344 0.000151175 0)
(44.8577 0.000151443 0)
(44.3806 0.000151722 0)
(43.9033 0.000152005 0)
(43.4258 0.000152285 0)
(42.9483 0.000152551 0)
(42.4708 0.000152819 0)
(41.9936 0.000153075 0)
(41.5167 0.000153345 0)
(41.0402 0.000153624 0)
(40.5643 0.000153919 0)
(40.0891 0.000154216 0)
(39.6147 0.000154499 0)
(39.1413 0.000154782 0)
(38.6689 0.000155066 0)
(38.1976 0.000155358 0)
(37.7276 0.000155648 0)
(37.259 0.00015592 0)
(36.7919 0.000156163 0)
(36.3264 0.0001564 0)
(35.8626 0.000156619 0)
(35.4007 0.000156846 0)
(34.9406 0.000157072 0)
(34.4825 0.000157285 0)
(34.0266 0.000157471 0)
(33.5728 0.000157646 0)
(33.1213 0.000157835 0)
(32.6722 0.000158053 0)
(32.2256 0.000158302 0)
(31.7814 0.000158574 0)
(31.3399 0.000158829 0)
(30.9011 0.000159038 0)
(30.4651 0.000159204 0)
(30.0319 0.000159349 0)
(29.6015 0.000159488 0)
(29.1742 0.000159635 0)
(28.7499 0.000159791 0)
(28.3286 0.00015996 0)
(27.9105 0.00016015 0)
(27.4955 0.000160359 0)
(27.0838 0.000160563 0)
(26.6754 0.00016074 0)
(26.2703 0.0001609 0)
(25.8685 0.000161066 0)
(25.4701 0.000161249 0)
(25.0752 0.000161422 0)
(24.6837 0.00016155 0)
(24.2957 0.000161618 0)
(23.9112 0.000161644 0)
(23.5303 0.000161647 0)
(23.1529 0.000161627 0)
(22.7791 0.000161562 0)
(22.4089 0.000161427 0)
(22.0424 0.000161216 0)
(21.6795 0.000160938 0)
(21.3202 0.000160615 0)
(20.9646 0.000160255 0)
(20.6126 0.000159849 0)
(20.2644 0.000159376 0)
(19.9198 0.0001588 0)
(19.5789 0.000158085 0)
(19.2417 0.000157195 0)
(18.9082 0.000156106 0)
(18.5784 0.000154799 0)
(18.2523 0.000153262 0)
(17.9299 0.000151483 0)
(17.6112 0.000149448 0)
(17.2962 0.000147145 0)
(16.9849 0.000144562 0)
(16.6773 0.000141697 0)
(16.3735 0.000138547 0)
(16.0733 0.000135116 0)
(15.7768 0.000131407 0)
(15.4839 0.000127433 0)
(15.1948 0.0001232 0)
(14.9093 0.000118735 0)
(14.6275 0.000114048 0)
(14.3493 0.00010917 0)
(14.0748 0.000104121 0)
(13.8039 9.89326e-05 0)
(13.5366 9.36327e-05 0)
(13.2729 8.82585e-05 0)
(13.0127 8.28389e-05 0)
(12.7561 7.74162e-05 0)
(12.503 7.20161e-05 0)
(12.2535 6.66828e-05 0)
(12.0074 6.14376e-05 0)
(11.7647 5.63298e-05 0)
(11.5255 5.13679e-05 0)
(11.2897 4.66121e-05 0)
(11.0572 4.20337e-05 0)
(10.8281 3.77272e-05 0)
(10.6023 3.36036e-05 0)
(10.3798 2.98083e-05 0)
(10.1606 2.61982e-05 0)
(9.94449 2.28963e-05 0)
(9.73165 1.98583e-05 0)
(9.52192 1.69338e-05 0)
(9.31538 1.45275e-05 0)
(9.11186 1.18492e-05 0)
(8.9115 1.00965e-05 0)
(8.71409 7.49304e-06 0)
(8.5198 6.48937e-06 0)
(8.32837 3.32077e-06 0)
(8.14005 3.73585e-06 0)
(7.9545 3.21172e-07 0)
(7.77208 1.75241e-06 0)
(7.59233 -1.67486e-06 0)
(7.41574 1.40719e-07 0)
(7.24169 -3.09058e-06 0)
(7.07082 -8.95744e-07 0)
(6.9024 -4.14804e-06 0)
(6.73715 -1.86079e-06 0)
(6.57427 -4.46753e-06 0)
(6.41449 -2.3994e-06 0)
(6.25694 -5.42356e-07 0)
(6.10199 1.76919e-05 0)
(5.94744 9.33336e-05 0)
(5.78822 0.000409132 0)
(5.59164 0.00164088 0)
(5.4094 0.0110441 0)
(3.99826 0.0247692 0)
(76.0935 0.00021909 0)
(75.8084 0.000162316 0)
(75.4594 0.00015085 0)
(75.134 0.000149217 0)
(74.8272 0.000147891 0)
(74.5216 0.000146865 0)
(74.2119 0.000146235 0)
(73.8992 0.000145608 0)
(73.5848 0.000145129 0)
(73.2689 0.000144722 0)
(72.9513 0.000144382 0)
(72.632 0.000144094 0)
(72.3107 0.000143854 0)
(71.9875 0.000143655 0)
(71.6623 0.000143495 0)
(71.3351 0.00014337 0)
(71.0059 0.000143278 0)
(70.6745 0.000143215 0)
(70.3409 0.00014318 0)
(70.0051 0.000143172 0)
(69.6671 0.000143186 0)
(69.3267 0.000143223 0)
(68.984 0.00014328 0)
(68.6388 0.000143355 0)
(68.2913 0.000143449 0)
(67.9412 0.000143558 0)
(67.5886 0.000143683 0)
(67.2335 0.000143823 0)
(66.8758 0.000143976 0)
(66.5154 0.000144142 0)
(66.1524 0.00014432 0)
(65.7867 0.00014451 0)
(65.4182 0.00014471 0)
(65.0471 0.000144923 0)
(64.6731 0.000145145 0)
(64.2964 0.000145377 0)
(63.9168 0.000145617 0)
(63.5344 0.000145866 0)
(63.1492 0.000146125 0)
(62.7611 0.000146392 0)
(62.3702 0.000146668 0)
(61.9764 0.000146953 0)
(61.5797 0.000147245 0)
(61.1802 0.000147544 0)
(60.7778 0.000147851 0)
(60.3725 0.000148164 0)
(59.9644 0.000148485 0)
(59.5535 0.000148811 0)
(59.1398 0.000149144 0)
(58.7232 0.000149484 0)
(58.3039 0.000149828 0)
(57.8819 0.000150179 0)
(57.4571 0.000150535 0)
(57.0297 0.000150898 0)
(56.5996 0.000151264 0)
(56.1669 0.000151638 0)
(55.7317 0.000152013 0)
(55.294 0.000152395 0)
(54.8539 0.000152779 0)
(54.4114 0.00015317 0)
(53.9665 0.000153561 0)
(53.5195 0.000153958 0)
(53.0702 0.000154354 0)
(52.6188 0.000154758 0)
(52.1654 0.000155163 0)
(51.71 0.000155566 0)
(51.2528 0.000155976 0)
(50.7937 0.00015638 0)
(50.333 0.000156788 0)
(49.8707 0.000157191 0)
(49.4069 0.000157597 0)
(48.9418 0.000158006 0)
(48.4753 0.000158421 0)
(48.0076 0.00015885 0)
(47.5389 0.000159278 0)
(47.0692 0.000159707 0)
(46.5986 0.000160105 0)
(46.1273 0.000160476 0)
(45.6554 0.000160848 0)
(45.1829 0.000161228 0)
(44.7101 0.000161622 0)
(44.2371 0.000162019 0)
(43.7638 0.00016241 0)
(43.2906 0.000162776 0)
(42.8174 0.000163145 0)
(42.3444 0.000163491 0)
(41.8718 0.000163861 0)
(41.3997 0.000164242 0)
(40.9281 0.000164646 0)
(40.4572 0.000165048 0)
(39.9871 0.000165424 0)
(39.518 0.000165801 0)
(39.0499 0.000166176 0)
(38.583 0.000166563 0)
(38.1174 0.000166945 0)
(37.6531 0.000167296 0)
(37.1904 0.000167603 0)
(36.7292 0.000167904 0)
(36.2698 0.000168174 0)
(35.8122 0.000168461 0)
(35.3565 0.000168743 0)
(34.9028 0.000169004 0)
(34.4512 0.000169221 0)
(34.0018 0.000169421 0)
(33.5547 0.000169645 0)
(33.11 0.000169911 0)
(32.6678 0.000170221 0)
(32.228 0.000170562 0)
(31.791 0.000170873 0)
(31.3566 0.00017111 0)
(30.9249 0.000171285 0)
(30.4961 0.000171431 0)
(30.0702 0.000171571 0)
(29.6473 0.000171723 0)
(29.2274 0.000171887 0)
(28.8105 0.000172066 0)
(28.3969 0.000172277 0)
(27.9863 0.000172515 0)
(27.5791 0.000172742 0)
(27.1751 0.000172924 0)
(26.7744 0.00017308 0)
(26.3771 0.000173249 0)
(25.9832 0.000173445 0)
(25.5927 0.000173625 0)
(25.2057 0.000173741 0)
(24.8221 0.000173767 0)
(24.4421 0.00017374 0)
(24.0656 0.000173687 0)
(23.6927 0.000173611 0)
(23.3234 0.000173473 0)
(22.9577 0.00017324 0)
(22.5956 0.000172905 0)
(22.2371 0.000172489 0)
(21.8823 0.000172026 0)
(21.5311 0.000171529 0)
(21.1835 0.000170989 0)
(20.8397 0.000170373 0)
(20.4995 0.000169634 0)
(20.1629 0.000168731 0)
(19.8301 0.00016761 0)
(19.5009 0.000166252 0)
(19.1754 0.000164632 0)
(18.8535 0.000162742 0)
(18.5353 0.000160576 0)
(18.2207 0.000158109 0)
(17.9098 0.000155345 0)
(17.6025 0.000152259 0)
(17.2988 0.000148861 0)
(16.9987 0.000145148 0)
(16.7022 0.000141131 0)
(16.4094 0.000136814 0)
(16.12 0.000132219 0)
(15.8343 0.000127348 0)
(15.5521 0.000122248 0)
(15.2734 0.000116916 0)
(14.9982 0.000111407 0)
(14.7265 0.000105728 0)
(14.4582 9.99291e-05 0)
(14.1934 9.40318e-05 0)
(13.9321 8.80893e-05 0)
(13.6741 8.21212e-05 0)
(13.4196 7.61902e-05 0)
(13.1684 7.03076e-05 0)
(12.9205 6.45368e-05 0)
(12.676 5.88864e-05 0)
(12.4348 5.34218e-05 0)
(12.1968 4.81382e-05 0)
(11.9622 4.31069e-05 0)
(11.7307 3.82881e-05 0)
(11.5025 3.37638e-05 0)
(11.2774 2.9488e-05 0)
(11.0555 2.54846e-05 0)
(10.8368 2.19042e-05 0)
(10.6211 1.83042e-05 0)
(10.4086 1.56633e-05 0)
(10.1992 1.21911e-05 0)
(9.99281 1.06947e-05 0)
(9.78941 7.18768e-06 0)
(9.5891 6.77115e-06 0)
(9.39169 3.35028e-06 0)
(9.19735 3.86332e-06 0)
(9.00583 3.82509e-07 0)
(8.81739 2.06137e-06 0)
(8.63169 -3.13633e-06 0)
(8.44908 1.07822e-06 0)
(8.26911 -6.07935e-06 0)
(8.09228 5.92003e-07 0)
(7.91799 -8.45427e-06 0)
(7.74685 2.95976e-07 0)
(7.57815 -1.04501e-05 0)
(7.41259 -6.7746e-07 0)
(7.24942 -9.65112e-06 0)
(7.08931 3.3966e-07 0)
(6.93145 6.93304e-06 0)
(6.77615 7.00701e-05 0)
(6.62118 0.000327391 0)
(6.4614 0.00144742 0)
(6.26338 0.00594583 0)
(6.06075 0.033245 0)
(4.76703 0.0622361 0)
(76.0935 0.000161269 0)
(75.8084 0.000113455 0)
(75.4594 0.000107774 0)
(75.134 0.000110938 0)
(74.8272 0.000112294 0)
(74.5216 0.000113086 0)
(74.2119 0.000113864 0)
(73.8992 0.0001144 0)
(73.5848 0.000114881 0)
(73.2689 0.000115283 0)
(72.9513 0.000115626 0)
(72.632 0.000115923 0)
(72.3107 0.000116185 0)
(71.9875 0.000116419 0)
(71.6623 0.000116632 0)
(71.3351 0.000116829 0)
(71.0059 0.000117014 0)
(70.6745 0.000117192 0)
(70.3409 0.000117362 0)
(70.0051 0.00011753 0)
(69.6671 0.000117694 0)
(69.3267 0.000117857 0)
(68.984 0.000118019 0)
(68.6389 0.000118181 0)
(68.2913 0.000118345 0)
(67.9413 0.00011851 0)
(67.5887 0.000118677 0)
(67.2336 0.000118847 0)
(66.8758 0.000119019 0)
(66.5155 0.000119194 0)
(66.1525 0.000119372 0)
(65.7868 0.000119553 0)
(65.4183 0.000119738 0)
(65.0472 0.000119927 0)
(64.6732 0.000120119 0)
(64.2965 0.000120315 0)
(63.9169 0.000120514 0)
(63.5346 0.000120717 0)
(63.1494 0.000120924 0)
(62.7613 0.000121135 0)
(62.3704 0.00012135 0)
(61.9766 0.00012157 0)
(61.5799 0.000121794 0)
(61.1804 0.000122021 0)
(60.778 0.000122254 0)
(60.3728 0.000122488 0)
(59.9647 0.000122728 0)
(59.5537 0.00012297 0)
(59.14 0.000123217 0)
(58.7235 0.000123467 0)
(58.3042 0.00012372 0)
(57.8821 0.000123977 0)
(57.4574 0.000124237 0)
(57.03 0.000124502 0)
(56.5999 0.000124768 0)
(56.1673 0.00012504 0)
(55.7321 0.000125312 0)
(55.2944 0.000125588 0)
(54.8543 0.000125865 0)
(54.4118 0.000126148 0)
(53.9669 0.000126429 0)
(53.5199 0.000126716 0)
(53.0706 0.000127 0)
(52.6192 0.000127291 0)
(52.1658 0.00012758 0)
(51.7105 0.000127868 0)
(51.2532 0.000128163 0)
(50.7942 0.000128451 0)
(50.3335 0.000128744 0)
(49.8713 0.000129032 0)
(49.4075 0.000129321 0)
(48.9423 0.000129612 0)
(48.4758 0.000129907 0)
(48.0082 0.000130212 0)
(47.5395 0.000130516 0)
(47.0698 0.000130823 0)
(46.5992 0.000131105 0)
(46.128 0.000131368 0)
(45.6561 0.000131633 0)
(45.1836 0.000131902 0)
(44.7108 0.000132182 0)
(44.2378 0.000132463 0)
(43.7646 0.000132738 0)
(43.2913 0.000132994 0)
(42.8182 0.000133254 0)
(42.3452 0.000133497 0)
(41.8727 0.000133759 0)
(41.4005 0.00013403 0)
(40.929 0.000134318 0)
(40.4581 0.000134605 0)
(39.988 0.000134872 0)
(39.5189 0.00013514 0)
(39.0509 0.000135405 0)
(38.584 0.00013568 0)
(38.1184 0.000135951 0)
(37.6541 0.000136198 0)
(37.1914 0.000136413 0)
(36.7303 0.000136627 0)
(36.2709 0.000136816 0)
(35.8133 0.000137019 0)
(35.3576 0.000137217 0)
(34.904 0.000137398 0)
(34.4524 0.000137547 0)
(34.003 0.000137685 0)
(33.556 0.000137843 0)
(33.1113 0.000138034 0)
(32.6691 0.000138256 0)
(32.2294 0.000138502 0)
(31.7923 0.000138722 0)
(31.3579 0.000138888 0)
(30.9263 0.000139009 0)
(30.4975 0.000139111 0)
(30.0717 0.000139209 0)
(29.6488 0.000139318 0)
(29.2289 0.000139434 0)
(28.8121 0.000139561 0)
(28.3984 0.000139714 0)
(27.9879 0.000139886 0)
(27.5807 0.000140052 0)
(27.1767 0.00014018 0)
(26.7761 0.000140292 0)
(26.3788 0.000140411 0)
(25.9849 0.000140552 0)
(25.5945 0.000140677 0)
(25.2075 0.000140753 0)
(24.824 0.00014076 0)
(24.444 0.00014073 0)
(24.0675 0.000140675 0)
(23.6947 0.000140601 0)
(23.3254 0.000140471 0)
(22.9597 0.000140265 0)
(22.5976 0.000139975 0)
(22.2392 0.000139619 0)
(21.8843 0.000139224 0)
(21.5332 0.000138792 0)
(21.1857 0.000138316 0)
(20.8418 0.000137773 0)
(20.5017 0.000137116 0)
(20.1652 0.000136324 0)
(19.8323 0.000135343 0)
(19.5031 0.00013417 0)
(19.1776 0.000132777 0)
(18.8558 0.000131154 0)
(18.5376 0.000129308 0)
(18.223 0.000127199 0)
(17.9121 0.000124856 0)
(17.6048 0.000122235 0)
(17.3011 0.000119364 0)
(17.001 0.00011623 0)
(16.7045 0.000112847 0)
(16.4116 0.000109215 0)
(16.1223 0.000105365 0)
(15.8365 0.000101278 0)
(15.5542 9.70232e-05 0)
(15.2755 9.25682e-05 0)
(15.0003 8.79893e-05 0)
(14.7285 8.3273e-05 0)
(14.4602 7.84788e-05 0)
(14.1954 7.36131e-05 0)
(13.934 6.87392e-05 0)
(13.676 6.38532e-05 0)
(13.4214 5.90334e-05 0)
(13.1701 5.4269e-05 0)
(12.9222 4.96257e-05 0)
(12.6777 4.51099e-05 0)
(12.4364 4.0759e-05 0)
(12.1984 3.66069e-05 0)
(11.9636 3.26276e-05 0)
(11.7321 2.89373e-05 0)
(11.5039 2.53342e-05 0)
(11.2788 2.22303e-05 0)
(11.0568 1.8898e-05 0)
(10.838 1.66625e-05 0)
(10.6224 1.32531e-05 0)
(10.4098 1.23354e-05 0)
(10.2003 8.37075e-06 0)
(9.99395 9.10918e-06 0)
(9.79053 4.314e-06 0)
(9.5902 6.61296e-06 0)
(9.39276 7.01665e-07 0)
(9.19841 5.07217e-06 0)
(9.00688 -2.88517e-06 0)
(8.81842 5.28872e-06 0)
(8.6327 -7.49752e-06 0)
(8.45008 6.48521e-06 0)
(8.27011 -1.1774e-05 0)
(8.09328 8.45324e-06 0)
(7.91898 -1.48551e-05 0)
(7.74783 9.06706e-06 0)
(7.57913 -1.62025e-05 0)
(7.41357 7.30629e-06 0)
(7.25039 -1.22047e-05 0)
(7.09028 9.07288e-06 0)
(6.93244 2.20946e-05 0)
(6.77719 0.000147571 0)
(6.62249 0.000639373 0)
(6.46391 0.00284198 0)
(6.27148 0.0117221 0)
(6.09382 0.0690625 0)
(4.8967 0.142112 0)
(76.0935 0.000116524 0)
(75.8083 0.00010208 0)
(75.4594 9.96951e-05 0)
(75.134 0.000103957 0)
(74.8271 0.000106454 0)
(74.5216 0.00010807 0)
(74.2119 0.00010949 0)
(73.8992 0.000110623 0)
(73.5848 0.000111587 0)
(73.2689 0.00011239 0)
(72.9513 0.00011307 0)
(72.6319 0.000113648 0)
(72.3107 0.000114146 0)
(71.9875 0.000114579 0)
(71.6623 0.00011496 0)
(71.3351 0.000115299 0)
(71.0059 0.000115603 0)
(70.6745 0.000115881 0)
(70.3409 0.000116136 0)
(70.0051 0.000116374 0)
(69.6671 0.000116597 0)
(69.3267 0.000116809 0)
(68.984 0.000117011 0)
(68.6388 0.000117206 0)
(68.2913 0.000117394 0)
(67.9412 0.000117579 0)
(67.5887 0.00011776 0)
(67.2335 0.000117939 0)
(66.8758 0.000118116 0)
(66.5154 0.000118293 0)
(66.1524 0.000118469 0)
(65.7867 0.000118646 0)
(65.4183 0.000118823 0)
(65.0471 0.000119002 0)
(64.6732 0.000119182 0)
(64.2965 0.000119364 0)
(63.9169 0.000119548 0)
(63.5345 0.000119734 0)
(63.1493 0.000119922 0)
(62.7613 0.000120113 0)
(62.3703 0.000120307 0)
(61.9765 0.000120503 0)
(61.5799 0.000120704 0)
(61.1804 0.000120907 0)
(60.778 0.000121113 0)
(60.3727 0.000121323 0)
(59.9646 0.000121535 0)
(59.5537 0.000121751 0)
(59.14 0.000121969 0)
(58.7234 0.000122191 0)
(58.3041 0.000122415 0)
(57.8821 0.000122643 0)
(57.4573 0.000122875 0)
(57.0299 0.00012311 0)
(56.5999 0.000123347 0)
(56.1672 0.00012359 0)
(55.732 0.000123833 0)
(55.2943 0.000124079 0)
(54.8542 0.000124327 0)
(54.4117 0.00012458 0)
(53.9669 0.000124833 0)
(53.5198 0.000125091 0)
(53.0706 0.000125348 0)
(52.6192 0.000125609 0)
(52.1658 0.000125871 0)
(51.7104 0.000126133 0)
(51.2532 0.0001264 0)
(50.7942 0.000126664 0)
(50.3335 0.000126932 0)
(49.8712 0.000127198 0)
(49.4074 0.000127465 0)
(48.9423 0.000127733 0)
(48.4758 0.000128005 0)
(48.0082 0.000128284 0)
(47.5394 0.000128564 0)
(47.0697 0.000128848 0)
(46.5992 0.000129116 0)
(46.1279 0.00012937 0)
(45.656 0.000129625 0)
(45.1836 0.000129884 0)
(44.7108 0.00013015 0)
(44.2377 0.000130417 0)
(43.7645 0.000130681 0)
(43.2913 0.000130932 0)
(42.8181 0.000131186 0)
(42.3452 0.000131429 0)
(41.8726 0.000131687 0)
(41.4005 0.000131954 0)
(40.9289 0.000132234 0)
(40.4581 0.000132516 0)
(39.988 0.000132785 0)
(39.5189 0.000133054 0)
(39.0508 0.00013332 0)
(38.5839 0.000133593 0)
(38.1183 0.000133863 0)
(37.6541 0.000134117 0)
(37.1914 0.000134348 0)
(36.7303 0.000134577 0)
(36.2709 0.000134788 0)
(35.8133 0.000135007 0)
(35.3576 0.000135221 0)
(34.9039 0.000135422 0)
(34.4524 0.000135599 0)
(34.003 0.000135771 0)
(33.5559 0.000135955 0)
(33.1112 0.000136169 0)
(32.669 0.000136401 0)
(32.2293 0.000136657 0)
(31.7923 0.00013689 0)
(31.3579 0.000137089 0)
(30.9263 0.000137248 0)
(30.4975 0.000137396 0)
(30.0716 0.000137534 0)
(29.6487 0.000137685 0)
(29.2288 0.000137836 0)
(28.812 0.000138001 0)
(28.3984 0.000138183 0)
(27.9879 0.000138382 0)
(27.5807 0.000138578 0)
(27.1767 0.000138748 0)
(26.776 0.000138903 0)
(26.3788 0.000139062 0)
(25.9849 0.000139234 0)
(25.5944 0.000139395 0)
(25.2074 0.000139518 0)
(24.8239 0.000139593 0)
(24.4439 0.000139628 0)
(24.0675 0.000139654 0)
(23.6946 0.000139639 0)
(23.3253 0.000139603 0)
(22.9596 0.000139475 0)
(22.5976 0.000139311 0)
(22.2391 0.00013906 0)
(21.8843 0.000138799 0)
(21.5332 0.000138484 0)
(21.1857 0.000138143 0)
(20.8418 0.000137732 0)
(20.5016 0.000137231 0)
(20.1651 0.000136606 0)
(19.8323 0.000135831 0)
(19.5031 0.000134873 0)
(19.1776 0.00013374 0)
(18.8557 0.000132381 0)
(18.5375 0.000130841 0)
(18.223 0.000129041 0)
(17.912 0.000127044 0)
(17.6047 0.000124774 0)
(17.3011 0.00012229 0)
(17.001 0.000119533 0)
(16.7045 0.000116567 0)
(16.4116 0.000113319 0)
(16.1223 0.000109899 0)
(15.8365 0.000106189 0)
(15.5542 0.000102359 0)
(15.2755 9.8258e-05 0)
(15.0003 9.40752e-05 0)
(14.7285 8.96829e-05 0)
(14.4602 8.52371e-05 0)
(14.1954 8.06483e-05 0)
(13.934 7.6072e-05 0)
(13.676 7.13919e-05 0)
(13.4214 6.68145e-05 0)
(13.1701 6.21792e-05 0)
(12.9222 5.77097e-05 0)
(12.6776 5.32463e-05 0)
(12.4364 4.90115e-05 0)
(12.1984 4.48069e-05 0)
(11.9636 4.09263e-05 0)
(11.7321 3.70553e-05 0)
(11.5038 3.35337e-05 0)
(11.2787 3.01955e-05 0)
(11.0568 2.66886e-05 0)
(10.838 2.46248e-05 0)
(10.6224 2.03159e-05 0)
(10.4098 2.09254e-05 0)
(10.2003 1.42273e-05 0)
(9.99394 1.86201e-05 0)
(9.79052 8.54966e-06 0)
(9.59019 1.67194e-05 0)
(9.39276 3.65157e-06 0)
(9.1984 1.53082e-05 0)
(9.00687 -1.20686e-06 0)
(8.81842 1.49272e-05 0)
(8.6327 -6.03172e-06 0)
(8.45008 1.57251e-05 0)
(8.27011 -1.13448e-05 0)
(8.09328 2.03521e-05 0)
(7.91898 -1.80322e-05 0)
(7.74783 2.41385e-05 0)
(7.57913 -2.36688e-05 0)
(7.41357 2.54113e-05 0)
(7.25039 -1.85841e-05 0)
(7.09029 3.67368e-05 0)
(6.93245 6.51195e-05 0)
(6.77726 0.000385477 0)
(6.62282 0.00161113 0)
(6.46528 0.00697908 0)
(6.28054 0.0269507 0)
(6.11609 0.113245 0)
(5.35498 0.193874 0)
(76.0935 3.52194e-05 0)
(75.8083 2.83527e-05 0)
(75.4594 2.05797e-05 0)
(75.134 1.73081e-05 0)
(74.8271 1.47381e-05 0)
(74.5215 1.25376e-05 0)
(74.2119 1.08084e-05 0)
(73.8992 9.39983e-06 0)
(73.5847 8.24026e-06 0)
(73.2688 7.26838e-06 0)
(72.9513 6.44908e-06 0)
(72.6319 5.7529e-06 0)
(72.3106 5.15804e-06 0)
(71.9874 4.64761e-06 0)
(71.6623 4.20782e-06 0)
(71.3351 3.82786e-06 0)
(71.0058 3.4989e-06 0)
(70.6744 3.21365e-06 0)
(70.3409 2.9661e-06 0)
(70.0051 2.75137e-06 0)
(69.667 2.56505e-06 0)
(69.3267 2.40384e-06 0)
(68.9839 2.26444e-06 0)
(68.6388 2.14463e-06 0)
(68.2913 2.04183e-06 0)
(67.9412 1.9545e-06 0)
(67.5886 1.88092e-06 0)
(67.2335 1.81961e-06 0)
(66.8758 1.76952e-06 0)
(66.5154 1.7292e-06 0)
(66.1524 1.69761e-06 0)
(65.7867 1.67413e-06 0)
(65.4183 1.65777e-06 0)
(65.0471 1.64821e-06 0)
(64.6732 1.64468e-06 0)
(64.2964 1.64654e-06 0)
(63.9169 1.65324e-06 0)
(63.5345 1.66431e-06 0)
(63.1493 1.67938e-06 0)
(62.7612 1.69805e-06 0)
(62.3703 1.72033e-06 0)
(61.9765 1.74568e-06 0)
(61.5799 1.77419e-06 0)
(61.1803 1.80512e-06 0)
(60.7779 1.83888e-06 0)
(60.3727 1.87454e-06 0)
(59.9646 1.91233e-06 0)
(59.5537 1.95192e-06 0)
(59.1399 1.9929e-06 0)
(58.7234 2.03567e-06 0)
(58.3041 2.07966e-06 0)
(57.8821 2.12509e-06 0)
(57.4573 2.1719e-06 0)
(57.0299 2.2202e-06 0)
(56.5998 2.26928e-06 0)
(56.1672 2.3198e-06 0)
(55.732 2.37057e-06 0)
(55.2943 2.42197e-06 0)
(54.8542 2.47387e-06 0)
(54.4117 2.52694e-06 0)
(53.9669 2.58025e-06 0)
(53.5198 2.63425e-06 0)
(53.0705 2.68775e-06 0)
(52.6192 2.74226e-06 0)
(52.1658 2.79647e-06 0)
(51.7104 2.85024e-06 0)
(51.2532 2.9051e-06 0)
(50.7942 2.95881e-06 0)
(50.3335 3.01348e-06 0)
(49.8712 3.06715e-06 0)
(49.4074 3.12041e-06 0)
(48.9422 3.17288e-06 0)
(48.4758 3.22566e-06 0)
(48.0081 3.27979e-06 0)
(47.5394 3.33379e-06 0)
(47.0697 3.38851e-06 0)
(46.5992 3.43837e-06 0)
(46.1279 3.48373e-06 0)
(45.656 3.5289e-06 0)
(45.1836 3.57431e-06 0)
(44.7108 3.62061e-06 0)
(44.2377 3.6658e-06 0)
(43.7645 3.70844e-06 0)
(43.2913 3.74648e-06 0)
(42.8181 3.78481e-06 0)
(42.3452 3.81946e-06 0)
(41.8726 3.85774e-06 0)
(41.4004 3.89784e-06 0)
(40.9289 3.94116e-06 0)
(40.458 3.98412e-06 0)
(39.988 4.02156e-06 0)
(39.5189 4.05767e-06 0)
(39.0508 4.09208e-06 0)
(38.5839 4.12668e-06 0)
(38.1183 4.15985e-06 0)
(37.6541 4.18795e-06 0)
(37.1914 4.20927e-06 0)
(36.7302 4.23014e-06 0)
(36.2708 4.24597e-06 0)
(35.8132 4.2632e-06 0)
(35.3576 4.27788e-06 0)
(34.9039 4.28831e-06 0)
(34.4523 4.29032e-06 0)
(34.003 4.29204e-06 0)
(33.5559 4.2969e-06 0)
(33.1112 4.31074e-06 0)
(32.669 4.32692e-06 0)
(32.2293 4.3491e-06 0)
(31.7922 4.36165e-06 0)
(31.3579 4.36443e-06 0)
(30.9262 4.35514e-06 0)
(30.4975 4.34402e-06 0)
(30.0716 4.33056e-06 0)
(29.6487 4.32051e-06 0)
(29.2288 4.30982e-06 0)
(28.812 4.30094e-06 0)
(28.3983 4.29762e-06 0)
(27.9879 4.29555e-06 0)
(27.5806 4.29644e-06 0)
(27.1767 4.28347e-06 0)
(26.776 4.2709e-06 0)
(26.3787 4.25427e-06 0)
(25.9848 4.24696e-06 0)
(25.5944 4.23003e-06 0)
(25.2074 4.2114e-06 0)
(24.8239 4.17306e-06 0)
(24.4439 4.13112e-06 0)
(24.0675 4.09156e-06 0)
(23.6946 4.03402e-06 0)
(23.3253 3.98897e-06 0)
(22.9596 3.90292e-06 0)
(22.5975 3.8315e-06 0)
(22.2391 3.72643e-06 0)
(21.8843 3.64022e-06 0)
(21.5331 3.54358e-06 0)
(21.1856 3.44765e-06 0)
(20.8418 3.35304e-06 0)
(20.5016 3.23599e-06 0)
(20.1651 3.11169e-06 0)
(19.8323 2.96208e-06 0)
(19.5031 2.78582e-06 0)
(19.1776 2.59606e-06 0)
(18.8557 2.36426e-06 0)
(18.5375 2.13411e-06 0)
(18.2229 1.85371e-06 0)
(17.912 1.57917e-06 0)
(17.6047 1.26042e-06 0)
(17.301 9.48432e-07 0)
(17.001 5.90424e-07 0)
(16.7045 2.61493e-07 0)
(16.4116 -1.33852e-07 0)
(16.1222 -4.69139e-07 0)
(15.8365 -8.86923e-07 0)
(15.5542 -1.22501e-06 0)
(15.2755 -1.63968e-06 0)
(15.0002 -1.97865e-06 0)
(14.7285 -2.37451e-06 0)
(14.4602 -2.69293e-06 0)
(14.1954 -3.07386e-06 0)
(13.934 -3.3524e-06 0)
(13.676 -3.70044e-06 0)
(13.4214 -3.95548e-06 0)
(13.1701 -4.22346e-06 0)
(12.9222 -4.49762e-06 0)
(12.6776 -4.62551e-06 0)
(12.4364 -4.99268e-06 0)
(12.1984 -4.86069e-06 0)
(11.9636 -5.51974e-06 0)
(11.7321 -4.80251e-06 0)
(11.5038 -6.31903e-06 0)
(11.2787 -4.14753e-06 0)
(11.0568 -7.85802e-06 0)
(10.838 -2.40444e-06 0)
(10.6224 -1.03891e-05 0)
(10.4098 3.36919e-07 0)
(10.2003 -1.35923e-05 0)
(9.99394 3.60117e-06 0)
(9.79052 -1.69286e-05 0)
(9.59019 6.95715e-06 0)
(9.39276 -2.17301e-05 0)
(9.19841 1.49814e-05 0)
(9.00687 -3.41009e-05 0)
(8.81842 3.36131e-05 0)
(8.6327 -5.60805e-05 0)
(8.45008 5.71504e-05 0)
(8.27011 -7.78649e-05 0)
(8.09328 8.21519e-05 0)
(7.91898 -9.27657e-05 0)
(7.74783 8.90935e-05 0)
(7.57913 -9.31258e-05 0)
(7.41357 7.5532e-05 0)
(7.2504 -6.14673e-05 0)
(7.09031 7.19839e-05 0)
(6.93254 9.72276e-05 0)
(6.77764 0.000654511 0)
(6.62439 0.00262946 0)
(6.47114 0.0117915 0)
(6.29973 0.0488219 0)
(6.13394 0.222946 0)
(5.23711 0.45752 0)
(76.0935 -3.52194e-05 0)
(75.8083 -2.83527e-05 0)
(75.4594 -2.05797e-05 0)
(75.134 -1.73081e-05 0)
(74.8271 -1.47381e-05 0)
(74.5215 -1.25376e-05 0)
(74.2119 -1.08084e-05 0)
(73.8992 -9.39983e-06 0)
(73.5847 -8.24026e-06 0)
(73.2688 -7.26838e-06 0)
(72.9513 -6.44908e-06 0)
(72.6319 -5.7529e-06 0)
(72.3106 -5.15804e-06 0)
(71.9874 -4.64761e-06 0)
(71.6623 -4.20782e-06 0)
(71.3351 -3.82786e-06 0)
(71.0058 -3.4989e-06 0)
(70.6744 -3.21365e-06 0)
(70.3409 -2.9661e-06 0)
(70.0051 -2.75137e-06 0)
(69.667 -2.56505e-06 0)
(69.3267 -2.40384e-06 0)
(68.9839 -2.26444e-06 0)
(68.6388 -2.14463e-06 0)
(68.2913 -2.04184e-06 0)
(67.9412 -1.9545e-06 0)
(67.5886 -1.88093e-06 0)
(67.2335 -1.81961e-06 0)
(66.8758 -1.76952e-06 0)
(66.5154 -1.7292e-06 0)
(66.1524 -1.69761e-06 0)
(65.7867 -1.67413e-06 0)
(65.4183 -1.65777e-06 0)
(65.0471 -1.64821e-06 0)
(64.6732 -1.64468e-06 0)
(64.2964 -1.64654e-06 0)
(63.9169 -1.65324e-06 0)
(63.5345 -1.66431e-06 0)
(63.1493 -1.67938e-06 0)
(62.7612 -1.69805e-06 0)
(62.3703 -1.72033e-06 0)
(61.9765 -1.74568e-06 0)
(61.5799 -1.77419e-06 0)
(61.1803 -1.80513e-06 0)
(60.7779 -1.83888e-06 0)
(60.3727 -1.87454e-06 0)
(59.9646 -1.91234e-06 0)
(59.5537 -1.95192e-06 0)
(59.1399 -1.9929e-06 0)
(58.7234 -2.03567e-06 0)
(58.3041 -2.07966e-06 0)
(57.8821 -2.12509e-06 0)
(57.4573 -2.1719e-06 0)
(57.0299 -2.2202e-06 0)
(56.5998 -2.26928e-06 0)
(56.1672 -2.3198e-06 0)
(55.732 -2.37057e-06 0)
(55.2943 -2.42197e-06 0)
(54.8542 -2.47387e-06 0)
(54.4117 -2.52694e-06 0)
(53.9669 -2.58025e-06 0)
(53.5198 -2.63425e-06 0)
(53.0705 -2.68775e-06 0)
(52.6192 -2.74226e-06 0)
(52.1658 -2.79647e-06 0)
(51.7104 -2.85025e-06 0)
(51.2532 -2.9051e-06 0)
(50.7942 -2.95881e-06 0)
(50.3335 -3.01349e-06 0)
(49.8712 -3.06715e-06 0)
(49.4074 -3.12041e-06 0)
(48.9422 -3.17288e-06 0)
(48.4758 -3.22566e-06 0)
(48.0081 -3.27979e-06 0)
(47.5394 -3.33379e-06 0)
(47.0697 -3.38851e-06 0)
(46.5992 -3.43837e-06 0)
(46.1279 -3.48373e-06 0)
(45.656 -3.5289e-06 0)
(45.1836 -3.57431e-06 0)
(44.7108 -3.62061e-06 0)
(44.2377 -3.6658e-06 0)
(43.7645 -3.70844e-06 0)
(43.2913 -3.74648e-06 0)
(42.8181 -3.78481e-06 0)
(42.3452 -3.81947e-06 0)
(41.8726 -3.85774e-06 0)
(41.4004 -3.89785e-06 0)
(40.9289 -3.94116e-06 0)
(40.458 -3.98413e-06 0)
(39.988 -4.02156e-06 0)
(39.5189 -4.05767e-06 0)
(39.0508 -4.09208e-06 0)
(38.5839 -4.12667e-06 0)
(38.1183 -4.15986e-06 0)
(37.6541 -4.18793e-06 0)
(37.1914 -4.20931e-06 0)
(36.7302 -4.23007e-06 0)
(36.2708 -4.24611e-06 0)
(35.8132 -4.26299e-06 0)
(35.3576 -4.2782e-06 0)
(34.9039 -4.28788e-06 0)
(34.4523 -4.29087e-06 0)
(34.003 -4.2914e-06 0)
(33.5559 -4.29758e-06 0)
(33.1112 -4.31009e-06 0)
(32.669 -4.32749e-06 0)
(32.2293 -4.34867e-06 0)
(31.7922 -4.36194e-06 0)
(31.3579 -4.36421e-06 0)
(30.9262 -4.35536e-06 0)
(30.4975 -4.34377e-06 0)
(30.0716 -4.33077e-06 0)
(29.6487 -4.32056e-06 0)
(29.2288 -4.30927e-06 0)
(28.812 -4.3024e-06 0)
(28.3983 -4.29498e-06 0)
(27.9879 -4.29933e-06 0)
(27.5806 -4.29186e-06 0)
(27.1767 -4.28843e-06 0)
(26.776 -4.26565e-06 0)
(26.3787 -4.26043e-06 0)
(25.9848 -4.23885e-06 0)
(25.5944 -4.2406e-06 0)
(25.2074 -4.19931e-06 0)
(24.8239 -4.18455e-06 0)
(24.4439 -4.12202e-06 0)
(24.0675 -4.09758e-06 0)
(23.6946 -4.03066e-06 0)
(23.3253 -3.99013e-06 0)
(22.9596 -3.9032e-06 0)
(22.5975 -3.82951e-06 0)
(22.2391 -3.72928e-06 0)
(21.8843 -3.63817e-06 0)
(21.5331 -3.54285e-06 0)
(21.1856 -3.45161e-06 0)
(20.8418 -3.34662e-06 0)
(20.5016 -3.24314e-06 0)
(20.1651 -3.10514e-06 0)
(19.8323 -2.96713e-06 0)
(19.5031 -2.78319e-06 0)
(19.1776 -2.59505e-06 0)
(18.8557 -2.37076e-06 0)
(18.5375 -2.12339e-06 0)
(18.2229 -1.86562e-06 0)
(17.912 -1.56866e-06 0)
(17.6047 -1.26888e-06 0)
(17.301 -9.39314e-07 0)
(17.001 -6.03406e-07 0)
(16.7045 -2.43446e-07 0)
(16.4116 1.10043e-07 0)
(16.1222 4.98095e-07 0)
(15.8365 8.54759e-07 0)
(15.5542 1.25637e-06 0)
(15.2755 1.61292e-06 0)
(15.0002 2.00154e-06 0)
(14.7285 2.35029e-06 0)
(14.4602 2.7236e-06 0)
(14.1954 3.03719e-06 0)
(13.934 3.3897e-06 0)
(13.676 3.6708e-06 0)
(13.4214 3.96417e-06 0)
(13.1701 4.24733e-06 0)
(12.9222 4.4228e-06 0)
(12.6776 4.77976e-06 0)
(12.4364 4.71091e-06 0)
(12.1984 5.34708e-06 0)
(11.9636 4.70382e-06 0)
(11.7321 6.13017e-06 0)
(11.5038 4.16397e-06 0)
(11.2787 7.56571e-06 0)
(11.0568 2.4842e-06 0)
(10.838 1.05563e-05 0)
(10.6224 -1.44299e-06 0)
(10.4098 1.63172e-05 0)
(10.2003 -8.34824e-06 0)
(9.99393 2.47848e-05 0)
(9.79053 -1.76833e-05 0)
(9.59018 3.39571e-05 0)
(9.39278 -2.68339e-05 0)
(9.19838 4.22163e-05 0)
(9.00692 -3.64421e-05 0)
(8.81834 5.43243e-05 0)
(8.6328 -5.11495e-05 0)
(8.44996 6.82042e-05 0)
(8.27025 -6.71044e-05 0)
(8.09314 9.21893e-05 0)
(7.91911 -9.31966e-05 0)
(7.7477 0.000114979 0)
(7.57924 -0.000112838 0)
(7.41349 0.000124964 0)
(7.25045 -0.000106091 0)
(7.09033 0.000150679 0)
(6.93264 2.54766e-05 0)
(6.77806 0.000734405 0)
(6.62645 0.00265637 0)
(6.48002 0.0125128 0)
(6.34929 0.0541323 0)
(6.24919 0.266948 0)
(6.43638 0.51405 0)
(76.0935 -0.000116524 0)
(75.8083 -0.00010208 0)
(75.4594 -9.96951e-05 0)
(75.134 -0.000103957 0)
(74.8271 -0.000106454 0)
(74.5216 -0.00010807 0)
(74.2119 -0.00010949 0)
(73.8992 -0.000110623 0)
(73.5848 -0.000111587 0)
(73.2689 -0.00011239 0)
(72.9513 -0.00011307 0)
(72.6319 -0.000113648 0)
(72.3107 -0.000114146 0)
(71.9875 -0.000114579 0)
(71.6623 -0.00011496 0)
(71.3351 -0.000115299 0)
(71.0059 -0.000115603 0)