/*--------------------------------*- C++ -*----------------------------------*\
| =========                 |                                                 |
| \\      /  F ield         | OpenFOAM: The Open Source CFD Toolbox           |
|  \\    /   O peration     | Version:  3.0.x                                 |
|   \\  /    A nd           | Web:      www.OpenFOAM.org                      |
|    \\/     M anipulation  |                                                 |
\*---------------------------------------------------------------------------*/
FoamFile
{
    version     2.0;
    format      ascii;
    class       surfaceScalarField;
    location    "0.31995";
    object      phi;
}
// * * * * * * * * * * * * * * * * * * * * * * * * * * * * * * * * * * * * * //

dimensions      [1 0 -1 0 0 0 0];

internalField   nonuniform List<scalar> 
53800
(
1.97753
0.00102707
1.97684
0.0006952
1.97615
0.000688466
1.97546
0.000690028
1.97477
0.000689933
1.97408
0.000689729
1.97339
0.000689583
1.9727
0.000689458
1.97202
0.00068931
1.97133
0.00068913
1.97064
0.000689171
1.96995
0.000688943
1.96926
0.000688826
1.96857
0.000688753
1.96788
0.00068873
1.9672
0.000688616
1.96651
0.000688538
1.96583
0.000688461
1.96514
0.000688377
1.96445
0.000688249
1.96376
0.000688156
1.96307
0.00068819
1.96238
0.000687976
1.9617
0.000687881
1.96101
0.000688003
1.96032
0.000687677
1.95963
0.000687678
1.95895
0.000687596
1.95826
0.000687503
1.95757
0.000687392
1.95689
0.000687243
1.9562
0.000687032
1.95551
0.000686717
1.95483
0.000686243
1.95414
0.000685529
1.95345
0.000684428
1.95277
0.000682877
1.95209
0.000680775
1.95141
0.000677532
1.95074
0.000673212
1.95007
0.00066772
1.94941
0.000660045
1.94876
0.000650318
1.94812
0.000638304
1.9475
0.000623492
1.94689
0.000605724
1.94631
0.000584862
1.94575
0.000560872
1.94521
0.000533847
1.94471
0.000504009
1.94424
0.00047171
1.9438
0.000437415
1.9434
0.000401686
1.94303
0.000365146
1.9427
0.000328454
1.94241
0.000292268
1.94215
0.000257176
1.94193
0.000223726
1.94174
0.000192417
1.94157
0.000163551
1.94144
0.000137376
1.94132
0.000114016
1.94123
9.34925e-05
1.94115
7.57363e-05
1.94109
6.06052e-05
1.94104
4.78992e-05
1.94101
3.73875e-05
1.94098
2.88151e-05
1.94095
2.19178e-05
1.94094
1.64508e-05
1.94092
1.21783e-05
1.94091
8.87699e-06
1.94091
6.36555e-06
1.9409
4.47595e-06
1.9409
3.07626e-06
1.94089
2.05145e-06
1.94089
1.30947e-06
1.94089
7.79826e-07
1.94089
4.06057e-07
1.94088
1.44017e-07
1.94088
-3.54157e-08
1.94088
-1.54199e-07
1.94088
-2.33998e-07
1.94087
-2.85629e-07
1.94087
-3.18963e-07
1.94087
-3.4034e-07
1.94087
-3.5395e-07
1.94086
-3.62947e-07
1.94086
-3.66847e-07
1.94086
-3.72416e-07
1.94085
-3.74534e-07
1.94085
-3.76433e-07
1.94085
-3.73835e-07
1.94084
-3.78193e-07
1.94084
-3.77848e-07
1.94084
-3.78368e-07
1.94083
-3.80554e-07
1.94083
-3.77171e-07
1.94083
-3.81191e-07
1.94082
-3.81177e-07
1.94082
-3.82006e-07
1.94082
-3.8285e-07
1.94082
-3.83578e-07
1.94081
-3.84138e-07
1.94081
-3.84505e-07
1.94081
-3.84731e-07
1.9408
-3.8488e-07
1.9408
-3.85015e-07
1.9408
-3.85186e-07
1.94079
-3.85389e-07
1.94079
-3.85651e-07
1.94079
-3.85939e-07
1.94079
-3.86241e-07
1.94078
-3.86539e-07
1.94078
-3.86804e-07
1.94078
-3.87019e-07
1.94077
-3.87201e-07
1.94077
-3.87332e-07
1.94077
-3.87423e-07
1.94077
-3.87488e-07
1.94076
-3.87532e-07
1.94076
-3.87525e-07
1.94076
-3.87481e-07
1.94075
-3.87361e-07
1.94075
-3.87136e-07
1.94075
-3.86826e-07
1.94075
-3.86375e-07
1.94074
-3.85866e-07
1.94074
-3.85284e-07
1.94074
-3.84654e-07
1.94074
-3.84051e-07
1.94073
-3.83447e-07
1.94073
-3.82919e-07
1.94073
-3.82435e-07
1.94073
-3.81977e-07
1.94072
-3.81639e-07
1.94072
-3.81358e-07
1.94072
-3.81202e-07
1.94072
-3.81089e-07
1.94072
-3.81056e-07
1.94071
-3.81107e-07
1.94071
-3.81187e-07
1.94071
-3.81227e-07
1.94071
-3.81362e-07
1.94071
-3.81464e-07
1.9407
-3.81551e-07
1.9407
-3.81802e-07
1.9407
-3.81955e-07
1.9407
-3.82148e-07
1.9407
-3.8237e-07
1.9407
-3.82493e-07
1.94069
-3.8269e-07
1.94069
-3.8277e-07
1.94069
-3.82537e-07
1.94069
-3.82362e-07
1.94069
-3.81864e-07
1.94069
-3.81126e-07
1.94069
-3.80303e-07
1.94069
-3.79303e-07
1.94069
-3.77087e-07
1.9407
-3.74777e-07
1.9407
-3.71991e-07
1.94071
-3.69058e-07
1.94071
-3.60236e-07
1.94072
-3.58748e-07
1.94073
-3.53495e-07
1.94075
-3.47394e-07
1.94076
-3.40726e-07
1.94078
-3.33028e-07
1.9408
-3.24751e-07
1.94083
-3.15711e-07
1.94086
-3.05648e-07
1.94089
-2.95277e-07
1.94093
-2.83988e-07
1.94098
-2.72026e-07
1.94103
-2.59821e-07
1.94109
-2.4652e-07
1.94115
-2.33274e-07
1.94122
-2.1945e-07
1.94129
-2.05142e-07
1.94138
-1.91176e-07
1.94147
-1.76176e-07
1.94156
-1.61941e-07
1.94167
-1.4728e-07
1.94178
-1.32601e-07
1.94189
-1.19042e-07
1.94201
-1.05025e-07
1.94214
-9.11714e-08
1.94227
-7.29415e-08
1.94241
-2.67173e-08
1.94256
1.5866e-07
1.9427
1.03872e-06
1.94284
5.38072e-06
1.94297
2.69607e-05
1.94299
0.000134073
1.94248
0.000663178
1.93939
0.00324012
1.92416
0.0153856
1.84806
0.076242
0.263065
1.58514
2.27286
0.00099142
2.27287
0.000682595
2.27289
0.000669425
2.27291
0.000673071
2.27292
0.000673388
2.27294
0.000673453
2.27295
0.000673659
2.27297
0.000673891
2.27299
0.000674099
2.273
0.000674276
2.27301
0.000674663
2.27303
0.000674792
2.27304
0.000675028
2.27305
0.000675309
2.27307
0.000675633
2.27308
0.000675873
2.27309
0.000676145
2.27311
0.000676419
2.27312
0.000676685
2.27313
0.00067691
2.27314
0.000677167
2.27315
0.000677545
2.27316
0.000677686
2.27317
0.000677943
2.27317
0.000678403
2.27318
0.000678438
2.27319
0.000678783
2.2732
0.000679047
2.27321
0.000679299
2.27321
0.000679526
2.27322
0.00067971
2.27323
0.00067982
2.27323
0.00067981
2.27324
0.000679616
2.27324
0.000679148
2.27325
0.000678246
2.27325
0.000676823
2.27326
0.000674761
2.27326
0.000671461
2.27326
0.000666951
2.27327
0.000661102
2.27327
0.00065292
2.27328
0.000642505
2.27329
0.000629618
2.2733
0.000613763
2.27331
0.000594808
2.27332
0.00057265
2.27333
0.000547307
2.27335
0.000518933
2.27336
0.000487817
2.27338
0.000454378
2.27339
0.000419148
2.27341
0.000382742
2.27343
0.000345825
2.27345
0.000309079
2.27347
0.000273164
2.27349
0.00023866
2.2735
0.00020608
2.27352
0.000175878
2.27353
0.000148305
2.27355
0.00012355
2.27356
0.000101678
2.27357
8.2655e-05
2.27358
6.63643e-05
2.27358
5.26246e-05
2.27359
4.12037e-05
2.27359
3.18547e-05
2.2736
2.43102e-05
2.2736
1.83003e-05
2.2736
1.35887e-05
2.2736
9.94626e-06
2.2736
7.16099e-06
2.2736
5.06535e-06
2.2736
3.50576e-06
2.2736
2.36359e-06
2.2736
1.53662e-06
2.2736
9.44761e-07
2.27359
5.27511e-07
2.27359
2.36523e-07
2.27359
3.56449e-08
2.27358
-1.00725e-07
2.27358
-1.90808e-07
2.27358
-2.52225e-07
2.27357
-2.92308e-07
2.27357
-3.18392e-07
2.27357
-3.35294e-07
2.27356
-3.46168e-07
2.27356
-3.53484e-07
2.27355
-3.56493e-07
2.27355
-3.61419e-07
2.27354
-3.63245e-07
2.27354
-3.64958e-07
2.27353
-3.62423e-07
2.27353
-3.66581e-07
2.27352
-3.66268e-07
2.27352
-3.66734e-07
2.27351
-3.68804e-07
2.27351
-3.65519e-07
2.2735
-3.69295e-07
2.2735
-3.69255e-07
2.2735
-3.69953e-07
2.27349
-3.70699e-07
2.27349
-3.71314e-07
2.27348
-3.71776e-07
2.27348
-3.72056e-07
2.27347
-3.72198e-07
2.27347
-3.72289e-07
2.27346
-3.72347e-07
2.27346
-3.72453e-07
2.27345
-3.72602e-07
2.27345
-3.72806e-07
2.27344
-3.73038e-07
2.27344
-3.73297e-07
2.27344
-3.73555e-07
2.27343
-3.73791e-07
2.27343
-3.73981e-07
2.27342
-3.74133e-07
2.27342
-3.74253e-07
2.27341
-3.74341e-07
2.27341
-3.74392e-07
2.27341
-3.74432e-07
2.2734
-3.74424e-07
2.2734
-3.74392e-07
2.27339
-3.74293e-07
2.27339
-3.74104e-07
2.27338
-3.73835e-07
2.27338
-3.73446e-07
2.27338
-3.7302e-07
2.27337
-3.72533e-07
2.27337
-3.71994e-07
2.27336
-3.71503e-07
2.27336
-3.71012e-07
2.27336
-3.70619e-07
2.27335
-3.70263e-07
2.27335
-3.69921e-07
2.27334
-3.69699e-07
2.27334
-3.69531e-07
2.27334
-3.69477e-07
2.27333
-3.69429e-07
2.27333
-3.69444e-07
2.27333
-3.69528e-07
2.27332
-3.69637e-07
2.27332
-3.69666e-07
2.27332
-3.69746e-07
2.27331
-3.69782e-07
2.27331
-3.69801e-07
2.27331
-3.69946e-07
2.27331
-3.70004e-07
2.2733
-3.70066e-07
2.2733
-3.70168e-07
2.2733
-3.70179e-07
2.27329
-3.70255e-07
2.27329
-3.70241e-07
2.27329
-3.69917e-07
2.27329
-3.6964e-07
2.27328
-3.6908e-07
2.27328
-3.68276e-07
2.27328
-3.67381e-07
2.27328
-3.66377e-07
2.27328
-3.6422e-07
2.27328
-3.61888e-07
2.27329
-3.58912e-07
2.27329
-3.55769e-07
2.2733
-3.48089e-07
2.27331
-3.46263e-07
2.27332
-3.41082e-07
2.27333
-3.35145e-07
2.27335
-3.2867e-07
2.27337
-3.2119e-07
2.2734
-3.13146e-07
2.27343
-3.04364e-07
2.27346
-2.946e-07
2.2735
-2.84497e-07
2.27355
-2.73532e-07
2.2736
-2.61894e-07
2.27365
-2.49984e-07
2.27372
-2.37047e-07
2.27379
-2.2411e-07
2.27387
-2.10646e-07
2.27395
-1.96673e-07
2.27405
-1.83027e-07
2.27415
-1.68384e-07
2.27426
-1.54454e-07
2.27438
-1.40146e-07
2.2745
-1.25772e-07
2.27463
-1.12406e-07
2.27477
-9.84182e-08
2.27492
-8.32224e-08
2.27507
-5.72363e-08
2.27523
2.89619e-08
2.27539
4.17516e-07
2.27556
2.32288e-06
2.27572
1.17882e-05
2.27586
5.88824e-05
2.27588
0.000292638
2.27527
0.00144714
2.27162
0.00707029
2.25358
0.033598
2.1658
0.164193
0.554105
1.87492
2.61083
0.000950448
2.61085
0.000666353
2.61087
0.000646331
2.61089
0.000651655
2.61091
0.000652067
2.61093
0.000652032
2.61095
0.000652223
2.61097
0.00065246
2.611
0.000652663
2.61102
0.000652836
2.61104
0.000653202
2.61106
0.000653342
2.61108
0.000653568
2.6111
0.000653844
2.61112
0.000654156
2.61114
0.000654392
2.61117
0.000654658
2.61119
0.000654926
2.61121
0.000655187
2.61123
0.00065541
2.61125
0.000655659
2.61127
0.000656026
2.61129
0.00065617
2.61131
0.000656425
2.61133
0.000656865
2.61135
0.000656911
2.61137
0.000657246
2.61139
0.000657506
2.61141
0.000657754
2.61143
0.000657979
2.61146
0.000658162
2.61148
0.000658273
2.6115
0.000658269
2.61152
0.000658086
2.61154
0.000657637
2.61156
0.000656773
2.61158
0.000655398
2.61159
0.000653405
2.61161
0.000650218
2.61163
0.00064586
2.61165
0.000640198
2.61167
0.000632278
2.61169
0.000622209
2.61171
0.000609733
2.61173
0.000594387
2.61174
0.00057604
2.61176
0.000554592
2.61178
0.00053006
2.61179
0.000502593
2.61181
0.000472472
2.61182
0.000440102
2.61183
0.000405997
2.61184
0.000370752
2.61185
0.000335013
2.61186
0.000299434
2.61187
0.000264662
2.61187
0.000231251
2.61188
0.000199703
2.61188
0.000170454
2.61189
0.000143748
2.61189
0.000119768
2.61189
9.85788e-05
2.6119
8.01474e-05
2.6119
6.43607e-05
2.6119
5.10438e-05
2.6119
3.99728e-05
2.6119
3.09085e-05
2.6119
2.35925e-05
2.6119
1.77635e-05
2.6119
1.3193e-05
2.61189
9.65875e-06
2.61189
6.95575e-06
2.61189
4.92158e-06
2.61189
3.40747e-06
2.61189
2.2983e-06
2.61188
1.49504e-06
2.61188
9.20063e-07
2.61188
5.14607e-07
2.61187
2.31783e-07
2.61187
3.65035e-08
2.61187
-9.6119e-08
2.61186
-1.83765e-07
2.61186
-2.43523e-07
2.61185
-2.82547e-07
2.61185
-3.07948e-07
2.61184
-3.24406e-07
2.61184
-3.35003e-07
2.61183
-3.42112e-07
2.61183
-3.45102e-07
2.61182
-3.4985e-07
2.61182
-3.51662e-07
2.61181
-3.53299e-07
2.61181
-3.50905e-07
2.6118
-3.5487e-07
2.6118
-3.54605e-07
2.61179
-3.55056e-07
2.61179
-3.5702e-07
2.61178
-3.5391e-07
2.61177
-3.57482e-07
2.61177
-3.57501e-07
2.61176
-3.58166e-07
2.61176
-3.58883e-07
2.61175
-3.59472e-07
2.61175
-3.59931e-07
2.61174
-3.60196e-07
2.61174
-3.60331e-07
2.61173
-3.60415e-07
2.61173
-3.60473e-07
2.61172
-3.60575e-07
2.61172
-3.60724e-07
2.61171
-3.60924e-07
2.61171
-3.61149e-07
2.6117
-3.61397e-07
2.61169
-3.61648e-07
2.61169
-3.61873e-07
2.61168
-3.62055e-07
2.61168
-3.62197e-07
2.61167
-3.62328e-07
2.61167
-3.62412e-07
2.61166
-3.62463e-07
2.61166
-3.62503e-07
2.61165
-3.62499e-07
2.61165
-3.62466e-07
2.61164
-3.62357e-07
2.61164
-3.6219e-07
2.61164
-3.61921e-07
2.61163
-3.61553e-07
2.61163
-3.61139e-07
2.61162
-3.60662e-07
2.61162
-3.60153e-07
2.61161
-3.59676e-07
2.61161
-3.59192e-07
2.6116
-3.58807e-07
2.6116
-3.58468e-07
2.61159
-3.58144e-07
2.61159
-3.5793e-07
2.61159
-3.5777e-07
2.61158
-3.57715e-07
2.61158
-3.57661e-07
2.61157
-3.57675e-07
2.61157
-3.57762e-07
2.61157
-3.57864e-07
2.61156
-3.57901e-07
2.61156
-3.57973e-07
2.61156
-3.58003e-07
2.61155
-3.58021e-07
2.61155
-3.58163e-07
2.61154
-3.5821e-07
2.61154
-3.58265e-07
2.61154
-3.58366e-07
2.61153
-3.58388e-07
2.61153
-3.58457e-07
2.61153
-3.58454e-07
2.61153
-3.58159e-07
2.61152
-3.57872e-07
2.61152
-3.57344e-07
2.61152
-3.56555e-07
2.61152
-3.55663e-07
2.61152
-3.54743e-07
2.61152
-3.52695e-07
2.61152
-3.50392e-07
2.61153
-3.47241e-07
2.61153
-3.43898e-07
2.61154
-3.37557e-07
2.61155
-3.35338e-07
2.61156
-3.30245e-07
2.61158
-3.24479e-07
2.6116
-3.18203e-07
2.61162
-3.10971e-07
2.61165
-3.03178e-07
2.61169
-2.94673e-07
2.61172
-2.85221e-07
2.61177
-2.75424e-07
2.61182
-2.64823e-07
2.61188
-2.53563e-07
2.61194
-2.42006e-07
2.61202
-2.29502e-07
2.6121
-2.16947e-07
2.61219
-2.03941e-07
2.61229
-1.90386e-07
2.6124
-1.77177e-07
2.61251
-1.63007e-07
2.61264
-1.49499e-07
2.61277
-1.35668e-07
2.61292
-1.2173e-07
2.61307
-1.08663e-07
2.61323
-9.47948e-08
2.6134
-7.81511e-08
2.61357
-4.33974e-08
2.61376
8.74825e-08
2.61394
7.00435e-07
2.61413
3.72774e-06
2.61432
1.87817e-05
2.61449
9.36982e-05
2.61451
0.000465601
2.61386
0.00230308
2.60987
0.0112654
2.59011
0.053551
2.49263
0.26187
0.876291
2.17063
2.99905
0.000904569
2.99907
0.00064693
2.9991
0.000620106
2.99912
0.000627021
2.99915
0.000627569
2.99917
0.000627424
2.9992
0.000627597
2.99922
0.000627837
2.99925
0.000628031
2.99927
0.000628198
2.99929
0.00062854
2.99932
0.000628688
2.99934
0.0006289
2.99936
0.000629167
2.99939
0.000629463
2.99942
0.000629692
2.99944
0.000629948
2.99947
0.000630206
2.99949
0.000630457
2.99952
0.000630675
2.99954
0.000630911
2.99956
0.000631262
2.99959
0.000631404
2.99961
0.000631652
2.99963
0.000632065
2.99966
0.000632118
2.99968
0.000632438
2.9997
0.000632689
2.99973
0.000632927
2.99975
0.000633144
2.99978
0.00063332
2.9998
0.000633428
2.99982
0.000633424
2.99985
0.000633249
2.99987
0.00063282
2.99989
0.000631993
2.99991
0.000630671
2.99993
0.000628756
2.99996
0.0006257
2.99998
0.000621518
3
0.000616077
3.00002
0.000608467
3.00004
0.000598806
3.00007
0.000586817
3.00009
0.000572073
3.00011
0.000554444
3.00013
0.000533832
3.00015
0.000510254
3.00016
0.000483851
3.00018
0.000454892
3.00019
0.000423767
3.00021
0.000390968
3.00022
0.000357069
3.00023
0.000322688
3.00024
0.000288455
3.00025
0.000254994
3.00026
0.000222836
3.00026
0.000192466
3.00027
0.000164304
3.00027
0.000138585
3.00028
0.000115487
3.00028
9.50733e-05
3.00028
7.73125e-05
3.00028
6.20969e-05
3.00028
4.92588e-05
3.00028
3.85837e-05
3.00028
2.98413e-05
3.00028
2.27834e-05
3.00028
1.71587e-05
3.00028
1.27474e-05
3.00028
9.33528e-06
3.00028
6.72506e-06
3.00027
4.76014e-06
3.00027
3.29722e-06
3.00027
2.22519e-06
3.00027
1.44861e-06
3.00026
8.92611e-07
3.00026
5.00375e-07
3.00026
2.26726e-07
3.00025
3.77113e-08
3.00025
-9.07166e-08
3.00024
-1.7562e-07
3.00024
-2.33511e-07
3.00023
-2.71346e-07
3.00023
-2.95968e-07
3.00022
-3.1192e-07
3.00022
-3.22212e-07
3.00021
-3.29077e-07
3.0002
-3.32035e-07
3.0002
-3.36586e-07
3.00019
-3.38361e-07
3.00019
-3.39925e-07
3.00018
-3.37688e-07
3.00017
-3.41428e-07
3.00017
-3.41224e-07
3.00016
-3.41646e-07
3.00015
-3.43516e-07
3.00015
-3.40598e-07
3.00014
-3.43949e-07
3.00014
-3.44029e-07
3.00013
-3.44637e-07
3.00012
-3.45335e-07
3.00012
-3.45903e-07
3.00011
-3.46339e-07
3.0001
-3.46587e-07
3.0001
-3.46721e-07
3.00009
-3.46805e-07
3.00009
-3.46863e-07
3.00008
-3.46961e-07
3.00007
-3.47107e-07
3.00007
-3.47296e-07
3.00006
-3.47518e-07
3.00006
-3.47747e-07
3.00005
-3.47991e-07
3.00004
-3.48216e-07
3.00004
-3.48387e-07
3.00003
-3.48522e-07
3.00003
-3.48646e-07
3.00002
-3.48733e-07
3.00002
-3.48773e-07
3.00001
-3.4882e-07
3
-3.48813e-07
3
-3.48788e-07
2.99999
-3.48678e-07
2.99999
-3.48526e-07
2.99998
-3.4826e-07
2.99998
-3.47911e-07
2.99997
-3.47507e-07
2.99997
-3.47049e-07
2.99996
-3.4655e-07
2.99995
-3.46092e-07
2.99995
-3.45641e-07
2.99994
-3.45262e-07
2.99994
-3.44942e-07
2.99993
-3.44629e-07
2.99993
-3.44422e-07
2.99993
-3.44269e-07
2.99992
-3.44218e-07
2.99992
-3.44164e-07
2.99991
-3.44182e-07
2.99991
-3.44247e-07
2.9999
-3.44346e-07
2.9999
-3.44397e-07
2.99989
-3.44451e-07
2.99989
-3.44487e-07
2.99989
-3.44509e-07
2.99988
-3.44648e-07
2.99988
-3.44691e-07
2.99987
-3.44739e-07
2.99987
-3.44837e-07
2.99987
-3.44855e-07
2.99986
-3.44917e-07
2.99986
-3.44928e-07
2.99986
-3.44669e-07
2.99985
-3.44364e-07
2.99985
-3.43869e-07
2.99985
-3.43109e-07
2.99985
-3.42221e-07
2.99985
-3.41395e-07
2.99985
-3.39478e-07
2.99985
-3.37215e-07
2.99986
-3.33865e-07
2.99986
-3.30307e-07
2.99987
-3.25472e-07
2.99988
-3.22801e-07
2.9999
-3.1781e-07
2.99992
-3.1224e-07
2.99994
-3.06201e-07
2.99997
-2.99238e-07
3
-2.91737e-07
3.00004
-2.8357e-07
3.00008
-2.74467e-07
3.00014
-2.65023e-07
3.00019
-2.54837e-07
3.00026
-2.44007e-07
3.00034
-2.32863e-07
3.00042
-2.20862e-07
3.00051
-2.08744e-07
3.00062
-1.96254e-07
3.00073
-1.83201e-07
3.00086
-1.70479e-07
3.00099
-1.56866e-07
3.00114
-1.43842e-07
3.00129
-1.30542e-07
3.00146
-1.17103e-07
3.00163
-1.04392e-07
3.00181
-9.06584e-08
3.00201
-7.23885e-08
3.00221
-2.75759e-08
3.00242
1.54272e-07
3.00263
1.0232e-06
3.00285
5.33053e-06
3.00307
2.67605e-05
3.00326
0.00013342
3.00329
0.000662954
3.00255
0.00327997
2.99799
0.0160563
2.9755
0.0762673
2.86535
0.372242
1.23376
2.5081
3.44501
0.000853418
3.44503
0.000623661
3.44506
0.000590335
3.44509
0.000598692
3.44512
0.000599417
3.44514
0.000599156
3.44517
0.000599308
3.4452
0.000599551
3.44523
0.000599735
3.44526
0.000599895
3.44528
0.00060021
3.44531
0.000600365
3.44534
0.000600563
3.44536
0.000600821
3.44539
0.000601099
3.44542
0.000601318
3.44545
0.000601563
3.44548
0.00060181
3.44551
0.000602049
3.44554
0.00060226
3.44557
0.000602483
3.44559
0.000602815
3.44562
0.000602954
3.44565
0.000603194
3.44567
0.000603579
3.4457
0.000603638
3.44573
0.00060394
3.44575
0.000604181
3.44578
0.000604408
3.44581
0.000604615
3.44584
0.000604784
3.44586
0.000604887
3.44589
0.000604884
3.44592
0.000604719
3.44594
0.00060431
3.44597
0.000603526
3.44599
0.000602265
3.44602
0.00060044
3.44604
0.000597532
3.44607
0.00059355
3.44609
0.000588361
3.44612
0.000581107
3.44615
0.000571908
3.44617
0.000560477
3.4462
0.000546421
3.44622
0.000529612
3.44624
0.000509957
3.44626
0.000487471
3.44628
0.000462286
3.4463
0.000434659
3.44632
0.000404961
3.44633
0.000373661
3.44635
0.000341304
3.44636
0.000308484
3.44637
0.000275795
3.44638
0.000243842
3.44639
0.000213124
3.4464
0.00018411
3.4464
0.0001572
3.44641
0.000132618
3.44641
0.000110537
3.44642
9.1017e-05
3.44642
7.40302e-05
3.44642
5.94742e-05
3.44642
4.71896e-05
3.44642
3.69723e-05
3.44642
2.86024e-05
3.44642
2.18436e-05
3.44642
1.64557e-05
3.44642
1.22291e-05
3.44642
8.95864e-06
3.44641
6.45618e-06
3.44641
4.57176e-06
3.44641
3.16841e-06
3.4464
2.13964e-06
3.4464
1.39414e-06
3.4464
8.60255e-07
3.44639
4.83449e-07
3.44639
2.20509e-07
3.44638
3.88118e-08
3.44638
-8.46921e-08
3.44637
-1.66392e-07
3.44637
-2.2209e-07
3.44636
-2.5852e-07
3.44636
-2.82234e-07
3.44635
-2.97612e-07
3.44634
-3.07527e-07
3.44634
-3.14134e-07
3.44633
-3.17033e-07
3.44632
-3.21357e-07
3.44632
-3.23087e-07
3.44631
-3.24568e-07
3.4463
-3.22501e-07
3.44629
-3.26007e-07
3.44629
-3.25857e-07
3.44628
-3.26245e-07
3.44627
-3.28002e-07
3.44627
-3.25292e-07
3.44626
-3.28402e-07
3.44625
-3.28546e-07
3.44624
-3.29097e-07
3.44624
-3.29777e-07
3.44623
-3.3031e-07
3.44622
-3.30734e-07
3.44621
-3.30971e-07
3.44621
-3.31092e-07
3.4462
-3.31176e-07
3.44619
-3.31236e-07
3.44619
-3.31325e-07
3.44618
-3.31465e-07
3.44617
-3.31644e-07
3.44617
-3.31858e-07
3.44616
-3.32073e-07
3.44615
-3.32309e-07
3.44615
-3.32524e-07
3.44614
-3.3269e-07
3.44613
-3.32817e-07
3.44613
-3.32931e-07
3.44612
-3.33021e-07
3.44611
-3.33057e-07
3.44611
-3.33099e-07
3.4461
-3.33097e-07
3.44609
-3.33075e-07
3.44609
-3.32968e-07
3.44608
-3.32819e-07
3.44607
-3.32569e-07
3.44607
-3.32229e-07
3.44606
-3.31847e-07
3.44606
-3.31413e-07
3.44605
-3.30943e-07
3.44604
-3.30505e-07
3.44604
-3.30074e-07
3.44603
-3.29705e-07
3.44603
-3.29406e-07
3.44602
-3.29099e-07
3.44601
-3.28902e-07
3.44601
-3.28766e-07
3.446
-3.28713e-07
3.446
-3.2866e-07
3.44599
-3.28668e-07
3.44599
-3.28739e-07
3.44598
-3.28833e-07
3.44598
-3.28873e-07
3.44597
-3.28931e-07
3.44597
-3.28964e-07
3.44596
-3.28986e-07
3.44596
-3.29119e-07
3.44595
-3.29168e-07
3.44595
-3.29203e-07
3.44595
-3.29288e-07
3.44594
-3.29323e-07
3.44594
-3.29364e-07
3.44593
-3.29397e-07
3.44593
-3.29159e-07
3.44593
-3.28853e-07
3.44592
-3.28389e-07
3.44592
-3.27667e-07
3.44592
-3.26783e-07
3.44592
-3.26052e-07
3.44592
-3.24291e-07
3.44592
-3.22065e-07
3.44593
-3.18494e-07
3.44594
-3.14692e-07
3.44595
-3.11575e-07
3.44596
-3.08397e-07
3.44598
-3.03527e-07
3.446
-2.98189e-07
3.44603
-2.92408e-07
3.44606
-2.85772e-07
3.4461
-2.78595e-07
3.44614
-2.70808e-07
3.44619
-2.62116e-07
3.44625
-2.53074e-07
3.44632
-2.43364e-07
3.4464
-2.33025e-07
3.44648
-2.22355e-07
3.44658
-2.10926e-07
3.44669
-1.99328e-07
3.44681
-1.8742e-07
3.44694
-1.74938e-07
3.44708
-1.62787e-07
3.44723
-1.49803e-07
3.4474
-1.37343e-07
3.44758
-1.24661e-07
3.44777
-1.11788e-07
3.44797
-9.94987e-08
3.44818
-8.59054e-08
3.4484
-6.57874e-08
3.44863
-9.61882e-09
3.44887
2.30224e-07
3.44912
1.39005e-06
3.44937
7.15217e-06
3.44962
3.5829e-05
3.44984
0.000178568
3.44988
0.000887299
3.44903
0.00439086
3.44385
0.0215096
3.41828
0.102094
3.29403
0.496749
1.62959
2.89845
3.95727
0.000796541
3.9573
0.000595765
3.95733
0.000556541
3.95737
0.000566122
3.9574
0.00056706
3.95743
0.000566685
3.95746
0.000566814
3.95749
0.000567058
3.95753
0.000567233
3.95756
0.000567384
3.95759
0.000567671
3.95762
0.000567831
3.95765
0.000568013
3.95768
0.000568259
3.95772
0.000568517
3.95775
0.000568726
3.95779
0.000568957
3.95782
0.000569192
3.95785
0.000569418
3.95788
0.00056962
3.95791
0.000569828
3.95794
0.000570139
3.95798
0.000570275
3.95801
0.000570505
3.95804
0.000570858
3.95807
0.000570924
3.9581
0.000571206
3.95813
0.000571434
3.95816
0.000571649
3.95819
0.000571845
3.95823
0.000572005
3.95826
0.000572103
3.95829
0.000572101
3.95832
0.000571946
3.95835
0.000571561
3.95838
0.000570825
3.95841
0.000569634
3.95844
0.000567911
3.95846
0.000565172
3.95849
0.000561417
3.95852
0.000556518
3.95855
0.000549669
3.95858
0.000540999
3.95861
0.000530204
3.95864
0.000516935
3.95866
0.000501065
3.95869
0.000482504
3.95871
0.000461266
3.95874
0.000437476
3.95876
0.000411374
3.95878
0.00038331
3.9588
0.000353728
3.95881
0.000323141
3.95883
0.00029211
3.95884
0.000261195
3.95885
0.000230973
3.95886
0.000201911
3.95887
0.000174456
3.95888
0.000148986
3.95888
0.000125714
3.95889
0.000104804
3.95889
8.6316e-05
3.95889
7.02227e-05
3.9589
5.6429e-05
3.9589
4.47845e-05
3.9589
3.50972e-05
3.9589
2.71591e-05
3.9589
2.07473e-05
3.9589
1.56345e-05
3.95889
1.16227e-05
3.95889
8.51725e-06
3.95889
6.14047e-06
3.95889
4.35009e-06
3.95888
3.01639e-06
3.95888
2.03832e-06
3.95888
1.32931e-06
3.95887
8.21419e-07
3.95887
4.62818e-07
3.95886
2.12513e-07
3.95886
3.94948e-08
3.95885
-7.82011e-08
3.95884
-1.56078e-07
3.95884
-2.09182e-07
3.95883
-2.43933e-07
3.95882
-2.66552e-07
3.95882
-2.81228e-07
3.95881
-2.90697e-07
3.9588
-2.96987e-07
3.95879
-2.99819e-07
3.95879
-3.03887e-07
3.95878
-3.05552e-07
3.95877
-3.06933e-07
3.95876
-3.05053e-07
3.95875
-3.08301e-07
3.95874
-3.08208e-07
3.95874
-3.08558e-07
3.95873
-3.10195e-07
3.95872
-3.07708e-07
3.95871
-3.10558e-07
3.9587
-3.10761e-07
3.95869
-3.11253e-07
3.95869
-3.11904e-07
3.95868
-3.12412e-07
3.95867
-3.12806e-07
3.95866
-3.13031e-07
3.95865
-3.13149e-07
3.95864
-3.13225e-07
3.95864
-3.13282e-07
3.95863
-3.13369e-07
3.95862
-3.13496e-07
3.95861
-3.13671e-07
3.95861
-3.13865e-07
3.9586
-3.1407e-07
3.95859
-3.14295e-07
3.95858
-3.14498e-07
3.95857
-3.14656e-07
3.95857
-3.14775e-07
3.95856
-3.14886e-07
3.95855
-3.14971e-07
3.95854
-3.15009e-07
3.95854
-3.15042e-07
3.95853
-3.15043e-07
3.95852
-3.15023e-07
3.95851
-3.1492e-07
3.95851
-3.14776e-07
3.9585
-3.14543e-07
3.95849
-3.14226e-07
3.95848
-3.13862e-07
3.95848
-3.13446e-07
3.95847
-3.13012e-07
3.95846
-3.1259e-07
3.95846
-3.12188e-07
3.95845
-3.11836e-07
3.95844
-3.11551e-07
3.95844
-3.11259e-07
3.95843
-3.11074e-07
3.95843
-3.10948e-07
3.95842
-3.109e-07
3.95841
-3.10844e-07
3.95841
-3.10848e-07
3.9584
-3.10914e-07
3.9584
-3.11014e-07
3.95839
-3.11048e-07
3.95838
-3.11104e-07
3.95838
-3.11131e-07
3.95837
-3.11152e-07
3.95837
-3.11281e-07
3.95836
-3.1133e-07
3.95836
-3.11358e-07
3.95835
-3.11431e-07
3.95835
-3.11482e-07
3.95834
-3.115e-07
3.95834
-3.11556e-07
3.95833
-3.11332e-07
3.95833
-3.11026e-07
3.95833
-3.10598e-07
3.95832
-3.09917e-07
3.95832
-3.09038e-07
3.95832
-3.08425e-07
3.95832
-3.0684e-07
3.95833
-3.04658e-07
3.95833
-3.00838e-07
3.95834
-2.96773e-07
3.95835
-2.95603e-07
3.95837
-2.91838e-07
3.95839
-2.8711e-07
3.95841
-2.8204e-07
3.95844
-2.76562e-07
3.95848
-2.70302e-07
3.95852
-2.63496e-07
3.95857
-2.5613e-07
3.95863
-2.47914e-07
3.9587
-2.39344e-07
3.95878
-2.30183e-07
3.95887
-2.20411e-07
3.95897
-2.10287e-07
3.95908
-1.99509e-07
3.9592
-1.88515e-07
3.95934
-1.77273e-07
3.95949
-1.65448e-07
3.95965
-1.53953e-07
3.95983
-1.41682e-07
3.96002
-1.29885e-07
3.96023
-1.17907e-07
3.96044
-1.05692e-07
3.96068
-9.38899e-08
3.96092
-8.04739e-08
3.96117
-5.82877e-08
3.96144
1.07539e-08
3.96171
3.16067e-07
3.962
1.80456e-06
3.96229
9.21032e-06
3.96257
4.6075e-05
3.96282
0.000229581
3.96287
0.00114083
3.96192
0.00564675
3.95606
0.0276799
3.92717
0.131288
3.78789
0.636319
2.06595
3.35182
17.2636
0.000570116
17.2638
0.000461073
17.2639
0.000413633
17.264
0.000423965
17.2642
0.000425723
17.2643
0.000425064
17.2645
0.000425092
17.2646
0.000425307
17.2647
0.000425435
17.2649
0.000425545
17.265
0.000425733
17.2652
0.000425881
17.2653
0.000426007
17.2654
0.000426197
17.2656
0.000426378
17.2657
0.000426538
17.2659
0.000426711
17.266
0.000426889
17.2662
0.000427057
17.2663
0.000427216
17.2664
0.000427364
17.2666
0.000427592
17.2667
0.000427703
17.2668
0.000427883
17.267
0.000428122
17.2671
0.000428195
17.2672
0.000428399
17.2674
0.000428571
17.2675
0.000428733
17.2677
0.00042888
17.2678
0.000429001
17.2679
0.000429076
17.2681
0.000429076
17.2682
0.000428963
17.2683
0.000428679
17.2685
0.00042814
17.2686
0.000427249
17.2687
0.000425964
17.2688
0.000423937
17.269
0.000421151
17.2691
0.000417495
17.2692
0.00041239
17.2693
0.000405959
17.2695
0.000397909
17.2696
0.000388019
17.2697
0.000376187
17.2698
0.000362342
17.2699
0.000346491
17.27
0.000328726
17.2701
0.000309225
17.2702
0.000288245
17.2703
0.000266117
17.2704
0.000243223
17.2704
0.000219981
17.2705
0.000196806
17.2705
0.000174149
17.2706
0.000152332
17.2706
0.000131708
17.2706
0.000112562
17.2707
9.50521e-05
17.2707
7.93072e-05
17.2707
6.53726e-05
17.2707
5.32321e-05
17.2707
4.28163e-05
17.2707
3.40145e-05
17.2707
2.6685e-05
17.2707
2.0672e-05
17.2707
1.58102e-05
17.2707
1.19288e-05
17.2707
8.87988e-06
17.2707
6.51652e-06
17.2707
4.70567e-06
17.2707
3.33972e-06
17.2707
2.32098e-06
17.2707
1.5727e-06
17.2706
1.02947e-06
17.2706
6.39815e-07
17.2706
3.642e-07
17.2706
1.71535e-07
17.2706
3.79705e-08
17.2705
-5.26134e-08
17.2705
-1.12965e-07
17.2705
-1.54101e-07
17.2704
-1.81085e-07
17.2704
-1.98663e-07
17.2704
-2.10099e-07
17.2704
-2.17484e-07
17.2703
-2.2235e-07
17.2703
-2.24705e-07
17.2703
-2.2774e-07
17.2702
-2.29079e-07
17.2702
-2.30085e-07
17.2701
-2.28878e-07
17.2701
-2.31124e-07
17.2701
-2.31187e-07
17.27
-2.31425e-07
17.27
-2.32577e-07
17.27
-2.30906e-07
17.2699
-2.32815e-07
17.2699
-2.33127e-07
17.2698
-2.33422e-07
17.2698
-2.33922e-07
17.2698
-2.34299e-07
17.2697
-2.34589e-07
17.2697
-2.34765e-07
17.2697
-2.34853e-07
17.2696
-2.34912e-07
17.2696
-2.34957e-07
17.2696
-2.35025e-07
17.2695
-2.35127e-07
17.2695
-2.35259e-07
17.2695
-2.35408e-07
17.2694
-2.3556e-07
17.2694
-2.35726e-07
17.2694
-2.35877e-07
17.2693
-2.35995e-07
17.2693
-2.36087e-07
17.2693
-2.36166e-07
17.2692
-2.3623e-07
17.2692
-2.36259e-07
17.2692
-2.36284e-07
17.2691
-2.36284e-07
17.2691
-2.36264e-07
17.2691
-2.3619e-07
17.269
-2.36081e-07
17.269
-2.35904e-07
17.269
-2.35669e-07
17.2689
-2.3539e-07
17.2689
-2.35087e-07
17.2689
-2.34762e-07
17.2688
-2.34439e-07
17.2688
-2.3414e-07
17.2688
-2.33876e-07
17.2688
-2.33663e-07
17.2687
-2.33445e-07
17.2687
-2.33299e-07
17.2687
-2.33216e-07
17.2687
-2.3318e-07
17.2686
-2.33134e-07
17.2686
-2.33134e-07
17.2686
-2.33184e-07
17.2685
-2.33264e-07
17.2685
-2.33294e-07
17.2685
-2.33324e-07
17.2685
-2.33346e-07
17.2685
-2.3336e-07
17.2684
-2.33468e-07
17.2684
-2.33525e-07
17.2684
-2.33512e-07
17.2684
-2.33539e-07
17.2683
-2.33627e-07
17.2683
-2.3358e-07
17.2683
-2.33683e-07
17.2683
-2.33555e-07
17.2683
-2.33227e-07
17.2682
-2.32978e-07
17.2682
-2.32479e-07
17.2682
-2.31611e-07
17.2682
-2.31476e-07
17.2682
-2.30655e-07
17.2682
-2.28623e-07
17.2683
-2.23849e-07
17.2683
-2.18748e-07
17.2684
-2.25858e-07
17.2684
-2.19468e-07
17.2685
-2.15453e-07
17.2686
-2.11563e-07
17.2688
-2.07406e-07
17.2689
-2.02762e-07
17.2691
-1.97615e-07
17.2693
-1.921e-07
17.2696
-1.85948e-07
17.2699
-1.79458e-07
17.2702
-1.72649e-07
17.2706
-1.65357e-07
17.271
-1.57642e-07
17.2715
-1.49683e-07
17.2721
-1.41348e-07
17.2727
-1.33018e-07
17.2733
-1.24051e-07
17.274
-1.15469e-07
17.2748
-1.06267e-07
17.2756
-9.73841e-08
17.2765
-8.84656e-08
17.2775
-7.91338e-08
17.2785
-6.95195e-08
17.2796
-5.69858e-08
17.2807
-2.64986e-08
17.2818
9.50536e-08
17.283
6.68353e-07
17.2843
3.50219e-06
17.2855
1.76366e-05
17.2868
8.80263e-05
17.2879
0.000438468
17.2882
0.00217917
17.2844
0.0107865
17.2606
0.0528158
17.1431
0.250089
16.6262
1.15444
3.76878
14.9247
17.2636
0.000367732
17.2637
0.000313368
17.2639
0.000274438
17.264
0.000282156
17.2642
0.000284006
17.2643
0.000283379
17.2644
0.000283362
17.2646
0.000283522
17.2647
0.000283614
17.2649
0.000283691
17.265
0.000283808
17.2651
0.00028392
17.2653
0.000284003
17.2654
0.000284133
17.2656
0.00028425
17.2657
0.000284359
17.2659
0.000284475
17.266
0.000284594
17.2661
0.000284707
17.2663
0.000284815
17.2664
0.000284912
17.2666
0.00028506
17.2667
0.000285138
17.2668
0.000285261
17.267
0.00028541
17.2671
0.000285468
17.2672
0.000285601
17.2674
0.000285716
17.2675
0.000285824
17.2676
0.000285922
17.2678
0.000286003
17.2679
0.000286053
17.2681
0.000286055
17.2682
0.000285981
17.2683
0.000285794
17.2684
0.000285441
17.2686
0.00028485
17.2687
0.000283998
17.2688