/*--------------------------------*- C++ -*----------------------------------*\
| =========                 |                                                 |
| \\      /  F ield         | OpenFOAM: The Open Source CFD Toolbox           |
|  \\    /   O peration     | Version:  3.0.x                                 |
|   \\  /    A nd           | Web:      www.OpenFOAM.org                      |
|    \\/     M anipulation  |                                                 |
\*---------------------------------------------------------------------------*/
FoamFile
{
    version     2.0;
    format      ascii;
    class       volScalarField;
    location    "0.37";
    object      T;
}
// * * * * * * * * * * * * * * * * * * * * * * * * * * * * * * * * * * * * * //

dimensions      [0 0 0 1 0 0 0];

internalField   nonuniform List<scalar> 
6900
(
774.455
774.455
774.455
774.455
774.455
774.455
774.455
774.455
774.455
774.455
774.455
774.455
774.455
774.455
774.455
774.455
774.455
774.455
774.454
774.453
774.451
774.447
774.444
774.442
774.44
774.439
774.438
774.438
774.437
774.436
774.435
774.433
774.431
774.428
774.424
774.421
774.417
774.414
774.41
774.408
774.406
774.405
774.404
774.404
774.403
774.402
774.4
774.397
774.394
774.392
774.389
774.387
774.385
774.384
774.383
774.382
774.382
774.381
774.381
774.381
774.381
774.38
774.38
774.38
774.38
774.38
774.38
774.38
774.38
774.38
774.38
774.38
774.381
774.381
774.381
774.381
774.381
774.382
774.382
774.382
774.382
774.382
774.383
774.383
774.383
774.383
774.383
774.383
774.382
774.382
774.382
774.382
774.382
774.382
774.381
774.381
774.381
774.381
774.381
774.381
774.381
774.381
774.381
774.381
774.381
774.381
774.382
774.382
774.382
774.383
774.383
774.384
774.384
774.385
774.385
774.386
774.386
774.386
774.387
774.387
774.387
774.387
774.387
774.387
774.387
774.387
774.386
774.386
774.386
774.386
774.385
774.385
774.385
774.384
774.384
774.384
774.384
774.384
774.384
774.384
774.385
774.385
774.385
774.386
774.386
774.387
774.388
774.388
774.389
774.39
774.391
774.391
774.392
774.392
774.392
774.393
774.393
774.393
774.393
774.392
774.392
774.392
774.391
774.391
774.39
774.39
774.389
774.389
774.388
774.388
774.387
774.387
774.387
774.386
774.386
774.387
774.387
774.387
774.388
774.388
774.389
774.39
774.391
774.392
774.393
774.394
774.395
774.396
774.397
774.397
774.398
774.398
774.398
774.398
774.397
774.397
774.396
774.397
774.396
774.467
774.452
774.452
774.452
774.452
774.452
774.452
774.452
774.452
774.452
774.452
774.452
774.452
774.452
774.452
774.452
774.452
774.452
774.452
774.452
774.451
774.448
774.445
774.442
774.44
774.438
774.437
774.436
774.435
774.435
774.434
774.433
774.431
774.428
774.426
774.422
774.419
774.415
774.411
774.408
774.406
774.404
774.403
774.402
774.402
774.401
774.4
774.398
774.395
774.392
774.39
774.387
774.385
774.384
774.382
774.381
774.381
774.38
774.38
774.379
774.379
774.379
774.379
774.379
774.378
774.378
774.378
774.378
774.378
774.378
774.378
774.379
774.379
774.379
774.379
774.379
774.379
774.38
774.38
774.38
774.38
774.381
774.381
774.381
774.381
774.381
774.381
774.381
774.381
774.381
774.381
774.38
774.38
774.38
774.38
774.38
774.379
774.379
774.379
774.379
774.379
774.379
774.379
774.379
774.379
774.379
774.38
774.38
774.38
774.381
774.381
774.382
774.382
774.383
774.383
774.383
774.384
774.384
774.385
774.385
774.385
774.385
774.385
774.385
774.385
774.385
774.385
774.385
774.384
774.384
774.384
774.384
774.383
774.383
774.383
774.383
774.382
774.382
774.382
774.382
774.383
774.383
774.383
774.384
774.384
774.385
774.385
774.386
774.387
774.388
774.388
774.389
774.389
774.39
774.39
774.391
774.391
774.391
774.391
774.391
774.391
774.39
774.39
774.39
774.389
774.389
774.388
774.387
774.387
774.386
774.386
774.386
774.385
774.385
774.385
774.385
774.385
774.385
774.386
774.386
774.387
774.388
774.389
774.39
774.391
774.392
774.393
774.394
774.394
774.395
774.396
774.396
774.396
774.396
774.396
774.395
774.395
774.394
774.395
774.395
774.46
774.452
774.452
774.452
774.452
774.452
774.452
774.452
774.452
774.452
774.452
774.452
774.452
774.452
774.452
774.452
774.452
774.452
774.452
774.452
774.451
774.448
774.445
774.442
774.44
774.438
774.437
774.436
774.436
774.435
774.434
774.433
774.431
774.428
774.426
774.422
774.419
774.415
774.412
774.408
774.406
774.404
774.403
774.402
774.402
774.401
774.4
774.398
774.395
774.392
774.39
774.387
774.385
774.384
774.382
774.381
774.381
774.38
774.38
774.379
774.379
774.379
774.379
774.379
774.378
774.378
774.378
774.378
774.378
774.378
774.378
774.379
774.379
774.379
774.379
774.379
774.379
774.38
774.38
774.38
774.38
774.381
774.381
774.381
774.381
774.381
774.381
774.381
774.381
774.381
774.381
774.38
774.38
774.38
774.38
774.38
774.379
774.379
774.379
774.379
774.379
774.379
774.379
774.379
774.379
774.379
774.38
774.38
774.38
774.381
774.381
774.382
774.382
774.383
774.383
774.383
774.384
774.384
774.385
774.385
774.385
774.385
774.385
774.385
774.385
774.385
774.385
774.385
774.384
774.384
774.384
774.384
774.383
774.383
774.383
774.383
774.382
774.382
774.382
774.382
774.383
774.383
774.383
774.384
774.384
774.385
774.385
774.386
774.387
774.388
774.388
774.389
774.389
774.39
774.39
774.391
774.391
774.391
774.391
774.391
774.391
774.39
774.39
774.39
774.389
774.389
774.388
774.387
774.387
774.386
774.386
774.386
774.385
774.385
774.385
774.385
774.385
774.385
774.386
774.386
774.387
774.388
774.389
774.39
774.391
774.392
774.393
774.394
774.394
774.395
774.396
774.396
774.396
774.396
774.396
774.395
774.395
774.394
774.394
774.393
774.396
774.452
774.452
774.452
774.452
774.452
774.452
774.452
774.452
774.452
774.452
774.452
774.452
774.452
774.452
774.452
774.452
774.452
774.452
774.452
774.451
774.448
774.445
774.442
774.44
774.438
774.437
774.436
774.435
774.435
774.434
774.433
774.431
774.428
774.426
774.422
774.419
774.415
774.411
774.408
774.406
774.404
774.403
774.402
774.402
774.401
774.4
774.398
774.395
774.392
774.39
774.387
774.385
774.384
774.382
774.381
774.381
774.38
774.38
774.379
774.379
774.379
774.379
774.379
774.378
774.378
774.378
774.378
774.378
774.378
774.378
774.379
774.379
774.379
774.379
774.379
774.379
774.38
774.38
774.38
774.38
774.381
774.381
774.381
774.381
774.381
774.381
774.381
774.381
774.381
774.381
774.38
774.38
774.38
774.38
774.38
774.379
774.379
774.379
774.379
774.379
774.379
774.379
774.379
774.379
774.379
774.38
774.38
774.38
774.381
774.381
774.382
774.382
774.383
774.383
774.383
774.384
774.384
774.385
774.385
774.385
774.385
774.385
774.385
774.385
774.385
774.385
774.385
774.384
774.384
774.384
774.384
774.383
774.383
774.383
774.383
774.382
774.382
774.382
774.382
774.383
774.383
774.383
774.384
774.384
774.385
774.385
774.386
774.387
774.388
774.388
774.389
774.389
774.39
774.39
774.391
774.391
774.391
774.391
774.391
774.391
774.39
774.39
774.39
774.389
774.389
774.388
774.387
774.387
774.386
774.386
774.386
774.385
774.385
774.385
774.385
774.385
774.385
774.386
774.386
774.387
774.388
774.389
774.39
774.391
774.392
774.393
774.394
774.394
774.395
774.396
774.396
774.396
774.396
774.396
774.396
774.395
774.394
774.391
774.395
774.265
774.455
774.455
774.455
774.455
774.455
774.455
774.455
774.455
774.455
774.455
774.455
774.455
774.455
774.455
774.455
774.455
774.455
774.455
774.454
774.453
774.451
774.447
774.444
774.442
774.44
774.439
774.438
774.438
774.437
774.436
774.435
774.433
774.431
774.428
774.424
774.421
774.417
774.414
774.41
774.408
774.406
774.405
774.404
774.404
774.403
774.402
774.4
774.397
774.394
774.392
774.389
774.387
774.385
774.384
774.383
774.382
774.382
774.381
774.381
774.381
774.381
774.38
774.38
774.38
774.38
774.38
774.38
774.38
774.38
774.38
774.38
774.38
774.381
774.381
774.381
774.381
774.381
774.382
774.382
774.382
774.382
774.382
774.383
774.383
774.383
774.383
774.383
774.383
774.382
774.382
774.382
774.382
774.382
774.382
774.381
774.381
774.381
774.381
774.381
774.381
774.381
774.381
774.381
774.381
774.381
774.381
774.382
774.382
774.382
774.383
774.383
774.384
774.384
774.385
774.385
774.386
774.386
774.386
774.387
774.387
774.387
774.387
774.387
774.387
774.387
774.387
774.386
774.386
774.386
774.386
774.385
774.385
774.385
774.384
774.384
774.384
774.384
774.384
774.384
774.384
774.385
774.385
774.385
774.386
774.386
774.387
774.388
774.388
774.389
774.39
774.391
774.391
774.392
774.392
774.392
774.393
774.393
774.393
774.393
774.392
774.392
774.392
774.391
774.391
774.39
774.39
774.389
774.389
774.388
774.388
774.387
774.387
774.387
774.386
774.386
774.387
774.387
774.387
774.388
774.388
774.389
774.39
774.391
774.392
774.393
774.394
774.395
774.396
774.397
774.397
774.398
774.398
774.398
774.397
774.397
774.396
774.396
774.392
774.405
774.175
774.451
774.465
774.464
774.463
774.461
774.459
774.453
774.446
774.435
774.425
774.427
774.438
774.448
774.414
774.377
774.356
774.336
774.28
774.243
774.226
774.437
774.441
774.44
774.436
774.431
774.426
774.419
774.408
774.395
774.38
774.379
774.391
774.404
774.366
774.317
774.306
774.295
774.256
774.182
774.172
774.396
774.395
774.392
774.387
774.381
774.375
774.367
774.361
774.352
774.343
774.333
774.325
774.318
774.315
774.318
774.319
774.305
774.29
774.275
774.266
774.321
774.323
774.329
774.328
774.321
774.308
774.291
774.267
774.253
774.226
774.213
774.194
774.171
774.157
774.144
774.13
774.117
774.106
774.097
774.09
774.267
774.245
774.243
774.245
774.244
774.24
774.227
774.212
774.196
774.181
774.163
774.15
774.133
774.123
774.109
774.102
774.094
774.096
774.103
774.136
774.091
774.084
774.089
774.075
774.043
774.039
774.049
774.057
774.053
774.046
774.046
774.047
774.048
774.048
774.047
774.047
774.047
774.048
774.048
774.049
774.049
774.05
774.05
774.051
774.052
774.052
774.053
774.053
774.054
774.054
774.054
774.054
774.054
774.054
774.054
774.055
774.055
774.055
774.054
774.054
774.054
774.054
774.054
774.054
774.053
774.053
774.054
774.054
774.054
774.054
774.054
774.053
774.053
774.053
774.053
774.054
774.055
774.056
774.055
774.055
774.054
774.053
774.052
774.052
774.052
774.053
774.053
774.055
774.057
774.059
774.062
774.064
774.066
774.068
774.069
774.072
774.077
774.084
774.091
774.096
774.099
774.103
774.11
774.134
774.214
774.304
774.349
774.357
774.341
774.259
774.147
774.077
774.04
774.026
774.023
774.025
774.031
774.038
774.043
774.046
774.049
774.051
774.053
774.054
774.056
774.057
774.057
774.058
774.059
774.06
774.061
774.062
774.062
774.063
774.064
774.065
774.066
774.067
774.068
774.069
774.07
774.071
774.072
774.073
774.074
774.075
774.076
774.077
774.078
774.08
774.081
774.082
774.084
774.085
774.086
774.088
774.089
774.091
774.093
774.094
774.096
774.098
774.1
774.103
774.105
774.107
774.11
774.112
774.115
774.118
774.121
774.124
774.127
774.13
774.133
774.136
774.14
774.143
774.147
774.15
774.154
774.158
774.161
774.165
774.169
774.173
774.177
774.181
774.185
774.189
774.193
774.197
774.202
774.206
774.21
774.215
774.219
774.224
774.229
774.234
774.239
774.244
774.249
774.254
774.259
774.265
774.271
774.276
774.282
774.288
774.295
774.301
774.309
774.314
774.323
774.328
774.338
774.342
774.358
774.188
774.077
774.077
774.096
774.086
774.057
774.054
774.068
774.074
774.068
774.063
774.062
774.064
774.064
774.064
774.063
774.063
774.064
774.064
774.065
774.065
774.066
774.067
774.067
774.068
774.069
774.069
774.069
774.069
774.07
774.069
774.069
774.069
774.069
774.069
774.069
774.069
774.069
774.069
774.069
774.069
774.069
774.069
774.069
774.069
774.069
774.07
774.07
774.071
774.071
774.071
774.071
774.072
774.072
774.074
774.076
774.077
774.079
774.079
774.077
774.073
774.071
774.07
774.07
774.07
774.07
774.072
774.075
774.077
774.08
774.083
774.085
774.087
774.088
774.092
774.098
774.106
774.113
774.118
774.122
774.125
774.129
774.138
774.17
774.246
774.309
774.34
774.345
774.331
774.261
774.164
774.097
774.058
774.04
774.033
774.033
774.034
774.038
774.042
774.045
774.048
774.049
774.051
774.052
774.053
774.054
774.055
774.056
774.057
774.058
774.058
774.059
774.06
774.061
774.062
774.063
774.063
774.064
774.065
774.066
774.067
774.068
774.069
774.07
774.071
774.072
774.073
774.075
774.076
774.077
774.078
774.079
774.081
774.082
774.083
774.085
774.086
774.088
774.089
774.091
774.093
774.095
774.097
774.099
774.101
774.103
774.105
774.108
774.111
774.113
774.116
774.119
774.122
774.125
774.128
774.131
774.135
774.138
774.142
774.145
774.149
774.152
774.156
774.16
774.163
774.167
774.171
774.175
774.179
774.183
774.187
774.191
774.196
774.2
774.204
774.209
774.213
774.218
774.222
774.227
774.232
774.237
774.242
774.247
774.252
774.258
774.263
774.269
774.275
774.281
774.287
774.294
774.3
774.307
774.313
774.321
774.327
774.336
774.341
774.351
774.258
774.277
774.317
774.323
774.321
774.324
774.327
774.327
774.326
774.324
774.323
774.322
774.321
774.321
774.321
774.321
774.321
774.321
774.321
774.321
774.32
774.319
774.317
774.316
774.314
774.313
774.312
774.311
774.31
774.31
774.309
774.309
774.31
774.311
774.312
774.313
774.314
774.315
774.315
774.316
774.316
774.315
774.315
774.314
774.314
774.314
774.314
774.315
774.316
774.318
774.319
774.321
774.323
774.326
774.329
774.333
774.337
774.339
774.341
774.342
774.342
774.341
774.338
774.324
774.282
774.232
774.188
774.151
774.122
774.102
774.088
774.079
774.075
774.074
774.074
774.075
774.078
774.082
774.085
774.087
774.089
774.089
774.089
774.086
774.082
774.078
774.073
774.068
774.064
774.06
774.058
774.057
774.056
774.055
774.055
774.055
774.055
774.055
774.054
774.054
774.054
774.054
774.055
774.055
774.055
774.056
774.056
774.057
774.057
774.058
774.059
774.059
774.06
774.061
774.062
774.063
774.063
774.064
774.065
774.066
774.067
774.068
774.069
774.07
774.071
774.072
774.073
774.075
774.076
774.077
774.078
774.079
774.081
774.082
774.083
774.085
774.086
774.088
774.089
774.091
774.093
774.095
774.097
774.099
774.101
774.103
774.105
774.108
774.111
774.113
774.116
774.119
774.122
774.125
774.128
774.131
774.135
774.138
774.142
774.145
774.149
774.152
774.156
774.16
774.163
774.167
774.171
774.175
774.179
774.183
774.187
774.191
774.196
774.2
774.204
774.209
774.213
774.218
774.222
774.227
774.232
774.237
774.242
774.247
774.252
774.258
774.263
774.269
774.275
774.281
774.287
774.293
774.3
774.306
774.314
774.32
774.328
774.335
774.344
774.35
774.36
774.067
774.067
774.065
774.057
774.055
774.057
774.059
774.058
774.057
774.056
774.057
774.057
774.057
774.057
774.057
774.056
774.056
774.056
774.056
774.056
774.057
774.057
774.058
774.058
774.059
774.06
774.061
774.062
774.063
774.063
774.064
774.065
774.065
774.065
774.066
774.066
774.066
774.065
774.065
774.065
774.065
774.064
774.064
774.063
774.063
774.062
774.061
774.061
774.06
774.059
774.059
774.058
774.059
774.059
774.06
774.06
774.061
774.061
774.061
774.061
774.061
774.062
774.062
774.063
774.064
774.066
774.067
774.069
774.072
774.076
774.08
774.083
774.087
774.096
774.11
774.122
774.129
774.135
774.146
774.173
774.209
774.237
774.251
774.254
774.251
774.229
774.169
774.111
774.071
774.047
774.036
774.032
774.032
774.034
774.037
774.041
774.044
774.046
774.048
774.05
774.051
774.052
774.053
774.054
774.055
774.055
774.056
774.057
774.058
774.058
774.059
774.06
774.061
774.062
774.063
774.063
774.064
774.065
774.066
774.067
774.068
774.069
774.07
774.071
774.072
774.073
774.075
774.076
774.077
774.078
774.079
774.081
774.082
774.083
774.085
774.086
774.088
774.089
774.091
774.093
774.095
774.097
774.099
774.101
774.103
774.105
774.108
774.111
774.113
774.116
774.119
774.122
774.125
774.128
774.131
774.135
774.138
774.142
774.145
774.149
774.152
774.156
774.16
774.163
774.167
774.171
774.175
774.179
774.183
774.187
774.191
774.196
774.2
774.204
774.209
774.213
774.218
774.222
774.227
774.232
774.237
774.242
774.247
774.252
774.258
774.263
774.269
774.275
774.281
774.287
774.293
774.3
774.306
774.314
774.32
774.329
774.334
774.345
774.352
774.411
774.195
774.196
774.196
774.189
774.186
774.186
774.188
774.188
774.186
774.186
774.186
774.186
774.186
774.185
774.184
774.184
774.183
774.183
774.182
774.182
774.183
774.183
774.184
774.185
774.185
774.186
774.187
774.187
774.188
774.188
774.188
774.188
774.188
774.188
774.188
774.187
774.187
774.186
774.185
774.184
774.183
774.182
774.181
774.18
774.179
774.178
774.177
774.177
774.176
774.176
774.176
774.177
774.177
774.178
774.178
774.178
774.178
774.177
774.176
774.176
774.176
774.177
774.177
774.177
774.178
774.179
774.181
774.182
774.183
774.186
774.193
774.201
774.209
774.213
774.214
774.216
774.222
774.249
774.333
774.412
774.451
774.458
774.448
774.39
774.291
774.214
774.159
774.122
774.097
774.08
774.07
774.064
774.061
774.058
774.057
774.056
774.056
774.056
774.056
774.056
774.056
774.056
774.056
774.057
774.057
774.058
774.058
774.059
774.06
774.06
774.061
774.062
774.063
774.063
774.064
774.065
774.066
774.067
774.068
774.069
774.07
774.071
774.072
774.073
774.074
774.075
774.076
774.077
774.078
774.08
774.081
774.082
774.084
774.085
774.086
774.088
774.089
774.091
774.093
774.094
774.096
774.098
774.1
774.103
774.105
774.107
774.11
774.112
774.115
774.118
774.121
774.124
774.127
774.13
774.133
774.136
774.14
774.143
774.147
774.15
774.154
774.158
774.161
774.165
774.169
774.173
774.177
774.181
774.185
774.189
774.193
774.197
774.201
774.206
774.21
774.215
774.219
774.224
774.229
774.234
774.239
774.244
774.249
774.254
774.259
774.265
774.27
774.276
774.282
774.289
774.295
774.302
774.308
774.316
774.322
774.33
774.336
774.347
774.354
774.417
774.253
774.233
774.231
774.234
774.234
774.23
774.219
774.211
774.196
774.188
774.172
774.163
774.15
774.143
774.133
774.129
774.123
774.125
774.131
774.157
774.298
774.303
774.31
774.308
774.304
774.292
774.276
774.264
774.244
774.23
774.217
774.2
774.183
774.172
774.159
774.145
774.14
774.131
774.126
774.116
774.368
774.367
774.367
774.365
774.362
774.358
774.354
774.347
774.342
774.337
774.335
774.333
774.328
774.321
774.315
774.31
774.308
774.306
774.305
774.319
774.406
774.411
774.41
774.408
774.407
774.403
774.401
774.402
774.408
774.4
774.378
774.372
774.365
774.331
774.294
774.296
774.309
774.326
774.334
774.213
774.418
774.433
774.433
774.435
774.434
774.434
774.435
774.437
774.444
774.438
774.422
774.411
774.4
774.368
774.351
774.356
774.366
774.386
774.387
774.241
774.21
774.226
774.231
774.243
774.256
774.262
774.27
774.281
774.292
774.302
774.312
774.322
774.332
774.342
774.351
774.361
774.371
774.38
774.39
774.4
774.41
774.419
774.429
774.439
774.448
774.458
774.468
774.478
774.488
774.498
774.509
774.52
774.531
774.543
774.554
774.566
774.577
774.589
774.601
774.613
774.624
774.636
774.648
774.66
774.672
774.685
774.698
774.712
774.725
774.739
774.753
774.767
774.782
774.797
774.812
774.827
774.842
774.858
774.874
774.89
774.906
774.923
774.94
774.956
774.972
774.99
775.008
775.026
775.044
775.063
775.084
775.107
775.132
775.157
775.176
775.189
775.2
775.222
775.286
775.401
775.494
775.545
775.56
775.554
775.509
775.432
775.375
775.34
775.327
775.325
775.327
775.333
775.349
775.361
775.383
775.396
775.42
775.432
775.465
775.376
774.103
774.107
774.109
774.118
774.133
774.14
774.145
774.154
774.167
774.177
774.185
774.195
774.206
774.216
774.225
774.235
774.245
774.255
774.266
774.276
774.286
774.296
774.306
774.317
774.327
774.337
774.348
774.358
774.369
774.379
774.39
774.401
774.412
774.423
774.435
774.447
774.459
774.471
774.483
774.495
774.508
774.52
774.533
774.546
774.558
774.571
774.584
774.597
774.611
774.625
774.639
774.653
774.668
774.682
774.698
774.713
774.728
774.745
774.761
774.776
774.793
774.81
774.826
774.843
774.86
774.879
774.897
774.914
774.932
774.952
774.973
774.995
775.014
775.035
775.062
775.095
775.123
775.141
775.161
775.194
775.241
775.295
775.343
775.378
775.394
775.396
775.388
775.352
775.316
775.301
775.299
775.301
775.313
775.333
775.361
775.378
775.407
775.42
775.454
775.419
774.324
774.331
774.361
774.386
774.397
774.404
774.413
774.422
774.43
774.439
774.446
774.454
774.462
774.47
774.479
774.488
774.497
774.506
774.516
774.525
774.535
774.546
774.556
774.567
774.577
774.587
774.596
774.605
774.615
774.624
774.634
774.644
774.654
774.666
774.677
774.689
774.701
774.713
774.725
774.737
774.75
774.762
774.775
774.788
774.801
774.815
774.829
774.844
774.86
774.876
774.891
774.907
774.923
774.939
774.958
774.976
774.994
775.013
775.032
775.052
775.07
775.083
775.09
775.089
775.076
775.046
775.018
774.997
774.988
774.988
774.99
774.996
775.009
775.024
775.042
775.061
775.08
775.1
775.12
775.14
775.158
775.174
775.19
775.206
775.22
775.234
775.247
775.26
775.274
775.29
775.305
775.324
775.341
775.36
775.378
775.397
775.415
775.438
775.451
775.477
774.132
774.134
774.136
774.122
774.143
774.171
774.168
774.164
774.169
774.186
774.197
774.203
774.21
774.221
774.231
774.24
774.25
774.26
774.27
774.281
774.291
774.301
774.312
774.322
774.333
774.343
774.354
774.364
774.375
774.387
774.398
774.409
774.421
774.432
774.444
774.456
774.467
774.479
774.49
774.502
774.513
774.525
774.538
774.55
774.563
774.576
774.589
774.603
774.617
774.632
774.647
774.662
774.677
774.692
774.707
774.723
774.739
774.754
774.771
774.786
774.802
774.818
774.835
774.852
774.869
774.887
774.906
774.925
774.943
774.961
774.979
774.998
775.018
775.039
775.062
775.084
775.106
775.13
775.153
775.172
775.184
775.198
775.226
775.298
775.397
775.477
775.523
775.536
775.527
775.475
775.4
775.36
775.346
775.346
775.351
775.372
775.393
775.424
775.443
775.492
774.144
774.125
774.128
774.111
774.123
774.154
774.152
774.148
774.151
774.167
774.18
774.188
774.194
774.204
774.215
774.225
774.235
774.245
774.255
774.265
774.276
774.286
774.297
774.307
774.317
774.328
774.338
774.349
774.36
774.371
774.382
774.393
774.405
774.416
774.428
774.44
774.451
774.463
774.475
774.487
774.499
774.511
774.523
774.536
774.548
774.561
774.575
774.588
774.602
774.616
774.631
774.646
774.661
774.676
774.691
774.706
774.722
774.738
774.754
774.77
774.786
774.803
774.819
774.835
774.851
774.868
774.886
774.904
774.922
774.94
774.958
774.976
774.994
775.012
775.032
775.052
775.073
775.095
775.119
775.144
775.166
775.182
775.193
775.212
775.261
775.376
775.485
775.548
775.565
775.556
775.494
775.407
775.363
775.35
775.35
775.36
775.382
775.418
775.439
775.49
775.408
775.396
775.398
775.401
775.403
775.401
775.396
775.391
775.385
775.379
775.371
775.367
775.363
775.357
775.354
775.351
775.35
775.351
775.358
775.382
775.436
775.442
775.449
775.451
775.45
775.445
775.435
775.426
775.419
775.41
775.398
775.391
775.385
775.382
775.375
775.367
775.365
775.362
775.36
775.359
775.49
775.494
775.497
775.498
775.499
775.499
775.5
775.5
775.501
775.501
775.501
775.5
775.502
775.504
775.508
775.512
775.523
775.542
775.552
775.554
775.509
775.521
775.525
775.531
775.536
775.542
775.548
775.544
775.538
775.539
775.536
775.524
775.525
775.539
775.561
775.563
775.53
775.489
775.455
775.441
775.513
775.535
775.543
775.55
775.556
775.565
775.572
775.571
775.568
775.568
775.568
775.562
775.565
775.577
775.599
775.599
775.566
775.544
775.491
775.467
775.436
775.473
775.505
775.533
775.56
775.587
775.616
775.646
775.674
775.7
775.726
775.75
775.774
775.797
775.821
775.844
775.867
775.89
775.912
775.935
775.959
775.982
776.006
776.03
776.054
776.078
776.102
776.126
776.15
776.174
776.197
776.221
776.245
776.269
776.292
776.316
776.341
776.365
776.39
776.414
776.439
776.465
776.49
776.515
776.54
776.566
776.591
776.617
776.643
776.669
776.695
776.721
776.747
776.773
776.799
776.825
776.852
776.879
776.906
776.932
776.958
776.985
777.012
777.04
777.067
777.093
777.121
777.155
777.193
777.23
777.256
777.271
777.288
777.328
777.441
777.577
777.669
777.709
777.714
777.695
777.624
777.559
777.527
777.518
777.518
777.521
777.534
777.557
777.581
777.607
777.633
777.659
777.686
777.713
777.74
777.767
777.795
777.822
777.85
777.877
777.905
777.933
777.96
777.988
778.016
778.044
778.071
778.099
778.127
778.155
778.183
778.21
778.238
778.266
778.293
778.321
778.349
778.376
778.404
778.431
778.458
778.486
778.513
778.54
778.567
778.594
778.621
778.648
778.675
778.702
778.729
778.756
778.782
778.809
778.836
778.862
778.889
778.915
778.942
778.968
778.995
779.021
779.048
779.074
779.101
779.127
779.154
779.18
779.206
779.233
779.259
779.285
779.312
779.338
779.364
779.39
779.417
779.443
779.469
779.495
779.521
779.547
779.573
779.599
779.625
779.651
779.676
779.702
779.727
779.753
779.778
779.804
779.829
779.854
779.879
779.904
779.929
779.954
779.978
780.004
780.027
780.053
780.075
780.102
780.123
780.151
780.171
780.2
780.218
780.248
780.265
780.295
780.312
780.342
780.361
780.386
780.412
780.429
780.458
780.481
775.376
775.387
775.416
775.441
775.463
775.489
775.516
775.541
775.565
775.588
775.611
775.635
775.659
775.682
775.704
775.726
775.749
775.772
775.794
775.817
775.84
775.863
775.886
775.91
775.933
775.958
775.982
776.006
776.031
776.055
776.079
776.104
776.128
776.153
776.177
776.201
776.225
776.25
776.274
776.299
776.324
776.349
776.374
776.4
776.425
776.451
776.476
776.502
776.528
776.554
776.58
776.605
776.632
776.659
776.685
776.711
776.738
776.765
776.791
776.817
776.845
776.873
776.901
776.928
776.954
776.982
777.015
777.046
777.071
777.101
777.143
777.187
777.219
777.244
777.275
777.324
777.389
777.457
777.514
777.547
777.557
777.556
777.536
777.508
777.497
777.496
777.5
777.519
777.552
777.585
777.616
777.647
777.677
777.706
777.734
777.763
777.791
777.819
777.847
777.875
777.903
777.931
777.959
777.986
778.014
778.042
778.07
778.098
778.125
778.153
778.181
778.209
778.237
778.264
778.292
778.32
778.347
778.375
778.402
778.429
778.457
778.484
778.511
778.539
778.566
778.593
778.62
778.647
778.674
778.701
778.727
778.754
778.781
778.808
778.834
778.861
778.887
778.914
778.94
778.967
778.993
779.02
779.046
779.073
779.099
779.126
779.152
779.178
779.205
779.231
779.257
779.284
779.31
779.336
779.363
779.389
779.415
779.441
779.467
779.493
779.519
779.545
779.571
779.597
779.623
779.649
779.675
779.7
779.726
779.751
779.777
779.802
779.828
779.853
779.878
779.903
779.928
779.953
779.977
780.002
780.026
780.052
780.074
780.101
780.122
780.15
780.17
780.198
780.217
780.246
780.264
780.294
780.311
780.342
780.357
780.389
780.404
780.435
780.452
780.48
775.573
775.626
775.677
775.708
775.732
775.758
775.784
775.808
775.828
775.848
775.868
775.889
775.91
775.931
775.953
775.975
775.998
776.02
776.043
776.065
776.087
776.109
776.131
776.153
776.177
776.2
776.224
776.248
776.273
776.297
776.322
776.346
776.371
776.396
776.42
776.445
776.47
776.495
776.52
776.545
776.57
776.594
776.62
776.646
776.672
776.698
776.724
776.75
776.777
776.806
776.835
776.865
776.895
776.926
776.956
776.988
777.017
777.042
777.058
777.065
777.065
777.051
777.027
777.019
777.019
777.021
777.029
777.047
777.069
777.094
777.121
777.15
777.179
777.208
777.237
777.264
777.29
777.316
777.34
777.363
777.386
777.408
777.429
777.452
777.475
777.499
777.524
777.551
777.577
777.604
777.631
777.658
777.685
777.712
777.739
777.766
777.794
777.821
777.848
777.876
777.904
777.931
777.959
777.987
778.014
778.042
778.07
778.098
778.126
778.153
778.181
778.209
778.237
778.264
778.292
778.32
778.347
778.375
778.402
778.429
778.457
778.484
778.511
778.539
778.566
778.593
778.62
778.647
778.674
778.701
778.727
778.754
778.781
778.808
778.834
778.861
778.887
778.914
778.94
778.967
778.993
779.02
779.046
779.073
779.099
779.126
779.152
779.178
779.205
779.231
779.257
779.284
779.31
779.336
779.363
779.389
779.415
779.441
779.467
779.493
779.519
779.545
779.571
779.597
779.623
779.649
779.675
779.7
779.726
779.751
779.777
779.802
779.828
779.853
779.878
779.903
779.928
779.953
779.977
780.002
780.026
780.051
780.075
780.1
780.123
780.148
780.172
780.196
780.22
780.244
780.266
780.293
780.313
780.339
780.362
780.384
780.408
780.432
780.454
780.478
775.384
775.426
775.466
775.506
775.522
775.516
775.526
775.565
775.592
775.603
775.62
775.642
775.665
775.687
775.708
775.73
775.752
775.775
775.798
775.822
775.846
775.87
775.894
775.918
775.942
775.966
775.989
776.013
776.037
776.061
776.085
776.109
776.133
776.157
776.182
776.206
776.231
776.256
776.282
776.307
776.333
776.358
776.384
776.41
776.436
776.462
776.488
776.513
776.538
776.564
776.59
776.615
776.641
776.667
776.694
776.72
776.746
776.773
776.799
776.825
776.852
776.88
776.909
776.937
776.965
776.991
777.017
777.044
777.074
777.104
777.135
777.168
777.204
777.242
777.275
777.296
777.31
777.334
777.394
777.509
777.618
777.689
777.716
777.714
777.677
777.607
777.57
777.558
777.559
777.571
777.604
777.639
777.671
777.702
777.732
777.761
777.79
777.818
777.847
777.875
777.903
777.931
777.958
777.986
778.014
778.042
778.07
778.098
778.125
778.153
778.181
778.209
778.237
778.264
778.292
778.32
778.347
778.375
778.402
778.429
778.457
778.484
778.511
778.539
778.566
778.593
778.62
778.647
778.674
778.701
778.727
778.754
778.781
778.808
778.834
778.861
778.887
778.914
778.94
778.967
778.993
779.02
779.046
779.073
779.099
779.126
779.152
779.178
779.205
779.231
779.257
779.284
779.31
779.336
779.363
779.389
779.415
779.441
779.467
779.493
779.519
779.545
779.571
779.597
779.623
779.649
779.675
779.7
779.726
779.751
779.777
779.802
779.828
779.853
779.878
779.903
779.928
779.952
779.978
780.001
780.027
780.05
780.077
780.098
780.125
780.146
780.174
780.193
780.222
780.24
780.27
780.287
780.319
780.334
780.366
780.381
780.412
780.428
780.453
780.483
775.379
775.428
775.445
775.486
775.506
775.5
775.505
775.535
775.568
775.583
775.6
775.622
775.647
775.669
775.691
775.713
775.736
775.759
775.783
775.806
775.83
775.853
775.878
775.902
775.926
775.95
775.974
775.998
776.022
776.046
776.07
776.094
776.118
776.143
776.167
776.192
776.217
776.241
776.266
776.292
776.317
776.342
776.368
776.394
776.419
776.445
776.47
776.496
776.522
776.548
776.573
776.6
776.625
776.651
776.678
776.704
776.731
776.757
776.783
776.81
776.837
776.863
776.889
776.917
776.945
776.973
777.001
777.027
777.053
777.08
777.109
777.137
777.166
777.2
777.238
777.275
777.302
777.318
777.336
777.375
777.487
777.632
777.726
777.759
777.755
777.704
777.619
777.577
777.566
777.568
777.589