/*--------------------------------*- C++ -*----------------------------------*\
| =========                 |                                                 |
| \\      /  F ield         | OpenFOAM: The Open Source CFD Toolbox           |
|  \\    /   O peration     | Version:  3.0.x                                 |
|   \\  /    A nd           | Web:      www.OpenFOAM.org                      |
|    \\/     M anipulation  |                                                 |
\*---------------------------------------------------------------------------*/
FoamFile
{
    version     2.0;
    format      ascii;
    class       surfaceScalarField;
    location    "0.03";
    object      phi;
}
// * * * * * * * * * * * * * * * * * * * * * * * * * * * * * * * * * * * * * //

dimensions      [1 0 -1 0 0 0 0];

internalField   nonuniform List<scalar> 
52430
(
3.90527
0.000243577
3.90509
0.000175873
3.90492
0.000168078
3.90476
0.000167286
3.90459
0.000163406
3.90444
0.000155736
3.90429
0.0001441
3.90416
0.00012858
3.90405
0.000110039
3.90396
9.0009e-05
3.90389
7.02428e-05
3.90384
5.22716e-05
3.9038
3.71059e-05
3.90378
2.51534e-05
3.90376
1.63149e-05
3.90375
1.01489e-05
3.90374
6.0759e-06
3.90374
3.52185e-06
3.90374
1.99336e-06
3.90374
1.11914e-06
3.90373
6.4037e-07
3.90373
3.88407e-07
3.90373
2.60774e-07
3.90373
1.98421e-07
3.90373
1.68997e-07
3.90373
1.5556e-07
3.90373
1.49612e-07
3.90373
1.47056e-07
3.90373
1.45994e-07
3.90373
1.45561e-07
3.90373
1.4539e-07
3.90373
1.45326e-07
3.90373
1.45303e-07
3.90373
1.45295e-07
3.90373
1.45294e-07
3.90373
1.45292e-07
3.90373
1.45295e-07
3.90373
1.45294e-07
3.90372
1.45295e-07
3.90372
1.45299e-07
3.90372
1.45299e-07
3.90372
1.45297e-07
3.90372
1.45303e-07
3.90372
1.45301e-07
3.90372
1.45303e-07
3.90372
1.45305e-07
3.90372
1.45305e-07
3.90372
1.45306e-07
3.90372
1.45308e-07
3.90372
1.45308e-07
3.90372
1.4531e-07
3.90372
1.4531e-07
3.90372
1.45312e-07
3.90372
1.45312e-07
3.90372
1.45315e-07
3.90372
1.45314e-07
3.90372
1.45317e-07
3.90371
1.45319e-07
3.90371
1.45321e-07
3.90371
1.45321e-07
3.90371
1.45321e-07
3.90371
1.45325e-07
3.90371
1.45325e-07
3.90371
1.45325e-07
3.90371
1.45326e-07
3.90371
1.45328e-07
3.90371
1.4533e-07
3.90371
1.45332e-07
3.90371
1.45332e-07
3.90371
1.45334e-07
3.90371
1.45334e-07
3.90371
1.45334e-07
3.90371
1.45337e-07
3.90371
1.45339e-07
3.90371
1.45337e-07
3.90371
1.45341e-07
3.9037
1.45341e-07
3.9037
1.45341e-07
3.9037
1.45341e-07
3.9037
1.45343e-07
3.9037
1.45346e-07
3.9037
1.45346e-07
3.9037
1.4535e-07
3.9037
1.4535e-07
3.9037
1.45352e-07
3.9037
1.45354e-07
3.9037
1.45354e-07
3.9037
1.45352e-07
3.9037
1.45355e-07
3.9037
1.45357e-07
3.9037
1.45357e-07
3.9037
1.45361e-07
3.9037
1.45361e-07
3.9037
1.45361e-07
3.9037
1.45363e-07
3.90369
1.45365e-07
3.90369
1.45366e-07
3.90369
1.45368e-07
3.90369
1.45366e-07
3.90369
1.45368e-07
3.90369
1.4537e-07
3.90369
1.4537e-07
3.90369
1.4537e-07
3.90369
1.45374e-07
3.90369
1.45375e-07
3.90369
1.45375e-07
3.90369
1.45377e-07
3.90369
1.45377e-07
3.90369
1.45377e-07
3.90369
1.45381e-07
3.90369
1.45383e-07
3.90369
1.45383e-07
3.90369
1.45383e-07
3.90369
1.45385e-07
3.90368
1.45386e-07
3.90368
1.45386e-07
3.90368
1.45388e-07
3.90368
1.4539e-07
3.90368
1.4539e-07
3.90368
1.45394e-07
3.90368
1.45394e-07
3.90368
1.45394e-07
3.90368
1.45395e-07
3.90368
1.45395e-07
3.90368
1.45399e-07
3.90368
1.45401e-07
3.90368
1.45399e-07
3.90368
1.45403e-07
3.90368
1.45405e-07
3.90368
1.45403e-07
3.90368
1.45406e-07
3.90368
1.45405e-07
3.90368
1.45406e-07
3.90367
1.4541e-07
3.90367
1.4541e-07
3.90367
1.45412e-07
3.90367
1.45412e-07
3.90367
1.45415e-07
3.90367
1.45414e-07
3.90367
1.45417e-07
3.90367
1.45419e-07
3.90367
1.45417e-07
3.90367
1.45419e-07
3.90367
1.45423e-07
3.90367
1.45423e-07
3.90367
1.45425e-07
3.90367
1.45425e-07
3.90367
1.45425e-07
3.90367
1.45428e-07
3.90367
1.45428e-07
3.90367
1.4543e-07
3.90367
1.45432e-07
3.90367
1.45432e-07
3.90366
1.45435e-07
3.90366
1.45435e-07
3.90366
1.45437e-07
3.90366
1.45439e-07
3.90366
1.45441e-07
3.90366
1.45443e-07
3.90366
1.45445e-07
3.90366
1.45445e-07
3.90366
1.45446e-07
3.90366
1.4545e-07
3.90366
1.45452e-07
3.90366
1.45452e-07
3.90366
1.45452e-07
3.90366
1.45454e-07
3.90366
1.45457e-07
3.90366
1.45459e-07
3.90366
1.45457e-07
3.90366
1.45459e-07
3.90366
1.45461e-07
3.90366
1.45463e-07
3.90366
1.45465e-07
3.90366
1.45465e-07
3.90366
1.45468e-07
3.90366
1.4547e-07
3.90366
1.4547e-07
3.90366
1.45472e-07
3.90366
1.45474e-07
3.90366
1.45477e-07
3.90366
1.45479e-07
3.90366
1.45483e-07
3.90366
1.45486e-07
3.90365
1.4549e-07
3.90365
1.45496e-07
3.90365
1.45503e-07
3.90365
1.45512e-07
3.90365
1.45523e-07
3.90365
1.45534e-07
3.90365
1.45548e-07
3.90365
1.45568e-07
3.90364
1.45586e-07
3.90364
1.45614e-07
3.90364
1.45645e-07
3.90363
1.45683e-07
3.90363
1.45732e-07
3.90362
1.45788e-07
3.90361
1.45857e-07
3.9036
1.45938e-07
3.90359
1.46034e-07
3.90357
1.4615e-07
3.90355
1.46287e-07
3.90353
1.46443e-07
3.9035
1.46631e-07
3.90347
1.46849e-07
3.90343
1.47105e-07
3.90339
1.47398e-07
3.90333
1.4774e-07
3.90327
1.48128e-07
3.9032
1.48573e-07
3.90311
1.49079e-07
3.903
1.49648e-07
3.90289
1.50289e-07
3.90275
1.51007e-07
3.90259
1.518e-07
3.9024
1.52679e-07
3.90219
1.53643e-07
3.90195
1.54689e-07
3.90168
1.5582e-07
3.90137
1.57032e-07
3.90102
1.58321e-07
3.90063
1.59675e-07
3.9002
1.61086e-07
3.89971
1.62536e-07
3.89918
1.64006e-07
3.89858
1.65472e-07
3.89793
1.66909e-07
3.89723
1.68278e-07
3.89646
1.6955e-07
3.89562
1.70676e-07
3.89473
1.71609e-07
3.89378
1.72304e-07
3.89276
1.727e-07
3.89169
1.72749e-07
3.89056
1.72387e-07
3.88939
1.71554e-07
3.88817
1.70197e-07
3.88691
1.68258e-07
3.88563
1.65684e-07
3.88434
1.62434e-07
3.88303
1.58472e-07
3.88173
1.53765e-07
3.88045
1.48297e-07
3.87921
1.42067e-07
3.878
1.35084e-07
3.87686
1.27375e-07
3.87579
1.18982e-07
3.87481
1.09972e-07
3.87394
1.00415e-07
3.87317
9.0411e-08
3.87254
8.00646e-08
3.87204
6.95036e-08
3.87169
5.8857e-08
3.87148
4.82942e-08
3.87144
3.8679e-08
3.87155
3.04444e-08
3.87181
1.79534e-08
3.87223
8.86212e-09
3.87281
1.63163e-09
3.87352
-5.50608e-09
3.87438
-1.15124e-08
3.87535
-1.60599e-08
3.87643
-2.07147e-08
3.87761
-2.26701e-08
3.87887
-2.35941e-08
3.8802
-2.34704e-08
3.88156
-2.18333e-08
3.88296
-1.96287e-08
3.88437
-1.56833e-08
3.88578
-1.05265e-08
3.88716
-4.68754e-09
3.88852
2.13913e-09
3.88982
9.3296e-09
3.89107
1.71622e-08
3.89226
2.5786e-08
3.89337
3.44571e-08
3.8944
4.32501e-08
3.89535
5.19685e-08
3.89621
6.03886e-08
3.89699
6.89979e-08
3.89769
7.71033e-08
3.8983
8.4734e-08
3.89884
9.19008e-08
3.8993
9.82782e-08
3.89969
1.04406e-07
3.90002
1.09936e-07
3.90029
1.14822e-07
3.90052
1.19147e-07
3.90069
1.227e-07
3.90083
1.25885e-07
3.90094
1.28652e-07
3.90102
1.30936e-07
3.90107
1.32806e-07
3.9011
1.3419e-07
3.90112
1.35282e-07
3.90113
1.36173e-07
3.90113
1.36792e-07
3.90112
1.37385e-07
3.90111
1.37656e-07
3.90109
1.37787e-07
3.90107
1.37836e-07
3.90105
1.37868e-07
3.90103
1.37859e-07
3.90101
1.3779e-07
3.90099
1.37608e-07
3.90097
1.37466e-07
3.90095
1.37341e-07
3.90093
1.37234e-07
3.90091
1.37152e-07
3.9009
1.36994e-07
3.90088
1.36843e-07
3.90086
1.36712e-07
3.90085
1.36628e-07
3.90083
1.36579e-07
3.90082
1.36492e-07
3.90081
1.36379e-07
3.90079
1.36275e-07
3.90078
1.36199e-07
3.90077
1.36162e-07
3.90076
1.36111e-07
3.90075
1.36055e-07
3.90074
1.35899e-07
3.90072
1.35846e-07
3.90071
1.35798e-07
3.9007
1.35758e-07
3.9007
1.35717e-07
3.90069
1.35564e-07
3.90068
1.355e-07
3.90067
1.35431e-07
3.90067
1.35387e-07
3.90066
1.3532e-07
3.90065
1.35242e-07
3.90065
1.35136e-07
3.90065
1.34927e-07
3.90065
1.35116e-07
3.90065
1.34938e-07
3.90065
1.34916e-07
3.90065
1.34798e-07
3.90065
1.34694e-07
3.90066
1.3462e-07
3.90066
1.34638e-07
3.90067
1.34611e-07
3.90067
1.34478e-07
3.90068
1.34451e-07
3.90069
1.34411e-07
3.9007
1.34409e-07
3.90071
1.34389e-07
3.90073
1.34371e-07
3.90074
1.3434e-07
3.90075
1.34327e-07
3.90077
1.34345e-07
3.90078
1.34371e-07
3.9008
1.34385e-07
3.90082
1.34396e-07
3.90083
1.34414e-07
3.90085
1.34451e-07
3.90087
1.34505e-07
3.90089
1.34552e-07
3.90091
1.346e-07
3.90093
1.34642e-07
3.90094
1.34694e-07
3.90096
1.34765e-07
3.90098
1.34842e-07
3.901
1.34914e-07
3.90102
1.34965e-07
3.90104
1.35025e-07
3.90106
1.35104e-07
3.90108
1.35191e-07
3.90109
1.35278e-07
3.90111
1.35355e-07
3.90113
1.35424e-07
3.90115
1.35511e-07
3.90116
1.35627e-07
3.90118
1.35789e-07
3.9012
1.36035e-07
3.90121
1.36479e-07
3.90123
1.3743e-07
3.90125
1.39615e-07
3.90126
1.44801e-07
3.90128
1.57057e-07
3.90129
1.8589e-07
3.9013
2.53298e-07
3.90132
4.27084e-07
3.90133
8.25456e-07
3.90134
1.78433e-06
3.90135
4.08105e-06
3.90136
9.57632e-06
3.90135
2.27282e-05
3.9013
5.42076e-05
3.90119
0.000129578
3.90089
0.000310075
3.90017
0.000738714
3.89842
0.0017564
3.89426
0.00417811
3.88435
0.00991382
3.86089
0.0234748
3.80498
0.0559198
3.66538
0.139614
0.377942
3.28745
5.52326
0.000212986
5.52327
0.000170157
5.52328
0.0001553
5.52329
0.000155701
5.5233
0.000152816
5.52331
0.00014579
5.52332
0.000135112
5.52332
0.000120859
5.52333
0.00010374
5.52333
8.51415e-05
5.52334
6.66932e-05
5.52334
4.98348e-05
5.52334
3.55302e-05
5.52334
2.41972e-05
5.52334
1.57706e-05
5.52334
9.8593e-06
5.52334
5.93193e-06
5.52334
3.45443e-06
5.52334
1.96291e-06
5.52334
1.10449e-06
5.52334
6.31305e-07
5.52334
3.80633e-07
5.52333
2.52786e-07
5.52333
1.8989e-07
5.52333
1.59992e-07
5.52333
1.46236e-07
5.52333
1.40099e-07
5.52333
1.37443e-07
5.52333
1.36327e-07
5.52333
1.3587e-07
5.52333
1.35687e-07
5.52333
1.35618e-07
5.52333
1.35592e-07
5.52333
1.35584e-07
5.52333
1.35581e-07
5.52332
1.35579e-07
5.52332
1.35582e-07
5.52332
1.35582e-07
5.52332
1.35581e-07
5.52332
1.35587e-07
5.52332
1.35587e-07
5.52332
1.35585e-07
5.52332
1.3559e-07
5.52332
1.35588e-07
5.52332
1.35589e-07
5.52332
1.35592e-07
5.52332
1.35589e-07
5.52332
1.35595e-07
5.52331
1.35594e-07
5.52331
1.35595e-07
5.52331
1.35597e-07
5.52331
1.35597e-07
5.52331
1.35596e-07
5.52331
1.35599e-07
5.52331
1.35603e-07
5.52331
1.35603e-07
5.52331
1.35604e-07
5.52331
1.35607e-07
5.52331
1.35608e-07
5.52331
1.35607e-07
5.52331
1.35605e-07
5.52331
1.35608e-07
5.5233
1.35609e-07
5.5233
1.35609e-07
5.5233
1.35612e-07
5.5233
1.35614e-07
5.5233
1.35618e-07
5.5233
1.35619e-07
5.5233
1.35618e-07
5.5233
1.35619e-07
5.5233
1.3562e-07
5.5233
1.3562e-07
5.5233
1.35622e-07
5.5233
1.35623e-07
5.5233
1.35623e-07
5.52329
1.35625e-07
5.52329
1.35624e-07
5.52329
1.35626e-07
5.52329
1.35625e-07
5.52329
1.35627e-07
5.52329
1.35628e-07
5.52329
1.3563e-07
5.52329
1.35634e-07
5.52329
1.35633e-07
5.52329
1.35635e-07
5.52329
1.35639e-07
5.52329
1.35638e-07
5.52329
1.35637e-07
5.52329
1.35638e-07
5.52328
1.3564e-07
5.52328
1.35643e-07
5.52328
1.35647e-07
5.52328
1.35644e-07
5.52328
1.35646e-07
5.52328
1.35649e-07
5.52328
1.35647e-07
5.52328
1.35652e-07
5.52328
1.3565e-07
5.52328
1.3565e-07
5.52328
1.35649e-07
5.52328
1.35655e-07
5.52328
1.35653e-07
5.52327
1.35655e-07
5.52327
1.35656e-07
5.52327
1.35658e-07
5.52327
1.35658e-07
5.52327
1.35658e-07
5.52327
1.35658e-07
5.52327
1.3566e-07
5.52327
1.35662e-07
5.52327
1.35663e-07
5.52327
1.35663e-07
5.52327
1.35667e-07
5.52327
1.35667e-07
5.52327
1.35666e-07
5.52326
1.35668e-07
5.52326
1.35673e-07
5.52326
1.35668e-07
5.52326
1.35668e-07
5.52326
1.35672e-07
5.52326
1.3567e-07
5.52326
1.35672e-07
5.52326
1.35676e-07
5.52326
1.35678e-07
5.52326
1.35678e-07
5.52326
1.35678e-07
5.52326
1.35678e-07
5.52326
1.35678e-07
5.52326
1.35686e-07
5.52325
1.35684e-07
5.52325
1.35684e-07
5.52325
1.35685e-07
5.52325
1.35682e-07
5.52325
1.35688e-07
5.52325
1.35687e-07
5.52325
1.3569e-07
5.52325
1.35689e-07
5.52325
1.35691e-07
5.52325
1.3569e-07
5.52325
1.35693e-07
5.52325
1.35698e-07
5.52325
1.35695e-07
5.52324
1.35695e-07
5.52324
1.35699e-07
5.52324
1.35702e-07
5.52324
1.35702e-07
5.52324
1.35701e-07
5.52324
1.35704e-07
5.52324
1.35705e-07
5.52324
1.35701e-07
5.52324
1.35704e-07
5.52324
1.35708e-07
5.52324
1.3571e-07
5.52324
1.3571e-07
5.52324
1.35714e-07
5.52324
1.35713e-07
5.52324
1.35716e-07
5.52323
1.35717e-07
5.52323
1.35718e-07
5.52323
1.35718e-07
5.52323
1.3572e-07
5.52323
1.35724e-07
5.52323
1.35727e-07
5.52323
1.35728e-07
5.52323
1.35725e-07
5.52323
1.35728e-07
5.52323
1.35727e-07
5.52323
1.3573e-07
5.52323
1.35732e-07
5.52323
1.3573e-07
5.52323
1.35732e-07
5.52323
1.3574e-07
5.52323
1.35736e-07
5.52323
1.35739e-07
5.52323
1.35738e-07
5.52323
1.35741e-07
5.52323
1.35742e-07
5.52323
1.35747e-07
5.52323
1.35745e-07
5.52323
1.35745e-07
5.52323
1.35748e-07
5.52323
1.35751e-07
5.52322
1.35757e-07
5.52322
1.3576e-07
5.52322
1.35763e-07
5.52322
1.35768e-07
5.52322
1.35773e-07
5.52322
1.35782e-07
5.52322
1.35793e-07
5.52322
1.35804e-07
5.52321
1.35815e-07
5.52321
1.35831e-07
5.52321
1.35854e-07
5.5232
1.3588e-07
5.5232
1.35909e-07
5.52319
1.35944e-07
5.52318
1.35988e-07
5.52317
1.36041e-07
5.52316
1.36107e-07
5.52315
1.36182e-07
5.52313
1.3627e-07
5.52311
1.36379e-07
5.52308
1.36504e-07
5.52305
1.36652e-07
5.52301
1.36829e-07
5.52297
1.37034e-07
5.52291
1.37269e-07
5.52285
1.37545e-07
5.52277
1.37864e-07
5.52268
1.38225e-07
5.52257
1.38643e-07
5.52245
1.39114e-07
5.5223
1.39647e-07
5.52214
1.40244e-07
5.52194
1.40911e-07
5.52171
1.41656e-07
5.52145
1.42475e-07
5.52116
1.43373e-07
5.52082
1.44349e-07
5.52043
1.45407e-07
5.52
1.4654e-07
5.5195
1.47741e-07
5.51895
1.49003e-07
5.51834
1.50322e-07
5.51765
1.51672e-07
5.51689
1.53045e-07
5.51605
1.54413e-07
5.51513
1.55754e-07
5.51413
1.5703e-07
5.51304
1.58215e-07
5.51187
1.59264e-07
5.5106
1.60133e-07
5.50925
1.6078e-07
5.50782
1.61152e-07
5.5063
1.61194e-07
5.50471
1.60853e-07
5.50305
1.60074e-07
5.50132
1.58805e-07
5.49955
1.56992e-07
5.49774
1.54592e-07
5.4959
1.51556e-07
5.49406
1.47859e-07
5.49222
1.43463e-07
5.49041
1.38361e-07
5.48865
1.32544e-07
5.48695
1.26027e-07
5.48533
1.18834e-07
5.48382
1.11002e-07
5.48244
1.02595e-07
5.4812
9.36789e-08
5.48012
8.43447e-08
5.47922
7.46941e-08
5.47851
6.48415e-08
5.47801
5.49135e-08
5.47773
4.50864e-08
5.47766
3.60924e-08
5.47781
2.82007e-08
5.47819
1.70303e-08
5.47879
8.30823e-09
5.4796
1.48884e-09
5.48061
-5.20049e-09
5.48181
-1.06338e-08
5.48319
-1.49385e-08
5.48473
-1.92249e-08
5.48639
-2.11176e-08
5.48818
-2.19443e-08
5.49005
-2.1806e-08
5.49198
-2.03117e-08
5.49396
-1.82126e-08
5.49595
-1.45683e-08
5.49794
-9.7607e-09
5.4999
-4.30373e-09
5.50181
2.11912e-09
5.50366
8.80755e-09
5.50543
1.60971e-08
5.5071
2.40971e-08
5.50867
3.22116e-08
5.51013
4.04098e-08
5.51147
4.85334e-08
5.51269
5.63987e-08
5.5138
6.4395e-08
5.51478
7.1981e-08
5.51565
7.90969e-08
5.5164
8.5759e-08
5.51705
9.1728e-08
5.51761
9.74078e-08
5.51808
1.02577e-07
5.51846
1.07141e-07
5.51878
1.11161e-07
5.51903
1.14489e-07
5.51923
1.17439e-07
5.51938
1.20021e-07
5.51949
1.2216e-07
5.51956
1.23896e-07
5.51961
1.25195e-07
5.51964
1.26207e-07
5.51965
1.27038e-07
5.51965
1.2763e-07
5.51963
1.28165e-07
5.51961
1.28422e-07
5.51959
1.2855e-07
5.51956
1.28595e-07
5.51953
1.28637e-07
5.5195
1.28629e-07
5.51947
1.28557e-07
5.51944
1.28396e-07
5.51942
1.28251e-07
5.51939
1.28146e-07
5.51936
1.2805e-07
5.51934
1.2797e-07
5.51932
1.27829e-07
5.51929
1.27682e-07
5.51927
1.27567e-07
5.51925
1.27493e-07
5.51923
1.27445e-07
5.51921
1.27367e-07
5.51919
1.27254e-07
5.51917
1.2716e-07
5.51915
1.27095e-07
5.51914
1.27059e-07
5.51912
1.27013e-07
5.5191
1.26952e-07
5.51909
1.26812e-07
5.51907
1.26764e-07
5.51906
1.26719e-07
5.51904
1.26685e-07
5.51903
1.26643e-07
5.51902
1.26502e-07
5.51901
1.26442e-07
5.519
1.2638e-07
5.51899
1.26335e-07
5.51898
1.26275e-07
5.51897
1.26198e-07
5.51897
1.26101e-07
5.51897
1.25926e-07
5.51896
1.2607e-07
5.51896
1.25923e-07
5.51896
1.25894e-07
5.51897
1.25787e-07
5.51897
1.2569e-07
5.51898
1.25627e-07
5.51898
1.25637e-07
5.51899
1.25608e-07
5.519
1.25489e-07
5.51901
1.2546e-07
5.51903
1.25427e-07
5.51904
1.25422e-07
5.51906
1.25404e-07
5.51908
1.25386e-07
5.51909
1.2536e-07
5.51911
1.25347e-07
5.51914
1.25364e-07
5.51916
1.25388e-07
5.51918
1.254e-07
5.5192
1.25407e-07
5.51923
1.25431e-07
5.51925
1.25461e-07
5.51928
1.25511e-07
5.5193
1.25558e-07
5.51933
1.25603e-07
5.51936
1.25639e-07
5.51938
1.2569e-07
5.51941
1.25756e-07
5.51944
1.25829e-07
5.51946
1.25892e-07
5.51949
1.25939e-07
5.51952
1.25995e-07
5.51954
1.26068e-07
5.51957
1.2615e-07
5.51959
1.26233e-07
5.51962
1.26306e-07
5.51965
1.2638e-07
5.51967
1.26473e-07
5.51969
1.26622e-07
5.51972
1.26873e-07
5.51974
1.27331e-07
5.51976
1.28285e-07
5.51979
1.30484e-07
5.51981
1.35641e-07
5.51983
1.48002e-07
5.51985
1.77356e-07
5.51987
2.46624e-07
5.51989
4.06415e-07
5.51991
8.29173e-07
5.51993
1.78536e-06
5.51995
4.09271e-06
5.51996
9.61938e-06
5.51996
2.28498e-05
5.51995
5.44843e-05
5.51989
0.000130238
5.51973
0.000311615
5.51931
0.000745942
5.51829
0.00177757
5.51584
0.00422675
5.50998
0.0100558
5.49604
0.0238646
5.46301
0.0565243
5.38431
0.134637
5.18911
0.334829
0.866688
4.70038
7.81107
0.00017607
7.81108
0.000158488
7.81109
0.000138185
7.81111
0.000139179
7.81112
0.000137531
7.81114
0.000131406
7.81115
0.000122029
7.81116
0.000109516
7.81117
9.43838e-05
7.81117
7.78234e-05
7.81118
6.12823e-05
7.81118
4.6054e-05
7.81118
3.30382e-05
7.81118
2.26483e-05
7.81118
1.48623e-05
7.81118
9.35713e-06
7.81118
5.6694e-06
7.81118
3.32341e-06
7.81118
1.89913e-06
7.81118
1.07222e-06
7.81118
6.12308e-07
7.81118
3.66439e-07
7.81117
2.39872e-07
7.81117
1.77017e-07
7.81117
1.46849e-07
7.81117
1.32834e-07
7.81117
1.2652e-07
7.81117
1.23757e-07
7.81117
1.22587e-07
7.81117
1.22103e-07
7.81117
1.21904e-07
7.81117
1.21828e-07
7.81116
1.218e-07
7.81116
1.21791e-07
7.81116
1.21787e-07
7.81116
1.21786e-07
7.81116
1.21789e-07
7.81116
1.21788e-07
7.81116
1.21787e-07
7.81116
1.21793e-07
7.81116
1.21791e-07
7.81115
1.21791e-07
7.81115
1.21795e-07
7.81115
1.21793e-07
7.81115
1.21794e-07
7.81115
1.21797e-07
7.81115
1.21794e-07
7.81115
1.21798e-07
7.81115
1.21799e-07
7.81115
1.21799e-07
7.81114
1.218e-07
7.81114
1.21802e-07
7.81114
1.218e-07
7.81114
1.21804e-07
7.81114
1.21806e-07
7.81114
1.21807e-07
7.81114
1.21807e-07
7.81114
1.2181e-07
7.81114
1.21812e-07
7.81114
1.2181e-07
7.81113
1.21808e-07
7.81113
1.21811e-07
7.81113
1.21812e-07
7.81113
1.21813e-07
7.81113
1.21815e-07
7.81113
1.21815e-07
7.81113
1.21816e-07
7.81113
1.2182e-07
7.81113
1.2182e-07
7.81112
1.21823e-07
7.81112
1.21822e-07
7.81112
1.21822e-07
7.81112
1.21826e-07
7.81112
1.21825e-07
7.81112
1.21823e-07
7.81112
1.21825e-07
7.81112
1.21825e-07
7.81112
1.21828e-07
7.81112
1.21828e-07
7.81111
1.21828e-07
7.81111
1.2183e-07
7.81111
1.2183e-07
7.81111
1.21834e-07
7.81111
1.21832e-07
7.81111
1.21834e-07
7.81111
1.21838e-07
7.81111
1.21839e-07
7.81111
1.21839e-07
7.8111
1.21839e-07
7.8111
1.21839e-07
7.8111
1.21842e-07
7.8111
1.21845e-07
7.8111
1.21844e-07
7.8111
1.21846e-07
7.8111
1.21847e-07
7.8111
1.21846e-07
7.8111
1.2185e-07
7.8111
1.2185e-07
7.81109
1.2185e-07
7.81109
1.21848e-07
7.81109
1.21852e-07
7.81109
1.21853e-07
7.81109
1.21854e-07
7.81109
1.21857e-07
7.81109
1.21855e-07
7.81109
1.21855e-07
7.81109
1.21855e-07
7.81108
1.21856e-07
7.81108
1.21859e-07
7.81108
1.21858e-07
7.81108
1.21861e-07
7.81108
1.21861e-07
7.81108
1.21863e-07
7.81108
1.21862e-07
7.81108
1.21863e-07
7.81108
1.21864e-07
7.81108
1.21868e-07
7.81107
1.21865e-07
7.81107
1.21864e-07
7.81107
1.21867e-07
7.81107
1.21866e-07
7.81107
1.21868e-07
7.81107
1.2187e-07
7.81107
1.21873e-07
7.81107
1.21872e-07
7.81107
1.21873e-07
7.81106
1.21871e-07
7.81106
1.21871e-07
7.81106
1.21877e-07
7.81106
1.21877e-07
7.81106
1.21879e-07
7.81106
1.2188e-07
7.81106
1.21876e-07
7.81106
1.2188e-07
7.81106
1.21883e-07
7.81106
1.21884e-07
7.81105
1.21882e-07
7.81105
1.21885e-07
7.81105
1.21885e-07
7.81105
1.21887e-07
7.81105
1.21891e-07
7.81105
1.21889e-07
7.81105
1.21887e-07
7.81105
1.21891e-07
7.81105
1.21894e-07
7.81105
1.21894e-07
7.81104
1.21894e-07
7.81104
1.21896e-07
7.81104
1.21897e-07
7.81104
1.21895e-07
7.81104
1.21896e-07
7.81104
1.21898e-07
7.81104
1.21903e-07
7.81104
1.21903e-07
7.81104
1.21905e-07
7.81104
1.21905e-07
7.81103
1.21907e-07
7.81103
1.21906e-07
7.81103
1.2191e-07
7.81103
1.21909e-07
7.81103
1.21912e-07
7.81103
1.21914e-07
7.81103
1.21914e-07
7.81103
1.21917e-07
7.81103
1.21915e-07
7.81103
1.21918e-07
7.81103
1.21917e-07
7.81103
1.21921e-07
7.81103
1.21923e-07
7.81103
1.21921e-07
7.81103
1.21923e-07
7.81103
1.21927e-07
7.81102
1.21926e-07
7.81102
1.21929e-07
7.81102
1.21926e-07
7.81102
1.21929e-07
7.81102
1.21931e-07
7.81102
1.21933e-07
7.81102
1.21933e-07
7.81102
1.21935e-07
7.81102
1.21937e-07
7.81102
1.2194e-07
7.81102
1.21943e-07
7.81102
1.21946e-07
7.81102
1.2195e-07
7.81102
1.21954e-07
7.81102
1.21959e-07
7.81101
1.21966e-07
7.81101
1.21976e-07
7.81101
1.21985e-07
7.81101
1.21997e-07
7.811
1.22012e-07
7.811
1.22032e-07
7.81099
1.22056e-07
7.81098
1.22081e-07
7.81097
1.22112e-07
7.81096
1.2215e-07
7.81095
1.22198e-07
7.81093
1.22258e-07
7.81091
1.22326e-07
7.81088
1.22405e-07
7.81085
1.22501e-07
7.81082
1.22615e-07
7.81077
1.22748e-07
7.81072
1.22908e-07
7.81065
1.23091e-07
7.81058
1.23304e-07
7.81048
1.23551e-07
7.81038
1.23836e-07
7.81025
1.24162e-07
7.8101
1.24538e-07
7.80992
1.24961e-07
7.80972
1.25439e-07
7.80948
1.25975e-07
7.8092
1.26575e-07
7.80888
1.27244e-07
7.80852
1.2798e-07
7.8081
1.28787e-07
7.80762
1.29665e-07
7.80707
1.30613e-07
7.80645
1.31631e-07
7.80576
1.32712e-07
7.80498
1.33846e-07
7.8041
1.3503e-07
7.80313
1.36244e-07
7.80206
1.37477e-07
7.80088
1.38704e-07
7.79958
1.39908e-07
7.79816
1.41053e-07
7.79662
1.42117e-07
7.79496
1.43059e-07
7.79317
1.43839e-07
7.79126
1.44419e-07
7.78923
1.44752e-07
7.78708
1.44789e-07
7.78483
1.4448e-07
7.78248
1.43779e-07
7.78005
1.42638e-07
7.77754
1.41007e-07
7.77498
1.38848e-07
7.77238
1.3612e-07
7.76977
1.32799e-07
7.76718
1.28849e-07
7.76462
1.24263e-07
7.76212
1.19038e-07
7.75972
1.13183e-07
7.75743
1.06721e-07
7.7553
9.96865e-08
7.75334
9.21341e-08
7.75158
8.41255e-08
7.75006
7.57432e-08
7.74879
6.70748e-08
7.74779
5.82254e-08
7.74708
4.93164e-08
7.74667
4.05184e-08
7.74658
3.24103e-08
7.7468
2.50911e-08
7.74733
1.55774e-08
7.74817
7.4856e-09
7.74932
1.24783e-09
7.75075
-4.77712e-09
7.75246
-9.38599e-09
7.75441
-1.34187e-08
7.75657
-1.72031e-08
7.75893
-1.89725e-08
7.76145
-1.96874e-08
7.7641
-1.95346e-08
7.76683
-1.82304e-08
7.76963
-1.62995e-08
7.77245
-1.30649e-08
7.77526
-8.77299e-09
7.77803
-3.87081e-09
7.78074
2.05773e-09
7.78335
8.01083e-09
7.78585
1.45064e-08
7.78822
2.16105e-08
7.79044
2.89465e-08
7.7925
3.63048e-08
7.7944
4.36057e-08
7.79613
5.06857e-08
7.79768
5.78361e-08
7.79907
6.46673e-08
7.8003
7.1067e-08
7.80137
7.70151e-08
7.80229
8.24148e-08
7.80308
8.74788e-08
7.80374
9.21264e-08
7.80429
9.62327e-08
7.80473
9.98375e-08
7.80509
1.02839e-07
7.80537
1.05472e-07
7.80558
1.07788e-07
7.80573
1.09717e-07
7.80584
1.11268e-07
7.80591
1.12448e-07
7.80595
1.13352e-07
7.80596
1.14096e-07
7.80596
1.14639e-07
7.80594
1.15102e-07
7.80591
1.1534e-07
7.80588
1.1546e-07
7.80584
1.155e-07
7.8058
1.15545e-07
7.80576
1.15537e-07
7.80572
1.15464e-07
7.80567
1.15331e-07
7.80563
1.15189e-07
7.8056
1.15106e-07
7.80556
1.15021e-07
7.80552
1.14944e-07
7.80549
1.14821e-07
7.80546
1.14684e-07
7.80543
1.14585e-07
7.8054
1.1452e-07
7.80537
1.14477e-07
7.80534
1.14407e-07
7.80531
1.14305e-07
7.80529
1.14221e-07
7.80526
1.14165e-07
7.80524
1.1413e-07
7.80521
1.14088e-07
7.80519
1.14029e-07
7.80517
1.1391e-07
7.80515
1.13869e-07
7.80513
1.13829e-07
7.80511
1.13795e-07
7.80509
1.1375e-07
7.80507
1.13631e-07
7.80506
1.13576e-07
7.80504
1.13524e-07
7.80503
1.13483e-07
7.80502
1.1343e-07
7.80501
1.13356e-07
7.805
1.13268e-07
7.805
1.13133e-07
7.80499
1.13226e-07
7.80499
1.13117e-07
7.80499
1.13081e-07
7.805
1.1299e-07
7.805
1.12902e-07
7.80501
1.1285e-07
7.80502
1.12851e-07
7.80503
1.12824e-07
7.80505
1.12727e-07
7.80506
1.12694e-07
7.80508
1.12668e-07
7.8051
1.12661e-07
7.80513
1.12645e-07
7.80515
1.12627e-07
7.80518
1.12603e-07
7.80521
1.12595e-07
7.80524
1.1261e-07
7.80527
1.1263e-07
7.8053
1.12641e-07
7.80533
1.12649e-07
7.80537
1.12671e-07
7.8054
1.12696e-07
7.80544
1.12742e-07
7.80547
1.12784e-07
7.80551
1.12826e-07
7.80555
1.12856e-07
7.80559
1.12902e-07
7.80562
1.12962e-07
7.80566
1.13026e-07
7.8057
1.13081e-07
7.80574
1.13125e-07
7.80578
1.13175e-07
7.80581
1.13243e-07
7.80585
1.13316e-07
7.80589
1.13393e-07
7.80592
1.13462e-07
7.80596
1.13539e-07
7.80599
1.13649e-07
7.80603
1.13839e-07
7.80606
1.14206e-07
7.80609
1.14961e-07
7.80613
1.16626e-07
7.80616
1.20554e-07
7.80619
1.29834e-07
7.80622
1.52133e-07
7.80625
2.052e-07
7.80628
3.30624e-07
7.80631
6.20572e-07
7.80633
1.38388e-06
7.80636
3.11525e-06
7.80638
7.29167e-06
7.8064
1.72946e-05
7.80641
4.12464e-05
7.80639
9.84947e-05
7.80631
0.000235612
7.80609
0.000563897
7.80551
0.00134992
7.80409
0.00321788
7.80069
0.00765155
7.79257
0.0182062
7.77324
0.0432147
7.72743
0.102361
7.61855
0.243533
7.35225
0.601154
1.49289
6.72608
34.4797
7.15636e-05
34.4797
8.15381e-05
34.4798
6.92547e-05
34.4799
6.89023e-05
34.4799
6.92317e-05
34.48
6.67315e-05
34.48
6.2268e-05
34.4801
5.62564e-05
34.4801
4.88746e-05
34.4802
4.06398e-05
34.4802
3.22785e-05
34.4802
2.44713e-05
34.4802
1.7711e-05
34.4802
1.22484e-05
34.4802
8.10726e-06
34.4802
5.14707e-06
34.4802
3.1439e-06
34.4802
1.85568e-06
34.4802
1.06628e-06
34.4802
6.03473e-07
34.4802
3.43516e-07
34.4802
2.03196e-07
34.4802
1.30254e-07
34.4802
9.3667e-08
34.4802
7.59264e-08
34.4802
6.75957e-08
34.4802
6.38006e-08
34.4802
6.21196e-08
34.4802
6.13977e-08
34.4802
6.10955e-08
34.4802
6.09705e-08
34.4802
6.09211e-08
34.4801
6.0902e-08
34.4801
6.08957e-08
34.4801
6.08934e-08
34.4801
6.08929e-08
34.4801
6.08936e-08
34.4801
6.08932e-08
34.4801
6.08934e-08
34.4801
6.08957e-08
34.4801
6.08957e-08
34.4801
6.08957e-08
34.4801
6.0897e-08
34.4801
6.08964e-08
34.4801
6.08968e-08
34.4801
6.08973e-08
34.4801
6.0897e-08
34.4801
6.08986e-08
34.4801
6.08989e-08
34.4801
6.08991e-08
34.4801
6.09007e-08
34.4801
6.09e-08
34.4801
6.08995e-08
34.48
6.09011e-08
34.48
6.09032e-08
34.48
6.09032e-08
34.48
6.09032e-08
34.48
6.09041e-08
34.48
6.09052e-08
34.48
6.09041e-08
34.48
6.09039e-08
34.48
6.0905e-08
34.48
6.09054e-08
34.48
6.09059e-08
34.48
6.09068e-08
34.48
6.0907e-08
34.48
6.09075e-08
34.48
6.09093e-08
34.48
6.09098e-08
34.48
6.09111e-08
34.48
6.09098e-08
34.48
6.09105e-08
34.48
6.09127e-08
34.48
6.09123e-08
34.48
6.09118e-08
34.4799
6.09123e-08
34.4799
6.09123e-08
34.4799
6.09134e-08
34.4799
6.09132e-08
34.4799
6.09139e-08
34.4799
6.09139e-08
34.4799
6.09143e-08
34.4799
6.09166e-08
34.4799
6.09161e-08
34.4799
6.09168e-08
34.4799
6.09182e-08
34.4799
6.09191e-08
34.4799
6.09193e-08
34.4799
6.09193e-08
34.4799
6.09193e-08
34.4799
6.09202e-08
34.4799
6.09225e-08
34.4799
6.0922e-08
34.4799
6.09234e-08
34.4799
6.09243e-08
34.4799
6.09234e-08
34.4798
6.09248e-08
34.4798
6.0925e-08
34.4798
6.09243e-08
34.4798
6.09241e-08
34.4798
6.09257e-08
34.4798
6.09255e-08
34.4798
6.09266e-08
34.4798
6.09268e-08
34.4798
6.09277e-08
34.4798
6.09273e-08
34.4798
6.09268e-08
34.4798
6.09277e-08
34.4798
6.09289e-08
34.4798
6.09289e-08
34.4798
6.09305e-08
34.4798
6.09307e-08
34.4798
6.09318e-08
34.4798
6.09309e-08
34.4798
6.09307e-08
34.4798
6.09316e-08
34.4798
6.09332e-08
34.4797
6.09325e-08
34.4797
6.09314e-08
34.4797
6.09327e-08
34.4797
6.0933e-08
34.4797
6.09343e-08
34.4797
6.09357e-08
34.4797
6.09366e-08
34.4797
6.09364e-08
34.4797
6.09357e-08
34.4797
6.09352e-08
34.4797
6.09357e-08
34.4797
6.0938e-08
34.4797
6.09389e-08
34.4797
6.09393e-08
34.4797
6.094e-08
34.4797
6.09386e-08
34.4797
6.09393e-08
34.4797
6.09405e-08
34.4797
6.09411e-08
34.4797
6.09414e-08
34.4797
6.09416e-08
34.4797
6.09425e-08
34.4796
6.09441e-08
34.4796
6.09459e-08
34.4796
6.09448e-08
34.4796
6.09436e-08
34.4796
6.09452e-08
34.4796
6.09466e-08
34.4796
6.09471e-08
34.4796
6.09475e-08
34.4796
6.09475e-08
34.4796
6.09477e-08
34.4796
6.09471e-08
34.4796
6.09471e-08
34.4796
6.09489e-08
34.4796
6.09514e-08
34.4796
6.09521e-08
34.4796
6.09525e-08
34.4796
6.09527e-08
34.4796
6.09532e-08
34.4796
6.09532e-08
34.4796
6.09546e-08
34.4796
6.09552e-08
34.4796
6.09562e-08
34.4796
6.09568e-08
34.4796
6.09568e-08
34.4796
6.09577e-08
34.4796
6.09568e-08
34.4795
6.09582e-08
34.4795
6.0958e-08
34.4795
6.09593e-08
34.4795
6.09602e-08
34.4795
6.09602e-08
34.4795
6.09618e-08
34.4795
6.09634e-08
34.4795
6.09632e-08
34.4795
6.09643e-08
34.4795
6.09637e-08
34.4795
6.09643e-08
34.4795
6.09655e-08
34.4795
6.09657e-08
34.4795
6.09655e-08
34.4795
6.09668e-08
34.4795
6.0968e-08
34.4795
6.097e-08
34.4795
6.09712e-08
34.4795
6.09728e-08
34.4795
6.09748e-08
34.4795
6.09764e-08
34.4795
6.09789e-08
34.4795
6.09828e-08
34.4795
6.09875e-08
34.4795
6.09919e-08
34.4794
6.09975e-08
34.4794
6.10055e-08
34.4794
6.1015e-08
34.4794
6.10275e-08
34.4793
6.10407e-08
34.4793
6.10564e-08
34.4793
6.10746e-08
34.4792
6.10989e-08
34.4791
6.1129e-08
34.479
6.11626e-08
34.4789
6.12026e-08
34.4788
6.12501e-08
34.4786
6.13068e-08
34.4784
6.13734e-08
34.4782
6.1453e-08
34.4779
6.15451e-08
34.4775
6.16512e-08
34.4771
6.17752e-08
34.4767
6.19175e-08
34.4761
6.20807e-08
34.4754
6.22692e-08
34.4747
6.24816e-08
34.4738
6.27192e-08
34.4727
6.29877e-08
34.4715
6.32876e-08
34.4701
6.36219e-08
34.4685
6.39902e-08
34.4666
6.43931e-08
34.4645
6.48324e-08
34.4621
6.53063e-08
34.4593
6.58149e-08
34.4563
6.63551e-08
34.4528
6.69227e-08
34.449
6.75141e-08
34.4447
6.81209e-08
34.44
6.87353e-08
34.4347
6.93492e-08
34.429
6.99499e-08
34.4227
7.0522e-08
34.416
7.10531e-08
34.4086
7.15243e-08
34.4007
7.19144e-08
34.3923
7.22039e-08
34.3833
7.23696e-08
34.3739
7.23883e-08
34.3639
7.22321e-08
34.3535
7.18805e-08
34.3428
7.13092e-08
34.3317
7.04943e-08
34.3204
6.9414e-08
34.309
6.80509e-08
34.2974
6.6389e-08
34.286
6.44136e-08
34.2747
6.21217e-08
34.2637
5.95096e-08
34.253
5.65817e-08
34.243
5.33514e-08
34.2335
4.98358e-08
34.2249
4.60598e-08
34.2171
4.2058e-08
34.2104
3.78677e-08
34.2048
3.35344e-08
34.2004
2.9112e-08
34.1973
2.46639e-08
34.1955
2.02876e-08
34.1951
1.61867e-08
34.196
1.23273e-08
34.1984
7.95694e-09
34.2021
3.73848e-09
34.2072
6.08452e-10
34.2135
-2.20621e-09
34.221
-4.51291e-09
34.2296
-6.82303e-09
34.2392
-8.57949e-09
34.2496
-9.50445e-09
34.2607
-9.85324e-09
34.2724
-9.74819e-09
34.2845
-9.12109e-09
34.2968
-8.12156e-09
34.3092
-6.51312e-09
34.3217
-4.35648e-09
34.3339
-1.85878e-09
34.3458
1.13255e-09
34.3574
3.82465e-09
34.3684
7.21298e-09