/*--------------------------------*- C++ -*----------------------------------*\
| =========                 |                                                 |
| \\      /  F ield         | OpenFOAM: The Open Source CFD Toolbox           |
|  \\    /   O peration     | Version:  3.0.x                                 |
|   \\  /    A nd           | Web:      www.OpenFOAM.org                      |
|    \\/     M anipulation  |                                                 |
\*---------------------------------------------------------------------------*/
FoamFile
{
    version     2.0;
    format      ascii;
    class       surfaceScalarField;
    location    "0.07";
    object      phi;
}
// * * * * * * * * * * * * * * * * * * * * * * * * * * * * * * * * * * * * * //

dimensions      [1 0 -1 0 0 0 0];

internalField   nonuniform List<scalar> 
26210
(
3.90471
0.000503913
3.9039
0.000346392
3.90306
0.000338765
3.90219
0.000339597
3.90129
0.000336565
3.90033
0.000329948
3.89934
0.000318272
3.89829
0.00030001
3.8972
0.000274588
3.89607
0.000242718
3.8949
0.000206356
3.89369
0.000168275
3.89245
0.000131407
3.89117
9.82067e-05
3.88987
7.02527e-05
3.88854
4.81434e-05
3.8872
3.16509e-05
3.88585
2.00055e-05
3.88452
1.21959e-05
3.88323
7.20612e-06
3.88198
4.15887e-06
3.88081
2.37344e-06
3.87975
1.36466e-06
3.8788
8.1048e-07
3.878
5.10139e-07
3.87736
3.45368e-07
3.8769
2.50082e-07
3.87663
1.8924e-07
3.87656
1.46742e-07
3.87668
1.22018e-07
3.87698
8.01483e-08
3.87747
5.32636e-08
3.87814
3.18287e-08
3.87896
1.02009e-08
3.87991
-3.45244e-09
3.88098
-1.36315e-08
3.88213
-2.09657e-08
3.88334
-2.07765e-08
3.88457
-1.84154e-08
3.8858
-1.0994e-08
3.88701
1.42609e-09
3.88816
1.43227e-08
3.88925
3.25308e-08
3.89026
5.1823e-08
3.89117
7.16391e-08
3.89199
9.36088e-08
3.89269
1.14152e-07
3.89329
1.34831e-07
3.89379
1.55094e-07
3.89419
1.72178e-07
3.8945
1.89273e-07
3.89473
2.03792e-07
3.8949
2.16005e-07
3.895
2.26984e-07
3.89505
2.35126e-07
3.89506
2.41886e-07
3.89505
2.45633e-07
3.89501
2.50569e-07
3.89495
2.5336e-07
3.89489
2.54713e-07
3.89482
2.55e-07
3.89474
2.55179e-07
3.89467
2.54382e-07
3.89461
2.53454e-07
3.89454
2.52319e-07
3.89449
2.50624e-07
3.89444
2.49536e-07
3.8944
2.48019e-07
3.89436
2.46564e-07
3.89434
2.45323e-07
3.89432
2.43999e-07
3.8943
2.4301e-07
3.89429
2.4202e-07
3.89429
2.41012e-07
3.89429
2.40678e-07
3.89429
2.39572e-07
3.8943
2.39044e-07
3.89432
2.38651e-07
3.89433
2.38066e-07
3.89435
2.37837e-07
3.89437
2.37629e-07
3.8944
2.37447e-07
3.89442
2.37367e-07
3.89445
2.37291e-07
3.89448
2.37356e-07
3.8945
2.37462e-07
3.89453
2.37549e-07
3.89456
2.37724e-07
3.89459
2.37909e-07
3.89462
2.38157e-07
3.89465
2.38488e-07
3.89467
2.38702e-07
3.8947
2.39001e-07
3.89473
2.39339e-07
3.89475
2.39652e-07
3.89478
2.40034e-07
3.8948
2.40336e-07
3.89482
2.40649e-07
3.89484
2.41016e-07
3.89486
2.41347e-07
3.89488
2.41678e-07
3.8949
2.41947e-07
3.89491
2.42231e-07
3.89493
2.42548e-07
3.89494
2.42839e-07
3.89496
2.43104e-07
3.89497
2.43337e-07
3.89498
2.43544e-07
3.89499
2.43788e-07
3.895
2.43985e-07
3.89501
2.44159e-07
3.89502
2.44334e-07
3.89503
2.44469e-07
3.89503
2.44614e-07
3.89504
2.44752e-07
3.89505
2.44851e-07
3.89505
2.44952e-07
3.89506
2.45036e-07
3.89506
2.45131e-07
3.89507
2.45229e-07
3.89508
2.45345e-07
3.89508
2.45331e-07
3.89509
2.45429e-07
3.89509
2.4548e-07
3.8951
2.45571e-07
3.8951
2.45589e-07
3.89511
2.45745e-07
3.89511
2.45756e-07
3.89511
2.45815e-07
3.89512
2.45884e-07
3.89512
2.45946e-07
3.89513
2.46e-07
3.89513
2.46044e-07
3.89513
2.46022e-07
3.89514
2.46215e-07
3.89514
2.46207e-07
3.89515
2.46258e-07
3.89515
2.46313e-07
3.89515
2.46375e-07
3.89516
2.46586e-07
3.89516
2.46378e-07
3.89516
2.46637e-07
3.89516
2.46768e-07
3.89516
2.46921e-07
3.89516
2.47233e-07
3.89516
2.47033e-07
3.89515
2.47444e-07
3.89515
2.47863e-07
3.89514
2.4823e-07
3.89512
2.48714e-07
3.89511
2.49278e-07
3.89508
2.50046e-07
3.89505
2.5093e-07
3.895
2.52039e-07
3.89495
2.53363e-07
3.89488
2.54971e-07
3.89479
2.56889e-07
3.89469
2.59151e-07
3.89455
2.61811e-07
3.89439
2.64929e-07
3.8942
2.68508e-07
3.89396
2.72576e-07
3.89368
2.7717e-07
3.89335
2.82289e-07
3.89296
2.87946e-07
3.89251
2.94094e-07
3.89199
3.00653e-07
3.8914
3.07537e-07
3.89073
3.14609e-07
3.88997
3.2171e-07
3.88913
3.28622e-07
3.8882
3.35098e-07
3.88719
3.40846e-07
3.8861
3.45568e-07
3.88494
3.48911e-07
3.88371
3.50516e-07
3.88244
3.5001e-07
3.88112
3.47074e-07
3.87979
3.41428e-07
3.87845
3.32799e-07
3.87715
3.21033e-07
3.87589
3.06023e-07
3.8747
2.87782e-07
3.87361
2.66446e-07
3.87264
2.42253e-07
3.87181
2.15641e-07
3.87115
1.87549e-07
3.87067
1.60489e-07
3.87039
1.44733e-07
3.8703
1.89651e-07
3.87041
5.20726e-07
3.87071
2.17676e-06
3.87119
1.03346e-05
3.87181
4.96906e-05
3.8724
0.000238141
3.87223
0.00113739
3.86791
0.00540203
3.8435
0.0255709
3.71336
0.131375
0.498824
3.21577
5.52286
0.000460576
5.52221
0.000329348
5.52154
0.000313653
5.52081
0.000316951
5.52002
0.000314347
5.51917
0.000308134
5.51822
0.000297322
5.51719
0.000280375
5.51605
0.000256731
5.51481
0.000227048
5.51346
0.000193142
5.512
0.000157597
5.51044
0.000123152
5.50878
9.21049e-05
5.50704
6.59395e-05
5.50523
4.52255e-05
5.50338
2.97587e-05
5.50151
1.88265e-05
5.49964
1.14875e-05
5.49782
6.79335e-06
5.49606
3.92337e-06
5.49441
2.23991e-06
5.4929
1.28768e-06
5.49157
7.64068e-07
5.49044
4.80115e-07
5.48953
3.24348e-07
5.48888
2.3438e-07
5.4885
1.77102e-07
5.4884
1.3725e-07
5.48857
1.13712e-07
5.48899
7.5237e-08
5.48969
4.97657e-08
5.49063
2.97932e-08
5.49179
9.69703e-09
5.49314
-3.01407e-09
5.49465
-1.25056e-08
5.49628
-1.92613e-08
5.49798
-1.91885e-08
5.49972
-1.6913e-08
5.50146
-9.97534e-09
5.50317
1.56433e-09
5.50481
1.36752e-08
5.50635
3.0579e-08
5.50777
4.86034e-08
5.50906
6.71207e-08
5.51021
8.75498e-08
5.51121
1.06744e-07
5.51206
1.26005e-07
5.51276
1.4487e-07
5.51333
1.60853e-07
5.51377
1.76717e-07
5.5141
1.90284e-07
5.51432
2.01675e-07
5.51447
2.11867e-07
5.51454
2.19485e-07
5.51456
2.25749e-07
5.51454
2.29296e-07
5.51448
2.3384e-07
5.5144
2.36445e-07
5.51431
2.37724e-07
5.51421
2.38004e-07
5.51411
2.38149e-07
5.51401
2.37422e-07
5.51391
2.36556e-07
5.51382
2.35501e-07
5.51375
2.33949e-07
5.51368
2.329e-07
5.51362
2.31514e-07
5.51357
2.30153e-07
5.51353
2.28993e-07
5.5135
2.2777e-07
5.51348
2.26835e-07
5.51347
2.25926e-07
5.51346
2.25e-07
5.51346
2.24658e-07
5.51347
2.23656e-07
5.51348
2.2315e-07
5.5135
2.2279e-07
5.51353
2.22251e-07
5.51355
2.22022e-07
5.51358
2.21842e-07
5.51362
2.2168e-07
5.51365
2.21593e-07
5.51369
2.21531e-07
5.51373
2.21578e-07
5.51377
2.21682e-07
5.51381
2.21769e-07
5.51385
2.21924e-07
5.51389
2.22097e-07
5.51393
2.2233e-07
5.51397
2.22633e-07
5.51401
2.22841e-07
5.51405
2.2311e-07
5.51408
2.23426e-07
5.51412
2.23727e-07
5.51415
2.24078e-07
5.51418
2.2436e-07
5.51422
2.24649e-07
5.51425
2.24993e-07
5.51427
2.25304e-07
5.5143
2.25609e-07
5.51432
2.25862e-07
5.51435
2.26128e-07
5.51437
2.26424e-07
5.51439
2.26697e-07
5.51441
2.26937e-07
5.51442
2.27154e-07
5.51444
2.27357e-07
5.51445
2.27579e-07
5.51447
2.27768e-07
5.51448
2.27921e-07
5.51449
2.28079e-07
5.5145
2.28212e-07
5.51451
2.28349e-07
5.51452
2.28483e-07
5.51453
2.28571e-07
5.51454
2.28667e-07
5.51455
2.28745e-07
5.51456
2.28838e-07
5.51456
2.28923e-07
5.51457
2.29027e-07
5.51458
2.29018e-07
5.51459
2.29109e-07
5.51459
2.29154e-07
5.5146
2.2924e-07
5.51461
2.29267e-07
5.51461
2.29405e-07
5.51462
2.29416e-07
5.51463
2.29467e-07
5.51463
2.29531e-07
5.51464
2.29595e-07
5.51464
2.2964e-07
5.51465
2.29677e-07
5.51466
2.29664e-07
5.51466
2.29838e-07
5.51467
2.29838e-07
5.51467
2.29886e-07
5.51468
2.29931e-07
5.51468
2.29989e-07
5.51468
2.30182e-07
5.51469
2.29995e-07
5.51469
2.30233e-07
5.51469
2.30355e-07
5.51469
2.30504e-07
5.51469
2.30788e-07
5.51469
2.30608e-07
5.51468
2.30986e-07
5.51467
2.31386e-07
5.51466
2.31732e-07
5.51464
2.32179e-07
5.51461
2.32703e-07
5.51458
2.33422e-07
5.51453
2.34244e-07
5.51447
2.35283e-07
5.51439
2.36521e-07
5.51429
2.38022e-07
5.51417
2.39812e-07
5.51402
2.41931e-07
5.51383
2.44412e-07
5.5136
2.47332e-07
5.51333
2.50668e-07
5.51299
2.54464e-07
5.5126
2.58764e-07
5.51213
2.63533e-07
5.51158
2.68816e-07
5.51094
2.74551e-07
5.51021
2.80676e-07
5.50937
2.871e-07
5.50842
2.93698e-07
5.50735
3.00317e-07
5.50616
3.06769e-07
5.50485
3.12812e-07
5.50342
3.1817e-07
5.50188
3.22565e-07
5.50024
3.25672e-07
5.4985
3.27163e-07
5.4967
3.26681e-07
5.49484
3.23926e-07
5.49295
3.1864e-07
5.49107
3.10582e-07
5.48921
2.99591e-07
5.48743
2.85572e-07
5.48575
2.6855e-07
5.48421
2.48636e-07
5.48284
2.26091e-07
5.48167
2.01457e-07
5.48074
1.76193e-07
5.48006
1.55556e-07
5.47965
1.63218e-07
5.47953
3.13032e-07
5.47969
1.14739e-06
5.4801
5.18469e-06
5.48078
2.48654e-05
5.48166
0.000119668
5.4825
0.000573498
5.48227
0.00273943
5.47618
0.0130206
5.44176
0.0616337
5.26246
0.312417
1.15455
4.60848
7.8105
0.000402821
7.80959
0.000302341
7.80863
0.000279051
7.8076
0.000284528
7.80649
0.000282531
7.80528
0.00027689
7.80395
0.000267284
7.80248
0.000252209
7.80088
0.000231124
7.79912
0.000204599
7.79721
0.000174244
7.79515
0.000142362
7.79294
0.000111406
7.79059
8.34504e-05
7.78813
5.9843e-05
7.78557
4.11158e-05
7.78295
2.71035e-05
7.78031
1.71783e-05
7.77767
1.05008e-05
7.77509
6.22021e-06
7.77261
3.59728e-06
7.77028
2.0553e-06
7.76814
1.18124e-06
7.76625
6.99715e-07
7.76465
4.38271e-07
7.76337
2.94858e-07
7.76245
2.12219e-07
7.76191
1.59873e-07
7.76177
1.23684e-07
7.762
1.01916e-07
7.76261
6.80129e-08
7.76359
4.46407e-08
7.76492
2.66882e-08
7.76656
8.76935e-09
7.76848
-2.63208e-09
7.77061
-1.11522e-08
7.77291
-1.71694e-08
7.77532
-1.72195e-08
7.77778
-1.51113e-08
7.78025
-8.86757e-09
7.78266
1.46974e-09
7.78497
1.24528e-08
7.78715
2.74886e-08
7.78917
4.37294e-08
7.79099
6.0395e-08
7.79261
7.86767e-08
7.79403
9.59599e-08
7.79523
1.13238e-07
7.79622
1.30133e-07
7.79702
1.44556e-07
7.79765
1.58725e-07
7.79811
1.7093e-07
7.79843
1.8117e-07
7.79864
1.90272e-07
7.79874
1.97156e-07
7.79877
2.02737e-07
7.79873
2.05987e-07
7.79866
2.09991e-07
7.79855
2.12344e-07
7.79841
2.13506e-07
7.79827
2.13768e-07
7.79813
2.13869e-07
7.79799
2.13248e-07
7.79785
2.12451e-07
7.79773
2.11507e-07
7.79762
2.10147e-07
7.79752
2.09161e-07
7.79744
2.07943e-07
7.79737
2.06725e-07
7.79731
2.05666e-07
7.79727
2.04594e-07
7.79724
2.0374e-07
7.79722
2.02926e-07
7.79721
2.02116e-07
7.79722
2.0177e-07
7.79723
2.00914e-07
7.79725
2.00444e-07
7.79727
2.00111e-07
7.7973
1.99651e-07
7.79734
1.99422e-07
7.79738
1.99268e-07
7.79743
1.99132e-07
7.79748
1.99041e-07
7.79753
1.98991e-07
7.79759
1.99031e-07
7.79765
1.99126e-07
7.7977
1.99208e-07
7.79776
1.99339e-07
7.79782
1.99498e-07
7.79787
1.99708e-07
7.79793
1.99978e-07
7.79799
2.00173e-07
7.79804
2.00404e-07
7.79809
2.00695e-07
7.79814
2.00965e-07
7.79819
2.01272e-07
7.79824
2.01532e-07
7.79828
2.01788e-07
7.79832
2.021e-07
7.79836
2.02381e-07
7.7984
2.02651e-07
7.79843
2.02879e-07
7.79846
2.0312e-07
7.79849
2.03386e-07
7.79852
2.03634e-07
7.79855
2.03847e-07
7.79857
2.04039e-07
7.79859
2.04225e-07
7.79862
2.04423e-07
7.79863
2.04593e-07
7.79865
2.04732e-07
7.79867
2.04872e-07
7.79868
2.04991e-07
7.7987
2.05112e-07
7.79871
2.05233e-07
7.79873
2.05311e-07
7.79874
2.05399e-07
7.79875
2.05471e-07
7.79876
2.05554e-07
7.79877
2.05634e-07
7.79878
2.0572e-07
7.7988
2.05718e-07
7.79881
2.05795e-07
7.79882
2.05839e-07
7.79883
2.05915e-07
7.79883
2.05941e-07
7.79884
2.06061e-07
7.79885
2.06073e-07
7.79886
2.06117e-07
7.79887
2.06178e-07
7.79888
2.06232e-07
7.79889
2.06272e-07
7.79889
2.06306e-07
7.7989
2.06299e-07
7.79891
2.06451e-07
7.79892
2.06453e-07
7.79892
2.06492e-07
7.79893
2.06535e-07
7.79894
2.06593e-07
7.79894
2.0676e-07
7.79895
2.06599e-07
7.79895
2.06806e-07
7.79896
2.06916e-07
7.79896
2.07048e-07
7.79895
2.073e-07
7.79895
2.07151e-07
7.79894
2.07479e-07
7.79893
2.0784e-07
7.79891
2.08158e-07
7.79888
2.08556e-07
7.79884
2.09028e-07
7.79879
2.09672e-07
7.79873
2.10413e-07
7.79864
2.11346e-07
7.79853
2.12461e-07
7.79839
2.13807e-07
7.79822
2.15414e-07
7.798
2.17321e-07
7.79774
2.19549e-07
7.79741
2.2217e-07
7.79702
2.25171e-07
7.79655
2.28586e-07
7.79599
2.32445e-07
7.79533
2.3673e-07
7.79456
2.41479e-07
7.79365
2.46632e-07
7.79261
2.52133e-07
7.79143
2.57905e-07
7.79008
2.63829e-07
7.78857
2.69775e-07
7.78689
2.75565e-07
7.78504
2.80987e-07
7.78302
2.85802e-07
7.78084
2.8974e-07
7.77851
2.92527e-07
7.77606
2.93859e-07
7.7735
2.9342e-07
7.77087
2.90936e-07
7.76821
2.86182e-07
7.76554
2.78943e-07
7.76292
2.69063e-07
7.7604
2.56458e-07
7.75803
2.41172e-07
7.75585
2.23286e-07
7.75391
2.03097e-07
7.75226
1.8126e-07
7.75094
1.5998e-07
7.74998
1.48291e-07
7.7494
1.88412e-07
7.74923
4.82907e-07
7.74945
2.01632e-06
7.75004
9.34504e-06
7.751
4.49712e-05
7.75225
0.000216505
7.75344
0.00103766
7.75317
0.00495754
7.74476
0.0235759
7.69722
0.1115
7.45359
0.558513
2.01888
6.59173
34.4772
0.000186369
34.4732
0.000158459
34.4689
0.000137542
34.4644
0.000141763
34.4595
0.000141783
34.4541
0.000138864
34.4483
0.000134152
34.4418
0.000126801
34.4347
0.000116432
34.427
0.000103303
34.4185
8.81947e-05
34.4094
7.22452e-05
34.3997
5.66867e-05
34.3893
4.25758e-05
34.3785
3.06125e-05
34.3672
2.10873e-05
34.3556
1.39355e-05
34.3439
8.85315e-06
34.3323
5.42326e-06
34.3209
3.21814e-06
34.3099
1.8632e-06
34.2997
1.06463e-06
34.2902
6.10962e-07
34.2819
3.60622e-07
34.2748
2.24623e-07
34.2692
1.50133e-07
34.2651
1.07399e-07
34.2627
8.05594e-08
34.2621
6.21903e-08
34.2631
5.06152e-08
34.2658
3.45203e-08
34.2701
2.22308e-08
34.276
1.32177e-08
34.2833
4.5211e-09
34.2917
-1.16097e-09
34.3011
-5.63205e-09
34.3113
-8.55334e-09
34.3219
-8.70659e-09
34.3328
-7.48105e-09
34.3437
-4.36057e-09
34.3543
5.80258e-10
34.3645
6.2314e-09
34.3742
1.38111e-08
34.383
2.18984e-08
34.3911
3.02612e-08
34.3983
3.92979e-08
34.4045
4.80122e-08
34.4098
5.66297e-08
34.4142
6.50266e-08
34.4177
7.23267e-08
34.4205
7.93311e-08
34.4225
8.54616e-08
34.424
9.06039e-08
34.4249
9.51081e-08
34.4253
9.85897e-08
34.4254
1.01342e-07
34.4253
1.03054e-07
34.4249
1.04955e-07
34.4244
1.06165e-07
34.4239
1.06751e-07
34.4232
1.06896e-07
34.4226
1.06919e-07
34.422
1.0663e-07
34.4214
1.06214e-07
34.4208
1.05746e-07
34.4203
1.05091e-07
34.4199
1.0456e-07
34.4195
1.03976e-07
34.4192
1.03359e-07
34.419
1.0283e-07
34.4188
1.02307e-07
34.4187
1.01861e-07
34.4186
1.01463e-07
34.4186
1.0107e-07
34.4186
1.00856e-07
34.4186
1.00477e-07
34.4187
1.00217e-07
34.4188
1.00047e-07
34.419
9.98384e-08
34.4191
9.97006e-08
34.4193
9.9637e-08
34.4195
9.95688e-08
34.4197
9.95165e-08
34.42
9.95014e-08
34.4202
9.95119e-08
34.4205
9.95583e-08
34.4207
9.96088e-08
34.421
9.96656e-08
34.4212
9.97493e-08
34.4215
9.98557e-08
34.4217
9.99826e-08
34.422
1.00091e-07
34.4222
1.002e-07
34.4224
1.00347e-07
34.4227
1.00486e-07
34.4229
1.00633e-07
34.4231
1.00768e-07
34.4233
1.00894e-07
34.4235
1.01048e-07
34.4236
1.01192e-07
34.4238
1.01321e-07
34.4239
1.01441e-07
34.4241
1.01561e-07
34.4242
1.01693e-07
34.4243
1.01819e-07
34.4245
1.01924e-07
34.4246
1.02019e-07
34.4247
1.02113e-07
34.4248
1.0221e-07
34.4248
1.02295e-07
34.4249
1.02365e-07
34.425
1.02437e-07
34.4251
1.02496e-07
34.4251
1.02555e-07
34.4252
1.02618e-07
34.4252
1.02658e-07
34.4253
1.02699e-07
34.4254
1.02737e-07
34.4254
1.02778e-07
34.4255
1.02817e-07
34.4255
1.02858e-07
34.4255
1.02861e-07
34.4256
1.02896e-07
34.4256
1.0292e-07
34.4257
1.02957e-07
34.4257
1.02973e-07
34.4258
1.03028e-07
34.4258
1.03038e-07
34.4258
1.03059e-07
34.4259
1.03089e-07
34.4259
1.03115e-07
34.426
1.03138e-07
34.426
1.03154e-07
34.426
1.03154e-07
34.4261
1.03221e-07
34.4261
1.03228e-07
34.4261
1.03248e-07
34.4261
1.03269e-07
34.4262
1.033e-07
34.4262
1.03376e-07
34.4262
1.03304e-07
34.4262
1.03402e-07
34.4263
1.0346e-07
34.4263
1.03526e-07
34.4262
1.03644e-07
34.4262
1.03583e-07
34.4262
1.03735e-07
34.4261
1.03917e-07
34.426
1.04083e-07
34.4259
1.04278e-07
34.4258
1.04515e-07
34.4255
1.04836e-07
34.4252
1.05205e-07
34.4249
1.05675e-07
34.4244
1.06232e-07
34.4238
1.06905e-07
34.423
1.07709e-07
34.422
1.08661e-07
34.4209
1.09778e-07
34.4195
1.11088e-07
34.4177
1.12586e-07
34.4156
1.14293e-07
34.4132
1.16226e-07
34.4103
1.18364e-07
34.4068
1.20742e-07
34.4029
1.23315e-07
34.3983
1.26066e-07
34.393
1.28951e-07
34.3871
1.31914e-07
34.3804
1.34885e-07
34.373
1.3778e-07
34.3648
1.40491e-07
34.3559
1.42897e-07
34.3463
1.44866e-07
34.336
1.46258e-07
34.3252
1.46922e-07
34.3139
1.46702e-07
34.3023
1.45461e-07
34.2905
1.43084e-07
34.2788
1.39465e-07
34.2672
1.34524e-07
34.2561
1.28226e-07
34.2456
1.20594e-07
34.236
1.11709e-07
34.2274
1.0189e-07
34.2201
9.22955e-08
34.2143
8.79804e-08
34.2101
1.12729e-07
34.2075
2.81274e-07
34.2067
1.14495e-06
34.2077
5.39575e-06
34.2103
2.56037e-05
34.2146
0.000123595
34.2201
0.000595311
34.2257
0.00285436
34.2255
0.0136433
34.1939
0.0647619
34.0135
0.302129
33.2072
1.3757
4.84643
30.3906
34.4772
3.18323e-12
34.4732
2.27374e-12
34.4689
1.36424e-12
34.4644
2.27374e-12
34.4595
1.81899e-12
34.4541
-4.54747e-13
34.4482
0
34.4418
1.36424e-12
34.4347
4.54747e-13
34.427
4.54747e-13
34.4185
-9.09495e-13
34.4094
9.09495e-13
34.3997
-9.09495e-13
34.3893
4.54747e-13
34.3785
4.54747e-13
34.3672
-3.18323e-12
34.3556
-5.45697e-12
34.3439
0
34.3323
-1.36424e-12
34.3209
0
34.3099
0
34.2997
0
34.2902
4.54747e-13
34.2819
-1.36424e-12
34.2748
-1.81899e-12
34.2692
0
34.2651
2.27374e-12
34.2627
1.81899e-12
34.2621
3.18323e-12
34.2631
-9.09495e-13
34.2658
-1.36424e-12
34.2701
-2.72848e-12
34.276
2.72848e-12
34.2833
4.09273e-12
34.2917
1.36424e-12
34.3011
1.81899e-12
34.3113
-9.09495e-13
34.3219
-4.54747e-13
34.3328
4.54747e-13
34.3437
9.09495e-13
34.3543
0
34.3645
-9.09495e-13
34.3742
-4.54747e-13
34.383
4.54747e-13
34.3911
-4.54747e-13
34.3983
9.09495e-13
34.4045
-4.54747e-13
34.4098
-4.54747e-13
34.4142
0
34.4177
-4.54747e-13
34.4205
1.81899e-12
34.4225
9.09495e-13
34.424
0
34.4249
9.09495e-13
34.4253
1.81899e-12
34.4254
2.72848e-12
34.4253
9.09495e-13
34.4249
-9.09495e-13
34.4244
-2.72848e-12
34.4239
1.81899e-12
34.4232
2.27374e-12
34.4226
1.81899e-12
34.422
-1.36424e-12
34.4214
-2.27374e-12
34.4208
-2.72848e-12
34.4203
-4.54747e-13
34.4199
9.09495e-13
34.4195
-1.36424e-12
34.4192
-2.27374e-12
34.419
-4.54747e-13
34.4188
-4.54747e-13
34.4187
3.18323e-12
34.4186
-4.54747e-13
34.4186
-1.81899e-12
34.4186
-4.54747e-13
34.4186
0
34.4187
-2.72848e-12
34.4188
-1.81899e-12
34.419
-4.54747e-13
34.4191
-1.81899e-12
34.4193
1.81899e-12
34.4195
3.63798e-12
34.4197
0
34.42
4.54747e-13
34.4202
-1.36424e-12
34.4205
-1.81899e-12
34.4207
-2.72848e-12
34.421
-1.36424e-12
34.4212
4.54747e-13
34.4215
0
34.4217
0
34.422
1.81899e-12
34.4222
-4.54747e-13
34.4224
3.18323e-12
34.4227
1.36424e-12
34.4229
0
34.4231
-1.36424e-12
34.4233
-2.72848e-12
34.4235
1.81899e-12
34.4236
-9.09495e-13
34.4238
-1.81899e-12
34.4239
-1.36424e-12
34.4241
-9.09495e-13
34.4242
1.81899e-12
34.4243
3.18323e-12
34.4245
-4.54747e-13
34.4246
-1.36424e-12
34.4247
-2.27374e-12
34.4248
0
34.4248
-2.27374e-12
34.4249
-3.18323e-12
34.425
4.54747e-13
34.4251
-4.54747e-13
34.4251
-1.36424e-12
34.4252
4.09273e-12
34.4252
3.63798e-12
34.4253
4.54747e-13
34.4254
1.81899e-12
34.4254
1.81899e-12
34.4255
4.54747e-13
34.4255
-3.18323e-12
34.4255
9.09495e-13
34.4256
9.09495e-13
34.4256
4.54747e-13
34.4257
4.54747e-13
34.4257
3.18323e-12
34.4258
4.54747e-13
34.4258
4.54747e-13
34.4258
-1.36424e-12
34.4259
1.36424e-12
34.4259
-1.81899e-12
34.426
1.81899e-12
34.426
1.36424e-12
34.426
2.72848e-12
34.4261
-4.54747e-13
34.4261
0
34.4261
1.36424e-12
34.4261
1.36424e-12
34.4262
9.09495e-13
34.4262
9.09495e-13
34.4262
-9.09495e-13
34.4262
1.81899e-12
34.4263
4.54747e-13
34.4263
-9.09495e-13
34.4262
-2.27374e-12
34.4262
-2.27374e-12
34.4262
-9.09495e-13
34.4261
2.27374e-12
34.426
2.72848e-12
34.4259
9.09495e-13
34.4258
-2.27374e-12
34.4255
-1.81899e-12
34.4252
-1.81899e-12
34.4249
4.54747e-13
34.4244
1.81899e-12
34.4238
2.72848e-12
34.423
0
34.422
2.27374e-12
34.4209
3.18323e-12
34.4195
3.18323e-12
34.4177
9.09495e-13
34.4156
4.54747e-13
34.4132
3.63798e-12
34.4103
9.09495e-13
34.4068
2.27374e-12
34.4029
4.54747e-13
34.3983
4.54747e-13
34.393
0
34.3871
0
34.3804
-9.09495e-13
34.373
-9.09495e-13
34.3648
-9.09495e-13
34.3559
0
34.3463
-4.54747e-13
34.336
-1.81899e-12
34.3252
-9.09495e-13
34.3139
-1.36424e-12
34.3023
-2.72848e-12
34.2905
-1.36424e-12
34.2788
-4.54747e-13
34.2672
2.27374e-12
34.2561
5.45697e-12
34.2456
2.45564e-11
34.236
1.10049e-10
34.2274
5.28871e-10
34.2201
2.54295e-09
34.2143
1.22309e-08
34.2101
5.85942e-08
34.2075
2.83584e-07
34.2067
1.36472e-06
34.2077
6.72729e-06
34.2103
3.17471e-05
34.2146
0.000153468
34.2204
0.000740827
34.2271
0.00356002
34.2322
0.0171088
34.2245
0.0819732
34.1483
0.388577
33.7299
1.80483
6.45597
32.1314
34.4772
-0.000186369
34.4732
-0.000158459
34.4689
-0.000137542
34.4644
-0.000141763
34.4595
-0.000141783
34.4541
-0.000138864
34.4482
-0.000134152
34.4418
-0.000126801
34.4347
-0.000116432
34.427
-0.000103303
34.4185
-8.81947e-05
34.4094
-7.22452e-05
34.3997
-5.66867e-05
34.3893
-4.25758e-05
34.3785
-3.06125e-05
34.3672
-2.10873e-05
34.3556
-1.39355e-05
34.3439
-8.85315e-06
34.3323
-5.42327e-06
34.3209
-3.21813e-06
34.3099
-1.86321e-06
34.2997
-1.06463e-06
34.2902
-6.10961e-07
34.2819
-3.60623e-07
34.2748
-2.24628e-07
34.2692
-1.50131e-07
34.2651
-1.07397e-07
34.2627
-8.05549e-08
34.2621
-6.21835e-08
34.2631
-5.06161e-08
34.2658
-3.45244e-08
34.2701
-2.22349e-08
34.276
-1.32122e-08
34.2833
-4.51018e-09
34.2917
1.1637e-09
34.3011
5.63523e-09
34.3113
8.55334e-09
34.3219
8.70477e-09
34.3328
7.48196e-09
34.3437
4.3633e-09
34.3543
-5.77984e-10
34.3645
-6.23368e-09
34.3742
-1.3813e-08
34.383
-2.1897e-08
34.3911
-3.02643e-08
34.3983
-3.92943e-08
34.4045
-4.80127e-08
34.4098
-5.66292e-08
34.4142
-6.5023e-08
34.4177
-7.23271e-08
34.4205
-7.93279e-08
34.4225
-8.54598e-08
34.424
-9.06043e-08
34.4249
-9.51059e-08
34.4253
-9.8586e-08
34.4254
-1.01337e-07
34.4253
-1.03053e-07
34.4249
-1.04959e-07
34.4244
-1.0617e-07
34.4239
-1.0675e-07
34.4232
-1.06892e-07
34.4226
-1.06916e-07
34.422
-1.06633e-07
34.4214
-1.06217e-07
34.4208
-1.0575e-07
34.4203
-1.05091e-07
34.4199
-1.04557e-07
34.4195
-1.03978e-07
34.4192
-1.03363e-07
34.419
-1.02831e-07
34.4188
-1.02308e-07
34.4187
-1.01856e-07
34.4186
-1.01462e-07
34.4186
-1.01072e-07
34.4186
-1.00858e-07
34.4186
-1.00476e-07
34.4187
-1.00222e-07
34.4188
-1.00049e-07
34.419
-9.98393e-08
34.4191
-9.97015e-08
34.4193
-9.96365e-08
34.4195
-9.95601e-08
34.4197
-9.9516e-08
34.42
-9.95005e-08
34.4202
-9.95146e-08
34.4205
-9.95615e-08
34.4207
-9.96147e-08
34.421
-9.96679e-08
34.4212
-9.97484e-08
34.4215
-9.98557e-08
34.4217
-9.99844e-08
34.422
-1.00089e-07
34.4222
-1.00203e-07
34.4224
-1.0034e-07
34.4227
-1.00482e-07
34.4229
-1.00633e-07
34.4231
-1.00772e-07
34.4233
-1.00898e-07
34.4235
-1.01044e-07
34.4236
-1.01195e-07
34.4238
-1.01325e-07
34.4239
-1.01444e-07
34.4241
-1.01564e-07
34.4242
-1.0169e-07
34.4243
-1.01812e-07
34.4245
-1.01924e-07
34.4246
-1.02021e-07
34.4247
-1.02114e-07
34.4248
-1.02209e-07
34.4248
-1.02298e-07
34.4249
-1.02372e-07
34.425
-1.02435e-07
34.4251
-1.02499e-07
34.4251
-1.0256e-07
34.4252
-1.02609e-07
34.4252
-1.02651e-07
34.4253
-1.02697e-07
34.4254
-1.02735e-07
34.4254
-1.02773e-07
34.4255
-1.02816e-07
34.4255
-1.02866e-07
34.4255
-1.02862e-07
34.4256
-1.02893e-07
34.4256
-1.0292e-07
34.4257
-1.02954e-07
34.4257
-1.02968e-07
34.4258
-1.03029e-07
34.4258
-1.03037e-07
34.4258
-1.03063e-07
34.4259
-1.03087e-07
34.4259
-1.03119e-07
34.426
-1.03134e-07
34.426
-1.0315e-07
34.426
-1.03148e-07
34.4261
-1.03223e-07
34.4261
-1.03229e-07
34.4261
-1.03244e-07
34.4261
-1.03268e-07
34.4262
-1.03298e-07
34.4262
-1.03375e-07
34.4262
-1.03305e-07
34.4262
-1.034e-07
34.4263
-1.03458e-07
34.4263
-1.03528e-07
34.4262
-1.03649e-07
34.4262
-1.03588e-07
34.4262
-1.03738e-07
34.4261
-1.03912e-07
34.426
-1.04078e-07
34.4259
-1.04274e-07
34.4258
-1.04517e-07
34.4255
-1.04839e-07
34.4252
-1.05209e-07
34.4249
-1.05673e-07
34.4244
-1.06228e-07
34.4238
-1.06901e-07
34.423
-1.07709e-07
34.422
-1.08658e-07
34.4209
-1.09773e-07
34.4195
-1.11081e-07
34.4177
-1.12583e-07
34.4156
-1.14293e-07
34.4132
-1.16221e-07
34.4103
-1.18364e-07
34.4068
-1.20737e-07
34.4029
-1.23314e-07
34.3983
-1.26065e-07
34.393
-1.28949e-07
34.3871
-1.31914e-07
34.3804
-1.34889e-07
34.373
-1.37782e-07
34.3648
-1.40492e-07
34.3559
-1.42898e-07
34.3463
-1.44868e-07
34.336
-1.46263e-07
34.3252
-1.46925e-07
34.3139
-1.46704e-07
34.3023
-1.45465e-07
34.2905
-1.43085e-07
34.2788
-1.39467e-07
34.2672
-1.34523e-07
34.2561
-1.28218e-07
34.2456
-1.20554e-07
34.236
-1.11531e-07
34.2274
-1.01038e-07
34.2201
-8.81901e-08
34.2143
-6.82162e-08
34.2101
-1.83045e-08
34.2075
1.75747e-07
34.2067
1.06671e-06
34.2077
5.36854e-06
34.2104
2.55681e-05
34.2147
0.000123757
34.2208
0.000598699
34.2288
0.00288893
34.2405
0.0140149
34.2635
0.0685021
34.3247
0.337611
34.409
1.7314
5.89475
34.9812
34.4772
-0.000402821
34.4732
-0.000302341
34.4689
-0.000279051
34.4644
-0.000284528
34.4595
-0.000282531
34.4541
-0.00027689
34.4483
-0.000267284
34.4418
-0.000252209
34.4347
-0.000231124
34.427
-0.000204599
34.4185
-0.000174244
34.4094
-0.000142362
34.3997
-0.000111406
34.3893
-8.34504e-05
34.3785
-5.9843e-05
34.3672
-4.11158e-05
34.3556
-2.71035e-05
34.3439
-1.71783e-05
34.3323
-1.05008e-05
34.3209
-6.22021e-06
34.3099
-3.59729e-06
34.2997
-2.0553e-06
34.2902
-1.18123e-06
34.2819
-6.99712e-07
34.2748
-4.38277e-07
34.2692
-2.94859e-07
34.2651
-2.12216e-07
34.2627
-1.59866e-07
34.2621
-1.23678e-07
34.2631
-1.01915e-07
34.2658
-6.80193e-08
34.2701
-4.46444e-08
34.276
-2.66818e-08
34.2833
-8.75661e-09
34.2917
2.63117e-09
34.3011
1.1154e-08
34.3113
1.71685e-08
34.3219
1.72204e-08
34.3328
1.51094e-08
34.3437
8.87303e-09
34.3543
-1.46883e-09
34.3645
-1.24546e-08
34.3742
-2.74913e-08
34.383
-4.37321e-08
34.3911
-6.04014e-08
34.3983
-7.86731e-08
34.4045
-9.59599e-08
34.4098
-1.13236e-07
34.4142
-1.3013e-07
34.4177
-1.44554e-07
34.4205
-1.58721e-07
34.4225
-1.70928e-07
34.424
-1.81172e-07
34.4249
-1.90272e-07
34.4253
-1.97154e-07
34.4254
-2.02734e-07
34.4253
-2.05986e-07
34.4249
-2.09998e-07
34.4244
-2.12352e-07
34.4239
-2.13502e-07
34.4232
-2.13762e-07
34.4226
-2.13862e-07
34.422
-2.13255e-07
34.4214
-2.12452e-07
34.4208
-2.11505e-07
34.4203
-2.10143e-07
34.4199
-2.09156e-07
34.4195
-2.07945e-07
34.4192
-2.06729e-07
34.419
-2.05667e-07
34.4188
-2.04599e-07
34.4187
-2.03737e-07
34.4186
-2.02926e-07
34.4186
-2.02113e-07
34.4186
-2.01771e-07
34.4186
-2.0091e-07
34.4187
-2.00449e-07
34.4188
-2.00111e-07
34.419
-1.99652e-07
34.4191
-1.99419e-07
34.4193
-1.99271e-07
34.4195
-1.99119e-07
34.4197
-1.99043e-07
34.42
-1.9899e-07
34.4202
-1.99033e-07
34.4205
-1.99126e-07
34.4207
-1.99212e-07
34.421
-1.99341e-07
34.4212
-1.99494e-07
34.4215
-1.99707e-07
34.4217
-1.99979e-07
34.422
-2.00167e-07
34.4222
-2.00405e-07
34.4224
-2.00686e-07
34.4227
-2.00957e-07
34.4229
-2.01273e-07
34.4231
-2.01541e-07
34.4233
-2.01792e-07
34.4235
-2.0209e-07
34.4236
-2.02386e-07
34.4238
-2.02654e-07
34.4239
-2.02884e-07
34.4241
-2.03126e-07
34.4242
-2.03383e-07
34.4243
-2.03623e-07
34.4245
-2.03849e-07
34.4246
-2.04041e-07
34.4247
-2.04222e-07
34.4248
-2.04416e-07
34.4248
-2.04593e-07
34.4249
-2.04737e-07
34.425
-2.04872e-07
34.4251
-2.04996e-07
34.4251
-2.0512e-07
34.4252
-2.05224e-07
34.4252
-2.05303e-07
34.4253
-2.05395e-07
34.4254
-2.05468e-07
34.4254
-2.05545e-07
34.4255
-2.05631e-07
34.4255
-2.05731e-07
34.4255
-2.05719e-07
34.4256
-2.05791e-07
34.4256
-2.05839e-07
34.4257
-2.0591e-07
34.4257
-2.05932e-07
34.4258
-2.06061e-07
34.4258
-2.06071e-07
34.4258
-2.06122e-07
34.4259
-2.06174e-07
34.4259
-2.06236e-07
34.426
-2.06272e-07
34.426
-2.06303e-07
34.426
-2.06291e-07
34.4261
-2.06452e-07
34.4261
-2.06455e-07
34.4261
-2.06488e-07
34.4261
-2.06536e-07
34.4262
-2.0659e-07
34.4262
-2.06756e-07
34.4262
-2.06597e-07
34.4262
-2.06807e-07
34.4263
-2.06916e-07
34.4263
-2.07051e-07
34.4262
-2.07307e-07
34.4262
-2.07157e-07
34.4262
-2.07485e-07
34.4261
-2.07831e-07
34.426
-2.08152e-07
34.4259
-2.0855e-07
34.4258
-2.0903e-07
34.4255
-2.09676e-07
34.4252
-2.10418e-07
34.4249
-2.11346e-07
34.4244
-2.12457e-07
34.4238
-2.13806e-07
34.423
-2.15417e-07
34.422
-2.17319e-07
34.4209
-2.19547e-07
34.4195
-2.22161e-07
34.4177
-2.2517e-07
34.4156
-2.28585e-07
34.4132
-2.3244e-07
34.4103
-2.36731e-07
34.4068
-2.41478e-07
34.4029
-2.46632e-07
34.3983
-2.52133e-07
34.393
-2.579e-07
34.3871
-2.63831e-07
34.3804
-2.69783e-07
34.373
-2.75569e-07
34.3648
-2.80988e-07
34.3559
-2.85803e-07
34.3463
-2.89747e-07
34.336
-2.92537e-07
34.3252
-2.93862e-07
34.3139
-2.93419e-07
34.3023
-2.90942e-07
34.2905
-2.86185e-07
34.2788
-2.78948e-07
34.2672
-2.69063e-07
34.2561
-2.56455e-07
34.2456
-2.41152e-07
34.236
-2.23222e-07
34.2274
-2.02785e-07
34.2201
-1.7977e-07
34.2143
-1.52812e-07
34.2101
-1.14086e-07
34.2075
-2.19861e-08
34.2067
3.17581e-07
34.2077
1.93794e-06
34.2104
9.26345e-06
34.2148
4.50175e-05
34.2211
0.000218048
34.2303
0.00105354
34.2477
0.00513487
34.3002
0.0255646
34.5142
0.133839
35.317
0.939559
3.01837
38.2044
7.8105
-0.000460576
7.80959
-0.000329348
7.80863
-0.000313653
7.8076
-0.000316951
7.80649
-0.000314347
7.80528
-0.000308134
7.80395
-0.000297322
7.80248
-0.000280375
7.80088
-0.000256731
7.79912
-0.000227048
7.79721
-0.000193142
7.79515
-0.000157597
7.79294
-0.000123152
7.79059
-9.21049e-05
7.78813
-6.59396e-05
7.78557
-4.52255e-05
7.78295
-2.97588e-05
7.78031
-1.88265e-05
7.77767
-1.14875e-05
7.77509
-6.79335e-06
7.77261
-3.92338e-06
7.77028
-2.2399e-06
7.76814
-1.28767e-06
7.76625
-7.64066e-07
7.76465
-4.80122e-07
7.76337
-3.24348e-07
7.76245
-2.34379e-07
7.76191
-1.77097e-07
7.76177
-1.37243e-07
7.762
-1.13712e-07
7.76261
-7.52461e-08
7.76359
-4.97712e-08
7.76492
-2.97878e-08
7.76656
-9.6843e-09
7.76848
3.01043e-09
7.77061
1.25019e-08
7.77291
1.92631e-08
7.77532
1.91867e-08
7.77778
1.6913e-08
7.78025
9.97716e-09
7.78266
-1.56069e-09
7.78497
-1.36788e-08
7.78715
-3.05827e-08
7.78917
-4.8607e-08
7.79099
-6.71207e-08
7.79261
-8.75498e-08
7.79403
-1.0674e-07
7.79523
-1.26e-07
7.79622
-1.44864e-07
7.79702
-1.60846e-07
7.79765
-1.76718e-07
7.79811
-1.90283e-07
7.79843
-2.01675e-07
7.79864
-2.11867e-07
7.79874
-2.19485e-07
7.79877
-2.25746e-07
7.79873
-2.29302e-07
7.79866
-2.33842e-07
7.79855
-2.36447e-07
7.79841
-2.3772e-07
7.79827