/*--------------------------------*- C++ -*----------------------------------*\
| =========                 |                                                 |
| \\      /  F ield         | OpenFOAM: The Open Source CFD Toolbox           |
|  \\    /   O peration     | Version:  3.0.x                                 |
|   \\  /    A nd           | Web:      www.OpenFOAM.org                      |
|    \\/     M anipulation  |                                                 |
\*---------------------------------------------------------------------------*/
FoamFile
{
    version     2.0;
    format      ascii;
    class       volScalarField;
    location    "0.460075";
    object      p;
}
// * * * * * * * * * * * * * * * * * * * * * * * * * * * * * * * * * * * * * //

dimensions      [1 -1 -2 0 0 0 0];

internalField   nonuniform List<scalar> 
13800
(
1.80346e+07
1.80346e+07
1.80346e+07
1.80346e+07
1.80346e+07
1.80346e+07
1.80346e+07
1.80346e+07
1.80346e+07
1.80346e+07
1.80346e+07
1.80346e+07
1.80346e+07
1.80346e+07
1.80346e+07
1.80346e+07
1.80346e+07
1.80346e+07
1.80346e+07
1.80346e+07
1.80346e+07
1.80346e+07
1.80346e+07
1.80346e+07
1.80346e+07
1.80346e+07
1.80346e+07
1.80346e+07
1.80346e+07
1.80346e+07
1.80346e+07
1.80346e+07
1.80346e+07
1.80346e+07
1.80346e+07
1.80346e+07
1.80346e+07
1.80346e+07
1.80346e+07
1.80346e+07
1.80346e+07
1.80346e+07
1.80346e+07
1.80346e+07
1.80346e+07
1.80346e+07
1.80346e+07
1.80346e+07
1.80346e+07
1.80346e+07
1.80346e+07
1.80346e+07
1.80346e+07
1.80346e+07
1.80346e+07
1.80346e+07
1.80347e+07
1.80347e+07
1.80347e+07
1.80347e+07
1.80347e+07
1.80347e+07
1.80347e+07
1.80348e+07
1.80348e+07
1.80348e+07
1.80348e+07
1.80349e+07
1.80349e+07
1.80349e+07
1.8035e+07
1.8035e+07
1.80351e+07
1.80351e+07
1.80352e+07
1.80352e+07
1.80353e+07
1.80353e+07
1.80354e+07
1.80355e+07
1.80356e+07
1.80357e+07
1.80358e+07
1.80359e+07
1.8036e+07
1.80361e+07
1.80362e+07
1.80364e+07
1.80365e+07
1.80367e+07
1.80368e+07
1.8037e+07
1.80372e+07
1.80374e+07
1.80376e+07
1.80378e+07
1.80381e+07
1.80383e+07
1.80386e+07
1.80389e+07
1.80392e+07
1.80395e+07
1.80398e+07
1.80402e+07
1.80406e+07
1.8041e+07
1.80414e+07
1.80418e+07
1.80423e+07
1.80428e+07
1.80433e+07
1.80438e+07
1.80443e+07
1.80449e+07
1.80455e+07
1.80461e+07
1.80468e+07
1.80475e+07
1.80482e+07
1.80489e+07
1.80497e+07
1.80505e+07
1.80513e+07
1.80522e+07
1.80531e+07
1.8054e+07
1.8055e+07
1.8056e+07
1.8057e+07
1.8058e+07
1.80591e+07
1.80602e+07
1.80614e+07
1.80626e+07
1.80638e+07
1.80651e+07
1.80664e+07
1.80678e+07
1.80691e+07
1.80706e+07
1.8072e+07
1.80735e+07
1.80751e+07
1.80766e+07
1.80783e+07
1.80799e+07
1.80816e+07
1.80834e+07
1.80852e+07
1.8087e+07
1.80889e+07
1.80908e+07
1.80927e+07
1.80947e+07
1.80968e+07
1.80988e+07
1.8101e+07
1.81032e+07
1.81054e+07
1.81076e+07
1.811e+07
1.81123e+07
1.81147e+07
1.81172e+07
1.81197e+07
1.81222e+07
1.81248e+07
1.81274e+07
1.81301e+07
1.81329e+07
1.81356e+07
1.81385e+07
1.81414e+07
1.81443e+07
1.81473e+07
1.81503e+07
1.81534e+07
1.81565e+07
1.81597e+07
1.8163e+07
1.81662e+07
1.81696e+07
1.8173e+07
1.81764e+07
1.81799e+07
1.81835e+07
1.81871e+07
1.81907e+07
1.81944e+07
1.81982e+07
1.8202e+07
1.82059e+07
1.82098e+07
1.82138e+07
1.82179e+07
1.8222e+07
1.82261e+07
1.82305e+07
1.82355e+07
1.82418e+07
1.80346e+07
1.80346e+07
1.80346e+07
1.80346e+07
1.80346e+07
1.80346e+07
1.80346e+07
1.80346e+07
1.80346e+07
1.80346e+07
1.80346e+07
1.80346e+07
1.80346e+07
1.80346e+07
1.80346e+07
1.80346e+07
1.80346e+07
1.80346e+07
1.80346e+07
1.80346e+07
1.80346e+07
1.80346e+07
1.80346e+07
1.80346e+07
1.80346e+07
1.80346e+07
1.80346e+07
1.80346e+07
1.80346e+07
1.80346e+07
1.80346e+07
1.80346e+07
1.80346e+07
1.80346e+07
1.80346e+07
1.80346e+07
1.80346e+07
1.80346e+07
1.80346e+07
1.80346e+07
1.80346e+07
1.80346e+07
1.80346e+07
1.80346e+07
1.80346e+07
1.80346e+07
1.80346e+07
1.80346e+07
1.80346e+07
1.80346e+07
1.80346e+07
1.80346e+07
1.80346e+07
1.80346e+07
1.80346e+07
1.80346e+07
1.80347e+07
1.80347e+07
1.80347e+07
1.80347e+07
1.80347e+07
1.80347e+07
1.80347e+07
1.80348e+07
1.80348e+07
1.80348e+07
1.80348e+07
1.80349e+07
1.80349e+07
1.80349e+07
1.8035e+07
1.8035e+07
1.80351e+07
1.80351e+07
1.80352e+07
1.80352e+07
1.80353e+07
1.80353e+07
1.80354e+07
1.80355e+07
1.80356e+07
1.80357e+07
1.80358e+07
1.80359e+07
1.8036e+07
1.80361e+07
1.80362e+07
1.80364e+07
1.80365e+07
1.80367e+07
1.80368e+07
1.8037e+07
1.80372e+07
1.80374e+07
1.80376e+07
1.80378e+07
1.80381e+07
1.80383e+07
1.80386e+07
1.80389e+07
1.80392e+07
1.80395e+07
1.80398e+07
1.80402e+07
1.80406e+07
1.8041e+07
1.80414e+07
1.80418e+07
1.80423e+07
1.80428e+07
1.80433e+07
1.80438e+07
1.80443e+07
1.80449e+07
1.80455e+07
1.80461e+07
1.80468e+07
1.80475e+07
1.80482e+07
1.80489e+07
1.80497e+07
1.80505e+07
1.80513e+07
1.80522e+07
1.80531e+07
1.8054e+07
1.8055e+07
1.8056e+07
1.8057e+07
1.8058e+07
1.80591e+07
1.80602e+07
1.80614e+07
1.80626e+07
1.80638e+07
1.80651e+07
1.80664e+07
1.80678e+07
1.80691e+07
1.80706e+07
1.8072e+07
1.80735e+07
1.80751e+07
1.80766e+07
1.80783e+07
1.80799e+07
1.80816e+07
1.80834e+07
1.80852e+07
1.8087e+07
1.80889e+07
1.80908e+07
1.80927e+07
1.80947e+07
1.80968e+07
1.80988e+07
1.8101e+07
1.81032e+07
1.81054e+07
1.81076e+07
1.811e+07
1.81123e+07
1.81147e+07
1.81172e+07
1.81197e+07
1.81222e+07
1.81248e+07
1.81274e+07
1.81301e+07
1.81329e+07
1.81356e+07
1.81385e+07
1.81414e+07
1.81443e+07
1.81473e+07
1.81503e+07
1.81534e+07
1.81565e+07
1.81597e+07
1.8163e+07
1.81662e+07
1.81696e+07
1.8173e+07
1.81764e+07
1.81799e+07
1.81835e+07
1.81871e+07
1.81907e+07
1.81944e+07
1.81982e+07
1.8202e+07
1.82059e+07
1.82098e+07
1.82138e+07
1.82179e+07
1.8222e+07
1.82261e+07
1.82305e+07
1.82355e+07
1.82418e+07
1.80346e+07
1.80346e+07
1.80346e+07
1.80346e+07
1.80346e+07
1.80346e+07
1.80346e+07
1.80346e+07
1.80346e+07
1.80346e+07
1.80346e+07
1.80346e+07
1.80346e+07
1.80346e+07
1.80346e+07
1.80346e+07
1.80346e+07
1.80346e+07
1.80346e+07
1.80346e+07
1.80346e+07
1.80346e+07
1.80346e+07
1.80346e+07
1.80346e+07
1.80346e+07
1.80346e+07
1.80346e+07
1.80346e+07
1.80346e+07
1.80346e+07
1.80346e+07
1.80346e+07
1.80346e+07
1.80346e+07
1.80346e+07
1.80346e+07
1.80346e+07
1.80346e+07
1.80346e+07
1.80346e+07
1.80346e+07
1.80346e+07
1.80346e+07
1.80346e+07
1.80346e+07
1.80346e+07
1.80346e+07
1.80346e+07
1.80346e+07
1.80346e+07
1.80346e+07
1.80346e+07
1.80346e+07
1.80346e+07
1.80346e+07
1.80347e+07
1.80347e+07
1.80347e+07
1.80347e+07
1.80347e+07
1.80347e+07
1.80347e+07
1.80348e+07
1.80348e+07
1.80348e+07
1.80348e+07
1.80349e+07
1.80349e+07
1.80349e+07
1.8035e+07
1.8035e+07
1.80351e+07
1.80351e+07
1.80352e+07
1.80352e+07
1.80353e+07
1.80353e+07
1.80354e+07
1.80355e+07
1.80356e+07
1.80357e+07
1.80358e+07
1.80359e+07
1.8036e+07
1.80361e+07
1.80362e+07
1.80364e+07
1.80365e+07
1.80367e+07
1.80368e+07
1.8037e+07
1.80372e+07
1.80374e+07
1.80376e+07
1.80378e+07
1.80381e+07
1.80383e+07
1.80386e+07
1.80389e+07
1.80392e+07
1.80395e+07
1.80398e+07
1.80402e+07
1.80406e+07
1.8041e+07
1.80414e+07
1.80418e+07
1.80423e+07
1.80428e+07
1.80433e+07
1.80438e+07
1.80443e+07
1.80449e+07
1.80455e+07
1.80461e+07
1.80468e+07
1.80475e+07
1.80482e+07
1.80489e+07
1.80497e+07
1.80505e+07
1.80513e+07
1.80522e+07
1.80531e+07
1.8054e+07
1.8055e+07
1.8056e+07
1.8057e+07
1.8058e+07
1.80591e+07
1.80602e+07
1.80614e+07
1.80626e+07
1.80638e+07
1.80651e+07
1.80664e+07
1.80678e+07
1.80691e+07
1.80706e+07
1.8072e+07
1.80735e+07
1.80751e+07
1.80766e+07
1.80783e+07
1.80799e+07
1.80816e+07
1.80834e+07
1.80852e+07
1.8087e+07
1.80889e+07
1.80908e+07
1.80927e+07
1.80947e+07
1.80968e+07
1.80988e+07
1.8101e+07
1.81032e+07
1.81054e+07
1.81076e+07
1.811e+07
1.81123e+07
1.81147e+07
1.81172e+07
1.81197e+07
1.81222e+07
1.81248e+07
1.81274e+07
1.81301e+07
1.81329e+07
1.81356e+07
1.81385e+07
1.81414e+07
1.81443e+07
1.81473e+07
1.81503e+07
1.81534e+07
1.81565e+07
1.81597e+07
1.8163e+07
1.81662e+07
1.81696e+07
1.8173e+07
1.81764e+07
1.81799e+07
1.81835e+07
1.81871e+07
1.81907e+07
1.81944e+07
1.81982e+07
1.8202e+07
1.82059e+07
1.82098e+07
1.82138e+07
1.82179e+07
1.8222e+07
1.82261e+07
1.82305e+07
1.82355e+07
1.82417e+07
1.80346e+07
1.80346e+07
1.80346e+07
1.80346e+07
1.80346e+07
1.80346e+07
1.80346e+07
1.80346e+07
1.80346e+07
1.80346e+07
1.80346e+07
1.80346e+07
1.80346e+07
1.80346e+07
1.80346e+07
1.80346e+07
1.80346e+07
1.80346e+07
1.80346e+07
1.80346e+07
1.80346e+07
1.80346e+07
1.80346e+07
1.80346e+07
1.80346e+07
1.80346e+07
1.80346e+07
1.80346e+07
1.80346e+07
1.80346e+07
1.80346e+07
1.80346e+07
1.80346e+07
1.80346e+07
1.80346e+07
1.80346e+07
1.80346e+07
1.80346e+07
1.80346e+07
1.80346e+07
1.80346e+07
1.80346e+07
1.80346e+07
1.80346e+07
1.80346e+07
1.80346e+07
1.80346e+07
1.80346e+07
1.80346e+07
1.80346e+07
1.80346e+07
1.80346e+07
1.80346e+07
1.80346e+07
1.80346e+07
1.80346e+07
1.80347e+07
1.80347e+07
1.80347e+07
1.80347e+07
1.80347e+07
1.80347e+07
1.80347e+07
1.80348e+07
1.80348e+07
1.80348e+07
1.80348e+07
1.80349e+07
1.80349e+07
1.80349e+07
1.8035e+07
1.8035e+07
1.80351e+07
1.80351e+07
1.80352e+07
1.80352e+07
1.80353e+07
1.80353e+07
1.80354e+07
1.80355e+07
1.80356e+07
1.80357e+07
1.80358e+07
1.80359e+07
1.8036e+07
1.80361e+07
1.80362e+07
1.80364e+07
1.80365e+07
1.80367e+07
1.80368e+07
1.8037e+07
1.80372e+07
1.80374e+07
1.80376e+07
1.80378e+07
1.80381e+07
1.80383e+07
1.80386e+07
1.80389e+07
1.80392e+07
1.80395e+07
1.80398e+07
1.80402e+07
1.80406e+07
1.8041e+07
1.80414e+07
1.80418e+07
1.80423e+07
1.80428e+07
1.80433e+07
1.80438e+07
1.80443e+07
1.80449e+07
1.80455e+07
1.80461e+07
1.80468e+07
1.80475e+07
1.80482e+07
1.80489e+07
1.80497e+07
1.80505e+07
1.80513e+07
1.80522e+07
1.80531e+07
1.8054e+07
1.8055e+07
1.8056e+07
1.8057e+07
1.8058e+07
1.80591e+07
1.80602e+07
1.80614e+07
1.80626e+07
1.80638e+07
1.80651e+07
1.80664e+07
1.80678e+07
1.80691e+07
1.80706e+07
1.8072e+07
1.80735e+07
1.80751e+07
1.80766e+07
1.80783e+07
1.80799e+07
1.80816e+07
1.80834e+07
1.80852e+07
1.8087e+07
1.80889e+07
1.80908e+07
1.80927e+07
1.80947e+07
1.80968e+07
1.80988e+07
1.8101e+07
1.81032e+07
1.81054e+07
1.81076e+07
1.811e+07
1.81123e+07
1.81147e+07
1.81172e+07
1.81197e+07
1.81222e+07
1.81248e+07
1.81274e+07
1.81301e+07
1.81329e+07
1.81356e+07
1.81385e+07
1.81414e+07
1.81443e+07
1.81473e+07
1.81503e+07
1.81534e+07
1.81565e+07
1.81597e+07
1.8163e+07
1.81662e+07
1.81696e+07
1.8173e+07
1.81764e+07
1.81799e+07
1.81835e+07
1.81871e+07
1.81907e+07
1.81944e+07
1.81982e+07
1.8202e+07
1.82059e+07
1.82098e+07
1.82138e+07
1.82179e+07
1.8222e+07
1.82261e+07
1.82305e+07
1.82354e+07
1.82414e+07
1.80346e+07
1.80346e+07
1.80346e+07
1.80346e+07
1.80346e+07
1.80346e+07
1.80346e+07
1.80346e+07
1.80346e+07
1.80346e+07
1.80346e+07
1.80346e+07
1.80346e+07
1.80346e+07
1.80346e+07
1.80346e+07
1.80346e+07
1.80346e+07
1.80346e+07
1.80346e+07
1.80346e+07
1.80346e+07
1.80346e+07
1.80346e+07
1.80346e+07
1.80346e+07
1.80346e+07
1.80346e+07
1.80346e+07
1.80346e+07
1.80346e+07
1.80346e+07
1.80346e+07
1.80346e+07
1.80346e+07
1.80346e+07
1.80346e+07
1.80346e+07
1.80346e+07
1.80346e+07
1.80346e+07
1.80346e+07
1.80346e+07
1.80346e+07
1.80346e+07
1.80346e+07
1.80346e+07
1.80346e+07
1.80346e+07
1.80346e+07
1.80346e+07
1.80346e+07
1.80346e+07
1.80346e+07
1.80346e+07
1.80346e+07
1.80347e+07
1.80347e+07
1.80347e+07
1.80347e+07
1.80347e+07
1.80347e+07
1.80347e+07
1.80348e+07
1.80348e+07
1.80348e+07
1.80348e+07
1.80349e+07
1.80349e+07
1.80349e+07
1.8035e+07
1.8035e+07
1.80351e+07
1.80351e+07
1.80352e+07
1.80352e+07
1.80353e+07
1.80353e+07
1.80354e+07
1.80355e+07
1.80356e+07
1.80357e+07
1.80358e+07
1.80359e+07
1.8036e+07
1.80361e+07
1.80362e+07
1.80364e+07
1.80365e+07
1.80367e+07
1.80368e+07
1.8037e+07
1.80372e+07
1.80374e+07
1.80376e+07
1.80378e+07
1.80381e+07
1.80383e+07
1.80386e+07
1.80389e+07
1.80392e+07
1.80395e+07
1.80398e+07
1.80402e+07
1.80406e+07
1.8041e+07
1.80414e+07
1.80418e+07
1.80423e+07
1.80428e+07
1.80433e+07
1.80438e+07
1.80443e+07
1.80449e+07
1.80455e+07
1.80461e+07
1.80468e+07
1.80475e+07
1.80482e+07
1.80489e+07
1.80497e+07
1.80505e+07
1.80513e+07
1.80522e+07
1.80531e+07
1.8054e+07
1.8055e+07
1.8056e+07
1.8057e+07
1.8058e+07
1.80591e+07
1.80602e+07
1.80614e+07
1.80626e+07
1.80638e+07
1.80651e+07
1.80664e+07
1.80678e+07
1.80691e+07
1.80706e+07
1.8072e+07
1.80735e+07
1.80751e+07
1.80766e+07
1.80783e+07
1.80799e+07
1.80816e+07
1.80834e+07
1.80852e+07
1.8087e+07
1.80889e+07
1.80908e+07
1.80927e+07
1.80947e+07
1.80968e+07
1.80988e+07
1.8101e+07
1.81032e+07
1.81054e+07
1.81076e+07
1.811e+07
1.81123e+07
1.81147e+07
1.81172e+07
1.81197e+07
1.81222e+07
1.81248e+07
1.81274e+07
1.81301e+07
1.81329e+07
1.81356e+07
1.81385e+07
1.81414e+07
1.81443e+07
1.81473e+07
1.81503e+07
1.81534e+07
1.81565e+07
1.81597e+07
1.8163e+07
1.81662e+07
1.81696e+07
1.8173e+07
1.81764e+07
1.81799e+07
1.81835e+07
1.81871e+07
1.81907e+07
1.81944e+07
1.81982e+07
1.8202e+07
1.82059e+07
1.82098e+07
1.82138e+07
1.82179e+07
1.8222e+07
1.82261e+07
1.82304e+07
1.82349e+07
1.82399e+07
1.80346e+07
1.80346e+07
1.80346e+07
1.80346e+07
1.80346e+07
1.80346e+07
1.80346e+07
1.80346e+07
1.80346e+07
1.80346e+07
1.80346e+07
1.80346e+07
1.80346e+07
1.80346e+07
1.80346e+07
1.80346e+07
1.80346e+07
1.80346e+07
1.80346e+07
1.80346e+07
1.80346e+07
1.80346e+07
1.80346e+07
1.80346e+07
1.80346e+07
1.80346e+07
1.80346e+07
1.80346e+07
1.80346e+07
1.80346e+07
1.80346e+07
1.80346e+07
1.80346e+07
1.80346e+07
1.80346e+07
1.80346e+07
1.80346e+07
1.80346e+07
1.80346e+07
1.80346e+07
1.80346e+07
1.80346e+07
1.80346e+07
1.80346e+07
1.80346e+07
1.80346e+07
1.80346e+07
1.80346e+07
1.80346e+07
1.80346e+07
1.80346e+07
1.80346e+07
1.80346e+07
1.80346e+07
1.80346e+07
1.80346e+07
1.80347e+07
1.80347e+07
1.80347e+07
1.80347e+07
1.80347e+07
1.80347e+07
1.80347e+07
1.80348e+07
1.80348e+07
1.80348e+07
1.80348e+07
1.80349e+07
1.80349e+07
1.80349e+07
1.8035e+07
1.8035e+07
1.80351e+07
1.80351e+07
1.80352e+07
1.80352e+07
1.80353e+07
1.80353e+07
1.80354e+07
1.80355e+07
1.80356e+07
1.80357e+07
1.80358e+07
1.80359e+07
1.8036e+07
1.80361e+07
1.80362e+07
1.80364e+07
1.80365e+07
1.80367e+07
1.80368e+07
1.8037e+07
1.80372e+07
1.80374e+07
1.80376e+07
1.80378e+07
1.80381e+07
1.80383e+07
1.80386e+07
1.80389e+07
1.80392e+07
1.80395e+07
1.80398e+07
1.80402e+07
1.80406e+07
1.8041e+07
1.80414e+07
1.80418e+07
1.80423e+07
1.80428e+07
1.80433e+07
1.80438e+07
1.80443e+07
1.80449e+07
1.80455e+07
1.80461e+07
1.80468e+07
1.80475e+07
1.80482e+07
1.80489e+07
1.80497e+07
1.80505e+07
1.80513e+07
1.80522e+07
1.80531e+07
1.8054e+07
1.8055e+07
1.8056e+07
1.8057e+07
1.8058e+07
1.80591e+07
1.80602e+07
1.80614e+07
1.80626e+07
1.80638e+07
1.80651e+07
1.80664e+07
1.80678e+07
1.80691e+07
1.80706e+07
1.8072e+07
1.80735e+07
1.80751e+07
1.80766e+07
1.80783e+07
1.80799e+07
1.80816e+07
1.80834e+07
1.80852e+07
1.8087e+07
1.80889e+07
1.80908e+07
1.80927e+07
1.80947e+07
1.80968e+07
1.80988e+07
1.8101e+07
1.81032e+07
1.81054e+07
1.81076e+07
1.811e+07
1.81123e+07
1.81147e+07
1.81172e+07
1.81197e+07
1.81222e+07
1.81248e+07
1.81274e+07
1.81301e+07
1.81329e+07
1.81356e+07
1.81385e+07
1.81414e+07
1.81443e+07
1.81473e+07
1.81503e+07
1.81534e+07
1.81565e+07
1.81597e+07
1.8163e+07
1.81662e+07
1.81696e+07
1.8173e+07
1.81764e+07
1.81799e+07
1.81835e+07
1.81871e+07
1.81907e+07
1.81944e+07
1.81982e+07
1.8202e+07
1.82059e+07
1.82098e+07
1.82138e+07
1.82179e+07
1.82219e+07
1.82261e+07
1.82302e+07
1.82343e+07
1.82378e+07
1.80346e+07
1.80346e+07
1.80346e+07
1.80346e+07
1.80346e+07
1.80346e+07
1.80346e+07
1.80346e+07
1.80346e+07
1.80346e+07
1.80346e+07
1.80346e+07
1.80346e+07
1.80346e+07
1.80346e+07
1.80346e+07
1.80346e+07
1.80346e+07
1.80346e+07
1.80346e+07
1.80346e+07
1.80346e+07
1.80346e+07
1.80346e+07
1.80346e+07
1.80346e+07
1.80346e+07
1.80346e+07
1.80346e+07
1.80346e+07
1.80346e+07
1.80346e+07
1.80346e+07
1.80346e+07
1.80346e+07
1.80346e+07
1.80346e+07
1.80346e+07
1.80346e+07
1.80346e+07
1.80346e+07
1.80346e+07
1.80346e+07
1.80346e+07
1.80346e+07
1.80346e+07
1.80346e+07
1.80346e+07
1.80346e+07
1.80346e+07
1.80346e+07
1.80346e+07
1.80346e+07
1.80346e+07
1.80346e+07
1.80346e+07
1.80347e+07
1.80347e+07
1.80347e+07
1.80347e+07
1.80347e+07
1.80347e+07
1.80347e+07
1.80348e+07
1.80348e+07
1.80348e+07
1.80348e+07
1.80349e+07
1.80349e+07
1.80349e+07
1.8035e+07
1.8035e+07
1.80351e+07
1.80351e+07
1.80352e+07
1.80352e+07
1.80353e+07
1.80353e+07
1.80354e+07
1.80355e+07
1.80356e+07
1.80357e+07
1.80358e+07
1.80359e+07
1.8036e+07
1.80361e+07
1.80362e+07
1.80364e+07
1.80365e+07
1.80367e+07
1.80368e+07
1.8037e+07
1.80372e+07
1.80374e+07
1.80376e+07
1.80378e+07
1.80381e+07
1.80383e+07
1.80386e+07
1.80389e+07
1.80392e+07
1.80395e+07
1.80398e+07
1.80402e+07
1.80406e+07
1.8041e+07
1.80414e+07
1.80418e+07
1.80423e+07
1.80428e+07
1.80433e+07
1.80438e+07
1.80443e+07
1.80449e+07
1.80455e+07
1.80461e+07
1.80468e+07
1.80475e+07
1.80482e+07
1.80489e+07
1.80497e+07
1.80505e+07
1.80513e+07
1.80522e+07
1.80531e+07
1.8054e+07
1.8055e+07
1.8056e+07
1.8057e+07
1.8058e+07
1.80591e+07
1.80602e+07
1.80614e+07
1.80626e+07
1.80638e+07
1.80651e+07
1.80664e+07
1.80678e+07
1.80691e+07
1.80706e+07
1.8072e+07
1.80735e+07
1.80751e+07
1.80766e+07
1.80783e+07
1.80799e+07
1.80816e+07
1.80834e+07
1.80852e+07
1.8087e+07
1.80889e+07
1.80908e+07
1.80927e+07
1.80947e+07
1.80968e+07
1.80988e+07
1.8101e+07
1.81032e+07
1.81054e+07
1.81076e+07
1.811e+07
1.81123e+07
1.81147e+07
1.81172e+07
1.81197e+07
1.81222e+07
1.81248e+07
1.81274e+07
1.81301e+07
1.81329e+07
1.81356e+07
1.81385e+07
1.81414e+07
1.81443e+07
1.81473e+07
1.81503e+07
1.81534e+07
1.81565e+07
1.81597e+07
1.8163e+07
1.81662e+07
1.81696e+07
1.8173e+07
1.81764e+07
1.81799e+07
1.81835e+07
1.81871e+07
1.81907e+07
1.81944e+07
1.81982e+07
1.8202e+07
1.82059e+07
1.82098e+07
1.82138e+07
1.82179e+07
1.82219e+07
1.82261e+07
1.82301e+07
1.82337e+07
1.8236e+07
1.80346e+07
1.80346e+07
1.80346e+07
1.80346e+07
1.80346e+07
1.80346e+07
1.80346e+07
1.80346e+07
1.80346e+07
1.80346e+07
1.80346e+07
1.80346e+07
1.80346e+07
1.80346e+07
1.80346e+07
1.80346e+07
1.80346e+07
1.80346e+07
1.80346e+07
1.80346e+07
1.80346e+07
1.80346e+07
1.80346e+07
1.80346e+07
1.80346e+07
1.80346e+07
1.80346e+07
1.80346e+07
1.80346e+07
1.80346e+07
1.80346e+07
1.80346e+07
1.80346e+07
1.80346e+07
1.80346e+07
1.80346e+07
1.80346e+07
1.80346e+07
1.80346e+07
1.80346e+07
1.80346e+07
1.80346e+07
1.80346e+07
1.80346e+07
1.80346e+07
1.80346e+07
1.80346e+07
1.80346e+07
1.80346e+07
1.80346e+07
1.80346e+07
1.80346e+07
1.80346e+07
1.80346e+07
1.80346e+07
1.80346e+07
1.80347e+07
1.80347e+07
1.80347e+07
1.80347e+07
1.80347e+07
1.80347e+07
1.80347e+07
1.80348e+07
1.80348e+07
1.80348e+07
1.80348e+07
1.80349e+07
1.80349e+07
1.80349e+07
1.8035e+07
1.8035e+07
1.80351e+07
1.80351e+07
1.80352e+07
1.80352e+07
1.80353e+07
1.80353e+07
1.80354e+07
1.80355e+07
1.80356e+07
1.80357e+07
1.80358e+07
1.80359e+07
1.8036e+07
1.80361e+07
1.80362e+07
1.80364e+07
1.80365e+07
1.80367e+07
1.80368e+07
1.8037e+07
1.80372e+07
1.80374e+07
1.80376e+07
1.80378e+07
1.80381e+07
1.80383e+07
1.80386e+07
1.80389e+07
1.80392e+07
1.80395e+07
1.80398e+07
1.80402e+07
1.80406e+07
1.8041e+07
1.80414e+07
1.80418e+07
1.80423e+07
1.80428e+07
1.80433e+07
1.80438e+07
1.80443e+07
1.80449e+07
1.80455e+07
1.80461e+07
1.80468e+07
1.80475e+07
1.80482e+07
1.80489e+07
1.80497e+07
1.80505e+07
1.80513e+07
1.80522e+07
1.80531e+07
1.8054e+07
1.8055e+07
1.8056e+07
1.8057e+07
1.8058e+07
1.80591e+07
1.80602e+07
1.80614e+07
1.80626e+07
1.80638e+07
1.80651e+07
1.80664e+07
1.80678e+07
1.80691e+07
1.80706e+07
1.8072e+07
1.80735e+07
1.80751e+07
1.80766e+07
1.80783e+07
1.80799e+07
1.80816e+07
1.80834e+07
1.80852e+07
1.8087e+07
1.80889e+07
1.80908e+07
1.80927e+07
1.80947e+07
1.80968e+07
1.80988e+07
1.8101e+07
1.81032e+07
1.81054e+07
1.81076e+07
1.811e+07
1.81123e+07
1.81147e+07
1.81172e+07
1.81197e+07
1.81222e+07
1.81248e+07
1.81274e+07
1.81301e+07
1.81329e+07
1.81356e+07
1.81385e+07
1.81414e+07
1.81443e+07
1.81473e+07
1.81503e+07
1.81534e+07
1.81565e+07
1.81597e+07
1.8163e+07
1.81662e+07
1.81696e+07
1.8173e+07
1.81764e+07
1.81799e+07
1.81835e+07
1.81871e+07
1.81907e+07
1.81944e+07
1.81982e+07
1.8202e+07
1.82059e+07
1.82098e+07
1.82138e+07
1.82179e+07
1.82219e+07
1.82261e+07
1.82301e+07
1.82335e+07
1.82357e+07
1.80346e+07
1.80346e+07
1.80346e+07
1.80346e+07
1.80346e+07
1.80346e+07
1.80346e+07
1.80346e+07
1.80346e+07
1.80346e+07
1.80346e+07
1.80346e+07
1.80346e+07
1.80346e+07
1.80346e+07
1.80346e+07
1.80346e+07
1.80346e+07
1.80346e+07
1.80346e+07
1.80346e+07
1.80346e+07
1.80346e+07
1.80346e+07
1.80346e+07
1.80346e+07
1.80346e+07
1.80346e+07
1.80346e+07
1.80346e+07
1.80346e+07
1.80346e+07
1.80346e+07
1.80346e+07
1.80346e+07
1.80346e+07
1.80346e+07
1.80346e+07
1.80346e+07
1.80346e+07
1.80346e+07
1.80346e+07
1.80346e+07
1.80346e+07
1.80346e+07
1.80346e+07
1.80346e+07
1.80346e+07
1.80346e+07
1.80346e+07
1.80346e+07
1.80346e+07
1.80346e+07
1.80346e+07
1.80346e+07
1.80346e+07
1.80347e+07
1.80347e+07
1.80347e+07
1.80347e+07
1.80347e+07
1.80347e+07
1.80347e+07
1.80348e+07
1.80348e+07
1.80348e+07
1.80348e+07
1.80349e+07
1.80349e+07
1.80349e+07
1.8035e+07
1.8035e+07
1.80351e+07
1.80351e+07
1.80352e+07
1.80352e+07
1.80353e+07
1.80353e+07
1.80354e+07
1.80355e+07
1.80356e+07
1.80357e+07
1.80358e+07
1.80359e+07
1.8036e+07
1.80361e+07
1.80362e+07
1.80364e+07
1.80365e+07
1.80367e+07
1.80368e+07
1.8037e+07
1.80372e+07
1.80374e+07
1.80376e+07
1.80378e+07
1.80381e+07
1.80383e+07
1.80386e+07
1.80389e+07
1.80392e+07
1.80395e+07
1.80398e+07
1.80402e+07
1.80406e+07
1.8041e+07
1.80414e+07
1.80418e+07
1.80423e+07
1.80428e+07
1.80433e+07
1.80438e+07
1.80443e+07
1.80449e+07
1.80455e+07
1.80461e+07
1.80468e+07
1.80475e+07
1.80482e+07
1.80489e+07
1.80497e+07
1.80505e+07
1.80513e+07
1.80522e+07
1.80531e+07
1.8054e+07
1.8055e+07
1.8056e+07
1.8057e+07
1.8058e+07
1.80591e+07
1.80602e+07
1.80614e+07
1.80626e+07
1.80638e+07
1.80651e+07
1.80664e+07
1.80678e+07
1.80691e+07
1.80706e+07
1.8072e+07
1.80735e+07
1.80751e+07
1.80766e+07
1.80783e+07
1.80799e+07
1.80816e+07
1.80834e+07
1.80852e+07
1.8087e+07
1.80889e+07
1.80908e+07
1.80927e+07
1.80947e+07
1.80968e+07
1.80988e+07
1.8101e+07
1.81032e+07
1.81054e+07
1.81076e+07
1.811e+07
1.81123e+07
1.81147e+07
1.81172e+07
1.81197e+07
1.81222e+07
1.81248e+07
1.81274e+07
1.81301e+07
1.81329e+07
1.81356e+07
1.81385e+07
1.81414e+07
1.81443e+07
1.81473e+07
1.81503e+07
1.81534e+07
1.81565e+07
1.81597e+07
1.8163e+07
1.81662e+07
1.81696e+07
1.8173e+07
1.81764e+07
1.81799e+07
1.81835e+07
1.81871e+07
1.81907e+07
1.81944e+07
1.81982e+07
1.8202e+07
1.82059e+07
1.82098e+07
1.82138e+07
1.82179e+07
1.82219e+07
1.82261e+07
1.82301e+07
1.82334e+07
1.82356e+07
1.80346e+07
1.80346e+07
1.80346e+07
1.80346e+07
1.80346e+07
1.80346e+07
1.80346e+07
1.80346e+07
1.80346e+07
1.80346e+07
1.80346e+07
1.80346e+07
1.80346e+07
1.80346e+07
1.80346e+07
1.80346e+07
1.80346e+07
1.80346e+07
1.80346e+07
1.80346e+07
1.80346e+07
1.80346e+07
1.80346e+07
1.80346e+07
1.80346e+07
1.80346e+07
1.80346e+07
1.80346e+07
1.80346e+07
1.80346e+07
1.80346e+07
1.80346e+07
1.80346e+07
1.80346e+07
1.80346e+07
1.80346e+07
1.80346e+07
1.80346e+07
1.80346e+07
1.80346e+07
1.80346e+07
1.80346e+07
1.80346e+07
1.80346e+07
1.80346e+07
1.80346e+07
1.80346e+07
1.80346e+07
1.80346e+07
1.80346e+07
1.80346e+07
1.80346e+07
1.80346e+07
1.80346e+07
1.80346e+07
1.80346e+07
1.80347e+07
1.80347e+07
1.80347e+07
1.80347e+07
1.80347e+07
1.80347e+07
1.80347e+07
1.80348e+07
1.80348e+07
1.80348e+07
1.80348e+07
1.80349e+07
1.80349e+07
1.80349e+07
1.8035e+07
1.8035e+07
1.80351e+07
1.80351e+07
1.80352e+07
1.80352e+07
1.80353e+07
1.80353e+07
1.80354e+07
1.80355e+07
1.80356e+07
1.80357e+07
1.80358e+07
1.80359e+07
1.8036e+07
1.80361e+07
1.80362e+07
1.80364e+07
1.80365e+07
1.80367e+07
1.80368e+07
1.8037e+07
1.80372e+07
1.80374e+07
1.80376e+07
1.80378e+07
1.80381e+07
1.80383e+07
1.80386e+07
1.80389e+07
1.80392e+07
1.80395e+07
1.80398e+07
1.80402e+07
1.80406e+07
1.8041e+07
1.80414e+07
1.80418e+07
1.80423e+07
1.80428e+07
1.80433e+07
1.80438e+07
1.80443e+07
1.80449e+07
1.80455e+07
1.80461e+07
1.80468e+07
1.80475e+07
1.80482e+07
1.80489e+07
1.80497e+07
1.80505e+07
1.80513e+07
1.80522e+07
1.80531e+07
1.8054e+07
1.8055e+07
1.8056e+07
1.8057e+07
1.8058e+07
1.80591e+07
1.80602e+07
1.80614e+07
1.80626e+07
1.80638e+07
1.80651e+07
1.80664e+07
1.80678e+07
1.80691e+07
1.80706e+07
1.8072e+07
1.80735e+07
1.80751e+07
1.80766e+07
1.80783e+07
1.80799e+07
1.80816e+07
1.80834e+07
1.80852e+07
1.8087e+07
1.80889e+07
1.80908e+07
1.80927e+07
1.80947e+07
1.80968e+07
1.80988e+07
1.8101e+07
1.81032e+07
1.81054e+07
1.81076e+07
1.811e+07
1.81123e+07
1.81147e+07
1.81172e+07
1.81197e+07
1.81222e+07
1.81248e+07
1.81274e+07
1.81301e+07
1.81329e+07
1.81356e+07
1.81385e+07
1.81414e+07
1.81443e+07
1.81473e+07
1.81503e+07
1.81534e+07
1.81565e+07
1.81597e+07
1.8163e+07
1.81662e+07
1.81696e+07
1.8173e+07
1.81764e+07
1.81799e+07
1.81835e+07
1.81871e+07
1.81907e+07
1.81944e+07
1.81982e+07
1.8202e+07
1.82059e+07
1.82098e+07
1.82138e+07
1.82179e+07
1.82219e+07
1.82261e+07
1.82301e+07
1.82334e+07
1.82356e+07
1.82598e+07
1.82677e+07
1.8271e+07
1.82723e+07
1.82731e+07
1.8274e+07
1.82747e+07
1.82754e+07
1.8276e+07
1.82765e+07
1.82771e+07
1.82775e+07
1.8278e+07
1.82783e+07
1.82786e+07
1.82786e+07
1.82784e+07
1.82778e+07
1.82765e+07
1.8274e+07
1.82588e+07
1.82657e+07
1.82689e+07
1.82702e+07
1.82711e+07
1.82719e+07
1.82727e+07
1.82733e+07
1.82739e+07
1.82745e+07
1.8275e+07
1.82755e+07
1.8276e+07
1.82763e+07
1.82766e+07
1.82766e+07
1.82764e+07
1.82757e+07
1.82745e+07
1.82721e+07
1.82578e+07
1.82649e+07
1.82686e+07
1.827e+07
1.82709e+07
1.82717e+07
1.82725e+07
1.82732e+07
1.82737e+07
1.82743e+07
1.82748e+07
1.82753e+07
1.82757e+07
1.8276e+07
1.82762e+07
1.82762e+07
1.82759e+07
1.82751e+07
1.82737e+07
1.82711e+07
1.82538e+07
1.8258e+07
1.82598e+07
1.82605e+07
1.82612e+07
1.82619e+07
1.82626e+07
1.82632e+07
1.82638e+07
1.82644e+07
1.8265e+07
1.82655e+07
1.8266e+07
1.82664e+07
1.82667e+07
1.82668e+07
1.82667e+07
1.82661e+07
1.8265e+07
1.82632e+07
1.82482e+07
1.82515e+07
1.82543e+07
1.82565e+07
1.82583e+07
1.82596e+07
1.82606e+07
1.82615e+07
1.82621e+07
1.82627e+07
1.82631e+07
1.82633e+07
1.82636e+07
1.82636e+07
1.82635e+07
1.82632e+07
1.82627e+07
1.82621e+07
1.82612e+07
1.82602e+07
1.82369e+07
1.82358e+07
1.82344e+07
1.82331e+07
1.8232e+07
1.82314e+07
1.82312e+07
1.82313e+07
1.82316e+07
1.82321e+07
1.82328e+07
1.82337e+07
1.82345e+07
1.82355e+07
1.82365e+07
1.82375e+07
1.82386e+07
1.82398e+07
1.82411e+07
1.82428e+07
1.82257e+07
1.82233e+07
1.82232e+07
1.82244e+07
1.82255e+07
1.82264e+07
1.82271e+07
1.82278e+07
1.82285e+07
1.8229e+07
1.82295e+07
1.82299e+07
1.82302e+07
1.82306e+07
1.8231e+07
1.82317e+07
1.82326e+07
1.82341e+07
1.82362e+07
1.8239e+07
1.82104e+07
1.82011e+07
1.81938e+07
1.81891e+07
1.81862e+07
1.81844e+07
1.81833e+07
1.81828e+07
1.81829e+07
1.81835e+07
1.81845e+07
1.81858e+07
1.81876e+07
1.81899e+07
1.81927e+07
1.8196e+07
1.82e+07
1.82049e+07
1.82107e+07
1.82177e+07
1.82059e+07
1.81961e+07
1.81898e+07
1.81862e+07
1.81841e+07
1.81827e+07
1.81818e+07
1.81815e+07
1.81817e+07
1.81823e+07
1.81832e+07
1.81844e+07
1.81861e+07
1.81882e+07
1.81908e+07
1.81939e+07
1.81977e+07
1.82023e+07
1.82081e+07
1.82151e+07
1.82016e+07
1.81873e+07
1.81787e+07
1.81741e+07
1.81713e+07
1.81694e+07
1.81683e+07
1.81678e+07
1.8168e+07
1.81686e+07
1.81696e+07
1.81711e+07
1.8173e+07
1.81754e+07
1.81784e+07
1.8182e+07
1.81864e+07
1.81917e+07
1.81982e+07
1.82065e+07
1.82624e+07
1.82587e+07
1.82602e+07
1.82634e+07
1.82669e+07
1.82706e+07
1.82744e+07
1.82783e+07
1.82821e+07
1.8286e+07
1.829e+07
1.8294e+07
1.8298e+07
1.83021e+07
1.83062e+07
1.83103e+07
1.83145e+07
1.83187e+07
1.83229e+07
1.83272e+07
1.83315e+07
1.83358e+07
1.83402e+07
1.83446e+07
1.83491e+07
1.83536e+07
1.83581e+07
1.83627e+07
1.83673e+07
1.83719e+07
1.83766e+07
1.83813e+07
1.8386e+07
1.83908e+07
1.83956e+07
1.84004e+07
1.84053e+07
1.84102e+07
1.84151e+07
1.84201e+07
1.84251e+07
1.84302e+07
1.84352e+07
1.84404e+07
1.84455e+07
1.84507e+07
1.84559e+07
1.84612e+07
1.84664e+07
1.84718e+07
1.84771e+07
1.84825e+07
1.84879e+07
1.84933e+07
1.84988e+07
1.85043e+07
1.85099e+07
1.85154e+07
1.8521e+07
1.85267e+07
1.85323e+07
1.8538e+07
1.85438e+07
1.85495e+07
1.85553e+07
1.85611e+07
1.8567e+07
1.85729e+07
1.85788e+07
1.85847e+07
1.85907e+07
1.85967e+07
1.86027e+07
1.86087e+07
1.86148e+07
1.86209e+07
1.8627e+07
1.86332e+07
1.86393e+07
1.86455e+07
1.86518e+07
1.8658e+07
1.86643e+07
1.86706e+07
1.86769e+07
1.86833e+07
1.86896e+07
1.8696e+07
1.87024e+07
1.87089e+07
1.87153e+07
1.87218e+07
1.87283e+07
1.87348e+07
1.87414e+07
1.87479e+07
1.87545e+07
1.87611e+07
1.87677e+07
1.87744e+07
1.8781e+07
1.87877e+07
1.87944e+07
1.88011e+07
1.88078e+07
1.88145e+07
1.88213e+07
1.8828e+07
1.88348e+07
1.88416e+07
1.88484e+07
1.88552e+07
1.8862e+07
1.88689e+07
1.88757e+07
1.88826e+07
1.88895e+07
1.88963e+07
1.89032e+07
1.89101e+07
1.8917e+07
1.8924e+07
1.89309e+07
1.89378e+07
1.89447e+07
1.89516e+07
1.89586e+07
1.89655e+07
1.89724e+07
1.89794e+07
1.89863e+07
1.89932e+07
1.90001e+07
1.90071e+07
1.9014e+07
1.90209e+07
1.90278e+07
1.90347e+07
1.90416e+07
1.90485e+07
1.90554e+07
1.90623e+07
1.90692e+07
1.90761e+07
1.9083e+07
1.90899e+07
1.90968e+07
1.91036e+07
1.91105e+07
1.91174e+07
1.91242e+07
1.9131e+07
1.91379e+07
1.91447e+07
1.91515e+07
1.91583e+07
1.91651e+07
1.91718e+07
1.91786e+07
1.91854e+07
1.91921e+07
1.91988e+07
1.92055e+07
1.92122e+07
1.92189e+07
1.92256e+07
1.92323e+07
1.92389e+07
1.92455e+07
1.92521e+07
1.92587e+07
1.92653e+07
1.92719e+07
1.92784e+07
1.92849e+07
1.92915e+07
1.92979e+07
1.93044e+07
1.93109e+07
1.93173e+07
1.93237e+07
1.93301e+07
1.93365e+07
1.93428e+07
1.93491e+07
1.93554e+07
1.93617e+07
1.9368e+07
1.93742e+07
1.93804e+07
1.93866e+07
1.93928e+07
1.93989e+07
1.94051e+07
1.94112e+07
1.94172e+07
1.94233e+07
1.94293e+07
1.94352e+07
1.94411e+07
1.82618e+07
1.82585e+07
1.82602e+07
1.82634e+07
1.82669e+07
1.82706e+07
1.82744e+07
1.82782e+07
1.82821e+07
1.8286e+07
1.829e+07
1.8294e+07
1.8298e+07
1.83021e+07
1.83062e+07
1.83103e+07
1.83145e+07
1.83187e+07
1.83229e+07
1.83272e+07
1.83315e+07
1.83358e+07
1.83402e+07
1.83446e+07
1.83491e+07
1.83536e+07
1.83581e+07
1.83627e+07
1.83673e+07
1.83719e+07
1.83766e+07
1.83813e+07
1.8386e+07
1.83908e+07
1.83956e+07
1.84004e+07
1.84053e+07
1.84102e+07
1.84151e+07
1.84201e+07
1.84251e+07
1.84302e+07
1.84352e+07
1.84404e+07
1.84455e+07
1.84507e+07
1.84559e+07
1.84612e+07