/*--------------------------------*- C++ -*----------------------------------*\
| =========                 |                                                 |
| \\      /  F ield         | OpenFOAM: The Open Source CFD Toolbox           |
|  \\    /   O peration     | Version:  3.0.x                                 |
|   \\  /    A nd           | Web:      www.OpenFOAM.org                      |
|    \\/     M anipulation  |                                                 |
\*---------------------------------------------------------------------------*/
FoamFile
{
    version     2.0;
    format      ascii;
    class       surfaceScalarField;
    location    "0.460075";
    object      phi;
}
// * * * * * * * * * * * * * * * * * * * * * * * * * * * * * * * * * * * * * //

dimensions      [1 0 -1 0 0 0 0];

internalField   nonuniform List<scalar> 
26210
(
5.30354
0.000503956
5.30319
0.000346576
5.30285
0.000339997
5.3025
0.000341602
5.30215
0.000341665
5.30181
0.000341585
5.30146
0.000341564
5.30111
0.000341561
5.30076
0.000341545
5.30042
0.000341533
5.30007
0.000341524
5.29973
0.000341513
5.29938
0.000341502
5.29903
0.000341491
5.29869
0.000341479
5.29834
0.000341468
5.298
0.000341454
5.29765
0.000341435
5.29731
0.000341443
5.29696
0.00034142
5.29662
0.000341408
5.29628
0.000341396
5.29593
0.000341389
5.29559
0.000341371
5.29524
0.000341358
5.2949
0.000341349
5.29456
0.000341337
5.29421
0.000341325
5.29387
0.000341313
5.29353
0.000341296
5.29318
0.000341293
5.29284
0.000341275
5.29249
0.00034126
5.29215
0.000341246
5.29181
0.000341241
5.29146
0.000341222
5.29112
0.000341207
5.29077
0.000341193
5.29043
0.000341179
5.29008
0.000341177
5.28974
0.000341151
5.28939
0.000341134
5.28904
0.000341072
5.28869
0.000341261
5.28834
0.000341009
5.28799
0.000341097
5.28764
0.000341092
5.28729
0.000341087
5.28693
0.000341047
5.28658
0.000340998
5.28623
0.000341165
5.28588
0.000341125
5.28553
0.000341091
5.28517
0.0003411
5.28481
0.000341106
5.28445
0.000341113
5.28408
0.000341108
5.28371
0.000341134
5.28334
0.000341095
5.28296
0.000341191
5.28257
0.000341151
5.28219
0.000341156
5.2818
0.000341165
5.28141
0.000341173
5.28101
0.00034118
5.28061
0.000341038
5.2802
0.00034132
5.27978
0.000341283
5.27936
0.000341168
5.27893
0.000341067
5.27849
0.000341676
5.27805
0.000341029
5.2776
0.000341238
5.27714
0.000341222
5.27667
0.000341185
5.27619
0.000341124
5.27569
0.000341029
5.27518
0.000340887
5.27465
0.000340667
5.27411
0.000340427
5.27355
0.000340028
5.27297
0.000339521
5.27238
0.000338857
5.27177
0.000338
5.27114
0.000336911
5.27049
0.000335545
5.26982
0.000333852
5.26913
0.00033178
5.26842
0.000329274
5.26769
0.00032628
5.26693
0.000322741
5.26615
0.000318603
5.26534
0.000313812
5.26451
0.000308328
5.26364
0.000302114
5.26275
0.000295146
5.26183
0.000287413
5.26088
0.000278917
5.2599
0.000269673
5.25889
0.000259716
5.25784
0.000249095
5.25677
0.000237873
5.25565
0.000226129
5.25451
0.000213955
5.25332
0.000201451
5.2521
0.000188727
5.25084
0.000175896
5.24954
0.000163075
5.24819
0.000150378
5.2468
0.000137915
5.24537
0.000125789
5.24388
0.000114092
5.24234
0.000102908
5.24075
9.23041e-05
5.23911
8.23367e-05
5.2374
7.30461e-05
5.23564
6.44587e-05
5.23382
5.65873e-05
5.23193
4.94319e-05
5.22997
4.29811e-05
5.22794
3.72134e-05
5.22585
3.20988e-05
5.22368
2.76008e-05
5.22143
2.36778e-05
5.21911
2.0285e-05
5.21671
1.73757e-05
5.21423
1.49024e-05
5.21167
1.28187e-05
5.20902
1.10794e-05
5.20629
9.64167e-06
5.20347
8.46568e-06
5.20056
7.51471e-06
5.19757
6.75552e-06
5.19448
6.15837e-06
5.1913
5.69699e-06
5.18803
5.34844e-06
5.18466
5.09285e-06
5.1812
4.91327e-06
5.17763
4.79536e-06
5.17398
4.72709e-06
5.17022
4.69857e-06
5.16636
4.70158e-06
5.1624
4.72949e-06
5.15834
4.77685e-06
5.15418
4.83934e-06
5.14991
4.9135e-06
5.14553
4.99665e-06
5.14106
5.08672e-06
5.13647
5.18213e-06
5.13178
5.28157e-06
5.12698
5.38411e-06
5.12206
5.48896e-06
5.11704
5.59561e-06
5.11191
5.70361e-06
5.10667
5.8127e-06
5.10131
5.92261e-06
5.09584
6.03318e-06
5.09025
6.14432e-06
5.08455
6.25589e-06
5.07874
6.36787e-06
5.0728
6.48013e-06
5.06675
6.5926e-06
5.06058
6.7052e-06
5.05429
6.81801e-06
5.04788
6.93098e-06
5.04135
7.04415e-06
5.0347
7.15747e-06
5.02793
7.27087e-06
5.02103
7.38447e-06
5.01401
7.49815e-06
5.00686
7.61192e-06
4.99959
7.72575e-06
4.99219
7.83961e-06
4.98467
7.95357e-06
4.97701
8.06761e-06
4.96923
8.18175e-06
4.96132
8.29588e-06
4.95328
8.40998e-06
4.94511
8.52401e-06
4.93681
8.63807e-06
4.92837
8.75214e-06
4.9198
8.86653e-06
4.9111
8.98066e-06
4.90226
9.0956e-06
4.89328
9.20829e-06
4.88417
9.32412e-06
4.87493
9.43695e-06
4.86554
9.5492e-06
4.85602
9.70402e-06
4.84636
9.85354e-06
4.83656
1.05103e-05
4.82662
1.26214e-05
4.81652
2.32186e-05
4.80624
7.26243e-05
4.79558
0.000310574
4.78364
0.0014443
4.76618
0.00682149
4.72326
0.0321408
4.54429
0.168063
0.619541
3.91367
7.50123
0.000460232
7.50124
0.000329233
7.50126
0.0003154
7.50127
0.000318802
7.50128
0.000318989
7.5013
0.000318865
7.50131
0.000318865
7.50132
0.000318902
7.50134
0.000318915
7.50135
0.000318938
7.50137
0.00031896
7.50138
0.000318981
7.5014
0.000319002
7.50141
0.000319022
7.50143
0.000319042
7.50144
0.000319062
7.50146
0.000319085
7.50148
0.000319088
7.50149
0.000319132
7.50151
0.000319141
7.50153
0.00031916
7.50154
0.00031918
7.50156
0.000319206
7.50158
0.000319217
7.50159
0.000319235
7.50161
0.000319258
7.50163
0.000319278
7.50165
0.000319298
7.50167
0.000319319
7.50168
0.000319333
7.5017
0.000319357
7.50172
0.000319374
7.50173
0.000319389
7.50175
0.000319406
7.50177
0.000319437
7.50178
0.000319446
7.5018
0.000319463
7.50182
0.00031948
7.50183
0.000319498
7.50185
0.000319526
7.50186
0.000319533
7.50187
0.000319548
7.50188
0.000319526
7.50189
0.000319703
7.5019
0.000319542
7.5019
0.000319635
7.50191
0.000319662
7.50191
0.000319687
7.50191
0.000319682
7.50192
0.000319672
7.50192
0.00031985
7.50193
0.000319846
7.50193
0.000319843
7.50193
0.000319885
7.50193
0.000319921
7.50192
0.000319958
7.5019
0.000319986
7.50188
0.000320037
7.50185
0.000320037
7.50182
0.000320149
7.50178
0.000320148
7.50174
0.000320182
7.50169
0.000320221
7.50163
0.00032026
7.50157
0.000320296
7.50151
0.000320199
7.50143
0.000320474
7.50134
0.000320496
7.50125
0.00032041
7.50114
0.000320358
7.50103
0.000320916
7.50091
0.000320381
7.50077
0.000320586
7.50062
0.000320603
7.50046
0.000320592
7.50028
0.000320557
7.50007
0.000320488
7.49985
0.000320372
7.49961
0.000320172
7.49934
0.000319955
7.49905
0.000319579
7.49874
0.000319091
7.4984
0.000318446
7.49803
0.000317607
7.49763
0.000316537
7.49721
0.00031519
7.49675
0.000313518
7.49626
0.00031147
7.49574
0.000308994
7.49519
0.000306038
7.49459
0.000302547
7.49396
0.000298473
7.49328
0.000293763
7.49255
0.000288383
7.49178
0.0002823
7.49095
0.000275497
7.49007
0.000267964
7.48914
0.00025971
7.48815
0.000250755
7.48711
0.000241135
7.486
0.000230904
7.48483
0.000220127
7.48359
0.000208884
7.48229
0.000197264
7.48092
0.000185368
7.47947
0.000173302
7.47795
0.000161175
7.47635
0.000149097
7.47467
0.000137176
7.47291
0.000125515
7.47107
0.000114207
7.46914
0.000103337
7.46712
9.29794e-05
7.46501
8.31936e-05
7.46281
7.40269e-05
7.46051
6.55124e-05
7.45811
5.767e-05
7.45562
5.05067e-05
7.45302
4.4018e-05
7.45032
3.81889e-05
7.44751
3.29956e-05
7.44459
2.84068e-05
7.44157
2.43857e-05
7.43843
2.08916e-05
7.43517
1.78808e-05
7.43181
1.53087e-05
7.42832
1.31306e-05
7.42471
1.13029e-05
7.42099
9.78365e-06
7.41714
8.5334e-06
7.41316
7.51561e-06
7.40906
6.69688e-06
7.40484
6.04714e-06
7.40048
5.53964e-06
7.39599
5.15085e-06
7.39137
4.86035e-06
7.38661
4.65055e-06
7.38172
4.50648e-06
7.37669
4.41554e-06
7.37152
4.36723e-06
7.36621
4.35296e-06
7.36076
4.36558e-06
7.35517
4.39938e-06
7.34943
4.44968e-06
7.34355
4.51278e-06
7.33752
4.58571e-06
7.33134
4.6662e-06
7.32502
4.75251e-06
7.31854
4.84329e-06
7.31191
4.93746e-06
7.30513
5.0342e-06
7.29819
5.13288e-06
7.29109
5.23308e-06
7.28384
5.33441e-06
7.27643
5.43667e-06
7.26887
5.53961e-06
7.26114
5.64314e-06
7.25325
5.74716e-06
7.24519
5.85156e-06
7.23698
5.95632e-06
7.22859
6.06133e-06
7.22005
6.16654e-06
7.21133
6.27186e-06
7.20244
6.37738e-06
7.19339
6.48304e-06
7.18416
6.5889e-06
7.17477
6.69489e-06
7.1652
6.80095e-06
7.15545
6.90721e-06
7.14553
7.01354e-06
7.13544
7.11995e-06
7.12516
7.22644e-06
7.11471
7.33291e-06
7.10408
7.43952e-06
7.09327
7.54615e-06
7.08228
7.65293e-06
7.0711
7.75968e-06
7.05974
7.86642e-06
7.04819
7.97309e-06
7.03646
8.07975e-06
7.02454
8.18654e-06
7.01244
8.29329e-06
7.00014
8.40065e-06
6.98765
8.50717e-06
6.97498
8.61463e-06
6.96211
8.71904e-06
6.94904
8.83631e-06
6.93579
8.92089e-06
6.92233
9.15406e-06
6.90869
9.31653e-06
6.89484
1.07712e-05
6.88079
1.56783e-05
6.86653
4.11655e-05
6.85201
0.000160443
6.83693
0.000735718
6.82006
0.00347755
6.79534
0.0164946
6.73443
0.0778189
6.48811
0.398939
1.43115
5.66084
10.6083
0.000402099
10.6084
0.000301944
10.6084
0.000281306
10.6084
0.000286223
10.6084
0.000286604
10.6084
0.000286409
10.6085
0.000286397
10.6085
0.000286444
10.6085
0.000286454
10.6085
0.000286481
10.6085
0.000286501
10.6086
0.000286521
10.6086
0.00028654
10.6086
0.000286559
10.6086
0.000286578
10.6086
0.000286597
10.6087
0.000286623
10.6087
0.000286614
10.6087
0.000286661
10.6087
0.000286669
10.6088
0.000286686
10.6088
0.000286705
10.6088
0.000286731
10.6088
0.000286736
10.6089
0.000286752
10.6089
0.000286775
10.6089
0.000286793
10.6089
0.000286811
10.609
0.000286832
10.609
0.000286845
10.609
0.00028686
10.6091
0.000286879
10.6091
0.000286892
10.6091
0.000286905
10.6091
0.00028694
10.6092
0.000286945
10.6092
0.00028696
10.6092
0.000286976
10.6092
0.000286991
10.6092
0.000287016
10.6093
0.000287023
10.6093
0.000287037
10.6093
0.000287024
10.6093
0.000287147
10.6093
0.000287055
10.6093
0.000287114
10.6093
0.000287139
10.6094
0.000287162
10.6094
0.000287157
10.6094
0.000287157
10.6094
0.000287303
10.6094
0.000287305
10.6094
0.0002873
10.6094
0.000287342
10.6094
0.000287372
10.6094
0.000287405
10.6094
0.000287433
10.6093
0.000287476
10.6093
0.000287482
10.6093
0.000287573
10.6092
0.000287578
10.6091
0.000287607
10.6091
0.000287643
10.609
0.000287678
10.6089
0.000287709
10.6088
0.000287629
10.6087
0.000287852
10.6086
0.000287904
10.6085
0.000287816
10.6083
0.000287783
10.6082
0.000288238
10.608
0.000287806
10.6078
0.000287969
10.6076
0.000287988
10.6074
0.000287978
10.6071
0.000287948
10.6068
0.000287886
10.6065
0.000287786
10.6062
0.000287602
10.6058
0.000287411
10.6054
0.000287076
10.605
0.00028664
10.6045
0.000286064
10.604
0.000285314
10.6034
0.000284357
10.6028
0.000283152
10.6022
0.000281657
10.6015
0.000279824
10.6008
0.000277609
10.6
0.000274963
10.5991
0.000271837
10.5982
0.00026819
10.5973
0.000263971
10.5963
0.000259153
10.5952
0.000253703
10.594
0.000247607
10.5928
0.000240856
10.5914
0.000233457
10.59
0.000225429
10.5886
0.000216803
10.587
0.000207627
10.5853
0.00019796
10.5836
0.000187872
10.5817
0.000177444
10.5798
0.000166767
10.5777
0.000155934
10.5756
0.000145044
10.5733
0.000134197
10.5709
0.000123487
10.5684
0.000113009
10.5658
0.000102846
10.5631
9.30743e-05
10.5602
8.37607e-05
10.5572
7.49594e-05
10.5541
6.67129e-05
10.5509
5.90512e-05
10.5475
5.19924e-05
10.5439
4.55432e-05
10.5403
3.96998e-05
10.5364
3.4449e-05
10.5325
2.97695e-05
10.5283
2.56337e-05
10.5241
2.20084e-05
10.5196
1.88573e-05
10.515
1.61412e-05
10.5103
1.38201e-05
10.5053
1.1854e-05
10.5002
1.02035e-05
10.4949
8.83104e-06
10.4895
7.70117e-06
10.4839
6.78096e-06
10.4781
6.04036e-06
10.4721
5.4523e-06
10.4659
4.99266e-06
10.4596
4.64025e-06
10.4531
4.37667e-06
10.4463
4.18601e-06
10.4394
4.05481e-06
10.4323
3.97166e-06
10.425
3.92709e-06
10.4175
3.91332e-06
10.4098
3.92393e-06
10.4019
3.95369e-06
10.3938
3.99841e-06
10.3854
4.05473e-06
10.3769
4.11996e-06
10.3682
4.19205e-06
10.3592
4.26942e-06
10.3501
4.35086e-06
10.3407
4.43535e-06
10.3311
4.52217e-06
10.3213
4.61076e-06
10.3112
4.70072e-06
10.301
4.79173e-06
10.2905
4.88356e-06
10.2798
4.97602e-06
10.2689
5.06899e-06
10.2577
5.16243e-06
10.2463
5.2562e-06
10.2347
5.35029e-06
10.2229
5.44461e-06
10.2108
5.53912e-06
10.1984
5.63373e-06
10.1859
5.72851e-06
10.1731
5.82342e-06
10.16
5.91851e-06
10.1467
6.01372e-06
10.1332
6.10898e-06
10.1194
6.20442e-06
10.1054
6.29994e-06
10.0911
6.39553e-06
10.0766
6.4912e-06
10.0618
6.58681e-06
10.0468
6.68259e-06
10.0315
6.77834e-06
10.0159
6.87428e-06
10.0001
6.97017e-06
9.98406
7.06604e-06
9.96774
7.16187e-06
9.95114
7.25762e-06
9.93429
7.3537e-06
9.91717
7.44912e-06
9.89978
7.54657e-06
9.88212
7.64037e-06
9.86419
7.74075e-06
9.84599
7.82685e-06
9.82751
7.95304e-06
9.80877
7.99221e-06
9.78974
8.34242e-06
9.77044
8.50557e-06
9.75086
1.1067e-05
9.731
1.97646e-05
9.71083
6.55906e-05
9.69029
0.000280154
9.669
0.00131575
9.64524
0.00625278
9.61074
0.029709
9.52696
0.14005
9.19543
0.708633
2.49721
8.10721
46.8274
0.000185465
46.8275
0.000157981
46.8276
0.000139461
46.8277
0.000142689
46.8278
0.000143635
46.8279
0.000143358
46.828
0.000143273
46.828
0.000143288
46.8281
0.000143274
46.8282
0.00014328
46.8283
0.000143281
46.8284
0.000143286
46.8285
0.000143291
46.8286
0.000143297
46.8287
0.000143304
46.8288
0.000143311
46.8289
0.000143327
46.829
0.000143315
46.8291
0.000143334
46.8292
0.000143342
46.8293
0.000143349
46.8295
0.000143358
46.8296
0.000143372
46.8297
0.000143371
46.8298
0.000143377
46.8299
0.00014339
46.83
0.000143399
46.8301
0.000143408
46.8303
0.000143418
46.8304
0.000143434
46.8305
0.000143422
46.8306
0.00014344
46.8307
0.000143444
46.8308
0.00014345
46.8309
0.000143478
46.831
0.000143474
46.8312
0.00014348
46.8313
0.000143488
46.8314
0.000143496
46.8315
0.000143508
46.8316
0.000143512
46.8316
0.000143519
46.8317
0.000143519
46.8318
0.000143532
46.8318
0.00014356
46.8319
0.000143557
46.8319
0.000143569
46.8319
0.00014358
46.832
0.000143578
46.832
0.000143587
46.832
0.000143644
46.8321
0.000143651
46.8321
0.000143646
46.8321
0.000143672
46.8321
0.000143685
46.8321
0.000143702
46.832
0.000143718
46.8319
0.000143735
46.8317
0.000143746
46.8315
0.000143779
46.8313
0.00014379
46.831
0.000143803
46.8307
0.000143821
46.8304
0.000143838
46.83
0.000143851
46.8296
0.000143816
46.8292
0.000143901
46.8286
0.000143971
46.8281
0.000143912
46.8274
0.00014391
46.8267
0.00014408
46.826
0.000143924
46.8251
0.000143981
46.8242
0.000143996
46.8232
0.00014399
46.8221
0.000143976
46.8209
0.000143947
46.8195
0.0001439
46.818
0.000143804
46.8163
0.000143714
46.8146
0.000143551
46.8126
0.000143335
46.8105
0.000143052
46.8082
0.000142683
46.8057
0.000142211
46.8031
0.000141616
46.8003
0.000140878
46.7972
0.000139973
46.794
0.000138878
46.7905
0.000137569
46.7868
0.000136021
46.7829
0.000134215
46.7786
0.000132124
46.7741
0.000129735
46.7693
0.00012703
46.7641
0.000124003
46.7586
0.000120649
46.7528
0.000116971
46.7467
0.000112977
46.7401
0.000108684
46.7332
0.000104114
46.7259
9.9296e-05
46.7181
9.42658e-05
46.71
8.90633e-05
46.7014
8.37328e-05
46.6923
7.83216e-05
46.6828
7.28788e-05
46.6728
6.74536e-05
46.6623
6.20945e-05
46.6513
5.68477e-05
46.6398
5.17558e-05
46.6277
4.68574e-05
46.6151
4.21856e-05
46.6019
3.77682e-05
46.5882
3.36268e-05
46.5738
2.97768e-05
46.5588
2.62276e-05
46.5432
2.29831e-05
46.527
2.00416e-05
46.5101
1.73968e-05
46.4926
1.50384e-05
46.4743
1.29527e-05
46.4554
1.11234e-05
46.4358
9.53242e-06
46.4155
8.16024e-06
46.3945
6.98689e-06
46.3727
5.99231e-06
46.3502
5.15687e-06
46.3269
4.46167e-06
46.3029
3.88891e-06
46.2781
3.42207e-06
46.2525
3.04602e-06
46.2261
2.74713e-06
46.1989
2.51325e-06
46.1709
2.33369e-06
46.142
2.19915e-06
46.1123
2.10158e-06
46.0818
2.03416e-06
46.0504
1.99113e-06
46.0181
1.96766e-06
45.985
1.95983e-06
45.951
1.96443e-06
45.9161
1.9787e-06
45.8802
2.0006e-06
45.8435
2.02843e-06
45.8059
2.06078e-06
45.7673
2.09658e-06
45.7278
2.13512e-06
45.6874
2.17576e-06
45.646
2.21792e-06
45.6036
2.26123e-06
45.5603
2.30545e-06
45.516
2.35041e-06
45.4708
2.39593e-06
45.4245
2.44182e-06
45.3773
2.48803e-06
45.329
2.53451e-06
45.2798
2.58125e-06
45.2295
2.6281e-06
45.1782
2.6751e-06
45.1259
2.72226e-06
45.0725
2.76954e-06
45.0181
2.81688e-06
44.9626
2.86422e-06
44.9061
2.9117e-06
44.8485
2.95922e-06
44.7899
3.0069e-06
44.7301
3.05446e-06
44.6693
3.10218e-06
44.6074
3.15e-06
44.5443
3.19774e-06
44.4802
3.24568e-06
44.415
3.29339e-06
44.3486
3.34126e-06
44.2811
3.38912e-06
44.2125
3.43706e-06
44.1427
3.48512e-06
44.0718
3.53309e-06
43.9997
3.58079e-06
43.9265
3.62881e-06
43.8521
3.67683e-06
43.7765
3.72431e-06
43.6997
3.77315e-06
43.6218
3.82018e-06
43.5426
3.87295e-06
43.4623
3.90324e-06
43.3807
4.03603e-06
43.298
3.9021e-06
43.214
4.73323e-06
43.1288
4.80737e-06
43.0424
1.18612e-05
42.9547
3.51185e-05
42.8657
0.000160787
42.7751
0.000747519
42.6814
0.00358528
42.5779
0.0171123
42.4325
0.0812013
42.0997
0.377721
40.9884
1.72349
5.94178
37.4461
46.8274
9.09495e-13
46.8275
9.09495e-13
46.8276
1.36424e-12
46.8277
1.59162e-12
46.8278
-2.27374e-13
46.8278
-4.54747e-13
46.8279
0
46.828
0
46.8281
0
46.8282
1.59162e-12
46.8283
-1.81899e-12
46.8284
-1.36424e-12
46.8285
-1.13687e-12
46.8286
-1.13687e-12
46.8287
6.82121e-13
46.8288
9.09495e-13
46.8289
-4.54747e-13
46.829
-1.59162e-12
46.8291
-6.82121e-13
46.8292
1.13687e-12
46.8293
1.36424e-12
46.8294
-9.09495e-13
46.8295
-2.27374e-13
46.8297
1.13687e-12
46.8298
1.59162e-12
46.8299
-2.27374e-13
46.83
1.59162e-12
46.8301
9.09495e-13
46.8302
-1.59162e-12
46.8303
-1.13687e-12
46.8305
9.09495e-13
46.8306
1.13687e-12
46.8307
1.13687e-12
46.8308
0
46.8309
2.72848e-12
46.831
9.09495e-13
46.8311
-6.82121e-13
46.8312
-6.82121e-13
46.8313
-2.27374e-13
46.8314
1.36424e-12
46.8315
6.82121e-13
46.8316
-1.36424e-12
46.8317
4.54747e-13
46.8318
0
46.8318
0
46.8318
-9.09495e-13
46.8319
-1.59162e-12
46.8319
2.27374e-13
46.832
-9.09495e-13
46.832
9.09495e-13
46.832
-9.09495e-13
46.8321
-2.27374e-13
46.8321
9.09495e-13
46.8321
-2.27374e-13
46.8321
2.27374e-12
46.832
0
46.8319
0
46.8318
2.27374e-13
46.8317
-4.54747e-13
46.8315
-6.82121e-13
46.8313
-2.27374e-12
46.831
-1.59162e-12
46.8307
-1.81899e-12
46.8304
-9.09495e-13
46.83
2.27374e-13
46.8296
-4.54747e-13
46.8291
1.36424e-12
46.8286
0
46.828
-1.13687e-12
46.8274
-9.09495e-13
46.8267
-1.59162e-12
46.8259
-6.82121e-13
46.8251
-1.13687e-12
46.8242
-9.09495e-13
46.8232
0
46.8221
2.27374e-13
46.8208
-6.82121e-13
46.8195
1.36424e-12
46.818
-9.09495e-13
46.8163
-2.72848e-12
46.8145
0
46.8126
1.59162e-12
46.8105
2.04636e-12
46.8082
3.41061e-12
46.8057
2.72848e-12
46.8031
1.59162e-12
46.8002
2.04636e-12
46.7972
-6.82121e-13
46.794
4.54747e-13
46.7905
-6.82121e-13
46.7868
-9.09495e-13
46.7829
4.54747e-13
46.7786
-2.27374e-13
46.7741
6.82121e-13
46.7693
4.54747e-13
46.7641
2.27374e-13
46.7586
-6.82121e-13
46.7528
0
46.7466
-6.82121e-13
46.7401
-9.09495e-13
46.7332
-2.04636e-12
46.7259
0
46.7181
-4.54747e-13
46.71
2.27374e-13
46.7014
1.59162e-12
46.6923
0
46.6828
6.82121e-13
46.6728
6.82121e-13
46.6623
2.04636e-12
46.6513
2.27374e-13
46.6398
-9.09495e-13
46.6277
-1.36424e-12
46.6151
2.27374e-13
46.6019
6.82121e-13
46.5882
0
46.5738
2.27374e-13
46.5588
4.54747e-13
46.5432
-6.82121e-13
46.527
1.13687e-12
46.5101
9.09495e-13
46.4926
-1.59162e-12
46.4743
-2.04636e-12
46.4554
-1.59162e-12
46.4358
-1.59162e-12
46.4155
-4.54747e-13
46.3945
0
46.3727
4.54747e-13
46.3502
4.54747e-13
46.3269
-1.36424e-12
46.3029
-2.04636e-12
46.2781
-1.81899e-12
46.2525
-1.81899e-12
46.2261
1.36424e-12
46.1989
-2.95586e-12
46.1709
-4.3201e-12
46.142
2.50111e-12
46.1123
-6.13909e-12
46.0818
4.54747e-13
46.0504
6.36646e-12
46.0181
-4.3201e-12
45.985
-2.68301e-11
45.951
4.34284e-11
45.9161
-1.00044e-11
45.8802
-3.06954e-11
45.8435
2.29647e-11
45.8059
2.00089e-11
45.7673
-3.86535e-11
45.7278
-2.04636e-11
45.6874
4.16094e-11
45.646
5.25233e-11
45.6036
-1.45519e-11
45.5603
-6.2073e-11
45.516
-4.04725e-11
45.4708
7.7307e-12
45.4245
1.61435e-11
45.3773
2.22826e-11
45.329
5.29781e-11
45.2798
6.2073e-11
45.2295
1.22782e-11
45.1782
-7.36691e-11
45.1259
-8.59472e-11
45.0725
-2.9786e-11
45.0181
3.00133e-11
44.9626
1.47793e-11
44.9061
1.43245e-11
44.8485
-5.72982e-11
44.7899
1.02318e-11
44.7301
-5.32054e-11
44.6693
2.86491e-11
44.6074
-6.59384e-12
44.5443
9.45874e-11
44.4802
6.59384e-11
44.415
9.07221e-11
44.3486
-4.11546e-11
44.2811
-4.54747e-12
44.2125
-8.20819e-11
44.1427
1.97815e-11
44.0718
-2.29193e-10
43.9997
4.31783e-10
43.9265
-1.15961e-09
43.8521
3.14321e-09
43.7765
-6.99788e-09
43.6997
1.46979e-08
43.6218
-3.09087e-08
43.5426
6.46844e-08
43.4623
-1.30256e-07
43.3807
2.93189e-07
43.298
-4.80689e-07
43.214
1.3742e-06
43.1288
9.95713e-08
43.0424
1.05872e-05
42.9547
3.70755e-05
42.8657
0.00019611
42.7755
0.00092181
42.6831
0.00446655
42.5862
0.021423
42.4708
0.102678
42.2672
0.486168
41.6277
2.26654
7.95236
39.5193
46.8274
-0.000185465
46.8275
-0.000157981
46.8276
-0.000139461
46.8277
-0.000142689
46.8278
-0.000143635
46.8278
-0.000143358
46.8279
-0.000143273
46.828
-0.000143288
46.8281
-0.000143274
46.8282
-0.00014328
46.8283
-0.000143281
46.8284
-0.000143286
46.8285
-0.000143291
46.8286
-0.000143297
46.8287
-0.000143304
46.8288
-0.000143311
46.8289
-0.000143327
46.829
-0.000143315
46.8291
-0.000143334
46.8292
-0.000143342
46.8293
-0.000143349
46.8294
-0.000143358
46.8295
-0.000143372
46.8297
-0.000143371
46.8298
-0.000143377
46.8299
-0.00014339
46.83
-0.000143399
46.8301
-0.000143408
46.8302
-0.000143418
46.8303
-0.000143434
46.8305
-0.000143422
46.8306
-0.00014344
46.8307
-0.000143444
46.8308
-0.00014345
46.8309
-0.000143478
46.831
-0.000143474
46.8311
-0.00014348
46.8312
-0.000143488
46.8313
-0.000143496
46.8314
-0.000143508
46.8315
-0.000143512
46.8316
-0.000143519
46.8317
-0.000143519
46.8318
-0.000143532
46.8318
-0.00014356
46.8318
-0.000143557
46.8319
-0.000143569
46.8319
-0.00014358
46.832
-0.000143578
46.832
-0.000143587
46.832
-0.000143644
46.8321
-0.000143651
46.8321
-0.000143646
46.8321
-0.000143672
46.8321
-0.000143685
46.832
-0.000143702
46.8319
-0.000143718
46.8318
-0.000143735
46.8317
-0.000143746
46.8315
-0.000143779
46.8313
-0.00014379
46.831
-0.000143803
46.8307
-0.000143821
46.8304
-0.000143838
46.83
-0.000143851
46.8296
-0.000143816
46.8291
-0.000143901
46.8286
-0.000143971
46.828
-0.000143912
46.8274
-0.00014391
46.8267
-0.00014408
46.8259
-0.000143924
46.8251
-0.000143981
46.8242
-0.000143996
46.8232
-0.00014399
46.8221
-0.000143976
46.8208
-0.000143947
46.8195
-0.0001439
46.818
-0.000143804
46.8163
-0.000143714
46.8145
-0.000143551
46.8126
-0.000143335
46.8105
-0.000143052
46.8082
-0.000142683
46.8057
-0.000142211
46.8031
-0.000141616
46.8002
-0.000140878
46.7972
-0.000139973
46.794
-0.000138878
46.7905
-0.000137569
46.7868
-0.000136021
46.7829
-0.000134215
46.7786
-0.000132124
46.7741
-0.000129735
46.7693
-0.00012703
46.7641
-0.000124003
46.7586
-0.000120649
46.7528
-0.000116971
46.7466
-0.000112977
46.7401
-0.000108684
46.7332
-0.000104114
46.7259
-9.9296e-05
46.7181
-9.42658e-05
46.71
-8.90633e-05
46.7014
-8.37328e-05
46.6923
-7.83216e-05
46.6828
-7.28788e-05
46.6728
-6.74536e-05
46.6623
-6.20945e-05
46.6513
-5.68477e-05
46.6398
-5.17558e-05
46.6277
-4.68574e-05
46.6151
-4.21856e-05
46.6019
-3.77682e-05
46.5882
-3.36268e-05
46.5738
-2.97768e-05
46.5588
-2.62276e-05
46.5432
-2.29831e-05
46.527
-2.00416e-05
46.5101
-1.73968e-05
46.4926
-1.50384e-05
46.4743
-1.29527e-05
46.4554
-1.11234e-05
46.4358
-9.53242e-06
46.4155
-8.16024e-06
46.3945
-6.98689e-06
46.3727
-5.99231e-06
46.3502
-5.15686e-06
46.3269
-4.46167e-06
46.3029
-3.88891e-06
46.2781
-3.42207e-06
46.2525
-3.04602e-06
46.2261
-2.74713e-06
46.1989
-2.51326e-06
46.1709
-2.3337e-06
46.142
-2.19915e-06
46.1123
-2.10158e-06
46.0818
-2.03417e-06
46.0504
-1.99111e-06
46.0181
-1.96768e-06
45.985
-1.95987e-06
45.951
-1.96437e-06
45.9161
-1.97871e-06
45.8802
-2.00064e-06
45.8435
-2.0284e-06
45.8059
-2.06074e-06
45.7673
-2.09663e-06
45.7278
-2.13516e-06
45.6874
-2.17569e-06
45.646
-2.21784e-06
45.6036
-2.26125e-06
45.5603
-2.30555e-06
45.516
-2.3505e-06
45.4708
-2.39592e-06
45.4245
-2.44177e-06
45.3773
-2.48796e-06
45.329
-2.53444e-06
45.2798
-2.5812e-06
45.2295
-2.62815e-06
45.1782
-2.67523e-06
45.1259
-2.72236e-06
45.0725
-2.76953e-06
45.0181
-2.81684e-06
44.9626
-2.86424e-06
44.9061
-2.91173e-06
44.8485
-2.95926e-06
44.7899
-3.00686e-06
44.7301
-3.05445e-06
44.6693
-3.10219e-06
44.6074
-3.14996e-06
44.5443
-3.19765e-06
44.4802
-3.24551e-06
44.415
-3.29332e-06
44.3486
-3.34131e-06
44.2811
-3.38914e-06
44.2125
-3.4372e-06
44.1427
-3.48502e-06
44.0718
-3.53328e-06
43.9997
-3.58038e-06
43.9265
-3.63008e-06
43.8521
-3.67368e-06
43.7765
-3.73177e-06
43.6997
-3.75823e-06
43.6218
-3.84898e-06
43.5426
-3.81736e-06
43.4623
-4.00647e-06
43.3807
-3.7676e-06
43.298
-4.34489e-06
43.214
-2.92117e-06
43.1288
-4.33379e-06
43.0424
5.28198e-06
42.9547
2.40023e-05
42.8659
0.000156232
42.7758
0.000739293
42.6854
0.00362242
42.5965
0.0175489
42.5195
0.0857711
42.4885
0.422013
42.4831
2.17547
7.21382
43.1238
46.8274
-0.000402099
46.8275
-0.000301944
46.8276
-0.000281306
46.8277
-0.000286223
46.8278
-0.000286604
46.8279
-0.000286409
46.828
-0.000286397
46.828
-0.000286444
46.8281
-0.000286454
46.8282
-0.000286481
46.8283
-0.000286501
46.8284
-0.000286521
46.8285
-0.00028654
46.8286
-0.000286559
46.8287
-0.000286578
46.8288
-0.000286597
46.8289
-0.000286623
46.829
-0.000286614
46.8291
-0.000286661
46.8292
-0.000286669
46.8293
-0.000286686
46.8295
-0.000286705
46.8296
-0.000286731
46.8297
-0.000286736
46.8298
-0.000286752
46.8299
-0.000286775
46.83
-0.000286793
46.8301
-0.000286811
46.8303
-0.000286832
46.8304
-0.000286845
46.8305
-0.00028686
46.8306
-0.000286879
46.8307
-0.000286892
46.8308
-0.000286905
46.8309
-0.00028694
46.831
-0.000286945
46.8312
-0.00028696
46.8313
-0.000286976
46.8314
-0.000286991
46.8315
-0.000287016
46.8316
-0.000287023
46.8316
-0.000287037
46.8317
-0.000287024
46.8318
-0.000287147
46.8318
-0.000287055
46.8319
-0.000287114
46.8319
-0.000287139
46.8319
-0.000287162
46.832
-0.000287157
46.832
-0.000287157
46.832
-0.000287303
46.8321
-0.000287305
46.8321
-0.0002873
46.8321
-0.000287342
46.8321
-0.000287372
46.8321
-0.000287405
46.832
-0.000287433
46.8319
-0.000287476
46.8317
-0.000287482
46.8315
-0.000287573
46.8313
-0.000287578
46.831
-0.000287607
46.8307
-0.000287643
46.8304
-0.000287678
46.83
-0.000287709
46.8296
-0.000287629
46.8292
-0.000287852
46.8286
-0.000287904
46.8281
-0.000287816
46.8274
-0.000287783
46.8267
-0.000288238
46.826
-0.000287806
46.8251
-0.000287969
46.8242
-0.000287988
46.8232
-0.000287978
46.8221
-0.000287948
46.8209
-0.000287886
46.8195
-0.000287786
46.818
-0.000287602
46.8163
-0.000287411
46.8146
-0.000287076
46.8126
-0.00028664
46.8105
-0.000286064
46.8082
-0.000285314
46.8057
-0.000284357
46.8031
-0.000283152
46.8003
-0.000281657
46.7972
-0.000279824
46.794
-0.000277609
46.7905
-0.000274963
46.7868
-0.000271837
46.7829
-0.00026819
46.7786
-0.000263971
46.7741
-0.000259153
46.7693
-0.000253703
46.7641
-0.000247607
46.7586
-0.000240856
46.7528
-0.000233457
46.7467
-0.000225429
46.7401
-0.000216803
46.7332
-0.000207627
46.7259
-0.00019796
46.7181
-0.000187872
46.71
-0.000177444
46.7014
-0.000166767
46.6923
-0.000155934
46.6828
-0.000145044
46.6728
-0.000134197
46.6623
-0.000123487
46.6513
-0.000113009
46.6398
-0.000102846
46.6277
-9.30743e-05
46.6151
-8.37607e-05
46.6019
-7.49594e-05
46.5882
-6.67129e-05
46.5738
-5.90512e-05
46.5588
-5.19924e-05
46.5432
-4.55432e-05
46.527
-3.96998e-05
46.5101
-3.4449e-05
46.4926
-2.97695e-05
46.4743
-2.56337e-05
46.4554
-2.20084e-05
46.4358
-1.88573e-05
46.4155
-1.61412e-05
46.3945
-1.38201e-05
46.3727
-1.1854e-05
46.3502
-1.02035e-05
46.3269
-8.83104e-06
46.3029
-7.70116e-06
46.2781
-6.78096e-06
46.2525
-6.04037e-06
46.2261
-5.4523e-06
46.1989
-4.99266e-06
46.1709
-4.64026e-06
46.142
-4.37667e-06
46.1123
-4.18602e-06
46.0818
-4.05481e-06
46.0504
-3.97165e-06
46.0181
-3.9271e-06
45.985
-3.91333e-06
45.951
-3.92391e-06
45.9161
-3.95369e-06
45.8802
-3.99843e-06
45.8435
-4.05473e-06
45.8059
-4.11995e-06
45.7673
-4.19207e-06
45.7278
-4.26943e-06
45.6874
-4.35084e-06
45.646
-4.43532e-06
45.6036
-4.52218e-06
45.5603
-4.61079e-06
45.516
-4.70075e-06
45.4708
-4.79173e-06
45.4245
-4.88354e-06
45.3773
-4.97598e-06
45.329
-5.06897e-06
45.2798
-5.16243e-06
45.2295
-5.25622e-06
45.1782
-5.35033e-06
45.1259
-5.44464e-06
45.0725
-5.53911e-06
45.0181
-5.63371e-06
44.9626
-5.72851e-06
44.9061
-5.82345e-06
44.8485
-5.91854e-06
44.7899
-6.01372e-06
44.7301
-6.10897e-06
44.6693
-6.20441e-06
44.6074
-6.29991e-06
44.5443
-6.39552e-06
44.4802
-6.4911e-06
44.415
-6.58682e-06
44.3486
-6.68255e-06
44.2811
-6.77837e-06
44.2125
-6.87433e-06
44.1427
-6.97016e-06
44.0718
-7.06618e-06
43.9997
-7.16155e-06
43.9265
-7.25843e-06
43.8521
-7.35161e-06
43.7765
-7.45432e-06
43.6997
-7.53541e-06
43.6218
-7.66318e-06
43.5426
-7.69679e-06
43.4623
-7.904e-06
43.3807
-7.80143e-06
43.298
-8.20723e-06
43.214
-7.66406e-06
43.1288
-8.2747e-06
43.0424
-4.99667e-06
42.9547
2.17886e-06
42.8659
4.98296e-05
42.7762
0.00026372
42.6872
0.00131893
42.6056
0.00644285
42.5653
0.032132
42.7241
0.167997
43.6069
1.19624
3.72917
46.9942
10.6083
-0.000460232
10.6084
-0.000329233
10.6084
-0.0003154
10.6084
-0.000318802
10.6084
-0.000318989
10.6084
-0.000318865
10.6085
-0.000318865
10.6085
-0.000318902
10.6085
-0.000318915
10.6085
-0.000318938
10.6085
-0.00031896
10.6086
-0.000318981
10.6086
-0.000319002
10.6086
-0.000319022
10.6086
-0.000319042
10.6086
-0.000319062
10.6087
-0.000319085
10.6087
-0.000319088
10.6087
-0.000319132
10.6087
-0.000319141
10.6088
-0.00031916
10.6088
-0.00031918
10.6088
-0.000319206
10.6088
-0.000319217
10.6089
-0.000319235
10.6089
-0.000319258
10.6089
-0.000319278
10.6089
-0.000319298
10.609
-0.000319319
10.609
-0.000319333
10.609
-0.000319357
10.6091
-0.000319374
10.6091
-0.000319389
10.6091
-0.000319406
10.6091
-0.000319437
10.6092
-0.000319446
10.6092
-0.000319463
10.6092
-0.00031948
10.6092
-0.000319498
10.6092
-0.000319526
10.6093
-0.000319533
10.6093
-0.000319548
10.6093
-0.000319526
10.6093
-0.000319703
10.6093
-0.000319542
10.6093
-0.000319635
10.6093
-0.000319662
10.6094
-0.000319687
10.6094
-0.000319682
10.6094
-0.000319672
10.6094
-0.00031985
10.6094
-0.000319846
10.6094
-0.000319843
10.6094
-0.000319885
10.6094
-0.000319921
10.6094
-0.000319958
10.6094
-0.000319986
10.6093
-0.000320037
10.6093