/*--------------------------------*- C++ -*----------------------------------*\
| =========                 |                                                 |
| \\      /  F ield         | OpenFOAM: The Open Source CFD Toolbox           |
|  \\    /   O peration     | Version:  3.0.x                                 |
|   \\  /    A nd           | Web:      www.OpenFOAM.org                      |
|    \\/     M anipulation  |                                                 |
\*---------------------------------------------------------------------------*/
FoamFile
{
    version     2.0;
    format      ascii;
    class       volScalarField;
    location    "0.460075";
    object      rho;
}
// * * * * * * * * * * * * * * * * * * * * * * * * * * * * * * * * * * * * * //

dimensions      [1 -3 0 0 0 0 0];

internalField   nonuniform List<scalar> 
13800
(
50.5467
50.5467
50.5467
50.5467
50.5467
50.5467
50.5467
50.5467
50.5467
50.5467
50.5467
50.5467
50.5467
50.5467
50.5467
50.5467
50.5467
50.5467
50.5467
50.5467
50.5467
50.5467
50.5467
50.5467
50.5467
50.5467
50.5467
50.5467
50.5467
50.5467
50.5467
50.5467
50.5467
50.5467
50.5467
50.5468
50.5468
50.5468
50.5468
50.5468
50.5468
50.5468
50.5468
50.5468
50.5468
50.5468
50.5467
50.5467
50.5468
50.5468
50.5468
50.5469
50.547
50.547
50.5471
50.5472
50.5472
50.5472
50.5473
50.5473
50.5473
50.5473
50.5474
50.5474
50.5475
50.5475
50.5476
50.5477
50.5478
50.5479
50.548
50.5481
50.5483
50.5485
50.5487
50.5489
50.5491
50.5493
50.5494
50.5496
50.5498
50.55
50.5502
50.5505
50.5507
50.551
50.5513
50.5516
50.552
50.5524
50.5528
50.5533
50.5538
50.5543
50.5548
50.5554
50.5559
50.5565
50.5572
50.5579
50.5586
50.5593
50.5601
50.561
50.5618
50.5628
50.5637
50.5648
50.5658
50.567
50.5681
50.5694
50.5706
50.572
50.5734
50.5749
50.5764
50.578
50.5796
50.5814
50.5832
50.585
50.5869
50.589
50.591
50.5932
50.5954
50.5977
50.6001
50.6026
50.6051
50.6078
50.6105
50.6133
50.6161
50.6191
50.6222
50.6253
50.6285
50.6318
50.6352
50.6387
50.6423
50.646
50.6498
50.6537
50.6577
50.6617
50.6659
50.6701
50.6745
50.679
50.6835
50.6882
50.693
50.6978
50.7028
50.7079
50.7131
50.7183
50.7237
50.7292
50.7348
50.7406
50.7464
50.7523
50.7584
50.7645
50.7708
50.7772
50.7837
50.7903
50.797
50.8039
50.8108
50.8179
50.8251
50.8324
50.8398
50.8474
50.855
50.8628
50.8707
50.8788
50.8869
50.8952
50.9036
50.9121
50.9208
50.9295
50.9386
50.9474
50.9568
50.9658
50.9756
50.9846
50.9949
51.0042
51.0166
51.0211
50.5476
50.5476
50.5476
50.5476
50.5476
50.5476
50.5476
50.5476
50.5476
50.5476
50.5476
50.5476
50.5476
50.5476
50.5476
50.5476
50.5476
50.5476
50.5476
50.5476
50.5476
50.5476
50.5475
50.5475
50.5475
50.5475
50.5475
50.5475
50.5475
50.5475
50.5475
50.5475
50.5475
50.5475
50.5475
50.5475
50.5475
50.5475
50.5476
50.5476
50.5476
50.5476
50.5476
50.5476
50.5475
50.5475
50.5475
50.5475
50.5475
50.5475
50.5476
50.5476
50.5477
50.5478
50.5478
50.5479
50.5479
50.548
50.548
50.548
50.548
50.548
50.5481
50.5481
50.5482
50.5482
50.5483
50.5484
50.5485
50.5486
50.5487
50.5488
50.549
50.5491
50.5493
50.5495
50.5497
50.5499
50.5501
50.5503
50.5505
50.5507
50.5509
50.5511
50.5513
50.5516
50.5519
50.5522
50.5526
50.553
50.5534
50.5539
50.5544
50.5549
50.5554
50.556
50.5565
50.5571
50.5578
50.5584
50.5592
50.5599
50.5607
50.5615
50.5624
50.5633
50.5643
50.5653
50.5664
50.5675
50.5687
50.5699
50.5712
50.5725
50.574
50.5754
50.5769
50.5785
50.5802
50.5819
50.5837
50.5856
50.5875
50.5895
50.5916
50.5938
50.596
50.5983
50.6007
50.6031
50.6057
50.6083
50.611
50.6138
50.6167
50.6197
50.6227
50.6259
50.6291
50.6324
50.6358
50.6393
50.6429
50.6466
50.6504
50.6543
50.6582
50.6623
50.6665
50.6707
50.6751
50.6795
50.6841
50.6888
50.6935
50.6984
50.7034
50.7084
50.7136
50.7189
50.7243
50.7298
50.7354
50.7411
50.747
50.7529
50.7589
50.7651
50.7714
50.7778
50.7843
50.7909
50.7976
50.8044
50.8114
50.8185
50.8257
50.833
50.8404
50.8479
50.8556
50.8634
50.8713
50.8793
50.8875
50.8958
50.9042
50.9127
50.9214
50.9301
50.9391
50.948
50.9574
50.9663
50.9761
50.9852
50.9955
51.0047
51.0172
51.0199
50.5476
50.5476
50.5476
50.5476
50.5476
50.5476
50.5476
50.5476
50.5476
50.5476
50.5476
50.5476
50.5476
50.5476
50.5476
50.5476
50.5476
50.5476
50.5476
50.5476
50.5476
50.5476
50.5475
50.5475
50.5475
50.5475
50.5475
50.5475
50.5475
50.5475
50.5475
50.5475
50.5475
50.5475
50.5475
50.5475
50.5475
50.5475
50.5476
50.5476
50.5476
50.5476
50.5476
50.5476
50.5475
50.5475
50.5475
50.5475
50.5475
50.5475
50.5476
50.5476
50.5477
50.5478
50.5478
50.5479
50.5479
50.548
50.548
50.548
50.548
50.548
50.5481
50.5481
50.5482
50.5482
50.5483
50.5484
50.5485
50.5486
50.5487
50.5488
50.549
50.5491
50.5493
50.5495
50.5497
50.5499
50.5501
50.5503
50.5505
50.5507
50.5509
50.5511
50.5513
50.5516
50.5519
50.5522
50.5526
50.553
50.5534
50.5539
50.5544
50.5549
50.5554
50.556
50.5565
50.5571
50.5578
50.5584
50.5592
50.5599
50.5607
50.5615
50.5624
50.5633
50.5643
50.5653
50.5664
50.5675
50.5687
50.5699
50.5712
50.5725
50.574
50.5754
50.5769
50.5785
50.5802
50.5819
50.5837
50.5856
50.5875
50.5895
50.5916
50.5938
50.596
50.5983
50.6007
50.6031
50.6057
50.6083
50.611
50.6138
50.6167
50.6197
50.6227
50.6259
50.6291
50.6324
50.6358
50.6393
50.6429
50.6466
50.6504
50.6543
50.6582
50.6623
50.6665
50.6707
50.6751
50.6795
50.6841
50.6888
50.6935
50.6984
50.7034
50.7084
50.7136
50.7189
50.7243
50.7298
50.7354
50.7411
50.747
50.7529
50.7589
50.7651
50.7714
50.7778
50.7843
50.7909
50.7976
50.8044
50.8114
50.8185
50.8257
50.833
50.8404
50.8479
50.8556
50.8634
50.8713
50.8793
50.8875
50.8958
50.9042
50.9127
50.9214
50.9301
50.9391
50.948
50.9574
50.9663
50.9761
50.9852
50.9955
51.0047
51.0172
51.0201
50.5476
50.5476
50.5476
50.5476
50.5476
50.5476
50.5476
50.5476
50.5476
50.5476
50.5476
50.5476
50.5476
50.5476
50.5476
50.5476
50.5476
50.5476
50.5476
50.5476
50.5475
50.5475
50.5475
50.5475
50.5475
50.5475
50.5475
50.5475
50.5475
50.5475
50.5475
50.5475
50.5475
50.5475
50.5475
50.5475
50.5475
50.5475
50.5475
50.5475
50.5476
50.5476
50.5476
50.5476
50.5475
50.5475
50.5475
50.5475
50.5475
50.5475
50.5475
50.5476
50.5477
50.5478
50.5478
50.5479
50.5479
50.548
50.548
50.548
50.548
50.548
50.5481
50.5481
50.5482
50.5482
50.5483
50.5484
50.5485
50.5486
50.5487
50.5488
50.549
50.5491
50.5493
50.5495
50.5497
50.5499
50.5501
50.5503
50.5505
50.5507
50.5509
50.5511
50.5513
50.5516
50.5519
50.5522
50.5526
50.553
50.5534
50.5539
50.5544
50.5549
50.5554
50.556
50.5565
50.5571
50.5578
50.5584
50.5592
50.5599
50.5607
50.5615
50.5624
50.5633
50.5643
50.5653
50.5664
50.5675
50.5687
50.5699
50.5712
50.5725
50.574
50.5754
50.5769
50.5785
50.5802
50.5819
50.5837
50.5856
50.5875
50.5895
50.5916
50.5938
50.596
50.5983
50.6007
50.6031
50.6057
50.6083
50.611
50.6138
50.6167
50.6197
50.6227
50.6259
50.6291
50.6324
50.6358
50.6393
50.6429
50.6466
50.6504
50.6543
50.6582
50.6623
50.6665
50.6707
50.6751
50.6795
50.6841
50.6888
50.6935
50.6984
50.7034
50.7084
50.7136
50.7189
50.7243
50.7298
50.7354
50.7411
50.747
50.7529
50.7589
50.7651
50.7714
50.7778
50.7843
50.7909
50.7976
50.8044
50.8114
50.8185
50.8257
50.833
50.8404
50.8479
50.8556
50.8634
50.8713
50.8794
50.8875
50.8958
50.9042
50.9127
50.9214
50.9301
50.9391
50.948
50.9574
50.9663
50.9761
50.9852
50.9955
51.0047
51.0169
51.0222
50.5476
50.5476
50.5476
50.5476
50.5476
50.5476
50.5476
50.5476
50.5476
50.5476
50.5476
50.5476
50.5476
50.5476
50.5476
50.5476
50.5476
50.5475
50.5475
50.5475
50.5475
50.5475
50.5475
50.5475
50.5475
50.5475
50.5475
50.5475
50.5475
50.5475
50.5475
50.5475
50.5475
50.5475
50.5475
50.5475
50.5475
50.5475
50.5475
50.5475
50.5476
50.5476
50.5476
50.5475
50.5475
50.5475
50.5475
50.5475
50.5475
50.5475
50.5475
50.5476
50.5477
50.5478
50.5478
50.5479
50.5479
50.5479
50.548
50.548
50.548
50.548
50.5481
50.5481
50.5482
50.5482
50.5483
50.5484
50.5485
50.5486
50.5487
50.5488
50.549
50.5491
50.5493
50.5495
50.5497
50.5499
50.5501
50.5503
50.5505
50.5507
50.5509
50.5511
50.5513
50.5516
50.5519
50.5522
50.5526
50.553
50.5534
50.5539
50.5544
50.5549
50.5554
50.556
50.5565
50.5571
50.5578
50.5584
50.5592
50.5599
50.5607
50.5615
50.5624
50.5633
50.5643
50.5653
50.5664
50.5675
50.5687
50.5699
50.5712
50.5725
50.574
50.5754
50.5769
50.5785
50.5802
50.5819
50.5837
50.5856
50.5875
50.5895
50.5916
50.5938
50.596
50.5983
50.6007
50.6031
50.6057
50.6083
50.611
50.6138
50.6167
50.6197
50.6227
50.6259
50.6291
50.6324
50.6358
50.6393
50.6429
50.6466
50.6504
50.6543
50.6582
50.6623
50.6665
50.6707
50.6751
50.6795
50.6841
50.6888
50.6935
50.6984
50.7034
50.7084
50.7136
50.7189
50.7243
50.7298
50.7354
50.7411
50.747
50.7529
50.7589
50.7651
50.7714
50.7778
50.7843
50.7909
50.7976
50.8044
50.8114
50.8185
50.8257
50.833
50.8404
50.8479
50.8556
50.8634
50.8713
50.8793
50.8875
50.8958
50.9042
50.9127
50.9214
50.9301
50.9391
50.948
50.9574
50.9663
50.9761
50.9852
50.9955
51.0046
51.0159
51.0216
50.5476
50.5476
50.5476
50.5476
50.5476
50.5476
50.5476
50.5476
50.5476
50.5476
50.5476
50.5476
50.5476
50.5476
50.5476
50.5476
50.5476
50.5475
50.5475
50.5475
50.5475
50.5475
50.5475
50.5475
50.5475
50.5475
50.5475
50.5475
50.5475
50.5475
50.5475
50.5475
50.5475
50.5475
50.5475
50.5475
50.5475
50.5475
50.5475
50.5475
50.5476
50.5476
50.5476
50.5475
50.5475
50.5475
50.5475
50.5475
50.5475
50.5475
50.5475
50.5476
50.5477
50.5478
50.5478
50.5479
50.5479
50.5479
50.548
50.548
50.548
50.548
50.5481
50.5481
50.5482
50.5482
50.5483
50.5484
50.5485
50.5486
50.5487
50.5488
50.549
50.5491
50.5493
50.5495
50.5497
50.5499
50.5501
50.5503
50.5505
50.5507
50.5509
50.5511
50.5513
50.5516
50.5519
50.5522
50.5526
50.553
50.5534
50.5539
50.5544
50.5549
50.5554
50.556
50.5565
50.5571
50.5578
50.5584
50.5592
50.5599
50.5607
50.5615
50.5624
50.5633
50.5643
50.5653
50.5664
50.5675
50.5687
50.5699
50.5712
50.5725
50.574
50.5754
50.5769
50.5785
50.5802
50.5819
50.5837
50.5856
50.5875
50.5895
50.5916
50.5938
50.596
50.5983
50.6007
50.6031
50.6057
50.6083
50.611
50.6138
50.6167
50.6197
50.6227
50.6259
50.6291
50.6324
50.6358
50.6393
50.6429
50.6466
50.6504
50.6543
50.6582
50.6623
50.6665
50.6707
50.6751
50.6795
50.6841
50.6888
50.6935
50.6984
50.7034
50.7084
50.7136
50.7189
50.7243
50.7298
50.7354
50.7411
50.747
50.7529
50.7589
50.7651
50.7714
50.7778
50.7843
50.7909
50.7976
50.8044
50.8114
50.8185
50.8257
50.833
50.8404
50.8479
50.8556
50.8634
50.8713
50.8794
50.8875
50.8958
50.9042
50.9127
50.9214
50.9301
50.9391
50.948
50.9573
50.9665
50.9759
50.9857
50.9948
51.0052
51.0139
51.023
50.5476
50.5476
50.5476
50.5476
50.5476
50.5476
50.5476
50.5476
50.5476
50.5476
50.5476
50.5476
50.5476
50.5476
50.5476
50.5476
50.5476
50.5476
50.5476
50.5476
50.5475
50.5475
50.5475
50.5475
50.5475
50.5475
50.5475
50.5475
50.5475
50.5475
50.5475
50.5475
50.5475
50.5475
50.5475
50.5475
50.5475
50.5475
50.5475
50.5475
50.5476
50.5476
50.5476
50.5476
50.5475
50.5475
50.5475
50.5475
50.5475
50.5475
50.5475
50.5476
50.5477
50.5478
50.5478
50.5479
50.5479
50.548
50.548
50.548
50.548
50.548
50.5481
50.5481
50.5482
50.5482
50.5483
50.5484
50.5485
50.5486
50.5487
50.5488
50.549
50.5491
50.5493
50.5495
50.5497
50.5499
50.5501
50.5503
50.5505
50.5507
50.5509
50.5511
50.5513
50.5516
50.5519
50.5522
50.5526
50.553
50.5534
50.5539
50.5544
50.5549
50.5554
50.556
50.5565
50.5571
50.5578
50.5584
50.5592
50.5599
50.5607
50.5615
50.5624
50.5633
50.5643
50.5653
50.5664
50.5675
50.5687
50.5699
50.5712
50.5725
50.574
50.5754
50.5769
50.5785
50.5802
50.5819
50.5837
50.5856
50.5875
50.5895
50.5916
50.5938
50.596
50.5983
50.6007
50.6031
50.6057
50.6083
50.611
50.6138
50.6167
50.6197
50.6227
50.6259
50.6291
50.6324
50.6358
50.6393
50.6429
50.6466
50.6504
50.6543
50.6582
50.6623
50.6665
50.6707
50.6751
50.6795
50.6841
50.6888
50.6935
50.6984
50.7034
50.7084
50.7136
50.7189
50.7243
50.7298
50.7354
50.7411
50.747
50.7529
50.7589
50.7651
50.7714
50.7778
50.7843
50.7909
50.7976
50.8044
50.8114
50.8185
50.8257
50.833
50.8404
50.8479
50.8556
50.8634
50.8713
50.8794
50.8875
50.8958
50.9042
50.9127
50.9213
50.9302
50.9389
50.9482
50.957
50.9667
50.9757
50.9858
50.9948
51.005
51.012
51.0284
50.5476
50.5476
50.5476
50.5476
50.5476
50.5476
50.5476
50.5476
50.5476
50.5476
50.5476
50.5476
50.5476
50.5476
50.5476
50.5476
50.5476
50.5476
50.5476
50.5476
50.5476
50.5476
50.5475
50.5475
50.5475
50.5475
50.5475
50.5475
50.5475
50.5475
50.5475
50.5475
50.5475
50.5475
50.5475
50.5475
50.5475
50.5475
50.5476
50.5476
50.5476
50.5476
50.5476
50.5476
50.5475
50.5475
50.5475
50.5475
50.5475
50.5475
50.5476
50.5476
50.5477
50.5478
50.5478
50.5479
50.5479
50.548
50.548
50.548
50.548
50.548
50.5481
50.5481
50.5482
50.5482
50.5483
50.5484
50.5485
50.5486
50.5487
50.5488
50.549
50.5491
50.5493
50.5495
50.5497
50.5499
50.5501
50.5503
50.5505
50.5507
50.5509
50.5511
50.5513
50.5516
50.5519
50.5522
50.5526
50.553
50.5534
50.5539
50.5544
50.5549
50.5554
50.556
50.5565
50.5571
50.5578
50.5584
50.5592
50.5599
50.5607
50.5615
50.5624
50.5633
50.5643
50.5653
50.5664
50.5675
50.5687
50.5699
50.5712
50.5725
50.574
50.5754
50.5769
50.5785
50.5802
50.5819
50.5837
50.5856
50.5875
50.5895
50.5916
50.5938
50.596
50.5983
50.6007
50.6031
50.6057
50.6083
50.611
50.6138
50.6167
50.6197
50.6227
50.6259
50.6291
50.6324
50.6358
50.6393
50.6429
50.6466
50.6504
50.6543
50.6582
50.6623
50.6665
50.6707
50.6751
50.6795
50.6841
50.6888
50.6935
50.6984
50.7034
50.7084
50.7136
50.7189
50.7243
50.7298
50.7354
50.7411
50.747
50.7529
50.7589
50.7651
50.7714
50.7778
50.7843
50.7909
50.7976
50.8044
50.8114
50.8185
50.8257
50.833
50.8404
50.8479
50.8556
50.8634
50.8713
50.8794
50.8875
50.8958
50.9042
50.9127
50.9213
50.9302
50.9389
50.9482
50.957
50.9667
50.9756
50.9858
50.9947
51.005
51.0103
51.043
50.5476
50.5476
50.5476
50.5476
50.5476
50.5476
50.5476
50.5476
50.5476
50.5476
50.5476
50.5476
50.5476
50.5476
50.5476
50.5476
50.5476
50.5476
50.5476
50.5476
50.5476
50.5476
50.5475
50.5475
50.5475
50.5475
50.5475
50.5475
50.5475
50.5475
50.5475
50.5475
50.5475
50.5475
50.5475
50.5475
50.5475
50.5475
50.5476
50.5476
50.5476
50.5476
50.5476
50.5476
50.5475
50.5475
50.5475
50.5475
50.5475
50.5475
50.5476
50.5476
50.5477
50.5478
50.5478
50.5479
50.5479
50.548
50.548
50.548
50.548
50.548
50.5481
50.5481
50.5482
50.5482
50.5483
50.5484
50.5485
50.5486
50.5487
50.5488
50.549
50.5491
50.5493
50.5495
50.5497
50.5499
50.5501
50.5503
50.5505
50.5507
50.5509
50.5511
50.5513
50.5516
50.5519
50.5522
50.5526
50.553
50.5534
50.5539
50.5544
50.5549
50.5554
50.556
50.5565
50.5571
50.5578
50.5584
50.5592
50.5599
50.5607
50.5615
50.5624
50.5633
50.5643
50.5653
50.5664
50.5675
50.5687
50.5699
50.5712
50.5725
50.574
50.5754
50.5769
50.5785
50.5802
50.5819
50.5837
50.5856
50.5875
50.5895
50.5916
50.5938
50.596
50.5983
50.6007
50.6031
50.6057
50.6083
50.611
50.6138
50.6167
50.6197
50.6227
50.6259
50.6291
50.6324
50.6358
50.6393
50.6429
50.6466
50.6504
50.6543
50.6582
50.6623
50.6665
50.6707
50.6751
50.6795
50.6841
50.6888
50.6935
50.6984
50.7034
50.7084
50.7136
50.7189
50.7243
50.7298
50.7354
50.7411
50.747
50.7529
50.7589
50.7651
50.7714
50.7778
50.7843
50.7909
50.7976
50.8044
50.8114
50.8185
50.8257
50.833
50.8404
50.8479
50.8556
50.8634
50.8713
50.8794
50.8875
50.8958
50.9042
50.9127
50.9213
50.9302
50.9389
50.9482
50.957
50.9667
50.9756
50.9858
50.9946
51.005
51.0093
51.0506
50.5467
50.5467
50.5467
50.5467
50.5467
50.5467
50.5467
50.5467
50.5467
50.5467
50.5467
50.5467
50.5467
50.5467
50.5467
50.5467
50.5467
50.5467
50.5467
50.5467
50.5467
50.5467
50.5467
50.5467
50.5467
50.5467
50.5467
50.5467
50.5467
50.5467
50.5467
50.5467
50.5467
50.5467
50.5467
50.5468
50.5468
50.5468
50.5468
50.5468
50.5468
50.5468
50.5468
50.5468
50.5468
50.5468
50.5467
50.5467
50.5468
50.5468
50.5468
50.5469
50.547
50.547
50.5471
50.5472
50.5472
50.5472
50.5473
50.5473
50.5473
50.5473
50.5474
50.5474
50.5475
50.5475
50.5476
50.5477
50.5478
50.5479
50.548
50.5481
50.5483
50.5485
50.5487
50.5489
50.5491
50.5493
50.5494
50.5496
50.5498
50.55
50.5502
50.5505
50.5507
50.551
50.5513
50.5516
50.552
50.5524
50.5528
50.5533
50.5538
50.5543
50.5548
50.5554
50.5559
50.5565
50.5572
50.5579
50.5586
50.5593
50.5601
50.561
50.5618
50.5628
50.5637
50.5648
50.5658
50.567
50.5681
50.5694
50.5706
50.572
50.5734
50.5749
50.5764
50.578
50.5796
50.5814
50.5832
50.585
50.5869
50.589
50.591
50.5932
50.5954
50.5977
50.6001
50.6026
50.6051
50.6078
50.6105
50.6133
50.6161
50.6191
50.6222
50.6253
50.6285
50.6318
50.6352
50.6387
50.6423
50.646
50.6498
50.6537
50.6577
50.6617
50.6659
50.6701
50.6745
50.679
50.6835
50.6882
50.693
50.6978
50.7028
50.7079
50.7131
50.7183
50.7237
50.7292
50.7348
50.7406
50.7464
50.7523
50.7584
50.7645
50.7708
50.7772
50.7837
50.7903
50.797
50.8039
50.8108
50.8179
50.8251
50.8324
50.8398
50.8474
50.855
50.8628
50.8707
50.8788
50.8869
50.8952
50.9036
50.9122
50.9207
50.9297
50.9383
50.9477
50.9565
50.9662
50.9751
50.9852
50.994
51.0044
51.008
51.0575
51.0716
51.0916
51.0992
51.102
51.1037
51.1054
51.1069
51.1082
51.1093
51.1104
51.1115
51.1125
51.1135
51.1143
51.1148
51.1149
51.1143
51.1128
51.1103
51.105
51.0693
51.087
51.095
51.098
51.0998
51.1016
51.1033
51.1048
51.1061
51.1073
51.1085
51.1096
51.1106
51.1115
51.1121
51.1121
51.1116
51.11
51.1074
51.1021
51.0668
51.0849
51.0938
51.0973
51.0992
51.101
51.1028
51.1041
51.1053
51.1064
51.1076
51.1087
51.1097
51.1105
51.1111
51.111
51.1104
51.1087
51.1057
51.0998
51.0582
51.0688
51.0732
51.0748
51.0761
51.0777
51.0792
51.0804
51.0815
51.0826
51.0836
51.0845
51.0853
51.0858
51.086
51.0858
51.0852
51.0837
51.0811
51.0769
51.0451
51.0532
51.0598
51.0651
51.0692
51.0726
51.075
51.0769
51.0786
51.0803
51.0815
51.0825
51.0834
51.0841
51.084
51.0839
51.0826
51.0813
51.0791
51.0764
51.0195
51.0167
51.0131
51.0096
51.0065
51.0045
51.0036
51.0034
51.0036
51.0041
51.0049
51.0062
51.0072
51.0086
51.0099
51.0112
51.0128
51.0151
51.0176
51.0214
50.9949
50.9883
50.9876
50.9903
50.9931
50.9954
50.9974
50.9996
51.0016
51.0037
51.0055
51.0074
51.0091
51.0107
51.0125
51.0147
51.0171
51.0208
51.0258
51.0323
50.9615
50.9377
50.9191
50.9067
50.899
50.8938
50.8904
50.8886
50.888
50.8885
50.8898
50.8921
50.8954
50.9001
50.9056
50.9131
50.9211
50.9326
50.9455
50.962
50.9549
50.9299
50.9143
50.9055
50.9003
50.897
50.895
50.8944
50.8948
50.8962
50.8984
50.9015
50.9053
50.9103
50.9164
50.924
50.9325
50.9428
50.9555
50.9709
50.9462
50.9094
50.889
50.8775
50.8701
50.8645
50.8607
50.859
50.8578
50.858
50.859
50.861
50.8641
50.8688
50.8745
50.8819
50.8907
50.9019
50.916
50.9342
51.0787
51.0679
51.0716
51.0792
51.0874
51.0961
51.1051
51.1141
51.1231
51.1321
51.1413
51.1506
51.16
51.1695
51.179
51.1886
51.1983
51.2081
51.218
51.2279
51.238
51.2481
51.2583
51.2686
51.2789
51.2894
51.2999
51.3105
51.3211
51.3319
51.3428
51.3537
51.3648
51.3759
51.3871
51.3983
51.4097
51.4211
51.4326
51.4442
51.4559
51.4676
51.4794
51.4913
51.5032
51.5153
51.5274
51.5396
51.5519
51.5642
51.5767
51.5892
51.6018
51.6144
51.6272
51.64
51.6528
51.6658
51.6788
51.6919
51.7051
51.7183
51.7317
51.745
51.7585
51.772
51.7856
51.7992
51.813
51.8268
51.8406
51.8545
51.8685
51.8825
51.8966
51.9107
51.9249
51.9392
51.9536
51.9679
51.9824
51.9969
52.0115
52.0261
52.0408
52.0555
52.0703
52.0851
52.1
52.1149
52.1299
52.1449
52.16
52.1751
52.1903
52.2055
52.2208
52.2361
52.2514
52.2668
52.2822
52.2977
52.3132
52.3288
52.3444
52.36
52.3757
52.3913
52.407
52.4229
52.4389
52.455
52.4711
52.4873
52.5035
52.5194
52.5353
52.5513
52.5678
52.585
52.6024
52.6188
52.6318
52.6338
52.6177
52.5979
52.579
52.5641
52.5551
52.5531
52.5584
52.5707
52.5882
52.6086
52.6384
52.692
52.7508
52.8022
52.8456
52.8811
52.9096
52.9331
52.9536
52.9728
52.9912
53.0069
53.021
53.0356
53.0504
53.0655
53.0808
53.0962
53.1116
53.1272
53.1428
53.1584
53.174
53.1895
53.2051
53.2207
53.2362
53.2517
53.2672
53.2827
53.2981
53.3135
53.3289
53.3442
53.3595
53.3747
53.39
53.4052
53.4203
53.4354
53.4505
53.4655
53.4804
53.4955
53.5102
53.5253
53.5397
53.5549
53.5691
53.5843
53.5983
53.6135
53.6273
53.6425
53.6561
53.6713
53.6846
53.6998
53.713
53.7281
53.7412
53.7562
53.7691
53.784
53.7954
53.8133
51.0788
51.0692
51.0731
51.0807
51.089
51.0978
51.1067
51.1158
51.1248
51.1339
51.1431
51.1524
51.1618
51.1712
51.1808
51.1904
51.2001
51.2099
51.2197
51.2297
51.2397
51.2499
51.2601
51.2704
51.2807
51.2912
51.3017
51.3123
51.323
51.3337
51.3446
51.3555
51.3666
51.3777
51.3889
51.4002
51.4115
51.4229
51.4344
51.446
51.4577
51.4694
51.4812
51.4931
51.5051
51.5171
51.5292
51.5414
51.5537
51.5661
51.5785
51.591
51.6036
51.6163
51.629
51.6418
51.6547
51.6677
51.6807
51.6938
51.707
51.7202
51.7335
51.7469
51.7604
51.7739
51.7875
51.8011
51.8149
51.8287
51.8425
51.8564
51.8704
51.8845
51.8985
51.9127
51.9269
51.9411
51.9555
51.9699
51.9843
51.9988
52.0134
52.028
52.0427
52.0574
52.0722
52.087
52.1019
52.1169
52.1318
52.1469
52.1619
52.1771
52.1922
52.2074
52.2227
52.238
52.2533
52.2687
52.2841
52.2996
52.3151
52.3306
52.3462
52.3618
52.3774
52.3931
52.4089
52.4247
52.4406
52.4566
52.4725
52.4885
52.5044
52.5202
52.5359
52.552
52.5683
52.5852
52.6026
52.6204
52.6382
52.6556
52.6731
52.691
52.7091
52.7265
52.7414
52.7526
52.7621
52.7709
52.78
52.7903
52.8022
52.816
52.8319
52.8497
52.8688
52.8888
52.9093
52.929
52.9482
52.9671
52.9851
53.0016
53.0177
53.0336
53.0494
53.0651
53.0807
53.0964
53.112
53.1276
53.1433
53.1589
53.1745
53.1901
53.2057
53.2212
53.2368
53.2523
53.2678
53.2832
53.2986
53.314
53.3294
53.3447
53.36
53.3753
53.3905
53.4057
53.4209
53.436
53.451
53.4661
53.481
53.4961
53.5107
53.5259
53.5402
53.5555
53.5697
53.5848
53.5989
53.6141
53.6278
53.6431
53.6566
53.6718
53.6852
53.7004
53.7136
53.7287
53.7417
53.7567
53.7697
53.7846
53.7961
53.8126
51.0788
51.0698
51.0733
51.0807
51.0889
51.0976
51.1065
51.1155
51.1245
51.1336
51.1428
51.1521
51.1615
51.1709
51.1805
51.1901
51.1998
51.2096
51.2194
51.2294
51.2394
51.2496
51.2598
51.2701
51.2804
51.2909
51.3014
51.312
51.3227
51.3334
51.3443
51.3552
51.3663
51.3774
51.3886
51.3999
51.4112
51.4226
51.4341
51.4457
51.4574
51.4691
51.4809
51.4928
51.5048
51.5168
51.5289
51.5411
51.5534
51.5658
51.5782
51.5907
51.6033
51.616
51.6287
51.6415
51.6544
51.6673
51.6804
51.6935
51.7066
51.7199
51.7332
51.7466
51.7601
51.7736
51.7872
51.8008
51.8145
51.8283
51.8422
51.8561
51.8701
51.8842
51.8982
51.9124
51.9266
51.9408
51.9552
51.9696
51.984
51.9985
52.0131
52.0277
52.0424
52.0571
52.0719
52.0867
52.1016
52.1166
52.1316
52.1466
52.1616
52.1768
52.1919
52.2071
52.2224
52.2377
52.253
52.2684
52.2838
52.2993
52.3148
52.3303
52.3459
52.3615
52.3771
52.3928
52.4085
52.4243
52.4401
52.456
52.472
52.4881
52.5041
52.5199
52.5356
52.5514
52.5674
52.5839
52.6014
52.6199
52.639
52.6583
52.6775
52.6966
52.715
52.7332
52.7512
52.768
52.7822
52.7941
52.8051
52.8158
52.8268
52.8386
52.8515
52.8655
52.8806
52.8967
52.9136
52.9309
52.9485
52.9659
52.983
52.9998
53.0163
53.0326
53.0486
53.0646
53.0804
53.0962
53.1119
53.1275
53.1432
53.1588
53.1745
53.1901
53.2057
53.2212
53.2368
53.2523
53.2678
53.2832
53.2986
53.314
53.3294
53.3447
53.36
53.3753
53.3905
53.4057
53.4209
53.436
53.451
53.4661
53.481
53.4961
53.5107
53.5259
53.5402
53.5555
53.5697
53.5848
53.5989
53.6141
53.6278
53.6431
53.6566
53.6718
53.6852
53.7004
53.7136
53.7287
53.7417
53.7567
53.7697
53.7846
53.7964
53.812
51.0639
51.0604
51.0666
51.0752
51.0841
51.0929
51.1018
51.1109
51.12
51.1291
51.1384
51.1476
51.157
51.1664
51.176
51.1856
51.1953
51.2051
51.2149
51.2249
51.2349
51.245
51.2553
51.2655
51.2759
51.2863
51.2969
51.3075
51.3181
51.3289
51.3398
51.3507
51.3617
51.3728
51.384
51.3953
51.4066
51.4181
51.4296
51.4412
51.4528
51.4646
51.4764
51.4883
51.5002
51.5123
51.5244
51.5366
51.5489
51.5612
51.5737
51.5862
51.5988
51.6114
51.6242
51.637
51.6498
51.6628
51.6758
51.6889
51.7021
51.7153
51.7286
51.742
51.7555
51.769
51.7826
51.7963
51.81
51.8238
51.8377
51.8516
51.8655
51.8795
51.8936
51.9078
51.922
51.9363
51.9506
51.965
51.9794
51.9939
52.0085
52.0231
52.0378
52.0526
52.0673
52.0822
52.097
52.112
52.1269
52.142
52.1571
52.1722
52.1874
52.2026
52.2178
52.2331
52.2485
52.2639
52.2794
52.2949
52.3104
52.3259
52.3415
52.3571
52.3729
52.3887
52.4046
52.4205
52.4365
52.4526
52.4685
52.4844
52.5004
52.5161
52.532
52.5483
52.5651
52.5824
52.6004
52.6185
52.6364
52.654
52.6716
52.6891
52.7064
52.7231
52.739
52.754
52.7684
52.7824
52.7965
52.8107
52.8252
52.84
52.8551
52.8706
52.8865
52.9027
52.919
52.9354
52.9518
52.9681
52.9843
53.0005
53.0165
53.0324
53.0483
53.0642
53.08
53.0958
53.1115
53.1272
53.1429
53.1586
53.1743
53.1899
53.2055
53.2211
53.2367
53.2522
53.2677
53.2832
53.2986
53.314
53.3294
53.3447
53.36
53.3753
53.3905
53.4057
53.4209
53.436
53.451
53.4661
53.481
53.496
53.5107
53.5258
53.5403
53.5554
53.5698
53.5847
53.5991
53.6139
53.6279
53.643
53.6566
53.6718
53.6852
53.7003
53.7136
53.7287
53.7417
53.7567
53.7697
53.7845
53.7973
53.8115
51.0693
51.0728
51.0781
51.0844
51.0915
51.0996
51.1081
51.1168
51.1257
51.1348
51.144
51.1533
51.1627
51.1722
51.1817
51.1914
51.2011
51.2108
51.2207
51.2307
51.2407
51.2508
51.261
51.2713
51.2817
51.2921
51.3027
51.3133
51.324
51.3348
51.3456
51.3565
51.3676
51.3786
51.3898
51.4011
51.4124
51.4239
51.4354
51.447
51.4586
51.4704
51.4822
51.4941
51.5061
51.5181
51.5303
51.5425
51.5547
51.5671
51.5795
51.592
51.6046
51.6172
51.63
51.6428
51.6557
51.6686
51.6817
51.6948
51.7079
51.7212
51.7345
51.7479
51.7613
51.7748
51.7884
51.8021
51.8158
51.8296
51.8434
51.8573
51.8713
51.8854
51.8995
51.9136
51.9279
51.9421
51.9565
51.9709
51.9853
51.9998
52.0144
52.029
52.0436
52.0584
52.0731
52.0879
52.1028
52.1178
52.1327
52.1478
52.1628
52.1779
52.1931
52.2083
52.2235
52.2388
52.2542
52.2695
52.2849
52.3004
52.3159
52.3314
52.347
52.3625
52.3781
52.3937
52.4094
52.4251
52.4408
52.4566
52.4724
52.4883
52.5042
52.5201
52.5361
52.5519
52.5677
52.5835
52.5997
52.6161
52.6327
52.6495
52.6663
52.6832
52.6999
52.7166
52.733
52.749
52.7648
52.7804
52.7959
52.8114
52.8268
52.8423
52.8579
52.8736
52.8894
52.9052
52.9211
52.937
52.9529
52.9688
52.9847
53.0006
53.0165
53.0323
53.0482
53.064
53.0798
53.0956
53.1114
53.1271
53.1428
53.1585
53.1742
53.1898
53.2055
53.2211
53.2366
53.2522
53.2677
53.2831
53.2986
53.314
53.3294
53.3447
53.36
53.3753
53.3905
53.4057
53.4208
53.436
53.451
53.4661
53.481
53.4959
53.5109
53.5256
53.5406
53.5551
53.57
53.5846
53.5991
53.6139
53.6281
53.6428
53.657
53.6714
53.6858
53.6997
53.7143
53.728
53.7423
53.7563
53.77
53.7841
53.7978
53.8115
51.0301
51.0434
51.0547
51.0651
51.0749
51.0842
51.0932
51.1021
51.1111
51.1202
51.1294
51.1387
51.148
51.1575
51.167
51.1766
51.1864
51.1961
51.206
51.216
51.226
51.2361
51.2463
51.2566
51.267
51.2774
51.2879
51.2985
51.3092
51.32
51.3308
51.3417
51.3528
51.3639
51.3751
51.3863
51.3977
51.4091
51.4206
51.4322
51.4439
51.4556
51.4674
51.4793
51.4913
51.5033
51.5154
51.5276
51.5399
51.5523
51.5647
51.5772
51.5898
51.6024
51.6152
51.628
51.6409
51.6538
51.6669
51.68
51.6931
51.7064
51.7197
51.7331
51.7466
51.7601
51.7737
51.7874
51.8011
51.8149
51.8287
51.8426
51.8566
51.8706
51.8847
51.8989
51.9131
51.9274
51.9418
51.9562
51.9706
51.9852
51.9998
52.0144
52.0292
52.044
52.0588
52.0737
52.0887
52.1037
52.1187
52.1338
52.1491
52.1643
52.1797
52.1951
52.2105
52.226
52.2414
52.257
52.2726
52.2883
52.304
52.3199
52.3358
52.3518
52.3678
52.3839
52.3999
52.4158
52.4317
52.4475
52.4634
52.4793
52.4955
52.5121
52.529
52.5462
52.5637
52.5812
52.5988
52.6162
52.6333
52.6502
52.6671
52.6839
52.7005
52.717
52.7333
52.7492
52.765
52.7805
52.7959
52.8112
52.8266
52.842
52.8576
52.8732
52.8888
52.9046
52.9204
52.9363
52.9522
52.9681
52.984
53
53.0159
53.0318
53.0477
53.0635
53.0794
53.0952
53.111
53.1268
53.1426
53.1583
53.174
53.1897
53.2053
53.221
53.2365
53.2521
53.2676
53.2831
53.2986
53.314
53.3294
53.3447
53.36
53.3753
53.3905
53.4057
53.4209
53.4359
53.4511
53.466
53.4811
53.4959
53.511
53.5255
53.5406
53.555
53.5701
53.5843
53.5994
53.6134
53.6285
53.6423
53.6574
53.671
53.6861
53.6995
53.7145
53.7277
53.7427
53.7557
53.7707
53.7836
53.7984
53.811
51.0542
51.0717
51.0814
51.0893
51.0974
51.1058
51.1144
51.1232
51.1322
51.1413
51.1505
51.1598
51.1692
51.1786
51.1882
51.1978
51.2076
51.2174
51.2272
51.2372
51.2472
51.2574
51.2676
51.2778
51.2882
51.2987
51.3092
51.3198
51.3305
51.3413
51.3522
51.3631
51.3741
51.3852
51.3964
51.4077
51.419
51.4304
51.4419
51.4535
51.4652
51.4769
51.4887
51.5006
51.5126
51.5247
51.5368
51.549
51.5613
51.5736
51.5861
51.5986
51.6112
51.6238
51.6366
51.6494
51.6622
51.6752
51.6882
51.7013
51.7145
51.7277
51.741
51.7544
51.7679
51.7814
51.795
51.8086
51.8223
51.8361
51.8499
51.8638
51.8778
51.8918
51.906
51.9201
51.9343
51.9486
51.963
51.9773
51.9918
52.0063
52.0208
52.0355
52.0501
52.0649
52.0797
52.0945
52.1094
52.1244
52.1393
52.1544
52.1695
52.1846
52.1998
52.215
52.2303
52.2456
52.2609
52.2763
52.2917
52.3072
52.3227
52.3382
52.3538
52.3694
52.3851
52.4007
52.4163
52.432
52.4478
52.4637
52.4795
52.4952
52.5109
52.5266
52.5425
52.5585
52.5744
52.5903
52.6062
52.622
52.6374
52.6528
52.6684
52.6842
52.7003
52.7167
52.7335
52.7507
52.768
52.7851
52.8015
52.8173
52.8325
52.8474
52.8621
52.8769
52.8918
52.9069
52.9222
52.9376
52.9532
52.9688
52.9846
53.0003
53.0161
53.0319
53.0478
53.0636
53.0794
53.0953
53.111
53.1268
53.1426
53.1583
53.174
53.1897
53.2053
53.221
53.2365
53.2521
53.2676
53.2831
53.2986
53.314
53.3294
53.3447
53.36
53.3753
53.3905
53.4057
53.4209
53.4359
53.4511
53.466
53.4811
53.4959
53.511
53.5255
53.5406
53.555
53.5701
53.5843
53.5994
53.6134
53.6285
53.6423
53.6574
53.671
53.6861
53.6994
53.7145
53.7277
53.7427
53.7558
53.7706
53.7837
53.7982
53.8116
51.0175
51.0457
51.0591
51.0689
51.0775
51.086
51.0945
51.1031
51.1119
51.1209
51.13
51.1393
51.1486
51.158
51.1676
51.1772
51.1869
51.1967
51.2065
51.2165
51.2265
51.2366
51.2468
51.2571
51.2675
51.278
51.2885
51.2991
51.3098
51.3206
51.3314
51.3423
51.3533
51.3644
51.3756
51.3869
51.3982
51.4097
51.4212
51.4328
51.4444
51.4562
51.468
51.4799
51.4919
51.5039
51.516
51.5282
51.5405
51.5528
51.5653
51.5778
51.5904
51.603
51.6158
51.6286
51.6415
51.6544
51.6675
51.6806
51.6938
51.7071
51.7205
51.7339
51.7474
51.7609
51.7746
51.7883
51.8021
51.8159
51.8298
51.8438
51.8578
51.8719
51.886
51.9001
51.9143
51.9286
51.9429
51.9573
51.9717
51.9862
52.0008
52.0154
52.0301
52.0448
52.0596
52.0745