/*--------------------------------*- C++ -*----------------------------------*\
| =========                 |                                                 |
| \\      /  F ield         | OpenFOAM: The Open Source CFD Toolbox           |
|  \\    /   O peration     | Version:  3.0.x                                 |
|   \\  /    A nd           | Web:      www.OpenFOAM.org                      |
|    \\/     M anipulation  |                                                 |
\*---------------------------------------------------------------------------*/
FoamFile
{
    version     2.0;
    format      ascii;
    class       volScalarField;
    location    "0.460075";
    object      T;
}
// * * * * * * * * * * * * * * * * * * * * * * * * * * * * * * * * * * * * * //

dimensions      [0 0 0 1 0 0 0];

internalField   nonuniform List<scalar> 
13800
(
773.274
773.274
773.274
773.274
773.274
773.274
773.274
773.274
773.274
773.274
773.274
773.273
773.273
773.273
773.273
773.273
773.273
773.273
773.273
773.273
773.273
773.273
773.273
773.273
773.273
773.273
773.273
773.273
773.273
773.273
773.273
773.273
773.273
773.273
773.272
773.272
773.272
773.272
773.272
773.272
773.272
773.272
773.272
773.273
773.273
773.273
773.274
773.274
773.274
773.274
773.273
773.273
773.272
773.271
773.27
773.27
773.27
773.27
773.27
773.27
773.27
773.271
773.271
773.271
773.271
773.271
773.271
773.271
773.271
773.271
773.271
773.271
773.27
773.269
773.269
773.268
773.268
773.268
773.268
773.268
773.269
773.269
773.27
773.271
773.272
773.273
773.274
773.275
773.276
773.276
773.276
773.277
773.277
773.278
773.279
773.281
773.282
773.284
773.286
773.288
773.29
773.292
773.294
773.297
773.299
773.302
773.305
773.308
773.312
773.315
773.319
773.322
773.326
773.331
773.335
773.339
773.344
773.349
773.354
773.359
773.365
773.371
773.377
773.383
773.389
773.396
773.403
773.41
773.417
773.424
773.432
773.44
773.449
773.457
773.466
773.475
773.484
773.494
773.504
773.514
773.525
773.535
773.546
773.558
773.569
773.581
773.593
773.606
773.618
773.632
773.645
773.659
773.673
773.687
773.701
773.716
773.731
773.747
773.763
773.779
773.796
773.812
773.83
773.847
773.865
773.883
773.902
773.92
773.94
773.959
773.979
773.999
774.02
774.041
774.062
774.083
774.105
774.128
774.15
774.173
774.197
774.221
774.245
774.269
774.294
774.32
774.345
774.371
774.397
774.425
774.45
774.481
774.505
774.538
774.561
774.597
774.619
774.664
774.688
774.888
773.26
773.26
773.26
773.26
773.26
773.26
773.26
773.26
773.26
773.26
773.26
773.26
773.26
773.26
773.26
773.26
773.26
773.26
773.26
773.26
773.26
773.26
773.26
773.26
773.26
773.26
773.26
773.26
773.26
773.26
773.26
773.26
773.26
773.26
773.26
773.26
773.26
773.26
773.26
773.26
773.26
773.26
773.26
773.261
773.261
773.262
773.262
773.262
773.262
773.262
773.262
773.261
773.26
773.26
773.259
773.259
773.259
773.259
773.259
773.259
773.259
773.26
773.26
773.26
773.26
773.26
773.261
773.261
773.261
773.261
773.261
773.26
773.26
773.259
773.259
773.258
773.258
773.258
773.258
773.258
773.259
773.26
773.261
773.262
773.263
773.264
773.265
773.265
773.266
773.267
773.267
773.268
773.268
773.269
773.27
773.272
773.273
773.275
773.277
773.279
773.281
773.283
773.286
773.288
773.291
773.294
773.297
773.3
773.303
773.307
773.31
773.314
773.318
773.322
773.326
773.331
773.335
773.34
773.345
773.351
773.356
773.362
773.368
773.374
773.38
773.387
773.394
773.401
773.408
773.416
773.424
773.432
773.44
773.449
773.457
773.466
773.476
773.485
773.495
773.505
773.516
773.527
773.538
773.549
773.561
773.572
773.585
773.597
773.61
773.623
773.636
773.65
773.664
773.678
773.693
773.708
773.723
773.738
773.754
773.77
773.787
773.804
773.821
773.838
773.856
773.874
773.893
773.912
773.931
773.95
773.97
773.99
774.011
774.032
774.053
774.075
774.097
774.119
774.142
774.165
774.188
774.212
774.236
774.261
774.286
774.311
774.336
774.363
774.388
774.417
774.441
774.472
774.496
774.529
774.552
774.588
774.61
774.656
774.678
774.905
773.26
773.26
773.26
773.26
773.26
773.26
773.26
773.26
773.26
773.26
773.26
773.26
773.26
773.26
773.26
773.26
773.26
773.26
773.26
773.26
773.26
773.26
773.26
773.26
773.26
773.26
773.26
773.26
773.26
773.26
773.26
773.26
773.26
773.26
773.26
773.26
773.26
773.26
773.26
773.26
773.26
773.26
773.26
773.261
773.261
773.262
773.262
773.262
773.262
773.262
773.262
773.261
773.26
773.26
773.259
773.259
773.259
773.259
773.259
773.259
773.259
773.26
773.26
773.26
773.26
773.26
773.26
773.261
773.261
773.261
773.261
773.26
773.26
773.259
773.259
773.258
773.258
773.258
773.258
773.258
773.259
773.26
773.261
773.262
773.263
773.264
773.265
773.265
773.266
773.267
773.267
773.268
773.268
773.269
773.27
773.272
773.273
773.275
773.277
773.279
773.281
773.283
773.286
773.288
773.291
773.294
773.297
773.3
773.303
773.306
773.31
773.314
773.318
773.322
773.326
773.331
773.335
773.34
773.345
773.351
773.356
773.362
773.368
773.374
773.38
773.387
773.394
773.401
773.408
773.416
773.424
773.432
773.44
773.449
773.457
773.466
773.476
773.485
773.495
773.505
773.516
773.527
773.538
773.549
773.56
773.572
773.585
773.597
773.61
773.623
773.636
773.65
773.664
773.678
773.693
773.708
773.723
773.738
773.754
773.77
773.787
773.804
773.821
773.838
773.856
773.874
773.893
773.912
773.931
773.95
773.97
773.99
774.011
774.032
774.053
774.075
774.097
774.119
774.142
774.165
774.188
774.212
774.236
774.261
774.285
774.311
774.336
774.363
774.388
774.417
774.441
774.472
774.496
774.529
774.552
774.588
774.61
774.656
774.678
774.899
773.26
773.26
773.26
773.26
773.26
773.26
773.26
773.26
773.26
773.26
773.26
773.26
773.26
773.26
773.26
773.26
773.26
773.26
773.26
773.26
773.26
773.26
773.26
773.26
773.26
773.26
773.26
773.26
773.26
773.26
773.26
773.26
773.26
773.26
773.26
773.26
773.26
773.26
773.26
773.26
773.26
773.26
773.261
773.261
773.261
773.262
773.262
773.262
773.262
773.262
773.262
773.261
773.26
773.26
773.259
773.259
773.259
773.259
773.259
773.259
773.259
773.26
773.26
773.26
773.26
773.261
773.261
773.261
773.261
773.261
773.261
773.26
773.26
773.259
773.259
773.258
773.258
773.258
773.258
773.258
773.259
773.26
773.261
773.262
773.263
773.264
773.265
773.265
773.266
773.267
773.267
773.268
773.268
773.269
773.27
773.272
773.273
773.275
773.277
773.279
773.281
773.283
773.286
773.288
773.291
773.294
773.297
773.3
773.303
773.306
773.31
773.314
773.318
773.322
773.326
773.331
773.335
773.34
773.345
773.351
773.356
773.362
773.368
773.374
773.38
773.387
773.394
773.401
773.408
773.416
773.424
773.432
773.44
773.449
773.457
773.466
773.476
773.485
773.495
773.505
773.516
773.527
773.538
773.549
773.56
773.572
773.585
773.597
773.61
773.623
773.636
773.65
773.664
773.678
773.693
773.708
773.723
773.738
773.754
773.77
773.787
773.804
773.821
773.838
773.856
773.874
773.893
773.912
773.931
773.95
773.97
773.99
774.011
774.032
774.053
774.075
774.097
774.119
774.142
774.165
774.188
774.212
774.236
774.261
774.286
774.311
774.336
774.363
774.388
774.417
774.441
774.472
774.496
774.529
774.552
774.588
774.61
774.654
774.678
774.85
773.26
773.26
773.26
773.26
773.26
773.26
773.26
773.26
773.26
773.26
773.26
773.26
773.26
773.26
773.26
773.26
773.26
773.26
773.26
773.26
773.26
773.26
773.26
773.26
773.26
773.26
773.26
773.26
773.26
773.26
773.26
773.26
773.26
773.26
773.26
773.26
773.26
773.26
773.26
773.26
773.26
773.261
773.261
773.261
773.261
773.262
773.262
773.262
773.262
773.262
773.262
773.262
773.261
773.26
773.259
773.259
773.259
773.259
773.259
773.259
773.26
773.26
773.26
773.26
773.26
773.261
773.261
773.261
773.261
773.261
773.261
773.26
773.26
773.259
773.259
773.258
773.258
773.258
773.258
773.258
773.259
773.26
773.261
773.262
773.263
773.264
773.265
773.265
773.266
773.267
773.267
773.268
773.268
773.269
773.27
773.272
773.273
773.275
773.277
773.279
773.281
773.283
773.286
773.288
773.291
773.294
773.297
773.3
773.303
773.306
773.31
773.314
773.318
773.322
773.326
773.331
773.335
773.34
773.345
773.351
773.356
773.362
773.368
773.374
773.38
773.387
773.394
773.401
773.408
773.416
773.424
773.432
773.44
773.449
773.457
773.466
773.476
773.485
773.495
773.505
773.516
773.527
773.538
773.549
773.56
773.572
773.585
773.597
773.61
773.623
773.636
773.65
773.664
773.678
773.693
773.708
773.723
773.738
773.754
773.77
773.787
773.804
773.821
773.838
773.856
773.874
773.893
773.912
773.931
773.95
773.97
773.99
774.011
774.032
774.053
774.075
774.097
774.119
774.142
774.165
774.188
774.212
774.236
774.261
774.285
774.311
774.336
774.363
774.388
774.417
774.441
774.472
774.496
774.529
774.552
774.588
774.609
774.652
774.672
774.798
773.26
773.26
773.26
773.26
773.26
773.26
773.26
773.26
773.26
773.26
773.26
773.26
773.26
773.26
773.26
773.26
773.26
773.26
773.26
773.26
773.26
773.26
773.26
773.26
773.26
773.26
773.26
773.26
773.26
773.26
773.26
773.26
773.26
773.26
773.26
773.26
773.26
773.26
773.26
773.26
773.26
773.261
773.261
773.261
773.261
773.262
773.262
773.262
773.262
773.262
773.262
773.262
773.261
773.26
773.259
773.259
773.259
773.259
773.259
773.259
773.26
773.26
773.26
773.26
773.26
773.261
773.261
773.261
773.261
773.261
773.261
773.26
773.26
773.259
773.259
773.258
773.258
773.258
773.258
773.258
773.259
773.26
773.261
773.262
773.263
773.264
773.265
773.265
773.266
773.267
773.267
773.268
773.268
773.269
773.27
773.272
773.273
773.275
773.277
773.279
773.281
773.283
773.286
773.288
773.291
773.294
773.297
773.3
773.303
773.306
773.31
773.314
773.318
773.322
773.326
773.331
773.335
773.34
773.345
773.351
773.356
773.362
773.368
773.374
773.38
773.387
773.394
773.401
773.408
773.416
773.424
773.432
773.44
773.449
773.457
773.466
773.476
773.485
773.495
773.505
773.516
773.527
773.538
773.549
773.56
773.572
773.585
773.597
773.61
773.623
773.636
773.65
773.664
773.678
773.693
773.708
773.723
773.738
773.754
773.77
773.787
773.804
773.821
773.838
773.856
773.874
773.893
773.912
773.931
773.95
773.97
773.99
774.011
774.032
774.053
774.075
774.097
774.119
774.142
774.165
774.188
774.212
774.236
774.261
774.286
774.311
774.336
774.362
774.389
774.416
774.443
774.471
774.497
774.527
774.556
774.581
774.618
774.637
774.677
774.688
773.26
773.26
773.26
773.26
773.26
773.26
773.26
773.26
773.26
773.26
773.26
773.26
773.26
773.26
773.26
773.26
773.26
773.26
773.26
773.26
773.26
773.26
773.26
773.26
773.26
773.26
773.26
773.26
773.26
773.26
773.26
773.26
773.26
773.26
773.26
773.26
773.26
773.26
773.26
773.26
773.26
773.26
773.261
773.261
773.261
773.262
773.262
773.262
773.262
773.262
773.262
773.261
773.26
773.26
773.259
773.259
773.259
773.259
773.259
773.259
773.259
773.26
773.26
773.26
773.26
773.261
773.261
773.261
773.261
773.261
773.261
773.26
773.26
773.259
773.259
773.258
773.258
773.258
773.258
773.258
773.259
773.26
773.261
773.262
773.263
773.264
773.265
773.265
773.266
773.267
773.267
773.268
773.268
773.269
773.27
773.272
773.273
773.275
773.277
773.279
773.281
773.283
773.286
773.288
773.291
773.294
773.297
773.3
773.303
773.306
773.31
773.314
773.318
773.322
773.326
773.331
773.335
773.34
773.345
773.351
773.356
773.362
773.368
773.374
773.38
773.387
773.394
773.401
773.408
773.416
773.424
773.432
773.44
773.449
773.457
773.466
773.476
773.485
773.495
773.505
773.516
773.527
773.538
773.549
773.56
773.572
773.585
773.597
773.61
773.623
773.636
773.65
773.664
773.678
773.693
773.708
773.723
773.738
773.754
773.77
773.787
773.804
773.821
773.838
773.856
773.874
773.893
773.912
773.931
773.95
773.97
773.99
774.011
774.032
774.053
774.075
774.097
774.119
774.142
774.165
774.188
774.212
774.236
774.261
774.286
774.311
774.337
774.362
774.389
774.415
774.445
774.468
774.501
774.523
774.559
774.579
774.618
774.635
774.679
774.53
773.26
773.26
773.26
773.26
773.26
773.26
773.26
773.26
773.26
773.26
773.26
773.26
773.26
773.26
773.26
773.26
773.26
773.26
773.26
773.26
773.26
773.26
773.26
773.26
773.26
773.26
773.26
773.26
773.26
773.26
773.26
773.26
773.26
773.26
773.26
773.26
773.26
773.26
773.26
773.26
773.26
773.26
773.26
773.261
773.261
773.262
773.262
773.262
773.262
773.262
773.262
773.261
773.26
773.26
773.259
773.259
773.259
773.259
773.259
773.259
773.259
773.26
773.26
773.26
773.26
773.26
773.26
773.261
773.261
773.261
773.261
773.26
773.26
773.259
773.259
773.258
773.258
773.258
773.258
773.258
773.259
773.26
773.261
773.262
773.263
773.264
773.265
773.265
773.266
773.267
773.267
773.268
773.268
773.269
773.27
773.272
773.273
773.275
773.277
773.279
773.281
773.283
773.286
773.288
773.291
773.294
773.297
773.3
773.303
773.306
773.31
773.314
773.318
773.322
773.326
773.331
773.335
773.34
773.345
773.351
773.356
773.362
773.368
773.374
773.38
773.387
773.394
773.401
773.408
773.416
773.424
773.432
773.44
773.449
773.457
773.466
773.476
773.485
773.495
773.505
773.516
773.527
773.538
773.549
773.56
773.572
773.585
773.597
773.61
773.623
773.636
773.65
773.664
773.678
773.693
773.708
773.723
773.738
773.754
773.77
773.787
773.804
773.821
773.838
773.856
773.874
773.893
773.912
773.931
773.95
773.97
773.99
774.011
774.032
774.053
774.075
774.097
774.119
774.142
774.165
774.188
774.212
774.236
774.261
774.286
774.311
774.337
774.362
774.39
774.414
774.445
774.468
774.501
774.523
774.559
774.579
774.619
774.634
774.696
774.293
773.26
773.26
773.26
773.26
773.26
773.26
773.26
773.26
773.26
773.26
773.26
773.26
773.26
773.26
773.26
773.26
773.26
773.26
773.26
773.26
773.26
773.26
773.26
773.26
773.26
773.26
773.26
773.26
773.26
773.26
773.26
773.26
773.26
773.26
773.26
773.26
773.26
773.26
773.26
773.26
773.26
773.26
773.26
773.261
773.261
773.262
773.262
773.262
773.262
773.262
773.262
773.261
773.26
773.26
773.259
773.259
773.259
773.259
773.259
773.259
773.259
773.26
773.26
773.26
773.26
773.26
773.261
773.261
773.261
773.261
773.261
773.26
773.26
773.259
773.259
773.258
773.258
773.258
773.258
773.258
773.259
773.26
773.261
773.262
773.263
773.264
773.265
773.265
773.266
773.267
773.267
773.268
773.268
773.269
773.27
773.272
773.273
773.275
773.277
773.279
773.281
773.283
773.286
773.288
773.291
773.294
773.297
773.3
773.303
773.307
773.31
773.314
773.318
773.322
773.326
773.331
773.335
773.34
773.345
773.351
773.356
773.362
773.368
773.374
773.38
773.387
773.394
773.401
773.408
773.416
773.424
773.432
773.44
773.449
773.457
773.466
773.476
773.485
773.495
773.505
773.516
773.527
773.538
773.549
773.561
773.572
773.585
773.597
773.61
773.623
773.636
773.65
773.664
773.678
773.693
773.708
773.723
773.738
773.754
773.77
773.787
773.804
773.821
773.838
773.856
773.874
773.893
773.912
773.931
773.95
773.97
773.99
774.011
774.032
774.053
774.075
774.097
774.119
774.142
774.165
774.188
774.212
774.236
774.261
774.286
774.311
774.337
774.362
774.39
774.414
774.445
774.468
774.501
774.523
774.559
774.579
774.619
774.634
774.709
774.176
773.274
773.274
773.274
773.274
773.274
773.274
773.274
773.274
773.274
773.274
773.274
773.273
773.273
773.273
773.273
773.273
773.273
773.273
773.273
773.273
773.273
773.273
773.273
773.273
773.273
773.273
773.273
773.273
773.273
773.273
773.273
773.273
773.273
773.273
773.272
773.272
773.272
773.272
773.272
773.272
773.272
773.272
773.272
773.273
773.273
773.273
773.274
773.274
773.274
773.274
773.273
773.273
773.272
773.271
773.27
773.27
773.27
773.27
773.27
773.27
773.27
773.271
773.271
773.271
773.271
773.271
773.271
773.271
773.271
773.271
773.271
773.271
773.27
773.269
773.269
773.268
773.268
773.268
773.268
773.268
773.269
773.269
773.27
773.271
773.272
773.273
773.274
773.275
773.276
773.276
773.276
773.277
773.277
773.278
773.279
773.281
773.282
773.284
773.286
773.288
773.29
773.292
773.294
773.297
773.299
773.302
773.305
773.308
773.312
773.315
773.319
773.322
773.326
773.331
773.335
773.339
773.344
773.349
773.354
773.359
773.365
773.371
773.377
773.383
773.389
773.396
773.403
773.41
773.417
773.424
773.432
773.44
773.449
773.457
773.466
773.475
773.484
773.494
773.504
773.514
773.525
773.535
773.546
773.558
773.569
773.581
773.593
773.606
773.618
773.632
773.645
773.659
773.673
773.687
773.701
773.716
773.731
773.747
773.763
773.779
773.796
773.812
773.83
773.847
773.865
773.883
773.902
773.92
773.94
773.959
773.979
773.999
774.02
774.041
774.062
774.083
774.105
774.128
774.15
774.173
774.197
774.221
774.245
774.269
774.294
774.319
774.345
774.371
774.398
774.423
774.453
774.476
774.51
774.532
774.568
774.588
774.629
774.642
774.729
774.071
774.883
774.915
774.942
774.953
774.963
774.973
774.982
774.991
774.999
775.005
775.011
775.016
775.02
775.023
775.025
775.026
775.024
775.021
775.007
774.98
774.875
774.9
774.917
774.926
774.934
774.942
774.949
774.955
774.961
774.966
774.971
774.975
774.978
774.981
774.982
774.983
774.981
774.978
774.964
774.941
774.874
774.898
774.918
774.928
774.935
774.943
774.95
774.958
774.965
774.97
774.975
774.978
774.981
774.983
774.983
774.982
774.978
774.972
774.957
774.936
774.835
774.849
774.859
774.866
774.874
774.881
774.889
774.897
774.905
774.914
774.923
774.932
774.941
774.951
774.959
774.966
774.97
774.969
774.962
774.948
774.793
774.811
774.829
774.842
774.854
774.862
774.869
774.874
774.878
774.876
774.875
774.868
774.865
774.857
774.854
774.844
774.841
774.832
774.832
774.828
774.704
774.7
774.695
774.691
774.691
774.695
774.701
774.709
774.718
774.731
774.748
774.767
774.788
774.807
774.83
774.852
774.876
774.892
774.912
774.923
774.6
774.598
774.606
774.615
774.62
774.621
774.622
774.619
774.615
774.607
774.599
774.588
774.578
774.567
774.56
774.555
774.559
774.563
774.577
774.599
774.458
774.425
774.396
774.383
774.379
774.381
774.385
774.392
774.406
774.424
774.444
774.467
774.492
774.519
774.554
774.581
774.629
774.663
774.715
774.761
774.366
774.331
774.3
774.28
774.268
774.258
774.252
774.248
774.249
774.253
774.258
774.265
774.278
774.292
774.309
774.328
774.358
774.397
774.449
774.513
774.316
774.265
774.211
774.191
774.181
774.186
774.197
774.204
774.228
774.252
774.281
774.312
774.346
774.379
774.419
774.46
774.51
774.566
774.632
774.705
774.887
774.892
774.902
774.922
774.948
774.972
774.996
775.023
775.051
775.079
775.107
775.135
775.163
775.192
775.221
775.25
775.28
775.31
775.34
775.37
775.4
775.431
775.462
775.493
775.525
775.557
775.589
775.622
775.654
775.687
775.72
775.753
775.786
775.819
775.853
775.887
775.921
775.956
775.991
776.026
776.061
776.096
776.132
776.168
776.205
776.242
776.278
776.315
776.353
776.39
776.427
776.465
776.503
776.541
776.579
776.618
776.657
776.696
776.735
776.775
776.814
776.854
776.894
776.935
776.975
777.016
777.057
777.098
777.139
777.18
777.222
777.263
777.306
777.348
777.391
777.434
777.477
777.52
777.563
777.606
777.649
777.693
777.737
777.781
777.825
777.869
777.913
777.957
778.002
778.046
778.092
778.137
778.182
778.227
778.273
778.318
778.364
778.41
778.456
778.502
778.548
778.594
778.64
778.686
778.732
778.778
778.825
778.872
778.918
778.963
779.007
779.05
779.091
779.134
779.177
779.223
779.271
779.317
779.357
779.387
779.413
779.455
779.548
779.803
780.327
780.906
781.472
781.979
782.399
782.715
782.921
783.024
783.049
783.03
782.872
782.36
781.772
781.294
780.936
780.696
780.558
780.494
780.474
780.472
780.484
780.533
780.606
780.673
780.735
780.793
780.848
780.9
780.951
781.001
781.049
781.097
781.145
781.192
781.239
781.286
781.332
781.378
781.424
781.47
781.516
781.561
781.607
781.652
781.697
781.742
781.787
781.831
781.876
781.92
781.965
782.008
782.053
782.095
782.142
782.181
782.23
782.266
782.317
782.352
782.403
782.437
782.489
782.52
782.574
782.604
782.659
782.686
782.742
782.769
782.824
782.851
782.906
782.93
783.002
782.98
774.859
774.865
774.876
774.897
774.922
774.947
774.971
774.997
775.024
775.052
775.08
775.109
775.137
775.166
775.194
775.224
775.253
775.283
775.313
775.343
775.374
775.404
775.435
775.466
775.498
775.53
775.562
775.594
775.627
775.66
775.693
775.725
775.759
775.792
775.826
775.859
775.894
775.928
775.963
775.998
776.033
776.069
776.104
776.14
776.177
776.213
776.25
776.288
776.325
776.362
776.399
776.437
776.475
776.513
776.551
776.59
776.629
776.668
776.707
776.747
776.786
776.826
776.866
776.906
776.947
776.987
777.028
777.07
777.111
777.152
777.193
777.235
777.277
777.319
777.362
777.405
777.448
777.491
777.534
777.577
777.621
777.664
777.708
777.752
777.796
777.84
777.884
777.928
777.973
778.018
778.063
778.108
778.153
778.199
778.244
778.29
778.335
778.381
778.427
778.473
778.519
778.566
778.612
778.659
778.705
778.752
778.798
778.845
778.891
778.937
778.982
779.026
779.072
779.117
779.163
779.212
779.262
779.308
779.349
779.384
779.41
779.431
779.453
779.479
779.506
779.526
779.543
779.571
779.636
779.754
779.899
780.054
780.203
780.334
780.443
780.523
780.572
780.592
780.593
780.581
780.561
780.554
780.553
780.556
780.572
780.611
780.655
780.702
780.75
780.799
780.848
780.897
780.946
780.994
781.042
781.09
781.137
781.184
781.231
781.277
781.324
781.37
781.416
781.462
781.508
781.553
781.599
781.644
781.689
781.734
781.779
781.823
781.868
781.912
781.957
782
782.045
782.087
782.134
782.173
782.222
782.258
782.309
782.344
782.395
782.428
782.481
782.512
782.566
782.595
782.651
782.678
782.734
782.761
782.816
782.843
782.898
782.923
782.992
782.99
774.863
774.869
774.882
774.902
774.927
774.95
774.975
775.001
775.029
775.057
775.085
775.113
775.141
775.17
775.199
775.228
775.258
775.288
775.318
775.348
775.378
775.409
775.44
775.471
775.502
775.534
775.566
775.599
775.631
775.664
775.697
775.73
775.763
775.797
775.83
775.864
775.898
775.933
775.968
776.003
776.038
776.073
776.109
776.145
776.181
776.218
776.255
776.292
776.329
776.367
776.404
776.442
776.479
776.517
776.556
776.594
776.633
776.673
776.712
776.751
776.791
776.831
776.871
776.911
776.951
776.992
777.033
777.074
777.115
777.157
777.198
777.24
777.281
777.324
777.366
777.409
777.452
777.495
777.539
777.582
777.625
777.669
777.712
777.756
777.8
777.844
777.889
777.933
777.977
778.022
778.067
778.112
778.157
778.203
778.248
778.294
778.34
778.385
778.431
778.478
778.524
778.57
778.617
778.663
778.71
778.756
778.803
778.85
778.896
778.942
778.988
779.034
779.078
779.123
779.168
779.216
779.266
779.317
779.364
779.403
779.429
779.439
779.44
779.44
779.44
779.444
779.456
779.472
779.49
779.527
779.602
779.71
779.833
779.959
780.08
780.189
780.283
780.359
780.419
780.465
780.499
780.525
780.549
780.575
780.604
780.638
780.676
780.717
780.761
780.806
780.853
780.9
780.948
780.995
781.043
781.09
781.137
781.184
781.231
781.278
781.324
781.37
781.416
781.462
781.508
781.553
781.599
781.644
781.689
781.734
781.779
781.823
781.868
781.912
781.957
782
782.045
782.087
782.134
782.173
782.222
782.258
782.309
782.344
782.395
782.428
782.481
782.512
782.566
782.596
782.651
782.678
782.734
782.761
782.816
782.843
782.898
782.923
782.988
783
774.907
774.924
774.933
774.958
774.988
775.016
775.044
775.07
775.097
775.124
775.152
775.18
775.209
775.238
775.267
775.296
775.326
775.356
775.386
775.416
775.447
775.477
775.508
775.539
775.571
775.603
775.635
775.667
775.7
775.733
775.765
775.799
775.832
775.865
775.899
775.933
775.967
776.002
776.036
776.071
776.106
776.142
776.178
776.214
776.25
776.287
776.324
776.361
776.398
776.435
776.472
776.51
776.548
776.586
776.625
776.663
776.702
776.741
776.78
776.82
776.859
776.899
776.939
776.98
777.02
777.061
777.102
777.142
777.183
777.225
777.266
777.308
777.35
777.393
777.436
777.478
777.521
777.564
777.607
777.65
777.694
777.737
777.781
777.825
777.869
777.913
777.957
778.001
778.046
778.091
778.136
778.181
778.226
778.271
778.317
778.362
778.408
778.454
778.499
778.545
778.59
778.636
778.682
778.728
778.775
778.821
778.866
778.911
778.955
778.999
779.042
779.085
779.13
779.177
779.223
779.272
779.321
779.362
779.397
779.424
779.443
779.459
779.479
779.503
779.529
779.554
779.583
779.621
779.671
779.734
779.806
779.883
779.959
780.034
780.104
780.169
780.229
780.283
780.332
780.377
780.419
780.46
780.5
780.542
780.584
780.628
780.673
780.719
780.765
780.812
780.859
780.906
780.953
781
781.047
781.094
781.14
781.187
781.233
781.279
781.325
781.371
781.417
781.463
781.508
781.554
781.599
781.644
781.689
781.734
781.779
781.823
781.868
781.912
781.956
782
782.045
782.087
782.134
782.173
782.221
782.26
782.307
782.347
782.392
782.431
782.48
782.512
782.567
782.595
782.65
782.679
782.733
782.761
782.817
782.843
782.898
782.923
782.976
783.007
774.832
774.841
774.861
774.881
774.905
774.928
774.955
774.983
775.011
775.039
775.066
775.094
775.122
775.151
775.18
775.209
775.238
775.268
775.298
775.328
775.359
775.39
775.421
775.452
775.483
775.515
775.547
775.579
775.611
775.644
775.677
775.71
775.744
775.778
775.811
775.845
775.88
775.914
775.949
775.984
776.019
776.054
776.09
776.126
776.162
776.199
776.235
776.272
776.309
776.347
776.384
776.422
776.46
776.498
776.537
776.575
776.614
776.653
776.692
776.732
776.772
776.812
776.852
776.892
776.932
776.973
777.014
777.055
777.096
777.138
777.179
777.221
777.263
777.305
777.348
777.39
777.433
777.476
777.519
777.562
777.606
777.649
777.693
777.737
777.781
777.825
777.87
777.915
777.959
778.004
778.049
778.094
778.139
778.185
778.231
778.276
778.322
778.368
778.414
778.46
778.507
778.553
778.6
778.647
778.693
778.741
778.788
778.835
778.883
778.931
778.978
779.025
779.073
779.12
779.167
779.213
779.26
779.309
779.359
779.409
779.454
779.496
779.534
779.571
779.607
779.642
779.679
779.718
779.76
779.807
779.858
779.912
779.968
780.024
780.08
780.134
780.187
780.239
780.289
780.339
780.387
780.436
780.483
780.531
780.578
780.626
780.673
780.72
780.767
780.814
780.862
780.908
780.955
781.002
781.049
781.095
781.142
781.188
781.234
781.28
781.326
781.372
781.417
781.463
781.508
781.554
781.599
781.644
781.689
781.734
781.779
781.823
781.868
781.912
781.957
782
782.044
782.089
782.131
782.176
782.217
782.263
782.304
782.348
782.392
782.431
782.478
782.516
782.561
782.602
782.642
782.688
782.723
782.771
782.808
782.849
782.893
782.93
782.971
783.009
774.96
775.001
775.04
775.077
775.111
775.142
775.172
775.202
775.23
775.259
775.287
775.316
775.344
775.373
775.402
775.432
775.461
775.491
775.521
775.551
775.582
775.613
775.643
775.674
775.706
775.738
775.77
775.802
775.835
775.868
775.901
775.934
775.967
776.001
776.034
776.068
776.103
776.137
776.172
776.206
776.241
776.277
776.313
776.349
776.385
776.422
776.459
776.496
776.533
776.57
776.607
776.645
776.683
776.721
776.76
776.798
776.837
776.876
776.915
776.955
776.994
777.034
777.074
777.114
777.154
777.195
777.235
777.276
777.317
777.359
777.4
777.442
777.484
777.526
777.569
777.611
777.654
777.697
777.739
777.782
777.826
777.869
777.912
777.955
777.998
778.041
778.084
778.127
778.171
778.215
778.259
778.302
778.345
778.388
778.431
778.474
778.517
778.561
778.604
778.648
778.691
778.734
778.777
778.818
778.86
778.9
778.942
778.983
779.025
779.069
779.114
779.161
779.208
779.253
779.295
779.332
779.365
779.393
779.419
779.443
779.467
779.495
779.526
779.559
779.595
779.632
779.67
779.711
779.756
779.804
779.857
779.912
779.968
780.026
780.083
780.139
780.193
780.246
780.298
780.348
780.398
780.446
780.494
780.541
780.589
780.635
780.682
780.729
780.775
780.821
780.868
780.914
780.96
781.006
781.052
781.098
781.144
781.19
781.236
781.281
781.327
781.373
781.418
781.464
781.509
781.554
781.599
781.644
781.689
781.734
781.779
781.824
781.868
781.913
781.956
782.001
782.043
782.09
782.13
782.177
782.216
782.265
782.302
782.352
782.387
782.438
782.471
782.523
782.555
782.608
782.638
782.692
782.72
782.775
782.802
782.857
782.884
782.939
782.966
783.024
774.681
774.725
774.751
774.777
774.803
774.83
774.857
774.884
774.912
774.94
774.968
774.996
775.024
775.053
775.082
775.111
775.14
775.17
775.2
775.23
775.26
775.291
775.322
775.353
775.385
775.416
775.448
775.48
775.513
775.545
775.578
775.611
775.645
775.678
775.712
775.746
775.781
775.815
775.85
775.885
775.921
775.956
775.992
776.028
776.064
776.1
776.137
776.174
776.211
776.248
776.286
776.323
776.361
776.399
776.438
776.476
776.515
776.555
776.594
776.634
776.673
776.713
776.753
776.794
776.834
776.875
776.916
776.957
776.998
777.04
777.082
777.124
777.166
777.208
777.25
777.293
777.336
777.379
777.422
777.465
777.509
777.552
777.596
777.64
777.684
777.728
777.772
777.816
777.861
777.906
777.951
777.996
778.041
778.086
778.131
778.177
778.223
778.268
778.314
778.36
778.407
778.453
778.5
778.546
778.593
778.639
778.686
778.733
778.781
778.828
778.875
778.922
778.969
779.018
779.069
779.118
779.166
779.213
779.261
779.31
779.359
779.409
779.465
779.522
779.577
779.627
779.674
779.717
779.753
779.784
779.812
779.844
779.885
779.936
779.995
780.06
780.126
780.191
780.254
780.314
780.371
780.426
780.479
780.531
780.581
780.63
780.678
780.726
780.773
780.82
780.867
780.913
780.96
781.006
781.052
781.098
781.144
781.19
781.236
781.281
781.327
781.373
781.418
781.464
781.509
781.554
781.599
781.644
781.689
781.734
781.779
781.824
781.868
781.913
781.956
782.001
782.043
782.09
782.13
782.178
782.216
782.265
782.302
782.351
782.387
782.437
782.471
782.523
782.555
782.608
782.637
782.692
782.72
782.775
782.802
782.857
782.885
782.937
782.971
783.017
774.917
774.978
775.02
775.058
775.092
775.126
775.158
775.189
775.219
775.249
775.278
775.307
775.336
775.365
775.394
775.424
775.453
775.483
775.513
775.543
775.573
775.604
775.635
775.667
775.698
775.729
775.761
775.793
775.826
775.859
775.892
775.925
775.959
775.993
776.027
776.06
776.094
776.129
776.163
776.198
776.233
776.268
776.304
776.34
776.376
776.412
776.449
776.487
776.524
776.561
776.599
776.636
776.674
776.712
776.75
776.789
776.828
776.867
776.905
776.944
776.983
777.023
777.062
777.102
777.142
777.182
777.222
777.262
777.302
777.343
777.383
777.425
777.466
777.508
777.55
777.593
777.636
777.679
777.722
777.766
777.81
777.853
777.897
777.941
777.984
778.028
778.072
778.116
778.16
778.204
778.248
778.291
778.336
778.38
778.424
778.468
778.511
778.553
778.595
778.636
778.677
778.719
778.76
778.802
778.845
778.888
778.932
778.977
779.021
779.066
779.113
779.16
779.209
779.256
779.302
779.343
779.378
779.409
779.435
779.459
779.481
779.504
779.53
779.56
779.593
779.627
779.663
779.7
779.74
779.785
779.834
779.888
779.946
780.005
780.065
780.124
780.182
780.238