/*--------------------------------*- C++ -*----------------------------------*\
| =========                 |                                                 |
| \\      /  F ield         | OpenFOAM: The Open Source CFD Toolbox           |
|  \\    /   O peration     | Version:  3.0.x                                 |
|   \\  /    A nd           | Web:      www.OpenFOAM.org                      |
|    \\/     M anipulation  |                                                 |
\*---------------------------------------------------------------------------*/
FoamFile
{
    version     2.0;
    format      ascii;
    class       volVectorField;
    location    "0.460075";
    object      U;
}
// * * * * * * * * * * * * * * * * * * * * * * * * * * * * * * * * * * * * * //

dimensions      [0 1 -1 0 0 0 0];

internalField   nonuniform List<vector> 
13800
(
(57.8962 0.000142471 0)
(57.8925 0.000123995 0)
(57.8887 0.000122703 0)
(57.8849 0.000124784 0)
(57.8811 0.000126577 0)
(57.8773 0.000128075 0)
(57.8735 0.000129325 0)
(57.8698 0.000130361 0)
(57.866 0.000131217 0)
(57.8622 0.000131933 0)
(57.8584 0.000132536 0)
(57.8546 0.000133045 0)
(57.8508 0.000133478 0)
(57.8471 0.000133849 0)
(57.8433 0.000134167 0)
(57.8395 0.000134441 0)
(57.8358 0.000134677 0)
(57.832 0.000134881 0)
(57.8282 0.000135063 0)
(57.8245 0.000135215 0)
(57.8207 0.000135349 0)
(57.8169 0.000135466 0)
(57.8132 0.000135569 0)
(57.8094 0.000135656 0)
(57.8057 0.000135733 0)
(57.8019 0.0001358 0)
(57.7982 0.000135858 0)
(57.7944 0.000135908 0)
(57.7906 0.000135951 0)
(57.7869 0.000135987 0)
(57.7831 0.000136021 0)
(57.7794 0.000136046 0)
(57.7756 0.000136068 0)
(57.7719 0.000136085 0)
(57.7681 0.000136102 0)
(57.7644 0.000136112 0)
(57.7606 0.000136121 0)
(57.7568 0.000136127 0)
(57.7531 0.000136131 0)
(57.7493 0.000136135 0)
(57.7455 0.000136134 0)
(57.7417 0.000136131 0)
(57.7379 0.000136118 0)
(57.7341 0.000136157 0)
(57.7303 0.000136109 0)
(57.7265 0.000136121 0)
(57.7226 0.000136118 0)
(57.7188 0.000136114 0)
(57.7149 0.000136102 0)
(57.7111 0.000136087 0)
(57.7072 0.000136121 0)
(57.7033 0.000136118 0)
(57.6993 0.000136092 0)
(57.6954 0.000136092 0)
(57.6914 0.000136089 0)
(57.6874 0.000136085 0)
(57.6834 0.000136079 0)
(57.6793 0.000136077 0)
(57.6752 0.000136064 0)
(57.6711 0.000136077 0)
(57.6669 0.000136067 0)
(57.6627 0.000136059 0)
(57.6584 0.000136053 0)
(57.6541 0.000136047 0)
(57.6497 0.000136042 0)
(57.6453 0.000136007 0)
(57.6407 0.00013606 0)
(57.6362 0.000136041 0)
(57.6315 0.000136015 0)
(57.6267 0.000135984 0)
(57.6219 0.000136101 0)
(57.6169 0.00013596 0)
(57.6119 0.000135983 0)
(57.6067 0.000135971 0)
(57.6014 0.000135947 0)
(57.596 0.000135913 0)
(57.5904 0.000135865 0)
(57.5847 0.0001358 0)
(57.5788 0.000135707 0)
(57.5728 0.000135596 0)
(57.5665 0.000135435 0)
(57.5601 0.000135229 0)
(57.5535 0.000134962 0)
(57.5466 0.00013462 0)
(57.5396 0.000134188 0)
(57.5323 0.000133648 0)
(57.5248 0.000132982 0)
(57.517 0.000132169 0)
(57.5089 0.000131189 0)
(57.5006 0.000130018 0)
(57.4919 0.00012863 0)
(57.483 0.000127006 0)
(57.4738 0.000125129 0)
(57.4643 0.000122982 0)
(57.4544 0.000120546 0)
(57.4442 0.000117813 0)
(57.4336 0.000114777 0)
(57.4227 0.000111438 0)
(57.4115 0.000107801 0)
(57.3998 0.000103879 0)
(57.3878 9.969e-05 0)
(57.3754 9.52583e-05 0)
(57.3625 9.06141e-05 0)
(57.3492 8.57927e-05 0)
(57.3355 8.08335e-05 0)
(57.3214 7.57792e-05 0)
(57.3067 7.06749e-05 0)
(57.2916 6.55663e-05 0)
(57.2759 6.04988e-05 0)
(57.2597 5.55165e-05 0)
(57.243 5.06607e-05 0)
(57.2257 4.59691e-05 0)
(57.2077 4.14753e-05 0)
(57.1892 3.72074e-05 0)
(57.1699 3.31884e-05 0)
(57.15 2.94356e-05 0)
(57.1294 2.59607e-05 0)
(57.108 2.27696e-05 0)
(57.0859 1.98636e-05 0)
(57.063 1.72388e-05 0)
(57.0392 1.48876e-05 0)
(57.0146 1.27989e-05 0)
(56.9892 1.09586e-05 0)
(56.9629 9.35075e-06 0)
(56.9356 7.95784e-06 0)
(56.9075 6.76146e-06 0)
(56.8783 5.74287e-06 0)
(56.8483 4.88348e-06 0)
(56.8172 4.16518e-06 0)
(56.7851 3.57066e-06 0)
(56.752 3.08368e-06 0)
(56.7178 2.68921e-06 0)
(56.6826 2.37353e-06 0)
(56.6463 2.12432e-06 0)
(56.6089 1.93068e-06 0)
(56.5705 1.78303e-06 0)
(56.5309 1.67313e-06 0)
(56.4901 1.59393e-06 0)
(56.4482 1.53953e-06 0)
(56.4052 1.50501e-06 0)
(56.361 1.48631e-06 0)
(56.3156 1.48015e-06 0)
(56.269 1.48384e-06 0)
(56.2213 1.49523e-06 0)
(56.1723 1.51259e-06 0)
(56.122 1.53457e-06 0)
(56.0706 1.56011e-06 0)
(56.0179 1.58838e-06 0)
(55.9639 1.61876e-06 0)
(55.9087 1.65075e-06 0)
(55.8522 1.68397e-06 0)
(55.7944 1.71811e-06 0)
(55.7353 1.75297e-06 0)
(55.6749 1.78837e-06 0)
(55.6132 1.82421e-06 0)
(55.5502 1.86038e-06 0)
(55.4858 1.89682e-06 0)
(55.4201 1.93348e-06 0)
(55.3531 1.97032e-06 0)
(55.2847 2.00732e-06 0)
(55.2149 2.04444e-06 0)
(55.1437 2.08165e-06 0)
(55.0712 2.11892e-06 0)
(54.9972 2.15628e-06 0)
(54.9219 2.19371e-06 0)
(54.8451 2.23121e-06 0)
(54.7669 2.26878e-06 0)
(54.6873 2.30637e-06 0)
(54.6063 2.34404e-06 0)
(54.5238 2.38174e-06 0)
(54.4398 2.41948e-06 0)
(54.3544 2.45723e-06 0)
(54.2675 2.495e-06 0)
(54.1792 2.53279e-06 0)
(54.0894 2.57061e-06 0)
(53.998 2.60845e-06 0)
(53.9052 2.64629e-06 0)
(53.8109 2.6841e-06 0)
(53.715 2.72189e-06 0)
(53.6177 2.75966e-06 0)
(53.5188 2.79744e-06 0)
(53.4183 2.83529e-06 0)
(53.3164 2.87306e-06 0)
(53.2128 2.91105e-06 0)
(53.1077 2.94839e-06 0)
(53.001 2.98662e-06 0)
(52.8928 3.02364e-06 0)
(52.783 3.06138e-06 0)
(52.6716 3.10566e-06 0)
(52.5586 3.14964e-06 0)
(52.444 3.28482e-06 0)
(52.3278 3.68999e-06 0)
(52.21 5.73781e-06 0)
(52.0902 1.54892e-05 0)
(51.9675 6.28693e-05 0)
(51.8367 0.00028897 0)
(51.6744 0.00136169 0)
(51.3679 0.00642251 0)
(50.6864 0.033929 0)
(45.141 0.129846 0)
(57.9001 0.000222425 0)
(57.9003 0.000161888 0)
(57.9004 0.000149595 0)
(57.9005 0.0001475 0)
(57.9006 0.000145703 0)
(57.9007 0.00014429 0)
(57.9008 0.000143212 0)
(57.9009 0.000142351 0)
(57.9011 0.000141632 0)
(57.9012 0.000141031 0)
(57.9013 0.000140525 0)
(57.9014 0.000140092 0)
(57.9015 0.000139721 0)
(57.9016 0.000139402 0)
(57.9017 0.000139125 0)
(57.9019 0.000138885 0)
(57.902 0.000138675 0)
(57.9021 0.000138487 0)
(57.9022 0.000138336 0)
(57.9024 0.000138192 0)
(57.9025 0.000138068 0)
(57.9026 0.00013796 0)
(57.9028 0.000137867 0)
(57.9029 0.00013778 0)
(57.903 0.000137705 0)
(57.9032 0.000137642 0)
(57.9033 0.000137585 0)
(57.9034 0.000137535 0)
(57.9036 0.000137491 0)
(57.9037 0.000137451 0)
(57.9039 0.00013742 0)
(57.904 0.00013739 0)
(57.9041 0.000137363 0)
(57.9043 0.00013734 0)
(57.9044 0.000137325 0)
(57.9045 0.000137305 0)
(57.9046 0.000137291 0)
(57.9048 0.000137278 0)
(57.9049 0.000137268 0)
(57.905 0.000137264 0)
(57.9051 0.000137253 0)
(57.9052 0.000137246 0)
(57.9053 0.000137223 0)
(57.9054 0.000137294 0)
(57.9054 0.000137211 0)
(57.9055 0.000137242 0)
(57.9055 0.000137247 0)
(57.9056 0.00013725 0)
(57.9056 0.000137241 0)
(57.9056 0.000137229 0)
(57.9056 0.000137304 0)
(57.9056 0.000137305 0)
(57.9055 0.000137286 0)
(57.9055 0.000137304 0)
(57.9054 0.000137316 0)
(57.9052 0.000137329 0)
(57.9051 0.000137337 0)
(57.9049 0.000137356 0)
(57.9047 0.000137354 0)
(57.9044 0.0001374 0)
(57.9041 0.0001374 0)
(57.9038 0.000137411 0)
(57.9034 0.000137425 0)
(57.903 0.00013744 0)
(57.9025 0.000137454 0)
(57.9019 0.000137412 0)
(57.9012 0.000137532 0)
(57.9005 0.000137531 0)
(57.8997 0.000137501 0)
(57.8989 0.000137474 0)
(57.8979 0.000137716 0)
(57.8968 0.000137484 0)
(57.8956 0.000137565 0)
(57.8944 0.000137576 0)
(57.8929 0.000137571 0)
(57.8914 0.000137556 0)
(57.8897 0.000137527 0)
(57.8878 0.000137478 0)
(57.8858 0.000137395 0)
(57.8837 0.000137302 0)
(57.8813 0.000137145 0)
(57.8787 0.00013694 0)
(57.876 0.000136669 0)
(57.873 0.000136315 0)
(57.8697 0.000135864 0)
(57.8663 0.000135295 0)
(57.8625 0.000134589 0)
(57.8585 0.000133725 0)
(57.8542 0.00013268 0)
(57.8496 0.000131431 0)
(57.8447 0.000129953 0)
(57.8394 0.000128226 0)
(57.8338 0.00012623 0)
(57.8278 0.00012395 0)
(57.8214 0.000121368 0)
(57.8146 0.000118479 0)
(57.8074 0.000115277 0)
(57.7997 0.000111766 0)
(57.7915 0.000107954 0)
(57.7829 0.000103855 0)
(57.7738 9.94929e-05 0)
(57.7642 9.4894e-05 0)
(57.754 9.0092e-05 0)
(57.7432 8.51254e-05 0)
(57.7319 8.00365e-05 0)
(57.72 7.48704e-05 0)
(57.7074 6.9674e-05 0)
(57.6942 6.44944e-05 0)
(57.6804 5.93779e-05 0)
(57.6659 5.43686e-05 0)
(57.6506 4.95074e-05 0)
(57.6347 4.48309e-05 0)
(57.618 4.03711e-05 0)
(57.6005 3.61544e-05 0)
(57.5823 3.22016e-05 0)
(57.5633 2.85274e-05 0)
(57.5434 2.51409e-05 0)
(57.5227 2.20458e-05 0)
(57.5012 1.92406e-05 0)
(57.4788 1.67192e-05 0)
(57.4555 1.44719e-05 0)
(57.4313 1.24856e-05 0)
(57.4062 1.07447e-05 0)
(57.3802 9.23187e-06 0)
(57.3532 7.92847e-06 0)
(57.3252 6.8153e-06 0)
(57.2962 5.87306e-06 0)
(57.2663 5.08283e-06 0)
(57.2353 4.42637e-06 0)
(57.2033 3.88652e-06 0)
(57.1703 3.44732e-06 0)
(57.1362 3.09424e-06 0)
(57.101 2.81423e-06 0)
(57.0648 2.59571e-06 0)
(57.0275 2.42856e-06 0)
(56.989 2.30402e-06 0)
(56.9494 2.21458e-06 0)
(56.9087 2.15384e-06 0)
(56.8669 2.11639e-06 0)
(56.8239 2.09773e-06 0)
(56.7797 2.09414e-06 0)
(56.7343 2.10252e-06 0)
(56.6878 2.12035e-06 0)
(56.64 2.14559e-06 0)
(56.591 2.17657e-06 0)
(56.5408 2.21199e-06 0)
(56.4894 2.25082e-06 0)
(56.4367 2.29228e-06 0)
(56.3827 2.33577e-06 0)
(56.3275 2.38077e-06 0)
(56.2711 2.42694e-06 0)
(56.2133 2.47397e-06 0)
(56.1542 2.52168e-06 0)
(56.0938 2.56989e-06 0)
(56.0322 2.6185e-06 0)
(55.9692 2.66741e-06 0)
(55.9048 2.71656e-06 0)
(55.8391 2.76592e-06 0)
(55.7721 2.81544e-06 0)
(55.7037 2.86511e-06 0)
(55.6339 2.91486e-06 0)
(55.5628 2.96469e-06 0)
(55.4903 3.01455e-06 0)
(55.4163 3.06447e-06 0)
(55.341 3.11444e-06 0)
(55.2643 3.16449e-06 0)
(55.1861 3.21456e-06 0)
(55.1065 3.26465e-06 0)
(55.0255 3.31481e-06 0)
(54.9431 3.36497e-06 0)
(54.8591 3.41516e-06 0)
(54.7738 3.46535e-06 0)
(54.6869 3.51553e-06 0)
(54.5986 3.56573e-06 0)
(54.5088 3.61594e-06 0)
(54.4175 3.66618e-06 0)
(54.3247 3.7164e-06 0)
(54.2304 3.76658e-06 0)
(54.1346 3.8167e-06 0)
(54.0373 3.86681e-06 0)
(53.9384 3.91692e-06 0)
(53.838 3.96711e-06 0)
(53.736 4.0173e-06 0)
(53.6325 4.06758e-06 0)
(53.5274 4.11733e-06 0)
(53.4208 4.16752e-06 0)
(53.3126 4.21886e-06 0)
(53.2028 4.26485e-06 0)
(53.0915 4.34786e-06 0)
(52.9785 4.41859e-06 0)
(52.864 4.85309e-06 0)
(52.7478 6.27996e-06 0)
(52.63 1.34856e-05 0)
(52.5102 4.69891e-05 0)
(52.3875 0.000208544 0)
(52.2569 0.000978406 0)
(52.0947 0.00463122 0)
(51.7888 0.021833 0)
(51.1053 0.112499 0)
(45.8565 0.406727 0)
(57.9001 0.000163203 0)
(57.9003 0.000113254 0)
(57.9004 0.000107488 0)
(57.9005 0.000110526 0)
(57.9006 0.000111544 0)
(57.9007 0.000112023 0)
(57.9008 0.000112414 0)
(57.9009 0.000112743 0)
(57.9011 0.000113004 0)
(57.9012 0.000113228 0)
(57.9013 0.000113418 0)
(57.9014 0.000113582 0)
(57.9015 0.000113725 0)
(57.9016 0.000113851 0)
(57.9018 0.000113962 0)
(57.9019 0.00011406 0)
(57.902 0.00011415 0)
(57.9022 0.000114219 0)
(57.9023 0.0001143 0)
(57.9024 0.000114359 0)
(57.9026 0.000114416 0)
(57.9027 0.000114468 0)
(57.9028 0.000114518 0)
(57.903 0.000114557 0)
(57.9031 0.000114595 0)
(57.9033 0.000114633 0)
(57.9034 0.000114666 0)
(57.9035 0.000114696 0)
(57.9037 0.000114725 0)
(57.9038 0.000114749 0)
(57.904 0.000114773 0)
(57.9041 0.000114795 0)
(57.9043 0.000114814 0)
(57.9044 0.000114833 0)
(57.9045 0.000114857 0)
(57.9047 0.00011487 0)
(57.9048 0.000114885 0)
(57.9049 0.0001149 0)
(57.9051 0.000114913 0)
(57.9052 0.000114931 0)
(57.9053 0.00011494 0)
(57.9054 0.000114951 0)
(57.9055 0.000114949 0)
(57.9056 0.000115013 0)
(57.9057 0.000114966 0)
(57.9058 0.000115001 0)
(57.9058 0.000115014 0)
(57.9059 0.000115027 0)
(57.9059 0.000115027 0)
(57.9059 0.000115028 0)
(57.9059 0.000115094 0)
(57.9059 0.000115094 0)
(57.9059 0.000115094 0)
(57.9058 0.000115114 0)
(57.9057 0.000115128 0)
(57.9056 0.000115142 0)
(57.9055 0.000115154 0)
(57.9053 0.000115174 0)
(57.9051 0.000115176 0)
(57.9049 0.000115217 0)
(57.9046 0.000115218 0)
(57.9043 0.000115231 0)
(57.9039 0.000115247 0)
(57.9035 0.000115263 0)
(57.903 0.000115276 0)
(57.9024 0.000115241 0)
(57.9018 0.00011534 0)
(57.9011 0.000115355 0)
(57.9004 0.00011532 0)
(57.8995 0.000115303 0)
(57.8985 0.000115505 0)
(57.8975 0.000115311 0)
(57.8963 0.000115386 0)
(57.895 0.000115393 0)
(57.8936 0.000115388 0)
(57.8921 0.000115375 0)
(57.8904 0.00011535 0)
(57.8886 0.000115308 0)
(57.8866 0.000115233 0)
(57.8845 0.000115154 0)
(57.8821 0.000115016 0)
(57.8796 0.000114837 0)
(57.8768 0.000114599 0)
(57.8738 0.000114292 0)
(57.8706 0.000113899 0)
(57.8672 0.000113406 0)
(57.8635 0.000112794 0)
(57.8595 0.000112044 0)
(57.8552 0.000111137 0)
(57.8506 0.000110056 0)
(57.8457 0.000108781 0)
(57.8404 0.000107294 0)
(57.8348 0.000105576 0)
(57.8288 0.000103615 0)
(57.8224 0.000101399 0)
(57.8156 9.89228e-05 0)
(57.8084 9.61835e-05 0)
(57.8007 9.31841e-05 0)
(57.7926 8.9933e-05 0)
(57.7839 8.6444e-05 0)
(57.7748 8.27361e-05 0)
(57.7652 7.8834e-05 0)
(57.7549 7.47667e-05 0)
(57.7442 7.05674e-05 0)
(57.7328 6.62722e-05 0)
(57.7209 6.19197e-05 0)
(57.7083 5.75495e-05 0)
(57.6951 5.32013e-05 0)
(57.6812 4.89138e-05 0)
(57.6666 4.47238e-05 0)
(57.6514 4.06651e-05 0)
(57.6354 3.67677e-05 0)
(57.6187 3.30576e-05 0)
(57.6012 2.9556e-05 0)
(57.5829 2.62793e-05 0)
(57.5639 2.32388e-05 0)
(57.544 2.04413e-05 0)
(57.5233 1.78886e-05 0)
(57.5018 1.55786e-05 0)
(57.4794 1.35055e-05 0)
(57.4561 1.16603e-05 0)
(57.4319 1.00313e-05 0)
(57.4067 8.60497e-06 0)
(57.3807 7.36642e-06 0)
(57.3537 6.2998e-06 0)
(57.3257 5.38892e-06 0)
(57.2967 4.61764e-06 0)
(57.2668 3.9703e-06 0)
(57.2358 3.43196e-06 0)
(57.2038 2.98864e-06 0)
(57.1708 2.62745e-06 0)
(57.1367 2.33666e-06 0)
(57.1015 2.10574e-06 0)
(57.0653 1.92527e-06 0)
(57.0279 1.78696e-06 0)
(56.9895 1.68358e-06 0)
(56.9499 1.60885e-06 0)
(56.9092 1.55744e-06 0)
(56.8673 1.52482e-06 0)
(56.8243 1.50725e-06 0)
(56.7801 1.50165e-06 0)
(56.7348 1.50549e-06 0)
(56.6882 1.51672e-06 0)
(56.6404 1.53369e-06 0)
(56.5915 1.55509e-06 0)
(56.5413 1.57989e-06 0)
(56.4898 1.60729e-06 0)
(56.4371 1.63668e-06 0)
(56.3832 1.66759e-06 0)
(56.328 1.69965e-06 0)
(56.2715 1.73257e-06 0)
(56.2137 1.76614e-06 0)
(56.1547 1.8002e-06 0)
(56.0943 1.83464e-06 0)
(56.0326 1.86937e-06 0)
(55.9696 1.90432e-06 0)
(55.9053 1.93944e-06 0)
(55.8396 1.97472e-06 0)
(55.7725 2.0101e-06 0)
(55.7042 2.04558e-06 0)
(55.6344 2.08113e-06 0)
(55.5632 2.11672e-06 0)
(55.4907 2.15234e-06 0)
(55.4168 2.18799e-06 0)
(55.3415 2.22367e-06 0)
(55.2647 2.25938e-06 0)
(55.1866 2.29513e-06 0)
(55.107 2.33087e-06 0)
(55.026 2.36665e-06 0)
(54.9435 2.40244e-06 0)
(54.8596 2.43823e-06 0)
(54.7742 2.47402e-06 0)
(54.6874 2.50977e-06 0)
(54.5991 2.54555e-06 0)
(54.5093 2.58129e-06 0)
(54.418 2.61708e-06 0)
(54.3252 2.65282e-06 0)
(54.2309 2.68852e-06 0)
(54.135 2.72419e-06 0)
(54.0377 2.7598e-06 0)
(53.9388 2.79549e-06 0)
(53.8384 2.83094e-06 0)
(53.7365 2.86703e-06 0)
(53.633 2.9019e-06 0)
(53.5279 2.93879e-06 0)
(53.4213 2.97123e-06 0)
(53.3131 3.01575e-06 0)
(53.2033 3.03419e-06 0)
(53.0919 3.14577e-06 0)
(52.979 3.20463e-06 0)
(52.8644 3.99468e-06 0)
(52.7482 6.69745e-06 0)
(52.6304 2.08964e-05 0)
(52.5107 8.72666e-05 0)
(52.3881 0.000407434 0)
(52.2576 0.00193338 0)
(52.0966 0.00918015 0)
(51.7965 0.043301 0)
(51.1351 0.221876 0)
(46.1794 0.786613 0)
(57.9001 0.000118902 0)
(57.9002 0.000103115 0)
(57.9004 0.000100129 0)
(57.9005 0.000104074 0)
(57.9006 0.000106153 0)
(57.9007 0.000107397 0)
(57.9008 0.000108425 0)
(57.9009 0.000109304 0)
(57.901 0.000110028 0)
(57.9011 0.000110642 0)
(57.9013 0.00011116 0)
(57.9014 0.000111603 0)
(57.9015 0.000111983 0)
(57.9016 0.000112311 0)
(57.9017 0.000112595 0)
(57.9019 0.000112843 0)
(57.902 0.000113062 0)
(57.9021 0.000113242 0)
(57.9023 0.000113416 0)
(57.9024 0.000113562 0)
(57.9025 0.000113691 0)
(57.9027 0.000113807 0)
(57.9028 0.000113912 0)
(57.9029 0.000113999 0)
(57.9031 0.000114079 0)
(57.9032 0.000114153 0)
(57.9034 0.000114219 0)
(57.9035 0.000114277 0)
(57.9037 0.00011433 0)
(57.9038 0.000114378 0)
(57.9039 0.000114415 0)
(57.9041 0.000114455 0)
(57.9042 0.000114488 0)
(57.9044 0.000114517 0)
(57.9045 0.000114553 0)
(57.9046 0.000114574 0)
(57.9048 0.000114596 0)
(57.9049 0.000114616 0)
(57.905 0.000114635 0)
(57.9051 0.000114654 0)
(57.9053 0.000114667 0)
(57.9054 0.000114681 0)
(57.9055 0.000114687 0)
(57.9056 0.000114721 0)
(57.9056 0.000114715 0)
(57.9057 0.000114734 0)
(57.9058 0.000114746 0)
(57.9058 0.000114758 0)
(57.9059 0.000114761 0)
(57.9059 0.000114768 0)
(57.9059 0.000114813 0)
(57.9059 0.000114817 0)
(57.9058 0.000114821 0)
(57.9058 0.000114836 0)
(57.9057 0.000114848 0)
(57.9056 0.00011486 0)
(57.9055 0.000114872 0)
(57.9053 0.000114886 0)
(57.9051 0.000114891 0)
(57.9049 0.000114918 0)
(57.9046 0.000114923 0)
(57.9043 0.000114933 0)
(57.9039 0.000114946 0)
(57.9034 0.000114957 0)
(57.903 0.000114967 0)
(57.9024 0.000114946 0)
(57.9018 0.000115008 0)
(57.9011 0.000115035 0)
(57.9003 0.000115005 0)
(57.8995 0.000115 0)
(57.8985 0.000115125 0)
(57.8974 0.000115008 0)
(57.8963 0.000115053 0)
(57.895 0.000115058 0)
(57.8936 0.000115053 0)
(57.8921 0.00011504 0)
(57.8904 0.000115017 0)
(57.8886 0.000114979 0)
(57.8866 0.000114911 0)
(57.8844 0.000114837 0)
(57.8821 0.000114714 0)
(57.8795 0.000114552 0)
(57.8768 0.000114339 0)
(57.8738 0.000114061 0)
(57.8706 0.000113706 0)
(57.8672 0.000113259 0)
(57.8634 0.000112703 0)
(57.8594 0.00011202 0)
(57.8552 0.000111193 0)
(57.8506 0.000110203 0)
(57.8456 0.000109029 0)
(57.8404 0.000107656 0)
(57.8348 0.000106064 0)
(57.8288 0.000104239 0)
(57.8224 0.00010217 0)
(57.8156 9.9848e-05 0)
(57.8084 9.7268e-05 0)
(57.8007 9.44303e-05 0)
(57.7925 9.13404e-05 0)
(57.7839 8.80086e-05 0)
(57.7748 8.44509e-05 0)
(57.7651 8.06884e-05 0)
(57.7549 7.67468e-05 0)
(57.7442 7.26564e-05 0)
(57.7328 6.84509e-05 0)
(57.7209 6.41666e-05 0)
(57.7083 5.98418e-05 0)
(57.6951 5.55152e-05 0)
(57.6812 5.12253e-05 0)
(57.6666 4.70094e-05 0)
(57.6514 4.29023e-05 0)
(57.6354 3.89359e-05 0)
(57.6187 3.5138e-05 0)
(57.6012 3.15326e-05 0)
(57.5829 2.81387e-05 0)
(57.5639 2.49706e-05 0)
(57.544 2.2038e-05 0)
(57.5233 1.93458e-05 0)
(57.5018 1.68946e-05 0)
(57.4794 1.4681e-05 0)
(57.4561 1.26984e-05 0)
(57.4318 1.09371e-05 0)
(57.4067 9.38528e-06 0)
(57.3807 8.02918e-06 0)
(57.3537 6.85398e-06 0)
(57.3257 5.84413e-06 0)
(57.2967 4.98388e-06 0)
(57.2668 4.25762e-06 0)
(57.2358 3.65024e-06 0)
(57.2038 3.14732e-06 0)
(57.1708 2.73534e-06 0)
(57.1367 2.40174e-06 0)
(57.1015 2.13502e-06 0)
(57.0653 1.9248e-06 0)
(57.0279 1.76185e-06 0)
(56.9895 1.63804e-06 0)
(56.9499 1.54639e-06 0)
(56.9092 1.48091e-06 0)
(56.8673 1.4366e-06 0)
(56.8243 1.40925e-06 0)
(56.7801 1.39546e-06 0)
(56.7348 1.3924e-06 0)
(56.6882 1.39779e-06 0)
(56.6404 1.4098e-06 0)
(56.5915 1.42698e-06 0)
(56.5413 1.44814e-06 0)
(56.4898 1.47238e-06 0)
(56.4371 1.49903e-06 0)
(56.3832 1.52754e-06 0)
(56.328 1.55746e-06 0)
(56.2715 1.58847e-06 0)
(56.2137 1.62034e-06 0)
(56.1547 1.65288e-06 0)
(56.0943 1.68595e-06 0)
(56.0326 1.71944e-06 0)
(55.9696 1.75327e-06 0)
(55.9053 1.78738e-06 0)
(55.8396 1.82176e-06 0)
(55.7725 1.85633e-06 0)
(55.7042 1.8911e-06 0)
(55.6344 1.92603e-06 0)
(55.5632 1.96112e-06 0)
(55.4907 1.99631e-06 0)
(55.4168 2.03162e-06 0)
(55.3415 2.06706e-06 0)
(55.2647 2.10264e-06 0)
(55.1866 2.13834e-06 0)
(55.107 2.1741e-06 0)
(55.026 2.20999e-06 0)
(54.9435 2.246e-06 0)
(54.8596 2.28207e-06 0)
(54.7742 2.31828e-06 0)
(54.6874 2.35449e-06 0)
(54.5991 2.39083e-06 0)
(54.5093 2.42724e-06 0)
(54.418 2.46377e-06 0)
(54.3252 2.50038e-06 0)
(54.2309 2.53703e-06 0)
(54.135 2.57362e-06 0)
(54.0377 2.61041e-06 0)
(53.9388 2.64713e-06 0)
(53.8384 2.68415e-06 0)
(53.7365 2.72087e-06 0)
(53.633 2.75886e-06 0)
(53.5279 2.79444e-06 0)
(53.4213 2.83256e-06 0)
(53.3131 2.88061e-06 0)
(53.2033 2.88966e-06 0)
(53.0919 3.11524e-06 0)
(52.979 3.2049e-06 0)
(52.8644 5.1826e-06 0)
(52.7482 1.18794e-05 0)
(52.6304 4.7667e-05 0)
(52.5107 0.000215519 0)
(52.3883 0.00102575 0)
(52.2587 0.00488544 0)
(52.1019 0.0231492 0)
(51.8241 0.107768 0)
(51.235 0.505119 0)
(47.4642 1.76689 0)
(57.9001 3.56554e-05 0)
(57.9002 2.77476e-05 0)
(57.9003 1.95153e-05 0)
(57.9004 1.62381e-05 0)
(57.9006 1.36978e-05 0)
(57.9007 1.15418e-05 0)
(57.9008 9.84042e-06 0)
(57.9009 8.48163e-06 0)
(57.901 7.35724e-06 0)
(57.9011 6.41976e-06 0)
(57.9012 5.62655e-06 0)
(57.9013 4.95113e-06 0)
(57.9015 4.37133e-06 0)
(57.9016 3.87092e-06 0)
(57.9017 3.43697e-06 0)
(57.9018 3.05918e-06 0)
(57.902 2.73049e-06 0)
(57.9021 2.43687e-06 0)
(57.9022 2.18406e-06 0)
(57.9024 1.96039e-06 0)
(57.9025 1.76211e-06 0)
(57.9026 1.58726e-06 0)
(57.9028 1.43336e-06 0)
(57.9029 1.29433e-06 0)
(57.9031 1.17137e-06 0)
(57.9032 1.06406e-06 0)
(57.9033 9.6796e-07 0)
(57.9035 8.82469e-07 0)
(57.9036 8.06732e-07 0)
(57.9038 7.40601e-07 0)
(57.9039 6.76431e-07 0)
(57.9041 6.24516e-07 0)
(57.9042 5.76145e-07 0)
(57.9043 5.33512e-07 0)
(57.9045 5.00178e-07 0)
(57.9046 4.65203e-07 0)
(57.9047 4.352e-07 0)
(57.9049 4.09192e-07 0)
(57.905 3.86344e-07 0)
(57.9051 3.66971e-07 0)
(57.9052 3.48409e-07 0)
(57.9053 3.32647e-07 0)
(57.9054 3.17411e-07 0)
(57.9055 3.05607e-07 0)
(57.9056 2.98664e-07 0)
(57.9057 2.87403e-07 0)
(57.9058 2.79555e-07 0)
(57.9058 2.72486e-07 0)
(57.9058 2.63847e-07 0)
(57.9059 2.58129e-07 0)
(57.9059 2.62197e-07 0)
(57.9059 2.55888e-07 0)
(57.9058 2.5016e-07 0)
(57.9058 2.49117e-07 0)
(57.9057 2.47253e-07 0)
(57.9056 2.46103e-07 0)
(57.9054 2.4524e-07 0)
(57.9053 2.45191e-07 0)
(57.9051 2.43874e-07 0)
(57.9048 2.47165e-07 0)
(57.9046 2.46136e-07 0)
(57.9042 2.46502e-07 0)
(57.9039 2.4775e-07 0)
(57.9034 2.49077e-07 0)
(57.9029 2.49698e-07 0)
(57.9024 2.40698e-07 0)
(57.9018 2.55574e-07 0)
(57.9011 2.67867e-07 0)
(57.9003 2.53545e-07 0)
(57.8994 2.52677e-07 0)
(57.8985 2.8499e-07 0)
(57.8974 2.5273e-07 0)
(57.8963 2.64896e-07 0)
(57.895 2.67529e-07 0)
(57.8936 2.6826e-07 0)
(57.8921 2.68851e-07 0)
(57.8904 2.68739e-07 0)
(57.8886 2.68312e-07 0)
(57.8866 2.62158e-07 0)
(57.8844 2.61777e-07 0)
(57.8821 2.54042e-07 0)
(57.8795 2.4408e-07 0)
(57.8768 2.30999e-07 0)
(57.8738 2.13806e-07 0)
(57.8706 1.91858e-07 0)
(57.8671 1.64558e-07 0)
(57.8634 1.31167e-07 0)
(57.8594 9.08424e-08 0)
(57.8551 4.31274e-08 0)
(57.8505 -1.21077e-08 0)
(57.8456 -7.54065e-08 0)
(57.8404 -1.45281e-07 0)
(57.8347 -2.23722e-07 0)
(57.8287 -3.09523e-07 0)
(57.8224 -4.01886e-07 0)
(57.8156 -4.99518e-07 0)
(57.8083 -6.01103e-07 0)
(57.8007 -7.0492e-07 0)
(57.7925 -8.09055e-07 0)
(57.7839 -9.11444e-07 0)
(57.7748 -1.0099e-06 0)
(57.7651 -1.10219e-06 0)
(57.7549 -1.1862e-06 0)
(57.7441 -1.25992e-06 0)
(57.7328 -1.32161e-06 0)
(57.7208 -1.36982e-06 0)
(57.7083 -1.40345e-06 0)
(57.6951 -1.42181e-06 0)
(57.6812 -1.42462e-06 0)
(57.6666 -1.41207e-06 0)
(57.6514 -1.38473e-06 0)
(57.6354 -1.34358e-06 0)
(57.6187 -1.28988e-06 0)
(57.6012 -1.22517e-06 0)
(57.5829 -1.1512e-06 0)
(57.5639 -1.06982e-06 0)
(57.544 -9.82922e-07 0)
(57.5233 -8.92398e-07 0)
(57.5018 -8.0004e-07 0)
(57.4794 -7.07514e-07 0)
(57.4561 -6.16306e-07 0)
(57.4318 -5.27703e-07 0)
(57.4067 -4.42769e-07 0)
(57.3807 -3.62345e-07 0)
(57.3537 -2.87057e-07 0)
(57.3257 -2.17323e-07 0)
(57.2967 -1.53384e-07 0)
(57.2668 -9.53241e-08 0)
(57.2358 -4.31062e-08 0)
(57.2038 3.40542e-09 0)
(57.1708 4.44167e-08 0)
(57.1367 8.01964e-08 0)
(57.1015 1.11085e-07 0)
(57.0653 1.3749e-07 0)
(57.0279 1.59898e-07 0)
(56.9895 1.78859e-07 0)
(56.9499 1.94918e-07 0)
(56.9092 2.08628e-07 0)
(56.8673 2.20464e-07 0)
(56.8243 2.30832e-07 0)
(56.7801 2.40065e-07 0)
(56.7348 2.48455e-07 0)
(56.6882 2.5613e-07 0)
(56.6404 2.63288e-07 0)
(56.5915 2.70053e-07 0)
(56.5413 2.76458e-07 0)
(56.4898 2.82568e-07 0)
(56.4371 2.88481e-07 0)
(56.3832 2.94222e-07 0)
(56.328 2.99777e-07 0)
(56.2715 3.05169e-07 0)
(56.2137 3.10439e-07 0)
(56.1547 3.15621e-07 0)
(56.0943 3.20708e-07 0)
(56.0326 3.25674e-07 0)
(55.9696 3.3055e-07 0)
(55.9053 3.3535e-07 0)
(55.8396 3.40077e-07 0)
(55.7725 3.44692e-07 0)
(55.7042 3.49206e-07 0)
(55.6344 3.53665e-07 0)
(55.5632 3.5806e-07 0)
(55.4907 3.6238e-07 0)
(55.4168 3.66581e-07 0)
(55.3415 3.70717e-07 0)
(55.2647 3.74742e-07 0)
(55.1866 3.78745e-07 0)
(55.107 3.82594e-07 0)
(55.026 3.86427e-07 0)
(54.9435 3.90155e-07 0)
(54.8596 3.93806e-07 0)
(54.7742 3.97382e-07 0)
(54.6874 4.00832e-07 0)
(54.5991 4.04187e-07 0)
(54.5093 4.07491e-07 0)
(54.418 4.10699e-07 0)
(54.3252 4.13888e-07 0)
(54.2309 4.16904e-07 0)
(54.135 4.19957e-07 0)
(54.0377 4.22543e-07 0)
(53.9388 4.26267e-07 0)
(53.8384 4.26771e-07 0)
(53.7365 4.34116e-07 0)
(53.633 4.26746e-07 0)
(53.5279 4.51344e-07 0)
(53.4213 4.05257e-07 0)
(53.3131 5.22292e-07 0)
(53.2033 3.08548e-07 0)
(53.0919 8.75317e-07 0)
(52.979 6.11858e-07 0)
(52.8644 4.25371e-06 0)
(52.7482 1.48916e-05 0)
(52.6305 7.49605e-05 0)
(52.511 0.000352847 0)
(52.3894 0.00170183 0)
(52.2641 0.0081348 0)
(52.1265 0.0386968 0)
(51.935 0.180635 0)
(51.6053 0.820747 0)
(49.2309 2.85706 0)
(57.9001 -3.56554e-05 0)
(57.9002 -2.77475e-05 0)
(57.9003 -1.95153e-05 0)
(57.9004 -1.62381e-05 0)
(57.9006 -1.36978e-05 0)
(57.9007 -1.15418e-05 0)
(57.9008 -9.84042e-06 0)
(57.9009 -8.48163e-06 0)
(57.901 -7.35724e-06 0)
(57.9011 -6.41976e-06 0)
(57.9012 -5.62655e-06 0)
(57.9013 -4.95113e-06 0)
(57.9015 -4.37133e-06 0)
(57.9016 -3.87092e-06 0)
(57.9017 -3.43697e-06 0)
(57.9018 -3.05918e-06 0)
(57.902 -2.73049e-06 0)
(57.9021 -2.43687e-06 0)
(57.9022 -2.18406e-06 0)
(57.9024 -1.96039e-06 0)
(57.9025 -1.76211e-06 0)
(57.9026 -1.58726e-06 0)
(57.9028 -1.43336e-06 0)
(57.9029 -1.29432e-06 0)
(57.9031 -1.17137e-06 0)
(57.9032 -1.06406e-06 0)
(57.9033 -9.67959e-07 0)
(57.9035 -8.82469e-07 0)
(57.9036 -8.06733e-07 0)
(57.9038 -7.40603e-07 0)
(57.9039 -6.7643e-07 0)
(57.9041 -6.24515e-07 0)
(57.9042 -5.76144e-07 0)
(57.9043 -5.33512e-07 0)
(57.9045 -5.00176e-07 0)
(57.9046 -4.65203e-07 0)
(57.9047 -4.352e-07 0)
(57.9049 -4.09193e-07 0)
(57.905 -3.86344e-07 0)
(57.9051 -3.6697e-07 0)
(57.9052 -3.48409e-07 0)
(57.9053 -3.32648e-07 0)
(57.9054 -3.17411e-07 0)
(57.9055 -3.05607e-07 0)
(57.9056 -2.98665e-07 0)
(57.9057 -2.87404e-07 0)
(57.9058 -2.79557e-07 0)
(57.9058 -2.72486e-07 0)
(57.9058 -2.63847e-07 0)
(57.9059 -2.58128e-07 0)
(57.9059 -2.62198e-07 0)
(57.9059 -2.55888e-07 0)
(57.9058 -2.50159e-07 0)
(57.9058 -2.49117e-07 0)
(57.9057 -2.47251e-07 0)
(57.9056 -2.46103e-07 0)
(57.9054 -2.4524e-07 0)
(57.9053 -2.45191e-07 0)
(57.9051 -2.43875e-07 0)
(57.9048 -2.47165e-07 0)
(57.9046 -2.46138e-07 0)
(57.9042 -2.46503e-07 0)
(57.9039 -2.47751e-07 0)
(57.9034 -2.49077e-07 0)
(57.9029 -2.49698e-07 0)
(57.9024 -2.40698e-07 0)
(57.9018 -2.55573e-07 0)
(57.9011 -2.67867e-07 0)
(57.9003 -2.53546e-07 0)
(57.8994 -2.52678e-07 0)
(57.8985 -2.8499e-07 0)
(57.8974 -2.52731e-07 0)
(57.8963 -2.64896e-07 0)
(57.895 -2.67529e-07 0)
(57.8936 -2.68261e-07 0)
(57.8921 -2.6885e-07 0)
(57.8904 -2.6874e-07 0)
(57.8886 -2.68311e-07 0)
(57.8866 -2.62159e-07 0)
(57.8844 -2.61779e-07 0)
(57.8821 -2.54042e-07 0)
(57.8795 -2.44079e-07 0)
(57.8768 -2.30998e-07 0)
(57.8738 -2.13803e-07 0)
(57.8706 -1.91856e-07 0)
(57.8671 -1.64557e-07 0)
(57.8634 -1.31166e-07 0)
(57.8594 -9.08433e-08 0)
(57.8551 -4.31277e-08 0)
(57.8505 1.21072e-08 0)
(57.8456 7.54059e-08 0)
(57.8404 1.45281e-07 0)
(57.8347 2.23721e-07 0)
(57.8287 3.09523e-07 0)
(57.8224 4.01886e-07 0)
(57.8156 4.99518e-07 0)
(57.8083 6.01102e-07 0)
(57.8007 7.04919e-07 0)
(57.7925 8.09055e-07 0)
(57.7839 9.11444e-07 0)
(57.7748 1.00989e-06 0)
(57.7651 1.10219e-06 0)
(57.7549 1.1862e-06 0)
(57.7441 1.25992e-06 0)
(57.7328 1.32161e-06 0)
(57.7208 1.36982e-06 0)
(57.7083 1.40345e-06 0)
(57.6951 1.42181e-06 0)
(57.6812 1.42463e-06 0)
(57.6666 1.41207e-06 0)
(57.6514 1.38473e-06 0)
(57.6354 1.34357e-06 0)
(57.6187 1.28988e-06 0)
(57.6012 1.22518e-06 0)
(57.5829 1.1512e-06 0)
(57.5639 1.06982e-06 0)
(57.544 9.82923e-07 0)
(57.5233 8.92397e-07 0)
(57.5018 8.00042e-07 0)
(57.4794 7.07514e-07 0)
(57.4561 6.16305e-07 0)
(57.4318 5.27701e-07 0)
(57.4067 4.42768e-07 0)
(57.3807 3.62344e-07 0)
(57.3537 2.87057e-07 0)
(57.3257 2.17323e-07 0)
(57.2967 1.53384e-07 0)
(57.2668 9.53248e-08 0)
(57.2358 4.31052e-08 0)
(57.2038 -3.40675e-09 0)
(57.1708 -4.44182e-08 0)
(57.1367 -8.01976e-08 0)
(57.1015 -1.11084e-07 0)
(57.0653 -1.37492e-07 0)
(57.0279 -1.59902e-07 0)
(56.9895 -1.78857e-07 0)
(56.9499 -1.94922e-07 0)
(56.9092 -2.08628e-07 0)
(56.8673 -2.20459e-07 0)
(56.8243 -2.30836e-07 0)
(56.7801 -2.40084e-07 0)
(56.7348 -2.48425e-07 0)
(56.6882 -2.56136e-07 0)
(56.6404 -2.63313e-07 0)
(56.5915 -2.70037e-07 0)
(56.5413 -2.76441e-07 0)
(56.4898 -2.82596e-07 0)
(56.4371 -2.88499e-07 0)
(56.3832 -2.94188e-07 0)
(56.328 -2.99737e-07 0)
(56.2715 -3.05178e-07 0)
(56.2137 -3.10487e-07 0)
(56.1547 -3.15656e-07 0)
(56.0943 -3.20701e-07 0)
(56.0326 -3.25659e-07 0)
(55.9696 -3.30529e-07 0)
(55.9053 -3.3531e-07 0)
(55.8396 -3.40031e-07 0)
(55.7725 -3.44685e-07 0)
(55.7042 -3.49264e-07 0)
(55.6344 -3.53728e-07 0)
(55.5632 -3.58079e-07 0)
(55.4907 -3.62358e-07 0)
(55.4168 -3.66572e-07 0)
(55.3415 -3.70709e-07 0)
(55.2647 -3.74779e-07 0)
(55.1866 -3.78737e-07 0)
(55.107 -3.82627e-07 0)
(55.026 -3.86411e-07 0)
(54.9435 -3.90157e-07 0)
(54.8596 -3.93742e-07 0)
(54.7742 -3.97319e-07 0)
(54.6874 -4.0077e-07 0)
(54.5991 -4.04215e-07 0)
(54.5093 -4.07496e-07 0)
(54.418 -4.10766e-07 0)
(54.3252 -4.13869e-07 0)
(54.2309 -4.17056e-07 0)
(54.135 -4.19673e-07 0)
(54.0377 -4.23319e-07 0)
(53.9388 -4.24167e-07 0)
(53.8384 -4.31464e-07 0)
(53.7365 -4.24357e-07 0)
(53.633 -4.47017e-07 0)
(53.5279 -4.09379e-07 0)
(53.4213 -4.89381e-07 0)
(53.3131 -3.28808e-07 0)
(53.2033 -6.28136e-07 0)
(53.0919 1.05003e-07 0)
(52.979 -4.89713e-07 0)
(52.8644 3.89204e-06 0)
(52.7483 1.34506e-05 0)
(52.6305 7.51043e-05 0)
(52.5113 0.000352212 0)
(52.3908 0.0017136 0)
(52.2707 0.00825963 0)
(52.1578 0.0399795 0)
(52.0795 0.192902 0)
(52.12 0.934879 0)
(52.6271 3.21177 0)
(57.9001 -0.000118902 0)
(57.9002 -0.000103115 0)
(57.9004 -0.000100129 0)
(57.9005 -0.000104074 0)
(57.9006 -0.000106153 0)
(57.9007 -0.000107397 0)
(57.9008 -0.000108425 0)
(57.9009 -0.000109304 0)
(57.901 -0.000110028 0)
(57.9011 -0.000110642 0)
(57.9013 -0.00011116 0)
(57.9014 -0.000111603 0)
(57.9015 -0.000111983 0)
(57.9016 -0.000112311 0)
(57.9017 -0.000112595 0)
(57.9019 -0.000112843 0)
(57.902 -0.000113062 0)