/*--------------------------------*- C++ -*----------------------------------*\
| =========                 |                                                 |
| \\      /  F ield         | OpenFOAM: The Open Source CFD Toolbox           |
|  \\    /   O peration     | Version:  3.0.x                                 |
|   \\  /    A nd           | Web:      www.OpenFOAM.org                      |
|    \\/     M anipulation  |                                                 |
\*---------------------------------------------------------------------------*/
FoamFile
{
    version     2.0;
    format      ascii;
    class       surfaceScalarField;
    location    "0.25995";
    object      phi;
}
// * * * * * * * * * * * * * * * * * * * * * * * * * * * * * * * * * * * * * //

dimensions      [1 0 -1 0 0 0 0];

internalField   nonuniform List<scalar> 
26210
(
6.9931
0.000504354
6.99293
0.000349131
6.99281
0.000339432
6.99269
0.00034233
6.99255
0.000342706
6.99238
0.000342658
6.99219
0.000342682
6.99196
0.000342689
6.99168
0.000342668
6.99137
0.000342634
6.991
0.00034259
6.99058
0.000342536
6.9901
0.000342476
6.98957
0.000342456
6.98897
0.000342342
6.98831
0.000342249
6.98757
0.000342221
6.98677
0.000342161
6.9859
0.000342107
6.98498
0.000342062
6.984
0.000342026
6.98298
0.000342004
6.98193
0.000341992
6.98084
0.00034199
6.97972
0.000341998
6.97856
0.000342011
6.97736
0.00034203
6.97614
0.00034205
6.9749
0.000342072
6.97366
0.000342095
6.97241
0.000342118
6.97117
0.000342144
6.96994
0.000342173
6.96874
0.000342204
6.96755
0.000342238
6.96638
0.000342273
6.96524
0.000342308
6.96411
0.000342342
6.96301
0.000342374
6.96193
0.000342402
6.96088
0.000342426
6.95986
0.000342446
6.95889
0.000342462
6.95794
0.000342476
6.95703
0.000342487
6.95615
0.000342493
6.95529
0.000342495
6.95446
0.00034233
6.95366
0.000342583
6.9529
0.000342404
6.95217
0.000342603
6.95147
0.000342306
6.95081
0.000342709
6.95018
0.000341768
6.94958
0.00034195
6.949
0.000341665
6.94845
0.000341246
6.94791
0.000340663
6.94739
0.000339865
6.94689
0.000338795
6.9464
0.000337384
6.94592
0.000335557
6.94547
0.000333233
6.94502
0.000330325
6.9446
0.000326743
6.94418
0.0003224
6.94378
0.000317212
6.9434
0.000311106
6.94304
0.000304022
6.94268
0.000295919
6.94235
0.000286778
6.94203
0.000276608
6.94173
0.000265442
6.94144
0.000253344
6.94117
0.000240406
6.94092
0.000226745
6.94069
0.000212504
6.94047
0.000197841
6.94027
0.000182928
6.94009
0.000167944
6.93993
0.000153067
6.93978
0.000138471
6.93965
0.000124316
6.93953
0.000110746
6.93942
9.78839e-05
6.93933
8.58285e-05
6.93925
7.46541e-05
6.93918
6.44087e-05
6.93912
5.51166e-05
6.93907
4.67793e-05
6.93903
3.93773e-05
6.93899
3.28557e-05
6.93896
2.72355e-05
6.93893
2.23488e-05
6.93891
1.82018e-05
6.93889
1.4696e-05
6.93887
1.17754e-05
6.93886
9.3713e-06
6.93884
7.37775e-06
6.93883
5.77402e-06
6.93882
4.46041e-06
6.93881
3.44122e-06
6.9388
2.6234e-06
6.9388
1.99468e-06
6.93879
1.50302e-06
6.93879
1.11619e-06
6.93878
8.42803e-07
6.93878
6.24646e-07
6.93878
4.64603e-07
6.93878
3.27474e-07
6.93878
2.64832e-07
6.93878
1.90767e-07
6.93878
1.49823e-07
6.93878
1.12386e-07
6.93879
7.38819e-08
6.93879
8.24784e-08
6.9388
6.36028e-08
6.93881
5.6687e-08
6.93882
5.23469e-08
6.93883
5.01495e-08
6.93884
4.79031e-08
6.93886
4.76412e-08
6.93887
4.7472e-08
6.93889
4.76448e-08
6.93891
4.80522e-08
6.93894
4.86489e-08
6.93897
4.94038e-08
6.939
5.02932e-08
6.93903
5.13155e-08
6.93906
5.24578e-08
6.9391
5.37366e-08
6.93914
5.5179e-08
6.93918
5.6787e-08
6.93922
5.85424e-08
6.93927
6.04687e-08
6.93932
6.25823e-08
6.93937
6.48324e-08
6.93942
6.72244e-08
6.93948
6.97455e-08
6.93953
7.23267e-08
6.93959
7.48496e-08
6.93965
7.72579e-08
6.93971
7.95844e-08
6.93978
8.19145e-08
6.93985
8.43047e-08
6.93992
8.67803e-08
6.94
8.93178e-08
6.94008
9.1959e-08
6.94016
9.47202e-08
6.94025
9.7687e-08
6.94035
1.00961e-07
6.94045
1.04785e-07
6.94056
1.09341e-07
6.94067
1.14729e-07
6.9408
1.20966e-07
6.94093
1.28e-07
6.94107
1.35651e-07
6.94122
1.43689e-07
6.94138
1.52102e-07
6.94156
1.60921e-07
6.94175
1.70252e-07
6.94195
1.80111e-07
6.94217
1.90716e-07
6.9424
2.01944e-07
6.94265
2.1419e-07
6.94292
2.27154e-07
6.94321
2.40872e-07
6.94353
2.5565e-07
6.94386
2.70455e-07
6.94421
2.86538e-07
6.94459
3.02736e-07
6.94499
3.19436e-07
6.94541
3.3656e-07
6.94586
3.53453e-07
6.94633
3.70614e-07
6.94682
3.87452e-07
6.94734
4.03928e-07
6.94787
4.20083e-07
6.94843
4.3456e-07
6.94901
4.4889e-07
6.9496
4.60979e-07
6.95021
4.70549e-07
6.95084
4.81559e-07
6.95147
4.85305e-07
6.95211
4.88752e-07
6.95276
4.93497e-07
6.9534
4.90243e-07
6.95405
4.9168e-07
6.95469
5.1216e-07
6.95531
6.37448e-07
6.95593
1.29047e-06
6.95651
4.45453e-06
6.95706
1.98323e-05
6.95749
9.37491e-05
6.95754
0.000448642
6.95584
0.00214766
6.94602
0.0102264
6.89939
0.046995
6.66728
0.232406
0.911529
5.75601
9.89066
0.000460262
9.89094
0.000333711
9.89127
0.000313206
9.8916
0.000319297
9.89191
0.000319967
9.89218
0.000319808
9.89241
0.000319851
9.89258
0.000319891
9.8927
0.000319897
9.89276
0.000319889
9.89275
0.000319871
9.89266
0.000319845
9.89249
0.000319813
9.89224
0.000319819
9.8919
0.000319732
9.89146
0.000319673
9.89093
0.000319667
9.89029
0.000319635
9.88957
0.000319608
9.88877
0.00031959
9.88789
0.00031958
9.88696
0.000319582
9.88597
0.000319594
9.88493
0.000319617
9.88385
0.000319647
9.88271
0.000319683
9.88153
0.000319724
9.88031
0.000319767
9.87906
0.000319811
9.8778
0.000319856
9.87653
0.000319901
9.87528
0.000319949
9.87405
0.00032
9.87285
0.000320052
9.87168
0.000320108
9.87053
0.000320164
9.86941
0.000320221
9.86832
0.000320276
9.86727
0.000320329
9.86625
0.000320379
9.86527
0.000320425
9.86434
0.000320466
9.86346
0.000320505
9.86263
0.000320542
9.86185
0.000320575
9.8611
0.000320603
9.86039
0.000320628
9.85973
0.000320516
9.8591
0.000320739
9.85852
0.000320623
9.85799
0.000320804
9.85751
0.000320574
9.85707
0.000320935
9.85669
0.00032012
9.85634
0.000320275
9.85603
0.000320028
9.85575
0.000319641
9.85549
0.000319097
9.85525
0.000318346
9.85504
0.00031733
9.85484
0.000315987
9.85467
0.000314243
9.85451
0.000312022
9.85437
0.00030924
9.85425
0.000305813
9.85414
0.000301658
9.85404
0.000296699
9.85396
0.000290866
9.85389
0.000284106
9.85383
0.000276383
9.85378
0.000267682
9.85373
0.000258013
9.85369
0.000247412
9.85366
0.000235944
9.85364
0.000223699
9.85362
0.000210791
9.8536
0.000197356
9.85359
0.000183546
9.85358
0.000169526
9.85357
0.000155463
9.85356
0.000141525
9.85356
0.000127874
9.85355
0.000114659
9.85355
0.000102014
9.85355
9.00483e-05
9.85355
7.88541e-05
9.85354
6.84959e-05
9.85354
5.90161e-05
9.85354
5.04334e-05
9.85354
4.2746e-05
9.85353
3.59326e-05
9.85353
2.99406e-05
9.85352
2.47845e-05
9.85352
2.03101e-05
9.85351
1.65184e-05
9.8535
1.3319e-05
9.85349
1.06578e-05
9.85349
8.47016e-06
9.85348
6.66007e-06
9.85347
5.20525e-06
9.85346
4.01684e-06
9.85345
3.09474e-06
9.85344
2.3571e-06
9.85343
1.79097e-06
9.85343
1.34852e-06
9.85342
1.00159e-06
9.85342
7.55907e-07
9.85341
5.60934e-07
9.85341
4.17702e-07
9.85341
2.95804e-07
9.85341
2.38508e-07
9.85341
1.73259e-07
9.85341
1.36768e-07
9.85341
1.033e-07
9.85341
6.94017e-08
9.85342
7.60283e-08
9.85343
5.9943e-08
9.85344
5.37184e-08
9.85345
4.98603e-08
9.85347
4.79067e-08
9.85348
4.5904e-08
9.8535
4.56821e-08
9.85353
4.55238e-08
9.85355
4.56839e-08
9.85358
4.60568e-08
9.85361
4.66007e-08
9.85365
4.72901e-08
9.85369
4.81032e-08
9.85374
4.90454e-08
9.85378
5.00968e-08
9.85383
5.12755e-08
9.85389
5.26034e-08
9.85395
5.40876e-08
9.85401
5.57047e-08
9.85407
5.74801e-08
9.85414
5.94227e-08
9.85421
6.14855e-08
9.85428
6.3681e-08
9.85436
6.59875e-08
9.85443
6.83449e-08
9.85452
7.06514e-08
9.8546
7.28578e-08
9.85469
7.49951e-08
9.85478
7.71433e-08
9.85488
7.93807e-08
9.85498
8.17199e-08
9.85509
8.4141e-08
9.8552
8.66876e-08
9.85532
8.93633e-08
9.85544
9.22464e-08
9.85558
9.54133e-08
9.85572
9.91204e-08
9.85587
1.03493e-07
9.85603
1.08617e-07
9.8562
1.14509e-07
9.85639
1.21121e-07
9.85659
1.28304e-07
9.8568
1.35818e-07
9.85703
1.43655e-07
9.85728
1.51871e-07
9.85754
1.60551e-07
9.85783
1.69724e-07
9.85813
1.79602e-07
9.85846
1.90026e-07
9.85882
2.01402e-07
9.8592
2.13613e-07
9.85961
2.26144e-07
9.86005
2.40379e-07
9.86052
2.53702e-07
9.86102
2.68881e-07
9.86155
2.83986e-07
9.86212
2.99548e-07
9.86271
3.15757e-07
9.86334
3.31222e-07
9.86401
3.47454e-07
9.86471
3.63141e-07
9.86543
3.78473e-07
9.86619
3.93782e-07
9.86698
4.06713e-07
9.8678
4.20878e-07
9.86864
4.31563e-07
9.8695
4.39353e-07
9.87038
4.53425e-07
9.87127
4.52845e-07
9.87218
4.55791e-07
9.87309
4.65883e-07
9.87401
4.60108e-07
9.87492
4.70372e-07
9.87582
5.31911e-07
9.87671
8.49555e-07
9.87757
2.44342e-06
9.8784
1.00983e-05
9.87917
4.72202e-05
9.87979
0.000225564
9.87985
0.00108175
9.87745
0.00518112
9.86355
0.0246937
9.79759
0.113466
9.47615
0.554272
2.10521
8.28283
13.9875
0.000401819
13.9879
0.000308232
13.9884
0.000277635
13.9888
0.000286439
13.9893
0.000287541
13.9897
0.000287242
13.99
0.000287277
13.9902
0.00028733
13.9904
0.000287341
13.9905
0.000287335
13.9905
0.00028732
13.9903
0.000287297
13.9901
0.000287269
13.9897
0.000287279
13.9893
0.000287194
13.9886
0.000287147
13.9879
0.00028714
13.987
0.000287112
13.986
0.000287088
13.9848
0.000287071
13.9836
0.000287062
13.9823
0.000287064
13.9809
0.000287076
13.9794
0.000287096
13.9779
0.000287123
13.9763
0.000287156
13.9746
0.000287192
13.9729
0.000287231
13.9711
0.000287271
13.9693
0.000287311
13.9675
0.000287352
13.9658
0.000287395
13.964
0.000287441
13.9623
0.000287488
13.9607
0.000287538
13.9591
0.000287589
13.9575
0.000287639
13.9559
0.000287689
13.9545
0.000287737
13.953
0.000287782
13.9516
0.000287823
13.9503
0.000287861
13.9491
0.000287896
13.9479
0.000287929
13.9468
0.000287959
13.9457
0.000287984
13.9447
0.000288005
13.9438
0.000287927
13.9429
0.000288086
13.9421
0.000288013
13.9414
0.000288148
13.9407
0.000287972
13.9401
0.000288259
13.9395
0.00028758
13.939
0.000287687
13.9386
0.000287475
13.9382
0.000287129
13.9378
0.000286644
13.9375
0.000285973
13.9372
0.000285066
13.9369
0.000283866
13.9367
0.000282308
13.9365
0.000280323
13.9363
0.000277836
13.9361
0.000274771
13.9359
0.000271055
13.9358
0.000266617
13.9357
0.000261397
13.9356
0.000255345
13.9355
0.000248428
13.9354
0.000240634
13.9354
0.00023197
13.9353
0.000222469
13.9353
0.000212188
13.9352
0.000201207
13.9352
0.000189629
13.9352
0.000177574
13.9351
0.00016518
13.9351
0.000152592
13.9351
0.000139962
13.9351
0.000127442
13.9351
0.000115175
13.9351
0.000103297
13.9351
9.19262e-05
13.9351
8.11643e-05
13.9351
7.10926e-05
13.9351
6.17703e-05
13.9351
5.32357e-05
13.9351
4.55061e-05
13.935
3.85808e-05
13.935
3.24405e-05
13.935
2.70397e-05
13.935
2.23883e-05
13.935
1.83531e-05
13.935
1.4931e-05
13.935
1.2043e-05
13.935
9.64007e-06
13.935
7.66314e-06
13.935
6.02804e-06
13.9349
4.71235e-06
13.9349
3.63835e-06
13.9349
2.8035e-06
13.9349
2.13633e-06
13.9349
1.62353e-06
13.9349
1.2227e-06
13.9349
9.09159e-07
13.9349
6.85343e-07
13.9349
5.08986e-07
13.9349
3.78968e-07
13.9349
2.6982e-07
13.9349
2.151e-07
13.9349
1.57218e-07
13.9349
1.2384e-07
13.9349
9.3587e-08
13.9349
6.40975e-08
13.9349
6.75909e-08
13.9349
5.42068e-08
13.9349
4.84592e-08
13.9349
4.49349e-08
13.9349
4.31128e-08
13.935
4.1312e-08
13.935
4.10805e-08
13.935
4.09177e-08
13.9351
4.10582e-08
13.9351
4.13856e-08
13.9352
4.18731e-08
13.9352
4.24861e-08
13.9353
4.32151e-08
13.9353
4.40564e-08
13.9354
4.50004e-08
13.9355
4.60627e-08
13.9355
4.72533e-08
13.9356
4.85875e-08
13.9357
5.00386e-08
13.9358
5.16357e-08
13.9359
5.3376e-08
13.936
5.52304e-08
13.9361
5.72018e-08
13.9362
5.92745e-08
13.9363
6.13873e-08
13.9364
6.34586e-08
13.9365
6.54436e-08
13.9367
6.7364e-08
13.9368
6.92917e-08
13.9369
7.12989e-08
13.9371
7.34044e-08
13.9372
7.55776e-08
13.9374
7.78723e-08
13.9376
8.0262e-08
13.9377
8.28659e-08
13.9379
8.56949e-08
13.9381
8.9045e-08
13.9383
9.29731e-08
13.9386
9.75729e-08
13.9388
1.02851e-07
13.9391
1.08785e-07
13.9394
1.15252e-07
13.9397
1.22003e-07
13.94
1.29029e-07
13.9403
1.36418e-07
13.9407
1.44211e-07
13.9411
1.52455e-07
13.9415
1.61315e-07
13.942
1.70702e-07
13.9425
1.8081e-07
13.9431
1.92036e-07
13.9436
2.0287e-07
13.9443
2.16366e-07
13.9449
2.27609e-07
13.9456
2.41488e-07
13.9464
2.5505e-07
13.9472
2.6902e-07
13.948
2.83811e-07
13.9489
2.97357e-07
13.9498
3.12205e-07
13.9508
3.2621e-07
13.9519
3.40005e-07
13.9529
3.54019e-07
13.9541
3.64741e-07
13.9552
3.7886e-07
13.9564
3.87447e-07
13.9576
3.92706e-07
13.9589
4.11144e-07
13.9601
4.04666e-07
13.9614
4.06663e-07
13.9627
4.2456e-07
13.964
4.15144e-07
13.9653
4.37489e-07
13.9666
5.55556e-07
13.9678
1.13855e-06
13.969
4.0271e-06
13.9702
1.78581e-05
13.9713
8.48843e-05
13.9722
0.000406851
13.9723
0.00195267
13.969
0.00935434
13.9499
0.044604
13.8593
0.204816
13.424
0.990106
3.67322
11.8565
61.7438
0.00018515
61.7455
0.000163428
61.7476
0.000136021
61.7497
0.000142203
61.7516
0.000144158
61.7533
0.000143781
61.7547
0.000143704
61.7558
0.000143731
61.7565
0.000143727
61.7569
0.000143712
61.7568
0.000143696
61.7563
0.000143677
61.7552
0.00014366
61.7537
0.00014366
61.7516
0.00014361
61.7488
0.000143589
61.7455
0.00014358
61.7415
0.000143564
61.737
0.000143551
61.732
0.000143541
61.7266
0.000143535
61.7207
0.000143536
61.7146
0.00014354
61.7081
0.00014355
61.7013
0.000143564
61.6942
0.000143579
61.6869
0.000143597
61.6792
0.000143617
61.6714
0.000143637
61.6636
0.000143657
61.6557
0.000143677
61.6479
0.000143699
61.6402
0.000143721
61.6327
0.000143745
61.6254
0.00014377
61.6183
0.000143795
61.6113
0.000143821
61.6045
0.000143846
61.5979
0.000143869
61.5916
0.000143892
61.5855
0.000143912
61.5796
0.000143931
61.5742
0.000143949
61.569
0.000143965
61.5641
0.00014398
61.5594
0.000143992
61.555
0.000144002
61.5509
0.000143989
61.547
0.000144018
61.5434
0.000144021
61.5401
0.000144054
61.5371
0.000144002
61.5344
0.000144099
61.532
0.00014383
61.5298
0.000143843
61.5279
0.00014375
61.5261
0.000143579
61.5245
0.000143342
61.523
0.000143014
61.5217
0.000142569
61.5205
0.000141979
61.5194
0.000141213
61.5185
0.000140235
61.5176
0.000139009
61.5168
0.000137496
61.5162
0.00013566
61.5156
0.000133466
61.515
0.000130882
61.5146
0.000127883
61.5142
0.000124453
61.5139
0.000120584
61.5136
0.00011628
61.5134
0.000111556
61.5132
0.00010644
61.513
0.00010097
61.5129
9.51988e-05
61.5128
8.9185e-05
61.5127
8.29967e-05
61.5126
7.6707e-05
61.5126
7.03914e-05
61.5125
6.41255e-05
61.5125
5.79817e-05
61.5124
5.20282e-05
61.5124
4.63248e-05
61.5124
4.09228e-05
61.5124
3.58634e-05
61.5123
3.11772e-05
61.5123
2.68839e-05
61.5123
2.29925e-05
61.5123
1.9504e-05
61.5122
1.64086e-05
61.5122
1.36853e-05
61.5122
1.13353e-05
61.5121
9.29851e-06
61.5121
7.56815e-06
61.512
6.10784e-06
61.512
4.89192e-06
61.5119
3.88998e-06
61.5119
3.06221e-06
61.5118
2.3944e-06
61.5118
1.85036e-06
61.5117
1.42574e-06
61.5117
1.08735e-06
61.5116
8.26334e-07
61.5116
6.22484e-07
61.5115
4.63877e-07
61.5115
3.48716e-07
61.5115
2.59384e-07
61.5114
1.93141e-07
61.5114
1.38984e-07
61.5114
1.08387e-07
61.5114
8.00685e-08
61.5114
6.28479e-08
61.5115
4.75463e-08
61.5115
3.37925e-08
61.5115
3.30249e-08
61.5116
2.73787e-08
61.5116
2.43906e-08
61.5117
2.25818e-08
61.5118
2.15912e-08
61.5119
2.07317e-08
61.512
2.05703e-08
61.5122
2.04707e-08
61.5123
2.05398e-08
61.5125
2.07015e-08
61.5127
2.09429e-08
61.513
2.12483e-08
61.5132
2.16082e-08
61.5135
2.20271e-08
61.5138
2.24995e-08
61.5141
2.30323e-08
61.5144
2.36271e-08
61.5148
2.42926e-08
61.5152
2.50172e-08
61.5156
2.58135e-08
61.516
2.66848e-08
61.5164
2.76113e-08
61.5169
2.85979e-08
61.5174
2.96359e-08
61.5178
3.06889e-08
61.5184
3.17214e-08
61.5189
3.27229e-08
61.5194
3.36847e-08
61.52
3.46372e-08
61.5206
3.56456e-08
61.5213
3.67147e-08
61.5219
3.77856e-08
61.5226
3.8968e-08
61.5234
4.01244e-08
61.5241
4.14759e-08
61.525
4.28113e-08
61.5259
4.45352e-08
61.5268
4.65343e-08
61.5278
4.8778e-08
61.5289
5.13928e-08
61.53
5.43084e-08
61.5313
5.76795e-08
61.5326
6.10535e-08
61.534
6.45209e-08
61.5356
6.8195e-08
61.5372
7.22064e-08
61.539
7.6099e-08
61.5409
8.07811e-08
61.543
8.51314e-08
61.5452
9.03285e-08
61.5476
9.61677e-08
61.5502
1.00934e-07
61.5529
1.09619e-07
61.5558
1.13109e-07
61.559
1.20222e-07
61.5623
1.27678e-07
61.5658
1.34159e-07
61.5695
1.42741e-07
61.5735
1.47358e-07
61.5776
1.57252e-07
61.582
1.62481e-07
61.5865
1.70856e-07
61.5912
1.77471e-07
61.5962
1.80704e-07
61.6013
1.91811e-07
61.6065
1.94083e-07
61.6119
1.86238e-07
61.6174
2.24025e-07
61.623
1.89031e-07
61.6286
2.02019e-07
61.6343
2.20582e-07
61.64
2.39613e-07
61.6457
2.60412e-07
61.6514
6.54087e-07
61.6569
2.22863e-06
61.6623
1.01995e-05
61.6675
4.81504e-05
61.6723
0.000232132
61.6763
0.00111594
61.6772
0.00536238
61.6648
0.0256739
61.591
0.121959
61.2444
0.554664
59.7944
2.44271
8.784
54.6859
61.7437
-1.36424e-12
61.7455
9.09495e-13
61.7476
4.54747e-13
61.7497
1.36424e-12
61.7516
6.82121e-13
61.7533
1.36424e-12
61.7547
4.54747e-13
61.7558
1.36424e-12
61.7565
2.27374e-13
61.7569
-1.36424e-12
61.7568
-1.13687e-12
61.7563
-1.13687e-12
61.7552
-6.82121e-13
61.7537
-1.36424e-12
61.7515
-4.54747e-13
61.7488
6.82121e-13
61.7455
-6.82121e-13
61.7415
-6.82121e-13
61.737
-1.13687e-12
61.732
1.13687e-12
61.7265
1.36424e-12
61.7207
0
61.7145
6.82121e-13
61.7081
2.27374e-13
61.7013
9.09495e-13
61.6942
-4.54747e-13
61.6868
1.36424e-12
61.6792
-2.27374e-13
61.6714
0
61.6635
-1.13687e-12
61.6557
2.27374e-13
61.6479
-2.27374e-13
61.6402
1.13687e-12
61.6327
-1.36424e-12
61.6254
-1.36424e-12
61.6182
-6.82121e-13
61.6113
1.13687e-12
61.6045
2.27374e-13
61.5979
0
61.5915
4.54747e-13
61.5854
-2.27374e-13
61.5796
-6.82121e-13
61.5741
-2.27374e-13
61.569
0
61.5641
-2.27374e-13
61.5594
0
61.555
1.13687e-12
61.5509
-1.59162e-12
61.547
-2.27374e-13
61.5434
1.36424e-12
61.5401
4.54747e-13
61.537
2.27374e-13
61.5343
-9.09495e-13
61.532
-1.36424e-12
61.5298
-6.82121e-13
61.5279
9.09495e-13
61.5261
-1.13687e-12
61.5245
4.54747e-13
61.523
9.09495e-13
61.5217
2.27374e-13
61.5205
9.09495e-13
61.5194
-1.59162e-12
61.5184
-9.09495e-13
61.5176
0
61.5168
-4.54747e-13
61.5161
-6.82121e-13
61.5155
-1.13687e-12
61.515
-4.54747e-13
61.5146
-4.54747e-13
61.5142
-9.09495e-13
61.5139
-2.95586e-12
61.5136
-2.04636e-12
61.5134
-1.13687e-12
61.5132
0
61.513
6.82121e-13
61.5129
2.27374e-13
61.5128
-6.82121e-13
61.5127
-9.09495e-13
61.5126
0
61.5126
1.36424e-12
61.5125
1.81899e-12
61.5125
1.81899e-12
61.5124
2.27374e-13
61.5124
1.13687e-12
61.5124
0
61.5124
0
61.5123
1.13687e-12
61.5123
1.13687e-12
61.5123
-4.54747e-13
61.5123
6.82121e-13
61.5122
-9.09495e-13
61.5122
0
61.5122
4.54747e-13
61.5121
1.13687e-12
61.5121
-4.54747e-13
61.512
6.82121e-13
61.512
6.82121e-13
61.5119
0
61.5119
1.13687e-12
61.5118
-6.82121e-13
61.5118
-6.82121e-13
61.5117
-1.81899e-12
61.5117
-4.54747e-13
61.5116
4.54747e-13
61.5116
1.59162e-12
61.5115
9.09495e-13
61.5115
1.13687e-12
61.5115
1.13687e-12
61.5114
-4.54747e-13
61.5114
-1.13687e-12
61.5114
4.54747e-13
61.5114
1.13687e-12
61.5114
2.27374e-13
61.5115
4.54747e-13
61.5115
1.36424e-12
61.5115
0
61.5116
0
61.5116
2.27374e-13
61.5117
-6.82121e-13
61.5118
-1.04592e-11
61.5119
1.18234e-11
61.512
4.09273e-12
61.5122
9.09495e-13
61.5123
-9.09495e-13
61.5125
-4.54747e-13
61.5127
-6.82121e-13
61.513
1.13687e-12
61.5132
-1.13687e-12
61.5135
4.54747e-13
61.5138
2.27374e-13
61.5141
3.18323e-12
61.5144
2.50111e-12
61.5148
-2.27374e-13
61.5152
1.13687e-12
61.5156
-5.68434e-12
61.516
-6.82121e-13
61.5164
-4.54747e-13
61.5169
-2.72848e-12
61.5174
6.82121e-13
61.5178
3.86535e-12
61.5184
-9.54969e-12
61.5189
6.82121e-12
61.5194
1.13687e-12
61.52
-8.41283e-12
61.5206
-2.38742e-11
61.5213
3.61524e-11
61.5219
-4.95675e-11
61.5226
6.86668e-11
61.5234
-5.29781e-11
61.5241
1.14824e-10
61.525
-1.15961e-10
61.5259
5.63887e-11
61.5268
7.57154e-11
61.5278
-2.13731e-11
61.5289
-6.70752e-11
61.53
-1.16643e-10
61.5313
5.02496e-11
61.5326
1.5666e-10
61.534
-9.14042e-11
61.5356
1.57343e-10
61.5372
-1.3074e-10
61.539
4.23825e-10
61.5409
-7.03722e-10
61.543
9.64519e-10
61.5452
-1.54068e-09
61.5476
1.58502e-09
61.5502
-2.34968e-09
61.5529
3.56272e-09
61.5558
-2.43404e-09
61.559
-3.81306e-10
61.5623
-1.00499e-10
61.5658
1.13664e-09
61.5695
-6.53472e-10
61.5735
-5.83896e-10
61.5776
5.01586e-10
61.582
1.05456e-09
61.5865
-6.66205e-10
61.5912
1.00727e-09
61.5962
-4.66866e-09
61.6013
7.58064e-09
61.6065
-2.30079e-09
61.6119
-7.52539e-09
61.6174
9.04947e-09
61.623
8.07722e-09
61.6286
-3.31343e-08
61.6343
4.65218e-08
61.64
1.33364e-08
61.6457
9.25231e-08
61.6514
5.37839e-07
61.6569
2.5745e-06
61.6623
1.23442e-05
61.6675
5.96956e-05
61.6724
0.000288145
61.6768
0.00139003
61.6798
0.00669451
61.6773
0.0321874
61.6491
0.153731
61.4948
0.712122
60.7399
3.20034
11.6471
57.879
61.7437
-0.00018515
61.7455
-0.000163428
61.7476
-0.000136021
61.7497
-0.000142203
61.7516
-0.000144158
61.7533
-0.000143781
61.7547
-0.000143704
61.7558
-0.000143731
61.7565
-0.000143727
61.7569
-0.000143712
61.7568
-0.000143696
61.7563
-0.000143677
61.7552
-0.00014366
61.7537
-0.00014366
61.7515
-0.00014361
61.7488
-0.000143589
61.7455
-0.00014358
61.7415
-0.000143564
61.737
-0.000143551
61.732
-0.000143541
61.7265
-0.000143535
61.7207
-0.000143536
61.7145
-0.00014354
61.7081
-0.00014355
61.7013
-0.000143564
61.6942
-0.000143579
61.6868
-0.000143597
61.6792
-0.000143617
61.6714
-0.000143637
61.6635
-0.000143657
61.6557
-0.000143677
61.6479
-0.000143699
61.6402
-0.000143721
61.6327
-0.000143745
61.6254
-0.00014377
61.6182
-0.000143795
61.6113
-0.000143821
61.6045
-0.000143846
61.5979
-0.000143869
61.5915
-0.000143892
61.5854
-0.000143912
61.5796
-0.000143931
61.5741
-0.000143949
61.569
-0.000143965
61.5641
-0.00014398
61.5594
-0.000143992
61.555
-0.000144002
61.5509
-0.000143989
61.547
-0.000144018
61.5434
-0.000144021
61.5401
-0.000144054
61.537
-0.000144002
61.5343
-0.000144099
61.532
-0.00014383
61.5298
-0.000143843
61.5279
-0.00014375
61.5261
-0.000143579
61.5245
-0.000143342
61.523
-0.000143014
61.5217
-0.000142569
61.5205
-0.000141979
61.5194
-0.000141213
61.5184
-0.000140235
61.5176
-0.000139009
61.5168
-0.000137496
61.5161
-0.00013566
61.5155
-0.000133466
61.515
-0.000130882
61.5146
-0.000127883
61.5142
-0.000124453
61.5139
-0.000120584
61.5136
-0.00011628
61.5134
-0.000111556
61.5132
-0.00010644
61.513
-0.00010097
61.5129
-9.51988e-05
61.5128
-8.9185e-05
61.5127
-8.29967e-05
61.5126
-7.6707e-05
61.5126
-7.03914e-05
61.5125
-6.41255e-05
61.5125
-5.79817e-05
61.5124
-5.20282e-05
61.5124
-4.63248e-05
61.5124
-4.09228e-05
61.5124
-3.58634e-05
61.5123
-3.11772e-05
61.5123
-2.68839e-05
61.5123
-2.29925e-05
61.5123
-1.9504e-05
61.5122
-1.64086e-05
61.5122
-1.36853e-05
61.5122
-1.13353e-05
61.5121
-9.2985e-06
61.5121
-7.56815e-06
61.512
-6.10784e-06
61.512
-4.89192e-06
61.5119
-3.88998e-06
61.5119
-3.06221e-06
61.5118
-2.3944e-06
61.5118
-1.85036e-06
61.5117
-1.42574e-06
61.5117
-1.08735e-06
61.5116
-8.26333e-07
61.5116
-6.22481e-07
61.5115
-4.63874e-07
61.5115
-3.48714e-07
61.5115
-2.59382e-07
61.5114
-1.93141e-07
61.5114
-1.38987e-07
61.5114
-1.08385e-07
61.5114
-8.00671e-08
61.5114
-6.28484e-08
61.5115
-4.75461e-08
61.5115
-3.37909e-08
61.5115
-3.30242e-08
61.5116
-2.73776e-08
61.5116
-2.43897e-08
61.5117
-2.2583e-08
61.5118
-2.1606e-08
61.5119
-2.0714e-08
61.512
-2.05634e-08
61.5122
-2.04693e-08
61.5123
-2.05412e-08
61.5125
-2.07031e-08
61.5127
-2.09427e-08
61.513
-2.12449e-08
61.5132
-2.16091e-08
61.5135
-2.20257e-08
61.5138
-2.24986e-08
61.5141
-2.30275e-08
61.5144
-2.36234e-08
61.5148
-2.42919e-08
61.5152
-2.5017e-08
61.5156
-2.58249e-08
61.516
-2.66848e-08
61.5164
-2.76111e-08
61.5169
-2.86036e-08
61.5174
-2.96375e-08
61.5178
-3.06757e-08
61.5184
-3.17468e-08
61.5189
-3.27141e-08
61.5194
-3.36825e-08
61.52
-3.46663e-08
61.5206
-3.56649e-08
61.5213
-3.66842e-08
61.5219
-3.78204e-08
61.5226
-3.88845e-08
61.5234
-4.01635e-08
61.5241
-4.13393e-08
61.525
-4.29472e-08
61.5259
-4.44597e-08
61.5268
-4.64504e-08
61.5278
-4.87969e-08
61.5289
-5.15422e-08
61.53
-5.44471e-08
61.5313
-5.75828e-08
61.5326
-6.08334e-08
61.534
-6.45134e-08
61.5356
-6.81644e-08
61.5372
-7.20354e-08
61.539
-7.60854e-08
61.5409
-8.0996e-08
61.543
-8.51214e-08
61.5452
-9.10425e-08
61.5476
-9.56716e-08
61.5502
-1.02161e-07
61.5529
-1.06527e-07
61.5558
-1.14506e-07
61.559
-1.21852e-07
61.5623
-1.27583e-07
61.5658
-1.33494e-07
61.5695
-1.42674e-07
61.5735
-1.48863e-07
61.5776
-1.55472e-07
61.582
-1.62145e-07
61.5865
-1.71042e-07
61.5912
-1.7751e-07
61.5962
-1.84617e-07
61.6013
-1.84248e-07
61.6065
-1.94858e-07
61.6119
-2.02532e-07
61.6174
-1.93249e-07
61.623
-2.11584e-07
61.6286
-1.9239e-07
61.6343
-2.13327e-07
61.64
-1.75757e-07
61.6457
-1.3823e-07
61.6514
2.57352e-07
61.6569
1.83643e-06
61.6623
9.78758e-06
61.6675
4.79173e-05
61.6725
0.000232456
61.6775
0.00112422
61.6831
0.00544505
61.6928
0.0264976
61.7207
0.129384
61.8198
0.616098
61.9771
3.04563
10.6858
62.9406
61.7438
-0.000401819
61.7455
-0.000308232
61.7476
-0.000277635
61.7497
-0.000286439
61.7516
-0.000287541
61.7533
-0.000287242
61.7547
-0.000287277
61.7558
-0.00028733
61.7565
-0.000287341
61.7569
-0.000287335
61.7568
-0.00028732
61.7563
-0.000287297
61.7552
-0.000287269
61.7537
-0.000287279
61.7516
-0.000287194
61.7488
-0.000287147
61.7455
-0.00028714
61.7415
-0.000287112
61.737
-0.000287088
61.732
-0.000287071
61.7266
-0.000287062
61.7207
-0.000287064
61.7146
-0.000287076
61.7081
-0.000287096
61.7013
-0.000287123
61.6942
-0.000287156
61.6869
-0.000287192
61.6792
-0.000287231
61.6714
-0.000287271
61.6636
-0.000287311
61.6557
-0.000287352
61.6479
-0.000287395
61.6402
-0.000287441
61.6327
-0.000287488
61.6254
-0.000287538
61.6183
-0.000287589
61.6113
-0.000287639
61.6045
-0.000287689
61.5979
-0.000287737
61.5916
-0.000287782
61.5855
-0.000287823
61.5796
-0.000287861
61.5742
-0.000287896
61.569
-0.000287929
61.5641
-0.000287959
61.5594
-0.000287984
61.555
-0.000288005
61.5509
-0.000287927
61.547
-0.000288086
61.5434
-0.000288013
61.5401
-0.000288148
61.5371
-0.000287972
61.5344
-0.000288259
61.532
-0.00028758
61.5298
-0.000287687
61.5279
-0.000287475
61.5261
-0.000287129
61.5245
-0.000286644
61.523
-0.000285973
61.5217
-0.000285066
61.5205
-0.000283866
61.5194
-0.000282308
61.5185
-0.000280323
61.5176
-0.000277836
61.5168
-0.000274771
61.5162
-0.000271055
61.5156
-0.000266617
61.515
-0.000261397
61.5146
-0.000255345
61.5142
-0.000248428
61.5139
-0.000240634
61.5136
-0.00023197
61.5134
-0.000222469
61.5132
-0.000212188
61.513
-0.000201207
61.5129
-0.000189629
61.5128
-0.000177574
61.5127
-0.00016518
61.5126
-0.000152592
61.5126
-0.000139962
61.5125
-0.000127442
61.5125
-0.000115175
61.5124
-0.000103297
61.5124
-9.19262e-05
61.5124
-8.11643e-05
61.5124
-7.10926e-05
61.5123
-6.17703e-05
61.5123
-5.32357e-05
61.5123
-4.55061e-05
61.5123
-3.85808e-05
61.5122
-3.24405e-05
61.5122
-2.70397e-05
61.5122
-2.23883e-05
61.5121
-1.83532e-05
61.5121
-1.4931e-05
61.512
-1.2043e-05
61.512
-9.64006e-06
61.5119
-7.66315e-06
61.5119
-6.02804e-06
61.5118
-4.71235e-06
61.5118
-3.63835e-06
61.5117
-2.80351e-06
61.5117
-2.13634e-06
61.5116
-1.62353e-06
61.5116
-1.2227e-06
61.5115
-9.09157e-07
61.5115
-6.85342e-07
61.5115
-5.08983e-07
61.5114
-3.78966e-07
61.5114
-2.69826e-07
61.5114
-2.151e-07
61.5114
-1.57218e-07
61.5114
-1.2384e-07
61.5115
-9.35893e-08
61.5115
-6.40971e-08
61.5115
-6.75873e-08
61.5116
-5.42022e-08
61.5116
-4.84588e-08
61.5117
-4.49331e-08
61.5118
-4.31146e-08
61.5119
-4.13083e-08
61.512
-4.10751e-08
61.5122
-4.09141e-08
61.5123
-4.10587e-08
61.5125
-4.13861e-08
61.5127
-4.187e-08
61.513
-4.24811e-08
61.5132
-4.32137e-08
61.5135
-4.40514e-08
61.5138
-4.49991e-08
61.5141
-4.60586e-08
61.5144
-4.72542e-08
61.5148
-4.85866e-08
61.5152
-5.00409e-08
61.5156
-5.16397e-08
61.516
-5.33755e-08
61.5164
-5.52309e-08
61.5169
-5.72045e-08
61.5174
-5.92736e-08
61.5178
-6.13818e-08
61.5184
-6.34582e-08
61.5189
-6.54359e-08
61.5194
-6.73676e-08
61.52
-6.92999e-08
61.5206
-7.13108e-08
61.5213
-7.33908e-08
61.5219
-7.56013e-08
61.5226
-7.78386e-08
61.5234
-8.02802e-08
61.5241
-8.28218e-08
61.525
-8.5739e-08
61.5259
-8.90177e-08
61.5268
-9.29399e-08
61.5278
-9.7566e-08
61.5289
-1.02927e-07
61.53
-1.08803e-07
61.5313
-1.15252e-07
61.5326
-1.21894e-07
61.534
-1.2906e-07
61.5356
-1.36344e-07
61.5372
-1.4431e-07
61.539
-1.52173e-07
61.5409
-1.61624e-07
61.543
-1.70411e-07
61.5452
-1.81513e-07
61.5476
-1.91478e-07
61.5502
-2.0341e-07
61.5529
-2.15205e-07
61.5558
-2.28325e-07
61.559
-2.41823e-07
61.5623
-2.55292e-07
61.5658
-2.68666e-07
61.5695
-2.83856e-07
61.5735
-2.97677e-07
61.5776
-3.11858e-07
61.582
-3.25639e-07
61.5865
-3.40374e-07
61.5912
-3.53848e-07
61.5962
-3.6664e-07
61.6013
-3.7508e-07
61.6065
-3.89833e-07
61.6119
-3.95412e-07
61.6174
-4.02953e-07
61.623
-4.09578e-07
61.6286
-4.08023e-07
61.6343
-4.11537e-07
61.64
-4.06596e-07
61.6457
-3.79758e-07
61.6514
-2.37725e-07
61.6569
3.59858e-07
61.6623
3.24524e-06
61.6675
1.71946e-05
61.6726
8.45005e-05
61.678
0.000410111
61.6858
0.00199102
61.7066
0.00974764
61.7911
0.0484546
62.1663
0.243992
63.5816
1.63292
5.49112
68.7785
13.9875
-0.000460262
13.9879
-0.000333711
13.9884
-0.000313206
13.9888
-0.000319297
13.9893
-0.000319967
13.9897
-0.000319808
13.99
-0.000319851
13.9902
-0.000319891
13.9904
-0.000319897
13.9905
-0.000319889
13.9905
-0.000319871
13.9903
-0.000319845
13.9901
-0.000319813
13.9897
-0.00031982
13.9893
-0.000319732
13.9886
-0.000319673
13.9879
-0.000319667
13.987
-0.000319635
13.986
-0.000319608
13.9848
-0.00031959
13.9836
-0.00031958
13.9823
-0.000319582
13.9809
-0.000319594
13.9794
-0.000319617
13.9779
-0.000319647
13.9763
-0.000319683
13.9746
-0.000319724
13.9729
-0.000319767
13.9711
-0.000319811
13.9693
-0.000319856
13.9675
-0.000319901
13.9658
-0.000319949
13.964
-0.00032
13.9623
-0.000320052
13.9607
-0.000320108
13.9591
-0.000320164
13.9575
-0.000320221
13.9559
-0.000320276
13.9545
-0.000320329
13.953
-0.000320379
13.9516
-0.000320425
13.9503
-0.000320466
13.9491
-0.000320505
13.9479
-0.000320542
13.9468
-0.000320575
13.9457
-0.000320603
13.9447
-0.000320628
13.9438
-0.000320516
13.9429
-0.000320739
13.9421
-0.000320623
13.9414
-0.000320804
13.9407
-0.000320574
13.9401
-0.000320935
13.9395
-0.00032012
13.939
-0.000320275
13.9386
-0.000320028
13.9382
-0.000319641
13.9378
-0.000319097
13.9375
-0.000318346
13.9372
-0.00031733
13.9369