/*--------------------------------*- C++ -*----------------------------------*\
| =========                 |                                                 |
| \\      /  F ield         | OpenFOAM: The Open Source CFD Toolbox           |
|  \\    /   O peration     | Version:  3.0.x                                 |
|   \\  /    A nd           | Web:      www.OpenFOAM.org                      |
|    \\/     M anipulation  |                                                 |
\*---------------------------------------------------------------------------*/
FoamFile
{
    version     2.0;
    format      ascii;
    class       volScalarField;
    location    "0.25995";
    object      rho;
}
// * * * * * * * * * * * * * * * * * * * * * * * * * * * * * * * * * * * * * //

dimensions      [1 -3 0 0 0 0 0];

internalField   nonuniform List<scalar> 
13800
(
50.6406
50.6405
50.6403
50.6402
50.6399
50.6394
50.6387
50.6379
50.637
50.636
50.6349
50.6338
50.6325
50.6313
50.63
50.6287
50.6273
50.6259
50.6244
50.6229
50.6215
50.6201
50.6188
50.6176
50.6165
50.6154
50.6142
50.613
50.6118
50.6107
50.6095
50.6084
50.6075
50.6066
50.6058
50.6051
50.6044
50.6037
50.603
50.6023
50.6016
50.601
50.6004
50.5998
50.5994
50.5988
50.5983
50.5978
50.5973
50.5968
50.5964
50.5961
50.5958
50.5956
50.5954
50.5953
50.5952
50.5951
50.595
50.5949
50.5948
50.5947
50.5946
50.5945
50.5944
50.5943
50.5943
50.5942
50.5941
50.5941
50.594
50.594
50.5939
50.5939
50.5939
50.5938
50.5938
50.5938
50.5938
50.5937
50.5937
50.5937
50.5937
50.5937
50.5936
50.5936
50.5936
50.5936
50.5936
50.5936
50.5936
50.5936
50.5935
50.5935
50.5935
50.5935
50.5935
50.5935
50.5935
50.5935
50.5935
50.5935
50.5935
50.5935
50.5935
50.5935
50.5935
50.5935
50.5935
50.5935
50.5935
50.5935
50.5935
50.5935
50.5935
50.5935
50.5935
50.5936
50.5936
50.5936
50.5936
50.5936
50.5936
50.5936
50.5937
50.5937
50.5937
50.5937
50.5937
50.5938
50.5938
50.5938
50.5938
50.5939
50.5939
50.5939
50.594
50.594
50.594
50.5941
50.5941
50.5942
50.5942
50.5943
50.5943
50.5944
50.5944
50.5945
50.5946
50.5946
50.5947
50.5948
50.5948
50.5949
50.595
50.5951
50.5952
50.5953
50.5955
50.5956
50.5957
50.5959
50.596
50.5962
50.5964
50.5966
50.5968
50.597
50.5973
50.5975
50.5978
50.5981
50.5984
50.5987
50.599
50.5994
50.5998
50.6002
50.6006
50.601
50.6015
50.6019
50.6024
50.6028
50.6033
50.6038
50.6043
50.6048
50.6053
50.6057
50.6062
50.6066
50.6071
50.6075
50.6079
50.6083
50.6087
50.6092
50.6134
50.6046
50.6415
50.6414
50.6412
50.6411
50.6407
50.6402
50.6396
50.6388
50.6379
50.6369
50.6358
50.6346
50.6334
50.6321
50.6309
50.6295
50.6281
50.6267
50.6252
50.6237
50.6223
50.6209
50.6196
50.6184
50.6173
50.6161
50.615
50.6138
50.6126
50.6114
50.6103
50.6092
50.6082
50.6073
50.6065
50.6058
50.6051
50.6044
50.6037
50.603
50.6023
50.6017
50.6011
50.6005
50.6
50.5995
50.599
50.5985
50.598
50.5975
50.5971
50.5967
50.5964
50.5962
50.5961
50.596
50.5959
50.5958
50.5957
50.5956
50.5955
50.5954
50.5952
50.5951
50.595
50.595
50.5949
50.5948
50.5947
50.5947
50.5946
50.5945
50.5945
50.5945
50.5944
50.5944
50.5944
50.5943
50.5943
50.5943
50.5943
50.5942
50.5942
50.5942
50.5942
50.5942
50.5942
50.5941
50.5941
50.5941
50.5941
50.5941
50.5941
50.5941
50.5941
50.5941
50.5941
50.5941
50.5941
50.5941
50.5941
50.5941
50.5941
50.5941
50.5941
50.5941
50.5941
50.5941
50.5941
50.5941
50.5941
50.5941
50.5941
50.5941
50.5941
50.5941
50.5941
50.5941
50.5941
50.5941
50.5942
50.5942
50.5942
50.5942
50.5942
50.5942
50.5943
50.5943
50.5943
50.5943
50.5943
50.5944
50.5944
50.5944
50.5944
50.5945
50.5945
50.5945
50.5946
50.5946
50.5947
50.5947
50.5948
50.5948
50.5949
50.5949
50.595
50.595
50.5951
50.5952
50.5953
50.5953
50.5954
50.5955
50.5956
50.5957
50.5958
50.5959
50.596
50.5961
50.5963
50.5964
50.5966
50.5968
50.5969
50.5971
50.5974
50.5976
50.5978
50.5981
50.5983
50.5986
50.5989
50.5993
50.5996
50.6
50.6003
50.6007
50.6012
50.6016
50.602
50.6025
50.6029
50.6034
50.6039
50.6044
50.6048
50.6053
50.6058
50.6063
50.6067
50.6072
50.6076
50.608
50.6084
50.6088
50.6093
50.6097
50.614
50.6016
50.6415
50.6414
50.6412
50.6411
50.6407
50.6402
50.6396
50.6388
50.6379
50.6369
50.6358
50.6346
50.6334
50.6321
50.6308
50.6295
50.6281
50.6267
50.6252
50.6237
50.6223
50.6209
50.6196
50.6184
50.6173
50.6161
50.615
50.6138
50.6126
50.6114
50.6103
50.6092
50.6082
50.6073
50.6065
50.6058
50.6051
50.6044
50.6037
50.603
50.6023
50.6017
50.6011
50.6005
50.6
50.5995
50.599
50.5985
50.598
50.5975
50.5971
50.5967
50.5964
50.5962
50.5961
50.596
50.5959
50.5958
50.5957
50.5956
50.5955
50.5954
50.5952
50.5951
50.595
50.595
50.5949
50.5948
50.5947
50.5947
50.5946
50.5945
50.5945
50.5945
50.5944
50.5944
50.5944
50.5943
50.5943
50.5943
50.5943
50.5942
50.5942
50.5942
50.5942
50.5942
50.5942
50.5941
50.5941
50.5941
50.5941
50.5941
50.5941
50.5941
50.5941
50.5941
50.5941
50.5941
50.5941
50.5941
50.5941
50.5941
50.5941
50.5941
50.5941
50.5941
50.5941
50.5941
50.5941
50.5941
50.5941
50.5941
50.5941
50.5941
50.5941
50.5941
50.5941
50.5941
50.5941
50.5941
50.5942
50.5942
50.5942
50.5942
50.5942
50.5942
50.5943
50.5943
50.5943
50.5943
50.5943
50.5944
50.5944
50.5944
50.5944
50.5945
50.5945
50.5945
50.5946
50.5946
50.5947
50.5947
50.5948
50.5948
50.5949
50.5949
50.595
50.595
50.5951
50.5952
50.5953
50.5953
50.5954
50.5955
50.5956
50.5957
50.5958
50.5959
50.596
50.5961
50.5963
50.5964
50.5966
50.5968
50.5969
50.5971
50.5974
50.5976
50.5978
50.5981
50.5983
50.5986
50.5989
50.5993
50.5996
50.6
50.6003
50.6007
50.6012
50.6016
50.602
50.6025
50.6029
50.6034
50.6039
50.6044
50.6049
50.6053
50.6058
50.6063
50.6067
50.6072
50.6076
50.608
50.6084
50.6088
50.6093
50.6097
50.6139
50.602
50.6415
50.6414
50.6412
50.6411
50.6407
50.6402
50.6396
50.6388
50.6379
50.6369
50.6358
50.6346
50.6334
50.6321
50.6308
50.6295
50.6281
50.6267
50.6252
50.6237
50.6223
50.6209
50.6196
50.6184
50.6173
50.6161
50.615
50.6138
50.6126
50.6114
50.6103
50.6092
50.6082
50.6073
50.6065
50.6058
50.6051
50.6044
50.6037
50.603
50.6023
50.6017
50.6011
50.6005
50.6
50.5995
50.599
50.5985
50.598
50.5975
50.5971
50.5967
50.5964
50.5962
50.5961
50.596
50.5959
50.5958
50.5957
50.5956
50.5955
50.5954
50.5952
50.5951
50.595
50.595
50.5949
50.5948
50.5947
50.5947
50.5946
50.5945
50.5945
50.5945
50.5944
50.5944
50.5944
50.5943
50.5943
50.5943
50.5943
50.5942
50.5942
50.5942
50.5942
50.5942
50.5942
50.5941
50.5941
50.5941
50.5941
50.5941
50.5941
50.5941
50.5941
50.5941
50.5941
50.5941
50.5941
50.5941
50.5941
50.5941
50.5941
50.5941
50.5941
50.5941
50.5941
50.5941
50.5941
50.5941
50.5941
50.5941
50.5941
50.5941
50.5941
50.5941
50.5941
50.5941
50.5941
50.5941
50.5942
50.5942
50.5942
50.5942
50.5942
50.5942
50.5943
50.5943
50.5943
50.5943
50.5943
50.5944
50.5944
50.5944
50.5944
50.5945
50.5945
50.5945
50.5946
50.5946
50.5947
50.5947
50.5948
50.5948
50.5949
50.5949
50.595
50.595
50.5951
50.5952
50.5953
50.5953
50.5954
50.5955
50.5956
50.5957
50.5958
50.5959
50.596
50.5961
50.5963
50.5964
50.5966
50.5968
50.5969
50.5971
50.5974
50.5976
50.5978
50.5981
50.5983
50.5986
50.5989
50.5993
50.5996
50.6
50.6003
50.6007
50.6012
50.6016
50.602
50.6025
50.6029
50.6034
50.6039
50.6044
50.6048
50.6053
50.6058
50.6063
50.6067
50.6072
50.6076
50.608
50.6084
50.6088
50.6093
50.6098
50.6133
50.6059
50.6415
50.6413
50.6412
50.641
50.6407
50.6402
50.6396
50.6388
50.6379
50.6369
50.6358
50.6346
50.6334
50.6321
50.6308
50.6295
50.6281
50.6267
50.6252
50.6237
50.6223
50.6209
50.6196
50.6184
50.6172
50.6161
50.615
50.6138
50.6126
50.6114
50.6102
50.6092
50.6082
50.6073
50.6065
50.6058
50.6051
50.6044
50.6037
50.603
50.6023
50.6017
50.6011
50.6005
50.6
50.5995
50.599
50.5985
50.598
50.5975
50.5971
50.5967
50.5964
50.5962
50.5961
50.596
50.5959
50.5958
50.5957
50.5956
50.5955
50.5954
50.5952
50.5951
50.595
50.595
50.5949
50.5948
50.5947
50.5947
50.5946
50.5945
50.5945
50.5945
50.5944
50.5944
50.5944
50.5943
50.5943
50.5943
50.5943
50.5942
50.5942
50.5942
50.5942
50.5942
50.5942
50.5941
50.5941
50.5941
50.5941
50.5941
50.5941
50.5941
50.5941
50.5941
50.5941
50.5941
50.5941
50.5941
50.5941
50.5941
50.5941
50.5941
50.5941
50.5941
50.5941
50.5941
50.5941
50.5941
50.5941
50.5941
50.5941
50.5941
50.5941
50.5941
50.5941
50.5941
50.5941
50.5941
50.5942
50.5942
50.5942
50.5942
50.5942
50.5942
50.5943
50.5943
50.5943
50.5943
50.5943
50.5944
50.5944
50.5944
50.5944
50.5945
50.5945
50.5945
50.5946
50.5946
50.5947
50.5947
50.5948
50.5948
50.5949
50.5949
50.595
50.595
50.5951
50.5952
50.5953
50.5953
50.5954
50.5955
50.5956
50.5957
50.5958
50.5959
50.596
50.5961
50.5963
50.5964
50.5966
50.5968
50.5969
50.5971
50.5974
50.5976
50.5978
50.5981
50.5983
50.5986
50.5989
50.5993
50.5996
50.6
50.6003
50.6007
50.6012
50.6016
50.602
50.6025
50.6029
50.6034
50.6039
50.6044
50.6049
50.6053
50.6058
50.6063
50.6067
50.6072
50.6076
50.608
50.6084
50.6088
50.6092
50.6095
50.6115
50.604
50.6415
50.6413
50.6412
50.641
50.6407
50.6402
50.6396
50.6388
50.6379
50.6369
50.6358
50.6346
50.6334
50.6321
50.6308
50.6295
50.6281
50.6267
50.6252
50.6237
50.6223
50.6209
50.6196
50.6184
50.6172
50.6161
50.615
50.6138
50.6126
50.6114
50.6102
50.6092
50.6082
50.6073
50.6065
50.6058
50.6051
50.6044
50.6037
50.603
50.6023
50.6017
50.6011
50.6005
50.6
50.5995
50.599
50.5985
50.598
50.5975
50.5971
50.5967
50.5964
50.5962
50.5961
50.596
50.5959
50.5958
50.5957
50.5956
50.5955
50.5954
50.5952
50.5951
50.595
50.595
50.5949
50.5948
50.5947
50.5947
50.5946
50.5945
50.5945
50.5945
50.5944
50.5944
50.5944
50.5943
50.5943
50.5943
50.5943
50.5942
50.5942
50.5942
50.5942
50.5942
50.5942
50.5941
50.5941
50.5941
50.5941
50.5941
50.5941
50.5941
50.5941
50.5941
50.5941
50.5941
50.5941
50.5941
50.5941
50.5941
50.5941
50.5941
50.5941
50.5941
50.5941
50.5941
50.5941
50.5941
50.5941
50.5941
50.5941
50.5941
50.5941
50.5941
50.5941
50.5941
50.5941
50.5941
50.5942
50.5942
50.5942
50.5942
50.5942
50.5942
50.5943
50.5943
50.5943
50.5943
50.5943
50.5944
50.5944
50.5944
50.5944
50.5945
50.5945
50.5945
50.5946
50.5946
50.5947
50.5947
50.5948
50.5948
50.5949
50.5949
50.595
50.595
50.5951
50.5952
50.5953
50.5953
50.5954
50.5955
50.5956
50.5957
50.5958
50.5959
50.596
50.5961
50.5963
50.5964
50.5966
50.5968
50.5969
50.5971
50.5973
50.5976
50.5978
50.5981
50.5983
50.5986
50.5989
50.5993
50.5996
50.6
50.6003
50.6007
50.6012
50.6016
50.602
50.6025
50.6029
50.6034
50.6039
50.6044
50.6049
50.6053
50.6058
50.6063
50.6067
50.6072
50.6076
50.608
50.6084
50.6088
50.6091
50.6093
50.6088
50.6072
50.6415
50.6414
50.6412
50.6411
50.6407
50.6402
50.6396
50.6388
50.6379
50.6369
50.6358
50.6346
50.6334
50.6321
50.6308
50.6295
50.6281
50.6267
50.6252
50.6237
50.6223
50.6209
50.6196
50.6184
50.6173
50.6161
50.615
50.6138
50.6126
50.6114
50.6103
50.6092
50.6082
50.6073
50.6065
50.6058
50.6051
50.6044
50.6037
50.603
50.6023
50.6017
50.6011
50.6005
50.6
50.5995
50.599
50.5985
50.598
50.5975
50.5971
50.5967
50.5964
50.5962
50.5961
50.596
50.5959
50.5958
50.5957
50.5956
50.5955
50.5954
50.5952
50.5951
50.595
50.595
50.5949
50.5948
50.5947
50.5947
50.5946
50.5945
50.5945
50.5945
50.5944
50.5944
50.5944
50.5943
50.5943
50.5943
50.5943
50.5942
50.5942
50.5942
50.5942
50.5942
50.5942
50.5941
50.5941
50.5941
50.5941
50.5941
50.5941
50.5941
50.5941
50.5941
50.5941
50.5941
50.5941
50.5941
50.5941
50.5941
50.5941
50.5941
50.5941
50.5941
50.5941
50.5941
50.5941
50.5941
50.5941
50.5941
50.5941
50.5941
50.5941
50.5941
50.5941
50.5941
50.5941
50.5941
50.5942
50.5942
50.5942
50.5942
50.5942
50.5942
50.5943
50.5943
50.5943
50.5943
50.5943
50.5944
50.5944
50.5944
50.5944
50.5945
50.5945
50.5945
50.5946
50.5946
50.5947
50.5947
50.5948
50.5948
50.5949
50.5949
50.595
50.595
50.5951
50.5952
50.5953
50.5953
50.5954
50.5955
50.5956
50.5957
50.5958
50.5959
50.596
50.5961
50.5963
50.5964
50.5966
50.5968
50.5969
50.5971
50.5973
50.5976
50.5978
50.5981
50.5983
50.5986
50.5989
50.5993
50.5996
50.6
50.6003
50.6007
50.6012
50.6016
50.602
50.6025
50.6029
50.6034
50.6039
50.6044
50.6049
50.6053
50.6058
50.6063
50.6067
50.6072
50.6076
50.608
50.6084
50.6088
50.609
50.6093
50.6058
50.6178
50.6415
50.6414
50.6412
50.6411
50.6407
50.6402
50.6396
50.6388
50.6379
50.6369
50.6358
50.6346
50.6334
50.6321
50.6308
50.6295
50.6281
50.6267
50.6252
50.6237
50.6223
50.6209
50.6196
50.6184
50.6173
50.6161
50.615
50.6138
50.6126
50.6114
50.6103
50.6092
50.6082
50.6073
50.6065
50.6058
50.6051
50.6044
50.6037
50.603
50.6023
50.6017
50.6011
50.6005
50.6
50.5995
50.599
50.5985
50.598
50.5975
50.5971
50.5967
50.5964
50.5962
50.5961
50.596
50.5959
50.5958
50.5957
50.5956
50.5955
50.5954
50.5952
50.5951
50.595
50.595
50.5949
50.5948
50.5947
50.5947
50.5946
50.5945
50.5945
50.5945
50.5944
50.5944
50.5944
50.5943
50.5943
50.5943
50.5943
50.5942
50.5942
50.5942
50.5942
50.5942
50.5942
50.5941
50.5941
50.5941
50.5941
50.5941
50.5941
50.5941
50.5941
50.5941
50.5941
50.5941
50.5941
50.5941
50.5941
50.5941
50.5941
50.5941
50.5941
50.5941
50.5941
50.5941
50.5941
50.5941
50.5941
50.5941
50.5941
50.5941
50.5941
50.5941
50.5941
50.5941
50.5941
50.5941
50.5942
50.5942
50.5942
50.5942
50.5942
50.5942
50.5943
50.5943
50.5943
50.5943
50.5943
50.5944
50.5944
50.5944
50.5944
50.5945
50.5945
50.5945
50.5946
50.5946
50.5947
50.5947
50.5948
50.5948
50.5949
50.5949
50.595
50.595
50.5951
50.5952
50.5953
50.5953
50.5954
50.5955
50.5956
50.5957
50.5958
50.5959
50.596
50.5961
50.5963
50.5964
50.5966
50.5968
50.5969
50.5971
50.5973
50.5976
50.5978
50.5981
50.5983
50.5986
50.5989
50.5993
50.5996
50.6
50.6003
50.6007
50.6011
50.6016
50.602
50.6025
50.6029
50.6034
50.6039
50.6044
50.6049
50.6053
50.6058
50.6063
50.6067
50.6072
50.6076
50.608
50.6084
50.6088
50.609
50.6097
50.6028
50.647
50.6415
50.6414
50.6412
50.6411
50.6407
50.6402
50.6396
50.6388
50.6379
50.6369
50.6358
50.6346
50.6334
50.6321
50.6309
50.6295
50.6281
50.6267
50.6252
50.6237
50.6223
50.6209
50.6196
50.6184
50.6173
50.6161
50.615
50.6138
50.6126
50.6114
50.6103
50.6092
50.6082
50.6073
50.6065
50.6058
50.6051
50.6044
50.6037
50.603
50.6023
50.6017
50.6011
50.6005
50.6
50.5995
50.599
50.5985
50.598
50.5975
50.5971
50.5967
50.5964
50.5962
50.5961
50.596
50.5959
50.5958
50.5957
50.5956
50.5955
50.5954
50.5952
50.5951
50.595
50.595
50.5949
50.5948
50.5947
50.5947
50.5946
50.5945
50.5945
50.5945
50.5944
50.5944
50.5944
50.5943
50.5943
50.5943
50.5943
50.5942
50.5942
50.5942
50.5942
50.5942
50.5942
50.5941
50.5941
50.5941
50.5941
50.5941
50.5941
50.5941
50.5941
50.5941
50.5941
50.5941
50.5941
50.5941
50.5941
50.5941
50.5941
50.5941
50.5941
50.5941
50.5941
50.5941
50.5941
50.5941
50.5941
50.5941
50.5941
50.5941
50.5941
50.5941
50.5941
50.5941
50.5941
50.5941
50.5942
50.5942
50.5942
50.5942
50.5942
50.5942
50.5943
50.5943
50.5943
50.5943
50.5943
50.5944
50.5944
50.5944
50.5944
50.5945
50.5945
50.5945
50.5946
50.5946
50.5947
50.5947
50.5948
50.5948
50.5949
50.5949
50.595
50.595
50.5951
50.5952
50.5953
50.5953
50.5954
50.5955
50.5956
50.5957
50.5958
50.5959
50.596
50.5961
50.5963
50.5964
50.5966
50.5968
50.5969
50.5971
50.5973
50.5976
50.5978
50.5981
50.5983
50.5986
50.5989
50.5993
50.5996
50.6
50.6003
50.6007
50.6011
50.6016
50.602
50.6025
50.6029
50.6034
50.6039
50.6044
50.6048
50.6053
50.6058
50.6063
50.6067
50.6072
50.6076
50.608
50.6084
50.6088
50.609
50.6099
50.601
50.6624
50.6406
50.6405
50.6403
50.6402
50.6399
50.6394
50.6387
50.6379
50.637
50.636
50.6349
50.6338
50.6325
50.6313
50.63
50.6287
50.6273
50.6259
50.6244
50.6229
50.6215
50.6201
50.6188
50.6176
50.6165
50.6154
50.6142
50.613
50.6118
50.6107
50.6095
50.6084
50.6075
50.6066
50.6058
50.6051
50.6044
50.6037
50.603
50.6023
50.6016
50.601
50.6004
50.5998
50.5994
50.5988
50.5983
50.5978
50.5973
50.5968
50.5964
50.5961
50.5958
50.5956
50.5954
50.5953
50.5952
50.5951
50.595
50.5949
50.5948
50.5947
50.5946
50.5945
50.5944
50.5943
50.5943
50.5942
50.5941
50.5941
50.594
50.594
50.5939
50.5939
50.5939
50.5938
50.5938
50.5938
50.5938
50.5937
50.5937
50.5937
50.5937
50.5937
50.5936
50.5936
50.5936
50.5936
50.5936
50.5936
50.5936
50.5936
50.5935
50.5935
50.5935
50.5935
50.5935
50.5935
50.5935
50.5935
50.5935
50.5935
50.5935
50.5935
50.5935
50.5935
50.5935
50.5935
50.5935
50.5935
50.5935
50.5935
50.5935
50.5935
50.5935
50.5935
50.5935
50.5936
50.5936
50.5936
50.5936
50.5936
50.5936
50.5936
50.5937
50.5937
50.5937
50.5937
50.5937
50.5938
50.5938
50.5938
50.5938
50.5939
50.5939
50.5939
50.594
50.594
50.594
50.5941
50.5941
50.5942
50.5942
50.5943
50.5943
50.5944
50.5944
50.5945
50.5946
50.5946
50.5947
50.5948
50.5948
50.5949
50.595
50.5951
50.5952
50.5953
50.5955
50.5956
50.5957
50.5959
50.596
50.5962
50.5964
50.5966
50.5968
50.597
50.5973
50.5975
50.5978
50.5981
50.5984
50.5987
50.599
50.5994
50.5998
50.6002
50.6006
50.601
50.6015
50.6019
50.6024
50.6028
50.6033
50.6038
50.6043
50.6048
50.6053
50.6057
50.6062
50.6066
50.6071
50.6075
50.6079
50.6082
50.6084
50.6095
50.5989
50.6757
50.6999
50.7393
50.7525
50.7542
50.7539
50.7536
50.7531
50.7519
50.7504
50.7486
50.7467
50.7447
50.7424
50.7397
50.7365
50.7323
50.7268
50.7193
50.7089
50.6929
50.6944
50.7293
50.7429
50.7454
50.7454
50.7454
50.7451
50.7443
50.7429
50.7415
50.7397
50.738
50.7358
50.7333
50.73
50.726
50.7204
50.7129
50.7023
50.6862
50.689
50.7241
50.7397
50.7431
50.7432
50.7432
50.7429
50.7419
50.7404
50.7389
50.737
50.7352
50.7329
50.7304
50.7271
50.723
50.7172
50.7093
50.6979
50.6805
50.6706
50.6903
50.6966
50.6961
50.6949
50.694
50.693
50.6915
50.6897
50.6878
50.6858
50.6836
50.6812
50.6781
50.6744
50.6699
50.6648
50.6573
50.6474
50.6334
50.6396
50.6521
50.6615
50.6682
50.673
50.6759
50.6773
50.6778
50.6776
50.677
50.6758
50.6739
50.6715
50.6684
50.6644
50.6594
50.6527
50.6451
50.6362
50.6257
50.5866
50.577
50.5666
50.5558
50.5459
50.5376
50.5313
50.5263
50.522
50.5185
50.5157
50.5137
50.5119
50.5108
50.5093
50.5082
50.5077
50.5084
50.5095
50.5134
50.5281
50.5067
50.4995
50.5004
50.5019
50.5028
50.5032
50.5039
50.5043
50.5049
50.5049
50.505
50.5047
50.5047
50.5046
50.5055
50.5068
50.51
50.516
50.5268
50.4586
50.4014
50.3581
50.3289
50.3089
50.2935
50.2815
50.2728
50.267
50.2635
50.2618
50.2619
50.2638
50.2681
50.2761
50.2863
50.3019
50.3197
50.3457
50.3773
50.4439
50.3818
50.3432
50.3213
50.3065
50.2955
50.2865
50.2807
50.2771
50.276
50.2762
50.2781
50.2814
50.287
50.2953
50.3066
50.3214
50.3392
50.3629
50.3929
50.4253
50.3386
50.2901
50.2617
50.2427
50.2265
50.2132
50.2034
50.1976
50.1924
50.1904
50.1893
50.1916
50.1951
50.203
50.2144
50.2296
50.2496
50.2758
50.3115
50.6237
50.5836
50.5725
50.5693
50.5682
50.5677
50.5675
50.5673
50.567
50.5667
50.5664
50.566
50.5656
50.5651
50.5646
50.5641
50.5636
50.5631
50.5625
50.562
50.5614
50.5608
50.5601
50.5594
50.5587
50.558
50.5572
50.5565
50.5558
50.5551
50.5544
50.5537
50.5531
50.5524
50.5517
50.551
50.5504
50.5497
50.5491
50.5485
50.5479
50.5473
50.5467
50.5462
50.5457
50.5452
50.5447
50.5443
50.5438
50.5433
50.5429
50.5425
50.5421
50.5418
50.5415
50.5412
50.5409
50.5407
50.5404
50.5402
50.54
50.5398
50.5396
50.5395
50.5393
50.5392
50.5392
50.5391
50.5391
50.5391
50.5391
50.5392
50.5394
50.5395
50.5396
50.5398
50.54
50.5402
50.5405
50.5411
50.5419
50.5427
50.5436
50.5444
50.5451
50.5456
50.546
50.5464
50.5467
50.5463
50.5435
50.5318
50.4955
50.443
50.3933
50.3505
50.3174
50.2951
50.2832
50.2795
50.2803
50.2879
50.3197
50.3775
50.4294
50.4718
50.5041
50.5271
50.5425
50.5522
50.5577
50.5606
50.5618
50.5623
50.5624
50.5619
50.5613
50.5609
50.5606
50.5604
50.5603
50.5603
50.5603
50.5602
50.5602
50.5602
50.5602
50.5601
50.5601
50.56
50.5598
50.5597
50.5595
50.5593
50.559
50.5588
50.5585
50.5581
50.5577
50.5573
50.5569
50.5564
50.5559
50.5554
50.5548
50.5543
50.5537
50.553
50.5524
50.5517
50.5511
50.5504
50.5497
50.549
50.5482
50.5475
50.5468
50.5461
50.5453
50.5446
50.5439
50.5431
50.5424
50.5417
50.541
50.5403
50.5397
50.539
50.5384
50.5377
50.5371
50.5365
50.5359
50.5354
50.5348
50.5343
50.5338
50.5333
50.5329
50.5324
50.532
50.5316
50.5312
50.5308
50.5305
50.5302
50.5298
50.5296
50.5293
50.529
50.5288
50.5285
50.5283
50.5281
50.5279
50.5276
50.5271
50.5272
50.5172
50.5708
50.6236
50.586
50.5752
50.5723
50.5712
50.5708
50.5706
50.5704
50.5702
50.5699
50.5695
50.5691
50.5687
50.5683
50.5678
50.5673
50.5667
50.5662
50.5656
50.5651
50.5645
50.5639
50.5633
50.5626
50.5619
50.5612
50.5604
50.5597
50.5589
50.5582
50.5575
50.5569
50.5562
50.5556
50.5549
50.5542
50.5536
50.553
50.5523
50.5517
50.5511
50.5505
50.5499
50.5494
50.5489
50.5484
50.5479
50.5475
50.5471
50.5466
50.5462
50.5458
50.5454
50.545
50.5447
50.5444
50.5441
50.5439
50.5437
50.5435
50.5433
50.5431
50.5429
50.5428
50.5426
50.5425
50.5424
50.5424
50.5423
50.5423
50.5424
50.5424
50.5425
50.5426
50.5427
50.5429
50.5431
50.5433
50.5436
50.544
50.5444
50.5449
50.5453
50.5457
50.5461
50.5466
50.5472
50.5483
50.5508
50.5544
50.5581
50.5615
50.5642
50.566
50.567
50.5675
50.5675
50.5653
50.5565
50.5434
50.5321
50.5238
50.5186
50.5165
50.5164
50.5175
50.5217
50.5308
50.5392
50.5459
50.5509
50.5544
50.5568
50.5584
50.5595
50.56
50.5604
50.5607
50.5608
50.5608
50.5608
50.5608
50.5608
50.5608
50.5608
50.5608
50.5607
50.5607
50.5606
50.5605
50.5604
50.5602
50.5601
50.5598
50.5596
50.5593
50.559
50.5587
50.5583
50.5579
50.5574
50.557
50.5565
50.5559
50.5554
50.5548
50.5542
50.5536
50.553
50.5523
50.5516
50.5509
50.5502
50.5495
50.5488
50.5481
50.5473
50.5466
50.5459
50.5451
50.5444
50.5437
50.543
50.5423
50.5416
50.5409
50.5402
50.5396
50.5389
50.5383
50.5377
50.5371
50.5365
50.5359
50.5354
50.5349
50.5344
50.5339
50.5334
50.533
50.5326
50.5321
50.5318
50.5314
50.531
50.5307
50.5304
50.5301
50.5298
50.5296
50.5293
50.5291
50.5289
50.5286
50.5284
50.5282
50.5276
50.5276
50.5188
50.5615
50.6235
50.5872
50.5757
50.5722
50.5708
50.5702
50.5699
50.5697
50.5695
50.5692
50.5688
50.5684
50.568
50.5676
50.5671
50.5666
50.5661
50.5655
50.565
50.5644
50.5638
50.5632
50.5626
50.5619
50.5613
50.5605
50.5598
50.559
50.5583
50.5575
50.5568
50.5562
50.5555
50.5549
50.5542
50.5535
50.5529
50.5523
50.5516
50.551
50.5504
50.5498
50.5492
50.5487
50.5482
50.5477
50.5473
50.5468
50.5464
50.5459
50.5455
50.5451
50.5447
50.5444
50.544
50.5437
50.5435
50.5432
50.543
50.5428
50.5426
50.5424
50.5423
50.5421
50.542
50.5419
50.5418
50.5417
50.5417
50.5417
50.5417
50.5417
50.5418
50.5419
50.542
50.5421
50.5423
50.5425
50.5427
50.543
50.5434
50.544
50.5444
50.5449
50.5454
50.5458
50.5462
50.5468
50.5476
50.5495
50.5546
50.5617
50.5682
50.5737
50.5777
50.5802
50.5815
50.5821
50.5822
50.5804
50.5732
50.5631
50.5547
50.5484
50.5445
50.5427
50.5424
50.5429
50.5441
50.5473
50.551
50.5538
50.556
50.5575
50.5586
50.5594
50.5599
50.5602
50.5605
50.5606
50.5607
50.5607
50.5607
50.5607
50.5607
50.5607
50.5607
50.5607
50.5606
50.5605
50.5604
50.5602
50.56
50.5598
50.5596
50.5593
50.559
50.5587
50.5583
50.5579
50.5574
50.557
50.5565
50.5559
50.5554
50.5548
50.5542
50.5536
50.553
50.5523
50.5516
50.5509
50.5502
50.5495
50.5488
50.5481
50.5473
50.5466
50.5459
50.5451
50.5444
50.5437
50.543
50.5423
50.5416
50.5409
50.5402
50.5396
50.5389
50.5383
50.5377
50.5371
50.5365
50.5359
50.5354
50.5349
50.5344
50.5339
50.5334
50.533
50.5326
50.5321
50.5318
50.5314
50.531
50.5307
50.5304
50.5301
50.5298
50.5296
50.5293
50.5291
50.5289
50.5286
50.5284
50.5282
50.5277
50.5275
50.5203
50.5478
50.5938
50.5687
50.5619
50.5615
50.562
50.5622
50.5623
50.5622
50.5621
50.5619
50.5616
50.5612
50.5608
50.5604
50.56
50.5595
50.5589
50.5584
50.5578
50.5572
50.5566
50.556
50.5554
50.5548
50.5541
50.5534
50.5526
50.5519
50.5512
50.5504
50.5498
50.5491
50.5484
50.5477
50.547
50.5464
50.5457
50.5451
50.5444
50.5438
50.5432
50.5427
50.5421
50.5415
50.541
50.5405
50.5401
50.5396
50.5392
50.5387
50.5383
50.5379
50.5375
50.5372
50.5369
50.5366
50.5363
50.5361
50.5359
50.5356
50.5354
50.5352
50.5351
50.5349
50.5348
50.5347
50.5346
50.5346
50.5346
50.5346
50.5347
50.5348
50.5349
50.535
50.5351
50.5353
50.5355
50.5359
50.5364
50.537
50.5376
50.5382
50.5387
50.5391
50.5395
50.54
50.5406
50.5415
50.5435
50.5469
50.5504
50.5536
50.5565
50.5587
50.5602
50.5611
50.5616
50.562
50.5617
50.5596
50.5567
50.5544
50.5527
50.5517
50.5513
50.5513
50.5516
50.5522
50.5533
50.5547
50.5558
50.5568
50.5576
50.5582
50.5587
50.559
50.5594
50.5596
50.5598
50.5599
50.5601
50.5602
50.5603
50.5604
50.5605
50.5605
50.5605
50.5605
50.5605
50.5604
50.5603
50.5602
50.56
50.5598
50.5596
50.5593
50.559
50.5587
50.5583
50.5579
50.5574
50.557
50.5565
50.5559
50.5554
50.5548
50.5542
50.5536
50.553
50.5523
50.5516
50.5509
50.5502
50.5495
50.5488
50.5481
50.5473
50.5466
50.5459
50.5451
50.5444
50.5437
50.543
50.5423
50.5416
50.5409
50.5402
50.5396
50.5389
50.5383
50.5377
50.5371
50.5365
50.5359
50.5354
50.5349
50.5344
50.5339
50.5334
50.533
50.5326
50.5321
50.5318
50.5314
50.531
50.5307
50.5304
50.5301
50.5298
50.5296
50.5293
50.5291
50.5289
50.5286
50.5284
50.5282
50.5278
50.5268
50.5222
50.5245
50.6007
50.5906
50.5846
50.5789
50.5752
50.5733
50.5723
50.5717
50.5712
50.5708
50.5705
50.5701
50.5697
50.5692
50.5687
50.5683
50.5677
50.5672
50.5666
50.566
50.5654
50.5648
50.5642
50.5635
50.5628
50.5622
50.5615
50.5608
50.5601
50.5594
50.5586
50.5579
50.5572
50.5565
50.5558
50.5551
50.5545
50.5538
50.5532
50.5526
50.552
50.5514
50.5509
50.5503
50.5498
50.5493
50.5488
50.5484
50.5479
50.5475
50.5471
50.5467
50.5463
50.546
50.5457
50.5454
50.5451
50.5448
50.5446
50.5444
50.5442
50.544
50.5438
50.5437
50.5435
50.5434
50.5433
50.5432
50.5432
50.5431
50.5431
50.5431
50.5431
50.5432
50.5433
50.5433
50.5434
50.5434
50.5435
50.5436
50.5438
50.5441
50.5444
50.5447
50.545
50.5453
50.5455
50.5457
50.546
50.5464
50.5469
50.5476
50.5487
50.5502
50.5516
50.5526
50.5533
50.5538
50.5543
50.5545
50.5545
50.5545
50.5545
50.5546
50.5548
50.5551
50.5554
50.5558
50.5563
50.5567
50.5571
50.5575
50.5579
50.5582
50.5585
50.5587
50.559
50.5592
50.5594
50.5596
50.5598
50.56
50.5601
50.5602
50.5603
50.5604
50.5604
50.5605
50.5604
50.5604
50.5603
50.5602
50.56
50.5598
50.5596
50.5593
50.559
50.5586
50.5583
50.5579
50.5574
50.557
50.5565
50.5559
50.5554
50.5548
50.5542
50.5536
50.553
50.5523
50.5516
50.5509
50.5502
50.5495
50.5488
50.5481
50.5473
50.5466
50.5459
50.5451
50.5444
50.5437
50.543
50.5423
50.5416
50.5409
50.5402
50.5396
50.5389
50.5383
50.5377
50.5371
50.5365
50.5359
50.5354
50.5349
50.5344
50.5339
50.5334
50.533
50.5326
50.5321
50.5318
50.5314
50.531
50.5307
50.5304
50.5301
50.5298
50.5296
50.5293
50.5291
50.5289
50.5287
50.5285
50.5282
50.528
50.5275
50.5262
50.5223
50.5212
50.5314
50.5374
50.5423
50.5453
50.5467
50.5472
50.5473
50.5471
50.5469
50.5466
50.5463
50.546
50.5456
50.5452
50.5447
50.5442
50.5437
50.5431
50.5425
50.5418
50.5412
50.5406
50.54
50.5394
50.5387
50.538
50.5373
50.5366
50.5358
50.5351
50.5343
50.5336
50.5329
50.5322
50.5316
50.5309
50.5303
50.5297
50.5291
50.5285
50.5279
50.5273
50.5268
50.5263
50.5258
50.5253
50.5249
50.5245
50.5241
50.5237
50.5234
50.523
50.5227
50.5224
50.5221
50.5218
50.5215
50.5214
50.5212
50.5211
50.5211
50.521
50.521
50.521
50.5211
50.5213
50.5215
50.5217
50.5219
50.5222
50.5225
50.5228
50.5233
50.5238
50.5245
50.5253
50.5261
50.5269
50.5277
50.5283
50.5289
50.5293
50.5297
50.5303
50.5311
50.5326
50.5352
50.5381
50.5411
50.5441
50.5468
50.5493
50.5514
50.5533
50.5547
50.5557
50.5563
50.5568
50.5571
50.557
50.5563
50.5557
50.5553
50.555
50.5549
50.5549
50.5551
50.5553
50.5556
50.5559
50.5562
50.5566
50.557
50.5574
50.5577
50.5581
50.5585
50.5588
50.5591
50.5593
50.5596
50.5598
50.56
50.5601
50.5602
50.5603
50.5603
50.5603
50.5603
50.5602
50.5601
50.56
50.5598
50.5595
50.5593
50.559
50.5586
50.5583
50.5579
50.5574
50.557
50.5565
50.5559
50.5554
50.5548
50.5542
50.5536
50.553
50.5523
50.5516
50.5509
50.5502
50.5495
50.5488
50.5481
50.5473
50.5466
50.5459
50.5451
50.5444
50.5437
50.543
50.5423
50.5416
50.5409
50.5402
50.5396
50.5389
50.5383
50.5377
50.5371
50.5365
50.5359
50.5354
50.5349
50.5344
50.5339
50.5334
50.533
50.5326
50.5321
50.5318
50.5314
50.531
50.5307
50.5304
50.5301
50.5298
50.5296
50.5293
50.5291
50.5289
50.5287
50.5285
50.5283
50.5282
50.5283
50.53
50.526
50.5634
50.5853
50.5885
50.5864
50.5847
50.5837
50.583
50.5825
50.5821
50.5816
50.5812
50.5808
50.5804
50.58
50.5796
50.5791
50.5786
50.5781
50.5775
50.5769
50.5763
50.5756
50.5749
50.5743
50.5736
50.5729
50.5722
50.5715
50.5708
50.5702
50.5695
50.5688
50.5682
50.5675
50.5668
50.5662
50.5655
50.5648
50.5641
50.5634
50.5628
50.5622
50.5616
50.5611
50.5606
50.5601
50.5596
50.5592
50.5587
50.5583
50.5578
50.5574
50.557
50.5567
50.5564
50.5561
50.5558
50.5556
50.5553
50.5552
50.555
50.5549
50.5547
50.5546
50.5545
50.5544
50.5543
50.5542
50.5542
50.5541
50.5541
50.5541
50.5542
50.5543
50.5544
50.5545
50.5547
50.5548
50.5549
50.5552
50.5553
50.5554
50.5555
50.5555
50.5555
50.5557
50.556
50.5562
50.5561
50.5557
50.5552
50.5549
50.5549
50.5552
50.5557
50.5565
50.5585
50.5612
50.5631
50.5643
50.565
50.5654
50.5653
50.5638
50.5619
50.5602
50.559
50.5581
50.5574
50.5571
50.557
50.557
50.5571
50.5573
50.5575
50.5578
50.5581
50.5584
50.5587
50.559
50.5593
50.5595
50.5598
50.5599
50.5601
50.5602
50.5603
50.5603
50.5603
50.5603
50.5602
50.5601
50.5599
50.5598
50.5595
50.5593
50.559
50.5586
50.5583
50.5579
50.5574
50.557
50.5565
50.5559
50.5554
50.5548
50.5542
50.5536
50.553
50.5523
50.5516
50.5509
50.5502
50.5495
50.5488
50.5481
50.5473
50.5466
50.5459
50.5451
50.5444
50.5437
50.543
50.5423
50.5416
50.5409
50.5402
50.5396
50.5389
50.5383
50.5377
50.5371
50.5365
50.5359
50.5354
50.5349
50.5344
50.5339
50.5334
50.533
50.5326
50.5321
50.5318
50.5314
50.531
50.5307
50.5304
50.5301
50.5298
50.5296
50.5293
50.5291
50.5289
50.5287
50.5285
50.5284
50.5285
50.5291
50.5329
50.5323
50.4866
50.5323
50.5442
50.5481
50.549
50.549
50.5488
50.5484
50.548
50.5476
50.5472
50.5468
50.5465
50.5461
50.5457
50.5453
50.5448
50.5443
50.5437
50.5431
50.5425
50.5418
50.5411
50.5405
50.5399
50.5393
50.5387
50.5381
50.5374
50.5367
50.5359
50.5351
50.5343
50.5336
50.5328
50.5322
50.5315
50.5309
50.5304
50.5298
50.5292
50.5287
50.5281
50.5276
50.5271
50.5267
50.5263
50.526
50.5257
50.5254
50.5251
50.5247
50.5244
50.5241
50.5237
50.5234
50.523
50.5227
50.5224
50.5222
50.522
50.5218
50.5217
50.5216
50.5216
50.5215
50.5215
50.5216
50.5216
50.5218
50.522
50.5225
50.5231
50.5237
50.5243
50.525
50.5256
50.5262
50.5267
50.5271
50.5275
50.5279
50.5282
50.5287
50.5292
50.5302