/*--------------------------------*- C++ -*----------------------------------*\
| =========                 |                                                 |
| \\      /  F ield         | OpenFOAM: The Open Source CFD Toolbox           |
|  \\    /   O peration     | Version:  3.0.x                                 |
|   \\  /    A nd           | Web:      www.OpenFOAM.org                      |
|    \\/     M anipulation  |                                                 |
\*---------------------------------------------------------------------------*/
FoamFile
{
    version     2.0;
    format      ascii;
    class       volVectorField;
    location    "0.21";
    object      U;
}
// * * * * * * * * * * * * * * * * * * * * * * * * * * * * * * * * * * * * * //

dimensions      [0 1 -1 0 0 0 0];

internalField   nonuniform List<vector> 
13800
(
(57.8965 0.00014252 0)
(57.8934 0.000124049 0)
(57.8906 0.000122705 0)
(57.8877 0.000124773 0)
(57.8847 0.000126588 0)
(57.8816 0.000128073 0)
(57.8785 0.000129321 0)
(57.8754 0.000130388 0)
(57.8723 0.000131276 0)
(57.8692 0.000131998 0)
(57.8661 0.000132604 0)
(57.863 0.000133124 0)
(57.8599 0.000133614 0)
(57.8567 0.000133964 0)
(57.8535 0.000134311 0)
(57.8504 0.000134647 0)
(57.8472 0.000134816 0)
(57.8441 0.000135071 0)
(57.8409 0.000135265 0)
(57.8377 0.000135432 0)
(57.8346 0.000135576 0)
(57.8314 0.0001357 0)
(57.8283 0.000135792 0)
(57.8252 0.000135899 0)
(57.8222 0.000136002 0)
(57.8192 0.000136 0)
(57.8162 0.000136056 0)
(57.8133 0.000136071 0)
(57.8104 0.000136035 0)
(57.8076 0.000135985 0)
(57.8049 0.000135834 0)
(57.8024 0.000135583 0)
(57.7999 0.000135191 0)
(57.7976 0.000134605 0)
(57.7954 0.000133767 0)
(57.7934 0.00013259 0)
(57.7916 0.000131089 0)
(57.79 0.000129015 0)
(57.7887 0.000126461 0)
(57.7876 0.000123289 0)
(57.7868 0.000119463 0)
(57.7864 0.000114959 0)
(57.7863 0.000109782 0)
(57.7865 0.000103953 0)
(57.7871 9.75455e-05 0)
(57.7881 9.06492e-05 0)
(57.7895 8.33761e-05 0)
(57.7912 7.58629e-05 0)
(57.7933 6.82556e-05 0)
(57.7958 6.07027e-05 0)
(57.7986 5.33461e-05 0)
(57.8016 4.63137e-05 0)
(57.8049 3.97137e-05 0)
(57.8084 3.36306e-05 0)
(57.812 2.81223e-05 0)
(57.8156 2.32203e-05 0)
(57.8191 1.89315e-05 0)
(57.8226 1.52412e-05 0)
(57.8259 1.21176e-05 0)
(57.8289 9.51563e-06 0)
(57.8315 7.38235e-06 0)
(57.8337 5.6598e-06 0)
(57.8353 4.29072e-06 0)
(57.8363 3.21825e-06 0)
(57.8367 2.39052e-06 0)
(57.8362 1.76431e-06 0)
(57.835 1.29096e-06 0)
(57.8328 9.44344e-07 0)
(57.8296 6.91203e-07 0)
(57.8255 5.08362e-07 0)
(57.8203 3.76682e-07 0)
(57.814 2.86097e-07 0)
(57.8066 2.22719e-07 0)
(57.7981 1.80047e-07 0)
(57.7886 1.50092e-07 0)
(57.7779 1.28422e-07 0)
(57.7661 1.12096e-07 0)
(57.7534 9.91498e-08 0)
(57.7396 8.81776e-08 0)
(57.725 7.80217e-08 0)
(57.7096 6.89939e-08 0)
(57.6936 5.93661e-08 0)
(57.6769 4.97079e-08 0)
(57.6598 3.94659e-08 0)
(57.6424 2.82388e-08 0)
(57.6248 1.25675e-08 0)
(57.6071 1.46906e-08 0)
(57.5895 1.72019e-08 0)
(57.572 -8.19006e-09 0)
(57.5548 -2.02187e-08 0)
(57.5381 -3.7372e-08 0)
(57.5221 -5.86585e-08 0)
(57.5068 -6.77031e-08 0)
(57.4924 -7.83474e-08 0)
(57.4788 -8.97942e-08 0)
(57.4663 -1.02241e-07 0)
(57.4548 -1.14249e-07 0)
(57.4444 -1.25922e-07 0)
(57.4351 -1.36924e-07 0)
(57.427 -1.47305e-07 0)
(57.4201 -1.56756e-07 0)
(57.4144 -1.65172e-07 0)
(57.4098 -1.72524e-07 0)
(57.4063 -1.78976e-07 0)
(57.4039 -1.84049e-07 0)
(57.4024 -1.87838e-07 0)
(57.4019 -1.9025e-07 0)
(57.4022 -1.91802e-07 0)
(57.4033 -1.91296e-07 0)
(57.405 -1.9004e-07 0)
(57.4074 -1.87001e-07 0)
(57.4102 -1.83119e-07 0)
(57.4133 -1.77716e-07 0)
(57.4168 -1.71133e-07 0)
(57.4206 -1.63872e-07 0)
(57.4244 -1.55469e-07 0)
(57.4284 -1.46173e-07 0)
(57.4324 -1.36558e-07 0)
(57.4363 -1.26375e-07 0)
(57.4402 -1.1577e-07 0)
(57.444 -1.04895e-07 0)
(57.4476 -9.38997e-08 0)
(57.4512 -8.28489e-08 0)
(57.4546 -7.1803e-08 0)
(57.4578 -6.09412e-08 0)
(57.461 -5.03127e-08 0)
(57.464 -3.97709e-08 0)
(57.4669 -2.9517e-08 0)
(57.4698 -1.9406e-08 0)
(57.4726 -9.00961e-09 0)
(57.4753 2.6168e-09 0)
(57.4782 7.91628e-09 0)
(57.4812 -1.80002e-08 0)
(57.4843 3.88562e-08 0)
(57.4872 4.57093e-08 0)
(57.4903 4.146e-08 0)
(57.4936 4.8404e-08 0)
(57.4972 5.64353e-08 0)
(57.5009 6.2276e-08 0)
(57.5049 6.67588e-08 0)
(57.5091 7.06849e-08 0)
(57.5136 7.45403e-08 0)
(57.5183 7.83579e-08 0)
(57.5233 8.1903e-08 0)
(57.5285 8.48628e-08 0)
(57.5339 8.75942e-08 0)
(57.5395 8.95939e-08 0)
(57.5453 9.10088e-08 0)
(57.5513 9.1921e-08 0)
(57.5575 9.22997e-08 0)
(57.5637 9.18854e-08 0)
(57.57 9.13206e-08 0)
(57.5764 8.96551e-08 0)
(57.5827 8.7671e-08 0)
(57.589 8.49409e-08 0)
(57.5952 8.14557e-08 0)
(57.6012 7.72838e-08 0)
(57.6071 7.23907e-08 0)
(57.6126 6.69057e-08 0)
(57.6179 6.06851e-08 0)
(57.6228 5.39856e-08 0)
(57.6274 4.652e-08 0)
(57.6314 3.87249e-08 0)
(57.635 3.06061e-08 0)
(57.6381 2.16208e-08 0)
(57.6406 1.2665e-08 0)
(57.6425 3.27294e-09 0)
(57.6438 -4.63206e-09 0)
(57.6444 -1.71283e-08 0)
(57.6444 -5.0367e-08 0)
(57.6436 -4.52045e-08 0)
(57.6422 -6.04699e-08 0)
(57.64 -7.37196e-08 0)
(57.6371 -8.45314e-08 0)
(57.6336 -9.41172e-08 0)
(57.6294 -1.0261e-07 0)
(57.6246 -1.10073e-07 0)
(57.6192 -1.16485e-07 0)
(57.6132 -1.22006e-07 0)
(57.6067 -1.26615e-07 0)
(57.5997 -1.30544e-07 0)
(57.5922 -1.33689e-07 0)
(57.5843 -1.36325e-07 0)
(57.576 -1.38167e-07 0)
(57.5675 -1.39368e-07 0)
(57.5587 -1.39808e-07 0)
(57.5497 -1.39394e-07 0)
(57.5406 -1.37568e-07 0)
(57.5313 -1.32374e-07 0)
(57.522 -1.13119e-07 0)
(57.5127 -9.53256e-09 0)
(57.5034 4.80626e-07 0)
(57.4942 2.77273e-06 0)
(57.4848 1.37616e-05 0)
(57.474 6.6558e-05 0)
(57.4563 0.000319574 0)
(57.4056 0.00152366 0)
(57.2048 0.00717728 0)
(56.5752 0.0363637 0)
(50.6673 0.143435 0)
(57.9003 0.000222506 0)
(57.9012 0.000161999 0)
(57.9023 0.000149554 0)
(57.9033 0.000147455 0)
(57.9042 0.000145721 0)
(57.9049 0.000144269 0)
(57.9057 0.000143181 0)
(57.9065 0.000142362 0)
(57.9074 0.000141685 0)
(57.9082 0.000141084 0)
(57.909 0.000140574 0)
(57.9098 0.000140152 0)
(57.9105 0.000139871 0)
(57.9113 0.000139501 0)
(57.912 0.000139269 0)
(57.9127 0.000139128 0)
(57.9135 0.000138781 0)
(57.9142 0.000138682 0)
(57.915 0.000138542 0)
(57.9157 0.000138415 0)
(57.9165 0.000138303 0)
(57.9172 0.000138203 0)
(57.918 0.00013809 0)
(57.9188 0.000138041 0)
(57.9196 0.000138017 0)
(57.9205 0.000137835 0)
(57.9214 0.000137798 0)
(57.9224 0.000137714 0)
(57.9234 0.000137579 0)
(57.9246 0.000137474 0)
(57.9258 0.000137244 0)
(57.9271 0.000136929 0)
(57.9285 0.000136479 0)
(57.93 0.000135839 0)
(57.9317 0.000134946 0)
(57.9335 0.000133697 0)
(57.9355 0.00013218 0)
(57.9376 0.00013 0)
(57.9399 0.000127387 0)
(57.9424 0.000124136 0)
(57.9451 0.000120225 0)
(57.948 0.00011563 0)
(57.9511 0.000110361 0)
(57.9543 0.000104429 0)
(57.9578 9.79249e-05 0)
(57.9615 9.09364e-05 0)
(57.9654 8.35754e-05 0)
(57.9694 7.5983e-05 0)
(57.9736 6.83075e-05 0)
(57.9779 6.06987e-05 0)
(57.9823 5.32993e-05 0)
(57.9868 4.62369e-05 0)
(57.9913 3.96192e-05 0)
(57.9958 3.35294e-05 0)
(58.0002 2.80239e-05 0)
(58.0046 2.31323e-05 0)
(58.0087 1.88595e-05 0)
(58.0127 1.5189e-05 0)
(58.0163 1.20874e-05 0)
(58.0196 9.50793e-06 0)
(58.0225 7.39723e-06 0)
(58.0248 5.69589e-06 0)
(58.0266 4.34678e-06 0)
(58.0277 3.29176e-06 0)
(58.0281 2.47865e-06 0)
(58.0277 1.86674e-06 0)
(58.0265 1.40091e-06 0)
(58.0243 1.0626e-06 0)
(58.0212 8.15689e-07 0)
(58.0171 6.39985e-07 0)
(58.0119 5.1392e-07 0)
(58.0056 4.25703e-07 0)
(57.9982 3.59085e-07 0)
(57.9898 3.11066e-07 0)
(57.9802 2.74738e-07 0)
(57.9695 2.46756e-07 0)
(57.9577 2.24427e-07 0)
(57.945 2.05683e-07 0)
(57.9312 1.88881e-07 0)
(57.9166 1.72422e-07 0)
(57.9012 1.57154e-07 0)
(57.8852 1.40442e-07 0)
(57.8685 1.2341e-07 0)
(57.8514 1.04733e-07 0)
(57.8339 8.30933e-08 0)
(57.8163 5.5677e-08 0)
(57.7987 5.41513e-08 0)
(57.781 4.78644e-08 0)
(57.7635 3.1916e-09 0)
(57.7463 -1.71714e-08 0)
(57.7297 -4.69088e-08 0)
(57.7136 -8.48086e-08 0)
(57.6984 -1.01235e-07 0)
(57.6839 -1.20531e-07 0)
(57.6703 -1.41352e-07 0)
(57.6577 -1.6354e-07 0)
(57.6462 -1.84875e-07 0)
(57.6358 -2.05172e-07 0)
(57.6266 -2.24341e-07 0)
(57.6185 -2.42284e-07 0)
(57.6116 -2.58466e-07 0)
(57.6058 -2.72735e-07 0)
(57.6012 -2.84943e-07 0)
(57.5977 -2.95283e-07 0)
(57.5953 -3.03347e-07 0)
(57.5938 -3.09039e-07 0)
(57.5933 -3.12132e-07 0)
(57.5936 -3.13591e-07 0)
(57.5947 -3.11331e-07 0)
(57.5964 -3.0803e-07 0)
(57.5987 -3.01683e-07 0)
(57.6015 -2.93953e-07 0)
(57.6047 -2.83739e-07 0)
(57.6082 -2.71537e-07 0)
(57.6119 -2.5835e-07 0)
(57.6157 -2.43456e-07 0)
(57.6197 -2.27258e-07 0)
(57.6236 -2.10678e-07 0)
(57.6276 -1.93315e-07 0)
(57.6315 -1.75486e-07 0)
(57.6352 -1.57407e-07 0)
(57.6389 -1.39328e-07 0)
(57.6424 -1.21365e-07 0)
(57.6458 -1.03629e-07 0)
(57.649 -8.63814e-08 0)
(57.6522 -6.96535e-08 0)
(57.6552 -5.31947e-08 0)
(57.6581 -3.72709e-08 0)
(57.661 -2.15045e-08 0)
(57.6638 -4.95658e-09 0)
(57.6665 1.08957e-08 0)
(57.6693 1.72086e-08 0)
(57.6724 -2.3123e-08 0)
(57.6755 6.92926e-08 0)
(57.6784 7.52315e-08 0)
(57.6815 6.3845e-08 0)
(57.6848 7.45481e-08 0)
(57.6883 8.72162e-08 0)
(57.6921 9.64338e-08 0)
(57.6961 1.03702e-07 0)
(57.7003 1.10252e-07 0)
(57.7047 1.16843e-07 0)
(57.7094 1.23503e-07 0)
(57.7144 1.29893e-07 0)
(57.7196 1.35651e-07 0)
(57.725 1.413e-07 0)
(57.7306 1.46029e-07 0)
(57.7364 1.50109e-07 0)
(57.7424 1.53592e-07 0)
(57.7486 1.56431e-07 0)
(57.7548 1.58207e-07 0)
(57.7611 1.59965e-07 0)
(57.7675 1.60134e-07 0)
(57.7738 1.59819e-07 0)
(57.7801 1.584e-07 0)
(57.7863 1.56005e-07 0)
(57.7923 1.52437e-07 0)
(57.7981 1.47889e-07 0)
(57.8037 1.42042e-07 0)
(57.809 1.35383e-07 0)
(57.8139 1.27086e-07 0)
(57.8184 1.1843e-07 0)
(57.8225 1.07962e-07 0)
(57.8261 9.83563e-08 0)
(57.8291 8.68131e-08 0)
(57.8316 7.45268e-08 0)
(57.8335 6.04074e-08 0)
(57.8348 5.87064e-08 0)
(57.8354 4.38337e-08 0)
(57.8354 -2.30387e-08 0)
(57.8346 1.81136e-08 0)
(57.8332 -8.39551e-09 0)
(57.831 -3.04388e-08 0)
(57.8281 -4.80153e-08 0)
(57.8246 -6.42748e-08 0)
(57.8204 -7.9387e-08 0)
(57.8156 -9.33971e-08 0)
(57.8102 -1.0613e-07 0)
(57.8042 -1.178e-07 0)
(57.7976 -1.28239e-07 0)
(57.7906 -1.37709e-07 0)
(57.7831 -1.4601e-07 0)
(57.7752 -1.5341e-07 0)
(57.767 -1.5964e-07 0)
(57.7584 -1.6464e-07 0)
(57.7496 -1.68515e-07 0)
(57.7406 -1.70464e-07 0)
(57.7314 -1.68787e-07 0)
(57.7222 -1.54613e-07 0)
(57.7129 -8.02427e-08 0)
(57.7036 2.49131e-07 0)
(57.6943 1.8713e-06 0)
(57.685 9.64917e-06 0)
(57.6756 4.70669e-05 0)
(57.6649 0.000226905 0)
(57.6472 0.00108875 0)
(57.5966 0.00519077 0)
(57.3968 0.0244062 0)
(56.7689 0.12112 0)
(51.1828 0.451624 0)
(57.9003 0.000163268 0)
(57.9012 0.000113395 0)
(57.9022 0.000107397 0)
(57.9033 0.000110456 0)
(57.9042 0.000111593 0)
(57.9049 0.000112015 0)
(57.9057 0.000112397 0)
(57.9065 0.000112758 0)
(57.9074 0.000113052 0)
(57.9082 0.000113274 0)
(57.909 0.000113462 0)
(57.9098 0.000113635 0)
(57.9105 0.000113847 0)
(57.9113 0.000113929 0)
(57.912 0.000114078 0)
(57.9128 0.000114254 0)
(57.9135 0.000114225 0)
(57.9143 0.000114374 0)
(57.915 0.000114459 0)
(57.9157 0.000114532 0)
(57.9165 0.000114597 0)
(57.9173 0.000114654 0)
(57.9181 0.000114687 0)
(57.9189 0.000114758 0)
(57.9197 0.000114832 0)
(57.9206 0.000114772 0)
(57.9215 0.000114824 0)
(57.9225 0.000114822 0)
(57.9235 0.000114772 0)
(57.9247 0.000114743 0)
(57.9259 0.000114596 0)
(57.9272 0.000114375 0)
(57.9286 0.000114038 0)
(57.9302 0.000113535 0)
(57.9318 0.000112814 0)
(57.9336 0.000111793 0)
(57.9356 0.000110536 0)
(57.9378 0.000108726 0)
(57.9401 0.000106546 0)
(57.9426 0.000103828 0)
(57.9453 0.000100554 0)
(57.9482 9.67036e-05 0)
(57.9512 9.22879e-05 0)
(57.9545 8.73141e-05 0)
(57.958 8.18619e-05 0)
(57.9617 7.60043e-05 0)
(57.9655 6.98362e-05 0)
(57.9696 6.34765e-05 0)
(57.9737 5.70495e-05 0)
(57.978 5.06808e-05 0)
(57.9824 4.44898e-05 0)
(57.9869 3.85834e-05 0)
(57.9914 3.30513e-05 0)
(57.9959 2.79626e-05 0)
(58.0003 2.33641e-05 0)
(58.0047 1.92798e-05 0)
(58.0088 1.57135e-05 0)
(58.0128 1.26512e-05 0)
(58.0164 1.00639e-05 0)
(58.0197 7.91257e-06 0)
(58.0226 6.15254e-06 0)
(58.0249 4.73377e-06 0)
(58.0267 3.60852e-06 0)
(58.0278 2.72824e-06 0)
(58.0282 2.04951e-06 0)
(58.0278 1.5384e-06 0)
(58.0266 1.1488e-06 0)
(58.0244 8.65001e-07 0)
(58.0213 6.56025e-07 0)
(58.0172 5.03723e-07 0)
(58.012 3.91267e-07 0)
(58.0057 3.11754e-07 0)
(57.9983 2.53787e-07 0)
(57.9898 2.13385e-07 0)
(57.9803 1.83798e-07 0)
(57.9696 1.61465e-07 0)
(57.9578 1.43851e-07 0)
(57.945 1.29179e-07 0)
(57.9313 1.16092e-07 0)
(57.9167 1.03454e-07 0)
(57.9013 9.16711e-08 0)
(57.8852 7.88901e-08 0)
(57.8686 6.58576e-08 0)
(57.8515 5.1871e-08 0)
(57.834 3.62057e-08 0)
(57.8164 1.69779e-08 0)
(57.7988 1.48523e-08 0)
(57.7811 8.42398e-09 0)
(57.7636 -1.70574e-08 0)
(57.7464 -3.29335e-08 0)
(57.7298 -5.58037e-08 0)
(57.7137 -8.51654e-08 0)
(57.6985 -9.66157e-08 0)
(57.684 -1.10034e-07 0)
(57.6704 -1.24836e-07 0)
(57.6578 -1.40606e-07 0)
(57.6463 -1.55654e-07 0)
(57.6359 -1.69894e-07 0)
(57.6267 -1.83138e-07 0)
(57.6186 -1.95321e-07 0)
(57.6117 -2.06051e-07 0)
(57.6059 -2.15264e-07 0)
(57.6013 -2.22913e-07 0)
(57.5978 -2.29121e-07 0)
(57.5954 -2.33537e-07 0)
(57.5939 -2.36191e-07 0)
(57.5934 -2.36958e-07 0)
(57.5937 -2.36625e-07 0)
(57.5948 -2.33483e-07 0)
(57.5965 -2.29687e-07 0)
(57.5988 -2.23724e-07 0)
(57.6016 -2.16722e-07 0)
(57.6048 -2.08084e-07 0)
(57.6083 -1.98165e-07 0)
(57.612 -1.87605e-07 0)
(57.6158 -1.75969e-07 0)
(57.6198 -1.63564e-07 0)
(57.6237 -1.51047e-07 0)
(57.6277 -1.38176e-07 0)
(57.6315 -1.25149e-07 0)
(57.6353 -1.12152e-07 0)
(57.639 -9.93537e-08 0)
(57.6425 -8.68181e-08 0)
(57.6459 -7.46347e-08 0)
(57.6491 -6.29564e-08 0)
(57.6523 -5.17915e-08 0)
(57.6553 -4.09837e-08 0)
(57.6582 -3.072e-08 0)
(57.661 -2.09201e-08 0)
(57.6639 -1.15645e-08 0)
(57.6666 -1.17351e-09 0)
(57.6694 2.7796e-09 0)
(57.6725 -2.51058e-08 0)
(57.6756 4.12933e-08 0)
(57.6785 4.28937e-08 0)
(57.6816 3.1419e-08 0)
(57.6849 3.8867e-08 0)
(57.6884 4.7498e-08 0)
(57.6922 5.32207e-08 0)
(57.6962 5.7525e-08 0)
(57.7004 6.14401e-08 0)
(57.7048 6.55122e-08 0)
(57.7095 6.97539e-08 0)
(57.7145 7.39114e-08 0)
(57.7197 7.77383e-08 0)
(57.7251 8.15456e-08 0)
(57.7307 8.47754e-08 0)
(57.7365 8.76097e-08 0)
(57.7425 9.00685e-08 0)
(57.7487 9.20916e-08 0)
(57.7549 9.34023e-08 0)
(57.7612 9.46145e-08 0)
(57.7676 9.47342e-08 0)
(57.7739 9.44967e-08 0)
(57.7802 9.34397e-08 0)
(57.7864 9.1593e-08 0)
(57.7924 8.889e-08 0)
(57.7982 8.54361e-08 0)
(57.8038 8.10515e-08 0)
(57.8091 7.59981e-08 0)
(57.814 6.9733e-08 0)
(57.8185 6.29105e-08 0)
(57.8226 5.49746e-08 0)
(57.8262 4.80072e-08 0)
(57.8292 3.9704e-08 0)
(57.8317 2.79089e-08 0)
(57.8336 1.85992e-08 0)
(57.8349 2.46761e-08 0)
(57.8355 1.01403e-08 0)
(57.8355 -9.03333e-08 0)
(57.8347 1.50249e-08 0)
(57.8333 -1.76422e-08 0)
(57.8311 -3.71195e-08 0)
(57.8282 -4.89343e-08 0)
(57.8247 -5.96055e-08 0)
(57.8205 -6.98103e-08 0)
(57.8157 -7.96918e-08 0)
(57.8103 -8.8982e-08 0)
(57.8043 -9.77858e-08 0)
(57.7977 -1.05913e-07 0)
(57.7907 -1.13236e-07 0)
(57.7832 -1.1984e-07 0)
(57.7753 -1.25441e-07 0)
(57.7671 -1.30464e-07 0)
(57.7585 -1.34054e-07 0)
(57.7497 -1.3714e-07 0)
(57.7407 -1.38034e-07 0)
(57.7315 -1.33209e-07 0)
(57.7223 -1.06027e-07 0)
(57.713 3.72261e-08 0)
(57.7037 6.97098e-07 0)
(57.6944 3.89377e-06 0)
(57.6851 1.93067e-05 0)
(57.6757 9.35246e-05 0)
(57.665 0.000450298 0)
(57.6476 0.00216034 0)
(57.598 0.0103047 0)
(57.4031 0.0484504 0)
(56.7935 0.239379 0)
(51.5096 0.873241 0)
(57.9003 0.000118959 0)
(57.9012 0.000103284 0)
(57.9022 0.000100046 0)
(57.9032 0.000103946 0)
(57.9041 0.000106186 0)
(57.9049 0.00010739 0)
(57.9057 0.000108412 0)
(57.9065 0.000109317 0)
(57.9073 0.000110073 0)
(57.9082 0.000110693 0)
(57.9089 0.000111219 0)
(57.9097 0.000111673 0)
(57.9105 0.000112101 0)
(57.9113 0.000112411 0)
(57.912 0.000112725 0)
(57.9127 0.000113028 0)
(57.9135 0.000113178 0)
(57.9142 0.000113418 0)
(57.915 0.000113601 0)
(57.9157 0.000113759 0)
(57.9165 0.000113898 0)
(57.9172 0.000114019 0)
(57.918 0.000114115 0)
(57.9188 0.000114223 0)
(57.9197 0.000114322 0)
(57.9206 0.000114337 0)
(57.9215 0.000114405 0)
(57.9225 0.000114433 0)
(57.9235 0.000114419 0)
(57.9246 0.000114401 0)
(57.9258 0.000114286 0)
(57.9272 0.000114095 0)
(57.9286 0.000113788 0)
(57.9301 0.000113319 0)
(57.9318 0.000112637 0)
(57.9336 0.000111675 0)
(57.9356 0.000110438 0)
(57.9377 0.000108723 0)
(57.94 0.000106604 0)
(57.9425 0.000103966 0)
(57.9452 0.000100778 0)
(57.9481 9.70181e-05 0)
(57.9512 9.26926e-05 0)
(57.9545 8.78104e-05 0)
(57.958 8.2442e-05 0)
(57.9617 7.66569e-05 0)
(57.9655 7.05494e-05 0)
(57.9695 6.42342e-05 0)
(57.9737 5.78341e-05 0)
(57.978 5.14739e-05 0)
(57.9824 4.52735e-05 0)
(57.9869 3.93412e-05 0)
(57.9914 3.37688e-05 0)
(57.9959 2.86284e-05 0)
(58.0003 2.39698e-05 0)
(58.0047 1.98202e-05 0)
(58.0088 1.61866e-05 0)
(58.0128 1.30576e-05 0)
(58.0164 1.04065e-05 0)
(58.0197 8.1961e-06 0)
(58.0226 6.38246e-06 0)
(58.0249 4.91658e-06 0)
(58.0267 3.75042e-06 0)
(58.0278 2.83581e-06 0)
(58.0282 2.12889e-06 0)
(58.0278 1.59343e-06 0)
(58.0266 1.18681e-06 0)
(58.0244 8.88013e-07 0)
(58.0213 6.68114e-07 0)
(58.0172 5.07466e-07 0)
(58.012 3.90716e-07 0)
(58.0057 3.10051e-07 0)
(57.9983 2.54184e-07 0)
(57.9898 2.16643e-07 0)
(57.9803 1.90402e-07 0)
(57.9696 1.71394e-07 0)
(57.9578 1.56998e-07 0)
(57.945 1.45532e-07 0)
(57.9313 1.35728e-07 0)
(57.9167 1.26634e-07 0)
(57.9013 1.18307e-07 0)
(57.8852 1.09473e-07 0)
(57.8686 1.00396e-07 0)
(57.8515 9.06746e-08 0)
(57.834 7.99858e-08 0)
(57.8164 6.6962e-08 0)
(57.7988 6.59888e-08 0)
(57.7811 6.50048e-08 0)
(57.7636 4.93907e-08 0)
(57.7464 3.60227e-08 0)
(57.7298 1.95053e-08 0)
(57.7137 -8.93704e-10 0)
(57.6985 -9.39011e-09 0)
(57.684 -1.88962e-08 0)
(57.6704 -2.94771e-08 0)
(57.6578 -4.09878e-08 0)
(57.6463 -5.21197e-08 0)
(57.6359 -6.31146e-08 0)
(57.6267 -7.32528e-08 0)
(57.6186 -8.27582e-08 0)
(57.6117 -9.1338e-08 0)
(57.6059 -9.89792e-08 0)
(57.6013 -1.05707e-07 0)
(57.5978 -1.11572e-07 0)
(57.5954 -1.16048e-07 0)
(57.5939 -1.1932e-07 0)
(57.5934 -1.21351e-07 0)
(57.5937 -1.22618e-07 0)
(57.5948 -1.21953e-07 0)
(57.5965 -1.20615e-07 0)
(57.5988 -1.17763e-07 0)
(57.6016 -1.13985e-07 0)
(57.6048 -1.09025e-07 0)
(57.6083 -1.03048e-07 0)
(57.612 -9.64094e-08 0)
(57.6158 -8.89075e-08 0)
(57.6198 -8.06834e-08 0)
(57.6237 -7.21766e-08 0)
(57.6277 -6.33033e-08 0)
(57.6315 -5.41224e-08 0)
(57.6353 -4.47769e-08 0)
(57.639 -3.54031e-08 0)
(57.6425 -2.60417e-08 0)
(57.6459 -1.67904e-08 0)
(57.6491 -7.7528e-09 0)
(57.6523 1.05137e-09 0)
(57.6553 9.71239e-09 0)
(57.6582 1.81179e-08 0)
(57.661 2.62574e-08 0)
(57.6639 3.3956e-08 0)
(57.6666 4.29449e-08 0)
(57.6694 4.65578e-08 0)
(57.6725 2.87342e-08 0)
(57.6756 7.22769e-08 0)
(57.6785 7.82634e-08 0)
(57.6816 7.27935e-08 0)
(57.6849 7.88626e-08 0)
(57.6884 8.60052e-08 0)
(57.6922 9.09832e-08 0)
(57.6962 9.47761e-08 0)
(57.7004 9.81902e-08 0)
(57.7048 1.01625e-07 0)
(57.7095 1.0511e-07 0)
(57.7145 1.08449e-07 0)
(57.7197 1.11427e-07 0)
(57.7251 1.1424e-07 0)
(57.7307 1.16543e-07 0)
(57.7365 1.184e-07 0)
(57.7425 1.19878e-07 0)
(57.7487 1.20916e-07 0)
(57.7549 1.21365e-07 0)
(57.7612 1.21575e-07 0)
(57.7676 1.20979e-07 0)
(57.7739 1.20032e-07 0)
(57.7802 1.18433e-07 0)
(57.7864 1.16192e-07 0)
(57.7924 1.13167e-07 0)
(57.7982 1.09823e-07 0)
(57.8038 1.05407e-07 0)
(57.8091 1.01147e-07 0)
(57.814 9.47038e-08 0)
(57.8185 8.92511e-08 0)
(57.8226 8.05138e-08 0)
(57.8262 7.78035e-08 0)
(57.8292 6.73748e-08 0)
(57.8317 6.33891e-08 0)
(57.8336 4.75043e-08 0)
(57.8349 8.55083e-08 0)
(57.8355 5.59625e-08 0)
(57.8355 -1.94185e-07 0)
(57.8347 1.15985e-07 0)
(57.8333 2.74601e-08 0)
(57.8311 -4.48293e-09 0)
(57.8282 -1.55544e-08 0)
(57.8247 -2.35022e-08 0)
(57.8205 -3.08098e-08 0)
(57.8157 -3.78359e-08 0)
(57.8103 -4.42454e-08 0)
(57.8043 -5.03611e-08 0)
(57.7977 -5.58778e-08 0)
(57.7907 -6.07282e-08 0)
(57.7832 -6.52153e-08 0)
(57.7753 -6.83769e-08 0)
(57.7671 -7.2164e-08 0)
(57.7585 -7.31752e-08 0)
(57.7497 -7.52158e-08 0)
(57.7407 -7.18327e-08 0)
(57.7315 -5.63994e-08 0)
(57.7223 1.59233e-08 0)
(57.713 3.64949e-07 0)
(57.7037 2.05444e-06 0)
(57.6944 1.01743e-05 0)
(57.6851 4.92868e-05 0)
(57.6758 0.000237618 0)
(57.6653 0.00114309 0)
(57.6488 0.00548117 0)
(57.6039 0.0260556 0)
(57.4329 0.121014 0)
(56.9039 0.549784 0)
(52.902 1.96925 0)
(57.9003 3.56792e-05 0)
(57.9011 2.78336e-05 0)
(57.9022 1.94875e-05 0)
(57.9032 1.6157e-05 0)
(57.9041 1.37037e-05 0)
(57.9049 1.15401e-05 0)
(57.9057 9.83122e-06 0)
(57.9065 8.47414e-06 0)
(57.9073 7.35398e-06 0)
(57.9081 6.41246e-06 0)
(57.9089 5.61695e-06 0)
(57.9097 4.93989e-06 0)
(57.9105 4.36867e-06 0)
(57.9112 3.85973e-06 0)
(57.912 3.42902e-06 0)
(57.9127 3.06148e-06 0)
(57.9135 2.70751e-06 0)
(57.9142 2.42655e-06 0)
(57.9149 2.17253e-06 0)
(57.9157 1.94776e-06 0)
(57.9164 1.74967e-06 0)
(57.9172 1.57458e-06 0)
(57.918 1.41774e-06 0)
(57.9188 1.28503e-06 0)
(57.9197 1.16823e-06 0)
(57.9205 1.04912e-06 0)
(57.9215 9.58024e-07 0)
(57.9224 8.72969e-07 0)
(57.9235 7.93888e-07 0)
(57.9246 7.32554e-07 0)
(57.9258 6.68673e-07 0)
(57.9271 6.1283e-07 0)
(57.9286 5.6317e-07 0)
(57.9301 5.17335e-07 0)
(57.9318 4.73087e-07 0)
(57.9336 4.30713e-07 0)
(57.9356 4.00161e-07 0)
(57.9377 3.50798e-07 0)
(57.94 3.12934e-07 0)
(57.9425 2.71809e-07 0)
(57.9452 2.2903e-07 0)
(57.9481 1.84999e-07 0)
(57.9512 1.41656e-07 0)
(57.9545 9.42445e-08 0)
(57.958 5.04204e-08 0)
(57.9617 8.73892e-09 0)
(57.9655 -3.02286e-08 0)
(57.9695 -6.48646e-08 0)
(57.9737 -9.41805e-08 0)
(57.978 -1.17396e-07 0)
(57.9824 -1.34168e-07 0)
(57.9869 -1.44558e-07 0)
(57.9914 -1.48978e-07 0)
(57.9959 -1.47925e-07 0)
(58.0003 -1.42185e-07 0)
(58.0047 -1.32838e-07 0)
(58.0088 -1.20826e-07 0)
(58.0128 -1.07087e-07 0)
(58.0164 -9.25499e-08 0)
(58.0197 -7.79749e-08 0)
(58.0226 -6.36435e-08 0)
(58.0249 -5.02317e-08 0)
(58.0267 -3.78498e-08 0)
(58.0278 -2.70721e-08 0)
(58.0282 -1.81747e-08 0)
(58.0278 -1.0322e-08 0)
(58.0266 -5.88752e-09 0)
(58.0244 -1.99042e-09 0)
(58.0213 1.17441e-09 0)
(58.0172 5.60046e-09 0)
(58.012 1.08224e-08 0)
(58.0057 1.46336e-08 0)
(57.9983 1.50757e-08 0)
(57.9898 1.34232e-08 0)
(57.9803 1.06802e-08 0)
(57.9696 7.59766e-09 0)
(57.9578 4.46989e-09 0)
(57.945 1.37129e-09 0)
(57.9313 -1.80446e-09 0)
(57.9167 -5.20048e-09 0)
(57.9013 -8.6344e-09 0)
(57.8852 -1.24021e-08 0)
(57.8686 -1.64024e-08 0)
(57.8515 -2.1082e-08 0)
(57.834 -2.69252e-08 0)
(57.8164 -3.2783e-08 0)
(57.7988 -3.55456e-08 0)
(57.7811 -3.92621e-08 0)
(57.7636 -4.90514e-08 0)
(57.7464 -5.4962e-08 0)
(57.7298 -6.104e-08 0)
(57.7137 -6.84246e-08 0)
(57.6985 -7.25143e-08 0)
(57.684 -7.68549e-08 0)
(57.6704 -8.1494e-08 0)
(57.6578 -8.63786e-08 0)
(57.6463 -9.10805e-08 0)
(57.6359 -9.56588e-08 0)
(57.6267 -9.98244e-08 0)
(57.6186 -1.03717e-07 0)
(57.6117 -1.07244e-07 0)
(57.6059 -1.10383e-07 0)
(57.6013 -1.13113e-07 0)
(57.5978 -1.15397e-07 0)
(57.5954 -1.17135e-07 0)
(57.5939 -1.18315e-07 0)
(57.5934 -1.18882e-07 0)
(57.5937 -1.18994e-07 0)
(57.5948 -1.18332e-07 0)
(57.5965 -1.17334e-07 0)
(57.5988 -1.15756e-07 0)
(57.6016 -1.13789e-07 0)
(57.6048 -1.11346e-07 0)
(57.6083 -1.08408e-07 0)
(57.612 -1.05177e-07 0)
(57.6158 -1.01655e-07 0)
(57.6198 -9.78292e-08 0)
(57.6237 -9.38307e-08 0)
(57.6277 -8.96833e-08 0)
(57.6315 -8.53985e-08 0)
(57.6353 -8.10268e-08 0)
(57.639 -7.66135e-08 0)
(57.6425 -7.21955e-08 0)
(57.6459 -6.78257e-08 0)
(57.6491 -6.35341e-08 0)
(57.6523 -5.93237e-08 0)
(57.6553 -5.51479e-08 0)
(57.6582 -5.09942e-08 0)
(57.661 -4.67328e-08 0)
(57.6639 -4.20607e-08 0)
(57.6666 -3.91348e-08 0)
(57.6694 -3.83619e-08 0)
(57.6725 -4.26189e-08 0)
(57.6756 -2.97588e-08 0)
(57.6785 -2.63642e-08 0)
(57.6816 -2.76075e-08 0)
(57.6849 -2.54004e-08 0)
(57.6884 -2.24882e-08 0)
(57.6922 -2.0147e-08 0)
(57.6962 -1.81872e-08 0)
(57.7004 -1.63917e-08 0)
(57.7048 -1.46516e-08 0)
(57.7095 -1.29473e-08 0)
(57.7145 -1.13379e-08 0)
(57.7197 -9.84468e-09 0)
(57.7251 -8.4005e-09 0)
(57.7307 -7.1165e-09 0)
(57.7365 -5.96659e-09 0)
(57.7425 -4.93407e-09 0)
(57.7487 -4.025e-09 0)
(57.7549 -3.27796e-09 0)
(57.7612 -2.55698e-09 0)
(57.7676 -2.05058e-09 0)
(57.7739 -1.69762e-09 0)
(57.7802 -1.56309e-09 0)
(57.7864 -1.46102e-09 0)
(57.7924 -1.85311e-09 0)
(57.7982 -1.8569e-09 0)
(57.8038 -2.81279e-09 0)
(57.8091 -2.81457e-09 0)
(57.814 -5.46755e-09 0)
(57.8185 -5.9598e-09 0)
(57.8226 -1.03346e-08 0)
(57.8262 -4.19356e-09 0)
(57.8292 -8.91588e-09 0)
(57.8317 -1.09698e-08 0)
(57.8336 -2.26462e-08 0)
(57.8349 3.38801e-08 0)
(57.8355 7.8164e-08 0)
(57.8355 -5.21604e-07 0)
(57.8347 2.72901e-07 0)
(57.8333 2.48869e-08 0)
(57.8311 -2.50323e-08 0)
(57.8282 -3.41719e-08 0)
(57.8247 -3.77821e-08 0)
(57.8205 -4.1271e-08 0)
(57.8157 -4.41412e-08 0)
(57.8103 -4.73307e-08 0)
(57.8043 -4.93759e-08 0)
(57.7977 -5.31413e-08 0)
(57.7907 -5.35497e-08 0)
(57.7832 -5.81027e-08 0)
(57.7753 -5.67713e-08 0)
(57.7671 -6.1863e-08 0)
(57.7585 -5.96909e-08 0)
(57.7497 -6.20323e-08 0)
(57.7407 -5.69685e-08 0)
(57.7315 -3.18287e-08 0)
(57.7223 8.77732e-08 0)
(57.713 6.67752e-07 0)
(57.7037 3.45998e-06 0)
(57.6944 1.69275e-05 0)
(57.6852 8.18602e-05 0)
(57.676 0.000394651 0)
(57.6665 0.00189937 0)
(57.6548 0.00911478 0)
(57.6317 0.0434112 0)
(57.5539 0.202169 0)
(57.318 0.896705 0)
(54.9154 3.17822 0)
(57.9003 -3.56792e-05 0)
(57.9011 -2.78336e-05 0)
(57.9022 -1.94875e-05 0)
(57.9032 -1.6157e-05 0)
(57.9041 -1.37037e-05 0)
(57.9049 -1.15401e-05 0)
(57.9057 -9.83121e-06 0)
(57.9065 -8.47414e-06 0)
(57.9073 -7.35398e-06 0)
(57.9081 -6.41246e-06 0)
(57.9089 -5.61695e-06 0)
(57.9097 -4.9399e-06 0)
(57.9105 -4.36867e-06 0)
(57.9112 -3.85973e-06 0)
(57.912 -3.42902e-06 0)
(57.9127 -3.06148e-06 0)
(57.9135 -2.70751e-06 0)
(57.9142 -2.42655e-06 0)
(57.9149 -2.17252e-06 0)
(57.9157 -1.94776e-06 0)
(57.9164 -1.74967e-06 0)
(57.9172 -1.57458e-06 0)
(57.918 -1.41775e-06 0)
(57.9188 -1.28503e-06 0)
(57.9197 -1.16823e-06 0)
(57.9205 -1.04912e-06 0)
(57.9215 -9.58025e-07 0)
(57.9224 -8.72971e-07 0)
(57.9235 -7.93888e-07 0)
(57.9246 -7.32553e-07 0)
(57.9258 -6.68673e-07 0)
(57.9271 -6.12829e-07 0)
(57.9286 -5.6317e-07 0)
(57.9301 -5.17335e-07 0)
(57.9318 -4.73087e-07 0)
(57.9336 -4.30713e-07 0)
(57.9356 -4.00161e-07 0)
(57.9377 -3.50799e-07 0)
(57.94 -3.12934e-07 0)
(57.9425 -2.7181e-07 0)
(57.9452 -2.29029e-07 0)
(57.9481 -1.84998e-07 0)
(57.9512 -1.41656e-07 0)
(57.9545 -9.42453e-08 0)
(57.958 -5.04196e-08 0)
(57.9617 -8.73873e-09 0)
(57.9655 3.02278e-08 0)
(57.9695 6.48642e-08 0)
(57.9737 9.41812e-08 0)
(57.978 1.17398e-07 0)
(57.9824 1.34169e-07 0)
(57.9869 1.44557e-07 0)
(57.9914 1.48977e-07 0)
(57.9959 1.47926e-07 0)
(58.0003 1.42185e-07 0)
(58.0047 1.32839e-07 0)
(58.0088 1.20827e-07 0)
(58.0128 1.07088e-07 0)
(58.0164 9.25496e-08 0)
(58.0197 7.79751e-08 0)
(58.0226 6.36407e-08 0)
(58.0249 5.02309e-08 0)
(58.0267 3.78497e-08 0)
(58.0278 2.7072e-08 0)
(58.0282 1.81755e-08 0)
(58.0278 1.0322e-08 0)
(58.0266 5.88741e-09 0)
(58.0244 1.98975e-09 0)
(58.0213 -1.1753e-09 0)
(58.0172 -5.59985e-09 0)
(58.012 -1.0821e-08 0)
(58.0057 -1.46342e-08 0)
(57.9983 -1.50763e-08 0)
(57.9898 -1.34237e-08 0)
(57.9803 -1.06803e-08 0)
(57.9696 -7.59678e-09 0)
(57.9578 -4.46857e-09 0)
(57.945 -1.37033e-09 0)
(57.9313 1.80453e-09 0)
(57.9167 5.2017e-09 0)
(57.9013 8.63387e-09 0)
(57.8852 1.2402e-08 0)
(57.8686 1.64016e-08 0)
(57.8515 2.10828e-08 0)
(57.834 2.69231e-08 0)
(57.8164 3.27808e-08 0)
(57.7988 3.55456e-08 0)
(57.7811 3.92623e-08 0)
(57.7636 4.90507e-08 0)
(57.7464 5.4961e-08 0)
(57.7298 6.10405e-08 0)
(57.7137 6.84253e-08 0)
(57.6985 7.25147e-08 0)
(57.684 7.68563e-08 0)
(57.6704 8.14947e-08 0)
(57.6578 8.63787e-08 0)
(57.6463 9.10799e-08 0)
(57.6359 9.5658e-08 0)
(57.6267 9.98248e-08 0)
(57.6186 1.03716e-07 0)
(57.6117 1.07244e-07 0)
(57.6059 1.10382e-07 0)
(57.6013 1.13113e-07 0)
(57.5978 1.15398e-07 0)
(57.5954 1.17134e-07 0)
(57.5939 1.18315e-07 0)
(57.5934 1.18881e-07 0)
(57.5937 1.18994e-07 0)
(57.5948 1.18331e-07 0)
(57.5965 1.17333e-07 0)
(57.5988 1.15758e-07 0)
(57.6016 1.13792e-07 0)
(57.6048 1.11348e-07 0)
(57.6083 1.08407e-07 0)
(57.612 1.05177e-07 0)
(57.6158 1.01656e-07 0)
(57.6198 9.78305e-08 0)
(57.6237 9.38307e-08 0)
(57.6277 8.96848e-08 0)
(57.6315 8.53995e-08 0)
(57.6353 8.10267e-08 0)
(57.639 7.66129e-08 0)
(57.6425 7.21946e-08 0)
(57.6459 6.78253e-08 0)
(57.6491 6.35341e-08 0)
(57.6523 5.93229e-08 0)
(57.6553 5.51475e-08 0)
(57.6582 5.09936e-08 0)
(57.661 4.67315e-08 0)
(57.6639 4.20607e-08 0)
(57.6666 3.91345e-08 0)
(57.6694 3.83628e-08 0)
(57.6725 4.26192e-08 0)
(57.6756 2.97585e-08 0)
(57.6785 2.63647e-08 0)
(57.6816 2.76079e-08 0)
(57.6849 2.54004e-08 0)
(57.6884 2.24886e-08 0)
(57.6922 2.01488e-08 0)
(57.6962 1.81892e-08 0)
(57.7004 1.63901e-08 0)
(57.7048 1.46506e-08 0)
(57.7095 1.29468e-08 0)
(57.7145 1.13374e-08 0)
(57.7197 9.84503e-09 0)
(57.7251 8.40177e-09 0)
(57.7307 7.1174e-09 0)
(57.7365 5.9652e-09 0)
(57.7425 4.93178e-09 0)
(57.7487 4.02555e-09 0)
(57.7549 3.27534e-09 0)
(57.7612 2.56324e-09 0)
(57.7676 2.03685e-09 0)
(57.7739 1.73948e-09 0)
(57.7802 1.54191e-09 0)
(57.7864 1.61077e-09 0)
(57.7924 1.387e-09 0)
(57.7982 2.28049e-09 0)
(57.8038 2.33843e-09 0)
(57.8091 4.19729e-09 0)
(57.814 3.43134e-09 0)
(57.8185 5.73912e-09 0)
(57.8226 4.14012e-09 0)
(57.8262 1.32421e-08 0)
(57.8292 1.21554e-08 0)
(57.8317 1.22985e-08 0)
(57.8336 9.96536e-09 0)
(57.8349 6.3855e-08 0)
(57.8355 1.22488e-07 0)
(57.8355 -5.3157e-07 0)
(57.8347 3.64585e-07 0)
(57.8333 8.46031e-08 0)
(57.8311 3.80311e-08 0)
(57.8282 3.51427e-08 0)
(57.8247 3.84355e-08 0)
(57.8205 4.08845e-08 0)
(57.8157 4.47061e-08 0)
(57.8103 4.66744e-08 0)
(57.8043 5.06879e-08 0)
(57.7977 5.1195e-08 0)
(57.7907 5.61318e-08 0)
(57.7832 5.48699e-08 0)
(57.7753 6.05721e-08 0)
(57.7671 5.82305e-08 0)
(57.7585 6.32422e-08 0)
(57.7497 6.32196e-08 0)
(57.7407 7.00527e-08 0)
(57.7315 9.58927e-08 0)
(57.7223 2.15009e-07 0)
(57.713 7.95285e-07 0)
(57.7037 3.59134e-06 0)
(57.6944 1.70689e-05 0)
(57.6853 8.20856e-05 0)
(57.6764 0.000395796 0)
(57.6681 0.0019105 0)
(57.6623 0.00923271 0)
(57.6666 0.0446945 0)
(57.7117 0.215056 0)
(57.8887 1.01874 0)
(58.5794 3.5724 0)
(57.9003 -0.000118959 0)
(57.9012 -0.000103284 0)
(57.9022 -0.000100046 0)
(57.9032 -0.000103946 0)
(57.9041 -0.000106186 0)
(57.9049 -0.00010739 0)
(57.9057 -0.000108412 0)
(57.9065 -0.000109317 0)
(57.9073 -0.000110073 0)