/*--------------------------------*- C++ -*----------------------------------*\
| =========                 |                                                 |
| \\      /  F ield         | OpenFOAM: The Open Source CFD Toolbox           |
|  \\    /   O peration     | Version:  3.0.x                                 |
|   \\  /    A nd           | Web:      www.OpenFOAM.org                      |
|    \\/     M anipulation  |                                                 |
\*---------------------------------------------------------------------------*/
FoamFile
{
    version     2.0;
    format      ascii;
    class       surfaceScalarField;
    location    "0.4";
    object      phi;
}
// * * * * * * * * * * * * * * * * * * * * * * * * * * * * * * * * * * * * * //

dimensions      [1 0 -1 0 0 0 0];

internalField   nonuniform List<scalar> 
52430
(
3.9061
0.000243625
3.90592
0.000176134
3.90575
0.000169102
3.90558
0.000170335
3.90541
0.000170751
3.90523
0.000170695
3.90506
0.000170662
3.90489
0.000170663
3.90472
0.000170665
3.90455
0.000170662
3.90438
0.000170659
3.9042
0.000170656
3.90403
0.000170653
3.90386
0.000170649
3.90369
0.000170644
3.90352
0.000170641
3.90335
0.000170638
3.90317
0.000170634
3.903
0.00017063
3.90283
0.000170626
3.90266
0.000170622
3.90249
0.000170618
3.90232
0.000170614
3.90214
0.00017061
3.90197
0.000170606
3.9018
0.000170602
3.90163
0.000170599
3.90146
0.000170594
3.90129
0.00017059
3.90112
0.000170585
3.90094
0.00017058
3.90077
0.000170577
3.9006
0.000170574
3.90043
0.000170568
3.90026
0.000170563
3.90009
0.000170557
3.89992
0.000170546
3.89975
0.000170544
3.89957
0.000170567
3.8994
0.000170522
3.89923
0.000170528
3.89906
0.000170522
3.89889
0.000170515
3.89872
0.000170508
3.89855
0.000170504
3.89837
0.000170493
3.8982
0.000170489
3.89803
0.000170479
3.89785
0.000170473
3.89768
0.000170467
3.8975
0.00017046
3.89733
0.000170454
3.89716
0.000170448
3.89699
0.000170443
3.89682
0.000170409
3.89665
0.000170432
3.89648
0.00017056
3.89631
0.000170334
3.89614
0.000170424
3.89598
0.000170425
3.89581
0.000170423
3.89564
0.000170421
3.89547
0.000170419
3.8953
0.000170416
3.89513
0.000170413
3.89496
0.00017041
3.89479
0.000170408
3.89462
0.000170407
3.89444
0.000170399
3.89427
0.000170324
3.89409
0.000170454
3.89392
0.000170385
3.89375
0.000170376
3.89357
0.00017037
3.8934
0.000170364
3.89323
0.000170358
3.89306
0.00017033
3.89289
0.000170342
3.89272
0.000170418
3.89255
0.000170293
3.89238
0.000170334
3.89221
0.000170332
3.89204
0.000170329
3.89187
0.000170326
3.8917
0.000170325
3.89152
0.000170324
3.89135
0.000170312
3.89118
0.000170295
3.89101
0.000170396
3.89085
0.00017026
3.89068
0.000170307
3.89051
0.000170309
3.89034
0.000170305
3.89017
0.0001703
3.89001
0.000170294
3.88984
0.000170286
3.88967
0.000170275
3.8895
0.00017026
3.88933
0.00017024
3.88916
0.00017022
3.88899
0.000170187
3.88881
0.000170138
3.88864
0.000169881
3.88847
0.000170129
3.88829
0.000169877
3.88812
0.000169734
3.88795
0.000169561
3.88778
0.000169342
3.88761
0.000169069
3.88744
0.000168697
3.88727
0.000168294
3.8871
0.000167891
3.88694
0.000167208
3.88678
0.000166486
3.88661
0.000165632
3.88645
0.000164617
3.88629
0.000163433
3.88613
0.000162058
3.88597
0.000160477
3.88581
0.000158671
3.88566
0.000156625
3.8855
0.000154324
3.88535
0.000151757
3.8852
0.000148913
3.88506
0.000145788
3.88491
0.000142378
3.88477
0.000138684
3.88464
0.000134713
3.88451
0.000130475
3.88438
0.000125984
3.88426
0.000121258
3.88415
0.000116321
3.88403
0.000111198
3.88393
0.000105922
3.88383
0.000100522
3.88373
9.50354e-05
3.88364
8.9498e-05
3.88356
8.39462e-05
3.88348
7.84178e-05
3.88341
7.29488e-05
3.88334
6.75764e-05
3.88328
6.2325e-05
3.88322
5.72317e-05
3.88317
5.23267e-05
3.88312
4.76266e-05
3.88308
4.31532e-05
3.88304
3.89224e-05
3.883
3.49458e-05
3.88297
3.12311e-05
3.88294
2.77823e-05
3.88292
2.45998e-05
3.8829
2.16807e-05
3.88288
1.90193e-05
3.88286
1.66071e-05
3.88285
1.44336e-05
3.88284
1.2487e-05
3.88283
1.07539e-05
3.88282
9.21876e-06
3.88281
7.86763e-06
3.8828
6.68503e-06
3.8828
5.65576e-06
3.88279
4.76497e-06
3.88279
3.99834e-06
3.88279
3.34221e-06
3.88278
2.78375e-06
3.88278
2.31101e-06
3.88278
1.91302e-06
3.88278
1.57976e-06
3.88278
1.3022e-06
3.88278
1.07225e-06
3.88277
8.82776e-07
3.88277
7.27456e-07
3.88277
6.00807e-07
3.88277
4.98068e-07
3.88277
4.15153e-07
3.88277
3.48591e-07
3.88277
2.95422e-07
3.88277
2.53165e-07
3.88277
2.1975e-07
3.88277
1.93462e-07
3.88277
1.72884e-07
3.88277
1.56851e-07
3.88277
1.44424e-07
3.88277
1.34838e-07
3.88277
1.27478e-07
3.88277
1.21861e-07
3.88277
1.17587e-07
3.88277
1.14358e-07
3.88277
1.11926e-07
3.88277
1.10107e-07
3.88277
1.08748e-07
3.88277
1.07741e-07
3.88277
1.07e-07
3.88277
1.06455e-07
3.88277
1.0606e-07
3.88277
1.05772e-07
3.88277
1.05565e-07
3.88277
1.05418e-07
3.88277
1.05316e-07
3.88277
1.05241e-07
3.88277
1.05194e-07
3.88277
1.05161e-07
3.88277
1.05141e-07
3.88277
1.0513e-07
3.88277
1.05127e-07
3.88277
1.05127e-07
3.88277
1.05127e-07
3.88277
1.0513e-07
3.88277
1.05138e-07
3.88276
1.05145e-07
3.88276
1.05152e-07
3.88276
1.05159e-07
3.88276
1.05169e-07
3.88276
1.05178e-07
3.88276
1.05187e-07
3.88276
1.05194e-07
3.88276
1.05209e-07
3.88276
1.05218e-07
3.88276
1.05229e-07
3.88276
1.05241e-07
3.88276
1.0525e-07
3.88276
1.05265e-07
3.88276
1.05279e-07
3.88275
1.05292e-07
3.88275
1.05307e-07
3.88275
1.05319e-07
3.88275
1.0533e-07
3.88275
1.05339e-07
3.88275
1.0535e-07
3.88275
1.05356e-07
3.88275
1.05363e-07
3.88275
1.05374e-07
3.88275
1.0538e-07
3.88275
1.05381e-07
3.88274
1.05385e-07
3.88274
1.05394e-07
3.88274
1.054e-07
3.88274
1.05403e-07
3.88274
1.05407e-07
3.88274
1.05412e-07
3.88274
1.05416e-07
3.88274
1.05425e-07
3.88273
1.05432e-07
3.88273
1.0544e-07
3.88273
1.05452e-07
3.88273
1.05463e-07
3.88273
1.05472e-07
3.88273
1.05483e-07
3.88273
1.0549e-07
3.88273
1.05503e-07
3.88272
1.05512e-07
3.88272
1.05523e-07
3.88272
1.05536e-07
3.88272
1.05543e-07
3.88272
1.05552e-07
3.88272
1.05563e-07
3.88272
1.05569e-07
3.88272
1.05574e-07
3.88271
1.05581e-07
3.88271
1.05589e-07
3.88271
1.05596e-07
3.88271
1.05603e-07
3.88271
1.05609e-07
3.88271
1.0562e-07
3.88271
1.05629e-07
3.88271
1.05632e-07
3.8827
1.0564e-07
3.8827
1.05643e-07
3.8827
1.05651e-07
3.8827
1.05654e-07
3.8827
1.05665e-07
3.8827
1.05671e-07
3.8827
1.05676e-07
3.88269
1.05685e-07
3.88269
1.05694e-07
3.88269
1.057e-07
3.88269
1.05707e-07
3.88269
1.05716e-07
3.88269
1.05727e-07
3.88269
1.05738e-07
3.88269
1.05743e-07
3.88268
1.05754e-07
3.88268
1.05763e-07
3.88268
1.05774e-07
3.88268
1.05787e-07
3.88268
1.058e-07
3.88268
1.05811e-07
3.88268
1.05823e-07
3.88268
1.05836e-07
3.88267
1.05849e-07
3.88267
1.05867e-07
3.88267
1.05882e-07
3.88267
1.05898e-07
3.88267
1.05916e-07
3.88267
1.05938e-07
3.88267
1.0598e-07
3.88267
1.05942e-07
3.88266
1.06029e-07
3.88266
1.06002e-07
3.88266
1.06053e-07
3.88266
1.06074e-07
3.88266
1.0612e-07
3.88266
1.06136e-07
3.88266
1.0618e-07
3.88265
1.06214e-07
3.88265
1.06249e-07
3.88265
1.06287e-07
3.88265
1.06329e-07
3.88265
1.06375e-07
3.88265
1.06422e-07
3.88264
1.06482e-07
3.88264
1.06531e-07
3.88264
1.06589e-07
3.88264
1.06646e-07
3.88264
1.06709e-07
3.88263
1.06776e-07
3.88263
1.06844e-07
3.88263
1.06929e-07
3.88263
1.07011e-07
3.88262
1.07102e-07
3.88262
1.07193e-07
3.88262
1.07295e-07
3.88261
1.074e-07
3.88261
1.07511e-07
3.88261
1.07633e-07
3.8826
1.07759e-07
3.8826
1.07892e-07
3.8826
1.08033e-07
3.88259
1.08179e-07
3.88259
1.08334e-07
3.88258
1.08497e-07
3.88258
1.08672e-07
3.88257
1.08854e-07
3.88257
1.09041e-07
3.88256
1.09239e-07
3.88256
1.09447e-07
3.88255
1.0966e-07
3.88255
1.09887e-07
3.88254
1.10122e-07
3.88253
1.10371e-07
3.88253
1.10631e-07
3.88252
1.10904e-07
3.88251
1.11188e-07
3.8825
1.11491e-07
3.88249
1.11806e-07
3.88248
1.12132e-07
3.88247
1.12474e-07
3.88246
1.1283e-07
3.88245
1.13205e-07
3.88244
1.13592e-07
3.88243
1.14002e-07
3.88242
1.14427e-07
3.8824
1.14871e-07
3.88239
1.15337e-07
3.88238
1.15817e-07
3.88236
1.16321e-07
3.88235
1.16843e-07
3.88233
1.17385e-07
3.88231
1.17952e-07
3.8823
1.18542e-07
3.88228
1.19153e-07
3.88226
1.19786e-07
3.88224
1.20444e-07
3.88222
1.21128e-07
3.8822
1.2184e-07
3.88217
1.22576e-07
3.88215
1.2334e-07
3.88212
1.24131e-07
3.8821
1.24952e-07
3.88207
1.25805e-07
3.88204
1.26685e-07
3.88201
1.27602e-07
3.88198
1.28557e-07
3.88195
1.29561e-07
3.88192
1.3064e-07
3.88188
1.31848e-07
3.88185
1.33314e-07
3.88181
1.35351e-07
3.88177
1.387e-07
3.88173
1.45137e-07
3.88169
1.58916e-07
3.88164
1.9019e-07
3.8816
2.63246e-07
3.88155
4.36148e-07
3.8815
8.47756e-07
3.88144
1.83005e-06
3.88139
4.17673e-06
3.88132
9.78507e-06
3.88124
2.31893e-05
3.88113
5.52207e-05
3.88093
0.000131735
3.88055
0.000314378
3.87974
0.000749857
3.87788
0.00178626
3.87357
0.00424649
3.86342
0.0100695
3.83952
0.0238231
3.78274
0.0566991
3.64126
0.1414
0.381246
3.25993
5.52448
0.000213027
5.52448
0.000170389
5.52449
0.000156211
5.5245
0.000158432
5.52451
0.000159431
5.52452
0.000159325
5.52453
0.000159265
5.52454
0.000159283
5.52455
0.000159304
5.52456
0.000159314
5.52457
0.000159323
5.52458
0.000159331
5.52459
0.000159338
5.5246
0.000159345
5.52461
0.000159352
5.52462
0.000159361
5.52462
0.000159367
5.52463
0.000159374
5.52464
0.000159382
5.52465
0.000159388
5.52466
0.000159395
5.52467
0.000159402
5.52468
0.000159409
5.52469
0.000159416
5.5247
0.000159423
5.52471
0.00015943
5.52472
0.000159434
5.52473
0.000159442
5.52474
0.000159449
5.52475
0.000159456
5.52476
0.000159461
5.52477
0.000159465
5.52478
0.000159478
5.52479
0.000159481
5.5248
0.000159486
5.52481
0.000159491
5.52482
0.000159493
5.52483
0.000159498
5.52484
0.000159531
5.52485
0.000159502
5.52486
0.000159516
5.52486
0.000159521
5.52487
0.000159525
5.52488
0.000159529
5.52489
0.000159535
5.5249
0.000159537
5.52491
0.00015954
5.52491
0.000159544
5.52492
0.000159548
5.52492
0.000159552
5.52493
0.000159557
5.52494
0.000159561
5.52495
0.000159567
5.52496
0.000159571
5.52496
0.000159555
5.52498
0.000159586
5.52499
0.000159697
5.525
0.000159524
5.52502
0.000159602
5.52503
0.000159617
5.52505
0.000159626
5.52506
0.000159634
5.52507
0.000159643
5.52508
0.000159651
5.52509
0.000159658
5.5251
0.000159666
5.52511
0.000159675
5.52512
0.000159683
5.52513
0.000159685
5.52513
0.000159621
5.52514
0.00015976
5.52514
0.000159708
5.52515
0.000159707
5.52516
0.000159711
5.52516
0.000159716
5.52517
0.00015972
5.52518
0.000159708
5.52519
0.000159727
5.5252
0.000159797
5.52521
0.000159709
5.52522
0.000159749
5.52523
0.000159758
5.52524
0.000159766
5.52525
0.000159775
5.52526
0.000159781
5.52527
0.000159793
5.52528
0.000159791
5.52529
0.00015979
5.5253
0.00015988
5.52531
0.000159783
5.52533
0.000159824
5.52534
0.000159841
5.52536
0.000159846
5.52537
0.000159852
5.52538
0.000159857
5.52539
0.000159859
5.5254
0.000159858
5.52542
0.000159853
5.52543
0.000159843
5.52543
0.000159832
5.52544
0.000159808
5.52545
0.000159765
5.52546
0.000159545
5.52546
0.000159759
5.52547
0.000159544
5.52547
0.000159404
5.52548
0.000159241
5.52549
0.000159031
5.5255
0.000158767
5.52551
0.000158412
5.52552
0.000158018
5.52553
0.00015761
5.52554
0.000156956
5.52555
0.000156239
5.52557
0.000155407
5.52558
0.00015441
5.52559
0.000153248
5.52561
0.000151902
5.52562
0.000150354
5.52563
0.000148588
5.52564
0.00014659
5.52565
0.000144347
5.52566
0.000141848
5.52567
0.000139085
5.52568
0.000136054
5.52569
0.000132752
5.5257
0.000129184
5.52571
0.000125356
5.52571
0.000121278
5.52572
0.000116967
5.52573
0.00011244
5.52574
0.000107722
5.52575
0.000102839
5.52575
9.78176e-05
5.52576
9.26948e-05
5.52577
8.7501e-05
5.52578
8.22713e-05
5.52578
7.70423e-05
5.52579
7.18474e-05
5.5258
6.67211e-05
5.5258
6.16978e-05
5.52581
5.68007e-05
5.52581
5.20628e-05
5.52582
4.75116e-05
5.52582
4.31618e-05
5.52582
3.90324e-05
5.52583
3.51369e-05
5.52583
3.14848e-05
5.52583
2.8082e-05
5.52584
2.49308e-05
5.52584
2.20304e-05
5.52584
1.93769e-05
5.52584
1.69636e-05
5.52585
1.4782e-05
5.52585
1.28211e-05
5.52585
1.10694e-05
5.52585
9.51378e-06
5.52585
8.13928e-06
5.52585
6.93252e-06
5.52585
5.87891e-06
5.52585
4.96419e-06
5.52585
4.17449e-06
5.52585
3.49653e-06
5.52585
2.91771e-06
5.52586
2.42626e-06
5.52586
2.01126e-06
5.52586
1.66272e-06
5.52586
1.37157e-06
5.52586
1.12968e-06
5.52586
9.29774e-07
5.52586
7.65436e-07
5.52586
6.31049e-07
5.52586
5.21731e-07
5.52586
4.33262e-07
5.52586
3.62037e-07
5.52586
3.04995e-07
5.52586
2.59537e-07
5.52586
2.23496e-07
5.52586
1.95066e-07
5.52586
1.72749e-07
5.52586
1.55322e-07
5.52586
1.41776e-07
5.52586
1.31303e-07
5.52586
1.23237e-07
5.52586
1.17068e-07
5.52586
1.12364e-07
5.52586
1.08796e-07
5.52586
1.06105e-07
5.52586
1.04086e-07
5.52586
1.02577e-07
5.52586
1.01451e-07
5.52585
1.00621e-07
5.52585
1.00009e-07
5.52585
9.95624e-08
5.52585
9.92377e-08
5.52585
9.90003e-08
5.52585
9.88302e-08
5.52585
9.87111e-08
5.52585
9.86229e-08
5.52585
9.85629e-08
5.52585
9.85237e-08
5.52585
9.84992e-08
5.52585
9.84846e-08
5.52585
9.84737e-08
5.52585
9.84701e-08
5.52585
9.8471e-08
5.52585
9.84701e-08
5.52585
9.84746e-08
5.52585
9.84792e-08
5.52584
9.8481e-08
5.52584
9.84919e-08
5.52584
9.85001e-08
5.52584
9.85046e-08
5.52584
9.85128e-08
5.52584
9.8521e-08
5.52584
9.85274e-08
5.52584
9.85374e-08
5.52584
9.85456e-08
5.52584
9.85574e-08
5.52583
9.85692e-08
5.52583
9.85801e-08
5.52583
9.85974e-08
5.52583
9.86056e-08
5.52583
9.86192e-08
5.52583
9.86338e-08
5.52583
9.86447e-08
5.52583
9.86583e-08
5.52582
9.86693e-08
5.52582
9.86784e-08
5.52582
9.86865e-08
5.52582
9.86947e-08
5.52582
9.8702e-08
5.52582
9.87102e-08
5.52582
9.87129e-08
5.52581
9.87166e-08
5.52581
9.87266e-08
5.52581
9.87347e-08
5.52581
9.87384e-08
5.52581
9.87457e-08
5.52581
9.87529e-08
5.5258
9.87575e-08
5.5258
9.87702e-08
5.5258
9.87784e-08
5.5258
9.87902e-08
5.5258
9.8803e-08
5.5258
9.88148e-08
5.52579
9.88239e-08
5.52579
9.88357e-08
5.52579
9.88412e-08
5.52579
9.88566e-08
5.52579
9.88666e-08
5.52578
9.88766e-08
5.52578
9.88894e-08
5.52578
9.88975e-08
5.52578
9.89085e-08
5.52578
9.89148e-08
5.52577
9.89194e-08
5.52577
9.89276e-08
5.52577
9.8933e-08
5.52577
9.89376e-08
5.52577
9.89412e-08
5.52577
9.89485e-08
5.52576
9.89567e-08
5.52576
9.89648e-08
5.52576
9.89694e-08
5.52576
9.89703e-08
5.52576
9.89776e-08
5.52575
9.89794e-08
5.52575
9.89867e-08
5.52575
9.89894e-08
5.52575
9.89967e-08
5.52575
9.90021e-08
5.52574
9.90067e-08
5.52574
9.9014e-08
5.52574
9.90185e-08
5.52574
9.90221e-08
5.52574
9.90294e-08
5.52573
9.90358e-08
5.52573
9.90458e-08
5.52573
9.90522e-08
5.52573
9.90594e-08
5.52573
9.90667e-08
5.52573
9.90749e-08
5.52572
9.90804e-08
5.52572
9.90904e-08
5.52572
9.90985e-08
5.52572
9.91067e-08
5.52572
9.91176e-08
5.52571
9.91286e-08
5.52571
9.91413e-08
5.52571
9.91568e-08
5.52571
9.91686e-08
5.52571
9.91831e-08
5.52571
9.91986e-08
5.5257
9.92122e-08
5.5257
9.92532e-08
5.5257
9.92923e-08
5.5257
9.92604e-08
5.5257
9.92368e-08
5.52569
9.93195e-08
5.52569
9.93314e-08
5.52569
9.93759e-08
5.52569
9.94069e-08
5.52569
9.94478e-08
5.52568
9.94833e-08
5.52568
9.95051e-08
5.52568
9.95451e-08
5.52568
9.95833e-08
5.52567
9.96279e-08
5.52567
9.9667e-08
5.52567
9.97288e-08
5.52567
9.97716e-08
5.52566
9.98343e-08
5.52566
9.98798e-08
5.52566
9.99435e-08
5.52565
1.00011e-07
5.52565
1.00074e-07
5.52565
1.00154e-07
5.52564
1.0023e-07
5.52564
1.00315e-07
5.52563
1.00403e-07
5.52563
1.00501e-07
5.52563
1.00599e-07
5.52562
1.00707e-07
5.52562
1.00824e-07
5.52561
1.0094e-07
5.52561
1.01068e-07
5.5256
1.01201e-07
5.5256
1.01338e-07
5.52559
1.01485e-07
5.52558
1.01642e-07
5.52558
1.01804e-07
5.52557
1.01976e-07
5.52556
1.02152e-07
5.52555
1.0234e-07
5.52555
1.02535e-07
5.52554
1.02735e-07
5.52553
1.02949e-07
5.52552
1.0317e-07
5.52551
1.03403e-07
5.5255
1.03645e-07
5.52549
1.03903e-07
5.52548
1.0417e-07
5.52546
1.04455e-07
5.52545
1.0475e-07
5.52544
1.05053e-07
5.52543
1.05374e-07
5.52541
1.05707e-07
5.5254
1.06057e-07
5.52538
1.0642e-07
5.52536
1.06801e-07
5.52535
1.07201e-07
5.52533
1.07617e-07
5.52531
1.0805e-07
5.52529
1.08497e-07
5.52527
1.0897e-07
5.52525
1.09458e-07
5.52522
1.09965e-07
5.5252
1.10491e-07
5.52517
1.11041e-07
5.52515
1.1161e-07
5.52512
1.12197e-07
5.52509
1.12813e-07
5.52506
1.1345e-07
5.52503
1.14115e-07
5.525
1.14801e-07
5.52497
1.15514e-07
5.52493
1.16251e-07
5.52489
1.17016e-07
5.52486
1.17811e-07
5.52482
1.18637e-07
5.52477
1.19499e-07
5.52473
1.20405e-07
5.52468
1.21385e-07
5.52464
1.22486e-07
5.52459
1.23851e-07
5.52454
1.25784e-07
5.52448
1.29039e-07
5.52443
1.35399e-07
5.52437
1.4914e-07
5.52431
1.80508e-07
5.52425
2.53944e-07
5.52418
4.27923e-07
5.52412
8.42287e-07
5.52404
1.83139e-06
5.52397
4.19466e-06
5.52389
9.84334e-06
5.5238
2.33462e-05
5.52368
5.56217e-05
5.52352
0.000132752
5.52325
0.000317002
5.52271
0.000756823
5.52156
0.00180553
5.51895
0.00430151
5.51287
0.0102271
5.49858
0.0242554
5.46489
0.0574018
5.38485
0.136624
5.1868
0.339341
0.873855
4.69407
7.81278
0.000176104
7.81279
0.000158687
7.81281
0.000138965
7.81282
0.000141521
7.81283
0.000143227
7.81285
0.000143106
7.81286
0.000143004
7.81287
0.000143037
7.81289
0.00014307
7.8129
0.000143085
7.81291
0.000143096
7.81293
0.000143106
7.81294
0.000143114
7.81296
0.000143122
7.81297
0.00014313
7.81298
0.000143139
7.813
0.000143146
7.81301
0.000143153
7.81303
0.00014316
7.81304
0.000143167
7.81305
0.000143174
7.81307
0.000143181
7.81308
0.000143187
7.81309
0.000143194
7.81311
0.000143201
7.81312
0.000143208
7.81314
0.00014321
7.81315
0.000143218
7.81317
0.000143225
7.81318
0.000143233
7.81319
0.000143236
7.81321
0.000143234
7.81322
0.000143254
7.81324
0.000143254
7.81325
0.000143259
7.81326
0.000143262
7.81328
0.000143266
7.81329
0.000143269
7.81331
0.000143299
7.81332
0.000143276
7.81333
0.000143285
7.81335
0.000143291
7.81336
0.000143294
7.81338
0.000143298
7.81339
0.000143303
7.81341
0.000143306
7.81342
0.000143307
7.81342
0.000143311
7.81343
0.000143315
7.81344
0.000143319
7.81345
0.000143323
7.81346
0.000143327
7.81347
0.000143332
7.81349
0.000143335
7.8135
0.000143325
7.81352
0.000143353
7.81354
0.000143432
7.81356
0.000143307
7.81358
0.00014336
7.8136
0.000143377
7.81362
0.000143385
7.81364
0.000143393
7.81366
0.0001434
7.81367
0.000143408
7.81369
0.000143415
7.8137
0.000143422
7.81372
0.00014343
7.81373
0.000143437
7.81375
0.000143436
7.81376
0.000143377
7.81376
0.000143507
7.81377
0.000143463
7.81378
0.000143459
7.81379
0.000143462
7.8138
0.000143466
7.81382
0.000143469
7.81383
0.000143463
7.81385
0.000143479
7.81386
0.000143528
7.81388
0.000143469
7.81389
0.000143496
7.81391
0.000143505
7.81392
0.000143512
7.81394
0.000143522
7.81395
0.000143523
7.81397
0.000143536
7.81398
0.000143534
7.814
0.000143538
7.81402
0.000143603
7.81404
0.000143538
7.81406
0.000143559
7.81408
0.000143581
7.8141
0.000143584
7.81412
0.000143589
7.81414
0.000143594
7.81416
0.000143596
7.81417
0.000143595
7.81419
0.000143591
7.81421
0.000143582
7.81422
0.000143573
7.81424
0.000143552
7.81425
0.000143508
7.81426
0.00014333
7.81427
0.000143496
7.81428
0.000143326
7.81429
0.000143195
7.8143
0.000143051
7.81431
0.000142865
7.81432
0.00014263
7.81434
0.000142319
7.81435
0.00014197
7.81437
0.000141598
7.81439
0.00014103
7.81441
0.000140384
7.81443
0.000139651
7.81445
0.000138764
7.81447
0.000137731
7.81449
0.000136534
7.81451
0.000135157
7.81452
0.000133586
7.81454
0.000131807
7.81455
0.000129809
7.81457
0.000127582
7.81458
0.000125119
7.81459
0.000122415
7.81461
0.000119469
7.81462
0.000116284
7.81463
0.000112865
7.81464
0.000109221
7.81465
0.000105367
7.81466
0.000101318
7.81467
9.70961e-05
7.81468
9.27253e-05
7.81469
8.82255e-05
7.8147
8.36353e-05
7.81471
7.89781e-05
7.81472
7.42858e-05
7.81472
6.95927e-05
7.81473
6.49271e-05
7.81474
6.03201e-05
7.81474
5.5803e-05
7.81475
5.13976e-05
7.81475
4.71326e-05
7.81476
4.3033e-05
7.81476
3.91127e-05
7.81476
3.53888e-05
7.81477
3.18736e-05
7.81477
2.85759e-05
7.81477
2.55015e-05
7.81477
2.26525e-05
7.81478
2.00285e-05
7.81478
1.76263e-05
7.81478
1.54402e-05
7.81478
1.34625e-05
7.81478
1.16838e-05
7.81478
1.00937e-05
7.81478
8.68047e-06
7.81478
7.43104e-06
7.81478
6.33323e-06
7.81478
5.37408e-06
7.81479
4.54074e-06
7.81479
3.82076e-06
7.81479
3.20218e-06
7.81479
2.67367e-06
7.81479
2.22457e-06
7.81479
1.84505e-06
7.81479
1.52606e-06
7.81479
1.25938e-06
7.81479
1.03764e-06
7.81479
8.54232e-07
7.81479
7.03336e-07
7.81479
5.79842e-07
7.81479
4.79295e-07
7.81479
3.97861e-07
7.81479
3.32241e-07
7.81479
2.7964e-07
7.81479
2.37688e-07
7.81479
2.04394e-07
7.81479
1.78109e-07
7.81479
1.57459e-07
7.81479
1.41315e-07
7.81479
1.28759e-07
7.81479
1.19038e-07
7.81479
1.11549e-07
7.81479
1.0581e-07
7.81479
1.01434e-07
7.81479
9.81099e-08
7.81479
9.5602e-08
7.81479
9.37184e-08
7.81479
9.23078e-08
7.81479
9.12555e-08
7.81478
9.04774e-08
7.81478
8.99045e-08
7.81478
8.94829e-08
7.81478
8.91764e-08
7.81478
8.89568e-08
7.81478
8.87962e-08
7.81478
8.86826e-08
7.81478
8.85984e-08
7.81478
8.85416e-08
7.81478
8.85075e-08
7.81478
8.84816e-08
7.81478
8.84665e-08
7.81478
8.84552e-08
7.81478
8.8452e-08
7.81478
8.84502e-08
7.81477
8.84515e-08
7.81477
8.84579e-08
7.81477
8.84584e-08
7.81477
8.8462e-08
7.81477
8.8472e-08
7.81477
8.84784e-08
7.81477
8.8482e-08
7.81477
8.84902e-08
7.81476
8.84988e-08
7.81476
8.85029e-08
7.81476
8.85107e-08
7.81476
8.85179e-08
7.81476
8.85293e-08
7.81476
8.85389e-08
7.81475
8.85511e-08
7.81475
8.8563e-08
7.81475
8.85734e-08
7.81475
8.85843e-08
7.81475
8.85975e-08
7.81475
8.86093e-08
7.81474
8.86207e-08
7.81474
8.8628e-08
7.81474
8.86384e-08
7.81474
8.86453e-08
7.81474
8.86525e-08
7.81473
8.8658e-08
7.81473
8.86662e-08
7.81473
8.86703e-08
7.81473
8.8673e-08
7.81472
8.86812e-08
7.81472
8.86889e-08
7.81472
8.8693e-08
7.81472
8.86971e-08
7.81472
8.87048e-08
7.81471
8.87107e-08
7.81471
8.87217e-08
7.81471
8.87285e-08
7.81471
8.87385e-08
7.8147
8.87508e-08
7.8147
8.87608e-08
7.8147
8.87685e-08
7.8147
8.87803e-08
7.81469
8.87853e-08
7.81469
8.87976e-08
7.81469
8.88085e-08
7.81468
8.88176e-08
7.81468
8.88276e-08
7.81468
8.88353e-08
7.81468
8.8844e-08
7.81467
8.88504e-08
7.81467
8.88563e-08
7.81467
8.88631e-08
7.81467
8.88676e-08
7.81466
8.88704e-08
7.81466
8.88745e-08
7.81466
8.88813e-08
7.81465
8.88876e-08
7.81465
8.88972e-08
7.81465
8.8899e-08
7.81465
8.89022e-08
7.81464
8.89086e-08
7.81464
8.89108e-08
7.81464
8.89154e-08
7.81464
8.89186e-08
7.81463
8.89249e-08
7.81463
8.89281e-08
7.81463
8.8934e-08
7.81463
8.8939e-08
7.81462
8.89427e-08
7.81462
8.89477e-08
7.81462
8.89549e-08
7.81462
8.89604e-08
7.81461
8.89681e-08
7.81461
8.89754e-08
7.81461
8.89795e-08
7.8146
8.89872e-08
7.8146
8.89945e-08
7.8146
8.89986e-08
7.8146
8.90086e-08
7.81459
8.90168e-08
7.81459
8.90204e-08
7.81459
8.90332e-08
7.81459
8.90423e-08
7.81458
8.90541e-08
7.81458
8.90655e-08
7.81458
8.90791e-08
7.81458
8.90932e-08
7.81457
8.91037e-08
7.81457
8.91155e-08
7.81457
8.91496e-08
7.81457
8.93106e-08
7.81456
8.90982e-08
7.81456
8.90868e-08
7.81456
8.92119e-08
7.81455
8.92155e-08
7.81455
8.92533e-08
7.81455
8.93019e-08
7.81454
8.93397e-08
7.81454
8.93706e-08
7.81454
8.93847e-08
7.81453
8.94174e-08
7.81453
8.94534e-08
7.81453
8.94947e-08
7.81452
8.95207e-08
7.81452
8.95843e-08
7.81452
8.96184e-08
7.81451
8.96798e-08
7.81451
8.97094e-08
7.8145
8.97721e-08
7.8145
8.98403e-08
7.81449
8.98913e-08
7.81449
8.99627e-08
7.81448
9.00313e-08
7.81448
9.01082e-08
7.81447
9.01864e-08
7.81447
9.02755e-08
7.81446
9.03628e-08
7.81445
9.04606e-08
7.81445
9.05648e-08
7.81444
9.06698e-08
7.81443
9.07835e-08
7.81443
9.09031e-08
7.81442
9.10281e-08
7.81441
9.116e-08
7.8144
9.12992e-08
7.81439
9.1447e-08
7.81438
9.15988e-08
7.81437
9.17589e-08
7.81436
9.19276e-08
7.81435
9.21032e-08
7.81434
9.22819e-08
7.81432
9.24729e-08
7.81431
9.26734e-08
7.8143
9.28826e-08
7.81428
9.30995e-08
7.81427
9.33314e-08
7.81425
9.35679e-08
7.81423
9.38285e-08
7.81422
9.40931e-08
7.8142
9.43651e-08
7.81418
9.4652e-08
7.81416
9.49503e-08
7.81414
9.52664e-08
7.81411
9.55938e-08
7.81409
9.59362e-08
7.81407
9.62928e-08
7.81404
9.66666e-08
7.81401
9.70567e-08
7.81398
9.74583e-08
7.81395
9.78816e-08
7.81392
9.83209e-08
7.81389
9.87761e-08
7.81386
9.925e-08
7.81382
9.97425e-08
7.81379
1.00255e-07
7.81375
1.00781e-07
7.81371
1.01337e-07
7.81366
1.01908e-07
7.81362
1.02504e-07
7.81358
1.03123e-07
7.81353
1.03762e-07
7.81348
1.04421e-07
7.81343
1.0511e-07
7.81337
1.05829e-07
7.81331
1.06573e-07
7.81326
1.07357e-07
7.81319
1.08198e-07
7.81313
1.09137e-07
7.81306
1.10274e-07
7.81299
1.11851e-07
7.81292
1.14428e-07
7.81285
1.19353e-07
7.81277
1.29853e-07
7.81269
1.53645e-07
7.8126
2.09205e-07
7.81251
3.40652e-07
7.81242
6.53503e-07
7.81232
1.40011e-06
7.81222
3.18385e-06
7.81212
7.44737e-06
7.812
1.76397e-05
7.81187
4.20057e-05
7.81171
0.000100249
7.81149
0.000239442
7.81111
0.000571953
7.81037
0.00136573
7.80879
0.00325852
7.80519
0.00776398
7.79681
0.0184617
7.77712
0.0437926
7.73072
0.103645
7.62079
0.246402
7.3525
0.607468
1.50297
6.72321
34.4872
7.15681e-05
34.4873
8.1593e-05
34.4873
6.95274e-05
34.4874
6.98114e-05
34.4875
7.15927e-05
34.4875
7.17999e-05
34.4876
7.16498e-05
34.4876
7.16303e-05
34.4877
7.16417e-05
34.4878
7.16366e-05
34.4878
7.16273e-05
34.4879
7.16178e-05
34.4879
7.16138e-05
34.488
7.1603e-05
34.4881
7.16097e-05
34.4881
7.16056e-05
34.4882
7.16037e-05
34.4882
7.16033e-05
34.4883
7.16035e-05
34.4884
7.1604e-05
34.4884
7.16049e-05
34.4885
7.1606e-05
34.4886
7.16074e-05
34.4886
7.16092e-05
34.4887
7.16111e-05
34.4887
7.16135e-05
34.4888
7.16141e-05
34.4889
7.16166e-05
34.4889
7.16194e-05
34.489
7.16226e-05
34.4891
7.16264e-05
34.4891
7.16212e-05
34.4892
7.16286e-05
34.4892
7.16312e-05
34.4893
7.16326e-05
34.4894
7.16336e-05
34.4894
7.16363e-05
34.4895
7.16369e-05
34.4896
7.16497e-05
34.4896
7.16429e-05
34.4897
7.16438e-05
34.4897
7.16471e-05
34.4898
7.16487e-05
34.4899
7.16504e-05
34.4899
7.16528e-05
34.49
7.16547e-05
34.49
7.16532e-05
34.4901
7.16562e-05
34.4901
7.16586e-05
34.4901
7.16597e-05
34.4902
7.16617e-05
34.4902
7.16638e-05
34.4903
7.16659e-05
34.4903
7.16675e-05
34.4904
7.16671e-05
34.4905
7.16792e-05
34.4906
7.16998e-05
34.4907
7.16662e-05
34.4908
7.16777e-05
34.4909
7.1688e-05
34.4909
7.16923e-05
34.491
7.16963e-05
34.4911
7.17002e-05
34.4912
7.17039e-05
34.4912
7.17075e-05
34.4913
7.17111e-05
34.4914
7.17158e-05
34.4914
7.17186e-05
34.4915
7.17149e-05
34.4915
7.16865e-05
34.4916
7.17521e-05
34.4916
7.17358e-05
34.4916
7.17301e-05
34.4917
7.17314e-05
34.4917
7.1733e-05
34.4918
7.17343e-05
34.4919
7.17341e-05
34.4919
7.17404e-05
34.492
7.17529e-05
34.4921
7.1741e-05
34.4922
7.17477e-05
34.4922
7.1752e-05
34.4923
7.17557e-05
34.4923
7.17602e-05
34.4924
7.17616e-05
34.4925
7.17663e-05
34.4925
7.17677e-05
34.4926
7.17727e-05
34.4927
7.17912e-05
34.4928
7.17775e-05
34.4929
7.17771e-05
34.493
7.17901e-05
34.4931
7.17923e-05
34.4931
7.17947e-05
34.4932
7.1797e-05
34.4933
7.17982e-05
34.4934
7.17982e-05
34.4935
7.17965e-05
34.4935
7.17931e-05
34.4936
7.17888e-05
34.4937
7.17775e-05
34.4937
7.17524e-05
34.4938
7.16843e-05
34.4938
7.17388e-05
34.4938
7.16781e-05
34.4939
7.16099e-05
34.4939
7.154e-05
34.494
7.14508e-05
34.494
7.13372e-05
34.4941
7.11917e-05
34.4942
7.10231e-05
34.4943
7.08337e-05
34.4943
7.05698e-05
34.4944
7.02507e-05
34.4945
6.98982e-05
34.4946
6.94679e-05
34.4947
6.89653e-05
34.4948
6.83827e-05
34.4949
6.77116e-05
34.4949
6.69447e-05
34.495
6.60754e-05
34.4951
6.50976e-05
34.4951
6.40064e-05
34.4952
6.27977e-05
34.4952
6.14693e-05
34.4953
6.002e-05
34.4954
5.84507e-05
34.4954
5.6764e-05
34.4955
5.49642e-05
34.4955
5.30576e-05
34.4956
5.10525e-05
34.4956
4.89586e-05
34.4957
4.67877e-05
34.4957
4.45507e-05
34.4957
4.22646e-05
34.4958
3.99428e-05
34.4958
3.76002e-05
34.4958
3.52538e-05
34.4959
3.29184e-05
34.4959
3.06094e-05
34.4959
2.83419e-05
34.4959
2.61283e-05
34.496
2.39822e-05
34.496
2.19163e-05
34.496
1.99384e-05
34.496
1.80572e-05
34.496
1.6279e-05
34.496
1.46088e-05
34.4961
1.30497e-05
34.4961
1.1603e-05
34.4961
1.02689e-05
34.4961
9.04605e-06
34.4961
7.93178e-06
34.4961
6.9225e-06
34.4961
6.01368e-06
34.4961
5.20017e-06
34.4961
4.47626e-06
34.4961
3.83557e-06
34.4961
3.27189e-06
34.4961
2.77883e-06
34.4961
2.34995e-06
34.4961
1.97897e-06
34.4961
1.65988e-06
34.4961
1.38694e-06
34.4961
1.15475e-06
34.4961
9.58312e-07
34.4961
7.9302e-07
34.4961
6.54688e-07
34.4961
5.39539e-07
34.4961
4.44197e-07
34.4961
3.65674e-07
34.4961
3.01343e-07
34.4961
2.48914e-07
34.4961
2.06407e-07
34.4961
1.72122e-07
34.4961
1.44611e-07
34.4961
1.22649e-07
34.4961
1.05204e-07
34.4961
9.14188e-08
34.4961
8.05774e-08
34.4961
7.2095e-08
34.4961
6.54911e-08
34.4961
6.03754e-08
34.4961
5.64307e-08
34.4961
5.34055e-08
34.4961
5.10968e-08
34.4961
4.93417e-08
34.4961
4.80161e-08
34.4961
4.702e-08
34.4961
4.62742e-08
34.4961
4.57164e-08
34.4961
4.53042e-08
34.4961
4.50002e-08
34.4961
4.47762e-08
34.4961
4.46134e-08
34.4961
4.4497e-08
34.4961
4.4412e-08
34.4961
4.43506e-08
34.4961
4.43058e-08
34.4961
4.42756e-08
34.4961
4.42571e-08
34.4961
4.42435e-08
34.4961
4.42346e-08
34.4961
4.42296e-08
34.4961
4.42269e-08
34.4961
4.4226e-08
34.4961
4.42269e-08
34.4961
4.42285e-08
34.4961
4.42294e-08
34.4961
4.42312e-08
34.4961
4.42353e-08
34.4961
4.42387e-08
34.496
4.42412e-08
34.496
4.42453e-08
34.496
4.42494e-08
34.496
4.42517e-08
34.496
4.42546e-08
34.496
4.42587e-08
34.496
4.42644e-08
34.496
4.4269e-08
34.496
4.42751e-08
34.496
4.4281e-08
34.496
4.42867e-08
34.496
4.42924e-08
34.496
4.4299e-08
34.496
4.43038e-08
34.4959
4.43101e-08
34.4959
4.4314e-08
34.4959
4.43188e-08
34.4959
4.43224e-08
34.4959
4.43265e-08
34.4959
4.43297e-08
34.4959
4.43335e-08
34.4959
4.43356e-08
34.4959
4.4337e-08
34.4959
4.43406e-08
34.4959
4.43449e-08
34.4958
4.43461e-08
34.4958
4.4349e-08
34.4958
4.43529e-08
34.4958
4.43554e-08
34.4958
4.43606e-08
34.4958
4.43647e-08
34.4958
4.43692e-08
34.4958
4.43752e-08
34.4958
4.43799e-08
34.4957
4.43849e-08
34.4957
4.43899e-08
34.4957
4.43931e-08
34.4957
4.43983e-08
34.4957
4.44038e-08
34.4957
4.44081e-08
34.4957
4.44134e-08
34.4957
4.44179e-08
34.4957
4.44218e-08
34.4956
4.44254e-08
34.4956
4.44284e-08
34.4956
4.44311e-08
34.4956
4.44343e-08
34.4956
4.44363e-08
34.4956
4.44377e-08
34.4956
4.44406e-08
34.4956
4.44445e-08
34.4955
4.44484e-08
34.4955
4.44502e-08
34.4955
4.44522e-08
34.4955
4.44543e-08
34.4955
4.44554e-08
34.4955
4.44575e-08
34.4955
4.44604e-08
34.4955
4.44638e-08
34.4954
4.44647e-08
34.4954
4.44668e-08
34.4954