/*--------------------------------*- C++ -*----------------------------------*\
| =========                 |                                                 |
| \\      /  F ield         | OpenFOAM: The Open Source CFD Toolbox           |
|  \\    /   O peration     | Version:  3.0.x                                 |
|   \\  /    A nd           | Web:      www.OpenFOAM.org                      |
|    \\/     M anipulation  |                                                 |
\*---------------------------------------------------------------------------*/
FoamFile
{
    version     2.0;
    format      ascii;
    class       volVectorField;
    location    "0.54";
    object      U;
}
// * * * * * * * * * * * * * * * * * * * * * * * * * * * * * * * * * * * * * //

dimensions      [0 1 -1 0 0 0 0];

internalField   nonuniform List<vector> 
27600
(
(42.6049 0.000283939 0)
(42.3868 0.000239704 0)
(42.1318 0.000237734 0)
(41.8921 0.000240825 0)
(41.6639 0.000243866 0)
(41.4369 0.000246561 0)
(41.208 0.000248831 0)
(40.978 0.000250755 0)
(40.7478 0.000252347 0)
(40.5175 0.000253696 0)
(40.287 0.000254856 0)
(40.0563 0.00025587 0)
(39.8253 0.000256766 0)
(39.5942 0.000257568 0)
(39.3629 0.000258295 0)
(39.1313 0.000258961 0)
(38.8996 0.000259575 0)
(38.6677 0.000260145 0)
(38.4356 0.000260676 0)
(38.2033 0.000261175 0)
(37.9709 0.000261643 0)
(37.7383 0.000262085 0)
(37.5055 0.0002625 0)
(37.2725 0.000262894 0)
(37.0394 0.000263266 0)
(36.8062 0.000263621 0)
(36.5728 0.000263958 0)
(36.3393 0.000264278 0)
(36.1056 0.000264582 0)
(35.8719 0.000264872 0)
(35.638 0.000265149 0)
(35.404 0.000265413 0)
(35.1698 0.000265669 0)
(34.9356 0.000265913 0)
(34.7013 0.000266147 0)
(34.4669 0.00026637 0)
(34.2325 0.000266583 0)
(33.9979 0.000266788 0)
(33.7633 0.000266987 0)
(33.5286 0.000267179 0)
(33.2939 0.000267364 0)
(33.0592 0.000267544 0)
(32.8244 0.000267719 0)
(32.5896 0.000267893 0)
(32.3548 0.000268062 0)
(32.12 0.000268223 0)
(31.8852 0.000268375 0)
(31.6504 0.000268522 0)
(31.4156 0.000268667 0)
(31.1809 0.000268813 0)
(30.9462 0.00026896 0)
(30.7115 0.000269107 0)
(30.4769 0.00026925 0)
(30.2424 0.000269387 0)
(30.008 0.000269522 0)
(29.7737 0.000269656 0)
(29.5394 0.000269785 0)
(29.3053 0.000269905 0)
(29.0714 0.00027001 0)
(28.8375 0.000270099 0)
(28.6038 0.000270173 0)
(28.3703 0.000270228 0)
(28.137 0.000270258 0)
(27.9038 0.000270255 0)
(27.6709 0.000270198 0)
(27.4382 0.000270065 0)
(27.2058 0.000269836 0)
(26.9736 0.000269483 0)
(26.7417 0.00026897 0)
(26.5101 0.000268248 0)
(26.2788 0.000267265 0)
(26.0479 0.000265967 0)
(25.8174 0.000264298 0)
(25.5874 0.000262204 0)
(25.3579 0.000259623 0)
(25.1289 0.000256489 0)
(24.9005 0.000252738 0)
(24.6727 0.000248308 0)
(24.4456 0.000243148 0)
(24.2193 0.000237221 0)
(23.9938 0.000230506 0)
(23.7692 0.000223003 0)
(23.5455 0.000214728 0)
(23.3228 0.000205719 0)
(23.1012 0.000196032 0)
(22.8806 0.000185745 0)
(22.6612 0.00017495 0)
(22.443 0.00016376 0)
(22.226 0.000152295 0)
(22.0102 0.000140686 0)
(21.7956 0.000129065 0)
(21.5823 0.000117564 0)
(21.3702 0.00010631 0)
(21.1593 9.5419e-05 0)
(20.9497 8.49943e-05 0)
(20.7413 7.51245e-05 0)
(20.534 6.58801e-05 0)
(20.3278 5.73135e-05 0)
(20.1228 4.94583e-05 0)
(19.9189 4.23302e-05 0)
(19.716 3.59281e-05 0)
(19.5141 3.0236e-05 0)
(19.3132 2.52257e-05 0)
(19.1133 2.08592e-05 0)
(18.9144 1.70909e-05 0)
(18.7164 1.38699e-05 0)
(18.5193 1.11429e-05 0)
(18.3231 8.85493e-06 0)
(18.1278 6.95063e-06 0)
(17.9333 5.37684e-06 0)
(17.7398 4.08411e-06 0)
(17.5471 3.02776e-06 0)
(17.3553 2.16824e-06 0)
(17.1644 1.47105e-06 0)
(16.9744 9.07052e-07 0)
(16.7852 4.50665e-07 0)
(16.597 8.08479e-08 0)
(16.4096 -2.19877e-07 0)
(16.2231 -4.62389e-07 0)
(16.0376 -6.61608e-07 0)
(15.8529 -8.11396e-07 0)
(15.6692 -9.38527e-07 0)
(15.4864 -1.04754e-06 0)
(15.3045 -1.14429e-06 0)
(15.1236 -1.23157e-06 0)
(14.9436 -1.31324e-06 0)
(14.7645 -1.3922e-06 0)
(14.5864 -1.4697e-06 0)
(14.4093 -1.54525e-06 0)
(14.2332 -1.62043e-06 0)
(14.058 -1.69591e-06 0)
(13.8838 -1.77243e-06 0)
(13.7106 -1.85035e-06 0)
(13.5383 -1.93003e-06 0)
(13.3671 -2.01111e-06 0)
(13.1968 -2.09355e-06 0)
(13.0276 -2.17741e-06 0)
(12.8594 -2.26269e-06 0)
(12.6921 -2.34917e-06 0)
(12.5259 -2.43669e-06 0)
(12.3607 -2.52592e-06 0)
(12.1965 -2.61698e-06 0)
(12.0333 -2.70908e-06 0)
(11.8712 -2.80272e-06 0)
(11.71 -2.89743e-06 0)
(11.5499 -2.99366e-06 0)
(11.3909 -3.09103e-06 0)
(11.2328 -3.18956e-06 0)
(11.0758 -3.28895e-06 0)
(10.9199 -3.38948e-06 0)
(10.7649 -3.49137e-06 0)
(10.611 -3.59411e-06 0)
(10.4582 -3.69779e-06 0)
(10.3064 -3.80211e-06 0)
(10.1556 -3.90744e-06 0)
(10.0059 -4.01367e-06 0)
(9.85722 -4.1208e-06 0)
(9.70959 -4.2286e-06 0)
(9.56301 -4.33712e-06 0)
(9.41748 -4.44638e-06 0)
(9.273 -4.55629e-06 0)
(9.12958 -4.66659e-06 0)
(8.98721 -4.77734e-06 0)
(8.84589 -4.88859e-06 0)
(8.70564 -5.00058e-06 0)
(8.56643 -5.11326e-06 0)
(8.42829 -5.22621e-06 0)
(8.29121 -5.33921e-06 0)
(8.15519 -5.45234e-06 0)
(8.02023 -5.56601e-06 0)
(7.88633 -5.68044e-06 0)
(7.7535 -5.79517e-06 0)
(7.62173 -5.91023e-06 0)
(7.49103 -6.02498e-06 0)
(7.3614 -6.14052e-06 0)
(7.23284 -6.2547e-06 0)
(7.10534 -6.37241e-06 0)
(6.97892 -6.48431e-06 0)
(6.85357 -6.6076e-06 0)
(6.72929 -6.71118e-06 0)
(6.60609 -6.84592e-06 0)
(6.48396 -6.93609e-06 0)
(6.36291 -7.08493e-06 0)
(6.24293 -7.17124e-06 0)
(6.12404 -7.31211e-06 0)
(6.0062 -7.434e-06 0)
(5.88949 -7.52111e-06 0)
(5.7738 -7.71944e-06 0)
(5.65926 -7.72545e-06 0)
(5.54572 -7.99984e-06 0)
(5.43335 -7.89664e-06 0)
(5.32196 -8.18388e-06 0)
(5.21175 -7.62124e-06 0)
(5.10238 -6.85263e-06 0)
(4.9938 8.30472e-07 0)
(4.88411 3.76178e-05 0)
(4.76723 0.000215829 0)
(4.60551 0.000805208 0)
(4.43823 0.00587512 0)
(3.04603 0.012968 0)
(42.6198 0.000456204 0)
(42.4168 0.000328794 0)
(42.1771 0.00031463 0)
(41.9526 0.00031302 0)
(41.7398 0.000311969 0)
(41.5281 0.000311231 0)
(41.3146 0.000310547 0)
(41.1001 0.000309885 0)
(40.8853 0.000309139 0)
(40.6705 0.000308385 0)
(40.4554 0.00030764 0)
(40.2402 0.000306917 0)
(40.0247 0.00030622 0)
(39.809 0.000305557 0)
(39.5931 0.000304935 0)
(39.377 0.000304353 0)
(39.1607 0.000303811 0)
(38.9442 0.000303307 0)
(38.7275 0.000302842 0)
(38.5106 0.000302413 0)
(38.2935 0.000302018 0)
(38.0763 0.000301655 0)
(37.8589 0.00030132 0)
(37.6413 0.000301014 0)
(37.4236 0.000300735 0)
(37.2057 0.000300482 0)
(36.9877 0.000300254 0)
(36.7695 0.000300047 0)
(36.5511 0.000299861 0)
(36.3327 0.000299695 0)
(36.1141 0.000299551 0)
(35.8954 0.000299424 0)
(35.6766 0.00029932 0)
(35.4577 0.000299231 0)
(35.2387 0.000299159 0)
(35.0196 0.000299101 0)
(34.8004 0.000299055 0)
(34.5811 0.000299027 0)
(34.3618 0.000299015 0)
(34.1424 0.000299017 0)
(33.923 0.000299031 0)
(33.7035 0.00029906 0)
(33.484 0.000299104 0)
(33.2644 0.000299167 0)
(33.0449 0.00029924 0)
(32.8253 0.000299321 0)
(32.6057 0.000299405 0)
(32.3861 0.000299497 0)
(32.1666 0.000299605 0)
(31.9471 0.000299728 0)
(31.7276 0.00029987 0)
(31.5082 0.000300024 0)
(31.2888 0.000300185 0)
(31.0695 0.00030035 0)
(30.8503 0.000300526 0)
(30.6312 0.000300711 0)
(30.4121 0.0003009 0)
(30.1932 0.000301085 0)
(29.9745 0.000301255 0)
(29.7558 0.000301412 0)
(29.5373 0.000301554 0)
(29.319 0.000301674 0)
(29.1008 0.000301765 0)
(28.8829 0.000301811 0)
(28.6651 0.00030178 0)
(28.4475 0.00030164 0)
(28.2302 0.000301359 0)
(28.0131 0.000300898 0)
(27.7963 0.000300203 0)
(27.5798 0.000299204 0)
(27.3635 0.000297828 0)
(27.1476 0.000296001 0)
(26.932 0.000293653 0)
(26.7167 0.000290716 0)
(26.5018 0.000287117 0)
(26.2873 0.000282776 0)
(26.0731 0.000277619 0)
(25.8594 0.000271583 0)
(25.6462 0.000264621 0)
(25.4334 0.000256709 0)
(25.2211 0.00024785 0)
(25.0092 0.000238074 0)
(24.7979 0.000227436 0)
(24.5871 0.000216016 0)
(24.3769 0.000203917 0)
(24.1671 0.000191264 0)
(23.958 0.0001782 0)
(23.7493 0.000164882 0)
(23.5413 0.000151472 0)
(23.3338 0.000138137 0)
(23.1269 0.000125036 0)
(22.9206 0.000112318 0)
(22.7149 0.000100117 0)
(22.5097 8.85488e-05 0)
(22.3052 7.7706e-05 0)
(22.1012 6.76589e-05 0)
(21.8979 5.84537e-05 0)
(21.6952 5.01134e-05 0)
(21.4931 4.26396e-05 0)
(21.2916 3.60143e-05 0)
(21.0908 3.02035e-05 0)
(20.8906 2.51599e-05 0)
(20.6911 2.08269e-05 0)
(20.4923 1.71418e-05 0)
(20.2943 1.40387e-05 0)
(20.0969 1.14504e-05 0)
(19.9003 9.31141e-06 0)
(19.7044 7.55837e-06 0)
(19.5092 6.13165e-06 0)
(19.3149 4.97657e-06 0)
(19.1213 4.04515e-06 0)
(18.9286 3.29528e-06 0)
(18.7367 2.69145e-06 0)
(18.5456 2.20354e-06 0)
(18.3553 1.80702e-06 0)
(18.1659 1.4796e-06 0)
(17.9774 1.20158e-06 0)
(17.7897 9.46083e-07 0)
(17.6029 7.08337e-07 0)
(17.417 5.43488e-07 0)
(17.232 4.22595e-07 0)
(17.048 3.12957e-07 0)
(16.8648 2.10969e-07 0)
(16.6826 1.14497e-07 0)
(16.5012 1.97695e-08 0)
(16.3209 -7.47248e-08 0)
(16.1415 -1.68737e-07 0)
(15.963 -2.63887e-07 0)
(15.7855 -3.59903e-07 0)
(15.6089 -4.56814e-07 0)
(15.4333 -5.55041e-07 0)
(15.2587 -6.55202e-07 0)
(15.0851 -7.57502e-07 0)
(14.9125 -8.61997e-07 0)
(14.7408 -9.68324e-07 0)
(14.5701 -1.07633e-06 0)
(14.4005 -1.18571e-06 0)
(14.2318 -1.29667e-06 0)
(14.0641 -1.40918e-06 0)
(13.8975 -1.52346e-06 0)
(13.7318 -1.63938e-06 0)
(13.5672 -1.75709e-06 0)
(13.4035 -1.87665e-06 0)
(13.2409 -1.9975e-06 0)
(13.0793 -2.11998e-06 0)
(12.9188 -2.24384e-06 0)
(12.7592 -2.36934e-06 0)
(12.6007 -2.4959e-06 0)
(12.4432 -2.62368e-06 0)
(12.2867 -2.75316e-06 0)
(12.1313 -2.88385e-06 0)
(11.9769 -3.0158e-06 0)
(11.8236 -3.1487e-06 0)
(11.6712 -3.28263e-06 0)
(11.52 -3.41781e-06 0)
(11.3697 -3.554e-06 0)
(11.2205 -3.6912e-06 0)
(11.0723 -3.82915e-06 0)
(10.9252 -3.96824e-06 0)
(10.7792 -4.10826e-06 0)
(10.6341 -4.24924e-06 0)
(10.4901 -4.39065e-06 0)
(10.3472 -4.53265e-06 0)
(10.2053 -4.67507e-06 0)
(10.0645 -4.81845e-06 0)
(9.92473 -4.96275e-06 0)
(9.78601 -5.10736e-06 0)
(9.64834 -5.25213e-06 0)
(9.51172 -5.39703e-06 0)
(9.37617 -5.5427e-06 0)
(9.24167 -5.68951e-06 0)
(9.10823 -5.83663e-06 0)
(8.97585 -5.98417e-06 0)
(8.84453 -6.13121e-06 0)
(8.71427 -6.27897e-06 0)
(8.58508 -6.42527e-06 0)
(8.45695 -6.57536e-06 0)
(8.32989 -6.71989e-06 0)
(8.20389 -6.87442e-06 0)
(8.07896 -7.01397e-06 0)
(7.95511 -7.17025e-06 0)
(7.83231 -7.31572e-06 0)
(7.7106 -7.44446e-06 0)
(7.58994 -7.64828e-06 0)
(7.47038 -7.66658e-06 0)
(7.35186 -8.02597e-06 0)
(7.23446 -7.84248e-06 0)
(7.11808 -8.41303e-06 0)
(7.00284 -8.01231e-06 0)
(6.8886 -8.79898e-06 0)
(6.77553 -8.06424e-06 0)
(6.66342 -8.92143e-06 0)
(6.5525 -6.34242e-06 0)
(6.44243 -1.66662e-06 0)
(6.33308 2.78757e-05 0)
(6.2224 0.00016126 0)
(6.10339 0.000783654 0)
(5.93577 0.0032479 0)
(5.70888 0.0173365 0)
(4.37215 0.0334376 0)
(42.6198 0.000363338 0)
(42.4168 0.000237952 0)
(42.1772 0.000232894 0)
(41.9527 0.000236962 0)
(41.7399 0.00023908 0)
(41.5283 0.000240838 0)
(41.3148 0.000242404 0)
(41.1003 0.000243821 0)
(40.8856 0.000245035 0)
(40.6709 0.000246146 0)
(40.4559 0.000247176 0)
(40.2407 0.000248137 0)
(40.0253 0.000249042 0)
(39.8097 0.000249902 0)
(39.5939 0.000250725 0)
(39.3779 0.000251516 0)
(39.1617 0.00025228 0)
(38.9454 0.000253018 0)
(38.7288 0.000253735 0)
(38.5121 0.000254432 0)
(38.2952 0.000255109 0)
(38.0781 0.000255769 0)
(37.8609 0.000256409 0)
(37.6434 0.000257036 0)
(37.4259 0.000257647 0)
(37.2082 0.000258245 0)
(36.9903 0.000258831 0)
(36.7724 0.000259402 0)
(36.5542 0.000259962 0)
(36.336 0.00026051 0)
(36.1176 0.000261049 0)
(35.8992 0.000261577 0)
(35.6806 0.000262101 0)
(35.4619 0.000262613 0)
(35.2432 0.000263118 0)
(35.0243 0.000263614 0)
(34.8054 0.0002641 0)
(34.5864 0.000264581 0)
(34.3674 0.000265059 0)
(34.1483 0.00026553 0)
(33.9291 0.000265996 0)
(33.7099 0.000266458 0)
(33.4907 0.000266918 0)
(33.2715 0.000267379 0)
(33.0522 0.000267834 0)
(32.833 0.000268282 0)
(32.6137 0.00026872 0)
(32.3945 0.000269154 0)
(32.1753 0.00026959 0)
(31.9562 0.000270027 0)
(31.737 0.000270468 0)
(31.518 0.00027091 0)
(31.299 0.000271347 0)
(31.0801 0.000271777 0)
(30.8613 0.000272206 0)
(30.6425 0.000272634 0)
(30.4239 0.000273055 0)
(30.2054 0.000273462 0)
(29.9871 0.000273846 0)
(29.7688 0.000274208 0)
(29.5508 0.000274544 0)
(29.3329 0.000274847 0)
(29.1152 0.000275107 0)
(28.8977 0.000275306 0)
(28.6803 0.000275412 0)
(28.4632 0.000275392 0)
(28.2464 0.000275212 0)
(28.0298 0.00027483 0)
(27.8134 0.00027419 0)
(27.5973 0.000273222 0)
(27.3815 0.000271851 0)
(27.1659 0.000270005 0)
(26.9507 0.000267613 0)
(26.7358 0.000264606 0)
(26.5213 0.000260912 0)
(26.307 0.000256457 0)
(26.0932 0.000251174 0)
(25.8797 0.000245012 0)
(25.6666 0.000237935 0)
(25.4539 0.000229936 0)
(25.2416 0.000221033 0)
(25.0297 0.000211272 0)
(24.8183 0.000200723 0)
(24.6073 0.000189483 0)
(24.3968 0.000177667 0)
(24.1868 0.000165414 0)
(23.9772 0.000152873 0)
(23.7681 0.000140205 0)
(23.5596 0.000127573 0)
(23.3516 0.000115137 0)
(23.1442 0.000103047 0)
(22.9373 9.14392e-05 0)
(22.7309 8.04294e-05 0)
(22.5252 7.01132e-05 0)
(22.3201 6.05626e-05 0)
(22.1156 5.18256e-05 0)
(21.9117 4.39268e-05 0)
(21.7085 3.68688e-05 0)
(21.5059 3.0635e-05 0)
(21.304 2.51919e-05 0)
(21.1028 2.04927e-05 0)
(20.9023 1.6481e-05 0)
(20.7025 1.30936e-05 0)
(20.5034 1.02648e-05 0)
(20.3051 7.92793e-06 0)
(20.1075 6.01742e-06 0)
(19.9107 4.47143e-06 0)
(19.7147 3.23207e-06 0)
(19.5194 2.24803e-06 0)
(19.325 1.47354e-06 0)
(19.1313 8.69211e-07 0)
(18.9385 4.00944e-07 0)
(18.7466 4.05472e-08 0)
(18.5554 -2.35287e-07 0)
(18.3651 -4.44677e-07 0)
(18.1757 -6.02176e-07 0)
(17.9871 -7.16293e-07 0)
(17.7995 -7.83537e-07 0)
(17.6127 -8.56505e-07 0)
(17.4268 -9.0946e-07 0)
(17.2418 -9.85379e-07 0)
(17.0577 -1.06436e-06 0)
(16.8745 -1.14297e-06 0)
(16.6923 -1.22162e-06 0)
(16.511 -1.30061e-06 0)
(16.3306 -1.38059e-06 0)
(16.1512 -1.46182e-06 0)
(15.9727 -1.54379e-06 0)
(15.7952 -1.62667e-06 0)
(15.6187 -1.71144e-06 0)
(15.4431 -1.797e-06 0)
(15.2685 -1.88413e-06 0)
(15.0948 -1.97292e-06 0)
(14.9222 -2.06365e-06 0)
(14.7505 -2.15586e-06 0)
(14.5799 -2.24942e-06 0)
(14.4102 -2.34426e-06 0)
(14.2415 -2.44037e-06 0)
(14.0739 -2.53748e-06 0)
(13.9072 -2.63607e-06 0)
(13.7415 -2.73613e-06 0)
(13.5769 -2.83787e-06 0)
(13.4133 -2.94096e-06 0)
(13.2507 -3.04523e-06 0)
(13.0891 -3.15085e-06 0)
(12.9285 -3.2577e-06 0)
(12.769 -3.36593e-06 0)
(12.6104 -3.47516e-06 0)
(12.4529 -3.58532e-06 0)
(12.2965 -3.697e-06 0)
(12.1411 -3.80984e-06 0)
(11.9867 -3.92355e-06 0)
(11.8333 -4.03833e-06 0)
(11.681 -4.15381e-06 0)
(11.5297 -4.27035e-06 0)
(11.3795 -4.38759e-06 0)
(11.2303 -4.50584e-06 0)
(11.0821 -4.62475e-06 0)
(10.935 -4.74447e-06 0)
(10.7889 -4.86486e-06 0)
(10.6439 -4.98595e-06 0)
(10.4999 -5.10715e-06 0)
(10.357 -5.22885e-06 0)
(10.2151 -5.35087e-06 0)
(10.0743 -5.47367e-06 0)
(9.93448 -5.59714e-06 0)
(9.79576 -5.72064e-06 0)
(9.65809 -5.84416e-06 0)
(9.52148 -5.96754e-06 0)
(9.38592 -6.09146e-06 0)
(9.25142 -6.21606e-06 0)
(9.11798 -6.34085e-06 0)
(8.9856 -6.46559e-06 0)
(8.85428 -6.59023e-06 0)
(8.72403 -6.71454e-06 0)
(8.59483 -6.83939e-06 0)
(8.46671 -6.96321e-06 0)
(8.33964 -7.09063e-06 0)
(8.21365 -7.20867e-06 0)
(8.08872 -7.35008e-06 0)
(7.96486 -7.4359e-06 0)
(7.84207 -7.64221e-06 0)
(7.72036 -7.61317e-06 0)
(7.5997 -8.01049e-06 0)
(7.48014 -7.71018e-06 0)
(7.36161 -8.45715e-06 0)
(7.24421 -7.77373e-06 0)
(7.12783 -8.90618e-06 0)
(7.01259 -7.84775e-06 0)
(6.89835 -9.36087e-06 0)
(6.78528 -7.71004e-06 0)
(6.67317 -9.39493e-06 0)
(6.56225 -4.68841e-06 0)
(6.45219 2.98345e-06 0)
(6.34296 5.68632e-05 0)
(6.2329 0.000294547 0)
(6.11688 0.00139928 0)
(5.96216 0.00598916 0)
(5.79865 0.0299902 0)
(4.62069 0.0575923 0)
(42.6198 0.000369338 0)
(42.4168 0.000275384 0)
(42.1772 0.000272904 0)
(41.9527 0.000277996 0)
(41.7399 0.000279813 0)
(41.5283 0.000280931 0)
(41.3148 0.000281697 0)
(41.1003 0.000282159 0)
(40.8856 0.000282314 0)
(40.6708 0.000282303 0)
(40.4559 0.000282181 0)
(40.2407 0.000281986 0)
(40.0253 0.000281744 0)
(39.8097 0.000281479 0)
(39.5939 0.000281205 0)
(39.3779 0.000280933 0)
(39.1617 0.000280668 0)
(38.9454 0.000280414 0)
(38.7288 0.000280175 0)
(38.5121 0.000279953 0)
(38.2952 0.000279747 0)
(38.0781 0.000279558 0)
(37.8608 0.000279383 0)
(37.6434 0.000279227 0)
(37.4259 0.000279086 0)
(37.2082 0.000278962 0)
(36.9903 0.000278854 0)
(36.7724 0.000278758 0)
(36.5542 0.000278677 0)
(36.336 0.000278609 0)
(36.1177 0.000278557 0)
(35.8992 0.000278515 0)
(35.6806 0.000278491 0)
(35.4619 0.000278476 0)
(35.2432 0.000278475 0)
(35.0243 0.000278482 0)
(34.8054 0.000278498 0)
(34.5864 0.000278526 0)
(34.3674 0.000278567 0)
(34.1483 0.000278617 0)
(33.9291 0.000278677 0)
(33.7099 0.000278748 0)
(33.4907 0.000278831 0)
(33.2715 0.000278929 0)
(33.0523 0.000279033 0)
(32.833 0.000279143 0)
(32.6138 0.000279254 0)
(32.3946 0.000279373 0)
(32.1754 0.000279504 0)
(31.9562 0.000279647 0)
(31.7371 0.000279805 0)
(31.518 0.000279973 0)
(31.2991 0.000280145 0)
(31.0801 0.00028032 0)
(30.8613 0.000280504 0)
(30.6426 0.000280694 0)
(30.424 0.000280887 0)
(30.2055 0.000281073 0)
(29.9871 0.000281246 0)
(29.7689 0.000281406 0)
(29.5509 0.000281549 0)
(29.333 0.00028167 0)
(29.1153 0.000281759 0)
(28.8978 0.000281801 0)
(28.6805 0.000281766 0)
(28.4634 0.000281623 0)
(28.2465 0.00028134 0)
(28.0299 0.000280881 0)
(27.8135 0.000280192 0)
(27.5974 0.000279207 0)
(27.3816 0.000277858 0)
(27.1661 0.000276075 0)
(26.9509 0.000273791 0)
(26.736 0.00027094 0)
(26.5214 0.000267452 0)
(26.3072 0.000263254 0)
(26.0934 0.00025828 0)
(25.8799 0.000252471 0)
(25.6668 0.00024579 0)
(25.4541 0.000238217 0)
(25.2418 0.00022976 0)
(25.0299 0.000220452 0)
(24.8185 0.00021035 0)
(24.6075 0.000199534 0)
(24.397 0.000188104 0)
(24.1869 0.000176182 0)
(23.9773 0.000163904 0)
(23.7683 0.00015142 0)
(23.5597 0.000138882 0)
(23.3517 0.000126446 0)
(23.1443 0.000114258 0)
(22.9374 0.000102455 0)
(22.731 9.11605e-05 0)
(22.5253 8.04765e-05 0)
(22.3202 7.04861e-05 0)
(22.1156 6.12503e-05 0)
(21.9118 5.28077e-05 0)
(21.7085 4.51756e-05 0)
(21.5059 3.83517e-05 0)
(21.304 3.2316e-05 0)
(21.1028 2.70341e-05 0)
(20.9023 2.24597e-05 0)
(20.7025 1.85385e-05 0)
(20.5035 1.5211e-05 0)
(20.3051 1.24149e-05 0)
(20.1076 1.00875e-05 0)
(19.9107 8.1677e-06 0)
(19.7147 6.59722e-06 0)
(19.5195 5.32286e-06 0)
(19.325 4.29581e-06 0)
(19.1314 3.47264e-06 0)
(18.9386 2.81488e-06 0)
(18.7466 2.28966e-06 0)
(18.5554 1.86888e-06 0)
(18.3652 1.52949e-06 0)
(18.1757 1.25078e-06 0)
(17.9872 1.01459e-06 0)
(17.7995 8.0968e-07 0)
(17.6127 6.37133e-07 0)
(17.4268 4.73453e-07 0)
(17.2418 3.45516e-07 0)
(17.0577 2.36325e-07 0)
(16.8746 1.37539e-07 0)
(16.6923 4.45738e-08 0)
(16.511 -4.46008e-08 0)
(16.3306 -1.32638e-07 0)
(16.1512 -2.19957e-07 0)
(15.9728 -3.07514e-07 0)
(15.7952 -3.95267e-07 0)
(15.6187 -4.83262e-07 0)
(15.4431 -5.72001e-07 0)
(15.2685 -6.62109e-07 0)
(15.0949 -7.53888e-07 0)
(14.9222 -8.47467e-07 0)
(14.7506 -9.42412e-07 0)
(14.5799 -1.03855e-06 0)
(14.4102 -1.13579e-06 0)
(14.2416 -1.23434e-06 0)
(14.0739 -1.3341e-06 0)
(13.9072 -1.43485e-06 0)
(13.7416 -1.53707e-06 0)
(13.5769 -1.64086e-06 0)
(13.4133 -1.74582e-06 0)
(13.2507 -1.85198e-06 0)
(13.0891 -1.95921e-06 0)
(12.9285 -2.06775e-06 0)
(12.769 -2.17739e-06 0)
(12.6105 -2.28797e-06 0)
(12.453 -2.3994e-06 0)
(12.2965 -2.51189e-06 0)
(12.1411 -2.62559e-06 0)
(11.9867 -2.74018e-06 0)
(11.8333 -2.8555e-06 0)
(11.681 -2.97141e-06 0)
(11.5297 -3.08847e-06 0)
(11.3795 -3.20637e-06 0)
(11.2303 -3.32513e-06 0)
(11.0821 -3.44437e-06 0)
(10.935 -3.56449e-06 0)
(10.7889 -3.68534e-06 0)
(10.6439 -3.80696e-06 0)
(10.4999 -3.92894e-06 0)
(10.357 -4.05145e-06 0)
(10.2151 -4.1743e-06 0)
(10.0743 -4.29787e-06 0)
(9.93452 -4.42222e-06 0)
(9.79579 -4.54678e-06 0)
(9.65812 -4.67152e-06 0)
(9.52151 -4.79625e-06 0)
(9.38595 -4.92173e-06 0)
(9.25146 -5.04798e-06 0)
(9.11802 -5.17472e-06 0)
(8.98564 -5.30138e-06 0)
(8.85432 -5.42849e-06 0)
(8.72406 -5.55428e-06 0)
(8.59487 -5.68301e-06 0)
(8.46674 -5.8062e-06 0)
(8.33968 -5.94268e-06 0)
(8.21368 -6.05098e-06 0)
(8.08875 -6.21862e-06 0)
(7.9649 -6.26292e-06 0)
(7.8421 -6.54514e-06 0)
(7.72039 -6.3898e-06 0)
(7.59973 -6.97449e-06 0)
(7.48017 -6.3923e-06 0)
(7.36165 -7.49623e-06 0)
(7.24425 -6.34675e-06 0)
(7.12786 -8.00247e-06 0)
(7.01262 -6.31425e-06 0)
(6.89838 -8.53702e-06 0)
(6.78531 -5.98104e-06 0)
(6.67321 -8.53291e-06 0)
(6.56229 -1.51305e-06 0)
(6.45223 8.39532e-06 0)
(6.343 8.33963e-05 0)
(6.23297 0.000408105 0)
(6.11707 0.00192356 0)
(5.96319 0.00812227 0)
(5.80745 0.0417379 0)
(4.69348 0.0813566 0)
(42.6198 0.000346201 0)
(42.4168 0.00025039 0)
(42.1771 0.000236342 0)
(41.9527 0.000236995 0)
(41.7399 0.000236246 0)
(41.5283 0.000235965 0)
(41.3148 0.000236109 0)
(41.1003 0.000236405 0)
(40.8856 0.000236693 0)
(40.6708 0.000237012 0)
(40.4559 0.000237353 0)
(40.2407 0.000237705 0)
(40.0253 0.000238063 0)
(39.8097 0.000238426 0)
(39.5939 0.000238795 0)
(39.3779 0.000239167 0)
(39.1617 0.000239543 0)
(38.9454 0.000239919 0)
(38.7288 0.000240296 0)
(38.5121 0.000240674 0)
(38.2952 0.00024105 0)
(38.0781 0.000241425 0)
(37.8608 0.000241796 0)
(37.6434 0.000242165 0)
(37.4259 0.000242532 0)
(37.2082 0.000242897 0)
(36.9903 0.00024326 0)
(36.7723 0.000243618 0)
(36.5542 0.000243974 0)
(36.336 0.000244326 0)
(36.1176 0.000244678 0)
(35.8992 0.000245026 0)
(35.6806 0.000245377 0)
(35.4619 0.000245722 0)
(35.2432 0.000246068 0)
(35.0243 0.00024641 0)
(34.8054 0.000246748 0)
(34.5864 0.000247086 0)
(34.3674 0.000247426 0)
(34.1483 0.000247764 0)
(33.9291 0.000248101 0)
(33.7099 0.000248439 0)
(33.4907 0.00024878 0)
(33.2715 0.000249125 0)
(33.0522 0.000249468 0)
(32.833 0.000249808 0)
(32.6138 0.000250141 0)
(32.3945 0.000250474 0)
(32.1754 0.000250811 0)
(31.9562 0.000251153 0)
(31.7371 0.000251502 0)
(31.518 0.000251854 0)
(31.299 0.000252204 0)
(31.0801 0.00025255 0)
(30.8613 0.000252898 0)
(30.6426 0.000253246 0)
(30.424 0.000253592 0)
(30.2055 0.000253925 0)
(29.9871 0.00025424 0)
(29.7689 0.000254538 0)
(29.5509 0.000254814 0)
(29.333 0.000255061 0)
(29.1153 0.000255273 0)
(28.8978 0.000255433 0)
(28.6804 0.00025551 0)
(28.4634 0.000255476 0)
(28.2465 0.000255299 0)
(28.0299 0.000254942 0)
(27.8135 0.000254355 0)
(27.5974 0.000253471 0)
(27.3816 0.000252225 0)
(27.1661 0.00025055 0)
(26.9509 0.000248382 0)
(26.736 0.000245657 0)
(26.5214 0.000242309 0)
(26.3072 0.00023827 0)
(26.0933 0.000233479 0)
(25.8799 0.000227884 0)
(25.6668 0.000221453 0)
(25.4541 0.000214176 0)
(25.2418 0.000206066 0)
(25.0299 0.000197162 0)
(24.8185 0.000187526 0)
(24.6075 0.000177243 0)
(24.3969 0.000166418 0)
(24.1869 0.000155172 0)
(23.9773 0.000143643 0)
(23.7683 0.000131975 0)
(23.5597 0.00012032 0)
(23.3517 0.000108822 0)
(23.1443 9.76216e-05 0)
(22.9374 8.68439e-05 0)
(22.731 7.6599e-05 0)
(22.5253 6.6977e-05 0)
(22.3202 5.80473e-05 0)
(22.1156 4.98575e-05 0)
(21.9118 4.24336e-05 0)
(21.7085 3.57812e-05 0)
(21.5059 2.98883e-05 0)
(21.304 2.47266e-05 0)
(21.1028 2.02556e-05 0)
(20.9023 1.64251e-05 0)
(20.7025 1.31786e-05 0)
(20.5035 1.04564e-05 0)
(20.3051 8.19773e-06 0)
(20.1076 6.34259e-06 0)
(19.9107 4.83388e-06 0)
(19.7147 3.61796e-06 0)
(19.5195 2.64678e-06 0)
(19.325 1.87703e-06 0)
(19.1314 1.27101e-06 0)
(18.9386 7.95989e-07 0)
(18.7466 4.24783e-07 0)
(18.5554 1.34888e-07 0)
(18.3652 -9.12839e-08 0)
(18.1757 -2.68321e-07 0)
(17.9872 -4.06068e-07 0)
(17.7995 -5.15689e-07 0)
(17.6127 -6.12185e-07 0)
(17.4268 -6.92133e-07 0)
(17.2418 -7.6032e-07 0)
(17.0577 -8.33882e-07 0)
(16.8746 -9.07839e-07 0)
(16.6923 -9.81563e-07 0)
(16.511 -1.05566e-06 0)
(16.3306 -1.13085e-06 0)
(16.1512 -1.20696e-06 0)
(15.9728 -1.2841e-06 0)
(15.7952 -1.36219e-06 0)
(15.6187 -1.44176e-06 0)
(15.4431 -1.52228e-06 0)
(15.2685 -1.60435e-06 0)
(15.0949 -1.68809e-06 0)
(14.9222 -1.77359e-06 0)
(14.7506 -1.86054e-06 0)
(14.5799 -1.94879e-06 0)
(14.4102 -2.0382e-06 0)
(14.2416 -2.1288e-06 0)
(14.0739 -2.22045e-06 0)
(13.9072 -2.31347e-06 0)
(13.7416 -2.40787e-06 0)
(13.5769 -2.50375e-06 0)
(13.4133 -2.60095e-06 0)
(13.2507 -2.69923e-06 0)
(13.0891 -2.79873e-06 0)
(12.9285 -2.89937e-06 0)
(12.769 -3.00123e-06 0)
(12.6105 -3.10398e-06 0)
(12.453 -3.20759e-06 0)
(12.2965 -3.31255e-06 0)
(12.1411 -3.41857e-06 0)
(11.9867 -3.52542e-06 0)
(11.8333 -3.63325e-06 0)
(11.681 -3.74174e-06 0)
(11.5297 -3.85131e-06 0)
(11.3795 -3.96156e-06 0)
(11.2303 -4.07281e-06 0)
(11.0821 -4.18468e-06 0)
(10.935 -4.29743e-06 0)
(10.7889 -4.4109e-06 0)
(10.6439 -4.52516e-06 0)
(10.4999 -4.63966e-06 0)
(10.357 -4.75468e-06 0)
(10.2151 -4.87015e-06 0)
(10.0743 -4.98639e-06 0)
(9.93452 -5.10343e-06 0)
(9.79579 -5.22059e-06 0)
(9.65812 -5.33803e-06 0)
(9.52151 -5.45533e-06 0)
(9.38595 -5.57348e-06 0)
(9.25146 -5.69223e-06 0)
(9.11802 -5.81159e-06 0)
(8.98564 -5.93057e-06 0)
(8.85432 -6.05063e-06 0)
(8.72406 -6.16815e-06 0)
(8.59487 -6.29134e-06 0)
(8.46674 -6.40328e-06 0)
(8.33968 -6.54015e-06 0)
(8.21368 -6.625e-06 0)
(8.08875 -6.81717e-06 0)
(7.9649 -6.79708e-06 0)
(7.8421 -7.17868e-06 0)
(7.72039 -6.85194e-06 0)
(7.59973 -7.70168e-06 0)
(7.48017 -6.7453e-06 0)
(7.36165 -8.35715e-06 0)
(7.24425 -6.59153e-06 0)
(7.12786 -8.98237e-06 0)
(7.01262 -6.4578e-06 0)
(6.89838 -9.64518e-06 0)
(6.78531 -5.88577e-06 0)
(6.67321 -9.54211e-06 0)
(6.56229 1.82211e-07 0)
(6.45223 1.30151e-05 0)
(6.34301 0.000113697 0)
(6.233 0.000547228 0)
(6.1172 0.00257126 0)
(5.96391 0.0107667 0)
(5.80958 0.0549911 0)
(4.73164 0.107833 0)
(42.6198 0.000324979 0)
(42.4168 0.000243175 0)
(42.1771 0.000232758 0)
(41.9527 0.000238358 0)
(41.7399 0.00024075 0)
(41.5283 0.000242362 0)
(41.3148 0.000243717 0)
(41.1003 0.000244755 0)
(40.8856 0.000245475 0)
(40.6708 0.000246013 0)
(40.4559 0.000246425 0)
(40.2407 0.000246744 0)
(40.0253 0.000246995 0)
(39.8097 0.000247199 0)
(39.5939 0.000247373 0)
(39.3779 0.000247526 0)
(39.1617 0.000247666 0)
(38.9453 0.000247797 0)
(38.7288 0.000247925 0)
(38.5121 0.000248052 0)
(38.2951 0.000248178 0)
(38.0781 0.000248305 0)
(37.8608 0.000248433 0)
(37.6434 0.000248564 0)
(37.4259 0.000248697 0)
(37.2082 0.000248834 0)
(36.9903 0.000248976 0)
(36.7723 0.00024912 0)
(36.5542 0.000249266 0)
(36.336 0.000249416 0)
(36.1176 0.000249571 0)
(35.8992 0.000249728 0)
(35.6806 0.000249893 0)
(35.4619 0.000250059 0)
(35.2432 0.00025023 0)
(35.0243 0.000250403 0)
(34.8054 0.000250577 0)
(34.5864 0.000250756 0)
(34.3674 0.000250941 0)
(34.1483 0.000251129 0)
(33.9291 0.00025132 0)
(33.7099 0.000251517 0)
(33.4907 0.00025172 0)
(33.2715 0.00025193 0)
(33.0522 0.000252143 0)
(32.833 0.000252356 0)
(32.6138 0.000252567 0)
(32.3945 0.00025278 0)
(32.1753 0.000253001 0)
(31.9562 0.00025323 0)
(31.7371 0.000253468 0)
(31.518 0.000253712 0)
(31.299 0.000253956 0)
(31.0801 0.000254201 0)
(30.8613 0.000254449 0)
(30.6426 0.000254701 0)
(30.424 0.000254952 0)
(30.2055 0.000255194 0)
(29.9871 0.000255421 0)
(29.7689 0.000255634 0)
(29.5509 0.00025583 0)
(29.333 0.000256001 0)
(29.1153 0.000256141 0)
(28.8977 0.000256234 0)
(28.6804 0.000256252 0)
(28.4633 0.000256168 0)
(28.2465 0.000255952 0)
(28.0299 0.00025557 0)
(27.8135 0.000254972 0)
(27.5974 0.000254098 0)
(27.3816 0.000252883 0)
(27.1661 0.000251265 0)
(26.9509 0.000249183 0)
(26.736 0.000246573 0)
(26.5214 0.000243373 0)
(26.3072 0.000239515 0)
(26.0933 0.000234939 0)
(25.8799 0.000229592 0)
(25.6668 0.00022344 0)
(25.454 0.000216467 0)
(25.2418 0.000208684 0)
(25.0299 0.000200119 0)
(24.8184 0.000190829 0)
(24.6075 0.000180889 0)
(24.3969 0.000170392 0)
(24.1869 0.000159452 0)
(23.9773 0.000148196 0)
(23.7683 0.000136762 0)
(23.5597 0.000125292 0)
(23.3517 0.000113926 0)
(23.1443 0.0001028 0)
(22.9374 9.20399e-05 0)
(22.731 8.17553e-05 0)
(22.5253 7.20399e-05 0)
(22.3202 6.29676e-05 0)
(22.1156 5.45923e-05 0)
(21.9118 4.69474e-05 0)
(21.7085 4.00466e-05 0)
(21.5059 3.38861e-05 0)
(21.304 2.84458e-05 0)
(21.1028 2.36928e-05 0)
(20.9023 1.95836e-05 0)
(20.7025 1.60675e-05 0)
(20.5035 1.30895e-05 0)
(20.3051 1.05925e-05 0)
(20.1076 8.51855e-06 0)
(19.9107 6.81209e-06 0)
(19.7147 5.41991e-06 0)
(19.5195 4.29365e-06 0)
(19.325 3.38914e-06 0)
(19.1314 2.66731e-06 0)
(18.9386 2.09374e-06 0)
(18.7466 1.63923e-06 0)
(18.5554 1.27902e-06 0)
(18.3652 9.92999e-07 0)
(18.1757 7.63715e-07 0)
(17.9872 5.77257e-07 0)
(17.7995 4.23443e-07 0)
(17.6127 2.95266e-07 0)
(17.4268 1.83713e-07 0)
(17.2418 7.58549e-08 0)
(17.0577 -1.69843e-08 0)
(16.8746 -1.0216e-07 0)
(16.6923 -1.83049e-07 0)
(16.511 -2.61413e-07 0)
(16.3306 -3.38783e-07 0)
(16.1512 -4.15957e-07 0)
(15.9728 -4.93336e-07 0)
(15.7952 -5.70832e-07 0)
(15.6187 -6.49061e-07 0)
(15.4431 -7.27916e-07 0)
(15.2685 -8.08043e-07 0)
(15.0949 -8.89627e-07 0)
(14.9222 -9.72875e-07 0)
(14.7506 -1.05741e-06 0)
(14.5799 -1.14308e-06 0)
(14.4102 -1.22983e-06 0)
(14.2416 -1.31776e-06 0)
(14.0739 -1.4067e-06 0)
(13.9072 -1.49672e-06 0)
(13.7416 -1.58808e-06 0)
(13.5769 -1.68093e-06 0)
(13.4133 -1.77488e-06 0)
(13.2507 -1.86993e-06 0)
(13.0891 -1.96603e-06 0)
(12.9285 -2.0633e-06 0)
(12.769 -2.16165e-06 0)
(12.6105 -2.26091e-06 0)
(12.453 -2.36093e-06 0)
(12.2965 -2.46206e-06 0)
(12.1411 -2.56432e-06 0)
(11.9867 -2.66731e-06 0)
(11.8333 -2.77119e-06 0)
(11.681 -2.87557e-06 0)
(11.5297 -2.98106e-06 0)
(11.3795 -3.0872e-06 0)
(11.2303 -3.19427e-06 0)
(11.0821 -3.30185e-06 0)
(10.935 -3.41022e-06 0)
(10.7889 -3.51926e-06 0)
(10.6439 -3.62905e-06 0)
(10.4999 -3.73908e-06 0)
(10.357 -3.84961e-06 0)
(10.2151 -3.96054e-06 0)
(10.0743 -4.07213e-06 0)
(9.93452 -4.1845e-06 0)
(9.79579 -4.29692e-06 0)
(9.65812 -4.40969e-06 0)
(9.52151 -4.52222e-06 0)
(9.38595 -4.63564e-06 0)
(9.25146 -4.7495e-06 0)
(9.11802 -4.86414e-06 0)
(8.98564 -4.97812e-06 0)
(8.85432 -5.09371e-06 0)
(8.72406 -5.20552e-06 0)
(8.59487 -5.32563e-06 0)
(8.46674 -5.42897e-06 0)
(8.33968 -5.56871e-06 0)
(8.21368 -5.63335e-06 0)
(8.08875 -5.8506e-06 0)
(7.9649 -5.76783e-06 0)
(7.8421 -6.24177e-06 0)
(7.72039 -5.73615e-06 0)
(7.59973 -6.83515e-06 0)
(7.48017 -5.48228e-06 0)
(7.36165 -7.58811e-06 0)
(7.24425 -5.17393e-06 0)
(7.12786 -8.29932e-06 0)
(7.01262 -4.89539e-06 0)
(6.89838 -9.07896e-06 0)
(6.78531 -4.05035e-06 0)
(6.67321 -8.91309e-06 0)
(6.56229 4.09121e-06 0)
(6.45223 2.01511e-05 0)
(6.34302 0.00014984 0)
(6.23305 0.000705314 0)
(6.1174 0.00330113 0)
(5.96496 0.0137168 0)
(5.81163 0.069613 0)
(4.76584 0.135862 0)
(42.6198 0.000268884 0)
(42.4168 0.000209533 0)
(42.1771 0.000195636 0)
(41.9526 0.000198359 0)
(41.7398 0.000197875 0)
(41.5282 0.000196568 0)
(41.3148 0.000195426 0)