/*--------------------------------*- C++ -*----------------------------------*\
| =========                 |                                                 |
| \\      /  F ield         | OpenFOAM: The Open Source CFD Toolbox           |
|  \\    /   O peration     | Version:  3.0.x                                 |
|   \\  /    A nd           | Web:      www.OpenFOAM.org                      |
|    \\/     M anipulation  |                                                 |
\*---------------------------------------------------------------------------*/
FoamFile
{
    version     2.0;
    format      ascii;
    class       volVectorField;
    location    "0.27";
    object      U;
}
// * * * * * * * * * * * * * * * * * * * * * * * * * * * * * * * * * * * * * //

dimensions      [0 1 -1 0 0 0 0];

internalField   nonuniform List<vector> 
13800
(
(42.6963 0.000141826 0)
(42.6929 0.000123513 0)
(42.6897 0.000122246 0)
(42.6864 0.000124425 0)
(42.683 0.000126254 0)
(42.6795 0.000127792 0)
(42.6761 0.000129085 0)
(42.6728 0.000130148 0)
(42.6694 0.000131032 0)
(42.6661 0.000131768 0)
(42.6627 0.000132382 0)
(42.6594 0.000132894 0)
(42.6561 0.000133397 0)
(42.6528 0.000133696 0)
(42.6495 0.000134049 0)
(42.6463 0.000134319 0)
(42.6431 0.000134588 0)
(42.6399 0.000134784 0)
(42.6368 0.00013497 0)
(42.6337 0.000135161 0)
(42.6306 0.000135269 0)
(42.6276 0.000135396 0)
(42.6246 0.000135508 0)
(42.6217 0.000135593 0)
(42.6189 0.000135654 0)
(42.6161 0.000135685 0)
(42.6133 0.000135669 0)
(42.6107 0.000135613 0)
(42.6081 0.000135467 0)
(42.6056 0.000135199 0)
(42.6032 0.000134778 0)
(42.6009 0.000134144 0)
(42.5988 0.000133223 0)
(42.5967 0.000131974 0)
(42.5947 0.000130267 0)
(42.5929 0.000128053 0)
(42.5913 0.000125236 0)
(42.5898 0.000121807 0)
(42.5886 0.000117628 0)
(42.5875 0.00011276 0)
(42.5867 0.000107187 0)
(42.5861 0.000100958 0)
(42.5857 9.41568e-05 0)
(42.5856 8.68948e-05 0)
(42.5858 7.93035e-05 0)
(42.5863 7.15417e-05 0)
(42.587 6.3767e-05 0)
(42.588 5.61354e-05 0)
(42.5892 4.87923e-05 0)
(42.5906 4.18632e-05 0)
(42.5923 3.54483e-05 0)
(42.594 2.96193e-05 0)
(42.596 2.44186e-05 0)
(42.598 1.98612e-05 0)
(42.6001 1.59369e-05 0)
(42.6023 1.26154e-05 0)
(42.6044 9.85151e-06 0)
(42.6066 7.58933e-06 0)
(42.6087 5.76754e-06 0)
(42.6108 4.32391e-06 0)
(42.6127 3.1973e-06 0)
(42.6146 2.33172e-06 0)
(42.6164 1.67629e-06 0)
(42.618 1.18707e-06 0)
(42.6194 8.2713e-07 0)
(42.6207 5.65364e-07 0)
(42.6218 3.77996e-07 0)
(42.6226 2.44754e-07 0)
(42.6233 1.5129e-07 0)
(42.6238 8.70814e-08 0)
(42.6241 4.42944e-08 0)
(42.6241 1.66356e-08 0)
(42.6239 -3.2835e-09 0)
(42.6235 -1.97089e-08 0)
(42.6229 -3.21873e-08 0)
(42.622 -4.06008e-08 0)
(42.6208 -4.67106e-08 0)
(42.6195 -5.13624e-08 0)
(42.6179 -5.50496e-08 0)
(42.6161 -5.80305e-08 0)
(42.6141 -6.05116e-08 0)
(42.6119 -6.26096e-08 0)
(42.6095 -6.44096e-08 0)
(42.6069 -6.59621e-08 0)
(42.6042 -6.73014e-08 0)
(42.6012 -6.8452e-08 0)
(42.5982 -6.94442e-08 0)
(42.5949 -7.02375e-08 0)
(42.5916 -7.07857e-08 0)
(42.5881 -7.10371e-08 0)
(42.5845 -7.10253e-08 0)
(42.5809 -7.08608e-08 0)
(42.5771 -7.06492e-08 0)
(42.5733 -7.04098e-08 0)
(42.5695 -7.008e-08 0)
(42.5656 -6.95729e-08 0)
(42.5617 -6.88143e-08 0)
(42.5578 -6.77881e-08 0)
(42.5538 -6.65186e-08 0)
(42.55 -6.5054e-08 0)
(42.5461 -6.34385e-08 0)
(42.5423 -6.171e-08 0)
(42.5385 -5.99017e-08 0)
(42.5348 -5.80254e-08 0)
(42.5311 -5.60894e-08 0)
(42.5276 -5.40891e-08 0)
(42.5241 -5.20323e-08 0)
(42.5207 -4.99262e-08 0)
(42.5174 -4.77781e-08 0)
(42.5142 -4.55813e-08 0)
(42.5111 -4.33923e-08 0)
(42.5081 -4.11859e-08 0)
(42.5052 -3.89734e-08 0)
(42.5024 -3.67652e-08 0)
(42.4998 -3.45667e-08 0)
(42.4972 -3.23873e-08 0)
(42.4948 -3.02379e-08 0)
(42.4925 -2.81268e-08 0)
(42.4903 -2.60676e-08 0)
(42.4882 -2.40586e-08 0)
(42.4862 -2.21062e-08 0)
(42.4844 -2.02121e-08 0)
(42.4826 -1.83858e-08 0)
(42.481 -1.66193e-08 0)
(42.4794 -1.49261e-08 0)
(42.478 -1.32901e-08 0)
(42.4766 -1.17376e-08 0)
(42.4754 -1.02417e-08 0)
(42.4742 -8.8123e-09 0)
(42.4731 -7.44404e-09 0)
(42.4721 -6.13405e-09 0)
(42.4711 -4.8672e-09 0)
(42.4703 -3.65701e-09 0)
(42.4695 -2.52278e-09 0)
(42.4687 -1.48126e-09 0)
(42.468 -3.81668e-10 0)
(42.4674 8.07882e-10 0)
(42.4669 2.10681e-09 0)
(42.4663 3.32215e-09 0)
(42.4659 4.46133e-09 0)
(42.4655 5.55556e-09 0)
(42.4651 6.57109e-09 0)
(42.4647 7.49058e-09 0)
(42.4644 8.25055e-09 0)
(42.4641 8.888e-09 0)
(42.4639 9.40174e-09 0)
(42.4637 9.82453e-09 0)
(42.4635 1.02192e-08 0)
(42.4633 1.05714e-08 0)
(42.4632 1.09259e-08 0)
(42.4631 1.12863e-08 0)
(42.463 1.16254e-08 0)
(42.4629 1.1964e-08 0)
(42.4628 1.22761e-08 0)
(42.4628 1.26124e-08 0)
(42.4627 1.29582e-08 0)
(42.4627 1.314e-08 0)
(42.4627 1.32154e-08 0)
(42.4627 1.43364e-08 0)
(42.4627 1.36786e-08 0)
(42.4627 1.42878e-08 0)
(42.4627 1.39475e-08 0)
(42.4628 1.45485e-08 0)
(42.4628 1.46776e-08 0)
(42.4629 1.48157e-08 0)
(42.463 1.49588e-08 0)
(42.4631 1.50996e-08 0)
(42.4632 1.52325e-08 0)
(42.4633 1.53546e-08 0)
(42.4634 1.54771e-08 0)
(42.4635 1.55991e-08 0)
(42.4636 1.57152e-08 0)
(42.4638 1.58235e-08 0)
(42.4639 1.59365e-08 0)
(42.464 1.6055e-08 0)
(42.4642 1.61677e-08 0)
(42.4644 1.62925e-08 0)
(42.4645 1.64126e-08 0)
(42.4647 1.65433e-08 0)
(42.4649 1.66935e-08 0)
(42.4651 1.68284e-08 0)
(42.4653 1.69671e-08 0)
(42.4655 1.70766e-08 0)
(42.4657 1.69757e-08 0)
(42.4659 1.6915e-08 0)
(42.4662 2.12457e-08 0)
(42.4664 1.25914e-08 0)
(42.4667 2.54893e-08 0)
(42.4669 1.49667e-08 0)
(42.4672 3.75806e-08 0)
(42.4675 1.09376e-07 0)
(42.4678 4.71096e-07 0)
(42.468 2.11011e-06 0)
(42.4681 1.01789e-05 0)
(42.467 4.89273e-05 0)
(42.4608 0.000234442 0)
(42.4301 0.0011157 0)
(42.2854 0.00523184 0)
(41.8214 0.0269452 0)
(37.4083 0.106112 0)
(42.7002 0.000222494 0)
(42.7007 0.000162111 0)
(42.7013 0.00014966 0)
(42.702 0.000147736 0)
(42.7025 0.000145933 0)
(42.7029 0.000144498 0)
(42.7034 0.000143426 0)
(42.704 0.00014255 0)
(42.7045 0.000141829 0)
(42.7051 0.000141223 0)
(42.7056 0.0001407 0)
(42.7062 0.000140243 0)
(42.7068 0.000139975 0)
(42.7074 0.000139505 0)
(42.708 0.000139276 0)
(42.7087 0.000139015 0)
(42.7094 0.000138852 0)
(42.7101 0.000138638 0)
(42.7108 0.000138485 0)
(42.7116 0.000138404 0)
(42.7124 0.000138219 0)
(42.7133 0.000138122 0)
(42.7143 0.000138047 0)
(42.7152 0.000137962 0)
(42.7163 0.000137874 0)
(42.7174 0.000137776 0)
(42.7186 0.000137641 0)
(42.7198 0.000137493 0)
(42.7211 0.000137258 0)
(42.7225 0.000136905 0)
(42.724 0.000136409 0)
(42.7255 0.000135701 0)
(42.7271 0.0001347 0)
(42.7289 0.00013339 0)
(42.7307 0.000131591 0)
(42.7326 0.000129289 0)
(42.7346 0.000126364 0)
(42.7366 0.000122851 0)
(42.7388 0.000118537 0)
(42.741 0.000113548 0)
(42.7433 0.000107846 0)
(42.7457 0.000101486 0)
(42.7482 9.45553e-05 0)
(42.7507 8.7171e-05 0)
(42.7532 7.94636e-05 0)
(42.7559 7.1601e-05 0)
(42.7585 6.37412e-05 0)
(42.7612 5.60408e-05 0)
(42.7639 4.86462e-05 0)
(42.7666 4.16826e-05 0)
(42.7694 3.52485e-05 0)
(42.7721 2.94137e-05 0)
(42.7748 2.42181e-05 0)
(42.7774 1.9674e-05 0)
(42.78 1.57689e-05 0)
(42.7826 1.24699e-05 0)
(42.7851 9.72983e-06 0)
(42.7875 7.49131e-06 0)
(42.7898 5.69167e-06 0)
(42.792 4.26822e-06 0)
(42.7941 3.15893e-06 0)
(42.796 2.30819e-06 0)
(42.7978 1.66494e-06 0)
(42.7994 1.18561e-06 0)
(42.8009 8.33802e-07 0)
(42.8022 5.7827e-07 0)
(42.8033 3.96189e-07 0)
(42.8042 2.67166e-07 0)
(42.8049 1.78153e-07 0)
(42.8054 1.16038e-07 0)
(42.8056 7.17953e-08 0)
(42.8057 4.06087e-08 0)
(42.8055 1.56612e-08 0)
(42.8051 1e-09 0)
(42.8044 -1.32007e-08 0)
(42.8035 -2.38145e-08 0)
(42.8024 -3.21526e-08 0)
(42.801 -3.89906e-08 0)
(42.7994 -4.48104e-08 0)
(42.7977 -4.99085e-08 0)
(42.7956 -5.44788e-08 0)
(42.7934 -5.86249e-08 0)
(42.791 -6.24057e-08 0)
(42.7884 -6.58675e-08 0)
(42.7857 -6.90226e-08 0)
(42.7827 -7.19283e-08 0)
(42.7796 -7.45775e-08 0)
(42.7764 -7.69455e-08 0)
(42.773 -7.8939e-08 0)
(42.7696 -8.05029e-08 0)
(42.766 -8.16941e-08 0)
(42.7623 -8.26399e-08 0)
(42.7586 -8.34621e-08 0)
(42.7548 -8.41631e-08 0)
(42.7509 -8.46768e-08 0)
(42.747 -8.48949e-08 0)
(42.7431 -8.47353e-08 0)
(42.7392 -8.41716e-08 0)
(42.7353 -8.3242e-08 0)
(42.7314 -8.20111e-08 0)
(42.7275 -8.05303e-08 0)
(42.7237 -7.8851e-08 0)
(42.7199 -7.69994e-08 0)
(42.7162 -7.49948e-08 0)
(42.7125 -7.28517e-08 0)
(42.709 -7.05779e-08 0)
(42.7055 -6.81801e-08 0)
(42.7021 -6.56669e-08 0)
(42.6987 -6.30499e-08 0)
(42.6955 -6.03542e-08 0)
(42.6924 -5.7589e-08 0)
(42.6894 -5.47737e-08 0)
(42.6866 -5.19103e-08 0)
(42.6838 -4.90239e-08 0)
(42.6811 -4.61285e-08 0)
(42.6786 -4.32376e-08 0)
(42.6762 -4.03642e-08 0)
(42.6738 -3.75163e-08 0)
(42.6716 -3.47174e-08 0)
(42.6696 -3.19692e-08 0)
(42.6676 -2.92835e-08 0)
(42.6657 -2.66631e-08 0)
(42.664 -2.41204e-08 0)
(42.6623 -2.16572e-08 0)
(42.6608 -1.92853e-08 0)
(42.6593 -1.69922e-08 0)
(42.658 -1.48058e-08 0)
(42.6567 -1.27005e-08 0)
(42.6555 -1.06885e-08 0)
(42.6544 -8.75505e-09 0)
(42.6534 -6.93742e-09 0)
(42.6524 -5.19248e-09 0)
(42.6516 -3.56262e-09 0)
(42.6508 -2.10451e-09 0)
(42.65 -8.34295e-10 0)
(42.6493 9.79922e-11 0)
(42.6487 1.03464e-09 0)
(42.6481 2.01123e-09 0)
(42.6476 3.07908e-09 0)
(42.6472 4.19371e-09 0)
(42.6467 5.33898e-09 0)
(42.6463 6.44943e-09 0)
(42.646 7.50399e-09 0)
(42.6457 8.40729e-09 0)
(42.6454 9.18457e-09 0)
(42.6452 9.8439e-09 0)
(42.6449 1.04132e-08 0)
(42.6448 1.09523e-08 0)
(42.6446 1.1429e-08 0)
(42.6444 1.18968e-08 0)
(42.6443 1.23518e-08 0)
(42.6442 1.27933e-08 0)
(42.6441 1.32243e-08 0)
(42.644 1.36161e-08 0)
(42.644 1.4023e-08 0)
(42.6439 1.45045e-08 0)
(42.6439 1.4612e-08 0)
(42.6439 1.39717e-08 0)
(42.6439 1.79905e-08 0)
(42.6439 1.43891e-08 0)
(42.6439 1.59272e-08 0)
(42.644 1.5102e-08 0)
(42.644 1.63707e-08 0)
(42.6441 1.63919e-08 0)
(42.6441 1.6501e-08 0)
(42.6442 1.66264e-08 0)
(42.6443 1.67649e-08 0)
(42.6444 1.68796e-08 0)
(42.6445 1.69941e-08 0)
(42.6446 1.71016e-08 0)
(42.6447 1.72001e-08 0)
(42.6448 1.73124e-08 0)
(42.6449 1.74092e-08 0)
(42.6451 1.75135e-08 0)
(42.6452 1.76085e-08 0)
(42.6454 1.76979e-08 0)
(42.6455 1.78125e-08 0)
(42.6457 1.791e-08 0)
(42.6459 1.80036e-08 0)
(42.6461 1.8113e-08 0)
(42.6463 1.81908e-08 0)
(42.6464 1.8238e-08 0)
(42.6467 1.81906e-08 0)
(42.6469 1.74985e-08 0)
(42.6471 1.68948e-08 0)
(42.6473 2.57585e-08 0)
(42.6475 4.82436e-09 0)
(42.6478 3.58862e-08 0)
(42.6481 1.804e-08 0)
(42.6483 8.51478e-08 0)
(42.6486 3.29929e-07 0)
(42.6489 1.55569e-06 0)
(42.6492 7.16286e-06 0)
(42.6492 3.46458e-05 0)
(42.6482 0.000166635 0)
(42.6419 0.000798486 0)
(42.6113 0.00380056 0)
(42.4674 0.0177931 0)
(42.0041 0.089763 0)
(37.8277 0.334226 0)
(42.7002 0.000163827 0)
(42.7007 0.000113213 0)
(42.7013 0.00010704 0)
(42.702 0.000110392 0)
(42.7025 0.000111484 0)
(42.7029 0.000111945 0)
(42.7034 0.000112369 0)
(42.704 0.000112711 0)
(42.7045 0.000112995 0)
(42.7051 0.000113232 0)
(42.7056 0.000113427 0)
(42.7062 0.000113586 0)
(42.7068 0.000113826 0)
(42.7074 0.000113842 0)
(42.7081 0.000114003 0)
(42.7087 0.000114095 0)
(42.7094 0.000114231 0)
(42.7101 0.000114288 0)
(42.7109 0.000114375 0)
(42.7117 0.000114494 0)
(42.7125 0.000114501 0)
(42.7134 0.000114565 0)
(42.7143 0.000114636 0)
(42.7153 0.000114682 0)
(42.7164 0.000114713 0)
(42.7175 0.000114724 0)
(42.7187 0.000114694 0)
(42.7199 0.000114642 0)
(42.7212 0.000114509 0)
(42.7226 0.000114272 0)
(42.7241 0.000113905 0)
(42.7257 0.000113355 0)
(42.7273 0.000112552 0)
(42.7291 0.000111485 0)
(42.7309 0.000109996 0)
(42.7328 0.000108082 0)
(42.7348 0.000105642 0)
(42.7368 0.0001027 0)
(42.739 9.90863e-05 0)
(42.7412 9.49018e-05 0)
(42.7436 9.01166e-05 0)
(42.7459 8.47804e-05 0)
(42.7484 7.8966e-05 0)
(42.7509 7.2774e-05 0)
(42.7535 6.63141e-05 0)
(42.7561 5.97282e-05 0)
(42.7587 5.31487e-05 0)
(42.7614 4.67068e-05 0)
(42.7641 4.05251e-05 0)
(42.7668 3.47077e-05 0)
(42.7695 2.93363e-05 0)
(42.7722 2.44685e-05 0)
(42.7749 2.0137e-05 0)
(42.7776 1.63509e-05 0)
(42.7802 1.30992e-05 0)
(42.7827 1.03538e-05 0)
(42.7852 8.07492e-06 0)
(42.7876 6.21411e-06 0)
(42.7899 4.7189e-06 0)
(42.7921 3.53685e-06 0)
(42.7942 2.61608e-06 0)
(42.7961 1.91022e-06 0)
(42.7979 1.37662e-06 0)
(42.7996 9.78973e-07 0)
(42.801 6.86956e-07 0)
(42.8023 4.74607e-07 0)
(42.8034 3.23012e-07 0)
(42.8043 2.14896e-07 0)
(42.805 1.38881e-07 0)
(42.8055 8.48769e-08 0)
(42.8058 4.64673e-08 0)
(42.8058 1.97565e-08 0)
(42.8056 -1.47401e-09 0)
(42.8052 -9.84739e-09 0)
(42.8045 -1.89163e-08 0)
(42.8036 -2.6126e-08 0)
(42.8025 -3.19461e-08 0)
(42.8011 -3.68144e-08 0)
(42.7996 -4.10487e-08 0)
(42.7978 -4.48366e-08 0)
(42.7958 -4.82921e-08 0)
(42.7936 -5.14734e-08 0)
(42.7911 -5.44244e-08 0)
(42.7886 -5.71458e-08 0)
(42.7858 -5.96505e-08 0)
(42.7828 -6.19435e-08 0)
(42.7798 -6.40267e-08 0)
(42.7765 -6.58657e-08 0)
(42.7732 -6.74148e-08 0)
(42.7697 -6.86296e-08 0)
(42.7661 -6.95527e-08 0)
(42.7624 -7.02809e-08 0)
(42.7587 -7.09112e-08 0)
(42.7549 -7.14507e-08 0)
(42.751 -7.18453e-08 0)
(42.7471 -7.20149e-08 0)
(42.7432 -7.18988e-08 0)
(42.7393 -7.1467e-08 0)
(42.7354 -7.07664e-08 0)
(42.7315 -6.98247e-08 0)
(42.7276 -6.86941e-08 0)
(42.7238 -6.74027e-08 0)
(42.72 -6.59791e-08 0)
(42.7163 -6.4449e-08 0)
(42.7126 -6.28087e-08 0)
(42.7091 -6.10646e-08 0)
(42.7056 -5.92219e-08 0)
(42.7022 -5.72839e-08 0)
(42.6989 -5.52716e-08 0)
(42.6957 -5.31856e-08 0)
(42.6925 -5.10507e-08 0)
(42.6896 -4.88762e-08 0)
(42.6867 -4.66682e-08 0)
(42.6839 -4.44309e-08 0)
(42.6812 -4.21811e-08 0)
(42.6787 -3.99344e-08 0)
(42.6763 -3.76945e-08 0)
(42.674 -3.54724e-08 0)
(42.6718 -3.32868e-08 0)
(42.6697 -3.11407e-08 0)
(42.6677 -2.90335e-08 0)
(42.6658 -2.69811e-08 0)
(42.6641 -2.49784e-08 0)
(42.6624 -2.30341e-08 0)
(42.6609 -2.11593e-08 0)
(42.6594 -1.93365e-08 0)
(42.6581 -1.75995e-08 0)
(42.6568 -1.59121e-08 0)
(42.6556 -1.42945e-08 0)
(42.6545 -1.27371e-08 0)
(42.6535 -1.12428e-08 0)
(42.6525 -9.80808e-09 0)
(42.6517 -8.42262e-09 0)
(42.6509 -7.17149e-09 0)
(42.6501 -6.02616e-09 0)
(42.6494 -5.01916e-09 0)
(42.6488 -4.13528e-09 0)
(42.6483 -3.31497e-09 0)
(42.6477 -2.51814e-09 0)
(42.6473 -1.67121e-09 0)
(42.6468 -7.95742e-10 0)
(42.6465 5.31316e-11 0)
(42.6461 8.64157e-10 0)
(42.6458 1.55633e-09 0)
(42.6455 2.15887e-09 0)
(42.6453 2.6696e-09 0)
(42.6451 3.11033e-09 0)
(42.6449 3.53216e-09 0)
(42.6447 3.90734e-09 0)
(42.6446 4.28832e-09 0)
(42.6444 4.63488e-09 0)
(42.6443 4.9932e-09 0)
(42.6442 5.3343e-09 0)
(42.6442 5.6316e-09 0)
(42.6441 5.99356e-09 0)
(42.6441 6.47464e-09 0)
(42.644 6.47169e-09 0)
(42.644 4.24168e-09 0)
(42.644 1.30862e-08 0)
(42.644 4.2799e-09 0)
(42.644 7.06123e-09 0)
(42.6441 6.2515e-09 0)
(42.6441 8.04766e-09 0)
(42.6442 7.88593e-09 0)
(42.6442 7.90413e-09 0)
(42.6443 7.98224e-09 0)
(42.6444 8.07595e-09 0)
(42.6445 8.15265e-09 0)
(42.6446 8.22726e-09 0)
(42.6447 8.28916e-09 0)
(42.6448 8.33958e-09 0)
(42.6449 8.39343e-09 0)
(42.6451 8.42801e-09 0)
(42.6452 8.46733e-09 0)
(42.6453 8.50281e-09 0)
(42.6455 8.52925e-09 0)
(42.6457 8.56434e-09 0)
(42.6458 8.601e-09 0)
(42.646 8.60778e-09 0)
(42.6462 8.6614e-09 0)
(42.6464 8.64176e-09 0)
(42.6466 8.52346e-09 0)
(42.6468 8.19497e-09 0)
(42.647 6.53582e-09 0)
(42.6472 5.30251e-09 0)
(42.6474 1.51193e-08 0)
(42.6477 1.80868e-09 0)
(42.6479 3.32284e-08 0)
(42.6482 2.3287e-08 0)
(42.6484 1.39505e-07 0)
(42.6487 6.15415e-07 0)
(42.649 3.02469e-06 0)
(42.6493 1.4177e-05 0)
(42.6493 6.86888e-05 0)
(42.6483 0.000330549 0)
(42.6422 0.0015843 0)
(42.6124 0.00754605 0)
(42.4724 0.0353291 0)
(42.0234 0.177361 0)
(38.0767 0.645784 0)
(42.7002 0.00011917 0)
(42.7006 0.000102634 0)
(42.7013 9.9341e-05 0)
(42.7019 0.000103648 0)
(42.7024 0.000105924 0)
(42.7029 0.000107173 0)
(42.7034 0.000108247 0)
(42.7039 0.000109157 0)
(42.7045 0.000109916 0)
(42.705 0.000110551 0)
(42.7056 0.000111086 0)
(42.7062 0.000111535 0)
(42.7068 0.00011198 0)
(42.7074 0.000112252 0)
(42.708 0.000112569 0)
(42.7087 0.000112819 0)
(42.7094 0.000113072 0)
(42.7101 0.000113254 0)
(42.7109 0.00011344 0)
(42.7116 0.000113627 0)
(42.7125 0.000113729 0)
(42.7134 0.000113858 0)
(42.7143 0.000113981 0)
(42.7153 0.000114077 0)
(42.7163 0.000114152 0)
(42.7175 0.000114201 0)
(42.7186 0.000114212 0)
(42.7199 0.000114186 0)
(42.7212 0.000114088 0)
(42.7226 0.000113888 0)
(42.7241 0.000113559 0)
(42.7256 0.000113052 0)
(42.7273 0.000112304 0)
(42.729 0.000111285 0)
(42.7308 0.000109872 0)
(42.7327 0.000108039 0)
(42.7347 0.000105699 0)
(42.7368 0.00010284 0)
(42.739 9.9353e-05 0)
(42.7412 9.52798e-05 0)
(42.7435 9.06104e-05 0)
(42.7459 8.53857e-05 0)
(42.7484 7.96736e-05 0)
(42.7509 7.3569e-05 0)
(42.7534 6.71803e-05 0)
(42.7561 6.06429e-05 0)
(42.7587 5.40888e-05 0)
(42.7614 4.76497e-05 0)
(42.7641 4.14487e-05 0)
(42.7668 3.55924e-05 0)
(42.7695 3.0166e-05 0)
(42.7722 2.52309e-05 0)
(42.7749 2.08241e-05 0)
(42.7776 1.69587e-05 0)
(42.7802 1.36273e-05 0)
(42.7827 1.08051e-05 0)
(42.7852 8.45438e-06 0)
(42.7876 6.52851e-06 0)
(42.7899 4.976e-06 0)
(42.7921 3.74455e-06 0)
(42.7942 2.78242e-06 0)
(42.7961 2.04246e-06 0)
(42.7979 1.48147e-06 0)
(42.7996 1.06223e-06 0)
(42.801 7.53376e-07 0)
(42.8023 5.28347e-07 0)
(42.8034 3.66907e-07 0)
(42.8043 2.51391e-07 0)
(42.805 1.69501e-07 0)
(42.8055 1.12544e-07 0)
(42.8058 7.39894e-08 0)
(42.8058 4.85341e-08 0)
(42.8056 2.96819e-08 0)
(42.8052 1.7555e-08 0)
(42.8045 8.28483e-09 0)
(42.8036 1.62587e-09 0)
(42.8025 -3.42644e-09 0)
(42.8011 -7.44962e-09 0)
(42.7996 -1.07942e-08 0)
(42.7978 -1.36728e-08 0)
(42.7958 -1.62216e-08 0)
(42.7936 -1.85112e-08 0)
(42.7911 -2.05943e-08 0)
(42.7886 -2.24851e-08 0)
(42.7858 -2.41952e-08 0)
(42.7828 -2.57411e-08 0)
(42.7798 -2.71227e-08 0)
(42.7765 -2.83197e-08 0)
(42.7732 -2.92897e-08 0)
(42.7697 -2.99936e-08 0)
(42.7661 -3.04636e-08 0)
(42.7624 -3.07877e-08 0)
(42.7587 -3.10474e-08 0)
(42.7549 -3.12629e-08 0)
(42.751 -3.13874e-08 0)
(42.7471 -3.13518e-08 0)
(42.7432 -3.10941e-08 0)
(42.7393 -3.05931e-08 0)
(42.7354 -2.9875e-08 0)
(42.7315 -2.89739e-08 0)
(42.7276 -2.79303e-08 0)
(42.7238 -2.6772e-08 0)
(42.72 -2.5525e-08 0)
(42.7163 -2.42015e-08 0)
(42.7126 -2.2803e-08 0)
(42.7091 -2.13356e-08 0)
(42.7056 -1.98069e-08 0)
(42.7022 -1.82179e-08 0)
(42.6989 -1.6578e-08 0)
(42.6957 -1.48942e-08 0)
(42.6925 -1.31822e-08 0)
(42.6896 -1.14434e-08 0)
(42.6867 -9.68464e-09 0)
(42.6839 -7.9094e-09 0)
(42.6812 -6.1327e-09 0)
(42.6787 -4.36336e-09 0)
(42.6763 -2.60237e-09 0)
(42.674 -8.62706e-10 0)
(42.6718 8.4264e-10 0)
(42.6697 2.51751e-09 0)
(42.6677 4.15132e-09 0)
(42.6658 5.74278e-09 0)
(42.6641 7.28922e-09 0)
(42.6624 8.78655e-09 0)
(42.6609 1.02303e-08 0)
(42.6594 1.16349e-08 0)
(42.6581 1.29702e-08 0)
(42.6568 1.42657e-08 0)
(42.6556 1.5512e-08 0)
(42.6545 1.67092e-08 0)
(42.6535 1.78734e-08 0)
(42.6525 1.89876e-08 0)
(42.6517 2.00848e-08 0)
(42.6509 2.10892e-08 0)
(42.6501 2.20203e-08 0)
(42.6494 2.30371e-08 0)
(42.6488 2.4017e-08 0)
(42.6483 2.50159e-08 0)
(42.6477 2.5917e-08 0)
(42.6473 2.67998e-08 0)
(42.6468 2.76528e-08 0)
(42.6465 2.84622e-08 0)
(42.6461 2.92062e-08 0)
(42.6458 2.98344e-08 0)
(42.6455 3.03716e-08 0)
(42.6453 3.08084e-08 0)
(42.6451 3.11848e-08 0)
(42.6449 3.15247e-08 0)
(42.6447 3.18352e-08 0)
(42.6446 3.21632e-08 0)
(42.6444 3.24487e-08 0)
(42.6443 3.27847e-08 0)
(42.6442 3.31066e-08 0)
(42.6442 3.34931e-08 0)
(42.6441 3.37593e-08 0)
(42.6441 3.50367e-08 0)
(42.644 3.38091e-08 0)
(42.644 2.90397e-08 0)
(42.644 5.06514e-08 0)
(42.644 2.81937e-08 0)
(42.644 3.26205e-08 0)
(42.6441 3.36717e-08 0)
(42.6441 3.65427e-08 0)
(42.6442 3.58011e-08 0)
(42.6442 3.56994e-08 0)
(42.6443 3.57878e-08 0)
(42.6444 3.5915e-08 0)
(42.6445 3.60228e-08 0)
(42.6446 3.61365e-08 0)
(42.6447 3.62504e-08 0)
(42.6448 3.63509e-08 0)
(42.6449 3.64772e-08 0)
(42.6451 3.65722e-08 0)
(42.6452 3.66735e-08 0)
(42.6453 3.67776e-08 0)
(42.6455 3.68291e-08 0)
(42.6457 3.69485e-08 0)
(42.6458 3.70193e-08 0)
(42.646 3.70431e-08 0)
(42.6462 3.71645e-08 0)
(42.6464 3.70952e-08 0)
(42.6466 3.67852e-08 0)
(42.6468 3.5956e-08 0)
(42.647 3.11419e-08 0)
(42.6472 1.42296e-08 0)
(42.6474 4.89708e-08 0)
(42.6477 -4.99612e-08 0)
(42.6479 1.2429e-07 0)
(42.6482 3.68112e-08 0)
(42.6484 3.82588e-07 0)
(42.6487 1.56795e-06 0)
(42.649 7.70554e-06 0)
(42.6493 3.58466e-05 0)
(42.6494 0.000173928 0)
(42.6485 0.000836786 0)
(42.6432 0.00400891 0)
(42.6168 0.019047 0)
(42.4944 0.0881331 0)
(42.1051 0.407758 0)
(39.1044 1.46256 0)
(42.7002 3.6012e-05 0)
(42.7006 2.80099e-05 0)
(42.7013 1.96976e-05 0)
(42.7019 1.65386e-05 0)
(42.7024 1.40762e-05 0)
(42.7029 1.18751e-05 0)
(42.7034 1.01416e-05 0)
(42.7039 8.75127e-06 0)
(42.7045 7.60247e-06 0)
(42.705 6.63991e-06 0)
(42.7056 5.8255e-06 0)
(42.7062 5.12906e-06 0)
(42.7068 4.54629e-06 0)
(42.7074 4.01611e-06 0)
(42.708 3.57453e-06 0)
(42.7087 3.18411e-06 0)
(42.7093 2.85081e-06 0)
(42.7101 2.54671e-06 0)
(42.7108 2.28715e-06 0)
(42.7116 2.06226e-06 0)
(42.7125 1.84487e-06 0)
(42.7133 1.66524e-06 0)
(42.7143 1.50902e-06 0)
(42.7153 1.36792e-06 0)
(42.7163 1.24228e-06 0)
(42.7174 1.13059e-06 0)
(42.7186 1.03051e-06 0)
(42.7199 9.42763e-07 0)
(42.7212 8.64169e-07 0)
(42.7226 7.91492e-07 0)
(42.7241 7.25691e-07 0)
(42.7256 6.64525e-07 0)
(42.7273 6.05159e-07 0)
(42.729 5.53856e-07 0)
(42.7308 4.94853e-07 0)
(42.7327 4.38832e-07 0)
(42.7347 3.79312e-07 0)
(42.7368 3.23904e-07 0)
(42.739 2.59387e-07 0)
(42.7412 1.95618e-07 0)
(42.7435 1.31073e-07 0)
(42.7459 6.70758e-08 0)
(42.7483 5.39078e-09 0)
(42.7509 -5.16912e-08 0)
(42.7534 -1.0416e-07 0)
(42.756 -1.48249e-07 0)
(42.7587 -1.83647e-07 0)
(42.7614 -2.09919e-07 0)
(42.7641 -2.26783e-07 0)
(42.7668 -2.34613e-07 0)
(42.7695 -2.34313e-07 0)
(42.7722 -2.27093e-07 0)
(42.7749 -2.14375e-07 0)
(42.7776 -1.97745e-07 0)
(42.7802 -1.78659e-07 0)
(42.7827 -1.58469e-07 0)
(42.7852 -1.38319e-07 0)
(42.7876 -1.19126e-07 0)
(42.7899 -1.0156e-07 0)
(42.7921 -8.59242e-08 0)
(42.7942 -7.25477e-08 0)
(42.7961 -6.12703e-08 0)
(42.7979 -5.20094e-08 0)
(42.7996 -4.44574e-08 0)
(42.801 -3.82831e-08 0)
(42.8023 -3.34336e-08 0)
(42.8034 -2.9554e-08 0)
(42.8043 -2.65336e-08 0)
(42.805 -2.34491e-08 0)
(42.8055 -2.1074e-08 0)
(42.8058 -2.03901e-08 0)
(42.8058 -2.10663e-08 0)
(42.8056 -2.26168e-08 0)
(42.8052 -2.38254e-08 0)
(42.8045 -2.51953e-08 0)
(42.8036 -2.64212e-08 0)
(42.8025 -2.7557e-08 0)
(42.8011 -2.86248e-08 0)
(42.7996 -2.96381e-08 0)
(42.7978 -3.06035e-08 0)
(42.7958 -3.15245e-08 0)
(42.7936 -3.23975e-08 0)
(42.7911 -3.32235e-08 0)
(42.7886 -3.40002e-08 0)
(42.7858 -3.47247e-08 0)
(42.7828 -3.53986e-08 0)
(42.7798 -3.60188e-08 0)
(42.7765 -3.65795e-08 0)
(42.7732 -3.70721e-08 0)
(42.7697 -3.74877e-08 0)
(42.7661 -3.78363e-08 0)
(42.7624 -3.81375e-08 0)
(42.7587 -3.84011e-08 0)
(42.7549 -3.86175e-08 0)
(42.751 -3.87762e-08 0)
(42.7471 -3.88692e-08 0)
(42.7432 -3.88913e-08 0)
(42.7393 -3.88456e-08 0)
(42.7354 -3.87424e-08 0)
(42.7315 -3.85847e-08 0)
(42.7276 -3.83817e-08 0)
(42.7238 -3.81341e-08 0)
(42.72 -3.78471e-08 0)
(42.7163 -3.75284e-08 0)
(42.7126 -3.71792e-08 0)
(42.7091 -3.68e-08 0)
(42.7056 -3.63916e-08 0)
(42.7022 -3.59608e-08 0)
(42.6989 -3.55062e-08 0)
(42.6957 -3.50316e-08 0)
(42.6925 -3.4544e-08 0)
(42.6896 -3.40455e-08 0)
(42.6867 -3.35381e-08 0)
(42.6839 -3.30256e-08 0)
(42.6812 -3.2511e-08 0)
(42.6787 -3.19958e-08 0)
(42.6763 -3.14866e-08 0)
(42.674 -3.09828e-08 0)
(42.6718 -3.04848e-08 0)
(42.6697 -2.9997e-08 0)
(42.6677 -2.95171e-08 0)
(42.6658 -2.90473e-08 0)
(42.6641 -2.85955e-08 0)
(42.6624 -2.81544e-08 0)
(42.6609 -2.77326e-08 0)
(42.6594 -2.73303e-08 0)
(42.6581 -2.6943e-08 0)
(42.6568 -2.65773e-08 0)
(42.6556 -2.62362e-08 0)
(42.6545 -2.5911e-08 0)
(42.6535 -2.56226e-08 0)
(42.6525 -2.53494e-08 0)
(42.6517 -2.51317e-08 0)
(42.6509 -2.49652e-08 0)
(42.6501 -2.48703e-08 0)
(42.6494 -2.49496e-08 0)
(42.6488 -2.50368e-08 0)
(42.6483 -2.51073e-08 0)
(42.6477 -2.50868e-08 0)
(42.6473 -2.50166e-08 0)
(42.6468 -2.49238e-08 0)
(42.6465 -2.48196e-08 0)
(42.6461 -2.471e-08 0)
(42.6458 -2.46073e-08 0)
(42.6455 -2.45106e-08 0)
(42.6453 -2.44213e-08 0)
(42.6451 -2.43328e-08 0)
(42.6449 -2.42473e-08 0)
(42.6447 -2.41765e-08 0)
(42.6446 -2.40805e-08 0)
(42.6444 -2.40463e-08 0)
(42.6443 -2.39184e-08 0)
(42.6442 -2.38744e-08 0)
(42.6442 -2.379e-08 0)
(42.6441 -2.35911e-08 0)
(42.6441 -2.22139e-08 0)
(42.644 -2.20655e-08 0)
(42.644 -4.0509e-08 0)
(42.644 1.61025e-08 0)
(42.644 -4.29679e-08 0)
(42.644 -2.76346e-08 0)
(42.6441 -2.79165e-08 0)
(42.6441 -2.05125e-08 0)
(42.6442 -2.29219e-08 0)
(42.6442 -2.33955e-08 0)
(42.6443 -2.34503e-08 0)
(42.6444 -2.34297e-08 0)
(42.6445 -2.34124e-08 0)
(42.6446 -2.33964e-08 0)
(42.6447 -2.33584e-08 0)
(42.6448 -2.33695e-08 0)
(42.6449 -2.33146e-08 0)
(42.6451 -2.33185e-08 0)
(42.6452 -2.33005e-08 0)
(42.6453 -2.32626e-08 0)
(42.6455 -2.32635e-08 0)
(42.6457 -2.32428e-08 0)
(42.6458 -2.31216e-08 0)
(42.646 -2.32318e-08 0)
(42.6462 -2.31229e-08 0)
(42.6464 -2.32692e-08 0)
(42.6466 -2.41382e-08 0)
(42.6468 -2.54274e-08 0)
(42.647 -3.36524e-08 0)
(42.6472 -1.84244e-08 0)
(42.6474 -3.18709e-08 0)
(42.6477 -6.05407e-09 0)
(42.6479 -1.66713e-08 0)
(42.6482 8.53185e-08 0)
(42.6484 4.48021e-07 0)
(42.6487 2.64359e-06 0)
(42.649 1.25362e-05 0)
(42.6493 5.97654e-05 0)
(42.6496 0.000288821 0)
(42.6494 0.00139248 0)
(42.6476 0.00668582 0)
(42.6369 0.0318409 0)
(42.5843 0.147769 0)
(42.4137 0.663964 0)
(40.6302 2.35722 0)
(42.7002 -3.6012e-05 0)
(42.7006 -2.80099e-05 0)
(42.7013 -1.96976e-05 0)
(42.7019 -1.65386e-05 0)
(42.7024 -1.40762e-05 0)
(42.7029 -1.18751e-05 0)
(42.7034 -1.01416e-05 0)
(42.7039 -8.75127e-06 0)
(42.7045 -7.60247e-06 0)
(42.705 -6.63991e-06 0)
(42.7056 -5.8255e-06 0)
(42.7062 -5.12905e-06 0)
(42.7068 -4.54629e-06 0)
(42.7074 -4.01612e-06 0)
(42.708 -3.57453e-06 0)
(42.7087 -3.18411e-06 0)
(42.7093 -2.85081e-06 0)
(42.7101 -2.54671e-06 0)
(42.7108 -2.28715e-06 0)
(42.7116 -2.06226e-06 0)
(42.7125 -1.84486e-06 0)
(42.7133 -1.66524e-06 0)
(42.7143 -1.50901e-06 0)
(42.7153 -1.36791e-06 0)
(42.7163 -1.24227e-06 0)
(42.7174 -1.13059e-06 0)
(42.7186 -1.03051e-06 0)
(42.7199 -9.42765e-07 0)
(42.7212 -8.6417e-07 0)
(42.7226 -7.91493e-07 0)
(42.7241 -7.2569e-07 0)
(42.7256 -6.64527e-07 0)
(42.7273 -6.05161e-07 0)
(42.729 -5.53859e-07 0)
(42.7308 -4.94853e-07 0)
(42.7327 -4.38831e-07 0)
(42.7347 -3.79312e-07 0)
(42.7368 -3.23904e-07 0)
(42.739 -2.59388e-07 0)
(42.7412 -1.9562e-07 0)
(42.7435 -1.3107e-07 0)
(42.7459 -6.70747e-08 0)
(42.7483 -5.38873e-09 0)
(42.7509 5.16904e-08 0)
(42.7534 1.0416e-07 0)
(42.756 1.48251e-07 0)
(42.7587 1.83646e-07 0)
(42.7614 2.09916e-07 0)
(42.7641 2.26782e-07 0)
(42.7668 2.34611e-07 0)
(42.7695 2.34311e-07 0)
(42.7722 2.27091e-07 0)
(42.7749 2.14373e-07 0)
(42.7776 1.97744e-07 0)
(42.7802 1.78657e-07 0)
(42.7827 1.58468e-07 0)
(42.7852 1.38319e-07 0)
(42.7876 1.19127e-07 0)
(42.7899 1.0156e-07 0)
(42.7921 8.59242e-08 0)
(42.7942 7.25475e-08 0)
(42.7961 6.12668e-08 0)
(42.7979 5.20076e-08 0)
(42.7996 4.44563e-08 0)
(42.801 3.82824e-08 0)
(42.8023 3.34316e-08 0)
(42.8034 2.95547e-08 0)
(42.8043 2.65355e-08 0)
(42.805 2.3451e-08 0)
(42.8055 2.10748e-08 0)
(42.8058 2.03912e-08 0)
(42.8058 2.10664e-08 0)
(42.8056 2.26142e-08 0)
(42.8052 2.38223e-08 0)
(42.8045 2.51946e-08 0)
(42.8036 2.64195e-08 0)
(42.8025 2.75554e-08 0)
(42.8011 2.86237e-08 0)
(42.7996 2.96373e-08 0)
(42.7978 3.06027e-08 0)
(42.7958 3.15236e-08 0)
(42.7936 3.23989e-08 0)
(42.7911 3.32232e-08 0)
(42.7886 3.39992e-08 0)
(42.7858 3.47249e-08 0)
(42.7828 3.53972e-08 0)
(42.7798 3.60159e-08 0)
(42.7765 3.65806e-08 0)
(42.7732 3.70724e-08 0)
(42.7697 3.74872e-08 0)
(42.7661 3.7835e-08 0)
(42.7624 3.81373e-08 0)
(42.7587 3.83989e-08 0)
(42.7549 3.86145e-08 0)
(42.751 3.87737e-08 0)
(42.7471 3.88703e-08 0)
(42.7432 3.88933e-08 0)
(42.7393 3.88486e-08 0)
(42.7354 3.8743e-08 0)
(42.7315 3.85833e-08 0)
(42.7276 3.83772e-08 0)
(42.7238 3.81297e-08 0)
(42.72 3.78473e-08 0)
(42.7163 3.75275e-08 0)
(42.7126 3.7178e-08 0)
(42.7091 3.68006e-08 0)
(42.7056 3.63947e-08 0)
(42.7022 3.59619e-08 0)
(42.6989 3.55082e-08 0)
(42.6957 3.5036e-08 0)
(42.6925 3.45477e-08 0)
(42.6896 3.40465e-08 0)
(42.6867 3.35393e-08 0)
(42.6839 3.30251e-08 0)
(42.6812 3.2512e-08 0)
(42.6787 3.19968e-08 0)
(42.6763 3.14873e-08 0)
(42.674 3.09832e-08 0)
(42.6718 3.04825e-08 0)
(42.6697 2.99929e-08 0)
(42.6677 2.95155e-08 0)
(42.6658 2.90477e-08 0)
(42.6641 2.85939e-08 0)
(42.6624 2.81532e-08 0)
(42.6609 2.77299e-08 0)
(42.6594 2.73316e-08 0)
(42.6581 2.69425e-08 0)
(42.6568 2.65774e-08 0)
(42.6556 2.62353e-08 0)
(42.6545 2.59121e-08 0)
(42.6535 2.56224e-08 0)
(42.6525 2.53518e-08 0)
(42.6517 2.5133e-08 0)
(42.6509 2.49672e-08 0)
(42.6501 2.48696e-08 0)
(42.6494 2.49501e-08 0)
(42.6488 2.5038e-08 0)
(42.6483 2.51054e-08 0)
(42.6477 2.50876e-08 0)
(42.6473 2.50171e-08 0)
(42.6468 2.49216e-08 0)
(42.6465 2.48177e-08 0)
(42.6461 2.47105e-08 0)
(42.6458 2.46092e-08 0)
(42.6455 2.45113e-08 0)
(42.6453 2.44195e-08 0)
(42.6451 2.43309e-08 0)
(42.6449 2.42504e-08 0)
(42.6447 2.4164e-08 0)
(42.6446 2.41056e-08 0)
(42.6444 2.40051e-08 0)
(42.6443 2.39777e-08 0)
(42.6442 2.39656e-08 0)
(42.6442 2.36856e-08 0)
(42.6441 2.39327e-08 0)
(42.6441 2.47979e-08 0)
(42.644 2.60807e-08 0)
(42.644 -3.67976e-10 0)
(42.644 7.04819e-08 0)
(42.644 1.32705e-09 0)
(42.644 1.99608e-08 0)
(42.6441 1.44745e-08 0)
(42.6441 3.0264e-08 0)
(42.6442 2.4297e-08 0)
(42.6442 2.35765e-08 0)
(42.6443 2.34673e-08 0)
(42.6444 2.3437e-08 0)
(42.6445 2.34143e-08 0)
(42.6446 2.33842e-08 0)
(42.6447 2.33783e-08 0)
(42.6448 2.33433e-08 0)
(42.6449 2.33498e-08 0)
(42.6451 2.33152e-08 0)
(42.6452 2.3311e-08 0)
(42.6453 2.32582e-08 0)
(42.6455 2.32635e-08 0)
(42.6457 2.31835e-08 0)
(42.6458 2.32318e-08 0)
(42.646 2.30893e-08 0)
(42.6462 2.30736e-08 0)
(42.6464 2.2847e-08 0)
(42.6466 2.1522e-08 0)
(42.6468 2.02767e-08 0)
(42.647 5.65135e-09 0)
(42.6472 6.31963e-08 0)
(42.6474 -1.55646e-08 0)
(42.6477 1.5104e-07 0)
(42.6479 -4.81865e-08 0)
(42.6482 2.15438e-07 0)
(42.6484 4.87343e-07 0)
(42.6487 2.73002e-06 0)
(42.649 1.24109e-05 0)
(42.6494 6.01381e-05 0)
(42.6498 0.000289809 0)
(42.6506 0.00140305 0)
(42.653 0.00679973 0)
(42.6626 0.0329643 0)
(42.701 0.157666 0)
(42.8364 0.754404 0)
(43.3435 2.65197 0)
(42.7002 -0.00011917 0)
(42.7006 -0.000102634 0)
(42.7013 -9.9341e-05 0)
(42.7019 -0.000103648 0)
(42.7024 -0.000105924 0)
(42.7029 -0.000107173 0)
(42.7034 -0.000108247 0)
(42.7039 -0.000109157 0)
(42.7045 -0.000109916 0)
(42.705 -0.000110551 0)