/*--------------------------------*- C++ -*----------------------------------*\
| =========                 |                                                 |
| \\      /  F ield         | OpenFOAM: The Open Source CFD Toolbox           |
|  \\    /   O peration     | Version:  3.0.x                                 |
|   \\  /    A nd           | Web:      www.OpenFOAM.org                      |
|    \\/     M anipulation  |                                                 |
\*---------------------------------------------------------------------------*/
FoamFile
{
    version     2.0;
    format      ascii;
    class       volScalarField;
    location    "0.58005";
    object      rho;
}
// * * * * * * * * * * * * * * * * * * * * * * * * * * * * * * * * * * * * * //

dimensions      [1 -3 0 0 0 0 0];

internalField   nonuniform List<scalar> 
13800
(
55.1628
55.1743
55.1922
55.2094
55.2257
55.2412
55.2562
55.2712
55.2859
55.3
55.3138
55.3276
55.3415
55.3551
55.3683
55.3815
55.3945
55.4076
55.4206
55.4337
55.4468
55.4599
55.4732
55.4865
55.4999
55.5134
55.5269
55.5405
55.5542
55.568
55.5817
55.5955
55.6094
55.6232
55.6371
55.6509
55.6648
55.6786
55.6925
55.7063
55.72
55.7338
55.7475
55.7611
55.7747
55.7882
55.8017
55.8151
55.8285
55.8417
55.8549
55.868
55.881
55.8939
55.9068
55.9195
55.9321
55.9447
55.9571
55.9695
55.9817
55.9939
56.0059
56.0178
56.0296
56.0413
56.0529
56.0644
56.0758
56.087
56.0982
56.1092
56.1201
56.1309
56.1416
56.1522
56.1627
56.173
56.1833
56.1934
56.2034
56.2133
56.2231
56.2327
56.2422
56.2516
56.2609
56.2701
56.2792
56.2882
56.2972
56.306
56.3148
56.3235
56.3321
56.3405
56.3488
56.3571
56.3651
56.3731
56.381
56.3887
56.3963
56.4038
56.4112
56.4185
56.4257
56.4329
56.44
56.447
56.4539
56.4607
56.4673
56.4739
56.4804
56.4868
56.4932
56.4994
56.5056
56.5117
56.5177
56.5237
56.5295
56.5353
56.5409
56.5465
56.5519
56.5572
56.5624
56.5676
56.5726
56.5775
56.5823
56.5871
56.5918
56.5965
56.6011
56.6056
56.6102
56.6146
56.6189
56.6232
56.6274
56.6315
56.6355
56.6394
56.6433
56.647
56.6507
56.6543
56.6579
56.6613
56.6647
56.668
56.6713
56.6745
56.6776
56.6806
56.6836
56.6865
56.6893
56.6921
56.6948
56.6974
56.7
56.7025
56.705
56.7074
56.7097
56.7119
56.7142
56.7163
56.7185
56.7204
56.7225
56.7243
56.7264
56.7279
56.7301
56.7313
56.7335
56.7346
56.7368
56.7376
56.7399
56.7404
56.7427
56.7431
56.7454
56.7457
56.7479
56.7481
56.7502
56.7504
56.7524
56.7528
56.754
56.7557
56.7548
56.7568
55.1649
55.1764
55.1943
55.2115
55.2278
55.2433
55.2583
55.2733
55.288
55.3021
55.3159
55.3297
55.3435
55.3572
55.3704
55.3835
55.3966
55.4096
55.4227
55.4357
55.4488
55.462
55.4752
55.4885
55.5019
55.5154
55.5289
55.5425
55.5562
55.5699
55.5837
55.5975
55.6113
55.6252
55.639
55.6529
55.6667
55.6806
55.6944
55.7082
55.722
55.7357
55.7494
55.763
55.7766
55.7901
55.8036
55.817
55.8303
55.8436
55.8568
55.8699
55.8829
55.8958
55.9086
55.9213
55.934
55.9465
55.959
55.9713
55.9835
55.9957
56.0077
56.0196
56.0314
56.0431
56.0547
56.0662
56.0776
56.0888
56.0999
56.111
56.1219
56.1327
56.1434
56.1539
56.1644
56.1747
56.185
56.1951
56.2051
56.215
56.2248
56.2344
56.2439
56.2533
56.2626
56.2718
56.2809
56.2899
56.2988
56.3076
56.3164
56.3251
56.3336
56.3421
56.3504
56.3586
56.3667
56.3747
56.3826
56.3903
56.3979
56.4054
56.4128
56.4201
56.4273
56.4344
56.4415
56.4485
56.4554
56.4622
56.4688
56.4754
56.4819
56.4883
56.4946
56.5008
56.507
56.5131
56.5192
56.5251
56.5309
56.5366
56.5423
56.5478
56.5533
56.5586
56.5638
56.569
56.574
56.5789
56.5837
56.5885
56.5932
56.5978
56.6024
56.6069
56.6114
56.6159
56.6202
56.6245
56.6287
56.6328
56.6368
56.6407
56.6445
56.6483
56.652
56.6556
56.6591
56.6626
56.6659
56.6693
56.6725
56.6757
56.6788
56.6818
56.6848
56.6877
56.6905
56.6933
56.696
56.6986
56.7012
56.7037
56.7062
56.7085
56.7109
56.7131
56.7154
56.7175
56.7197
56.7216
56.7237
56.7254
56.7276
56.7291
56.7313
56.7325
56.7347
56.7358
56.738
56.7388
56.741
56.7417
56.7439
56.7444
56.7466
56.747
56.749
56.7494
56.7514
56.7517
56.7536
56.7538
56.7556
56.7558
56.7573
56.7571
55.1649
55.1764
55.1943
55.2115
55.2278
55.2433
55.2583
55.2733
55.288
55.3021
55.3159
55.3297
55.3435
55.3572
55.3704
55.3835
55.3966
55.4096
55.4227
55.4357
55.4488
55.462
55.4752
55.4885
55.5019
55.5154
55.5289
55.5425
55.5562
55.5699
55.5837
55.5975
55.6113
55.6252
55.639
55.6529
55.6667
55.6806
55.6944
55.7082
55.722
55.7357
55.7494
55.763
55.7766
55.7901
55.8036
55.817
55.8303
55.8436
55.8568
55.8699
55.8829
55.8958
55.9086
55.9213
55.934
55.9465
55.959
55.9713
55.9835
55.9957
56.0077
56.0196
56.0314
56.0431
56.0547
56.0662
56.0776
56.0888
56.1
56.111
56.1219
56.1327
56.1434
56.1539
56.1644
56.1747
56.185
56.1951
56.2051
56.215
56.2248
56.2344
56.2439
56.2533
56.2626
56.2718
56.2809
56.2899
56.2988
56.3077
56.3164
56.3251
56.3337
56.3421
56.3504
56.3586
56.3667
56.3747
56.3826
56.3903
56.3979
56.4054
56.4128
56.4201
56.4273
56.4344
56.4415
56.4485
56.4554
56.4622
56.4688
56.4754
56.4819
56.4883
56.4946
56.5009
56.507
56.5131
56.5192
56.5251
56.5309
56.5366
56.5423
56.5478
56.5533
56.5586
56.5638
56.569
56.574
56.5789
56.5838
56.5885
56.5932
56.5978
56.6024
56.607
56.6114
56.6159
56.6202
56.6245
56.6287
56.6328
56.6368
56.6407
56.6445
56.6483
56.652
56.6556
56.6591
56.6626
56.666
56.6693
56.6725
56.6757
56.6788
56.6818
56.6848
56.6877
56.6905
56.6933
56.696
56.6986
56.7012
56.7037
56.7062
56.7086
56.7109
56.7131
56.7154
56.7175
56.7197
56.7216
56.7238
56.7254
56.7276
56.7291
56.7313
56.7325
56.7347
56.7358
56.738
56.7388
56.741
56.7417
56.7439
56.7444
56.7466
56.747
56.749
56.7494
56.7514
56.7517
56.7536
56.7538
56.7556
56.7557
56.7574
56.7576
55.1649
55.1764
55.1943
55.2115
55.2278
55.2433
55.2583
55.2733
55.288
55.3021
55.3159
55.3297
55.3435
55.3572
55.3703
55.3835
55.3966
55.4096
55.4227
55.4357
55.4488
55.462
55.4752
55.4885
55.5019
55.5154
55.5289
55.5425
55.5562
55.5699
55.5837
55.5975
55.6113
55.6252
55.639
55.6529
55.6667
55.6806
55.6944
55.7082
55.7219
55.7357
55.7494
55.763
55.7766
55.7901
55.8036
55.817
55.8303
55.8436
55.8568
55.8698
55.8829
55.8958
55.9086
55.9213
55.934
55.9465
55.959
55.9713
55.9835
55.9957
56.0077
56.0196
56.0314
56.0431
56.0547
56.0662
56.0776
56.0888
56.0999
56.111
56.1219
56.1327
56.1434
56.1539
56.1644
56.1747
56.185
56.1951
56.2051
56.215
56.2248
56.2344
56.2439
56.2533
56.2626
56.2718
56.2808
56.2898
56.2988
56.3076
56.3164
56.3251
56.3336
56.3421
56.3504
56.3586
56.3667
56.3747
56.3826
56.3903
56.3979
56.4054
56.4128
56.4201
56.4273
56.4344
56.4415
56.4485
56.4554
56.4622
56.4688
56.4754
56.4819
56.4883
56.4946
56.5008
56.507
56.5131
56.5192
56.5251
56.5309
56.5366
56.5423
56.5478
56.5533
56.5586
56.5638
56.569
56.574
56.5789
56.5838
56.5885
56.5932
56.5978
56.6024
56.607
56.6114
56.6159
56.6202
56.6245
56.6287
56.6328
56.6368
56.6407
56.6445
56.6483
56.652
56.6556
56.6591
56.6626
56.666
56.6693
56.6725
56.6757
56.6788
56.6818
56.6848
56.6877
56.6905
56.6933
56.696
56.6986
56.7012
56.7037
56.7062
56.7086
56.7109
56.7131
56.7154
56.7175
56.7197
56.7216
56.7238
56.7254
56.7276
56.7291
56.7313
56.7325
56.7347
56.7358
56.738
56.7388
56.741
56.7417
56.7439
56.7444
56.7466
56.747
56.749
56.7494
56.7514
56.7517
56.7536
56.7538
56.7556
56.7558
56.7574
56.7579
55.1649
55.1763
55.1943
55.2115
55.2278
55.2433
55.2583
55.2733
55.288
55.3021
55.3159
55.3297
55.3435
55.3571
55.3703
55.3835
55.3966
55.4096
55.4226
55.4357
55.4488
55.4619
55.4752
55.4885
55.5019
55.5153
55.5289
55.5425
55.5562
55.5699
55.5837
55.5975
55.6113
55.6251
55.639
55.6529
55.6667
55.6806
55.6944
55.7082
55.7219
55.7357
55.7494
55.763
55.7766
55.7901
55.8036
55.817
55.8303
55.8436
55.8567
55.8698
55.8828
55.8958
55.9086
55.9213
55.934
55.9465
55.9589
55.9713
55.9835
55.9957
56.0077
56.0196
56.0314
56.0431
56.0547
56.0662
56.0775
56.0888
56.0999
56.111
56.1219
56.1327
56.1434
56.1539
56.1644
56.1747
56.185
56.1951
56.2051
56.215
56.2247
56.2344
56.2439
56.2533
56.2626
56.2718
56.2808
56.2898
56.2988
56.3076
56.3164
56.3251
56.3336
56.3421
56.3504
56.3586
56.3667
56.3747
56.3825
56.3903
56.3979
56.4054
56.4128
56.4201
56.4273
56.4344
56.4415
56.4485
56.4554
56.4622
56.4688
56.4754
56.4819
56.4883
56.4946
56.5008
56.507
56.5131
56.5192
56.5251
56.5309
56.5366
56.5423
56.5478
56.5533
56.5586
56.5638
56.569
56.574
56.5789
56.5837
56.5885
56.5932
56.5978
56.6024
56.607
56.6114
56.6159
56.6202
56.6245
56.6287
56.6328
56.6368
56.6407
56.6445
56.6483
56.652
56.6556
56.6591
56.6626
56.666
56.6693
56.6725
56.6757
56.6788
56.6818
56.6848
56.6877
56.6905
56.6933
56.696
56.6986
56.7012
56.7037
56.7062
56.7085
56.7109
56.7131
56.7154
56.7175
56.7197
56.7216
56.7238
56.7254
56.7276
56.7291
56.7313
56.7325
56.7347
56.7357
56.738
56.7388
56.741
56.7417
56.7439
56.7444
56.7466
56.747
56.749
56.7494
56.7514
56.7517
56.7536
56.7538
56.7556
56.7558
56.7575
56.7575
55.1649
55.1763
55.1943
55.2115
55.2278
55.2433
55.2583
55.2733
55.288
55.3021
55.3159
55.3297
55.3435
55.3571
55.3703
55.3835
55.3966
55.4096
55.4226
55.4357
55.4488
55.4619
55.4752
55.4885
55.5019
55.5153
55.5289
55.5425
55.5562
55.5699
55.5837
55.5975
55.6113
55.6251
55.639
55.6529
55.6667
55.6806
55.6944
55.7082
55.7219
55.7357
55.7494
55.763
55.7766
55.7901
55.8036
55.817
55.8303
55.8436
55.8567
55.8698
55.8828
55.8958
55.9086
55.9213
55.934
55.9465
55.9589
55.9713
55.9835
55.9957
56.0077
56.0196
56.0314
56.0431
56.0547
56.0662
56.0775
56.0888
56.0999
56.111
56.1219
56.1327
56.1434
56.1539
56.1644
56.1747
56.185
56.1951
56.2051
56.215
56.2247
56.2344
56.2439
56.2533
56.2626
56.2718
56.2808
56.2898
56.2988
56.3076
56.3164
56.3251
56.3336
56.3421
56.3504
56.3586
56.3667
56.3747
56.3825
56.3903
56.3979
56.4054
56.4128
56.4201
56.4273
56.4344
56.4415
56.4485
56.4554
56.4622
56.4688
56.4754
56.4819
56.4883
56.4946
56.5008
56.507
56.5131
56.5192
56.5251
56.5309
56.5366
56.5423
56.5478
56.5533
56.5586
56.5638
56.569
56.574
56.5789
56.5837
56.5885
56.5932
56.5978
56.6024
56.607
56.6114
56.6159
56.6202
56.6245
56.6287
56.6328
56.6368
56.6407
56.6445
56.6483
56.652
56.6556
56.6591
56.6626
56.666
56.6693
56.6725
56.6757
56.6788
56.6818
56.6848
56.6877
56.6905
56.6933
56.696
56.6986
56.7012
56.7037
56.7062
56.7086
56.7109
56.7132
56.7154
56.7175
56.7196
56.7217
56.7237
56.7255
56.7275
56.7292
56.7311
56.7327
56.7344
56.7362
56.7373
56.7395
56.7402
56.7425
56.7431
56.7452
56.7459
56.7476
56.7488
56.7494
56.7514
56.7516
56.7535
56.7542
56.7553
56.7558
56.7573
56.7582
55.1649
55.1764
55.1943
55.2115
55.2278
55.2433
55.2583
55.2733
55.288
55.3021
55.3159
55.3297
55.3435
55.3572
55.3703
55.3835
55.3966
55.4096
55.4227
55.4357
55.4488
55.462
55.4752
55.4885
55.5019
55.5154
55.5289
55.5425
55.5562
55.5699
55.5837
55.5975
55.6113
55.6252
55.639
55.6529
55.6667
55.6806
55.6944
55.7082
55.7219
55.7357
55.7494
55.763
55.7766
55.7901
55.8036
55.817
55.8303
55.8436
55.8568
55.8698
55.8829
55.8958
55.9086
55.9213
55.934
55.9465
55.959
55.9713
55.9835
55.9957
56.0077
56.0196
56.0314
56.0431
56.0547
56.0662
56.0776
56.0888
56.0999
56.111
56.1219
56.1327
56.1434
56.1539
56.1644
56.1747
56.185
56.1951
56.2051
56.215
56.2248
56.2344
56.2439
56.2533
56.2626
56.2718
56.2808
56.2898
56.2988
56.3076
56.3164
56.3251
56.3336
56.3421
56.3504
56.3586
56.3667
56.3747
56.3826
56.3903
56.3979
56.4054
56.4128
56.4201
56.4273
56.4344
56.4415
56.4485
56.4554
56.4622
56.4688
56.4754
56.4819
56.4883
56.4946
56.5008
56.507
56.5131
56.5192
56.5251
56.5309
56.5366
56.5423
56.5478
56.5533
56.5586
56.5638
56.569
56.574
56.5789
56.5838
56.5885
56.5932
56.5978
56.6024
56.607
56.6114
56.6159
56.6202
56.6245
56.6287
56.6328
56.6368
56.6407
56.6445
56.6483
56.652
56.6556
56.6591
56.6626
56.666
56.6693
56.6725
56.6757
56.6788
56.6818
56.6848
56.6877
56.6905
56.6933
56.696
56.6986
56.7012
56.7037
56.7062
56.7086
56.7109
56.7132
56.7154
56.7176
56.7196
56.7217
56.7235
56.7257
56.7272
56.7295
56.7308
56.7331
56.7341
56.7364
56.7373
56.7395
56.7403
56.7425
56.7431
56.7452
56.7457
56.7478
56.7482
56.7502
56.7506
56.7525
56.7527
56.7546
56.7548
56.7565
56.757
56.7583
55.1649
55.1764
55.1943
55.2115
55.2278
55.2433
55.2583
55.2733
55.288
55.3021
55.3159
55.3297
55.3435
55.3572
55.3704
55.3835
55.3966
55.4096
55.4227
55.4357
55.4488
55.462
55.4752
55.4885
55.5019
55.5154
55.5289
55.5425
55.5562
55.5699
55.5837
55.5975
55.6113
55.6252
55.639
55.6529
55.6667
55.6806
55.6944
55.7082
55.722
55.7357
55.7494
55.763
55.7766
55.7901
55.8036
55.817
55.8303
55.8436
55.8568
55.8699
55.8829
55.8958
55.9086
55.9213
55.934
55.9465
55.959
55.9713
55.9835
55.9957
56.0077
56.0196
56.0314
56.0431
56.0547
56.0662
56.0776
56.0888
56.1
56.111
56.1219
56.1327
56.1434
56.1539
56.1644
56.1747
56.185
56.1951
56.2051
56.215
56.2248
56.2344
56.2439
56.2533
56.2626
56.2718
56.2809
56.2899
56.2988
56.3077
56.3164
56.3251
56.3337
56.3421
56.3504
56.3586
56.3667
56.3747
56.3826
56.3903
56.3979
56.4054
56.4128
56.4201
56.4273
56.4344
56.4415
56.4485
56.4554
56.4622
56.4688
56.4754
56.4819
56.4883
56.4946
56.5009
56.507
56.5131
56.5192
56.5251
56.5309
56.5366
56.5423
56.5478
56.5533
56.5586
56.5638
56.569
56.574
56.5789
56.5838
56.5885
56.5932
56.5978
56.6024
56.607
56.6114
56.6159
56.6202
56.6245
56.6287
56.6328
56.6368
56.6407
56.6445
56.6483
56.652
56.6556
56.6591
56.6626
56.666
56.6693
56.6725
56.6757
56.6788
56.6818
56.6848
56.6877
56.6905
56.6933
56.696
56.6986
56.7012
56.7037
56.7062
56.7086
56.7109
56.7132
56.7153
56.7176
56.7196
56.7218
56.7235
56.7257
56.7272
56.7295
56.7308
56.7331
56.7341
56.7364
56.7373
56.7396
56.7402
56.7425
56.7431
56.7452
56.7457
56.7478
56.7482
56.7502
56.7505
56.7525
56.7527
56.7546
56.7547
56.7566
56.7564
56.7579
55.1649
55.1764
55.1943
55.2115
55.2278
55.2433
55.2583
55.2733
55.288
55.3021
55.3159
55.3297
55.3435
55.3572
55.3704
55.3835
55.3966
55.4096
55.4227
55.4357
55.4488
55.462
55.4752
55.4885
55.5019
55.5154
55.5289
55.5425
55.5562
55.5699
55.5837
55.5975
55.6113
55.6252
55.639
55.6529
55.6667
55.6806
55.6944
55.7082
55.722
55.7357
55.7494
55.763
55.7766
55.7901
55.8036
55.817
55.8303
55.8436
55.8568
55.8699
55.8829
55.8958
55.9086
55.9213
55.934
55.9465
55.959
55.9713
55.9835
55.9957
56.0077
56.0196
56.0314
56.0431
56.0547
56.0662
56.0776
56.0888
56.0999
56.111
56.1219
56.1327
56.1434
56.1539
56.1644
56.1747
56.185
56.1951
56.2051
56.215
56.2248
56.2344
56.2439
56.2533
56.2626
56.2718
56.2809
56.2899
56.2988
56.3076
56.3164
56.3251
56.3336
56.3421
56.3504
56.3586
56.3667
56.3747
56.3826
56.3903
56.3979
56.4054
56.4128
56.4201
56.4273
56.4344
56.4415
56.4485
56.4554
56.4622
56.4688
56.4754
56.4819
56.4883
56.4946
56.5008
56.507
56.5131
56.5192
56.5251
56.5309
56.5366
56.5423
56.5478
56.5533
56.5586
56.5638
56.569
56.574
56.5789
56.5837
56.5885
56.5932
56.5978
56.6024
56.6069
56.6114
56.6159
56.6202
56.6245
56.6287
56.6328
56.6368
56.6407
56.6445
56.6483
56.652
56.6556
56.6591
56.6626
56.6659
56.6693
56.6725
56.6757
56.6788
56.6818
56.6848
56.6877
56.6905
56.6933
56.696
56.6986
56.7012
56.7037
56.7062
56.7086
56.7109
56.7132
56.7153
56.7176
56.7196
56.7218
56.7235
56.7257
56.7272
56.7295
56.7308
56.7331
56.7341
56.7364
56.7373
56.7396
56.7402
56.7425
56.743
56.7452
56.7457
56.7478
56.7482
56.7502
56.7505
56.7525
56.7527
56.7546
56.7547
56.7566
56.7563
56.7575
55.1628
55.1743
55.1922
55.2094
55.2257
55.2412
55.2562
55.2712
55.2859
55.3
55.3138
55.3276
55.3415
55.3551
55.3683
55.3815
55.3945
55.4076
55.4206
55.4337
55.4468
55.4599
55.4732
55.4865
55.4999
55.5134
55.5269
55.5405
55.5542
55.568
55.5817
55.5955
55.6094
55.6232
55.6371
55.6509
55.6648
55.6786
55.6925
55.7063
55.72
55.7338
55.7475
55.7611
55.7747
55.7882
55.8017
55.8151
55.8285
55.8417
55.8549
55.868
55.881
55.8939
55.9068
55.9195
55.9321
55.9447
55.9571
55.9695
55.9817
55.9939
56.0059
56.0178
56.0296
56.0413
56.0529
56.0644
56.0758
56.087
56.0982
56.1092
56.1201
56.1309
56.1416
56.1522
56.1627
56.173
56.1833
56.1934
56.2034
56.2133
56.2231
56.2327
56.2422
56.2516
56.2609
56.2701
56.2792
56.2882
56.2972
56.306
56.3148
56.3235
56.3321
56.3405
56.3488
56.3571
56.3651
56.3731
56.381
56.3887
56.3963
56.4038
56.4112
56.4185
56.4257
56.4329
56.44
56.447
56.4539
56.4607
56.4673
56.4739
56.4804
56.4868
56.4932
56.4994
56.5056
56.5117
56.5177
56.5237
56.5295
56.5353
56.5409
56.5465
56.5519
56.5572
56.5624
56.5676
56.5726
56.5775
56.5823
56.5871
56.5918
56.5965
56.6011
56.6056
56.6102
56.6146
56.6189
56.6232
56.6274
56.6315
56.6355
56.6394
56.6433
56.647
56.6507
56.6543
56.6579
56.6613
56.6647
56.668
56.6713
56.6745
56.6776
56.6806
56.6836
56.6865
56.6893
56.6921
56.6948
56.6974
56.7
56.7025
56.705
56.7074
56.7097
56.712
56.7141
56.7164
56.7184
56.7205
56.7223
56.7245
56.726
56.7283
56.7296
56.7319
56.7329
56.7352
56.736
56.7384
56.739
56.7413
56.7418
56.7441
56.7445
56.7467
56.747
56.7491
56.7493
56.7513
56.7515
56.7535
56.7534
56.7555
56.7547
56.7563
56.7577
56.7578
56.7578
56.7577
56.7572
56.7563
56.7551
56.7541
56.7534
56.7531
56.753
56.7532
56.7533
56.7534
56.7535
56.7536
56.7536
56.7535
56.7533
56.7534
56.7575
56.7576
56.7576
56.7575
56.7574
56.7573
56.7571
56.7567
56.7563
56.756
56.7557
56.7554
56.7551
56.755
56.7549
56.755
56.755
56.755
56.755
56.7551
56.7572
56.7571
56.7572
56.7572
56.7573
56.7573
56.7572
56.7572
56.7569
56.7567
56.7562
56.7561
56.7557
56.7556
56.7553
56.7553
56.7552
56.7551
56.7552
56.7552
56.7578
56.758
56.758
56.7582
56.7582
56.7582
56.7581
56.7582
56.7581
56.7581
56.758
56.7579
56.7576
56.7573
56.7566
56.7562
56.7556
56.7553
56.7551
56.7548
56.7578
56.758
56.7581
56.7584
56.7585
56.7587
56.7589
56.759
56.7592
56.7594
56.7595
56.7597
56.7599
56.76
56.7601
56.7602
56.7601
56.76
56.76
56.7599
56.7583
56.7584
56.7584
56.7586
56.7587
56.7589
56.7589
56.759
56.759
56.759
56.7589
56.7589
56.7588
56.7588
56.7585
56.7582
56.7577
56.7572
56.7567
56.7564
56.7588
56.7589
56.7589
56.7591
56.7593
56.7594
56.7596
56.7598
56.76
56.7602
56.7604
56.7605
56.7607
56.7609
56.7612
56.7615
56.7619
56.7623
56.7626
56.7628
56.7587
56.7588
56.7589
56.759
56.7591
56.7592
56.7593
56.7594
56.7596
56.7597
56.7599
56.7601
56.7603
56.7607
56.7612
56.7619
56.7628
56.7639
56.7649
56.7653
56.7581
56.7583
56.7585
56.7587
56.7589
56.7591
56.7593
56.7596
56.7599
56.7602
56.7605
56.7609
56.7615
56.7621
56.7629
56.7638
56.7648
56.7659
56.7667
56.7665
56.7571
56.7572
56.7574
56.7577
56.758
56.7583
56.7586
56.759
56.7595
56.76
56.7606
56.7612
56.7618
56.7625
56.7633
56.7642
56.7652
56.7664
56.767
56.7664
56.7534
56.7525
56.7524
56.7532
56.7543
56.7546
56.7543
56.7542
56.7545
56.7551
56.7556
56.756
56.7561
56.7559
56.7558
56.7557
56.7559
56.7561
56.7564
56.7565
56.7566
56.7566
56.7567
56.7567
56.7567
56.7567
56.7567
56.7567
56.7566
56.7566
56.7565
56.7564
56.7563
56.7562
56.7561
56.756
56.7559
56.7557
56.7556
56.7554
56.7552
56.755
56.7549
56.7547
56.7545
56.7543
56.7541
56.7539
56.7536
56.7534
56.7531
56.7529
56.7527
56.7524
56.7522
56.752
56.7518
56.7516
56.7514
56.7512
56.751
56.7508
56.7506
56.7504
56.7502
56.75
56.7498
56.7496
56.7494
56.7492
56.7491
56.7489
56.7487
56.7485
56.7483
56.7482
56.748
56.7479
56.7478
56.7477
56.7476
56.7475
56.7474
56.7473
56.7472
56.747
56.7469
56.7468
56.7467
56.7466
56.7466
56.7465
56.7464
56.7464
56.7463
56.7462
56.7462
56.7461
56.746
56.746
56.7459
56.7459
56.7459
56.7458
56.7458
56.7457
56.7456
56.7456
56.7455
56.7454
56.7454
56.7453
56.7453
56.7453
56.7453
56.7453
56.7453
56.7453
56.7453
56.7453
56.7454
56.7454
56.7455
56.7456
56.7456
56.7457
56.7458
56.7458
56.7459
56.7459
56.746
56.7461
56.7461
56.7463
56.7464
56.7465
56.7466
56.7467
56.7469
56.747
56.7471
56.7473
56.7474
56.7476
56.7478
56.7481
56.7484
56.7487
56.749
56.7492
56.7494
56.7496
56.75
56.7506
56.7513
56.7521
56.7531
56.7542
56.755
56.7555
56.7554
56.7553
56.7568
56.7593
56.7625
56.7648
56.7647
56.7574
56.7337
56.7031
56.6718
56.6413
56.6132
56.5885
56.5677
56.5516
56.542
56.5394
56.5393
56.5409
56.5483
56.5738
56.6139
56.652
56.6852
56.7118
56.7311
56.745
56.7548
56.7626
56.7677
56.7715
56.7727
56.7734
56.7729
56.7733
56.7729
56.7734
56.7731
56.7734
56.7553
56.7556
56.7551
56.7553
56.7561
56.7567
56.7568
56.7568
56.757
56.7575
56.7582
56.7588
56.7592
56.7593
56.7593
56.7592
56.7592
56.7594
56.7597
56.76
56.7602
56.7603
56.7603
56.7604
56.7604
56.7604
56.7604
56.7604
56.7604
56.7604
56.7603
56.7602
56.7601
56.76
56.7599
56.7598
56.7597
56.7595
56.7594
56.7592
56.7591
56.7589
56.7587
56.7585
56.7583
56.7581
56.758
56.7578
56.7575
56.7573
56.7571
56.7568
56.7566
56.7563
56.7561
56.7559
56.7557
56.7555
56.7553
56.7551
56.7549
56.7547
56.7545
56.7543
56.7541
56.7539
56.7537
56.7535
56.7533
56.7532
56.753
56.7528
56.7527
56.7525
56.7523
56.7522
56.752
56.7518
56.7517
56.7516
56.7515
56.7514
56.7513
56.7512
56.7511
56.751
56.7509
56.7508
56.7507
56.7506
56.7505
56.7504
56.7504
56.7503
56.7503
56.7502
56.7502
56.7501
56.75
56.75
56.7499
56.7498
56.7498
56.7497
56.7497
56.7497
56.7497
56.7496
56.7496
56.7495
56.7495
56.7494
56.7493
56.7493
56.7493
56.7493
56.7493
56.7493
56.7493
56.7494
56.7494
56.7494
56.7495
56.7495
56.7496
56.7496
56.7497
56.7498
56.7499
56.75
56.7501
56.7501
56.7502
56.7503
56.7503
56.7504
56.7506
56.7507
56.7508
56.751
56.7511
56.7512
56.7514
56.7515
56.7516
56.7518
56.752
56.7523
56.7525
56.7527
56.753
56.7532
56.7535
56.754
56.7544
56.7548
56.7555
56.7562
56.7567
56.757
56.7572
56.7575
56.7578
56.7586
56.7604
56.7636
56.767
56.7695
56.772
56.775
56.7788
56.7827
56.7858
56.7873
56.7869
56.7832
56.7762
56.7687
56.7609
56.753
56.7463
56.7399
56.7364
56.7359
56.7367
56.7395
56.7448
56.751
56.7568
56.7625
56.7666
56.7699
56.7715
56.7728
56.7732
56.7738
56.7738
56.7743
56.7742
56.7743
56.7554
56.7556
56.7551
56.7551
56.7557
56.7562
56.7563
56.7563
56.7565
56.7569
56.7576
56.7581
56.7585
56.7585
56.7585
56.7585
56.7586
56.7589
56.7592
56.7594
56.7595
56.7595
56.7596
56.7596
56.7597
56.7597
56.7597
56.7597
56.7597
56.7596
56.7596
56.7595
56.7594
56.7593
56.7592
56.759
56.7589
56.7588
56.7586
56.7585
56.7583
56.7581
56.7579
56.7578
56.7576
56.7574
56.7572
56.757
56.7568
56.7565
56.7563
56.7561
56.7558
56.7556
56.7553
56.7551
56.7549
56.7547
56.7545
56.7543
56.7541
56.7539
56.7537
56.7535
56.7533
56.7531
56.7529
56.7527
56.7526
56.7524
56.7522
56.7521
56.7519
56.7517
56.7516
56.7514
56.7512
56.7511
56.7509
56.7508
56.7507
56.7506
56.7506
56.7505
56.7504
56.7503
56.7502
56.7501
56.75
56.7499
56.7498
56.7497
56.7496
56.7496
56.7495
56.7495
56.7494
56.7494
56.7493
56.7492
56.7492
56.7491
56.749
56.749
56.749
56.749
56.7489
56.7489
56.7488
56.7488
56.7487
56.7487
56.7486
56.7486
56.7486
56.7486
56.7486
56.7486
56.7486
56.7486
56.7487
56.7487
56.7488
56.7488
56.7489
56.749
56.7491
56.7492
56.7493
56.7493
56.7494
56.7495
56.7496
56.7497
56.7498
56.7499
56.75
56.7501
56.7503
56.7504
56.7506
56.7507
56.7508
56.751
56.7511
56.7513
56.7515
56.7517
56.752
56.7522
56.7524
56.7527
56.7529
56.7532
56.7537
56.7543
56.7548
56.7554
56.7562
56.7563
56.756
56.7562
56.7568
56.7582
56.7608
56.7645
56.7687
56.7727
56.776
56.7792
56.7823
56.7852
56.7873
56.7888
56.7886
56.7873
56.7834
56.7804
56.7754
56.7721
56.7671
56.7644
56.7607
56.7592
56.7581
56.7584
56.7594
56.7615
56.7636
56.7662
56.7681
56.7702
56.7712
56.7725
56.7729
56.7735
56.7736
56.7741
56.774
56.7743
56.7549
56.7548
56.754
56.7532
56.7528
56.7527
56.7527
56.7524
56.752
56.7517
56.7517
56.7518
56.752
56.752
56.7519
56.7517
56.7515
56.7515
56.7515
56.7516
56.7517
56.7518
56.7518
56.7518
56.7518
56.7518
56.7518
56.7517
56.7516
56.7516
56.7515
56.7514
56.7513
56.7512
56.7511
56.751
56.7508
56.7507
56.7506
56.7504
56.7502
56.7501
56.7499
56.7497
56.7495
56.7493
56.7491
56.7489
56.7487
56.7484
56.7482
56.7479
56.7477
56.7475
56.7473
56.7471
56.7468
56.7466
56.7464
56.7463
56.7461
56.7459
56.7456
56.7454
56.7452
56.745
56.7449
56.7447
56.7445
56.7443
56.7441
56.744
56.7438
56.7436
56.7434
56.7433
56.7431
56.743
56.7429
56.7428
56.7427
56.7426
56.7425
56.7424
56.7423
56.7422
56.7421
56.7419
56.7419
56.7418
56.7417
56.7416
56.7416
56.7415
56.7415
56.7414
56.7413
56.7413
56.7412
56.7412
56.7411
56.7411
56.7411
56.741
56.7409
56.7409
56.7408
56.7407
56.7407
56.7406
56.7406
56.7405
56.7405
56.7405
56.7405
56.7405
56.7405
56.7405
56.7406
56.7406
56.7406
56.7407
56.7408
56.7408
56.7409
56.7409
56.741
56.741
56.7411
56.7412
56.7412
56.7413
56.7415
56.7416
56.7417
56.7418
56.7419
56.742
56.7422
56.7423
56.7425
56.7427
56.743
56.7432
56.7434
56.7436
56.7439
56.7441
56.7444
56.7449
56.7454
56.746
56.7467
56.7474
56.748
56.7483
56.7487
56.749
56.7494
56.7502
56.7515
56.7534
56.7556
56.7579
56.7599
56.7618
56.7636
56.7654
56.7671
56.7685
56.7694
56.77
56.7697
56.7696
56.7685
56.768
56.7669
56.7662
56.7653
56.7648
56.7643
56.7646
56.7644
56.7652
56.7655
56.7664
56.7671
56.7683
56.7689
56.77
56.7704
56.7713
56.7715
56.7722
56.7722
56.7729
56.7728
56.7734
56.7736
56.7739
56.7599
56.7593
56.7588
56.7584
56.7582
56.758
56.758
56.7583
56.7587
56.7593
56.7598
56.7602
56.7605
56.7606
56.7607
56.7607
56.7608
56.761
56.7611
56.7612
56.7612
56.7612
56.7612
56.7612
56.7613
56.7613
56.7613
56.7613
56.7613
56.7613
56.7613
56.7612
56.7611
56.7611
56.761
56.7608
56.7607
56.7606
56.7604
56.7603
56.7601
56.7599
56.7598
56.7596
56.7594
56.7592
56.759
56.7588
56.7586
56.7584
56.7581
56.7579
56.7577
56.7575
56.7572
56.757
56.7568
56.7565
56.7563
56.7561
56.7559
56.7556
56.7554
56.7552
56.7551
56.7549
56.7547
56.7545
56.7543
56.7542
56.754
56.7538
56.7536
56.7535
56.7533
56.7532
56.7531
56.7529
56.7528
56.7527
56.7525
56.7524
56.7523
56.7521
56.752
56.7519
56.7519
56.7518
56.7517
56.7516
56.7515
56.7515
56.7514
56.7513
56.7512
56.7512
56.7511
56.751
56.751
56.7509
56.7509
56.7508
56.7508
56.7507
56.7507
56.7506
56.7506
56.7506
56.7505
56.7505
56.7505
56.7505
56.7504
56.7504
56.7504
56.7504
56.7504
56.7503
56.7503
56.7503
56.7503
56.7503
56.7504
56.7504
56.7504
56.7505
56.7505
56.7506
56.7507
56.7507
56.7508
56.7509
56.751
56.7511
56.7512
56.7513
56.7513
56.7514
56.7515
56.7516
56.7518
56.7519
56.7521
56.7522
56.7523
56.7524
56.7526
56.7527
56.7529
56.7531
56.7533
56.7535
56.7537
56.754
56.7542
56.7545
56.7548
56.7552
56.7557
56.7561
56.7565
56.7568
56.757
56.7575
56.7581
56.759
56.7601
56.7613
56.7625
56.7636
56.7646
56.7653
56.7661
56.7662
56.7668
56.7666
56.767
56.7669
56.767
56.7672
56.7671
56.7675
56.7675
56.7681
56.7683
56.7687
56.7692
56.7693
56.7701
56.7701
56.7708
56.771
56.7713
56.7718
56.772
56.7724
56.7727
56.773
56.7731
56.7735
56.7561
56.7538
56.7507
56.7479
56.7456
56.7436
56.7419
56.7406
56.7395
56.7385
56.7377
56.7371
56.7365
56.7361
56.7358
56.7356
56.7354
56.7353
56.7353
56.7352
56.7352
56.7352
56.7352
56.7352
56.7352
56.7352
56.7351
56.7351
56.735
56.7349
56.7348
56.7347
56.7346
56.7345
56.7344
56.7343
56.7341
56.734
56.7338
56.7337
56.7335
56.7334
56.7332
56.733
56.7328
56.7325
56.7323
56.7321
56.7318
56.7316
56.7314
56.7312
56.731
56.7308
56.7306
56.7304
56.7302
56.73
56.7298
56.7296
56.7294
56.7292
56.729
56.7288
56.7286
56.7284
56.7282
56.728
56.7278
56.7276
56.7274
56.7273
56.7272
56.7271
56.727
56.7268
56.7267
56.7266
56.7265
56.7263
56.7262
56.7261
56.726
56.7259
56.7259
56.7258
56.7257
56.7257
56.7256
56.7255
56.7255
56.7254
56.7253
56.7253
56.7253
56.7252
56.7252
56.7251
56.725
56.7249
56.7248
56.7247
56.7246
56.7246
56.7245
56.7245
56.7245
56.7245
56.7244
56.7244
56.7244
56.7245
56.7245
56.7246
56.7247
56.7248
56.7249
56.725
56.7251
56.7252
56.7254
56.7256
56.7258
56.726
56.7262
56.7264
56.7267
56.727
56.7273
56.7276
56.728
56.7284
56.7289
56.7293
56.7298
56.7302
56.7306
56.731
56.7315
56.7319
56.7325
56.7331
56.7339
56.7346
56.7354
56.7363
56.7371
56.7378
56.7385
56.739
56.7394
56.7398
56.7402
56.7408
56.7415
56.7426
56.744
56.7457
56.7475
56.7495
56.7515
56.7537
56.7558
56.7578
56.7596
56.7612
56.7628
56.7641
56.7655
56.7664
56.7675
56.7681
56.769
56.7694
56.7701
56.77
56.7705
56.7698
56.7699
56.7688
56.7689
56.7678
56.7683
56.7674
56.7681
56.7676
56.7685
56.7682
56.7692
56.7689
56.7699
56.7698
56.7707
56.7706
56.7715
56.7714
56.7723
56.7722
56.773
56.773
56.7633
56.7639
56.7647
56.7655
56.7661
56.7664
56.7666
56.7668
56.767
56.7673
56.7677
56.7681
56.7685
56.7689
56.7693
56.7696
56.7699
56.7703
56.7706
56.7709
56.7712
56.7714
56.7717
56.7719
56.772
56.7722
56.7723
56.7724
56.7724
56.7725
56.7726
56.7726
56.7726
56.7726
56.7726
56.7726
56.7725
56.7725
56.7724
56.7722
56.7721
56.772
56.7718
56.7717
56.7715
56.7713
56.7711
56.7709
56.7707
56.7705
56.7703
56.7701
56.7698
56.7696
56.7694
56.7692
56.7689
56.7687
56.7685
56.7683
56.7681
56.7679
56.7677
56.7674
56.7672
56.767
56.7668
56.7666
56.7664
56.7662
56.766
56.7658
56.7657
56.7655
56.7654
56.7652
56.7651
56.7649
56.7648
56.7646
56.7645
56.7644
56.7642
56.7641
56.764
56.7639
56.7638
56.7637
56.7636
56.7635
56.7634
56.7633
56.7632
56.7631
56.763
56.7629
56.7629
56.7628
56.7628
56.7627
56.7627
56.7626
56.7626
56.7625
56.7625
56.7624
56.7623
56.7623
56.7622
56.7622
56.7622
56.7622
56.7622
56.7622
56.7622
56.7622
56.7622
56.7622
56.7621
56.7621
56.7622
56.7622
56.7622
56.7623
56.7623
56.7624
56.7625
56.7626
56.7627
56.7628
56.7629
56.7629
56.763
56.7631
56.7632
56.7633
56.7635
56.7636
56.7638
56.7639
56.7641
56.7643
56.7644
56.7646
56.7648
56.7649
56.7651
56.7653
56.7655
56.7658
56.766
56.7662
56.7665
56.7669
56.7673
56.7677
56.7679
56.7681
56.7685
56.7688
56.7692
56.7695
56.7698
56.77
56.7702
56.7705
56.7709
56.7713
56.7717
56.7715
56.7714
56.7708
56.7704
56.7707
56.7714
56.7729
56.7756
56.7777
56.779
56.779
56.7783
56.776
56.775
56.7728
56.7724
56.7708
56.7709
56.7701
56.7705
56.77
56.7707
56.7704
56.7711
56.7709
56.7717
56.7716
56.7724
56.7725
56.7728
56.773
56.7651
56.7632
56.7606
56.7578
56.7548
56.7518
56.7491
56.7467
56.7446
56.7428
56.7412
56.74
56.7389
56.738
56.7372
56.7367
56.7363
56.736
56.7358
56.7357
56.7357
56.7357
56.7357
56.7357
56.7357
56.7356
56.7356
56.7356
56.7356
56.7355
56.7354
56.7354
56.7353
56.7352
56.7351
56.735
56.7348
56.7347
56.7346
56.7344
56.7343
56.7341
56.734
56.7338
56.7336
56.7334
56.7331
56.7329
56.7326
56.7324
56.7322
56.732
56.7318
56.7316
56.7314
56.7313
56.7311
56.7309
56.7307
56.7306
56.7304
56.7303
56.7301
56.73
56.7299
56.7297
56.7296
56.7294
56.7293
56.7291
56.7291
56.729
56.729
56.7289
56.7289
56.7289
56.7289
56.7288
56.7288
56.7287
56.7287
56.7287
56.7287
56.7287
56.7288
56.7288
56.7288
56.7288
56.7288
56.7288