/*--------------------------------*- C++ -*----------------------------------*\
| =========                 |                                                 |
| \\      /  F ield         | OpenFOAM: The Open Source CFD Toolbox           |
|  \\    /   O peration     | Version:  3.0.x                                 |
|   \\  /    A nd           | Web:      www.OpenFOAM.org                      |
|    \\/     M anipulation  |                                                 |
\*---------------------------------------------------------------------------*/
FoamFile
{
    version     2.0;
    format      ascii;
    class       volScalarField;
    location    "0.58005";
    object      T;
}
// * * * * * * * * * * * * * * * * * * * * * * * * * * * * * * * * * * * * * //

dimensions      [0 0 0 1 0 0 0];

internalField   nonuniform List<scalar> 
13800
(
788.084
788.023
787.942
787.871
787.803
787.747
787.703
787.665
787.637
787.621
787.614
787.611
787.611
787.617
787.633
787.653
787.677
787.704
787.735
787.767
787.802
787.837
787.874
787.911
787.949
787.987
788.025
788.064
788.103
788.142
788.181
788.22
788.259
788.298
788.337
788.377
788.416
788.455
788.494
788.533
788.572
788.611
788.65
788.688
788.727
788.765
788.803
788.841
788.879
788.916
788.953
788.991
789.027
789.064
789.1
789.136
789.172
789.207
789.242
789.277
789.312
789.346
789.38
789.414
789.447
789.48
789.513
789.545
789.577
789.609
789.64
789.671
789.702
789.732
789.762
789.792
789.822
789.851
789.879
789.908
789.936
789.964
789.992
790.019
790.046
790.073
790.1
790.127
790.153
790.178
790.202
790.226
790.249
790.271
790.294
790.316
790.338
790.36
790.382
790.404
790.426
790.448
790.469
790.491
790.513
790.534
790.554
790.574
790.593
790.612
790.63
790.648
790.667
790.685
790.702
790.72
790.736
790.753
790.769
790.784
790.799
790.814
790.828
790.843
790.857
790.871
790.886
790.901
790.915
790.93
790.944
790.959
790.973
790.987
791.001
791.013
791.026
791.037
791.048
791.059
791.069
791.079
791.09
791.1
791.111
791.121
791.131
791.141
791.151
791.161
791.171
791.18
791.19
791.199
791.208
791.216
791.225
791.233
791.242
791.25
791.258
791.265
791.273
791.28
791.288
791.295
791.301
791.308
791.315
791.321
791.327
791.334
791.339
791.346
791.349
791.358
791.359
791.369
791.368
791.379
791.377
791.389
791.385
791.399
791.392
791.408
791.4
791.417
791.407
791.424
791.414
791.43
791.421
791.436
791.427
791.439
791.438
791.431
791.459
791.446
788.054
787.993
787.912
787.841
787.773
787.717
787.673
787.636
787.607
787.592
787.585
787.581
787.582
787.588
787.604
787.624
787.648
787.676
787.706
787.738
787.773
787.809
787.845
787.883
787.92
787.958
787.997
788.036
788.075
788.114
788.153
788.192
788.231
788.27
788.31
788.349
788.388
788.428
788.467
788.506
788.545
788.584
788.623
788.662
788.7
788.738
788.777
788.814
788.852
788.89
788.927
788.964
789.001
789.038
789.074
789.11
789.146
789.181
789.217
789.252
789.286
789.321
789.355
789.388
789.422
789.455
789.487
789.52
789.552
789.584
789.615
789.646
789.677
789.708
789.738
789.768
789.797
789.827
789.855
789.883
789.912
789.94
789.968
789.995
790.022
790.05
790.077
790.103
790.129
790.155
790.179
790.203
790.226
790.249
790.271
790.294
790.316
790.338
790.36
790.382
790.404
790.426
790.447
790.469
790.491
790.512
790.533
790.553
790.572
790.591
790.609
790.627
790.646
790.664
790.682
790.699
790.716
790.733
790.749
790.764
790.779
790.794
790.809
790.823
790.838
790.852
790.866
790.881
790.895
790.91
790.924
790.939
790.953
790.968
790.981
790.995
791.007
791.019
791.03
791.041
791.051
791.062
791.072
791.082
791.093
791.103
791.113
791.123
791.134
791.143
791.153
791.163
791.172
791.182
791.191
791.2
791.208
791.217
791.225
791.233
791.241
791.249
791.256
791.264
791.271
791.278
791.285
791.292
791.298
791.305
791.31
791.317
791.322
791.329
791.332
791.341
791.342
791.352
791.351
791.363
791.36
791.373
791.368
791.382
791.376
791.391
791.384
791.399
791.391
791.407
791.398
791.413
791.405
791.419
791.411
791.425
791.416
791.43
791.425
791.44
788.054
787.993
787.912
787.841
787.773
787.717
787.673
787.636
787.607
787.592
787.585
787.581
787.581
787.588
787.604
787.624
787.648
787.675
787.706
787.738
787.773
787.809
787.845
787.882
787.92
787.958
787.997
788.036
788.074
788.113
788.153
788.192
788.231
788.27
788.31
788.349
788.388
788.428
788.467
788.506
788.545
788.584
788.623
788.661
788.7
788.738
788.776
788.814
788.852
788.89
788.927
788.964
789.001
789.038
789.074
789.11
789.146
789.181
789.217
789.252
789.286
789.321
789.355
789.388
789.422
789.455
789.487
789.52
789.552
789.584
789.615
789.646
789.677
789.708
789.738
789.768
789.797
789.827
789.855
789.883
789.912
789.94
789.967
789.995
790.022
790.05
790.077
790.103
790.129
790.155
790.179
790.203
790.226
790.249
790.271
790.294
790.316
790.338
790.36
790.382
790.404
790.425
790.447
790.469
790.491
790.512
790.533
790.553
790.572
790.591
790.609
790.627
790.646
790.664
790.682
790.699
790.716
790.733
790.749
790.764
790.779
790.794
790.809
790.823
790.838
790.852
790.866
790.881
790.895
790.91
790.924
790.939
790.953
790.968
790.981
790.995
791.007
791.019
791.03
791.041
791.051
791.062
791.072
791.082
791.093
791.103
791.113
791.123
791.133
791.143
791.153
791.163
791.172
791.181
791.191
791.199
791.208
791.217
791.225
791.233
791.241
791.249
791.256
791.264
791.271
791.278
791.285
791.292
791.298
791.305
791.31
791.317
791.322
791.329
791.332
791.341
791.342
791.352
791.351
791.363
791.36
791.373
791.368
791.382
791.376
791.391
791.384
791.399
791.391
791.407
791.398
791.413
791.405
791.419
791.411
791.425
791.416
791.43
791.423
791.434
788.054
787.993
787.912
787.841
787.773
787.717
787.674
787.636
787.608
787.592
787.585
787.582
787.582
787.588
787.604
787.624
787.648
787.676
787.706
787.739
787.773
787.809
787.845
787.883
787.921
787.959
787.997
788.036
788.075
788.114
788.153
788.192
788.231
788.271
788.31
788.349
788.389
788.428
788.467
788.506
788.545
788.584
788.623
788.662
788.7
788.738
788.777
788.815
788.852
788.89
788.927
788.964
789.001
789.038
789.074
789.11
789.146
789.182
789.217
789.252
789.286
789.321
789.355
789.388
789.422
789.455
789.488
789.52
789.552
789.584
789.615
789.647
789.677
789.708
789.738
789.768
789.798
789.827
789.855
789.884
789.912
789.94
789.968
789.995
790.023
790.05
790.077
790.103
790.129
790.155
790.179
790.203
790.226
790.249
790.271
790.294
790.316
790.338
790.36
790.382
790.404
790.426
790.447
790.469
790.491
790.512
790.533
790.553
790.572
790.591
790.609
790.627
790.646
790.664
790.682
790.699
790.716
790.733
790.749
790.764
790.779
790.794
790.809
790.823
790.838
790.852
790.866
790.881
790.895
790.91
790.924
790.939
790.953
790.968
790.981
790.995
791.007
791.019
791.03
791.041
791.051
791.062
791.072
791.082
791.093
791.103
791.113
791.123
791.133
791.143
791.153
791.163
791.172
791.181
791.191
791.199
791.208
791.217
791.225
791.233
791.241
791.249
791.256
791.264
791.271
791.278
791.285
791.292
791.298
791.305
791.31
791.317
791.322
791.329
791.332
791.341
791.342
791.352
791.351
791.363
791.36
791.373
791.368
791.382
791.376
791.391
791.384
791.399
791.391
791.407
791.398
791.413
791.405
791.419
791.411
791.425
791.416
791.43
791.423
791.43
788.054
787.993
787.913
787.841
787.773
787.717
787.674
787.636
787.608
787.592
787.585
787.582
787.582
787.588
787.604
787.625
787.648
787.676
787.706
787.739
787.773
787.809
787.846
787.883
787.921
787.959
787.997
788.036
788.075
788.114
788.153
788.192
788.231
788.271
788.31
788.349
788.389
788.428
788.467
788.506
788.545
788.584
788.623
788.662
788.7
788.739
788.777
788.815
788.852
788.89
788.927
788.964
789.001
789.038
789.074
789.11
789.146
789.182
789.217
789.252
789.286
789.321
789.355
789.388
789.422
789.455
789.488
789.52
789.552
789.584
789.615
789.647
789.677
789.708
789.738
789.768
789.798
789.827
789.855
789.884
789.912
789.94
789.968
789.995
790.023
790.05
790.077
790.103
790.13
790.155
790.179
790.203
790.226
790.249
790.272
790.294
790.316
790.338
790.36
790.382
790.404
790.426
790.447
790.469
790.491
790.512
790.533
790.553
790.572
790.591
790.609
790.627
790.646
790.664
790.682
790.699
790.716
790.733
790.749
790.764
790.779
790.794
790.809
790.823
790.838
790.852
790.866
790.881
790.895
790.91
790.924
790.939
790.953
790.968
790.981
790.995
791.007
791.019
791.03
791.041
791.051
791.062
791.072
791.082
791.093
791.103
791.113
791.123
791.133
791.143
791.153
791.163
791.172
791.182
791.191
791.199
791.208
791.217
791.225
791.233
791.241
791.249
791.256
791.264
791.271
791.278
791.285
791.292
791.298
791.305
791.31
791.317
791.322
791.329
791.332
791.341
791.342
791.352
791.351
791.363
791.36
791.373
791.368
791.382
791.376
791.391
791.384
791.399
791.391
791.406
791.398
791.413
791.405
791.419
791.411
791.425
791.416
791.43
791.422
791.436
788.054
787.993
787.913
787.841
787.773
787.717
787.674
787.636
787.608
787.592
787.585
787.582
787.582
787.588
787.604
787.625
787.648
787.676
787.706
787.739
787.773
787.809
787.846
787.883
787.921
787.959
787.997
788.036
788.075
788.114
788.153
788.192
788.231
788.271
788.31
788.349
788.389
788.428
788.467
788.506
788.545
788.584
788.623
788.662
788.7
788.739
788.777
788.815
788.852
788.89
788.927
788.964
789.001
789.038
789.074
789.11
789.146
789.182
789.217
789.252
789.286
789.321
789.355
789.388
789.422
789.455
789.488
789.52
789.552
789.584
789.615
789.647
789.677
789.708
789.738
789.768
789.798
789.827
789.855
789.884
789.912
789.94
789.968
789.995
790.023
790.05
790.077
790.103
790.13
790.155
790.179
790.203
790.226
790.249
790.272
790.294
790.316
790.338
790.36
790.382
790.404
790.426
790.447
790.469
790.491
790.512
790.533
790.553
790.572
790.591
790.609
790.627
790.646
790.664
790.682
790.699
790.716
790.733
790.749
790.764
790.779
790.794
790.809
790.823
790.838
790.852
790.866
790.881
790.895
790.91
790.924
790.939
790.953
790.968
790.981
790.995
791.007
791.019
791.03
791.041
791.051
791.062
791.072
791.082
791.093
791.103
791.113
791.123
791.133
791.143
791.153
791.163
791.172
791.182
791.191
791.199
791.208
791.217
791.225
791.233
791.241
791.249
791.256
791.264
791.271
791.278
791.285
791.291
791.298
791.304
791.311
791.316
791.322
791.328
791.333
791.34
791.343
791.351
791.353
791.36
791.364
791.366
791.377
791.372
791.387
791.38
791.394
791.388
791.4
791.398
791.402
791.413
791.404
791.42
791.412
791.42
791.42
791.429
791.424
791.426
788.054
787.993
787.912
787.841
787.773
787.717
787.674
787.636
787.608
787.592
787.585
787.582
787.582
787.588
787.604
787.624
787.648
787.676
787.706
787.739
787.773
787.809
787.845
787.883
787.921
787.959
787.997
788.036
788.075
788.114
788.153
788.192
788.231
788.271
788.31
788.349
788.389
788.428
788.467
788.506
788.545
788.584
788.623
788.662
788.7
788.738
788.777
788.815
788.852
788.89
788.927
788.964
789.001
789.038
789.074
789.11
789.146
789.182
789.217
789.252
789.286
789.321
789.355
789.388
789.422
789.455
789.488
789.52
789.552
789.584
789.615
789.647
789.677
789.708
789.738
789.768
789.798
789.827
789.855
789.884
789.912
789.94
789.968
789.995
790.023
790.05
790.077
790.103
790.129
790.155
790.179
790.203
790.226
790.249
790.271
790.294
790.316
790.338
790.36
790.382
790.404
790.426
790.447
790.469
790.491
790.512
790.533
790.553
790.572
790.591
790.609
790.627
790.646
790.664
790.682
790.699
790.716
790.733
790.749
790.764
790.779
790.794
790.809
790.823
790.838
790.852
790.866
790.881
790.895
790.91
790.924
790.939
790.953
790.968
790.981
790.995
791.007
791.019
791.03
791.041
791.051
791.062
791.072
791.082
791.093
791.103
791.113
791.123
791.133
791.143
791.153
791.163
791.172
791.181
791.191
791.199
791.208
791.217
791.225
791.233
791.241
791.249
791.256
791.264
791.271
791.278
791.285
791.291
791.298
791.304
791.311
791.316
791.323
791.327
791.335
791.337
791.347
791.346
791.358
791.355
791.368
791.364
791.378
791.372
791.387
791.38
791.395
791.387
791.403
791.394
791.41
791.402
791.416
791.408
791.422
791.414
791.428
791.419
791.428
791.426
788.054
787.993
787.912
787.841
787.773
787.717
787.673
787.636
787.607
787.592
787.585
787.581
787.581
787.588
787.604
787.624
787.648
787.675
787.706
787.738
787.773
787.809
787.845
787.882
787.92
787.958
787.997
788.036
788.074
788.113
788.153
788.192
788.231
788.27
788.31
788.349
788.388
788.428
788.467
788.506
788.545
788.584
788.623
788.661
788.7
788.738
788.776
788.814
788.852
788.89
788.927
788.964
789.001
789.038
789.074
789.11
789.146
789.181
789.217
789.252
789.286
789.321
789.355
789.388
789.422
789.455
789.487
789.52
789.552
789.584
789.615
789.646
789.677
789.708
789.738
789.768
789.797
789.827
789.855
789.883
789.912
789.94
789.967
789.995
790.022
790.05
790.077
790.103
790.129
790.155
790.179
790.203
790.226
790.249
790.271
790.294
790.316
790.338
790.36
790.382
790.404
790.425
790.447
790.469
790.491
790.512
790.533
790.553
790.572
790.591
790.609
790.627
790.646
790.664
790.682
790.699
790.716
790.733
790.749
790.764
790.779
790.794
790.809
790.823
790.838
790.852
790.866
790.881
790.895
790.91
790.924
790.939
790.953
790.968
790.981
790.995
791.007
791.019
791.03
791.041
791.051
791.062
791.072
791.082
791.093
791.103
791.113
791.123
791.133
791.143
791.153
791.163
791.172
791.181
791.191
791.199
791.208
791.217
791.225
791.233
791.241
791.249
791.256
791.264
791.271
791.278
791.285
791.291
791.298
791.304
791.311
791.316
791.323
791.327
791.335
791.337
791.347
791.346
791.358
791.355
791.368
791.364
791.378
791.372
791.387
791.38
791.395
791.387
791.403
791.394
791.41
791.401
791.416
791.408
791.422
791.413
791.429
791.419
791.437
791.43
788.054
787.993
787.912
787.841
787.773
787.717
787.673
787.636
787.607
787.592
787.585
787.581
787.582
787.588
787.604
787.624
787.648
787.676
787.706
787.738
787.773
787.809
787.845
787.883
787.92
787.958
787.997
788.036
788.075
788.114
788.153
788.192
788.231
788.27
788.31
788.349
788.388
788.428
788.467
788.506
788.545
788.584
788.623
788.662
788.7
788.738
788.777
788.814
788.852
788.89
788.927
788.964
789.001
789.038
789.074
789.11
789.146
789.181
789.217
789.252
789.286
789.321
789.355
789.388
789.422
789.455
789.487
789.52
789.552
789.584
789.615
789.646
789.677
789.708
789.738
789.768
789.797
789.827
789.855
789.883
789.912
789.94
789.968
789.995
790.022
790.05
790.077
790.103
790.129
790.155
790.179
790.203
790.226
790.249
790.271
790.294
790.316
790.338
790.36
790.382
790.404
790.426
790.447
790.469
790.491
790.512
790.533
790.553
790.572
790.591
790.609
790.627
790.646
790.664
790.682
790.699
790.716
790.733
790.749
790.764
790.779
790.794
790.809
790.823
790.838
790.852
790.866
790.881
790.895
790.91
790.924
790.939
790.953
790.968
790.981
790.995
791.007
791.019
791.03
791.041
791.051
791.062
791.072
791.082
791.093
791.103
791.113
791.124
791.134
791.143
791.153
791.163
791.172
791.182
791.191
791.2
791.208
791.217
791.225
791.233
791.241
791.249
791.256
791.264
791.271
791.278
791.285
791.291
791.298
791.304
791.311
791.316
791.323
791.327
791.336
791.337
791.347
791.346
791.358
791.355
791.369
791.364
791.378
791.372
791.387
791.38
791.395
791.387
791.403
791.395
791.41
791.401
791.416
791.408
791.422
791.413
791.429
791.419
791.438
791.437
788.084
788.023
787.942
787.871
787.803
787.747
787.703
787.665
787.637
787.621
787.614
787.611
787.611
787.617
787.633
787.653
787.677
787.704
787.735
787.767
787.802
787.837
787.874
787.911
787.949
787.987
788.025
788.064
788.103
788.142
788.181
788.22
788.259
788.298
788.337
788.377
788.416
788.455
788.494
788.533
788.572
788.611
788.65
788.688
788.727
788.765
788.803
788.841
788.879
788.916
788.953
788.991
789.027
789.064
789.1
789.136
789.172
789.207
789.242
789.277
789.312
789.346
789.38
789.414
789.447
789.48
789.513
789.545
789.577
789.609
789.64
789.671
789.702
789.732
789.762
789.792
789.822
789.851
789.879
789.908
789.936
789.964
789.992
790.019
790.046
790.073
790.1
790.127
790.153
790.178
790.202
790.226
790.249
790.271
790.294
790.316
790.338
790.36
790.382
790.404
790.426
790.448
790.469
790.491
790.513
790.534
790.554
790.574
790.593
790.612
790.63
790.648
790.667
790.685
790.702
790.72
790.736
790.753
790.769
790.784
790.799
790.814
790.828
790.843
790.857
790.871
790.886
790.9
790.915
790.93
790.944
790.959
790.973
790.987
791.001
791.013
791.026
791.037
791.048
791.059
791.069
791.079
791.09
791.1
791.111
791.121
791.131
791.141
791.151
791.161
791.171
791.18
791.19
791.199
791.208
791.217
791.225
791.234
791.242
791.25
791.258
791.265
791.273
791.28
791.288
791.295
791.302
791.308
791.315
791.321
791.328
791.333
791.34
791.344
791.352
791.354
791.364
791.363
791.375
791.372
791.385
791.38
791.395
791.388
791.405
791.396
791.413
791.403
791.42
791.41
791.427
791.417
791.433
791.424
791.44
791.429
791.446
791.434
791.461
791.453
791.44
791.442
791.444
791.448
791.458
791.474
791.493
791.511
791.523
791.53
791.534
791.535
791.535
791.536
791.536
791.537
791.538
791.539
791.541
791.54
791.442
791.445
791.448
791.451
791.455
791.459
791.465
791.474
791.482
791.49
791.497
791.504
791.51
791.514
791.517
791.518
791.518
791.518
791.518
791.517
791.448
791.452
791.452
791.455
791.457
791.459
791.464
791.467
791.474
791.48
791.489
791.494
791.503
791.506
791.512
791.513
791.515
791.516
791.515
791.515
791.439
791.439
791.441
791.442
791.445
791.447
791.451
791.453
791.457
791.46
791.464
791.467
791.474
791.48
791.49
791.497
791.506
791.511
791.516
791.519
791.44
791.44
791.44
791.439
791.439
791.439
791.439
791.44
791.44
791.44
791.441
791.442
791.442
791.442
791.443
791.444
791.445
791.447
791.447
791.448
791.433
791.434
791.435
791.436
791.437
791.437
791.439
791.441
791.444
791.446
791.45
791.452
791.455
791.458
791.463
791.468
791.477
791.486
791.493
791.498
791.427
791.428
791.429
791.429
791.429
791.429
791.429
791.428
791.427
791.427
791.426
791.426
791.426
791.426
791.425
791.423
791.421
791.417
791.414
791.409
791.427
791.427
791.429
791.43
791.43
791.431
791.432
791.432
791.432
791.432
791.433
791.433
791.433
791.431
791.428
791.422
791.414
791.404
791.392
791.383
791.435
791.434
791.434
791.434
791.433
791.432
791.431
791.43
791.428
791.426
791.424
791.421
791.417
791.411
791.404
791.396
791.388
791.379
791.37
791.367
791.449
791.448
791.447
791.446
791.444
791.442
791.44
791.437
791.432
791.427
791.422
791.417
791.411
791.404
791.398
791.391
791.382
791.373
791.367
791.368
791.54
791.552
791.553
791.541
791.527
791.524
791.529
791.532
791.529
791.522
791.516
791.513
791.514
791.517
791.521
791.523
791.522
791.52
791.518
791.517
791.517
791.517
791.517
791.517
791.517
791.517
791.517
791.516
791.516
791.516
791.516
791.516
791.516
791.516
791.515
791.515
791.515
791.514
791.514
791.514
791.513
791.513
791.512
791.512
791.511
791.51
791.51
791.51
791.509
791.509
791.509
791.508
791.508
791.507
791.506
791.506
791.505
791.504
791.503
791.502
791.501
791.501
791.5
791.5
791.499
791.499
791.498
791.497
791.497
791.496
791.496
791.496
791.496
791.496
791.496
791.496
791.496
791.495
791.494
791.493
791.493
791.492
791.492
791.492
791.491
791.491
791.491
791.491
791.491
791.491
791.49
791.49
791.489
791.489
791.489
791.489
791.489
791.489
791.489
791.488
791.488
791.487
791.487
791.486
791.486
791.486
791.487
791.487
791.488
791.488
791.488
791.488
791.488
791.488
791.488
791.488
791.488
791.488
791.488
791.488
791.488
791.488
791.488
791.488
791.488
791.488
791.488
791.488
791.489
791.49
791.49
791.491
791.492
791.492
791.492
791.493
791.493
791.494
791.495
791.495
791.496
791.497
791.498
791.498
791.498
791.498
791.497
791.496
791.495
791.496
791.497
791.498
791.496
791.493
791.488
791.481
791.473
791.463
791.456
791.456
791.464
791.471
791.455
791.427
791.39
791.365
791.373
791.483
791.82
792.255
792.701
793.136
793.537
793.891
794.191
794.425
794.566
794.611
794.62
794.604
794.507
794.155
793.6
793.073
792.614
792.249
791.986
791.798
791.668
791.566
791.5
791.454
791.443
791.44
791.452
791.453
791.463
791.462
791.472
791.474
791.513
791.51
791.515
791.512
791.502
791.495
791.494
791.496
791.494
791.489
791.481
791.474
791.47
791.47
791.472
791.475
791.476
791.475
791.472
791.469
791.467
791.467
791.466
791.466
791.466
791.465
791.465
791.464
791.464
791.463
791.463
791.463
791.463
791.462
791.462
791.462
791.461
791.461
791.461
791.46
791.46
791.459
791.459
791.458
791.458
791.457
791.456
791.455
791.455
791.454
791.454
791.454
791.453
791.453
791.452
791.452
791.451
791.45
791.449
791.448
791.447
791.446
791.445
791.445
791.444
791.444
791.443
791.443
791.442
791.442
791.441
791.441
791.44
791.44
791.44
791.44
791.44
791.44
791.44
791.439
791.439
791.438
791.437
791.436
791.436
791.436
791.435
791.435
791.435
791.435
791.435
791.435
791.435
791.434
791.434
791.433
791.433
791.433
791.433
791.433
791.433
791.433
791.432
791.432
791.431
791.431
791.43
791.43
791.43
791.431
791.431
791.432
791.432
791.432
791.432
791.433
791.433
791.432
791.432
791.432
791.432
791.432
791.433
791.433
791.433
791.433
791.433
791.433
791.433
791.433
791.434
791.434
791.435
791.436
791.437
791.438
791.438
791.439
791.439
791.44
791.441
791.442
791.443
791.444
791.445
791.446
791.446
791.446
791.447
791.447
791.447
791.448
791.448
791.446
791.445
791.443
791.439
791.434
791.433
791.435
791.438
791.441
791.442
791.437
791.419
791.381
791.341
791.313
791.285
791.251
791.207
791.161
791.124
791.112
791.126
791.184
791.289
791.401
791.518
791.634
791.734
791.831
791.886
791.9
791.895
791.862
791.795
791.715
791.64
791.567
791.516
791.476
791.46
791.447
791.448
791.446
791.451
791.45
791.456
791.461
791.511
791.509
791.516
791.515
791.507
791.501
791.501
791.503
791.502
791.497
791.489
791.483
791.48
791.481
791.483
791.485
791.484
791.482
791.479
791.478
791.477
791.477
791.476
791.476
791.475
791.475
791.474
791.474
791.474
791.474
791.473
791.473
791.473
791.473
791.473
791.472
791.472
791.472
791.471
791.471
791.47
791.47
791.469
791.469
791.468
791.468
791.467
791.466
791.466
791.465
791.465
791.464
791.464
791.464
791.463
791.462
791.462
791.461
791.46
791.459
791.458
791.457
791.456
791.456
791.455
791.455
791.454
791.454
791.453
791.453
791.452
791.451
791.451
791.451
791.451
791.451
791.451
791.45
791.45
791.45
791.449
791.448
791.448
791.447
791.446
791.446
791.446
791.446
791.446
791.446
791.446
791.445
791.445
791.444
791.444
791.444
791.443
791.443
791.443
791.443
791.443
791.443
791.442
791.442
791.441
791.441
791.441
791.441
791.441
791.441
791.441
791.442
791.442
791.443
791.443
791.443
791.443
791.442
791.442
791.442
791.442
791.442
791.442
791.442
791.442
791.442
791.442
791.442
791.442
791.442
791.442
791.443
791.444
791.444
791.445
791.446
791.446
791.446
791.447
791.448
791.448
791.449
791.45
791.451
791.452
791.453
791.453
791.454
791.454
791.455
791.455
791.455
791.456
791.456
791.455
791.45
791.448
791.445
791.441
791.445
791.454
791.458
791.457
791.443
791.414
791.368
791.317
791.269
791.231
791.193
791.158
791.125
791.104
791.091
791.102
791.128
791.189
791.238
791.315
791.368
791.444
791.488
791.548
791.574
791.597
791.599
791.591
791.568
791.544
791.515
791.495
791.472
791.464
791.452
791.453
791.45
791.454
791.453
791.46
791.461
791.517
791.52
791.53
791.542
791.548
791.55
791.552
791.557
791.564
791.569
791.571
791.571
791.571
791.572
791.575
791.579
791.583
791.586
791.586
791.586
791.586
791.585
791.585
791.585
791.585
791.585
791.586
791.586
791.586
791.586
791.586
791.586
791.586
791.585
791.585
791.585
791.584
791.584
791.584
791.583
791.583
791.583
791.582
791.581
791.581
791.58
791.579
791.579
791.579
791.578
791.578
791.578
791.577
791.576
791.576
791.575
791.574
791.573
791.572
791.571
791.57
791.57
791.569
791.568
791.568
791.567
791.567
791.566
791.566
791.565
791.565
791.565
791.565
791.564
791.564
791.564
791.564
791.563
791.563
791.562
791.561
791.561
791.56
791.56
791.559
791.559
791.559
791.559
791.559
791.559
791.558
791.558
791.558
791.557
791.557
791.557
791.556
791.556
791.556
791.555
791.555
791.554
791.554
791.554
791.554
791.554
791.554
791.554
791.555
791.555
791.555
791.555
791.555
791.555
791.555
791.555
791.555
791.555
791.555
791.554
791.554
791.554
791.554
791.554
791.554
791.554
791.555
791.555
791.556
791.556
791.557
791.557
791.557
791.558
791.558
791.558
791.559
791.559
791.56
791.561
791.561
791.561
791.56
791.559
791.559
791.56
791.559
791.56
791.559
791.556
791.553
791.549
791.543
791.537
791.535
791.534
791.534
791.535
791.535
791.53
791.518
791.498
791.473
791.448
791.425
791.407
791.388
791.371
791.355
791.342
791.338
791.337
791.35
791.359
791.382
791.396
791.419
791.436
791.455
791.469
791.484
791.487
791.496
791.491
791.493
791.486
791.483
791.473
791.471
791.463
791.463
791.457
791.46
791.456
791.462
791.459
791.465
791.462
791.465
791.466
791.448
791.456
791.462
791.467
791.471
791.475
791.476
791.474
791.469
791.463
791.457
791.453
791.451
791.451
791.452
791.452
791.452
791.452
791.452
791.452
791.452
791.452
791.453
791.453
791.453
791.452
791.451
791.451
791.45
791.45
791.449
791.449
791.448
791.448
791.447
791.447
791.447
791.446
791.446
791.445
791.445
791.444
791.444
791.443
791.443
791.442
791.442
791.441
791.44
791.44
791.439
791.438
791.438
791.437
791.437
791.436
791.436
791.435
791.435
791.434
791.433
791.433
791.432
791.431
791.431
791.43
791.429
791.429
791.428
791.428
791.427
791.427
791.426
791.426
791.425
791.425
791.424
791.424
791.424
791.424
791.423
791.423
791.423
791.423
791.423
791.422
791.422
791.421
791.421
791.421
791.42
791.42
791.42
791.42
791.42
791.42
791.42
791.419
791.419
791.419
791.419
791.418
791.418
791.418
791.418
791.418
791.417
791.417
791.417
791.417
791.417
791.416
791.416
791.416
791.416
791.417
791.417
791.417
791.418
791.418
791.419
791.419
791.419
791.42
791.42
791.42
791.421
791.421
791.421
791.422
791.422
791.423
791.423
791.424
791.425
791.426
791.427
791.427
791.428
791.43
791.43
791.431
791.432
791.434
791.435
791.436
791.438
791.439
791.44
791.441
791.441
791.443
791.444
791.445
791.446
791.447
791.449
791.449
791.448
791.447
791.448
791.451
791.453
791.453
791.451
791.446
791.438
791.429
791.42
791.411
791.405
791.403
791.4
791.406
791.405
791.416
791.418
791.427
791.432
791.436
791.444
791.445
791.451
791.451
791.454
791.455
791.454
791.459
791.455
791.46
791.457
791.46
791.462
791.461
791.465
791.465
791.467
791.467
791.471
791.471
791.501
791.535
791.575
791.613
791.646
791.675
791.7
791.72
791.737
791.752
791.765
791.776
791.785
791.792
791.799
791.804
791.807
791.81
791.812
791.814
791.815
791.816
791.816
791.817
791.817
791.818
791.818
791.818
791.818
791.818
791.818
791.818
791.818
791.818
791.818
791.818
791.817
791.817
791.817
791.817
791.816
791.815
791.815
791.815
791.814
791.814
791.814
791.814
791.814
791.813
791.812
791.811
791.81
791.809
791.808
791.807
791.806
791.805
791.804
791.804
791.803
791.802
791.801
791.801
791.8
791.8
791.8
791.799
791.799
791.799
791.798
791.798
791.797
791.796
791.795
791.794
791.793
791.793
791.792
791.792
791.792
791.791
791.791
791.79
791.789
791.788
791.787
791.787
791.786
791.786
791.785
791.785
791.784
791.784
791.783
791.782
791.782
791.782
791.782
791.783
791.783
791.783
791.783
791.783
791.783
791.783
791.782
791.782
791.781
791.781
791.78
791.78
791.779
791.778
791.776
791.775
791.773
791.772
791.77
791.769
791.767
791.766
791.764
791.761
791.759
791.757
791.754
791.751
791.748
791.745
791.741
791.737
791.732
791.728
791.724
791.721
791.717
791.714
791.71
791.706
791.701
791.694
791.687
791.68
791.671
791.663
791.655
791.648
791.642
791.639
791.637
791.635
791.634
791.631
791.625
791.615
791.6
791.582
791.562
791.541
791.518
791.494
791.471
791.45
791.43
791.415
791.4
791.389
791.377
791.371
791.363
791.363
791.358
791.362
791.359
791.368
791.369
791.386
791.392
791.414
791.419
791.441
791.442
791.46
791.456
791.47
791.464
791.475
791.467
791.477
791.469
791.478
791.471
791.478
791.472
791.479
791.472
791.479
791.474
791.479
791.398
791.387
791.374
791.363
791.357
791.354
791.352
791.351
791.349
791.347
791.344
791.34
791.336
791.333
791.33
791.327
791.324
791.321
791.318
791.315
791.312
791.309
791.307
791.304
791.302
791.3
791.298
791.297
791.295
791.293
791.292
791.29
791.288
791.286
791.285
791.283
791.282
791.281
791.279
791.278
791.277
791.277
791.276
791.275
791.274
791.273
791.273
791.272
791.271
791.27
791.27
791.269
791.268
791.268
791.267
791.266
791.266
791.265
791.264
791.264
791.263
791.262
791.262
791.261
791.261
791.261
791.26
791.26
791.26
791.26
791.259
791.259
791.258
791.258
791.258
791.257
791.257
791.257
791.257
791.256
791.256
791.256
791.256
791.256
791.256
791.255
791.255
791.255
791.255
791.255
791.255
791.255
791.255
791.255
791.255
791.255
791.255
791.255
791.254
791.254
791.254
791.253
791.253
791.253
791.253
791.254
791.254
791.254
791.254
791.254
791.253
791.253
791.253
791.253
791.253
791.253
791.253
791.253
791.253
791.254
791.254
791.254
791.255
791.255
791.255
791.255
791.254
791.254
791.254
791.255
791.255
791.256
791.256
791.257
791.258
791.258
791.258
791.259
791.259
791.26
791.26
791.26
791.261
791.262
791.263
791.263
791.264
791.265
791.265
791.266
791.267
791.267
791.267
791.267
791.265
791.266
791.267
791.27
791.271
791.271
791.272
791.274
791.277
791.28
791.284
791.287
791.288
791.289
791.292
791.301
791.311
791.327
791.34
791.343
791.342
791.329
791.298
791.276
791.266
791.273
791.289
791.327
791.347
791.385
791.397
791.425
791.43
791.448
791.449
791.462
791.459
791.47
791.465
791.474
791.469
791.476
791.471
791.475
791.476
791.478
791.373
791.397
791.431
791.471
791.514
791.556
791.596
791.631
791.662
791.689
791.712
791.732
791.75
791.764
791.776
791.786
791.793
791.799
791.803
791.806
791.807
791.808
791.809
791.809
791.809
791.809
791.81
791.809
791.809
791.809
791.809
791.809
791.809
791.809
791.808
791.808
791.808
791.807
791.807
791.806
791.805
791.805
791.804
791.803
791.803
791.803
791.803
791.802
791.802
791.802
791.801
791.8
791.799
791.798
791.796
791.795
791.794
791.793
791.791
791.79
791.789
791.787
791.786
791.784
791.783
791.781
791.78
791.779
791.778
791.777
791.776
791.774
791.772
791.769
791.767
791.765
791.763
791.761
791.76
791.758
791.757
791.755
791.753
791.751
791.748