/*--------------------------------*- C++ -*----------------------------------*\
| =========                 |                                                 |
| \\      /  F ield         | OpenFOAM: The Open Source CFD Toolbox           |
|  \\    /   O peration     | Version:  3.0.x                                 |
|   \\  /    A nd           | Web:      www.OpenFOAM.org                      |
|    \\/     M anipulation  |                                                 |
\*---------------------------------------------------------------------------*/
FoamFile
{
    version     2.0;
    format      ascii;
    class       surfaceScalarField;
    location    "0.46";
    object      phi;
}
// * * * * * * * * * * * * * * * * * * * * * * * * * * * * * * * * * * * * * //

dimensions      [1 0 -1 0 0 0 0];

internalField   nonuniform List<scalar> 
12415
(
5.79827
0.00032773
5.79785
0.000234966
5.79745
0.000224805
5.79706
0.000226713
5.79668
0.000227152
5.79631
0.000226942
5.79595
0.000226883
5.79561
0.000226887
5.79529
0.000226887
5.79498
0.000226884
5.79468
0.000226882
5.79439
0.00022688
5.79412
0.000226878
5.79385
0.000226875
5.79359
0.000226874
5.79334
0.000226872
5.79309
0.000226872
5.79284
0.000226871
5.79258
0.000226872
5.79232
0.000226871
5.79204
0.000226844
5.79176
0.000226923
5.79146
0.000226863
5.79114
0.00022689
5.79081
0.000226895
5.79046
0.000226907
5.79009
0.00022692
5.7897
0.000226939
5.78929
0.000226962
5.78886
0.000226991
5.78842
0.000227025
5.78796
0.000227065
5.78749
0.000227109
5.78701
0.000227049
5.78653
0.000227284
5.78606
0.000227329
5.78558
0.000227351
5.78509
0.000227428
5.7846
0.000227506
5.78411
0.000227587
5.78362
0.000227673
5.78312
0.00022776
5.78263
0.000227852
5.78214
0.000227944
5.78165
0.000228042
5.78116
0.000228139
5.78068
0.000228239
5.7802
0.000228338
5.7797
0.000228435
5.77921
0.000228527
5.7787
0.000228608
5.77817
0.000228672
5.77762
0.000228709
5.77703
0.000228706
5.77641
0.000228646
5.77576
0.000228507
5.77506
0.00022824
5.77433
0.00022788
5.77355
0.000227181
5.77274
0.000226891
5.77189
0.000225387
5.77099
0.000224167
5.77006
0.000222432
5.76908
0.00022025
5.76806
0.000217563
5.767
0.000214312
5.7659
0.000210475
5.76477
0.00020581
5.7636
0.000200691
5.7624
0.000194742
5.76117
0.00018804
5.75992
0.000180663
5.75865
0.000172623
5.75736
0.000163978
5.75605
0.000154803
5.75473
0.000145193
5.75339
0.000135257
5.75203
0.000125112
5.75066
0.000114883
5.74926
0.000104696
5.74784
9.46722e-05
5.74639
8.49268e-05
5.74491
7.55638e-05
5.74339
6.66726e-05
5.74182
5.83266e-05
5.74021
5.05812e-05
5.73854
4.34741e-05
5.73681
3.70252e-05
5.73501
3.12379e-05
5.73314
2.61011e-05
5.73119
2.15911e-05
5.72916
1.76738e-05
5.72704
1.43079e-05
5.72483
1.14463e-05
5.72252
9.03928e-06
5.72012
7.03593e-06
5.71763
5.38611e-06
5.71504
4.04161e-06
5.71235
2.95764e-06
5.70958
2.09301e-06
5.70671
1.41045e-06
5.70376
8.78357e-07
5.70074
4.69054e-07
5.69763
1.61515e-07
5.69445
-7.70833e-08
5.69121
-2.5495e-07
5.6879
-3.8309e-07
5.68454
-4.76117e-07
5.68112
-5.42823e-07
5.67764
-5.89916e-07
5.67412
-6.22373e-07
5.67054
-6.43868e-07
5.66692
-6.57057e-07
5.66324
-6.63866e-07
5.65951
-6.65594e-07
5.65572
-6.63122e-07
5.65187
-6.56897e-07
5.64795
-6.47235e-07
5.64396
-6.34265e-07
5.63989
-6.18147e-07
5.63573
-5.98899e-07
5.63149
-5.76563e-07
5.62715
-5.51057e-07
5.6227
-5.22401e-07
5.61814
-4.90652e-07
5.61347
-4.56012e-07
5.60867
-4.1874e-07
5.60374
-3.7909e-07
5.59868
-3.37432e-07
5.59349
-2.94123e-07
5.58816
-2.49658e-07
5.58269
-2.04638e-07
5.57708
-1.59644e-07
5.57133
-1.15406e-07
5.56545
-7.21029e-08
5.55944
-3.20179e-08
5.5533
5.71708e-09
5.54705
4.01924e-08
5.54069
7.16445e-08
5.53424
9.7305e-08
5.52769
1.20157e-07
5.52106
1.38498e-07
5.51435
1.52859e-07
5.50758
1.63445e-07
5.50074
1.70783e-07
5.49385
1.75496e-07
5.4869
1.78201e-07
5.47991
1.79594e-07
5.47285
1.80464e-07
5.46574
1.81506e-07
5.45858
1.83309e-07
5.45134
1.86355e-07
5.44405
1.9091e-07
5.43667
1.97284e-07
5.42922
2.05742e-07
5.42168
2.16505e-07
5.41405
2.29746e-07
5.40631
2.45565e-07
5.39848
2.63763e-07
5.39053
2.84464e-07
5.38246
3.07982e-07
5.37426
3.34448e-07
5.36593
3.64014e-07
5.35745
3.96629e-07
5.34883
4.32359e-07
5.34005
4.70893e-07
5.3311
5.12031e-07
5.32198
5.54954e-07
5.3127
5.99277e-07
5.30324
6.43844e-07
5.2936
6.88398e-07
5.2838
7.3163e-07
5.27383
7.72809e-07
5.26371
8.1062e-07
5.25343
8.44324e-07
5.24302
8.72469e-07
5.23249
8.9565e-07
5.22184
9.11637e-07
5.2111
9.22952e-07
5.20028
9.25436e-07
5.18939
9.2484e-07
5.17844
9.14601e-07
5.16744
9.05895e-07
5.1564
8.86141e-07
5.14531
8.76227e-07
5.13418
8.48891e-07
5.123
8.524e-07
5.11177
8.06305e-07
5.10046
8.56129e-07
5.08908
7.59681e-07
5.0776
9.06824e-07
5.06604
7.89934e-07
5.05436
1.59657e-06
5.04259
4.94888e-06
5.03069
3.12872e-05
5.0185
0.000208644
5.00498
0.00144024
4.98287
0.00991898
4.89111
0.0794561
0.374394
4.50427
11.5973
0.000260454
11.597
0.000215412
11.5967
0.000189763
11.5964
0.000194081
11.5961
0.000195354
11.5958
0.000194755
11.5956
0.000194586
11.5954
0.0001946
11.5952
0.000194608
11.5951
0.000194608
11.595
0.000194613
11.5949
0.000194618
11.5948
0.000194625
11.5948
0.000194632
11.5948
0.000194641
11.5947
0.000194649
11.5947
0.000194659
11.5947
0.000194669
11.5947
0.00019468
11.5946
0.000194689
11.5946
0.000194686
11.5945
0.000194742
11.5944
0.000194723
11.5942
0.000194748
11.594
0.000194765
11.5938
0.000194786
11.5936
0.000194808
11.5933
0.000194836
11.5929
0.000194866
11.5926
0.000194902
11.5922
0.000194942
11.5917
0.000194988
11.5913
0.000195032
11.5908
0.00019502
11.5903
0.000195194
11.5899
0.000195255
11.5894
0.000195286
11.5889
0.000195367
11.5884
0.000195444
11.5879
0.000195525
11.5874
0.00019561
11.5869
0.000195696
11.5864
0.000195787
11.5859
0.000195877
11.5854
0.000195974
11.585
0.000196067
11.5845
0.000196165
11.584
0.000196262
11.5835
0.000196356
11.583
0.000196446
11.5825
0.000196527
11.5819
0.000196592
11.5813
0.000196634
11.5806
0.000196641
11.5799
0.000196597
11.579
0.000196484
11.5781
0.000196271
11.5771
0.000195944
11.5761
0.00019541
11.5749
0.00019501
11.5737
0.000193838
11.5724
0.000192733
11.571
0.000191231
11.5695
0.000189332
11.568
0.000186994
11.5663
0.000184167
11.5645
0.000180828
11.5627
0.00017676
11.5608
0.000172329
11.5588
0.000167154
11.5568
0.00016134
11.5547
0.000154938
11.5525
0.000147972
11.5503
0.000140486
11.548
0.000132549
11.5456
0.000124245
11.5433
0.000115667
11.5408
0.000106918
11.5383
9.81056e-05
11.5357
8.93384e-05
11.5331
8.07216e-05
11.5304
7.23534e-05
11.5276
6.43225e-05
11.5247
5.6705e-05
11.5217
4.95625e-05
11.5186
4.29417e-05
11.5153
3.68734e-05
11.5119
3.13735e-05
11.5084
2.64435e-05
11.5047
2.20727e-05
11.5009
1.82396e-05
11.4968
1.49143e-05
11.4926
1.20603e-05
11.4882
9.63689e-06
11.4836
7.60094e-06
11.4788
5.90853e-06
11.4739
4.51661e-06
11.4687
3.38359e-06
11.4633
2.47176e-06
11.4578
1.7456e-06
11.4521
1.17244e-06
11.4462
7.27219e-07
11.4401
3.86713e-07
11.4339
1.41192e-07
11.4275
-6.80332e-08
11.421
-2.25374e-07
11.4144
-3.32777e-07
11.4077
-4.10792e-07
11.4009
-4.66886e-07
11.3939
-5.06667e-07
11.3869
-5.34161e-07
11.3797
-5.52402e-07
11.3725
-5.6361e-07
11.3651
-5.69384e-07
11.3576
-5.70837e-07
11.3501
-5.68696e-07
11.3423
-5.63348e-07
11.3345
-5.55053e-07
11.3265
-5.43921e-07
11.3184
-5.30093e-07
11.3101
-5.13578e-07
11.3016
-4.94421e-07
11.2929
-4.72535e-07
11.284
-4.47957e-07
11.2749
-4.20722e-07
11.2655
-3.9102e-07
11.2559
-3.59052e-07
11.2461
-3.25063e-07
11.236
-2.89339e-07
11.2256
-2.52215e-07
11.2149
-2.14096e-07
11.204
-1.75515e-07
11.1927
-1.36965e-07
11.1812
-9.89569e-08
11.1695
-6.04259e-08
11.1575
-2.70838e-08
11.1452
5.10158e-09
11.1327
3.46615e-08
11.12
6.28527e-08
11.1071
8.25701e-08
11.094
1.02979e-07
11.0807
1.18827e-07
11.0673
1.3128e-07
11.0537
1.40357e-07
11.0401
1.46688e-07
11.0263
1.50747e-07
11.0124
1.5307e-07
10.9984
1.54281e-07
10.9843
1.5508e-07
10.9701
1.55934e-07
10.9557
1.57512e-07
10.9413
1.60142e-07
10.9267
1.64066e-07
10.9119
1.69533e-07
10.897
1.76799e-07
10.8819
1.86044e-07
10.8667
1.97386e-07
10.8512
2.10999e-07
10.8355
2.26683e-07
10.8196
2.44411e-07
10.8035
2.64536e-07
10.7871
2.87209e-07
10.7704
3.12692e-07
10.7535
3.4068e-07
10.7362
3.71319e-07
10.7187
4.04241e-07
10.7008
4.39783e-07
10.6826
4.76488e-07
10.664
5.14638e-07
10.6451
5.52531e-07
10.6258
5.91077e-07
10.6062
6.28122e-07
10.5863
6.63548e-07
10.566
6.95715e-07
10.5455
7.24954e-07
10.5246
7.48428e-07
10.5036
7.69406e-07
10.4823
7.81634e-07
10.4608
7.93594e-07
10.4392
7.92845e-07
10.4174
7.96143e-07
10.3955
7.82078e-07
10.3735
7.82069e-07
10.3514
7.54985e-07
10.3292
7.60944e-07
10.307
7.14107e-07
10.2846
7.57501e-07
10.2622
6.46017e-07
10.2395
8.13711e-07
10.2168
5.38497e-07
10.1938
9.78054e-07
10.1707
6.29429e-07
10.1474
3.01555e-06
10.1238
1.29403e-05
10.1
9.10843e-05
10.0756
0.000617157
10.0486
0.00426931
10.0049
0.0292601
9.85262
0.207149
0.932727
9.2694
139.167
-0.000260454
139.163
-0.000215412
139.16
-0.000189763
139.156
-0.000194081
139.153
-0.000195354
139.15
-0.000194755
139.147
-0.000194586
139.145
-0.0001946
139.143
-0.000194608
139.141
-0.000194608
139.14
-0.000194613
139.139
-0.000194618
139.138
-0.000194625
139.137
-0.000194632
139.137
-0.000194641
139.137
-0.000194649
139.137
-0.000194659
139.136
-0.000194669
139.136
-0.00019468
139.135
-0.000194689
139.135
-0.000194686
139.134
-0.000194742
139.132
-0.000194723
139.131
-0.000194748
139.128
-0.000194765
139.126
-0.000194786
139.123
-0.000194808
139.119
-0.000194836
139.115
-0.000194866
139.111
-0.000194902
139.106
-0.000194942
139.101
-0.000194988
139.095
-0.000195032
139.09
-0.00019502
139.084
-0.000195194
139.079
-0.000195255
139.073
-0.000195286
139.067
-0.000195367
139.061
-0.000195444
139.055
-0.000195525
139.049
-0.00019561
139.043
-0.000195696
139.037
-0.000195787
139.031
-0.000195877
139.025
-0.000195974
139.02
-0.000196067
139.014
-0.000196165
139.008
-0.000196262
139.002
-0.000196356
138.996
-0.000196446
138.99
-0.000196527
138.983
-0.000196592
138.975
-0.000196634
138.967
-0.000196641
138.958
-0.000196597
138.949
-0.000196484
138.938
-0.000196271
138.926
-0.000195944
138.913
-0.00019541
138.899
-0.00019501
138.885
-0.000193838
138.869
-0.000192733
138.852
-0.000191231
138.835
-0.000189332
138.816
-0.000186994
138.796
-0.000184167
138.775
-0.000180828
138.753
-0.00017676
138.73
-0.000172329
138.706
-0.000167154
138.682
-0.00016134
138.656
-0.000154938
138.63
-0.000147972
138.603
-0.000140486
138.576
-0.000132549
138.548
-0.000124245
138.519
-0.000115667
138.49
-0.000106918
138.46
-9.81056e-05
138.429
-8.93384e-05
138.397
-8.07216e-05
138.365
-7.23534e-05
138.331
-6.43225e-05
138.296
-5.6705e-05
138.26
-4.95625e-05
138.223
-4.29417e-05
138.184
-3.68734e-05
138.143
-3.13735e-05
138.101
-2.64435e-05
138.057
-2.20727e-05
138.01
-1.82396e-05
137.962
-1.49143e-05
137.912
-1.20603e-05
137.859
-9.63689e-06
137.804
-7.60094e-06
137.746
-5.90853e-06
137.687
-4.51661e-06
137.624
-3.38359e-06
137.56
-2.47176e-06
137.494
-1.7456e-06
137.425
-1.17244e-06
137.354
-7.2722e-07
137.281
-3.86713e-07
137.207
-1.41189e-07
137.131
6.80348e-08
137.053
2.25376e-07
136.973
3.32777e-07
136.893
4.10791e-07
136.81
4.6689e-07
136.727
5.06667e-07
136.643
5.34159e-07
136.557
5.52404e-07
136.47
5.63608e-07
136.381
5.69384e-07
136.292
5.70841e-07
136.201
5.68695e-07
136.108
5.63352e-07
136.014
5.55047e-07
135.918
5.43933e-07
135.821
5.30087e-07
135.721
5.13587e-07
135.619
4.94411e-07
135.515
4.72544e-07
135.408
4.47949e-07
135.299
4.20735e-07
135.187
3.91013e-07
135.071
3.59064e-07
134.953
3.25052e-07
134.832
2.89343e-07
134.707
2.52204e-07
134.579
2.1411e-07
134.448
1.75495e-07
134.313
1.3697e-07
134.175
9.89651e-08
134.034
6.04207e-08
133.89
2.70807e-08
133.742
-5.09249e-09
133.592
-3.46986e-08
133.44
-6.27961e-08
133.285
-8.26242e-08
133.128
-1.02951e-07
132.969
-1.18859e-07
132.808
-1.31239e-07
132.645
-1.40369e-07
132.481
-1.46724e-07
132.316
-1.50716e-07
132.149
-1.53053e-07
131.981
-1.54346e-07
131.812
-1.54952e-07
131.641
-1.56063e-07
131.469
-1.57511e-07
131.295
-1.60111e-07
131.12
-1.64002e-07
130.943
-1.6957e-07
130.764
-1.76743e-07
130.583
-1.86213e-07
130.4
-1.97471e-07
130.215
-2.1104e-07
130.027
-2.26227e-07
129.836
-2.44275e-07
129.642
-2.64791e-07
129.445
-2.87729e-07
129.246
-3.12422e-07
129.042
-3.4042e-07
128.835
-3.71218e-07
128.624
-4.05011e-07
128.41
-4.39047e-07
128.191
-4.7682e-07
127.968
-5.13719e-07
127.741
-5.53955e-07
127.51
-5.90419e-07
127.274
-6.28843e-07
127.035
-6.62028e-07
126.792
-6.97027e-07
126.546
-7.23399e-07
126.296
-7.51131e-07
126.043
-7.65905e-07
125.788
-7.86022e-07
125.53
-7.87387e-07
125.27
-8.01558e-07
125.009
-7.84732e-07
124.746
-7.96775e-07
124.482
-7.61484e-07
124.217
-7.84845e-07
123.951
-7.16261e-07
123.684
-7.86288e-07
123.416
-6.30539e-07
123.146
-8.65031e-07
122.875
-4.42063e-07
122.601
-1.08942e-06
122.326
-6.04293e-08
122.048
-1.2088e-06
121.768
2.73121e-06
121.486
1.43162e-05
121.201
0.000115943
120.913
0.00080825
120.622
0.00570882
120.318
0.0404513
119.909
0.320882
1.32191
119.222
11.5973
-0.00032773
11.597
-0.000234966
11.5967
-0.000224805
11.5964
-0.000226713
11.5961
-0.000227152
11.5958
-0.000226942
11.5956
-0.000226883
11.5954
-0.000226887
11.5952
-0.000226887
11.5951
-0.000226884
11.595
-0.000226882
11.5949
-0.00022688
11.5948
-0.000226878
11.5948
-0.000226875
11.5948
-0.000226874
11.5947
-0.000226872
11.5947
-0.000226872
11.5947
-0.000226871
11.5947
-0.000226872
11.5946
-0.000226871
11.5946
-0.000226844
11.5945
-0.000226923
11.5944
-0.000226863
11.5942
-0.00022689
11.594
-0.000226895
11.5938
-0.000226907
11.5936
-0.00022692
11.5933
-0.000226939
11.5929
-0.000226962
11.5926
-0.000226991
11.5922
-0.000227025
11.5917
-0.000227065
11.5913
-0.000227109
11.5908
-0.000227049
11.5903
-0.000227284
11.5899
-0.000227329
11.5894
-0.000227351
11.5889
-0.000227428
11.5884
-0.000227506
11.5879
-0.000227587
11.5874
-0.000227673
11.5869
-0.00022776
11.5864
-0.000227852
11.5859
-0.000227944
11.5854
-0.000228042
11.585
-0.000228139
11.5845
-0.000228239
11.584
-0.000228338
11.5835
-0.000228435
11.583
-0.000228527
11.5825
-0.000228608
11.5819
-0.000228672
11.5813
-0.000228709
11.5806
-0.000228706
11.5799
-0.000228646
11.579
-0.000228507
11.5781
-0.00022824
11.5771
-0.00022788
11.5761
-0.000227181
11.5749
-0.000226891
11.5737
-0.000225387
11.5724
-0.000224167
11.571
-0.000222432
11.5695
-0.00022025
11.568
-0.000217563
11.5663
-0.000214312
11.5645
-0.000210475
11.5627
-0.00020581
11.5608
-0.000200691
11.5588
-0.000194742
11.5568
-0.00018804
11.5547
-0.000180663
11.5525
-0.000172623
11.5503
-0.000163978
11.548
-0.000154803
11.5456
-0.000145193
11.5433
-0.000135257
11.5408
-0.000125112
11.5383
-0.000114883
11.5357
-0.000104696
11.5331
-9.46722e-05
11.5304
-8.49268e-05
11.5276
-7.55638e-05
11.5247
-6.66726e-05
11.5217
-5.83266e-05
11.5186
-5.05812e-05
11.5153
-4.34741e-05
11.5119
-3.70252e-05
11.5084
-3.12379e-05
11.5047
-2.61011e-05
11.5009
-2.15911e-05
11.4968
-1.76738e-05
11.4926
-1.43079e-05
11.4882
-1.14463e-05
11.4836
-9.03928e-06
11.4788
-7.03593e-06
11.4739
-5.38611e-06
11.4687
-4.04161e-06
11.4633
-2.95764e-06
11.4578
-2.09301e-06
11.4521
-1.41045e-06
11.4462
-8.78357e-07
11.4401
-4.69056e-07
11.4339
-1.61515e-07
11.4275
7.70833e-08
11.421
2.54951e-07
11.4144
3.83092e-07
11.4077
4.76117e-07
11.4009
5.42823e-07
11.3939
5.89916e-07
11.3869
6.22371e-07
11.3797
6.43868e-07
11.3725
6.57057e-07
11.3651
6.63864e-07
11.3576
6.65599e-07
11.3501
6.6312e-07
11.3423
6.56903e-07
11.3345
6.47229e-07
11.3265
6.34273e-07
11.3184
6.18142e-07
11.3101
5.98906e-07
11.3016
5.76558e-07
11.2929
5.51061e-07
11.284
5.22399e-07
11.2749
4.90652e-07
11.2655
4.56015e-07
11.2559
4.18737e-07
11.2461
3.79096e-07
11.236
3.37426e-07
11.2256
2.94123e-07
11.2149
2.49673e-07
11.204
2.0462e-07
11.1927
1.59655e-07
11.1812
1.15409e-07
11.1695
7.20956e-08
11.1575
3.20215e-08
11.1452
-5.71708e-09
11.1327
-4.02051e-08
11.12
-7.16154e-08
11.1071
-9.7325e-08
11.094
-1.20155e-07
11.0807
-1.38512e-07
11.0673
-1.52821e-07
11.0537
-1.63442e-07
11.0401
-1.70825e-07
11.0263
-1.75502e-07
11.0124
-1.78166e-07
10.9984
-1.79592e-07
10.9843
-1.80438e-07
10.9701
-1.81562e-07
10.9557
-1.8332e-07
10.9413
-1.86312e-07
10.9267
-1.90877e-07
10.9119
-1.97304e-07
10.897
-2.05751e-07
10.8819
-2.16605e-07
10.8667
-2.29786e-07
10.8512
-2.45511e-07
10.8355
-2.6355e-07
10.8196
-2.84448e-07
10.8035
-3.08119e-07
10.7871
-3.34641e-07
10.7704
-3.639e-07
10.7535
-3.96512e-07
10.7362
-4.32341e-07
10.7187
-4.71196e-07
10.7008
-5.11816e-07
10.6826
-5.55012e-07
10.664
-5.9889e-07
10.6451
-6.44281e-07
10.6258
-6.88229e-07
10.6062
-7.31972e-07
10.5863
-7.72377e-07
10.566
-8.11046e-07
10.5455
-8.4372e-07
10.5246
-8.73308e-07
10.5036
-8.94401e-07
10.4823
-9.13136e-07
10.4608
-9.20807e-07
10.4392
-9.2851e-07
10.4174
-9.20965e-07
10.3955
-9.19767e-07
10.3735
-8.98855e-07
10.3514
-8.964e-07
10.3292
-8.60802e-07
10.307
-8.73772e-07
10.2846
-8.08182e-07
10.2622
-8.82843e-07
10.2395
-7.25471e-07
10.2168
-9.55097e-07
10.1938
-5.81675e-07
10.1707
-1.00884e-06
10.1474
3.83754e-07
10.1238
4.28479e-06
10.1002
3.91429e-05
10.0767
0.000276407
10.0563
0.00197137
10.0578
0.0145526
10.1933
0.160781
0.586268
10.9042
5.79827
5.79785
5.79745
5.79706
5.79668
5.79631
5.79595
5.79561
5.79529
5.79498
5.79468
5.79439
5.79412
5.79385
5.79359
5.79334
5.79309
5.79284
5.79258
5.79232
5.79204
5.79176
5.79146
5.79114
5.79081
5.79046
5.79009
5.7897
5.78929
5.78886
5.78842
5.78796
5.78749
5.78701
5.78653
5.78606
5.78558
5.78509
5.7846
5.78411
5.78362
5.78312
5.78263
5.78214
5.78165
5.78116
5.78068
5.7802
5.7797
5.77921
5.7787
5.77817
5.77762
5.77703
5.77641
5.77576
5.77506
5.77433
5.77355
5.77274
5.77189
5.77099
5.77006
5.76908
5.76806
5.767
5.7659
5.76477
5.7636
5.7624
5.76117
5.75992
5.75865
5.75736
5.75605
5.75473
5.75339
5.75203
5.75066
5.74926
5.74784
5.74639
5.74491
5.74339
5.74182
5.74021
5.73854
5.73681
5.73501
5.73314
5.73119
5.72916
5.72704
5.72483
5.72252
5.72012
5.71763
5.71504
5.71235
5.70958
5.70671
5.70376
5.70074
5.69763
5.69445
5.69121
5.6879
5.68454
5.68112
5.67764
5.67412
5.67054
5.66692
5.66324
5.65951
5.65572
5.65187
5.64795
5.64396
5.63989
5.63573
5.63149
5.62715
5.6227
5.61814
5.61347
5.60867
5.60374
5.59868
5.59349
5.58816
5.58269
5.57708
5.57133
5.56545
5.55944
5.5533
5.54705
5.54069
5.53424
5.52769
5.52106
5.51435
5.50758
5.50074
5.49385
5.4869
5.47991
5.47285
5.46574
5.45858
5.45134
5.44405
5.43667
5.42922
5.42168
5.41405
5.40631
5.39848
5.39053
5.38246
5.37426
5.36593
5.35745
5.34883
5.34005
5.3311
5.32198
5.3127
5.30324
5.2936
5.2838
5.27383
5.26371
5.25343
5.24302
5.23249
5.22184
5.2111
5.20028
5.18939
5.17844
5.16744
5.1564
5.14531
5.13418
5.12301
5.11177
5.10046
5.08907
5.0776
5.06603
5.05437
5.0426
5.03077
5.01907
5.00896
5.01131
5.15978
5.73374
4.39292
0.108234
4.39793
-0.00810572
4.39263
0.00218767
4.39463
-0.00513278
4.40276
-0.0112892
4.42028
-0.0207146
4.49276
-0.0755969
4.62424
-0.134722
4.74307
-0.122216
4.75266
-0.0130133
4.68581
0.0635848
4.57048
0.112005
4.43349
0.133659
4.37838
0.0522028
4.60249
-0.226111
5.11067
-0.510193
5.74301
-0.635362
6.27535
-0.536804
6.54926
-0.27946
-0.219742
6.76312
9.22292
0.148656
9.23481
-0.0260483
9.27338
-0.0424654
9.31837
-0.0562438
9.36939
-0.0684858
9.43506
-0.0926658
9.61398
-0.260633
9.91267
-0.439785
10.2082
-0.424377
10.2946
-0.106132
10.2286
0.123267
10.0454
0.28886
9.75957
0.413035
9.52144
0.284615
9.73613
-0.444423
10.4675
-1.24581
11.5596
-1.73385
12.7117
-1.69817
13.5078
-1.08688
-0.616625
13.8934
119.212
0.101592
119.212
-0.0828711
119.138
-0.0250108
118.918
0.105751
118.572
0.219507
118.148
0.272611
117.506
0.32388
116.678
0.33058
115.857
0.339448
115.375
0.317208
115.116
0.324619
115.051
0.293264
115.127
0.277302
115.095
0.255098
114.351
0.236657
112.825
0.217074
110.846
0.186303
108.956
0.135165
107.758
0.0546323
-0.126955
107.212
10.8462
0.156207
10.7634
-0.00345462
10.7348
0.000192133
10.8084
0.0290085
10.969
0.0558634
11.1663
0.0725806
11.3978
0.0888632
11.6313
0.0936674
11.8703
0.0968054
12.0924
0.0918502
12.3209
0.0921099
12.5281
0.0824984
12.7262
0.0757822
12.9096
0.068022
13.0821
0.0605312
13.2445
0.050901
13.3934
0.0336892
13.524
0.000725803
13.6332
-0.0584238
-0.216567
13.719
5.88829
5.88321
5.8818
5.90926
5.96366
6.03485
6.12205
6.21404
6.30912
6.39934
6.48958
6.57035
6.64441
6.71068
6.76944
6.81854
6.8504
6.84927
6.78899
6.57057
6.40462
0.347771
6.64435
-0.248552
7.03276
-0.400024
7.13722
-0.116814
7.09766
0.0279263
7.06615
0.0201269
7.09576
-0.041195
7.12734
-0.0433892
7.12771
-0.0122127
7.11252
0.00337934
7.10235
-0.0016917
7.0997
-0.00927478
7.09477
-0.00710275
7.08402
-0.00135763
7.07144
0.000419184
7.058
0.00122323
7.04458
0.00114146
7.03128
0.000959263
7.01875
0.000129624
7.00737
-0.00108686
6.99534
-0.00049706
6.98245
0.000304475
6.96918
0.000647753
6.95562
0.000897267
6.94211
0.000801806
6.93046
-0.00108008
6.9204
-0.00272234
6.90979
-0.00221339
6.89694
-1.91984e-05
6.88293
0.00113451
6.86857
0.0014522
6.85398
0.00164443
6.83924
0.00176736
6.82437
0.00186105
6.8094
0.00192819
6.79436
0.00195745
6.77928
0.00194396
6.76421
0.00188922
6.74918
0.00179983
6.7342
0.0016868
6.71928
0.00156399
6.7044
0.00144618
6.68956
0.00134737
6.6747
0.00127933
6.6598
0.00125057
6.6448
0.00126579
6.62965
0.00132579
6.61432
0.00142756
6.59876
0.00156468
6.58295
0.00172814
6.56687
0.00190703
6.55052
0.00208956
6.5339
0.002264
6.51705
0.00241962
6.49998
0.00254743
6.48273
0.00264065
6.46535
0.00269509
6.44787
0.00270918
6.43035
0.00268397
6.41281
0.00262294
6.3953
0.00253192
6.37783
0.00241864
6.36042
0.00229116
6.34309
0.00215713
6.32583
0.00202312
6.30865
0.00189599
6.29152
0.00178275
6.27444
0.00169111
6.25737
0.00162981
6.24027
0.00160807
6.2231
0.00163654
6.2058
0.00173173
6.18828
0.00191518
6.17042
0.00221619
6.15209
0.002675
6.13306
0.00334002
6.11311
0.00423106
6.09217
0.00519131
6.07117
0.00522976
6.05499
0.000376547
6.05908
-0.0198413
6.07338
-0.0301422
6.07715
-0.0196914
6.06242
-0.00119455
6.03675
0.00980057
6.00734
0.0135211
5.97534
0.0160912
5.94134
0.0180763
5.9052
0.0201907
5.86669
0.0225353
5.82566
0.0250267
5.78207
0.0275572
5.73598
0.0300312
5.68749
0.0324081
5.63666
0.0347424
5.58333
0.0372071
5.52707
0.0400728
5.46713
0.0436704
5.40247
0.0483301
5.33184
0.0543281
5.25373
0.0618312
5.16655
0.0708778
5.0688
0.0812977
4.9594
0.0926099
4.83818
0.104304
4.70593
0.11542
4.5644
0.124887
4.41636
0.131528
4.26567
0.134207
4.11678
0.132572
3.97411
0.12624
3.84153
0.116009
3.72187
0.10301
3.61653
0.0886021
3.52567
0.0739775
3.44848
0.0602912
3.38349
0.0480797
3.32892
0.0376553
3.28294
0.0290513
3.24387
0.0221336
3.21025
0.0166854
3.18084
0.0124642
3.15466
0.00923656
3.13092
0.0067955
3.109
0.00496631
3.08845
0.00360671
3.0689
0.00260349
3.05009
0.00186823
3.03182
0.0013328
3.01395
0.000945297
2.99637
0.000666539
2.97899
0.000467201
2.96177
0.000325495
2.94466
0.000225349
2.92763
0.000154987
2.91067
0.000105839
2.89375
7.17064e-05
2.87687
4.81397e-05
2.86001
3.19596e-05
2.84319
2.0914e-05
2.82638
1.34124e-05
2.80959
8.34424e-06
2.79281
4.93401e-06
2.77604
2.64989e-06
2.75929
1.12161e-06
2.74255
9.91568e-08
2.72581
-5.89922e-07
2.70909
-1.04943e-06
2.69237
-1.36927e-06
2.67566
-1.59174e-06
2.65895
-1.75539e-06
2.64225
-1.87299e-06
2.62556
-1.97357e-06
2.60887
-2.05225e-06
2.59219
-2.13212e-06
2.57552
-2.19442e-06
2.55886
-2.26351e-06
2.5422
-2.31381e-06
2.52555
-2.37705e-06
2.50892
-2.42749e-06
2.49229
-2.49216e-06
2.47568
-2.54981e-06
2.45909
-2.61287e-06
2.44252
-2.66446e-06
2.42596
-2.72815e-06
2.40943
-2.76708e-06
2.39292
-2.83995e-06
2.37644
-2.87216e-06
2.35998
-2.95556e-06
2.34356
-2.98219e-06
2.32717
-3.07057e-06
2.31081
-3.08643e-06
2.2945
-3.1912e-06
2.27822
-3.18204e-06
2.26199
-3.32726e-06
2.2458
-3.24891e-06
2.22966
-3.48945e-06
2.21357
-3.26498e-06
2.19753
-3.70404e-06
2.18153
-3.22376e-06
2.16559
-3.98312e-06
2.1497
-3.14671e-06
2.13387
-4.2911e-06
2.11809
-3.07525e-06
2.10236
-4.54965e-06
2.08668
-3.07767e-06
2.07107
-4.71042e-06
2.0555
-3.12268e-06
2.03998
-4.95323e-06
2.02452
-2.94446e-06
2.00911
-5.7153e-06
1.99376
-2.86559e-06
1.97845
-8.26398e-06
1.96321
-1.18909e-05
1.94805
-5.31516e-05
1.9331
-0.000216176
1.91897
-0.000983411
1.9087
-0.00478957
1.93782
-0.0441534
-0.135593
2.05845
12.7968
1.42287
12.7587
-0.228538
13.3504
-1.01469
13.6001
-0.391112
13.5389
0.065819
13.4408
0.095435
13.4653
-0.0890059
13.5312
-0.132766
13.5511
-0.0557865
13.5291
0.0017488
13.5069
-0.00315622
13.5015
-0.0277608
13.4988
-0.0284326
13.4865
-0.0132114
13.4682
-0.00563387
13.4461
-0.00105498
13.4224
0.000211134
13.3976
0.00113874
13.3732
-0.00027651
13.3513
-0.00407205
13.3286
-0.00294001
13.3042
-0.000395679
13.2782
0.00138107
13.2508
0.00302061
13.2222
0.00390854
13.197
-0.00127535
13.1763
-0.00766758
13.1573
-0.00880898
13.1351
-0.00353118
13.1102
0.000268663
13.084
0.00184252
13.0569
0.00282849
13.0293
0.00350462
13.0011
0.00403984
12.9724
0.00446985
12.9435
0.00477382
12.9142
0.00494048
12.8848
0.00497232
12.8552
0.00488403
12.8256
0.00470251
12.796
0.00446355
12.7664
0.00420683
12.7367
0.00397167
12.7071
0.00379283
12.6773
0.00369771
12.6474
0.0037042
12.6173
0.00382045
12.5868
0.00404423
12.5561
0.00436378
12.5249
0.00475967
12.4932
0.00520599
12.4611
0.00567409
12.4286
0.00613399
12.3956
0.00655782
12.3621
0.00692212
12.3284
0.00720902
12.2943
0.00740796
12.2599
0.00751566
12.2254
0.00753699
12.1907
0.00748392
12.1559
0.00737599
12.121
0.0072397
12.0859
0.00710304
12.0508
0.00699371
12.0154
0.00693745
11.9797
0.00696256
11.9437
0.0071
11.9072
0.00738514
11.8701
0.0078593
11.8322
0.00856911
11.7932
0.00957035
11.7528
0.0109435
11.7107
0.0127937
11.6664
0.0152622
11.6192
0.0185441
11.5682
0.0228919
11.5125
0.0285263
11.4509
0.0352262
11.3841
0.0403825
11.3204
0.0324531
11.2995
-0.0304595
11.3201
-0.0822902
11.3457
-0.0771364
11.3459
-0.033165
11.3196
0.004386
11.2774
0.0239538
11.2236
0.0380673
11.1606
0.0491811
11.0891
0.0597846
11.0093
0.0703878
10.9214
0.0808683
10.826
0.0909768
10.7235
0.100467
10.6145
0.109234
10.4996
0.117433
10.3788
0.125548
10.2521
0.13433
10.1186
0.144677
9.97713
0.157433
9.82582
0.173187
9.66279
0.192125
9.48656
0.213899
9.2966
0.237786
9.0933
0.262413
8.87812
0.286166
8.65355
0.306925
8.42315
0.322382
8.19155
0.330297
7.964
0.32916
7.7456
0.318138
7.54098
0.29777
7.3538
0.269949
7.18608
0.237334
7.03828
0.202722
6.90974
0.168781
6.79885
0.137417
6.7034
0.109733
6.62104
0.0862015
6.54946
0.0667901
6.48659
0.0511496
6.43062
0.0387817
6.38006
0.0291485
6.33367
0.0217377
6.29047
0.0160955
6.2497
0.0118383
6.21076
0.00865179
6.17319
0.00628398
6.13664
0.0045366
6.10085
0.0032555
6.06562
0.00232225
6.03081
0.00164664
5.9963
0.00116058
5.96202
0.000813036
5.92791
0.000566072
5.89392
0.000391658
5.86004
0.000269239
5.82623
0.000183843
5.79249
0.000124642
5.7588
8.38494e-05
5.72515
5.5917e-05
5.69153
3.69028e-05
5.65795
2.40401e-05
5.6244
1.5385e-05
5.59087
9.59805e-06
5.55736
5.74352e-06
5.52387
3.18575e-06
5.4904
1.4925e-06
5.45694
3.90533e-07
5.4235
-3.53065e-07
5.39007
-8.42312e-07
5.35666
-1.18065e-06
5.32326
-1.39633e-06
5.28987
-1.56733e-06
5.25649
-1.67439e-06
5.22312
-1.78344e-06
5.18977
-1.84353e-06
5.15644
-1.92842e-06
5.12312
-1.96229e-06
5.08982
-2.03722e-06
5.05654
-2.06896e-06
5.02329
-2.13672e-06
4.99007
-2.17932e-06
4.95688
-2.2411e-06
4.92372
-2.27412e-06
4.8906
-2.34941e-06
4.85753
-2.35206e-06
4.82451
-2.45554e-06
4.79153
-2.43348e-06
4.75862
-2.56084e-06
4.72577
-2.52256e-06
4.69298
-2.66532e-06
4.66027
-2.60338e-06
4.62763
-2.7863e-06
4.59507
-2.65518e-06
4.5626
-2.9531e-06
4.53021
-2.63169e-06
4.49793
-3.21516e-06
4.46573
-2.46689e-06
4.43364
-3.63503e-06
4.40164
-2.13525e-06
4.36976
-4.20837e-06
4.33797
-1.72951e-06
4.30629
-4.79129e-06
4.27472
-1.40708e-06
4.24326
-5.205e-06
4.2119
-1.28343e-06
4.18065
-5.44236e-06
4.1495
-1.136e-06
4.11847
-6.03868e-06
4.08754
-2.62098e-07
4.05671
-8.14189e-06
4.02599
3.16691e-07
3.99537
-1.54219e-05
3.96487
-2.58224e-05
3.93454
-0.000144692
3.90461
-0.000614295
3.87619
-0.00279241
3.85392
-0.0126438
3.84817
-0.068456
-0.203258
3.88591
108.237
0.127144
107.595
0.134602
106.193
0.11141
105.452
0.0762956
105.183
0.0593057
104.945
0.0564429
104.522
0.0545446
104.064
0.0452505
103.689
0.0373795
103.374
0.0338481
103.054
0.031688
102.712
0.028134
102.372
0.023875
102.049
0.0205224
101.734
0.0181917
101.424
0.0162687
101.115
0.0144599
100.807
0.0128551
100.498
0.0114418
100.185
0.00997495
99.8731
0.00858164
99.5637
0.0074366
99.256
0.00634048
98.9497
0.00557582
98.6438
0.00501662
98.3323
0.00449057
98.0145
0.00361272
97.6957
0.00260373
97.3823
0.00175412
97.0724
0.00121569
96.7639
0.000686122
96.4561
0.000101245
96.149
-0.000636048
95.8421
-0.00114542
95.5351
-0.0014649
95.2278
-0.00172368
94.9197
-0.00191273
94.6106
-0.00209262
94.3004
-0.00228723
93.9888
-0.002509
93.6758
-0.00276271
93.3611
-0.00304653
93.0448
-0.00335468
92.7268
-0.00367692
92.4072
-0.0040012
92.0858
-0.0043131
91.7628
-0.0045993
91.4381
-0.00484686
91.1118
-0.00504563
90.7838
-0.00518816
90.4541
-0.00527043
90.1228
-0.00529209
89.7898
-0.00525516
89.455
-0.00516505
89.1184
-0.00502812
88.78
-0.00485224
88.4396
-0.00464603
88.0972
-0.0044168
87.7528
-0.0041722
87.4062
-0.00391759
87.0576
-0.00365715
86.707
-0.00339799
86.3544
-0.00316323
86.0002
-0.00299687
85.6443
-0.00288661
85.2871
-0.00283689
84.9287
-0.0028302
84.5693
-0.00286008
84.2092
-0.0029154
83.849
-0.00303293
83.4888
-0.00312277
83.1291
-0.00319756
82.7705
-0.00326156
82.4135
-0.00328231
82.059
-0.00318855
81.7082
-0.00283041
81.3627
-0.00233088
81.0234
-0.00153307
80.6887
-0.000794997
80.3469
-0.0015144
79.9511
-0.00924674
79.5174
-0.0244315
79.1027
-0.0393988
78.7412
-0.0494727
78.4233
-0.0564308
78.1318
-0.0646277
77.8648
-0.076063
77.6238
-0.0916241
77.4125
-0.111549
77.2353
-0.13578
77.0962
-0.163987
76.998
-0.195416
76.9419
-0.228738
76.9271
-0.261977
76.9505
-0.292581
77.0063
-0.317688
77.0876
-0.335036
77.1865
-0.343233
77.2965
-0.342378
77.4129
-0.333948
77.5336
-0.32021
77.6583
-0.303462
77.7877
-0.285132
77.9214
-0.265733
78.0572
-0.245157
78.1909
-0.22313
78.3156
-0.199801
78.4231
-0.175679
78.504
-0.151278
78.5493
-0.127584
78.5513
-0.105694
78.5056
-0.0864618
78.4101
-0.0700922
78.2658
-0.0565001
78.0758
-0.0453689
77.8449