/*--------------------------------*- C++ -*----------------------------------*\
| =========                 |                                                 |
| \\      /  F ield         | OpenFOAM: The Open Source CFD Toolbox           |
|  \\    /   O peration     | Version:  3.0.x                                 |
|   \\  /    A nd           | Web:      www.OpenFOAM.org                      |
|    \\/     M anipulation  |                                                 |
\*---------------------------------------------------------------------------*/
FoamFile
{
    version     2.0;
    format      ascii;
    class       volScalarField;
    location    "0.46";
    object      rho;
}
// * * * * * * * * * * * * * * * * * * * * * * * * * * * * * * * * * * * * * //

dimensions      [1 -3 0 0 0 0 0];

internalField   nonuniform List<scalar> 
6900
(
50.926
50.9261
50.9261
50.926
50.926
50.926
50.926
50.926
50.9259
50.9259
50.9258
50.9258
50.9257
50.9257
50.9257
50.9256
50.9256
50.9256
50.9256
50.9256
50.9256
50.9257
50.9257
50.9258
50.9258
50.9259
50.926
50.9261
50.9262
50.9263
50.9264
50.9266
50.9267
50.9268
50.927
50.9273
50.9275
50.9278
50.9281
50.9283
50.9284
50.9285
50.9286
50.9287
50.9288
50.9289
50.9291
50.9293
50.9296
50.9298
50.9302
50.9305
50.9309
50.9312
50.9315
50.9318
50.9321
50.9324
50.9327
50.9331
50.9336
50.9341
50.9346
50.9352
50.9359
50.9365
50.9372
50.9378
50.9384
50.9391
50.9397
50.9404
50.941
50.9417
50.9423
50.943
50.9436
50.9443
50.945
50.9457
50.9464
50.9471
50.9478
50.9486
50.9494
50.9502
50.9511
50.952
50.9529
50.9539
50.955
50.9561
50.9572
50.9585
50.9597
50.9611
50.9625
50.9639
50.9655
50.9671
50.9687
50.9704
50.9722
50.974
50.9759
50.9778
50.9797
50.9817
50.9837
50.9858
50.9878
50.99
50.9921
50.9943
50.9964
50.9987
51.0009
51.0032
51.0055
51.0079
51.0103
51.0128
51.0153
51.0179
51.0206
51.0233
51.0261
51.0289
51.0319
51.0349
51.038
51.0412
51.0445
51.0479
51.0513
51.0549
51.0585
51.0622
51.066
51.0698
51.0737
51.0777
51.0817
51.0858
51.0899
51.094
51.0982
51.1024
51.1067
51.1109
51.1152
51.1196
51.124
51.1284
51.1329
51.1374
51.142
51.1466
51.1513
51.1561
51.1609
51.1658
51.1708
51.1759
51.181
51.1863
51.1916
51.197
51.2026
51.2082
51.214
51.2199
51.2258
51.2319
51.2381
51.2443
51.2506
51.257
51.2635
51.27
51.2766
51.2832
51.2899
51.2965
51.3032
51.31
51.3167
51.3235
51.3304
51.3372
51.3442
51.3511
51.3583
51.3651
51.3726
51.3794
51.3872
51.394
51.4022
51.4076
50.9263
50.9263
50.9263
50.9263
50.9262
50.9262
50.9262
50.9262
50.9261
50.9261
50.926
50.926
50.926
50.9259
50.9259
50.9258
50.9258
50.9258
50.9258
50.9258
50.9258
50.9259
50.9259
50.926
50.926
50.9261
50.9262
50.9263
50.9264
50.9265
50.9266
50.9268
50.9269
50.927
50.9272
50.9274
50.9277
50.928
50.9282
50.9284
50.9286
50.9287
50.9288
50.9289
50.929
50.9291
50.9293
50.9295
50.9297
50.93
50.9303
50.9307
50.931
50.9314
50.9317
50.932
50.9323
50.9326
50.9329
50.9333
50.9337
50.9342
50.9348
50.9354
50.936
50.9367
50.9373
50.9379
50.9386
50.9392
50.9399
50.9405
50.9411
50.9418
50.9424
50.9431
50.9438
50.9444
50.9451
50.9458
50.9465
50.9472
50.948
50.9488
50.9495
50.9504
50.9512
50.9521
50.9531
50.9541
50.9551
50.9562
50.9574
50.9586
50.9599
50.9612
50.9626
50.9641
50.9656
50.9672
50.9689
50.9706
50.9723
50.9742
50.976
50.9779
50.9799
50.9818
50.9839
50.9859
50.988
50.9901
50.9922
50.9944
50.9966
50.9988
51.0011
51.0034
51.0057
51.0081
51.0105
51.0129
51.0155
51.018
51.0207
51.0234
51.0262
51.0291
51.032
51.035
51.0381
51.0413
51.0446
51.048
51.0515
51.055
51.0586
51.0624
51.0661
51.07
51.0739
51.0778
51.0819
51.0859
51.09
51.0942
51.0983
51.1025
51.1068
51.1111
51.1154
51.1197
51.1241
51.1286
51.133
51.1376
51.1421
51.1468
51.1515
51.1562
51.1611
51.166
51.1709
51.176
51.1812
51.1864
51.1917
51.1972
51.2027
51.2084
51.2141
51.22
51.226
51.232
51.2382
51.2444
51.2508
51.2572
51.2636
51.2702
51.2767
51.2834
51.29
51.2967
51.3034
51.3101
51.3169
51.3237
51.3305
51.3373
51.3444
51.3512
51.3584
51.3653
51.3727
51.3796
51.3873
51.3941
51.4023
51.4077
50.9263
50.9263
50.9263
50.9263
50.9262
50.9262
50.9262
50.9262
50.9261
50.9261
50.926
50.926
50.9259
50.9259
50.9259
50.9258
50.9258
50.9258
50.9258
50.9258
50.9258
50.9259
50.9259
50.926
50.926
50.9261
50.9262
50.9263
50.9264
50.9265
50.9266
50.9268
50.9269
50.927
50.9272
50.9274
50.9277
50.928
50.9282
50.9284
50.9286
50.9287
50.9288
50.9289
50.929
50.9291
50.9293
50.9295
50.9297
50.93
50.9303
50.9307
50.931
50.9314
50.9317
50.932
50.9323
50.9326
50.9329
50.9333
50.9337
50.9342
50.9348
50.9354
50.936
50.9367
50.9373
50.9379
50.9386
50.9392
50.9399
50.9405
50.9411
50.9418
50.9424
50.9431
50.9438
50.9444
50.9451
50.9458
50.9465
50.9472
50.948
50.9488
50.9495
50.9504
50.9512
50.9521
50.9531
50.9541
50.9551
50.9562
50.9574
50.9586
50.9599
50.9612
50.9626
50.9641
50.9656
50.9672
50.9689
50.9706
50.9723
50.9742
50.976
50.9779
50.9799
50.9818
50.9839
50.9859
50.988
50.9901
50.9922
50.9944
50.9966
50.9988
51.0011
51.0034
51.0057
51.0081
51.0105
51.0129
51.0155
51.018
51.0207
51.0234
51.0262
51.0291
51.032
51.035
51.0381
51.0413
51.0446
51.048
51.0515
51.055
51.0586
51.0624
51.0661
51.07
51.0739
51.0778
51.0819
51.0859
51.09
51.0942
51.0983
51.1025
51.1068
51.1111
51.1154
51.1197
51.1241
51.1286
51.133
51.1376
51.1421
51.1468
51.1515
51.1562
51.1611
51.166
51.1709
51.176
51.1812
51.1864
51.1917
51.1972
51.2027
51.2084
51.2141
51.22
51.226
51.232
51.2382
51.2444
51.2508
51.2572
51.2636
51.2702
51.2767
51.2834
51.29
51.2967
51.3034
51.3101
51.3169
51.3237
51.3305
51.3374
51.3443
51.3512
51.3584
51.3654
51.3726
51.3798
51.387
51.3945
51.4019
51.409
50.9263
50.9263
50.9263
50.9263
50.9262
50.9262
50.9262
50.9262
50.9261
50.9261
50.926
50.926
50.926
50.9259
50.9259
50.9258
50.9258
50.9258
50.9258
50.9258
50.9258
50.9259
50.9259
50.926
50.926
50.9261
50.9262
50.9263
50.9264
50.9265
50.9266
50.9268
50.9269
50.927
50.9272
50.9274
50.9277
50.928
50.9282
50.9284
50.9286
50.9287
50.9288
50.9289
50.929
50.9291
50.9293
50.9295
50.9297
50.93
50.9303
50.9307
50.931
50.9314
50.9317
50.932
50.9323
50.9326
50.9329
50.9333
50.9337
50.9342
50.9348
50.9354
50.936
50.9367
50.9373
50.9379
50.9386
50.9392
50.9399
50.9405
50.9411
50.9418
50.9424
50.9431
50.9438
50.9444
50.9451
50.9458
50.9465
50.9472
50.948
50.9488
50.9495
50.9504
50.9512
50.9521
50.9531
50.9541
50.9551
50.9562
50.9574
50.9586
50.9599
50.9612
50.9626
50.9641
50.9656
50.9672
50.9689
50.9706
50.9723
50.9742
50.976
50.9779
50.9799
50.9818
50.9839
50.9859
50.988
50.9901
50.9922
50.9944
50.9966
50.9988
51.0011
51.0034
51.0057
51.0081
51.0105
51.0129
51.0155
51.018
51.0207
51.0234
51.0262
51.0291
51.032
51.035
51.0381
51.0413
51.0446
51.048
51.0515
51.055
51.0586
51.0624
51.0661
51.07
51.0739
51.0778
51.0819
51.0859
51.09
51.0942
51.0983
51.1025
51.1068
51.1111
51.1154
51.1197
51.1241
51.1286
51.133
51.1376
51.1421
51.1468
51.1515
51.1562
51.1611
51.166
51.1709
51.176
51.1812
51.1864
51.1917
51.1972
51.2027
51.2084
51.2141
51.22
51.226
51.232
51.2382
51.2444
51.2508
51.2572
51.2636
51.2702
51.2767
51.2834
51.29
51.2967
51.3034
51.3101
51.3169
51.3237
51.3305
51.3374
51.3442
51.3514
51.3582
51.3655
51.3724
51.38
51.3868
51.3947
51.4006
51.4122
50.926
50.9261
50.9261
50.926
50.926
50.926
50.926
50.926
50.9259
50.9259
50.9258
50.9258
50.9257
50.9257
50.9257
50.9256
50.9256
50.9256
50.9256
50.9256
50.9256
50.9257
50.9257
50.9258
50.9258
50.9259
50.926
50.9261
50.9262
50.9263
50.9264
50.9266
50.9267
50.9268
50.927
50.9273
50.9275
50.9278
50.9281
50.9283
50.9284
50.9285
50.9286
50.9287
50.9288
50.9289
50.9291
50.9293
50.9296
50.9298
50.9302
50.9305
50.9309
50.9312
50.9315
50.9318
50.9321
50.9324
50.9327
50.9331
50.9336
50.9341
50.9346
50.9352
50.9359
50.9365
50.9372
50.9378
50.9384
50.9391
50.9397
50.9404
50.941
50.9417
50.9423
50.943
50.9436
50.9443
50.945
50.9457
50.9464
50.9471
50.9478
50.9486
50.9494
50.9502
50.9511
50.952
50.9529
50.9539
50.955
50.9561
50.9572
50.9585
50.9597
50.9611
50.9625
50.9639
50.9655
50.9671
50.9687
50.9704
50.9722
50.974
50.9759
50.9778
50.9797
50.9817
50.9837
50.9858
50.9878
50.99
50.9921
50.9943
50.9964
50.9987
51.0009
51.0032
51.0055
51.0079
51.0103
51.0128
51.0153
51.0179
51.0206
51.0233
51.0261
51.0289
51.0319
51.0349
51.038
51.0412
51.0445
51.0479
51.0513
51.0549
51.0585
51.0622
51.066
51.0698
51.0737
51.0777
51.0817
51.0858
51.0899
51.094
51.0982
51.1024
51.1067
51.1109
51.1152
51.1196
51.124
51.1284
51.1329
51.1374
51.142
51.1466
51.1513
51.1561
51.1609
51.1658
51.1708
51.1759
51.181
51.1863
51.1916
51.197
51.2026
51.2082
51.214
51.2199
51.2258
51.2319
51.2381
51.2443
51.2506
51.257
51.2635
51.27
51.2766
51.2832
51.2899
51.2965
51.3032
51.31
51.3167
51.3235
51.3303
51.3373
51.3441
51.3512
51.358
51.3654
51.3723
51.3799
51.3867
51.3946
51.4
51.4164
51.4248
51.4313
51.4332
51.4334
51.4337
51.4345
51.4363
51.4375
51.4358
51.4312
51.4267
51.4239
51.4214
51.4218
51.4294
51.4413
51.449
51.446
51.434
51.4159
51.4221
51.4263
51.4277
51.428
51.4284
51.4292
51.4311
51.4322
51.4303
51.4251
51.4207
51.4182
51.4159
51.4166
51.4248
51.437
51.4426
51.4371
51.4213
51.403
51.4144
51.4158
51.4164
51.4163
51.4155
51.4142
51.412
51.4095
51.4064
51.4033
51.3992
51.3942
51.3882
51.3815
51.3738
51.3653
51.3578
51.3515
51.3464
51.3405
51.4003
51.3996
51.4014
51.4034
51.4033
51.4012
51.3988
51.3952
51.3915
51.3873
51.3839
51.3795
51.3756
51.3726
51.3691
51.3661
51.3632
51.3609
51.3589
51.3582
51.3926
51.3851
51.3829
51.3834
51.3826
51.3798
51.3762
51.3717
51.3669
51.3618
51.3571
51.3519
51.347
51.3426
51.3384
51.3346
51.331
51.3279
51.3258
51.3251
51.3585
51.3618
51.3791
51.3787
51.3794
51.3857
51.3932
51.3988
51.4044
51.4107
51.4174
51.4242
51.4309
51.4375
51.4443
51.4511
51.458
51.465
51.4721
51.4792
51.4863
51.4934
51.5006
51.5079
51.5153
51.5227
51.5301
51.5376
51.545
51.5525
51.5602
51.5679
51.5756
51.5834
51.5912
51.5991
51.6071
51.615
51.6231
51.6311
51.6392
51.6473
51.6554
51.6636
51.6717
51.6799
51.6881
51.6963
51.7046
51.7128
51.7211
51.7295
51.7378
51.7462
51.7547
51.7631
51.7716
51.7801
51.7887
51.7972
51.8059
51.8145
51.8231
51.8318
51.8405
51.8493
51.8581
51.8669
51.8757
51.8846
51.8935
51.9024
51.9113
51.9203
51.9293
51.9385
51.9477
51.9569
51.9661
51.9754
51.985
51.9946
52.0036
52.0122
52.0213
52.0308
52.0404
52.05
52.0597
52.0694
52.079
52.0887
52.0984
52.1082
52.1181
52.1283
52.1384
52.148
52.1572
52.1666
52.1768
52.1878
52.1982
52.2064
52.2117
52.2174
52.2253
52.2356
52.2475
52.2608
52.2752
52.2881
52.3
52.3113
52.3213
52.3303
52.3396
52.3489
52.3584
52.3679
52.3775
52.3872
52.3968
52.4065
52.4163
52.426
52.4358
52.4456
52.4554
52.4653
52.4751
52.485
52.4948
52.5047
52.5146
52.5245
52.5344
52.5443
52.5542
52.5641
52.5741
52.584
52.5939
52.6038
52.6137
52.6236
52.6335
52.6434
52.6533
52.6632
52.673
52.6828
52.6926
52.7024
52.7122
52.722
52.7317
52.7414
52.7511
52.7608
52.7704
52.7801
52.7897
52.7993
52.8088
52.8184
52.8279
52.8374
52.8469
52.8563
52.8658
52.8752
52.8846
52.894
52.9033
52.9127
52.922
52.9314
52.9406
52.95
52.9591
52.9685
52.9775
52.9869
52.9959
53.0053
53.0141
53.0236
53.0323
53.0418
53.0504
53.0599
53.0683
53.0779
53.0862
53.0958
53.104
53.1135
53.122
53.1302
51.3547
51.3617
51.3783
51.3777
51.3785
51.3844
51.3913
51.3971
51.403
51.4094
51.416
51.4228
51.4296
51.4362
51.443
51.4498
51.4567
51.4638
51.4708
51.478
51.4851
51.4922
51.4994
51.5067
51.5141
51.5214
51.5289
51.5364
51.5438
51.5514
51.559
51.5667
51.5745
51.5823
51.5902
51.5981
51.606
51.614
51.622
51.6301
51.6381
51.6462
51.6543
51.6625
51.6706
51.6788
51.687
51.6952
51.7035
51.7118
51.7201
51.7285
51.7369
51.7453
51.7537
51.7622
51.7707
51.7792
51.7878
51.7963
51.8049
51.8136
51.8222
51.8309
51.8396
51.8483
51.8571
51.8659
51.8747
51.8835
51.8923
51.9012
51.9102
51.9192
51.9282
51.9373
51.9464
51.9553
51.9642
51.9732
51.9826
51.9924
52.0017
52.0107
52.0199
52.0295
52.0391
52.0487
52.0582
52.0677
52.0773
52.087
52.0968
52.1068
52.1167
52.1263
52.1355
52.1449
52.1551
52.166
52.1764
52.185
52.1916
52.1979
52.2051
52.2141
52.2251
52.2372
52.2508
52.2649
52.2776
52.2895
52.3009
52.3112
52.3204
52.3298
52.3392
52.3487
52.3583
52.3679
52.3775
52.3872
52.3969
52.4066
52.4164
52.4262
52.4359
52.4457
52.4556
52.4654
52.4752
52.4851
52.495
52.5048
52.5147
52.5246
52.5345
52.5444
52.5544
52.5643
52.5742
52.5841
52.594
52.604
52.6139
52.6238
52.6337
52.6436
52.6534
52.6633
52.6731
52.683
52.6928
52.7026
52.7124
52.7221
52.7318
52.7416
52.7513
52.7609
52.7706
52.7802
52.7898
52.7994
52.809
52.8185
52.828
52.8375
52.847
52.8565
52.8659
52.8753
52.8847
52.8941
52.9035
52.9128
52.9221
52.9315
52.9407
52.9501
52.9592
52.9686
52.9776
52.987
52.996
53.0054
53.0143
53.0237
53.0324
53.0419
53.0505
53.06
53.0685
53.078
53.0864
53.0959
53.1042
53.1136
53.122
53.1309
51.3227
51.3376
51.3484
51.3546
51.3599
51.3657
51.3718
51.3781
51.3847
51.3913
51.398
51.4047
51.4115
51.4183
51.4252
51.4322
51.4392
51.4462
51.4532
51.4603
51.4675
51.4747
51.482
51.4893
51.4968
51.5042
51.5117
51.5193
51.5269
51.5345
51.5421
51.5498
51.5576
51.5653
51.5732
51.5811
51.5891
51.5972
51.6053
51.6135
51.6216
51.6299
51.6381
51.6464
51.6546
51.6629
51.6712
51.6795
51.6877
51.696
51.7043
51.7125
51.7208
51.7292
51.7376
51.746
51.7544
51.763
51.7715
51.78
51.7886
51.7971
51.8057
51.8143
51.8229
51.8316
51.8402
51.8488
51.8574
51.866
51.8747
51.8834
51.8922
51.9009
51.9097
51.9187
51.9281
51.9381
51.9487
51.9599
51.9718
51.9843
51.9959
52.0072
52.0183
52.0292
52.0395
52.0495
52.0594
52.0691
52.0788
52.0885
52.0982
52.1079
52.1177
52.1276
52.1376
52.1476
52.1577
52.1679
52.178
52.1882
52.1985
52.2088
52.219
52.2293
52.2395
52.2497
52.2598
52.2698
52.2797
52.2895
52.2993
52.309
52.3188
52.3285
52.3383
52.348
52.3577
52.3675
52.3772
52.387
52.3968
52.4065
52.4163
52.4261
52.4359
52.4457
52.4555
52.4654
52.4752
52.4851
52.495
52.5048
52.5147
52.5246
52.5345
52.5444
52.5544
52.5643
52.5742
52.5841
52.594
52.604
52.6139
52.6238
52.6337
52.6436
52.6534
52.6633
52.6731
52.683
52.6928
52.7026
52.7124
52.7221
52.7318
52.7416
52.7513
52.7609
52.7706
52.7802
52.7898
52.7994
52.809
52.8185
52.828
52.8375
52.847
52.8565
52.8659
52.8753
52.8847
52.8941
52.9035
52.9128
52.9222
52.9315
52.9408
52.95
52.9593
52.9685
52.9778
52.9869
52.9961
53.0053
53.0144
53.0235
53.0326
53.0417
53.0508
53.0596
53.0689
53.0776
53.0867
53.0956
53.1045
53.1133
53.1222
53.131
51.3562
51.3624
51.3674
51.3727
51.378
51.3835
51.3897
51.3961
51.4026
51.4091
51.4157
51.4224
51.4292
51.436
51.443
51.4499
51.4569
51.464
51.4711
51.4782
51.4854
51.4927
51.4999
51.5073
51.5146
51.522
51.5294
51.5369
51.5445
51.5521
51.5597
51.5674
51.5751
51.5829
51.5907
51.5986
51.6065
51.6145
51.6225
51.6305
51.6386
51.6467
51.6548
51.663
51.6712
51.6794
51.6877
51.6959
51.7042
51.7124
51.7207
51.7291
51.7374
51.7458
51.7542
51.7626
51.771
51.7795
51.788
51.7966
51.8052
51.8138
51.8224
51.8311
51.8399
51.8486
51.8574
51.8663
51.8751
51.884
51.893
51.902
51.911
51.9201
51.9292
51.9384
51.9476
51.9568
51.9659
51.975
51.9841
51.9933
52.0026
52.0118
52.0211
52.0308
52.0404
52.0497
52.0589
52.0684
52.0781
52.0877
52.0969
52.1061
52.1155
52.1252
52.1348
52.144
52.1524
52.1604
52.1685
52.1772
52.1871
52.1982
52.2101
52.2228
52.2359
52.2483
52.2601
52.2716
52.282
52.2914
52.3008
52.3103
52.3198
52.3293
52.3388
52.3484
52.3581
52.3677
52.3774
52.3871
52.3969
52.4066
52.4164
52.4261
52.4359
52.4457
52.4556
52.4654
52.4752
52.4851
52.495
52.5048
52.5147
52.5246
52.5345
52.5444
52.5544
52.5643
52.5742
52.5841
52.594
52.604
52.6139
52.6238
52.6337
52.6435
52.6534
52.6633
52.6731
52.683
52.6928
52.7026
52.7124
52.7221
52.7318
52.7416
52.7513
52.7609
52.7706
52.7802
52.7898
52.7994
52.809
52.8185
52.828
52.8375
52.847
52.8565
52.8659
52.8753
52.8847
52.8941
52.9035
52.9128
52.9222
52.9315
52.9408
52.95
52.9593
52.9685
52.9778
52.9868
52.9962
53.0051
53.0146
53.0233
53.0328
53.0415
53.051
53.0595
53.069
53.0774
53.087
53.0953
53.1048
53.113
53.1224
53.1307
51.3457
51.3552
51.3607
51.3657
51.3709
51.3766
51.3825
51.3885
51.3948
51.4012
51.4077
51.4144
51.4211
51.4279
51.4347
51.4416
51.4486
51.4556
51.4627
51.4698
51.477
51.4842
51.4914
51.4987
51.5061
51.5134
51.5208
51.5283
51.5358
51.5434
51.551
51.5587
51.5665
51.5743
51.5821
51.59
51.5979
51.6059
51.614
51.6221
51.6302
51.6383
51.6464
51.6546
51.6628
51.671
51.6792
51.6874
51.6957
51.704
51.7123
51.7207
51.729
51.7374
51.7459
51.7543
51.7628
51.7713
51.7799
51.7885
51.7971
51.8058
51.8145
51.8232
51.832
51.8408
51.8496
51.8585
51.8674
51.8763
51.8852
51.8942
51.9032
51.9122
51.9212
51.9303
51.9395
51.9486
51.9577
51.967
51.9763
51.9856
51.9949
52.0042
52.0136
52.023
52.0326
52.0424
52.052
52.0613
52.0702
52.0795
52.0897
52.1005
52.1109
52.119
52.1245
52.1307
52.1389
52.1493
52.1611
52.1741
52.189
52.2026
52.215
52.2269
52.2385
52.2493
52.2595
52.2695
52.2795
52.2894
52.2992
52.309
52.3187
52.3284
52.3382
52.3479
52.3576
52.3674
52.3771
52.3869
52.3966
52.4064
52.4162
52.426
52.4358
52.4456
52.4554
52.4652
52.4751
52.485
52.4948
52.5047
52.5146
52.5245
52.5344
52.5443
52.5542
52.5641
52.5741
52.584
52.5939
52.6038
52.6137
52.6236
52.6335
52.6434
52.6533
52.6632
52.673
52.6828
52.6926
52.7024
52.7122
52.722
52.7317
52.7414
52.7511
52.7608
52.7704
52.7801
52.7897
52.7993
52.8088
52.8184
52.8279
52.8374
52.8469
52.8563
52.8658
52.8752
52.8846
52.894
52.9034
52.9127
52.922
52.9313
52.9407
52.9499
52.9592
52.9683
52.9777
52.9867
52.9961
53.005
53.0144
53.0232
53.0327
53.0413
53.0508
53.0594
53.0689
53.0774
53.0867
53.0954
53.1042
53.1135
53.1218
53.1307
53.135
53.1359
53.1373
53.1389
53.1404
53.1416
53.1428
53.1439
53.1449
53.1459
53.1469
53.1479
53.1489
53.1499
53.1508
53.1516
53.1524
53.1533
53.1544
53.1558
53.1366
53.1384
53.1402
53.1419
53.1434
53.1447
53.1459
53.1471
53.1482
53.1493
53.1504
53.1515
53.1526
53.1536
53.1545
53.1554
53.1562
53.1572
53.1583
53.1596
53.1364
53.1384
53.1404
53.1422
53.1439
53.1455
53.147
53.1484
53.1498
53.1508
53.1515
53.1523
53.1528
53.1526
53.1526
53.1534
53.1542
53.1549
53.1549
53.1554
53.1369
53.1395
53.1418
53.144
53.1462
53.1485
53.1504
53.1516
53.1526
53.1541
53.1552
53.157
53.1606
53.1663
53.1709
53.1726
53.1695
53.1644
53.1636
53.1636
53.1373
53.1403
53.1427
53.1448
53.1471
53.1492
53.1511
53.1525
53.1534
53.1543
53.1553
53.1571
53.1606
53.1662
53.1713
53.1735
53.1715
53.1676
53.1661
53.1647
53.1628
53.1717
53.179
53.186
53.1929
53.1998
53.2068
53.2139
53.2211
53.2281
53.235
53.2421
53.2494
53.2565
53.2634
53.2704
53.2777
53.2851
53.2923
53.2992
53.3062
53.3136
53.321
53.3284
53.3356
53.3427
53.3499
53.3572
53.3645
53.3718
53.379
53.3862
53.3934
53.4005
53.4076
53.4147
53.4218
53.4288
53.4358
53.4427
53.4496
53.4565
53.4633
53.4701
53.4768
53.4835
53.49
53.4966
53.5031
53.5095
53.5159
53.5223
53.5286
53.5348
53.5411
53.5472
53.5534
53.5595
53.5656
53.5716
53.5776
53.5836
53.5895
53.5953
53.6011
53.6068
53.6125
53.6182
53.6238
53.6293
53.6348
53.6403
53.6457
53.6511
53.6565
53.6617
53.6671
53.6724
53.6776
53.6826
53.6876
53.6931
53.6985
53.7031
53.7069
53.7114
53.7171
53.7231
53.7285
53.73
53.7273
53.7289
53.7342
53.741
53.7513
53.7614
53.7695
53.7763
53.7821
53.7875
53.1629
53.1715
53.1791
53.186
53.1927
53.1998
53.2073
53.215
53.2227
53.2299
53.2372
53.2448
53.2525
53.26
53.2673
53.2748
53.2825
53.2902
53.2977
53.305
53.3124
53.32
53.3277
53.3352
53.3426
53.3499
53.3573
53.3647
53.3722
53.3796
53.3869
53.3942
53.4014
53.4086
53.4158
53.4229
53.43
53.4371
53.4441
53.451
53.4579
53.4648
53.4716
53.4784
53.485
53.4917
53.4983
53.5048
53.5113
53.5178
53.5242
53.5305
53.5368
53.5431
53.5493
53.5554
53.5616
53.5676
53.5736
53.5796
53.5856
53.5914
53.5973
53.6032
53.6089
53.6147
53.6204
53.6261
53.6317
53.6373
53.6427
53.6481
53.6536
53.659
53.6642
53.6695
53.675
53.6802
53.6852
53.6902
53.6955
53.7007
53.7055
53.7101
53.7151
53.7201
53.7247
53.7289
53.7333
53.7376
53.7418
53.7458
53.7489
53.7509
53.7534
53.7578
53.7634
53.7695
53.7774
53.7852
53.1526
53.161
53.1674
53.1734
53.1795
53.1855
53.1916
53.1986
53.2057
53.2125
53.2196
53.2272
53.2349
53.2423
53.2495
53.2573
53.2653
53.273
53.2807
53.2878
53.2956
53.3036
53.3114
53.3191
53.3264
53.3337
53.3413
53.3489
53.3564
53.3637
53.371
53.3782
53.3853
53.3924
53.3995
53.4066
53.4136
53.4206
53.4276
53.4346
53.4415
53.4483
53.4551
53.4618
53.4684
53.4751
53.4816
53.4881
53.4946
53.501
53.5074
53.5137
53.52
53.5263
53.5325
53.5386
53.5446
53.5505
53.5565
53.5624
53.5682
53.574
53.5796
53.5853
53.5909
53.5964
53.6017
53.6069
53.6122
53.6176
53.6239
53.6308
53.638
53.646
53.6543
53.6621
53.6695
53.6766
53.6833
53.6894
53.6949
53.7002
53.7054
53.7103
53.7153
53.7201
53.7251
53.7301
53.7351
53.74
53.7453
53.75
53.7553
53.7601
53.7649
53.77
53.7748
53.7796
53.7845
53.7893
53.1629
53.1777
53.1836
53.1866
53.1939
53.2025
53.2107
53.2161
53.2234
53.2325
53.2409
53.2464
53.2535
53.2618
53.2719
53.2784
53.2842
53.2919
53.2992
53.31
53.3168
53.3219
53.3292
53.3369
53.3449
53.3538
53.36
53.366
53.3732
53.3806
53.3878
53.395
53.4022
53.4093
53.4163
53.4234
53.4303
53.4373
53.4442
53.451
53.4578
53.4646
53.4713
53.478
53.4847
53.4913
53.4978
53.5043
53.5108
53.5172
53.5236
53.5299
53.5362
53.5424
53.5487
53.5549
53.561
53.5671
53.5732
53.5792
53.5852
53.5911
53.597
53.6028
53.6085
53.6142
53.6198
53.6255
53.6311
53.6369
53.6422
53.6473
53.6526
53.658
53.6633
53.6685
53.6738
53.679
53.6842
53.6892
53.6942
53.6991
53.7042
53.7093
53.7142
53.7191
53.7241
53.7294
53.7344
53.7387
53.7426
53.7472
53.7527
53.7583
53.7635
53.7666
53.7656
53.7654
53.7681
53.7729
53.1632
53.1795
53.1857
53.1876
53.1953
53.2069
53.2157
53.2192
53.2257
53.2364
53.2465
53.2507
53.2562
53.2653
53.2774
53.2829
53.2869
53.294
53.3027
53.315
53.3208
53.3245
53.3311
53.3389
53.3479
53.3571
53.3624
53.3677
53.3746
53.3819
53.389
53.3962
53.4033
53.4104
53.4174
53.4244
53.4314
53.4383
53.4452
53.452
53.4589
53.4656
53.4724
53.4791
53.4857
53.4923
53.4989
53.5054
53.5119
53.5183
53.5247
53.531
53.5373
53.5435
53.5497
53.5559
53.562
53.5681
53.5742
53.5802
53.5861
53.5921
53.5979
53.6038
53.6096
53.6153
53.6209
53.6266
53.6323
53.6383
53.6435
53.6485
53.6538
53.6592
53.6644
53.6697
53.6749
53.68
53.6852
53.6904
53.6955
53.7007
53.7057
53.7106
53.7157
53.7208
53.7258
53.7307
53.7357
53.7411
53.7463
53.7507
53.7544
53.7585
53.7637
53.7692
53.7744
53.7774
53.7745
53.7745
53.7891
53.7897
53.7906
53.7917
53.7929
53.7942
53.7954
53.7966
53.7978
53.7989
53.8
53.8011
53.8021
53.8031
53.804
53.8049
53.8057
53.8064
53.807
53.8077
53.7883
53.7893
53.7906
53.792
53.7934
53.7948
53.7962
53.7977
53.7991
53.8005
53.8017
53.8028
53.8038
53.8048
53.8056
53.8064
53.8069
53.8074
53.8079
53.8086
53.7921
53.7932
53.7943
53.7954
53.7964
53.7974
53.7984
53.7992
53.8
53.8008
53.8014
53.802
53.8026
53.8031
53.8032
53.8036
53.8036
53.8036
53.8033
53.8035
53.7754
53.777
53.7792
53.7818
53.7846
53.7875
53.7902
53.7927
53.7952
53.7975
53.7997
53.8017
53.8035
53.8054
53.8071
53.8088
53.8111
53.8134
53.814
53.813
53.776
53.7769
53.7778
53.7788
53.7804
53.7826
53.7856
53.7889
53.7919
53.7949
53.7978
53.8006
53.8029
53.8051
53.8072
53.8096
53.8129
53.8158
53.8174
53.817
53.8107
53.8151
53.818
53.8208
53.8238
53.8267
53.8291
53.8316
53.8346
53.8375
53.8398
53.8419
53.8446
53.8478
53.8508
53.8529
53.8541
53.8561
53.8592
53.8625
53.8656
53.8682
53.8698
53.8709
53.8731
53.8761
53.8791
53.8819
53.8847
53.8874
53.8901
53.8927
53.8953
53.8978
53.9004
53.9028
53.9053
53.9076
53.91
53.9122
53.9144
53.9166
53.9188
53.9209
53.9229
53.925
53.9269
53.9289
53.9307
53.9326
53.9344
53.9362
53.9382
53.9406
53.9422
53.9426
53.9427
53.9442
53.9464
53.9482
53.9492
53.9501
53.9512
53.9525
53.9538
53.9549
53.9559
53.9569
53.958
53.9591
53.96
53.9606
53.9617
53.963
53.9641
53.9645
53.9641
53.9652
53.9669
53.9684
53.9666
53.9579
53.9549
53.9564
53.962
53.9705
53.9761
53.9799
53.9829
53.9853
53.9871
53.9882
53.9889
53.9895
53.99
53.9904
53.9908
53.9912
53.9915
53.9918
53.9921
53.9923
53.9926
53.9928
53.9931
53.9933
53.9935
53.9937
53.9939
53.994
53.9942
53.9943
53.9945
53.9946
53.9947
53.9948
53.9949
53.995
53.9951
53.9952
53.9952
53.9953
53.9953
53.9954
53.9954
53.9954
53.9954
53.9954
53.9954
53.9954
53.9954
53.9954
53.9953
53.9953
53.9953
53.9952
53.9951
53.9951
53.995
53.9949
53.9948
53.9947
53.9946
53.9945
53.9944
53.9943
53.9942
53.9941
53.994
53.9939
53.9938
53.9936
53.9935
53.9934
53.9932
53.9931
53.993
53.9928
53.9927
53.9926
53.9924
53.9923
53.9921
53.992
53.9918
53.9917
53.9915
53.9913
53.9912
53.991
53.9908
53.9906
53.9904
53.9902
53.99
53.9897
53.9895
53.9892
53.989
53.9887
53.9885
53.9881
53.9879
53.9874
53.9873
53.9868
53.9867
53.986
53.986
53.9853
53.9852
53.9846
53.9845
53.9839
53.9835
53.9833
53.9825
53.9825
53.982
53.9815
53.8105
53.8132
53.816
53.819
53.8216
53.8239
53.8265
53.8299
53.8332
53.8359
53.8384
53.8415
53.845
53.8487
53.8515
53.8538
53.8561
53.859
53.8629
53.8666
53.8696
53.872
53.8743
53.8762
53.8789
53.8823
53.8854
53.8882
53.8911
53.8939
53.8967
53.8994
53.9022
53.9049
53.9076
53.9102
53.9128
53.9153
53.9177
53.9201
53.9224
53.9246
53.9267
53.9288
53.9309
53.9329
53.9348
53.9368
53.9387
53.9405
53.9423
53.9441
53.9463
53.9484
53.9495
53.9502
53.9504
53.9519
53.9543
53.956
53.9571
53.958
53.959
53.9604
53.9618
53.963
53.9639
53.9648
53.9659
53.967
53.9677
53.9684
53.9695
53.9705
53.9712
53.9715
53.9724
53.9734
53.9738
53.9741
53.9742
53.9738
53.9739
53.9732
53.9707
53.9697
53.9705
53.972
53.9753
53.981
53.9857
53.989
53.9909
53.9915
53.9915
53.9915
53.9916
53.9918
53.9919
53.9921
53.9924
53.9926
53.9928
53.993
53.9932
53.9934
53.9936
53.9938
53.994
53.9941
53.9943
53.9944
53.9946
53.9947
53.9948
53.9949
53.995
53.9951
53.9952
53.9953
53.9954
53.9954
53.9955
53.9955
53.9955
53.9955
53.9955
53.9956
53.9955
53.9955
53.9955
53.9955
53.9955
53.9954
53.9954
53.9953
53.9952
53.9952
53.9951
53.995
53.9949
53.9948
53.9947
53.9946
53.9945
53.9944
53.9943
53.9942
53.9941
53.994
53.9939
53.9937
53.9936
53.9935
53.9933
53.9932
53.9931
53.993
53.9928
53.9927
53.9925
53.9924
53.9922
53.9921
53.9919
53.9918
53.9916
53.9914
53.9913
53.9911
53.9909
53.9907
53.9905
53.9903
53.9901
53.9898
53.9896
53.9893
53.9891
53.9888
53.9886
53.9882
53.988
53.9875
53.9874
53.9869
53.9867
53.9861
53.986
53.9854
53.9853
53.9847
53.9846
53.9839
53.9838
53.9831
53.983
53.9824
53.9821
53.9817
53.803
53.8059
53.806
53.8071
53.8089
53.8104
53.8116
53.8135
53.8162
53.8188
53.8209
53.8234
53.8271
53.8304
53.834
53.8368
53.8379
53.8413
53.8459
53.8493
53.8528
53.8563
53.8572
53.8587
53.8629
53.8668
53.8703
53.8736
53.8766
53.8794
53.8821
53.8847
53.8873
53.8898
53.8923
53.8948
53.8971
53.8995
53.9017
53.904
53.9062
53.9082
53.9103
53.9123
53.9143
53.9163
53.9181
53.92
53.9217
53.9234
53.9251
53.9267
53.9281
53.9292
53.9307
53.9292
53.931
53.9334
53.9349
53.9362
53.9365
53.9381
53.9412
53.9442
53.9478
53.9521
53.9559
53.9592
53.9622
53.9648
53.9667
53.9681
53.9692
53.9701
53.9709
53.9717
53.9725
53.9734
53.9743
53.9754
53.9764
53.9775
53.9786
53.9797
53.9808
53.9818
53.9829
53.9839
53.985
53.9861
53.9872
53.9882
53.989
53.9896
53.9901
53.9905
53.9909
53.9912
53.9916
53.9919
53.9922
53.9924
53.9927
53.9929
53.9932
53.9934
53.9936
53.9938
53.994
53.9941
53.9943
53.9944
53.9946
53.9947
53.9948
53.9949
53.995
53.9951
53.9952
53.9953
53.9954
53.9954
53.9955
53.9955
53.9955
53.9955
53.9955
53.9956
53.9955
53.9955
53.9955
53.9955
53.9955
53.9954
53.9954
53.9953
53.9952
53.9952
53.9951
53.995
53.9949
53.9948
53.9947
53.9946
53.9945
53.9944
53.9943
53.9942
53.9941
53.994
53.9939
53.9937
53.9936
53.9935
53.9933
53.9932
53.9931
53.993
53.9928
53.9927
53.9925
53.9924
53.9922
53.9921
53.9919
53.9918
53.9916
53.9914
53.9913
53.9911
53.9909
53.9907
53.9905
53.9903
53.9901
53.9898
53.9896
53.9893
53.9891
53.9888
53.9886
53.9882
53.988
53.9876
53.9873
53.987
53.9866
53.9863
53.986
53.9855
53.9853
53.9847
53.9845
53.9841
53.9836
53.9832
53.9829
53.9824
53.9821
53.9816
53.8084
53.8136
53.8169
53.8201
53.8213
53.8249
53.8283
53.8315
53.8328
53.8369
53.8417
53.847
53.845
53.8486
53.8531
53.8552
53.8687
53.8674
53.8644
53.8676
53.8722
53.875
53.8877
53.8954
53.8864
53.8847
53.8879
53.8911
53.8938
53.8964
53.899
53.9015
53.904
53.9065
53.9089
53.9113
53.9137
53.916
53.9182
53.9204
53.9226
53.9248
53.9268
53.9289
53.9309
53.9328
53.9347
53.9366
53.9383
53.9402
53.9418
53.9433
53.9454
53.948
53.9511
53.9647
53.9599
53.9529
53.9538
53.9569
53.9615
53.9613
53.9588
53.9596
53.961
53.962
53.9629
53.9638
53.9648
53.9658
53.9667
53.9675
53.9682
53.969
53.9699
53.9709
53.9718
53.9727
53.974
53.9752
53.9758
53.9754
53.9759
53.977
53.9785
53.9797
53.9795
53.9745
53.9699
53.9691
53.9704
53.9753
53.983
53.9885
53.9914
53.9925
53.9925
53.9922
53.9922
53.9923
53.9925
53.9926
53.9928
53.993
53.9932
53.9934
53.9936
53.9938
53.994
53.9941
53.9943
53.9944
53.9946
53.9947
53.9948
53.9949
53.995
53.9951
53.9952
53.9953
53.9954
53.9954
53.9955
53.9955
53.9955
53.9955
53.9955
53.9956
53.9955
53.9955
53.9955
53.9955
53.9955
53.9954
53.9954
53.9953
53.9952
53.9952
53.9951
53.995
53.9949
53.9948
53.9947
53.9946
53.9945
53.9944
53.9943
53.9942
53.9941
53.994
53.9939
53.9937
53.9936
53.9935
53.9933
53.9932
53.9931
53.993
53.9928
53.9927
53.9925
53.9924
53.9922
53.9921
53.9919
53.9918
53.9916
53.9914
53.9913
53.9911
53.9909
53.9907
53.9905
53.9903
53.9901
53.9899
53.9896
53.9894
53.989
53.9889
53.9885
53.9883
53.9879
53.9877
53.9872
53.9871
53.9865
53.9864
53.9858
53.9857
53.985
53.9849
53.9843
53.9842
53.9835
53.9834
53.9828
53.9824
53.9823
53.9814
53.8091
53.8146
53.8212
53.8234
53.8232
53.8274
53.8354
53.8378
53.8366
53.8402
53.8491
53.8558
53.8511
53.8523
53.8566
53.8626
53.879
53.8763
53.869
53.8703
53.8748
53.8797
53.8969
53.9051
53.8933
53.8874
53.8898
53.8926
53.895
53.8975
53.9001
53.9026
53.9051
53.9076
53.91
53.9124
53.9148
53.9171
53.9193
53.9215
53.9237
53.9258
53.9278
53.9299
53.9318
53.9338
53.9357
53.9376
53.9393
53.9411
53.9429
53.9445
53.9464
53.9487
53.9527
53.9724
53.9667
53.9561
53.9555
53.9582
53.965
53.965
53.9611
53.9611
53.9621
53.9631
53.9641
53.965
53.9659
53.9668
53.9676
53.9686
53.9696
53.9705
53.9712
53.9721
53.9732
53.9742
53.975
53.9761
53.9774
53.9788
53.9798
53.9796
53.9794
53.9804
53.9817
53.9829
53.9823
53.9757
53.971
53.9713
53.9752
53.9842
53.99
53.9925
53.9931
53.9927
53.9924
53.9924
53.9925