/*--------------------------------*- C++ -*----------------------------------*\
| =========                 |                                                 |
| \\      /  F ield         | OpenFOAM: The Open Source CFD Toolbox           |
|  \\    /   O peration     | Version:  3.0.x                                 |
|   \\  /    A nd           | Web:      www.OpenFOAM.org                      |
|    \\/     M anipulation  |                                                 |
\*---------------------------------------------------------------------------*/
FoamFile
{
    version     2.0;
    format      ascii;
    class       volScalarField;
    location    "0.46";
    object      T;
}
// * * * * * * * * * * * * * * * * * * * * * * * * * * * * * * * * * * * * * //

dimensions      [0 0 0 1 0 0 0];

internalField   nonuniform List<scalar> 
6900
(
774.494
774.494
774.494
774.494
774.493
774.493
774.493
774.492
774.492
774.492
774.491
774.491
774.491
774.491
774.491
774.49
774.49
774.49
774.49
774.49
774.49
774.49
774.49
774.49
774.49
774.491
774.491
774.491
774.491
774.492
774.492
774.492
774.493
774.493
774.492
774.491
774.488
774.486
774.484
774.482
774.481
774.481
774.481
774.48
774.48
774.479
774.477
774.475
774.473
774.47
774.466
774.463
774.459
774.457
774.455
774.453
774.453
774.453
774.453
774.453
774.452
774.451
774.45
774.449
774.448
774.447
774.447
774.447
774.447
774.448
774.449
774.45
774.452
774.454
774.455
774.457
774.459
774.461
774.463
774.465
774.467
774.47
774.472
774.474
774.477
774.479
774.482
774.485
774.488
774.491
774.494
774.497
774.501
774.504
774.508
774.512
774.517
774.521
774.526
774.531
774.536
774.541
774.546
774.552
774.557
774.563
774.569
774.575
774.581
774.588
774.594
774.6
774.607
774.613
774.62
774.627
774.634
774.641
774.648
774.655
774.662
774.67
774.678
774.686
774.694
774.702
774.71
774.719
774.728
774.737
774.747
774.756
774.766
774.777
774.787
774.798
774.809
774.82
774.832
774.844
774.855
774.868
774.88
774.892
774.905
774.917
774.93
774.943
774.956
774.969
774.982
774.995
775.008
775.022
775.035
775.049
775.063
775.077
775.091
775.106
775.121
775.135
775.151
775.166
775.182
775.198
775.214
775.23
775.247
775.264
775.282
775.3
775.318
775.336
775.355
775.374
775.393
775.412
775.432
775.452
775.472
775.492
775.512
775.532
775.552
775.573
775.593
775.614
775.634
775.656
775.676
775.699
775.717
775.743
775.76
775.787
775.802
775.833
775.849
775.919
774.491
774.491
774.49
774.49
774.49
774.49
774.49
774.489
774.489
774.489
774.488
774.488
774.488
774.488
774.488
774.487
774.487
774.487
774.487
774.487
774.487
774.487
774.487
774.487
774.487
774.488
774.488
774.488
774.488
774.489
774.489
774.49
774.49
774.49
774.49
774.488
774.485
774.483
774.481
774.48
774.479
774.478
774.478
774.478
774.477
774.476
774.475
774.473
774.47
774.467
774.464
774.46
774.457
774.454
774.452
774.451
774.451
774.451
774.451
774.451
774.45
774.449
774.448
774.447
774.446
774.445
774.444
774.444
774.445
774.446
774.447
774.448
774.45
774.451
774.453
774.455
774.457
774.459
774.461
774.463
774.465
774.468
774.47
774.472
774.475
774.477
774.48
774.483
774.485
774.488
774.492
774.495
774.498
774.502
774.506
774.51
774.514
774.519
774.524
774.528
774.534
774.539
774.544
774.55
774.555
774.561
774.567
774.573
774.579
774.585
774.592
774.598
774.605
774.611
774.618
774.625
774.632
774.639
774.646
774.653
774.66
774.668
774.675
774.683
774.691
774.7
774.708
774.717
774.726
774.735
774.745
774.754
774.764
774.775
774.785
774.796
774.807
774.818
774.83
774.841
774.853
774.865
774.878
774.89
774.902
774.915
774.928
774.941
774.953
774.966
774.98
774.993
775.006
775.02
775.033
775.047
775.061
775.075
775.089
775.104
775.118
775.133
775.148
775.164
775.179
775.195
775.212
775.228
775.245
775.262
775.28
775.297
775.316
775.334
775.353
775.372
775.391
775.41
775.43
775.45
775.47
775.49
775.51
775.53
775.55
775.571
775.591
775.612
775.632
775.654
775.674
775.697
775.715
775.74
775.757
775.785
775.8
775.831
775.846
775.918
774.491
774.491
774.491
774.49
774.49
774.49
774.49
774.489
774.489
774.489
774.488
774.488
774.488
774.488
774.488
774.487
774.487
774.487
774.487
774.487
774.487
774.487
774.487
774.487
774.487
774.488
774.488
774.488
774.488
774.489
774.489
774.49
774.49
774.49
774.49
774.488
774.485
774.483
774.481
774.48
774.479
774.478
774.478
774.478
774.477
774.476
774.475
774.473
774.47
774.467
774.464
774.46
774.457
774.454
774.452
774.451
774.451
774.451
774.451
774.451
774.45
774.449
774.448
774.447
774.446
774.445
774.444
774.444
774.445
774.446
774.447
774.448
774.45
774.451
774.453
774.455
774.457
774.459
774.461
774.463
774.465
774.468
774.47
774.472
774.475
774.477
774.48
774.483
774.485
774.488
774.492
774.495
774.498
774.502
774.506
774.51
774.514
774.519
774.524
774.528
774.534
774.539
774.544
774.55
774.555
774.561
774.567
774.573
774.579
774.585
774.592
774.598
774.605
774.611
774.618
774.625
774.632
774.639
774.646
774.653
774.66
774.668
774.675
774.683
774.691
774.7
774.708
774.717
774.726
774.735
774.745
774.754
774.764
774.775
774.785
774.796
774.807
774.818
774.83
774.841
774.853
774.865
774.878
774.89
774.902
774.915
774.928
774.941
774.953
774.966
774.98
774.993
775.006
775.02
775.033
775.047
775.061
775.075
775.089
775.104
775.118
775.133
775.148
775.164
775.179
775.195
775.212
775.228
775.245
775.262
775.28
775.297
775.316
775.334
775.353
775.372
775.391
775.41
775.43
775.45
775.47
775.49
775.51
775.53
775.55
775.571
775.591
775.612
775.632
775.654
775.674
775.696
775.716
775.739
775.759
775.782
775.805
775.825
775.848
775.877
774.491
774.491
774.49
774.49
774.49
774.49
774.49
774.489
774.489
774.489
774.488
774.488
774.488
774.488
774.488
774.487
774.487
774.487
774.487
774.487
774.487
774.487
774.487
774.487
774.487
774.488
774.488
774.488
774.488
774.489
774.489
774.49
774.49
774.49
774.49
774.488
774.485
774.483
774.481
774.48
774.479
774.478
774.478
774.478
774.477
774.476
774.475
774.473
774.47
774.467
774.464
774.46
774.457
774.454
774.452
774.451
774.451
774.451
774.451
774.451
774.45
774.449
774.448
774.447
774.446
774.445
774.444
774.444
774.445
774.446
774.447
774.448
774.45
774.451
774.453
774.455
774.457
774.459
774.461
774.463
774.465
774.468
774.47
774.472
774.475
774.477
774.48
774.483
774.485
774.488
774.492
774.495
774.498
774.502
774.506
774.51
774.514
774.519
774.524
774.528
774.534
774.539
774.544
774.55
774.555
774.561
774.567
774.573
774.579
774.585
774.592
774.598
774.605
774.611
774.618
774.625
774.632
774.639
774.646
774.653
774.66
774.668
774.675
774.683
774.691
774.7
774.708
774.717
774.726
774.735
774.745
774.754
774.764
774.775
774.785
774.796
774.807
774.818
774.83
774.841
774.853
774.865
774.878
774.89
774.902
774.915
774.928
774.941
774.953
774.966
774.98
774.993
775.006
775.02
775.033
775.047
775.061
775.075
775.089
775.104
775.118
775.133
775.148
775.164
775.179
775.195
775.212
775.228
775.245
775.262
775.28
775.297
775.316
775.334
775.353
775.372
775.391
775.41
775.43
775.45
775.47
775.49
775.51
775.53
775.55
775.571
775.591
775.612
775.633
775.653
775.676
775.694
775.719
775.736
775.762
775.779
775.807
775.821
775.86
775.802
774.494
774.494
774.494
774.494
774.493
774.493
774.493
774.492
774.492
774.492
774.491
774.491
774.491
774.491
774.491
774.49
774.49
774.49
774.49
774.49
774.49
774.49
774.49
774.49
774.49
774.491
774.491
774.491
774.491
774.492
774.492
774.492
774.493
774.493
774.492
774.491
774.488
774.486
774.484
774.482
774.481
774.481
774.481
774.48
774.48
774.479
774.477
774.475
774.473
774.47
774.466
774.463
774.459
774.457
774.455
774.453
774.453
774.453
774.453
774.453
774.452
774.451
774.45
774.449
774.448
774.447
774.447
774.447
774.447
774.448
774.449
774.45
774.452
774.454
774.455
774.457
774.459
774.461
774.463
774.465
774.467
774.47
774.472
774.474
774.477
774.479
774.482
774.485
774.488
774.491
774.494
774.497
774.501
774.504
774.508
774.512
774.517
774.521
774.526
774.531
774.536
774.541
774.546
774.552
774.557
774.563
774.569
774.575
774.581
774.588
774.594
774.6
774.607
774.613
774.62
774.627
774.634
774.641
774.648
774.655
774.662
774.67
774.678
774.686
774.694
774.702
774.71
774.719
774.728
774.737
774.747
774.756
774.766
774.777
774.787
774.798
774.809
774.82
774.832
774.844
774.855
774.868
774.88
774.892
774.905
774.917
774.93
774.943
774.956
774.969
774.982
774.995
775.008
775.022
775.035
775.049
775.063
775.077
775.091
775.106
775.121
775.135
775.151
775.166
775.182
775.198
775.214
775.23
775.247
775.264
775.282
775.3
775.318
775.336
775.355
775.374
775.393
775.412
775.432
775.452
775.472
775.492
775.512
775.532
775.553
775.573
775.594
775.614
775.635
775.655
775.678
775.696
775.721
775.738
775.765
775.781
775.81
775.823
775.868
775.738
775.935
775.953
775.959
775.964
775.97
775.973
775.969
775.966
775.967
775.961
775.962
775.97
775.99
775.996
775.97
775.937
775.914
775.911
775.89
775.863
775.925
775.931
775.935
775.938
775.941
775.944
775.939
775.934
775.933
775.926
775.923
775.931
775.953
775.962
775.933
775.887
775.871
775.873
775.863
775.834
775.887
775.891
775.892
775.892
775.892
775.891
775.891
775.89
775.89
775.888
775.886
775.886
775.888
775.89
775.895
775.909
775.917
775.916
775.905
775.906
775.828
775.834
775.841
775.841
775.838
775.829
775.822
775.81
775.8
775.787
775.779
775.768
775.76
775.744
775.741
775.736
775.733
775.728
775.729
775.726
775.789
775.776
775.778
775.78
775.781
775.777
775.774
775.766
775.759
775.75
775.744
775.734
775.728
775.72
775.716
775.711
775.71
775.713
775.722
775.751
775.769
775.783
775.82
775.838
775.83
775.827
775.849
775.886
775.901
775.911
775.93
775.952
775.973
775.993
776.013
776.033
776.055
776.076
776.097
776.118
776.14
776.162
776.184
776.206
776.228
776.25
776.273
776.296
776.319
776.342
776.365
776.388
776.411
776.435
776.458
776.482
776.505
776.529
776.553
776.577
776.601
776.625
776.649
776.674
776.699
776.724
776.749
776.774
776.8
776.825
776.85
776.875
776.9
776.925
776.95
776.975
777
777.025
777.05
777.076
777.101
777.127
777.153
777.178
777.204
777.23
777.257
777.283
777.31
777.337
777.364
777.392
777.42
777.447
777.474
777.501
777.527
777.554
777.582
777.612
777.642
777.672
777.702
777.731
777.757
777.783
777.811
777.838
777.867
777.896
777.927
777.958
777.99
778.022
778.052
778.079
778.108
778.143
778.185
778.225
778.251
778.267
778.291
778.348
778.446
778.539
778.6
778.622
778.622
778.599
778.56
778.543
778.541
778.546
778.571
778.61
778.646
778.681
778.714
778.745
778.776
778.807
778.837
778.867
778.897
778.926
778.956
778.985
779.015
779.044
779.074
779.103
779.132
779.162
779.191
779.221
779.25
779.28
779.309
779.339
779.368
779.398
779.427
779.457
779.486
779.515
779.545
779.574
779.604
779.633
779.662
779.691
779.72
779.749
779.779
779.807
779.836
779.865
779.894
779.923
779.951
779.98
780.008
780.037
780.065
780.093
780.121
780.15
780.178
780.206
780.234
780.261
780.289
780.317
780.345
780.372
780.4
780.427
780.456
780.482
780.511
780.536
780.566
780.59
780.621
780.644
780.675
780.697
780.729
780.75
780.784
780.802
780.838
780.855
780.891
780.908
780.943
780.96
780.991
781.027
775.773
775.783
775.83
775.853
775.845
775.846
775.878
775.911
775.922
775.931
775.952
775.975
775.994
776.013
776.032
776.053
776.073
776.094
776.115
776.137
776.159
776.18
776.202
776.224
776.246
776.269
776.292
776.315
776.337
776.359
776.382
776.405
776.428
776.451
776.474
776.497
776.521
776.544
776.568
776.592
776.616
776.641
776.665
776.69
776.715
776.74
776.766
776.791
776.816
776.841
776.866
776.89
776.915
776.94
776.964
776.989
777.014
777.039
777.064
777.089
777.115
777.141
777.166
777.192
777.218
777.245
777.271
777.298
777.326
777.353
777.381
777.409
777.436
777.464
777.491
777.518
777.547
777.578
777.611
777.644
777.677
777.705
777.729
777.753
777.778
777.803
777.829
777.859
777.89
777.921
777.952
777.983
778.013
778.043
778.073
778.109
778.15
778.189
778.216
778.233
778.257
778.309
778.388
778.474
778.545
778.588
778.602
778.6
778.574
778.539
778.525
778.523
778.527
778.548
778.584
778.618
778.651
778.684
778.715
778.746
778.776
778.806
778.836
778.866
778.895
778.925
778.954
778.983
779.013
779.042
779.072
779.101
779.13
779.16
779.189
779.219
779.248
779.278
779.307
779.337
779.366
779.396
779.425
779.455
779.484
779.514
779.543
779.572
779.602
779.631
779.66
779.689
779.718
779.748
779.777
779.806
779.834
779.863
779.892
779.921
779.949
779.978
780.006
780.035
780.063
780.091
780.119
780.148
780.176
780.204
780.232
780.26
780.287
780.315
780.343
780.37
780.398
780.425
780.454
780.48
780.509
780.534
780.564
780.588
780.618
780.642
780.673
780.695
780.727
780.748
780.782
780.801
780.836
780.853
780.889
780.906
780.941
780.958
780.991
781.017
775.947
776.003
776.039
776.064
776.089
776.115
776.138
776.159
776.179
776.198
776.219
776.238
776.258
776.278
776.298
776.318
776.339
776.36
776.381
776.402
776.423
776.444
776.465
776.486
776.507
776.528
776.549
776.57
776.591
776.613
776.636
776.66
776.683
776.706
776.73
776.752
776.775
776.798
776.82
776.842
776.865
776.887
776.91
776.933
776.956
776.98
777.004
777.028
777.053
777.078
777.104
777.13
777.156
777.182
777.207
777.233
777.258
777.283
777.309
777.334
777.361
777.387
777.414
777.442
777.469
777.496
777.525
777.554
777.585
777.615
777.646
777.676
777.706
777.738
777.769
777.799
777.822
777.838
777.844
777.843
777.83
777.809
777.802
777.801
777.804
777.812
777.83
777.852
777.878
777.906
777.936
777.967
777.999
778.031
778.063
778.094
778.124
778.154
778.182
778.209
778.236
778.263
778.288
778.313
778.338
778.363
778.388
778.413
778.439
778.466
778.494
778.522
778.551
778.579
778.608
778.637
778.665
778.694
778.723
778.752
778.78
778.809
778.838
778.867
778.896
778.926
778.955
778.984
779.013
779.042
779.072
779.101
779.13
779.16
779.189
779.219
779.248
779.278
779.307
779.337
779.366
779.396
779.425
779.455
779.484
779.514
779.543
779.572
779.602
779.631
779.66
779.689
779.718
779.748
779.777
779.806
779.834
779.863
779.892
779.921
779.949
779.978
780.006
780.035
780.063
780.091
780.119
780.148
780.176
780.204
780.232
780.26
780.287
780.315
780.343
780.371
780.398
780.426
780.453
780.481
780.508
780.536
780.562
780.59
780.616
780.644
780.671
780.697
780.725
780.752
780.777
780.807
780.829
780.859
780.884
780.91
780.937
780.964
780.988
781.014
775.732
775.743
775.768
775.782
775.805
775.832
775.854
775.875
775.896
775.918
775.939
775.961
775.982
776.002
776.023
776.044
776.065
776.086
776.107
776.128
776.149
776.171
776.192
776.214
776.236
776.258
776.28
776.303
776.326
776.349
776.372
776.395
776.418
776.442
776.466
776.49
776.514
776.538
776.562
776.586
776.61
776.634
776.659
776.683
776.707
776.732
776.756
776.781
776.806
776.832
776.857
776.882
776.908
776.933
776.959
776.984
777.01
777.035
777.061
777.086
777.112
777.138
777.163
777.189
777.215
777.241
777.267
777.293
777.32
777.346
777.373
777.399
777.425
777.451
777.479
777.505
777.532
777.56
777.59
777.621
777.65
777.678
777.706
777.736
777.766
777.794
777.821
777.854
777.89
777.922
777.952
777.985
778.023
778.064
778.101
778.134
778.169
778.212
778.263
778.323
778.381
778.429
778.459
778.472
778.472
778.461
778.443
778.435
778.435
778.44
778.46
778.494
778.528
778.561
778.594
778.626
778.657
778.688
778.718
778.748
778.778
778.807
778.837
778.866
778.896
778.925
778.954
778.984
779.013
779.042
779.072
779.101
779.13
779.16
779.189
779.219
779.248
779.278
779.307
779.337
779.366
779.396
779.425
779.455
779.484
779.514
779.543
779.572
779.602
779.631
779.66
779.689
779.718
779.748
779.777
779.806
779.834
779.863
779.892
779.921
779.949
779.978
780.006
780.035
780.063
780.091
780.119
780.148
780.176
780.204
780.232
780.26
780.287
780.315
780.343
780.371
780.398
780.426
780.453
780.481
780.507
780.536
780.561
780.591
780.615
780.646
780.668
780.7
780.722
780.755
780.775
780.808
780.827
780.862
780.88
780.915
780.932
780.967
780.986
781.019
775.805
775.84
775.866
775.887
775.911
775.936
775.963
775.989
776.013
776.037
776.06
776.082
776.104
776.126
776.148
776.169
776.19
776.212
776.233
776.255
776.277
776.298
776.32
776.342
776.365
776.387
776.41
776.433
776.456
776.479
776.502
776.526
776.549
776.572
776.596
776.619
776.643
776.666
776.69
776.713
776.737
776.761
776.785
776.809
776.834
776.859
776.883
776.908
776.933
776.958
776.983
777.008
777.033
777.058
777.083
777.108
777.133
777.158
777.183
777.208
777.233
777.258
777.282
777.308
777.333
777.358
777.384
777.41
777.436
777.462
777.488
777.515
777.542
777.57
777.598
777.626
777.654
777.683
777.712
777.74
777.767
777.793
777.821
777.85
777.879
777.909
777.937
777.964
777.993
778.029
778.07
778.108
778.132
778.147
778.17
778.228
778.323
778.409
778.465
778.489
778.491
778.475
778.431
778.406
778.399
778.4
778.405
778.42
778.444
778.47
778.497
778.525
778.553
778.581
778.61
778.638
778.667
778.696
778.724
778.753
778.782
778.811
778.84
778.869
778.898
778.927
778.957
778.986
779.015
779.044
779.074
779.103
779.132
779.162
779.191
779.221
779.25
779.28
779.309
779.339
779.368
779.398
779.427
779.457
779.486
779.515
779.545
779.574
779.604
779.633
779.662
779.691
779.72
779.75
779.779
779.807
779.836
779.865
779.894
779.923
779.951
779.98
780.008
780.037
780.065
780.093
780.121
780.15
780.178
780.206
780.234
780.262
780.289
780.317
780.345
780.373
780.4
780.428
780.455
780.483
780.509
780.538
780.563
780.593
780.617
780.648
780.67
780.702
780.724
780.756
780.777
780.81
780.829
780.863
780.884
780.913
780.941
780.961
780.994
781.019
781.03
781.031
781.033
781.036
781.038
781.039
781.041
781.042
781.043
781.044
781.045
781.047
781.048
781.05
781.052
781.055
781.058
781.061
781.065
781.071
781.027
781.032
781.035
781.038
781.04
781.042
781.044
781.046
781.048
781.05
781.052
781.054
781.057
781.061
781.065
781.07
781.074
781.078
781.083
781.087
781.031
781.038
781.044
781.05
781.056
781.061
781.067
781.073
781.078
781.086
781.095
781.101
781.108
781.123
781.137
781.143
781.149
781.161
781.18
781.189
781.035
781.045
781.053
781.062
781.07
781.076
781.084
781.09
781.095
781.104
781.122
781.137
781.142
781.136
781.129
781.127
781.14
781.145
781.149
781.165
781.037
781.047
781.056
781.064
781.072
781.081
781.089
781.095
781.104
781.119
781.138
781.152
781.156
781.153
781.145
781.142
781.148
781.151
781.157
781.187
781.089
781.126
781.157
781.187
781.225
781.263
781.296
781.327
781.36
781.396
781.43
781.46
781.49
781.523
781.556
781.584
781.61
781.638
781.668
781.696
781.721
781.744
781.768
781.792
781.816
781.839
781.861
781.882
781.903
781.925
781.946
781.967
781.987
782.007
782.028
782.048
782.067
782.087
782.107
782.126
782.145
782.164
782.183
782.202
782.221
782.24
782.259
782.277
782.296
782.315
782.334
782.352
782.371
782.389
782.407
782.425
782.442
782.459
782.476
782.493
782.51
782.526
782.543
782.56
782.576
782.592
782.609
782.626
782.643
782.659
782.674
782.69
782.706
782.722
782.738
782.754
782.769
782.783
782.799
782.818
782.834
782.845
782.855
782.878
782.911
782.935
782.941
782.941
782.951
783.016
783.141
783.203
783.209
783.191
783.123
783.057
783.018
782.997
782.989
782.979
781.098
781.131
781.156
781.187
781.227
781.263
781.288
781.31
781.337
781.37
781.398
781.42
781.444
781.472
781.498
781.519
781.54
781.563
781.589
781.612
781.631
781.649
781.67
781.692
781.714
781.734
781.752
781.771
781.79
781.81
781.83
781.85
781.869
781.889
781.908
781.928
781.947
781.966
781.985
782.004
782.023
782.043
782.062
782.081
782.1
782.12
782.138
782.158
782.176
782.195
782.213
782.232
782.25
782.269
782.287
782.305
782.323
782.341
782.359
782.377
782.394
782.412
782.428
782.445
782.461
782.478
782.494
782.511
782.527
782.543
782.559
782.575
782.59
782.606
782.624
782.64
782.654
782.669
782.689
782.706
782.719
782.734
782.755
782.776
782.793
782.808
782.83
782.856
782.88
782.904
782.93
782.956
782.995
783.048
783.093
783.109
783.107
783.096
783.057
783.012
781.266
781.313
781.363
781.414
781.467
781.518
781.559
781.593
781.628
781.664
781.69
781.712
781.737
781.765
781.786
781.801
781.819
781.84
781.864
781.881
781.893
781.907
781.925
781.946
781.966
781.983
781.997
782.014
782.032
782.052
782.072
782.092
782.113
782.133
782.153
782.173
782.192
782.211
782.229
782.247
782.266
782.285
782.304
782.323
782.343
782.362
782.381
782.401
782.42
782.439
782.458
782.477
782.495
782.513
782.532
782.551
782.571
782.591
782.61
782.628
782.647
782.666
782.686
782.705
782.724
782.744
782.766
782.789
782.81
782.827
782.831
782.826
782.816
782.794
782.766
782.745
782.729
782.717
782.711
782.712
782.722
782.735
782.749
782.766
782.782
782.801
782.817
782.834
782.848
782.865
782.875
782.892
782.9
782.912
782.923
782.931
782.941
782.949
782.956
782.962
781.189
781.218
781.263
781.265
781.273
781.331
781.379
781.383
781.386
781.424
781.466
781.47
781.477
781.513
781.553
781.556
781.558
781.573
781.616
781.655
781.659
781.66
781.67
781.694
781.732
781.755
781.763
781.772
781.788
781.806
781.825
781.845
781.865
781.886
781.906
781.926
781.946
781.966
781.987
782.007
782.027
782.046
782.066
782.086
782.105
782.125
782.144
782.164
782.183
782.203
782.222
782.241
782.259
782.278
782.295
782.313
782.33
782.348
782.365
782.382
782.399
782.416
782.432
782.449
782.467
782.484
782.501
782.517
782.535
782.556
782.571
782.585
782.601
782.616
782.632
782.647
782.663
782.677
782.692
782.709
782.726
782.744
782.759
782.774
782.791
782.809
782.825
782.838
782.853
782.879
782.909
782.928
782.933
782.934
782.941
782.978
783.073
783.155
783.191
783.192
781.193
781.192
781.233
781.249
781.252
781.266
781.305
781.337
781.351
781.366
781.384
781.408
781.438
781.46
781.473
781.491
781.517
781.542
781.563
781.581
781.601
781.622
781.643
781.664
781.688
781.707
781.727
781.748
781.767
781.787
781.808
781.829
781.849
781.87
781.891
781.911
781.931
781.951
781.971
781.992
782.012
782.032
782.051
782.071
782.09
782.11
782.129
782.148
782.167
782.187
782.206
782.225
782.243
782.262
782.28
782.298
782.316
782.334
782.351
782.368
782.385
782.402
782.419
782.435
782.451
782.468
782.485
782.502
782.519
782.536
782.552
782.568
782.583
782.599
782.615
782.631
782.647
782.662
782.677
782.692
782.707
782.721
782.738
782.755
782.77
782.784
782.8
782.819
782.835
782.844
782.855
782.877
782.909
782.932
782.939
782.94
782.945
782.979
783.098
783.169
782.977
782.974
782.972
782.971
782.971
782.97
782.969
782.968
782.967
782.966
782.965
782.964
782.963
782.962
782.962
782.961
782.962
782.963
782.965
782.967
782.992
782.987
782.982
782.978
782.973
782.969
782.964
782.96
782.955
782.95
782.947
782.946
782.946
782.946
782.948
782.95
782.956
782.959
782.964
782.966
782.969
782.972
782.974
782.976
782.979
782.981
782.983
782.987
782.99
782.993
782.998
783.004
783.009
783.016
783.028
783.035
783.047
783.055
783.069
783.074
783.191
783.182
783.166
783.146
783.124
783.102
783.082
783.064
783.048
783.033
783.021
783.013
783.008
783.004
783.004
783.009
783.022
783.03
783.041
783.044
783.193
783.201
783.206
783.208
783.204
783.189
783.164
783.135
783.109
783.086
783.061
783.04
783.027
783.018
783.01
783.004
783.003
783.004
783.005
783.002
782.974
782.993
783.012
783.027
783.044
783.066
783.09
783.108
783.124
783.145
783.169
783.189
783.203
783.22
783.242
783.265
783.284
783.296
783.309
783.323
783.339
783.358
783.375
783.383
783.385
783.391
783.4
783.409
783.417
783.425
783.432
783.439
783.446
783.453
783.46
783.467
783.474
783.481
783.488
783.494
783.5
783.506
783.511
783.516
783.521
783.526
783.531
783.536
783.541
783.545
783.55
783.556
783.561
783.563
783.57
783.579
783.58
783.58
783.584
783.589
783.595
783.598
783.6
783.602
783.606
783.61
783.614
783.617
783.619
783.62
783.625
783.632
783.633
783.631
783.631
783.643
783.666
783.668
783.661
783.656
783.7
783.843
783.902
783.896
783.828
783.719
783.65
783.608
783.579
783.556
783.541
783.535
783.535
783.535
783.536
783.536
783.537
783.538
783.538
783.539
783.54
783.54
783.541
783.542
783.542
783.543
783.543
783.544
783.545
783.545
783.545
783.546
783.546
783.547
783.547
783.547
783.548
783.548
783.548
783.548
783.548
783.549
783.549
783.549
783.549
783.549
783.549
783.549
783.549
783.549
783.549
783.549
783.549
783.549
783.548
783.548
783.548
783.548
783.548
783.547
783.547
783.547
783.547
783.546
783.546
783.546
783.545
783.545
783.545
783.544
783.544
783.544
783.543
783.543
783.543
783.542
783.542
783.541
783.541
783.541
783.54
783.54
783.539
783.539
783.538
783.538
783.538
783.537
783.537
783.536
783.535
783.535
783.534
783.534
783.533
783.533
783.531
783.531
783.53
783.53
783.528
783.529
783.526
783.527
783.523
783.526
783.521
783.524
783.519
783.522
783.517
783.52
783.515
783.516
783.515
783.511
783.515
783.509
783.509
783.51
782.978
783.021
783.04
783.053
783.075
783.107
783.128
783.134
783.144
783.168
783.19
783.195
783.197
783.208
783.232
783.253
783.255
783.253
783.254
783.263
783.281
783.302
783.311
783.307
783.301
783.302
783.309
783.317
783.324
783.33
783.336
783.341
783.346
783.351
783.355
783.36
783.365
783.37
783.375
783.38
783.385
783.39
783.395
783.401
783.406
783.411
783.416
783.42
783.425
783.43
783.435
783.441
783.444
783.45
783.465
783.468
783.468
783.468
783.469
783.475
783.481
783.483
783.485
783.489
783.491
783.493
783.499
783.504
783.505
783.506
783.513
783.52
783.521
783.522
783.529
783.541
783.545
783.549
783.56
783.575
783.59
783.612
783.626
783.652
783.701
783.729
783.732
783.724
783.688
783.619
783.562
783.524
783.507
783.506
783.514
783.521
783.526
783.529
783.532
783.534
783.536
783.537
783.538
783.539
783.54
783.541
783.542
783.542
783.543
783.543
783.544
783.544
783.545
783.545
783.545
783.546
783.546
783.546
783.547
783.547
783.547
783.547
783.547
783.547
783.547
783.548
783.548
783.548
783.548
783.548
783.547
783.547
783.547
783.547
783.547
783.547
783.547
783.546
783.546
783.546
783.546
783.545
783.545
783.545
783.545
783.544
783.544
783.544
783.543
783.543
783.543
783.542
783.542
783.542
783.541
783.541
783.54
783.54
783.54
783.539
783.539
783.538
783.538
783.537
783.537
783.537
783.536
783.536
783.535
783.534
783.534
783.533
783.533
783.532
783.532
783.531
783.53
783.53
783.528
783.529
783.526
783.527
783.524
783.526
783.522
783.524
783.52
783.522
783.518
783.52
783.515
783.518
783.513
783.516
783.511
783.514
783.509
783.511
783.507
783.507
783.11
783.174
783.221
783.258
783.295
783.339
783.378
783.402
783.424
783.452
783.475
783.48
783.481
783.493
783.513
783.533
783.532
783.513
783.508
783.519
783.538
783.565
783.578
783.559
783.536
783.533
783.538
783.543
783.549
783.555
783.562
783.568
783.574
783.581
783.588
783.595
783.601
783.608
783.615
783.621
783.626
783.633
783.639
783.644
783.649
783.654
783.66
783.666
783.672
783.678
783.684
783.691
783.7
783.719
783.75
783.764
783.745
783.739
783.749
783.765
783.778
783.767
783.744
783.722
783.691
783.648
783.611
783.58
783.553
783.532
783.521
783.517
783.518
783.521
783.526
783.531
783.537
783.542
783.547
783.55
783.553
783.555
783.556
783.556
783.555
783.553
783.551
783.549
783.546
783.542
783.539
783.535
783.534
783.533
783.534
783.535
783.536
783.536
783.537
783.538
783.538
783.539
783.54
783.54
783.541
783.541
783.542
783.542
783.543
783.543
783.544
783.544
783.545
783.545
783.545
783.546
783.546
783.546
783.547
783.547
783.547
783.547
783.547
783.547
783.547
783.547
783.548
783.548
783.548
783.548
783.547
783.547
783.547
783.547
783.547
783.547
783.547
783.546
783.546
783.546
783.546
783.545
783.545
783.545
783.545
783.544
783.544
783.544
783.543
783.543
783.543
783.542
783.542
783.542
783.541
783.541
783.54
783.54
783.54
783.539
783.539
783.538
783.538
783.537
783.537
783.537
783.536
783.536
783.535
783.534
783.534
783.533
783.533
783.532
783.532
783.531
783.53
783.53
783.529
783.528
783.527
783.527
783.525
783.525
783.523
783.523
783.522
783.521
783.519
783.52
783.516
783.518
783.515
783.513
783.514
783.512
783.51
783.51
783.508
783.508
783.036
783.068
783.144
783.153
783.137
783.142
783.218
783.228
783.206
783.207
783.279
783.296
783.267
783.241
783.253
783.332
783.373
783.36
783.297
783.269
783.273
783.335
783.416
783.415
783.378
783.312
783.294
783.294
783.301
783.309
783.316
783.324
783.331
783.338
783.346
783.353
783.361
783.368
783.374
783.381
783.387
783.392
783.398
783.403
783.409
783.414
783.419
783.424
783.43
783.434
783.441
783.449
783.453
783.458
783.495
783.581
783.57
783.513
783.49
783.489
783.532
783.531
783.511
783.501
783.5
783.502
783.506
783.509
783.511
783.513
783.515
783.52
783.525
783.53
783.532
783.535
783.54
783.544
783.545
783.547
783.557
783.58
783.59
783.59
783.583
783.58
783.598
783.684
783.765
783.789
783.782
783.723
783.62
783.551
783.516
783.507
783.513
783.523
783.528
783.532
783.534
783.536
783.538
783.539
783.54
783.541
783.542
783.542
783.543
783.543
783.544
783.544
783.545
783.545
783.545
783.546
783.546
783.546
783.547
783.547
783.547
783.547
783.547
783.547
783.547
783.547
783.548
783.548
783.548
783.548
783.547
783.547
783.547
783.547
783.547
783.547
783.547
783.546
783.546
783.546
783.546
783.545
783.545
783.545
783.545
783.544
783.544
783.544
783.543
783.543
783.543
783.542
783.542
783.542
783.541
783.541
783.54
783.54
783.54
783.539
783.539
783.538
783.538
783.537
783.537
783.537
783.536
783.536
783.535
783.534
783.534
783.533
783.533
783.532
783.532
783.531
783.531
783.529
783.529
783.527
783.528
783.525
783.527
783.523
783.525
783.521
783.523
783.519
783.522
783.516
783.52
783.514
783.517
783.512
783.515
783.51
783.512
783.51
783.505
783.51
783.032
783.054
783.082
783.106
783.109
783.106
783.115
783.135
783.15
783.16
783.171
783.169
783.176
783.187
783.202
783.222
783.225
783.231
783.228
783.23
783.237
783.266
783.281
783.277
783.278
783.272
783.267
783.273
783.284
783.292
783.3
783.308
783.315
783.322
783.33
783.337
783.345
783.352
783.359
783.365
783.372
783.378
783.384
783.389
783.395
783.4
783.405
783.41
783.416
783.42
783.425
783.432
783.438
783.449
783.473
783.47
783.473
783.465
783.467
783.471
783.481
783.478
783.478
783.479
783.482
783.486
783.489
783.492
783.495
783.499
783.502
783.504
783.505
783.509
783.514
783.518
783.52
783.523
783.53
783.534
783.533
783.531
783.534
783.554
783.57
783.571
783.566
783.562
783.584
783.694
783.773
783.781
783.735
783.613
783.537
783.506
783.504
783.515
783.525
783.53