/*--------------------------------*- C++ -*----------------------------------*\
| =========                 |                                                 |
| \\      /  F ield         | OpenFOAM: The Open Source CFD Toolbox           |
|  \\    /   O peration     | Version:  3.0.x                                 |
|   \\  /    A nd           | Web:      www.OpenFOAM.org                      |
|    \\/     M anipulation  |                                                 |
\*---------------------------------------------------------------------------*/
FoamFile
{
    version     2.0;
    format      ascii;
    class       surfaceScalarField;
    location    "0.46995";
    object      phi;
}
// * * * * * * * * * * * * * * * * * * * * * * * * * * * * * * * * * * * * * //

dimensions      [1 0 -1 0 0 0 0];

internalField   nonuniform List<scalar> 
53800
(
1.97754
0.00102708
1.97684
0.000695274
1.97614
0.000688356
1.97545
0.000690061
1.97475
0.00068995
1.97405
0.000689734
1.97335
0.000689602
1.97265
0.000689479
1.97194
0.000689353
1.97124
0.000689226
1.97054
0.0006891
1.96983
0.000688973
1.96913
0.000688847
1.96842
0.000688722
1.96771
0.000688581
1.967
0.000688487
1.96628
0.000688365
1.96556
0.000688223
1.96485
0.00068808
1.96412
0.000687975
1.9634
0.000687852
1.96267
0.00068773
1.96194
0.000687609
1.9612
0.000687489
1.96046
0.000687369
1.95972
0.00068725
1.95897
0.000687132
1.95822
0.000687016
1.95746
0.000686901
1.95669
0.000686789
1.95592
0.000686679
1.95514
0.000686572
1.95436
0.000686469
1.95356
0.000686371
1.95276
0.000686276
1.95195
0.000686187
1.95114
0.000686103
1.95031
0.000686023
1.94947
0.000685949
1.94863
0.000685882
1.94777
0.000685822
1.9469
0.000685767
1.94602
0.000685718
1.94513
0.00068567
1.94422
0.000685627
1.94331
0.000685585
1.94237
0.000685544
1.94143
0.000685501
1.94046
0.000685451
1.93948
0.000685389
1.93849
0.000685305
1.93748
0.000685187
1.93645
0.000685017
1.93541
0.000684769
1.93434
0.00068441
1.93326
0.000683894
1.93216
0.00068316
1.93104
0.000682134
1.9299
0.000680725
1.92874
0.000678821
1.92756
0.000676296
1.92636
0.000672999
1.92514
0.000668768
1.92391
0.000663424
1.92265
0.000656784
1.92139
0.000648662
1.9201
0.000638878
1.9188
0.000627268
1.91749
0.000613695
1.91617
0.000598054
1.91484
0.000580291
1.9135
0.000560399
1.91216
0.000538435
1.91081
0.000514513
1.90946
0.00048881
1.90811
0.000461558
1.90676
0.000433044
1.9054
0.000403591
1.90405
0.000373555
1.90269
0.000343309
1.90134
0.000313225
1.89998
0.000283667
1.89862
0.000254973
1.89726
0.000227449
1.89589
0.000201353
1.89451
0.000176897
1.89312
0.000154238
1.89172
0.000133479
1.8903
0.000114673
1.88887
9.78232e-05
1.88742
8.28897e-05
1.88595
6.97973e-05
1.88446
5.84418e-05
1.88294
4.86973e-05
1.8814
4.04237e-05
1.87982
3.34731e-05
1.87822
2.76958e-05
1.87659
2.29446e-05
1.87492
1.90794e-05
1.87323
1.59693e-05
1.8715
1.3495e-05
1.86973
1.15497e-05
1.86793
1.00392e-05
1.8661
8.88239e-06
1.86423
8.00973e-06
1.86232
7.36306e-06
1.86038
6.89436e-06
1.8584
6.56442e-06
1.85638
6.34179e-06
1.85432
6.20128e-06
1.85223
6.12294e-06
1.8501
6.09112e-06
1.84793
6.09367e-06
1.84572
6.12115e-06
1.84348
6.16653e-06
1.84119
6.22432e-06
1.83887
6.29074e-06
1.8365
6.36284e-06
1.8341
6.43871e-06
1.83166
6.51693e-06
1.82918
6.59665e-06
1.82666
6.67715e-06
1.8241
6.75815e-06
1.82149
6.8392e-06
1.81885
6.92011e-06
1.81617
7.00061e-06
1.81345
7.08074e-06
1.81068
7.16035e-06
1.80788
7.23949e-06
1.80503
7.3182e-06
1.80215
7.3965e-06
1.79922
7.4742e-06
1.79625
7.55135e-06
1.79324
7.62786e-06
1.79019
7.7038e-06
1.78709
7.77901e-06
1.78395
7.85361e-06
1.78077
7.92749e-06
1.77755
8.00082e-06
1.77429
8.07343e-06
1.77098
8.14532e-06
1.76763
8.21649e-06
1.76424
8.28701e-06
1.7608
8.35678e-06
1.75732
8.42578e-06
1.7538
8.49395e-06
1.75023
8.56137e-06
1.74662
8.62803e-06
1.74297
8.69391e-06
1.73928
8.75881e-06
1.73554
8.8228e-06
1.73175
8.88593e-06
1.72792
8.94811e-06
1.72405
9.00933e-06
1.72014
9.06954e-06
1.71618
9.12869e-06
1.71217
9.18687e-06
1.70813
9.24399e-06
1.70403
9.29993e-06
1.6999
9.35466e-06
1.69572
9.40812e-06
1.69149
9.46049e-06
1.68723
9.51172e-06
1.68291
9.56179e-06
1.67855
9.61047e-06
1.67415
9.65768e-06
1.66971
9.7035e-06
1.66522
9.7482e-06
1.66068
9.79169e-06
1.6561
9.83393e-06
1.65148
9.87469e-06
1.64681
9.91393e-06
1.6421
9.95174e-06
1.63735
9.98807e-06
1.63255
1.00231e-05
1.6277
1.00568e-05
1.62281
1.00889e-05
1.61788
1.01194e-05
1.6129
1.01483e-05
1.60788
1.01757e-05
1.60282
1.02014e-05
1.59771
1.02256e-05
1.59256
1.02476e-05
1.58736
1.02692e-05
1.58212
1.02865e-05
1.57684
1.03062e-05
1.57152
1.03206e-05
1.56615
1.03316e-05
1.56073
1.03689e-05
1.55528
1.03612e-05
1.54978
1.06094e-05
1.54424
1.12158e-05
1.53865
1.50749e-05
1.533
3.30677e-05
1.52722
0.000123593
1.52095
0.000567413
1.51249
0.00272527
1.49386
0.0128434
1.42182
0.0662227
0.21083
1.2051
2.2729
0.000991439
2.2729
0.000682745
2.27291
0.000669211
2.27292
0.000673142
2.27292
0.000673426
2.27293
0.000673468
2.27293
0.000673686
2.27293
0.000673922
2.27293
0.000674149
2.27293
0.000674376
2.27292
0.000674604
2.27292
0.00067483
2.27291
0.000675056
2.2729
0.000675283
2.27289
0.000675494
2.27287
0.000675751
2.27286
0.000675979
2.27283
0.000676189
2.27281
0.000676397
2.27278
0.000676641
2.27275
0.000676869
2.27271
0.000677096
2.27267
0.000677324
2.27262
0.000677552
2.27257
0.00067778
2.27251
0.000678009
2.27245
0.000678239
2.27238
0.00067847
2.2723
0.000678702
2.27222
0.000678936
2.27213
0.000679173
2.27203
0.000679413
2.27192
0.000679656
2.27181
0.000679903
2.27168
0.000680154
2.27154
0.00068041
2.2714
0.000680671
2.27124
0.000680937
2.27107
0.000681208
2.27089
0.000681485
2.2707
0.000681769
2.27049
0.000682057
2.27027
0.000682351
2.27003
0.000682647
2.26978
0.000682946
2.26952
0.000683246
2.26923
0.000683544
2.26893
0.000683838
2.26862
0.000684122
2.26828
0.000684387
2.26792
0.000684624
2.26755
0.000684813
2.26715
0.000684933
2.26674
0.000684952
2.2663
0.000684827
2.26584
0.000684502
2.26536
0.000683902
2.26486
0.000682937
2.26433
0.000681496
2.26377
0.000679448
2.26319
0.000676643
2.26259
0.00067291
2.26196
0.000668061
2.2613
0.000661899
2.26062
0.000654224
2.25991
0.00064484
2.25917
0.000633564
2.25841
0.000620241
2.25761
0.00060475
2.25679
0.000587016
2.25594
0.000567023
2.25507
0.000544818
2.25416
0.000520515
2.25322
0.000494296
2.25225
0.000466406
2.25125
0.000437149
2.25022
0.000406873
2.24915
0.000375961
2.24805
0.000344815
2.24692
0.00031384
2.24575
0.000283428
2.24455
0.000253944
2.24331
0.000225715
2.24203
0.000199017
2.24071
0.000174072
2.23936
0.000151042
2.23797
0.000130031
2.23653
0.000111083
2.23506
9.4192e-05
2.23355
7.93069e-05
2.23199
6.63371e-05
2.2304
5.51627e-05
2.22876
4.56425e-05
2.22708
3.76216e-05
2.22536
3.0939e-05
2.2236
2.54334e-05
2.2218
2.09488e-05
2.21996
1.73375e-05
2.21807
1.44636e-05
2.21614
1.22044e-05
2.21417
1.04512e-05
2.21216
9.10955e-06
2.21011
8.09852e-06
2.20801
7.35015e-06
2.20587
6.80791e-06
2.20369
6.42565e-06
2.20146
6.16622e-06
2.1992
6.00001e-06
2.19689
5.9038e-06
2.19453
5.85939e-06
2.19213
5.85281e-06
2.18969
5.87349e-06
2.18721
5.91364e-06
2.18468
5.9674e-06
2.1821
6.03071e-06
2.17949
6.10041e-06
2.17682
6.17449e-06
2.17412
6.25131e-06
2.17136
6.32992e-06
2.16857
6.40955e-06
2.16572
6.4898e-06
2.16283
6.57025e-06
2.1599
6.65083e-06
2.15692
6.73124e-06
2.15389
6.81135e-06
2.15082
6.89099e-06
2.1477
6.9702e-06
2.14453
7.04889e-06
2.14132
7.12708e-06
2.13806
7.20486e-06
2.13475
7.28221e-06
2.13139
7.35898e-06
2.12799
7.43521e-06
2.12454
7.51081e-06
2.12104
7.58586e-06
2.11749
7.66018e-06
2.1139
7.7339e-06
2.11025
7.80693e-06
2.10656
7.8794e-06
2.10282
7.95117e-06
2.09903
8.02224e-06
2.09519
8.0926e-06
2.0913
8.16233e-06
2.08736
8.23132e-06
2.08338
8.29955e-06
2.07934
8.36697e-06
2.07525
8.43365e-06
2.07112
8.4996e-06
2.06693
8.56475e-06
2.0627
8.62896e-06
2.05841
8.69227e-06
2.05407
8.75473e-06
2.04969
8.81626e-06
2.04525
8.87685e-06
2.04076
8.93644e-06
2.03622
8.995e-06
2.03163
9.05259e-06
2.02699
9.10914e-06
2.0223
9.16456e-06
2.01756
9.21879e-06
2.01277
9.27176e-06
2.00793
9.32371e-06
2.00304
9.37453e-06
1.99809
9.42425e-06
1.9931
9.47258e-06
1.98805
9.51953e-06
1.98296
9.56511e-06
1.97781
9.60965e-06
1.97261
9.65296e-06
1.96736
9.69512e-06
1.96206
9.7358e-06
1.95671
9.77502e-06
1.95131
9.81287e-06
1.94586
9.84927e-06
1.94035
9.8844e-06
1.9348
9.91821e-06
1.9292
9.9505e-06
1.92354
9.98125e-06
1.91784
1.00104e-05
1.91208
1.0038e-05
1.90628
1.00641e-05
1.90042
1.00885e-05
1.89451
1.01112e-05
1.88856
1.01323e-05
1.88255
1.01523e-05
1.87649
1.01671e-05
1.87038
1.01952e-05
1.86423
1.01798e-05
1.85802
1.02814e-05
1.85177
1.02108e-05
1.84546
1.07921e-05
1.83911
1.20893e-05
1.8327
2.06398e-05
1.82622
6.04062e-05
1.81959
0.000260525
1.81237
0.00124125
1.80249
0.00600378
1.78025
0.0284357
1.69714
0.142646
0.443359
1.45787
2.61088
0.000950472
2.61088
0.000666571
2.61089
0.000646008
2.6109
0.000651748
2.61091
0.000652116
2.61092
0.000652047
2.61092
0.000652253
2.61093
0.000652489
2.61093
0.00065271
2.61093
0.000652932
2.61094
0.000653154
2.61093
0.000653374
2.61093
0.000653595
2.61093
0.000653817
2.61092
0.000654024
2.61091
0.000654274
2.61089
0.000654498
2.61088
0.000654704
2.61086
0.000654909
2.61083
0.000655148
2.6108
0.000655371
2.61077
0.000655595
2.61073
0.000655818
2.61069
0.000656043
2.61064
0.000656268
2.61058
0.000656493
2.61052
0.00065672
2.61045
0.000656948
2.61038
0.000657177
2.6103
0.000657408
2.6102
0.000657642
2.6101
0.000657878
2.60999
0.000658119
2.60987
0.000658363
2.60974
0.000658611
2.6096
0.000658865
2.60945
0.000659123
2.60928
0.000659386
2.6091
0.000659654
2.60891
0.000659928
2.60871
0.000660209
2.60849
0.000660494
2.60825
0.000660786
2.608
0.000661078
2.60773
0.000661375
2.60744
0.000661671
2.60714
0.000661967
2.60681
0.000662259
2.60647
0.000662541
2.6061
0.000662805
2.60571
0.000663041
2.6053
0.000663232
2.60487
0.000663354
2.60442
0.00066338
2.60394
0.000663266
2.60343
0.000662957
2.6029
0.000662381
2.60234
0.00066145
2.60176
0.000660057
2.60114
0.000658076
2.6005
0.000655359
2.59983
0.00065174
2.59912
0.000647039
2.59839
0.000641063
2.59762
0.00063362
2.59682
0.000624517
2.59598
0.000613581
2.59512
0.00060066
2.59422
0.000585636
2.59328
0.00056844
2.59231
0.000549056
2.5913
0.00052753
2.59025
0.000503974
2.58916
0.000478565
2.58804
0.000451542
2.58688
0.000423197
2.58567
0.000393871
2.58443
0.000363933
2.58315
0.000333772
2.58182
0.000303781
2.58045
0.000274338
2.57905
0.000245798
2.57759
0.000218473
2.5761
0.000192633
2.57456
0.000168491
2.57298
0.000146203
2.57136
0.000125869
2.56969
0.000107531
2.56798
9.11853e-05
2.56622
7.67796e-05
2.56442
6.42271e-05
2.56257
5.34117e-05
2.56068
4.41968e-05
2.55874
3.64326e-05
2.55675
2.99634e-05
2.55472
2.46332e-05
2.55264
2.0291e-05
2.55052
1.67941e-05
2.54835
1.40109e-05
2.54613
1.18228e-05
2.54386
1.01245e-05
2.54155
8.82469e-06
2.53919
7.84507e-06
2.53678
7.11982e-06
2.53432
6.59425e-06
2.53181
6.22364e-06
2.52926
5.97206e-06
2.52665
5.81079e-06
2.524
5.71734e-06
2.52129
5.67411e-06
2.51854
5.66757e-06
2.51573
5.68743e-06
2.51288
5.72618e-06
2.50997
5.77814e-06
2.50702
5.83936e-06
2.50401
5.90679e-06
2.50095
5.97845e-06
2.49784
6.0528e-06
2.49468
6.1289e-06
2.49147
6.20597e-06
2.4882
6.28366e-06
2.48488
6.36155e-06
2.48151
6.43956e-06
2.47809
6.51742e-06
2.47461
6.59499e-06
2.47108
6.67208e-06
2.4675
6.74877e-06
2.46386
6.82497e-06
2.46017
6.90068e-06
2.45642
6.97598e-06
2.45262
7.05088e-06
2.44877
7.12522e-06
2.44486
7.19901e-06
2.44089
7.27222e-06
2.43687
7.34489e-06
2.4328
7.41685e-06
2.42867
7.48822e-06
2.42448
7.55893e-06
2.42024
7.6291e-06
2.41595
7.69859e-06
2.41159
7.7674e-06
2.40718
7.83554e-06
2.40272
7.90305e-06
2.39819
7.96985e-06
2.39361
8.03591e-06
2.38898
8.1012e-06
2.38428
8.16576e-06
2.37953
8.2296e-06
2.37472
8.2927e-06
2.36986
8.35488e-06
2.36493
8.41617e-06
2.35995
8.47665e-06
2.35491
8.53623e-06
2.34981
8.5949e-06
2.34466
8.6526e-06
2.33945
8.70929e-06
2.33418
8.76505e-06
2.32885
8.81981e-06
2.32346
8.87346e-06
2.31801
8.92597e-06
2.31251
8.97725e-06
2.30695
9.02757e-06
2.30133
9.07677e-06
2.29565
9.12491e-06
2.28991
9.17169e-06
2.28411
9.21716e-06
2.27826
9.2613e-06
2.27235
9.30443e-06
2.26638
9.34636e-06
2.26035
9.38719e-06
2.25426
9.42658e-06
2.24811
9.46454e-06
2.24191
9.50121e-06
2.23565
9.53646e-06
2.22933
9.57049e-06
2.22295
9.6032e-06
2.21651
9.63448e-06
2.21001
9.66425e-06
2.20346
9.69251e-06
2.19685
9.71917e-06
2.19018
9.74461e-06
2.18345
9.76786e-06
2.17667
9.7907e-06
2.16983
9.80923e-06
2.16293
9.83299e-06
2.15597
9.83762e-06
2.14895
9.88591e-06
2.14188
9.83082e-06
2.13475
1.0015e-05
2.12757
9.85641e-06
2.12033
1.08117e-05
2.11303
1.2804e-05
2.10567
2.63065e-05
2.09823
8.88696e-05
2.09062
0.000403996
2.08239
0.00194866
2.07136
0.00946112
2.04731
0.0448492
1.95704
0.225234
0.698225
1.69443
2.99911
0.000904598
2.99912
0.000647222
2.99913
0.000619674
2.99914
0.000627129
2.99915
0.000627632
2.99916
0.000627439
2.99916
0.000627629
2.99917
0.000627863
2.99917
0.000628076
2.99918
0.000628288
2.99918
0.000628502
2.99918
0.000628714
2.99917
0.000628926
2.99917
0.000629139
2.99916
0.000629339
2.99914
0.000629579
2.99913
0.000629795
2.99911
0.000629993
2.99909
0.00063019
2.99906
0.000630419
2.99902
0.000630635
2.99899
0.00063085
2.99894
0.000631065
2.99889
0.000631281
2.99884
0.000631497
2.99877
0.000631714
2.9987
0.000631933
2.99862
0.000632152
2.99854
0.000632372
2.99844
0.000632594
2.99834
0.000632819
2.99822
0.000633047
2.9981
0.000633278
2.99796
0.000633513
2.99781
0.000633752
2.99765
0.000633996
2.99747
0.000634244
2.99728
0.000634498
2.99707
0.000634756
2.99686
0.00063502
2.99662
0.00063529
2.99637
0.000635564
2.9961
0.000635845
2.99581
0.000636126
2.9955
0.000636412
2.99517
0.000636697
2.99482
0.000636982
2.99444
0.000637262
2.99405
0.000637534
2.99363
0.000637789
2.99318
0.000638016
2.99271
0.000638199
2.99221
0.000638318
2.99169
0.000638343
2.99114
0.000638234
2.99056
0.000637938
2.98995
0.000637385
2.98931
0.000636491
2.98864
0.000635154
2.98793
0.00063325
2.98719
0.00063064
2.98642
0.000627164
2.98561
0.000622647
2.98477
0.000616905
2.98389
0.000609752
2.98297
0.000601005
2.98201
0.000590494
2.98102
0.000578075
2.97998
0.000563635
2.9789
0.000547105
2.97779
0.000528471
2.97663
0.000507776
2.97542
0.000485128
2.97418
0.000460696
2.97288
0.00043471
2.97155
0.000407451
2.97017
0.000379245
2.96874
0.000350448
2.96726
0.000321435
2.96574
0.000292581
2.96417
0.000264251
2.96255
0.000236786
2.96088
0.000210489
2.95917
0.000185617
2.9574
0.000162375
2.95558
0.000140916
2.95372
0.000121334
2.9518
0.000103673
2.94983
8.79271e-05
2.94781
7.40478e-05
2.94574
6.19517e-05
2.94362
5.15275e-05
2.94145
4.2644e-05
2.93922
3.51575e-05
2.93694
2.89182e-05
2.93461
2.37762e-05
2.93222
1.95863e-05
2.92978
1.6211e-05
2.92729
1.35239e-05
2.92474
1.14106e-05
2.92213
9.76985e-06
2.91948
8.51357e-06
2.91676
7.56633e-06
2.914
6.8647e-06
2.91117
6.35593e-06
2.90829
5.99686e-06
2.90536
5.75283e-06
2.90236
5.59612e-06
2.89931
5.50503e-06
2.89621
5.46253e-06
2.89304
5.45554e-06
2.88982
5.47413e-06
2.88654
5.51104e-06
2.8832
5.56075e-06
2.87981
5.61945e-06
2.87635
5.68419e-06
2.87284
5.75304e-06
2.86927
5.82451e-06
2.86564
5.89768e-06
2.86194
5.9718e-06
2.85819
6.04653e-06
2.85438
6.12147e-06
2.85051
6.19653e-06
2.84658
6.27143e-06
2.84258
6.34606e-06
2.83853
6.42025e-06
2.83441
6.49407e-06
2.83023
6.56736e-06
2.82599
6.64022e-06
2.82169
6.71269e-06
2.81732
6.78475e-06
2.8129
6.85628e-06
2.80841
6.92729e-06
2.80385
6.99773e-06
2.79924
7.06765e-06
2.79456
7.1369e-06
2.78981
7.20558e-06
2.785
7.27363e-06
2.78013
7.34115e-06
2.77519
7.40801e-06
2.77019
7.47423e-06
2.76513
7.53979e-06
2.76
7.60475e-06
2.7548
7.66903e-06
2.74954
7.73261e-06
2.74421
7.79542e-06
2.73882
7.85755e-06
2.73336
7.91898e-06
2.72784
7.97968e-06
2.72225
8.03953e-06
2.7166
8.09851e-06
2.71087
8.15671e-06
2.70508
8.21404e-06
2.69923
8.27048e-06
2.69331
8.32602e-06
2.68732
8.38057e-06
2.68126
8.43422e-06
2.67514
8.48691e-06
2.66895
8.53854e-06
2.6627
8.58908e-06
2.65638
8.63842e-06
2.64999
8.68683e-06
2.64353
8.73418e-06
2.63701
8.78049e-06
2.63042
8.82551e-06
2.62376
8.86928e-06
2.61704
8.91174e-06
2.61024
8.95324e-06
2.60339
8.9936e-06
2.59646
9.03288e-06
2.58947
9.07078e-06
2.58241
9.10731e-06
2.57528
9.14262e-06
2.56809
9.17652e-06
2.56083
9.20928e-06
2.5535
9.24074e-06
2.5461
9.27085e-06
2.53864
9.29949e-06
2.53111
9.32672e-06
2.52352
9.35225e-06
2.51586
9.37696e-06
2.50813
9.39891e-06
2.50034
9.42182e-06
2.49248
9.4375e-06
2.48455
9.46534e-06
2.47656
9.45877e-06
2.4685
9.52962e-06
2.46038
9.42967e-06
2.45219
9.70787e-06
2.44394
9.4484e-06
2.43562
1.08316e-05
2.42723
1.36139e-05
2.41878
3.27654e-05
2.41024
0.000121312
2.40149
0.00056757
2.39205
0.00275533
2.3794
0.0134048
2.35202
0.0634609
2.25066
0.317773
0.980232
1.95975
3.44507
0.000853452
3.44508
0.000624032
3.44509
0.000589795
3.4451
0.000598806
3.44511
0.000599493
3.44512
0.000599171
3.44513
0.000599343
3.44514
0.000599574
3.44514
0.000599777
3.44515
0.000599979
3.44515
0.000600183
3.44515
0.000600385
3.44514
0.000600588
3.44514
0.000600791
3.44513
0.000600983
3.44511
0.000601212
3.44509
0.000601417
3.44507
0.000601606
3.44504
0.000601795
3.44501
0.000602014
3.44497
0.000602219
3.44493
0.000602425
3.44488
0.00060263
3.44482
0.000602837
3.44476
0.000603043
3.44469
0.00060325
3.4446
0.000603459
3.44451
0.000603668
3.44441
0.000603878
3.4443
0.000604091
3.44418
0.000604305
3.44405
0.000604523
3.44391
0.000604744
3.44375
0.000604968
3.44358
0.000605196
3.44339
0.000605429
3.44319
0.000605666
3.44297
0.000605908
3.44273
0.000606154
3.44248
0.000606406
3.44221
0.000606665
3.44192
0.000606926
3.44161
0.000607195
3.44128
0.000607463
3.44092
0.000607736
3.44054
0.000608008
3.44014
0.00060828
3.43971
0.000608548
3.43926
0.000608807
3.43877
0.000609051
3.43826
0.000609268
3.43772
0.000609443
3.43715
0.000609557
3.43655
0.000609581
3.43592
0.000609478
3.43525
0.000609196
3.43455
0.00060867
3.43382
0.000607818
3.43304
0.000606544
3.43223
0.00060473
3.43139
0.000602242
3.4305
0.000598927
3.42957
0.000594621
3.4286
0.000589147
3.42758
0.000582326
3.42653
0.000573985
3.42543
0.000563962
3.42429
0.000552118
3.4231
0.000538345
3.42186
0.000522579
3.42058
0.000504803
3.41925
0.000485061
3.41786
0.000463453
3.41643
0.000440142
3.41495
0.000415345
3.41341
0.000389331
3.41182
0.000362411
3.41018
0.000334923
3.40849
0.000307226
3.40674
0.000279678
3.40493
0.000252627
3.40308
0.000226398
3.40116
0.000201281
3.39919
0.000177521
3.39716
0.000155316
3.39507
0.000134811
3.39293
0.000116096
3.39073
9.9214e-05
3.38847
8.41597e-05
3.38615
7.08875e-05
3.38377
5.93182e-05
3.38133
4.93457e-05
3.37883
4.08453e-05
3.37628
3.36799e-05
3.37366
2.77067e-05
3.37098
2.27826e-05
3.36824
1.87691e-05
3.36543
1.5535e-05
3.36257
1.29594e-05
3.35964
1.09331e-05
3.35665
9.3592e-06
3.3536
8.15361e-06
3.35048
7.24415e-06
3.3473
6.5701e-06
3.34406
6.08098e-06
3.34075
5.73545e-06
3.33738
5.50034e-06
3.33394
5.34906e-06
3.33044
5.2608e-06
3.32687
5.21922e-06
3.32323
5.2118e-06
3.31953
5.22899e-06
3.31577
5.26381e-06
3.31193
5.31098e-06
3.30803
5.3668e-06
3.30406
5.42846e-06
3.30003
5.49409e-06
3.29592
5.56226e-06
3.29175
5.63206e-06
3.28751
5.70281e-06
3.2832
5.77414e-06
3.27882
5.84568e-06
3.27437
5.91735e-06
3.26986
5.98886e-06
3.26527
6.06013e-06
3.26061
6.13097e-06
3.25588
6.20146e-06
3.25108
6.27145e-06
3.24621
6.34102e-06
3.24127
6.41022e-06
3.23625
6.47904e-06
3.23117
6.54735e-06
3.22601
6.61516e-06
3.22078
6.68243e-06
3.21548
6.74921e-06
3.2101
6.81532e-06
3.20465
6.88091e-06
3.19913
6.94589e-06
3.19353
7.01038e-06
3.18786
7.07422e-06
3.18212
7.13745e-06
3.1763
7.20007e-06
3.1704
7.2621e-06
3.16444
7.32349e-06
3.15839
7.38419e-06
3.15227
7.44418e-06
3.14608
7.50351e-06
3.13981
7.56218e-06
3.13347
7.62014e-06
3.12705
7.67729e-06
3.12055
7.73361e-06
3.11398
7.78918e-06
3.10733
7.84394e-06
3.1006
7.89784e-06
3.0938
7.95086e-06
3.08692
8.00297e-06
3.07996
8.05419e-06
3.07293
8.10452e-06
3.06582
8.15381e-06
3.05864
8.20208e-06
3.05138
8.24919e-06
3.04404
8.29543e-06
3.03662
8.34064e-06
3.02913
8.38487e-06
3.02156
8.42787e-06
3.01391
8.46966e-06
3.00618
8.5102e-06
2.99838
8.54983e-06
2.9905
8.58837e-06
2.98255
8.62588e-06
2.97452
8.66208e-06
2.96641
8.69695e-06
2.95822
8.73069e-06
2.94996
8.76304e-06
2.94162
8.79436e-06
2.9332
8.82436e-06
2.9247
8.85313e-06
2.91613
8.88047e-06
2.90749
8.90652e-06
2.89876
8.93078e-06
2.88996
8.95462e-06
2.88109
8.97513e-06
2.87213
8.99801e-06
2.8631
9.0106e-06
2.854
9.04283e-06
2.84482
9.02386e-06
2.83556
9.11999e-06
2.82623
8.96917e-06
2.81683
9.35479e-06
2.80735
8.97879e-06
2.79779
1.08518e-05
2.78816
1.45263e-05
2.77845
4.01053e-05
2.76863
0.000158173
2.75859
0.000753498
2.74775
0.00367254
2.73327
0.0178936
2.70205
0.0846078
2.5879
0.421792
1.29239
2.26551
3.95735
0.00079658
3.95736
0.00059622
3.95737
0.000555896
3.95738
0.000566233
3.9574
0.00056715
3.95741
0.0005667
3.95742
0.000566851
3.95742
0.000567078
3.95743
0.000567271
3.95743
0.000567462
3.95744
0.000567654
3.95743
0.000567846
3.95743
0.000568037
3.95742
0.000568229
3.95741
0.00056841
3.95739
0.000568626
3.95737
0.000568821
3.95735
0.000569
3.95731
0.000569178
3.95728
0.000569385
3.95723
0.000569579
3.95718
0.000569774
3.95713
0.000569968
3.95706
0.000570163
3.95699
0.000570358
3.9569
0.000570554
3.95681
0.000570751
3.95671
0.000570949
3.95659
0.000571148
3.95647
0.000571349
3.95633
0.000571552
3.95617
0.000571757
3.95601
0.000571966
3.95583
0.000572178
3.95563
0.000572394
3.95541
0.000572614
3.95518
0.000572839
3.95493
0.000573067
3.95466
0.0005733
3.95437
0.000573538
3.95406
0.000573783
3.95373
0.00057403
3.95337
0.000574284
3.95299
0.000574537
3.95258
0.000574796
3.95215
0.000575054
3.95168
0.000575311
3.95119
0.000575564
3.95067
0.000575809
3.95011
0.000576039
3.94952
0.000576245
3.9489
0.000576411
3.94825
0.000576519
3.94756
0.000576543
3.94683
0.000576445
3.94607
0.00057618
3.94526
0.000575684
3.94442
0.000574881
3.94353
0.000573678
3.9426
0.000571966
3.94163
0.000569618
3.9406
0.000566489
3.93954
0.000562424
3.93842
0.000557255
3.93726
0.000550815
3.93605
0.000542939
3.93478
0.000533473
3.93347
0.000522287
3.93211
0.000509278
3.93069
0.000494385
3.92921
0.000477593
3.92768
0.000458941
3.92609
0.000438525
3.92445
0.000416497
3.92274
0.000393063
3.92098
0.000368477
3.91916
0.00034303
3.91727
0.000317045
3.91532
0.000290858
3.91331
0.000264808
3.91124
0.000239226
3.90911
0.000214417
3.90691
0.000190656
3.90464
0.000168176
3.90231
0.000147163
3.89992
0.000127754
3.89745
0.000110038
3.89492
9.40537e-05
3.89233
7.97969e-05
3.88966
6.72251e-05
3.88693
5.62639e-05
3.88413
4.68135e-05
3.88126
3.87561e-05
3.87832
3.19624e-05
3.87532
2.62975e-05
3.87224
2.16263e-05
3.86909
1.78177e-05
3.86587
1.47477e-05
3.86258
1.2302e-05
3.85921
1.03771e-05
3.85578
8.88147e-06
3.85227
7.73527e-06
3.84869
6.87016e-06
3.84504
6.2286e-06
3.84131
5.76271e-06
3.83751
5.43329e-06
3.83364
5.20885e-06
3.82969
5.06413e-06
3.82567
4.97939e-06
3.82157
4.9391e-06
3.81739
4.93134e-06
3.81314
4.94705e-06
3.80881
4.97957e-06
3.80441
5.02388e-06
3.79993
5.07645e-06
3.79537
5.13461e-06
3.79074
5.19657e-06
3.78602
5.26096e-06
3.78123
5.32692e-06
3.77636
5.3938e-06
3.77141
5.46124e-06
3.76638
5.52888e-06
3.76127
5.59665e-06
3.75608
5.66428e-06
3.75081
5.73168e-06
3.74546
5.79867e-06
3.74003
5.86533e-06
3.73451
5.93154e-06
3.72892
5.99734e-06
3.72324
6.06279e-06
3.71748
6.12788e-06
3.71164
6.19248e-06
3.70571
6.25661e-06
3.69971
6.32024e-06
3.69361
6.38339e-06
3.68744
6.44593e-06
3.68118
6.50796e-06
3.67483
6.56942e-06
3.66841
6.63041e-06
3.66189
6.6908e-06
3.65529
6.7506e-06
3.64861
6.80982e-06
3.64184
6.86848e-06
3.63498
6.92656e-06
3.62804
6.98396e-06
3.62101
7.0407e-06
3.6139
7.09681e-06
3.6067
7.1523e-06
3.59941
7.20712e-06
3.59203
7.26118e-06
3.58457
7.31444e-06
3.57702
7.36701e-06
3.56938
7.4188e-06
3.56165
7.46977e-06
3.55384
7.51992e-06
3.54594
7.5692e-06
3.53795
7.61765e-06
3.52987
7.66525e-06
3.52171
7.71187e-06
3.51345
7.75754e-06
3.50511
7.80207e-06
3.49668
7.84583e-06
3.48816
7.88857e-06
3.47955
7.93041e-06
3.47086
7.97107e-06
3.46207
8.0106e-06
3.4532
8.04894e-06
3.44424
8.08643e-06
3.43519
8.12289e-06
3.42605
8.15836e-06
3.41682
8.1926e-06
3.40751
8.22557e-06
3.3981
8.2575e-06
3.38861
8.28807e-06
3.37903
8.31773e-06
3.36936
8.34606e-06
3.3596
8.3733e-06
3.34976
8.39914e-06
3.33982
8.42383e-06
3.3298
8.44663e-06
3.31969
8.46946e-06
3.3095
8.48834e-06
3.29921
8.51111e-06
3.28884
8.52031e-06
3.27838
8.55733e-06
3.26784
8.52444e-06
3.25721
8.64929e-06
3.24649
8.44006e-06
3.23568
8.94949e-06
3.2248
8.43699e-06
3.21382
1.08713e-05
3.20276
1.55423e-05
3.1916
4.83977e-05
3.18033
0.000199799
3.1688
0.000963595
3.15636
0.00470933
3.1398
0.0229726
3.10433
0.108506
2.97635
0.538135
1.63657
2.62042
17.2639
0.000570171
17.264
0.000461768
17.2641
0.000412788
17.2641
0.000423969
17.2642
0.000425845
17.2642
0.000425081
17.2643
0.000425128
17.2643
0.00042532
17.2643
0.000425462
17.2643
0.000425599
17.2643
0.000425741
17.2643
0.000425883
17.2643
0.000426025
17.2643
0.000426168
17.2642
0.000426304
17.2642
0.000426465
17.2641
0.000426611
17.264
0.000426745
17.2638
0.00042688
17.2637
0.000427033
17.2635
0.00042718
17.2632
0.000427326
17.263
0.000427471
17.2627
0.000427618
17.2624
0.000427764
17.262
0.000427911
17.2616
0.000428059
17.2612
0.000428208
17.2607
0.000428357
17.2601
0.000428508
17.2595
0.00042866
17.2588
0.000428814
17.2581
0.000428971
17.2573
0.00042913
17.2565
0.000429292
17.2555
0.000429457
17.2545
0.000429625
17.2534
0.000429797
17.2522
0.000429972
17.251
0.00043015
17.2496
0.000430334
17.2482
0.000430519
17.2466
0.00043071
17.245
0.000430899
17.2432
0.000431094
17.2413
0.000431287
17.2392
0.00043148
17.2371
0.00043167
17.2348
0.000431854
17.2324
0.000432027
17.2298
0.000432181
17.2271
0.000432307
17.2243
0.000432389
17.2213
0.000432408
17.2181
0.000432337
17.2148
0.00043214
17.2113
0.000431772
17.2076
0.000431175
17.2037
0.000430279
17.1996
0.000429004
17.1954
0.000427255
17.1909
0.000424923
17.1863
0.000421892
17.1814
0.000418038
17.1763
0.000413235
17.171
0.000407359
17.1655
0.000400296
17.1598
0.000391947
17.1538
0.000382235
17.1477
0.000371114
17.1412
0.000358571
17.1345
0.000344636
17.1276
0.000329378
17.1204
0.00031291
17.113
0.000295385
17.1053
0.000276991
17.0974
0.000257948
17.0891
0.000238493
17.0806
0.000218879
17.0719
0.00019936
17.0628
0.000180182
17.0535
0.000161574
17.0439
0.000143743
17.034
0.000126864
17.0239
0.000111077
17.0134
9.64873e-05
17.0027
8.31606e-05
16.9917
7.11283e-05
16.9803
6.03887e-05
16.9687
5.09112e-05
16.9568
4.26411e-05
16.9446
3.55047e-05
16.9321
2.94147e-05
16.9192
2.42747e-05
16.9061
1.99845e-05
16.8927
1.64429e-05
16.8789
1.35519e-05
16.8649
1.12186e-05
16.8505
9.35724e-06
16.8359
7.89012e-06
16.8209
6.74826e-06
16.8056
5.87159e-06
16.79
5.20852e-06
16.774
4.71558e-06
16.7578
4.35654e-06
16.7412
4.1017e-06
16.7243
3.92714e-06
16.7071
3.8137e-06
16.6895
3.74631e-06
16.6716
3.71312e-06
16.6534
3.70503e-06
16.6349
3.71509e-06
16.616
3.73817e-06
16.5968
3.77043e-06
16.5772
3.80914e-06
16.5574
3.85223e-06
16.5371
3.89831e-06
16.5166
3.94634e-06
16.4957
3.99561e-06
16.4744
4.04563e-06
16.4528
4.09612e-06
16.4309
4.14679e-06
16.4086
4.19756e-06
16.3859
4.24825e-06
16.3629
4.29878e-06
16.3396
4.34901e-06
16.3159
4.399e-06
16.2919
4.44865e-06
16.2674
4.498e-06
16.2427
4.54708e-06
16.2176
4.59589e-06
16.1921
4.64434e-06
16.1662
4.69244e-06
16.14
4.74016e-06
16.1134
4.78753e-06
16.0865
4.83443e-06
16.0592
4.88095e-06
16.0315
4.92705e-06
16.0035
4.97279e-06
15.975
5.01808e-06
15.9463
5.06293e-06
15.9171
5.10734e-06
15.8876
5.15135e-06
15.8577
5.1949e-06
15.8274
5.23795e-06
15.7967
5.2805e-06
15.7657
5.32258e-06
15.7343
5.36421e-06
15.7025
5.40532e-06
15.6703
5.44586e-06
15.6377
5.48581e-06
15.6048
5.52524e-06
15.5715
5.56409e-06
15.5378
5.6023e-06
15.5037
5.63992e-06
15.4692
5.67687e-06
15.4343
5.71322e-06
15.3991
5.74892e-06
15.3635
5.78387e-06
15.3275
5.81816e-06
15.2911
5.85149e-06
15.2543
5.88438e-06
15.2171
5.91639e-06
15.1796
5.94779e-06
15.1417
5.97826e-06
15.1033
6.00798e-06
15.0646
6.03664e-06
15.0255
6.0648e-06
14.986
6.09214e-06
14.9462
6.11875e-06
14.9059
6.14446e-06
14.8653
6.1691e-06
14.8243
6.19318e-06
14.7829
6.21595e-06
14.7411
6.2384e-06
14.6989
6.25942e-06
14.6563
6.27999e-06
14.6134
6.29927e-06
14.57
6.31806e-06
14.5263
6.33446e-06
14.4822
6.35281e-06
14.4377
6.36492e-06
14.3929
6.38651e-06
14.3476
6.38212e-06
14.302
6.4383e-06
14.256
6.34611e-06
14.2096
6.59727e-06
14.1629
6.12451e-06
14.1157
7.19234e-06
14.0682
6.02776e-06
14.0203
1.09031e-05
13.9721
1.94527e-05
13.9234
8.23513e-05
13.8742
0.000369862
13.824
0.00182375
13.77
0.0089499
13.6992
0.0436407
13.5515
0.205841
13.0673
0.971526
2.97626
11.6763
17.2639
0.000367783
17.264
0.000314033
17.264
0.000273699
17.2641
0.000282085
17.2642
0.000284115
17.2642
0.000283394
17.2642
0.000283387
17.2643
0.000283533
17.2643
0.000283631
17.2643
0.000283724
17.2643
0.000283822
17.2643
0.000283919
17.2643
0.000284015
17.2643
0.000284112
17.2642
0.000284204
17.2641
0.000284311
17.264
0.000284409
17.2639
0.000284499
17.2638
0.000284589
17.2636
0.000284691
17.2635
0.000284789
17.2632
0.000284886
17.263
0.000284983
17.2627
0.000285081
17.2624
0.000285179
17.262
0.000285276
17.2616
0.000285375
17.2612
0.000285474
17.2607
0.000285573
17.2601
0.000285673
17.2595
0.000285775
17.2588
0.000285878
17.2581
0.000285982
17.2573
0.000286088
17.2564
0.000286196
17.2555
0.000286306
17.2545
0.000286418
17.2534
0.000286532
17.2522
0.000286648
17.251
0.000286767
17.2496
0.00028689
17.2482
0.000287013
17.2466
0.000287141
17.2449
0.000287266
17.2432
0.000287396
17.2413
0.000287525
17.2392
0.000287654
17.2371
0.00028778
17.2348
0.000287903
17.2324
0.000288018
17.2298
0.000288121
17.2271
0.000288205
17.2243
0.000288261
17.2212
0.000288274
17.2181
0.000288227
17.2147
0.000288098
17.2112
0.000287854
17.2075
0.000287459
17.2037
0.000286866
17.1996
0.00028602
17.1954
0.00028486
17.1909
0.000283313
17.1863
0.000281302
17.1814
0.000278744
17.1763
0.000275556
17.171
0.000271654
17.1655
0.000266963
17.1598
0.000261418
17.1538
0.000254965
17.1476
0.000247575
17.1412
0.000239238
17.1345
0.000229973
17.1276
0.000219827
17.1204
0.000208873
17.113
0.000197212
17.1053
0.000184971
17.0973