/*--------------------------------*- C++ -*----------------------------------*\
| =========                 |                                                 |
| \\      /  F ield         | OpenFOAM: The Open Source CFD Toolbox           |
|  \\    /   O peration     | Version:  3.0.x                                 |
|   \\  /    A nd           | Web:      www.OpenFOAM.org                      |
|    \\/     M anipulation  |                                                 |
\*---------------------------------------------------------------------------*/
FoamFile
{
    version     2.0;
    format      ascii;
    class       volVectorField;
    location    "0.46995";
    object      U;
}
// * * * * * * * * * * * * * * * * * * * * * * * * * * * * * * * * * * * * * //

dimensions      [0 1 -1 0 0 0 0];

internalField   nonuniform List<vector> 
27600
(
(42.6849 0.000288117 0)
(42.67 0.000241407 0)
(42.655 0.000238348 0)
(42.6399 0.000240617 0)
(42.6248 0.000242864 0)
(42.6097 0.000244884 0)
(42.5946 0.000246656 0)
(42.5794 0.000248191 0)
(42.5643 0.000249528 0)
(42.5491 0.000250704 0)
(42.5339 0.000251747 0)
(42.5187 0.00025268 0)
(42.5034 0.000253521 0)
(42.4881 0.000254285 0)
(42.4728 0.000254977 0)
(42.4574 0.000255621 0)
(42.442 0.000256207 0)
(42.4265 0.000256744 0)
(42.4109 0.00025724 0)
(42.3953 0.000257705 0)
(42.3797 0.000258134 0)
(42.3639 0.000258533 0)
(42.3481 0.000258904 0)
(42.3322 0.000259249 0)
(42.3162 0.000259569 0)
(42.3001 0.000259867 0)
(42.2839 0.000260145 0)
(42.2676 0.000260404 0)
(42.2511 0.000260644 0)
(42.2346 0.000260869 0)
(42.2179 0.000261077 0)
(42.201 0.000261271 0)
(42.184 0.000261452 0)
(42.1668 0.000261621 0)
(42.1495 0.000261778 0)
(42.1319 0.000261924 0)
(42.1142 0.00026206 0)
(42.0962 0.000262186 0)
(42.0781 0.000262304 0)
(42.0597 0.000262414 0)
(42.041 0.000262518 0)
(42.0222 0.000262614 0)
(42.003 0.000262701 0)
(41.9836 0.000262778 0)
(41.9638 0.000262851 0)
(41.9438 0.000262918 0)
(41.9235 0.000262977 0)
(41.9028 0.000263027 0)
(41.8818 0.000263069 0)
(41.8605 0.0002631 0)
(41.8387 0.000263117 0)
(41.8166 0.000263118 0)
(41.7941 0.000263095 0)
(41.7712 0.00026304 0)
(41.7479 0.000262941 0)
(41.7242 0.000262785 0)
(41.7 0.000262552 0)
(41.6754 0.000262214 0)
(41.6503 0.000261742 0)
(41.6248 0.000261095 0)
(41.5988 0.000260231 0)
(41.5724 0.000259095 0)
(41.5455 0.000257631 0)
(41.5183 0.000255773 0)
(41.4905 0.000253455 0)
(41.4624 0.000250606 0)
(41.4339 0.000247159 0)
(41.4051 0.000243051 0)
(41.3759 0.000238224 0)
(41.3465 0.000232636 0)
(41.3168 0.000226256 0)
(41.2869 0.000219073 0)
(41.2568 0.000211097 0)
(41.2266 0.000202359 0)
(41.1962 0.000192912 0)
(41.1658 0.000182833 0)
(41.1352 0.000172218 0)
(41.1047 0.000161179 0)
(41.0741 0.000149844 0)
(41.0434 0.000138347 0)
(41.0127 0.000126828 0)
(40.982 0.000115426 0)
(40.9511 0.000104272 0)
(40.9202 9.34891e-05 0)
(40.889 8.3185e-05 0)
(40.8577 7.34506e-05 0)
(40.8262 6.4358e-05 0)
(40.7943 5.59594e-05 0)
(40.7622 4.82873e-05 0)
(40.7296 4.13554e-05 0)
(40.6967 3.516e-05 0)
(40.6632 2.96823e-05 0)
(40.6293 2.48907e-05 0)
(40.5947 2.07436e-05 0)
(40.5596 1.71924e-05 0)
(40.5239 1.41834e-05 0)
(40.4875 1.16609e-05 0)
(40.4504 9.56847e-06 0)
(40.4125 7.85141e-06 0)
(40.374 6.45749e-06 0)
(40.3347 5.33821e-06 0)
(40.2946 4.44943e-06 0)
(40.2537 3.75167e-06 0)
(40.212 3.21036e-06 0)
(40.1695 2.79563e-06 0)
(40.1261 2.48219e-06 0)
(40.082 2.24897e-06 0)
(40.037 2.07873e-06 0)
(39.9911 1.95757e-06 0)
(39.9444 1.8744e-06 0)
(39.8969 1.82024e-06 0)
(39.8485 1.78812e-06 0)
(39.7992 1.77248e-06 0)
(39.7491 1.76893e-06 0)
(39.698 1.77413e-06 0)
(39.6461 1.78546e-06 0)
(39.5934 1.80104e-06 0)
(39.5397 1.8195e-06 0)
(39.4851 1.83986e-06 0)
(39.4297 1.86144e-06 0)
(39.3734 1.8838e-06 0)
(39.3161 1.90658e-06 0)
(39.258 1.92964e-06 0)
(39.1989 1.95278e-06 0)
(39.139 1.9759e-06 0)
(39.0781 1.99891e-06 0)
(39.0164 2.02179e-06 0)
(38.9537 2.04451e-06 0)
(38.89 2.06706e-06 0)
(38.8255 2.08944e-06 0)
(38.76 2.11166e-06 0)
(38.6936 2.13367e-06 0)
(38.6263 2.15547e-06 0)
(38.558 2.17705e-06 0)
(38.4888 2.1984e-06 0)
(38.4187 2.21949e-06 0)
(38.3476 2.24036e-06 0)
(38.2755 2.26096e-06 0)
(38.2026 2.28134e-06 0)
(38.1286 2.30145e-06 0)
(38.0537 2.32131e-06 0)
(37.9779 2.3409e-06 0)
(37.9011 2.36024e-06 0)
(37.8233 2.37931e-06 0)
(37.7446 2.39809e-06 0)
(37.6649 2.41657e-06 0)
(37.5842 2.43479e-06 0)
(37.5026 2.45272e-06 0)
(37.42 2.47038e-06 0)
(37.3365 2.48769e-06 0)
(37.2519 2.50468e-06 0)
(37.1664 2.52138e-06 0)
(37.0799 2.53774e-06 0)
(36.9925 2.55377e-06 0)
(36.9041 2.56945e-06 0)
(36.8147 2.58477e-06 0)
(36.7243 2.59973e-06 0)
(36.6329 2.61433e-06 0)
(36.5406 2.62854e-06 0)
(36.4473 2.64233e-06 0)
(36.353 2.65568e-06 0)
(36.2578 2.66865e-06 0)
(36.1616 2.68123e-06 0)
(36.0644 2.69339e-06 0)
(35.9662 2.70508e-06 0)
(35.8671 2.71628e-06 0)
(35.7669 2.727e-06 0)
(35.6659 2.7373e-06 0)
(35.5638 2.74719e-06 0)
(35.4608 2.75663e-06 0)
(35.3568 2.76558e-06 0)
(35.2518 2.77402e-06 0)
(35.1459 2.78194e-06 0)
(35.039 2.78938e-06 0)
(34.9312 2.79635e-06 0)
(34.8224 2.80286e-06 0)
(34.7126 2.80885e-06 0)
(34.6019 2.81432e-06 0)
(34.4902 2.81924e-06 0)
(34.3775 2.82367e-06 0)
(34.264 2.82753e-06 0)
(34.1494 2.83088e-06 0)
(34.034 2.83354e-06 0)
(33.9175 2.83601e-06 0)
(33.8002 2.83718e-06 0)
(33.6819 2.83906e-06 0)
(33.5627 2.83876e-06 0)
(33.4425 2.83919e-06 0)
(33.3215 2.84172e-06 0)
(33.1995 2.83846e-06 0)
(33.0766 2.87709e-06 0)
(32.9527 2.97711e-06 0)
(32.828 3.67069e-06 0)
(32.7021 7.11517e-06 0)
(32.5743 2.51287e-05 0)
(32.4408 0.000113574 0)
(32.2833 0.000544026 0)
(32.0127 0.00256377 0)
(31.5226 0.0135223 0)
(27.5826 0.0450803 0)
(42.7002 0.000462905 0)
(42.7004 0.000329807 0)
(42.7006 0.000313336 0)
(42.7008 0.000310408 0)
(42.7008 0.000308067 0)
(42.7009 0.000306212 0)
(42.701 0.000304701 0)
(42.701 0.000303386 0)
(42.701 0.000302209 0)
(42.701 0.000301144 0)
(42.7009 0.00030017 0)
(42.7008 0.000299273 0)
(42.7007 0.000298443 0)
(42.7005 0.000297672 0)
(42.7002 0.000296946 0)
(42.6999 0.000296286 0)
(42.6996 0.000295655 0)
(42.6992 0.000295056 0)
(42.6987 0.000294491 0)
(42.6981 0.000293972 0)
(42.6975 0.000293476 0)
(42.6968 0.000293009 0)
(42.696 0.000292567 0)
(42.6951 0.000292149 0)
(42.6941 0.000291753 0)
(42.693 0.000291379 0)
(42.6918 0.000291025 0)
(42.6905 0.00029069 0)
(42.689 0.000290373 0)
(42.6874 0.000290073 0)
(42.6856 0.000289791 0)
(42.6837 0.000289524 0)
(42.6816 0.000289272 0)
(42.6794 0.000289036 0)
(42.6769 0.000288814 0)
(42.6743 0.000288606 0)
(42.6715 0.000288412 0)
(42.6684 0.00028823 0)
(42.6651 0.000288061 0)
(42.6616 0.000287905 0)
(42.6578 0.000287763 0)
(42.6538 0.00028763 0)
(42.6495 0.000287508 0)
(42.6449 0.000287393 0)
(42.64 0.00028729 0)
(42.6348 0.000287194 0)
(42.6293 0.000287106 0)
(42.6234 0.000287022 0)
(42.6172 0.000286942 0)
(42.6107 0.000286861 0)
(42.6037 0.000286775 0)
(42.5964 0.000286678 0)
(42.5887 0.00028656 0)
(42.5805 0.000286408 0)
(42.5719 0.000286207 0)
(42.5629 0.000285934 0)
(42.5535 0.000285561 0)
(42.5435 0.000285051 0)
(42.5331 0.000284362 0)
(42.5223 0.000283443 0)
(42.5109 0.000282233 0)
(42.499 0.000280665 0)
(42.4866 0.000278664 0)
(42.4737 0.000276151 0)
(42.4602 0.000273045 0)
(42.4462 0.000269266 0)
(42.4317 0.000264737 0)
(42.4166 0.000259393 0)
(42.4009 0.000253179 0)
(42.3847 0.000246061 0)
(42.3679 0.000238024 0)
(42.3506 0.000229081 0)
(42.3326 0.00021927 0)
(42.314 0.000208656 0)
(42.2949 0.000197332 0)
(42.2751 0.000185413 0)
(42.2546 0.000173036 0)
(42.2336 0.000160352 0)
(42.2118 0.000147522 0)
(42.1894 0.000134711 0)
(42.1663 0.000122079 0)
(42.1425 0.00010978 0)
(42.1179 9.79524e-05 0)
(42.0926 8.67147e-05 0)
(42.0666 7.61658e-05 0)
(42.0398 6.63802e-05 0)
(42.0122 5.74086e-05 0)
(41.9838 4.9278e-05 0)
(41.9547 4.19937e-05 0)
(41.9247 3.55414e-05 0)
(41.8939 2.98901e-05 0)
(41.8624 2.49954e-05 0)
(41.83 2.08029e-05 0)
(41.7967 1.72516e-05 0)
(41.7627 1.42766e-05 0)
(41.7278 1.1812e-05 0)
(41.6921 9.79314e-06 0)
(41.6556 8.15809e-06 0)
(41.6182 6.84929e-06 0)
(41.58 5.8142e-06 0)
(41.541 5.0059e-06 0)
(41.5011 4.38323e-06 0)
(41.4604 3.91076e-06 0)
(41.4189 3.55839e-06 0)
(41.3765 3.301e-06 0)
(41.3333 3.11789e-06 0)
(41.2892 2.99237e-06 0)
(41.2442 2.911e-06 0)
(41.1985 2.86312e-06 0)
(41.1518 2.84029e-06 0)
(41.1043 2.83601e-06 0)
(41.0559 2.84522e-06 0)
(41.0067 2.86416e-06 0)
(40.9566 2.88997e-06 0)
(40.9056 2.92063e-06 0)
(40.8537 2.95457e-06 0)
(40.801 2.9908e-06 0)
(40.7473 3.02846e-06 0)
(40.6928 3.06706e-06 0)
(40.6374 3.10623e-06 0)
(40.5811 3.14575e-06 0)
(40.5239 3.18542e-06 0)
(40.4658 3.22517e-06 0)
(40.4067 3.26488e-06 0)
(40.3468 3.30448e-06 0)
(40.286 3.34388e-06 0)
(40.2242 3.3831e-06 0)
(40.1616 3.42208e-06 0)
(40.098 3.46086e-06 0)
(40.0335 3.49945e-06 0)
(39.968 3.53788e-06 0)
(39.9017 3.57605e-06 0)
(39.8344 3.61399e-06 0)
(39.7661 3.65165e-06 0)
(39.6969 3.68908e-06 0)
(39.6268 3.7262e-06 0)
(39.5558 3.76306e-06 0)
(39.4837 3.79963e-06 0)
(39.4108 3.83596e-06 0)
(39.3369 3.87199e-06 0)
(39.262 3.90772e-06 0)
(39.1862 3.94314e-06 0)
(39.1094 3.97829e-06 0)
(39.0317 4.01313e-06 0)
(38.953 4.04765e-06 0)
(38.8733 4.08183e-06 0)
(38.7927 4.11568e-06 0)
(38.7111 4.14922e-06 0)
(38.6285 4.18241e-06 0)
(38.545 4.21521e-06 0)
(38.4605 4.24759e-06 0)
(38.375 4.27961e-06 0)
(38.2886 4.31123e-06 0)
(38.2011 4.34242e-06 0)
(38.1127 4.37319e-06 0)
(38.0233 4.4035e-06 0)
(37.933 4.43339e-06 0)
(37.8417 4.46282e-06 0)
(37.7494 4.49176e-06 0)
(37.6561 4.52015e-06 0)
(37.5618 4.54801e-06 0)
(37.4666 4.5754e-06 0)
(37.3704 4.60229e-06 0)
(37.2732 4.6287e-06 0)
(37.1751 4.65449e-06 0)
(37.0759 4.67965e-06 0)
(36.9758 4.70421e-06 0)
(36.8748 4.72831e-06 0)
(36.7727 4.75187e-06 0)
(36.6697 4.7749e-06 0)
(36.5657 4.79728e-06 0)
(36.4608 4.819e-06 0)
(36.3549 4.84011e-06 0)
(36.248 4.86057e-06 0)
(36.1402 4.88047e-06 0)
(36.0314 4.89979e-06 0)
(35.9216 4.91842e-06 0)
(35.8109 4.93637e-06 0)
(35.6992 4.95359e-06 0)
(35.5866 4.97014e-06 0)
(35.473 4.98597e-06 0)
(35.3585 5.00113e-06 0)
(35.243 5.01539e-06 0)
(35.1266 5.02928e-06 0)
(35.0092 5.04175e-06 0)
(34.8909 5.05413e-06 0)
(34.7717 5.06705e-06 0)
(34.6516 5.07216e-06 0)
(34.5305 5.10357e-06 0)
(34.4085 5.09487e-06 0)
(34.2856 5.26604e-06 0)
(34.1617 5.66147e-06 0)
(34.0369 8.15208e-06 0)
(33.911 1.95647e-05 0)
(33.7832 7.69458e-05 0)
(33.6495 0.000357963 0)
(33.4913 0.00172241 0)
(33.2175 0.0081359 0)
(32.6983 0.0411804 0)
(28.8321 0.128894 0)
(42.7002 0.000369096 0)
(42.7005 0.000238611 0)
(42.7007 0.000231754 0)
(42.7008 0.000235278 0)
(42.7009 0.000236599 0)
(42.701 0.00023756 0)
(42.7011 0.000238523 0)
(42.7012 0.000239453 0)
(42.7013 0.000240349 0)
(42.7013 0.000241221 0)
(42.7013 0.000242066 0)
(42.7013 0.000242885 0)
(42.7013 0.000243677 0)
(42.7012 0.000244442 0)
(42.701 0.000245174 0)
(42.7008 0.000245898 0)
(42.7006 0.000246585 0)
(42.7003 0.00024724 0)
(42.7 0.000247871 0)
(42.6996 0.000248494 0)
(42.6991 0.000249088 0)
(42.6985 0.000249661 0)
(42.6979 0.000250215 0)
(42.6971 0.00025075 0)
(42.6963 0.000251267 0)
(42.6954 0.000251767 0)
(42.6944 0.000252252 0)
(42.6932 0.000252721 0)
(42.6919 0.000253177 0)
(42.6905 0.000253619 0)
(42.689 0.000254048 0)
(42.6873 0.000254467 0)
(42.6854 0.000254874 0)
(42.6834 0.000255272 0)
(42.6812 0.00025566 0)
(42.6788 0.000256039 0)
(42.6762 0.00025641 0)
(42.6734 0.000256774 0)
(42.6704 0.000257131 0)
(42.6671 0.00025748 0)
(42.6636 0.000257824 0)
(42.6598 0.000258161 0)
(42.6558 0.000258493 0)
(42.6515 0.000258819 0)
(42.6469 0.000259138 0)
(42.6421 0.000259451 0)
(42.6368 0.000259756 0)
(42.6313 0.000260053 0)
(42.6254 0.00026034 0)
(42.6192 0.000260614 0)
(42.6126 0.00026087 0)
(42.6056 0.000261101 0)
(42.5982 0.000261298 0)
(42.5904 0.000261449 0)
(42.5822 0.000261536 0)
(42.5735 0.000261537 0)
(42.5644 0.00026142 0)
(42.5549 0.00026115 0)
(42.5448 0.000260683 0)
(42.5343 0.000259965 0)
(42.5233 0.000258936 0)
(42.5118 0.000257529 0)
(42.4997 0.000255667 0)
(42.4871 0.000253274 0)
(42.4739 0.00025027 0)
(42.4602 0.000246579 0)
(42.4459 0.000242131 0)
(42.431 0.000236867 0)
(42.4156 0.000230743 0)
(42.3995 0.000223733 0)
(42.3827 0.000215837 0)
(42.3654 0.000207079 0)
(42.3474 0.00019751 0)
(42.3287 0.000187209 0)
(42.3094 0.000176277 0)
(42.2894 0.00016484 0)
(42.2687 0.000153039 0)
(42.2474 0.000141028 0)
(42.2253 0.000128966 0)
(42.2025 0.000117014 0)
(42.179 0.000105322 0)
(42.1547 9.40319e-05 0)
(42.1297 8.32663e-05 0)
(42.104 7.31283e-05 0)
(42.0775 6.3698e-05 0)
(42.0503 5.50318e-05 0)
(42.0223 4.71627e-05 0)
(41.9936 4.01016e-05 0)
(41.9641 3.38394e-05 0)
(41.9338 2.83497e-05 0)
(41.9027 2.35924e-05 0)
(41.8709 1.95166e-05 0)
(41.8383 1.6064e-05 0)
(41.8048 1.31723e-05 0)
(41.7706 1.07775e-05 0)
(41.7356 8.81667e-06 0)
(41.6998 7.22937e-06 0)
(41.6631 5.95925e-06 0)
(41.6257 4.95497e-06 0)
(41.5874 4.17067e-06 0)
(41.5483 3.56617e-06 0)
(41.5084 3.10691e-06 0)
(41.4677 2.76356e-06 0)
(41.4261 2.51172e-06 0)
(41.3837 2.33115e-06 0)
(41.3404 2.20547e-06 0)
(41.2963 2.12148e-06 0)
(41.2514 2.06878e-06 0)
(41.2056 2.03926e-06 0)
(41.1589 2.02666e-06 0)
(41.1114 2.02619e-06 0)
(41.0631 2.03433e-06 0)
(41.0138 2.04855e-06 0)
(40.9637 2.06692e-06 0)
(40.9127 2.0882e-06 0)
(40.8608 2.11136e-06 0)
(40.8081 2.13578e-06 0)
(40.7545 2.16097e-06 0)
(40.6999 2.18664e-06 0)
(40.6445 2.21255e-06 0)
(40.5882 2.23859e-06 0)
(40.531 2.26462e-06 0)
(40.4729 2.29064e-06 0)
(40.4139 2.31654e-06 0)
(40.354 2.34227e-06 0)
(40.2931 2.3678e-06 0)
(40.2314 2.39313e-06 0)
(40.1687 2.41824e-06 0)
(40.1051 2.44311e-06 0)
(40.0406 2.46782e-06 0)
(39.9752 2.49234e-06 0)
(39.9088 2.51659e-06 0)
(39.8415 2.54062e-06 0)
(39.7733 2.56439e-06 0)
(39.7041 2.5879e-06 0)
(39.634 2.61112e-06 0)
(39.5629 2.63409e-06 0)
(39.4909 2.65674e-06 0)
(39.4179 2.67917e-06 0)
(39.344 2.7013e-06 0)
(39.2692 2.72312e-06 0)
(39.1933 2.74466e-06 0)
(39.1166 2.76592e-06 0)
(39.0388 2.78688e-06 0)
(38.9601 2.8075e-06 0)
(38.8805 2.82779e-06 0)
(38.7998 2.84777e-06 0)
(38.7182 2.86745e-06 0)
(38.6357 2.8868e-06 0)
(38.5521 2.90576e-06 0)
(38.4676 2.92435e-06 0)
(38.3822 2.94259e-06 0)
(38.2957 2.96046e-06 0)
(38.2083 2.97795e-06 0)
(38.1199 2.99503e-06 0)
(38.0305 3.01169e-06 0)
(37.9402 3.02796e-06 0)
(37.8488 3.04383e-06 0)
(37.7565 3.05923e-06 0)
(37.6633 3.07418e-06 0)
(37.569 3.08862e-06 0)
(37.4738 3.10265e-06 0)
(37.3776 3.11624e-06 0)
(37.2804 3.12939e-06 0)
(37.1822 3.14199e-06 0)
(37.0831 3.15407e-06 0)
(36.983 3.16561e-06 0)
(36.882 3.17673e-06 0)
(36.7799 3.18738e-06 0)
(36.6769 3.19758e-06 0)
(36.5729 3.20721e-06 0)
(36.468 3.21628e-06 0)
(36.3621 3.22482e-06 0)
(36.2552 3.23281e-06 0)
(36.1474 3.2403e-06 0)
(36.0386 3.24728e-06 0)
(35.9288 3.25368e-06 0)
(35.8181 3.2595e-06 0)
(35.7064 3.26472e-06 0)
(35.5938 3.26933e-06 0)
(35.4802 3.2734e-06 0)
(35.3657 3.27673e-06 0)
(35.2502 3.27965e-06 0)
(35.1338 3.28146e-06 0)
(35.0164 3.28403e-06 0)
(34.8981 3.28191e-06 0)
(34.7789 3.2909e-06 0)
(34.6588 3.27118e-06 0)
(34.5377 3.32147e-06 0)
(34.4157 3.27062e-06 0)
(34.2928 3.56858e-06 0)
(34.1689 4.21729e-06 0)
(34.0441 8.60599e-06 0)
(33.9182 2.89231e-05 0)
(33.7905 0.000131016 0)
(33.6572 0.000631502 0)
(33.5009 0.00306327 0)
(33.2356 0.0145163 0)
(32.7564 0.0727546 0)
(29.0607 0.225579 0)
(42.7002 0.000375194 0)
(42.7004 0.000276359 0)
(42.7007 0.000271605 0)
(42.7008 0.000276073 0)
(42.7009 0.000276939 0)
(42.701 0.000277099 0)
(42.7011 0.000277141 0)
(42.7012 0.000277042 0)
(42.7013 0.000276835 0)
(42.7013 0.000276564 0)
(42.7013 0.000276253 0)
(42.7013 0.000275919 0)
(42.7013 0.000275573 0)
(42.7012 0.000275223 0)
(42.701 0.000274871 0)
(42.7008 0.00027454 0)
(42.7006 0.000274208 0)
(42.7003 0.00027388 0)
(42.7 0.000273562 0)
(42.6996 0.000273269 0)
(42.6991 0.000272983 0)
(42.6985 0.00027271 0)
(42.6979 0.000272449 0)
(42.6971 0.000272201 0)
(42.6963 0.000271964 0)
(42.6954 0.00027174 0)
(42.6944 0.000271528 0)
(42.6932 0.000271326 0)
(42.6919 0.000271136 0)
(42.6905 0.000270957 0)
(42.689 0.000270788 0)
(42.6873 0.000270629 0)
(42.6854 0.000270482 0)
(42.6834 0.000270344 0)
(42.6812 0.000270216 0)
(42.6788 0.000270097 0)
(42.6762 0.000269989 0)
(42.6734 0.000269889 0)
(42.6704 0.000269798 0)
(42.6671 0.000269716 0)
(42.6636 0.000269643 0)
(42.6599 0.000269578 0)
(42.6559 0.000269521 0)
(42.6516 0.00026947 0)
(42.647 0.000269426 0)
(42.6421 0.000269387 0)
(42.6369 0.000269352 0)
(42.6313 0.000269321 0)
(42.6255 0.000269291 0)
(42.6192 0.000269258 0)
(42.6126 0.000269218 0)
(42.6056 0.000269165 0)
(42.5983 0.00026909 0)
(42.5905 0.000268981 0)
(42.5823 0.000268821 0)
(42.5736 0.00026859 0)
(42.5645 0.000268259 0)
(42.555 0.000267794 0)
(42.5449 0.000267154 0)
(42.5344 0.000266289 0)
(42.5234 0.000265142 0)
(42.5119 0.000263648 0)
(42.4998 0.000261736 0)
(42.4872 0.00025933 0)
(42.474 0.000256354 0)
(42.4603 0.000252732 0)
(42.446 0.000248395 0)
(42.4311 0.00024328 0)
(42.4157 0.000237339 0)
(42.3996 0.000230541 0)
(42.3829 0.000222878 0)
(42.3655 0.000214362 0)
(42.3475 0.000205035 0)
(42.3288 0.000194961 0)
(42.3095 0.000184231 0)
(42.2895 0.000172955 0)
(42.2688 0.000161266 0)
(42.2474 0.000149306 0)
(42.2253 0.000137228 0)
(42.2025 0.000125187 0)
(42.179 0.000113334 0)
(42.1548 0.000101809 0)
(42.1298 9.07421e-05 0)
(42.1041 8.02418e-05 0)
(42.0776 7.03981e-05 0)
(42.0504 6.12782e-05 0)
(42.0224 5.29269e-05 0)
(41.9936 4.5367e-05 0)
(41.9641 3.86013e-05 0)
(41.9338 3.26141e-05 0)
(41.9028 2.73751e-05 0)
(41.8709 2.28413e-05 0)
(41.8383 1.8961e-05 0)
(41.8049 1.56764e-05 0)
(41.7706 1.29266e-05 0)
(41.7356 1.065e-05 0)
(41.6998 8.78605e-06 0)
(41.6632 7.27733e-06 0)
(41.6257 6.07033e-06 0)
(41.5874 5.11633e-06 0)
(41.5484 4.37182e-06 0)
(41.5084 3.79865e-06 0)
(41.4677 3.36392e-06 0)
(41.4261 3.03968e-06 0)
(41.3837 2.80263e-06 0)
(41.3405 2.63362e-06 0)
(41.2964 2.51724e-06 0)
(41.2514 2.4411e-06 0)
(41.2056 2.39545e-06 0)
(41.159 2.37257e-06 0)
(41.1114 2.3665e-06 0)
(41.0631 2.37263e-06 0)
(41.0138 2.38756e-06 0)
(40.9637 2.4087e-06 0)
(40.9127 2.43422e-06 0)
(40.8609 2.46273e-06 0)
(40.8081 2.49328e-06 0)
(40.7545 2.52518e-06 0)
(40.7 2.55794e-06 0)
(40.6445 2.59123e-06 0)
(40.5882 2.62487e-06 0)
(40.531 2.65864e-06 0)
(40.4729 2.69252e-06 0)
(40.4139 2.72638e-06 0)
(40.354 2.76016e-06 0)
(40.2931 2.79378e-06 0)
(40.2314 2.82725e-06 0)
(40.1687 2.86054e-06 0)
(40.1051 2.89366e-06 0)
(40.0406 2.92663e-06 0)
(39.9752 2.95944e-06 0)
(39.9088 2.99205e-06 0)
(39.8415 3.02447e-06 0)
(39.7733 3.05665e-06 0)
(39.7041 3.08865e-06 0)
(39.634 3.12038e-06 0)
(39.5629 3.15187e-06 0)
(39.4909 3.18314e-06 0)
(39.418 3.21419e-06 0)
(39.3441 3.24499e-06 0)
(39.2692 3.27555e-06 0)
(39.1934 3.30584e-06 0)
(39.1166 3.3359e-06 0)
(39.0389 3.36568e-06 0)
(38.9602 3.3952e-06 0)
(38.8805 3.42442e-06 0)
(38.7999 3.45337e-06 0)
(38.7183 3.48203e-06 0)
(38.6357 3.51042e-06 0)
(38.5522 3.53845e-06 0)
(38.4677 3.56614e-06 0)
(38.3822 3.59351e-06 0)
(38.2957 3.62055e-06 0)
(38.2083 3.64722e-06 0)
(38.1199 3.67352e-06 0)
(38.0305 3.69944e-06 0)
(37.9402 3.72498e-06 0)
(37.8489 3.75014e-06 0)
(37.7566 3.77486e-06 0)
(37.6633 3.79915e-06 0)
(37.569 3.82295e-06 0)
(37.4738 3.84637e-06 0)
(37.3776 3.86936e-06 0)
(37.2804 3.89194e-06 0)
(37.1823 3.91399e-06 0)
(37.0831 3.93552e-06 0)
(36.983 3.95652e-06 0)
(36.882 3.97714e-06 0)
(36.7799 3.99728e-06 0)
(36.6769 4.01699e-06 0)
(36.5729 4.03613e-06 0)
(36.468 4.05471e-06 0)
(36.3621 4.07279e-06 0)
(36.2552 4.09029e-06 0)
(36.1474 4.10733e-06 0)
(36.0386 4.12383e-06 0)
(35.9288 4.13978e-06 0)
(35.8181 4.15512e-06 0)
(35.7064 4.16988e-06 0)
(35.5938 4.18397e-06 0)
(35.4802 4.19765e-06 0)
(35.3657 4.21034e-06 0)
(35.2502 4.22313e-06 0)
(35.1338 4.23361e-06 0)
(35.0164 4.24755e-06 0)
(34.8982 4.25081e-06 0)
(34.7789 4.27813e-06 0)
(34.6588 4.25105e-06 0)
(34.5377 4.34615e-06 0)
(34.4157 4.267e-06 0)
(34.2928 4.73145e-06 0)
(34.1689 5.67253e-06 0)
(34.0442 1.20987e-05 0)
(33.9183 4.1912e-05 0)
(33.7905 0.000192289 0)
(33.6573 0.000929523 0)
(33.5011 0.00451619 0)
(33.237 0.0213879 0)
(32.7636 0.107222 0)
(29.1726 0.331556 0)
(42.7002 0.000351879 0)
(42.7004 0.000251388 0)
(42.7006 0.000234888 0)
(42.7008 0.000235216 0)
(42.7009 0.000233728 0)
(42.701 0.000232615 0)
(42.7011 0.000232124 0)
(42.7012 0.000231929 0)
(42.7013 0.000231897 0)
(42.7013 0.00023198 0)
(42.7013 0.00023214 0)
(42.7013 0.000232352 0)
(42.7012 0.0002326 0)
(42.7011 0.000232872 0)
(42.701 0.000233153 0)
(42.7008 0.000233459 0)
(42.7006 0.000233761 0)
(42.7003 0.000234056 0)
(42.7 0.000234351 0)
(42.6995 0.000234656 0)
(42.6991 0.000234951 0)
(42.6985 0.000235241 0)
(42.6979 0.000235527 0)
(42.6971 0.000235807 0)
(42.6963 0.000236082 0)
(42.6954 0.000236351 0)
(42.6943 0.000236615 0)
(42.6932 0.000236873 0)
(42.6919 0.000237126 0)
(42.6905 0.000237375 0)
(42.689 0.000237619 0)
(42.6873 0.000237859 0)
(42.6854 0.000238095 0)
(42.6834 0.000238327 0)
(42.6812 0.000238556 0)
(42.6788 0.000238783 0)
(42.6762 0.000239007 0)
(42.6734 0.000239228 0)
(42.6704 0.000239447 0)
(42.6671 0.000239665 0)
(42.6636 0.000239881 0)
(42.6599 0.000240094 0)
(42.6558 0.000240307 0)
(42.6515 0.000240517 0)
(42.647 0.000240725 0)
(42.6421 0.000240929 0)
(42.6369 0.00024113 0)
(42.6313 0.000241327 0)
(42.6255 0.000241517 0)
(42.6192 0.000241698 0)
(42.6126 0.000241865 0)
(42.6056 0.000242012 0)
(42.5982 0.000242131 0)
(42.5905 0.000242211 0)
(42.5822 0.000242235 0)
(42.5736 0.000242184 0)
(42.5645 0.000242029 0)
(42.5549 0.000241737 0)
(42.5449 0.000241269 0)
(42.5344 0.000240577 0)
(42.5234 0.000239605 0)
(42.5118 0.000238292 0)
(42.4998 0.000236569 0)
(42.4872 0.000234366 0)
(42.474 0.000231609 0)
(42.4603 0.000228229 0)
(42.446 0.00022416 0)
(42.4311 0.000219348 0)
(42.4157 0.000213751 0)
(42.3996 0.000207344 0)
(42.3828 0.000200124 0)
(42.3655 0.000192111 0)
(42.3475 0.000183351 0)
(42.3288 0.000173911 0)
(42.3095 0.000163884 0)
(42.2895 0.000153382 0)
(42.2688 0.000142533 0)
(42.2474 0.000131478 0)
(42.2253 0.000120362 0)
(42.2025 0.000109332 0)
(42.179 9.8527e-05 0)
(42.1548 8.80782e-05 0)
(42.1298 7.81001e-05 0)
(42.1041 6.86892e-05 0)
(42.0776 5.99215e-05 0)
(42.0504 5.18514e-05 0)
(42.0224 4.45117e-05 0)
(41.9936 3.79148e-05 0)
(41.9641 3.20545e-05 0)
(41.9338 2.69085e-05 0)
(41.9028 2.24416e-05 0)
(41.8709 1.8608e-05 0)
(41.8383 1.53554e-05 0)
(41.8049 1.26267e-05 0)
(41.7706 1.03635e-05 0)
(41.7356 8.50761e-06 0)
(41.6998 7.00334e-06 0)
(41.6632 5.79828e-06 0)
(41.6257 4.84453e-06 0)
(41.5874 4.09912e-06 0)
(41.5484 3.52427e-06 0)
(41.5084 3.08735e-06 0)
(41.4677 2.76064e-06 0)
(41.4261 2.52099e-06 0)
(41.3837 2.34926e-06 0)
(41.3405 2.22988e-06 0)
(41.2964 2.1504e-06 0)
(41.2514 2.10091e-06 0)
(41.2056 2.07375e-06 0)
(41.159 2.06293e-06 0)
(41.1114 2.06394e-06 0)
(41.0631 2.07337e-06 0)
(41.0138 2.08877e-06 0)
(40.9637 2.1083e-06 0)
(40.9127 2.1307e-06 0)
(40.8609 2.15499e-06 0)
(40.8081 2.18054e-06 0)
(40.7545 2.20687e-06 0)
(40.7 2.23368e-06 0)
(40.6445 2.26072e-06 0)
(40.5882 2.2879e-06 0)
(40.531 2.31507e-06 0)
(40.4729 2.34223e-06 0)
(40.4139 2.36928e-06 0)
(40.354 2.39616e-06 0)
(40.2931 2.42283e-06 0)
(40.2314 2.44933e-06 0)
(40.1687 2.47559e-06 0)
(40.1051 2.50164e-06 0)
(40.0406 2.5275e-06 0)
(39.9752 2.55318e-06 0)
(39.9088 2.57862e-06 0)
(39.8415 2.60382e-06 0)
(39.7733 2.62876e-06 0)
(39.7041 2.65348e-06 0)
(39.634 2.67789e-06 0)
(39.5629 2.70205e-06 0)
(39.4909 2.72593e-06 0)
(39.418 2.74958e-06 0)
(39.3441 2.77293e-06 0)
(39.2692 2.79598e-06 0)
(39.1934 2.81876e-06 0)
(39.1166 2.84127e-06 0)
(39.0389 2.86348e-06 0)
(38.9602 2.88538e-06 0)
(38.8805 2.90695e-06 0)
(38.7999 2.92822e-06 0)
(38.7183 2.9492e-06 0)
(38.6357 2.96985e-06 0)
(38.5522 2.99014e-06 0)
(38.4677 3.01007e-06 0)
(38.3822 3.02966e-06 0)
(38.2957 3.04889e-06 0)
(38.2083 3.06773e-06 0)
(38.1199 3.0862e-06 0)
(38.0305 3.10426e-06 0)
(37.9402 3.12194e-06 0)
(37.8489 3.13922e-06 0)
(37.7566 3.15606e-06 0)
(37.6633 3.17246e-06 0)
(37.569 3.18835e-06 0)
(37.4738 3.20386e-06 0)
(37.3776 3.21893e-06 0)
(37.2804 3.23357e-06 0)
(37.1823 3.24768e-06 0)
(37.0831 3.26129e-06 0)
(36.983 3.27436e-06 0)
(36.882 3.28702e-06 0)
(36.7799 3.29922e-06 0)
(36.6769 3.31099e-06 0)
(36.5729 3.3222e-06 0)
(36.468 3.33285e-06 0)
(36.3621 3.34301e-06 0)
(36.2552 3.35259e-06 0)
(36.1474 3.36172e-06 0)
(36.0386 3.37031e-06 0)
(35.9288 3.37837e-06 0)
(35.8181 3.38583e-06 0)
(35.7064 3.39275e-06 0)
(35.5938 3.39895e-06 0)
(35.4802 3.40488e-06 0)
(35.3657 3.40959e-06 0)
(35.2502 3.41495e-06 0)
(35.1338 3.41682e-06 0)
(35.0164 3.42499e-06 0)
(34.8982 3.41615e-06 0)
(34.7789 3.44547e-06 0)
(34.6588 3.392e-06 0)
(34.5377 3.51978e-06 0)
(34.4157 3.39036e-06 0)
(34.2928 4.03291e-06 0)
(34.1689 5.31446e-06 0)
(34.0442 1.41793e-05 0)
(33.9183 5.50419e-05 0)
(33.7905 0.000260875 0)
(33.6573 0.00126977 0)
(33.5015 0.00618198 0)
(33.2388 0.0292412 0)
(32.7695 0.146033 0)
(29.2735 0.448994 0)
(42.7001 0.000330427 0)
(42.7004 0.000244287 0)
(42.7006 0.000231207 0)
(42.7008 0.000236594 0)
(42.7009 0.000238301 0)
(42.701 0.000239073 0)
(42.7011 0.000239777 0)
(42.7012 0.00024032 0)
(42.7013 0.00024072 0)
(42.7013 0.000241027 0)
(42.7013 0.000241266 0)
(42.7013 0.000241456 0)
(42.7012 0.000241608 0)
(42.7011 0.000241732 0)
(42.701 0.000241831 0)
(42.7008 0.000241928 0)
(42.7006 0.000242005 0)
(42.7003 0.000242066 0)
(42.6999 0.000242121 0)
(42.6995 0.000242183 0)
(42.6991 0.000242236 0)
(42.6985 0.000242286 0)
(42.6978 0.000242335 0)
(42.6971 0.000242383 0)
(42.6963 0.000242431 0)
(42.6954 0.000242478 0)
(42.6943 0.000242526 0)
(42.6932 0.000242574 0)
(42.6919 0.000242624 0)
(42.6905 0.000242674 0)
(42.6889 0.000242726 0)
(42.6872 0.000242779 0)
(42.6854 0.000242834 0)
(42.6834 0.000242891 0)
(42.6812 0.00024295 0)
(42.6788 0.000243012 0)
(42.6762 0.000243076 0)
(42.6734 0.000243142 0)
(42.6703 0.000243211 0)
(42.6671 0.000243283 0)
(42.6636 0.000243357 0)
(42.6598 0.000243434 0)
(42.6558 0.000243513 0)
(42.6515 0.000243593 0)
(42.647 0.000243675 0)
(42.6421 0.000243758 0)
(42.6369 0.00024384 0)
(42.6313 0.000243922 0)
(42.6254 0.000244001 0)
(42.6192 0.000244073 0)
(42.6126 0.000244136 0)
(42.6056 0.000244183 0)
(42.5982 0.000244207 0)
(42.5904 0.000244195 0)
(42.5822 0.000244135 0)
(42.5736 0.000244004 0)
(42.5645 0.000243779 0)
(42.5549 0.000243427 0)
(42.5449 0.00024291 0)
(42.5344 0.000242183 0)
(42.5234 0.000241192 0)
(42.5118 0.000239878 0)
(42.4998 0.000238175 0)
(42.4872 0.000236015 0)
(42.474 0.000233327 0)
(42.4603 0.000230041 0)
(42.446 0.000226094 0)
(42.4311 0.000221429 0)
(42.4156 0.000216003 0)
(42.3996 0.000209788 0)
(42.3828 0.000202778 0)
(42.3655 0.000194986 0)
(42.3475 0.000186451 0)
(42.3288 0.000177233 0)
(42.3095 0.000167417 0)
(42.2895 0.000157107 0)
(42.2688 0.000146423 0)
(42.2474 0.000135498 0)
(42.2253 0.000124472 0)
(42.2025 0.000113488 0)
(42.179 0.000102682 0)
(42.1548 9.21849e-05 0)
(42.1298 8.21121e-05 0)
(42.1041 7.25634e-05 0)
(42.0776 6.36193e-05 0)
(42.0504 5.53399e-05 0)
(42.0224 4.77647e-05 0)
(41.9936 4.09133e-05 0)
(41.9641 3.47868e-05 0)
(41.9338 2.93697e-05 0)
(41.9028 2.46333e-05 0)
(41.8709 2.05376e-05 0)
(41.8383 1.70348e-05 0)
(41.8049 1.40716e-05 0)
(41.7706 1.15923e-05 0)
(41.7356 9.54049e-06 0)
(41.6998 7.86116e-06 0)
(41.6632 6.50199e-06 0)
(41.6257 5.41447e-06 0)
(41.5874 4.55452e-06 0)
(41.5484 3.88287e-06 0)
(41.5084 3.36518e-06 0)
(41.4677 2.97188e-06 0)
(41.4261 2.67795e-06 0)
(41.3837 2.46247e-06 0)
(41.3405 2.30827e-06 0)
(41.2964 2.20145e-06 0)
(41.2514 2.13086e-06 0)
(41.2056 2.08768e-06 0)
(41.159 2.06498e-06 0)
(41.1114 2.05734e-06 0)
(41.0631 2.06067e-06 0)
(41.0138 2.07189e-06 0)
(40.9637 2.0887e-06 0)
(40.9127 2.10944e-06 0)
(40.8609 2.13287e-06 0)
(40.8081 2.15814e-06 0)
(40.7545 2.18463e-06 0)
(40.7 2.21189e-06 0)
(40.6445 2.23964e-06 0)
(40.5882 2.26769e-06 0)
(40.531 2.29587e-06 0)
(40.4729 2.32414e-06 0)
(40.4139 2.35238e-06 0)
(40.354 2.38054e-06 0)
(40.2931 2.40856e-06 0)
(40.2314 2.43645e-06 0)
(40.1687 2.46416e-06 0)
(40.1051 2.49171e-06 0)
(40.0406 2.51913e-06 0)
(39.9752 2.5464e-06 0)
(39.9088 2.57348e-06 0)
(39.8415 2.60038e-06 0)
(39.7733 2.62707e-06 0)
(39.7041 2.65358e-06 0)
(39.634 2.67983e-06 0)
(39.5629 2.7059e-06 0)
(39.4909 2.73173e-06 0)
(39.418 2.75737e-06 0)
(39.3441 2.78278e-06 0)
(39.2692 2.80795e-06 0)
(39.1934 2.83289e-06 0)
(39.1166 2.85761e-06 0)
(39.0389 2.88209e-06 0)
(38.9602 2.90631e-06 0)
(38.8805 2.93026e-06 0)
(38.7999 2.95396e-06 0)
(38.7183 2.9774e-06 0)
(38.6357 3.00058e-06 0)
(38.5522 3.02345e-06 0)
(38.4677 3.046e-06 0)
(38.3822 3.06826e-06 0)
(38.2957 3.09022e-06 0)
(38.2083 3.11185e-06 0)
(38.1199 3.13313e-06 0)
(38.0305 3.15407e-06 0)
(37.9402 3.17467e-06 0)
(37.8489 3.19493e-06 0)
(37.7566 3.21479e-06 0)
(37.6633 3.23426e-06 0)
(37.569 3.25328e-06 0)
(37.4738 3.27197e-06 0)
(37.3776 3.29026e-06 0)
(37.2804 3.30818e-06 0)
(37.1823 3.32562e-06 0)
(37.0831 3.3426e-06 0)
(36.983 3.3591e-06 0)
(36.882 3.37525e-06 0)
(36.7799 3.39098e-06 0)
(36.6769 3.40632e-06 0)
(36.5729 3.42115e-06 0)
(36.468 3.43547e-06 0)
(36.3621 3.44936e-06 0)
(36.2552 3.4627e-06 0)
(36.1474 3.47567e-06 0)
(36.0386 3.48811e-06 0)
(35.9288 3.5001e-06 0)
(35.8181 3.51152e-06 0)
(35.7064 3.52247e-06 0)
(35.5938 3.53268e-06 0)
(35.4802 3.54283e-06 0)
(35.3657 3.55153e-06 0)
(35.2502 3.56148e-06 0)
(35.1338 3.56669e-06 0)
(35.0164 3.58133e-06 0)
(34.8982 3.57198e-06 0)
(34.7789 3.6166e-06 0)
(34.6588 3.54639e-06 0)
(34.5377 3.72404e-06 0)
(34.4157 3.54964e-06 0)
(34.2928 4.40082e-06 0)
(34.1689 6.04942e-06 0)
(34.0442 1.7594e-05 0)
(33.9183 7.08585e-05 0)
(33.7906 0.000339524 0)
(33.6574 0.0016568 0)
(33.502 0.00807593 0)
(33.2417 0.0381445 0)
(32.7781 0.189582 0)
(29.3868 0.576551 0)
(42.7001 0.000273362 0)
(42.7004 0.000210817 0)
(42.7006 0.000194195 0)
(42.7008 0.000196848 0)
(42.7009 0.000195875 0)
(42.701 0.000193866 0)
(42.7011 0.000192181 0)
(42.7012 0.000190717 0)
(42.7012 0.000189417 0)
(42.7013 0.000188286 0)
(42.7013 0.000187307 0)
(42.7013 0.000186455 0)
(42.7012 0.000185711 0)
(42.7011 0.000185057 0)
(42.701 0.000184473 0)
(42.7008 0.000183963 0)
(42.7006 0.000183497 0)
(42.7003 0.000183069 0)
(42.6999 0.000182679 0)
(42.6995 0.00018233 0)
(42.699 0.000182005 0)
(42.6985 0.000181704 0)
(42.6978 0.000181426 0)
(42.6971 0.000181167 0)
(42.6963 0.000180927 0)
(42.6953 0.000180702 0)
(42.6943 0.000180493 0)