/*--------------------------------*- C++ -*----------------------------------*\
| =========                 |                                                 |
| \\      /  F ield         | OpenFOAM: The Open Source CFD Toolbox           |
|  \\    /   O peration     | Version:  3.0.x                                 |
|   \\  /    A nd           | Web:      www.OpenFOAM.org                      |
|    \\/     M anipulation  |                                                 |
\*---------------------------------------------------------------------------*/
FoamFile
{
    version     2.0;
    format      ascii;
    class       surfaceScalarField;
    location    "0.19";
    object      phi;
}
// * * * * * * * * * * * * * * * * * * * * * * * * * * * * * * * * * * * * * //

dimensions      [1 0 -1 0 0 0 0];

internalField   nonuniform List<scalar> 
12415
(
5.77994
0.000327836
5.77786
0.000234875
5.77581
0.000225694
5.77377
0.000227428
5.77173
0.000227959
5.7697
0.00022792
5.7677
0.000228013
5.76571
0.000228151
5.76374
0.000228269
5.76179
0.00022837
5.75986
0.000228458
5.75795
0.000228534
5.75607
0.0002286
5.75422
0.000228651
5.7524
0.000228671
5.75062
0.000228654
5.74887
0.000228675
5.74717
0.000228154
5.74549
0.000227736
5.74384
0.000226818
5.74221
0.000225313
5.74059
0.000223015
5.739
0.000219687
5.73743
0.000215084
5.73587
0.000208984
5.73433
0.00020122
5.73281
0.000191705
5.7313
0.00018046
5.7298
0.000167623
5.72832
0.000153451
5.72685
0.0001383
5.72538
0.000122599
5.72392
0.00010681
5.72247
9.13877e-05
5.72102
7.67445e-05
5.71957
6.32171e-05
5.71812
5.10493e-05
5.71666
4.03842e-05
5.7152
3.12691e-05
5.71374
2.36676e-05
5.71227
1.74784e-05
5.7108
1.25538e-05
5.70933
8.72791e-06
5.70786
5.81821e-06
5.70639
3.65381e-06
5.70492
2.07545e-06
5.70346
9.46957e-07
5.702
1.561e-07
5.70056
-3.80804e-07
5.69913
-7.41606e-07
5.69772
-9.77574e-07
5.69633
-1.12904e-06
5.69495
-1.22462e-06
5.6936
-1.28355e-06
5.69228
-1.31907e-06
5.69097
-1.33985e-06
5.68969
-1.35153e-06
5.68843
-1.35761e-06
5.6872
-1.36042e-06
5.68598
-1.36114e-06
5.68479
-1.36037e-06
5.68361
-1.35989e-06
5.68245
-1.35971e-06
5.6813
-1.35824e-06
5.68016
-1.35559e-06
5.67903
-1.35165e-06
5.67789
-1.34777e-06
5.67676
-1.34435e-06
5.67563
-1.34101e-06
5.67449
-1.33677e-06
5.67334
-1.33131e-06
5.67218
-1.32483e-06
5.67101
-1.31845e-06
5.66983
-1.31287e-06
5.66862
-1.30768e-06
5.6674
-1.30216e-06
5.66617
-1.29602e-06
5.66492
-1.2893e-06
5.66365
-1.28217e-06
5.66237
-1.27479e-06
5.66108
-1.26735e-06
5.65977
-1.25997e-06
5.65846
-1.25272e-06
5.65715
-1.24568e-06
5.65582
-1.2388e-06
5.6545
-1.23216e-06
5.65318
-1.22577e-06
5.65186
-1.21952e-06
5.65054
-1.21347e-06
5.64923
-1.20752e-06
5.64792
-1.20166e-06
5.64662
-1.19566e-06
5.64532
-1.18945e-06
5.64401
-1.18292e-06
5.64271
-1.17623e-06
5.64141
-1.16943e-06
5.64009
-1.16266e-06
5.63876
-1.15589e-06
5.63742
-1.14907e-06
5.63605
-1.14207e-06
5.63465
-1.13477e-06
5.63323
-1.12715e-06
5.63176
-1.11916e-06
5.63024
-1.11084e-06
5.62868
-1.10239e-06
5.62705
-1.0939e-06
5.62537
-1.08729e-06
5.62361
-1.07612e-06
5.62179
-1.06744e-06
5.61988
-1.05864e-06
5.61791
-1.05097e-06
5.61585
-1.04395e-06
5.61371
-1.03729e-06
5.61149
-1.03163e-06
5.6092
-1.02603e-06
5.60683
-1.02235e-06
5.6044
-1.0204e-06
5.6019
-1.01929e-06
5.59935
-1.01943e-06
5.59675
-1.02087e-06
5.59412
-1.02367e-06
5.59145
-1.02776e-06
5.58877
-1.03483e-06
5.58609
-1.04049e-06
5.5834
-1.05018e-06
5.58073
-1.05826e-06
5.57808
-1.06767e-06
5.57546
-1.07856e-06
5.57287
-1.09185e-06
5.57032
-1.09807e-06
5.56783
-1.10927e-06
5.56538
-1.12272e-06
5.56299
-1.1455e-06
5.56066
-1.15387e-06
5.55838
-1.16119e-06
5.55617
-1.16786e-06
5.55401
-1.17433e-06
5.55191
-1.1795e-06
5.54987
-1.18551e-06
5.54788
-1.1885e-06
5.54594
-1.19153e-06
5.54405
-1.19215e-06
5.54219
-1.19148e-06
5.54037
-1.18773e-06
5.53858
-1.18275e-06
5.5368
-1.17633e-06
5.53505
-1.16822e-06
5.5333
-1.15929e-06
5.53155
-1.14881e-06
5.52981
-1.13913e-06
5.52806
-1.14237e-06
5.5263
-1.10058e-06
5.52454
-1.09123e-06
5.52278
-1.0891e-06
5.52101
-1.07758e-06
5.51925
-1.06712e-06
5.51751
-1.05831e-06
5.51578
-1.05091e-06
5.51408
-1.04475e-06
5.51242
-1.04011e-06
5.5108
-1.03675e-06
5.50923
-1.03556e-06
5.50773
-1.03547e-06
5.50628
-1.03808e-06
5.50491
-1.04062e-06
5.5036
-1.046e-06
5.50236
-1.04981e-06
5.5012
-1.05634e-06
5.5001
-1.06069e-06
5.49907
-1.06698e-06
5.4981
-1.07192e-06
5.4972
-1.07762e-06
5.49636
-1.08332e-06
5.49558
-1.08947e-06
5.49487
-1.09569e-06
5.49422
-1.10296e-06
5.49363
-1.10966e-06
5.4931
-1.11723e-06
5.49263
-1.12405e-06
5.4922
-1.13053e-06
5.49182
-1.1362e-06
5.49147
-1.14047e-06
5.49114
-1.14332e-06
5.49081
-1.14478e-06
5.49049
-1.14426e-06
5.49015
-1.14302e-06
5.4898
-1.13993e-06
5.48942
-1.13666e-06
5.48901
-1.13187e-06
5.48857
-1.12653e-06
5.48809
-1.11007e-06
5.48759
-1.02139e-06
5.48706
-4.70729e-07
5.48651
3.42145e-06
5.48592
3.05335e-05
5.48516
0.000220322
5.4831
0.00154388
5.47185
0.0107686
5.3861
0.0853441
0.41834
4.96743
11.5606
0.00026045
11.557
0.000214724
11.5533
0.000191111
11.5497
0.000194812
11.5461
0.000196021
11.5426
0.000195587
11.5391
0.00019555
11.5356
0.000195679
11.5321
0.000195788
11.5287
0.000195878
11.5253
0.000195961
11.522
0.000196035
11.5187
0.000196101
11.5155
0.000196155
11.5124
0.000196184
11.5093
0.000196187
11.5063
0.000196181
11.5034
0.000195813
11.5005
0.000195439
11.4977
0.000194678
11.4949
0.000193413
11.4922
0.000191473
11.4894
0.000188651
11.4868
0.000184738
11.4841
0.000179543
11.4814
0.000172919
11.4788
0.000164789
11.4762
0.00015517
11.4735
0.000144178
11.4709
0.000132032
11.4682
0.000119036
11.4656
0.000105559
11.4629
9.19959e-05
11.4602
7.87409e-05
11.4574
6.6148e-05
11.4547
5.45085e-05
11.4519
4.40335e-05
11.4491
3.48479e-05
11.4462
2.69937e-05
11.4433
2.04408e-05
11.4404
1.51031e-05
11.4375
1.08548e-05
11.4346
7.55197e-06
11.4317
5.0403e-06
11.4287
3.17122e-06
11.4258
1.80818e-06
11.4229
8.30502e-07
11.42
1.42198e-07
11.4171
-3.15039e-07
11.4142
-6.2822e-07
11.4114
-8.32545e-07
11.4086
-9.64241e-07
11.4059
-1.04744e-06
11.4032
-1.09885e-06
11.4005
-1.12984e-06
11.3979
-1.14802e-06
11.3953
-1.15825e-06
11.3928
-1.16361e-06
11.3903
-1.16609e-06
11.3879
-1.16677e-06
11.3855
-1.16619e-06
11.3831
-1.16566e-06
11.3808
-1.16556e-06
11.3785
-1.16444e-06
11.3762
-1.16201e-06
11.374
-1.15871e-06
11.3717
-1.15538e-06
11.3694
-1.15244e-06
11.3672
-1.14956e-06
11.3649
-1.14596e-06
11.3626
-1.14124e-06
11.3603
-1.13571e-06
11.3579
-1.13025e-06
11.3555
-1.12545e-06
11.3531
-1.12099e-06
11.3507
-1.11627e-06
11.3482
-1.11101e-06
11.3457
-1.10526e-06
11.3432
-1.09915e-06
11.3406
-1.09282e-06
11.338
-1.08644e-06
11.3354
-1.08012e-06
11.3328
-1.0739e-06
11.3301
-1.06786e-06
11.3275
-1.06197e-06
11.3248
-1.05628e-06
11.3222
-1.05079e-06
11.3196
-1.04544e-06
11.3169
-1.04025e-06
11.3143
-1.03516e-06
11.3117
-1.03013e-06
11.3091
-1.02499e-06
11.3065
-1.01966e-06
11.3038
-1.01408e-06
11.3012
-1.00833e-06
11.2986
-1.0025e-06
11.296
-9.96689e-07
11.2933
-9.9089e-07
11.2906
-9.8504e-07
11.2879
-9.79039e-07
11.2851
-9.7279e-07
11.2822
-9.66249e-07
11.2793
-9.59398e-07
11.2763
-9.52273e-07
11.2731
-9.45022e-07
11.2699
-9.37809e-07
11.2665
-9.31701e-07
11.263
-9.23047e-07
11.2593
-9.14848e-07
11.2555
-9.07517e-07
11.2516
-9.00888e-07
11.2475
-8.94928e-07
11.2432
-8.89245e-07
11.2387
-8.84351e-07
11.2342
-8.79574e-07
11.2294
-8.76418e-07
11.2245
-8.74733e-07
11.2196
-8.73794e-07
11.2144
-8.73923e-07
11.2092
-8.75161e-07
11.204
-8.7761e-07
11.1986
-8.80877e-07
11.1933
-8.88712e-07
11.1879
-8.90474e-07
11.1825
-9.00197e-07
11.1772
-9.07399e-07
11.1719
-9.15219e-07
11.1666
-9.24689e-07
11.1615
-9.35542e-07
11.1564
-9.42078e-07
11.1514
-9.5086e-07
11.1465
-9.62669e-07
11.1417
-9.81314e-07
11.137
-9.89298e-07
11.1325
-9.95525e-07
11.128
-1.00119e-06
11.1237
-1.0067e-06
11.1195
-1.01127e-06
11.1154
-1.01617e-06
11.1115
-1.01896e-06
11.1076
-1.02141e-06
11.1038
-1.02203e-06
11.1001
-1.02136e-06
11.0964
-1.01824e-06
11.0928
-1.01392e-06
11.0893
-1.00841e-06
11.0858
-1.00148e-06
11.0823
-9.93781e-07
11.0788
-9.84951e-07
11.0753
-9.77085e-07
11.0718
-9.77111e-07
11.0683
-9.45404e-07
11.0647
-9.35529e-07
11.0612
-9.33107e-07
11.0577
-9.23789e-07
11.0542
-9.14807e-07
11.0507
-9.07259e-07
11.0472
-9.00915e-07
11.0438
-8.95653e-07
11.0405
-8.9166e-07
11.0372
-8.88806e-07
11.0341
-8.8773e-07
11.0311
-8.87723e-07
11.0282
-8.89856e-07
11.0254
-8.92171e-07
11.0228
-8.96623e-07
11.0203
-9.00043e-07
11.018
-9.05542e-07
11.0158
-9.09254e-07
11.0137
-9.14862e-07
11.0118
-9.18586e-07
11.01
-9.24313e-07
11.0083
-9.28043e-07
11.0068
-9.34671e-07
11.0053
-9.38625e-07
11.004
-9.46058e-07
11.0029
-9.50937e-07
11.0018
-9.57831e-07
11.0008
-9.63574e-07
11
-9.69031e-07
10.9992
-9.74125e-07
10.9985
-9.77828e-07
10.9978
-9.80072e-07
10.9972
-9.81596e-07
10.9965
-9.80619e-07
10.9959
-9.80258e-07
10.9952
-9.76811e-07
10.9944
-9.74826e-07
10.9936
-9.69408e-07
10.9927
-9.62675e-07
10.9917
-9.23016e-07
10.9907
-6.68875e-07
10.9897
9.49281e-07
10.9886
1.2469e-05
10.9874
9.27268e-05
10.9859
0.000654538
10.9818
0.00457099
10.9599
0.0317097
10.8195
0.224892
1.05027
10.187
138.727
-0.00026045
138.683
-0.000214724
138.64
-0.000191111
138.597
-0.000194812
138.554
-0.000196021
138.511
-0.000195587
138.469
-0.00019555
138.427
-0.000195679
138.385
-0.000195788
138.344
-0.000195878
138.304
-0.000195961
138.264
-0.000196035
138.225
-0.000196101
138.186
-0.000196155
138.148
-0.000196184
138.111
-0.000196187
138.075
-0.000196181
138.04
-0.000195813
138.006
-0.000195439
137.972
-0.000194678
137.939
-0.000193413
137.906
-0.000191473
137.873
-0.000188651
137.841
-0.000184738
137.809
-0.000179543
137.777
-0.000172919
137.746
-0.000164789
137.714
-0.00015517
137.682
-0.000144178
137.651
-0.000132032
137.619
-0.000119036
137.587
-0.000105559
137.555
-9.19959e-05
137.522
-7.87409e-05
137.489
-6.6148e-05
137.456
-5.45085e-05
137.423
-4.40335e-05
137.389
-3.48479e-05
137.355
-2.69937e-05
137.32
-2.04408e-05
137.285
-1.51031e-05
137.25
-1.08548e-05
137.215
-7.55197e-06
137.18
-5.0403e-06
137.145
-3.17122e-06
137.11
-1.80818e-06
137.074
-8.30502e-07
137.04
-1.42197e-07
137.005
3.15041e-07
136.971
6.28224e-07
136.937
8.32543e-07
136.903
9.64241e-07
136.87
1.04744e-06
136.838
1.09885e-06
136.806
1.12984e-06
136.775
1.14802e-06
136.744
1.15825e-06
136.714
1.16361e-06
136.684
1.16609e-06
136.655
1.16677e-06
136.626
1.16619e-06
136.598
1.16566e-06
136.57
1.16556e-06
136.542
1.16444e-06
136.515
1.16201e-06
136.487
1.15871e-06
136.46
1.15538e-06
136.433
1.15244e-06
136.406
1.14956e-06
136.378
1.14596e-06
136.351
1.14124e-06
136.323
1.13571e-06
136.295
1.13025e-06
136.266
1.12545e-06
136.237
1.12099e-06
136.208
1.11627e-06
136.179
1.11101e-06
136.148
1.10526e-06
136.118
1.09915e-06
136.087
1.09282e-06
136.056
1.08644e-06
136.025
1.08012e-06
135.993
1.07391e-06
135.962
1.06786e-06
135.93
1.06197e-06
135.898
1.05628e-06
135.866
1.05079e-06
135.835
1.04544e-06
135.803
1.04025e-06
135.771
1.03516e-06
135.74
1.03012e-06
135.709
1.02499e-06
135.677
1.01966e-06
135.646
1.01408e-06
135.615
1.00833e-06
135.583
1.0025e-06
135.552
9.9669e-07
135.52
9.90888e-07
135.488
9.85037e-07
135.455
9.79037e-07
135.421
9.72789e-07
135.387
9.6625e-07
135.352
9.594e-07
135.315
9.52274e-07
135.278
9.45024e-07
135.239
9.37806e-07
135.198
9.31701e-07
135.156
9.23047e-07
135.112
9.14847e-07
135.067
9.07517e-07
135.019
9.00892e-07
134.97
8.94925e-07
134.918
8.89239e-07
134.865
8.84351e-07
134.81
8.79576e-07
134.753
8.76417e-07
134.695
8.74734e-07
134.635
8.73795e-07
134.573
8.73924e-07
134.511
8.7516e-07
134.448
8.77609e-07
134.384
8.80875e-07
134.319
8.88715e-07
134.255
8.90475e-07
134.19
9.00196e-07
134.126
9.07401e-07
134.063
9.15219e-07
134
9.2469e-07
133.938
9.35544e-07
133.876
9.4208e-07
133.816
9.50861e-07
133.758
9.6267e-07
133.7
9.81315e-07
133.644
9.89298e-07
133.59
9.95528e-07
133.536
1.0012e-06
133.485
1.0067e-06
133.434
1.01127e-06
133.385
1.01617e-06
133.337
1.01896e-06
133.291
1.02141e-06
133.245
1.02203e-06
133.201
1.02135e-06
133.157
1.01824e-06
133.114
1.01391e-06
133.071
1.00841e-06
133.029
1.00148e-06
132.987
9.93779e-07
132.945
9.84952e-07
132.903
9.77084e-07
132.861
9.77113e-07
132.819
9.45384e-07
132.777
9.35546e-07
132.734
9.33113e-07
132.692
9.23788e-07
132.65
9.14806e-07
132.608
9.07264e-07
132.566
9.00904e-07
132.526
8.95669e-07
132.486
8.91624e-07
132.447
8.8887e-07
132.409
8.87618e-07
132.373
8.87901e-07
132.338
8.8959e-07
132.305
8.92541e-07
132.274
8.96119e-07
132.244
9.00692e-07
132.216
9.04737e-07
132.19
9.10238e-07
132.165
9.13624e-07
132.142
9.20139e-07
132.12
9.22301e-07
132.1
9.30606e-07
132.081
9.3163e-07
132.064
9.4204e-07
132.048
9.42638e-07
132.034
9.5361e-07
132.021
9.55906e-07
132.01
9.6523e-07
132
9.67999e-07
131.991
9.74714e-07
131.982
9.76924e-07
131.974
9.81104e-07
131.966
9.80359e-07
131.959
9.8251e-07
131.95
9.78195e-07
131.942
9.78595e-07
131.933
9.73159e-07
131.923
9.72872e-07
131.912
9.709e-07
131.901
1.0102e-06
131.889
1.30004e-06
131.876
3.41824e-06
131.863
1.86711e-05
131.85
0.000126491
131.836
0.000898608
131.822
0.00642251
131.796
0.04618
131.647
0.363599
1.54824
131.142
11.5606
-0.000327836
11.557
-0.000234875
11.5533
-0.000225694
11.5497
-0.000227428
11.5461
-0.000227959
11.5426
-0.00022792
11.5391
-0.000228013
11.5356
-0.000228151
11.5321
-0.000228269
11.5287
-0.00022837
11.5253
-0.000228458
11.522
-0.000228534
11.5187
-0.0002286
11.5155
-0.000228651
11.5124
-0.000228671
11.5093
-0.000228654
11.5063
-0.000228675
11.5034
-0.000228154
11.5005
-0.000227736
11.4977
-0.000226818
11.4949
-0.000225313
11.4922
-0.000223015
11.4894
-0.000219687
11.4868
-0.000215084
11.4841
-0.000208984
11.4814
-0.00020122
11.4788
-0.000191705
11.4762
-0.00018046
11.4735
-0.000167623
11.4709
-0.000153451
11.4682
-0.0001383
11.4656
-0.000122599
11.4629
-0.00010681
11.4602
-9.13877e-05
11.4574
-7.67445e-05
11.4547
-6.32171e-05
11.4519
-5.10493e-05
11.4491
-4.03842e-05
11.4462
-3.12691e-05
11.4433
-2.36676e-05
11.4404
-1.74784e-05
11.4375
-1.25538e-05
11.4346
-8.72791e-06
11.4317
-5.81821e-06
11.4287
-3.65381e-06
11.4258
-2.07545e-06
11.4229
-9.46955e-07
11.42
-1.56098e-07
11.4171
3.80804e-07
11.4142
7.41611e-07
11.4114
9.77569e-07
11.4086
1.12904e-06
11.4059
1.22462e-06
11.4032
1.28355e-06
11.4005
1.31907e-06
11.3979
1.33985e-06
11.3953
1.35153e-06
11.3928
1.35761e-06
11.3903
1.36042e-06
11.3879
1.36114e-06
11.3855
1.36037e-06
11.3831
1.35989e-06
11.3808
1.3597e-06
11.3785
1.35824e-06
11.3762
1.35559e-06
11.374
1.35165e-06
11.3717
1.34776e-06
11.3694
1.34435e-06
11.3672
1.34102e-06
11.3649
1.33677e-06
11.3626
1.33131e-06
11.3603
1.32483e-06
11.3579
1.31845e-06
11.3555
1.31287e-06
11.3531
1.30768e-06
11.3507
1.30216e-06
11.3482
1.29602e-06
11.3457
1.2893e-06
11.3432
1.28217e-06
11.3406
1.27479e-06
11.338
1.26735e-06
11.3354
1.25997e-06
11.3328
1.25272e-06
11.3301
1.24568e-06
11.3275
1.2388e-06
11.3248
1.23216e-06
11.3222
1.22577e-06
11.3196
1.21952e-06
11.3169
1.21347e-06
11.3143
1.20752e-06
11.3117
1.20166e-06
11.3091
1.19566e-06
11.3065
1.18945e-06
11.3038
1.18293e-06
11.3012
1.17623e-06
11.2986
1.16943e-06
11.296
1.16266e-06
11.2933
1.15589e-06
11.2906
1.14906e-06
11.2879
1.14207e-06
11.2851
1.13477e-06
11.2822
1.12715e-06
11.2793
1.11916e-06
11.2763
1.11084e-06
11.2731
1.10239e-06
11.2699
1.0939e-06
11.2665
1.0873e-06
11.263
1.07612e-06
11.2593
1.06744e-06
11.2555
1.05863e-06
11.2516
1.05097e-06
11.2475
1.04395e-06
11.2432
1.03729e-06
11.2387
1.03164e-06
11.2342
1.02603e-06
11.2294
1.02235e-06
11.2245
1.0204e-06
11.2196
1.0193e-06
11.2144
1.01943e-06
11.2092
1.02087e-06
11.204
1.02366e-06
11.1986
1.02776e-06
11.1933
1.03483e-06
11.1879
1.04049e-06
11.1825
1.05018e-06
11.1772
1.05826e-06
11.1719
1.06768e-06
11.1666
1.07856e-06
11.1615
1.09185e-06
11.1564
1.09807e-06
11.1514
1.10927e-06
11.1465
1.12272e-06
11.1417
1.1455e-06
11.137
1.15387e-06
11.1325
1.16119e-06
11.128
1.16786e-06
11.1237
1.17433e-06
11.1195
1.1795e-06
11.1154
1.18551e-06
11.1115
1.1885e-06
11.1076
1.19154e-06
11.1038
1.19215e-06
11.1001
1.19147e-06
11.0964
1.18773e-06
11.0928
1.18275e-06
11.0893
1.17633e-06
11.0858
1.16822e-06
11.0823
1.15929e-06
11.0788
1.14882e-06
11.0753
1.13913e-06
11.0718
1.14238e-06
11.0683
1.10054e-06
11.0647
1.09126e-06
11.0612
1.0891e-06
11.0577
1.07758e-06
11.0542
1.06711e-06
11.0507
1.05832e-06
11.0472
1.05089e-06
11.0438
1.04478e-06
11.0405
1.04006e-06
11.0372
1.03685e-06
11.0341
1.0354e-06
11.0311
1.03571e-06
11.0282
1.03773e-06
11.0254
1.04109e-06
11.0228
1.04542e-06
11.0203
1.05048e-06
11.018
1.05564e-06
11.0158
1.06136e-06
11.0137
1.06636e-06
11.0118
1.07245e-06
11.01
1.07708e-06
11.0083
1.08397e-06
11.0068
1.08863e-06
11.0053
1.09673e-06
11.004
1.10184e-06
11.0029
1.11057e-06
11.0018
1.11655e-06
11.0008
1.12462e-06
11
1.13019e-06
10.9992
1.13637e-06
10.9985
1.14022e-06
10.9978
1.14365e-06
10.9972
1.14435e-06
10.9965
1.14492e-06
10.9959
1.14231e-06
10.9952
1.1405e-06
10.9944
1.1361e-06
10.9936
1.1331e-06
10.9927
1.12936e-06
10.9917
1.13976e-06
10.9907
1.23549e-06
10.9897
1.95187e-06
10.9886
7.13084e-06
10.9876
4.37545e-05
10.9871
0.000306218
10.9902
0.00220186
11.0191
0.0164178
11.2041
0.17778
0.6717
12.08
5.77994
5.77786
5.77581
5.77377
5.77173
5.7697
5.7677
5.76571
5.76374
5.76179
5.75986
5.75795
5.75607
5.75422
5.7524
5.75062
5.74887
5.74717
5.74549
5.74384
5.74221
5.74059
5.739
5.73743
5.73587
5.73433
5.73281
5.7313
5.7298
5.72832
5.72685
5.72538
5.72392
5.72247
5.72102
5.71957
5.71812
5.71666
5.7152
5.71374
5.71227
5.7108
5.70933
5.70786
5.70639
5.70492
5.70346
5.702
5.70056
5.69913
5.69772
5.69633
5.69495
5.6936
5.69228
5.69097
5.68969
5.68843
5.6872
5.68598
5.68479
5.68361
5.68245
5.6813
5.68016
5.67903
5.67789
5.67676
5.67563
5.67449
5.67334
5.67218
5.67101
5.66983
5.66862
5.6674
5.66617
5.66492
5.66365
5.66237
5.66108
5.65977
5.65846
5.65715
5.65582
5.6545
5.65318
5.65186
5.65054
5.64923
5.64792
5.64662
5.64532
5.64401
5.64271
5.64141
5.64009
5.63876
5.63742
5.63605
5.63465
5.63323
5.63176
5.63024
5.62868
5.62705
5.62537
5.62361
5.62179
5.61988
5.61791
5.61585
5.61371
5.61149
5.6092
5.60683
5.6044
5.6019
5.59935
5.59675
5.59412
5.59145
5.58877
5.58609
5.5834
5.58073
5.57808
5.57546
5.57287
5.57032
5.56783
5.56538
5.56299
5.56066
5.55838
5.55617
5.55401
5.55191
5.54987
5.54788
5.54594
5.54405
5.54219
5.54037
5.53858
5.5368
5.53505
5.5333
5.53155
5.52981
5.52806
5.5263
5.52454
5.52278
5.52101
5.51925
5.51751
5.51578
5.51408
5.51242
5.5108
5.50923
5.50773
5.50628
5.50491
5.5036
5.50236
5.5012
5.5001
5.49907
5.4981
5.4972
5.49636
5.49558
5.49487
5.49422
5.49363
5.4931
5.49263
5.4922
5.49182
5.49147
5.49114
5.49081
5.49049
5.49015
5.4898
5.48942
5.48901
5.48857
5.48809
5.48759
5.48706
5.48652
5.48601
5.48577
5.48746
5.5034
5.68077
6.35215
4.84732
0.120041
4.85553
-0.00828257
4.85471
0.000746022
4.86523
-0.0106072
4.8913
-0.0261692
4.93022
-0.0390416
4.95844
-0.0283406
4.94631
0.0120023
4.895
0.0512863
4.84681
0.0483365
4.96423
-0.116544
5.27965
-0.314902
5.6846
-0.405203
5.97746
-0.293619
5.99511
-0.0186442
5.8768
0.117833
5.69771
0.17879
5.47837
0.219058
5.30972
0.168679
-0.711549
6.02247
10.1384
0.168464
10.1586
-0.0286813
10.2098
-0.0505254
10.2753
-0.0763081
10.3655
-0.116535
10.4854
-0.159181
10.5865
-0.129726
10.6115
-0.0132209
10.5511
0.11171
10.4618
0.137837
10.6522
-0.305173
11.2169
-0.878767
12.0178
-1.20694
12.7207
-0.998652
12.9484
-0.247989
12.8856
0.180113
12.6347
0.429404
12.1961
0.657422
11.6015
0.763586
-1.44174
12.3341
131.191
0.118221
131.256
-0.0947828
131.246
-0.0417802
131.068
0.100697
130.722
0.228022
130.258
0.30459
129.768
0.360384
129.407
0.345747
129.141
0.378956
128.93
0.346182
128.271
0.352157
127.058
0.332977
125.544
0.309066
124.271
0.277169
123.787
0.238946
123.768
0.198612
124.04
0.156548
124.588
0.107634
125.31
0.0391005
-0.144191
124.008
12.0252
0.172958
11.9352
-0.00488868
11.8978
-0.0044833
11.9725
0.0260004
12.1438
0.0566543
12.3688
0.079418
12.6312
0.0973183
12.88
0.0974021
13.152
0.106369
13.3987
0.0998294
13.6501
0.100498
13.8884
0.094534
14.1121
0.0853042
14.3174
0.0718772
14.5012
0.0550517
14.6638
0.0359996
14.8068
0.0135834
14.9314
-0.01701
15.0418
-0.0713006
-0.238631
15.1362
6.52508
6.52016
6.51564
6.54161
6.59822
6.67757
6.77466
6.87214
6.97834
7.07824
7.17869
7.27316
7.35842
7.43027
7.4853
7.52129
7.53487
7.51786
7.44656
7.20793
7.42265
-1.39844
7.65187
-0.230823
7.58161
0.0694407
7.52795
0.0537521
7.57223
-0.0439432
7.63238
-0.0603933
7.64968
-0.0175277
7.64198
0.00776243
7.63423
0.00781983
7.63397
0.000316692
7.63646
-0.00240669
7.63636
0.000208871
7.6347
0.00180338
7.63206
0.00278437
7.62932
0.00288828
7.62757
0.00190043
7.62989
-0.00214643
7.63841
-0.00834831
7.64623
-0.00771712
7.64891
-0.00258833
7.64815
0.00087137
7.64519
0.00305052
7.64056
0.00471376
7.63559
0.00503611
7.63506
0.000602395
7.65222
-0.0170536
7.67916
-0.0269728
7.69761
-0.0186005
7.69964
-0.00218479
7.69104
0.00848117
7.67563
0.0152981
7.65394
0.0215596
7.62577
0.0280262
7.59017
0.0354315
7.54597
0.0440414
7.49167
0.0541308
7.42556
0.0659105
7.34559
0.0796448
7.24902
0.0954871
7.1334
0.111924
7.0005
0.12982
6.85289
0.14631
6.69339
0.159201
6.52817
0.166851
6.36339
0.168499
6.20426
0.161017
6.05742
0.147333
5.92824
0.12893
5.81945
0.108258
5.73124
0.0873131
5.66215
0.068311
5.60958
0.05189
5.57049
0.0384709
5.54195
0.0279413
5.52143
0.0199403
5.50684
0.0140148
5.49655
0.0097174
5.48933
0.00665486
5.48427
0.00450497
5.4807
0.00301572
5.47816
0.00199767
5.47632
0.00130859
5.47495
0.000848132
5.47389
0.000543741
5.47304
0.00034475
5.47233
0.000216115
5.47171
0.000133895
5.47115
8.19394e-05
5.47063
4.94833e-05
5.47012
2.94421e-05
5.46964
1.721e-05
5.46916
9.83055e-06
5.46867
5.42975e-06
5.46819
2.83499e-06
5.4677
1.32184e-06
5.4672
4.48881e-07
5.46669
-5.00895e-08
5.46616
-3.32428e-07
5.46562
-4.90949e-07
5.46506
-5.79797e-07
5.46448
-6.29494e-07
5.46388
-6.57292e-07
5.46326
-6.72759e-07
5.46262
-6.81139e-07
5.46196
-6.85268e-07
5.46128
-6.86709e-07
5.46057
-6.86363e-07
5.45984
-6.84593e-07
5.45909
-6.81619e-07
5.45831
-6.77492e-07
5.45751
-6.72486e-07
5.45668
-6.66869e-07
5.45584
-6.60752e-07
5.45497
-6.54132e-07
5.45408
-6.47044e-07
5.45317
-6.39569e-07
5.45224
-6.31861e-07
5.4513
-6.24041e-07
5.45034
-6.16265e-07
5.44937
-6.08665e-07
5.44839
-6.01376e-07
5.44741
-5.94455e-07
5.44642
-5.87905e-07
5.44544
-5.81715e-07
5.44446
-5.75999e-07
5.44349
-5.71032e-07
5.44253
-5.67039e-07
5.44159
-5.64094e-07
5.44067
-5.62126e-07
5.43977
-5.61013e-07
5.43889
-5.60653e-07
5.43805
-5.60982e-07
5.43723
-5.61984e-07
5.43644
-5.63754e-07
5.43568
-5.65919e-07
5.43495
-5.68716e-07
5.43425
-5.7207e-07
5.43358
-5.76145e-07
5.43293
-5.8084e-07
5.4323
-5.85893e-07
5.43169
-5.91164e-07
5.4311
-5.96639e-07
5.43052
-6.02287e-07
5.42995
-6.08043e-07
5.42939
-6.13823e-07
5.42882
-6.19477e-07
5.42826
-6.24872e-07
5.42768
-6.29896e-07
5.4271
-6.34489e-07
5.42649
-6.38602e-07
5.42587
-6.42171e-07
5.42523
-6.45132e-07
5.42456
-6.4736e-07
5.42386
-6.48755e-07
5.42312
-6.49252e-07
5.42235
-6.48801e-07
5.42153
-6.47391e-07
5.42068
-6.44937e-07
5.41978
-6.42212e-07
5.41883
-6.36415e-07
5.41784
-6.30431e-07
5.41679
-6.23995e-07
5.4157
-6.17149e-07
5.41457
-6.09527e-07
5.41339
-6.01052e-07
5.41216
-5.92203e-07
5.41091
-5.83006e-07
5.40961
-5.73713e-07
5.40829
-5.64491e-07
5.40695
-5.55465e-07
5.4056
-5.46775e-07
5.40424
-5.38532e-07
5.40288
-5.30916e-07
5.40153
-5.24078e-07
5.4002
-5.18019e-07
5.3989
-5.12771e-07
5.39763
-5.08344e-07
5.39641
-5.0479e-07
5.39524
-5.02128e-07
5.39413
-5.00322e-07
5.39309
-4.99116e-07
5.39211
-4.98479e-07
5.39121
-4.98345e-07
5.39038
-5.03547e-07
5.38963
-4.93985e-07
5.38896
-4.9952e-07
5.38836
-4.97164e-07
5.38783
-5.02041e-07
5.38737
-4.97868e-07
5.38699
-5.00275e-07
5.38666
-4.97928e-07
5.3864
-4.99926e-07
5.3862
-4.96084e-07
5.38605
-5.0048e-07
5.38596
-4.93232e-07
5.38591
-4.98443e-07
5.38591
-4.94229e-07
5.38595
-4.96317e-07
5.38603
-4.875e-07
5.38614
-5.00786e-07
5.38627
-4.87289e-07
5.38643
-4.93434e-07
5.3866
-4.82267e-07
5.38677
-4.88168e-07
5.38693
-4.71886e-07
5.38707
-4.77865e-07
5.3872
-4.61167e-07
5.38728
-4.61652e-07
5.38733
-4.51702e-07
5.38733
-4.81486e-07
5.38727
-6.40322e-07
5.38716
-1.53901e-06
5.38699
-6.17468e-06
5.38678
-3.01895e-05
5.38663
-0.000154429
5.38706
-0.000793424
5.39077
-0.00413258
5.41255
-0.0222572
5.57454
-0.162531
-0.630025
6.20398
14.2369
-3.29833
14.7616
-0.758728
14.6669
0.162204
14.4992
0.221827
14.5187
-0.0629672
14.6236
-0.165722
14.6723
-0.0665788
14.6625
0.0176898
14.6432
0.0271944
14.6382
0.0054043
14.642
-0.00599431
14.6421
0.000304849
14.6378
0.00637968
14.6296
0.0113499
14.6187
0.0140268
14.6072
0.0137389
14.6017
0.00360835
14.6109
-0.0171797
14.6245
-0.0211422
14.6304
-0.00823983
14.627
0.00446373
14.6151
0.0151111
14.5948
0.025186
14.5675
0.0324866
14.5418
0.0263213
14.5513
-0.0263576
14.5952
-0.0709599
14.6419
-0.0655708
14.6643
-0.0248447
14.6622
0.0104046
14.6406
0.0366613
14.6018
0.0601189
14.5464
0.0831274
14.4737
0.107828
14.3826
0.134828
14.2717
0.164778
14.1391
0.198029
13.9831
0.235019
13.8008
0.275557
13.5916
0.31694
13.3595
0.3593
13.1085
0.396328
12.8446
0.422871
12.5778
0.435835
12.3174
0.431878
12.0712
0.408525
11.8479
0.370677
11.6536
0.322698
11.4907
0.270242
11.3586
0.218309
11.2548
0.171024
11.1751
0.130392
11.1154
0.0970873
11.0713
0.0708343
11.0394
0.0507719
11.0164
0.0358242
11.0001
0.0249205
10.9885
0.0171092
10.9803
0.0116014
10.9744
0.00777487
10.9702
0.00514983
10.9671
0.00337233
10.9647
0.00218354
10.9628
0.00139791
10.9613
0.000884849
10.9599
0.000553729
10.9587
0.00034254
10.9577
0.000209424
10.9566
0.000126506
10.9556
7.54632e-05
10.9547
4.44116e-05
10.9537
2.57432e-05
10.9528
1.46507e-05
10.9518
8.13604e-06
10.9508
4.35371e-06
10.9498
2.18273e-06
10.9488
9.4975e-07
10.9477
2.57264e-07
10.9466
-1.27583e-07
10.9455
-3.402e-07
10.9444
-4.56662e-07
10.9432
-5.20044e-07
10.9419
-5.54242e-07
10.9406
-5.72388e-07
10.9393
-5.81609e-07
10.9379
-5.85753e-07
10.9365
-5.86923e-07
10.9351
-5.86166e-07
10.9336
-5.83967e-07
10.932
-5.80626e-07
10.9304
-5.76427e-07
10.9287
-5.71649e-07
10.9271
-5.66423e-07
10.9253
-5.60756e-07
10.9235
-5.54677e-07
10.9217
-5.48269e-07
10.9199
-5.41652e-07
10.918
-5.34944e-07
10.916
-5.28269e-07
10.9141
-5.2175e-07
10.9121
-5.15501e-07
10.9102
-5.09568e-07
10.9082
-5.03952e-07
10.9062
-4.98659e-07
10.9043
-4.93777e-07
10.9023
-4.89521e-07
10.9004
-4.8609e-07
10.8985
-4.83566e-07
10.8967
-4.81886e-07
10.8949
-4.80938e-07
10.8931
-4.80634e-07
10.8914
-4.8092e-07
10.8898
-4.81779e-07
10.8882
-4.83281e-07
10.8867
-4.85191e-07
10.8852
-4.87537e-07
10.8838
-4.90454e-07
10.8825
-4.9393e-07
10.8812
-4.97946e-07
10.8799
-5.02288e-07
10.8787
-5.06804e-07
10.8775
-5.11479e-07
10.8764
-5.16309e-07
10.8752
-5.21238e-07
10.8741
-5.26183e-07
10.873
-5.31028e-07
10.8718
-5.35647e-07
10.8707
-5.39957e-07
10.8695
-5.43896e-07
10.8683
-5.47425e-07
10.8671
-5.5049e-07
10.8658
-5.53025e-07
10.8644
-5.54942e-07
10.863
-5.56147e-07
10.8616
-5.56583e-07
10.86
-5.56213e-07
10.8584
-5.55007e-07
10.8567
-5.52929e-07
10.8549
-5.50409e-07
10.853
-5.45837e-07
10.851
-5.40411e-07
10.8489
-5.34957e-07
10.8467
-5.29111e-07
10.8444
-5.22548e-07
10.8421
-5.15309e-07
10.8396
-5.07691e-07
10.8371
-4.99839e-07
10.8345
-4.9186e-07
10.8319
-4.83948e-07
10.8292
-4.76216e-07
10.8265
-4.68759e-07
10.8238
-4.6169e-07
10.821
-4.55167e-07
10.8183
-4.49289e-07
10.8157
-4.44097e-07
10.8131
-4.39593e-07
10.8105
-4.358e-07
10.8081
-4.32754e-07
10.8058
-4.30417e-07
10.8035
-4.28968e-07
10.8014
-4.27963e-07
10.7995
-4.27378e-07
10.7977
-4.27159e-07
10.796
-4.32981e-07
10.7945
-4.20683e-07
10.7932
-4.3282e-07
10.792
-4.21851e-07
10.7909
-4.35413e-07
10.79
-4.22784e-07
10.7892
-4.30097e-07
10.7886
-4.25412e-07
10.7881
-4.30819e-07
10.7877
-4.21582e-07
10.7874
-4.35674e-07
10.7872
-4.15593e-07
10.7871
-4.3271e-07
10.7871
-4.20016e-07
10.7872
-4.29195e-07
10.7873
-4.04191e-07
10.7875
-4.45455e-07
10.7878
-4.08736e-07
10.7881
-4.31209e-07
10.7884
-4.04381e-07
10.7888
-4.29659e-07
10.7891
-3.91926e-07
10.7894
-4.21704e-07
10.7896
-3.87746e-07
10.7898
-4.05727e-07
10.7899
-3.96357e-07
10.7899
-5.0549e-07
10.7898
-9.95411e-07
10.7895
-3.66746e-06
10.7892
-1.7347e-05
10.7888
-8.80999e-05
10.7885
-0.000453434
10.7893
-0.0023332
10.7964
-0.0120579
10.8359
-0.0627007
11.0218
-0.349591
-1.43796
11.8286
120.646
0.0590744
119.921
-0.0347659
120.059
0.0229356
120.224
0.0542697
120.116
0.0410255
119.933
0.0152546
119.866
0.000315668
119.885
-0.000909393
119.912
0.00082822
119.918
0.00134085
119.913
0.000708429
119.916
0.000187778
119.925
0.000162012
119.939
0.000458997
119.955
0.000959794
119.971
0.00151954
119.976
0.00192544
119.96
0.00158247
119.942
0.00026534
119.938
-0.00126514
119.946
-0.00165737
119.964
-0.00118449
119.992
-0.000404777
120.025
0.000366885
120.051
0.000858195
120.029
-0.00511801
119.98
-0.0218412
119.959
-0.0422464
120.006
-0.0637073
120.112
-0.0880225
120.272
-0.118194
120.491
-0.155598
120.775
-0.200253
121.131
-0.250249
121.565
-0.302086
122.078
-0.350994
122.664
-0.391777
123.314
-0.41981
124.017
-0.431975
124.759
-0.429789
125.527
-0.41384
126.306
-0.386809
127.077
-0.35201
127.82
-0.31269
128.514
-0.270088
129.142
-0.22773
129.691
-0.187575
130.155
-0.151243
130.534
-0.119535
130.833
-0.092716
131.063
-0.0705798
131.234
-0.0528031
131.357
-0.0388321
131.443
-0.0280801
131.5
-0.0199699
131.537
-0.0139698
131.558
-0.00961386
131.568
-0.00650964
131.571
-0.00433822
131.568
-0.00284454
131.562
-0.00183561
131.554
-0.00116605
131.544
-0.000728991
131.534
-0.000448501
131.523
-0.0002715
131.512
-0.000161655
131.501
-9.46152e-05
131.489
-5.43794e-05
131.478
-3.06332e-05
131.467
-1.68544e-05
131.456
-8.99512e-06
131.444
-4.58935e-06
131.433
-2.16273e-06
131.421
-8.49979e-07
131.41
-1.5245e-07
131.398
2.11502e-07
131.385
3.98589e-07
131.373
4.93443e-07
131.36
5.41253e-07
131.346
5.65426e-07
131.332
5.77913e-07
131.318
5.84578e-07
131.303
5.88208e-07
131.288
5.9007e-07
131.272
5.90715e-07
131.255
5.90394e-07
131.238
5.89263e-07
131.221
5.8733e-07
131.203
5.84543e-07
131.184
5.80909e-07
131.165
5.76562e-07
131.145
5.71716e-07
131.125
5.66454e-07
131.104
5.60771e-07
131.082
5.54681e-07
131.061
5.4827e-07
131.038
5.41651e-07
131.016
5.34943e-07
130.993
5.28268e-07
130.969
5.21753e-07