/*--------------------------------*- C++ -*----------------------------------*\
| =========                 |                                                 |
| \\      /  F ield         | OpenFOAM: The Open Source CFD Toolbox           |
|  \\    /   O peration     | Version:  3.0.x                                 |
|   \\  /    A nd           | Web:      www.OpenFOAM.org                      |
|    \\/     M anipulation  |                                                 |
\*---------------------------------------------------------------------------*/
FoamFile
{
    version     2.0;
    format      ascii;
    class       volScalarField;
    location    "0.6";
    object      rho;
}
// * * * * * * * * * * * * * * * * * * * * * * * * * * * * * * * * * * * * * //

dimensions      [1 -3 0 0 0 0 0];

internalField   nonuniform List<scalar> 
6900
(
55.5532
55.5564
55.562
55.5676
55.573
55.5781
55.5831
55.5878
55.5921
55.5958
55.599
55.6018
55.6042
55.6059
55.607
55.6076
55.6078
55.6077
55.6073
55.6066
55.6056
55.6044
55.603
55.6015
55.5998
55.598
55.5961
55.594
55.5919
55.5896
55.5872
55.5846
55.5819
55.5791
55.5762
55.5732
55.57
55.5668
55.5634
55.5599
55.5563
55.5525
55.5487
55.5447
55.5407
55.5365
55.5322
55.5278
55.5233
55.5187
55.514
55.5092
55.5043
55.4994
55.4944
55.4894
55.4843
55.4791
55.4737
55.4682
55.4626
55.4569
55.4511
55.4453
55.4394
55.4334
55.4274
55.4214
55.4153
55.4092
55.4029
55.3965
55.39
55.3834
55.3766
55.3698
55.3629
55.356
55.349
55.342
55.3349
55.3277
55.3205
55.3132
55.3058
55.2983
55.2907
55.283
55.2753
55.2674
55.2596
55.2517
55.2437
55.2356
55.2276
55.2194
55.2113
55.2031
55.1948
55.1865
55.1782
55.1699
55.1615
55.1531
55.1447
55.1363
55.1278
55.1193
55.1108
55.1023
55.0938
55.0852
55.0767
55.0681
55.0596
55.051
55.0424
55.0338
55.0252
55.0167
55.0081
54.9995
54.9909
54.9823
54.9737
54.9651
54.9565
54.9479
54.9393
54.9307
54.9221
54.9135
54.9049
54.8963
54.8878
54.8792
54.8707
54.8622
54.8537
54.8452
54.8367
54.8283
54.8199
54.8116
54.8033
54.795
54.7868
54.7786
54.7705
54.7624
54.7543
54.7463
54.7384
54.7305
54.7227
54.715
54.7073
54.6996
54.6921
54.6845
54.6771
54.6697
54.6623
54.655
54.6478
54.6406
54.6335
54.6264
54.6194
54.6124
54.6054
54.5986
54.5918
54.585
54.5783
54.5717
54.5651
54.5586
54.5522
54.5457
54.5395
54.5332
54.5271
54.5209
54.515
54.5089
54.5032
54.4971
54.4916
54.4856
54.4802
54.4744
54.4691
54.4634
54.4582
54.4529
54.4474
54.4425
54.4372
54.4321
55.5535
55.5567
55.5623
55.5679
55.5733
55.5784
55.5834
55.5881
55.5924
55.5961
55.5993
55.6021
55.6045
55.6062
55.6073
55.6079
55.6081
55.608
55.6076
55.6069
55.6059
55.6047
55.6033
55.6017
55.6001
55.5983
55.5964
55.5943
55.5922
55.5899
55.5874
55.5849
55.5822
55.5794
55.5765
55.5734
55.5703
55.567
55.5636
55.5601
55.5565
55.5528
55.5489
55.545
55.5409
55.5367
55.5325
55.5281
55.5236
55.519
55.5142
55.5094
55.5045
55.4996
55.4947
55.4897
55.4845
55.4793
55.4739
55.4684
55.4628
55.4571
55.4513
55.4455
55.4396
55.4336
55.4276
55.4216
55.4155
55.4094
55.4031
55.3967
55.3902
55.3836
55.3768
55.37
55.3631
55.3562
55.3492
55.3421
55.3351
55.3279
55.3207
55.3133
55.3059
55.2984
55.2908
55.2832
55.2754
55.2676
55.2598
55.2518
55.2438
55.2358
55.2277
55.2196
55.2114
55.2032
55.195
55.1867
55.1784
55.1701
55.1617
55.1533
55.1449
55.1364
55.128
55.1195
55.111
55.1025
55.094
55.0854
55.0769
55.0683
55.0597
55.0512
55.0426
55.034
55.0254
55.0168
55.0082
54.9996
54.9911
54.9825
54.9739
54.9652
54.9566
54.948
54.9394
54.9308
54.9222
54.9137
54.9051
54.8965
54.8879
54.8794
54.8708
54.8623
54.8538
54.8454
54.8369
54.8285
54.8201
54.8118
54.8034
54.7952
54.7869
54.7788
54.7706
54.7625
54.7545
54.7465
54.7386
54.7307
54.7229
54.7151
54.7074
54.6998
54.6922
54.6847
54.6772
54.6698
54.6625
54.6552
54.648
54.6408
54.6336
54.6265
54.6195
54.6125
54.6056
54.5987
54.5919
54.5852
54.5785
54.5718
54.5653
54.5587
54.5523
54.5459
54.5397
54.5333
54.5273
54.521
54.5152
54.509
54.5034
54.4973
54.4918
54.4858
54.4804
54.4746
54.4693
54.4636
54.4584
54.4529
54.4478
54.4424
54.4375
54.4324
55.5535
55.5567
55.5623
55.5678
55.5733
55.5784
55.5834
55.5881
55.5924
55.5961
55.5993
55.6021
55.6044
55.6062
55.6073
55.6079
55.6081
55.608
55.6076
55.6069
55.6059
55.6047
55.6033
55.6017
55.6001
55.5983
55.5964
55.5943
55.5921
55.5898
55.5874
55.5849
55.5822
55.5794
55.5765
55.5734
55.5703
55.567
55.5636
55.5601
55.5565
55.5528
55.5489
55.545
55.5409
55.5367
55.5325
55.5281
55.5236
55.519
55.5142
55.5094
55.5045
55.4996
55.4947
55.4896
55.4845
55.4793
55.4739
55.4684
55.4628
55.4571
55.4513
55.4455
55.4396
55.4336
55.4276
55.4216
55.4155
55.4094
55.4031
55.3967
55.3902
55.3836
55.3768
55.37
55.3631
55.3562
55.3492
55.3421
55.3351
55.3279
55.3207
55.3133
55.3059
55.2984
55.2908
55.2832
55.2754
55.2676
55.2598
55.2518
55.2438
55.2358
55.2277
55.2196
55.2114
55.2032
55.195
55.1867
55.1784
55.1701
55.1617
55.1533
55.1449
55.1364
55.128
55.1195
55.111
55.1025
55.094
55.0854
55.0769
55.0683
55.0597
55.0512
55.0426
55.034
55.0254
55.0168
55.0082
54.9996
54.9911
54.9825
54.9739
54.9652
54.9566
54.948
54.9394
54.9308
54.9222
54.9137
54.9051
54.8965
54.8879
54.8794
54.8708
54.8623
54.8538
54.8454
54.8369
54.8285
54.8201
54.8118
54.8034
54.7952
54.7869
54.7788
54.7706
54.7625
54.7545
54.7465
54.7386
54.7307
54.7229
54.7151
54.7074
54.6998
54.6922
54.6847
54.6772
54.6698
54.6625
54.6552
54.648
54.6408
54.6336
54.6265
54.6195
54.6125
54.6056
54.5987
54.5919
54.5852
54.5785
54.5718
54.5653
54.5587
54.5523
54.5459
54.5396
54.5334
54.5273
54.5211
54.5151
54.5091
54.5033
54.4974
54.4916
54.4859
54.4803
54.4746
54.4693
54.4636
54.4583
54.453
54.4477
54.4424
54.4374
54.4323
55.5535
55.5567
55.5623
55.5679
55.5733
55.5784
55.5834
55.5881
55.5924
55.5961
55.5993
55.6021
55.6045
55.6062
55.6073
55.6079
55.6081
55.608
55.6076
55.6069
55.6059
55.6047
55.6033
55.6017
55.6001
55.5983
55.5964
55.5943
55.5922
55.5899
55.5874
55.5849
55.5822
55.5794
55.5765
55.5734
55.5703
55.567
55.5636
55.5601
55.5565
55.5528
55.5489
55.545
55.5409
55.5367
55.5325
55.5281
55.5236
55.519
55.5142
55.5094
55.5045
55.4996
55.4947
55.4897
55.4845
55.4793
55.4739
55.4684
55.4628
55.4571
55.4513
55.4455
55.4396
55.4336
55.4276
55.4216
55.4155
55.4094
55.4031
55.3967
55.3902
55.3836
55.3768
55.37
55.3631
55.3562
55.3492
55.3421
55.3351
55.3279
55.3207
55.3133
55.3059
55.2984
55.2908
55.2832
55.2754
55.2676
55.2598
55.2518
55.2438
55.2358
55.2277
55.2196
55.2114
55.2032
55.195
55.1867
55.1784
55.1701
55.1617
55.1533
55.1449
55.1364
55.128
55.1195
55.111
55.1025
55.094
55.0854
55.0769
55.0683
55.0597
55.0512
55.0426
55.034
55.0254
55.0168
55.0082
54.9996
54.9911
54.9825
54.9739
54.9652
54.9566
54.948
54.9394
54.9308
54.9222
54.9137
54.9051
54.8965
54.8879
54.8794
54.8708
54.8623
54.8538
54.8454
54.8369
54.8285
54.8201
54.8118
54.8034
54.7952
54.7869
54.7788
54.7706
54.7625
54.7545
54.7465
54.7386
54.7307
54.7229
54.7151
54.7074
54.6998
54.6922
54.6847
54.6772
54.6698
54.6625
54.6552
54.648
54.6408
54.6336
54.6265
54.6195
54.6125
54.6056
54.5987
54.5919
54.5852
54.5785
54.5718
54.5652
54.5588
54.5523
54.546
54.5396
54.5335
54.5272
54.5212
54.515
54.5092
54.5031
54.4975
54.4915
54.4861
54.4801
54.4748
54.469
54.4638
54.4582
54.4531
54.4476
54.4425
54.4376
54.432
55.5532
55.5564
55.562
55.5676
55.573
55.5781
55.5831
55.5878
55.5921
55.5958
55.599
55.6018
55.6042
55.6059
55.607
55.6076
55.6078
55.6077
55.6073
55.6066
55.6056
55.6044
55.603
55.6015
55.5998
55.598
55.5961
55.594
55.5919
55.5896
55.5872
55.5846
55.5819
55.5791
55.5762
55.5732
55.57
55.5668
55.5634
55.5599
55.5563
55.5525
55.5487
55.5447
55.5407
55.5365
55.5322
55.5278
55.5233
55.5187
55.514
55.5092
55.5043
55.4994
55.4944
55.4894
55.4843
55.4791
55.4737
55.4682
55.4626
55.4569
55.4511
55.4453
55.4394
55.4334
55.4274
55.4214
55.4153
55.4092
55.4029
55.3965
55.39
55.3834
55.3766
55.3698
55.3629
55.356
55.349
55.342
55.3349
55.3277
55.3205
55.3132
55.3058
55.2983
55.2907
55.283
55.2753
55.2674
55.2596
55.2517
55.2437
55.2356
55.2276
55.2194
55.2113
55.2031
55.1948
55.1865
55.1782
55.1699
55.1615
55.1531
55.1447
55.1363
55.1278
55.1193
55.1108
55.1023
55.0938
55.0852
55.0767
55.0681
55.0596
55.051
55.0424
55.0338
55.0252
55.0167
55.0081
54.9995
54.9909
54.9823
54.9737
54.9651
54.9565
54.9479
54.9393
54.9307
54.9221
54.9135
54.9049
54.8963
54.8878
54.8792
54.8707
54.8622
54.8537
54.8452
54.8367
54.8283
54.8199
54.8116
54.8033
54.795
54.7868
54.7786
54.7705
54.7624
54.7543
54.7463
54.7384
54.7305
54.7227
54.715
54.7073
54.6996
54.6921
54.6845
54.6771
54.6697
54.6623
54.655
54.6478
54.6406
54.6335
54.6264
54.6194
54.6124
54.6054
54.5986
54.5918
54.585
54.5783
54.5717
54.5651
54.5586
54.5521
54.5458
54.5394
54.5333
54.527
54.5211
54.5148
54.5091
54.503
54.4974
54.4914
54.4859
54.48
54.4747
54.4689
54.4637
54.458
54.4529
54.4475
54.4422
54.4376
54.4319
54.4297
54.4288
54.4279
54.4269
54.426
54.4249
54.4238
54.4227
54.4216
54.4206
54.4199
54.4194
54.4186
54.4174
54.4157
54.4139
54.4117
54.4101
54.4089
54.4083
54.4299
54.4289
54.4278
54.4268
54.4258
54.4247
54.4236
54.4225
54.4214
54.4204
54.4199
54.4194
54.4185
54.417
54.4152
54.4136
54.412
54.4105
54.4093
54.4083
54.4294
54.4284
54.4274
54.4265
54.4254
54.4244
54.4234
54.4222
54.4211
54.4199
54.4187
54.4175
54.4164
54.4152
54.4139
54.4125
54.411
54.4097
54.4082
54.4068
54.428
54.4271
54.4262
54.4254
54.4245
54.4237
54.4228
54.4219
54.4209
54.42
54.4191
54.4182
54.4172
54.4162
54.4154
54.4144
54.4134
54.4125
54.4116
54.4108
54.4275
54.4264
54.4253
54.4244
54.4234
54.4224
54.4214
54.4204
54.4194
54.4184
54.4174
54.4165
54.4156
54.4146
54.4137
54.4129
54.412
54.4111
54.4103
54.4095
54.4068
54.4029
54.3969
54.3922
54.3886
54.3869
54.3818
54.3753
54.3726
54.3747
54.368
54.3619
54.3588
54.3609
54.3614
54.3485
54.3434
54.3422
54.3405
54.3473
54.3407
54.3262
54.3237
54.3248
54.3234
54.33
54.3307
54.3088
54.3029
54.3067
54.3083
54.3199
54.3298
54.3156
54.2927
54.2871
54.2862
54.284
54.2812
54.2786
54.2769
54.2774
54.2766
54.2802
54.2898
54.2995
54.2818
54.2601
54.2565
54.256
54.2542
54.252
54.2497
54.2475
54.2455
54.2434
54.2414
54.2395
54.2376
54.2358
54.234
54.2323
54.2305
54.2289
54.2272
54.2256
54.224
54.2223
54.2208
54.2192
54.2177
54.2161
54.2146
54.2132
54.2117
54.2103
54.2089
54.2075
54.2061
54.2048
54.2035
54.2022
54.201
54.1998
54.1986
54.1975
54.1964
54.1952
54.1941
54.193
54.192
54.1912
54.1907
54.1906
54.1906
54.1909
54.1935
54.1955
54.1928
54.1874
54.183
54.1826
54.1829
54.1829
54.1828
54.1825
54.182
54.1816
54.1813
54.1809
54.1803
54.1793
54.1789
54.1788
54.1784
54.1763
54.1714
54.1696
54.1705
54.1762
54.1804
54.1812
54.1807
54.1797
54.1789
54.1784
54.1779
54.1775
54.1771
54.1768
54.1765
54.1763
54.1761
54.1759
54.1757
54.1756
54.1755
54.1754
54.1753
54.1752
54.1751
54.1751
54.1751
54.175
54.175
54.175
54.175
54.1751
54.1751
54.1751
54.1752
54.1752
54.1753
54.1754
54.1755
54.1755
54.1756
54.1757
54.1759
54.176
54.1761
54.1763
54.1764
54.1766
54.1768
54.177
54.1772
54.1774
54.1776
54.1778
54.1781
54.1783
54.1786
54.1788
54.1791
54.1794
54.1796
54.18
54.1802
54.1806
54.1809
54.1812
54.1815
54.1819
54.1821
54.1825
54.1828
54.1832
54.1834
54.1838
54.1841
54.1845
54.1847
54.1851
54.1854
54.1858
54.1861
54.1863
54.1868
54.1872
54.4053
54.4004
54.3954
54.3907
54.3839
54.3789
54.375
54.3724
54.3677
54.3639
54.3581
54.3562
54.3527
54.3486
54.3478
54.3388
54.3391
54.3357
54.3271
54.333
54.328
54.3202
54.3212
54.3168
54.3095
54.3164
54.3182
54.3009
54.3017
54.3017
54.2963
54.3067
54.3171
54.3048
54.2881
54.2853
54.2846
54.2824
54.2798
54.2774
54.2766
54.2755
54.267
54.2679
54.2784
54.2885
54.2726
54.2566
54.2549
54.2546
54.2529
54.2507
54.2485
54.2464
54.2444
54.2424
54.2404
54.2385
54.2366
54.2347
54.2329
54.2312
54.2294
54.2277
54.2261
54.2244
54.2228
54.2213
54.2197
54.2182
54.2167
54.2152
54.2138
54.2123
54.2109
54.2094
54.208
54.2066
54.2053
54.2039
54.2026
54.2013
54.2
54.1988
54.1976
54.1963
54.1951
54.194
54.1929
54.1919
54.191
54.1901
54.1892
54.1883
54.1884
54.189
54.1917
54.1934
54.191
54.1856
54.1818
54.1813
54.1813
54.1811
54.1809
54.1808
54.1805
54.1797
54.1787
54.1783
54.1781
54.1778
54.1768
54.1731
54.1696
54.1683
54.1684
54.1716
54.177
54.1804
54.1814
54.181
54.1802
54.1794
54.1788
54.1784
54.1779
54.1776
54.1772
54.1769
54.1767
54.1764
54.1762
54.176
54.1759
54.1757
54.1756
54.1755
54.1754
54.1753
54.1753
54.1752
54.1752
54.1752
54.1752
54.1752
54.1752
54.1752
54.1752
54.1753
54.1753
54.1754
54.1754
54.1755
54.1756
54.1757
54.1758
54.1759
54.176
54.1761
54.1763
54.1764
54.1766
54.1767
54.1769
54.1771
54.1773
54.1775
54.1777
54.178
54.1782
54.1784
54.1787
54.179
54.1792
54.1795
54.1798
54.1801
54.1804
54.1807
54.181
54.1814
54.1816
54.182
54.1823
54.1826
54.1829
54.1833
54.1836
54.1839
54.1842
54.1846
54.1849
54.1852
54.1855
54.1859
54.1862
54.1865
54.187
54.1872
54.4017
54.394
54.3874
54.3811
54.3748
54.3685
54.3627
54.3574
54.352
54.3471
54.3429
54.3389
54.3349
54.3306
54.3266
54.3237
54.3204
54.3171
54.3136
54.3097
54.3066
54.3038
54.3012
54.2982
54.295
54.2915
54.2878
54.2854
54.2827
54.2809
54.2779
54.2739
54.2693
54.2666
54.2673
54.2661
54.2648
54.263
54.2608
54.258
54.2551
54.2524
54.2488
54.2453
54.2423
54.2383
54.2371
54.2373
54.2369
54.2362
54.235
54.2334
54.2316
54.2297
54.2277
54.2256
54.2236
54.2216
54.2197
54.2178
54.2161
54.2143
54.2126
54.211
54.2093
54.2077
54.206
54.2044
54.2027
54.2011
54.1994
54.1977
54.1959
54.1942
54.1925
54.1908
54.1891
54.1873
54.1856
54.1843
54.1835
54.1837
54.1843
54.1855
54.1875
54.189
54.1902
54.191
54.1916
54.1915
54.191
54.1901
54.1894
54.1889
54.1886
54.1882
54.187
54.1852
54.1836
54.1825
54.182
54.1817
54.1816
54.1815
54.1815
54.1814
54.1814
54.1813
54.1811
54.181
54.1808
54.1807
54.1806
54.1806
54.1807
54.1807
54.1806
54.1806
54.1805
54.1802
54.1799
54.1795
54.1791
54.1787
54.1784
54.178
54.1777
54.1774
54.1771
54.1768
54.1766
54.1764
54.1762
54.176
54.1759
54.1757
54.1756
54.1755
54.1754
54.1753
54.1753
54.1752
54.1752
54.1752
54.1752
54.1752
54.1752
54.1752
54.1752
54.1753
54.1753
54.1754
54.1754
54.1755
54.1756
54.1757
54.1758
54.1759
54.176
54.1761
54.1763
54.1764
54.1766
54.1767
54.1769
54.1771
54.1773
54.1775
54.1777
54.178
54.1782
54.1784
54.1787
54.179
54.1792
54.1795
54.1798
54.1801
54.1804
54.1807
54.181
54.1813
54.1817
54.182
54.1823
54.1826
54.183
54.1833
54.1836
54.1839
54.1843
54.1846
54.1849
54.1853
54.1856
54.1858
54.1862
54.1865
54.1868
54.1871
54.4071
54.402
54.3967
54.3907
54.3856
54.3813
54.3777
54.3734
54.3684
54.3641
54.361
54.3578
54.3534
54.3492
54.3457
54.3442
54.3414
54.3369
54.3319
54.3275
54.3259
54.3251
54.3233
54.3187
54.3134
54.3084
54.3057
54.3052
54.3051
54.3017
54.2966
54.2915
54.2877
54.2848
54.2841
54.2831
54.2817
54.2802
54.279
54.2783
54.2771
54.275
54.2705
54.2657
54.2608
54.2574
54.2545
54.2543
54.2539
54.2524
54.2506
54.2488
54.247
54.2453
54.2435
54.2417
54.24
54.2382
54.2365
54.2348
54.2331
54.2314
54.2298
54.2282
54.2266
54.225
54.2235
54.2219
54.2203
54.2188
54.2172
54.2157
54.2142
54.2127
54.2112
54.2097
54.2083
54.2069
54.2055
54.2042
54.2029
54.2017
54.2005
54.1993
54.1982
54.1971
54.1961
54.1951
54.1942
54.1934
54.1927
54.1923
54.1919
54.1917
54.1913
54.1903
54.1886
54.1862
54.1835
54.1818
54.1815
54.1812
54.1808
54.1802
54.1793
54.1772
54.1755
54.175
54.1744
54.1729
54.1707
54.1697
54.1696
54.1713
54.1764
54.1805
54.1824
54.1827
54.1822
54.1814
54.1807
54.1801
54.1796
54.1791
54.1786
54.1782
54.1778
54.1775
54.1772
54.1769
54.1766
54.1764
54.1762
54.176
54.1759
54.1757
54.1756
54.1755
54.1754
54.1753
54.1753
54.1752
54.1752
54.1752
54.1752
54.1752
54.1752
54.1752
54.1752
54.1753
54.1753
54.1754
54.1754
54.1755
54.1756
54.1757
54.1758
54.1759
54.176
54.1761
54.1763
54.1764
54.1766
54.1767
54.1769
54.1771
54.1773
54.1775
54.1777
54.178
54.1782
54.1784
54.1787
54.179
54.1792
54.1795
54.1798
54.1801
54.1804
54.1807
54.181
54.1813
54.1817
54.182
54.1823
54.1826
54.183
54.1832
54.1836
54.1839
54.1843
54.1845
54.1849
54.1852
54.1856
54.1858
54.1862
54.1865
54.1869
54.1872
54.4077
54.4041
54.4003
54.3962
54.3919
54.3876
54.3835
54.3797
54.3754
54.3707
54.3664
54.3629
54.3592
54.3545
54.3494
54.3457
54.3432
54.3401
54.3355
54.33
54.3254
54.323
54.3218
54.319
54.3145
54.3088
54.3039
54.3009
54.301
54.299
54.2948
54.2894
54.2838
54.2794
54.2778
54.2765
54.2749
54.2733
54.2719
54.2708
54.2704
54.2695
54.2666
54.262
54.2568
54.252
54.2478
54.2464
54.2457
54.2442
54.2425
54.2407
54.2388
54.237
54.2352
54.2333
54.2315
54.2297
54.2279
54.2262
54.2244
54.2227
54.2211
54.2195
54.2178
54.2162
54.2146
54.2131
54.2116
54.21
54.2085
54.2071
54.2056
54.2041
54.2027
54.2013
54.1999
54.1986
54.1973
54.196
54.1948
54.1936
54.1925
54.1914
54.1903
54.1892
54.1882
54.1872
54.1863
54.1854
54.1846
54.184
54.1838
54.1839
54.1835
54.1822
54.1803
54.1787
54.1771
54.1758
54.1747
54.1742
54.1743
54.1737
54.1694
54.1655
54.166
54.1713
54.176
54.1786
54.1798
54.1806
54.181
54.1812
54.1813
54.1812
54.181
54.1808
54.1805
54.1801
54.1797
54.1794
54.179
54.1786
54.1782
54.1779
54.1776
54.1773
54.177
54.1767
54.1765
54.1762
54.176
54.1759
54.1757
54.1756
54.1755
54.1754
54.1753
54.1752
54.1751
54.1751
54.1751
54.175
54.175
54.175
54.175
54.1751
54.1751
54.1751
54.1752
54.1752
54.1753
54.1754
54.1755
54.1755
54.1756
54.1757
54.1759
54.176
54.1761
54.1763
54.1764
54.1766
54.1768
54.177
54.1772
54.1774
54.1776
54.1778
54.1781
54.1783
54.1786
54.1788
54.1791
54.1794
54.1797
54.1799
54.1803
54.1806
54.1809
54.1812
54.1815
54.1818
54.1822
54.1825
54.1828
54.1831
54.1835
54.1838
54.1841
54.1844
54.1848
54.1851
54.1854
54.1858
54.186
54.1863
54.1868
54.1871
54.1874
54.1874
54.1874
54.1874
54.1874
54.1874
54.1874
54.1874
54.1875
54.1876
54.1876
54.1877
54.1878
54.1879
54.188
54.1882
54.1883
54.1884
54.1885
54.1886
54.1873
54.1873
54.1874
54.1875
54.1875
54.1876
54.1877
54.1878
54.1879
54.1881
54.1882
54.1883
54.1885
54.1886
54.1886
54.1886
54.1885
54.1886
54.1886
54.1886
54.1873
54.1874
54.1875
54.1876
54.1877
54.1878
54.1879
54.1879
54.188
54.1879
54.1878
54.1878
54.1877
54.1876
54.1876
54.1874
54.1868
54.1864
54.186
54.1859
54.1874
54.1875
54.1875
54.1876
54.1877
54.1878
54.1878
54.1878
54.1878
54.1876
54.1873
54.1873
54.1876
54.1878
54.188
54.1881
54.1881
54.1879
54.1876
54.1873
54.1873
54.1873
54.1873
54.1874
54.1874
54.1875
54.1876
54.1876
54.1875
54.1873
54.1872
54.1872
54.1874
54.1877
54.1879
54.1882
54.1885
54.1885
54.1884
54.1882
54.1892
54.1896
54.1898
54.1902
54.1905
54.1907
54.19
54.1895
54.1895
54.1899
54.1903
54.1902
54.1893
54.1891
54.1896
54.1899
54.1894
54.188
54.1875
54.1881
54.1889
54.189
54.1881
54.1862
54.1861
54.1871
54.1882
54.1886
54.1881
54.186
54.1852
54.1861
54.188
54.1893
54.1896
54.1889
54.1876
54.1865
54.1858
54.1851
54.1847
54.1842
54.1825
54.1827
54.1841
54.1851
54.1858
54.1864
54.187
54.1876
54.1881
54.1887
54.1892
54.1897
54.1902
54.1907
54.1912
54.1917
54.1921
54.1926
54.193
54.1934
54.1939
54.1943
54.1948
54.1954
54.196
54.1966
54.1968
54.1976
54.1987
54.1999
54.2014
54.2033
54.2054
54.2062
54.2064
54.2061
54.2049
54.2035
54.2025
54.2024
54.2017
54.201
54.2013
54.2022
54.2031
54.204
54.2049
54.2057
54.2062
54.2067
54.2074
54.205
54.1987
54.2016
54.2085
54.2112
54.2116
54.2121
54.1884
54.1866
54.1856
54.1856
54.1854
54.1835
54.1806
54.1799
54.1808
54.1819
54.1814
54.1794
54.1796
54.1814
54.1824
54.1813
54.1795
54.1796
54.1823
54.1845
54.1848
54.1821
54.1806
54.1808
54.184
54.1869
54.1876
54.1856
54.1829
54.1822
54.1834
54.1871
54.1896
54.1901
54.1882
54.1852
54.1835
54.1828
54.1826
54.1837
54.1868
54.1881
54.1875
54.1883
54.1896
54.1901
54.1906
54.1912
54.1918
54.1926
54.1934
54.1942
54.195
54.1958
54.1965
54.1972
54.1979
54.1985
54.1992
54.1998
54.2004
54.201
54.2016
54.2022
54.2028
54.2034
54.2041
54.2047
54.2049
54.2056
54.2065
54.2074
54.2087
54.2101
54.211
54.2111
54.2103
54.2094
54.2086
54.2075
54.2066
54.2063
54.2056
54.2066
54.2084
54.2098
54.2111
54.2119
54.2123
54.2127
54.2132
54.2135
54.2137
54.2139
54.2123
54.2116
54.2116
54.212
54.2116
54.2115
54.1849
54.1814
54.1782
54.1757
54.1737
54.1717
54.1695
54.1678
54.1667
54.1659
54.165
54.1648
54.1648
54.1648
54.1646
54.1646
54.1653
54.1658
54.1657
54.1655
54.1662
54.1673
54.1683
54.1682
54.1679
54.1681
54.1688
54.1701
54.1712
54.171
54.1705
54.1704
54.1708
54.1712
54.1717
54.1722
54.1726
54.173
54.1732
54.1732
54.1724
54.1708
54.1707
54.1727
54.1744
54.1762
54.1777
54.1789
54.1797
54.1803
54.1809
54.1813
54.1817
54.1821
54.1825
54.1828
54.183
54.1833
54.1836
54.1839
54.1842
54.1844
54.1846
54.1849
54.185
54.1851
54.1851
54.1847
54.1857
54.1871
54.1886
54.19
54.1918
54.1943
54.1972
54.2001
54.2031
54.2058
54.2074
54.2083
54.2085
54.2082
54.2076
54.2075
54.2082
54.2089
54.2099
54.2107
54.2114
54.2121
54.2129
54.2136
54.2146
54.2155
54.2164
54.2176
54.2183
54.2191
54.22
54.2208
54.1866
54.1837
54.181
54.1808
54.1824
54.1839
54.1804
54.1736
54.174
54.1772
54.1795
54.174
54.1728
54.1741
54.1791
54.1759
54.1707
54.172
54.1736
54.179
54.177
54.1722
54.1733
54.1733
54.1772
54.181
54.179
54.1755
54.1762
54.1768
54.1768
54.1825
54.185
54.1844
54.1828
54.1818
54.1821
54.1834
54.1859
54.1912
54.2019
54.2119
54.2042
54.1901
54.1916
54.1956
54.1972
54.1978
54.1979
54.1981
54.1983
54.1986
54.1989
54.1993
54.1996
54.1999
54.2003
54.2006
54.2009
54.2012
54.2015
54.2019
54.2022
54.2025
54.2029
54.2034
54.2045
54.2077
54.2046
54.2041
54.2044
54.205
54.206
54.2082
54.2094
54.2088
54.2095
54.2112
54.2134
54.2163
54.2207
54.2256
54.2255
54.2166
54.2082
54.2086
54.2104
54.2114
54.212
54.2124
54.2131
54.2138
54.2145
54.2152
54.2159
54.2165
54.2169
54.2169
54.2166
54.2167
54.1868
54.186
54.1851
54.1856
54.1855
54.1861
54.1868
54.1855
54.1843
54.183
54.1844
54.1854
54.1859
54.1838
54.1845
54.1865
54.1868
54.1842
54.1815
54.182
54.1861
54.1874
54.185
54.1824
54.1803
54.1819
54.1872
54.1887
54.1863
54.1846
54.1822
54.1817
54.1852
54.1916
54.1924
54.1907
54.1902
54.1908
54.1928
54.1976
54.208
54.218
54.2079
54.188
54.1874
54.1945
54.1978
54.1988
54.1992
54.1992
54.1994
54.1996
54.1999
54.2002
54.2006
54.2009
54.2012
54.2016
54.2019
54.2023
54.2026
54.2029
54.2033
54.2036
54.204
54.2045
54.2055
54.2098
54.206
54.2052
54.2054
54.2059
54.2068
54.2083
54.2109
54.2128
54.2129
54.2136
54.2151
54.2175
54.2214
54.2266
54.2266
54.2171
54.2079
54.2086
54.2116
54.2128
54.2135
54.2138
54.2144
54.2151
54.2159
54.2167
54.2175
54.218
54.2183
54.2187
54.219
54.2192
54.21
54.2095
54.2096
54.2102
54.211
54.2119
54.213
54.2144
54.2193
54.2222
54.2201
54.2204
54.2217
54.2236
54.2246
54.2252
54.2256
54.2259
54.226
54.2261
54.2098
54.2094
54.2093
54.2096
54.21
54.2104
54.2109
54.2115
54.2122
54.2141
54.2147
54.2157
54.2179
54.2206
54.2222
54.2236
54.2249
54.2255
54.2257
54.2256
54.2206
54.2197
54.2196
54.2196
54.2198
54.22
54.2204
54.2207
54.2211
54.2216
54.2221
54.2225
54.2228
54.2228
54.2226
54.2223
54.2218
54.2213
54.2211
54.2211
54.2166
54.2162
54.2159
54.2157
54.2157
54.2162
54.2164
54.2167
54.217
54.2172
54.217
54.216
54.2146
54.2134
54.2121
54.2115
54.2108
54.2102
54.2104
54.2095
54.2197
54.22
54.2197
54.2195
54.2194
54.2196
54.2195
54.2195
54.2195
54.2196
54.2197
54.2199
54.2202
54.2204
54.2206
54.2211
54.2218
54.2214
54.2216
54.2174
54.2259
54.2266
54.2273
54.2275
54.2273
54.2262
54.2259
54.226
54.2264
54.2264
54.2257
54.2249
54.2249
54.2252
54.2254
54.2246
54.2233
54.2223
54.222
54.2224
54.2228
54.223
54.2223
54.2207
54.2189
54.218
54.2183
54.2192
54.22
54.2202
54.2196
54.218
54.2166
54.2156
54.2149
54.2144
54.2138
54.2134
54.2133
54.2122
54.21
54.2095
54.2102
54.2108
54.2111
54.2113
54.2117
54.2122
54.213
54.2141
54.215
54.2149
54.2132
54.2116
54.212
54.2133
54.2146
54.2162
54.2181
54.2194
54.2198
54.2195
54.2186
54.2169
54.2149
54.2151
54.2159
54.2172
54.2175
54.2169
54.2154
54.2138
54.2127
54.2121
54.2117
54.2105
54.2097
54.2098
54.2103
54.2111
54.2117
54.2122
54.2128
54.2108
54.202
54.2105
54.2171
54.2191
54.221
54.2224
54.2235
54.2245
54.2252
54.2259
54.2261
54.2263
54.2264
54.2265
54.2266
54.2266
54.2266
54.2265
54.2265
54.2264
54.2263
54.2262
54.2262
54.2261
54.226
54.226
54.2259
54.2258
54.2258
54.2257
54.2257
54.2256
54.2256
54.2255
54.2255
54.2255
54.2254
54.2254
54.2254
54.2254
54.2253
54.2253
54.2253
54.2253
54.2253
54.2254
54.2254
54.2254
54.2254
54.2255
54.2255
54.2255
54.2256
54.2257
54.2257
54.2258
54.2259
54.226
54.226
54.2261
54.2263
54.2264
54.2265
54.2266
54.2267
54.2269
54.227
54.2272
54.2273
54.2275
54.2277
54.2278
54.228
54.2282
54.2283
54.2285
54.2287
54.2289
54.2291
54.2292
54.2294
54.2296
54.2298
54.2299
54.2301
54.2303
54.2305
54.2307
54.2308
54.231
54.2312
54.2313
54.2315
54.2317
54.2319
54.232
54.2323
54.2324
54.2327
54.2327
54.233
54.2331
54.2334
54.2335
54.2338
54.2339
54.2342
54.2343
54.2346
54.2347
54.2349
54.2353
54.2352
54.2356
54.2358
54.2359
54.2237
54.2226
54.2227
54.2224
54.2203
54.2174
54.217
54.2178
54.2182
54.2166
54.2143
54.2145
54.2165
54.2175
54.2167
54.2133
54.2121
54.2126
54.2162
54.2187
54.2192
54.2171
54.2132
54.2115
54.2111
54.2132
54.2176
54.2196
54.2198
54.2175
54.2137
54.2113
54.21
54.2093
54.209
54.2093
54.2113
54.2139
54.2158
54.2156
54.2139
54.2134
54.2139
54.214
54.2141
54.2145
54.2151
54.2161
54.2176
54.2189
54.2193
54.2189
54.2178
54.2171
54.2179
54.2196
54.2212
54.2224
54.2232
54.2232
54.2227
54.2211
54.218
54.2162
54.2157
54.2163
54.2176
54.219
54.2194
54.2191
54.2181
54.2168
54.2157
54.215
54.2151
54.2158
54.2166
54.2175
54.2182
54.2187
54.2188
54.2189
54.2189
54.2189
54.2167
54.2151
54.2146
54.2147
54.2148
54.2141
54.2122
54.2121
54.2149
54.2232
54.2271
54.2277
54.2276
54.2273
54.2272
54.2271
54.2269
54.2268
54.2267
54.2266
54.2265
54.2264
54.2263
54.2262
54.2262
54.2261
54.226
54.2259
54.2259
54.2258
54.2258
54.2257
54.2257
54.2256
54.2256
54.2256
54.2255
54.2255
54.2255
54.2255
54.2255
54.2254
54.2254
54.2254
54.2254
54.2255
54.2255
54.2255
54.2255
54.2256
54.2256
54.2256
54.2257
54.2258
54.2258
54.2259
54.226
54.2261
54.2262
54.2263
54.2264
54.2265
54.2266
54.2267
54.2269
54.227
54.2271
54.2273
54.2274
54.2276
54.2278
54.2279
54.2281
54.2283
54.2284
54.2286
54.2288
54.229
54.2292
54.2293
54.2295
54.2297
54.2299
54.23
54.2302
54.2304
54.2306
54.2308
54.2309
54.2311
54.2313
54.2314
54.2316
54.2318
54.232
54.2321
54.2324
54.2325
54.2328
54.2329
54.2331
54.2332
54.2335
54.2336
54.2339
54.234
54.2343
54.2344
54.2347
54.2348
54.2351
54.2352
54.2355
54.2356
54.2359
54.2361
54.221
54.218
54.2149
54.2124
54.2101
54.2076
54.2056
54.204
54.2029
54.2017
54.2013
54.2012
54.2009
54.2005
54.2003
54.2009
54.2016
54.2014
54.2007
54.2006
54.201
54.2017
54.2025
54.2026
54.2018
54.2013
54.2013
54.2014
54.2015
54.2016
54.2017
54.2018
54.2019
54.2018
54.2017
54.2016
54.2013
54.2006
54.1995
54.1977
54.197
54.1983
54.1995
54.2008
54.2019
54.2027
54.2031
54.2033
54.2033
54.2034
54.2031
54.2027
54.2003
54.2002
54.2011
54.2012
54.2005
54.1996
54.1992
54.1989
54.1996
54.2012
54.2033
54.205
54.2074
54.2104
54.2131
54.2156
54.2177
54.2188
54.2192
54.2194
54.2192
54.2185
54.2174
54.2165
54.2162
54.2165
54.2169
54.2176
54.2182
54.2187
54.2194
54.2202
54.2209
54.2217
54.2221
54.2224
54.2225
54.2228
54.2231
54.2237
54.2243
54.2249
54.2253
54.2258
54.2263
54.2266
54.2267
54.2267
54.2267
54.2266
54.2266
54.2265
54.2264
54.2263
54.2263
54.2262
54.2261
54.2261
54.226
54.2259
54.2259
54.2258
54.2258
54.2257
54.2257
54.2256
54.2256
54.2256
54.2255
54.2255
54.2255
54.2255
54.2255
54.2254
54.2254
54.2254
54.2254
54.2255
54.2255
54.2255
54.2255
54.2256
54.2256
54.2256
54.2257
54.2258
54.2258
54.2259
54.226
54.2261
54.2262
54.2263
54.2264
54.2265
54.2266
54.2267
54.2269
54.227
54.2271
54.2273
54.2274
54.2276
54.2278
54.2279
54.2281
54.2283
54.2284
54.2286
54.2288
54.229
54.2292
54.2293
54.2295
54.2297
54.2299
54.23
54.2302
54.2304
54.2306
54.2308
54.2309
54.2311
54.2313
54.2315
54.2316
54.2318
54.232
54.2322
54.2324
54.2325
54.2327
54.2329
54.2331
54.2333
54.2335
54.2336
54.2339
54.234
54.2343
54.2344
54.2346
54.2349
54.235
54.2352
54.2355
54.2357
54.2359
54.2361
54.2138
54.2194
54.2188
54.2197
54.2213
54.2181
54.2112
54.2115
54.2153
54.2154
54.2076
54.2066
54.2088
54.2138
54.2108
54.205
54.2046
54.2049
54.2085
54.2127
54.2113
54.2074
54.2052
54.2054
54.2053
54.2075
54.213
54.2141
54.2134
54.2119
54.2106
54.21
54.21
54.2101
54.2103
54.211
54.2128
54.2169
54.2258
54.2354
54.2296
54.2164
54.217
54.2205
54.2218
54.2221
54.2218
54.2214
54.2213
54.222
54.2234
54.2214
54.2374
54.231
54.2185
54.2178
54.2199
54.2223
54.2221
54.2107
54.2046
54.2041
54.206
54.2074
54.2079
54.2138
54.2179
54.2204
54.2219
54.2234
54.2251
54.2265
54.2281
54.2304
54.2313
54.2263
54.2181
54.2158
54.2174
54.2185
54.2191
54.2195
54.2198
54.2203
54.2207
54.2211
54.2213
54.2213
54.2208
54.2204
54.2204
54.2206
54.2202
54.2169
54.2137
54.2138
54.2175
54.2245
54.2275
54.2277
54.2273
54.2269
54.2268
54.2266
54.2265
54.2264
54.2263
54.2262
54.2262
54.2261
54.226
54.226
54.2259
54.2258
54.2258
54.2257
54.2257
54.2256
54.2256
54.2256
54.2255
54.2255
54.2255
54.2255
54.2255
54.2254
54.2254
54.2254
54.2254
54.2255
54.2255
54.2255
54.2255
54.2256
54.2256
54.2256
54.2257
54.2258
54.2258
54.2259
54.226
54.2261
54.2262
54.2263
54.2264
54.2265
54.2266
54.2267
54.2269
54.227
54.2271
54.2273
54.2274
54.2276
54.2278
54.2279
54.2281
54.2283
54.2284
54.2286
54.2288
54.229
54.2292
54.2293
54.2295
54.2297
54.2299
54.23
54.2302
54.2304
54.2306
54.2308
54.2309
54.2311
54.2313
54.2315
54.2316
54.2318
54.232
54.2322
54.2323
54.2326
54.2327
54.2329
54.233
54.2333
54.2334
54.2337
54.2338
54.2341
54.2342
54.2345
54.2346
54.2349
54.235
54.2353
54.2355
54.2356
54.2361
54.236
54.2133
54.2192
54.2224
54.2234
54.2242
54.2246
54.2228
54.2212
54.2204
54.2213
54.2215
54.2193
54.2178
54.2182
54.2207
54.221
54.2166
54.2135
54.2121
54.2127
54.2172
54.2192
54.2162
54.2122
54.2112
54.2102
54.2102
54.2127
54.2185
54.2199
54.2185
54.2174
54.217
54.2167
54.2167
54.2171
54.2185
54.2223
54.231
54.2403
54.2318
54.2121
54.2097
54.2178
54.2219
54.223
54.2231
54.2227
54.2224
54.2227
54.2236
54.2276
54.2486
54.2412
54.2239
54.2195
54.2208
54.2225
54.2249
54.2235
54.2134
54.2097
54.21
54.2107
54.2087
54.2086
54.2115
54.2193
54.2228
54.2241
54.2252
54.2264
54.2284
54.2314
54.232
54.2257
54.217
54.2136
54.2173
54.2196
54.2205
54.2209
54.2212
54.2217
54.2222
54.2225
54.2225