/*--------------------------------*- C++ -*----------------------------------*\
| =========                 |                                                 |
| \\      /  F ield         | OpenFOAM: The Open Source CFD Toolbox           |
|  \\    /   O peration     | Version:  3.0.x                                 |
|   \\  /    A nd           | Web:      www.OpenFOAM.org                      |
|    \\/     M anipulation  |                                                 |
\*---------------------------------------------------------------------------*/
FoamFile
{
    version     2.0;
    format      ascii;
    class       volScalarField;
    location    "0.46995";
    object      p;
}
// * * * * * * * * * * * * * * * * * * * * * * * * * * * * * * * * * * * * * //

dimensions      [1 -1 -2 0 0 0 0];

internalField   nonuniform List<scalar> 
13800
(
1.80642e+07
1.80642e+07
1.80642e+07
1.80642e+07
1.80642e+07
1.80642e+07
1.80642e+07
1.80642e+07
1.80642e+07
1.80642e+07
1.80642e+07
1.80642e+07
1.80642e+07
1.80642e+07
1.80642e+07
1.80642e+07
1.80642e+07
1.80642e+07
1.80642e+07
1.80642e+07
1.80642e+07
1.80642e+07
1.80642e+07
1.80642e+07
1.80642e+07
1.80642e+07
1.80642e+07
1.80642e+07
1.80642e+07
1.80642e+07
1.80642e+07
1.80642e+07
1.80642e+07
1.80642e+07
1.80642e+07
1.80642e+07
1.80642e+07
1.80642e+07
1.80642e+07
1.80642e+07
1.80642e+07
1.80642e+07
1.80642e+07
1.80642e+07
1.80642e+07
1.80642e+07
1.80642e+07
1.80642e+07
1.80642e+07
1.80642e+07
1.80642e+07
1.80642e+07
1.80642e+07
1.80642e+07
1.80642e+07
1.80642e+07
1.80642e+07
1.80642e+07
1.80642e+07
1.80642e+07
1.80642e+07
1.80642e+07
1.80642e+07
1.80642e+07
1.80642e+07
1.80642e+07
1.80642e+07
1.80643e+07
1.80643e+07
1.80643e+07
1.80643e+07
1.80643e+07
1.80643e+07
1.80643e+07
1.80644e+07
1.80644e+07
1.80644e+07
1.80644e+07
1.80645e+07
1.80645e+07
1.80645e+07
1.80646e+07
1.80646e+07
1.80646e+07
1.80647e+07
1.80648e+07
1.80648e+07
1.80649e+07
1.8065e+07
1.8065e+07
1.80651e+07
1.80652e+07
1.80653e+07
1.80655e+07
1.80656e+07
1.80657e+07
1.80659e+07
1.8066e+07
1.80662e+07
1.80664e+07
1.80666e+07
1.80668e+07
1.8067e+07
1.80673e+07
1.80675e+07
1.80678e+07
1.80681e+07
1.80684e+07
1.80688e+07
1.80692e+07
1.80695e+07
1.807e+07
1.80704e+07
1.80709e+07
1.80714e+07
1.80719e+07
1.80724e+07
1.8073e+07
1.80736e+07
1.80743e+07
1.8075e+07
1.80757e+07
1.80764e+07
1.80772e+07
1.80781e+07
1.80789e+07
1.80798e+07
1.80808e+07
1.80818e+07
1.80828e+07
1.80839e+07
1.8085e+07
1.80862e+07
1.80874e+07
1.80887e+07
1.809e+07
1.80913e+07
1.80928e+07
1.80942e+07
1.80958e+07
1.80973e+07
1.8099e+07
1.81006e+07
1.81024e+07
1.81042e+07
1.8106e+07
1.8108e+07
1.81099e+07
1.8112e+07
1.81141e+07
1.81162e+07
1.81185e+07
1.81207e+07
1.81231e+07
1.81255e+07
1.8128e+07
1.81305e+07
1.81332e+07
1.81358e+07
1.81386e+07
1.81414e+07
1.81443e+07
1.81473e+07
1.81503e+07
1.81534e+07
1.81566e+07
1.81599e+07
1.81632e+07
1.81667e+07
1.81701e+07
1.81737e+07
1.81774e+07
1.81811e+07
1.81849e+07
1.81888e+07
1.81928e+07
1.81968e+07
1.8201e+07
1.82052e+07
1.82095e+07
1.82139e+07
1.82184e+07
1.8223e+07
1.82276e+07
1.82324e+07
1.82372e+07
1.82422e+07
1.82472e+07
1.82523e+07
1.82575e+07
1.82628e+07
1.82682e+07
1.82737e+07
1.82793e+07
1.8285e+07
1.82908e+07
1.82968e+07
1.8303e+07
1.83104e+07
1.83203e+07
1.80642e+07
1.80642e+07
1.80642e+07
1.80642e+07
1.80642e+07
1.80642e+07
1.80642e+07
1.80642e+07
1.80642e+07
1.80642e+07
1.80642e+07
1.80642e+07
1.80642e+07
1.80642e+07
1.80642e+07
1.80642e+07
1.80642e+07
1.80642e+07
1.80642e+07
1.80642e+07
1.80642e+07
1.80642e+07
1.80642e+07
1.80642e+07
1.80642e+07
1.80642e+07
1.80642e+07
1.80642e+07
1.80642e+07
1.80642e+07
1.80642e+07
1.80642e+07
1.80642e+07
1.80642e+07
1.80642e+07
1.80642e+07
1.80642e+07
1.80642e+07
1.80642e+07
1.80642e+07
1.80642e+07
1.80642e+07
1.80642e+07
1.80642e+07
1.80642e+07
1.80642e+07
1.80642e+07
1.80642e+07
1.80642e+07
1.80642e+07
1.80642e+07
1.80642e+07
1.80642e+07
1.80642e+07
1.80642e+07
1.80642e+07
1.80642e+07
1.80642e+07
1.80642e+07
1.80642e+07
1.80642e+07
1.80642e+07
1.80642e+07
1.80642e+07
1.80642e+07
1.80642e+07
1.80642e+07
1.80643e+07
1.80643e+07
1.80643e+07
1.80643e+07
1.80643e+07
1.80643e+07
1.80643e+07
1.80644e+07
1.80644e+07
1.80644e+07
1.80644e+07
1.80645e+07
1.80645e+07
1.80645e+07
1.80646e+07
1.80646e+07
1.80646e+07
1.80647e+07
1.80648e+07
1.80648e+07
1.80649e+07
1.8065e+07
1.8065e+07
1.80651e+07
1.80652e+07
1.80653e+07
1.80655e+07
1.80656e+07
1.80657e+07
1.80659e+07
1.8066e+07
1.80662e+07
1.80664e+07
1.80666e+07
1.80668e+07
1.8067e+07
1.80673e+07
1.80675e+07
1.80678e+07
1.80681e+07
1.80684e+07
1.80688e+07
1.80692e+07
1.80695e+07
1.807e+07
1.80704e+07
1.80709e+07
1.80714e+07
1.80719e+07
1.80724e+07
1.8073e+07
1.80736e+07
1.80743e+07
1.8075e+07
1.80757e+07
1.80764e+07
1.80772e+07
1.80781e+07
1.80789e+07
1.80798e+07
1.80808e+07
1.80818e+07
1.80828e+07
1.80839e+07
1.8085e+07
1.80862e+07
1.80874e+07
1.80887e+07
1.809e+07
1.80913e+07
1.80928e+07
1.80942e+07
1.80958e+07
1.80973e+07
1.8099e+07
1.81006e+07
1.81024e+07
1.81042e+07
1.8106e+07
1.8108e+07
1.81099e+07
1.8112e+07
1.81141e+07
1.81162e+07
1.81185e+07
1.81207e+07
1.81231e+07
1.81255e+07
1.8128e+07
1.81305e+07
1.81332e+07
1.81358e+07
1.81386e+07
1.81414e+07
1.81443e+07
1.81473e+07
1.81503e+07
1.81534e+07
1.81566e+07
1.81599e+07
1.81632e+07
1.81667e+07
1.81701e+07
1.81737e+07
1.81774e+07
1.81811e+07
1.81849e+07
1.81888e+07
1.81928e+07
1.81968e+07
1.8201e+07
1.82052e+07
1.82095e+07
1.82139e+07
1.82184e+07
1.8223e+07
1.82276e+07
1.82324e+07
1.82372e+07
1.82422e+07
1.82472e+07
1.82523e+07
1.82575e+07
1.82628e+07
1.82682e+07
1.82737e+07
1.82793e+07
1.8285e+07
1.82908e+07
1.82968e+07
1.8303e+07
1.83104e+07
1.83202e+07
1.80642e+07
1.80642e+07
1.80642e+07
1.80642e+07
1.80642e+07
1.80642e+07
1.80642e+07
1.80642e+07
1.80642e+07
1.80642e+07
1.80642e+07
1.80642e+07
1.80642e+07
1.80642e+07
1.80642e+07
1.80642e+07
1.80642e+07
1.80642e+07
1.80642e+07
1.80642e+07
1.80642e+07
1.80642e+07
1.80642e+07
1.80642e+07
1.80642e+07
1.80642e+07
1.80642e+07
1.80642e+07
1.80642e+07
1.80642e+07
1.80642e+07
1.80642e+07
1.80642e+07
1.80642e+07
1.80642e+07
1.80642e+07
1.80642e+07
1.80642e+07
1.80642e+07
1.80642e+07
1.80642e+07
1.80642e+07
1.80642e+07
1.80642e+07
1.80642e+07
1.80642e+07
1.80642e+07
1.80642e+07
1.80642e+07
1.80642e+07
1.80642e+07
1.80642e+07
1.80642e+07
1.80642e+07
1.80642e+07
1.80642e+07
1.80642e+07
1.80642e+07
1.80642e+07
1.80642e+07
1.80642e+07
1.80642e+07
1.80642e+07
1.80642e+07
1.80642e+07
1.80642e+07
1.80642e+07
1.80643e+07
1.80643e+07
1.80643e+07
1.80643e+07
1.80643e+07
1.80643e+07
1.80643e+07
1.80644e+07
1.80644e+07
1.80644e+07
1.80644e+07
1.80645e+07
1.80645e+07
1.80645e+07
1.80646e+07
1.80646e+07
1.80646e+07
1.80647e+07
1.80648e+07
1.80648e+07
1.80649e+07
1.8065e+07
1.8065e+07
1.80651e+07
1.80652e+07
1.80653e+07
1.80655e+07
1.80656e+07
1.80657e+07
1.80659e+07
1.8066e+07
1.80662e+07
1.80664e+07
1.80666e+07
1.80668e+07
1.8067e+07
1.80673e+07
1.80675e+07
1.80678e+07
1.80681e+07
1.80684e+07
1.80688e+07
1.80692e+07
1.80695e+07
1.807e+07
1.80704e+07
1.80709e+07
1.80714e+07
1.80719e+07
1.80724e+07
1.8073e+07
1.80736e+07
1.80743e+07
1.8075e+07
1.80757e+07
1.80764e+07
1.80772e+07
1.80781e+07
1.80789e+07
1.80798e+07
1.80808e+07
1.80818e+07
1.80828e+07
1.80839e+07
1.8085e+07
1.80862e+07
1.80874e+07
1.80887e+07
1.809e+07
1.80913e+07
1.80928e+07
1.80942e+07
1.80958e+07
1.80973e+07
1.8099e+07
1.81006e+07
1.81024e+07
1.81042e+07
1.8106e+07
1.8108e+07
1.81099e+07
1.8112e+07
1.81141e+07
1.81162e+07
1.81185e+07
1.81207e+07
1.81231e+07
1.81255e+07
1.8128e+07
1.81305e+07
1.81332e+07
1.81358e+07
1.81386e+07
1.81414e+07
1.81443e+07
1.81473e+07
1.81503e+07
1.81534e+07
1.81566e+07
1.81599e+07
1.81632e+07
1.81667e+07
1.81701e+07
1.81737e+07
1.81774e+07
1.81811e+07
1.81849e+07
1.81888e+07
1.81928e+07
1.81968e+07
1.8201e+07
1.82052e+07
1.82095e+07
1.82139e+07
1.82184e+07
1.8223e+07
1.82276e+07
1.82324e+07
1.82372e+07
1.82422e+07
1.82472e+07
1.82523e+07
1.82575e+07
1.82628e+07
1.82682e+07
1.82737e+07
1.82793e+07
1.8285e+07
1.82908e+07
1.82968e+07
1.8303e+07
1.83104e+07
1.83201e+07
1.80642e+07
1.80642e+07
1.80642e+07
1.80642e+07
1.80642e+07
1.80642e+07
1.80642e+07
1.80642e+07
1.80642e+07
1.80642e+07
1.80642e+07
1.80642e+07
1.80642e+07
1.80642e+07
1.80642e+07
1.80642e+07
1.80642e+07
1.80642e+07
1.80642e+07
1.80642e+07
1.80642e+07
1.80642e+07
1.80642e+07
1.80642e+07
1.80642e+07
1.80642e+07
1.80642e+07
1.80642e+07
1.80642e+07
1.80642e+07
1.80642e+07
1.80642e+07
1.80642e+07
1.80642e+07
1.80642e+07
1.80642e+07
1.80642e+07
1.80642e+07
1.80642e+07
1.80642e+07
1.80642e+07
1.80642e+07
1.80642e+07
1.80642e+07
1.80642e+07
1.80642e+07
1.80642e+07
1.80642e+07
1.80642e+07
1.80642e+07
1.80642e+07
1.80642e+07
1.80642e+07
1.80642e+07
1.80642e+07
1.80642e+07
1.80642e+07
1.80642e+07
1.80642e+07
1.80642e+07
1.80642e+07
1.80642e+07
1.80642e+07
1.80642e+07
1.80642e+07
1.80642e+07
1.80642e+07
1.80643e+07
1.80643e+07
1.80643e+07
1.80643e+07
1.80643e+07
1.80643e+07
1.80643e+07
1.80644e+07
1.80644e+07
1.80644e+07
1.80644e+07
1.80645e+07
1.80645e+07
1.80645e+07
1.80646e+07
1.80646e+07
1.80646e+07
1.80647e+07
1.80648e+07
1.80648e+07
1.80649e+07
1.8065e+07
1.8065e+07
1.80651e+07
1.80652e+07
1.80653e+07
1.80655e+07
1.80656e+07
1.80657e+07
1.80659e+07
1.8066e+07
1.80662e+07
1.80664e+07
1.80666e+07
1.80668e+07
1.8067e+07
1.80673e+07
1.80675e+07
1.80678e+07
1.80681e+07
1.80684e+07
1.80688e+07
1.80692e+07
1.80695e+07
1.807e+07
1.80704e+07
1.80709e+07
1.80714e+07
1.80719e+07
1.80724e+07
1.8073e+07
1.80736e+07
1.80743e+07
1.8075e+07
1.80757e+07
1.80764e+07
1.80772e+07
1.80781e+07
1.80789e+07
1.80798e+07
1.80808e+07
1.80818e+07
1.80828e+07
1.80839e+07
1.8085e+07
1.80862e+07
1.80874e+07
1.80887e+07
1.809e+07
1.80913e+07
1.80928e+07
1.80942e+07
1.80958e+07
1.80973e+07
1.8099e+07
1.81006e+07
1.81024e+07
1.81042e+07
1.8106e+07
1.8108e+07
1.81099e+07
1.8112e+07
1.81141e+07
1.81162e+07
1.81185e+07
1.81207e+07
1.81231e+07
1.81255e+07
1.8128e+07
1.81305e+07
1.81332e+07
1.81358e+07
1.81386e+07
1.81414e+07
1.81443e+07
1.81473e+07
1.81503e+07
1.81534e+07
1.81566e+07
1.81599e+07
1.81632e+07
1.81667e+07
1.81701e+07
1.81737e+07
1.81774e+07
1.81811e+07
1.81849e+07
1.81888e+07
1.81928e+07
1.81968e+07
1.8201e+07
1.82052e+07
1.82095e+07
1.82139e+07
1.82184e+07
1.8223e+07
1.82276e+07
1.82324e+07
1.82372e+07
1.82422e+07
1.82472e+07
1.82523e+07
1.82575e+07
1.82628e+07
1.82682e+07
1.82737e+07
1.82793e+07
1.8285e+07
1.82908e+07
1.82968e+07
1.8303e+07
1.83102e+07
1.83194e+07
1.80642e+07
1.80642e+07
1.80642e+07
1.80642e+07
1.80642e+07
1.80642e+07
1.80642e+07
1.80642e+07
1.80642e+07
1.80642e+07
1.80642e+07
1.80642e+07
1.80642e+07
1.80642e+07
1.80642e+07
1.80642e+07
1.80642e+07
1.80642e+07
1.80642e+07
1.80642e+07
1.80642e+07
1.80642e+07
1.80642e+07
1.80642e+07
1.80642e+07
1.80642e+07
1.80642e+07
1.80642e+07
1.80642e+07
1.80642e+07
1.80642e+07
1.80642e+07
1.80642e+07
1.80642e+07
1.80642e+07
1.80642e+07
1.80642e+07
1.80642e+07
1.80642e+07
1.80642e+07
1.80642e+07
1.80642e+07
1.80642e+07
1.80642e+07
1.80642e+07
1.80642e+07
1.80642e+07
1.80642e+07
1.80642e+07
1.80642e+07
1.80642e+07
1.80642e+07
1.80642e+07
1.80642e+07
1.80642e+07
1.80642e+07
1.80642e+07
1.80642e+07
1.80642e+07
1.80642e+07
1.80642e+07
1.80642e+07
1.80642e+07
1.80642e+07
1.80642e+07
1.80642e+07
1.80642e+07
1.80643e+07
1.80643e+07
1.80643e+07
1.80643e+07
1.80643e+07
1.80643e+07
1.80643e+07
1.80644e+07
1.80644e+07
1.80644e+07
1.80644e+07
1.80645e+07
1.80645e+07
1.80645e+07
1.80646e+07
1.80646e+07
1.80646e+07
1.80647e+07
1.80648e+07
1.80648e+07
1.80649e+07
1.8065e+07
1.8065e+07
1.80651e+07
1.80652e+07
1.80653e+07
1.80655e+07
1.80656e+07
1.80657e+07
1.80659e+07
1.8066e+07
1.80662e+07
1.80664e+07
1.80666e+07
1.80668e+07
1.8067e+07
1.80673e+07
1.80675e+07
1.80678e+07
1.80681e+07
1.80684e+07
1.80688e+07
1.80692e+07
1.80695e+07
1.807e+07
1.80704e+07
1.80709e+07
1.80714e+07
1.80719e+07
1.80724e+07
1.8073e+07
1.80736e+07
1.80743e+07
1.8075e+07
1.80757e+07
1.80764e+07
1.80772e+07
1.80781e+07
1.80789e+07
1.80798e+07
1.80808e+07
1.80818e+07
1.80828e+07
1.80839e+07
1.8085e+07
1.80862e+07
1.80874e+07
1.80887e+07
1.809e+07
1.80913e+07
1.80928e+07
1.80942e+07
1.80958e+07
1.80973e+07
1.8099e+07
1.81006e+07
1.81024e+07
1.81042e+07
1.8106e+07
1.8108e+07
1.81099e+07
1.8112e+07
1.81141e+07
1.81162e+07
1.81185e+07
1.81207e+07
1.81231e+07
1.81255e+07
1.8128e+07
1.81305e+07
1.81332e+07
1.81358e+07
1.81386e+07
1.81414e+07
1.81443e+07
1.81473e+07
1.81503e+07
1.81534e+07
1.81566e+07
1.81599e+07
1.81632e+07
1.81667e+07
1.81701e+07
1.81737e+07
1.81774e+07
1.81811e+07
1.81849e+07
1.81888e+07
1.81928e+07
1.81968e+07
1.8201e+07
1.82052e+07
1.82095e+07
1.82139e+07
1.82184e+07
1.8223e+07
1.82276e+07
1.82324e+07
1.82372e+07
1.82422e+07
1.82472e+07
1.82523e+07
1.82575e+07
1.82628e+07
1.82682e+07
1.82737e+07
1.82793e+07
1.8285e+07
1.82908e+07
1.82967e+07
1.83028e+07
1.83094e+07
1.83167e+07
1.80642e+07
1.80642e+07
1.80642e+07
1.80642e+07
1.80642e+07
1.80642e+07
1.80642e+07
1.80642e+07
1.80642e+07
1.80642e+07
1.80642e+07
1.80642e+07
1.80642e+07
1.80642e+07
1.80642e+07
1.80642e+07
1.80642e+07
1.80642e+07
1.80642e+07
1.80642e+07
1.80642e+07
1.80642e+07
1.80642e+07
1.80642e+07
1.80642e+07
1.80642e+07
1.80642e+07
1.80642e+07
1.80642e+07
1.80642e+07
1.80642e+07
1.80642e+07
1.80642e+07
1.80642e+07
1.80642e+07
1.80642e+07
1.80642e+07
1.80642e+07
1.80642e+07
1.80642e+07
1.80642e+07
1.80642e+07
1.80642e+07
1.80642e+07
1.80642e+07
1.80642e+07
1.80642e+07
1.80642e+07
1.80642e+07
1.80642e+07
1.80642e+07
1.80642e+07
1.80642e+07
1.80642e+07
1.80642e+07
1.80642e+07
1.80642e+07
1.80642e+07
1.80642e+07
1.80642e+07
1.80642e+07
1.80642e+07
1.80642e+07
1.80642e+07
1.80642e+07
1.80642e+07
1.80642e+07
1.80643e+07
1.80643e+07
1.80643e+07
1.80643e+07
1.80643e+07
1.80643e+07
1.80643e+07
1.80644e+07
1.80644e+07
1.80644e+07
1.80644e+07
1.80645e+07
1.80645e+07
1.80645e+07
1.80646e+07
1.80646e+07
1.80646e+07
1.80647e+07
1.80648e+07
1.80648e+07
1.80649e+07
1.8065e+07
1.8065e+07
1.80651e+07
1.80652e+07
1.80653e+07
1.80655e+07
1.80656e+07
1.80657e+07
1.80659e+07
1.8066e+07
1.80662e+07
1.80664e+07
1.80666e+07
1.80668e+07
1.8067e+07
1.80673e+07
1.80675e+07
1.80678e+07
1.80681e+07
1.80684e+07
1.80688e+07
1.80692e+07
1.80695e+07
1.807e+07
1.80704e+07
1.80709e+07
1.80714e+07
1.80719e+07
1.80724e+07
1.8073e+07
1.80736e+07
1.80743e+07
1.8075e+07
1.80757e+07
1.80764e+07
1.80772e+07
1.80781e+07
1.80789e+07
1.80798e+07
1.80808e+07
1.80818e+07
1.80828e+07
1.80839e+07
1.8085e+07
1.80862e+07
1.80874e+07
1.80887e+07
1.809e+07
1.80913e+07
1.80928e+07
1.80942e+07
1.80958e+07
1.80973e+07
1.8099e+07
1.81006e+07
1.81024e+07
1.81042e+07
1.8106e+07
1.8108e+07
1.81099e+07
1.8112e+07
1.81141e+07
1.81162e+07
1.81185e+07
1.81207e+07
1.81231e+07
1.81255e+07
1.8128e+07
1.81305e+07
1.81332e+07
1.81358e+07
1.81386e+07
1.81414e+07
1.81443e+07
1.81473e+07
1.81503e+07
1.81534e+07
1.81566e+07
1.81599e+07
1.81632e+07
1.81667e+07
1.81701e+07
1.81737e+07
1.81774e+07
1.81811e+07
1.81849e+07
1.81888e+07
1.81928e+07
1.81968e+07
1.8201e+07
1.82052e+07
1.82095e+07
1.82139e+07
1.82184e+07
1.8223e+07
1.82276e+07
1.82324e+07
1.82372e+07
1.82422e+07
1.82472e+07
1.82523e+07
1.82575e+07
1.82628e+07
1.82682e+07
1.82737e+07
1.82793e+07
1.8285e+07
1.82908e+07
1.82967e+07
1.83026e+07
1.83083e+07
1.8313e+07
1.80642e+07
1.80642e+07
1.80642e+07
1.80642e+07
1.80642e+07
1.80642e+07
1.80642e+07
1.80642e+07
1.80642e+07
1.80642e+07
1.80642e+07
1.80642e+07
1.80642e+07
1.80642e+07
1.80642e+07
1.80642e+07
1.80642e+07
1.80642e+07
1.80642e+07
1.80642e+07
1.80642e+07
1.80642e+07
1.80642e+07
1.80642e+07
1.80642e+07
1.80642e+07
1.80642e+07
1.80642e+07
1.80642e+07
1.80642e+07
1.80642e+07
1.80642e+07
1.80642e+07
1.80642e+07
1.80642e+07
1.80642e+07
1.80642e+07
1.80642e+07
1.80642e+07
1.80642e+07
1.80642e+07
1.80642e+07
1.80642e+07
1.80642e+07
1.80642e+07
1.80642e+07
1.80642e+07
1.80642e+07
1.80642e+07
1.80642e+07
1.80642e+07
1.80642e+07
1.80642e+07
1.80642e+07
1.80642e+07
1.80642e+07
1.80642e+07
1.80642e+07
1.80642e+07
1.80642e+07
1.80642e+07
1.80642e+07
1.80642e+07
1.80642e+07
1.80642e+07
1.80642e+07
1.80642e+07
1.80643e+07
1.80643e+07
1.80643e+07
1.80643e+07
1.80643e+07
1.80643e+07
1.80643e+07
1.80644e+07
1.80644e+07
1.80644e+07
1.80644e+07
1.80645e+07
1.80645e+07
1.80645e+07
1.80646e+07
1.80646e+07
1.80646e+07
1.80647e+07
1.80648e+07
1.80648e+07
1.80649e+07
1.8065e+07
1.8065e+07
1.80651e+07
1.80652e+07
1.80653e+07
1.80655e+07
1.80656e+07
1.80657e+07
1.80659e+07
1.8066e+07
1.80662e+07
1.80664e+07
1.80666e+07
1.80668e+07
1.8067e+07
1.80673e+07
1.80675e+07
1.80678e+07
1.80681e+07
1.80684e+07
1.80688e+07
1.80692e+07
1.80695e+07
1.807e+07
1.80704e+07
1.80709e+07
1.80714e+07
1.80719e+07
1.80724e+07
1.8073e+07
1.80736e+07
1.80743e+07
1.8075e+07
1.80757e+07
1.80764e+07
1.80772e+07
1.80781e+07
1.80789e+07
1.80798e+07
1.80808e+07
1.80818e+07
1.80828e+07
1.80839e+07
1.8085e+07
1.80862e+07
1.80874e+07
1.80887e+07
1.809e+07
1.80913e+07
1.80928e+07
1.80942e+07
1.80958e+07
1.80973e+07
1.8099e+07
1.81006e+07
1.81024e+07
1.81042e+07
1.8106e+07
1.8108e+07
1.81099e+07
1.8112e+07
1.81141e+07
1.81162e+07
1.81185e+07
1.81207e+07
1.81231e+07
1.81255e+07
1.8128e+07
1.81305e+07
1.81332e+07
1.81358e+07
1.81386e+07
1.81414e+07
1.81443e+07
1.81473e+07
1.81503e+07
1.81534e+07
1.81566e+07
1.81599e+07
1.81632e+07
1.81667e+07
1.81701e+07
1.81737e+07
1.81774e+07
1.81811e+07
1.81849e+07
1.81888e+07
1.81928e+07
1.81968e+07
1.8201e+07
1.82052e+07
1.82095e+07
1.82139e+07
1.82184e+07
1.8223e+07
1.82276e+07
1.82324e+07
1.82372e+07
1.82422e+07
1.82472e+07
1.82523e+07
1.82575e+07
1.82628e+07
1.82682e+07
1.82737e+07
1.82793e+07
1.8285e+07
1.82908e+07
1.82966e+07
1.83024e+07
1.83072e+07
1.83097e+07
1.80642e+07
1.80642e+07
1.80642e+07
1.80642e+07
1.80642e+07
1.80642e+07
1.80642e+07
1.80642e+07
1.80642e+07
1.80642e+07
1.80642e+07
1.80642e+07
1.80642e+07
1.80642e+07
1.80642e+07
1.80642e+07
1.80642e+07
1.80642e+07
1.80642e+07
1.80642e+07
1.80642e+07
1.80642e+07
1.80642e+07
1.80642e+07
1.80642e+07
1.80642e+07
1.80642e+07
1.80642e+07
1.80642e+07
1.80642e+07
1.80642e+07
1.80642e+07
1.80642e+07
1.80642e+07
1.80642e+07
1.80642e+07
1.80642e+07
1.80642e+07
1.80642e+07
1.80642e+07
1.80642e+07
1.80642e+07
1.80642e+07
1.80642e+07
1.80642e+07
1.80642e+07
1.80642e+07
1.80642e+07
1.80642e+07
1.80642e+07
1.80642e+07
1.80642e+07
1.80642e+07
1.80642e+07
1.80642e+07
1.80642e+07
1.80642e+07
1.80642e+07
1.80642e+07
1.80642e+07
1.80642e+07
1.80642e+07
1.80642e+07
1.80642e+07
1.80642e+07
1.80642e+07
1.80642e+07
1.80643e+07
1.80643e+07
1.80643e+07
1.80643e+07
1.80643e+07
1.80643e+07
1.80643e+07
1.80644e+07
1.80644e+07
1.80644e+07
1.80644e+07
1.80645e+07
1.80645e+07
1.80645e+07
1.80646e+07
1.80646e+07
1.80646e+07
1.80647e+07
1.80648e+07
1.80648e+07
1.80649e+07
1.8065e+07
1.8065e+07
1.80651e+07
1.80652e+07
1.80653e+07
1.80655e+07
1.80656e+07
1.80657e+07
1.80659e+07
1.8066e+07
1.80662e+07
1.80664e+07
1.80666e+07
1.80668e+07
1.8067e+07
1.80673e+07
1.80675e+07
1.80678e+07
1.80681e+07
1.80684e+07
1.80688e+07
1.80692e+07
1.80695e+07
1.807e+07
1.80704e+07
1.80709e+07
1.80714e+07
1.80719e+07
1.80724e+07
1.8073e+07
1.80736e+07
1.80743e+07
1.8075e+07
1.80757e+07
1.80764e+07
1.80772e+07
1.80781e+07
1.80789e+07
1.80798e+07
1.80808e+07
1.80818e+07
1.80828e+07
1.80839e+07
1.8085e+07
1.80862e+07
1.80874e+07
1.80887e+07
1.809e+07
1.80913e+07
1.80928e+07
1.80942e+07
1.80958e+07
1.80973e+07
1.8099e+07
1.81006e+07
1.81024e+07
1.81042e+07
1.8106e+07
1.8108e+07
1.81099e+07
1.8112e+07
1.81141e+07
1.81162e+07
1.81185e+07
1.81207e+07
1.81231e+07
1.81255e+07
1.8128e+07
1.81305e+07
1.81332e+07
1.81358e+07
1.81386e+07
1.81414e+07
1.81443e+07
1.81473e+07
1.81503e+07
1.81534e+07
1.81566e+07
1.81599e+07
1.81632e+07
1.81667e+07
1.81701e+07
1.81737e+07
1.81774e+07
1.81811e+07
1.81849e+07
1.81888e+07
1.81928e+07
1.81968e+07
1.8201e+07
1.82052e+07
1.82095e+07
1.82139e+07
1.82184e+07
1.8223e+07
1.82276e+07
1.82324e+07
1.82372e+07
1.82422e+07
1.82472e+07
1.82523e+07
1.82575e+07
1.82628e+07
1.82682e+07
1.82737e+07
1.82793e+07
1.8285e+07
1.82908e+07
1.82966e+07
1.83023e+07
1.83069e+07
1.83091e+07
1.80642e+07
1.80642e+07
1.80642e+07
1.80642e+07
1.80642e+07
1.80642e+07
1.80642e+07
1.80642e+07
1.80642e+07
1.80642e+07
1.80642e+07
1.80642e+07
1.80642e+07
1.80642e+07
1.80642e+07
1.80642e+07
1.80642e+07
1.80642e+07
1.80642e+07
1.80642e+07
1.80642e+07
1.80642e+07
1.80642e+07
1.80642e+07
1.80642e+07
1.80642e+07
1.80642e+07
1.80642e+07
1.80642e+07
1.80642e+07
1.80642e+07
1.80642e+07
1.80642e+07
1.80642e+07
1.80642e+07
1.80642e+07
1.80642e+07
1.80642e+07
1.80642e+07
1.80642e+07
1.80642e+07
1.80642e+07
1.80642e+07
1.80642e+07
1.80642e+07
1.80642e+07
1.80642e+07
1.80642e+07
1.80642e+07
1.80642e+07
1.80642e+07
1.80642e+07
1.80642e+07
1.80642e+07
1.80642e+07
1.80642e+07
1.80642e+07
1.80642e+07
1.80642e+07
1.80642e+07
1.80642e+07
1.80642e+07
1.80642e+07
1.80642e+07
1.80642e+07
1.80642e+07
1.80642e+07
1.80643e+07
1.80643e+07
1.80643e+07
1.80643e+07
1.80643e+07
1.80643e+07
1.80643e+07
1.80644e+07
1.80644e+07
1.80644e+07
1.80644e+07
1.80645e+07
1.80645e+07
1.80645e+07
1.80646e+07
1.80646e+07
1.80646e+07
1.80647e+07
1.80648e+07
1.80648e+07
1.80649e+07
1.8065e+07
1.8065e+07
1.80651e+07
1.80652e+07
1.80653e+07
1.80655e+07
1.80656e+07
1.80657e+07
1.80659e+07
1.8066e+07
1.80662e+07
1.80664e+07
1.80666e+07
1.80668e+07
1.8067e+07
1.80673e+07
1.80675e+07
1.80678e+07
1.80681e+07
1.80684e+07
1.80688e+07
1.80692e+07
1.80695e+07
1.807e+07
1.80704e+07
1.80709e+07
1.80714e+07
1.80719e+07
1.80724e+07
1.8073e+07
1.80736e+07
1.80743e+07
1.8075e+07
1.80757e+07
1.80764e+07
1.80772e+07
1.80781e+07
1.80789e+07
1.80798e+07
1.80808e+07
1.80818e+07
1.80828e+07
1.80839e+07
1.8085e+07
1.80862e+07
1.80874e+07
1.80887e+07
1.809e+07
1.80913e+07
1.80928e+07
1.80942e+07
1.80958e+07
1.80973e+07
1.8099e+07
1.81006e+07
1.81024e+07
1.81042e+07
1.8106e+07
1.8108e+07
1.81099e+07
1.8112e+07
1.81141e+07
1.81162e+07
1.81185e+07
1.81207e+07
1.81231e+07
1.81255e+07
1.8128e+07
1.81305e+07
1.81332e+07
1.81358e+07
1.81386e+07
1.81414e+07
1.81443e+07
1.81473e+07
1.81503e+07
1.81534e+07
1.81566e+07
1.81599e+07
1.81632e+07
1.81667e+07
1.81701e+07
1.81737e+07
1.81774e+07
1.81811e+07
1.81849e+07
1.81888e+07
1.81928e+07
1.81968e+07
1.8201e+07
1.82052e+07
1.82095e+07
1.82139e+07
1.82184e+07
1.8223e+07
1.82276e+07
1.82324e+07
1.82372e+07
1.82422e+07
1.82472e+07
1.82523e+07
1.82575e+07
1.82628e+07
1.82682e+07
1.82737e+07
1.82793e+07
1.8285e+07
1.82908e+07
1.82966e+07
1.83023e+07
1.83068e+07
1.8309e+07
1.80642e+07
1.80642e+07
1.80642e+07
1.80642e+07
1.80642e+07
1.80642e+07
1.80642e+07
1.80642e+07
1.80642e+07
1.80642e+07
1.80642e+07
1.80642e+07
1.80642e+07
1.80642e+07
1.80642e+07
1.80642e+07
1.80642e+07
1.80642e+07
1.80642e+07
1.80642e+07
1.80642e+07
1.80642e+07
1.80642e+07
1.80642e+07
1.80642e+07
1.80642e+07
1.80642e+07
1.80642e+07
1.80642e+07
1.80642e+07
1.80642e+07
1.80642e+07
1.80642e+07
1.80642e+07
1.80642e+07
1.80642e+07
1.80642e+07
1.80642e+07
1.80642e+07
1.80642e+07
1.80642e+07
1.80642e+07
1.80642e+07
1.80642e+07
1.80642e+07
1.80642e+07
1.80642e+07
1.80642e+07
1.80642e+07
1.80642e+07
1.80642e+07
1.80642e+07
1.80642e+07
1.80642e+07
1.80642e+07
1.80642e+07
1.80642e+07
1.80642e+07
1.80642e+07
1.80642e+07
1.80642e+07
1.80642e+07
1.80642e+07
1.80642e+07
1.80642e+07
1.80642e+07
1.80642e+07
1.80643e+07
1.80643e+07
1.80643e+07
1.80643e+07
1.80643e+07
1.80643e+07
1.80643e+07
1.80644e+07
1.80644e+07
1.80644e+07
1.80644e+07
1.80645e+07
1.80645e+07
1.80645e+07
1.80646e+07
1.80646e+07
1.80646e+07
1.80647e+07
1.80648e+07
1.80648e+07
1.80649e+07
1.8065e+07
1.8065e+07
1.80651e+07
1.80652e+07
1.80653e+07
1.80655e+07
1.80656e+07
1.80657e+07
1.80659e+07
1.8066e+07
1.80662e+07
1.80664e+07
1.80666e+07
1.80668e+07
1.8067e+07
1.80673e+07
1.80675e+07
1.80678e+07
1.80681e+07
1.80684e+07
1.80688e+07
1.80692e+07
1.80695e+07
1.807e+07
1.80704e+07
1.80709e+07
1.80714e+07
1.80719e+07
1.80724e+07
1.8073e+07
1.80736e+07
1.80743e+07
1.8075e+07
1.80757e+07
1.80764e+07
1.80772e+07
1.80781e+07
1.80789e+07
1.80798e+07
1.80808e+07
1.80818e+07
1.80828e+07
1.80839e+07
1.8085e+07
1.80862e+07
1.80874e+07
1.80887e+07
1.809e+07
1.80913e+07
1.80928e+07
1.80942e+07
1.80958e+07
1.80973e+07
1.8099e+07
1.81006e+07
1.81024e+07
1.81042e+07
1.8106e+07
1.8108e+07
1.81099e+07
1.8112e+07
1.81141e+07
1.81162e+07
1.81185e+07
1.81207e+07
1.81231e+07
1.81255e+07
1.8128e+07
1.81305e+07
1.81332e+07
1.81358e+07
1.81386e+07
1.81414e+07
1.81443e+07
1.81473e+07
1.81503e+07
1.81534e+07
1.81566e+07
1.81599e+07
1.81632e+07
1.81667e+07
1.81701e+07
1.81737e+07
1.81774e+07
1.81811e+07
1.81849e+07
1.81888e+07
1.81928e+07
1.81968e+07
1.8201e+07
1.82052e+07
1.82095e+07
1.82139e+07
1.82184e+07
1.8223e+07
1.82276e+07
1.82324e+07
1.82372e+07
1.82422e+07
1.82472e+07
1.82523e+07
1.82575e+07
1.82628e+07
1.82682e+07
1.82737e+07
1.82793e+07
1.8285e+07
1.82908e+07
1.82966e+07
1.83023e+07
1.83068e+07
1.83089e+07
1.83509e+07
1.83648e+07
1.83705e+07
1.83725e+07
1.83737e+07
1.83748e+07
1.83759e+07
1.83768e+07
1.83775e+07
1.83782e+07
1.83789e+07
1.83795e+07
1.838e+07
1.83803e+07
1.83805e+07
1.83803e+07
1.83796e+07
1.83782e+07
1.83758e+07
1.8371e+07
1.83491e+07
1.83613e+07
1.83669e+07
1.83689e+07
1.837e+07
1.83712e+07
1.83723e+07
1.83732e+07
1.8374e+07
1.83747e+07
1.83753e+07
1.83759e+07
1.83764e+07
1.83768e+07
1.83769e+07
1.83768e+07
1.83761e+07
1.83747e+07
1.83722e+07
1.83676e+07
1.83475e+07
1.83598e+07
1.83661e+07
1.83684e+07
1.83696e+07
1.83708e+07
1.83719e+07
1.83728e+07
1.83736e+07
1.83743e+07
1.83749e+07
1.83754e+07
1.83759e+07
1.83762e+07
1.83763e+07
1.8376e+07
1.83752e+07
1.83736e+07
1.83708e+07
1.83659e+07
1.83406e+07
1.83479e+07
1.8351e+07
1.8352e+07
1.83528e+07
1.83538e+07
1.83548e+07
1.83556e+07
1.83563e+07
1.83571e+07
1.83578e+07
1.83584e+07
1.83591e+07
1.83595e+07
1.83597e+07
1.83597e+07
1.83592e+07
1.8358e+07
1.83558e+07
1.83523e+07
1.83302e+07
1.83358e+07
1.83403e+07
1.83438e+07
1.83466e+07
1.83488e+07
1.83503e+07
1.83515e+07
1.83525e+07
1.83533e+07
1.83538e+07
1.83539e+07
1.83541e+07
1.8354e+07
1.83536e+07
1.83528e+07
1.83516e+07
1.83502e+07
1.83485e+07
1.83464e+07
1.83111e+07
1.83091e+07
1.83066e+07
1.8304e+07
1.8302e+07
1.83006e+07
1.83e+07
1.82998e+07
1.83e+07
1.83005e+07
1.83013e+07
1.83026e+07
1.83037e+07
1.83052e+07
1.83066e+07
1.83081e+07
1.83098e+07
1.83118e+07
1.83138e+07
1.83164e+07
1.82907e+07
1.82857e+07
1.82849e+07
1.82865e+07
1.82882e+07
1.82895e+07
1.82906e+07
1.82917e+07
1.82926e+07
1.82934e+07
1.82941e+07
1.82947e+07
1.82951e+07
1.82956e+07
1.82962e+07
1.82972e+07
1.82986e+07
1.83008e+07
1.83043e+07
1.83091e+07
1.82646e+07
1.82475e+07
1.82344e+07
1.82261e+07
1.82209e+07
1.82175e+07
1.82152e+07
1.8214e+07
1.82139e+07
1.82146e+07
1.8216e+07
1.82181e+07
1.82209e+07
1.82246e+07
1.82292e+07
1.82348e+07
1.82415e+07
1.82499e+07
1.826e+07
1.8272e+07
1.82568e+07
1.82384e+07
1.82268e+07
1.82204e+07
1.82166e+07
1.82139e+07
1.82121e+07
1.82113e+07
1.82113e+07
1.8212e+07
1.82134e+07
1.82153e+07
1.82179e+07
1.82214e+07
1.82257e+07
1.8231e+07
1.82374e+07
1.82452e+07
1.82551e+07
1.82672e+07
1.82493e+07
1.82231e+07
1.82076e+07
1.81994e+07
1.81943e+07
1.81908e+07
1.81885e+07
1.81874e+07
1.81873e+07
1.81882e+07
1.81897e+07
1.8192e+07
1.8195e+07
1.8199e+07
1.82041e+07
1.82102e+07
1.82176e+07
1.82266e+07
1.82379e+07
1.82521e+07
1.835e+07
1.83422e+07
1.83439e+07
1.83483e+07
1.83536e+07
1.8359e+07
1.83646e+07
1.83703e+07
1.83761e+07
1.83819e+07
1.83879e+07
1.83938e+07
1.83999e+07
1.8406e+07
1.84122e+07
1.84185e+07
1.84248e+07
1.84312e+07
1.84377e+07
1.84442e+07
1.84509e+07
1.84575e+07
1.84643e+07
1.84711e+07
1.8478e+07
1.8485e+07
1.8492e+07
1.84991e+07
1.85063e+07
1.85136e+07
1.85209e+07
1.85283e+07
1.85357e+07
1.85432e+07
1.85508e+07
1.85585e+07
1.85662e+07
1.8574e+07
1.85819e+07
1.85898e+07
1.85978e+07
1.86059e+07
1.86141e+07
1.86223e+07
1.86306e+07
1.86389e+07
1.86473e+07
1.86558e+07
1.86644e+07
1.8673e+07
1.86816e+07
1.86904e+07
1.86992e+07
1.87081e+07
1.8717e+07
1.8726e+07
1.8735e+07
1.87442e+07
1.87533e+07
1.87626e+07
1.87719e+07
1.87812e+07
1.87906e+07
1.88001e+07
1.88096e+07
1.88192e+07
1.88289e+07
1.88386e+07
1.88483e+07
1.88581e+07
1.88679e+07
1.88778e+07
1.88878e+07
1.88978e+07
1.89078e+07
1.89179e+07
1.89281e+07
1.89383e+07
1.89485e+07
1.89588e+07
1.89691e+07
1.89794e+07
1.89898e+07
1.90003e+07
1.90107e+07
1.90212e+07
1.90318e+07
1.90424e+07
1.9053e+07
1.90636e+07
1.90743e+07
1.90849e+07
1.90957e+07
1.91064e+07
1.91172e+07
1.9128e+07
1.91388e+07
1.91496e+07
1.91605e+07
1.91713e+07
1.91822e+07
1.91931e+07
1.9204e+07
1.92149e+07
1.92259e+07
1.92368e+07
1.92478e+07
1.92587e+07
1.92697e+07
1.92806e+07
1.92916e+07
1.93026e+07
1.93135e+07
1.93245e+07
1.93354e+07
1.93464e+07
1.93574e+07
1.93683e+07
1.93792e+07
1.93902e+07
1.94011e+07
1.9412e+07
1.94229e+07
1.94338e+07
1.94447e+07
1.94555e+07
1.94664e+07
1.94772e+07
1.9488e+07
1.94988e+07
1.95096e+07
1.95203e+07
1.9531e+07
1.95417e+07
1.95524e+07
1.95631e+07
1.95737e+07
1.95843e+07
1.95948e+07
1.96054e+07
1.96159e+07
1.96263e+07
1.96368e+07
1.96471e+07
1.96575e+07
1.96678e+07
1.96781e+07
1.96884e+07
1.96986e+07
1.97088e+07
1.97189e+07
1.9729e+07
1.97391e+07
1.97491e+07
1.97591e+07
1.9769e+07
1.97789e+07
1.97888e+07
1.97986e+07
1.98083e+07
1.98181e+07
1.98277e+07
1.98374e+07
1.98469e+07
1.98565e+07
1.98659e+07
1.98754e+07
1.98847e+07
1.9894e+07
1.99033e+07
1.99125e+07
1.99217e+07
1.99308e+07
1.99398e+07
1.99488e+07
1.99577e+07
1.99666e+07
1.99754e+07
1.99841e+07
1.99928e+07
2.00014e+07
2.001e+07
2.00185e+07
2.0027e+07
2.00354e+07
2.00437e+07
2.0052e+07
2.00603e+07
2.00684e+07
2.00766e+07
2.00846e+07
2.00926e+07
2.01006e+07
2.01085e+07
2.01163e+07
2.01241e+07
2.01318e+07
2.01394e+07
2.01469e+07
2.01545e+07
1.83489e+07
1.83419e+07
1.83437e+07
1.83483e+07
1.83536e+07
1.8359e+07
1.83646e+07
1.83703e+07
1.83761e+07
1.83819e+07
1.83879e+07
1.83938e+07
1.83999e+07
1.8406e+07
1.84122e+07
1.84185e+07
1.84248e+07
1.84312e+07
1.84377e+07
1.84442e+07
1.84509e+07
1.84575e+07
1.84643e+07
1.84711e+07
1.8478e+07
1.8485e+07
1.8492e+07
1.84991e+07
1.85063e+07
1.85136e+07
1.85209e+07
1.85283e+07
1.85357e+07
1.85432e+07
1.85508e+07
1.85585e+07
1.85662e+07
1.8574e+07
1.85819e+07
1.85898e+07
1.85978e+07
1.86059e+07
1.86141e+07
1.86223e+07
1.86306e+07
1.86389e+07
1.86473e+07
1.86558e+07
1.86644e+07