/*--------------------------------*- C++ -*----------------------------------*\
| =========                 |                                                 |
| \\      /  F ield         | OpenFOAM: The Open Source CFD Toolbox           |
|  \\    /   O peration     | Version:  3.0.x                                 |
|   \\  /    A nd           | Web:      www.OpenFOAM.org                      |
|    \\/     M anipulation  |                                                 |
\*---------------------------------------------------------------------------*/
FoamFile
{
    version     2.0;
    format      ascii;
    class       volScalarField;
    location    "0.46995";
    object      rho;
}
// * * * * * * * * * * * * * * * * * * * * * * * * * * * * * * * * * * * * * //

dimensions      [1 -3 0 0 0 0 0];

internalField   nonuniform List<scalar> 
13800
(
50.6141
50.6142
50.6142
50.6142
50.6142
50.6142
50.6142
50.6142
50.6142
50.6142
50.6142
50.6142
50.6142
50.6142
50.6142
50.6142
50.6142
50.6142
50.6142
50.6142
50.6142
50.6142
50.6142
50.6142
50.6142
50.6142
50.6142
50.6142
50.6142
50.6142
50.6142
50.6142
50.6142
50.6142
50.6142
50.6142
50.6142
50.6142
50.6142
50.6142
50.6142
50.6142
50.6142
50.6142
50.6142
50.6142
50.6142
50.6142
50.6142
50.6143
50.6143
50.6143
50.6143
50.6143
50.6143
50.6143
50.6143
50.6143
50.6143
50.6143
50.6143
50.6142
50.6142
50.6142
50.6143
50.6143
50.6143
50.6144
50.6146
50.6147
50.6148
50.6149
50.615
50.6151
50.6152
50.6152
50.6153
50.6154
50.6154
50.6155
50.6155
50.6156
50.6157
50.6158
50.6159
50.616
50.6162
50.6164
50.6167
50.6169
50.6172
50.6174
50.6177
50.618
50.6183
50.6187
50.6191
50.6195
50.62
50.6205
50.6211
50.6217
50.6223
50.623
50.6236
50.6243
50.625
50.6258
50.6266
50.6275
50.6283
50.6293
50.6303
50.6313
50.6325
50.6337
50.635
50.6364
50.6379
50.6395
50.6412
50.6429
50.6448
50.6467
50.6487
50.6507
50.6529
50.6551
50.6575
50.6599
50.6624
50.6651
50.6678
50.6706
50.6736
50.6767
50.6799
50.6832
50.6866
50.6902
50.6939
50.6977
50.7016
50.7057
50.7099
50.7142
50.7187
50.7233
50.728
50.7329
50.738
50.7431
50.7485
50.754
50.7596
50.7654
50.7713
50.7774
50.7837
50.7901
50.7967
50.8035
50.8104
50.8175
50.8247
50.8322
50.8398
50.8476
50.8555
50.8637
50.872
50.8805
50.8892
50.8981
50.9072
50.9165
50.9259
50.9356
50.9454
50.9555
50.9657
50.9762
50.9869
50.9977
51.0088
51.0201
51.0316
51.0432
51.0553
51.0672
51.0799
51.0921
51.1053
51.1178
51.1317
51.1445
51.1591
51.1723
51.1907
51.196
50.6157
50.6157
50.6157
50.6157
50.6157
50.6158
50.6158
50.6158
50.6158
50.6158
50.6158
50.6158
50.6158
50.6158
50.6158
50.6158
50.6158
50.6158
50.6157
50.6157
50.6157
50.6157
50.6157
50.6157
50.6157
50.6157
50.6157
50.6157
50.6157
50.6157
50.6157
50.6157
50.6157
50.6157
50.6157
50.6157
50.6157
50.6157
50.6157
50.6157
50.6157
50.6157
50.6157
50.6157
50.6157
50.6157
50.6157
50.6157
50.6157
50.6157
50.6157
50.6157
50.6157
50.6157
50.6157
50.6157
50.6157
50.6157
50.6157
50.6156
50.6156
50.6156
50.6156
50.6156
50.6156
50.6156
50.6157
50.6158
50.6159
50.616
50.6161
50.6162
50.6163
50.6164
50.6165
50.6165
50.6166
50.6167
50.6167
50.6168
50.6168
50.6169
50.6169
50.617
50.6171
50.6173
50.6174
50.6176
50.6179
50.6181
50.6184
50.6186
50.6189
50.6192
50.6195
50.6198
50.6202
50.6207
50.6212
50.6217
50.6223
50.6228
50.6235
50.6241
50.6248
50.6255
50.6262
50.627
50.6278
50.6286
50.6295
50.6304
50.6314
50.6325
50.6336
50.6348
50.6361
50.6375
50.639
50.6405
50.6422
50.644
50.6458
50.6477
50.6497
50.6518
50.6539
50.6562
50.6585
50.6609
50.6635
50.6661
50.6688
50.6717
50.6746
50.6777
50.6809
50.6842
50.6876
50.6912
50.6949
50.6987
50.7026
50.7067
50.7109
50.7152
50.7197
50.7243
50.729
50.7339
50.739
50.7441
50.7495
50.755
50.7606
50.7664
50.7723
50.7784
50.7847
50.7911
50.7977
50.8045
50.8114
50.8185
50.8258
50.8332
50.8408
50.8486
50.8566
50.8647
50.873
50.8815
50.8902
50.8991
50.9082
50.9175
50.9269
50.9366
50.9464
50.9565
50.9667
50.9772
50.9879
50.9987
51.0098
51.0211
51.0326
51.0442
51.0563
51.0682
51.0809
51.0931
51.1063
51.1189
51.1327
51.1455
51.1601
51.1732
51.1917
51.1939
50.6157
50.6157
50.6157
50.6157
50.6157
50.6158
50.6158
50.6158
50.6158
50.6158
50.6158
50.6158
50.6158
50.6158
50.6158
50.6158
50.6158
50.6158
50.6157
50.6157
50.6157
50.6157
50.6157
50.6157
50.6157
50.6157
50.6157
50.6157
50.6157
50.6157
50.6157
50.6157
50.6157
50.6157
50.6157
50.6157
50.6157
50.6157
50.6157
50.6157
50.6157
50.6157
50.6157
50.6157
50.6157
50.6157
50.6157
50.6157
50.6157
50.6157
50.6157
50.6157
50.6157
50.6157
50.6157
50.6157
50.6157
50.6157
50.6157
50.6156
50.6156
50.6156
50.6156
50.6156
50.6156
50.6156
50.6157
50.6158
50.6159
50.616
50.6161
50.6162
50.6163
50.6164
50.6165
50.6165
50.6166
50.6167
50.6167
50.6168
50.6168
50.6169
50.6169
50.617
50.6171
50.6173
50.6174
50.6176
50.6179
50.6181
50.6184
50.6186
50.6189
50.6192
50.6195
50.6198
50.6203
50.6207
50.6212
50.6217
50.6223
50.6228
50.6235
50.6241
50.6248
50.6255
50.6262
50.627
50.6278
50.6286
50.6295
50.6304
50.6314
50.6325
50.6336
50.6348
50.6361
50.6375
50.639
50.6405
50.6422
50.644
50.6458
50.6477
50.6497
50.6518
50.654
50.6562
50.6585
50.6609
50.6635
50.6661
50.6688
50.6717
50.6746
50.6777
50.6809
50.6842
50.6876
50.6912
50.6949
50.6987
50.7026
50.7067
50.7109
50.7152
50.7197
50.7243
50.729
50.7339
50.739
50.7441
50.7495
50.755
50.7606
50.7664
50.7723
50.7784
50.7847
50.7911
50.7977
50.8045
50.8114
50.8185
50.8258
50.8332
50.8408
50.8486
50.8566
50.8647
50.873
50.8815
50.8902
50.8991
50.9082
50.9175
50.9269
50.9366
50.9464
50.9565
50.9667
50.9772
50.9879
50.9987
51.0098
51.0211
51.0326
51.0442
51.0563
51.0682
51.0809
51.0931
51.1063
51.1189
51.1327
51.1455
51.1601
51.1732
51.1917
51.1942
50.6157
50.6157
50.6157
50.6157
50.6157
50.6157
50.6157
50.6157
50.6157
50.6157
50.6157
50.6157
50.6157
50.6157
50.6157
50.6157
50.6157
50.6157
50.6157
50.6157
50.6157
50.6157
50.6157
50.6157
50.6157
50.6157
50.6157
50.6157
50.6157
50.6157
50.6157
50.6157
50.6157
50.6157
50.6157
50.6157
50.6157
50.6157
50.6157
50.6157
50.6156
50.6156
50.6156
50.6156
50.6156
50.6156
50.6156
50.6157
50.6157
50.6157
50.6157
50.6157
50.6157
50.6157
50.6157
50.6157
50.6157
50.6157
50.6157
50.6156
50.6156
50.6156
50.6156
50.6156
50.6156
50.6156
50.6157
50.6157
50.6159
50.616
50.6161
50.6162
50.6163
50.6164
50.6165
50.6165
50.6166
50.6167
50.6167
50.6168
50.6168
50.6169
50.6169
50.617
50.6171
50.6173
50.6174
50.6176
50.6179
50.6181
50.6184
50.6186
50.6189
50.6192
50.6195
50.6198
50.6202
50.6207
50.6212
50.6217
50.6223
50.6228
50.6235
50.6241
50.6248
50.6255
50.6262
50.627
50.6278
50.6286
50.6295
50.6304
50.6314
50.6325
50.6336
50.6348
50.6361
50.6375
50.639
50.6405
50.6422
50.644
50.6458
50.6477
50.6497
50.6518
50.654
50.6562
50.6585
50.6609
50.6635
50.6661
50.6688
50.6717
50.6746
50.6777
50.6809
50.6842
50.6876
50.6912
50.6949
50.6987
50.7026
50.7067
50.7109
50.7152
50.7197
50.7243
50.729
50.7339
50.739
50.7441
50.7495
50.755
50.7606
50.7664
50.7723
50.7784
50.7847
50.7911
50.7977
50.8045
50.8114
50.8185
50.8258
50.8332
50.8408
50.8486
50.8566
50.8647
50.873
50.8815
50.8902
50.8991
50.9082
50.9175
50.9269
50.9366
50.9464
50.9565
50.9667
50.9772
50.9879
50.9987
51.0098
51.0211
51.0326
51.0442
51.0563
51.0682
51.0809
51.0931
51.1063
51.1189
51.1327
51.1455
51.1601
51.1732
51.1911
51.1978
50.6157
50.6157
50.6157
50.6157
50.6157
50.6157
50.6157
50.6157
50.6157
50.6157
50.6157
50.6157
50.6157
50.6157
50.6157
50.6157
50.6157
50.6157
50.6157
50.6157
50.6157
50.6157
50.6157
50.6157
50.6157
50.6157
50.6157
50.6157
50.6157
50.6157
50.6157
50.6157
50.6157
50.6157
50.6157
50.6157
50.6156
50.6156
50.6156
50.6156
50.6156
50.6156
50.6156
50.6156
50.6156
50.6156
50.6156
50.6156
50.6156
50.6156
50.6157
50.6157
50.6157
50.6157
50.6157
50.6157
50.6157
50.6157
50.6157
50.6156
50.6156
50.6156
50.6156
50.6156
50.6156
50.6156
50.6156
50.6157
50.6159
50.616
50.6161
50.6162
50.6163
50.6164
50.6165
50.6165
50.6166
50.6167
50.6167
50.6168
50.6168
50.6169
50.6169
50.617
50.6171
50.6173
50.6174
50.6176
50.6179
50.6181
50.6184
50.6186
50.6189
50.6192
50.6195
50.6198
50.6202
50.6207
50.6212
50.6217
50.6223
50.6228
50.6235
50.6241
50.6248
50.6255
50.6262
50.627
50.6278
50.6286
50.6295
50.6304
50.6314
50.6325
50.6336
50.6348
50.6361
50.6375
50.639
50.6405
50.6422
50.644
50.6458
50.6477
50.6497
50.6518
50.6539
50.6562
50.6585
50.6609
50.6635
50.6661
50.6688
50.6717
50.6746
50.6777
50.6809
50.6842
50.6876
50.6912
50.6949
50.6987
50.7026
50.7067
50.7109
50.7152
50.7197
50.7243
50.729
50.7339
50.739
50.7441
50.7495
50.755
50.7606
50.7664
50.7723
50.7784
50.7847
50.7911
50.7977
50.8045
50.8114
50.8185
50.8258
50.8332
50.8408
50.8486
50.8566
50.8647
50.873
50.8815
50.8902
50.8991
50.9082
50.9175
50.9269
50.9366
50.9464
50.9565
50.9668
50.9772
50.9879
50.9987
51.0098
51.0211
51.0326
51.0442
51.0563
51.0682
51.0809
51.0931
51.1063
51.1188
51.1327
51.1455
51.1601
51.173
51.1895
51.1965
50.6157
50.6157
50.6157
50.6157
50.6157
50.6157
50.6157
50.6157
50.6157
50.6157
50.6157
50.6157
50.6157
50.6157
50.6157
50.6157
50.6157
50.6157
50.6157
50.6157
50.6157
50.6157
50.6157
50.6157
50.6157
50.6157
50.6157
50.6157
50.6157
50.6157
50.6157
50.6157
50.6157
50.6157
50.6157
50.6157
50.6156
50.6156
50.6156
50.6156
50.6156
50.6156
50.6156
50.6156
50.6156
50.6156
50.6156
50.6156
50.6156
50.6156
50.6157
50.6157
50.6157
50.6157
50.6157
50.6157
50.6157
50.6157
50.6157
50.6156
50.6156
50.6156
50.6156
50.6156
50.6156
50.6156
50.6156
50.6157
50.6159
50.616
50.6161
50.6162
50.6163
50.6164
50.6165
50.6165
50.6166
50.6167
50.6167
50.6168
50.6168
50.6169
50.6169
50.617
50.6171
50.6173
50.6174
50.6176
50.6179
50.6181
50.6184
50.6186
50.6189
50.6192
50.6195
50.6198
50.6202
50.6207
50.6212
50.6217
50.6223
50.6228
50.6235
50.6241
50.6248
50.6255
50.6262
50.627
50.6278
50.6286
50.6295
50.6304
50.6314
50.6325
50.6336
50.6348
50.6361
50.6375
50.639
50.6405
50.6422
50.644
50.6458
50.6477
50.6497
50.6518
50.6539
50.6562
50.6585
50.6609
50.6635
50.6661
50.6688
50.6717
50.6746
50.6777
50.6809
50.6842
50.6876
50.6912
50.6949
50.6987
50.7026
50.7067
50.7109
50.7152
50.7197
50.7243
50.729
50.7339
50.739
50.7441
50.7495
50.755
50.7606
50.7664
50.7723
50.7784
50.7847
50.7911
50.7977
50.8045
50.8114
50.8185
50.8258
50.8332
50.8408
50.8486
50.8566
50.8647
50.873
50.8815
50.8902
50.8991
50.9082
50.9175
50.9269
50.9366
50.9464
50.9565
50.9667
50.9772
50.9879
50.9987
51.0098
51.0211
51.0326
51.0443
51.0562
51.0683
51.0808
51.0931
51.1062
51.1191
51.1322
51.1462
51.1591
51.1738
51.1862
51.1986
50.6157
50.6157
50.6157
50.6157
50.6157
50.6157
50.6157
50.6157
50.6157
50.6157
50.6157
50.6157
50.6157
50.6157
50.6157
50.6157
50.6157
50.6157
50.6157
50.6157
50.6157
50.6157
50.6157
50.6157
50.6157
50.6157
50.6157
50.6157
50.6157
50.6157
50.6157
50.6157
50.6157
50.6157
50.6157
50.6157
50.6157
50.6157
50.6157
50.6157
50.6156
50.6156
50.6156
50.6156
50.6156
50.6156
50.6156
50.6157
50.6157
50.6157
50.6157
50.6157
50.6157
50.6157
50.6157
50.6157
50.6157
50.6157
50.6157
50.6156
50.6156
50.6156
50.6156
50.6156
50.6156
50.6156
50.6157
50.6157
50.6159
50.616
50.6161
50.6162
50.6163
50.6164
50.6165
50.6165
50.6166
50.6167
50.6167
50.6168
50.6168
50.6169
50.6169
50.617
50.6171
50.6173
50.6174
50.6176
50.6179
50.6181
50.6184
50.6186
50.6189
50.6192
50.6195
50.6198
50.6202
50.6207
50.6212
50.6217
50.6223
50.6228
50.6235
50.6241
50.6248
50.6255
50.6262
50.627
50.6278
50.6286
50.6295
50.6304
50.6314
50.6325
50.6336
50.6348
50.6361
50.6375
50.639
50.6405
50.6422
50.644
50.6458
50.6477
50.6497
50.6518
50.654
50.6562
50.6585
50.6609
50.6635
50.6661
50.6688
50.6717
50.6746
50.6777
50.6809
50.6842
50.6876
50.6912
50.6949
50.6987
50.7026
50.7067
50.7109
50.7152
50.7197
50.7243
50.729
50.7339
50.739
50.7441
50.7495
50.755
50.7606
50.7664
50.7723
50.7784
50.7847
50.7911
50.7977
50.8045
50.8114
50.8185
50.8258
50.8332
50.8408
50.8486
50.8566
50.8647
50.873
50.8815
50.8902
50.8991
50.9082
50.9175
50.9269
50.9366
50.9464
50.9565
50.9667
50.9772
50.9879
50.9987
51.0098
51.0211
51.0326
51.0443
51.0561
51.0685
51.0805
51.0935
51.1058
51.1194
51.132
51.1463
51.1591
51.1735
51.1831
51.2081
50.6157
50.6157
50.6157
50.6157
50.6157
50.6158
50.6158
50.6158
50.6158
50.6158
50.6158
50.6158
50.6158
50.6158
50.6158
50.6158
50.6158
50.6158
50.6157
50.6157
50.6157
50.6157
50.6157
50.6157
50.6157
50.6157
50.6157
50.6157
50.6157
50.6157
50.6157
50.6157
50.6157
50.6157
50.6157
50.6157
50.6157
50.6157
50.6157
50.6157
50.6157
50.6157
50.6157
50.6157
50.6157
50.6157
50.6157
50.6157
50.6157
50.6157
50.6157
50.6157
50.6157
50.6157
50.6157
50.6157
50.6157
50.6157
50.6157
50.6156
50.6156
50.6156
50.6156
50.6156
50.6156
50.6156
50.6157
50.6158
50.6159
50.616
50.6161
50.6162
50.6163
50.6164
50.6165
50.6165
50.6166
50.6167
50.6167
50.6168
50.6168
50.6169
50.6169
50.617
50.6171
50.6173
50.6174
50.6176
50.6179
50.6181
50.6184
50.6186
50.6189
50.6192
50.6195
50.6198
50.6203
50.6207
50.6212
50.6217
50.6223
50.6228
50.6235
50.6241
50.6248
50.6255
50.6262
50.627
50.6278
50.6286
50.6295
50.6304
50.6314
50.6325
50.6336
50.6348
50.6361
50.6375
50.639
50.6405
50.6422
50.644
50.6458
50.6477
50.6497
50.6518
50.654
50.6562
50.6585
50.6609
50.6635
50.6661
50.6688
50.6717
50.6746
50.6777
50.6809
50.6842
50.6876
50.6912
50.6949
50.6987
50.7026
50.7067
50.7109
50.7152
50.7197
50.7243
50.729
50.7339
50.739
50.7441
50.7495
50.755
50.7606
50.7664
50.7723
50.7784
50.7847
50.7911
50.7977
50.8045
50.8114
50.8185
50.8258
50.8332
50.8408
50.8486
50.8566
50.8647
50.873
50.8815
50.8902
50.8991
50.9082
50.9175
50.9269
50.9366
50.9464
50.9565
50.9667
50.9772
50.9879
50.9987
51.0098
51.0211
51.0325
51.0444
51.0561
51.0685
51.0805
51.0935
51.1058
51.1195
51.132
51.1463
51.1589
51.1735
51.1801
51.2333
50.6157
50.6157
50.6157
50.6157
50.6157
50.6158
50.6158
50.6158
50.6158
50.6158
50.6158
50.6158
50.6158
50.6158
50.6158
50.6158
50.6158
50.6158
50.6157
50.6157
50.6157
50.6157
50.6157
50.6157
50.6157
50.6157
50.6157
50.6157
50.6157
50.6157
50.6157
50.6157
50.6157
50.6157
50.6157
50.6157
50.6157
50.6157
50.6157
50.6157
50.6157
50.6157
50.6157
50.6157
50.6157
50.6157
50.6157
50.6157
50.6157
50.6157
50.6157
50.6157
50.6157
50.6157
50.6157
50.6157
50.6157
50.6157
50.6157
50.6156
50.6156
50.6156
50.6156
50.6156
50.6156
50.6156
50.6157
50.6158
50.6159
50.616
50.6161
50.6162
50.6163
50.6164
50.6165
50.6165
50.6166
50.6167
50.6167
50.6168
50.6168
50.6169
50.6169
50.617
50.6171
50.6173
50.6174
50.6176
50.6179
50.6181
50.6184
50.6186
50.6189
50.6192
50.6195
50.6198
50.6202
50.6207
50.6212
50.6217
50.6223
50.6228
50.6235
50.6241
50.6248
50.6255
50.6262
50.627
50.6278
50.6286
50.6295
50.6304
50.6314
50.6325
50.6336
50.6348
50.6361
50.6375
50.639
50.6405
50.6422
50.644
50.6458
50.6477
50.6497
50.6518
50.6539
50.6562
50.6585
50.6609
50.6635
50.6661
50.6688
50.6717
50.6746
50.6777
50.6809
50.6842
50.6876
50.6912
50.6949
50.6987
50.7026
50.7067
50.7109
50.7152
50.7197
50.7243
50.729
50.7339
50.739
50.7441
50.7495
50.755
50.7606
50.7664
50.7723
50.7784
50.7847
50.7911
50.7977
50.8045
50.8114
50.8185
50.8258
50.8332
50.8408
50.8486
50.8566
50.8647
50.873
50.8815
50.8902
50.8991
50.9082
50.9175
50.9269
50.9366
50.9464
50.9565
50.9667
50.9772
50.9879
50.9987
51.0098
51.0211
51.0325
51.0444
51.0561
51.0685
51.0805
51.0935
51.1058
51.1195
51.132
51.1463
51.1588
51.1735
51.1786
51.2464
50.6141
50.6142
50.6142
50.6142
50.6142
50.6142
50.6142
50.6142
50.6142
50.6142
50.6142
50.6142
50.6142
50.6142
50.6142
50.6142
50.6142
50.6142
50.6142
50.6142
50.6142
50.6142
50.6142
50.6142
50.6142
50.6142
50.6142
50.6142
50.6142
50.6142
50.6142
50.6142
50.6142
50.6142
50.6142
50.6142
50.6142
50.6142
50.6142
50.6142
50.6142
50.6142
50.6142
50.6142
50.6142
50.6142
50.6142
50.6142
50.6142
50.6143
50.6143
50.6143
50.6143
50.6143
50.6143
50.6143
50.6143
50.6143
50.6143
50.6143
50.6143
50.6142
50.6142
50.6142
50.6143
50.6143
50.6143
50.6144
50.6146
50.6147
50.6148
50.6149
50.615
50.6151
50.6152
50.6152
50.6153
50.6154
50.6154
50.6155
50.6155
50.6156
50.6157
50.6158
50.6159
50.616
50.6162
50.6164
50.6167
50.6169
50.6172
50.6174
50.6177
50.618
50.6183
50.6187
50.6191
50.6195
50.62
50.6205
50.6211
50.6217
50.6223
50.623
50.6236
50.6243
50.625
50.6258
50.6266
50.6275
50.6283
50.6293
50.6303
50.6313
50.6325
50.6337
50.635
50.6364
50.6379
50.6395
50.6412
50.6429
50.6448
50.6467
50.6487
50.6507
50.6529
50.6551
50.6575
50.6599
50.6624
50.6651
50.6678
50.6706
50.6736
50.6767
50.6799
50.6832
50.6866
50.6902
50.6939
50.6977
50.7016
50.7057
50.7099
50.7142
50.7187
50.7233
50.728
50.7329
50.738
50.7431
50.7485
50.754
50.7596
50.7654
50.7713
50.7774
50.7837
50.7901
50.7967
50.8035
50.8104
50.8175
50.8247
50.8322
50.8398
50.8476
50.8555
50.8637
50.872
50.8805
50.8892
50.8981
50.9072
50.9165
50.9259
50.9356
50.9454
50.9555
50.9657
50.9762
50.9868
50.9977
51.0088
51.0201
51.0315
51.0434
51.0551
51.0675
51.0795
51.0925
51.1048
51.1185
51.131
51.1453
51.1578
51.1725
51.1763
51.2574
51.2825
51.3176
51.3307
51.335
51.3372
51.3394
51.3415
51.3431
51.3446
51.3459
51.3471
51.3483
51.3493
51.35
51.3503
51.3497
51.3481
51.3449
51.3396
51.3298
51.2785
51.3096
51.3234
51.328
51.3304
51.333
51.3354
51.3374
51.3391
51.3406
51.3421
51.3434
51.3446
51.3454
51.3457
51.3452
51.3435
51.3403
51.3349
51.325
51.2741
51.3057
51.321
51.3264
51.3291
51.3318
51.3342
51.3358
51.3374
51.3388
51.3402
51.3414
51.3425
51.3433
51.3435
51.3429
51.3411
51.3375
51.3316
51.3205
51.2592
51.2779
51.2855
51.2877
51.2893
51.2914
51.2932
51.2948
51.2961
51.2974
51.2985
51.2994
51.3003
51.3007
51.3004
51.2995
51.2981
51.2948
51.2897
51.2816
51.2352
51.2487
51.2593
51.2678
51.2744
51.2796
51.2832
51.286
51.2885
51.2909
51.2925
51.2936
51.2946
51.2951
51.2945
51.2935
51.2907
51.2878
51.2832
51.278
51.1916
51.1865
51.1801
51.1737
51.168
51.1639
51.1616
51.1605
51.16
51.1601
51.1609
51.1623
51.1633
51.1652
51.1667
51.1686
51.171
51.1746
51.1783
51.1844
51.1468
51.1331
51.1303
51.1339
51.1381
51.1415
51.1446
51.148
51.1511
51.1542
51.157
51.1599
51.1623
51.1648
51.1675
51.1708
51.1744
51.1802
51.1884
51.1995
51.09
51.0462
51.013
50.9912
50.9776
50.9678
50.961
50.9571
50.9553
50.9554
50.9571
50.9604
50.9653
50.9725
50.9822
50.9935
51.009
51.0265
51.0496
51.078
51.0784
51.0314
51.0026
50.9872
50.9777
50.9716
50.9673
50.9657
50.9658
50.9675
50.9708
50.9755
50.9814
50.9898
50.9996
51.0122
51.0269
51.0443
51.066
51.0926
51.063
50.9958
50.9587
50.9383
50.9251
50.9147
50.9074
50.9027
50.9004
50.9002
50.901
50.9042
50.9085
50.9159
50.9253
50.9379
50.9528
50.9717
50.9958
51.0272
51.2817
51.2604
51.2638
51.2748
51.2869
51.2998
51.313
51.3263
51.3396
51.3532
51.3669
51.3808
51.395
51.4092
51.4237
51.4382
51.453
51.4679
51.4829
51.4981
51.5135
51.529
51.5448
51.5606
51.5766
51.5928
51.6092
51.6257
51.6424
51.6592
51.6762
51.6934
51.7107
51.7282
51.7458
51.7636
51.7816
51.7997
51.818
51.8364
51.855
51.8737
51.8926
51.9117
51.9309
51.9503
51.9699
51.9896
52.0094
52.0294
52.0496
52.0699
52.0903
52.1109
52.1316
52.1524
52.1735
52.1946
52.2159
52.2373
52.2589
52.2806
52.3024
52.3243
52.3464
52.3686
52.3909
52.4133
52.4359
52.4586
52.4814
52.5044
52.5275
52.5507
52.5739
52.5973
52.6208
52.6444
52.668
52.6918
52.7157
52.7396
52.7637
52.7878
52.8121
52.8364
52.8608
52.8853
52.9098
52.9344
52.959
52.9838
53.0085
53.0334
53.0583
53.0833
53.1083
53.1333
53.1584
53.1835
53.2086
53.2337
53.2589
53.2841
53.3093
53.3346
53.3598
53.3851
53.4104
53.4357
53.4611
53.4864
53.5117
53.537
53.5623
53.5876
53.6128
53.6381
53.6634
53.6886
53.7138
53.739
53.7641
53.7892
53.8142
53.8392
53.8642
53.8891
53.914
53.9388
53.9636
53.9884
54.0131
54.0377
54.0623
54.0868
54.1112
54.1356
54.1599
54.1841
54.2083
54.2324
54.2565
54.2805
54.3044
54.3283
54.352
54.3756
54.399
54.4225
54.446
54.4696
54.4932
54.5167
54.5403
54.5637
54.5869
54.6097
54.6319
54.6542
54.6774
54.7021
54.7271
54.7505
54.7692
54.7743
54.7662
54.7542
54.7411
54.7297
54.7217
54.7185
54.7209
54.7298
54.7456
54.7674
54.7921
54.8207
54.8644
54.9254
54.983
55.0353
55.0809
55.1197
55.1522
55.1805
55.2062
55.2304
55.253
55.2744
55.2921
55.3115
55.3279
55.3471
55.3634
55.3824
55.3984
55.4173
55.4315
55.4526
51.2823
51.2628
51.2667
51.2778
51.29
51.3029
51.3162
51.3295
51.343
51.3565
51.3703
51.3842
51.3983
51.4126
51.427
51.4416
51.4564
51.4713
51.4863
51.5016
51.5169
51.5325
51.5482
51.5641
51.5801
51.5963
51.6126
51.6292
51.6458
51.6627
51.6797
51.6968
51.7142
51.7317
51.7493
51.7671
51.7851
51.8032
51.8215
51.8399
51.8585
51.8773
51.8962
51.9152
51.9344
51.9538
51.9734
51.9931
52.013
52.033
52.0531
52.0734
52.0939
52.1145
52.1352
52.1561
52.1771
52.1982
52.2195
52.2409
52.2625
52.2842
52.306
52.328
52.35
52.3722
52.3945
52.417
52.4395
52.4622
52.4851
52.508
52.5311
52.5543
52.5776
52.601
52.6245
52.6481
52.6718
52.6955
52.7194
52.7433
52.7674
52.7915
52.8157
52.8401
52.8645
52.889
52.9135
52.9381
52.9628
52.9875
53.0123
53.0371
53.062
53.0869
53.1119
53.137
53.1621
53.1872
53.2124
53.2376
53.2627
53.2879
53.3131
53.3384
53.3636
53.3889
53.4142
53.4395
53.4648
53.4901
53.5155
53.5408
53.5661
53.5914
53.6166
53.6419
53.6671
53.6924
53.7176
53.7427
53.7679
53.793
53.8181
53.8431
53.8681
53.893
53.9179
53.9427
53.9675
53.9922
54.0169
54.0415
54.0661
54.0906
54.115
54.1394
54.1637
54.1879
54.212
54.2361
54.2601
54.2841
54.3079
54.3317
54.3554
54.379
54.4026
54.426
54.4494
54.4729
54.4962
54.5194
54.5427
54.5659
54.5886
54.611
54.6335
54.656
54.6787
54.702
54.7262
54.7511
54.7756
54.7991
54.8224
54.8467
54.8716
54.8958
54.9179
54.9365
54.9521
54.9655
54.9775
54.9894
55.002
55.0158
55.031
55.0483
55.068
55.0897
55.1131
55.1368
55.161
55.1851
55.2085
55.2313
55.2523
55.2731
55.2913
55.3111
55.3283
55.3477
55.3642
55.3832
55.3994
55.4182
55.4327
55.4525
51.2822
51.2638
51.2669
51.2777
51.2896
51.3025
51.3156
51.3289
51.3422
51.3558
51.3695
51.3835
51.3977
51.4119
51.4264
51.4409
51.4557
51.4706
51.4856
51.5009
51.5162
51.5318
51.5475
51.5634
51.5794
51.5956
51.6119
51.6285
51.6451
51.662
51.679
51.6961
51.7135
51.731
51.7486
51.7664
51.7844
51.8025
51.8208
51.8392
51.8578
51.8766
51.8955
51.9145
51.9337
51.9531
51.9727
51.9924
52.0123
52.0323
52.0524
52.0727
52.0932
52.1138
52.1345
52.1553
52.1763
52.1975
52.2188
52.2402
52.2618
52.2835
52.3053
52.3273
52.3493
52.3715
52.3938
52.4163
52.4388
52.4615
52.4844
52.5073
52.5304
52.5536
52.5769
52.6003
52.6238
52.6474
52.671
52.6948
52.7187
52.7426
52.7667
52.7908
52.815
52.8394
52.8638
52.8882
52.9128
52.9374
52.9621
52.9868
53.0116
53.0364
53.0613
53.0862
53.1112
53.1363
53.1614
53.1865
53.2117
53.2369
53.262
53.2872
53.3124
53.3377
53.3629
53.3882
53.4135
53.4388
53.4641
53.4894
53.5147
53.5401
53.5654
53.5907
53.6159
53.6412
53.6664
53.6917
53.7169
53.7421
53.7672
53.7923
53.8174
53.8424
53.8674
53.8923
53.9172
53.942
53.9668
53.9916
54.0162
54.0409
54.0655
54.09
54.1144
54.1388
54.1631
54.1873
54.2114
54.2355
54.2595
54.2834
54.3073
54.3311
54.3547
54.3783
54.4018
54.4253
54.4487
54.472
54.4954
54.5188
54.542
54.5649
54.5878
54.6104
54.6325
54.6547
54.6776
54.701
54.7253
54.7508
54.7766
54.8019
54.8265
54.8508
54.8751
54.8993
54.9224
54.9441
54.9632
54.9811
54.9965
55.0123
55.0266
55.0424
55.0574
55.0746
55.0912
55.1105
55.129
55.1502
55.17
55.1917
55.2117
55.233
55.2522
55.2728
55.2908
55.3108
55.3279
55.3474
55.364
55.383
55.3992
55.4181
55.4331
55.4521
51.2571
51.248
51.2559
51.2683
51.2815
51.2947
51.308
51.3214
51.335
51.3487
51.3625
51.3764
51.3905
51.4047
51.4191
51.4337
51.4484
51.4633
51.4783
51.4936
51.5089
51.5245
51.5402
51.556
51.5721
51.5883
51.6046
51.6211
51.6378
51.6546
51.6716
51.6888
51.7061
51.7236
51.7413
51.7591
51.777
51.7952
51.8134
51.8319
51.8504
51.8692
51.8881
51.9071
51.9263
51.9457
51.9653
51.985
52.0048
52.0248
52.045
52.0653
52.0857
52.1063
52.1271
52.1479
52.1689
52.1901
52.2113
52.2328
52.2543
52.276
52.2978
52.3198
52.3419
52.364
52.3864
52.4088
52.4314
52.4541
52.4769
52.4998
52.5229
52.5461
52.5694
52.5928
52.6163
52.6399
52.6635
52.6873
52.7112
52.7351
52.7592
52.7833
52.8075
52.8319
52.8562
52.8807
52.9053
52.9299
52.9545
52.9792
53.004
53.0289
53.0538
53.0787
53.1038
53.1288
53.1539
53.179
53.2041
53.2292
53.2544
53.2796
53.3048
53.3301
53.3553
53.3806
53.4059
53.4312
53.4565
53.4819
53.5072
53.5325
53.5578
53.5831
53.6083
53.6336
53.6589
53.6841
53.7093
53.7344
53.7595
53.7846
53.8097
53.8347
53.8597
53.8846
53.9095
53.9344
53.9592
53.9839
54.0086
54.0332
54.0578
54.0823
54.1067
54.1311
54.1554
54.1797
54.2039
54.2281
54.2522
54.2761
54.3
54.3238
54.3475
54.3713
54.3951
54.4188
54.4425
54.4661
54.4896
54.5128
54.5358
54.5586
54.5814
54.6042
54.6273
54.651
54.6751
54.6993
54.7233
54.7469
54.7703
54.7935
54.8165
54.8392
54.8614
54.8828
54.9034
54.9235
54.9429
54.9624
54.9811
55.0006
55.0192
55.0388
55.0579
55.0775
55.0972
55.117
55.1368
55.157
55.1763
55.1968
55.2151
55.2356
55.2534
55.2734
55.2907
55.3104
55.3272
55.3467
55.3633
55.3824
55.3986
55.4175
55.4337
55.4515
51.2642
51.268
51.2752
51.2837
51.2938
51.3054
51.3179
51.3308
51.344
51.3575
51.3712
51.3852
51.3993
51.4136
51.428
51.4426
51.4573
51.4722
51.4873
51.5025
51.5179
51.5335
51.5492
51.565
51.5811
51.5973
51.6136
51.6301
51.6468
51.6637
51.6807
51.6978
51.7151
51.7326
51.7503
51.7681
51.7861
51.8042
51.8225
51.8409
51.8595
51.8783
51.8972
51.9163
51.9355
51.9549
51.9744
51.9941
52.0139
52.0339
52.054
52.0743
52.0948
52.1154
52.1361
52.157
52.178
52.1992
52.2205
52.2419
52.2634
52.2851
52.307
52.3289
52.351
52.3732
52.3956
52.418
52.4406
52.4633
52.4861
52.509
52.5321
52.5552
52.5785
52.6019
52.6254
52.649
52.6727
52.6965
52.7204
52.7443
52.7684
52.7925
52.8167
52.841
52.8654
52.8899
52.9144
52.939
52.9637
52.9884
53.0132
53.038
53.0629
53.0879
53.1129
53.1379
53.163
53.1881
53.2132
53.2384
53.2636
53.2889
53.3141
53.3394
53.3647
53.39
53.4153
53.4406
53.4659
53.4912
53.5164
53.5417
53.567
53.5923
53.6176
53.6428
53.668
53.6933
53.7184
53.7436
53.7687
53.7938
53.8189
53.8439
53.8689
53.8939
53.9187
53.9436
53.9684
53.9931
54.0178
54.0424
54.0669
54.0914
54.1158
54.1402
54.1645
54.1886
54.2127
54.2368
54.2608
54.2846
54.3085
54.3322
54.3559
54.3794
54.4028
54.4262
54.4494
54.4726
54.4957
54.5188
54.5417
54.5647
54.5876
54.6103
54.6328
54.6551
54.6774
54.6998
54.7222
54.7446
54.7671
54.7895
54.8118
54.834
54.8558
54.8774
54.8986
54.9196
54.9403
54.9606
54.9811
55.0009
55.0213
55.0408
55.061
55.0806
55.1003
55.1201
55.1393
55.1591
55.178
55.1975
55.2163
55.2353
55.2542
55.2723
55.2915
55.3091
55.3278
55.3456
55.3635
55.3815
55.3991
55.4166
55.4338
55.4513
51.1979
51.2183
51.2353
51.2513
51.2663
51.2802
51.2935
51.3068
51.3202
51.3337
51.3474
51.3613
51.3753
51.3896
51.404
51.4185
51.4332
51.4481
51.4632
51.4784
51.4938
51.5093
51.525
51.5409
51.5569
51.5731
51.5894
51.6059
51.6226
51.6394
51.6564
51.6736
51.6909
51.7084
51.726
51.7438
51.7618
51.7799
51.7982
51.8166
51.8351
51.8539
51.8727
51.8918
51.911
51.9304
51.9499
51.9696
51.9895
52.0095
52.0297
52.05
52.0704
52.091
52.1117
52.1326
52.1536
52.1747
52.196
52.2174
52.239
52.2607
52.2825
52.3044
52.3264
52.3486
52.3709
52.3934
52.416
52.4387
52.4615
52.4845
52.5075
52.5307
52.554
52.5774
52.6008
52.6244
52.6481
52.6719
52.6957
52.7197
52.7438
52.768
52.7922
52.8165
52.8409
52.8654
52.8899
52.9145
52.9392
52.964
52.9888
53.0136
53.0385
53.0635
53.0884
53.1134
53.1385
53.1635
53.1886
53.2138
53.239
53.2642
53.2895
53.3147
53.34
53.3653
53.3906
53.4159
53.4412
53.4666
53.4919
53.5172
53.5426
53.5679
53.5932
53.6185
53.6438
53.6691
53.6943
53.7195
53.7447
53.7699
53.7951
53.8202
53.8454
53.8704
53.8955
53.9205
53.9456
53.9706
53.9956
54.0205
54.0453
54.0701
54.0948
54.1194
54.144
54.1686
54.1931
54.2176
54.2422
54.2667
54.2912
54.3156
54.3399
54.364
54.388
54.4116
54.4351
54.4585
54.4818
54.5051
54.5287
54.5525
54.5766
54.6008
54.6251
54.6493
54.6736
54.6977
54.7215
54.7449
54.7681
54.7909
54.8136
54.8359
54.8581
54.8798
54.9015
54.9223
54.9433
54.9632
54.9836
55.0029
55.0229
55.0418
55.0618
55.0805
55.1006
55.1192
55.1392
55.1576
55.1777
55.1958
55.2159
55.2336
55.2536
55.271
55.2908
55.3079
55.3275
55.3443
55.3636
55.3802
55.3992
55.4156
55.4343
55.4501
51.2365
51.2657
51.2803
51.2917
51.3035
51.3158
51.3286
51.3417
51.355
51.3686
51.3823
51.3962
51.4103
51.4246
51.439
51.4536
51.4684
51.4833
51.4984
51.5136
51.529
51.5446
51.5603
51.5762
51.5922
51.6084
51.6248
51.6413
51.658
51.6748
51.6918
51.709
51.7263
51.7438
51.7615
51.7793
51.7973
51.8154
51.8337
51.8521
51.8707
51.8895
51.9084
51.9275
51.9467
51.9661
51.9857
52.0054
52.0252
52.0452
52.0653
52.0856
52.1061
52.1266
52.1473
52.1682
52.1892
52.2104
52.2317
52.2531
52.2747
52.2964
52.3183
52.3402
52.3623
52.3845
52.4069
52.4293
52.4519
52.4746
52.4974
52.5204
52.5434
52.5666
52.5899
52.6133
52.6368
52.6603
52.684
52.7078
52.7316
52.7556
52.7796
52.8038
52.828
52.8523
52.8767
52.9012
52.9257
52.9503
52.975
52.9997
53.0245
53.0493
53.0742
53.0991
53.124
53.1491
53.1741
53.1993
53.2244
53.2496
53.2748
53.3
53.3253
53.3506
53.3758
53.4011
53.4264
53.4517
53.477
53.5023
53.5276
53.5529
53.5782
53.6036
53.6289
53.6541
53.6794
53.7046
53.7298
53.755
53.7801
53.8052
53.8302
53.8553
53.8803
53.9052
53.9301
53.955
53.9798
54.0046
54.0293
54.0539
54.0785
54.103
54.1274
54.1518
54.1761
54.2004
54.2246
54.2486
54.2727
54.2967
54.3205
54.3444
54.3681
54.3917
54.4152
54.4386
54.4618
54.485
54.5081
54.5312
54.5542
54.5769
54.5994
54.6219
54.6444
54.6668
54.689
54.7112
54.7333
54.755
54.7762
54.7972
54.8183
54.8393
54.8605
54.8816
54.9035
54.9255
54.9482
54.9701
54.992
55.0123
55.0325
55.051
55.07
55.0876
55.1064
55.124
55.1431
55.1607
55.1801
55.1977
55.2173
55.2347
55.2545
55.2716
55.2913
55.3082
55.3278
55.3445
55.3638
55.3803
55.3992
55.4159
55.4338
55.4506
51.1738
51.2214
51.2426
51.2575
51.2706
51.2831
51.2957
51.3085
51.3215
51.3348
51.3483
51.3621
51.376
51.3902
51.4046
51.4191
51.4338
51.4487
51.4638
51.479
51.4944
51.5099
51.5256
51.5415
51.5575
51.5737
51.59
51.6065
51.6232
51.64
51.657
51.6742
51.6915
51.709
51.7266
51.7444
51.7624
51.7806
51.7988
51.8173
51.8359
51.8546
51.8734
51.8925
51.9117
51.931
51.9506
51.9703
51.9901
52.0101
52.0303
52.0506
52.0711
52.0917
52.1124
52.1333
52.1543
52.1754
52.1967
52.2182
52.2397
52.2614
52.2832
52.3052
52.3272
52.3494
52.3717
52.3941
52.4167
52.4394
52.4622
52.4852
52.5083
52.5315
52.5548
52.5782
52.6017
52.6253