/*--------------------------------*- C++ -*----------------------------------*\
| =========                 |                                                 |
| \\      /  F ield         | OpenFOAM: The Open Source CFD Toolbox           |
|  \\    /   O peration     | Version:  3.0.x                                 |
|   \\  /    A nd           | Web:      www.OpenFOAM.org                      |
|    \\/     M anipulation  |                                                 |
\*---------------------------------------------------------------------------*/
FoamFile
{
    version     2.0;
    format      ascii;
    class       volScalarField;
    location    "0.46995";
    object      T;
}
// * * * * * * * * * * * * * * * * * * * * * * * * * * * * * * * * * * * * * //

dimensions      [0 0 0 1 0 0 0];

internalField   nonuniform List<scalar> 
13800
(
773.513
773.513
773.513
773.513
773.513
773.513
773.513
773.513
773.512
773.512
773.512
773.512
773.512
773.512
773.512
773.512
773.512
773.511
773.511
773.511
773.511
773.511
773.511
773.511
773.511
773.511
773.511
773.511
773.511
773.511
773.511
773.511
773.51
773.51
773.51
773.51
773.51
773.51
773.51
773.51
773.51
773.51
773.51
773.51
773.51
773.51
773.51
773.51
773.509
773.509
773.509
773.509
773.509
773.509
773.509
773.509
773.509
773.509
773.51
773.51
773.511
773.511
773.512
773.512
773.512
773.512
773.511
773.51
773.508
773.507
773.505
773.504
773.504
773.503
773.503
773.503
773.503
773.503
773.503
773.504
773.504
773.505
773.506
773.506
773.507
773.507
773.507
773.507
773.506
773.506
773.506
773.506
773.507
773.507
773.508
773.508
773.508
773.508
773.507
773.507
773.507
773.507
773.508
773.509
773.51
773.511
773.513
773.515
773.517
773.52
773.524
773.527
773.531
773.535
773.539
773.542
773.546
773.55
773.553
773.556
773.56
773.564
773.568
773.572
773.577
773.583
773.589
773.595
773.602
773.609
773.617
773.625
773.633
773.642
773.651
773.66
773.669
773.68
773.69
773.701
773.712
773.724
773.736
773.748
773.761
773.774
773.788
773.802
773.816
773.831
773.847
773.863
773.879
773.896
773.913
773.931
773.949
773.968
773.987
774.007
774.027
774.047
774.069
774.09
774.112
774.135
774.158
774.182
774.207
774.231
774.257
774.283
774.309
774.336
774.364
774.392
774.421
774.451
774.481
774.511
774.543
774.575
774.607
774.64
774.674
774.709
774.743
774.78
774.814
774.854
774.887
774.931
774.964
775.011
775.042
775.094
775.125
775.191
775.226
775.561
773.489
773.489
773.489
773.489
773.489
773.489
773.489
773.489
773.489
773.489
773.489
773.488
773.488
773.488
773.488
773.488
773.488
773.488
773.488
773.488
773.488
773.488
773.488
773.488
773.488
773.488
773.488
773.488
773.488
773.488
773.488
773.488
773.488
773.488
773.488
773.488
773.488
773.488
773.488
773.488
773.488
773.488
773.488
773.488
773.488
773.488
773.488
773.488
773.488
773.488
773.488
773.488
773.488
773.488
773.488
773.488
773.488
773.488
773.488
773.489
773.49
773.491
773.491
773.491
773.491
773.491
773.491
773.49
773.488
773.487
773.486
773.485
773.484
773.483
773.483
773.483
773.483
773.483
773.483
773.484
773.485
773.486
773.487
773.487
773.488
773.488
773.488
773.488
773.487
773.487
773.487
773.487
773.488
773.489
773.489
773.49
773.49
773.49
773.49
773.49
773.49
773.49
773.49
773.491
773.492
773.494
773.496
773.498
773.5
773.503
773.506
773.51
773.514
773.518
773.521
773.525
773.529
773.533
773.537
773.54
773.544
773.547
773.552
773.556
773.561
773.567
773.573
773.579
773.586
773.593
773.601
773.609
773.617
773.626
773.635
773.644
773.654
773.664
773.675
773.686
773.697
773.708
773.72
773.733
773.746
773.759
773.773
773.787
773.801
773.816
773.832
773.848
773.864
773.881
773.898
773.916
773.934
773.952
773.972
773.991
774.011
774.032
774.053
774.075
774.097
774.12
774.143
774.167
774.191
774.216
774.241
774.267
774.294
774.321
774.349
774.377
774.406
774.435
774.465
774.496
774.527
774.559
774.592
774.625
774.658
774.693
774.727
774.765
774.798
774.839
774.872
774.916
774.948
774.995
775.027
775.079
775.109
775.177
775.21
775.592
773.489
773.489
773.489
773.489
773.489
773.489
773.489
773.489
773.489
773.489
773.489
773.488
773.488
773.488
773.488
773.488
773.488
773.488
773.488
773.488
773.488
773.488
773.488
773.488
773.488
773.488
773.488
773.488
773.488
773.488
773.488
773.488
773.488
773.488
773.488
773.488
773.488
773.488
773.488
773.488
773.488
773.488
773.488
773.488
773.488
773.488
773.488
773.488
773.488
773.488
773.488
773.488
773.488
773.488
773.488
773.488
773.488
773.488
773.488
773.489
773.49
773.491
773.491
773.491
773.491
773.491
773.491
773.49
773.488
773.487
773.486
773.485
773.484
773.483
773.483
773.483
773.483
773.483
773.483
773.484
773.485
773.486
773.487
773.487
773.488
773.488
773.488
773.488
773.487
773.487
773.487
773.487
773.488
773.489
773.489
773.49
773.49
773.49
773.49
773.49
773.49
773.49
773.49
773.491
773.492
773.494
773.496
773.498
773.5
773.503
773.506
773.51
773.514
773.517
773.521
773.525
773.529
773.533
773.537
773.54
773.544
773.547
773.551
773.556
773.561
773.567
773.573
773.579
773.586
773.593
773.601
773.609
773.617
773.626
773.635
773.644
773.654
773.664
773.675
773.685
773.697
773.708
773.72
773.733
773.746
773.759
773.773
773.787
773.801
773.816
773.832
773.848
773.864
773.881
773.898
773.916
773.934
773.952
773.972
773.991
774.011
774.032
774.053
774.075
774.097
774.12
774.143
774.167
774.191
774.216
774.241
774.267
774.294
774.321
774.349
774.377
774.406
774.435
774.465
774.496
774.527
774.559
774.592
774.625
774.658
774.693
774.727
774.765
774.798
774.839
774.872
774.916
774.948
774.995
775.027
775.078
775.109
775.176
775.209
775.581
773.489
773.489
773.489
773.489
773.489
773.489
773.489
773.489
773.489
773.489
773.489
773.489
773.489
773.489
773.488
773.488
773.488
773.488
773.488
773.488
773.488
773.488
773.488
773.488
773.488
773.488
773.488
773.488
773.488
773.488
773.488
773.488
773.488
773.488
773.488
773.488
773.488
773.488
773.488
773.488
773.488
773.488
773.488
773.488
773.488
773.488
773.488
773.488
773.488
773.488
773.488
773.488
773.488
773.488
773.488
773.488
773.488
773.488
773.489
773.489
773.49
773.491
773.491
773.491
773.491
773.491
773.491
773.49
773.488
773.487
773.486
773.485
773.484
773.483
773.483
773.483
773.483
773.483
773.483
773.484
773.485
773.486
773.487
773.487
773.488
773.488
773.488
773.488
773.488
773.487
773.487
773.488
773.488
773.489
773.489
773.49
773.49
773.49
773.49
773.49
773.49
773.49
773.49
773.491
773.492
773.494
773.496
773.498
773.5
773.503
773.506
773.51
773.514
773.517
773.521
773.525
773.529
773.533
773.537
773.54
773.544
773.547
773.552
773.556
773.561
773.567
773.573
773.579
773.586
773.593
773.601
773.609
773.617
773.626
773.635
773.644
773.654
773.664
773.675
773.685
773.697
773.708
773.72
773.733
773.746
773.759
773.773
773.787
773.801
773.816
773.832
773.848
773.864
773.881
773.898
773.916
773.934
773.952
773.972
773.991
774.011
774.032
774.053
774.075
774.097
774.12
774.143
774.167
774.191
774.216
774.241
774.267
774.294
774.321
774.349
774.377
774.406
774.435
774.465
774.496
774.527
774.559
774.592
774.625
774.658
774.693
774.727
774.765
774.798
774.839
774.872
774.915
774.948
774.995
775.027
775.078
775.109
775.174
775.208
775.498
773.489
773.489
773.489
773.489
773.489
773.489
773.489
773.489
773.489
773.489
773.489
773.489
773.489
773.489
773.489
773.489
773.489
773.488
773.488
773.488
773.488
773.488
773.488
773.488
773.488
773.488
773.488
773.488
773.488
773.488
773.488
773.488
773.488
773.488
773.488
773.488
773.488
773.488
773.488
773.488
773.488
773.488
773.488
773.488
773.488
773.488
773.488
773.488
773.488
773.488
773.488
773.488
773.488
773.488
773.488
773.488
773.488
773.488
773.489
773.489
773.49
773.491
773.491
773.491
773.491
773.491
773.491
773.49
773.488
773.487
773.486
773.485
773.484
773.483
773.483
773.483
773.483
773.483
773.483
773.484
773.485
773.486
773.487
773.487
773.488
773.488
773.488
773.488
773.488
773.487
773.487
773.488
773.488
773.489
773.489
773.49
773.49
773.49
773.49
773.49
773.49
773.49
773.49
773.491
773.492
773.494
773.496
773.498
773.5
773.503
773.506
773.51
773.514
773.518
773.521
773.525
773.529
773.533
773.537
773.54
773.544
773.547
773.552
773.556
773.561
773.567
773.573
773.579
773.586
773.593
773.601
773.609
773.617
773.626
773.635
773.644
773.654
773.664
773.675
773.685
773.697
773.708
773.72
773.733
773.746
773.759
773.773
773.787
773.801
773.816
773.832
773.848
773.864
773.881
773.898
773.916
773.934
773.952
773.972
773.991
774.011
774.032
774.053
774.075
774.097
774.12
774.143
774.167
774.191
774.216
774.241
774.267
774.294
774.321
774.349
774.377
774.406
774.435
774.465
774.496
774.527
774.559
774.592
774.625
774.658
774.693
774.727
774.765
774.798
774.839
774.872
774.916
774.948
774.996
775.027
775.079
775.108
775.169
775.198
775.405
773.489
773.489
773.489
773.489
773.489
773.489
773.489
773.489
773.489
773.489
773.489
773.489
773.489
773.489
773.489
773.489
773.489
773.488
773.488
773.488
773.488
773.488
773.488
773.488
773.488
773.488
773.488
773.488
773.488
773.488
773.488
773.488
773.488
773.488
773.488
773.488
773.488
773.488
773.488
773.488
773.488
773.488
773.488
773.488
773.488
773.488
773.488
773.488
773.488
773.488
773.488
773.488
773.488
773.488
773.488
773.488
773.488
773.488
773.489
773.489
773.49
773.491
773.491
773.491
773.491
773.491
773.491
773.49
773.488
773.487
773.486
773.485
773.484
773.483
773.483
773.483
773.483
773.483
773.483
773.484
773.485
773.486
773.487
773.487
773.488
773.488
773.488
773.488
773.488
773.487
773.487
773.488
773.488
773.489
773.489
773.49
773.49
773.49
773.49
773.49
773.49
773.49
773.49
773.491
773.492
773.494
773.496
773.498
773.5
773.503
773.506
773.51
773.514
773.518
773.521
773.525
773.529
773.533
773.537
773.54
773.544
773.547
773.552
773.556
773.561
773.567
773.573
773.579
773.586
773.593
773.601
773.609
773.617
773.626
773.635
773.644
773.654
773.664
773.675
773.685
773.697
773.708
773.72
773.733
773.746
773.759
773.773
773.787
773.801
773.816
773.832
773.848
773.864
773.881
773.898
773.916
773.934
773.952
773.972
773.991
774.011
774.032
774.053
774.075
774.097
774.12
774.143
774.167
774.191
774.216
774.241
774.267
774.294
774.321
774.349
774.377
774.406
774.435
774.465
774.496
774.527
774.559
774.592
774.625
774.659
774.693
774.728
774.763
774.8
774.838
774.872
774.915
774.949
774.992
775.034
775.068
775.12
775.147
775.203
775.215
773.489
773.489
773.489
773.489
773.489
773.489
773.489
773.489
773.489
773.489
773.489
773.489
773.489
773.489
773.488
773.488
773.488
773.488
773.488
773.488
773.488
773.488
773.488
773.488
773.488
773.488
773.488
773.488
773.488
773.488
773.488
773.488
773.488
773.488
773.488
773.488
773.488
773.488
773.488
773.488
773.488
773.488
773.488
773.488
773.488
773.488
773.488
773.488
773.488
773.488
773.488
773.488
773.488
773.488
773.488
773.488
773.488
773.488
773.489
773.489
773.49
773.491
773.491
773.491
773.491
773.491
773.491
773.49
773.488
773.487
773.486
773.485
773.484
773.483
773.483
773.483
773.483
773.483
773.483
773.484
773.485
773.486
773.487
773.487
773.488
773.488
773.488
773.488
773.488
773.487
773.487
773.488
773.488
773.489
773.489
773.49
773.49
773.49
773.49
773.49
773.49
773.49
773.49
773.491
773.492
773.494
773.496
773.498
773.5
773.503
773.506
773.51
773.514
773.517
773.521
773.525
773.529
773.533
773.537
773.54
773.544
773.547
773.552
773.556
773.561
773.567
773.573
773.579
773.586
773.593
773.601
773.609
773.617
773.626
773.635
773.644
773.654
773.664
773.675
773.685
773.697
773.708
773.72
773.733
773.746
773.759
773.773
773.787
773.801
773.816
773.832
773.848
773.864
773.881
773.898
773.916
773.934
773.952
773.972
773.991
774.011
774.032
774.053
774.075
774.097
774.12
774.143
774.167
774.191
774.216
774.241
774.267
774.294
774.321
774.349
774.377
774.406
774.435
774.465
774.496
774.527
774.559
774.592
774.625
774.659
774.693
774.728
774.763
774.802
774.834
774.878
774.909
774.956
774.986
775.037
775.066
775.119
775.144
775.204
774.931
773.489
773.489
773.489
773.489
773.489
773.489
773.489
773.489
773.489
773.489
773.489
773.488
773.488
773.488
773.488
773.488
773.488
773.488
773.488
773.488
773.488
773.488
773.488
773.488
773.488
773.488
773.488
773.488
773.488
773.488
773.488
773.488
773.488
773.488
773.488
773.488
773.488
773.488
773.488
773.488
773.488
773.488
773.488
773.488
773.488
773.488
773.488
773.488
773.488
773.488
773.488
773.488
773.488
773.488
773.488
773.488
773.488
773.488
773.488
773.489
773.49
773.491
773.491
773.491
773.491
773.491
773.491
773.49
773.488
773.487
773.486
773.485
773.484
773.483
773.483
773.483
773.483
773.483
773.483
773.484
773.485
773.486
773.487
773.487
773.488
773.488
773.488
773.488
773.487
773.487
773.487
773.487
773.488
773.489
773.489
773.49
773.49
773.49
773.49
773.49
773.49
773.49
773.49
773.491
773.492
773.494
773.496
773.498
773.5
773.503
773.506
773.51
773.514
773.517
773.521
773.525
773.529
773.533
773.537
773.54
773.544
773.547
773.551
773.556
773.561
773.567
773.573
773.579
773.586
773.593
773.601
773.609
773.617
773.626
773.635
773.644
773.654
773.664
773.675
773.685
773.697
773.708
773.72
773.733
773.746
773.759
773.773
773.787
773.801
773.816
773.832
773.848
773.864
773.881
773.898
773.916
773.934
773.952
773.972
773.991
774.011
774.032
774.053
774.075
774.097
774.12
774.143
774.167
774.191
774.216
774.241
774.267
774.294
774.321
774.349
774.377
774.406
774.435
774.465
774.496
774.527
774.559
774.592
774.625
774.659
774.693
774.728
774.763
774.802
774.834
774.878
774.909
774.956
774.986
775.038
775.065
775.121
775.142
775.233
774.523
773.489
773.489
773.489
773.489
773.489
773.489
773.489
773.489
773.489
773.489
773.489
773.488
773.488
773.488
773.488
773.488
773.488
773.488
773.488
773.488
773.488
773.488
773.488
773.488
773.488
773.488
773.488
773.488
773.488
773.488
773.488
773.488
773.488
773.488
773.488
773.488
773.488
773.488
773.488
773.488
773.488
773.488
773.488
773.488
773.488
773.488
773.488
773.488
773.488
773.488
773.488
773.488
773.488
773.488
773.488
773.488
773.488
773.488
773.488
773.489
773.49
773.491
773.491
773.491
773.491
773.491
773.491
773.49
773.488
773.487
773.486
773.485
773.484
773.483
773.483
773.483
773.483
773.483
773.483
773.484
773.485
773.486
773.487
773.487
773.488
773.488
773.488
773.488
773.487
773.487
773.487
773.487
773.488
773.489
773.489
773.49
773.49
773.49
773.49
773.49
773.49
773.49
773.49
773.491
773.492
773.494
773.496
773.498
773.5
773.503
773.506
773.51
773.514
773.518
773.521
773.525
773.529
773.533
773.537
773.54
773.544
773.547
773.552
773.556
773.561
773.567
773.573
773.579
773.586
773.593
773.601
773.609
773.617
773.626
773.635
773.644
773.654
773.664
773.675
773.686
773.697
773.708
773.72
773.733
773.746
773.759
773.773
773.787
773.801
773.816
773.832
773.848
773.864
773.881
773.898
773.916
773.934
773.952
773.972
773.991
774.011
774.032
774.053
774.075
774.097
774.12
774.143
774.167
774.191
774.216
774.241
774.267
774.294
774.321
774.349
774.377
774.406
774.435
774.465
774.496
774.527
774.559
774.592
774.625
774.659
774.693
774.729
774.762
774.802
774.834
774.878
774.909
774.956
774.986
775.038
775.065
775.122
775.141
775.255
774.321
773.513
773.513
773.513
773.513
773.513
773.513
773.513
773.513
773.512
773.512
773.512
773.512
773.512
773.512
773.512
773.512
773.512
773.511
773.511
773.511
773.511
773.511
773.511
773.511
773.511
773.511
773.511
773.511
773.511
773.511
773.511
773.511
773.51
773.51
773.51
773.51
773.51
773.51
773.51
773.51
773.51
773.51
773.51
773.51
773.51
773.51
773.51
773.51
773.509
773.509
773.509
773.509
773.509
773.509
773.509
773.509
773.509
773.509
773.51
773.51
773.511
773.511
773.512
773.512
773.512
773.512
773.511
773.51
773.508
773.507
773.505
773.504
773.504
773.503
773.503
773.503
773.503
773.503
773.503
773.504
773.504
773.505
773.506
773.506
773.507
773.507
773.507
773.507
773.506
773.506
773.506
773.506
773.507
773.507
773.508
773.508
773.508
773.508
773.507
773.507
773.507
773.507
773.508
773.509
773.51
773.511
773.513
773.515
773.517
773.52
773.524
773.527
773.531
773.535
773.539
773.542
773.546
773.55
773.553
773.556
773.56
773.564
773.568
773.572
773.577
773.583
773.589
773.595
773.602
773.609
773.617
773.625
773.633
773.642
773.651
773.66
773.669
773.68
773.69
773.701
773.712
773.724
773.736
773.748
773.761
773.774
773.788
773.802
773.816
773.831
773.847
773.863
773.879
773.896
773.913
773.931
773.949
773.968
773.987
774.007
774.027
774.047
774.069
774.09
774.112
774.135
774.158
774.182
774.207
774.231
774.257
774.283
774.309
774.336
774.364
774.392
774.421
774.451
774.481
774.511
774.543
774.575
774.607
774.64
774.674
774.708
774.744
774.778
774.817
774.849
774.893
774.924
774.971
775.001
775.053
775.081
775.138
775.156
775.289
774.153
775.547
775.604
775.649
775.666
775.683
775.698
775.712
775.725
775.734
775.743
775.752
775.759
775.765
775.769
775.772
775.772
775.769
775.759
775.734
775.684
775.533
775.576
775.604
775.618
775.631
775.643
775.652
775.66
775.666
775.672
775.678
775.684
775.688
775.691
775.692
775.692
775.688
775.679
775.655
775.611
775.53
775.573
775.607
775.62
775.633
775.645
775.656
775.668
775.676
775.683
775.688
775.693
775.697
775.698
775.698
775.695
775.687
775.674
775.646
775.605
775.464
775.489
775.504
775.516
775.527
775.538
775.549
775.559
775.571
775.583
775.596
775.609
775.623
775.637
775.649
775.661
775.663
775.661
775.645
775.62
775.389
775.419
775.449
775.47
775.489
775.501
775.513
775.522
775.525
775.522
775.519
775.506
775.502
775.487
775.479
775.462
775.454
775.439
775.436
775.426
775.238
775.231
775.221
775.212
775.21
775.214
775.221
775.232
775.247
775.266
775.291
775.324
775.357
775.389
775.426
775.461
775.499
775.525
775.558
775.574
775.056
775.048
775.059
775.071
775.079
775.082
775.084
775.078
775.072
775.057
775.043
775.024
775.006
774.987
774.973
774.964
774.969
774.977
775.002
775.037
774.81
774.748
774.694
774.672
774.661
774.662
774.667
774.678
774.7
774.729
774.763
774.801
774.844
774.892
774.943
775.009
775.06
775.149
775.225
775.303
774.653
774.587
774.531
774.494
774.474
774.453
774.443
774.43
774.43
774.435
774.442
774.454
774.475
774.493
774.528
774.562
774.611
774.678
774.769
774.881
774.57
774.477
774.379
774.343
774.326
774.333
774.348
774.373
774.406
774.443
774.497
774.545
774.611
774.666
774.738
774.806
774.894
774.99
775.105
775.231
775.519
775.515
775.533
775.556
775.595
775.63
775.667
775.706
775.748
775.791
775.833
775.875
775.917
775.96
776.003
776.047
776.092
776.137
776.183
776.229
776.275
776.322
776.37
776.418
776.466
776.515
776.565
776.615
776.665
776.716
776.767
776.819
776.871
776.924
776.977
777.03
777.085
777.139
777.195
777.251
777.307
777.364
777.421
777.478
777.535
777.593
777.652
777.711
777.77
777.83
777.89
777.95
778.012
778.073
778.136
778.198
778.261
778.324
778.388
778.452
778.516
778.581
778.647
778.713
778.779
778.846
778.912
778.98
779.047
779.115
779.182
779.25
779.318
779.387
779.456
779.526
779.596
779.666
779.736
779.807
779.878
779.95
780.021
780.092
780.164
780.236
780.308
780.38
780.453
780.525
780.598
780.672
780.745
780.818
780.892
780.965
781.038
781.112
781.186
781.26
781.334
781.409
781.484
781.558
781.633
781.708
781.782
781.856
781.931
782.005
782.079
782.153
782.228
782.302
782.376
782.45
782.524
782.598
782.671
782.745
782.818
782.891
782.965
783.039
783.112
783.186
783.259
783.332
783.405
783.477
783.55
783.622
783.694
783.766
783.837
783.909
783.98
784.052
784.123
784.193
784.263
784.333
784.402
784.47
784.537
784.605
784.673
784.742
784.81
784.877
784.942
785.004
785.065
785.123
785.181
785.238
785.297
785.361
785.43
785.498
785.549
785.578
785.601
785.644
785.752
786.055
786.544
787.087
787.643
788.175
788.654
789.063
789.388
789.618
789.746
789.784
789.779
789.715
789.431
788.897
788.411
788
787.681
787.461
787.327
787.25
787.21
787.188
787.187
787.2
787.264
787.302
787.38
787.415
787.49
787.525
787.599
787.629
787.721
787.716
775.465
775.467
775.484
775.507
775.547
775.582
775.618
775.657
775.697
775.739
775.782
775.824
775.866
775.909
775.952
775.996
776.04
776.086
776.131
776.177
776.224
776.271
776.318
776.366
776.415
776.463
776.513
776.563
776.613
776.664
776.715
776.767
776.819
776.872
776.925
776.978
777.032
777.087
777.142
777.197
777.254
777.31
777.367
777.425
777.483
777.541
777.599
777.658
777.717
777.776
777.837
777.897
777.958
778.02
778.082
778.144
778.207
778.271
778.334
778.398
778.463
778.528
778.593
778.658
778.724
778.791
778.858
778.925
778.993
779.061
779.129
779.197
779.265
779.334
779.402
779.471
779.541
779.611
779.681
779.752
779.823
779.895
779.966
780.038
780.11
780.182
780.253
780.326
780.398
780.471
780.544
780.617
780.69
780.763
780.837
780.911
780.984
781.058
781.131
781.205
781.279
781.353
781.428
781.502
781.577
781.652
781.727
781.801
781.876
781.95
782.024
782.098
782.172
782.246
782.32
782.394
782.468
782.542
782.616
782.69
782.763
782.836
782.91
782.983
783.056
783.129
783.202
783.276
783.349
783.422
783.494
783.567
783.639
783.711
783.782
783.854
783.925
783.996
784.068
784.138
784.209
784.279
784.349
784.418
784.487
784.555
784.624
784.692
784.759
784.827
784.893
784.956
785.021
785.084
785.145
785.208
785.274
785.342
785.408
785.472
785.531
785.58
785.614
785.635
785.66
785.698
785.737
785.759
785.77
785.79
785.837
785.932
786.067
786.232
786.414
786.596
786.764
786.914
787.042
787.136
787.195
787.221
787.222
787.215
787.2
787.185
787.177
787.176
787.196
787.22
787.276
787.307
787.375
787.408
787.479
787.513
787.585
787.616
787.703
787.718
775.472
775.475
775.495
775.518
775.556
775.591
775.627
775.667
775.709
775.751
775.793
775.834
775.876
775.919
775.962
776.006
776.051
776.096
776.142
776.188
776.234
776.281
776.329
776.377
776.425
776.474
776.523
776.573
776.623
776.674
776.725
776.777
776.83
776.882
776.935
776.989
777.043
777.097
777.152
777.208
777.264
777.321
777.378
777.435
777.493
777.551
777.61
777.668
777.728
777.787
777.847
777.908
777.969
778.03
778.092
778.155
778.218
778.281
778.345
778.409
778.473
778.538
778.603
778.669
778.735
778.802
778.868
778.936
779.003
779.071
779.139
779.207
779.276
779.344
779.413
779.482
779.552
779.622
779.692
779.763
779.834
779.905
779.977
780.048
780.12
780.192
780.264
780.336
780.408
780.481
780.554
780.627
780.7
780.774
780.847
780.921
780.995
781.068
781.142
781.215
781.289
781.363
781.438
781.513
781.587
781.662
781.737
781.811
781.886
781.96
782.034
782.109
782.183
782.257
782.331
782.405
782.478
782.552
782.626
782.7
782.773
782.846
782.92
782.993
783.066
783.139
783.212
783.285
783.358
783.431
783.504
783.576
783.648
783.72
783.791
783.863
783.934
784.005
784.076
784.147
784.218
784.288
784.358
784.427
784.496
784.565
784.633
784.702
784.77
784.837
784.903
784.969
785.032
785.094
785.156
785.221
785.284
785.35
785.423
785.491
785.546
785.593
785.626
785.64
785.646
785.658
785.678
785.7
785.72
785.74
785.772
785.823
785.908
786.01
786.142
786.268
786.413
786.534
786.664
786.761
786.863
786.924
786.995
787.025
787.072
787.091
787.131
787.15
787.198
787.223
787.282
787.313
787.38
787.412
787.482
787.516
787.587
787.618
787.698
787.723
775.539
775.557
775.572
775.612
775.656
775.697
775.738
775.777
775.817
775.857
775.899
775.941
775.984
776.027
776.072
776.116
776.161
776.206
776.252
776.298
776.344
776.391
776.439
776.487
776.535
776.584
776.634
776.683
776.734
776.785
776.836
776.888
776.94
776.993
777.046
777.099
777.153
777.208
777.263
777.319
777.375
777.431
777.489
777.546
777.604
777.662
777.72
777.779
777.839
777.898
777.958
778.019
778.08
778.141
778.203
778.266
778.329
778.392
778.456
778.52
778.584
778.649
778.714
778.78
778.846
778.913
778.98
779.047
779.114
779.182
779.25
779.318
779.386
779.455
779.524
779.593
779.663
779.733
779.803
779.874
779.945
780.017
780.088
780.159
780.231
780.303
780.375
780.447
780.52
780.592
780.665
780.738
780.811
780.885
780.958
781.031
781.105
781.178
781.252
781.326
781.401
781.475
781.55
781.624
781.699
781.774
781.848
781.922
781.997
782.071
782.145
782.219
782.293
782.368
782.442
782.516
782.589
782.663
782.737
782.81
782.884
782.958
783.031
783.105
783.178
783.252
783.325
783.398
783.47
783.543
783.615
783.687
783.759
783.831
783.903
783.974
784.045
784.117
784.187
784.257
784.326
784.395
784.463
784.533
784.602
784.669
784.737
784.804
784.867
784.93
784.993
785.054
785.115
785.18
785.246
785.312
785.377
785.44
785.497
785.544
785.583
785.618
785.655
785.695
785.736
785.779
785.821
785.866
785.917
785.976
786.044
786.118
786.2
786.276
786.363
786.435
786.518
786.585
786.657
786.718
786.777
786.831
786.883
786.928
786.983
787.018
787.083
787.114
787.182
787.215
787.284
787.317
787.389
787.422
787.492
787.525
787.595
787.627
787.691
787.732
775.427
775.438
775.466
775.493
775.527
775.563
775.603
775.643
775.685
775.726
775.768
775.809
775.851
775.894
775.937
775.981
776.026
776.071
776.116
776.162
776.209
776.256
776.303
776.351
776.4
776.449
776.498
776.548
776.598
776.649
776.7
776.752
776.804
776.857
776.91
776.964
777.018
777.072
777.127
777.183
777.238
777.295
777.352
777.409
777.467
777.525
777.584
777.643
777.703
777.763
777.823
777.884
777.945
778.006
778.068
778.13
778.193
778.256
778.32
778.384
778.448
778.513
778.579
778.644
778.71
778.776
778.843
778.91
778.977
779.045
779.113
779.181
779.25
779.319
779.388
779.458
779.528
779.598
779.668
779.738
779.809
779.88
779.951
780.023
780.095
780.167
780.239
780.312
780.384
780.457
780.53
780.603
780.676
780.749
780.823
780.896
780.97
781.044
781.118
781.192
781.266
781.34
781.414
781.488
781.562
781.636
781.711
781.785
781.86
781.934
782.009
782.083
782.158
782.232
782.306
782.38
782.454
782.528
782.602
782.676
782.75
782.823
782.897
782.97
783.043
783.116
783.19
783.262
783.336
783.408
783.481
783.553
783.626
783.698
783.77
783.842
783.913
783.984
784.055
784.127
784.198
784.268
784.339
784.409
784.478
784.548
784.617
784.686
784.755
784.824
784.892
784.96
785.027
785.094
785.16
785.224
785.288
785.352
785.418
785.484
785.549
785.612
785.671
785.728
785.783
785.836
785.889
785.942
785.997
786.053
786.113
786.174
786.237
786.303
786.363
786.432
786.489
786.556
786.613
786.674
786.733
786.787
786.848
786.898
786.958
787.008
787.066
787.119
787.17
787.23
787.273
787.336
787.381
787.436
787.489
787.537
787.59
787.64
787.691
787.734
775.632
775.694
775.752
775.807
775.859
775.906
775.952
775.996
776.04
776.083
776.126
776.169
776.213
776.257
776.3
776.345
776.39
776.435
776.48
776.527
776.573
776.62
776.668
776.716
776.764
776.813
776.862
776.912
776.963
777.013
777.065
777.117
777.169
777.222
777.275
777.328
777.382
777.437
777.492
777.548
777.604
777.661
777.718
777.776
777.834
777.892
777.95
778.009
778.068
778.127
778.187
778.248
778.309
778.37
778.433
778.495
778.558
778.621
778.684
778.748
778.813
778.878
778.944
779.01
779.076
779.143
779.209
779.276
779.343
779.411
779.478
779.546
779.614
779.683
779.752
779.822
779.892
779.962
780.032
780.103
780.173
780.244
780.315
780.386
780.458
780.529
780.601
780.674
780.746
780.819
780.891
780.964
781.037
781.11
781.183
781.257
781.33
781.405
781.479
781.553
781.628
781.702
781.776
781.851
781.925
781.999
782.073
782.147
782.221
782.295
782.369
782.443
782.517
782.591
782.664
782.737
782.81
782.883
782.957
783.03
783.102
783.175
783.247
783.319
783.391
783.462
783.533
783.604
783.674
783.744
783.812
783.881
783.948
784.016
784.083
784.151
784.219
784.286
784.353
784.418
784.483
784.546
784.608
784.669
784.729
784.788
784.848
784.908
784.971
785.035
785.1
785.165
785.23
785.292
785.349
785.401
785.447
785.49
785.53
785.568
785.605
785.642
785.681
785.723
785.768
785.816
785.863
785.914
785.964
786.019
786.072
786.135
786.194
786.264
786.328
786.403
786.466
786.542
786.601
786.675
786.729
786.801
786.849
786.919
786.962
787.033
787.072
787.142
787.178
787.249
787.283
787.353
787.386
787.455
787.487
787.556
787.588
787.655
787.687
787.758
775.177
775.246
775.285
775.32
775.358
775.396
775.435
775.476
775.516
775.558
775.599
775.642
775.684
775.728
775.771
775.815
775.859
775.904
775.949
775.995
776.041
776.088
776.136
776.183
776.232
776.281
776.33
776.38
776.43
776.481
776.532
776.584
776.636
776.689
776.742
776.795
776.85
776.904
776.959
777.014
777.07
777.127
777.184
777.241
777.299
777.357
777.415
777.474
777.533
777.593
777.654
777.715
777.776
777.838
777.9
777.963
778.026
778.089
778.152
778.216
778.281
778.345
778.41
778.476
778.542
778.608
778.675
778.742
778.809
778.877
778.945
779.013
779.082
779.151
779.22
779.289
779.359
779.429
779.5
779.57
779.642
779.713
779.785
779.857
779.929
780.001
780.073
780.145
780.217
780.29
780.363
780.436
780.51
780.584
780.658
780.732
780.806
780.88
780.954
781.028
781.102
781.176
781.25
781.324
781.398
781.473
781.547
781.622
781.696
781.771
781.846
781.92
781.994
782.068
782.142
782.216
782.29
782.363
782.437
782.511
782.584
782.658
782.732
782.805
782.879
782.952
783.025
783.098
783.17
783.243
783.315
783.387
783.459
783.531
783.603
783.674
783.746
783.817
783.888
783.958
784.028
784.098
784.167
784.236
784.305
784.374
784.442
784.51
784.577
784.647
784.716
784.784
784.851
784.917
784.982
785.05
785.12
785.187
785.252
785.318
785.384
785.448
785.512
785.58
785.652
785.726
785.797
785.866
785.931
785.994
786.044
786.091
786.125
786.167
786.207
786.269
786.33
786.412
786.485
786.574
786.645
786.732
786.794
786.876
786.928
787.006
787.051
787.127
787.166
787.241
787.275
787.349
787.382
787.453
787.485
787.554
787.588
787.651
787.695
787.75
775.573
775.667
775.729
775.783
775.833
775.882
775.929
775.976
776.022
776.068
776.113
776.158
776.202
776.246
776.291
776.335
776.38
776.425
776.471
776.517
776.564
776.611
776.658
776.706
776.755
776.804
776.853
776.903
776.953
777.004
777.055
777.107
777.159
777.212
777.265
777.319
777.373
777.427
777.482
777.537
777.593
777.65
777.708
777.765
777.824
777.882
777.941
777.999
778.058
778.118
778.178
778.238
778.299
778.36
778.422
778.485
778.547
778.61
778.674
778.737
778.802
778.866
778.932
778.998
779.064
779.131
779.198
779.266
779.333
779.4
779.467
779.535
779.603
779.671
779.74
779.809
779.878
779.948
780.018
780.088
780.158
780.227
780.297
780.367
780.438
780.508
780.58
780.651