/*--------------------------------*- C++ -*----------------------------------*\
| =========                 |                                                 |
| \\      /  F ield         | OpenFOAM: The Open Source CFD Toolbox           |
|  \\    /   O peration     | Version:  3.0.x                                 |
|   \\  /    A nd           | Web:      www.OpenFOAM.org                      |
|    \\/     M anipulation  |                                                 |
\*---------------------------------------------------------------------------*/
FoamFile
{
    version     2.0;
    format      ascii;
    class       surfaceScalarField;
    location    "0.013";
    object      phi;
}
// * * * * * * * * * * * * * * * * * * * * * * * * * * * * * * * * * * * * * //

dimensions      [1 0 -1 0 0 0 0];

internalField   nonuniform List<scalar> 
999
(
2922.08
2922.08
2922.08
2922.08
2922.08
2922.08
2922.08
2922.08
2922.08
2922.08
2922.08
2922.08
2922.08
2922.08
2922.08
2922.08
2922.08
2922.08
2922.08
2922.08
2922.08
2922.08
2922.08
2922.08
2922.08
2922.08
2922.08
2922.08
2922.08
2922.08
2922.08
2922.08
2922.08
2922.08
2922.08
2922.08
2922.08
2922.08
2922.08
2922.08
2922.08
2922.08
2922.08
2922.08
2922.08
2922.08
2922.08
2922.08
2922.08
2922.08
2922.08
2922.08
2922.08
2922.08
2922.08
2922.08
2922.08
2922.08
2922.08
2922.08
2922.08
2922.08
2922.08
2922.08
2922.08
2922.08
2922.08
2922.08
2922.08
2922.08
2922.08
2922.08
2922.08
2922.08
2922.08
2922.08
2922.08
2922.08
2922.08
2922.08
2922.08
2922.08
2922.08
2922.08
2922.08
2922.08
2922.08
2922.08
2922.08
2922.08
2922.08
2922.08
2922.08
2922.08
2922.08
2922.08
2922.08
2922.08
2922.08
2922.08
2922.08
2922.08
2922.08
2922.08
2922.08
2922.08
2922.07
2922.07
2922.07
2922.07
2922.07
2922.07
2922.07
2922.06
2922.06
2922.05
2922.05
2922.04
2922.04
2922.03
2922.01
2922
2921.98
2921.96
2921.94
2921.91
2921.87
2921.83
2921.77
2921.71
2921.63
2921.54
2921.43
2921.3
2921.14
2920.94
2920.71
2920.44
2920.11
2919.72
2919.25
2918.7
2918.03
2917.25
2916.31
2915.2
2913.88
2912.32
2910.48
2908.29
2905.71
2902.66
2899.07
2894.84
2889.86
2884
2877.13
2869.07
2859.63
2848.6
2835.73
2820.73
2803.3
2783.07
2759.67
2732.68
2701.65
2666.08
2625.51
2579.41
2527.33
2468.8
2403.46
2331.03
2251.37
2164.49
2070.63
1970.23
1863.98
1752.81
1637.87
1520.48
1402.08
1284.19
1168.27
1055.73
947.793
845.495
749.631
660.751
579.167
504.971
438.068
378.209
325.03
278.087
236.885
200.909
169.639
142.574
119.237
99.1836
82.0091
67.3473
54.8717
44.2939
35.3615
27.8555
21.5869
16.3936
12.1372
8.69915
5.97705
3.88114
2.3303
1.2483
0.560415
0.190435
0.0581229
0.0747629
0.136539
0.199526
0.25611
0.304996
0.346461
0.381194
0.409974
0.433573
0.452708
0.46802
0.480079
0.489383
0.496364
0.501395
0.504797
0.506844
0.507769
0.50777
0.507015
0.505644
0.503775
0.501509
0.498926
0.496097
0.493078
0.489916
0.486648
0.483308
0.47992
0.476505
0.47308
0.469657
0.466249
0.462862
0.459502
0.456176
0.452887
0.449637
0.446427
0.44326
0.440136
0.437055
0.434018
0.431023
0.428071
0.42516
0.422291
0.419462
0.416673
0.413922
0.41121
0.408534
0.405895
0.403291
0.400722
0.398186
0.395683
0.393213
0.390774
0.388366
0.385987
0.383638
0.381318
0.379025
0.37676
0.374522
0.37231
0.370124
0.367963
0.365826
0.363714
0.361625
0.359559
0.357516
0.355495
0.353496
0.351518
0.349561
0.347625
0.345709
0.343813
0.341937
0.340079
0.33824
0.33642
0.334618
0.332834
0.331067
0.329318
0.327586
0.32587
0.324171
0.322488
0.320821
0.31917
0.317534
0.315913
0.314307
0.312716
0.31114
0.309578
0.308029
0.306495
0.304975
0.303468
0.301974
0.300493
0.299025
0.297569
0.296127
0.294696
0.293277
0.291871
0.290476
0.289092
0.28772
0.286359
0.285009
0.28367
0.282342
0.281024
0.279716
0.278419
0.277131
0.275854
0.274586
0.273328
0.27208
0.270841
0.269611
0.26839
0.267178
0.265975
0.264781
0.263595
0.262419
0.26125
0.26009
0.258938
0.257795
0.256659
0.255531
0.254412
0.2533
0.252196
0.251099
0.25001
0.248929
0.247855
0.246788
0.245729
0.244676
0.243631
0.242593
0.241562
0.240537
0.23952
0.238509
0.237505
0.236507
0.235516
0.234531
0.233553
0.23258
0.231614
0.230655
0.229701
0.228753
0.227811
0.226875
0.225945
0.22502
0.224101
0.223188
0.22228
0.221378
0.220481
0.21959
0.218703
0.217822
0.216947
0.216076
0.21521
0.21435
0.213494
0.212643
0.211797
0.210956
0.21012
0.209289
0.208462
0.20764
0.206823
0.20601
0.205202
0.204398
0.203598
0.202803
0.202013
0.201227
0.200445
0.199667
0.198894
0.198125
0.197359
0.196598
0.195842
0.195089
0.19434
0.193595
0.192854
0.192116
0.191383
0.190653
0.189928
0.189206
0.188487
0.187772
0.187061
0.186353
0.185649
0.184949
0.184251
0.183558
0.182867
0.18218
0.181497
0.180816
0.180139
0.179465
0.178795
0.178127
0.177463
0.176802
0.176144
0.175489
0.174837
0.174188
0.173542
0.172899
0.172259
0.171622
0.170989
0.170358
0.169729
0.169104
0.168482
0.167862
0.167245
0.166632
0.16602
0.165412
0.164806
0.164203
0.163603
0.163005
0.16241
0.161818
0.161228
0.160641
0.160057
0.159475
0.158895
0.158318
0.157744
0.157172
0.156602
0.156035
0.15547
0.154908
0.154348
0.15379
0.153234
0.152681
0.152131
0.151582
0.151036
0.150492
0.14995
0.149411
0.148874
0.148339
0.147806
0.147275
0.146747
0.14622
0.145696
0.145174
0.144654
0.144136
0.143621
0.143107
0.142596
0.142087
0.141579
0.141074
0.140571
0.14007
0.139571
0.139073
0.138578
0.138085
0.137594
0.137105
0.136617
0.136132
0.135648
0.135167
0.134687
0.134209
0.133733
0.133258
0.132786
0.132315
0.131846
0.131379
0.130914
0.13045
0.129988
0.129527
0.129069
0.128612
0.128156
0.127702
0.12725
0.126799
0.12635
0.125903
0.125457
0.125012
0.12457
0.124128
0.123688
0.12325
0.122813
0.122378
0.121944
0.121511
0.12108
0.120651
0.120222
0.119796
0.119371
0.118947
0.118524
0.118103
0.117684
0.117266
0.116849
0.116434
0.11602
0.115607
0.115196
0.114786
0.114378
0.113971
0.113565
0.113161
0.112758
0.112356
0.111955
0.111556
0.111158
0.110762
0.110367
0.109973
0.10958
0.109188
0.108798
0.108409
0.108021
0.107635
0.107249
0.106865
0.106482
0.106101
0.10572
0.105341
0.104962
0.104585
0.104209
0.103834
0.10346
0.103087
0.102715
0.102345
0.101975
0.101606
0.101238
0.100871
0.100505
0.10014
0.0997764
0.0994134
0.0990514
0.0986903
0.0983301
0.0979709
0.0976127
0.0972554
0.0968991
0.0965437
0.0961893
0.0958358
0.0954833
0.0951317
0.0947811
0.0944314
0.0940826
0.0937347
0.0933878
0.0930417
0.0926966
0.0923523
0.0920089
0.0916664
0.0913248
0.0909841
0.0906442
0.0903052
0.0899671
0.0896298
0.0892935
0.088958
0.0886234
0.0882897
0.0879569
0.087625
0.087294
0.086964
0.0866348
0.0863066
0.0859793
0.0856529
0.0853274
0.0850028
0.0846792
0.0843564
0.0840345
0.0837135
0.0833933
0.083074
0.0827555
0.0824379
0.082121
0.081805
0.0814897
0.0811751
0.0808614
0.0805483
0.080236
0.0799244
0.0796136
0.0793034
0.0789939
0.0786851
0.078377
0.0780696
0.0777629
0.0774569
0.0771515
0.0768469
0.0765429
0.0762396
0.075937
0.0756351
0.0753339
0.0750334
0.0747336
0.0744344
0.074136
0.0738381
0.073541
0.0732445
0.0729486
0.0726534
0.0723587
0.0720647
0.0717713
0.0714784
0.071186
0.0708942
0.0706029
0.0703121
0.0700219
0.0697321
0.0694428
0.069154
0.0688658
0.068578
0.0682907
0.068004
0.0677178
0.0674322
0.0671472
0.0668627
0.0665789
0.0662957
0.0660132
0.0657313
0.0654501
0.0651696
0.0648898
0.0646107
0.0643322
0.0640544
0.0637773
0.0635009
0.063225
0.0629498
0.0626751
0.0624009
0.0621273
0.0618541
0.0615813
0.0613089
0.061037
0.0607654
0.0604941
0.0602231
0.0599525
0.0596823
0.0594124
0.0591428
0.0588736
0.0586049
0.0583365
0.0580686
0.0578012
0.0575344
0.057268
0.0570023
0.0567371
0.0564725
0.0562085
0.0559451
0.0556823
0.0554201
0.0551584
0.0548971
0.0546364
0.0543761
0.0541161
0.0538565
0.0535972
0.0533381
0.0530791
0.0528204
0.0525618
0.0523032
0.0520448
0.0517865
0.0515282
0.0512701
0.0510121
0.0507543
0.0504967
0.0502394
0.0499824
0.0497257
0.0494695
0.0492137
0.0489583
0.0487035
0.0484492
0.0481955
0.0479422
0.0476895
0.0474373
0.0471856
0.0469343
0.0466833
0.0464327
0.0461824
0.0459323
0.0456824
0.0454325
0.0451828
0.0449331
0.0446835
0.0444339
0.0441844
0.0439349
0.0436856
0.0434364
0.0431874
0.0429387
0.0426904
0.0424426
0.0421952
0.0419485
0.0417025
0.0414572
0.0412128
0.0409692
0.0407264
0.0404845
0.0402435
0.0400032
0.0397638
0.039525
0.0392868
0.0390491
0.0388118
0.0385748
0.038338
0.0381013
0.0378647
0.037628
0.0373911
0.0371541
0.0369169
0.0366795
0.0364419
0.0362041
0.0359662
0.0357282
0.0354903
0.0352525
0.035015
0.0347779
0.0345413
0.0343055
0.0340703
0.0338362
0.033603
0.0333709
0.0331399
0.03291
0.0326812
0.0324535
0.0322268
0.0320009
0.0317757
0.0315511
0.0313269
0.0311029
0.030879
0.030655
0.0304307
0.0302061
0.029981
0.0297553
0.029529
0.029302
0.0290743
0.028846
0.028617
0.0283875
0.0281575
0.0279271
0.0276965
0.0274657
0.0272351
0.0270047
0.0267748
0.0265456
0.0263173
0.0260901
0.0258642
0.0256398
0.0254168
0.0251953
0.0249751
0.0247561
0.0245381
0.0243209
0.0241043
0.0238881
0.0236721
0.0234561
0.0232399
0.0230235
0.0228067
0.0225892
0.022371
0.0221518
0.0219315
0.0217102
0.0214879
0.0212648
0.0210411
0.0208171
0.0205931
0.0203695
0.0201409
0.0199425
0.0196968
0.0195121
0.0192499
0.019073
0.0187946
0.018623
0.0183271
0.0181276
0.0181054
0.0190761
0.0176866
0.017301
0.0170175
0.0168632
0.0165846
0.0164537
0.0161661
0.0160425
0.0157394
0.0156198
0.0153008
0.0151889
0.0148567
0.014755
0.014412
0.0143211
0.0139689
0.013888
0.0135283
0.0134556
0.0130901
0.0130228
0.0126538
0.0125885
0.012219
0.0121519
0.0117863
0.0117135
0.011357
0.0112739
0.0109321
0.0108333
0.010512
0.0103913
0.0100965
0.0099475
0.00968541
0.00950178
0.00927871
0.00905445
0.00887636
0.00860579
0.00847782
0.00815577
0.00808192
0.00770409
0.00768703
0.00725044
0.00729148
0.00679495
0.00689393
0.00633838
0.0064935
0.00588206
0.00608967
0.00542768
0.00568209
0.00497695
0.00527043
0.00453148
0.00485433
0.00409266
0.00443345
0.00366165
0.00400756
0.00323932
0.0035766
0.00282632
0.00314071
0.00242297
0.00270025
0.00202928
0.00225581
0.00164491
0.0018081
0.0012691
0.00135794
0.000900678
0.000906115
0.000538027
0.000453528
0.000178731
)
;

boundaryField
{
    inlet
    {
        type            calculated;
        value           uniform -2922.08;
    }
    backWall
    {
        type            calculated;
        value           uniform 0;
    }
    sides
    {
        type            empty;
        value           nonuniform 0();
    }
}


// ************************************************************************* //
