/*--------------------------------*- C++ -*----------------------------------*\
| =========                 |                                                 |
| \\      /  F ield         | OpenFOAM: The Open Source CFD Toolbox           |
|  \\    /   O peration     | Version:  3.0.x                                 |
|   \\  /    A nd           | Web:      www.OpenFOAM.org                      |
|    \\/     M anipulation  |                                                 |
\*---------------------------------------------------------------------------*/
FoamFile
{
    version     2.0;
    format      ascii;
    class       surfaceScalarField;
    location    "0.04005";
    object      phi;
}
// * * * * * * * * * * * * * * * * * * * * * * * * * * * * * * * * * * * * * //

dimensions      [1 0 -1 0 0 0 0];

internalField   nonuniform List<scalar> 
53800
(
1.97488
0.00102352
1.97419
0.000681074
1.97355
0.000646745
1.97295
0.000596433
1.97243
0.000518753
1.97201
0.000422283
1.97169
0.000320088
1.97146
0.000225481
1.97131
0.000147707
1.97122
9.01967e-05
1.97117
5.15552e-05
1.97114
2.77329e-05
1.97113
1.41672e-05
1.97112
6.98912e-06
1.97112
3.44036e-06
1.97112
1.78955e-06
1.97111
1.06761e-06
1.97111
7.68578e-07
1.97111
6.51005e-07
1.97111
6.07015e-07
1.97111
5.91317e-07
1.97111
5.85958e-07
1.97111
5.84219e-07
1.97111
5.83685e-07
1.97111
5.83535e-07
1.9711
5.83506e-07
1.9711
5.83514e-07
1.9711
5.83528e-07
1.9711
5.83543e-07
1.9711
5.83561e-07
1.9711
5.83579e-07
1.9711
5.83605e-07
1.9711
5.83619e-07
1.9711
5.83641e-07
1.97109
5.83655e-07
1.97109
5.83674e-07
1.97109
5.83696e-07
1.97109
5.83714e-07
1.97109
5.83736e-07
1.97109
5.83754e-07
1.97109
5.83772e-07
1.97109
5.8379e-07
1.97109
5.83812e-07
1.97109
5.8383e-07
1.97108
5.83845e-07
1.97108
5.8387e-07
1.97108
5.83885e-07
1.97108
5.83903e-07
1.97108
5.83925e-07
1.97108
5.83939e-07
1.97108
5.83961e-07
1.97108
5.83976e-07
1.97108
5.84001e-07
1.97107
5.84023e-07
1.97107
5.84041e-07
1.97107
5.84048e-07
1.97107
5.84074e-07
1.97107
5.84088e-07
1.97107
5.84114e-07
1.97107
5.84132e-07
1.97107
5.8415e-07
1.97107
5.84176e-07
1.97107
5.8419e-07
1.97106
5.84212e-07
1.97106
5.84241e-07
1.97106
5.84263e-07
1.97106
5.84296e-07
1.97106
5.84336e-07
1.97106
5.84394e-07
1.97106
5.8447e-07
1.97105
5.84532e-07
1.97105
5.84652e-07
1.97105
5.84936e-07
1.97104
5.8538e-07
1.97104
5.85947e-07
1.97102
5.86799e-07
1.97101
5.88072e-07
1.97098
5.89913e-07
1.97095
5.92543e-07
1.9709
5.96247e-07
1.97083
6.01343e-07
1.97072
6.08245e-07
1.97058
6.17401e-07
1.97038
6.29239e-07
1.97012
6.4421e-07
1.96977
6.62614e-07
1.96932
6.84598e-07
1.96875
7.09952e-07
1.96803
7.38059e-07
1.96715
7.67741e-07
1.96611
7.97139e-07
1.9649
8.23686e-07
1.96352
8.44131e-07
1.96199
8.54641e-07
1.96036
8.51134e-07
1.95868
8.29597e-07
1.957
7.86615e-07
1.95542
7.19938e-07
1.954
6.29021e-07
1.95284
5.15469e-07
1.95201
3.83254e-07
1.95158
2.38819e-07
1.95157
1.19726e-07
1.95196
2.39597e-08
1.95271
-1.61643e-07
1.95385
-2.73838e-07
1.9553
-3.48933e-07
1.95696
-3.8707e-07
1.95874
-3.95903e-07
1.96053
-3.58548e-07
1.96223
-2.89798e-07
1.96377
-2.00704e-07
1.9651
-9.02255e-08
1.96617
2.83435e-08
1.96698
1.4298e-07
1.96754
2.49471e-07
1.96788
3.43774e-07
1.96803
4.19721e-07
1.96805
4.70034e-07
1.96797
4.98094e-07
1.96784
5.38406e-07
1.96767
5.48465e-07
1.96748
5.52958e-07
1.96729
5.50244e-07
1.96712
5.40669e-07
1.96697
5.30392e-07
1.96683
5.20264e-07
1.96672
5.0931e-07
1.96662
4.99138e-07
1.96654
4.91291e-07
1.96647
4.84426e-07
1.96642
4.77579e-07
1.96637
4.72945e-07
1.96633
4.69528e-07
1.9663
4.64952e-07
1.96627
4.62402e-07
1.96625
4.60634e-07
1.96623
4.58218e-07
1.96621
4.56494e-07
1.9662
4.55424e-07
1.96619
4.54169e-07
1.96618
4.52925e-07
1.96617
4.52226e-07
1.96616
4.51622e-07
1.96616
4.50695e-07
1.96615
4.49971e-07
1.96615
4.49811e-07
1.96615
4.48916e-07
1.96614
4.48345e-07
1.96614
4.48279e-07
1.96615
4.4757e-07
1.96615
4.47504e-07
1.96615
4.46867e-07
1.96616
4.46769e-07
1.96616
4.4666e-07
1.96617
4.46606e-07
1.96617
4.46686e-07
1.96618
4.46693e-07
1.96618
4.46867e-07
1.96619
4.47115e-07
1.96619
4.47289e-07
1.9662
4.47511e-07
1.9662
4.47817e-07
1.96621
4.4805e-07
1.96621
4.48319e-07
1.96621
4.48523e-07
1.96621
4.48639e-07
1.96621
4.49145e-07
1.96621
4.49443e-07
1.96621
4.49167e-07
1.96621
4.49869e-07
1.96621
4.49985e-07
1.96621
4.49669e-07
1.96621
4.5e-07
1.9662
4.50011e-07
1.9662
4.49909e-07
1.9662
4.49902e-07
1.96619
4.49887e-07
1.96619
4.49832e-07
1.96618
4.49836e-07
1.96618
4.50011e-07
1.96617
4.50029e-07
1.96616
4.4988e-07
1.96616
4.49701e-07
1.96615
4.49574e-07
1.96615
4.49298e-07
1.96614
4.49316e-07
1.96614
4.50804e-07
1.96613
4.58182e-07
1.96613
4.92826e-07
1.96612
6.64164e-07
1.96612
1.52077e-06
1.96611
5.82048e-06
1.96608
2.72947e-05
1.96594
0.000134609
1.96528
0.000662205
1.96211
0.00316608
1.94724
0.0148643
1.87377
0.0734662
0.256737
1.61704
2.26975
0.000987962
2.26976
0.000668774
2.26978
0.000628667
2.26979
0.000581572
2.26981
0.000505977
2.26982
0.000411842
2.26982
0.000312171
2.26983
0.000219903
2.26983
0.000144054
2.26983
8.79694e-05
2.26983
5.02872e-05
2.26983
2.70555e-05
2.26983
1.38243e-05
2.26983
6.82169e-06
2.26983
3.3586e-06
2.26983
1.74707e-06
2.26982
1.04195e-06
2.26982
7.49737e-07
2.26982
6.34784e-07
2.26982
5.91735e-07
2.26982
5.76361e-07
2.26982
5.71123e-07
2.26982
5.69416e-07
2.26982
5.68889e-07
2.26981
5.68733e-07
2.26981
5.68703e-07
2.26981
5.68714e-07
2.26981
5.68733e-07
2.26981
5.6874e-07
2.26981
5.68769e-07
2.26981
5.68776e-07
2.26981
5.68794e-07
2.2698
5.68816e-07
2.2698
5.68838e-07
2.2698
5.68856e-07
2.2698
5.68874e-07
2.2698
5.68893e-07
2.2698
5.68914e-07
2.2698
5.68936e-07
2.2698
5.68954e-07
2.2698
5.68969e-07
2.26979
5.68984e-07
2.26979
5.69009e-07
2.26979
5.69024e-07
2.26979
5.69042e-07
2.26979
5.69071e-07
2.26979
5.69082e-07
2.26979
5.69093e-07
2.26979
5.69114e-07
2.26978
5.69133e-07
2.26978
5.69155e-07
2.26978
5.69165e-07
2.26978
5.69195e-07
2.26978
5.69202e-07
2.26978
5.6922e-07
2.26978
5.69231e-07
2.26978
5.69249e-07
2.26977
5.69267e-07
2.26977
5.69289e-07
2.26977
5.69311e-07
2.26977
5.69325e-07
2.26977
5.69351e-07
2.26977
5.69373e-07
2.26977
5.69387e-07
2.26977
5.69416e-07
2.26976
5.69435e-07
2.26976
5.69475e-07
2.26976
5.69507e-07
2.26976
5.69562e-07
2.26976
5.69638e-07
2.26976
5.697e-07
2.26975
5.69813e-07
2.26975
5.70097e-07
2.26974
5.70526e-07
2.26973
5.7109e-07
2.26972
5.71927e-07
2.2697
5.7316e-07
2.26968
5.74972e-07
2.26964
5.77547e-07
2.26958
5.81178e-07
2.26949
5.86162e-07
2.26938
5.92921e-07
2.26921
6.01874e-07
2.26899
6.13447e-07
2.26868
6.28079e-07
2.26828
6.4605e-07
2.26777
6.67518e-07
2.26711
6.92246e-07
2.26628
7.19658e-07
2.26528
7.4858e-07
2.26408
7.77192e-07
2.26268
8.02975e-07
2.2611
8.22769e-07
2.25935
8.3285e-07
2.25748
8.29223e-07
2.25554
8.07988e-07
2.25362
7.65842e-07
2.2518
7.00609e-07
2.25017
6.11799e-07
2.24884
5.01001e-07
2.24789
3.72147e-07
2.24739
2.31619e-07
2.24738
1.15488e-07
2.24782
2.36832e-08
2.24869
-1.57434e-07
2.24999
-2.65962e-07
2.25165
-3.38627e-07
2.25356
-3.75359e-07
2.2556
-3.83377e-07
2.25766
-3.46798e-07
2.25962
-2.79619e-07
2.26139
-1.92736e-07
2.2629
-8.52415e-08
2.26413
3.00643e-08
2.26506
1.41408e-07
2.2657
2.44756e-07
2.26609
3.362e-07
2.26627
4.09786e-07
2.26629
4.58516e-07
2.2662
4.85277e-07
2.26605
5.2456e-07
2.26585
5.34139e-07
2.26564
5.3837e-07
2.26542
5.35751e-07
2.26523
5.26426e-07
2.26505
5.16415e-07
2.26489
5.06618e-07
2.26476
4.96009e-07
2.26465
4.86129e-07
2.26456
4.78529e-07
2.26448
4.71915e-07
2.26442
4.65254e-07
2.26437
4.60765e-07
2.26432
4.57498e-07
2.26428
4.53059e-07
2.26425
4.50535e-07
2.26423
4.48879e-07
2.2642
4.46551e-07
2.26418
4.44834e-07
2.26417
4.43826e-07
2.26415
4.42622e-07
2.26414
4.41385e-07
2.26413
4.40719e-07
2.26412
4.40155e-07
2.26412
4.39242e-07
2.26411
4.38522e-07
2.26411
4.38416e-07
2.2641
4.37532e-07
2.2641
4.36958e-07
2.2641
4.3691e-07
2.2641
4.36234e-07
2.26411
4.36135e-07
2.26411
4.35542e-07
2.26412
4.35455e-07
2.26412
4.35328e-07
2.26413
4.35291e-07
2.26413
4.35375e-07
2.26414
4.35375e-07
2.26415
4.35524e-07
2.26415
4.35775e-07
2.26416
4.35943e-07
2.26416
4.3615e-07
2.26417
4.36474e-07
2.26417
4.36692e-07
2.26417
4.36929e-07
2.26418
4.37132e-07
2.26418
4.3726e-07
2.26418
4.37736e-07
2.26418
4.38038e-07
2.26418
4.3778e-07
2.26418
4.38442e-07
2.26417
4.38555e-07
2.26417
4.38275e-07
2.26417
4.38584e-07
2.26417
4.38573e-07
2.26416
4.38493e-07
2.26416
4.38486e-07
2.26415
4.38442e-07
2.26415
4.38395e-07
2.26414
4.38416e-07
2.26413
4.38584e-07
2.26413
4.38577e-07
2.26412
4.3846e-07
2.26411
4.38285e-07
2.2641
4.38144e-07
2.2641
4.37907e-07
2.26409
4.38267e-07
2.26409
4.41283e-07
2.26408
4.56446e-07
2.26408
5.3013e-07
2.26407
8.97926e-07
2.26406
2.73993e-06
2.26405
1.19798e-05
2.26402
5.81979e-05
2.26386
0.000289085
2.26309
0.0014244
2.25944
0.00681784
2.2423
0.032002
2.15822
0.157539
0.541313
1.87365
2.60726
0.000947163
2.60728
0.00065306
2.6073
0.000607134
2.60731
0.000563519
2.60733
0.000490622
2.60734
0.000399519
2.60735
0.000303052
2.60735
0.000213659
2.60735
0.000140094
2.60735
8.56346e-05
2.60735
4.90026e-05
2.60735
2.63922e-05
2.60735
1.34985e-05
2.60735
6.66621e-06
2.60735
3.28278e-06
2.60735
1.70621e-06
2.60735
1.01539e-06
2.60735
7.28684e-07
2.60734
6.15713e-07
2.60734
5.73345e-07
2.60734
5.58179e-07
2.60734
5.53009e-07
2.60734
5.51317e-07
2.60734
5.50801e-07
2.60734
5.50652e-07
2.60733
5.50615e-07
2.60733
5.50623e-07
2.60733
5.50648e-07
2.60733
5.50644e-07
2.60733
5.50674e-07
2.60733
5.50684e-07
2.60733
5.50699e-07
2.60732
5.50725e-07
2.60732
5.50739e-07
2.60732
5.50765e-07
2.60732
5.50783e-07
2.60732
5.50794e-07
2.60732
5.50808e-07
2.60732
5.50841e-07
2.60731
5.50855e-07
2.60731
5.50874e-07
2.60731
5.50888e-07
2.60731
5.50917e-07
2.60731
5.50925e-07
2.60731
5.50946e-07
2.60731
5.50972e-07
2.6073
5.50983e-07
2.6073
5.51001e-07
2.6073
5.51016e-07
2.6073
5.51034e-07
2.6073
5.51052e-07
2.6073
5.51063e-07
2.6073
5.51092e-07
2.6073
5.51099e-07
2.60729
5.51106e-07
2.60729
5.51121e-07
2.60729
5.51136e-07
2.60729
5.51154e-07
2.60729
5.51179e-07
2.60729
5.51201e-07
2.60729
5.51216e-07
2.60728
5.51234e-07
2.60728
5.51245e-07
2.60728
5.51274e-07
2.60728
5.51299e-07
2.60728
5.51314e-07
2.60728
5.51347e-07
2.60727
5.51379e-07
2.60727
5.51441e-07
2.60727
5.51514e-07
2.60727
5.51576e-07
2.60726
5.51685e-07
2.60726
5.51954e-07
2.60725
5.5238e-07
2.60724
5.52929e-07
2.60723
5.5374e-07
2.60721
5.54941e-07
2.60718
5.56709e-07
2.60713
5.59216e-07
2.60706
5.62748e-07
2.60697
5.67583e-07
2.60683
5.74168e-07
2.60664
5.82862e-07
2.60638
5.94115e-07
2.60604
6.08325e-07
2.60558
6.25765e-07
2.60498
6.46596e-07
2.60422
6.7057e-07
2.60328
6.97139e-07
2.60212
7.25136e-07
2.60075
7.52814e-07
2.59914
7.77716e-07
2.59732
7.96765e-07
2.59531
8.06365e-07
2.59316
8.02647e-07
2.59094
7.81845e-07
2.58873
7.40765e-07
2.58664
6.77352e-07
2.58477
5.91121e-07
2.58324
4.83647e-07
2.58215
3.5877e-07
2.58157
2.22852e-07
2.58156
1.10198e-07
2.58207
2.26792e-08
2.58307
-1.53119e-07
2.58457
-2.575e-07
2.58647
-3.27454e-07
2.58867
-3.62674e-07
2.59101
-3.69851e-07
2.59337
-3.34265e-07
2.59562
-2.68999e-07
2.59765
-1.84722e-07
2.5994
-8.06976e-08
2.60081
3.08683e-08
2.60188
1.38381e-07
2.60261
2.38164e-07
2.60306
3.26345e-07
2.60327
3.97278e-07
2.60329
4.44248e-07
2.60319
4.69627e-07
2.60301
5.07724e-07
2.60279
5.16811e-07
2.60254
5.20784e-07
2.60229
5.18226e-07
2.60206
5.0923e-07
2.60186
4.99527e-07
2.60168
4.9009e-07
2.60153
4.79871e-07
2.60141
4.70336e-07
2.6013
4.63013e-07
2.60121
4.56675e-07
2.60114
4.50233e-07
2.60108
4.45882e-07
2.60103
4.42786e-07
2.60098
4.38489e-07
2.60095
4.36034e-07
2.60092
4.34484e-07
2.60089
4.32236e-07
2.60087
4.30555e-07
2.60085
4.29609e-07
2.60083
4.28459e-07
2.60082
4.27244e-07
2.60081
4.26615e-07
2.6008
4.26087e-07
2.60079
4.25189e-07
2.60078
4.24494e-07
2.60078
4.24432e-07
2.60078
4.23566e-07
2.60077
4.22981e-07
2.60077
4.22962e-07
2.60078
4.22315e-07
2.60078
4.22187e-07
2.60078
4.21642e-07
2.60079
4.21565e-07
2.6008
4.21427e-07
2.6008
4.21387e-07
2.60081
4.21496e-07
2.60082
4.21489e-07
2.60082
4.2162e-07
2.60083
4.21885e-07
2.60084
4.22035e-07
2.60084
4.22231e-07
2.60085
4.22562e-07
2.60085
4.22773e-07
2.60086
4.22984e-07
2.60086
4.23184e-07
2.60086
4.23333e-07
2.60086
4.23766e-07
2.60086
4.24072e-07
2.60086
4.23821e-07
2.60086
4.2445e-07
2.60086
4.2457e-07
2.60085
4.24327e-07
2.60085
4.24603e-07
2.60085
4.24574e-07
2.60084
4.24512e-07
2.60084
4.24523e-07
2.60083
4.2445e-07
2.60082
4.2441e-07
2.60082
4.2445e-07
2.60081
4.24596e-07
2.6008
4.24578e-07
2.60079
4.24472e-07
2.60078
4.24312e-07
2.60078
4.24174e-07
2.60077
4.23996e-07
2.60076
4.24727e-07
2.60076
4.29485e-07
2.60075
4.53521e-07
2.60074
5.71679e-07
2.60074
1.16325e-06
2.60073
4.1275e-06
2.60072
1.89941e-05
2.60068
9.33945e-05
2.6005
0.000465044
2.59962
0.00229307
2.59545
0.0109857
2.5759
0.0515501
2.47989
0.25355
0.859774
2.16143
2.99496
0.000901476
2.99497
0.000634237
2.995
0.000582672
2.99502
0.000542699
2.99503
0.000472904
2.99504
0.000385273
2.99505
0.000292477
2.99506
0.000206394
2.99506
0.000135467
2.99506
8.28923e-05
2.99506
4.74853e-05
2.99506
2.56038e-05
2.99506
1.31088e-05
2.99506
6.47913e-06
2.99506
3.19137e-06
2.99506
1.65722e-06
2.99505
9.83957e-07
2.99505
7.04102e-07
2.99505
5.93649e-07
2.99505
5.52158e-07
2.99505
5.37279e-07
2.99505
5.32204e-07
2.99505
5.30534e-07
2.99504
5.30017e-07
2.99504
5.29875e-07
2.99504
5.29839e-07
2.99504
5.29846e-07
2.99504
5.29864e-07
2.99504
5.29868e-07
2.99503
5.2989e-07
2.99503
5.29908e-07
2.99503
5.29919e-07
2.99503
5.29944e-07
2.99503
5.29952e-07
2.99503
5.2997e-07
2.99502
5.29988e-07
2.99502
5.3001e-07
2.99502
5.30032e-07
2.99502
5.30054e-07
2.99502
5.30068e-07
2.99502
5.30083e-07
2.99501
5.30104e-07
2.99501
5.3013e-07
2.99501
5.30144e-07
2.99501
5.30159e-07
2.99501
5.30184e-07
2.99501
5.30188e-07
2.99501
5.30214e-07
2.995
5.30224e-07
2.995
5.30232e-07
2.995
5.30257e-07
2.995
5.30261e-07
2.995
5.30294e-07
2.995
5.30301e-07
2.99499
5.3029e-07
2.99499
5.30323e-07
2.99499
5.30337e-07
2.99499
5.30348e-07
2.99499
5.3037e-07
2.99499
5.30392e-07
2.99498
5.30414e-07
2.99498
5.30425e-07
2.99498
5.30435e-07
2.99498
5.30457e-07
2.99498
5.30479e-07
2.99498
5.30494e-07
2.99497
5.30537e-07
2.99497
5.30566e-07
2.99497
5.30625e-07
2.99497
5.3069e-07
2.99496
5.30752e-07
2.99496
5.30861e-07
2.99496
5.31123e-07
2.99495
5.31538e-07
2.99494
5.32069e-07
2.99492
5.32847e-07
2.9949
5.34008e-07
2.99486
5.35711e-07
2.99481
5.38141e-07
2.99473
5.4156e-07
2.99462
5.46221e-07
2.99446
5.52587e-07
2.99425
5.60984e-07
2.99395
5.71836e-07
2.99355
5.85555e-07
2.99302
6.02377e-07
2.99234
6.22462e-07
2.99147
6.45556e-07
2.99038
6.71149e-07
2.98905
6.98084e-07
2.98747
7.24693e-07
2.98563
7.48609e-07
2.98354
7.66835e-07
2.98123
7.75934e-07
2.97876
7.72186e-07
2.97621
7.51948e-07
2.97367
7.12196e-07
2.97127
6.50933e-07
2.96912
5.67747e-07
2.96736
4.64159e-07
2.96611
3.43902e-07
2.96545
2.13233e-07
2.96543
1.04577e-07
2.96602
2.16714e-08
2.96716
-1.47989e-07
2.96889
-2.47779e-07
2.97108
-3.14751e-07
2.9736
-3.48355e-07
2.97629
-3.54725e-07
2.979
-3.20339e-07
2.98158
-2.57347e-07
2.98392
-1.76107e-07
2.98592
-7.60374e-08
2.98754
3.11848e-08
2.98877
1.34452e-07
2.98962
2.30219e-07
2.99013
3.14765e-07
2.99037
3.82741e-07
2.99039
4.27772e-07
2.99028
4.51702e-07
2.99008
4.88442e-07
2.98982
4.97017e-07
2.98953
5.00717e-07
2.98925
4.98258e-07
2.98899
4.89625e-07
2.98875
4.80268e-07
2.98855
4.71224e-07
2.98838
4.61452e-07
2.98823
4.52303e-07
2.98811
4.45263e-07
2.98801
4.39224e-07
2.98792
4.33047e-07
2.98785
4.2887e-07
2.98779
4.25931e-07
2.98775
4.21824e-07
2.9877
4.19419e-07
2.98767
4.17975e-07
2.98764
4.15832e-07
2.98761
4.14188e-07
2.98759
4.13307e-07
2.98757
4.12219e-07
2.98756
4.1103e-07
2.98754
4.10433e-07
2.98753
4.09949e-07
2.98752
4.0908e-07
2.98751
4.08392e-07
2.98751
4.08367e-07
2.98751
4.07541e-07
2.9875
4.06959e-07
2.98751
4.06952e-07
2.98751
4.06348e-07
2.98751
4.06195e-07
2.98752
4.05675e-07
2.98752
4.05631e-07
2.98753
4.05478e-07
2.98754
4.05449e-07
2.98755
4.05555e-07
2.98755
4.05536e-07
2.98756
4.05653e-07
2.98757
4.05937e-07
2.98758
4.06078e-07
2.98758
4.06246e-07
2.98759
4.06591e-07
2.9876
4.06795e-07
2.9876
4.06966e-07
2.9876
4.07181e-07
2.98761
4.07326e-07
2.98761
4.07734e-07
2.98761
4.08036e-07
2.98761
4.07796e-07
2.9876
4.08389e-07
2.9876
4.08505e-07
2.9876
4.08301e-07
2.98759
4.08556e-07
2.98759
4.08523e-07
2.98758
4.08472e-07
2.98758
4.08487e-07
2.98757
4.08392e-07
2.98756
4.08352e-07
2.98755
4.08407e-07
2.98754
4.08527e-07
2.98753
4.08512e-07
2.98753
4.08414e-07
2.98752
4.08283e-07
2.98751
4.08145e-07
2.9875
4.08043e-07
2.98749
4.092e-07
2.98749
4.15937e-07
2.98748
4.50116e-07
2.98747
6.19046e-07
2.98746
1.46601e-06
2.98745
5.7112e-06
2.98744
2.70003e-05
2.98739
0.000133569
2.98719
0.0006659
2.98619
0.00328507
2.98142
0.0157506
2.95909
0.0738797
2.84997
0.362671
1.21404
2.4957
3.4403
0.000850533
3.44032
0.00061164
3.44035
0.000554878
3.44037
0.000518672
3.44039
0.000452433
3.4404
0.00036878
3.44041
0.000280199
3.44042
0.000197931
3.44042
0.000130057
3.44042
7.96738e-05
3.44042
4.5697e-05
3.44042
2.46704e-05
3.44042
1.26455e-05
3.44042
6.25598e-06
3.44042
3.08229e-06
3.44042
1.59905e-06
3.44041
9.4702e-07
3.44041
6.75513e-07
3.44041
5.68167e-07
3.44041
5.27765e-07
3.44041
5.13248e-07
3.44041
5.08289e-07
3.4404
5.06654e-07
3.4404
5.06147e-07
3.4404
5.06003e-07
3.4404
5.05966e-07
3.4404
5.05974e-07
3.44039
5.05988e-07
3.44039
5.06001e-07
3.44039
5.06021e-07
3.44039
5.0603e-07
3.44039
5.06041e-07
3.44038
5.06061e-07
3.44038
5.06074e-07
3.44038
5.06097e-07
3.44038
5.0611e-07
3.44038
5.06132e-07
3.44038
5.06154e-07
3.44037
5.06172e-07
3.44037
5.06185e-07
3.44037
5.06203e-07
3.44037
5.06221e-07
3.44037
5.06241e-07
3.44036
5.06256e-07
3.44036
5.06267e-07
3.44036
5.0629e-07
3.44036
5.06307e-07
3.44036
5.06328e-07
3.44036
5.0633e-07
3.44035
5.06343e-07
3.44035
5.0637e-07
3.44035
5.06368e-07
3.44035
5.06399e-07
3.44035
5.06407e-07
3.44034
5.06398e-07
3.44034
5.06425e-07
3.44034
5.06438e-07
3.44034
5.06445e-07
3.44034
5.06472e-07
3.44034
5.06494e-07
3.44033
5.06509e-07
3.44033
5.06523e-07
3.44033
5.06534e-07
3.44033
5.06556e-07
3.44033
5.06572e-07
3.44032
5.06585e-07
3.44032
5.06625e-07
3.44032
5.06659e-07
3.44032
5.06716e-07
3.44031
5.06783e-07
3.44031
5.06838e-07
3.44031
5.06938e-07
3.4403
5.07192e-07
3.44029
5.07584e-07
3.44028
5.08095e-07
3.44026
5.08846e-07
3.44023
5.09965e-07
3.44019
5.11594e-07
3.44013
5.13917e-07
3.44004
5.17204e-07
3.43991
5.21672e-07
3.43973
5.27769e-07
3.43949
5.35816e-07
3.43915
5.46204e-07
3.43869
5.59337e-07
3.43808
5.75435e-07
3.43729
5.94651e-07
3.43629
6.16736e-07
3.43505
6.41188e-07
3.43352
6.66914e-07
3.43171
6.92298e-07
3.42959
7.15094e-07
3.42719
7.32412e-07
3.42454
7.40982e-07
3.4217
7.37244e-07
3.41877
7.17733e-07
3.41585
6.79576e-07
3.41309
6.20857e-07
3.41063
5.41233e-07
3.40861
4.4216e-07
3.40717
3.27245e-07
3.4064
2.02597e-07
3.40639
9.85328e-08
3.40706
2.06055e-08
3.40838
-1.41867e-07
3.41036
-2.36623e-07
3.41287
-3.00264e-07
3.41577
-3.32111e-07
3.41886
-3.3769e-07
3.42197
-3.04766e-07
3.42494
-2.44456e-07
3.42762
-1.66719e-07
3.42993
-7.11952e-08
3.43179
3.10611e-08
3.4332
1.29523e-07
3.43417
2.20771e-07
3.43476
3.01214e-07
3.43503
3.65886e-07
3.43506
4.08767e-07
3.43493
4.31166e-07
3.4347
4.66327e-07
3.4344
4.74383e-07
3.43407
4.77796e-07
3.43375
4.75442e-07
3.43344
4.67229e-07
3.43318
4.58285e-07
3.43294
4.49671e-07
3.43274
4.40388e-07
3.43258
4.31675e-07
3.43244
4.24958e-07
3.43232
4.19252e-07
3.43222
4.13367e-07
3.43214
4.09378e-07
3.43207
4.06611e-07
3.43202
4.02713e-07
3.43197
4.00383e-07
3.43193
3.99041e-07
3.4319
3.97016e-07
3.43187
3.95428e-07
3.43184
3.94602e-07
3.43182
3.93577e-07
3.4318
3.92445e-07
3.43179
3.91867e-07
3.43177
3.91428e-07
3.43176
3.90597e-07
3.43175
3.8992e-07
3.43175
3.89931e-07
3.43174
3.89142e-07
3.43174
3.88563e-07
3.43174
3.88574e-07
3.43174
3.88016e-07
3.43175
3.87834e-07
3.43175
3.87356e-07
3.43176
3.87323e-07
3.43177
3.87174e-07
3.43178
3.8715e-07
3.43179
3.87252e-07
3.4318
3.87239e-07
3.43181
3.87334e-07
3.43182
3.87625e-07
3.43183
3.87758e-07
3.43183
3.87907e-07
3.43184
3.88254e-07
3.43185
3.88454e-07
3.43185
3.88593e-07
3.43186
3.88805e-07
3.43186
3.88958e-07
3.43186
3.89322e-07
3.43186
3.89628e-07
3.43186
3.89406e-07
3.43185
3.89951e-07
3.43185
3.90062e-07
3.43185
3.899e-07
3.43184
3.90128e-07
3.43184
3.90082e-07
3.43183
3.90044e-07
3.43182
3.90068e-07
3.43182
3.89955e-07
3.43181
3.89919e-07
3.4318
3.8999e-07
3.43179
3.90093e-07
3.43178
3.90066e-07
3.43177
3.8999e-07
3.43175
3.89869e-07
3.43175
3.89742e-07
3.43174
3.89722e-07
3.43173
3.91368e-07
3.43172
4.0037e-07
3.43171
4.46073e-07
3.4317
6.72713e-07
3.43169
1.80997e-06
3.43168
7.51117e-06
3.43167
3.61006e-05
3.43161
0.000179236
3.43138
0.000894216
3.43025
0.00441325
3.42482
0.0211755
3.39941
0.0992813
3.27616
0.48592
1.60658
2.88362
3.95186
0.000793881
3.95189
0.000584502
3.95192
0.000523307
3.95194
0.000490962
3.95197
0.00042878
3.95198
0.00034969
3.952
0.000265943
3.952
0.000188068
3.95201
0.000123723
3.95201
7.58871e-05
3.95201
4.35812e-05
3.95201
2.35592e-05
3.95201
1.20907e-05
3.952
5.98729e-06
3.952
2.95072e-06
3.952
1.52922e-06
3.952
9.0322e-07
3.952
6.42092e-07
3.95199
5.38656e-07
3.95199
4.99655e-07
3.95199
4.8561e-07
3.95199
4.80799e-07
3.95199
4.79218e-07
3.95198
4.78721e-07
3.95198
4.78582e-07
3.95198
4.78542e-07
3.95198
4.78548e-07
3.95198
4.78566e-07
3.95197
4.78576e-07
3.95197
4.78592e-07
3.95197
4.78604e-07
3.95197
4.78618e-07
3.95196
4.78633e-07
3.95196
4.78647e-07
3.95196
4.78668e-07
3.95196
4.78679e-07
3.95196
4.78701e-07
3.95195
4.78723e-07
3.95195
4.78742e-07
3.95195
4.7875e-07
3.95195
4.78768e-07
3.95195
4.78783e-07
3.95194
4.78809e-07
3.95194
4.78818e-07
3.95194
4.78828e-07
3.95194
4.7885e-07
3.95194
4.78864e-07
3.95193
4.78886e-07
3.95193
4.78888e-07
3.95193
4.78902e-07
3.95193
4.78924e-07
3.95192
4.7893e-07
3.95192
4.78952e-07
3.95192
4.7896e-07
3.95192
4.78946e-07
3.95192
4.78975e-07
3.95191
4.78986e-07
3.95191
4.78997e-07
3.95191
4.7902e-07
3.95191
4.79043e-07
3.95191
4.79056e-07
3.9519
4.7907e-07
3.9519
4.7908e-07
3.9519
4.79097e-07
3.9519
4.79115e-07
3.95189
4.79132e-07
3.95189
4.79162e-07
3.95189
4.792e-07
3.95189
4.79251e-07
3.95188
4.79314e-07
3.95188
4.79368e-07
3.95187
4.79459e-07
3.95187
4.79701e-07
3.95186
4.80077e-07
3.95184
4.80559e-07
3.95182
4.8127e-07
3.95179
4.82333e-07
3.95174
4.8388e-07
3.95167
4.86087e-07
3.95157
4.89197e-07
3.95142
4.93435e-07
3.95122
4.99215e-07
3.95093
5.06841e-07
3.95054
5.16687e-07
3.95001
5.29122e-07
3.94932
5.44366e-07
3.94841
5.62565e-07
3.94726
5.83469e-07
3.94583
6.06608e-07
3.94408
6.30939e-07
3.94199
6.54934e-07
3.93956
6.76459e-07
3.93681
6.92791e-07
3.93376
7.00827e-07
3.9305
6.97189e-07
3.92713
6.78624e-07
3.92378
6.4241e-07
3.92061
5.86744e-07
3.91778
5.11321e-07
3.91546
4.1753e-07
3.9138
3.08799e-07
3.91293
1.91038e-07
3.91291
9.22355e-08
3.91368
1.95778e-08
3.9152
-1.34611e-07
3.91747
-2.23786e-07
3.92036
-2.8379e-07
3.92369
-3.13818e-07
3.92724
-3.18681e-07
3.93081
-2.87545e-07
3.93422
-2.30431e-07
3.93731
-1.56774e-07
3.93995
-6.64559e-08
3.94209
3.02371e-08
3.94371
1.23197e-07
3.94483
2.09381e-07
3.9455
2.85273e-07
3.94582
3.46272e-07
3.94585
3.86824e-07
3.9457
4.07647e-07
3.94543
4.40991e-07
3.94508
4.48544e-07
3.94471
4.51677e-07
3.94434
4.49433e-07
3.94399
4.41711e-07
3.94368
4.33231e-07
3.94342
4.25084e-07
3.94319
4.16348e-07
3.94299
4.08135e-07
3.94283
4.01772e-07
3.9427
3.9642e-07
3.94259
3.90865e-07
3.9425
3.87082e-07
3.94242
3.84481e-07
3.94235
3.80831e-07
3.9423
3.78602e-07
3.94225
3.77346e-07
3.94221
3.75458e-07
3.94218
3.73936e-07
3.94215
3.73162e-07
3.94213
3.72207e-07
3.9421
3.71138e-07
3.94209
3.70581e-07
3.94207
3.7018e-07
3.94206
3.694e-07
3.94205
3.68743e-07
3.94204
3.68765e-07
3.94204
3.68036e-07
3.94204
3.6747e-07
3.94204
3.6748e-07
3.94204
3.66975e-07
3.94204
3.66775e-07
3.94205
3.66338e-07
3.94206
3.66314e-07
3.94207
3.66164e-07
3.94208
3.66139e-07
3.94209
3.6625e-07
3.9421
3.66239e-07
3.94211
3.66315e-07
3.94212
3.66598e-07
3.94213
3.6673e-07
3.94214
3.66858e-07
3.94215
3.67198e-07
3.94216
3.6739e-07
3.94216
3.67506e-07
3.94217
3.67719e-07
3.94217
3.67866e-07
3.94217
3.682e-07
3.94217
3.68497e-07
3.94217
3.68293e-07
3.94217
3.68791e-07
3.94216
3.68899e-07
3.94216
3.68763e-07
3.94215
3.68969e-07
3.94215
3.68925e-07
3.94214
3.68885e-07
3.94213
3.68915e-07
3.94212
3.68805e-07
3.94211
3.68765e-07
3.9421
3.68838e-07
3.94209
3.68934e-07
3.94208
3.68906e-07
3.94206
3.68836e-07
3.94205
3.68728e-07
3.94204
3.68629e-07
3.94203
3.68706e-07
3.94202
3.70901e-07
3.94201
3.8246e-07
3.942
4.41194e-07
3.94199
7.33049e-07
3.94198
2.19832e-06
3.94197
9.54469e-06
3.94195
4.63834e-05
3.94189
0.000230839
3.94163
0.0011522
3.94035
0.00568885
3.9342
0.0273153
3.90547
0.128004
3.76728
0.624115
2.03939
3.33447
17.24
0.000568292
17.2402
0.000452899
17.2403
0.000389458
17.2404
0.000368921
17.2405
0.000323902
17.2406
0.000264621
17.2406
0.000201883
17.2407
0.000143319
17.2407
9.46853e-05
17.2407
5.83325e-05
17.2407
3.36561e-05
17.2407
1.8282e-05
17.2407
9.42494e-06
17.2407
4.68469e-06
17.2407
2.31188e-06
17.2406
1.19426e-06
17.2406
6.98792e-07
17.2406
4.90715e-07
17.2406
4.07708e-07
17.2406
3.7618e-07
17.2406
3.64739e-07
17.2406
3.60787e-07
17.2406
3.59477e-07
17.2406
3.59058e-07
17.2406
3.58939e-07
17.2406
3.5891e-07
17.2405
3.58912e-07
17.2405
3.58921e-07
17.2405
3.58932e-07
17.2405
3.58944e-07
17.2405
3.58953e-07
17.2405
3.58964e-07
17.2405
3.58976e-07
17.2405
3.58988e-07
17.2405
3.59001e-07
17.2405
3.59008e-07
17.2405
3.59025e-07
17.2404
3.59041e-07
17.2404
3.59056e-07
17.2404
3.5906e-07
17.2404
3.59075e-07
17.2404
3.59085e-07
17.2404
3.59108e-07
17.2404
3.59113e-07
17.2404
3.59119e-07
17.2404
3.59139e-07
17.2404
3.59148e-07
17.2404
3.59164e-07
17.2403
3.59168e-07
17.2403
3.59174e-07
17.2403
3.5919e-07
17.2403
3.59198e-07
17.2403
3.59213e-07
17.2403
3.59215e-07
17.2403
3.5921e-07
17.2403
3.59229e-07
17.2403
3.59239e-07
17.2403
3.59249e-07
17.2403
3.59268e-07
17.2402
3.59283e-07
17.2402
3.5929e-07
17.2402
3.59304e-07
17.2402
3.59307e-07
17.2402
3.59322e-07
17.2402
3.59334e-07
17.2402
3.59347e-07
17.2402
3.59369e-07
17.2402
3.59397e-07
17.2402
3.59439e-07
17.2401
3.59481e-07
17.2401
3.59525e-07
17.2401
3.59591e-07
17.2401
3.59773e-07
17.24
3.60056e-07
17.24
3.60417e-07
17.2399
3.60953e-07
17.2397
3.6175e-07
17.2395
3.62911e-07
17.2392
3.64564e-07
17.2388
3.66896e-07
17.2381
3.70077e-07
17.2372
3.74413e-07
17.236
3.80136e-07
17.2343
3.8752e-07
17.232
3.96843e-07
17.2289
4.08274e-07
17.225
4.21922e-07
17.22
4.37602e-07
17.2137
4.54953e-07
17.2061
4.732e-07
17.197
4.91194e-07
17.1864
5.07331e-07
17.1744
5.19579e-07
17.1611
5.25596e-07
17.1469
5.22861e-07
17.1322
5.08932e-07
17.1176
4.81768e-07
17.1037
4.40015e-07
17.0914
3.83446e-07
17.0812
3.13105e-07
17.074
2.31581e-07
17.0702
1.43576e-07
17.0701
6.83349e-08
17.0735
1.53818e-08
17.0801
-1.01069e-07
17.09
-1.6792e-07
17.1026
-2.12796e-07
17.1171
-2.35488e-07
17.1326
-2.38565e-07
17.1482
-2.15696e-07
17.1631
-1.72902e-07
17.1765
-1.17383e-07
17.1881
-4.96102e-08
17.1974
2.2133e-08
17.2045
9.24774e-08
17.2094
1.57221e-07
17.2123
2.13879e-07
17.2137
2.59591e-07
17.2138
2.90368e-07
17.2131
3.05547e-07
17.212
3.30746e-07
17.2105
3.36514e-07
17.2088
3.3873e-07
17.2072
3.36983e-07
17.2057
3.31301e-07
17.2044
3.24948e-07
17.2032
3.18751e-07
17.2022
3.12257e-07
17.2014
3.06146e-07
17.2007
3.01276e-07
17.2001
2.97283e-07
17.1996
2.932e-07
17.1992
2.90283e-07
17.1988
2.88288e-07
17.1986
2.85679e-07
17.1983
2.83942e-07
17.1981
2.82956e-07
17.1979
2.81613e-07
17.1978
2.8046e-07
17.1977
2.7984e-07
17.1976
2.79159e-07
17.1975
2.78372e-07
17.1974
2.77908e-07
17.1973
2.7762e-07
17.1973
2.77086e-07
17.1972
2.76539e-07
17.1972
2.76541e-07
17.1972
2.76048e-07
17.1972
2.75596e-07
17.1972
2.75572e-07
17.1972
2.75263e-07
17.1972
2.75073e-07
17.1972
2.7475e-07
17.1973
2.74743e-07
17.1973
2.74629e-07
17.1974
2.7459e-07
17.1974
2.74678e-07
17.1975
2.74688e-07
17.1975
2.74725e-07
17.1976
2.74941e-07
17.1976
2.75061e-07
17.1976
2.75141e-07
17.1977
2.75387e-07
17.1977
2.75551e-07
17.1977
2.75627e-07
17.1977
2.75776e-07
17.1978
2.75902e-07
17.1978
2.76149e-07
17.1978
2.76369e-07
17.1978
2.76234e-07
17.1977
2.7658e-07
17.1977
2.76659e-07
17.1977
2.76593e-07
17.1977
2.76727e-07
17.1977
2.76687e-07
17.1976
2.76649e-07
17.1976
2.76693e-07
17.1976
2.76603e-07
17.1975
2.7657e-07
17.1975
2.76628e-07
17.1974
2.76703e-07
17.1974
2.76678e-07
17.1973
2.76623e-07
17.1972
2.7657e-07
17.1972
2.76621e-07
17.1972
2.7716e-07
17.1971
2.81602e-07
17.1971
3.03607e-07
17.197
4.15691e-07
17.197
9.74635e-07
17.1969
3.7832e-06
17.1969
1.78666e-05
17.1968
8.84909e-05
17.1966
0.00044217
17.1955
0.00220819
17.1902
0.0109126
17.1652
0.0523614
17.0483
0.244863
16.5347
1.13764
3.7285
14.8456
17.24
0.000366589
17.2401
0.000308047
17.2403
0.000258663
17.2404
0.000246088
17.2405
0.000217023
17.2406
0.000177516
17.2406
0.000135721
17.2407
9.66114e-05
17.2407
6.40153e-05
17.2407
3.95548e-05
17.2407
2.28926e-05
17.2407
1.24744e-05
17.2407
6.44949e-06
17.2407
3.21308e-06
17.2407
1.58677e-06
17.2406
8.17838e-07
17.2406
4.75582e-07
17.2406
3.31275e-07
17.2406
2.73472e-07
17.2406
2.51428e-07
17.2406
2.43393e-07
17.2406
2.40607e-07
17.2406
2.39679e-07
17.2406
2.39379e-07
17.2406
2.39295e-07
17.2406
2.39275e-07
17.2405
2.39274e-07
17.2405
2.3928e-07
17.2405
2.39287e-07
17.2405
2.39296e-07
17.2405
2.39303e-07
17.2405
2.3931e-07
17.2405
2.3932e-07
17.2405
2.39327e-07
17.2405
2.39335e-07
17.2405
2.39338e-07
17.2405
2.3935e-07
17.2404
2.3936e-07
17.2404
2.39371e-07
17.2404
2.39372e-07
17.2404
2.39383e-07
17.2404
2.3939e-07
17.2404
2.39407e-07
17.2404
2.39409e-07
17.2404
2.39413e-07
17.2404
2.39426e-07
17.2404
2.39433e-07
17.2404
2.39444e-07
17.2403
2.39447e-07
17.2403
2.3945e-07
17.2403
2.3946e-07
17.2403
2.39464e-07
17.2403
2.39475e-07
17.2403
2.39475e-07
17.2403
2.39473e-07
17.2403
2.39484e-07
17.2403
2.39493e-07
17.2403
2.395e-07
17.2403
2.39515e-07
17.2402
2.39523e-07
17.2402
2.39527e-07
17.2402
2.39536e-07
17.2402
2.39536e-07
17.2402
2.39548e-07
17.2402
2.39555e-07
17.2402
2.39562e-07
17.2402
2.39576e-07
17.2402
2.39597e-07
17.2402
2.39625e-07
17.2401
2.39651e-07
17.2401
2.39683e-07
17.2401
2.39727e-07
17.2401
2.39847e-07
17.24
2.40037e-07