/*--------------------------------*- C++ -*----------------------------------*\
| =========                 |                                                 |
| \\      /  F ield         | OpenFOAM: The Open Source CFD Toolbox           |
|  \\    /   O peration     | Version:  3.0.x                                 |
|   \\  /    A nd           | Web:      www.OpenFOAM.org                      |
|    \\/     M anipulation  |                                                 |
\*---------------------------------------------------------------------------*/
FoamFile
{
    version     2.0;
    format      ascii;
    class       volVectorField;
    location    "0.04005";
    object      U;
}
// * * * * * * * * * * * * * * * * * * * * * * * * * * * * * * * * * * * * * //

dimensions      [0 1 -1 0 0 0 0];

internalField   nonuniform List<vector> 
27600
(
(42.685 0.000287388 0)
(42.6703 0.000236781 0)
(42.656 0.000224041 0)
(42.6424 0.000207813 0)
(42.6302 0.000182211 0)
(42.6199 0.000149398 0)
(42.6119 0.000113933 0)
(42.6061 8.06749e-05 0)
(42.6021 5.30859e-05 0)
(42.5997 3.25453e-05 0)
(42.5982 1.8666e-05 0)
(42.5974 1.0071e-05 0)
(42.597 5.15739e-06 0)
(42.5968 2.54826e-06 0)
(42.5967 1.25417e-06 0)
(42.5966 6.50947e-07 0)
(42.5966 3.86376e-07 0)
(42.5966 2.76551e-07 0)
(42.5965 2.33305e-07 0)
(42.5965 2.17088e-07 0)
(42.5965 2.11298e-07 0)
(42.5965 2.09317e-07 0)
(42.5965 2.08681e-07 0)
(42.5964 2.08483e-07 0)
(42.5964 2.0843e-07 0)
(42.5964 2.08419e-07 0)
(42.5964 2.08415e-07 0)
(42.5963 2.0842e-07 0)
(42.5963 2.08429e-07 0)
(42.5963 2.0843e-07 0)
(42.5963 2.08441e-07 0)
(42.5963 2.08455e-07 0)
(42.5962 2.08463e-07 0)
(42.5962 2.08479e-07 0)
(42.5962 2.08479e-07 0)
(42.5962 2.08491e-07 0)
(42.5962 2.08494e-07 0)
(42.5961 2.08504e-07 0)
(42.5961 2.08516e-07 0)
(42.5961 2.08519e-07 0)
(42.5961 2.08522e-07 0)
(42.596 2.08538e-07 0)
(42.596 2.08546e-07 0)
(42.596 2.08552e-07 0)
(42.596 2.08557e-07 0)
(42.596 2.08567e-07 0)
(42.5959 2.08561e-07 0)
(42.5959 2.08576e-07 0)
(42.5959 2.08587e-07 0)
(42.5959 2.08598e-07 0)
(42.5959 2.08609e-07 0)
(42.5958 2.08621e-07 0)
(42.5958 2.08631e-07 0)
(42.5958 2.08641e-07 0)
(42.5958 2.08642e-07 0)
(42.5957 2.08652e-07 0)
(42.5957 2.08654e-07 0)
(42.5957 2.08663e-07 0)
(42.5957 2.08673e-07 0)
(42.5957 2.08671e-07 0)
(42.5956 2.08683e-07 0)
(42.5956 2.08694e-07 0)
(42.5956 2.08698e-07 0)
(42.5956 2.08705e-07 0)
(42.5956 2.08715e-07 0)
(42.5955 2.08726e-07 0)
(42.5955 2.08739e-07 0)
(42.5955 2.0876e-07 0)
(42.5955 2.08772e-07 0)
(42.5954 2.0879e-07 0)
(42.5954 2.08809e-07 0)
(42.5953 2.08832e-07 0)
(42.5953 2.0889e-07 0)
(42.5952 2.08962e-07 0)
(42.595 2.09066e-07 0)
(42.5948 2.09217e-07 0)
(42.5945 2.09439e-07 0)
(42.5941 2.0976e-07 0)
(42.5934 2.10166e-07 0)
(42.5924 2.10819e-07 0)
(42.591 2.11715e-07 0)
(42.589 2.12899e-07 0)
(42.5861 2.14477e-07 0)
(42.5822 2.165e-07 0)
(42.5769 2.1904e-07 0)
(42.5699 2.22172e-07 0)
(42.5607 2.2589e-07 0)
(42.5488 2.30158e-07 0)
(42.534 2.34854e-07 0)
(42.5156 2.39709e-07 0)
(42.4935 2.44342e-07 0)
(42.4675 2.48184e-07 0)
(42.4375 2.50511e-07 0)
(42.4041 2.50487e-07 0)
(42.3677 2.47201e-07 0)
(42.3295 2.39771e-07 0)
(42.2907 2.27463e-07 0)
(42.253 2.09853e-07 0)
(42.2183 1.87003e-07 0)
(42.1885 1.59653e-07 0)
(42.1654 1.28819e-07 0)
(42.1507 9.34946e-08 0)
(42.1453 5.59996e-08 0)
(42.1491 2.28473e-08 0)
(42.1618 -3.26711e-08 0)
(42.1835 -6.12677e-08 0)
(42.2133 -8.03747e-08 0)
(42.2491 -9.06716e-08 0)
(42.2888 -9.38736e-08 0)
(42.33 -8.54851e-08 0)
(42.3705 -6.90112e-08 0)
(42.4081 -4.76532e-08 0)
(42.4413 -2.07965e-08 0)
(42.4691 1.10102e-08 0)
(42.491 4.03621e-08 0)
(42.5069 6.84687e-08 0)
(42.5175 9.4741e-08 0)
(42.5233 1.16953e-07 0)
(42.5255 1.33028e-07 0)
(42.5249 1.4349e-07 0)
(42.5227 1.55687e-07 0)
(42.5191 1.61117e-07 0)
(42.515 1.64976e-07 0)
(42.5107 1.66753e-07 0)
(42.5065 1.66288e-07 0)
(42.5028 1.65258e-07 0)
(42.4994 1.64102e-07 0)
(42.4965 1.62577e-07 0)
(42.4941 1.61065e-07 0)
(42.4921 1.60008e-07 0)
(42.4904 1.58984e-07 0)
(42.4889 1.57686e-07 0)
(42.4878 1.56936e-07 0)
(42.4868 1.56572e-07 0)
(42.4859 1.55835e-07 0)
(42.4852 1.55518e-07 0)
(42.4847 1.55396e-07 0)
(42.4842 1.54996e-07 0)
(42.4837 1.54724e-07 0)
(42.4834 1.54683e-07 0)
(42.4831 1.54612e-07 0)
(42.4828 1.54481e-07 0)
(42.4826 1.54451e-07 0)
(42.4824 1.5442e-07 0)
(42.4823 1.54263e-07 0)
(42.4821 1.54191e-07 0)
(42.4821 1.54344e-07 0)
(42.482 1.54301e-07 0)
(42.482 1.54274e-07 0)
(42.482 1.54351e-07 0)
(42.482 1.54264e-07 0)
(42.482 1.54297e-07 0)
(42.4821 1.54276e-07 0)
(42.4822 1.54379e-07 0)
(42.4823 1.54481e-07 0)
(42.4824 1.54588e-07 0)
(42.4825 1.54706e-07 0)
(42.4827 1.54777e-07 0)
(42.4828 1.54867e-07 0)
(42.4829 1.55008e-07 0)
(42.4831 1.55143e-07 0)
(42.4832 1.55296e-07 0)
(42.4833 1.55491e-07 0)
(42.4834 1.55646e-07 0)
(42.4834 1.5577e-07 0)
(42.4835 1.55875e-07 0)
(42.4835 1.55958e-07 0)
(42.4836 1.56139e-07 0)
(42.4836 1.56288e-07 0)
(42.4836 1.56319e-07 0)
(42.4836 1.56553e-07 0)
(42.4835 1.56666e-07 0)
(42.4835 1.56689e-07 0)
(42.4834 1.56842e-07 0)
(42.4834 1.56899e-07 0)
(42.4833 1.56927e-07 0)
(42.4832 1.56937e-07 0)
(42.4831 1.56949e-07 0)
(42.483 1.56965e-07 0)
(42.4829 1.57009e-07 0)
(42.4828 1.57098e-07 0)
(42.4826 1.57161e-07 0)
(42.4825 1.572e-07 0)
(42.4823 1.57216e-07 0)
(42.4822 1.57238e-07 0)
(42.4821 1.57226e-07 0)
(42.482 1.57277e-07 0)
(42.4819 1.57632e-07 0)
(42.4818 1.59204e-07 0)
(42.4817 1.66194e-07 0)
(42.4815 2.00448e-07 0)
(42.4814 3.71955e-07 0)
(42.4812 1.23416e-06 0)
(42.4809 5.54347e-06 0)
(42.4793 2.70778e-05 0)
(42.472 0.000132975 0)
(42.438 0.000635824 0)
(42.2761 0.00299233 0)
(41.8132 0.0149704 0)
(37.3051 0.05445 0)
(42.7002 0.000461932 0)
(42.7007 0.000323736 0)
(42.701 0.000295083 0)
(42.7013 0.000269043 0)
(42.7016 0.000232438 0)
(42.7018 0.000188276 0)
(42.7019 0.000142147 0)
(42.702 9.97966e-05 0)
(42.7021 6.51809e-05 0)
(42.7021 3.96972e-05 0)
(42.7021 2.26362e-05 0)
(42.7021 1.2151e-05 0)
(42.7021 6.19627e-06 0)
(42.7021 3.05311e-06 0)
(42.7021 1.50254e-06 0)
(42.702 7.82756e-07 0)
(42.702 4.68502e-07 0)
(42.702 3.38581e-07 0)
(42.702 2.87557e-07 0)
(42.7019 2.68511e-07 0)
(42.7019 2.61716e-07 0)
(42.7019 2.59397e-07 0)
(42.7019 2.58646e-07 0)
(42.7019 2.58408e-07 0)
(42.7018 2.58344e-07 0)
(42.7018 2.58328e-07 0)
(42.7018 2.58337e-07 0)
(42.7018 2.58336e-07 0)
(42.7018 2.58346e-07 0)
(42.7017 2.58361e-07 0)
(42.7017 2.58357e-07 0)
(42.7017 2.58366e-07 0)
(42.7017 2.58377e-07 0)
(42.7016 2.58383e-07 0)
(42.7016 2.58389e-07 0)
(42.7016 2.58398e-07 0)
(42.7016 2.58393e-07 0)
(42.7016 2.58413e-07 0)
(42.7015 2.58422e-07 0)
(42.7015 2.58431e-07 0)
(42.7015 2.58441e-07 0)
(42.7015 2.58442e-07 0)
(42.7015 2.58453e-07 0)
(42.7014 2.58459e-07 0)
(42.7014 2.58466e-07 0)
(42.7014 2.58476e-07 0)
(42.7014 2.5848e-07 0)
(42.7014 2.58496e-07 0)
(42.7013 2.58502e-07 0)
(42.7013 2.585e-07 0)
(42.7013 2.58507e-07 0)
(42.7013 2.58507e-07 0)
(42.7012 2.58511e-07 0)
(42.7012 2.58522e-07 0)
(42.7012 2.58523e-07 0)
(42.7012 2.58534e-07 0)
(42.7012 2.58549e-07 0)
(42.7011 2.58562e-07 0)
(42.7011 2.58557e-07 0)
(42.7011 2.58571e-07 0)
(42.7011 2.58582e-07 0)
(42.7011 2.58587e-07 0)
(42.701 2.58595e-07 0)
(42.701 2.58607e-07 0)
(42.701 2.58615e-07 0)
(42.701 2.58624e-07 0)
(42.7009 2.58638e-07 0)
(42.7009 2.58643e-07 0)
(42.7009 2.58666e-07 0)
(42.7009 2.58696e-07 0)
(42.7008 2.58728e-07 0)
(42.7008 2.58775e-07 0)
(42.7007 2.58894e-07 0)
(42.7006 2.59075e-07 0)
(42.7005 2.59325e-07 0)
(42.7003 2.59682e-07 0)
(42.6999 2.60219e-07 0)
(42.6995 2.60994e-07 0)
(42.6988 2.62115e-07 0)
(42.6978 2.63707e-07 0)
(42.6964 2.65879e-07 0)
(42.6944 2.68836e-07 0)
(42.6916 2.72785e-07 0)
(42.6877 2.77929e-07 0)
(42.6824 2.84511e-07 0)
(42.6753 2.92686e-07 0)
(42.6661 3.02609e-07 0)
(42.6543 3.14257e-07 0)
(42.6394 3.27458e-07 0)
(42.6211 3.4179e-07 0)
(42.5989 3.56526e-07 0)
(42.5729 3.70604e-07 0)
(42.543 3.82626e-07 0)
(42.5095 3.90878e-07 0)
(42.4731 3.93473e-07 0)
(42.4349 3.88531e-07 0)
(42.3961 3.74365e-07 0)
(42.3584 3.49796e-07 0)
(42.3237 3.144e-07 0)
(42.2939 2.68903e-07 0)
(42.2709 2.14678e-07 0)
(42.2561 1.51726e-07 0)
(42.2507 9.00507e-08 0)
(42.2545 3.74134e-08 0)
(42.2672 -5.51387e-08 0)
(42.2889 -1.07883e-07 0)
(42.3186 -1.45907e-07 0)
(42.3545 -1.68002e-07 0)
(42.3941 -1.77678e-07 0)
(42.4353 -1.66771e-07 0)
(42.4757 -1.41111e-07 0)
(42.5133 -1.05162e-07 0)
(42.5466 -5.82501e-08 0)
(42.5743 5.44981e-10 0)
(42.5962 4.97035e-08 0)
(42.6122 9.58439e-08 0)
(42.6227 1.37842e-07 0)
(42.6286 1.7316e-07 0)
(42.6307 1.98233e-07 0)
(42.6302 2.13941e-07 0)
(42.6279 2.34037e-07 0)
(42.6244 2.41073e-07 0)
(42.6202 2.45292e-07 0)
(42.6159 2.46002e-07 0)
(42.6118 2.43316e-07 0)
(42.608 2.39999e-07 0)
(42.6046 2.36412e-07 0)
(42.6018 2.3206e-07 0)
(42.5993 2.27763e-07 0)
(42.5973 2.24361e-07 0)
(42.5956 2.21375e-07 0)
(42.5941 2.18373e-07 0)
(42.593 2.16255e-07 0)
(42.592 2.14601e-07 0)
(42.5911 2.12328e-07 0)
(42.5904 2.10947e-07 0)
(42.5899 2.10023e-07 0)
(42.5894 2.08825e-07 0)
(42.5889 2.07901e-07 0)
(42.5886 2.0729e-07 0)
(42.5883 2.06563e-07 0)
(42.588 2.05839e-07 0)
(42.5878 2.0542e-07 0)
(42.5876 2.05104e-07 0)
(42.5874 2.04623e-07 0)
(42.5873 2.04221e-07 0)
(42.5872 2.04044e-07 0)
(42.5872 2.0352e-07 0)
(42.5871 2.03165e-07 0)
(42.5871 2.03086e-07 0)
(42.5871 2.02751e-07 0)
(42.5872 2.02661e-07 0)
(42.5872 2.02353e-07 0)
(42.5873 2.02215e-07 0)
(42.5874 2.02055e-07 0)
(42.5875 2.01938e-07 0)
(42.5877 2.0191e-07 0)
(42.5878 2.01874e-07 0)
(42.5879 2.01906e-07 0)
(42.5881 2.01971e-07 0)
(42.5882 2.01981e-07 0)
(42.5883 2.01984e-07 0)
(42.5884 2.02043e-07 0)
(42.5885 2.02064e-07 0)
(42.5886 2.02125e-07 0)
(42.5886 2.02191e-07 0)
(42.5887 2.02231e-07 0)
(42.5887 2.02416e-07 0)
(42.5887 2.02504e-07 0)
(42.5887 2.02357e-07 0)
(42.5887 2.02591e-07 0)
(42.5886 2.02593e-07 0)
(42.5886 2.02436e-07 0)
(42.5885 2.02532e-07 0)
(42.5884 2.02516e-07 0)
(42.5884 2.02473e-07 0)
(42.5883 2.02485e-07 0)
(42.5882 2.02489e-07 0)
(42.5881 2.02463e-07 0)
(42.588 2.02457e-07 0)
(42.5878 2.02515e-07 0)
(42.5877 2.02506e-07 0)
(42.5875 2.02417e-07 0)
(42.5874 2.02338e-07 0)
(42.5873 2.02271e-07 0)
(42.5871 2.02166e-07 0)
(42.587 2.02225e-07 0)
(42.5869 2.03135e-07 0)
(42.5868 2.07716e-07 0)
(42.5867 2.29636e-07 0)
(42.5866 3.38194e-07 0)
(42.5864 8.79992e-07 0)
(42.5863 3.59562e-06 0)
(42.5859 1.71708e-05 0)
(42.5843 8.4987e-05 0)
(42.577 0.000418438 0)
(42.543 0.00200194 0)
(42.381 0.00939649 0)
(41.9167 0.0463077 0)
(37.5119 0.159886 0)
(42.7002 0.000368363 0)
(42.7007 0.000234028 0)
(42.7011 0.000217899 0)
(42.7014 0.000203348 0)
(42.7016 0.000177731 0)
(42.7018 0.000145119 0)
(42.702 0.0001103 0)
(42.7021 7.78913e-05 0)
(42.7021 5.1144e-05 0)
(42.7022 3.13016e-05 0)
(42.7022 1.79325e-05 0)
(42.7022 9.66837e-06 0)
(42.7021 4.94964e-06 0)
(42.7021 2.44625e-06 0)
(42.7021 1.20525e-06 0)
(42.7021 6.2629e-07 0)
(42.7021 3.72394e-07 0)
(42.702 2.66924e-07 0)
(42.702 2.25335e-07 0)
(42.702 2.0972e-07 0)
(42.702 2.04131e-07 0)
(42.702 2.02227e-07 0)
(42.7019 2.01596e-07 0)
(42.7019 2.01418e-07 0)
(42.7019 2.01364e-07 0)
(42.7019 2.0135e-07 0)
(42.7019 2.0135e-07 0)
(42.7018 2.01367e-07 0)
(42.7018 2.01363e-07 0)
(42.7018 2.01367e-07 0)
(42.7018 2.01379e-07 0)
(42.7017 2.01385e-07 0)
(42.7017 2.0139e-07 0)
(42.7017 2.01401e-07 0)
(42.7017 2.01413e-07 0)
(42.7017 2.0142e-07 0)
(42.7016 2.01427e-07 0)
(42.7016 2.01434e-07 0)
(42.7016 2.01444e-07 0)
(42.7016 2.01449e-07 0)
(42.7016 2.01456e-07 0)
(42.7015 2.01463e-07 0)
(42.7015 2.01468e-07 0)
(42.7015 2.01473e-07 0)
(42.7015 2.01482e-07 0)
(42.7014 2.01493e-07 0)
(42.7014 2.01502e-07 0)
(42.7014 2.01501e-07 0)
(42.7014 2.01509e-07 0)
(42.7014 2.01521e-07 0)
(42.7013 2.01534e-07 0)
(42.7013 2.01543e-07 0)
(42.7013 2.01555e-07 0)
(42.7013 2.01557e-07 0)
(42.7013 2.01561e-07 0)
(42.7012 2.01562e-07 0)
(42.7012 2.01568e-07 0)
(42.7012 2.01571e-07 0)
(42.7012 2.01589e-07 0)
(42.7011 2.01597e-07 0)
(42.7011 2.01591e-07 0)
(42.7011 2.01606e-07 0)
(42.7011 2.01618e-07 0)
(42.7011 2.01621e-07 0)
(42.701 2.01637e-07 0)
(42.701 2.0164e-07 0)
(42.701 2.01653e-07 0)
(42.701 2.01671e-07 0)
(42.7009 2.01696e-07 0)
(42.7009 2.01729e-07 0)
(42.7009 2.01753e-07 0)
(42.7008 2.01798e-07 0)
(42.7007 2.01906e-07 0)
(42.7007 2.02073e-07 0)
(42.7005 2.023e-07 0)
(42.7003 2.02621e-07 0)
(42.7 2.03102e-07 0)
(42.6995 2.03824e-07 0)
(42.6989 2.04837e-07 0)
(42.6979 2.06258e-07 0)
(42.6965 2.08211e-07 0)
(42.6944 2.10872e-07 0)
(42.6916 2.14392e-07 0)
(42.6877 2.18931e-07 0)
(42.6824 2.24669e-07 0)
(42.6754 2.31705e-07 0)
(42.6662 2.40084e-07 0)
(42.6543 2.49697e-07 0)
(42.6394 2.60312e-07 0)
(42.6211 2.71425e-07 0)
(42.599 2.82299e-07 0)
(42.5729 2.91908e-07 0)
(42.543 2.98971e-07 0)
(42.5096 3.01992e-07 0)
(42.4732 2.99387e-07 0)
(42.4349 2.89611e-07 0)
(42.3962 2.71376e-07 0)
(42.3585 2.43895e-07 0)
(42.3238 2.07041e-07 0)
(42.294 1.61527e-07 0)
(42.2709 1.09008e-07 0)
(42.2562 5.2262e-08 0)
(42.2507 6.54513e-09 0)
(42.2545 -2.65254e-08 0)
(42.2672 -9.21442e-08 0)
(42.289 -1.31649e-07 0)
(42.3187 -1.58152e-07 0)
(42.3545 -1.69933e-07 0)
(42.3942 -1.69249e-07 0)
(42.4354 -1.50595e-07 0)
(42.4758 -1.19905e-07 0)
(42.5134 -8.13881e-08 0)
(42.5466 -3.4645e-08 0)
(42.5744 1.40756e-08 0)
(42.5963 5.73403e-08 0)
(42.6122 9.77329e-08 0)
(42.6228 1.33416e-07 0)
(42.6286 1.6209e-07 0)
(42.6308 1.80727e-07 0)
(42.6302 1.90374e-07 0)
(42.6279 2.04871e-07 0)
(42.6244 2.07485e-07 0)
(42.6203 2.07904e-07 0)
(42.616 2.05462e-07 0)
(42.6118 2.00356e-07 0)
(42.608 1.95003e-07 0)
(42.6047 1.89782e-07 0)
(42.6018 1.84413e-07 0)
(42.5994 1.79524e-07 0)
(42.5973 1.7565e-07 0)
(42.5956 1.72214e-07 0)
(42.5942 1.6881e-07 0)
(42.593 1.66397e-07 0)
(42.592 1.64574e-07 0)
(42.5912 1.62428e-07 0)
(42.5905 1.61087e-07 0)
(42.5899 1.60067e-07 0)
(42.5894 1.58811e-07 0)
(42.589 1.57837e-07 0)
(42.5886 1.57179e-07 0)
(42.5883 1.56499e-07 0)
(42.5881 1.55827e-07 0)
(42.5878 1.55352e-07 0)
(42.5877 1.54908e-07 0)
(42.5875 1.54349e-07 0)
(42.5874 1.53906e-07 0)
(42.5873 1.53747e-07 0)
(42.5872 1.53304e-07 0)
(42.5872 1.52968e-07 0)
(42.5872 1.52821e-07 0)
(42.5872 1.52411e-07 0)
(42.5872 1.52247e-07 0)
(42.5873 1.51927e-07 0)
(42.5874 1.5182e-07 0)
(42.5875 1.51722e-07 0)
(42.5876 1.51662e-07 0)
(42.5877 1.51643e-07 0)
(42.5879 1.51557e-07 0)
(42.588 1.51533e-07 0)
(42.5881 1.51575e-07 0)
(42.5882 1.51599e-07 0)
(42.5883 1.51658e-07 0)
(42.5884 1.51775e-07 0)
(42.5885 1.51848e-07 0)
(42.5886 1.51909e-07 0)
(42.5887 1.51951e-07 0)
(42.5887 1.5196e-07 0)
(42.5887 1.52102e-07 0)
(42.5887 1.52197e-07 0)
(42.5887 1.52079e-07 0)
(42.5887 1.52329e-07 0)
(42.5887 1.52388e-07 0)
(42.5886 1.52277e-07 0)
(42.5886 1.52399e-07 0)
(42.5885 1.52377e-07 0)
(42.5884 1.52306e-07 0)
(42.5883 1.52269e-07 0)
(42.5882 1.52196e-07 0)
(42.5881 1.52151e-07 0)
(42.588 1.52153e-07 0)
(42.5879 1.522e-07 0)
(42.5877 1.52184e-07 0)
(42.5876 1.52143e-07 0)
(42.5874 1.52071e-07 0)
(42.5873 1.52005e-07 0)
(42.5872 1.51908e-07 0)
(42.5871 1.52116e-07 0)
(42.587 1.53651e-07 0)
(42.5869 1.61438e-07 0)
(42.5868 1.99709e-07 0)
(42.5866 3.91789e-07 0)
(42.5865 1.35544e-06 0)
(42.5863 6.18983e-06 0)
(42.5859 3.03801e-05 0)
(42.5844 0.000151221 0)
(42.5772 0.00074553 0)
(42.5433 0.00357048 0)
(42.3824 0.0167558 0)
(41.9224 0.0824334 0)
(37.5937 0.280966 0)
(42.7002 0.000374361 0)
(42.7007 0.000271062 0)
(42.7011 0.000255564 0)
(42.7014 0.000239047 0)
(42.7016 0.000208774 0)
(42.7018 0.000170261 0)
(42.702 0.00012927 0)
(42.7021 9.11927e-05 0)
(42.7021 5.98173e-05 0)
(42.7022 3.6573e-05 0)
(42.7022 2.09307e-05 0)
(42.7022 1.12736e-05 0)
(42.7021 5.76565e-06 0)
(42.7021 2.84682e-06 0)
(42.7021 1.4013e-06 0)
(42.7021 7.27854e-07 0)
(42.7021 4.3276e-07 0)
(42.702 3.10299e-07 0)
(42.702 2.62056e-07 0)
(42.702 2.43959e-07 0)
(42.702 2.37483e-07 0)
(42.702 2.35284e-07 0)
(42.7019 2.34554e-07 0)
(42.7019 2.34329e-07 0)
(42.7019 2.34272e-07 0)
(42.7019 2.34258e-07 0)
(42.7019 2.34263e-07 0)
(42.7018 2.34258e-07 0)
(42.7018 2.34264e-07 0)
(42.7018 2.34282e-07 0)
(42.7018 2.34281e-07 0)
(42.7017 2.34287e-07 0)
(42.7017 2.34296e-07 0)
(42.7017 2.34304e-07 0)
(42.7017 2.34306e-07 0)
(42.7017 2.3431e-07 0)
(42.7016 2.34318e-07 0)
(42.7016 2.34329e-07 0)
(42.7016 2.34338e-07 0)
(42.7016 2.34343e-07 0)
(42.7016 2.34353e-07 0)
(42.7015 2.34361e-07 0)
(42.7015 2.34363e-07 0)
(42.7015 2.34379e-07 0)
(42.7015 2.34384e-07 0)
(42.7014 2.34394e-07 0)
(42.7014 2.34389e-07 0)
(42.7014 2.34401e-07 0)
(42.7014 2.34409e-07 0)
(42.7014 2.34412e-07 0)
(42.7013 2.34415e-07 0)
(42.7013 2.34416e-07 0)
(42.7013 2.3443e-07 0)
(42.7013 2.34435e-07 0)
(42.7013 2.34435e-07 0)
(42.7012 2.34448e-07 0)
(42.7012 2.34446e-07 0)
(42.7012 2.34454e-07 0)
(42.7012 2.34462e-07 0)
(42.7011 2.34475e-07 0)
(42.7011 2.34485e-07 0)
(42.7011 2.3449e-07 0)
(42.7011 2.34488e-07 0)
(42.7011 2.34497e-07 0)
(42.701 2.34511e-07 0)
(42.701 2.34516e-07 0)
(42.701 2.34528e-07 0)
(42.701 2.34543e-07 0)
(42.7009 2.34569e-07 0)
(42.7009 2.34592e-07 0)
(42.7009 2.3462e-07 0)
(42.7008 2.34662e-07 0)
(42.7007 2.34768e-07 0)
(42.7007 2.34945e-07 0)
(42.7005 2.35157e-07 0)
(42.7003 2.35482e-07 0)
(42.7 2.35956e-07 0)
(42.6995 2.36648e-07 0)
(42.6989 2.3764e-07 0)
(42.6979 2.39035e-07 0)
(42.6965 2.4094e-07 0)
(42.6944 2.43546e-07 0)
(42.6916 2.4697e-07 0)
(42.6877 2.51393e-07 0)
(42.6824 2.57005e-07 0)
(42.6754 2.63882e-07 0)
(42.6662 2.72089e-07 0)
(42.6543 2.81533e-07 0)
(42.6394 2.92004e-07 0)
(42.6211 3.03035e-07 0)
(42.599 3.13937e-07 0)
(42.5729 3.2376e-07 0)
(42.543 3.31278e-07 0)
(42.5096 3.35093e-07 0)
(42.4732 3.33686e-07 0)
(42.4349 3.25592e-07 0)
(42.3962 3.09575e-07 0)
(42.3585 2.84845e-07 0)
(42.3238 2.51247e-07 0)
(42.294 2.09431e-07 0)
(42.2709 1.6099e-07 0)
(42.2562 1.08547e-07 0)
(42.2507 6.5749e-08 0)
(42.2545 3.31176e-08 0)
(42.2672 -3.59341e-08 0)
(42.289 -7.7363e-08 0)
(42.3187 -1.05151e-07 0)
(42.3545 -1.19119e-07 0)
(42.3942 -1.22198e-07 0)
(42.4354 -1.08762e-07 0)
(42.4758 -8.35871e-08 0)
(42.5134 -5.12633e-08 0)
(42.5466 -1.22193e-08 0)
(42.5744 2.38808e-08 0)
(42.5963 6.37851e-08 0)
(42.6122 1.02421e-07 0)
(42.6228 1.36997e-07 0)
(42.6286 1.64555e-07 0)
(42.6308 1.82937e-07 0)
(42.6302 1.92728e-07 0)
(42.6279 2.07493e-07 0)
(42.6244 2.11066e-07 0)
(42.6203 2.1252e-07 0)
(42.616 2.11617e-07 0)
(42.6118 2.08198e-07 0)
(42.608 2.04318e-07 0)
(42.6047 2.00674e-07 0)
(42.6018 1.9688e-07 0)
(42.5994 1.93268e-07 0)
(42.5973 1.90554e-07 0)
(42.5956 1.88323e-07 0)
(42.5942 1.85948e-07 0)
(42.593 1.84526e-07 0)
(42.592 1.83619e-07 0)
(42.5912 1.8218e-07 0)
(42.5905 1.81487e-07 0)
(42.5899 1.81192e-07 0)
(42.5894 1.806e-07 0)
(42.589 1.8025e-07 0)
(42.5886 1.80186e-07 0)
(42.5883 1.80025e-07 0)
(42.5881 1.79818e-07 0)
(42.5878 1.79859e-07 0)
(42.5877 1.79928e-07 0)
(42.5875 1.79845e-07 0)
(42.5874 1.79809e-07 0)
(42.5873 1.80004e-07 0)
(42.5872 1.79865e-07 0)
(42.5872 1.79822e-07 0)
(42.5872 1.8001e-07 0)
(42.5872 1.79962e-07 0)
(42.5872 1.80091e-07 0)
(42.5873 1.80042e-07 0)
(42.5874 1.80169e-07 0)
(42.5875 1.80236e-07 0)
(42.5876 1.80328e-07 0)
(42.5877 1.8049e-07 0)
(42.5879 1.80612e-07 0)
(42.588 1.80782e-07 0)
(42.5881 1.81015e-07 0)
(42.5882 1.81173e-07 0)
(42.5883 1.8133e-07 0)
(42.5884 1.81531e-07 0)
(42.5885 1.81687e-07 0)
(42.5886 1.8183e-07 0)
(42.5887 1.81991e-07 0)
(42.5887 1.82138e-07 0)
(42.5887 1.82383e-07 0)
(42.5887 1.8258e-07 0)
(42.5887 1.82535e-07 0)
(42.5887 1.82822e-07 0)
(42.5887 1.82905e-07 0)
(42.5886 1.8284e-07 0)
(42.5886 1.82989e-07 0)
(42.5885 1.83021e-07 0)
(42.5884 1.83056e-07 0)
(42.5883 1.83118e-07 0)
(42.5882 1.83142e-07 0)
(42.5881 1.83172e-07 0)
(42.588 1.83229e-07 0)
(42.5879 1.83323e-07 0)
(42.5877 1.83342e-07 0)
(42.5876 1.83325e-07 0)
(42.5874 1.83281e-07 0)
(42.5873 1.83249e-07 0)
(42.5872 1.83206e-07 0)
(42.5871 1.83608e-07 0)
(42.587 1.85942e-07 0)
(42.5869 1.9769e-07 0)
(42.5868 2.55434e-07 0)
(42.5866 5.44126e-07 0)
(42.5865 1.98996e-06 0)
(42.5863 9.24068e-06 0)
(42.5859 4.55337e-05 0)
(42.5844 0.000226827 0)
(42.5772 0.00111871 0)
(42.5436 0.00536192 0)
(42.3837 0.0251543 0)
(41.927 0.123575 0)
(37.6941 0.416043 0)
(42.7002 0.000351176 0)
(42.7007 0.000246842 0)
(42.701 0.000221491 0)
(42.7014 0.000204266 0)
(42.7016 0.000176841 0)
(42.7018 0.000143478 0)
(42.702 0.000108675 0)
(42.7021 7.65985e-05 0)
(42.7021 5.02487e-05 0)
(42.7022 3.07441e-05 0)
(42.7022 1.7616e-05 0)
(42.7022 9.5031e-06 0)
(42.7021 4.86858e-06 0)
(42.7021 2.40811e-06 0)
(42.7021 1.18693e-06 0)
(42.7021 6.16471e-07 0)
(42.7021 3.65837e-07 0)
(42.702 2.61514e-07 0)
(42.702 2.20275e-07 0)
(42.702 2.04764e-07 0)
(42.702 1.99189e-07 0)
(42.702 1.97287e-07 0)
(42.7019 1.96659e-07 0)
(42.7019 1.96465e-07 0)
(42.7019 1.96408e-07 0)
(42.7019 1.96387e-07 0)
(42.7019 1.96395e-07 0)
(42.7018 1.96406e-07 0)
(42.7018 1.96409e-07 0)
(42.7018 1.96412e-07 0)
(42.7018 1.96423e-07 0)
(42.7017 1.96428e-07 0)
(42.7017 1.96434e-07 0)
(42.7017 1.96436e-07 0)
(42.7017 1.96449e-07 0)
(42.7017 1.9646e-07 0)
(42.7016 1.96465e-07 0)
(42.7016 1.96472e-07 0)
(42.7016 1.96484e-07 0)
(42.7016 1.96485e-07 0)
(42.7016 1.96495e-07 0)
(42.7015 1.96498e-07 0)
(42.7015 1.96508e-07 0)
(42.7015 1.96517e-07 0)
(42.7015 1.96523e-07 0)
(42.7014 1.9653e-07 0)
(42.7014 1.96533e-07 0)
(42.7014 1.96548e-07 0)
(42.7014 1.96554e-07 0)
(42.7014 1.96551e-07 0)
(42.7013 1.9657e-07 0)
(42.7013 1.96573e-07 0)
(42.7013 1.96586e-07 0)
(42.7013 1.96587e-07 0)
(42.7013 1.96575e-07 0)
(42.7012 1.96589e-07 0)
(42.7012 1.96592e-07 0)
(42.7012 1.966e-07 0)
(42.7012 1.96612e-07 0)
(42.7011 1.9662e-07 0)
(42.7011 1.96624e-07 0)
(42.7011 1.96635e-07 0)
(42.7011 1.96639e-07 0)
(42.7011 1.96647e-07 0)
(42.701 1.96654e-07 0)
(42.701 1.9666e-07 0)
(42.701 1.96675e-07 0)
(42.701 1.96689e-07 0)
(42.7009 1.96711e-07 0)
(42.7009 1.96736e-07 0)
(42.7009 1.96763e-07 0)
(42.7008 1.96799e-07 0)
(42.7007 1.96904e-07 0)
(42.7007 1.97071e-07 0)
(42.7005 1.97278e-07 0)
(42.7003 1.97579e-07 0)
(42.7 1.98037e-07 0)
(42.6995 1.98707e-07 0)
(42.6989 1.99662e-07 0)
(42.6979 2.01009e-07 0)
(42.6965 2.02838e-07 0)
(42.6944 2.0533e-07 0)
(42.6916 2.08628e-07 0)
(42.6877 2.12895e-07 0)
(42.6824 2.18275e-07 0)
(42.6754 2.2488e-07 0)
(42.6662 2.32759e-07 0)
(42.6543 2.41818e-07 0)
(42.6394 2.51851e-07 0)
(42.6211 2.62403e-07 0)
(42.599 2.72825e-07 0)
(42.5729 2.82185e-07 0)
(42.543 2.89294e-07 0)
(42.5096 2.92829e-07 0)
(42.4732 2.91305e-07 0)
(42.4349 2.83315e-07 0)
(42.3962 2.6766e-07 0)
(42.3585 2.43569e-07 0)
(42.3238 2.10885e-07 0)
(42.294 1.70193e-07 0)
(42.2709 1.22952e-07 0)
(42.2562 7.15925e-08 0)
(42.2507 2.85235e-08 0)
(42.2545 -4.74319e-09 0)
(42.2672 -7.30593e-08 0)
(42.289 -1.12109e-07 0)
(42.3187 -1.3837e-07 0)
(42.3545 -1.51607e-07 0)
(42.3942 -1.54137e-07 0)
(42.4354 -1.40512e-07 0)
(42.4758 -1.15871e-07 0)
(42.5134 -8.38837e-08 0)
(42.5466 -4.45021e-08 0)
(42.5744 -3.46052e-10 0)
(42.5963 4.09784e-08 0)
(42.6122 7.87478e-08 0)
(42.6228 1.12298e-07 0)
(42.6286 1.38787e-07 0)
(42.6308 1.56642e-07 0)
(42.6302 1.66244e-07 0)
(42.6279 1.80751e-07 0)
(42.6244 1.84393e-07 0)
(42.6203 1.8578e-07 0)
(42.616 1.8485e-07 0)
(42.6118 1.81709e-07 0)
(42.608 1.7817e-07 0)
(42.6047 1.74771e-07 0)
(42.6018 1.7111e-07 0)
(42.5994 1.67519e-07 0)
(42.5973 1.6482e-07 0)
(42.5956 1.62649e-07 0)
(42.5942 1.60326e-07 0)
(42.593 1.58788e-07 0)
(42.592 1.5774e-07 0)
(42.5912 1.56161e-07 0)
(42.5905 1.55279e-07 0)
(42.5899 1.54784e-07 0)
(42.5894 1.53953e-07 0)
(42.589 1.53324e-07 0)
(42.5886 1.52974e-07 0)
(42.5883 1.52529e-07 0)
(42.5881 1.52057e-07 0)
(42.5878 1.51817e-07 0)
(42.5877 1.51613e-07 0)
(42.5875 1.51244e-07 0)
(42.5874 1.50913e-07 0)
(42.5873 1.50858e-07 0)
(42.5872 1.50482e-07 0)
(42.5872 1.50211e-07 0)
(42.5872 1.50171e-07 0)
(42.5872 1.4988e-07 0)
(42.5872 1.49737e-07 0)
(42.5873 1.49462e-07 0)
(42.5874 1.49374e-07 0)
(42.5875 1.49255e-07 0)
(42.5876 1.49201e-07 0)
(42.5877 1.49194e-07 0)
(42.5879 1.49135e-07 0)
(42.588 1.49097e-07 0)
(42.5881 1.49141e-07 0)
(42.5882 1.4913e-07 0)
(42.5883 1.49129e-07 0)
(42.5884 1.49223e-07 0)
(42.5885 1.4925e-07 0)
(42.5886 1.49262e-07 0)
(42.5887 1.49291e-07 0)
(42.5887 1.49291e-07 0)
(42.5887 1.49378e-07 0)
(42.5887 1.49445e-07 0)
(42.5887 1.49297e-07 0)
(42.5887 1.49491e-07 0)
(42.5887 1.49498e-07 0)
(42.5886 1.49386e-07 0)
(42.5886 1.49448e-07 0)
(42.5885 1.49388e-07 0)
(42.5884 1.49325e-07 0)
(42.5883 1.49288e-07 0)
(42.5882 1.49197e-07 0)
(42.5881 1.49137e-07 0)
(42.588 1.49128e-07 0)
(42.5879 1.4914e-07 0)
(42.5877 1.49098e-07 0)
(42.5876 1.4904e-07 0)
(42.5874 1.48963e-07 0)
(42.5873 1.48888e-07 0)
(42.5872 1.48854e-07 0)
(42.5871 1.49402e-07 0)
(42.587 1.52544e-07 0)
(42.5869 1.68525e-07 0)
(42.5868 2.47818e-07 0)
(42.5866 6.45895e-07 0)
(42.5865 2.64098e-06 0)
(42.5863 1.26447e-05 0)
(42.5859 6.27246e-05 0)
(42.5844 0.00031288 0)
(42.5773 0.00154393 0)
(42.544 0.00740565 0)
(42.3859 0.0347279 0)
(41.9341 0.170189 0)
(37.8112 0.56604 0)
(42.7002 0.000329761 0)
(42.7007 0.000239754 0)
(42.701 0.000217739 0)
(42.7013 0.000205051 0)
(42.7016 0.000179947 0)
(42.7018 0.000147252 0)
(42.702 0.000112219 0)
(42.7021 7.94633e-05 0)
(42.7021 5.23193e-05 0)
(42.7022 3.21067e-05 0)
(42.7022 1.84426e-05 0)
(42.7022 9.96977e-06 0)
(42.7021 5.11579e-06 0)
(42.7021 2.53262e-06 0)
(42.7021 1.24774e-06 0)
(42.7021 6.46505e-07 0)
(42.7021 3.81872e-07 0)
(42.702 2.71561e-07 0)
(42.702 2.27901e-07 0)
(42.702 2.11453e-07 0)
(42.702 2.05535e-07 0)
(42.702 2.03509e-07 0)
(42.7019 2.02841e-07 0)
(42.7019 2.02634e-07 0)
(42.7019 2.02578e-07 0)
(42.7019 2.02563e-07 0)
(42.7019 2.02565e-07 0)
(42.7018 2.02571e-07 0)
(42.7018 2.02575e-07 0)
(42.7018 2.02585e-07 0)
(42.7018 2.02589e-07 0)
(42.7017 2.02593e-07 0)
(42.7017 2.02601e-07 0)
(42.7017 2.02606e-07 0)
(42.7017 2.02608e-07 0)
(42.7017 2.02612e-07 0)
(42.7016 2.02624e-07 0)
(42.7016 2.02633e-07 0)
(42.7016 2.0264e-07 0)
(42.7016 2.02644e-07 0)
(42.7016 2.02651e-07 0)
(42.7015 2.0266e-07 0)
(42.7015 2.02671e-07 0)
(42.7015 2.02674e-07 0)
(42.7015 2.02675e-07 0)
(42.7014 2.02683e-07 0)
(42.7014 2.02691e-07 0)
(42.7014 2.02697e-07 0)
(42.7014 2.027e-07 0)
(42.7014 2.02708e-07 0)
(42.7013 2.02718e-07 0)
(42.7013 2.02711e-07 0)
(42.7013 2.0272e-07 0)
(42.7013 2.02726e-07 0)
(42.7013 2.02724e-07 0)
(42.7012 2.02734e-07 0)
(42.7012 2.02743e-07 0)
(42.7012 2.02744e-07 0)
(42.7012 2.02754e-07 0)
(42.7011 2.0276e-07 0)
(42.7011 2.0277e-07 0)
(42.7011 2.02774e-07 0)
(42.7011 2.02777e-07 0)
(42.7011 2.02786e-07 0)
(42.701 2.02791e-07 0)
(42.701 2.02798e-07 0)
(42.701 2.02813e-07 0)
(42.701 2.02825e-07 0)
(42.7009 2.02848e-07 0)
(42.7009 2.02875e-07 0)
(42.7009 2.02893e-07 0)
(42.7008 2.02935e-07 0)
(42.7007 2.03034e-07 0)
(42.7007 2.03188e-07 0)
(42.7005 2.03389e-07 0)
(42.7003 2.0368e-07 0)
(42.7 2.04115e-07 0)
(42.6995 2.04751e-07 0)
(42.6989 2.05662e-07 0)
(42.6979 2.06942e-07 0)
(42.6965 2.08693e-07 0)
(42.6944 2.11072e-07 0)
(42.6916 2.14218e-07 0)
(42.6877 2.18271e-07 0)
(42.6824 2.23402e-07 0)
(42.6754 2.2968e-07 0)
(42.6662 2.37181e-07 0)
(42.6543 2.45795e-07 0)
(42.6394 2.55334e-07 0)
(42.6211 2.65367e-07 0)
(42.599 2.7525e-07 0)
(42.5729 2.84125e-07 0)
(42.543 2.90862e-07 0)
(42.5096 2.94161e-07 0)
(42.4732 2.92665e-07 0)
(42.4349 2.85008e-07 0)
(42.3962 2.70075e-07 0)
(42.3585 2.47122e-07 0)
(42.3238 2.16024e-07 0)
(42.294 1.77359e-07 0)
(42.2709 1.32525e-07 0)
(42.2562 8.39557e-08 0)
(42.2507 4.33653e-08 0)
(42.2545 1.34015e-08 0)
(42.2672 -4.92091e-08 0)
(42.289 -8.58631e-08 0)
(42.3187 -1.10521e-07 0)
(42.3545 -1.22891e-07 0)
(42.3942 -1.24829e-07 0)
(42.4354 -1.11925e-07 0)
(42.4758 -8.82225e-08 0)
(42.5134 -5.78468e-08 0)
(42.5466 -2.04078e-08 0)
(42.5744 1.95701e-08 0)
(42.5963 5.75709e-08 0)
(42.6122 9.30888e-08 0)
(42.6228 1.24349e-07 0)
(42.6286 1.49531e-07 0)
(42.6308 1.66186e-07 0)
(42.6302 1.7473e-07 0)
(42.6279 1.88404e-07 0)
(42.6244 1.91469e-07 0)
(42.6203 1.92739e-07 0)
(42.616 1.91801e-07 0)
(42.6118 1.88509e-07 0)
(42.608 1.84927e-07 0)
(42.6047 1.81508e-07 0)
(42.6018 1.77821e-07 0)
(42.5994 1.74408e-07 0)
(42.5973 1.71774e-07 0)
(42.5956 1.69482e-07 0)
(42.5942 1.67112e-07 0)
(42.593 1.65499e-07 0)
(42.592 1.64376e-07 0)
(42.5912 1.62824e-07 0)
(42.5905 1.61865e-07 0)
(42.5899 1.61293e-07 0)
(42.5894 1.60474e-07 0)
(42.589 1.59816e-07 0)
(42.5886 1.59455e-07 0)
(42.5883 1.59034e-07 0)
(42.5881 1.58557e-07 0)
(42.5878 1.58282e-07 0)
(42.5877 1.58066e-07 0)
(42.5875 1.57701e-07 0)
(42.5874 1.57411e-07 0)
(42.5873 1.57407e-07 0)
(42.5872 1.57096e-07 0)
(42.5872 1.56838e-07 0)
(42.5872 1.5681e-07 0)
(42.5872 1.56573e-07 0)
(42.5872 1.56482e-07 0)
(42.5873 1.56298e-07 0)
(42.5874 1.56292e-07 0)
(42.5875 1.5623e-07 0)
(42.5876 1.56216e-07 0)
(42.5877 1.56252e-07 0)
(42.5879 1.56239e-07 0)
(42.588 1.56279e-07 0)
(42.5881 1.56404e-07 0)
(42.5882 1.56467e-07 0)
(42.5883 1.56542e-07 0)
(42.5884 1.56689e-07 0)
(42.5885 1.56787e-07 0)
(42.5886 1.56845e-07 0)
(42.5887 1.56936e-07 0)
(42.5887 1.57012e-07 0)
(42.5887 1.5717e-07 0)
(42.5887 1.57309e-07 0)
(42.5887 1.57243e-07 0)
(42.5887 1.57469e-07 0)
(42.5887 1.57536e-07 0)
(42.5886 1.5749e-07 0)
(42.5886 1.57595e-07 0)
(42.5885 1.57593e-07 0)
(42.5884 1.57592e-07 0)
(42.5883 1.57612e-07 0)
(42.5882 1.57579e-07 0)
(42.5881 1.57582e-07 0)
(42.588 1.57624e-07 0)
(42.5879 1.5768e-07 0)
(42.5877 1.57685e-07 0)
(42.5876 1.57666e-07 0)
(42.5874 1.57638e-07 0)
(42.5873 1.576e-07 0)
(42.5872 1.5761e-07 0)
(42.5871 1.58384e-07 0)
(42.587 1.62512e-07 0)
(42.5869 1.83495e-07 0)
(42.5868 2.87572e-07 0)
(42.5866 8.09639e-07 0)
(42.5865 3.42712e-06 0)
(42.5863 1.65549e-05 0)
(42.586 8.22857e-05 0)
(42.5844 0.00041062 0)
(42.5775 0.00202699 0)
(42.5447 0.00972946 0)
(42.3891 0.0455932 0)
(41.9449 0.222691 0)
(37.9506 0.729301 0)
(42.7002 0.000272832 0)
(42.7006 0.000207032 0)
(42.701 0.000183409 0)
(42.7013 0.000171592 0)
(42.7016 0.000149426 0)
(42.7018 0.000121219 0)
(42.7019 9.17696e-05 0)
(42.7021 6.46729e-05 0)
(42.7021 4.2438e-05 0)
(42.7022 2.59826e-05 0)
(42.7022 1.49051e-05 0)
(42.7022 8.05393e-06 0)
(42.7021 4.13342e-06 0)
(42.7021 2.04779e-06 0)
(42.7021 1.00975e-06 0)
(42.7021 5.23344e-07 0)
(42.7021 3.08814e-07 0)
(42.702 2.19144e-07 0)
(42.702 1.83535e-07 0)
(42.702 1.70067e-07 0)
(42.702 1.65199e-07 0)
(42.702 1.63531e-07 0)
(42.7019 1.62983e-07 0)
(42.7019 1.62809e-07 0)
(42.7019 1.62761e-07 0)