/*--------------------------------*- C++ -*----------------------------------*\
| =========                 |                                                 |
| \\      /  F ield         | OpenFOAM: The Open Source CFD Toolbox           |
|  \\    /   O peration     | Version:  3.0.x                                 |
|   \\  /    A nd           | Web:      www.OpenFOAM.org                      |
|    \\/     M anipulation  |                                                 |
\*---------------------------------------------------------------------------*/
FoamFile
{
    version     2.0;
    format      ascii;
    class       volVectorField;
    location    "0.19005";
    object      U;
}
// * * * * * * * * * * * * * * * * * * * * * * * * * * * * * * * * * * * * * //

dimensions      [0 1 -1 0 0 0 0];

internalField   nonuniform List<vector> 
27600
(
(42.6861 0.000288175 0)
(42.6747 0.000241586 0)
(42.6642 0.000238271 0)
(42.653 0.000240733 0)
(42.6416 0.000243027 0)
(42.6304 0.000245086 0)
(42.6194 0.000246884 0)
(42.6086 0.000248443 0)
(42.5979 0.000249811 0)
(42.5875 0.000251018 0)
(42.5773 0.000252107 0)
(42.5672 0.000253026 0)
(42.5574 0.000253896 0)
(42.5477 0.000254653 0)
(42.5382 0.000255312 0)
(42.5287 0.000255857 0)
(42.5194 0.000256251 0)
(42.51 0.000256429 0)
(42.5006 0.00025629 0)
(42.4911 0.000255685 0)
(42.4816 0.000254418 0)
(42.4719 0.000252249 0)
(42.4621 0.000248906 0)
(42.4521 0.000244107 0)
(42.4421 0.000237592 0)
(42.432 0.000229156 0)
(42.4219 0.00021869 0)
(42.4119 0.000206204 0)
(42.4021 0.000191845 0)
(42.3925 0.000175885 0)
(42.3832 0.000158852 0)
(42.3741 0.000140948 0)
(42.3653 0.00012304 0)
(42.3568 0.000105479 0)
(42.3486 8.87804e-05 0)
(42.3405 7.33405e-05 0)
(42.3327 5.94466e-05 0)
(42.3249 4.72684e-05 0)
(42.3171 3.68637e-05 0)
(42.3094 2.81928e-05 0)
(42.3015 2.114e-05 0)
(42.2936 1.55372e-05 0)
(42.2856 1.11895e-05 0)
(42.2774 7.8855e-06 0)
(42.2691 5.43956e-06 0)
(42.2608 3.66216e-06 0)
(42.2524 2.39411e-06 0)
(42.2439 1.50635e-06 0)
(42.2356 8.99418e-07 0)
(42.2272 4.95037e-07 0)
(42.2191 2.28985e-07 0)
(42.211 4.39066e-08 0)
(42.2032 -4.70291e-08 0)
(42.1956 -1.00909e-07 0)
(42.1883 -1.30369e-07 0)
(42.1812 -1.44145e-07 0)
(42.1745 -1.48187e-07 0)
(42.1681 -1.46448e-07 0)
(42.162 -1.41386e-07 0)
(42.1563 -1.34647e-07 0)
(42.151 -1.26934e-07 0)
(42.146 -1.18975e-07 0)
(42.1414 -1.11053e-07 0)
(42.137 -1.03409e-07 0)
(42.1331 -9.61277e-08 0)
(42.1294 -8.92626e-08 0)
(42.126 -8.28011e-08 0)
(42.123 -7.67848e-08 0)
(42.1201 -7.10549e-08 0)
(42.1176 -6.57605e-08 0)
(42.1153 -6.07429e-08 0)
(42.1132 -5.61865e-08 0)
(42.1113 -5.1741e-08 0)
(42.1096 -4.77844e-08 0)
(42.108 -4.40604e-08 0)
(42.1066 -4.05441e-08 0)
(42.1054 -3.71787e-08 0)
(42.1044 -3.38928e-08 0)
(42.1034 -3.07482e-08 0)
(42.1026 -2.77219e-08 0)
(42.1019 -2.44431e-08 0)
(42.1014 -2.11104e-08 0)
(42.1009 -1.78027e-08 0)
(42.1006 -1.38227e-08 0)
(42.1005 -7.41097e-09 0)
(42.1004 -3.74687e-09 0)
(42.1006 3.60832e-09 0)
(42.1009 1.13098e-08 0)
(42.1013 1.8616e-08 0)
(42.1019 2.58263e-08 0)
(42.1027 3.3362e-08 0)
(42.1036 4.05819e-08 0)
(42.1047 4.78941e-08 0)
(42.1059 5.50578e-08 0)
(42.1073 6.18164e-08 0)
(42.1088 6.88594e-08 0)
(42.1104 7.57067e-08 0)
(42.1121 8.32607e-08 0)
(42.1139 9.07524e-08 0)
(42.1157 9.83347e-08 0)
(42.1175 1.06231e-07 0)
(42.1192 1.13843e-07 0)
(42.1207 1.2121e-07 0)
(42.1221 1.28334e-07 0)
(42.1233 1.34838e-07 0)
(42.1241 1.40583e-07 0)
(42.1246 1.45559e-07 0)
(42.1246 1.49567e-07 0)
(42.1241 1.51913e-07 0)
(42.1231 1.53842e-07 0)
(42.1214 1.53938e-07 0)
(42.119 1.52597e-07 0)
(42.1159 1.4952e-07 0)
(42.112 1.44642e-07 0)
(42.1074 1.38522e-07 0)
(42.102 1.30607e-07 0)
(42.0958 1.20049e-07 0)
(42.0889 1.08232e-07 0)
(42.0812 9.43572e-08 0)
(42.0728 7.85487e-08 0)
(42.0638 6.09156e-08 0)
(42.0543 4.1319e-08 0)
(42.0442 2.08297e-08 0)
(42.0339 -1.05531e-09 0)
(42.0232 -2.22244e-08 0)
(42.0124 -6.38668e-08 0)
(42.0017 -1.04098e-07 0)
(41.991 -1.339e-07 0)
(41.9804 -9.57722e-08 0)
(41.97 -1.21138e-07 0)
(41.9601 -2.21247e-07 0)
(41.951 -2.34697e-07 0)
(41.9424 -2.49295e-07 0)
(41.9344 -2.6779e-07 0)
(41.9271 -2.87139e-07 0)
(41.9206 -3.05431e-07 0)
(41.9148 -3.22606e-07 0)
(41.9099 -3.37894e-07 0)
(41.9057 -3.50903e-07 0)
(41.9024 -3.61151e-07 0)
(41.8998 -3.68532e-07 0)
(41.8979 -3.732e-07 0)
(41.8966 -3.74396e-07 0)
(41.8959 -3.72504e-07 0)
(41.8957 -3.69135e-07 0)
(41.8959 -3.62265e-07 0)
(41.8965 -3.5313e-07 0)
(41.8973 -3.42429e-07 0)
(41.8982 -3.29403e-07 0)
(41.8993 -3.15028e-07 0)
(41.9004 -2.99258e-07 0)
(41.9014 -2.8289e-07 0)
(41.9024 -2.65609e-07 0)
(41.9033 -2.47863e-07 0)
(41.904 -2.30532e-07 0)
(41.9046 -2.13145e-07 0)
(41.905 -1.96524e-07 0)
(41.9052 -1.80775e-07 0)
(41.9052 -1.66055e-07 0)
(41.905 -1.51867e-07 0)
(41.9047 -1.38183e-07 0)
(41.9042 -1.24759e-07 0)
(41.9035 -1.11845e-07 0)
(41.9028 -9.98226e-08 0)
(41.9019 -8.8634e-08 0)
(41.901 -7.8492e-08 0)
(41.9 -6.96652e-08 0)
(41.899 -6.19681e-08 0)
(41.898 -5.53807e-08 0)
(41.8971 -4.97832e-08 0)
(41.8961 -4.51508e-08 0)
(41.8952 -4.12862e-08 0)
(41.8943 -4.25223e-08 0)
(41.8935 -3.43993e-08 0)
(41.8927 -3.21305e-08 0)
(41.892 -3.1381e-08 0)
(41.8914 -3.09616e-08 0)
(41.8908 -3.01732e-08 0)
(41.8903 -3.05197e-08 0)
(41.8899 -3.07334e-08 0)
(41.8896 -3.1438e-08 0)
(41.8893 -3.19028e-08 0)
(41.889 -3.20564e-08 0)
(41.8888 -3.23973e-08 0)
(41.8887 -3.2146e-08 0)
(41.8885 -3.27345e-08 0)
(41.8885 -3.35601e-08 0)
(41.8884 -3.33097e-08 0)
(41.8883 -3.25524e-08 0)
(41.8883 -2.55597e-08 0)
(41.8883 8.35214e-09 0)
(41.8883 1.83741e-07 0)
(41.8882 1.06327e-06 0)
(41.8879 5.48516e-06 0)
(41.8863 2.7586e-05 0)
(41.879 0.000135368 0)
(41.8446 0.000647975 0)
(41.6807 0.0030442 0)
(41.2155 0.0152804 0)
(36.6701 0.0551542 0)
(42.7013 0.000463011 0)
(42.7052 0.000330264 0)
(42.7099 0.00031297 0)
(42.7139 0.000310527 0)
(42.7177 0.000308281 0)
(42.7217 0.000306489 0)
(42.7259 0.000305014 0)
(42.7302 0.000303734 0)
(42.7347 0.000302603 0)
(42.7394 0.000301584 0)
(42.7444 0.000300688 0)
(42.7495 0.000299756 0)
(42.7548 0.000298982 0)
(42.7602 0.000298211 0)
(42.7658 0.000297453 0)
(42.7715 0.000296672 0)
(42.7772 0.000295814 0)
(42.7829 0.000294789 0)
(42.7886 0.000293468 0)
(42.7941 0.000291672 0)
(42.7994 0.000289164 0)
(42.8045 0.000285665 0)
(42.8093 0.000280863 0)
(42.8137 0.000274441 0)
(42.8176 0.000266112 0)
(42.8211 0.000255662 0)
(42.824 0.000242992 0)
(42.8264 0.000228142 0)
(42.8281 0.000211306 0)
(42.8291 0.000192805 0)
(42.8295 0.000173361 0)
(42.8291 0.00015296 0)
(42.828 0.000132856 0)
(42.8261 0.000113286 0)
(42.8235 9.4826e-05 0)
(42.8201 7.78931e-05 0)
(42.8161 6.27726e-05 0)
(42.8114 4.96184e-05 0)
(42.806 3.84619e-05 0)
(42.8001 2.92305e-05 0)
(42.7937 2.1774e-05 0)
(42.7868 1.58909e-05 0)
(42.7795 1.1357e-05 0)
(42.7719 7.92942e-06 0)
(42.764 5.41685e-06 0)
(42.7559 3.6e-06 0)
(42.7476 2.31026e-06 0)
(42.7393 1.41228e-06 0)
(42.731 8.03012e-07 0)
(42.7227 4.01827e-07 0)
(42.7145 1.44306e-07 0)
(42.7065 -1.59901e-08 0)
(42.6986 -1.11506e-07 0)
(42.691 -1.66517e-07 0)
(42.6837 -1.95279e-07 0)
(42.6766 -2.07356e-07 0)
(42.6699 -2.08992e-07 0)
(42.6635 -2.04392e-07 0)
(42.6574 -1.96158e-07 0)
(42.6517 -1.86088e-07 0)
(42.6463 -1.74898e-07 0)
(42.6413 -1.63458e-07 0)
(42.6366 -1.52074e-07 0)
(42.6323 -1.41099e-07 0)
(42.6283 -1.30586e-07 0)
(42.6246 -1.2063e-07 0)
(42.6212 -1.11227e-07 0)
(42.6181 -1.02458e-07 0)
(42.6153 -9.40748e-08 0)
(42.6128 -8.62924e-08 0)
(42.6104 -7.89453e-08 0)
(42.6083 -7.2285e-08 0)
(42.6064 -6.57584e-08 0)
(42.6047 -5.9993e-08 0)
(42.6031 -5.45232e-08 0)
(42.6017 -4.93381e-08 0)
(42.6005 -4.43385e-08 0)
(42.5994 -3.95474e-08 0)
(42.5984 -3.49445e-08 0)
(42.5976 -3.03841e-08 0)
(42.5969 -2.54674e-08 0)
(42.5964 -2.05127e-08 0)
(42.5959 -1.53848e-08 0)
(42.5956 -9.06179e-09 0)
(42.5954 1.8312e-09 0)
(42.5954 5.65319e-09 0)
(42.5955 1.20879e-08 0)
(42.5958 2.16589e-08 0)
(42.5962 3.20044e-08 0)
(42.5968 4.31362e-08 0)
(42.5975 5.52393e-08 0)
(42.5984 6.73924e-08 0)
(42.5995 8.0331e-08 0)
(42.6007 9.37217e-08 0)
(42.6021 1.07207e-07 0)
(42.6036 1.21673e-07 0)
(42.6052 1.36045e-07 0)
(42.6069 1.51739e-07 0)
(42.6087 1.67551e-07 0)
(42.6105 1.83723e-07 0)
(42.6122 2.00556e-07 0)
(42.6139 2.17057e-07 0)
(42.6155 2.33384e-07 0)
(42.6169 2.49462e-07 0)
(42.618 2.64647e-07 0)
(42.6189 2.78771e-07 0)
(42.6193 2.91715e-07 0)
(42.6193 3.03043e-07 0)
(42.6188 3.11643e-07 0)
(42.6178 3.19496e-07 0)
(42.616 3.24111e-07 0)
(42.6137 3.2618e-07 0)
(42.6106 3.25139e-07 0)
(42.6067 3.20847e-07 0)
(42.6021 3.14011e-07 0)
(42.5967 3.03762e-07 0)
(42.5904 2.88852e-07 0)
(42.5835 2.71196e-07 0)
(42.5758 2.49641e-07 0)
(42.5674 2.24176e-07 0)
(42.5584 1.94956e-07 0)
(42.5488 1.61651e-07 0)
(42.5388 1.25634e-07 0)
(42.5284 8.52892e-08 0)
(42.5178 4.04458e-08 0)
(42.507 -1.53069e-09 0)
(42.4962 -5.40338e-08 0)
(42.4855 -1.00054e-07 0)
(42.4749 -5.44758e-08 0)
(42.4644 -1.08235e-07 0)
(42.4545 -2.84703e-07 0)
(42.4454 -3.01315e-07 0)
(42.4367 -3.26985e-07 0)
(42.4287 -3.61664e-07 0)
(42.4214 -3.97706e-07 0)
(42.4149 -4.31474e-07 0)
(42.4091 -4.62856e-07 0)
(42.4041 -4.90763e-07 0)
(42.3999 -5.14576e-07 0)
(42.3966 -5.33549e-07 0)
(42.3939 -5.4758e-07 0)
(42.392 -5.56929e-07 0)
(42.3907 -5.60318e-07 0)
(42.39 -5.58297e-07 0)
(42.3897 -5.53537e-07 0)
(42.3899 -5.42887e-07 0)
(42.3904 -5.28165e-07 0)
(42.3912 -5.1064e-07 0)
(42.3921 -4.89203e-07 0)
(42.3932 -4.65327e-07 0)
(42.3942 -4.39007e-07 0)
(42.3953 -4.11707e-07 0)
(42.3962 -3.8274e-07 0)
(42.3971 -3.53014e-07 0)
(42.3978 -3.23864e-07 0)
(42.3984 -2.94499e-07 0)
(42.3987 -2.66298e-07 0)
(42.3989 -2.39312e-07 0)
(42.3989 -2.13835e-07 0)
(42.3987 -1.89283e-07 0)
(42.3983 -1.66121e-07 0)
(42.3978 -1.44027e-07 0)
(42.3971 -1.23419e-07 0)
(42.3964 -1.04779e-07 0)
(42.3955 -8.78247e-08 0)
(42.3946 -7.26818e-08 0)
(42.3936 -5.96908e-08 0)
(42.3926 -4.87223e-08 0)
(42.3916 -3.98164e-08 0)
(42.3906 -3.27141e-08 0)
(42.3896 -2.72334e-08 0)
(42.3887 -2.30456e-08 0)
(42.3878 -2.71353e-08 0)
(42.387 -1.49928e-08 0)
(42.3862 -1.31833e-08 0)
(42.3855 -1.35824e-08 0)
(42.3848 -1.4408e-08 0)
(42.3842 -1.37405e-08 0)
(42.3837 -1.49982e-08 0)
(42.3833 -1.55285e-08 0)
(42.3829 -1.69756e-08 0)
(42.3826 -1.78802e-08 0)
(42.3824 -1.83008e-08 0)
(42.3821 -1.88855e-08 0)
(42.382 -1.79437e-08 0)
(42.3818 -1.93253e-08 0)
(42.3817 -2.13104e-08 0)
(42.3817 -2.1663e-08 0)
(42.3816 -1.65122e-08 0)
(42.3816 4.08062e-09 0)
(42.3815 1.17284e-07 0)
(42.3815 6.83586e-07 0)
(42.3814 3.46652e-06 0)
(42.381 1.74022e-05 0)
(42.3795 8.70306e-05 0)
(42.3721 0.000426555 0)
(42.3374 0.00204093 0)
(42.1724 0.00956504 0)
(41.6972 0.0470615 0)
(37.2487 0.160727 0)
(42.7013 0.00036921 0)
(42.7052 0.000239329 0)
(42.7099 0.000231097 0)
(42.714 0.000235317 0)
(42.7178 0.000236753 0)
(42.7218 0.000237758 0)
(42.7261 0.000238745 0)
(42.7305 0.000239703 0)
(42.735 0.000240637 0)
(42.7398 0.000241545 0)
(42.7448 0.000242457 0)
(42.75 0.000243238 0)
(42.7554 0.00024408 0)
(42.7609 0.000244845 0)
(42.7666 0.000245548 0)
(42.7724 0.000246164 0)
(42.7783 0.000246646 0)
(42.7841 0.000246918 0)
(42.7899 0.000246864 0)
(42.7955 0.000246325 0)
(42.801 0.000245091 0)
(42.8062 0.000242911 0)
(42.8111 0.000239505 0)
(42.8156 0.00023459 0)
(42.8196 0.000227913 0)
(42.8232 0.000219287 0)
(42.8261 0.000208629 0)
(42.8285 0.000195987 0)
(42.8302 0.000181543 0)
(42.8313 0.000165596 0)
(42.8316 0.000148817 0)
(42.8312 0.000131153 0)
(42.83 0.000113774 0)
(42.828 9.68648e-05 0)
(42.8253 8.0937e-05 0)
(42.8218 6.63538e-05 0)
(42.8177 5.33596e-05 0)
(42.8129 4.20819e-05 0)
(42.8075 3.2541e-05 0)
(42.8015 2.4667e-05 0)
(42.795 1.83238e-05 0)
(42.7881 1.33327e-05 0)
(42.7808 9.49615e-06 0)
(42.7731 6.60214e-06 0)
(42.7652 4.48982e-06 0)
(42.7571 2.96336e-06 0)
(42.7488 1.88377e-06 0)
(42.7405 1.13685e-06 0)
(42.7322 6.3406e-07 0)
(42.7239 3.0655e-07 0)
(42.7157 1.01371e-07 0)
(42.7077 -1.72966e-08 0)
(42.6998 -1.01049e-07 0)
(42.6922 -1.48919e-07 0)
(42.6849 -1.73815e-07 0)
(42.6778 -1.84353e-07 0)
(42.6711 -1.86011e-07 0)
(42.6646 -1.82347e-07 0)
(42.6586 -1.75591e-07 0)
(42.6529 -1.67273e-07 0)
(42.6475 -1.57981e-07 0)
(42.6425 -1.48477e-07 0)
(42.6378 -1.39001e-07 0)
(42.6335 -1.29856e-07 0)
(42.6295 -1.21065e-07 0)
(42.6258 -1.1276e-07 0)
(42.6224 -1.04908e-07 0)
(42.6193 -9.75707e-08 0)
(42.6165 -9.05864e-08 0)
(42.6139 -8.41304e-08 0)
(42.6116 -7.80159e-08 0)
(42.6095 -7.24833e-08 0)
(42.6076 -6.71067e-08 0)
(42.6058 -6.23517e-08 0)
(42.6043 -5.78765e-08 0)
(42.6029 -5.37085e-08 0)
(42.6017 -4.96531e-08 0)
(42.6006 -4.57906e-08 0)
(42.5996 -4.2169e-08 0)
(42.5988 -3.84567e-08 0)
(42.5981 -3.45885e-08 0)
(42.5975 -3.0679e-08 0)
(42.5971 -2.65128e-08 0)
(42.5968 -2.14454e-08 0)
(42.5966 -1.20077e-08 0)
(42.5966 -1.0065e-08 0)
(42.5967 -8.69009e-09 0)
(42.5969 -3.90621e-09 0)
(42.5974 2.08836e-09 0)
(42.598 9.10509e-09 0)
(42.5987 1.71507e-08 0)
(42.5996 2.55829e-08 0)
(42.6007 3.50647e-08 0)
(42.6019 4.54373e-08 0)
(42.6033 5.64065e-08 0)
(42.6048 6.84044e-08 0)
(42.6064 8.01982e-08 0)
(42.6081 9.28849e-08 0)
(42.6099 1.05516e-07 0)
(42.6116 1.18406e-07 0)
(42.6134 1.31784e-07 0)
(42.6151 1.449e-07 0)
(42.6167 1.57858e-07 0)
(42.6181 1.70571e-07 0)
(42.6192 1.82533e-07 0)
(42.62 1.93559e-07 0)
(42.6205 2.03658e-07 0)
(42.6205 2.12372e-07 0)
(42.62 2.18817e-07 0)
(42.6189 2.24724e-07 0)
(42.6172 2.27852e-07 0)
(42.6148 2.28828e-07 0)
(42.6117 2.27232e-07 0)
(42.6079 2.22928e-07 0)
(42.6032 2.16453e-07 0)
(42.5978 2.07225e-07 0)
(42.5916 1.9421e-07 0)
(42.5847 1.78862e-07 0)
(42.577 1.60384e-07 0)
(42.5686 1.38724e-07 0)
(42.5596 1.13993e-07 0)
(42.55 8.60967e-08 0)
(42.54 5.62085e-08 0)
(42.5296 2.34297e-08 0)
(42.5189 -1.09687e-08 0)
(42.5081 -4.58683e-08 0)
(42.4974 -8.68478e-08 0)
(42.4867 -1.24019e-07 0)
(42.4761 -8.84855e-08 0)
(42.4656 -1.36308e-07 0)
(42.4557 -2.87081e-07 0)
(42.4465 -2.94558e-07 0)
(42.4379 -3.13955e-07 0)
(42.4299 -3.41648e-07 0)
(42.4226 -3.6991e-07 0)
(42.416 -3.9585e-07 0)
(42.4103 -4.19432e-07 0)
(42.4053 -4.39911e-07 0)
(42.4011 -4.56848e-07 0)
(42.3977 -4.6959e-07 0)
(42.3951 -4.78071e-07 0)
(42.3932 -4.82491e-07 0)
(42.3919 -4.81933e-07 0)
(42.3912 -4.77006e-07 0)
(42.3909 -4.6967e-07 0)
(42.3911 -4.57565e-07 0)
(42.3916 -4.42223e-07 0)
(42.3924 -4.24748e-07 0)
(42.3933 -4.04244e-07 0)
(42.3943 -3.81998e-07 0)
(42.3954 -3.58039e-07 0)
(42.3965 -3.33458e-07 0)
(42.3974 -3.07802e-07 0)
(42.3983 -2.81814e-07 0)
(42.399 -2.56499e-07 0)
(42.3995 -2.31249e-07 0)
(42.3999 -2.07095e-07 0)
(42.4001 -1.83926e-07 0)
(42.4001 -1.62077e-07 0)
(42.3999 -1.41362e-07 0)
(42.3995 -1.22536e-07 0)
(42.399 -1.0539e-07 0)
(42.3983 -9.01848e-08 0)
(42.3976 -7.7026e-08 0)
(42.3967 -6.55047e-08 0)
(42.3958 -5.55572e-08 0)
(42.3948 -4.73027e-08 0)
(42.3938 -4.06035e-08 0)
(42.3928 -3.54663e-08 0)
(42.3918 -3.16292e-08 0)
(42.3908 -2.88615e-08 0)
(42.3898 -2.70826e-08 0)
(42.389 -3.23296e-08 0)
(42.3881 -2.29874e-08 0)
(42.3873 -2.22237e-08 0)
(42.3866 -2.32314e-08 0)
(42.386 -2.56219e-08 0)
(42.3854 -2.47506e-08 0)
(42.3849 -2.66693e-08 0)
(42.3845 -2.68018e-08 0)
(42.3841 -2.86612e-08 0)
(42.3838 -2.91131e-08 0)
(42.3835 -3.01585e-08 0)
(42.3833 -3.01474e-08 0)
(42.3832 -2.81204e-08 0)
(42.383 -2.97351e-08 0)
(42.3829 -3.26279e-08 0)
(42.3828 -3.48287e-08 0)
(42.3828 -2.04397e-08 0)
(42.3827 1.37381e-08 0)
(42.3827 2.14395e-07 0)
(42.3827 1.22615e-06 0)
(42.3826 6.18543e-06 0)
(42.3822 3.10052e-05 0)
(42.3807 0.000155024 0)
(42.3735 0.000759938 0)
(42.3395 0.00363891 0)
(42.1782 0.0170548 0)
(41.7191 0.083649 0)
(37.3841 0.28215 0)
(42.7013 0.00037533 0)
(42.7052 0.000277362 0)
(42.7099 0.000270696 0)
(42.7139 0.000276102 0)
(42.7177 0.000277137 0)
(42.7218 0.000277341 0)
(42.7261 0.000277413 0)
(42.7304 0.000277348 0)
(42.735 0.000277183 0)
(42.7398 0.000276954 0)
(42.7448 0.000276711 0)
(42.75 0.000276346 0)
(42.7554 0.000276049 0)
(42.7609 0.000275699 0)
(42.7666 0.000275314 0)
(42.7724 0.000274872 0)
(42.7782 0.000274326 0)
(42.7841 0.000273598 0)
(42.7898 0.000272569 0)
(42.7955 0.000271076 0)
(42.801 0.000268898 0)
(42.8062 0.000265776 0)
(42.8111 0.000261418 0)
(42.8156 0.000255527 0)
(42.8196 0.000247837 0)
(42.8232 0.00023815 0)
(42.8261 0.000226374 0)
(42.8285 0.000212551 0)
(42.8302 0.000196862 0)
(42.8313 0.000179622 0)
(42.8316 0.000161491 0)
(42.8312 0.000142474 0)
(42.83 0.000123733 0)
(42.828 0.000105494 0)
(42.8253 8.8294e-05 0)
(42.8218 7.25211e-05 0)
(42.8177 5.84401e-05 0)
(42.8129 4.61931e-05 0)
(42.8075 3.58081e-05 0)
(42.8015 2.72166e-05 0)
(42.795 2.02778e-05 0)
(42.7881 1.48036e-05 0)
(42.7808 1.05843e-05 0)
(42.7731 7.39466e-06 0)
(42.7652 5.05684e-06 0)
(42.7571 3.36421e-06 0)
(42.7488 2.1643e-06 0)
(42.7405 1.3314e-06 0)
(42.7322 7.6844e-07 0)
(42.7239 3.99406e-07 0)
(42.7157 1.6236e-07 0)
(42.7077 4.55214e-09 0)
(42.6998 -8.20969e-08 0)
(42.6922 -1.32733e-07 0)
(42.6849 -1.59459e-07 0)
(42.6778 -1.70886e-07 0)
(42.6711 -1.72924e-07 0)
(42.6647 -1.6936e-07 0)
(42.6586 -1.6256e-07 0)
(42.6529 -1.54103e-07 0)
(42.6475 -1.44657e-07 0)
(42.6425 -1.34957e-07 0)
(42.6378 -1.25283e-07 0)
(42.6335 -1.15916e-07 0)
(42.6295 -1.06927e-07 0)
(42.6258 -9.84008e-08 0)
(42.6224 -9.03457e-08 0)
(42.6193 -8.27937e-08 0)
(42.6165 -7.55222e-08 0)
(42.6139 -6.87847e-08 0)
(42.6116 -6.23855e-08 0)
(42.6095 -5.65494e-08 0)
(42.6076 -5.08962e-08 0)
(42.6058 -4.58241e-08 0)
(42.6043 -4.11273e-08 0)
(42.6029 -3.65828e-08 0)
(42.6017 -3.23128e-08 0)
(42.6006 -2.82591e-08 0)
(42.5996 -2.41209e-08 0)
(42.5988 -2.05022e-08 0)
(42.5981 -1.64383e-08 0)
(42.5975 -1.19948e-08 0)
(42.5971 -8.18074e-09 0)
(42.5968 -3.53587e-09 0)
(42.5966 6.61286e-09 0)
(42.5966 1.10514e-08 0)
(42.5967 1.82908e-08 0)
(42.597 2.61186e-08 0)
(42.5974 3.37626e-08 0)
(42.598 4.16559e-08 0)
(42.5987 5.02404e-08 0)
(42.5996 5.90402e-08 0)
(42.6007 6.86541e-08 0)
(42.6019 7.89854e-08 0)
(42.6033 8.97758e-08 0)
(42.6048 1.01534e-07 0)
(42.6064 1.13125e-07 0)
(42.6081 1.25575e-07 0)
(42.6099 1.38025e-07 0)
(42.6117 1.50665e-07 0)
(42.6134 1.63778e-07 0)
(42.6151 1.76567e-07 0)
(42.6167 1.89154e-07 0)
(42.6181 2.01476e-07 0)
(42.6192 2.13059e-07 0)
(42.62 2.23742e-07 0)
(42.6205 2.33325e-07 0)
(42.6205 2.41708e-07 0)
(42.62 2.47667e-07 0)
(42.6189 2.53102e-07 0)
(42.6172 2.55951e-07 0)
(42.6148 2.56733e-07 0)
(42.6117 2.55016e-07 0)
(42.6079 2.50744e-07 0)
(42.6033 2.44698e-07 0)
(42.5978 2.35803e-07 0)
(42.5916 2.23136e-07 0)
(42.5847 2.08645e-07 0)
(42.577 1.90903e-07 0)
(42.5686 1.70246e-07 0)
(42.5596 1.46787e-07 0)
(42.55 1.20217e-07 0)
(42.54 9.1842e-08 0)
(42.5296 6.06731e-08 0)
(42.5189 2.76927e-08 0)
(42.5082 -1.63837e-08 0)
(42.4974 -6.49172e-08 0)
(42.4867 -1.042e-07 0)
(42.4761 -6.10552e-08 0)
(42.4656 -1.03676e-07 0)
(42.4557 -2.49711e-07 0)
(42.4465 -2.60907e-07 0)
(42.4379 -2.80522e-07 0)
(42.4299 -3.07447e-07 0)
(42.4226 -3.3519e-07 0)
(42.416 -3.61077e-07 0)
(42.4103 -3.84992e-07 0)
(42.4053 -4.06116e-07 0)
(42.4011 -4.23924e-07 0)
(42.3977 -4.37789e-07 0)
(42.3951 -4.47615e-07 0)
(42.3932 -4.53586e-07 0)
(42.3919 -4.54745e-07 0)
(42.3912 -4.5173e-07 0)
(42.3909 -4.46454e-07 0)
(42.3911 -4.36602e-07 0)
(42.3916 -4.23599e-07 0)
(42.3924 -4.08495e-07 0)
(42.3933 -3.90374e-07 0)
(42.3943 -3.70449e-07 0)
(42.3954 -3.48735e-07 0)
(42.3965 -3.26331e-07 0)
(42.3974 -3.02764e-07 0)
(42.3983 -2.78733e-07 0)
(42.399 -2.55244e-07 0)
(42.3995 -2.31697e-07 0)
(42.3999 -2.09088e-07 0)
(42.4001 -1.87362e-07 0)
(42.4001 -1.66835e-07 0)
(42.3999 -1.4731e-07 0)
(42.3995 -1.29469e-07 0)
(42.399 -1.12928e-07 0)
(42.3983 -9.79671e-08 0)
(42.3976 -8.46977e-08 0)
(42.3967 -7.28216e-08 0)
(42.3958 -6.2331e-08 0)
(42.3948 -5.33708e-08 0)
(42.3938 -4.57078e-08 0)
(42.3928 -3.92389e-08 0)
(42.3918 -3.38127e-08 0)
(42.3908 -2.93334e-08 0)
(42.3898 -2.58773e-08 0)
(42.389 -3.06039e-08 0)
(42.3881 -1.9709e-08 0)
(42.3873 -1.6143e-08 0)
(42.3866 -1.56485e-08 0)
(42.386 -1.84749e-08 0)
(42.3854 -1.5963e-08 0)
(42.3849 -1.80805e-08 0)
(42.3845 -1.72691e-08 0)
(42.3841 -1.93541e-08 0)
(42.3838 -1.89147e-08 0)
(42.3835 -2.02196e-08 0)
(42.3833 -1.92774e-08 0)
(42.3832 -1.58928e-08 0)
(42.383 -1.76598e-08 0)
(42.3829 -2.18489e-08 0)
(42.3828 -2.58241e-08 0)
(42.3828 -1.60112e-09 0)
(42.3827 4.89493e-08 0)
(42.3827 3.4504e-07 0)
(42.3827 1.85176e-06 0)
(42.3826 9.2522e-06 0)
(42.3822 4.6306e-05 0)
(42.3807 0.000231475 0)
(42.3736 0.00113498 0)
(42.3398 0.0054391 0)
(42.1796 0.0254807 0)
(41.7247 0.124874 0)
(37.4938 0.416994 0)
(42.7013 0.000352034 0)
(42.7052 0.000252666 0)
(42.7099 0.000233708 0)
(42.7139 0.00023518 0)
(42.7177 0.000233899 0)
(42.7218 0.000232815 0)
(42.726 0.000232349 0)
(42.7304 0.000232181 0)
(42.735 0.000232185 0)
(42.7398 0.000232303 0)
(42.7448 0.000232524 0)
(42.75 0.000232705 0)
(42.7554 0.000232997 0)
(42.7609 0.000233269 0)
(42.7666 0.000233523 0)
(42.7724 0.00023373 0)
(42.7782 0.000233842 0)
(42.7841 0.000233783 0)
(42.7898 0.000233446 0)
(42.7955 0.00023268 0)
(42.8009 0.000231288 0)
(42.8062 0.000229038 0)
(42.811 0.000225666 0)
(42.8156 0.000220911 0)
(42.8196 0.000214534 0)
(42.8232 0.000206359 0)
(42.8261 0.000196307 0)
(42.8285 0.000184417 0)
(42.8302 0.00017085 0)
(42.8313 0.000155897 0)
(42.8316 0.000140145 0)
(42.8312 0.000123581 0)
(42.83 0.00010727 0)
(42.828 9.13895e-05 0)
(42.8253 7.64199e-05 0)
(42.8218 6.27019e-05 0)
(42.8177 5.04666e-05 0)
(42.8129 3.98367e-05 0)
(42.8075 3.08341e-05 0)
(42.8015 2.33962e-05 0)
(42.795 1.73977e-05 0)
(42.7881 1.26724e-05 0)
(42.7808 9.03578e-06 0)
(42.7731 6.29066e-06 0)
(42.7652 4.28274e-06 0)
(42.7571 2.83213e-06 0)
(42.7488 1.80513e-06 0)
(42.7405 1.09333e-06 0)
(42.7322 6.13297e-07 0)
(42.7239 2.99323e-07 0)
(42.7157 9.85357e-08 0)
(42.7077 -2.21097e-08 0)
(42.6998 -1.0083e-07 0)
(42.6922 -1.45575e-07 0)
(42.6849 -1.68876e-07 0)
(42.6778 -1.78789e-07 0)
(42.6711 -1.80315e-07 0)
(42.6647 -1.76743e-07 0)
(42.6586 -1.70195e-07 0)
(42.6529 -1.62113e-07 0)
(42.6475 -1.53126e-07 0)
(42.6425 -1.43896e-07 0)
(42.6378 -1.34717e-07 0)
(42.6335 -1.25864e-07 0)
(42.6295 -1.17375e-07 0)
(42.6258 -1.09352e-07 0)
(42.6224 -1.01768e-07 0)
(42.6193 -9.46919e-08 0)
(42.6165 -8.79835e-08 0)
(42.6139 -8.17619e-08 0)
(42.6116 -7.59234e-08 0)
(42.6095 -7.06176e-08 0)
(42.6076 -6.54465e-08 0)
(42.6058 -6.08845e-08 0)
(42.6043 -5.65344e-08 0)
(42.6029 -5.25296e-08 0)
(42.6017 -4.85314e-08 0)
(42.6006 -4.47361e-08 0)
(42.5996 -4.12842e-08 0)
(42.5988 -3.75463e-08 0)
(42.5981 -3.37094e-08 0)
(42.5975 -2.99218e-08 0)
(42.5971 -2.58856e-08 0)
(42.5968 -2.10079e-08 0)
(42.5966 -1.21886e-08 0)
(42.5966 -1.00883e-08 0)
(42.5967 -5.78682e-09 0)
(42.597 8.77104e-10 0)
(42.5974 8.08572e-09 0)
(42.598 1.58227e-08 0)
(42.5987 2.43668e-08 0)
(42.5996 3.32519e-08 0)
(42.6007 4.30024e-08 0)
(42.6019 5.34833e-08 0)
(42.6033 6.44246e-08 0)
(42.6048 7.62655e-08 0)
(42.6064 8.79575e-08 0)
(42.6081 1.00393e-07 0)
(42.6099 1.12854e-07 0)
(42.6117 1.25513e-07 0)
(42.6134 1.38576e-07 0)
(42.6151 1.51352e-07 0)
(42.6167 1.63948e-07 0)
(42.6181 1.76304e-07 0)
(42.6192 1.8795e-07 0)
(42.62 1.98728e-07 0)
(42.6205 2.0848e-07 0)
(42.6205 2.16995e-07 0)
(42.62 2.2322e-07 0)
(42.6189 2.28868e-07 0)
(42.6172 2.31949e-07 0)
(42.6148 2.32952e-07 0)
(42.6117 2.31494e-07 0)
(42.6079 2.27482e-07 0)
(42.6033 2.21593e-07 0)
(42.5978 2.12754e-07 0)
(42.5916 2.00298e-07 0)
(42.5847 1.8589e-07 0)
(42.577 1.68145e-07 0)
(42.5686 1.47401e-07 0)
(42.5596 1.23767e-07 0)
(42.55 9.6822e-08 0)
(42.54 6.76383e-08 0)
(42.5296 3.49911e-08 0)
(42.5189 -9.66778e-10 0)
(42.5082 -3.28951e-08 0)
(42.4974 -7.4761e-08 0)
(42.4867 -1.10862e-07 0)
(42.4761 -7.73222e-08 0)
(42.4656 -1.20124e-07 0)
(42.4557 -2.59111e-07 0)
(42.4465 -2.71131e-07 0)
(42.4379 -2.90104e-07 0)
(42.4299 -3.16532e-07 0)
(42.4226 -3.43964e-07 0)
(42.416 -3.69455e-07 0)
(42.4103 -3.93108e-07 0)
(42.4053 -4.13902e-07 0)
(42.4011 -4.31361e-07 0)
(42.3977 -4.44981e-07 0)
(42.3951 -4.54684e-07 0)
(42.3932 -4.60676e-07 0)
(42.3919 -4.62056e-07 0)
(42.3912 -4.59089e-07 0)
(42.3909 -4.53884e-07 0)
(42.3911 -4.44261e-07 0)
(42.3916 -4.31326e-07 0)
(42.3924 -4.16278e-07 0)
(42.3933 -3.98321e-07 0)
(42.3943 -3.78482e-07 0)
(42.3954 -3.56847e-07 0)
(42.3965 -3.34548e-07 0)
(42.3974 -3.11052e-07 0)
(42.3983 -2.87057e-07 0)
(42.399 -2.63539e-07 0)
(42.3995 -2.39919e-07 0)
(42.3999 -2.17182e-07 0)
(42.4001 -1.9528e-07 0)
(42.4001 -1.7448e-07 0)
(42.3999 -1.54638e-07 0)
(42.3995 -1.36433e-07 0)
(42.399 -1.19478e-07 0)
(42.3983 -1.04086e-07 0)
(42.3976 -9.04185e-08 0)
(42.3967 -7.81715e-08 0)
(42.3958 -6.73488e-08 0)
(42.3948 -5.8088e-08 0)
(42.3938 -5.01709e-08 0)
(42.3928 -4.35331e-08 0)
(42.3918 -3.80501e-08 0)
(42.3908 -3.35944e-08 0)
(42.3898 -3.0361e-08 0)
(42.389 -3.58989e-08 0)
(42.3881 -2.51221e-08 0)
(42.3873 -2.08571e-08 0)
(42.3866 -2.04789e-08 0)
(42.386 -2.48622e-08 0)
(42.3854 -2.19581e-08 0)
(42.3849 -2.48919e-08 0)
(42.3845 -2.37714e-08 0)
(42.3841 -2.64513e-08 0)
(42.3838 -2.57126e-08 0)
(42.3835 -2.77352e-08 0)
(42.3833 -2.64739e-08 0)
(42.3832 -2.17934e-08 0)
(42.383 -2.40189e-08 0)
(42.3829 -3.0172e-08 0)
(42.3828 -3.65704e-08 0)
(42.3828 -2.03118e-09 0)
(42.3827 6.71736e-08 0)
(42.3827 4.76612e-07 0)
(42.3827 2.55206e-06 0)
(42.3826 1.27373e-05 0)
(42.3822 6.37402e-05 0)
(42.3807 0.000318627 0)
(42.3736 0.00156284 0)
(42.3403 0.00749467 0)
(42.1817 0.0350859 0)
(41.7319 0.17152 0)
(37.6125 0.566634 0)
(42.7013 0.000330601 0)
(42.7052 0.000245806 0)
(42.7099 0.000229805 0)
(42.7139 0.000236504 0)
(42.7177 0.000238476 0)
(42.7218 0.000239276 0)
(42.726 0.000240007 0)
(42.7304 0.000240581 0)
(42.735 0.000241018 0)
(42.7398 0.000241361 0)
(42.7448 0.000241661 0)
(42.75 0.000241824 0)
(42.7554 0.00024202 0)
(42.7609 0.000242145 0)
(42.7666 0.000242215 0)
(42.7724 0.000242214 0)
(42.7782 0.000242101 0)
(42.7841 0.000241807 0)
(42.7898 0.000241228 0)
(42.7955 0.000240218 0)
(42.8009 0.000238581 0)
(42.8061 0.000236084 0)
(42.811 0.000232464 0)
(42.8155 0.000227455 0)
(42.8196 0.000220818 0)
(42.8231 0.000212372 0)
(42.8261 0.000202033 0)
(42.8285 0.000189837 0)
(42.8302 0.00017594 0)
(42.8313 0.000160642 0)
(42.8316 0.000144501 0)
(42.8312 0.000127554 0)
(42.83 0.000110833 0)
(42.828 9.45383e-05 0)
(42.8253 7.91593e-05 0)
(42.8218 6.50454e-05 0)
(42.8177 5.2437e-05 0)
(42.8129 4.14642e-05 0)
(42.8075 3.21545e-05 0)
(42.8015 2.44486e-05 0)
(42.795 1.8222e-05 0)
(42.7881 1.33075e-05 0)
(42.7808 9.51735e-06 0)
(42.7731 6.65156e-06 0)
(42.7652 4.54887e-06 0)
(42.7571 3.02753e-06 0)
(42.7488 1.94771e-06 0)
(42.7405 1.19754e-06 0)
(42.7322 6.90381e-07 0)
(42.7239 3.57766e-07 0)
(42.7157 1.44599e-07 0)
(42.7077 8.58558e-09 0)
(42.6998 -7.18652e-08 0)
(42.6922 -1.18788e-07 0)
(42.6849 -1.43653e-07 0)
(42.6778 -1.54482e-07 0)
(42.6711 -1.56632e-07 0)
(42.6647 -1.53604e-07 0)
(42.6586 -1.47576e-07 0)
(42.6529 -1.40013e-07 0)
(42.6475 -1.31542e-07 0)
(42.6425 -1.22807e-07 0)
(42.6378 -1.141e-07 0)
(42.6335 -1.05687e-07 0)
(42.6295 -9.75998e-08 0)
(42.6258 -8.9944e-08 0)
(42.6224 -8.27075e-08 0)
(42.6193 -7.59371e-08 0)
(42.6165 -6.94619e-08 0)
(42.6139 -6.34376e-08 0)
(42.6116 -5.77573e-08 0)
(42.6095 -5.25578e-08 0)
(42.6076 -4.75411e-08 0)
(42.6058 -4.30486e-08 0)
(42.6043 -3.88445e-08 0)
(42.6029 -3.48705e-08 0)
(42.6017 -3.1028e-08 0)
(42.6006 -2.73976e-08 0)
(42.5996 -2.38744e-08 0)
(42.5988 -2.04449e-08 0)
(42.5981 -1.68035e-08 0)
(42.5975 -1.29657e-08 0)
(42.5971 -9.31859e-09 0)
(42.5968 -4.8437e-09 0)
(42.5966 3.94615e-09 0)
(42.5966 7.11981e-09 0)
(42.5967 1.16128e-08 0)
(42.597 1.75199e-08 0)
(42.5974 2.37852e-08 0)
(42.598 3.05238e-08 0)
(42.5987 3.80268e-08 0)
(42.5996 4.58705e-08 0)
(42.6007 5.45626e-08 0)
(42.6019 6.39777e-08 0)
(42.6033 7.38924e-08 0)
(42.6048 8.46832e-08 0)
(42.6064 9.53832e-08 0)
(42.6081 1.06836e-07 0)
(42.6099 1.18291e-07 0)
(42.6117 1.29988e-07 0)
(42.6134 1.4214e-07 0)
(42.6151 1.5404e-07 0)
(42.6167 1.65763e-07 0)
(42.6181 1.77253e-07 0)
(42.6192 1.88063e-07 0)
(42.62 1.97913e-07 0)
(42.6205 2.0708e-07 0)
(42.6205 2.1486e-07 0)
(42.62 2.20785e-07 0)
(42.6189 2.26094e-07 0)
(42.6172 2.2896e-07 0)
(42.6148 2.2988e-07 0)
(42.6117 2.28501e-07 0)
(42.6079 2.24732e-07 0)
(42.6033 2.19004e-07 0)
(42.5978 2.10796e-07 0)
(42.5916 1.99242e-07 0)
(42.5847 1.85539e-07 0)
(42.577 1.69085e-07 0)
(42.5686 1.49798e-07 0)
(42.5596 1.27737e-07 0)
(42.55 1.0286e-07 0)
(42.54 7.62278e-08 0)
(42.5296 4.71603e-08 0)
(42.5189 1.7186e-08 0)
(42.5082 -1.96139e-08 0)
(42.4974 -6.09029e-08 0)
(42.4867 -9.48358e-08 0)
(42.4761 -6.15318e-08 0)
(42.4656 -9.93835e-08 0)
(42.4557 -2.29931e-07 0)
(42.4465 -2.42884e-07 0)
(42.4379 -2.60528e-07 0)
(42.4299 -2.85181e-07 0)
(42.4226 -3.10772e-07 0)
(42.416 -3.34634e-07 0)
(42.4103 -3.56596e-07 0)
(42.4053 -3.75882e-07 0)
(42.4011 -3.92157e-07 0)
(42.3977 -4.0477e-07 0)
(42.3951 -4.13617e-07 0)
(42.3932 -4.18821e-07 0)
(42.3919 -4.19677e-07 0)
(42.3912 -4.16658e-07 0)
(42.3909 -4.114e-07 0)
(42.3911 -4.01986e-07 0)
(42.3916 -3.89572e-07 0)
(42.3924 -3.75205e-07 0)
(42.3933 -3.58075e-07 0)
(42.3943 -3.39242e-07 0)
(42.3954 -3.18801e-07 0)
(42.3965 -2.97638e-07 0)
(42.3974 -2.75417e-07 0)
(42.3983 -2.52739e-07 0)
(42.399 -2.30523e-07 0)
(42.3995 -2.08299e-07 0)
(42.3999 -1.86901e-07 0)
(42.4001 -1.66329e-07 0)
(42.4001 -1.46885e-07 0)
(42.3999 -1.28397e-07 0)
(42.3995 -1.11497e-07 0)
(42.399 -9.58527e-08 0)
(42.3983 -8.17934e-08 0)
(42.3976 -6.94037e-08 0)
(42.3967 -5.84422e-08 0)
(42.3958 -4.88918e-08 0)
(42.3948 -4.08384e-08 0)
(42.3938 -3.40649e-08 0)
(42.3928 -2.84954e-08 0)
(42.3918 -2.3951e-08 0)
(42.3908 -2.02666e-08 0)
(42.3898 -1.777e-08 0)
(42.389 -2.45138e-08 0)
(42.3881 -1.37397e-08 0)
(42.3873 -9.61036e-09 0)
(42.3866 -8.96778e-09 0)
(42.386 -1.46954e-08 0)
(42.3854 -1.10584e-08 0)
(42.3849 -1.46103e-08 0)
(42.3845 -1.29366e-08 0)
(42.3841 -1.60219e-08 0)
(42.3838 -1.47148e-08 0)
(42.3835 -1.73537e-08 0)
(42.3833 -1.53926e-08 0)
(42.3832 -8.941e-09 0)
(42.383 -1.1469e-08 0)
(42.3829 -1.97694e-08 0)
(42.3828 -2.87244e-08 0)
(42.3828 1.91678e-08 0)
(42.3827 1.08214e-07 0)
(42.3827 6.4534e-07 0)
(42.3827 3.36585e-06 0)
(42.3826 1.67128e-05 0)
(42.3822 8.35517e-05 0)
(42.3808 0.000417559 0)
(42.3738 0.00204885 0)
(42.3409 0.00983164 0)
(42.1851 0.0459827 0)
(41.7427 0.224028 0)
(37.752 0.729419 0)
(42.7013 0.000273566 0)
(42.7051 0.000212626 0)
(42.7098 0.000192608 0)