/*--------------------------------*- C++ -*----------------------------------*\
| =========                 |                                                 |
| \\      /  F ield         | OpenFOAM: The Open Source CFD Toolbox           |
|  \\    /   O peration     | Version:  3.0.x                                 |
|   \\  /    A nd           | Web:      www.OpenFOAM.org                      |
|    \\/     M anipulation  |                                                 |
\*---------------------------------------------------------------------------*/
FoamFile
{
    version     2.0;
    format      ascii;
    class       surfaceScalarField;
    location    "0.43995";
    object      phi;
}
// * * * * * * * * * * * * * * * * * * * * * * * * * * * * * * * * * * * * * //

dimensions      [1 0 -1 0 0 0 0];

internalField   nonuniform List<scalar> 
26210
(
6.98892
0.000504268
6.98854
0.000348834
6.98817
0.000339046
6.9878
0.000341843
6.98743
0.00034213
6.98705
0.00034201
6.98668
0.000341997
6.98631
0.000341999
6.98594
0.000341993
6.98556
0.000341986
6.98519
0.000341978
6.98482
0.00034197
6.98444
0.000341962
6.98407
0.000341945
6.9837
0.00034193
6.98332
0.000341954
6.98295
0.000341927
6.98257
0.000341916
6.9822
0.000341906
6.98182
0.000341897
6.98145
0.000341888
6.98107
0.000341879
6.9807
0.00034187
6.98032
0.000341866
6.97994
0.000341865
6.97957
0.000341827
6.97919
0.000341834
6.97881
0.000341826
6.97844
0.000341818
6.97806
0.000341808
6.97768
0.000341797
6.97731
0.000341789
6.97693
0.000341779
6.97655
0.000341783
6.97617
0.000341764
6.9758
0.000341754
6.97542
0.000341744
6.97504
0.000341734
6.97466
0.000341723
6.97428
0.000341712
6.97391
0.000341694
6.97353
0.000341696
6.97315
0.000341677
6.97277
0.000341664
6.97239
0.000341652
6.97202
0.00034164
6.97164
0.000341653
6.97126
0.000341608
6.97088
0.000341525
6.9705
0.000341663
6.97011
0.000341624
6.96973
0.000341597
6.96934
0.000341597
6.96896
0.000341599
6.96858
0.000341603
6.96821
0.000341453
6.96783
0.000341527
6.96746
0.000342276
6.9671
0.000341249
6.96674
0.000341658
6.96637
0.000341686
6.966
0.000341702
6.96563
0.000341721
6.96526
0.000341739
6.96489
0.000341756
6.96451
0.000341772
6.96414
0.000341786
6.96376
0.000341799
6.96338
0.000341783
6.963
0.000341784
6.96262
0.000341737
6.96224
0.000342008
6.96186
0.000341847
6.96148
0.000341852
6.96111
0.00034186
6.96073
0.000341736
6.96036
0.000341751
6.95999
0.000342355
6.95963
0.000341711
6.95927
0.000341924
6.9589
0.000341954
6.95854
0.000341975
6.95817
0.000341999
6.9578
0.000342025
6.95743
0.000342049
6.95707
0.0003418
6.95671
0.000342812
6.95635
0.000341697
6.956
0.000342153
6.95564
0.000342184
6.95529
0.000342209
6.95493
0.000342233
6.95458
0.000342252
6.95422
0.000342268
6.95386
0.000342277
6.9535
0.000342277
6.95314
0.000342266
6.95278
0.000342241
6.95241
0.000342197
6.95205
0.000342197
6.95168
0.000342018
6.95131
0.000341403
6.95094
0.000342136
6.95057
0.000341448
6.95021
0.000341115
6.94985
0.000340692
6.94948
0.000340017
6.94913
0.000339324
6.94877
0.000338565
6.94843
0.000338568
6.94809
0.00033582
6.94774
0.000334886
6.9474
0.000333097
6.94706
0.000330973
6.94672
0.000328478
6.94638
0.000325572
6.94604
0.000322216
6.94571
0.000318373
6.94538
0.000314007
6.94505
0.000309088
6.94473
0.000303593
6.94441
0.000297501
6.9441
0.0002908
6.9438
0.000283455
6.94351
0.000275559
6.94322
0.000267157
6.94295
0.000258034
6.94268
0.000248454
6.94242
0.000238399
6.94217
0.00022794
6.94194
0.000217084
6.94171
0.000205946
6.94149
0.000194622
6.94129
0.00018315
6.94109
0.000171624
6.9409
0.000160127
6.94073
0.00014874
6.94056
0.00013754
6.9404
0.0001266
6.94026
0.000115989
6.94011
0.000105766
6.93998
9.59833e-05
6.93985
8.66858e-05
6.93973
7.7908e-05
6.93961
6.96759e-05
6.93949
6.20063e-05
6.93938
5.49076e-05
6.93927
4.83801e-05
6.93915
4.24166e-05
6.93904
3.70035e-05
6.93892
3.21215e-05
6.9388
2.77466e-05
6.93867
2.38511e-05
6.93854
2.04047e-05
6.9384
1.7375e-05
6.93825
1.47288e-05
6.93808
1.24324e-05
6.93791
1.04526e-05
6.93772
8.75718e-06
6.93752
7.31514e-06
6.9373
6.09733e-06
6.93706
5.07644e-06
6.9368
4.22738e-06
6.93653
3.52721e-06
6.93622
2.95524e-06
6.9359
2.49307e-06
6.93554
2.12429e-06
6.93516
1.83461e-06
6.93475
1.6116e-06
6.9343
1.4445e-06
6.93382
1.32417e-06
6.93331
1.24285e-06
6.93275
1.19395e-06
6.93216
1.17205e-06
6.93152
1.17254e-06
6.93084
1.19186e-06
6.93011
1.22689e-06
6.92933
1.27531e-06
6.92849
1.33503e-06
6.92761
1.40464e-06
6.92666
1.48269e-06
6.92565
1.5684e-06
6.92458
1.66076e-06
6.92345
1.75922e-06
6.92225
1.86296e-06
6.92097
1.97203e-06
6.91963
2.08642e-06
6.91821
2.20971e-06
6.91671
2.35864e-06
6.91513
2.61459e-06
6.91346
3.37167e-06
6.91171
6.53188e-06
6.90985
2.12609e-05
6.90784
9.17435e-05
6.90538
0.000430112
6.90122
0.00204921
6.88926
0.00974196
6.84076
0.0461882
6.60511
0.233229
0.908386
5.6942
9.88487
0.000460209
9.88484
0.000333699
9.88482
0.000312668
9.8848
0.00031873
9.88478
0.000319456
9.88475
0.000319213
9.88473
0.000319213
9.88471
0.000319251
9.88469
0.000319271
9.88466
0.000319287
9.88464
0.000319304
9.88462
0.00031932
9.88459
0.000319336
9.88457
0.000319348
9.88454
0.000319355
9.88452
0.000319389
9.88449
0.0003194
9.88447
0.00031941
9.88444
0.000319424
9.88441
0.000319439
9.88439
0.000319454
9.88436
0.000319469
9.88433
0.000319484
9.8843
0.000319509
9.88428
0.000319521
9.88425
0.000319508
9.88422
0.000319547
9.88419
0.000319559
9.88416
0.000319575
9.88413
0.000319593
9.8841
0.000319597
9.88407
0.000319619
9.88404
0.000319629
9.88401
0.000319663
9.88398
0.000319665
9.88395
0.000319679
9.88392
0.000319693
9.88389
0.000319706
9.88386
0.00031972
9.88383
0.000319732
9.88379
0.000319736
9.88376
0.000319766
9.88373
0.000319769
9.8837
0.00031978
9.88367
0.000319792
9.88363
0.000319805
9.8836
0.000319838
9.88357
0.000319822
9.88354
0.000319774
9.8835
0.000319903
9.88345
0.000319917
9.88341
0.000319903
9.88337
0.000319928
9.88334
0.000319953
9.8833
0.000319979
9.88327
0.000319868
9.88324
0.000319968
9.88322
0.00032065
9.88321
0.000319766
9.8832
0.00032014
9.88319
0.000320202
9.88317
0.000320238
9.88315
0.000320279
9.88313
0.000320319
9.8831
0.000320358
9.88307
0.000320396
9.88304
0.000320433
9.88301
0.000320468
9.88298
0.000320481
9.88295
0.000320505
9.88292
0.00032047
9.88288
0.000320758
9.88284
0.000320632
9.88281
0.000320659
9.88278
0.000320689
9.88275
0.000320602
9.88273
0.000320644
9.88271
0.000321208
9.8827
0.000320656
9.88269
0.000320861
9.88268
0.000320923
9.88266
0.000320963
9.88264
0.00032101
9.88262
0.000321058
9.88261
0.000321103
9.88259
0.000320913
9.88258
0.000321824
9.88258
0.000320877
9.88258
0.000321291
9.88258
0.000321349
9.88258
0.000321395
9.88258
0.00032144
9.88259
0.000321481
9.88258
0.000321518
9.88258
0.000321547
9.88258
0.000321568
9.88257
0.000321578
9.88256
0.000321572
9.88255
0.000321549
9.88253
0.000321565
9.88252
0.00032141
9.8825
0.000320832
9.88247
0.000321528
9.88245
0.00032089
9.88244
0.000320566
9.88242
0.000320155
9.88241
0.000319506
9.8824
0.000318825
9.8824
0.000318074
9.8824
0.000317963
9.88241
0.000315405
9.88242
0.000314404
9.88243
0.000312628
9.88243
0.000310517
9.88244
0.00030804
9.88244
0.000305159
9.88243
0.000301836
9.88243
0.000298037
9.88242
0.00029373
9.88242
0.000288888
9.88241
0.00028349
9.8824
0.000277521
9.88239
0.000270972
9.88239
0.000263813
9.88238
0.000256133
9.88237
0.000247977
9.88236
0.00023916
9.88235
0.000229921
9.88233
0.000220253
9.88232
0.000210224
9.88231
0.000199849
9.88229
0.000189236
9.88227
0.000178478
9.88226
0.000167613
9.88223
0.000156732
9.88221
0.000145914
9.88219
0.000135233
9.88216
0.000124762
9.88212
0.000114567
9.88209
0.000104711
9.88205
9.52472e-05
9.882
8.62211e-05
9.88195
7.76709e-05
9.8819
6.96255e-05
9.88183
6.21054e-05
9.88176
5.51226e-05
9.88168
4.86812e-05
9.8816
4.2778e-05
9.8815
3.7403e-05
9.88139
3.25404e-05
9.88128
2.81697e-05
9.88115
2.42662e-05
9.881
2.08023e-05
9.88084
1.77481e-05
9.88067
1.50723e-05
9.88047
1.27433e-05
9.88026
1.07292e-05
9.88003
8.99884e-06
9.87978
7.52233e-06
9.8795
6.2711e-06
9.8792
5.21847e-06
9.87887
4.33951e-06
9.87851
3.61154e-06
9.87812
3.01395e-06
9.8777
2.52817e-06
9.87724
2.13787e-06
9.87674
1.82848e-06
9.8762
1.58742e-06
9.87562
1.4038e-06
9.87499
1.2682e-06
9.87431
1.17269e-06
9.87358
1.11063e-06
9.8728
1.07621e-06
9.87196
1.06496e-06
9.87106
1.07277e-06
9.87009
1.09678e-06
9.86906
1.13419e-06
9.86796
1.18321e-06
9.86678
1.24183e-06
9.86552
1.30917e-06
9.86419
1.38374e-06
9.86276
1.4652e-06
9.86125
1.55238e-06
9.85965
1.6452e-06
9.85795
1.74261e-06
9.85615
1.84543e-06
9.85425
1.95422e-06
9.85224
2.07788e-06
9.85012
2.25715e-06
9.84789
2.68852e-06
9.84554
4.32535e-06
9.84306
1.17626e-05
9.84044
4.71553e-05
9.83759
0.000217281
9.83412
0.00103485
9.82823
0.0049483
9.81128
0.0235653
9.74245
0.111734
9.41584
0.556413
2.09754
8.22312
13.9793
0.000401795
13.9793
0.00030875
13.9792
0.000276695
13.9792
0.000285809
13.9792
0.000287113
13.9792
0.000286715
13.9791
0.000286702
13.9791
0.000286758
13.9791
0.000286778
13.979
0.000286794
13.979
0.00028681
13.979
0.000286827
13.9789
0.000286842
13.9789
0.000286858
13.9789
0.000286863
13.9788
0.000286877
13.9788
0.000286906
13.9788
0.00028691
13.9787
0.000286923
13.9787
0.000286936
13.9786
0.00028695
13.9786
0.000286963
13.9786
0.000286978
13.9785
0.00028701
13.9785
0.000286999
13.9784
0.000286999
13.9784
0.000287035
13.9784
0.000287045
13.9783
0.00028706
13.9783
0.00028708
13.9782
0.000287072
13.9782
0.000287102
13.9782
0.000287105
13.9781
0.000287143
13.9781
0.000287141
13.978
0.000287153
13.978
0.000287166
13.978
0.000287178
13.9779
0.00028719
13.9779
0.000287201
13.9778
0.000287201
13.9778
0.000287235
13.9777
0.000287235
13.9777
0.000287245
13.9776
0.000287256
13.9776
0.000287267
13.9776
0.000287295
13.9775
0.000287283
13.9775
0.000287247
13.9774
0.000287336
13.9774
0.00028738
13.9773
0.000287355
13.9773
0.000287379
13.9772
0.0002874
13.9772
0.000287423
13.9771
0.000287329
13.9771
0.000287425
13.977
0.000287993
13.977
0.000287258
13.977
0.000287558
13.977
0.000287626
13.977
0.000287656
13.977
0.000287693
13.9769
0.00028773
13.9769
0.000287765
13.9769
0.000287799
13.9768
0.000287832
13.9768
0.000287864
13.9767
0.00028788
13.9767
0.0002879
13.9766
0.000287855
13.9766
0.000288125
13.9765
0.000288014
13.9765
0.000288035
13.9765
0.000288061
13.9764
0.000287989
13.9764
0.000288032
13.9764
0.00028851
13.9764
0.000288045
13.9763
0.000288209
13.9763
0.000288276
13.9763
0.000288309
13.9763
0.000288351
13.9763
0.000288394
13.9762
0.000288432
13.9762
0.000288284
13.9762
0.000289035
13.9762
0.000288268
13.9762
0.000288599
13.9762
0.000288657
13.9762
0.000288698
13.9762
0.000288739
13.9762
0.000288776
13.9762
0.000288809
13.9762
0.000288836
13.9762
0.000288855
13.9762
0.000288863
13.9762
0.000288859
13.9762
0.000288839
13.9762
0.000288857
13.9762
0.000288716
13.9761
0.000288191
13.9761
0.000288815
13.9761
0.000288256
13.9761
0.000287961
13.9761
0.000287592
13.976
0.000287017
13.976
0.000286405
13.976
0.000285741
13.976
0.000285576
13.9761
0.000283391
13.9761
0.000282445
13.9761
0.000280857
13.9761
0.000278968
13.9761
0.00027675
13.9761
0.000274169
13.9761
0.000271193
13.9761
0.00026779
13.9761
0.000263931
13.9761
0.000259593
13.9761
0.000254755
13.9761
0.000249405
13.9761
0.000243537
13.976
0.000237118
13.976
0.000230228
13.976
0.00022291
13.976
0.000215007
13.976
0.000206718
13.976
0.000198045
13.9759
0.000189044
13.9759
0.000179734
13.9759
0.000170207
13.9758
0.000160549
13.9758
0.000150794
13.9758
0.000141022
13.9757
0.000131305
13.9757
0.00012171
13.9757
0.000112301
13.9756
0.00010314
13.9755
9.42807e-05
13.9755
8.57725e-05
13.9754
7.76566e-05
13.9753
6.9967e-05
13.9753
6.27301e-05
13.9752
5.59643e-05
13.9751
4.96807e-05
13.9749
4.38831e-05
13.9748
3.85688e-05
13.9747
3.3729e-05
13.9745
2.93497e-05
13.9744
2.54125e-05
13.9742
2.18954e-05
13.974
1.87736e-05
13.9737
1.60204e-05
13.9735
1.36079e-05
13.9732
1.15075e-05
13.9729
9.69057e-06
13.9726
8.1293e-06
13.9722
6.79673e-06
13.9718
5.66711e-06
13.9714
4.71659e-06
13.9709
3.92262e-06
13.9704
3.26482e-06
13.9699
2.72469e-06
13.9693
2.28542e-06
13.9686
1.93236e-06
13.9679
1.65232e-06
13.9672
1.43399e-06
13.9663
1.26758e-06
13.9654
1.14451e-06
13.9645
1.05765e-06
13.9635
1.0011e-06
13.9623
9.69429e-07
13.9612
9.58804e-07
13.9599
9.65281e-07
13.9585
9.86551e-07
13.9571
1.01981e-06
13.9555
1.06369e-06
13.9538
1.11604e-06
13.9521
1.17649e-06
13.9502
1.24325e-06
13.9482
1.31648e-06
13.946
1.39458e-06
13.9437
1.47809e-06
13.9413
1.56543e-06
13.9388
1.65852e-06
13.9361
1.75858e-06
13.9333
1.88169e-06
13.9303
2.10139e-06
13.9271
2.77137e-06
13.9238
5.60944e-06
13.9203
1.88902e-05
13.9166
8.25181e-05
13.9126
0.000388815
13.9077
0.00186143
13.8995
0.00891289
13.8761
0.0424841
13.782
0.201201
13.3417
0.991929
3.65693
11.7772
61.7076
0.000185145
61.7075
0.00016348
61.7073
0.000135752
61.7072
0.000141851
61.7071
0.000143983
61.7069
0.00014353
61.7068
0.000143418
61.7066
0.000143433
61.7065
0.000143447
61.7064
0.000143443
61.7062
0.000143444
61.7061
0.000143444
61.7059
0.000143447
61.7058
0.000143457
61.7056
0.000143453
61.7055
0.000143416
61.7053
0.00014349
61.7052
0.000143467
61.705
0.00014347
61.7048
0.000143476
61.7047
0.000143481
61.7045
0.000143487
61.7043
0.000143495
61.7042
0.000143523
61.704
0.000143482
61.7038
0.00014351
61.7037
0.00014352
61.7035
0.000143525
61.7033
0.000143532
61.7031
0.000143544
61.7029
0.000143536
61.7028
0.000143554
61.7026
0.000143551
61.7024
0.000143573
61.7022
0.000143572
61.702
0.000143577
61.7018
0.000143584
61.7016
0.00014359
61.7014
0.000143596
61.7013
0.000143601
61.7011
0.0001436
61.7009
0.000143619
61.7007
0.000143618
61.7005
0.000143622
61.7003
0.000143628
61.7001
0.000143634
61.6999
0.000143645
61.6997
0.000143642
61.6995
0.000143632
61.6993
0.000143642
61.699
0.000143704
61.6988
0.000143677
61.6985
0.000143688
61.6983
0.000143699
61.6981
0.000143709
61.6979
0.000143671
61.6978
0.000143724
61.6976
0.000143952
61.6976
0.000143662
61.6975
0.000143767
61.6974
0.000143815
61.6973
0.000143827
61.6972
0.000143846
61.6971
0.000143864
61.6969
0.000143882
61.6968
0.000143899
61.6966
0.000143916
61.6964
0.000143931
61.6963
0.000143946
61.6961
0.000143954
61.6959
0.000143913
61.6956
0.000144062
61.6954
0.000144009
61.6952
0.000144016
61.695
0.000144028
61.6949
0.000144
61.6948
0.000144026
61.6946
0.00014423
61.6946
0.000144036
61.6946
0.000144093
61.6945
0.000144139
61.6944
0.000144153
61.6943
0.000144174
61.6942
0.000144196
61.6941
0.000144212
61.694
0.000144165
61.694
0.000144458
61.694
0.000144177
61.694
0.000144293
61.694
0.000144328
61.694
0.000144348
61.6941
0.000144369
61.6941
0.000144388
61.6941
0.000144404
61.6941
0.000144418
61.6941
0.000144428
61.694
0.000144432
61.694
0.000144431
61.6939
0.000144422
61.6939
0.000144434
61.6938
0.000144363
61.6937
0.000144093
61.6935
0.000144404
61.6934
0.000144142
61.6933
0.00014399
61.6933
0.000143806
61.6932
0.000143529
61.6932
0.000143225
61.6932
0.000142903
61.6932
0.000142734
61.6933
0.0001418
61.6934
0.000141265
61.6934
0.000140479
61.6935
0.000139544
61.6935
0.000138446
61.6935
0.000137167
61.6935
0.000135692
61.6935
0.000134004
61.6934
0.000132089
61.6934
0.000129936
61.6934
0.000127533
61.6933
0.000124875
61.6933
0.00012196
61.6932
0.00011877
61.6931
0.000115333
61.6931
0.00011169
61.693
0.000107757
61.6929
0.000103627
61.6928
9.93038e-05
61.6927
9.48135e-05
61.6926
9.01689e-05
61.6925
8.54132e-05
61.6924
8.05886e-05
61.6922
7.57146e-05
61.6921
7.08297e-05
61.6919
6.59696e-05
61.6917
6.11682e-05
61.6915
5.64582e-05
61.6913
5.18697e-05
61.691
4.74305e-05
61.6908
4.31651e-05
61.6905
3.90945e-05
61.6901
3.52358e-05
61.6898
3.16026e-05
61.6893
2.82044e-05
61.6889
2.50468e-05
61.6884
2.21321e-05
61.6878
1.94591e-05
61.6872
1.70236e-05
61.6865
1.48189e-05
61.6858
1.28357e-05
61.6849
1.10634e-05
61.684
9.48947e-06
61.683
8.10085e-06
61.6819
6.88338e-06
61.6807
5.82292e-06
61.6794
4.90518e-06
61.678
4.11623e-06
61.6764
3.44242e-06
61.6746
2.87107e-06
61.6727
2.38993e-06
61.6707
1.98795e-06
61.6684
1.65459e-06
61.666
1.38079e-06
61.6634
1.15787e-06
61.6605
9.78729e-07
61.6574
8.36258e-07
61.654
7.25287e-07
61.6504
6.40398e-07
61.6464
5.77581e-07
61.6422
5.33031e-07
61.6377
5.04003e-07
61.6328
4.87138e-07
61.6275
4.81643e-07
61.6219
4.84088e-07
61.6159
4.94718e-07
61.6094
5.10627e-07
61.6025
5.32826e-07
61.5952
5.58282e-07
61.5873
5.89065e-07
61.579
6.2155e-07
61.5701
6.58815e-07
61.5607
6.97048e-07
61.5507
7.39977e-07
61.5401
7.82831e-07
61.5288
8.32933e-07
61.517
8.93389e-07
61.5044
1.00888e-06
61.4912
1.38103e-06
61.4773
2.97912e-06
61.4626
1.05002e-05
61.4471
4.66125e-05
61.4308
0.000220575
61.4131
0.0010593
61.392
0.00509484
61.3578
0.0244292
61.2646
0.11619
60.9034
0.541873
59.4322
2.44179
8.74296
54.3239
61.7076
-1.59162e-12
61.7074
-2.27374e-13
61.7073
4.54747e-13
61.7072
1.13687e-12
61.707
4.54747e-13
61.7069
-4.54747e-13
61.7068
-4.54747e-13
61.7066
-1.36424e-12
61.7065
-4.54747e-13
61.7063
0
61.7062
-9.09495e-13
61.7061
-9.09495e-13
61.7059
6.82121e-13
61.7058
4.54747e-13
61.7056
-2.27374e-13
61.7054
1.36424e-12
61.7053
2.27374e-12
61.7051
1.13687e-12
61.705
1.81899e-12
61.7048
1.13687e-12
61.7046
2.04636e-12
61.7045
4.54747e-13
61.7043
9.09495e-13
61.7041
2.50111e-12
61.704
1.36424e-12
61.7038
9.09495e-13
61.7036
6.82121e-13
61.7034
-9.09495e-13
61.7033
-1.36424e-12
61.7031
-9.09495e-13
61.7029
-2.27374e-13
61.7027
-4.54747e-13
61.7025
1.81899e-12
61.7024
6.82121e-13
61.7022
-6.82121e-13
61.702
2.27374e-13
61.7018
-2.50111e-12
61.7016
0
61.7014
-2.27374e-13
61.7012
2.27374e-13
61.701
-9.09495e-13
61.7008
1.13687e-12
61.7007
1.36424e-12
61.7005
2.04636e-12
61.7003
1.13687e-12
61.7001
4.54747e-13
61.6999
-1.13687e-12
61.6997
-9.09495e-13
61.6995
-1.59162e-12
61.6993
-6.82121e-13
61.699
-1.36424e-12
61.6987
-2.50111e-12
61.6985
2.50111e-12
61.6983
0
61.6981
-4.54747e-13
61.6979
0
61.6977
2.27374e-13
61.6976
2.72848e-12
61.6976
1.36424e-12
61.6975
-6.82121e-13
61.6974
-1.59162e-12
61.6973
-6.82121e-13
61.6972
1.59162e-12
61.6971
2.27374e-12
61.6969
1.81899e-12
61.6968
9.09495e-13
61.6966
0
61.6964
1.13687e-12
61.6962
0
61.6961
-2.27374e-13
61.6958
9.09495e-13
61.6956
-4.54747e-13
61.6954
4.54747e-13
61.6952
1.36424e-12
61.695
1.36424e-12
61.6949
-2.27374e-13
61.6947
0
61.6946
4.54747e-13
61.6946
-6.82121e-13
61.6945
-9.09495e-13
61.6945
6.82121e-13
61.6944
0
61.6943
4.54747e-13
61.6942
-4.54747e-13
61.6941
6.82121e-13
61.694
6.82121e-13
61.694
1.13687e-12
61.694
6.82121e-13
61.694
-9.09495e-13
61.694
2.04636e-12
61.694
2.04636e-12
61.694
6.82121e-13
61.6941
-2.27374e-13
61.6941
2.50111e-12
61.6941
0
61.694
-2.27374e-13
61.694
-4.54747e-13
61.694
-4.54747e-13
61.6939
9.09495e-13
61.6938
0
61.6938
-9.09495e-13
61.6937
-1.13687e-12
61.6935
6.82121e-13
61.6934
0
61.6933
0
61.6933
1.81899e-12
61.6932
2.72848e-12
61.6932
6.82121e-13
61.6931
1.36424e-12
61.6932
-8.02629e-10
61.6933
6.3369e-10
61.6933
1.42336e-10
61.6934
2.13731e-11
61.6934
4.3201e-12
61.6935
2.27374e-13
61.6935
2.04636e-12
61.6935
-2.27374e-13
61.6934
1.13687e-12
61.6934
-8.41283e-12
61.6934
1.50067e-11
61.6933
-2.77396e-11
61.6933
5.36602e-11
61.6932
2.66709e-10
61.6932
-5.69344e-10
61.6931
1.23591e-08
61.693
-7.50811e-09
61.693
-4.615e-09
61.6929
-1.20735e-10
61.6928
1.28466e-10
61.6927
-1.0391e-10
61.6926
-2.4329e-10
61.6925
1.50521e-10
61.6924
1.2119e-10
61.6922
-2.66027e-11
61.6921
-3.41061e-12
61.6919
1.72804e-11
61.6917
-1.97815e-11
61.6915
6.13909e-12
61.6913
1.47793e-11
61.691
-2.6148e-11
61.6908
1.02318e-11
61.6905
1.56888e-11
61.6901
-2.22826e-11
61.6897
4.3201e-12
61.6893
1.90994e-11
61.6889
-2.47837e-11
61.6884
7.7307e-12
61.6878
3.63798e-12
61.6872
4.54747e-12
61.6865
-1.81899e-11
61.6858
1.31877e-11
61.6849
1.22782e-11
61.684
-2.52385e-11
61.683
5.68434e-12
61.6819
9.09495e-12
61.6807
-2.72848e-12
61.6794
-8.41283e-12
61.678
-1.20508e-11
61.6764
3.25144e-11
61.6746
-2.9786e-11
61.6727
2.02363e-11
61.6707
-2.31921e-11
61.6684
1.93268e-11
61.666
1.27329e-11
61.6634
-3.25144e-11
61.6605
1.7053e-11
61.6574
2.72848e-12
61.654
-5.00222e-12
61.6504
1.45519e-11
61.6464
-2.7967e-11
61.6422
-1.72804e-11
61.6377
8.36735e-11
61.6328
-1.11868e-10
61.6275
9.79981e-11
61.6219
-1.13005e-10
61.6159
1.18234e-10
61.6094
-5.18412e-11
61.6025
1.44382e-10
61.5952
-2.23054e-10
61.5873
1.88265e-10
61.579
-2.89219e-10
61.5701
2.86036e-10
61.5607
-3.30374e-10
61.5507
8.10587e-10
61.5401
3.58114e-10
61.5288
4.82964e-09
61.517
2.20191e-08
61.5044
1.02597e-07
61.4912
5.04044e-07
61.4773
2.41472e-06
61.4626
1.16947e-05
61.4472
5.64504e-05
61.4309
0.000272597
61.4136
0.00131612
61.3945
0.00635219
61.3697
0.0306183
61.3192
0.14709
61.1431
0.697546
60.3656
3.19798
11.5877
57.4985
61.7076
-0.000185145
61.7074
-0.00016348
61.7073
-0.000135752
61.7072
-0.000141851
61.707
-0.000143983
61.7069
-0.00014353
61.7068
-0.000143418
61.7066
-0.000143433
61.7065
-0.000143447
61.7063
-0.000143443
61.7062
-0.000143444
61.7061
-0.000143444
61.7059
-0.000143447
61.7058
-0.000143457
61.7056
-0.000143453
61.7054
-0.000143416
61.7053
-0.00014349
61.7051
-0.000143467
61.705
-0.00014347
61.7048
-0.000143476
61.7046
-0.000143481
61.7045
-0.000143487
61.7043
-0.000143495
61.7041
-0.000143523
61.704
-0.000143482
61.7038
-0.00014351
61.7036
-0.00014352
61.7034
-0.000143525
61.7033
-0.000143532
61.7031
-0.000143544
61.7029
-0.000143536
61.7027
-0.000143554
61.7025
-0.000143551
61.7024
-0.000143573
61.7022
-0.000143572
61.702
-0.000143577
61.7018
-0.000143584
61.7016
-0.00014359
61.7014
-0.000143596
61.7012
-0.000143601
61.701
-0.0001436
61.7008
-0.000143619
61.7007
-0.000143618
61.7005
-0.000143622
61.7003
-0.000143628
61.7001
-0.000143634
61.6999
-0.000143645
61.6997
-0.000143642
61.6995
-0.000143632
61.6993
-0.000143642
61.699
-0.000143704
61.6987
-0.000143677
61.6985
-0.000143688
61.6983
-0.000143699
61.6981
-0.000143709
61.6979
-0.000143671
61.6977
-0.000143724
61.6976
-0.000143952
61.6976
-0.000143662
61.6975
-0.000143767
61.6974
-0.000143815
61.6973
-0.000143827
61.6972
-0.000143846
61.6971
-0.000143864
61.6969
-0.000143882
61.6968
-0.000143899
61.6966
-0.000143916
61.6964
-0.000143931
61.6962
-0.000143946
61.6961
-0.000143954
61.6958
-0.000143913
61.6956
-0.000144062
61.6954
-0.000144009
61.6952
-0.000144016
61.695
-0.000144028
61.6949
-0.000144
61.6947
-0.000144026
61.6946
-0.00014423
61.6946
-0.000144036
61.6945
-0.000144093
61.6945
-0.000144139
61.6944
-0.000144153
61.6943
-0.000144174
61.6942
-0.000144196
61.6941
-0.000144212
61.694
-0.000144165
61.694
-0.000144458
61.694
-0.000144177
61.694
-0.000144293
61.694
-0.000144328
61.694
-0.000144348
61.694
-0.000144369
61.6941
-0.000144388
61.6941
-0.000144404
61.6941
-0.000144418
61.694
-0.000144428
61.694
-0.000144432
61.694
-0.000144431
61.6939
-0.000144422
61.6938
-0.000144434
61.6938
-0.000144363
61.6937
-0.000144093
61.6935
-0.000144404
61.6934
-0.000144142
61.6933
-0.00014399
61.6933
-0.000143806
61.6932
-0.000143529
61.6932
-0.000143225
61.6931
-0.000142903
61.6932
-0.000142735
61.6933
-0.000141799
61.6933
-0.000141265
61.6934
-0.000140479
61.6934
-0.000139544
61.6935
-0.000138446
61.6935
-0.000137167
61.6935
-0.000135692
61.6934
-0.000134004
61.6934
-0.000132089
61.6934
-0.000129936
61.6933
-0.000127533
61.6933
-0.000124875
61.6932
-0.00012196
61.6932
-0.000118766
61.6931
-0.000115332
61.693
-0.000111688
61.693
-0.000107763
61.6929
-0.000103627
61.6928
-9.93036e-05
61.6927
-9.48136e-05
61.6926
-9.01695e-05
61.6925
-8.54128e-05
61.6924
-8.05884e-05
61.6922
-7.57146e-05
61.6921
-7.08297e-05
61.6919
-6.59695e-05
61.6917
-6.11683e-05
61.6915
-5.64582e-05
61.6913
-5.18697e-05
61.691
-4.74305e-05
61.6908
-4.31651e-05
61.6905
-3.90945e-05
61.6901
-3.52359e-05
61.6897
-3.16026e-05
61.6893
-2.82044e-05
61.6889
-2.50468e-05
61.6884
-2.21321e-05
61.6878
-1.94591e-05
61.6872
-1.70236e-05
61.6865
-1.48189e-05
61.6858
-1.28357e-05
61.6849
-1.10634e-05
61.684
-9.48952e-06
61.683
-8.10083e-06
61.6819
-6.88337e-06
61.6807
-5.82292e-06
61.6794
-4.90521e-06
61.678
-4.11621e-06
61.6764
-3.4424e-06
61.6746
-2.87112e-06
61.6727
-2.3899e-06
61.6707
-1.98795e-06
61.6684
-1.6546e-06
61.666
-1.38075e-06
61.6634
-1.15797e-06
61.6605
-9.78607e-07
61.6574
-8.36342e-07
61.654
-7.25257e-07
61.6504
-6.40388e-07
61.6464
-5.77625e-07
61.6422
-5.33078e-07
61.6377
-5.03791e-07
61.6328
-4.87425e-07
61.6275
-4.81369e-07
61.6219
-4.84325e-07
61.6159
-4.94432e-07
61.6094
-5.10968e-07
61.6025
-5.32384e-07
61.5952
-5.58863e-07
61.5873
-5.88523e-07
61.579
-6.22123e-07
61.5701
-6.58313e-07
61.5607
-6.97675e-07
61.5507
-7.38463e-07
61.5401
-7.82795e-07
61.5288
-8.23832e-07
61.517
-8.59454e-07
61.5044
-8.40318e-07
61.4912
-5.7004e-07
61.4773
9.0981e-07
61.4626
8.34854e-06
61.4472
4.43697e-05
61.431
0.000218787
61.4142
0.00106312
61.3976
0.00515858
61.3844
0.0251195
61.3885
0.123435
61.4532
0.612456
61.5851
3.04476
10.6209
62.5297
61.7076
-0.000401795
61.7075
-0.00030875
61.7073
-0.000276695
61.7072
-0.000285809
61.7071
-0.000287113
61.7069
-0.000286715
61.7068
-0.000286702
61.7066
-0.000286758
61.7065
-0.000286778
61.7064
-0.000286794
61.7062
-0.00028681
61.7061
-0.000286827
61.7059
-0.000286842
61.7058
-0.000286858
61.7056
-0.000286863
61.7055
-0.000286877
61.7053
-0.000286906
61.7052
-0.00028691
61.705
-0.000286923
61.7048
-0.000286936
61.7047
-0.00028695
61.7045
-0.000286963
61.7043
-0.000286978
61.7042
-0.00028701
61.704
-0.000286999
61.7038
-0.000286999
61.7037
-0.000287035
61.7035
-0.000287045
61.7033
-0.00028706
61.7031
-0.00028708
61.7029
-0.000287072
61.7028
-0.000287102
61.7026
-0.000287105
61.7024
-0.000287143
61.7022
-0.000287141
61.702
-0.000287153
61.7018
-0.000287166
61.7016
-0.000287178
61.7014
-0.00028719
61.7013
-0.000287201
61.7011
-0.000287201
61.7009
-0.000287235
61.7007
-0.000287235
61.7005
-0.000287245
61.7003
-0.000287256
61.7001
-0.000287267
61.6999
-0.000287295
61.6997
-0.000287283
61.6995
-0.000287247
61.6993
-0.000287336
61.699
-0.00028738
61.6988
-0.000287355
61.6985
-0.000287379
61.6983
-0.0002874
61.6981
-0.000287423
61.6979
-0.000287329
61.6978
-0.000287425
61.6976
-0.000287993
61.6976
-0.000287258
61.6975
-0.000287558
61.6974
-0.000287626
61.6973
-0.000287656
61.6972
-0.000287693
61.6971
-0.00028773
61.6969
-0.000287765
61.6968
-0.000287799
61.6966
-0.000287832
61.6964
-0.000287864
61.6963
-0.00028788
61.6961
-0.0002879
61.6959
-0.000287855
61.6956
-0.000288125
61.6954
-0.000288014
61.6952
-0.000288035
61.695
-0.000288061
61.6949
-0.000287989
61.6948
-0.000288032
61.6946
-0.00028851
61.6946
-0.000288045
61.6946
-0.000288209
61.6945
-0.000288276
61.6944
-0.000288309
61.6943
-0.000288351
61.6942
-0.000288394
61.6941
-0.000288432
61.694
-0.000288284
61.694
-0.000289035
61.694
-0.000288268
61.694
-0.000288599
61.694
-0.000288657
61.694
-0.000288698
61.6941
-0.000288739
61.6941
-0.000288776
61.6941
-0.000288809
61.6941
-0.000288836
61.6941
-0.000288855
61.694
-0.000288863
61.694
-0.000288859
61.6939
-0.000288839
61.6939
-0.000288857
61.6938
-0.000288716
61.6937
-0.000288191
61.6935
-0.000288815
61.6934
-0.000288256
61.6933
-0.000287961
61.6933
-0.000287592
61.6932
-0.000287017
61.6932
-0.000286405
61.6932
-0.000285741
61.6932
-0.000285576
61.6933
-0.000283391
61.6934
-0.000282445
61.6934
-0.000280857
61.6935
-0.000278968
61.6935
-0.00027675
61.6935
-0.000274169
61.6935
-0.000271193
61.6935
-0.00026779
61.6934
-0.000263931
61.6934
-0.000259593
61.6934
-0.000254755
61.6933
-0.000249405
61.6933
-0.000243537
61.6932
-0.000237118
61.6931
-0.000230224
61.6931
-0.000222913
61.693
-0.000215009
61.6929
-0.000206719
61.6928
-0.000198045
61.6927
-0.000189044
61.6926
-0.000179735
61.6925
-0.000170207
61.6924
-0.000160548
61.6922
-0.000150794
61.6921
-0.000141022
61.6919
-0.000131305
61.6917
-0.00012171
61.6915
-0.000112301
61.6913
-0.00010314
61.691
-9.42807e-05
61.6908
-8.57725e-05
61.6905
-7.76566e-05
61.6901
-6.9967e-05
61.6898
-6.27301e-05
61.6893
-5.59643e-05
61.6889
-4.96807e-05
61.6884
-4.38831e-05
61.6878
-3.85688e-05
61.6872
-3.3729e-05
61.6865
-2.93497e-05
61.6858
-2.54125e-05
61.6849
-2.18954e-05
61.684
-1.87736e-05
61.683
-1.60204e-05
61.6819
-1.36079e-05
61.6807
-1.15075e-05
61.6794
-9.69055e-06
61.678
-8.12932e-06
61.6764
-6.79671e-06
61.6746
-5.66716e-06
61.6727
-4.71654e-06
61.6707
-3.92265e-06
61.6684
-3.26482e-06
61.666
-2.72469e-06
61.6634
-2.28541e-06
61.6605
-1.93235e-06
61.6574
-1.65233e-06
61.654
-1.43399e-06
61.6504
-1.26758e-06
61.6464
-1.14452e-06
61.6422
-1.05767e-06
61.6377
-1.00107e-06
61.6328
-9.6951e-07
61.6275
-9.58656e-07
61.6219
-9.65377e-07
61.6159
-9.86506e-07
61.6094
-1.01989e-06
61.6025
-1.0636e-06
61.5952
-1.11616e-06
61.5873
-1.17637e-06
61.579
-1.24328e-06
61.5701
-1.3165e-06
61.5607
-1.39456e-06
61.5507
-1.47777e-06
61.5401
-1.56525e-06
61.5288
-1.65534e-06
61.517
-1.74624e-06
61.5044
-1.82049e-06
61.4912
-1.80616e-06
61.4773
-1.35206e-06
61.4626
1.28306e-06
61.4472
1.43405e-05
61.4311
7.80156e-05
61.4148
0.000386675
61.4003
0.00188699
61.3974
0.0092412
61.455
0.0463408
61.8025
0.244587
63.195
1.63095
5.46154
68.332
13.9793
-0.000460209
13.9793
-0.000333699
13.9792
-0.000312668
13.9792
-0.00031873
13.9792
-0.000319456
13.9792
-0.000319213
13.9791
-0.000319213
13.9791
-0.000319251
13.9791
-0.000319271
13.979
-0.000319287
13.979
-0.000319304
13.979
-0.00031932
13.9789
-0.000319336
13.9789
-0.000319348
13.9789
-0.000319355
13.9788
-0.000319389
13.9788
-0.0003194
13.9788
-0.00031941
13.9787
-0.000319424
13.9787
-0.000319439
13.9786
-0.000319454
13.9786
-0.000319469
13.9786
-0.000319484
13.9785
-0.000319509
13.9785
-0.000319521
13.9784
-0.000319508
13.9784
-0.000319547
13.9784
-0.000319559
13.9783
-0.000319575
13.9783
-0.000319593
13.9782
-0.000319597
13.9782
-0.000319619
13.9782
-0.000319629
13.9781
-0.000319663
13.9781
-0.000319665
13.978
-0.000319679
13.978
-0.000319693
13.978
-0.000319706
13.9779
-0.00031972
13.9779
-0.000319732
13.9778
-0.000319736
13.9778
-0.000319766
13.9777
-0.000319769
13.9777
-0.00031978
13.9776
-0.000319792
13.9776
-0.000319805
13.9776
-0.000319838
13.9775
-0.000319822
13.9775
-0.000319774
13.9774
-0.000319903
13.9774
-0.000319917
13.9773
-0.000319903
13.9773
-0.000319928
13.9772
-0.000319953
13.9772
-0.000319979
13.9771
-0.000319868
13.9771
-0.000319968
13.977
-0.00032065
13.977
-0.000319766
13.977
-0.00032014