/*--------------------------------*- C++ -*----------------------------------*\
| =========                 |                                                 |
| \\      /  F ield         | OpenFOAM: The Open Source CFD Toolbox           |
|  \\    /   O peration     | Version:  3.0.x                                 |
|   \\  /    A nd           | Web:      www.OpenFOAM.org                      |
|    \\/     M anipulation  |                                                 |
\*---------------------------------------------------------------------------*/
FoamFile
{
    version     2.0;
    format      ascii;
    class       volScalarField;
    location    "0.43995";
    object      rho;
}
// * * * * * * * * * * * * * * * * * * * * * * * * * * * * * * * * * * * * * //

dimensions      [1 -3 0 0 0 0 0];

internalField   nonuniform List<scalar> 
13800
(
50.6118
50.6118
50.6118
50.6118
50.6118
50.6118
50.6118
50.6118
50.6118
50.6118
50.6118
50.6118
50.6118
50.6118
50.6118
50.6118
50.6118
50.6118
50.6118
50.6119
50.6119
50.6119
50.6119
50.6119
50.6119
50.6119
50.6119
50.6119
50.6119
50.6119
50.6119
50.6119
50.6119
50.6119
50.6119
50.6119
50.6119
50.6119
50.6119
50.6119
50.612
50.612
50.612
50.612
50.612
50.612
50.612
50.612
50.612
50.612
50.612
50.6119
50.6119
50.6119
50.6119
50.6119
50.6119
50.612
50.6121
50.6122
50.6123
50.6124
50.6125
50.6126
50.6126
50.6126
50.6127
50.6127
50.6127
50.6127
50.6127
50.6126
50.6126
50.6126
50.6126
50.6126
50.6126
50.6126
50.6127
50.6128
50.6129
50.6129
50.6129
50.613
50.613
50.613
50.613
50.6131
50.6132
50.6133
50.6134
50.6135
50.6136
50.6137
50.6137
50.6138
50.6138
50.6138
50.6139
50.6139
50.6139
50.6138
50.6138
50.6137
50.6137
50.6137
50.6137
50.6137
50.6138
50.6139
50.614
50.6141
50.6142
50.6143
50.6144
50.6144
50.6145
50.6145
50.6145
50.6146
50.6146
50.6146
50.6147
50.6147
50.6147
50.6147
50.6148
50.6148
50.6148
50.6148
50.6149
50.6149
50.6149
50.6149
50.615
50.615
50.615
50.6151
50.6151
50.6151
50.6152
50.6152
50.6152
50.6153
50.6153
50.6154
50.6155
50.6155
50.6156
50.6157
50.6157
50.6158
50.6159
50.616
50.6162
50.6163
50.6164
50.6166
50.6167
50.6169
50.6171
50.6173
50.6176
50.6178
50.6181
50.6184
50.6187
50.6191
50.6195
50.6199
50.6203
50.6208
50.6213
50.6219
50.6224
50.6231
50.6238
50.6245
50.6252
50.6261
50.6269
50.6279
50.6289
50.6299
50.631
50.6322
50.6335
50.6348
50.6362
50.6376
50.6392
50.6408
50.6425
50.6443
50.6462
50.6481
50.6504
50.6527
50.659
50.6521
50.6133
50.6133
50.6133
50.6133
50.6133
50.6133
50.6133
50.6133
50.6133
50.6133
50.6133
50.6133
50.6133
50.6133
50.6133
50.6133
50.6133
50.6133
50.6133
50.6133
50.6133
50.6133
50.6133
50.6133
50.6133
50.6133
50.6133
50.6133
50.6133
50.6133
50.6133
50.6133
50.6133
50.6133
50.6133
50.6133
50.6133
50.6133
50.6133
50.6133
50.6133
50.6133
50.6133
50.6133
50.6133
50.6133
50.6133
50.6133
50.6133
50.6133
50.6133
50.6132
50.6132
50.6132
50.6132
50.6132
50.6132
50.6132
50.6133
50.6135
50.6136
50.6137
50.6137
50.6138
50.6138
50.6139
50.6139
50.6139
50.6139
50.6139
50.6139
50.6139
50.6138
50.6138
50.6138
50.6138
50.6138
50.6138
50.6139
50.614
50.614
50.6141
50.6141
50.6141
50.6141
50.6141
50.6142
50.6142
50.6143
50.6144
50.6145
50.6146
50.6147
50.6148
50.6148
50.6149
50.6149
50.6149
50.6149
50.6149
50.6149
50.6149
50.6149
50.6148
50.6148
50.6148
50.6148
50.6148
50.6148
50.6149
50.615
50.6151
50.6152
50.6153
50.6153
50.6154
50.6155
50.6155
50.6155
50.6156
50.6156
50.6156
50.6156
50.6157
50.6157
50.6157
50.6157
50.6157
50.6158
50.6158
50.6158
50.6158
50.6158
50.6159
50.6159
50.6159
50.616
50.616
50.616
50.6161
50.6161
50.6161
50.6162
50.6162
50.6163
50.6163
50.6164
50.6165
50.6165
50.6166
50.6167
50.6168
50.6169
50.617
50.6171
50.6172
50.6174
50.6175
50.6177
50.6179
50.6181
50.6183
50.6185
50.6188
50.6191
50.6194
50.6197
50.62
50.6204
50.6208
50.6213
50.6217
50.6223
50.6228
50.6234
50.624
50.6247
50.6254
50.6262
50.627
50.6279
50.6288
50.6298
50.6309
50.632
50.6332
50.6344
50.6357
50.6371
50.6386
50.6401
50.6417
50.6434
50.6452
50.6471
50.6491
50.6514
50.6536
50.66
50.6495
50.6133
50.6133
50.6133
50.6133
50.6133
50.6133
50.6133
50.6133
50.6133
50.6133
50.6133
50.6133
50.6133
50.6133
50.6133
50.6133
50.6133
50.6133
50.6133
50.6133
50.6133
50.6133
50.6133
50.6133
50.6133
50.6133
50.6133
50.6133
50.6133
50.6133
50.6133
50.6133
50.6133
50.6133
50.6133
50.6133
50.6133
50.6133
50.6133
50.6133
50.6133
50.6133
50.6133
50.6133
50.6133
50.6133
50.6133
50.6133
50.6133
50.6133
50.6133
50.6132
50.6132
50.6132
50.6132
50.6132
50.6132
50.6132
50.6133
50.6135
50.6136
50.6137
50.6137
50.6138
50.6138
50.6139
50.6139
50.6139
50.6139
50.6139
50.6139
50.6139
50.6138
50.6138
50.6138
50.6138
50.6138
50.6138
50.6139
50.614
50.614
50.6141
50.6141
50.6141
50.6141
50.6141
50.6142
50.6142
50.6143
50.6144
50.6145
50.6146
50.6147
50.6148
50.6148
50.6149
50.6149
50.6149
50.6149
50.615
50.615
50.6149
50.6149
50.6148
50.6148
50.6148
50.6148
50.6148
50.6148
50.6149
50.615
50.6151
50.6152
50.6153
50.6154
50.6154
50.6155
50.6155
50.6155
50.6156
50.6156
50.6156
50.6156
50.6157
50.6157
50.6157
50.6157
50.6157
50.6158
50.6158
50.6158
50.6158
50.6159
50.6159
50.6159
50.6159
50.616
50.616
50.616
50.6161
50.6161
50.6161
50.6162
50.6162
50.6163
50.6163
50.6164
50.6165
50.6165
50.6166
50.6167
50.6168
50.6169
50.617
50.6171
50.6172
50.6174
50.6175
50.6177
50.6179
50.6181
50.6183
50.6185
50.6188
50.6191
50.6194
50.6197
50.62
50.6204
50.6208
50.6213
50.6217
50.6223
50.6228
50.6234
50.624
50.6247
50.6254
50.6262
50.627
50.6279
50.6288
50.6298
50.6309
50.632
50.6332
50.6344
50.6357
50.6371
50.6386
50.6401
50.6417
50.6434
50.6452
50.6471
50.6491
50.6514
50.6536
50.6599
50.6499
50.6132
50.6132
50.6132
50.6132
50.6133
50.6133
50.6133
50.6133
50.6133
50.6133
50.6133
50.6133
50.6133
50.6133
50.6133
50.6133
50.6133
50.6133
50.6133
50.6133
50.6133
50.6133
50.6133
50.6133
50.6133
50.6133
50.6133
50.6133
50.6133
50.6133
50.6133
50.6133
50.6133
50.6133
50.6133
50.6133
50.6133
50.6133
50.6133
50.6133
50.6133
50.6133
50.6133
50.6133
50.6133
50.6133
50.6133
50.6133
50.6133
50.6133
50.6133
50.6132
50.6132
50.6132
50.6132
50.6132
50.6132
50.6132
50.6133
50.6135
50.6136
50.6137
50.6137
50.6138
50.6138
50.6139
50.6139
50.6139
50.6139
50.6139
50.6139
50.6139
50.6138
50.6138
50.6138
50.6138
50.6138
50.6138
50.6139
50.614
50.614
50.6141
50.6141
50.6141
50.6141
50.6141
50.6142
50.6142
50.6143
50.6144
50.6145
50.6146
50.6147
50.6148
50.6148
50.6149
50.6149
50.6149
50.6149
50.6149
50.6149
50.6149
50.6149
50.6148
50.6148
50.6148
50.6148
50.6148
50.6148
50.6149
50.615
50.6151
50.6152
50.6153
50.6153
50.6154
50.6155
50.6155
50.6155
50.6156
50.6156
50.6156
50.6156
50.6157
50.6157
50.6157
50.6157
50.6157
50.6158
50.6158
50.6158
50.6158
50.6159
50.6159
50.6159
50.6159
50.616
50.616
50.616
50.6161
50.6161
50.6161
50.6162
50.6162
50.6163
50.6163
50.6164
50.6165
50.6165
50.6166
50.6167
50.6168
50.6169
50.617
50.6171
50.6172
50.6174
50.6175
50.6177
50.6179
50.6181
50.6183
50.6185
50.6188
50.6191
50.6194
50.6197
50.62
50.6204
50.6208
50.6213
50.6217
50.6223
50.6228
50.6234
50.624
50.6247
50.6254
50.6262
50.627
50.6279
50.6288
50.6298
50.6309
50.632
50.6332
50.6344
50.6357
50.6371
50.6386
50.6401
50.6417
50.6434
50.6452
50.6471
50.6491
50.6513
50.6536
50.6593
50.6538
50.6132
50.6132
50.6132
50.6132
50.6132
50.6132
50.6132
50.6133
50.6133
50.6133
50.6133
50.6133
50.6133
50.6133
50.6133
50.6133
50.6133
50.6133
50.6133
50.6133
50.6133
50.6133
50.6133
50.6133
50.6133
50.6133
50.6133
50.6133
50.6133
50.6133
50.6133
50.6133
50.6133
50.6133
50.6133
50.6133
50.6133
50.6133
50.6133
50.6133
50.6133
50.6133
50.6133
50.6133
50.6133
50.6133
50.6133
50.6133
50.6133
50.6133
50.6133
50.6132
50.6132
50.6132
50.6132
50.6132
50.6132
50.6132
50.6133
50.6135
50.6136
50.6137
50.6137
50.6138
50.6138
50.6139
50.6139
50.6139
50.6139
50.6139
50.6139
50.6139
50.6138
50.6138
50.6138
50.6138
50.6138
50.6138
50.6139
50.6139
50.614
50.6141
50.6141
50.6141
50.6141
50.6141
50.6142
50.6142
50.6143
50.6144
50.6145
50.6146
50.6147
50.6148
50.6148
50.6149
50.6149
50.6149
50.6149
50.6149
50.6149
50.6149
50.6149
50.6148
50.6148
50.6148
50.6148
50.6148
50.6148
50.6149
50.615
50.6151
50.6152
50.6153
50.6153
50.6154
50.6155
50.6155
50.6155
50.6156
50.6156
50.6156
50.6156
50.6157
50.6157
50.6157
50.6157
50.6157
50.6158
50.6158
50.6158
50.6158
50.6159
50.6159
50.6159
50.6159
50.616
50.616
50.616
50.6161
50.6161
50.6161
50.6162
50.6162
50.6163
50.6163
50.6164
50.6165
50.6165
50.6166
50.6167
50.6168
50.6169
50.617
50.6171
50.6172
50.6174
50.6175
50.6177
50.6179
50.6181
50.6183
50.6185
50.6188
50.6191
50.6194
50.6197
50.62
50.6204
50.6208
50.6213
50.6217
50.6223
50.6228
50.6234
50.624
50.6247
50.6254
50.6262
50.627
50.6279
50.6288
50.6298
50.6309
50.632
50.6332
50.6344
50.6357
50.6371
50.6386
50.6401
50.6417
50.6435
50.6452
50.6472
50.649
50.6513
50.6532
50.6574
50.652
50.6132
50.6132
50.6132
50.6132
50.6132
50.6132
50.6132
50.6133
50.6133
50.6133
50.6133
50.6133
50.6133
50.6133
50.6133
50.6133
50.6133
50.6133
50.6133
50.6133
50.6133
50.6133
50.6133
50.6133
50.6133
50.6133
50.6133
50.6133
50.6133
50.6133
50.6133
50.6133
50.6133
50.6133
50.6133
50.6133
50.6133
50.6133
50.6133
50.6133
50.6133
50.6133
50.6133
50.6133
50.6133
50.6133
50.6133
50.6133
50.6133
50.6133
50.6133
50.6132
50.6132
50.6132
50.6132
50.6132
50.6132
50.6132
50.6133
50.6135
50.6136
50.6137
50.6137
50.6138
50.6138
50.6139
50.6139
50.6139
50.6139
50.6139
50.6139
50.6139
50.6138
50.6138
50.6138
50.6138
50.6138
50.6138
50.6139
50.6139
50.614
50.6141
50.6141
50.6141
50.6141
50.6141
50.6142
50.6142
50.6143
50.6144
50.6145
50.6146
50.6147
50.6148
50.6148
50.6149
50.6149
50.6149
50.6149
50.6149
50.6149
50.6149
50.6149
50.6148
50.6148
50.6148
50.6148
50.6148
50.6148
50.6149
50.615
50.6151
50.6152
50.6153
50.6153
50.6154
50.6155
50.6155
50.6155
50.6156
50.6156
50.6156
50.6156
50.6157
50.6157
50.6157
50.6157
50.6157
50.6158
50.6158
50.6158
50.6158
50.6158
50.6159
50.6159
50.6159
50.616
50.616
50.616
50.6161
50.6161
50.6161
50.6162
50.6162
50.6163
50.6163
50.6164
50.6165
50.6165
50.6166
50.6167
50.6168
50.6169
50.617
50.6171
50.6172
50.6174
50.6175
50.6177
50.6179
50.6181
50.6183
50.6185
50.6188
50.6191
50.6194
50.6197
50.62
50.6204
50.6208
50.6213
50.6217
50.6223
50.6228
50.6234
50.624
50.6247
50.6254
50.6262
50.627
50.6279
50.6288
50.6298
50.6309
50.632
50.6332
50.6344
50.6357
50.6371
50.6386
50.6401
50.6417
50.6435
50.6452
50.6471
50.6491
50.6511
50.653
50.6547
50.6554
50.6132
50.6132
50.6132
50.6132
50.6133
50.6133
50.6133
50.6133
50.6133
50.6133
50.6133
50.6133
50.6133
50.6133
50.6133
50.6133
50.6133
50.6133
50.6133
50.6133
50.6133
50.6133
50.6133
50.6133
50.6133
50.6133
50.6133
50.6133
50.6133
50.6133
50.6133
50.6133
50.6133
50.6133
50.6133
50.6133
50.6133
50.6133
50.6133
50.6133
50.6133
50.6133
50.6133
50.6133
50.6133
50.6133
50.6133
50.6133
50.6133
50.6133
50.6133
50.6132
50.6132
50.6132
50.6132
50.6132
50.6132
50.6132
50.6133
50.6135
50.6136
50.6137
50.6137
50.6138
50.6138
50.6139
50.6139
50.6139
50.6139
50.6139
50.6139
50.6139
50.6138
50.6138
50.6138
50.6138
50.6138
50.6138
50.6139
50.614
50.614
50.6141
50.6141
50.6141
50.6141
50.6141
50.6142
50.6142
50.6143
50.6144
50.6145
50.6146
50.6147
50.6148
50.6148
50.6149
50.6149
50.6149
50.6149
50.6149
50.6149
50.6149
50.6149
50.6148
50.6148
50.6148
50.6148
50.6148
50.6148
50.6149
50.615
50.6151
50.6152
50.6153
50.6153
50.6154
50.6155
50.6155
50.6155
50.6156
50.6156
50.6156
50.6156
50.6157
50.6157
50.6157
50.6157
50.6157
50.6158
50.6158
50.6158
50.6158
50.6159
50.6159
50.6159
50.6159
50.616
50.616
50.616
50.6161
50.6161
50.6161
50.6162
50.6162
50.6163
50.6163
50.6164
50.6165
50.6165
50.6166
50.6167
50.6168
50.6169
50.617
50.6171
50.6172
50.6174
50.6175
50.6177
50.6179
50.6181
50.6183
50.6185
50.6188
50.6191
50.6194
50.6197
50.62
50.6204
50.6208
50.6213
50.6217
50.6223
50.6228
50.6234
50.624
50.6247
50.6254
50.6262
50.627
50.6279
50.6288
50.6298
50.6309
50.632
50.6332
50.6344
50.6357
50.6371
50.6386
50.6401
50.6417
50.6435
50.6452
50.6471
50.6491
50.6509
50.6531
50.6518
50.666
50.6133
50.6133
50.6133
50.6133
50.6133
50.6133
50.6133
50.6133
50.6133
50.6133
50.6133
50.6133
50.6133
50.6133
50.6133
50.6133
50.6133
50.6133
50.6133
50.6133
50.6133
50.6133
50.6133
50.6133
50.6133
50.6133
50.6133
50.6133
50.6133
50.6133
50.6133
50.6133
50.6133
50.6133
50.6133
50.6133
50.6133
50.6133
50.6133
50.6133
50.6133
50.6133
50.6133
50.6133
50.6133
50.6133
50.6133
50.6133
50.6133
50.6133
50.6133
50.6132
50.6132
50.6132
50.6132
50.6132
50.6132
50.6132
50.6133
50.6135
50.6136
50.6137
50.6137
50.6138
50.6138
50.6139
50.6139
50.6139
50.6139
50.6139
50.6139
50.6139
50.6138
50.6138
50.6138
50.6138
50.6138
50.6138
50.6139
50.614
50.614
50.6141
50.6141
50.6141
50.6141
50.6141
50.6142
50.6142
50.6143
50.6144
50.6145
50.6146
50.6147
50.6148
50.6148
50.6149
50.6149
50.6149
50.6149
50.615
50.615
50.6149
50.6149
50.6148
50.6148
50.6148
50.6148
50.6148
50.6148
50.6149
50.615
50.6151
50.6152
50.6153
50.6154
50.6154
50.6155
50.6155
50.6155
50.6156
50.6156
50.6156
50.6156
50.6157
50.6157
50.6157
50.6157
50.6157
50.6158
50.6158
50.6158
50.6158
50.6159
50.6159
50.6159
50.6159
50.616
50.616
50.616
50.6161
50.6161
50.6161
50.6162
50.6162
50.6163
50.6163
50.6164
50.6165
50.6165
50.6166
50.6167
50.6168
50.6169
50.617
50.6171
50.6172
50.6174
50.6175
50.6177
50.6179
50.6181
50.6183
50.6185
50.6188
50.6191
50.6194
50.6197
50.62
50.6204
50.6208
50.6213
50.6217
50.6223
50.6228
50.6234
50.624
50.6247
50.6254
50.6262
50.627
50.6279
50.6288
50.6298
50.6309
50.632
50.6332
50.6344
50.6357
50.6371
50.6386
50.6401
50.6417
50.6434
50.6452
50.6471
50.6491
50.6508
50.6535
50.6487
50.6949
50.6133
50.6133
50.6133
50.6133
50.6133
50.6133
50.6133
50.6133
50.6133
50.6133
50.6133
50.6133
50.6133
50.6133
50.6133
50.6133
50.6133
50.6133
50.6133
50.6133
50.6133
50.6133
50.6133
50.6133
50.6133
50.6133
50.6133
50.6133
50.6133
50.6133
50.6133
50.6133
50.6133
50.6133
50.6133
50.6133
50.6133
50.6133
50.6133
50.6133
50.6133
50.6133
50.6133
50.6133
50.6133
50.6133
50.6133
50.6133
50.6133
50.6133
50.6133
50.6132
50.6132
50.6132
50.6132
50.6132
50.6132
50.6132
50.6133
50.6135
50.6136
50.6137
50.6137
50.6138
50.6138
50.6139
50.6139
50.6139
50.6139
50.6139
50.6139
50.6139
50.6138
50.6138
50.6138
50.6138
50.6138
50.6138
50.6139
50.614
50.614
50.6141
50.6141
50.6141
50.6141
50.6141
50.6142
50.6142
50.6143
50.6144
50.6145
50.6146
50.6147
50.6148
50.6148
50.6149
50.6149
50.6149
50.6149
50.6149
50.6149
50.6149
50.6149
50.6148
50.6148
50.6148
50.6148
50.6148
50.6148
50.6149
50.615
50.6151
50.6152
50.6153
50.6153
50.6154
50.6155
50.6155
50.6155
50.6156
50.6156
50.6156
50.6156
50.6157
50.6157
50.6157
50.6157
50.6157
50.6158
50.6158
50.6158
50.6158
50.6158
50.6159
50.6159
50.6159
50.616
50.616
50.616
50.6161
50.6161
50.6161
50.6162
50.6162
50.6163
50.6163
50.6164
50.6165
50.6165
50.6166
50.6167
50.6168
50.6169
50.617
50.6171
50.6172
50.6174
50.6175
50.6177
50.6179
50.6181
50.6183
50.6185
50.6188
50.6191
50.6194
50.6197
50.62
50.6204
50.6208
50.6213
50.6217
50.6223
50.6228
50.6234
50.624
50.6247
50.6254
50.6262
50.627
50.6279
50.6288
50.6298
50.6309
50.632
50.6332
50.6344
50.6357
50.6371
50.6386
50.6401
50.6417
50.6434
50.6452
50.6471
50.6491
50.6508
50.6537
50.6469
50.7101
50.6118
50.6118
50.6118
50.6118
50.6118
50.6118
50.6118
50.6118
50.6118
50.6118
50.6118
50.6118
50.6118
50.6118
50.6118
50.6118
50.6118
50.6118
50.6118
50.6119
50.6119
50.6119
50.6119
50.6119
50.6119
50.6119
50.6119
50.6119
50.6119
50.6119
50.6119
50.6119
50.6119
50.6119
50.6119
50.6119
50.6119
50.6119
50.6119
50.6119
50.612
50.612
50.612
50.612
50.612
50.612
50.612
50.612
50.612
50.612
50.612
50.6119
50.6119
50.6119
50.6119
50.6119
50.6119
50.612
50.6121
50.6122
50.6123
50.6124
50.6125
50.6126
50.6126
50.6126
50.6127
50.6127
50.6127
50.6127
50.6127
50.6126
50.6126
50.6126
50.6126
50.6126
50.6126
50.6126
50.6127
50.6128
50.6129
50.6129
50.6129
50.613
50.613
50.613
50.613
50.6131
50.6132
50.6133
50.6134
50.6135
50.6136
50.6137
50.6137
50.6138
50.6138
50.6138
50.6139
50.6139
50.6139
50.6138
50.6138
50.6137
50.6137
50.6137
50.6137
50.6137
50.6138
50.6139
50.614
50.6141
50.6142
50.6143
50.6144
50.6144
50.6145
50.6145
50.6145
50.6146
50.6146
50.6146
50.6147
50.6147
50.6147
50.6147
50.6148
50.6148
50.6148
50.6148
50.6149
50.6149
50.6149
50.6149
50.615
50.615
50.615
50.6151
50.6151
50.6151
50.6152
50.6152
50.6152
50.6153
50.6153
50.6154
50.6155
50.6155
50.6156
50.6157
50.6157
50.6158
50.6159
50.616
50.6162
50.6163
50.6164
50.6166
50.6167
50.6169
50.6171
50.6173
50.6176
50.6178
50.6181
50.6184
50.6187
50.6191
50.6195
50.6199
50.6203
50.6208
50.6213
50.6219
50.6224
50.6231
50.6238
50.6245
50.6252
50.6261
50.6269
50.6279
50.6289
50.6299
50.631
50.6322
50.6335
50.6348
50.6362
50.6376
50.6392
50.6408
50.6425
50.6443
50.6462
50.6482
50.6498
50.6529
50.6445
50.7231
50.7473
50.7866
50.7999
50.802
50.802
50.8022
50.8021
50.8014
50.8003
50.7991
50.7977
50.7962
50.7944
50.7922
50.7895
50.786
50.781
50.7743
50.7646
50.7495
50.7423
50.7769
50.7909
50.7936
50.794
50.7944
50.7946
50.7943
50.7934
50.7924
50.7911
50.7899
50.7882
50.7863
50.7835
50.7801
50.775
50.7682
50.7583
50.7432
50.7369
50.7719
50.7876
50.7914
50.7919
50.7923
50.7924
50.7919
50.7909
50.7898
50.7885
50.7871
50.7853
50.7833
50.7806
50.7771
50.7719
50.7646
50.754
50.7375
50.7189
50.7388
50.7454
50.7453
50.7445
50.7441
50.7435
50.7425
50.7412
50.7398
50.7383
50.7366
50.7346
50.7321
50.7289
50.7251
50.7205
50.7137
50.7044
50.6912
50.6885
50.7012
50.7109
50.7178
50.723
50.7263
50.728
50.729
50.7292
50.7291
50.7283
50.7269
50.7251
50.7225
50.7191
50.7146
50.7086
50.7016
50.6935
50.6837
50.6366
50.6274
50.6175
50.6073
50.598
50.5903
50.5845
50.58
50.5762
50.5733
50.571
50.5696
50.5682
50.5675
50.5665
50.5659
50.5659
50.5671
50.5686
50.573
50.5791
50.5586
50.5517
50.5529
50.5549
50.5562
50.557
50.5583
50.5591
50.5601
50.5606
50.5611
50.5613
50.5617
50.5621
50.5635
50.5651
50.5689
50.5753
50.5865
50.5107
50.4548
50.4124
50.3841
50.3648
50.3502
50.3387
50.3307
50.3255
50.3225
50.3213
50.3219
50.3244
50.3292
50.3377
50.3482
50.3642
50.3822
50.4081
50.4397
50.4962
50.4355
50.3978
50.3766
50.3626
50.3521
50.3438
50.3385
50.3356
50.3349
50.3356
50.338
50.3418
50.3479
50.3567
50.3684
50.3834
50.4015
50.4253
50.4552
50.4778
50.3927
50.3455
50.3178
50.2996
50.284
50.2715
50.2624
50.2572
50.2526
50.2512
50.2508
50.2534
50.2576
50.266
50.2777
50.2933
50.3134
50.3397
50.3752
50.6828
50.6458
50.6374
50.6366
50.6383
50.6406
50.6432
50.6459
50.6488
50.6517
50.6547
50.6578
50.6609
50.6641
50.6675
50.6708
50.6743
50.6779
50.6815
50.6853
50.6891
50.693
50.697
50.7011
50.7053
50.7095
50.7139
50.7183
50.7228
50.7275
50.7322
50.737
50.7419
50.7469
50.7521
50.7573
50.7627
50.7681
50.7736
50.7793
50.785
50.7908
50.7968
50.8028
50.809
50.8152
50.8216
50.828
50.8346
50.8413
50.8481
50.855
50.862
50.8692
50.8764
50.8837
50.8912
50.8988
50.9065
50.9143
50.9223
50.9303
50.9386
50.9469
50.9554
50.9639
50.9726
50.9814
50.9903
50.9993
51.0085
51.0178
51.0272
51.0368
51.0465
51.0563
51.0663
51.0764
51.0866
51.0969
51.1074
51.118
51.1288
51.1397
51.1507
51.1618
51.1732
51.1846
51.1962
51.2079
51.2198
51.2317
51.2438
51.2561
51.2685
51.281
51.2936
51.3065
51.3194
51.3326
51.3458
51.3592
51.3728
51.3865
51.4003
51.4143
51.4284
51.4427
51.4571
51.4717
51.4864
51.5013
51.5163
51.5315
51.5468
51.5622
51.5778
51.5935
51.6094
51.6254
51.6416
51.6579
51.6744
51.691
51.7078
51.7248
51.7418
51.759
51.7764
51.7939
51.8115
51.8293
51.8472
51.8653
51.8836
51.902
51.9206
51.9393
51.9582
51.9772
51.9963
52.0155
52.0348
52.0544
52.0742
52.0942
52.1146
52.1351
52.1558
52.1765
52.1973
52.2181
52.2388
52.2596
52.2809
52.303
52.3259
52.3482
52.3675
52.3773
52.3721
52.3617
52.3499
52.3395
52.3326
52.3305
52.3341
52.3436
52.3592
52.3804
52.406
52.4346
52.473
52.532
52.5925
52.6478
52.698
52.7429
52.7824
52.8167
52.8471
52.8754
52.9032
52.9302
52.9546
52.9789
53.0015
53.0259
53.0483
53.0729
53.0952
53.1201
53.1423
53.1675
53.1897
53.2151
53.2373
53.2626
53.2802
53.325
50.683
50.6483
50.6402
50.6396
50.6415
50.6439
50.6465
50.6492
50.6521
50.655
50.658
50.6611
50.6642
50.6675
50.6708
50.6742
50.6777
50.6812
50.6849
50.6886
50.6924
50.6963
50.7003
50.7044
50.7086
50.7129
50.7173
50.7217
50.7262
50.7309
50.7356
50.7404
50.7453
50.7503
50.7555
50.7607
50.7661
50.7715
50.7771
50.7827
50.7884
50.7943
50.8002
50.8063
50.8124
50.8187
50.825
50.8315
50.8381
50.8448
50.8516
50.8585
50.8655
50.8727
50.8799
50.8872
50.8947
50.9023
50.91
50.9178
50.9257
50.9338
50.942
50.9504
50.9588
50.9674
50.9761
50.9849
50.9938
51.0029
51.012
51.0213
51.0307
51.0403
51.05
51.0598
51.0698
51.0799
51.0901
51.1005
51.111
51.1216
51.1323
51.1432
51.1542
51.1654
51.1767
51.1881
51.1997
51.2115
51.2233
51.2353
51.2475
51.2597
51.2721
51.2846
51.2973
51.3101
51.323
51.3361
51.3494
51.3628
51.3764
51.3901
51.4039
51.4179
51.4321
51.4463
51.4608
51.4753
51.49
51.5049
51.5199
51.5351
51.5504
51.5659
51.5815
51.5972
51.6131
51.6291
51.6453
51.6616
51.6781
51.6947
51.7115
51.7284
51.7455
51.7627
51.78
51.7975
51.8152
51.8329
51.8509
51.8689
51.8871
51.9055
51.924
51.9427
51.9615
51.9805
51.9995
52.0188
52.0382
52.0577
52.0775
52.0974
52.1174
52.1377
52.1581
52.1785
52.1989
52.2195
52.24
52.2608
52.2822
52.3043
52.3271
52.3507
52.3747
52.3987
52.4221
52.4453
52.469
52.4933
52.5172
52.5385
52.5564
52.5718
52.5861
52.6002
52.615
52.6312
52.6491
52.6688
52.6905
52.7142
52.7399
52.767
52.7946
52.8223
52.8499
52.8773
52.9035
52.9294
52.9533
52.9783
53.0014
53.0261
53.0488
53.0735
53.096
53.1209
53.1433
53.1684
53.1907
53.216
53.2382
53.2636
53.2816
53.3216
50.6828
50.6494
50.6407
50.6396
50.6411
50.6433
50.6458
50.6486
50.6514
50.6543
50.6573
50.6604
50.6636
50.6668
50.6701
50.6735
50.677
50.6805
50.6842
50.6879
50.6918
50.6957
50.6997
50.7037
50.7079
50.7122
50.7166
50.721
50.7256
50.7302
50.7349
50.7397
50.7446
50.7497
50.7548
50.76
50.7654
50.7708
50.7764
50.782
50.7877
50.7936
50.7995
50.8056
50.8117
50.818
50.8243
50.8308
50.8374
50.8441
50.8509
50.8578
50.8648
50.872
50.8792
50.8866
50.894
50.9016
50.9093
50.9171
50.9251
50.9331
50.9413
50.9497
50.9581
50.9667
50.9754
50.9842
50.9931
51.0022
51.0113
51.0206
51.0301
51.0396
51.0493
51.0591
51.0691
51.0792
51.0894
51.0998
51.1103
51.1209
51.1317
51.1425
51.1536
51.1647
51.176
51.1875
51.199
51.2108
51.2227
51.2347
51.2468
51.259
51.2714
51.2839
51.2966
51.3094
51.3224
51.3355
51.3487
51.3621
51.3757
51.3894
51.4032
51.4172
51.4314
51.4457
51.4601
51.4747
51.4894
51.5042
51.5193
51.5344
51.5498
51.5652
51.5808
51.5966
51.6124
51.6285
51.6446
51.661
51.6774
51.6941
51.7108
51.7278
51.7448
51.762
51.7794
51.7969
51.8146
51.8323
51.8502
51.8683
51.8865
51.9049
51.9234
51.942
51.9609
51.9798
51.9989
52.0181
52.0374
52.057
52.0767
52.0966
52.1166
52.1369
52.1573
52.1778
52.1982
52.2186
52.2391
52.2599
52.2811
52.303
52.3262
52.3504
52.3751
52.4001
52.4253
52.4499
52.4737
52.4978
52.522
52.5455
52.5673
52.5872
52.6055
52.6228
52.6399
52.6573
52.6755
52.6945
52.7145
52.7357
52.7579
52.7813
52.8051
52.8302
52.8545
52.8801
52.9042
52.9294
52.9531
52.978
53.001
53.0258
53.0485
53.0733
53.0958
53.1208
53.1432
53.1683
53.1907
53.216
53.2382
53.2635
53.2822
53.3157
50.6535
50.6313
50.6268
50.6291
50.6323
50.6353
50.6383
50.6412
50.6441
50.6471
50.6501
50.6532
50.6564
50.6596
50.6629
50.6663
50.6698
50.6733
50.677
50.6807
50.6845
50.6884
50.6924
50.6965
50.7007
50.705
50.7094
50.7138
50.7183
50.723
50.7277
50.7325
50.7374
50.7424
50.7476
50.7528
50.7581
50.7636
50.7691
50.7747
50.7805
50.7863
50.7923
50.7983
50.8045
50.8108
50.8171
50.8236
50.8302
50.8368
50.8436
50.8506
50.8576
50.8647
50.8719
50.8793
50.8868
50.8943
50.902
50.9099
50.9178
50.9259
50.9341
50.9424
50.9509
50.9595
50.9681
50.9769
50.9859
50.9949
51.0041
51.0134
51.0228
51.0323
51.042
51.0519
51.0618
51.0719
51.0822
51.0925
51.103
51.1136
51.1244
51.1353
51.1463
51.1575
51.1688
51.1802
51.1918
51.2035
51.2154
51.2274
51.2395
51.2517
51.2641
51.2766
51.2893
51.3021
51.3151
51.3282
51.3415
51.3549
51.3684
51.3821
51.396
51.41
51.4241
51.4384
51.4528
51.4674
51.4821
51.497
51.512
51.5271
51.5424
51.5579
51.5734
51.5892
51.605
51.6211
51.6373
51.6536
51.6701
51.6867
51.7035
51.7204
51.7375
51.7547
51.7721
51.7896
51.8072
51.825
51.843
51.8611
51.8794
51.8979
51.9164
51.9351
51.9539
51.9729
51.992
52.0114
52.031
52.0508
52.0707
52.0909
52.111
52.1312
52.1515
52.1718
52.1921
52.2128
52.234
52.2557
52.2779
52.3007
52.3239
52.347
52.3698
52.3925
52.4153
52.4381
52.4608
52.4831
52.505
52.5263
52.5473
52.5681
52.5889
52.6098
52.631
52.6525
52.6743
52.6964
52.7189
52.7417
52.7648
52.7884
52.8117
52.8357
52.859
52.8831
52.9064
52.9303
52.9538
52.9775
53.0011
53.0248
53.0481
53.0724
53.0952
53.1202
53.1427
53.1677
53.1904
53.2156
53.2379
53.2632
53.2834
53.3076
50.6605
50.6527
50.6492
50.6463
50.6453
50.6462
50.6482
50.6507
50.6533
50.6561
50.6591
50.6621
50.6652
50.6684
50.6718
50.6752
50.6786
50.6822
50.6858
50.6896
50.6934
50.6973
50.7013
50.7054
50.7096
50.7138
50.7182
50.7227
50.7272
50.7319
50.7366
50.7414
50.7463
50.7514
50.7565
50.7617
50.767
50.7724
50.778
50.7836
50.7893
50.7952
50.8011
50.8072
50.8133
50.8196
50.826
50.8324
50.839
50.8457
50.8525
50.8594
50.8665
50.8736
50.8808
50.8882
50.8957
50.9033
50.911
50.9188
50.9268
50.9348
50.943
50.9513
50.9597
50.9683
50.977
50.9858
50.9947
51.0038
51.013
51.0223
51.0317
51.0413
51.051
51.0608
51.0707
51.0808
51.091
51.1014
51.1118
51.1225
51.1332
51.1441
51.1552
51.1663
51.1776
51.189
51.2006
51.2123
51.2242
51.2362
51.2483
51.2606
51.273
51.2856
51.2983
51.3111
51.3241
51.3372
51.3504
51.3638
51.3774
51.391
51.4049
51.4188
51.433
51.4472
51.4616
51.4762
51.4909
51.5058
51.5208
51.5359
51.5513
51.5667
51.5823
51.5981
51.6139
51.63
51.6462
51.6625
51.6789
51.6956
51.7123
51.7292
51.7463
51.7635
51.7808
51.7983
51.8159
51.8337
51.8516
51.8697
51.8878
51.9062
51.9246
51.9433
51.962
51.9809
51.9999
52.0191
52.0384
52.0578
52.0773
52.097
52.1169
52.1369
52.1571
52.1774
52.1979
52.2186
52.2392
52.2599
52.2808
52.3018
52.3232
52.3448
52.3667
52.3887
52.4109
52.4331
52.4554
52.4776
52.4998
52.5218
52.5438
52.5658
52.5878
52.6099
52.632
52.6543
52.6767
52.6993
52.7219
52.7448
52.7677
52.7906
52.8139
52.8368
52.8604
52.8833
52.907
52.9302
52.9537
52.9773
53.0006
53.0246
53.0478
53.0719
53.0953
53.1193
53.1432
53.1666
53.1912
53.2143
53.2389
53.2625
53.2861
53.3087
50.582
50.5944
50.6026
50.6098
50.6155
50.6197
50.6231
50.6262
50.6292
50.6322
50.6352
50.6383
50.6414
50.6447
50.648
50.6514
50.6549
50.6584
50.6621
50.6658
50.6696
50.6735
50.6775
50.6816
50.6858
50.69
50.6944
50.6989
50.7034
50.708
50.7127
50.7175
50.7224
50.7275
50.7326
50.7378
50.7431
50.7485
50.7541
50.7597
50.7655
50.7714
50.7773
50.7834
50.7895
50.7958
50.8022
50.8086
50.8152
50.8219
50.8287
50.8356
50.8426
50.8498
50.857
50.8643
50.8718
50.8793
50.8871
50.8949
50.9029
50.9109
50.9192
50.9275
50.9359
50.9445
50.9532
50.962
50.9709
50.9799
50.9891
50.9984
51.0079
51.0175
51.0272
51.037
51.047
51.0571
51.0673
51.0777
51.0882
51.0988
51.1096
51.1205
51.1315
51.1427
51.154
51.1655
51.177
51.1887
51.2005
51.2125
51.2246
51.2368
51.2492
51.2618
51.2745
51.2873
51.3003
51.3134
51.3267
51.3401
51.3537
51.3674
51.3812
51.3952
51.4094
51.4237
51.4382
51.4528
51.4675
51.4824
51.4975
51.5126
51.528
51.5435
51.5592
51.575
51.591
51.6072
51.6235
51.6399
51.6566
51.6734
51.6904
51.7075
51.7249
51.7424
51.76
51.7777
51.7956
51.8136
51.8318
51.8502
51.8688
51.8875
51.9066
51.9257
51.9452
51.9647
51.9843
52.0041
52.0238
52.0436
52.0634
52.0832
52.1032
52.1235
52.1441
52.1651
52.1866
52.2086
52.2309
52.2534
52.2761
52.2989
52.3217
52.3445
52.3672
52.3898
52.4123
52.4348
52.4573
52.4798
52.5022
52.5245
52.5465
52.5684
52.5902
52.6119
52.6337
52.6555
52.6776
52.6996
52.7221
52.7444
52.7673
52.7898
52.8131
52.8358
52.8594
52.8822
52.9061
52.9289
52.9531
52.976
53.0003
53.0232
53.0478
53.0706
53.0955
53.1182
53.1433
53.1659
53.1912
53.2138
53.2392
53.2618
53.2878
53.3102
50.6237
50.648
50.653
50.6536
50.6548
50.6567
50.659
50.6615
50.6642
50.6671
50.67
50.6731
50.6762
50.6794
50.6827
50.6861
50.6896
50.6932
50.6968
50.7006
50.7044
50.7083
50.7123
50.7164
50.7206
50.7248
50.7292
50.7337
50.7382
50.7428
50.7476
50.7524
50.7574
50.7624
50.7675
50.7727
50.7781
50.7835
50.789
50.7946
50.8004
50.8062
50.8121
50.8181
50.8243
50.8306
50.8369
50.8434
50.85
50.8567
50.8635
50.8704
50.8775
50.8846
50.8918
50.8992
50.9067
50.9143
50.922
50.9298
50.9378
50.9458
50.954
50.9624
50.9708
50.9794
50.988
50.9968
51.0057
51.0148
51.0239
51.0332
51.0427
51.0522
51.0619
51.0717
51.0817
51.0918
51.102
51.1124
51.1229
51.1335
51.1442
51.155
51.166
51.1772
51.1885
51.1999
51.2114
51.2232
51.235
51.247
51.2591
51.2714
51.2838
51.2964
51.309
51.3219
51.3348
51.3479
51.3612
51.3746
51.3881
51.4018
51.4156
51.4296
51.4438
51.4581
51.4725
51.4871
51.5019
51.5167
51.5317
51.5468
51.5621
51.5776
51.5932
51.6089
51.6248
51.6409
51.6571
51.6734
51.6899
51.7066
51.7234
51.7403
51.7573
51.7746
51.7919
51.8094
51.8271
51.8449
51.8628
51.881
51.8992
51.9176
51.9362
51.9548
51.9736
51.9926
52.0117
52.0309
52.0502
52.0695
52.0891
52.1088
52.1287
52.1487
52.1689
52.189
52.2092
52.2296
52.2501
52.2709
52.2918
52.3126
52.3335
52.3544
52.3753
52.396
52.4169
52.4383
52.46
52.4821
52.5045
52.5274
52.5508
52.5744
52.5978
52.6207
52.6429
52.6646
52.6859
52.707
52.7284
52.7497
52.7715
52.7933
52.8158
52.838
52.8611
52.8835
52.9071
52.9298
52.9536
52.9764
53.0006
53.0234
53.048
53.0707
53.0955
53.1182
53.1433
53.1659
53.1912
53.2138
53.2393
53.2621
53.2886
53.313
50.5486
50.5955
50.6094
50.6156
50.619
50.6218
50.6245
50.6272
50.63
50.6329
50.6358
50.6389
50.642
50.6453
50.6486
50.652
50.6555
50.659
50.6627
50.6664
50.6702
50.6741
50.6781
50.6822
50.6864
50.6907
50.695
50.6995
50.704
50.7087
50.7134
50.7182
50.7231
50.7281
50.7332
50.7384
50.7437
50.7491
50.7547
50.7603
50.7661
50.772
50.778
50.784
50.7902
50.7964
50.8028
50.8093
50.8159
50.8226
50.8294
50.8363
50.8434
50.8505
50.8577
50.8651
50.8725
50.8801
50.8878
50.8956
50.9035
50.9116
50.9198
50.9282
50.9366
50.9452
50.9539
50.9627
50.9717
50.9807
50.9899
50.9992
51.0087
51.0183
51.0281
51.038
51.048
51.0582
51.0685
51.0789
51.0894
51.1001
51.1109