/*--------------------------------*- C++ -*----------------------------------*\
| =========                 |                                                 |
| \\      /  F ield         | OpenFOAM: The Open Source CFD Toolbox           |
|  \\    /   O peration     | Version:  3.0.x                                 |
|   \\  /    A nd           | Web:      www.OpenFOAM.org                      |
|    \\/     M anipulation  |                                                 |
\*---------------------------------------------------------------------------*/
FoamFile
{
    version     2.0;
    format      ascii;
    class       volScalarField;
    location    "0.43995";
    object      T;
}
// * * * * * * * * * * * * * * * * * * * * * * * * * * * * * * * * * * * * * //

dimensions      [0 0 0 1 0 0 0];

internalField   nonuniform List<scalar> 
13800
(
773.504
773.504
773.503
773.503
773.503
773.503
773.503
773.503
773.503
773.503
773.503
773.503
773.503
773.502
773.502
773.502
773.502
773.502
773.502
773.502
773.502
773.502
773.502
773.502
773.502
773.502
773.502
773.502
773.502
773.502
773.502
773.502
773.502
773.501
773.501
773.501
773.501
773.501
773.501
773.501
773.501
773.501
773.501
773.501
773.501
773.501
773.501
773.501
773.501
773.501
773.502
773.503
773.503
773.503
773.504
773.504
773.503
773.503
773.501
773.499
773.498
773.496
773.495
773.495
773.494
773.494
773.493
773.493
773.493
773.493
773.494
773.494
773.495
773.495
773.496
773.496
773.496
773.495
773.494
773.493
773.492
773.491
773.491
773.491
773.49
773.49
773.489
773.488
773.487
773.485
773.484
773.483
773.481
773.48
773.479
773.478
773.478
773.477
773.477
773.477
773.477
773.478
773.479
773.479
773.48
773.48
773.48
773.48
773.48
773.478
773.477
773.475
773.474
773.473
773.472
773.471
773.47
773.47
773.47
773.469
773.469
773.469
773.469
773.469
773.469
773.469
773.469
773.469
773.469
773.469
773.469
773.469
773.469
773.469
773.469
773.469
773.469
773.469
773.469
773.47
773.47
773.47
773.47
773.47
773.47
773.47
773.471
773.471
773.471
773.471
773.472
773.472
773.472
773.473
773.473
773.473
773.474
773.474
773.475
773.475
773.476
773.477
773.477
773.478
773.479
773.48
773.481
773.482
773.483
773.484
773.486
773.487
773.489
773.49
773.492
773.494
773.496
773.498
773.501
773.503
773.506
773.509
773.512
773.515
773.519
773.522
773.526
773.53
773.534
773.539
773.543
773.548
773.554
773.559
773.565
773.572
773.578
773.597
773.611
773.961
773.481
773.481
773.481
773.481
773.481
773.481
773.481
773.481
773.481
773.481
773.481
773.481
773.48
773.48
773.48
773.481
773.481
773.481
773.481
773.481
773.481
773.481
773.481
773.481
773.481
773.481
773.481
773.481
773.481
773.481
773.481
773.481
773.481
773.481
773.481
773.481
773.481
773.481
773.481
773.481
773.481
773.481
773.481
773.481
773.481
773.481
773.481
773.481
773.481
773.481
773.482
773.483
773.483
773.484
773.484
773.484
773.484
773.484
773.482
773.48
773.479
773.478
773.477
773.476
773.475
773.475
773.475
773.475
773.475
773.475
773.475
773.476
773.477
773.477
773.477
773.478
773.477
773.477
773.476
773.475
773.474
773.474
773.473
773.473
773.473
773.473
773.472
773.471
773.47
773.469
773.467
773.466
773.465
773.463
773.462
773.462
773.461
773.461
773.461
773.461
773.461
773.461
773.462
773.463
773.464
773.464
773.464
773.464
773.464
773.463
773.462
773.46
773.459
773.457
773.457
773.456
773.455
773.455
773.455
773.454
773.454
773.454
773.454
773.454
773.454
773.454
773.454
773.454
773.454
773.454
773.455
773.455
773.455
773.455
773.455
773.455
773.455
773.455
773.455
773.455
773.455
773.456
773.456
773.456
773.456
773.456
773.456
773.457
773.457
773.457
773.457
773.458
773.458
773.458
773.459
773.459
773.459
773.46
773.46
773.461
773.461
773.462
773.463
773.464
773.465
773.465
773.466
773.468
773.469
773.47
773.471
773.473
773.474
773.476
773.478
773.48
773.482
773.484
773.486
773.489
773.492
773.494
773.497
773.501
773.504
773.508
773.512
773.516
773.52
773.524
773.529
773.534
773.539
773.545
773.55
773.558
773.563
773.584
773.596
773.999
773.481
773.481
773.481
773.481
773.481
773.481
773.481
773.481
773.481
773.481
773.481
773.48
773.48
773.48
773.48
773.48
773.481
773.481
773.481
773.481
773.481
773.481
773.481
773.481
773.481
773.481
773.481
773.481
773.481
773.481
773.481
773.481
773.481
773.481
773.481
773.481
773.481
773.481
773.481
773.481
773.481
773.481
773.481
773.481
773.481
773.481
773.481
773.481
773.481
773.481
773.482
773.483
773.483
773.484
773.484
773.484
773.484
773.483
773.482
773.48
773.479
773.478
773.477
773.476
773.475
773.475
773.475
773.475
773.475
773.475
773.475
773.476
773.477
773.477
773.477
773.477
773.477
773.477
773.476
773.475
773.474
773.474
773.473
773.473
773.473
773.473
773.472
773.471
773.47
773.468
773.467
773.466
773.465
773.463
773.462
773.462
773.461
773.461
773.461
773.461
773.461
773.461
773.462
773.463
773.464
773.464
773.464
773.464
773.464
773.463
773.461
773.46
773.459
773.457
773.456
773.456
773.455
773.455
773.454
773.454
773.454
773.454
773.454
773.454
773.454
773.454
773.454
773.454
773.454
773.454
773.455
773.455
773.455
773.455
773.455
773.455
773.455
773.455
773.455
773.455
773.455
773.456
773.456
773.456
773.456
773.456
773.456
773.457
773.457
773.457
773.457
773.458
773.458
773.458
773.458
773.459
773.459
773.46
773.46
773.461
773.461
773.462
773.463
773.464
773.464
773.465
773.466
773.468
773.469
773.47
773.471
773.473
773.474
773.476
773.478
773.48
773.482
773.484
773.486
773.489
773.492
773.494
773.497
773.501
773.504
773.508
773.512
773.516
773.52
773.524
773.529
773.534
773.539
773.545
773.55
773.558
773.563
773.584
773.595
773.986
773.481
773.481
773.481
773.481
773.481
773.481
773.481
773.481
773.481
773.481
773.481
773.481
773.481
773.481
773.481
773.481
773.481
773.481
773.481
773.481
773.481
773.481
773.481
773.481
773.481
773.481
773.481
773.481
773.481
773.481
773.481
773.481
773.481
773.481
773.481
773.481
773.481
773.481
773.481
773.481
773.481
773.481
773.481
773.481
773.481
773.481
773.481
773.481
773.481
773.481
773.482
773.483
773.484
773.484
773.484
773.484
773.484
773.484
773.482
773.48
773.479
773.478
773.477
773.476
773.475
773.475
773.475
773.475
773.475
773.475
773.475
773.476
773.477
773.477
773.478
773.478
773.478
773.477
773.476
773.475
773.474
773.474
773.473
773.473
773.473
773.473
773.472
773.471
773.47
773.469
773.467
773.466
773.465
773.463
773.462
773.462
773.461
773.461
773.461
773.461
773.461
773.461
773.462
773.463
773.464
773.464
773.464
773.464
773.464
773.463
773.462
773.46
773.459
773.457
773.457
773.456
773.455
773.455
773.454
773.454
773.454
773.454
773.454
773.454
773.454
773.454
773.454
773.454
773.454
773.454
773.455
773.455
773.455
773.455
773.455
773.455
773.455
773.455
773.455
773.455
773.455
773.456
773.456
773.456
773.456
773.456
773.456
773.457
773.457
773.457
773.457
773.458
773.458
773.458
773.458
773.459
773.459
773.46
773.46
773.461
773.461
773.462
773.463
773.464
773.465
773.465
773.466
773.468
773.469
773.47
773.471
773.473
773.474
773.476
773.478
773.48
773.482
773.484
773.486
773.489
773.492
773.494
773.497
773.501
773.504
773.508
773.512
773.516
773.52
773.524
773.529
773.534
773.539
773.545
773.55
773.558
773.563
773.581
773.593
773.89
773.481
773.481
773.481
773.481
773.481
773.481
773.481
773.481
773.481
773.481
773.481
773.481
773.481
773.481
773.481
773.481
773.481
773.481
773.481
773.481
773.481
773.481
773.481
773.481
773.481
773.481
773.481
773.481
773.481
773.481
773.481
773.481
773.481
773.481
773.481
773.481
773.481
773.481
773.481
773.481
773.481
773.481
773.481
773.481
773.481
773.481
773.481
773.481
773.481
773.481
773.482
773.483
773.484
773.484
773.484
773.484
773.484
773.484
773.482
773.481
773.479
773.478
773.477
773.476
773.475
773.475
773.475
773.475
773.475
773.475
773.475
773.476
773.477
773.477
773.478
773.478
773.478
773.477
773.476
773.475
773.474
773.474
773.473
773.473
773.473
773.473
773.472
773.471
773.47
773.469
773.467
773.466
773.465
773.463
773.462
773.462
773.461
773.461
773.461
773.461
773.461
773.461
773.462
773.463
773.464
773.464
773.464
773.464
773.464
773.463
773.462
773.46
773.459
773.457
773.457
773.456
773.455
773.455
773.454
773.454
773.454
773.454
773.454
773.454
773.454
773.454
773.454
773.454
773.454
773.454
773.455
773.455
773.455
773.455
773.455
773.455
773.455
773.455
773.455
773.455
773.455
773.456
773.456
773.456
773.456
773.456
773.456
773.457
773.457
773.457
773.457
773.458
773.458
773.458
773.458
773.459
773.459
773.46
773.46
773.461
773.461
773.462
773.463
773.464
773.464
773.465
773.466
773.468
773.469
773.47
773.471
773.473
773.474
773.476
773.478
773.48
773.482
773.484
773.486
773.489
773.492
773.494
773.497
773.501
773.504
773.508
773.512
773.516
773.52
773.524
773.529
773.534
773.539
773.545
773.55
773.557
773.562
773.577
773.581
773.773
773.481
773.481
773.481
773.481
773.481
773.481
773.481
773.481
773.481
773.481
773.481
773.481
773.481
773.481
773.481
773.481
773.481
773.481
773.481
773.481
773.481
773.481
773.481
773.481
773.481
773.481
773.481
773.481
773.481
773.481
773.481
773.481
773.481
773.481
773.481
773.481
773.481
773.481
773.481
773.481
773.481
773.481
773.481
773.481
773.481
773.481
773.481
773.481
773.481
773.481
773.482
773.483
773.484
773.484
773.484
773.484
773.484
773.484
773.482
773.481
773.479
773.478
773.477
773.476
773.475
773.475
773.475
773.475
773.475
773.475
773.475
773.476
773.477
773.477
773.478
773.478
773.478
773.477
773.476
773.475
773.474
773.474
773.473
773.473
773.473
773.473
773.472
773.471
773.47
773.469
773.467
773.466
773.465
773.463
773.462
773.462
773.461
773.461
773.461
773.461
773.461
773.461
773.462
773.463
773.464
773.464
773.464
773.464
773.464
773.463
773.462
773.46
773.459
773.457
773.457
773.456
773.455
773.455
773.454
773.454
773.454
773.454
773.454
773.454
773.454
773.454
773.454
773.454
773.454
773.454
773.455
773.455
773.455
773.455
773.455
773.455
773.455
773.455
773.455
773.455
773.455
773.456
773.456
773.456
773.456
773.456
773.456
773.457
773.457
773.457
773.457
773.458
773.458
773.458
773.458
773.459
773.459
773.46
773.46
773.461
773.461
773.462
773.463
773.464
773.465
773.465
773.466
773.468
773.469
773.47
773.471
773.473
773.474
773.476
773.478
773.48
773.482
773.484
773.486
773.489
773.492
773.494
773.497
773.501
773.504
773.508
773.512
773.516
773.52
773.524
773.529
773.534
773.539
773.545
773.551
773.555
773.563
773.569
773.566
773.525
773.481
773.481
773.481
773.481
773.481
773.481
773.481
773.481
773.481
773.481
773.481
773.481
773.481
773.481
773.481
773.481
773.481
773.481
773.481
773.481
773.481
773.481
773.481
773.481
773.481
773.481
773.481
773.481
773.481
773.481
773.481
773.481
773.481
773.481
773.481
773.481
773.481
773.481
773.481
773.481
773.481
773.481
773.481
773.481
773.481
773.481
773.481
773.481
773.481
773.481
773.482
773.483
773.484
773.484
773.484
773.484
773.484
773.484
773.482
773.48
773.479
773.478
773.477
773.476
773.475
773.475
773.475
773.475
773.475
773.475
773.475
773.476
773.477
773.477
773.478
773.478
773.478
773.477
773.476
773.475
773.474
773.474
773.473
773.473
773.473
773.473
773.472
773.471
773.47
773.469
773.467
773.466
773.465
773.463
773.462
773.462
773.461
773.461
773.461
773.461
773.461
773.461
773.462
773.463
773.464
773.464
773.464
773.464
773.464
773.463
773.462
773.46
773.459
773.457
773.457
773.456
773.455
773.455
773.454
773.454
773.454
773.454
773.454
773.454
773.454
773.454
773.454
773.454
773.454
773.454
773.455
773.455
773.455
773.455
773.455
773.455
773.455
773.455
773.455
773.455
773.455
773.456
773.456
773.456
773.456
773.456
773.456
773.457
773.457
773.457
773.457
773.458
773.458
773.458
773.458
773.459
773.459
773.46
773.46
773.461
773.461
773.462
773.463
773.464
773.465
773.465
773.466
773.468
773.469
773.47
773.471
773.473
773.474
773.476
773.478
773.48
773.482
773.484
773.486
773.489
773.492
773.494
773.497
773.501
773.504
773.508
773.512
773.516
773.52
773.524
773.529
773.534
773.539
773.545
773.55
773.556
773.564
773.557
773.553
773.188
773.481
773.481
773.481
773.481
773.481
773.481
773.481
773.481
773.481
773.481
773.481
773.48
773.48
773.48
773.48
773.48
773.481
773.481
773.481
773.481
773.481
773.481
773.481
773.481
773.481
773.481
773.481
773.481
773.481
773.481
773.481
773.481
773.481
773.481
773.481
773.481
773.481
773.481
773.481
773.481
773.481
773.481
773.481
773.481
773.481
773.481
773.481
773.481
773.481
773.481
773.482
773.483
773.483
773.484
773.484
773.484
773.484
773.483
773.482
773.48
773.479
773.478
773.477
773.476
773.475
773.475
773.475
773.475
773.475
773.475
773.475
773.476
773.477
773.477
773.477
773.477
773.477
773.477
773.476
773.475
773.474
773.474
773.473
773.473
773.473
773.473
773.472
773.471
773.47
773.468
773.467
773.466
773.465
773.463
773.462
773.462
773.461
773.461
773.461
773.461
773.461
773.461
773.462
773.463
773.464
773.464
773.464
773.464
773.464
773.463
773.461
773.46
773.459
773.457
773.456
773.456
773.455
773.455
773.454
773.454
773.454
773.454
773.454
773.454
773.454
773.454
773.454
773.454
773.454
773.454
773.455
773.455
773.455
773.455
773.455
773.455
773.455
773.455
773.455
773.455
773.455
773.456
773.456
773.456
773.456
773.456
773.456
773.457
773.457
773.457
773.457
773.458
773.458
773.458
773.458
773.459
773.459
773.46
773.46
773.461
773.461
773.462
773.463
773.464
773.465
773.465
773.466
773.468
773.469
773.47
773.471
773.473
773.474
773.476
773.478
773.48
773.482
773.484
773.486
773.489
773.492
773.494
773.497
773.501
773.504
773.508
773.512
773.516
773.52
773.524
773.529
773.534
773.539
773.545
773.55
773.555
773.564
773.547
773.584
772.712
773.481
773.481
773.481
773.481
773.481
773.481
773.481
773.481
773.481
773.481
773.481
773.481
773.48
773.48
773.48
773.481
773.481
773.481
773.481
773.481
773.481
773.481
773.481
773.481
773.481
773.481
773.481
773.481
773.481
773.481
773.481
773.481
773.481
773.481
773.481
773.481
773.481
773.481
773.481
773.481
773.481
773.481
773.481
773.481
773.481
773.481
773.481
773.481
773.481
773.481
773.482
773.483
773.483
773.484
773.484
773.484
773.484
773.484
773.482
773.48
773.479
773.478
773.477
773.476
773.475
773.475
773.475
773.475
773.475
773.475
773.475
773.476
773.477
773.477
773.477
773.478
773.477
773.477
773.476
773.475
773.474
773.474
773.473
773.473
773.473
773.473
773.472
773.471
773.47
773.469
773.467
773.466
773.465
773.463
773.462
773.462
773.461
773.461
773.461
773.461
773.461
773.461
773.462
773.463
773.464
773.464
773.464
773.464
773.464
773.463
773.462
773.46
773.459
773.457
773.457
773.456
773.455
773.455
773.455
773.454
773.454
773.454
773.454
773.454
773.454
773.454
773.454
773.454
773.454
773.454
773.455
773.455
773.455
773.455
773.455
773.455
773.455
773.455
773.455
773.455
773.455
773.456
773.456
773.456
773.456
773.456
773.456
773.457
773.457
773.457
773.457
773.458
773.458
773.458
773.459
773.459
773.459
773.46
773.46
773.461
773.461
773.462
773.463
773.464
773.465
773.465
773.466
773.468
773.469
773.47
773.471
773.473
773.474
773.476
773.478
773.48
773.482
773.484
773.486
773.489
773.492
773.494
773.497
773.501
773.504
773.508
773.512
773.516
773.52
773.524
773.529
773.534
773.539
773.545
773.55
773.555
773.564
773.544
773.608
772.474
773.504
773.504
773.503
773.503
773.503
773.503
773.503
773.503
773.503
773.503
773.503
773.503
773.503
773.502
773.502
773.502
773.502
773.502
773.502
773.502
773.502
773.502
773.502
773.502
773.502
773.502
773.502
773.502
773.502
773.502
773.502
773.502
773.502
773.501
773.501
773.501
773.501
773.501
773.501
773.501
773.501
773.501
773.501
773.501
773.501
773.501
773.501
773.501
773.501
773.501
773.502
773.503
773.503
773.503
773.504
773.504
773.503
773.503
773.501
773.499
773.498
773.496
773.495
773.495
773.494
773.494
773.493
773.493
773.493
773.493
773.494
773.494
773.495
773.495
773.496
773.496
773.496
773.495
773.494
773.493
773.492
773.491
773.491
773.491
773.49
773.49
773.489
773.488
773.487
773.485
773.484
773.483
773.481
773.48
773.479
773.478
773.478
773.477
773.477
773.477
773.477
773.478
773.479
773.479
773.48
773.48
773.48
773.48
773.48
773.478
773.477
773.475
773.474
773.473
773.472
773.471
773.47
773.47
773.47
773.469
773.469
773.469
773.469
773.469
773.469
773.469
773.469
773.469
773.469
773.469
773.469
773.469
773.469
773.469
773.469
773.469
773.469
773.469
773.469
773.47
773.47
773.47
773.47
773.47
773.47
773.47
773.471
773.471
773.471
773.471
773.472
773.472
773.472
773.473
773.473
773.473
773.474
773.474
773.475
773.475
773.476
773.477
773.477
773.478
773.479
773.48
773.481
773.482
773.483
773.484
773.486
773.487
773.489
773.49
773.492
773.494
773.496
773.498
773.501
773.503
773.506
773.509
773.512
773.515
773.519
773.522
773.526
773.53
773.534
773.539
773.544
773.548
773.554
773.559
773.565
773.569
773.579
773.556
773.644
772.274
773.908
773.973
774.017
774.032
774.042
774.049
774.054
774.058
774.061
774.064
774.066
774.067
774.067
774.065
774.06
774.052
774.038
774.015
773.976
773.9
773.893
773.941
773.966
773.974
773.979
773.981
773.983
773.983
773.983
773.982
773.982
773.979
773.979
773.974
773.969
773.959
773.946
773.921
773.885
773.817
773.889
773.937
773.97
773.978
773.985
773.991
773.995
773.997
773.999
773.998
773.998
773.995
773.993
773.986
773.978
773.964
773.946
773.917
773.876
773.81
773.813
773.84
773.852
773.855
773.858
773.862
773.866
773.87
773.875
773.88
773.887
773.894
773.901
773.908
773.913
773.914
773.908
773.894
773.865
773.822
773.722
773.754
773.779
773.798
773.811
773.821
773.824
773.821
773.818
773.81
773.798
773.78
773.763
773.741
773.719
773.694
773.671
773.649
773.629
773.614
773.55
773.537
773.516
773.497
773.485
773.478
773.479
773.483
773.492
773.505
773.525
773.549
773.577
773.607
773.641
773.672
773.707
773.732
773.762
773.772
773.335
773.315
773.313
773.32
773.323
773.318
773.314
773.3
773.285
773.26
773.236
773.205
773.177
773.146
773.121
773.099
773.096
773.104
773.135
773.163
773.052
772.969
772.898
772.859
772.839
772.827
772.824
772.827
772.84
772.863
772.894
772.931
772.977
773.03
773.083
773.154
773.201
773.305
773.38
773.472
772.869
772.783
772.707
772.655
772.621
772.589
772.565
772.543
772.531
772.52
772.52
772.524
772.541
772.564
772.595
772.633
772.682
772.756
772.854
772.984
772.772
772.656
772.524
772.479
772.445
772.445
772.459
772.481
772.497
772.549
772.592
772.655
772.711
772.79
772.86
772.94
773.03
773.135
773.267
773.411
773.684
773.617
773.603
773.607
773.61
773.617
773.626
773.634
773.643
773.652
773.661
773.671
773.68
773.69
773.7
773.711
773.722
773.733
773.744
773.755
773.767
773.779
773.791
773.804
773.816
773.829
773.843
773.857
773.871
773.886
773.9
773.916
773.931
773.946
773.961
773.977
773.993
774.009
774.026
774.043
774.061
774.078
774.097
774.115
774.134
774.153
774.173
774.193
774.213
774.233
774.254
774.275
774.296
774.319
774.341
774.364
774.387
774.411
774.434
774.458
774.482
774.507
774.531
774.556
774.581
774.607
774.634
774.661
774.688
774.716
774.744
774.773
774.802
774.831
774.86
774.89
774.92
774.95
774.981
775.013
775.045
775.077
775.11
775.143
775.177
775.211
775.245
775.279
775.314
775.349
775.385
775.422
775.459
775.497
775.535
775.574
775.613
775.652
775.691
775.731
775.771
775.812
775.853
775.894
775.936
775.978
776.021
776.064
776.108
776.152
776.196
776.24
776.286
776.331
776.378
776.424
776.472
776.52
776.568
776.617
776.666
776.716
776.766
776.816
776.866
776.918
776.969
777.021
777.074
777.127
777.18
777.234
777.288
777.343
777.397
777.452
777.507
777.561
777.616
777.672
777.729
777.787
777.845
777.902
777.958
778.012
778.065
778.118
778.17
778.223
778.278
778.336
778.397
778.459
778.515
778.561
778.598
778.645
778.741
778.978
779.44
779.983
780.547
781.093
781.588
782.014
782.357
782.611
782.777
782.86
782.879
782.855
782.686
782.212
781.717
781.303
780.967
780.71
780.536
780.44
780.403
780.397
780.401
780.417
780.473
780.531
780.615
780.674
780.763
780.82
780.912
780.966
781.059
781.111
781.205
781.254
781.349
781.392
781.524
781.221
773.624
773.564
773.552
773.556
773.559
773.566
773.575
773.584
773.592
773.601
773.61
773.62
773.629
773.639
773.649
773.66
773.67
773.681
773.693
773.704
773.716
773.728
773.74
773.752
773.765
773.778
773.791
773.805
773.819
773.833
773.848
773.863
773.879
773.894
773.91
773.925
773.941
773.957
773.974
773.991
774.008
774.026
774.044
774.062
774.081
774.1
774.12
774.14
774.16
774.181
774.201
774.222
774.244
774.265
774.288
774.31
774.334
774.357
774.381
774.405
774.429
774.454
774.479
774.503
774.529
774.554
774.58
774.607
774.634
774.662
774.69
774.719
774.748
774.777
774.807
774.837
774.867
774.897
774.928
774.959
774.991
775.023
775.056
775.089
775.123
775.157
775.191
775.226
775.261
775.296
775.332
775.368
775.405
775.442
775.48
775.519
775.558
775.597
775.637
775.677
775.717
775.758
775.798
775.84
775.882
775.924
775.966
776.009
776.053
776.097
776.142
776.186
776.232
776.277
776.323
776.37
776.417
776.464
776.512
776.561
776.611
776.661
776.711
776.761
776.812
776.863
776.915
776.967
777.019
777.072
777.126
777.18
777.234
777.289
777.344
777.399
777.455
777.511
777.567
777.623
777.68
777.738
777.795
777.852
777.909
777.966
778.023
778.079
778.135
778.194
778.254
778.315
778.379
778.441
778.495
778.541
778.58
778.609
778.633
778.66
778.696
778.738
778.775
778.803
778.841
778.918
779.047
779.213
779.4
779.589
779.77
779.931
780.069
780.18
780.264
780.319
780.347
780.354
780.356
780.357
780.361
780.37
780.396
780.429
780.493
780.54
780.617
780.671
780.756
780.81
780.9
780.953
781.046
781.097
781.191
781.241
781.335
781.378
781.504
781.272
773.634
773.576
773.564
773.567
773.57
773.577
773.586
773.594
773.603
773.612
773.621
773.63
773.64
773.65
773.66
773.67
773.681
773.692
773.703
773.714
773.726
773.738
773.75
773.763
773.776
773.788
773.802
773.815
773.829
773.844
773.859
773.874
773.889
773.905
773.92
773.936
773.952
773.968
773.985
774.002
774.019
774.037
774.055
774.073
774.092
774.111
774.13
774.15
774.171
774.191
774.212
774.233
774.254
774.276
774.298
774.321
774.344
774.368
774.391
774.415
774.44
774.464
774.489
774.514
774.539
774.565
774.591
774.618
774.645
774.673
774.701
774.729
774.758
774.788
774.817
774.847
774.877
774.908
774.938
774.97
775.001
775.034
775.066
775.1
775.133
775.167
775.201
775.236
775.271
775.306
775.342
775.378
775.415
775.452
775.49
775.529
775.568
775.607
775.647
775.687
775.727
775.768
775.809
775.85
775.892
775.934
775.977
776.02
776.063
776.107
776.152
776.196
776.242
776.287
776.333
776.38
776.427
776.474
776.523
776.571
776.621
776.67
776.72
776.771
776.821
776.873
776.924
776.976
777.029
777.081
777.135
777.189
777.243
777.298
777.353
777.409
777.464
777.52
777.576
777.633
777.69
777.748
777.806
777.863
777.921
777.978
778.034
778.091
778.147
778.205
778.265
778.328
778.392
778.454
778.512
778.561
778.594
778.614
778.627
778.638
778.648
778.67
778.705
778.738
778.769
778.815
778.885
778.985
779.112
779.254
779.4
779.543
779.677
779.8
779.908
780.001
780.081
780.142
780.201
780.241
780.293
780.329
780.386
780.429
780.496
780.545
780.623
780.676
780.76
780.814
780.903
780.956
781.047
781.099
781.192
781.242
781.336
781.379
781.496
781.36
773.704
773.661
773.665
773.668
773.677
773.685
773.694
773.703
773.712
773.721
773.731
773.74
773.75
773.76
773.77
773.78
773.791
773.802
773.813
773.824
773.836
773.848
773.86
773.873
773.886
773.898
773.912
773.925
773.94
773.954
773.969
773.984
773.999
774.015
774.03
774.046
774.062
774.079
774.095
774.112
774.13
774.147
774.165
774.183
774.202
774.221
774.241
774.261
774.281
774.301
774.322
774.343
774.364
774.386
774.409
774.431
774.454
774.478
774.502
774.526
774.55
774.574
774.599
774.624
774.649
774.675
774.701
774.728
774.755
774.783
774.811
774.84
774.869
774.898
774.927
774.957
774.987
775.018
775.049
775.08
775.112
775.144
775.177
775.21
775.243
775.277
775.311
775.346
775.38
775.416
775.452
775.488
775.526
775.563
775.601
775.64
775.678
775.718
775.757
775.797
775.837
775.878
775.919
775.96
776.002
776.044
776.087
776.13
776.173
776.217
776.261
776.306
776.351
776.397
776.444
776.49
776.538
776.586
776.634
776.683
776.732
776.781
776.831
776.881
776.932
776.983
777.034
777.086
777.139
777.192
777.245
777.299
777.352
777.406
777.46
777.514
777.569
777.624
777.681
777.737
777.793
777.848
777.902
777.956
778.01
778.063
778.118
778.176
778.234
778.294
778.357
778.415
778.469
778.517
778.56
778.595
778.628
778.664
778.706
778.751
778.798
778.846
778.897
778.955
779.022
779.098
779.182
779.269
779.358
779.446
779.532
779.615
779.695
779.772
779.844
779.912
779.978
780.038
780.104
780.159
780.228
780.283
780.354
780.416
780.485
780.552
780.622
780.69
780.765
780.827
780.912
780.965
781.055
781.108
781.197
781.247
781.34
781.384
781.486
781.493
773.571
773.561
773.555
773.55
773.552
773.556
773.562
773.569
773.578
773.587
773.596
773.605
773.615
773.625
773.635
773.645
773.656
773.667
773.678
773.689
773.701
773.713
773.725
773.738
773.75
773.763
773.777
773.79
773.804
773.818
773.833
773.848
773.863
773.878
773.894
773.91
773.927
773.943
773.96
773.977
773.995
774.012
774.03
774.049
774.067
774.086
774.106
774.125
774.145
774.166
774.187
774.208
774.229
774.251
774.273
774.296
774.318
774.342
774.365
774.389
774.414
774.438
774.463
774.489
774.515
774.541
774.567
774.594
774.621
774.648
774.676
774.704
774.733
774.762
774.792
774.822
774.852
774.883
774.914
774.945
774.977
775.01
775.042
775.075
775.109
775.142
775.177
775.211
775.247
775.282
775.318
775.355
775.391
775.428
775.466
775.504
775.542
775.581
775.621
775.661
775.701
775.742
775.783
775.825
775.867
775.909
775.952
775.996
776.039
776.083
776.128
776.173
776.218
776.264
776.31
776.357
776.404
776.451
776.5
776.548
776.597
776.647
776.697
776.747
776.798
776.85
776.902
776.954
777.007
777.06
777.113
777.168
777.222
777.277
777.333
777.389
777.445
777.502
777.558
777.616
777.674
777.732
777.791
777.851
777.911
777.971
778.03
778.09
778.15
778.21
778.269
778.329
778.391
778.454
778.517
778.579
778.639
778.696
778.753
778.808
778.864
778.92
778.977
779.037
779.1
779.165
779.233
779.303
779.374
779.445
779.517
779.588
779.659
779.729
779.799
779.867
779.936
780.004
780.071
780.143
780.206
780.281
780.345
780.418
780.486
780.555
780.628
780.694
780.77
780.834
780.91
780.977
781.047
781.123
781.184
781.266
781.327
781.401
781.471
781.534
773.811
773.84
773.864
773.884
773.9
773.911
773.922
773.931
773.94
773.949
773.958
773.968
773.978
773.988
773.998
774.008
774.019
774.03
774.041
774.052
774.064
774.076
774.088
774.101
774.114
774.127
774.14
774.154
774.168
774.182
774.197
774.212
774.228
774.243
774.259
774.275
774.291
774.308
774.324
774.341
774.358
774.375
774.393
774.411
774.43
774.449
774.469
774.488
774.508
774.529
774.549
774.57
774.592
774.614
774.637
774.659
774.683
774.706
774.73
774.754
774.777
774.802
774.826
774.851
774.877
774.903
774.929
774.956
774.983
775.011
775.039
775.067
775.096
775.124
775.153
775.183
775.213
775.243
775.274
775.305
775.337
775.369
775.402
775.435
775.468
775.501
775.535
775.57
775.605
775.641
775.677
775.714
775.751
775.789
775.827
775.865
775.903
775.942
775.981
776.02
776.06
776.101
776.142
776.183
776.224
776.266
776.309
776.351
776.394
776.438
776.481
776.526
776.57
776.616
776.661
776.707
776.753
776.799
776.846
776.892
776.94
776.987
777.034
777.082
777.129
777.177
777.224
777.272
777.321
777.37
777.42
777.47
777.52
777.57
777.62
777.669
777.717
777.765
777.812
777.86
777.908
777.958
778.01
778.064
778.12
778.178
778.235
778.292
778.345
778.394
778.439
778.479
778.515
778.551
778.587
778.624
778.661
778.701
778.745
778.792
778.843
778.895
778.948
779.004
779.063
779.126
779.193
779.264
779.339
779.415
779.492
779.571
779.647
779.724
779.797
779.872
779.942
780.017
780.083
780.158
780.221
780.297
780.359
780.436
780.496
780.575
780.633
780.714
780.77
780.854
780.908
780.994
781.046
781.134
781.185
781.275
781.325
781.418
781.469
781.584
773.312
773.357
773.372
773.374
773.38
773.386
773.393
773.401
773.41
773.419
773.428
773.437
773.447
773.457
773.467
773.477
773.488
773.499
773.51
773.522
773.533
773.545
773.557
773.57
773.583
773.596
773.609
773.623
773.637
773.651
773.665
773.68
773.695
773.71
773.726
773.742
773.758
773.775
773.791
773.809
773.827
773.845
773.863
773.882
773.901
773.92
773.939
773.958
773.978
773.999
774.019
774.04
774.062
774.084
774.106
774.128
774.151
774.175
774.198
774.222
774.246
774.271
774.296
774.321
774.346
774.372
774.399
774.426
774.453
774.481
774.509
774.538
774.567
774.596
774.626
774.656
774.686
774.716
774.747
774.778
774.81
774.843
774.876
774.909
774.943
774.978
775.012
775.047
775.083
775.118
775.154
775.19
775.227
775.265
775.302
775.34
775.379
775.418
775.458
775.498
775.539
775.579
775.621
775.662
775.704
775.746
775.789
775.831
775.875
775.919
775.963
776.008
776.054
776.1
776.146
776.193
776.241
776.288
776.336
776.385
776.433
776.482
776.532
776.583
776.633
776.685
776.736
776.788
776.841
776.894
776.947
777.001
777.055
777.109
777.164
777.219
777.274
777.33
777.386
777.443
777.5
777.558
777.617
777.677
777.737
777.796
777.856
777.915
777.976
778.039
778.103
778.167
778.229
778.291
778.354
778.419
778.487
778.554
778.625
778.7
778.774
778.844
778.909
778.971
779.03
779.083
779.13
779.176
779.226
779.286
779.356
779.437
779.523
779.614
779.704
779.795
779.879
779.966
780.042
780.126
780.196
780.277
780.344
780.424
780.487
780.568
780.628
780.71
780.768
780.852
780.906
780.993
781.045
781.134
781.184
781.276
781.325
781.42
781.476
781.59
773.777
773.847
773.873
773.888
773.897
773.906
773.914
773.923
773.932
773.94
773.95
773.959
773.969
773.979
773.989
773.999
774.01
774.021
774.032
774.043
774.055
774.067
774.079
774.092
774.104
774.118
774.131
774.144
774.158
774.172
774.186
774.201
774.217
774.233
774.249
774.265
774.282
774.298
774.315
774.332
774.349
774.366
774.384
774.402
774.42
774.439
774.458
774.478
774.498
774.518
774.539
774.56
774.581
774.603
774.625
774.648
774.671
774.695
774.719
774.743
774.767
774.792
774.816
774.841
774.866
774.892
774.918
774.944
774.971
774.999
775.027
775.055
775.083
775.111
775.139
775.168
775.197
775.227
775.257
775.287
775.319
775.35
775.381