/*--------------------------------*- C++ -*----------------------------------*\
| =========                 |                                                 |
| \\      /  F ield         | OpenFOAM: The Open Source CFD Toolbox           |
|  \\    /   O peration     | Version:  3.0.x                                 |
|   \\  /    A nd           | Web:      www.OpenFOAM.org                      |
|    \\/     M anipulation  |                                                 |
\*---------------------------------------------------------------------------*/
FoamFile
{
    version     2.0;
    format      ascii;
    class       volScalarField;
    location    "0.42";
    object      rho;
}
// * * * * * * * * * * * * * * * * * * * * * * * * * * * * * * * * * * * * * //

dimensions      [1 -3 0 0 0 0 0];

internalField   nonuniform List<scalar> 
13800
(
50.6103
50.6103
50.6103
50.6103
50.6103
50.6103
50.6103
50.6103
50.6103
50.6103
50.6103
50.6103
50.6104
50.6104
50.6104
50.6104
50.6104
50.6104
50.6104
50.6104
50.6104
50.6104
50.6104
50.6104
50.6105
50.6105
50.6105
50.6105
50.6105
50.6105
50.6105
50.6105
50.6105
50.6105
50.6105
50.6106
50.6106
50.6106
50.6106
50.6106
50.6106
50.6106
50.6106
50.6106
50.6106
50.6105
50.6105
50.6105
50.6105
50.6105
50.6105
50.6106
50.6107
50.6108
50.611
50.6111
50.6111
50.6112
50.6112
50.6113
50.6113
50.6113
50.6113
50.6114
50.6113
50.6113
50.6113
50.6113
50.6113
50.6113
50.6113
50.6114
50.6115
50.6116
50.6116
50.6117
50.6117
50.6118
50.6118
50.6118
50.6119
50.612
50.6121
50.6122
50.6123
50.6125
50.6126
50.6127
50.6127
50.6128
50.6129
50.6129
50.6129
50.613
50.613
50.613
50.6129
50.6129
50.6129
50.6129
50.6129
50.613
50.613
50.6131
50.6133
50.6134
50.6135
50.6136
50.6137
50.6137
50.6138
50.6139
50.6139
50.6139
50.614
50.614
50.614
50.6141
50.6141
50.6141
50.6141
50.6142
50.6142
50.6142
50.6142
50.6143
50.6143
50.6143
50.6143
50.6143
50.6143
50.6144
50.6144
50.6144
50.6144
50.6144
50.6144
50.6144
50.6144
50.6144
50.6144
50.6145
50.6145
50.6145
50.6145
50.6145
50.6145
50.6145
50.6145
50.6145
50.6145
50.6146
50.6146
50.6146
50.6146
50.6146
50.6146
50.6146
50.6146
50.6146
50.6146
50.6147
50.6147
50.6147
50.6147
50.6147
50.6147
50.6147
50.6147
50.6147
50.6148
50.6148
50.6148
50.6148
50.6148
50.6148
50.6149
50.6149
50.6149
50.6149
50.6149
50.6149
50.615
50.615
50.615
50.615
50.6151
50.6151
50.6151
50.6152
50.6152
50.6152
50.6153
50.6153
50.6154
50.6155
50.6157
50.6159
50.6198
50.6109
50.6117
50.6117
50.6117
50.6117
50.6117
50.6117
50.6117
50.6117
50.6117
50.6117
50.6117
50.6117
50.6117
50.6117
50.6117
50.6117
50.6117
50.6117
50.6118
50.6118
50.6118
50.6118
50.6118
50.6118
50.6118
50.6118
50.6118
50.6118
50.6118
50.6118
50.6118
50.6118
50.6118
50.6118
50.6118
50.6119
50.6119
50.6119
50.6119
50.6119
50.6119
50.6119
50.6119
50.6119
50.6118
50.6118
50.6118
50.6117
50.6117
50.6117
50.6118
50.6118
50.6119
50.612
50.6122
50.6123
50.6123
50.6124
50.6124
50.6125
50.6125
50.6125
50.6125
50.6125
50.6125
50.6125
50.6124
50.6124
50.6124
50.6124
50.6124
50.6125
50.6126
50.6127
50.6127
50.6128
50.6128
50.6129
50.6129
50.6129
50.613
50.6131
50.6132
50.6133
50.6134
50.6135
50.6136
50.6137
50.6138
50.6139
50.6139
50.614
50.614
50.614
50.614
50.614
50.614
50.6139
50.6139
50.6139
50.6139
50.614
50.614
50.6141
50.6142
50.6143
50.6145
50.6145
50.6146
50.6147
50.6148
50.6148
50.6149
50.6149
50.6149
50.6149
50.615
50.615
50.615
50.615
50.6151
50.6151
50.6151
50.6151
50.6151
50.6151
50.6152
50.6152
50.6152
50.6152
50.6152
50.6152
50.6152
50.6153
50.6153
50.6153
50.6153
50.6153
50.6153
50.6153
50.6153
50.6154
50.6154
50.6154
50.6154
50.6154
50.6154
50.6154
50.6154
50.6154
50.6154
50.6155
50.6155
50.6155
50.6155
50.6155
50.6155
50.6155
50.6155
50.6155
50.6155
50.6156
50.6156
50.6156
50.6156
50.6156
50.6156
50.6156
50.6156
50.6156
50.6157
50.6157
50.6157
50.6157
50.6157
50.6157
50.6158
50.6158
50.6158
50.6158
50.6158
50.6158
50.6159
50.6159
50.6159
50.6159
50.616
50.616
50.616
50.6161
50.6161
50.6161
50.6162
50.6162
50.6163
50.6164
50.6166
50.6167
50.6208
50.6082
50.6117
50.6117
50.6117
50.6117
50.6117
50.6117
50.6117
50.6117
50.6117
50.6117
50.6117
50.6117
50.6117
50.6117
50.6117
50.6117
50.6117
50.6117
50.6118
50.6118
50.6118
50.6118
50.6118
50.6118
50.6118
50.6118
50.6118
50.6118
50.6118
50.6118
50.6118
50.6118
50.6118
50.6118
50.6118
50.6119
50.6119
50.6119
50.6119
50.6119
50.6119
50.6119
50.6119
50.6119
50.6118
50.6118
50.6118
50.6117
50.6117
50.6117
50.6118
50.6118
50.6119
50.6121
50.6122
50.6123
50.6123
50.6124
50.6124
50.6125
50.6125
50.6125
50.6125
50.6125
50.6125
50.6125
50.6124
50.6124
50.6124
50.6124
50.6124
50.6125
50.6126
50.6127
50.6127
50.6128
50.6128
50.6129
50.6129
50.6129
50.613
50.6131
50.6132
50.6133
50.6134
50.6135
50.6136
50.6137
50.6138
50.6139
50.6139
50.614
50.614
50.614
50.614
50.614
50.614
50.6139
50.6139
50.6139
50.6139
50.614
50.614
50.6141
50.6142
50.6143
50.6145
50.6146
50.6146
50.6147
50.6148
50.6148
50.6149
50.6149
50.6149
50.615
50.615
50.615
50.615
50.615
50.6151
50.6151
50.6151
50.6151
50.6151
50.6151
50.6152
50.6152
50.6152
50.6152
50.6152
50.6152
50.6153
50.6153
50.6153
50.6153
50.6153
50.6153
50.6153
50.6153
50.6153
50.6154
50.6154
50.6154
50.6154
50.6154
50.6154
50.6154
50.6154
50.6154
50.6154
50.6155
50.6155
50.6155
50.6155
50.6155
50.6155
50.6155
50.6155
50.6155
50.6155
50.6156
50.6156
50.6156
50.6156
50.6156
50.6156
50.6156
50.6156
50.6157
50.6157
50.6157
50.6157
50.6157
50.6157
50.6157
50.6158
50.6158
50.6158
50.6158
50.6158
50.6158
50.6159
50.6159
50.6159
50.6159
50.616
50.616
50.616
50.6161
50.6161
50.6161
50.6162
50.6162
50.6163
50.6164
50.6166
50.6167
50.6207
50.6086
50.6117
50.6117
50.6117
50.6117
50.6117
50.6117
50.6117
50.6117
50.6117
50.6117
50.6117
50.6117
50.6117
50.6117
50.6117
50.6117
50.6117
50.6117
50.6117
50.6117
50.6118
50.6118
50.6118
50.6118
50.6118
50.6118
50.6118
50.6118
50.6118
50.6118
50.6118
50.6118
50.6118
50.6118
50.6118
50.6118
50.6119
50.6119
50.6119
50.6119
50.6119
50.6119
50.6119
50.6119
50.6118
50.6118
50.6117
50.6117
50.6117
50.6117
50.6118
50.6118
50.6119
50.612
50.6122
50.6122
50.6123
50.6124
50.6124
50.6125
50.6125
50.6125
50.6125
50.6125
50.6125
50.6125
50.6124
50.6124
50.6124
50.6124
50.6124
50.6125
50.6126
50.6127
50.6127
50.6128
50.6128
50.6129
50.6129
50.6129
50.613
50.6131
50.6132
50.6133
50.6134
50.6135
50.6136
50.6137
50.6138
50.6139
50.6139
50.614
50.614
50.614
50.614
50.614
50.614
50.6139
50.6139
50.6139
50.6139
50.614
50.614
50.6141
50.6142
50.6143
50.6145
50.6146
50.6146
50.6147
50.6148
50.6148
50.6149
50.6149
50.6149
50.615
50.615
50.615
50.615
50.615
50.6151
50.6151
50.6151
50.6151
50.6151
50.6151
50.6152
50.6152
50.6152
50.6152
50.6152
50.6152
50.6153
50.6153
50.6153
50.6153
50.6153
50.6153
50.6153
50.6153
50.6153
50.6154
50.6154
50.6154
50.6154
50.6154
50.6154
50.6154
50.6154
50.6154
50.6154
50.6155
50.6155
50.6155
50.6155
50.6155
50.6155
50.6155
50.6155
50.6155
50.6155
50.6156
50.6156
50.6156
50.6156
50.6156
50.6156
50.6156
50.6156
50.6157
50.6157
50.6157
50.6157
50.6157
50.6157
50.6157
50.6158
50.6158
50.6158
50.6158
50.6158
50.6158
50.6159
50.6159
50.6159
50.6159
50.616
50.616
50.616
50.6161
50.6161
50.6161
50.6162
50.6162
50.6163
50.6164
50.6165
50.6167
50.6201
50.6125
50.6117
50.6117
50.6117
50.6117
50.6117
50.6117
50.6117
50.6117
50.6117
50.6117
50.6117
50.6117
50.6117
50.6117
50.6117
50.6117
50.6117
50.6117
50.6117
50.6117
50.6117
50.6118
50.6118
50.6118
50.6118
50.6118
50.6118
50.6118
50.6118
50.6118
50.6118
50.6118
50.6118
50.6118
50.6118
50.6118
50.6118
50.6119
50.6119
50.6119
50.6119
50.6119
50.6119
50.6119
50.6118
50.6118
50.6117
50.6117
50.6117
50.6117
50.6117
50.6118
50.6119
50.612
50.6121
50.6122
50.6123
50.6124
50.6124
50.6125
50.6125
50.6125
50.6125
50.6125
50.6125
50.6125
50.6124
50.6124
50.6124
50.6124
50.6124
50.6125
50.6126
50.6127
50.6127
50.6128
50.6128
50.6129
50.6129
50.6129
50.613
50.6131
50.6132
50.6133
50.6134
50.6135
50.6136
50.6137
50.6138
50.6139
50.6139
50.614
50.614
50.614
50.614
50.614
50.614
50.6139
50.6139
50.6139
50.6139
50.614
50.614
50.6141
50.6142
50.6143
50.6144
50.6145
50.6146
50.6147
50.6148
50.6148
50.6149
50.6149
50.6149
50.6149
50.615
50.615
50.615
50.615
50.6151
50.6151
50.6151
50.6151
50.6151
50.6151
50.6152
50.6152
50.6152
50.6152
50.6152
50.6152
50.6153
50.6153
50.6153
50.6153
50.6153
50.6153
50.6153
50.6153
50.6153
50.6154
50.6154
50.6154
50.6154
50.6154
50.6154
50.6154
50.6154
50.6154
50.6154
50.6155
50.6155
50.6155
50.6155
50.6155
50.6155
50.6155
50.6155
50.6155
50.6155
50.6156
50.6156
50.6156
50.6156
50.6156
50.6156
50.6156
50.6156
50.6157
50.6157
50.6157
50.6157
50.6157
50.6157
50.6157
50.6158
50.6158
50.6158
50.6158
50.6158
50.6158
50.6159
50.6159
50.6159
50.6159
50.616
50.616
50.616
50.6161
50.6161
50.6161
50.6162
50.6162
50.6163
50.6163
50.6165
50.6164
50.6182
50.6106
50.6117
50.6117
50.6117
50.6117
50.6117
50.6117
50.6117
50.6117
50.6117
50.6117
50.6117
50.6117
50.6117
50.6117
50.6117
50.6117
50.6117
50.6117
50.6117
50.6117
50.6117
50.6118
50.6118
50.6118
50.6118
50.6118
50.6118
50.6118
50.6118
50.6118
50.6118
50.6118
50.6118
50.6118
50.6118
50.6118
50.6118
50.6119
50.6119
50.6119
50.6119
50.6119
50.6119
50.6119
50.6118
50.6118
50.6117
50.6117
50.6117
50.6117
50.6117
50.6118
50.6119
50.612
50.6121
50.6122
50.6123
50.6124
50.6124
50.6125
50.6125
50.6125
50.6125
50.6125
50.6125
50.6125
50.6124
50.6124
50.6124
50.6124
50.6124
50.6125
50.6126
50.6127
50.6127
50.6128
50.6128
50.6129
50.6129
50.6129
50.613
50.6131
50.6132
50.6133
50.6134
50.6135
50.6136
50.6137
50.6138
50.6139
50.6139
50.614
50.614
50.614
50.614
50.614
50.614
50.6139
50.6139
50.6139
50.6139
50.614
50.614
50.6141
50.6142
50.6143
50.6144
50.6145
50.6146
50.6147
50.6148
50.6148
50.6149
50.6149
50.6149
50.6149
50.615
50.615
50.615
50.615
50.6151
50.6151
50.6151
50.6151
50.6151
50.6151
50.6152
50.6152
50.6152
50.6152
50.6152
50.6152
50.6153
50.6153
50.6153
50.6153
50.6153
50.6153
50.6153
50.6153
50.6153
50.6154
50.6154
50.6154
50.6154
50.6154
50.6154
50.6154
50.6154
50.6154
50.6154
50.6155
50.6155
50.6155
50.6155
50.6155
50.6155
50.6155
50.6155
50.6155
50.6155
50.6156
50.6156
50.6156
50.6156
50.6156
50.6156
50.6156
50.6156
50.6157
50.6157
50.6157
50.6157
50.6157
50.6157
50.6157
50.6158
50.6158
50.6158
50.6158
50.6158
50.6158
50.6159
50.6159
50.6159
50.6159
50.616
50.616
50.616
50.6161
50.6161
50.6161
50.6162
50.6162
50.6163
50.6163
50.6164
50.6163
50.6156
50.6139
50.6117
50.6117
50.6117
50.6117
50.6117
50.6117
50.6117
50.6117
50.6117
50.6117
50.6117
50.6117
50.6117
50.6117
50.6117
50.6117
50.6117
50.6117
50.6117
50.6117
50.6118
50.6118
50.6118
50.6118
50.6118
50.6118
50.6118
50.6118
50.6118
50.6118
50.6118
50.6118
50.6118
50.6118
50.6118
50.6118
50.6119
50.6119
50.6119
50.6119
50.6119
50.6119
50.6119
50.6119
50.6118
50.6118
50.6117
50.6117
50.6117
50.6117
50.6118
50.6118
50.6119
50.612
50.6122
50.6122
50.6123
50.6124
50.6124
50.6125
50.6125
50.6125
50.6125
50.6125
50.6125
50.6125
50.6124
50.6124
50.6124
50.6124
50.6124
50.6125
50.6126
50.6127
50.6127
50.6128
50.6128
50.6129
50.6129
50.6129
50.613
50.6131
50.6132
50.6133
50.6134
50.6135
50.6136
50.6137
50.6138
50.6139
50.6139
50.614
50.614
50.614
50.614
50.614
50.614
50.6139
50.6139
50.6139
50.6139
50.614
50.614
50.6141
50.6142
50.6143
50.6145
50.6146
50.6146
50.6147
50.6148
50.6148
50.6149
50.6149
50.6149
50.615
50.615
50.615
50.615
50.615
50.6151
50.6151
50.6151
50.6151
50.6151
50.6151
50.6152
50.6152
50.6152
50.6152
50.6152
50.6152
50.6153
50.6153
50.6153
50.6153
50.6153
50.6153
50.6153
50.6153
50.6153
50.6154
50.6154
50.6154
50.6154
50.6154
50.6154
50.6154
50.6154
50.6154
50.6154
50.6155
50.6155
50.6155
50.6155
50.6155
50.6155
50.6155
50.6155
50.6155
50.6155
50.6156
50.6156
50.6156
50.6156
50.6156
50.6156
50.6156
50.6156
50.6157
50.6157
50.6157
50.6157
50.6157
50.6157
50.6157
50.6158
50.6158
50.6158
50.6158
50.6158
50.6158
50.6159
50.6159
50.6159
50.6159
50.616
50.616
50.616
50.6161
50.6161
50.6161
50.6162
50.6162
50.6163
50.6163
50.6163
50.6163
50.6126
50.6245
50.6117
50.6117
50.6117
50.6117
50.6117
50.6117
50.6117
50.6117
50.6117
50.6117
50.6117
50.6117
50.6117
50.6117
50.6117
50.6117
50.6117
50.6117
50.6118
50.6118
50.6118
50.6118
50.6118
50.6118
50.6118
50.6118
50.6118
50.6118
50.6118
50.6118
50.6118
50.6118
50.6118
50.6118
50.6118
50.6119
50.6119
50.6119
50.6119
50.6119
50.6119
50.6119
50.6119
50.6119
50.6118
50.6118
50.6118
50.6117
50.6117
50.6117
50.6118
50.6118
50.6119
50.6121
50.6122
50.6123
50.6123
50.6124
50.6124
50.6125
50.6125
50.6125
50.6125
50.6125
50.6125
50.6125
50.6124
50.6124
50.6124
50.6124
50.6124
50.6125
50.6126
50.6127
50.6127
50.6128
50.6128
50.6129
50.6129
50.6129
50.613
50.6131
50.6132
50.6133
50.6134
50.6135
50.6136
50.6137
50.6138
50.6139
50.6139
50.614
50.614
50.614
50.614
50.614
50.614
50.6139
50.6139
50.6139
50.6139
50.614
50.614
50.6141
50.6142
50.6143
50.6145
50.6146
50.6146
50.6147
50.6148
50.6148
50.6149
50.6149
50.6149
50.615
50.615
50.615
50.615
50.615
50.6151
50.6151
50.6151
50.6151
50.6151
50.6151
50.6152
50.6152
50.6152
50.6152
50.6152
50.6152
50.6153
50.6153
50.6153
50.6153
50.6153
50.6153
50.6153
50.6153
50.6153
50.6154
50.6154
50.6154
50.6154
50.6154
50.6154
50.6154
50.6154
50.6154
50.6154
50.6155
50.6155
50.6155
50.6155
50.6155
50.6155
50.6155
50.6155
50.6155
50.6155
50.6156
50.6156
50.6156
50.6156
50.6156
50.6156
50.6156
50.6156
50.6157
50.6157
50.6157
50.6157
50.6157
50.6157
50.6157
50.6158
50.6158
50.6158
50.6158
50.6158
50.6158
50.6159
50.6159
50.6159
50.6159
50.616
50.616
50.616
50.6161
50.6161
50.6161
50.6162
50.6162
50.6163
50.6163
50.6162
50.6168
50.6095
50.6536
50.6117
50.6117
50.6117
50.6117
50.6117
50.6117
50.6117
50.6117
50.6117
50.6117
50.6117
50.6117
50.6117
50.6117
50.6117
50.6117
50.6117
50.6117
50.6118
50.6118
50.6118
50.6118
50.6118
50.6118
50.6118
50.6118
50.6118
50.6118
50.6118
50.6118
50.6118
50.6118
50.6118
50.6118
50.6118
50.6119
50.6119
50.6119
50.6119
50.6119
50.6119
50.6119
50.6119
50.6119
50.6118
50.6118
50.6118
50.6117
50.6117
50.6117
50.6118
50.6118
50.6119
50.612
50.6122
50.6123
50.6123
50.6124
50.6124
50.6125
50.6125
50.6125
50.6125
50.6125
50.6125
50.6125
50.6124
50.6124
50.6124
50.6124
50.6124
50.6125
50.6126
50.6127
50.6127
50.6128
50.6128
50.6129
50.6129
50.6129
50.613
50.6131
50.6132
50.6133
50.6134
50.6135
50.6136
50.6137
50.6138
50.6139
50.6139
50.614
50.614
50.614
50.614
50.614
50.614
50.6139
50.6139
50.6139
50.6139
50.614
50.614
50.6141
50.6142
50.6143
50.6145
50.6145
50.6146
50.6147
50.6148
50.6148
50.6149
50.6149
50.6149
50.6149
50.615
50.615
50.615
50.615
50.6151
50.6151
50.6151
50.6151
50.6151
50.6151
50.6152
50.6152
50.6152
50.6152
50.6152
50.6152
50.6152
50.6153
50.6153
50.6153
50.6153
50.6153
50.6153
50.6153
50.6153
50.6154
50.6154
50.6154
50.6154
50.6154
50.6154
50.6154
50.6154
50.6154
50.6154
50.6155
50.6155
50.6155
50.6155
50.6155
50.6155
50.6155
50.6155
50.6155
50.6155
50.6156
50.6156
50.6156
50.6156
50.6156
50.6156
50.6156
50.6156
50.6156
50.6157
50.6157
50.6157
50.6157
50.6157
50.6157
50.6158
50.6158
50.6158
50.6158
50.6158
50.6158
50.6159
50.6159
50.6159
50.6159
50.616
50.616
50.616
50.6161
50.6161
50.6161
50.6162
50.6162
50.6163
50.6163
50.6162
50.617
50.6078
50.669
50.6103
50.6103
50.6103
50.6103
50.6103
50.6103
50.6103
50.6103
50.6103
50.6103
50.6103
50.6103
50.6104
50.6104
50.6104
50.6104
50.6104
50.6104
50.6104
50.6104
50.6104
50.6104
50.6104
50.6104
50.6105
50.6105
50.6105
50.6105
50.6105
50.6105
50.6105
50.6105
50.6105
50.6105
50.6105
50.6106
50.6106
50.6106
50.6106
50.6106
50.6106
50.6106
50.6106
50.6106
50.6106
50.6105
50.6105
50.6105
50.6105
50.6105
50.6105
50.6106
50.6107
50.6108
50.611
50.6111
50.6111
50.6112
50.6112
50.6113
50.6113
50.6113
50.6113
50.6114
50.6113
50.6113
50.6113
50.6113
50.6113
50.6113
50.6113
50.6114
50.6115
50.6116
50.6116
50.6117
50.6117
50.6118
50.6118
50.6118
50.6119
50.612
50.6121
50.6122
50.6123
50.6125
50.6126
50.6127
50.6127
50.6128
50.6129
50.6129
50.6129
50.613
50.613
50.613
50.6129
50.6129
50.6129
50.6129
50.6129
50.613
50.613
50.6131
50.6133
50.6134
50.6135
50.6136
50.6137
50.6137
50.6138
50.6139
50.6139
50.6139
50.614
50.614
50.614
50.6141
50.6141
50.6141
50.6141
50.6142
50.6142
50.6142
50.6142
50.6143
50.6143
50.6143
50.6143
50.6143
50.6143
50.6144
50.6144
50.6144
50.6144
50.6144
50.6144
50.6144
50.6144
50.6144
50.6144
50.6145
50.6145
50.6145
50.6145
50.6145
50.6145
50.6145
50.6145
50.6145
50.6145
50.6146
50.6146
50.6146
50.6146
50.6146
50.6146
50.6146
50.6146
50.6146
50.6146
50.6147
50.6147
50.6147
50.6147
50.6147
50.6147
50.6147
50.6147
50.6147
50.6148
50.6148
50.6148
50.6148
50.6148
50.6148
50.6149
50.6149
50.6149
50.6149
50.6149
50.6149
50.615
50.615
50.615
50.615
50.6151
50.6151
50.6151
50.6152
50.6152
50.6152
50.6153
50.6153
50.6154
50.6154
50.6153
50.6162
50.6054
50.6822
50.7061
50.7454
50.7585
50.7602
50.7598
50.7595
50.7589
50.7578
50.7562
50.7544
50.7526
50.7506
50.7483
50.7456
50.7423
50.7382
50.7327
50.7253
50.715
50.6991
50.701
50.7357
50.7493
50.7517
50.7516
50.7516
50.7513
50.7505
50.749
50.7476
50.7459
50.7441
50.7419
50.7394
50.7362
50.7322
50.7265
50.7192
50.7086
50.6926
50.6955
50.7305
50.746
50.7494
50.7494
50.7494
50.749
50.748
50.7465
50.7449
50.7431
50.7413
50.739
50.7364
50.7332
50.7291
50.7233
50.7155
50.7042
50.6868
50.6772
50.6969
50.7033
50.7027
50.7014
50.7006
50.6995
50.698
50.6962
50.6943
50.6923
50.6901
50.6876
50.6845
50.6808
50.6763
50.6712
50.6638
50.6539
50.6398
50.6461
50.6585
50.6678
50.6745
50.6792
50.6822
50.6835
50.684
50.6838
50.6831
50.682
50.6804
50.6776
50.6745
50.6706
50.6656
50.6589
50.6513
50.6425
50.6321
50.5933
50.5836
50.5733
50.5626
50.5526
50.5443
50.5381
50.533
50.5287
50.5252
50.5223
50.5201
50.5187
50.5175
50.516
50.5149
50.5144
50.5151
50.5161
50.52
50.5348
50.5134
50.5061
50.5069
50.5084
50.5093
50.5096
50.5103
50.5107
50.5112
50.5112
50.5113
50.511
50.5111
50.5109
50.5119
50.5131
50.5164
50.5224
50.5332
50.4653
50.4082
50.3649
50.3358
50.3158
50.3005
50.2885
50.2798
50.2739
50.2705
50.2687
50.2688
50.2708
50.275
50.2831
50.2932
50.3089
50.3267
50.3527
50.3843
50.4506
50.3885
50.3499
50.328
50.3133
50.3023
50.2933
50.2875
50.2838
50.2828
50.2829
50.2849
50.2882
50.2938
50.3021
50.3134
50.3282
50.346
50.3698
50.3997
50.4318
50.3453
50.2968
50.2685
50.2494
50.2332
50.22
50.2101
50.2045
50.1992
50.1973
50.1962
50.1985
50.2021
50.21
50.2214
50.2366
50.2566
50.2828
50.3185
50.6301
50.5903
50.5794
50.5765
50.5756
50.5754
50.5755
50.5757
50.5759
50.5761
50.5763
50.5765
50.5768
50.577
50.5773
50.5776
50.5779
50.5783
50.5787
50.579
50.5794
50.5798
50.5802
50.5807
50.5812
50.5817
50.5823
50.5829
50.5836
50.5843
50.585
50.5857
50.5865
50.5873
50.5881
50.589
50.5899
50.5909
50.5919
50.593
50.5941
50.5952
50.5964
50.5977
50.599
50.6003
50.6017
50.6031
50.6046
50.6061
50.6077
50.6094
50.6112
50.613
50.6149
50.6169
50.6189
50.621
50.6231
50.6253
50.6275
50.6299
50.6322
50.6347
50.6373
50.6399
50.6426
50.6454
50.6483
50.6512
50.6542
50.6573
50.6605
50.6637
50.6671
50.6705
50.674
50.6776
50.6813
50.685
50.6889
50.6929
50.6969
50.701
50.7052
50.7094
50.7138
50.7182
50.7227
50.7273
50.7321
50.7369
50.7419
50.7469
50.752
50.7572
50.7626
50.768
50.7735
50.7791
50.7848
50.7906
50.7966
50.8026
50.8087
50.815
50.8213
50.8278
50.8343
50.8409
50.8477
50.8545
50.8615
50.8686
50.8758
50.8831
50.8905
50.8981
50.9057
50.9135
50.9214
50.9294
50.9375
50.9458
50.9541
50.9626
50.9712
50.9799
50.9888
50.9978
51.007
51.0163
51.0257
51.0352
51.0449
51.0546
51.0645
51.0745
51.0848
51.0954
51.1062
51.1173
51.1284
51.1396
51.1509
51.1621
51.1734
51.1849
51.1966
51.2088
51.2212
51.2329
51.2418
51.2422
51.2264
51.2055
51.1841
51.1649
51.1498
51.14
51.1361
51.1381
51.1459
51.1586
51.1745
51.1943
51.2282
51.2807
51.331
51.3763
51.4162
51.451
51.4813
51.5074
51.5296
51.5491
51.5673
51.5852
51.6025
51.6184
51.634
51.6496
51.6652
51.6812
51.6968
51.7134
51.7291
51.7462
51.7621
51.7796
51.7957
51.8136
51.8299
51.8483
51.8646
51.8834
51.8996
51.9182
51.928
51.9838
50.6301
50.5928
50.5823
50.5795
50.5788
50.5786
50.5787
50.5789
50.5792
50.5794
50.5796
50.5798
50.5801
50.5804
50.5806
50.5809
50.5813
50.5816
50.582
50.5824
50.5828
50.5832
50.5836
50.5841
50.5846
50.5851
50.5857
50.5863
50.5869
50.5876
50.5883
50.5891
50.5899
50.5907
50.5915
50.5924
50.5933
50.5943
50.5953
50.5964
50.5975
50.5986
50.5998
50.601
50.6024
50.6037
50.6051
50.6065
50.608
50.6096
50.6112
50.6129
50.6146
50.6164
50.6183
50.6203
50.6223
50.6244
50.6265
50.6288
50.631
50.6334
50.6357
50.6382
50.6407
50.6434
50.6461
50.6488
50.6517
50.6546
50.6577
50.6608
50.664
50.6672
50.6706
50.674
50.6775
50.6811
50.6847
50.6885
50.6923
50.6963
50.7003
50.7045
50.7087
50.713
50.7173
50.7218
50.7263
50.7309
50.7356
50.7404
50.7454
50.7504
50.7555
50.7608
50.7661
50.7715
50.777
50.7827
50.7884
50.7942
50.8001
50.8061
50.8123
50.8185
50.8249
50.8313
50.8379
50.8445
50.8513
50.8582
50.8651
50.8722
50.8794
50.8867
50.8941
50.9016
50.9093
50.9171
50.925
50.933
50.9411
50.9493
50.9577
50.9661
50.9747
50.9834
50.9923
51.0013
51.0104
51.0196
51.029
51.0385
51.0481
51.0578
51.0677
51.0778
51.088
51.0984
51.109
51.1197
51.1305
51.1414
51.1524
51.1634
51.1746
51.1861
51.1981
51.2107
51.2242
51.2384
51.2529
51.2673
51.2817
51.2957
51.3093
51.3232
51.3371
51.3498
51.3591
51.365
51.3698
51.3748
51.3809
51.3887
51.3982
51.4097
51.423
51.4382
51.4548
51.4724
51.4922
51.5127
51.5315
51.5495
51.5673
51.5848
51.6014
51.6176
51.6337
51.6497
51.6655
51.6818
51.6975
51.7142
51.73
51.747
51.763
51.7805
51.7966
51.8146
51.8308
51.8492
51.8656
51.8843
51.9006
51.9191
51.9296
51.9779
50.63
50.5939
50.5827
50.5795
50.5784
50.5781
50.5781
50.5783
50.5785
50.5787
50.5789
50.5792
50.5794
50.5797
50.58
50.5803
50.5806
50.5809
50.5813
50.5817
50.5821
50.5825
50.5829
50.5834
50.5839
50.5844
50.585
50.5856
50.5862
50.5869
50.5876
50.5884
50.5892
50.59
50.5908
50.5917
50.5927
50.5936
50.5946
50.5957
50.5968
50.5979
50.5991
50.6004
50.6017
50.603
50.6044
50.6059
50.6074
50.6089
50.6105
50.6122
50.6139
50.6157
50.6176
50.6196
50.6216
50.6237
50.6258
50.6281
50.6303
50.6327
50.6351
50.6375
50.6401
50.6427
50.6454
50.6482
50.651
50.654
50.657
50.6601
50.6633
50.6666
50.6699
50.6733
50.6768
50.6804
50.6841
50.6878
50.6917
50.6956
50.6997
50.7038
50.708
50.7123
50.7167
50.7211
50.7256
50.7302
50.735
50.7398
50.7447
50.7497
50.7548
50.7601
50.7654
50.7708
50.7764
50.782
50.7877
50.7935
50.7994
50.8055
50.8116
50.8178
50.8242
50.8306
50.8372
50.8439
50.8506
50.8575
50.8645
50.8715
50.8787
50.886
50.8934
50.901
50.9087
50.9164
50.9243
50.9323
50.9405
50.9487
50.9571
50.9655
50.9741
50.9828
50.9917
51.0006
51.0097
51.0189
51.0283
51.0378
51.0474
51.0571
51.067
51.077
51.0872
51.0976
51.1082
51.1189
51.1297
51.1407
51.1516
51.1626
51.1737
51.1851
51.197
51.2096
51.2231
51.2374
51.253
51.2698
51.2853
51.3001
51.3148
51.329
51.3429
51.3571
51.3705
51.3817
51.3908
51.3989
51.4068
51.4152
51.4245
51.4349
51.4464
51.4589
51.4726
51.4873
51.5027
51.5188
51.5353
51.5519
51.5685
51.5849
51.6012
51.6173
51.6333
51.6493
51.6652
51.6815
51.6973
51.714
51.7298
51.7469
51.763
51.7804
51.7966
51.8145
51.8308
51.8491
51.8655
51.8843
51.9006
51.9191
51.9307
51.9687
50.6005
50.5754
50.5689
50.5688
50.5695
50.5701
50.5705
50.5709
50.5712
50.5715
50.5717
50.572
50.5722
50.5725
50.5728
50.5731
50.5734
50.5737
50.5741
50.5745
50.5749
50.5753
50.5757
50.5762
50.5767
50.5772
50.5778
50.5784
50.579
50.5797
50.5804
50.5811
50.5819
50.5828
50.5836
50.5845
50.5854
50.5864
50.5874
50.5885
50.5896
50.5907
50.5919
50.5932
50.5945
50.5958
50.5972
50.5986
50.6001
50.6017
50.6033
50.605
50.6067
50.6085
50.6104
50.6124
50.6144
50.6165
50.6186
50.6208
50.6231
50.6254
50.6278
50.6303
50.6328
50.6355
50.6382
50.6409
50.6438
50.6468
50.6498
50.6529
50.6561
50.6593
50.6627
50.6661
50.6696
50.6732
50.6769
50.6807
50.6845
50.6885
50.6925
50.6966
50.7008
50.7051
50.7094
50.7139
50.7184
50.723
50.7278
50.7326
50.7375
50.7425
50.7477
50.7529
50.7582
50.7636
50.7692
50.7748
50.7805
50.7863
50.7923
50.7983
50.8044
50.8107
50.817
50.8234
50.83
50.8366
50.8433
50.8502
50.8572
50.8643
50.8715
50.8788
50.8862
50.8938
50.9015
50.9092
50.9171
50.9251
50.9332
50.9415
50.9498
50.9584
50.967
50.9758
50.9847
50.9937
51.0029
51.0121
51.0215
51.031
51.0407
51.0506
51.0607
51.071
51.0814
51.092
51.1026
51.1133
51.1241
51.1348
51.1457
51.157
51.1686
51.1808
51.1936
51.2069
51.2205
51.2342
51.248
51.2613
51.2744
51.2877
51.301
51.3142
51.3269
51.3391
51.3509
51.3625
51.3742
51.3861
51.3983
51.4109
51.4238
51.4371
51.4508
51.4649
51.4794
51.4942
51.5092
51.5244
51.5398
51.5551
51.5706
51.5861
51.6017
51.6172
51.633
51.6488
51.6646
51.6809
51.6966
51.7134
51.7293
51.7464
51.7627
51.7798
51.7967
51.8138
51.831
51.8486
51.8655
51.8842
51.9006
51.9191
51.9329
51.9529
50.6072
50.5972
50.5914
50.5861
50.5827
50.5811
50.5805
50.5804
50.5803
50.5804
50.5806
50.5808
50.5811
50.5813
50.5816
50.5819
50.5822
50.5826
50.5829
50.5833
50.5837
50.5841
50.5846
50.5851
50.5856
50.5861
50.5867
50.5873
50.5879
50.5885
50.5892
50.59
50.5907
50.5916
50.5924
50.5933
50.5942
50.5952
50.5962
50.5973
50.5984
50.5996
50.6008
50.602
50.6033
50.6046
50.606
50.6075
50.609
50.6106
50.6122
50.6139
50.6156
50.6174
50.6193
50.6212
50.6232
50.6253
50.6274
50.6296
50.6319
50.6342
50.6367
50.6392
50.6417
50.6443
50.647
50.6498
50.6527
50.6556
50.6586
50.6617
50.6649
50.6681
50.6715
50.6749
50.6784
50.682
50.6857
50.6894
50.6933
50.6972
50.7012
50.7053
50.7095
50.7138
50.7182
50.7227
50.7272
50.7319
50.7366
50.7415
50.7464
50.7514
50.7565
50.7617
50.767
50.7724
50.7779
50.7835
50.7892
50.7951
50.801
50.807
50.8131
50.8194
50.8257
50.8321
50.8387
50.8454
50.8521
50.859
50.866
50.873
50.8802
50.8875
50.895
50.9025
50.9101
50.9179
50.9258
50.9338
50.9419
50.9501
50.9584
50.9669
50.9755
50.9841
50.993
51.0019
51.0109
51.0201
51.0295
51.0389
51.0484
51.0581
51.0679
51.0778
51.0878
51.098
51.1084
51.1189
51.1296
51.1404
51.1514
51.1624
51.1736
51.1849
51.1963
51.2079
51.2198
51.232
51.2445
51.2571
51.2699
51.2827
51.2957
51.3086
51.3216
51.3344
51.3473
51.3601
51.3731
51.3861
51.3993
51.4127
51.4262
51.4399
51.4538
51.4679
51.4822
51.4966
51.5112
51.5259
51.5408
51.5558
51.5709
51.5861
51.6015
51.617
51.6326
51.6485
51.6643
51.6803
51.6967
51.7127
51.7296
51.7458
51.7628
51.7795
51.7965
51.8138
51.8308
51.8486
51.8657
51.8837
51.9012
51.9189
51.9367
51.9509
50.5279
50.5382
50.5444
50.5494
50.5527
50.5545
50.5554
50.5559
50.5562
50.5565
50.5568
50.557
50.5573
50.5576
50.5579
50.5582
50.5585
50.5588
50.5592
50.5596
50.56
50.5604
50.5609
50.5613
50.5618
50.5623
50.5628
50.5634
50.564
50.5647
50.5654
50.5662
50.567
50.5678
50.5687
50.5696
50.5705
50.5715
50.5725
50.5736
50.5747
50.5758
50.577
50.5783
50.5796
50.581
50.5823
50.5838
50.5853
50.5868
50.5884
50.5901
50.5918
50.5937
50.5956
50.5975
50.5995
50.6016
50.6038
50.606
50.6082
50.6106
50.613
50.6154
50.618
50.6206
50.6234
50.6262
50.6291
50.632
50.6351
50.6382
50.6414
50.6446
50.648
50.6514
50.6549
50.6585
50.6622
50.666
50.6699
50.6738
50.6778
50.6819
50.6861
50.6903
50.6947
50.6991
50.7037
50.7083
50.7131
50.718
50.7229
50.728
50.7331
50.7383
50.7436
50.7491
50.7546
50.7602
50.766
50.7718
50.7778
50.7838
50.79
50.7963
50.8026
50.8091
50.8157
50.8224
50.8292
50.8362
50.8433
50.8505
50.8578
50.8652
50.8728
50.8805
50.8884
50.8964
50.9046
50.9128
50.9212
50.9297
50.9383
50.947
50.9558
50.9649
50.974
50.9834
50.993
51.0028
51.0127
51.0228
51.0329
51.0432
51.0534
51.0637
51.074
51.0844
51.0949
51.1056
51.1167
51.1281
51.1401
51.1525
51.1653
51.1783
51.1916
51.2049
51.2182
51.2316
51.2449
51.2582
51.2713
51.2844
51.2976
51.3108
51.3239
51.337
51.3499
51.3627
51.3754
51.3881
51.4009
51.4138
51.4269
51.4403
51.4538
51.4676
51.4817
51.4959
51.5103
51.525
51.5398
51.5547
51.5699
51.5851
51.6006
51.616
51.6319
51.6476
51.6638
51.6796
51.6962
51.7122
51.7291
51.7453
51.7626
51.779
51.7966
51.8131
51.8312
51.8478
51.8663
51.8829
51.9019
51.9189
51.9391
51.9555
50.5699
50.592
50.5953
50.5935
50.5921
50.5915
50.5913
50.5912
50.5913
50.5914
50.5916
50.5918
50.592
50.5923
50.5926
50.5929
50.5932
50.5935
50.5939
50.5943
50.5947
50.5951
50.5956
50.5961
50.5966
50.5971
50.5977
50.5983
50.5989
50.5996
50.6003
50.601
50.6017
50.6025
50.6034
50.6042
50.6052
50.6061
50.6072
50.6082
50.6093
50.6105
50.6117
50.613
50.6143
50.6156
50.617
50.6184
50.62
50.6215
50.6231
50.6248
50.6266
50.6284
50.6303
50.6322
50.6342
50.6363
50.6384
50.6406
50.6429
50.6452
50.6476
50.65
50.6526
50.6552
50.6579
50.6607
50.6636
50.6665
50.6695
50.6726
50.6758
50.679
50.6824
50.6857
50.6892
50.6928
50.6964
50.7002
50.704
50.7079
50.712
50.7161
50.7203
50.7246
50.7289
50.7334
50.7379
50.7426
50.7473
50.7521
50.757
50.762
50.7672
50.7724
50.7777
50.7831
50.7887
50.7943
50.8
50.8059
50.8118
50.8178
50.8239
50.8301
50.8364
50.8429
50.8494
50.8561
50.8628
50.8697
50.8767
50.8838
50.891
50.8984
50.9058
50.9133
50.921
50.9288
50.9367
50.9447
50.9528
50.961
50.9694
50.9779
50.9866
50.9953
51.0042
51.0132
51.0223
51.0315
51.0409
51.0504
51.0599
51.0696
51.0794
51.0893
51.0993
51.1096
51.12
51.1305
51.141
51.1516
51.1623
51.1732
51.1843
51.1956
51.207
51.2183
51.2296
51.241
51.2524
51.264
51.2757
51.2876
51.3001
51.3132
51.3266
51.3402
51.3542
51.3685
51.3828
51.3967
51.4099
51.4227
51.4351
51.4475
51.46
51.4727
51.4858
51.4992
51.513
51.5271
51.5414
51.556
51.5708
51.5859
51.6011
51.6165
51.6322
51.6478
51.6639
51.6797
51.6963
51.7123
51.7292
51.7454
51.7626
51.779
51.7966
51.8131
51.8312
51.8478
51.8663
51.883
51.9021
51.9193
51.9408
51.9585
50.4935
50.5391
50.5512
50.5552
50.5563
50.5566
50.5568
50.5569
50.5571
50.5572
50.5575
50.5577
50.5579
50.5582
50.5585
50.5588
50.5591
50.5594
50.5598
50.5602
50.5606
50.561
50.5615
50.562
50.5625
50.563
50.5635
50.5641
50.5647
50.5653
50.566
50.5668
50.5675
50.5684
50.5693
50.5702
50.5712
50.5722
50.5732
50.5742
50.5753
50.5765
50.5777
50.579
50.5803
50.5817
50.5831
50.5845
50.586
50.5875
50.5891
50.5908
50.5925
50.5943
50.5962
50.5982
50.6002
50.6023
50.6045
50.6067
50.6089
50.6113
50.6137
50.6162
50.6187
50.6214
50.6241
50.6269
50.6299
50.6329
50.636
50.6391
50.6423
50.6456
50.649
50.6525
50.6561
50.6598
50.6636
50.6674
50.6714
50.6755
50.6796
50.6838
50.688
50.6923