/*--------------------------------*- C++ -*----------------------------------*\
| =========                 |                                                 |
| \\      /  F ield         | OpenFOAM: The Open Source CFD Toolbox           |
|  \\    /   O peration     | Version:  3.0.x                                 |
|   \\  /    A nd           | Web:      www.OpenFOAM.org                      |
|    \\/     M anipulation  |                                                 |
\*---------------------------------------------------------------------------*/
FoamFile
{
    version     2.0;
    format      ascii;
    class       surfaceScalarField;
    location    "0.015";
    object      phi;
}
// * * * * * * * * * * * * * * * * * * * * * * * * * * * * * * * * * * * * * //

dimensions      [1 0 -1 0 0 0 0];

internalField   nonuniform List<scalar> 
999
(
3845.64
3845.63
3845.63
3845.63
3845.63
3845.63
3845.63
3845.62
3845.62
3845.62
3845.61
3845.61
3845.6
3845.59
3845.58
3845.57
3845.55
3845.53
3845.5
3845.47
3845.43
3845.38
3845.32
3845.24
3845.15
3845.03
3844.89
3844.71
3844.5
3844.23
3843.9
3843.49
3842.99
3842.37
3841.61
3840.67
3839.52
3838.1
3836.36
3834.22
3831.59
3828.37
3824.41
3819.56
3813.62
3806.34
3797.45
3786.58
3773.31
3757.15
3737.5
3713.65
3684.78
3649.95
3608.09
3557.98
3498.33
3427.77
3344.92
3248.47
3137.32
3010.72
2868.4
2710.77
2539.03
2355.25
2162.31
1963.83
1763.85
1566.59
1376.04
1195.68
1028.26
875.65
738.846
618.052
512.824
422.238
345.055
279.873
225.242
179.752
142.091
111.075
85.664
64.9621
48.2123
34.7835
24.1565
15.9066
9.68525
5.20127
2.20113
0.451919
-0.270399
-0.298438
-0.216387
-0.100394
0.0308827
0.175043
0.300459
0.401818
0.481198
0.544825
0.595271
0.634657
0.665212
0.688545
0.706016
0.718664
0.727364
0.732969
0.736205
0.737602
0.737529
0.736256
0.734002
0.730952
0.727271
0.72311
0.71861
0.713892
0.709039
0.704091
0.69906
0.693947
0.688764
0.683534
0.678296
0.673091
0.667956
0.66291
0.657954
0.653071
0.648238
0.643437
0.638664
0.633924
0.629233
0.624607
0.620057
0.615589
0.6112
0.606882
0.60263
0.598435
0.594295
0.590208
0.586173
0.582191
0.578261
0.57438
0.570549
0.566765
0.563028
0.55934
0.555699
0.552105
0.548555
0.545048
0.541581
0.53815
0.534757
0.5314
0.528083
0.524806
0.521571
0.518377
0.515223
0.512105
0.50902
0.505965
0.502938
0.499938
0.496966
0.494023
0.491111
0.488232
0.485386
0.482574
0.479795
0.477048
0.474332
0.471643
0.468982
0.466346
0.463735
0.461149
0.458586
0.456047
0.453532
0.45104
0.448572
0.446128
0.443706
0.441306
0.438928
0.436571
0.434235
0.431921
0.429628
0.427357
0.425107
0.422879
0.420671
0.418483
0.416314
0.414163
0.412028
0.40991
0.407807
0.40572
0.403649
0.401593
0.399555
0.397534
0.395529
0.393543
0.391574
0.389621
0.387686
0.385767
0.383864
0.381977
0.380105
0.378249
0.376407
0.37458
0.372768
0.370971
0.369188
0.367419
0.365663
0.363921
0.362193
0.360477
0.358774
0.357084
0.355406
0.35374
0.352086
0.350444
0.348813
0.347193
0.345583
0.343984
0.342396
0.340818
0.33925
0.337693
0.336147
0.334612
0.333089
0.331576
0.330076
0.328586
0.327109
0.325642
0.324187
0.322742
0.321308
0.319885
0.318471
0.317068
0.315673
0.314289
0.312913
0.311546
0.310187
0.308838
0.307496
0.306163
0.304839
0.303522
0.302213
0.300912
0.299619
0.298334
0.297056
0.295786
0.294524
0.293269
0.292021
0.29078
0.289547
0.288322
0.287104
0.285893
0.284689
0.283494
0.282305
0.281125
0.279951
0.278785
0.277627
0.276475
0.275331
0.274193
0.273063
0.271939
0.270821
0.26971
0.268606
0.267508
0.266416
0.26533
0.264251
0.263177
0.26211
0.261049
0.259994
0.258945
0.257901
0.256863
0.255831
0.254803
0.253782
0.252765
0.251753
0.250746
0.249745
0.248748
0.247757
0.24677
0.245789
0.244813
0.243843
0.242878
0.241918
0.240964
0.240016
0.239074
0.238137
0.237206
0.23628
0.23536
0.234445
0.233535
0.232631
0.231731
0.230836
0.229946
0.22906
0.228179
0.227302
0.22643
0.225562
0.224698
0.223838
0.222982
0.22213
0.221283
0.220439
0.2196
0.218764
0.217933
0.217106
0.216283
0.215464
0.214648
0.213837
0.21303
0.212227
0.211427
0.210632
0.20984
0.209052
0.208268
0.207488
0.206711
0.205938
0.205169
0.204403
0.203641
0.202883
0.202128
0.201376
0.200628
0.199883
0.199142
0.198403
0.197669
0.196937
0.196209
0.195484
0.194761
0.194042
0.193327
0.192614
0.191904
0.191197
0.190493
0.189793
0.189095
0.1884
0.187708
0.18702
0.186334
0.185652
0.184973
0.184297
0.183624
0.182954
0.182288
0.181624
0.180964
0.180307
0.179653
0.179002
0.178354
0.177709
0.177067
0.176428
0.175791
0.175158
0.174527
0.173899
0.173273
0.17265
0.17203
0.171413
0.170798
0.170186
0.169576
0.16897
0.168365
0.167764
0.167165
0.166569
0.165975
0.165385
0.164796
0.164211
0.163628
0.163048
0.16247
0.161894
0.161321
0.160751
0.160183
0.159617
0.159053
0.158492
0.157933
0.157376
0.156821
0.156269
0.155718
0.155169
0.154623
0.154078
0.153535
0.152994
0.152455
0.151917
0.151382
0.150848
0.150316
0.149786
0.149257
0.148731
0.148206
0.147682
0.147161
0.146642
0.146124
0.145608
0.145094
0.144582
0.144072
0.143563
0.143057
0.142552
0.142049
0.141549
0.14105
0.140552
0.140057
0.139563
0.139071
0.138581
0.138092
0.137605
0.13712
0.136636
0.136154
0.135674
0.135195
0.134718
0.134243
0.133769
0.133297
0.132827
0.132359
0.131892
0.131427
0.130964
0.130503
0.130043
0.129586
0.12913
0.128676
0.128224
0.127774
0.127325
0.126879
0.126434
0.125991
0.125549
0.125109
0.124671
0.124235
0.123799
0.123366
0.122934
0.122503
0.122074
0.121647
0.12122
0.120796
0.120372
0.11995
0.11953
0.119111
0.118693
0.118277
0.117863
0.11745
0.117038
0.116628
0.11622
0.115813
0.115407
0.115003
0.1146
0.114199
0.1138
0.113402
0.113005
0.11261
0.112216
0.111823
0.111432
0.111042
0.110653
0.110266
0.109879
0.109494
0.10911
0.108728
0.108346
0.107966
0.107586
0.107208
0.106831
0.106455
0.106081
0.105707
0.105335
0.104964
0.104593
0.104225
0.103857
0.10349
0.103124
0.10276
0.102397
0.102034
0.101673
0.101313
0.100954
0.100596
0.100239
0.0998828
0.0995277
0.0991736
0.0988204
0.0984682
0.0981169
0.0977666
0.0974171
0.0970686
0.096721
0.0963743
0.0960285
0.0956836
0.0953397
0.0949966
0.0946544
0.0943132
0.0939728
0.0936334
0.0932949
0.0929573
0.0926206
0.0922847
0.0919498
0.0916158
0.0912826
0.0909503
0.0906189
0.0902883
0.0899585
0.0896296
0.0893016
0.0889743
0.0886479
0.0883223
0.0879975
0.0876735
0.0873503
0.0870279
0.0867064
0.0863856
0.0860656
0.0857465
0.0854282
0.0851107
0.084794
0.0844781
0.0841631
0.0838489
0.0835355
0.083223
0.0829113
0.0826004
0.0822903
0.0819811
0.0816726
0.081365
0.0810581
0.0807521
0.0804468
0.0801423
0.0798387
0.0795358
0.0792337
0.0789324
0.0786319
0.0783323
0.0780335
0.0777355
0.0774383
0.077142
0.0768466
0.0765521
0.0762584
0.0759656
0.0756738
0.0753828
0.0750927
0.0748035
0.0745152
0.0742278
0.0739411
0.0736554
0.0733704
0.0730861
0.0728027
0.0725199
0.0722379
0.0719565
0.0716757
0.0713956
0.071116
0.0708371
0.0705587
0.0702809
0.0700037
0.0697271
0.069451
0.0691756
0.0689007
0.0686265
0.068353
0.0680802
0.0678081
0.0675367
0.0672662
0.0669964
0.0667274
0.0664592
0.0661919
0.0659254
0.0656597
0.0653948
0.0651307
0.0648674
0.0646048
0.064343
0.0640818
0.0638212
0.0635613
0.0633018
0.063043
0.0627846
0.0625266
0.0622691
0.062012
0.0617554
0.0614991
0.0612432
0.0609877
0.0607327
0.0604781
0.060224
0.0599703
0.0597173
0.0594648
0.0592129
0.0589616
0.058711
0.0584611
0.0582119
0.0579635
0.0577158
0.0574688
0.0572225
0.0569769
0.0567321
0.0564878
0.0562442
0.0560012
0.0557587
0.0555167
0.0552751
0.0550339
0.0547931
0.0545525
0.0543123
0.0540724
0.0538327
0.0535932
0.0533541
0.0531151
0.0528765
0.0526382
0.0524002
0.0521627
0.0519255
0.0516889
0.0514528
0.0512172
0.0509822
0.050748
0.0505143
0.0502814
0.0500492
0.0498177
0.0495869
0.0493568
0.0491273
0.0488985
0.0486702
0.0484425
0.0482152
0.0479884
0.0477619
0.0475357
0.0473097
0.047084
0.0468584
0.0466329
0.0464075
0.0461822
0.045957
0.0457318
0.0455068
0.0452819
0.0450572
0.0448326
0.0446084
0.0443844
0.0441609
0.0439377
0.0437151
0.043493
0.0432714
0.0430505
0.0428303
0.0426107
0.0423918
0.0421736
0.041956
0.041739
0.0415227
0.0413069
0.0410916
0.0408768
0.0406624
0.0404483
0.0402345
0.0400209
0.0398075
0.0395942
0.039381
0.0391679
0.0389548
0.0387417
0.0385287
0.0383156
0.0381027
0.0378898
0.037677
0.0374644
0.037252
0.0370398
0.036828
0.0366165
0.0364054
0.0361947
0.0359845
0.0357747
0.0355655
0.0353567
0.0351484
0.0349405
0.0347331
0.034526
0.0343193
0.0341129
0.0339066
0.0337006
0.0334947
0.0332888
0.0330831
0.0328773
0.0326715
0.0324658
0.0322599
0.0320541
0.0318482
0.0316423
0.0314365
0.0312307
0.0310251
0.0308196
0.0306144
0.0304095
0.0302051
0.030001
0.0297975
0.0295946
0.0293923
0.0291906
0.0289897
0.0287893
0.0285897
0.0283906
0.0281921
0.0279941
0.0277965
0.0275992
0.0274022
0.0272055
0.0270088
0.0268122
0.0266157
0.026419
0.0262223
0.0260255
0.0258286
0.0256315
0.0254342
0.0252368
0.0250392
0.0248414
0.0246435
0.0244454
0.0242471
0.0240488
0.0238505
0.0236522
0.0234541
0.0232563
0.0230588
0.0228617
0.0226651
0.0224691
0.0222736
0.0220787
0.0218843
0.0216904
0.021497
0.0213042
0.0211119
0.0209202
0.020729
0.0205383
0.0203481
0.0201583
0.0199687
0.0197793
0.01959
0.0194007
0.0192116
0.0190227
0.0188264
0.0186602
0.0184484
0.0182956
0.0180716
0.0179265
0.0176896
0.017547
0.0172892
0.0171222
0.0171238
0.0180876
0.0167455
0.0163674
0.016142
0.0160301
0.0157904
0.0156715
0.0154144
0.0152951
0.0150251
0.0149133
0.014633
0.0145319
0.0142424
0.0141528
0.0138546
0.0137767
0.0134701
0.0134033
0.0130884
0.0130312
0.0127085
0.0126595
0.0123303
0.012288
0.0119547
0.0119174
0.0115826
0.0115475
0.0112142
0.0111776
0.0108488
0.0108067
0.0104862
0.0104339
0.0101263
0.0100592
0.0097693
0.00968222
0.00941506
0.00930227
0.00906273
0.0089183
0.00871121
0.00852947
0.00835972
0.0081356
0.00800808
0.00773739
0.00765664
0.00733616
0.00730601
0.00693347
0.00695665
0.00653084
0.00660872
0.00612962
0.00626204
0.00573102
0.00591617
0.00533613
0.00557054
0.00494597
0.00522446
0.00456148
0.00487722
0.00418346
0.00452807
0.00381258
0.00417626
0.0034493
0.00382108
0.00309379
0.00346179
0.00274594
0.00309772
0.00240533
0.00272828
0.00207129
0.00235309
0.00174298
0.00197204
0.00141951
0.0015854
0.00109997
0.00119379
0.00078349
0.000798213
0.000469284
0.000400141
0.000156361
)
;

boundaryField
{
    inlet
    {
        type            calculated;
        value           uniform -3845.64;
    }
    backWall
    {
        type            calculated;
        value           uniform 0;
    }
    sides
    {
        type            empty;
        value           nonuniform 0();
    }
}


// ************************************************************************* //
