/*--------------------------------*- C++ -*----------------------------------*\
| =========                 |                                                 |
| \\      /  F ield         | OpenFOAM: The Open Source CFD Toolbox           |
|  \\    /   O peration     | Version:  3.0.x                                 |
|   \\  /    A nd           | Web:      www.OpenFOAM.org                      |
|    \\/     M anipulation  |                                                 |
\*---------------------------------------------------------------------------*/
FoamFile
{
    version     2.0;
    format      ascii;
    class       surfaceScalarField;
    location    "0.01";
    object      phi;
}
// * * * * * * * * * * * * * * * * * * * * * * * * * * * * * * * * * * * * * //

dimensions      [1 0 -1 0 0 0 0];

internalField   nonuniform List<scalar> 
26210
(
3.90515
0.000360673
3.90501
0.000134517
3.90495
6.04821e-05
3.90493
2.41339e-05
3.90492
8.24638e-06
3.90492
2.60355e-06
3.90491
8.94288e-07
3.90491
4.34007e-07
3.90491
3.22085e-07
3.90491
2.97314e-07
3.90491
2.92268e-07
3.90491
2.91308e-07
3.90491
2.91144e-07
3.90491
2.91115e-07
3.90491
2.91118e-07
3.9049
2.91122e-07
3.9049
2.91126e-07
3.9049
2.91129e-07
3.9049
2.91133e-07
3.9049
2.91137e-07
3.9049
2.9114e-07
3.9049
2.91144e-07
3.9049
2.91151e-07
3.9049
2.91162e-07
3.9049
2.91166e-07
3.9049
2.91169e-07
3.90489
2.91173e-07
3.90489
2.9118e-07
3.90489
2.91184e-07
3.90489
2.91191e-07
3.90489
2.91191e-07
3.90489
2.91195e-07
3.90489
2.91195e-07
3.90489
2.91195e-07
3.90489
2.91198e-07
3.90489
2.91198e-07
3.90489
2.91198e-07
3.90489
2.91198e-07
3.90489
2.91198e-07
3.90489
2.91202e-07
3.90489
2.91198e-07
3.90489
2.91202e-07
3.90489
2.91198e-07
3.90489
2.91206e-07
3.90489
2.91195e-07
3.90489
2.91198e-07
3.90489
2.91198e-07
3.90489
2.91195e-07
3.90489
2.91202e-07
3.90489
2.91198e-07
3.90489
2.91198e-07
3.90489
2.91202e-07
3.90489
2.91202e-07
3.90489
2.91202e-07
3.90489
2.91198e-07
3.90489
2.91202e-07
3.90489
2.91198e-07
3.90489
2.91198e-07
3.90489
2.91202e-07
3.90489
2.91198e-07
3.90489
2.91198e-07
3.90489
2.91202e-07
3.90489
2.91198e-07
3.90489
2.91198e-07
3.90489
2.91202e-07
3.90489
2.91202e-07
3.90489
2.91198e-07
3.90489
2.91202e-07
3.90489
2.91202e-07
3.90489
2.91198e-07
3.90489
2.91202e-07
3.90489
2.91198e-07
3.90489
2.91202e-07
3.90489
2.91198e-07
3.90489
2.91198e-07
3.90489
2.91198e-07
3.90489
2.91195e-07
3.90489
2.91202e-07
3.90489
2.91198e-07
3.90489
2.91198e-07
3.90489
2.91206e-07
3.90489
2.91195e-07
3.90489
2.91202e-07
3.90489
2.91198e-07
3.90489
2.91202e-07
3.90489
2.91202e-07
3.90489
2.91198e-07
3.90489
2.91202e-07
3.90489
2.91198e-07
3.90489
2.91206e-07
3.90489
2.91198e-07
3.90489
2.91202e-07
3.90489
2.91198e-07
3.90489
2.91202e-07
3.90489
2.91202e-07
3.90489
2.91198e-07
3.90489
2.91202e-07
3.90489
2.91202e-07
3.90489
2.91195e-07
3.90489
2.91198e-07
3.90489
2.91202e-07
3.90489
2.91198e-07
3.90489
2.91202e-07
3.90489
2.91198e-07
3.90489
2.91202e-07
3.90489
2.91202e-07
3.90489
2.91198e-07
3.90489
2.91195e-07
3.90489
2.91198e-07
3.90489
2.91198e-07
3.90489
2.91198e-07
3.90489
2.91198e-07
3.90489
2.91198e-07
3.90489
2.91202e-07
3.90489
2.91202e-07
3.90489
2.91195e-07
3.90489
2.91198e-07
3.90489
2.91202e-07
3.90489
2.91195e-07
3.90489
2.91198e-07
3.90489
2.91202e-07
3.90489
2.91198e-07
3.90489
2.91198e-07
3.90489
2.91198e-07
3.90489
2.91198e-07
3.90489
2.91198e-07
3.90489
2.91202e-07
3.90489
2.91202e-07
3.90489
2.91202e-07
3.90489
2.91202e-07
3.90489
2.91202e-07
3.90489
2.91198e-07
3.90489
2.91202e-07
3.90489
2.91198e-07
3.90489
2.91202e-07
3.90489
2.91202e-07
3.90489
2.91202e-07
3.90489
2.91195e-07
3.90489
2.91195e-07
3.90489
2.91202e-07
3.90489
2.91202e-07
3.90489
2.91198e-07
3.90489
2.91202e-07
3.90489
2.91202e-07
3.90489
2.91202e-07
3.90489
2.91202e-07
3.90489
2.91202e-07
3.90489
2.91202e-07
3.90489
2.91202e-07
3.90489
2.91198e-07
3.90489
2.91198e-07
3.90489
2.91202e-07
3.90489
2.91209e-07
3.90489
2.91217e-07
3.90488
2.91231e-07
3.90487
2.9126e-07
3.90486
2.91322e-07
3.90483
2.91417e-07
3.90478
2.91566e-07
3.90469
2.91817e-07
3.90453
2.92202e-07
3.90427
2.92763e-07
3.90385
2.93545e-07
3.90317
2.94542e-07
3.90214
2.95673e-07
3.90059
2.96681e-07
3.89835
2.97034e-07
3.89524
2.95804e-07
3.89109
2.91529e-07
3.88579
2.82147e-07
3.87937
2.6511e-07
3.87202
2.37673e-07
3.86417
1.97491e-07
3.85648
1.43478e-07
3.84979
7.67795e-08
3.845
1.41154e-09
3.84291
-7.50224e-08
3.84396
-1.19398e-07
3.84803
-1.8756e-07
3.85491
-2.14688e-07
3.86382
-2.13764e-07
3.8737
-1.70483e-07
3.88339
-1.08521e-07
3.89193
-2.76377e-08
3.89862
6.51016e-08
3.90315
1.44038e-07
3.90558
2.15223e-07
3.90632
2.6877e-07
3.90595
2.88677e-07
3.90504
3.15224e-07
3.90394
3.55951e-07
3.9029
5.82539e-07
3.90202
1.9881e-06
3.90129
1.02137e-05
3.90065
5.74763e-05
3.89988
0.000317746
3.89773
0.00179909
3.88828
0.00913278
3.85157
0.0366119
0.300474
3.55053
5.52326
0.000330369
5.52326
0.00013048
5.52326
5.63405e-05
5.52326
2.32264e-05
5.52326
8.04101e-06
5.52326
2.54469e-06
5.52326
8.7335e-07
5.52326
4.16969e-07
5.52325
3.03704e-07
5.52325
2.7816e-07
5.52325
2.72856e-07
5.52325
2.71826e-07
5.52325
2.71644e-07
5.52325
2.7161e-07
5.52324
2.7161e-07
5.52324
2.71608e-07
5.52324
2.7161e-07
5.52324
2.71613e-07
5.52324
2.71615e-07
5.52324
2.71619e-07
5.52324
2.71617e-07
5.52323
2.7163e-07
5.52323
2.71632e-07
5.52323
2.71639e-07
5.52323
2.71652e-07
5.52323
2.71648e-07
5.52323
2.71652e-07
5.52323
2.71657e-07
5.52323
2.7167e-07
5.52323
2.71675e-07
5.52323
2.7167e-07
5.52323
2.7167e-07
5.52323
2.71672e-07
5.52323
2.7167e-07
5.52323
2.71673e-07
5.52323
2.71675e-07
5.52323
2.71677e-07
5.52323
2.71677e-07
5.52323
2.71672e-07
5.52323
2.71682e-07
5.52323
2.71675e-07
5.52323
2.71675e-07
5.52323
2.71677e-07
5.52323
2.71679e-07
5.52323
2.71668e-07
5.52323
2.71675e-07
5.52323
2.71673e-07
5.52323
2.71681e-07
5.52323
2.71682e-07
5.52323
2.71679e-07
5.52323
2.71675e-07
5.52323
2.71673e-07
5.52323
2.71675e-07
5.52323
2.71677e-07
5.52323
2.71681e-07
5.52323
2.71681e-07
5.52323
2.71677e-07
5.52323
2.71679e-07
5.52323
2.71677e-07
5.52323
2.71672e-07
5.52323
2.71677e-07
5.52323
2.71684e-07
5.52323
2.71675e-07
5.52323
2.71681e-07
5.52323
2.71677e-07
5.52323
2.71681e-07
5.52323
2.71679e-07
5.52323
2.71679e-07
5.52323
2.71686e-07
5.52323
2.71681e-07
5.52323
2.71679e-07
5.52323
2.71681e-07
5.52323
2.71682e-07
5.52323
2.71679e-07
5.52323
2.71679e-07
5.52323
2.71677e-07
5.52323
2.71675e-07
5.52323
2.71679e-07
5.52323
2.71677e-07
5.52323
2.71675e-07
5.52323
2.71682e-07
5.52323
2.71675e-07
5.52323
2.71679e-07
5.52323
2.71675e-07
5.52323
2.71679e-07
5.52323
2.71681e-07
5.52323
2.71675e-07
5.52323
2.71681e-07
5.52323
2.71675e-07
5.52323
2.71677e-07
5.52323
2.71681e-07
5.52323
2.71677e-07
5.52323
2.71677e-07
5.52323
2.71681e-07
5.52323
2.71682e-07
5.52323
2.71673e-07
5.52323
2.71679e-07
5.52323
2.71682e-07
5.52323
2.71675e-07
5.52323
2.71679e-07
5.52323
2.71686e-07
5.52323
2.71679e-07
5.52323
2.71677e-07
5.52323
2.71679e-07
5.52323
2.71682e-07
5.52323
2.71682e-07
5.52323
2.71686e-07
5.52323
2.71679e-07
5.52323
2.71681e-07
5.52323
2.71682e-07
5.52323
2.71682e-07
5.52323
2.71675e-07
5.52323
2.71686e-07
5.52323
2.71677e-07
5.52323
2.71677e-07
5.52323
2.71682e-07
5.52323
2.71679e-07
5.52323
2.71677e-07
5.52323
2.7167e-07
5.52323
2.71673e-07
5.52323
2.71675e-07
5.52323
2.71675e-07
5.52323
2.71677e-07
5.52323
2.71681e-07
5.52323
2.71682e-07
5.52323
2.71682e-07
5.52323
2.71681e-07
5.52323
2.71677e-07
5.52323
2.71679e-07
5.52323
2.71681e-07
5.52323
2.71677e-07
5.52323
2.71675e-07
5.52323
2.71684e-07
5.52323
2.71677e-07
5.52323
2.71681e-07
5.52323
2.71679e-07
5.52323
2.71679e-07
5.52323
2.71675e-07
5.52323
2.7167e-07
5.52323
2.71679e-07
5.52323
2.71681e-07
5.52323
2.71673e-07
5.52323
2.71675e-07
5.52323
2.71682e-07
5.52323
2.71682e-07
5.52323
2.71679e-07
5.52323
2.71681e-07
5.52323
2.71679e-07
5.52322
2.71679e-07
5.52322
2.71679e-07
5.52322
2.71681e-07
5.52322
2.71682e-07
5.52322
2.71692e-07
5.52322
2.7169e-07
5.52321
2.71715e-07
5.5232
2.71742e-07
5.52318
2.71804e-07
5.52314
2.71893e-07
5.52306
2.72037e-07
5.52294
2.72292e-07
5.52272
2.72676e-07
5.52235
2.73234e-07
5.52175
2.74013e-07
5.5208
2.7502e-07
5.51933
2.76172e-07
5.51714
2.77227e-07
5.51397
2.77672e-07
5.50958
2.76634e-07
5.50371
2.72697e-07
5.49622
2.6391e-07
5.48713
2.47841e-07
5.47674
2.21879e-07
5.46563
1.83851e-07
5.45476
1.32759e-07
5.4453
6.98037e-08
5.43853
-1.24055e-09
5.43557
-7.26832e-08
5.43705
-1.14809e-07
5.44281
-1.75793e-07
5.45253
-2.01608e-07
5.46514
-1.98943e-07
5.4791
-1.57621e-07
5.49282
-9.86311e-08
5.50489
-2.23954e-08
5.51435
6.41685e-08
5.52075
1.37725e-07
5.52419
2.03414e-07
5.52524
2.52689e-07
5.52471
2.71888e-07
5.52342
3.03857e-07
5.52187
3.97606e-07
5.52041
9.56476e-07
5.51915
4.34934e-06
5.51812
2.41568e-05
5.51723
0.000137913
5.51613
0.000772491
5.51313
0.00427932
5.49954
0.0223251
5.44307
0.09258
0.694683
5.05208
7.81106
0.000289692
7.81107
0.000122776
7.81107
5.06376e-05
7.81107
2.16942e-05
7.81107
7.65931e-06
7.81107
2.4344e-06
7.81106
8.35321e-07
7.81106
3.90479e-07
7.81106
2.77091e-07
7.81106
2.509e-07
7.81106
2.45335e-07
7.81105
2.4422e-07
7.81105
2.44015e-07
7.81105
2.43977e-07
7.81105
2.43975e-07
7.81105
2.43971e-07
7.81104
2.43977e-07
7.81104
2.43975e-07
7.81104
2.43978e-07
7.81104
2.43982e-07
7.81104
2.43985e-07
7.81103
2.43995e-07
7.81103
2.43996e-07
7.81103
2.44003e-07
7.81103
2.44013e-07
7.81103
2.44006e-07
7.81103
2.44011e-07
7.81102
2.44016e-07
7.81102
2.44027e-07
7.81102
2.44029e-07
7.81102
2.44027e-07
7.81102
2.44026e-07
7.81102
2.44032e-07
7.81102
2.44031e-07
7.81102
2.44034e-07
7.81102
2.44032e-07
7.81102
2.44032e-07
7.81102
2.44032e-07
7.81102
2.4403e-07
7.81102
2.44037e-07
7.81102
2.44032e-07
7.81102
2.44032e-07
7.81102
2.44035e-07
7.81102
2.44037e-07
7.81102
2.44031e-07
7.81102
2.44032e-07
7.81102
2.44034e-07
7.81102
2.44037e-07
7.81102
2.4404e-07
7.81102
2.44038e-07
7.81102
2.44035e-07
7.81102
2.44037e-07
7.81102
2.44035e-07
7.81102
2.44038e-07
7.81102
2.44037e-07
7.81102
2.44038e-07
7.81102
2.44037e-07
7.81102
2.44038e-07
7.81102
2.44037e-07
7.81102
2.44037e-07
7.81102
2.44035e-07
7.81102
2.44039e-07
7.81102
2.44034e-07
7.81102
2.44037e-07
7.81102
2.44038e-07
7.81102
2.44041e-07
7.81102
2.44037e-07
7.81102
2.44036e-07
7.81102
2.4404e-07
7.81102
2.44037e-07
7.81102
2.44041e-07
7.81102
2.44037e-07
7.81102
2.44037e-07
7.81102
2.44035e-07
7.81102
2.44037e-07
7.81102
2.44037e-07
7.81102
2.44037e-07
7.81102
2.44036e-07
7.81102
2.44033e-07
7.81102
2.44037e-07
7.81102
2.44037e-07
7.81102
2.44034e-07
7.81102
2.44039e-07
7.81102
2.44038e-07
7.81102
2.44037e-07
7.81102
2.44037e-07
7.81102
2.44036e-07
7.81102
2.44038e-07
7.81102
2.44035e-07
7.81102
2.44037e-07
7.81102
2.44034e-07
7.81102
2.44038e-07
7.81102
2.44036e-07
7.81102
2.4404e-07
7.81102
2.44037e-07
7.81102
2.44036e-07
7.81102
2.4404e-07
7.81102
2.44039e-07
7.81102
2.44037e-07
7.81102
2.44038e-07
7.81102
2.44042e-07
7.81102
2.44036e-07
7.81102
2.44036e-07
7.81102
2.44037e-07
7.81102
2.44039e-07
7.81102
2.44042e-07
7.81102
2.4404e-07
7.81102
2.44038e-07
7.81102
2.44038e-07
7.81102
2.44039e-07
7.81102
2.44039e-07
7.81102
2.44034e-07
7.81102
2.44042e-07
7.81102
2.44036e-07
7.81102
2.44037e-07
7.81102
2.44036e-07
7.81102
2.44037e-07
7.81102
2.44032e-07
7.81102
2.44031e-07
7.81102
2.44032e-07
7.81102
2.44036e-07
7.81102
2.44037e-07
7.81102
2.44037e-07
7.81102
2.44042e-07
7.81102
2.44041e-07
7.81102
2.44038e-07
7.81102
2.44041e-07
7.81102
2.44035e-07
7.81102
2.44034e-07
7.81102
2.44041e-07
7.81102
2.44033e-07
7.81102
2.44033e-07
7.81102
2.44041e-07
7.81102
2.44034e-07
7.81102
2.44036e-07
7.81102
2.44037e-07
7.81102
2.44034e-07
7.81102
2.44029e-07
7.81102
2.4403e-07
7.81102
2.44037e-07
7.81102
2.44044e-07
7.81102
2.44035e-07
7.81102
2.44031e-07
7.81102
2.44038e-07
7.81102
2.44038e-07
7.81102
2.44037e-07
7.81102
2.44038e-07
7.81102
2.44037e-07
7.81102
2.44033e-07
7.81102
2.44037e-07
7.81102
2.44041e-07
7.81102
2.44042e-07
7.81102
2.4405e-07
7.81101
2.44052e-07
7.811
2.44069e-07
7.81099
2.44098e-07
7.81095
2.44151e-07
7.8109
2.44233e-07
7.81079
2.44374e-07
7.81061
2.44605e-07
7.8103
2.44963e-07
7.80978
2.45489e-07
7.80893
2.46211e-07
7.80759
2.47153e-07
7.80551
2.48231e-07
7.80241
2.4924e-07
7.79794
2.49698e-07
7.79172
2.4882e-07
7.78342
2.45307e-07
7.77283
2.3739e-07
7.75998
2.22866e-07
7.74528
1.99357e-07
7.72957
1.64923e-07
7.71419
1.18681e-07
7.70081
6.18311e-08
7.69124
-2.57478e-09
7.68705
-6.65596e-08
7.68915
-1.0533e-07
7.6973
-1.57732e-07
7.71104
-1.82008e-07
7.72887
-1.78357e-07
7.74862
-1.40908e-07
7.76802
-8.72442e-08
7.7851
-1.83354e-08
7.79847
5.94264e-08
7.80752
1.2548e-07
7.81239
1.84031e-07
7.81387
2.27993e-07
7.81312
2.47029e-07
7.8113
2.87404e-07
7.80911
4.54703e-07
7.80703
1.47437e-06
7.80526
7.62152e-06
7.8038
4.34814e-05
7.80255
0.000249445
7.80101
0.00140232
7.79682
0.00773218
7.77783
0.040744
7.68726
0.182478
1.23335
7.15094
34.4797
0.0001355
34.4797
6.83306e-05
34.4797
2.59603e-05
34.4797
1.17804e-05
34.4797
4.42332e-06
34.4797
1.40825e-06
34.4797
4.78554e-07
34.4797
2.14742e-07
34.4797
1.43854e-07
34.4797
1.26744e-07
34.4797
1.22975e-07
34.4797
1.22182e-07
34.4797
1.22024e-07
34.4796
1.21996e-07
34.4796
1.21991e-07
34.4796
1.2199e-07
34.4796
1.21991e-07
34.4796
1.21991e-07
34.4796
1.21993e-07
34.4796
1.21994e-07
34.4796
1.21992e-07
34.4796
1.21998e-07
34.4796
1.22e-07
34.4796
1.22003e-07
34.4795
1.22011e-07
34.4795
1.22005e-07
34.4795
1.22008e-07
34.4795
1.22009e-07
34.4795
1.22015e-07
34.4795
1.22016e-07
34.4795
1.22014e-07
34.4795
1.22016e-07
34.4795
1.22019e-07
34.4795
1.22018e-07
34.4795
1.22019e-07
34.4795
1.22017e-07
34.4795
1.22019e-07
34.4795
1.22019e-07
34.4795
1.22016e-07
34.4795
1.22021e-07
34.4795
1.22018e-07
34.4795
1.22018e-07
34.4795
1.22019e-07
34.4795
1.22019e-07
34.4795
1.22019e-07
34.4795
1.22019e-07
34.4795
1.2202e-07
34.4795
1.22021e-07
34.4795
1.22021e-07
34.4795
1.22021e-07
34.4795
1.2202e-07
34.4795
1.2202e-07
34.4795
1.22018e-07
34.4795
1.2202e-07
34.4795
1.22021e-07
34.4795
1.22022e-07
34.4795
1.22021e-07
34.4795
1.22022e-07
34.4795
1.22021e-07
34.4795
1.22022e-07
34.4795
1.2202e-07
34.4795
1.22022e-07
34.4795
1.22021e-07
34.4795
1.22021e-07
34.4795
1.22022e-07
34.4795
1.22023e-07
34.4795
1.22021e-07
34.4795
1.22019e-07
34.4795
1.22022e-07
34.4795
1.22021e-07
34.4795
1.22024e-07
34.4795
1.22021e-07
34.4795
1.22021e-07
34.4795
1.2202e-07
34.4795
1.22021e-07
34.4795
1.22021e-07
34.4795
1.2202e-07
34.4795
1.22018e-07
34.4795
1.22019e-07
34.4795
1.22021e-07
34.4795
1.2202e-07
34.4795
1.22019e-07
34.4795
1.2202e-07
34.4795
1.22021e-07
34.4795
1.2202e-07
34.4795
1.22021e-07
34.4795
1.2202e-07
34.4795
1.22021e-07
34.4795
1.22021e-07
34.4795
1.22021e-07
34.4795
1.22018e-07
34.4795
1.22021e-07
34.4795
1.22018e-07
34.4795
1.22022e-07
34.4795
1.22022e-07
34.4795
1.2202e-07
34.4795
1.22022e-07
34.4795
1.22021e-07
34.4795
1.22021e-07
34.4795
1.22021e-07
34.4795
1.22025e-07
34.4795
1.2202e-07
34.4795
1.22021e-07
34.4795
1.22021e-07
34.4795
1.22022e-07
34.4795
1.22022e-07
34.4795
1.22022e-07
34.4795
1.22021e-07
34.4795
1.22022e-07
34.4795
1.22023e-07
34.4795
1.22021e-07
34.4795
1.22019e-07
34.4795
1.22022e-07
34.4795
1.22018e-07
34.4795
1.2202e-07
34.4795
1.2202e-07
34.4795
1.2202e-07
34.4795
1.22017e-07
34.4795
1.22016e-07
34.4795
1.22017e-07
34.4795
1.22019e-07
34.4795
1.22021e-07
34.4795
1.2202e-07
34.4795
1.22023e-07
34.4795
1.22024e-07
34.4795
1.22022e-07
34.4795
1.22021e-07
34.4795
1.22018e-07
34.4795
1.22019e-07
34.4795
1.22021e-07
34.4795
1.22016e-07
34.4795
1.22017e-07
34.4795
1.22021e-07
34.4795
1.2202e-07
34.4795
1.22019e-07
34.4795
1.2202e-07
34.4795
1.22017e-07
34.4795
1.22017e-07
34.4795
1.22017e-07
34.4795
1.2202e-07
34.4795
1.22023e-07
34.4795
1.2202e-07
34.4795
1.22016e-07
34.4795
1.22021e-07
34.4795
1.2202e-07
34.4795
1.22021e-07
34.4795
1.22021e-07
34.4795
1.2202e-07
34.4795
1.22019e-07
34.4795
1.22021e-07
34.4795
1.22023e-07
34.4795
1.22023e-07
34.4795
1.22027e-07
34.4795
1.22028e-07
34.4794
1.22037e-07
34.4794
1.22053e-07
34.4792
1.22079e-07
34.479
1.22116e-07
34.4785
1.22187e-07
34.4777
1.22304e-07
34.4763
1.22483e-07
34.474
1.22745e-07
34.4703
1.23108e-07
34.4644
1.23577e-07
34.4552
1.24114e-07
34.4415
1.24619e-07
34.4218
1.24845e-07
34.3943
1.24402e-07
34.3577
1.22642e-07
34.3109
1.18676e-07
34.2542
1.11405e-07
34.1893
9.96415e-08
34.12
8.24093e-08
34.0521
5.92654e-08
33.993
3.06809e-08
33.9508
-1.34787e-09
33.9323
-3.25622e-08
33.9415
-5.37511e-08
33.9775
-7.7649e-08
34.0382
-9.14902e-08
34.1169
-8.91032e-08
34.2041
-7.04595e-08
34.2897
-4.34511e-08
34.3651
-9.13678e-09
34.4241
2.97559e-08
34.464
6.27565e-08
34.4855
9.20982e-08
34.4921
1.14771e-07
34.4888
1.3336e-07
34.4808
2.07788e-07
34.4711
6.60576e-07
34.4619
3.46735e-06
34.4541
2.03258e-05
34.4477
0.000118676
34.4422
0.000684071
34.4357
0.00386014
34.4188
0.021422
34.3422
0.114771
33.954
0.567966
2.96577
32.2257
34.4797
-9.09495e-13
34.4797
-9.09495e-13
34.4797
5.45697e-12
34.4797
-1.36424e-12
34.4797
-1.81899e-12
34.4797
-4.54747e-13
34.4797
-3.18323e-12
34.4797
-1.36424e-12
34.4797
9.09495e-13
34.4797
2.27374e-12
34.4797
0
34.4797
1.81899e-12
34.4797
2.27374e-12
34.4796
3.63798e-12
34.4796
2.72848e-12
34.4796
3.63798e-12
34.4796
1.81899e-12
34.4796
2.27374e-12
34.4796
1.36424e-12
34.4796
9.09495e-13
34.4796
-4.54747e-12
34.4796
-3.18323e-12
34.4796
9.09495e-13
34.4796
9.09495e-13
34.4795
3.63798e-12
34.4795
-1.36424e-12
34.4795
-4.54747e-13
34.4795
-1.36424e-12
34.4795
4.54747e-13
34.4795
0
34.4795
-9.09495e-13
34.4795
2.27374e-12
34.4795
1.36424e-12
34.4795
-4.54747e-13
34.4795
-1.36424e-12
34.4795
-1.81899e-12
34.4795
1.36424e-12
34.4795
-4.54747e-13
34.4795
-4.54747e-13
34.4795
4.54747e-13
34.4795
-1.36424e-12
34.4795
-9.09495e-13
34.4795
-4.54747e-13
34.4795
4.54747e-13
34.4795
4.54747e-13
34.4795
-4.54747e-13
34.4795
4.54747e-13
34.4795
9.09495e-13
34.4795
9.09495e-13
34.4795
1.36424e-12
34.4795
4.54747e-13
34.4795
0
34.4795
-3.18323e-12
34.4795
-9.09495e-13
34.4795
9.09495e-13
34.4795
2.27374e-12
34.4795
-4.54747e-13
34.4795
9.09495e-13
34.4795
4.54747e-13
34.4795
9.09495e-13
34.4795
-4.54747e-13
34.4795
1.81899e-12
34.4795
9.09495e-13
34.4795
0
34.4795
4.54747e-13
34.4795
4.54747e-13
34.4795
-4.54747e-13
34.4795
-2.27374e-12
34.4795
-9.09495e-13
34.4795
-4.54747e-13
34.4795
9.09495e-13
34.4795
0
34.4795
-4.54747e-13
34.4795
-4.54747e-13
34.4795
-4.54747e-13
34.4795
0
34.4795
-9.09495e-13
34.4795
-2.72848e-12
34.4795
-1.36424e-12
34.4795
-4.54747e-13
34.4795
-9.09495e-13
34.4795
-1.81899e-12
34.4795
-9.09495e-13
34.4795
-9.09495e-13
34.4795
-4.54747e-13
34.4795
4.54747e-13
34.4795
-1.81899e-12
34.4795
4.54747e-13
34.4795
0
34.4795
-1.36424e-12
34.4795
-1.36424e-12
34.4795
-1.81899e-12
34.4795
-9.09495e-13
34.4795
0
34.4795
4.54747e-13
34.4795
0
34.4795
9.09495e-13
34.4795
-9.09495e-13
34.4795
-4.54747e-13
34.4795
-1.81899e-12
34.4795
2.27374e-12
34.4795
-4.54747e-13
34.4795
0
34.4795
0
34.4795
9.09495e-13
34.4795
0
34.4795
4.54747e-13
34.4795
-9.09495e-13
34.4795
-4.54747e-13
34.4795
4.54747e-13
34.4795
0
34.4795
-4.54747e-13
34.4795
0
34.4795
-3.18323e-12
34.4795
-2.72848e-12
34.4795
-4.54747e-13
34.4795
-9.09495e-13
34.4795
-3.63798e-12
34.4795
-4.09273e-12
34.4795
-4.09273e-12
34.4795
-2.72848e-12
34.4795
4.54747e-13
34.4795
-4.54747e-13
34.4795
1.36424e-12
34.4795
2.27374e-12
34.4795
4.54747e-13
34.4795
-9.09495e-13
34.4795
-2.27374e-12
34.4795
-1.36424e-12
34.4795
4.54747e-13
34.4795
-3.63798e-12
34.4795
-2.27374e-12
34.4795
-4.54747e-13
34.4795
-4.54747e-13
34.4795
-1.36424e-12
34.4795
-9.09495e-13
34.4795
-2.72848e-12
34.4795
-2.27374e-12
34.4795
-2.72848e-12
34.4795
-9.09495e-13
34.4795
9.09495e-13
34.4795
-9.09495e-13
34.4795
-2.27374e-12
34.4795
1.36424e-12
34.4795
-1.36424e-12
34.4795
2.27374e-12
34.4795
-9.09495e-13
34.4795
-4.54747e-13
34.4795
-1.36424e-12
34.4795
1.81899e-12
34.4795
0
34.4795
4.54747e-13
34.4795
4.54747e-13
34.4795
-4.54747e-13
34.4794
4.54747e-13
34.4794
2.72848e-12
34.4792
2.27374e-12
34.479
-2.27374e-12
34.4785
-2.27374e-12
34.4777
-4.54747e-13
34.4763
4.54747e-13
34.474
0
34.4703
0
34.4644
-1.81899e-12
34.4552
-4.54747e-13
34.4415
9.09495e-13
34.4218
-9.09495e-13
34.3943
1.81899e-12
34.3577
4.54747e-13
34.3109
9.09495e-13
34.2542
-4.54747e-13
34.1893
-4.54747e-13
34.12
-1.36424e-12
34.0521
-1.36424e-12
33.993
-4.09273e-12
33.9508
4.54747e-13
33.9323
4.54747e-13
33.9415
5.45697e-12
33.9775
1.81899e-12
34.0382
-4.54747e-13
34.1169
4.54747e-13
34.2041
4.54747e-13
34.2897
-9.09495e-13
34.3651
-2.72848e-12
34.4241
-1.13687e-11
34.464
-4.1382e-11
34.4855
7.09406e-11
34.4921
1.60026e-09
34.4888
1.39257e-08
34.4808
9.95601e-08
34.4711
6.63444e-07
34.4619
4.17509e-06
34.4541
2.52813e-05
34.4477
0.000148521
34.4425
0.000860582
34.4374
0.00489077
34.4282
0.0274062
34.3909
0.149527
34.1838
0.772199
3.91747
33.2331
34.4797
-0.0001355
34.4797
-6.83306e-05
34.4797
-2.59603e-05
34.4797
-1.17804e-05
34.4797
-4.42332e-06
34.4797
-1.40825e-06
34.4797
-4.78559e-07
34.4797
-2.14745e-07
34.4797
-1.43852e-07
34.4797
-1.2674e-07
34.4797
-1.22975e-07
34.4797
-1.2218e-07
34.4797
-1.22018e-07
34.4796
-1.21988e-07
34.4796
-1.21986e-07
34.4796
-1.21984e-07
34.4796
-1.21987e-07
34.4796
-1.21988e-07
34.4796
-1.2199e-07
34.4796
-1.21994e-07
34.4796
-1.22001e-07
34.4796
-1.22002e-07
34.4796
-1.21999e-07
34.4796
-1.22002e-07
34.4795
-1.22002e-07
34.4795
-1.22007e-07
34.4795
-1.22008e-07
34.4795
-1.22011e-07
34.4795
-1.22013e-07
34.4795
-1.22015e-07
34.4795
-1.22015e-07
34.4795
-1.22011e-07
34.4795
-1.22016e-07
34.4795
-1.2202e-07
34.4795
-1.22022e-07
34.4795
-1.2202e-07
34.4795
-1.22017e-07
34.4795
-1.2202e-07
34.4795
-1.22021e-07
34.4795
-1.2202e-07
34.4795
-1.22021e-07
34.4795
-1.2202e-07
34.4795
-1.2202e-07
34.4795
-1.22018e-07
34.4795
-1.2202e-07
34.4795
-1.22021e-07
34.4795
-1.22019e-07
34.4795
-1.22019e-07
34.4795
-1.22021e-07
34.4795
-1.2202e-07
34.4795
-1.2202e-07
34.4795
-1.2202e-07
34.4795
-1.22024e-07
34.4795
-1.22024e-07
34.4795
-1.2202e-07
34.4795
-1.22018e-07
34.4795
-1.22021e-07
34.4795
-1.22021e-07
34.4795
-1.2202e-07
34.4795
-1.22021e-07
34.4795
-1.22021e-07
34.4795
-1.22019e-07
34.4795
-1.2202e-07
34.4795
-1.22022e-07
34.4795
-1.22021e-07
34.4795
-1.22021e-07
34.4795
-1.22022e-07
34.4795
-1.22022e-07
34.4795
-1.22023e-07
34.4795
-1.22021e-07
34.4795
-1.22021e-07
34.4795
-1.22023e-07
34.4795
-1.2202e-07
34.4795
-1.22021e-07
34.4795
-1.2202e-07
34.4795
-1.22021e-07
34.4795
-1.22021e-07
34.4795
-1.22023e-07
34.4795
-1.22021e-07
34.4795
-1.22021e-07
34.4795
-1.22023e-07
34.4795
-1.22021e-07
34.4795
-1.22022e-07
34.4795
-1.22022e-07
34.4795
-1.22024e-07
34.4795
-1.22021e-07
34.4795
-1.22023e-07
34.4795
-1.22021e-07
34.4795
-1.22021e-07
34.4795
-1.22021e-07
34.4795
-1.22022e-07
34.4795
-1.22022e-07
34.4795
-1.22024e-07
34.4795
-1.22022e-07
34.4795
-1.22021e-07
34.4795
-1.22021e-07
34.4795
-1.22022e-07
34.4795
-1.22022e-07
34.4795
-1.2202e-07
34.4795
-1.22023e-07
34.4795
-1.22018e-07
34.4795
-1.2202e-07
34.4795
-1.22022e-07
34.4795
-1.22021e-07
34.4795
-1.22021e-07
34.4795
-1.2202e-07
34.4795
-1.2202e-07
34.4795
-1.22021e-07
34.4795
-1.22021e-07
34.4795
-1.2202e-07
34.4795
-1.22021e-07
34.4795
-1.22023e-07
34.4795
-1.22023e-07
34.4795
-1.22024e-07
34.4795
-1.22026e-07
34.4795
-1.22021e-07
34.4795
-1.22021e-07
34.4795
-1.22025e-07
34.4795
-1.22024e-07
34.4795
-1.22024e-07
34.4795
-1.22025e-07
34.4795
-1.2202e-07
34.4795
-1.22021e-07
34.4795
-1.22021e-07
34.4795
-1.22019e-07
34.4795
-1.22022e-07
34.4795
-1.22024e-07
34.4795
-1.22024e-07
34.4795
-1.22023e-07
34.4795
-1.22022e-07
34.4795
-1.22024e-07
34.4795
-1.22023e-07
34.4795
-1.22021e-07
34.4795
-1.2202e-07
34.4795
-1.22023e-07
34.4795
-1.22021e-07
34.4795
-1.22022e-07
34.4795
-1.2202e-07
34.4795
-1.22022e-07
34.4795
-1.2202e-07
34.4795
-1.2202e-07
34.4795
-1.22021e-07
34.4795
-1.22022e-07
34.4795
-1.22019e-07
34.4795
-1.2202e-07
34.4795
-1.22018e-07
34.4795
-1.22021e-07
34.4795
-1.22021e-07
34.4795
-1.22021e-07
34.4795
-1.22017e-07
34.4795
-1.22022e-07
34.4795
-1.22023e-07
34.4795
-1.22025e-07
34.4795
-1.22029e-07
34.4794
-1.22036e-07
34.4794
-1.22047e-07
34.4792
-1.22074e-07
34.479
-1.22123e-07
34.4785
-1.22192e-07
34.4777
-1.22307e-07
34.4763
-1.22483e-07
34.474
-1.22746e-07
34.4703
-1.23107e-07
34.4644
-1.23579e-07
34.4552
-1.24115e-07
34.4415
-1.24615e-07
34.4218
-1.24845e-07
34.3943
-1.24398e-07
34.3577
-1.2264e-07
34.3109
-1.18675e-07
34.2542
-1.11402e-07
34.1893
-9.96433e-08
34.12
-8.24125e-08
34.0521
-5.92681e-08
33.993
-3.06877e-08
33.9508
1.34833e-09
33.9323
3.25635e-08
33.9415
5.37621e-08
33.9775
7.76531e-08
34.0382
9.14865e-08
34.1169
8.91032e-08
34.2041
7.04626e-08
34.2897
4.34507e-08
34.3651
9.13178e-09
34.4241
-2.97687e-08
34.464
-6.28102e-08
34.4855
-9.20018e-08
34.4921
-1.12368e-07
34.4888
-1.1127e-07
34.4808
-4.85693e-08
34.4711
3.99697e-07
34.4619
3.22403e-06
34.4541
2.01855e-05
34.4478
0.000119473
34.4429
0.000694886
34.4398
0.003975
34.4413
0.0226282
34.4604
0.12787
34.5208
0.70885
3.65418
34.7826
34.4797
-0.000289692
34.4797
-0.000122776
34.4797
-5.06375e-05
34.4797
-2.16942e-05
34.4797
-7.65931e-06
34.4797
-2.43439e-06
34.4797
-8.35324e-07
34.4797
-3.90481e-07
34.4797
-2.77087e-07
34.4797
-2.50895e-07
34.4797
-2.45336e-07
34.4797
-2.44221e-07
34.4797
-2.44007e-07
34.4796
-2.43969e-07
34.4796
-2.43967e-07
34.4796
-2.43966e-07
34.4796
-2.43972e-07
34.4796
-2.43973e-07
34.4796
-2.43977e-07
34.4796
-2.43983e-07
34.4796
-2.43993e-07
34.4796
-2.43996e-07
34.4796
-2.43993e-07
34.4796
-2.44003e-07
34.4795
-2.44006e-07
34.4795
-2.44009e-07
34.4795
-2.44012e-07
34.4795
-2.44017e-07
34.4795
-2.44023e-07
34.4795
-2.44025e-07
34.4795
-2.44022e-07
34.4795
-2.44018e-07
34.4795
-2.4403e-07
34.4795
-2.44035e-07
34.4795
-2.44039e-07
34.4795
-2.44036e-07
34.4795
-2.4403e-07
34.4795
-2.44037e-07
34.4795
-2.44036e-07
34.4795
-2.44037e-07
34.4795
-2.44037e-07
34.4795
-2.44036e-07
34.4795
-2.44037e-07
34.4795
-2.44033e-07
34.4795
-2.44033e-07
34.4795
-2.44038e-07
34.4795
-2.44036e-07
34.4795
-2.44037e-07
34.4795
-2.44038e-07
34.4795
-2.4404e-07
34.4795
-2.44038e-07
34.4795
-2.44036e-07
34.4795
-2.44042e-07
34.4795
-2.44044e-07
34.4795
-2.44037e-07
34.4795
-2.44034e-07
34.4795
-2.44037e-07
34.4795
-2.44037e-07
34.4795
-2.44037e-07
34.4795
-2.44037e-07
34.4795
-2.44038e-07
34.4795
-2.44037e-07
34.4795
-2.44037e-07
34.4795
-2.44038e-07
34.4795
-2.44041e-07
34.4795
-2.44037e-07
34.4795
-2.44039e-07
34.4795
-2.44039e-07
34.4795
-2.4404e-07
34.4795
-2.44037e-07
34.4795
-2.44038e-07
34.4795
-2.44042e-07
34.4795
-2.44037e-07
34.4795
-2.44037e-07
34.4795
-2.44036e-07
34.4795
-2.44037e-07
34.4795
-2.44037e-07
34.4795
-2.44041e-07
34.4795
-2.44037e-07
34.4795
-2.44038e-07
34.4795
-2.4404e-07
34.4795
-2.44037e-07
34.4795
-2.4404e-07
34.4795
-2.44038e-07
34.4795
-2.44039e-07
34.4795
-2.44035e-07
34.4795
-2.44041e-07
34.4795
-2.44038e-07
34.4795
-2.44037e-07
34.4795
-2.44041e-07
34.4795
-2.44038e-07
34.4795
-2.4404e-07
34.4795
-2.44042e-07
34.4795
-2.44042e-07
34.4795
-2.44036e-07
34.4795
-2.44037e-07
34.4795
-2.4404e-07
34.4795
-2.44037e-07
34.4795
-2.44035e-07
34.4795
-2.4404e-07
34.4795
-2.44034e-07
34.4795
-2.44038e-07
34.4795
-2.4404e-07
34.4795
-2.44038e-07
34.4795
-2.44037e-07
34.4795
-2.44035e-07
34.4795
-2.44036e-07
34.4795
-2.4404e-07
34.4795
-2.44041e-07
34.4795
-2.44037e-07
34.4795
-2.44037e-07
34.4795
-2.44038e-07
34.4795
-2.4404e-07
34.4795
-2.44041e-07
34.4795
-2.44047e-07
34.4795
-2.44037e-07
34.4795
-2.44036e-07
34.4795
-2.4404e-07
34.4795
-2.44037e-07
34.4795
-2.44038e-07
34.4795
-2.44045e-07
34.4795
-2.44035e-07
34.4795
-2.4404e-07
34.4795
-2.44037e-07
34.4795
-2.44034e-07
34.4795
-2.44039e-07
34.4795
-2.4404e-07
34.4795
-2.44043e-07
34.4795
-2.44041e-07
34.4795
-2.4404e-07
34.4795
-2.44038e-07
34.4795
-2.44039e-07
34.4795
-2.44035e-07
34.4795
-2.44035e-07
34.4795
-2.4404e-07
34.4795
-2.44035e-07
34.4795
-2.44038e-07
34.4795
-2.44033e-07
34.4795
-2.44035e-07
34.4795
-2.44033e-07
34.4795
-2.44034e-07
34.4795
-2.44041e-07
34.4795
-2.44037e-07
34.4795
-2.44035e-07
34.4795
-2.44036e-07
34.4795
-2.44032e-07
34.4795
-2.44037e-07
34.4795
-2.44037e-07
34.4795
-2.44037e-07
34.4795
-2.44035e-07
34.4795
-2.44038e-07
34.4795
-2.44041e-07
34.4795
-2.44048e-07
34.4795
-2.44052e-07
34.4794
-2.44067e-07
34.4794
-2.44091e-07
34.4792
-2.44148e-07
34.479
-2.4424e-07
34.4785
-2.44378e-07
34.4777
-2.4461e-07
34.4763
-2.44961e-07
34.474
-2.45488e-07
34.4703
-2.46212e-07
34.4644
-2.47154e-07
34.4552
-2.48228e-07
34.4415
-2.49235e-07
34.4218
-2.49695e-07
34.3943
-2.48814e-07
34.3577
-2.45306e-07
34.3109
-2.37392e-07
34.2542
-2.22859e-07
34.1893
-1.99359e-07
34.12
-1.64922e-07
34.0521
-1.18677e-07
33.993
-6.18365e-08
33.9508
2.57478e-09
33.9323
6.65596e-08
33.9415
1.05344e-07
33.9775
1.57736e-07
34.0382
1.82005e-07
34.1169
1.78357e-07
34.2041
1.40913e-07
34.2897
8.72433e-08
34.3651
1.83354e-08
34.4241
-5.94328e-08
34.464
-1.25502e-07
34.4855
-1.84011e-07
34.4921
-2.27097e-07
34.4888
-2.39182e-07
34.4808
-2.2841e-07
34.4711
-6.70843e-08
34.4619
9.72538e-07
34.4541
7.17701e-06
34.4478
4.3464e-05
34.4432
0.000253741
34.4417
0.0014578
34.4528
0.00832944
34.5291
0.048949
34.9049
0.330122
1.90012
36.6546
7.81106
-0.000330369
7.81107
-0.00013048
7.81107
-5.63405e-05
7.81107
-2.32264e-05
7.81107
-8.04102e-06
7.81107
-2.54468e-06
7.81106
-8.73351e-07
7.81106
-4.16963e-07
7.81106
-3.03698e-07
7.81106
-2.78156e-07
7.81106
-2.72856e-07
7.81105
-2.71826e-07
7.81105
-2.71632e-07
7.81105
-2.71604e-07
7.81105
-2.71599e-07
7.81105
-2.71601e-07
7.81104
-2.71606e-07
7.81104
-2.7161e-07
7.81104
-2.71611e-07
7.81104
-2.71619e-07
7.81104
-2.71628e-07
7.81103
-2.7163e-07
7.81103
-2.71632e-07
7.81103
-2.71644e-07
7.81103
-2.71641e-07
7.81103
-2.71646e-07
7.81103
-2.71653e-07
7.81102
-2.71657e-07
7.81102
-2.71662e-07
7.81102
-2.71666e-07
7.81102
-2.71662e-07
7.81102
-2.71662e-07
7.81102
-2.71672e-07
7.81102
-2.71675e-07
7.81102
-2.71682e-07
7.81102
-2.71679e-07
7.81102
-2.71673e-07
7.81102
-2.71675e-07
7.81102
-2.71677e-07
7.81102
-2.71681e-07
7.81102
-2.71675e-07
7.81102
-2.71673e-07
7.81102
-2.71677e-07
7.81102
-2.71679e-07
7.81102
-2.71672e-07
7.81102
-2.71681e-07
7.81102
-2.71679e-07
7.81102
-2.71679e-07
7.81102
-2.71681e-07
7.81102
-2.71684e-07
7.81102
-2.71677e-07