/*--------------------------------*- C++ -*----------------------------------*\
| =========                 |                                                 |
| \\      /  F ield         | OpenFOAM: The Open Source CFD Toolbox           |
|  \\    /   O peration     | Version:  3.0.x                                 |
|   \\  /    A nd           | Web:      www.OpenFOAM.org                      |
|    \\/     M anipulation  |                                                 |
\*---------------------------------------------------------------------------*/
FoamFile
{
    version     2.0;
    format      ascii;
    class       volScalarField;
    location    "0.550025";
    object      rho;
}
// * * * * * * * * * * * * * * * * * * * * * * * * * * * * * * * * * * * * * //

dimensions      [1 -3 0 0 0 0 0];

internalField   nonuniform List<scalar> 
13800
(
51.9992
52.0032
52.0091
52.0148
52.0202
52.0256
52.031
52.0362
52.0415
52.047
52.0525
52.0581
52.0638
52.0697
52.0758
52.0822
52.0888
52.0957
52.1029
52.1103
52.1179
52.1258
52.134
52.1425
52.1512
52.1601
52.1693
52.1787
52.1884
52.1984
52.2086
52.219
52.2297
52.2406
52.2517
52.2631
52.2747
52.2865
52.2986
52.3109
52.3234
52.3361
52.3491
52.3622
52.3756
52.3892
52.4029
52.4169
52.4311
52.4454
52.46
52.4747
52.4897
52.5048
52.5201
52.5355
52.5512
52.567
52.5829
52.599
52.6153
52.6317
52.6482
52.6649
52.6818
52.6987
52.7158
52.7331
52.7505
52.768
52.7857
52.8034
52.8213
52.8393
52.8573
52.8754
52.8936
52.9119
52.9303
52.9487
52.9672
52.9859
53.0045
53.0233
53.0421
53.0609
53.0798
53.0988
53.1178
53.1369
53.156
53.1752
53.1943
53.2135
53.2327
53.2519
53.2711
53.2903
53.3095
53.3287
53.3478
53.367
53.3862
53.4053
53.4245
53.4437
53.4628
53.4819
53.501
53.5201
53.5391
53.558
53.5769
53.5958
53.6146
53.6333
53.652
53.6707
53.6892
53.7077
53.7262
53.7445
53.7628
53.781
53.7992
53.8172
53.8352
53.8531
53.8709
53.8886
53.9062
53.9238
53.9412
53.9585
53.9758
53.9929
54.0099
54.0268
54.0437
54.0604
54.077
54.0934
54.1098
54.1261
54.1422
54.1582
54.1741
54.1899
54.2055
54.2211
54.2365
54.2517
54.2669
54.2819
54.2968
54.3115
54.3262
54.3407
54.355
54.3692
54.3833
54.3973
54.4111
54.4248
54.4383
54.4517
54.465
54.4781
54.4911
54.504
54.5167
54.5293
54.5417
54.554
54.5662
54.5782
54.5901
54.6017
54.6134
54.6247
54.6363
54.6472
54.6585
54.669
54.6803
54.6903
54.7014
54.711
54.7221
54.7312
54.7421
54.7509
54.7615
54.77
54.7803
54.7888
54.7985
54.8075
54.8151
54.8248
52.0003
52.0042
52.0102
52.0159
52.0213
52.0267
52.0321
52.0372
52.0425
52.048
52.0535
52.0591
52.0648
52.0707
52.0769
52.0833
52.0899
52.0968
52.1039
52.1113
52.119
52.1269
52.1351
52.1435
52.1522
52.1611
52.1703
52.1798
52.1894
52.1994
52.2096
52.22
52.2307
52.2416
52.2527
52.2641
52.2757
52.2875
52.2996
52.3119
52.3244
52.3371
52.35
52.3632
52.3765
52.3901
52.4039
52.4179
52.432
52.4464
52.4609
52.4757
52.4906
52.5057
52.521
52.5364
52.5521
52.5679
52.5838
52.5999
52.6162
52.6326
52.6491
52.6658
52.6826
52.6996
52.7167
52.734
52.7513
52.7689
52.7865
52.8043
52.8221
52.8401
52.8581
52.8763
52.8945
52.9127
52.9311
52.9496
52.9681
52.9867
53.0053
53.0241
53.0429
53.0617
53.0806
53.0996
53.1186
53.1377
53.1568
53.1759
53.1951
53.2143
53.2335
53.2527
53.2719
53.2911
53.3102
53.3294
53.3486
53.3677
53.3869
53.4061
53.4252
53.4444
53.4635
53.4826
53.5017
53.5208
53.5398
53.5587
53.5776
53.5965
53.6153
53.634
53.6527
53.6713
53.6899
53.7084
53.7268
53.7452
53.7635
53.7817
53.7998
53.8179
53.8359
53.8537
53.8716
53.8893
53.9069
53.9244
53.9419
53.9592
53.9764
53.9936
54.0106
54.0275
54.0443
54.061
54.0776
54.0941
54.1105
54.1267
54.1429
54.1589
54.1748
54.1906
54.2062
54.2217
54.2371
54.2524
54.2675
54.2826
54.2975
54.3122
54.3268
54.3413
54.3557
54.3699
54.384
54.3979
54.4118
54.4254
54.439
54.4524
54.4657
54.4788
54.4918
54.5046
54.5174
54.5299
54.5424
54.5547
54.5668
54.5788
54.5907
54.6024
54.6141
54.6254
54.6369
54.6478
54.6592
54.6697
54.6809
54.691
54.7021
54.7117
54.7227
54.7319
54.7427
54.7515
54.7621
54.7707
54.781
54.7893
54.7993
54.8074
54.817
54.8245
52.0003
52.0042
52.0102
52.0159
52.0213
52.0267
52.0321
52.0372
52.0425
52.048
52.0535
52.0591
52.0648
52.0708
52.0769
52.0833
52.0899
52.0968
52.1039
52.1113
52.119
52.1269
52.1351
52.1435
52.1522
52.1611
52.1703
52.1798
52.1894
52.1994
52.2096
52.22
52.2307
52.2416
52.2527
52.2641
52.2757
52.2875
52.2996
52.3119
52.3244
52.3371
52.35
52.3632
52.3765
52.3901
52.4039
52.4179
52.432
52.4464
52.4609
52.4757
52.4906
52.5057
52.521
52.5364
52.5521
52.5679
52.5838
52.5999
52.6162
52.6326
52.6491
52.6658
52.6826
52.6996
52.7167
52.734
52.7513
52.7689
52.7865
52.8043
52.8222
52.8401
52.8581
52.8763
52.8945
52.9128
52.9311
52.9496
52.9681
52.9867
53.0053
53.0241
53.0429
53.0617
53.0806
53.0996
53.1186
53.1377
53.1568
53.1759
53.1951
53.2143
53.2335
53.2527
53.2719
53.2911
53.3102
53.3294
53.3486
53.3677
53.3869
53.4061
53.4252
53.4444
53.4635
53.4826
53.5017
53.5208
53.5398
53.5587
53.5776
53.5965
53.6153
53.634
53.6527
53.6713
53.6899
53.7084
53.7268
53.7452
53.7635
53.7817
53.7998
53.8179
53.8359
53.8538
53.8716
53.8893
53.9069
53.9244
53.9419
53.9592
53.9764
53.9936
54.0106
54.0275
54.0443
54.061
54.0776
54.0941
54.1105
54.1267
54.1429
54.1589
54.1748
54.1906
54.2062
54.2217
54.2371
54.2524
54.2676
54.2826
54.2975
54.3122
54.3268
54.3413
54.3557
54.3699
54.384
54.3979
54.4118
54.4254
54.439
54.4524
54.4657
54.4788
54.4918
54.5046
54.5174
54.5299
54.5424
54.5547
54.5668
54.5788
54.5907
54.6024
54.6141
54.6254
54.6369
54.6478
54.6592
54.6697
54.6809
54.691
54.7021
54.7117
54.7227
54.7319
54.7427
54.7515
54.7621
54.7707
54.781
54.7893
54.7993
54.8074
54.817
54.8246
52.0003
52.0042
52.0102
52.0159
52.0213
52.0267
52.0321
52.0372
52.0425
52.048
52.0535
52.0591
52.0648
52.0707
52.0769
52.0833
52.0899
52.0968
52.1039
52.1113
52.119
52.1269
52.135
52.1435
52.1522
52.1611
52.1703
52.1797
52.1894
52.1994
52.2096
52.22
52.2307
52.2416
52.2527
52.2641
52.2757
52.2875
52.2996
52.3119
52.3244
52.3371
52.35
52.3632
52.3765
52.3901
52.4039
52.4178
52.432
52.4464
52.4609
52.4757
52.4906
52.5057
52.521
52.5364
52.5521
52.5679
52.5838
52.5999
52.6162
52.6326
52.6491
52.6658
52.6826
52.6996
52.7167
52.734
52.7513
52.7689
52.7865
52.8043
52.8221
52.8401
52.8581
52.8763
52.8945
52.9127
52.9311
52.9496
52.9681
52.9867
53.0053
53.0241
53.0429
53.0617
53.0806
53.0996
53.1186
53.1377
53.1568
53.1759
53.1951
53.2143
53.2335
53.2527
53.2719
53.2911
53.3102
53.3294
53.3486
53.3677
53.3869
53.4061
53.4252
53.4444
53.4635
53.4826
53.5017
53.5208
53.5398
53.5587
53.5776
53.5965
53.6153
53.634
53.6527
53.6713
53.6899
53.7084
53.7268
53.7452
53.7635
53.7817
53.7998
53.8179
53.8359
53.8538
53.8716
53.8893
53.9069
53.9244
53.9419
53.9592
53.9764
53.9936
54.0106
54.0275
54.0443
54.061
54.0776
54.0941
54.1105
54.1267
54.1429
54.1589
54.1748
54.1906
54.2062
54.2217
54.2371
54.2524
54.2676
54.2826
54.2975
54.3122
54.3268
54.3413
54.3557
54.3699
54.384
54.3979
54.4118
54.4254
54.439
54.4524
54.4657
54.4788
54.4918
54.5046
54.5174
54.5299
54.5424
54.5547
54.5668
54.5788
54.5907
54.6024
54.6141
54.6254
54.6369
54.6478
54.6592
54.6697
54.6809
54.691
54.7021
54.7117
54.7227
54.7319
54.7427
54.7515
54.7621
54.7707
54.781
54.7893
54.7993
54.8074
54.817
54.825
52.0003
52.0042
52.0102
52.0159
52.0212
52.0267
52.032
52.0372
52.0425
52.048
52.0535
52.0591
52.0648
52.0707
52.0769
52.0832
52.0899
52.0967
52.1039
52.1113
52.1189
52.1269
52.135
52.1435
52.1522
52.1611
52.1703
52.1797
52.1894
52.1994
52.2096
52.22
52.2306
52.2416
52.2527
52.2641
52.2757
52.2875
52.2996
52.3119
52.3244
52.3371
52.35
52.3632
52.3765
52.3901
52.4039
52.4178
52.432
52.4464
52.4609
52.4757
52.4906
52.5057
52.521
52.5364
52.5521
52.5679
52.5838
52.5999
52.6162
52.6326
52.6491
52.6658
52.6826
52.6996
52.7167
52.7339
52.7513
52.7689
52.7865
52.8043
52.8221
52.8401
52.8581
52.8763
52.8945
52.9127
52.9311
52.9495
52.9681
52.9867
53.0053
53.0241
53.0429
53.0617
53.0806
53.0996
53.1186
53.1377
53.1568
53.1759
53.1951
53.2143
53.2335
53.2527
53.2719
53.2911
53.3102
53.3294
53.3486
53.3677
53.3869
53.4061
53.4252
53.4444
53.4635
53.4826
53.5017
53.5208
53.5398
53.5587
53.5776
53.5965
53.6153
53.634
53.6527
53.6713
53.6899
53.7084
53.7268
53.7452
53.7635
53.7817
53.7998
53.8179
53.8359
53.8538
53.8716
53.8893
53.9069
53.9244
53.9419
53.9592
53.9764
53.9936
54.0106
54.0275
54.0443
54.061
54.0776
54.0941
54.1105
54.1267
54.1429
54.1589
54.1748
54.1906
54.2062
54.2217
54.2371
54.2524
54.2676
54.2826
54.2975
54.3122
54.3268
54.3413
54.3557
54.3699
54.384
54.3979
54.4118
54.4254
54.439
54.4524
54.4657
54.4788
54.4918
54.5046
54.5174
54.5299
54.5424
54.5547
54.5668
54.5788
54.5907
54.6024
54.6141
54.6254
54.6369
54.6478
54.6592
54.6697
54.6809
54.691
54.7021
54.7117
54.7227
54.7319
54.7427
54.7515
54.7621
54.7707
54.781
54.7893
54.7993
54.8074
54.8171
54.8248
52.0003
52.0042
52.0102
52.0159
52.0212
52.0267
52.032
52.0372
52.0425
52.048
52.0535
52.0591
52.0648
52.0707
52.0769
52.0832
52.0899
52.0967
52.1039
52.1113
52.1189
52.1269
52.135
52.1435
52.1522
52.1611
52.1703
52.1797
52.1894
52.1994
52.2096
52.22
52.2306
52.2416
52.2527
52.2641
52.2757
52.2875
52.2996
52.3119
52.3244
52.3371
52.35
52.3632
52.3765
52.3901
52.4039
52.4178
52.432
52.4464
52.4609
52.4757
52.4906
52.5057
52.521
52.5364
52.5521
52.5679
52.5838
52.5999
52.6162
52.6326
52.6491
52.6658
52.6826
52.6996
52.7167
52.7339
52.7513
52.7689
52.7865
52.8043
52.8221
52.8401
52.8581
52.8763
52.8945
52.9127
52.9311
52.9495
52.9681
52.9867
53.0053
53.0241
53.0429
53.0617
53.0806
53.0996
53.1186
53.1377
53.1568
53.1759
53.1951
53.2143
53.2335
53.2527
53.2719
53.2911
53.3102
53.3294
53.3486
53.3677
53.3869
53.4061
53.4252
53.4444
53.4635
53.4826
53.5017
53.5208
53.5398
53.5587
53.5776
53.5965
53.6153
53.634
53.6527
53.6713
53.6899
53.7084
53.7268
53.7452
53.7635
53.7817
53.7998
53.8179
53.8359
53.8538
53.8716
53.8893
53.9069
53.9244
53.9419
53.9592
53.9764
53.9936
54.0106
54.0275
54.0443
54.061
54.0776
54.0941
54.1105
54.1267
54.1429
54.1589
54.1748
54.1906
54.2062
54.2217
54.2371
54.2524
54.2676
54.2826
54.2975
54.3122
54.3268
54.3413
54.3557
54.3699
54.384
54.3979
54.4118
54.4254
54.439
54.4524
54.4657
54.4788
54.4918
54.5046
54.5174
54.5299
54.5424
54.5547
54.5668
54.5788
54.5907
54.6024
54.614
54.6255
54.6368
54.648
54.659
54.6699
54.6805
54.6915
54.7014
54.7125
54.7219
54.7327
54.742
54.7521
54.7618
54.7709
54.7808
54.7896
54.7988
54.8079
54.8167
54.8254
52.0003
52.0042
52.0102
52.0159
52.0213
52.0267
52.0321
52.0372
52.0425
52.048
52.0535
52.0591
52.0648
52.0707
52.0769
52.0833
52.0899
52.0968
52.1039
52.1113
52.119
52.1269
52.135
52.1435
52.1522
52.1611
52.1703
52.1797
52.1894
52.1994
52.2096
52.22
52.2307
52.2416
52.2527
52.2641
52.2757
52.2875
52.2996
52.3119
52.3244
52.3371
52.35
52.3632
52.3765
52.3901
52.4039
52.4178
52.432
52.4464
52.4609
52.4757
52.4906
52.5057
52.521
52.5364
52.5521
52.5679
52.5838
52.5999
52.6162
52.6326
52.6491
52.6658
52.6826
52.6996
52.7167
52.734
52.7513
52.7689
52.7865
52.8043
52.8221
52.8401
52.8581
52.8763
52.8945
52.9127
52.9311
52.9496
52.9681
52.9867
53.0053
53.0241
53.0429
53.0617
53.0806
53.0996
53.1186
53.1377
53.1568
53.1759
53.1951
53.2143
53.2335
53.2527
53.2719
53.2911
53.3102
53.3294
53.3486
53.3677
53.3869
53.4061
53.4252
53.4444
53.4635
53.4826
53.5017
53.5208
53.5398
53.5587
53.5776
53.5965
53.6153
53.634
53.6527
53.6713
53.6899
53.7084
53.7268
53.7452
53.7635
53.7817
53.7998
53.8179
53.8359
53.8538
53.8716
53.8893
53.9069
53.9244
53.9419
53.9592
53.9764
53.9936
54.0106
54.0275
54.0443
54.061
54.0776
54.0941
54.1105
54.1267
54.1429
54.1589
54.1748
54.1906
54.2062
54.2217
54.2371
54.2524
54.2676
54.2826
54.2975
54.3122
54.3268
54.3413
54.3557
54.3699
54.384
54.3979
54.4118
54.4254
54.439
54.4524
54.4657
54.4788
54.4918
54.5046
54.5174
54.5299
54.5424
54.5547
54.5668
54.5788
54.5907
54.6025
54.614
54.6256
54.6366
54.6482
54.6588
54.6702
54.6804
54.6916
54.7014
54.7125
54.7219
54.7328
54.7418
54.7525
54.7612
54.7716
54.7801
54.7902
54.7984
54.8083
54.8165
54.8256
52.0003
52.0042
52.0102
52.0159
52.0213
52.0267
52.0321
52.0372
52.0425
52.048
52.0535
52.0591
52.0648
52.0708
52.0769
52.0833
52.0899
52.0968
52.1039
52.1113
52.119
52.1269
52.1351
52.1435
52.1522
52.1611
52.1703
52.1798
52.1894
52.1994
52.2096
52.22
52.2307
52.2416
52.2527
52.2641
52.2757
52.2875
52.2996
52.3119
52.3244
52.3371
52.35
52.3632
52.3765
52.3901
52.4039
52.4179
52.432
52.4464
52.4609
52.4757
52.4906
52.5057
52.521
52.5364
52.5521
52.5679
52.5838
52.5999
52.6162
52.6326
52.6491
52.6658
52.6826
52.6996
52.7167
52.734
52.7513
52.7689
52.7865
52.8043
52.8222
52.8401
52.8581
52.8763
52.8945
52.9128
52.9311
52.9496
52.9681
52.9867
53.0053
53.0241
53.0429
53.0617
53.0806
53.0996
53.1186
53.1377
53.1568
53.1759
53.1951
53.2143
53.2335
53.2527
53.2719
53.2911
53.3102
53.3294
53.3486
53.3677
53.3869
53.4061
53.4252
53.4444
53.4635
53.4826
53.5017
53.5208
53.5398
53.5587
53.5776
53.5965
53.6153
53.634
53.6527
53.6713
53.6899
53.7084
53.7268
53.7452
53.7635
53.7817
53.7998
53.8179
53.8359
53.8538
53.8716
53.8893
53.9069
53.9244
53.9419
53.9592
53.9764
53.9936
54.0106
54.0275
54.0443
54.061
54.0776
54.0941
54.1105
54.1267
54.1429
54.1589
54.1748
54.1906
54.2062
54.2217
54.2371
54.2524
54.2676
54.2826
54.2975
54.3122
54.3268
54.3413
54.3557
54.3699
54.384
54.3979
54.4118
54.4254
54.439
54.4524
54.4657
54.4788
54.4918
54.5046
54.5174
54.5299
54.5424
54.5547
54.5668
54.5789
54.5907
54.6025
54.6139
54.6256
54.6366
54.6482
54.6588
54.6702
54.6803
54.6916
54.7014
54.7125
54.7218
54.7328
54.7418
54.7525
54.7612
54.7716
54.7801
54.7902
54.7984
54.8083
54.8159
54.8257
52.0003
52.0042
52.0102
52.0159
52.0213
52.0267
52.0321
52.0372
52.0425
52.048
52.0535
52.0591
52.0648
52.0707
52.0769
52.0833
52.0899
52.0968
52.1039
52.1113
52.119
52.1269
52.1351
52.1435
52.1522
52.1611
52.1703
52.1798
52.1894
52.1994
52.2096
52.22
52.2307
52.2416
52.2527
52.2641
52.2757
52.2875
52.2996
52.3119
52.3244
52.3371
52.35
52.3632
52.3765
52.3901
52.4039
52.4179
52.432
52.4464
52.4609
52.4757
52.4906
52.5057
52.521
52.5364
52.5521
52.5679
52.5838
52.5999
52.6162
52.6326
52.6491
52.6658
52.6826
52.6996
52.7167
52.734
52.7513
52.7689
52.7865
52.8043
52.8221
52.8401
52.8581
52.8763
52.8945
52.9127
52.9311
52.9496
52.9681
52.9867
53.0053
53.0241
53.0429
53.0617
53.0806
53.0996
53.1186
53.1377
53.1568
53.1759
53.1951
53.2143
53.2335
53.2527
53.2719
53.2911
53.3102
53.3294
53.3486
53.3677
53.3869
53.4061
53.4252
53.4444
53.4635
53.4826
53.5017
53.5208
53.5398
53.5587
53.5776
53.5965
53.6153
53.634
53.6527
53.6713
53.6899
53.7084
53.7268
53.7452
53.7635
53.7817
53.7998
53.8179
53.8359
53.8537
53.8716
53.8893
53.9069
53.9244
53.9419
53.9592
53.9764
53.9936
54.0106
54.0275
54.0443
54.061
54.0776
54.0941
54.1105
54.1267
54.1429
54.1589
54.1748
54.1906
54.2062
54.2217
54.2371
54.2524
54.2675
54.2826
54.2975
54.3122
54.3268
54.3413
54.3557
54.3699
54.384
54.3979
54.4118
54.4254
54.439
54.4524
54.4657
54.4788
54.4918
54.5046
54.5174
54.5299
54.5424
54.5547
54.5668
54.5789
54.5907
54.6025
54.6139
54.6256
54.6366
54.6482
54.6588
54.6702
54.6803
54.6916
54.7013
54.7125
54.7218
54.7328
54.7418
54.7525
54.7612
54.7716
54.7801
54.7902
54.7984
54.8083
54.8157
54.8253
51.9992
52.0032
52.0091
52.0148
52.0202
52.0256
52.031
52.0362
52.0415
52.047
52.0525
52.0581
52.0638
52.0697
52.0758
52.0822
52.0888
52.0957
52.1029
52.1103
52.1179
52.1258
52.134
52.1425
52.1512
52.1601
52.1693
52.1787
52.1884
52.1984
52.2086
52.219
52.2297
52.2406
52.2517
52.2631
52.2747
52.2865
52.2986
52.3109
52.3234
52.3361
52.3491
52.3622
52.3756
52.3892
52.4029
52.4169
52.4311
52.4454
52.46
52.4747
52.4897
52.5048
52.5201
52.5355
52.5512
52.567
52.5829
52.599
52.6153
52.6317
52.6482
52.6649
52.6818
52.6987
52.7158
52.7331
52.7505
52.768
52.7857
52.8034
52.8213
52.8393
52.8573
52.8754
52.8936
52.9119
52.9303
52.9487
52.9672
52.9859
53.0045
53.0233
53.0421
53.0609
53.0798
53.0988
53.1178
53.1369
53.156
53.1752
53.1943
53.2135
53.2327
53.2519
53.2711
53.2903
53.3095
53.3287
53.3478
53.367
53.3862
53.4053
53.4245
53.4437
53.4628
53.4819
53.501
53.5201
53.5391
53.558
53.5769
53.5958
53.6146
53.6333
53.652
53.6707
53.6892
53.7077
53.7262
53.7445
53.7628
53.781
53.7992
53.8172
53.8352
53.8531
53.8709
53.8886
53.9062
53.9238
53.9412
53.9585
53.9758
53.9929
54.0099
54.0268
54.0437
54.0604
54.077
54.0934
54.1098
54.1261
54.1422
54.1582
54.1741
54.1899
54.2055
54.2211
54.2365
54.2517
54.2669
54.2819
54.2968
54.3115
54.3262
54.3407
54.355
54.3692
54.3833
54.3973
54.4111
54.4248
54.4383
54.4517
54.465
54.4781
54.4911
54.504
54.5167
54.5293
54.5417
54.554
54.5661
54.5782
54.59
54.6018
54.6133
54.625
54.636
54.6475
54.6581
54.6695
54.6797
54.691
54.7007
54.7119
54.7211
54.7322
54.7411
54.7518
54.7605
54.771
54.7794
54.7896
54.7977
54.8077
54.8147
54.8249
54.83
54.8316
54.833
54.8343
54.8353
54.8361
54.8369
54.8379
54.8391
54.8406
54.8421
54.8436
54.8451
54.8466
54.8481
54.8495
54.8509
54.8523
54.8537
54.8552
54.8295
54.8312
54.8328
54.8342
54.8357
54.837
54.8382
54.8395
54.8407
54.8419
54.8432
54.8445
54.8459
54.8474
54.849
54.8505
54.852
54.8534
54.8549
54.8565
54.8292
54.8311
54.8327
54.8341
54.8357
54.8371
54.8384
54.8398
54.841
54.8423
54.8434
54.8449
54.8461
54.8476
54.849
54.8506
54.8521
54.8537
54.8553
54.8567
54.8297
54.8314
54.833
54.8345
54.836
54.8376
54.839
54.8406
54.8419
54.8434
54.8446
54.846
54.847
54.8482
54.8491
54.8503
54.8514
54.8527
54.854
54.8555
54.83
54.8318
54.8334
54.8351
54.8366
54.8382
54.8397
54.8413
54.8429
54.8444
54.846
54.8475
54.8491
54.8506
54.8522
54.8537
54.8552
54.8566
54.8581
54.8595
54.83
54.8315
54.833
54.8346
54.8361
54.8377
54.8392
54.8408
54.8422
54.8437
54.8452
54.8466
54.8479
54.8493
54.8504
54.8516
54.8526
54.8536
54.8547
54.8558
54.8309
54.8324
54.8338
54.8354
54.8369
54.8385
54.84
54.8416
54.8431
54.8448
54.8463
54.848
54.8496
54.8512
54.8528
54.8544
54.8561
54.8577
54.8594
54.8609
54.8303
54.8314
54.8326
54.834
54.8355
54.837
54.8386
54.8401
54.8417
54.8432
54.8449
54.8465
54.8482
54.85
54.8518
54.8536
54.8554
54.8572
54.8588
54.8604
54.8303
54.8315
54.8329
54.8343
54.8359
54.8375
54.8392
54.8409
54.8427
54.8446
54.8464
54.8483
54.8502
54.8521
54.854
54.8558
54.8577
54.8595
54.8613
54.863
54.8298
54.8309
54.8324
54.834
54.8357
54.8375
54.8393
54.8411
54.8429
54.8448
54.8466
54.8484
54.8503
54.8521
54.8539
54.8557
54.8575
54.8592
54.8608
54.8623
54.8585
54.8641
54.8703
54.8767
54.8826
54.8882
54.8937
54.8994
54.9052
54.911
54.9166
54.9219
54.927
54.9321
54.9373
54.9424
54.9475
54.9525
54.9574
54.9622
54.967
54.9716
54.9762
54.9807
54.9852
54.9895
54.9938
54.998
55.0022
55.0063
55.0103
55.0143
55.0182
55.022
55.0257
55.0294
55.033
55.0365
55.04
55.0434
55.0468
55.0501
55.0533
55.0565
55.0596
55.0626
55.0655
55.0685
55.0713
55.0741
55.0768
55.0795
55.082
55.0846
55.087
55.0894
55.0918
55.0941
55.0964
55.0987
55.1008
55.1029
55.1049
55.1069
55.1089
55.1107
55.1126
55.1144
55.1162
55.1179
55.1195
55.1211
55.1227
55.1242
55.1257
55.1271
55.1285
55.1299
55.1312
55.1324
55.1336
55.1348
55.1359
55.1371
55.1381
55.1392
55.1402
55.1412
55.1422
55.1432
55.1441
55.145
55.1459
55.1468
55.1476
55.1484
55.1492
55.1499
55.1507
55.1514
55.1521
55.1528
55.1534
55.1541
55.1547
55.1553
55.1559
55.1565
55.1571
55.1577
55.1582
55.1587
55.1592
55.1598
55.1604
55.1612
55.162
55.1629
55.1637
55.1643
55.1645
55.1647
55.1657
55.1675
55.1696
55.1711
55.1709
55.1646
55.1408
55.1059
55.0712
55.039
55.0112
54.9892
54.974
54.9666
54.9654
54.9664
54.9718
54.9939
55.0388
55.08
55.1134
55.1378
55.1541
55.1644
55.1709
55.1751
55.1774
55.1778
55.1763
55.1746
55.1734
55.1726
55.172
55.1715
55.1712
55.1709
55.1706
55.1704
55.1702
55.17
55.1698
55.1696
55.1694
55.1692
55.169
55.1689
55.1687
55.1685
55.1683
55.1681
55.1679
55.1678
55.1675
55.1675
55.1671
55.1672
55.1666
55.1669
55.1662
55.1665
55.1659
55.1661
55.1655
55.1658
55.1651
55.1654
55.1648
55.1651
55.1644
55.1648
55.1641
55.1645
55.1638
55.1641
55.1635
55.1639
55.163
55.1631
54.8601
54.8658
54.8715
54.8777
54.8838
54.8895
54.8951
54.9008
54.9066
54.9124
54.9181
54.9236
54.9288
54.9339
54.939
54.9441
54.9493
54.9543
54.9592
54.9641
54.9688
54.9735
54.9781
54.9826
54.987
54.9914
54.9957
55
55.0041
55.0082
55.0122
55.0162
55.0201
55.0239
55.0277
55.0314
55.035
55.0385
55.0419
55.0454
55.0487
55.052
55.0552
55.0584
55.0615
55.0646
55.0675
55.0704
55.0733
55.0761
55.0788
55.0815
55.0841
55.0866
55.0891
55.0915
55.0938
55.0961
55.0984
55.1006
55.1028
55.1049
55.1069
55.1089
55.1109
55.1128
55.1146
55.1164
55.1181
55.1199
55.1215
55.1231
55.1247
55.1262
55.1277
55.1291
55.1305
55.1319
55.1332
55.1345
55.1357
55.1369
55.138
55.1391
55.1402
55.1413
55.1423
55.1433
55.1443
55.1452
55.1461
55.147
55.1479
55.1488
55.1496
55.1504
55.1512
55.152
55.1527
55.1534
55.1541
55.1548
55.1554
55.1561
55.1567
55.1573
55.1579
55.1585
55.159
55.1596
55.1601
55.1606
55.1611
55.1617
55.1623
55.1628
55.1635
55.1642
55.1647
55.1651
55.1654
55.1656
55.1661
55.1671
55.1687
55.1709
55.1729
55.1748
55.177
55.1796
55.1824
55.1848
55.1859
55.1849
55.1798
55.1727
55.1655
55.1585
55.1525
55.1476
55.1462
55.1466
55.1482
55.1519
55.1568
55.1615
55.1656
55.1692
55.1717
55.1729
55.1732
55.1729
55.1727
55.1724
55.1721
55.1719
55.1716
55.1714
55.1712
55.171
55.1708
55.1706
55.1704
55.1702
55.17
55.1698
55.1696
55.1695
55.1693
55.1691
55.1689
55.1687
55.1685
55.1684
55.1681
55.1681
55.1676
55.1678
55.1672
55.1674
55.1668
55.167
55.1665
55.1667
55.1661
55.1663
55.1657
55.166
55.1654
55.1656
55.165
55.1653
55.1647
55.165
55.1644
55.1647
55.1641
55.1644
55.1637
55.1637
54.8603
54.8659
54.8715
54.8776
54.8837
54.8894
54.895
54.9005
54.9063
54.9121
54.9178
54.9232
54.9284
54.9335
54.9387
54.9439
54.949
54.954
54.9589
54.9638
54.9685
54.9732
54.9778
54.9823
54.9867
54.9911
54.9954
54.9996
55.0038
55.0079
55.0119
55.0159
55.0198
55.0236
55.0274
55.031
55.0346
55.0382
55.0416
55.045
55.0484
55.0517
55.0549
55.0581
55.0612
55.0642
55.0672
55.0701
55.0729
55.0757
55.0785
55.0811
55.0837
55.0863
55.0887
55.0911
55.0935
55.0958
55.0981
55.1003
55.1025
55.1046
55.1066
55.1086
55.1106
55.1124
55.1143
55.1161
55.1178
55.1195
55.1212
55.1228
55.1244
55.1259
55.1274
55.1288
55.1302
55.1316
55.1329
55.1342
55.1354
55.1366
55.1377
55.1388
55.1399
55.1409
55.142
55.143
55.144
55.1449
55.1458
55.1467
55.1476
55.1485
55.1493
55.1502
55.1509
55.1517
55.1524
55.1531
55.1538
55.1545
55.1552
55.1558
55.1564
55.157
55.1576
55.1582
55.1588
55.1593
55.1598
55.1603
55.1609
55.1614
55.1619
55.1624
55.1631
55.1638
55.1644
55.1648
55.1651
55.1651
55.1651
55.166
55.1678
55.1705
55.1738
55.1775
55.1811
55.1844
55.1875
55.1902
55.1924
55.1936
55.1932
55.19
55.1853
55.1803
55.1754
55.1709
55.1672
55.1645
55.163
55.1629
55.1635
55.165
55.1667
55.1684
55.1698
55.1708
55.1714
55.1718
55.1719
55.1719
55.1718
55.1717
55.1715
55.1713
55.1711
55.1709
55.1707
55.1705
55.1704
55.1702
55.17
55.1698
55.1696
55.1695
55.1693
55.1691
55.1689
55.1687
55.1685
55.1684
55.1681
55.1681
55.1676
55.1678
55.1672
55.1674
55.1668
55.167
55.1665
55.1667
55.1661
55.1663
55.1657
55.166
55.1654
55.1656
55.165
55.1653
55.1647
55.165
55.1644
55.1647
55.1641
55.1644
55.1639
55.1639
54.8592
54.8651
54.8704
54.8758
54.8814
54.8871
54.8925
54.8978
54.9031
54.9084
54.9138
54.9192
54.9244
54.9295
54.9345
54.9394
54.9444
54.9493
54.9542
54.959
54.9638
54.9684
54.973
54.9775
54.9819
54.9863
54.9906
54.9948
54.999
55.003
55.0071
55.011
55.0149
55.0187
55.0225
55.0262
55.0298
55.0333
55.0368
55.0402
55.0435
55.0468
55.0501
55.0532
55.0563
55.0593
55.0623
55.0652
55.0681
55.0709
55.0736
55.0763
55.0788
55.0814
55.0838
55.0863
55.0886
55.091
55.0932
55.0954
55.0976
55.0997
55.1017
55.1037
55.1057
55.1076
55.1094
55.1112
55.113
55.1147
55.1163
55.1179
55.1195
55.121
55.1225
55.124
55.1254
55.1267
55.128
55.1293
55.1305
55.1316
55.1328
55.1339
55.135
55.1361
55.1371
55.1381
55.1391
55.1401
55.141
55.1419
55.1428
55.1436
55.1445
55.1453
55.1461
55.1468
55.1476
55.1483
55.149
55.1497
55.1503
55.151
55.1517
55.1524
55.153
55.1536
55.1541
55.1547
55.1553
55.156
55.1567
55.1575
55.1582
55.1589
55.1597
55.1601
55.1604
55.1608
55.1612
55.162
55.1634
55.1654
55.1677
55.1699
55.172
55.1739
55.1759
55.1778
55.1792
55.1801
55.1801
55.1793
55.1779
55.1763
55.1746
55.173
55.1715
55.1704
55.1696
55.1691
55.169
55.1692
55.1696
55.1701
55.1706
55.171
55.1713
55.1715
55.1716
55.1716
55.1716
55.1715
55.1714
55.1713
55.1711
55.171
55.1709
55.1707
55.1706
55.1704
55.1702
55.1701
55.1699
55.1698
55.1696
55.1694
55.1692
55.1691
55.1689
55.1687
55.1685
55.1684
55.1681
55.168
55.1677
55.1677
55.1673
55.1673
55.1669
55.1669
55.1666
55.1666
55.1661
55.1663
55.1657
55.166
55.1654
55.1656
55.1651
55.1653
55.1647
55.165
55.1644
55.1647
55.1641
55.1644
55.1641
55.1639
54.863
54.8686
54.8742
54.8798
54.8854
54.891
54.8967
54.9024
54.9082
54.9139
54.9195
54.9248
54.93
54.9352
54.9403
54.9454
54.9505
54.9554
54.9603
54.965
54.9698
54.9744
54.979
54.9836
54.988
54.9924
54.9967
55.001
55.0051
55.0092
55.0133
55.0172
55.0211
55.0249
55.0287
55.0324
55.036
55.0396
55.0431
55.0465
55.0498
55.0531
55.0563
55.0594
55.0625
55.0656
55.0685
55.0714
55.0743
55.0771
55.0798
55.0824
55.0851
55.0876
55.0901
55.0925
55.0949
55.0972
55.0995
55.1017
55.1038
55.1059
55.1079
55.1099
55.1119
55.1138
55.1156
55.1174
55.1192
55.1209
55.1225
55.1241
55.1257
55.1272
55.1287
55.1301
55.1315
55.1328
55.1341
55.1354
55.1367
55.1379
55.139
55.1402
55.1413
55.1423
55.1433
55.1443
55.1453
55.1462
55.1471
55.148
55.1489
55.1497
55.1505
55.1513
55.1521
55.1529
55.1536
55.1543
55.155
55.1557
55.1563
55.1569
55.1575
55.1581
55.1587
55.1593
55.1598
55.1603
55.1609
55.1613
55.1618
55.1623
55.1627
55.1632
55.1637
55.164
55.1645
55.165
55.1655
55.1659
55.166
55.1662
55.1666
55.1674
55.1683
55.1694
55.1707
55.1719
55.173
55.1739
55.1745
55.1747
55.1747
55.1744
55.174
55.1735
55.1731
55.1727
55.1723
55.1721
55.172
55.1719
55.1718
55.1717
55.1717
55.1717
55.1717
55.1716
55.1716
55.1715
55.1714
55.1713
55.1712
55.1711
55.171
55.1709
55.1708
55.1706
55.1705
55.1703
55.1702
55.17
55.1699
55.1697
55.1696
55.1694
55.1692
55.1691
55.1689
55.1687
55.1685
55.1683
55.1682
55.1679
55.1678
55.1675
55.1675
55.1672
55.1671
55.1669
55.1666
55.1666
55.1662
55.1662
55.1659
55.1657
55.1657
55.1653
55.1654
55.1649
55.165
55.1648
55.1645
55.1646
55.1643
55.1641
55.164
55.164
54.8595
54.8646
54.869
54.8732
54.8776
54.8821
54.8867
54.8914
54.8962
54.901
54.9058
54.9107
54.9155
54.9204
54.9253
54.9302
54.9351
54.9399
54.9448
54.9495
54.9542
54.9588
54.9634
54.9679
54.9723
54.9767
54.981
54.9852
54.9894
54.9935
54.9975
55.0015
55.0053
55.0091
55.0129
55.0165
55.0201
55.0237
55.0272
55.0306
55.0339
55.0372
55.0405
55.0436
55.0468
55.0498
55.0528
55.0557
55.0585
55.0613
55.064
55.0666
55.0692
55.0718
55.0743
55.0767
55.0791
55.0814
55.0837
55.0859
55.0881
55.0902
55.0922
55.0942
55.0962
55.0981
55.1
55.1018
55.1035
55.1052
55.1069
55.1085
55.1101
55.1116
55.1131
55.1145
55.1159
55.1173
55.1186
55.1199
55.1211
55.1223
55.1235
55.1247
55.1258
55.1269
55.128
55.1291
55.1302
55.1313
55.1323
55.1333
55.1343
55.1352
55.1362
55.1371
55.1381
55.1391
55.14
55.141
55.1418
55.1427
55.1435
55.1444
55.1453
55.1462
55.1471
55.1481
55.149
55.15
55.1509
55.1518
55.1525
55.1532
55.1537
55.1542
55.1548
55.1556
55.1566
55.158
55.1595
55.1614
55.1633
55.1652
55.167
55.1686
55.1699
55.171
55.1721
55.173
55.1738
55.1744
55.1747
55.1749
55.1749
55.1746
55.1742
55.1736
55.173
55.1725
55.172
55.1716
55.1714
55.1712
55.1711
55.171
55.171
55.171
55.171
55.171
55.171
55.1709
55.1709
55.1709
55.1708
55.1708
55.1707
55.1706
55.1705
55.1704
55.1703
55.1702
55.1701
55.17
55.1698
55.1697
55.1695
55.1694
55.1692
55.169
55.1689
55.1686
55.1686
55.1683
55.1682
55.1679
55.1679
55.1675
55.1675
55.1671
55.1672
55.1667
55.1669
55.1663
55.1665
55.1659
55.1661
55.1655
55.1658
55.1652
55.1655
55.1649
55.1651
55.1646
55.1648
55.1643
55.1645
55.164
55.1642
55.1637
54.8656
54.8726
54.8792
54.8853
54.8911
54.8969
54.9026
54.9083
54.914
54.9196
54.9251
54.9305
54.9359
54.9412
54.9465
54.9516
54.9567
54.9617
54.9666
54.9715
54.9762
54.9809
54.9856
54.9901
54.9946
54.999
55.0034
55.0077
55.0119
55.016
55.0201
55.0241
55.028
55.0318
55.0356
55.0393
55.0429
55.0465
55.05
55.0534
55.0568
55.0601
55.0633
55.0664
55.0695
55.0726
55.0755
55.0784
55.0813
55.084
55.0867
55.0894
55.092
55.0945
55.097
55.0995
55.1018
55.1041
55.1064
55.1086
55.1107
55.1128
55.1149
55.1169
55.1188
55.1207
55.1225
55.1243
55.126
55.1277
55.1294
55.131
55.1325
55.1341
55.1355
55.137
55.1384
55.1397
55.141
55.1423
55.1435
55.1447
55.1458
55.147
55.1481
55.1492
55.1502
55.1512
55.1522
55.1531
55.154
55.1549
55.1558
55.1566
55.1575
55.1583
55.1591
55.1599
55.1606
55.1613
55.1621
55.1628
55.1634
55.1641
55.1647
55.1653
55.1659
55.1665
55.1671
55.1676
55.1681
55.1687
55.1692
55.1697
55.1702
55.1706
55.171
55.1715
55.1721
55.1724
55.1726
55.1729
55.1732
55.1734
55.1738
55.1743
55.1746
55.1745
55.1742
55.1739
55.1736
55.1735
55.174
55.1749
55.1767
55.1785
55.1797
55.18
55.1795
55.1783
55.1769
55.1756
55.1744
55.1735
55.1728
55.1723
55.1719
55.1716
55.1714
55.1713
55.1711
55.1711
55.171
55.1709
55.1709
55.1708
55.1707
55.1706
55.1705
55.1704
55.1703
55.1702
55.1701
55.17
55.1698
55.1697
55.1695
55.1694
55.1692
55.169
55.1689
55.1687
55.1685
55.1683
55.1682
55.1679
55.1679
55.1675
55.1675
55.1671
55.1672
55.1667
55.1668
55.1663
55.1665
55.1659
55.1661
55.1655
55.1658
55.1652
55.1655
55.1649
55.1651
55.1646
55.1648
55.1643
55.1645
55.1642
55.164
55.1638
54.8654
54.8705
54.8751
54.8792
54.8832
54.8872
54.8913
54.8955
54.8997
54.904
54.9083
54.9127
54.9171
54.9217
54.9263
54.931
54.9358
54.9405
54.9453
54.95
54.9547
54.9593
54.9639
54.9684
54.9729
54.9772
54.9815
54.9858
54.9899
54.994
54.9981
55.002
55.0059
55.0098
55.0135
55.0172
55.0208
55.0243
55.0278
55.0312
55.0345
55.0378
55.0411
55.0442
55.0473
55.0504
55.0534
55.0563
55.0592
55.062
55.0647
55.0673
55.0699
55.0725
55.075
55.0775
55.0799
55.0823
55.0846
55.0869
55.0891
55.0912
55.0933
55.0954
55.0974
55.0994
55.1013
55.1031
55.1049
55.1067
55.1084
55.11
55.1117
55.1132
55.1147
55.1162
55.1175
55.1189
55.1202
55.1214
55.1226
55.1237
55.1249
55.126
55.127
55.1281
55.1292
55.1303
55.1313