/*--------------------------------*- C++ -*----------------------------------*\
| =========                 |                                                 |
| \\      /  F ield         | OpenFOAM: The Open Source CFD Toolbox           |
|  \\    /   O peration     | Version:  3.0.x                                 |
|   \\  /    A nd           | Web:      www.OpenFOAM.org                      |
|    \\/     M anipulation  |                                                 |
\*---------------------------------------------------------------------------*/
FoamFile
{
    version     2.0;
    format      ascii;
    class       surfaceScalarField;
    location    "0.27";
    object      phi;
}
// * * * * * * * * * * * * * * * * * * * * * * * * * * * * * * * * * * * * * //

dimensions      [1 0 -1 0 0 0 0];

internalField   nonuniform List<scalar> 
52430
(
3.90622
0.000243621
3.90606
0.000176123
3.90592
0.000169084
3.90578
0.000170294
3.90563
0.000170717
3.90548
0.000170633
3.90533
0.00017059
3.90518
0.000170587
3.90503
0.000170588
3.90489
0.00017058
3.90475
0.000170587
3.90461
0.000170621
3.90447
0.0001706
3.90434
0.000170616
3.9042
0.000170624
3.90406
0.00017063
3.90392
0.000170634
3.90378
0.000170636
3.90364
0.000170635
3.9035
0.000170614
3.90336
0.000170646
3.90322
0.000170625
3.90308
0.000170629
3.90294
0.000170609
3.9028
0.00017059
3.90266
0.000170583
3.90252
0.000170574
3.90238
0.000170569
3.90224
0.000170559
3.9021
0.00017055
3.90197
0.000170542
3.90184
0.000170519
3.90171
0.000170526
3.90158
0.000170593
3.90145
0.000170475
3.90133
0.000170518
3.9012
0.000170518
3.90108
0.000170507
3.90095
0.000170522
3.90083
0.000170526
3.9007
0.000170518
3.90058
0.000170517
3.90046
0.000170498
3.90034
0.000170517
3.90023
0.000170571
3.90012
0.000170494
3.90001
0.000170522
3.8999
0.000170526
3.89979
0.000170528
3.89969
0.000170529
3.89958
0.00017053
3.89948
0.000170531
3.89938
0.00017053
3.89927
0.000170528
3.89918
0.000170526
3.89908
0.000170521
3.89898
0.000170529
3.89889
0.00017048
3.89879
0.000170517
3.8987
0.000170483
3.8986
0.00017046
3.89851
0.000170429
3.89843
0.000170385
3.89835
0.000170323
3.89827
0.000170225
3.89819
0.000170111
3.89812
0.000169985
3.89805
0.000169771
3.89798
0.00016948
3.89792
0.000169118
3.89786
0.000168646
3.8978
0.000168042
3.89774
0.000167281
3.89769
0.000166332
3.89764
0.000165151
3.89759
0.000163759
3.89754
0.000162037
3.8975
0.000160015
3.89746
0.000157645
3.89743
0.000154899
3.8974
0.000151755
3.89738
0.000148198
3.89737
0.000144218
3.89736
0.000139814
3.89735
0.000134996
3.89736
0.000129781
3.89737
0.000124199
3.89738
0.00011828
3.89741
0.00011208
3.89744
0.000105647
3.89748
9.90414e-05
3.89753
9.23266e-05
3.89759
8.55692e-05
3.89765
7.88357e-05
3.89772
7.21914e-05
3.8978
6.56984e-05
3.89789
5.94134e-05
3.89798
5.3387e-05
3.89807
4.76624e-05
3.89818
4.22744e-05
3.89828
3.72494e-05
3.8984
3.2605e-05
3.89851
2.83507e-05
3.89863
2.4488e-05
3.89875
2.10114e-05
3.89888
1.79093e-05
3.89901
1.51649e-05
3.89913
1.27574e-05
3.89926
1.06632e-05
3.89939
8.85647e-06
3.89952
7.31052e-06
3.89965
5.99838e-06
3.89978
4.89365e-06
3.89991
3.97087e-06
3.90003
3.20598e-06
3.90016
2.57701e-06
3.90028
2.06373e-06
3.9004
1.64775e-06
3.90051
1.31338e-06
3.90063
1.04649e-06
3.90074
8.34758e-07
3.90085
6.68086e-07
3.90096
5.37762e-07
3.90106
4.3635e-07
3.90116
3.57839e-07
3.90125
2.97548e-07
3.90134
2.51363e-07
3.90143
2.15776e-07
3.90151
1.8884e-07
3.90159
1.68302e-07
3.90166
1.52215e-07
3.90173
1.39969e-07
3.9018
1.30485e-07
3.90186
1.22754e-07
3.90191
1.16439e-07
3.90196
1.114e-07
3.90201
1.07088e-07
3.90205
1.02875e-07
3.90208
9.95606e-08
3.90211
9.65192e-08
3.90214
9.30759e-08
3.90215
9.02619e-08
3.90217
8.76098e-08
3.90218
8.47394e-08
3.90218
8.19491e-08
3.90218
7.89405e-08
3.90217
7.60756e-08
3.90215
7.3831e-08
3.90214
7.11661e-08
3.90211
6.85432e-08
3.90208
6.59511e-08
3.90205
6.339e-08
3.90201
6.08525e-08
3.90196
5.83459e-08
3.90191
5.58757e-08
3.90185
5.34455e-08
3.90179
5.10554e-08
3.90172
4.87053e-08
3.90165
4.64061e-08
3.90158
4.41523e-08
3.9015
4.1955e-08
3.90141
3.9814e-08
3.90132
3.77331e-08
3.90122
3.57068e-08
3.90112
3.37513e-08
3.90102
3.1856e-08
3.90091
3.00279e-08
3.9008
2.82707e-08
3.90068
2.659e-08
3.90056
2.49784e-08
3.90044
2.3445e-08
3.90031
2.19825e-08
3.90018
2.06037e-08
3.90005
1.93013e-08
3.89991
1.80771e-08
3.89977
1.69293e-08
3.89963
1.58561e-08
3.89948
1.48666e-08
3.89934
1.39644e-08
3.89919
1.31531e-08
3.89903
1.24401e-08
3.89888
1.18271e-08
3.89872
1.13123e-08
3.89857
1.08867e-08
3.89841
1.0541e-08
3.89825
1.02609e-08
3.89808
1.0039e-08
3.89792
9.8662e-09
3.89776
9.74978e-09
3.89759
9.70067e-09
3.89743
9.7225e-09
3.89726
9.82982e-09
3.8971
1.00245e-08
3.89693
1.03046e-08
3.89677
1.0672e-08
3.8966
1.11213e-08
3.89643
1.16506e-08
3.89627
1.22491e-08
3.89611
1.29148e-08
3.89594
1.36333e-08
3.89578
1.44119e-08
3.89562
1.52413e-08
3.89546
1.61181e-08
3.8953
1.70457e-08
3.89514
1.80225e-08
3.89498
1.90466e-08
3.89482
2.01107e-08
3.89467
2.12185e-08
3.89452
2.23718e-08
3.89437
2.35614e-08
3.89422
2.47892e-08
3.89407
2.60516e-08
3.89393
2.73467e-08
3.89378
2.86691e-08
3.89364
3.00133e-08
3.8935
3.13867e-08
3.89337
3.27782e-08
3.89323
3.41934e-08
3.8931
3.56267e-08
3.89297
3.70746e-08
3.89284
3.85371e-08
3.89272
4.00069e-08
3.8926
4.14893e-08
3.89248
4.29773e-08
3.89236
4.44725e-08
3.89224
4.59659e-08
3.89213
4.74665e-08
3.89202
4.89672e-08
3.89191
5.04624e-08
3.89181
5.19594e-08
3.89171
5.3451e-08
3.89161
5.49335e-08
3.89151
5.64069e-08
3.89141
5.78748e-08
3.89132
5.933e-08
3.89123
6.07724e-08
3.89114
6.22003e-08
3.89106
6.36119e-08
3.89098
6.50089e-08
3.8909
6.63895e-08
3.89082
6.77519e-08
3.89074
6.90961e-08
3.89067
7.04204e-08
3.8906
7.17209e-08
3.89053
7.3007e-08
3.89047
7.42693e-08
3.8904
7.55117e-08
3.89034
7.67268e-08
3.89028
7.79219e-08
3.89022
7.90933e-08
3.89017
8.02374e-08
3.89012
8.13634e-08
3.89006
8.24602e-08
3.89001
8.35335e-08
3.88997
8.45812e-08
3.88992
8.56035e-08
3.88988
8.65984e-08
3.88984
8.75734e-08
3.8898
8.85229e-08
3.88976
8.94415e-08
3.88972
9.03383e-08
3.88968
9.12169e-08
3.88965
9.20645e-08
3.88962
9.28849e-08
3.88959
9.36925e-08
3.88956
9.44747e-08
3.88953
9.52368e-08
3.8895
9.59753e-08
3.88948
9.66847e-08
3.88945
9.7376e-08
3.88943
9.80563e-08
3.88941
9.86984e-08
3.88939
9.93041e-08
3.88937
9.99025e-08
3.88935
1.00456e-07
3.88933
1.00998e-07
3.88932
1.01527e-07
3.8893
1.02033e-07
3.88929
1.02529e-07
3.88927
1.03033e-07
3.88926
1.03515e-07
3.88925
1.03981e-07
3.88924
1.04459e-07
3.88923
1.04905e-07
3.88922
1.05329e-07
3.88921
1.05758e-07
3.8892
1.06156e-07
3.88919
1.06515e-07
3.88919
1.06869e-07
3.88918
1.07208e-07
3.88917
1.07522e-07
3.88917
1.07815e-07
3.88916
1.08132e-07
3.88916
1.08404e-07
3.88916
1.08668e-07
3.88915
1.08925e-07
3.88915
1.09205e-07
3.88915
1.09429e-07
3.88915
1.09669e-07
3.88915
1.099e-07
3.88915
1.10127e-07
3.88915
1.105e-07
3.88915
1.10158e-07
3.88915
1.11084e-07
3.88915
1.11002e-07
3.88915
1.11164e-07
3.88915
1.11346e-07
3.88915
1.11519e-07
3.88915
1.1169e-07
3.88916
1.11851e-07
3.88916
1.1201e-07
3.88916
1.12161e-07
3.88916
1.12306e-07
3.88917
1.12443e-07
3.88917
1.12577e-07
3.88918
1.12703e-07
3.88918
1.12823e-07
3.88918
1.12941e-07
3.88919
1.13056e-07
3.88919
1.13161e-07
3.8892
1.13267e-07
3.8892
1.13365e-07
3.88921
1.13461e-07
3.88922
1.13554e-07
3.88922
1.13645e-07
3.88923
1.13732e-07
3.88923
1.13816e-07
3.88924
1.13898e-07
3.88925
1.13978e-07
3.88926
1.14054e-07
3.88926
1.14129e-07
3.88927
1.14198e-07
3.88928
1.14267e-07
3.88929
1.14336e-07
3.88929
1.14402e-07
3.8893
1.14467e-07
3.88931
1.14531e-07
3.88932
1.14591e-07
3.88933
1.14651e-07
3.88934
1.14713e-07
3.88935
1.14769e-07
3.88936
1.14824e-07
3.88937
1.1488e-07
3.88938
1.14933e-07
3.88939
1.14987e-07
3.8894
1.15042e-07
3.88941
1.15089e-07
3.88942
1.15144e-07
3.88943
1.15197e-07
3.88944
1.15249e-07
3.88945
1.15302e-07
3.88946
1.15357e-07
3.88947
1.15413e-07
3.88948
1.15466e-07
3.8895
1.15526e-07
3.88951
1.15584e-07
3.88952
1.15648e-07
3.88953
1.1571e-07
3.88955
1.15775e-07
3.88956
1.1585e-07
3.88957
1.15915e-07
3.88959
1.15997e-07
3.8896
1.16081e-07
3.88961
1.16153e-07
3.88963
1.16255e-07
3.88964
1.16341e-07
3.88966
1.16441e-07
3.88967
1.16552e-07
3.88969
1.16654e-07
3.8897
1.16772e-07
3.88972
1.16899e-07
3.88974
1.17023e-07
3.88975
1.17174e-07
3.88977
1.17358e-07
3.88979
1.17543e-07
3.8898
1.17889e-07
3.88982
1.18433e-07
3.88984
1.19493e-07
3.88986
1.21927e-07
3.88988
1.27331e-07
3.8899
1.40188e-07
3.88992
1.71207e-07
3.88994
2.50802e-07
3.88996
4.04467e-07
3.88998
8.27436e-07
3.89001
1.78926e-06
3.89002
4.13069e-06
3.89004
9.71544e-06
3.89004
2.30658e-05
3.89001
5.49963e-05
3.88991
0.000131276
3.88962
0.00031331
3.8889
0.000747499
3.88715
0.00178097
3.88294
0.00423518
3.87293
0.0100431
3.8492
0.0237643
3.79266
0.0565679
3.65162
0.141078
0.380729
3.27093
5.52463
0.000213023
5.52467
0.000170379
5.52472
0.000156198
5.52477
0.000158376
5.52481
0.000159401
5.52485
0.000159282
5.52489
0.000159196
5.52493
0.000159211
5.52498
0.000159231
5.52503
0.000159238
5.52508
0.000159255
5.52513
0.000159291
5.52519
0.000159291
5.52525
0.000159313
5.52531
0.000159332
5.52536
0.000159348
5.52542
0.000159363
5.52547
0.000159375
5.52553
0.000159385
5.52558
0.000159382
5.52563
0.000159411
5.52569
0.000159409
5.52575
0.000159419
5.5258
0.000159414
5.52586
0.000159408
5.52591
0.000159407
5.52596
0.000159418
5.52602
0.000159419
5.52607
0.00015942
5.52613
0.000159422
5.52619
0.000159424
5.52626
0.000159416
5.52633
0.000159433
5.5264
0.000159495
5.52647
0.000159409
5.52655
0.000159453
5.52662
0.000159465
5.52669
0.000159468
5.52677
0.000159488
5.52684
0.000159502
5.52692
0.000159506
5.527
0.000159516
5.52708
0.000159512
5.52717
0.000159538
5.52726
0.00015959
5.52735
0.000159542
5.52745
0.000159571
5.52755
0.000159588
5.52765
0.000159599
5.52775
0.00015961
5.52785
0.000159622
5.52796
0.000159632
5.52806
0.000159642
5.52817
0.000159651
5.52828
0.000159659
5.5284
0.000159669
5.52851
0.000159676
5.52863
0.000159635
5.52875
0.000159703
5.52886
0.000159672
5.52899
0.000159658
5.52911
0.000159638
5.52924
0.000159606
5.52937
0.000159557
5.52951
0.000159474
5.52966
0.000159376
5.5298
0.000159258
5.52996
0.000159063
5.53012
0.000158793
5.53027
0.000158455
5.53044
0.00015801
5.5306
0.000157439
5.53077
0.000156716
5.53094
0.000155813
5.53111
0.000154695
5.53128
0.000153354
5.53145
0.000151725
5.53163
0.000149796
5.53181
0.000147537
5.532
0.000144923
5.53218
0.000141932
5.53237
0.000138549
5.53256
0.000134768
5.53275
0.000130589
5.53295
0.00012602
5.53314
0.000121081
5.53334
0.000115801
5.53354
0.000110208
5.53374
0.000104357
5.53395
9.82938e-05
5.53415
9.20755e-05
5.53436
8.57628e-05
5.53456
7.94184e-05
5.53477
7.3105e-05
5.53498
6.68836e-05
5.53518
6.0812e-05
5.53539
5.49429e-05
5.5356
4.93231e-05
5.53581
4.39918e-05
5.53602
3.89808e-05
5.53623
3.43136e-05
5.53643
3.00058e-05
5.53664
2.60649e-05
5.53684
2.24915e-05
5.53705
1.92794e-05
5.53725
1.6417e-05
5.53745
1.38879e-05
5.53765
1.1672e-05
5.53785
9.74684e-06
5.53805
8.08802e-06
5.53824
6.6703e-06
5.53843
5.46841e-06
5.53862
4.45769e-06
5.53881
3.61439e-06
5.53899
2.91618e-06
5.53917
2.34267e-06
5.53934
1.87515e-06
5.53952
1.49669e-06
5.53968
1.19277e-06
5.53985
9.50434e-07
5.54001
7.58394e-07
5.54016
6.07345e-07
5.54031
4.89348e-07
5.54045
3.97617e-07
5.54059
3.26654e-07
5.54073
2.72186e-07
5.54086
2.30487e-07
5.54098
1.98392e-07
5.5411
1.74067e-07
5.54121
1.55531e-07
5.54131
1.41027e-07
5.54141
1.29943e-07
5.5415
1.21349e-07
5.54159
1.14345e-07
5.54166
1.08599e-07
5.54173
1.03991e-07
5.5418
1.00033e-07
5.54185
9.619e-08
5.5419
9.31104e-08
5.54194
9.02774e-08
5.54198
8.71269e-08
5.54201
8.44939e-08
5.54203
8.20137e-08
5.54204
7.93625e-08
5.54204
7.67313e-08
5.54204
7.39337e-08
5.54203
7.12962e-08
5.54201
6.91543e-08
5.54198
6.66832e-08
5.54194
6.4234e-08
5.5419
6.18156e-08
5.54185
5.94227e-08
5.5418
5.70544e-08
5.54173
5.47097e-08
5.54166
5.24014e-08
5.54158
5.01313e-08
5.54149
4.78976e-08
5.5414
4.5703e-08
5.5413
4.35539e-08
5.54119
4.14539e-08
5.54107
3.93984e-08
5.54095
3.73957e-08
5.54082
3.54521e-08
5.54069
3.35631e-08
5.54055
3.17341e-08
5.5404
2.99642e-08
5.54025
2.82525e-08
5.54009
2.66118e-08
5.53992
2.50402e-08
5.53975
2.35359e-08
5.53958
2.21044e-08
5.5394
2.07401e-08
5.53921
1.94495e-08
5.53902
1.82317e-08
5.53883
1.70903e-08
5.53863
1.60162e-08
5.53843
1.50158e-08
5.53822
1.40935e-08
5.53801
1.32513e-08
5.5378
1.24965e-08
5.53759
1.18343e-08
5.53737
1.12632e-08
5.53715
1.07848e-08
5.53692
1.03846e-08
5.5367
1.00636e-08
5.53647
9.80253e-09
5.53624
9.59244e-09
5.53601
9.43146e-09
5.53578
9.32505e-09
5.53555
9.27957e-09
5.53532
9.30504e-09
5.53508
9.4069e-09
5.53485
9.5888e-09
5.53461
9.85347e-09
5.53438
1.01973e-08
5.53414
1.06202e-08
5.53391
1.11158e-08
5.53368
1.1677e-08
5.53344
1.23009e-08
5.53321
1.29739e-08
5.53298
1.37024e-08
5.53275
1.44773e-08
5.53252
1.53004e-08
5.5323
1.61681e-08
5.53207
1.70812e-08
5.53185
1.80353e-08
5.53163
1.90303e-08
5.53141
2.00653e-08
5.5312
2.11412e-08
5.53098
2.22508e-08
5.53077
2.33968e-08
5.53056
2.45745e-08
5.53036
2.57796e-08
5.53016
2.70147e-08
5.52996
2.82644e-08
5.52976
2.95468e-08
5.52957
3.08455e-08
5.52938
3.21625e-08
5.52919
3.35021e-08
5.529
3.48509e-08
5.52882
3.62134e-08
5.52865
3.75821e-08
5.52847
3.89664e-08
5.5283
4.03561e-08
5.52814
4.17504e-08
5.52797
4.31437e-08
5.52782
4.45398e-08
5.52766
4.59386e-08
5.52751
4.73383e-08
5.52736
4.87316e-08
5.52721
5.01223e-08
5.52707
5.15056e-08
5.52693
5.28826e-08
5.5268
5.42468e-08
5.52667
5.56029e-08
5.52654
5.69507e-08
5.52642
5.82822e-08
5.5263
5.9601e-08
5.52618
6.08998e-08
5.52607
6.2184e-08
5.52596
6.34536e-08
5.52585
6.47087e-08
5.52575
6.5942e-08
5.52565
6.71571e-08
5.52555
6.83522e-08
5.52546
6.95318e-08
5.52537
7.0685e-08
5.52528
7.18173e-08
5.5252
7.29297e-08
5.52512
7.40229e-08
5.52504
7.50861e-08
5.52496
7.61356e-08
5.52489
7.71624e-08
5.52482
7.81611e-08
5.52475
7.91388e-08
5.52469
8.0091e-08
5.52463
8.10205e-08
5.52457
8.19318e-08
5.52451
8.28204e-08
5.52446
8.36808e-08
5.5244
8.45212e-08
5.52435
8.53388e-08
5.5243
8.61355e-08
5.52426
8.6904e-08
5.52421
8.76607e-08
5.52417
8.83883e-08
5.52413
8.91014e-08
5.5241
8.97944e-08
5.52406
9.04556e-08
5.52402
9.11032e-08
5.52399
9.17371e-08
5.52396
9.23337e-08
5.52393
9.29085e-08
5.5239
9.34615e-08
5.52388
9.39772e-08
5.52385
9.4481e-08
5.52383
9.49749e-08
5.52381
9.54551e-08
5.52379
9.59171e-08
5.52377
9.63892e-08
5.52375
9.68448e-08
5.52373
9.72777e-08
5.52372
9.77252e-08
5.5237
9.81481e-08
5.52369
9.85456e-08
5.52368
9.8943e-08
5.52367
9.93168e-08
5.52366
9.96561e-08
5.52365
9.9988e-08
5.52364
1.00306e-07
5.52363
1.00601e-07
5.52362
1.00876e-07
5.52362
1.01173e-07
5.52361
1.01434e-07
5.5236
1.01683e-07
5.5236
1.0192e-07
5.5236
1.02185e-07
5.52359
1.02387e-07
5.52359
1.02616e-07
5.52359
1.02837e-07
5.52359
1.0307e-07
5.52359
1.03375e-07
5.52359
1.03003e-07
5.52359
1.03993e-07
5.52359
1.03882e-07
5.52359
1.04019e-07
5.52359
1.04184e-07
5.5236
1.04344e-07
5.5236
1.04504e-07
5.5236
1.04655e-07
5.52361
1.04801e-07
5.52361
1.04941e-07
5.52361
1.05076e-07
5.52362
1.05202e-07
5.52362
1.05328e-07
5.52363
1.05443e-07
5.52364
1.05555e-07
5.52364
1.05663e-07
5.52365
1.05766e-07
5.52366
1.05861e-07
5.52366
1.05958e-07
5.52367
1.06049e-07
5.52368
1.06138e-07
5.52369
1.06222e-07
5.5237
1.06304e-07
5.5237
1.06382e-07
5.52371
1.06458e-07
5.52372
1.06529e-07
5.52373
1.06602e-07
5.52374
1.06672e-07
5.52375
1.0674e-07
5.52376
1.06803e-07
5.52377
1.06865e-07
5.52379
1.06924e-07
5.5238
1.06986e-07
5.52381
1.07038e-07
5.52382
1.07098e-07
5.52383
1.07153e-07
5.52385
1.07209e-07
5.52386
1.07264e-07
5.52387
1.07314e-07
5.52389
1.07364e-07
5.5239
1.07417e-07
5.52391
1.07466e-07
5.52393
1.07516e-07
5.52394
1.07569e-07
5.52396
1.07611e-07
5.52397
1.07669e-07
5.52399
1.07714e-07
5.524
1.07769e-07
5.52402
1.07818e-07
5.52403
1.07869e-07
5.52405
1.07929e-07
5.52407
1.07976e-07
5.52408
1.08039e-07
5.5241
1.08088e-07
5.52412
1.08154e-07
5.52414
1.08213e-07
5.52415
1.08271e-07
5.52417
1.08352e-07
5.52419
1.08405e-07
5.52421
1.08488e-07
5.52423
1.0857e-07
5.52425
1.08632e-07
5.52427
1.08739e-07
5.52429
1.08808e-07
5.52431
1.08903e-07
5.52433
1.09016e-07
5.52435
1.09104e-07
5.52438
1.09217e-07
5.5244
1.09345e-07
5.52442
1.0946e-07
5.52444
1.09619e-07
5.52447
1.09855e-07
5.52449
1.10089e-07
5.52452
1.10683e-07
5.52454
1.11752e-07
5.52457
1.14044e-07
5.5246
1.19618e-07
5.52462
1.32354e-07
5.52465
1.62993e-07
5.52468
2.37303e-07
5.52471
4.28809e-07
5.52474
7.97995e-07
5.52477
1.81576e-06
5.5248
4.13172e-06
5.52483
9.76786e-06
5.52485
2.32124e-05
5.52485
5.53523e-05
5.52481
0.000132223
5.52466
0.000315866
5.52426
0.000754119
5.52325
0.00179947
5.52078
0.0042878
5.51486
0.0101976
5.50076
0.0241864
5.46732
0.0572467
5.38767
0.136269
5.19029
0.338508
0.872891
4.69817
7.813
0.000176101
7.81306
0.000158678
7.81313
0.000138957
7.81319
0.000141454
7.81326
0.000143201
7.81331
0.000143082
7.81337
0.000142942
7.81343
0.000142972
7.8135
0.000143005
7.81356
0.000143019
7.81364
0.000143037
7.81372
0.000143064
7.8138
0.000143074
7.81388
0.000143093
7.81396
0.000143112
7.81404
0.000143128
7.81412
0.000143142
7.8142
0.000143154
7.81427
0.000143163
7.81435
0.000143167
7.81443
0.000143183
7.8145
0.000143188
7.81458
0.000143193
7.81466
0.000143192
7.81474
0.000143188
7.81482
0.000143182
7.8149
0.000143202
7.81497
0.000143198
7.81505
0.000143198
7.81513
0.0001432
7.81522
0.000143202
7.81531
0.000143198
7.81541
0.000143212
7.81551
0.000143257
7.81562
0.000143196
7.81572
0.000143227
7.81583
0.00014324
7.81593
0.000143246
7.81604
0.000143259
7.81614
0.00014327
7.81625
0.000143277
7.81637
0.000143285
7.81648
0.000143285
7.81661
0.000143307
7.81673
0.000143344
7.81687
0.000143315
7.81701
0.000143333
7.81715
0.000143351
7.81729
0.00014336
7.81744
0.000143371
7.81758
0.000143381
7.81773
0.000143391
7.81788
0.0001434
7.81804
0.000143408
7.8182
0.000143415
7.81836
0.000143429
7.81852
0.000143424
7.81869
0.000143382
7.81885
0.000143466
7.81902
0.000143429
7.81919
0.000143416
7.81937
0.000143398
7.81955
0.00014337
7.81974
0.000143326
7.81994
0.000143255
7.82015
0.00014317
7.82036
0.000143062
7.82058
0.000142891
7.8208
0.000142653
7.82103
0.000142356
7.82126
0.000141963
7.82149
0.000141458
7.82172
0.000140819
7.82196
0.000140019
7.82221
0.000139036
7.82245
0.000137832
7.8227
0.000136399
7.82295
0.000134685
7.82321
0.000132679
7.82347
0.000130356
7.82373
0.000127696
7.824
0.000124687
7.82427
0.00012132
7.82454
0.000117595
7.82481
0.000113521
7.82509
0.000109114
7.82537
0.000104397
7.82565
9.93989e-05
7.82594
9.4165e-05
7.82622
8.87375e-05
7.82651
8.31666e-05
7.8268
7.75067e-05
7.82709
7.18136e-05
7.82738
6.61437e-05
7.82767
6.05518e-05
7.82797
5.509e-05
7.82826
4.98058e-05
7.82855
4.47416e-05
7.82885
3.99333e-05
7.82914
3.54099e-05
7.82943
3.11931e-05
7.82973
2.72974e-05
7.83002
2.37304e-05
7.83031
2.04929e-05
7.8306
1.75801e-05
7.83088
1.4982e-05
7.83117
1.26841e-05
7.83145
1.06691e-05
7.83173
8.91658e-06
7.83201
7.4051e-06
7.83228
6.11204e-06
7.83255
5.01475e-06
7.83281
4.09107e-06
7.83308
3.31961e-06
7.83333
2.68025e-06
7.83359
2.15452e-06
7.83384
1.72552e-06
7.83408
1.37791e-06
7.83432
1.09844e-06
7.83455
8.75388e-07
7.83477
6.98464e-07
7.83499
5.59148e-07
7.8352
4.50207e-07
7.83541
3.65448e-07
7.8356
2.99825e-07
7.83579
2.49397e-07
7.83598
2.10762e-07
7.83615
1.81051e-07
7.83631
1.58473e-07
7.83647
1.41275e-07
7.83662
1.27868e-07
7.83676
1.17583e-07
7.83689
1.09623e-07
7.83701
1.03174e-07
7.83712
9.78898e-08
7.83722
9.36425e-08
7.83731
9.00095e-08
7.83739
8.65489e-08
7.83746
8.37176e-08
7.83751
8.1126e-08
7.83756
7.83298e-08
7.8376
7.59301e-08
7.83763
7.36782e-08
7.83764
7.13144e-08
7.83765
6.89138e-08
7.83765
6.64131e-08
7.83763
6.40762e-08
7.8376
6.21067e-08
7.83756
5.98989e-08
7.83751
5.77006e-08
7.83745
5.5526e-08
7.83738
5.33769e-08
7.8373
5.125e-08
7.83721
4.91441e-08
7.83711
4.707e-08
7.837
4.50309e-08
7.83687
4.30246e-08
7.83674
4.10546e-08
7.8366
3.91219e-08
7.83644
3.72343e-08
7.83628
3.53907e-08
7.83611
3.35931e-08
7.83593
3.18455e-08
7.83574
3.01466e-08
7.83554
2.85054e-08
7.83533
2.69151e-08
7.83511
2.5379e-08
7.83489
2.39038e-08
7.83465
2.24918e-08
7.83441
2.11412e-08
7.83417
1.98543e-08
7.83391
1.86305e-08
7.83365
1.74718e-08
7.83338
1.63764e-08
7.83311
1.53505e-08
7.83283
1.43841e-08
7.83254
1.34874e-08
7.83225
1.26583e-08
7.83196
1.19035e-08
7.83166
1.12259e-08
7.83135
1.0632e-08
7.83104
1.01181e-08
7.83073
9.68703e-09
7.83041
9.32869e-09
7.8301
9.0381e-09
7.82978
8.80254e-09
7.82945
8.61291e-09
7.82913
8.47058e-09
7.8288
8.37645e-09
7.82847
8.33688e-09
7.82814
8.35917e-09
7.82781
8.45102e-09
7.82748
8.61655e-09
7.82714
8.85348e-09
7.82681
9.1627e-09
7.82648
9.54014e-09
7.82615
9.9858e-09
7.82582
1.04892e-08
7.82549
1.10481e-08
7.82516
1.16552e-08
7.82484
1.23082e-08
7.82451
1.30035e-08
7.82419
1.3742e-08
7.82387
1.45224e-08
7.82355
1.53423e-08
7.82324
1.61999e-08
7.82293
1.70944e-08
7.82262
1.80244e-08
7.82231
1.89893e-08
7.82201
1.99871e-08
7.82171
2.10166e-08
7.82142
2.20757e-08
7.82113
2.31576e-08
7.82084
2.42653e-08
7.82056
2.53881e-08
7.82028
2.65413e-08
7.82001
2.77059e-08
7.81974
2.88915e-08
7.81947
3.00915e-08
7.81921
3.13034e-08
7.81896
3.25276e-08
7.81871
3.37586e-08
7.81846
3.50028e-08
7.81822
3.62515e-08
7.81799
3.75016e-08
7.81776
3.87558e-08
7.81753
4.00059e-08
7.81731
4.12651e-08
7.8171
4.2523e-08
7.81689
4.3774e-08
7.81668
4.50245e-08
7.81648
4.62655e-08
7.81629
4.75002e-08
7.8161
4.87275e-08
7.81591
4.99463e-08
7.81573
5.11563e-08
7.81556
5.23528e-08
7.81539
5.35379e-08
7.81522
5.47043e-08
7.81506
5.58566e-08
7.81491
5.69985e-08
7.81476
5.81235e-08
7.81461
5.92322e-08
7.81447
6.03236e-08
7.81433
6.13963e-08
7.8142
6.24568e-08
7.81407
6.34909e-08
7.81395
6.451e-08
7.81383
6.55082e-08
7.81372
6.64895e-08
7.81361
6.74472e-08
7.8135
6.83895e-08
7.8134
6.93121e-08
7.8133
7.02084e-08
7.8132
7.10857e-08
7.81311
7.19428e-08
7.81302
7.27796e-08
7.81294
7.35963e-08
7.81286
7.43944e-08
7.81278
7.5167e-08
7.81271
7.59223e-08
7.81263
7.66549e-08
7.81257
7.73707e-08
7.8125
7.80606e-08
7.81244
7.87395e-08
7.81238
7.93975e-08
7.81232
8.00355e-08
7.81227
8.06572e-08
7.81222
8.12543e-08
7.81217
8.18332e-08
7.81213
8.24048e-08
7.81208
8.29382e-08
7.81204
8.34552e-08
7.812
8.39505e-08
7.81196
8.44161e-08
7.81193
8.4869e-08
7.8119
8.53092e-08
7.81187
8.57449e-08
7.81184
8.6161e-08
7.81181
8.65807e-08
7.81178
8.69923e-08
7.81176
8.73824e-08
7.81174
8.77803e-08
7.81172
8.81632e-08
7.8117
8.85198e-08
7.81168
8.88763e-08
7.81166
8.9211e-08
7.81165
8.95166e-08
7.81164
8.98126e-08
7.81162
9.00977e-08
7.81161
9.03692e-08
7.8116
9.06134e-08
7.81159
9.08758e-08
7.81158
9.11164e-08
7.81158
9.1336e-08
7.81157
9.15493e-08
7.81157
9.17908e-08
7.81156
9.19622e-08
7.81156
9.21718e-08
7.81156
9.23778e-08
7.81156
9.26075e-08
7.81156
9.2848e-08
7.81155
9.23856e-08
7.81156
9.3507e-08
7.81156
9.33369e-08
7.81156
9.34406e-08
7.81156
9.35843e-08
7.81157
9.3728e-08
7.81157
9.38699e-08
7.81157
9.40054e-08
7.81158
9.41363e-08
7.81158
9.42632e-08
7.81159
9.43828e-08
7.8116
9.44992e-08
7.81161
9.46106e-08
7.81161
9.47148e-08
7.81162
9.48153e-08
7.81163
9.49149e-08
7.81164
9.50045e-08
7.81165
9.50909e-08
7.81166
9.51773e-08
7.81167
9.52587e-08
7.81168
9.53396e-08
7.81169
9.54146e-08
7.81171
9.54874e-08
7.81172
9.55592e-08
7.81173
9.5627e-08
7.81174
9.56893e-08
7.81176
9.57548e-08
7.81177
9.58185e-08
7.81179
9.58789e-08
7.8118
9.59367e-08
7.81182
9.59922e-08
7.81183
9.60445e-08
7.81185
9.61008e-08
7.81187
9.61472e-08
7.81188
9.61995e-08
7.8119
9.62509e-08
7.81192
9.63009e-08
7.81194
9.635e-08
7.81196
9.63937e-08
7.81197
9.64392e-08
7.81199
9.64874e-08
7.81201
9.65315e-08
7.81203
9.65742e-08
7.81205
9.6627e-08
7.81207
9.66597e-08
7.8121
9.67152e-08
7.81212
9.67534e-08
7.81214
9.68016e-08
7.81216
9.68512e-08
7.81218
9.6888e-08
7.81221
9.69512e-08
7.81223
9.69876e-08
7.81225
9.70485e-08
7.81228
9.70849e-08
7.8123
9.71495e-08
7.81233
9.72054e-08
7.81235
9.72486e-08
7.81238
9.73341e-08
7.81241
9.73714e-08
7.81243
9.74519e-08
7.81246
9.75297e-08
7.81249
9.75656e-08
7.81252
9.76834e-08
7.81255
9.77375e-08
7.81258
9.78184e-08
7.81261
9.79317e-08
7.81264
9.79953e-08
7.81267
9.81076e-08
7.8127
9.82354e-08
7.81273
9.83359e-08
7.81276
9.85033e-08
7.8128
9.88084e-08
7.81283
9.91072e-08
7.81287
1.00034e-07
7.81291
1.01841e-07
7.81294
1.05825e-07
7.81298
1.15729e-07
7.81302
1.38582e-07
7.81306
1.93717e-07
7.8131
3.27489e-07
7.81314
6.70537e-07
7.81318
1.34297e-06
7.81323
3.17537e-06
7.81327
7.36577e-06
7.81331
1.7544e-05
7.81334
4.18307e-05
7.81334
9.98916e-05
7.81329
0.000238762
7.81309
0.000570521
7.81253
0.00136231
7.81114
0.00325103
7.80773
0.00774733
7.79956
0.0184275
7.7801
0.0437136
7.73394
0.103472
7.62425
0.246018
7.3562
0.606629
1.50223
6.72693
34.4882
7.15674e-05
34.4885
8.15893e-05
34.4888
6.95235e-05
34.4891
6.97768e-05
34.4893
7.1561e-05
34.4896
7.1801e-05
34.4898
7.16254e-05
34.4901
7.15955e-05
34.4904
7.16083e-05
34.4907
7.16045e-05
34.491
7.15968e-05
34.4914
7.15924e-05
34.4917
7.15935e-05
34.4921
7.15936e-05
34.4925
7.15961e-05
34.4928
7.15987e-05
34.4931
7.16013e-05
34.4935
7.16038e-05
34.4938
7.16057e-05
34.4942
7.16085e-05
34.4945
7.16051e-05
34.4948
7.16104e-05
34.4952
7.16088e-05
34.4955
7.16084e-05
34.4959
7.16059e-05
34.4962
7.15981e-05
34.4966
7.16142e-05
34.4969
7.16077e-05
34.4973
7.16058e-05
34.4976
7.16057e-05
34.498
7.16061e-05
34.4984
7.16059e-05
34.4988
7.16116e-05
34.4993
7.16227e-05
34.4998
7.16072e-05
34.5002
7.16148e-05
34.5007
7.16221e-05
34.5012
7.16281e-05
34.5016
7.16302e-05
34.5021
7.16345e-05
34.5026
7.16397e-05
34.5031
7.16436e-05
34.5036
7.16467e-05
34.5041
7.16553e-05
34.5047
7.16653e-05
34.5053
7.16631e-05
34.5059
7.16666e-05
34.5065
7.16757e-05
34.5071
7.16807e-05
34.5078
7.16857e-05
34.5084
7.16909e-05
34.5091
7.16955e-05
34.5097
7.17002e-05
34.5104
7.17043e-05
34.5111
7.17084e-05
34.5119
7.17182e-05
34.5126
7.17062e-05
34.5133
7.16836e-05
34.514
7.17406e-05
34.5148
7.17186e-05
34.5155
7.17104e-05
34.5163
7.17021e-05
34.5171
7.1689e-05
34.518
7.16686e-05
34.5188
7.16374e-05
34.5198
7.15995e-05
34.5207
7.15437e-05
34.5216
7.14645e-05
34.5226
7.13521e-05
34.5236
7.12126e-05
34.5246
7.10257e-05
34.5257
7.07849e-05
34.5267
7.04796e-05
34.5278
7.00965e-05
34.5288
6.96283e-05
34.5299
6.9037e-05
34.531
6.83532e-05
34.5321
6.75227e-05
34.5333
6.65486e-05
34.5344
6.54186e-05
34.5356
6.41218e-05
34.5368
6.26512e-05
34.5379
6.10023e-05
34.5391
5.91745e-05
34.5404
5.71707e-05
34.5416
5.49983e-05
34.5428
5.26686e-05
34.5441
5.01954e-05
34.5453
4.75996e-05
34.5466
4.49026e-05
34.5479
4.21289e-05
34.5491
3.93053e-05
34.5504
3.64597e-05
34.5517
3.36202e-05
34.553
3.08145e-05
34.5543
2.80689e-05
34.5556
2.54077e-05
34.5569
2.28526e-05
34.5582
2.04222e-05
34.5595
1.81317e-05
34.5608
1.59927e-05
34.5621
1.40132e-05
34.5634
1.21975e-05
34.5646
1.05468e-05
34.5659
9.05913e-06
34.5672
7.72993e-06
34.5684
6.55244e-06
34.5697
5.51823e-06
34.5709
4.6173e-06
34.5721
3.83906e-06
34.5733
3.17226e-06
34.5745
2.60554e-06
34.5757
2.12777e-06
34.5769
1.72815e-06
34.578
1.39648e-06
34.5791
1.12335e-06
34.5802
9.00169e-07
34.5813
7.19106e-07
34.5823
5.73306e-07
34.5834
4.56798e-07
34.5844
3.64288e-07
34.5853
2.91336e-07
34.5863
2.34219e-07
34.5872
1.89746e-07
34.588
1.55287e-07
34.5889
1.28764e-07
34.5897
1.08436e-07
34.5904
9.28314e-08
34.5912
8.09298e-08
34.5919
7.18701e-08
34.5925
6.48593e-08
34.5931
5.94484e-08
34.5937
5.52684e-08
34.5942
5.19217e-08
34.5947
4.91855e-08
34.5951
4.69731e-08
34.5955
4.50977e-08
34.5959
4.33708e-08
34.5962
4.19006e-08
34.5965
4.05687e-08
34.5967
3.92104e-08
34.5968
3.79848e-08
34.597
3.68375e-08
34.597
3.5664e-08
34.5971
3.44414e-08
34.597
3.32111e-08
34.597
3.20674e-08
34.5968
3.10392e-08
34.5967
2.99472e-08
34.5965
2.88505e-08
34.5962
2.77637e-08
34.5959
2.66884e-08
34.5955
2.56246e-08
34.5951
2.4572e-08
34.5947
2.35352e-08
34.5942
2.25157e-08
34.5936
2.15125e-08
34.593
2.05273e-08
34.5924
1.95616e-08
34.5917
1.86174e-08
34.591
1.76958e-08
34.5903
1.67972e-08
34.5895
1.59223e-08
34.5886
1.50733e-08
34.5877
1.42529e-08
34.5868
1.34573e-08
34.5859
1.26895e-08
34.5849
1.19524e-08
34.5838
1.12464e-08
34.5828
1.05704e-08
34.5817
9.92713e-09
34.5806
9.31482e-09
34.5794
8.73592e-09
34.5782
8.18864e-09
34.577
7.67614e-09
34.5758
7.1941e-09
34.5745
6.74436e-09
34.5732
6.32963e-09
34.5719
5.95128e-09
34.5706
5.61272e-09
34.5693
5.31395e-09
34.5679
5.05747e-09
34.5665
4.84192e-09
34.5651
4.66457e-09
34.5637
4.5211e-09
34.5623
4.40423e-09
34.5609
4.30987e-09
34.5594
4.23734e-09
34.558
4.18959e-09
34.5565
4.1673e-09
34.5551
4.17754e-09
34.5536
4.22278e-09
34.5522
4.30464e-09
34.5507
4.42355e-09
34.5492
4.5784e-09
34.5478
4.76666e-09
34.5463
4.98994e-09
34.5448
5.24187e-09
34.5434
5.52063e-09
34.5419
5.82463e-09
34.5405
6.15114e-09
34.5391
6.49925e-09
34.5376
6.86896e-09
34.5362
7.2605e-09
34.5348
7.67e-09
34.5334
8.09837e-09
34.5321
8.54584e-09
34.5307
9.01127e-09
34.5294
9.49376e-09
34.528
9.99262e-09
34.5267
1.05081e-08
34.5254
1.10374e-08
34.5241
1.15792e-08
34.5229
1.21322e-08
34.5216
1.26954e-08
34.5204
1.32711e-08
34.5192
1.38539e-08
34.518
1.44457e-08
34.5168
1.50455e-08
34.5157
1.56515e-08
34.5146
1.62631e-08
34.5135
1.68802e-08
34.5124
1.75019e-08
34.5113
1.81258e-08
34.5103
1.87513e-08
34.5093
1.93786e-08
34.5083
2.00039e-08
34.5073
2.06339e-08
34.5063
2.1261e-08
34.5054
2.18874e-08
34.5045
2.25129e-08
34.5036
2.31339e-08
34.5028
2.37517e-08
34.5019
2.43651e-08
34.5011
2.49745e-08
34.5003
2.55793e-08
34.4995
2.61764e-08
34.4988
2.67687e-08
34.4981
2.73526e-08
34.4974
2.79292e-08
34.4967
2.84995e-08
34.496
2.90624e-08
34.4954
2.96168e-08
34.4947
3.01625e-08
34.4941
3.06991e-08
34.4936
3.1228e-08
34.493
3.1747e-08
34.4924
3.22566e-08
34.4919
3.27552e-08
34.4914
3.32459e-08
34.4909
3.37241e-08
34.4905
3.41936e-08
34.49
3.46556e-08
34.4896
3.5104e-08
34.4891
3.55421e-08
34.4887
3.59698e-08
34.4884
3.63891e-08
34.488
3.6797e-08
34.4876
3.71952e-08
34.4873
3.75819e-08
34.487
3.79607e-08
34.4866
3.83266e-08
34.4863
3.86851e-08
34.4861
3.90312e-08
34.4858
3.93709e-08
34.4855
3.97001e-08
34.4853
4.00187e-08
34.485
4.03288e-08
34.4848
4.06283e-08
34.4846
4.09186e-08
34.4844
4.12028e-08
34.4842
4.14686e-08
34.484
4.17301e-08
34.4838
4.19761e-08
34.4837
4.2209e-08