/*--------------------------------*- C++ -*----------------------------------*\
| =========                 |                                                 |
| \\      /  F ield         | OpenFOAM: The Open Source CFD Toolbox           |
|  \\    /   O peration     | Version:  3.0.x                                 |
|   \\  /    A nd           | Web:      www.OpenFOAM.org                      |
|    \\/     M anipulation  |                                                 |
\*---------------------------------------------------------------------------*/
FoamFile
{
    version     2.0;
    format      ascii;
    class       volVectorField;
    location    "0.27";
    object      U;
}
// * * * * * * * * * * * * * * * * * * * * * * * * * * * * * * * * * * * * * //

dimensions      [0 1 -1 0 0 0 0];

internalField   nonuniform List<vector> 
27600
(
(42.6982 0.000129707 0)
(42.6967 0.000119178 0)
(42.6952 0.000117653 0)
(42.6936 0.000120432 0)
(42.6921 0.000122848 0)
(42.6905 0.000124713 0)
(42.6889 0.000126296 0)
(42.6873 0.00012765 0)
(42.6857 0.000128801 0)
(42.6842 0.000129781 0)
(42.6826 0.000130627 0)
(42.681 0.000131369 0)
(42.6794 0.000131993 0)
(42.6779 0.000132545 0)
(42.6763 0.000133026 0)
(42.6748 0.000133445 0)
(42.6732 0.000133812 0)
(42.6717 0.000134132 0)
(42.6701 0.000134412 0)
(42.6686 0.00013465 0)
(42.667 0.000134879 0)
(42.6655 0.000135063 0)
(42.664 0.000135232 0)
(42.6624 0.000135372 0)
(42.6609 0.000135493 0)
(42.6594 0.000135604 0)
(42.6579 0.000135703 0)
(42.6564 0.00013579 0)
(42.6549 0.000135865 0)
(42.6534 0.000135932 0)
(42.652 0.00013599 0)
(42.6505 0.000136035 0)
(42.649 0.000136086 0)
(42.6476 0.000136158 0)
(42.6462 0.000136149 0)
(42.6447 0.000136198 0)
(42.6433 0.000136228 0)
(42.6419 0.000136249 0)
(42.6405 0.000136279 0)
(42.6392 0.000136302 0)
(42.6378 0.000136315 0)
(42.6364 0.00013633 0)
(42.6351 0.000136335 0)
(42.6338 0.000136354 0)
(42.6325 0.000136387 0)
(42.6312 0.000136368 0)
(42.6299 0.000136379 0)
(42.6286 0.000136388 0)
(42.6274 0.000136393 0)
(42.6262 0.000136396 0)
(42.625 0.000136399 0)
(42.6238 0.0001364 0)
(42.6226 0.0001364 0)
(42.6214 0.000136399 0)
(42.6203 0.000136395 0)
(42.6192 0.00013639 0)
(42.6181 0.000136389 0)
(42.617 0.000136363 0)
(42.6159 0.000136369 0)
(42.6149 0.000136347 0)
(42.6139 0.000136326 0)
(42.6129 0.000136297 0)
(42.6119 0.000136258 0)
(42.6109 0.000136206 0)
(42.61 0.000136129 0)
(42.6091 0.000136031 0)
(42.6082 0.00013592 0)
(42.6073 0.000135751 0)
(42.6065 0.000135515 0)
(42.6057 0.000135223 0)
(42.6049 0.000134846 0)
(42.6042 0.000134365 0)
(42.6034 0.000133758 0)
(42.6027 0.000133003 0)
(42.6021 0.00013207 0)
(42.6015 0.000130954 0)
(42.6009 0.000129595 0)
(42.6003 0.00012799 0)
(42.5998 0.000126109 0)
(42.5994 0.000123931 0)
(42.599 0.000121436 0)
(42.5986 0.000118613 0)
(42.5983 0.000115453 0)
(42.5981 0.000111955 0)
(42.5979 0.000108126 0)
(42.5978 0.00010398 0)
(42.5978 9.95395e-05 0)
(42.5979 9.48299e-05 0)
(42.598 8.98921e-05 0)
(42.5983 8.47659e-05 0)
(42.5986 7.94984e-05 0)
(42.599 7.41403e-05 0)
(42.5995 6.87445e-05 0)
(42.6 6.3364e-05 0)
(42.6007 5.8051e-05 0)
(42.6014 5.2855e-05 0)
(42.6022 4.78218e-05 0)
(42.6031 4.29921e-05 0)
(42.604 3.84008e-05 0)
(42.605 3.40761e-05 0)
(42.6061 3.00398e-05 0)
(42.6072 2.63063e-05 0)
(42.6083 2.28838e-05 0)
(42.6095 1.97739e-05 0)
(42.6108 1.69728e-05 0)
(42.612 1.44714e-05 0)
(42.6133 1.22568e-05 0)
(42.6146 1.03127e-05 0)
(42.6159 8.62029e-06 0)
(42.6173 7.15912e-06 0)
(42.6186 5.90792e-06 0)
(42.6199 4.84518e-06 0)
(42.6212 3.94977e-06 0)
(42.6225 3.20133e-06 0)
(42.6238 2.58057e-06 0)
(42.6251 2.06972e-06 0)
(42.6264 1.65258e-06 0)
(42.6276 1.31441e-06 0)
(42.6288 1.04237e-06 0)
(42.63 8.25138e-07 0)
(42.6312 6.52828e-07 0)
(42.6323 5.17138e-07 0)
(42.6334 4.1105e-07 0)
(42.6345 3.28583e-07 0)
(42.6355 2.6482e-07 0)
(42.6365 2.15887e-07 0)
(42.6375 1.78487e-07 0)
(42.6384 1.49837e-07 0)
(42.6393 1.28129e-07 0)
(42.6401 1.11661e-07 0)
(42.6409 9.89279e-08 0)
(42.6416 8.92286e-08 0)
(42.6423 8.17769e-08 0)
(42.6429 7.58353e-08 0)
(42.6435 7.10421e-08 0)
(42.6441 6.72435e-08 0)
(42.6446 6.40773e-08 0)
(42.645 6.11423e-08 0)
(42.6454 5.87746e-08 0)
(42.6457 5.66863e-08 0)
(42.646 5.44781e-08 0)
(42.6462 5.26088e-08 0)
(42.6464 5.08766e-08 0)
(42.6465 4.90912e-08 0)
(42.6466 4.73671e-08 0)
(42.6466 4.55827e-08 0)
(42.6465 4.39004e-08 0)
(42.6464 4.24763e-08 0)
(42.6462 4.09038e-08 0)
(42.646 3.9361e-08 0)
(42.6457 3.78522e-08 0)
(42.6454 3.63759e-08 0)
(42.645 3.49233e-08 0)
(42.6446 3.35101e-08 0)
(42.6441 3.21256e-08 0)
(42.6435 3.07779e-08 0)
(42.6429 2.94643e-08 0)
(42.6423 2.81885e-08 0)
(42.6416 2.69535e-08 0)
(42.6408 2.57542e-08 0)
(42.64 2.46088e-08 0)
(42.6391 2.35017e-08 0)
(42.6382 2.24429e-08 0)
(42.6373 2.14289e-08 0)
(42.6363 2.04658e-08 0)
(42.6352 1.95525e-08 0)
(42.6341 1.8691e-08 0)
(42.633 1.78868e-08 0)
(42.6318 1.71375e-08 0)
(42.6306 1.64401e-08 0)
(42.6294 1.58063e-08 0)
(42.6281 1.52235e-08 0)
(42.6268 1.46982e-08 0)
(42.6254 1.42312e-08 0)
(42.624 1.38097e-08 0)
(42.6226 1.34334e-08 0)
(42.6212 1.31049e-08 0)
(42.6197 1.28153e-08 0)
(42.6182 1.25735e-08 0)
(42.6167 1.23848e-08 0)
(42.6151 1.22604e-08 0)
(42.6135 1.22014e-08 0)
(42.6119 1.22158e-08 0)
(42.6103 1.22891e-08 0)
(42.6087 1.24129e-08 0)
(42.6071 1.25821e-08 0)
(42.6054 1.27807e-08 0)
(42.6038 1.30067e-08 0)
(42.6021 1.32678e-08 0)
(42.6004 1.35767e-08 0)
(42.5987 1.39345e-08 0)
(42.597 1.43573e-08 0)
(42.5953 1.48461e-08 0)
(42.5936 1.54044e-08 0)
(42.5919 1.60242e-08 0)
(42.5902 1.67111e-08 0)
(42.5885 1.74558e-08 0)
(42.5868 1.82462e-08 0)
(42.5851 1.90795e-08 0)
(42.5834 1.99504e-08 0)
(42.5818 2.0852e-08 0)
(42.5801 2.17866e-08 0)
(42.5784 2.27486e-08 0)
(42.5768 2.37343e-08 0)
(42.5752 2.47468e-08 0)
(42.5735 2.57806e-08 0)
(42.5719 2.68369e-08 0)
(42.5703 2.79029e-08 0)
(42.5688 2.89965e-08 0)
(42.5672 3.01039e-08 0)
(42.5657 3.1221e-08 0)
(42.5642 3.2357e-08 0)
(42.5627 3.34991e-08 0)
(42.5612 3.46458e-08 0)
(42.5597 3.58004e-08 0)
(42.5583 3.69645e-08 0)
(42.5569 3.81266e-08 0)
(42.5555 3.92907e-08 0)
(42.5541 4.04403e-08 0)
(42.5528 4.16086e-08 0)
(42.5515 4.2767e-08 0)
(42.5502 4.39246e-08 0)
(42.5489 4.50752e-08 0)
(42.5476 4.62182e-08 0)
(42.5464 4.73559e-08 0)
(42.5452 4.84846e-08 0)
(42.5441 4.96027e-08 0)
(42.5429 5.07128e-08 0)
(42.5418 5.18097e-08 0)
(42.5407 5.28987e-08 0)
(42.5396 5.397e-08 0)
(42.5386 5.50292e-08 0)
(42.5376 5.60775e-08 0)
(42.5366 5.71051e-08 0)
(42.5357 5.81216e-08 0)
(42.5347 5.91231e-08 0)
(42.5338 6.01087e-08 0)
(42.5329 6.10691e-08 0)
(42.5321 6.20182e-08 0)
(42.5312 6.29466e-08 0)
(42.5304 6.38646e-08 0)
(42.5296 6.47549e-08 0)
(42.5289 6.5633e-08 0)
(42.5282 6.64878e-08 0)
(42.5274 6.73287e-08 0)
(42.5268 6.81518e-08 0)
(42.5261 6.89552e-08 0)
(42.5254 6.97401e-08 0)
(42.5248 7.05057e-08 0)
(42.5242 7.12498e-08 0)
(42.5236 7.19791e-08 0)
(42.5231 7.26832e-08 0)
(42.5225 7.33731e-08 0)
(42.522 7.40477e-08 0)
(42.5215 7.47039e-08 0)
(42.5211 7.53403e-08 0)
(42.5206 7.59635e-08 0)
(42.5202 7.65674e-08 0)
(42.5197 7.71599e-08 0)
(42.5193 7.77337e-08 0)
(42.5189 7.82916e-08 0)
(42.5186 7.88378e-08 0)
(42.5182 7.93722e-08 0)
(42.5179 7.98862e-08 0)
(42.5175 8.03882e-08 0)
(42.5172 8.087e-08 0)
(42.5169 8.13422e-08 0)
(42.5167 8.18043e-08 0)
(42.5164 8.22444e-08 0)
(42.5161 8.26694e-08 0)
(42.5159 8.30816e-08 0)
(42.5157 8.34686e-08 0)
(42.5155 8.38398e-08 0)
(42.5152 8.42011e-08 0)
(42.5151 8.45341e-08 0)
(42.5149 8.48529e-08 0)
(42.5147 8.51631e-08 0)
(42.5145 8.54625e-08 0)
(42.5144 8.57578e-08 0)
(42.5142 8.60518e-08 0)
(42.5141 8.63434e-08 0)
(42.514 8.66314e-08 0)
(42.5139 8.69213e-08 0)
(42.5137 8.71967e-08 0)
(42.5136 8.74564e-08 0)
(42.5136 8.77079e-08 0)
(42.5135 8.79464e-08 0)
(42.5134 8.81636e-08 0)
(42.5133 8.83758e-08 0)
(42.5132 8.85771e-08 0)
(42.5132 8.87656e-08 0)
(42.5131 8.89409e-08 0)
(42.5131 8.91233e-08 0)
(42.513 8.92931e-08 0)
(42.513 8.9449e-08 0)
(42.513 8.96138e-08 0)
(42.5129 8.97852e-08 0)
(42.5129 8.99067e-08 0)
(42.5129 9.00726e-08 0)
(42.5129 9.02414e-08 0)
(42.5129 9.03696e-08 0)
(42.5129 9.05683e-08 0)
(42.5129 9.04762e-08 0)
(42.5129 9.09055e-08 0)
(42.5129 9.09268e-08 0)
(42.5129 9.10393e-08 0)
(42.5129 9.11636e-08 0)
(42.5129 9.12835e-08 0)
(42.5129 9.13987e-08 0)
(42.513 9.15121e-08 0)
(42.513 9.16187e-08 0)
(42.513 9.17252e-08 0)
(42.513 9.18322e-08 0)
(42.5131 9.193e-08 0)
(42.5131 9.20309e-08 0)
(42.5131 9.21226e-08 0)
(42.5132 9.22151e-08 0)
(42.5132 9.2305e-08 0)
(42.5133 9.23957e-08 0)
(42.5133 9.24768e-08 0)
(42.5134 9.25629e-08 0)
(42.5134 9.26499e-08 0)
(42.5135 9.273e-08 0)
(42.5136 9.28092e-08 0)
(42.5136 9.28863e-08 0)
(42.5137 9.29611e-08 0)
(42.5137 9.30403e-08 0)
(42.5138 9.31156e-08 0)
(42.5139 9.31867e-08 0)
(42.5139 9.32615e-08 0)
(42.514 9.33319e-08 0)
(42.5141 9.34008e-08 0)
(42.5142 9.34705e-08 0)
(42.5143 9.35342e-08 0)
(42.5143 9.36044e-08 0)
(42.5144 9.36725e-08 0)
(42.5145 9.37414e-08 0)
(42.5146 9.38084e-08 0)
(42.5147 9.3874e-08 0)
(42.5148 9.39432e-08 0)
(42.5149 9.40048e-08 0)
(42.515 9.40728e-08 0)
(42.5151 9.41371e-08 0)
(42.5152 9.41995e-08 0)
(42.5153 9.42613e-08 0)
(42.5154 9.4328e-08 0)
(42.5155 9.43911e-08 0)
(42.5156 9.44559e-08 0)
(42.5157 9.45191e-08 0)
(42.5158 9.45878e-08 0)
(42.5159 9.46498e-08 0)
(42.516 9.47204e-08 0)
(42.5162 9.47957e-08 0)
(42.5163 9.4865e-08 0)
(42.5164 9.49429e-08 0)
(42.5165 9.50166e-08 0)
(42.5166 9.50918e-08 0)
(42.5168 9.51701e-08 0)
(42.5169 9.52492e-08 0)
(42.517 9.53327e-08 0)
(42.5172 9.54168e-08 0)
(42.5173 9.55073e-08 0)
(42.5174 9.55972e-08 0)
(42.5176 9.5688e-08 0)
(42.5177 9.57939e-08 0)
(42.5179 9.58944e-08 0)
(42.518 9.59999e-08 0)
(42.5182 9.61122e-08 0)
(42.5183 9.62251e-08 0)
(42.5185 9.63424e-08 0)
(42.5187 9.6467e-08 0)
(42.5188 9.65898e-08 0)
(42.519 9.67233e-08 0)
(42.5192 9.68749e-08 0)
(42.5193 9.70343e-08 0)
(42.5195 9.7256e-08 0)
(42.5197 9.75643e-08 0)
(42.5199 9.80719e-08 0)
(42.5201 9.91414e-08 0)
(42.5203 1.01399e-07 0)
(42.5205 1.06668e-07 0)
(42.5207 1.19246e-07 0)
(42.5209 1.51353e-07 0)
(42.5211 2.13235e-07 0)
(42.5214 3.83312e-07 0)
(42.5216 7.7003e-07 0)
(42.5218 1.71139e-06 0)
(42.522 3.95696e-06 0)
(42.522 9.32515e-06 0)
(42.5219 2.21646e-05 0)
(42.5212 5.28376e-05 0)
(42.5193 0.000126038 0)
(42.5142 0.000300644 0)
(42.5017 0.000716307 0)
(42.4716 0.00170373 0)
(42.4 0.00404236 0)
(42.2303 0.00957791 0)
(41.8282 0.0228725 0)
(40.9298 0.0575209 0)
(37.296 0.159224 0)
(42.7002 0.000208887 0)
(42.7006 0.000168659 0)
(42.701 0.000152624 0)
(42.7014 0.000150592 0)
(42.7018 0.000149144 0)
(42.7022 0.000147407 0)
(42.7025 0.000145979 0)
(42.7029 0.000144838 0)
(42.7033 0.000143874 0)
(42.7037 0.00014304 0)
(42.704 0.000142331 0)
(42.7044 0.000141736 0)
(42.7048 0.000141186 0)
(42.7052 0.000140727 0)
(42.7056 0.000140323 0)
(42.706 0.000139967 0)
(42.7064 0.000139653 0)
(42.7068 0.000139376 0)
(42.7072 0.000139129 0)
(42.7076 0.000138897 0)
(42.708 0.000138724 0)
(42.7084 0.000138542 0)
(42.7088 0.000138392 0)
(42.7092 0.000138245 0)
(42.7097 0.000138111 0)
(42.7101 0.000137998 0)
(42.7106 0.000137903 0)
(42.711 0.000137815 0)
(42.7115 0.000137735 0)
(42.7119 0.000137664 0)
(42.7124 0.000137601 0)
(42.7129 0.000137534 0)
(42.7134 0.000137495 0)
(42.7139 0.000137507 0)
(42.7144 0.000137388 0)
(42.7149 0.000137387 0)
(42.7155 0.000137364 0)
(42.716 0.000137334 0)
(42.7166 0.000137326 0)
(42.7171 0.000137314 0)
(42.7177 0.000137294 0)
(42.7183 0.000137283 0)
(42.7189 0.00013726 0)
(42.7195 0.000137267 0)
(42.7202 0.000137301 0)
(42.7208 0.000137245 0)
(42.7215 0.000137255 0)
(42.7222 0.000137259 0)
(42.7229 0.00013726 0)
(42.7236 0.000137261 0)
(42.7243 0.000137263 0)
(42.7251 0.000137266 0)
(42.7259 0.000137268 0)
(42.7267 0.00013727 0)
(42.7275 0.000137271 0)
(42.7283 0.000137274 0)
(42.7291 0.00013728 0)
(42.73 0.000137244 0)
(42.7309 0.000137287 0)
(42.7318 0.000137263 0)
(42.7327 0.000137249 0)
(42.7337 0.000137229 0)
(42.7346 0.0001372 0)
(42.7356 0.000137155 0)
(42.7366 0.000137082 0)
(42.7377 0.000136993 0)
(42.7387 0.000136897 0)
(42.7398 0.000136731 0)
(42.7409 0.000136492 0)
(42.742 0.000136203 0)
(42.7432 0.000135822 0)
(42.7443 0.000135332 0)
(42.7455 0.000134712 0)
(42.7467 0.000133939 0)
(42.7479 0.000132978 0)
(42.7492 0.000131835 0)
(42.7505 0.000130434 0)
(42.7518 0.000128781 0)
(42.7531 0.000126845 0)
(42.7544 0.000124604 0)
(42.7557 0.000122039 0)
(42.7571 0.000119137 0)
(42.7585 0.000115894 0)
(42.7599 0.000112307 0)
(42.7613 0.000108386 0)
(42.7627 0.000104147 0)
(42.7642 9.96128e-05 0)
(42.7656 9.48098e-05 0)
(42.7671 8.9784e-05 0)
(42.7686 8.45751e-05 0)
(42.7701 7.92318e-05 0)
(42.7715 7.38063e-05 0)
(42.773 6.83525e-05 0)
(42.7746 6.29244e-05 0)
(42.7761 5.75745e-05 0)
(42.7776 5.23525e-05 0)
(42.7791 4.73038e-05 0)
(42.7806 4.24689e-05 0)
(42.7821 3.78816e-05 0)
(42.7837 3.35692e-05 0)
(42.7852 2.95523e-05 0)
(42.7867 2.58443e-05 0)
(42.7882 2.24518e-05 0)
(42.7897 1.93753e-05 0)
(42.7912 1.66097e-05 0)
(42.7927 1.41449e-05 0)
(42.7941 1.1967e-05 0)
(42.7956 1.00589e-05 0)
(42.797 8.40088e-06 0)
(42.7985 6.97224e-06 0)
(42.7999 5.75124e-06 0)
(42.8013 4.71609e-06 0)
(42.8027 3.84559e-06 0)
(42.804 3.11932e-06 0)
(42.8054 2.518e-06 0)
(42.8067 2.0241e-06 0)
(42.808 1.62155e-06 0)
(42.8092 1.29572e-06 0)
(42.8105 1.0341e-06 0)
(42.8117 8.25603e-07 0)
(42.8128 6.6045e-07 0)
(42.814 5.30632e-07 0)
(42.8151 4.2932e-07 0)
(42.8162 3.50649e-07 0)
(42.8172 2.89845e-07 0)
(42.8182 2.43249e-07 0)
(42.8191 2.07639e-07 0)
(42.8201 1.80213e-07 0)
(42.8209 1.59453e-07 0)
(42.8218 1.43648e-07 0)
(42.8225 1.31221e-07 0)
(42.8233 1.21701e-07 0)
(42.824 1.14302e-07 0)
(42.8246 1.08204e-07 0)
(42.8252 1.0314e-07 0)
(42.8257 9.90405e-08 0)
(42.8262 9.54813e-08 0)
(42.8267 9.19337e-08 0)
(42.827 8.9057e-08 0)
(42.8274 8.64009e-08 0)
(42.8277 8.33887e-08 0)
(42.8279 8.0837e-08 0)
(42.828 7.84169e-08 0)
(42.8282 7.58231e-08 0)
(42.8282 7.32504e-08 0)
(42.8282 7.05189e-08 0)
(42.8282 6.79263e-08 0)
(42.8281 6.57635e-08 0)
(42.8279 6.32982e-08 0)
(42.8277 6.0863e-08 0)
(42.8274 5.84472e-08 0)
(42.8271 5.60526e-08 0)
(42.8267 5.36805e-08 0)
(42.8262 5.13239e-08 0)
(42.8257 4.90022e-08 0)
(42.8252 4.67171e-08 0)
(42.8246 4.44628e-08 0)
(42.8239 4.22468e-08 0)
(42.8232 4.00739e-08 0)
(42.8224 3.79435e-08 0)
(42.8216 3.58573e-08 0)
(42.8208 3.38268e-08 0)
(42.8199 3.18522e-08 0)
(42.8189 2.99392e-08 0)
(42.8179 2.80878e-08 0)
(42.8169 2.6305e-08 0)
(42.8158 2.45849e-08 0)
(42.8147 2.29404e-08 0)
(42.8135 2.13649e-08 0)
(42.8123 1.98729e-08 0)
(42.811 1.84482e-08 0)
(42.8097 1.70937e-08 0)
(42.8084 1.58201e-08 0)
(42.807 1.46149e-08 0)
(42.8057 1.34854e-08 0)
(42.8042 1.24244e-08 0)
(42.8028 1.14214e-08 0)
(42.8013 1.04825e-08 0)
(42.7998 9.6028e-09 0)
(42.7983 8.79349e-09 0)
(42.7967 8.05102e-09 0)
(42.7952 7.38062e-09 0)
(42.7936 6.77969e-09 0)
(42.792 6.24676e-09 0)
(42.7903 5.77639e-09 0)
(42.7887 5.35285e-09 0)
(42.787 4.97842e-09 0)
(42.7854 4.65055e-09 0)
(42.7837 4.37288e-09 0)
(42.782 4.15005e-09 0)
(42.7803 3.98834e-09 0)
(42.7786 3.89723e-09 0)
(42.7769 3.88284e-09 0)
(42.7752 3.94143e-09 0)
(42.7735 4.07804e-09 0)
(42.7718 4.28845e-09 0)
(42.7701 4.57303e-09 0)
(42.7684 4.92302e-09 0)
(42.7667 5.33758e-09 0)
(42.765 5.80893e-09 0)
(42.7634 6.34473e-09 0)
(42.7617 6.92653e-09 0)
(42.76 7.56553e-09 0)
(42.7584 8.25555e-09 0)
(42.7568 8.99839e-09 0)
(42.7551 9.79087e-09 0)
(42.7535 1.06253e-08 0)
(42.7519 1.15143e-08 0)
(42.7504 1.24458e-08 0)
(42.7488 1.34199e-08 0)
(42.7473 1.44365e-08 0)
(42.7457 1.54909e-08 0)
(42.7442 1.65774e-08 0)
(42.7428 1.76983e-08 0)
(42.7413 1.88436e-08 0)
(42.7399 2.00163e-08 0)
(42.7385 2.12149e-08 0)
(42.7371 2.2438e-08 0)
(42.7357 2.36893e-08 0)
(42.7344 2.49507e-08 0)
(42.733 2.62258e-08 0)
(42.7317 2.75108e-08 0)
(42.7305 2.88121e-08 0)
(42.7292 3.01238e-08 0)
(42.728 3.14386e-08 0)
(42.7268 3.27573e-08 0)
(42.7256 3.40782e-08 0)
(42.7245 3.54022e-08 0)
(42.7234 3.67257e-08 0)
(42.7223 3.80511e-08 0)
(42.7212 3.93679e-08 0)
(42.7202 4.06781e-08 0)
(42.7192 4.19807e-08 0)
(42.7182 4.32814e-08 0)
(42.7172 4.45679e-08 0)
(42.7163 4.58393e-08 0)
(42.7154 4.70972e-08 0)
(42.7145 4.83476e-08 0)
(42.7136 4.9579e-08 0)
(42.7128 5.07975e-08 0)
(42.712 5.19949e-08 0)
(42.7112 5.31795e-08 0)
(42.7105 5.43422e-08 0)
(42.7097 5.54866e-08 0)
(42.709 5.66164e-08 0)
(42.7083 5.77216e-08 0)
(42.7076 5.88061e-08 0)
(42.707 5.9863e-08 0)
(42.7064 6.09042e-08 0)
(42.7058 6.19285e-08 0)
(42.7052 6.29242e-08 0)
(42.7046 6.39037e-08 0)
(42.7041 6.48627e-08 0)
(42.7036 6.57885e-08 0)
(42.7031 6.66935e-08 0)
(42.7026 6.75736e-08 0)
(42.7022 6.84301e-08 0)
(42.7017 6.92644e-08 0)
(42.7013 7.00742e-08 0)
(42.7009 7.0854e-08 0)
(42.7005 7.16118e-08 0)
(42.7001 7.23551e-08 0)
(42.6998 7.3068e-08 0)
(42.6994 7.37567e-08 0)
(42.6991 7.44316e-08 0)
(42.6988 7.50868e-08 0)
(42.6985 7.57206e-08 0)
(42.6982 7.63373e-08 0)
(42.6979 7.69322e-08 0)
(42.6977 7.75054e-08 0)
(42.6974 7.80737e-08 0)
(42.6972 7.86082e-08 0)
(42.697 7.91221e-08 0)
(42.6968 7.96212e-08 0)
(42.6966 8.00839e-08 0)
(42.6964 8.05341e-08 0)
(42.6962 8.09773e-08 0)
(42.6961 8.14091e-08 0)
(42.6959 8.18251e-08 0)
(42.6958 8.22385e-08 0)
(42.6956 8.26535e-08 0)
(42.6955 8.30449e-08 0)
(42.6954 8.34402e-08 0)
(42.6953 8.3818e-08 0)
(42.6952 8.41712e-08 0)
(42.6951 8.45254e-08 0)
(42.695 8.48609e-08 0)
(42.6949 8.51631e-08 0)
(42.6949 8.54617e-08 0)
(42.6948 8.57421e-08 0)
(42.6947 8.60122e-08 0)
(42.6947 8.62523e-08 0)
(42.6946 8.6516e-08 0)
(42.6946 8.67433e-08 0)
(42.6945 8.6961e-08 0)
(42.6945 8.71711e-08 0)
(42.6945 8.74102e-08 0)
(42.6945 8.75724e-08 0)
(42.6944 8.77934e-08 0)
(42.6944 8.80065e-08 0)
(42.6944 8.81896e-08 0)
(42.6944 8.84681e-08 0)
(42.6944 8.81829e-08 0)
(42.6944 8.89655e-08 0)
(42.6944 8.89017e-08 0)
(42.6944 8.90288e-08 0)
(42.6944 8.91811e-08 0)
(42.6945 8.93227e-08 0)
(42.6945 8.94592e-08 0)
(42.6945 8.95948e-08 0)
(42.6945 8.97273e-08 0)
(42.6945 8.98512e-08 0)
(42.6946 8.99698e-08 0)
(42.6946 9.00865e-08 0)
(42.6946 9.02031e-08 0)
(42.6947 9.03058e-08 0)
(42.6947 9.04043e-08 0)
(42.6948 9.04999e-08 0)
(42.6948 9.05938e-08 0)
(42.6949 9.06848e-08 0)
(42.6949 9.07764e-08 0)
(42.695 9.08587e-08 0)
(42.695 9.09367e-08 0)
(42.6951 9.10159e-08 0)
(42.6951 9.10932e-08 0)
(42.6952 9.11688e-08 0)
(42.6953 9.12377e-08 0)
(42.6953 9.13054e-08 0)
(42.6954 9.13785e-08 0)
(42.6955 9.14434e-08 0)
(42.6956 9.15121e-08 0)
(42.6956 9.15757e-08 0)
(42.6957 9.16437e-08 0)
(42.6958 9.17046e-08 0)
(42.6959 9.17665e-08 0)
(42.6959 9.18237e-08 0)
(42.696 9.18856e-08 0)
(42.6961 9.19416e-08 0)
(42.6962 9.20039e-08 0)
(42.6963 9.20638e-08 0)
(42.6964 9.21229e-08 0)
(42.6965 9.21787e-08 0)
(42.6966 9.22405e-08 0)
(42.6967 9.22992e-08 0)
(42.6968 9.23612e-08 0)
(42.6969 9.24214e-08 0)
(42.697 9.2474e-08 0)
(42.6971 9.25403e-08 0)
(42.6972 9.26009e-08 0)
(42.6973 9.2667e-08 0)
(42.6974 9.2731e-08 0)
(42.6976 9.27915e-08 0)
(42.6977 9.28608e-08 0)
(42.6978 9.2925e-08 0)
(42.6979 9.2998e-08 0)
(42.698 9.30683e-08 0)
(42.6982 9.31522e-08 0)
(42.6983 9.32302e-08 0)
(42.6984 9.33119e-08 0)
(42.6986 9.34068e-08 0)
(42.6987 9.34933e-08 0)
(42.6988 9.3597e-08 0)
(42.699 9.36985e-08 0)
(42.6991 9.37932e-08 0)
(42.6993 9.39192e-08 0)
(42.6994 9.40197e-08 0)
(42.6995 9.41462e-08 0)
(42.6997 9.42854e-08 0)
(42.6999 9.44082e-08 0)
(42.7 9.45552e-08 0)
(42.7002 9.47139e-08 0)
(42.7003 9.48717e-08 0)
(42.7005 9.50569e-08 0)
(42.7007 9.52836e-08 0)
(42.7009 9.5516e-08 0)
(42.701 9.59627e-08 0)
(42.7012 9.66747e-08 0)
(42.7014 9.81014e-08 0)
(42.7016 1.01407e-07 0)
(42.7018 1.08809e-07 0)
(42.702 1.26426e-07 0)
(42.7022 1.68918e-07 0)
(42.7024 2.78039e-07 0)
(42.7026 4.88398e-07 0)
(42.7029 1.06687e-06 0)
(42.7031 2.38343e-06 0)
(42.7033 5.586e-06 0)
(42.7035 1.32261e-05 0)
(42.7035 3.14895e-05 0)
(42.7034 7.51703e-05 0)
(42.7027 0.000179522 0)
(42.7008 0.000428549 0)
(42.6957 0.00102254 0)
(42.6833 0.00243641 0)
(42.6534 0.00579416 0)
(42.5821 0.0137414 0)
(42.4133 0.03252 0)
(42.0135 0.0774028 0)
(41.1215 0.192465 0)
(37.7093 0.502887 0)
(42.7002 0.000149848 0)
(42.7006 0.000119665 0)
(42.701 0.000105962 0)
(42.7014 0.000108349 0)
(42.7018 0.000110378 0)
(42.7021 0.000110944 0)
(42.7025 0.000111324 0)
(42.7029 0.000111739 0)
(42.7033 0.000112108 0)
(42.7036 0.000112417 0)
(42.704 0.00011269 0)
(42.7044 0.000112942 0)
(42.7048 0.000113144 0)
(42.7052 0.000113336 0)
(42.7056 0.000113505 0)
(42.706 0.000113655 0)
(42.7063 0.000113788 0)
(42.7067 0.000113906 0)
(42.7072 0.00011401 0)
(42.7076 0.000114096 0)
(42.708 0.000114192 0)
(42.7084 0.000114261 0)
(42.7088 0.00011433 0)
(42.7092 0.000114383 0)
(42.7097 0.000114429 0)
(42.7101 0.000114471 0)
(42.7106 0.000114524 0)
(42.711 0.000114558 0)
(42.7115 0.000114591 0)
(42.712 0.000114622 0)
(42.7124 0.00011465 0)
(42.7129 0.000114668 0)
(42.7134 0.000114702 0)
(42.7139 0.000114763 0)
(42.7144 0.00011472 0)
(42.715 0.000114766 0)
(42.7155 0.000114789 0)
(42.7161 0.000114806 0)
(42.7166 0.000114829 0)
(42.7172 0.000114848 0)
(42.7178 0.000114862 0)
(42.7184 0.000114878 0)
(42.719 0.000114883 0)
(42.7196 0.000114909 0)
(42.7203 0.000114949 0)
(42.7209 0.000114922 0)
(42.7216 0.000114947 0)
(42.7223 0.000114964 0)
(42.723 0.000114976 0)
(42.7237 0.000114988 0)
(42.7244 0.000115 0)
(42.7252 0.000115011 0)
(42.726 0.00011502 0)
(42.7268 0.000115029 0)
(42.7276 0.000115037 0)
(42.7284 0.000115049 0)
(42.7293 0.000115051 0)
(42.7301 0.000115019 0)
(42.731 0.000115083 0)
(42.7319 0.000115057 0)
(42.7329 0.000115048 0)
(42.7338 0.000115035 0)
(42.7348 0.000115013 0)
(42.7358 0.000114979 0)
(42.7368 0.00011492 0)
(42.7378 0.000114852 0)
(42.7389 0.000114766 0)
(42.74 0.000114625 0)
(42.7411 0.000114432 0)
(42.7422 0.00011419 0)
(42.7434 0.000113869 0)
(42.7445 0.000113458 0)
(42.7457 0.000112938 0)
(42.7469 0.000112287 0)
(42.7482 0.000111485 0)
(42.7494 0.000110512 0)
(42.7507 0.000109343 0)
(42.752 0.000107953 0)
(42.7533 0.000106326 0)
(42.7546 0.000104442 0)
(42.756 0.000102288 0)
(42.7573 9.98508e-05 0)
(42.7587 9.71268e-05 0)
(42.7601 9.41159e-05 0)
(42.7615 9.08247e-05 0)
(42.763 8.72666e-05 0)
(42.7644 8.34623e-05 0)
(42.7659 7.94334e-05 0)
(42.7673 7.52183e-05 0)
(42.7688 7.08506e-05 0)
(42.7703 6.6371e-05 0)
(42.7718 6.18234e-05 0)
(42.7733 5.72528e-05 0)
(42.7748 5.27045e-05 0)
(42.7763 4.82224e-05 0)
(42.7778 4.38481e-05 0)
(42.7793 3.96196e-05 0)
(42.7808 3.55703e-05 0)
(42.7823 3.17288e-05 0)
(42.7838 2.81177e-05 0)
(42.7853 2.47542e-05 0)
(42.7868 2.16493e-05 0)
(42.7883 1.88087e-05 0)
(42.7898 1.62326e-05 0)
(42.7913 1.39167e-05 0)
(42.7928 1.18526e-05 0)
(42.7943 1.00285e-05 0)
(42.7957 8.43013e-06 0)
(42.7972 7.04112e-06 0)
(42.7986 5.84407e-06 0)
(42.8 4.82081e-06 0)
(42.8014 3.95313e-06 0)
(42.8028 3.22329e-06 0)
(42.8041 2.61419e-06 0)
(42.8055 2.10974e-06 0)
(42.8068 1.69527e-06 0)
(42.8081 1.3573e-06 0)
(42.8093 1.0836e-06 0)
(42.8106 8.63723e-07 0)
(42.8118 6.88325e-07 0)
(42.813 5.49247e-07 0)
(42.8141 4.39781e-07 0)
(42.8152 3.54196e-07 0)
(42.8163 2.87587e-07 0)
(42.8173 2.3599e-07 0)
(42.8183 1.9632e-07 0)
(42.8193 1.65879e-07 0)
(42.8202 1.42403e-07 0)
(42.821 1.24567e-07 0)
(42.8219 1.10941e-07 0)
(42.8227 1.00271e-07 0)
(42.8234 9.21093e-08 0)
(42.8241 8.57866e-08 0)
(42.8247 8.06435e-08 0)
(42.8253 7.64481e-08 0)
(42.8258 7.31015e-08 0)
(42.8263 7.02394e-08 0)
(42.8268 6.74979e-08 0)
(42.8272 6.53161e-08 0)
(42.8275 6.33193e-08 0)
(42.8278 6.11115e-08 0)
(42.828 5.92793e-08 0)
(42.8282 5.75618e-08 0)
(42.8283 5.57241e-08 0)
(42.8283 5.38845e-08 0)
(42.8283 5.19337e-08 0)
(42.8283 5.01102e-08 0)
(42.8282 4.86273e-08 0)
(42.828 4.69125e-08 0)
(42.8278 4.52018e-08 0)
(42.8275 4.35108e-08 0)
(42.8272 4.18299e-08 0)
(42.8268 4.01608e-08 0)
(42.8263 3.85057e-08 0)
(42.8258 3.6867e-08 0)
(42.8253 3.52527e-08 0)
(42.8247 3.36556e-08 0)
(42.824 3.20843e-08 0)
(42.8233 3.05343e-08 0)
(42.8226 2.90226e-08 0)
(42.8218 2.75372e-08 0)
(42.8209 2.60864e-08 0)
(42.82 2.46748e-08 0)
(42.819 2.33014e-08 0)
(42.818 2.19707e-08 0)
(42.817 2.0683e-08 0)
(42.8159 1.94381e-08 0)
(42.8148 1.8248e-08 0)
(42.8136 1.7109e-08 0)
(42.8124 1.60174e-08 0)
(42.8111 1.49801e-08 0)
(42.8098 1.39974e-08 0)
(42.8085 1.30659e-08 0)
(42.8072 1.2192e-08 0)
(42.8058 1.13751e-08 0)
(42.8044 1.06086e-08 0)
(42.8029 9.90057e-09 0)
(42.8014 9.25355e-09 0)
(42.7999 8.66937e-09 0)
(42.7984 8.15153e-09 0)
(42.7968 7.70736e-09 0)
(42.7953 7.33256e-09 0)
(42.7937 7.02867e-09 0)
(42.7921 6.78344e-09 0)
(42.7904 6.59598e-09 0)
(42.7888 6.45601e-09 0)
(42.7871 6.35196e-09 0)
(42.7855 6.28315e-09 0)
(42.7838 6.25403e-09 0)
(42.7821 6.26846e-09 0)
(42.7804 6.33174e-09 0)
(42.7787 6.44823e-09 0)
(42.777 6.61765e-09 0)
(42.7753 6.84301e-09 0)
(42.7736 7.11939e-09 0)
(42.7719 7.44707e-09 0)
(42.7702 7.82301e-09 0)
(42.7685 8.23786e-09 0)
(42.7668 8.68988e-09 0)
(42.7652 9.17324e-09 0)
(42.7635 9.68684e-09 0)
(42.7618 1.02292e-08 0)
(42.7602 1.08017e-08 0)
(42.7585 1.1399e-08 0)
(42.7569 1.20234e-08 0)
(42.7553 1.26741e-08 0)
(42.7536 1.33499e-08 0)
(42.7521 1.40477e-08 0)
(42.7505 1.47728e-08 0)
(42.7489 1.55189e-08 0)
(42.7474 1.62877e-08 0)
(42.7459 1.70773e-08 0)
(42.7444 1.78877e-08 0)
(42.7429 1.87197e-08 0)
(42.7414 1.95603e-08 0)
(42.74 2.04263e-08 0)
(42.7386 2.1304e-08 0)
(42.7372 2.21962e-08 0)
(42.7358 2.31023e-08 0)
(42.7345 2.4022e-08 0)
(42.7331 2.4951e-08 0)
(42.7318 2.58886e-08 0)
(42.7306 2.68388e-08 0)
(42.7293 2.77958e-08 0)
(42.7281 2.87572e-08 0)
(42.7269 2.97212e-08 0)
(42.7257 3.06893e-08 0)
(42.7246 3.16676e-08 0)
(42.7235 3.26437e-08 0)
(42.7224 3.36167e-08 0)
(42.7213 3.45954e-08 0)
(42.7203 3.55688e-08 0)
(42.7193 3.65399e-08 0)
(42.7183 3.75033e-08 0)
(42.7173 3.84627e-08 0)
(42.7164 3.94221e-08 0)
(42.7155 4.03692e-08 0)
(42.7146 4.13082e-08 0)
(42.7138 4.22344e-08 0)
(42.7129 4.31495e-08 0)
(42.7121 4.40599e-08 0)
(42.7113 4.49593e-08 0)
(42.7106 4.58477e-08 0)
(42.7098 4.67202e-08 0)
(42.7091 4.75792e-08 0)
(42.7084 4.84322e-08 0)
(42.7078 4.92656e-08 0)
(42.7071 5.00868e-08 0)
(42.7065 5.08938e-08 0)
(42.7059 5.16874e-08 0)
(42.7053 5.24599e-08 0)
(42.7048 5.32233e-08 0)
(42.7042 5.39689e-08 0)
(42.7037 5.46945e-08 0)
(42.7032 5.54113e-08 0)
(42.7027 5.61104e-08 0)
(42.7023 5.67932e-08 0)
(42.7018 5.74617e-08 0)
(42.7014 5.8117e-08 0)
(42.701 5.87519e-08 0)
(42.7006 5.93737e-08 0)
(42.7002 5.99788e-08 0)
(42.6999 6.05703e-08 0)
(42.6995 6.11394e-08 0)
(42.6992 6.17037e-08 0)
(42.6989 6.22468e-08 0)
(42.6986 6.27753e-08 0)
(42.6983 6.32903e-08 0)
(42.6981 6.37833e-08 0)
(42.6978 6.42628e-08 0)
(42.6976 6.47323e-08 0)
(42.6973 6.51745e-08 0)
(42.6971 6.55994e-08 0)
(42.6969 6.60098e-08 0)
(42.6967 6.63927e-08 0)
(42.6965 6.67653e-08 0)
(42.6964 6.71319e-08 0)
(42.6962 6.74874e-08 0)
(42.696 6.78277e-08 0)
(42.6959 6.81775e-08 0)
(42.6958 6.85114e-08 0)
(42.6956 6.88282e-08 0)
(42.6955 6.91571e-08 0)
(42.6954 6.9467e-08 0)
(42.6953 6.97602e-08 0)
(42.6952 7.00502e-08 0)
(42.6951 7.03247e-08 0)
(42.695 7.05727e-08 0)
(42.695 7.08157e-08 0)
(42.6949 7.10465e-08 0)
(42.6948 7.12635e-08 0)
(42.6948 7.14633e-08 0)
(42.6947 7.16811e-08 0)
(42.6947 7.18743e-08 0)
(42.6947 7.20559e-08 0)
(42.6946 7.22282e-08 0)
(42.6946 7.24205e-08 0)
(42.6946 7.25622e-08 0)
(42.6946 7.27274e-08 0)
(42.6945 7.28845e-08 0)
(42.6945 7.30694e-08 0)
(42.6945 7.32728e-08 0)
(42.6945 7.29367e-08 0)
(42.6945 7.37692e-08 0)
(42.6945 7.36508e-08 0)
(42.6945 7.37314e-08 0)
(42.6945 7.38454e-08 0)
(42.6946 7.39599e-08 0)
(42.6946 7.40703e-08 0)
(42.6946 7.41721e-08 0)
(42.6946 7.42703e-08 0)
(42.6947 7.43677e-08 0)
(42.6947 7.44609e-08 0)
(42.6947 7.45437e-08 0)
(42.6948 7.46245e-08 0)
(42.6948 7.46999e-08 0)
(42.6948 7.47736e-08 0)
(42.6949 7.48455e-08 0)
(42.6949 7.49081e-08 0)
(42.695 7.49636e-08 0)
(42.695 7.50265e-08 0)
(42.6951 7.50794e-08 0)
(42.6951 7.51328e-08 0)
(42.6952 7.51806e-08 0)
(42.6953 7.52278e-08 0)
(42.6953 7.52718e-08 0)
(42.6954 7.53113e-08 0)
(42.6954 7.5348e-08 0)
(42.6955 7.53867e-08 0)
(42.6956 7.54222e-08 0)
(42.6957 7.54562e-08 0)
(42.6957 7.54826e-08 0)
(42.6958 7.55093e-08 0)
(42.6959 7.55342e-08 0)
(42.696 7.55599e-08 0)
(42.6961 7.55786e-08 0)
(42.6961 7.56009e-08 0)
(42.6962 7.56203e-08 0)
(42.6963 7.56384e-08 0)
(42.6964 7.56574e-08 0)
(42.6965 7.567e-08 0)
(42.6966 7.56829e-08 0)
(42.6967 7.56956e-08 0)
(42.6968 7.57065e-08 0)
(42.6969 7.57179e-08 0)
(42.697 7.57317e-08 0)
(42.6971 7.5733e-08 0)
(42.6972 7.5751e-08 0)
(42.6973 7.57581e-08 0)
(42.6974 7.57703e-08 0)
(42.6976 7.57804e-08 0)
(42.6977 7.57893e-08 0)
(42.6978 7.58099e-08 0)
(42.6979 7.5816e-08 0)
(42.698 7.58329e-08 0)
(42.6982 7.58353e-08 0)
(42.6983 7.58569e-08 0)
(42.6984 7.58667e-08 0)
(42.6985 7.58749e-08 0)
(42.6987 7.59031e-08 0)
(42.6988 7.59069e-08 0)
(42.6989 7.59417e-08 0)
(42.6991 7.59641e-08 0)
(42.6992 7.5969e-08 0)
(42.6994 7.60204e-08 0)
(42.6995 7.60285e-08 0)
(42.6997 7.6065e-08 0)
(42.6998 7.61113e-08 0)
(42.7 7.61346e-08 0)
(42.7001 7.61838e-08 0)
(42.7003 7.6244e-08 0)
(42.7005 7.6287e-08 0)
(42.7006 7.63778e-08 0)
(42.7008 7.65545e-08 0)
(42.701 7.6728e-08 0)
(42.7012 7.73077e-08 0)
(42.7013 7.84002e-08 0)
(42.7015 8.08895e-08 0)
(42.7017 8.70377e-08 0)
(42.7019 1.01244e-07 0)
(42.7021 1.35646e-07 0)
(42.7023 2.19101e-07 0)
(42.7025 4.3379e-07 0)
(42.7028 8.52423e-07 0)
(42.703 1.9962e-06 0)
(42.7032 4.61032e-06 0)
(42.7034 1.09611e-05 0)
(42.7036 2.61165e-05 0)
(42.7037 6.23462e-05 0)
(42.7035 0.000149 0)
(42.7029 0.000356014 0)
(42.701 0.000850065 0)
(42.6961 0.00202853 0)
(42.684 0.00483382 0)
(42.6548 0.0114966 0)
(42.5851 0.0272684 0)
(42.4204 0.0645353 0)
(42.031 0.153504 0)
(41.1666 0.380422 0)
(38.001 0.961772 0)
(42.7001 9.7281e-05 0)
(42.7005 9.88078e-05 0)
(42.7009 9.45303e-05 0)
(42.7014 9.87728e-05 0)
(42.7017 0.000102552 0)
(42.7021 0.000104492 0)
(42.7025 0.000105793 0)
(42.7028 0.000106938 0)
(42.7032 0.00010793 0)
(42.7036 0.000108768 0)
(42.704 0.000109489 0)
(42.7043 0.000110116 0)
(42.7047 0.000110657 0)
(42.7051 0.000111134 0)
(42.7055 0.000111551 0)
(42.7059 0.000111918 0)
(42.7063 0.00011224 0)
(42.7067 0.000112523 0)
(42.7071 0.000112772 0)
(42.7075 0.00011299 0)
(42.7079 0.000113186 0)
(42.7083 0.000113357 0)
(42.7088 0.000113508 0)
(42.7092 0.000113639 0)
(42.7096 0.000113754 0)
(42.7101 0.000113852 0)
(42.7105 0.000113959 0)