/*--------------------------------*- C++ -*----------------------------------*\
| =========                 |                                                 |
| \\      /  F ield         | OpenFOAM: The Open Source CFD Toolbox           |
|  \\    /   O peration     | Version:  3.0.x                                 |
|   \\  /    A nd           | Web:      www.OpenFOAM.org                      |
|    \\/     M anipulation  |                                                 |
\*---------------------------------------------------------------------------*/
FoamFile
{
    version     2.0;
    format      ascii;
    class       volVectorField;
    location    "0.4";
    object      U;
}
// * * * * * * * * * * * * * * * * * * * * * * * * * * * * * * * * * * * * * //

dimensions      [0 1 -1 0 0 0 0];

internalField   nonuniform List<vector> 
1000
(
(50 0 0)
(50 0 0)
(50 0 0)
(50 0 0)
(50 0 0)
(50 0 0)
(50 0 0)
(50 0 0)
(50 0 0)
(50 0 0)
(50 0 0)
(50 0 0)
(50 0 0)
(50 0 0)
(50 0 0)
(50 0 0)
(50 0 0)
(50 0 0)
(50 0 0)
(50 0 0)
(50 0 0)
(50 0 0)
(50 0 0)
(50 0 0)
(50 0 0)
(50 0 0)
(50 0 0)
(50 0 0)
(50 0 0)
(50 0 0)
(50 0 0)
(50 0 0)
(50 0 0)
(50 0 0)
(50 0 0)
(50 0 0)
(50 0 0)
(50 0 0)
(50 0 0)
(50 0 0)
(50 0 0)
(50 0 0)
(50 0 0)
(50 0 0)
(50 0 0)
(50 0 0)
(50 0 0)
(50 0 0)
(50 0 0)
(50 0 0)
(50 0 0)
(50 0 0)
(50 0 0)
(50 0 0)
(50 0 0)
(50 0 0)
(50 0 0)
(50 0 0)
(50 0 0)
(50 0 0)
(50 0 0)
(50 0 0)
(50 0 0)
(50 0 0)
(50 0 0)
(50 0 0)
(50 0 0)
(50 0 0)
(50 0 0)
(50 0 0)
(50 0 0)
(50 0 0)
(50 0 0)
(50 0 0)
(50 0 0)
(50 0 0)
(50 0 0)
(50 0 0)
(50 0 0)
(50 0 0)
(50 0 0)
(50 0 0)
(50 0 0)
(50 0 0)
(50 0 0)
(50 0 0)
(50 0 0)
(50 0 0)
(50 0 0)
(50 0 0)
(50 0 0)
(50 0 0)
(50 0 0)
(50 0 0)
(50 0 0)
(50 0 0)
(50 0 0)
(50 0 0)
(50 0 0)
(50 0 0)
(50 0 0)
(50 0 0)
(50 0 0)
(50 0 0)
(50 0 0)
(50 0 0)
(50 0 0)
(50 0 0)
(50 0 0)
(50 0 0)
(50 0 0)
(50 0 0)
(50 0 0)
(50 0 0)
(50 0 0)
(50 0 0)
(50 0 0)
(50 0 0)
(50 0 0)
(50 0 0)
(50 0 0)
(50 0 0)
(50 0 0)
(50 0 0)
(50 0 0)
(50 0 0)
(50 0 0)
(50 0 0)
(50 0 0)
(50 0 0)
(50 0 0)
(50 0 0)
(50 0 0)
(50 0 0)
(50 0 0)
(50 0 0)
(50 0 0)
(50 0 0)
(50 0 0)
(50 0 0)
(50 0 0)
(50 0 0)
(50 0 0)
(50 0 0)
(50 0 0)
(50 0 0)
(50 0 0)
(50 0 0)
(50 0 0)
(50 0 0)
(50 0 0)
(50 0 0)
(50 0 0)
(50 0 0)
(50 0 0)
(50 0 0)
(50 0 0)
(50 0 0)
(50 0 0)
(50 0 0)
(50 0 0)
(50 0 0)
(50 0 0)
(50 0 0)
(50 0 0)
(50 0 0)
(50 0 0)
(50 0 0)
(50 0 0)
(50 0 0)
(50 0 0)
(50 0 0)
(50 0 0)
(50 0 0)
(50 0 0)
(50 0 0)
(50 0 0)
(50 0 0)
(50 0 0)
(50 0 0)
(50 0 0)
(50 0 0)
(50 0 0)
(50 0 0)
(50 0 0)
(50 0 0)
(50 0 0)
(50 0 0)
(50 0 0)
(50 0 0)
(50 0 0)
(50 0 0)
(50 0 0)
(50 0 0)
(50 0 0)
(50 0 0)
(50 0 0)
(50 0 0)
(50 0 0)
(50 0 0)
(50 0 0)
(50 0 0)
(50 0 0)
(50 0 0)
(50 0 0)
(50 0 0)
(50 0 0)
(50 0 0)
(50 0 0)
(50 0 0)
(50 0 0)
(50 0 0)
(50 0 0)
(50 0 0)
(50 0 0)
(50 0 0)
(50 0 0)
(50 0 0)
(50 0 0)
(50 0 0)
(50 0 0)
(50 0 0)
(50 0 0)
(50 0 0)
(50 0 0)
(50 0 0)
(50 0 0)
(50 0 0)
(50 0 0)
(50 0 0)
(50 0 0)
(50 0 0)
(50 0 0)
(50 0 0)
(50 0 0)
(50 0 0)
(50 0 0)
(50 0 0)
(50 0 0)
(50 0 0)
(50 0 0)
(50 0 0)
(50 0 0)
(50 0 0)
(50 0 0)
(50 0 0)
(50 0 0)
(50 0 0)
(50 0 0)
(50 0 0)
(50 0 0)
(50 0 0)
(50 0 0)
(50 0 0)
(50 0 0)
(50 0 0)
(50 0 0)
(50 0 0)
(50 0 0)
(50 0 0)
(50 0 0)
(50 0 0)
(50 0 0)
(50 0 0)
(50 0 0)
(50 0 0)
(50 0 0)
(50 0 0)
(50 0 0)
(50 0 0)
(50 0 0)
(50 0 0)
(50 0 0)
(50 0 0)
(50 0 0)
(50 0 0)
(50 0 0)
(50 0 0)
(50 0 0)
(50 0 0)
(50 0 0)
(50 0 0)
(50 0 0)
(50 0 0)
(50 0 0)
(50 0 0)
(50 0 0)
(50 0 0)
(50 0 0)
(50 0 0)
(50 0 0)
(50 0 0)
(50 0 0)
(50 0 0)
(50 0 0)
(50 0 0)
(50 0 0)
(50 0 0)
(50 0 0)
(50 0 0)
(50 0 0)
(50 0 0)
(50 0 0)
(50 0 0)
(50 0 0)
(50 0 0)
(50 0 0)
(50 0 0)
(50 0 0)
(50 0 0)
(50 0 0)
(50 0 0)
(50 0 0)
(50 0 0)
(50 0 0)
(50 0 0)
(50 0 0)
(50 0 0)
(50 0 0)
(50 0 0)
(50 0 0)
(50 0 0)
(50 0 0)
(50 0 0)
(50 0 0)
(50 0 0)
(50 0 0)
(50 0 0)
(50 0 0)
(50 0 0)
(50 0 0)
(50 0 0)
(50 0 0)
(50 0 0)
(50 0 0)
(50 0 0)
(50 0 0)
(50 0 0)
(50 0 0)
(50 0 0)
(50 0 0)
(50 0 0)
(50 0 0)
(50 0 0)
(50 0 0)
(50 0 0)
(50 0 0)
(50 0 0)
(50 0 0)
(50 0 0)
(50 0 0)
(50 0 0)
(50 0 0)
(50 0 0)
(50 0 0)
(50 0 0)
(50 0 0)
(50 0 0)
(50 0 0)
(50 0 0)
(50 0 0)
(50 0 0)
(50 0 0)
(50 0 0)
(50 0 0)
(50 0 0)
(50 0 0)
(50 0 0)
(50 0 0)
(50 0 0)
(50 0 0)
(50 0 0)
(50 0 0)
(50 0 0)
(50 0 0)
(50 0 0)
(50 0 0)
(50 0 0)
(50 0 0)
(50 0 0)
(50 0 0)
(50 0 0)
(50 0 0)
(50 0 0)
(50 0 0)
(50 0 0)
(50 0 0)
(50 0 0)
(50 0 0)
(50 0 0)
(50 0 0)
(50 0 0)
(50 0 0)
(50 0 0)
(50 0 0)
(50 0 0)
(50 0 0)
(50 0 0)
(50 0 0)
(50 0 0)
(50 0 0)
(50 0 0)
(50 0 0)
(50 0 0)
(50 0 0)
(50 0 0)
(50 0 0)
(50 0 0)
(50 0 0)
(50 0 0)
(50 0 0)
(50 0 0)
(50 0 0)
(50 0 0)
(50 0 0)
(50 0 0)
(50 0 0)
(50 0 0)
(50 0 0)
(50 0 0)
(50 0 0)
(50 0 0)
(50 0 0)
(50 0 0)
(50 0 0)
(50 0 0)
(50 0 0)
(50 0 0)
(50 0 0)
(50 0 0)
(50 0 0)
(50 0 0)
(50 0 0)
(50 0 0)
(50 0 0)
(50 0 0)
(50 0 0)
(50 0 0)
(50 0 0)
(50 0 0)
(50 0 0)
(50 0 0)
(50 0 0)
(50 0 0)
(50 0 0)
(50 0 0)
(50 0 0)
(50 0 0)
(50 0 0)
(50 0 0)
(50 0 0)
(50 0 0)
(50 0 0)
(50 0 0)
(50 0 0)
(50 0 0)
(50 0 0)
(50 0 0)
(50 0 0)
(50 0 0)
(50 0 0)
(50 0 0)
(50 0 0)
(50 0 0)
(50 0 0)
(50 0 0)
(50 0 0)
(50 0 0)
(50 0 0)
(50 0 0)
(50 0 0)
(50 0 0)
(50 0 0)
(50 0 0)
(50 0 0)
(50 0 0)
(50 0 0)
(50 0 0)
(50 0 0)
(50 0 0)
(50 0 0)
(50 0 0)
(50 0 0)
(50 0 0)
(50 0 0)
(50 0 0)
(50 0 0)
(50 0 0)
(50 0 0)
(50 0 0)
(50 0 0)
(50 0 0)
(50 0 0)
(50 0 0)
(50 0 0)
(50 0 0)
(50 0 0)
(50 0 0)
(50 0 0)
(50 0 0)
(50 0 0)
(50 0 0)
(50 0 0)
(50 0 0)
(50 0 0)
(50 0 0)
(50 0 0)
(50 0 0)
(50 0 0)
(50 0 0)
(50 0 0)
(50 0 0)
(50 0 0)
(50 0 0)
(50 0 0)
(50 0 0)
(50 0 0)
(50 0 0)
(50 0 0)
(50 0 0)
(50 0 0)
(50 0 0)
(50 0 0)
(50 0 0)
(50 0 0)
(50 0 0)
(50 0 0)
(50 0 0)
(50 0 0)
(50 0 0)
(50 0 0)
(50 0 0)
(50 0 0)
(50 0 0)
(50 0 0)
(50 0 0)
(50 0 0)
(50 0 0)
(50 0 0)
(50 0 0)
(50 0 0)
(50 0 0)
(50 0 0)
(50 0 0)
(50 0 0)
(50 0 0)
(50 0 0)
(50 0 0)
(50 0 0)
(50 0 0)
(50 0 0)
(50 0 0)
(50 0 0)
(50 0 0)
(50 0 0)
(50 0 0)
(50 0 0)
(50 0 0)
(50 0 0)
(50 0 0)
(50 0 0)
(50 0 0)
(50 0 0)
(50 0 0)
(50 0 0)
(50 0 0)
(50 0 0)
(50 0 0)
(50 0 0)
(50 0 0)
(50 0 0)
(50 0 0)
(50 0 0)
(50 0 0)
(50 0 0)
(50 0 0)
(50 0 0)
(50 0 0)
(50 0 0)
(50 0 0)
(50 0 0)
(50 0 0)
(50 0 0)
(50 0 0)
(50 0 0)
(50 0 0)
(50 0 0)
(50 0 0)
(50 0 0)
(50 0 0)
(50 0 0)
(50 0 0)
(50 0 0)
(50 0 0)
(50 0 0)
(50 0 0)
(50 0 0)
(50 0 0)
(50 0 0)
(50 0 0)
(50 0 0)
(50 0 0)
(50 0 0)
(50 0 0)
(50 0 0)
(50 0 0)
(50 0 0)
(50 0 0)
(50 0 0)
(50 0 0)
(50 0 0)
(50 0 0)
(50 0 0)
(50 0 0)
(50 0 0)
(50 0 0)
(50 0 0)
(50 0 0)
(50 0 0)
(50 0 0)
(50 0 0)
(50 0 0)
(50 0 0)
(50 0 0)
(50 0 0)
(50 0 0)
(50 0 0)
(50 0 0)
(50 0 0)
(50 0 0)
(50 0 0)
(50 0 0)
(50 0 0)
(50 0 0)
(50 0 0)
(50 0 0)
(50 0 0)
(50 0 0)
(50 0 0)
(50 0 0)
(50 0 0)
(50 0 0)
(50 0 0)
(50 0 0)
(50 0 0)
(50 0 0)
(50 0 0)
(50 0 0)
(50 0 0)
(50 0 0)
(50 0 0)
(50 0 0)
(50 0 0)
(50 0 0)
(50 0 0)
(50 0 0)
(50 0 0)
(50 0 0)
(50 0 0)
(50 0 0)
(50 0 0)
(50 0 0)
(50 0 0)
(50 0 0)
(50 0 0)
(50 0 0)
(50 0 0)
(50 0 0)
(50 0 0)
(50 0 0)
(50 0 0)
(50 0 0)
(50 0 0)
(50 0 0)
(50 0 0)
(50 0 0)
(50 0 0)
(50 0 0)
(50 0 0)
(50 0 0)
(50 0 0)
(50 0 0)
(50 0 0)
(50 0 0)
(50 0 0)
(50 0 0)
(50 0 0)
(50 0 0)
(50 0 0)
(50 0 0)
(50 0 0)
(50 0 0)
(50 0 0)
(50 0 0)
(50 0 0)
(50 0 0)
(50 0 0)
(50 0 0)
(50 0 0)
(50 0 0)
(50 0 0)
(50 0 0)
(50 0 0)
(50 0 0)
(50 0 0)
(50 0 0)
(50 0 0)
(50 0 0)
(50 0 0)
(50 0 0)
(50 0 0)
(50 0 0)
(50 0 0)
(50 0 0)
(50 0 0)
(50 0 0)
(50 0 0)
(50 0 0)
(50 0 0)
(50 0 0)
(50 0 0)
(50 0 0)
(50 0 0)
(50 0 0)
(50 0 0)
(50 0 0)
(50 0 0)
(50 0 0)
(50 0 0)
(50 0 0)
(50 0 0)
(50 0 0)
(50 0 0)
(50 0 0)
(50 0 0)
(50 0 0)
(50 0 0)
(50 0 0)
(50 0 0)
(50 0 0)
(50 0 0)
(50 0 0)
(50 0 0)
(50 0 0)
(50 0 0)
(50 0 0)
(50 0 0)
(50 0 0)
(50 0 0)
(50 0 0)
(50 0 0)
(50 0 0)
(50 0 0)
(50 0 0)
(50 0 0)
(50 0 0)
(50 0 0)
(50 0 0)
(50 0 0)
(50 0 0)
(50 0 0)
(50 0 0)
(50 0 0)
(50 0 0)
(50 0 0)
(50 0 0)
(49.9999 0 0)
(49.9999 0 0)
(49.9999 0 0)
(49.9998 0 0)
(49.9997 0 0)
(49.9996 0 0)
(49.9995 0 0)
(49.9993 0 0)
(49.999 0 0)
(49.9986 0 0)
(49.9981 0 0)
(49.9975 0 0)
(49.9966 0 0)
(49.9955 0 0)
(49.9941 0 0)
(49.9922 0 0)
(49.9897 0 0)
(49.9866 0 0)
(49.9826 0 0)
(49.9776 0 0)
(49.9713 0 0)
(49.9633 0 0)
(49.9535 0 0)
(49.9413 0 0)
(49.9263 0 0)
(49.908 0 0)
(49.8858 0 0)
(49.859 0 0)
(49.8269 0 0)
(49.7885 0 0)
(49.7431 0 0)
(49.6894 0 0)
(49.6266 0 0)
(49.5534 0 0)
(49.4687 0 0)
(49.371 0 0)
(49.2592 0 0)
(49.1319 0 0)
(48.9878 0 0)
(48.8256 0 0)
(48.644 0 0)
(48.4418 0 0)
(48.2178 0 0)
(47.9711 0 0)
(47.7008 0 0)
(47.4062 0 0)
(47.0867 0 0)
(46.7418 0 0)
(46.3715 0 0)
(45.9757 0 0)
(45.5545 0 0)
(45.1083 0 0)
(44.6377 0 0)
(44.1433 0 0)
(43.6259 0 0)
(43.0864 0 0)
(42.526 0 0)
(41.9457 0 0)
(41.3467 0 0)
(40.7301 0 0)
(40.0973 0 0)
(39.4494 0 0)
(38.7876 0 0)
(38.1132 0 0)
(37.4272 0 0)
(36.7308 0 0)
(36.0251 0 0)
(35.3111 0 0)
(34.5898 0 0)
(33.862 0 0)
(33.1288 0 0)
(32.391 0 0)
(31.6493 0 0)
(30.9046 0 0)
(30.1576 0 0)
(29.409 0 0)
(28.6594 0 0)
(27.9096 0 0)
(27.1601 0 0)
(26.4116 0 0)
(25.6646 0 0)
(24.9196 0 0)
(24.1772 0 0)
(23.438 0 0)
(22.7024 0 0)
(21.9708 0 0)
(21.2438 0 0)
(20.5218 0 0)
(19.8052 0 0)
(19.0945 0 0)
(18.39 0 0)
(17.6921 0 0)
(17.0014 0 0)
(16.318 0 0)
(15.6425 0 0)
(14.9751 0 0)
(14.3163 0 0)
(13.6664 0 0)
(13.0258 0 0)
(12.3948 0 0)
(11.7739 0 0)
(11.1634 0 0)
(10.5638 0 0)
(9.97533 0 0)
(9.39852 0 0)
(8.83378 0 0)
(8.28156 0 0)
(7.74233 0 0)
(7.2166 0 0)
(6.70488 0 0)
(6.20773 0 0)
(5.72573 0 0)
(5.2595 0 0)
(4.80969 0 0)
(4.37695 0 0)
(3.96198 0 0)
(3.56547 0 0)
(3.1881 0 0)
(2.83054 0 0)
(2.4934 0 0)
(2.17723 0 0)
(1.88248 0 0)
(1.60948 0 0)
(1.3584 0 0)
(1.12924 0 0)
(0.921816 0 0)
(0.735727 0 0)
(0.57037 0 0)
(0.424938 0 0)
(0.29845 0 0)
(0.189796 0 0)
(0.097831 0 0)
(0.0216989 0 0)
(-0.0379236 0 0)
(-0.0833308 0 0)
(-0.119087 0 0)
(-0.147157 0 0)
(-0.168807 0 0)
(-0.185203 0 0)
(-0.197328 0 0)
(-0.206014 0 0)
(-0.212038 0 0)
(-0.216051 0 0)
(-0.218588 0 0)
(-0.220078 0 0)
(-0.220849 0 0)
(-0.221147 0 0)
(-0.221149 0 0)
(-0.220979 0 0)
(-0.220718 0 0)
(-0.220417 0 0)
(-0.220107 0 0)
(-0.219806 0 0)
(-0.219523 0 0)
(-0.21926 0 0)
(-0.219018 0 0)
(-0.218797 0 0)
(-0.218593 0 0)
(-0.218407 0 0)
(-0.218235 0 0)
(-0.218076 0 0)
(-0.217928 0 0)
(-0.21779 0 0)
(-0.217662 0 0)
(-0.21754 0 0)
(-0.217426 0 0)
(-0.217318 0 0)
(-0.217215 0 0)
(-0.217118 0 0)
(-0.217025 0 0)
(-0.216938 0 0)
(-0.216854 0 0)
(-0.216776 0 0)
(-0.216702 0 0)
(-0.216632 0 0)
(-0.216566 0 0)
(-0.216505 0 0)
(-0.216447 0 0)
(-0.216393 0 0)
(-0.216343 0 0)
(-0.216296 0 0)
(-0.216248 0 0)
(-0.216216 0 0)
(-0.216161 0 0)
(-0.216126 0 0)
(-0.21612 0 0)
(-0.21609 0 0)
(-0.216068 0 0)
(-0.216044 0 0)
(-0.21602 0 0)
(-0.215996 0 0)
(-0.215973 0 0)
(-0.215949 0 0)
(-0.215927 0 0)
(-0.215905 0 0)
(-0.215883 0 0)
(-0.215863 0 0)
(-0.215843 0 0)
(-0.215824 0 0)
(-0.215805 0 0)
(-0.215788 0 0)
(-0.215771 0 0)
(-0.215756 0 0)
(-0.215741 0 0)
(-0.215726 0 0)
(-0.215713 0 0)
(-0.215701 0 0)
(-0.215689 0 0)
(-0.215678 0 0)
(-0.215668 0 0)
(-0.215658 0 0)
(-0.21565 0 0)
(-0.215644 0 0)
(-0.215625 0 0)
(-0.215656 0 0)
(-0.215584 0 0)
(-0.215596 0 0)
(-0.215652 0 0)
(-0.215602 0 0)
(-0.21562 0 0)
(-0.215614 0 0)
(-0.215614 0 0)
(-0.215613 0 0)
(-0.215613 0 0)
(-0.21561 0 0)
(-0.215632 0 0)
(-0.215522 0 0)
(-0.21596 0 0)
(-0.21423 0 0)
(-0.218956 0 0)
(-0.205758 0 0)
(-0.227319 0 0)
(-0.206851 0 0)
(-0.21471 0 0)
)
;

boundaryField
{
    inlet
    {
        type            fixedValue;
        value           uniform (50 0 0);
    }
    backWall
    {
        type            zeroGradient;
    }
    sides
    {
        type            empty;
    }
}


// ************************************************************************* //
