/*--------------------------------*- C++ -*----------------------------------*\
| =========                 |                                                 |
| \\      /  F ield         | OpenFOAM: The Open Source CFD Toolbox           |
|  \\    /   O peration     | Version:  3.0.x                                 |
|   \\  /    A nd           | Web:      www.OpenFOAM.org                      |
|    \\/     M anipulation  |                                                 |
\*---------------------------------------------------------------------------*/
FoamFile
{
    version     2.0;
    format      ascii;
    class       surfaceScalarField;
    location    "0.6";
    object      phi;
}
// * * * * * * * * * * * * * * * * * * * * * * * * * * * * * * * * * * * * * //

dimensions      [1 0 -1 0 0 0 0];

internalField   nonuniform List<scalar> 
12415
(
6.28466
0.000330991
6.24379
0.000241434
6.20297
0.000235552
6.16218
0.000240361
6.12141
0.000244087
6.08064
0.000247341
6.03988
0.000250612
5.99912
0.000253733
5.95834
0.000256612
5.91755
0.000259227
5.87676
0.000261567
5.83596
0.000263634
5.79516
0.000265413
5.75435
0.000266874
5.71355
0.000268102
5.67276
0.000269094
5.63199
0.000269872
5.59127
0.000270465
5.55058
0.000270901
5.50994
0.000271207
5.46936
0.000271407
5.42883
0.000271533
5.38837
0.000271588
5.34798
0.00027161
5.30767
0.000271588
5.26744
0.000271546
5.2273
0.000271493
5.18723
0.000271412
5.14726
0.00027134
5.10738
0.000271246
5.06759
0.000271153
5.0279
0.000271055
4.98831
0.000270948
4.94883
0.000270843
4.90945
0.000270732
4.87018
0.000270609
4.83103
0.000270499
4.79199
0.000270374
4.75308
0.000270245
4.71428
0.000270121
4.67562
0.000269996
4.63708
0.000269866
4.59867
0.000269721
4.5604
0.000269603
4.52227
0.000269466
4.48427
0.000269348
4.44642
0.000269221
4.40871
0.000269091
4.37115
0.00026896
4.33374
0.000268826
4.29648
0.000268697
4.25938
0.000268585
4.22244
0.000268488
4.18566
0.000268403
4.14905
0.000268324
4.1126
0.000268255
4.07631
0.000268182
4.04018
0.000268111
4.00422
0.000268049
3.96843
0.00026798
3.9328
0.000267898
3.89735
0.000267814
3.86207
0.000267722
3.82696
0.000267624
3.79203
0.000267526
3.75729
0.00026744
3.72272
0.00026736
3.68833
0.000267258
3.65413
0.000267121
3.62011
0.000266931
3.58626
0.000266646
3.5526
0.000266246
3.51911
0.000265687
3.48581
0.000264943
3.4527
0.000263968
3.41978
0.000262723
3.38704
0.000261158
3.3545
0.000259214
3.32216
0.000256827
3.29001
0.000253919
3.25806
0.000250411
3.22631
0.00024623
3.19476
0.000241303
3.1634
0.000235567
3.13226
0.000228981
3.10131
0.00022152
3.07058
0.000213175
3.04006
0.000203969
3.00975
0.000193944
2.97965
0.000183163
2.94977
0.00017171
2.92012
0.0001597
2.89068
0.000147252
2.86147
0.000134504
2.83248
0.000121602
2.80372
0.000108695
2.77519
9.59376e-05
2.74688
8.34716e-05
2.7188
7.14289e-05
2.69096
5.99258e-05
2.66334
4.90621e-05
2.63596
3.89189e-05
2.6088
2.95528e-05
2.58188
2.10007e-05
2.55519
1.32792e-05
2.52872
6.37142e-06
2.50249
1.45676e-07
2.47648
-5.10326e-06
2.4507
-9.73849e-06
2.42515
-1.36962e-05
2.39982
-1.70396e-05
2.37471
-1.98323e-05
2.34983
-2.21422e-05
2.32517
-2.40312e-05
2.30073
-2.55631e-05
2.27651
-2.67822e-05
2.25251
-2.77442e-05
2.22873
-2.84932e-05
2.20516
-2.90716e-05
2.18181
-2.95042e-05
2.15868
-2.98236e-05
2.13577
-3.00553e-05
2.11307
-3.02192e-05
2.09058
-3.03253e-05
2.06832
-3.03916e-05
2.04626
-3.04269e-05
2.02442
-3.04408e-05
2.0028
-3.04316e-05
1.98138
-3.04092e-05
1.96017
-3.03767e-05
1.93917
-3.03408e-05
1.91837
-3.02936e-05
1.89778
-3.02423e-05
1.87738
-3.01873e-05
1.85718
-3.01284e-05
1.83717
-3.00701e-05
1.81736
-3.00043e-05
1.79773
-2.99376e-05
1.77828
-2.9869e-05
1.75902
-2.97977e-05
1.73993
-2.97272e-05
1.72102
-2.96485e-05
1.70229
-2.95696e-05
1.68372
-2.94871e-05
1.66532
-2.94051e-05
1.6471
-2.93206e-05
1.62903
-2.92328e-05
1.61113
-2.91438e-05
1.59339
-2.90557e-05
1.5758
-2.89676e-05
1.55838
-2.88732e-05
1.54111
-2.8778e-05
1.52399
-2.86832e-05
1.50702
-2.85884e-05
1.49021
-2.8489e-05
1.47355
-2.839e-05
1.45704
-2.82951e-05
1.44068
-2.81998e-05
1.42447
-2.81005e-05
1.40841
-2.80039e-05
1.39251
-2.7911e-05
1.37676
-2.782e-05
1.36117
-2.77264e-05
1.34574
-2.7637e-05
1.33046
-2.7547e-05
1.31535
-2.74637e-05
1.30039
-2.73714e-05
1.28559
-2.72883e-05
1.27095
-2.71949e-05
1.25646
-2.71184e-05
1.24212
-2.70224e-05
1.22793
-2.69487e-05
1.21388
-2.68409e-05
1.19996
-2.67767e-05
1.18619
-2.66514e-05
1.17254
-2.66141e-05
1.15901
-2.64369e-05
1.14561
-2.6474e-05
1.13232
-2.61753e-05
1.11915
-2.63911e-05
1.10609
-2.58353e-05
1.09315
-2.63835e-05
1.08031
-2.54198e-05
1.0676
-2.64526e-05
1.055
-2.49321e-05
1.04252
-2.66465e-05
1.03017
-2.42647e-05
1.01794
-2.70908e-05
1.00584
-2.34251e-05
0.993863
-2.74096e-05
0.982016
-2.32586e-05
0.970301
-2.65054e-05
0.958712
-2.38742e-05
0.947248
-2.3771e-05
0.935904
-1.49303e-05
0.924629
3.70512e-05
0.913177
0.000339947
0.899946
0.00224159
0.867952
0.0211195
0.0700729
0.787123
12.5701
0.000263055
12.4889
0.000219862
12.4078
0.00019955
12.3267
0.000205886
12.2457
0.000209679
12.1647
0.000212085
12.0837
0.000214809
12.0027
0.000217515
11.9217
0.000220005
11.8407
0.000222266
11.7596
0.000224295
11.6786
0.000226091
11.5976
0.000227638
11.5165
0.000228919
11.4355
0.000229993
11.3545
0.000230865
11.2735
0.000231553
11.1927
0.000232081
11.1119
0.000232474
11.0312
0.000232755
10.9506
0.000232945
10.8701
0.00023307
10.7898
0.000233135
10.7096
0.000233169
10.6295
0.000233169
10.5497
0.000233148
10.4699
0.000233118
10.3904
0.000233068
10.311
0.000233019
10.2318
0.000232958
10.1528
0.000232892
10.074
0.000232824
9.99545
0.000232748
9.91706
0.000232674
9.83888
0.000232595
9.76093
0.000232507
9.6832
0.000232426
9.6057
0.000232337
9.52845
0.000232242
9.45144
0.000232151
9.37468
0.00023206
9.29818
0.000231964
9.22195
0.000231858
9.14598
0.000231769
9.07029
0.000231671
8.99487
0.000231583
8.91975
0.000231491
8.84491
0.000231395
8.77037
0.000231298
8.69612
0.000231201
8.62217
0.000231107
8.54854
0.000231028
8.47524
0.00023096
8.40225
0.000230902
8.3296
0.000230851
8.25727
0.000230809
8.18527
0.000230763
8.11359
0.00023072
8.04224
0.000230682
7.97122
0.00023064
7.90054
0.000230586
7.83021
0.000230529
7.76022
0.000230468
7.69058
0.000230401
7.62129
0.000230333
7.55237
0.000230274
7.4838
0.000230218
7.4156
0.000230143
7.34777
0.000230037
7.28029
0.000229882
7.21317
0.000229644
7.14641
0.000229302
7.08001
0.00022882
7.01398
0.000228172
6.94832
0.000227321
6.88303
0.000226228
6.81812
0.000224852
6.7536
0.000223141
6.68946
0.000221035
6.62571
0.000218471
6.56234
0.000215377
6.49936
0.000211691
6.43677
0.000207352
6.37457
0.000202305
6.31276
0.000196518
6.25135
0.00018997
6.19034
0.000182659
6.12973
0.000174604
6.06953
0.000165847
6.00973
0.000156446
5.95035
0.000146478
5.89137
0.000136043
5.83282
0.000125248
5.77468
0.000114214
5.71697
0.000103068
5.65968
9.19399e-05
5.60282
8.09647e-05
5.54639
7.0266e-05
5.49039
5.99513e-05
5.43483
5.0119e-05
5.3797
4.08518e-05
5.32502
3.22168e-05
5.27077
2.42605e-05
5.21697
1.70132e-05
5.16361
1.04899e-05
5.1107
4.65992e-06
5.05823
-8.60013e-07
5.00621
-4.96127e-06
4.95463
-8.86508e-06
4.90349
-1.21733e-05
4.8528
-1.49635e-05
4.80255
-1.72927e-05
4.75274
-1.92177e-05
4.70336
-2.07908e-05
4.65443
-2.2065e-05
4.60593
-2.30784e-05
4.55787
-2.38767e-05
4.51024
-2.44979e-05
4.46305
-2.49771e-05
4.41629
-2.53353e-05
4.36996
-2.55994e-05
4.32406
-2.57906e-05
4.2786
-2.59258e-05
4.23357
-2.60132e-05
4.18897
-2.60671e-05
4.1448
-2.60956e-05
4.10105
-2.61061e-05
4.05773
-2.60977e-05
4.01483
-2.60777e-05
3.97235
-2.60496e-05
3.93028
-2.60183e-05
3.88862
-2.59781e-05
3.84737
-2.59339e-05
3.80651
-2.58867e-05
3.76605
-2.58363e-05
3.72597
-2.57861e-05
3.68627
-2.57298e-05
3.64694
-2.56728e-05
3.60799
-2.56133e-05
3.5694
-2.55533e-05
3.53116
-2.5492e-05
3.49328
-2.5425e-05
3.45574
-2.53571e-05
3.41855
-2.52863e-05
3.3817
-2.52161e-05
3.34517
-2.51438e-05
3.30898
-2.50683e-05
3.27311
-2.49921e-05
3.23757
-2.49167e-05
3.20234
-2.48411e-05
3.16743
-2.47599e-05
3.13282
-2.4679e-05
3.09853
-2.45969e-05
3.06453
-2.45161e-05
3.03085
-2.44304e-05
2.99746
-2.43464e-05
2.96438
-2.42635e-05
2.93159
-2.41837e-05
2.89912
-2.40967e-05
2.86694
-2.4016e-05
2.83508
-2.39337e-05
2.80352
-2.38578e-05
2.77228
-2.37762e-05
2.74136
-2.37016e-05
2.71075
-2.36212e-05
2.68046
-2.35538e-05
2.65049
-2.34686e-05
2.62083
-2.34077e-05
2.59149
-2.3312e-05
2.56245
-2.32665e-05
2.53371
-2.31589e-05
2.50527
-2.31297e-05
2.47711
-2.29911e-05
2.44923
-2.2999e-05
2.42162
-2.28022e-05
2.39426
-2.29021e-05
2.36716
-2.25504e-05
2.34029
-2.28897e-05
2.31366
-2.21597e-05
2.28726
-2.30604e-05
2.26109
-2.15384e-05
2.23514
-2.34654e-05
2.20942
-2.07023e-05
2.18394
-2.40738e-05
2.15868
-1.96481e-05
2.13368
-2.50321e-05
2.10891
-1.80514e-05
2.0844
-2.67108e-05
2.06013
-1.59382e-05
2.03614
-2.79905e-05
2.01239
-1.5796e-05
1.9889
-2.57341e-05
1.96567
-1.76676e-05
1.94269
-1.90564e-05
1.91994
1.12588e-05
1.89735
0.000155444
1.87438
0.00109206
1.84785
0.00678993
1.7982
0.0490216
0.173356
1.67341
150.841
-0.000263055
149.866
-0.000219862
148.893
-0.00019955
147.92
-0.000205886
146.948
-0.000209679
145.976
-0.000212085
145.004
-0.000214809
144.032
-0.000217515
143.06
-0.000220005
142.088
-0.000222266
141.115
-0.000224295
140.143
-0.000226091
139.171
-0.000227638
138.198
-0.000228919
137.226
-0.000229993
136.254
-0.000230865
135.282
-0.000231553
134.312
-0.000232081
133.342
-0.000232474
132.374
-0.000232755
131.407
-0.000232945
130.441
-0.00023307
129.477
-0.000233135
128.515
-0.000233169
127.554
-0.000233169
126.596
-0.000233148
125.639
-0.000233118
124.685
-0.000233068
123.732
-0.000233019
122.782
-0.000232958
121.834
-0.000232892
120.889
-0.000232824
119.945
-0.000232748
119.005
-0.000232674
118.067
-0.000232595
117.131
-0.000232507
116.198
-0.000232426
115.268
-0.000232337
114.341
-0.000232242
113.417
-0.000232151
112.496
-0.00023206
111.578
-0.000231964
110.663
-0.000231858
109.752
-0.000231769
108.843
-0.000231671
107.939
-0.000231583
107.037
-0.000231491
106.139
-0.000231395
105.244
-0.000231298
104.354
-0.000231201
103.466
-0.000231107
102.583
-0.000231028
101.703
-0.00023096
100.827
-0.000230902
99.9554
-0.000230851
99.0874
-0.000230809
98.2234
-0.000230763
97.3633
-0.00023072
96.5071
-0.000230682
95.6549
-0.00023064
94.8068
-0.000230586
93.9627
-0.000230529
93.1229
-0.000230468
92.2872
-0.000230401
91.4558
-0.000230333
90.6287
-0.000230274
89.806
-0.000230218
88.9876
-0.000230143
88.1736
-0.000230037
87.3639
-0.000229882
86.5585
-0.000229644
85.7574
-0.000229302
84.9606
-0.00022882
84.1682
-0.000228172
83.3803
-0.000227321
82.5969
-0.000226228
81.818
-0.000224852
81.0437
-0.000223141
80.274
-0.000221035
79.509
-0.000218471
78.7486
-0.000215377
77.9929
-0.000211691
77.2418
-0.000207352
76.4954
-0.000202305
75.7537
-0.000196518
75.0168
-0.00018997
74.2847
-0.000182659
73.5574
-0.000174604
72.8349
-0.000165847
72.1173
-0.000156446
71.4047
-0.000146478
70.697
-0.000136043
69.9943
-0.000125248
69.2967
-0.000114214
68.6041
-0.000103068
67.9166
-9.19399e-05
67.2343
-8.09647e-05
66.5571
-7.0266e-05
65.8851
-5.99513e-05
65.2183
-5.0119e-05
64.5568
-4.08518e-05
63.9006
-3.22169e-05
63.2496
-2.42605e-05
62.604
-1.70133e-05
61.9637
-1.04898e-05
61.3287
-4.66008e-06
60.6991
8.60188e-07
60.0748
4.9611e-06
59.4558
8.86526e-06
58.8422
1.21731e-05
58.2338
1.49637e-05
57.6308
1.72926e-05
57.0331
1.92179e-05
56.4406
2.07907e-05
55.8534
2.20651e-05
55.2714
2.30783e-05
54.6947
2.38768e-05
54.1231
2.44978e-05
53.5568
2.49772e-05
52.9957
2.53352e-05
52.4397
2.55995e-05
51.889
2.57905e-05
51.3435
2.59259e-05
50.8031
2.60131e-05
50.2679
2.60672e-05
49.7378
2.60953e-05
49.2129
2.61067e-05
48.693
2.60969e-05
48.1782
2.60786e-05
47.6685
2.60489e-05
47.1637
2.60187e-05
46.6637
2.59779e-05
46.1687
2.59339e-05
45.6784
2.58868e-05
45.1928
2.58362e-05
44.7118
2.5786e-05
44.2355
2.57303e-05
43.7636
2.56719e-05
43.2961
2.56149e-05
42.833
2.55515e-05
42.3742
2.54929e-05
41.9196
2.5425e-05
41.4692
2.53566e-05
41.0229
2.52865e-05
40.5806
2.5217e-05
40.1423
2.51422e-05
39.708
2.50699e-05
39.2776
2.49911e-05
38.8511
2.49171e-05
38.4283
2.48405e-05
38.0093
2.47612e-05
37.5941
2.46773e-05
37.1826
2.45983e-05
36.7747
2.45146e-05
36.3704
2.44331e-05
35.9698
2.43422e-05
35.5728
2.42692e-05
35.1794
2.41772e-05
34.7896
2.4104e-05
34.4036
2.4006e-05
34.0212
2.39451e-05
33.6425
2.38496e-05
33.2676
2.37837e-05
32.8965
2.3689e-05
32.5293
2.36366e-05
32.1658
2.35371e-05
31.8061
2.34912e-05
31.4502
2.33751e-05
31.0981
2.33554e-05
30.7496
2.32129e-05
30.4048
2.32293e-05
30.0635
2.30332e-05
29.7256
2.31198e-05
29.391
2.28221e-05
29.0596
2.30571e-05
28.7314
2.2524e-05
28.4061
2.31263e-05
28.0837
2.1998e-05
27.7642
2.35224e-05
27.4474
2.10245e-05
27.1333
2.44547e-05
26.8219
1.94667e-05
26.5133
2.59145e-05
26.2075
1.76152e-05
25.9045
2.73276e-05
25.6043
1.62289e-05
25.3072
2.79158e-05
25.013
1.58357e-05
24.7219
2.76879e-05
24.4339
1.5476e-05
24.1489
2.867e-05
23.8671
1.29834e-05
23.5883
3.13694e-05
23.3126
1.28263e-05
23.0399
3.58717e-05
22.7703
6.08501e-05
22.5044
0.000340138
22.2446
0.00274809
21.997
0.0358248
0.17008
21.7421
12.5701
-0.000330991
12.4889
-0.000241434
12.4078
-0.000235552
12.3267
-0.000240361
12.2457
-0.000244087
12.1647
-0.000247341
12.0837
-0.000250612
12.0027
-0.000253733
11.9217
-0.000256612
11.8407
-0.000259227
11.7596
-0.000261567
11.6786
-0.000263634
11.5976
-0.000265413
11.5165
-0.000266874
11.4355
-0.000268102
11.3545
-0.000269094
11.2735
-0.000269872
11.1927
-0.000270465
11.1119
-0.000270901
11.0312
-0.000271207
10.9506
-0.000271407
10.8701
-0.000271533
10.7898
-0.000271588
10.7096
-0.00027161
10.6295
-0.000271588
10.5497
-0.000271546
10.4699
-0.000271493
10.3904
-0.000271412
10.311
-0.00027134
10.2318
-0.000271246
10.1528
-0.000271153
10.074
-0.000271055
9.99545
-0.000270948
9.91706
-0.000270843
9.83888
-0.000270732
9.76093
-0.000270609
9.6832
-0.000270499
9.6057
-0.000270374
9.52845
-0.000270245
9.45144
-0.000270121
9.37468
-0.000269996
9.29818
-0.000269866
9.22195
-0.000269721
9.14598
-0.000269603
9.07029
-0.000269466
8.99487
-0.000269348
8.91975
-0.000269221
8.84491
-0.000269091
8.77037
-0.00026896
8.69612
-0.000268826
8.62217
-0.000268697
8.54854
-0.000268585
8.47524
-0.000268488
8.40225
-0.000268403
8.3296
-0.000268324
8.25727
-0.000268255
8.18527
-0.000268182
8.11359
-0.000268111
8.04224
-0.000268049
7.97122
-0.00026798
7.90054
-0.000267898
7.83021
-0.000267814
7.76022
-0.000267722
7.69058
-0.000267624
7.62129
-0.000267526
7.55237
-0.00026744
7.4838
-0.00026736
7.4156
-0.000267258
7.34777
-0.000267121
7.28029
-0.000266931
7.21317
-0.000266646
7.14641
-0.000266246
7.08001
-0.000265687
7.01398
-0.000264943
6.94832
-0.000263968
6.88303
-0.000262723
6.81812
-0.000261158
6.7536
-0.000259214
6.68946
-0.000256827
6.62571
-0.000253919
6.56234
-0.000250411
6.49936
-0.00024623
6.43677
-0.000241303
6.37457
-0.000235567
6.31276
-0.000228981
6.25135
-0.00022152
6.19034
-0.000213175
6.12973
-0.000203969
6.06953
-0.000193944
6.00973
-0.000183163
5.95035
-0.00017171
5.89137
-0.0001597
5.83282
-0.000147252
5.77468
-0.000134504
5.71697
-0.000121602
5.65968
-0.000108695
5.60282
-9.59376e-05
5.54639
-8.34716e-05
5.49039
-7.14289e-05
5.43483
-5.99259e-05
5.3797
-4.90621e-05
5.32502
-3.8919e-05
5.27077
-2.95527e-05
5.21697
-2.10008e-05
5.16361
-1.3279e-05
5.1107
-6.37156e-06
5.05823
-1.45537e-07
5.00621
5.10313e-06
4.95463
9.7386e-06
4.90349
1.36962e-05
4.8528
1.70397e-05
4.80255
1.98323e-05
4.75274
2.21421e-05
4.70336
2.40312e-05
4.65443
2.5563e-05
4.60593
2.67823e-05
4.55787
2.77442e-05
4.51024
2.84931e-05
4.46305
2.90717e-05
4.41629
2.9504e-05
4.36996
2.98239e-05
4.32406
3.00551e-05
4.2786
3.02193e-05
4.23357
3.03254e-05
4.18897
3.03915e-05
4.1448
3.04269e-05
4.10105
3.0441e-05
4.05773
3.04312e-05
4.01483
3.04097e-05
3.97235
3.03763e-05
3.93028
3.03409e-05
3.88862
3.02936e-05
3.84737
3.02423e-05
3.80651
3.01873e-05
3.76605
3.01284e-05
3.72597
3.00701e-05
3.68627
3.00044e-05
3.64694
2.99374e-05
3.60799
2.98693e-05
3.5694
2.97973e-05
3.53116
2.97273e-05
3.49328
2.96487e-05
3.45574
2.95693e-05
3.41855
2.94869e-05
3.3817
2.94056e-05
3.34517
2.93202e-05
3.30898
2.92332e-05
3.27311
2.91434e-05
3.23757
2.90559e-05
3.20234
2.89676e-05
3.16743
2.88737e-05
3.13282
2.87773e-05
3.09853
2.86838e-05
3.06453
2.85881e-05
3.03085
2.84896e-05
2.99746
2.83888e-05
2.96438
2.82971e-05
2.93159
2.81974e-05
2.89912
2.81028e-05
2.86694
2.80009e-05
2.83508
2.7915e-05
2.80352
2.7817e-05
2.77228
2.77287e-05
2.74136
2.76329e-05
2.71075
2.7552e-05
2.68046
2.74583e-05
2.65049
2.73789e-05
2.62083
2.72773e-05
2.59149
2.72096e-05
2.56245
2.71004e-05
2.53371
2.70462e-05
2.50527
2.69162e-05
2.47711
2.68839e-05
2.44923
2.67173e-05
2.42162
2.67364e-05
2.39426
2.64885e-05
2.36716
2.66294e-05
2.34029
2.61748e-05
2.31366
2.6636e-05
2.28726
2.56962e-05
2.26109
2.68392e-05
2.23514
2.49933e-05
2.20942
2.72484e-05
2.18393
2.41707e-05
2.15869
2.76604e-05
2.13367
2.35185e-05
2.10891
2.77567e-05
2.08439
2.32766e-05
2.06014
2.74983e-05
2.03613
2.31083e-05
2.01239
2.7644e-05
1.9889
2.21834e-05
1.96567
2.84338e-05
1.94269
2.2092e-05
1.91998
3.01686e-05
1.89752
4.03513e-05
1.87549
0.000152363
1.85492
0.00134174
1.8417
0.0273016
0.0841908
1.90607
6.28466
6.24379
6.20297
6.16218
6.12141
6.08064
6.03988
5.99912
5.95834
5.91755
5.87676
5.83596
5.79516
5.75435
5.71355
5.67276
5.63199
5.59127
5.55058
5.50994
5.46936
5.42883
5.38837
5.34798
5.30767
5.26744
5.2273
5.18723
5.14726
5.10738
5.06759
5.0279
4.98831
4.94883
4.90945
4.87018
4.83103
4.79199
4.75308
4.71428
4.67562
4.63708
4.59867
4.5604
4.52227
4.48427
4.44642
4.40871
4.37115
4.33374
4.29648
4.25938
4.22244
4.18566
4.14905
4.1126
4.07631
4.04018
4.00422
3.96843
3.9328
3.89735
3.86207
3.82696
3.79203
3.75729
3.72272
3.68833
3.65413
3.62011
3.58626
3.5526
3.51911
3.48581
3.4527
3.41978
3.38704
3.3545
3.32216
3.29001
3.25806
3.22631
3.19476
3.1634
3.13226
3.10131
3.07058
3.04006
3.00975
2.97965
2.94977
2.92012
2.89068
2.86147
2.83248
2.80372
2.77519
2.74688
2.7188
2.69096
2.66334
2.63596
2.6088
2.58188
2.55519
2.52872
2.50249
2.47648
2.4507
2.42515
2.39982
2.37471
2.34983
2.32517
2.30073
2.27651
2.25251
2.22873
2.20516
2.18181
2.15868
2.13577
2.11307
2.09058
2.06832
2.04626
2.02442
2.0028
1.98138
1.96017
1.93917
1.91837
1.89778
1.87738
1.85718
1.83717
1.81736
1.79773
1.77828
1.75902
1.73993
1.72102
1.70229
1.68372
1.66532
1.6471
1.62903
1.61113
1.59339
1.5758
1.55838
1.54111
1.52399
1.50702
1.49021
1.47355
1.45704
1.44068
1.42447
1.40841
1.39251
1.37676
1.36117
1.34574
1.33046
1.31535
1.30039
1.28559
1.27095
1.25646
1.24212
1.22793
1.21388
1.19996
1.18619
1.17254
1.15901
1.14561
1.13232
1.11915
1.10609
1.09315
1.08032
1.0676
1.055
1.04252
1.03017
1.01794
1.00584
0.993861
0.982018
0.970299
0.958714
0.947249
0.935919
0.924723
0.913761
0.904116
0.920549
0.993978
0.753846
0.0305795
0.73925
0.011903
0.730245
0.00631752
0.735066
-0.00750255
0.746738
-0.0143487
0.744297
-0.000231247
0.723871
0.0177585
0.688337
0.0328727
0.654908
0.0307732
0.676426
-0.0241618
0.775933
-0.102142
0.930717
-0.157415
1.10167
-0.173579
1.20367
-0.104629
1.17606
0.0249819
1.07794
0.0954964
0.946972
0.128342
0.828046
0.116321
0.758769
0.0666885
-0.0326156
0.788807
1.63681
0.0619211
1.61209
0.031374
1.60122
0.0119423
1.61683
-0.0283401
1.64922
-0.0519564
1.65362
-0.00983912
1.62769
0.0384917
1.55968
0.0956956
1.46706
0.118224
1.45552
-0.0177726
1.56963
-0.221384
1.78028
-0.373199
2.07184
-0.470268
2.33374
-0.371655
2.39347
-0.039866
2.33806
0.145815
2.17819
0.283116
1.9435
0.345936
1.69997
0.305176
0.0864209
1.5759
21.7122
0.0429642
21.6561
0.0387534
21.5684
0.0508756
21.4319
0.059615
21.2674
0.0639896
21.1435
0.0656574
21.068
0.0656803
21.0507
0.06484
21.0571
0.0637366
20.9279
0.063415
20.5943
0.0643011
20.1094
0.0638255
19.5327
0.0588041
19.0637
0.0497581
18.9341
0.0421197
18.9929
0.0395878
19.1887
0.039975
19.4475
0.0400098
19.6678
0.0377923
0.0282905
19.6789
1.91007
0.0360709
1.92935
0.0165948
1.95721
0.0201382
1.99124
0.0227099
2.02912
0.02325
2.06861
0.0233034
2.10853
0.0229024
2.14835
0.02217
2.18771
0.0215361
2.2268
0.0214911
2.26617
0.0220928
2.30494
0.0222308
2.3404
0.0205244
2.37009
0.017254
2.39495
0.0144449
2.41822
0.0135172
2.44211
0.01328
2.46691
0.0124174
2.49443
0.00749317
-0.0132432
2.53317
1.02867
1.04389
1.06266
1.08401
1.10589
1.12783
1.14938
1.17019
1.19038
1.21052
1.23126
1.25215
1.27134
1.28725
1.30037
1.31255
1.32451
1.3356
1.34177
1.32721
1.301
-0.520158
1.72475
-0.431672
1.80513
-0.0882908
1.69208
0.105254
1.63589
0.0484881
1.97001
-0.341677
2.21424
-0.251826
2.1597
0.0470815
2.0491
0.103303
2.40535
-0.363401
2.5198
-0.121769
2.35185
0.160776
1.98065
0.364205
2.23193
-0.2579
2.8622
-0.637185
2.88044
-0.0252216
2.53473
0.338993
1.88385
0.644234
1.71291
0.164391
2.56303
-0.856346
3.23428
-0.678065
3.1151
0.11266
2.55226
0.556677
1.66939
0.876741
1.40884
0.25564
2.27004
-0.8667
3.40412
-1.14031
3.46739
-0.0698686
2.96522
0.496503
2.06914
0.890628
1.60554
0.458244
2.3183
-0.717205
3.63316
-1.3199
4.27076
-0.644607
4.14645
0.117363
3.86445
0.276375
3.59535
0.263557
3.39011
0.19974
3.20345
0.181272
2.90188
0.296291
2.36344
0.53329
1.57603
0.782333
0.910102
0.660918
1.20688
-0.30124
2.29734
-1.09416
3.70712
-1.41444
4.22844
-0.527805
4.04885
0.174641
3.73835
0.306034
3.46359
0.270216
3.28475
0.174271
3.18469
0.0955529
3.12981
0.0504309
3.09845
0.0269541
3.07865
0.0154408
3.06445
0.00989954
3.053
0.00721051
3.04299
0.00586673
3.03378
0.00515818
3.02508
0.00475279
3.01675
0.00449396
3.00872
0.00428985
3.00095
0.00411306
2.99346
0.00390304
2.9863
0.00363632
2.97939
0.00343788
2.97265
0.00332203
2.96601
0.00326528
2.95942
0.0032431
2.95289
0.00323908
2.94638
0.00324252
2.93991
0.00324675
2.93348
0.00324777
2.92709
0.00324472
2.92076
0.00323546
2.91449
0.00320496
2.90832
0.0031658
2.90223
0.00311936
2.89625
0.00306967
2.89036
0.00302605
2.88454
0.00300291
2.87876
0.00302126
2.87295
0.00311215
2.86698
0.0033191
2.86066
0.00371725
2.85368
0.00443845
2.84542
0.00576957
2.83459
0.00836838
2.81844
0.0137309
2.79093
0.0251284
2.74013
0.0484506
2.64822
0.0895981
2.49813
0.147843
2.28241
0.213563
2.02038
0.259964
1.83563
0.182795
2.02716
-0.193368
2.47985
-0.454792
2.91886
-0.44134
3.07793
-0.161397
3.00344
0.0723974
2.87018
0.131397
2.733
0.135343
2.61951
0.11168
2.5328
0.0849116
2.46789
0.0631855
2.41699
0.0491902
2.37273
0.0425785
2.32859
0.042477
2.27976
0.0471841
2.22322
0.0548895
2.15706
0.0645203
2.07898
0.0764703
1.98568
0.0916917
1.87269
0.111394
1.73493
0.136068
1.5687
0.164564
1.37573
0.191423
1.16713
0.207151
0.962505
0.203276
0.783953
0.177138
0.644871
0.137652
0.545557
0.0978996
0.477905
0.0662623
0.432288
0.0442592
0.401173
0.0297881
0.37954
0.0203365
0.364208
0.0140661
0.353154
0.00981994
0.345056
0.00689406
0.339029
0.00485226
0.334468
0.00341585
0.330949
0.00240071
0.328173
0.00168199
0.325929
0.00117325
0.324064
0.000813769
0.322469
0.000560482
0.321066
0.000382683
0.319796
0.000258415
0.318619
0.000171981
0.317506
0.000112172
0.316434
7.10166e-05
0.315387
4.28557e-05
0.314356
2.37028e-05
0.31333
1.07192e-05
0.312305
1.8784e-06
0.311276
-4.03565e-06
0.310242
-7.86998e-06
0.309199
-1.03694e-05
0.308149
-1.19615e-05
0.307091
-1.2999e-05
0.306025
-1.36835e-05
0.304954
-1.41171e-05
0.303878
-1.43839e-05
0.3028
-1.45556e-05
0.30172
-1.46547e-05
0.300642
-1.47229e-05
0.299568
-1.47603e-05
0.298499
-1.47861e-05
0.297436
-1.47938e-05
0.296383
-1.47956e-05
0.29534
-1.47857e-05
0.294308
-1.47867e-05
0.293288
-1.47759e-05
0.292281
-1.4787e-05
0.291286
-1.47723e-05
0.290303
-1.47821e-05
0.289333
-1.4757e-05
0.288373
-1.47647e-05
0.287422
-1.47345e-05
0.286481
-1.47552e-05
0.285545
-1.47134e-05
0.284616
-1.47585e-05
0.28369
-1.46945e-05
0.282766
-1.47693e-05
0.281843
-1.46511e-05
0.280919
-1.48075e-05
0.279994
-1.45768e-05
0.279067
-1.48736e-05
0.278137
-1.44766e-05
0.277205
-1.49487e-05
0.276269
-1.43846e-05
0.275331
-1.50083e-05
0.27439
-1.43569e-05
0.273448
-1.50219e-05
0.272504
-1.4369e-05
0.27156
-1.50492e-05
0.270615
-1.43186e-05
0.269672
-1.52081e-05
0.268728
-1.41478e-05
0.267785
-1.51377e-05
0.266843
-1.408e-05
0.265901
-1.4196e-05
0.264958
-1.11246e-05
0.264005
-1.45418e-06
0.263011
3.99531e-05
0.261866
0.000190794
0.260479
0.000432792
0.266886
-0.00736078
-0.0146768
0.280608
2.07735
-1.03761
2.79659
-1.16673
2.90853
-0.215989
2.49914
0.499038
2.21351
0.318518
2.82321
-0.966474
3.34523
-0.78883
3.0889
0.2886
2.64131
0.536094
3.33314
-1.06963
3.66695
-0.469999
3.11115
0.702417
2.13322
1.32799
2.56726
-0.705388
4.01647
-2.10012
4.12933
-0.15153
2.99663
1.45836
1.47448
2.15283
1.37242
0.253185
3.14068
-2.63699
4.63421
-2.18505
4.26345
0.470887
2.49765
2.31
0.78009
2.58166
0.851124
0.174753
2.47841
-2.50497
4.75433
-3.42852
4.98468
-0.312503
3.43337
2.03651
1.37316
2.93943
0.836942
0.983402
2.22478
-2.11396
4.69046
-3.79561
6.40032
-2.36809
6.63012
-0.125551
6.35411
0.541193
6.05232
0.554249
5.81131
0.429763
5.53223
0.449572
4.89369
0.924302
3.38741
2.02931
1.12347
3.03589
-0.0372838
1.8114
0.71445
-1.06184
2.2936
-2.68071
4.89669
-4.02684
6.42523
-2.06896
6.52749
0.0630293
6.18984
0.634745
5.86653
0.584428
5.66405
0.367633
5.55604
0.194556
5.49628
0.101296
5.45964
0.054796
5.43366
0.0327122
5.4126
0.0223543
5.39391
0.017431
5.37647
0.0150086
5.3598
0.0137342
5.34367
0.0129853
5.32801
0.0124755
5.31279
0.0120172
5.29801
0.0115798
5.28373
0.0110082
5.27008
0.0102397
5.25692
0.00966358
5.24408
0.00931902
5.23146
0.0091342
5.21899
0.00904068
5.20664
0.00899689
5.19439
0.00897806
5.18222
0.00897102
5.17013
0.00897044
5.15811
0.00898113
5.14614
0.00900403
5.13423
0.00899517
5.12237
0.0090044
5.11051
0.00904244
5.09862
0.00913111
5.08661
0.00930986
5.07435
0.00963626
5.06166
0.0101918
5.04827
0.0110945
5.03377
0.0125077
5.01758
0.0147076
4.99876
0.0181632
4.97566
0.0238757
4.94499
0.0341246
4.89973
0.0541689
4.82407
0.0960195
4.68412
0.183697
4.41804
0.351061
3.93493
0.626407
3.15797
0.986163
2.22356
1.19024
1.63365
0.768802
1.93358
-0.497028
2.77801
-1.3034
3.76304
-1.43104
4.40351
-0.806527
4.57491
-0.103149
4.5123
0.19023
4.3743
0.269656
4.23454
0.247803
4.11169
0.204166
4.0071
0.164344
3.91343
0.13945
3.82123
0.131369
3.7206
0.139753
3.60415
0.160345
3.46817
0.187619
3.31204
0.217406
3.13545
0.249741
2.93803
0.285658
2.71861
0.327508
2.47619
0.375303
2.21234
0.425349
1.93635
0.464576
1.66691
0.473745
1.42548
0.441828
1.22767
0.372037
1.07757
0.284874
0.969227
0.20341
0.892665
0.140052
0.838559
0.0956521
0.799885
0.0658095
0.771818
0.0458113
0.751135
0.0322184
0.735668
0.0228173
0.723933
0.0162214
0.71489
0.0115469
0.707801
0.00821394
0.702134
0.00583033
0.697505
0.00412471
0.693631
0.00290571
0.690306
0.00203672
0.687378
0.00141945
0.684735
0.000982853
0.682295
0.000675549
0.679998
0.000460389
0.677797
0.000310582
0.675659
0.000206892
0.673559
0.000135549
0.67148
8.67724e-05
0.669407
5.36145e-05
0.667331
3.11854e-05
0.665246
1.61779e-05
0.663146
6.1916e-06
0.661031
-4.48155e-07
0.6589
-4.7559e-06
0.656752
-7.60932e-06
0.654589
-9.46049e-06
0.652415
-1.06652e-05
0.650231
-1.14186e-05
0.648043
-1.19139e-05
0.645852
-1.22057e-05
0.643665
-1.24076e-05
0.641484
-1.25189e-05
0.639314
-1.25987e-05
0.637158
-1.26338e-05
0.635019
-1.26609e-05
0.632901
-1.26558e-05
0.630806
-1.26774e-05
0.628734
-1.26547e-05
0.626688
-1.26893e-05
0.624666
-1.26521e-05
0.62267
-1.26901e-05
0.620696
-1.26393e-05
0.618745
-1.26782e-05
0.616813
-1.26157e-05
0.614897
-1.26787e-05
0.612996
-1.25824e-05
0.611105
-1.27017e-05
0.609221
-1.25396e-05
0.607342
-1.27449e-05
0.605464
-1.2443e-05
0.603586
-1.28401e-05
0.601704
-1.22631e-05
0.599819
-1.30137e-05
0.597927
-1.20552e-05
0.596031
-1.319e-05
0.594128
-1.18916e-05
0.59222
-1.33038e-05
0.590307
-1.18304e-05
0.588391
-1.33381e-05
0.586472
-1.17855e-05
0.584552
-1.34774e-05
0.582631
-1.1579e-05
0.580712
-1.39796e-05
0.578793
-1.10835e-05
0.576877
-1.37826e-05
0.574961
-1.0879e-05
0.573046
-1.11899e-05
0.571128
-2.54149e-06
0.569189
2.77591e-05
0.567162
0.000159576
0.564786
0.000658397
0.561254
0.00205758
0.549285
0.00270082
-0.000955141
0.533651
18.2631
0.18497
16.7401
0.16483
16.1837
0.150991
16.2558
0.239333
16.0406
0.348168
14.5787
0.311694
13.4165
0.192004
13.3266
0.199398
13.4107
0.275014
11.9369
0.229084
11.1825
0.111751
11.5766
0.137111
12.4858
0.249326
11.307
0.305048
8.94243
0.0988164
8.61512
0.0118045
9.8469
0.0640717
11.6239
0.214684
11.3342
0.383395
8.30916
0.228768
6.0863
-0.119235
6.52466
-0.122938
8.61912
0.0619061
10.8162
0.23116
10.4194
0.416259
7.43897
0.323971
3.98677
-0.124445
3.82784
-0.297469
5.73345
-0.00918503
8.34794
0.188048
8.78587
0.411455
6.17796
0.360939
2.17763
0.072123
-0.00456447
-0.3081
-0.089085
-0.180829
0.354962
-0.0383988
0.773312
0.00303755
1.08643
-0.0140858
1.43871
-0.0314418
2.24606
-0.00967908
4.09989
0.0509652
6.85135
0.16112
8.24803
0.292652
6.68705
0.37811
3.58548
0.300779
-0.420768
-0.139461
-2.20925
-0.391255
-2.07763
-0.180165
-1.54324
-0.00926293
-1.09918
0.0317995
-0.887017
0.0475037
-0.849725
0.0501508
-0.901455
0.0468275
-0.99311
0.0411584
-1.09969
0.0349686
-1.20945
0.0290001
-1.31716
0.0236094
-1.42054
0.018861
-1.51867
0.0147021
-1.61154
0.0112237
-1.69903
0.00784434
-1.78145
0.00464183
-1.85952
0.00190413
-1.93125
-0.00323313
-1.99876
-0.00672313
-2.06417
-0.00811202
-2.12821
-0.00868822
-2.1912
-0.00890337
-2.25328
-0.00894262
-2.31454
-0.00887465
-2.37505
-0.00874157
-2.43482
-0.00857766
-2.49385
-0.00841556
-2.55206
-0.0082754
-2.60923
-0.00830319
-2.66523
-0.00842244
-2.71986
-0.00867674
-2.77282
-0.00914398
-2.82382
-0.00984163
-2.87247
-0.0108039
-2.91833
-0.0120753
-2.96076
-0.0137306
-2.99884
-0.0159144
-3.03126
-0.0188873
-3.05598
-0.0230852
-3.06974
-0.02932
-3.06738
-0.0385367
-3.04093
-0.0513514
-2.97811
-0.0667642
-2.85878
-0.08061
-2.64808
-0.0834812
-2.29006
-0.0624914
-1.68006
-0.0377227
-0.746343
0.000358329
0.355411
0.0388387
0.952408
0.124082
0.268393
0.137796
-1.08393
-0.00467452
-2.27816
-0.290243
-2.72304
-0.412197
-2.46772
-0.406126
-1.92928
-0.393764
-1.28496
-0.418863
-0.610562
-0.470124
0.0604807
-0.510036
0.683353
-0.499496
1.21282
-0.430699
1.63379
-0.329914
1.98119
-0.24748
2.29724
-0.195119
2.64502
-0.199261
3.06943
-0.245843
3.56413
-0.283568
4.10791
-0.296472
4.67525