/*--------------------------------*- C++ -*----------------------------------*\
| =========                 |                                                 |
| \\      /  F ield         | OpenFOAM: The Open Source CFD Toolbox           |
|  \\    /   O peration     | Version:  3.0.x                                 |
|   \\  /    A nd           | Web:      www.OpenFOAM.org                      |
|    \\/     M anipulation  |                                                 |
\*---------------------------------------------------------------------------*/
FoamFile
{
    version     2.0;
    format      ascii;
    class       volVectorField;
    location    "0.6";
    object      U;
}
// * * * * * * * * * * * * * * * * * * * * * * * * * * * * * * * * * * * * * //

dimensions      [0 1 -1 0 0 0 0];

internalField   nonuniform List<vector> 
6900
(
(42.5945 9.36444e-05 0)
(42.3303 8.66523e-05 0)
(42.0156 8.55019e-05 0)
(41.7185 8.73723e-05 0)
(41.4394 8.91268e-05 0)
(41.1641 9.06411e-05 0)
(40.8869 9.2045e-05 0)
(40.6083 9.33314e-05 0)
(40.3299 9.44892e-05 0)
(40.052 9.55199e-05 0)
(39.7745 9.64276e-05 0)
(39.4974 9.72174e-05 0)
(39.2205 9.78913e-05 0)
(38.944 9.84488e-05 0)
(38.6681 9.89095e-05 0)
(38.3926 9.92798e-05 0)
(38.1175 9.95695e-05 0)
(37.8428 9.97901e-05 0)
(37.5686 9.99523e-05 0)
(37.2949 0.000100067 0)
(37.0217 0.000100142 0)
(36.7489 0.00010019 0)
(36.4768 0.000100212 0)
(36.2051 0.000100221 0)
(35.9341 0.000100216 0)
(35.6636 0.000100203 0)
(35.3938 0.000100186 0)
(35.1246 0.000100161 0)
(34.856 0.000100137 0)
(34.5881 0.000100108 0)
(34.3208 0.000100079 0)
(34.0543 0.000100048 0)
(33.7885 0.000100015 0)
(33.5234 9.9983e-05 0)
(33.2591 9.99496e-05 0)
(32.9956 9.99136e-05 0)
(32.7329 9.98801e-05 0)
(32.471 9.98443e-05 0)
(32.2099 9.98073e-05 0)
(31.9497 9.97716e-05 0)
(31.6903 9.97364e-05 0)
(31.4319 9.97003e-05 0)
(31.1743 9.96614e-05 0)
(30.9177 9.96282e-05 0)
(30.662 9.95931e-05 0)
(30.4073 9.95623e-05 0)
(30.1536 9.95311e-05 0)
(29.9008 9.94994e-05 0)
(29.6491 9.94678e-05 0)
(29.3983 9.94357e-05 0)
(29.1486 9.9405e-05 0)
(28.9 9.93801e-05 0)
(28.6524 9.93611e-05 0)
(28.4059 9.9348e-05 0)
(28.1604 9.93392e-05 0)
(27.9161 9.93348e-05 0)
(27.6729 9.93304e-05 0)
(27.4307 9.93264e-05 0)
(27.1897 9.9324e-05 0)
(26.9499 9.93201e-05 0)
(26.7111 9.9313e-05 0)
(26.4735 9.93052e-05 0)
(26.2371 9.92961e-05 0)
(26.0019 9.92855e-05 0)
(25.7678 9.92749e-05 0)
(25.5349 9.92678e-05 0)
(25.3031 9.92627e-05 0)
(25.0726 9.92529e-05 0)
(24.8433 9.92324e-05 0)
(24.6152 9.91932e-05 0)
(24.3883 9.91219e-05 0)
(24.1626 9.90072e-05 0)
(23.9381 9.88352e-05 0)
(23.7149 9.85945e-05 0)
(23.4929 9.82704e-05 0)
(23.2722 9.78483e-05 0)
(23.0527 9.73108e-05 0)
(22.8345 9.66365e-05 0)
(22.6176 9.58013e-05 0)
(22.4019 9.47771e-05 0)
(22.1876 9.35347e-05 0)
(21.9746 9.2046e-05 0)
(21.7629 9.02846e-05 0)
(21.5525 8.82273e-05 0)
(21.3435 8.58582e-05 0)
(21.1359 8.31679e-05 0)
(20.9296 8.0154e-05 0)
(20.7248 7.68235e-05 0)
(20.5213 7.31923e-05 0)
(20.3193 6.92848e-05 0)
(20.1187 6.51326e-05 0)
(19.9195 6.07699e-05 0)
(19.7219 5.62372e-05 0)
(19.5256 5.15809e-05 0)
(19.3309 4.68515e-05 0)
(19.1377 4.21025e-05 0)
(18.9459 3.73892e-05 0)
(18.7557 3.27645e-05 0)
(18.5669 2.82766e-05 0)
(18.3797 2.39666e-05 0)
(18.194 1.98675e-05 0)
(18.0099 1.60055e-05 0)
(17.8272 1.23981e-05 0)
(17.6461 9.05566e-06 0)
(17.4665 5.97828e-06 0)
(17.2884 3.14183e-06 0)
(17.1118 3.88138e-07 0)
(16.9367 -1.39502e-06 0)
(16.7631 -3.01321e-06 0)
(16.591 -4.4183e-06 0)
(16.4204 -5.6175e-06 0)
(16.2513 -6.62626e-06 0)
(16.0837 -7.46498e-06 0)
(15.9175 -8.15382e-06 0)
(15.7527 -8.71452e-06 0)
(15.5895 -9.16268e-06 0)
(15.4276 -9.51748e-06 0)
(15.2672 -9.79475e-06 0)
(15.1083 -1.00097e-05 0)
(14.9507 -1.01715e-05 0)
(14.7946 -1.02918e-05 0)
(14.64 -1.03797e-05 0)
(14.4867 -1.04428e-05 0)
(14.3349 -1.04847e-05 0)
(14.1845 -1.05118e-05 0)
(14.0356 -1.05275e-05 0)
(13.888 -1.05354e-05 0)
(13.7418 -1.05349e-05 0)
(13.5971 -1.05296e-05 0)
(13.4537 -1.05205e-05 0)
(13.3117 -1.05101e-05 0)
(13.1711 -1.04962e-05 0)
(13.0318 -1.04808e-05 0)
(12.8938 -1.04642e-05 0)
(12.7571 -1.04463e-05 0)
(12.6218 -1.04287e-05 0)
(12.4876 -1.04089e-05 0)
(12.3548 -1.03888e-05 0)
(12.2231 -1.03683e-05 0)
(12.0927 -1.0347e-05 0)
(11.9634 -1.03261e-05 0)
(11.8353 -1.03027e-05 0)
(11.7083 -1.02792e-05 0)
(11.5825 -1.02546e-05 0)
(11.4578 -1.02302e-05 0)
(11.3342 -1.02053e-05 0)
(11.2117 -1.01793e-05 0)
(11.0903 -1.01531e-05 0)
(10.9699 -1.01271e-05 0)
(10.8506 -1.01014e-05 0)
(10.7323 -1.00737e-05 0)
(10.615 -1.00454e-05 0)
(10.4988 -1.00174e-05 0)
(10.3835 -9.98943e-06 0)
(10.2693 -9.95994e-06 0)
(10.156 -9.93032e-06 0)
(10.0437 -9.90225e-06 0)
(9.93245 -9.87376e-06 0)
(9.82217 -9.844e-06 0)
(9.71288 -9.81448e-06 0)
(9.60462 -9.78636e-06 0)
(9.49737 -9.75844e-06 0)
(9.39115 -9.7297e-06 0)
(9.28597 -9.70182e-06 0)
(9.18185 -9.67387e-06 0)
(9.07877 -9.64758e-06 0)
(8.97675 -9.619e-06 0)
(8.87578 -9.59174e-06 0)
(8.77585 -9.56358e-06 0)
(8.67694 -9.53766e-06 0)
(8.57905 -9.50983e-06 0)
(8.48215 -9.48372e-06 0)
(8.3862 -9.4541e-06 0)
(8.29119 -9.42849e-06 0)
(8.19708 -9.39772e-06 0)
(8.10385 -9.37469e-06 0)
(8.01145 -9.338e-06 0)
(7.91986 -9.3224e-06 0)
(7.82905 -9.27338e-06 0)
(7.73902 -9.27585e-06 0)
(7.64973 -9.20109e-06 0)
(7.5612 -9.23715e-06 0)
(7.47342 -9.12457e-06 0)
(7.3864 -9.20844e-06 0)
(7.30015 -9.05524e-06 0)
(7.21469 -9.18709e-06 0)
(7.13004 -8.99772e-06 0)
(7.04622 -9.19155e-06 0)
(6.96324 -8.9364e-06 0)
(6.88112 -9.21021e-06 0)
(6.79985 -8.87862e-06 0)
(6.71945 -9.10374e-06 0)
(6.63991 -8.89163e-06 0)
(6.56121 -8.74177e-06 0)
(6.48334 -9.01508e-06 0)
(6.40614 -4.24484e-06 0)
(6.32881 1.34449e-05 0)
(6.24574 0.000158291 0)
(6.1501 0.00359559 0)
(5.66268 0.0117607 0)
(42.5962 0.000118733 0)
(42.3336 9.27156e-05 0)
(42.0206 8.28692e-05 0)
(41.7252 8.34111e-05 0)
(41.4478 8.44922e-05 0)
(41.1744 8.53362e-05 0)
(40.899 8.62665e-05 0)
(40.6222 8.7223e-05 0)
(40.3456 8.81328e-05 0)
(40.0695 8.89737e-05 0)
(39.794 8.97377e-05 0)
(39.5187 9.04206e-05 0)
(39.2437 9.10135e-05 0)
(38.9692 9.15055e-05 0)
(38.6952 9.19207e-05 0)
(38.4217 9.22592e-05 0)
(38.1485 9.2527e-05 0)
(37.8758 9.27335e-05 0)
(37.6035 9.28874e-05 0)
(37.3318 9.29978e-05 0)
(37.0605 9.30731e-05 0)
(36.7897 9.31232e-05 0)
(36.5195 9.31496e-05 0)
(36.2499 9.31645e-05 0)
(35.9808 9.31658e-05 0)
(35.7123 9.31591e-05 0)
(35.4444 9.31495e-05 0)
(35.1771 9.31307e-05 0)
(34.9105 9.31137e-05 0)
(34.6446 9.30912e-05 0)
(34.3793 9.30675e-05 0)
(34.1147 9.30427e-05 0)
(33.8509 9.30146e-05 0)
(33.5878 9.29875e-05 0)
(33.3254 9.29584e-05 0)
(33.0639 9.29252e-05 0)
(32.8031 9.28958e-05 0)
(32.5431 9.28624e-05 0)
(32.284 9.28269e-05 0)
(32.0258 9.27931e-05 0)
(31.7684 9.27593e-05 0)
(31.5119 9.27234e-05 0)
(31.2563 9.2683e-05 0)
(31.0016 9.26504e-05 0)
(30.7479 9.26133e-05 0)
(30.4951 9.25811e-05 0)
(30.2433 9.25466e-05 0)
(29.9925 9.25102e-05 0)
(29.7427 9.24735e-05 0)
(29.4939 9.24363e-05 0)
(29.2462 9.24008e-05 0)
(28.9995 9.23717e-05 0)
(28.7538 9.23473e-05 0)
(28.5093 9.23267e-05 0)
(28.2658 9.23084e-05 0)
(28.0234 9.22932e-05 0)
(27.7821 9.22761e-05 0)
(27.5419 9.22601e-05 0)
(27.3029 9.22471e-05 0)
(27.0649 9.22321e-05 0)
(26.8282 9.22122e-05 0)
(26.5925 9.21914e-05 0)
(26.3581 9.21681e-05 0)
(26.1247 9.21426e-05 0)
(25.8926 9.21168e-05 0)
(25.6616 9.20952e-05 0)
(25.4319 9.20754e-05 0)
(25.2033 9.2048e-05 0)
(24.9759 9.20074e-05 0)
(24.7497 9.1947e-05 0)
(24.5248 9.18532e-05 0)
(24.301 9.17174e-05 0)
(24.0785 9.15256e-05 0)
(23.8572 9.12679e-05 0)
(23.6372 9.09287e-05 0)
(23.4184 9.04934e-05 0)
(23.2008 8.99448e-05 0)
(22.9845 8.92617e-05 0)
(22.7695 8.84212e-05 0)
(22.5557 8.73966e-05 0)
(22.3432 8.616e-05 0)
(22.1321 8.46858e-05 0)
(21.9221 8.29493e-05 0)
(21.7135 8.0929e-05 0)
(21.5063 7.86114e-05 0)
(21.3003 7.59884e-05 0)
(21.0956 7.30586e-05 0)
(20.8923 6.98304e-05 0)
(20.6903 6.63203e-05 0)
(20.4897 6.25526e-05 0)
(20.2904 5.85575e-05 0)
(20.0925 5.43701e-05 0)
(19.8959 5.00311e-05 0)
(19.7008 4.5587e-05 0)
(19.507 4.10876e-05 0)
(19.3146 3.65842e-05 0)
(19.1236 3.21282e-05 0)
(18.9341 2.77731e-05 0)
(18.7459 2.35762e-05 0)
(18.5592 1.95871e-05 0)
(18.374 1.58458e-05 0)
(18.1901 1.23821e-05 0)
(18.0078 9.21539e-06 0)
(17.8269 6.35767e-06 0)
(17.6474 3.81661e-06 0)
(17.4694 1.59148e-06 0)
(17.2929 -4.67773e-07 0)
(17.1178 -2.17515e-06 0)
(16.9442 -3.79201e-06 0)
(16.7721 -5.16528e-06 0)
(16.6014 -6.3203e-06 0)
(16.4321 -7.28212e-06 0)
(16.2644 -8.07596e-06 0)
(16.098 -8.72414e-06 0)
(15.9332 -9.24909e-06 0)
(15.7697 -9.66647e-06 0)
(15.6077 -9.99556e-06 0)
(15.4471 -1.02519e-05 0)
(15.288 -1.045e-05 0)
(15.1303 -1.05984e-05 0)
(14.974 -1.07081e-05 0)
(14.8191 -1.07881e-05 0)
(14.6657 -1.0845e-05 0)
(14.5137 -1.08823e-05 0)
(14.3631 -1.09059e-05 0)
(14.2139 -1.09191e-05 0)
(14.0662 -1.09249e-05 0)
(13.9198 -1.09228e-05 0)
(13.7749 -1.09161e-05 0)
(13.6313 -1.09059e-05 0)
(13.4891 -1.08946e-05 0)
(13.3483 -1.08794e-05 0)
(13.2088 -1.08626e-05 0)
(13.0706 -1.08445e-05 0)
(12.9338 -1.0825e-05 0)
(12.7982 -1.08056e-05 0)
(12.6639 -1.07835e-05 0)
(12.5308 -1.0761e-05 0)
(12.399 -1.07376e-05 0)
(12.2683 -1.07135e-05 0)
(12.1389 -1.06892e-05 0)
(12.0106 -1.06621e-05 0)
(11.8834 -1.06347e-05 0)
(11.7574 -1.06059e-05 0)
(11.6325 -1.05774e-05 0)
(11.5088 -1.05477e-05 0)
(11.3861 -1.05167e-05 0)
(11.2644 -1.04852e-05 0)
(11.1439 -1.0454e-05 0)
(11.0244 -1.04227e-05 0)
(10.9059 -1.03888e-05 0)
(10.7884 -1.0355e-05 0)
(10.672 -1.03209e-05 0)
(10.5565 -1.02869e-05 0)
(10.4421 -1.0251e-05 0)
(10.3287 -1.02155e-05 0)
(10.2162 -1.0181e-05 0)
(10.1047 -1.01469e-05 0)
(9.99428 -1.01105e-05 0)
(9.88482 -1.0076e-05 0)
(9.77637 -1.00418e-05 0)
(9.66894 -1.00092e-05 0)
(9.56254 -9.97502e-06 0)
(9.45718 -9.94294e-06 0)
(9.35288 -9.90978e-06 0)
(9.24962 -9.88043e-06 0)
(9.14742 -9.84566e-06 0)
(9.04627 -9.81823e-06 0)
(8.94616 -9.78067e-06 0)
(8.84708 -9.7582e-06 0)
(8.74901 -9.71735e-06 0)
(8.65193 -9.69938e-06 0)
(8.55581 -9.64908e-06 0)
(8.46062 -9.64193e-06 0)
(8.36634 -9.57436e-06 0)
(8.27292 -9.59437e-06 0)
(8.18035 -9.47977e-06 0)
(8.08859 -9.57126e-06 0)
(7.99761 -9.34238e-06 0)
(7.9074 -9.60274e-06 0)
(7.81794 -9.1325e-06 0)
(7.72924 -9.70311e-06 0)
(7.64128 -8.8507e-06 0)
(7.55409 -9.86755e-06 0)
(7.46767 -8.4806e-06 0)
(7.38204 -1.0161e-05 0)
(7.29722 -7.89236e-06 0)
(7.21323 -1.0705e-05 0)
(7.13008 -7.10961e-06 0)
(7.04778 -1.10754e-05 0)
(6.96635 -7.07473e-06 0)
(6.88578 -1.02617e-05 0)
(6.80607 -7.7769e-06 0)
(6.72721 -7.88228e-06 0)
(6.64917 2.68888e-06 0)
(6.57181 5.30538e-05 0)
(6.49432 0.000375657 0)
(6.41133 0.00233031 0)
(6.31452 0.0170765 0)
(5.94495 0.0581659 0)
(42.5961 -2.41068e-12 0)
(42.3335 -1.8313e-12 0)
(42.0206 -1.10445e-12 0)
(41.7252 -1.24033e-12 0)
(41.4478 -3.18154e-12 0)
(41.1743 -6.16026e-12 0)
(40.8989 -8.62792e-12 0)
(40.6222 -8.24958e-12 0)
(40.3455 -6.46027e-12 0)
(40.0695 -6.65228e-12 0)
(39.7939 -9.31074e-12 0)
(39.5187 -1.31515e-11 0)
(39.2437 -1.5993e-11 0)
(38.9692 -1.74539e-11 0)
(38.6952 -1.66457e-11 0)
(38.4216 -1.69913e-11 0)
(38.1485 -1.7766e-11 0)
(37.8758 -1.71431e-11 0)
(37.6035 -1.4669e-11 0)
(37.3317 -1.39567e-11 0)
(37.0605 -1.36725e-11 0)
(36.7897 -1.30525e-11 0)
(36.5195 -1.29132e-11 0)
(36.2498 -1.31902e-11 0)
(35.9807 -1.43058e-11 0)
(35.7122 -1.64697e-11 0)
(35.4444 -1.87119e-11 0)
(35.1771 -2.01593e-11 0)
(34.9105 -2.1765e-11 0)
(34.6445 -2.31586e-11 0)
(34.3793 -2.50873e-11 0)
(34.1147 -2.58723e-11 0)
(33.8509 -2.46476e-11 0)
(33.5878 -2.24754e-11 0)
(33.3254 -1.93378e-11 0)
(33.0639 -1.77904e-11 0)
(32.8031 -1.72546e-11 0)
(32.5431 -1.52803e-11 0)
(32.284 -1.3661e-11 0)
(32.0258 -1.34796e-11 0)
(31.7684 -1.4327e-11 0)
(31.5119 -1.76679e-11 0)
(31.2563 -2.25115e-11 0)
(31.0016 -2.49102e-11 0)
(30.7479 -2.79508e-11 0)
(30.4951 -2.94114e-11 0)
(30.2433 -2.77322e-11 0)
(29.9925 -2.43386e-11 0)
(29.7427 -2.32966e-11 0)
(29.494 -2.2016e-11 0)
(29.2462 -2.08993e-11 0)
(28.9995 -1.89124e-11 0)
(28.7539 -1.58744e-11 0)
(28.5093 -1.19526e-11 0)
(28.2658 -1.02562e-11 0)
(28.0234 -1.10766e-11 0)
(27.7821 -1.20191e-11 0)
(27.542 -1.22983e-11 0)
(27.3029 -8.71097e-12 0)
(27.065 -5.36933e-12 0)
(26.8282 -3.2052e-12 0)
(26.5926 -1.01679e-12 0)
(26.3581 -9.27358e-13 0)
(26.1248 -1.61798e-12 0)
(25.8927 -1.95173e-12 0)
(25.6617 -1.41305e-12 0)
(25.432 -1.16856e-12 0)
(25.2034 -2.72035e-12 0)
(24.976 -3.91924e-12 0)
(24.7499 -5.88745e-12 0)
(24.5249 -6.82571e-12 0)
(24.3012 -5.97965e-12 0)
(24.0786 -6.80613e-12 0)
(23.8574 -8.03289e-12 0)
(23.6373 -8.57303e-12 0)
(23.4185 -7.89383e-12 0)
(23.201 -7.7868e-12 0)
(22.9847 -8.35347e-12 0)
(22.7696 -1.21464e-11 0)
(22.5559 -2.12254e-11 0)
(22.3434 -3.00521e-11 0)
(22.1322 -3.4399e-11 0)
(21.9223 -3.67562e-11 0)
(21.7137 -3.92252e-11 0)
(21.5064 -4.30921e-11 0)
(21.3004 -4.39211e-11 0)
(21.0958 -4.4728e-11 0)
(20.8925 -4.67493e-11 0)
(20.6905 -4.87178e-11 0)
(20.4898 -5.16671e-11 0)
(20.2905 -5.35805e-11 0)
(20.0926 -5.43599e-11 0)
(19.8961 -5.2751e-11 0)
(19.7009 -4.92346e-11 0)
(19.5071 -4.59686e-11 0)
(19.3147 -4.36911e-11 0)
(19.1238 -3.78602e-11 0)
(18.9342 -3.83037e-11 0)
(18.7461 -2.78336e-11 0)
(18.5594 -2.7794e-11 0)
(18.3741 -1.71426e-11 0)
(18.1902 -2.97856e-11 0)
(18.0079 -1.56586e-11 0)
(17.8269 -3.90157e-11 0)
(17.6475 -1.36538e-11 0)
(17.4695 -4.50367e-11 0)
(17.293 -4.36425e-12 0)
(17.1179 -5.72338e-11 0)
(16.9443 2.69477e-11 0)
(16.7721 -2.89176e-11 0)
(16.6014 7.91154e-11 0)
(16.4322 -2.6407e-11 0)
(16.2644 8.72055e-11 0)
(16.0981 -4.9962e-11 0)
(15.9332 7.32516e-11 0)
(15.7698 -4.83069e-11 0)
(15.6078 5.01563e-11 0)
(15.4472 -2.54345e-11 0)
(15.2881 1.00858e-11 0)
(15.1303 -1.12031e-11 0)
(14.9741 -1.36559e-11 0)
(14.8192 -2.51544e-11 0)
(14.6658 9.17788e-12 0)
(14.5138 -5.74804e-11 0)
(14.3632 6.26529e-11 0)
(14.214 -1.07934e-10 0)
(14.0663 1.51587e-10 0)
(13.9199 -1.92304e-10 0)
(13.775 2.04649e-10 0)
(13.6314 -1.5429e-10 0)
(13.4892 1.27698e-10 0)
(13.3484 -3.26558e-11 0)
(13.2089 1.92084e-11 0)
(13.0707 5.13046e-11 0)
(12.9339 9.13582e-12 0)
(12.7983 -4.11017e-11 0)
(12.664 1.65907e-10 0)
(12.5309 -2.96205e-10 0)
(12.399 4.83054e-10 0)
(12.2684 -4.92081e-10 0)
(12.1389 3.02449e-10 0)
(12.0107 -4.90556e-11 0)
(11.8835 -1.36518e-10 0)
(11.7575 9.58084e-11 0)
(11.6326 2.20894e-10 0)
(11.5088 -5.02981e-10 0)
(11.3861 4.61447e-10 0)
(11.2645 -2.47048e-10 0)
(11.1439 1.1854e-10 0)
(11.0244 -2.11781e-10 0)
(10.906 3.75025e-10 0)
(10.7885 -4.24021e-10 0)
(10.6721 3.63651e-10 0)
(10.5566 -4.5868e-10 0)
(10.4422 8.28709e-10 0)
(10.3287 -1.29796e-09 0)
(10.2163 1.64539e-09 0)
(10.1048 -1.77927e-09 0)
(9.99435 2.16561e-09 0)
(9.88489 -3.06694e-09 0)
(9.77644 3.20378e-09 0)
(9.66901 -2.25604e-09 0)
(9.56261 2.28614e-09 0)
(9.45725 -3.71146e-09 0)
(9.35295 4.45064e-09 0)
(9.24969 -4.87531e-09 0)
(9.14749 6.68678e-09 0)
(9.04634 -9.55965e-09 0)
(8.94623 1.26424e-08 0)
(8.84715 -1.56623e-08 0)
(8.74908 2.06173e-08 0)
(8.652 -2.83884e-08 0)
(8.55588 3.78469e-08 0)
(8.46069 -5.21763e-08 0)
(8.36641 7.56363e-08 0)
(8.27299 -1.12608e-07 0)
(8.18042 1.70965e-07 0)
(8.08865 -2.66814e-07 0)
(7.99768 4.04033e-07 0)
(7.90747 -6.10807e-07 0)
(7.81801 8.58586e-07 0)
(7.7293 -1.20763e-06 0)
(7.64135 1.51189e-06 0)
(7.55416 -1.9678e-06 0)
(7.46773 2.19638e-06 0)
(7.38211 -2.69874e-06 0)
(7.29729 2.85566e-06 0)
(7.2133 -3.32084e-06 0)
(7.13015 3.53925e-06 0)
(7.04785 -3.81337e-06 0)
(6.96642 3.92259e-06 0)
(6.88585 -4.03432e-06 0)
(6.80614 4.03789e-06 0)
(6.72729 -2.2438e-06 0)
(6.64928 1.46145e-05 0)
(6.57213 6.01528e-05 0)
(6.4959 0.0004003 0)
(6.42094 0.00251561 0)
(6.34884 0.0166533 0)
(6.26838 0.0810842 0)
(42.5962 -0.000118733 0)
(42.3336 -9.27156e-05 0)
(42.0206 -8.28692e-05 0)
(41.7252 -8.34111e-05 0)
(41.4478 -8.44922e-05 0)
(41.1744 -8.53362e-05 0)
(40.899 -8.62665e-05 0)
(40.6222 -8.7223e-05 0)
(40.3456 -8.81328e-05 0)
(40.0695 -8.89737e-05 0)
(39.794 -8.97377e-05 0)
(39.5187 -9.04206e-05 0)
(39.2437 -9.10135e-05 0)
(38.9692 -9.15055e-05 0)
(38.6952 -9.19207e-05 0)
(38.4217 -9.22592e-05 0)
(38.1485 -9.2527e-05 0)
(37.8758 -9.27335e-05 0)
(37.6035 -9.28874e-05 0)
(37.3318 -9.29978e-05 0)
(37.0605 -9.30731e-05 0)
(36.7897 -9.31232e-05 0)
(36.5195 -9.31496e-05 0)
(36.2499 -9.31645e-05 0)
(35.9808 -9.31657e-05 0)
(35.7123 -9.31591e-05 0)
(35.4444 -9.31495e-05 0)
(35.1771 -9.31307e-05 0)
(34.9105 -9.31137e-05 0)
(34.6446 -9.30912e-05 0)
(34.3793 -9.30675e-05 0)
(34.1147 -9.30427e-05 0)
(33.8509 -9.30146e-05 0)
(33.5878 -9.29875e-05 0)
(33.3254 -9.29584e-05 0)
(33.0639 -9.29252e-05 0)
(32.8031 -9.28958e-05 0)
(32.5431 -9.28624e-05 0)
(32.284 -9.28269e-05 0)
(32.0258 -9.27931e-05 0)
(31.7684 -9.27593e-05 0)
(31.5119 -9.27234e-05 0)
(31.2563 -9.26829e-05 0)
(31.0016 -9.26504e-05 0)
(30.7479 -9.26132e-05 0)
(30.4951 -9.25811e-05 0)
(30.2433 -9.25466e-05 0)
(29.9925 -9.25102e-05 0)
(29.7427 -9.24735e-05 0)
(29.4939 -9.24363e-05 0)
(29.2462 -9.24008e-05 0)
(28.9995 -9.23717e-05 0)
(28.7538 -9.23473e-05 0)
(28.5093 -9.23267e-05 0)
(28.2658 -9.23084e-05 0)
(28.0234 -9.22932e-05 0)
(27.7821 -9.22761e-05 0)
(27.5419 -9.22601e-05 0)
(27.3029 -9.22471e-05 0)
(27.0649 -9.22321e-05 0)
(26.8282 -9.22122e-05 0)
(26.5925 -9.21914e-05 0)
(26.3581 -9.21681e-05 0)
(26.1247 -9.21426e-05 0)
(25.8926 -9.21168e-05 0)
(25.6616 -9.20952e-05 0)
(25.4319 -9.20754e-05 0)
(25.2033 -9.2048e-05 0)
(24.9759 -9.20074e-05 0)
(24.7497 -9.1947e-05 0)
(24.5248 -9.18532e-05 0)
(24.301 -9.17174e-05 0)
(24.0785 -9.15256e-05 0)
(23.8572 -9.12679e-05 0)
(23.6372 -9.09287e-05 0)
(23.4184 -9.04934e-05 0)
(23.2008 -8.99448e-05 0)
(22.9845 -8.92617e-05 0)
(22.7695 -8.84212e-05 0)
(22.5557 -8.73966e-05 0)
(22.3432 -8.616e-05 0)
(22.1321 -8.46858e-05 0)
(21.9221 -8.29493e-05 0)
(21.7135 -8.0929e-05 0)
(21.5063 -7.86114e-05 0)
(21.3003 -7.59884e-05 0)
(21.0956 -7.30586e-05 0)
(20.8923 -6.98304e-05 0)
(20.6903 -6.63203e-05 0)
(20.4897 -6.25526e-05 0)
(20.2904 -5.85575e-05 0)
(20.0925 -5.43701e-05 0)
(19.8959 -5.0031e-05 0)
(19.7008 -4.5587e-05 0)
(19.507 -4.10876e-05 0)
(19.3146 -3.65842e-05 0)
(19.1236 -3.21282e-05 0)
(18.9341 -2.77731e-05 0)
(18.7459 -2.35762e-05 0)
(18.5592 -1.95871e-05 0)
(18.374 -1.58457e-05 0)
(18.1901 -1.23822e-05 0)
(18.0078 -9.21536e-06 0)
(17.8269 -6.35771e-06 0)
(17.6474 -3.81655e-06 0)
(17.4694 -1.59153e-06 0)
(17.2929 4.67861e-07 0)
(17.1178 2.17509e-06 0)
(16.9442 3.79208e-06 0)
(16.7721 5.16522e-06 0)
(16.6014 6.32033e-06 0)
(16.4321 7.28207e-06 0)
(16.2644 8.07598e-06 0)
(16.098 8.7241e-06 0)
(15.9332 9.24912e-06 0)
(15.7697 9.66644e-06 0)
(15.6077 9.99559e-06 0)
(15.4471 1.02519e-05 0)
(15.288 1.04501e-05 0)
(15.1303 1.05983e-05 0)
(14.974 1.07082e-05 0)
(14.8191 1.0788e-05 0)
(14.6657 1.08451e-05 0)
(14.5137 1.08823e-05 0)
(14.3631 1.09059e-05 0)
(14.2139 1.0919e-05 0)
(14.0662 1.09251e-05 0)
(13.9198 1.09225e-05 0)
(13.7749 1.09163e-05 0)
(13.6313 1.09057e-05 0)
(13.4891 1.08948e-05 0)
(13.3483 1.08793e-05 0)
(13.2088 1.08626e-05 0)
(13.0706 1.08445e-05 0)
(12.9338 1.0825e-05 0)
(12.7982 1.08056e-05 0)
(12.6639 1.07836e-05 0)
(12.5308 1.07607e-05 0)
(12.399 1.0738e-05 0)
(12.2683 1.0713e-05 0)
(12.1389 1.06894e-05 0)
(12.0106 1.06621e-05 0)
(11.8834 1.06345e-05 0)
(11.7574 1.0606e-05 0)
(11.6325 1.05777e-05 0)
(11.5088 1.05472e-05 0)
(11.3861 1.05172e-05 0)
(11.2644 1.04849e-05 0)
(11.1439 1.04542e-05 0)
(11.0244 1.04225e-05 0)
(10.9059 1.03893e-05 0)
(10.7884 1.03544e-05 0)
(10.672 1.03213e-05 0)
(10.5565 1.02865e-05 0)
(10.4421 1.02519e-05 0)
(10.3287 1.02142e-05 0)
(10.2162 1.01828e-05 0)
(10.1047 1.01448e-05 0)
(9.99428 1.01129e-05 0)
(9.88482 1.00728e-05 0)
(9.77637 1.00455e-05 0)
(9.66894 1.00066e-05 0)
(9.56254 9.97744e-06 0)
(9.45718 9.93885e-06 0)
(9.35288 9.91469e-06 0)
(9.24962 9.87506e-06 0)
(9.14742 9.85304e-06 0)
(9.04627 9.80762e-06 0)
(8.94616 9.79475e-06 0)
(8.84708 9.7408e-06 0)
(8.74901 9.74027e-06 0)
(8.65193 9.66792e-06 0)
(8.55581 9.69093e-06 0)
(8.46062 9.58424e-06 0)
(8.36634 9.65754e-06 0)
(8.27292 9.47079e-06 0)
(8.18035 9.66791e-06 0)
(8.08858 9.27843e-06 0)
(7.99761 9.78843e-06 0)
(7.9074 8.93012e-06 0)
(7.81794 1.00875e-05 0)
(7.72923 8.37171e-06 0)
(7.64128 1.05518e-05 0)
(7.55409 7.70072e-06 0)
(7.46767 1.09735e-05 0)
(7.38204 7.19856e-06 0)
(7.29722 1.11043e-05 0)
(7.21323 7.07149e-06 0)
(7.13008 1.09891e-05 0)
(7.04779 6.93455e-06 0)
(6.96635 1.13229e-05 0)
(6.88578 5.96785e-06 0)
(6.80607 1.21639e-05 0)
(6.72722 5.77236e-06 0)
(6.64921 1.27867e-05 0)
(6.57208 1.70878e-05 0)
(6.49606 8.57898e-05 0)
(6.42287 0.00075537 0)
(6.3714 0.0117696 0)
(6.47286 0.055081 0)
(42.5945 -9.36444e-05 0)
(42.3303 -8.66523e-05 0)
(42.0156 -8.55019e-05 0)
(41.7185 -8.73723e-05 0)
(41.4394 -8.91268e-05 0)
(41.1641 -9.06411e-05 0)
(40.8869 -9.2045e-05 0)
(40.6083 -9.33314e-05 0)
(40.3299 -9.44892e-05 0)
(40.052 -9.55199e-05 0)
(39.7745 -9.64276e-05 0)
(39.4974 -9.72174e-05 0)
(39.2205 -9.78913e-05 0)
(38.944 -9.84488e-05 0)
(38.6681 -9.89095e-05 0)
(38.3926 -9.92798e-05 0)
(38.1175 -9.95695e-05 0)
(37.8428 -9.97901e-05 0)
(37.5686 -9.99523e-05 0)
(37.2949 -0.000100067 0)
(37.0217 -0.000100142 0)
(36.7489 -0.00010019 0)
(36.4768 -0.000100212 0)
(36.2051 -0.000100221 0)
(35.9341 -0.000100216 0)
(35.6636 -0.000100203 0)
(35.3938 -0.000100186 0)
(35.1246 -0.000100161 0)
(34.856 -0.000100137 0)
(34.5881 -0.000100108 0)
(34.3208 -0.000100079 0)
(34.0543 -0.000100048 0)
(33.7885 -0.000100015 0)
(33.5234 -9.9983e-05 0)
(33.2591 -9.99496e-05 0)
(32.9956 -9.99136e-05 0)
(32.7329 -9.98801e-05 0)
(32.471 -9.98443e-05 0)
(32.2099 -9.98073e-05 0)
(31.9497 -9.97716e-05 0)
(31.6903 -9.97364e-05 0)
(31.4319 -9.97003e-05 0)
(31.1743 -9.96614e-05 0)
(30.9177 -9.96282e-05 0)
(30.662 -9.95931e-05 0)
(30.4073 -9.95623e-05 0)
(30.1536 -9.95311e-05 0)
(29.9008 -9.94994e-05 0)
(29.6491 -9.94678e-05 0)
(29.3983 -9.94357e-05 0)
(29.1486 -9.9405e-05 0)
(28.9 -9.93801e-05 0)
(28.6524 -9.93611e-05 0)
(28.4059 -9.9348e-05 0)
(28.1604 -9.93392e-05 0)
(27.9161 -9.93348e-05 0)
(27.6729 -9.93304e-05 0)
(27.4307 -9.93264e-05 0)
(27.1897 -9.9324e-05 0)
(26.9499 -9.93201e-05 0)
(26.7111 -9.9313e-05 0)
(26.4735 -9.93052e-05 0)
(26.2371 -9.92961e-05 0)
(26.0019 -9.92855e-05 0)
(25.7678 -9.92749e-05 0)
(25.5349 -9.92678e-05 0)
(25.3031 -9.92627e-05 0)
(25.0726 -9.92529e-05 0)
(24.8433 -9.92324e-05 0)
(24.6152 -9.91932e-05 0)
(24.3883 -9.91219e-05 0)
(24.1626 -9.90072e-05 0)
(23.9381 -9.88352e-05 0)
(23.7149 -9.85945e-05 0)
(23.4929 -9.82704e-05 0)
(23.2722 -9.78483e-05 0)
(23.0527 -9.73108e-05 0)
(22.8345 -9.66365e-05 0)
(22.6176 -9.58013e-05 0)
(22.4019 -9.47772e-05 0)
(22.1876 -9.35347e-05 0)
(21.9746 -9.20461e-05 0)
(21.7629 -9.02846e-05 0)
(21.5525 -8.82273e-05 0)
(21.3435 -8.58583e-05 0)
(21.1359 -8.31679e-05 0)
(20.9296 -8.0154e-05 0)
(20.7248 -7.68235e-05 0)
(20.5213 -7.31923e-05 0)
(20.3193 -6.92849e-05 0)
(20.1187 -6.51326e-05 0)
(19.9195 -6.07699e-05 0)
(19.7219 -5.62372e-05 0)
(19.5256 -5.15809e-05 0)
(19.3309 -4.68515e-05 0)
(19.1377 -4.21026e-05 0)
(18.9459 -3.73892e-05 0)
(18.7557 -3.27645e-05 0)
(18.5669 -2.82766e-05 0)
(18.3797 -2.39666e-05 0)
(18.194 -1.98675e-05 0)
(18.0099 -1.60055e-05 0)
(17.8272 -1.23981e-05 0)
(17.6461 -9.05569e-06 0)
(17.4665 -5.97824e-06 0)
(17.2884 -3.14188e-06 0)
(17.1118 -3.88072e-07 0)
(16.9367 1.39499e-06 0)
(16.7631 3.01323e-06 0)
(16.591 4.41831e-06 0)
(16.4204 5.61751e-06 0)
(16.2513 6.62628e-06 0)
(16.0837 7.46496e-06 0)
(15.9175 8.15386e-06 0)
(15.7527 8.71449e-06 0)
(15.5895 9.16271e-06 0)
(15.4276 9.51747e-06 0)
(15.2672 9.79473e-06 0)
(15.1083 1.00097e-05 0)
(14.9507 1.01714e-05 0)
(14.7946 1.02918e-05 0)
(14.64 1.03797e-05 0)
(14.4867 1.04428e-05 0)
(14.3349 1.04848e-05 0)
(14.1845 1.05117e-05 0)
(14.0356 1.05275e-05 0)
(13.888 1.05354e-05 0)
(13.7418 1.05348e-05 0)
(13.5971 1.05297e-05 0)
(13.4537 1.05204e-05 0)
(13.3117 1.05102e-05 0)
(13.1711 1.04962e-05 0)
(13.0318 1.04808e-05 0)
(12.8938 1.04642e-05 0)
(12.7571 1.04463e-05 0)
(12.6218 1.04287e-05 0)
(12.4876 1.04089e-05 0)
(12.3548 1.03888e-05 0)
(12.2231 1.03683e-05 0)
(12.0927 1.03469e-05 0)
(11.9634 1.03261e-05 0)
(11.8353 1.03028e-05 0)
(11.7083 1.02791e-05 0)
(11.5825 1.02545e-05 0)
(11.4578 1.02303e-05 0)
(11.3342 1.02053e-05 0)
(11.2117 1.01793e-05 0)
(11.0903 1.0153e-05 0)
(10.9699 1.01271e-05 0)
(10.8506 1.01014e-05 0)
(10.7323 1.00737e-05 0)
(10.615 1.00453e-05 0)
(10.4988 1.00175e-05 0)
(10.3835 9.98943e-06 0)
(10.2693 9.95994e-06 0)
(10.156 9.93027e-06 0)
(10.0437 9.90246e-06 0)
(9.93245 9.87344e-06 0)
(9.82217 9.84419e-06 0)
(9.71288 9.81432e-06 0)
(9.60462 9.78684e-06 0)
(9.49737 9.75805e-06 0)
(9.39115 9.72985e-06 0)
(9.28597 9.70144e-06 0)
(9.18185 9.67436e-06 0)
(9.07877 9.6471e-06 0)
(8.97675 9.61971e-06 0)
(8.87578 9.59068e-06 0)
(8.77585 9.56505e-06 0)
(8.67694 9.53589e-06 0)
(8.57905 9.51218e-06 0)
(8.48215 9.48058e-06 0)
(8.3862 9.4582e-06 0)
(8.29119 9.42286e-06 0)
(8.19708 9.40543e-06 0)
(8.10385 9.36351e-06 0)
(8.01145 9.35556e-06 0)
(7.91986 9.2958e-06 0)
(7.82905 9.31637e-06 0)
(7.73902 9.21257e-06 0)
(7.64973 9.3e-06 0)
(7.5612 9.11016e-06 0)
(7.47342 9.31932e-06 0)
(7.3864 9.00336e-06 0)
(7.30015 9.36103e-06 0)
(7.21469 8.91347e-06 0)
(7.13004 9.3656e-06 0)
(7.04622 8.86533e-06 0)
(6.96324 9.28906e-06 0)
(6.88112 8.86727e-06 0)
(6.79985 9.21893e-06 0)
(6.71945 8.83044e-06 0)
(6.63991 9.25732e-06 0)
(6.56122 8.87514e-06 0)
(6.48338 9.89016e-06 0)
(6.40643 1.44956e-05 0)
(6.33063 4.90326e-05 0)
(6.25852 0.000425357 0)
(6.21344 0.00909249 0)
(6.68808 0.0225497 0)
(5.34576 0.205151 -3.61702e-15)
(5.08395 0.566387 7.23957e-15)
(4.9403 0.943568 -1.35779e-14)
(4.85842 1.31436 2.80588e-14)
(4.81346 1.70114 -2.8952e-14)
(4.71388 2.08747 -1.80945e-15)
(4.49143 2.39223 3.86304e-20)
(4.12773 2.58647 -2.53455e-14)
(3.68899 2.6971 -1.17785e-13)
(3.4135 2.92435 1.16e-13)
(3.47233 3.50257 -2.89218e-14)
(3.75709 4.47126 -5.94029e-14)
(4.04762 5.72833 3.0462e-14)
(4.07762 6.94929 0)
(3.65188 7.55844 2.85968e-14)
(2.93918 7.35574 2.86203e-14)
(2.15208 6.66711 -2.8699e-14)
(1.47913 5.84373 2.88034e-14)
(0.962184 5.28201 2.25774e-16)
(0.53668 4.97316 -2.26031e-16)
(5.71981 0.335657 0)
(5.52894 0.746403 0)
(5.39168 1.15534 -1.85264e-15)
(5.30774 1.54656 -3.70432e-15)
(5.25921 1.98419 9.2549e-15)
(5.12606 2.51035 1.85108e-14)
(4.83902 2.99971 0)
(4.3774 3.38076 1.1105e-14)
(3.81146 3.5424 1.85258e-14)
(3.50841 3.50605 -4.4526e-14)
(3.62449 3.6638 2.96048e-14)
(3.8782 4.22593 1.47482e-14)
(4.09081 5.1684 -1.46861e-14)
(3.94371 6.50267 1.4648e-14)
(3.18858 7.70196 0)
(2.2261 8.04124 -1.8301e-15)
(1.23888 7.83434 1.83088e-15)
(0.400548 7.1893 -6.42392e-15)
(-0.146442 6.28909 -9.21417e-16)
(-0.274037 5.38127 0)
(6.25574 0.27647 -4.92721e-17)
(6.23322 0.476684 -2.50292e-14)
(6.21349 0.662463 2.54236e-14)
(6.1967 0.836069 -2.44385e-14)
(6.18297 0.998834 -2.68058e-14)
(6.18774 1.15227 9.97524e-14)
(6.21276 1.33114 -5.04712e-14)
(6.23859 1.56834 4.88916e-14)
(6.23712 1.87891 -9.93573e-14)
(6.14775 2.2701 1.57858e-15)
(5.92408 2.68965 4.8907e-14)
(5.67399 3.0088 0)
(5.57627 3.14139 -4.89671e-14)
(5.71935 3.14808 4.90123e-14)
(5.93478 3.26339 -3.95555e-16)
(5.91667 3.63035 0)
(5.65301 4.12456 3.95502e-16)
(5.25629 4.63838 0)
(4.73787 5.12615 0)
(4.04041 5.59052 0)
(6.54576 0.419003 8.18321e-16)
(6.5504 0.959967 -8.18211e-15)
(6.51365 1.55273 -1.63496e-15)
(6.45696 2.13942 3.26662e-15)
(6.37265 2.72033 -3.2633e-15)
(6.2485 3.29781 -7.59395e-20)
(6.07814 3.86805 -1.30259e-14)
(5.85968 4.42638 0)
(5.59326 4.96866 0)
(5.27954 5.49093 -6.49366e-15)
(4.91965 5.99078 6.48745e-15)
(4.51417 6.46639 0)
(4.06064 6.91167 -6.47609e-15)
(3.55368 7.31558 6.47222e-15)
(2.99511 7.66548 -6.46918e-15)
(2.40202 7.95671 1.29323e-14)
(1.78833 8.19768 -6.463e-15)
(1.16135 8.39447 0)
(0.529739 8.54656 -3.2285e-15)
(-0.0779766 8.66828 0)
(6.91615 0.311739 -1.28124e-15)
(7.1005 0.788399 9.81389e-15)
(7.15034 1.33903 6.81967e-15)
(7.1468 1.90755 1.3623e-14)
(7.11651 2.49196 0)
(7.04586 3.08924 0)
(6.92272 3.69149 1.35745e-14)
(6.74227 4.29193 3.38981e-15)
(6.50333 4.88544 -6.77251e-15)
(6.20719 5.46847 3.38276e-15)
(5.85766 6.03826 2.70332e-14)
(5.45924 6.58902 -1.6878e-14)
(5.01265 7.10846 1.68622e-14)
(4.5149 7.58053 -3.3698e-15)
(3.96496 7.99593 -1.34711e-14)
(3.36768 8.35803 -2.35617e-14)
(2.73051 8.6732 -1.17747e-14)
(2.0622 8.93823 -1.68134e-15)
(1.37605 9.13463 9.66572e-15)
(0.711936 9.19215 4.2033e-16)
(0.160658 7.36425 0)
(0.0897385 10.6171 0)
(0.18028 12.6736 0)
(0.22249 12.2891 0)
(0.205587 11.125 0)
(0.111309 12.0338 0)
(0.180977 14.6539 0)
(0.310349 15.5033 0)
(0.318868 14.3655 0)
(0.185183 14.877 0)
(0.308257 17.3385 0)
(0.405182 17.3972 0)
(0.360777 14.7452 0)
(0.184975 13.476 0)
(0.114716 17.3961 0)
(0.411154 20.6802 0)
(0.456313 19.6053 0)
(0.332247 15.1785 0)
(0.169289 10.9971 0)
(-0.00631737 13.8768 0)
(0.139579 20.5264 0)
(0.414932 23.1741 0)
(0.450232 20.632 0)
(0.230004 14.2904 0)
(0.0450011 8.80079 0)
(-0.00974344 11.6449 0)
(0.0455572 19.7982 0)
(0.46644 25.1422 0)
(0.536468 23.5845 0)
(0.39493 17.3352 0)
(0.199864 10.9959 0)
(0.0367521 12.3545 0)
(0.0274377 20.3903 0)
(0.313126 28.1749 0)
(0.758103 30.1226 0)
(0.871414 27.9826 0)
(0.923626 25.6373 0)
(0.952099 23.996 0)
(0.936936 22.7748 0)
(0.863041 21.336 0)
(0.759209 18.8043 0)
(0.584581 13.9188 0)
(0.261588 7.13295 0)
(0.0681516 5.85985 0)
(0.0797727 11.6147 0)
(0.0360756 20.8523 0)
(0.378148 28.4984 0)
(0.775565 29.6467 0)
(0.884459 27.1338 0)
(0.94068 24.7174 0)
(0.984417 23.152 0)
(1.01461 22.2547 0)
(1.03102 21.7688 0)
(1.03828 21.4999 0)
(1.04113 21.3381 0)
(1.04196 21.2282 0)
(1.04181 21.1435 0)
(1.0411 21.0716 0)
(1.04004 21.0065 0)
(1.03875 20.9457 0)
(1.03727 20.8876 0)
(1.03565 20.8318 0)
(1.03391 20.7778 0)
(1.03207 20.7257 0)
(1.03029 20.6757 0)
(1.02859 20.6278 0)
(1.02694 20.5813 0)
(1.02532 20.5357 0)
(1.02369 20.4906 0)
(1.02198 20.4458 0)
(1.02016 20.4013 0)
(1.01817 20.357 0)
(1.01593 20.3129 0)
(1.01337 20.2691 0)
(1.01039 20.2256 0)
(1.00689 20.1826 0)
(1.00273 20.14 0)
(0.997749 20.0981 0)
(0.991755 20.0569 0)
(0.98453 20.0163 0)
(0.975825 19.9764 0)
(0.96536 19.9368 0)
(0.952811 19.8973 0)
(0.937808 19.8571 0)
(0.919895 19.8154 0)
(0.898492 19.7704 0)
(0.872788 19.7191 0)
(0.841631 19.6556 0)
(0.80355 19.5672 0)
(0.757246 19.4267 0)
(0.70308 19.1771 0)
(0.64555 18.7187 0)
(0.594608 17.9194 0)
(0.54992 16.6509 0)
(0.478776 14.8568 0)