/*--------------------------------*- C++ -*----------------------------------*\
| =========                 |                                                 |
| \\      /  F ield         | OpenFOAM: The Open Source CFD Toolbox           |
|  \\    /   O peration     | Version:  3.0.x                                 |
|   \\  /    A nd           | Web:      www.OpenFOAM.org                      |
|    \\/     M anipulation  |                                                 |
\*---------------------------------------------------------------------------*/
FoamFile
{
    version     2.0;
    format      ascii;
    class       surfaceScalarField;
    location    "0.007";
    object      phi;
}
// * * * * * * * * * * * * * * * * * * * * * * * * * * * * * * * * * * * * * //

dimensions      [1 0 -1 0 0 0 0];

internalField   nonuniform List<scalar> 
999
(
2154.97
2154.97
2154.97
2154.97
2154.97
2154.97
2154.97
2154.97
2154.97
2154.97
2154.97
2154.97
2154.97
2154.97
2154.97
2154.97
2154.97
2154.97
2154.97
2154.97
2154.97
2154.97
2154.97
2154.97
2154.97
2154.97
2154.97
2154.97
2154.97
2154.97
2154.97
2154.97
2154.97
2154.97
2154.97
2154.97
2154.97
2154.97
2154.97
2154.97
2154.97
2154.97
2154.97
2154.97
2154.97
2154.97
2154.97
2154.97
2154.97
2154.97
2154.97
2154.97
2154.97
2154.97
2154.97
2154.97
2154.97
2154.97
2154.97
2154.97
2154.97
2154.97
2154.97
2154.97
2154.97
2154.97
2154.97
2154.97
2154.97
2154.97
2154.97
2154.97
2154.97
2154.97
2154.97
2154.97
2154.97
2154.97
2154.97
2154.97
2154.97
2154.97
2154.97
2154.97
2154.97
2154.97
2154.97
2154.97
2154.97
2154.97
2154.97
2154.97
2154.97
2154.97
2154.97
2154.97
2154.97
2154.97
2154.97
2154.97
2154.97
2154.97
2154.97
2154.97
2154.97
2154.97
2154.97
2154.97
2154.97
2154.97
2154.97
2154.97
2154.97
2154.97
2154.97
2154.97
2154.97
2154.97
2154.97
2154.97
2154.97
2154.97
2154.97
2154.97
2154.97
2154.97
2154.97
2154.97
2154.97
2154.97
2154.97
2154.97
2154.97
2154.97
2154.97
2154.97
2154.97
2154.97
2154.97
2154.97
2154.97
2154.97
2154.97
2154.97
2154.97
2154.97
2154.97
2154.97
2154.97
2154.97
2154.97
2154.97
2154.97
2154.97
2154.97
2154.97
2154.97
2154.97
2154.97
2154.97
2154.97
2154.97
2154.97
2154.97
2154.97
2154.97
2154.97
2154.97
2154.97
2154.97
2154.97
2154.97
2154.97
2154.97
2154.97
2154.97
2154.97
2154.97
2154.97
2154.97
2154.97
2154.97
2154.97
2154.97
2154.97
2154.97
2154.97
2154.97
2154.97
2154.97
2154.97
2154.97
2154.97
2154.97
2154.97
2154.97
2154.97
2154.97
2154.97
2154.97
2154.97
2154.97
2154.97
2154.97
2154.97
2154.97
2154.97
2154.97
2154.97
2154.97
2154.97
2154.97
2154.97
2154.97
2154.97
2154.97
2154.97
2154.97
2154.97
2154.97
2154.97
2154.97
2154.97
2154.97
2154.97
2154.97
2154.97
2154.97
2154.97
2154.97
2154.97
2154.97
2154.97
2154.97
2154.97
2154.97
2154.97
2154.97
2154.97
2154.97
2154.97
2154.97
2154.97
2154.97
2154.97
2154.97
2154.97
2154.97
2154.97
2154.97
2154.97
2154.97
2154.97
2154.97
2154.97
2154.97
2154.97
2154.97
2154.97
2154.97
2154.97
2154.97
2154.97
2154.97
2154.97
2154.97
2154.97
2154.97
2154.97
2154.97
2154.97
2154.97
2154.97
2154.97
2154.97
2154.97
2154.97
2154.97
2154.97
2154.97
2154.97
2154.97
2154.97
2154.97
2154.97
2154.97
2154.97
2154.97
2154.97
2154.97
2154.97
2154.97
2154.97
2154.97
2154.97
2154.97
2154.97
2154.97
2154.97
2154.97
2154.97
2154.97
2154.97
2154.97
2154.97
2154.97
2154.97
2154.97
2154.97
2154.97
2154.97
2154.97
2154.97
2154.97
2154.97
2154.97
2154.97
2154.97
2154.97
2154.97
2154.97
2154.97
2154.97
2154.97
2154.97
2154.97
2154.97
2154.97
2154.97
2154.97
2154.97
2154.97
2154.97
2154.97
2154.97
2154.97
2154.97
2154.97
2154.97
2154.97
2154.97
2154.97
2154.97
2154.97
2154.97
2154.97
2154.97
2154.97
2154.97
2154.97
2154.97
2154.97
2154.97
2154.97
2154.97
2154.97
2154.97
2154.97
2154.97
2154.97
2154.97
2154.97
2154.97
2154.97
2154.97
2154.97
2154.97
2154.97
2154.97
2154.97
2154.97
2154.97
2154.97
2154.97
2154.97
2154.97
2154.97
2154.97
2154.97
2154.97
2154.97
2154.97
2154.97
2154.97
2154.97
2154.97
2154.97
2154.97
2154.97
2154.97
2154.97
2154.97
2154.97
2154.97
2154.97
2154.97
2154.97
2154.97
2154.97
2154.97
2154.97
2154.97
2154.97
2154.97
2154.97
2154.97
2154.97
2154.97
2154.97
2154.97
2154.97
2154.97
2154.97
2154.97
2154.97
2154.97
2154.97
2154.97
2154.97
2154.97
2154.97
2154.97
2154.97
2154.97
2154.97
2154.97
2154.97
2154.97
2154.97
2154.97
2154.97
2154.97
2154.97
2154.97
2154.97
2154.97
2154.97
2154.97
2154.97
2154.97
2154.97
2154.97
2154.97
2154.97
2154.97
2154.97
2154.97
2154.97
2154.97
2154.97
2154.97
2154.97
2154.97
2154.97
2154.97
2154.97
2154.97
2154.97
2154.97
2154.97
2154.97
2154.97
2154.97
2154.97
2154.97
2154.97
2154.97
2154.97
2154.97
2154.97
2154.97
2154.97
2154.97
2154.97
2154.97
2154.97
2154.97
2154.97
2154.97
2154.97
2154.97
2154.97
2154.97
2154.97
2154.97
2154.97
2154.97
2154.96
2154.96
2154.96
2154.96
2154.96
2154.95
2154.95
2154.94
2154.93
2154.92
2154.91
2154.89
2154.87
2154.85
2154.81
2154.77
2154.72
2154.66
2154.58
2154.49
2154.37
2154.23
2154.05
2153.84
2153.58
2153.26
2152.87
2152.4
2151.83
2151.14
2150.32
2149.32
2148.13
2146.71
2145.01
2142.99
2140.58
2137.74
2134.38
2130.41
2125.75
2120.28
2113.88
2106.42
2097.73
2087.65
2076
2062.55
2047.1
2029.4
2009.2
1986.24
1960.25
1930.95
1898.09
1861.41
1820.7
1775.78
1726.52
1672.87
1614.85
1552.58
1486.29
1416.3
1343.07
1267.15
1189.19
1109.91
1030.08
950.523
872.021
795.338
721.175
650.144
582.757
519.413
460.395
405.87
355.904
310.465
269.442
232.662
199.899
170.894
145.365
123.019
103.561
86.7022
72.1656
59.6892
49.0298
39.964
32.2894
25.8241
20.4065
15.8945
12.1641
9.10811
6.63465
4.66519
3.13253
1.97837
1.15057
0.600093
0.277856
0.131583
0.103151
0.131261
0.174342
0.216893
0.254267
0.28538
0.310391
0.329911
0.344684
0.355456
0.362919
0.367687
0.370289
0.371171
0.370706
0.369201
0.366907
0.364023
0.360709
0.357094
0.353276
0.349332
0.345321
0.341287
0.337265
0.333278
0.329345
0.325477
0.321683
0.317968
0.314334
0.310783
0.307313
0.303925
0.300616
0.297384
0.294227
0.291142
0.288126
0.285177
0.282292
0.279469
0.276706
0.273999
0.271348
0.26875
0.266203
0.263705
0.261255
0.258851
0.256491
0.254173
0.251898
0.249662
0.247465
0.245306
0.243183
0.241096
0.239043
0.237023
0.235035
0.233078
0.231152
0.229255
0.227387
0.225547
0.223734
0.221947
0.220185
0.218449
0.216737
0.215048
0.213382
0.211739
0.210118
0.208517
0.206938
0.205379
0.203839
0.202319
0.200818
0.199335
0.19787
0.196422
0.194991
0.193577
0.19218
0.190798
0.189432
0.188081
0.186745
0.185424
0.184117
0.182824
0.181545
0.18028
0.179027
0.177788
0.176561
0.175347
0.174145
0.172955
0.171777
0.170611
0.169456
0.168312
0.167179
0.166056
0.164945
0.163843
0.162752
0.161671
0.1606
0.159538
0.158485
0.157442
0.156408
0.155382
0.154366
0.153358
0.152358
0.151367
0.150384
0.149409
0.148442
0.147482
0.146531
0.145586
0.14465
0.14372
0.142798
0.141884
0.140976
0.140075
0.139181
0.138294
0.137414
0.136541
0.135674
0.134813
0.133959
0.133112
0.13227
0.131435
0.130606
0.129782
0.128965
0.128153
0.127347
0.126547
0.125753
0.124963
0.12418
0.123401
0.122628
0.12186
0.121096
0.120338
0.119585
0.118837
0.118093
0.117354
0.11662
0.11589
0.115164
0.114443
0.113726
0.113013
0.112305
0.1116
0.1109
0.110204
0.109511
0.108823
0.108138
0.107458
0.106781
0.106107
0.105438
0.104772
0.10411
0.103452
0.102797
0.102146
0.101498
0.100854
0.100213
0.0995761
0.0989424
0.0983121
0.0976851
0.0970615
0.0964411
0.095824
0.09521
0.0945991
0.0939914
0.0933867
0.092785
0.0921863
0.0915905
0.0909976
0.0904076
0.0898204
0.089236
0.0886543
0.0880753
0.087499
0.0869254
0.0863542
0.0857857
0.0852197
0.0846561
0.084095
0.0835364
0.0829802
0.0824265
0.0818753
0.0813265
0.0807801
0.0802363
0.0796949
0.0791559
0.0786194
0.0780852
0.0775534
0.0770238
0.0764964
0.0759711
0.0754477
0.0749263
0.0744068
0.073889
0.073373
0.0728587
0.0723462
0.0718354
0.0713264
0.0708192
0.070314
0.0698107
0.0693094
0.0688102
0.0683131
0.0678181
0.0673251
0.0668341
0.0663451
0.0658579
0.0653724
0.0648885
0.0644061
0.0639251
0.0634453
0.0629668
0.0624894
0.0620133
0.0615384
0.0610649
0.0605928
0.0601222
0.0596534
0.0591865
0.0587214
0.0582585
0.0577976
0.0573388
0.056882
0.0564271
0.055974
0.0555224
0.0550722
0.0546231
0.0541749
0.0537274
0.0532803
0.0528336
0.0523872
0.0519411
0.0514953
0.0510499
0.0506051
0.050161
0.0497179
0.0492759
0.0488353
0.0483962
0.0479588
0.0475232
0.0470894
0.0466572
0.0462265
0.0457972
0.0453689
0.0449415
0.0445145
0.0440877
0.0436608
0.0432338
0.0428064
0.0423787
0.0419507
0.0415226
0.0410946
0.0406669
0.0402396
0.0398131
0.0393874
0.0389629
0.0385395
0.0381174
0.0376966
0.0372771
0.0368589
0.0364419
0.0360261
0.0356111
0.0351969
0.0347832
0.0343698
0.0339564
0.0335429
0.0331292
0.0327153
0.0323014
0.0318878
0.0314749
0.031063
0.0306525
0.0302439
0.0298374
0.0294334
0.029032
0.0286333
0.028237
0.0278424
0.0274486
0.0270564
0.0265924
0.0262513
0.0257389
0.0254416
0.0249006
0.0246393
0.0241576
0.0241892
0.0233757
0.0230918
0.0225368
0.0223238
0.021739
0.0215663
0.0209476
0.0208235
0.0201716
0.0200853
0.0193897
0.019332
0.0185924
0.0185585
0.0177848
0.0177689
0.0169763
0.0169683
0.0161755
0.0161595
0.0153887
0.0153436
0.0146198
0.0145193
0.0138703
0.013685
0.0131404
0.0128396
0.0124293
0.0119832
0.0117353
0.0111175
0.0110554
0.0102453
0.0103853
0.00937028
0.00971855
0.00849632
0.00904688
0.00762753
0.00836133
0.00676876
0.00765374
0.00592609
0.00691808
0.00510664
0.00615094
0.00431743
0.00535126
0.00356393
0.00451974
0.00284864
0.00365837
0.00217048
0.00277033
0.00152486
0.00186025
0.000904404
0.000934417
0.000299325
)
;

boundaryField
{
    inlet
    {
        type            calculated;
        value           uniform -2154.97;
    }
    backWall
    {
        type            calculated;
        value           uniform 0;
    }
    sides
    {
        type            empty;
        value           nonuniform 0();
    }
}


// ************************************************************************* //
