/*--------------------------------*- C++ -*----------------------------------*\
| =========                 |                                                 |
| \\      /  F ield         | OpenFOAM: The Open Source CFD Toolbox           |
|  \\    /   O peration     | Version:  3.0.x                                 |
|   \\  /    A nd           | Web:      www.OpenFOAM.org                      |
|    \\/     M anipulation  |                                                 |
\*---------------------------------------------------------------------------*/
FoamFile
{
    version     2.0;
    format      ascii;
    class       volVectorField;
    location    "0.007";
    object      U;
}
// * * * * * * * * * * * * * * * * * * * * * * * * * * * * * * * * * * * * * //

dimensions      [0 1 -1 0 0 0 0];

internalField   nonuniform List<vector> 
1000
(
(42.7 0 0)
(42.7 0 0)
(42.7 0 0)
(42.7 0 0)
(42.7 0 0)
(42.7 0 0)
(42.7 0 0)
(42.7 0 0)
(42.7 0 0)
(42.7 0 0)
(42.7 0 0)
(42.7 0 0)
(42.7 0 0)
(42.7 0 0)
(42.7 0 0)
(42.7 0 0)
(42.7 0 0)
(42.7 0 0)
(42.7 0 0)
(42.7 0 0)
(42.7 0 0)
(42.7 0 0)
(42.7 0 0)
(42.7 0 0)
(42.7 0 0)
(42.7 0 0)
(42.7 0 0)
(42.7 0 0)
(42.7 0 0)
(42.7 0 0)
(42.7 0 0)
(42.7 0 0)
(42.7 0 0)
(42.7 0 0)
(42.7 0 0)
(42.7 0 0)
(42.7 0 0)
(42.7 0 0)
(42.7 0 0)
(42.7 0 0)
(42.7 0 0)
(42.7 0 0)
(42.7 0 0)
(42.7 0 0)
(42.7 0 0)
(42.7 0 0)
(42.7 0 0)
(42.7 0 0)
(42.7 0 0)
(42.7 0 0)
(42.7 0 0)
(42.7 0 0)
(42.7 0 0)
(42.7 0 0)
(42.7 0 0)
(42.7 0 0)
(42.7 0 0)
(42.7 0 0)
(42.7 0 0)
(42.7 0 0)
(42.7 0 0)
(42.7 0 0)
(42.7 0 0)
(42.7 0 0)
(42.7 0 0)
(42.7 0 0)
(42.7 0 0)
(42.7 0 0)
(42.7 0 0)
(42.7 0 0)
(42.7 0 0)
(42.7 0 0)
(42.7 0 0)
(42.7 0 0)
(42.7 0 0)
(42.7 0 0)
(42.7 0 0)
(42.7 0 0)
(42.7 0 0)
(42.7 0 0)
(42.7 0 0)
(42.7 0 0)
(42.7 0 0)
(42.7 0 0)
(42.7 0 0)
(42.7 0 0)
(42.7 0 0)
(42.7 0 0)
(42.7 0 0)
(42.7 0 0)
(42.7 0 0)
(42.7 0 0)
(42.7 0 0)
(42.7 0 0)
(42.7 0 0)
(42.7 0 0)
(42.7 0 0)
(42.7 0 0)
(42.7 0 0)
(42.7 0 0)
(42.7 0 0)
(42.7 0 0)
(42.7 0 0)
(42.7 0 0)
(42.7 0 0)
(42.7 0 0)
(42.7 0 0)
(42.7 0 0)
(42.7 0 0)
(42.7 0 0)
(42.7 0 0)
(42.7 0 0)
(42.7 0 0)
(42.7 0 0)
(42.7 0 0)
(42.7 0 0)
(42.7 0 0)
(42.7 0 0)
(42.7 0 0)
(42.7 0 0)
(42.7 0 0)
(42.7 0 0)
(42.7 0 0)
(42.7 0 0)
(42.7 0 0)
(42.7 0 0)
(42.7 0 0)
(42.7 0 0)
(42.7 0 0)
(42.7 0 0)
(42.7 0 0)
(42.7 0 0)
(42.7 0 0)
(42.7 0 0)
(42.7 0 0)
(42.7 0 0)
(42.7 0 0)
(42.7 0 0)
(42.7 0 0)
(42.7 0 0)
(42.7 0 0)
(42.7 0 0)
(42.7 0 0)
(42.7 0 0)
(42.7 0 0)
(42.7 0 0)
(42.7 0 0)
(42.7 0 0)
(42.7 0 0)
(42.7 0 0)
(42.7 0 0)
(42.7 0 0)
(42.7 0 0)
(42.7 0 0)
(42.7 0 0)
(42.7 0 0)
(42.7 0 0)
(42.7 0 0)
(42.7 0 0)
(42.7 0 0)
(42.7 0 0)
(42.7 0 0)
(42.7 0 0)
(42.7 0 0)
(42.7 0 0)
(42.7 0 0)
(42.7 0 0)
(42.7 0 0)
(42.7 0 0)
(42.7 0 0)
(42.7 0 0)
(42.7 0 0)
(42.7 0 0)
(42.7 0 0)
(42.7 0 0)
(42.7 0 0)
(42.7 0 0)
(42.7 0 0)
(42.7 0 0)
(42.7 0 0)
(42.7 0 0)
(42.7 0 0)
(42.7 0 0)
(42.7 0 0)
(42.7 0 0)
(42.7 0 0)
(42.7 0 0)
(42.7 0 0)
(42.7 0 0)
(42.7 0 0)
(42.7 0 0)
(42.7 0 0)
(42.7 0 0)
(42.7 0 0)
(42.7 0 0)
(42.7 0 0)
(42.7 0 0)
(42.7 0 0)
(42.7 0 0)
(42.7 0 0)
(42.7 0 0)
(42.7 0 0)
(42.7 0 0)
(42.7 0 0)
(42.7 0 0)
(42.7 0 0)
(42.7 0 0)
(42.7 0 0)
(42.7 0 0)
(42.7 0 0)
(42.7 0 0)
(42.7 0 0)
(42.7 0 0)
(42.7 0 0)
(42.7 0 0)
(42.7 0 0)
(42.7 0 0)
(42.7 0 0)
(42.7 0 0)
(42.7 0 0)
(42.7 0 0)
(42.7 0 0)
(42.7 0 0)
(42.7 0 0)
(42.7 0 0)
(42.7 0 0)
(42.7 0 0)
(42.7 0 0)
(42.7 0 0)
(42.7 0 0)
(42.7 0 0)
(42.7 0 0)
(42.7 0 0)
(42.7 0 0)
(42.7 0 0)
(42.7 0 0)
(42.7 0 0)
(42.7 0 0)
(42.7 0 0)
(42.7 0 0)
(42.7 0 0)
(42.7 0 0)
(42.7 0 0)
(42.7 0 0)
(42.7 0 0)
(42.7 0 0)
(42.7 0 0)
(42.7 0 0)
(42.7 0 0)
(42.7 0 0)
(42.7 0 0)
(42.7 0 0)
(42.7 0 0)
(42.7 0 0)
(42.7 0 0)
(42.7 0 0)
(42.7 0 0)
(42.7 0 0)
(42.7 0 0)
(42.7 0 0)
(42.7 0 0)
(42.7 0 0)
(42.7 0 0)
(42.7 0 0)
(42.7 0 0)
(42.7 0 0)
(42.7 0 0)
(42.7 0 0)
(42.7 0 0)
(42.7 0 0)
(42.7 0 0)
(42.7 0 0)
(42.7 0 0)
(42.7 0 0)
(42.7 0 0)
(42.7 0 0)
(42.7 0 0)
(42.7 0 0)
(42.7 0 0)
(42.7 0 0)
(42.7 0 0)
(42.7 0 0)
(42.7 0 0)
(42.7 0 0)
(42.7 0 0)
(42.7 0 0)
(42.7 0 0)
(42.7 0 0)
(42.7 0 0)
(42.7 0 0)
(42.7 0 0)
(42.7 0 0)
(42.7 0 0)
(42.7 0 0)
(42.7 0 0)
(42.7 0 0)
(42.7 0 0)
(42.7 0 0)
(42.7 0 0)
(42.7 0 0)
(42.7 0 0)
(42.7 0 0)
(42.7 0 0)
(42.7 0 0)
(42.7 0 0)
(42.7 0 0)
(42.7 0 0)
(42.7 0 0)
(42.7 0 0)
(42.7 0 0)
(42.7 0 0)
(42.7 0 0)
(42.7 0 0)
(42.7 0 0)
(42.7 0 0)
(42.7 0 0)
(42.7 0 0)
(42.7 0 0)
(42.7 0 0)
(42.7 0 0)
(42.7 0 0)
(42.7 0 0)
(42.7 0 0)
(42.7 0 0)
(42.7 0 0)
(42.7 0 0)
(42.7 0 0)
(42.7 0 0)
(42.7 0 0)
(42.7 0 0)
(42.7 0 0)
(42.7 0 0)
(42.7 0 0)
(42.7 0 0)
(42.7 0 0)
(42.7 0 0)
(42.7 0 0)
(42.7 0 0)
(42.7 0 0)
(42.7 0 0)
(42.7 0 0)
(42.7 0 0)
(42.7 0 0)
(42.7 0 0)
(42.7 0 0)
(42.7 0 0)
(42.7 0 0)
(42.7 0 0)
(42.7 0 0)
(42.7 0 0)
(42.7 0 0)
(42.7 0 0)
(42.7 0 0)
(42.7 0 0)
(42.7 0 0)
(42.7 0 0)
(42.7 0 0)
(42.7 0 0)
(42.7 0 0)
(42.7 0 0)
(42.7 0 0)
(42.7 0 0)
(42.7 0 0)
(42.7 0 0)
(42.7 0 0)
(42.7 0 0)
(42.7 0 0)
(42.7 0 0)
(42.7 0 0)
(42.7 0 0)
(42.7 0 0)
(42.7 0 0)
(42.7 0 0)
(42.7 0 0)
(42.7 0 0)
(42.7 0 0)
(42.7 0 0)
(42.7 0 0)
(42.7 0 0)
(42.7 0 0)
(42.7 0 0)
(42.7 0 0)
(42.7 0 0)
(42.7 0 0)
(42.7 0 0)
(42.7 0 0)
(42.7 0 0)
(42.7 0 0)
(42.7 0 0)
(42.7 0 0)
(42.7 0 0)
(42.7 0 0)
(42.7 0 0)
(42.7 0 0)
(42.7 0 0)
(42.7 0 0)
(42.7 0 0)
(42.7 0 0)
(42.7 0 0)
(42.7 0 0)
(42.7 0 0)
(42.7 0 0)
(42.7 0 0)
(42.7 0 0)
(42.7 0 0)
(42.7 0 0)
(42.7 0 0)
(42.7 0 0)
(42.7 0 0)
(42.7 0 0)
(42.7 0 0)
(42.7 0 0)
(42.7 0 0)
(42.7 0 0)
(42.7 0 0)
(42.7 0 0)
(42.7 0 0)
(42.7 0 0)
(42.7 0 0)
(42.7 0 0)
(42.7 0 0)
(42.7 0 0)
(42.7 0 0)
(42.7 0 0)
(42.7 0 0)
(42.7 0 0)
(42.7 0 0)
(42.7 0 0)
(42.7 0 0)
(42.7 0 0)
(42.7 0 0)
(42.7 0 0)
(42.7 0 0)
(42.7 0 0)
(42.7 0 0)
(42.7 0 0)
(42.7 0 0)
(42.7 0 0)
(42.7 0 0)
(42.7 0 0)
(42.7 0 0)
(42.7 0 0)
(42.7 0 0)
(42.7 0 0)
(42.7 0 0)
(42.7 0 0)
(42.7 0 0)
(42.7 0 0)
(42.7 0 0)
(42.7 0 0)
(42.7 0 0)
(42.7 0 0)
(42.7 0 0)
(42.7 0 0)
(42.7 0 0)
(42.7 0 0)
(42.7 0 0)
(42.7 0 0)
(42.7 0 0)
(42.7 0 0)
(42.7 0 0)
(42.7 0 0)
(42.7 0 0)
(42.7 0 0)
(42.7 0 0)
(42.7 0 0)
(42.7 0 0)
(42.7 0 0)
(42.7 0 0)
(42.7 0 0)
(42.7 0 0)
(42.7 0 0)
(42.7 0 0)
(42.7 0 0)
(42.7 0 0)
(42.7 0 0)
(42.7 0 0)
(42.7 0 0)
(42.7 0 0)
(42.7 0 0)
(42.7 0 0)
(42.7 0 0)
(42.7 0 0)
(42.7 0 0)
(42.7 0 0)
(42.6999 0 0)
(42.6999 0 0)
(42.6999 0 0)
(42.6999 0 0)
(42.6998 0 0)
(42.6998 0 0)
(42.6997 0 0)
(42.6997 0 0)
(42.6996 0 0)
(42.6994 0 0)
(42.6993 0 0)
(42.6991 0 0)
(42.6988 0 0)
(42.6985 0 0)
(42.6981 0 0)
(42.6976 0 0)
(42.697 0 0)
(42.6963 0 0)
(42.6953 0 0)
(42.6941 0 0)
(42.6927 0 0)
(42.6909 0 0)
(42.6886 0 0)
(42.6859 0 0)
(42.6825 0 0)
(42.6784 0 0)
(42.6733 0 0)
(42.6672 0 0)
(42.6597 0 0)
(42.6506 0 0)
(42.6396 0 0)
(42.6263 0 0)
(42.6103 0 0)
(42.5911 0 0)
(42.568 0 0)
(42.5403 0 0)
(42.5073 0 0)
(42.4679 0 0)
(42.4212 0 0)
(42.3657 0 0)
(42.3001 0 0)
(42.2227 0 0)
(42.1315 0 0)
(42.0246 0 0)
(41.8993 0 0)
(41.753 0 0)
(41.5826 0 0)
(41.3848 0 0)
(41.1558 0 0)
(40.8916 0 0)
(40.5876 0 0)
(40.2392 0 0)
(39.8414 0 0)
(39.3889 0 0)
(38.8764 0 0)
(38.2984 0 0)
(37.6499 0 0)
(36.9259 0 0)
(36.1221 0 0)
(35.2349 0 0)
(34.2619 0 0)
(33.2019 0 0)
(32.0555 0 0)
(30.825 0 0)
(29.5149 0 0)
(28.1318 0 0)
(26.6846 0 0)
(25.1841 0 0)
(23.6432 0 0)
(22.076 0 0)
(20.4978 0 0)
(18.9245 0 0)
(17.3716 0 0)
(15.8541 0 0)
(14.3858 0 0)
(12.9788 0 0)
(11.6431 0 0)
(10.3866 0 0)
(9.21491 0 0)
(8.1315 0 0)
(7.13769 0 0)
(6.23297 0 0)
(5.41528 0 0)
(4.68128 0 0)
(4.02663 0 0)
(3.44631 0 0)
(2.93484 0 0)
(2.4865 0 0)
(2.09554 0 0)
(1.75631 0 0)
(1.46334 0 0)
(1.21151 0 0)
(0.996003 0 0)
(0.812427 0 0)
(0.656772 0 0)
(0.525439 0 0)
(0.415222 0 0)
(0.323298 0 0)
(0.247202 0 0)
(0.184799 0 0)
(0.134256 0 0)
(0.094002 0 0)
(0.0626875 0 0)
(0.0391343 0 0)
(0.0222782 0 0)
(0.0111066 0 0)
(0.00459222 0 0)
(0.0016288 0 0)
(0.00099739 0 0)
(0.00152182 0 0)
(0.00240424 0 0)
(0.00329867 0 0)
(0.00409468 0 0)
(0.00476445 0 0)
(0.00530909 0 0)
(0.00574005 0 0)
(0.00607213 0 0)
(0.00632042 0 0)
(0.00649903 0 0)
(0.00662056 0 0)
(0.00669593 0 0)
(0.00673445 0 0)
(0.00674389 0 0)
(0.00673067 0 0)
(0.00670005 0 0)
(0.00665628 0 0)
(0.00660277 0 0)
(0.00654222 0 0)
(0.00647676 0 0)
(0.00640807 0 0)
(0.0063374 0 0)
(0.00626576 0 0)
(0.00619388 0 0)
(0.0061223 0 0)
(0.00605143 0 0)
(0.00598155 0 0)
(0.00591288 0 0)
(0.00584551 0 0)
(0.00577955 0 0)
(0.00571502 0 0)
(0.00565194 0 0)
(0.0055903 0 0)
(0.00553007 0 0)
(0.00547123 0 0)
(0.00541373 0 0)
(0.00535753 0 0)
(0.00530259 0 0)
(0.00524885 0 0)
(0.00519628 0 0)
(0.00514483 0 0)
(0.00509445 0 0)
(0.00504511 0 0)
(0.00499677 0 0)
(0.00494939 0 0)
(0.00490293 0 0)
(0.00485737 0 0)
(0.00481266 0 0)
(0.00476879 0 0)
(0.00472572 0 0)
(0.00468343 0 0)
(0.00464189 0 0)
(0.00460106 0 0)
(0.00456095 0 0)
(0.00452151 0 0)
(0.00448274 0 0)
(0.0044446 0 0)
(0.00440709 0 0)
(0.00437017 0 0)
(0.00433384 0 0)
(0.00429808 0 0)
(0.00426286 0 0)
(0.00422818 0 0)
(0.00419401 0 0)
(0.00416035 0 0)
(0.00412719 0 0)
(0.00409449 0 0)
(0.00406226 0 0)
(0.00403049 0 0)
(0.00399915 0 0)
(0.00396824 0 0)
(0.00393774 0 0)
(0.00390766 0 0)
(0.00387797 0 0)
(0.00384866 0 0)
(0.00381974 0 0)
(0.00379117 0 0)
(0.00376297 0 0)
(0.00373511 0 0)
(0.00370761 0 0)
(0.00368042 0 0)
(0.00365357 0 0)
(0.00362703 0 0)
(0.0036008 0 0)
(0.00357488 0 0)
(0.00354925 0 0)
(0.00352391 0 0)
(0.00349886 0 0)
(0.00347407 0 0)
(0.00344957 0 0)
(0.00342533 0 0)
(0.00340135 0 0)
(0.00337762 0 0)
(0.00335415 0 0)
(0.00333091 0 0)
(0.00330793 0 0)
(0.00328517 0 0)
(0.00326265 0 0)
(0.00324036 0 0)
(0.00321828 0 0)
(0.00319643 0 0)
(0.0031748 0 0)
(0.00315335 0 0)
(0.00313215 0 0)
(0.00311113 0 0)
(0.0030903 0 0)
(0.0030697 0 0)
(0.00304926 0 0)
(0.00302901 0 0)
(0.00300897 0 0)
(0.00298908 0 0)
(0.00296938 0 0)
(0.00294988 0 0)
(0.00293051 0 0)
(0.00291133 0 0)
(0.00289234 0 0)
(0.00287345 0 0)
(0.00285478 0 0)
(0.00283625 0 0)
(0.00281782 0 0)
(0.00279964 0 0)
(0.00278154 0 0)
(0.00276356 0 0)
(0.00274584 0 0)
(0.00272814 0 0)
(0.00271061 0 0)
(0.00269332 0 0)
(0.002676 0 0)
(0.0026589 0 0)
(0.00264203 0 0)
(0.00262505 0 0)
(0.00260841 0 0)
(0.00259192 0 0)
(0.00257526 0 0)
(0.0025591 0 0)
(0.00254294 0 0)
(0.00252657 0 0)
(0.00251096 0 0)
(0.00249499 0 0)
(0.00247903 0 0)
(0.00246382 0 0)
(0.00244829 0 0)
(0.00243203 0 0)
(0.00241879 0 0)
(0.00240073 0 0)
(0.00238856 0 0)
(0.00237252 0 0)
(0.00235488 0 0)
(0.00234743 0 0)
(0.00232393 0 0)
(0.00231442 0 0)
(0.00230273 0 0)
(0.00227924 0 0)
(0.00227493 0 0)
(0.00225518 0 0)
(0.00224044 0 0)
(0.00223202 0 0)
(0.00221099 0 0)
(0.0022028 0 0)
(0.00218673 0 0)
(0.00217088 0 0)
(0.00216516 0 0)
(0.00214101 0 0)
(0.00213411 0 0)
(0.00212573 0 0)
(0.00209814 0 0)
(0.00209814 0 0)
(0.00208379 0 0)
(0.0020588 0 0)
(0.0020626 0 0)
(0.00204026 0 0)
(0.00202309 0 0)
(0.00202551 0 0)
(0.00199919 0 0)
(0.00198846 0 0)
(0.00198474 0 0)
(0.00196252 0 0)
(0.00195301 0 0)
(0.00194376 0 0)
(0.00192761 0 0)
(0.00191832 0 0)
(0.00190265 0 0)
(0.00189546 0 0)
(0.00188121 0 0)
(0.00186513 0 0)
(0.00186378 0 0)
(0.0018417 0 0)
(0.0018315 0 0)
(0.00183246 0 0)
(0.00180149 0 0)
(0.00180051 0 0)
(0.00180305 0 0)
(0.00176082 0 0)
(0.0017721 0 0)
(0.00177281 0 0)
(0.00172274 0 0)
(0.00174282 0 0)
(0.00173664 0 0)
(0.00168972 0 0)
(0.00171172 0 0)
(0.00169555 0 0)
(0.0016625 0 0)
(0.00167766 0 0)
(0.00165868 0 0)
(0.0016355 0 0)
(0.00163909 0 0)
(0.00162706 0 0)
(0.00160632 0 0)
(0.00160286 0 0)
(0.001595 0 0)
(0.00158125 0 0)
(0.00156267 0 0)
(0.00157001 0 0)
(0.00155932 0 0)
(0.00152348 0 0)
(0.00154197 0 0)
(0.00153288 0 0)
(0.00149013 0 0)
(0.00151031 0 0)
(0.00150893 0 0)
(0.00145197 0 0)
(0.00148669 0 0)
(0.00147919 0 0)
(0.00141697 0 0)
(0.00146388 0 0)
(0.00144381 0 0)
(0.00139204 0 0)
(0.00143264 0 0)
(0.00141074 0 0)
(0.00137167 0 0)
(0.0013951 0 0)
(0.00137939 0 0)
(0.0013561 0 0)
(0.00135002 0 0)
(0.0013557 0 0)
(0.00134463 0 0)
(0.00130713 0 0)
(0.00132441 0 0)
(0.00132715 0 0)
(0.00126848 0 0)
(0.00130211 0 0)
(0.00129781 0 0)
(0.00123814 0 0)
(0.00128073 0 0)
(0.00126073 0 0)
(0.00122048 0 0)
(0.00124959 0 0)
(0.0012305 0 0)
(0.00120076 0 0)
(0.00121499 0 0)
(0.00119812 0 0)
(0.00118853 0 0)
(0.0011709 0 0)
(0.00117903 0 0)
(0.00117108 0 0)
(0.00113489 0 0)
(0.00115572 0 0)
(0.00114588 0 0)
(0.00111232 0 0)
(0.00112034 0 0)
(0.00112744 0 0)
(0.00110268 0 0)
(0.00107639 0 0)
(0.00110242 0 0)
(0.00108321 0 0)
(0.00104157 0 0)
(0.00107871 0 0)
(0.00105488 0 0)
(0.0010207 0 0)
(0.00105135 0 0)
(0.00102401 0 0)
(0.00101551 0 0)
(0.00100217 0 0)
(0.00100093 0 0)
(0.00100898 0 0)
(0.000962067 0 0)
(0.000982117 0 0)
(0.000981052 0 0)
(0.000955122 0 0)
(0.000941713 0 0)
(0.000962238 0 0)
(0.000935139 0 0)
(0.000908496 0 0)
(0.000943072 0 0)
(0.000904453 0 0)
(0.000891452 0 0)
(0.000907571 0 0)
(0.000887169 0 0)
(0.000866254 0 0)
(0.000874926 0 0)
(0.000869587 0 0)
(0.000841904 0 0)
(0.000864155 0 0)
(0.00083134 0 0)
(0.000826272 0 0)
(0.000838497 0 0)
(0.000803239 0 0)
(0.00081074 0 0)
(0.000801708 0 0)
(0.000799097 0 0)
(0.000763582 0 0)
(0.000791766 0 0)
(0.000766584 0 0)
(0.000743228 0 0)
(0.000770716 0 0)
(0.000737474 0 0)
(0.000727459 0 0)
(0.000741353 0 0)
(0.000717651 0 0)
(0.000700667 0 0)
(0.000724356 0 0)
(0.000684338 0 0)
(0.000689661 0 0)
(0.000686642 0 0)
(0.000676023 0 0)
(0.000651873 0 0)
(0.000677056 0 0)
(0.000638383 0 0)
(0.000647242 0 0)
(0.00063547 0 0)
(0.000629272 0 0)
(0.000624218 0 0)
(0.000599712 0 0)
(0.000618921 0 0)
(0.000589767 0 0)
(0.000585555 0 0)
(0.000589981 0 0)
(0.000569761 0 0)
(0.000565017 0 0)
(0.000565273 0 0)
(0.000541895 0 0)
(0.000558307 0 0)
(0.000516917 0 0)
(0.00055167 0 0)
(0.000501792 0 0)
(0.000533002 0 0)
(0.000474672 0 0)
(0.000639184 0 0)
(0.000136306 0 0)
(0.00114673 0 0)
(-0.000588816 0 0)
(0.00201814 0 0)
(-0.00165751 0 0)
(0.00321533 0 0)
(-0.00303282 0 0)
(0.00470014 0 0)
(-0.00467822 0 0)
(0.00649569 0 0)
(-0.00677635 0 0)
(0.00890343 0 0)
(-0.00959889 0 0)
(0.0121336 0 0)
(-0.0133496 0 0)
(0.0164086 0 0)
(-0.0182709 0 0)
(0.0219905 0 0)
(-0.0246455 0 0)
(0.0291811 0 0)
(-0.0327945 0 0)
(0.0383193 0 0)
(-0.0430735 0 0)
(0.0497757 0 0)
(-0.055865 0 0)
(0.0639425 0 0)
(-0.071567 0 0)
(0.0812198 0 0)
(-0.0905766 0 0)
(0.101997 0 0)
(-0.113269 0 0)
(0.126628 0 0)
(-0.139972 0 0)
(0.155408 0 0)
(-0.170939 0 0)
(0.188541 0 0)
(-0.206318 0 0)
(0.226111 0 0)
(-0.246119 0 0)
(0.268049 0 0)
(-0.290192 0 0)
(0.314113 0 0)
(-0.338194 0 0)
(0.363861 0 0)
(-0.389583 0 0)
(0.416645 0 0)
(-0.443603 0 0)
(0.471604 0 0)
(-0.499295 0 0)
(0.527684 0 0)
(-0.555513 0 0)
(0.583656 0 0)
(-0.610956 0 0)
(0.638159 0 0)
(-0.664216 0 0)
(0.689751 0 0)
(-0.713832 0 0)
(0.736969 0 0)
(-0.758356 0 0)
(0.778397 0 0)
(-0.796421 0 0)
(0.812737 0 0)
(-0.826812 0 0)
(0.838873 0 0)
(-0.848531 0 0)
(0.855935 0 0)
(-0.860849 0 0)
(0.863346 0 0)
)
;

boundaryField
{
    inlet
    {
        type            fixedValue;
        value           uniform (42.7 0 0);
    }
    backWall
    {
        type            fixedValue;
        value           uniform (0 0 0);
    }
    sides
    {
        type            empty;
    }
}


// ************************************************************************* //
