/*--------------------------------*- C++ -*----------------------------------*\
| =========                 |                                                 |
| \\      /  F ield         | OpenFOAM: The Open Source CFD Toolbox           |
|  \\    /   O peration     | Version:  3.0.x                                 |
|   \\  /    A nd           | Web:      www.OpenFOAM.org                      |
|    \\/     M anipulation  |                                                 |
\*---------------------------------------------------------------------------*/
FoamFile
{
    version     2.0;
    format      ascii;
    class       volVectorField;
    location    "0.08";
    object      U;
}
// * * * * * * * * * * * * * * * * * * * * * * * * * * * * * * * * * * * * * //

dimensions      [0 1 -1 0 0 0 0];

internalField   nonuniform List<vector> 
6900
(
(42.6873 0.000101973 0)
(42.6583 9.33256e-05 0)
(42.6255 9.07748e-05 0)
(42.5959 9.155e-05 0)
(42.5687 9.19656e-05 0)
(42.5426 9.16669e-05 0)
(42.5176 9.05425e-05 0)
(42.4941 8.82449e-05 0)
(42.4721 8.44162e-05 0)
(42.4515 7.88468e-05 0)
(42.4324 7.15606e-05 0)
(42.4148 6.28617e-05 0)
(42.3984 5.32835e-05 0)
(42.3832 4.34924e-05 0)
(42.369 3.41423e-05 0)
(42.3556 2.57626e-05 0)
(42.3428 1.86845e-05 0)
(42.3305 1.30294e-05 0)
(42.3184 8.74164e-06 0)
(42.3064 5.64825e-06 0)
(42.2944 3.519e-06 0)
(42.2823 2.11759e-06 0)
(42.27 1.23293e-06 0)
(42.2576 6.94896e-07 0)
(42.2448 3.89325e-07 0)
(42.2316 2.13491e-07 0)
(42.2182 1.17809e-07 0)
(42.2046 6.77079e-08 0)
(42.1908 4.28033e-08 0)
(42.177 3.11475e-08 0)
(42.1632 2.6e-08 0)
(42.1494 2.38248e-08 0)
(42.1357 2.27782e-08 0)
(42.1222 2.21081e-08 0)
(42.1089 2.13935e-08 0)
(42.0959 2.04791e-08 0)
(42.0832 1.93279e-08 0)
(42.0709 1.79606e-08 0)
(42.0589 1.64236e-08 0)
(42.0474 1.47362e-08 0)
(42.0363 1.29082e-08 0)
(42.0256 1.09543e-08 0)
(42.0154 8.91203e-09 0)
(42.0057 6.68838e-09 0)
(41.9965 4.11266e-09 0)
(41.9877 9.09102e-10 0)
(41.9795 -1.77793e-09 0)
(41.9717 -4.09792e-09 0)
(41.9645 -6.41061e-09 0)
(41.9577 -8.71576e-09 0)
(41.9515 -1.10527e-08 0)
(41.9457 -1.33099e-08 0)
(41.9405 -1.55684e-08 0)
(41.9357 -1.77573e-08 0)
(41.9315 -1.99399e-08 0)
(41.9277 -2.2022e-08 0)
(41.9244 -2.40611e-08 0)
(41.9216 -2.60226e-08 0)
(41.9193 -2.7912e-08 0)
(41.9174 -2.97024e-08 0)
(41.9159 -3.13882e-08 0)
(41.9148 -3.30003e-08 0)
(41.9141 -3.44792e-08 0)
(41.9137 -3.58607e-08 0)
(41.9137 -3.68886e-08 0)
(41.9139 -3.82575e-08 0)
(41.9144 -3.92381e-08 0)
(41.9151 -4.01568e-08 0)
(41.9161 -4.09873e-08 0)
(41.9171 -4.16076e-08 0)
(41.9183 -4.21206e-08 0)
(41.9196 -4.2558e-08 0)
(41.9209 -4.28187e-08 0)
(41.9222 -4.29734e-08 0)
(41.9234 -4.30613e-08 0)
(41.9245 -4.3e-08 0)
(41.9256 -4.28404e-08 0)
(41.9264 -4.26448e-08 0)
(41.9271 -4.23543e-08 0)
(41.9275 -4.19787e-08 0)
(41.9277 -4.16623e-08 0)
(41.9277 -4.13357e-08 0)
(41.9274 -4.08089e-08 0)
(41.9268 -4.03625e-08 0)
(41.926 -3.99798e-08 0)
(41.9249 -3.95746e-08 0)
(41.9235 -3.93061e-08 0)
(41.9219 -3.90288e-08 0)
(41.9201 -3.88446e-08 0)
(41.9181 -3.87568e-08 0)
(41.916 -3.87039e-08 0)
(41.9137 -3.87822e-08 0)
(41.9114 -3.89305e-08 0)
(41.9091 -3.91997e-08 0)
(41.9069 -3.95537e-08 0)
(41.9047 -3.99902e-08 0)
(41.9026 -4.0527e-08 0)
(41.9008 -4.11046e-08 0)
(41.8991 -4.17694e-08 0)
(41.8977 -4.24722e-08 0)
(41.8966 -4.31978e-08 0)
(41.8957 -4.39721e-08 0)
(41.8952 -4.47374e-08 0)
(41.8949 -4.54709e-08 0)
(41.895 -4.60405e-08 0)
(41.8954 -4.70074e-08 0)
(41.896 -4.76826e-08 0)
(41.897 -4.83127e-08 0)
(41.8981 -4.88309e-08 0)
(41.8995 -4.934e-08 0)
(41.901 -4.96761e-08 0)
(41.9027 -4.99297e-08 0)
(41.9045 -5.01029e-08 0)
(41.9062 -5.01047e-08 0)
(41.908 -5.00251e-08 0)
(41.9097 -4.98353e-08 0)
(41.9113 -4.94941e-08 0)
(41.9127 -4.90967e-08 0)
(41.9138 -4.85843e-08 0)
(41.9148 -4.79793e-08 0)
(41.9154 -4.73576e-08 0)
(41.9156 -4.67292e-08 0)
(41.9155 -4.61909e-08 0)
(41.9151 -4.53129e-08 0)
(41.9142 -4.44852e-08 0)
(41.9129 -4.38135e-08 0)
(41.9112 -4.3059e-08 0)
(41.9091 -4.23856e-08 0)
(41.9066 -4.17499e-08 0)
(41.9037 -4.11322e-08 0)
(41.9005 -4.06375e-08 0)
(41.897 -4.01399e-08 0)
(41.8931 -3.97949e-08 0)
(41.889 -3.94819e-08 0)
(41.8846 -3.9245e-08 0)
(41.88 -3.9085e-08 0)
(41.8751 -3.88978e-08 0)
(41.8699 -3.87805e-08 0)
(41.8644 -3.85823e-08 0)
(41.8585 -3.83841e-08 0)
(41.8522 -3.81106e-08 0)
(41.8455 -3.7711e-08 0)
(41.8382 -3.7264e-08 0)
(41.8303 -3.66413e-08 0)
(41.8217 -3.59473e-08 0)
(41.8124 -3.51212e-08 0)
(41.8023 -3.41767e-08 0)
(41.7914 -3.32011e-08 0)
(41.7796 -3.21345e-08 0)
(41.7671 -3.11328e-08 0)
(41.7536 -3.02027e-08 0)
(41.7395 -2.94291e-08 0)
(41.7246 -2.8936e-08 0)
(41.7091 -2.87389e-08 0)
(41.6931 -2.89832e-08 0)
(41.6768 -2.96669e-08 0)
(41.6602 -3.08494e-08 0)
(41.6435 -3.25203e-08 0)
(41.6269 -3.46375e-08 0)
(41.6106 -3.71991e-08 0)
(41.5947 -4.01067e-08 0)
(41.5794 -4.33282e-08 0)
(41.5647 -4.67884e-08 0)
(41.551 -5.04831e-08 0)
(41.5382 -5.44263e-08 0)
(41.5265 -5.85551e-08 0)
(41.5159 -6.28547e-08 0)
(41.5066 -6.72487e-08 0)
(41.4984 -7.16578e-08 0)
(41.4915 -7.60095e-08 0)
(41.4857 -8.01998e-08 0)
(41.481 -8.41701e-08 0)
(41.4772 -8.78413e-08 0)
(41.4744 -9.11525e-08 0)
(41.4723 -9.40495e-08 0)
(41.4707 -9.64829e-08 0)
(41.4695 -9.84335e-08 0)
(41.4684 -9.98971e-08 0)
(41.4673 -1.0085e-07 0)
(41.466 -1.01412e-07 0)
(41.4643 -1.01461e-07 0)
(41.4621 -1.01497e-07 0)
(41.4592 -8.91469e-08 0)
(41.4555 -1.09387e-07 0)
(41.4511 -1.00288e-07 0)
(41.446 -1.10397e-07 0)
(41.4401 -8.71467e-08 0)
(41.4336 -9.41713e-08 0)
(41.4265 -1.17743e-07 0)
(41.4189 -9.19672e-08 0)
(41.411 -1.14365e-07 0)
(41.4026 -9.01939e-08 0)
(41.3938 -1.01659e-08 0)
(41.3847 6.28728e-07 0)
(41.375 5.01841e-06 0)
(41.3642 3.59518e-05 0)
(41.3482 0.000252164 0)
(41.2988 0.00177745 0)
(41.1133 0.0160799 0)
(38.6398 0.0833757 0)
(42.6891 0.000129331 0)
(42.6619 9.96913e-05 0)
(42.6309 8.69704e-05 0)
(42.6031 8.61691e-05 0)
(42.5777 8.58206e-05 0)
(42.5534 8.47913e-05 0)
(42.5302 8.32402e-05 0)
(42.5084 8.08188e-05 0)
(42.488 7.71331e-05 0)
(42.4691 7.19575e-05 0)
(42.4515 6.52852e-05 0)
(42.4351 5.73664e-05 0)
(42.4198 4.86628e-05 0)
(42.4056 3.97644e-05 0)
(42.3921 3.12567e-05 0)
(42.3793 2.36187e-05 0)
(42.3669 1.71543e-05 0)
(42.3549 1.19788e-05 0)
(42.343 8.04618e-06 0)
(42.3312 5.20315e-06 0)
(42.3193 3.24244e-06 0)
(42.3072 1.94952e-06 0)
(42.2949 1.13123e-06 0)
(42.2825 6.3145e-07 0)
(42.2697 3.54191e-07 0)
(42.2565 1.92687e-07 0)
(42.2431 1.06756e-07 0)
(42.2295 6.41371e-08 0)
(42.2157 4.4809e-08 0)
(42.2019 3.68132e-08 0)
(42.1881 3.35954e-08 0)
(42.1743 3.22527e-08 0)
(42.1606 3.13996e-08 0)
(42.1471 3.05536e-08 0)
(42.1338 2.93995e-08 0)
(42.1208 2.78612e-08 0)
(42.1081 2.59391e-08 0)
(42.0958 2.37012e-08 0)
(42.0838 2.12105e-08 0)
(42.0723 1.85101e-08 0)
(42.0612 1.56287e-08 0)
(42.0505 1.25839e-08 0)
(42.0403 9.43147e-09 0)
(42.0306 6.08904e-09 0)
(42.0214 2.4505e-09 0)
(42.0126 -1.60984e-09 0)
(42.0044 -4.82348e-09 0)
(41.9966 -7.67458e-09 0)
(41.9894 -1.05525e-08 0)
(41.9826 -1.34543e-08 0)
(41.9763 -1.6378e-08 0)
(41.9706 -1.92028e-08 0)
(41.9653 -2.20086e-08 0)
(41.9606 -2.47237e-08 0)
(41.9563 -2.74058e-08 0)
(41.9526 -2.99445e-08 0)
(41.9493 -3.24017e-08 0)
(41.9465 -3.47325e-08 0)
(41.9441 -3.69514e-08 0)
(41.9422 -3.90245e-08 0)
(41.9407 -4.09336e-08 0)
(41.9396 -4.27212e-08 0)
(41.9389 -4.43183e-08 0)
(41.9386 -4.57422e-08 0)
(41.9385 -4.6604e-08 0)
(41.9388 -4.80469e-08 0)
(41.9393 -4.89183e-08 0)
(41.94 -4.96592e-08 0)
(41.9409 -5.02585e-08 0)
(41.942 -5.05633e-08 0)
(41.9432 -5.07065e-08 0)
(41.9444 -5.07257e-08 0)
(41.9457 -5.04951e-08 0)
(41.947 -5.01126e-08 0)
(41.9482 -4.96204e-08 0)
(41.9494 -4.8921e-08 0)
(41.9504 -4.80911e-08 0)
(41.9512 -4.72072e-08 0)
(41.9519 -4.61667e-08 0)
(41.9523 -4.50613e-08 0)
(41.9526 -4.40423e-08 0)
(41.9525 -4.30531e-08 0)
(41.9522 -4.17148e-08 0)
(41.9516 -4.05042e-08 0)
(41.9508 -3.94362e-08 0)
(41.9497 -3.83614e-08 0)
(41.9483 -3.7499e-08 0)
(41.9467 -3.6658e-08 0)
(41.9449 -3.59827e-08 0)
(41.9429 -3.54935e-08 0)
(41.9407 -3.50901e-08 0)
(41.9385 -3.49363e-08 0)
(41.9362 -3.49166e-08 0)
(41.9339 -3.51097e-08 0)
(41.9316 -3.54866e-08 0)
(41.9295 -3.602e-08 0)
(41.9274 -3.6754e-08 0)
(41.9255 -3.75847e-08 0)
(41.9239 -3.85884e-08 0)
(41.9225 -3.96755e-08 0)
(41.9213 -4.08334e-08 0)
(41.9205 -4.20897e-08 0)
(41.9199 -4.33338e-08 0)
(41.9197 -4.45194e-08 0)
(41.9198 -4.5439e-08 0)
(41.9201 -4.70512e-08 0)
(41.9208 -4.81785e-08 0)
(41.9217 -4.91852e-08 0)
(41.9229 -5.0018e-08 0)
(41.9242 -5.08355e-08 0)
(41.9258 -5.13365e-08 0)
(41.9274 -5.16778e-08 0)
(41.9292 -5.1859e-08 0)
(41.931 -5.1757e-08 0)
(41.9327 -5.14979e-08 0)
(41.9344 -5.10278e-08 0)
(41.936 -5.03088e-08 0)
(41.9374 -4.94628e-08 0)
(41.9386 -4.84063e-08 0)
(41.9395 -4.71838e-08 0)
(41.9401 -4.5897e-08 0)
(41.9403 -4.4601e-08 0)
(41.9403 -4.34413e-08 0)
(41.9398 -4.16553e-08 0)
(41.9389 -3.99241e-08 0)
(41.9376 -3.85009e-08 0)
(41.9359 -3.69493e-08 0)
(41.9338 -3.55439e-08 0)
(41.9313 -3.42138e-08 0)
(41.9284 -3.29301e-08 0)
(41.9252 -3.18535e-08 0)
(41.9217 -3.07868e-08 0)
(41.9178 -2.99663e-08 0)
(41.9137 -2.92224e-08 0)
(41.9093 -2.86097e-08 0)
(41.9047 -2.8112e-08 0)
(41.8998 -2.75891e-08 0)
(41.8946 -2.71606e-08 0)
(41.889 -2.66102e-08 0)
(41.8832 -2.60252e-08 0)
(41.8769 -2.52987e-08 0)
(41.8701 -2.43716e-08 0)
(41.8628 -2.33247e-08 0)
(41.8549 -2.20295e-08 0)
(41.8464 -2.06077e-08 0)
(41.8371 -1.90393e-08 0)
(41.827 -1.73706e-08 0)
(41.8161 -1.57376e-08 0)
(41.8043 -1.41458e-08 0)
(41.7917 -1.27849e-08 0)
(41.7783 -1.17065e-08 0)
(41.7641 -1.10057e-08 0)
(41.7492 -1.07753e-08 0)
(41.7337 -1.10194e-08 0)
(41.7178 -1.18232e-08 0)
(41.7014 -1.31712e-08 0)
(41.6848 -1.5101e-08 0)
(41.6682 -1.76087e-08 0)
(41.6516 -2.06776e-08 0)
(41.6352 -2.43134e-08 0)
(41.6193 -2.8448e-08 0)
(41.604 -3.30558e-08 0)
(41.5894 -3.80699e-08 0)
(41.5756 -4.34773e-08 0)
(41.5628 -4.92661e-08 0)
(41.5511 -5.5345e-08 0)
(41.5405 -6.1641e-08 0)
(41.5312 -6.80391e-08 0)
(41.523 -7.44198e-08 0)
(41.5161 -8.06722e-08 0)
(41.5103 -8.66573e-08 0)
(41.5056 -9.22682e-08 0)
(41.5018 -9.73574e-08 0)
(41.499 -1.01816e-07 0)
(41.4968 -1.05535e-07 0)
(41.4953 -1.08428e-07 0)
(41.494 -1.10445e-07 0)
(41.493 -1.1159e-07 0)
(41.4919 -1.11839e-07 0)
(41.4906 -1.11356e-07 0)
(41.4889 -1.10029e-07 0)
(41.4866 -1.08803e-07 0)
(41.4837 -1.00884e-07 0)
(41.4801 -1.09587e-07 0)
(41.4757 -1.00747e-07 0)
(41.4705 -1.03085e-07 0)
(41.4646 -9.61211e-08 0)
(41.4581 -8.964e-08 0)
(41.451 -9.3045e-08 0)
(41.4435 -7.46564e-08 0)
(41.4355 -8.31142e-08 0)
(41.4271 2.87113e-08 0)
(41.4184 5.39136e-07 0)
(41.4092 4.41593e-06 0)
(41.3995 3.10421e-05 0)
(41.3887 0.000217476 0)
(41.3728 0.00151478 0)
(41.3246 0.0105009 0)
(41.1441 0.0756551 0)
(39.2301 0.359695 0)
(42.689 2.47276e-13 0)
(42.6618 7.99532e-13 0)
(42.6309 1.19588e-12 0)
(42.6031 1.1774e-12 0)
(42.5777 9.78612e-13 0)
(42.5533 -3.13136e-12 0)
(42.5302 -7.7313e-12 0)
(42.5084 -9.17743e-12 0)
(42.488 -7.86354e-12 0)
(42.4691 -8.00457e-12 0)
(42.4514 -7.80948e-12 0)
(42.4351 -1.0663e-11 0)
(42.4198 -1.40576e-11 0)
(42.4055 -1.47721e-11 0)
(42.3921 -1.54193e-11 0)
(42.3792 -1.51447e-11 0)
(42.3669 -1.44277e-11 0)
(42.3549 -1.42374e-11 0)
(42.343 -1.16624e-11 0)
(42.3312 -1.2181e-11 0)
(42.3193 -1.24953e-11 0)
(42.3072 -1.26071e-11 0)
(42.2949 -1.25375e-11 0)
(42.2825 -1.14661e-11 0)
(42.2697 -8.20107e-12 0)
(42.2565 -3.28589e-12 0)
(42.2431 7.37672e-13 0)
(42.2295 1.79643e-12 0)
(42.2157 2.60935e-12 0)
(42.2019 3.784e-12 0)
(42.1881 3.25521e-12 0)
(42.1743 3.94994e-12 0)
(42.1606 5.19287e-12 0)
(42.1471 7.09691e-12 0)
(42.1338 8.41587e-12 0)
(42.1208 9.50002e-12 0)
(42.1081 8.49246e-12 0)
(42.0958 6.84892e-12 0)
(42.0838 7.69622e-12 0)
(42.0723 8.79674e-12 0)
(42.0612 6.7498e-12 0)
(42.0505 6.03468e-12 0)
(42.0403 5.4461e-12 0)
(42.0306 4.88126e-12 0)
(42.0214 4.98279e-12 0)
(42.0126 2.19842e-12 0)
(42.0044 8.9299e-13 0)
(41.9966 1.26487e-12 0)
(41.9894 1.60412e-12 0)
(41.9826 9.68365e-13 0)
(41.9763 -8.36546e-13 0)
(41.9706 -3.83722e-12 0)
(41.9654 -6.28653e-12 0)
(41.9606 -4.73712e-12 0)
(41.9563 -1.82804e-12 0)
(41.9526 -1.9536e-12 0)
(41.9493 -1.69319e-12 0)
(41.9465 -2.31166e-12 0)
(41.9441 -4.82351e-12 0)
(41.9422 -5.93392e-12 0)
(41.9407 -9.13492e-12 0)
(41.9396 -9.86214e-12 0)
(41.9389 -7.54032e-12 0)
(41.9386 -5.27783e-12 0)
(41.9385 -3.83648e-12 0)
(41.9388 -4.55394e-12 0)
(41.9393 -1.42355e-12 0)
(41.94 -1.45363e-12 0)
(41.9409 -1.95334e-13 0)
(41.942 -1.03747e-14 0)
(41.9432 1.64676e-12 0)
(41.9444 5.63027e-13 0)
(41.9457 -7.65619e-14 0)
(41.947 9.19483e-13 0)
(41.9482 1.3086e-12 0)
(41.9494 -9.31678e-13 0)
(41.9504 -2.2363e-12 0)
(41.9512 -4.69683e-12 0)
(41.9519 -1.19647e-11 0)
(41.9523 -1.37655e-11 0)
(41.9526 -1.42247e-11 0)
(41.9525 -1.56437e-11 0)
(41.9522 -1.70227e-11 0)
(41.9516 -1.79194e-11 0)
(41.9508 -1.74082e-11 0)
(41.9497 -1.7359e-11 0)
(41.9483 -1.49665e-11 0)
(41.9467 -1.19932e-11 0)
(41.9449 -1.01718e-11 0)
(41.9429 -8.24781e-12 0)
(41.9407 -5.34888e-12 0)
(41.9385 -8.83096e-13 0)
(41.9362 -4.72454e-13 0)
(41.9339 -1.53302e-12 0)
(41.9316 -3.89861e-12 0)
(41.9295 -5.47136e-12 0)
(41.9274 -5.04076e-12 0)
(41.9255 -4.77047e-12 0)
(41.9239 -3.90357e-12 0)
(41.9225 -3.3605e-12 0)
(41.9213 -2.72099e-12 0)
(41.9205 -1.74153e-12 0)
(41.9199 -1.98346e-12 0)
(41.9197 -2.89451e-12 0)
(41.9198 -3.92266e-12 0)
(41.9201 -3.65461e-12 0)
(41.9208 -3.2764e-12 0)
(41.9217 -3.90842e-12 0)
(41.9229 -3.75887e-12 0)
(41.9242 -3.94564e-12 0)
(41.9258 1.57905e-12 0)
(41.9274 6.35566e-12 0)
(41.9292 1.10904e-11 0)
(41.931 1.36226e-11 0)
(41.9327 1.53439e-11 0)
(41.9344 1.69169e-11 0)
(41.936 1.7245e-11 0)
(41.9374 1.70088e-11 0)
(41.9386 1.60331e-11 0)
(41.9395 1.36112e-11 0)
(41.9401 8.96198e-12 0)
(41.9403 4.46683e-12 0)
(41.9403 1.23537e-12 0)
(41.9398 -1.29612e-12 0)
(41.9389 -2.15935e-12 0)
(41.9376 -1.07399e-12 0)
(41.9359 1.48025e-12 0)
(41.9338 1.43519e-12 0)
(41.9313 7.61124e-13 0)
(41.9284 7.61955e-13 0)
(41.9252 -1.42915e-12 0)
(41.9217 -3.14094e-12 0)
(41.9178 -3.00556e-12 0)
(41.9137 -2.41655e-12 0)
(41.9093 -2.88998e-12 0)
(41.9047 -2.3305e-12 0)
(41.8998 -2.2381e-12 0)
(41.8946 -2.50052e-12 0)
(41.889 -1.70152e-12 0)
(41.8832 -2.00288e-12 0)
(41.8769 -1.12601e-12 0)
(41.8701 2.87656e-12 0)
(41.8628 6.52444e-12 0)
(41.8549 7.80637e-12 0)
(41.8464 7.28377e-12 0)
(41.8371 7.03138e-12 0)
(41.827 8.48854e-12 0)
(41.8161 7.69016e-12 0)
(41.8043 6.23553e-12 0)
(41.7917 3.0006e-12 0)
(41.7783 -3.58389e-13 0)
(41.7641 1.55229e-12 0)
(41.7492 8.44009e-13 0)
(41.7337 1.09781e-12 0)
(41.7178 1.46455e-12 0)
(41.7014 4.41009e-12 0)
(41.6848 6.07259e-12 0)
(41.6682 7.58878e-12 0)
(41.6516 8.53382e-12 0)
(41.6352 6.01102e-12 0)
(41.6193 2.82689e-12 0)
(41.604 -1.09345e-12 0)
(41.5894 -1.66848e-12 0)
(41.5756 -2.75102e-12 0)
(41.5628 -3.48996e-12 0)
(41.5511 -2.73388e-12 0)
(41.5405 -3.62501e-12 0)
(41.5312 -4.77659e-12 0)
(41.523 -7.13806e-12 0)
(41.5161 -4.23317e-12 0)
(41.5103 -1.66629e-12 0)
(41.5056 -5.25141e-13 0)
(41.5018 -6.11745e-13 0)
(41.499 -2.71643e-12 0)
(41.4968 -1.99615e-12 0)
(41.4953 -2.60958e-13 0)
(41.494 -2.32573e-14 0)
(41.493 -5.86622e-13 0)
(41.4919 4.11538e-12 0)
(41.4906 -3.21368e-12 0)
(41.4889 4.14239e-12 0)
(41.4866 -3.3618e-10 0)
(41.4837 -6.2673e-09 0)
(41.4801 2.86154e-09 0)
(41.4757 -3.20998e-11 0)
(41.4705 2.13886e-09 0)
(41.4646 -1.5413e-08 0)
(41.4581 -8.65194e-09 0)
(41.451 6.94617e-09 0)
(41.4435 1.12202e-09 0)
(41.4355 1.15192e-08 0)
(41.4271 2.12297e-07 0)
(41.4184 1.21651e-06 0)
(41.4092 8.95661e-06 0)
(41.3996 6.24464e-05 0)
(41.3896 0.000442107 0)
(41.3788 0.00311898 0)
(41.3658 0.0219333 0)
(41.3378 0.155649 0)
(41.1786 0.711227 0)
(42.6891 -0.000129331 0)
(42.6619 -9.96913e-05 0)
(42.6309 -8.69704e-05 0)
(42.6031 -8.61691e-05 0)
(42.5777 -8.58206e-05 0)
(42.5534 -8.47913e-05 0)
(42.5302 -8.32402e-05 0)
(42.5084 -8.08188e-05 0)
(42.488 -7.71331e-05 0)
(42.4691 -7.19575e-05 0)
(42.4515 -6.52852e-05 0)
(42.4351 -5.73664e-05 0)
(42.4198 -4.86628e-05 0)
(42.4056 -3.97644e-05 0)
(42.3921 -3.12567e-05 0)
(42.3793 -2.36187e-05 0)
(42.3669 -1.71543e-05 0)
(42.3549 -1.19788e-05 0)
(42.343 -8.04617e-06 0)
(42.3312 -5.20315e-06 0)
(42.3193 -3.24243e-06 0)
(42.3072 -1.94952e-06 0)
(42.2949 -1.13122e-06 0)
(42.2825 -6.31443e-07 0)
(42.2697 -3.5419e-07 0)
(42.2565 -1.92685e-07 0)
(42.2431 -1.06755e-07 0)
(42.2295 -6.41364e-08 0)
(42.2157 -4.48116e-08 0)
(42.2019 -3.68134e-08 0)
(42.1881 -3.35953e-08 0)
(42.1743 -3.22535e-08 0)
(42.1606 -3.14007e-08 0)
(42.1471 -3.05561e-08 0)
(42.1338 -2.94009e-08 0)
(42.1208 -2.78624e-08 0)
(42.1081 -2.59404e-08 0)
(42.0958 -2.37027e-08 0)
(42.0838 -2.12114e-08 0)
(42.0723 -1.85126e-08 0)
(42.0612 -1.56287e-08 0)
(42.0505 -1.25864e-08 0)
(42.0403 -9.43134e-09 0)
(42.0306 -6.08869e-09 0)
(42.0214 -2.4497e-09 0)
(42.0126 1.61051e-09 0)
(42.0044 4.82399e-09 0)
(41.9966 7.67397e-09 0)
(41.9894 1.05544e-08 0)
(41.9826 1.34518e-08 0)
(41.9763 1.63784e-08 0)
(41.9706 1.92036e-08 0)
(41.9653 2.20116e-08 0)
(41.9606 2.47237e-08 0)
(41.9563 2.7405e-08 0)
(41.9526 2.99445e-08 0)
(41.9493 3.24003e-08 0)
(41.9465 3.47348e-08 0)
(41.9441 3.69555e-08 0)
(41.9422 3.90253e-08 0)
(41.9407 4.09374e-08 0)
(41.9396 4.27228e-08 0)
(41.9389 4.43201e-08 0)
(41.9386 4.5743e-08 0)
(41.9385 4.6605e-08 0)
(41.9388 4.80465e-08 0)
(41.9393 4.89188e-08 0)
(41.94 4.96616e-08 0)
(41.9409 5.026e-08 0)
(41.942 5.05643e-08 0)
(41.9432 5.07056e-08 0)
(41.9444 5.07266e-08 0)
(41.9457 5.04966e-08 0)
(41.947 5.01117e-08 0)
(41.9482 4.96183e-08 0)
(41.9494 4.8922e-08 0)
(41.9504 4.80903e-08 0)
(41.9512 4.72088e-08 0)
(41.9519 4.61735e-08 0)
(41.9523 4.50664e-08 0)
(41.9526 4.40455e-08 0)
(41.9525 4.30553e-08 0)
(41.9522 4.17161e-08 0)
(41.9516 4.0507e-08 0)
(41.9508 3.94393e-08 0)
(41.9497 3.83643e-08 0)
(41.9483 3.75028e-08 0)
(41.9467 3.66605e-08 0)
(41.9449 3.59862e-08 0)
(41.9429 3.54957e-08 0)
(41.9407 3.50911e-08 0)
(41.9385 3.49323e-08 0)
(41.9362 3.49137e-08 0)
(41.9339 3.51113e-08 0)
(41.9316 3.54886e-08 0)
(41.9295 3.60216e-08 0)
(41.9274 3.67558e-08 0)
(41.9255 3.75871e-08 0)
(41.9239 3.85898e-08 0)
(41.9225 3.96772e-08 0)
(41.9213 4.08347e-08 0)
(41.9205 4.20887e-08 0)
(41.9199 4.33368e-08 0)
(41.9197 4.45234e-08 0)
(41.9198 4.54417e-08 0)
(41.9201 4.70499e-08 0)
(41.9208 4.81785e-08 0)
(41.9217 4.91855e-08 0)
(41.9229 5.00193e-08 0)
(41.9242 5.08335e-08 0)
(41.9258 5.13309e-08 0)
(41.9274 5.16714e-08 0)
(41.9292 5.18555e-08 0)
(41.931 5.17559e-08 0)
(41.9327 5.14973e-08 0)
(41.9344 5.10253e-08 0)
(41.936 5.03059e-08 0)
(41.9374 4.94589e-08 0)
(41.9386 4.8403e-08 0)
(41.9395 4.71813e-08 0)
(41.9401 4.58953e-08 0)
(41.9403 4.46016e-08 0)
(41.9403 4.34408e-08 0)
(41.9398 4.16574e-08 0)
(41.9389 3.99269e-08 0)
(41.9376 3.85017e-08 0)
(41.9359 3.69493e-08 0)
(41.9338 3.55427e-08 0)
(41.9313 3.42123e-08 0)
(41.9284 3.29335e-08 0)
(41.9252 3.18558e-08 0)
(41.9217 3.07873e-08 0)
(41.9178 2.99692e-08 0)
(41.9137 2.9222e-08 0)
(41.9093 2.86088e-08 0)
(41.9047 2.81127e-08 0)
(41.8998 2.75878e-08 0)
(41.8946 2.71596e-08 0)
(41.889 2.66107e-08 0)
(41.8832 2.60275e-08 0)
(41.8769 2.52995e-08 0)
(41.8701 2.4369e-08 0)
(41.8628 2.33222e-08 0)
(41.8549 2.20275e-08 0)
(41.8464 2.06083e-08 0)
(41.8371 1.90384e-08 0)
(41.827 1.73686e-08 0)
(41.8161 1.5735e-08 0)
(41.8043 1.41433e-08 0)
(41.7917 1.27848e-08 0)
(41.7783 1.17067e-08 0)
(41.7641 1.10065e-08 0)
(41.7492 1.07776e-08 0)
(41.7337 1.10186e-08 0)
(41.7178 1.18227e-08 0)
(41.7014 1.31697e-08 0)
(41.6848 1.50992e-08 0)
(41.6682 1.76059e-08 0)
(41.6516 2.06746e-08 0)
(41.6352 2.43123e-08 0)
(41.6193 2.84482e-08 0)
(41.604 3.30553e-08 0)
(41.5894 3.8068e-08 0)
(41.5756 4.34792e-08 0)
(41.5628 4.92669e-08 0)
(41.5511 5.53437e-08 0)
(41.5405 6.16398e-08 0)
(41.5312 6.80411e-08 0)
(41.523 7.4422e-08 0)
(41.5161 8.0673e-08 0)
(41.5103 8.66607e-08 0)
(41.5056 9.22684e-08 0)
(41.5018 9.73603e-08 0)
(41.499 1.0182e-07 0)
(41.4968 1.05535e-07 0)
(41.4953 1.08427e-07 0)
(41.494 1.10447e-07 0)
(41.493 1.11584e-07 0)
(41.4919 1.11856e-07 0)
(41.4906 1.11328e-07 0)
(41.4889 1.10065e-07 0)
(41.4866 1.08253e-07 0)
(41.4837 1.06316e-07 0)
(41.4801 1.03694e-07 0)
(41.4757 9.98573e-08 0)
(41.4705 9.51437e-08 0)
(41.4646 9.24559e-08 0)
(41.4581 9.1529e-08 0)
(41.451 8.28286e-08 0)
(41.4435 9.78337e-08 0)
(41.4355 8.51372e-08 0)
(41.4271 2.3103e-07 0)
(41.4184 8.85469e-07 0)
(41.4092 6.22005e-06 0)
(41.3998 4.30591e-05 0)
(41.3908 0.000307468 0)
(41.3879 0.00219614 0)
(41.4314 0.0158744 0)
(41.6197 0.131684 0)
(44.645 0.552874 0)
(42.6873 -0.000101973 0)
(42.6583 -9.33256e-05 0)
(42.6255 -9.07748e-05 0)
(42.5959 -9.155e-05 0)
(42.5687 -9.19657e-05 0)
(42.5426 -9.1667e-05 0)
(42.5176 -9.05425e-05 0)
(42.4941 -8.82449e-05 0)
(42.4721 -8.44162e-05 0)
(42.4515 -7.88468e-05 0)
(42.4324 -7.15606e-05 0)
(42.4148 -6.28617e-05 0)
(42.3984 -5.32835e-05 0)
(42.3832 -4.34924e-05 0)
(42.369 -3.41423e-05 0)
(42.3556 -2.57626e-05 0)
(42.3428 -1.86845e-05 0)
(42.3305 -1.30294e-05 0)
(42.3184 -8.74165e-06 0)
(42.3064 -5.64826e-06 0)
(42.2944 -3.51901e-06 0)
(42.2823 -2.1176e-06 0)
(42.27 -1.23294e-06 0)
(42.2576 -6.949e-07 0)
(42.2448 -3.89326e-07 0)
(42.2316 -2.13491e-07 0)
(42.2182 -1.17812e-07 0)
(42.2046 -6.7712e-08 0)
(42.1908 -4.2802e-08 0)
(42.177 -3.1147e-08 0)
(42.1632 -2.59983e-08 0)
(42.1494 -2.38261e-08 0)
(42.1357 -2.27769e-08 0)
(42.1222 -2.21043e-08 0)
(42.1089 -2.13929e-08 0)
(42.0959 -2.04761e-08 0)
(42.0832 -1.9329e-08 0)
(42.0709 -1.79609e-08 0)
(42.0589 -1.64246e-08 0)
(42.0474 -1.47343e-08 0)
(42.0363 -1.29103e-08 0)
(42.0256 -1.09539e-08 0)
(42.0154 -8.91308e-09 0)
(42.0057 -6.68835e-09 0)
(41.9965 -4.11447e-09 0)
(41.9877 -9.0988e-10 0)
(41.9795 1.77666e-09 0)
(41.9717 4.09876e-09 0)
(41.9645 6.40983e-09 0)
(41.9577 8.71708e-09 0)
(41.9515 1.10501e-08 0)
(41.9457 1.33087e-08 0)
(41.9405 1.55684e-08 0)
(41.9357 1.7754e-08 0)
(41.9315 1.99409e-08 0)
(41.9277 2.20225e-08 0)
(41.9244 2.40629e-08 0)
(41.9216 2.60218e-08 0)
(41.9193 2.79078e-08 0)
(41.9174 2.97008e-08 0)
(41.9159 3.1387e-08 0)
(41.9148 3.29981e-08 0)
(41.9141 3.44783e-08 0)
(41.9137 3.58619e-08 0)
(41.9137 3.68874e-08 0)
(41.9139 3.82551e-08 0)
(41.9144 3.92367e-08 0)
(41.9151 4.01561e-08 0)
(41.9161 4.09891e-08 0)
(41.9171 4.16071e-08 0)
(41.9183 4.21197e-08 0)
(41.9196 4.2557e-08 0)
(41.9209 4.28203e-08 0)
(41.9222 4.29745e-08 0)
(41.9234 4.30608e-08 0)
(41.9245 4.30008e-08 0)
(41.9256 4.28373e-08 0)
(41.9264 4.26432e-08 0)
(41.9271 4.23385e-08 0)
(41.9275 4.1973e-08 0)
(41.9277 4.16595e-08 0)
(41.9277 4.1334e-08 0)
(41.9274 4.08097e-08 0)
(41.9268 4.03588e-08 0)
(41.926 3.99768e-08 0)
(41.9249 3.95718e-08 0)
(41.9235 3.93033e-08 0)
(41.9219 3.90297e-08 0)
(41.9201 3.88455e-08 0)
(41.9181 3.87599e-08 0)
(41.916 3.87059e-08 0)
(41.9137 3.87855e-08 0)
(41.9114 3.89321e-08 0)
(41.9091 3.91934e-08 0)
(41.9069 3.95513e-08 0)
(41.9047 3.99853e-08 0)
(41.9026 4.05206e-08 0)
(41.9008 4.11005e-08 0)
(41.8991 4.17661e-08 0)
(41.8977 4.2468e-08 0)
(41.8966 4.31943e-08 0)
(41.8957 4.39734e-08 0)
(41.8952 4.47361e-08 0)
(41.8949 4.54665e-08 0)
(41.895 4.604e-08 0)
(41.8954 4.70087e-08 0)
(41.896 4.76847e-08 0)
(41.897 4.83149e-08 0)
(41.8981 4.88308e-08 0)
(41.8995 4.93499e-08 0)
(41.901 4.96826e-08 0)
(41.9027 4.99362e-08 0)
(41.9045 5.01057e-08 0)
(41.9062 5.0106e-08 0)
(41.908 5.00246e-08 0)
(41.9097 4.98345e-08 0)
(41.9113 4.94954e-08 0)
(41.9127 4.9101e-08 0)
(41.9138 4.85863e-08 0)
(41.9148 4.79785e-08 0)
(41.9154 4.73563e-08 0)
(41.9156 4.67304e-08 0)
(41.9155 4.61893e-08 0)
(41.9151 4.53116e-08 0)
(41.9142 4.44868e-08 0)
(41.9129 4.38117e-08 0)
(41.9112 4.30627e-08 0)
(41.9091 4.23859e-08 0)
(41.9066 4.17526e-08 0)
(41.9037 4.11315e-08 0)
(41.9005 4.06385e-08 0)
(41.897 4.01389e-08 0)
(41.8931 3.97972e-08 0)
(41.889 3.94823e-08 0)
(41.8846 3.92487e-08 0)
(41.88 3.90876e-08 0)
(41.8751 3.88971e-08 0)
(41.8699 3.87781e-08 0)
(41.8644 3.85825e-08 0)
(41.8585 3.8383e-08 0)
(41.8522 3.81075e-08 0)
(41.8455 3.7711e-08 0)
(41.8382 3.72672e-08 0)
(41.8303 3.66407e-08 0)
(41.8217 3.59475e-08 0)
(41.8124 3.51207e-08 0)
(41.8023 3.41771e-08 0)
(41.7914 3.32032e-08 0)
(41.7796 3.21349e-08 0)
(41.7671 3.11336e-08 0)
(41.7536 3.02026e-08 0)
(41.7395 2.94279e-08 0)
(41.7246 2.89351e-08 0)
(41.7091 2.87365e-08 0)
(41.6931 2.89829e-08 0)
(41.6768 2.96684e-08 0)
(41.6602 3.08508e-08 0)
(41.6435 3.25211e-08 0)
(41.6269 3.46392e-08 0)
(41.6106 3.72016e-08 0)
(41.5947 4.01057e-08 0)
(41.5794 4.33282e-08 0)
(41.5647 4.67871e-08 0)
(41.551 5.04806e-08 0)
(41.5382 5.44262e-08 0)
(41.5265 5.85571e-08 0)
(41.5159 6.28549e-08 0)
(41.5066 6.72506e-08 0)
(41.4984 7.16552e-08 0)
(41.4915 7.6008e-08 0)
(41.4857 8.01987e-08 0)
(41.481 8.41686e-08 0)
(41.4772 8.78386e-08 0)
(41.4744 9.1151e-08 0)
(41.4723 9.40499e-08 0)
(41.4707 9.64842e-08 0)
(41.4695 9.84335e-08 0)
(41.4684 9.98895e-08 0)
(41.4673 1.00861e-07 0)
(41.466 1.01384e-07 0)
(41.4643 1.01488e-07 0)
(41.4621 1.01276e-07 0)
(41.4592 1.00839e-07 0)
(41.4555 1.00616e-07 0)
(41.4511 9.94273e-08 0)
(41.446 1.00306e-07 0)
(41.4401 9.8911e-08 0)
(41.4336 1.04704e-07 0)
(41.4265 1.00568e-07 0)
(41.4189 1.14038e-07 0)
(41.411 1.04862e-07 0)
(41.4026 1.37646e-07 0)
(41.3939 2.18412e-07 0)
(41.3847 1.05143e-06 0)
(41.3753 6.64239e-06 0)
(41.3664 4.69339e-05 0)
(41.3636 0.000340458 0)
(41.4102 0.00268988 0)
(41.6137 0.0383617 0)
(46.7155 0.15685 0)
(37.2627 1.26719 -3.16602e-15)
(36.2126 3.63534 6.35015e-15)
(35.8026 6.33112 -1.19054e-14)
(35.3956 9.05879 2.45993e-14)
(34.7393 11.7545 -2.53817e-14)
(33.8229 14.3884 -1.58586e-15)
(32.6326 16.9174 4.23999e-20)
(31.2515 19.368 -2.21911e-14)
(30.083 22.0197 -1.02661e-13)
(29.3207 25.1806 1.00484e-13)
(28.5001 28.6625 -2.49834e-14)
(26.9528 31.6184 -5.14643e-14)
(24.4955 33.5239 2.65131e-14)
(21.5116 34.5574 0)
(18.3223 35.0149 2.50803e-14)
(15.0954 35.0978 2.51903e-14)
(12.0133 35.4388 -2.52928e-14)
(9.31491 37.3017 2.50997e-14)
(6.84213 41.5388 1.92814e-16)
(4.18617 48.8607 -1.87074e-16)
(38.379 1.99329 0)
(37.7581 4.86795 0)
(37.3528 8.03789 -1.61237e-15)
(36.8348 11.1939 -3.22155e-15)
(36.0372 14.3053 8.04533e-15)
(34.9249 17.3827 1.60783e-14)
(33.4699 20.3626 0)
(31.8643 23.041 9.63152e-15)
(30.6225 25.5631 1.59725e-14)
(29.7959 28.5627 -3.80393e-14)
(28.6255 32.3376 2.52035e-14)
(26.2688 36.2044 1.25965e-14)
(22.9036 38.9206 -1.25907e-14)
(19.0206 40.4758 1.25864e-14)
(14.9521 41.1257 0)
(11.0804 40.8664 -1.58327e-15)
(8.09733 40.0585 1.59456e-15)
(6.80763 40.0445 -5.55961e-15)
(5.74972 42.4276 -7.8189e-16)
(5.11582 47.0494 0)
(41.1281 1.55844 -4.11403e-17)
(41.129 2.56844 -2.09075e-14)
(41.2335 3.59513 2.12344e-14)
(41.4243 4.61811 -2.04099e-14)
(41.6542 5.70796 -2.23872e-14)
(41.8885 6.94231 8.33271e-14)
(42.0963 8.38352 -4.21786e-14)
(42.2155 10.0833 4.08749e-14)
(42.1343 12.015 -8.31194e-14)
(41.8507 14.0176 1.32759e-15)
(41.5343 15.9503 4.10044e-14)
(41.3361 17.8787 0)
(41.1135 20.0489 -4.10832e-14)
(40.6106 22.5433 4.10905e-14)
(39.6791 25.2965 -3.31117e-16)
(38.2083 28.2286 0)
(36.0489 31.2133 3.31022e-16)
(33.0516 33.992 0)
(29.6878 36.2169 0)
(26.8785 37.7553 0)
(45.1562 2.55255 6.3033e-16)
(44.8791 5.87639 -6.32375e-15)
(43.8848 9.83109 -1.26738e-15)
(42.7156 13.8871 2.53188e-15)
(41.6527 17.8876 -2.52115e-15)
(40.6268 21.8236 -4.43658e-19)
(39.4749 25.69 -9.96957e-15)
(38.0505 29.4439 0)
(36.3178 33.0705 0)
(34.2775 36.5666 -4.90544e-15)
(31.9007 39.8861 4.88089e-15)
(29.2034 43.0213 0)
(26.1774 45.9122 -4.83631e-15)
(22.8503 48.5157 4.82104e-15)
(19.2618 50.8014 -4.80571e-15)
(15.4566 52.7444 9.58216e-15)
(11.4845 54.3231 -4.78091e-15)
(7.40873 55.5238 0)
(3.31652 56.3703 -2.3789e-15)
(-0.451004 56.8651 0)
(48.1276 1.77033 -9.61665e-16)
(49.0636 4.53669 7.37186e-15)
(48.771 7.85829 5.12856e-15)
(47.9741 11.3391 1.02489e-14)
(47.1638 14.9472 0)
(46.3574 18.6805 0)
(45.4176 22.495 1.01485e-14)
(44.2226 26.3089 2.52585e-15)
(42.7077 30.1079 -5.02867e-15)
(40.8819 33.823 2.50389e-15)
(38.7059 37.4171 1.99454e-14)
(36.1989 40.8282 -1.24194e-14)
(33.3523 43.9971 1.2383e-14)
(30.1777 46.8783 -2.46951e-15)
(26.7016 49.4371 -9.85882e-15)
(22.9588 51.6413 -1.72325e-14)
(18.9914 53.4524 -8.60943e-15)
(14.854 54.8038 -1.23003e-15)
(10.6301 55.5475 7.0773e-15)
(6.58805 55.336 3.08507e-16)
(1.27932 60.0054 0)
(1.21822 57.3643 0)
(1.10665 55.0431 0)
(0.972218 56.1446 0)
(1.00341 57.7175 0)
(1.0629 58.1241 0)
(1.07057 57.8988 0)
(1.06011 57.7547 0)
(1.03897 57.7951 0)
(1.01091 57.8291 0)
(0.972333 57.713 0)
(0.91939 57.3791 0)
(0.852431 56.7587 0)
(0.772114 55.7973 0)
(0.686156 54.4833 0)
(0.597673 52.8597 0)
(0.508361 51.0482 0)
(0.423497 49.2042 0)
(0.341666 47.4686 0)
(0.266319 45.9492 0)
(0.200881 44.6939 0)
(0.145769 43.703 0)
(0.102138 42.9492 0)
(0.0691406 42.392 0)
(0.045243 41.9901 0)
(0.028644 41.7065 0)
(0.0175638 41.5102 0)
(0.0104398 41.3765 0)
(0.00602005 41.2864 0)
(0.0033701 41.2254 0)
(0.00183254 41.1836 0)
(0.000968394 41.1537 0)
(0.00049753 41.1311 0)
(0.000248604 41.1128 0)
(0.000120845 41.0967 0)
(5.71523e-05 41.082 0)
(2.62936e-05 41.0678 0)
(1.17584e-05 41.054 0)
(5.10066e-06 41.0403 0)
(2.13486e-06 41.0267 0)
(8.50283e-07 41.0133 0)
(3.09749e-07 41.0002 0)
(8.91984e-08 40.9873 0)
(2.3333e-09 40.9747 0)
(-3.02244e-08 40.9626 0)
(-4.11407e-08 40.951 0)
(-4.34596e-08 40.94 0)
(-4.23407e-08 40.9295 0)
(-3.97883e-08 40.9197 0)
(-3.65775e-08 40.9107 0)
(-3.3009e-08 40.9023 0)
(-2.91781e-08 40.8947 0)
(-2.50819e-08 40.8877 0)
(-2.06219e-08 40.8815 0)
(-1.56055e-08 40.876 0)
(-9.78091e-09 40.8711 0)
(-3.43198e-09 40.8667 0)
(1.62188e-09 40.8629 0)
(5.4806e-09 40.8595 0)
(9.14434e-09 40.8565 0)
(1.25684e-08 40.8538 0)
(1.56877e-08 40.8513 0)
(1.84677e-08 40.8489 0)
(2.08733e-08 40.8465 0)
(2.29045e-08 40.8441 0)
(2.45617e-08 40.8416 0)
(2.58413e-08 40.8389 0)
(2.67671e-08 40.8359 0)
(2.73693e-08 40.8326 0)
(2.76761e-08 40.829 0)
(2.77062e-08 40.825 0)
(2.75148e-08 40.8206 0)
(2.71151e-08 40.8157 0)
(2.65747e-08 40.8105 0)
(2.59146e-08 40.8048 0)
(2.51824e-08 40.7987 0)
(2.44119e-08 40.7922 0)
(2.36297e-08 40.7854 0)
(2.28677e-08 40.7782 0)
(2.21473e-08 40.7708 0)
(2.14974e-08 40.7631 0)
(2.09359e-08 40.7552 0)
(2.04971e-08 40.7471 0)
(2.02012e-08 40.7389 0)
(2.0044e-08 40.7307 0)
(1.99859e-08 40.7224 0)
(1.99892e-08 40.7141 0)
(2.00382e-08 40.7059 0)
(2.01211e-08 40.6978 0)