/*--------------------------------*- C++ -*----------------------------------*\
| =========                 |                                                 |
| \\      /  F ield         | OpenFOAM: The Open Source CFD Toolbox           |
|  \\    /   O peration     | Version:  3.0.x                                 |
|   \\  /    A nd           | Web:      www.OpenFOAM.org                      |
|    \\/     M anipulation  |                                                 |
\*---------------------------------------------------------------------------*/
FoamFile
{
    version     2.0;
    format      ascii;
    class       volScalarField;
    location    "0.42";
    object      T;
}
// * * * * * * * * * * * * * * * * * * * * * * * * * * * * * * * * * * * * * //

dimensions      [0 0 0 1 0 0 0];

internalField   nonuniform List<scalar> 
6900
(
774.472
774.471
774.471
774.471
774.471
774.471
774.47
774.47
774.47
774.47
774.47
774.469
774.469
774.469
774.469
774.469
774.469
774.469
774.469
774.469
774.469
774.469
774.469
774.469
774.469
774.469
774.469
774.469
774.467
774.465
774.462
774.459
774.458
774.457
774.456
774.455
774.455
774.454
774.453
774.451
774.449
774.446
774.443
774.44
774.436
774.432
774.428
774.425
774.423
774.422
774.421
774.421
774.42
774.419
774.417
774.415
774.412
774.41
774.408
774.406
774.404
774.403
774.402
774.402
774.402
774.401
774.401
774.401
774.401
774.401
774.401
774.401
774.401
774.401
774.401
774.401
774.401
774.4
774.4
774.4
774.4
774.4
774.4
774.4
774.4
774.4
774.4
774.4
774.4
774.4
774.4
774.401
774.401
774.401
774.402
774.402
774.403
774.403
774.403
774.404
774.404
774.404
774.404
774.404
774.404
774.404
774.404
774.404
774.404
774.404
774.403
774.403
774.403
774.403
774.402
774.402
774.402
774.402
774.401
774.401
774.401
774.401
774.402
774.402
774.402
774.403
774.403
774.403
774.404
774.405
774.405
774.406
774.407
774.407
774.408
774.409
774.409
774.409
774.41
774.41
774.41
774.411
774.411
774.411
774.411
774.411
774.41
774.41
774.41
774.41
774.41
774.41
774.41
774.411
774.411
774.411
774.412
774.413
774.413
774.414
774.416
774.417
774.419
774.42
774.422
774.424
774.426
774.428
774.43
774.433
774.435
774.437
774.439
774.441
774.443
774.445
774.447
774.448
774.45
774.452
774.454
774.456
774.458
774.46
774.462
774.464
774.466
774.469
774.471
774.474
774.477
774.48
774.483
774.487
774.491
774.496
774.499
774.507
774.51
774.587
774.469
774.468
774.468
774.468
774.468
774.468
774.467
774.467
774.467
774.467
774.467
774.466
774.466
774.466
774.466
774.466
774.466
774.466
774.466
774.466
774.466
774.466
774.466
774.466
774.466
774.467
774.467
774.466
774.465
774.462
774.459
774.457
774.455
774.454
774.453
774.453
774.452
774.452
774.451
774.449
774.447
774.444
774.441
774.437
774.434
774.43
774.426
774.423
774.421
774.42
774.419
774.419
774.418
774.417
774.415
774.413
774.41
774.408
774.406
774.404
774.402
774.401
774.4
774.4
774.4
774.399
774.399
774.399
774.399
774.399
774.399
774.399
774.399
774.399
774.399
774.399
774.399
774.399
774.398
774.398
774.398
774.398
774.398
774.398
774.398
774.398
774.398
774.398
774.398
774.398
774.398
774.399
774.399
774.399
774.4
774.4
774.401
774.401
774.401
774.402
774.402
774.402
774.402
774.402
774.402
774.402
774.402
774.402
774.402
774.402
774.402
774.401
774.401
774.401
774.4
774.4
774.4
774.4
774.4
774.399
774.399
774.399
774.4
774.4
774.4
774.401
774.401
774.402
774.402
774.403
774.403
774.404
774.405
774.405
774.406
774.407
774.407
774.407
774.408
774.408
774.408
774.409
774.409
774.409
774.409
774.409
774.408
774.408
774.408
774.408
774.408
774.408
774.408
774.409
774.409
774.409
774.41
774.411
774.411
774.413
774.414
774.415
774.417
774.418
774.42
774.422
774.424
774.426
774.428
774.431
774.433
774.435
774.437
774.439
774.441
774.443
774.445
774.446
774.448
774.45
774.452
774.454
774.456
774.458
774.46
774.462
774.464
774.467
774.469
774.472
774.475
774.478
774.481
774.485
774.489
774.494
774.498
774.505
774.509
774.58
774.469
774.469
774.468
774.468
774.468
774.468
774.468
774.467
774.467
774.467
774.467
774.467
774.466
774.466
774.466
774.466
774.466
774.466
774.466
774.466
774.466
774.466
774.466
774.466
774.467
774.467
774.467
774.466
774.465
774.462
774.459
774.457
774.455
774.454
774.453
774.453
774.452
774.452
774.451
774.449
774.447
774.444
774.441
774.437
774.434
774.43
774.426
774.423
774.421
774.42
774.419
774.419
774.418
774.417
774.415
774.413
774.41
774.408
774.406
774.404
774.402
774.401
774.4
774.4
774.4
774.399
774.399
774.399
774.399
774.399
774.399
774.399
774.399
774.399
774.399
774.399
774.399
774.399
774.398
774.398
774.398
774.398
774.398
774.398
774.398
774.398
774.398
774.398
774.398
774.398
774.398
774.399
774.399
774.399
774.4
774.4
774.401
774.401
774.401
774.402
774.402
774.402
774.402
774.402
774.402
774.402
774.402
774.402
774.402
774.402
774.402
774.401
774.401
774.401
774.4
774.4
774.4
774.4
774.4
774.399
774.399
774.399
774.4
774.4
774.4
774.401
774.401
774.402
774.402
774.403
774.403
774.404
774.405
774.405
774.406
774.407
774.407
774.407
774.408
774.408
774.408
774.409
774.409
774.409
774.409
774.409
774.408
774.408
774.408
774.408
774.408
774.408
774.408
774.409
774.409
774.409
774.41
774.411
774.411
774.413
774.414
774.415
774.417
774.418
774.42
774.422
774.424
774.426
774.428
774.431
774.433
774.435
774.437
774.439
774.441
774.443
774.445
774.446
774.448
774.45
774.452
774.454
774.456
774.458
774.46
774.462
774.464
774.467
774.469
774.472
774.475
774.478
774.481
774.485
774.489
774.494
774.498
774.503
774.508
774.517
774.469
774.468
774.468
774.468
774.468
774.468
774.467
774.467
774.467
774.467
774.467
774.466
774.466
774.466
774.466
774.466
774.466
774.466
774.466
774.466
774.466
774.466
774.466
774.466
774.466
774.467
774.467
774.466
774.465
774.462
774.459
774.457
774.455
774.454
774.453
774.453
774.452
774.452
774.451
774.449
774.447
774.444
774.441
774.437
774.434
774.43
774.426
774.423
774.421
774.42
774.419
774.419
774.418
774.417
774.415
774.413
774.41
774.408
774.406
774.404
774.402
774.401
774.4
774.4
774.4
774.399
774.399
774.399
774.399
774.399
774.399
774.399
774.399
774.399
774.399
774.399
774.399
774.399
774.398
774.398
774.398
774.398
774.398
774.398
774.398
774.398
774.398
774.398
774.398
774.398
774.398
774.399
774.399
774.399
774.4
774.4
774.401
774.401
774.401
774.402
774.402
774.402
774.402
774.402
774.402
774.402
774.402
774.402
774.402
774.402
774.402
774.401
774.401
774.401
774.4
774.4
774.4
774.4
774.4
774.399
774.399
774.399
774.4
774.4
774.4
774.401
774.401
774.402
774.402
774.403
774.403
774.404
774.405
774.405
774.406
774.407
774.407
774.407
774.408
774.408
774.408
774.409
774.409
774.409
774.409
774.409
774.408
774.408
774.408
774.408
774.408
774.408
774.408
774.409
774.409
774.409
774.41
774.411
774.411
774.413
774.414
774.415
774.417
774.418
774.42
774.422
774.424
774.426
774.428
774.431
774.433
774.435
774.437
774.439
774.441
774.443
774.445
774.446
774.448
774.45
774.452
774.454
774.456
774.458
774.46
774.462
774.464
774.467
774.469
774.472
774.475
774.478
774.481
774.485
774.489
774.493
774.499
774.501
774.512
774.389
774.472
774.471
774.471
774.471
774.471
774.471
774.47
774.47
774.47
774.47
774.47
774.469
774.469
774.469
774.469
774.469
774.469
774.469
774.469
774.469
774.469
774.469
774.469
774.469
774.469
774.469
774.469
774.469
774.467
774.465
774.462
774.459
774.458
774.457
774.456
774.455
774.455
774.454
774.453
774.451
774.449
774.446
774.443
774.44
774.436
774.432
774.428
774.425
774.423
774.422
774.421
774.421
774.42
774.419
774.417
774.415
774.412
774.41
774.408
774.406
774.404
774.403
774.402
774.402
774.402
774.401
774.401
774.401
774.401
774.401
774.401
774.401
774.401
774.401
774.401
774.401
774.401
774.4
774.4
774.4
774.4
774.4
774.4
774.4
774.4
774.4
774.4
774.4
774.4
774.4
774.4
774.401
774.401
774.401
774.402
774.402
774.403
774.403
774.403
774.404
774.404
774.404
774.404
774.404
774.404
774.404
774.404
774.404
774.404
774.404
774.403
774.403
774.403
774.403
774.402
774.402
774.402
774.402
774.401
774.401
774.401
774.401
774.402
774.402
774.402
774.403
774.403
774.403
774.404
774.405
774.405
774.406
774.407
774.407
774.408
774.409
774.409
774.409
774.41
774.41
774.41
774.411
774.411
774.411
774.411
774.411
774.41
774.41
774.41
774.41
774.41
774.41
774.41
774.411
774.411
774.411
774.412
774.413
774.413
774.414
774.416
774.417
774.419
774.42
774.422
774.424
774.426
774.428
774.43
774.433
774.435
774.437
774.439
774.441
774.443
774.445
774.447
774.448
774.45
774.452
774.454
774.456
774.458
774.46
774.462
774.464
774.466
774.469
774.471
774.474
774.477
774.48
774.483
774.487
774.491
774.495
774.501
774.503
774.521
774.301
774.576
774.591
774.589
774.59
774.589
774.588
774.588
774.592
774.59
774.574
774.566
774.553
774.523
774.506
774.508
774.518
774.532
774.535
774.483
774.33
774.563
774.567
774.566
774.562
774.56
774.555
774.554
774.556
774.551
774.531
774.524
774.514
774.482
774.447
774.446
774.459
774.475
774.477
774.428
774.276
774.522
774.521
774.52
774.517
774.512
774.508
774.501
774.494
774.488
774.483
774.479
774.473
774.465
774.456
774.45
774.445
774.441
774.438
774.446
774.459
774.445
774.449
774.457
774.455
774.451
774.439
774.424
774.403
774.387
774.37
774.352
774.333
774.318
774.302
774.286
774.279
774.269
774.259
774.251
774.239
774.392
774.371
774.372
774.374
774.375
774.372
774.361
774.348
774.334
774.322
774.305
774.296
774.28
774.273
774.26
774.257
774.248
774.249
774.254
774.279
774.233
774.24
774.226
774.224
774.246
774.251
774.242
774.239
774.247
774.259
774.263
774.266
774.27
774.278
774.284
774.288
774.294
774.3
774.306
774.311
774.317
774.323
774.329
774.335
774.341
774.347
774.353
774.359
774.366
774.373
774.379
774.387
774.394
774.402
774.41
774.418
774.426
774.434
774.443
774.452
774.46
774.469
774.478
774.486
774.495
774.504
774.514
774.523
774.532
774.542
774.552
774.562
774.572
774.582
774.593
774.604
774.614
774.625
774.636
774.648
774.659
774.671
774.682
774.694
774.706
774.717
774.727
774.738
774.75
774.764
774.777
774.791
774.803
774.815
774.826
774.837
774.848
774.86
774.873
774.887
774.901
774.915
774.931
774.948
774.964
774.979
774.994
775.009
775.026
775.047
775.07
775.092
775.109
775.12
775.136
775.172
775.254
775.339
775.395
775.416
775.415
775.384
775.312
775.266
775.25
775.249
775.253
775.27
775.295
775.318
775.34
775.361
775.381
775.4
775.419
775.437
775.456
775.474
775.492
775.51
775.528
775.547
775.565
775.583
775.602
775.62
775.639
775.658
775.677
775.696
775.715
775.734
775.754
775.774
775.794
775.814
775.834
775.854
775.875
775.895
775.916
775.937
775.958
775.98
776.001
776.022
776.044
776.066
776.088
776.11
776.132
776.154
776.176
776.199
776.221
776.244
776.267
776.289
776.312
776.335
776.358
776.381
776.405
776.428
776.451
776.475
776.498
776.522
776.546
776.569
776.593
776.617
776.641
776.665
776.689
776.713
776.737
776.761
776.786
776.81
776.835
776.859
776.884
776.908
776.935
776.958
776.986
777.008
777.037
777.059
777.089
777.11
777.141
777.162
777.195
777.213
777.248
777.265
777.31
777.272
774.232
774.242
774.232
774.239
774.264
774.266
774.257
774.256
774.266
774.277
774.281
774.283
774.288
774.296
774.301
774.306
774.312
774.318
774.323
774.329
774.334
774.34
774.345
774.351
774.357
774.363
774.369
774.375
774.382
774.388
774.395
774.403
774.41
774.418
774.426
774.434
774.443
774.451
774.459
774.468
774.476
774.484
774.493
774.501
774.51
774.519
774.528
774.537
774.547
774.556
774.566
774.576
774.586
774.597
774.607
774.618
774.629
774.64
774.652
774.664
774.676
774.688
774.699
774.711
774.723
774.734
774.747
774.76
774.775
774.791
774.807
774.819
774.829
774.836
774.846
774.856
774.866
774.879
774.892
774.908
774.924
774.94
774.956
774.971
774.986
775.002
775.02
775.041
775.063
775.085
775.103
775.116
775.128
775.153
775.211
775.287
775.352
775.391
775.405
775.402
775.37
775.304
775.262
775.246
775.244
775.247
775.258
775.28
775.302
775.323
775.343
775.362
775.381
775.4
775.418
775.436
775.454
775.472
775.49
775.508
775.527
775.545
775.563
775.581
775.6
775.618
775.637
775.656
775.675
775.694
775.713
775.733
775.752
775.772
775.792
775.812
775.832
775.852
775.873
775.894
775.914
775.935
775.956
775.978
775.999
776.021
776.042
776.064
776.086
776.108
776.13
776.152
776.174
776.197
776.219
776.242
776.265
776.287
776.31
776.333
776.356
776.38
776.403
776.426
776.449
776.473
776.496
776.52
776.544
776.567
776.591
776.615
776.639
776.663
776.687
776.711
776.735
776.759
776.784
776.808
776.833
776.857
776.883
776.907
776.933
776.956
776.984
777.007
777.035
777.057
777.087
777.108
777.139
777.16
777.193
777.212
777.246
777.263
777.305
777.304
774.438
774.448
774.486
774.504
774.508
774.51
774.518
774.525
774.531
774.536
774.542
774.548
774.553
774.558
774.563
774.568
774.573
774.577
774.581
774.585
774.59
774.595
774.6
774.606
774.613
774.619
774.626
774.632
774.638
774.643
774.649
774.654
774.66
774.666
774.671
774.677
774.684
774.69
774.697
774.705
774.713
774.722
774.731
774.741
774.751
774.761
774.771
774.782
774.792
774.802
774.812
774.822
774.832
774.842
774.853
774.865
774.877
774.889
774.901
774.914
774.927
774.941
774.956
774.971
774.987
775.002
775.016
775.031
775.045
775.057
775.064
775.065
775.059
775.03
774.992
774.963
774.939
774.924
774.919
774.92
774.922
774.929
774.94
774.954
774.969
774.986
775.003
775.02
775.037
775.053
775.069
775.083
775.097
775.109
775.122
775.133
775.145
775.156
775.168
775.18
775.193
775.207
775.222
775.237
775.253
775.269
775.286
775.302
775.319
775.336
775.352
775.369
775.386
775.404
775.421
775.438
775.456
775.473
775.491
775.509
775.527
775.545
775.563
775.581
775.6
775.618
775.637
775.656
775.675
775.694
775.713
775.733
775.752
775.772
775.792
775.812
775.832
775.852
775.873
775.894
775.914
775.935
775.956
775.978
775.999
776.021
776.042
776.064
776.086
776.108
776.13
776.152
776.174
776.197
776.219
776.242
776.265
776.287
776.31
776.333
776.356
776.38
776.403
776.426
776.449
776.473
776.496
776.52
776.544
776.567
776.591
776.615
776.639
776.663
776.687
776.711
776.735
776.759
776.784
776.808
776.833
776.857
776.882
776.907
776.932
776.958
776.982
777.009
777.033
777.059
777.085
777.11
777.137
777.163
777.188
777.218
777.24
777.27
777.296
777.323
774.223
774.224
774.225
774.233
774.239
774.24
774.243
774.25
774.258
774.263
774.267
774.273
774.279
774.284
774.29
774.295
774.301
774.307
774.312
774.318
774.324
774.33
774.337
774.343
774.349
774.356
774.362
774.369
774.375
774.382
774.389
774.396
774.403
774.41
774.417
774.425
774.433
774.441
774.45
774.458
774.467
774.476
774.486
774.495
774.504
774.514
774.524
774.533
774.543
774.553
774.563
774.573
774.583
774.593
774.604
774.614
774.625
774.635
774.646
774.656
774.667
774.678
774.688
774.699
774.71
774.721
774.733
774.745
774.758
774.771
774.784
774.797
774.808
774.82
774.832
774.846
774.86
774.874
774.887
774.903
774.921
774.939
774.955
774.97
774.99
775.017
775.043
775.062
775.079
775.103
775.139
775.183
775.229
775.266
775.29
775.3
775.3
775.289
775.248
775.212
775.198
775.197
775.199
775.207
775.227
775.248
775.268
775.289
775.308
775.327
775.346
775.365
775.383
775.401
775.419
775.437
775.455
775.473
775.491
775.509
775.527
775.545
775.563
775.581
775.6
775.618
775.637
775.656
775.675
775.694
775.713
775.733
775.752
775.772
775.792
775.812
775.832
775.852
775.873
775.894
775.914
775.935
775.956
775.978
775.999
776.021
776.042
776.064
776.086
776.108
776.13
776.152
776.174
776.197
776.219
776.242
776.265
776.287
776.31
776.333
776.356
776.38
776.403
776.426
776.449
776.473
776.496
776.52
776.544
776.567
776.591
776.615
776.639
776.663
776.687
776.711
776.735
776.759
776.784
776.808
776.833
776.858
776.882
776.907
776.932
776.958
776.982
777.009
777.032
777.061
777.083
777.113
777.134
777.166
777.186
777.219
777.238
777.273
777.293
777.338
774.341
774.354
774.355
774.361
774.367
774.369
774.372
774.38
774.386
774.391
774.396
774.402
774.408
774.413
774.419
774.425
774.431
774.437
774.443
774.449
774.455
774.461
774.467
774.473
774.479
774.485
774.491
774.497
774.503
774.509
774.515
774.522
774.529
774.536
774.544
774.552
774.56
774.568
774.576
774.585
774.593
774.602
774.611
774.619
774.628
774.637
774.646
774.655
774.665
774.674
774.684
774.693
774.702
774.712
774.722
774.731
774.741
774.751
774.762
774.772
774.783
774.794
774.805
774.817
774.828
774.841
774.853
774.865
774.877
774.889
774.901
774.912
774.924
774.935
774.947
774.96
774.974
774.989
775.001
775.014
775.028
775.046
775.068
775.089
775.108
775.12
775.129
775.145
775.187
775.272
775.346
775.391
775.406
775.405
775.376
775.311
775.26
775.227
775.212
775.21
775.211
775.216
775.227
775.241
775.256
775.271
775.287
775.304
775.32
775.337
775.354
775.371
775.388
775.405
775.423
775.44
775.458
775.475
775.493
775.511
775.529
775.547
775.565
775.583
775.602
775.62
775.639
775.658
775.677
775.696
775.715
775.734
775.754
775.774
775.794
775.814
775.834
775.854
775.875
775.895
775.916
775.937
775.958
775.98
776.001
776.022
776.044
776.066
776.088
776.11
776.132
776.154
776.176
776.199
776.221
776.244
776.267
776.289
776.312
776.335
776.358
776.381
776.405
776.428
776.451
776.475
776.498
776.522
776.546
776.569
776.593
776.617
776.641
776.665
776.689
776.713
776.737
776.761
776.786
776.81
776.834
776.859
776.884
776.909
776.933
776.96
776.984
777.011
777.034
777.063
777.085
777.115
777.136
777.168
777.188
777.221
777.24
777.275
777.295
777.333
777.284
777.277
777.28
777.283
777.284
777.284
777.285
777.282
777.281
777.277
777.276
777.272
777.27
777.27
777.27
777.271
777.272
777.274
777.28
777.294
777.31
777.313
777.317
777.319
777.317
777.315
777.314
777.309
777.306
777.299
777.299
777.293
777.287
777.288
777.285
777.285
777.285
777.283
777.284
777.279
777.338
777.344
777.35
777.354
777.359
777.363
777.366
777.37
777.373
777.379
777.385
777.39
777.395
777.398
777.403
777.412
777.42
777.426
777.441
777.463
777.358
777.37
777.377
777.385
777.392
777.398
777.406
777.419
777.427
777.425
777.417
777.418
777.421
777.411
777.412
777.426
777.448
777.457
777.45
777.362
777.369
777.388
777.397
777.404
777.412
777.418
777.426
777.44
777.448
777.449
777.444
777.442
777.444
777.439
777.443
777.456
777.481
777.493
777.482
777.377
777.335
777.377
777.41
777.451
777.487
777.519
777.553
777.59
777.626
777.66
777.691
777.723
777.756
777.788
777.819
777.849
777.879
777.908
777.937
777.965
777.993
778.021
778.049
778.077
778.104
778.131
778.159
778.186
778.213
778.239
778.266
778.293
778.32
778.347
778.373
778.4
778.427
778.454
778.481
778.508
778.535
778.562
778.59
778.617
778.645
778.673
778.701
778.728
778.756
778.784
778.811
778.838
778.865
778.892
778.919
778.947
778.974
779.001
779.029
779.056
779.084
779.112
779.139
779.167
779.195
779.223
779.25
779.278
779.306
779.334
779.362
779.39
779.418
779.445
779.473
779.502
779.532
779.559
779.585
779.616
779.656
779.697
779.727
779.743
779.756
779.786
779.875
779.999
780.085
780.122
780.127
780.111
780.053
780.006
779.986
779.979
779.98
779.984
780.007
780.009
777.305
777.318
777.346
777.384
777.416
777.444
777.474
777.506
777.538
777.567
777.596
777.625
777.655
777.683
777.71
777.737
777.765
777.793
777.82
777.847
777.874
777.9
777.927
777.954
777.981
778.008
778.035
778.062
778.088
778.115
778.142
778.169
778.196
778.223
778.251
778.278
778.305
778.333
778.36
778.388
778.415
778.443
778.47
778.497
778.525
778.553
778.58
778.608
778.636
778.664
778.692
778.72
778.748
778.776
778.804
778.832
778.859
778.887
778.914
778.942
778.969
778.997
779.025
779.052
779.08
779.108
779.135
779.163
779.192
779.219
779.248
779.277
779.303
779.332
779.363
779.392
779.418
779.446
779.48
779.514
779.542
779.569
779.604
779.646
779.685
779.717
779.748
779.786
779.835
779.896
779.961
780.012
780.039
780.045
780.042
780.023
779.999
779.987
779.984
779.985
777.508
777.537
777.6
777.654
777.691
777.724
777.758
777.793
777.824
777.851
777.879
777.906
777.933
777.958
777.983
778.007
778.031
778.056
778.08
778.104
778.128
778.153
778.179
778.204
778.23
778.256
778.282
778.309
778.337
778.364
778.391
778.419
778.446
778.472
778.498
778.525
778.551
778.577
778.603
778.63
778.657
778.685
778.713
778.741
778.768
778.796
778.824
778.852
778.88
778.908
778.936
778.964
778.992
779.021
779.051
779.08
779.11
779.138
779.167
779.197
779.227
779.258
779.288
779.319
779.351
779.385
779.417
779.445
779.465
779.476
779.478
779.473
779.455
779.445
779.442
779.443
779.447
779.46
779.482
779.506
779.532
779.561
779.59
779.621
779.65
779.681
779.708
779.736
779.763
779.789
779.812
779.839
779.858
779.885
779.904
779.926
779.95
779.971
779.995
780.02
777.36
777.404
777.408
777.432
777.49
777.515
777.518
777.531
777.575
777.607
777.621
777.645
777.676
777.703
777.726
777.749
777.775
777.803
777.83
777.856
777.88
777.905
777.931
777.957
777.984
778.01
778.037
778.064
778.091
778.118
778.146
778.173
778.201
778.228
778.256
778.283
778.311
778.338
778.366
778.393
778.421
778.449
778.478
778.506
778.534
778.562
778.59
778.617
778.645
778.672
778.699
778.727
778.754
778.782
778.809
778.836
778.864
778.891
778.92
778.948
778.976
779.005
779.033
779.061
779.089
779.117
779.145
779.173
779.201
779.229
779.257
779.284
779.312
779.339
779.368
779.397
779.427
779.457
779.486
779.514
779.543
779.574
779.604
779.633
779.663
779.699
779.739
779.774
779.795
779.808
779.827
779.875
779.973
780.075
780.147
780.18
780.183
780.165
780.113
780.079
777.362
777.39
777.395
777.405
777.452
777.488
777.496
777.505
777.534
777.572
777.594
777.618
777.644
777.671
777.698
777.725
777.75
777.778
777.806
777.833
777.859
777.886
777.913
777.94
777.967
777.994
778.021
778.049
778.076
778.103
778.131
778.158
778.185
778.213
778.24
778.268
778.296
778.323
778.351
778.378
778.406
778.434
778.462
778.49
778.518
778.546
778.574
778.602
778.63
778.657
778.685
778.713
778.74
778.767
778.795
778.822
778.85
778.877
778.905
778.932
778.96
778.988
779.017
779.045
779.073
779.101
779.129
779.156
779.184
779.212
779.241
779.268
779.296
779.324
779.351
779.379
779.407
779.435
779.465
779.494
779.522
779.55
779.579
779.609
779.638
779.664
779.692
779.729
779.77
779.805
779.825
779.837
779.858
779.917
780.043
780.149
780.201
780.209
780.197
780.134
780.009
780.011
780.011
780.014
780.017
780.02
780.022
780.023
780.025
780.027
780.03
780.032
780.034
780.037
780.039
780.041
780.043
780.047
780.049
780.053
779.987
779.992
779.997
780.002
780.007
780.012
780.016
780.02
780.023
780.027
780.031
780.035
780.038
780.042
780.044
780.049
780.05
780.055
780.057
780.059
780.037
780.043
780.048
780.053
780.059
780.065
780.071
780.078
780.083
780.089
780.096
780.101
780.106
780.116
780.127
780.134
780.144
780.162
780.186
780.197
780.066
780.06
780.055
780.05
780.049
780.049
780.051
780.056
780.062
780.071
780.083
780.088
780.089
780.096
780.116
780.144
780.158
780.162
780.157
780.133
780.105
780.097
780.088
780.079
780.07
780.064
780.062
780.062
780.062
780.067
780.08
780.087
780.094
780.11
780.141
780.167
780.177
780.177
780.169
780.127
780.084
780.121
780.16
780.198
780.231
780.266
780.304
780.342
780.376
780.41
780.446
780.482
780.516
780.548
780.579
780.612
780.644
780.675
780.704
780.731
780.756
780.782
780.807
780.832
780.856
780.88
780.904
780.927
780.951
780.975
780.999
781.022
781.046
781.069
781.092
781.116
781.138
781.161
781.183
781.205
781.227
781.248
781.27
781.292
781.313
781.334
781.356
781.377
781.398
781.42
781.441
781.462
781.483
781.504
781.525
781.545
781.565
781.586
781.607
781.627
781.646
781.666
781.686
781.707
781.727
781.746
781.765
781.784
781.805
781.827
781.844
781.858
781.878
781.912
781.948
781.967
781.971
781.977
782.011
782.135
782.262
782.312
782.314
782.286
782.202
782.138
782.103
782.084
782.073
782.069
782.074
782.089
782.104
782.119
782.135
782.15
782.166
782.181
782.197
782.212
782.228
782.243
782.258
782.273
782.288
782.302
782.317
782.331
782.346
782.36
782.374
782.388
782.402
782.415
782.429
782.442
782.456
782.469
782.482
782.495
782.508
782.521
782.533
782.546
782.558
782.571
782.583
782.595
782.607
782.619
782.63
782.642
782.653
782.665
782.676
782.687
782.698
782.709
782.72
782.731
782.741
782.752
782.762
782.772
782.783
782.793
782.802
782.812
782.822
782.831
782.841
782.85
782.859
782.868
782.877
782.886
782.894
782.903
782.911
782.92
782.928
782.936
782.944
782.952
782.959
782.967
782.975
782.982
782.989
782.996
783.003
783.01
783.017
783.023
783.03
783.036
783.042
783.049
783.054
783.061
783.065
783.072
783.075
783.084
783.085
783.094
783.095
783.104
783.104
783.113
783.113
783.121
783.121
783.128
783.131
783.132
783.141
783.139
783.144
783.149
780.071
780.109
780.154
780.188
780.213
780.242
780.278
780.313
780.341
780.367
780.397
780.428
780.457
780.482
780.507
780.534
780.561
780.586
780.611
780.634
780.657
780.68
780.704
780.727
780.75
780.773
780.796
780.818
780.84
780.862
780.884
780.907
780.929
780.951
780.974
780.997
781.019
781.042
781.065
781.087
781.11
781.132
781.154
781.176
781.197
781.219
781.24
781.262
781.282
781.304
781.325
781.346
781.368
781.388
781.409
781.429
781.449
781.47
781.491
781.511
781.531
781.551
781.571
781.592
781.613
781.631
781.649
781.672
781.695
781.713
781.729
781.753
781.781
781.801
781.817
781.842
781.877
781.908
781.931
781.955
781.989
782.037
782.101
782.158
782.181
782.18
782.17
782.135
782.095
782.069
782.056
782.056
782.072
782.097
782.118
782.138
782.157
782.174
782.191
782.208
782.224
782.24
782.255
782.271
782.286
782.301
782.315
782.33
782.344
782.358
782.372
782.386
782.4
782.414
782.427
782.441
782.454
782.467
782.481
782.494
782.506
782.519
782.532
782.544
782.557
782.569
782.581
782.593
782.605
782.617
782.629
782.64
782.652
782.663
782.675
782.686
782.697
782.708
782.719
782.729
782.74
782.75
782.761
782.771
782.781
782.791
782.801
782.811
782.82
782.83
782.839
782.848
782.857
782.867
782.875
782.884
782.893
782.901
782.91
782.918
782.926
782.934
782.942
782.95
782.958
782.966
782.973
782.98
782.988
782.995
783.002
783.009
783.015
783.022
783.028
783.035
783.041
783.047
783.052
783.059
783.063
783.071
783.074
783.082
783.084
783.093
783.093
783.102
783.102
783.112
783.111
783.12
783.119
783.128
783.127
783.135
783.134
783.141
783.142
783.147
780.253
780.301
780.362
780.416
780.463
780.509
780.554
780.594
780.626
780.654
780.684
780.713
780.735
780.754
780.773
780.795
780.819
780.842
780.863
780.881
780.901
780.922
780.944
780.967
780.989
781.011
781.033
781.055
781.077
781.1
781.123
781.146
781.17
781.193
781.217
781.24
781.263
781.286
781.309
781.331
781.354
781.377
781.399
781.421
781.443
781.464
781.486
781.509
781.531
781.553
781.576
781.599
781.623
781.645
781.668
781.692
781.716
781.742
781.768
781.792
781.813
781.827
781.827
781.822
781.806
781.78
781.761
781.748
781.739
781.736
781.74
781.755
781.772
781.791
781.812
781.833
781.855
781.875
781.895
781.914
781.932
781.949
781.965
781.98
781.994
782.008
782.02
782.032
782.044
782.057
782.071
782.085
782.101
782.117
782.133
782.149
782.165
782.18
782.196
782.211
782.226
782.241
782.256
782.271
782.286
782.301
782.315
782.33
782.344
782.358
782.372
782.386
782.4
782.414
782.427
782.441
782.454
782.467
782.481
782.494
782.506
782.519
782.532
782.544
782.557
782.569
782.581
782.593
782.605
782.617
782.629
782.64
782.652
782.663
782.675
782.686
782.697
782.708
782.719
782.729
782.74
782.75
782.761
782.771
782.781
782.791
782.801
782.811
782.82
782.83
782.839
782.848
782.857
782.867
782.875
782.884
782.893
782.901
782.91
782.918
782.926
782.934
782.942
782.95
782.958
782.966
782.973
782.98
782.988
782.995
783.002
783.009
783.015
783.022
783.028
783.035
783.041
783.047
783.053
783.059
783.064
783.07
783.075
783.081
783.085
783.091
783.095
783.1
783.104
783.111
783.112
783.119
783.121
783.125
783.13
783.133
783.136
783.141
783.143
783.147
780.171
780.186
780.214
780.277
780.305
780.308
780.324
780.381
780.41
780.415
780.432
780.479
780.508
780.516
780.525
780.547
780.575
780.61
780.637
780.652
780.662
780.678
780.698
780.719
780.742
780.765
780.789
780.813
780.837
780.861
780.885
780.909
780.932
780.956
780.979
781.002
781.025
781.048
781.07
781.092
781.114
781.136
781.158
781.181
781.203
781.225
781.247
781.269
781.291
781.313
781.334
781.358
781.389
781.408
781.424
781.442
781.462
781.484
781.504
781.522
781.541
781.56
781.579
781.599
781.619
781.638
781.657
781.676
781.697
781.719
781.741
781.76
781.778
781.798
781.819
781.839
781.857
781.881
781.914
781.948
781.97
781.977
781.983
781.999
782.064
782.181
782.266
782.298
782.296
782.262
782.183
782.128
782.101
782.093
782.101
782.127
782.15
782.17
782.189
782.206
782.223
782.239
782.255
782.27
782.285
782.3
782.315
782.33
782.344
782.358
782.372
782.386
782.4
782.414
782.427
782.441
782.454
782.467
782.481
782.494
782.506
782.519
782.532
782.544
782.557
782.569
782.581
782.593
782.605
782.617
782.629
782.64
782.652
782.663
782.675
782.686
782.697
782.708
782.719
782.729
782.74
782.75
782.761
782.771
782.781
782.791
782.801
782.811
782.82
782.83
782.839
782.848
782.857
782.867
782.875
782.884
782.893
782.901
782.91
782.918
782.926
782.934
782.942
782.95
782.958
782.966
782.973
782.98
782.988
782.995
783.002
783.009
783.015
783.022
783.029
783.035
783.041
783.047
783.054
783.058
783.066
783.068
783.077
783.079
783.087
783.089
783.097
783.098
783.107
783.107
783.116
783.115
783.124
783.123
783.132
783.131
783.138
783.14
783.139
783.15
780.148
780.185
780.19
780.224
780.271
780.284
780.293
780.313
780.349
780.373
780.398
780.42
780.442
780.466
780.489
780.512
780.537
780.563
780.586
780.608
780.631
780.654
780.677
780.701
780.725
780.749
780.773
780.797
780.821
780.845
780.869
780.893
780.917
780.94
780.964
780.987
781.01
781.033
781.055
781.078
781.1
781.122
781.144
781.166
781.188
781.21
781.232
781.253
781.275
781.297
781.319
781.341
781.363
781.383
781.404
781.424
781.444
781.465
781.485
781.504
781.524
781.544
781.563
781.583
781.603
781.623
781.642
781.662
781.68
781.699
781.719
781.741
781.761
781.78
781.799
781.82
781.84
781.857
781.871
781.894
781.928
781.963
781.982
781.987
781.993
782.017
782.117
782.253
782.313
782.317
782.284
782.191
782.128
782.101
782.098
782.114
782.143
782.167
782.187
782.206
782.223
782.24