/*--------------------------------*- C++ -*----------------------------------*\
| =========                 |                                                 |
| \\      /  F ield         | OpenFOAM: The Open Source CFD Toolbox           |
|  \\    /   O peration     | Version:  3.0.x                                 |
|   \\  /    A nd           | Web:      www.OpenFOAM.org                      |
|    \\/     M anipulation  |                                                 |
\*---------------------------------------------------------------------------*/
FoamFile
{
    version     2.0;
    format      ascii;
    class       volScalarField;
    location    "0.45";
    object      rho;
}
// * * * * * * * * * * * * * * * * * * * * * * * * * * * * * * * * * * * * * //

dimensions      [1 -3 0 0 0 0 0];

internalField   nonuniform List<scalar> 
13800
(
50.6124
50.6124
50.6124
50.6124
50.6125
50.6125
50.6125
50.6125
50.6125
50.6125
50.6125
50.6125
50.6125
50.6125
50.6126
50.6126
50.6126
50.6126
50.6126
50.6126
50.6126
50.6126
50.6126
50.6126
50.6127
50.6127
50.6127
50.6127
50.6127
50.6127
50.6127
50.6127
50.6127
50.6128
50.6128
50.6128
50.6128
50.6128
50.6128
50.6128
50.6128
50.6128
50.6128
50.6128
50.6129
50.6129
50.6129
50.6129
50.6129
50.6129
50.6129
50.6129
50.6129
50.6128
50.6128
50.6128
50.6128
50.6128
50.6128
50.6128
50.6128
50.6129
50.613
50.6131
50.6132
50.6133
50.6133
50.6134
50.6134
50.6134
50.6134
50.6134
50.6134
50.6134
50.6133
50.6133
50.6133
50.6133
50.6133
50.6133
50.6133
50.6134
50.6134
50.6135
50.6135
50.6136
50.6136
50.6136
50.6136
50.6137
50.6138
50.6138
50.6139
50.614
50.6141
50.6142
50.6143
50.6144
50.6144
50.6145
50.6145
50.6145
50.6145
50.6145
50.6145
50.6145
50.6144
50.6144
50.6144
50.6144
50.6144
50.6145
50.6146
50.6147
50.6148
50.6149
50.615
50.6151
50.6152
50.6153
50.6154
50.6154
50.6155
50.6156
50.6156
50.6157
50.6158
50.6159
50.616
50.6161
50.6162
50.6163
50.6164
50.6166
50.6168
50.6169
50.6171
50.6173
50.6176
50.6178
50.6181
50.6184
50.6187
50.619
50.6194
50.6198
50.6202
50.6207
50.6212
50.6217
50.6223
50.6229
50.6236
50.6243
50.625
50.6259
50.6267
50.6276
50.6286
50.6296
50.6307
50.6319
50.6331
50.6344
50.6358
50.6372
50.6388
50.6404
50.642
50.6438
50.6457
50.6476
50.6496
50.6518
50.654
50.6563
50.6587
50.6613
50.6639
50.6667
50.6695
50.6725
50.6755
50.6787
50.6821
50.6855
50.6891
50.6927
50.6965
50.7005
50.7046
50.7087
50.7131
50.7175
50.7223
50.7268
50.732
50.737
50.7464
50.7424
50.6139
50.6139
50.614
50.614
50.614
50.614
50.614
50.614
50.614
50.614
50.614
50.614
50.614
50.614
50.614
50.614
50.614
50.614
50.6141
50.6141
50.6141
50.6141
50.6141
50.6141
50.6141
50.6141
50.6141
50.6141
50.6141
50.6141
50.6141
50.6141
50.6141
50.6142
50.6142
50.6142
50.6142
50.6142
50.6142
50.6142
50.6142
50.6142
50.6142
50.6142
50.6142
50.6142
50.6142
50.6142
50.6142
50.6142
50.6142
50.6142
50.6142
50.6142
50.6141
50.6141
50.6141
50.614
50.614
50.6141
50.6141
50.6142
50.6143
50.6144
50.6145
50.6145
50.6146
50.6146
50.6146
50.6146
50.6147
50.6147
50.6146
50.6146
50.6146
50.6145
50.6145
50.6145
50.6145
50.6145
50.6145
50.6145
50.6146
50.6147
50.6147
50.6147
50.6148
50.6148
50.6148
50.6148
50.6149
50.615
50.6151
50.6152
50.6152
50.6153
50.6154
50.6155
50.6155
50.6156
50.6156
50.6156
50.6156
50.6156
50.6156
50.6156
50.6155
50.6155
50.6155
50.6155
50.6155
50.6155
50.6156
50.6157
50.6158
50.616
50.6161
50.6162
50.6162
50.6163
50.6164
50.6164
50.6165
50.6166
50.6166
50.6167
50.6168
50.6169
50.617
50.6171
50.6172
50.6173
50.6174
50.6176
50.6177
50.6179
50.6181
50.6183
50.6185
50.6188
50.619
50.6193
50.6196
50.62
50.6203
50.6207
50.6212
50.6216
50.6221
50.6227
50.6233
50.6239
50.6245
50.6253
50.626
50.6268
50.6277
50.6286
50.6296
50.6306
50.6317
50.6329
50.6341
50.6354
50.6368
50.6382
50.6397
50.6413
50.643
50.6448
50.6466
50.6486
50.6506
50.6527
50.655
50.6573
50.6597
50.6622
50.6649
50.6676
50.6705
50.6734
50.6765
50.6797
50.683
50.6865
50.69
50.6937
50.6975
50.7014
50.7055
50.7097
50.7141
50.7184
50.7232
50.7277
50.733
50.7379
50.7474
50.7398
50.6139
50.614
50.614
50.614
50.614
50.614
50.614
50.614
50.614
50.614
50.614
50.614
50.614
50.614
50.614
50.614
50.614
50.614
50.6141
50.6141
50.6141
50.6141
50.6141
50.6141
50.6141
50.6141
50.6141
50.6141
50.6141
50.6141
50.6141
50.6141
50.6141
50.6142
50.6142
50.6142
50.6142
50.6142
50.6142
50.6142
50.6142
50.6142
50.6142
50.6142
50.6142
50.6142
50.6142
50.6142
50.6142
50.6142
50.6142
50.6142
50.6142
50.6142
50.6141
50.6141
50.6141
50.6141
50.6141
50.6141
50.6141
50.6142
50.6143
50.6144
50.6145
50.6145
50.6146
50.6146
50.6146
50.6147
50.6147
50.6147
50.6146
50.6146
50.6146
50.6145
50.6145
50.6145
50.6145
50.6145
50.6145
50.6145
50.6146
50.6147
50.6147
50.6147
50.6148
50.6148
50.6148
50.6148
50.6149
50.615
50.6151
50.6152
50.6152
50.6153
50.6154
50.6155
50.6155
50.6156
50.6156
50.6156
50.6156
50.6156
50.6156
50.6156
50.6155
50.6155
50.6155
50.6155
50.6155
50.6155
50.6156
50.6157
50.6158
50.616
50.6161
50.6162
50.6162
50.6163
50.6164
50.6164
50.6165
50.6166
50.6166
50.6167
50.6168
50.6169
50.617
50.6171
50.6172
50.6173
50.6174
50.6176
50.6177
50.6179
50.6181
50.6183
50.6185
50.6188
50.619
50.6193
50.6196
50.62
50.6203
50.6207
50.6212
50.6216
50.6221
50.6227
50.6233
50.6239
50.6245
50.6253
50.626
50.6268
50.6277
50.6286
50.6296
50.6306
50.6317
50.6329
50.6341
50.6354
50.6368
50.6382
50.6397
50.6413
50.643
50.6448
50.6466
50.6486
50.6506
50.6527
50.655
50.6573
50.6597
50.6622
50.6649
50.6676
50.6705
50.6734
50.6765
50.6797
50.683
50.6865
50.69
50.6937
50.6975
50.7014
50.7055
50.7097
50.7141
50.7184
50.7232
50.7277
50.733
50.7379
50.7473
50.7402
50.6139
50.6139
50.6139
50.6139
50.614
50.614
50.614
50.614
50.614
50.614
50.614
50.614
50.614
50.614
50.614
50.614
50.614
50.614
50.614
50.614
50.6141
50.6141
50.6141
50.6141
50.6141
50.6141
50.6141
50.6141
50.6141
50.6141
50.6141
50.6141
50.6141
50.6141
50.6141
50.6142
50.6142
50.6142
50.6142
50.6142
50.6142
50.6142
50.6142
50.6142
50.6142
50.6142
50.6142
50.6142
50.6142
50.6142
50.6142
50.6142
50.6142
50.6142
50.6141
50.6141
50.6141
50.614
50.614
50.614
50.6141
50.6142
50.6143
50.6144
50.6145
50.6145
50.6146
50.6146
50.6146
50.6146
50.6146
50.6146
50.6146
50.6146
50.6146
50.6145
50.6145
50.6145
50.6145
50.6145
50.6145
50.6145
50.6146
50.6147
50.6147
50.6147
50.6148
50.6148
50.6148
50.6148
50.6149
50.615
50.6151
50.6152
50.6152
50.6153
50.6154
50.6155
50.6155
50.6156
50.6156
50.6156
50.6156
50.6156
50.6156
50.6156
50.6155
50.6155
50.6155
50.6155
50.6155
50.6155
50.6156
50.6157
50.6158
50.616
50.6161
50.6162
50.6162
50.6163
50.6164
50.6164
50.6165
50.6166
50.6166
50.6167
50.6168
50.6169
50.617
50.6171
50.6172
50.6173
50.6174
50.6176
50.6177
50.6179
50.6181
50.6183
50.6185
50.6188
50.619
50.6193
50.6196
50.62
50.6203
50.6207
50.6212
50.6216
50.6221
50.6227
50.6233
50.6239
50.6245
50.6253
50.626
50.6268
50.6277
50.6286
50.6296
50.6306
50.6317
50.6329
50.6341
50.6354
50.6368
50.6382
50.6397
50.6413
50.643
50.6448
50.6466
50.6486
50.6506
50.6527
50.655
50.6573
50.6597
50.6622
50.6649
50.6676
50.6705
50.6734
50.6765
50.6797
50.683
50.6865
50.69
50.6937
50.6975
50.7014
50.7055
50.7097
50.7141
50.7184
50.7232
50.7278
50.733
50.7379
50.7467
50.7441
50.6139
50.6139
50.6139
50.6139
50.6139
50.6139
50.614
50.614
50.614
50.614
50.614
50.614
50.614
50.614
50.614
50.614
50.614
50.614
50.614
50.614
50.614
50.614
50.6141
50.6141
50.6141
50.6141
50.6141
50.6141
50.6141
50.6141
50.6141
50.6141
50.6141
50.6141
50.6141
50.6141
50.6142
50.6142
50.6142
50.6142
50.6142
50.6142
50.6142
50.6142
50.6142
50.6142
50.6142
50.6142
50.6142
50.6142
50.6142
50.6142
50.6142
50.6142
50.6141
50.6141
50.614
50.614
50.614
50.614
50.6141
50.6142
50.6143
50.6144
50.6145
50.6145
50.6146
50.6146
50.6146
50.6146
50.6146
50.6146
50.6146
50.6146
50.6146
50.6145
50.6145
50.6145
50.6145
50.6145
50.6145
50.6145
50.6146
50.6147
50.6147
50.6147
50.6147
50.6148
50.6148
50.6148
50.6149
50.615
50.6151
50.6152
50.6152
50.6153
50.6154
50.6155
50.6155
50.6156
50.6156
50.6156
50.6156
50.6156
50.6156
50.6156
50.6155
50.6155
50.6155
50.6155
50.6155
50.6155
50.6156
50.6157
50.6158
50.616
50.6161
50.6162
50.6162
50.6163
50.6164
50.6164
50.6165
50.6166
50.6166
50.6167
50.6168
50.6169
50.617
50.6171
50.6172
50.6173
50.6174
50.6176
50.6177
50.6179
50.6181
50.6183
50.6185
50.6188
50.619
50.6193
50.6196
50.62
50.6203
50.6207
50.6212
50.6216
50.6221
50.6227
50.6233
50.6239
50.6245
50.6253
50.626
50.6268
50.6277
50.6286
50.6296
50.6306
50.6317
50.6329
50.6341
50.6354
50.6368
50.6382
50.6397
50.6413
50.643
50.6448
50.6466
50.6486
50.6506
50.6527
50.655
50.6573
50.6597
50.6622
50.6649
50.6676
50.6705
50.6734
50.6765
50.6797
50.683
50.6865
50.69
50.6937
50.6975
50.7014
50.7055
50.7097
50.7141
50.7184
50.7232
50.7277
50.7329
50.7376
50.7447
50.7423
50.6139
50.6139
50.6139
50.6139
50.6139
50.6139
50.614
50.614
50.614
50.614
50.614
50.614
50.614
50.614
50.614
50.614
50.614
50.614
50.614
50.614
50.614
50.614
50.6141
50.6141
50.6141
50.6141
50.6141
50.6141
50.6141
50.6141
50.6141
50.6141
50.6141
50.6141
50.6141
50.6141
50.6142
50.6142
50.6142
50.6142
50.6142
50.6142
50.6142
50.6142
50.6142
50.6142
50.6142
50.6142
50.6142
50.6142
50.6142
50.6142
50.6142
50.6142
50.6141
50.6141
50.614
50.614
50.614
50.614
50.6141
50.6142
50.6143
50.6144
50.6145
50.6145
50.6146
50.6146
50.6146
50.6146
50.6146
50.6146
50.6146
50.6146
50.6146
50.6145
50.6145
50.6145
50.6145
50.6145
50.6145
50.6145
50.6146
50.6147
50.6147
50.6147
50.6147
50.6148
50.6148
50.6148
50.6149
50.615
50.6151
50.6152
50.6152
50.6153
50.6154
50.6155
50.6155
50.6156
50.6156
50.6156
50.6156
50.6156
50.6156
50.6156
50.6155
50.6155
50.6155
50.6155
50.6155
50.6155
50.6156
50.6157
50.6158
50.616
50.6161
50.6162
50.6162
50.6163
50.6164
50.6164
50.6165
50.6166
50.6166
50.6167
50.6168
50.6169
50.617
50.6171
50.6172
50.6173
50.6174
50.6176
50.6177
50.6179
50.6181
50.6183
50.6185
50.6188
50.619
50.6193
50.6196
50.62
50.6203
50.6207
50.6212
50.6216
50.6221
50.6227
50.6233
50.6239
50.6245
50.6253
50.626
50.6268
50.6277
50.6286
50.6296
50.6306
50.6317
50.6329
50.6341
50.6354
50.6368
50.6382
50.6397
50.6413
50.643
50.6448
50.6466
50.6486
50.6506
50.6527
50.655
50.6573
50.6597
50.6622
50.6649
50.6676
50.6705
50.6734
50.6765
50.6797
50.683
50.6865
50.69
50.6937
50.6975
50.7014
50.7055
50.7097
50.714
50.7185
50.7231
50.7277
50.7329
50.7373
50.7418
50.7456
50.6139
50.6139
50.6139
50.6139
50.614
50.614
50.614
50.614
50.614
50.614
50.614
50.614
50.614
50.614
50.614
50.614
50.614
50.614
50.614
50.614
50.6141
50.6141
50.6141
50.6141
50.6141
50.6141
50.6141
50.6141
50.6141
50.6141
50.6141
50.6141
50.6141
50.6141
50.6141
50.6142
50.6142
50.6142
50.6142
50.6142
50.6142
50.6142
50.6142
50.6142
50.6142
50.6142
50.6142
50.6142
50.6142
50.6142
50.6142
50.6142
50.6142
50.6142
50.6141
50.6141
50.6141
50.614
50.614
50.614
50.6141
50.6142
50.6143
50.6144
50.6145
50.6145
50.6146
50.6146
50.6146
50.6146
50.6146
50.6146
50.6146
50.6146
50.6146
50.6145
50.6145
50.6145
50.6145
50.6145
50.6145
50.6145
50.6146
50.6147
50.6147
50.6147
50.6148
50.6148
50.6148
50.6148
50.6149
50.615
50.6151
50.6152
50.6152
50.6153
50.6154
50.6155
50.6155
50.6156
50.6156
50.6156
50.6156
50.6156
50.6156
50.6156
50.6155
50.6155
50.6155
50.6155
50.6155
50.6155
50.6156
50.6157
50.6158
50.616
50.6161
50.6162
50.6162
50.6163
50.6164
50.6164
50.6165
50.6166
50.6166
50.6167
50.6168
50.6169
50.617
50.6171
50.6172
50.6173
50.6174
50.6176
50.6177
50.6179
50.6181
50.6183
50.6185
50.6188
50.619
50.6193
50.6196
50.62
50.6203
50.6207
50.6212
50.6216
50.6221
50.6227
50.6233
50.6239
50.6245
50.6253
50.626
50.6268
50.6277
50.6286
50.6296
50.6306
50.6317
50.6329
50.6341
50.6354
50.6368
50.6382
50.6397
50.6413
50.643
50.6448
50.6466
50.6486
50.6506
50.6527
50.655
50.6573
50.6597
50.6622
50.6649
50.6676
50.6705
50.6734
50.6765
50.6797
50.683
50.6865
50.69
50.6937
50.6975
50.7014
50.7055
50.7097
50.714
50.7186
50.723
50.728
50.7323
50.7372
50.7391
50.7563
50.6139
50.614
50.614
50.614
50.614
50.614
50.614
50.614
50.614
50.614
50.614
50.614
50.614
50.614
50.614
50.614
50.614
50.614
50.6141
50.6141
50.6141
50.6141
50.6141
50.6141
50.6141
50.6141
50.6141
50.6141
50.6141
50.6141
50.6141
50.6141
50.6141
50.6142
50.6142
50.6142
50.6142
50.6142
50.6142
50.6142
50.6142
50.6142
50.6142
50.6142
50.6142
50.6142
50.6142
50.6142
50.6142
50.6142
50.6142
50.6142
50.6142
50.6142
50.6141
50.6141
50.6141
50.6141
50.6141
50.6141
50.6141
50.6142
50.6143
50.6144
50.6145
50.6145
50.6146
50.6146
50.6146
50.6147
50.6147
50.6147
50.6146
50.6146
50.6146
50.6145
50.6145
50.6145
50.6145
50.6145
50.6145
50.6145
50.6146
50.6147
50.6147
50.6147
50.6148
50.6148
50.6148
50.6148
50.6149
50.615
50.6151
50.6152
50.6152
50.6153
50.6154
50.6155
50.6155
50.6156
50.6156
50.6156
50.6156
50.6156
50.6156
50.6156
50.6155
50.6155
50.6155
50.6155
50.6155
50.6155
50.6156
50.6157
50.6158
50.616
50.6161
50.6162
50.6162
50.6163
50.6164
50.6164
50.6165
50.6166
50.6166
50.6167
50.6168
50.6169
50.617
50.6171
50.6172
50.6173
50.6174
50.6176
50.6177
50.6179
50.6181
50.6183
50.6185
50.6188
50.619
50.6193
50.6196
50.62
50.6203
50.6207
50.6212
50.6216
50.6221
50.6227
50.6233
50.6239
50.6245
50.6253
50.626
50.6268
50.6277
50.6286
50.6296
50.6306
50.6317
50.6329
50.6341
50.6354
50.6368
50.6382
50.6397
50.6413
50.643
50.6448
50.6466
50.6486
50.6506
50.6527
50.655
50.6573
50.6597
50.6622
50.6649
50.6676
50.6705
50.6734
50.6765
50.6797
50.683
50.6865
50.69
50.6937
50.6975
50.7014
50.7055
50.7097
50.714
50.7186
50.723
50.728
50.7322
50.7375
50.7361
50.7846
50.6139
50.6139
50.614
50.614
50.614
50.614
50.614
50.614
50.614
50.614
50.614
50.614
50.614
50.614
50.614
50.614
50.614
50.614
50.6141
50.6141
50.6141
50.6141
50.6141
50.6141
50.6141
50.6141
50.6141
50.6141
50.6141
50.6141
50.6141
50.6141
50.6141
50.6142
50.6142
50.6142
50.6142
50.6142
50.6142
50.6142
50.6142
50.6142
50.6142
50.6142
50.6142
50.6142
50.6142
50.6142
50.6142
50.6142
50.6142
50.6142
50.6142
50.6142
50.6141
50.6141
50.6141
50.614
50.614
50.6141
50.6141
50.6142
50.6143
50.6144
50.6145
50.6145
50.6146
50.6146
50.6146
50.6146
50.6147
50.6147
50.6146
50.6146
50.6146
50.6145
50.6145
50.6145
50.6145
50.6145
50.6145
50.6145
50.6146
50.6147
50.6147
50.6147
50.6148
50.6148
50.6148
50.6148
50.6149
50.615
50.6151
50.6152
50.6152
50.6153
50.6154
50.6155
50.6155
50.6156
50.6156
50.6156
50.6156
50.6156
50.6156
50.6156
50.6155
50.6155
50.6155
50.6155
50.6155
50.6155
50.6156
50.6157
50.6158
50.616
50.6161
50.6162
50.6162
50.6163
50.6164
50.6164
50.6165
50.6166
50.6166
50.6167
50.6168
50.6169
50.617
50.6171
50.6172
50.6173
50.6174
50.6176
50.6177
50.6179
50.6181
50.6183
50.6185
50.6188
50.619
50.6193
50.6196
50.62
50.6203
50.6207
50.6212
50.6216
50.6221
50.6227
50.6233
50.6239
50.6245
50.6253
50.626
50.6268
50.6277
50.6286
50.6296
50.6306
50.6317
50.6329
50.6341
50.6354
50.6368
50.6382
50.6397
50.6413
50.643
50.6448
50.6466
50.6486
50.6506
50.6527
50.655
50.6573
50.6597
50.6622
50.6649
50.6676
50.6705
50.6734
50.6765
50.6797
50.683
50.6865
50.69
50.6937
50.6975
50.7015
50.7055
50.7097
50.714
50.7186
50.723
50.728
50.7322
50.7377
50.7344
50.7995
50.6124
50.6124
50.6124
50.6124
50.6125
50.6125
50.6125
50.6125
50.6125
50.6125
50.6125
50.6125
50.6125
50.6125
50.6126
50.6126
50.6126
50.6126
50.6126
50.6126
50.6126
50.6126
50.6126
50.6126
50.6127
50.6127
50.6127
50.6127
50.6127
50.6127
50.6127
50.6127
50.6127
50.6128
50.6128
50.6128
50.6128
50.6128
50.6128
50.6128
50.6128
50.6128
50.6128
50.6128
50.6129
50.6129
50.6129
50.6129
50.6129
50.6129
50.6129
50.6129
50.6129
50.6128
50.6128
50.6128
50.6128
50.6128
50.6128
50.6128
50.6128
50.6129
50.613
50.6131
50.6132
50.6133
50.6133
50.6134
50.6134
50.6134
50.6134
50.6134
50.6134
50.6134
50.6133
50.6133
50.6133
50.6133
50.6133
50.6133
50.6133
50.6134
50.6134
50.6135
50.6135
50.6136
50.6136
50.6136
50.6136
50.6137
50.6138
50.6138
50.6139
50.614
50.6141
50.6142
50.6143
50.6144
50.6144
50.6145
50.6145
50.6145
50.6145
50.6145
50.6145
50.6145
50.6144
50.6144
50.6144
50.6144
50.6144
50.6145
50.6146
50.6147
50.6148
50.6149
50.615
50.6151
50.6152
50.6153
50.6154
50.6154
50.6155
50.6156
50.6156
50.6157
50.6158
50.6159
50.616
50.6161
50.6162
50.6163
50.6164
50.6166
50.6168
50.6169
50.6171
50.6173
50.6176
50.6178
50.6181
50.6184
50.6187
50.619
50.6194
50.6198
50.6202
50.6207
50.6212
50.6217
50.6223
50.6229
50.6236
50.6243
50.625
50.6259
50.6267
50.6276
50.6286
50.6296
50.6307
50.6319
50.6331
50.6344
50.6358
50.6372
50.6388
50.6404
50.642
50.6438
50.6457
50.6476
50.6496
50.6518
50.654
50.6563
50.6587
50.6613
50.6639
50.6667
50.6695
50.6725
50.6755
50.6787
50.6821
50.6855
50.6891
50.6927
50.6965
50.7005
50.7045
50.7088
50.713
50.7176
50.722
50.727
50.7312
50.7369
50.732
50.8121
50.8366
50.8753
50.8886
50.8914
50.8917
50.8925
50.893
50.8929
50.8924
50.8918
50.891
50.8902
50.8891
50.8875
50.8855
50.8826
50.8784
50.8725
50.8638
50.8499
50.8317
50.8659
50.88
50.8832
50.884
50.885
50.8858
50.886
50.8858
50.8854
50.8848
50.8842
50.8831
50.8818
50.8797
50.877
50.8727
50.8668
50.8578
50.8439
50.8265
50.8611
50.8769
50.8811
50.8821
50.8831
50.8837
50.8837
50.8834
50.8829
50.8822
50.8815
50.8804
50.879
50.8769
50.8741
50.8697
50.8633
50.8537
50.8384
50.8091
50.8289
50.8359
50.8363
50.836
50.8362
50.8363
50.8358
50.8352
50.8344
50.8335
50.8326
50.8311
50.8293
50.8267
50.8236
50.8198
50.8138
50.8054
50.7933
50.7798
50.7928
50.8029
50.8102
50.8158
50.8196
50.8218
50.8232
50.8241
50.8246
50.8245
50.8241
50.8224
50.8204
50.8178
50.814
50.8088
50.8027
50.7954
50.7865
50.7296
50.7212
50.7121
50.7026
50.6942
50.6871
50.6821
50.6783
50.6753
50.6731
50.6714
50.6702
50.67
50.6699
50.6695
50.6696
50.6701
50.6719
50.674
50.6789
50.6743
50.6551
50.6491
50.6509
50.6534
50.6553
50.6567
50.6585
50.6598
50.6615
50.6624
50.6636
50.6642
50.6654
50.6662
50.6682
50.6703
50.6746
50.6815
50.6929
50.608
50.5543
50.5136
50.4866
50.4684
50.4549
50.4444
50.4373
50.4329
50.4306
50.4301
50.4313
50.4344
50.4398
50.4488
50.4597
50.4757
50.4939
50.5194
50.5506
50.594
50.5357
50.5
50.4797
50.4668
50.4571
50.4499
50.4452
50.4432
50.443
50.4443
50.4473
50.4517
50.4583
50.4676
50.4797
50.4948
50.513
50.5365
50.5659
50.5761
50.4943
50.449
50.4227
50.4056
50.3911
50.3797
50.3716
50.3668
50.3635
50.3624
50.363
50.3659
50.3711
50.3798
50.3919
50.4075
50.4276
50.4536
50.4886
50.7868
50.7538
50.7478
50.7498
50.7542
50.7592
50.7645
50.77
50.7756
50.7812
50.787
50.7928
50.7988
50.8049
50.8111
50.8174
50.8238
50.8303
50.8369
50.8437
50.8505
50.8575
50.8646
50.8718
50.8791
50.8865
50.8941
50.9017
50.9095
50.9174
50.9254
50.9336
50.9418
50.9502
50.9587
50.9673
50.9761
50.985
50.994
51.0032
51.0125
51.0219
51.0314
51.0411
51.0509
51.0608
51.0709
51.0811
51.0914
51.1019
51.1125
51.1232
51.1341
51.1451
51.1562
51.1675
51.1789
51.1905
51.2022
51.214
51.226
51.2381
51.2504
51.2628
51.2754
51.2881
51.301
51.314
51.3272
51.3405
51.354
51.3676
51.3813
51.3952
51.4092
51.4234
51.4378
51.4523
51.467
51.4818
51.4968
51.5119
51.5272
51.5426
51.5582
51.5739
51.5898
51.6058
51.622
51.6383
51.6548
51.6715
51.6883
51.7052
51.7223
51.7394
51.7568
51.7743
51.7919
51.8097
51.8277
51.8458
51.864
51.8824
51.901
51.9197
51.9385
51.9575
51.9766
51.9959
52.0153
52.0348
52.0545
52.0743
52.0943
52.1144
52.1346
52.155
52.1755
52.1961
52.2168
52.2376
52.2586
52.2797
52.3009
52.3223
52.3438
52.3654
52.3871
52.409
52.4309
52.453
52.4751
52.4974
52.5198
52.5423
52.5649
52.5876
52.6104
52.6334
52.6565
52.6796
52.7028
52.7261
52.7494
52.7728
52.7965
52.8203
52.8443
52.8685
52.8929
52.9173
52.9417
52.966
52.9901
53.0141
53.0384
53.0636
53.0899
53.1164
53.1407
53.1587
53.1614
53.1553
53.1463
53.1374
53.131
53.1287
53.1317
53.1405
53.1555
53.1767
53.2031
53.2327
53.2676
53.3203
53.3848
53.4445
53.499
53.5479
53.5908
53.6278
53.6606
53.6909
53.7202
53.7488
53.7747
53.8
53.8229
53.8482
53.8708
53.8961
53.9184
53.9438
53.966
53.9915
54.0134
54.0388
54.0573
54.0943
50.787
50.7563
50.7507
50.7529
50.7574
50.7625
50.7678
50.7733
50.7789
50.7845
50.7903
50.7962
50.8022
50.8082
50.8144
50.8207
50.8271
50.8337
50.8403
50.8471
50.8539
50.8609
50.868
50.8752
50.8825
50.8899
50.8975
50.9051
50.9129
50.9208
50.9289
50.937
50.9453
50.9536
50.9621
50.9708
50.9795
50.9884
50.9974
51.0066
51.0159
51.0253
51.0349
51.0446
51.0544
51.0643
51.0744
51.0846
51.0949
51.1054
51.116
51.1267
51.1376
51.1486
51.1597
51.171
51.1824
51.194
51.2057
51.2175
51.2295
51.2416
51.2539
51.2663
51.2789
51.2916
51.3045
51.3176
51.3307
51.3441
51.3576
51.3712
51.3849
51.3988
51.4128
51.427
51.4414
51.4559
51.4705
51.4854
51.5003
51.5155
51.5308
51.5462
51.5618
51.5775
51.5934
51.6094
51.6256
51.6419
51.6584
51.675
51.6918
51.7088
51.7259
51.7431
51.7605
51.778
51.7956
51.8134
51.8313
51.8494
51.8677
51.8861
51.9046
51.9233
51.9422
51.9612
51.9803
51.9996
52.019
52.0385
52.0582
52.078
52.0979
52.118
52.1383
52.1587
52.1792
52.1998
52.2205
52.2414
52.2624
52.2835
52.3047
52.326
52.3475
52.3691
52.3908
52.4127
52.4346
52.4567
52.4788
52.5011
52.5235
52.5459
52.5685
52.5912
52.614
52.6369
52.6599
52.683
52.7062
52.7294
52.7528
52.7763
52.7999
52.8235
52.8474
52.8714
52.8954
52.9194
52.9435
52.9675
52.9914
53.0154
53.0399
53.0648
53.0905
53.1169
53.1439
53.171
53.1974
53.2233
53.2499
53.2774
53.3044
53.329
53.3505
53.3691
53.386
53.4021
53.4185
53.4359
53.4548
53.4754
53.4979
53.5226
53.5494
53.5776
53.6065
53.6357
53.6646
53.6934
53.721
53.7483
53.7731
53.7992
53.8227
53.8484
53.8712
53.8968
53.9193
53.9447
53.9669
53.9924
54.0144
54.0398
54.0586
54.0921
50.7869
50.7573
50.7511
50.7527
50.757
50.762
50.7673
50.7727
50.7782
50.7839
50.7896
50.7955
50.8015
50.8076
50.8138
50.8201
50.8265
50.833
50.8396
50.8464
50.8532
50.8602
50.8673
50.8745
50.8818
50.8892
50.8968
50.9044
50.9122
50.9202
50.9282
50.9363
50.9446
50.953
50.9615
50.9701
50.9788
50.9877
50.9967
51.0059
51.0152
51.0246
51.0342
51.0439
51.0537
51.0636
51.0737
51.0839
51.0942
51.1047
51.1153
51.126
51.1369
51.1479
51.159
51.1703
51.1818
51.1933
51.205
51.2169
51.2288
51.2409
51.2532
51.2656
51.2782
51.2909
51.3038
51.3169
51.33
51.3434
51.3569
51.3705
51.3842
51.3981
51.4121
51.4263
51.4407
51.4552
51.4699
51.4847
51.4997
51.5148
51.5301
51.5455
51.5611
51.5768
51.5927
51.6087
51.6249
51.6412
51.6577
51.6743
51.6911
51.7081
51.7252
51.7424
51.7598
51.7773
51.7949
51.8127
51.8307
51.8488
51.867
51.8854
51.9039
51.9226
51.9415
51.9605
51.9796
51.9989
52.0183
52.0378
52.0575
52.0773
52.0973
52.1174
52.1376
52.158
52.1785
52.1991
52.2199
52.2407
52.2617
52.2828
52.304
52.3254
52.3469
52.3685
52.3902
52.412
52.434
52.4561
52.4782
52.5005
52.5228
52.5453
52.5679
52.5906
52.6133
52.6362
52.6592
52.6823
52.7055
52.7287
52.7521
52.7755
52.7991
52.8228
52.8466
52.8705
52.8946
52.9187
52.9428
52.9667
52.9906
53.0146
53.0387
53.0635
53.0895
53.1164
53.1438
53.172
53.2002
53.2275
53.2544
53.2814
53.3084
53.3347
53.3596
53.3824
53.4034
53.4231
53.4423
53.4616
53.4812
53.5018
53.5228
53.5456
53.5685
53.5936
53.6182
53.6447
53.6701
53.697
53.722
53.7486
53.7728
53.7989
53.8223
53.848
53.871
53.8965
53.9191
53.9445
53.9668
53.9923
54.0143
54.0397
54.059
54.0885
50.7585
50.7392
50.7374
50.7425
50.7485
50.7542
50.7597
50.7653
50.7709
50.7766
50.7824
50.7883
50.7943
50.8003
50.8065
50.8128
50.8192
50.8258
50.8324
50.8391
50.846
50.853
50.86
50.8672
50.8746
50.882
50.8895
50.8972
50.905
50.9129
50.9209
50.9291
50.9373
50.9457
50.9542
50.9628
50.9716
50.9805
50.9895
50.9986
51.0079
51.0173
51.0269
51.0366
51.0464
51.0563
51.0664
51.0766
51.0869
51.0974
51.108
51.1187
51.1296
51.1406
51.1517
51.163
51.1745
51.186
51.1977
51.2095
51.2215
51.2336
51.2459
51.2583
51.2709
51.2836
51.2965
51.3096
51.3227
51.3361
51.3495
51.3631
51.3769
51.3908
51.4048
51.419
51.4334
51.4479
51.4625
51.4774
51.4923
51.5075
51.5227
51.5382
51.5537
51.5695
51.5853
51.6014
51.6176
51.6339
51.6504
51.667
51.6838
51.7008
51.7178
51.735
51.7524
51.7699
51.7875
51.8053
51.8233
51.8414
51.8596
51.878
51.8966
51.9153
51.9341
51.9531
51.9722
51.9915
52.0109
52.0304
52.0501
52.07
52.0899
52.11
52.1302
52.1506
52.171
52.1916
52.2124
52.2332
52.2542
52.2753
52.2966
52.318
52.3394
52.3611
52.3828
52.4046
52.4266
52.4486
52.4708
52.4931
52.5155
52.538
52.5606
52.5834
52.6063
52.6292
52.6522
52.6752
52.6985
52.7219
52.7454
52.769
52.793
52.8169
52.8408
52.8648
52.8888
52.9126
52.9365
52.9606
52.985
53.0098
53.0352
53.0612
53.0874
53.1136
53.1395
53.1653
53.191
53.2167
53.2422
53.2673
53.2919
53.3159
53.3394
53.3625
53.3856
53.4086
53.4318
53.4551
53.4786
53.5026
53.5264
53.5512
53.5754
53.6007
53.6252
53.6505
53.6752
53.7001
53.7248
53.7495
53.7737
53.7987
53.822
53.8475
53.8703
53.8957
53.9185
53.9438
53.9663
53.9918
54.014
54.0393
54.0602
54.0845
50.7656
50.7605
50.7597
50.7593
50.761
50.7648
50.7696
50.7747
50.78
50.7856
50.7913
50.7972
50.8031
50.8092
50.8154
50.8217
50.8281
50.8346
50.8413
50.848
50.8549
50.8618
50.8689
50.8761
50.8834
50.8909
50.8984
50.9061
50.9139
50.9218
50.9298
50.938
50.9462
50.9546
50.9632
50.9718
50.9806
50.9894
50.9984
51.0076
51.0169
51.0263
51.0358
51.0455
51.0553
51.0652
51.0753
51.0855
51.0958
51.1063
51.1169
51.1276
51.1385
51.1495
51.1607
51.172
51.1834
51.195
51.2067
51.2185
51.2305
51.2427
51.2549
51.2674
51.2799
51.2926
51.3055
51.3185
51.3317
51.345
51.3584
51.372
51.3858
51.3997
51.4138
51.428
51.4424
51.4569
51.4715
51.4863
51.5013
51.5164
51.5317
51.5471
51.5627
51.5784
51.5943
51.6103
51.6265
51.6428
51.6593
51.6759
51.6927
51.7096
51.7267
51.744
51.7613
51.7789
51.7966
51.8144
51.8324
51.8505
51.8687
51.8871
51.9057
51.9243
51.9432
51.9621
51.9812
52.0005
52.0199
52.0394
52.0591
52.0789
52.0988
52.1189
52.1391
52.1595
52.18
52.2006
52.2214
52.2422
52.2632
52.2843
52.3056
52.3269
52.3484
52.37
52.3917
52.4135
52.4354
52.4575
52.4796
52.5019
52.5242
52.5467
52.5692
52.5919
52.6146
52.6375
52.6604
52.6835
52.7066
52.7298
52.7531
52.7764
52.7998
52.8233
52.847
52.8707
52.8945
52.9184
52.9425
52.9666
52.9906
53.0147
53.0388
53.063
53.0874
53.1121
53.1369
53.1618
53.1868
53.2119
53.2369
53.2618
53.2866
53.3111
53.3356
53.3599
53.3841
53.4083
53.4325
53.4567
53.481
53.5053
53.5298
53.5539
53.5787
53.6028
53.6276
53.6518
53.6764
53.7009
53.725
53.7497
53.7736
53.7983
53.8222
53.8466
53.8707
53.8945
53.9192
53.9425
53.9671
53.9907
54.0146
54.0385
54.062
54.0849
50.6891
50.7035
50.7141
50.7236
50.7317
50.7384
50.7445
50.7502
50.7559
50.7616
50.7674
50.7733
50.7793
50.7854
50.7916
50.7979
50.8043
50.8108
50.8174
50.8242
50.831
50.838
50.8451
50.8523
50.8596
50.867
50.8745
50.8822
50.89
50.8979
50.9059
50.9141
50.9223
50.9307
50.9392
50.9478
50.9565
50.9654
50.9744
50.9836
50.9928
51.0023
51.0118
51.0215
51.0313
51.0413
51.0514
51.0616
51.0719
51.0824
51.093
51.1037
51.1146
51.1256
51.1367
51.148
51.1594
51.171
51.1826
51.1945
51.2064
51.2186
51.2308
51.2433
51.2559
51.2686
51.2815
51.2945
51.3077
51.321
51.3345
51.348
51.3618
51.3757
51.3898
51.404
51.4184
51.4329
51.4476
51.4624
51.4774
51.4925
51.5078
51.5232
51.5388
51.5545
51.5704
51.5865
51.6027
51.619
51.6355
51.6521
51.6689
51.6858
51.7028
51.72
51.7374
51.7549
51.7726
51.7904
51.8084
51.8265
51.8448
51.8632
51.8817
51.9004
51.9193
51.9382
51.9574
51.9767
51.9961
52.0157
52.0354
52.0553
52.0752
52.0954
52.1156
52.136
52.1566
52.1773
52.1981
52.2191
52.2402
52.2615
52.2828
52.3044
52.3261
52.3479
52.3699
52.392
52.4142
52.4365
52.459
52.4815
52.5041
52.5268
52.5498
52.5729
52.5961
52.6196
52.6431
52.6668
52.6906
52.7144
52.7382
52.762
52.7857
52.8094
52.8331
52.857
52.8812
52.9057
52.9306
52.956
52.9816
53.0074
53.0334
53.0594
53.0855
53.1114
53.1372
53.1627
53.1882
53.2135
53.2388
53.264
53.289
53.3138
53.3383
53.3626
53.3867
53.4105
53.4344
53.4581
53.4821
53.5057
53.53
53.5537
53.5783
53.6021
53.6269
53.6507
53.6757
53.6994
53.7245
53.748
53.7733
53.7966
53.822
53.8451
53.8706
53.8935
53.9189
53.9417
53.9671
53.9897
54.0151
54.0375
54.0631
54.085
50.7304
50.7563
50.7637
50.767
50.7708
50.7753
50.7803
50.7855
50.7909
50.7966
50.8023
50.8082
50.8141
50.8202
50.8264
50.8327
50.8391
50.8457
50.8523
50.859
50.8659
50.8729
50.8799
50.8872
50.8945
50.9019
50.9095
50.9171
50.9249
50.9328
50.9409
50.949
50.9573
50.9657
50.9742
50.9828
50.9916
51.0005
51.0095
51.0187
51.028
51.0374
51.0469
51.0566
51.0664
51.0763
51.0863
51.0965
51.1068
51.1173
51.1279
51.1387
51.1495
51.1606
51.1717
51.183
51.1945
51.206
51.2177
51.2296
51.2416
51.2537
51.266
51.2784
51.291
51.3037
51.3166
51.3296
51.3428
51.3561
51.3696
51.3832
51.3969
51.4108
51.4248
51.439
51.4534
51.4679
51.4825
51.4973
51.5123
51.5275
51.5427
51.5582
51.5737
51.5894
51.6053
51.6213
51.6374
51.6537
51.6702
51.6868
51.7036
51.7205
51.7376
51.7549
51.7722
51.7898
51.8075
51.8253
51.8432
51.8613
51.8796
51.898
51.9165
51.9352
51.954
51.973
51.9921
52.0114
52.0308
52.0504
52.0701
52.0899
52.1099
52.13
52.1502
52.1705
52.191
52.2116
52.2323
52.2532
52.2742
52.2954
52.3166
52.338
52.3595
52.3811
52.4029
52.4247
52.4467
52.4687
52.4909
52.5132
52.5356
52.5581
52.5807
52.6034
52.6263
52.6492
52.6722
52.6953
52.7184
52.7417
52.7651
52.7884
52.8118
52.8353
52.8589
52.8827
52.9065
52.9303
52.954
52.9778
53.0017
53.0259
53.05
53.0741
53.0982
53.1223
53.1463
53.1699
53.1936
53.2176
53.2418
53.2663
53.291
53.3162
53.342
53.368
53.3938
53.419
53.4437
53.4673
53.4908
53.5136
53.5368
53.5594
53.5829
53.6058
53.6299
53.653
53.6775
53.7008
53.7256
53.7489
53.7739
53.7971
53.8224
53.8454
53.8708
53.8936
53.9191
53.9417
53.9672
53.9897
54.0151
54.0377
54.0634
54.0869
50.6575
50.7051
50.721
50.7294
50.7353
50.7406
50.7459
50.7513
50.7567
50.7623
50.7681
50.7739
50.7799
50.786
50.7922
50.7985
50.8049
50.8114
50.818
50.8248
50.8316
50.8386
50.8457
50.8529
50.8602
50.8676
50.8752
50.8828
50.8906
50.8985
50.9065
50.9147
50.923
50.9314
50.9399
50.9485
50.9572
50.9661
50.9751
50.9842
50.9935
51.0029
51.0124
51.0221
51.032
51.0419
51.052
51.0622
51.0726
51.083
51.0936
51.1044
51.1152
51.1263
51.1374
51.1487
51.1602
51.1717
51.1834
51.1952
51.2072
51.2193
51.2315
51.2439
51.2565
51.2693
51.2822
51.2952
51.3084
51.3218
51.3352
51.3489
51.3626
51.3765
51.3906
51.4049
51.4193
51.4339
51.4486
51.4635
51.4786
51.4937
51.5091
51.5245
51.5402
51.556
51.572
51.5881
51.6044
51.6209
51.6375
51.6542
51.6711
51.6881
51.7052
51.7224
51.7398
51.7573
51.775
51.7929
51.8109