/*--------------------------------*- C++ -*----------------------------------*\
| =========                 |                                                 |
| \\      /  F ield         | OpenFOAM: The Open Source CFD Toolbox           |
|  \\    /   O peration     | Version:  3.0.x                                 |
|   \\  /    A nd           | Web:      www.OpenFOAM.org                      |
|    \\/     M anipulation  |                                                 |
\*---------------------------------------------------------------------------*/
FoamFile
{
    version     2.0;
    format      ascii;
    class       volVectorField;
    location    "0.45";
    object      U;
}
// * * * * * * * * * * * * * * * * * * * * * * * * * * * * * * * * * * * * * //

dimensions      [0 1 -1 0 0 0 0];

internalField   nonuniform List<vector> 
13800
(
(76.1961 0.000140792 0)
(76.1921 0.000123412 0)
(76.188 0.00012152 0)
(76.1839 0.000124017 0)
(76.1798 0.000125947 0)
(76.1757 0.000127508 0)
(76.1716 0.000128826 0)
(76.1675 0.000129923 0)
(76.1634 0.000130836 0)
(76.1594 0.000131602 0)
(76.1553 0.000132247 0)
(76.1512 0.000132796 0)
(76.1471 0.000133264 0)
(76.143 0.000133665 0)
(76.1388 0.000134008 0)
(76.1347 0.00013431 0)
(76.1306 0.000134569 0)
(76.1265 0.000134793 0)
(76.1224 0.000134989 0)
(76.1183 0.000135159 0)
(76.1142 0.000135309 0)
(76.11 0.000135439 0)
(76.1059 0.000135553 0)
(76.1018 0.000135653 0)
(76.0977 0.000135741 0)
(76.0935 0.000135818 0)
(76.0894 0.000135885 0)
(76.0853 0.000135944 0)
(76.0811 0.000135995 0)
(76.077 0.00013604 0)
(76.0729 0.000136078 0)
(76.0687 0.000136112 0)
(76.0646 0.000136141 0)
(76.0604 0.000136166 0)
(76.0563 0.000136187 0)
(76.0521 0.000136204 0)
(76.048 0.000136219 0)
(76.0438 0.000136231 0)
(76.0397 0.000136241 0)
(76.0355 0.000136248 0)
(76.0314 0.000136253 0)
(76.0272 0.000136257 0)
(76.0231 0.000136258 0)
(76.0189 0.000136259 0)
(76.0148 0.000136258 0)
(76.0106 0.000136256 0)
(76.0065 0.000136253 0)
(76.0024 0.000136249 0)
(75.9982 0.000136244 0)
(75.9941 0.000136235 0)
(75.99 0.000136235 0)
(75.9858 0.000136217 0)
(75.9817 0.000136238 0)
(75.9776 0.000136225 0)
(75.9735 0.000136213 0)
(75.9694 0.000136211 0)
(75.9653 0.000136207 0)
(75.9612 0.000136198 0)
(75.9571 0.000136181 0)
(75.953 0.000136181 0)
(75.9489 0.000136314 0)
(75.9448 0.000136159 0)
(75.9408 0.000136187 0)
(75.9367 0.000136202 0)
(75.9326 0.000136204 0)
(75.9286 0.000136206 0)
(75.9245 0.000136207 0)
(75.9204 0.000136207 0)
(75.9164 0.000136207 0)
(75.9123 0.000136206 0)
(75.9083 0.000136205 0)
(75.9042 0.000136198 0)
(75.9002 0.000136191 0)
(75.8962 0.000136175 0)
(75.8921 0.000136237 0)
(75.8881 0.000136199 0)
(75.884 0.000136191 0)
(75.88 0.000136187 0)
(75.8759 0.000136154 0)
(75.8719 0.000136152 0)
(75.8678 0.000136279 0)
(75.8638 0.000136167 0)
(75.8597 0.000136171 0)
(75.8557 0.000136183 0)
(75.8516 0.000136186 0)
(75.8476 0.000136189 0)
(75.8435 0.000136192 0)
(75.8394 0.00013619 0)
(75.8354 0.000136169 0)
(75.8313 0.000136249 0)
(75.8272 0.0001362 0)
(75.8231 0.000136208 0)
(75.819 0.000136213 0)
(75.815 0.000136216 0)
(75.8109 0.000136218 0)
(75.8068 0.000136218 0)
(75.8027 0.000136217 0)
(75.7986 0.000136213 0)
(75.7944 0.000136206 0)
(75.7903 0.000136194 0)
(75.7862 0.000136176 0)
(75.7821 0.00013615 0)
(75.778 0.000136128 0)
(75.7738 0.000136068 0)
(75.7697 0.000135857 0)
(75.7655 0.000136045 0)
(75.7614 0.000135817 0)
(75.7572 0.000135673 0)
(75.7531 0.000135496 0)
(75.7489 0.000135255 0)
(75.7447 0.000134942 0)
(75.7405 0.00013465 0)
(75.7364 0.000134592 0)
(75.7322 0.000133558 0)
(75.728 0.00013316 0)
(75.7238 0.000132463 0)
(75.7195 0.00013163 0)
(75.7153 0.000130654 0)
(75.7111 0.000129519 0)
(75.7069 0.000128212 0)
(75.7026 0.000126717 0)
(75.6984 0.000125022 0)
(75.6941 0.000123106 0)
(75.6899 0.000120984 0)
(75.6856 0.000118641 0)
(75.6813 0.00011603 0)
(75.677 0.000113206 0)
(75.6727 0.000110147 0)
(75.6684 0.000106858 0)
(75.6641 0.000103351 0)
(75.6597 9.96379e-05 0)
(75.6553 9.57368e-05 0)
(75.6509 9.16676e-05 0)
(75.6464 8.74535e-05 0)
(75.6419 8.31207e-05 0)
(75.6373 7.86973e-05 0)
(75.6326 7.42133e-05 0)
(75.6278 6.96997e-05 0)
(75.6229 6.51877e-05 0)
(75.6179 6.07085e-05 0)
(75.6127 5.62923e-05 0)
(75.6074 5.19678e-05 0)
(75.6018 4.77616e-05 0)
(75.5961 4.3698e-05 0)
(75.5901 3.97982e-05 0)
(75.5838 3.60805e-05 0)
(75.5772 3.25597e-05 0)
(75.5703 2.92472e-05 0)
(75.563 2.61511e-05 0)
(75.5553 2.32761e-05 0)
(75.5472 2.06236e-05 0)
(75.5386 1.81923e-05 0)
(75.5295 1.59782e-05 0)
(75.5199 1.3975e-05 0)
(75.5098 1.21743e-05 0)
(75.499 1.05665e-05 0)
(75.4876 9.14034e-06 0)
(75.4755 7.88393e-06 0)
(75.4627 6.78473e-06 0)
(75.4492 5.82998e-06 0)
(75.4349 5.00692e-06 0)
(75.4198 4.30294e-06 0)
(75.4038 3.70588e-06 0)
(75.3869 3.20408e-06 0)
(75.3692 2.7865e-06 0)
(75.3504 2.44286e-06 0)
(75.3307 2.16363e-06 0)
(75.31 1.94013e-06 0)
(75.2882 1.76445e-06 0)
(75.2654 1.62958e-06 0)
(75.2414 1.52923e-06 0)
(75.2163 1.45798e-06 0)
(75.1899 1.41102e-06 0)
(75.1624 1.38438e-06 0)
(75.1337 1.37448e-06 0)
(75.1036 1.37854e-06 0)
(75.0723 1.39404e-06 0)
(75.0396 1.41909e-06 0)
(75.0056 1.45196e-06 0)
(74.9702 1.49141e-06 0)
(74.9333 1.53618e-06 0)
(74.895 1.58548e-06 0)
(74.8552 1.63843e-06 0)
(74.8139 1.69463e-06 0)
(74.7711 1.75335e-06 0)
(74.7267 1.81438e-06 0)
(74.6808 1.87743e-06 0)
(74.6332 1.9429e-06 0)
(74.584 2.01282e-06 0)
(74.5331 2.10308e-06 0)
(74.4806 2.27861e-06 0)
(74.4263 2.89477e-06 0)
(74.3703 5.70619e-06 0)
(74.3121 1.92714e-05 0)
(74.2503 8.47318e-05 0)
(74.1778 0.00039846 0)
(74.0616 0.00189159 0)
(73.7439 0.00896533 0)
(72.8524 0.0467651 0)
(65.1755 0.188577 0)
(76.2 0.000221898 0)
(76.1999 0.000163952 0)
(76.1997 0.000149106 0)
(76.1995 0.000147943 0)
(76.1993 0.00014628 0)
(76.1991 0.000144769 0)
(76.1989 0.000143636 0)
(76.1987 0.000142724 0)
(76.1985 0.000141963 0)
(76.1983 0.000141323 0)
(76.1981 0.00014078 0)
(76.1979 0.000140315 0)
(76.1977 0.000139916 0)
(76.1974 0.000139571 0)
(76.1972 0.000139265 0)
(76.197 0.000139012 0)
(76.1968 0.000138785 0)
(76.1966 0.000138584 0)
(76.1964 0.000138407 0)
(76.1961 0.000138253 0)
(76.1959 0.000138117 0)
(76.1957 0.000137997 0)
(76.1954 0.000137892 0)
(76.1952 0.000137799 0)
(76.195 0.000137716 0)
(76.1947 0.000137644 0)
(76.1945 0.00013758 0)
(76.1942 0.000137523 0)
(76.194 0.000137473 0)
(76.1937 0.00013743 0)
(76.1935 0.000137391 0)
(76.1932 0.000137357 0)
(76.193 0.000137327 0)
(76.1927 0.000137301 0)
(76.1924 0.000137278 0)
(76.1922 0.000137258 0)
(76.1919 0.000137241 0)
(76.1917 0.000137226 0)
(76.1914 0.000137213 0)
(76.1911 0.000137202 0)
(76.1909 0.000137192 0)
(76.1906 0.000137184 0)
(76.1903 0.000137177 0)
(76.1901 0.000137171 0)
(76.1898 0.000137165 0)
(76.1895 0.000137161 0)
(76.1893 0.000137158 0)
(76.189 0.000137156 0)
(76.1888 0.000137154 0)
(76.1885 0.000137146 0)
(76.1883 0.000137158 0)
(76.188 0.000137136 0)
(76.1878 0.000137182 0)
(76.1875 0.000137168 0)
(76.1873 0.000137164 0)
(76.1871 0.000137173 0)
(76.1869 0.000137181 0)
(76.1866 0.000137178 0)
(76.1864 0.000137162 0)
(76.1862 0.000137173 0)
(76.186 0.000137425 0)
(76.1858 0.000137135 0)
(76.1856 0.000137229 0)
(76.1854 0.000137266 0)
(76.1852 0.000137281 0)
(76.1851 0.000137297 0)
(76.1849 0.000137312 0)
(76.1847 0.000137328 0)
(76.1845 0.000137343 0)
(76.1844 0.000137358 0)
(76.1842 0.000137372 0)
(76.184 0.000137378 0)
(76.1839 0.000137383 0)
(76.1837 0.000137366 0)
(76.1835 0.000137499 0)
(76.1834 0.000137443 0)
(76.1832 0.000137451 0)
(76.183 0.000137463 0)
(76.1829 0.000137423 0)
(76.1827 0.000137437 0)
(76.1825 0.000137684 0)
(76.1823 0.000137472 0)
(76.1822 0.000137524 0)
(76.182 0.000137559 0)
(76.1818 0.000137578 0)
(76.1816 0.000137598 0)
(76.1815 0.000137617 0)
(76.1813 0.000137628 0)
(76.1811 0.000137603 0)
(76.1809 0.000137749 0)
(76.1807 0.000137691 0)
(76.1805 0.000137718 0)
(76.1803 0.000137739 0)
(76.1801 0.000137759 0)
(76.1799 0.000137777 0)
(76.1796 0.000137794 0)
(76.1794 0.000137808 0)
(76.1792 0.00013782 0)
(76.179 0.000137828 0)
(76.1787 0.00013783 0)
(76.1785 0.000137826 0)
(76.1782 0.000137814 0)
(76.178 0.000137817 0)
(76.1777 0.000137756 0)
(76.1775 0.000137422 0)
(76.1772 0.000137857 0)
(76.1769 0.000137517 0)
(76.1766 0.000137369 0)
(76.1763 0.000137186 0)
(76.176 0.000136919 0)
(76.1757 0.000136555 0)
(76.1754 0.000136267 0)
(76.175 0.00013646 0)
(76.1746 0.000134932 0)
(76.1742 0.000134675 0)
(76.1738 0.000133922 0)
(76.1734 0.000133017 0)
(76.1729 0.000131958 0)
(76.1724 0.000130729 0)
(76.1718 0.000129314 0)
(76.1712 0.000127701 0)
(76.1705 0.000125875 0)
(76.1698 0.00012381 0)
(76.169 0.000121539 0)
(76.1682 0.000119054 0)
(76.1673 0.000116254 0)
(76.1662 0.000113259 0)
(76.1651 0.000110021 0)
(76.1639 0.000106551 0)
(76.1626 0.000102865 0)
(76.1611 9.89777e-05 0)
(76.1595 9.49084e-05 0)
(76.1577 9.068e-05 0)
(76.1558 8.63182e-05 0)
(76.1537 8.18512e-05 0)
(76.1514 7.73093e-05 0)
(76.1489 7.2724e-05 0)
(76.1462 6.81277e-05 0)
(76.1432 6.35524e-05 0)
(76.14 5.90297e-05 0)
(76.1365 5.45899e-05 0)
(76.1327 5.02612e-05 0)
(76.1286 4.60695e-05 0)
(76.1241 4.2038e-05 0)
(76.1193 3.81866e-05 0)
(76.1141 3.45317e-05 0)
(76.1085 3.10865e-05 0)
(76.1024 2.78603e-05 0)
(76.0959 2.48594e-05 0)
(76.0889 2.20862e-05 0)
(76.0814 1.95404e-05 0)
(76.0734 1.72188e-05 0)
(76.0648 1.51158e-05 0)
(76.0556 1.32233e-05 0)
(76.0458 1.15319e-05 0)
(76.0354 1.00306e-05 0)
(76.0242 8.70721e-06 0)
(76.0124 7.54915e-06 0)
(75.9998 6.54326e-06 0)
(75.9864 5.6763e-06 0)
(75.9723 4.93528e-06 0)
(75.9572 4.30737e-06 0)
(75.9414 3.78041e-06 0)
(75.9246 3.34275e-06 0)
(75.9069 2.98348e-06 0)
(75.8882 2.69268e-06 0)
(75.8686 2.46105e-06 0)
(75.8479 2.28047e-06 0)
(75.8261 2.14353e-06 0)
(75.8033 2.0438e-06 0)
(75.7793 1.97556e-06 0)
(75.7542 1.9341e-06 0)
(75.728 1.91494e-06 0)
(75.7005 1.91482e-06 0)
(75.6717 1.93028e-06 0)
(75.6417 1.95908e-06 0)
(75.6104 1.99874e-06 0)
(75.5777 2.0478e-06 0)
(75.5437 2.10438e-06 0)
(75.5083 2.16766e-06 0)
(75.4715 2.23608e-06 0)
(75.4332 2.30927e-06 0)
(75.3934 2.38593e-06 0)
(75.3521 2.46617e-06 0)
(75.3093 2.5488e-06 0)
(75.265 2.63393e-06 0)
(75.219 2.72179e-06 0)
(75.1714 2.81415e-06 0)
(75.1223 2.92122e-06 0)
(75.0714 3.10257e-06 0)
(75.0189 3.61061e-06 0)
(74.9647 5.70766e-06 0)
(74.9087 1.53984e-05 0)
(74.8505 6.1708e-05 0)
(74.7888 0.000284589 0)
(74.7164 0.0013525 0)
(74.6003 0.00643743 0)
(74.2835 0.0304802 0)
(73.3909 0.155746 0)
(66.1242 0.591762 0)
(76.2 0.000163548 0)
(76.1999 0.000115855 0)
(76.1997 0.000105349 0)
(76.1995 0.000109937 0)
(76.1993 0.000111373 0)
(76.1991 0.00011181 0)
(76.1989 0.000112216 0)
(76.1987 0.000112564 0)
(76.1985 0.000112845 0)
(76.1983 0.00011308 0)
(76.1981 0.000113282 0)
(76.1979 0.000113456 0)
(76.1977 0.000113607 0)
(76.1975 0.000113742 0)
(76.1972 0.00011385 0)
(76.197 0.00011396 0)
(76.1968 0.000114055 0)
(76.1966 0.000114137 0)
(76.1964 0.000114208 0)
(76.1962 0.000114273 0)
(76.1959 0.000114333 0)
(76.1957 0.000114386 0)
(76.1955 0.000114434 0)
(76.1952 0.000114478 0)
(76.195 0.000114518 0)
(76.1948 0.000114555 0)
(76.1945 0.000114588 0)
(76.1943 0.000114618 0)
(76.1941 0.000114646 0)
(76.1938 0.000114672 0)
(76.1936 0.000114695 0)
(76.1933 0.000114717 0)
(76.1931 0.000114738 0)
(76.1928 0.000114756 0)
(76.1926 0.000114774 0)
(76.1923 0.00011479 0)
(76.192 0.000114805 0)
(76.1918 0.000114819 0)
(76.1915 0.000114832 0)
(76.1913 0.000114844 0)
(76.191 0.000114856 0)
(76.1908 0.000114866 0)
(76.1905 0.000114876 0)
(76.1902 0.000114886 0)
(76.19 0.000114894 0)
(76.1897 0.000114903 0)
(76.1895 0.000114911 0)
(76.1892 0.000114918 0)
(76.189 0.000114926 0)
(76.1887 0.000114927 0)
(76.1885 0.000114946 0)
(76.1883 0.000114936 0)
(76.188 0.000114973 0)
(76.1878 0.000114971 0)
(76.1876 0.000114976 0)
(76.1874 0.000114987 0)
(76.1872 0.000114997 0)
(76.187 0.000114999 0)
(76.1868 0.000114991 0)
(76.1866 0.000115004 0)
(76.1863 0.000115215 0)
(76.1862 0.000114957 0)
(76.186 0.000115065 0)
(76.1858 0.000115092 0)
(76.1856 0.000115104 0)
(76.1855 0.000115119 0)
(76.1853 0.000115134 0)
(76.1851 0.000115148 0)
(76.185 0.000115162 0)
(76.1848 0.000115176 0)
(76.1847 0.00011519 0)
(76.1845 0.000115198 0)
(76.1844 0.000115205 0)
(76.1842 0.000115185 0)
(76.1841 0.000115303 0)
(76.1839 0.000115254 0)
(76.1838 0.000115264 0)
(76.1836 0.000115276 0)
(76.1835 0.000115244 0)
(76.1833 0.000115261 0)
(76.1831 0.000115467 0)
(76.183 0.000115267 0)
(76.1828 0.000115339 0)
(76.1827 0.000115365 0)
(76.1825 0.000115379 0)
(76.1823 0.000115396 0)
(76.1822 0.000115413 0)
(76.182 0.000115424 0)
(76.1818 0.000115405 0)
(76.1817 0.00011551 0)
(76.1815 0.000115486 0)
(76.1813 0.000115504 0)
(76.1811 0.000115519 0)
(76.1809 0.000115535 0)
(76.1807 0.000115551 0)
(76.1805 0.000115565 0)
(76.1803 0.000115578 0)
(76.1801 0.000115588 0)
(76.1799 0.000115594 0)
(76.1797 0.000115596 0)
(76.1795 0.000115592 0)
(76.1792 0.000115581 0)
(76.179 0.000115585 0)
(76.1788 0.00011553 0)
(76.1785 0.000115234 0)
(76.1783 0.000115618 0)
(76.178 0.000115318 0)
(76.1778 0.000115189 0)
(76.1775 0.000115031 0)
(76.1772 0.000114798 0)
(76.1769 0.000114487 0)
(76.1765 0.000114231 0)
(76.1762 0.000114367 0)
(76.1759 0.00011307 0)
(76.1755 0.000112846 0)
(76.1751 0.000112189 0)
(76.1746 0.000111401 0)
(76.1742 0.000110483 0)
(76.1737 0.00010942 0)
(76.1731 0.000108197 0)
(76.1725 0.000106805 0)
(76.1719 0.000105231 0)
(76.1712 0.000103456 0)
(76.1704 0.000101494 0)
(76.1695 9.93714e-05 0)
(76.1686 9.69711e-05 0)
(76.1676 9.44063e-05 0)
(76.1664 9.16391e-05 0)
(76.1652 8.86794e-05 0)
(76.1639 8.55406e-05 0)
(76.1624 8.22348e-05 0)
(76.1608 7.87802e-05 0)
(76.159 7.51963e-05 0)
(76.157 7.15054e-05 0)
(76.1549 6.77317e-05 0)
(76.1526 6.39012e-05 0)
(76.1501 6.00409e-05 0)
(76.1473 5.61778e-05 0)
(76.1443 5.23393e-05 0)
(76.1411 4.85515e-05 0)
(76.1375 4.48396e-05 0)
(76.1337 4.12271e-05 0)
(76.1295 3.77352e-05 0)
(76.125 3.43826e-05 0)
(76.1202 3.11856e-05 0)
(76.1149 2.81571e-05 0)
(76.1093 2.53075e-05 0)
(76.1032 2.26438e-05 0)
(76.0967 2.01704e-05 0)
(76.0897 1.78888e-05 0)
(76.0822 1.5798e-05 0)
(76.0741 1.38945e-05 0)
(76.0655 1.21731e-05 0)
(76.0563 1.06265e-05 0)
(76.0465 9.24632e-06 0)
(76.036 8.02295e-06 0)
(76.0249 6.9459e-06 0)
(76.013 6.00431e-06 0)
(76.0004 5.18703e-06 0)
(75.987 4.48273e-06 0)
(75.9729 3.88059e-06 0)
(75.9578 3.36982e-06 0)
(75.942 2.94036e-06 0)
(75.9252 2.58273e-06 0)
(75.9075 2.28798e-06 0)
(75.8888 2.04831e-06 0)
(75.8691 1.85617e-06 0)
(75.8484 1.7053e-06 0)
(75.8267 1.58976e-06 0)
(75.8039 1.50451e-06 0)
(75.7799 1.44479e-06 0)
(75.7548 1.407e-06 0)
(75.7285 1.38712e-06 0)
(75.701 1.38284e-06 0)
(75.6723 1.3908e-06 0)
(75.6423 1.40959e-06 0)
(75.611 1.43675e-06 0)
(75.5783 1.47151e-06 0)
(75.5443 1.51184e-06 0)
(75.5089 1.55756e-06 0)
(75.472 1.60691e-06 0)
(75.4337 1.66022e-06 0)
(75.394 1.71575e-06 0)
(75.3527 1.77435e-06 0)
(75.3099 1.8344e-06 0)
(75.2655 1.89642e-06 0)
(75.2196 1.9617e-06 0)
(75.172 2.03291e-06 0)
(75.1228 2.13185e-06 0)
(75.072 2.37055e-06 0)
(75.0195 3.25103e-06 0)
(74.9653 7.27459e-06 0)
(74.9092 2.6417e-05 0)
(74.8511 0.000118189 0)
(74.7894 0.000559976 0)
(74.7173 0.0026775 0)
(74.6028 0.0127713 0)
(74.2939 0.0604911 0)
(73.4318 0.307645 0)
(66.5841 1.1414 0)
(76.2 0.000118248 0)
(76.1998 0.0001051 0)
(76.1996 9.70399e-05 0)
(76.1994 0.000102749 0)
(76.1992 0.000105591 0)
(76.199 0.000106882 0)
(76.1988 0.000107964 0)
(76.1986 0.000108898 0)
(76.1984 0.000109674 0)
(76.1982 0.000110325 0)
(76.198 0.000110878 0)
(76.1978 0.000111351 0)
(76.1976 0.000111757 0)
(76.1974 0.00011211 0)
(76.1972 0.000112408 0)
(76.197 0.000112673 0)
(76.1968 0.000112909 0)
(76.1966 0.000113114 0)
(76.1964 0.00011329 0)
(76.1961 0.000113446 0)
(76.1959 0.000113585 0)
(76.1957 0.000113708 0)
(76.1954 0.000113817 0)
(76.1952 0.000113914 0)
(76.195 0.000114001 0)
(76.1947 0.000114078 0)
(76.1945 0.000114148 0)
(76.1943 0.00011421 0)
(76.194 0.000114265 0)
(76.1938 0.000114315 0)
(76.1935 0.00011436 0)
(76.1933 0.0001144 0)
(76.193 0.000114437 0)
(76.1928 0.00011447 0)
(76.1925 0.000114499 0)
(76.1923 0.000114526 0)
(76.192 0.00011455 0)
(76.1918 0.000114572 0)
(76.1915 0.000114592 0)
(76.1912 0.00011461 0)
(76.191 0.000114626 0)
(76.1907 0.00011464 0)
(76.1905 0.000114653 0)
(76.1902 0.000114665 0)
(76.1899 0.000114676 0)
(76.1897 0.000114685 0)
(76.1894 0.000114694 0)
(76.1892 0.000114702 0)
(76.189 0.000114709 0)
(76.1887 0.000114712 0)
(76.1885 0.000114727 0)
(76.1882 0.000114724 0)
(76.188 0.00011474 0)
(76.1878 0.000114753 0)
(76.1876 0.000114756 0)
(76.1873 0.000114763 0)
(76.1871 0.000114772 0)
(76.1869 0.000114775 0)
(76.1867 0.000114774 0)
(76.1865 0.000114788 0)
(76.1863 0.000114926 0)
(76.1861 0.000114767 0)
(76.186 0.000114833 0)
(76.1858 0.000114857 0)
(76.1856 0.000114868 0)
(76.1854 0.000114882 0)
(76.1853 0.000114896 0)
(76.1851 0.000114909 0)
(76.1849 0.000114922 0)
(76.1848 0.000114934 0)
(76.1846 0.000114945 0)
(76.1845 0.000114954 0)
(76.1843 0.000114961 0)
(76.1842 0.000114943 0)
(76.184 0.000115029 0)
(76.1839 0.000115001 0)
(76.1837 0.000115007 0)
(76.1836 0.000115016 0)
(76.1834 0.000114997 0)
(76.1833 0.000115012 0)
(76.1831 0.00011515 0)
(76.1829 0.000115023 0)
(76.1828 0.00011507 0)
(76.1826 0.000115092 0)
(76.1825 0.000115104 0)
(76.1823 0.00011512 0)
(76.1821 0.000115135 0)
(76.182 0.000115147 0)
(76.1818 0.000115141 0)
(76.1816 0.00011521 0)
(76.1814 0.000115206 0)
(76.1813 0.000115219 0)
(76.1811 0.000115233 0)
(76.1809 0.000115248 0)
(76.1807 0.000115263 0)
(76.1805 0.000115277 0)
(76.1803 0.000115289 0)
(76.1801 0.000115298 0)
(76.1799 0.000115305 0)
(76.1797 0.000115307 0)
(76.1794 0.000115305 0)
(76.1792 0.000115296 0)
(76.179 0.000115297 0)
(76.1788 0.000115249 0)
(76.1785 0.000115035 0)
(76.1783 0.000115287 0)
(76.178 0.000115073 0)
(76.1777 0.000114956 0)
(76.1774 0.000114816 0)
(76.1772 0.000114616 0)
(76.1768 0.000114356 0)
(76.1765 0.000114123 0)
(76.1762 0.000114116 0)
(76.1758 0.000113169 0)
(76.1755 0.00011287 0)
(76.175 0.000112282 0)
(76.1746 0.000111574 0)
(76.1741 0.000110745 0)
(76.1736 0.00010978 0)
(76.1731 0.000108667 0)
(76.1725 0.000107394 0)
(76.1718 0.000105949 0)
(76.1711 0.000104321 0)
(76.1703 0.000102489 0)
(76.1695 0.000100513 0)
(76.1686 9.82915e-05 0)
(76.1675 9.5878e-05 0)
(76.1664 9.32702e-05 0)
(76.1652 9.04694e-05 0)
(76.1638 8.74846e-05 0)
(76.1624 8.43261e-05 0)
(76.1607 8.1009e-05 0)
(76.159 7.75507e-05 0)
(76.157 7.39712e-05 0)
(76.1549 7.02929e-05 0)
(76.1526 6.65399e-05 0)
(76.1501 6.27378e-05 0)
(76.1473 5.89128e-05 0)
(76.1443 5.50916e-05 0)
(76.141 5.13003e-05 0)
(76.1375 4.75646e-05 0)
(76.1337 4.39085e-05 0)
(76.1295 4.03545e-05 0)
(76.125 3.69229e-05 0)
(76.1202 3.36315e-05 0)
(76.1149 3.04955e-05 0)
(76.1093 2.75273e-05 0)
(76.1032 2.47362e-05 0)
(76.0967 2.21287e-05 0)
(76.0897 1.97087e-05 0)
(76.0822 1.74771e-05 0)
(76.0741 1.54327e-05 0)
(76.0655 1.35717e-05 0)
(76.0563 1.18889e-05 0)
(76.0465 1.03767e-05 0)
(76.036 9.02714e-06 0)
(76.0249 7.83034e-06 0)
(76.013 6.77632e-06 0)
(76.0004 5.85426e-06 0)
(75.987 5.05336e-06 0)
(75.9729 4.36273e-06 0)
(75.9578 3.77183e-06 0)
(75.942 3.27028e-06 0)
(75.9252 2.84856e-06 0)
(75.9075 2.49714e-06 0)
(75.8888 2.20811e-06 0)
(75.8691 1.97297e-06 0)
(75.8484 1.78512e-06 0)
(75.8267 1.63762e-06 0)
(75.8039 1.52501e-06 0)
(75.7799 1.44129e-06 0)
(75.7548 1.38313e-06 0)
(75.7285 1.34464e-06 0)
(75.701 1.3246e-06 0)
(75.6723 1.31777e-06 0)
(75.6423 1.3239e-06 0)
(75.611 1.33871e-06 0)
(75.5783 1.36294e-06 0)
(75.5443 1.39248e-06 0)
(75.5089 1.42929e-06 0)
(75.472 1.46898e-06 0)
(75.4337 1.51433e-06 0)
(75.394 1.56074e-06 0)
(75.3527 1.61229e-06 0)
(75.3099 1.66442e-06 0)
(75.2655 1.71965e-06 0)
(75.2196 1.78057e-06 0)
(75.172 1.85742e-06 0)
(75.1228 1.99937e-06 0)
(75.072 2.49155e-06 0)
(75.0195 4.57285e-06 0)
(74.9653 1.45548e-05 0)
(74.9093 6.2667e-05 0)
(74.8512 0.00029413 0)
(74.7898 0.00140896 0)
(74.7189 0.00675017 0)
(74.6102 0.0321307 0)
(74.3321 0.15043 0)
(73.5767 0.706516 0)
(68.3513 2.57639 0)
(76.2 3.58095e-05 0)
(76.1998 2.97804e-05 0)
(76.1996 1.92663e-05 0)
(76.1994 1.67197e-05 0)
(76.1992 1.45254e-05 0)
(76.199 1.22992e-05 0)
(76.1988 1.05143e-05 0)
(76.1986 9.08314e-06 0)
(76.1984 7.89535e-06 0)
(76.1982 6.89661e-06 0)
(76.198 6.05003e-06 0)
(76.1978 5.32676e-06 0)
(76.1976 4.70476e-06 0)
(76.1974 4.16746e-06 0)
(76.1972 3.69853e-06 0)
(76.197 3.28779e-06 0)
(76.1968 2.93388e-06 0)
(76.1965 2.62196e-06 0)
(76.1963 2.34459e-06 0)
(76.1961 2.10047e-06 0)
(76.1959 1.88509e-06 0)
(76.1957 1.69451e-06 0)
(76.1954 1.52558e-06 0)
(76.1952 1.37564e-06 0)
(76.195 1.2424e-06 0)
(76.1947 1.12391e-06 0)
(76.1945 1.01846e-06 0)
(76.1942 9.2458e-07 0)
(76.194 8.40858e-07 0)
(76.1938 7.66406e-07 0)
(76.1935 6.9986e-07 0)
(76.1933 6.4072e-07 0)
(76.193 5.88067e-07 0)
(76.1928 5.41052e-07 0)
(76.1925 4.99168e-07 0)
(76.1922 4.61878e-07 0)
(76.192 4.28691e-07 0)
(76.1917 3.99188e-07 0)
(76.1915 3.72997e-07 0)
(76.1912 3.49766e-07 0)
(76.191 3.29191e-07 0)
(76.1907 3.11e-07 0)
(76.1904 2.94963e-07 0)
(76.1902 2.80838e-07 0)
(76.1899 2.68418e-07 0)
(76.1897 2.57528e-07 0)
(76.1894 2.48035e-07 0)
(76.1892 2.39809e-07 0)
(76.1889 2.32603e-07 0)
(76.1887 2.24941e-07 0)
(76.1885 2.2248e-07 0)
(76.1882 2.15874e-07 0)
(76.188 2.09867e-07 0)
(76.1878 2.13176e-07 0)
(76.1875 2.07577e-07 0)
(76.1873 2.04292e-07 0)
(76.1871 2.01885e-07 0)
(76.1869 1.98118e-07 0)
(76.1867 1.93575e-07 0)
(76.1865 1.93756e-07 0)
(76.1863 2.27756e-07 0)
(76.1861 1.77225e-07 0)
(76.1859 1.89952e-07 0)
(76.1858 1.95072e-07 0)
(76.1856 1.94476e-07 0)
(76.1854 1.94689e-07 0)
(76.1852 1.94991e-07 0)
(76.1851 1.95397e-07 0)
(76.1849 1.95992e-07 0)
(76.1848 1.9679e-07 0)
(76.1846 1.97772e-07 0)
(76.1845 1.99028e-07 0)
(76.1843 1.98956e-07 0)
(76.1842 1.88451e-07 0)
(76.184 2.14752e-07 0)
(76.1838 2.05129e-07 0)
(76.1837 2.04452e-07 0)
(76.1835 2.05387e-07 0)
(76.1834 1.98537e-07 0)
(76.1832 2.02119e-07 0)
(76.1831 2.40395e-07 0)
(76.1829 1.98703e-07 0)
(76.1828 2.09243e-07 0)
(76.1826 2.14866e-07 0)
(76.1825 2.15606e-07 0)
(76.1823 2.17021e-07 0)
(76.1821 2.18264e-07 0)
(76.182 2.17826e-07 0)
(76.1818 2.13239e-07 0)
(76.1816 2.27974e-07 0)
(76.1814 2.22942e-07 0)
(76.1812 2.23763e-07 0)
(76.1811 2.24387e-07 0)
(76.1809 2.25448e-07 0)
(76.1807 2.26415e-07 0)
(76.1805 2.27198e-07 0)
(76.1803 2.27859e-07 0)
(76.1801 2.28371e-07 0)
(76.1799 2.28678e-07 0)
(76.1796 2.28703e-07 0)
(76.1794 2.28359e-07 0)
(76.1792 2.27904e-07 0)
(76.179 2.332e-07 0)
(76.1787 2.22927e-07 0)
(76.1785 1.63153e-07 0)
(76.1782 2.57808e-07 0)
(76.178 2.10758e-07 0)
(76.1777 1.96068e-07 0)
(76.1774 1.83144e-07 0)
(76.1771 1.6091e-07 0)
(76.1768 1.32142e-07 0)
(76.1765 1.23123e-07 0)
(76.1762 1.90777e-07 0)
(76.1758 2.31762e-09 0)
(76.1754 1.99865e-08 0)
(76.175 -1.81634e-08 0)
(76.1746 -6.9211e-08 0)
(76.1741 -1.27257e-07 0)
(76.1736 -1.92663e-07 0)
(76.1731 -2.65266e-07 0)
(76.1725 -3.44915e-07 0)
(76.1718 -4.3128e-07 0)
(76.1711 -5.22564e-07 0)
(76.1703 -6.33069e-07 0)
(76.1695 -7.21182e-07 0)
(76.1685 -8.26429e-07 0)
(76.1675 -9.39589e-07 0)
(76.1664 -1.04956e-06 0)
(76.1652 -1.15835e-06 0)
(76.1638 -1.26445e-06 0)
(76.1623 -1.36641e-06 0)
(76.1607 -1.46223e-06 0)
(76.159 -1.55029e-06 0)
(76.157 -1.62908e-06 0)
(76.1549 -1.69717e-06 0)
(76.1526 -1.75329e-06 0)
(76.15 -1.79649e-06 0)
(76.1473 -1.82605e-06 0)
(76.1443 -1.84155e-06 0)
(76.141 -1.84288e-06 0)
(76.1375 -1.83023e-06 0)
(76.1337 -1.80401e-06 0)
(76.1295 -1.76497e-06 0)
(76.125 -1.71407e-06 0)
(76.1202 -1.65242e-06 0)
(76.1149 -1.58141e-06 0)
(76.1093 -1.50239e-06 0)
(76.1032 -1.41694e-06 0)
(76.0967 -1.3265e-06 0)
(76.0897 -1.23261e-06 0)
(76.0822 -1.13675e-06 0)
(76.0741 -1.04017e-06 0)
(76.0655 -9.44221e-07 0)
(76.0563 -8.49891e-07 0)
(76.0465 -7.58246e-07 0)
(76.036 -6.69929e-07 0)
(76.0249 -5.85712e-07 0)
(76.013 -5.05953e-07 0)
(76.0004 -4.31033e-07 0)
(75.987 -3.61138e-07 0)
(75.9729 -2.96305e-07 0)
(75.9578 -2.36554e-07 0)
(75.942 -1.81734e-07 0)
(75.9252 -1.31594e-07 0)
(75.9075 -8.61367e-08 0)
(75.8888 -4.47416e-08 0)
(75.8691 -7.55224e-09 0)
(75.8484 2.60935e-08 0)
(75.8267 5.61296e-08 0)
(75.8039 8.33348e-08 0)
(75.7799 1.07184e-07 0)
(75.7548 1.29517e-07 0)
(75.7285 1.48661e-07 0)
(75.701 1.67277e-07 0)
(75.6723 1.83433e-07 0)
(75.6423 1.99602e-07 0)
(75.611 2.13756e-07 0)
(75.5783 2.2878e-07 0)
(75.5443 2.41482e-07 0)
(75.5089 2.56015e-07 0)
(75.472 2.67905e-07 0)
(75.4337 2.82142e-07 0)
(75.394 2.93602e-07 0)
(75.3527 3.06961e-07 0)
(75.3099 3.20931e-07 0)
(75.2655 3.32082e-07 0)
(75.2196 3.5533e-07 0)
(75.172 3.94945e-07 0)
(75.1228 5.54714e-07 0)
(75.072 1.26021e-06 0)
(75.0195 4.69557e-06 0)
(74.9653 2.11276e-05 0)
(74.9093 0.000101092 0)
(74.8515 0.000485354 0)
(74.7913 0.00233979 0)
(74.7263 0.0112468 0)
(74.6447 0.0537359 0)
(74.488 0.252121 0)
(74.1209 1.1497 0)
(71.0004 4.13427 0)
(76.2 -3.58095e-05 0)
(76.1998 -2.97804e-05 0)
(76.1996 -1.92663e-05 0)
(76.1994 -1.67197e-05 0)
(76.1992 -1.45254e-05 0)
(76.199 -1.22992e-05 0)
(76.1988 -1.05143e-05 0)
(76.1986 -9.08314e-06 0)
(76.1984 -7.89535e-06 0)
(76.1982 -6.89661e-06 0)
(76.198 -6.05003e-06 0)
(76.1978 -5.32676e-06 0)
(76.1976 -4.70476e-06 0)
(76.1974 -4.16746e-06 0)
(76.1972 -3.69853e-06 0)
(76.197 -3.28779e-06 0)
(76.1968 -2.93389e-06 0)
(76.1965 -2.62196e-06 0)
(76.1963 -2.34459e-06 0)
(76.1961 -2.10047e-06 0)
(76.1959 -1.88509e-06 0)
(76.1957 -1.69451e-06 0)
(76.1954 -1.52558e-06 0)
(76.1952 -1.37564e-06 0)
(76.195 -1.2424e-06 0)
(76.1947 -1.12391e-06 0)
(76.1945 -1.01846e-06 0)
(76.1942 -9.2458e-07 0)
(76.194 -8.40858e-07 0)
(76.1938 -7.66406e-07 0)
(76.1935 -6.99861e-07 0)
(76.1933 -6.40721e-07 0)
(76.193 -5.88067e-07 0)
(76.1928 -5.41052e-07 0)
(76.1925 -4.99168e-07 0)
(76.1922 -4.61878e-07 0)
(76.192 -4.28691e-07 0)
(76.1917 -3.99188e-07 0)
(76.1915 -3.72998e-07 0)
(76.1912 -3.49766e-07 0)
(76.191 -3.29191e-07 0)
(76.1907 -3.11001e-07 0)
(76.1904 -2.94963e-07 0)
(76.1902 -2.80839e-07 0)
(76.1899 -2.68418e-07 0)
(76.1897 -2.57527e-07 0)
(76.1894 -2.48034e-07 0)
(76.1892 -2.39808e-07 0)
(76.1889 -2.32603e-07 0)
(76.1887 -2.24941e-07 0)
(76.1885 -2.22481e-07 0)
(76.1882 -2.15873e-07 0)
(76.188 -2.09867e-07 0)
(76.1878 -2.13177e-07 0)
(76.1875 -2.07577e-07 0)
(76.1873 -2.04291e-07 0)
(76.1871 -2.01885e-07 0)
(76.1869 -1.98118e-07 0)
(76.1867 -1.93575e-07 0)
(76.1865 -1.93756e-07 0)
(76.1863 -2.27756e-07 0)
(76.1861 -1.77226e-07 0)
(76.1859 -1.89951e-07 0)
(76.1858 -1.95071e-07 0)
(76.1856 -1.94476e-07 0)
(76.1854 -1.9469e-07 0)
(76.1852 -1.9499e-07 0)
(76.1851 -1.95396e-07 0)
(76.1849 -1.95991e-07 0)
(76.1848 -1.96789e-07 0)
(76.1846 -1.97771e-07 0)
(76.1845 -1.99027e-07 0)
(76.1843 -1.98956e-07 0)
(76.1842 -1.8845e-07 0)
(76.184 -2.14752e-07 0)
(76.1838 -2.05128e-07 0)
(76.1837 -2.04451e-07 0)
(76.1835 -2.05387e-07 0)
(76.1834 -1.98539e-07 0)
(76.1832 -2.02119e-07 0)
(76.1831 -2.40396e-07 0)
(76.1829 -1.98703e-07 0)
(76.1828 -2.09244e-07 0)
(76.1826 -2.14865e-07 0)
(76.1825 -2.15607e-07 0)
(76.1823 -2.17022e-07 0)
(76.1821 -2.18264e-07 0)
(76.182 -2.17824e-07 0)
(76.1818 -2.13238e-07 0)
(76.1816 -2.27974e-07 0)
(76.1814 -2.22941e-07 0)
(76.1812 -2.23763e-07 0)
(76.1811 -2.24386e-07 0)
(76.1809 -2.25447e-07 0)
(76.1807 -2.26415e-07 0)
(76.1805 -2.27198e-07 0)
(76.1803 -2.27859e-07 0)
(76.1801 -2.28372e-07 0)
(76.1799 -2.28679e-07 0)
(76.1796 -2.28704e-07 0)
(76.1794 -2.28359e-07 0)
(76.1792 -2.27904e-07 0)
(76.179 -2.332e-07 0)
(76.1787 -2.22926e-07 0)
(76.1785 -1.6315e-07 0)
(76.1782 -2.57809e-07 0)
(76.178 -2.10758e-07 0)
(76.1777 -1.96069e-07 0)
(76.1774 -1.83144e-07 0)
(76.1771 -1.60891e-07 0)
(76.1768 -1.32124e-07 0)
(76.1765 -1.23173e-07 0)
(76.1762 -1.88871e-07 0)
(76.1758 -3.5953e-09 0)
(76.1754 -2.05105e-08 0)
(76.175 1.80659e-08 0)
(76.1746 6.91934e-08 0)
(76.1741 1.27253e-07 0)
(76.1736 1.92661e-07 0)
(76.1731 2.65265e-07 0)
(76.1725 3.44915e-07 0)
(76.1718 4.31277e-07 0)
(76.1711 5.22542e-07 0)
(76.1703 6.32839e-07 0)
(76.1695 7.19778e-07 0)
(76.1685 8.27709e-07 0)
(76.1675 9.4004e-07 0)
(76.1664 1.04947e-06 0)
(76.1652 1.15837e-06 0)
(76.1638 1.26448e-06 0)
(76.1623 1.36641e-06 0)
(76.1607 1.46221e-06 0)
(76.159 1.5503e-06 0)
(76.157 1.62909e-06 0)
(76.1549 1.69716e-06 0)
(76.1526 1.75329e-06 0)
(76.15 1.7965e-06 0)
(76.1473 1.82604e-06 0)
(76.1443 1.84155e-06 0)
(76.141 1.84289e-06 0)
(76.1375 1.83022e-06 0)
(76.1337 1.80401e-06 0)
(76.1295 1.76499e-06 0)
(76.125 1.71405e-06 0)
(76.1202 1.65244e-06 0)
(76.1149 1.58139e-06 0)
(76.1093 1.50243e-06 0)
(76.1032 1.41689e-06 0)
(76.0967 1.32655e-06 0)
(76.0897 1.23258e-06 0)
(76.0822 1.13677e-06 0)
(76.0741 1.04015e-06 0)
(76.0655 9.44245e-07 0)
(76.0563 8.49881e-07 0)
(76.0465 7.58231e-07 0)
(76.036 6.69946e-07 0)
(76.0249 5.85723e-07 0)
(76.013 5.05913e-07 0)
(76.0004 4.31084e-07 0)
(75.987 3.61082e-07 0)
(75.9729 2.96375e-07 0)
(75.9578 2.36504e-07 0)
(75.942 1.81728e-07 0)
(75.9252 1.31662e-07 0)
(75.9075 8.60665e-08 0)
(75.8888 4.47925e-08 0)
(75.8691 7.50717e-09 0)
(75.8484 -2.60687e-08 0)
(75.8267 -5.6181e-08 0)
(75.8039 -8.31216e-08 0)
(75.7799 -1.07565e-07 0)
(75.7548 -1.29075e-07 0)
(75.7285 -1.49063e-07 0)
(75.701 -1.66883e-07 0)
(75.6723 -1.83859e-07 0)
(75.6423 -1.99175e-07 0)
(75.611 -2.1436e-07 0)
(75.5783 -2.27934e-07 0)
(75.5443 -2.42168e-07 0)
(75.5089 -2.55101e-07 0)
(75.472 -2.69084e-07 0)
(75.4337 -2.8085e-07 0)
(75.394 -2.95085e-07 0)
(75.3527 -3.06759e-07 0)
(75.3099 -3.18648e-07 0)
(75.2655 -3.33156e-07 0)
(75.2196 -3.31485e-07 0)
(75.172 -3.24956e-07 0)
(75.1228 -1.70603e-07 0)
(75.072 5.34003e-07 0)
(75.0195 3.98046e-06 0)
(74.9653 2.04061e-05 0)
(74.9094 0.00010044 0)
(74.8519 0.000485893 0)
(74.7932 0.00235455 0)
(74.7355 0.0114073 0)
(74.6884 0.0554971 0)
(74.6901 0.269214 0)
(74.8618 1.30792 0)
(75.6093 4.64694 0)
(76.2 -0.000118248 0)
(76.1998 -0.0001051 0)
(76.1996 -9.70399e-05 0)
(76.1994 -0.000102749 0)
(76.1992 -0.000105591 0)
(76.199 -0.000106882 0)
(76.1988 -0.000107964 0)
(76.1986 -0.000108898 0)
(76.1984 -0.000109674 0)
(76.1982 -0.000110325 0)
(76.198 -0.000110878 0)
(76.1978 -0.000111351 0)
(76.1976 -0.000111757 0)
(76.1974 -0.00011211 0)
(76.1972 -0.000112408 0)
(76.197 -0.000112673 0)
(76.1968 -0.000112909 0)
(76.1966 -0.000113114 0)
(76.1964 -0.00011329 0)
(76.1961 -0.000113446 0)
(76.1959 -0.000113585 0)