/*--------------------------------*- C++ -*----------------------------------*\
| =========                 |                                                 |
| \\      /  F ield         | OpenFOAM: The Open Source CFD Toolbox           |
|  \\    /   O peration     | Version:  3.0.x                                 |
|   \\  /    A nd           | Web:      www.OpenFOAM.org                      |
|    \\/     M anipulation  |                                                 |
\*---------------------------------------------------------------------------*/
FoamFile
{
    version     2.0;
    format      ascii;
    class       volScalarField;
    location    "0.6";
    object      rho;
}
// * * * * * * * * * * * * * * * * * * * * * * * * * * * * * * * * * * * * * //

dimensions      [1 -3 0 0 0 0 0];

internalField   nonuniform List<scalar> 
13800
(
55.4988
55.5022
55.508
55.514
55.5197
55.5252
55.5306
55.5357
55.5403
55.5443
55.5477
55.5507
55.5532
55.5549
55.556
55.5565
55.5566
55.5564
55.5557
55.5548
55.5535
55.552
55.5503
55.5485
55.5465
55.5444
55.5421
55.5397
55.5371
55.5344
55.5316
55.5286
55.5255
55.5222
55.5188
55.5153
55.5116
55.5078
55.5038
55.4998
55.4956
55.4912
55.4868
55.4822
55.4775
55.4726
55.4677
55.4626
55.4574
55.4521
55.4466
55.441
55.4353
55.4295
55.4236
55.4175
55.4114
55.4052
55.3989
55.3925
55.3859
55.3793
55.3725
55.3657
55.3587
55.3516
55.3445
55.3372
55.3299
55.3225
55.315
55.3075
55.2999
55.2921
55.2843
55.2764
55.2684
55.2603
55.2521
55.2439
55.2356
55.2272
55.2188
55.2103
55.2017
55.1931
55.1845
55.1758
55.1669
55.1581
55.1492
55.1401
55.1311
55.1221
55.1129
55.1037
55.0945
55.0853
55.0759
55.0666
55.0572
55.0478
55.0384
55.0288
55.0193
55.0098
55.0002
54.9906
54.981
54.9713
54.9617
54.952
54.9423
54.9326
54.9229
54.9131
54.9034
54.8937
54.8839
54.8741
54.8643
54.8545
54.8448
54.835
54.8253
54.8155
54.8058
54.796
54.7863
54.7765
54.7668
54.7572
54.7475
54.7378
54.7282
54.7186
54.709
54.6995
54.69
54.6805
54.671
54.6616
54.6521
54.6428
54.6334
54.6242
54.6149
54.6057
54.5965
54.5874
54.5784
54.5693
54.5604
54.5514
54.5425
54.5337
54.5249
54.5162
54.5075
54.4989
54.4903
54.4818
54.4733
54.465
54.4566
54.4484
54.4401
54.432
54.4239
54.4159
54.408
54.4001
54.3922
54.3844
54.3767
54.369
54.3615
54.354
54.3465
54.3391
54.3318
54.3245
54.3174
54.3101
54.3033
54.2961
54.2894
54.2822
54.2757
54.2686
54.2624
54.2553
54.2492
54.2423
54.2364
54.2297
54.2236
54.2175
54.2108
54.2054
55.4995
55.5029
55.5087
55.5146
55.5204
55.5259
55.5312
55.5363
55.5409
55.5449
55.5484
55.5514
55.5538
55.5556
55.5566
55.5572
55.5572
55.557
55.5564
55.5554
55.5542
55.5526
55.5509
55.5491
55.5471
55.545
55.5427
55.5403
55.5377
55.535
55.5322
55.5292
55.5261
55.5228
55.5194
55.5158
55.5121
55.5084
55.5044
55.5003
55.4961
55.4918
55.4873
55.4828
55.478
55.4731
55.4682
55.4631
55.4579
55.4526
55.4471
55.4415
55.4358
55.43
55.4241
55.4181
55.4119
55.4058
55.3994
55.393
55.3864
55.3798
55.373
55.3662
55.3592
55.3521
55.345
55.3377
55.3304
55.323
55.3155
55.3079
55.3003
55.2926
55.2847
55.2768
55.2688
55.2607
55.2526
55.2443
55.236
55.2276
55.2192
55.2107
55.2022
55.1935
55.1849
55.1761
55.1673
55.1584
55.1495
55.1405
55.1315
55.1224
55.1133
55.1041
55.0949
55.0857
55.0763
55.067
55.0576
55.0482
55.0387
55.0292
55.0197
55.0102
55.0006
54.991
54.9814
54.9718
54.9621
54.9524
54.9427
54.933
54.9233
54.9135
54.9038
54.894
54.8843
54.8745
54.8647
54.8549
54.8452
54.8354
54.8256
54.8159
54.8062
54.7964
54.7867
54.7769
54.7672
54.7576
54.7479
54.7382
54.7286
54.719
54.7094
54.6999
54.6903
54.6808
54.6714
54.6619
54.6525
54.6432
54.6338
54.6246
54.6153
54.6061
54.5969
54.5878
54.5787
54.5697
54.5607
54.5518
54.5429
54.534
54.5253
54.5165
54.5078
54.4993
54.4907
54.4822
54.4737
54.4653
54.457
54.4487
54.4405
54.4324
54.4243
54.4162
54.4083
54.4004
54.3925
54.3848
54.3771
54.3694
54.3618
54.3543
54.3469
54.3395
54.3322
54.3249
54.3178
54.3105
54.3036
54.2964
54.2898
54.2825
54.2761
54.269
54.2627
54.2557
54.2496
54.2427
54.2367
54.23
54.2241
54.2175
54.2117
54.2054
55.4995
55.5029
55.5087
55.5146
55.5204
55.5259
55.5312
55.5363
55.5409
55.5449
55.5484
55.5514
55.5538
55.5556
55.5566
55.5572
55.5572
55.557
55.5564
55.5554
55.5541
55.5526
55.5509
55.5491
55.5471
55.545
55.5427
55.5403
55.5377
55.535
55.5321
55.5292
55.5261
55.5228
55.5194
55.5158
55.5122
55.5084
55.5044
55.5003
55.4961
55.4918
55.4873
55.4827
55.478
55.4732
55.4682
55.4631
55.4579
55.4526
55.4471
55.4415
55.4359
55.43
55.4241
55.4181
55.4119
55.4057
55.3994
55.393
55.3864
55.3798
55.373
55.3662
55.3592
55.3521
55.345
55.3377
55.3304
55.323
55.3155
55.3079
55.3003
55.2926
55.2847
55.2768
55.2688
55.2608
55.2526
55.2443
55.236
55.2276
55.2192
55.2107
55.2022
55.1935
55.1849
55.1761
55.1673
55.1584
55.1495
55.1405
55.1315
55.1224
55.1133
55.1041
55.0949
55.0857
55.0763
55.067
55.0576
55.0482
55.0387
55.0292
55.0197
55.0102
55.0006
54.991
54.9814
54.9718
54.9621
54.9524
54.9427
54.933
54.9233
54.9135
54.9038
54.894
54.8843
54.8745
54.8647
54.8549
54.8452
54.8354
54.8256
54.8159
54.8062
54.7964
54.7867
54.7769
54.7672
54.7576
54.7479
54.7382
54.7286
54.719
54.7094
54.6999
54.6903
54.6808
54.6714
54.6619
54.6525
54.6432
54.6338
54.6246
54.6153
54.6061
54.5969
54.5878
54.5787
54.5697
54.5607
54.5518
54.5429
54.534
54.5253
54.5165
54.5078
54.4993
54.4907
54.4822
54.4737
54.4653
54.457
54.4487
54.4405
54.4324
54.4243
54.4162
54.4083
54.4004
54.3925
54.3848
54.3771
54.3694
54.3618
54.3543
54.3469
54.3395
54.3322
54.3249
54.3178
54.3105
54.3036
54.2964
54.2898
54.2825
54.2761
54.269
54.2627
54.2557
54.2496
54.2427
54.2367
54.23
54.2241
54.2175
54.2118
54.2055
55.4995
55.5029
55.5087
55.5146
55.5204
55.5259
55.5312
55.5363
55.5409
55.5449
55.5484
55.5514
55.5538
55.5556
55.5566
55.5572
55.5572
55.557
55.5564
55.5554
55.5542
55.5526
55.5509
55.5491
55.5471
55.545
55.5427
55.5403
55.5377
55.535
55.5322
55.5292
55.5261
55.5228
55.5194
55.5158
55.5121
55.5084
55.5044
55.5003
55.4961
55.4918
55.4873
55.4828
55.478
55.4731
55.4682
55.4631
55.4579
55.4526
55.4471
55.4415
55.4358
55.43
55.4241
55.4181
55.4119
55.4058
55.3994
55.393
55.3864
55.3798
55.373
55.3662
55.3592
55.3521
55.345
55.3377
55.3304
55.323
55.3155
55.3079
55.3003
55.2926
55.2847
55.2768
55.2688
55.2607
55.2526
55.2443
55.236
55.2276
55.2192
55.2107
55.2022
55.1935
55.1849
55.1761
55.1673
55.1584
55.1495
55.1405
55.1315
55.1224
55.1133
55.1041
55.0949
55.0857
55.0763
55.067
55.0576
55.0482
55.0387
55.0292
55.0197
55.0102
55.0006
54.991
54.9814
54.9718
54.9621
54.9524
54.9427
54.933
54.9233
54.9135
54.9038
54.894
54.8843
54.8745
54.8647
54.8549
54.8452
54.8354
54.8256
54.8159
54.8062
54.7964
54.7867
54.7769
54.7672
54.7576
54.7479
54.7382
54.7286
54.719
54.7094
54.6999
54.6903
54.6808
54.6714
54.6619
54.6525
54.6432
54.6338
54.6246
54.6153
54.6061
54.5969
54.5878
54.5787
54.5697
54.5607
54.5518
54.5429
54.534
54.5253
54.5165
54.5078
54.4993
54.4907
54.4822
54.4737
54.4653
54.457
54.4487
54.4405
54.4324
54.4243
54.4162
54.4083
54.4004
54.3925
54.3848
54.3771
54.3694
54.3618
54.3543
54.3469
54.3395
54.3322
54.3249
54.3178
54.3105
54.3036
54.2964
54.2898
54.2825
54.2761
54.269
54.2627
54.2557
54.2496
54.2427
54.2367
54.23
54.2241
54.2175
54.2117
54.2056
55.4995
55.5029
55.5087
55.5146
55.5204
55.5259
55.5312
55.5363
55.5409
55.5449
55.5484
55.5514
55.5538
55.5556
55.5566
55.5572
55.5572
55.557
55.5563
55.5554
55.5541
55.5526
55.5509
55.5491
55.5471
55.545
55.5427
55.5403
55.5377
55.535
55.5322
55.5292
55.5261
55.5228
55.5194
55.5158
55.5121
55.5084
55.5044
55.5003
55.4961
55.4918
55.4873
55.4828
55.478
55.4731
55.4682
55.4631
55.4579
55.4526
55.4471
55.4415
55.4358
55.43
55.4241
55.4181
55.4119
55.4058
55.3994
55.393
55.3864
55.3798
55.373
55.3662
55.3592
55.3521
55.345
55.3377
55.3304
55.323
55.3155
55.3079
55.3003
55.2926
55.2847
55.2768
55.2688
55.2607
55.2526
55.2443
55.236
55.2276
55.2192
55.2107
55.2022
55.1935
55.1849
55.1761
55.1673
55.1584
55.1495
55.1405
55.1315
55.1224
55.1133
55.1041
55.0949
55.0857
55.0763
55.067
55.0576
55.0482
55.0387
55.0292
55.0197
55.0102
55.0006
54.991
54.9814
54.9718
54.9621
54.9524
54.9427
54.933
54.9233
54.9135
54.9038
54.894
54.8843
54.8745
54.8647
54.8549
54.8452
54.8354
54.8256
54.8159
54.8062
54.7964
54.7867
54.7769
54.7672
54.7576
54.7479
54.7382
54.7286
54.719
54.7094
54.6999
54.6903
54.6808
54.6714
54.6619
54.6525
54.6432
54.6338
54.6246
54.6153
54.6061
54.5969
54.5878
54.5787
54.5697
54.5607
54.5518
54.5429
54.534
54.5253
54.5165
54.5078
54.4993
54.4907
54.4822
54.4737
54.4653
54.457
54.4487
54.4405
54.4324
54.4243
54.4162
54.4083
54.4004
54.3925
54.3848
54.3771
54.3694
54.3618
54.3543
54.3469
54.3395
54.3322
54.3249
54.3178
54.3105
54.3036
54.2964
54.2898
54.2825
54.2761
54.269
54.2627
54.2557
54.2496
54.2427
54.2367
54.23
54.2241
54.2175
54.2117
54.2053
55.4995
55.5029
55.5087
55.5146
55.5204
55.5259
55.5312
55.5363
55.5409
55.5449
55.5484
55.5514
55.5538
55.5556
55.5566
55.5572
55.5572
55.557
55.5563
55.5554
55.5541
55.5526
55.5509
55.5491
55.5471
55.545
55.5427
55.5403
55.5377
55.535
55.5322
55.5292
55.5261
55.5228
55.5194
55.5158
55.5121
55.5084
55.5044
55.5003
55.4961
55.4918
55.4873
55.4828
55.478
55.4731
55.4682
55.4631
55.4579
55.4526
55.4471
55.4415
55.4358
55.43
55.4241
55.4181
55.4119
55.4058
55.3994
55.393
55.3864
55.3798
55.373
55.3662
55.3592
55.3521
55.345
55.3377
55.3304
55.323
55.3155
55.3079
55.3003
55.2926
55.2847
55.2768
55.2688
55.2607
55.2526
55.2443
55.236
55.2276
55.2192
55.2107
55.2022
55.1935
55.1849
55.1761
55.1673
55.1584
55.1495
55.1405
55.1315
55.1224
55.1133
55.1041
55.0949
55.0857
55.0763
55.067
55.0576
55.0482
55.0387
55.0292
55.0197
55.0102
55.0006
54.991
54.9814
54.9718
54.9621
54.9524
54.9427
54.933
54.9233
54.9135
54.9038
54.894
54.8843
54.8745
54.8647
54.8549
54.8452
54.8354
54.8256
54.8159
54.8062
54.7964
54.7867
54.7769
54.7672
54.7576
54.7479
54.7382
54.7286
54.719
54.7094
54.6999
54.6903
54.6808
54.6714
54.6619
54.6525
54.6432
54.6338
54.6246
54.6153
54.6061
54.5969
54.5878
54.5787
54.5697
54.5607
54.5518
54.5429
54.534
54.5253
54.5165
54.5078
54.4993
54.4907
54.4822
54.4737
54.4653
54.457
54.4487
54.4405
54.4324
54.4243
54.4162
54.4083
54.4004
54.3925
54.3848
54.3771
54.3694
54.3618
54.3543
54.3468
54.3395
54.3322
54.3249
54.3177
54.3106
54.3035
54.2966
54.2895
54.2828
54.2758
54.2693
54.2624
54.256
54.2495
54.2428
54.2366
54.2301
54.2238
54.2178
54.2114
54.2055
55.4995
55.5029
55.5087
55.5146
55.5204
55.5259
55.5312
55.5363
55.5409
55.5449
55.5484
55.5514
55.5538
55.5556
55.5566
55.5572
55.5572
55.557
55.5564
55.5554
55.5542
55.5526
55.5509
55.5491
55.5471
55.545
55.5427
55.5403
55.5377
55.535
55.5322
55.5292
55.5261
55.5228
55.5194
55.5158
55.5121
55.5084
55.5044
55.5003
55.4961
55.4918
55.4873
55.4828
55.478
55.4731
55.4682
55.4631
55.4579
55.4526
55.4471
55.4415
55.4358
55.43
55.4241
55.4181
55.4119
55.4058
55.3994
55.393
55.3864
55.3798
55.373
55.3662
55.3592
55.3521
55.345
55.3377
55.3304
55.323
55.3155
55.3079
55.3003
55.2926
55.2847
55.2768
55.2688
55.2607
55.2526
55.2443
55.236
55.2276
55.2192
55.2107
55.2022
55.1935
55.1849
55.1761
55.1673
55.1584
55.1495
55.1405
55.1315
55.1224
55.1133
55.1041
55.0949
55.0857
55.0763
55.067
55.0576
55.0482
55.0387
55.0292
55.0197
55.0102
55.0006
54.991
54.9814
54.9718
54.9621
54.9524
54.9427
54.933
54.9233
54.9135
54.9038
54.894
54.8843
54.8745
54.8647
54.8549
54.8452
54.8354
54.8256
54.8159
54.8062
54.7964
54.7867
54.7769
54.7672
54.7576
54.7479
54.7382
54.7286
54.719
54.7094
54.6999
54.6903
54.6808
54.6714
54.6619
54.6525
54.6432
54.6338
54.6246
54.6153
54.6061
54.5969
54.5878
54.5787
54.5697
54.5607
54.5518
54.5429
54.534
54.5253
54.5165
54.5078
54.4993
54.4907
54.4822
54.4737
54.4653
54.457
54.4487
54.4405
54.4324
54.4243
54.4162
54.4083
54.4004
54.3925
54.3848
54.3771
54.3694
54.3618
54.3543
54.3468
54.3395
54.3321
54.325
54.3176
54.3107
54.3034
54.2967
54.2894
54.2829
54.2757
54.2694
54.2623
54.2561
54.2492
54.2431
54.2363
54.2303
54.2237
54.2179
54.2114
54.2053
55.4995
55.5029
55.5087
55.5146
55.5204
55.5259
55.5312
55.5363
55.5409
55.5449
55.5484
55.5514
55.5538
55.5556
55.5566
55.5572
55.5572
55.557
55.5564
55.5554
55.5541
55.5526
55.5509
55.5491
55.5471
55.545
55.5427
55.5403
55.5377
55.535
55.5321
55.5292
55.5261
55.5228
55.5194
55.5158
55.5122
55.5084
55.5044
55.5003
55.4961
55.4918
55.4873
55.4827
55.478
55.4732
55.4682
55.4631
55.4579
55.4526
55.4471
55.4415
55.4359
55.43
55.4241
55.4181
55.4119
55.4057
55.3994
55.393
55.3864
55.3798
55.373
55.3662
55.3592
55.3521
55.345
55.3377
55.3304
55.323
55.3155
55.3079
55.3003
55.2926
55.2847
55.2768
55.2688
55.2608
55.2526
55.2443
55.236
55.2276
55.2192
55.2107
55.2022
55.1935
55.1849
55.1761
55.1673
55.1584
55.1495
55.1405
55.1315
55.1224
55.1133
55.1041
55.0949
55.0857
55.0763
55.067
55.0576
55.0482
55.0387
55.0292
55.0197
55.0102
55.0006
54.991
54.9814
54.9718
54.9621
54.9524
54.9427
54.933
54.9233
54.9135
54.9038
54.894
54.8843
54.8745
54.8647
54.8549
54.8452
54.8354
54.8256
54.8159
54.8062
54.7964
54.7867
54.7769
54.7672
54.7576
54.7479
54.7382
54.7286
54.719
54.7094
54.6999
54.6903
54.6808
54.6714
54.6619
54.6525
54.6432
54.6338
54.6246
54.6153
54.6061
54.5969
54.5878
54.5787
54.5697
54.5607
54.5518
54.5429
54.534
54.5253
54.5165
54.5078
54.4993
54.4907
54.4822
54.4737
54.4653
54.457
54.4487
54.4405
54.4324
54.4243
54.4162
54.4083
54.4004
54.3925
54.3848
54.3771
54.3694
54.3618
54.3543
54.3468
54.3395
54.3321
54.325
54.3176
54.3107
54.3034
54.2967
54.2894
54.2829
54.2757
54.2694
54.2623
54.2561
54.2492
54.2431
54.2363
54.2304
54.2237
54.2179
54.2112
54.2051
55.4995
55.5029
55.5087
55.5146
55.5204
55.5259
55.5312
55.5363
55.5409
55.5449
55.5484
55.5514
55.5538
55.5556
55.5566
55.5572
55.5572
55.557
55.5564
55.5554
55.5542
55.5526
55.5509
55.5491
55.5471
55.545
55.5427
55.5403
55.5377
55.535
55.5322
55.5292
55.5261
55.5228
55.5194
55.5158
55.5121
55.5084
55.5044
55.5003
55.4961
55.4918
55.4873
55.4828
55.478
55.4731
55.4682
55.4631
55.4579
55.4526
55.4471
55.4415
55.4358
55.43
55.4241
55.4181
55.4119
55.4058
55.3994
55.393
55.3864
55.3798
55.373
55.3662
55.3592
55.3521
55.345
55.3377
55.3304
55.323
55.3155
55.3079
55.3003
55.2926
55.2847
55.2768
55.2688
55.2607
55.2526
55.2443
55.236
55.2276
55.2192
55.2107
55.2022
55.1935
55.1849
55.1761
55.1673
55.1584
55.1495
55.1405
55.1315
55.1224
55.1133
55.1041
55.0949
55.0857
55.0763
55.067
55.0576
55.0482
55.0387
55.0292
55.0197
55.0102
55.0006
54.991
54.9814
54.9718
54.9621
54.9524
54.9427
54.933
54.9233
54.9135
54.9038
54.894
54.8843
54.8745
54.8647
54.8549
54.8452
54.8354
54.8256
54.8159
54.8062
54.7964
54.7867
54.7769
54.7672
54.7576
54.7479
54.7382
54.7286
54.719
54.7094
54.6999
54.6903
54.6808
54.6714
54.6619
54.6525
54.6432
54.6338
54.6246
54.6153
54.6061
54.5969
54.5878
54.5787
54.5697
54.5607
54.5518
54.5429
54.534
54.5253
54.5165
54.5078
54.4993
54.4907
54.4822
54.4737
54.4653
54.457
54.4487
54.4405
54.4324
54.4243
54.4162
54.4083
54.4004
54.3925
54.3848
54.3771
54.3694
54.3618
54.3543
54.3468
54.3395
54.3321
54.325
54.3176
54.3107
54.3034
54.2967
54.2894
54.2829
54.2757
54.2694
54.2623
54.2561
54.2491
54.2431
54.2363
54.2303
54.2236
54.2179
54.2111
54.2049
55.4988
55.5022
55.508
55.514
55.5197
55.5252
55.5306
55.5357
55.5403
55.5443
55.5477
55.5507
55.5532
55.5549
55.556
55.5565
55.5566
55.5564
55.5557
55.5548
55.5535
55.552
55.5503
55.5485
55.5465
55.5444
55.5421
55.5397
55.5371
55.5344
55.5316
55.5286
55.5255
55.5222
55.5188
55.5153
55.5116
55.5078
55.5038
55.4998
55.4956
55.4912
55.4868
55.4822
55.4775
55.4726
55.4677
55.4626
55.4574
55.4521
55.4466
55.441
55.4353
55.4295
55.4236
55.4175
55.4114
55.4052
55.3989
55.3925
55.3859
55.3793
55.3725
55.3657
55.3587
55.3516
55.3445
55.3372
55.3299
55.3225
55.315
55.3075
55.2999
55.2921
55.2843
55.2764
55.2684
55.2603
55.2521
55.2439
55.2356
55.2272
55.2188
55.2103
55.2017
55.1931
55.1845
55.1758
55.1669
55.1581
55.1492
55.1401
55.1311
55.1221
55.1129
55.1037
55.0945
55.0853
55.0759
55.0666
55.0572
55.0478
55.0384
55.0288
55.0193
55.0098
55.0002
54.9906
54.981
54.9713
54.9617
54.952
54.9423
54.9326
54.9229
54.9131
54.9034
54.8937
54.8839
54.8741
54.8643
54.8545
54.8448
54.835
54.8253
54.8155
54.8058
54.796
54.7863
54.7765
54.7668
54.7572
54.7475
54.7378
54.7282
54.7186
54.709
54.6995
54.69
54.6805
54.671
54.6616
54.6521
54.6428
54.6334
54.6242
54.6149
54.6057
54.5965
54.5874
54.5784
54.5693
54.5604
54.5514
54.5425
54.5337
54.5249
54.5162
54.5075
54.4989
54.4903
54.4818
54.4733
54.465
54.4566
54.4484
54.4401
54.432
54.4239
54.4159
54.408
54.4001
54.3922
54.3844
54.3767
54.369
54.3615
54.354
54.3465
54.3392
54.3318
54.3246
54.3173
54.3103
54.3031
54.2963
54.2891
54.2825
54.2753
54.2691
54.2619
54.2558
54.2488
54.2428
54.2359
54.23
54.2233
54.2176
54.2106
54.2045
54.2025
54.2011
54.1997
54.1982
54.1967
54.195
54.1933
54.1918
54.1905
54.1893
54.1881
54.187
54.1858
54.1847
54.1835
54.1824
54.1812
54.18
54.1787
54.1775
54.2022
54.2009
54.1996
54.1983
54.197
54.1956
54.1942
54.1929
54.1915
54.1901
54.1888
54.1876
54.1864
54.1852
54.1841
54.183
54.1819
54.1807
54.1795
54.1782
54.202
54.2008
54.1995
54.1981
54.1969
54.1956
54.1943
54.1931
54.1917
54.1904
54.1891
54.1878
54.1865
54.1853
54.1842
54.1831
54.1819
54.1808
54.1796
54.1783
54.2022
54.201
54.1997
54.1984
54.1972
54.196
54.1948
54.1936
54.1924
54.1912
54.1899
54.1886
54.1873
54.186
54.1846
54.1832
54.1819
54.1806
54.1793
54.178
54.2018
54.2007
54.1995
54.1984
54.1972
54.1962
54.1951
54.194
54.1928
54.1917
54.1906
54.1895
54.1885
54.1874
54.1863
54.1851
54.184
54.1827
54.1815
54.1803
54.2017
54.2006
54.1994
54.1983
54.1972
54.1961
54.195
54.1939
54.1928
54.1917
54.1905
54.1894
54.1882
54.187
54.1858
54.1845
54.1831
54.1817
54.1804
54.1792
54.2013
54.2003
54.1992
54.1981
54.197
54.196
54.1949
54.1939
54.1929
54.1919
54.1908
54.1898
54.1888
54.1878
54.1868
54.1859
54.1851
54.1842
54.1835
54.1827
54.2009
54.1998
54.1986
54.1975
54.1963
54.1952
54.1941
54.193
54.192
54.191
54.19
54.189
54.1881
54.1872
54.1865
54.1859
54.1853
54.1849
54.1847
54.1841
54.2006
54.1995
54.1983
54.1972
54.1962
54.1951
54.1941
54.1931
54.1921
54.1911
54.1902
54.1894
54.1886
54.1879
54.1873
54.1867
54.1862
54.1858
54.1854
54.1845
54.2
54.1989
54.1978
54.1967
54.1957
54.1946
54.1936
54.1927
54.1918
54.1909
54.1901
54.1893
54.1886
54.1879
54.1873
54.1867
54.1862
54.1859
54.1855
54.1843
54.1746
54.1699
54.1653
54.1611
54.1569
54.1526
54.1482
54.1441
54.1401
54.1361
54.132
54.1279
54.1238
54.1198
54.1159
54.112
54.1082
54.1043
54.1005
54.0967
54.093
54.0893
54.0856
54.082
54.0784
54.0749
54.0714
54.0679
54.0645
54.0612
54.0579
54.0546
54.0514
54.0482
54.045
54.0419
54.0388
54.0358
54.0328
54.0298
54.0269
54.024
54.0212
54.0184
54.0157
54.013
54.0102
54.0076
54.005
54.0024
53.9999
53.9974
53.995
53.9926
53.9901
53.9878
53.9855
53.9833
53.981
53.9788
53.9766
53.9745
53.9724
53.9704
53.9684
53.9664
53.9644
53.9625
53.9607
53.9588
53.957
53.9552
53.9535
53.9518
53.9502
53.9486
53.9469
53.9454
53.9438
53.9424
53.941
53.9397
53.9386
53.9373
53.936
53.9346
53.9333
53.9323
53.9319
53.9318
53.9312
53.9297
53.9251
53.9086
53.8645
53.8121
53.7639
53.7229
53.6915
53.6706
53.6603
53.6571
53.6576
53.6702
53.7198
53.7854
53.8389
53.8779
53.9031
53.9173
53.9242
53.9269
53.9265
53.9232
53.9175
53.9137
53.9109
53.909
53.9076
53.9065
53.9058
53.9051
53.9045
53.904
53.9035
53.903
53.9027
53.9022
53.9018
53.9015
53.9011
53.9008
53.9005
53.9002
53.9
53.8997
53.8994
53.8992
53.8989
53.8987
53.8986
53.8984
53.8982
53.898
53.8978
53.8977
53.8976
53.8975
53.8973
53.8973
53.8971
53.897
53.897
53.8969
53.8968
53.8967
53.8967
53.8966
53.8965
53.8966
53.8965
53.8965
53.8965
53.8964
53.8964
53.8964
53.8964
53.8963
53.8964
53.8964
53.8963
53.8964
53.8963
53.8964
53.8964
53.8964
53.8964
53.8965
53.8964
53.8965
53.8964
53.8965
53.8963
53.8966
53.8963
53.8967
53.8963
53.8967
53.8964
53.8968
53.8963
53.8968
53.8964
53.8968
53.8964
53.8968
53.8964
53.8969
53.8963
53.8965
54.1755
54.1709
54.1661
54.1617
54.1576
54.1534
54.1491
54.1449
54.1408
54.1369
54.1329
54.1288
54.1248
54.1208
54.1169
54.113
54.1091
54.1053
54.1015
54.0978
54.0941
54.0904
54.0867
54.0831
54.0795
54.076
54.0725
54.069
54.0656
54.0622
54.059
54.0557
54.0525
54.0493
54.0461
54.043
54.0399
54.0369
54.0339
54.031
54.028
54.0251
54.0224
54.0195
54.0168
54.0141
54.0114
54.0088
54.0061
54.0036
54.001
53.9985
53.9961
53.9937
53.9913
53.9889
53.9867
53.9844
53.9822
53.98
53.9777
53.9756
53.9735
53.9715
53.9694
53.9675
53.9655
53.9636
53.9617
53.9599
53.9582
53.9564
53.9546
53.9529
53.9512
53.9496
53.948
53.9464
53.9449
53.9435
53.942
53.9406
53.9393
53.938
53.9367
53.9352
53.9339
53.9327
53.9319
53.9313
53.931
53.9307
53.9308
53.9314
53.9324
53.9333
53.9337
53.9328
53.9297
53.9218
53.9124
53.903
53.8946
53.8885
53.8858
53.8847
53.8851
53.8904
53.8991
53.9053
53.9095
53.9122
53.9137
53.9136
53.9125
53.9107
53.9093
53.9082
53.9074
53.9066
53.9059
53.9053
53.9047
53.9043
53.9038
53.9034
53.9029
53.9026
53.9021
53.9018
53.9014
53.9011
53.9008
53.9005
53.9002
53.9
53.8997
53.8995
53.8993
53.8991
53.8989
53.8987
53.8985
53.8984
53.8982
53.898
53.8979
53.8978
53.8976
53.8975
53.8974
53.8974
53.8972
53.8972
53.8971
53.8971
53.897
53.8969
53.8969
53.8968
53.8968
53.8968
53.8967
53.8967
53.8967
53.8967
53.8967
53.8967
53.8967
53.8967
53.8967
53.8967
53.8967
53.8966
53.8966
53.8967
53.8967
53.8967
53.8966
53.8967
53.8967
53.8969
53.8967
53.8969
53.8967
53.897
53.8966
53.897
53.8967
53.897
53.8967
53.897
53.8967
53.897
53.8968
53.8971
53.8967
53.8971
53.8968
53.8968
54.1755
54.171
54.1662
54.1618
54.1576
54.1533
54.149
54.1448
54.1407
54.1367
54.1327
54.1287
54.1246
54.1206
54.1167
54.1128
54.109
54.1051
54.1013
54.0975
54.0939
54.0902
54.0865
54.0829
54.0793
54.0758
54.0723
54.0688
54.0654
54.062
54.0587
54.0555
54.0522
54.0491
54.0459
54.0428
54.0398
54.0367
54.0337
54.0307
54.0278
54.025
54.0222
54.0193
54.0166
54.0139
54.0112
54.0085
54.006
54.0034
54.0008
53.9984
53.9959
53.9935
53.9911
53.9888
53.9865
53.9842
53.9819
53.9797
53.9776
53.9755
53.9734
53.9713
53.9693
53.9673
53.9654
53.9635
53.9616
53.9598
53.958
53.9562
53.9544
53.9527
53.951
53.9495
53.9478
53.9463
53.9448
53.9432
53.9418
53.9404
53.939
53.9378
53.9366
53.9353
53.9338
53.9322
53.9307
53.9302
53.9303
53.9309
53.9325
53.9357
53.9385
53.9406
53.9422
53.9433
53.9443
53.9446
53.9434
53.9395
53.932
53.925
53.9187
53.9135
53.9098
53.9076
53.9068
53.9068
53.9076
53.9083
53.9088
53.909
53.9089
53.9085
53.908
53.9075
53.9069
53.9064
53.9058
53.9053
53.9047
53.9043
53.9038
53.9033
53.9029
53.9026
53.9021
53.9018
53.9014
53.9011
53.9008
53.9005
53.9002
53.9
53.8997
53.8995
53.8993
53.8991
53.8989
53.8987
53.8985
53.8984
53.8982
53.8981
53.8979
53.8978
53.8976
53.8975
53.8974
53.8974
53.8972
53.8972
53.8971
53.8971
53.897
53.8969
53.8969
53.8968
53.8968
53.8968
53.8967
53.8967
53.8967
53.8967
53.8967
53.8967
53.8967
53.8967
53.8967
53.8967
53.8967
53.8966
53.8966
53.8967
53.8967
53.8967
53.8966
53.8967
53.8967
53.8969
53.8967
53.8969
53.8967
53.897
53.8966
53.897
53.8967
53.897
53.8967
53.897
53.8968
53.897
53.8968
53.8971
53.8967
53.8971
53.8968
53.8969
54.1753
54.1707
54.1658
54.161
54.1565
54.1522
54.1477
54.1433
54.1389
54.1348
54.1306
54.1265
54.1224
54.1183
54.1144
54.1104
54.1066
54.1026
54.0989
54.0951
54.0913
54.0876
54.084
54.0804
54.0768
54.0732
54.0697
54.0663
54.0629
54.0595
54.0562
54.053
54.0497
54.0465
54.0434
54.0403
54.0372
54.0341
54.0312
54.0282
54.0253
54.0225
54.0196
54.0168
54.0141
54.0114
54.0086
54.006
54.0034
54.0008
53.9983
53.9958
53.9934
53.991
53.9885
53.9863
53.9839
53.9817
53.9794
53.9772
53.975
53.9729
53.9708
53.9688
53.9668
53.9648
53.9628
53.9609
53.9591
53.9573
53.9555
53.9537
53.952
53.9503
53.9486
53.947
53.9454
53.9439
53.9424
53.941
53.9396
53.9383
53.9372
53.9359
53.9345
53.9331
53.9317
53.9303
53.9297
53.9298
53.9303
53.9316
53.9341
53.9362
53.9378
53.939
53.9401
53.9409
53.9411
53.94
53.9367
53.932
53.9277
53.9236
53.9201
53.9172
53.915
53.9133
53.9121
53.9113
53.9107
53.9103
53.9099
53.9094
53.9089
53.9084
53.9078
53.9073
53.9067
53.9061
53.9057
53.9051
53.9046
53.9042
53.9037
53.9033
53.9029
53.9025
53.9021
53.9018
53.9014
53.9011
53.9008
53.9005
53.9002
53.9
53.8997
53.8995
53.8992
53.8991
53.8989
53.8987
53.8985
53.8984
53.8982
53.8981
53.8979
53.8978
53.8976
53.8975
53.8974
53.8974
53.8972
53.8972
53.8971
53.8971
53.897
53.8969
53.8969
53.8968
53.8968
53.8968
53.8967
53.8967
53.8967
53.8967
53.8967
53.8967
53.8967
53.8967
53.8967
53.8967
53.8967
53.8966
53.8966
53.8967
53.8967
53.8967
53.8967
53.8967
53.8967
53.8968
53.8967
53.8969
53.8967
53.8969
53.8967
53.897
53.8966
53.897
53.8967
53.897
53.8968
53.897
53.8967
53.897
53.8968
53.8971
53.897
53.897
54.1775
54.1727
54.168
54.1634
54.1589
54.1544
54.15
54.1458
54.1418
54.1378
54.1337
54.1295
54.1254
54.1214
54.1174
54.1135
54.1096
54.1058
54.1019
54.0981
54.0944
54.0908
54.0871
54.0835
54.0799
54.0764
54.0729
54.0694
54.0661
54.0627
54.0594
54.0561
54.0529
54.0497
54.0466
54.0434
54.0404
54.0373
54.0343
54.0314
54.0285
54.0256
54.0228
54.02
54.0172
54.0145
54.0118
54.0092
54.0065
54.004
54.0015
53.999
53.9965
53.9941
53.9917
53.9893
53.9871
53.9848
53.9825
53.9804
53.9782
53.9761
53.974
53.9719
53.9699
53.9679
53.9659
53.964
53.9621
53.9603
53.9585
53.9567
53.9549
53.9532
53.9515
53.9499
53.9484
53.9468
53.9452
53.9437
53.9423
53.9408
53.9393
53.9379
53.9366
53.9353
53.9341
53.9328
53.9313
53.9297
53.9287
53.9285
53.9288
53.9296
53.9305
53.9314
53.9321
53.9324
53.9322
53.9314
53.9297
53.9277
53.9255
53.9232
53.9209
53.9188
53.917
53.9155
53.9141
53.913
53.912
53.9111
53.9104
53.9097
53.909
53.9084
53.9077
53.9071
53.9066
53.9061
53.9056
53.9051
53.9046
53.9042
53.9037
53.9033
53.9029
53.9025
53.9021
53.9018
53.9014
53.9011
53.9008
53.9005
53.9002
53.9
53.8997
53.8995
53.8992
53.8991
53.8989
53.8987
53.8985
53.8984
53.8982
53.8981
53.8979
53.8978
53.8976
53.8975
53.8974
53.8974
53.8972
53.8972
53.8971
53.8971
53.897
53.8969
53.8969
53.8968
53.8968
53.8968
53.8967
53.8967
53.8967
53.8967
53.8967
53.8967
53.8967
53.8967
53.8967
53.8967
53.8967
53.8966
53.8966
53.8967
53.8967
53.8967
53.8967
53.8967
53.8967
53.8968
53.8968
53.8968
53.8968
53.8968
53.8968
53.8968
53.8969
53.8968
53.897
53.8968
53.897
53.8969
53.8968
53.897
53.8968
53.897
53.8969
53.897
54.1764
54.1707
54.165
54.1595
54.1542
54.1492
54.1443
54.1395
54.1348
54.1303
54.1259
54.1217
54.1175
54.1134
54.1093
54.1054
54.1015
54.0976
54.0937
54.09
54.0862
54.0825
54.0789
54.0752
54.0717
54.0681
54.0646
54.0612
54.0578
54.0544
54.0511
54.0479
54.0446
54.0414
54.0383
54.0352
54.0321
54.0291
54.0261
54.0231
54.0202
54.0174
54.0145
54.0118
54.009
54.0062
54.0036
54.001
53.9984
53.9958
53.9933
53.9908
53.9883
53.9859
53.9836
53.9813
53.979
53.9768
53.9745
53.9724
53.9702
53.9681
53.9661
53.9642
53.9622
53.9603
53.9585
53.9567
53.9549
53.9532
53.9515
53.9498
53.9483
53.9468
53.9453
53.9438
53.9424
53.9411
53.9397
53.9384
53.937
53.9354
53.9341
53.9327
53.9316
53.9309
53.9307
53.9309
53.9313
53.9318
53.9324
53.9328
53.9328
53.9325
53.9323
53.932
53.9314
53.9304
53.9292
53.9278
53.9261
53.9242
53.9222
53.9202
53.9184
53.9168
53.9154
53.9142
53.9132
53.9122
53.9114
53.9106
53.9099
53.9093
53.9086
53.9081
53.9074
53.9069
53.9064
53.9059
53.9054
53.9049
53.9044
53.9041
53.9036
53.9032
53.9028
53.9025
53.9021
53.9018
53.9014
53.9011
53.9008
53.9005
53.9002
53.9
53.8997
53.8995
53.8992
53.8991
53.8989
53.8987
53.8985
53.8984
53.8982
53.8981
53.8979
53.8978
53.8976
53.8975
53.8974
53.8974
53.8972
53.8972
53.8971
53.8971
53.897
53.8969
53.8969
53.8968
53.8968
53.8968
53.8967
53.8967
53.8967
53.8967
53.8967
53.8967
53.8967
53.8967
53.8967
53.8967
53.8967
53.8966
53.8966
53.8967
53.8968
53.8967
53.8968
53.8967
53.8968
53.8967
53.8969
53.8966
53.8969
53.8967
53.8969
53.8967
53.897
53.8967
53.897
53.8967
53.897
53.8967
53.8971
53.8967
53.897
53.8968
53.8971
53.8968
54.1799
54.1756
54.1713
54.167
54.1625
54.1581
54.1537
54.1494
54.1451
54.141
54.1369
54.1328
54.1288
54.1248
54.1208
54.1169
54.113
54.1091
54.1053
54.1016
54.0978
54.0942
54.0905
54.087
54.0835
54.0799
54.0766
54.0731
54.0697
54.0664
54.0631
54.0598
54.0566
54.0534
54.0503
54.0471
54.0441
54.041
54.038
54.0351
54.0322
54.0292
54.0264
54.0237
54.0209
54.0182
54.0155
54.0128
54.0102
54.0076
54.0051
54.0026
54.0002
53.9978
53.9954
53.993
53.9907
53.9884
53.9862
53.984
53.9819
53.9797
53.9777
53.9756
53.9736
53.9716
53.9697
53.9678
53.9659
53.964
53.9622
53.9605
53.9588
53.9571
53.9555
53.9538
53.9522
53.9506
53.9491
53.9476
53.9461
53.9446
53.9432
53.9419
53.9406
53.9392
53.9378
53.9365
53.9352
53.9341
53.9329
53.9318
53.9306
53.9291
53.9271
53.9256
53.9246
53.9242
53.9246
53.9256
53.9269
53.9277
53.9274
53.9257
53.923
53.9205
53.9181
53.9161
53.9145
53.9131
53.912
53.911
53.9102
53.9093
53.9087
53.9081
53.9074
53.9069
53.9064
53.9058
53.9054
53.9049
53.9044
53.904
53.9036
53.9032
53.9029
53.9024
53.9021
53.9018
53.9014
53.9011
53.9008
53.9005
53.9002
53.9
53.8997
53.8995
53.8992
53.8991
53.8989
53.8987
53.8985
53.8984
53.8982
53.8981
53.8979
53.8978
53.8976
53.8975
53.8974
53.8974
53.8972
53.8972
53.8971
53.8971
53.897
53.8969
53.8969
53.8968
53.8968
53.8968
53.8967
53.8967
53.8967
53.8967
53.8967
53.8967
53.8967
53.8967
53.8967
53.8967
53.8967
53.8966
53.8966
53.8967
53.8968
53.8967
53.8968
53.8967
53.8968
53.8967
53.8969
53.8966
53.8969
53.8967
53.8969
53.8967
53.897
53.8967
53.897
53.8967
53.897
53.8967
53.8971
53.8968
53.8971
53.8969
53.8969
53.8969
54.1809
54.1752
54.1692
54.1634
54.1576
54.152
54.1465
54.1412
54.1361
54.1312
54.1266
54.1221
54.1178
54.1137
54.1096
54.1056
54.1017
54.0978
54.094
54.0902
54.0865
54.0828
54.0792
54.0755
54.072
54.0684
54.0649
54.0615
54.0581
54.0547
54.0514
54.0482
54.045
54.0418
54.0387
54.0356
54.0326
54.0296
54.0266
54.0237
54.0208
54.018
54.0152
54.0125
54.0097
54.007
54.0043
54.0017
53.9991
53.9965
53.994
53.9915
53.989
53.9866
53.9842
53.9819
53.9795
53.9772
53.975
53.9728
53.9707
53.9686
53.9665
53.9645
53.9626
53.9606
53.9588
53.9569
53.9552
53.9536
53.9519
53.9503
53.9487
53.9472
53.9458
53.9443
53.9428
53.9413
53.9397
53.9382
53.9368
53.9354
53.9339
53.9324
53.9311
53.9298
53.9288
53.9281
53.9278
53.9279
53.9281