/*--------------------------------*- C++ -*----------------------------------*\
| =========                 |                                                 |
| \\      /  F ield         | OpenFOAM: The Open Source CFD Toolbox           |
|  \\    /   O peration     | Version:  3.0.x                                 |
|   \\  /    A nd           | Web:      www.OpenFOAM.org                      |
|    \\/     M anipulation  |                                                 |
\*---------------------------------------------------------------------------*/
FoamFile
{
    version     2.0;
    format      ascii;
    class       volScalarField;
    location    "0.6";
    object      T;
}
// * * * * * * * * * * * * * * * * * * * * * * * * * * * * * * * * * * * * * //

dimensions      [0 0 0 1 0 0 0];

internalField   nonuniform List<scalar> 
13800
(
788.822
788.791
788.735
788.673
788.609
788.544
788.48
788.417
788.358
788.305
788.258
788.214
788.176
788.145
788.121
788.102
788.087
788.075
788.064
788.057
788.051
788.046
788.041
788.035
788.03
788.023
788.016
788.01
788.002
787.994
787.986
787.977
787.969
787.959
787.95
787.939
787.929
787.918
787.907
787.895
787.883
787.871
787.858
787.845
787.831
787.818
787.803
787.788
787.774
787.758
787.742
787.728
787.711
787.695
787.678
787.661
787.643
787.625
787.606
787.588
787.569
787.549
787.53
787.51
787.491
787.47
787.45
787.429
787.408
787.387
787.365
787.343
787.319
787.297
787.274
787.251
787.228
787.205
787.182
787.158
787.134
787.11
787.085
787.061
787.036
787.011
786.985
786.959
786.935
786.909
786.883
786.858
786.831
786.805
786.779
786.753
786.726
786.699
786.673
786.646
786.619
786.592
786.565
786.538
786.511
786.483
786.456
786.428
786.401
786.373
786.346
786.318
786.29
786.261
786.234
786.206
786.178
786.149
786.122
786.094
786.065
786.038
786.01
785.981
785.953
785.925
785.897
785.869
785.841
785.813
785.785
785.757
785.729
785.702
785.674
785.646
785.618
785.591
785.563
785.536
785.509
785.482
785.455
785.428
785.401
785.374
785.347
785.321
785.294
785.268
785.241
785.216
785.189
785.164
785.138
785.113
785.087
785.062
785.037
785.012
784.988
784.963
784.939
784.914
784.89
784.867
784.843
784.819
784.795
784.773
784.749
784.726
784.704
784.681
784.658
784.637
784.615
784.593
784.572
784.55
784.528
784.509
784.486
784.468
784.444
784.427
784.403
784.388
784.363
784.349
784.324
784.311
784.286
784.273
784.249
784.235
784.214
784.194
784.186
784.161
788.812
788.782
788.725
788.664
788.599
788.535
788.471
788.408
788.349
788.296
788.249
788.205
788.167
788.136
788.112
788.093
788.078
788.066
788.056
788.048
788.042
788.037
788.032
788.026
788.021
788.014
788.008
788.001
787.994
787.986
787.978
787.969
787.96
787.951
787.941
787.931
787.921
787.91
787.899
787.888
787.875
787.863
787.85
787.837
787.824
787.81
787.796
787.781
787.766
787.751
787.735
787.72
787.704
787.688
787.671
787.653
787.636
787.617
787.599
787.581
787.562
787.543
787.523
787.503
787.484
787.464
787.443
787.423
787.402
787.38
787.358
787.336
787.313
787.29
787.268
787.245
787.222
787.198
787.175
787.152
787.129
787.104
787.079
787.055
787.03
787.005
786.979
786.954
786.929
786.903
786.877
786.852
786.826
786.8
786.773
786.747
786.721
786.694
786.668
786.641
786.614
786.587
786.56
786.532
786.506
786.478
786.451
786.423
786.395
786.367
786.34
786.313
786.285
786.256
786.228
786.2
786.172
786.144
786.116
786.088
786.06
786.032
786.004
785.976
785.947
785.92
785.891
785.863
785.835
785.808
785.78
785.751
785.724
785.696
785.669
785.641
785.613
785.586
785.558
785.531
785.503
785.476
785.449
785.422
785.396
785.368
785.342
785.316
785.289
785.262
785.236
785.21
785.184
785.158
785.133
785.108
785.082
785.057
785.032
785.007
784.983
784.958
784.934
784.909
784.885
784.861
784.838
784.814
784.79
784.767
784.743
784.72
784.699
784.676
784.653
784.632
784.61
784.588
784.566
784.545
784.523
784.503
784.481
784.463
784.439
784.422
784.398
784.383
784.358
784.344
784.319
784.306
784.281
784.268
784.244
784.231
784.207
784.195
784.173
784.161
788.812
788.782
788.725
788.664
788.599
788.535
788.471
788.408
788.349
788.296
788.249
788.205
788.167
788.136
788.112
788.093
788.078
788.066
788.056
788.048
788.042
788.037
788.032
788.026
788.021
788.014
788.008
788.001
787.994
787.986
787.978
787.969
787.96
787.951
787.941
787.931
787.921
787.91
787.899
787.887
787.875
787.863
787.85
787.837
787.824
787.81
787.796
787.781
787.766
787.751
787.735
787.72
787.704
787.688
787.671
787.654
787.636
787.618
787.599
787.581
787.562
787.543
787.523
787.503
787.484
787.464
787.443
787.423
787.402
787.38
787.358
787.336
787.313
787.29
787.268
787.245
787.222
787.198
787.175
787.152
787.129
787.104
787.079
787.055
787.03
787.005
786.979
786.954
786.929
786.903
786.877
786.852
786.826
786.8
786.773
786.747
786.721
786.694
786.668
786.641
786.614
786.587
786.56
786.532
786.506
786.478
786.451
786.423
786.395
786.367
786.34
786.313
786.285
786.256
786.228
786.2
786.172
786.144
786.116
786.088
786.06
786.032
786.004
785.976
785.947
785.92
785.891
785.863
785.835
785.808
785.78
785.751
785.724
785.696
785.669
785.641
785.613
785.586
785.558
785.531
785.503
785.476
785.449
785.422
785.396
785.368
785.342
785.316
785.289
785.262
785.236
785.21
785.184
785.158
785.133
785.108
785.082
785.057
785.032
785.007
784.983
784.958
784.934
784.909
784.885
784.861
784.838
784.814
784.79
784.767
784.743
784.72
784.699
784.676
784.653
784.632
784.61
784.588
784.566
784.545
784.523
784.503
784.481
784.463
784.439
784.422
784.398
784.383
784.358
784.344
784.319
784.306
784.281
784.268
784.244
784.231
784.207
784.195
784.172
784.159
788.812
788.782
788.725
788.664
788.599
788.535
788.471
788.408
788.349
788.296
788.249
788.205
788.167
788.136
788.112
788.093
788.078
788.066
788.056
788.048
788.042
788.037
788.032
788.026
788.021
788.014
788.008
788.001
787.994
787.986
787.978
787.969
787.96
787.951
787.941
787.931
787.921
787.91
787.899
787.888
787.875
787.863
787.85
787.837
787.824
787.81
787.796
787.781
787.766
787.751
787.735
787.72
787.704
787.688
787.671
787.653
787.636
787.617
787.599
787.581
787.562
787.543
787.523
787.503
787.484
787.464
787.443
787.423
787.402
787.38
787.358
787.336
787.313
787.29
787.268
787.245
787.222
787.198
787.175
787.152
787.129
787.104
787.079
787.055
787.03
787.005
786.979
786.954
786.929
786.903
786.877
786.852
786.826
786.8
786.773
786.747
786.721
786.694
786.668
786.641
786.614
786.587
786.56
786.532
786.506
786.478
786.451
786.423
786.395
786.367
786.34
786.313
786.285
786.256
786.228
786.2
786.172
786.144
786.116
786.088
786.06
786.032
786.004
785.976
785.947
785.92
785.891
785.863
785.835
785.808
785.78
785.751
785.724
785.696
785.669
785.641
785.613
785.586
785.558
785.531
785.503
785.476
785.449
785.422
785.396
785.368
785.342
785.316
785.289
785.262
785.236
785.21
785.184
785.158
785.133
785.108
785.082
785.057
785.032
785.007
784.983
784.958
784.934
784.909
784.885
784.861
784.838
784.814
784.79
784.767
784.743
784.72
784.699
784.676
784.653
784.632
784.61
784.588
784.566
784.545
784.523
784.503
784.481
784.463
784.439
784.422
784.398
784.383
784.358
784.344
784.319
784.306
784.281
784.268
784.244
784.231
784.207
784.195
784.173
784.157
788.812
788.782
788.725
788.664
788.599
788.535
788.471
788.408
788.349
788.296
788.249
788.205
788.167
788.136
788.112
788.094
788.079
788.066
788.056
788.048
788.042
788.037
788.032
788.026
788.021
788.014
788.008
788.001
787.994
787.986
787.978
787.969
787.96
787.951
787.941
787.931
787.921
787.91
787.899
787.888
787.875
787.863
787.85
787.837
787.824
787.81
787.796
787.781
787.766
787.751
787.735
787.72
787.704
787.688
787.671
787.653
787.636
787.617
787.599
787.581
787.562
787.543
787.523
787.503
787.484
787.464
787.443
787.423
787.402
787.38
787.358
787.336
787.313
787.29
787.268
787.245
787.222
787.198
787.175
787.152
787.129
787.104
787.079
787.055
787.03
787.005
786.979
786.954
786.929
786.903
786.877
786.852
786.826
786.8
786.773
786.747
786.721
786.694
786.668
786.641
786.614
786.587
786.56
786.532
786.506
786.478
786.451
786.423
786.395
786.367
786.34
786.313
786.285
786.256
786.228
786.2
786.172
786.144
786.116
786.088
786.06
786.032
786.004
785.976
785.947
785.92
785.891
785.863
785.835
785.808
785.78
785.751
785.724
785.696
785.669
785.641
785.613
785.586
785.558
785.531
785.503
785.476
785.449
785.422
785.396
785.368
785.342
785.316
785.289
785.262
785.236
785.21
785.184
785.158
785.133
785.108
785.082
785.057
785.032
785.007
784.983
784.958
784.934
784.909
784.885
784.861
784.838
784.814
784.79
784.767
784.743
784.72
784.699
784.676
784.653
784.632
784.61
784.588
784.566
784.545
784.523
784.503
784.481
784.463
784.439
784.422
784.398
784.383
784.358
784.344
784.319
784.306
784.281
784.268
784.243
784.231
784.208
784.195
784.172
784.159
788.812
788.782
788.725
788.664
788.599
788.535
788.471
788.408
788.349
788.296
788.249
788.205
788.167
788.136
788.112
788.094
788.079
788.066
788.056
788.048
788.042
788.037
788.032
788.026
788.021
788.014
788.008
788.001
787.994
787.986
787.978
787.969
787.96
787.951
787.941
787.931
787.921
787.91
787.899
787.888
787.875
787.863
787.85
787.837
787.824
787.81
787.796
787.781
787.766
787.751
787.735
787.72
787.704
787.688
787.671
787.653
787.636
787.617
787.599
787.581
787.562
787.543
787.523
787.503
787.484
787.464
787.443
787.423
787.402
787.38
787.358
787.336
787.313
787.29
787.268
787.245
787.222
787.198
787.175
787.152
787.129
787.104
787.079
787.055
787.03
787.005
786.979
786.954
786.929
786.903
786.877
786.852
786.826
786.8
786.773
786.747
786.721
786.694
786.668
786.641
786.614
786.587
786.56
786.532
786.506
786.478
786.451
786.423
786.395
786.367
786.34
786.313
786.285
786.256
786.228
786.2
786.172
786.144
786.116
786.088
786.06
786.032
786.004
785.976
785.947
785.92
785.891
785.863
785.835
785.808
785.78
785.751
785.724
785.696
785.669
785.641
785.613
785.586
785.558
785.531
785.503
785.476
785.449
785.422
785.396
785.368
785.342
785.316
785.289
785.262
785.236
785.21
785.184
785.158
785.133
785.108
785.082
785.057
785.032
785.007
784.983
784.958
784.934
784.909
784.885
784.861
784.838
784.814
784.79
784.767
784.743
784.72
784.699
784.676
784.653
784.632
784.61
784.588
784.566
784.545
784.523
784.503
784.482
784.461
784.441
784.42
784.401
784.379
784.363
784.339
784.324
784.302
784.282
784.267
784.245
784.229
784.211
784.191
784.175
784.155
788.812
788.782
788.725
788.664
788.599
788.535
788.471
788.408
788.349
788.296
788.249
788.205
788.167
788.136
788.112
788.093
788.078
788.066
788.056
788.048
788.042
788.037
788.032
788.026
788.021
788.014
788.008
788.001
787.994
787.986
787.978
787.969
787.96
787.951
787.941
787.931
787.921
787.91
787.899
787.888
787.875
787.863
787.85
787.837
787.824
787.81
787.796
787.781
787.766
787.751
787.735
787.72
787.704
787.688
787.671
787.653
787.636
787.617
787.599
787.581
787.562
787.543
787.523
787.503
787.484
787.464
787.443
787.423
787.402
787.38
787.358
787.336
787.313
787.29
787.268
787.245
787.222
787.198
787.175
787.152
787.129
787.104
787.079
787.055
787.03
787.005
786.979
786.954
786.929
786.903
786.877
786.852
786.826
786.8
786.773
786.747
786.721
786.694
786.668
786.641
786.614
786.587
786.56
786.532
786.506
786.478
786.451
786.423
786.395
786.367
786.34
786.313
786.285
786.256
786.228
786.2
786.172
786.144
786.116
786.088
786.06
786.032
786.004
785.976
785.947
785.92
785.891
785.863
785.835
785.808
785.78
785.751
785.724
785.696
785.669
785.641
785.613
785.586
785.558
785.531
785.503
785.476
785.449
785.422
785.396
785.368
785.342
785.316
785.289
785.262
785.236
785.21
785.184
785.158
785.133
785.108
785.082
785.057
785.032
785.007
784.983
784.958
784.934
784.909
784.885
784.861
784.838
784.814
784.79
784.767
784.743
784.72
784.699
784.676
784.653
784.632
784.61
784.588
784.567
784.544
784.524
784.502
784.483
784.46
784.442
784.418
784.403
784.379
784.364
784.339
784.324
784.3
784.287
784.262
784.25
784.226
784.213
784.189
784.176
784.155
788.812
788.782
788.725
788.664
788.599
788.535
788.471
788.408
788.349
788.296
788.249
788.205
788.167
788.136
788.112
788.093
788.078
788.066
788.056
788.048
788.042
788.037
788.032
788.026
788.021
788.014
788.008
788.001
787.994
787.986
787.978
787.969
787.96
787.951
787.941
787.931
787.921
787.91
787.899
787.887
787.875
787.863
787.85
787.837
787.824
787.81
787.796
787.781
787.766
787.751
787.735
787.72
787.704
787.688
787.671
787.654
787.636
787.618
787.599
787.581
787.562
787.543
787.523
787.503
787.484
787.464
787.443
787.423
787.402
787.38
787.358
787.336
787.313
787.29
787.268
787.245
787.222
787.198
787.175
787.152
787.129
787.104
787.079
787.055
787.03
787.005
786.979
786.954
786.929
786.903
786.877
786.852
786.826
786.8
786.773
786.747
786.721
786.694
786.668
786.641
786.614
786.587
786.56
786.532
786.506
786.478
786.451
786.423
786.395
786.367
786.34
786.313
786.285
786.256
786.228
786.2
786.172
786.144
786.116
786.088
786.06
786.032
786.004
785.976
785.947
785.92
785.891
785.863
785.835
785.808
785.78
785.751
785.724
785.696
785.669
785.641
785.613
785.586
785.558
785.531
785.503
785.476
785.449
785.422
785.396
785.368
785.342
785.316
785.289
785.262
785.236
785.21
785.184
785.158
785.133
785.108
785.082
785.057
785.032
785.007
784.983
784.958
784.934
784.909
784.885
784.861
784.838
784.814
784.79
784.767
784.743
784.72
784.699
784.676
784.653
784.632
784.61
784.588
784.567
784.544
784.524
784.502
784.483
784.46
784.442
784.418
784.403
784.378
784.364
784.338
784.325
784.3
784.287
784.262
784.25
784.225
784.213
784.189
784.179
784.158
788.812
788.782
788.725
788.664
788.599
788.535
788.471
788.408
788.349
788.296
788.249
788.205
788.167
788.136
788.112
788.093
788.078
788.066
788.056
788.048
788.042
788.037
788.032
788.026
788.021
788.014
788.008
788.001
787.994
787.986
787.978
787.969
787.96
787.951
787.941
787.931
787.921
787.91
787.899
787.888
787.875
787.863
787.85
787.837
787.824
787.81
787.796
787.781
787.766
787.751
787.735
787.72
787.704
787.688
787.671
787.653
787.636
787.617
787.599
787.581
787.562
787.543
787.523
787.503
787.484
787.464
787.443
787.423
787.402
787.38
787.358
787.336
787.313
787.29
787.268
787.245
787.222
787.198
787.175
787.152
787.129
787.104
787.079
787.055
787.03
787.005
786.979
786.954
786.929
786.903
786.877
786.852
786.826
786.8
786.773
786.747
786.721
786.694
786.668
786.641
786.614
786.587
786.56
786.532
786.506
786.478
786.451
786.423
786.395
786.367
786.34
786.313
786.285
786.256
786.228
786.2
786.172
786.144
786.116
786.088
786.06
786.032
786.004
785.976
785.947
785.92
785.891
785.863
785.835
785.808
785.78
785.751
785.724
785.696
785.669
785.641
785.613
785.586
785.558
785.531
785.503
785.476
785.449
785.422
785.396
785.368
785.342
785.316
785.289
785.262
785.236
785.21
785.184
785.158
785.133
785.108
785.082
785.057
785.032
785.007
784.983
784.958
784.934
784.909
784.885
784.861
784.838
784.814
784.79
784.767
784.743
784.72
784.699
784.676
784.653
784.632
784.61
784.588
784.567
784.544
784.524
784.502
784.483
784.46
784.443
784.418
784.403
784.378
784.364
784.338
784.325
784.3
784.287
784.263
784.25
784.226
784.214
784.189
784.18
784.161
788.822
788.791
788.735
788.673
788.609
788.544
788.48
788.417
788.358
788.305
788.258
788.214
788.176
788.145
788.121
788.102
788.087
788.075
788.064
788.057
788.051
788.046
788.041
788.035
788.03
788.023
788.016
788.01
788.002
787.994
787.986
787.977
787.969
787.959
787.95
787.939
787.929
787.918
787.907
787.895
787.883
787.871
787.858
787.845
787.831
787.818
787.803
787.788
787.774
787.758
787.742
787.728
787.711
787.695
787.678
787.661
787.643
787.625
787.606
787.588
787.569
787.549
787.53
787.51
787.491
787.47
787.45
787.429
787.408
787.387
787.365
787.343
787.319
787.297
787.274
787.251
787.228
787.205
787.182
787.158
787.134
787.11
787.085
787.061
787.036
787.011
786.985
786.959
786.935
786.909
786.883
786.858
786.831
786.805
786.779
786.753
786.726
786.699
786.673
786.646
786.619
786.592
786.565
786.538
786.511
786.483
786.456
786.428
786.401
786.373
786.346
786.318
786.29
786.261
786.234
786.206
786.178
786.149
786.122
786.094
786.065
786.038
786.01
785.981
785.953
785.925
785.897
785.869
785.841
785.813
785.785
785.757
785.729
785.702
785.674
785.646
785.618
785.591
785.563
785.536
785.509
785.482
785.455
785.428
785.401
785.374
785.347
785.321
785.294
785.268
785.241
785.216
785.189
785.164
785.138
785.113
785.087
785.062
785.037
785.012
784.988
784.963
784.939
784.914
784.89
784.867
784.843
784.819
784.795
784.773
784.749
784.726
784.704
784.681
784.658
784.637
784.615
784.593
784.572
784.55
784.53
784.507
784.488
784.465
784.448
784.423
784.408
784.383
784.369
784.343
784.33
784.305
784.292
784.267
784.255
784.231
784.219
784.193
784.188
784.168
784.148
784.148
784.148
784.149
784.152
784.156
784.161
784.164
784.164
784.163
784.161
784.159
784.156
784.154
784.151
784.149
784.146
784.144
784.141
784.137
784.153
784.151
784.149
784.147
784.147
784.147
784.148
784.149
784.149
784.15
784.15
784.149
784.148
784.146
784.143
784.14
784.136
784.133
784.129
784.126
784.155
784.152
784.151
784.15
784.148
784.147
784.146
784.145
784.146
784.146
784.146
784.146
784.146
784.144
784.142
784.138
784.135
784.132
784.127
784.124
784.15
784.148
784.146
784.144
784.142
784.139
784.138
784.136
784.135
784.133
784.133
784.132
784.133
784.133
784.134
784.134
784.133
784.131
784.129
784.127
784.151
784.147
784.145
784.141
784.138
784.134
784.131
784.127
784.125
784.123
784.119
784.116
784.113
784.11
784.107
784.105
784.102
784.1
784.097
784.094
784.146
784.142
784.14
784.137
784.134
784.131
784.128
784.125
784.122
784.12
784.118
784.115
784.113
784.112
784.111
784.111
784.112
784.113
784.114
784.112
784.143
784.14
784.137
784.133
784.131
784.127
784.124
784.119
784.115
784.111
784.108
784.104
784.1
784.096
784.092
784.087
784.082
784.077
784.071
784.065
784.143
784.139
784.135
784.132
784.129
784.126
784.123
784.12
784.117
784.113
784.109
784.106
784.102
784.097
784.091
784.084
784.076
784.067
784.056
784.047
784.146
784.142
784.139
784.135
784.131
784.127
784.123
784.119
784.115
784.11
784.105
784.099
784.093
784.086
784.079
784.071
784.063
784.054
784.045
784.042
784.152
784.147
784.142
784.138
784.134
784.13
784.125
784.12
784.114
784.108
784.102
784.096
784.089
784.082
784.075
784.068
784.06
784.051
784.043
784.044
784.127
784.116
784.101
784.084
784.066
784.051
784.037
784.021
784.004
783.989
783.976
783.963
783.951
783.938
783.926
783.914
783.901
783.89
783.878
783.867
783.856
783.845
783.835
783.825
783.816
783.805
783.795
783.785
783.775
783.765
783.755
783.746
783.736
783.726
783.718
783.709
783.7
783.692
783.683
783.674
783.666
783.658
783.649
783.642
783.633
783.625
783.618
783.609
783.602
783.595
783.588
783.58
783.573
783.565
783.559
783.552
783.546
783.538
783.532
783.526
783.52
783.513
783.508
783.502
783.495
783.49
783.485
783.479
783.473
783.468
783.463
783.458
783.453
783.448
783.443
783.437
783.434
783.429
783.425
783.42
783.414
783.408
783.4
783.394
783.389
783.387
783.384
783.377
783.361
783.343
783.33
783.332
783.381
783.603
784.225
784.971
785.657
786.24
786.684
786.973
787.108
787.139
787.116
786.917
786.174
785.202
784.408
783.827
783.447
783.228
783.115
783.064
783.058
783.096
783.167
783.213
783.244
783.262
783.272
783.278
783.281
783.283
783.283
783.283
783.282
783.282
783.28
783.28
783.279
783.278
783.278
783.277
783.276
783.275
783.274
783.273
783.273
783.272
783.272
783.271
783.27
783.269
783.269
783.269
783.269
783.268
783.267
783.266
783.268
783.266
783.266
783.266
783.266
783.265
783.266
783.266
783.265
783.265
783.265
783.264
783.264
783.264
783.264
783.264
783.264
783.264
783.264
783.265
783.264
783.264
783.264
783.264
783.264
783.264
783.264
783.264
783.264
783.263
783.265
783.264
783.265
783.263
783.267
783.263
783.267
783.262
783.267
783.262
783.267
783.261
783.268
783.262
783.267
783.262
783.268
783.262
783.267
783.261
783.27
783.267
784.115
784.1
784.09
784.075
784.056
784.04
784.025
784.01
783.994
783.977
783.963
783.949
783.937
783.925
783.912
783.899
783.887
783.875
783.864
783.852
783.841
783.83
783.82
783.809
783.799
783.789
783.778
783.769
783.759
783.75
783.74
783.73
783.72
783.711
783.702
783.693
783.684
783.676
783.667
783.658
783.65
783.642
783.633
783.625
783.617
783.608
783.602
783.593
783.586
783.578
783.572
783.565
783.557
783.55
783.543
783.536
783.529
783.522
783.515
783.509
783.504
783.497
783.492
783.486
783.48
783.474
783.468
783.463
783.458
783.452
783.446
783.441
783.436
783.432
783.428
783.422
783.417
783.413
783.408
783.404
783.399
783.394
783.388
783.383
783.38
783.378
783.376
783.37
783.362
783.349
783.334
783.318
783.298
783.27
783.238
783.207
783.183
783.179
783.208
783.307
783.427
783.548
783.655
783.729
783.754
783.755
783.735
783.644
783.506
783.403
783.33
783.278
783.245
783.235
783.241
783.256
783.266
783.273
783.275
783.278
783.279
783.279
783.279
783.278
783.277
783.277
783.276
783.275
783.275
783.274
783.273
783.272
783.271
783.27
783.27
783.269
783.269
783.267
783.267
783.266
783.266
783.265
783.265
783.264
783.264
783.264
783.263
783.262
783.263
783.262
783.262
783.261
783.262
783.261
783.261
783.261
783.261
783.261
783.26
783.26
783.26
783.26
783.26
783.26
783.259
783.26
783.259
783.26
783.259
783.259
783.259
783.26
783.259
783.26
783.26
783.26
783.26
783.259
783.261
783.26
783.261
783.258
783.262
783.258
783.262
783.257
783.263
783.258
783.262
783.258
783.263
783.258
783.263
783.258
783.262
783.258
783.263
783.257
783.263
783.263
784.114
784.1
784.089
784.073
784.056
784.041
784.026
784.012
783.996
783.98
783.966
783.952
783.94
783.927
783.914
783.902
783.889
783.878
783.866
783.855
783.844
783.833
783.822
783.812
783.802
783.792
783.781
783.772
783.762
783.753
783.743
783.733
783.724
783.714
783.705
783.696
783.687
783.679
783.67
783.662
783.653
783.644
783.635
783.628
783.62
783.612
783.604
783.597
783.589
783.581
783.574
783.566
783.56
783.552
783.545
783.538
783.531
783.525
783.519
783.512
783.506
783.499
783.494
783.488
783.482
783.477
783.471
783.465
783.46
783.455
783.449
783.444
783.44
783.434
783.43
783.424
783.42
783.416
783.411
783.407
783.402
783.398
783.393
783.387
783.381
783.377
783.377
783.378
783.379
783.366
783.344
783.316
783.273
783.209
783.149
783.1
783.061
783.027
782.996
782.976
782.977
783.018
783.111
783.199
783.275
783.336
783.376
783.395
783.393
783.381
783.357
783.335
783.316
783.302
783.293
783.288
783.285
783.283
783.282
783.281
783.28
783.28
783.28
783.278
783.278
783.277
783.276
783.275
783.275
783.274
783.273
783.272
783.271
783.27
783.27
783.269
783.269
783.267
783.267
783.266
783.266
783.265
783.265
783.264
783.264
783.263
783.263
783.262
783.263
783.262
783.262
783.261
783.262
783.261
783.261
783.261
783.261
783.261
783.26
783.26
783.26
783.26
783.26
783.26
783.259
783.26
783.259
783.26
783.259
783.259
783.259
783.26
783.259
783.26
783.26
783.26
783.26
783.259
783.261
783.26
783.261
783.258
783.262
783.258
783.262
783.257
783.263
783.258
783.262
783.258
783.263
783.258
783.262
783.258
783.262
783.258
783.263
783.257
783.262
783.261
784.116
784.103
784.094
784.084
784.072
784.057
784.045
784.033
784.022
784.009
783.996
783.983
783.972
783.96
783.948
783.936
783.925
783.914
783.902
783.891
783.88
783.87
783.859
783.849
783.839
783.829
783.819
783.809
783.799
783.789
783.779
783.769
783.76
783.751
783.742
783.733
783.724
783.715
783.706
783.698
783.689
783.681
783.674
783.665
783.657
783.648
783.641
783.634
783.626
783.618
783.611
783.604
783.596
783.589
783.582
783.575
783.569
783.561
783.555
783.549
783.543
783.537
783.531
783.525
783.519
783.513
783.508
783.502
783.497
783.491
783.485
783.481
783.475
783.471
783.465
783.461
783.455
783.45
783.445
783.44
783.434
783.428
783.42
783.415
783.411
783.409
783.408
783.405
783.394
783.372
783.343
783.305
783.25
783.2
783.159
783.125
783.092
783.063
783.043
783.042
783.074
783.126
783.174
783.219
783.255
783.283
783.301
783.312
783.316
783.315
783.311
783.306
783.3
783.296
783.293
783.29
783.288
783.286
783.285
783.284
783.283
783.282
783.282
783.28
783.28
783.278
783.277
783.276
783.275
783.274
783.274
783.272
783.272
783.271
783.27
783.269
783.269
783.268
783.267
783.266
783.266
783.265
783.265
783.264
783.264
783.263
783.263
783.262
783.263
783.262
783.262
783.261
783.262
783.261
783.261
783.261
783.261
783.261
783.26
783.26
783.26
783.26
783.26
783.26
783.259
783.26
783.259
783.26
783.259
783.259
783.259
783.26
783.259
783.26
783.26
783.26
783.26
783.259
783.26
783.26
783.261
783.259
783.261
783.258
783.261
783.259
783.262
783.258
783.263
783.258
783.263
783.258
783.262
783.258
783.263
783.258
783.262
783.257
783.26
783.26
784.085
784.074
784.062
784.049
784.036
784.024
784.011
783.996
783.98
783.965
783.951
783.939
783.927
783.915
783.903
783.891
783.88
783.868
783.858
783.847
783.835
783.824
783.814
783.804
783.793
783.783
783.773
783.763
783.752
783.743
783.733
783.723
783.714
783.705
783.696
783.687
783.678
783.669
783.66
783.651
783.643
783.634
783.626
783.619
783.611
783.603
783.595
783.587
783.58
783.572
783.565
783.557
783.55
783.543
783.537
783.53
783.523
783.516
783.51
783.503
783.497
783.491
783.485
783.479
783.473
783.468
783.462
783.457
783.452
783.446
783.441
783.436
783.432
783.427
783.423
783.417
783.412
783.408
783.404
783.4
783.395
783.391
783.389
783.385
783.381
783.377
783.373
783.37
783.371
783.372
783.367
783.351
783.327
783.297
783.266
783.235
783.207
783.186
783.171
783.167
783.175
783.189
783.206
783.225
783.243
783.259
783.271
783.28
783.287
783.291
783.292
783.294
783.293
783.292
783.292
783.29
783.289
783.288
783.286
783.285
783.284
783.283
783.282
783.28
783.28
783.278
783.277
783.276
783.275
783.274
783.274
783.272
783.272
783.271
783.27
783.269
783.269
783.268
783.267
783.266
783.266
783.265
783.265
783.264
783.264
783.263
783.263
783.262
783.263
783.262
783.262
783.261
783.262
783.261
783.261
783.261
783.261
783.261
783.26
783.26
783.26
783.26
783.26
783.26
783.259
783.26
783.259
783.26
783.259
783.259
783.259
783.26
783.259
783.26
783.26
783.26
783.26
783.259
783.26
783.261
783.26
783.26
783.259
783.26
783.26
783.26
783.261
783.26
783.26
783.261
783.259
783.262
783.259
783.26
783.261
783.259
783.262
783.26
783.261
783.259
784.103
784.104
784.105
784.106
784.104
784.099
784.094
784.088
784.082
784.073
784.063
784.053
784.043
784.031
784.021
784.009
783.998
783.987
783.976
783.965
783.955
783.944
783.933
783.923
783.913
783.902
783.893
783.883
783.872
783.863
783.853
783.844
783.834
783.825
783.816
783.807
783.798
783.789
783.78
783.772
783.763
783.755
783.747
783.738
783.73
783.723
783.714
783.706
783.698
783.691
783.684
783.677
783.669
783.662
783.655
783.647
783.64
783.633
783.626
783.62
783.613
783.606
783.599
783.592
783.585
783.578
783.571
783.564
783.557
783.55
783.544
783.536
783.529
783.521
783.514
783.507
783.499
783.491
783.484
783.478
783.473
783.47
783.466
783.461
783.455
783.442
783.422
783.398
783.371
783.342
783.313
783.288
783.269
783.255
783.239
783.226
783.218
783.215
783.216
783.22
783.228
783.24
783.253
783.268
783.279
783.288
783.295
783.299
783.3
783.302
783.301
783.301
783.3
783.298
783.297
783.295
783.294
783.292
783.29
783.288
783.286
783.285
783.284
783.281
783.281
783.279
783.277
783.276
783.275
783.274
783.274
783.272
783.272
783.271
783.27
783.269
783.269
783.268
783.267
783.266
783.266
783.265
783.265
783.264
783.264
783.263
783.263
783.262
783.263
783.262
783.262
783.261
783.262
783.261
783.261
783.261
783.261
783.261
783.26
783.26
783.26
783.26
783.26
783.26
783.259
783.26
783.259
783.26
783.259
783.259
783.259
783.26
783.259
783.26
783.26
783.26
783.259
783.26
783.259
783.26
783.259
783.261
783.258
783.262
783.258
783.262
783.258
783.262
783.258
783.262
783.258
783.263
783.259
783.263
783.258
783.263
783.259
783.262
783.258
783.262
784.052
784.031
784.013
783.996
783.983
783.969
783.957
783.943
783.93
783.917
783.903
783.891
783.878
783.865
783.854
783.843
783.831
783.82
783.809
783.797
783.786
783.775
783.764
783.753
783.741
783.731
783.719
783.71
783.699
783.69
783.68
783.67
783.661
783.651
783.641
783.633
783.624
783.615
783.607
783.598
783.59
783.582
783.574
783.565
783.557
783.549
783.542
783.534
783.526
783.519
783.512
783.505
783.497
783.49
783.483
783.477
783.47
783.463
783.457
783.45
783.444
783.438
783.431
783.426
783.419
783.414
783.409
783.403
783.398
783.393
783.388
783.382
783.376
783.371
783.366
783.362
783.358
783.353
783.348
783.344
783.34
783.337
783.333
783.328
783.324
783.321
783.319
783.317
783.313
783.31
783.306
783.303
783.302
783.305
783.315
783.319
783.316
783.305
783.282
783.251
783.217
783.19
783.179
783.188
783.212
783.235
783.255
783.271
783.282
783.289
783.293
783.296
783.296
783.297
783.296
783.295
783.294
783.292
783.289
783.289
783.286
783.285
783.284
783.282
783.281
783.279
783.277
783.277
783.275
783.274
783.274
783.272
783.272
783.271
783.27
783.269
783.269
783.268
783.267
783.266
783.266
783.265
783.265
783.264
783.264
783.263
783.263
783.262
783.263
783.262
783.262
783.261
783.262
783.261
783.261
783.261
783.261
783.261
783.26
783.26
783.26
783.26
783.26
783.26
783.259
783.26
783.259
783.26
783.259
783.259
783.259
783.26
783.259
783.26
783.26
783.26
783.259
783.26
783.259
783.26
783.259
783.261
783.258
783.262
783.258
783.262
783.258
783.262
783.258
783.262
783.258
783.263
783.259
783.263
783.258
783.262
783.258
783.261
783.261
783.261
784.037
784.037
784.043
784.048
784.054
784.057
784.06
784.061
784.061
784.058
784.053
784.046
784.037
784.027
784.016
784.005
783.994
783.984
783.973
783.961
783.95
783.939
783.929
783.918
783.908
783.898
783.888
783.878
783.868
783.859
783.849
783.839
783.829
783.819
783.81
783.801
783.791
783.782
783.773
783.764
783.755
783.746
783.737
783.728
783.72
783.712
783.705
783.696
783.688
783.681
783.674
783.666
783.659
783.652
783.645
783.639
783.632
783.626
783.62
783.613
783.607
783.6
783.594
783.587
783.58
783.574
783.567
783.561
783.553
783.545
783.538
783.531
783.523
783.515
783.507
783.5
783.494
783.489
783.485
783.481
783.476
783.472
783.469
783.466
783.463
783.458
783.451
783.439
783.423
783.401
783.376
783.354
783.329
783.306
783.286
783.266
783.249
783.234