/*--------------------------------*- C++ -*----------------------------------*\
| =========                 |                                                 |
| \\      /  F ield         | OpenFOAM: The Open Source CFD Toolbox           |
|  \\    /   O peration     | Version:  3.0.x                                 |
|   \\  /    A nd           | Web:      www.OpenFOAM.org                      |
|    \\/     M anipulation  |                                                 |
\*---------------------------------------------------------------------------*/
FoamFile
{
    version     2.0;
    format      ascii;
    class       volVectorField;
    location    "0.6";
    object      U;
}
// * * * * * * * * * * * * * * * * * * * * * * * * * * * * * * * * * * * * * //

dimensions      [0 1 -1 0 0 0 0];

internalField   nonuniform List<vector> 
13800
(
(42.5876 0.00013046 0)
(42.3084 0.000115045 0)
(41.9761 0.000115636 0)
(41.6622 0.000119247 0)
(41.3672 0.000122664 0)
(41.0765 0.00012585 0)
(40.7836 0.000128772 0)
(40.4892 0.000131399 0)
(40.195 0.00013375 0)
(39.9013 0.000135829 0)
(39.6081 0.000137669 0)
(39.3152 0.000139263 0)
(39.0226 0.000140605 0)
(38.7307 0.000141746 0)
(38.4391 0.000142669 0)
(38.148 0.000143392 0)
(37.8574 0.000143978 0)
(37.5672 0.000144432 0)
(37.2775 0.00014476 0)
(36.9883 0.000144992 0)
(36.6997 0.000145201 0)
(36.4116 0.000145351 0)
(36.1241 0.000145491 0)
(35.8371 0.000145626 0)
(35.5508 0.000145722 0)
(35.265 0.000145817 0)
(34.9799 0.000145811 0)
(34.6955 0.000145833 0)
(34.4117 0.000145737 0)
(34.1286 0.00014567 0)
(33.8461 0.000145513 0)
(33.5644 0.000145422 0)
(33.2834 0.000145274 0)
(33.0031 0.000145236 0)
(32.7236 0.000145127 0)
(32.4448 0.000145209 0)
(32.1668 0.000145081 0)
(31.8896 0.000145096 0)
(31.6132 0.000145064 0)
(31.3376 0.000145064 0)
(31.0628 0.000144925 0)
(30.7889 0.000144832 0)
(30.5158 0.000144714 0)
(30.2436 0.000144644 0)
(29.9723 0.000144566 0)
(29.7018 0.000144411 0)
(29.4323 0.000144431 0)
(29.1637 0.000144323 0)
(28.8961 0.0001443 0)
(28.6293 0.000144361 0)
(28.3636 0.000144238 0)
(28.0988 0.00014413 0)
(27.835 0.00014412 0)
(27.5722 0.000144005 0)
(27.3104 0.000143894 0)
(27.0497 0.000143737 0)
(26.79 0.000143756 0)
(26.5313 0.000143534 0)
(26.2737 0.0001436 0)
(26.0172 0.000143412 0)
(25.7618 0.000143412 0)
(25.5075 0.000143303 0)
(25.2543 0.000143149 0)
(25.0022 0.00014303 0)
(24.7513 0.000142902 0)
(24.5015 0.000142792 0)
(24.2529 0.000142597 0)
(24.0054 0.000142586 0)
(23.7592 0.00014238 0)
(23.5141 0.000142259 0)
(23.2703 0.000142095 0)
(23.0277 0.000141819 0)
(22.7863 0.000141422 0)
(22.5462 0.000140944 0)
(22.3073 0.000140417 0)
(22.0698 0.000139679 0)
(21.8335 0.000138679 0)
(21.5986 0.000137495 0)
(21.3649 0.000136158 0)
(21.1327 0.000134533 0)
(20.9017 0.000132525 0)
(20.6722 0.000130134 0)
(20.4441 0.000127334 0)
(20.2174 0.000124136 0)
(19.9922 0.000120488 0)
(19.7684 0.000116378 0)
(19.5462 0.000111822 0)
(19.3254 0.000106825 0)
(19.1062 0.000101434 0)
(18.8885 9.56541e-05 0)
(18.6724 8.95199e-05 0)
(18.4579 8.3133e-05 0)
(18.245 7.65047e-05 0)
(18.0337 6.9726e-05 0)
(17.8241 6.28018e-05 0)
(17.616 5.59674e-05 0)
(17.4096 4.91662e-05 0)
(17.2049 4.25788e-05 0)
(17.0017 3.63952e-05 0)
(16.8002 3.03166e-05 0)
(16.6003 2.47832e-05 0)
(16.4021 1.95264e-05 0)
(16.2054 1.46498e-05 0)
(16.0104 9.8797e-06 0)
(15.8169 6.16433e-06 0)
(15.6251 1.89852e-06 0)
(15.4347 -8.32847e-07 0)
(15.246 -3.35495e-06 0)
(15.0588 -5.34206e-06 0)
(14.8732 -7.43274e-06 0)
(14.6891 -8.95248e-06 0)
(14.5065 -1.00991e-05 0)
(14.3255 -1.15864e-05 0)
(14.146 -1.23706e-05 0)
(13.968 -1.33941e-05 0)
(13.7915 -1.37689e-05 0)
(13.6165 -1.43405e-05 0)
(13.443 -1.45226e-05 0)
(13.271 -1.49184e-05 0)
(13.1005 -1.47465e-05 0)
(12.9315 -1.48312e-05 0)
(12.764 -1.50986e-05 0)
(12.5979 -1.51448e-05 0)
(12.4334 -1.5106e-05 0)
(12.2703 -1.51108e-05 0)
(12.1086 -1.50317e-05 0)
(11.9484 -1.4888e-05 0)
(11.7896 -1.47626e-05 0)
(11.6323 -1.46979e-05 0)
(11.4765 -1.47496e-05 0)
(11.322 -1.47788e-05 0)
(11.169 -1.49933e-05 0)
(11.0174 -1.49338e-05 0)
(10.8672 -1.52629e-05 0)
(10.7184 -1.4975e-05 0)
(10.5711 -1.50998e-05 0)
(10.4251 -1.50808e-05 0)
(10.2804 -1.486e-05 0)
(10.1372 -1.47469e-05 0)
(9.99525 -1.47192e-05 0)
(9.85469 -1.46679e-05 0)
(9.71547 -1.45876e-05 0)
(9.57758 -1.45105e-05 0)
(9.44102 -1.45035e-05 0)
(9.30576 -1.45287e-05 0)
(9.17182 -1.46455e-05 0)
(9.03917 -1.47021e-05 0)
(8.90781 -1.46908e-05 0)
(8.77773 -1.46457e-05 0)
(8.64891 -1.46091e-05 0)
(8.52135 -1.45575e-05 0)
(8.39504 -1.43552e-05 0)
(8.26997 -1.40187e-05 0)
(8.14612 -1.36926e-05 0)
(8.02348 -1.34919e-05 0)
(7.90205 -1.35475e-05 0)
(7.78184 -1.38022e-05 0)
(7.66283 -1.4046e-05 0)
(7.54501 -1.40738e-05 0)
(7.42838 -1.39916e-05 0)
(7.31292 -1.38339e-05 0)
(7.19862 -1.37758e-05 0)
(7.08549 -1.37934e-05 0)
(6.97351 -1.38321e-05 0)
(6.86268 -1.39353e-05 0)
(6.753 -1.38118e-05 0)
(6.64444 -1.36292e-05 0)
(6.53701 -1.3601e-05 0)
(6.43071 -1.36154e-05 0)
(6.32551 -1.34585e-05 0)
(6.22143 -1.32733e-05 0)
(6.11845 -1.33265e-05 0)
(6.01657 -1.33475e-05 0)
(5.91578 -1.35508e-05 0)
(5.81608 -1.35429e-05 0)
(5.71745 -1.34586e-05 0)
(5.61989 -1.30451e-05 0)
(5.5234 -1.28952e-05 0)
(5.42796 -1.25999e-05 0)
(5.33359 -1.28071e-05 0)
(5.2403 -1.27775e-05 0)
(5.14807 -1.28257e-05 0)
(5.0569 -1.24068e-05 0)
(4.96679 -1.24877e-05 0)
(4.87775 -1.24867e-05 0)
(4.78977 -1.31091e-05 0)
(4.70285 -1.26328e-05 0)
(4.61696 -1.31209e-05 0)
(4.53212 -1.24355e-05 0)
(4.44828 -1.32627e-05 0)
(4.36548 -1.18628e-05 0)
(4.28364 -1.27048e-05 0)
(4.20283 -1.1667e-05 0)
(4.12293 -1.07763e-05 0)
(4.04385 -1.98087e-06 0)
(3.96477 3.36927e-05 0)
(3.88409 0.000210982 0)
(3.77685 0.000568495 0)
(3.67503 0.00730744 0)
(2.88355 0.0183316 0)
(42.5911 0.000204624 0)
(42.3156 0.000151945 0)
(41.987 0.000143417 0)
(41.6768 0.000143677 0)
(41.3857 0.000144219 0)
(41.0988 0.000145172 0)
(40.8098 0.000146386 0)
(40.5195 0.000147648 0)
(40.2292 0.000148892 0)
(39.9396 0.000150062 0)
(39.6506 0.000151167 0)
(39.3618 0.000152153 0)
(39.0734 0.00015297 0)
(38.7857 0.00015368 0)
(38.4984 0.000154226 0)
(38.2116 0.000154617 0)
(37.9252 0.000154938 0)
(37.6393 0.000155167 0)
(37.3539 0.000155299 0)
(37.069 0.000155353 0)
(36.7847 0.000155431 0)
(36.5009 0.000155408 0)
(36.2176 0.000155387 0)
(35.935 0.000155343 0)
(35.653 0.000155253 0)
(35.3716 0.000155202 0)
(35.0908 0.000155036 0)
(34.8106 0.000155034 0)
(34.5311 0.000154903 0)
(34.2523 0.000154915 0)
(33.9742 0.000154808 0)
(33.6968 0.000154799 0)
(33.42 0.00015464 0)
(33.1441 0.000154636 0)
(32.8688 0.000154418 0)
(32.5943 0.000154497 0)
(32.3206 0.000154179 0)
(32.0477 0.000154174 0)
(31.7756 0.000154088 0)
(31.5042 0.000154104 0)
(31.2337 0.000153949 0)
(30.9641 0.000153959 0)
(30.6953 0.000153945 0)
(30.4274 0.000153998 0)
(30.1603 0.000153982 0)
(29.8941 0.000153766 0)
(29.6289 0.000153804 0)
(29.3646 0.000153548 0)
(29.1012 0.00015345 0)
(28.8387 0.000153522 0)
(28.5772 0.000153313 0)
(28.3167 0.000153215 0)
(28.0572 0.000153315 0)
(27.7986 0.000153208 0)
(27.5411 0.000153084 0)
(27.2846 0.000152839 0)
(27.0291 0.00015286 0)
(26.7747 0.00015244 0)
(26.5214 0.00015255 0)
(26.2691 0.000152237 0)
(26.0179 0.000152293 0)
(25.7678 0.000152167 0)
(25.5189 0.000151995 0)
(25.271 0.000151864 0)
(25.0243 0.000151717 0)
(24.7787 0.000151596 0)
(24.5344 0.000151282 0)
(24.2911 0.000151314 0)
(24.0491 0.00015101 0)
(23.8083 0.000150887 0)
(23.5686 0.000150702 0)
(23.3302 0.000150396 0)
(23.093 0.000149985 0)
(22.8571 0.000149511 0)
(22.6224 0.000149003 0)
(22.389 0.000148171 0)
(22.1568 0.000146966 0)
(21.9259 0.00014555 0)
(21.6964 0.000143973 0)
(21.4681 0.000142 0)
(21.2411 0.000139503 0)
(21.0155 0.000136551 0)
(20.7912 0.000133164 0)
(20.5683 0.000129426 0)
(20.3467 0.000125273 0)
(20.1264 0.000120685 0)
(19.9075 0.000115667 0)
(19.69 0.000110183 0)
(19.4739 0.000104271 0)
(19.2592 9.78839e-05 0)
(19.0458 9.10527e-05 0)
(18.8339 8.39538e-05 0)
(18.6233 7.6612e-05 0)
(18.4142 6.92119e-05 0)
(18.2065 6.17333e-05 0)
(18.0003 5.45012e-05 0)
(17.7954 4.72816e-05 0)
(17.592 4.02734e-05 0)
(17.3901 3.37105e-05 0)
(17.1896 2.71004e-05 0)
(16.9905 2.12207e-05 0)
(16.7929 1.56724e-05 0)
(16.5968 1.06713e-05 0)
(16.4021 5.88108e-06 0)
(16.2089 2.64314e-06 0)
(16.0172 -7.62171e-07 0)
(15.827 -3.48733e-06 0)
(15.6382 -6.15428e-06 0)
(15.451 -8.10722e-06 0)
(15.2652 -1.02613e-05 0)
(15.0809 -1.16753e-05 0)
(14.8981 -1.26878e-05 0)
(14.7167 -1.43272e-05 0)
(14.5369 -1.50256e-05 0)
(14.3586 -1.61678e-05 0)
(14.1817 -1.64531e-05 0)
(14.0063 -1.71366e-05 0)
(13.8325 -1.73024e-05 0)
(13.6601 -1.78043e-05 0)
(13.4892 -1.75081e-05 0)
(13.3197 -1.76183e-05 0)
(13.1518 -1.79999e-05 0)
(12.9853 -1.80262e-05 0)
(12.8203 -1.79408e-05 0)
(12.6568 -1.79629e-05 0)
(12.4947 -1.78841e-05 0)
(12.3341 -1.77199e-05 0)
(12.1749 -1.75894e-05 0)
(12.0172 -1.75115e-05 0)
(11.8609 -1.75722e-05 0)
(11.7061 -1.75967e-05 0)
(11.5527 -1.7886e-05 0)
(11.4006 -1.77613e-05 0)
(11.25 -1.82154e-05 0)
(11.1008 -1.77909e-05 0)
(10.953 -1.79807e-05 0)
(10.8066 -1.79612e-05 0)
(10.6616 -1.76622e-05 0)
(10.5179 -1.75444e-05 0)
(10.3756 -1.75364e-05 0)
(10.2346 -1.74843e-05 0)
(10.095 -1.73671e-05 0)
(9.9567 -1.72852e-05 0)
(9.81973 -1.72599e-05 0)
(9.68407 -1.732e-05 0)
(9.54972 -1.74161e-05 0)
(9.41666 -1.74913e-05 0)
(9.28489 -1.7461e-05 0)
(9.1544 -1.74198e-05 0)
(9.02518 -1.73737e-05 0)
(8.89721 -1.72947e-05 0)
(8.7705 -1.72062e-05 0)
(8.64502 -1.70385e-05 0)
(8.52079 -1.68243e-05 0)
(8.39778 -1.64379e-05 0)
(8.27598 -1.62143e-05 0)
(8.15538 -1.62605e-05 0)
(8.03598 -1.63359e-05 0)
(7.91777 -1.63616e-05 0)
(7.80075 -1.63255e-05 0)
(7.6849 -1.62659e-05 0)
(7.57021 -1.62378e-05 0)
(7.4567 -1.63086e-05 0)
(7.34433 -1.64026e-05 0)
(7.23312 -1.64373e-05 0)
(7.12304 -1.63964e-05 0)
(7.0141 -1.61716e-05 0)
(6.90629 -1.6097e-05 0)
(6.7996 -1.60847e-05 0)
(6.69403 -1.59036e-05 0)
(6.58957 -1.57131e-05 0)
(6.48622 -1.5728e-05 0)
(6.38396 -1.58168e-05 0)
(6.28279 -1.59077e-05 0)
(6.18271 -1.59205e-05 0)
(6.08371 -1.58752e-05 0)
(5.98578 -1.54249e-05 0)
(5.88892 -1.51278e-05 0)
(5.79313 -1.48518e-05 0)
(5.6984 -1.51806e-05 0)
(5.60474 -1.50542e-05 0)
(5.51215 -1.52005e-05 0)
(5.42063 -1.44629e-05 0)
(5.33017 -1.48717e-05 0)
(5.24078 -1.45913e-05 0)
(5.15243 -1.56969e-05 0)
(5.06515 -1.42857e-05 0)
(4.9789 -1.55876e-05 0)
(4.8937 -1.42966e-05 0)
(4.80949 -1.60862e-05 0)
(4.72633 -1.34117e-05 0)
(4.64414 -1.5247e-05 0)
(4.56298 -1.13236e-05 0)
(4.48273 -5.27677e-06 0)
(4.4033 2.72511e-05 0)
(4.32384 0.000160628 0)
(4.24248 0.000759787 0)
(4.13502 0.00252846 0)
(4.01402 0.0174868 0)
(3.303 0.0341183 0)
(42.5911 0.000150401 0)
(42.3156 0.000105995 0)
(41.987 0.000102739 0)
(41.6768 0.000106929 0)
(41.3857 0.000109355 0)
(41.0988 0.000111427 0)
(40.8098 0.000113447 0)
(40.5195 0.0001153 0)
(40.2292 0.000116987 0)
(39.9397 0.000118509 0)
(39.6506 0.000119907 0)
(39.3618 0.000121144 0)
(39.0734 0.000122182 0)
(38.7857 0.000123075 0)
(38.4984 0.000123774 0)
(38.2116 0.000124294 0)
(37.9252 0.000124708 0)
(37.6393 0.000125012 0)
(37.3539 0.000125204 0)
(37.0691 0.00012535 0)
(36.7847 0.000125467 0)
(36.501 0.000125587 0)
(36.2178 0.000125637 0)
(35.9351 0.000125785 0)
(35.6531 0.000125825 0)
(35.3717 0.000125928 0)
(35.0909 0.000125925 0)
(34.8108 0.000125958 0)
(34.5313 0.000125892 0)
(34.2525 0.000125841 0)
(33.9744 0.00012565 0)
(33.697 0.000125641 0)
(33.4203 0.000125485 0)
(33.1443 0.000125498 0)
(32.8691 0.000125438 0)
(32.5946 0.00012566 0)
(32.3209 0.000125492 0)
(32.048 0.000125556 0)
(31.7759 0.000125506 0)
(31.5046 0.000125506 0)
(31.2341 0.000125273 0)
(30.9645 0.000125152 0)
(30.6957 0.000125048 0)
(30.4278 0.00012507 0)
(30.1607 0.000125102 0)
(29.8946 0.00012502 0)
(29.6294 0.000125185 0)
(29.3651 0.000125093 0)
(29.1017 0.000125124 0)
(28.8393 0.000125246 0)
(28.5778 0.00012509 0)
(28.3173 0.000125024 0)
(28.0578 0.000125119 0)
(27.7993 0.000125052 0)
(27.5418 0.000125036 0)
(27.2853 0.000124919 0)
(27.0299 0.000125106 0)
(26.7755 0.000124802 0)
(26.5221 0.000125093 0)
(26.2699 0.000124737 0)
(26.0187 0.000124855 0)
(25.7687 0.000124583 0)
(25.5197 0.000124261 0)
(25.2719 0.000124064 0)
(25.0252 0.000123744 0)
(24.7797 0.00012357 0)
(24.5353 0.000123409 0)
(24.2922 0.00012349 0)
(24.0501 0.000123304 0)
(23.8093 0.00012339 0)
(23.5697 0.000123392 0)
(23.3313 0.000123139 0)
(23.0942 0.000122711 0)
(22.8583 0.000122194 0)
(22.6236 0.000121634 0)
(22.3902 0.000120816 0)
(22.1581 0.000119758 0)
(21.9273 0.000118623 0)
(21.6977 0.000117414 0)
(21.4695 0.00011587 0)
(21.2425 0.000113846 0)
(21.0169 0.000111389 0)
(20.7926 0.000108518 0)
(20.5697 0.000105339 0)
(20.3481 0.000101829 0)
(20.1278 9.79866e-05 0)
(19.9089 9.3813e-05 0)
(19.6914 8.92449e-05 0)
(19.4752 8.42964e-05 0)
(19.2605 7.89048e-05 0)
(19.0471 7.311e-05 0)
(18.8351 6.70792e-05 0)
(18.6246 6.08468e-05 0)
(18.4154 5.45947e-05 0)
(18.2077 4.83345e-05 0)
(18.0014 4.23545e-05 0)
(17.7965 3.64905e-05 0)
(17.5931 3.09066e-05 0)
(17.3911 2.57393e-05 0)
(17.1905 2.0581e-05 0)
(16.9914 1.59865e-05 0)
(16.7938 1.16567e-05 0)
(16.5976 7.76229e-06 0)
(16.4029 4.07281e-06 0)
(16.2097 1.35534e-06 0)
(16.018 -1.5185e-06 0)
(15.8277 -3.75177e-06 0)
(15.6389 -5.79635e-06 0)
(15.4516 -7.29852e-06 0)
(15.2658 -8.89198e-06 0)
(15.0815 -9.94884e-06 0)
(14.8987 -1.06955e-05 0)
(14.7173 -1.18889e-05 0)
(14.5375 -1.24407e-05 0)
(14.3592 -1.32687e-05 0)
(14.1823 -1.35083e-05 0)
(14.0069 -1.40065e-05 0)
(13.8331 -1.41408e-05 0)
(13.6607 -1.44903e-05 0)
(13.4898 -1.42899e-05 0)
(13.3203 -1.43595e-05 0)
(13.1524 -1.46383e-05 0)
(12.9859 -1.46678e-05 0)
(12.8209 -1.45938e-05 0)
(12.6574 -1.46048e-05 0)
(12.4953 -1.45382e-05 0)
(12.3347 -1.43936e-05 0)
(12.1755 -1.42849e-05 0)
(12.0178 -1.42408e-05 0)
(11.8615 -1.42769e-05 0)
(11.7067 -1.4302e-05 0)
(11.5533 -1.45058e-05 0)
(11.4012 -1.44409e-05 0)
(11.2506 -1.47632e-05 0)
(11.1014 -1.44489e-05 0)
(10.9536 -1.45786e-05 0)
(10.8072 -1.45607e-05 0)
(10.6622 -1.43215e-05 0)
(10.5185 -1.42523e-05 0)
(10.3762 -1.42154e-05 0)
(10.2352 -1.41801e-05 0)
(10.0956 -1.40722e-05 0)
(9.95729 -1.40134e-05 0)
(9.82032 -1.39813e-05 0)
(9.68466 -1.40589e-05 0)
(9.55031 -1.41416e-05 0)
(9.41725 -1.41917e-05 0)
(9.28548 -1.41085e-05 0)
(9.15499 -1.41185e-05 0)
(9.02576 -1.40968e-05 0)
(8.8978 -1.40128e-05 0)
(8.77108 -1.39608e-05 0)
(8.64561 -1.38661e-05 0)
(8.52137 -1.37404e-05 0)
(8.39835 -1.33989e-05 0)
(8.27655 -1.32294e-05 0)
(8.15595 -1.31132e-05 0)
(8.03655 -1.31708e-05 0)
(7.91835 -1.32966e-05 0)
(7.80133 -1.32128e-05 0)
(7.68548 -1.31258e-05 0)
(7.5708 -1.31642e-05 0)
(7.45728 -1.3227e-05 0)
(7.34491 -1.33081e-05 0)
(7.2337 -1.33234e-05 0)
(7.12362 -1.33581e-05 0)
(7.01468 -1.30291e-05 0)
(6.90687 -1.30491e-05 0)
(6.80018 -1.3045e-05 0)
(6.69461 -1.30839e-05 0)
(6.59015 -1.28477e-05 0)
(6.4868 -1.27615e-05 0)
(6.38454 -1.27541e-05 0)
(6.28337 -1.28383e-05 0)
(6.18329 -1.30065e-05 0)
(6.08429 -1.28929e-05 0)
(5.98635 -1.24878e-05 0)
(5.8895 -1.24201e-05 0)
(5.7937 -1.20422e-05 0)
(5.69898 -1.24899e-05 0)
(5.60532 -1.21442e-05 0)
(5.51273 -1.26179e-05 0)
(5.42121 -1.12626e-05 0)
(5.33075 -1.26963e-05 0)
(5.24135 -1.12297e-05 0)
(5.15301 -1.39527e-05 0)
(5.06573 -1.04978e-05 0)
(4.97948 -1.44714e-05 0)
(4.89427 -9.97186e-06 0)
(4.81007 -1.47731e-05 0)
(4.7269 -8.52738e-06 0)
(4.64471 -1.33454e-05 0)
(4.56355 -6.03458e-06 0)
(4.48331 3.99007e-06 0)
(4.40391 6.76555e-05 0)
(4.32464 0.000322343 0)
(4.24413 0.00148305 0)
(4.13999 0.00565965 0)
(4.03824 0.042064 0)
(3.38709 0.0912171 0)
(42.5911 0.000109571 0)
(42.3156 9.5703e-05 0)
(41.987 9.52318e-05 0)
(41.6768 0.0001005 0)
(41.3857 0.000104008 0)
(41.0987 0.000106886 0)
(40.8098 0.000109624 0)
(40.5194 0.000112099 0)
(40.2292 0.000114283 0)
(39.9396 0.000116215 0)
(39.6506 0.000117951 0)
(39.3618 0.000119476 0)
(39.0734 0.000120761 0)
(38.7857 0.000121847 0)
(38.4984 0.000122714 0)
(38.2116 0.000123394 0)
(37.9252 0.000123955 0)
(37.6393 0.000124412 0)
(37.3539 0.000124744 0)
(37.0691 0.000125023 0)
(36.7847 0.000125196 0)
(36.5009 0.00012541 0)
(36.2177 0.000125485 0)
(35.9351 0.000125733 0)
(35.6531 0.000125868 0)
(35.3717 0.000126096 0)
(35.0909 0.000126277 0)
(34.8108 0.000126397 0)
(34.5313 0.000126446 0)
(34.2525 0.000126345 0)
(33.9743 0.000126048 0)
(33.6969 0.000125882 0)
(33.4202 0.000125565 0)
(33.1443 0.000125376 0)
(32.869 0.000125281 0)
(32.5946 0.000125455 0)
(32.3209 0.00012542 0)
(32.048 0.00012557 0)
(31.7758 0.000125696 0)
(31.5045 0.000125837 0)
(31.2341 0.000125729 0)
(30.9644 0.000125602 0)
(30.6956 0.000125457 0)
(30.4277 0.000125377 0)
(30.1607 0.000125293 0)
(29.8946 0.000125126 0)
(29.6293 0.000125116 0)
(29.365 0.000124963 0)
(29.1016 0.00012491 0)
(28.8392 0.000124962 0)
(28.5777 0.000124881 0)
(28.3172 0.000124901 0)
(28.0577 0.000125073 0)
(27.7992 0.00012516 0)
(27.5417 0.000125278 0)
(27.2852 0.000125276 0)
(27.0298 0.000125461 0)
(26.7754 0.000125157 0)
(26.5221 0.000125269 0)
(26.2699 0.000124682 0)
(26.0187 0.000124503 0)
(25.7686 0.000123942 0)
(25.5197 0.000123445 0)
(25.2719 0.0001233 0)
(25.0252 0.000123173 0)
(24.7797 0.000123387 0)
(24.5353 0.000123789 0)
(24.2921 0.0001242 0)
(24.0501 0.000124292 0)
(23.8093 0.000124433 0)
(23.5697 0.000124352 0)
(23.3313 0.000123893 0)
(23.0941 0.000123263 0)
(22.8582 0.000122605 0)
(22.6236 0.000121972 0)
(22.3902 0.000121207 0)
(22.1581 0.00012031 0)
(21.9272 0.000119375 0)
(21.6977 0.000118374 0)
(21.4694 0.000117112 0)
(21.2425 0.000115454 0)
(21.0169 0.000113417 0)
(20.7926 0.000110992 0)
(20.5696 0.000108211 0)
(20.348 0.000105035 0)
(20.1278 0.000101466 0)
(19.9089 9.75545e-05 0)
(19.6914 9.33149e-05 0)
(19.4752 8.87791e-05 0)
(19.2605 8.3886e-05 0)
(19.0471 7.86175e-05 0)
(18.8351 7.30495e-05 0)
(18.6246 6.71846e-05 0)
(18.4154 6.11613e-05 0)
(18.2077 5.50397e-05 0)
(18.0014 4.90688e-05 0)
(17.7965 4.32423e-05 0)
(17.593 3.76901e-05 0)
(17.3911 3.25342e-05 0)
(17.1905 2.75061e-05 0)
(16.9914 2.29036e-05 0)
(16.7938 1.85368e-05 0)
(16.5976 1.44801e-05 0)
(16.4029 1.05426e-05 0)
(16.2097 7.31368e-06 0)
(16.018 3.84665e-06 0)
(15.8277 1.49448e-06 0)
(15.6389 -6.02917e-07 0)
(15.4516 -2.27373e-06 0)
(15.2658 -3.94661e-06 0)
(15.0815 -5.19109e-06 0)
(14.8987 -6.12113e-06 0)
(14.7173 -7.3046e-06 0)
(14.5375 -8.00888e-06 0)
(14.3592 -8.81714e-06 0)
(14.1823 -9.18944e-06 0)
(14.0069 -9.65797e-06 0)
(13.8331 -9.86227e-06 0)
(13.6607 -1.01712e-05 0)
(13.4898 -1.00823e-05 0)
(13.3203 -1.01442e-05 0)
(13.1524 -1.03723e-05 0)
(12.9859 -1.04359e-05 0)
(12.8209 -1.04052e-05 0)
(12.6574 -1.04141e-05 0)
(12.4953 -1.03623e-05 0)
(12.3347 -1.02434e-05 0)
(12.1755 -1.01386e-05 0)
(12.0178 -1.01082e-05 0)
(11.8615 -1.01415e-05 0)
(11.7067 -1.0171e-05 0)
(11.5533 -1.03345e-05 0)
(11.4012 -1.03316e-05 0)
(11.2506 -1.05703e-05 0)
(11.1014 -1.03739e-05 0)
(10.9536 -1.0457e-05 0)
(10.8072 -1.04557e-05 0)
(10.6622 -1.02642e-05 0)
(10.5185 -1.01957e-05 0)
(10.3762 -1.01529e-05 0)
(10.2352 -1.01232e-05 0)
(10.0956 -1.00484e-05 0)
(9.95729 -9.99271e-06 0)
(9.82032 -9.98113e-06 0)
(9.68466 -1.00311e-05 0)
(9.55031 -1.01354e-05 0)
(9.41725 -1.01701e-05 0)
(9.28548 -1.01152e-05 0)
(9.15499 -1.01366e-05 0)
(9.02576 -1.01319e-05 0)
(8.8978 -1.00693e-05 0)
(8.77108 -9.94656e-06 0)
(8.64561 -9.77253e-06 0)
(8.52137 -9.58199e-06 0)
(8.39835 -9.35259e-06 0)
(8.27655 -9.31849e-06 0)
(8.15595 -9.30563e-06 0)
(8.03655 -9.48027e-06 0)
(7.91835 -9.6223e-06 0)
(7.80133 -9.52618e-06 0)
(7.68548 -9.37958e-06 0)
(7.5708 -9.41316e-06 0)
(7.45728 -9.44291e-06 0)
(7.34491 -9.48762e-06 0)
(7.2337 -9.56263e-06 0)
(7.12362 -9.53819e-06 0)
(7.01468 -9.26131e-06 0)
(6.90687 -9.30551e-06 0)
(6.80018 -9.31476e-06 0)
(6.69461 -9.3605e-06 0)
(6.59016 -9.12594e-06 0)
(6.4868 -9.06594e-06 0)
(6.38454 -9.0212e-06 0)
(6.28337 -9.19326e-06 0)
(6.18329 -9.34284e-06 0)
(6.08429 -9.197e-06 0)
(5.98635 -8.8312e-06 0)
(5.8895 -8.89724e-06 0)
(5.7937 -8.38661e-06 0)
(5.69898 -9.09239e-06 0)
(5.60532 -8.13837e-06 0)
(5.51273 -9.68494e-06 0)
(5.42121 -7.36154e-06 0)
(5.33075 -1.01545e-05 0)
(5.24135 -6.74808e-06 0)
(5.15301 -1.15464e-05 0)
(5.06573 -5.55052e-06 0)
(4.97948 -1.13084e-05 0)
(4.89427 -5.40043e-06 0)
(4.81007 -1.27971e-05 0)
(4.7269 -3.83404e-06 0)
(4.64471 -1.15031e-05 0)
(4.56355 5.27547e-06 0)
(4.48332 2.98388e-05 0)
(4.40395 0.000185417 0)
(4.3248 0.00078548 0)
(4.24482 0.00308625 0)
(4.1463 0.00919795 0)
(4.0551 0.0532283 0)
(3.6463 0.110844 0)
(42.5911 3.31329e-05 0)
(42.3155 2.58875e-05 0)
(41.987 1.89812e-05 0)
(41.6768 1.61526e-05 0)
(41.3856 1.38244e-05 0)
(41.0987 1.18734e-05 0)
(40.8098 1.03777e-05 0)
(40.5194 9.1543e-06 0)
(40.2292 8.10003e-06 0)
(39.9396 7.19528e-06 0)
(39.6505 6.43723e-06 0)
(39.3617 5.79712e-06 0)
(39.0734 5.2414e-06 0)
(38.7857 4.76805e-06 0)
(38.4984 4.35982e-06 0)
(38.2116 4.02337e-06 0)
(37.9252 3.77244e-06 0)
(37.6393 3.59315e-06 0)
(37.3539 3.45297e-06 0)
(37.069 3.34033e-06 0)
(36.7847 3.21046e-06 0)
(36.5009 3.08926e-06 0)
(36.2177 2.91913e-06 0)
(35.9351 2.81077e-06 0)
(35.653 2.69383e-06 0)
(35.3716 2.65153e-06 0)
(35.0909 2.65449e-06 0)
(34.8107 2.69763e-06 0)
(34.5312 2.759e-06 0)
(34.2524 2.7703e-06 0)
(33.9743 2.69648e-06 0)
(33.6969 2.60501e-06 0)
(33.4202 2.41728e-06 0)
(33.1442 2.23404e-06 0)
(32.869 2.07532e-06 0)
(32.5945 2.00854e-06 0)
(32.3208 1.9366e-06 0)
(32.0479 1.9861e-06 0)
(31.7758 2.09389e-06 0)
(31.5045 2.23574e-06 0)
(31.234 2.32664e-06 0)
(30.9644 2.40957e-06 0)
(30.6956 2.45806e-06 0)
(30.4277 2.46343e-06 0)
(30.1607 2.396e-06 0)
(29.8945 2.23448e-06 0)
(29.6293 2.06669e-06 0)
(29.365 1.84175e-06 0)
(29.1016 1.67069e-06 0)
(28.8392 1.59927e-06 0)
(28.5777 1.57212e-06 0)
(28.3172 1.65421e-06 0)
(28.0577 1.82813e-06 0)
(27.7992 1.97526e-06 0)
(27.5417 2.08357e-06 0)
(27.2852 2.09586e-06 0)
(27.0298 2.08346e-06 0)
(26.7754 1.87261e-06 0)
(26.5221 1.7259e-06 0)
(26.2698 1.35579e-06 0)
(26.0187 1.10073e-06 0)
(25.7686 7.81422e-07 0)
(25.5197 5.72376e-07 0)
(25.2719 5.97502e-07 0)
(25.0252 7.58731e-07 0)
(24.7796 1.12091e-06 0)
(24.5353 1.54976e-06 0)
(24.2921 1.90854e-06 0)
(24.0501 2.06945e-06 0)
(23.8093 2.10287e-06 0)
(23.5697 1.97302e-06 0)
(23.3313 1.70909e-06 0)
(23.0941 1.45654e-06 0)
(22.8582 1.27941e-06 0)
(22.6236 1.18056e-06 0)
(22.3902 1.085e-06 0)
(22.158 9.75253e-07 0)
(21.9272 8.69048e-07 0)
(21.6976 7.53022e-07 0)
(21.4694 5.91178e-07 0)
(21.2425 3.60303e-07 0)
(21.0168 1.0232e-07 0)
(20.7926 -1.66698e-07 0)
(20.5696 -4.44505e-07 0)
(20.348 -7.54733e-07 0)
(20.1278 -1.0975e-06 0)
(19.9089 -1.43197e-06 0)
(19.6914 -1.71834e-06 0)
(19.4752 -1.94311e-06 0)
(19.2605 -2.15233e-06 0)
(19.0471 -2.40224e-06 0)
(18.8351 -2.70415e-06 0)
(18.6246 -3.0748e-06 0)
(18.4154 -3.46112e-06 0)
(18.2077 -3.83992e-06 0)
(18.0014 -4.15558e-06 0)
(17.7965 -4.43172e-06 0)
(17.593 -4.68261e-06 0)
(17.3911 -4.88313e-06 0)
(17.1905 -5.10236e-06 0)
(16.9914 -5.25223e-06 0)
(16.7938 -5.36905e-06 0)
(16.5976 -5.4366e-06 0)
(16.4029 -5.48446e-06 0)
(16.2097 -5.27958e-06 0)
(16.018 -4.80222e-06 0)
(15.8277 -4.69377e-06 0)
(15.6389 -4.69572e-06 0)
(15.4516 -4.64809e-06 0)
(15.2658 -4.63501e-06 0)
(15.0815 -4.56216e-06 0)
(14.8987 -4.47101e-06 0)
(14.7173 -4.50489e-06 0)
(14.5375 -4.46229e-06 0)
(14.3592 -4.47796e-06 0)
(14.1823 -4.42848e-06 0)
(14.0069 -4.4389e-06 0)
(13.8331 -4.42401e-06 0)
(13.6607 -4.44546e-06 0)
(13.4898 -4.38287e-06 0)
(13.3203 -4.37236e-06 0)
(13.1524 -4.41604e-06 0)
(12.9859 -4.40552e-06 0)
(12.8209 -4.37627e-06 0)
(12.6574 -4.36634e-06 0)
(12.4953 -4.35581e-06 0)
(12.3347 -4.3397e-06 0)
(12.1755 -4.32636e-06 0)
(12.0178 -4.3222e-06 0)
(11.8615 -4.32625e-06 0)
(11.7067 -4.31918e-06 0)
(11.5533 -4.3485e-06 0)
(11.4012 -4.32836e-06 0)
(11.2506 -4.36522e-06 0)
(11.1014 -4.31154e-06 0)
(10.9536 -4.31802e-06 0)
(10.8072 -4.3192e-06 0)
(10.6622 -4.27264e-06 0)
(10.5185 -4.25854e-06 0)
(10.3762 -4.26335e-06 0)
(10.2352 -4.25744e-06 0)
(10.0956 -4.24104e-06 0)
(9.95729 -4.22691e-06 0)
(9.82032 -4.22242e-06 0)
(9.68466 -4.2271e-06 0)
(9.55031 -4.22858e-06 0)
(9.41725 -4.2195e-06 0)
(9.28548 -4.20701e-06 0)
(9.15499 -4.2003e-06 0)
(9.02576 -4.19532e-06 0)
(8.8978 -4.17999e-06 0)
(8.77108 -4.20205e-06 0)
(8.64561 -4.26374e-06 0)
(8.52137 -4.29524e-06 0)
(8.39835 -4.22406e-06 0)
(8.27655 -4.09767e-06 0)
(8.15595 -4.00733e-06 0)
(8.03655 -3.94819e-06 0)
(7.91835 -3.92943e-06 0)
(7.80133 -3.93299e-06 0)
(7.68548 -3.95415e-06 0)
(7.5708 -3.97897e-06 0)
(7.45728 -4.00012e-06 0)
(7.34491 -4.01247e-06 0)
(7.2337 -3.99706e-06 0)
(7.12362 -3.99455e-06 0)
(7.01468 -3.98082e-06 0)
(6.90687 -3.95693e-06 0)
(6.80019 -3.9452e-06 0)
(6.69461 -3.91203e-06 0)
(6.59016 -3.88786e-06 0)
(6.4868 -3.87876e-06 0)
(6.38454 -3.90304e-06 0)
(6.28337 -3.88468e-06 0)
(6.18329 -3.86714e-06 0)
(6.08429 -3.86062e-06 0)
(5.98635 -3.80981e-06 0)
(5.8895 -3.82035e-06 0)
(5.7937 -3.54871e-06 0)
(5.69898 -4.32739e-06 0)
(5.60532 -2.36193e-06 0)
(5.51273 -6.23292e-06 0)
(5.42121 2.32301e-07 0)
(5.33075 -9.38263e-06 0)
(5.24135 2.73719e-06 0)
(5.15301 -1.30451e-05 0)
(5.06573 6.91567e-06 0)
(4.97948 -1.73227e-05 0)
(4.89427 1.25443e-05 0)
(4.81007 -2.11789e-05 0)
(4.7269 1.65672e-05 0)
(4.64471 -1.60649e-05 0)
(4.56356 2.71051e-05 0)
(4.48336 5.97694e-05 0)
(4.40412 0.000327601 0)
(4.32544 0.00135457 0)
(4.24637 0.00593394 0)
(4.15207 0.0220561 0)
(4.06223 0.12869 0)
(3.6055 0.281841 0)
(42.5911 -3.31329e-05 0)
(42.3155 -2.58875e-05 0)
(41.987 -1.89812e-05 0)
(41.6768 -1.61526e-05 0)
(41.3856 -1.38244e-05 0)
(41.0987 -1.18734e-05 0)
(40.8098 -1.03777e-05 0)
(40.5194 -9.1543e-06 0)
(40.2292 -8.10003e-06 0)
(39.9396 -7.19529e-06 0)
(39.6505 -6.43723e-06 0)
(39.3617 -5.79712e-06 0)
(39.0734 -5.2414e-06 0)
(38.7857 -4.76805e-06 0)
(38.4984 -4.35982e-06 0)
(38.2116 -4.02337e-06 0)
(37.9252 -3.77244e-06 0)
(37.6393 -3.59315e-06 0)
(37.3539 -3.45297e-06 0)
(37.069 -3.34033e-06 0)
(36.7847 -3.21046e-06 0)
(36.5009 -3.08926e-06 0)
(36.2177 -2.91913e-06 0)
(35.9351 -2.81077e-06 0)
(35.653 -2.69383e-06 0)
(35.3716 -2.65153e-06 0)
(35.0909 -2.65449e-06 0)
(34.8107 -2.69764e-06 0)
(34.5312 -2.759e-06 0)
(34.2524 -2.7703e-06 0)
(33.9743 -2.69648e-06 0)
(33.6969 -2.60501e-06 0)
(33.4202 -2.41728e-06 0)
(33.1442 -2.23404e-06 0)
(32.869 -2.07532e-06 0)
(32.5945 -2.00854e-06 0)
(32.3208 -1.9366e-06 0)
(32.0479 -1.9861e-06 0)
(31.7758 -2.09389e-06 0)
(31.5045 -2.23574e-06 0)
(31.234 -2.32663e-06 0)
(30.9644 -2.40957e-06 0)
(30.6956 -2.45807e-06 0)
(30.4277 -2.46343e-06 0)
(30.1607 -2.396e-06 0)
(29.8945 -2.23448e-06 0)
(29.6293 -2.06669e-06 0)
(29.365 -1.84176e-06 0)
(29.1016 -1.67069e-06 0)
(28.8392 -1.59927e-06 0)
(28.5777 -1.57212e-06 0)
(28.3172 -1.65421e-06 0)
(28.0577 -1.82813e-06 0)
(27.7992 -1.97526e-06 0)
(27.5417 -2.08358e-06 0)
(27.2852 -2.09586e-06 0)
(27.0298 -2.08346e-06 0)
(26.7754 -1.87261e-06 0)
(26.5221 -1.7259e-06 0)
(26.2698 -1.3558e-06 0)
(26.0187 -1.10074e-06 0)
(25.7686 -7.81424e-07 0)
(25.5197 -5.72373e-07 0)
(25.2719 -5.97503e-07 0)
(25.0252 -7.5873e-07 0)
(24.7796 -1.1209e-06 0)
(24.5353 -1.54977e-06 0)
(24.2921 -1.90854e-06 0)
(24.0501 -2.06945e-06 0)
(23.8093 -2.10287e-06 0)
(23.5697 -1.97302e-06 0)
(23.3313 -1.70909e-06 0)
(23.0941 -1.45654e-06 0)
(22.8582 -1.27941e-06 0)
(22.6236 -1.18056e-06 0)
(22.3902 -1.085e-06 0)
(22.158 -9.75257e-07 0)
(21.9272 -8.69047e-07 0)
(21.6976 -7.53022e-07 0)
(21.4694 -5.91177e-07 0)
(21.2425 -3.60302e-07 0)
(21.0168 -1.0232e-07 0)
(20.7926 1.66697e-07 0)
(20.5696 4.44505e-07 0)
(20.348 7.54734e-07 0)
(20.1278 1.0975e-06 0)
(19.9089 1.43197e-06 0)
(19.6914 1.71834e-06 0)
(19.4752 1.94312e-06 0)
(19.2605 2.15233e-06 0)
(19.0471 2.40224e-06 0)
(18.8351 2.70415e-06 0)
(18.6246 3.0748e-06 0)
(18.4154 3.46112e-06 0)
(18.2077 3.83992e-06 0)
(18.0014 4.15558e-06 0)
(17.7965 4.43172e-06 0)
(17.593 4.68262e-06 0)
(17.3911 4.88313e-06 0)
(17.1905 5.10236e-06 0)
(16.9914 5.25223e-06 0)
(16.7938 5.36904e-06 0)
(16.5976 5.4366e-06 0)
(16.4029 5.48446e-06 0)
(16.2097 5.27958e-06 0)
(16.018 4.80222e-06 0)
(15.8277 4.69377e-06 0)
(15.6389 4.69572e-06 0)
(15.4516 4.64809e-06 0)
(15.2658 4.63501e-06 0)
(15.0815 4.56216e-06 0)
(14.8987 4.47101e-06 0)
(14.7173 4.50489e-06 0)
(14.5375 4.46228e-06 0)
(14.3592 4.47796e-06 0)
(14.1823 4.42848e-06 0)
(14.0069 4.4389e-06 0)
(13.8331 4.42402e-06 0)
(13.6607 4.44546e-06 0)
(13.4898 4.38287e-06 0)
(13.3203 4.37236e-06 0)
(13.1524 4.41604e-06 0)
(12.9859 4.40552e-06 0)
(12.8209 4.37628e-06 0)
(12.6574 4.36634e-06 0)
(12.4953 4.35581e-06 0)
(12.3347 4.33971e-06 0)
(12.1755 4.32636e-06 0)
(12.0178 4.3222e-06 0)
(11.8615 4.32626e-06 0)
(11.7067 4.31918e-06 0)
(11.5533 4.34851e-06 0)
(11.4012 4.32836e-06 0)
(11.2506 4.36522e-06 0)
(11.1014 4.31154e-06 0)
(10.9536 4.31801e-06 0)
(10.8072 4.3192e-06 0)
(10.6622 4.27265e-06 0)
(10.5185 4.25854e-06 0)
(10.3762 4.26336e-06 0)
(10.2352 4.25744e-06 0)
(10.0956 4.24105e-06 0)
(9.95729 4.2269e-06 0)
(9.82032 4.22242e-06 0)
(9.68466 4.2271e-06 0)
(9.55031 4.22858e-06 0)
(9.41725 4.21951e-06 0)
(9.28548 4.20701e-06 0)
(9.15499 4.2003e-06 0)
(9.02576 4.19532e-06 0)
(8.8978 4.17999e-06 0)
(8.77108 4.20205e-06 0)
(8.64561 4.26374e-06 0)
(8.52137 4.29524e-06 0)
(8.39835 4.22406e-06 0)
(8.27655 4.09767e-06 0)
(8.15595 4.00733e-06 0)
(8.03655 3.9482e-06 0)
(7.91835 3.92942e-06 0)
(7.80133 3.93299e-06 0)
(7.68548 3.95414e-06 0)
(7.5708 3.97897e-06 0)
(7.45728 4.00011e-06 0)
(7.34491 4.01246e-06 0)
(7.2337 3.99706e-06 0)
(7.12362 3.99456e-06 0)
(7.01468 3.98083e-06 0)
(6.90687 3.95693e-06 0)
(6.80019 3.94519e-06 0)
(6.69461 3.91203e-06 0)
(6.59016 3.88786e-06 0)
(6.4868 3.87874e-06 0)
(6.38454 3.90315e-06 0)
(6.28337 3.88399e-06 0)
(6.18329 3.87061e-06 0)
(6.08429 3.8439e-06 0)
(5.98635 3.88054e-06 0)
(5.8895 3.55484e-06 0)
(5.7937 4.38703e-06 0)
(5.69898 2.111e-06 0)
(5.60532 6.99307e-06 0)
(5.51273 -1.30338e-06 0)
(5.42121 9.17655e-06 0)
(5.33075 -4.56691e-06 0)
(5.24135 1.28584e-05 0)
(5.15301 -8.98053e-06 0)
(5.06572 1.82528e-05 0)
(4.97948 -1.33145e-05 0)
(4.89426 2.26762e-05 0)
(4.81007 -1.49705e-05 0)
(4.72689 2.56418e-05 0)
(4.64472 -1.55134e-05 0)
(4.56357 4.1942e-05 0)
(4.48343 5.55181e-05 0)
(4.40437 0.000351975 0)
(4.32663 0.0014082 0)
(4.25148 0.00644619 0)
(4.1866 0.0245378 0)
(4.13796 0.150105 0)
(4.22906 0.315403 0)
(42.5911 -0.000109571 0)
(42.3156 -9.5703e-05 0)
(41.987 -9.52318e-05 0)
(41.6768 -0.0001005 0)