/*--------------------------------*- C++ -*----------------------------------*\
| =========                 |                                                 |
| \\      /  F ield         | OpenFOAM: The Open Source CFD Toolbox           |
|  \\    /   O peration     | Version:  3.0.x                                 |
|   \\  /    A nd           | Web:      www.OpenFOAM.org                      |
|    \\/     M anipulation  |                                                 |
\*---------------------------------------------------------------------------*/
FoamFile
{
    version     2.0;
    format      ascii;
    class       surfaceScalarField;
    location    "0.16";
    object      phi;
}
// * * * * * * * * * * * * * * * * * * * * * * * * * * * * * * * * * * * * * //

dimensions      [1 0 -1 0 0 0 0];

internalField   nonuniform List<scalar> 
12415
(
5.76761
0.000327837
5.76507
0.000234868
5.76255
0.000225629
5.76004
0.000227328
5.75754
0.000227778
5.75505
0.000227653
5.75257
0.000227632
5.75012
0.000227761
5.74769
0.00022777
5.74529
0.00022781
5.74292
0.000227958
5.74059
0.000227871
5.7383
0.000227843
5.73603
0.0002276
5.73379
0.000227067
5.73156
0.000226057
5.72934
0.000224336
5.72713
0.000221597
5.72492
0.000217623
5.72272
0.000211954
5.72052
0.00020444
5.71832
0.000194885
5.71612
0.000183265
5.7139
0.000169716
5.71166
0.000154541
5.70941
0.000138187
5.70713
0.000121204
5.70482
0.000104181
5.70248
8.76856e-05
5.7001
7.22239e-05
5.69768
5.8188e-05
5.69522
4.58329e-05
5.69271
3.5276e-05
5.69015
2.65116e-05
5.68755
1.94355e-05
5.6849
1.38759e-05
5.68222
9.62045e-06
5.67949
6.44451e-06
5.67674
4.13515e-06
5.67396
2.49662e-06
5.67116
1.3506e-06
5.66836
5.72194e-07
5.66555
5.50008e-08
5.66275
-2.81794e-07
5.65997
-4.99342e-07
5.65721
-6.37694e-07
5.65448
-7.25264e-07
5.65179
-7.80679e-07
5.64915
-8.12744e-07
5.64656
-8.42721e-07
5.64403
-8.57261e-07
5.64156
-8.6923e-07
5.63916
-8.77913e-07
5.63682
-8.84238e-07
5.63455
-8.90668e-07
5.63235
-8.93724e-07
5.63021
-8.9688e-07
5.62814
-8.9861e-07
5.62613
-8.98768e-07
5.62418
-8.98024e-07
5.62229
-8.96176e-07
5.62044
-8.93413e-07
5.61864
-8.89413e-07
5.61687
-8.83832e-07
5.61514
-8.78394e-07
5.61345
-8.70919e-07
5.61177
-8.64466e-07
5.61012
-8.57901e-07
5.60849
-8.38283e-07
5.60687
-8.33663e-07
5.60527
-8.27205e-07
5.60367
-8.18938e-07
5.60209
-8.10716e-07
5.60052
-8.02313e-07
5.59896
-7.93951e-07
5.59741
-7.86033e-07
5.59588
-7.7892e-07
5.59437
-7.72856e-07
5.59288
-7.67983e-07
5.59142
-7.64358e-07
5.58999
-7.61991e-07
5.5886
-7.60892e-07
5.58726
-7.61078e-07
5.58596
-7.62548e-07
5.58472
-7.65294e-07
5.58354
-7.69367e-07
5.58242
-7.74899e-07
5.58138
-7.81498e-07
5.5804
-7.88516e-07
5.5795
-7.95255e-07
5.57867
-8.02269e-07
5.57792
-8.10562e-07
5.57725
-8.20373e-07
5.57665
-8.31151e-07
5.57613
-8.42148e-07
5.57568
-8.52839e-07
5.5753
-8.62936e-07
5.57498
-8.72373e-07
5.57472
-8.81208e-07
5.57452
-8.89489e-07
5.57436
-8.97209e-07
5.57424
-9.04265e-07
5.57416
-9.10577e-07
5.57411
-9.16705e-07
5.57407
-9.16047e-07
5.57405
-9.25229e-07
5.57404
-9.27153e-07
5.57402
-9.29267e-07
5.574
-9.30391e-07
5.57397
-9.30188e-07
5.57393
-9.28312e-07
5.57386
-9.27857e-07
5.57377
-9.26859e-07
5.57366
-9.26384e-07
5.57352
-9.24354e-07
5.57336
-9.21775e-07
5.57317
-9.17391e-07
5.57297
-9.14128e-07
5.57275
-9.1189e-07
5.57251
-9.0992e-07
5.57227
-9.08947e-07
5.57203
-9.08567e-07
5.57179
-9.08773e-07
5.57155
-9.09293e-07
5.57133
-9.10797e-07
5.57113
-9.12818e-07
5.57094
-9.15405e-07
5.57078
-9.18297e-07
5.57065
-9.21489e-07
5.57055
-9.23043e-07
5.57047
-9.25813e-07
5.57043
-9.2665e-07
5.57041
-9.27763e-07
5.57043
-9.31994e-07
5.57047
-9.35443e-07
5.57054
-9.39375e-07
5.57063
-9.41563e-07
5.57074
-9.41951e-07
5.57086
-9.52165e-07
5.571
-9.48809e-07
5.57114
-9.46326e-07
5.57128
-9.47064e-07
5.57141
-9.47744e-07
5.57153
-9.47421e-07
5.57163
-9.46278e-07
5.5717
-9.44512e-07
5.57173
-9.42126e-07
5.57172
-9.38764e-07
5.57165
-9.36439e-07
5.57153
-9.31119e-07
5.57135
-9.28863e-07
5.57111
-9.26761e-07
5.57081
-9.2514e-07
5.57044
-9.21904e-07
5.57
-9.19974e-07
5.56951
-9.17564e-07
5.56896
-9.1674e-07
5.56836
-9.14933e-07
5.56771
-9.16625e-07
5.56702
-9.18721e-07
5.5663
-9.23983e-07
5.56554
-9.30269e-07
5.56475
-9.36587e-07
5.56393
-9.42653e-07
5.56307
-9.48216e-07
5.56219
-9.53458e-07
5.56127
-9.57853e-07
5.56032
-9.62158e-07
5.55932
-9.64885e-07
5.55827
-9.68104e-07
5.55717
-9.68645e-07
5.55602
-9.70851e-07
5.55481
-9.6943e-07
5.55355
-9.7042e-07
5.55223
-9.68052e-07
5.55085
-9.67157e-07
5.54942
-9.64586e-07
5.54792
-9.6115e-07
5.54636
-9.57258e-07
5.54474
-9.52259e-07
5.54304
-9.44323e-07
5.54126
-9.37456e-07
5.5394
-9.26171e-07
5.53744
-9.13598e-07
5.53539
-8.78803e-07
5.53324
-9.30442e-07
5.53099
-8.30481e-07
5.52863
-8.74374e-07
5.52618
-8.74568e-07
5.52364
-8.04572e-07
5.52101
-8.23651e-07
5.51832
-6.79584e-07
5.51557
-1.73079e-07
5.51278
3.78242e-06
5.50995
3.0814e-05
5.50694
0.000220488
5.50263
0.00154105
5.48919
0.0107451
5.40128
0.0853028
0.419042
4.97973
11.536
0.000260452
11.5314
0.000214727
11.5268
0.000191028
11.5223
0.000194745
11.5178
0.000195865
11.5133
0.000195357
11.5088
0.000195235
11.5044
0.000195336
11.5
0.000195368
11.4957
0.000195409
11.4915
0.000195517
11.4873
0.000195485
11.4832
0.000195459
11.4791
0.000195267
11.4751
0.000194833
11.4712
0.000193994
11.4672
0.000192551
11.4632
0.000190251
11.4593
0.000186872
11.4554
0.000182073
11.4514
0.000175678
11.4474
0.000167537
11.4434
0.000157617
11.4393
0.000146033
11.4352
0.000133042
11.431
0.000119025
11.4267
0.000104453
11.4223
8.98314e-05
11.4178
7.56512e-05
11.4132
6.23467e-05
11.4085
5.02597e-05
11.4036
3.96112e-05
11.3987
3.0506e-05
11.3936
2.29413e-05
11.3885
1.6829e-05
11.3832
1.20243e-05
11.3778
8.34332e-06
11.3724
5.59525e-06
11.3669
3.59528e-06
11.3614
2.1752e-06
11.3558
1.18369e-06
11.3502
5.0582e-07
11.3445
5.60156e-08
11.3389
-2.33767e-07
11.3334
-4.23103e-07
11.3279
-5.43364e-07
11.3224
-6.19654e-07
11.317
-6.67867e-07
11.3117
-6.96601e-07
11.3066
-7.21374e-07
11.3015
-7.34717e-07
11.2966
-7.44954e-07
11.2917
-7.52452e-07
11.2871
-7.58015e-07
11.2825
-7.63324e-07
11.2781
-7.66186e-07
11.2738
-7.68758e-07
11.2697
-7.70267e-07
11.2657
-7.70427e-07
11.2618
-7.69784e-07
11.258
-7.68204e-07
11.2543
-7.6581e-07
11.2507
-7.62557e-07
11.2471
-7.57375e-07
11.2437
-7.53174e-07
11.2403
-7.46569e-07
11.2369
-7.40949e-07
11.2336
-7.34908e-07
11.2304
-7.19139e-07
11.2271
-7.14545e-07
11.2239
-7.08967e-07
11.2207
-7.01957e-07
11.2176
-6.94923e-07
11.2144
-6.87727e-07
11.2113
-6.80559e-07
11.2082
-6.73773e-07
11.2051
-6.67673e-07
11.2021
-6.62473e-07
11.1991
-6.58299e-07
11.1962
-6.55191e-07
11.1933
-6.53164e-07
11.1906
-6.52225e-07
11.1879
-6.52389e-07
11.1853
-6.5365e-07
11.1828
-6.56005e-07
11.1804
-6.59499e-07
11.1782
-6.64222e-07
11.1761
-6.69894e-07
11.1741
-6.7588e-07
11.1723
-6.81719e-07
11.1707
-6.87738e-07
11.1692
-6.94799e-07
11.1678
-7.03188e-07
11.1666
-7.12429e-07
11.1656
-7.21873e-07
11.1647
-7.31046e-07
11.1639
-7.39709e-07
11.1633
-7.47798e-07
11.1628
-7.55368e-07
11.1624
-7.62467e-07
11.162
-7.69083e-07
11.1618
-7.75136e-07
11.1616
-7.80552e-07
11.1615
-7.85467e-07
11.1615
-7.86076e-07
11.1614
-7.92463e-07
11.1614
-7.94991e-07
11.1613
-7.96479e-07
11.1613
-7.97487e-07
11.1612
-7.97354e-07
11.1611
-7.95904e-07
11.161
-7.95136e-07
11.1608
-7.94649e-07
11.1606
-7.94038e-07
11.1603
-7.92394e-07
11.16
-7.90123e-07
11.1596
-7.86341e-07
11.1592
-7.83629e-07
11.1588
-7.81574e-07
11.1583
-7.8022e-07
11.1578
-7.79168e-07
11.1573
-7.78838e-07
11.1568
-7.79028e-07
11.1564
-7.79498e-07
11.1559
-7.80747e-07
11.1555
-7.82475e-07
11.1551
-7.84662e-07
11.1548
-7.87137e-07
11.1546
-7.89802e-07
11.1543
-7.91375e-07
11.1542
-7.93446e-07
11.1541
-7.94455e-07
11.1541
-7.95618e-07
11.1541
-7.98626e-07
11.1542
-8.01973e-07
11.1543
-8.05125e-07
11.1545
-8.07126e-07
11.1547
-8.08016e-07
11.155
-8.15239e-07
11.1552
-8.13732e-07
11.1555
-8.1139e-07
11.1558
-8.11823e-07
11.156
-8.12436e-07
11.1563
-8.12161e-07
11.1565
-8.11185e-07
11.1566
-8.09668e-07
11.1567
-8.07603e-07
11.1566
-8.04804e-07
11.1565
-8.02622e-07
11.1563
-7.98298e-07
11.1559
-7.96102e-07
11.1554
-7.94554e-07
11.1548
-7.93005e-07
11.1541
-7.90357e-07
11.1532
-7.88505e-07
11.1522
-7.86664e-07
11.1511
-7.85747e-07
11.1499
-7.84548e-07
11.1486
-7.85608e-07
11.1472
-7.87586e-07
11.1458
-7.92062e-07
11.1442
-7.97464e-07
11.1427
-8.02893e-07
11.141
-8.081e-07
11.1393
-8.1288e-07
11.1375
-8.17354e-07
11.1357
-8.21155e-07
11.1338
-8.24786e-07
11.1318
-8.27212e-07
11.1297
-8.29829e-07
11.1275
-8.30482e-07
11.1252
-8.32133e-07
11.1228
-8.31158e-07
11.1202
-8.31853e-07
11.1176
-8.29723e-07
11.1148
-8.29465e-07
11.112
-8.26183e-07
11.109
-8.25023e-07
11.1059
-8.19264e-07
11.1026
-8.17748e-07
11.0992
-8.083e-07
11.0956
-8.04473e-07
11.0919
-7.93111e-07
11.088
-7.80108e-07
11.0839
-7.44969e-07
11.0796
-8.79631e-07
11.0751
-5.52347e-07
11.0704
-7.93397e-07
11.0655
-8.16128e-07
11.0604
-6.40714e-07
11.0551
-7.29447e-07
11.0497
-3.27854e-07
11.0442
1.1465e-06
11.0387
1.28435e-05
11.033
9.28349e-05
11.027
0.000654215
11.0184
0.00456115
10.9922
0.0316376
10.8474
0.22479
1.05185
10.2096
138.431
-0.000260452
138.376
-0.000214727
138.322
-0.000191028
138.267
-0.000194745
138.213
-0.000195865
138.159
-0.000195357
138.106
-0.000195235
138.053
-0.000195336
138
-0.000195368
137.948
-0.000195409
137.897
-0.000195517
137.847
-0.000195485
137.798
-0.000195459
137.75
-0.000195267
137.701
-0.000194833
137.654
-0.000193994
137.606
-0.000192551
137.559
-0.000190251
137.512
-0.000186872
137.464
-0.000182073
137.417
-0.000175678
137.369
-0.000167537
137.321
-0.000157617
137.272
-0.000146033
137.222
-0.000133042
137.172
-0.000119025
137.12
-0.000104453
137.067
-8.98314e-05
137.013
-7.56512e-05
136.958
-6.23467e-05
136.902
-5.02597e-05
136.844
-3.96112e-05
136.784
-3.0506e-05
136.724
-2.29413e-05
136.662
-1.6829e-05
136.598
-1.20243e-05
136.534
-8.34332e-06
136.469
-5.59525e-06
136.403
-3.59527e-06
136.336
-2.1752e-06
136.269
-1.18369e-06
136.202
-5.0582e-07
136.135
-5.60165e-08
136.067
2.33764e-07
136.001
4.23096e-07
135.934
5.43364e-07
135.869
6.19652e-07
135.804
6.67865e-07
135.741
6.96601e-07
135.679
7.21375e-07
135.618
7.34714e-07
135.559
7.44952e-07
135.501
7.52455e-07
135.445
7.58017e-07
135.39
7.63322e-07
135.337
7.66184e-07
135.286
7.6876e-07
135.236
7.70269e-07
135.188
7.70426e-07
135.141
7.69784e-07
135.096
7.68204e-07
135.051
7.65809e-07
135.008
7.62559e-07
134.966
7.57375e-07
134.924
7.53174e-07
134.883
7.46571e-07
134.843
7.4095e-07
134.804
7.34905e-07
134.764
7.1914e-07
134.726
7.14547e-07
134.687
7.0897e-07
134.649
7.01956e-07
134.611
6.94926e-07
134.573
6.87726e-07
134.535
6.80559e-07
134.498
6.7377e-07
134.462
6.67671e-07
134.425
6.62472e-07
134.389
6.58297e-07
134.354
6.5519e-07
134.32
6.53163e-07
134.287
6.52224e-07
134.254
6.52387e-07
134.223
6.53649e-07
134.194
6.56009e-07
134.165
6.59499e-07
134.138
6.64218e-07
134.113
6.69894e-07
134.09
6.75883e-07
134.068
6.81719e-07
134.048
6.87734e-07
134.03
6.94799e-07
134.014
7.03188e-07
134
7.12427e-07
133.987
7.21872e-07
133.976
7.31045e-07
133.967
7.39706e-07
133.959
7.47799e-07
133.953
7.55373e-07
133.948
7.6247e-07
133.944
7.69083e-07
133.942
7.75136e-07
133.94
7.80553e-07
133.938
7.85462e-07
133.937
7.86075e-07
133.937
7.92463e-07
133.937
7.9499e-07
133.936
7.96477e-07
133.936
7.97486e-07
133.935
7.97357e-07
133.934
7.95905e-07
133.932
7.95133e-07
133.93
7.94647e-07
133.927
7.94038e-07
133.924
7.92393e-07
133.92
7.90123e-07
133.915
7.86339e-07
133.911
7.83628e-07
133.905
7.81571e-07
133.9
7.80218e-07
133.894
7.79169e-07
133.888
7.78839e-07
133.882
7.7903e-07
133.876
7.79503e-07
133.871
7.8075e-07
133.866
7.82474e-07
133.862
7.84663e-07
133.858
7.87136e-07
133.855
7.89802e-07
133.852
7.91377e-07
133.85
7.93446e-07
133.849
7.94452e-07
133.849
7.9562e-07
133.849
7.98628e-07
133.85
8.01974e-07
133.852
8.05123e-07
133.854
8.07127e-07
133.857
8.08017e-07
133.859
8.15243e-07
133.863
8.13733e-07
133.866
8.11392e-07
133.869
8.11827e-07
133.873
8.12436e-07
133.875
8.12156e-07
133.878
8.11181e-07
133.879
8.09669e-07
133.88
8.07602e-07
133.88
8.04804e-07
133.878
8.02624e-07
133.875
7.98297e-07
133.871
7.96101e-07
133.865
7.94555e-07
133.858
7.93006e-07
133.849
7.90355e-07
133.838
7.88508e-07
133.827
7.86667e-07
133.813
7.85745e-07
133.799
7.84472e-07
133.783
7.85683e-07
133.767
7.8759e-07
133.749
7.92064e-07
133.731
7.9746e-07
133.712
8.02901e-07
133.692
8.08089e-07
133.672
8.12905e-07
133.651
8.17311e-07
133.629
8.21238e-07
133.606
8.24649e-07
133.581
8.27428e-07
133.556
8.29493e-07
133.53
8.30961e-07
133.502
8.31476e-07
133.473
8.31989e-07
133.443
8.30769e-07
133.411
8.3115e-07
133.378
8.27562e-07
133.344
8.2884e-07
133.308
8.21295e-07
133.27
8.24423e-07
133.231
8.11086e-07
133.19
8.15613e-07
133.148
7.97331e-07
133.103
8.0149e-07
133.056
8.04302e-07
133.007
1.07037e-06
132.955
-6.1431e-07
132.901
2.25198e-06
132.845
6.60726e-07
132.786
2.83522e-07
132.725
9.5114e-07
132.662
4.91674e-07
132.597
1.30425e-06
132.531
2.88586e-06
132.464
1.84322e-05
132.397
0.000125119
132.33
0.000890297
132.261
0.00635165
132.183
0.0456715
131.981
0.364207
1.55181
131.421
11.536
-0.000327837
11.5314
-0.000234868
11.5268
-0.000225629
11.5223
-0.000227328
11.5178
-0.000227778
11.5133
-0.000227653
11.5088
-0.000227632
11.5044
-0.000227761
11.5
-0.00022777
11.4957
-0.00022781
11.4915
-0.000227958
11.4873
-0.000227871
11.4832
-0.000227843
11.4791
-0.0002276
11.4751
-0.000227067
11.4712
-0.000226057
11.4672
-0.000224336
11.4632
-0.000221597
11.4593
-0.000217623
11.4554
-0.000211954
11.4514
-0.00020444
11.4474
-0.000194885
11.4434
-0.000183265
11.4393
-0.000169716
11.4352
-0.000154541
11.431
-0.000138187
11.4267
-0.000121204
11.4223
-0.000104181
11.4178
-8.76856e-05
11.4132
-7.22239e-05
11.4085
-5.8188e-05
11.4036
-4.58329e-05
11.3987
-3.5276e-05
11.3936
-2.65116e-05
11.3885
-1.94355e-05
11.3832
-1.38759e-05
11.3778
-9.62044e-06
11.3724
-6.44451e-06
11.3669
-4.13514e-06
11.3614
-2.49662e-06
11.3558
-1.35061e-06
11.3502
-5.72196e-07
11.3445
-5.50026e-08
11.3389
2.81792e-07
11.3334
4.9934e-07
11.3279
6.37698e-07
11.3224
7.25262e-07
11.317
7.80678e-07
11.3117
8.12743e-07
11.3066
8.42721e-07
11.3015
8.57259e-07
11.2966
8.69228e-07
11.2917
8.77915e-07
11.2871
8.8424e-07
11.2825
8.90666e-07
11.2781
8.93724e-07
11.2738
8.96882e-07
11.2697
8.98612e-07
11.2657
8.9877e-07
11.2618
8.98024e-07
11.258
8.96176e-07
11.2543
8.93413e-07
11.2507
8.89417e-07
11.2471
8.83831e-07
11.2437
8.78394e-07
11.2403
8.70921e-07
11.2369
8.64464e-07
11.2336
8.57895e-07
11.2304
8.38281e-07
11.2271
8.33668e-07
11.2239
8.27207e-07
11.2207
8.18934e-07
11.2176
8.10718e-07
11.2144
8.02313e-07
11.2113
7.93952e-07
11.2082
7.86033e-07
11.2051
7.7892e-07
11.2021
7.72854e-07
11.1991
7.67979e-07
11.1962
7.64356e-07
11.1933
7.61989e-07
11.1906
7.60892e-07
11.1879
7.61076e-07
11.1853
7.62548e-07
11.1828
7.65294e-07
11.1804
7.69367e-07
11.1782
7.74897e-07
11.1761
7.81498e-07
11.1741
7.88517e-07
11.1723
7.95255e-07
11.1707
8.02267e-07
11.1692
8.10562e-07
11.1678
8.20375e-07
11.1666
8.31149e-07
11.1656
8.42148e-07
11.1647
8.52839e-07
11.1639
8.62934e-07
11.1633
8.72373e-07
11.1628
8.81209e-07
11.1624
8.89491e-07
11.162
8.97207e-07
11.1618
9.04267e-07
11.1616
9.10577e-07
11.1615
9.16703e-07
11.1615
9.16043e-07
11.1614
9.25229e-07
11.1614
9.27153e-07
11.1613
9.29265e-07
11.1613
9.30391e-07
11.1612
9.30189e-07
11.1611
9.28316e-07
11.161
9.27857e-07
11.1608
9.26861e-07
11.1606
9.26384e-07
11.1603
9.24352e-07
11.16
9.21775e-07
11.1596
9.17389e-07
11.1592
9.14129e-07
11.1588
9.1189e-07
11.1583
9.0992e-07
11.1578
9.08949e-07
11.1573
9.08571e-07
11.1568
9.08773e-07
11.1564
9.09295e-07
11.1559
9.10799e-07
11.1555
9.12818e-07
11.1551
9.15405e-07
11.1548
9.18295e-07
11.1546
9.21489e-07
11.1543
9.23043e-07
11.1542
9.25813e-07
11.1541
9.26648e-07
11.1541
9.27765e-07
11.1541
9.31996e-07
11.1542
9.35443e-07
11.1543
9.39373e-07
11.1545
9.41563e-07
11.1547
9.41951e-07
11.155
9.52165e-07
11.1552
9.4881e-07
11.1555
9.46329e-07
11.1558
9.47068e-07
11.156
9.47744e-07
11.1563
9.47417e-07
11.1565
9.46278e-07
11.1566
9.44514e-07
11.1567
9.42122e-07
11.1566
9.38764e-07
11.1565
9.36441e-07
11.1563
9.31119e-07
11.1559
9.28863e-07
11.1554
9.26757e-07
11.1548
9.2514e-07
11.1541
9.219e-07
11.1532
9.19978e-07
11.1522
9.17566e-07
11.1511
9.16738e-07
11.1499
9.14784e-07
11.1486
9.16776e-07
11.1472
9.18722e-07
11.1458
9.23987e-07
11.1442
9.30266e-07
11.1427
9.36596e-07
11.141
9.42637e-07
11.1393
9.48252e-07
11.1375
9.53391e-07
11.1357
9.57971e-07
11.1338
9.61958e-07
11.1318
9.65194e-07
11.1297
9.67646e-07
11.1275
9.69267e-07
11.1252
9.70067e-07
11.1228
9.70307e-07
11.1202
9.69521e-07
11.1176
9.6889e-07
11.1148
9.66438e-07
11.112
9.65245e-07
11.109
9.60397e-07
11.1059
9.58511e-07
11.1026
9.50207e-07
11.0992
9.46873e-07
11.0956
9.34831e-07
11.0919
9.29092e-07
11.088
9.22068e-07
11.0839
1.00418e-06
11.0796
4.27057e-07
11.0751
1.37966e-06
11.0704
8.39467e-07
11.0655
6.93273e-07
11.0604
9.08887e-07
11.0551
7.43634e-07
11.0497
1.0101e-06
11.0442
1.54037e-06
11.0387
6.81118e-06
11.0332
4.30177e-05
11.0282
0.000303034
11.0268
0.00217544
11.0509
0.016218
11.2319
0.177966
0.673179
12.1056
5.76761
5.76507
5.76255
5.76004
5.75754
5.75505
5.75257
5.75012
5.74769
5.74529
5.74292
5.74059
5.7383
5.73603
5.73379
5.73156
5.72934
5.72713
5.72492
5.72272
5.72052
5.71832
5.71612
5.7139
5.71166
5.70941
5.70713
5.70482
5.70248
5.7001
5.69768
5.69522
5.69271
5.69015
5.68755
5.6849
5.68222
5.67949
5.67674
5.67396
5.67116
5.66836
5.66555
5.66275
5.65997
5.65721
5.65448
5.65179
5.64915
5.64656
5.64403
5.64156
5.63916
5.63682
5.63455
5.63235
5.63021
5.62814
5.62613
5.62418
5.62229
5.62044
5.61864
5.61687
5.61514
5.61345
5.61177
5.61012
5.60849
5.60687
5.60527
5.60367
5.60209
5.60052
5.59896
5.59741
5.59588
5.59437
5.59288
5.59142
5.58999
5.5886
5.58726
5.58596
5.58472
5.58354
5.58242
5.58138
5.5804
5.5795
5.57867
5.57792
5.57725
5.57665
5.57613
5.57568
5.5753
5.57498
5.57472
5.57452
5.57436
5.57424
5.57416
5.57411
5.57407
5.57405
5.57404
5.57402
5.574
5.57397
5.57393
5.57386
5.57377
5.57366
5.57352
5.57336
5.57317
5.57297
5.57275
5.57251
5.57227
5.57203
5.57179
5.57155
5.57133
5.57113
5.57094
5.57078
5.57065
5.57055
5.57047
5.57043
5.57041
5.57043
5.57047
5.57054
5.57063
5.57074
5.57086
5.571
5.57114
5.57128
5.57141
5.57153
5.57163
5.5717
5.57173
5.57172
5.57165
5.57153
5.57135
5.57111
5.57081
5.57044
5.57
5.56951
5.56896
5.56836
5.56771
5.56702
5.5663
5.56554
5.56475
5.56393
5.56307
5.56219
5.56127
5.56032
5.55932
5.55827
5.55717
5.55602
5.55481
5.55355
5.55223
5.55085
5.54942
5.54792
5.54636
5.54474
5.54304
5.54126
5.5394
5.53744
5.53539
5.53324
5.53099
5.52863
5.52618
5.52364
5.52101
5.51832
5.51557
5.51279
5.51004
5.50755
5.50696
5.52049
5.69584
6.36653
4.85907
0.120048
4.86713
-0.00867522
4.86617
0.000353687
4.87648
-0.0109289
4.90239
-0.0265413
4.94195
-0.0402091
4.97146
-0.0301647
4.96057
0.0102033
4.9089
0.0510248
4.85706
0.0512382
4.95895
-0.101633
5.2652
-0.306286
5.67317
-0.408823
5.98094
-0.309255
6.019
-0.0403065
5.90344
0.114252
5.72614
0.176376
5.50667
0.218631
5.33198
0.174183
-0.690064
6.0227
10.1602
0.168236
10.1803
-0.0299676
10.2313
-0.051783
10.2965
-0.0773341
10.3862
-0.117512
10.5075
-0.162774
10.6112
-0.135098
10.6389
-0.0188116
10.5784
0.11025
10.4852
0.143225
10.646
-0.261839
11.1904
-0.850988
11.9879
-1.20826
12.7137
-1.03892
12.982
-0.312751
12.9288
0.165306
12.6882
0.415458
12.258
0.647587
11.6611
0.770292
-1.38603
12.3585
131.46
0.118012
131.515
-0.0964456
131.497
-0.0437743
131.309
0.0993265
130.954
0.227403
130.475
0.305319
129.97
0.360691
129.594
0.346151
129.316
0.379289
129.101
0.346749
128.476
0.352145
127.282
0.332951
125.756
0.309362
124.434
0.277828
123.876
0.239492
123.834
0.199069
124.083
0.156747
124.612
0.107549
125.332
0.0388207
-0.145236
124.077
12.0499
0.173044
11.9581
-0.00533788
11.9188
-0.00514461
11.9921
0.025439
12.1625
0.0563034
12.3878
0.0793809
12.65
0.0972302
12.8987
0.0973255
13.1706
0.106286
13.4173
0.0997807
13.6684
0.100285
13.9063
0.0943582
14.1299
0.0852623
14.3351
0.0719829
14.5188
0.0551607
14.6813
0.0360446
14.8241
0.0134778
14.9483
-0.0172757
15.0582
-0.0716884
-0.239274
15.1517
6.53926
6.53361
6.52816
6.55328
6.60926
6.6883
6.78503
6.88218
6.98803
7.08763
7.1876
7.28164
7.3666
7.43829
7.49317
7.52894
7.54215
7.52462
7.45266
7.21313
7.40856
-1.38553
7.64503
-0.239525
7.57734
0.0652659
7.51796
0.0579246
7.55529
-0.0385365
7.61213
-0.0585446
7.62799
-0.0175154
7.62009
0.00655559
7.61377
0.00499578
7.62082
-0.00833046
7.63131
-0.0117823
7.63515
-0.00510894
7.63355
0.000399747
7.63004
0.00233649
7.62577
0.0031002
7.62255
0.00207806
7.62679
-0.00529658
7.64186
-0.0161768
7.65987
-0.019225
7.67144
-0.01285
7.67323
-0.00309147
7.66883
0.00313118
7.66171
0.0058075
7.65141
0.00894716
7.63664
0.0133572
7.6156
0.0195641
7.58633
0.0277539
7.54687
0.0379247
7.49516
0.050115
7.42903
0.0644431
7.34585
0.0811339
7.24185
0.100126
7.11562
0.119242
6.97049
0.140401
6.80901
0.158953
6.63554
0.172401
6.45807
0.180835
6.28189
0.178386
6.11413
0.167715
5.96259
0.150049
5.8324
0.128158
5.72525
0.104481
5.64044
0.0822706
5.57549
0.0626217
5.52694
0.0463563
5.49131
0.0335218
5.46549
0.0237652
5.44691
0.0165626
5.43356
0.0113694
5.42392
0.00769682
5.41688
0.00514307
5.41163
0.00339339
5.40761
0.00221109
5.40444
0.00142306
5.40185
0.000904221
5.39967
0.000567275
5.39778
0.000351291
5.3961
0.000214675
5.39459
0.00012942
5.39322
7.69379e-05
5.39197
4.5073e-05
5.39083
2.5992e-05
5.38978
1.47237e-05
5.38884
8.16072e-06
5.38798
4.39046e-06
5.38721
2.25352e-06
5.38652
1.05793e-06
5.38591
3.97058e-07
5.38538
3.62597e-08
5.38492
-1.60311e-07
5.38452
-2.66076e-07
5.38418
-3.238e-07
5.38389
-3.561e-07
5.38365
-3.74033e-07
5.38345
-3.86384e-07
5.38329
-3.94728e-07
5.38315
-4.01964e-07
5.38304
-4.07899e-07
5.38295
-4.13133e-07
5.38287
-4.17192e-07
5.38281
-4.20045e-07
5.38274
-4.22586e-07
5.38267
-4.24368e-07
5.3826
-4.25574e-07
5.38253
-4.26156e-07
5.38244
-4.25945e-07
5.38234
-4.25476e-07
5.38222
-4.23957e-07
5.38208
-4.21491e-07
5.38192
-4.1919e-07
5.38174
-4.1573e-07
5.38154
-4.12128e-07
5.38132
-4.07837e-07
5.38108
-4.03657e-07
5.38081
-3.98821e-07
5.38053
-3.94213e-07
5.38022
-3.89438e-07
5.37991
-3.84678e-07
5.37957
-3.84311e-07
5.37923
-3.77175e-07
5.37889
-3.71929e-07
5.37854
-3.65704e-07
5.37819
-3.60084e-07
5.37786
-3.612e-07
5.37753
-3.62108e-07
5.37722
-3.60114e-07
5.37693
-3.58026e-07
5.37666
-3.5674e-07
5.37643
-3.56391e-07
5.37622
-3.56622e-07
5.37606
-3.57661e-07
5.37593
-3.5913e-07
5.37584
-3.60606e-07
5.37579
-3.62836e-07
5.37578
-3.65106e-07
5.37581
-3.68109e-07
5.37589
-3.70901e-07
5.376
-3.74168e-07
5.37616
-3.77602e-07
5.37634
-3.81284e-07
5.37657
-3.83257e-07
5.37682
-3.89333e-07
5.37709
-3.91354e-07
5.37739
-3.94115e-07
5.3777
-3.99341e-07
5.37803
-4.01013e-07
5.37837
-4.06135e-07
5.37871
-4.09495e-07
5.37905
-4.11223e-07
5.37939
-4.12458e-07
5.37971
-4.13806e-07
5.38002
-4.15022e-07
5.3803
-4.15483e-07
5.38056
-4.15221e-07
5.38079
-4.14395e-07
5.38098
-4.12892e-07
5.38114
-4.1071e-07
5.38125
-4.08405e-07
5.38131
-4.05302e-07
5.38133
-4.0178e-07
5.3813
-3.97815e-07
5.38122
-3.9402e-07
5.3811
-3.89222e-07
5.38092
-3.85015e-07
5.3807
-3.81156e-07
5.38043
-3.75951e-07
5.38013
-3.71818e-07
5.37979
-3.67709e-07
5.37943
-3.64182e-07
5.37904
-3.61097e-07
5.37863
-3.58645e-07
5.37822
-3.56762e-07
5.37781
-3.557e-07
5.3774
-3.55452e-07
5.37701
-3.55991e-07
5.37664
-3.57437e-07
5.3763
-3.59771e-07
5.37599
-3.62597e-07
5.37572
-3.66075e-07
5.3755
-3.69815e-07
5.37532
-3.73757e-07
5.37519
-3.7784e-07
5.37511
-3.81924e-07
5.37507
-3.86583e-07
5.37509
-3.96971e-07
5.37516
-3.88703e-07
5.37527
-3.92707e-07
5.37542
-4.09906e-07
5.37561
-3.87634e-07
5.37585
-4.18439e-07
5.37612
-4.08436e-07
5.37642
-4.20145e-07
5.37676
-4.0988e-07
5.37712
-4.23961e-07
5.37751
-4.14437e-07
5.37793
-4.31402e-07
5.37836
-4.21633e-07
5.3788
-4.31732e-07
5.37926
-4.20618e-07
5.37971
-4.39644e-07
5.38016
-4.18922e-07
5.3806
-4.35246e-07
5.38102
-4.20361e-07
5.3814
-4.2916e-07
5.38175
-4.13209e-07
5.38205
-4.20539e-07
5.38229
-4.03237e-07
5.38247
-4.09696e-07
5.38259
-3.98039e-07
5.38264
-4.36536e-07
5.38261
-6.14558e-07
5.38252
-1.26943e-06
5.38235
-6.38053e-06
5.38215
-2.96659e-05
5.38199
-0.00015385
5.3824
-0.000791329
5.38609
-0.00412052
5.40781
-0.0222117
5.56938
-0.16209
-0.628674
6.1975
14.2172
-3.2441
14.7479
-0.776377
14.6614
0.14662
14.4856
0.230996
14.491
-0.0466013
14.585
-0.155847
14.625
-0.0608065
14.6079
0.0209004
14.5835
0.0267434
14.5861
-0.0134972
14.6042
-0.0324943
14.6148
-0.0181412
14.6125
0.000304642
14.6016
0.010862
14.5844
0.017919
14.5641
0.0200702
14.5548
0.00187725
14.5701
-0.0337272
14.6027
-0.0542768
14.6335
-0.0461248
14.6482
-0.0204019
14.6471
0.00170561
14.6357
0.0145928
14.6146
0.027404
14.5822
0.0429123
14.5359
0.0629354
14.4726
0.0880163
14.3894
0.118036
14.2835
0.152826
14.1523
0.192324
13.9929
0.236672
13.8017
0.285115
13.5784
0.334625
13.3282
0.385056
13.0553
0.427915
12.7678
0.457238
12.4785
0.470742
12.1965
0.459819
11.933
0.428919
11.6977
0.381913
11.4967
0.325309
11.3313
0.265772
11.1998
0.209465
11.0983
0.159966
11.0216
0.118844
10.9648
0.0862429
10.9232
0.0613272
10.8929
0.0428374
10.8709
0.0294451
10.8548
0.0199411
10.8428
0.0133175
10.8337
0.00877461
10.8266
0.00570535
10.8208
0.00366221
10.8161
0.00231973
10.812
0.00145038
10.8083
0.000895001
10.8051
0.000545033
10.8021
0.000327516
10.7994
0.000194173
10.7969
0.000113554
10.7947
6.548e-05
10.7926
3.72068e-05
10.7907
2.08061e-05
10.789
1.14217e-05
10.7874
6.12384e-06
10.786
3.17237e-06
10.7848
1.54933e-06
10.7838
6.68196e-07
10.7828
1.94123e-07
10.782
-5.74478e-08
10.7814
-1.90652e-07
10.7808
-2.61528e-07
10.7803
-2.99089e-07
10.7799
-3.20415e-07
10.7796
-3.33179e-07
10.7793
-3.42151e-07
10.7791
-3.48473e-07
10.7789
-3.53484e-07
10.7787
-3.5736e-07
10.7786
-3.59926e-07
10.7785
-3.62186e-07
10.7783
-3.63764e-07
10.7782
-3.64739e-07
10.778
-3.65307e-07
10.7779
-3.65148e-07
10.7777
-3.64649e-07
10.7774
-3.63424e-07
10.7771
-3.61358e-07
10.7768
-3.59267e-07
10.7765
-3.56407e-07
10.7761
-3.53261e-07
10.7756
-3.49636e-07
10.7751
-3.45987e-07
10.7746
-3.41914e-07
10.774
-3.37894e-07
10.7734
-3.33854e-07
10.7728
-3.30024e-07
10.7721
-3.28802e-07
10.7714
-3.23428e-07
10.7707
-3.18722e-07
10.7701
-3.13649e-07
10.7694
-3.09131e-07
10.7687
-3.09313e-07
10.768
-3.10088e-07
10.7674
-3.08717e-07
10.7668
-3.06943e-07
10.7663
-3.05825e-07
10.7658
-3.05538e-07
10.7654
-3.05734e-07
10.7651
-3.06597e-07
10.7648
-3.07839e-07
10.7646
-3.09128e-07
10.7645
-3.11003e-07
10.7645
-3.13065e-07
10.7646
-3.1548e-07
10.7647
-3.17942e-07
10.765
-3.20862e-07
10.7653
-3.23628e-07
10.7656
-3.26874e-07
10.7661
-3.28879e-07
10.7666
-3.33295e-07
10.7671
-3.3539e-07
10.7677
-3.38572e-07
10.7684
-3.41678e-07
10.769
-3.44016e-07
10.7697
-3.47933e-07
10.7704
-3.50854e-07
10.771
-3.52512e-07
10.7717
-3.53619e-07
10.7724
-3.54727e-07
10.773
-3.55712e-07
10.7735
-3.56144e-07
10.7741
-3.5596e-07
10.7745
-3.55211e-07
10.7749
-3.53978e-07
10.7752
-3.521e-07
10.7754
-3.50076e-07
10.7756
-3.47469e-07
10.7756
-3.44414e-07
10.7755
-3.41061e-07
10.7754
-3.37742e-07
10.7751
-3.33691e-07
10.7748
-3.30054e-07
10.7743
-3.26631e-07
10.7738
-3.22536e-07
10.7732
-3.18595e-07
10.7725
-3.15248e-07
10.7718
-3.12185e-07
10.771
-3.09553e-07
10.7702
-3.07459e-07
10.7694
-3.0581e-07
10.7685
-3.04929e-07
10.7677
-3.04754e-07
10.7669
-3.05186e-07
10.7662
-3.06412e-07
10.7655
-3.08407e-07
10.7649
-3.10897e-07
10.7644
-3.13804e-07
10.7639
-3.17009e-07
10.7635
-3.20447e-07
10.7633
-3.23868e-07
10.7631
-3.27157e-07
10.7631
-3.2848e-07
10.7631
-3.52355e-07
10.7632
-3.23374e-07
10.7634
-3.32221e-07
10.7637
-3.69024e-07
10.7641
-2.97735e-07
10.7646
-3.81225e-07
10.7651
-3.45443e-07
10.7657
-3.73881e-07
10.7664
-3.38407e-07
10.7671
-3.73806e-07
10.7679
-3.40665e-07
10.7687
-3.86032e-07
10.7696
-3.5181e-07
10.7705
-3.78504e-07
10.7714
-3.4335e-07
10.7723
-3.99268e-07
10.7732
-3.3777e-07
10.7741
-3.88669e-07
10.7749
-3.48491e-07
10.7757
-3.80362e-07
10.7764
-3.41663e-07
10.777
-3.73115e-07
10.7775
-3.34244e-07
10.7778
-3.66601e-07
10.7781
-3.46928e-07
10.7781
-4.75738e-07
10.7781
-1.02412e-06
10.7779
-3.03452e-06
10.7776
-1.78385e-05
10.7772
-8.72137e-05
10.7768
-0.000452219
10.7776
-0.00232795
10.7847
-0.0120304
10.8241
-0.0626221
11.0097
-0.348714
-1.43455
11.8144
120.731
0.0591813
119.953
-0.0377706
120.041
0.0194664
120.183
0.0503224
120.059
0.0374812
119.853
0.0129
119.758
-0.00186984
119.746
-0.00161975
119.739
0.00157329
119.691
0.00263149
119.625
0.00207819
119.576
0.0014234
119.546
0.00164456
119.526
0.00241566
119.512
0.00343917
119.5
0.00454407
119.468
0.00519686
119.401
0.0040405
119.318
9.58013e-05
119.254
-0.0107592
119.227
-0.0224018
119.238
-0.0376485
119.286
-0.0593792
119.381
-0.0889203
119.528
-0.127717
119.739
-0.175439
120.026
-0.230595
120.399
-0.290019
120.864
-0.348826
121.418
-0.4007
122.054
-0.439564
122.758
-0.460582
123.513
-0.46276
124.304
-0.448266
125.109
-0.419353
125.903
-0.380132
126.665
-0.335143
127.366
-0.287049
127.987
-0.239178
128.515
-0.194393
128.946
-0.154264
129.283
-0.119783
129.535
-0.0910585
129.714
-0.0677504
129.833
-0.049404
129.906
-0.0353042
129.944
-0.024731
129.956
-0.0169875
129.95
-0.011444
129.931
-0.00756159
129.904
-0.00490199
129.871
-0.00311772
129.836
-0.00194518
129.799
-0.00119117
129.761
-0.000715175
129.724
-0.000421133
129.689
-0.000243092
129.654
-0.000137462
129.622
-7.60703e-05
129.591
-4.11318e-05
129.562
-2.16716e-05
129.535
-1.10717e-05
129.51
-5.43114e-06
129.488
-2.50276e-06
129.467
-1.02266e-06
129.449
-2.96355e-07
129.433
4.90678e-08
129.418
2.07398e-07
129.405
2.77423e-07
129.394
3.07479e-07
129.384
3.20602e-07
129.376
3.27086e-07
129.369
3.31261e-07
129.364
3.3428e-07
129.359
3.37945e-07
129.355
3.41811e-07
129.352
3.46354e-07
129.349
3.50493e-07
129.347
3.54444e-07
129.345
3.57812e-07
129.343
3.60137e-07
129.342
3.62283e-07
129.34
3.63809e-07
129.338
3.64757e-07
129.337
3.65316e-07
129.334
3.65153e-07
129.332
3.6465e-07
129.329
3.63424e-07
129.326
3.61359e-07
129.322
3.59264e-07
129.318
3.56408e-07
129.313
3.53262e-07
129.307
3.49636e-07
129.302
3.45985e-07
129.295
3.41917e-07
129.288