/*--------------------------------*- C++ -*----------------------------------*\
| =========                 |                                                 |
| \\      /  F ield         | OpenFOAM: The Open Source CFD Toolbox           |
|  \\    /   O peration     | Version:  3.0.x                                 |
|   \\  /    A nd           | Web:      www.OpenFOAM.org                      |
|    \\/     M anipulation  |                                                 |
\*---------------------------------------------------------------------------*/
FoamFile
{
    version     2.0;
    format      ascii;
    class       volScalarField;
    location    "0.16";
    object      rho;
}
// * * * * * * * * * * * * * * * * * * * * * * * * * * * * * * * * * * * * * //

dimensions      [1 -3 0 0 0 0 0];

internalField   nonuniform List<scalar> 
6900
(
50.6754
50.6756
50.6759
50.6763
50.6767
50.677
50.6772
50.6775
50.6777
50.6779
50.6782
50.6786
50.679
50.6795
50.68
50.6805
50.6809
50.6812
50.6816
50.6819
50.6822
50.6825
50.6828
50.6831
50.6834
50.6837
50.684
50.6844
50.6847
50.685
50.6853
50.6856
50.6859
50.6862
50.6865
50.6868
50.6871
50.6873
50.6876
50.6878
50.688
50.6882
50.6884
50.6885
50.6886
50.6887
50.6887
50.6887
50.6887
50.6887
50.6886
50.6885
50.6884
50.6883
50.6881
50.688
50.6878
50.6876
50.6874
50.6872
50.687
50.6869
50.6867
50.6866
50.6865
50.6864
50.6863
50.6863
50.6864
50.6864
50.6865
50.6867
50.6869
50.6871
50.6874
50.6877
50.6881
50.6885
50.6889
50.6893
50.6898
50.6903
50.6908
50.6913
50.6918
50.6923
50.6927
50.6932
50.6937
50.6941
50.6945
50.6949
50.6953
50.6956
50.6959
50.6962
50.6964
50.6966
50.6967
50.6969
50.6969
50.697
50.6971
50.6971
50.6971
50.6971
50.697
50.697
50.6969
50.6969
50.6969
50.6968
50.6968
50.6968
50.6967
50.6967
50.6967
50.6967
50.6968
50.6968
50.6968
50.6968
50.6969
50.6969
50.697
50.697
50.697
50.697
50.697
50.697
50.697
50.697
50.6969
50.6969
50.6968
50.6967
50.6966
50.6965
50.6964
50.6963
50.6962
50.696
50.6959
50.6958
50.6956
50.6955
50.6954
50.6953
50.6952
50.6951
50.695
50.6949
50.6949
50.6948
50.6948
50.6948
50.6947
50.6947
50.6947
50.6946
50.6946
50.6945
50.6944
50.6942
50.6941
50.6939
50.6937
50.6935
50.6932
50.693
50.6927
50.6924
50.6922
50.6919
50.6916
50.6913
50.691
50.6908
50.6905
50.6903
50.6901
50.6899
50.6898
50.6897
50.6897
50.6897
50.6898
50.69
50.6902
50.6905
50.6909
50.6913
50.6918
50.6923
50.6929
50.6935
50.6941
50.6947
50.6957
50.6936
50.6755
50.6757
50.676
50.6764
50.6767
50.677
50.6773
50.6775
50.6778
50.678
50.6783
50.6786
50.6791
50.6796
50.6801
50.6805
50.6809
50.6813
50.6816
50.6819
50.6822
50.6825
50.6829
50.6832
50.6835
50.6838
50.6841
50.6844
50.6847
50.685
50.6854
50.6857
50.686
50.6863
50.6866
50.6868
50.6871
50.6874
50.6876
50.6879
50.6881
50.6882
50.6884
50.6885
50.6886
50.6887
50.6888
50.6888
50.6888
50.6887
50.6887
50.6886
50.6885
50.6883
50.6882
50.688
50.6878
50.6876
50.6874
50.6873
50.6871
50.6869
50.6868
50.6866
50.6865
50.6864
50.6864
50.6864
50.6864
50.6865
50.6866
50.6867
50.6869
50.6872
50.6875
50.6878
50.6881
50.6885
50.6889
50.6894
50.6898
50.6903
50.6908
50.6913
50.6918
50.6923
50.6928
50.6933
50.6937
50.6942
50.6946
50.695
50.6953
50.6957
50.696
50.6962
50.6964
50.6966
50.6968
50.6969
50.697
50.6971
50.6971
50.6971
50.6971
50.6971
50.6971
50.697
50.697
50.6969
50.6969
50.6969
50.6968
50.6968
50.6968
50.6968
50.6968
50.6968
50.6968
50.6968
50.6969
50.6969
50.6969
50.697
50.697
50.697
50.6971
50.6971
50.6971
50.6971
50.697
50.697
50.697
50.6969
50.6968
50.6968
50.6967
50.6966
50.6965
50.6963
50.6962
50.6961
50.6959
50.6958
50.6957
50.6955
50.6954
50.6953
50.6952
50.6951
50.695
50.695
50.6949
50.6949
50.6948
50.6948
50.6948
50.6947
50.6947
50.6947
50.6946
50.6945
50.6944
50.6943
50.6941
50.6939
50.6937
50.6935
50.6933
50.693
50.6928
50.6925
50.6922
50.6919
50.6916
50.6914
50.6911
50.6908
50.6906
50.6904
50.6902
50.69
50.6898
50.6898
50.6897
50.6898
50.6898
50.69
50.6902
50.6905
50.6909
50.6913
50.6918
50.6924
50.693
50.6935
50.6942
50.6948
50.6958
50.6939
50.6755
50.6757
50.676
50.6764
50.6767
50.677
50.6773
50.6775
50.6778
50.678
50.6783
50.6786
50.6791
50.6796
50.6801
50.6805
50.6809
50.6813
50.6816
50.6819
50.6822
50.6825
50.6829
50.6832
50.6835
50.6838
50.6841
50.6844
50.6847
50.685
50.6854
50.6857
50.686
50.6863
50.6866
50.6868
50.6871
50.6874
50.6876
50.6879
50.6881
50.6882
50.6884
50.6885
50.6886
50.6887
50.6888
50.6888
50.6888
50.6887
50.6887
50.6886
50.6885
50.6883
50.6882
50.688
50.6878
50.6876
50.6874
50.6873
50.6871
50.6869
50.6868
50.6866
50.6865
50.6864
50.6864
50.6864
50.6864
50.6865
50.6866
50.6867
50.6869
50.6872
50.6875
50.6878
50.6881
50.6885
50.6889
50.6894
50.6898
50.6903
50.6908
50.6913
50.6918
50.6923
50.6928
50.6933
50.6937
50.6942
50.6946
50.695
50.6953
50.6957
50.696
50.6962
50.6964
50.6966
50.6968
50.6969
50.697
50.6971
50.6971
50.6971
50.6971
50.6971
50.6971
50.697
50.697
50.6969
50.6969
50.6969
50.6968
50.6968
50.6968
50.6968
50.6968
50.6968
50.6968
50.6968
50.6969
50.6969
50.6969
50.697
50.697
50.697
50.6971
50.6971
50.6971
50.6971
50.697
50.697
50.697
50.6969
50.6968
50.6968
50.6967
50.6966
50.6965
50.6963
50.6962
50.6961
50.6959
50.6958
50.6957
50.6955
50.6954
50.6953
50.6952
50.6951
50.695
50.695
50.6949
50.6949
50.6948
50.6948
50.6948
50.6947
50.6947
50.6947
50.6946
50.6945
50.6944
50.6943
50.6941
50.6939
50.6937
50.6935
50.6933
50.693
50.6928
50.6925
50.6922
50.6919
50.6916
50.6914
50.6911
50.6908
50.6906
50.6904
50.6902
50.69
50.6898
50.6898
50.6897
50.6898
50.6898
50.69
50.6902
50.6905
50.6909
50.6913
50.6918
50.6924
50.693
50.6935
50.6942
50.6948
50.6954
50.6959
50.6755
50.6757
50.676
50.6764
50.6767
50.677
50.6773
50.6775
50.6778
50.678
50.6783
50.6786
50.6791
50.6796
50.6801
50.6805
50.6809
50.6813
50.6816
50.6819
50.6822
50.6825
50.6829
50.6832
50.6835
50.6838
50.6841
50.6844
50.6847
50.685
50.6854
50.6857
50.686
50.6863
50.6866
50.6868
50.6871
50.6874
50.6876
50.6879
50.6881
50.6882
50.6884
50.6885
50.6886
50.6887
50.6888
50.6888
50.6888
50.6887
50.6887
50.6886
50.6885
50.6883
50.6882
50.688
50.6878
50.6876
50.6874
50.6873
50.6871
50.6869
50.6868
50.6866
50.6865
50.6864
50.6864
50.6864
50.6864
50.6865
50.6866
50.6867
50.6869
50.6872
50.6875
50.6878
50.6881
50.6885
50.6889
50.6894
50.6898
50.6903
50.6908
50.6913
50.6918
50.6923
50.6928
50.6933
50.6937
50.6942
50.6946
50.695
50.6953
50.6957
50.696
50.6962
50.6964
50.6966
50.6968
50.6969
50.697
50.6971
50.6971
50.6971
50.6971
50.6971
50.6971
50.697
50.697
50.6969
50.6969
50.6969
50.6968
50.6968
50.6968
50.6968
50.6968
50.6968
50.6968
50.6968
50.6969
50.6969
50.6969
50.697
50.697
50.697
50.6971
50.6971
50.6971
50.6971
50.697
50.697
50.697
50.6969
50.6968
50.6968
50.6967
50.6966
50.6965
50.6963
50.6962
50.6961
50.6959
50.6958
50.6957
50.6955
50.6954
50.6953
50.6952
50.6951
50.695
50.695
50.6949
50.6949
50.6948
50.6948
50.6948
50.6947
50.6947
50.6947
50.6946
50.6945
50.6944
50.6943
50.6941
50.6939
50.6937
50.6935
50.6933
50.693
50.6928
50.6925
50.6922
50.6919
50.6916
50.6914
50.6911
50.6908
50.6906
50.6904
50.6901
50.69
50.6898
50.6898
50.6897
50.6898
50.6898
50.69
50.6902
50.6905
50.6909
50.6913
50.6918
50.6924
50.6929
50.6936
50.6941
50.6948
50.6946
50.7009
50.6754
50.6756
50.6759
50.6763
50.6767
50.677
50.6772
50.6775
50.6777
50.6779
50.6782
50.6786
50.679
50.6795
50.68
50.6805
50.6809
50.6812
50.6816
50.6819
50.6822
50.6825
50.6828
50.6831
50.6834
50.6837
50.684
50.6844
50.6847
50.685
50.6853
50.6856
50.6859
50.6862
50.6865
50.6868
50.6871
50.6873
50.6876
50.6878
50.688
50.6882
50.6884
50.6885
50.6886
50.6887
50.6887
50.6887
50.6887
50.6887
50.6886
50.6885
50.6884
50.6883
50.6881
50.688
50.6878
50.6876
50.6874
50.6872
50.687
50.6869
50.6867
50.6866
50.6865
50.6864
50.6863
50.6863
50.6864
50.6864
50.6865
50.6867
50.6869
50.6871
50.6874
50.6877
50.6881
50.6885
50.6889
50.6893
50.6898
50.6903
50.6908
50.6913
50.6918
50.6923
50.6927
50.6932
50.6937
50.6941
50.6945
50.6949
50.6953
50.6956
50.6959
50.6962
50.6964
50.6966
50.6967
50.6969
50.6969
50.697
50.6971
50.6971
50.6971
50.6971
50.697
50.697
50.6969
50.6969
50.6969
50.6968
50.6968
50.6968
50.6967
50.6967
50.6967
50.6967
50.6968
50.6968
50.6968
50.6968
50.6969
50.6969
50.697
50.697
50.697
50.697
50.697
50.697
50.697
50.697
50.6969
50.6969
50.6968
50.6967
50.6966
50.6965
50.6964
50.6963
50.6962
50.696
50.6959
50.6958
50.6956
50.6955
50.6954
50.6953
50.6952
50.6951
50.695
50.6949
50.6949
50.6948
50.6948
50.6948
50.6947
50.6947
50.6947
50.6946
50.6946
50.6945
50.6944
50.6942
50.6941
50.6939
50.6937
50.6935
50.6932
50.693
50.6927
50.6924
50.6922
50.6919
50.6916
50.6913
50.691
50.6908
50.6905
50.6903
50.6901
50.6899
50.6898
50.6897
50.6897
50.6897
50.6898
50.69
50.6902
50.6905
50.6909
50.6913
50.6918
50.6923
50.6929
50.6935
50.6941
50.6948
50.6941
50.7061
50.7109
50.7174
50.7182
50.7165
50.715
50.7136
50.7112
50.7079
50.7047
50.7029
50.7047
50.7104
50.7117
50.7045
50.6906
50.6762
50.6666
50.6584
50.6505
50.6526
50.7076
50.7108
50.7108
50.7093
50.7079
50.7064
50.7041
50.7008
50.6977
50.6961
50.6983
50.7046
50.7045
50.6952
50.679
50.6657
50.657
50.6495
50.643
50.6444
50.697
50.697
50.696
50.6941
50.6916
50.6884
50.6845
50.68
50.6744
50.6679
50.6602
50.6516
50.6433
50.6358
50.6287
50.6208
50.6112
50.6008
50.5897
50.5771
50.6759
50.6732
50.674
50.6754
50.6743
50.6708
50.6659
50.6592
50.6536
50.6466
50.6406
50.6336
50.6273
50.6212
50.615
50.6098
50.6051
50.6015
50.5984
50.5963
50.6666
50.6553
50.6511
50.6505
50.6484
50.6437
50.6377
50.6299
50.6229
50.6146
50.6072
50.5991
50.5915
50.5837
50.5768
50.5702
50.5647
50.5599
50.5565
50.5548
50.6332
50.5998
50.5869
50.5872
50.5877
50.5862
50.5845
50.5844
50.585
50.5854
50.5855
50.5855
50.5855
50.5856
50.5857
50.5859
50.5862
50.5868
50.5869
50.5866
50.586
50.5857
50.5855
50.5854
50.5852
50.5849
50.5846
50.5845
50.5845
50.5844
50.5833
50.5757
50.546
50.5146
50.5042
50.5067
50.5301
50.5723
50.5957
50.6036
50.6039
50.6006
50.5949
50.5914
50.5893
50.5882
50.5876
50.5872
50.5869
50.5868
50.5867
50.5866
50.5866
50.5866
50.5867
50.5867
50.5868
50.5869
50.587
50.5871
50.5873
50.5874
50.5876
50.5877
50.5878
50.588
50.5881
50.5882
50.5883
50.5884
50.5885
50.5885
50.5885
50.5885
50.5885
50.5885
50.5885
50.5884
50.5883
50.5882
50.5881
50.5879
50.5878
50.5876
50.5874
50.5873
50.5871
50.5869
50.5868
50.5866
50.5865
50.5864
50.5863
50.5862
50.5861
50.586
50.586
50.586
50.586
50.586
50.586
50.5861
50.5862
50.5862
50.5863
50.5864
50.5865
50.5867
50.5868
50.5869
50.587
50.5871
50.5872
50.5874
50.5874
50.5875
50.5876
50.5877
50.5877
50.5878
50.5878
50.5878
50.5878
50.5878
50.5877
50.5877
50.5876
50.5875
50.5874
50.5873
50.5872
50.5871
50.587
50.5869
50.5867
50.5866
50.5865
50.5864
50.5863
50.5862
50.5861
50.5861
50.586
50.586
50.586
50.586
50.5861
50.5861
50.5862
50.5863
50.5864
50.5865
50.5866
50.5867
50.5868
50.587
50.5871
50.5872
50.5872
50.5873
50.5874
50.5874
50.5875
50.5875
50.5875
50.5874
50.5874
50.5873
50.5873
50.5872
50.5871
50.587
50.5869
50.5867
50.5866
50.5864
50.5862
50.5861
50.5859
50.5857
50.5855
50.5853
50.5851
50.5849
50.5847
50.5845
50.5844
50.5843
50.5842
50.5841
50.5841
50.5841
50.5841
50.5842
50.5842
50.5844
50.5845
50.5848
50.5839
50.5921
50.6315
50.5988
50.5865
50.5865
50.5868
50.585
50.5835
50.5834
50.5839
50.5842
50.5843
50.5842
50.5842
50.5843
50.5844
50.5846
50.5848
50.5851
50.5853
50.5849
50.5845
50.5842
50.5841
50.5839
50.5837
50.5833
50.5832
50.5831
50.5832
50.5832
50.5824
50.5769
50.5609
50.549
50.5457
50.5474
50.5585
50.5756
50.5853
50.5894
50.5905
50.5903
50.5896
50.5887
50.5881
50.5876
50.5873
50.5871
50.5869
50.5868
50.5867
50.5867
50.5866
50.5867
50.5867
50.5868
50.5869
50.587
50.5871
50.5872
50.5873
50.5875
50.5876
50.5877
50.5879
50.588
50.5881
50.5883
50.5884
50.5884
50.5885
50.5886
50.5886
50.5886
50.5886
50.5886
50.5885
50.5884
50.5883
50.5882
50.5881
50.588
50.5878
50.5876
50.5875
50.5873
50.5872
50.587
50.5868
50.5867
50.5865
50.5864
50.5863
50.5862
50.5861
50.5861
50.586
50.586
50.586
50.586
50.5861
50.5861
50.5862
50.5863
50.5864
50.5865
50.5866
50.5867
50.5868
50.5869
50.5871
50.5872
50.5873
50.5874
50.5875
50.5876
50.5876
50.5877
50.5878
50.5878
50.5878
50.5878
50.5878
50.5878
50.5878
50.5877
50.5877
50.5876
50.5875
50.5874
50.5873
50.5871
50.587
50.5869
50.5868
50.5867
50.5865
50.5864
50.5863
50.5862
50.5862
50.5861
50.5861
50.5861
50.5861
50.5861
50.5861
50.5862
50.5862
50.5863
50.5864
50.5865
50.5866
50.5868
50.5869
50.587
50.5871
50.5872
50.5873
50.5874
50.5874
50.5875
50.5875
50.5875
50.5875
50.5875
50.5874
50.5874
50.5873
50.5872
50.5871
50.587
50.5869
50.5868
50.5866
50.5865
50.5863
50.5861
50.5859
50.5857
50.5855
50.5853
50.5851
50.5849
50.5847
50.5846
50.5844
50.5843
50.5842
50.5841
50.5841
50.5841
50.5841
50.5842
50.5843
50.5844
50.5846
50.5848
50.5843
50.5878
50.5439
50.5573
50.5666
50.5683
50.5673
50.5667
50.5668
50.5672
50.5674
50.5675
50.5675
50.5676
50.5677
50.5678
50.5679
50.5678
50.5677
50.5675
50.5673
50.5673
50.5673
50.5676
50.5688
50.5727
50.5772
50.5806
50.5829
50.5842
50.5849
50.5853
50.5855
50.5855
50.5857
50.5859
50.5864
50.5872
50.5879
50.5882
50.5883
50.5882
50.588
50.5878
50.5875
50.5873
50.5872
50.587
50.5869
50.5868
50.5867
50.5867
50.5866
50.5866
50.5866
50.5866
50.5867
50.5868
50.5869
50.587
50.5871
50.5872
50.5873
50.5875
50.5876
50.5877
50.5879
50.588
50.5881
50.5883
50.5884
50.5884
50.5885
50.5886
50.5886
50.5886
50.5886
50.5886
50.5885
50.5884
50.5883
50.5882
50.5881
50.588
50.5878
50.5876
50.5875
50.5873
50.5872
50.587
50.5868
50.5867
50.5865
50.5864
50.5863
50.5862
50.5861
50.5861
50.586
50.586
50.586
50.586
50.5861
50.5861
50.5862
50.5863
50.5864
50.5865
50.5866
50.5867
50.5868
50.5869
50.5871
50.5872
50.5873
50.5874
50.5875
50.5876
50.5876
50.5877
50.5878
50.5878
50.5878
50.5878
50.5878
50.5878
50.5878
50.5877
50.5877
50.5876
50.5875
50.5874
50.5873
50.5871
50.587
50.5869
50.5868
50.5867
50.5865
50.5864
50.5863
50.5862
50.5862
50.5861
50.5861
50.5861
50.5861
50.5861
50.5861
50.5862
50.5862
50.5863
50.5864
50.5865
50.5866
50.5868
50.5869
50.587
50.5871
50.5872
50.5873
50.5874
50.5874
50.5875
50.5875
50.5875
50.5875
50.5875
50.5874
50.5874
50.5873
50.5872
50.5871
50.587
50.5869
50.5868
50.5866
50.5865
50.5863
50.5861
50.5859
50.5857
50.5855
50.5853
50.5851
50.5849
50.5847
50.5846
50.5844
50.5843
50.5842
50.5841
50.5841
50.5841
50.5841
50.5842
50.5843
50.5844
50.5846
50.5848
50.585
50.5852
50.589
50.586
50.585
50.5843
50.5836
50.5832
50.5835
50.584
50.5843
50.5845
50.5846
50.5849
50.5851
50.5853
50.5854
50.5856
50.5856
50.5856
50.5856
50.5855
50.5854
50.5854
50.5852
50.5849
50.5847
50.5844
50.5839
50.5829
50.5823
50.582
50.5817
50.5804
50.5768
50.5745
50.5741
50.5746
50.5775
50.5829
50.5865
50.5883
50.5889
50.5889
50.5887
50.5883
50.5878
50.5875
50.5872
50.587
50.5868
50.5867
50.5867
50.5866
50.5866
50.5867
50.5867
50.5868
50.5869
50.587
50.5871
50.5872
50.5873
50.5875
50.5876
50.5877
50.5879
50.588
50.5881
50.5883
50.5884
50.5884
50.5885
50.5886
50.5886
50.5886
50.5886
50.5886
50.5885
50.5884
50.5883
50.5882
50.5881
50.588
50.5878
50.5876
50.5875
50.5873
50.5872
50.587
50.5868
50.5867
50.5865
50.5864
50.5863
50.5862
50.5861
50.5861
50.586
50.586
50.586
50.586
50.5861
50.5861
50.5862
50.5863
50.5864
50.5865
50.5866
50.5867
50.5868
50.5869
50.5871
50.5872
50.5873
50.5874
50.5875
50.5876
50.5876
50.5877
50.5878
50.5878
50.5878
50.5878
50.5878
50.5878
50.5878
50.5877
50.5877
50.5876
50.5875
50.5874
50.5873
50.5871
50.587
50.5869
50.5868
50.5867
50.5865
50.5864
50.5863
50.5862
50.5862
50.5861
50.5861
50.5861
50.5861
50.5861
50.5861
50.5862
50.5862
50.5863
50.5864
50.5865
50.5866
50.5868
50.5869
50.587
50.5871
50.5872
50.5873
50.5874
50.5874
50.5875
50.5875
50.5875
50.5875
50.5875
50.5874
50.5874
50.5873
50.5872
50.5871
50.587
50.5869
50.5868
50.5866
50.5865
50.5863
50.5861
50.5859
50.5857
50.5855
50.5853
50.5851
50.5849
50.5847
50.5846
50.5844
50.5843
50.5842
50.5841
50.5841
50.5841
50.5841
50.5842
50.5843
50.5844
50.5846
50.5848
50.5854
50.5845
50.5745
50.5773
50.577
50.5767
50.576
50.5757
50.576
50.5764
50.5768
50.577
50.5772
50.5774
50.5776
50.5778
50.578
50.578
50.578
50.578
50.578
50.5778
50.5777
50.5776
50.5774
50.5772
50.5764
50.5758
50.5757
50.576
50.577
50.5775
50.5767
50.5694
50.5491
50.5347
50.53
50.5303
50.5365
50.5527
50.5661
50.5751
50.5806
50.5838
50.5855
50.5863
50.5867
50.5868
50.5868
50.5867
50.5867
50.5866
50.5866
50.5866
50.5866
50.5866
50.5866
50.5867
50.5868
50.5869
50.587
50.5871
50.5873
50.5874
50.5876
50.5877
50.5878
50.588
50.5881
50.5882
50.5883
50.5884
50.5885
50.5885
50.5885
50.5885
50.5885
50.5885
50.5885
50.5884
50.5883
50.5882
50.5881
50.5879
50.5878
50.5876
50.5874
50.5873
50.5871
50.5869
50.5868
50.5866
50.5865
50.5864
50.5863
50.5862
50.5861
50.586
50.586
50.586
50.586
50.586
50.586
50.5861
50.5862
50.5862
50.5863
50.5864
50.5865
50.5867
50.5868
50.5869
50.587
50.5871
50.5872
50.5874
50.5874
50.5875
50.5876
50.5877
50.5877
50.5878
50.5878
50.5878
50.5878
50.5878
50.5877
50.5877
50.5876
50.5875
50.5874
50.5873
50.5872
50.5871
50.587
50.5869
50.5867
50.5866
50.5865
50.5864
50.5863
50.5862
50.5861
50.5861
50.586
50.586
50.586
50.586
50.5861
50.5861
50.5862
50.5863
50.5864
50.5865
50.5866
50.5867
50.5868
50.587
50.5871
50.5872
50.5872
50.5873
50.5874
50.5874
50.5875
50.5875
50.5875
50.5874
50.5874
50.5873
50.5873
50.5872
50.5871
50.587
50.5869
50.5867
50.5866
50.5864
50.5862
50.5861
50.5859
50.5857
50.5855
50.5853
50.5851
50.5849
50.5847
50.5845
50.5844
50.5842
50.5842
50.5841
50.5841
50.5841
50.5841
50.5842
50.5843
50.5844
50.5846
50.5848
50.5854
50.5843
50.5584
50.5467
50.5424
50.5415
50.5394
50.5347
50.5284
50.5219
50.5144
50.5072
50.4996
50.4917
50.4845
50.4771
50.4708
50.4646
50.4597
50.4552
50.452
50.4505
50.5667
50.5638
50.5644
50.5655
50.5644
50.5609
50.5553
50.5504
50.5438
50.5383
50.5315
50.5254
50.5192
50.5131
50.5078
50.5029
50.4984
50.495
50.492
50.4902
50.5861
50.586
50.5851
50.5833
50.5808
50.5777
50.5741
50.5695
50.564
50.5573
50.5501
50.5429
50.5363
50.5297
50.5217
50.5126
50.5028
50.4922
50.4806
50.4672
50.5957
50.599
50.5989
50.5975
50.5959
50.5944
50.5922
50.5897
50.5884
50.5914
50.5948
50.5922
50.5822
50.5689
50.5593
50.5516
50.5444
50.5386
50.5371
50.5528
50.5989
50.6053
50.6061
50.6044
50.6028
50.6012
50.5989
50.5964
50.595
50.5975
50.6008
50.5993
50.5913
50.5783
50.5679
50.5597
50.5519
50.545
50.5434
50.5593
50.4688
50.471
50.4708
50.4702
50.4694
50.4691
50.4693
50.4697
50.4698
50.47
50.4701
50.4702
50.4704
50.4704
50.4705
50.4705
50.4703
50.4702
50.4701
50.47
50.47
50.4699
50.4697
50.4695
50.469
50.4684
50.4681
50.4682
50.4688
50.4698
50.4701
50.4682
50.4563
50.4361
50.4254
50.423
50.4248
50.4347
50.4512
50.4632
50.4711
50.476
50.4788
50.4804
50.4813
50.4818
50.482
50.4822
50.4823
50.4824
50.4825
50.4826
50.4827
50.4828
50.4829
50.483
50.4832
50.4833
50.4834
50.4835
50.4836
50.4836
50.4837
50.4837
50.4838
50.4838
50.4838
50.4838
50.4838
50.4838
50.4837
50.4836
50.4836
50.4834
50.4833
50.4832
50.483
50.4829
50.4827
50.4825
50.4823
50.4821
50.4819
50.4817
50.4815
50.4813
50.4811
50.481
50.4808
50.4807
50.4807
50.4806
50.4806
50.4806
50.4807
50.4808
50.4808
50.481
50.4801
50.4878
50.4827
50.4795
50.4785
50.4776
50.4767
50.4764
50.4767
50.477
50.4772
50.4772
50.4774
50.4775
50.4776
50.4777
50.4778
50.4778
50.4778
50.4777
50.4776
50.4775
50.4775
50.4774
50.4773
50.4771
50.4767
50.4764
50.4762
50.4756
50.4749
50.4746
50.4746
50.4742
50.4722
50.4689
50.4676
50.4677
50.4689
50.4729
50.478
50.4811
50.4826
50.4832
50.4833
50.4832
50.483
50.4827
50.4826
50.4825
50.4825
50.4826
50.4826
50.4827
50.4828
50.4829
50.483
50.4831
50.4832
50.4833
50.4834
50.4835
50.4836
50.4837
50.4837
50.4838
50.4838
50.4839
50.4839
50.4839
50.4838
50.4838
50.4838
50.4837
50.4836
50.4835
50.4834
50.4832
50.4831
50.4829
50.4827
50.4825
50.4823
50.4821
50.4819
50.4817
50.4815
50.4813
50.4811
50.481
50.4809
50.4808
50.4807
50.4807
50.4807
50.4807
50.4807
50.4808
50.4809
50.481
50.4804
50.4836
50.4406
50.4527
50.4607
50.4619
50.4607
50.4602
50.4604
50.4606
50.4607
50.4608
50.4608
50.4608
50.4608
50.4608
50.4609
50.4608
50.4607
50.4604
50.46
50.4598
50.4597
50.4597
50.46
50.4618
50.4661
50.4702
50.4731
50.475
50.4761
50.4768
50.4772
50.4775
50.4778
50.4781
50.4786
50.4796
50.4806
50.4814
50.4819
50.4821
50.4822
50.4822
50.4821
50.4821
50.4821
50.4822
50.4822
50.4823
50.4824
50.4824
50.4825
50.4826
50.4827
50.4828
50.483
50.4831
50.4832
50.4833
50.4834
50.4835
50.4836
50.4837
50.4837
50.4838
50.4838
50.4839
50.4839
50.4839
50.4838
50.4838
50.4838
50.4837
50.4836
50.4835
50.4834
50.4832
50.4831
50.4829
50.4827
50.4825
50.4823
50.4821
50.4819
50.4817
50.4815
50.4813
50.4811
50.481
50.4809
50.4808
50.4807
50.4807
50.4807
50.4807
50.4807
50.4808
50.4809
50.481
50.4812
50.4813
50.5233
50.4847
50.4787
50.4825
50.4816
50.4779
50.4764
50.4767
50.4771
50.4772
50.4769
50.4767
50.4768
50.4768
50.4769
50.477
50.4775
50.4775
50.4769
50.4764
50.4762
50.4763
50.4762
50.476
50.4758
50.4753
50.4749
50.4747
50.4747
50.4748
50.4748
50.4735
50.4654
50.4494
50.4407
50.4394
50.4428
50.4573
50.4728
50.481
50.4843
50.485
50.4848
50.4841
50.4834
50.483
50.4828
50.4827
50.4826
50.4826
50.4826
50.4827
50.4828
50.4829
50.483
50.4831
50.4832
50.4833
50.4834
50.4835
50.4836
50.4837
50.4837
50.4838
50.4838
50.4839
50.4839
50.4839
50.4838
50.4838
50.4838
50.4837
50.4836
50.4835
50.4834
50.4832
50.4831
50.4829
50.4827
50.4825
50.4823
50.4821
50.4819
50.4817
50.4815
50.4813
50.4811
50.481
50.4809
50.4808
50.4807
50.4807
50.4807
50.4807
50.4807
50.4808
50.4809
50.4811
50.4816
50.4808
50.5266
50.4855
50.4793
50.483
50.4827
50.4788
50.4773
50.4778
50.4783
50.4785
50.4782
50.4779
50.478
50.4781
50.4781
50.4783
50.479
50.4791
50.4785
50.4779
50.4777
50.4775
50.4775
50.4775
50.4773
50.4771
50.4767
50.4763
50.4762
50.4763
50.4762
50.4745
50.4639
50.4312
50.4064
50.4004
50.4056
50.4347
50.4727
50.4917
50.4974
50.4972
50.4935
50.4885
50.4856
50.4841
50.4833
50.4829
50.4827
50.4826
50.4826
50.4827
50.4828
50.4828
50.4829
50.4831
50.4832
50.4833
50.4834
50.4835
50.4836
50.4836
50.4837
50.4837
50.4838
50.4838
50.4838
50.4838
50.4838
50.4838
50.4837
50.4836
50.4836
50.4834
50.4833
50.4832
50.483
50.4829
50.4827
50.4825
50.4823
50.4821
50.4819
50.4816
50.4815
50.4813
50.4811
50.481
50.4808
50.4807
50.4807
50.4806
50.4806
50.4806
50.4807
50.4808
50.4809
50.481
50.4816
50.4806
50.4545
50.4427
50.4383
50.4374
50.4352
50.4305
50.4242
50.4176
50.4101
50.4028
50.3952
50.3873
50.38
50.3726
50.3662
50.36
50.355
50.3504
50.3472
50.3456
50.4627
50.4598
50.4604
50.4615
50.4603
50.4568
50.4512
50.4462
50.4396
50.4341
50.4272
50.4211
50.4149
50.4087
50.4034
50.3984
50.3939
50.3903
50.3874
50.3855
50.4821
50.4821
50.4812
50.4793
50.4769
50.4737
50.4701
50.4654
50.46
50.4532
50.4459
50.4387
50.432
50.4254
50.4174
50.4083
50.3985
50.3879
50.3763
50.3629
50.4918
50.495
50.495
50.4935
50.492
50.4904
50.4882
50.4857
50.4843
50.487
50.4906
50.4884
50.4786
50.4651
50.4552
50.4475
50.4402
50.4342
50.4324
50.4477
50.495
50.5014
50.5021
50.5004
50.4989
50.4972
50.495
50.4925
50.4909
50.4931
50.4966
50.4954
50.4877
50.4746
50.4639
50.4556
50.4478
50.4407
50.4387
50.4541
50.3639
50.366
50.3661
50.3655
50.3647
50.3644
50.3646
50.365
50.3652
50.3654
50.3656
50.3658
50.366
50.3662
50.3664
50.3665
50.3665
50.3665
50.3664
50.3664
50.3663
50.3662
50.3661
50.3656
50.3649
50.3646
50.3648
50.3654
50.3664
50.3667
50.3648
50.3527
50.3331
50.3229
50.3208
50.3228
50.3334
50.3496
50.3612
50.3687
50.3733
50.3759
50.3773
50.378
50.3784
50.3785
50.3785
50.3786
50.3786
50.3786
50.3786
50.3786
50.3787
50.3787
50.3788
50.3789
50.379
50.3791
50.3792
50.3793
50.3794
50.3795
50.3796
50.3798
50.3798
50.3799
50.38
50.3801
50.3801
50.3801
50.3802
50.3802
50.3801
50.3801
50.3801
50.38
50.38
50.3799
50.3798
50.3797
50.3796
50.3795
50.3794
50.3793
50.3792
50.3791
50.379
50.3789
50.3788
50.3788
50.3787
50.3787
50.3786
50.3786
50.3786
50.3786
50.3786
50.3786
50.3786
50.3786
50.3786
50.3786
50.3787
50.3787
50.3787
50.3788
50.3788
50.3788
50.3788
50.3788
50.3789
50.3789
50.3789
50.3789
50.3789
50.3789
50.3788
50.3788
50.3788
50.3788
50.3787
50.3787
50.3787
50.3786
50.3786
50.3785
50.3785
50.3784
50.3784
50.3783
50.3783
50.3782
50.3782
50.3782
50.3782
50.3782
50.3782
50.3782
50.3782
50.3782
50.3783
50.3784
50.3784
50.3785
50.3786
50.3786
50.3787
50.3788
50.3788
50.3789
50.3789
50.379
50.379
50.379
50.379
50.379
50.379
50.3789
50.3789
50.3788
50.3787
50.3786
50.3786
50.3785
50.3784
50.3783
50.3782
50.3781
50.378
50.3779
50.3779
50.3778
50.3777
50.3777
50.3776
50.3776
50.3776
50.3775
50.3776
50.3776
50.3776
50.3777
50.3778
50.3779
50.3781
50.3782
50.3784
50.3787
50.3789
50.3792
50.3796
50.3799
50.3803
50.3806
50.381
50.3814
50.3819
50.3823
50.3831
50.3821
50.3776
50.3745
50.3738
50.373
50.3721
50.3718
50.372
50.3724
50.3726
50.3727
50.3729
50.3731
50.3733
50.3735
50.3737
50.3738
50.3738
50.3739
50.3738
50.3738
50.3738
50.3738
50.3737
50.3733
50.3732
50.373
50.3724
50.3717
50.3714
50.3714
50.371
50.369
50.3661
50.3651
50.3653
50.3666
50.371
50.3757
50.3784
50.3797
50.3801
50.3801
50.3799
50.3796
50.3792
50.379
50.3789
50.3788
50.3787
50.3787
50.3787
50.3787
50.3787
50.3788
50.3789
50.3789
50.379
50.3791
50.3792
50.3794
50.3795
50.3796
50.3797
50.3798
50.3799
50.38
50.38
50.3801
50.3802
50.3802
50.3802
50.3802
50.3802
50.3802
50.3801
50.3801
50.38
50.3799
50.3798
50.3797
50.3796
50.3795
50.3794
50.3793
50.3792
50.3791
50.379
50.379
50.3789
50.3788
50.3788
50.3787
50.3787
50.3786
50.3786
50.3786
50.3786
50.3786
50.3786
50.3786
50.3787
50.3787
50.3787
50.3787
50.3788
50.3788
50.3788
50.3789
50.3789
50.3789
50.3789
50.3789
50.3789
50.3789
50.3789
50.3789
50.3789
50.3789
50.3788
50.3788
50.3788
50.3787
50.3787
50.3787
50.3786
50.3786
50.3785
50.3785
50.3784
50.3784
50.3783
50.3783
50.3783
50.3782
50.3782
50.3782
50.3782
50.3782
50.3783
50.3783
50.3783
50.3784
50.3785
50.3785
50.3786
50.3787
50.3787
50.3788
50.3789
50.3789
50.379
50.379
50.3791
50.3791
50.3791
50.379
50.379
50.379
50.3789
50.3788
50.3788
50.3787
50.3786
50.3785
50.3784
50.3783
50.3782
50.3782
50.3781
50.378
50.3779
50.3778
50.3778
50.3777
50.3777
50.3776
50.3776
50.3776
50.3776
50.3776
50.3777
50.3777
50.3778
50.3779
50.3781
50.3783
50.3785
50.3787
50.379
50.3793
50.3796
50.3799
50.3803
50.3807
50.3811
50.3815
50.3819
50.3823
50.3831
50.3823
50.3354
50.3481
50.3563
50.3573
50.3562
50.3557
50.356
50.3563
50.3565
50.3566
50.3567
50.3567
50.3566
50.3567
50.3567
50.3567
50.3564
50.3562
50.356
50.356
50.356
50.3563
50.3577
50.3618
50.3661
50.3693
50.3715
50.3728
50.3736
50.3741
50.3745
50.3748
50.3752
50.3758
50.3768
50.3778
50.3785
50.3789
50.3791
50.3791
50.379
50.3789
50.3788
50.3788
50.3787
50.3787
50.3786
50.3786
50.3786
50.3786
50.3786
50.3787
50.3787
50.3788
50.3788
50.3789
50.379
50.3791
50.3792
50.3794
50.3795
50.3796
50.3797
50.3798
50.3799
50.38
50.38
50.3801
50.3802
50.3802
50.3802
50.3802
50.3802
50.3802
50.3801
50.3801
50.38
50.3799
50.3798
50.3797
50.3796
50.3795
50.3794
50.3793
50.3792
50.3791
50.379
50.379
50.3789
50.3788
50.3788
50.3787
50.3787
50.3786
50.3786
50.3786
50.3786
50.3786
50.3786
50.3786
50.3787
50.3787
50.3787
50.3787
50.3788
50.3788
50.3788
50.3789
50.3789
50.3789
50.3789
50.3789
50.3789
50.3789
50.3789
50.3789
50.3789
50.3789
50.3788
50.3788
50.3788
50.3787
50.3787
50.3787
50.3786
50.3786
50.3785
50.3785
50.3784
50.3784
50.3783
50.3783
50.3783
50.3782
50.3782
50.3782
50.3782
50.3782
50.3783
50.3783
50.3783
50.3784
50.3785
50.3785
50.3786
50.3787
50.3787
50.3788
50.3789
50.3789
50.379
50.379
50.3791
50.3791
50.3791
50.379
50.379
50.379
50.3789
50.3788
50.3788
50.3787
50.3786
50.3785
50.3784
50.3783
50.3782
50.3782
50.3781
50.378
50.3779
50.3778
50.3778
50.3777
50.3777
50.3776
50.3776
50.3776
50.3776
50.3776
50.3777
50.3777
50.3778
50.3779
50.3781
50.3783
50.3785
50.3787
50.379
50.3793
50.3796
50.3799
50.3803
50.3807
50.3811
50.3815
50.3819
50.3823
50.3827
50.383
50.4172
50.3795
50.3742
50.3779
50.3764
50.3729
50.3718
50.3722
50.3725
50.3725
50.3724
50.3724
50.3725
50.3727
50.3728
50.373
50.3734
50.3736
50.3732
50.3728
50.3726
50.3726
50.3725
50.3723
50.3721
50.3718
50.3717
50.3718
50.3719
50.3719
50.3703
50.3615
50.3461
50.3384
50.3377
50.3418
50.357
50.3713
50.3786
50.3812
50.3817
50.3814
50.3806
50.3799
50.3795
50.3792
50.379
50.3788
50.3787
50.3787
50.3787
50.3787
50.3787
50.3788
50.3789
50.3789
50.379
50.3791
50.3792
50.3794
50.3795
50.3796
50.3797
50.3798
50.3799
50.38
50.38
50.3801
50.3802
50.3802
50.3802
50.3802
50.3802
50.3802
50.3801
50.3801
50.38
50.3799
50.3798
50.3797
50.3796
50.3795
50.3794
50.3793
50.3792
50.3791
50.379
50.379
50.3789
50.3788
50.3788
50.3787
50.3787
50.3786
50.3786
50.3786
50.3786
50.3786
50.3786
50.3786
50.3787
50.3787
50.3787
50.3787
50.3788
50.3788
50.3788
50.3789
50.3789
50.3789
50.3789
50.3789
50.3789
50.3789
50.3789
50.3789
50.3789
50.3789
50.3788
50.3788
50.3788
50.3787
50.3787
50.3787
50.3786
50.3786
50.3785
50.3785
50.3784
50.3784
50.3783
50.3783
50.3783
50.3782
50.3782
50.3782
50.3782
50.3782
50.3783
50.3783
50.3783
50.3784
50.3785
50.3785
50.3786
50.3787
50.3787
50.3788
50.3789
50.3789
50.379
50.379
50.3791
50.3791
50.3791
50.379
50.379
50.379
50.3789
50.3788
50.3788
50.3787
50.3786
50.3785
50.3784
50.3783
50.3782
50.3782
50.3781
50.378
50.3779
50.3778
50.3778
50.3777
50.3777
50.3776
50.3776
50.3776
50.3776
50.3776
50.3777
50.3777
50.3778
50.3779
50.3781
50.3783
50.3785
50.3787
50.379
50.3793
50.3796
50.38
50.3803
50.3807
50.3811
50.3815
50.3818
50.3822
50.382
50.3857
50.4204
50.3802
50.3747
50.3785
50.3774
50.3738
50.3727
50.3732
50.3736
50.3737
50.3735
50.3735
50.3737
50.3738
50.374
50.3743
50.375
50.3752
50.3748
50.3744
50.374
50.3739
50.3739
50.3738
50.3736
50.3733
50.3731
50.3731
50.3732
50.3732
50.3712
50.359
50.3256
50.3035
50.2992
50.306
50.3382
50.3733
50.3897
50.394
50.3934
50.3891
50.3845
50.3818
50.3804
50.3796
50.3791
50.3789
50.3788
50.3787
50.3787
50.3787
50.3787
50.3787
50.3788
50.3789
50.379
50.3791
50.3792
50.3793
50.3794
50.3795
50.3796
50.3798
50.3798
50.3799
50.38
50.3801
50.3801
50.3801
50.3802
50.3802
50.3801
50.3801
50.3801
50.38
50.38
50.3799
50.3798
50.3797
50.3796
50.3795
50.3794
50.3793
50.3792
50.3791
50.379
50.3789
50.3788
50.3788
50.3787
50.3787