/*--------------------------------*- C++ -*----------------------------------*\
| =========                 |                                                 |
| \\      /  F ield         | OpenFOAM: The Open Source CFD Toolbox           |
|  \\    /   O peration     | Version:  3.0.x                                 |
|   \\  /    A nd           | Web:      www.OpenFOAM.org                      |
|    \\/     M anipulation  |                                                 |
\*---------------------------------------------------------------------------*/
FoamFile
{
    version     2.0;
    format      ascii;
    class       volScalarField;
    location    "0.55";
    object      T;
}
// * * * * * * * * * * * * * * * * * * * * * * * * * * * * * * * * * * * * * //

dimensions      [0 0 0 1 0 0 0];

internalField   nonuniform List<scalar> 
6900
(
779.106
779.082
779.046
779.016
778.992
778.972
778.956
778.946
778.942
778.942
778.942
778.944
778.95
778.958
778.966
778.975
778.984
778.993
779.003
779.013
779.024
779.035
779.046
779.058
779.07
779.083
779.096
779.11
779.123
779.138
779.152
779.167
779.182
779.198
779.214
779.23
779.246
779.263
779.28
779.298
779.316
779.333
779.352
779.37
779.39
779.409
779.428
779.447
779.465
779.483
779.501
779.519
779.538
779.557
779.578
779.598
779.619
779.64
779.661
779.682
779.703
779.723
779.743
779.762
779.782
779.802
779.822
779.844
779.866
779.889
779.913
779.937
779.96
779.984
780.007
780.03
780.053
780.077
780.1
780.124
780.149
780.174
780.2
780.226
780.252
780.279
780.306
780.333
780.36
780.388
780.415
780.443
780.47
780.498
780.526
780.554
780.582
780.61
780.639
780.667
780.695
780.724
780.752
780.78
780.809
780.837
780.866
780.894
780.923
780.952
780.98
781.009
781.037
781.066
781.094
781.123
781.151
781.18
781.208
781.237
781.265
781.293
781.322
781.35
781.378
781.406
781.434
781.462
781.49
781.518
781.546
781.574
781.601
781.629
781.656
781.684
781.711
781.739
781.766
781.793
781.82
781.847
781.874
781.9
781.927
781.953
781.98
782.006
782.032
782.058
782.084
782.11
782.136
782.162
782.187
782.212
782.237
782.262
782.287
782.312
782.337
782.361
782.385
782.409
782.433
782.457
782.481
782.504
782.527
782.55
782.573
782.596
782.619
782.641
782.663
782.685
782.707
782.729
782.75
782.771
782.792
782.813
782.833
782.855
782.873
782.896
782.911
782.937
782.949
782.976
782.987
783.014
783.024
783.051
783.061
783.085
783.102
783.114
783.139
783.154
779.102
779.078
779.042
779.012
778.988
778.968
778.952
778.942
778.938
778.938
778.938
778.941
778.947
778.954
778.962
778.971
778.98
778.99
778.999
779.01
779.02
779.031
779.043
779.055
779.067
779.079
779.093
779.106
779.12
779.134
779.149
779.163
779.179
779.194
779.21
779.226
779.243
779.26
779.277
779.294
779.312
779.33
779.348
779.367
779.386
779.406
779.425
779.444
779.462
779.48
779.498
779.516
779.535
779.554
779.574
779.595
779.616
779.637
779.658
779.679
779.7
779.72
779.74
779.76
779.779
779.799
779.82
779.841
779.863
779.887
779.91
779.934
779.958
779.981
780.004
780.028
780.051
780.074
780.098
780.122
780.147
780.172
780.197
780.223
780.25
780.276
780.303
780.33
780.358
780.385
780.413
780.44
780.468
780.496
780.524
780.552
780.58
780.608
780.636
780.664
780.693
780.721
780.749
780.778
780.806
780.835
780.863
780.892
780.921
780.949
780.978
781.006
781.035
781.063
781.092
781.12
781.149
781.177
781.206
781.234
781.263
781.291
781.319
781.348
781.376
781.404
781.432
781.46
781.488
781.516
781.544
781.571
781.599
781.627
781.654
781.682
781.709
781.736
781.763
781.79
781.817
781.844
781.871
781.898
781.925
781.951
781.978
782.004
782.03
782.056
782.082
782.108
782.134
782.159
782.185
782.21
782.235
782.26
782.285
782.31
782.334
782.359
782.383
782.407
782.431
782.455
782.478
782.502
782.525
782.548
782.571
782.594
782.616
782.639
782.661
782.683
782.705
782.726
782.747
782.769
782.789
782.811
782.83
782.853
782.87
782.894
782.909
782.934
782.947
782.974
782.985
783.012
783.022
783.049
783.059
783.085
783.094
783.12
783.13
783.153
779.102
779.078
779.042
779.012
778.988
778.968
778.953
778.942
778.938
778.938
778.938
778.941
778.947
778.954
778.962
778.971
778.98
778.99
779
779.01
779.02
779.031
779.043
779.055
779.067
779.08
779.093
779.106
779.12
779.134
779.149
779.164
779.179
779.194
779.21
779.226
779.243
779.26
779.277
779.295
779.312
779.33
779.348
779.367
779.386
779.406
779.425
779.444
779.462
779.48
779.498
779.516
779.535
779.554
779.575
779.595
779.616
779.637
779.658
779.679
779.7
779.72
779.74
779.76
779.779
779.799
779.82
779.841
779.863
779.887
779.91
779.934
779.958
779.981
780.004
780.028
780.051
780.074
780.098
780.122
780.147
780.172
780.197
780.223
780.25
780.276
780.303
780.33
780.358
780.385
780.413
780.44
780.468
780.496
780.524
780.552
780.58
780.608
780.636
780.664
780.693
780.721
780.749
780.778
780.806
780.835
780.863
780.892
780.921
780.949
780.978
781.006
781.035
781.063
781.092
781.12
781.149
781.177
781.206
781.234
781.263
781.291
781.319
781.348
781.376
781.404
781.432
781.46
781.488
781.516
781.544
781.571
781.599
781.627
781.654
781.682
781.709
781.736
781.763
781.79
781.817
781.844
781.871
781.898
781.925
781.951
781.978
782.004
782.03
782.056
782.082
782.108
782.134
782.159
782.185
782.21
782.235
782.26
782.285
782.31
782.334
782.359
782.383
782.407
782.431
782.455
782.478
782.502
782.525
782.548
782.571
782.594
782.616
782.639
782.661
782.683
782.705
782.726
782.747
782.769
782.79
782.811
782.831
782.852
782.871
782.893
782.911
782.932
782.951
782.97
782.989
783.008
783.025
783.047
783.061
783.081
783.099
783.116
783.132
783.151
779.102
779.078
779.042
779.012
778.988
778.968
778.952
778.942
778.938
778.938
778.938
778.941
778.947
778.954
778.962
778.971
778.98
778.99
778.999
779.01
779.02
779.031
779.043
779.055
779.067
779.079
779.093
779.106
779.12
779.134
779.149
779.163
779.179
779.194
779.21
779.226
779.243
779.26
779.277
779.294
779.312
779.33
779.348
779.367
779.386
779.406
779.425
779.444
779.462
779.48
779.498
779.516
779.535
779.554
779.574
779.595
779.616
779.637
779.658
779.679
779.7
779.72
779.74
779.76
779.779
779.799
779.82
779.841
779.863
779.887
779.91
779.934
779.958
779.981
780.004
780.028
780.051
780.074
780.098
780.122
780.147
780.172
780.197
780.223
780.25
780.276
780.303
780.33
780.358
780.385
780.413
780.44
780.468
780.496
780.524
780.552
780.58
780.608
780.636
780.664
780.693
780.721
780.749
780.778
780.806
780.835
780.863
780.892
780.921
780.949
780.978
781.006
781.035
781.063
781.092
781.12
781.149
781.177
781.206
781.234
781.263
781.291
781.319
781.348
781.376
781.404
781.432
781.46
781.488
781.516
781.544
781.571
781.599
781.627
781.654
781.682
781.709
781.736
781.763
781.79
781.817
781.844
781.871
781.898
781.925
781.951
781.978
782.004
782.03
782.056
782.082
782.108
782.134
782.159
782.185
782.21
782.235
782.26
782.285
782.31
782.334
782.359
782.383
782.407
782.431
782.455
782.478
782.502
782.525
782.548
782.571
782.594
782.616
782.639
782.661
782.683
782.705
782.726
782.748
782.768
782.79
782.81
782.832
782.85
782.874
782.89
782.914
782.929
782.954
782.966
782.993
783.003
783.031
783.041
783.067
783.077
783.102
783.112
783.132
783.157
779.106
779.082
779.046
779.016
778.992
778.972
778.956
778.946
778.942
778.942
778.942
778.944
778.95
778.958
778.966
778.975
778.984
778.993
779.003
779.013
779.024
779.035
779.046
779.058
779.07
779.083
779.096
779.11
779.123
779.138
779.152
779.167
779.182
779.198
779.214
779.23
779.246
779.263
779.28
779.298
779.316
779.333
779.352
779.37
779.39
779.409
779.428
779.447
779.465
779.483
779.501
779.519
779.538
779.557
779.578
779.598
779.619
779.64
779.661
779.682
779.703
779.723
779.743
779.762
779.782
779.802
779.822
779.844
779.866
779.889
779.913
779.937
779.96
779.984
780.007
780.03
780.053
780.077
780.1
780.124
780.149
780.174
780.2
780.226
780.252
780.279
780.306
780.333
780.36
780.388
780.415
780.443
780.47
780.498
780.526
780.554
780.582
780.61
780.639
780.667
780.695
780.724
780.752
780.78
780.809
780.837
780.866
780.894
780.923
780.952
780.98
781.009
781.037
781.066
781.094
781.123
781.151
781.18
781.208
781.237
781.265
781.293
781.322
781.35
781.378
781.406
781.434
781.462
781.49
781.518
781.546
781.574
781.601
781.629
781.656
781.684
781.711
781.739
781.766
781.793
781.82
781.847
781.874
781.9
781.927
781.953
781.98
782.006
782.032
782.058
782.084
782.11
782.136
782.162
782.187
782.212
782.237
782.262
782.287
782.312
782.337
782.361
782.385
782.409
782.433
782.457
782.481
782.504
782.527
782.55
782.573
782.596
782.619
782.641
782.663
782.685
782.707
782.728
782.75
782.771
782.793
782.812
782.835
782.852
782.876
782.892
782.917
782.931
782.956
782.968
782.996
783.006
783.033
783.043
783.069
783.079
783.105
783.116
783.129
783.166
783.164
783.168
783.172
783.177
783.183
783.188
783.194
783.2
783.204
783.206
783.211
783.223
783.245
783.256
783.257
783.251
783.244
783.239
783.234
783.229
783.164
783.169
783.173
783.178
783.184
783.189
783.193
783.197
783.201
783.205
783.207
783.213
783.227
783.242
783.244
783.24
783.236
783.236
783.237
783.24
783.161
783.165
783.168
783.172
783.175
783.18
783.182
783.185
783.19
783.193
783.196
783.202
783.211
783.215
783.221
783.232
783.246
783.253
783.265
783.275
783.161
783.163
783.165
783.166
783.166
783.166
783.166
783.166
783.166
783.167
783.167
783.169
783.169
783.17
783.171
783.173
783.177
783.182
783.187
783.192
783.172
783.174
783.174
783.175
783.175
783.175
783.174
783.174
783.173
783.173
783.173
783.173
783.172
783.172
783.172
783.173
783.173
783.173
783.174
783.175
783.262
783.282
783.293
783.316
783.333
783.33
783.331
783.339
783.361
783.373
783.384
783.381
783.386
783.402
783.427
783.441
783.434
783.439
783.448
783.461
783.484
783.488
783.494
783.493
783.495
783.501
783.523
783.521
783.528
783.531
783.533
783.541
783.55
783.559
783.567
783.577
783.585
783.594
783.611
783.629
783.622
783.629
783.63
783.632
783.639
783.646
783.653
783.659
783.665
783.671
783.677
783.682
783.687
783.692
783.697
783.702
783.707
783.712
783.717
783.723
783.728
783.732
783.737
783.742
783.746
783.75
783.754
783.758
783.762
783.765
783.768
783.771
783.774
783.777
783.779
783.782
783.785
783.788
783.791
783.793
783.795
783.798
783.801
783.805
783.808
783.811
783.815
783.817
783.819
783.821
783.826
783.838
783.845
783.843
783.85
783.846
783.843
783.842
783.844
783.844
783.845
783.848
783.859
783.863
783.862
783.86
783.863
783.88
783.891
783.891
783.885
783.884
783.913
783.996
784.032
784.032
783.998
783.914
783.856
783.83
783.827
783.835
783.845
783.851
783.855
783.858
783.86
783.862
783.864
783.866
783.867
783.868
783.869
783.87
783.871
783.872
783.872
783.873
783.874
783.875
783.875
783.876
783.877
783.877
783.878
783.879
783.879
783.88
783.88
783.881
783.882
783.882
783.883
783.884
783.884
783.885
783.886
783.886
783.887
783.888
783.889
783.889
783.89
783.891
783.892
783.892
783.893
783.894
783.895
783.895
783.896
783.896
783.897
783.897
783.898
783.898
783.899
783.899
783.9
783.899
783.901
783.899
783.901
783.9
783.902
783.9
783.902
783.901
783.903
783.901
783.903
783.902
783.904
783.902
783.904
783.902
783.903
783.905
783.901
783.902
783.262
783.282
783.346
783.378
783.369
783.355
783.398
783.449
783.435
783.424
783.47
783.5
783.481
783.46
783.479
783.567
783.573
783.536
783.499
783.501
783.567
783.634
783.626
783.568
783.534
783.536
783.597
783.617
783.599
783.566
783.558
783.562
783.571
783.579
783.586
783.596
783.602
783.608
783.623
783.693
783.709
783.691
783.661
783.654
783.657
783.664
783.67
783.675
783.681
783.686
783.692
783.697
783.702
783.707
783.712
783.718
783.723
783.729
783.734
783.739
783.744
783.749
783.753
783.758
783.761
783.765
783.768
783.772
783.775
783.778
783.781
783.784
783.787
783.79
783.793
783.795
783.798
783.801
783.805
783.808
783.811
783.815
783.819
783.822
783.824
783.827
783.829
783.834
783.84
783.849
783.862
783.879
783.886
783.881
783.884
783.874
783.865
783.862
783.863
783.87
783.876
783.876
783.875
783.877
783.893
783.908
783.909
783.905
783.901
783.906
783.95
784.02
784.051
784.055
784.042
783.986
783.915
783.863
783.836
783.83
783.834
783.843
783.848
783.852
783.855
783.858
783.859
783.861
783.863
783.864
783.865
783.866
783.867
783.868
783.869
783.87
783.87
783.871
783.872
783.873
783.873
783.874
783.875
783.875
783.876
783.877
783.877
783.878
783.878
783.879
783.88
783.88
783.881
783.882
783.882
783.883
783.884
783.884
783.885
783.886
783.887
783.887
783.888
783.889
783.89
783.891
783.891
783.892
783.893
783.893
783.894
783.894
783.895
783.895
783.896
783.896
783.897
783.897
783.898
783.897
783.899
783.898
783.899
783.898
783.9
783.898
783.9
783.899
783.901
783.899
783.901
783.9
783.902
783.9
783.902
783.9
783.902
783.902
783.899
783.904
783.322
783.384
783.435
783.476
783.512
783.554
783.597
783.626
783.647
783.673
783.699
783.709
783.714
783.728
783.751
783.769
783.763
783.755
783.764
783.786
783.811
783.817
783.798
783.788
783.797
783.815
783.833
783.831
783.821
783.821
783.826
783.832
783.838
783.844
783.85
783.857
783.866
783.878
783.896
783.917
783.912
783.901
783.9
783.904
783.908
783.913
783.917
783.921
783.925
783.929
783.933
783.938
783.943
783.948
783.954
783.96
783.966
783.971
783.977
783.982
783.987
783.991
783.995
783.999
784.004
784.008
784.013
784.018
784.023
784.028
784.033
784.04
784.047
784.054
784.061
784.066
784.074
784.082
784.09
784.094
784.093
784.077
784.056
784.027
783.985
783.948
783.917
783.892
783.871
783.858
783.854
783.856
783.857
783.851
783.844
783.845
783.85
783.856
783.861
783.865
783.869
783.872
783.874
783.875
783.875
783.875
783.875
783.873
783.871
783.869
783.867
783.865
783.862
783.86
783.857
783.855
783.854
783.854
783.855
783.856
783.857
783.858
783.859
783.86
783.861
783.861
783.862
783.863
783.864
783.865
783.866
783.867
783.867
783.868
783.869
783.87
783.871
783.871
783.872
783.873
783.873
783.874
783.875
783.875
783.876
783.877
783.877
783.878
783.878
783.879
783.88
783.88
783.881
783.882
783.882
783.883
783.884
783.884
783.885
783.886
783.887
783.887
783.888
783.889
783.89
783.891
783.891
783.892
783.893
783.893
783.894
783.895
783.895
783.896
783.896
783.897
783.897
783.897
783.897
783.898
783.898
783.898
783.898
783.899
783.899
783.899
783.899
783.9
783.899
783.901
783.899
783.901
783.901
783.9
783.901
783.902
783.901
783.902
783.902
783.903
783.201
783.236
783.258
783.267
783.28
783.308
783.338
783.35
783.356
783.372
783.397
783.408
783.413
783.424
783.447
783.465
783.468
783.468
783.475
783.493
783.515
783.523
783.521
783.519
783.525
783.54
783.553
783.558
783.559
783.562
783.569
783.576
783.582
783.589
783.595
783.601
783.606
783.612
783.623
783.633
783.636
783.637
783.641
783.646
783.652
783.658
783.664
783.67
783.675
783.681
783.686
783.692
783.697
783.702
783.707
783.712
783.717
783.722
783.726
783.731
783.735
783.74
783.744
783.749
783.753
783.757
783.762
783.766
783.77
783.773
783.777
783.781
783.784
783.787
783.79
783.794
783.796
783.799
783.802
783.804
783.807
783.81
783.811
783.814
783.818
783.82
783.82
783.821
783.825
783.828
783.829
783.833
783.843
783.854
783.857
783.855
783.856
783.862
783.87
783.879
783.887
783.894
783.909
783.931
783.947
783.956
783.971
784.004
784.029
784.033
784.028
784.004
783.946
783.89
783.85
783.828
783.823
783.828
783.837
783.842
783.847
783.85
783.853
783.855
783.857
783.859
783.86
783.862
783.863
783.864
783.865
783.866
783.867
783.868
783.869
783.87
783.871
783.871
783.872
783.873
783.873
783.874
783.875
783.875
783.876
783.877
783.877
783.878
783.878
783.879
783.88
783.88
783.881
783.882
783.882
783.883
783.884
783.884
783.885
783.886
783.887
783.887
783.888
783.889
783.89
783.891
783.891
783.892
783.893
783.893
783.894
783.895
783.895
783.896
783.896
783.897
783.897
783.898
783.897
783.898
783.897
783.899
783.898
783.9
783.898
783.9
783.899
783.901
783.899
783.901
783.899
783.901
783.9
783.902
783.9
783.902
783.901
783.902
783.901
783.902
783.182
783.194
783.214
783.23
783.246
783.268
783.295
783.319
783.337
783.357
783.382
783.405
783.422
783.439
783.46
783.485
783.503
783.516
783.529
783.546
783.568
783.587
783.597
783.604
783.615
783.627
783.641
783.651
783.657
783.664
783.673
783.681
783.69
783.698
783.706
783.714
783.722
783.729
783.738
783.748
783.755
783.76
783.765
783.772
783.779
783.786
783.792
783.798
783.804
783.809
783.814
783.819
783.824
783.829
783.834
783.839
783.844
783.849
783.854
783.859
783.863
783.868
783.872
783.876
783.88
783.884
783.887
783.891
783.894
783.897
783.9
783.902
783.905
783.908
783.91
783.912
783.914
783.916
783.918
783.92
783.922
783.925
783.928
783.931
783.933
783.937
783.941
783.944
783.948
783.951
783.951
783.953
783.961
783.966
783.964
783.957
783.957
783.969
783.987
783.988
783.98
783.978
784.014
784.102
784.125
784.115
784.058
783.985
783.936
783.901
783.879
783.865
783.858
783.856
783.854
783.854
783.855
783.856
783.857
783.858
783.859
783.86
783.86
783.861
783.862
783.863
783.864
783.865
783.866
783.867
783.868
783.868
783.869
783.87
783.871
783.872
783.873
783.873
783.874
783.875
783.875
783.876
783.877
783.877
783.878
783.879
783.879
783.88
783.88
783.881
783.882
783.882
783.883
783.884
783.884
783.885
783.886
783.886
783.887
783.888
783.889
783.889
783.89
783.891
783.892
783.893
783.893
783.894
783.895
783.895
783.896
783.896
783.897
783.898
783.898
783.899
783.899
783.9
783.899
783.9
783.899
783.901
783.9
783.902
783.9
783.902
783.9
783.903
783.901
783.903
783.901
783.903
783.902
783.902
783.904
783.902
783.905
783.904
783.903
783.904
783.904
783.905
783.907
783.907
783.907
783.907
783.906
783.906
783.905
783.904
783.902
783.899
783.898
783.896
783.895
783.893
783.892
783.89
783.889
783.888
783.904
783.904
783.903
783.902
783.901
783.9
783.899
783.898
783.897
783.895
783.893
783.892
783.893
783.893
783.893
783.893
783.892
783.893
783.894
783.896
783.902
783.902
783.902
783.902
783.902
783.902
783.902
783.903
783.906
783.907
783.908
783.911
783.913
783.915
783.921
783.927
783.933
783.936
783.943
783.947
783.903
783.904
783.905
783.905
783.906
783.906
783.908
783.91
783.915
783.919
783.918
783.917
783.915
783.915
783.917
783.922
783.922
783.924
783.935
783.939
783.906
783.907
783.908
783.909
783.909
783.91
783.911
783.914
783.917
783.92
783.92
783.919
783.917
783.916
783.916
783.917
783.917
783.924
783.944
783.945
783.885
783.883
783.879
783.879
783.884
783.897
783.902
783.902
783.903
783.911
783.93
783.938
783.94
783.943
783.956
783.978
783.985
783.985
783.985
783.995
784.02
784.032
784.027
784.021
784.021
784.034
784.056
784.065
784.057
784.04
784.036
784.045
784.064
784.072
784.072
784.058
784.042
784.039
784.041
784.044
784.046
784.047
784.047
784.047
784.047
784.046
784.045
784.044
784.043
784.042
784.041
784.04
784.039
784.039
784.038
784.038
784.037
784.037
784.036
784.036
784.036
784.035
784.034
784.033
784.032
784.031
784.031
784.03
784.03
784.031
784.032
784.03
784.021
784.019
784.027
784.037
784.038
784.028
784.019
784.02
784.024
784.026
784.026
784.028
784.031
784.031
784.03
784.031
784.039
784.048
784.048
784.051
784.112
784.214
784.213
784.115
784.04
784.023
784.024
784.005
783.912
783.929
783.933
783.946
783.981
784.006
784.005
783.99
783.992
784.025
784.036
784.022
784.011
784.028
784.054
784.048
784.016
784.006
784.026
784.066
784.067
784.042
784.004
784.001
784.029
784.069
784.072
784.054
784.007
783.989
784.004
784.047
784.067
784.066
784.037
783.99
783.957
783.945
783.947
783.954
783.956
783.957
783.956
783.953
783.949
783.946
783.943
783.94
783.937
783.935
783.932
783.93
783.928
783.926
783.924
783.922
783.921
783.919
783.917
783.916
783.916
783.915
783.914
783.914
783.914
783.914
783.914
783.915
783.916
783.919
783.921
783.922
783.925
783.942
783.957
783.959
783.955
783.94
783.917
783.909
783.91
783.912
783.914
783.916
783.918
783.922
783.925
783.928
783.932
783.94
783.952
783.959
783.97
784.001
784.027
784.029
784.033
784.058
784.084
784.07
783.977
784.038
784.076
784.108
784.144
784.185
784.216
784.231
784.247
784.274
784.289
784.283
784.283
784.301
784.319
784.308
784.287
784.289
784.312
784.324
784.309
784.28
784.271
784.286
784.311
784.312
784.295
784.266
784.252
784.265
784.292
784.306
784.304
784.295
784.271
784.228
784.189
784.177
784.176
784.176
784.175
784.174
784.173
784.172
784.171
784.169
784.169
784.168
784.167
784.167
784.166
784.166
784.165
784.164
784.164
784.165
784.167
784.168
784.168
784.168
784.169
784.172
784.174
784.175
784.177
784.181
784.186
784.191
784.193
784.19
784.184
784.182
784.181
784.17
784.131
784.082
784.021
783.959
783.923
783.912
783.909
783.909
783.91
783.914
783.917
783.922
783.926
783.93
783.932
783.935
783.935
783.939
783.937
783.938
783.937
783.932
783.929
783.924
783.918
783.91
783.96
784.004
784.011
783.982
783.979
784.051
784.132
784.119
784.043
784.052
784.164
784.168
784.082
784.061
784.168
784.219
784.188
784.067
784.074
784.192
784.227
784.221
784.133
784.047
784.109
784.196
784.206
784.2
784.154
784.044
784.057
784.128
784.163
784.16
784.152
784.156
784.115
783.987
783.932
783.918
783.919
783.922
783.924
783.925
783.925
783.925
783.925
783.925
783.925
783.924
783.924
783.924
783.924
783.924
783.924
783.924
783.924
783.924
783.924
783.924
783.924
783.923
783.923
783.922
783.921
783.92
783.92
783.919
783.918
783.918
783.919
783.922
783.933
783.997
784.026
784.004
783.994
784.02
783.983
783.937
783.919
783.917
783.918
783.92
783.92
783.921
783.924
783.927
783.928
783.931
783.936
783.939
783.94
783.942
783.947
783.96
783.967
783.967
783.963
783.963
783.945
783.953
783.958
783.955
783.953
783.957
783.99
783.996
783.99
783.983
783.994
783.994
783.983
783.982
783.99
784.025
784.023
784.004
783.988
783.992
784.045
784.055
784.045
784.018
783.979
783.999
784.041
784.053
784.053
784.038
783.98
783.966
783.998
784.02
784.022
784.034
784.03
783.979
783.921
783.902
783.9
783.904
783.908
783.91
783.911
783.911
783.911
783.91
783.91
783.91
783.91
783.91
783.909
783.909
783.908
783.908
783.908
783.908
783.908
783.908
783.908
783.908
783.908
783.907
783.907
783.907
783.906
783.905
783.905
783.905
783.908
783.915
783.931
783.935
783.935
783.934
783.934
783.957
783.936
783.913
783.897
783.896
783.898
783.901
783.904
783.906
783.907
783.908
783.909
783.912
783.914
783.915
783.918
783.922
783.924
783.925
783.925
783.926
783.935
783.94
784.01
784.004
784.001
783.995
783.99
783.982
783.968
783.946
783.92
783.9
783.895
783.902
783.902
783.896
783.889
783.884
783.881
783.879
783.878
783.879
784.072
784.072
784.072
784.071
784.069
784.065
784.057
784.043
784.024
783.996
783.975
783.96
783.941
783.925
783.91
783.894
783.883
783.879
783.88
783.893
783.911
783.918
783.925
783.928
783.93
783.93
783.929
783.928
783.926
783.924
783.922
783.922
783.923
783.926
783.931
783.936
783.942
783.946
783.945
783.946
783.965
783.968
783.981
784.001
784.025
784.047
784.067
784.082
784.093
784.103
784.112
784.121
784.126
784.128
784.128
784.119
784.093
784.083
784.04
783.964
783.943
783.943
783.942
783.942
783.941
783.94
783.938
783.935
783.93
783.935
783.959
783.994
784.032
784.069
784.102
784.132
784.148
784.15
784.124
784.016
783.88
783.875
783.874
783.879
783.893
783.897
783.896
783.896
783.902
783.919
783.926
783.928
783.93
783.937
783.955
783.969
783.977
783.976
783.976
783.98
783.997
784.019
784.036
784.041
784.033
784.027
784.028
784.04
784.061
784.074
784.08
784.083
784.079
784.063
784.049
784.045
784.047
784.052
784.055
784.058
784.06
784.062
784.063
784.064
784.065
784.066
784.066
784.067
784.067
784.067
784.068
784.069
784.07
784.071
784.075
784.074
784.066
784.051
784.048
784.05
784.061
784.086
784.095
784.081
784.066
784.065
784.08
784.094
784.096
784.088
784.077
784.075
784.079
784.083
784.087
784.091
784.093
784.094
784.094
784.101
784.11
784.112
784.138
784.278
784.314
784.18
784.086
784.053
784.029
784.007
783.992
783.983
783.979
783.978
783.979
783.981
783.982
783.984
783.985
783.987
783.988
783.989
783.99
783.991
783.992
783.994
783.995
783.996
783.997
783.999
784
784.001
784.002
784.004
784.005
784.006
784.007
784.008
784.01
784.011
784.012
784.013
784.015
784.016
784.017
784.018
784.02
784.021
784.022
784.023
784.025
784.026
784.027
784.029
784.03
784.031
784.032
784.034
784.035
784.036
784.037
784.038
784.04
784.041
784.042
784.043
784.044
784.045
784.046
784.047
784.048
784.049
784.05
784.051
784.052
784.053
784.054
784.055
784.056
784.057
784.058
784.059
784.06
784.061
784.062
784.062
784.063
784.064
784.065
784.066
784.067
784.068
784.069
784.07
784.07
784.071
784.072
784.073
784.073
784.075
784.074
784.076
784.076
784.078
784.077
784.08
784.078
784.081
784.079
784.082
784.08
784.083
784.081
784.083
784.084
784.082
784.086
784.084
784.084
784.086
783.917
783.921
783.927
783.961
783.998
784.004
783.993
783.995
784.03
784.052
784.038
784.017
784.022
784.063
784.089
784.079
784.031
784.007
784.014
784.06
784.105
784.114
784.099
784.046
784.01
784.009
784.042
784.097
784.125
784.134
784.132
784.109
784.052
784.01
783.983
783.972
783.976
783.987
783.993
783.995
783.995
783.993
783.989
783.986
783.983
783.98
783.977
783.975
783.972
783.97
783.968
783.965
783.965
783.967
783.971
783.971
783.972
783.979
783.989
784.025
784.057
784.058
784.057
784.033
784.017
784.021
784.035
784.04
784.037
784.02
783.988
783.969
783.968
783.971
783.975
783.978
783.982
783.989
783.993
783.997
784.007
784.019
784.029
784.054
784.099
784.107
784.109
784.121
784.153
784.171
784.168
784.118
784.017
783.967
783.956
783.959
783.967
783.973
783.977
783.98
783.983
783.985
783.987
783.989
783.99
783.992
783.993
783.994
783.996
783.997
783.998
784
784.001
784.002
784.003
784.004
784.006
784.007
784.008
784.009
784.011
784.012
784.013
784.014
784.016
784.017
784.018
784.019
784.021
784.022
784.023
784.024
784.026
784.027
784.028
784.03
784.031
784.032
784.033
784.034
784.036
784.037
784.038
784.039
784.04
784.042
784.043
784.044
784.045
784.046
784.047
784.048
784.049
784.05
784.051
784.052
784.053
784.054
784.055
784.056
784.057
784.057
784.058
784.059
784.06
784.061
784.062
784.063
784.064
784.065
784.065
784.066
784.067
784.068
784.069
784.07
784.07
784.072
784.072
784.073
784.073
784.075
784.074
784.076
784.076
784.078
784.077
784.079
784.078
784.081
784.079
784.082
784.08
784.083
784.081
784.084
784.082
784.084
784.083
784.084
783.982
784.035
784.074
784.11
784.15
784.186
784.209
784.229
784.256
784.276
784.274
784.272
784.283
784.302
784.301
784.287
784.273
784.275
784.293
784.305
784.3
784.287
784.274
784.267
784.276
784.292
784.304
784.307
784.306
784.303
784.299
784.293
784.279
784.249
784.211
784.195
784.195
784.198
784.2
784.201
784.202
784.202
784.201
784.201
784.2
784.199
784.199
784.199
784.199
784.199
784.199
784.198
784.201
784.21
784.223
784.24
784.274
784.328
784.352
784.349
784.336
784.308
784.27
784.246
784.22
784.179
784.137
784.094
784.05
784.008
783.976
783.965
783.965
783.969
783.974
783.98
783.984
783.989
783.993
783.997
784
784.003
784.005
784.006
784.005
784.003
784.001
783.999
783.999
783.998
783.995
783.992
783.989
783.986
783.983
783.981
783.981
783.982
783.984
783.985
783.986
783.988
783.989
783.99
783.991
783.992
783.993
783.995
783.996
783.997
783.998
784
784.001
784.002
784.003
784.004
784.006
784.007
784.008
784.009
784.011
784.012
784.013
784.014
784.016
784.017
784.018
784.019
784.021
784.022
784.023
784.024
784.026
784.027
784.028
784.03
784.031
784.032
784.033
784.034
784.036
784.037
784.038
784.039
784.04
784.042
784.043
784.044
784.045
784.046
784.047
784.048
784.049
784.05
784.051
784.052
784.053
784.054
784.055
784.056
784.057
784.057
784.058
784.059
784.06
784.061
784.062
784.063
784.064
784.065
784.065
784.066
784.067
784.068
784.069
784.07
784.07
784.071
784.072
784.073
784.073
784.075
784.075
784.076
784.076
784.077
784.078
784.079
784.078
784.08
784.079
784.081
784.081
784.081
784.082
784.083
784.082
784.084
784.083
784.085
783.964
783.999
783.989
783.965
784.005
784.107
784.109
784.042
784.044
784.163
784.193
784.12
784.056
784.135
784.237
784.243
784.22
784.097
784.081
784.161
784.224
784.238
784.236
784.214
784.106
784.075
784.116
784.158
784.178
784.182
784.18
784.175
784.173
784.172
784.167
784.051
783.964
783.933
783.931
783.936
783.942
783.945
783.948
783.95
783.951
783.952
783.953
783.953
783.954
783.955
783.961
783.957
783.954
783.955
783.956
783.961
783.964
784.064
784.214
784.268
784.27
784.26
784.24
784.136
784.081
784.069
784.061
784.042
784.033
784.048
784.068
784.025
783.986
783.974
783.974
783.977
783.98
783.984
783.988
783.991
783.995
784
784.003
784.004
784.006
784.013
784.028
784.035
784.037
784.038
784.049
784.106
784.173
784.19
784.166
784.064
783.986
783.964
783.967
783.975
783.98
783.984
783.986
783.988
783.99
783.991
783.993
783.994
783.996
783.997
783.998
783.999
784.001
784.002
784.003
784.004
784.006
784.007
784.008
784.009
784.011
784.012
784.013
784.014
784.016
784.017
784.018
784.019
784.021
784.022
784.023
784.024
784.026
784.027
784.028
784.03
784.031
784.032
784.033
784.034
784.036
784.037
784.038
784.039
784.04
784.042
784.043
784.044
784.045
784.046
784.047
784.048
784.049
784.05
784.051
784.052
784.053
784.054
784.055
784.056
784.057
784.057
784.058
784.059
784.06
784.061
784.062
784.063
784.064
784.065
784.065
784.066
784.067
784.068
784.069
784.07
784.071
784.071
784.072
784.072
784.074
784.074
784.076
784.075
784.077
784.076
784.079
784.077
784.08
784.078
784.081
784.08
784.082
784.081
784.083
784.081
784.083
784.084
784.081
784.086
783.944
783.944
783.941
783.931
783.934
783.971
783.987
783.982
783.977
783.992
784.016
784.005
783.988
783.983
784.027
784.087
784.088
784.068
784.017
783.994
784.042
784.11
784.121
784.122
784.111
784.064
784.001
784.014
784.049
784.066
784.072
784.075
784.078
784.083
784.109
784.077
783.995
783.933
783.918
783.918
783.923
783.928
783.931
783.933
783.935
783.936
783.937
783.939
783.94
783.942
783.941
783.941
783.941
783.942
783.945
783.953
783.966
783.968
784.02
784.117
784.147
784.145
784.143
784.127
784.083
784.009
783.994
783.995
783.997
784.019
784.037
784.013
783.972
783.953
783.953
783.957
783.964
783.968
783.97
783.973
783.976
783.978
783.982
783.987
783.991
783.992
783.993
783.994
783.997
784.007
784.016
784.018
784.024
784.068
784.155
784.16
784.072
783.979
783.964