/*--------------------------------*- C++ -*----------------------------------*\
| =========                 |                                                 |
| \\      /  F ield         | OpenFOAM: The Open Source CFD Toolbox           |
|  \\    /   O peration     | Version:  3.0.x                                 |
|   \\  /    A nd           | Web:      www.OpenFOAM.org                      |
|    \\/     M anipulation  |                                                 |
\*---------------------------------------------------------------------------*/
FoamFile
{
    version     2.0;
    format      ascii;
    class       volScalarField;
    location    "0.31";
    object      T;
}
// * * * * * * * * * * * * * * * * * * * * * * * * * * * * * * * * * * * * * //

dimensions      [0 0 0 1 0 0 0];

internalField   nonuniform List<scalar> 
6900
(
774.442
774.442
774.442
774.442
774.442
774.442
774.442
774.442
774.442
774.441
774.439
774.436
774.433
774.431
774.429
774.428
774.428
774.427
774.427
774.427
774.425
774.423
774.42
774.417
774.414
774.41
774.406
774.403
774.399
774.396
774.394
774.393
774.392
774.392
774.391
774.39
774.388
774.385
774.382
774.38
774.377
774.376
774.374
774.373
774.373
774.372
774.372
774.372
774.372
774.372
774.372
774.373
774.373
774.373
774.373
774.373
774.373
774.373
774.373
774.373
774.373
774.373
774.372
774.372
774.372
774.372
774.372
774.372
774.372
774.372
774.372
774.372
774.372
774.372
774.372
774.372
774.372
774.372
774.372
774.372
774.372
774.372
774.373
774.373
774.373
774.373
774.373
774.373
774.373
774.373
774.373
774.373
774.373
774.373
774.373
774.373
774.373
774.373
774.372
774.372
774.372
774.372
774.371
774.371
774.371
774.371
774.371
774.371
774.37
774.37
774.37
774.37
774.37
774.37
774.37
774.37
774.37
774.37
774.37
774.37
774.37
774.369
774.369
774.369
774.368
774.368
774.367
774.367
774.366
774.365
774.364
774.363
774.362
774.361
774.36
774.359
774.358
774.356
774.355
774.354
774.353
774.352
774.351
774.35
774.349
774.348
774.347
774.346
774.345
774.344
774.343
774.343
774.342
774.341
774.34
774.339
774.338
774.337
774.336
774.335
774.334
774.333
774.331
774.33
774.328
774.326
774.324
774.322
774.32
774.319
774.317
774.315
774.313
774.311
774.309
774.307
774.305
774.303
774.301
774.299
774.298
774.296
774.295
774.293
774.292
774.291
774.29
774.289
774.288
774.287
774.286
774.285
774.284
774.283
774.281
774.28
774.278
774.277
774.276
774.344
774.44
774.44
774.44
774.44
774.44
774.44
774.44
774.44
774.44
774.439
774.437
774.434
774.431
774.429
774.427
774.426
774.426
774.425
774.425
774.425
774.423
774.421
774.419
774.415
774.412
774.408
774.405
774.401
774.398
774.395
774.393
774.391
774.391
774.39
774.39
774.388
774.386
774.384
774.381
774.378
774.376
774.374
774.373
774.372
774.371
774.371
774.371
774.371
774.371
774.371
774.371
774.371
774.371
774.371
774.371
774.371
774.371
774.371
774.371
774.371
774.371
774.371
774.371
774.371
774.371
774.371
774.37
774.37
774.37
774.37
774.37
774.37
774.37
774.37
774.37
774.37
774.37
774.37
774.37
774.371
774.371
774.371
774.371
774.371
774.371
774.372
774.372
774.372
774.372
774.372
774.372
774.372
774.372
774.372
774.372
774.371
774.371
774.371
774.371
774.371
774.37
774.37
774.37
774.37
774.37
774.369
774.369
774.369
774.369
774.369
774.369
774.369
774.369
774.369
774.369
774.369
774.369
774.369
774.368
774.368
774.368
774.368
774.368
774.367
774.367
774.366
774.366
774.365
774.364
774.363
774.363
774.362
774.361
774.36
774.358
774.357
774.356
774.355
774.354
774.353
774.352
774.35
774.349
774.348
774.347
774.346
774.345
774.344
774.343
774.343
774.342
774.341
774.34
774.34
774.339
774.338
774.337
774.336
774.335
774.334
774.333
774.331
774.33
774.328
774.326
774.325
774.323
774.321
774.319
774.317
774.315
774.313
774.311
774.309
774.307
774.305
774.303
774.302
774.3
774.298
774.296
774.295
774.293
774.292
774.291
774.29
774.289
774.288
774.287
774.286
774.285
774.284
774.283
774.282
774.28
774.279
774.277
774.276
774.275
774.337
774.44
774.44
774.44
774.44
774.44
774.44
774.44
774.44
774.44
774.439
774.437
774.434
774.431
774.429
774.427
774.426
774.426
774.425
774.425
774.425
774.423
774.421
774.419
774.415
774.412
774.408
774.405
774.401
774.398
774.395
774.393
774.391
774.391
774.39
774.39
774.388
774.386
774.384
774.381
774.378
774.376
774.374
774.373
774.372
774.371
774.371
774.371
774.371
774.371
774.371
774.371
774.371
774.371
774.371
774.371
774.371
774.371
774.371
774.371
774.371
774.371
774.371
774.371
774.371
774.371
774.371
774.37
774.37
774.37
774.37
774.37
774.37
774.37
774.37
774.37
774.37
774.37
774.37
774.37
774.371
774.371
774.371
774.371
774.371
774.371
774.372
774.372
774.372
774.372
774.372
774.372
774.372
774.372
774.372
774.372
774.371
774.371
774.371
774.371
774.371
774.37
774.37
774.37
774.37
774.37
774.369
774.369
774.369
774.369
774.369
774.369
774.369
774.369
774.369
774.369
774.369
774.369
774.369
774.368
774.368
774.368
774.368
774.368
774.367
774.367
774.366
774.366
774.365
774.364
774.363
774.363
774.362
774.361
774.36
774.358
774.357
774.356
774.355
774.354
774.353
774.352
774.35
774.349
774.348
774.347
774.346
774.345
774.344
774.343
774.343
774.342
774.341
774.34
774.34
774.339
774.338
774.337
774.336
774.335
774.334
774.333
774.331
774.33
774.328
774.326
774.325
774.323
774.321
774.319
774.317
774.315
774.313
774.311
774.309
774.307
774.305
774.303
774.302
774.3
774.298
774.296
774.295
774.293
774.292
774.291
774.29
774.289
774.288
774.287
774.286
774.285
774.284
774.283
774.282
774.28
774.279
774.277
774.275
774.273
774.275
774.44
774.44
774.44
774.44
774.44
774.44
774.44
774.44
774.44
774.439
774.437
774.434
774.431
774.429
774.427
774.426
774.426
774.425
774.425
774.425
774.423
774.421
774.419
774.415
774.412
774.408
774.405
774.401
774.398
774.395
774.393
774.391
774.391
774.39
774.39
774.388
774.386
774.384
774.381
774.378
774.376
774.374
774.373
774.372
774.371
774.371
774.371
774.371
774.371
774.371
774.371
774.371
774.371
774.371
774.371
774.371
774.371
774.371
774.371
774.371
774.371
774.371
774.371
774.371
774.371
774.371
774.37
774.37
774.37
774.37
774.37
774.37
774.37
774.37
774.37
774.37
774.37
774.37
774.37
774.371
774.371
774.371
774.371
774.371
774.371
774.372
774.372
774.372
774.372
774.372
774.372
774.372
774.372
774.372
774.372
774.371
774.371
774.371
774.371
774.371
774.37
774.37
774.37
774.37
774.37
774.369
774.369
774.369
774.369
774.369
774.369
774.369
774.369
774.369
774.369
774.369
774.369
774.369
774.368
774.368
774.368
774.368
774.368
774.367
774.367
774.366
774.366
774.365
774.364
774.363
774.363
774.362
774.361
774.36
774.358
774.357
774.356
774.355
774.354
774.353
774.352
774.35
774.349
774.348
774.347
774.346
774.345
774.344
774.343
774.343
774.342
774.341
774.34
774.34
774.339
774.338
774.337
774.336
774.335
774.334
774.333
774.331
774.33
774.328
774.326
774.325
774.323
774.321
774.319
774.317
774.315
774.313
774.311
774.309
774.307
774.305
774.303
774.302
774.3
774.298
774.296
774.295
774.293
774.292
774.291
774.29
774.289
774.288
774.287
774.286
774.285
774.284
774.283
774.281
774.28
774.278
774.277
774.272
774.275
774.147
774.442
774.442
774.442
774.442
774.442
774.442
774.442
774.442
774.442
774.441
774.439
774.436
774.433
774.431
774.429
774.428
774.428
774.427
774.427
774.427
774.425
774.423
774.42
774.417
774.414
774.41
774.406
774.403
774.399
774.396
774.394
774.393
774.392
774.392
774.391
774.39
774.388
774.385
774.382
774.38
774.377
774.376
774.374
774.373
774.373
774.372
774.372
774.372
774.372
774.372
774.372
774.373
774.373
774.373
774.373
774.373
774.373
774.373
774.373
774.373
774.373
774.373
774.372
774.372
774.372
774.372
774.372
774.372
774.372
774.372
774.372
774.372
774.372
774.372
774.372
774.372
774.372
774.372
774.372
774.372
774.372
774.372
774.373
774.373
774.373
774.373
774.373
774.373
774.373
774.373
774.373
774.373
774.373
774.373
774.373
774.373
774.373
774.373
774.372
774.372
774.372
774.372
774.371
774.371
774.371
774.371
774.371
774.371
774.37
774.37
774.37
774.37
774.37
774.37
774.37
774.37
774.37
774.37
774.37
774.37
774.37
774.369
774.369
774.369
774.368
774.368
774.367
774.367
774.366
774.365
774.364
774.363
774.362
774.361
774.36
774.359
774.358
774.356
774.355
774.354
774.353
774.352
774.351
774.35
774.349
774.348
774.347
774.346
774.345
774.344
774.343
774.343
774.342
774.341
774.34
774.339
774.338
774.337
774.336
774.335
774.334
774.333
774.331
774.329
774.328
774.326
774.324
774.322
774.32
774.319
774.317
774.315
774.313
774.311
774.309
774.307
774.305
774.303
774.301
774.299
774.298
774.296
774.295
774.293
774.292
774.291
774.29
774.289
774.288
774.287
774.286
774.285
774.284
774.283
774.282
774.28
774.279
774.273
774.284
774.06
774.327
774.34
774.338
774.337
774.334
774.33
774.324
774.316
774.312
774.317
774.325
774.311
774.281
774.263
774.251
774.208
774.17
774.169
774.188
774.161
774.314
774.317
774.315
774.31
774.304
774.299
774.29
774.279
774.272
774.274
774.283
774.271
774.229
774.219
774.212
774.181
774.116
774.105
774.123
774.121
774.273
774.272
774.269
774.264
774.258
774.251
774.243
774.236
774.226
774.217
774.208
774.202
774.2
774.198
774.189
774.175
774.165
774.159
774.148
774.143
774.202
774.202
774.207
774.206
774.199
774.184
774.169
774.146
774.128
774.11
774.088
774.066
774.058
774.038
774.022
774.006
773.995
773.984
773.973
773.964
774.148
774.127
774.123
774.125
774.123
774.119
774.106
774.091
774.074
774.061
774.042
774.031
774.013
774.004
773.99
773.984
773.976
773.977
773.984
774.013
773.993
773.959
773.944
773.917
773.903
773.911
773.923
773.916
773.906
773.904
773.905
773.906
773.905
773.903
773.902
773.902
773.901
773.901
773.9
773.9
773.9
773.9
773.899
773.899
773.899
773.899
773.898
773.898
773.898
773.898
773.898
773.897
773.897
773.896
773.895
773.894
773.893
773.893
773.893
773.892
773.89
773.889
773.887
773.886
773.885
773.884
773.882
773.881
773.88
773.88
773.88
773.881
773.882
773.883
773.883
773.883
773.884
773.884
773.885
773.889
773.895
773.901
773.907
773.912
773.915
773.917
773.921
773.929
773.963
774.083
774.223
774.29
774.298
774.266
774.129
773.979
773.892
773.853
773.841
773.84
773.845
773.856
773.863
773.868
773.872
773.874
773.875
773.876
773.877
773.877
773.877
773.876
773.876
773.876
773.875
773.875
773.875
773.874
773.874
773.874
773.873
773.873
773.873
773.873
773.873
773.873
773.873
773.874
773.874
773.874
773.875
773.875
773.875
773.876
773.876
773.876
773.877
773.877
773.878
773.878
773.878
773.878
773.878
773.878
773.879
773.878
773.878
773.878
773.878
773.877
773.877
773.876
773.876
773.875
773.874
773.873
773.873
773.872
773.871
773.87
773.869
773.868
773.867
773.866
773.865
773.864
773.863
773.862
773.861
773.86
773.86
773.859
773.859
773.858
773.858
773.857
773.857
773.857
773.856
773.856
773.856
773.855
773.855
773.854
773.854
773.853
773.853
773.852
773.852
773.851
773.85
773.849
773.848
773.847
773.846
773.845
773.844
773.842
773.841
773.839
773.838
773.836
773.835
773.833
773.832
773.83
773.828
773.826
773.825
773.823
773.821
773.819
773.818
773.816
773.816
773.814
773.813
773.808
773.813
773.629
773.97
773.962
773.953
773.929
773.917
773.93
773.939
773.932
773.923
773.921
773.922
773.922
773.921
773.919
773.918
773.917
773.917
773.916
773.916
773.915
773.915
773.915
773.915
773.915
773.914
773.914
773.914
773.914
773.914
773.914
773.914
773.914
773.914
773.914
773.914
773.914
773.914
773.913
773.913
773.911
773.909
773.907
773.905
773.903
773.902
773.9
773.899
773.899
773.899
773.9
773.902
773.904
773.904
773.905
773.906
773.906
773.907
773.909
773.915
773.921
773.928
773.934
773.938
773.941
773.943
773.946
773.953
773.98
774.07
774.172
774.226
774.237
774.222
774.139
774.013
773.93
773.884
773.863
773.857
773.857
773.859
773.864
773.868
773.871
773.873
773.874
773.875
773.875
773.876
773.876
773.875
773.875
773.875
773.874
773.874
773.874
773.873
773.873
773.873
773.872
773.872
773.872
773.872
773.872
773.872
773.872
773.872
773.872
773.873
773.873
773.873
773.874
773.874
773.874
773.875
773.875
773.875
773.876
773.876
773.876
773.877
773.877
773.877
773.877
773.877
773.877
773.877
773.877
773.876
773.876
773.876
773.875
773.874
773.874
773.873
773.872
773.871
773.87
773.869
773.868
773.867
773.866
773.865
773.864
773.863
773.862
773.862
773.861
773.86
773.859
773.858
773.858
773.857
773.857
773.856
773.856
773.856
773.855
773.855
773.855
773.854
773.854
773.853
773.853
773.853
773.852
773.852
773.851
773.85
773.849
773.849
773.848
773.847
773.846
773.844
773.843
773.842
773.841
773.84
773.838
773.837
773.835
773.834
773.832
773.83
773.828
773.827
773.825
773.823
773.821
773.82
773.818
773.817
773.815
773.814
773.812
773.812
773.808
773.807
773.702
774.159
774.168
774.177
774.179
774.186
774.186
774.183
774.18
774.178
774.176
774.173
774.17
774.168
774.165
774.163
774.162
774.16
774.159
774.159
774.158
774.158
774.159
774.159
774.16
774.16
774.161
774.161
774.16
774.159
774.158
774.157
774.156
774.156
774.155
774.156
774.156
774.157
774.158
774.158
774.158
774.159
774.162
774.164
774.166
774.169
774.171
774.173
774.173
774.172
774.169
774.158
774.12
774.065
774.016
773.975
773.945
773.923
773.909
773.902
773.899
773.898
773.898
773.9
773.904
773.907
773.91
773.912
773.912
773.91
773.905
773.9
773.894
773.89
773.886
773.883
773.882
773.881
773.881
773.881
773.881
773.881
773.88
773.88
773.879
773.879
773.879
773.878
773.878
773.877
773.877
773.876
773.876
773.875
773.875
773.874
773.874
773.873
773.873
773.873
773.872
773.872
773.872
773.872
773.872
773.872
773.872
773.872
773.872
773.873
773.873
773.873
773.874
773.874
773.874
773.875
773.875
773.875
773.876
773.876
773.876
773.877
773.877
773.877
773.877
773.877
773.877
773.877
773.877
773.876
773.876
773.876
773.875
773.874
773.874
773.873
773.872
773.871
773.87
773.869
773.868
773.867
773.866
773.865
773.864
773.863
773.862
773.862
773.861
773.86
773.859
773.858
773.858
773.857
773.857
773.856
773.856
773.856
773.855
773.855
773.855
773.854
773.854
773.853
773.853
773.853
773.852
773.851
773.851
773.85
773.849
773.849
773.848
773.847
773.846
773.844
773.843
773.842
773.841
773.839
773.838
773.837
773.835
773.833
773.832
773.83
773.828
773.827
773.825
773.823
773.822
773.82
773.818
773.817
773.815
773.814
773.813
773.811
773.811
773.809
773.811
773.942
773.938
773.929
773.923
773.922
773.923
773.921
773.918
773.916
773.916
773.916
773.915
773.914
773.914
773.913
773.913
773.912
773.912
773.911
773.911
773.911
773.91
773.91
773.91
773.909
773.909
773.908
773.907
773.906
773.905
773.904
773.903
773.902
773.902
773.901
773.9
773.9
773.899
773.898
773.897
773.896
773.896
773.895
773.894
773.894
773.892
773.891
773.891
773.891
773.89
773.89
773.89
773.89
773.891
773.892
773.895
773.9
773.903
773.909
773.919
773.932
773.943
773.95
773.955
773.965
773.994
774.037
774.07
774.085
774.086
774.079
774.042
773.971
773.918
773.884
773.867
773.861
773.859
773.86
773.863
773.867
773.87
773.872
773.874
773.875
773.876
773.876
773.876
773.876
773.876
773.876
773.875
773.875
773.874
773.874
773.874
773.873
773.873
773.873
773.872
773.872
773.872
773.872
773.872
773.872
773.872
773.872
773.872
773.873
773.873
773.873
773.874
773.874
773.874
773.875
773.875
773.875
773.876
773.876
773.876
773.877
773.877
773.877
773.877
773.877
773.877
773.877
773.877
773.876
773.876
773.876
773.875
773.874
773.874
773.873
773.872
773.871
773.87
773.869
773.868
773.867
773.866
773.865
773.864
773.863
773.862
773.862
773.861
773.86
773.859
773.858
773.858
773.857
773.857
773.856
773.856
773.856
773.855
773.855
773.855
773.854
773.854
773.853
773.853
773.853
773.852
773.851
773.851
773.85
773.849
773.849
773.848
773.847
773.846
773.844
773.843
773.842
773.841
773.839
773.838
773.837
773.835
773.833
773.832
773.83
773.828
773.827
773.825
773.823
773.822
773.82
773.818
773.817
773.815
773.814
773.813
773.811
773.812
773.814
773.865
774.064
774.063
774.058
774.048
774.047
774.048
774.046
774.043
774.042
774.042
774.041
774.04
774.039
774.038
774.037
774.036
774.035
774.035
774.034
774.033
774.032
774.031
774.03
774.029
774.027
774.026
774.025
774.024
774.022
774.021
774.021
774.02
774.019
774.019
774.018
774.018
774.017
774.017
774.016
774.015
774.014
774.012
774.011
774.009
774.008
774.007
774.006
774.005
774.005
774.004
774.003
774.003
774.004
774.005
774.007
774.011
774.017
774.025
774.031
774.036
774.037
774.038
774.041
774.059
774.137
774.268
774.348
774.376
774.374
774.335
774.219
774.109
774.03
773.975
773.939
773.916
773.901
773.893
773.888
773.885
773.883
773.882
773.881
773.88
773.88
773.88
773.879
773.879
773.878
773.878
773.877
773.877
773.876
773.876
773.876
773.875
773.875
773.874
773.874
773.874
773.873
773.873
773.873
773.873
773.873
773.873
773.873
773.874
773.874
773.874
773.875
773.875
773.875
773.876
773.876
773.876
773.877
773.877
773.878
773.878
773.878
773.878
773.878
773.878
773.879
773.878
773.878
773.878
773.878
773.877
773.877
773.876
773.876
773.875
773.874
773.873
773.873
773.872
773.871
773.87
773.869
773.868
773.867
773.866
773.865
773.864
773.863
773.862
773.861
773.86
773.86
773.859
773.859
773.858
773.858
773.857
773.857
773.857
773.856
773.856
773.856
773.855
773.855
773.854
773.854
773.853
773.853
773.852
773.852
773.851
773.85
773.849
773.848
773.847
773.846
773.845
773.843
773.842
773.841
773.839
773.838
773.836
773.835
773.833
773.831
773.83
773.828
773.826
773.824
773.823
773.821
773.82
773.818
773.817
773.815
773.814
773.813
773.813
773.815
773.87
773.694
773.673
773.668
773.669
773.668
773.663
773.649
773.64
773.621
773.612
773.593
773.583
773.566
773.558
773.544
773.54
773.529
773.53
773.534
773.558
773.743
773.743
773.748
773.747
773.74
773.726
773.708
773.694
773.67
773.659
773.637
773.617
773.601
773.584
773.567
773.559
773.549
773.537
773.529
773.517
773.811
773.811
773.808
773.804
773.798
773.792
773.784
773.775
773.768
773.761
773.756
773.749
773.738
773.728
773.721
773.714
773.707
773.702
773.708
773.719
773.851
773.854
773.852
773.847
773.843
773.837
773.834
773.834
773.827
773.808
773.801
773.79
773.757
773.72
773.715
773.726
773.739
773.742
773.698
773.545
773.863
773.877
773.875
773.875
773.871
773.868
773.867
773.869
773.865
773.85
773.842
773.827
773.796
773.775
773.775
773.783
773.795
773.799
773.752
773.598
773.616
773.614
773.609
773.609
773.608
773.602
773.6
773.6
773.599
773.598
773.596
773.595
773.593
773.592
773.59
773.589
773.588
773.587
773.586
773.584
773.582
773.581
773.579
773.576
773.574
773.571
773.569
773.566
773.563
773.56
773.558
773.555
773.553
773.551
773.549
773.546
773.544
773.542
773.54
773.538
773.536
773.534
773.532
773.53
773.529
773.527
773.526
773.525
773.524
773.522
773.521
773.521
773.521
773.522
773.524
773.527
773.529
773.533
773.539
773.544
773.547
773.548
773.549
773.551
773.562
773.621
773.751
773.84
773.876
773.877
773.849
773.745
773.628
773.542
773.482
773.441
773.414
773.396
773.385
773.378
773.373
773.369
773.366
773.364
773.362
773.36
773.358
773.357
773.356
773.354
773.353
773.352
773.351
773.35
773.35
773.349
773.349
773.344
773.349
773.177
773.499
773.488
773.485
773.486
773.485
773.479
773.477
773.477
773.478
773.478
773.476
773.475
773.474
773.473
773.471
773.47
773.469
773.468
773.467
773.466
773.464
773.463
773.461
773.459
773.457
773.455
773.453
773.451
773.449
773.446
773.444
773.441
773.439
773.437
773.435
773.433
773.431
773.428
773.426
773.425
773.423
773.421
773.42
773.418
773.416
773.415
773.413
773.412
773.412
773.411
773.411
773.41
773.41
773.41
773.41
773.412
773.414
773.419
773.423
773.427
773.434
773.444
773.454
773.46
773.465
773.472
773.493
773.534
773.567
773.584
773.587
773.582
773.554
773.485
773.426
773.387
773.365
773.354
773.35
773.349
773.35
773.352
773.353
773.354
773.355
773.355
773.354
773.353
773.353
773.352
773.351
773.35
773.349
773.348
773.348
773.347
773.347
773.344
773.344
773.246
773.691
773.697
773.724
773.731
773.733
773.729
773.728
773.728
773.729
773.728
773.727
773.727
773.726
773.724
773.722
773.719
773.717
773.714
773.711
773.708
773.706
773.704
773.702
773.701
773.699
773.697
773.696
773.694
773.692
773.69
773.688
773.686
773.684
773.683
773.681
773.68
773.679
773.679
773.679
773.679
773.678
773.678
773.678
773.678
773.68
773.683
773.685
773.686
773.686
773.686
773.684
773.674
773.642
773.589
773.542
773.502
773.471
773.449
773.434
773.425
773.42
773.418
773.417
773.418
773.419
773.42
773.421
773.421
773.42
773.416
773.41
773.404
773.397
773.39
773.384
773.38
773.376
773.374
773.372
773.37
773.368
773.366
773.365
773.363
773.361
773.359
773.357
773.356
773.354
773.353
773.352
773.351
773.35
773.349
773.348
773.348
773.347
773.347
773.347
773.349
773.497
773.499
773.487
773.482
773.501
773.502
773.485
773.478
773.481
773.486
773.486
773.483
773.481
773.481
773.481
773.48
773.478
773.477
773.476
773.474
773.472
773.47
773.468
773.465
773.463
773.46
773.458
773.456
773.454
773.453
773.451
773.449
773.447
773.446
773.444
773.443
773.441
773.439
773.437
773.434
773.433
773.431
773.43
773.428
773.426
773.424
773.423
773.422
773.422
773.423
773.423
773.424
773.424
773.424
773.424
773.424
773.425
773.427
773.432
773.436
773.44
773.444
773.446
773.447
773.449
773.449
773.451
773.455
773.475
773.549
773.654
773.717
773.735
773.727
773.666
773.538
773.443
773.386
773.358
773.347
773.344
773.344
773.347
773.35
773.351
773.352
773.352
773.352
773.352
773.351
773.35
773.35
773.349
773.349
773.348
773.348
773.347
773.348
773.351
773.401
773.501
773.496
773.481
773.469
773.487
773.489
773.472
773.462
773.465
773.47
773.47
773.467
773.464
773.464
773.464
773.464
773.462
773.46
773.459
773.458
773.456
773.454
773.452
773.45
773.448
773.445
773.443
773.441
773.439
773.437
773.435
773.433
773.431
773.429
773.427
773.426
773.424
773.422
773.42
773.418
773.416
773.414
773.413
773.411
773.41
773.408
773.406
773.405
773.403
773.403
773.402
773.402
773.403
773.403
773.402
773.401
773.401
773.401
773.402
773.405
773.409
773.413
773.416
773.419
773.421
773.423
773.424
773.426
773.43
773.449
773.532
773.679
773.766
773.788
773.774
773.678
773.516
773.409
773.355
773.333
773.328
773.33
773.337
773.344
773.348
773.35
773.352
773.352
773.352
773.352
773.351
773.351
773.35
773.35
773.349
773.349
773.348
773.35
773.352
773.406
773.237
773.216
773.212
773.213
773.212
773.207
773.194
773.185
773.168
773.159
773.141
773.131
773.115
773.108
773.094
773.09
773.08
773.08
773.084
773.108
773.285
773.285
773.29
773.289
773.282
773.268
773.251
773.238
773.215
773.204
773.182
773.165
773.149
773.132
773.119
773.112
773.099
773.089
773.08
773.069
773.35
773.35
773.347
773.343
773.338
773.332
773.325
773.317
773.311
773.304
773.299
773.292
773.282
773.273
773.267
773.26
773.254
773.253
773.262
773.269
773.389
773.392
773.39
773.386
773.382
773.377
773.376
773.377
773.367
773.35
773.345
773.328
773.289
773.267
773.272
773.285
773.295
773.287
773.215
773.102
773.401
773.414
773.413
773.413
773.41
773.408
773.409
773.41
773.405
773.391
773.383
773.363
773.333
773.323
773.328
773.339
773.349
773.341
773.275
773.151
773.167
773.168
773.165
773.167
773.166
773.162
773.163
773.165
773.167
773.168
773.169
773.17
773.171
773.172
773.173
773.173
773.174
773.174
773.174
773.174
773.174
773.175
773.175
773.176
773.177
773.178
773.179
773.18
773.181
773.183
773.184
773.186
773.187
773.189
773.191
773.193
773.195
773.197
773.199
773.202
773.205
773.208
773.211
773.214
773.218
773.222
773.225
773.229
773.233
773.237
773.242
773.249
773.256
773.262
773.271
773.281
773.294
773.307
773.317
773.324
773.329
773.338
773.363
773.453
773.588
773.675
773.707
773.707
773.673
773.564
773.46
773.388
773.341
773.312
773.296
773.29
773.289
773.291
773.294
773.3
773.307
773.314
773.321
773.329
773.337
773.345
773.353
773.362
773.37
773.379
773.388
773.397
773.407
773.416
773.426
773.436
773.446
773.457
773.467
773.478
773.489
773.5
773.511
773.523
773.535
773.547
773.559
773.571
773.583
773.595
773.608
773.62
773.633
773.646
773.659
773.672
773.685
773.698
773.711
773.724
773.737
773.75
773.763
773.777
773.79
773.804
773.817
773.831
773.844
773.858
773.872
773.886
773.9
773.914
773.928
773.942
773.957
773.971
773.986
774.001
774.016
774.031
774.046
774.062
774.077
774.093
774.109
774.125
774.141
774.158
774.174
774.191
774.208
774.225
774.243
774.26
774.278
774.296
774.314
774.332
774.35
774.368
774.386
774.405
774.423
774.442
774.461
774.479
774.498
774.517
774.535
774.554
774.573
774.592
774.61
774.629
774.648
774.667
774.686
774.705
774.724
774.743
774.763
774.782
774.801
774.821
774.84
774.861
774.879
774.9
774.918
774.941
774.957
774.981
774.996
775.022
775.036
775.064
775.079
775.121
773.052
773.045
773.045
773.047
773.046
773.043
773.043
773.045
773.048
773.049
773.05
773.051
773.052
773.054
773.055
773.056
773.056
773.057
773.058
773.058
773.059
773.06
773.06
773.061
773.062
773.063
773.064
773.065
773.067
773.068
773.07
773.071
773.073
773.075
773.077
773.078
773.081
773.083
773.085
773.088
773.091
773.094
773.097
773.1
773.104
773.108
773.112
773.117
773.121
773.126
773.132
773.137
773.142
773.148
773.158
773.168
773.178
773.188
773.203
773.221
773.238
773.249
773.258
773.274
773.313
773.362
773.4
773.42
773.425
773.42
773.387
773.325
773.28
773.257
773.251
773.251
773.253
773.263
773.274
773.285
773.296
773.306
773.315
773.324
773.333
773.342
773.351
773.359
773.368
773.377
773.387
773.396
773.405
773.415
773.425
773.435
773.445
773.455
773.466
773.477
773.488
773.499
773.51
773.522
773.533
773.545
773.557
773.569
773.582
773.594
773.606
773.619
773.632
773.645
773.657
773.67
773.683
773.696
773.709
773.722
773.736
773.749
773.762
773.775
773.789
773.802
773.816
773.829
773.843
773.857
773.871
773.884
773.898
773.912
773.927
773.941
773.955
773.97
773.985
774
774.014
774.03
774.045
774.06
774.076
774.092
774.108
774.124
774.14
774.156
774.173
774.19
774.207
774.224
774.241
774.259
774.277
774.294
774.312
774.33
774.348
774.367
774.385
774.404
774.422
774.441
774.459
774.478
774.497
774.515
774.534
774.553
774.571
774.59
774.609
774.628
774.647
774.666
774.685
774.704
774.723
774.742
774.761
774.781
774.8
774.82
774.838
774.859
774.877
774.899
774.916
774.939
774.955
774.98
774.995
775.021
775.035
775.063
775.078
775.12
773.24
773.251
773.283
773.292
773.293
773.292
773.293
773.296
773.297
773.297
773.296
773.296
773.295
773.295
773.296
773.297
773.298
773.299
773.3
773.301
773.303
773.304
773.305
773.306
773.307
773.308
773.309
773.31
773.311
773.313
773.314
773.315
773.317
773.319
773.321
773.324
773.327
773.331
773.334
773.338
773.344
773.35
773.358
773.366
773.374
773.381
773.386
773.391
773.392
773.39
773.374
773.329
773.284
773.247
773.221
773.202
773.192
773.19
773.191
773.193
773.199
773.206
773.214
773.223
773.231
773.238
773.243
773.246
773.248
773.249
773.25
773.252
773.255
773.259
773.264
773.271
773.277
773.284
773.291
773.298
773.306
773.313
773.32
773.328
773.336
773.344
773.352
773.36
773.369
773.378
773.387
773.396
773.405
773.415
773.425
773.435
773.445
773.455
773.466
773.477
773.488
773.499
773.51
773.522
773.533
773.545
773.557
773.569
773.582
773.594
773.606
773.619
773.632
773.645
773.657
773.67
773.683
773.696
773.709
773.722
773.736
773.749
773.762
773.775
773.789
773.802
773.816
773.829
773.843
773.857
773.871
773.884
773.898
773.912
773.927
773.941
773.955
773.97
773.985
774
774.014
774.03
774.045
774.06
774.076
774.092
774.108
774.124
774.14
774.156
774.173
774.19
774.207
774.224
774.241
774.259
774.277
774.294
774.312
774.33
774.348
774.367
774.385
774.404
774.422
774.441
774.459
774.478
774.497
774.515
774.534
774.553
774.571
774.59
774.609
774.628
774.647
774.666
774.685
774.704
774.723
774.742
774.761
774.781
774.8
774.82
774.839
774.859
774.878
774.898
774.917
774.938
774.957
774.977
774.998
775.018
775.036
775.061
775.078
775.1
773.041
773.056
773.042
773.049
773.07
773.064
773.05
773.048
773.055
773.06
773.059
773.058
773.058
773.059
773.061
773.061
773.062
773.062
773.063
773.064
773.065
773.066
773.068
773.069
773.071
773.072
773.074
773.075
773.077
773.078
773.079
773.081
773.082
773.084
773.086
773.088
773.09
773.092
773.094
773.097
773.1
773.103
773.106
773.109
773.113
773.116
773.12
773.126
773.132
773.137
773.143
773.149
773.154
773.159
773.164
773.172
773.183
773.196
773.209
773.22
773.231
773.241
773.249
773.255
773.262
773.276
773.316
773.421
773.522
773.575
773.586
773.57
773.486
773.372
773.302
773.269
773.26
773.26
773.265
773.278
773.29
773.302
773.312
773.322
773.332
773.341
773.35
773.359
773.368
773.377
773.386
773.396
773.405
773.415
773.425
773.435
773.445
773.455
773.466
773.477
773.488
773.499
773.51
773.522
773.533
773.545
773.557
773.569
773.582
773.594
773.606
773.619
773.632
773.645
773.657
773.67
773.683
773.696
773.709
773.722
773.736
773.749
773.762
773.775
773.789
773.802
773.816
773.829
773.843
773.857
773.871
773.884
773.898
773.912
773.927
773.941
773.955
773.97
773.985
774
774.014
774.03
774.045
774.06
774.076
774.092
774.108
774.124
774.14
774.156
774.173
774.19
774.207
774.224
774.241
774.259
774.277
774.294
774.312
774.33
774.348
774.367
774.385
774.404
774.422
774.441
774.459
774.478
774.497
774.515
774.534
774.553
774.571
774.59
774.609
774.628
774.647
774.666
774.685
774.704
774.723
774.742
774.761
774.781
774.8
774.819
774.84
774.858
774.879
774.896
774.919
774.936
774.959
774.975
775
775.015
775.041
775.054
775.086
775.065
773.042
773.055
773.037
773.035
773.056
773.051
773.036
773.032
773.038
773.043
773.043
773.042
773.042
773.044
773.046
773.046
773.047
773.047
773.048
773.049
773.05
773.051
773.052
773.053
773.055
773.056
773.058
773.059
773.061
773.062
773.063
773.065
773.066
773.068
773.07
773.072
773.074
773.076
773.078
773.081
773.084
773.087
773.09
773.093
773.097
773.1
773.104
773.108
773.113
773.118
773.124
773.129
773.135
773.14
773.145
773.149
773.155
773.164
773.175
773.187
773.199
773.21
773.221
773.23
773.236
773.243
773.258
773.303
773.439
773.577
773.642
773.65
773.616
773.481
773.346
773.276
773.249
773.245
773.249
773.265
773.283
773.298
773.31
773.321
773.332
773.341
773.351
773.36
773.369
773.378
773.388
773.397
773.406
773.416
773.426
773.436
773.446
773.457
773.467
773.478