/*--------------------------------*- C++ -*----------------------------------*\
| =========                 |                                                 |
| \\      /  F ield         | OpenFOAM: The Open Source CFD Toolbox           |
|  \\    /   O peration     | Version:  3.0.x                                 |
|   \\  /    A nd           | Web:      www.OpenFOAM.org                      |
|    \\/     M anipulation  |                                                 |
\*---------------------------------------------------------------------------*/
FoamFile
{
    version     2.0;
    format      ascii;
    class       volScalarField;
    location    "0.18";
    object      T;
}
// * * * * * * * * * * * * * * * * * * * * * * * * * * * * * * * * * * * * * //

dimensions      [0 0 0 1 0 0 0];

internalField   nonuniform List<scalar> 
6900
(
773.929
773.927
773.923
773.92
773.917
773.913
773.909
773.905
773.902
773.901
773.899
773.898
773.897
773.896
773.894
773.89
773.886
773.882
773.878
773.876
773.873
773.872
773.871
773.87
773.87
773.869
773.869
773.869
773.868
773.868
773.868
773.868
773.867
773.867
773.867
773.867
773.866
773.866
773.865
773.865
773.864
773.864
773.863
773.862
773.861
773.86
773.859
773.857
773.856
773.855
773.853
773.852
773.85
773.848
773.847
773.845
773.843
773.842
773.84
773.838
773.836
773.835
773.833
773.831
773.83
773.828
773.827
773.825
773.824
773.823
773.821
773.82
773.819
773.818
773.816
773.815
773.814
773.812
773.811
773.81
773.808
773.807
773.805
773.804
773.802
773.8
773.799
773.797
773.795
773.793
773.791
773.789
773.787
773.785
773.782
773.78
773.778
773.776
773.773
773.771
773.769
773.767
773.765
773.763
773.761
773.759
773.757
773.755
773.753
773.751
773.75
773.748
773.746
773.745
773.743
773.742
773.74
773.739
773.738
773.737
773.736
773.735
773.734
773.733
773.732
773.732
773.732
773.731
773.731
773.731
773.732
773.732
773.733
773.733
773.734
773.736
773.737
773.739
773.74
773.742
773.744
773.747
773.749
773.751
773.754
773.757
773.759
773.762
773.765
773.767
773.77
773.773
773.775
773.777
773.78
773.782
773.784
773.786
773.788
773.789
773.791
773.793
773.794
773.795
773.796
773.798
773.799
773.8
773.801
773.802
773.803
773.804
773.805
773.806
773.807
773.809
773.81
773.812
773.813
773.815
773.817
773.819
773.821
773.823
773.825
773.827
773.829
773.831
773.833
773.835
773.836
773.838
773.84
773.841
773.842
773.844
773.845
773.848
773.848
773.914
773.928
773.925
773.922
773.918
773.915
773.912
773.908
773.904
773.901
773.899
773.898
773.897
773.896
773.894
773.893
773.889
773.885
773.881
773.877
773.875
773.873
773.871
773.87
773.869
773.869
773.868
773.868
773.868
773.867
773.867
773.867
773.867
773.867
773.866
773.866
773.866
773.865
773.865
773.865
773.864
773.863
773.863
773.862
773.861
773.86
773.859
773.858
773.857
773.855
773.854
773.852
773.851
773.849
773.848
773.846
773.844
773.842
773.841
773.839
773.837
773.836
773.834
773.832
773.831
773.829
773.828
773.826
773.825
773.823
773.822
773.821
773.819
773.818
773.817
773.815
773.814
773.813
773.812
773.81
773.809
773.807
773.806
773.804
773.803
773.801
773.8
773.798
773.796
773.794
773.792
773.79
773.788
773.786
773.784
773.782
773.779
773.777
773.775
773.773
773.77
773.768
773.766
773.764
773.762
773.76
773.758
773.756
773.754
773.752
773.75
773.749
773.747
773.745
773.744
773.742
773.741
773.739
773.738
773.737
773.736
773.735
773.734
773.733
773.732
773.732
773.731
773.731
773.73
773.73
773.73
773.731
773.731
773.732
773.733
773.734
773.735
773.736
773.738
773.739
773.741
773.743
773.746
773.748
773.751
773.753
773.756
773.758
773.761
773.764
773.766
773.769
773.772
773.774
773.776
773.779
773.781
773.783
773.785
773.787
773.789
773.79
773.792
773.793
773.794
773.796
773.797
773.798
773.799
773.8
773.801
773.802
773.803
773.804
773.805
773.806
773.808
773.809
773.811
773.812
773.814
773.816
773.818
773.82
773.822
773.824
773.826
773.828
773.83
773.832
773.834
773.836
773.837
773.839
773.84
773.841
773.843
773.844
773.847
773.847
773.908
773.928
773.925
773.922
773.918
773.915
773.912
773.908
773.904
773.901
773.899
773.898
773.897
773.896
773.894
773.893
773.889
773.885
773.881
773.877
773.875
773.873
773.871
773.87
773.869
773.869
773.868
773.868
773.868
773.867
773.867
773.867
773.867
773.867
773.866
773.866
773.866
773.865
773.865
773.865
773.864
773.863
773.863
773.862
773.861
773.86
773.859
773.858
773.857
773.855
773.854
773.852
773.851
773.849
773.848
773.846
773.844
773.842
773.841
773.839
773.837
773.836
773.834
773.832
773.831
773.829
773.828
773.826
773.825
773.823
773.822
773.821
773.819
773.818
773.817
773.815
773.814
773.813
773.812
773.81
773.809
773.807
773.806
773.804
773.803
773.801
773.8
773.798
773.796
773.794
773.792
773.79
773.788
773.786
773.784
773.782
773.779
773.777
773.775
773.773
773.77
773.768
773.766
773.764
773.762
773.76
773.758
773.756
773.754
773.752
773.75
773.749
773.747
773.745
773.744
773.742
773.741
773.739
773.738
773.737
773.736
773.735
773.734
773.733
773.732
773.732
773.731
773.731
773.73
773.73
773.73
773.731
773.731
773.732
773.733
773.734
773.735
773.736
773.738
773.739
773.741
773.743
773.746
773.748
773.751
773.753
773.756
773.758
773.761
773.764
773.766
773.769
773.772
773.774
773.776
773.779
773.781
773.783
773.785
773.787
773.789
773.79
773.792
773.793
773.794
773.796
773.797
773.798
773.799
773.8
773.801
773.802
773.803
773.804
773.805
773.806
773.808
773.809
773.811
773.812
773.814
773.816
773.818
773.82
773.822
773.824
773.826
773.828
773.83
773.832
773.834
773.836
773.837
773.839
773.84
773.841
773.843
773.844
773.846
773.846
773.851
773.928
773.925
773.922
773.918
773.915
773.912
773.908
773.904
773.901
773.899
773.898
773.897
773.896
773.894
773.893
773.889
773.885
773.881
773.877
773.875
773.873
773.871
773.87
773.869
773.869
773.868
773.868
773.868
773.867
773.867
773.867
773.867
773.867
773.866
773.866
773.866
773.865
773.865
773.865
773.864
773.863
773.863
773.862
773.861
773.86
773.859
773.858
773.857
773.855
773.854
773.852
773.851
773.849
773.848
773.846
773.844
773.842
773.841
773.839
773.837
773.836
773.834
773.832
773.831
773.829
773.828
773.826
773.825
773.823
773.822
773.821
773.819
773.818
773.817
773.815
773.814
773.813
773.812
773.81
773.809
773.807
773.806
773.804
773.803
773.801
773.8
773.798
773.796
773.794
773.792
773.79
773.788
773.786
773.784
773.782
773.779
773.777
773.775
773.773
773.77
773.768
773.766
773.764
773.762
773.76
773.758
773.756
773.754
773.752
773.75
773.749
773.747
773.745
773.744
773.742
773.741
773.739
773.738
773.737
773.736
773.735
773.734
773.733
773.732
773.732
773.731
773.731
773.73
773.73
773.73
773.731
773.731
773.732
773.733
773.734
773.735
773.736
773.738
773.739
773.741
773.743
773.746
773.748
773.751
773.753
773.756
773.758
773.761
773.764
773.766
773.769
773.772
773.774
773.776
773.779
773.781
773.783
773.785
773.787
773.789
773.79
773.792
773.793
773.794
773.796
773.797
773.798
773.799
773.8
773.801
773.802
773.803
773.804
773.805
773.806
773.808
773.809
773.811
773.812
773.814
773.816
773.818
773.82
773.822
773.824
773.826
773.828
773.83
773.832
773.834
773.836
773.837
773.839
773.84
773.842
773.842
773.845
773.843
773.848
773.735
773.929
773.927
773.923
773.92
773.917
773.913
773.909
773.905
773.902
773.901
773.899
773.898
773.897
773.896
773.894
773.89
773.886
773.882
773.878
773.876
773.873
773.872
773.871
773.87
773.87
773.869
773.869
773.869
773.868
773.868
773.868
773.868
773.867
773.867
773.867
773.867
773.866
773.866
773.865
773.865
773.864
773.864
773.863
773.862
773.861
773.86
773.859
773.857
773.856
773.855
773.853
773.852
773.85
773.848
773.847
773.845
773.843
773.842
773.84
773.838
773.836
773.835
773.833
773.831
773.83
773.828
773.827
773.825
773.824
773.823
773.821
773.82
773.819
773.818
773.816
773.815
773.814
773.812
773.811
773.81
773.808
773.807
773.805
773.804
773.802
773.8
773.799
773.797
773.795
773.793
773.791
773.789
773.787
773.785
773.782
773.78
773.778
773.776
773.773
773.771
773.769
773.767
773.765
773.763
773.761
773.759
773.757
773.755
773.753
773.751
773.75
773.748
773.746
773.745
773.743
773.742
773.74
773.739
773.738
773.737
773.736
773.735
773.734
773.733
773.732
773.732
773.732
773.731
773.731
773.731
773.732
773.732
773.733
773.733
773.734
773.736
773.737
773.739
773.74
773.742
773.744
773.747
773.749
773.751
773.754
773.757
773.759
773.762
773.765
773.767
773.77
773.773
773.775
773.777
773.78
773.782
773.784
773.786
773.788
773.789
773.791
773.793
773.794
773.795
773.796
773.798
773.799
773.8
773.801
773.802
773.803
773.804
773.805
773.806
773.807
773.808
773.81
773.811
773.813
773.815
773.817
773.819
773.821
773.823
773.825
773.827
773.829
773.831
773.833
773.835
773.837
773.838
773.84
773.841
773.843
773.843
773.845
773.844
773.856
773.654
773.901
773.914
773.912
773.912
773.911
773.909
773.905
773.899
773.889
773.879
773.88
773.889
773.901
773.879
773.842
773.814
773.801
773.758
773.706
773.688
773.889
773.892
773.891
773.888
773.884
773.88
773.874
773.865
773.854
773.839
773.836
773.845
773.86
773.84
773.783
773.765
773.759
773.733
773.665
773.641
773.851
773.851
773.848
773.844
773.839
773.833
773.827
773.821
773.813
773.805
773.796
773.789
773.782
773.779
773.782
773.784
773.778
773.761
773.746
773.737
773.785
773.787
773.792
773.791
773.784
773.771
773.758
773.736
773.723
773.7
773.688
773.673
773.651
773.636
773.626
773.613
773.602
773.592
773.584
773.578
773.735
773.716
773.713
773.715
773.714
773.709
773.699
773.685
773.672
773.658
773.642
773.631
773.616
773.606
773.593
773.587
773.579
773.581
773.587
773.617
773.569
773.569
773.577
773.568
773.538
773.532
773.54
773.549
773.547
773.54
773.54
773.541
773.542
773.542
773.54
773.54
773.54
773.541
773.54
773.54
773.539
773.538
773.536
773.535
773.538
773.538
773.538
773.537
773.537
773.537
773.539
773.543
773.545
773.547
773.552
773.572
773.687
774.085
774.462
774.585
774.555
774.267
773.751
773.458
773.349
773.335
773.359
773.418
773.456
773.478
773.489
773.494
773.496
773.497
773.497
773.496
773.495
773.493
773.492
773.49
773.489
773.487
773.485
773.484
773.482
773.48
773.478
773.477
773.475
773.474
773.472
773.471
773.469
773.468
773.466
773.465
773.464
773.463
773.462
773.461
773.46
773.459
773.458
773.457
773.456
773.456
773.455
773.454
773.453
773.452
773.451
773.451
773.449
773.448
773.447
773.446
773.445
773.443
773.442
773.44
773.438
773.436
773.434
773.432
773.43
773.428
773.426
773.424
773.421
773.419
773.416
773.414
773.412
773.409
773.407
773.404
773.402
773.399
773.397
773.395
773.393
773.391
773.389
773.387
773.386
773.384
773.383
773.381
773.38
773.379
773.378
773.378
773.377
773.377
773.376
773.376
773.376
773.375
773.375
773.375
773.375
773.375
773.375
773.375
773.375
773.375
773.375
773.375
773.374
773.374
773.374
773.373
773.373
773.372
773.372
773.371
773.371
773.37
773.369
773.368
773.367
773.366
773.366
773.365
773.364
773.363
773.362
773.361
773.36
773.359
773.359
773.358
773.357
773.357
773.357
773.356
773.356
773.356
773.356
773.357
773.357
773.358
773.358
773.359
773.36
773.36
773.361
773.362
773.363
773.364
773.365
773.365
773.366
773.366
773.367
773.367
773.367
773.364
773.369
773.205
773.559
773.563
773.583
773.579
773.552
773.547
773.558
773.565
773.562
773.557
773.557
773.559
773.56
773.56
773.56
773.56
773.561
773.561
773.561
773.56
773.56
773.56
773.562
773.564
773.567
773.566
773.562
773.56
773.56
773.561
773.563
773.565
773.566
773.568
773.572
773.594
773.699
773.932
774.076
774.112
774.084
773.915
773.684
773.552
773.493
773.476
773.475
773.48
773.488
773.493
773.496
773.497
773.498
773.497
773.497
773.496
773.494
773.493
773.491
773.49
773.488
773.486
773.484
773.483
773.481
773.479
773.478
773.476
773.474
773.473
773.471
773.47
773.468
773.467
773.466
773.464
773.463
773.462
773.461
773.46
773.459
773.458
773.457
773.456
773.456
773.455
773.454
773.453
773.452
773.452
773.451
773.45
773.449
773.448
773.446
773.445
773.444
773.442
773.441
773.439
773.437
773.436
773.434
773.432
773.43
773.427
773.425
773.423
773.42
773.418
773.416
773.413
773.411
773.408
773.406
773.403
773.401
773.399
773.396
773.394
773.392
773.39
773.388
773.387
773.385
773.383
773.382
773.381
773.379
773.378
773.378
773.377
773.376
773.376
773.375
773.375
773.375
773.375
773.374
773.374
773.374
773.374
773.374
773.374
773.374
773.374
773.374
773.374
773.374
773.373
773.373
773.373
773.372
773.372
773.371
773.37
773.37
773.369
773.368
773.367
773.367
773.366
773.365
773.364
773.363
773.362
773.361
773.36
773.359
773.358
773.358
773.357
773.357
773.356
773.356
773.356
773.355
773.355
773.356
773.356
773.356
773.357
773.357
773.358
773.359
773.36
773.36
773.361
773.362
773.363
773.364
773.364
773.365
773.365
773.366
773.366
773.366
773.364
773.363
773.271
773.748
773.789
773.796
773.794
773.795
773.799
773.801
773.8
773.8
773.801
773.803
773.804
773.806
773.808
773.81
773.811
773.812
773.813
773.815
773.817
773.82
773.822
773.823
773.823
773.822
773.813
773.78
773.711
773.65
773.603
773.572
773.555
773.546
773.544
773.544
773.546
773.548
773.549
773.548
773.54
773.528
773.521
773.516
773.513
773.512
773.512
773.511
773.51
773.509
773.507
773.505
773.504
773.502
773.5
773.498
773.497
773.495
773.493
773.492
773.49
773.488
773.486
773.484
773.483
773.481
773.479
773.478
773.476
773.474
773.473
773.471
773.47
773.468
773.467
773.466
773.464
773.463
773.462
773.461
773.46
773.459
773.458
773.457
773.456
773.456
773.455
773.454
773.453
773.452
773.452
773.451
773.45
773.449
773.448
773.446
773.445
773.444
773.442
773.441
773.439
773.437
773.436
773.434
773.432
773.43
773.427
773.425
773.423
773.42
773.418
773.416
773.413
773.411
773.408
773.406
773.403
773.401
773.399
773.396
773.394
773.392
773.39
773.388
773.387
773.385
773.383
773.382
773.381
773.379
773.378
773.378
773.377
773.376
773.376
773.375
773.375
773.375
773.375
773.374
773.374
773.374
773.374
773.374
773.374
773.374
773.374
773.374
773.374
773.374
773.373
773.373
773.373
773.372
773.372
773.371
773.37
773.37
773.369
773.368
773.367
773.367
773.366
773.365
773.364
773.363
773.362
773.361
773.36
773.359
773.358
773.358
773.357
773.357
773.356
773.356
773.356
773.355
773.355
773.356
773.356
773.356
773.357
773.357
773.358
773.359
773.36
773.36
773.361
773.362
773.363
773.364
773.364
773.365
773.366
773.366
773.366
773.366
773.367
773.367
773.369
773.556
773.557
773.557
773.552
773.549
773.55
773.553
773.553
773.551
773.55
773.549
773.549
773.548
773.547
773.546
773.546
773.545
773.544
773.543
773.543
773.542
773.542
773.542
773.543
773.544
773.545
773.545
773.548
773.551
773.555
773.561
773.575
773.589
773.596
773.603
773.617
773.663
773.713
773.733
773.734
773.717
773.65
773.575
773.529
773.505
773.496
773.493
773.493
773.495
773.498
773.499
773.499
773.499
773.498
773.497
773.496
773.494
773.493
773.491
773.49
773.488
773.486
773.484
773.483
773.481
773.479
773.478
773.476
773.474
773.473
773.471
773.47
773.468
773.467
773.466
773.464
773.463
773.462
773.461
773.46
773.459
773.458
773.457
773.456
773.456
773.455
773.454
773.453
773.452
773.452
773.451
773.45
773.449
773.448
773.446
773.445
773.444
773.442
773.441
773.439
773.437
773.436
773.434
773.432
773.43
773.427
773.425
773.423
773.42
773.418
773.416
773.413
773.411
773.408
773.406
773.403
773.401
773.399
773.396
773.394
773.392
773.39
773.388
773.387
773.385
773.383
773.382
773.381
773.379
773.378
773.378
773.377
773.376
773.376
773.375
773.375
773.375
773.375
773.374
773.374
773.374
773.374
773.374
773.374
773.374
773.374
773.374
773.374
773.374
773.373
773.373
773.373
773.372
773.372
773.371
773.37
773.37
773.369
773.368
773.367
773.367
773.366
773.365
773.364
773.363
773.362
773.361
773.36
773.359
773.358
773.358
773.357
773.357
773.356
773.356
773.356
773.355
773.355
773.356
773.356
773.356
773.357
773.357
773.358
773.359
773.36
773.36
773.361
773.362
773.363
773.364
773.364
773.365
773.366
773.366
773.366
773.366
773.367
773.369
773.417
773.67
773.674
773.674
773.669
773.666
773.667
773.669
773.668
773.667
773.666
773.665
773.664
773.662
773.661
773.66
773.66
773.659
773.658
773.657
773.657
773.657
773.658
773.659
773.661
773.662
773.662
773.663
773.665
773.672
773.683
773.688
773.688
773.682
773.678
773.685
773.752
773.992
774.226
774.326
774.338
774.292
774.106
773.895
773.747
773.65
773.589
773.553
773.532
773.52
773.513
773.508
773.505
773.503
773.501
773.499
773.497
773.496
773.494
773.492
773.491
773.489
773.487
773.485
773.484
773.482
773.48
773.478
773.477
773.475
773.474
773.472
773.471
773.469
773.468
773.466
773.465
773.464
773.463
773.462
773.461
773.46
773.459
773.458
773.457
773.456
773.456
773.455
773.454
773.453
773.452
773.451
773.451
773.449
773.448
773.447
773.446
773.445
773.443
773.442
773.44
773.438
773.436
773.434
773.432
773.43
773.428
773.426
773.424
773.421
773.419
773.416
773.414
773.412
773.409
773.407
773.404
773.402
773.399
773.397
773.395
773.393
773.391
773.389
773.387
773.386
773.384
773.383
773.381
773.38
773.379
773.378
773.378
773.377
773.377
773.376
773.376
773.376
773.375
773.375
773.375
773.375
773.375
773.375
773.375
773.375
773.375
773.375
773.375
773.374
773.374
773.374
773.373
773.373
773.372
773.372
773.371
773.371
773.37
773.369
773.368
773.367
773.366
773.366
773.365
773.364
773.363
773.362
773.361
773.36
773.359
773.359
773.358
773.357
773.357
773.357
773.356
773.356
773.356
773.356
773.357
773.357
773.358
773.358
773.359
773.36
773.36
773.361
773.362
773.363
773.364
773.364
773.365
773.366
773.366
773.367
773.367
773.367
773.368
773.37
773.422
773.263
773.244
773.238
773.24
773.238
773.233
773.219
773.21
773.193
773.184
773.167
773.156
773.141
773.132
773.12
773.115
773.108
773.11
773.116
773.143
773.309
773.309
773.313
773.311
773.305
773.291
773.273
773.26
773.239
773.227
773.209
773.186
773.179
773.164
773.15
773.135
773.125
773.116
773.107
773.099
773.369
773.368
773.365
773.361
773.357
773.351
773.345
773.338
773.33
773.321
773.313
773.308
773.305
773.306
773.301
773.288
773.277
773.273
773.263
773.258
773.406
773.409
773.407
773.403
773.399
773.395
773.387
773.377
773.369
773.369
773.376
773.373
773.335
773.318
773.316
773.297
773.24
773.213
773.226
773.226
773.417
773.43
773.428
773.428
773.426
773.423
773.418
773.41
773.405
773.407
773.414
773.408
773.382
773.362
773.353
773.324
773.277
773.269
773.283
773.269
773.19
773.189
773.186
773.179
773.178
773.179
773.179
773.177
773.175
773.175
773.175
773.174
773.173
773.172
773.172
773.171
773.171
773.17
773.17
773.171
773.172
773.175
773.177
773.178
773.179
773.18
773.181
773.183
773.188
773.199
773.207
773.21
773.209
773.203
773.202
773.217
773.317
773.59
773.79
773.865
773.866
773.798
773.59
773.397
773.263
773.177
773.123
773.092
773.074
773.064
773.058
773.055
773.053
773.052
773.051
773.05
773.05
773.049
773.048
773.048
773.047
773.046
773.045
773.045
773.044
773.043
773.043
773.042
773.042
773.041
773.041
773.041
773.041
773.041
773.041
773.041
773.041
773.042
773.042
773.043
773.044
773.044
773.045
773.046
773.047
773.048
773.048
773.049
773.05
773.051
773.051
773.052
773.052
773.053
773.053
773.053
773.052
773.049
773.053
772.892
773.079
773.078
773.071
773.065
773.065
773.067
773.067
773.065
773.063
773.062
773.062
773.062
773.061
773.06
773.06
773.06
773.06
773.059
773.059
773.059
773.059
773.06
773.062
773.063
773.065
773.065
773.067
773.069
773.073
773.078
773.082
773.092
773.107
773.118
773.124
773.131
773.151
773.204
773.248
773.263
773.262
773.239
773.167
773.102
773.063
773.044
773.038
773.037
773.038
773.041
773.045
773.047
773.048
773.048
773.048
773.048
773.048
773.048
773.047
773.047
773.046
773.045
773.045
773.044
773.043
773.043
773.042
773.042
773.041
773.041
773.04
773.04
773.04
773.04
773.04
773.04
773.041
773.041
773.042
773.042
773.043
773.044
773.044
773.045
773.046
773.047
773.048
773.049
773.049
773.05
773.051
773.051
773.052
773.052
773.052
773.052
773.052
773.049
773.048
772.957
773.28
773.29
773.297
773.299
773.306
773.309
773.309
773.308
773.308
773.309
773.31
773.311
773.312
773.314
773.315
773.316
773.318
773.319
773.32
773.321
773.325
773.331
773.334
773.336
773.336
773.334
773.325
773.287
773.221
773.166
773.126
773.101
773.087
773.081
773.08
773.081
773.084
773.086
773.086
773.083
773.074
773.064
773.058
773.055
773.054
773.054
773.054
773.055
773.055
773.054
773.054
773.053
773.052
773.051
773.05
773.05
773.049
773.048
773.048
773.047
773.046
773.045
773.045
773.044
773.043
773.043
773.042
773.042
773.041
773.041
773.04
773.04
773.04
773.04
773.04
773.04
773.041
773.041
773.042
773.042
773.043
773.044
773.044
773.045
773.046
773.047
773.048
773.049
773.049
773.05
773.051
773.051
773.052
773.052
773.052
773.052
773.052
773.052
773.052
773.054
773.105
773.098
773.096
773.078
773.059
773.069
773.083
773.082
773.072
773.069
773.071
773.073
773.073
773.073
773.072
773.074
773.075
773.076
773.076
773.076
773.076
773.077
773.08
773.085
773.085
773.084
773.082
773.081
773.081
773.083
773.088
773.095
773.099
773.102
773.105
773.113
773.144
773.279
773.499
773.617
773.638
773.596
773.405
773.192
773.076
773.028
773.015
773.016
773.024
773.034
773.04
773.044
773.046
773.047
773.048
773.048
773.048
773.047
773.047
773.046
773.046
773.045
773.045
773.044
773.043
773.043
773.042
773.042
773.041
773.041
773.04
773.04
773.04
773.04
773.04
773.04
773.041
773.041
773.042
773.042
773.043
773.043
773.044
773.045
773.046
773.047
773.048
773.049
773.049
773.05
773.051
773.051
773.052
773.052
773.052
773.052
773.052
773.053
773.055
773.101
773.125
773.097
773.087
773.066
773.046
773.051
773.066
773.066
773.056
773.052
773.054
773.056
773.056
773.054
773.052
773.054
773.055
773.056
773.056
773.056
773.055
773.053
773.054
773.057
773.059
773.06
773.06
773.06
773.06
773.06
773.062
773.067
773.074
773.078
773.081
773.089
773.116
773.255
773.665
773.989
774.081
774.037
773.723
773.245
772.985
772.894
772.884
772.911
772.968
773.005
773.026
773.037
773.043
773.046
773.047
773.048
773.048
773.048
773.048
773.047
773.047
773.046
773.045
773.045
773.044
773.043
773.043
773.042
773.042
773.041
773.041
773.041
773.041
773.041
773.041
773.041
773.041
773.042
773.042
773.043
773.044
773.044
773.045
773.046
773.047
773.048
773.048
773.049
773.05
773.051
773.051
773.052
773.052
773.053
773.053
773.053
773.053
773.054
773.056
773.106
772.947
772.929
772.922
772.924
772.922
772.917
772.903
772.894
772.876
772.868
772.85
772.839
772.824
772.815
772.803
772.798
772.79
772.792
772.798
772.825
772.993
772.993
772.997
772.996
772.989
772.976
772.957
772.944
772.923
772.91
772.893
772.869
772.861
772.847
772.833
772.818
772.808
772.798
772.789
772.781
773.054
773.053
773.05
773.046
773.041
773.035
773.029
773.022
773.014
773.005
772.997
772.992
772.989
772.99
772.986
772.972
772.961
772.957
772.947
772.942
773.09
773.093
773.092
773.088
773.084
773.08
773.072
773.062
773.053
773.051
773.059
773.059
773.022
773
772.998
772.981
772.927
772.894
772.905
772.905
773.101
773.114
773.113
773.113
773.111
773.107
773.103
773.095
773.089
773.09
773.097
773.095
773.067
773.046
773.036
773.01
772.96
772.95
772.963
772.948
772.872
772.872
772.87
772.862
772.861
772.862
772.862
772.86
772.859
772.859
772.858
772.858
772.857
772.857
772.856
772.856
772.855
772.855
772.855
772.855
772.856
772.858
772.86
772.862
772.863
772.865
772.867
772.873
772.886
772.895
772.898
772.897
772.892
772.893
772.913
773.037
773.314
773.49
773.546
773.54
773.448
773.227
773.047
772.924
772.846
772.798
772.77
772.754
772.746
772.741
772.738
772.737
772.736
772.735
772.734
772.733
772.733
772.732
772.731
772.731
772.73
772.73
772.729
772.729
772.728
772.728
772.727
772.727
772.727
772.727
772.727
772.727
772.727
772.727
772.728
772.728
772.728
772.729
772.729
772.73
772.73
772.731
772.731
772.732
772.732
772.733
772.733
772.734
772.734
772.735
772.735
772.735
772.735
772.735
772.735
772.735
772.734
772.734
772.734
772.733
772.733
772.732
772.732
772.731
772.731
772.73
772.729
772.729
772.728
772.727
772.727
772.726
772.725
772.725
772.724
772.724
772.723
772.723
772.723
772.723
772.722
772.722
772.722
772.723
772.723
772.723
772.723
772.724
772.724
772.725
772.725
772.726
772.726
772.727
772.727
772.728
772.728
772.728
772.729
772.729
772.729
772.73
772.73
772.73
772.73
772.729
772.729
772.729
772.729
772.728
772.728
772.727
772.727
772.726
772.726
772.725
772.725
772.724
772.723
772.723
772.722
772.722
772.721
772.721
772.72
772.72
772.719
772.719
772.719
772.719
772.719
772.719
772.719
772.719
772.72
772.72
772.721
772.721
772.722
772.723
772.723
772.724
772.724
772.725
772.726
772.726
772.726
772.727
772.727
772.727
772.727
772.727
772.727
772.727
772.727
772.726
772.726
772.727
772.729
772.781
772.76
772.759
772.753
772.748
772.748
772.749
772.749
772.747
772.745
772.745
772.745
772.745
772.744
772.744
772.744
772.744
772.743
772.743
772.743
772.743
772.744
772.744
772.746
772.748
772.749
772.751
772.753
772.757
772.762
772.767
772.779
772.794
772.805
772.812
772.82
772.846
772.9
772.934
772.943
772.939
772.905
772.828
772.771
772.74
772.726
772.721
772.721
772.723
772.727
772.729
772.731
772.732
772.732
772.733
772.732
772.732
772.732
772.731
772.731
772.73
772.729
772.729
772.728
772.728
772.727
772.727
772.727
772.726
772.726
772.726
772.726
772.726
772.726
772.726
772.727
772.727
772.727
772.728
772.728
772.729
772.73
772.73
772.731
772.731
772.732
772.732
772.733
772.733
772.733
772.734
772.734
772.734
772.734
772.734
772.734
772.734
772.734
772.733
772.733
772.733
772.732
772.732
772.731
772.73
772.73
772.729
772.728
772.728
772.727
772.726
772.726
772.725
772.724
772.724
772.723
772.723
772.722
772.722
772.722
772.722
772.722
772.722
772.722
772.722
772.722
772.722
772.722
772.723
772.723
772.724
772.724
772.725
772.725
772.726
772.726
772.727
772.727
772.728
772.728
772.728
772.729
772.729
772.729
772.729
772.729
772.729
772.728
772.728
772.728
772.727
772.727
772.727
772.726
772.726
772.725
772.724
772.724
772.723
772.723
772.722
772.721
772.721
772.72
772.72
772.719
772.719
772.719
772.718
772.718
772.718
772.718
772.718
772.718
772.719
772.719
772.719
772.72
772.721
772.721
772.722
772.722
772.723
772.724
772.724
772.725
772.725
772.726
772.726
772.726
772.726
772.726
772.726
772.726
772.726
772.726
772.726
772.725
772.726
772.728
772.776
772.962
772.973
772.98
772.983
772.989
772.991
772.991
772.989
772.989
772.989
772.99
772.99
772.99
772.992
772.995
772.998
772.999
773.001
773.005
773.009
773.015
773.019
773.021
773.022
773.021
773.013
772.978
772.912
772.857
772.815
772.789
772.774
772.768
772.766
772.767
772.769
772.771
772.771
772.766
772.756
772.747
772.742
772.739
772.739
772.739
772.739
772.739
772.739
772.738
772.737
772.737
772.736
772.735
772.734
772.733
772.733
772.732
772.731
772.731
772.73
772.729
772.729
772.728
772.728
772.727
772.727
772.727
772.726
772.726
772.726
772.726
772.726
772.726
772.726
772.727
772.727
772.727
772.728
772.728
772.729
772.73
772.73
772.731
772.731
772.732
772.732
772.733
772.733
772.733
772.734
772.734
772.734
772.734
772.734
772.734
772.734
772.734
772.733
772.733
772.733
772.732
772.732
772.731
772.73
772.73
772.729
772.728
772.728
772.727
772.726
772.726
772.725
772.724
772.724
772.723
772.723
772.722
772.722
772.722
772.722
772.722
772.722
772.722
772.722
772.722
772.722
772.722
772.723
772.723
772.724
772.724
772.725
772.725
772.726
772.726
772.727
772.727
772.728
772.728
772.728
772.729
772.729
772.729
772.729
772.729
772.729
772.728
772.728
772.728
772.727
772.727
772.727
772.726
772.726
772.725
772.724
772.724
772.723
772.723
772.722
772.721
772.721
772.72
772.72
772.719
772.719
772.719
772.718
772.718
772.718
772.718
772.718
772.718
772.719
772.719
772.719
772.72
772.721
772.721
772.722
772.722
772.723
772.724
772.724
772.725
772.725
772.726
772.726
772.726
772.726
772.726
772.726
772.726
772.726
772.726
772.726
772.725
772.725
772.725
772.727
772.786
772.78
772.778
772.759
772.742
772.753
772.765
772.762
772.753
772.751
772.753
772.754
772.754
772.753
772.753
772.754
772.756
772.757
772.758
772.758
772.759
772.763
772.768
772.772
772.774
772.772
772.769
772.769
772.77
772.774
772.779
772.783
772.785
772.789
772.799
772.843
773.01
773.212
773.301
773.307
773.239
773.019
772.835
772.742
772.707
772.7
772.703
772.712
772.72
772.726
772.729
772.73
772.731
772.732
772.732
772.732
772.731
772.731
772.73
772.73
772.729
772.729
772.728
772.728
772.727
772.727
772.727
772.726
772.726
772.726
772.726
772.726
772.726
772.726
772.727
772.727
772.727
772.728
772.728
772.729
772.73
772.73
772.731
772.731
772.732
772.732
772.733
772.733
772.733
772.734
772.734
772.734
772.734
772.734
772.734
772.734
772.734
772.733
772.733
772.733
772.732
772.732
772.731
772.73
772.73
772.729
772.728
772.728
772.727
772.726
772.726
772.725
772.724
772.724
772.723
772.723
772.722
772.722
772.722
772.722
772.722
772.722
772.722
772.722
772.722
772.722
772.722
772.723
772.723
772.724
772.724
772.725
772.725
772.726
772.726
772.727
772.727
772.728
772.728
772.728
772.729
772.729
772.729
772.729
772.729
772.729
772.728
772.728
772.728
772.727
772.727
772.727
772.726
772.726
772.725
772.724
772.724
772.723
772.723
772.722
772.721
772.721
772.72
772.72
772.719
772.719
772.719
772.718
772.718
772.718
772.718
772.718
772.718
772.719
772.719
772.719
772.72
772.721
772.721
772.722
772.722
772.723
772.724
772.724
772.725
772.725
772.726
772.726
772.726
772.726
772.726
772.726
772.726
772.726
772.726
772.726
772.725
772.722
772.722
772.628
772.805
772.78
772.769
772.747
772.73
772.735
772.749
772.747
772.738
772.735
772.737
772.738
772.738
772.736
772.736
772.737
772.739
772.74
772.74
772.74
772.74
772.739
772.739
772.743
772.746
772.746
772.747
772.747
772.748
772.75
772.756
772.76
772.764
772.767
772.776
772.816
773.013
773.448
773.703
773.75
773.661
773.255
772.834
772.632
772.574
772.576
772.615
772.667
772.698
772.715
772.723
772.728
772.731
772.732
772.732
772.732
772.732
772.732
772.731
772.731
772.73
772.73
772.729
772.729
772.728
772.728
772.727
772.727
772.727
772.727
772.727
772.727
772.727
772.727
772.728
772.728
772.728
772.729
772.729
772.73
772.73
772.731
772.731
772.732
772.732
772.733