/*--------------------------------*- C++ -*----------------------------------*\
| =========                 |                                                 |
| \\      /  F ield         | OpenFOAM: The Open Source CFD Toolbox           |
|  \\    /   O peration     | Version:  3.0.x                                 |
|   \\  /    A nd           | Web:      www.OpenFOAM.org                      |
|    \\/     M anipulation  |                                                 |
\*---------------------------------------------------------------------------*/
FoamFile
{
    version     2.0;
    format      ascii;
    class       surfaceScalarField;
    location    "0.43995";
    object      phi;
}
// * * * * * * * * * * * * * * * * * * * * * * * * * * * * * * * * * * * * * //

dimensions      [1 0 -1 0 0 0 0];

internalField   nonuniform List<scalar> 
26210
(
5.30355
0.00050395
5.30321
0.000346578
5.30287
0.000340002
5.30253
0.000341618
5.30219
0.000341654
5.30186
0.000341579
5.30152
0.000341566
5.30118
0.000341559
5.30084
0.000341549
5.3005
0.000341538
5.30016
0.000341526
5.29983
0.000341511
5.29949
0.000341504
5.29915
0.000341495
5.29881
0.00034148
5.29847
0.000341468
5.29813
0.000341456
5.29779
0.000341444
5.29745
0.000341437
5.29711
0.00034142
5.29676
0.000341404
5.29642
0.000341397
5.29608
0.000341385
5.29574
0.000341373
5.2954
0.00034136
5.29505
0.000341349
5.29471
0.000341336
5.29437
0.000341324
5.29402
0.00034131
5.29368
0.00034129
5.29333
0.000341286
5.29299
0.000341269
5.29264
0.000341253
5.2923
0.000341234
5.29195
0.000341223
5.2916
0.000341214
5.29126
0.000341197
5.29091
0.000341137
5.29056
0.000341103
5.29021
0.000341254
5.28986
0.000341146
5.28951
0.000341138
5.28917
0.000341132
5.28882
0.000341096
5.28847
0.000341093
5.28812
0.000341063
5.28778
0.000341366
5.28744
0.000341015
5.2871
0.000341136
5.28676
0.000341142
5.28641
0.000341147
5.28606
0.000341152
5.28572
0.000341156
5.28537
0.000341099
5.28502
0.00034113
5.28467
0.000341269
5.28432
0.000341171
5.28397
0.000341173
5.28363
0.000341126
5.28328
0.000341157
5.28293
0.000341411
5.28259
0.000341042
5.28224
0.000341197
5.2819
0.000341205
5.28156
0.00034121
5.28121
0.000341213
5.28087
0.000341212
5.28053
0.000341205
5.28019
0.00034119
5.27985
0.000341161
5.27952
0.000341113
5.27918
0.000341037
5.27883
0.000340925
5.27849
0.000340764
5.27815
0.000340537
5.2778
0.000340222
5.27746
0.000339778
5.27711
0.000339132
5.27677
0.000338671
5.27642
0.000337584
5.27608
0.000336393
5.27574
0.000334821
5.2754
0.000332966
5.27507
0.000331009
5.27474
0.000328026
5.27442
0.000324804
5.27409
0.000320958
5.27377
0.000316455
5.27346
0.000311253
5.27314
0.000305309
5.27284
0.000298588
5.27254
0.00029107
5.27224
0.000282748
5.27196
0.000273632
5.27168
0.000263748
5.27141
0.000253142
5.27116
0.000241866
5.27091
0.00023002
5.27067
0.000217688
5.27045
0.000204952
5.27024
0.000191964
5.27003
0.000178757
5.26984
0.000165596
5.26966
0.000152502
5.26949
0.000139621
5.26934
0.000127064
5.26919
0.000114935
5.26904
0.000103323
5.26891
9.23046e-05
5.26879
8.19411e-05
5.26867
7.22783e-05
5.26855
6.33465e-05
5.26844
5.51608e-05
5.26833
4.77221e-05
5.26822
4.10189e-05
5.26812
3.50287e-05
5.26801
2.97199e-05
5.2679
2.50534e-05
5.26779
2.09849e-05
5.26767
1.74665e-05
5.26755
1.44484e-05
5.26742
1.18802e-05
5.26729
9.7124e-06
5.26715
7.89737e-06
5.26699
6.39003e-06
5.26683
5.14853e-06
5.26665
4.13457e-06
5.26647
3.31362e-06
5.26626
2.65494e-06
5.26605
2.13156e-06
5.26582
1.72008e-06
5.26557
1.40039e-06
5.2653
1.15542e-06
5.26501
9.70827e-07
5.2647
8.34723e-07
5.26437
7.37371e-07
5.26402
6.70825e-07
5.26364
6.28652e-07
5.26324
6.05702e-07
5.2628
5.97885e-07
5.26234
6.01996e-07
5.26185
6.15542e-07
5.26133
6.36599e-07
5.26077
6.63716e-07
5.26018
6.95783e-07
5.25956
7.31965e-07
5.25889
7.7163e-07
5.25819
8.14292e-07
5.25744
8.596e-07
5.25665
9.07292e-07
5.25582
9.5718e-07
5.25494
1.00913e-06
5.25401
1.06304e-06
5.25303
1.11883e-06
5.25201
1.17648e-06
5.25093
1.23592e-06
5.24979
1.29714e-06
5.2486
1.36012e-06
5.24735
1.42483e-06
5.24604
1.49124e-06
5.24467
1.55935e-06
5.24324
1.62913e-06
5.24174
1.70057e-06
5.24018
1.77362e-06
5.23855
1.84824e-06
5.23685
1.92439e-06
5.23508
2.002e-06
5.23324
2.08104e-06
5.23132
2.1614e-06
5.22933
2.24306e-06
5.22726
2.32596e-06
5.22512
2.41003e-06
5.22289
2.49524e-06
5.22058
2.58149e-06
5.2182
2.66875e-06
5.21573
2.75698e-06
5.21317
2.84616e-06
5.21053
2.93628e-06
5.2078
3.02731e-06
5.20499
3.11922e-06
5.20208
3.21195e-06
5.19909
3.30543e-06
5.196
3.39964e-06
5.19282
3.4946e-06
5.18955
3.59029e-06
5.18618
3.68681e-06
5.18272
3.78461e-06
5.17916
3.88631e-06
5.1755
4.00401e-06
5.17175
4.20058e-06
5.16789
4.76765e-06
5.16393
7.13183e-06
5.15986
1.81415e-05
5.15564
7.06865e-05
5.15106
0.000322785
5.14517
0.00152779
5.13345
0.00724891
5.09465
0.0342333
4.91195
0.17803
0.669867
4.2373
7.50123
0.000460227
7.50125
0.000329233
7.50128
0.000315406
7.50131
0.000318809
7.50134
0.000318989
7.50136
0.000318851
7.50139
0.000318868
7.50142
0.000318899
7.50144
0.000318921
7.50147
0.000318942
7.50149
0.000318962
7.50152
0.000318982
7.50154
0.000319
7.50157
0.000319025
7.50159
0.000319043
7.50161
0.000319062
7.50164
0.000319082
7.50166
0.000319102
7.50168
0.000319131
7.5017
0.000319131
7.50173
0.00031916
7.50175
0.000319181
7.50177
0.0003192
7.50179
0.00031922
7.5018
0.000319241
7.50182
0.000319256
7.50184
0.000319276
7.50186
0.000319297
7.50188
0.000319314
7.50189
0.00031932
7.50191
0.000319357
7.50192
0.000319369
7.50194
0.000319383
7.50195
0.00031939
7.50197
0.000319418
7.50198
0.000319441
7.50199
0.000319452
7.50201
0.000319432
7.50202
0.00031943
7.50202
0.000319593
7.50203
0.000319529
7.50204
0.000319551
7.50205
0.000319576
7.50206
0.000319575
7.50207
0.000319604
7.50209
0.000319607
7.50211
0.000319898
7.50213
0.000319636
7.50215
0.000319765
7.50216
0.000319801
7.50218
0.000319836
7.50219
0.000319872
7.5022
0.000319907
7.50221
0.000319888
7.50222
0.000319942
7.50223
0.000320099
7.50224
0.000320045
7.50225
0.000320075
7.50226
0.000320066
7.50227
0.000320125
7.50228
0.000320383
7.5023
0.000320082
7.50231
0.000320249
7.50233
0.000320291
7.50234
0.000320325
7.50236
0.000320358
7.50238
0.000320387
7.5024
0.00032041
7.50242
0.000320423
7.50244
0.000320423
7.50247
0.000320403
7.50249
0.000320355
7.50251
0.00032027
7.50252
0.000320135
7.50254
0.000319934
7.50255
0.000319647
7.50257
0.000319229
7.50258
0.000318603
7.50259
0.000318159
7.5026
0.000317106
7.50261
0.000315938
7.50262
0.000314403
7.50263
0.000312583
7.50264
0.00031063
7.50266
0.000307723
7.50268
0.000304545
7.5027
0.000300776
7.50271
0.00029636
7.50272
0.000291271
7.50273
0.000285465
7.50274
0.000278915
7.50274
0.000271604
7.50275
0.000263531
7.50275
0.000254712
7.50275
0.000245172
7.50274
0.000234965
7.50274
0.000224145
7.50273
0.000212805
7.50272
0.000201043
7.50271
0.000188926
7.50269
0.000176609
7.50267
0.000164123
7.50265
0.000151718
7.50262
0.000139418
7.50259
0.000127355
7.50256
0.000115635
7.50252
0.000104349
7.50248
9.35805e-05
7.50243
8.33954e-05
7.50237
7.38471e-05
7.50231
6.49736e-05
7.50224
5.67983e-05
7.50217
4.93303e-05
7.50209
4.25661e-05
7.502
3.64907e-05
7.5019
3.10792e-05
7.50179
2.62988e-05
7.50168
2.21105e-05
7.50155
1.84708e-05
7.50141
1.53334e-05
7.50126
1.26508e-05
7.5011
1.03755e-05
7.50092
8.46131e-06
7.50073
6.86381e-06
7.50052
5.54153e-06
7.5003
4.4561e-06
7.50006
3.57265e-06
7.4998
2.85989e-06
7.49951
2.29013e-06
7.49921
1.83919e-06
7.49888
1.48616e-06
7.49853
1.2132e-06
7.49815
1.00521e-06
7.49775
8.49555e-07
7.49731
7.3581e-07
7.49685
6.55482e-07
7.49635
6.01654e-07
7.49581
5.68758e-07
7.49524
5.52353e-07
7.49463
5.48924e-07
7.49398
5.55725e-07
7.49328
5.70628e-07
7.49255
5.92003e-07
7.49176
6.18607e-07
7.49092
6.49514e-07
7.49004
6.84013e-07
7.4891
7.21575e-07
7.4881
7.61804e-07
7.48705
8.04404e-07
7.48593
8.49144e-07
7.48475
8.95894e-07
7.48351
9.4453e-07
7.4822
9.94976e-07
7.48082
1.04717e-06
7.47937
1.10108e-06
7.47784
1.15666e-06
7.47624
1.21391e-06
7.47455
1.27279e-06
7.47279
1.33328e-06
7.47094
1.39537e-06
7.469
1.45904e-06
7.46698
1.52428e-06
7.46486
1.59106e-06
7.46266
1.65935e-06
7.46035
1.72911e-06
7.45795
1.80029e-06
7.45545
1.87285e-06
7.45285
1.94674e-06
7.45014
2.02187e-06
7.44732
2.09821e-06
7.4444
2.17571e-06
7.44137
2.25431e-06
7.43823
2.33396e-06
7.43497
2.4146e-06
7.43159
2.49619e-06
7.4281
2.57869e-06
7.42449
2.66206e-06
7.42076
2.74634e-06
7.41691
2.83146e-06
7.41293
2.91742e-06
7.40882
3.00414e-06
7.40459
3.09157e-06
7.40023
3.17968e-06
7.39574
3.26851e-06
7.39112
3.35809e-06
7.38636
3.44861e-06
7.38147
3.54156e-06
7.37644
3.6426e-06
7.37127
3.78281e-06
7.36597
4.11038e-06
7.36052
5.33792e-06
7.35493
1.08992e-05
7.34917
3.73676e-05
7.34321
0.000164204
7.33673
0.00077337
7.32841
0.00368604
7.31181
0.017529
7.25674
0.0828494
7.00488
0.42328
1.54794
6.12004
10.6083
0.000402095
10.6084
0.000301943
10.6084
0.000281315
10.6085
0.000286218
10.6085
0.00028662
10.6085
0.000286386
10.6086
0.0002864
10.6086
0.00028644
10.6086
0.000286463
10.6087
0.000286483
10.6087
0.000286503
10.6088
0.000286526
10.6088
0.000286535
10.6088
0.000286561
10.6089
0.000286579
10.6089
0.000286596
10.6089
0.000286615
10.609
0.000286633
10.609
0.000286666
10.609
0.000286648
10.6091
0.000286691
10.6091
0.000286705
10.6091
0.000286722
10.6091
0.00028674
10.6092
0.000286763
10.6092
0.000286769
10.6092
0.00028679
10.6092
0.000286811
10.6093
0.000286826
10.6093
0.000286823
10.6093
0.00028687
10.6093
0.000286877
10.6094
0.000286889
10.6094
0.000286886
10.6094
0.000286922
10.6094
0.000286944
10.6095
0.000286949
10.6095
0.000286936
10.6095
0.000286934
10.6095
0.000287069
10.6095
0.00028702
10.6095
0.000287039
10.6095
0.000287061
10.6096
0.000287061
10.6096
0.000287089
10.6096
0.000287093
10.6096
0.000287327
10.6097
0.000287134
10.6097
0.000287231
10.6097
0.000287264
10.6097
0.000287296
10.6098
0.000287328
10.6098
0.000287362
10.6098
0.000287347
10.6098
0.000287391
10.6098
0.000287527
10.6098
0.000287485
10.6099
0.00028751
10.6099
0.000287506
10.6099
0.000287559
10.6099
0.000287779
10.6099
0.000287525
10.61
0.000287666
10.61
0.000287706
10.61
0.000287736
10.61
0.000287766
10.6101
0.000287792
10.6101
0.000287813
10.6101
0.000287826
10.6102
0.000287826
10.6102
0.000287808
10.6102
0.000287766
10.6103
0.000287691
10.6103
0.00028757
10.6103
0.000287391
10.6103
0.000287136
10.6104
0.000286763
10.6104
0.000286194
10.6104
0.000285808
10.6104
0.000284867
10.6104
0.000283819
10.6105
0.00028245
10.6105
0.000280824
10.6105
0.000279063
10.6105
0.000276476
10.6106
0.000273621
10.6106
0.000270255
10.6106
0.000266298
10.6106
0.000261741
10.6106
0.00025654
10.6106
0.000250672
10.6107
0.000244121
10.6107
0.000236886
10.6107
0.00022898
10.6107
0.000220427
10.6106
0.000211274
10.6106
0.000201574
10.6106
0.000191386
10.6106
0.000180846
10.6106
0.000169967
10.6106
0.000158909
10.6105
0.0001477
10.6105
0.000136558
10.6104
0.000125508
10.6104
0.00011467
10.6103
0.000104136
10.6103
9.39916e-05
10.6102
8.43088e-05
10.6101
7.51485e-05
10.6101
6.65587e-05
10.61
5.8574e-05
10.6099
5.12155e-05
10.6098
4.44919e-05
10.6096
3.84003e-05
10.6095
3.29275e-05
10.6094
2.80514e-05
10.6092
2.37427e-05
10.6091
1.99667e-05
10.6089
1.66842e-05
10.6087
1.38539e-05
10.6085
1.14332e-05
10.6082
9.37943e-06
10.608
7.65097e-06
10.6077
6.20805e-06
10.6074
5.01332e-06
10.6071
4.03226e-06
10.6068
3.23348e-06
10.6064
2.5888e-06
10.606
2.07326e-06
10.6056
1.66505e-06
10.6051
1.34534e-06
10.6046
1.09801e-06
10.6041
9.09436e-07
10.6035
7.68201e-07
10.6029
6.64901e-07
10.6022
5.91841e-07
10.6015
5.42775e-07
10.6008
5.12667e-07
10.5999
4.97498e-07
10.5991
4.9408e-07
10.5982
4.99932e-07
10.5972
5.13124e-07
10.5961
5.32178e-07
10.595
5.55965e-07
10.5938
5.83644e-07
10.5926
6.14576e-07
10.5913
6.48271e-07
10.5898
6.84376e-07
10.5884
7.22613e-07
10.5868
7.6279e-07
10.5851
8.04774e-07
10.5834
8.4845e-07
10.5815
8.93757e-07
10.5796
9.4064e-07
10.5775
9.89057e-07
10.5753
1.03899e-06
10.5731
1.0904e-06
10.5707
1.14329e-06
10.5682
1.19763e-06
10.5656
1.2534e-06
10.5628
1.31059e-06
10.56
1.36919e-06
10.557
1.42918e-06
10.5539
1.49052e-06
10.5506
1.55318e-06
10.5472
1.61712e-06
10.5437
1.6823e-06
10.54
1.74867e-06
10.5362
1.81616e-06
10.5322
1.88472e-06
10.528
1.95434e-06
10.5238
2.02494e-06
10.5193
2.09649e-06
10.5147
2.16893e-06
10.5099
2.2422e-06
10.505
2.31631e-06
10.4999
2.3912e-06
10.4946
2.46691e-06
10.4892
2.54336e-06
10.4835
2.62059e-06
10.4777
2.69849e-06
10.4717
2.77703e-06
10.4656
2.85616e-06
10.4592
2.93596e-06
10.4527
3.01655e-06
10.446
3.09819e-06
10.439
3.18387e-06
10.4319
3.28327e-06
10.4246
3.45364e-06
10.4171
3.9589e-06
10.4094
6.08897e-06
10.4015
1.60165e-05
10.3934
6.3612e-05
10.3849
0.000291967
10.3758
0.00138921
10.3641
0.00663718
10.3411
0.0315982
10.2656
0.149234
9.92646
0.753089
2.70131
8.76352
46.8274
0.000185465
46.8276
0.00015798
46.8278
0.00013947
46.8279
0.000142674
46.8281
0.000143654
46.8283
0.000143345
46.8284
0.000143273
46.8286
0.000143283
46.8288
0.000143282
46.8289
0.00014328
46.8291
0.000143283
46.8293
0.000143296
46.8294
0.000143277
46.8296
0.000143301
46.8297
0.000143305
46.8299
0.00014331
46.83
0.000143318
46.8302
0.000143327
46.8303
0.000143351
46.8304
0.000143309
46.8306
0.000143362
46.8307
0.000143358
46.8308
0.000143366
46.831
0.000143374
46.8311
0.000143384
46.8312
0.000143388
46.8313
0.000143402
46.8315
0.000143404
46.8316
0.000143415
46.8317
0.000143418
46.8318
0.000143432
46.8319
0.00014344
46.832
0.000143451
46.8321
0.000143432
46.8322
0.000143463
46.8323
0.000143475
46.8324
0.000143474
46.8324
0.000143476
46.8325
0.000143472
46.8326
0.000143524
46.8326
0.000143511
46.8327
0.000143519
46.8328
0.00014353
46.8328
0.000143531
46.8329
0.000143547
46.833
0.00014355
46.8332
0.000143636
46.8333
0.000143586
46.8334
0.000143616
46.8335
0.000143632
46.8336
0.000143648
46.8337
0.000143664
46.8338
0.000143679
46.8339
0.000143682
46.834
0.000143693
46.834
0.000143755
46.8341
0.000143744
46.8341
0.000143754
46.8342
0.000143756
46.8343
0.000143782
46.8344
0.000143877
46.8345
0.00014377
46.8346
0.000143829
46.8347
0.000143853
46.8348
0.000143868
46.8349
0.000143883
46.8351
0.000143896
46.8352
0.000143907
46.8354
0.000143913
46.8355
0.000143914
46.8357
0.000143905
46.8359
0.000143885
46.836
0.000143849
46.8361
0.00014379
46.8362
0.000143702
46.8363
0.00014358
46.8364
0.000143396
46.8365
0.000143104
46.8366
0.000142927
46.8366
0.000142464
46.8367
0.000141944
46.8368
0.000141273
46.8369
0.000140472
46.837
0.000139586
46.8371
0.000138325
46.8372
0.000136899
46.8374
0.000135241
46.8374
0.000133279
46.8375
0.00013102
46.8376
0.000128441
46.8376
0.000125528
46.8377
0.000122275
46.8377
0.00011868
46.8377
0.000114749
46.8377
0.000110494
46.8376
0.000105936
46.8376
0.000101109
46.8375
9.6013e-05
46.8375
9.07738e-05
46.8374
8.53383e-05
46.8373
7.98148e-05
46.8371
7.42146e-05
46.837
6.86419e-05
46.8368
6.31138e-05
46.8366
5.76877e-05
46.8363
5.24106e-05
46.8361
4.73254e-05
46.8358
4.24687e-05
46.8354
3.78713e-05
46.8351
3.35577e-05
46.8347
2.95454e-05
46.8343
2.58456e-05
46.8338
2.2463e-05
46.8333
1.93966e-05
46.8327
1.66399e-05
46.8321
1.41824e-05
46.8314
1.20096e-05
46.8306
1.01043e-05
46.8298
8.44707e-06
46.829
7.01732e-06
46.828
5.79375e-06
46.827
4.75505e-06
46.8259
3.88039e-06
46.8247
3.1498e-06
46.8234
2.54453e-06
46.822
2.04722e-06
46.8205
1.64206e-06
46.8189
1.31487e-06
46.8171
1.05305e-06
46.8152
8.45608e-07
46.8132
6.83009e-07
46.811
5.57119e-07
46.8086
4.61036e-07
46.8061
3.88984e-07
46.8034
3.36197e-07
46.8004
2.98774e-07
46.7973
2.7354e-07
46.794
2.57948e-07
46.7904
2.4995e-07
46.7866
2.4793e-07
46.7825
2.50621e-07
46.7782
2.57041e-07
46.7736
2.66443e-07
46.7687
2.78243e-07
46.7635
2.92006e-07
46.7579
3.07422e-07
46.7521
3.24233e-07
46.7459
3.42252e-07
46.7393
3.61346e-07
46.7323
3.81426e-07
46.725
4.02413e-07
46.7172
4.24242e-07
46.709
4.46888e-07
46.7004
4.70324e-07
46.6913
4.94534e-07
46.6818
5.19495e-07
46.6718
5.45194e-07
46.6613
5.71637e-07
46.6503
5.98812e-07
46.6387
6.26703e-07
46.6266
6.55288e-07
46.614
6.84589e-07
46.6008
7.14584e-07
46.587
7.4526e-07
46.5726
7.76587e-07
46.5576
8.08552e-07
46.542
8.41151e-07
46.5258
8.74339e-07
46.5089
9.08087e-07
46.4913
9.42346e-07
46.4731
9.77165e-07
46.4541
1.01245e-06
46.4345
1.04824e-06
46.4142
1.08448e-06
46.3931
1.12109e-06
46.3713
1.15815e-06
46.3488
1.19556e-06
46.3255
1.23343e-06
46.3014
1.27167e-06
46.2766
1.31026e-06
46.251
1.34926e-06
46.2245
1.38859e-06
46.1973
1.42808e-06
46.1693
1.46805e-06
46.1404
1.50873e-06
46.1107
1.55143e-06
46.0802
1.60341e-06
46.0488
1.69407e-06
46.0165
1.97335e-06
45.9834
3.17882e-06
45.9494
8.82029e-06
45.9145
3.58134e-05
45.8786
0.000165998
45.8415
0.000791317
45.8014
0.00379837
45.7514
0.0181851
45.6571
0.0864342
45.363
0.403005
44.2334
1.8415
6.44908
40.4434
46.8274
-1.36424e-12
46.8276
2.27374e-13
46.8277
1.13687e-12
46.8279
1.36424e-12
46.8281
6.82121e-13
46.8283
1.59162e-12
46.8284
9.09495e-13
46.8286
1.81899e-12
46.8288
2.04636e-12
46.8289
2.04636e-12
46.8291
2.27374e-12
46.8292
-2.27374e-13
46.8294
2.27374e-13
46.8296
6.82121e-13
46.8297
-9.09495e-13
46.8299
-6.82121e-13
46.83
-9.09495e-13
46.8301
6.82121e-13
46.8303
4.54747e-13
46.8304
2.27374e-13
46.8306
-2.27374e-13
46.8307
1.36424e-12
46.8308
1.81899e-12
46.831
-2.27374e-13
46.8311
-1.59162e-12
46.8312
-2.27374e-13
46.8313
4.54747e-13
46.8314
-4.54747e-13
46.8315
1.59162e-12
46.8317
6.82121e-13
46.8318
2.27374e-12
46.8319
1.36424e-12
46.832
0
46.8321
-9.09495e-13
46.8322
4.54747e-13
46.8322
9.09495e-13
46.8323
4.54747e-13
46.8324
2.27374e-12
46.8325
-4.54747e-13
46.8326
-1.59162e-12
46.8326
-2.27374e-13
46.8327
9.09495e-13
46.8327
1.36424e-12
46.8328
1.81899e-12
46.8329
-4.54747e-13
46.833
-9.09495e-13
46.8331
9.09495e-13
46.8333
1.13687e-12
46.8334
-2.27374e-13
46.8335
-6.82121e-13
46.8336
0
46.8337
1.36424e-12
46.8338
1.59162e-12
46.8339
1.13687e-12
46.8339
6.82121e-13
46.834
1.36424e-12
46.8341
1.13687e-12
46.8341
-6.82121e-13
46.8342
-6.82121e-13
46.8343
6.82121e-13
46.8344
2.27374e-12
46.8345
1.13687e-12
46.8346
9.09495e-13
46.8347
0
46.8348
2.27374e-13
46.8349
-4.54747e-13
46.8351
-1.59162e-12
46.8352
0
46.8354
-1.36424e-12
46.8355
-4.54747e-13
46.8357
2.27374e-13
46.8358
0
46.836
1.36424e-12
46.8361
1.81899e-12
46.8362
-2.27374e-13
46.8363
-6.82121e-13
46.8364
-1.13687e-12
46.8365
-1.36424e-12
46.8365
-4.54747e-13
46.8366
0
46.8367
0
46.8368
-9.09495e-13
46.8369
-1.59162e-12
46.837
-6.82121e-13
46.8371
4.54747e-13
46.8372
4.54747e-13
46.8373
-1.59162e-12
46.8374
-6.82121e-13
46.8375
-6.82121e-13
46.8376
-2.27374e-12
46.8376
0
46.8377
-9.09495e-13
46.8377
-2.27374e-13
46.8377
-1.13687e-12
46.8377
-2.27374e-12
46.8376
-6.82121e-13
46.8376
4.54747e-13
46.8375
4.54747e-13
46.8375
-4.54747e-13
46.8374
-9.09495e-13
46.8372
4.54747e-13
46.8371
6.82121e-13
46.8369
1.13687e-12
46.8368
1.13687e-12
46.8366
6.82121e-13
46.8363
-2.27374e-13
46.8361
1.36424e-12
46.8358
-1.13687e-12
46.8354
-9.09495e-13
46.8351
-1.36424e-12
46.8347
2.27374e-13
46.8343
-2.27374e-13
46.8338
-6.82121e-13
46.8333
0
46.8327
-2.72848e-12
46.8321
-4.54747e-13
46.8314
-6.82121e-13
46.8306
-2.04636e-12
46.8298
-2.50111e-12
46.829
-4.54747e-13
46.828
-6.82121e-13
46.827
-1.13687e-12
46.8259
0
46.8247
4.54747e-13
46.8234
4.54747e-13
46.822
-1.81899e-12
46.8205
-6.82121e-13
46.8189
-2.27374e-13
46.8171
6.82121e-13
46.8152
1.81899e-12
46.8132
1.13687e-12
46.811
1.13687e-12
46.8086
1.36424e-12
46.8061
-6.82121e-13
46.8034
0
46.8004
1.13687e-12
46.7973
2.27374e-13
46.794
4.54747e-13
46.7904
2.27374e-13
46.7866
-2.27374e-13
46.7825
2.04636e-12
46.7782
-3.63798e-12
46.7736
1.81899e-12
46.7687
7.04858e-12
46.7635
-5.45697e-12
46.7579
-6.82121e-13
46.7521
4.3201e-12
46.7459
-3.41061e-12
46.7393
-1.04592e-11
46.7323
-3.18323e-12
46.725
5.91172e-12
46.7172
5.45697e-12
46.709
6.82121e-13
46.7004
2.04636e-12
46.6913
4.3201e-12
46.6818
-1.36424e-12
46.6718
-1.18234e-11
46.6613
-9.32232e-12
46.6503
2.95586e-12
46.6387
9.32232e-12
46.6266
2.27374e-12
46.614
-6.82121e-12
46.6008
-6.59384e-12
46.587
-4.54747e-12
46.5726
0
46.5576
2.27374e-12
46.542
8.86757e-12
46.5258
1.04592e-11
46.5089
1.68257e-11
46.4913
-5.68434e-12
46.4731
-1.81899e-12
46.4541
-1.97815e-11
46.4345
2.50111e-12
46.4142
-9.09495e-12
46.3931
3.86535e-12
46.3713
-4.09273e-12
46.3488
2.38742e-11
46.3255
-5.22959e-12
46.3014
-1.45519e-11
46.2766
-5.16138e-11
46.251
4.54747e-13
46.2245
3.93356e-11
46.1973
7.63976e-11
46.1693
-3.11502e-11
46.1404
1.17552e-09
46.1107
2.33558e-09
46.0802
1.99982e-08
46.0488
7.31418e-08
46.0165
3.91126e-07
45.9834
1.78703e-06
45.9494
8.82883e-06
45.9145
4.2124e-05
45.8787
0.000204098
45.8418
0.000981456
45.8033
0.00473249
45.7602
0.022773
45.6979
0.109317
45.542
0.518623
44.9232
2.41895
8.5993
42.7307
46.8274
-0.000185465
46.8276
-0.00015798
46.8277
-0.00013947
46.8279
-0.000142674
46.8281
-0.000143654
46.8283
-0.000143345
46.8284
-0.000143273
46.8286
-0.000143283
46.8288
-0.000143282
46.8289
-0.00014328
46.8291
-0.000143283
46.8292
-0.000143296
46.8294
-0.000143277
46.8296
-0.000143301
46.8297
-0.000143305
46.8299
-0.00014331
46.83
-0.000143318
46.8301
-0.000143327
46.8303
-0.000143351
46.8304
-0.000143309
46.8306
-0.000143362
46.8307
-0.000143358
46.8308
-0.000143366
46.831
-0.000143374
46.8311
-0.000143384
46.8312
-0.000143388
46.8313
-0.000143402
46.8314
-0.000143404
46.8315
-0.000143415
46.8317
-0.000143418
46.8318
-0.000143432
46.8319
-0.00014344
46.832
-0.000143451
46.8321
-0.000143432
46.8322
-0.000143463
46.8322
-0.000143475
46.8323
-0.000143474
46.8324
-0.000143476
46.8325
-0.000143472
46.8326
-0.000143524
46.8326
-0.000143511
46.8327
-0.000143519
46.8327
-0.00014353
46.8328
-0.000143531
46.8329
-0.000143547
46.833
-0.00014355
46.8331
-0.000143636
46.8333
-0.000143586
46.8334
-0.000143616
46.8335
-0.000143632
46.8336
-0.000143648
46.8337
-0.000143664
46.8338
-0.000143679
46.8339
-0.000143682
46.8339
-0.000143693
46.834
-0.000143755
46.8341
-0.000143744
46.8341
-0.000143754
46.8342
-0.000143756
46.8343
-0.000143782
46.8344
-0.000143877
46.8345
-0.00014377
46.8346
-0.000143829
46.8347
-0.000143853
46.8348
-0.000143868
46.8349
-0.000143883
46.8351
-0.000143896
46.8352
-0.000143907
46.8354
-0.000143913
46.8355
-0.000143914
46.8357
-0.000143905
46.8358
-0.000143885
46.836
-0.000143849
46.8361
-0.00014379
46.8362
-0.000143702
46.8363
-0.00014358
46.8364
-0.000143396
46.8365
-0.000143104
46.8365
-0.000142927
46.8366
-0.000142464
46.8367
-0.000141944
46.8368
-0.000141273
46.8369
-0.000140472
46.837
-0.000139586
46.8371
-0.000138325
46.8372
-0.000136899
46.8373
-0.000135241
46.8374
-0.000133279
46.8375
-0.00013102
46.8376
-0.000128441
46.8376
-0.000125528
46.8377
-0.000122275
46.8377
-0.00011868
46.8377
-0.000114749
46.8377
-0.000110494
46.8376
-0.000105936
46.8376
-0.000101109
46.8375
-9.6013e-05
46.8375
-9.07738e-05
46.8374
-8.53383e-05
46.8372
-7.98148e-05
46.8371
-7.42146e-05
46.8369
-6.86419e-05
46.8368
-6.31138e-05
46.8366
-5.76877e-05
46.8363
-5.24106e-05
46.8361
-4.73254e-05
46.8358
-4.24687e-05
46.8354
-3.78713e-05
46.8351
-3.35577e-05
46.8347
-2.95454e-05
46.8343
-2.58456e-05
46.8338
-2.2463e-05
46.8333
-1.93966e-05
46.8327
-1.66399e-05
46.8321
-1.41824e-05
46.8314
-1.20096e-05
46.8306
-1.01043e-05
46.8298
-8.44707e-06
46.829
-7.01732e-06
46.828
-5.79375e-06
46.827
-4.75505e-06
46.8259
-3.88039e-06
46.8247
-3.1498e-06
46.8234
-2.54453e-06
46.822
-2.04722e-06
46.8205
-1.64207e-06
46.8189
-1.31487e-06
46.8171
-1.05305e-06
46.8152
-8.45604e-07
46.8132
-6.83007e-07
46.811
-5.57117e-07
46.8086
-4.61035e-07
46.8061
-3.88985e-07
46.8034
-3.36197e-07
46.8004
-2.9877e-07
46.7973
-2.73541e-07
46.794
-2.57948e-07
46.7904
-2.4995e-07
46.7866
-2.47929e-07
46.7825
-2.50618e-07
46.7782
-2.57048e-07
46.7736
-2.66439e-07
46.7687
-2.78232e-07
46.7635
-2.92011e-07
46.7579
-3.07423e-07
46.7521
-3.24228e-07
46.7459
-3.42259e-07
46.7393
-3.61362e-07
46.7323
-3.81433e-07
46.725
-4.02403e-07
46.7172
-4.24234e-07
46.709
-4.46882e-07
46.7004
-4.70322e-07
46.6913
-4.94533e-07
46.6818
-5.19503e-07
46.6718
-5.45211e-07
46.6613
-5.71643e-07
46.6503
-5.98803e-07
46.6387
-6.26689e-07
46.6266
-6.55295e-07
46.614
-6.84602e-07
46.6008
-7.14588e-07
46.587
-7.45255e-07
46.5726
-7.76585e-07
46.5576
-8.08553e-07
46.542
-8.41143e-07
46.5258
-8.74317e-07
46.5089
-9.08061e-07
46.4913
-9.42352e-07
46.4731
-9.7718e-07
46.4541
-1.01247e-06
46.4345
-1.04824e-06
46.4142
-1.08446e-06
46.3931
-1.1211e-06
46.3713
-1.15815e-06
46.3488
-1.19558e-06
46.3255
-1.23346e-06
46.3014
-1.27168e-06
46.2766
-1.31031e-06
46.251
-1.34922e-06
46.2245
-1.38852e-06
46.1973
-1.42799e-06
46.1693
-1.46797e-06
46.1404
-1.50716e-06
46.1107
-1.5469e-06
46.0802
-1.57206e-06
46.0488
-1.57236e-06
46.0165
-1.34413e-06
45.9834
-2.82061e-07
45.9494
5.34322e-06
45.9145
3.22246e-05
45.8788
0.000162807
45.8423
0.000791542
45.8056
0.00383933
45.7713
0.0186407
45.7498
0.0913177
45.7775
0.450517
45.8316
2.32359
7.82458
46.5643
46.8274
-0.000402095
46.8276
-0.000301943
46.8278
-0.000281315
46.8279
-0.000286218
46.8281
-0.00028662
46.8283
-0.000286386
46.8284
-0.0002864
46.8286
-0.00028644
46.8288
-0.000286463
46.8289
-0.000286483
46.8291
-0.000286503
46.8293
-0.000286526
46.8294
-0.000286535
46.8296
-0.000286561
46.8297
-0.000286579
46.8299
-0.000286596
46.83
-0.000286615
46.8302
-0.000286633
46.8303
-0.000286666
46.8304
-0.000286648
46.8306
-0.000286691
46.8307
-0.000286705
46.8308
-0.000286722
46.831
-0.00028674
46.8311
-0.000286763
46.8312
-0.000286769
46.8313
-0.00028679
46.8315
-0.000286811
46.8316
-0.000286826
46.8317
-0.000286823
46.8318
-0.00028687
46.8319
-0.000286877
46.832
-0.000286889
46.8321
-0.000286886
46.8322
-0.000286922
46.8323
-0.000286944
46.8324
-0.000286949
46.8324
-0.000286936
46.8325
-0.000286934
46.8326
-0.000287069
46.8326
-0.00028702
46.8327
-0.000287039
46.8328
-0.000287061
46.8328
-0.000287061
46.8329
-0.000287089
46.833
-0.000287093
46.8332
-0.000287327
46.8333
-0.000287134
46.8334
-0.000287231
46.8335
-0.000287264
46.8336
-0.000287296
46.8337
-0.000287328
46.8338
-0.000287362
46.8339
-0.000287347
46.834
-0.000287391
46.834
-0.000287527
46.8341
-0.000287485
46.8341
-0.00028751
46.8342
-0.000287506
46.8343
-0.000287559
46.8344
-0.000287779
46.8345
-0.000287525
46.8346
-0.000287666
46.8347
-0.000287706
46.8348
-0.000287736
46.8349
-0.000287766
46.8351
-0.000287792
46.8352
-0.000287813
46.8354
-0.000287826
46.8355
-0.000287826
46.8357
-0.000287808
46.8359
-0.000287766
46.836
-0.000287691
46.8361
-0.00028757
46.8362
-0.000287391
46.8363
-0.000287136
46.8364
-0.000286763
46.8365
-0.000286194
46.8366
-0.000285808
46.8366
-0.000284867
46.8367
-0.000283819
46.8368
-0.00028245
46.8369
-0.000280824
46.837
-0.000279063
46.8371
-0.000276476
46.8372
-0.000273621
46.8374
-0.000270255
46.8374
-0.000266298
46.8375
-0.000261741
46.8376
-0.00025654
46.8376
-0.000250672
46.8377
-0.000244121
46.8377
-0.000236886
46.8377
-0.00022898
46.8377
-0.000220427
46.8376
-0.000211274
46.8376
-0.000201574
46.8375
-0.000191386
46.8375
-0.000180846
46.8374
-0.000169967
46.8373
-0.000158909
46.8371
-0.0001477
46.837
-0.000136558
46.8368
-0.000125508
46.8366
-0.00011467
46.8363
-0.000104136
46.8361
-9.39916e-05
46.8358
-8.43088e-05
46.8354
-7.51485e-05
46.8351
-6.65587e-05
46.8347
-5.8574e-05
46.8343
-5.12155e-05
46.8338
-4.44919e-05
46.8333
-3.84003e-05
46.8327
-3.29275e-05
46.8321
-2.80514e-05
46.8314
-2.37427e-05
46.8306
-1.99667e-05
46.8298
-1.66842e-05
46.829
-1.38539e-05
46.828
-1.14332e-05
46.827
-9.37943e-06
46.8259
-7.65097e-06
46.8247
-6.20805e-06
46.8234
-5.01332e-06
46.822
-4.03227e-06
46.8205
-3.23349e-06
46.8189
-2.58879e-06
46.8171
-2.07326e-06
46.8152
-1.66505e-06
46.8132
-1.34534e-06
46.811
-1.09801e-06
46.8086
-9.09433e-07
46.8061
-7.68202e-07
46.8034
-6.64901e-07
46.8004
-5.91837e-07
46.7973
-5.42778e-07
46.794
-5.12668e-07
46.7904
-4.97495e-07
46.7866
-4.9408e-07
46.7825
-4.99927e-07
46.7782
-5.13125e-07
46.7736
-5.32174e-07
46.7687
-5.55959e-07
46.7635
-5.83646e-07
46.7579
-6.14576e-07
46.7521
-6.48271e-07
46.7459
-6.84378e-07
46.7393
-7.22617e-07
46.7323
-7.62791e-07
46.725
-8.04771e-07
46.7172
-8.48449e-07
46.709
-8.93759e-07
46.7004
-9.40637e-07
46.6913
-9.89056e-07
46.6818
-1.03899e-06
46.6718
-1.09041e-06
46.6613
-1.14328e-06
46.6503
-1.19762e-06
46.6387
-1.25339e-06
46.6266
-1.31059e-06
46.614
-1.36919e-06
46.6008
-1.42918e-06
46.587
-1.49052e-06
46.5726
-1.55317e-06
46.5576
-1.61712e-06
46.542
-1.6823e-06
46.5258
-1.74866e-06
46.5089
-1.81615e-06
46.4913
-1.88472e-06
46.4731
-1.95434e-06
46.4541
-2.02494e-06
46.4345
-2.09649e-06
46.4142
-2.16892e-06
46.3931
-2.24221e-06
46.3713
-2.3163e-06
46.3488
-2.39121e-06
46.3255
-2.46691e-06
46.3014
-2.54339e-06
46.2766
-2.6206e-06
46.251
-2.69847e-06
46.2245
-2.77701e-06
46.1973
-2.85612e-06
46.1693
-2.93598e-06
46.1404
-3.01587e-06
46.1107
-3.09682e-06
46.0802
-3.17164e-06
46.0488
-3.24182e-06
46.0165
-3.21941e-06
45.9834
-2.91894e-06
45.9494
-8.81287e-07
45.9145
8.8018e-06
45.8789
5.65109e-05
45.8427
0.00028629
45.8076
0.00140194
45.7808
0.0068415
45.7986
0.0341915
46.0296
0.179062
47.0462
1.26589
4.02826
50.8004
10.6083
-0.000460227
10.6084
-0.000329233
10.6084
-0.000315406
10.6085
-0.000318809
10.6085
-0.000318989
10.6085
-0.000318851
10.6086
-0.000318868
10.6086
-0.000318899
10.6086
-0.000318921
10.6087
-0.000318942
10.6087
-0.000318962
10.6088
-0.000318982
10.6088
-0.000319
10.6088
-0.000319025
10.6089
-0.000319043
10.6089
-0.000319062
10.6089
-0.000319082
10.609
-0.000319102
10.609
-0.000319131
10.609
-0.000319131
10.6091
-0.00031916
10.6091
-0.000319181
10.6091
-0.0003192
10.6091
-0.00031922
10.6092
-0.000319241
10.6092
-0.000319256
10.6092
-0.000319276
10.6092
-0.000319297
10.6093
-0.000319314
10.6093
-0.00031932
10.6093
-0.000319357
10.6093
-0.000319369
10.6094
-0.000319383
10.6094
-0.00031939
10.6094
-0.000319418
10.6094
-0.000319441
10.6095
-0.000319452
10.6095
-0.000319432
10.6095
-0.00031943
10.6095
-0.000319593
10.6095
-0.000319529
10.6095
-0.000319551
10.6095
-0.000319576
10.6096
-0.000319575
10.6096
-0.000319604
10.6096
-0.000319607
10.6096
-0.000319898
10.6097
-0.000319636
10.6097
-0.000319765
10.6097
-0.000319801
10.6097
-0.000319836
10.6098
-0.000319872
10.6098
-0.000319907
10.6098
-0.000319888
10.6098
-0.000319942
10.6098
-0.000320099
10.6098