/*--------------------------------*- C++ -*----------------------------------*\
| =========                 |                                                 |
| \\      /  F ield         | OpenFOAM: The Open Source CFD Toolbox           |
|  \\    /   O peration     | Version:  3.0.x                                 |
|   \\  /    A nd           | Web:      www.OpenFOAM.org                      |
|    \\/     M anipulation  |                                                 |
\*---------------------------------------------------------------------------*/
FoamFile
{
    version     2.0;
    format      ascii;
    class       volScalarField;
    location    "0.43995";
    object      rho;
}
// * * * * * * * * * * * * * * * * * * * * * * * * * * * * * * * * * * * * * //

dimensions      [1 -3 0 0 0 0 0];

internalField   nonuniform List<scalar> 
13800
(
50.5466
50.5466
50.5466
50.5466
50.5466
50.5466
50.5466
50.5466
50.5466
50.5466
50.5466
50.5466
50.5466
50.5466
50.5466
50.5466
50.5466
50.5467
50.5467
50.5467
50.5467
50.5467
50.5467
50.5467
50.5467
50.5467
50.5467
50.5467
50.5467
50.5467
50.5467
50.5467
50.5467
50.5467
50.5467
50.5467
50.5467
50.5467
50.5467
50.5467
50.5466
50.5466
50.5466
50.5466
50.5466
50.5466
50.5466
50.5467
50.5468
50.5468
50.5469
50.5469
50.5469
50.5469
50.5469
50.5469
50.5468
50.5468
50.5468
50.5468
50.5468
50.5469
50.5469
50.5469
50.5469
50.5469
50.5469
50.547
50.5471
50.5471
50.5472
50.5472
50.5473
50.5473
50.5473
50.5473
50.5473
50.5473
50.5473
50.5473
50.5473
50.5472
50.5472
50.5473
50.5473
50.5474
50.5474
50.5475
50.5475
50.5475
50.5476
50.5476
50.5476
50.5476
50.5476
50.5476
50.5476
50.5476
50.5477
50.5477
50.5477
50.5477
50.5477
50.5477
50.5477
50.5478
50.5478
50.5478
50.5478
50.5478
50.5479
50.5479
50.548
50.548
50.548
50.5481
50.5482
50.5482
50.5483
50.5484
50.5485
50.5486
50.5487
50.5488
50.5489
50.549
50.5492
50.5493
50.5495
50.5497
50.5499
50.5501
50.5504
50.5506
50.5509
50.5512
50.5515
50.5518
50.5522
50.5526
50.553
50.5534
50.5539
50.5544
50.5549
50.5555
50.5561
50.5567
50.5574
50.5581
50.5588
50.5596
50.5604
50.5613
50.5623
50.5632
50.5642
50.5653
50.5665
50.5676
50.5689
50.5702
50.5715
50.5729
50.5744
50.5759
50.5775
50.5792
50.5809
50.5827
50.5846
50.5866
50.5886
50.5907
50.5928
50.5951
50.5974
50.5998
50.6023
50.6048
50.6075
50.6102
50.613
50.6159
50.6188
50.6219
50.6251
50.6283
50.6316
50.635
50.6385
50.6421
50.6458
50.6496
50.6536
50.6574
50.6617
50.6658
50.6726
50.6711
50.5475
50.5475
50.5475
50.5475
50.5475
50.5475
50.5475
50.5475
50.5475
50.5475
50.5475
50.5475
50.5475
50.5475
50.5475
50.5475
50.5475
50.5475
50.5475
50.5475
50.5475
50.5475
50.5475
50.5475
50.5475
50.5475
50.5475
50.5474
50.5474
50.5474
50.5474
50.5474
50.5474
50.5474
50.5474
50.5474
50.5474
50.5474
50.5474
50.5474
50.5474
50.5473
50.5473
50.5473
50.5473
50.5473
50.5474
50.5474
50.5475
50.5475
50.5476
50.5476
50.5476
50.5476
50.5476
50.5476
50.5475
50.5475
50.5475
50.5475
50.5475
50.5475
50.5475
50.5475
50.5475
50.5476
50.5476
50.5476
50.5477
50.5478
50.5478
50.5479
50.5479
50.5479
50.5479
50.5479
50.5479
50.5479
50.5479
50.5479
50.5479
50.5479
50.5479
50.5479
50.5479
50.548
50.548
50.548
50.5481
50.5481
50.5481
50.5481
50.5482
50.5482
50.5482
50.5482
50.5482
50.5482
50.5482
50.5482
50.5482
50.5482
50.5482
50.5483
50.5483
50.5483
50.5483
50.5483
50.5484
50.5484
50.5484
50.5485
50.5485
50.5485
50.5486
50.5486
50.5487
50.5488
50.5488
50.5489
50.549
50.5491
50.5492
50.5493
50.5494
50.5496
50.5497
50.5499
50.5501
50.5502
50.5504
50.5507
50.5509
50.5512
50.5514
50.5517
50.552
50.5524
50.5527
50.5531
50.5535
50.554
50.5544
50.5549
50.5554
50.556
50.5566
50.5572
50.5579
50.5586
50.5594
50.5602
50.561
50.5619
50.5628
50.5638
50.5648
50.5659
50.567
50.5682
50.5694
50.5707
50.5721
50.5735
50.5749
50.5765
50.5781
50.5797
50.5815
50.5833
50.5852
50.5871
50.5891
50.5912
50.5934
50.5956
50.5979
50.6003
50.6028
50.6054
50.608
50.6107
50.6135
50.6164
50.6194
50.6224
50.6256
50.6288
50.6322
50.6356
50.6391
50.6427
50.6464
50.6501
50.6541
50.6579
50.6623
50.6662
50.6731
50.6696
50.5475
50.5475
50.5475
50.5475
50.5475
50.5475
50.5475
50.5475
50.5475
50.5475
50.5475
50.5475
50.5475
50.5475
50.5475
50.5475
50.5475
50.5475
50.5475
50.5475
50.5475
50.5475
50.5475
50.5475
50.5475
50.5475
50.5475
50.5475
50.5474
50.5474
50.5474
50.5474
50.5474
50.5474
50.5474
50.5474
50.5474
50.5474
50.5474
50.5474
50.5474
50.5473
50.5473
50.5473
50.5473
50.5473
50.5474
50.5474
50.5475
50.5475
50.5476
50.5476
50.5476
50.5476
50.5476
50.5476
50.5475
50.5475
50.5475
50.5475
50.5475
50.5475
50.5475
50.5475
50.5475
50.5476
50.5476
50.5476
50.5477
50.5478
50.5478
50.5479
50.5479
50.5479
50.5479
50.5479
50.5479
50.5479
50.5479
50.5479
50.5479
50.5479
50.5479
50.5479
50.5479
50.548
50.548
50.548
50.5481
50.5481
50.5481
50.5481
50.5482
50.5482
50.5482
50.5482
50.5482
50.5482
50.5482
50.5482
50.5482
50.5482
50.5482
50.5483
50.5483
50.5483
50.5483
50.5483
50.5484
50.5484
50.5484
50.5485
50.5485
50.5485
50.5486
50.5486
50.5487
50.5488
50.5488
50.5489
50.549
50.5491
50.5492
50.5493
50.5494
50.5496
50.5497
50.5499
50.5501
50.5502
50.5504
50.5507
50.5509
50.5512
50.5514
50.5517
50.552
50.5524
50.5527
50.5531
50.5535
50.554
50.5544
50.5549
50.5554
50.556
50.5566
50.5572
50.5579
50.5586
50.5594
50.5602
50.561
50.5619
50.5628
50.5638
50.5648
50.5659
50.567
50.5682
50.5694
50.5707
50.5721
50.5735
50.5749
50.5765
50.5781
50.5798
50.5815
50.5833
50.5852
50.5871
50.5891
50.5912
50.5934
50.5956
50.5979
50.6003
50.6028
50.6054
50.608
50.6107
50.6135
50.6164
50.6194
50.6224
50.6256
50.6288
50.6322
50.6356
50.6391
50.6427
50.6464
50.6501
50.6541
50.6579
50.6623
50.6662
50.6731
50.6699
50.5475
50.5475
50.5475
50.5475
50.5475
50.5475
50.5475
50.5475
50.5475
50.5475
50.5475
50.5475
50.5475
50.5475
50.5475
50.5475
50.5475
50.5475
50.5475
50.5475
50.5475
50.5475
50.5474
50.5474
50.5474
50.5474
50.5474
50.5474
50.5474
50.5474
50.5474
50.5474
50.5474
50.5474
50.5474
50.5474
50.5474
50.5474
50.5474
50.5474
50.5474
50.5473
50.5473
50.5473
50.5473
50.5473
50.5474
50.5474
50.5475
50.5475
50.5476
50.5476
50.5476
50.5476
50.5476
50.5476
50.5475
50.5475
50.5475
50.5475
50.5475
50.5475
50.5475
50.5475
50.5475
50.5476
50.5476
50.5476
50.5477
50.5478
50.5478
50.5479
50.5479
50.5479
50.5479
50.5479
50.5479
50.5479
50.5479
50.5479
50.5479
50.5479
50.5479
50.5479
50.5479
50.548
50.548
50.548
50.5481
50.5481
50.5481
50.5481
50.5482
50.5482
50.5482
50.5482
50.5482
50.5482
50.5482
50.5482
50.5482
50.5482
50.5482
50.5483
50.5483
50.5483
50.5483
50.5483
50.5484
50.5484
50.5484
50.5485
50.5485
50.5485
50.5486
50.5486
50.5487
50.5488
50.5488
50.5489
50.549
50.5491
50.5492
50.5493
50.5494
50.5496
50.5497
50.5499
50.5501
50.5502
50.5504
50.5507
50.5509
50.5512
50.5514
50.5517
50.552
50.5524
50.5527
50.5531
50.5535
50.554
50.5544
50.5549
50.5554
50.556
50.5566
50.5572
50.5579
50.5586
50.5594
50.5602
50.561
50.5619
50.5628
50.5638
50.5648
50.5659
50.567
50.5682
50.5694
50.5707
50.5721
50.5735
50.5749
50.5765
50.5781
50.5798
50.5815
50.5833
50.5852
50.5871
50.5891
50.5912
50.5934
50.5956
50.5979
50.6003
50.6028
50.6054
50.608
50.6107
50.6135
50.6164
50.6194
50.6224
50.6256
50.6288
50.6322
50.6356
50.6391
50.6427
50.6464
50.6501
50.6541
50.6579
50.6623
50.6663
50.6727
50.6722
50.5475
50.5475
50.5475
50.5475
50.5475
50.5475
50.5475
50.5475
50.5475
50.5475
50.5475
50.5475
50.5475
50.5475
50.5475
50.5475
50.5475
50.5474
50.5474
50.5474
50.5474
50.5474
50.5474
50.5474
50.5474
50.5474
50.5474
50.5474
50.5474
50.5474
50.5474
50.5474
50.5474
50.5474
50.5474
50.5474
50.5474
50.5474
50.5474
50.5474
50.5474
50.5473
50.5473
50.5473
50.5473
50.5473
50.5474
50.5474
50.5475
50.5475
50.5476
50.5476
50.5476
50.5476
50.5476
50.5475
50.5475
50.5475
50.5475
50.5475
50.5475
50.5475
50.5475
50.5475
50.5475
50.5476
50.5476
50.5476
50.5477
50.5477
50.5478
50.5479
50.5479
50.5479
50.5479
50.5479
50.5479
50.5479
50.5479
50.5479
50.5479
50.5479
50.5479
50.5479
50.5479
50.548
50.548
50.548
50.5481
50.5481
50.5481
50.5481
50.5482
50.5482
50.5482
50.5482
50.5482
50.5482
50.5482
50.5482
50.5482
50.5482
50.5482
50.5483
50.5483
50.5483
50.5483
50.5483
50.5484
50.5484
50.5484
50.5485
50.5485
50.5485
50.5486
50.5486
50.5487
50.5488
50.5488
50.5489
50.549
50.5491
50.5492
50.5493
50.5494
50.5496
50.5497
50.5499
50.5501
50.5502
50.5504
50.5507
50.5509
50.5512
50.5514
50.5517
50.552
50.5524
50.5527
50.5531
50.5535
50.554
50.5544
50.5549
50.5554
50.556
50.5566
50.5572
50.5579
50.5586
50.5594
50.5602
50.561
50.5619
50.5628
50.5638
50.5648
50.5659
50.567
50.5682
50.5694
50.5707
50.5721
50.5735
50.5749
50.5765
50.5781
50.5798
50.5815
50.5833
50.5852
50.5871
50.5891
50.5912
50.5934
50.5956
50.5979
50.6003
50.6028
50.6054
50.608
50.6107
50.6135
50.6164
50.6194
50.6224
50.6256
50.6288
50.6322
50.6356
50.6391
50.6427
50.6464
50.6501
50.6541
50.6579
50.6622
50.6661
50.6716
50.6713
50.5475
50.5475
50.5475
50.5475
50.5475
50.5475
50.5475
50.5475
50.5475
50.5475
50.5475
50.5475
50.5475
50.5475
50.5475
50.5475
50.5475
50.5474
50.5474
50.5474
50.5474
50.5474
50.5474
50.5474
50.5474
50.5474
50.5474
50.5474
50.5474
50.5474
50.5474
50.5474
50.5474
50.5474
50.5474
50.5474
50.5474
50.5474
50.5474
50.5474
50.5474
50.5473
50.5473
50.5473
50.5473
50.5473
50.5474
50.5474
50.5475
50.5475
50.5476
50.5476
50.5476
50.5476
50.5476
50.5475
50.5475
50.5475
50.5475
50.5475
50.5475
50.5475
50.5475
50.5475
50.5475
50.5476
50.5476
50.5476
50.5477
50.5477
50.5478
50.5479
50.5479
50.5479
50.5479
50.5479
50.5479
50.5479
50.5479
50.5479
50.5479
50.5479
50.5479
50.5479
50.5479
50.548
50.548
50.548
50.5481
50.5481
50.5481
50.5481
50.5482
50.5482
50.5482
50.5482
50.5482
50.5482
50.5482
50.5482
50.5482
50.5482
50.5482
50.5483
50.5483
50.5483
50.5483
50.5483
50.5484
50.5484
50.5484
50.5485
50.5485
50.5485
50.5486
50.5486
50.5487
50.5488
50.5488
50.5489
50.549
50.5491
50.5492
50.5493
50.5494
50.5496
50.5497
50.5499
50.5501
50.5502
50.5504
50.5507
50.5509
50.5512
50.5514
50.5517
50.552
50.5524
50.5527
50.5531
50.5535
50.554
50.5544
50.5549
50.5554
50.556
50.5566
50.5572
50.5579
50.5586
50.5594
50.5602
50.561
50.5619
50.5628
50.5638
50.5648
50.5659
50.567
50.5682
50.5694
50.5707
50.5721
50.5735
50.5749
50.5765
50.5781
50.5798
50.5815
50.5833
50.5852
50.5871
50.5891
50.5912
50.5934
50.5956
50.5979
50.6003
50.6028
50.6054
50.608
50.6107
50.6135
50.6164
50.6194
50.6224
50.6256
50.6288
50.6322
50.6356
50.6391
50.6427
50.6464
50.6502
50.654
50.6579
50.6622
50.6661
50.6697
50.6733
50.5475
50.5475
50.5475
50.5475
50.5475
50.5475
50.5475
50.5475
50.5475
50.5475
50.5475
50.5475
50.5475
50.5475
50.5475
50.5475
50.5475
50.5475
50.5475
50.5475
50.5475
50.5475
50.5474
50.5474
50.5474
50.5474
50.5474
50.5474
50.5474
50.5474
50.5474
50.5474
50.5474
50.5474
50.5474
50.5474
50.5474
50.5474
50.5474
50.5474
50.5474
50.5473
50.5473
50.5473
50.5473
50.5473
50.5474
50.5474
50.5475
50.5475
50.5476
50.5476
50.5476
50.5476
50.5476
50.5476
50.5475
50.5475
50.5475
50.5475
50.5475
50.5475
50.5475
50.5475
50.5475
50.5476
50.5476
50.5476
50.5477
50.5478
50.5478
50.5479
50.5479
50.5479
50.5479
50.5479
50.5479
50.5479
50.5479
50.5479
50.5479
50.5479
50.5479
50.5479
50.5479
50.548
50.548
50.548
50.5481
50.5481
50.5481
50.5481
50.5482
50.5482
50.5482
50.5482
50.5482
50.5482
50.5482
50.5482
50.5482
50.5482
50.5482
50.5483
50.5483
50.5483
50.5483
50.5483
50.5484
50.5484
50.5484
50.5485
50.5485
50.5485
50.5486
50.5486
50.5487
50.5488
50.5488
50.5489
50.549
50.5491
50.5492
50.5493
50.5494
50.5496
50.5497
50.5499
50.5501
50.5502
50.5504
50.5507
50.5509
50.5512
50.5514
50.5517
50.552
50.5524
50.5527
50.5531
50.5535
50.554
50.5544
50.5549
50.5554
50.556
50.5566
50.5572
50.5579
50.5586
50.5594
50.5602
50.561
50.5619
50.5628
50.5638
50.5648
50.5659
50.567
50.5682
50.5694
50.5707
50.5721
50.5735
50.5749
50.5765
50.5781
50.5798
50.5815
50.5833
50.5852
50.5871
50.5891
50.5912
50.5934
50.5956
50.5979
50.6003
50.6028
50.6054
50.608
50.6107
50.6135
50.6164
50.6194
50.6224
50.6256
50.6288
50.6322
50.6356
50.6391
50.6427
50.6464
50.6502
50.6539
50.6581
50.6618
50.666
50.668
50.6798
50.5475
50.5475
50.5475
50.5475
50.5475
50.5475
50.5475
50.5475
50.5475
50.5475
50.5475
50.5475
50.5475
50.5475
50.5475
50.5475
50.5475
50.5475
50.5475
50.5475
50.5475
50.5475
50.5475
50.5475
50.5475
50.5475
50.5475
50.5475
50.5474
50.5474
50.5474
50.5474
50.5474
50.5474
50.5474
50.5474
50.5474
50.5474
50.5474
50.5474
50.5474
50.5473
50.5473
50.5473
50.5473
50.5473
50.5474
50.5474
50.5475
50.5475
50.5476
50.5476
50.5476
50.5476
50.5476
50.5476
50.5475
50.5475
50.5475
50.5475
50.5475
50.5475
50.5475
50.5475
50.5475
50.5476
50.5476
50.5476
50.5477
50.5478
50.5478
50.5479
50.5479
50.5479
50.5479
50.5479
50.5479
50.5479
50.5479
50.5479
50.5479
50.5479
50.5479
50.5479
50.5479
50.548
50.548
50.548
50.5481
50.5481
50.5481
50.5481
50.5482
50.5482
50.5482
50.5482
50.5482
50.5482
50.5482
50.5482
50.5482
50.5482
50.5482
50.5483
50.5483
50.5483
50.5483
50.5483
50.5484
50.5484
50.5484
50.5485
50.5485
50.5485
50.5486
50.5486
50.5487
50.5488
50.5488
50.5489
50.549
50.5491
50.5492
50.5493
50.5494
50.5496
50.5497
50.5499
50.5501
50.5502
50.5504
50.5507
50.5509
50.5512
50.5514
50.5517
50.552
50.5524
50.5527
50.5531
50.5535
50.554
50.5544
50.5549
50.5554
50.556
50.5566
50.5572
50.5579
50.5586
50.5594
50.5602
50.561
50.5619
50.5628
50.5638
50.5648
50.5659
50.567
50.5682
50.5694
50.5707
50.5721
50.5735
50.5749
50.5765
50.5781
50.5798
50.5815
50.5833
50.5852
50.5871
50.5891
50.5912
50.5934
50.5956
50.5979
50.6003
50.6028
50.6054
50.608
50.6107
50.6135
50.6164
50.6194
50.6224
50.6256
50.6288
50.6322
50.6356
50.6391
50.6427
50.6463
50.6502
50.6539
50.6581
50.6617
50.6661
50.6663
50.6964
50.5475
50.5475
50.5475
50.5475
50.5475
50.5475
50.5475
50.5475
50.5475
50.5475
50.5475
50.5475
50.5475
50.5475
50.5475
50.5475
50.5475
50.5475
50.5475
50.5475
50.5475
50.5475
50.5475
50.5475
50.5475
50.5475
50.5475
50.5474
50.5474
50.5474
50.5474
50.5474
50.5474
50.5474
50.5474
50.5474
50.5474
50.5474
50.5474
50.5474
50.5474
50.5473
50.5473
50.5473
50.5473
50.5473
50.5474
50.5474
50.5475
50.5475
50.5476
50.5476
50.5476
50.5476
50.5476
50.5476
50.5475
50.5475
50.5475
50.5475
50.5475
50.5475
50.5475
50.5475
50.5475
50.5476
50.5476
50.5476
50.5477
50.5478
50.5478
50.5479
50.5479
50.5479
50.5479
50.5479
50.5479
50.5479
50.5479
50.5479
50.5479
50.5479
50.5479
50.5479
50.5479
50.548
50.548
50.548
50.5481
50.5481
50.5481
50.5481
50.5482
50.5482
50.5482
50.5482
50.5482
50.5482
50.5482
50.5482
50.5482
50.5482
50.5482
50.5483
50.5483
50.5483
50.5483
50.5483
50.5484
50.5484
50.5484
50.5485
50.5485
50.5485
50.5486
50.5486
50.5487
50.5488
50.5488
50.5489
50.549
50.5491
50.5492
50.5493
50.5494
50.5496
50.5497
50.5499
50.5501
50.5502
50.5504
50.5507
50.5509
50.5512
50.5514
50.5517
50.552
50.5524
50.5527
50.5531
50.5535
50.554
50.5544
50.5549
50.5554
50.556
50.5566
50.5572
50.5579
50.5586
50.5594
50.5602
50.561
50.5619
50.5628
50.5638
50.5648
50.5659
50.567
50.5682
50.5694
50.5707
50.5721
50.5735
50.5749
50.5765
50.5781
50.5797
50.5815
50.5833
50.5852
50.5871
50.5891
50.5912
50.5934
50.5956
50.5979
50.6003
50.6028
50.6054
50.608
50.6107
50.6135
50.6164
50.6194
50.6224
50.6256
50.6288
50.6322
50.6356
50.6391
50.6427
50.6463
50.6502
50.6539
50.6581
50.6617
50.6661
50.6653
50.7051
50.5466
50.5466
50.5466
50.5466
50.5466
50.5466
50.5466
50.5466
50.5466
50.5466
50.5466
50.5466
50.5466
50.5466
50.5466
50.5466
50.5466
50.5467
50.5467
50.5467
50.5467
50.5467
50.5467
50.5467
50.5467
50.5467
50.5467
50.5467
50.5467
50.5467
50.5467
50.5467
50.5467
50.5467
50.5467
50.5467
50.5467
50.5467
50.5467
50.5467
50.5466
50.5466
50.5466
50.5466
50.5466
50.5466
50.5466
50.5467
50.5468
50.5468
50.5469
50.5469
50.5469
50.5469
50.5469
50.5469
50.5468
50.5468
50.5468
50.5468
50.5468
50.5469
50.5469
50.5469
50.5469
50.5469
50.5469
50.547
50.5471
50.5471
50.5472
50.5472
50.5473
50.5473
50.5473
50.5473
50.5473
50.5473
50.5473
50.5473
50.5473
50.5472
50.5472
50.5473
50.5473
50.5474
50.5474
50.5475
50.5475
50.5475
50.5476
50.5476
50.5476
50.5476
50.5476
50.5476
50.5476
50.5476
50.5477
50.5477
50.5477
50.5477
50.5477
50.5477
50.5477
50.5478
50.5478
50.5478
50.5478
50.5478
50.5479
50.5479
50.548
50.548
50.548
50.5481
50.5482
50.5482
50.5483
50.5484
50.5485
50.5486
50.5487
50.5488
50.5489
50.549
50.5492
50.5493
50.5495
50.5497
50.5499
50.5501
50.5504
50.5506
50.5509
50.5512
50.5515
50.5518
50.5522
50.5526
50.553
50.5534
50.5539
50.5544
50.5549
50.5555
50.5561
50.5567
50.5574
50.5581
50.5588
50.5596
50.5604
50.5613
50.5623
50.5632
50.5642
50.5653
50.5665
50.5676
50.5689
50.5702
50.5715
50.5729
50.5744
50.5759
50.5775
50.5792
50.5809
50.5827
50.5846
50.5866
50.5886
50.5907
50.5928
50.5951
50.5974
50.5998
50.6023
50.6048
50.6075
50.6102
50.613
50.6159
50.6188
50.6219
50.6251
50.6283
50.6316
50.635
50.6385
50.6422
50.6458
50.6497
50.6534
50.6576
50.6611
50.6657
50.6639
50.7129
50.7263
50.7483
50.7559
50.7578
50.7583
50.7589
50.7595
50.7597
50.7598
50.7597
50.7596
50.7594
50.759
50.7585
50.7576
50.7562
50.754
50.751
50.7462
50.7386
50.7235
50.7428
50.7509
50.753
50.7537
50.7546
50.7553
50.7557
50.7558
50.7559
50.7559
50.7558
50.7555
50.755
50.754
50.7527
50.7505
50.7474
50.7425
50.735
50.7206
50.7403
50.7494
50.752
50.7528
50.7536
50.7543
50.7546
50.7546
50.7546
50.7546
50.7545
50.7541
50.7536
50.7527
50.7513
50.7491
50.7457
50.7405
50.7321
50.7104
50.7214
50.7254
50.7258
50.726
50.7264
50.7267
50.7268
50.7267
50.7265
50.7264
50.7261
50.7255
50.7247
50.7234
50.7218
50.7198
50.7166
50.7121
50.7055
50.6941
50.7019
50.7081
50.7127
50.7163
50.7188
50.7202
50.7213
50.722
50.7225
50.7228
50.7229
50.722
50.7211
50.7199
50.718
50.7153
50.7121
50.7081
50.7033
50.6645
50.6597
50.6545
50.6491
50.6444
50.6405
50.638
50.6362
50.6349
50.6339
50.6332
50.6327
50.633
50.6333
50.6333
50.6336
50.6341
50.6354
50.6368
50.64
50.6336
50.624
50.6215
50.6231
50.6249
50.6263
50.6272
50.6285
50.6293
50.6305
50.6311
50.632
50.6325
50.6334
50.6339
50.6353
50.6367
50.6394
50.6436
50.6503
50.5945
50.5651
50.5421
50.5265
50.5161
50.5086
50.503
50.4993
50.4971
50.4961
50.4961
50.4971
50.4992
50.5029
50.5081
50.5151
50.5233
50.5355
50.5494
50.5676
50.5865
50.5551
50.5355
50.5238
50.5165
50.511
50.5073
50.5048
50.504
50.5041
50.5051
50.5071
50.5099
50.514
50.5196
50.527
50.5355
50.5463
50.56
50.577
50.5762
50.5313
50.506
50.491
50.4811
50.4731
50.4669
50.4629
50.4603
50.4588
50.4584
50.4592
50.4611
50.4646
50.47
50.4771
50.4862
50.4979
50.5131
50.5334
50.7032
50.6856
50.6834
50.6858
50.6894
50.6933
50.6975
50.7018
50.7061
50.7104
50.7149
50.7194
50.724
50.7286
50.7333
50.7381
50.743
50.7479
50.7529
50.758
50.7631
50.7682
50.7735
50.7788
50.7842
50.7897
50.7953
50.8009
50.8066
50.8124
50.8182
50.8241
50.8301
50.8362
50.8423
50.8485
50.8548
50.8611
50.8675
50.874
50.8806
50.8872
50.8939
50.9007
50.9076
50.9145
50.9216
50.9287
50.9359
50.9431
50.9504
50.9578
50.9653
50.9728
50.9805
50.9882
50.996
51.0039
51.0119
51.0199
51.028
51.0362
51.0444
51.0528
51.0613
51.0698
51.0784
51.087
51.0957
51.1045
51.1134
51.1224
51.1314
51.1405
51.1498
51.1591
51.1684
51.1779
51.1874
51.197
51.2067
51.2165
51.2264
51.2363
51.2463
51.2564
51.2666
51.2768
51.2871
51.2975
51.308
51.3186
51.3293
51.34
51.3508
51.3617
51.3727
51.3837
51.3949
51.4061
51.4174
51.4288
51.4403
51.4518
51.4634
51.4752
51.4872
51.4993
51.5115
51.5238
51.5362
51.5485
51.5607
51.5731
51.5858
51.599
51.6124
51.6251
51.6353
51.6375
51.6212
51.5978
51.5753
51.5567
51.544
51.5383
51.5399
51.5483
51.562
51.5788
51.6036
51.6513
51.7079
51.7575
51.7997
51.8344
51.8621
51.8844
51.903
51.9199
51.9362
51.951
51.9635
51.9762
51.9892
52.0026
52.0163
52.0301
52.0442
52.0584
52.0726
52.087
52.1015
52.116
52.1306
52.1453
52.16
52.1747
52.1895
52.2044
52.2193
52.2342
52.2492
52.2642
52.2792
52.2943
52.3094
52.3246
52.3398
52.355
52.3702
52.3855
52.4008
52.4162
52.4315
52.4469
52.4623
52.4778
52.4932
52.5087
52.524
52.5398
52.555
52.571
52.586
52.6021
52.6172
52.6334
52.6483
52.6647
52.6795
52.696
52.7107
52.7273
52.742
52.7587
52.7732
52.7898
52.8019
52.8282
50.7032
50.6869
50.6848
50.6874
50.6911
50.695
50.6992
50.7035
50.7078
50.7122
50.7166
50.7211
50.7257
50.7304
50.7351
50.7399
50.7447
50.7497
50.7547
50.7597
50.7648
50.77
50.7753
50.7806
50.786
50.7915
50.797
50.8027
50.8084
50.8142
50.82
50.8259
50.8319
50.838
50.8441
50.8503
50.8566
50.8629
50.8694
50.8758
50.8824
50.889
50.8957
50.9025
50.9094
50.9163
50.9234
50.9305
50.9377
50.9449
50.9523
50.9597
50.9671
50.9747
50.9823
50.99
50.9979
51.0057
51.0137
51.0217
51.0298
51.038
51.0463
51.0546
51.0631
51.0716
51.0802
51.0889
51.0976
51.1064
51.1153
51.1243
51.1333
51.1424
51.1516
51.1609
51.1703
51.1798
51.1893
51.1989
51.2086
51.2184
51.2282
51.2382
51.2482
51.2583
51.2685
51.2787
51.289
51.2994
51.3099
51.3205
51.3311
51.3419
51.3527
51.3636
51.3745
51.3856
51.3967
51.4079
51.4192
51.4306
51.442
51.4536
51.4652
51.477
51.4888
51.5008
51.5129
51.525
51.5371
51.5492
51.5614
51.5736
51.5863
51.5996
51.6134
51.6276
51.6421
51.6564
51.6706
51.6847
51.6991
51.7133
51.7261
51.7355
51.7422
51.7481
51.7545
51.762
51.7712
51.7823
51.7953
51.8101
51.8263
51.8436
51.8626
51.8805
51.8973
51.9138
51.93
51.9451
51.9595
51.9737
51.9878
52.0019
52.0161
52.0302
52.0445
52.0588
52.0731
52.0875
52.102
52.1166
52.1312
52.1458
52.1605
52.1753
52.1901
52.2049
52.2198
52.2347
52.2497
52.2647
52.2798
52.2949
52.31
52.3251
52.3403
52.3555
52.3708
52.3861
52.4014
52.4167
52.4321
52.4474
52.4628
52.4783
52.4937
52.5093
52.5246
52.5404
52.5555
52.5715
52.5866
52.6027
52.6177
52.6339
52.6488
52.6652
52.68
52.6965
52.7113
52.7279
52.7425
52.7592
52.7737
52.7904
52.8027
52.8262
50.7033
50.6876
50.6852
50.6874
50.6909
50.6948
50.6989
50.7032
50.7075
50.7119
50.7163
50.7208
50.7254
50.7301
50.7348
50.7396
50.7444
50.7494
50.7544
50.7594
50.7645
50.7697
50.775
50.7803
50.7857
50.7912
50.7967
50.8024
50.8081
50.8139
50.8197
50.8256
50.8316
50.8377
50.8438
50.85
50.8563
50.8626
50.8691
50.8755
50.8821
50.8887
50.8954
50.9022
50.9091
50.916
50.9231
50.9302
50.9374
50.9446
50.952
50.9594
50.9668
50.9744
50.982
50.9897
50.9975
51.0054
51.0134
51.0214
51.0295
51.0377
51.046
51.0543
51.0628
51.0713
51.0799
51.0886
51.0973
51.1061
51.115
51.124
51.133
51.1421
51.1513
51.1606
51.17
51.1795
51.189
51.1986
51.2083
51.2181
51.2279
51.2379
51.2479
51.258
51.2682
51.2784
51.2887
51.2992
51.3096
51.3202
51.3309
51.3416
51.3524
51.3633
51.3742
51.3853
51.3964
51.4076
51.4189
51.4303
51.4417
51.4532
51.4648
51.4766
51.4884
51.5003
51.5124
51.5245
51.5367
51.5489
51.561
51.5731
51.5855
51.5984
51.6121
51.6267
51.6421
51.6587
51.675
51.6905
51.7057
51.7205
51.7351
51.7494
51.7621
51.7719
51.7801
51.7879
51.7961
51.8053
51.8154
51.8267
51.8392
51.8528
51.8672
51.8822
51.8975
51.9129
51.9282
51.9432
51.958
51.9726
51.987
52.0013
52.0157
52.03
52.0443
52.0586
52.073
52.0875
52.102
52.1165
52.1311
52.1458
52.1605
52.1753
52.1901
52.2049
52.2198
52.2347
52.2497
52.2647
52.2798
52.2949
52.31
52.3251
52.3403
52.3555
52.3708
52.3861
52.4014
52.4167
52.4321
52.4474
52.4628
52.4783
52.4937
52.5093
52.5246
52.5404
52.5555
52.5715
52.5866
52.6027
52.6177
52.6339
52.6488
52.6652
52.68
52.6965
52.7113
52.7279
52.7425
52.7592
52.7738
52.7904
52.8031
52.8234
50.6865
50.6768
50.6771
50.6812
50.6857
50.6901
50.6944
50.6987
50.703
50.7074
50.7118
50.7164
50.721
50.7256
50.7303
50.7351
50.74
50.7449
50.7499
50.7549
50.7601
50.7652
50.7705
50.7758
50.7812
50.7867
50.7923
50.7979
50.8036
50.8094
50.8152
50.8211
50.8271
50.8332
50.8393
50.8455
50.8518
50.8581
50.8646
50.871
50.8776
50.8842
50.8909
50.8977
50.9046
50.9115
50.9186
50.9257
50.9329
50.9401
50.9474
50.9548
50.9623
50.9699
50.9775
50.9853
50.993
51.0009
51.0089
51.0169
51.025
51.0332
51.0415
51.0499
51.0583
51.0668
51.0754
51.0841
51.0928
51.1016
51.1105
51.1194
51.1285
51.1376
51.1468
51.1561
51.1655
51.175
51.1845
51.1941
51.2038
51.2136
51.2235
51.2334
51.2434
51.2535
51.2636
51.2739
51.2842
51.2946
51.3051
51.3157
51.3264
51.3371
51.3479
51.3588
51.3698
51.3809
51.3921
51.4033
51.4146
51.426
51.4375
51.4492
51.461
51.4728
51.4848
51.4969
51.509
51.5211
51.5331
51.5452
51.5574
51.5699
51.5829
51.5966
51.6108
51.6254
51.6401
51.6547
51.6689
51.683
51.6971
51.711
51.7242
51.7366
51.7483
51.7595
51.7707
51.7822
51.7939
51.8061
51.8186
51.8316
51.845
51.8587
51.8727
51.8869
51.9012
51.9155
51.9298
51.9441
51.9583
51.9725
51.9868
52.001
52.0153
52.0296
52.0439
52.0583
52.0727
52.0872
52.1018
52.1163
52.131
52.1457
52.1604
52.1752
52.19
52.2049
52.2198
52.2347
52.2497
52.2647
52.2797
52.2948
52.31
52.3251
52.3403
52.3555
52.3708
52.3861
52.4014
52.4167
52.4321
52.4474
52.4629
52.4783
52.4937
52.5093
52.5246
52.5403
52.5556
52.5714
52.5867
52.6025
52.6179
52.6337
52.649
52.6652
52.68
52.6965
52.7113
52.7278
52.7426
52.7592
52.7738
52.7904
52.804
52.82
50.6919
50.6898
50.6903
50.6912
50.6935
50.6967
50.7005
50.7046
50.7088
50.7132
50.7176
50.7221
50.7267
50.7313
50.7361
50.7408
50.7457
50.7506
50.7556
50.7607
50.7658
50.771
50.7763
50.7816
50.787
50.7925
50.798
50.8036
50.8093
50.8151
50.8209
50.8269
50.8329
50.8389
50.845
50.8512
50.8575
50.8639
50.8703
50.8768
50.8834
50.89
50.8967
50.9035
50.9104
50.9173
50.9243
50.9314
50.9386
50.9459
50.9532
50.9606
50.9681
50.9757
50.9833
50.991
50.9988
51.0067
51.0146
51.0227
51.0308
51.039
51.0472
51.0556
51.064
51.0725
51.0811
51.0898
51.0985
51.1073
51.1162
51.1252
51.1343
51.1434
51.1526
51.1619
51.1713
51.1807
51.1902
51.1998
51.2095
51.2193
51.2292
51.2391
51.2491
51.2592
51.2694
51.2796
51.2899
51.3003
51.3108
51.3213
51.332
51.3427
51.3535
51.3644
51.3753
51.3864
51.3975
51.4087
51.4199
51.4313
51.4427
51.4542
51.4657
51.4773
51.4891
51.5009
51.5128
51.5248
51.5368
51.549
51.5613
51.5735
51.5858
51.5981
51.6106
51.6235
51.6367
51.6501
51.6637
51.6773
51.6909
51.7045
51.7179
51.7312
51.7442
51.757
51.7697
51.7825
51.7953
51.8082
51.8213
51.8345
51.8479
51.8614
51.875
51.8887
51.9025
51.9164
51.9303
51.9443
51.9584
51.9725
51.9866
52.0008
52.0151
52.0294
52.0437
52.0581
52.0726
52.0871
52.1017
52.1163
52.1309
52.1456
52.1604
52.1751
52.19
52.2048
52.2197
52.2347
52.2497
52.2647
52.2797
52.2948
52.31
52.3251
52.3403
52.3555
52.3708
52.3861
52.4014
52.4167
52.4321
52.4474
52.4628
52.4783
52.4937
52.5092
52.5247
52.5401
52.5558
52.5712
52.5869
52.6024
52.6179
52.6337
52.649
52.665
52.6804
52.6961
52.7118
52.7272
52.7433
52.7584
52.7744
52.79
52.8053
52.8205
50.6465
50.6562
50.6636
50.6701
50.6758
50.6808
50.6853
50.6897
50.6941
50.6985
50.703
50.7075
50.7121
50.7168
50.7215
50.7263
50.7311
50.736
50.741
50.7461
50.7512
50.7564
50.7617
50.767
50.7724
50.7778
50.7834
50.789
50.7947
50.8005
50.8063
50.8123
50.8182
50.8243
50.8305
50.8367
50.8429
50.8493
50.8557
50.8622
50.8687
50.8754
50.8821
50.8889
50.8957
50.9027
50.9097
50.9168
50.924
50.9312
50.9386
50.946
50.9535
50.961
50.9687
50.9764
50.9842
50.9921
51.0001
51.0081
51.0162
51.0244
51.0327
51.0411
51.0495
51.058
51.0666
51.0752
51.084
51.0928
51.1017
51.1107
51.1198
51.1289
51.1381
51.1474
51.1568
51.1663
51.1759
51.1855
51.1953
51.2051
51.215
51.225
51.2351
51.2452
51.2555
51.2658
51.2763
51.2868
51.2975
51.3082
51.319
51.3299
51.3409
51.3519
51.3631
51.3743
51.3857
51.3972
51.4088
51.4206
51.4324
51.4442
51.4562
51.4681
51.48
51.4919
51.5038
51.5159
51.5282
51.5408
51.5539
51.5673
51.5811
51.5951
51.6091
51.6232
51.6371
51.6508
51.6644
51.6779
51.6915
51.705
51.7183
51.7314
51.7443
51.7571
51.7697
51.7824
51.7951
51.8079
51.8209
51.8341
51.8474
51.8608
51.8744
51.8881
51.9018
51.9157
51.9296
51.9437
51.9577
51.9719
51.9861
52.0003
52.0146
52.029
52.0434
52.0579
52.0724
52.0869
52.1015
52.1161
52.1308
52.1455
52.1603
52.1751
52.1899
52.2048
52.2197
52.2347
52.2496
52.2647
52.2797
52.2948
52.31
52.3251
52.3403
52.3555
52.3708
52.3861
52.4014
52.4167
52.4321
52.4474
52.4629
52.4782
52.4938
52.5091
52.5248
52.5401
52.5559
52.5711
52.587
52.6022
52.6182
52.6333
52.6495
52.6645
52.6808
52.6957
52.7121
52.727
52.7435
52.7582
52.7748
52.7896
52.8064
52.8209
50.6722
50.6875
50.6927
50.6958
50.6991
50.7029
50.7069
50.711
50.7152
50.7196
50.7241
50.7286
50.7332
50.7378
50.7425
50.7473
50.7522
50.7571
50.7621
50.7671
50.7723
50.7775
50.7827
50.7881
50.7935
50.799
50.8045
50.8102
50.8158
50.8216
50.8274
50.8333
50.8393
50.8454
50.8515
50.8577
50.864
50.8703
50.8768
50.8833
50.8898
50.8965
50.9032
50.91
50.9169
50.9238
50.9308
50.9379
50.9451
50.9524
50.9597
50.9671
50.9746
50.9821
50.9897
50.9975
51.0053
51.0131
51.0211
51.0291
51.0372
51.0454
51.0537
51.062
51.0704
51.0789
51.0875
51.0962
51.1049
51.1137
51.1226
51.1316
51.1407
51.1498
51.159
51.1683
51.1777
51.1871
51.1966
51.2063
51.216
51.2258
51.2356
51.2456
51.2556
51.2657
51.2759
51.2861
51.2965
51.3069
51.3174
51.3279
51.3386
51.3493
51.3601
51.371
51.382
51.393
51.4041
51.4154
51.4267
51.438
51.4495
51.461
51.4726
51.4842
51.4959
51.5078
51.5197
51.5315
51.5434
51.5554
51.5675
51.5799
51.5923
51.6046
51.6169
51.6292
51.6414
51.6536
51.6658
51.6784
51.6915
51.7049
51.7185
51.7325
51.7468
51.7611
51.775
51.7883
51.801
51.8134
51.8257
51.838
51.8505
51.8633
51.8763
51.8895
51.9029
51.9165
51.9302
51.9441
51.958
51.9721
51.9862
52.0004
52.0147
52.029
52.0434
52.0579
52.0724
52.0869
52.1015
52.1161
52.1308
52.1455
52.1603
52.1751
52.1899
52.2048
52.2197
52.2346
52.2496
52.2647
52.2797
52.2948
52.3099
52.3251
52.3403
52.3555
52.3708
52.3861
52.4014
52.4167
52.4321
52.4474
52.4629
52.4782
52.4938
52.5091
52.5248
52.5401
52.5559
52.5711
52.587
52.6022
52.6182
52.6333
52.6495
52.6645
52.6808
52.6957
52.7122
52.7269
52.7435
52.7582
52.7749
52.7897
52.8067
52.8223
50.6294
50.6575
50.6677
50.6735
50.678
50.6821
50.6863
50.6905
50.6948
50.6991
50.7036
50.7081
50.7126
50.7173
50.722
50.7268
50.7316
50.7366
50.7416
50.7466
50.7518
50.757
50.7622
50.7676
50.773
50.7784
50.784
50.7896
50.7952
50.801
50.8068
50.8128
50.8188
50.8248
50.831
50.8372
50.8435
50.8499
50.8563
50.8628
50.8694
50.876
50.8827
50.8895
50.8963
50.9033
50.9103
50.9174
50.9246
50.9318
50.9392
50.9466
50.9541
50.9616
50.9693
50.977
50.9848
50.9928
51.0007
51.0088
51.0169
51.0252
51.0335
51.0419
51.0504
51.059
51.0676
51.0763
51.0851
51.0939
51.1028
51.1118
51.1209
51.13
51.1392
51.1485
51.1578
51.1673
51.1768
51.1864