/*--------------------------------*- C++ -*----------------------------------*\
| =========                 |                                                 |
| \\      /  F ield         | OpenFOAM: The Open Source CFD Toolbox           |
|  \\    /   O peration     | Version:  3.0.x                                 |
|   \\  /    A nd           | Web:      www.OpenFOAM.org                      |
|    \\/     M anipulation  |                                                 |
\*---------------------------------------------------------------------------*/
FoamFile
{
    version     2.0;
    format      ascii;
    class       volScalarField;
    location    "0.43995";
    object      T;
}
// * * * * * * * * * * * * * * * * * * * * * * * * * * * * * * * * * * * * * //

dimensions      [0 0 0 1 0 0 0];

internalField   nonuniform List<scalar> 
13800
(
773.273
773.273
773.273
773.273
773.273
773.273
773.273
773.273
773.273
773.273
773.273
773.273
773.273
773.272
773.272
773.272
773.272
773.272
773.272
773.272
773.272
773.272
773.272
773.272
773.272
773.272
773.272
773.272
773.272
773.272
773.272
773.272
773.272
773.272
773.272
773.272
773.272
773.272
773.272
773.272
773.272
773.273
773.273
773.273
773.273
773.273
773.272
773.271
773.27
773.269
773.269
773.268
773.268
773.268
773.268
773.268
773.269
773.269
773.269
773.269
773.269
773.268
773.268
773.268
773.268
773.267
773.267
773.266
773.265
773.264
773.263
773.262
773.261
773.261
773.261
773.261
773.261
773.261
773.261
773.261
773.261
773.261
773.261
773.261
773.26
773.259
773.258
773.258
773.257
773.257
773.256
773.256
773.256
773.256
773.256
773.256
773.256
773.256
773.255
773.255
773.255
773.255
773.256
773.256
773.256
773.256
773.256
773.256
773.256
773.256
773.256
773.256
773.256
773.257
773.257
773.257
773.257
773.257
773.258
773.258
773.258
773.258
773.259
773.259
773.259
773.26
773.26
773.261
773.261
773.262
773.262
773.263
773.264
773.265
773.265
773.266
773.267
773.268
773.269
773.271
773.272
773.273
773.275
773.276
773.278
773.28
773.281
773.283
773.285
773.288
773.29
773.292
773.295
773.298
773.3
773.303
773.306
773.31
773.313
773.317
773.321
773.325
773.329
773.333
773.338
773.342
773.347
773.352
773.358
773.363
773.369
773.375
773.381
773.388
773.394
773.401
773.408
773.415
773.423
773.431
773.439
773.447
773.456
773.465
773.474
773.483
773.493
773.503
773.513
773.524
773.534
773.545
773.556
773.569
773.579
773.594
773.604
773.627
773.639
773.848
773.26
773.26
773.26
773.26
773.26
773.26
773.26
773.26
773.26
773.26
773.26
773.26
773.26
773.26
773.26
773.26
773.26
773.26
773.26
773.26
773.26
773.26
773.26
773.26
773.26
773.26
773.26
773.26
773.26
773.26
773.26
773.26
773.26
773.26
773.26
773.26
773.26
773.26
773.26
773.261
773.261
773.261
773.262
773.262
773.262
773.262
773.261
773.26
773.259
773.258
773.258
773.258
773.257
773.257
773.258
773.258
773.258
773.258
773.258
773.258
773.258
773.258
773.258
773.258
773.258
773.257
773.257
773.256
773.255
773.254
773.253
773.252
773.252
773.251
773.251
773.251
773.251
773.251
773.252
773.252
773.252
773.252
773.252
773.252
773.251
773.251
773.25
773.249
773.249
773.248
773.248
773.248
773.247
773.247
773.247
773.247
773.247
773.247
773.247
773.247
773.247
773.247
773.247
773.247
773.247
773.248
773.248
773.248
773.248
773.248
773.248
773.248
773.248
773.248
773.248
773.249
773.249
773.249
773.249
773.249
773.25
773.25
773.25
773.251
773.251
773.251
773.252
773.252
773.253
773.254
773.254
773.255
773.256
773.256
773.257
773.258
773.259
773.26
773.261
773.262
773.264
773.265
773.266
773.268
773.269
773.271
773.273
773.275
773.277
773.279
773.282
773.284
773.287
773.289
773.292
773.295
773.298
773.301
773.305
773.309
773.312
773.316
773.32
773.325
773.329
773.334
773.339
773.344
773.349
773.355
773.361
773.367
773.373
773.379
773.386
773.393
773.4
773.407
773.415
773.423
773.431
773.439
773.448
773.456
773.466
773.475
773.485
773.495
773.505
773.515
773.526
773.537
773.548
773.561
773.571
773.586
773.595
773.619
773.63
773.869
773.26
773.26
773.26
773.26
773.26
773.26
773.26
773.26
773.26
773.26
773.26
773.26
773.26
773.26
773.26
773.26
773.26
773.26
773.26
773.26
773.26
773.26
773.26
773.26
773.26
773.26
773.26
773.26
773.26
773.26
773.26
773.26
773.26
773.26
773.26
773.26
773.26
773.26
773.26
773.261
773.261
773.261
773.262
773.262
773.262
773.262
773.261
773.26
773.259
773.258
773.258
773.257
773.257
773.257
773.257
773.258
773.258
773.258
773.258
773.258
773.258
773.258
773.258
773.258
773.258
773.257
773.257
773.256
773.255
773.254
773.253
773.252
773.252
773.251
773.251
773.251
773.251
773.251
773.252
773.252
773.252
773.252
773.252
773.252
773.251
773.25
773.25
773.249
773.248
773.248
773.248
773.248
773.247
773.247
773.247
773.247
773.247
773.247
773.247
773.247
773.247
773.247
773.247
773.247
773.247
773.248
773.248
773.248
773.248
773.248
773.248
773.248
773.248
773.248
773.248
773.249
773.249
773.249
773.249
773.249
773.25
773.25
773.25
773.251
773.251
773.251
773.252
773.252
773.253
773.254
773.254
773.255
773.256
773.256
773.257
773.258
773.259
773.26
773.261
773.262
773.264
773.265
773.266
773.268
773.269
773.271
773.273
773.275
773.277
773.279
773.282
773.284
773.286
773.289
773.292
773.295
773.298
773.301
773.305
773.309
773.312
773.316
773.32
773.325
773.329
773.334
773.339
773.344
773.349
773.355
773.361
773.367
773.373
773.379
773.386
773.393
773.4
773.407
773.415
773.423
773.431
773.439
773.448
773.456
773.466
773.475
773.485
773.495
773.505
773.515
773.526
773.537
773.548
773.561
773.571
773.586
773.595
773.619
773.63
773.862
773.26
773.26
773.26
773.26
773.26
773.26
773.26
773.26
773.26
773.26
773.26
773.26
773.26
773.26
773.26
773.26
773.26
773.26
773.26
773.26
773.26
773.26
773.26
773.26
773.26
773.26
773.26
773.26
773.26
773.26
773.26
773.26
773.26
773.26
773.26
773.26
773.26
773.26
773.26
773.261
773.261
773.261
773.262
773.262
773.262
773.262
773.261
773.26
773.259
773.258
773.258
773.258
773.257
773.257
773.258
773.258
773.258
773.258
773.258
773.258
773.258
773.258
773.258
773.258
773.258
773.257
773.257
773.256
773.255
773.254
773.253
773.252
773.252
773.251
773.251
773.251
773.251
773.251
773.252
773.252
773.252
773.252
773.252
773.252
773.251
773.25
773.25
773.249
773.248
773.248
773.248
773.248
773.247
773.247
773.247
773.247
773.247
773.247
773.247
773.247
773.247
773.247
773.247
773.247
773.247
773.248
773.248
773.248
773.248
773.248
773.248
773.248
773.248
773.248
773.248
773.249
773.249
773.249
773.249
773.249
773.25
773.25
773.25
773.251
773.251
773.251
773.252
773.252
773.253
773.254
773.254
773.255
773.256
773.256
773.257
773.258
773.259
773.26
773.261
773.262
773.264
773.265
773.266
773.268
773.269
773.271
773.273
773.275
773.277
773.279
773.282
773.284
773.286
773.289
773.292
773.295
773.298
773.301
773.305
773.309
773.312
773.316
773.32
773.325
773.329
773.334
773.339
773.344
773.349
773.355
773.361
773.367
773.373
773.379
773.386
773.393
773.4
773.407
773.415
773.423
773.431
773.439
773.448
773.456
773.466
773.475
773.485
773.495
773.505
773.515
773.526
773.537
773.548
773.561
773.571
773.586
773.595
773.617
773.629
773.806
773.26
773.26
773.26
773.26
773.26
773.26
773.26
773.26
773.26
773.26
773.26
773.26
773.26
773.26
773.26
773.26
773.26
773.26
773.26
773.26
773.26
773.26
773.26
773.26
773.26
773.26
773.26
773.26
773.26
773.26
773.26
773.26
773.26
773.26
773.26
773.26
773.26
773.26
773.26
773.261
773.261
773.261
773.262
773.262
773.262
773.262
773.261
773.26
773.259
773.258
773.258
773.258
773.257
773.257
773.258
773.258
773.258
773.258
773.258
773.258
773.258
773.258
773.258
773.258
773.258
773.257
773.257
773.256
773.255
773.254
773.253
773.252
773.252
773.251
773.251
773.251
773.251
773.251
773.252
773.252
773.252
773.252
773.252
773.252
773.251
773.251
773.25
773.249
773.248
773.248
773.248
773.248
773.247
773.247
773.247
773.247
773.247
773.247
773.247
773.247
773.247
773.247
773.247
773.247
773.247
773.248
773.248
773.248
773.248
773.248
773.248
773.248
773.248
773.248
773.248
773.249
773.249
773.249
773.249
773.249
773.25
773.25
773.25
773.251
773.251
773.251
773.252
773.252
773.253
773.254
773.254
773.255
773.256
773.256
773.257
773.258
773.259
773.26
773.261
773.262
773.264
773.265
773.266
773.268
773.269
773.271
773.273
773.275
773.277
773.279
773.282
773.284
773.286
773.289
773.292
773.295
773.298
773.301
773.305
773.309
773.312
773.316
773.32
773.325
773.329
773.334
773.339
773.344
773.349
773.355
773.361
773.367
773.373
773.379
773.386
773.393
773.4
773.407
773.415
773.423
773.431
773.439
773.448
773.456
773.466
773.475
773.485
773.495
773.505
773.515
773.526
773.537
773.548
773.561
773.571
773.585
773.595
773.615
773.623
773.744
773.26
773.26
773.26
773.26
773.26
773.26
773.26
773.26
773.26
773.26
773.26
773.26
773.26
773.26
773.26
773.26
773.26
773.26
773.26
773.26
773.26
773.26
773.26
773.26
773.26
773.26
773.26
773.26
773.26
773.26
773.26
773.26
773.26
773.26
773.26
773.26
773.26
773.26
773.26
773.261
773.261
773.261
773.262
773.262
773.262
773.262
773.261
773.26
773.259
773.258
773.258
773.258
773.257
773.257
773.258
773.258
773.258
773.258
773.258
773.258
773.258
773.258
773.258
773.258
773.258
773.257
773.257
773.256
773.255
773.254
773.253
773.252
773.252
773.251
773.251
773.251
773.251
773.251
773.252
773.252
773.252
773.252
773.252
773.252
773.251
773.251
773.25
773.249
773.248
773.248
773.248
773.248
773.247
773.247
773.247
773.247
773.247
773.247
773.247
773.247
773.247
773.247
773.247
773.247
773.247
773.248
773.248
773.248
773.248
773.248
773.248
773.248
773.248
773.248
773.248
773.249
773.249
773.249
773.249
773.249
773.25
773.25
773.25
773.251
773.251
773.251
773.252
773.252
773.253
773.254
773.254
773.255
773.256
773.256
773.257
773.258
773.259
773.26
773.261
773.262
773.264
773.265
773.266
773.268
773.269
773.271
773.273
773.275
773.277
773.279
773.282
773.284
773.286
773.289
773.292
773.295
773.298
773.301
773.305
773.309
773.312
773.316
773.32
773.325
773.329
773.334
773.339
773.344
773.349
773.355
773.361
773.367
773.373
773.379
773.386
773.393
773.4
773.407
773.415
773.423
773.431
773.439
773.448
773.456
773.466
773.475
773.485
773.495
773.505
773.515
773.526
773.537
773.548
773.56
773.572
773.585
773.594
773.609
773.621
773.605
773.26
773.26
773.26
773.26
773.26
773.26
773.26
773.26
773.26
773.26
773.26
773.26
773.26
773.26
773.26
773.26
773.26
773.26
773.26
773.26
773.26
773.26
773.26
773.26
773.26
773.26
773.26
773.26
773.26
773.26
773.26
773.26
773.26
773.26
773.26
773.26
773.26
773.26
773.26
773.261
773.261
773.261
773.262
773.262
773.262
773.262
773.261
773.26
773.259
773.258
773.258
773.258
773.257
773.257
773.258
773.258
773.258
773.258
773.258
773.258
773.258
773.258
773.258
773.258
773.258
773.257
773.257
773.256
773.255
773.254
773.253
773.252
773.252
773.251
773.251
773.251
773.251
773.251
773.252
773.252
773.252
773.252
773.252
773.252
773.251
773.25
773.25
773.249
773.248
773.248
773.248
773.248
773.247
773.247
773.247
773.247
773.247
773.247
773.247
773.247
773.247
773.247
773.247
773.247
773.247
773.248
773.248
773.248
773.248
773.248
773.248
773.248
773.248
773.248
773.248
773.249
773.249
773.249
773.249
773.249
773.25
773.25
773.25
773.251
773.251
773.251
773.252
773.252
773.253
773.254
773.254
773.255
773.256
773.256
773.257
773.258
773.259
773.26
773.261
773.262
773.264
773.265
773.266
773.268
773.269
773.271
773.273
773.275
773.277
773.279
773.282
773.284
773.286
773.289
773.292
773.295
773.298
773.301
773.305
773.309
773.312
773.316
773.32
773.325
773.329
773.334
773.339
773.344
773.349
773.355
773.361
773.367
773.373
773.379
773.386
773.393
773.4
773.407
773.415
773.423
773.431
773.439
773.448
773.456
773.466
773.475
773.485
773.494
773.505
773.515
773.526
773.537
773.548
773.559
773.573
773.581
773.599
773.604
773.614
773.413
773.26
773.26
773.26
773.26
773.26
773.26
773.26
773.26
773.26
773.26
773.26
773.26
773.26
773.26
773.26
773.26
773.26
773.26
773.26
773.26
773.26
773.26
773.26
773.26
773.26
773.26
773.26
773.26
773.26
773.26
773.26
773.26
773.26
773.26
773.26
773.26
773.26
773.26
773.26
773.261
773.261
773.261
773.262
773.262
773.262
773.262
773.261
773.26
773.259
773.258
773.258
773.257
773.257
773.257
773.257
773.258
773.258
773.258
773.258
773.258
773.258
773.258
773.258
773.258
773.258
773.257
773.257
773.256
773.255
773.254
773.253
773.252
773.252
773.251
773.251
773.251
773.251
773.251
773.252
773.252
773.252
773.252
773.252
773.252
773.251
773.25
773.25
773.249
773.248
773.248
773.248
773.248
773.247
773.247
773.247
773.247
773.247
773.247
773.247
773.247
773.247
773.247
773.247
773.247
773.247
773.248
773.248
773.248
773.248
773.248
773.248
773.248
773.248
773.248
773.248
773.249
773.249
773.249
773.249
773.249
773.25
773.25
773.25
773.251
773.251
773.251
773.252
773.252
773.253
773.254
773.254
773.255
773.256
773.256
773.257
773.258
773.259
773.26
773.261
773.262
773.264
773.265
773.266
773.268
773.269
773.271
773.273
773.275
773.277
773.279
773.282
773.284
773.286
773.289
773.292
773.295
773.298
773.301
773.305
773.309
773.312
773.316
773.32
773.325
773.329
773.334
773.339
773.344
773.349
773.355
773.361
773.367
773.373
773.379
773.386
773.393
773.4
773.407
773.415
773.423
773.431
773.439
773.448
773.456
773.466
773.475
773.485
773.494
773.505
773.515
773.526
773.537
773.549
773.559
773.573
773.581
773.6
773.601
773.631
773.14
773.26
773.26
773.26
773.26
773.26
773.26
773.26
773.26
773.26
773.26
773.26
773.26
773.26
773.26
773.26
773.26
773.26
773.26
773.26
773.26
773.26
773.26
773.26
773.26
773.26
773.26
773.26
773.26
773.26
773.26
773.26
773.26
773.26
773.26
773.26
773.26
773.26
773.26
773.26
773.261
773.261
773.261
773.262
773.262
773.262
773.262
773.261
773.26
773.259
773.258
773.258
773.258
773.257
773.257
773.258
773.258
773.258
773.258
773.258
773.258
773.258
773.258
773.258
773.258
773.258
773.257
773.257
773.256
773.255
773.254
773.253
773.252
773.252
773.251
773.251
773.251
773.251
773.251
773.252
773.252
773.252
773.252
773.252
773.252
773.251
773.251
773.25
773.249
773.249
773.248
773.248
773.248
773.247
773.247
773.247
773.247
773.247
773.247
773.247
773.247
773.247
773.247
773.247
773.247
773.247
773.248
773.248
773.248
773.248
773.248
773.248
773.248
773.248
773.248
773.248
773.249
773.249
773.249
773.249
773.249
773.25
773.25
773.25
773.251
773.251
773.251
773.252
773.252
773.253
773.254
773.254
773.255
773.256
773.256
773.257
773.258
773.259
773.26
773.261
773.262
773.264
773.265
773.266
773.268
773.269
773.271
773.273
773.275
773.277
773.279
773.282
773.284
773.287
773.289
773.292
773.295
773.298
773.301
773.305
773.309
773.312
773.316
773.32
773.325
773.329
773.334
773.339
773.344
773.349
773.355
773.361
773.367
773.373
773.379
773.386
773.393
773.4
773.407
773.415
773.423
773.431
773.439
773.448
773.456
773.466
773.475
773.485
773.494
773.505
773.515
773.526
773.537
773.549
773.559
773.573
773.581
773.6
773.6
773.644
773.005
773.273
773.273
773.273
773.273
773.273
773.273
773.273
773.273
773.273
773.273
773.273
773.273
773.273
773.272
773.272
773.272
773.272
773.272
773.272
773.272
773.272
773.272
773.272
773.272
773.272
773.272
773.272
773.272
773.272
773.272
773.272
773.272
773.272
773.272
773.272
773.272
773.272
773.272
773.272
773.272
773.272
773.273
773.273
773.273
773.273
773.273
773.272
773.271
773.27
773.269
773.269
773.268
773.268
773.268
773.268
773.268
773.269
773.269
773.269
773.269
773.269
773.268
773.268
773.268
773.268
773.267
773.267
773.266
773.265
773.264
773.263
773.262
773.261
773.261
773.261
773.261
773.261
773.261
773.261
773.261
773.261
773.261
773.261
773.261
773.26
773.259
773.258
773.258
773.257
773.257
773.256
773.256
773.256
773.256
773.256
773.256
773.256
773.256
773.255
773.255
773.255
773.255
773.256
773.256
773.256
773.256
773.256
773.256
773.256
773.256
773.256
773.256
773.256
773.257
773.257
773.257
773.257
773.257
773.258
773.258
773.258
773.258
773.259
773.259
773.259
773.26
773.26
773.261
773.261
773.262
773.262
773.263
773.264
773.265
773.265
773.266
773.267
773.268
773.269
773.271
773.272
773.273
773.275
773.276
773.278
773.28
773.281
773.283
773.285
773.288
773.29
773.292
773.295
773.298
773.3
773.303
773.306
773.31
773.313
773.317
773.321
773.325
773.329
773.333
773.338
773.342
773.347
773.352
773.358
773.363
773.369
773.375
773.381
773.388
773.394
773.401
773.408
773.415
773.423
773.431
773.439
773.447
773.456
773.465
773.474
773.483
773.493
773.503
773.513
773.523
773.534
773.545
773.557
773.567
773.582
773.59
773.609
773.606
773.665
772.885
773.824
773.86
773.886
773.896
773.905
773.911
773.915
773.919
773.922
773.925
773.928
773.93
773.931
773.931
773.931
773.927
773.922
773.911
773.892
773.851
773.815
773.842
773.857
773.865
773.87
773.874
773.876
773.878
773.88
773.881
773.882
773.884
773.884
773.884
773.883
773.879
773.874
773.862
773.845
773.808
773.813
773.84
773.86
773.866
773.872
773.877
773.881
773.885
773.887
773.889
773.89
773.89
773.89
773.888
773.885
773.879
773.871
773.857
773.836
773.802
773.769
773.784
773.791
773.796
773.801
773.805
773.81
773.814
773.819
773.824
773.83
773.836
773.843
773.849
773.855
773.858
773.857
773.851
773.837
773.816
773.721
773.74
773.755
773.768
773.776
773.783
773.787
773.787
773.786
773.781
773.776
773.769
773.759
773.748
773.737
773.724
773.713
773.703
773.694
773.687
773.619
773.613
773.601
773.594
773.588
773.588
773.591
773.596
773.603
773.613
773.627
773.644
773.665
773.683
773.705
773.725
773.748
773.763
773.782
773.789
773.502
773.495
773.498
773.503
773.506
773.503
773.503
773.494
773.488
773.473
773.462
773.443
773.431
773.413
773.403
773.391
773.392
773.397
773.414
773.432
773.34
773.298
773.261
773.241
773.232
773.228
773.229
773.233
773.243
773.259
773.279
773.302
773.329
773.359
773.392
773.424
773.472
773.509
773.566
773.617
773.236
773.194
773.15
773.126
773.105
773.093
773.079
773.073
773.065
773.065
773.067
773.072
773.083
773.098
773.117
773.135
773.168
773.208
773.266
773.338
773.179
773.118
773.048
773.024
773.006
773.008
773.017
773.027
773.045
773.07
773.1
773.131
773.169
773.209
773.251
773.296
773.348
773.409
773.484
773.566
773.738
773.707
773.712
773.717
773.727
773.74
773.753
773.765
773.778
773.792
773.806
773.82
773.834
773.848
773.862
773.877
773.892
773.907
773.922
773.938
773.954
773.97
773.986
774.003
774.019
774.036
774.053
774.07
774.087
774.104
774.122
774.14
774.159
774.177
774.196
774.215
774.234
774.253
774.273
774.293
774.313
774.334
774.355
774.375
774.396
774.417
774.438
774.46
774.482
774.504
774.527
774.549
774.572
774.595
774.618
774.642
774.665
774.689
774.714
774.738
774.763
774.788
774.813
774.838
774.863
774.889
774.915
774.942
774.969
774.996
775.024
775.051
775.079
775.107
775.135
775.163
775.191
775.22
775.249
775.278
775.308
775.337
775.367
775.397
775.427
775.458
775.489
775.521
775.552
775.584
775.616
775.648
775.68
775.713
775.746
775.779
775.812
775.846
775.879
775.912
775.946
775.98
776.014
776.049
776.084
776.118
776.151
776.182
776.213
776.244
776.276
776.311
776.347
776.382
776.415
776.442
776.466
776.502
776.576
776.772
777.249
777.833
778.406
778.922
779.349
779.672
779.885
779.996
780.029
780.016
779.882
779.405
778.796
778.293
777.905
777.631
777.461
777.376
777.346
777.343
777.35
777.38
777.445
777.509
777.569
777.624
777.676
777.726
777.774
777.821
777.867
777.913
777.958
778.003
778.048
778.092
778.137
778.182
778.227
778.272
778.317
778.361
778.406
778.451
778.497
778.542
778.587
778.632
778.678
778.723
778.769
778.814
778.86
778.905
778.951
778.997
779.043
779.089
779.136
779.18
779.229
779.271
779.323
779.362
779.416
779.454
779.509
779.546
779.603
779.638
779.696
779.73
779.79
779.822
779.883
779.914
779.976
780.004
780.088
779.951
773.708
773.68
773.686
773.69
773.701
773.714
773.726
773.739
773.752
773.766
773.779
773.793
773.807
773.821
773.836
773.851
773.865
773.88
773.895
773.911
773.927
773.943
773.959
773.976
773.993
774.009
774.026
774.043
774.06
774.077
774.095
774.113
774.131
774.15
774.169
774.187
774.206
774.226
774.245
774.265
774.286
774.306
774.327
774.348
774.369
774.39
774.411
774.432
774.454
774.476
774.499
774.521
774.544
774.567
774.591
774.614
774.638
774.661
774.686
774.71
774.735
774.76
774.785
774.81
774.836
774.861
774.887
774.913
774.94
774.967
774.995
775.022
775.05
775.078
775.106
775.134
775.163
775.192
775.221
775.25
775.279
775.309
775.339
775.369
775.399
775.429
775.46
775.492
775.523
775.555
775.587
775.619
775.652
775.684
775.717
775.75
775.784
775.817
775.851
775.885
775.919
775.954
775.988
776.023
776.057
776.091
776.125
776.159
776.193
776.227
776.263
776.3
776.337
776.375
776.407
776.431
776.45
776.464
776.474
776.488
776.506
776.525
776.542
776.562
776.604
776.7
776.837
776.985
777.129
777.255
777.358
777.433
777.481
777.503
777.506
777.492
777.454
777.434
777.432
777.434
777.443
777.468
777.505
777.546
777.59
777.634
777.679
777.725
777.77
777.815
777.86
777.905
777.95
777.995
778.04
778.084
778.129
778.174
778.219
778.264
778.308
778.353
778.398
778.443
778.488
778.534
778.579
778.624
778.67
778.715
778.761
778.806
778.852
778.897
778.943
778.989
779.035
779.081
779.128
779.172
779.221
779.263
779.315
779.354
779.408
779.446
779.501
779.538
779.595
779.63
779.688
779.722
779.782
779.814
779.875
779.906
779.968
779.996
780.076
779.98
773.711
773.685
773.69
773.695
773.706
773.719
773.731
773.743
773.757
773.77
773.784
773.798
773.812
773.826
773.841
773.855
773.87
773.885
773.9
773.916
773.931
773.947
773.964
773.98
773.997
774.014
774.031
774.047
774.065
774.082
774.1
774.118
774.136
774.154
774.173
774.192
774.211
774.23
774.25
774.27
774.29
774.311
774.332
774.352
774.373
774.394
774.416
774.437
774.459
774.481
774.503
774.526
774.549
774.572
774.595
774.619
774.642
774.666
774.69
774.715
774.739
774.764
774.789
774.815
774.84
774.866
774.892
774.918
774.945
774.972
774.999
775.027
775.055
775.083
775.111
775.139
775.167
775.196
775.225
775.254
775.284
775.313
775.343
775.373
775.403
775.434
775.465
775.496
775.528
775.559
775.591
775.623
775.656
775.689
775.721
775.755
775.788
775.822
775.856
775.89
775.924
775.958
775.993
776.028
776.063
776.097
776.132
776.166
776.2
776.234
776.268
776.304
776.343
776.382
776.419
776.449
776.469
776.477
776.474
776.454
776.44
776.439
776.442
776.454
776.47
776.492
776.537
776.628
776.744
776.867
776.985
777.089
777.18
777.254
777.311
777.354
777.386
777.409
777.428
777.447
777.47
777.497
777.528
777.564
777.602
777.643
777.685
777.729
777.773
777.817
777.861
777.906
777.951
777.995
778.04
778.085
778.129
778.174
778.219
778.264
778.308
778.353
778.398
778.443
778.488
778.534
778.579
778.624
778.67
778.715
778.761
778.806
778.852
778.897
778.943
778.989
779.035
779.081
779.127
779.172
779.221
779.263
779.315
779.354
779.408
779.446
779.501
779.538
779.595
779.63
779.688
779.722
779.782
779.814
779.875
779.906
779.968
779.996
780.072
780.022
773.753
773.744
773.753
773.759
773.771
773.784
773.797
773.811
773.825
773.838
773.852
773.866
773.88
773.894
773.909
773.923
773.938
773.953
773.968
773.984
774
774.016
774.032
774.049
774.065
774.082
774.099
774.116
774.133
774.151
774.168
774.186
774.205
774.223
774.241
774.26
774.279
774.299
774.318
774.338
774.359
774.379
774.4
774.421
774.442
774.463
774.484
774.506
774.527
774.549
774.572
774.594
774.617
774.64
774.663
774.687
774.711
774.735
774.759
774.783
774.808
774.833
774.858
774.883
774.908
774.934
774.96
774.987
775.014
775.041
775.068
775.095
775.123
775.151
775.179
775.207
775.236
775.264
775.293
775.322
775.352
775.381
775.411
775.441
775.472
775.503
775.533
775.565
775.596
775.628
775.659
775.692
775.724
775.756
775.789
775.822
775.855
775.887
775.921
775.955
775.989
776.023
776.056
776.089
776.121
776.154
776.186
776.218
776.251
776.286
776.323
776.36
776.396
776.43
776.459
776.477
776.488
776.497
776.504
776.513
776.531
776.551
776.571
776.596
776.633
776.683
776.745
776.814
776.884
776.953
777.017
777.077
777.132
777.181
777.226
777.266
777.302
777.338
777.373
777.408
777.445
777.483
777.523
777.564
777.606
777.648
777.691
777.735
777.778
777.822
777.866
777.91
777.954
777.998
778.042
778.087
778.131
778.175
778.22
778.264
778.309
778.354
778.399
778.444
778.489
778.534
778.579
778.624
778.67
778.715
778.761
778.806
778.852
778.898
778.943
778.989
779.035
779.081
779.127
779.172
779.221
779.263
779.314
779.355
779.406
779.449
779.498
779.541
779.593
779.63
779.688
779.722
779.781
779.815
779.874
779.907
779.968
779.997
780.062
780.078
773.669
773.672
773.675
773.682
773.69
773.701
773.712
773.725
773.738
773.751
773.765
773.778
773.792
773.807
773.821
773.836
773.851
773.866
773.881
773.896
773.912
773.928
773.944
773.96
773.977
773.994
774.011
774.028
774.046
774.063
774.081
774.099
774.117
774.135
774.154
774.173
774.192
774.211
774.231
774.251
774.271
774.291
774.312
774.332
774.353
774.375
774.396
774.418
774.44
774.462
774.484
774.507
774.529
774.552
774.576
774.599
774.623
774.647
774.671
774.696
774.72
774.745
774.77
774.796
774.821
774.847
774.873
774.9
774.926
774.953
774.98
775.007
775.035
775.063
775.091
775.119
775.148
775.177
775.206
775.235
775.265
775.294
775.325
775.355
775.385
775.416
775.447
775.478
775.51
775.541
775.574
775.606
775.638
775.671
775.704
775.737
775.771
775.805
775.839
775.873
775.908
775.943
775.978
776.014
776.05
776.086
776.121
776.158
776.193
776.23
776.266
776.302
776.339
776.377
776.416
776.455
776.493
776.526
776.556
776.583
776.61
776.637
776.665
776.695
776.728
776.765
776.806
776.852
776.899
776.948
776.997
777.045
777.091
777.137
777.181
777.225
777.268
777.31
777.353
777.395
777.437
777.48
777.522
777.565
777.608
777.651
777.694
777.737
777.781
777.824
777.868
777.911
777.955
777.999
778.043
778.087
778.131
778.176
778.22
778.265
778.309
778.354
778.399
778.444
778.489
778.534
778.579
778.624
778.67
778.715
778.761
778.806
778.852
778.897
778.943
778.989
779.035
779.081
779.127
779.173
779.219
779.266
779.31
779.359
779.403
779.45
779.498
779.541
779.592
779.634
779.683
779.728
779.774
779.824
779.864
779.918
779.959
780.005
780.053
780.094
773.818
773.844
773.867
773.887
773.904
773.919
773.933
773.946
773.96
773.973
773.987
774.001
774.015
774.029
774.044
774.058
774.073
774.088
774.103
774.119
774.134
774.15
774.167
774.183
774.2
774.217
774.234
774.251
774.269
774.286
774.304
774.321
774.34
774.358
774.376
774.395
774.414
774.433
774.453
774.473
774.494
774.514
774.535
774.555
774.576
774.597
774.619
774.64
774.662
774.684
774.707
774.729
774.752
774.775
774.798
774.821
774.845
774.869
774.893
774.917
774.942
774.966
774.991
775.017
775.042
775.068
775.094
775.12
775.147
775.174
775.201
775.228
775.256
775.283
775.311
775.339
775.367
775.396
775.424
775.453
775.481
775.51
775.539
775.568
775.597
775.627
775.657
775.687
775.717
775.746
775.775
775.805
775.835
775.865
775.896
775.926
775.957
775.988
776.018
776.047
776.076
776.105
776.134
776.164
776.194
776.226
776.259
776.294
776.33
776.365
776.397
776.427
776.451
776.47
776.486
776.501
776.515
776.531
776.549
776.573
776.599
776.627
776.656
776.688
776.722
776.761
776.804
776.851
776.9
776.95
777
777.049
777.097
777.144
777.19
777.234
777.278
777.321
777.363
777.406
777.448
777.49
777.532
777.574
777.616
777.658
777.7
777.743
777.786
777.828
777.871
777.915
777.958
778.001
778.045
778.089
778.133
778.177
778.221
778.265
778.31
778.355
778.399
778.444
778.489
778.534
778.579
778.624
778.67
778.715
778.761
778.806
778.852
778.898
778.943
778.989
779.035
779.082
779.126
779.174
779.218
779.267
779.309
779.36
779.401
779.454
779.493
779.547
779.585
779.641
779.677
779.734
779.769
779.828
779.861
779.921
779.954
780.015
780.048
780.121
773.52
773.552
773.568
773.578
773.589
773.601
773.614
773.627
773.64
773.653
773.666
773.68
773.694
773.708
773.723
773.737
773.752
773.767
773.782
773.798
773.814
773.829
773.846
773.862
773.878
773.895
773.912
773.929
773.946
773.964
773.982
774
774.019
774.037
774.056
774.075
774.094
774.113
774.133
774.152
774.172
774.193
774.213
774.234
774.255
774.276
774.298
774.319
774.341
774.363
774.385
774.408
774.431
774.454
774.478
774.501
774.525
774.549
774.573
774.597
774.622
774.647
774.672
774.698
774.724
774.75
774.776
774.803
774.829
774.856
774.883
774.91
774.938
774.966
774.994
775.023
775.051
775.08
775.109
775.138
775.168
775.197
775.227
775.257
775.287
775.318
775.349
775.38
775.411
775.443
775.474
775.507
775.539
775.572
775.605
775.638
775.671
775.705
775.739
775.773
775.807
775.842
775.877
775.912
775.947
775.984
776.02
776.055
776.091
776.129
776.169
776.208
776.246
776.282
776.319
776.358
776.398
776.441
776.485
776.531
776.578
776.62
776.656
776.689
776.72
776.745
776.767
776.791
776.821
776.861
776.911
776.967
777.026
777.085
777.142
777.197
777.249
777.299
777.347
777.394
777.439
777.484
777.527
777.571
777.614
777.657
777.7
777.742
777.785
777.828
777.871
777.915
777.958
778.001
778.045
778.089
778.133
778.177
778.221
778.265
778.31
778.355
778.399
778.444
778.489
778.534
778.579
778.624
778.67
778.715
778.761
778.806
778.852
778.898
778.943
778.989
779.035
779.082
779.126
779.174
779.218
779.267
779.309
779.36
779.401
779.453
779.493
779.547
779.585
779.64
779.677
779.734
779.769
779.828
779.861
779.921
779.954
780.016
780.052
780.12
773.79
773.839
773.864
773.882
773.897
773.911
773.925
773.938
773.952
773.965
773.979
773.993
774.007
774.021
774.035
774.05
774.065
774.08
774.095
774.111
774.126
774.142
774.158
774.174
774.191
774.208
774.225
774.243
774.26
774.278
774.296
774.314
774.332
774.35
774.368
774.387
774.406
774.425
774.444
774.464
774.484
774.505
774.525
774.546
774.568
774.589
774.61
774.632
774.653
774.675
774.698
774.72
774.743
774.766
774.789
774.812
774.835
774.859
774.883
774.907
774.931
774.955
774.979
775.004
775.028
775.053
775.079
775.104
775.13
775.157
775.184
775.211
775.238
775.266
775.295
775.323
775.352
775.381
775.41
775.439
775.468
775.497
775.527
775.557
775.587
775.617
775.647
775.677
775.707
775.738
775.769
775.799
775.83
775.859
775.888
775.917
775.946
775.974
776.003
776.033
776.063
776.094
776.126
776.158
776.192
776.225
776.259
776.295
776.332
776.369
776.405
776.437
776.465
776.487
776.504
776.517