/*--------------------------------*- C++ -*----------------------------------*\
| =========                 |                                                 |
| \\      /  F ield         | OpenFOAM: The Open Source CFD Toolbox           |
|  \\    /   O peration     | Version:  3.0.x                                 |
|   \\  /    A nd           | Web:      www.OpenFOAM.org                      |
|    \\/     M anipulation  |                                                 |
\*---------------------------------------------------------------------------*/
FoamFile
{
    version     2.0;
    format      ascii;
    class       volVectorField;
    location    "0.43995";
    object      U;
}
// * * * * * * * * * * * * * * * * * * * * * * * * * * * * * * * * * * * * * //

dimensions      [0 1 -1 0 0 0 0];

internalField   nonuniform List<vector> 
13800
(
(57.8962 0.00014247 0)
(57.8926 0.000123995 0)
(57.889 0.000122705 0)
(57.8853 0.000124788 0)
(57.8816 0.000126575 0)
(57.8779 0.000128074 0)
(57.8742 0.000129326 0)
(57.8705 0.000130361 0)
(57.8668 0.000131219 0)
(57.8631 0.000131935 0)
(57.8594 0.000132537 0)
(57.8557 0.000133045 0)
(57.852 0.000133479 0)
(57.8483 0.00013385 0)
(57.8446 0.000134168 0)
(57.8409 0.000134441 0)
(57.8372 0.000134678 0)
(57.8335 0.000134883 0)
(57.8298 0.000135061 0)
(57.8261 0.000135215 0)
(57.8223 0.000135348 0)
(57.8186 0.000135466 0)
(57.8149 0.000135568 0)
(57.8111 0.000135656 0)
(57.8074 0.000135733 0)
(57.8036 0.0001358 0)
(57.7999 0.000135858 0)
(57.7961 0.000135908 0)
(57.7924 0.00013595 0)
(57.7886 0.000135985 0)
(57.7849 0.000136018 0)
(57.7811 0.000136043 0)
(57.7773 0.000136064 0)
(57.7735 0.000136081 0)
(57.7698 0.000136095 0)
(57.766 0.000136107 0)
(57.7622 0.000136115 0)
(57.7584 0.000136112 0)
(57.7547 0.000136112 0)
(57.7509 0.000136153 0)
(57.7471 0.000136133 0)
(57.7433 0.000136133 0)
(57.7395 0.000136134 0)
(57.7357 0.000136127 0)
(57.7319 0.000136125 0)
(57.7281 0.000136122 0)
(57.7243 0.000136188 0)
(57.7205 0.00013611 0)
(57.7167 0.000136131 0)
(57.7129 0.000136131 0)
(57.7091 0.000136129 0)
(57.7053 0.000136126 0)
(57.7015 0.000136122 0)
(57.6977 0.000136105 0)
(57.6939 0.000136107 0)
(57.6901 0.000136133 0)
(57.6863 0.000136109 0)
(57.6825 0.000136101 0)
(57.6787 0.000136084 0)
(57.675 0.000136083 0)
(57.6712 0.000136133 0)
(57.6674 0.000136054 0)
(57.6636 0.000136073 0)
(57.6598 0.000136069 0)
(57.6561 0.000136064 0)
(57.6523 0.000136057 0)
(57.6485 0.000136049 0)
(57.6447 0.000136038 0)
(57.641 0.000136024 0)
(57.6372 0.000136005 0)
(57.6334 0.000135978 0)
(57.6296 0.000135941 0)
(57.6259 0.000135889 0)
(57.6221 0.000135819 0)
(57.6184 0.000135723 0)
(57.6146 0.000135593 0)
(57.6108 0.000135418 0)
(57.6071 0.000135177 0)
(57.6033 0.000134946 0)
(57.5996 0.000134545 0)
(57.5959 0.000134075 0)
(57.5921 0.000133473 0)
(57.5884 0.000132747 0)
(57.5847 0.000131932 0)
(57.5811 0.000130827 0)
(57.5775 0.000129537 0)
(57.5738 0.000128038 0)
(57.5703 0.00012628 0)
(57.5668 0.000124246 0)
(57.5633 0.00012192 0)
(57.5599 0.000119288 0)
(57.5566 0.00011634 0)
(57.5533 0.000113074 0)
(57.5501 0.000109493 0)
(57.547 0.000105605 0)
(57.5441 0.000101428 0)
(57.5412 9.69831e-05 0)
(57.5384 9.2304e-05 0)
(57.5358 8.74254e-05 0)
(57.5332 8.23831e-05 0)
(57.5308 7.72295e-05 0)
(57.5286 7.19946e-05 0)
(57.5264 6.67542e-05 0)
(57.5244 6.15381e-05 0)
(57.5224 5.6399e-05 0)
(57.5206 5.13816e-05 0)
(57.5189 4.65275e-05 0)
(57.5173 4.18732e-05 0)
(57.5158 3.74497e-05 0)
(57.5144 3.32826e-05 0)
(57.513 2.9391e-05 0)
(57.5117 2.5788e-05 0)
(57.5104 2.24806e-05 0)
(57.5091 1.94702e-05 0)
(57.5079 1.67531e-05 0)
(57.5067 1.4321e-05 0)
(57.5054 1.2162e-05 0)
(57.5042 1.0261e-05 0)
(57.5029 8.60088e-06 0)
(57.5016 7.16268e-06 0)
(57.5002 5.92675e-06 0)
(57.4987 4.87311e-06 0)
(57.4972 3.98202e-06 0)
(57.4955 3.23438e-06 0)
(57.4938 2.61211e-06 0)
(57.4919 2.09833e-06 0)
(57.4899 1.6776e-06 0)
(57.4877 1.33594e-06 0)
(57.4854 1.06089e-06 0)
(57.4829 8.41527e-07 0)
(57.4802 6.68319e-07 0)
(57.4773 5.33075e-07 0)
(57.4742 4.2882e-07 0)
(57.4709 3.49641e-07 0)
(57.4674 2.90598e-07 0)
(57.4636 2.47608e-07 0)
(57.4595 2.17318e-07 0)
(57.4551 1.96995e-07 0)
(57.4504 1.84445e-07 0)
(57.4454 1.77938e-07 0)
(57.4401 1.7612e-07 0)
(57.4344 1.77946e-07 0)
(57.4284 1.82635e-07 0)
(57.4219 1.89581e-07 0)
(57.4151 1.98346e-07 0)
(57.4078 2.08586e-07 0)
(57.4 2.20058e-07 0)
(57.3919 2.32567e-07 0)
(57.3832 2.45981e-07 0)
(57.374 2.60198e-07 0)
(57.3643 2.75145e-07 0)
(57.3541 2.90775e-07 0)
(57.3433 3.07049e-07 0)
(57.3319 3.23944e-07 0)
(57.3199 3.41443e-07 0)
(57.3073 3.59533e-07 0)
(57.294 3.78208e-07 0)
(57.2801 3.97457e-07 0)
(57.2656 4.17274e-07 0)
(57.2503 4.37656e-07 0)
(57.2343 4.58603e-07 0)
(57.2175 4.80105e-07 0)
(57.2 5.02163e-07 0)
(57.1817 5.24765e-07 0)
(57.1627 5.47895e-07 0)
(57.1428 5.71556e-07 0)
(57.122 5.95721e-07 0)
(57.1004 6.20385e-07 0)
(57.078 6.45513e-07 0)
(57.0546 6.71105e-07 0)
(57.0304 6.97139e-07 0)
(57.0052 7.23598e-07 0)
(56.9791 7.50476e-07 0)
(56.952 7.77743e-07 0)
(56.924 8.05386e-07 0)
(56.895 8.33393e-07 0)
(56.865 8.61753e-07 0)
(56.834 8.90465e-07 0)
(56.8019 9.19521e-07 0)
(56.7688 9.48907e-07 0)
(56.7347 9.78594e-07 0)
(56.6995 1.00858e-06 0)
(56.6632 1.03884e-06 0)
(56.6258 1.06939e-06 0)
(56.5873 1.10021e-06 0)
(56.5477 1.13134e-06 0)
(56.507 1.16281e-06 0)
(56.4651 1.19509e-06 0)
(56.4221 1.23021e-06 0)
(56.3779 1.27937e-06 0)
(56.3325 1.39519e-06 0)
(56.286 1.85166e-06 0)
(56.2381 4.01547e-06 0)
(56.1888 1.45085e-05 0)
(56.1368 6.50714e-05 0)
(56.0768 0.000306865 0)
(55.9833 0.00145523 0)
(55.7356 0.00688244 0)
(55.0683 0.036151 0)
(49.1961 0.141117 0)
(57.9001 0.000222423 0)
(57.9004 0.000161889 0)
(57.9007 0.000149598 0)
(57.9009 0.000147506 0)
(57.9011 0.000145701 0)
(57.9013 0.000144286 0)
(57.9015 0.000143214 0)
(57.9017 0.00014235 0)
(57.9019 0.000141634 0)
(57.9021 0.000141033 0)
(57.9023 0.000140526 0)
(57.9025 0.000140092 0)
(57.9027 0.000139722 0)
(57.9029 0.000139404 0)
(57.9031 0.000139126 0)
(57.9033 0.000138885 0)
(57.9035 0.000138675 0)
(57.9036 0.000138492 0)
(57.9038 0.000138335 0)
(57.904 0.00013819 0)
(57.9041 0.000138067 0)
(57.9043 0.00013796 0)
(57.9045 0.000137865 0)
(57.9046 0.000137781 0)
(57.9048 0.000137707 0)
(57.9049 0.000137642 0)
(57.905 0.000137585 0)
(57.9052 0.000137535 0)
(57.9053 0.00013749 0)
(57.9055 0.000137447 0)
(57.9056 0.000137419 0)
(57.9057 0.000137387 0)
(57.9058 0.00013736 0)
(57.9059 0.000137334 0)
(57.906 0.000137317 0)
(57.9062 0.000137302 0)
(57.9063 0.000137286 0)
(57.9064 0.000137257 0)
(57.9065 0.000137238 0)
(57.9066 0.000137296 0)
(57.9067 0.000137252 0)
(57.9067 0.000137248 0)
(57.9068 0.000137247 0)
(57.9069 0.000137235 0)
(57.907 0.000137237 0)
(57.9071 0.000137232 0)
(57.9072 0.000137355 0)
(57.9073 0.000137225 0)
(57.9074 0.000137277 0)
(57.9074 0.000137287 0)
(57.9075 0.000137297 0)
(57.9076 0.000137308 0)
(57.9077 0.000137318 0)
(57.9078 0.000137305 0)
(57.9079 0.000137326 0)
(57.908 0.000137392 0)
(57.908 0.000137366 0)
(57.9081 0.000137374 0)
(57.9082 0.000137367 0)
(57.9083 0.000137389 0)
(57.9084 0.000137501 0)
(57.9085 0.000137372 0)
(57.9086 0.000137437 0)
(57.9087 0.000137454 0)
(57.9088 0.000137468 0)
(57.9089 0.00013748 0)
(57.909 0.000137492 0)
(57.9091 0.0001375 0)
(57.9092 0.000137505 0)
(57.9093 0.000137504 0)
(57.9095 0.000137495 0)
(57.9096 0.000137475 0)
(57.9097 0.000137439 0)
(57.9098 0.000137381 0)
(57.9099 0.000137296 0)
(57.91 0.000137175 0)
(57.9101 0.000136998 0)
(57.9102 0.000136736 0)
(57.9103 0.000136549 0)
(57.9104 0.000136104 0)
(57.9105 0.00013561 0)
(57.9106 0.00013496 0)
(57.9107 0.00013419 0)
(57.9108 0.00013337 0)
(57.9109 0.00013215 0)
(57.911 0.000130782 0)
(57.911 0.000129193 0)
(57.9111 0.000127322 0)
(57.9112 0.000125163 0)
(57.9112 0.000122698 0)
(57.9112 0.000119914 0)
(57.9113 0.000116806 0)
(57.9113 0.00011337 0)
(57.9113 0.000109614 0)
(57.9113 0.000105548 0)
(57.9113 0.000101194 0)
(57.9112 9.65751e-05 0)
(57.9112 9.17305e-05 0)
(57.9111 8.67e-05 0)
(57.911 8.15151e-05 0)
(57.9109 7.62394e-05 0)
(57.9107 7.08884e-05 0)
(57.9106 6.55656e-05 0)
(57.9103 6.02835e-05 0)
(57.9101 5.50997e-05 0)
(57.9098 5.00586e-05 0)
(57.9095 4.52007e-05 0)
(57.9092 4.05614e-05 0)
(57.9088 3.61698e-05 0)
(57.9084 3.20493e-05 0)
(57.9079 2.82168e-05 0)
(57.9073 2.46831e-05 0)
(57.9067 2.14525e-05 0)
(57.9061 1.8524e-05 0)
(57.9054 1.58915e-05 0)
(57.9046 1.35449e-05 0)
(57.9037 1.14704e-05 0)
(57.9028 9.65143e-06 0)
(57.9018 8.06951e-06 0)
(57.9007 6.70489e-06 0)
(57.8994 5.53723e-06 0)
(57.8981 4.54618e-06 0)
(57.8967 3.7118e-06 0)
(57.8951 3.01506e-06 0)
(57.8935 2.43802e-06 0)
(57.8917 1.96411e-06 0)
(57.8897 1.57828e-06 0)
(57.8876 1.26696e-06 0)
(57.8853 1.01819e-06 0)
(57.8828 8.21473e-07 0)
(57.8801 6.67746e-07 0)
(57.8773 5.49225e-07 0)
(57.8742 4.59311e-07 0)
(57.8709 3.92432e-07 0)
(57.8673 3.43973e-07 0)
(57.8635 3.10172e-07 0)
(57.8594 2.8796e-07 0)
(57.8551 2.74887e-07 0)
(57.8504 2.69011e-07 0)
(57.8454 2.68815e-07 0)
(57.84 2.73124e-07 0)
(57.8344 2.8103e-07 0)
(57.8283 2.91828e-07 0)
(57.8218 3.04998e-07 0)
(57.815 3.20137e-07 0)
(57.8077 3.36945e-07 0)
(57.8 3.55186e-07 0)
(57.7918 3.74685e-07 0)
(57.7831 3.95309e-07 0)
(57.7739 4.16958e-07 0)
(57.7642 4.39578e-07 0)
(57.754 4.63098e-07 0)
(57.7432 4.87493e-07 0)
(57.7318 5.1273e-07 0)
(57.7198 5.38794e-07 0)
(57.7072 5.65663e-07 0)
(57.694 5.93336e-07 0)
(57.6801 6.21796e-07 0)
(57.6655 6.51031e-07 0)
(57.6502 6.81038e-07 0)
(57.6342 7.11801e-07 0)
(57.6175 7.4332e-07 0)
(57.6 7.75581e-07 0)
(57.5817 8.08567e-07 0)
(57.5626 8.42258e-07 0)
(57.5427 8.76632e-07 0)
(57.522 9.11667e-07 0)
(57.5004 9.47341e-07 0)
(57.4779 9.83613e-07 0)
(57.4546 1.02046e-06 0)
(57.4304 1.05786e-06 0)
(57.4052 1.09579e-06 0)
(57.3791 1.13422e-06 0)
(57.352 1.17311e-06 0)
(57.324 1.21245e-06 0)
(57.295 1.25222e-06 0)
(57.265 1.29239e-06 0)
(57.234 1.33299e-06 0)
(57.2019 1.37398e-06 0)
(57.1689 1.41535e-06 0)
(57.1347 1.45707e-06 0)
(57.0995 1.4991e-06 0)
(57.0632 1.54145e-06 0)
(57.0259 1.58413e-06 0)
(56.9874 1.62712e-06 0)
(56.9478 1.67051e-06 0)
(56.9071 1.71466e-06 0)
(56.8652 1.76135e-06 0)
(56.8222 1.81944e-06 0)
(56.778 1.93247e-06 0)
(56.7327 2.30431e-06 0)
(56.6861 3.90598e-06 0)
(56.6383 1.13969e-05 0)
(56.589 4.72415e-05 0)
(56.5371 0.000219444 0)
(56.4771 0.00104267 0)
(56.3837 0.00495335 0)
(56.1368 0.0234014 0)
(55.4682 0.120117 0)
(49.9122 0.442916 0)
(57.9001 0.000163202 0)
(57.9004 0.000113254 0)
(57.9007 0.000107491 0)
(57.9009 0.000110526 0)
(57.9011 0.000111549 0)
(57.9013 0.000112015 0)
(57.9015 0.000112415 0)
(57.9017 0.000112742 0)
(57.9019 0.000113007 0)
(57.9021 0.000113229 0)
(57.9023 0.000113419 0)
(57.9025 0.000113584 0)
(57.9027 0.000113724 0)
(57.9029 0.000113852 0)
(57.9031 0.000113962 0)
(57.9033 0.00011406 0)
(57.9035 0.000114148 0)
(57.9037 0.000114226 0)
(57.9038 0.000114301 0)
(57.904 0.000114353 0)
(57.9042 0.000114417 0)
(57.9044 0.000114468 0)
(57.9045 0.000114515 0)
(57.9047 0.000114558 0)
(57.9048 0.000114599 0)
(57.905 0.000114631 0)
(57.9051 0.000114665 0)
(57.9053 0.000114696 0)
(57.9054 0.000114723 0)
(57.9056 0.000114742 0)
(57.9057 0.000114776 0)
(57.9058 0.000114794 0)
(57.906 0.000114813 0)
(57.9061 0.000114826 0)
(57.9062 0.00011485 0)
(57.9063 0.000114869 0)
(57.9064 0.000114882 0)
(57.9065 0.000114883 0)
(57.9067 0.00011489 0)
(57.9068 0.000114955 0)
(57.9069 0.000114938 0)
(57.907 0.000114953 0)
(57.9071 0.000114967 0)
(57.9072 0.000114971 0)
(57.9073 0.000114986 0)
(57.9074 0.000114991 0)
(57.9075 0.000115097 0)
(57.9076 0.000115009 0)
(57.9077 0.000115058 0)
(57.9078 0.000115073 0)
(57.9079 0.000115088 0)
(57.908 0.000115103 0)
(57.908 0.000115119 0)
(57.9081 0.000115114 0)
(57.9083 0.000115134 0)
(57.9084 0.000115193 0)
(57.9085 0.000115175 0)
(57.9086 0.000115187 0)
(57.9087 0.000115186 0)
(57.9088 0.000115209 0)
(57.9089 0.000115305 0)
(57.909 0.000115194 0)
(57.9091 0.000115257 0)
(57.9092 0.000115273 0)
(57.9093 0.000115287 0)
(57.9095 0.000115299 0)
(57.9096 0.00011531 0)
(57.9097 0.000115319 0)
(57.9098 0.000115325 0)
(57.91 0.000115325 0)
(57.9101 0.000115318 0)
(57.9102 0.000115301 0)
(57.9103 0.00011527 0)
(57.9105 0.00011522 0)
(57.9106 0.000115147 0)
(57.9107 0.000115043 0)
(57.9109 0.000114889 0)
(57.911 0.000114657 0)
(57.9111 0.0001145 0)
(57.9112 0.000114112 0)
(57.9113 0.000113685 0)
(57.9115 0.000113124 0)
(57.9116 0.000112459 0)
(57.9117 0.000111746 0)
(57.9118 0.000110682 0)
(57.9119 0.000109523 0)
(57.9119 0.000108151 0)
(57.912 0.00010654 0)
(57.9121 0.000104686 0)
(57.9121 0.000102573 0)
(57.9122 0.00010019 0)
(57.9122 9.75329e-05 0)
(57.9122 9.46009e-05 0)
(57.9122 9.14003e-05 0)
(57.9122 8.79407e-05 0)
(57.9122 8.42426e-05 0)
(57.9121 8.03262e-05 0)
(57.9121 7.62212e-05 0)
(57.912 7.19733e-05 0)
(57.9118 6.75969e-05 0)
(57.9117 6.31531e-05 0)
(57.9115 5.8652e-05 0)
(57.9113 5.41848e-05 0)
(57.9111 4.97591e-05 0)
(57.9108 4.5423e-05 0)
(57.9105 4.12137e-05 0)
(57.9102 3.71646e-05 0)
(57.9098 3.33044e-05 0)
(57.9094 2.96569e-05 0)
(57.909 2.62408e-05 0)
(57.9085 2.30691e-05 0)
(57.9079 2.01498e-05 0)
(57.9073 1.74857e-05 0)
(57.9066 1.5075e-05 0)
(57.9059 1.29118e-05 0)
(57.9051 1.09869e-05 0)
(57.9042 9.28816e-06 0)
(57.9033 7.80128e-06 0)
(57.9022 6.51042e-06 0)
(57.9011 5.39882e-06 0)
(57.8999 4.44931e-06 0)
(57.8986 3.64478e-06 0)
(57.8971 2.9686e-06 0)
(57.8956 2.40489e-06 0)
(57.8939 1.93879e-06 0)
(57.8921 1.55659e-06 0)
(57.8901 1.24586e-06 0)
(57.888 9.95445e-07 0)
(57.8857 7.95496e-07 0)
(57.8832 6.37414e-07 0)
(57.8806 5.13774e-07 0)
(57.8777 4.18227e-07 0)
(57.8746 3.4541e-07 0)
(57.8713 2.90847e-07 0)
(57.8677 2.50879e-07 0)
(57.8639 2.22545e-07 0)
(57.8598 2.03464e-07 0)
(57.8555 1.91735e-07 0)
(57.8508 1.85833e-07 0)
(57.8458 1.84537e-07 0)
(57.8405 1.86884e-07 0)
(57.8348 1.9211e-07 0)
(57.8287 1.99639e-07 0)
(57.8223 2.09015e-07 0)
(57.8154 2.19906e-07 0)
(57.8081 2.32055e-07 0)
(57.8004 2.45268e-07 0)
(57.7922 2.59407e-07 0)
(57.7835 2.74367e-07 0)
(57.7743 2.90063e-07 0)
(57.7646 3.06448e-07 0)
(57.7544 3.2348e-07 0)
(57.7436 3.41131e-07 0)
(57.7322 3.59383e-07 0)
(57.7202 3.78214e-07 0)
(57.7076 3.97624e-07 0)
(57.6944 4.17592e-07 0)
(57.6805 4.38119e-07 0)
(57.6659 4.59199e-07 0)
(57.6506 4.80817e-07 0)
(57.6346 5.02973e-07 0)
(57.6179 5.25659e-07 0)
(57.6004 5.48868e-07 0)
(57.5821 5.72589e-07 0)
(57.563 5.96798e-07 0)
(57.5431 6.2149e-07 0)
(57.5224 6.46643e-07 0)
(57.5008 6.72234e-07 0)
(57.4783 6.98238e-07 0)
(57.455 7.24639e-07 0)
(57.4308 7.5142e-07 0)
(57.4056 7.78561e-07 0)
(57.3795 8.06048e-07 0)
(57.3524 8.33857e-07 0)
(57.3244 8.61968e-07 0)
(57.2954 8.90381e-07 0)
(57.2654 9.19068e-07 0)
(57.2344 9.48057e-07 0)
(57.2023 9.77307e-07 0)
(57.1693 1.00684e-06 0)
(57.1351 1.03662e-06 0)
(57.0999 1.06661e-06 0)
(57.0637 1.09683e-06 0)
(57.0263 1.12728e-06 0)
(56.9878 1.158e-06 0)
(56.9482 1.18906e-06 0)
(56.9075 1.22139e-06 0)
(56.8656 1.25793e-06 0)
(56.8226 1.31636e-06 0)
(56.7784 1.47917e-06 0)
(56.7331 2.14877e-06 0)
(56.6865 5.25568e-06 0)
(56.6387 2.00854e-05 0)
(56.5894 9.11406e-05 0)
(56.5375 0.000432467 0)
(56.4778 0.00206467 0)
(56.3856 0.00982542 0)
(56.1446 0.0464324 0)
(55.4988 0.237058 0)
(50.2573 0.8559 0)
(57.9001 0.000118902 0)
(57.9004 0.000103116 0)
(57.9006 0.000100133 0)
(57.9008 0.000104069 0)
(57.9011 0.000106161 0)
(57.9013 0.00010739 0)
(57.9015 0.000108426 0)
(57.9017 0.000109302 0)
(57.9019 0.000110031 0)
(57.9021 0.000110643 0)
(57.9023 0.000111162 0)
(57.9025 0.000111607 0)
(57.9027 0.00011198 0)
(57.9029 0.000112312 0)
(57.9031 0.000112596 0)
(57.9033 0.000112842 0)
(57.9034 0.000113059 0)
(57.9036 0.000113248 0)
(57.9038 0.000113421 0)
(57.904 0.000113551 0)
(57.9042 0.000113695 0)
(57.9043 0.000113807 0)
(57.9045 0.000113909 0)
(57.9046 0.000114 0)
(57.9048 0.000114083 0)
(57.905 0.000114152 0)
(57.9051 0.000114219 0)
(57.9052 0.000114276 0)
(57.9054 0.000114328 0)
(57.9055 0.00011437 0)
(57.9057 0.000114419 0)
(57.9058 0.000114454 0)
(57.9059 0.000114488 0)
(57.906 0.000114509 0)
(57.9062 0.000114545 0)
(57.9063 0.000114571 0)
(57.9064 0.00011459 0)
(57.9065 0.000114604 0)
(57.9066 0.000114617 0)
(57.9067 0.000114666 0)
(57.9068 0.000114667 0)
(57.9069 0.000114683 0)
(57.907 0.000114698 0)
(57.9071 0.000114707 0)
(57.9072 0.000114724 0)
(57.9073 0.000114733 0)
(57.9074 0.000114803 0)
(57.9075 0.000114761 0)
(57.9076 0.000114791 0)
(57.9077 0.000114806 0)
(57.9078 0.00011482 0)
(57.9079 0.000114834 0)
(57.908 0.000114848 0)
(57.9081 0.000114849 0)
(57.9082 0.000114863 0)
(57.9083 0.000114904 0)
(57.9084 0.000114897 0)
(57.9085 0.000114907 0)
(57.9086 0.000114909 0)
(57.9087 0.000114927 0)
(57.9088 0.000114991 0)
(57.909 0.000114921 0)
(57.9091 0.000114963 0)
(57.9092 0.000114977 0)
(57.9093 0.000114988 0)
(57.9094 0.000114999 0)
(57.9096 0.000115008 0)
(57.9097 0.000115015 0)
(57.9098 0.000115019 0)
(57.9099 0.000115019 0)
(57.9101 0.000115012 0)
(57.9102 0.000114996 0)
(57.9103 0.000114968 0)
(57.9104 0.000114924 0)
(57.9106 0.000114858 0)
(57.9107 0.000114764 0)
(57.9108 0.000114628 0)
(57.911 0.000114421 0)
(57.9111 0.000114263 0)
(57.9112 0.000113925 0)
(57.9113 0.000113536 0)
(57.9114 0.000113033 0)
(57.9115 0.000112428 0)
(57.9116 0.00011175 0)
(57.9117 0.000110798 0)
(57.9118 0.000109726 0)
(57.9119 0.000108457 0)
(57.912 0.000106964 0)
(57.9121 0.000105239 0)
(57.9121 0.000103264 0)
(57.9122 0.00010103 0)
(57.9122 9.85265e-05 0)
(57.9122 9.57529e-05 0)
(57.9122 9.27116e-05 0)
(57.9122 8.94101e-05 0)
(57.9122 8.58641e-05 0)
(57.9121 8.20934e-05 0)
(57.912 7.8115e-05 0)
(57.9119 7.39864e-05 0)
(57.9118 6.97074e-05 0)
(57.9117 6.53399e-05 0)
(57.9115 6.09002e-05 0)
(57.9113 5.64632e-05 0)
(57.9111 5.20472e-05 0)
(57.9108 4.76974e-05 0)
(57.9105 4.3452e-05 0)
(57.9102 3.93461e-05 0)
(57.9098 3.54106e-05 0)
(57.9094 3.16714e-05 0)
(57.909 2.815e-05 0)
(57.9085 2.48623e-05 0)
(57.9079 2.18192e-05 0)
(57.9073 1.90265e-05 0)
(57.9066 1.64851e-05 0)
(57.9059 1.41918e-05 0)
(57.9051 1.21394e-05 0)
(57.9042 1.03177e-05 0)
(57.9033 8.71408e-06 0)
(57.9022 7.31375e-06 0)
(57.9011 6.10081e-06 0)
(57.8999 5.05859e-06 0)
(57.8986 4.17022e-06 0)
(57.8971 3.41899e-06 0)
(57.8956 2.7888e-06 0)
(57.8939 2.26436e-06 0)
(57.8921 1.83144e-06 0)
(57.8901 1.47697e-06 0)
(57.888 1.18916e-06 0)
(57.8857 9.57477e-07 0)
(57.8832 7.72654e-07 0)
(57.8806 6.26638e-07 0)
(57.8777 5.12508e-07 0)
(57.8746 4.24377e-07 0)
(57.8713 3.57303e-07 0)
(57.8677 3.0718e-07 0)
(57.8639 2.70642e-07 0)
(57.8598 2.44923e-07 0)
(57.8555 2.27771e-07 0)
(57.8508 2.17338e-07 0)
(57.8458 2.12149e-07 0)
(57.8405 2.11038e-07 0)
(57.8348 2.1311e-07 0)
(57.8287 2.17675e-07 0)
(57.8223 2.24214e-07 0)
(57.8154 2.32341e-07 0)
(57.8081 2.4177e-07 0)
(57.8004 2.52278e-07 0)
(57.7922 2.63704e-07 0)
(57.7835 2.75928e-07 0)
(57.7743 2.8887e-07 0)
(57.7646 3.02466e-07 0)
(57.7544 3.16669e-07 0)
(57.7436 3.31455e-07 0)
(57.7322 3.468e-07 0)
(57.7202 3.62688e-07 0)
(57.7076 3.79112e-07 0)
(57.6944 3.96063e-07 0)
(57.6805 4.13537e-07 0)
(57.6659 4.31529e-07 0)
(57.6506 4.50035e-07 0)
(57.6346 4.69046e-07 0)
(57.6179 4.88569e-07 0)
(57.6004 5.08598e-07 0)
(57.5821 5.29122e-07 0)
(57.563 5.50128e-07 0)
(57.5431 5.71608e-07 0)
(57.5224 5.93559e-07 0)
(57.5008 6.15962e-07 0)
(57.4783 6.38791e-07 0)
(57.455 6.62035e-07 0)
(57.4308 6.85699e-07 0)
(57.4056 7.0975e-07 0)
(57.3795 7.3419e-07 0)
(57.3524 7.58997e-07 0)
(57.3244 7.84138e-07 0)
(57.2954 8.09635e-07 0)
(57.2654 8.35453e-07 0)
(57.2344 8.61639e-07 0)
(57.2023 8.88147e-07 0)
(57.1693 9.14978e-07 0)
(57.1351 9.42123e-07 0)
(57.0999 9.69561e-07 0)
(57.0637 9.97237e-07 0)
(57.0263 1.02526e-06 0)
(56.9878 1.05366e-06 0)
(56.9482 1.08289e-06 0)
(56.9075 1.11492e-06 0)
(56.8656 1.15869e-06 0)
(56.8226 1.25728e-06 0)
(56.7784 1.61565e-06 0)
(56.7331 3.2357e-06 0)
(56.6865 1.09958e-05 0)
(56.6388 4.83923e-05 0)
(56.5895 0.000228046 0)
(56.5378 0.00109131 0)
(56.479 0.00521734 0)
(56.3913 0.0247694 0)
(56.1741 0.1156 0)
(55.6075 0.542156 0)
(51.6259 1.92854 0)
(57.9001 3.56555e-05 0)
(57.9003 2.77474e-05 0)
(57.9006 1.95171e-05 0)
(57.9008 1.62339e-05 0)
(57.901 1.37018e-05 0)
(57.9012 1.15395e-05 0)
(57.9014 9.84073e-06 0)
(57.9017 8.48043e-06 0)
(57.9019 7.3584e-06 0)
(57.9021 6.41973e-06 0)
(57.9023 5.62686e-06 0)
(57.9025 4.95309e-06 0)
(57.9027 4.36833e-06 0)
(57.9029 3.87132e-06 0)
(57.9031 3.43721e-06 0)
(57.9032 3.05892e-06 0)
(57.9034 2.72866e-06 0)
(57.9036 2.43936e-06 0)
(57.9038 2.1881e-06 0)
(57.904 1.95361e-06 0)
(57.9041 1.76467e-06 0)
(57.9043 1.58738e-06 0)
(57.9045 1.43206e-06 0)
(57.9046 1.29463e-06 0)
(57.9048 1.17305e-06 0)
(57.9049 1.06386e-06 0)
(57.9051 9.68613e-07 0)
(57.9052 8.81872e-07 0)
(57.9054 8.06403e-07 0)
(57.9055 7.37927e-07 0)
(57.9056 6.79172e-07 0)
(57.9058 6.25406e-07 0)
(57.9059 5.78966e-07 0)
(57.906 5.31818e-07 0)
(57.9061 4.98971e-07 0)
(57.9063 4.66422e-07 0)
(57.9064 4.35628e-07 0)
(57.9065 4.08746e-07 0)
(57.9066 3.83192e-07 0)
(57.9067 3.70249e-07 0)
(57.9068 3.48751e-07 0)
(57.9069 3.32185e-07 0)
(57.907 3.18001e-07 0)
(57.9071 3.03547e-07 0)
(57.9072 2.93351e-07 0)
(57.9073 2.81536e-07 0)
(57.9074 2.8666e-07 0)
(57.9075 2.67025e-07 0)
(57.9076 2.63307e-07 0)
(57.9077 2.58329e-07 0)
(57.9078 2.53972e-07 0)
(57.9079 2.50375e-07 0)
(57.908 2.4743e-07 0)
(57.9081 2.42604e-07 0)
(57.9082 2.39704e-07 0)
(57.9083 2.46947e-07 0)
(57.9084 2.40916e-07 0)
(57.9085 2.39316e-07 0)
(57.9086 2.36436e-07 0)
(57.9087 2.38708e-07 0)
(57.9088 2.54277e-07 0)
(57.9089 2.29913e-07 0)
(57.9091 2.39386e-07 0)
(57.9092 2.41482e-07 0)
(57.9093 2.42202e-07 0)
(57.9094 2.43047e-07 0)
(57.9095 2.43835e-07 0)
(57.9097 2.44541e-07 0)
(57.9098 2.45105e-07 0)
(57.9099 2.45436e-07 0)
(57.91 2.45398e-07 0)
(57.9102 2.44816e-07 0)
(57.9103 2.43463e-07 0)
(57.9104 2.41061e-07 0)
(57.9105 2.37305e-07 0)
(57.9107 2.32323e-07 0)
(57.9108 2.22245e-07 0)
(57.9109 1.99536e-07 0)
(57.9111 2.11123e-07 0)
(57.9112 1.8106e-07 0)
(57.9113 1.56103e-07 0)
(57.9114 1.2239e-07 0)
(57.9115 8.78816e-08 0)
(57.9116 6.4755e-08 0)
(57.9117 -5.35727e-10 0)
(57.9118 -5.6055e-08 0)
(57.9119 -1.17909e-07 0)
(57.912 -1.90577e-07 0)
(57.912 -2.70187e-07 0)
(57.9121 -3.56775e-07 0)
(57.9121 -4.49445e-07 0)
(57.9122 -5.46935e-07 0)
(57.9122 -6.47729e-07 0)
(57.9122 -7.50003e-07 0)
(57.9122 -8.51966e-07 0)
(57.9121 -9.51268e-07 0)
(57.9121 -1.04488e-06 0)
(57.912 -1.13735e-06 0)
(57.9119 -1.20978e-06 0)
(57.9118 -1.27989e-06 0)
(57.9117 -1.33429e-06 0)
(57.9115 -1.38009e-06 0)
(57.9113 -1.40589e-06 0)
(57.9111 -1.41847e-06 0)
(57.9108 -1.41644e-06 0)
(57.9105 -1.40009e-06 0)
(57.9102 -1.37019e-06 0)
(57.9098 -1.32795e-06 0)
(57.9094 -1.27488e-06 0)
(57.909 -1.21262e-06 0)
(57.9084 -1.14297e-06 0)
(57.9079 -1.06777e-06 0)
(57.9073 -9.88888e-07 0)
(57.9066 -9.08098e-07 0)
(57.9059 -8.27043e-07 0)
(57.9051 -7.47184e-07 0)
(57.9042 -6.69783e-07 0)
(57.9033 -5.95876e-07 0)
(57.9022 -5.26274e-07 0)
(57.9011 -4.61566e-07 0)
(57.8999 -4.02128e-07 0)
(57.8986 -3.48143e-07 0)
(57.8971 -2.9963e-07 0)
(57.8956 -2.56468e-07 0)
(57.8939 -2.18424e-07 0)
(57.8921 -1.8518e-07 0)
(57.8901 -1.5636e-07 0)
(57.888 -1.31552e-07 0)
(57.8857 -1.10327e-07 0)
(57.8832 -9.22578e-08 0)
(57.8806 -7.69294e-08 0)
(57.8777 -6.39497e-08 0)
(57.8746 -5.29576e-08 0)
(57.8713 -4.36325e-08 0)
(57.8677 -3.56793e-08 0)
(57.8639 -2.8848e-08 0)
(57.8598 -2.29268e-08 0)
(57.8555 -1.77381e-08 0)
(57.8508 -1.31299e-08 0)
(57.8458 -8.96713e-09 0)
(57.8405 -5.1299e-09 0)
(57.8348 -1.51537e-09 0)
(57.8287 1.97185e-09 0)
(57.8223 5.39671e-09 0)
(57.8154 8.81239e-09 0)
(57.8081 1.22672e-08 0)
(57.8004 1.57835e-08 0)
(57.7922 1.93787e-08 0)
(57.7835 2.30692e-08 0)
(57.7743 2.68656e-08 0)
(57.7646 3.07678e-08 0)
(57.7544 3.47728e-08 0)
(57.7436 3.88871e-08 0)
(57.7322 4.31123e-08 0)
(57.7202 4.74467e-08 0)
(57.7076 5.18836e-08 0)
(57.6944 5.64204e-08 0)
(57.6805 6.10661e-08 0)
(57.6659 6.58167e-08 0)
(57.6506 7.0665e-08 0)
(57.6346 7.55986e-08 0)
(57.6179 8.06241e-08 0)
(57.6004 8.57395e-08 0)
(57.5821 9.0938e-08 0)
(57.563 9.62138e-08 0)
(57.5431 1.01557e-07 0)
(57.5224 1.06969e-07 0)
(57.5008 1.12437e-07 0)
(57.4783 1.17954e-07 0)
(57.455 1.23502e-07 0)
(57.4308 1.29106e-07 0)
(57.4056 1.34726e-07 0)
(57.3795 1.40387e-07 0)
(57.3524 1.46062e-07 0)
(57.3244 1.51746e-07 0)
(57.2954 1.57436e-07 0)
(57.2654 1.63131e-07 0)
(57.2344 1.68825e-07 0)
(57.2023 1.74519e-07 0)
(57.1693 1.80192e-07 0)
(57.1351 1.85887e-07 0)
(57.0999 1.91569e-07 0)
(57.0637 1.97184e-07 0)
(57.0263 2.0277e-07 0)
(56.9878 2.08719e-07 0)
(56.9482 2.15044e-07 0)
(56.9075 2.26653e-07 0)
(56.8656 2.54584e-07 0)
(56.8226 3.78225e-07 0)
(56.7784 9.19215e-07 0)
(56.7331 3.60334e-06 0)
(56.6866 1.64303e-05 0)
(56.6388 7.85819e-05 0)
(56.5897 0.000376858 0)
(56.539 0.0018128 0)
(56.4847 0.00869267 0)
(56.4178 0.0414168 0)
(56.2935 0.193762 0)
(56.0133 0.881647 0)
(53.5873 3.1112 0)
(57.9001 -3.56555e-05 0)
(57.9003 -2.77474e-05 0)
(57.9006 -1.95171e-05 0)
(57.9008 -1.62339e-05 0)
(57.901 -1.37018e-05 0)
(57.9012 -1.15395e-05 0)
(57.9014 -9.84073e-06 0)
(57.9017 -8.48043e-06 0)
(57.9019 -7.3584e-06 0)
(57.9021 -6.41973e-06 0)
(57.9023 -5.62686e-06 0)
(57.9025 -4.95309e-06 0)
(57.9027 -4.36833e-06 0)
(57.9029 -3.87132e-06 0)
(57.9031 -3.43721e-06 0)
(57.9032 -3.05892e-06 0)
(57.9034 -2.72866e-06 0)
(57.9036 -2.43936e-06 0)
(57.9038 -2.1881e-06 0)
(57.904 -1.95361e-06 0)
(57.9041 -1.76467e-06 0)
(57.9043 -1.58738e-06 0)
(57.9045 -1.43206e-06 0)
(57.9046 -1.29463e-06 0)
(57.9048 -1.17305e-06 0)
(57.9049 -1.06387e-06 0)
(57.9051 -9.68612e-07 0)
(57.9052 -8.81873e-07 0)
(57.9054 -8.06402e-07 0)
(57.9055 -7.37927e-07 0)
(57.9056 -6.7917e-07 0)
(57.9058 -6.25405e-07 0)
(57.9059 -5.78966e-07 0)
(57.906 -5.31818e-07 0)
(57.9061 -4.98971e-07 0)
(57.9063 -4.66421e-07 0)
(57.9064 -4.35628e-07 0)
(57.9065 -4.08745e-07 0)
(57.9066 -3.83193e-07 0)
(57.9067 -3.7025e-07 0)
(57.9068 -3.48751e-07 0)
(57.9069 -3.32184e-07 0)
(57.907 -3.18e-07 0)
(57.9071 -3.03545e-07 0)
(57.9072 -2.93352e-07 0)
(57.9073 -2.81536e-07 0)
(57.9074 -2.86659e-07 0)
(57.9075 -2.67025e-07 0)
(57.9076 -2.63307e-07 0)
(57.9077 -2.58329e-07 0)
(57.9078 -2.53972e-07 0)
(57.9079 -2.50374e-07 0)
(57.908 -2.47429e-07 0)
(57.9081 -2.42603e-07 0)
(57.9082 -2.39703e-07 0)
(57.9083 -2.46947e-07 0)
(57.9084 -2.40915e-07 0)
(57.9085 -2.39317e-07 0)
(57.9086 -2.36436e-07 0)
(57.9087 -2.38707e-07 0)
(57.9088 -2.54276e-07 0)
(57.9089 -2.29912e-07 0)
(57.9091 -2.39386e-07 0)
(57.9092 -2.41481e-07 0)
(57.9093 -2.42202e-07 0)
(57.9094 -2.43048e-07 0)
(57.9095 -2.43836e-07 0)
(57.9097 -2.44541e-07 0)
(57.9098 -2.45106e-07 0)
(57.9099 -2.45436e-07 0)
(57.91 -2.45398e-07 0)
(57.9102 -2.44816e-07 0)
(57.9103 -2.43462e-07 0)
(57.9104 -2.4106e-07 0)
(57.9105 -2.37305e-07 0)
(57.9107 -2.32323e-07 0)
(57.9108 -2.22246e-07 0)
(57.9109 -1.99537e-07 0)
(57.9111 -2.11124e-07 0)
(57.9112 -1.8106e-07 0)
(57.9113 -1.56104e-07 0)
(57.9114 -1.22391e-07 0)
(57.9115 -8.78828e-08 0)
(57.9116 -6.47557e-08 0)
(57.9117 5.35956e-10 0)
(57.9118 5.60552e-08 0)
(57.9119 1.17908e-07 0)
(57.912 1.90577e-07 0)
(57.912 2.70186e-07 0)
(57.9121 3.56773e-07 0)
(57.9121 4.49445e-07 0)
(57.9122 5.46935e-07 0)
(57.9122 6.47729e-07 0)
(57.9122 7.50003e-07 0)
(57.9122 8.51963e-07 0)
(57.9121 9.51268e-07 0)
(57.9121 1.04488e-06 0)
(57.912 1.13735e-06 0)
(57.9119 1.20978e-06 0)
(57.9118 1.27989e-06 0)
(57.9117 1.33429e-06 0)
(57.9115 1.38009e-06 0)
(57.9113 1.40589e-06 0)
(57.9111 1.41847e-06 0)
(57.9108 1.41644e-06 0)
(57.9105 1.40009e-06 0)
(57.9102 1.37019e-06 0)
(57.9098 1.32795e-06 0)
(57.9094 1.27488e-06 0)
(57.909 1.21262e-06 0)
(57.9084 1.14297e-06 0)
(57.9079 1.06777e-06 0)
(57.9073 9.88888e-07 0)
(57.9066 9.08097e-07 0)
(57.9059 8.27041e-07 0)
(57.9051 7.47184e-07 0)
(57.9042 6.69783e-07 0)
(57.9033 5.95874e-07 0)
(57.9022 5.26273e-07 0)
(57.9011 4.61566e-07 0)
(57.8999 4.02128e-07 0)
(57.8986 3.48142e-07 0)
(57.8971 2.9963e-07 0)
(57.8956 2.56468e-07 0)
(57.8939 2.18424e-07 0)
(57.8921 1.85179e-07 0)
(57.8901 1.56359e-07 0)
(57.888 1.31552e-07 0)
(57.8857 1.10328e-07 0)
(57.8832 9.22592e-08 0)
(57.8806 7.69304e-08 0)
(57.8777 6.39505e-08 0)
(57.8746 5.29589e-08 0)
(57.8713 4.36317e-08 0)
(57.8677 3.56796e-08 0)
(57.8639 2.88491e-08 0)
(57.8598 2.29273e-08 0)
(57.8555 1.77381e-08 0)
(57.8508 1.31295e-08 0)
(57.8458 8.96684e-09 0)
(57.8405 5.13156e-09 0)
(57.8348 1.51193e-09 0)
(57.8287 -1.97019e-09 0)
(57.8223 -5.39133e-09 0)
(57.8154 -8.81573e-09 0)
(57.8081 -1.22679e-08 0)
(57.8004 -1.57798e-08 0)
(57.7922 -1.93811e-08 0)
(57.7835 -2.30767e-08 0)
(57.7743 -2.68675e-08 0)
(57.7646 -3.07615e-08 0)
(57.7544 -3.47675e-08 0)
(57.7436 -3.88854e-08 0)
(57.7322 -4.31102e-08 0)
(57.7202 -4.74428e-08 0)
(57.7076 -5.1884e-08 0)
(57.6944 -5.6429e-08 0)
(57.6805 -6.10719e-08 0)
(57.6659 -6.58129e-08 0)
(57.6506 -7.06565e-08 0)
(57.6346 -7.55969e-08 0)
(57.6179 -8.06286e-08 0)
(57.6004 -8.57437e-08 0)
(57.5821 -9.09406e-08 0)
(57.563 -9.62135e-08 0)
(57.5431 -1.01556e-07 0)
(57.5224 -1.06963e-07 0)
(57.5008 -1.12428e-07 0)
(57.4783 -1.17942e-07 0)
(57.455 -1.23507e-07 0)
(57.4308 -1.29108e-07 0)
(57.4056 -1.3474e-07 0)
(57.3795 -1.40387e-07 0)
(57.3524 -1.46067e-07 0)
(57.3244 -1.51744e-07 0)
(57.2954 -1.57439e-07 0)
(57.2654 -1.63118e-07 0)
(57.2344 -1.68832e-07 0)
(57.2023 -1.74532e-07 0)
(57.1693 -1.80233e-07 0)
(57.1351 -1.85886e-07 0)
(57.0999 -1.91541e-07 0)
(57.0637 -1.97131e-07 0)
(57.0263 -2.02785e-07 0)
(56.9878 -2.07873e-07 0)
(56.9482 -2.13013e-07 0)
(56.9075 -2.1134e-07 0)
(56.8656 -1.9637e-07 0)
(56.8226 -7.34616e-08 0)
(56.7784 4.84486e-07 0)
(56.7331 3.18565e-06 0)
(56.6866 1.59858e-05 0)
(56.6389 7.82257e-05 0)
(56.5901 0.000377463 0)
(56.5405 0.00182488 0)
(56.4918 0.00882197 0)
(56.4514 0.0427879 0)
(56.4486 0.206946 0)
(56.5727 1.00421 0)
(57.1864 3.49646 0)
(57.9001 -0.000118902 0)
(57.9004 -0.000103116 0)
(57.9006 -0.000100133 0)
(57.9008 -0.000104069 0)
(57.9011 -0.000106161 0)
(57.9013 -0.00010739 0)
(57.9015 -0.000108426 0)
(57.9017 -0.000109302 0)
(57.9019 -0.000110031 0)
(57.9021 -0.000110643 0)
(57.9023 -0.000111162 0)
(57.9025 -0.000111607 0)
(57.9027 -0.00011198 0)
(57.9029 -0.000112312 0)
(57.9031 -0.000112596 0)
(57.9033 -0.000112842 0)
(57.9034 -0.000113059 0)
(57.9036 -0.000113248 0)