/*--------------------------------*- C++ -*----------------------------------*\
| =========                 |                                                 |
| \\      /  F ield         | OpenFOAM: The Open Source CFD Toolbox           |
|  \\    /   O peration     | Version:  3.0.x                                 |
|   \\  /    A nd           | Web:      www.OpenFOAM.org                      |
|    \\/     M anipulation  |                                                 |
\*---------------------------------------------------------------------------*/
FoamFile
{
    version     2.0;
    format      ascii;
    class       volVectorField;
    location    "0.3";
    object      U;
}
// * * * * * * * * * * * * * * * * * * * * * * * * * * * * * * * * * * * * * //

dimensions      [0 1 -1 0 0 0 0];

internalField   nonuniform List<vector> 
27600
(
(42.685 0.000288116 0)
(42.6703 0.000241398 0)
(42.6555 0.000238367 0)
(42.6406 0.000240606 0)
(42.6257 0.000242853 0)
(42.6108 0.000244867 0)
(42.596 0.000246627 0)
(42.5811 0.000248203 0)
(42.5662 0.000249519 0)
(42.5514 0.000250698 0)
(42.5365 0.000251769 0)
(42.5216 0.000252774 0)
(42.5068 0.000253555 0)
(42.4919 0.000254369 0)
(42.477 0.000255083 0)
(42.4622 0.000255733 0)
(42.4473 0.000256306 0)
(42.4324 0.000256909 0)
(42.4176 0.000257392 0)
(42.4027 0.00025785 0)
(42.3878 0.000258312 0)
(42.373 0.000258737 0)
(42.3581 0.00025911 0)
(42.3432 0.000259472 0)
(42.3284 0.000259811 0)
(42.3135 0.000260125 0)
(42.2986 0.000260412 0)
(42.2838 0.000260669 0)
(42.2689 0.000260886 0)
(42.254 0.000261054 0)
(42.2392 0.000261151 0)
(42.2243 0.00026115 0)
(42.2095 0.00026099 0)
(42.1947 0.000260712 0)
(42.1799 0.000260103 0)
(42.1652 0.000259154 0)
(42.1505 0.000257785 0)
(42.136 0.000255891 0)
(42.1216 0.000253125 0)
(42.1074 0.000249645 0)
(42.0934 0.000245152 0)
(42.0798 0.00023955 0)
(42.0665 0.000232745 0)
(42.0536 0.000224675 0)
(42.0412 0.000215324 0)
(42.0295 0.000204731 0)
(42.0183 0.000192987 0)
(42.0079 0.000180243 0)
(41.9983 0.000166694 0)
(41.9894 0.000152578 0)
(41.9813 0.000138158 0)
(41.9741 0.00012371 0)
(41.9677 0.000109502 0)
(41.962 9.57883e-05 0)
(41.9571 8.27826e-05 0)
(41.9529 7.06745e-05 0)
(41.9494 5.95906e-05 0)
(41.9464 4.96166e-05 0)
(41.9439 4.07908e-05 0)
(41.9419 3.31078e-05 0)
(41.9403 2.65279e-05 0)
(41.939 2.09811e-05 0)
(41.9379 1.63767e-05 0)
(41.9371 1.26134e-05 0)
(41.9365 9.58363e-06 0)
(41.936 7.18039e-06 0)
(41.9356 5.30182e-06 0)
(41.9353 3.85445e-06 0)
(41.9351 2.75508e-06 0)
(41.9349 1.93164e-06 0)
(41.9347 1.32335e-06 0)
(41.9346 8.7997e-07 0)
(41.9345 5.61074e-07 0)
(41.9344 3.34431e-07 0)
(41.9344 1.75466e-07 0)
(41.9343 6.59648e-08 0)
(41.9342 -7.23302e-09 0)
(41.9341 -5.53464e-08 0)
(41.9341 -8.67962e-08 0)
(41.934 -1.07271e-07 0)
(41.9339 -1.20582e-07 0)
(41.9339 -1.29122e-07 0)
(41.9338 -1.34513e-07 0)
(41.9337 -1.37809e-07 0)
(41.9337 -1.39734e-07 0)
(41.9336 -1.40837e-07 0)
(41.9335 -1.41377e-07 0)
(41.9334 -1.41617e-07 0)
(41.9334 -1.41691e-07 0)
(41.9333 -1.4164e-07 0)
(41.9332 -1.41446e-07 0)
(41.9331 -1.41285e-07 0)
(41.933 -1.41094e-07 0)
(41.9329 -1.40895e-07 0)
(41.9329 -1.40595e-07 0)
(41.9328 -1.40659e-07 0)
(41.9327 -1.40686e-07 0)
(41.9326 -1.40632e-07 0)
(41.9325 -1.40549e-07 0)
(41.9324 -1.40231e-07 0)
(41.9324 -1.3974e-07 0)
(41.9323 -1.39017e-07 0)
(41.9322 -1.38001e-07 0)
(41.9322 -1.3683e-07 0)
(41.9321 -1.35534e-07 0)
(41.9321 -1.34098e-07 0)
(41.9321 -1.32611e-07 0)
(41.9322 -1.31329e-07 0)
(41.9322 -1.28456e-07 0)
(41.9323 -1.27277e-07 0)
(41.9325 -1.25228e-07 0)
(41.9327 -1.2311e-07 0)
(41.933 -1.20762e-07 0)
(41.9333 -1.18197e-07 0)
(41.9337 -1.15561e-07 0)
(41.9342 -1.1266e-07 0)
(41.9348 -1.09565e-07 0)
(41.9355 -1.06429e-07 0)
(41.9363 -1.03024e-07 0)
(41.9373 -9.94565e-08 0)
(41.9383 -9.58491e-08 0)
(41.9395 -9.18995e-08 0)
(41.9408 -8.79894e-08 0)
(41.9423 -8.39321e-08 0)
(41.9439 -7.97131e-08 0)
(41.9457 -7.57593e-08 0)
(41.9476 -7.15638e-08 0)
(41.9497 -6.77713e-08 0)
(41.9519 -6.41476e-08 0)
(41.9543 -6.06212e-08 0)
(41.9569 -5.78459e-08 0)
(41.9595 -5.49651e-08 0)
(41.9624 -5.27545e-08 0)
(41.9653 -5.09608e-08 0)
(41.9684 -4.91525e-08 0)
(41.9716 -4.86289e-08 0)
(41.9748 -4.8321e-08 0)
(41.9782 -4.87267e-08 0)
(41.9815 -5.07394e-08 0)
(41.9849 -5.30174e-08 0)
(41.9884 -5.66231e-08 0)
(41.9918 -6.18081e-08 0)
(41.9951 -6.72774e-08 0)
(41.9984 -7.42117e-08 0)
(42.0016 -8.24052e-08 0)
(42.0046 -9.06912e-08 0)
(42.0075 -1.00518e-07 0)
(42.0103 -1.1099e-07 0)
(42.0128 -1.21281e-07 0)
(42.0151 -1.33418e-07 0)
(42.0172 -1.44889e-07 0)
(42.0189 -1.57083e-07 0)
(42.0204 -1.70066e-07 0)
(42.0216 -1.81953e-07 0)
(42.0224 -1.95726e-07 0)
(42.0229 -2.07995e-07 0)
(42.0231 -2.21723e-07 0)
(42.0228 -2.38855e-07 0)
(42.0222 -2.48584e-07 0)
(42.0211 -2.58183e-07 0)
(42.0197 -2.68822e-07 0)
(42.0179 -2.78639e-07 0)
(42.0157 -2.87685e-07 0)
(42.0132 -2.95955e-07 0)
(42.0103 -3.03486e-07 0)
(42.007 -3.10253e-07 0)
(42.0035 -3.16267e-07 0)
(41.9996 -3.21557e-07 0)
(41.9955 -3.26165e-07 0)
(41.9911 -3.3009e-07 0)
(41.9864 -3.3328e-07 0)
(41.9816 -3.35704e-07 0)
(41.9765 -3.37313e-07 0)
(41.9713 -3.38078e-07 0)
(41.966 -3.38007e-07 0)
(41.9606 -3.37123e-07 0)
(41.9551 -3.3546e-07 0)
(41.9495 -3.33043e-07 0)
(41.944 -3.2987e-07 0)
(41.9384 -3.26e-07 0)
(41.9329 -3.21465e-07 0)
(41.9274 -3.16345e-07 0)
(41.922 -3.10719e-07 0)
(41.9167 -3.04677e-07 0)
(41.9114 -2.98246e-07 0)
(41.9064 -2.91457e-07 0)
(41.9014 -2.8432e-07 0)
(41.8967 -2.76685e-07 0)
(41.892 -2.67702e-07 0)
(41.8876 -2.52853e-07 0)
(41.8834 -2.13015e-07 0)
(41.8793 -3.00466e-08 0)
(41.8754 8.68979e-07 0)
(41.8714 5.2664e-06 0)
(41.8664 2.7094e-05 0)
(41.8558 0.000135135 0)
(41.8178 0.000659825 0)
(41.6499 0.00309299 0)
(41.1764 0.0155697 0)
(36.5705 0.0560538 0)
(42.7002 0.000462905 0)
(42.7007 0.000329777 0)
(42.7011 0.000313402 0)
(42.7014 0.000310389 0)
(42.7018 0.000308052 0)
(42.7021 0.000306192 0)
(42.7024 0.000304661 0)
(42.7027 0.00030342 0)
(42.7029 0.000302194 0)
(42.7032 0.000301131 0)
(42.7035 0.000300196 0)
(42.7038 0.000299422 0)
(42.704 0.000298463 0)
(42.7043 0.00029778 0)
(42.7045 0.000297084 0)
(42.7047 0.000296428 0)
(42.705 0.000295766 0)
(42.7052 0.000295285 0)
(42.7054 0.000294684 0)
(42.7056 0.000294144 0)
(42.7057 0.000293702 0)
(42.7059 0.000293269 0)
(42.7061 0.000292822 0)
(42.7063 0.000292425 0)
(42.7064 0.00029205 0)
(42.7066 0.000291693 0)
(42.7067 0.000291347 0)
(42.7068 0.000291005 0)
(42.7069 0.000290655 0)
(42.707 0.000290278 0)
(42.7071 0.000289848 0)
(42.7072 0.000289329 0)
(42.7073 0.000288627 0)
(42.7074 0.000287853 0)
(42.7075 0.000286646 0)
(42.7076 0.00028506 0)
(42.7076 0.000283009 0)
(42.7077 0.00028038 0)
(42.7078 0.000276617 0)
(42.7079 0.000272136 0)
(42.708 0.000266459 0)
(42.7081 0.00025952 0)
(42.7083 0.000251229 0)
(42.7084 0.000241537 0)
(42.7086 0.00023045 0)
(42.7088 0.000218038 0)
(42.709 0.000204435 0)
(42.7093 0.000189835 0)
(42.7095 0.00017448 0)
(42.7098 0.000158655 0)
(42.7101 0.000142662 0)
(42.7103 0.000126809 0)
(42.7106 0.000111389 0)
(42.7108 9.66673e-05 0)
(42.7111 8.28536e-05 0)
(42.7113 7.01384e-05 0)
(42.7115 5.86252e-05 0)
(42.7116 4.8379e-05 0)
(42.7117 3.94128e-05 0)
(42.7119 3.16934e-05 0)
(42.7119 2.51563e-05 0)
(42.712 1.97065e-05 0)
(42.712 1.52322e-05 0)
(42.712 1.16156e-05 0)
(42.712 8.73633e-06 0)
(42.712 6.47759e-06 0)
(42.7119 4.73133e-06 0)
(42.7119 3.40061e-06 0)
(42.7119 2.40078e-06 0)
(42.7118 1.65986e-06 0)
(42.7117 1.11819e-06 0)
(42.7117 7.27333e-07 0)
(42.7116 4.48856e-07 0)
(42.7115 2.52988e-07 0)
(42.7114 1.16933e-07 0)
(42.7114 2.35298e-08 0)
(42.7113 -3.95418e-08 0)
(42.7112 -8.11313e-08 0)
(42.7111 -1.08039e-07 0)
(42.711 -1.25028e-07 0)
(42.7109 -1.3547e-07 0)
(42.7108 -1.41731e-07 0)
(42.7108 -1.45514e-07 0)
(42.7107 -1.47764e-07 0)
(42.7106 -1.49137e-07 0)
(42.7105 -1.50018e-07 0)
(42.7104 -1.50587e-07 0)
(42.7103 -1.51011e-07 0)
(42.7102 -1.5137e-07 0)
(42.7101 -1.51657e-07 0)
(42.71 -1.5178e-07 0)
(42.7099 -1.5196e-07 0)
(42.7098 -1.52038e-07 0)
(42.7097 -1.52112e-07 0)
(42.7096 -1.52065e-07 0)
(42.7095 -1.52224e-07 0)
(42.7094 -1.52317e-07 0)
(42.7092 -1.52332e-07 0)
(42.7091 -1.52381e-07 0)
(42.709 -1.52238e-07 0)
(42.7089 -1.52042e-07 0)
(42.7088 -1.51704e-07 0)
(42.7088 -1.51139e-07 0)
(42.7087 -1.50528e-07 0)
(42.7086 -1.49771e-07 0)
(42.7086 -1.48803e-07 0)
(42.7086 -1.47645e-07 0)
(42.7086 -1.47021e-07 0)
(42.7086 -1.43208e-07 0)
(42.7087 -1.42669e-07 0)
(42.7089 -1.40299e-07 0)
(42.7091 -1.37692e-07 0)
(42.7093 -1.34565e-07 0)
(42.7096 -1.31039e-07 0)
(42.71 -1.27189e-07 0)
(42.7105 -1.22807e-07 0)
(42.7111 -1.18022e-07 0)
(42.7118 -1.12947e-07 0)
(42.7126 -1.0731e-07 0)
(42.7135 -1.01343e-07 0)
(42.7145 -9.50835e-08 0)
(42.7157 -8.82732e-08 0)
(42.717 -8.13817e-08 0)
(42.7184 -7.41402e-08 0)
(42.72 -6.66743e-08 0)
(42.7218 -5.93803e-08 0)
(42.7237 -5.17785e-08 0)
(42.7257 -4.46086e-08 0)
(42.7279 -3.75408e-08 0)
(42.7303 -3.06626e-08 0)
(42.7329 -2.45209e-08 0)
(42.7355 -1.8391e-08 0)
(42.7383 -1.3032e-08 0)
(42.7413 -8.10591e-09 0)
(42.7443 -3.37018e-09 0)
(42.7475 1.5444e-10 0)
(42.7507 3.43619e-09 0)
(42.754 5.94834e-09 0)
(42.7574 7.10603e-09 0)
(42.7608 7.94621e-09 0)
(42.7642 7.48377e-09 0)
(42.7676 5.47403e-09 0)
(42.7709 2.88158e-09 0)
(42.7742 -1.5707e-09 0)
(42.7773 -7.84964e-09 0)
(42.7804 -1.47677e-08 0)
(42.7832 -2.40381e-08 0)
(42.786 -3.46702e-08 0)
(42.7885 -4.56958e-08 0)
(42.7908 -5.98499e-08 0)
(42.7928 -7.37763e-08 0)
(42.7946 -8.95183e-08 0)
(42.796 -1.07165e-07 0)
(42.7972 -1.23865e-07 0)
(42.798 -1.44302e-07 0)
(42.7985 -1.62692e-07 0)
(42.7986 -1.84265e-07 0)
(42.7983 -2.14023e-07 0)
(42.7977 -2.29979e-07 0)
(42.7966 -2.46178e-07 0)
(42.7951 -2.65051e-07 0)
(42.7933 -2.83036e-07 0)
(42.7911 -3.0021e-07 0)
(42.7885 -3.16525e-07 0)
(42.7856 -3.31903e-07 0)
(42.7823 -3.46282e-07 0)
(42.7787 -3.59607e-07 0)
(42.7748 -3.71831e-07 0)
(42.7707 -3.82966e-07 0)
(42.7662 -3.93009e-07 0)
(42.7616 -4.01888e-07 0)
(42.7567 -4.09489e-07 0)
(42.7516 -4.15756e-07 0)
(42.7464 -4.2067e-07 0)
(42.7411 -4.24219e-07 0)
(42.7356 -4.26403e-07 0)
(42.7301 -4.27258e-07 0)
(42.7245 -4.26829e-07 0)
(42.7189 -4.25138e-07 0)
(42.7133 -4.22194e-07 0)
(42.7078 -4.18092e-07 0)
(42.7022 -4.12944e-07 0)
(42.6968 -4.06862e-07 0)
(42.6915 -3.99951e-07 0)
(42.6862 -3.9227e-07 0)
(42.6811 -3.83862e-07 0)
(42.6762 -3.74673e-07 0)
(42.6714 -3.64186e-07 0)
(42.6667 -3.49568e-07 0)
(42.6623 -3.16168e-07 0)
(42.658 -1.90896e-07 0)
(42.6539 3.72374e-07 0)
(42.6499 3.17028e-06 0)
(42.6459 1.7028e-05 0)
(42.6409 8.58919e-05 0)
(42.6302 0.000426595 0)
(42.5917 0.00208034 0)
(42.4218 0.00973391 0)
(41.9322 0.0478428 0)
(37.42 0.162653 0)
(42.7003 0.000369093 0)
(42.7007 0.000238554 0)
(42.7011 0.000231864 0)
(42.7015 0.000235249 0)
(42.7018 0.000236582 0)
(42.7022 0.000237546 0)
(42.7025 0.000238491 0)
(42.7029 0.000239488 0)
(42.7032 0.000240337 0)
(42.7036 0.00024121 0)
(42.7039 0.000242088 0)
(42.7043 0.000243014 0)
(42.7046 0.00024368 0)
(42.705 0.000244527 0)
(42.7053 0.000245282 0)
(42.7056 0.000246007 0)
(42.706 0.000246663 0)
(42.7063 0.000247426 0)
(42.7067 0.000248018 0)
(42.707 0.000248622 0)
(42.7073 0.000249265 0)
(42.7076 0.000249865 0)
(42.708 0.000250415 0)
(42.7083 0.000250968 0)
(42.7086 0.000251501 0)
(42.7089 0.000252014 0)
(42.7092 0.000252503 0)
(42.7095 0.000252962 0)
(42.7099 0.00025338 0)
(42.7102 0.000253742 0)
(42.7105 0.000254024 0)
(42.7108 0.000254191 0)
(42.7111 0.000254158 0)
(42.7114 0.000254019 0)
(42.7117 0.000253438 0)
(42.712 0.000252473 0)
(42.7123 0.00025103 0)
(42.7126 0.000249001 0)
(42.7128 0.000245873 0)
(42.7131 0.000242039 0)
(42.7134 0.00023704 0)
(42.7137 0.000230832 0)
(42.7139 0.000223336 0)
(42.7141 0.000214517 0)
(42.7144 0.000204394 0)
(42.7146 0.000193049 0)
(42.7148 0.000180619 0)
(42.7149 0.000167298 0)
(42.7151 0.000153327 0)
(42.7152 0.000138974 0)
(42.7153 0.000124525 0)
(42.7154 0.000110266 0)
(42.7155 9.64623e-05 0)
(42.7155 8.33509e-05 0)
(42.7155 7.11141e-05 0)
(42.7155 5.99137e-05 0)
(42.7155 4.983e-05 0)
(42.7155 4.09086e-05 0)
(42.7155 3.31488e-05 0)
(42.7154 2.65086e-05 0)
(42.7154 2.09203e-05 0)
(42.7153 1.62905e-05 0)
(42.7153 1.25132e-05 0)
(42.7152 9.47953e-06 0)
(42.7151 7.07986e-06 0)
(42.7151 5.20961e-06 0)
(42.715 3.7731e-06 0)
(42.7149 2.68575e-06 0)
(42.7148 1.87433e-06 0)
(42.7148 1.27736e-06 0)
(42.7147 8.44376e-07 0)
(42.7146 5.34834e-07 0)
(42.7145 3.16884e-07 0)
(42.7144 1.66171e-07 0)
(42.7144 6.35449e-08 0)
(42.7143 -5.72245e-09 0)
(42.7142 -5.34941e-08 0)
(42.7141 -8.51164e-08 0)
(42.714 -1.06009e-07 0)
(42.7139 -1.1991e-07 0)
(42.7139 -1.29168e-07 0)
(42.7138 -1.35289e-07 0)
(42.7137 -1.39321e-07 0)
(42.7136 -1.41909e-07 0)
(42.7135 -1.43591e-07 0)
(42.7134 -1.44706e-07 0)
(42.7133 -1.45471e-07 0)
(42.7132 -1.46046e-07 0)
(42.7131 -1.46536e-07 0)
(42.713 -1.46982e-07 0)
(42.7129 -1.4729e-07 0)
(42.7128 -1.47673e-07 0)
(42.7127 -1.48006e-07 0)
(42.7126 -1.48427e-07 0)
(42.7125 -1.48978e-07 0)
(42.7124 -1.49496e-07 0)
(42.7123 -1.50151e-07 0)
(42.7122 -1.50755e-07 0)
(42.7121 -1.5141e-07 0)
(42.712 -1.51861e-07 0)
(42.7119 -1.52085e-07 0)
(42.7118 -1.5208e-07 0)
(42.7117 -1.51822e-07 0)
(42.7116 -1.51473e-07 0)
(42.7116 -1.50946e-07 0)
(42.7115 -1.50239e-07 0)
(42.7115 -1.49358e-07 0)
(42.7115 -1.49102e-07 0)
(42.7116 -1.45917e-07 0)
(42.7117 -1.45929e-07 0)
(42.7118 -1.44368e-07 0)
(42.712 -1.42687e-07 0)
(42.7122 -1.40657e-07 0)
(42.7126 -1.38326e-07 0)
(42.713 -1.35754e-07 0)
(42.7134 -1.32775e-07 0)
(42.714 -1.29458e-07 0)
(42.7147 -1.25915e-07 0)
(42.7155 -1.21933e-07 0)
(42.7164 -1.17641e-07 0)
(42.7174 -1.13104e-07 0)
(42.7186 -1.08066e-07 0)
(42.7199 -1.02931e-07 0)
(42.7213 -9.74692e-08 0)
(42.7229 -9.17619e-08 0)
(42.7247 -8.61639e-08 0)
(42.7266 -8.02276e-08 0)
(42.7286 -7.45921e-08 0)
(42.7309 -6.89476e-08 0)
(42.7332 -6.33576e-08 0)
(42.7358 -5.83358e-08 0)
(42.7384 -5.32377e-08 0)
(42.7413 -4.88294e-08 0)
(42.7442 -4.48972e-08 0)
(42.7472 -4.1225e-08 0)
(42.7504 -3.86895e-08 0)
(42.7536 -3.64318e-08 0)
(42.757 -3.48235e-08 0)
(42.7603 -3.43017e-08 0)
(42.7637 -3.39591e-08 0)
(42.7671 -3.44332e-08 0)
(42.7705 -3.58463e-08 0)
(42.7738 -3.74853e-08 0)
(42.7771 -4.01554e-08 0)
(42.7802 -4.36764e-08 0)
(42.7833 -4.73329e-08 0)
(42.7862 -5.22133e-08 0)
(42.7889 -5.78029e-08 0)
(42.7914 -6.37725e-08 0)
(42.7937 -7.19499e-08 0)
(42.7957 -8.02992e-08 0)
(42.7975 -9.02018e-08 0)
(42.7989 -1.0174e-07 0)
(42.8001 -1.12781e-07 0)
(42.8009 -1.26897e-07 0)
(42.8014 -1.39366e-07 0)
(42.8015 -1.54867e-07 0)
(42.8013 -1.79555e-07 0)
(42.8006 -1.91069e-07 0)
(42.7995 -2.03183e-07 0)
(42.798 -2.18212e-07 0)
(42.7962 -2.32869e-07 0)
(42.794 -2.47163e-07 0)
(42.7914 -2.61022e-07 0)
(42.7885 -2.74312e-07 0)
(42.7852 -2.8694e-07 0)
(42.7817 -2.98769e-07 0)
(42.7778 -3.09691e-07 0)
(42.7736 -3.19682e-07 0)
(42.7692 -3.28696e-07 0)
(42.7645 -3.36694e-07 0)
(42.7596 -3.4364e-07 0)
(42.7546 -3.49455e-07 0)
(42.7493 -3.5412e-07 0)
(42.744 -3.57643e-07 0)
(42.7385 -3.60043e-07 0)
(42.733 -3.61334e-07 0)
(42.7274 -3.61539e-07 0)
(42.7218 -3.6069e-07 0)
(42.7162 -3.58798e-07 0)
(42.7107 -3.55938e-07 0)
(42.7052 -3.52179e-07 0)
(42.6997 -3.47621e-07 0)
(42.6944 -3.42371e-07 0)
(42.6891 -3.36454e-07 0)
(42.684 -3.29866e-07 0)
(42.6791 -3.22485e-07 0)
(42.6743 -3.13313e-07 0)
(42.6696 -2.97314e-07 0)
(42.6652 -2.48924e-07 0)
(42.6609 -3.93828e-08 0)
(42.6568 9.61635e-07 0)
(42.6529 5.91789e-06 0)
(42.6489 3.05802e-05 0)
(42.6439 0.000153204 0)
(42.6334 0.000760059 0)
(42.5962 0.00370867 0)
(42.4318 0.0173595 0)
(41.967 0.0849457 0)
(37.5963 0.285279 0)
(42.7002 0.00037519 0)
(42.7007 0.000276274 0)
(42.7011 0.000271759 0)
(42.7015 0.000276033 0)
(42.7018 0.000276916 0)
(42.7022 0.000277081 0)
(42.7025 0.000277106 0)
(42.7029 0.00027707 0)
(42.7032 0.00027682 0)
(42.7036 0.000276554 0)
(42.7039 0.000276279 0)
(42.7043 0.000276051 0)
(42.7046 0.000275593 0)
(42.705 0.000275324 0)
(42.7053 0.000274998 0)
(42.7056 0.000274673 0)
(42.706 0.000274316 0)
(42.7063 0.000274088 0)
(42.7066 0.000273739 0)
(42.707 0.000273431 0)
(42.7073 0.000273193 0)
(42.7076 0.000272948 0)
(42.708 0.000272687 0)
(42.7083 0.000272458 0)
(42.7086 0.000272241 0)
(42.7089 0.000272032 0)
(42.7092 0.000271827 0)
(42.7095 0.000271619 0)
(42.7099 0.000271396 0)
(42.7102 0.000271142 0)
(42.7105 0.000270833 0)
(42.7108 0.000270432 0)
(42.7111 0.00026986 0)
(42.7114 0.000269196 0)
(42.7117 0.000268129 0)
(42.712 0.000266699 0)
(42.7123 0.000264817 0)
(42.7126 0.000262371 0)
(42.7129 0.000258869 0)
(42.7131 0.00025467 0)
(42.7134 0.000249334 0)
(42.7137 0.000242805 0)
(42.7139 0.000234998 0)
(42.7142 0.000225869 0)
(42.7144 0.00021543 0)
(42.7146 0.000203749 0)
(42.7148 0.000190956 0)
(42.7149 0.000177235 0)
(42.7151 0.000162818 0)
(42.7152 0.000147974 0)
(42.7153 0.000132987 0)
(42.7154 0.000118144 0)
(42.7155 0.000103722 0)
(42.7155 8.99646e-05 0)
(42.7155 7.70684e-05 0)
(42.7155 6.52076e-05 0)
(42.7155 5.44769e-05 0)
(42.7155 4.49342e-05 0)
(42.7155 3.65899e-05 0)
(42.7154 2.94109e-05 0)
(42.7154 2.33352e-05 0)
(42.7153 1.8273e-05 0)
(42.7153 1.41192e-05 0)
(42.7152 1.07635e-05 0)
(42.7151 8.09323e-06 0)
(42.7151 5.99942e-06 0)
(42.715 4.38132e-06 0)
(42.7149 3.14886e-06 0)
(42.7148 2.22333e-06 0)
(42.7148 1.53799e-06 0)
(42.7147 1.03748e-06 0)
(42.7146 6.76851e-07 0)
(42.7145 4.20285e-07 0)
(42.7145 2.39398e-07 0)
(42.7144 1.13179e-07 0)
(42.7143 2.68677e-08 0)
(42.7142 -2.82595e-08 0)
(42.7141 -6.53087e-08 0)
(42.714 -8.94413e-08 0)
(42.714 -1.0477e-07 0)
(42.7139 -1.14269e-07 0)
(42.7138 -1.20053e-07 0)
(42.7137 -1.23551e-07 0)
(42.7136 -1.25649e-07 0)
(42.7135 -1.26885e-07 0)
(42.7134 -1.27631e-07 0)
(42.7133 -1.28061e-07 0)
(42.7132 -1.2833e-07 0)
(42.7131 -1.28533e-07 0)
(42.713 -1.28658e-07 0)
(42.7129 -1.28636e-07 0)
(42.7128 -1.28656e-07 0)
(42.7127 -1.28557e-07 0)
(42.7126 -1.28475e-07 0)
(42.7125 -1.28398e-07 0)
(42.7124 -1.2826e-07 0)
(42.7123 -1.28296e-07 0)
(42.7122 -1.28224e-07 0)
(42.7121 -1.28196e-07 0)
(42.712 -1.2804e-07 0)
(42.7119 -1.27746e-07 0)
(42.7118 -1.27348e-07 0)
(42.7117 -1.26778e-07 0)
(42.7116 -1.26186e-07 0)
(42.7116 -1.25482e-07 0)
(42.7115 -1.24615e-07 0)
(42.7115 -1.23592e-07 0)
(42.7115 -1.23092e-07 0)
(42.7116 -1.19799e-07 0)
(42.7117 -1.19458e-07 0)
(42.7118 -1.17598e-07 0)
(42.712 -1.15568e-07 0)
(42.7123 -1.13172e-07 0)
(42.7126 -1.1046e-07 0)
(42.713 -1.07557e-07 0)
(42.7135 -1.04255e-07 0)
(42.714 -1.00643e-07 0)
(42.7147 -9.68729e-08 0)
(42.7155 -9.2678e-08 0)
(42.7164 -8.82137e-08 0)
(42.7174 -8.357e-08 0)
(42.7186 -7.84396e-08 0)
(42.7199 -7.32473e-08 0)
(42.7213 -6.77637e-08 0)
(42.7229 -6.20197e-08 0)
(42.7247 -5.64039e-08 0)
(42.7266 -5.04195e-08 0)
(42.7286 -4.47433e-08 0)
(42.7309 -3.91029e-08 0)
(42.7332 -3.34766e-08 0)
(42.7358 -2.851e-08 0)
(42.7384 -2.34351e-08 0)
(42.7413 -1.90879e-08 0)
(42.7442 -1.52953e-08 0)
(42.7473 -1.1713e-08 0)
(42.7504 -9.55843e-09 0)
(42.7537 -7.742e-09 0)
(42.757 -6.77632e-09 0)
(42.7603 -7.48588e-09 0)
(42.7637 -8.64037e-09 0)
(42.7671 -1.13153e-08 0)
(42.7705 -1.58264e-08 0)
(42.7738 -2.07493e-08 0)
(42.7771 -2.70978e-08 0)
(42.7802 -3.4514e-08 0)
(42.7833 -4.17941e-08 0)
(42.7862 -5.04186e-08 0)
(42.7889 -5.96385e-08 0)
(42.7914 -6.88417e-08 0)
(42.7937 -8.01365e-08 0)
(42.7957 -9.11166e-08 0)
(42.7975 -1.03187e-07 0)
(42.7989 -1.16459e-07 0)
(42.8001 -1.28787e-07 0)
(42.8009 -1.43664e-07 0)
(42.8014 -1.56554e-07 0)
(42.8015 -1.72104e-07 0)
(42.8013 -1.96747e-07 0)
(42.8006 -2.07951e-07 0)
(42.7995 -2.20052e-07 0)
(42.7981 -2.34772e-07 0)
(42.7962 -2.49041e-07 0)
(42.794 -2.62885e-07 0)
(42.7914 -2.76231e-07 0)
(42.7885 -2.88967e-07 0)
(42.7852 -3.00977e-07 0)
(42.7817 -3.12154e-07 0)
(42.7778 -3.22398e-07 0)
(42.7736 -3.31678e-07 0)
(42.7692 -3.39969e-07 0)
(42.7645 -3.47228e-07 0)
(42.7596 -3.53411e-07 0)
(42.7546 -3.58445e-07 0)
(42.7493 -3.62334e-07 0)
(42.744 -3.65088e-07 0)
(42.7385 -3.66696e-07 0)
(42.733 -3.67193e-07 0)
(42.7274 -3.66624e-07 0)
(42.7218 -3.65018e-07 0)
(42.7162 -3.62374e-07 0)
(42.7107 -3.58767e-07 0)
(42.7052 -3.54291e-07 0)
(42.6997 -3.49048e-07 0)
(42.6944 -3.43142e-07 0)
(42.6891 -3.36573e-07 0)
(42.684 -3.29362e-07 0)
(42.6791 -3.2126e-07 0)
(42.6743 -3.10788e-07 0)
(42.6696 -2.90432e-07 0)
(42.6652 -2.22376e-07 0)
(42.6609 7.90649e-08 0)
(42.6568 1.56786e-06 0)
(42.6529 8.9375e-06 0)
(42.6489 4.56067e-05 0)
(42.6439 0.000227956 0)
(42.6334 0.00113085 0)
(42.5965 0.00552356 0)
(42.4332 0.0258461 0)
(41.9734 0.126421 0)
(37.7142 0.420997 0)
(42.7002 0.000351873 0)
(42.7007 0.000251272 0)
(42.7011 0.000235085 0)
(42.7015 0.000235172 0)
(42.7018 0.000233701 0)
(42.7022 0.000232602 0)
(42.7025 0.000232096 0)
(42.7029 0.000231957 0)
(42.7032 0.000231885 0)
(42.7036 0.000231971 0)
(42.7039 0.000232161 0)
(42.7043 0.000232468 0)
(42.7046 0.00023261 0)
(42.7049 0.000232952 0)
(42.7053 0.000233256 0)
(42.7056 0.000233564 0)
(42.706 0.000233842 0)
(42.7063 0.000234227 0)
(42.7066 0.000234493 0)
(42.707 0.000234782 0)
(42.7073 0.000235121 0)
(42.7076 0.000235436 0)
(42.7079 0.000235719 0)
(42.7083 0.000236016 0)
(42.7086 0.000236306 0)
(42.7089 0.000236587 0)
(42.7092 0.000236856 0)
(42.7095 0.000237105 0)
(42.7098 0.000237326 0)
(42.7102 0.000237502 0)
(42.7105 0.000237612 0)
(42.7108 0.000237624 0)
(42.7111 0.000237464 0)
(42.7114 0.0002372 0)
(42.7117 0.000236554 0)
(42.712 0.000235555 0)
(42.7123 0.000234126 0)
(42.7126 0.000232163 0)
(42.7128 0.000229208 0)
(42.7131 0.000225599 0)
(42.7134 0.000220933 0)
(42.7137 0.000215159 0)
(42.7139 0.000208203 0)
(42.7142 0.00020003 0)
(42.7144 0.000190657 0)
(42.7146 0.000180153 0)
(42.7148 0.000168644 0)
(42.7149 0.000156304 0)
(42.7151 0.000143351 0)
(42.7152 0.000130034 0)
(42.7153 0.000116616 0)
(42.7154 0.000103358 0)
(42.7155 9.05091e-05 0)
(42.7155 7.82888e-05 0)
(42.7155 6.6869e-05 0)
(42.7155 5.64018e-05 0)
(42.7155 4.69654e-05 0)
(42.7155 3.86044e-05 0)
(42.7155 3.13215e-05 0)
(42.7154 2.50803e-05 0)
(42.7154 1.98198e-05 0)
(42.7153 1.5455e-05 0)
(42.7153 1.18886e-05 0)
(42.7152 9.01979e-06 0)
(42.7151 6.74704e-06 0)
(42.7151 4.97292e-06 0)
(42.715 3.60813e-06 0)
(42.7149 2.5734e-06 0)
(42.7148 1.79996e-06 0)
(42.7148 1.22983e-06 0)
(42.7147 8.15296e-07 0)
(42.7146 5.17995e-07 0)
(42.7145 3.07806e-07 0)
(42.7145 1.61798e-07 0)
(42.7144 6.20951e-08 0)
(42.7143 -5.43639e-09 0)
(42.7142 -5.32337e-08 0)
(42.7141 -8.4923e-08 0)
(42.714 -1.05556e-07 0)
(42.714 -1.18882e-07 0)
(42.7139 -1.27417e-07 0)
(42.7138 -1.32807e-07 0)
(42.7137 -1.36193e-07 0)
(42.7136 -1.38295e-07 0)
(42.7135 -1.396e-07 0)
(42.7134 -1.4043e-07 0)
(42.7133 -1.40974e-07 0)
(42.7132 -1.4135e-07 0)
(42.7131 -1.41673e-07 0)
(42.713 -1.41924e-07 0)
(42.7129 -1.42064e-07 0)
(42.7128 -1.42258e-07 0)
(42.7127 -1.42408e-07 0)
(42.7126 -1.42598e-07 0)
(42.7125 -1.42859e-07 0)
(42.7124 -1.43048e-07 0)
(42.7123 -1.43447e-07 0)
(42.7122 -1.43682e-07 0)
(42.7121 -1.43949e-07 0)
(42.712 -1.44072e-07 0)
(42.7119 -1.44005e-07 0)
(42.7118 -1.43765e-07 0)
(42.7117 -1.43296e-07 0)
(42.7116 -1.42743e-07 0)
(42.7116 -1.42024e-07 0)
(42.7115 -1.41119e-07 0)
(42.7115 -1.40063e-07 0)
(42.7115 -1.39454e-07 0)
(42.7116 -1.36297e-07 0)
(42.7117 -1.35891e-07 0)
(42.7118 -1.34092e-07 0)
(42.712 -1.32096e-07 0)
(42.7123 -1.29763e-07 0)
(42.7126 -1.27132e-07 0)
(42.713 -1.24253e-07 0)
(42.7135 -1.21009e-07 0)
(42.714 -1.17452e-07 0)
(42.7147 -1.13685e-07 0)
(42.7155 -1.09529e-07 0)
(42.7164 -1.05106e-07 0)
(42.7174 -1.00479e-07 0)
(42.7186 -9.54454e-08 0)
(42.7199 -9.03418e-08 0)
(42.7213 -8.49597e-08 0)
(42.7229 -7.93979e-08 0)
(42.7247 -7.38646e-08 0)
(42.7266 -6.80982e-08 0)
(42.7286 -6.25441e-08 0)
(42.7309 -5.70005e-08 0)
(42.7332 -5.15295e-08 0)
(42.7358 -4.64892e-08 0)
(42.7384 -4.14454e-08 0)
(42.7413 -3.69127e-08 0)
(42.7442 -3.27428e-08 0)
(42.7473 -2.88265e-08 0)
(42.7504 -2.56868e-08 0)
(42.7537 -2.27883e-08 0)
(42.757 -2.04421e-08 0)
(42.7603 -1.90658e-08 0)
(42.7637 -1.81584e-08 0)
(42.7671 -1.83812e-08 0)
(42.7705 -2.00664e-08 0)
(42.7738 -2.23692e-08 0)
(42.7771 -2.61009e-08 0)
(42.7802 -3.11211e-08 0)
(42.7833 -3.6562e-08 0)
(42.7862 -4.37065e-08 0)
(42.7889 -5.1794e-08 0)
(42.7914 -6.01684e-08 0)
(42.7937 -7.06575e-08 0)
(42.7957 -8.09552e-08 0)
(42.7975 -9.23669e-08 0)
(42.7989 -1.05052e-07 0)
(42.8001 -1.16931e-07 0)
(42.8009 -1.31257e-07 0)
(42.8014 -1.43698e-07 0)
(42.8015 -1.58751e-07 0)
(42.8013 -1.82975e-07 0)
(42.8006 -1.93654e-07 0)
(42.7995 -2.05639e-07 0)
(42.7981 -2.20046e-07 0)
(42.7962 -2.34062e-07 0)
(42.794 -2.47667e-07 0)
(42.7914 -2.60809e-07 0)
(42.7885 -2.73358e-07 0)
(42.7852 -2.85244e-07 0)
(42.7817 -2.96326e-07 0)
(42.7778 -3.06535e-07 0)
(42.7736 -3.15816e-07 0)
(42.7692 -3.24162e-07 0)
(42.7645 -3.31517e-07 0)
(42.7596 -3.37839e-07 0)
(42.7546 -3.43059e-07 0)
(42.7493 -3.47183e-07 0)
(42.744 -3.50196e-07 0)
(42.7385 -3.52107e-07 0)
(42.733 -3.52974e-07 0)
(42.7274 -3.52789e-07 0)
(42.7218 -3.51603e-07 0)
(42.7162 -3.4941e-07 0)
(42.7107 -3.46295e-07 0)
(42.7052 -3.42325e-07 0)
(42.6997 -3.37623e-07 0)
(42.6944 -3.32253e-07 0)
(42.6891 -3.26251e-07 0)
(42.684 -3.1957e-07 0)
(42.6791 -3.11857e-07 0)
(42.6743 -3.01058e-07 0)
(42.6696 -2.76793e-07 0)
(42.6652 -1.8686e-07 0)
(42.6609 2.28904e-07 0)
(42.6568 2.26601e-06 0)
(42.6529 1.23853e-05 0)
(42.6489 6.27607e-05 0)
(42.6439 0.000313309 0)
(42.6335 0.0015543 0)
(42.5969 0.00759749 0)
(42.4354 0.0355252 0)
(41.9807 0.173309 0)
(37.8355 0.571519 0)
(42.7002 0.000330419 0)
(42.7007 0.000244138 0)
(42.7011 0.000231445 0)
(42.7015 0.000236547 0)
(42.7018 0.000238267 0)
(42.7022 0.000239058 0)
(42.7025 0.000239749 0)
(42.7029 0.000240343 0)
(42.7032 0.000240708 0)
(42.7036 0.000241018 0)
(42.7039 0.000241289 0)
(42.7042 0.000241568 0)
(42.7046 0.000241627 0)
(42.7049 0.000241819 0)
(42.7053 0.000241941 0)
(42.7056 0.000242042 0)
(42.706 0.000242101 0)
(42.7063 0.000242243 0)
(42.7066 0.000242275 0)
(42.707 0.000242323 0)
(42.7073 0.000242418 0)
(42.7076 0.000242492 0)
(42.7079 0.000242542 0)
(42.7083 0.000242608 0)
(42.7086 0.000242672 0)
(42.7089 0.000242733 0)
(42.7092 0.000242787 0)
(42.7095 0.000242829 0)
(42.7098 0.000242848 0)
(42.7101 0.00024283 0)
(42.7105 0.000242753 0)
(42.7108 0.000242586 0)
(42.7111 0.00024226 0)
(42.7114 0.000241827 0)
(42.7117 0.000241037 0)
(42.712 0.000239905 0)
(42.7123 0.000238352 0)
(42.7126 0.000236277 0)
(42.7128 0.000233246 0)
(42.7131 0.000229561 0)
(42.7134 0.000224842 0)
(42.7137 0.000219029 0)
(42.7139 0.000212047 0)
(42.7141 0.000203858 0)
(42.7144 0.000194471 0)
(42.7146 0.000183949 0)
(42.7148 0.000172412 0)
(42.7149 0.000160027 0)
(42.7151 0.000147008 0)
(42.7152 0.000133597 0)
(42.7153 0.000120055 0)
(42.7154 0.000106643 0)
(42.7155 9.36101e-05 0)
(42.7155 8.11798e-05 0)
(42.7155 6.95297e-05 0)
(42.7155 5.88167e-05 0)
(42.7155 4.91274e-05 0)
(42.7155 4.05124e-05 0)
(42.7155 3.29818e-05 0)
(42.7154 2.65046e-05 0)
(42.7154 2.10244e-05 0)
(42.7153 1.64597e-05 0)
(42.7153 1.27152e-05 0)
(42.7152 9.69095e-06 0)
(42.7151 7.28504e-06 0)
(42.7151 5.399e-06 0)
(42.715 3.94182e-06 0)
(42.7149 2.83215e-06 0)
(42.7148 1.99901e-06 0)
(42.7148 1.38221e-06 0)
(42.7147 9.31947e-07 0)
(42.7146 6.07782e-07 0)
(42.7145 3.77588e-07 0)
(42.7145 2.16101e-07 0)
(42.7144 1.04084e-07 0)
(42.7143 2.76377e-08 0)
(42.7142 -2.30133e-08 0)
(42.7141 -5.64931e-08 0)
(42.714 -7.84875e-08 0)
(42.714 -9.28301e-08 0)
(42.7139 -1.02082e-07 0)
(42.7138 -1.07982e-07 0)
(42.7137 -1.11731e-07 0)
(42.7136 -1.14074e-07 0)
(42.7135 -1.15536e-07 0)
(42.7134 -1.16474e-07 0)
(42.7133 -1.17066e-07 0)
(42.7132 -1.17478e-07 0)
(42.7131 -1.17817e-07 0)
(42.713 -1.18085e-07 0)
(42.7129 -1.18215e-07 0)
(42.7128 -1.18381e-07 0)
(42.7127 -1.18464e-07 0)
(42.7126 -1.18565e-07 0)
(42.7125 -1.18731e-07 0)
(42.7124 -1.1877e-07 0)
(42.7123 -1.19085e-07 0)
(42.7122 -1.19216e-07 0)
(42.7121 -1.19406e-07 0)
(42.712 -1.19472e-07 0)
(42.7119 -1.19347e-07 0)
(42.7118 -1.19111e-07 0)
(42.7117 -1.18659e-07 0)
(42.7116 -1.18163e-07 0)
(42.7116 -1.17568e-07 0)
(42.7115 -1.16794e-07 0)
(42.7115 -1.15926e-07 0)
(42.7115 -1.15414e-07 0)
(42.7116 -1.12556e-07 0)
(42.7117 -1.1225e-07 0)
(42.7118 -1.10635e-07 0)
(42.712 -1.08851e-07 0)
(42.7123 -1.06772e-07 0)
(42.7126 -1.04404e-07 0)
(42.713 -1.01845e-07 0)
(42.7135 -9.8953e-08 0)
(42.714 -9.57588e-08 0)
(42.7147 -9.24213e-08 0)
(42.7155 -8.87154e-08 0)
(42.7164 -8.47476e-08 0)
(42.7174 -8.06022e-08 0)
(42.7186 -7.60381e-08 0)
(42.7199 -7.13994e-08 0)
(42.7213 -6.65047e-08 0)
(42.7229 -6.13708e-08 0)
(42.7247 -5.63385e-08 0)
(42.7266 -5.10094e-08 0)
(42.7286 -4.59216e-08 0)
(42.7309 -4.08793e-08 0)
(42.7332 -3.58647e-08 0)
(42.7358 -3.13881e-08 0)
(42.7384 -2.68741e-08 0)
(42.7413 -2.29415e-08 0)
(42.7442 -1.9484e-08 0)
(42.7473 -1.62323e-08 0)
(42.7504 -1.40499e-08 0)
(42.7537 -1.21493e-08 0)
(42.757 -1.08756e-08 0)
(42.7603 -1.07481e-08 0)
(42.7637 -1.09392e-08 0)
(42.7671 -1.20323e-08 0)
(42.7705 -1.42558e-08 0)
(42.7738 -1.6818e-08 0)
(42.7771 -2.05947e-08 0)
(42.7802 -2.55096e-08 0)
(42.7833 -3.07552e-08 0)
(42.7862 -3.74838e-08 0)
(42.7889 -4.50651e-08 0)
(42.7914 -5.29047e-08 0)
(42.7937 -6.26802e-08 0)
(42.7957 -7.22896e-08 0)
(42.7975 -8.29137e-08 0)
(42.7989 -9.47646e-08 0)
(42.8001 -1.05885e-07 0)
(42.8009 -1.1927e-07 0)
(42.8014 -1.30765e-07 0)
(42.8015 -1.44784e-07 0)
(42.8013 -1.67998e-07 0)
(42.8006 -1.77612e-07 0)
(42.7995 -1.88887e-07 0)
(42.7981 -2.02368e-07 0)
(42.7962 -2.15483e-07 0)
(42.794 -2.28228e-07 0)
(42.7914 -2.40535e-07 0)
(42.7885 -2.5229e-07 0)
(42.7852 -2.63404e-07 0)
(42.7817 -2.73776e-07 0)
(42.7778 -2.83306e-07 0)
(42.7736 -2.91963e-07 0)
(42.7692 -2.99726e-07 0)
(42.7645 -3.06562e-07 0)
(42.7596 -3.12421e-07 0)
(42.7546 -3.17235e-07 0)
(42.7493 -3.21008e-07 0)
(42.744 -3.23741e-07 0)
(42.7385 -3.25426e-07 0)
(42.733 -3.2612e-07 0)
(42.7274 -3.25823e-07 0)
(42.7218 -3.24587e-07 0)
(42.7162 -3.22397e-07 0)
(42.7107 -3.19321e-07 0)
(42.7052 -3.15456e-07 0)
(42.6997 -3.10885e-07 0)
(42.6944 -3.05687e-07 0)
(42.6891 -2.99868e-07 0)
(42.684 -2.93384e-07 0)
(42.6791 -2.85737e-07 0)
(42.6743 -2.74224e-07 0)
(42.6696 -2.45226e-07 0)
(42.6652 -1.30629e-07 0)
(42.6609 4.10109e-07 0)
(42.6568 3.07358e-06 0)
(42.6529 1.6316e-05 0)
(42.6489 8.225e-05 0)
(42.644 0.000410215 0)
(42.6337 0.00203512 0)
(42.5976 0.0099543 0)