/*--------------------------------*- C++ -*----------------------------------*\
| =========                 |                                                 |
| \\      /  F ield         | OpenFOAM: The Open Source CFD Toolbox           |
|  \\    /   O peration     | Version:  3.0.x                                 |
|   \\  /    A nd           | Web:      www.OpenFOAM.org                      |
|    \\/     M anipulation  |                                                 |
\*---------------------------------------------------------------------------*/
FoamFile
{
    version     2.0;
    format      ascii;
    class       surfaceScalarField;
    location    "0.44";
    object      phi;
}
// * * * * * * * * * * * * * * * * * * * * * * * * * * * * * * * * * * * * * //

dimensions      [1 0 -1 0 0 0 0];

internalField   nonuniform List<scalar> 
52430
(
3.90611
0.000243624
3.90593
0.000176135
3.90576
0.000169102
3.90559
0.000170335
3.90542
0.000170752
3.90525
0.000170697
3.90508
0.00017066
3.90491
0.000170659
3.90474
0.000170665
3.90457
0.000170663
3.9044
0.000170659
3.90423
0.000170656
3.90406
0.000170653
3.90389
0.000170649
3.90372
0.000170646
3.90355
0.000170642
3.90338
0.000170638
3.90321
0.000170634
3.90304
0.00017063
3.90287
0.000170627
3.90269
0.000170623
3.90252
0.000170619
3.90235
0.000170615
3.90218
0.000170611
3.90201
0.000170607
3.90184
0.000170603
3.90167
0.0001706
3.9015
0.000170593
3.90133
0.00017059
3.90116
0.000170586
3.90099
0.000170583
3.90082
0.000170579
3.90065
0.000170575
3.90048
0.000170571
3.90031
0.000170566
3.90014
0.000170562
3.89997
0.000170558
3.8998
0.000170554
3.89962
0.00017055
3.89945
0.000170546
3.89928
0.000170542
3.89911
0.000170537
3.89894
0.000170533
3.89877
0.000170529
3.8986
0.000170524
3.89843
0.00017052
3.89826
0.000170515
3.89809
0.00017051
3.89792
0.000170505
3.89775
0.000170499
3.89757
0.000170486
3.8974
0.000170504
3.89723
0.000170478
3.89706
0.000170476
3.89689
0.00017047
3.89672
0.000170464
3.89655
0.000170458
3.89638
0.000170454
3.89621
0.000170447
3.89603
0.000170438
3.89586
0.000170429
3.89569
0.000170426
3.89551
0.000170419
3.89534
0.000170413
3.89517
0.000170407
3.89499
0.000170401
3.89482
0.000170395
3.89465
0.000170377
3.89448
0.000170375
3.89431
0.000170367
3.89414
0.000170496
3.89397
0.000170292
3.8938
0.00017037
3.89364
0.000170368
3.89347
0.000170366
3.8933
0.000170363
3.89313
0.00017036
3.89296
0.000170357
3.89279
0.000170354
3.89261
0.000170351
3.89244
0.000170354
3.89227
0.000170351
3.8921
0.000170318
3.89192
0.000170346
3.89175
0.000170332
3.89157
0.000170324
3.8914
0.000170319
3.89123
0.000170314
3.89106
0.000170308
3.89088
0.000170303
3.89071
0.000170282
3.89054
0.000170281
3.89037
0.000170379
3.8902
0.000170225
3.89003
0.000170279
3.88985
0.000170278
3.88968
0.000170274
3.88951
0.000170271
3.88934
0.000170268
3.88917
0.00017026
3.889
0.00017024
3.88882
0.00017025
3.88865
0.000170376
3.88848
0.000170167
3.88832
0.000170248
3.88815
0.000170243
3.88798
0.000170236
3.88781
0.000170227
3.88763
0.000170216
3.88746
0.0001702
3.88729
0.000170179
3.88712
0.000170152
3.88695
0.000170116
3.88677
0.000170087
3.8866
0.000170028
3.88643
0.000169912
3.88625
0.000169815
3.88607
0.000169708
3.8859
0.000169546
3.88572
0.000169349
3.88555
0.000169105
3.88538
0.000168806
3.8852
0.00016844
3.88503
0.00016795
3.88486
0.000167444
3.88469
0.000167008
3.88452
0.000166019
3.88436
0.000165221
3.88419
0.000164211
3.88402
0.000163032
3.88386
0.000161678
3.88369
0.000160133
3.88353
0.000158382
3.88337
0.000156412
3.88321
0.000154209
3.88305
0.000151765
3.88289
0.00014907
3.88274
0.00014612
3.88259
0.000142911
3.88244
0.000139445
3.8823
0.000135717
3.88215
0.000131764
3.88202
0.000127562
3.88188
0.000123139
3.88175
0.000118522
3.88163
0.000113713
3.88151
0.000108758
3.88139
0.000103676
3.88128
9.84935e-05
3.88118
9.32428e-05
3.88107
8.7956e-05
3.88098
8.26653e-05
3.88089
7.74025e-05
3.8808
7.21991e-05
3.88071
6.70851e-05
3.88063
6.20885e-05
3.88056
5.72356e-05
3.88049
5.25495e-05
3.88042
4.80508e-05
3.88036
4.37568e-05
3.8803
3.96817e-05
3.88024
3.58362e-05
3.88018
3.22278e-05
3.88013
2.88609e-05
3.88008
2.57367e-05
3.88003
2.28538e-05
3.87998
2.02081e-05
3.87994
1.77934e-05
3.87989
1.56014e-05
3.87985
1.36222e-05
3.87981
1.18449e-05
3.87976
1.02572e-05
3.87972
8.84655e-06
3.87968
7.59968e-06
3.87963
6.50337e-06
3.87959
5.54446e-06
3.87955
4.71008e-06
3.8795
3.9878e-06
3.87946
3.36578e-06
3.87941
2.83285e-06
3.87936
2.37858e-06
3.87931
1.99335e-06
3.87926
1.66834e-06
3.8792
1.39554e-06
3.87915
1.16774e-06
3.87909
9.78524e-07
3.87904
8.22176e-07
3.87898
6.9369e-07
3.87891
5.8868e-07
3.87885
5.03353e-07
3.87878
4.34438e-07
3.87871
3.79132e-07
3.87864
3.35056e-07
3.87857
3.00206e-07
3.87849
2.7289e-07
3.87841
2.51704e-07
3.87833
2.35479e-07
3.87825
2.23248e-07
3.87816
2.14228e-07
3.87807
2.07774e-07
3.87798
2.03367e-07
3.87788
2.00584e-07
3.87778
1.99087e-07
3.87768
1.98612e-07
3.87757
1.98945e-07
3.87746
1.99918e-07
3.87735
2.01399e-07
3.87723
2.03281e-07
3.87711
2.05495e-07
3.87699
2.07972e-07
3.87686
2.10668e-07
3.87673
2.13542e-07
3.87659
2.16578e-07
3.87645
2.19745e-07
3.87631
2.23032e-07
3.87616
2.26431e-07
3.87601
2.29924e-07
3.87585
2.33516e-07
3.87569
2.37196e-07
3.87552
2.40963e-07
3.87535
2.44816e-07
3.87517
2.48754e-07
3.87499
2.52776e-07
3.8748
2.56876e-07
3.87461
2.6106e-07
3.87441
2.65325e-07
3.87421
2.69676e-07
3.874
2.74111e-07
3.87379
2.78626e-07
3.87357
2.83224e-07
3.87334
2.87908e-07
3.87311
2.92675e-07
3.87287
2.97528e-07
3.87263
3.02467e-07
3.87238
3.07491e-07
3.87212
3.12599e-07
3.87185
3.17794e-07
3.87158
3.23073e-07
3.87131
3.28439e-07
3.87102
3.33888e-07
3.87073
3.3942e-07
3.87043
3.45042e-07
3.87013
3.50745e-07
3.86981
3.56536e-07
3.86949
3.62415e-07
3.86916
3.68376e-07
3.86883
3.74426e-07
3.86848
3.80564e-07
3.86813
3.86783e-07
3.86777
3.93085e-07
3.8674
3.99476e-07
3.86702
4.05953e-07
3.86664
4.1251e-07
3.86624
4.19152e-07
3.86584
4.25882e-07
3.86543
4.32694e-07
3.86501
4.39592e-07
3.86458
4.46573e-07
3.86414
4.53632e-07
3.86369
4.60775e-07
3.86323
4.68002e-07
3.86276
4.75309e-07
3.86228
4.82698e-07
3.8618
4.90163e-07
3.8613
4.9771e-07
3.86079
5.0533e-07
3.86027
5.1303e-07
3.85974
5.20804e-07
3.8592
5.28649e-07
3.85865
5.36571e-07
3.85809
5.44567e-07
3.85752
5.52638e-07
3.85694
5.6078e-07
3.85635
5.68991e-07
3.85574
5.77274e-07
3.85513
5.85627e-07
3.8545
5.94044e-07
3.85386
6.02529e-07
3.85321
6.11082e-07
3.85255
6.19691e-07
3.85188
6.28374e-07
3.85119
6.37112e-07
3.85049
6.45916e-07
3.84978
6.54776e-07
3.84906
6.63698e-07
3.84832
6.72679e-07
3.84758
6.81714e-07
3.84682
6.90807e-07
3.84604
6.99954e-07
3.84526
7.09158e-07
3.84446
7.1841e-07
3.84364
7.2771e-07
3.84282
7.37062e-07
3.84198
7.46464e-07
3.84113
7.55914e-07
3.84026
7.65405e-07
3.83938
7.74946e-07
3.83849
7.84523e-07
3.83759
7.94149e-07
3.83666
8.0381e-07
3.83573
8.13514e-07
3.83478
8.23258e-07
3.83382
8.33033e-07
3.83284
8.42851e-07
3.83185
8.52699e-07
3.83085
8.62581e-07
3.82982
8.72495e-07
3.82879
8.82441e-07
3.82774
8.92413e-07
3.82668
9.02417e-07
3.8256
9.12445e-07
3.8245
9.22495e-07
3.82339
9.32578e-07
3.82227
9.4268e-07
3.82113
9.52805e-07
3.81997
9.62948e-07
3.8188
9.73112e-07
3.81762
9.83291e-07
3.81642
9.9349e-07
3.8152
1.00371e-06
3.81397
1.01394e-06
3.81272
1.02419e-06
3.81145
1.03445e-06
3.81017
1.04472e-06
3.80888
1.05499e-06
3.80756
1.06527e-06
3.80624
1.07557e-06
3.80489
1.08587e-06
3.80353
1.09618e-06
3.80215
1.1065e-06
3.80076
1.11682e-06
3.79935
1.12715e-06
3.79792
1.13747e-06
3.79648
1.1478e-06
3.79502
1.15813e-06
3.79354
1.16845e-06
3.79205
1.17877e-06
3.79054
1.18909e-06
3.78901
1.1994e-06
3.78747
1.20971e-06
3.7859
1.22001e-06
3.78433
1.23032e-06
3.78273
1.24061e-06
3.78112
1.2509e-06
3.77949
1.26119e-06
3.77784
1.27146e-06
3.77617
1.28172e-06
3.77449
1.29196e-06
3.77279
1.30219e-06
3.77107
1.31241e-06
3.76934
1.32261e-06
3.76759
1.33281e-06
3.76582
1.34299e-06
3.76403
1.35316e-06
3.76222
1.36331e-06
3.7604
1.37345e-06
3.75856
1.38357e-06
3.7567
1.39367e-06
3.75482
1.40375e-06
3.75292
1.4138e-06
3.75101
1.42384e-06
3.74908
1.43386e-06
3.74713
1.44386e-06
3.74516
1.45383e-06
3.74317
1.46378e-06
3.74117
1.47371e-06
3.73914
1.48362e-06
3.7371
1.4935e-06
3.73504
1.50337e-06
3.73296
1.5132e-06
3.73086
1.52301e-06
3.72875
1.53278e-06
3.72661
1.54255e-06
3.72446
1.55229e-06
3.72229
1.56206e-06
3.72009
1.57188e-06
3.71789
1.58188e-06
3.71566
1.59237e-06
3.71341
1.60404e-06
3.71114
1.61856e-06
3.70886
1.63993e-06
3.70655
1.6779e-06
3.70423
1.75587e-06
3.70189
1.92867e-06
3.69952
2.32849e-06
3.69714
3.27026e-06
3.69474
5.50817e-06
3.69231
1.08409e-05
3.68985
2.35673e-05
3.68734
5.39478e-05
3.68473
0.000126465
3.68194
0.000299473
3.67871
0.000711833
3.67449
0.00169309
3.66791
0.00402243
3.6558
0.00953437
3.63065
0.0225574
3.57435
0.0536928
3.43747
0.134262
0.36054
3.07429
5.52449
0.000213026
5.5245
0.00017039
5.52451
0.000156211
5.52452
0.000158431
5.52454
0.000159431
5.52455
0.000159333
5.52456
0.00015926
5.52457
0.00015928
5.52458
0.000159304
5.52459
0.000159314
5.52461
0.000159322
5.52462
0.000159331
5.52463
0.000159338
5.52464
0.000159346
5.52465
0.000159353
5.52466
0.000159361
5.52467
0.000159368
5.52468
0.000159374
5.5247
0.000159382
5.52471
0.000159389
5.52472
0.000159396
5.52473
0.000159403
5.52474
0.000159409
5.52475
0.000159416
5.52476
0.000159423
5.52477
0.000159431
5.52478
0.000159439
5.52479
0.00015944
5.52481
0.000159448
5.52482
0.000159458
5.52483
0.000159463
5.52484
0.00015947
5.52485
0.000159477
5.52486
0.000159483
5.52487
0.00015949
5.52488
0.000159496
5.52489
0.000159503
5.5249
0.000159509
5.52491
0.000159517
5.52492
0.000159523
5.52493
0.000159529
5.52494
0.000159535
5.52495
0.000159542
5.52496
0.000159549
5.52497
0.000159555
5.52498
0.000159561
5.525
0.000159567
5.52501
0.000159573
5.52502
0.000159578
5.52503
0.000159584
5.52504
0.000159581
5.52505
0.000159606
5.52505
0.000159595
5.52506
0.000159603
5.52507
0.000159608
5.52508
0.000159613
5.52509
0.000159617
5.5251
0.000159624
5.52511
0.000159628
5.52512
0.000159631
5.52513
0.00015963
5.52513
0.000159639
5.52514
0.000159643
5.52514
0.000159647
5.52515
0.000159652
5.52516
0.000159657
5.52516
0.000159662
5.52517
0.000159657
5.52518
0.000159666
5.52519
0.00015967
5.52521
0.000159777
5.52522
0.000159635
5.52523
0.0001597
5.52525
0.00015971
5.52526
0.000159717
5.52527
0.000159725
5.52528
0.000159733
5.52529
0.000159741
5.5253
0.000159748
5.52531
0.000159756
5.52532
0.00015977
5.52533
0.000159776
5.52533
0.000159758
5.52534
0.000159787
5.52534
0.000159791
5.52535
0.000159792
5.52535
0.000159798
5.52536
0.000159803
5.52537
0.000159809
5.52537
0.000159813
5.52538
0.000159806
5.52539
0.000159821
5.5254
0.000159904
5.52541
0.00015979
5.52542
0.000159841
5.52542
0.000159852
5.52543
0.00015986
5.52544
0.000159867
5.52545
0.000159875
5.52545
0.000159877
5.52546
0.000159871
5.52547
0.000159891
5.52548
0.000159991
5.52549
0.000159854
5.5255
0.000159917
5.52551
0.000159922
5.52552
0.000159926
5.52553
0.000159927
5.52554
0.000159925
5.52555
0.000159919
5.52556
0.000159908
5.52557
0.000159891
5.52557
0.000159865
5.52558
0.000159843
5.52559
0.000159792
5.52559
0.000159691
5.52559
0.000159593
5.52559
0.0001595
5.52559
0.000159342
5.5256
0.000159153
5.5256
0.000158916
5.5256
0.000158622
5.5256
0.000158262
5.52561
0.000157786
5.52561
0.000157286
5.52562
0.00015682
5.52562
0.000155885
5.52563
0.00015507
5.52564
0.000154078
5.52564
0.000152909
5.52565
0.000151571
5.52565
0.000150046
5.52565
0.00014832
5.52566
0.00014638
5.52566
0.000144217
5.52566
0.000141819
5.52566
0.000139182
5.52566
0.000136301
5.52565
0.000133174
5.52565
0.000129804
5.52565
0.000126191
5.52564
0.000122359
5.52564
0.000118305
5.52563
0.000114047
5.52563
0.000109612
5.52562
0.000105006
5.52561
0.000100271
5.5256
9.54285e-05
5.52559
9.05036e-05
5.52558
8.55274e-05
5.52557
8.05308e-05
5.52556
7.55445e-05
5.52554
7.05985e-05
5.52553
6.57221e-05
5.52551
6.09431e-05
5.52549
5.62874e-05
5.52547
5.17785e-05
5.52545
4.74373e-05
5.52543
4.32817e-05
5.5254
3.93268e-05
5.52538
3.55845e-05
5.52535
3.20633e-05
5.52532
2.87689e-05
5.52529
2.57039e-05
5.52526
2.28683e-05
5.52522
2.02592e-05
5.52519
1.78719e-05
5.52515
1.56993e-05
5.52511
1.37329e-05
5.52507
1.19627e-05
5.52502
1.03775e-05
5.52498
8.96566e-06
5.52493
7.71481e-06
5.52488
6.61243e-06
5.52483
5.64598e-06
5.52478
4.8031e-06
5.52472
4.0718e-06
5.52466
3.44059e-06
5.5246
2.89858e-06
5.52454
2.43553e-06
5.52448
2.04199e-06
5.52441
1.70923e-06
5.52434
1.42931e-06
5.52427
1.19506e-06
5.52419
1.00003e-06
5.52411
8.38526e-07
5.52403
7.05481e-07
5.52394
5.96492e-07
5.52386
5.07705e-07
5.52377
4.35807e-07
5.52367
3.77942e-07
5.52358
3.31679e-07
5.52348
2.94966e-07
5.52337
2.66067e-07
5.52326
2.43538e-07
5.52315
2.26173e-07
5.52304
2.12977e-07
5.52292
2.03126e-07
5.52279
1.95959e-07
5.52267
1.90936e-07
5.52253
1.87614e-07
5.5224
1.85642e-07
5.52226
1.84735e-07
5.52211
1.84674e-07
5.52196
1.85283e-07
5.52181
1.86424e-07
5.52165
1.87984e-07
5.52148
1.8988e-07
5.52131
1.92051e-07
5.52114
1.94444e-07
5.52096
1.97023e-07
5.52077
1.99756e-07
5.52058
2.02625e-07
5.52038
2.05605e-07
5.52018
2.08698e-07
5.51997
2.11887e-07
5.51975
2.15165e-07
5.51953
2.18529e-07
5.5193
2.21969e-07
5.51906
2.25496e-07
5.51882
2.291e-07
5.51857
2.32782e-07
5.51831
2.36541e-07
5.51805
2.4037e-07
5.51778
2.44284e-07
5.5175
2.48275e-07
5.51721
2.52339e-07
5.51692
2.56487e-07
5.51661
2.60707e-07
5.5163
2.65007e-07
5.51598
2.69385e-07
5.51566
2.73842e-07
5.51532
2.78379e-07
5.51497
2.82998e-07
5.51462
2.87697e-07
5.51426
2.92471e-07
5.51388
2.97329e-07
5.5135
3.02264e-07
5.51311
3.0728e-07
5.51271
3.12377e-07
5.5123
3.1755e-07
5.51187
3.22807e-07
5.51144
3.28137e-07
5.511
3.33553e-07
5.51054
3.39051e-07
5.51008
3.44627e-07
5.5096
3.50285e-07
5.50912
3.56021e-07
5.50862
3.61838e-07
5.50811
3.67733e-07
5.50759
3.73709e-07
5.50706
3.79765e-07
5.50651
3.85899e-07
5.50595
3.92112e-07
5.50538
3.98405e-07
5.5048
4.04777e-07
5.50421
4.11228e-07
5.5036
4.17758e-07
5.50298
4.24364e-07
5.50234
4.31043e-07
5.50169
4.378e-07
5.50103
4.4463e-07
5.50036
4.51539e-07
5.49967
4.58524e-07
5.49897
4.65577e-07
5.49825
4.72704e-07
5.49752
4.79902e-07
5.49677
4.87171e-07
5.49601
4.94506e-07
5.49523
5.01919e-07
5.49444
5.09393e-07
5.49363
5.16939e-07
5.49281
5.24547e-07
5.49197
5.32226e-07
5.49112
5.39972e-07
5.49025
5.47779e-07
5.48936
5.55647e-07
5.48846
5.63578e-07
5.48754
5.71576e-07
5.4866
5.79626e-07
5.48565
5.87742e-07
5.48468
5.95914e-07
5.48369
6.04142e-07
5.48269
6.12428e-07
5.48167
6.2077e-07
5.48063
6.29162e-07
5.47957
6.3761e-07
5.4785
6.46111e-07
5.47741
6.54662e-07
5.4763
6.63265e-07
5.47517
6.71918e-07
5.47402
6.80612e-07
5.47285
6.89357e-07
5.47167
6.98148e-07
5.47046
7.0698e-07
5.46924
7.15854e-07
5.468
7.24774e-07
5.46674
7.33728e-07
5.46546
7.42726e-07
5.46416
7.5176e-07
5.46283
7.6083e-07
5.46149
7.69939e-07
5.46013
7.79082e-07
5.45875
7.88261e-07
5.45735
7.97466e-07
5.45593
8.06707e-07
5.45449
8.15977e-07
5.45303
8.25275e-07
5.45154
8.346e-07
5.45004
8.4395e-07
5.44851
8.53329e-07
5.44697
8.62729e-07
5.4454
8.72159e-07
5.44381
8.81604e-07
5.4422
8.91075e-07
5.44057
9.00561e-07
5.43891
9.10064e-07
5.43724
9.19582e-07
5.43554
9.29122e-07
5.43382
9.38674e-07
5.43208
9.48249e-07
5.43031
9.57836e-07
5.42853
9.67431e-07
5.42672
9.77034e-07
5.42489
9.86642e-07
5.42303
9.96259e-07
5.42115
1.00589e-06
5.41925
1.01552e-06
5.41733
1.02517e-06
5.41538
1.03482e-06
5.41341
1.04447e-06
5.41142
1.05413e-06
5.4094
1.06379e-06
5.40736
1.07345e-06
5.4053
1.08311e-06
5.40321
1.09276e-06
5.4011
1.10242e-06
5.39897
1.11207e-06
5.39681
1.12172e-06
5.39463
1.13136e-06
5.39242
1.141e-06
5.39019
1.15064e-06
5.38794
1.16027e-06
5.38566
1.1699e-06
5.38335
1.17951e-06
5.38102
1.18912e-06
5.37867
1.19872e-06
5.37629
1.20831e-06
5.37389
1.21788e-06
5.37146
1.22743e-06
5.36901
1.23698e-06
5.36653
1.24652e-06
5.36403
1.25605e-06
5.36151
1.26556e-06
5.35895
1.27506e-06
5.35638
1.28454e-06
5.35377
1.29401e-06
5.35114
1.30345e-06
5.34849
1.31288e-06
5.34581
1.32229e-06
5.34311
1.33168e-06
5.34038
1.34105e-06
5.33762
1.35041e-06
5.33484
1.35973e-06
5.33203
1.36904e-06
5.3292
1.37833e-06
5.32634
1.3876e-06
5.32345
1.39685e-06
5.32054
1.40607e-06
5.3176
1.41527e-06
5.31464
1.42445e-06
5.31165
1.43361e-06
5.30863
1.44276e-06
5.30558
1.45192e-06
5.30251
1.46115e-06
5.29942
1.47057e-06
5.2963
1.48048e-06
5.29315
1.49159e-06
5.28997
1.5056e-06
5.28677
1.52651e-06
5.28354
1.56395e-06
5.28028
1.64147e-06
5.27699
1.81528e-06
5.27368
2.21772e-06
5.27034
3.16659e-06
5.26698
5.42117e-06
5.26358
1.07966e-05
5.26015
2.36262e-05
5.25667
5.42617e-05
5.25312
0.000127415
5.24945
0.000302049
5.2455
0.000718707
5.24094
0.00171184
5.23498
0.00407528
5.2257
0.00968633
5.20863
0.0229668
5.17317
0.0543564
5.09378
0.129393
4.90235
0.321977
0.82602
4.43313
7.81281
0.000176103
7.81282
0.000158687
7.81284
0.000138965
7.81285
0.00014152
7.81287
0.000143226
7.81289
0.000143116
7.8129
0.000142997
7.81292
0.000143035
7.81294
0.000143071
7.81295
0.000143085
7.81297
0.000143096
7.81298
0.000143105
7.813
0.000143115
7.81302
0.000143123
7.81303
0.000143132
7.81305
0.00014314
7.81307
0.000143148
7.81308
0.000143152
7.8131
0.00014316
7.81311
0.000143168
7.81313
0.000143175
7.81315
0.000143181
7.81316
0.000143188
7.81318
0.000143194
7.81319
0.000143201
7.81321
0.000143209
7.81323
0.000143217
7.81324
0.000143211
7.81326
0.000143226
7.81327
0.000143232
7.81329
0.000143238
7.81331
0.000143244
7.81332
0.00014325
7.81334
0.000143256
7.81335
0.000143262
7.81337
0.000143269
7.81338
0.000143274
7.8134
0.000143279
7.81341
0.000143286
7.81343
0.000143292
7.81345
0.000143298
7.81346
0.000143303
7.81348
0.000143309
7.81349
0.000143316
7.81351
0.000143321
7.81352
0.000143326
7.81354
0.000143332
7.81355
0.000143337
7.81357
0.000143342
7.81358
0.000143348
7.8136
0.000143345
7.81361
0.000143365
7.81363
0.000143359
7.81364
0.000143364
7.81366
0.000143369
7.81367
0.000143373
7.81369
0.000143377
7.8137
0.000143383
7.81371
0.000143389
7.81373
0.000143391
7.81374
0.000143387
7.81374
0.000143396
7.81375
0.000143401
7.81376
0.000143405
7.81377
0.000143409
7.81378
0.000143413
7.8138
0.000143417
7.81381
0.000143414
7.81382
0.000143423
7.81384
0.000143428
7.81386
0.000143498
7.81388
0.000143412
7.8139
0.000143451
7.81392
0.000143461
7.81394
0.000143468
7.81396
0.000143475
7.81397
0.000143482
7.81399
0.000143489
7.814
0.000143496
7.81402
0.000143503
7.81403
0.000143516
7.81404
0.000143521
7.81405
0.000143507
7.81406
0.000143526
7.81407
0.000143536
7.81408
0.000143535
7.81409
0.000143541
7.8141
0.000143546
7.81411
0.00014355
7.81412
0.000143554
7.81413
0.000143549
7.81415
0.000143568
7.81416
0.000143623
7.81417
0.000143541
7.81419
0.000143578
7.8142
0.00014359
7.81421
0.000143596
7.81422
0.000143603
7.81424
0.00014361
7.81425
0.000143612
7.81426
0.000143609
7.81428
0.000143626
7.81429
0.000143688
7.81431
0.000143615
7.81433
0.000143649
7.81434
0.000143653
7.81436
0.000143656
7.81438
0.000143658
7.81439
0.000143656
7.81441
0.000143651
7.81442
0.000143642
7.81443
0.000143626
7.81444
0.000143604
7.81445
0.000143584
7.81446
0.00014354
7.81447
0.000143454
7.81447
0.000143358
7.81448
0.000143283
7.81448
0.00014314
7.81448
0.000142973
7.81449
0.000142763
7.81449
0.000142503
7.8145
0.000142182
7.81451
0.000141766
7.81452
0.000141323
7.81452
0.000140885
7.81454
0.000140087
7.81455
0.000139341
7.81456
0.000138467
7.81456
0.000137426
7.81457
0.000136235
7.81458
0.000134877
7.81458
0.00013334
7.81459
0.000131613
7.81459
0.000129684
7.81459
0.000127547
7.81459
0.000125195
7.81459
0.000122624
7.81458
0.000119833
7.81458
0.000116824
7.81458
0.0001136
7.81457
0.000110169
7.81456
0.000106547
7.81455
0.00010274
7.81454
9.87697e-05
7.81453
9.46471e-05
7.81451
9.04061e-05
7.8145
8.60664e-05
7.81448
8.16515e-05
7.81446
7.71883e-05
7.81444
7.27047e-05
7.81442
6.82281e-05
7.8144
6.37855e-05
7.81437
5.94032e-05
7.81435
5.51062e-05
7.81432
5.09179e-05
7.81429
4.68595e-05
7.81425
4.29498e-05
7.81422
3.92054e-05
7.81418
3.56398e-05
7.81414
3.22638e-05
7.8141
2.90856e-05
7.81406
2.61103e-05
7.81401
2.33407e-05
7.81396
2.07766e-05
7.81391
1.84161e-05
7.81386
1.62548e-05
7.81381
1.42867e-05
7.81375
1.25043e-05
7.81369
1.08986e-05
7.81363
9.45983e-06
7.81356
8.17754e-06
7.8135
7.04072e-06
7.81342
6.03815e-06
7.81335
5.15859e-06
7.81328
4.39097e-06
7.8132
3.72449e-06
7.81311
3.14882e-06
7.81303
2.65413e-06
7.81294
2.23121e-06
7.81285
1.87149e-06
7.81275
1.5671e-06
7.81265
1.31085e-06
7.81255
1.09623e-06
7.81244
9.17413e-07
7.81233
7.692e-07
7.81221
6.4701e-07
7.81209
5.46819e-07
7.81197
4.65127e-07
7.81184
3.98911e-07
7.81171
3.45566e-07
7.81157
3.0287e-07
7.81143
2.68946e-07
7.81128
2.4221e-07
7.81113
2.21335e-07
7.81097
2.05212e-07
7.81081
1.92935e-07
7.81064
1.83744e-07
7.81046
1.77035e-07
7.81028
1.72301e-07
7.8101
1.69143e-07
7.80991
1.67234e-07
7.80971
1.66311e-07
7.8095
1.66169e-07
7.80929
1.66649e-07
7.80907
1.67623e-07
7.80885
1.68984e-07
7.80861
1.70655e-07
7.80837
1.72582e-07
7.80812
1.74712e-07
7.80787
1.77016e-07
7.8076
1.79463e-07
7.80733
1.8203e-07
7.80705
1.84705e-07
7.80676
1.87477e-07
7.80647
1.90338e-07
7.80616
1.93279e-07
7.80585
1.96298e-07
7.80552
1.99388e-07
7.80519
2.02557e-07
7.80485
2.05792e-07
7.80449
2.091e-07
7.80413
2.12475e-07
7.80376
2.15918e-07
7.80337
2.19431e-07
7.80298
2.23013e-07
7.80257
2.26664e-07
7.80215
2.30391e-07
7.80173
2.34181e-07
7.80129
2.38045e-07
7.80083
2.41977e-07
7.80037
2.4598e-07
7.7999
2.50057e-07
7.79941
2.54206e-07
7.79891
2.58427e-07
7.79839
2.62713e-07
7.79786
2.67079e-07
7.79732
2.71511e-07
7.79677
2.76015e-07
7.7962
2.80594e-07
7.79562
2.85243e-07
7.79502
2.89964e-07
7.79441
2.94752e-07
7.79378
2.99615e-07
7.79314
3.04552e-07
7.79249
3.09562e-07
7.79181
3.14647e-07
7.79112
3.19796e-07
7.79042
3.25022e-07
7.7897
3.30319e-07
7.78896
3.35687e-07
7.78821
3.41124e-07
7.78744
3.46635e-07
7.78665
3.52216e-07
7.78584
3.57871e-07
7.78502
3.63593e-07
7.78418
3.69387e-07
7.78332
3.75252e-07
7.78244
3.81186e-07
7.78154
3.87187e-07
7.78063
3.93256e-07
7.77969
3.99391e-07
7.77874
4.05597e-07
7.77776
4.11872e-07
7.77677
4.18207e-07
7.77575
4.24609e-07
7.77472
4.31074e-07
7.77366
4.37602e-07
7.77258
4.44191e-07
7.77148
4.5085e-07
7.77036
4.57566e-07
7.76922
4.64342e-07
7.76806
4.71178e-07
7.76687
4.78075e-07
7.76567
4.85032e-07
7.76444
4.92044e-07
7.76318
4.99113e-07
7.76191
5.06238e-07
7.76061
5.13421e-07
7.75928
5.20652e-07
7.75794
5.27942e-07
7.75657
5.35283e-07
7.75517
5.42672e-07
7.75375
5.50116e-07
7.75231
5.5761e-07
7.75084
5.65149e-07
7.74934
5.72737e-07
7.74782
5.80371e-07
7.74628
5.88054e-07
7.74471
5.95781e-07
7.74311
6.03552e-07
7.74149
6.11364e-07
7.73984
6.19218e-07
7.73816
6.27113e-07
7.73646
6.35047e-07
7.73473
6.43021e-07
7.73297
6.51029e-07
7.73119
6.59073e-07
7.72938
6.67156e-07
7.72754
6.75272e-07
7.72567
6.83418e-07
7.72377
6.91601e-07
7.72185
6.99813e-07
7.7199
7.08059e-07
7.71792
7.16326e-07
7.71591
7.24627e-07
7.71387
7.32955e-07
7.7118
7.41308e-07
7.7097
7.49684e-07
7.70757
7.58082e-07
7.70542
7.66506e-07
7.70323
7.7495e-07
7.70101
7.83419e-07
7.69877
7.91906e-07
7.69649
8.00411e-07
7.69418
8.0893e-07
7.69184
8.17468e-07
7.68947
8.26017e-07
7.68707
8.34588e-07
7.68464
8.4317e-07
7.68217
8.51768e-07
7.67968
8.6038e-07
7.67715
8.68998e-07
7.67459
8.77623e-07
7.672
8.86255e-07
7.66938
8.94895e-07
7.66672
9.03543e-07
7.66404
9.12198e-07
7.66132
9.20862e-07
7.65856
9.2953e-07
7.65578
9.38203e-07
7.65296
9.46876e-07
7.65011
9.55553e-07
7.64722
9.64228e-07
7.64431
9.72906e-07
7.64135
9.8158e-07
7.63837
9.90252e-07
7.63535
9.98922e-07
7.6323
1.00759e-06
7.62921
1.01625e-06
7.62609
1.02491e-06
7.62294
1.03357e-06
7.61975
1.04222e-06
7.61652
1.05087e-06
7.61326
1.0595e-06
7.60997
1.06813e-06
7.60664
1.07675e-06
7.60328
1.08537e-06
7.59988
1.09396e-06
7.59645
1.10255e-06
7.59298
1.11112e-06
7.58948
1.11969e-06
7.58594
1.12825e-06
7.58237
1.13679e-06
7.57876
1.14533e-06
7.57512
1.15384e-06
7.57143
1.16234e-06
7.56772
1.17083e-06
7.56396
1.1793e-06
7.56018
1.18775e-06
7.55635
1.19619e-06
7.55249
1.20461e-06
7.54859
1.21301e-06
7.54466
1.22139e-06
7.54069
1.22974e-06
7.53668
1.23809e-06
7.53263
1.24641e-06
7.52855
1.25472e-06
7.52443
1.26301e-06
7.52028
1.27128e-06
7.51609
1.27952e-06
7.51186
1.28776e-06
7.50759
1.29601e-06
7.50329
1.3043e-06
7.49894
1.31274e-06
7.49456
1.32155e-06
7.49015
1.33126e-06
7.48569
1.34318e-06
7.4812
1.36032e-06
7.47667
1.38996e-06
7.4721
1.44938e-06
7.4675
1.58114e-06
7.46285
1.88656e-06
7.45817
2.60455e-06
7.45345
4.30793e-06
7.44869
8.36694e-06
7.44388
1.80544e-05
7.43903
4.11877e-05
7.43411
9.64369e-05
7.4291
0.000228378
7.4239
0.000543368
7.41834
0.00129493
7.41193
0.00308647
7.40359
0.00735037
7.39069
0.017475
7.36707
0.0414435
7.31815
0.0980943
7.2091
0.233225
6.95011
0.575722
1.42009
6.35075
34.4873
7.15682e-05
34.4874
8.15927e-05
34.4875
6.95273e-05
34.4876
6.9811e-05
34.4876
7.15928e-05
34.4877
7.18023e-05
34.4878
7.16415e-05
34.4878
7.16352e-05
34.4879
7.16433e-05
34.488
7.16364e-05
34.4881
7.1626e-05
34.4881
7.16184e-05
34.4882
7.16132e-05
34.4883
7.16095e-05
34.4883
7.16068e-05
34.4884
7.16052e-05
34.4885
7.16045e-05
34.4886
7.16044e-05
34.4886
7.16017e-05
34.4887
7.1602e-05
34.4888
7.16069e-05
34.4888
7.16067e-05
34.4889
7.16077e-05
34.489
7.16094e-05
34.4891
7.16119e-05
34.4891
7.16179e-05
34.4892
7.16123e-05
34.4893
7.16137e-05
34.4893
7.16193e-05
34.4894
7.16222e-05
34.4895
7.16243e-05
34.4895
7.16268e-05
34.4896
7.16294e-05
34.4897
7.16318e-05
34.4898
7.16346e-05
34.4898
7.16375e-05
34.4899
7.16399e-05
34.49
7.1643e-05
34.49
7.16446e-05
34.4901
7.16476e-05
34.4902
7.16502e-05
34.4902
7.16509e-05
34.4903
7.16561e-05
34.4904
7.16616e-05
34.4904
7.16623e-05
34.4905
7.16642e-05
34.4906
7.16669e-05
34.4906
7.16695e-05
34.4907
7.1672e-05
34.4908
7.16754e-05
34.4908
7.16749e-05
34.4909
7.16797e-05
34.491
7.16813e-05
34.491
7.16822e-05
34.4911
7.1685e-05
34.4912
7.16871e-05
34.4912
7.16891e-05
34.4913
7.16919e-05
34.4914
7.16952e-05
34.4914
7.16964e-05
34.4914
7.1692e-05
34.4915
7.1698e-05
34.4915
7.17001e-05
34.4916
7.17022e-05
34.4916
7.17044e-05
34.4917
7.17065e-05
34.4917
7.17083e-05
34.4918
7.17096e-05
34.4918
7.17119e-05
34.4919
7.17151e-05
34.492
7.17291e-05
34.4921
7.17207e-05
34.4922
7.1726e-05
34.4923
7.17303e-05
34.4923
7.17337e-05
34.4924
7.17374e-05
34.4925
7.1741e-05
34.4926
7.17445e-05
34.4926
7.1748e-05
34.4927
7.17521e-05
34.4928
7.1759e-05
34.4928
7.17606e-05
34.4929
7.17556e-05
34.4929
7.17582e-05
34.4929
7.17689e-05
34.493
7.1767e-05
34.493
7.177e-05
34.493
7.17727e-05
34.4931
7.17748e-05
34.4931
7.17765e-05
34.4932
7.17767e-05
34.4933
7.17883e-05
34.4933
7.17994e-05
34.4934
7.17775e-05
34.4934
7.17872e-05
34.4935
7.17942e-05
34.4936
7.17978e-05
34.4936
7.18012e-05
34.4937
7.18042e-05
34.4937
7.18054e-05
34.4938
7.18058e-05
34.4938
7.18116e-05
34.4939
7.18191e-05
34.494
7.18282e-05
34.4941
7.18277e-05
34.4941
7.18273e-05
34.4942
7.18283e-05
34.4943
7.18292e-05
34.4943
7.18287e-05
34.4944
7.18266e-05
34.4945
7.18223e-05
34.4945
7.18153e-05
34.4946
7.18056e-05
34.4946
7.17957e-05
34.4947
7.17744e-05
34.4947
7.17357e-05
34.4947
7.1683e-05
34.4947
7.16522e-05
34.4947
7.15821e-05
34.4948
7.15021e-05
34.4948
7.14015e-05
34.4948
7.12756e-05
34.4948
7.11197e-05
34.4949
7.09247e-05
34.4949
7.07095e-05
34.4949
7.04762e-05
34.495
7.01187e-05
34.495
6.97387e-05
34.4951
6.93179e-05
34.4951
6.88111e-05
34.4951
6.82296e-05
34.4952
6.75669e-05
34.4952
6.68155e-05
34.4952
6.59699e-05
34.4952
6.5025e-05
34.4952
6.39768e-05
34.4952
6.28215e-05
34.4952
6.15573e-05
34.4952
6.01834e-05
34.4952
5.87004e-05
34.4952
5.71118e-05
34.4951
5.54104e-05
34.4951
5.36219e-05
34.4951
5.17374e-05
34.495
4.97679e-05
34.495
4.77221e-05
34.4949
4.56142e-05
34.4948
4.34544e-05
34.4948
4.12549e-05
34.4947
3.90286e-05
34.4946
3.67895e-05
34.4945
3.45511e-05
34.4944
3.2327e-05
34.4943
3.01304e-05
34.4942
2.7974e-05
34.494
2.58696e-05
34.4939
2.3828e-05
34.4938
2.18589e-05
34.4936
1.99707e-05
34.4935
1.81705e-05
34.4933
1.6464e-05
34.4931
1.48556e-05
34.4929
1.3348e-05
34.4927
1.19429e-05
34.4925
1.06407e-05
34.4923
9.44035e-06
34.4921
8.34004e-06
34.4918
7.33691e-06
34.4916
6.42733e-06
34.4913
5.607e-06
34.491
4.87112e-06
34.4907
4.21452e-06
34.4904
3.63173e-06
34.4901
3.11718e-06
34.4898
2.66527e-06
34.4895
2.27041e-06
34.4891
1.92721e-06
34.4887
1.63044e-06
34.4884
1.37514e-06
34.488
1.15664e-06
34.4876
9.70597e-07
34.4871
8.12997e-07
34.4867
6.80175e-07
34.4862
5.68815e-07
34.4858
4.75931e-07
34.4853
3.98861e-07
34.4848
3.35253e-07
34.4842
2.8304e-07
34.4837
2.40421e-07
34.4831
2.05834e-07
34.4826
1.77936e-07
34.4819
1.55578e-07
34.4813
1.37787e-07
34.4807
1.23744e-07
34.48
1.12758e-07
34.4793
1.04256e-07
34.4786
9.77618e-08
34.4778
9.2884e-08
34.4771
8.93044e-08
34.4763
8.67606e-08
34.4754
8.50405e-08
34.4746
8.39768e-08
34.4737
8.34298e-08
34.4728
8.32931e-08
34.4719
8.3483e-08
34.4709
8.39302e-08
34.4699
8.45816e-08
34.4689
8.5395e-08
34.4678
8.63411e-08
34.4667
8.7394e-08
34.4656
8.85361e-08
34.4644
8.97517e-08
34.4632
9.103e-08
34.462
9.2364e-08
34.4607
9.37464e-08
34.4594
9.51748e-08
34.4581
9.66452e-08
34.4567
9.81522e-08
34.4552
9.96977e-08
34.4538
1.0128e-07
34.4523
1.02898e-07
34.4507
1.04551e-07
34.4491
1.06238e-07
34.4474
1.07959e-07
34.4458
1.09715e-07
34.444
1.11506e-07
34.4422
1.13332e-07
34.4404
1.15195e-07
34.4385
1.17091e-07
34.4365
1.19023e-07
34.4346
1.20989e-07
34.4325
1.22991e-07
34.4304
1.25029e-07
34.4282
1.27104e-07
34.426
1.29214e-07
34.4238
1.31357e-07
34.4214
1.3354e-07
34.4191
1.35757e-07
34.4166
1.38008e-07
34.4141
1.40298e-07
34.4115
1.42621e-07
34.4089
1.44982e-07
34.4062
1.47376e-07
34.4034
1.49808e-07
34.4006
1.52278e-07
34.3977
1.54782e-07
34.3947
1.57323e-07
34.3917
1.59899e-07
34.3886
1.62513e-07
34.3854
1.6516e-07
34.3821
1.67844e-07
34.3788
1.70562e-07
34.3754
1.73317e-07
34.3719
1.76108e-07
34.3684
1.78935e-07
34.3647
1.81797e-07
34.361
1.84694e-07
34.3572
1.87626e-07
34.3534
1.90594e-07
34.3494
1.93594e-07
34.3453
1.96629e-07
34.3412
1.99697e-07
34.337
2.02799e-07
34.3327
2.05936e-07
34.3283
2.09104e-07
34.3238
2.12305e-07
34.3193
2.15537e-07
34.3146
2.188e-07
34.3098
2.22095e-07
34.305
2.25424e-07
34.3001
2.28782e-07
34.295
2.32171e-07
34.2899
2.3559e-07
34.2846
2.39038e-07
34.2793