/*--------------------------------*- C++ -*----------------------------------*\
| =========                 |                                                 |
| \\      /  F ield         | OpenFOAM: The Open Source CFD Toolbox           |
|  \\    /   O peration     | Version:  3.0.x                                 |
|   \\  /    A nd           | Web:      www.OpenFOAM.org                      |
|    \\/     M anipulation  |                                                 |
\*---------------------------------------------------------------------------*/
FoamFile
{
    version     2.0;
    format      ascii;
    class       volScalarField;
    location    "0.48";
    object      p;
}
// * * * * * * * * * * * * * * * * * * * * * * * * * * * * * * * * * * * * * //

dimensions      [1 -1 -2 0 0 0 0];

internalField   nonuniform List<scalar> 
6900
(
1.82016e+07
1.82016e+07
1.82017e+07
1.82017e+07
1.82018e+07
1.82018e+07
1.82019e+07
1.82019e+07
1.8202e+07
1.82021e+07
1.82022e+07
1.82023e+07
1.82025e+07
1.82026e+07
1.82027e+07
1.82029e+07
1.82031e+07
1.82032e+07
1.82034e+07
1.82036e+07
1.82038e+07
1.8204e+07
1.82043e+07
1.82045e+07
1.82048e+07
1.8205e+07
1.82053e+07
1.82056e+07
1.82058e+07
1.82061e+07
1.82065e+07
1.82068e+07
1.82071e+07
1.82075e+07
1.82078e+07
1.82082e+07
1.82086e+07
1.8209e+07
1.82095e+07
1.82099e+07
1.82104e+07
1.82109e+07
1.82114e+07
1.8212e+07
1.82125e+07
1.82131e+07
1.82137e+07
1.82144e+07
1.8215e+07
1.82157e+07
1.82164e+07
1.82171e+07
1.82178e+07
1.82186e+07
1.82193e+07
1.82201e+07
1.82209e+07
1.82218e+07
1.82226e+07
1.82235e+07
1.82244e+07
1.82253e+07
1.82262e+07
1.82271e+07
1.8228e+07
1.8229e+07
1.823e+07
1.8231e+07
1.8232e+07
1.8233e+07
1.82341e+07
1.82352e+07
1.82363e+07
1.82375e+07
1.82386e+07
1.82398e+07
1.8241e+07
1.82423e+07
1.82436e+07
1.82449e+07
1.82463e+07
1.82476e+07
1.82491e+07
1.82505e+07
1.8252e+07
1.82535e+07
1.82551e+07
1.82566e+07
1.82582e+07
1.82599e+07
1.82615e+07
1.82632e+07
1.82649e+07
1.82666e+07
1.82684e+07
1.82701e+07
1.82719e+07
1.82737e+07
1.82755e+07
1.82774e+07
1.82792e+07
1.82811e+07
1.8283e+07
1.82849e+07
1.82869e+07
1.82888e+07
1.82908e+07
1.82928e+07
1.82949e+07
1.8297e+07
1.82991e+07
1.83012e+07
1.83034e+07
1.83056e+07
1.83078e+07
1.83101e+07
1.83124e+07
1.83148e+07
1.83172e+07
1.83196e+07
1.83221e+07
1.83246e+07
1.83271e+07
1.83297e+07
1.83324e+07
1.8335e+07
1.83377e+07
1.83404e+07
1.83432e+07
1.8346e+07
1.83488e+07
1.83516e+07
1.83544e+07
1.83573e+07
1.83602e+07
1.83631e+07
1.8366e+07
1.8369e+07
1.83719e+07
1.83749e+07
1.83779e+07
1.8381e+07
1.8384e+07
1.83871e+07
1.83902e+07
1.83933e+07
1.83965e+07
1.83996e+07
1.84029e+07
1.84061e+07
1.84094e+07
1.84127e+07
1.8416e+07
1.84194e+07
1.84229e+07
1.84263e+07
1.84298e+07
1.84334e+07
1.8437e+07
1.84406e+07
1.84443e+07
1.8448e+07
1.84517e+07
1.84555e+07
1.84594e+07
1.84632e+07
1.84671e+07
1.84711e+07
1.8475e+07
1.8479e+07
1.8483e+07
1.84871e+07
1.84911e+07
1.84952e+07
1.84993e+07
1.85034e+07
1.85075e+07
1.85117e+07
1.85158e+07
1.852e+07
1.85242e+07
1.85284e+07
1.85326e+07
1.85369e+07
1.85411e+07
1.85454e+07
1.85498e+07
1.85541e+07
1.85585e+07
1.85629e+07
1.85673e+07
1.85717e+07
1.85762e+07
1.85807e+07
1.85852e+07
1.85898e+07
1.85943e+07
1.85989e+07
1.86036e+07
1.86085e+07
1.82016e+07
1.82016e+07
1.82017e+07
1.82017e+07
1.82018e+07
1.82018e+07
1.82019e+07
1.82019e+07
1.8202e+07
1.82021e+07
1.82022e+07
1.82023e+07
1.82025e+07
1.82026e+07
1.82027e+07
1.82029e+07
1.82031e+07
1.82032e+07
1.82034e+07
1.82036e+07
1.82038e+07
1.8204e+07
1.82043e+07
1.82045e+07
1.82048e+07
1.8205e+07
1.82053e+07
1.82056e+07
1.82058e+07
1.82061e+07
1.82065e+07
1.82068e+07
1.82071e+07
1.82075e+07
1.82078e+07
1.82082e+07
1.82086e+07
1.8209e+07
1.82095e+07
1.82099e+07
1.82104e+07
1.82109e+07
1.82114e+07
1.8212e+07
1.82125e+07
1.82131e+07
1.82137e+07
1.82144e+07
1.8215e+07
1.82157e+07
1.82164e+07
1.82171e+07
1.82178e+07
1.82186e+07
1.82193e+07
1.82201e+07
1.82209e+07
1.82218e+07
1.82226e+07
1.82235e+07
1.82244e+07
1.82253e+07
1.82262e+07
1.82271e+07
1.8228e+07
1.8229e+07
1.823e+07
1.8231e+07
1.8232e+07
1.8233e+07
1.82341e+07
1.82352e+07
1.82363e+07
1.82375e+07
1.82386e+07
1.82398e+07
1.8241e+07
1.82423e+07
1.82436e+07
1.82449e+07
1.82463e+07
1.82476e+07
1.82491e+07
1.82505e+07
1.8252e+07
1.82535e+07
1.82551e+07
1.82566e+07
1.82582e+07
1.82599e+07
1.82615e+07
1.82632e+07
1.82649e+07
1.82666e+07
1.82684e+07
1.82701e+07
1.82719e+07
1.82737e+07
1.82755e+07
1.82774e+07
1.82792e+07
1.82811e+07
1.8283e+07
1.82849e+07
1.82869e+07
1.82888e+07
1.82908e+07
1.82928e+07
1.82949e+07
1.8297e+07
1.82991e+07
1.83012e+07
1.83034e+07
1.83056e+07
1.83078e+07
1.83101e+07
1.83124e+07
1.83148e+07
1.83172e+07
1.83196e+07
1.83221e+07
1.83246e+07
1.83271e+07
1.83297e+07
1.83324e+07
1.8335e+07
1.83377e+07
1.83404e+07
1.83432e+07
1.8346e+07
1.83488e+07
1.83516e+07
1.83544e+07
1.83573e+07
1.83602e+07
1.83631e+07
1.8366e+07
1.8369e+07
1.83719e+07
1.83749e+07
1.83779e+07
1.8381e+07
1.8384e+07
1.83871e+07
1.83902e+07
1.83933e+07
1.83965e+07
1.83996e+07
1.84029e+07
1.84061e+07
1.84094e+07
1.84127e+07
1.8416e+07
1.84194e+07
1.84229e+07
1.84263e+07
1.84298e+07
1.84334e+07
1.8437e+07
1.84406e+07
1.84443e+07
1.8448e+07
1.84517e+07
1.84555e+07
1.84594e+07
1.84632e+07
1.84671e+07
1.84711e+07
1.8475e+07
1.8479e+07
1.8483e+07
1.84871e+07
1.84911e+07
1.84952e+07
1.84993e+07
1.85034e+07
1.85075e+07
1.85117e+07
1.85158e+07
1.852e+07
1.85242e+07
1.85284e+07
1.85326e+07
1.85369e+07
1.85411e+07
1.85454e+07
1.85498e+07
1.85541e+07
1.85585e+07
1.85629e+07
1.85673e+07
1.85717e+07
1.85762e+07
1.85807e+07
1.85852e+07
1.85898e+07
1.85943e+07
1.85989e+07
1.86036e+07
1.86085e+07
1.82016e+07
1.82016e+07
1.82017e+07
1.82017e+07
1.82018e+07
1.82018e+07
1.82019e+07
1.82019e+07
1.8202e+07
1.82021e+07
1.82022e+07
1.82023e+07
1.82025e+07
1.82026e+07
1.82027e+07
1.82029e+07
1.82031e+07
1.82032e+07
1.82034e+07
1.82036e+07
1.82038e+07
1.8204e+07
1.82043e+07
1.82045e+07
1.82048e+07
1.8205e+07
1.82053e+07
1.82056e+07
1.82058e+07
1.82061e+07
1.82065e+07
1.82068e+07
1.82071e+07
1.82075e+07
1.82078e+07
1.82082e+07
1.82086e+07
1.8209e+07
1.82095e+07
1.82099e+07
1.82104e+07
1.82109e+07
1.82114e+07
1.8212e+07
1.82125e+07
1.82131e+07
1.82137e+07
1.82144e+07
1.8215e+07
1.82157e+07
1.82164e+07
1.82171e+07
1.82178e+07
1.82186e+07
1.82193e+07
1.82201e+07
1.82209e+07
1.82218e+07
1.82226e+07
1.82235e+07
1.82244e+07
1.82253e+07
1.82262e+07
1.82271e+07
1.8228e+07
1.8229e+07
1.823e+07
1.8231e+07
1.8232e+07
1.8233e+07
1.82341e+07
1.82352e+07
1.82363e+07
1.82375e+07
1.82386e+07
1.82398e+07
1.8241e+07
1.82423e+07
1.82436e+07
1.82449e+07
1.82463e+07
1.82476e+07
1.82491e+07
1.82505e+07
1.8252e+07
1.82535e+07
1.82551e+07
1.82566e+07
1.82582e+07
1.82599e+07
1.82615e+07
1.82632e+07
1.82649e+07
1.82666e+07
1.82684e+07
1.82701e+07
1.82719e+07
1.82737e+07
1.82755e+07
1.82774e+07
1.82792e+07
1.82811e+07
1.8283e+07
1.82849e+07
1.82869e+07
1.82888e+07
1.82908e+07
1.82928e+07
1.82949e+07
1.8297e+07
1.82991e+07
1.83012e+07
1.83034e+07
1.83056e+07
1.83078e+07
1.83101e+07
1.83124e+07
1.83148e+07
1.83172e+07
1.83196e+07
1.83221e+07
1.83246e+07
1.83271e+07
1.83297e+07
1.83324e+07
1.8335e+07
1.83377e+07
1.83404e+07
1.83432e+07
1.8346e+07
1.83488e+07
1.83516e+07
1.83544e+07
1.83573e+07
1.83602e+07
1.83631e+07
1.8366e+07
1.8369e+07
1.83719e+07
1.83749e+07
1.83779e+07
1.8381e+07
1.8384e+07
1.83871e+07
1.83902e+07
1.83933e+07
1.83965e+07
1.83996e+07
1.84029e+07
1.84061e+07
1.84094e+07
1.84127e+07
1.8416e+07
1.84194e+07
1.84229e+07
1.84263e+07
1.84298e+07
1.84334e+07
1.8437e+07
1.84406e+07
1.84443e+07
1.8448e+07
1.84517e+07
1.84555e+07
1.84594e+07
1.84632e+07
1.84671e+07
1.84711e+07
1.8475e+07
1.8479e+07
1.8483e+07
1.84871e+07
1.84911e+07
1.84952e+07
1.84993e+07
1.85034e+07
1.85075e+07
1.85117e+07
1.85158e+07
1.852e+07
1.85242e+07
1.85284e+07
1.85326e+07
1.85369e+07
1.85411e+07
1.85454e+07
1.85498e+07
1.85541e+07
1.85585e+07
1.85629e+07
1.85673e+07
1.85717e+07
1.85762e+07
1.85807e+07
1.85852e+07
1.85898e+07
1.85943e+07
1.85989e+07
1.86035e+07
1.86082e+07
1.82016e+07
1.82016e+07
1.82017e+07
1.82017e+07
1.82018e+07
1.82018e+07
1.82019e+07
1.82019e+07
1.8202e+07
1.82021e+07
1.82022e+07
1.82023e+07
1.82025e+07
1.82026e+07
1.82027e+07
1.82029e+07
1.82031e+07
1.82032e+07
1.82034e+07
1.82036e+07
1.82038e+07
1.8204e+07
1.82043e+07
1.82045e+07
1.82048e+07
1.8205e+07
1.82053e+07
1.82056e+07
1.82058e+07
1.82061e+07
1.82065e+07
1.82068e+07
1.82071e+07
1.82075e+07
1.82078e+07
1.82082e+07
1.82086e+07
1.8209e+07
1.82095e+07
1.82099e+07
1.82104e+07
1.82109e+07
1.82114e+07
1.8212e+07
1.82125e+07
1.82131e+07
1.82137e+07
1.82144e+07
1.8215e+07
1.82157e+07
1.82164e+07
1.82171e+07
1.82178e+07
1.82186e+07
1.82193e+07
1.82201e+07
1.82209e+07
1.82218e+07
1.82226e+07
1.82235e+07
1.82244e+07
1.82253e+07
1.82262e+07
1.82271e+07
1.8228e+07
1.8229e+07
1.823e+07
1.8231e+07
1.8232e+07
1.8233e+07
1.82341e+07
1.82352e+07
1.82363e+07
1.82375e+07
1.82386e+07
1.82398e+07
1.8241e+07
1.82423e+07
1.82436e+07
1.82449e+07
1.82463e+07
1.82476e+07
1.82491e+07
1.82505e+07
1.8252e+07
1.82535e+07
1.82551e+07
1.82566e+07
1.82582e+07
1.82599e+07
1.82615e+07
1.82632e+07
1.82649e+07
1.82666e+07
1.82684e+07
1.82701e+07
1.82719e+07
1.82737e+07
1.82755e+07
1.82774e+07
1.82792e+07
1.82811e+07
1.8283e+07
1.82849e+07
1.82869e+07
1.82888e+07
1.82908e+07
1.82928e+07
1.82949e+07
1.8297e+07
1.82991e+07
1.83012e+07
1.83034e+07
1.83056e+07
1.83078e+07
1.83101e+07
1.83124e+07
1.83148e+07
1.83172e+07
1.83196e+07
1.83221e+07
1.83246e+07
1.83271e+07
1.83297e+07
1.83324e+07
1.8335e+07
1.83377e+07
1.83404e+07
1.83432e+07
1.8346e+07
1.83488e+07
1.83516e+07
1.83544e+07
1.83573e+07
1.83602e+07
1.83631e+07
1.8366e+07
1.8369e+07
1.83719e+07
1.83749e+07
1.83779e+07
1.8381e+07
1.8384e+07
1.83871e+07
1.83902e+07
1.83933e+07
1.83965e+07
1.83996e+07
1.84029e+07
1.84061e+07
1.84094e+07
1.84127e+07
1.8416e+07
1.84194e+07
1.84229e+07
1.84263e+07
1.84298e+07
1.84334e+07
1.8437e+07
1.84406e+07
1.84443e+07
1.8448e+07
1.84517e+07
1.84555e+07
1.84594e+07
1.84632e+07
1.84671e+07
1.84711e+07
1.8475e+07
1.8479e+07
1.8483e+07
1.84871e+07
1.84911e+07
1.84952e+07
1.84993e+07
1.85034e+07
1.85075e+07
1.85117e+07
1.85158e+07
1.852e+07
1.85242e+07
1.85284e+07
1.85326e+07
1.85369e+07
1.85411e+07
1.85454e+07
1.85498e+07
1.85541e+07
1.85585e+07
1.85629e+07
1.85673e+07
1.85717e+07
1.85762e+07
1.85807e+07
1.85852e+07
1.85898e+07
1.85943e+07
1.85989e+07
1.86034e+07
1.86079e+07
1.82016e+07
1.82016e+07
1.82017e+07
1.82017e+07
1.82018e+07
1.82018e+07
1.82019e+07
1.82019e+07
1.8202e+07
1.82021e+07
1.82022e+07
1.82023e+07
1.82025e+07
1.82026e+07
1.82027e+07
1.82029e+07
1.82031e+07
1.82032e+07
1.82034e+07
1.82036e+07
1.82038e+07
1.8204e+07
1.82043e+07
1.82045e+07
1.82048e+07
1.8205e+07
1.82053e+07
1.82056e+07
1.82058e+07
1.82061e+07
1.82065e+07
1.82068e+07
1.82071e+07
1.82075e+07
1.82078e+07
1.82082e+07
1.82086e+07
1.8209e+07
1.82095e+07
1.82099e+07
1.82104e+07
1.82109e+07
1.82114e+07
1.8212e+07
1.82125e+07
1.82131e+07
1.82137e+07
1.82144e+07
1.8215e+07
1.82157e+07
1.82164e+07
1.82171e+07
1.82178e+07
1.82186e+07
1.82193e+07
1.82201e+07
1.82209e+07
1.82218e+07
1.82226e+07
1.82235e+07
1.82244e+07
1.82253e+07
1.82262e+07
1.82271e+07
1.8228e+07
1.8229e+07
1.823e+07
1.8231e+07
1.8232e+07
1.8233e+07
1.82341e+07
1.82352e+07
1.82363e+07
1.82375e+07
1.82386e+07
1.82398e+07
1.8241e+07
1.82423e+07
1.82436e+07
1.82449e+07
1.82463e+07
1.82476e+07
1.82491e+07
1.82505e+07
1.8252e+07
1.82535e+07
1.82551e+07
1.82566e+07
1.82582e+07
1.82599e+07
1.82615e+07
1.82632e+07
1.82649e+07
1.82666e+07
1.82684e+07
1.82701e+07
1.82719e+07
1.82737e+07
1.82755e+07
1.82774e+07
1.82792e+07
1.82811e+07
1.8283e+07
1.82849e+07
1.82869e+07
1.82888e+07
1.82908e+07
1.82928e+07
1.82949e+07
1.8297e+07
1.82991e+07
1.83012e+07
1.83034e+07
1.83056e+07
1.83078e+07
1.83101e+07
1.83124e+07
1.83148e+07
1.83172e+07
1.83196e+07
1.83221e+07
1.83246e+07
1.83271e+07
1.83297e+07
1.83324e+07
1.8335e+07
1.83377e+07
1.83404e+07
1.83432e+07
1.8346e+07
1.83488e+07
1.83516e+07
1.83544e+07
1.83573e+07
1.83602e+07
1.83631e+07
1.8366e+07
1.8369e+07
1.83719e+07
1.83749e+07
1.83779e+07
1.8381e+07
1.8384e+07
1.83871e+07
1.83902e+07
1.83933e+07
1.83965e+07
1.83996e+07
1.84029e+07
1.84061e+07
1.84094e+07
1.84127e+07
1.8416e+07
1.84194e+07
1.84229e+07
1.84263e+07
1.84298e+07
1.84334e+07
1.8437e+07
1.84406e+07
1.84443e+07
1.8448e+07
1.84517e+07
1.84555e+07
1.84594e+07
1.84632e+07
1.84671e+07
1.84711e+07
1.8475e+07
1.8479e+07
1.8483e+07
1.84871e+07
1.84911e+07
1.84952e+07
1.84993e+07
1.85034e+07
1.85075e+07
1.85117e+07
1.85158e+07
1.852e+07
1.85242e+07
1.85284e+07
1.85326e+07
1.85369e+07
1.85411e+07
1.85454e+07
1.85498e+07
1.85541e+07
1.85585e+07
1.85629e+07
1.85673e+07
1.85717e+07
1.85762e+07
1.85807e+07
1.85852e+07
1.85898e+07
1.85943e+07
1.85989e+07
1.86034e+07
1.86078e+07
1.86144e+07
1.86168e+07
1.86179e+07
1.86186e+07
1.86192e+07
1.862e+07
1.86209e+07
1.8622e+07
1.86227e+07
1.86222e+07
1.86208e+07
1.862e+07
1.86198e+07
1.86197e+07
1.86203e+07
1.86224e+07
1.86258e+07
1.86282e+07
1.86284e+07
1.86251e+07
1.86136e+07
1.86152e+07
1.86161e+07
1.86168e+07
1.86174e+07
1.86182e+07
1.86191e+07
1.86202e+07
1.86208e+07
1.86201e+07
1.86185e+07
1.86177e+07
1.86176e+07
1.86177e+07
1.86184e+07
1.86207e+07
1.86239e+07
1.86258e+07
1.86255e+07
1.86217e+07
1.86112e+07
1.8612e+07
1.86127e+07
1.86131e+07
1.86133e+07
1.86134e+07
1.86133e+07
1.8613e+07
1.86126e+07
1.86121e+07
1.86116e+07
1.86109e+07
1.86098e+07
1.86086e+07
1.86072e+07
1.86056e+07
1.8604e+07
1.86026e+07
1.86013e+07
1.86001e+07
1.86075e+07
1.86079e+07
1.86089e+07
1.86097e+07
1.861e+07
1.86096e+07
1.8609e+07
1.86084e+07
1.86077e+07
1.86069e+07
1.86061e+07
1.86052e+07
1.86048e+07
1.86041e+07
1.86035e+07
1.86031e+07
1.86028e+07
1.86025e+07
1.86023e+07
1.86024e+07
1.86048e+07
1.86033e+07
1.86032e+07
1.86037e+07
1.86038e+07
1.86033e+07
1.86026e+07
1.86018e+07
1.86008e+07
1.85998e+07
1.85988e+07
1.85977e+07
1.8597e+07
1.85962e+07
1.85954e+07
1.85948e+07
1.85942e+07
1.85939e+07
1.85938e+07
1.85943e+07
1.8604e+07
1.86061e+07
1.86151e+07
1.86182e+07
1.8619e+07
1.86218e+07
1.86261e+07
1.86303e+07
1.86337e+07
1.8637e+07
1.86409e+07
1.8645e+07
1.86488e+07
1.86525e+07
1.86562e+07
1.86601e+07
1.86641e+07
1.86681e+07
1.8672e+07
1.86759e+07
1.86798e+07
1.86838e+07
1.86878e+07
1.86919e+07
1.86959e+07
1.87e+07
1.8704e+07
1.87081e+07
1.87122e+07
1.87163e+07
1.87204e+07
1.87246e+07
1.87287e+07
1.87327e+07
1.87368e+07
1.8741e+07
1.87451e+07
1.87493e+07
1.87535e+07
1.87577e+07
1.87619e+07
1.87661e+07
1.87703e+07
1.87745e+07
1.87788e+07
1.8783e+07
1.87873e+07
1.87915e+07
1.87958e+07
1.88001e+07
1.88043e+07
1.88086e+07
1.88129e+07
1.88172e+07
1.88215e+07
1.88258e+07
1.88301e+07
1.88344e+07
1.88387e+07
1.8843e+07
1.88473e+07
1.88516e+07
1.88558e+07
1.88601e+07
1.88644e+07
1.88687e+07
1.8873e+07
1.88772e+07
1.88815e+07
1.88857e+07
1.889e+07
1.88943e+07
1.88985e+07
1.89027e+07
1.8907e+07
1.89112e+07
1.89155e+07
1.89197e+07
1.89239e+07
1.89282e+07
1.89324e+07
1.89366e+07
1.89409e+07
1.89452e+07
1.89497e+07
1.89541e+07
1.89582e+07
1.8962e+07
1.89661e+07
1.89703e+07
1.89746e+07
1.89788e+07
1.89831e+07
1.89874e+07
1.89917e+07
1.8996e+07
1.90003e+07
1.90047e+07
1.9009e+07
1.90133e+07
1.90177e+07
1.9022e+07
1.90263e+07
1.90306e+07
1.90349e+07
1.90392e+07
1.90434e+07
1.90477e+07
1.90519e+07
1.90561e+07
1.90603e+07
1.90645e+07
1.90686e+07
1.90727e+07
1.90768e+07
1.90809e+07
1.90849e+07
1.90889e+07
1.90929e+07
1.90969e+07
1.91008e+07
1.91048e+07
1.91087e+07
1.91126e+07
1.91165e+07
1.91204e+07
1.91242e+07
1.91281e+07
1.91319e+07
1.91357e+07
1.91395e+07
1.91433e+07
1.9147e+07
1.91508e+07
1.91545e+07
1.91583e+07
1.9162e+07
1.91657e+07
1.91693e+07
1.9173e+07
1.91767e+07
1.91803e+07
1.91839e+07
1.91876e+07
1.91912e+07
1.91947e+07
1.91983e+07
1.92019e+07
1.92054e+07
1.9209e+07
1.92125e+07
1.9216e+07
1.92195e+07
1.9223e+07
1.92265e+07
1.923e+07
1.92334e+07
1.92368e+07
1.92403e+07
1.92437e+07
1.92471e+07
1.92504e+07
1.92538e+07
1.92571e+07
1.92604e+07
1.92637e+07
1.9267e+07
1.92703e+07
1.92735e+07
1.92767e+07
1.92799e+07
1.92831e+07
1.92862e+07
1.92894e+07
1.92925e+07
1.92956e+07
1.92986e+07
1.93017e+07
1.93047e+07
1.93077e+07
1.93107e+07
1.93137e+07
1.93166e+07
1.93195e+07
1.93225e+07
1.93253e+07
1.93282e+07
1.9331e+07
1.93339e+07
1.93367e+07
1.93395e+07
1.93422e+07
1.9345e+07
1.93477e+07
1.93504e+07
1.93531e+07
1.93558e+07
1.93585e+07
1.93611e+07
1.93638e+07
1.86028e+07
1.8606e+07
1.86151e+07
1.86182e+07
1.8619e+07
1.86218e+07
1.86261e+07
1.86303e+07
1.86337e+07
1.8637e+07
1.86409e+07
1.8645e+07
1.86488e+07
1.86525e+07
1.86562e+07
1.86601e+07
1.86641e+07
1.86681e+07
1.8672e+07
1.86759e+07
1.86798e+07
1.86838e+07
1.86878e+07
1.86919e+07
1.86959e+07
1.87e+07
1.8704e+07
1.87081e+07
1.87122e+07
1.87163e+07
1.87204e+07
1.87246e+07
1.87287e+07
1.87327e+07
1.87368e+07
1.8741e+07
1.87451e+07
1.87493e+07
1.87535e+07
1.87577e+07
1.87619e+07
1.87661e+07
1.87703e+07
1.87745e+07
1.87788e+07
1.8783e+07
1.87873e+07
1.87915e+07
1.87958e+07
1.88001e+07
1.88043e+07
1.88086e+07
1.88129e+07
1.88172e+07
1.88215e+07
1.88258e+07
1.88301e+07
1.88344e+07
1.88387e+07
1.8843e+07
1.88473e+07
1.88516e+07
1.88558e+07
1.88601e+07
1.88644e+07
1.88687e+07
1.8873e+07
1.88772e+07
1.88815e+07
1.88857e+07
1.889e+07
1.88942e+07
1.88985e+07
1.89027e+07
1.8907e+07
1.89112e+07
1.89155e+07
1.89197e+07
1.89239e+07
1.89282e+07
1.89324e+07
1.89366e+07
1.89409e+07
1.89452e+07
1.89497e+07
1.89541e+07
1.89581e+07
1.8962e+07
1.89661e+07
1.89703e+07
1.89746e+07
1.89788e+07
1.89831e+07
1.89874e+07
1.89917e+07
1.8996e+07
1.90003e+07
1.90047e+07
1.9009e+07
1.90133e+07
1.90177e+07
1.9022e+07
1.90263e+07
1.90306e+07
1.90349e+07
1.90392e+07
1.90434e+07
1.90477e+07
1.90519e+07
1.90561e+07
1.90603e+07
1.90645e+07
1.90686e+07
1.90727e+07
1.90768e+07
1.90808e+07
1.90849e+07
1.90889e+07
1.90929e+07
1.90969e+07
1.91008e+07
1.91048e+07
1.91087e+07
1.91126e+07
1.91165e+07
1.91204e+07
1.91242e+07
1.91281e+07
1.91319e+07
1.91357e+07
1.91395e+07
1.91433e+07
1.9147e+07
1.91508e+07
1.91545e+07
1.91583e+07
1.9162e+07
1.91657e+07
1.91693e+07
1.9173e+07
1.91767e+07
1.91803e+07
1.91839e+07
1.91876e+07
1.91912e+07
1.91947e+07
1.91983e+07
1.92019e+07
1.92054e+07
1.9209e+07
1.92125e+07
1.9216e+07
1.92195e+07
1.9223e+07
1.92265e+07
1.923e+07
1.92334e+07
1.92368e+07
1.92403e+07
1.92437e+07
1.92471e+07
1.92504e+07
1.92538e+07
1.92571e+07
1.92604e+07
1.92637e+07
1.9267e+07
1.92703e+07
1.92735e+07
1.92767e+07
1.92799e+07
1.92831e+07
1.92862e+07
1.92894e+07
1.92925e+07
1.92956e+07
1.92986e+07
1.93017e+07
1.93047e+07
1.93077e+07
1.93107e+07
1.93137e+07
1.93166e+07
1.93195e+07
1.93225e+07
1.93253e+07
1.93282e+07
1.9331e+07
1.93339e+07
1.93367e+07
1.93395e+07
1.93422e+07
1.9345e+07
1.93477e+07
1.93504e+07
1.93531e+07
1.93558e+07
1.93585e+07
1.93611e+07
1.93638e+07
1.85982e+07
1.86053e+07
1.86105e+07
1.86141e+07
1.86177e+07
1.86214e+07
1.86253e+07
1.8629e+07
1.86328e+07
1.86367e+07
1.86405e+07
1.86444e+07
1.86482e+07
1.86521e+07
1.8656e+07
1.866e+07
1.86639e+07
1.86678e+07
1.86718e+07
1.86758e+07
1.86798e+07
1.86838e+07
1.86878e+07
1.86919e+07
1.86959e+07
1.87e+07
1.8704e+07
1.87081e+07
1.87122e+07
1.87163e+07
1.87204e+07
1.87245e+07
1.87286e+07
1.87327e+07
1.87368e+07
1.8741e+07
1.87451e+07
1.87493e+07
1.87535e+07
1.87577e+07
1.87619e+07
1.87661e+07
1.87703e+07
1.87745e+07
1.87788e+07
1.8783e+07
1.87873e+07
1.87915e+07
1.87958e+07
1.88001e+07
1.88044e+07
1.88086e+07
1.88129e+07
1.88172e+07
1.88215e+07
1.88258e+07
1.88301e+07
1.88344e+07
1.88387e+07
1.8843e+07
1.88473e+07
1.88516e+07
1.88559e+07
1.88601e+07
1.88644e+07
1.88687e+07
1.8873e+07
1.88772e+07
1.88815e+07
1.88858e+07
1.889e+07
1.88943e+07
1.88985e+07
1.89028e+07
1.8907e+07
1.89112e+07
1.89155e+07
1.89197e+07
1.8924e+07
1.89282e+07
1.89324e+07
1.89367e+07
1.89409e+07
1.89452e+07
1.89494e+07
1.89535e+07
1.89577e+07
1.89619e+07
1.89662e+07
1.89704e+07
1.89747e+07
1.8979e+07
1.89832e+07
1.89875e+07
1.89918e+07
1.89962e+07
1.90005e+07
1.90048e+07
1.90091e+07
1.90135e+07
1.90178e+07
1.90221e+07
1.90264e+07
1.90307e+07
1.90349e+07
1.90392e+07
1.90435e+07
1.90477e+07
1.90519e+07
1.90561e+07
1.90603e+07
1.90645e+07
1.90686e+07
1.90727e+07
1.90768e+07
1.90808e+07
1.90849e+07
1.90889e+07
1.90929e+07
1.90969e+07
1.91008e+07
1.91048e+07
1.91087e+07
1.91126e+07
1.91165e+07
1.91204e+07
1.91242e+07
1.91281e+07
1.91319e+07
1.91357e+07
1.91395e+07
1.91433e+07
1.9147e+07
1.91508e+07
1.91545e+07
1.91583e+07
1.9162e+07
1.91657e+07
1.91693e+07
1.9173e+07
1.91767e+07
1.91803e+07
1.91839e+07
1.91876e+07
1.91912e+07
1.91947e+07
1.91983e+07
1.92019e+07
1.92054e+07
1.9209e+07
1.92125e+07
1.9216e+07
1.92195e+07
1.9223e+07
1.92265e+07
1.923e+07
1.92334e+07
1.92368e+07
1.92403e+07
1.92437e+07
1.92471e+07
1.92504e+07
1.92538e+07
1.92571e+07
1.92604e+07
1.92637e+07
1.9267e+07
1.92703e+07
1.92735e+07
1.92767e+07
1.92799e+07
1.92831e+07
1.92862e+07
1.92894e+07
1.92925e+07
1.92956e+07
1.92986e+07
1.93017e+07
1.93047e+07
1.93077e+07
1.93107e+07
1.93137e+07
1.93166e+07
1.93195e+07
1.93225e+07
1.93253e+07
1.93282e+07
1.9331e+07
1.93339e+07
1.93367e+07
1.93395e+07
1.93422e+07
1.9345e+07
1.93477e+07
1.93504e+07
1.93531e+07
1.93558e+07
1.93584e+07
1.93611e+07
1.93637e+07
1.86024e+07
1.86061e+07
1.86101e+07
1.86136e+07
1.86171e+07
1.86208e+07
1.86246e+07
1.86284e+07
1.86323e+07
1.86361e+07
1.864e+07
1.86439e+07
1.86478e+07
1.86517e+07
1.86557e+07
1.86596e+07
1.86636e+07
1.86676e+07
1.86716e+07
1.86756e+07
1.86796e+07
1.86836e+07
1.86877e+07
1.86917e+07
1.86958e+07
1.86999e+07
1.87039e+07
1.8708e+07
1.87121e+07
1.87162e+07
1.87203e+07
1.87244e+07
1.87285e+07
1.87327e+07
1.87368e+07
1.8741e+07
1.87451e+07
1.87493e+07
1.87535e+07
1.87577e+07
1.87619e+07
1.87661e+07
1.87703e+07
1.87745e+07
1.87788e+07
1.8783e+07
1.87873e+07
1.87915e+07
1.87958e+07
1.88001e+07
1.88044e+07
1.88086e+07
1.88129e+07
1.88172e+07
1.88215e+07
1.88258e+07
1.88301e+07
1.88344e+07
1.88387e+07
1.8843e+07
1.88473e+07
1.88516e+07
1.88559e+07
1.88601e+07
1.88644e+07
1.88687e+07
1.8873e+07
1.88772e+07
1.88815e+07
1.88858e+07
1.889e+07
1.88943e+07
1.88985e+07
1.89028e+07
1.8907e+07
1.89113e+07
1.89155e+07
1.89198e+07
1.8924e+07
1.89283e+07
1.89325e+07
1.89368e+07
1.8941e+07
1.89453e+07
1.89495e+07
1.89537e+07
1.89578e+07
1.8962e+07
1.89663e+07
1.89706e+07
1.89748e+07
1.89791e+07
1.89834e+07
1.89877e+07
1.8992e+07
1.89963e+07
1.90006e+07
1.90049e+07
1.90092e+07
1.90135e+07
1.90179e+07
1.90221e+07
1.90264e+07
1.90307e+07
1.9035e+07
1.90392e+07
1.90435e+07
1.90477e+07
1.90519e+07
1.90562e+07
1.90603e+07
1.90645e+07
1.90686e+07
1.90727e+07
1.90768e+07
1.90808e+07
1.90849e+07
1.90889e+07
1.90929e+07
1.90969e+07
1.91008e+07
1.91048e+07
1.91087e+07
1.91126e+07
1.91165e+07
1.91204e+07
1.91242e+07
1.91281e+07
1.91319e+07
1.91357e+07
1.91395e+07
1.91433e+07
1.9147e+07
1.91508e+07
1.91545e+07
1.91583e+07
1.9162e+07
1.91657e+07
1.91693e+07
1.9173e+07
1.91767e+07
1.91803e+07
1.91839e+07
1.91876e+07
1.91912e+07
1.91947e+07
1.91983e+07
1.92019e+07
1.92054e+07
1.9209e+07
1.92125e+07
1.9216e+07
1.92195e+07
1.9223e+07
1.92265e+07
1.923e+07
1.92334e+07
1.92368e+07
1.92403e+07
1.92437e+07
1.92471e+07
1.92504e+07
1.92538e+07
1.92571e+07
1.92604e+07
1.92637e+07
1.9267e+07
1.92703e+07
1.92735e+07
1.92767e+07
1.92799e+07
1.92831e+07
1.92862e+07
1.92894e+07
1.92925e+07
1.92956e+07
1.92986e+07
1.93017e+07
1.93047e+07
1.93077e+07
1.93107e+07
1.93137e+07
1.93166e+07
1.93195e+07
1.93225e+07
1.93253e+07
1.93282e+07
1.9331e+07
1.93339e+07
1.93367e+07
1.93395e+07
1.93422e+07
1.9345e+07
1.93477e+07
1.93504e+07
1.93531e+07
1.93558e+07
1.93584e+07
1.93611e+07
1.93637e+07
1.8601e+07
1.8606e+07
1.861e+07
1.86135e+07
1.86171e+07
1.86208e+07
1.86246e+07
1.86284e+07
1.86323e+07
1.86361e+07
1.864e+07
1.86439e+07
1.86478e+07
1.86517e+07
1.86557e+07
1.86596e+07
1.86636e+07
1.86676e+07
1.86716e+07
1.86756e+07
1.86796e+07
1.86836e+07
1.86877e+07
1.86917e+07
1.86958e+07
1.86999e+07
1.87039e+07
1.8708e+07
1.87121e+07
1.87162e+07
1.87203e+07
1.87244e+07
1.87285e+07
1.87327e+07
1.87368e+07
1.8741e+07
1.87451e+07
1.87493e+07
1.87535e+07
1.87577e+07
1.87619e+07
1.87661e+07
1.87703e+07
1.87745e+07
1.87788e+07
1.8783e+07
1.87873e+07
1.87915e+07
1.87958e+07
1.88001e+07
1.88044e+07
1.88086e+07
1.88129e+07
1.88172e+07
1.88215e+07
1.88258e+07
1.88301e+07
1.88344e+07
1.88387e+07
1.8843e+07
1.88473e+07
1.88516e+07
1.88559e+07
1.88601e+07
1.88644e+07
1.88687e+07
1.8873e+07
1.88772e+07
1.88815e+07
1.88858e+07
1.889e+07
1.88943e+07
1.88985e+07
1.89028e+07
1.8907e+07
1.89113e+07
1.89155e+07
1.89198e+07
1.8924e+07
1.89283e+07
1.89325e+07
1.89368e+07
1.8941e+07
1.89453e+07
1.89495e+07
1.89537e+07
1.89578e+07
1.8962e+07
1.89663e+07
1.89706e+07
1.89748e+07
1.89791e+07
1.89834e+07
1.89877e+07
1.8992e+07
1.89963e+07
1.90006e+07
1.90049e+07
1.90092e+07
1.90135e+07
1.90179e+07
1.90221e+07
1.90264e+07
1.90307e+07
1.9035e+07
1.90392e+07
1.90435e+07
1.90477e+07
1.90519e+07
1.90562e+07
1.90603e+07
1.90645e+07
1.90686e+07
1.90727e+07
1.90768e+07
1.90808e+07
1.90849e+07
1.90889e+07
1.90929e+07
1.90969e+07
1.91008e+07
1.91048e+07
1.91087e+07
1.91126e+07
1.91165e+07
1.91204e+07
1.91242e+07
1.91281e+07
1.91319e+07
1.91357e+07
1.91395e+07
1.91433e+07
1.9147e+07
1.91508e+07
1.91545e+07
1.91583e+07
1.9162e+07
1.91657e+07
1.91693e+07
1.9173e+07
1.91767e+07
1.91803e+07
1.91839e+07
1.91876e+07
1.91912e+07
1.91947e+07
1.91983e+07
1.92019e+07
1.92054e+07
1.9209e+07
1.92125e+07
1.9216e+07
1.92195e+07
1.9223e+07
1.92265e+07
1.923e+07
1.92334e+07
1.92368e+07
1.92403e+07
1.92437e+07
1.92471e+07
1.92504e+07
1.92538e+07
1.92571e+07
1.92604e+07
1.92637e+07
1.9267e+07
1.92703e+07
1.92735e+07
1.92767e+07
1.92799e+07
1.92831e+07
1.92862e+07
1.92894e+07
1.92925e+07
1.92956e+07
1.92986e+07
1.93017e+07
1.93047e+07
1.93077e+07
1.93107e+07
1.93137e+07
1.93166e+07
1.93195e+07
1.93225e+07
1.93253e+07
1.93282e+07
1.9331e+07
1.93339e+07
1.93367e+07
1.93395e+07
1.93422e+07
1.9345e+07
1.93477e+07
1.93504e+07
1.93531e+07
1.93558e+07
1.93584e+07
1.93611e+07
1.93637e+07
1.93654e+07
1.93658e+07
1.93662e+07
1.93667e+07
1.93672e+07
1.93676e+07
1.9368e+07
1.93684e+07
1.93688e+07
1.93692e+07
1.93696e+07
1.937e+07
1.93704e+07
1.93708e+07
1.93712e+07
1.93716e+07
1.9372e+07
1.93724e+07
1.93728e+07
1.93731e+07
1.93655e+07
1.9366e+07
1.93665e+07
1.9367e+07
1.93675e+07
1.93679e+07
1.93683e+07
1.93688e+07
1.93692e+07
1.93696e+07
1.937e+07
1.93704e+07
1.93708e+07
1.93713e+07
1.93717e+07
1.93721e+07
1.93726e+07
1.9373e+07
1.93734e+07
1.93737e+07
1.93653e+07
1.9366e+07
1.93666e+07
1.93671e+07
1.93677e+07
1.93683e+07
1.93688e+07
1.93693e+07
1.93698e+07
1.93703e+07
1.93708e+07
1.93713e+07
1.93717e+07
1.93722e+07
1.93726e+07
1.9373e+07
1.93733e+07
1.93737e+07
1.93741e+07
1.93745e+07
1.93654e+07
1.93661e+07
1.93668e+07
1.93675e+07
1.93681e+07
1.93688e+07
1.93695e+07
1.93704e+07
1.93712e+07
1.93717e+07
1.93719e+07
1.93722e+07
1.93727e+07
1.93733e+07
1.93738e+07
1.93745e+07
1.93756e+07
1.93766e+07
1.93774e+07
1.93778e+07
1.93654e+07
1.93662e+07
1.93669e+07
1.93676e+07
1.93682e+07
1.93689e+07
1.93696e+07
1.93705e+07
1.93713e+07
1.93719e+07
1.93721e+07
1.93724e+07
1.93729e+07
1.93735e+07
1.9374e+07
1.93746e+07
1.93757e+07
1.93768e+07
1.93777e+07
1.93782e+07
1.93747e+07
1.93775e+07
1.938e+07
1.93821e+07
1.93842e+07
1.93865e+07
1.93888e+07
1.9391e+07
1.9393e+07
1.93952e+07
1.93975e+07
1.93996e+07
1.94016e+07
1.94038e+07
1.9406e+07
1.94081e+07
1.941e+07
1.94119e+07
1.94141e+07
1.94163e+07
1.94183e+07
1.94201e+07
1.94218e+07
1.94238e+07
1.94258e+07
1.94279e+07
1.94298e+07
1.94314e+07
1.94331e+07
1.94349e+07
1.94368e+07
1.94386e+07
1.94404e+07
1.94422e+07
1.9444e+07
1.94457e+07
1.94474e+07
1.94491e+07
1.94508e+07
1.94524e+07
1.94541e+07
1.94557e+07
1.94573e+07
1.94589e+07
1.94604e+07
1.9462e+07
1.94635e+07
1.9465e+07
1.94665e+07
1.9468e+07
1.94694e+07
1.94709e+07
1.94723e+07
1.94737e+07
1.94751e+07
1.94764e+07
1.94778e+07
1.94791e+07
1.94804e+07
1.94817e+07
1.9483e+07
1.94843e+07
1.94855e+07
1.94867e+07
1.94879e+07
1.94891e+07
1.94903e+07
1.94914e+07
1.94926e+07
1.94937e+07
1.94948e+07
1.94957e+07
1.94967e+07
1.94978e+07
1.94988e+07
1.94998e+07
1.95008e+07
1.95017e+07
1.95026e+07
1.95036e+07
1.95044e+07
1.95053e+07
1.95062e+07
1.95071e+07
1.95079e+07
1.95088e+07
1.95097e+07
1.95106e+07
1.95115e+07
1.95123e+07
1.95132e+07
1.9514e+07
1.95148e+07
1.95156e+07
1.95164e+07
1.95171e+07
1.95178e+07
1.95185e+07
1.95192e+07
1.95197e+07
1.93748e+07
1.93775e+07
1.938e+07
1.93821e+07
1.93842e+07
1.93864e+07
1.93888e+07
1.9391e+07
1.9393e+07
1.93952e+07
1.93975e+07
1.93996e+07
1.94016e+07
1.94038e+07
1.9406e+07
1.94082e+07
1.941e+07
1.94119e+07
1.94141e+07
1.94163e+07
1.94183e+07
1.94201e+07
1.94218e+07
1.94237e+07
1.94258e+07
1.94279e+07
1.94298e+07
1.94314e+07
1.94331e+07
1.94349e+07
1.94368e+07
1.94386e+07
1.94404e+07
1.94422e+07
1.9444e+07
1.94457e+07
1.94474e+07
1.94491e+07
1.94508e+07
1.94524e+07
1.94541e+07
1.94557e+07
1.94573e+07
1.94589e+07
1.94604e+07
1.9462e+07
1.94635e+07
1.9465e+07
1.94665e+07
1.9468e+07
1.94694e+07
1.94709e+07
1.94723e+07
1.94737e+07
1.94751e+07
1.94764e+07
1.94778e+07
1.94791e+07
1.94804e+07
1.94817e+07
1.9483e+07
1.94843e+07
1.94855e+07
1.94867e+07
1.94879e+07
1.94891e+07
1.94903e+07
1.94914e+07
1.94926e+07
1.94937e+07
1.94948e+07
1.94958e+07
1.94967e+07
1.94978e+07
1.94988e+07
1.94998e+07
1.95008e+07
1.95017e+07
1.95026e+07
1.95036e+07
1.95045e+07
1.95053e+07
1.95062e+07
1.95071e+07
1.95079e+07
1.95088e+07
1.95097e+07
1.95106e+07
1.95115e+07
1.95123e+07
1.95132e+07
1.9514e+07
1.95148e+07
1.95156e+07
1.95164e+07
1.95171e+07
1.95178e+07
1.95185e+07
1.95192e+07
1.95197e+07
1.93756e+07
1.93786e+07
1.93811e+07
1.9383e+07
1.93851e+07
1.93874e+07
1.93898e+07
1.93919e+07
1.93939e+07
1.93961e+07
1.93984e+07
1.94004e+07
1.94023e+07
1.94045e+07
1.94067e+07
1.94089e+07
1.94105e+07
1.94124e+07
1.94145e+07
1.94168e+07
1.9419e+07
1.94204e+07
1.9422e+07
1.9424e+07
1.94261e+07
1.94283e+07
1.94302e+07
1.94316e+07
1.94333e+07
1.94351e+07
1.9437e+07
1.94389e+07
1.94407e+07
1.94425e+07
1.94442e+07
1.94459e+07
1.94476e+07
1.94493e+07
1.94509e+07
1.94526e+07
1.94542e+07
1.94558e+07
1.94574e+07
1.94589e+07
1.94605e+07
1.9462e+07
1.94635e+07
1.9465e+07
1.94665e+07
1.9468e+07
1.94694e+07
1.94709e+07
1.94723e+07
1.94737e+07
1.94751e+07
1.94764e+07
1.94778e+07
1.94791e+07