/*--------------------------------*- C++ -*----------------------------------*\
| =========                 |                                                 |
| \\      /  F ield         | OpenFOAM: The Open Source CFD Toolbox           |
|  \\    /   O peration     | Version:  3.0.x                                 |
|   \\  /    A nd           | Web:      www.OpenFOAM.org                      |
|    \\/     M anipulation  |                                                 |
\*---------------------------------------------------------------------------*/
FoamFile
{
    version     2.0;
    format      ascii;
    class       volScalarField;
    location    "0.48";
    object      rho;
}
// * * * * * * * * * * * * * * * * * * * * * * * * * * * * * * * * * * * * * //

dimensions      [1 -3 0 0 0 0 0];

internalField   nonuniform List<scalar> 
6900
(
50.933
50.9331
50.9332
50.9333
50.9334
50.9335
50.9337
50.9339
50.9341
50.9343
50.9346
50.9348
50.9351
50.9355
50.9358
50.9362
50.9366
50.937
50.9374
50.9379
50.9384
50.9389
50.9394
50.94
50.9406
50.9412
50.9418
50.9424
50.9431
50.9438
50.9446
50.9453
50.9461
50.9469
50.9478
50.9487
50.9496
50.9506
50.9518
50.953
50.9543
50.9556
50.9569
50.9583
50.9596
50.961
50.9625
50.964
50.9656
50.9672
50.969
50.9708
50.9727
50.9747
50.9768
50.9789
50.981
50.9831
50.9852
50.9873
50.9894
50.9915
50.9937
50.996
50.9983
51.0007
51.0031
51.0056
51.0082
51.0107
51.0133
51.016
51.0186
51.0213
51.0241
51.0269
51.0298
51.0327
51.0357
51.0388
51.042
51.0452
51.0485
51.0519
51.0553
51.0589
51.0625
51.0661
51.0699
51.0736
51.0775
51.0814
51.0854
51.0894
51.0935
51.0976
51.1017
51.1059
51.1102
51.1144
51.1188
51.1231
51.1276
51.132
51.1366
51.1411
51.1458
51.1505
51.1552
51.1601
51.165
51.1699
51.175
51.1801
51.1854
51.1907
51.1961
51.2016
51.2071
51.2128
51.2186
51.2244
51.2304
51.2364
51.2425
51.2487
51.255
51.2613
51.2677
51.2742
51.2807
51.2873
51.2939
51.3006
51.3073
51.3141
51.3209
51.3278
51.3347
51.3416
51.3486
51.3556
51.3627
51.3699
51.3771
51.3844
51.3917
51.3991
51.4066
51.4142
51.4218
51.4295
51.4373
51.4452
51.4531
51.4612
51.4694
51.4776
51.486
51.4944
51.5029
51.5116
51.5203
51.5291
51.5381
51.5471
51.5561
51.5653
51.5745
51.5838
51.5931
51.6025
51.6119
51.6214
51.6309
51.6405
51.65
51.6596
51.6693
51.679
51.6887
51.6985
51.7083
51.7182
51.7282
51.7381
51.7482
51.7582
51.7685
51.7785
51.789
51.7991
51.8098
51.8198
51.8308
51.8408
51.852
51.862
51.8736
51.8836
50.9333
50.9333
50.9334
50.9335
50.9336
50.9338
50.9339
50.9341
50.9343
50.9345
50.9348
50.935
50.9353
50.9357
50.936
50.9364
50.9368
50.9372
50.9376
50.9381
50.9386
50.9391
50.9396
50.9402
50.9408
50.9414
50.942
50.9426
50.9433
50.944
50.9448
50.9455
50.9463
50.9471
50.948
50.9489
50.9498
50.9508
50.952
50.9532
50.9545
50.9558
50.9571
50.9585
50.9598
50.9612
50.9627
50.9642
50.9658
50.9674
50.9692
50.971
50.9729
50.9749
50.9769
50.979
50.9811
50.9832
50.9853
50.9874
50.9895
50.9917
50.9939
50.9961
50.9984
51.0008
51.0033
51.0058
51.0083
51.0109
51.0135
51.0161
51.0188
51.0215
51.0243
51.0271
51.0299
51.0329
51.0359
51.039
51.0421
51.0454
51.0487
51.052
51.0555
51.059
51.0626
51.0663
51.07
51.0738
51.0776
51.0816
51.0855
51.0895
51.0936
51.0977
51.1019
51.1061
51.1103
51.1146
51.1189
51.1233
51.1277
51.1322
51.1367
51.1413
51.1459
51.1506
51.1554
51.1602
51.1651
51.1701
51.1751
51.1803
51.1855
51.1908
51.1962
51.2017
51.2073
51.213
51.2187
51.2246
51.2305
51.2366
51.2427
51.2489
51.2551
51.2615
51.2679
51.2743
51.2809
51.2874
51.2941
51.3007
51.3075
51.3142
51.321
51.3279
51.3348
51.3417
51.3487
51.3558
51.3629
51.37
51.3773
51.3845
51.3919
51.3993
51.4068
51.4143
51.4219
51.4296
51.4374
51.4453
51.4533
51.4613
51.4695
51.4777
51.4861
51.4945
51.5031
51.5117
51.5205
51.5293
51.5382
51.5472
51.5563
51.5654
51.5747
51.5839
51.5933
51.6026
51.6121
51.6215
51.6311
51.6406
51.6502
51.6598
51.6694
51.6791
51.6889
51.6986
51.7085
51.7183
51.7283
51.7382
51.7483
51.7584
51.7686
51.7787
51.7892
51.7992
51.81
51.82
51.831
51.8409
51.8522
51.8622
51.8737
51.8834
50.9333
50.9333
50.9334
50.9335
50.9336
50.9338
50.9339
50.9341
50.9343
50.9345
50.9348
50.935
50.9353
50.9357
50.936
50.9364
50.9368
50.9372
50.9376
50.9381
50.9386
50.9391
50.9396
50.9402
50.9408
50.9414
50.942
50.9426
50.9433
50.944
50.9447
50.9455
50.9463
50.9471
50.948
50.9489
50.9498
50.9508
50.952
50.9532
50.9545
50.9558
50.9571
50.9585
50.9598
50.9612
50.9627
50.9642
50.9657
50.9674
50.9692
50.971
50.9729
50.9749
50.9769
50.979
50.9811
50.9832
50.9853
50.9874
50.9895
50.9917
50.9939
50.9961
50.9984
51.0008
51.0033
51.0058
51.0083
51.0109
51.0135
51.0161
51.0188
51.0215
51.0243
51.0271
51.0299
51.0329
51.0359
51.039
51.0421
51.0454
51.0487
51.052
51.0555
51.059
51.0626
51.0663
51.07
51.0738
51.0776
51.0816
51.0855
51.0895
51.0936
51.0977
51.1019
51.1061
51.1103
51.1146
51.1189
51.1233
51.1277
51.1322
51.1367
51.1413
51.1459
51.1506
51.1554
51.1602
51.1651
51.1701
51.1751
51.1803
51.1855
51.1908
51.1962
51.2017
51.2073
51.213
51.2187
51.2246
51.2305
51.2366
51.2427
51.2489
51.2551
51.2615
51.2679
51.2743
51.2809
51.2874
51.2941
51.3007
51.3075
51.3142
51.321
51.3279
51.3348
51.3417
51.3487
51.3558
51.3629
51.37
51.3773
51.3845
51.3919
51.3993
51.4068
51.4143
51.4219
51.4296
51.4374
51.4453
51.4533
51.4613
51.4695
51.4777
51.4861
51.4945
51.5031
51.5117
51.5205
51.5293
51.5382
51.5472
51.5563
51.5654
51.5747
51.5839
51.5933
51.6026
51.6121
51.6215
51.6311
51.6406
51.6502
51.6598
51.6694
51.6791
51.6889
51.6986
51.7085
51.7184
51.7283
51.7383
51.7483
51.7584
51.7686
51.7787
51.7891
51.7993
51.8098
51.8202
51.8307
51.8412
51.8519
51.8623
51.8734
51.8841
50.9333
50.9333
50.9334
50.9335
50.9336
50.9338
50.9339
50.9341
50.9343
50.9345
50.9348
50.935
50.9353
50.9357
50.936
50.9364
50.9368
50.9372
50.9376
50.9381
50.9386
50.9391
50.9396
50.9402
50.9408
50.9414
50.942
50.9426
50.9433
50.944
50.9448
50.9455
50.9463
50.9471
50.948
50.9489
50.9498
50.9508
50.952
50.9532
50.9545
50.9558
50.9571
50.9585
50.9598
50.9612
50.9627
50.9642
50.9658
50.9674
50.9692
50.971
50.9729
50.9749
50.9769
50.979
50.9811
50.9832
50.9853
50.9874
50.9895
50.9917
50.9939
50.9961
50.9984
51.0008
51.0033
51.0058
51.0083
51.0109
51.0135
51.0161
51.0188
51.0215
51.0243
51.0271
51.0299
51.0329
51.0359
51.039
51.0421
51.0454
51.0487
51.052
51.0555
51.059
51.0626
51.0663
51.07
51.0738
51.0776
51.0816
51.0855
51.0895
51.0936
51.0977
51.1019
51.1061
51.1103
51.1146
51.1189
51.1233
51.1277
51.1322
51.1367
51.1413
51.1459
51.1506
51.1554
51.1602
51.1651
51.1701
51.1751
51.1803
51.1855
51.1908
51.1962
51.2017
51.2073
51.213
51.2187
51.2246
51.2305
51.2366
51.2427
51.2489
51.2551
51.2615
51.2679
51.2743
51.2809
51.2874
51.2941
51.3007
51.3075
51.3142
51.321
51.3279
51.3348
51.3417
51.3487
51.3558
51.3629
51.37
51.3773
51.3845
51.3919
51.3993
51.4068
51.4143
51.4219
51.4296
51.4374
51.4453
51.4533
51.4613
51.4695
51.4777
51.4861
51.4945
51.5031
51.5117
51.5205
51.5293
51.5382
51.5472
51.5563
51.5654
51.5747
51.5839
51.5933
51.6026
51.6121
51.6215
51.6311
51.6406
51.6502
51.6598
51.6694
51.6791
51.6889
51.6987
51.7085
51.7184
51.7283
51.7383
51.7483
51.7585
51.7685
51.7789
51.7889
51.7995
51.8096
51.8204
51.8304
51.8415
51.8515
51.8629
51.872
51.8848
50.933
50.9331
50.9332
50.9333
50.9334
50.9335
50.9337
50.9339
50.9341
50.9343
50.9346
50.9348
50.9351
50.9355
50.9358
50.9362
50.9366
50.937
50.9374
50.9379
50.9384
50.9389
50.9394
50.94
50.9406
50.9412
50.9418
50.9424
50.9431
50.9438
50.9446
50.9453
50.9461
50.9469
50.9478
50.9487
50.9496
50.9506
50.9518
50.953
50.9543
50.9556
50.9569
50.9583
50.9596
50.961
50.9625
50.964
50.9656
50.9672
50.969
50.9708
50.9727
50.9747
50.9768
50.9789
50.981
50.9831
50.9852
50.9873
50.9894
50.9915
50.9937
50.996
50.9983
51.0007
51.0031
51.0056
51.0082
51.0107
51.0133
51.016
51.0186
51.0213
51.0241
51.0269
51.0298
51.0327
51.0357
51.0388
51.042
51.0452
51.0485
51.0519
51.0553
51.0589
51.0625
51.0661
51.0699
51.0736
51.0775
51.0814
51.0854
51.0894
51.0935
51.0976
51.1017
51.1059
51.1102
51.1144
51.1188
51.1231
51.1276
51.132
51.1366
51.1411
51.1458
51.1505
51.1552
51.1601
51.165
51.1699
51.175
51.1801
51.1854
51.1907
51.1961
51.2016
51.2071
51.2128
51.2186
51.2244
51.2304
51.2364
51.2425
51.2487
51.255
51.2613
51.2677
51.2742
51.2807
51.2873
51.2939
51.3006
51.3073
51.3141
51.3209
51.3278
51.3347
51.3416
51.3486
51.3556
51.3627
51.3699
51.3771
51.3844
51.3917
51.3991
51.4066
51.4142
51.4218
51.4295
51.4373
51.4452
51.4531
51.4612
51.4694
51.4776
51.486
51.4944
51.5029
51.5116
51.5203
51.5291
51.5381
51.5471
51.5561
51.5653
51.5745
51.5838
51.5931
51.6025
51.6119
51.6214
51.6309
51.6405
51.65
51.6596
51.6693
51.679
51.6887
51.6985
51.7083
51.7182
51.7281
51.7382
51.7481
51.7583
51.7683
51.7787
51.7888
51.7994
51.8094
51.8203
51.8303
51.8414
51.8513
51.8628
51.8715
51.8877
51.8976
51.903
51.9055
51.9068
51.9081
51.9096
51.9119
51.9148
51.9166
51.9151
51.9111
51.9086
51.9071
51.9055
51.9069
51.9141
51.9253
51.9335
51.9351
51.9266
51.8961
51.8997
51.9018
51.9031
51.9044
51.9058
51.9081
51.9113
51.913
51.9109
51.9065
51.9044
51.9031
51.9022
51.9038
51.9115
51.9229
51.9294
51.9288
51.9182
51.891
51.8929
51.8943
51.8952
51.8956
51.8956
51.8951
51.894
51.8927
51.8913
51.8897
51.8874
51.8843
51.8806
51.8764
51.8713
51.8654
51.8604
51.8566
51.8534
51.8832
51.8841
51.8865
51.8886
51.8894
51.8886
51.8874
51.8859
51.8843
51.8826
51.8807
51.8788
51.8776
51.876
51.8748
51.8735
51.8726
51.8718
51.8713
51.8713
51.8779
51.874
51.8734
51.8746
51.8749
51.8737
51.8718
51.8696
51.8672
51.8647
51.862
51.8595
51.8575
51.8552
51.8532
51.8515
51.85
51.8488
51.848
51.8481
51.8715
51.8755
51.8988
51.904
51.9058
51.9135
51.9242
51.933
51.9405
51.9486
51.9578
51.9674
51.9764
51.9848
51.9934
52.0025
52.0119
52.0212
52.0302
52.0392
52.0483
52.0576
52.067
52.0764
52.0857
52.095
52.1045
52.1139
52.1234
52.1329
52.1425
52.1521
52.1616
52.171
52.1806
52.1902
52.1998
52.2095
52.2192
52.2289
52.2387
52.2485
52.2583
52.2681
52.2779
52.2878
52.2977
52.3075
52.3174
52.3273
52.3372
52.3471
52.357
52.367
52.3769
52.3868
52.3968
52.4068
52.4168
52.4267
52.4367
52.4467
52.4567
52.4666
52.4766
52.4865
52.4964
52.5063
52.5162
52.5261
52.5359
52.5458
52.5556
52.5654
52.5752
52.585
52.5947
52.6045
52.6143
52.6242
52.634
52.6439
52.6537
52.6635
52.6738
52.6841
52.6932
52.702
52.7115
52.7214
52.7313
52.7413
52.7512
52.7611
52.771
52.7807
52.7905
52.8005
52.8109
52.8211
52.8307
52.8397
52.849
52.8594
52.8704
52.8807
52.8885
52.8933
52.899
52.9073
52.9181
52.93
52.9437
52.9573
52.9695
52.9809
52.9913
53
53.0086
53.0174
53.0262
53.0351
53.0441
53.053
53.0619
53.0708
53.0797
53.0885
53.0974
53.1062
53.1149
53.1237
53.1324
53.141
53.1497
53.1583
53.1669
53.1754
53.1839
53.1924
53.2008
53.2092
53.2176
53.226
53.2343
53.2426
53.2509
53.2591
53.2673
53.2755
53.2837
53.2918
53.2999
53.3079
53.316
53.324
53.3319
53.3398
53.3477
53.3556
53.3634
53.3712
53.3789
53.3866
53.3943
53.4019
53.4095
53.417
53.4245
53.4319
53.4393
53.4466
53.4539
53.4611
53.4683
53.4755
53.4825
53.4896
53.4965
53.5036
53.5103
53.5173
53.5239
53.5309
53.5373
53.5443
53.5506
53.5575
53.5636
53.5706
53.5765
53.5834
53.5892
53.596
53.6018
53.6085
53.6142
53.6206
53.6271
53.6323
51.8679
51.8752
51.8969
51.9028
51.9046
51.9121
51.9219
51.9305
51.9386
51.947
51.9558
51.9652
51.9744
51.9831
51.9917
52.0009
52.0103
52.0196
52.0287
52.0378
52.047
52.0564
52.0658
52.0751
52.0845
52.0938
52.1033
52.1127
52.1222
52.1317
52.1412
52.1508
52.1603
52.1698
52.1794
52.189
52.1987
52.2084
52.2181
52.2279
52.2376
52.2474
52.2572
52.2671
52.2769
52.2867
52.2966
52.3065
52.3163
52.3262
52.3361
52.346
52.3559
52.3659
52.3758
52.3858
52.3958
52.4058
52.4158
52.4258
52.4358
52.4458
52.4557
52.4657
52.4756
52.4856
52.4955
52.5054
52.5152
52.5251
52.5349
52.5447
52.5545
52.5643
52.5741
52.5838
52.5936
52.6034
52.6132
52.623
52.6326
52.6421
52.6516
52.6612
52.6714
52.6819
52.6913
52.7005
52.7101
52.7201
52.73
52.7397
52.7495
52.7593
52.7691
52.7791
52.7893
52.7993
52.8088
52.8178
52.8274
52.8379
52.8489
52.859
52.867
52.8732
52.8794
52.8868
52.8964
52.9078
52.92
52.9338
52.9472
52.9594
52.9708
52.9814
52.9905
52.9993
53.0082
53.0171
53.0261
53.0351
53.0441
53.053
53.062
53.0709
53.0798
53.0887
53.0975
53.1063
53.1151
53.1238
53.1325
53.1412
53.1498
53.1584
53.167
53.1755
53.184
53.1925
53.201
53.2094
53.2178
53.2261
53.2344
53.2427
53.251
53.2592
53.2675
53.2756
53.2838
53.2919
53.3
53.3081
53.3161
53.3241
53.3321
53.34
53.3479
53.3557
53.3636
53.3713
53.3791
53.3868
53.3944
53.402
53.4096
53.4171
53.4246
53.432
53.4394
53.4468
53.454
53.4613
53.4684
53.4756
53.4826
53.4897
53.4967
53.5037
53.5105
53.5175
53.5241
53.531
53.5375
53.5444
53.5507
53.5576
53.5637
53.5707
53.5766
53.5835
53.5893
53.5961
53.6019
53.6086
53.6143
53.6209
53.6269
53.6327
51.8448
51.8609
51.8712
51.8786
51.8862
51.8942
51.9024
51.9108
51.9195
51.9284
51.9373
51.9462
51.9552
51.9643
51.9736
51.9828
51.992
52.0012
52.0105
52.0198
52.0291
52.0385
52.0479
52.0572
52.0667
52.0762
52.0857
52.0952
52.1048
52.1144
52.124
52.1335
52.1431
52.1527
52.1623
52.1719
52.1816
52.1913
52.2011
52.2109
52.2207
52.2306
52.2405
52.2504
52.2604
52.2703
52.2803
52.2903
52.3002
52.3102
52.3201
52.33
52.3399
52.3498
52.3597
52.3696
52.3796
52.3895
52.3995
52.4094
52.4194
52.4293
52.4392
52.4491
52.459
52.4688
52.4786
52.4884
52.4982
52.5078
52.5174
52.527
52.5366
52.5462
52.5558
52.5653
52.5748
52.5845
52.5945
52.6052
52.6165
52.6284
52.6408
52.6536
52.6656
52.6772
52.6889
52.7002
52.7108
52.7211
52.7311
52.7411
52.7509
52.7607
52.7705
52.7803
52.7902
52.8001
52.8101
52.8201
52.8302
52.8403
52.8504
52.8606
52.8707
52.8809
52.891
52.9012
52.9113
52.9213
52.9313
52.9411
52.9508
52.9603
52.9698
52.9793
52.9886
52.9979
53.0072
53.0164
53.0255
53.0347
53.0438
53.0528
53.0618
53.0708
53.0797
53.0886
53.0975
53.1063
53.115
53.1238
53.1325
53.1412
53.1498
53.1584
53.167
53.1755
53.184
53.1925
53.201
53.2094
53.2178
53.2261
53.2344
53.2427
53.251
53.2592
53.2675
53.2756
53.2838
53.2919
53.3
53.3081
53.3161
53.3241
53.3321
53.34
53.3479
53.3557
53.3636
53.3713
53.3791
53.3868
53.3944
53.402
53.4096
53.4171
53.4246
53.432
53.4394
53.4467
53.454
53.4613
53.4685
53.4756
53.4827
53.4897
53.4967
53.5036
53.5106
53.5173
53.5242
53.5309
53.5376
53.5443
53.5509
53.5575
53.564
53.5704
53.577
53.5831
53.5897
53.5959
53.6021
53.6084
53.6146
53.6206
53.6268
53.6328
51.8699
51.8794
51.8879
51.8956
51.9035
51.9117
51.9202
51.9288
51.9375
51.9463
51.9552
51.9641
51.973
51.9821
51.9912
52.0004
52.0095
52.0188
52.0281
52.0374
52.0468
52.0562
52.0656
52.0751
52.0845
52.094
52.1035
52.1131
52.1226
52.1321
52.1417
52.1512
52.1608
52.1704
52.18
52.1897
52.1993
52.209
52.2187
52.2284
52.2381
52.2479
52.2577
52.2675
52.2773
52.2872
52.2971
52.307
52.3169
52.3268
52.3367
52.3467
52.3566
52.3666
52.3765
52.3864
52.3964
52.4063
52.4162
52.4262
52.4361
52.4461
52.456
52.4659
52.4759
52.4858
52.4957
52.5056
52.5155
52.5254
52.5353
52.5452
52.555
52.5649
52.5748
52.5846
52.5945
52.6044
52.6143
52.6242
52.634
52.6438
52.6535
52.6632
52.6729
52.6825
52.6919
52.7015
52.7116
52.7215
52.7311
52.7405
52.7503
52.7601
52.7697
52.7791
52.7884
52.7979
52.8075
52.817
52.826
52.8344
52.8422
52.8503
52.8592
52.8696
52.8811
52.8932
52.906
52.9188
52.9308
52.9424
52.9532
52.9625
52.9715
52.9806
52.9896
52.9987
53.0078
53.0168
53.0259
53.0349
53.044
53.053
53.0619
53.0709
53.0798
53.0886
53.0975
53.1063
53.1151
53.1238
53.1325
53.1412
53.1498
53.1584
53.167
53.1755
53.184
53.1925
53.201
53.2094
53.2178
53.2261
53.2344
53.2427
53.251
53.2592
53.2675
53.2756
53.2838
53.2919
53.3
53.3081
53.3161
53.3241
53.3321
53.34
53.3479
53.3557
53.3636
53.3713
53.3791
53.3868
53.3944
53.402
53.4096
53.4171
53.4246
53.432
53.4394
53.4467
53.454
53.4613
53.4685
53.4756
53.4827
53.4897
53.4967
53.5036
53.5106
53.5173
53.5243
53.5308
53.5378
53.5441
53.5511
53.5572
53.5642
53.5702
53.5771
53.583
53.5898
53.5956
53.6024
53.6081
53.6148
53.6205
53.6269
53.6326
51.8637
51.8744
51.8831
51.8907
51.8985
51.9063
51.9145
51.9229
51.9313
51.9399
51.9484
51.957
51.9657
51.9746
51.9836
51.9926
52.0017
52.0108
52.0201
52.0293
52.0387
52.048
52.0574
52.0668
52.0762
52.0856
52.0951
52.1045
52.114
52.1235
52.133
52.1425
52.1521
52.1617
52.1713
52.1809
52.1905
52.2002
52.2099
52.2197
52.2295
52.2393
52.2491
52.2589
52.2688
52.2787
52.2886
52.2985
52.3084
52.3183
52.3282
52.3381
52.3481
52.358
52.368
52.3779
52.3879
52.3979
52.4079
52.4178
52.4278
52.4378
52.4478
52.4578
52.4677
52.4777
52.4877
52.4976
52.5076
52.5175
52.5274
52.5373
52.5472
52.5571
52.5669
52.5768
52.5865
52.5963
52.6062
52.616
52.6257
52.6355
52.6453
52.6551
52.665
52.6747
52.6843
52.6939
52.7037
52.7137
52.7238
52.7337
52.7429
52.7518
52.7615
52.7724
52.7834
52.7932
52.7995
52.8049
52.8122
52.822
52.8336
52.8462
52.8607
52.8744
52.8869
52.8988
52.9104
52.9211
52.9311
52.9409
52.9506
52.9602
52.9697
52.9791
52.9885
52.9978
53.0071
53.0163
53.0254
53.0346
53.0436
53.0527
53.0617
53.0707
53.0796
53.0885
53.0973
53.1061
53.1149
53.1237
53.1324
53.141
53.1497
53.1583
53.1668
53.1754
53.1839
53.1924
53.2008
53.2092
53.2176
53.226
53.2343
53.2426
53.2509
53.2591
53.2673
53.2755
53.2837
53.2918
53.2999
53.3079
53.316
53.324
53.3319
53.3398
53.3477
53.3556
53.3634
53.3712
53.3789
53.3866
53.3943
53.4019
53.4095
53.417
53.4245
53.4319
53.4393
53.4466
53.4539
53.4611
53.4683
53.4754
53.4826
53.4896
53.4966
53.5035
53.5105
53.5172
53.5241
53.5307
53.5376
53.544
53.5509
53.5571
53.5641
53.5701
53.577
53.5829
53.5897
53.5956
53.6021
53.6084
53.6142
53.6208
53.6266
53.6325
53.6361
53.6371
53.6383
53.6395
53.6407
53.6418
53.6429
53.644
53.645
53.646
53.6471
53.6481
53.6491
53.6502
53.6513
53.6523
53.6534
53.6544
53.6553
53.6561
53.637
53.6383
53.6395
53.6408
53.642
53.6431
53.6442
53.6453
53.6464
53.6474
53.6485
53.6495
53.6504
53.6515
53.6527
53.6538
53.6547
53.6555
53.6561
53.6567
53.6366
53.638
53.6394
53.6407
53.642
53.6432
53.6443
53.6454
53.6464
53.6473
53.6485
53.6494
53.6499
53.6506
53.6514
53.6519
53.6516
53.652
53.6522
53.6528
53.6365
53.6382
53.6397
53.6411
53.6424
53.6438
53.6454
53.6474
53.6493
53.6504
53.6506
53.6512
53.6521
53.6524
53.6532
53.655
53.6583
53.6612
53.6633
53.6644
53.6364
53.6382
53.6399
53.6413
53.6426
53.644
53.6457
53.6475
53.6494
53.6508
53.6512
53.6516
53.6518
53.6518
53.6527
53.6544
53.6579
53.6613
53.6641
53.6663
53.6597
53.6663
53.6712
53.6755
53.6799
53.6845
53.6888
53.6929
53.6971
53.7017
53.7061
53.71
53.714
53.7186
53.7233
53.7273
53.7308
53.735
53.7398
53.7446
53.7486
53.752
53.7558
53.7603
53.7651
53.7697
53.7738
53.7773
53.7812
53.7855
53.7898
53.7941
53.7982
53.8023
53.8064
53.8104
53.8144
53.8184
53.8223
53.8261
53.83
53.8337
53.8375
53.8412
53.8449
53.8485
53.8521
53.8556
53.8591
53.8625
53.8659
53.8692
53.8725
53.8757
53.8789
53.882
53.8852
53.8883
53.8913
53.8944
53.8974
53.9003
53.9032
53.906
53.9088
53.9116
53.9143
53.917
53.9197
53.9222
53.9246
53.9269
53.9292
53.9316
53.934
53.9363
53.9384
53.9406
53.9429
53.945
53.9468
53.9487
53.951
53.9533
53.9551
53.9558
53.9571
53.9596
53.9626
53.9647
53.9622
53.9567
53.9568
53.9597
53.9659
53.974
53.9799
53.9837
53.9863
53.9891
53.6589
53.6641
53.6689
53.6736
53.6784
53.6829
53.687
53.6914
53.6963
53.7015
53.706
53.7103
53.715
53.7202
53.7252
53.7295
53.7337
53.7386
53.7439
53.7488
53.7529
53.7569
53.7613
53.7663
53.7713
53.7759
53.7801
53.7839
53.7881
53.7927
53.7972
53.8016
53.8058
53.81
53.8142
53.8183
53.8223
53.8264
53.8303
53.8342
53.8381
53.8419
53.8457
53.8494
53.8531
53.8568
53.8603
53.8639
53.8673
53.8708
53.8741
53.8775
53.8807
53.884
53.8872
53.8903
53.8934
53.8965
53.8995
53.9025
53.9054
53.9083
53.9111
53.9139
53.9168
53.9195
53.9222
53.9249
53.9276
53.9302
53.9326
53.9348
53.9371
53.9395
53.942
53.9442
53.9463
53.9485
53.9508
53.9527
53.9545
53.9565
53.9587
53.9605
53.962
53.9637
53.9656
53.9672
53.9687
53.9701
53.9711
53.9719
53.9731
53.9734
53.9725
53.9723
53.9739
53.9761
53.9794
53.9848
53.6524
53.6567
53.6598
53.6621
53.6651
53.6687
53.6721
53.6755
53.6794
53.684
53.6883
53.6923
53.697
53.7022
53.707
53.7114
53.7154
53.7208
53.7262
53.7312
53.7358
53.7391
53.7441
53.7497
53.7547
53.7595
53.7636
53.7671
53.772
53.777
53.7816
53.7859
53.7902
53.7943
53.7983
53.8024
53.8064
53.8103
53.8143
53.8182
53.822
53.8258
53.8295
53.8331
53.8367
53.8403
53.8438
53.8472
53.8506
53.854
53.8573
53.8606
53.8639
53.8671
53.8703
53.8734
53.8764
53.8793
53.8822
53.8852
53.888
53.8908
53.8934
53.8961
53.8987
53.9012
53.9035
53.9057
53.9079
53.9104
53.9132
53.917
53.9214
53.9264
53.9317
53.9365
53.9409
53.945
53.9486
53.9517
53.9541
53.9562
53.9583
53.9601
53.962
53.9638
53.9657
53.9676
53.9696
53.9715
53.9739
53.9757
53.978
53.9799
53.9818
53.9839
53.9858
53.9878
53.9898
53.9919
53.6601
53.6649
53.67
53.6763
53.6799
53.683
53.6885
53.6943
53.6986
53.7014
53.7073
53.7151
53.719
53.7209
53.7267
53.7334
53.7429
53.742
53.745
53.7508
53.7556
53.7687
53.7695
53.7684
53.7729
53.7788
53.7843
53.7945
53.7939
53.7946
53.7988
53.8032
53.8073
53.8114
53.8154
53.8194
53.8233
53.8272
53.831
53.8348
53.8385
53.8422
53.8459
53.8495
53.8531
53.8566
53.8601
53.8635
53.8669
53.8703
53.8736
53.8769
53.8802
53.8834
53.8865
53.8897
53.8928
53.896
53.899
53.902
53.905
53.9079
53.9108
53.9136
53.9164
53.9191
53.9217
53.9243
53.9272
53.9302
53.9337
53.9359
53.9366
53.9387
53.9409
53.9431
53.9452
53.9473
53.9494
53.9515
53.9535
53.9554
53.9571
53.959
53.9611
53.963
53.9648
53.9667
53.969
53.9712
53.9727
53.9736
53.975
53.9772
53.9797
53.982
53.9831
53.9801
53.9762
53.9758
53.6612
53.6649
53.6724
53.6811
53.6829
53.6848
53.6911
53.7015
53.7049
53.7053
53.7106
53.7224
53.7262
53.7258
53.7298
53.739
53.7511
53.7486
53.7486
53.7534
53.7603
53.777
53.7765
53.7723
53.7753
53.7806
53.7885
53.8007
53.7986
53.7971
53.8004
53.8045
53.8085
53.8125
53.8165
53.8205
53.8244
53.8282
53.8321
53.8358
53.8396
53.8433
53.8469
53.8505
53.8541
53.8576
53.8611
53.8646
53.868
53.8714
53.8747
53.878
53.8813
53.8845
53.8876
53.8908
53.8939
53.8969
53.9
53.903
53.906
53.9089
53.9117
53.9146
53.9173
53.9201
53.9228
53.9254
53.9281
53.9311
53.9359
53.938
53.9382
53.9399
53.9421
53.9443
53.9464
53.9485
53.9505
53.9525
53.9545
53.9566
53.9586
53.9606
53.9624
53.9644
53.9665
53.9686
53.9704
53.9722
53.9745
53.9768
53.9789
53.9798
53.9805
53.9823
53.9845
53.9869
53.988
53.9849
53.9893
53.9894
53.9899
53.9906
53.9913
53.9921
53.9928
53.9935
53.9942
53.9948
53.9955
53.9962
53.9968
53.9973
53.9978
53.9982
53.9986
53.9989
53.9992
53.9994
53.9867
53.9873
53.9881
53.9891
53.99
53.991
53.9919
53.9929
53.9939
53.9949
53.9958
53.9969
53.9977
53.9983
53.9987
53.999
53.9992
53.9994
53.9993
53.9993
53.9929
53.9932
53.9936
53.9941
53.9945
53.9949
53.9954
53.9957
53.996
53.9962
53.9964
53.9963
53.9963
53.9964
53.9963
53.9963
53.996
53.9958
53.9949
53.9943
53.9759
53.9758
53.9761
53.9765
53.9776
53.9792
53.9812
53.9834
53.9857
53.9878
53.9898
53.9917
53.9935
53.9951
53.9968
53.9984
53.9995
53.9998
53.9997
53.9997
53.9817
53.9802
53.9791
53.9784
53.9782
53.9781
53.9783
53.9788
53.9805
53.9828
53.9853
53.9879
53.9907
53.9934
53.9958
53.9978
53.9996
54.0007
54.0019
54.003
54.0003
54.0016
54.002
54.0023
54.0025
54.003
54.0031
54.0029
54.0029
54.0037
54.0042
54.0037
54.0028
54.0031
54.0042
54.005
54.0043
54.0032
54.0014
54.001
54.0027
54.0045
54.0051
54.0044
54.0024
54.001
54.0002
54.0015
54.0026
54.0034
54.004
54.0045
54.0051
54.0055
54.006
54.0063
54.0067
54.0071
54.0074
54.0077
54.0081
54.0084
54.0088
54.0091
54.0095
54.0099
54.0103
54.0107
54.0111
54.0115
54.012
54.0125
54.0132
54.0144
54.0162
54.0169
54.0155
54.013
54.0115
54.0137
54.0156
54.0156
54.0147
54.0143
54.0152
54.016
54.0165
54.0168
54.0172
54.0175
54.0179
54.0181
54.0182
54.0186
54.0192
54.0197
54.0195
54.019
54.0195
54.0207
54.0209
54.0149
54.0075
54.007
54.0113
54.02
54.0257
54.0291
54.0317
54.0339
54.0355
54.0365
54.0371
54.0375
54.0379
54.0382
54.0385
54.0387
54.039
54.0392
54.0395
54.0397
54.04
54.0402
54.0405
54.0407
54.041
54.0412
54.0415
54.0417
54.042
54.0422
54.0424
54.0426
54.0428
54.0429
54.0431
54.0433
54.0434
54.0435
54.0437
54.0438
54.0439
54.044
54.044
54.0441
54.0441
54.0442
54.0442
54.0442
54.0443
54.0443
54.0443
54.0443
54.0443
54.0443
54.0443
54.0442
54.0442
54.0442
54.0442
54.0441
54.0441
54.0441
54.044
54.044
54.0439
54.0439
54.0438
54.0438
54.0437
54.0436
54.0436
54.0435
54.0434
54.0433
54.0432
54.0431
54.043
54.0429
54.0428
54.0427
54.0426
54.0425
54.0423
54.0422
54.0421
54.0419
54.0418
54.0416
54.0414
54.0413
54.0411
54.0409
54.0407
54.0405
54.0403
54.0401
54.0399
54.0396
54.0395
54.0391
54.039
54.0386
54.0385
54.0381
54.038
54.0375
54.0375
54.037
54.037
54.0364
54.0364
54.0359
54.0357
54.0355
54.0349
54.0349
54.0346
54.0341
53.9997
53.9993
53.9985
53.9989
53.9994
53.9994
53.9985
53.9988
53.9997
54.0009
54.0008
54.0005
54.0009
54.0025
54.0041
54.0045
54.003
54.003
54.0029
54.0041
54.0064
54.0081
54.0074
54.0067
54.0055
54.0055
54.0057
54.0074
54.0087
54.0094
54.01
54.0106
54.0113
54.0119
54.0125
54.0131
54.0136
54.0142
54.0147
54.0151
54.0156
54.016
54.0165
54.0169
54.0173
54.0177
54.0181
54.0185
54.0189
54.0194
54.0199
54.0204
54.0211
54.0223
54.0237
54.0231
54.0219
54.0199
54.0186
54.0212
54.0228
54.0229
54.0223
54.022
54.0229
54.0239
54.0245
54.0249
54.025
54.0253
54.0257
54.026
54.026
54.0262
54.0266
54.0269
54.0268
54.0269
54.0272
54.0272
54.0273
54.0263
54.0252
54.0248
54.0235
54.0212
54.0204
54.0208
54.0221
54.0264
54.0321
54.0363
54.0386
54.0395
54.0395
54.0393
54.0393
54.0393
54.0394
54.0396
54.0398
54.04
54.0402
54.0404
54.0406
54.0409
54.0411
54.0414
54.0416
54.0418
54.0421
54.0423
54.0425
54.0427
54.0429
54.0431
54.0432
54.0434
54.0435
54.0436
54.0438
54.0439
54.044
54.0441
54.0441
54.0442
54.0442
54.0443
54.0443
54.0444
54.0444
54.0444
54.0444
54.0444
54.0444
54.0444
54.0444
54.0443
54.0443
54.0443
54.0443
54.0442
54.0442
54.0442
54.0441
54.0441
54.044
54.044
54.0439
54.0439
54.0438
54.0437
54.0437
54.0436
54.0435
54.0434
54.0433
54.0432
54.0431
54.043
54.0429
54.0428
54.0427
54.0426
54.0424
54.0423
54.0422
54.042
54.0419
54.0417
54.0415
54.0414
54.0412
54.041
54.0408
54.0406
54.0404
54.0402
54.04
54.0397
54.0396
54.0392
54.0391
54.0387
54.0386
54.0382
54.0381
54.0376
54.0376
54.0371
54.037
54.0365
54.0365
54.036
54.0359
54.0354
54.0353
54.0348
54.0347
54.0343
53.9926
53.9913
53.9895
53.9879
53.9863
53.9852
53.9844
53.9831
53.9827
53.9828
53.9835
53.9834
53.9824
53.9839
53.9849
53.9858
53.9864
53.986
53.9846
53.9864
53.9878
53.989
53.9898
53.9909
53.9884
53.9876
53.9898
53.9919
53.9936
53.9949
53.9959
53.9966
53.9971
53.9975
53.9979
53.9983
53.9986
53.9989
53.9992
53.9996
53.9999
54.0001
54.0004
54.0007
54.001
54.0014
54.0017
54.0019
54.0022
54.0024
54.0027
54.003
54.0031
54.0028
54.0024
54.0022
53.9997
53.9974
53.9993
54.0006
54.0022
54.0022
54.0029
54.0063
54.0098
54.0138
54.017
54.0196
54.0219
54.0237
54.0249
54.0255
54.0258
54.0261
54.0263
54.0264
54.0266
54.0269
54.0274
54.0279
54.0285
54.0291
54.0298
54.0305
54.0311
54.0317
54.0324
54.0331
54.0338
54.0346
54.0355
54.0363
54.037
54.0376
54.038
54.0383
54.0386
54.0388
54.0391
54.0393
54.0396
54.0398
54.0401
54.0403
54.0406
54.0408
54.0411
54.0414
54.0416
54.0418
54.0421
54.0423
54.0425
54.0427
54.0429
54.0431
54.0432
54.0434
54.0435
54.0436
54.0438
54.0439
54.044
54.0441
54.0441
54.0442
54.0442
54.0443
54.0443
54.0444
54.0444
54.0444
54.0444
54.0444
54.0444
54.0444
54.0444
54.0443
54.0443
54.0443
54.0443
54.0442
54.0442
54.0442
54.0441
54.0441
54.044
54.044
54.0439
54.0439
54.0438
54.0437
54.0437
54.0436
54.0435
54.0434
54.0433
54.0432
54.0431
54.043
54.0429
54.0428
54.0427
54.0426
54.0424
54.0423
54.0422
54.042
54.0419
54.0417
54.0415
54.0414
54.0412
54.041
54.0408
54.0406
54.0404
54.0402
54.04
54.0397
54.0395
54.0393
54.0391
54.0388
54.0386
54.0383
54.038
54.0377
54.0375
54.0371
54.037
54.0366
54.0364
54.0361
54.0357
54.0355
54.0353
54.0349
54.0346
54.0343
54.0006
53.9998
53.9985
53.9983
53.999
53.9989
53.9997
54
54.0002
53.9999
54.0017
54.0018
54.0081
54.0019
54.0029
54.0055
54.0034
54.0122
54.0209
54.0079
54.0056
54.0092
54.0097
54.0077
54.0252
54.0327
54.0157
54.0099
54.0116
54.0129
54.0135
54.0138
54.0142
54.0145
54.0148
54.0151
54.0154
54.0157
54.0159
54.0162
54.0164
54.0167
54.017
54.0173
54.0177
54.018
54.0182
54.0186
54.0189
54.0192
54.0195
54.0198
54.0201
54.021
54.0231
54.0235
54.033
54.0447
54.0256
54.0209
54.0238
54.0284
54.0353
54.0249
54.0225
54.0232
54.0237
54.0239
54.024
54.0243
54.0245
54.0248
54.025
54.0251
54.0252
54.0256
54.0261
54.0264
54.0269
54.0276
54.0283
54.0286
54.028
54.0279
54.0284
54.0293
54.03
54.0294
54.0244
54.0199
54.0189
54.0202
54.026
54.0335
54.0381
54.04
54.0403
54.04
54.0398
54.0398
54.0399
54.04
54.0402
54.0404
54.0407
54.0409
54.0411
54.0414
54.0416
54.0418
54.0421
54.0423
54.0425
54.0427
54.0429
54.0431
54.0432
54.0434
54.0435
54.0436
54.0438
54.0439
54.044
54.0441
54.0441
54.0442
54.0442
54.0443
54.0443
54.0444
54.0444
54.0444
54.0444
54.0444
54.0444
54.0444
54.0444
54.0443
54.0443
54.0443
54.0443
54.0442
54.0442
54.0442
54.0441
54.0441
54.044
54.044
54.0439
54.0439
54.0438
54.0437
54.0437
54.0436
54.0435
54.0434
54.0433
54.0432
54.0431
54.043
54.0429
54.0428
54.0427
54.0426
54.0424
54.0423
54.0422
54.042
54.0419
54.0417
54.0415
54.0414
54.0412
54.041
54.0408
54.0406
54.0404
54.0402
54.0399
54.0398
54.0394
54.0394
54.039
54.0389
54.0385
54.0384
54.0379
54.0379
54.0374
54.0373
54.0368
54.0368
54.0362
54.0362
54.0357
54.0356
54.0351
54.0349
54.0348
54.0341
54.0037
54.0011
54.001
54.0038
54.0036
54.0011
54.0031
54.009
54.0084
54.0044
54.0055
54.0106
54.0197
54.0106
54.007
54.0091
54.0112
54.0236
54.033
54.017
54.0087
54.0112
54.0142
54.0174
54.0366
54.0442
54.024
54.0127
54.0134
54.0144
54.0148
54.015
54.0153
54.0156
54.0159
54.0162
54.0165
54.0168
54.017
54.0173
54.0175
54.0178
54.018
54.0183
54.0186
54.0189
54.0192
54.0195
54.0198
54.0201
54.0204
54.0208
54.0212
54.0219
54.0233
54.0259
54.043
54.0564
54.0341
54.0233
54.0253
54.034
54.0436
54.0303
54.0247
54.0247
54.025
54.0251
54.0252
54.0254
54.0256
54.0257
54.026
54.0264
54.0267
54.027
54.0273
54.0278
54.0283
54.0287
54.0293
54.03
54.0308
54.0315
54.0314
54.0307
54.0309
54.0317
54.0325
54.0319
54.026
54.0209
54.0209
54.0256
54.0346