/*--------------------------------*- C++ -*----------------------------------*\
| =========                 |                                                 |
| \\      /  F ield         | OpenFOAM: The Open Source CFD Toolbox           |
|  \\    /   O peration     | Version:  3.0.x                                 |
|   \\  /    A nd           | Web:      www.OpenFOAM.org                      |
|    \\/     M anipulation  |                                                 |
\*---------------------------------------------------------------------------*/
FoamFile
{
    version     2.0;
    format      ascii;
    class       volScalarField;
    location    "0.48";
    object      T;
}
// * * * * * * * * * * * * * * * * * * * * * * * * * * * * * * * * * * * * * //

dimensions      [0 0 0 1 0 0 0];

internalField   nonuniform List<scalar> 
6900
(
774.517
774.517
774.516
774.516
774.517
774.517
774.517
774.518
774.518
774.518
774.519
774.519
774.52
774.521
774.522
774.523
774.524
774.525
774.527
774.528
774.529
774.531
774.532
774.534
774.536
774.537
774.539
774.541
774.543
774.545
774.547
774.55
774.552
774.555
774.557
774.56
774.563
774.565
774.566
774.567
774.568
774.569
774.571
774.573
774.577
774.58
774.584
774.588
774.591
774.594
774.597
774.6
774.602
774.604
774.606
774.608
774.61
774.613
774.617
774.622
774.627
774.633
774.638
774.643
774.648
774.653
774.657
774.662
774.667
774.672
774.678
774.684
774.691
774.698
774.706
774.714
774.722
774.731
774.74
774.749
774.759
774.769
774.779
774.789
774.8
774.81
774.821
774.832
774.844
774.855
774.867
774.879
774.891
774.903
774.916
774.928
774.941
774.953
774.966
774.979
774.993
775.006
775.019
775.033
775.047
775.061
775.075
775.089
775.103
775.118
775.133
775.148
775.163
775.179
775.195
775.211
775.227
775.244
775.261
775.278
775.296
775.314
775.332
775.35
775.369
775.387
775.406
775.426
775.445
775.465
775.484
775.504
775.524
775.545
775.565
775.586
775.606
775.627
775.648
775.669
775.69
775.711
775.733
775.755
775.777
775.799
775.821
775.843
775.866
775.889
775.912
775.935
775.959
775.983
776.007
776.031
776.056
776.081
776.106
776.131
776.157
776.183
776.21
776.236
776.263
776.291
776.318
776.346
776.373
776.401
776.43
776.458
776.486
776.515
776.544
776.572
776.601
776.63
776.659
776.689
776.718
776.747
776.777
776.807
776.837
776.867
776.896
776.928
776.957
776.99
777.018
777.053
777.079
777.117
777.141
777.181
777.204
777.246
777.269
777.323
774.514
774.513
774.513
774.513
774.513
774.513
774.514
774.514
774.515
774.515
774.516
774.516
774.517
774.518
774.519
774.52
774.521
774.522
774.523
774.525
774.526
774.528
774.529
774.531
774.532
774.534
774.536
774.538
774.54
774.542
774.544
774.547
774.549
774.552
774.554
774.557
774.56
774.562
774.564
774.564
774.565
774.566
774.568
774.57
774.574
774.577
774.581
774.585
774.588
774.592
774.595
774.597
774.6
774.602
774.603
774.605
774.607
774.611
774.615
774.619
774.625
774.63
774.636
774.641
774.646
774.65
774.655
774.66
774.664
774.67
774.675
774.682
774.689
774.696
774.704
774.712
774.72
774.729
774.738
774.747
774.757
774.767
774.777
774.787
774.797
774.808
774.819
774.83
774.842
774.853
774.865
774.877
774.889
774.901
774.913
774.926
774.938
774.951
774.964
774.977
774.99
775.004
775.017
775.031
775.044
775.058
775.072
775.087
775.101
775.116
775.131
775.146
775.161
775.177
775.193
775.209
775.225
775.242
775.259
775.276
775.294
775.311
775.329
775.348
775.366
775.385
775.404
775.423
775.443
775.462
775.482
775.502
775.522
775.542
775.563
775.583
775.604
775.625
775.646
775.667
775.688
775.709
775.731
775.752
775.774
775.796
775.819
775.841
775.864
775.886
775.91
775.933
775.956
775.98
776.004
776.029
776.053
776.078
776.104
776.129
776.155
776.181
776.208
776.234
776.261
776.288
776.316
776.343
776.371
776.399
776.427
776.456
776.484
776.513
776.541
776.57
776.599
776.628
776.657
776.686
776.716
776.745
776.775
776.805
776.834
776.865
776.894
776.926
776.955
776.988
777.015
777.051
777.077
777.115
777.139
777.179
777.201
777.244
777.267
777.326
774.514
774.513
774.513
774.513
774.513
774.514
774.514
774.514
774.515
774.515
774.516
774.516
774.517
774.518
774.519
774.52
774.521
774.522
774.523
774.525
774.526
774.528
774.529
774.531
774.532
774.534
774.536
774.538
774.54
774.542
774.544
774.547
774.549
774.552
774.554
774.557
774.56
774.562
774.564
774.564
774.565
774.566
774.568
774.57
774.574
774.577
774.581
774.585
774.588
774.592
774.595
774.597
774.6
774.602
774.603
774.605
774.608
774.611
774.615
774.619
774.625
774.63
774.636
774.641
774.646
774.65
774.655
774.66
774.664
774.67
774.675
774.682
774.689
774.696
774.704
774.712
774.72
774.729
774.738
774.747
774.757
774.767
774.777
774.787
774.797
774.808
774.819
774.83
774.842
774.853
774.865
774.877
774.889
774.901
774.913
774.926
774.938
774.951
774.964
774.977
774.99
775.004
775.017
775.031
775.044
775.058
775.072
775.087
775.101
775.116
775.131
775.146
775.161
775.177
775.193
775.209
775.225
775.242
775.259
775.276
775.294
775.311
775.329
775.348
775.366
775.385
775.404
775.423
775.443
775.462
775.482
775.502
775.522
775.542
775.563
775.583
775.604
775.625
775.646
775.667
775.688
775.709
775.731
775.752
775.774
775.796
775.819
775.841
775.864
775.886
775.91
775.933
775.956
775.98
776.004
776.029
776.053
776.078
776.104
776.129
776.155
776.181
776.208
776.234
776.261
776.288
776.316
776.343
776.371
776.399
776.427
776.456
776.484
776.513
776.541
776.57
776.599
776.628
776.657
776.686
776.716
776.745
776.775
776.805
776.834
776.865
776.895
776.926
776.955
776.987
777.017
777.049
777.079
777.111
777.143
777.174
777.205
777.241
777.269
777.303
774.514
774.513
774.513
774.513
774.513
774.513
774.514
774.514
774.515
774.515
774.516
774.516
774.517
774.518
774.519
774.52
774.521
774.522
774.523
774.525
774.526
774.528
774.529
774.531
774.532
774.534
774.536
774.538
774.54
774.542
774.544
774.547
774.549
774.552
774.554
774.557
774.56
774.562
774.564
774.564
774.565
774.566
774.568
774.57
774.574
774.577
774.581
774.585
774.588
774.592
774.595
774.597
774.6
774.602
774.603
774.605
774.607
774.611
774.615
774.619
774.625
774.63
774.636
774.641
774.646
774.65
774.655
774.66
774.664
774.67
774.675
774.682
774.689
774.696
774.704
774.712
774.72
774.729
774.738
774.747
774.757
774.767
774.777
774.787
774.797
774.808
774.819
774.83
774.842
774.853
774.865
774.877
774.889
774.901
774.913
774.926
774.938
774.951
774.964
774.977
774.99
775.004
775.017
775.031
775.044
775.058
775.072
775.087
775.101
775.116
775.131
775.146
775.161
775.177
775.193
775.209
775.225
775.242
775.259
775.276
775.294
775.311
775.329
775.348
775.366
775.385
775.404
775.423
775.443
775.462
775.482
775.502
775.522
775.542
775.563
775.583
775.604
775.625
775.646
775.667
775.688
775.709
775.731
775.752
775.774
775.796
775.819
775.841
775.864
775.886
775.91
775.933
775.956
775.98
776.004
776.029
776.053
776.078
776.104
776.129
776.155
776.181
776.208
776.234
776.261
776.288
776.316
776.343
776.371
776.399
776.427
776.456
776.484
776.513
776.541
776.57
776.599
776.628
776.657
776.686
776.716
776.745
776.775
776.804
776.835
776.864
776.896
776.924
776.957
776.985
777.019
777.046
777.082
777.108
777.147
777.17
777.212
777.232
777.284
777.277
774.517
774.517
774.516
774.516
774.517
774.517
774.517
774.518
774.518
774.518
774.519
774.519
774.52
774.521
774.522
774.523
774.524
774.525
774.527
774.528
774.529
774.531
774.532
774.534
774.536
774.537
774.539
774.541
774.543
774.545
774.547
774.55
774.552
774.555
774.557
774.56
774.563
774.565
774.566
774.567
774.568
774.569
774.571
774.573
774.577
774.58
774.584
774.588
774.591
774.594
774.597
774.6
774.602
774.604
774.606
774.608
774.61
774.613
774.617
774.622
774.627
774.633
774.638
774.643
774.648
774.653
774.657
774.662
774.667
774.672
774.678
774.684
774.691
774.698
774.706
774.714
774.722
774.731
774.74
774.749
774.759
774.769
774.779
774.789
774.8
774.81
774.821
774.832
774.844
774.855
774.867
774.879
774.891
774.903
774.916
774.928
774.941
774.953
774.966
774.979
774.993
775.006
775.019
775.033
775.047
775.061
775.075
775.089
775.103
775.118
775.133
775.148
775.163
775.179
775.195
775.211
775.227
775.244
775.261
775.278
775.296
775.314
775.332
775.35
775.369
775.387
775.406
775.426
775.445
775.465
775.484
775.504
775.524
775.545
775.565
775.586
775.606
775.627
775.648
775.669
775.69
775.711
775.733
775.755
775.777
775.799
775.821
775.843
775.866
775.889
775.912
775.935
775.959
775.983
776.007
776.031
776.056
776.081
776.106
776.131
776.157
776.183
776.21
776.236
776.263
776.291
776.318
776.346
776.373
776.401
776.43
776.458
776.486
776.515
776.544
776.572
776.601
776.63
776.659
776.689
776.718
776.747
776.777
776.807
776.837
776.866
776.898
776.926
776.959
776.987
777.022
777.048
777.085
777.11
777.149
777.172
777.214
777.234
777.292
777.234
777.36
777.38
777.389
777.396
777.404
777.412
777.419
777.421
777.421
777.425
777.425
777.429
777.442
777.464
777.467
777.446
777.42
777.399
777.383
777.373
777.347
777.361
777.368
777.375
777.384
777.394
777.399
777.398
777.397
777.4
777.396
777.398
777.41
777.431
777.435
777.414
777.377
777.36
777.354
777.355
777.324
777.331
777.335
777.34
777.344
777.346
777.35
777.353
777.356
777.359
777.361
777.364
777.368
777.373
777.378
777.388
777.407
777.422
777.425
777.425
777.286
777.291
777.295
777.297
777.297
777.292
777.288
777.284
777.277
777.271
777.268
777.257
777.257
777.254
777.248
777.248
777.248
777.248
777.25
777.251
777.255
777.249
777.252
777.255
777.257
777.256
777.254
777.251
777.248
777.244
777.242
777.235
777.235
777.233
777.231
777.23
777.23
777.233
777.24
777.262
777.315
777.342
777.37
777.423
777.43
777.431
777.448
777.493
777.521
777.537
777.562
777.591
777.618
777.643
777.669
777.696
777.724
777.751
777.778
777.805
777.832
777.86
777.888
777.916
777.945
777.973
778.001
778.029
778.057
778.086
778.115
778.144
778.173
778.201
778.23
778.259
778.287
778.316
778.345
778.374
778.403
778.431
778.46
778.489
778.518
778.547
778.577
778.606
778.636
778.666
778.696
778.726
778.756
778.786
778.816
778.846
778.875
778.905
778.934
778.963
778.993
779.022
779.051
779.08
779.109
779.138
779.167
779.196
779.226
779.255
779.284
779.313
779.343
779.372
779.402
779.432
779.462
779.492
779.52
779.549
779.577
779.605
779.635
779.666
779.699
779.73
779.761
779.79
779.817
779.844
779.872
779.9
779.929
779.959
779.99
780.022
780.056
780.086
780.111
780.137
780.173
780.218
780.257
780.28
780.294
780.316
780.376
780.479
780.569
780.619
780.632
780.626
780.594
780.561
780.548
780.546
780.558
780.594
780.63
780.664
780.695
780.725
780.754
780.782
780.81
780.837
780.864
780.891
780.917
780.943
780.97
780.995
781.021
781.047
781.072
781.098
781.123
781.148
781.173
781.198
781.223
781.248
781.272
781.297
781.322
781.346
781.37
781.395
781.419
781.443
781.467
781.491
781.515
781.538
781.562
781.585
781.609
781.632
781.655
781.678
781.701
781.724
781.747
781.77
781.792
781.814
781.837
781.859
781.881
781.902
781.924
781.946
781.967
781.988
782.009
782.03
782.051
782.071
782.093
782.111
782.134
782.151
782.174
782.19
782.214
782.229
782.254
782.267
782.292
782.305
782.331
782.342
782.368
782.379
782.405
782.416
782.44
782.455
782.467
782.499
777.32
777.344
777.397
777.441
777.447
777.451
777.484
777.531
777.55
777.562
777.592
777.623
777.647
777.669
777.694
777.72
777.748
777.774
777.8
777.825
777.852
777.879
777.906
777.935
777.963
777.991
778.019
778.047
778.075
778.105
778.134
778.164
778.192
778.219
778.247
778.276
778.304
778.332
778.361
778.389
778.418
778.447
778.475
778.504
778.534
778.563
778.593
778.622
778.652
778.682
778.712
778.742
778.772
778.802
778.831
778.861
778.89
778.919
778.948
778.977
779.006
779.035
779.064
779.093
779.123
779.152
779.181
779.21
779.24
779.269
779.299
779.329
779.359
779.389
779.419
779.449
779.479
779.508
779.537
779.566
779.598
779.631
779.666
779.701
779.735
779.763
779.789
779.813
779.838
779.863
779.892
779.922
779.953
779.985
780.017
780.047
780.074
780.103
780.141
780.186
780.223
780.244
780.258
780.285
780.344
780.426
780.511
780.576
780.607
780.612
780.603
780.57
780.542
780.531
780.529
780.538
780.569
780.604
780.636
780.667
780.697
780.726
780.754
780.782
780.809
780.836
780.863
780.889
780.915
780.942
780.968
780.993
781.019
781.045
781.07
781.096
781.121
781.146
781.171
781.196
781.221
781.246
781.27
781.295
781.32
781.344
781.368
781.393
781.417
781.441
781.465
781.489
781.513
781.536
781.56
781.583
781.607
781.63
781.653
781.676
781.699
781.722
781.745
781.768
781.79
781.812
781.835
781.857
781.879
781.9
781.922
781.944
781.965
781.986
782.008
782.028
782.049
782.069
782.091
782.11
782.132
782.149
782.172
782.189
782.212
782.227
782.251
782.265
782.29
782.303
782.329
782.34
782.366
782.377
782.403
782.414
782.439
782.451
782.47
782.494
777.473
777.529
777.592
777.632
777.667
777.705
777.742
777.772
777.801
777.828
777.856
777.883
777.909
777.934
777.96
777.986
778.012
778.039
778.065
778.092
778.119
778.146
778.174
778.201
778.228
778.255
778.282
778.309
778.336
778.363
778.39
778.417
778.445
778.473
778.502
778.531
778.559
778.587
778.615
778.643
778.67
778.698
778.725
778.752
778.78
778.807
778.835
778.863
778.892
778.921
778.95
778.98
779.011
779.041
779.071
779.102
779.132
779.162
779.192
779.221
779.25
779.28
779.31
779.34
779.37
779.401
779.432
779.462
779.493
779.526
779.559
779.592
779.625
779.657
779.69
779.724
779.758
779.79
779.816
779.832
779.839
779.838
779.828
779.813
779.808
779.807
779.807
779.813
779.831
779.854
779.88
779.908
779.939
779.97
780.002
780.035
780.067
780.098
780.128
780.157
780.185
780.212
780.239
780.265
780.291
780.316
780.34
780.364
780.388
780.413
780.437
780.463
780.489
780.516
780.543
780.57
780.597
780.624
780.651
780.678
780.705
780.732
780.758
780.785
780.811
780.838
780.864
780.89
780.916
780.942
780.968
780.994
781.019
781.045
781.07
781.096
781.121
781.146
781.171
781.196
781.221
781.246
781.27
781.295
781.32
781.344
781.368
781.393
781.417
781.441
781.465
781.489
781.513
781.536
781.56
781.583
781.607
781.63
781.653
781.676
781.699
781.722
781.745
781.768
781.79
781.812
781.835
781.857
781.879
781.9
781.922
781.944
781.965
781.986
782.007
782.028
782.049
782.07
782.09
782.111
782.13
782.151
782.17
782.191
782.21
782.23
782.249
782.268
782.287
782.307
782.323
782.346
782.361
782.381
782.4
782.417
782.435
782.455
782.471
782.489
777.274
777.288
777.324
777.354
777.382
777.414
777.447
777.479
777.508
777.537
777.567
777.596
777.625
777.652
777.681
777.709
777.737
777.765
777.792
777.819
777.846
777.874
777.901
777.929
777.956
777.984
778.011
778.039
778.067
778.095
778.123
778.152
778.18
778.208
778.237
778.266
778.295
778.323
778.353
778.382
778.411
778.44
778.469
778.499
778.528
778.557
778.586
778.615
778.645
778.674
778.704
778.733
778.763
778.793
778.822
778.852
778.882
778.912
778.942
778.972
779.002
779.031
779.061
779.09
779.12
779.149
779.178
779.207
779.237
779.266
779.295
779.324
779.353
779.382
779.41
779.439
779.468
779.497
779.525
779.553
779.582
779.612
779.644
779.676
779.705
779.736
779.768
779.798
779.825
779.853
779.887
779.923
779.955
779.986
780.02
780.059
780.098
780.135
780.17
780.206
780.25
780.303
780.362
780.419
780.462
780.484
780.488
780.484
780.467
780.451
780.444
780.444
780.454
780.485
780.519
780.551
780.582
780.613
780.643
780.672
780.7
780.728
780.755
780.783
780.81
780.836
780.863
780.889
780.916
780.942
780.968
780.994
781.019
781.045
781.07
781.096
781.121
781.146
781.171
781.196
781.221
781.246
781.27
781.295
781.32
781.344
781.368
781.393
781.417
781.441
781.465
781.489
781.513
781.536
781.56
781.583
781.607
781.63
781.653
781.676
781.699
781.722
781.745
781.768
781.79
781.812
781.835
781.857
781.879
781.9
781.922
781.944
781.965
781.986
782.007
782.028
782.049
782.07
782.09
782.111
782.13
782.152
782.169
782.192
782.208
782.232
782.246
782.271
782.284
782.31
782.321
782.348
782.359
782.385
782.396
782.421
782.432
782.456
782.469
782.491
777.309
777.355
777.394
777.427
777.458
777.495
777.533
777.567
777.6
777.633
777.667
777.701
777.734
777.765
777.795
777.825
777.854
777.883
777.912
777.94
777.968
777.996
778.025
778.053
778.081
778.109
778.138
778.166
778.195
778.223
778.252
778.281
778.31
778.339
778.367
778.396
778.425
778.454
778.483
778.512
778.54
778.569
778.597
778.626
778.655
778.683
778.713
778.742
778.771
778.801
778.831
778.861
778.89
778.92
778.949
778.979
779.008
779.038
779.067
779.096
779.125
779.154
779.183
779.212
779.24
779.269
779.297
779.326
779.354
779.383
779.411
779.44
779.469
779.498
779.526
779.556
779.586
779.616
779.645
779.675
779.705
779.736
779.766
779.794
779.823
779.851
779.88
779.91
779.941
779.969
779.994
780.024
780.064
780.108
780.141
780.157
780.171
780.205
780.288
780.385
780.455
780.486
780.49
780.479
780.44
780.413
780.403
780.401
780.403
780.417
780.441
780.465
780.491
780.518
780.545
780.572
780.599
780.626
780.653
780.68
780.707
780.733
780.76
780.787
780.813
780.839
780.866
780.892
780.918
780.944
780.97
780.996
781.021
781.047
781.072
781.098
781.123
781.148
781.173
781.198
781.223
781.248
781.272
781.297
781.322
781.346
781.37
781.395
781.419
781.443
781.467
781.491
781.515
781.538
781.562
781.585
781.609
781.632
781.655
781.678
781.701
781.724
781.747
781.77
781.792
781.814
781.837
781.859
781.881
781.902
781.924
781.946
781.967
781.988
782.009
782.03
782.051
782.072
782.092
782.113
782.132
782.154
782.171
782.194
782.21
782.234
782.248
782.273
782.286
782.312
782.323
782.349
782.361
782.385
782.401
782.417
782.441
782.452
782.474
782.493
782.508
782.51
782.512
782.513
782.514
782.515
782.516
782.516
782.517
782.518
782.519
782.52
782.521
782.522
782.523
782.523
782.524
782.525
782.527
782.529
782.5
782.503
782.505
782.507
782.508
782.509
782.51
782.511
782.512
782.513
782.514
782.516
782.52
782.521
782.522
782.524
782.528
782.532
782.539
782.544
782.499
782.503
782.507
782.512
782.517
782.522
782.528
782.531
782.537
782.543
782.546
782.553
782.563
782.572
782.577
782.585
782.603
782.613
782.626
782.634
782.502
782.508
782.514
782.52
782.527
782.535
782.541
782.545
782.549
782.555
782.56
782.562
782.571
782.59
782.601
782.602
782.598
782.596
782.598
782.597
782.505
782.511
782.516
782.523
782.529
782.535
782.541
782.548
782.553
782.557
782.561
782.567
782.584
782.606
782.615
782.615
782.608
782.602
782.596
782.585
782.541
782.559
782.586
782.609
782.63
782.654
782.684
782.713
782.736
782.757
782.783
782.813
782.836
782.855
782.878
782.905
782.929
782.947
782.964
782.983
783.005
783.027
783.041
783.053
783.068
783.084
783.101
783.116
783.126
783.137
783.149
783.162
783.174
783.186
783.197
783.208
783.219
783.23
783.24
783.25
783.261
783.271
783.281
783.29
783.3
783.309
783.319
783.329
783.338
783.348
783.357
783.367
783.376
783.386
783.395
783.404
783.413
783.422
783.43
783.437
783.445
783.453
783.461
783.468
783.476
783.484
783.491
783.498
783.506
783.514
783.522
783.528
783.534
783.541
783.548
783.555
783.562
783.568
783.573
783.579
783.589
783.597
783.598
783.6
783.608
783.634
783.649
783.648
783.641
783.646
783.716
783.83
783.86
783.85
783.79
783.702
783.646
783.619
783.608
783.586
782.557
782.591
782.62
782.636
782.651
782.677
782.711
782.736
782.747
782.76
782.784
782.808
782.821
782.832
782.851
782.873
782.887
782.894
782.904
782.922
782.943
782.956
782.961
782.966
782.978
782.993
783.01
783.02
783.025
783.032
783.042
783.053
783.063
783.074
783.084
783.094
783.104
783.113
783.123
783.132
783.142
783.151
783.161
783.17
783.18
783.189
783.199
783.208
783.218
783.228
783.237
783.247
783.256
783.265
783.274
783.284
783.293
783.302
783.311
783.32
783.328
783.337
783.345
783.354
783.361
783.369
783.377
783.384
783.392
783.399
783.406
783.413
783.42
783.426
783.432
783.44
783.449
783.454
783.458
783.467
783.478
783.483
783.487
783.495
783.509
783.519
783.526
783.538
783.553
783.567
783.587
783.609
783.625
783.651
783.695
783.727
783.733
783.729
783.708
783.649
782.683
782.743
782.797
782.842
782.882
782.923
782.968
783.004
783.028
783.051
783.08
783.102
783.111
783.123
783.144
783.167
783.173
783.171
783.179
783.198
783.221
783.228
783.219
783.218
783.23
783.247
783.267
783.271
783.266
783.269
783.279
783.29
783.302
783.313
783.324
783.334
783.344
783.354
783.363
783.372
783.381
783.391
783.401
783.41
783.421
783.431
783.441
783.451
783.461
783.471
783.481
783.491
783.501
783.51
783.52
783.53
783.541
783.552
783.562
783.571
783.581
783.592
783.603
783.613
783.623
783.634
783.647
783.661
783.674
783.684
783.684
783.668
783.646
783.615
783.578
783.547
783.522
783.5
783.484
783.476
783.476
783.48
783.485
783.493
783.501
783.51
783.519
783.527
783.533
783.541
783.543
783.551
783.551
783.556
783.559
783.558
783.56
783.56
783.558
783.555
782.63
782.641
782.686
782.743
782.749
782.736
782.749
782.826
782.835
782.822
782.828
782.893
782.895
782.879
782.88
782.938
782.97
782.954
782.925
782.928
782.98
783.038
783.029
782.994
782.979
782.988
783.048
783.076
783.065
783.04
783.035
783.042
783.053
783.064
783.075
783.086
783.097
783.108
783.119
783.129
783.14
783.151
783.162
783.172
783.182
783.193
783.203
783.213
783.224
783.234
783.244
783.254
783.264
783.274
783.283
783.293
783.301
783.31
783.318
783.326
783.334
783.342
783.35
783.358
783.365
783.373
783.382
783.391
783.396
783.405
783.434
783.437
783.434
783.436
783.442
783.449
783.455
783.461
783.467
783.472
783.478
783.486
783.495
783.502
783.507
783.515
783.524
783.533
783.536
783.541
783.554
783.576
783.59
783.59
783.585
783.583
783.598
783.67
783.753
783.781
782.619
782.641
782.651
782.674
782.704
782.709
782.711
782.721
782.743
782.765
782.781
782.788
782.791
782.806
782.834
782.854
782.852
782.857
782.872
782.891
782.913
782.919
782.928
782.936
782.943
782.961
782.984
782.987
782.998
783.004
783.011
783.023
783.035
783.047
783.059
783.07
783.082
783.093
783.104
783.115
783.125
783.136
783.147
783.157
783.168
783.178
783.188
783.198
783.208
783.218
783.228
783.238
783.248
783.258
783.267
783.277
783.286
783.295
783.304
783.312
783.32
783.328
783.336
783.344
783.352
783.359
783.366
783.375
783.382
783.392
783.402
783.406
783.411
783.418
783.425
783.431
783.438
783.445
783.451
783.457
783.464
783.469
783.474
783.48
783.488
783.495
783.5
783.506
783.516
783.526
783.528
783.529
783.534
783.553
783.575
783.579
783.576
783.571
783.581
783.648
783.579
783.575
783.57
783.566
783.562
783.558
783.555
783.551
783.548
783.545
783.542
783.538
783.535
783.533
783.531
783.529
783.527
783.526
783.525
783.525
783.619
783.61
783.601
783.593
783.585
783.577
783.569
783.561
783.553
783.546
783.538
783.53
783.524
783.521
783.521
783.521
783.522
783.524
783.528
783.532
783.557
783.558
783.559
783.56
783.56
783.56
783.56
783.561
783.562
783.563
783.565
783.57
783.574
783.577
783.584
783.59
783.599
783.605
783.62
783.631
783.784
783.784
783.784
783.784
783.776
783.761
783.74
783.716
783.691
783.669
783.648
783.628
783.611
783.597
783.584
783.573
783.568
783.575
783.596
783.612
783.709
783.736
783.757
783.772
783.783
783.79
783.796
783.795
783.779
783.753
783.724
783.694
783.66
783.63
783.606
783.587
783.57
783.563
783.567
783.571
783.525
783.53
783.542
783.552
783.557
783.565
783.581
783.597
783.605
783.612
783.626
783.645
783.657
783.663
783.67
783.681
783.699
783.716
783.723
783.724
783.727
783.733
783.745
783.761
783.77
783.769
783.759
783.755
783.759
783.762
783.764
783.766
783.767
783.768
783.769
783.77
783.77
783.771
783.772
783.773
783.774
783.774
783.775
783.775
783.775
783.775
783.775
783.775
783.776
783.776
783.777
783.778
783.781
783.781
783.778
783.778
783.789
783.792
783.784
783.778
783.78
783.787
783.79
783.787
783.785
783.787
783.789
783.791
783.793
783.793
783.792
783.794
783.798
783.798
783.796
783.795
783.804
783.821
783.822
783.814
783.82
783.916
784.033
784.047
783.991
783.871
783.796
783.753
783.724
783.7
783.683
783.676
783.675
783.675
783.675
783.675
783.675
783.676
783.676
783.677
783.678
783.678
783.679
783.68
783.68
783.681
783.682
783.682
783.683
783.684
783.684
783.685
783.686
783.686
783.687
783.687
783.688
783.688
783.689
783.689
783.689
783.69
783.69
783.69
783.69
783.691
783.691
783.691
783.691
783.691
783.691
783.691
783.691
783.691
783.691
783.691
783.691
783.691
783.691
783.691
783.691
783.691
783.691
783.69
783.69
783.69
783.69
783.69
783.69
783.69
783.689
783.689
783.689
783.689
783.689
783.688
783.688
783.688
783.687
783.687
783.687
783.686
783.686
783.686
783.685
783.685
783.685
783.684
783.684
783.683
783.683
783.682
783.682
783.681
783.681
783.68
783.679
783.679
783.678
783.678
783.676
783.677
783.674
783.676
783.673
783.675
783.671
783.674
783.669
783.672
783.668
783.67
783.666
783.668
783.666
783.663
783.667
783.662
783.662
783.663
783.534
783.564
783.593
783.601
783.603
783.616
783.649
783.656
783.651
783.652
783.675
783.691
783.684
783.671
783.671
783.688
783.718
783.719
783.702
783.68
783.674
783.681
783.711
783.729
783.726
783.704
783.679
783.67
783.671
783.675
783.677
783.677
783.677
783.675
783.674
783.672
783.67
783.668
783.667
783.665
783.664
783.663
783.663
783.662
783.662
783.662
783.662
783.662
783.662
783.662
783.662
783.664
783.666
783.667
783.67
783.688
783.698
783.694
783.682
783.669
783.676
783.682
783.681
783.676
783.673
783.673
783.673
783.675
783.679
783.679
783.68
783.681
783.685
783.688
783.689
783.691
783.699
783.706
783.71
783.719
783.728
783.751
783.776
783.788
783.814
783.853
783.872
783.874
783.863
783.809
783.733
783.68
783.652
783.646
783.65
783.658
783.663
783.667
783.67
783.672
783.673
783.675
783.676
783.677
783.678
783.679
783.68
783.681
783.681
783.682
783.683
783.683
783.684
783.685
783.685
783.686
783.686
783.687
783.687
783.687
783.688
783.688
783.688
783.689
783.689
783.689
783.689
783.689
783.689
783.69
783.69
783.69
783.69
783.69
783.69
783.69
783.689
783.689
783.689
783.689
783.689
783.689
783.689
783.689
783.689
783.689
783.689
783.688
783.688
783.688
783.688
783.688
783.687
783.687
783.687
783.687
783.687
783.686
783.686
783.686
783.685
783.685
783.685
783.684
783.684
783.684
783.683
783.683
783.682
783.682
783.681
783.681
783.68
783.68
783.679
783.679
783.678
783.678
783.676
783.677
783.675
783.676
783.673
783.674
783.671
783.673
783.67
783.672
783.668
783.671
783.666
783.669
783.665
783.667
783.663
783.666
783.661
783.663
783.66
783.66
783.657
783.706
783.752
783.789
783.817
783.848
783.884
783.911
783.921
783.932
783.953
783.972
783.965
783.949
783.953
783.968
783.989
783.994
783.965
783.934
783.933
783.95
783.976
784
783.99
783.951
783.91
783.896
783.895
783.896
783.897
783.898
783.898
783.899
783.899
783.899
783.9
783.9
783.901
783.901
783.901
783.902
783.903
783.903
783.903
783.903
783.904
783.905
783.907
783.908
783.91
783.913
783.919
783.933
783.959
784.001
784.026
783.997
783.96
783.961
783.98
783.993
783.952
783.904
783.863
783.816
783.778
783.746
783.719
783.697
783.685
783.681
783.681
783.682
783.686
783.69
783.694
783.698
783.701
783.703
783.705
783.706
783.706
783.705
783.703
783.701
783.698
783.695
783.692
783.688
783.683
783.679
783.675
783.673
783.673
783.673
783.674
783.675
783.675
783.676
783.676
783.677
783.677
783.678
783.679
783.679
783.68
783.681
783.682
783.682
783.683
783.683
783.684
783.685
783.685
783.686
783.686
783.687
783.687
783.687
783.688
783.688
783.688
783.689
783.689
783.689
783.689
783.689
783.689
783.69
783.69
783.69
783.69
783.69
783.69
783.69
783.689
783.689
783.689
783.689
783.689
783.689
783.689
783.689
783.689
783.689
783.689
783.688
783.688
783.688
783.688
783.688
783.687
783.687
783.687
783.687
783.687
783.686
783.686
783.686
783.685
783.685
783.685
783.684
783.684
783.684
783.683
783.683
783.682
783.682
783.681
783.681
783.68
783.68
783.679
783.679
783.678
783.678
783.677
783.676
783.675
783.675
783.674
783.674
783.672
783.672
783.671
783.671
783.669
783.67
783.667
783.668
783.666
783.665
783.665
783.664
783.662
783.663
783.661
783.661
783.618
783.6
783.634
783.706
783.703
783.666
783.676
783.758
783.755
783.707
783.706
783.79
783.822
783.779
783.709
783.704
783.779
783.857
783.853
783.811
783.712
783.679
783.72
783.813
783.851
783.849
783.806
783.696
783.656
783.646
783.647
783.649
783.651
783.652
783.653
783.655
783.656
783.657
783.658
783.659
783.66
783.661
783.661
783.662
783.662
783.662
783.663
783.663
783.664
783.665
783.665
783.667
783.671
783.673
783.681
783.734
783.847
783.856
783.82
783.722
783.705
783.761
783.788
783.753
783.7
783.685
783.682
783.682
783.683
783.684
783.684
783.684
783.686
783.69
783.693
783.694
783.695
783.699
783.701
783.702
783.702
783.708
783.727
783.737
783.738
783.732
783.73
783.747
783.827
783.901
783.923
783.912
783.834
783.733
783.672
783.649
783.65
783.658
783.665
783.669
783.672
783.674
783.675
783.677
783.678
783.679
783.68
783.681
783.681
783.682
783.683
783.683
783.684
783.685
783.685
783.686
783.686
783.687
783.687
783.687
783.688
783.688
783.688
783.689
783.689
783.689
783.689
783.689
783.689
783.69
783.69
783.69
783.69
783.69
783.69
783.69
783.689
783.689
783.689
783.689
783.689
783.689
783.689
783.689
783.689
783.689
783.689
783.688
783.688
783.688
783.688
783.688
783.687
783.687
783.687
783.687
783.687
783.686
783.686
783.686
783.685
783.685
783.685
783.684
783.684
783.684
783.683
783.683
783.682
783.682
783.681
783.681
783.68
783.68
783.679
783.678
783.678
783.677
783.677
783.675
783.676
783.674
783.675
783.672
783.674
783.67
783.673
783.669
783.671
783.667
783.67
783.665
783.668
783.664
783.666
783.662
783.664
783.663
783.658
783.663
783.576
783.582
783.598
783.626
783.637
783.635
783.627
783.629
783.637
783.642
783.65
783.661
783.657
783.652
783.651
783.651
783.667
783.691
783.682
783.679
783.666
783.65
783.655
783.674
783.689
783.688
783.685
783.654
783.63
783.625
783.627
783.632
783.634
783.636
783.637
783.639
783.64
783.641
783.642
783.643
783.645
783.646
783.647
783.647
783.648
783.648
783.649
783.649
783.65
783.651
783.651
783.652
783.655
783.661
783.679
783.699
783.701
783.693
783.696
783.686
783.683
783.677
783.671
783.674
783.668
783.663
783.663
783.665
783.666
783.667
783.669
783.671
783.671
783.672
783.672
783.674
783.678
783.679
783.681
783.685
783.688
783.688
783.686
783.686
783.695
783.712
783.716
783.713
783.71
783.726
783.82
783.902