/*--------------------------------*- C++ -*----------------------------------*\
| =========                 |                                                 |
| \\      /  F ield         | OpenFOAM: The Open Source CFD Toolbox           |
|  \\    /   O peration     | Version:  3.0.x                                 |
|   \\  /    A nd           | Web:      www.OpenFOAM.org                      |
|    \\/     M anipulation  |                                                 |
\*---------------------------------------------------------------------------*/
FoamFile
{
    version     2.0;
    format      ascii;
    class       surfaceScalarField;
    location    "0.12";
    object      phi;
}
// * * * * * * * * * * * * * * * * * * * * * * * * * * * * * * * * * * * * * //

dimensions      [1 0 -1 0 0 0 0];

internalField   nonuniform List<scalar> 
26210
(
3.90589
0.000503895
3.90555
0.000346011
3.90522
0.000339673
3.90489
0.000341262
3.90456
0.000341352
3.90423
0.000341143
3.9039
0.00034107
3.90357
0.000340881
3.90324
0.000340414
3.90292
0.000339224
3.90259
0.000337137
3.90227
0.000333403
3.90195
0.000327351
3.90164
0.000318211
3.90134
0.000305498
3.90105
0.000288683
3.90079
0.000267772
3.90054
0.000243286
3.90032
0.000216028
3.90012
0.000187176
3.89995
0.000158049
3.8998
0.000129952
3.89966
0.000103986
3.89954
8.09582e-05
3.89944
6.1325e-05
3.89933
4.52066e-05
3.89923
3.24452e-05
3.89912
2.26881e-05
3.89901
1.54748e-05
3.89888
1.03122e-05
3.89873
6.73171e-06
3.89856
4.32284e-06
3.89838
2.74973e-06
3.89816
1.75184e-06
3.89792
1.13703e-06
3.89764
7.69225e-07
3.89733
5.56e-07
3.89699
4.36765e-07
3.89661
3.72998e-07
3.89619
3.4101e-07
3.89573
3.27356e-07
3.89523
3.2358e-07
3.89469
3.23613e-07
3.89412
3.26119e-07
3.8935
3.29794e-07
3.89285
3.33541e-07
3.89216
3.36629e-07
3.89144
3.38805e-07
3.8907
3.39682e-07
3.88993
3.39292e-07
3.88915
3.37321e-07
3.88836
3.33686e-07
3.88757
3.28335e-07
3.88678
3.20983e-07
3.886
3.11855e-07
3.88525
3.00643e-07
3.88453
2.87622e-07
3.88384
2.72768e-07
3.8832
2.56106e-07
3.88262
2.38037e-07
3.8821
2.18475e-07
3.88165
1.97884e-07
3.88128
1.76515e-07
3.88099
1.54658e-07
3.88079
1.3259e-07
3.88068
1.10729e-07
3.88066
8.96653e-08
3.88074
7.7398e-08
3.8809
4.79668e-08
3.88117
3.2338e-08
3.88152
1.68366e-08
3.88196
4.21278e-09
3.88249
-6.26096e-09
3.88309
-1.36206e-08
3.88377
-1.79389e-08
3.88452
-2.13586e-08
3.88532
-2.04709e-08
3.88618
-1.48975e-08
3.88708
-1.11759e-08
3.88802
-1.60071e-10
3.889
9.59335e-09
3.89
2.35013e-08
3.89101
3.85626e-08
3.89204
5.46315e-08
3.89308
7.29815e-08
3.89411
1.0544e-07
3.89514
1.15335e-07
3.89616
6.20312e-08
3.89716
1.46272e-07
3.89814
1.72549e-07
3.8991
1.81582e-07
3.90003
1.88418e-07
3.90093
1.95552e-07
3.90178
2.0381e-07
3.9026
2.10333e-07
3.90337
2.15332e-07
3.90408
2.17176e-07
3.90475
2.16802e-07
3.90535
2.15066e-07
3.90589
2.1181e-07
3.90635
2.02759e-07
3.90675
1.97644e-07
3.90707
1.85533e-07
3.9073
1.75918e-07
3.90745
1.64095e-07
3.90752
1.515e-07
3.90749
1.37552e-07
3.90737
1.24797e-07
3.90716
1.12097e-07
3.90685
9.94696e-08
3.90645
8.8221e-08
3.90595
7.38473e-08
3.90536
6.73899e-08
3.90467
5.94191e-08
3.9039
5.28162e-08
3.90304
4.79085e-08
3.9021
4.47544e-08
3.90108
4.3241e-08
3.89999
4.35575e-08
3.89883
4.5482e-08
3.8976
4.8989e-08
3.89631
5.40094e-08
3.89498
6.01976e-08
3.89359
6.74918e-08
3.89217
7.55972e-08
3.89072
8.41937e-08
3.88925
8.98945e-08
3.88776
7.41966e-08
3.88627
1.01867e-07
3.88478
1.72175e-07
3.8833
1.25463e-07
3.88184
1.2455e-07
3.88041
1.31957e-07
3.87903
1.37796e-07
3.87769
1.39822e-07
3.87641
1.3908e-07
3.8752
1.36217e-07
3.87406
1.31306e-07
3.87301
1.24379e-07
3.87205
1.1552e-07
3.87118
1.0481e-07
3.87042
9.24592e-08
3.86977
7.87222e-08
3.86922
6.66623e-08
3.86879
4.99713e-08
3.86847
3.23125e-08
3.86825
1.70767e-08
3.86815
1.10595e-09
3.86815
-1.437e-08
3.86825
-2.89911e-08
3.86844
-4.1473e-08
3.86872
-5.4566e-08
3.86907
-6.46287e-08
3.8695
-7.1992e-08
3.86998
-7.96572e-08
3.87052
-8.19491e-08
3.87109
-8.4794e-08
3.87169
-8.30987e-08
3.87231
-8.04393e-08
3.87293
-7.5448e-08
3.87356
-6.75755e-08
3.87418
-5.96738e-08
3.87478
-4.85343e-08
3.87536
-3.6951e-08
3.87591
-2.44363e-08
3.87642
-1.0401e-08
3.8769
3.06682e-09
3.87734
1.75423e-08
3.87774
3.2036e-08
3.8781
4.55839e-08
3.87842
5.94919e-08
3.8787
7.23267e-08
3.87894
8.4463e-08
3.87915
9.60972e-08
3.87932
1.06113e-07
3.87946
1.1571e-07
3.87958
1.2399e-07
3.87967
1.31455e-07
3.87974
1.37843e-07
3.8798
1.43114e-07
3.87983
1.47593e-07
3.87986
1.51518e-07
3.87988
1.54843e-07
3.87989
1.62065e-07
3.87989
1.6571e-07
3.87989
1.24979e-07
3.87989
1.95811e-07
3.87988
1.37861e-07
3.87988
1.93711e-07
3.87988
2.58475e-07
3.87988
6.11664e-07
3.87988
2.35521e-06
3.87987
1.08195e-05
3.87982
5.11616e-05
3.87959
0.000245509
3.87843
0.00116915
3.87294
0.00550443
3.8472
0.0257624
3.7158
0.13142
0.499912
3.21591
5.52453
0.00046053
5.52456
0.00032842
5.5246
0.000315066
5.52464
0.000318506
5.52467
0.000318779
5.5247
0.000318516
5.52474
0.000318482
5.52478
0.000318355
5.52482
0.000317959
5.52487
0.000316894
5.52491
0.000314983
5.52494
0.000311533
5.52497
0.000305913
5.525
0.000297406
5.52503
0.000285541
5.52505
0.000269845
5.52507
0.000250309
5.52508
0.000227424
5.52509
0.000201945
5.52508
0.000174974
5.52507
0.000147745
5.52505
0.00012148
5.52501
9.72071e-05
5.52497
7.56818e-05
5.5249
5.73304e-05
5.52482
4.22645e-05
5.52473
3.03361e-05
5.52461
2.12156e-05
5.52446
1.44723e-05
5.5243
9.64564e-06
5.5241
6.29761e-06
5.52387
4.04476e-06
5.52361
2.57322e-06
5.5233
1.63958e-06
5.52296
1.06417e-06
5.52257
7.19849e-07
5.52213
5.20164e-07
5.52165
4.08452e-07
5.52111
3.48671e-07
5.52052
3.1866e-07
5.51987
3.05834e-07
5.51917
3.02261e-07
5.51841
3.0228e-07
5.51759
3.04584e-07
5.51672
3.07999e-07
5.51579
3.11495e-07
5.51482
3.14372e-07
5.51381
3.16393e-07
5.51276
3.17223e-07
5.51167
3.16848e-07
5.51057
3.14998e-07
5.50945
3.11606e-07
5.50833
3.06612e-07
5.50721
2.99757e-07
5.50612
2.91222e-07
5.50505
2.80759e-07
5.50402
2.68603e-07
5.50306
2.54735e-07
5.50215
2.3919e-07
5.50133
2.22315e-07
5.50059
2.04067e-07
5.49996
1.84853e-07
5.49943
1.64902e-07
5.49902
1.44504e-07
5.49874
1.23913e-07
5.49858
1.03515e-07
5.49855
8.39336e-08
5.49866
7.20847e-08
5.4989
4.53601e-08
5.49927
3.02152e-08
5.49977
1.58871e-08
5.5004
4.09636e-09
5.50114
-5.62432e-09
5.502
-1.24019e-08
5.50295
-1.65146e-08
5.50401
-1.97124e-08
5.50514
-1.88611e-08
5.50636
-1.37334e-08
5.50763
-1.01081e-08
5.50897
3.27418e-11
5.51034
9.27503e-09
5.51176
2.21498e-08
5.51319
3.62361e-08
5.51465
5.12646e-08
5.51611
6.86559e-08
5.51757
9.87438e-08
5.51903
1.07406e-07
5.52047
6.04523e-08
5.52188
1.34611e-07
5.52327
1.61248e-07
5.52463
1.69814e-07
5.52594
1.76129e-07
5.52721
1.82805e-07
5.52842
1.90485e-07
5.52957
1.96571e-07
5.53066
2.01211e-07
5.53167
2.02928e-07
5.53261
2.02586e-07
5.53346
2.00962e-07
5.53422
1.97851e-07
5.53488
1.89524e-07
5.53544
1.84584e-07
5.53589
1.73422e-07
5.53622
1.64413e-07
5.53644
1.53517e-07
5.53653
1.41512e-07
5.53649
1.28217e-07
5.53632
1.16766e-07
5.53602
1.04837e-07
5.53558
9.29485e-08
5.53501
8.23748e-08
5.53431
6.92344e-08
5.53347
6.30498e-08
5.5325
5.56174e-08
5.53141
4.94801e-08
5.5302
4.49145e-08
5.52887
4.19768e-08
5.52742
4.0578e-08
5.52588
4.08763e-08
5.52423
4.26717e-08
5.52249
4.5944e-08
5.52068
5.06225e-08
5.51879
5.64069e-08
5.51683
6.32044e-08
5.51482
7.07805e-08
5.51277
7.87459e-08
5.51069
8.37808e-08
5.50858
6.97746e-08
5.50647
9.56625e-08
5.50436
1.5928e-07
5.50227
1.18802e-07
5.50021
1.1627e-07
5.49819
1.23358e-07
5.49623
1.28801e-07
5.49433
1.3068e-07
5.49252
1.2999e-07
5.49081
1.2732e-07
5.4892
1.22744e-07
5.48771
1.16275e-07
5.48635
1.07999e-07
5.48513
9.79999e-08
5.48405
8.64693e-08
5.48313
7.36745e-08
5.48236
6.22767e-08
5.48175
4.68899e-08
5.48129
3.05427e-08
5.48099
1.59562e-08
5.48084
1.24237e-09
5.48084
-1.33059e-08
5.48097
-2.67555e-08
5.48125
-3.85062e-08
5.48164
-5.06716e-08
5.48214
-6.0083e-08
5.48274
-6.69788e-08
5.48343
-7.40583e-08
5.48418
-7.62884e-08
5.48499
-7.8855e-08
5.48584
-7.7338e-08
5.48672
-7.48223e-08
5.4876
-7.01675e-08
5.48849
-6.28679e-08
5.48936
-5.54264e-08
5.49021
-4.50982e-08
5.49103
-3.42625e-08
5.4918
-2.25828e-08
5.49253
-9.52241e-09
5.49321
3.07409e-09
5.49383
1.65619e-08
5.4944
3.00752e-08
5.4949
4.27444e-08
5.49535
5.56811e-08
5.49575
6.76737e-08
5.49609
7.89987e-08
5.49638
8.98272e-08
5.49663
9.91895e-08
5.49683
1.0817e-07
5.49699
1.15657e-07
5.49712
1.23006e-07
5.49722
1.28792e-07
5.4973
1.33692e-07
5.49735
1.37894e-07
5.49739
1.41659e-07
5.49741
1.45677e-07
5.49742
1.59698e-07
5.49743
1.69877e-07
5.49743
5.88007e-08
5.49743
2.42691e-07
5.49742
9.17989e-08
5.49742
2.3185e-07
5.49741
3.81166e-07
5.49741
1.25186e-06
5.49741
5.41979e-06
5.4974
2.58435e-05
5.49734
0.000123014
5.497
0.000591235
5.49537
0.00281683
5.48763
0.0132734
5.45129
0.0621284
5.27016
0.312583
1.15693
4.61317
7.81286
0.000402739
7.8129
0.000300892
7.81296
0.00028092
7.81301
0.000285932
7.81306
0.000286452
7.81311
0.00028609
7.81316
0.000286055
7.81322
0.000285956
7.81328
0.000285605
7.81334
0.000284667
7.8134
0.000282971
7.81345
0.000279906
7.8135
0.000274906
7.81354
0.000267333
7.81358
0.000256743
7.81361
0.000242734
7.81363
0.000225273
7.81365
0.000204795
7.81366
0.000181971
7.81365
0.000157783
7.81364
0.000133335
7.8136
0.000109725
7.81355
8.78812e-05
7.81349
6.84867e-05
7.8134
5.19319e-05
7.81329
3.83244e-05
7.81315
2.75374e-05
7.81298
1.92792e-05
7.81278
1.31657e-05
7.81254
8.78413e-06
7.81226
5.74086e-06
7.81194
3.69034e-06
7.81156
2.34912e-06
7.81113
1.49699e-06
7.81065
9.71027e-07
7.8101
6.55814e-07
7.80948
4.72697e-07
7.8088
3.70048e-07
7.80803
3.14975e-07
7.8072
2.87227e-07
7.80628
2.75248e-07
7.80528
2.71772e-07
7.80421
2.71686e-07
7.80305
2.73669e-07
7.80182
2.76692e-07
7.80052
2.79814e-07
7.79914
2.82388e-07
7.79771
2.8419e-07
7.79622
2.84937e-07
7.79469
2.84591e-07
7.79313
2.82935e-07
7.79154
2.79884e-07
7.78996
2.75394e-07
7.78838
2.69243e-07
7.78683
2.61557e-07
7.78532
2.52169e-07
7.78387
2.41246e-07
7.7825
2.28787e-07
7.78122
2.14829e-07
7.78006
1.99658e-07
7.77902
1.83279e-07
7.77812
1.66014e-07
7.77738
1.48099e-07
7.7768
1.29772e-07
7.77639
1.11278e-07
7.77617
9.29676e-08
7.77613
7.54626e-08
7.77629
6.4364e-08
7.77662
4.11965e-08
7.77715
2.69602e-08
7.77786
1.425e-08
7.77874
3.71165e-09
7.77979
-5.00222e-09
7.781
-1.10094e-08
7.78236
-1.48202e-08
7.78384
-1.77106e-08
7.78545
-1.69339e-08
7.78717
-1.23819e-08
7.78897
-8.91578e-09
7.79086
1.81899e-11
7.79281
8.50468e-09
7.7948
1.9847e-08
7.79684
3.25708e-08
7.79889
4.61159e-08
7.80096
6.19602e-08
7.80303
8.85129e-08
7.80509
9.55342e-08
7.80712
5.72245e-08
7.80913
1.18839e-07
7.81109
1.44885e-07
7.81301
1.52651e-07
7.81486
1.58238e-07
7.81666
1.64258e-07
7.81837
1.71139e-07
7.82
1.76599e-07
7.82154
1.80738e-07
7.82297
1.82303e-07
7.8243
1.82007e-07
7.8255
1.8054e-07
7.82657
1.77661e-07
7.82751
1.70329e-07
7.8283
1.65715e-07
7.82893
1.55859e-07
7.82941
1.47716e-07
7.82971
1.38142e-07
7.82983
1.2702e-07
7.82978
1.14779e-07
7.82954
1.05013e-07
7.82912
9.42255e-08
7.8285
8.34025e-08
7.82769
7.38319e-08
7.82669
6.23286e-08
7.82551
5.66206e-08
7.82415
4.9934e-08
7.8226
4.44361e-08
7.82089
4.03388e-08
7.819
3.76895e-08
7.81696
3.64389e-08
7.81477
3.67027e-08
7.81245
3.83188e-08
7.80999
4.12547e-08
7.80742
4.54484e-08
7.80475
5.06561e-08
7.80198
5.67597e-08
7.79914
6.356e-08
7.79624
7.06596e-08
7.79329
7.49169e-08
7.79032
6.32208e-08
7.78733
8.6442e-08
7.78435
1.41043e-07
7.78139
1.0819e-07
7.77847
1.04229e-07
7.77562
1.10806e-07
7.77284
1.15672e-07
7.77017
1.17354e-07
7.76761
1.16736e-07
7.76518
1.14338e-07
7.76291
1.10232e-07
7.7608
1.04422e-07
7.75888
9.69867e-08
7.75715
8.80063e-08
7.75563
7.76508e-08
7.75432
6.61857e-08
7.75323
5.57802e-08
7.75237
4.21805e-08
7.75172
2.76505e-08
7.75129
1.4129e-08
7.75108
1.10413e-09
7.75108
-1.20008e-08
7.75127
-2.39188e-08
7.75166
-3.46117e-08
7.75221
-4.54802e-08
7.75292
-5.39358e-08
7.75377
-6.01767e-08
7.75474
-6.64395e-08
7.75581
-6.85468e-08
7.75695
-7.07496e-08
7.75816
-6.94599e-08
7.75939
-6.71616e-08
7.76065
-6.29798e-08
7.7619
-5.64678e-08
7.76313
-4.97139e-08
7.76433
-4.05043e-08
7.76549
-3.07391e-08
7.76658
-2.02499e-08
7.76761
-8.55925e-09
7.76857
2.84217e-09
7.76945
1.48793e-08
7.77025
2.70138e-08
7.77097
3.84352e-08
7.77161
5.00067e-08
7.77217
6.07934e-08
7.77265
7.09724e-08
7.77306
8.06695e-08
7.77341
8.91041e-08
7.77369
9.71886e-08
7.77392
1.03659e-07
7.77411
1.1066e-07
7.77425
1.157e-07
7.77436
1.20068e-07
7.77443
1.23872e-07
7.77449
1.27411e-07
7.77452
1.32384e-07
7.77454
1.56163e-07
7.77454
1.76266e-07
7.77454
-3.71074e-08
7.77454
3.10938e-07
7.77453
2.4017e-08
7.77452
2.86413e-07
7.77452
5.48192e-07
7.77452
2.13807e-06
7.77451
9.64816e-06
7.7745
4.66065e-05
7.77441
0.000222281
7.77396
0.00106891
7.7717
0.00509445
7.76099
0.0240197
7.71082
0.112339
7.46492
0.558523
2.02249
6.5994
34.4876
0.000186237
34.4878
0.000157045
34.4881
0.000139112
34.4883
0.000142485
34.4885
0.000143587
34.4887
0.000143221
34.4889
0.000143105
34.4892
0.000143055
34.4895
0.000142877
34.4897
0.000142427
34.49
0.000141607
34.4902
0.000140128
34.4904
0.0001377
34.4906
0.000134011
34.4908
0.000128812
34.4909
0.000121921
34.491
0.000113293
34.4911
0.000103135
34.4911
9.17761e-05
34.4911
7.9701e-05
34.491
6.74593e-05
34.4909
5.56047e-05
34.4907
4.46085e-05
34.4904
3.48211e-05
34.49
2.64472e-05
34.4895
1.95488e-05
34.4889
1.40686e-05
34.4882
9.86454e-06
34.4873
6.74614e-06
34.4862
4.50698e-06
34.485
2.94888e-06
34.4836
1.89716e-06
34.4819
1.20803e-06
34.48
7.69456e-07
34.4779
4.98279e-07
34.4754
3.35496e-07
34.4727
2.40752e-07
34.4697
1.87518e-07
34.4663
1.58873e-07
34.4626
1.44375e-07
34.4586
1.38019e-07
34.4542
1.3607e-07
34.4494
1.35965e-07
34.4443
1.36891e-07
34.4389
1.3837e-07
34.4331
1.39916e-07
34.4271
1.41199e-07
34.4207
1.42088e-07
34.4142
1.4247e-07
34.4074
1.42286e-07
34.4005
1.41464e-07
34.3935
1.39938e-07
34.3865
1.37687e-07
34.3796
1.3462e-07
34.3727
1.30764e-07
34.3661
1.2608e-07
34.3597
1.20611e-07
34.3536
1.14382e-07
34.348
1.07409e-07
34.3428
9.98107e-08
34.3382
9.16325e-08
34.3343
8.29959e-08
34.331
7.40388e-08
34.3284
6.48765e-08
34.3267
5.56347e-08
34.3257
4.64879e-08
34.3255
3.78209e-08
34.3262
3.17359e-08
34.3277
2.10985e-08
34.33
1.33432e-08
34.3331
7.12225e-09
34.337
1.98406e-09
34.3417
-2.43972e-09
34.347
-5.63705e-09
34.353
-7.72206e-09
34.3596
-8.94352e-09
34.3667
-8.51151e-09
34.3742
-6.34873e-09
34.3822
-4.56157e-09
34.3905
-2.874e-10
34.3991
4.32601e-09
34.4079
9.8994e-09
34.4169
1.62777e-08
34.426
2.30943e-08
34.4351
3.12307e-08
34.4442
4.3573e-08
34.4533
4.68231e-08
34.4623
3.19742e-08
34.4712
5.73186e-08
34.4798
7.2393e-08
34.4883
7.65021e-08
34.4965
7.91051e-08
34.5044
8.21656e-08
34.512
8.55816e-08
34.5192
8.83092e-08
34.5259
9.03492e-08
34.5323
9.11532e-08
34.5381
9.09931e-08
34.5434
9.02714e-08
34.5482
8.8768e-08
34.5523
8.52624e-08
34.5558
8.27349e-08
34.5586
7.80101e-08
34.5607
7.39601e-08
34.562
6.94677e-08
34.5626
6.3284e-08
34.5623
5.69094e-08
34.5613
5.26566e-08
34.5594
4.71678e-08
34.5567
4.16167e-08
34.5531
3.67763e-08
34.5487
3.1393e-08
34.5435
2.8223e-08
34.5375
2.49074e-08
34.5306
2.21717e-08
34.5231
2.01308e-08
34.5148
1.88179e-08
34.5057
1.82222e-08
34.4961
1.83709e-08
34.4858
1.91753e-08
34.475
2.06405e-08
34.4636
2.27265e-08
34.4518
2.53344e-08
34.4396
2.83799e-08
34.4271
3.17723e-08
34.4143
3.52384e-08
34.4013
3.71101e-08
34.3881
3.25786e-08
34.3749
4.39586e-08
34.3618
6.78306e-08
34.3487
5.56806e-08
34.3358
5.19922e-08
34.3232
5.5395e-08
34.311
5.78366e-08
34.2992
5.86638e-08
34.2879
5.83632e-08
34.2772
5.71681e-08
34.2671
5.51172e-08
34.2578
5.22145e-08
34.2494
4.84974e-08
34.2417
4.401e-08
34.235
3.88372e-08
34.2292
3.31365e-08
34.2244
2.77469e-08
34.2206
2.1189e-08
34.2177
1.40922e-08
34.2159
6.90716e-09
34.2149
7.22139e-10
34.2149
-5.8626e-09
34.2158
-1.21217e-08
34.2175
-1.74855e-08
34.2199
-2.27246e-08
34.2231
-2.69656e-08
34.2268
-3.00729e-08
34.2311
-3.31856e-08
34.2358
-3.43043e-08
34.2409
-3.53321e-08
34.2462
-3.47231e-08
34.2516
-3.35845e-08
34.2571
-3.14471e-08
34.2627
-2.82716e-08
34.2681
-2.47987e-08
34.2734
-2.02544e-08
34.2785
-1.53532e-08
34.2834
-1.00467e-08
34.2879
-4.28417e-09
34.2921
1.38243e-09
34.296
7.27596e-09
34.2996
1.35628e-08
34.3027
1.92554e-08
34.3055
2.49997e-08
34.308
3.03999e-08
34.3101
3.54876e-08
34.3119
4.03274e-08
34.3135
4.45607e-08
34.3147
4.86039e-08
34.3158
5.16352e-08
34.3166
5.54651e-08
34.3172
5.79175e-08
34.3177
6.00089e-08
34.318
6.20144e-08
34.3182
6.45286e-08
34.3184
7.28528e-08
34.3185
1.43342e-07
34.3185
2.02645e-07
34.3185
-4.72611e-07
34.3185
6.44135e-07
34.3184
-3.22245e-07
34.3184
5.45453e-07
34.3184
1.18187e-06
34.3184
5.57873e-06
34.3184
2.61481e-05
34.3183
0.000127886
34.318
0.000610323
34.3162
0.00293605
34.3074
0.0140095
34.2656
0.0659367
34.0736
0.304516
33.2573
1.375
4.85437
30.4256
34.4875
-3.18323e-12
34.4878
-3.63798e-12
34.488
-3.18323e-12
34.4883
0
34.4885
-4.54747e-13
34.4887
-3.63798e-12
34.4889
-9.09495e-13
34.4892
4.54747e-13
34.4894
0
34.4897
-1.81899e-12
34.49
-2.72848e-12
34.4902
-4.54747e-13
34.4904
-1.36424e-12
34.4906
-9.09495e-13
34.4908
1.36424e-12
34.4909
2.27374e-12
34.491
0
34.4911
-4.54747e-13
34.4911
-1.81899e-12
34.4911
1.36424e-12
34.491
1.36424e-12
34.4909
2.27374e-12
34.4907
9.09495e-13
34.4904
1.36424e-12
34.49
4.09273e-12
34.4895
4.54747e-13
34.4889
4.54747e-13
34.4882
4.54747e-13
34.4873
0
34.4862
9.09495e-13
34.485
9.09495e-13
34.4836
-1.81899e-12
34.4819
-4.54747e-13
34.48
0
34.4779
-4.54747e-13
34.4754
-4.54747e-13
34.4727
9.09495e-13
34.4697
1.36424e-12
34.4663
0
34.4626
-2.27374e-12
34.4586
-1.81899e-12
34.4542
1.36424e-12
34.4494
1.81899e-12
34.4443
2.72848e-12
34.4389
4.54747e-13
34.4331
-4.54747e-13
34.4271
-1.36424e-12
34.4207
-2.27374e-12
34.4142
-1.36424e-12
34.4074
-1.81899e-12
34.4005
4.54747e-13
34.3935
4.54747e-13
34.3865
1.36424e-12
34.3796
0
34.3727
-1.36424e-12
34.3661
-2.72848e-12
34.3597
-2.72848e-12
34.3536
-4.54747e-13
34.348
-9.09495e-13
34.3428
-4.54747e-12
34.3382
-1.81899e-12
34.3343
1.36424e-12
34.331
1.36424e-12
34.3284
0
34.3267
1.81899e-12
34.3257
2.27374e-12
34.3255
4.54747e-13
34.3262
9.09495e-13
34.3277
-9.09495e-13
34.33
-1.81899e-12
34.3331
-4.54747e-13
34.337
-4.54747e-13
34.3417
-2.27374e-12
34.347
0
34.353
-2.27374e-12
34.3596
-1.36424e-12
34.3667
0
34.3742
-2.72848e-12
34.3822
-4.54747e-13
34.3905
1.36424e-12
34.3991
-2.27374e-12
34.4079
4.54747e-13
34.4169
4.54747e-13
34.426
-1.81899e-12
34.4351
0
34.4442
-4.54747e-13
34.4533
-9.09495e-13
34.4623
-2.27374e-12
34.4712
-9.09495e-13
34.4798
9.09495e-13
34.4883
2.27374e-12
34.4965
-1.81899e-12
34.5044
-9.09495e-13
34.512
-2.72848e-12
34.5192
9.09495e-13
34.5259
4.54747e-13
34.5323
1.36424e-12
34.5381
2.27374e-12
34.5434
3.18323e-12
34.5482
-4.54747e-13
34.5523
4.54747e-13
34.5558
0
34.5586
0
34.5607
-4.54747e-13
34.562
0
34.5626
-3.63798e-12
34.5623
-4.54747e-13
34.5613
4.54747e-13
34.5594
4.54747e-13
34.5567
3.18323e-12
34.5531
1.81899e-12
34.5487
-2.27374e-12
34.5435
-4.54747e-12
34.5375
-4.54747e-12
34.5306
-9.09495e-13
34.5231
4.54747e-13
34.5148
4.54747e-13
34.5057
1.81899e-12
34.4961
1.36424e-12
34.4858
0
34.475
-1.36424e-12
34.4636
-1.81899e-12
34.4518
-9.09495e-13
34.4396
-4.54747e-13
34.4271
1.81899e-12
34.4143
1.36424e-12
34.4013
2.27374e-12
34.3881
0
34.3749
-9.09495e-13
34.3618
-1.81899e-12
34.3487
4.54747e-12
34.3358
4.09273e-12
34.3232
4.54747e-12
34.311
0
34.2992
-4.54747e-13
34.2879
-4.54747e-13
34.2772
-9.09495e-13
34.2671
4.54747e-13
34.2578
-1.36424e-12
34.2494
-4.54747e-13
34.2417
0
34.235
-1.81899e-12
34.2292
-1.81899e-12
34.2244
-9.09495e-13
34.2206
-9.09495e-13
34.2177
-9.09495e-13
34.2159
-4.54747e-13
34.2149
-9.09495e-13
34.2149
-4.09273e-12
34.2158
-1.36424e-12
34.2175
-2.72848e-12
34.2199
1.81899e-12
34.2231
9.09495e-13
34.2268
9.09495e-13
34.2311
9.09495e-13
34.2358
-2.27374e-12
34.2409
-4.54747e-13
34.2462
-4.54747e-13
34.2516
0
34.2571
4.54747e-13
34.2627
-2.27374e-12
34.2681
4.54747e-13
34.2734
9.09495e-13
34.2785
-4.54747e-13
34.2834
1.81899e-12
34.2879
-9.09495e-13
34.2921
-2.72848e-12
34.296
-4.54747e-13
34.2996
1.36424e-12
34.3027
-4.54747e-13
34.3055
1.81899e-12
34.308
-2.72848e-12
34.3101
-4.54747e-13
34.3119
1.81899e-12
34.3135
3.63798e-12
34.3147
3.18323e-12
34.3158
4.09273e-12
34.3166
0
34.3172
0
34.3177
-5.91172e-12
34.318
1.32786e-10
34.3182
1.21918e-09
34.3184
8.34871e-09
34.3185
3.48991e-08
34.3185
4.59896e-07
34.3185
-1.19518e-06
34.3185
1.28575e-06
34.3184
-9.74862e-07
34.3184
9.81494e-07
34.3184
1.01976e-06
34.3184
7.31802e-06
34.3184
3.1701e-05
34.3184
0.000159687
34.3183
0.00075848
34.3177
0.00365702
34.3142
0.0175291
34.2969
0.0833878
34.2099
0.391742
33.7798
1.80526
6.46296
32.1714
34.4875
-0.000186237
34.4878
-0.000157045
34.488
-0.000139112
34.4883
-0.000142485
34.4885
-0.000143587
34.4887
-0.000143221
34.4889
-0.000143105
34.4892
-0.000143055
34.4894
-0.000142877
34.4897
-0.000142427
34.49
-0.000141607
34.4902
-0.000140128
34.4904
-0.0001377
34.4906
-0.000134011
34.4908
-0.000128812
34.4909
-0.000121921
34.491
-0.000113293
34.4911
-0.000103135
34.4911
-9.17761e-05
34.4911
-7.9701e-05
34.491
-6.74593e-05
34.4909
-5.56047e-05
34.4907
-4.46085e-05
34.4904
-3.48211e-05
34.49
-2.64472e-05
34.4895
-1.95488e-05
34.4889
-1.40686e-05
34.4882
-9.86453e-06
34.4873
-6.74614e-06
34.4862
-4.50698e-06
34.485
-2.94887e-06
34.4836
-1.89717e-06
34.4819
-1.20803e-06
34.48
-7.69453e-07
34.4779
-4.98279e-07
34.4754
-3.35495e-07
34.4727
-2.40751e-07
34.4697
-1.87515e-07
34.4663
-1.58872e-07
34.4626
-1.44384e-07
34.4586
-1.38022e-07
34.4542
-1.36067e-07
34.4494
-1.35961e-07
34.4443
-1.36887e-07
34.4389
-1.38371e-07
34.4331
-1.39915e-07
34.4271
-1.412e-07
34.4207
-1.42093e-07
34.4142
-1.42471e-07
34.4074
-1.4229e-07
34.4005
-1.41464e-07
34.3935
-1.39938e-07
34.3865
-1.37687e-07
34.3796
-1.3462e-07
34.3727
-1.30768e-07
34.3661
-1.26086e-07
34.3597
-1.20615e-07
34.3536
-1.14384e-07
34.348
-1.07411e-07
34.3428
-9.98198e-08
34.3382
-9.16352e-08
34.3343
-8.29923e-08
34.331
-7.40365e-08
34.3284
-6.48774e-08
34.3267
-5.56315e-08
34.3257
-4.64856e-08
34.3255
-3.78182e-08
34.3262
-3.17336e-08
34.3277
-2.10998e-08
34.33
-1.33459e-08
34.3331
-7.12316e-09
34.337
-1.9827e-09
34.3417
2.43472e-09
34.347
5.63614e-09
34.353
7.7157e-09
34.3596
8.94124e-09
34.3667
8.51196e-09
34.3742
6.34373e-09
34.3822
4.56066e-09
34.3905
2.90129e-10
34.3991
-4.33192e-09
34.4079
-9.89894e-09
34.4169
-1.62772e-08
34.426
-2.30989e-08
34.4351
-3.12307e-08
34.4442
-4.35734e-08
34.4533
-4.68244e-08
34.4623
-3.19769e-08
34.4712
-5.73191e-08
34.4798
-7.23903e-08
34.4883
-7.64958e-08
34.4965
-7.91097e-08
34.5044
-8.21683e-08
34.512
-8.55894e-08
34.5192
-8.83083e-08
34.5259
-9.03474e-08
34.5323
-9.11496e-08
34.5381
-9.09899e-08
34.5434
-9.0266e-08
34.5482
-8.87685e-08
34.5523
-8.52606e-08
34.5558
-8.27335e-08
34.5586
-7.80115e-08
34.5607
-7.39624e-08
34.562
-6.94677e-08
34.5626
-6.32899e-08
34.5623
-5.69084e-08
34.5613
-5.26534e-08
34.5594
-4.71668e-08
34.5567
-4.16103e-08
34.5531
-3.67736e-08
34.5487
-3.13989e-08
34.5435
-2.82353e-08
34.5375
-2.49174e-08
34.5306
-2.21758e-08
34.5231
-2.01285e-08
34.5148
-1.88147e-08
34.5057
-1.82181e-08
34.4961
-1.83677e-08
34.4858
-1.91744e-08
34.475
-2.06433e-08
34.4636
-2.27287e-08
34.4518
-2.53353e-08
34.4396
-2.83812e-08
34.4271
-3.17677e-08
34.4143
-3.52375e-08
34.4013
-3.71047e-08
34.3881
-3.25772e-08
34.3749
-4.39609e-08
34.3618
-6.78333e-08
34.3487
-5.56715e-08
34.3358
-5.1984e-08
34.3232
-5.5386e-08
34.311
-5.78361e-08
34.2992
-5.86656e-08
34.2879
-5.83659e-08
34.2772
-5.71708e-08
34.2671
-5.51149e-08
34.2578
-5.2215e-08
34.2494
-4.84988e-08
34.2417
-4.40086e-08
34.235
-3.88404e-08
34.2292
-3.31383e-08
34.2244
-2.77491e-08
34.2206
-2.11903e-08
34.2177
-1.40953e-08
34.2159
-6.90852e-09
34.2149
-7.24413e-10
34.2149
5.85578e-09
34.2158
1.2119e-08
34.2175
1.74814e-08
34.2199
2.27278e-08
34.2231
2.69683e-08
34.2268
3.00761e-08
34.2311
3.31897e-08
34.2358
3.43002e-08
34.2409
3.5333e-08
34.2462
3.47209e-08
34.2516
3.35876e-08
34.2571
3.14476e-08
34.2627
2.82685e-08
34.2681
2.47996e-08
34.2734
2.02549e-08
34.2785
1.53541e-08
34.2834
1.00504e-08
34.2879
4.28236e-09
34.2921
-1.38607e-09
34.296
-7.27823e-09
34.2996
-1.35597e-08
34.3027
-1.92572e-08
34.3055
-2.49952e-08
34.308
-3.04026e-08
34.3101
-3.54876e-08
34.3119
-4.03229e-08
34.3135
-4.45566e-08
34.3147
-4.85979e-08
34.3158
-5.1627e-08
34.3166
-5.54637e-08
34.3172
-5.79216e-08
34.3177
-6.00166e-08
34.318
-6.18011e-08
34.3182
-6.25182e-08
34.3184
-5.72118e-08
34.3185
-1.01118e-08
34.3185
4.95211e-07
34.3185
-1.21276e-06
34.3185
9.51737e-07
34.3184
-9.19084e-07
34.3184
9.45467e-07
34.3184
4.21524e-07
34.3184
6.03653e-06
34.3184
2.57482e-05
34.3185
0.000128161
34.3187
0.000613729
34.3194
0.00296963
34.3227
0.0143445
34.3366
0.0696102
34.3886
0.339951
34.4625
1.73152
5.90321
35.0225
34.4876
-0.000402739
34.4878
-0.000300892
34.4881
-0.00028092
34.4883
-0.000285932
34.4885
-0.000286452
34.4887
-0.00028609
34.4889
-0.000286055
34.4892
-0.000285956
34.4895
-0.000285605
34.4897
-0.000284667
34.49
-0.000282971
34.4902
-0.000279906
34.4904
-0.000274906
34.4906
-0.000267333
34.4908
-0.000256743
34.4909
-0.000242734
34.491
-0.000225273
34.4911
-0.000204795
34.4911
-0.000181971
34.4911
-0.000157783
34.491
-0.000133335
34.4909
-0.000109725
34.4907
-8.78812e-05
34.4904
-6.84866e-05
34.49
-5.19319e-05
34.4895
-3.83244e-05
34.4889
-2.75374e-05
34.4882
-1.92792e-05
34.4873
-1.31657e-05
34.4862
-8.78413e-06
34.485
-5.74085e-06
34.4836
-3.69034e-06
34.4819
-2.34912e-06
34.48
-1.49698e-06
34.4779
-9.71025e-07
34.4754
-6.55814e-07
34.4727
-4.72694e-07
34.4697
-3.70045e-07
34.4663
-3.14974e-07
34.4626
-2.87238e-07
34.4586
-2.75251e-07
34.4542
-2.71766e-07
34.4494
-2.71683e-07
34.4443
-2.73661e-07
34.4389
-2.76695e-07
34.4331
-2.79812e-07
34.4271
-2.82387e-07
34.4207
-2.84196e-07
34.4142
-2.84934e-07
34.4074
-2.84593e-07
34.4005
-2.82932e-07
34.3935
-2.79885e-07
34.3865
-2.75394e-07
34.3796
-2.69243e-07
34.3727
-2.61562e-07
34.3661
-2.52175e-07
34.3597
-2.41253e-07
34.3536
-2.28788e-07
34.348
-2.14827e-07
34.3428
-1.99667e-07
34.3382
-1.8328e-07
34.3343
-1.66006e-07
34.331
-1.48098e-07
34.3284
-1.29776e-07
34.3267
-1.11277e-07
34.3257
-9.2964e-08
34.3255
-7.5458e-08
34.3262
-6.43549e-08
34.3277
-4.11983e-08
34.33
-2.69629e-08
34.3331
-1.42472e-08
34.337
-3.70983e-09
34.3417
4.99585e-09
34.347
1.10058e-08
34.353
1.48175e-08
34.3596
1.77088e-08
34.3667
1.69384e-08
34.3742
1.23782e-08
34.3822
8.91669e-09
34.3905
-1.54614e-11
34.3991
-8.51469e-09
34.4079
-1.98461e-08
34.4169
-3.25708e-08
34.426
-4.6125e-08
34.4351
-6.19611e-08
34.4442
-8.85138e-08
34.4533
-9.55351e-08
34.4623
-5.72272e-08
34.4712
-1.18841e-07
34.4798
-1.44884e-07
34.4883
-1.52643e-07
34.4965
-1.58244e-07
34.5044
-1.64257e-07
34.512
-1.71149e-07
34.5192
-1.76593e-07
34.5259
-1.80732e-07
34.5323
-1.823e-07
34.5381
-1.82009e-07
34.5434
-1.80531e-07
34.5482
-1.77661e-07
34.5523
-1.70326e-07
34.5558
-1.65713e-07
34.5586
-1.55862e-07
34.5607
-1.47719e-07
34.562
-1.38142e-07
34.5626
-1.27028e-07
34.5623
-1.14776e-07
34.5613
-1.05011e-07
34.5594
-9.423e-08
34.5567
-8.33925e-08
34.5531
-7.38301e-08
34.5487
-6.23349e-08
34.5435
-5.66351e-08
34.5375
-4.99431e-08
34.5306
-4.44397e-08
34.5231
-4.03343e-08
34.5148
-3.7684e-08
34.5057
-3.64316e-08
34.4961
-3.67017e-08
34.4858
-3.83179e-08
34.475
-4.12583e-08
34.4636
-4.54511e-08
34.4518
-5.06561e-08
34.4396
-5.67616e-08
34.4271
-6.35537e-08
34.4143
-7.06596e-08
34.4013
-7.49087e-08
34.3881
-6.32181e-08
34.3749
-8.64429e-08
34.3618
-1.41049e-07
34.3487
-1.08183e-07
34.3358
-1.0422e-07
34.3232
-1.10794e-07
34.311
-1.15669e-07
34.2992
-1.17359e-07
34.2879
-1.16741e-07
34.2772
-1.14337e-07
34.2671
-1.10228e-07
34.2578
-1.04425e-07
34.2494
-9.69894e-08
34.2417
-8.80027e-08
34.235
-7.76536e-08
34.2292
-6.61876e-08
34.2244
-5.57848e-08
34.2206
-4.21869e-08
34.2177
-2.76523e-08
34.2159
-1.41281e-08
34.2149
-1.10595e-09
34.2149
1.19926e-08
34.2158
2.39161e-08
34.2175
3.46081e-08
34.2199
4.54856e-08
34.2231
5.39412e-08
34.2268
6.01804e-08
34.2311
6.6445e-08
34.2358
6.85413e-08
34.2409
7.07487e-08
34.2462
6.94563e-08
34.2516
6.71662e-08
34.2571
6.29798e-08
34.2627
5.64651e-08
34.2681
4.97148e-08
34.2734
4.05043e-08
34.2785
3.07427e-08
34.2834
2.02508e-08
34.2879
8.55562e-09
34.2921
-2.84399e-09
34.296
-1.48793e-08
34.2996
-2.70093e-08
34.3027
-3.84371e-08
34.3055
-4.99986e-08
34.308
-6.07988e-08
34.3101
-7.09688e-08
34.3119
-8.06685e-08
34.3135
-8.91023e-08
34.3147
-9.7185e-08
34.3158
-1.03656e-07
34.3166
-1.10657e-07
34.3172
-1.15704e-07
34.3177
-1.20063e-07
34.318
-1.238e-07
34.3182
-1.26656e-07
34.3184
-1.26448e-07
34.3185
-1.05592e-07
34.3185
9.6139e-08
34.3185
-5.61084e-07
34.3185
1.94317e-07
34.3184
-4.01287e-07
34.3184
2.21765e-07
34.3184
-6.92853e-09
34.3184
2.20126e-06
34.3184
9.17016e-06
34.3185
4.65735e-05
34.319
0.000223625
34.3209
0.00108374
34.3301
0.00525559
34.3739
0.0259723
34.5793
0.134694
35.371
0.940042
3.02332
38.2511
7.81286
-0.00046053
7.8129
-0.00032842
7.81296
-0.000315066
7.81301
-0.000318506
7.81306
-0.000318779
7.81311
-0.000318516
7.81316
-0.000318482
7.81322
-0.000318355
7.81328
-0.000317959
7.81334
-0.000316894
7.8134
-0.000314983
7.81345
-0.000311533
7.8135
-0.000305913
7.81354
-0.000297406
7.81358
-0.000285541
7.81361
-0.000269845
7.81363
-0.000250309
7.81365
-0.000227424
7.81366
-0.000201945
7.81365
-0.000174974
7.81364
-0.000147745
7.8136
-0.00012148
7.81355
-9.72071e-05
7.81349
-7.56818e-05
7.8134
-5.73304e-05
7.81329
-4.22645e-05
7.81315
-3.03361e-05
7.81298
-2.12156e-05
7.81278
-1.44723e-05
7.81254
-9.64563e-06
7.81226
-6.2976e-06
7.81194
-4.04475e-06
7.81156
-2.57322e-06
7.81113
-1.63958e-06
7.81065
-1.06417e-06
7.8101
-7.19851e-07
7.80948
-5.2016e-07
7.8088
-4.08452e-07
7.80803
-3.48669e-07
7.8072
-3.18672e-07
7.80628
-3.05841e-07
7.80528
-3.02254e-07
7.80421
-3.02278e-07
7.80305
-3.04581e-07
7.80182
-3.08004e-07
7.80052
-3.11493e-07
7.79914
-3.14369e-07
7.79771
-3.16395e-07
7.79622
-3.17215e-07
7.79469
-3.16844e-07
7.79313
-3.14998e-07
7.79154
-3.11609e-07
7.78996
-3.06614e-07
7.78838
-2.99759e-07
7.78683
-2.91224e-07
7.78532
-2.80763e-07
7.78387
-2.6861e-07
7.7825
-2.54739e-07
7.78122
-2.39188e-07
7.78006
-2.22319e-07