/*--------------------------------*- C++ -*----------------------------------*\
| =========                 |                                                 |
| \\      /  F ield         | OpenFOAM: The Open Source CFD Toolbox           |
|  \\    /   O peration     | Version:  3.0.x                                 |
|   \\  /    A nd           | Web:      www.OpenFOAM.org                      |
|    \\/     M anipulation  |                                                 |
\*---------------------------------------------------------------------------*/
FoamFile
{
    version     2.0;
    format      ascii;
    class       surfaceScalarField;
    location    "0.08995";
    object      phi;
}
// * * * * * * * * * * * * * * * * * * * * * * * * * * * * * * * * * * * * * //

dimensions      [1 0 -1 0 0 0 0];

internalField   nonuniform List<scalar> 
26210
(
5.30124
0.000503848
5.30323
0.000346998
5.3052
0.000339337
5.30712
0.000341927
5.30895
0.000341964
5.31068
0.000342137
5.31229
0.000341963
5.31378
0.00034187
5.31514
0.000341461
5.31634
0.000340545
5.31739
0.00033874
5.31827
0.000335509
5.31896
0.00033019
5.31945
0.000322055
5.31975
0.000310451
5.31984
0.000294868
5.31973
0.000275277
5.31941
0.000251995
5.31889
0.000225805
5.31815
0.000196875
5.31723
0.00016802
5.31614
0.000139504
5.31489
0.00011275
5.31348
8.86679e-05
5.31194
6.78314e-05
5.31029
5.04749e-05
5.30854
3.65352e-05
5.30672
2.57263e-05
5.30484
1.76245e-05
5.30295
1.17481e-05
5.30104
7.62023e-06
5.29915
4.81014e-06
5.29729
2.95613e-06
5.29549
1.7713e-06
5.29375
1.03921e-06
5.29209
6.03624e-07
5.29052
3.58465e-07
5.28905
2.28585e-07
5.28768
1.68513e-07
5.28642
1.48622e-07
5.28526
1.51676e-07
5.28421
1.66832e-07
5.28326
1.87929e-07
5.28241
2.11418e-07
5.28165
2.35254e-07
5.28098
2.58415e-07
5.28039
2.80281e-07
5.27988
3.00503e-07
5.27944
3.19053e-07
5.27906
3.35787e-07
5.27873
3.50788e-07
5.27846
3.64154e-07
5.27822
3.75923e-07
5.27803
3.86275e-07
5.27787
3.95261e-07
5.27774
4.03037e-07
5.27763
4.09729e-07
5.27755
4.15426e-07
5.27748
4.20278e-07
5.27743
4.24379e-07
5.27738
4.27848e-07
5.27735
4.30766e-07
5.27733
4.33209e-07
5.27732
4.35237e-07
5.27731
4.36925e-07
5.2773
4.38344e-07
5.2773
4.39548e-07
5.2773
4.40376e-07
5.2773
4.41376e-07
5.27731
4.42013e-07
5.27731
4.42607e-07
5.27732
4.43104e-07
5.27733
4.43541e-07
5.27733
4.43913e-07
5.27734
4.44241e-07
5.27735
4.4455e-07
5.27736
4.44828e-07
5.27736
4.45081e-07
5.27737
4.45321e-07
5.27738
4.45538e-07
5.27738
4.45736e-07
5.27739
4.45922e-07
5.2774
4.46098e-07
5.2774
4.46269e-07
5.27741
4.46442e-07
5.27741
4.466e-07
5.27742
4.46753e-07
5.27742
4.46884e-07
5.27743
4.47046e-07
5.27743
4.47171e-07
5.27743
4.47568e-07
5.27744
4.47155e-07
5.27744
4.47561e-07
5.27744
4.48017e-07
5.27744
4.4749e-07
5.27745
4.47713e-07
5.27745
4.48341e-07
5.27745
4.48268e-07
5.27745
4.48324e-07
5.27745
4.48732e-07
5.27744
4.48936e-07
5.27744
4.49163e-07
5.27744
4.49962e-07
5.27743
4.49623e-07
5.27742
4.50744e-07
5.27741
4.51519e-07
5.27739
4.52634e-07
5.27737
4.53927e-07
5.27733
4.55642e-07
5.27729
4.57823e-07
5.27724
4.60523e-07
5.27717
4.63921e-07
5.27708
4.68117e-07
5.27697
4.73274e-07
5.27683
4.79555e-07
5.27665
4.87098e-07
5.27644
4.96106e-07
5.27617
5.06758e-07
5.27584
5.1918e-07
5.27545
5.33519e-07
5.27499
5.49848e-07
5.27443
5.6823e-07
5.27378
5.88638e-07
5.27302
6.10929e-07
5.27214
6.34893e-07
5.27115
6.6018e-07
5.27002
6.86316e-07
5.26875
7.12682e-07
5.26736
7.38508e-07
5.26583
7.62904e-07
5.26417
7.84859e-07
5.2624
8.03273e-07
5.26054
8.16975e-07
5.2586
8.24808e-07
5.25661
8.25645e-07
5.25459
8.18482e-07
5.2526
8.02471e-07
5.25065
7.77021e-07
5.2488
7.41833e-07
5.24707
6.96946e-07
5.24552
6.4278e-07
5.24417
5.80147e-07
5.24305
5.10252e-07
5.2422
4.3466e-07
5.24163
3.55243e-07
5.24136
2.74227e-07
5.24138
2.12283e-07
5.24166
1.48415e-07
5.2422
5.11154e-08
5.243
-1.38971e-08
5.24404
-7.60938e-08
5.24529
-1.2161e-07
5.2467
-1.58861e-07
5.24823
-1.84855e-07
5.24983
-1.94465e-07
5.25148
-1.97031e-07
5.25311
-1.85442e-07
5.25471
-1.63614e-07
5.25623
-1.35724e-07
5.25765
-9.78889e-08
5.25896
-5.71399e-08
5.26012
-1.28912e-08
5.26115
3.44917e-08
5.26204
7.90296e-08
5.26278
1.24033e-07
5.2634
1.66068e-07
5.26389
2.03738e-07
5.26427
2.38542e-07
5.26456
2.6773e-07
5.26476
2.92677e-07
5.2649
3.1359e-07
5.26499
3.29368e-07
5.26504
3.42025e-07
5.26506
3.5099e-07
5.26506
3.56154e-07
5.26505
3.59461e-07
5.26503
3.62345e-07
5.26501
3.62597e-07
5.265
3.61866e-07
5.26499
3.6026e-07
5.26498
3.58114e-07
5.26499
3.57657e-07
5.265
3.54108e-07
5.26501
3.52122e-07
5.26504
3.50694e-07
5.26506
3.50481e-07
5.26509
3.48746e-07
5.26512
3.58392e-07
5.26514
3.72745e-07
5.26516
5.03635e-07
5.26516
1.01668e-06
5.26515
3.5104e-06
5.26511
1.55697e-05
5.26499
7.29563e-05
5.26456
0.000346742
5.2628
0.00164679
5.25499
0.00764053
5.21946
0.0353157
5.04072
0.178466
0.679167
4.3612
7.49787
0.000460183
7.50119
0.000330259
7.50447
0.000314127
7.50769
0.00031902
7.51079
0.00031931
7.51374
0.000319359
7.51652
0.000319236
7.51914
0.000319186
7.52156
0.000318838
7.52377
0.000318015
7.52575
0.000316365
7.52748
0.000313383
7.52894
0.000308451
7.53012
0.000300886
7.531
0.00029008
7.53156
0.000275544
7.53181
0.000257269
7.53174
0.000235574
7.53132
0.000211041
7.53058
0.000184089
7.52953
0.000157104
7.52819
0.00013046
7.52658
0.000105457
7.52472
8.2946e-05
7.52264
6.34661e-05
7.52038
4.72366e-05
7.51796
3.41993e-05
7.51542
2.40879e-05
7.5128
1.65069e-05
7.51013
1.10068e-05
7.50744
7.14196e-06
7.50478
4.51011e-06
7.50216
2.77304e-06
7.49961
1.66247e-06
7.49715
9.75979e-07
7.4948
5.67308e-07
7.49258
3.37011e-07
7.4905
2.14983e-07
7.48857
1.58332e-07
7.48678
1.39453e-07
7.48514
1.42099e-07
7.48365
1.56129e-07
7.48231
1.75753e-07
7.4811
1.97631e-07
7.48003
2.19859e-07
7.47908
2.41456e-07
7.47825
2.61854e-07
7.47753
2.80721e-07
7.4769
2.98018e-07
7.47636
3.13634e-07
7.4759
3.27631e-07
7.47551
3.40096e-07
7.47518
3.5108e-07
7.47491
3.60729e-07
7.47468
3.69115e-07
7.4745
3.76369e-07
7.47435
3.82612e-07
7.47422
3.87925e-07
7.47413
3.92452e-07
7.47405
3.96281e-07
7.47399
3.99516e-07
7.47395
4.02239e-07
7.47392
4.04518e-07
7.4739
4.06406e-07
7.47388
4.07979e-07
7.47388
4.09313e-07
7.47387
4.10413e-07
7.47387
4.11215e-07
7.47388
4.12125e-07
7.47388
4.12727e-07
7.47389
4.13282e-07
7.4739
4.13744e-07
7.47391
4.14153e-07
7.47392
4.14495e-07
7.47393
4.14808e-07
7.47394
4.15088e-07
7.47395
4.15352e-07
7.47396
4.15586e-07
7.47397
4.15812e-07
7.47398
4.16014e-07
7.47399
4.16198e-07
7.474
4.16368e-07
7.47401
4.16534e-07
7.47402
4.16696e-07
7.47402
4.16854e-07
7.47403
4.17002e-07
7.47404
4.17145e-07
7.47404
4.17271e-07
7.47405
4.17418e-07
7.47405
4.17536e-07
7.47406
4.17898e-07
7.47406
4.17536e-07
7.47407
4.179e-07
7.47407
4.18311e-07
7.47407
4.17844e-07
7.47408
4.18042e-07
7.47408
4.1862e-07
7.47408
4.18559e-07
7.47408
4.18613e-07
7.47408
4.18997e-07
7.47407
4.19168e-07
7.47407
4.19415e-07
7.47406
4.20134e-07
7.47405
4.19819e-07
7.47404
4.20869e-07
7.47402
4.21598e-07
7.47399
4.22628e-07
7.47396
4.23845e-07
7.47392
4.25445e-07
7.47386
4.27488e-07
7.47378
4.30005e-07
7.47368
4.33174e-07
7.47356
4.37089e-07
7.4734
4.41909e-07
7.4732
4.47777e-07
7.47295
4.54818e-07
7.47265
4.63226e-07
7.47227
4.73176e-07
7.47181
4.84766e-07
7.47126
4.98156e-07
7.47059
5.13401e-07
7.46981
5.30557e-07
7.46889
5.49604e-07
7.46781
5.70413e-07
7.46658
5.92781e-07
7.46517
6.16374e-07
7.46357
6.40763e-07
7.46178
6.65364e-07
7.45981
6.89459e-07
7.45764
7.12218e-07
7.45531
7.327e-07
7.45281
7.49866e-07
7.45017
7.62637e-07
7.44742
7.69931e-07
7.44461
7.70691e-07
7.44176
7.63986e-07
7.43894
7.49033e-07
7.43619
7.25262e-07
7.43356
6.92409e-07
7.43113
6.50507e-07
7.42893
5.99955e-07
7.42702
5.41499e-07
7.42544
4.76281e-07
7.42424
4.05744e-07
7.42343
3.31653e-07
7.42304
2.56245e-07
7.42308
1.97788e-07
7.42347
1.39393e-07
7.42423
4.78103e-08
7.42536
-1.2893e-08
7.42684
-7.0333e-08
7.4286
-1.13159e-07
7.43059
-1.47798e-07
7.43275
-1.72027e-07
7.43502
-1.8106e-07
7.43735
-1.8331e-07
7.43966
-1.72624e-07
7.44192
-1.52248e-07
7.44407
-1.26149e-07
7.44608
-9.09986e-08
7.44792
-5.29199e-08
7.44957
-1.16452e-08
7.45102
3.26199e-08
7.45227
7.40747e-08
7.45332
1.15971e-07
7.45419
1.55205e-07
7.45489
1.90352e-07
7.45543
2.22766e-07
7.45583
2.50033e-07
7.45613
2.73267e-07
7.45632
2.92755e-07
7.45645
3.0752e-07
7.45652
3.19267e-07
7.45654
3.27658e-07
7.45654
3.32506e-07
7.45652
3.35564e-07
7.4565
3.38247e-07
7.45647
3.38508e-07
7.45645
3.37843e-07
7.45644
3.36335e-07
7.45643
3.34323e-07
7.45644
3.33899e-07
7.45645
3.30667e-07
7.45647
3.28124e-07
7.45651
3.27882e-07
7.45654
3.28731e-07
7.45658
3.25474e-07
7.45662
3.48728e-07
7.45665
3.8182e-07
7.45668
6.94859e-07
7.45668
1.923e-06
7.45667
7.93371e-06
7.45661
3.69803e-05
7.45644
0.000175143
7.45583
0.000834538
7.45335
0.00396596
7.44234
0.0184201
7.39223
0.0851206
7.14613
0.42417
1.57024
6.25456
10.6036
0.000402126
10.6083
0.000303538
10.6129
0.000279505
10.6175
0.000286284
10.6219
0.000286952
10.626
0.000286831
10.63
0.000286733
10.6337
0.000286701
10.6371
0.000286397
10.6402
0.000285669
10.643
0.000284206
10.6455
0.000281558
10.6475
0.000277172
10.6492
0.000270434
10.6504
0.000260801
10.6512
0.000247818
10.6516
0.000231489
10.6515
0.000212126
10.6509
0.00019007
10.6498
0.000165984
10.6484
0.000141735
10.6465
0.000117797
10.6442
9.53047e-05
10.6416
7.50311e-05
10.6386
5.74665e-05
10.6354
4.28152e-05
10.632
3.10316e-05
10.6284
2.18811e-05
10.6247
1.50121e-05
10.6209
1.00222e-05
10.6171
6.51129e-06
10.6134
4.11736e-06
10.6097
2.53514e-06
10.606
1.52209e-06
10.6026
8.9495e-07
10.5993
5.20932e-07
10.5961
3.0948e-07
10.5932
1.97136e-07
10.5904
1.44497e-07
10.5879
1.26548e-07
10.5856
1.28334e-07
10.5835
1.40622e-07
10.5816
1.58071e-07
10.5799
1.7763e-07
10.5784
1.97555e-07
10.577
2.16925e-07
10.5758
2.35235e-07
10.5748
2.52177e-07
10.5739
2.67707e-07
10.5732
2.81737e-07
10.5725
2.94305e-07
10.572
3.05502e-07
10.5715
3.15368e-07
10.5711
3.24033e-07
10.5708
3.31569e-07
10.5705
3.38078e-07
10.5703
3.43686e-07
10.5702
3.4846e-07
10.57
3.52523e-07
10.5699
3.55965e-07
10.5698
3.58873e-07
10.5698
3.61315e-07
10.5697
3.6336e-07
10.5697
3.65055e-07
10.5697
3.66471e-07
10.5697
3.67676e-07
10.5697
3.68645e-07
10.5697
3.69389e-07
10.5697
3.70187e-07
10.5697
3.70735e-07
10.5697
3.71231e-07
10.5697
3.71646e-07
10.5697
3.72014e-07
10.5697
3.72324e-07
10.5697
3.72603e-07
10.5698
3.72854e-07
10.5698
3.73093e-07
10.5698
3.73303e-07
10.5698
3.73505e-07
10.5698
3.73686e-07
10.5698
3.73851e-07
10.5698
3.74005e-07
10.5698
3.74152e-07
10.5699
3.74298e-07
10.5699
3.74439e-07
10.5699
3.74574e-07
10.5699
3.74702e-07
10.5699
3.74813e-07
10.5699
3.74946e-07
10.5699
3.75057e-07
10.5699
3.75367e-07
10.5699
3.75068e-07
10.5699
3.75379e-07
10.5699
3.75735e-07
10.5699
3.75343e-07
10.5699
3.75511e-07
10.5699
3.76016e-07
10.5699
3.75974e-07
10.5699
3.76022e-07
10.5699
3.7637e-07
10.5699
3.76505e-07
10.5699
3.76767e-07
10.5699
3.77382e-07
10.5699
3.771e-07
10.5699
3.78046e-07
10.5699
3.78704e-07
10.5698
3.79614e-07
10.5698
3.80723e-07
10.5697
3.82159e-07
10.5696
3.83993e-07
10.5695
3.86256e-07
10.5694
3.89105e-07
10.5692
3.92623e-07
10.569
3.96956e-07
10.5687
4.02226e-07
10.5684
4.08554e-07
10.5679
4.16105e-07
10.5674
4.25045e-07
10.5667
4.35456e-07
10.566
4.47487e-07
10.565
4.61182e-07
10.5639
4.76596e-07
10.5626
4.93704e-07
10.5611
5.12394e-07
10.5593
5.32486e-07
10.5573
5.53677e-07
10.5551
5.7558e-07
10.5526
5.97676e-07
10.5498
6.19313e-07
10.5467
6.39747e-07
10.5434
6.58138e-07
10.5399
6.73546e-07
10.5361
6.85011e-07
10.5322
6.91551e-07
10.5283
6.92222e-07
10.5242
6.86186e-07
10.5202
6.72744e-07
10.5164
6.51385e-07
10.5127
6.21869e-07
10.5092
5.84225e-07
10.5061
5.38814e-07
10.5034
4.8631e-07
10.5012
4.27729e-07
10.4995
3.6438e-07
10.4983
2.97849e-07
10.4978
2.30318e-07
10.4978
1.77045e-07
10.4984
1.25863e-07
10.4994
4.26517e-08
10.5011
-1.16988e-08
10.5031
-6.28334e-08
10.5056
-1.01652e-07
10.5084
-1.32643e-07
10.5115
-1.54368e-07
10.5147
-1.62579e-07
10.518
-1.64424e-07
10.5213
-1.54968e-07
10.5245
-1.36645e-07
10.5275
-1.13117e-07
10.5303
-8.17045e-08
10.5329
-4.74442e-08
10.5353
-1.0275e-08
10.5373
2.94781e-08
10.5391
6.66041e-08
10.5406
1.04167e-07
10.5418
1.39416e-07
10.5428
1.71005e-07
10.5436
2.00058e-07
10.5441
2.24586e-07
10.5446
2.45425e-07
10.5448
2.62896e-07
10.545
2.76215e-07
10.5451
2.86705e-07
10.5451
2.94262e-07
10.5451
2.98658e-07
10.5451
3.01348e-07
10.5451
3.03766e-07
10.545
3.04025e-07
10.545
3.03436e-07
10.545
3.0207e-07
10.545
3.00293e-07
10.545
2.99821e-07
10.545
2.96964e-07
10.5451
2.93825e-07
10.5451
2.95101e-07
10.5451
2.97483e-07
10.5452
2.92021e-07
10.5453
3.34252e-07
10.5453
3.92983e-07
10.5453
9.58678e-07
10.5453
3.17625e-06
10.5453
1.40469e-05
10.5452
6.65899e-05
10.545
0.000316444
10.5442
0.00150907
10.5407
0.00717409
10.5255
0.0333445
10.4562
0.153931
10.1221
0.757789
2.74475
8.94685
46.8065
0.000185605
46.8272
0.000159468
46.8477
0.000138036
46.8678
0.000142344
46.8871
0.000143885
46.9055
0.000143568
46.9229
0.000143444
46.9392
0.000143424
46.9544
0.000143272
46.9682
0.000142917
46.9805
0.000142211
46.9913
0.000140933
47.0005
0.000138806
47.0078
0.000135523
47.0133
0.000130806
47.0168
0.000124414
47.0184
0.000116354
47.0179
0.000106803
47.0154
9.57525e-05
47.0107
8.38134e-05
47.0041
7.16558e-05
46.9958
5.96501e-05
46.9857
4.83389e-05
46.9741
3.81182e-05
46.9612
2.92426e-05
46.947
2.18226e-05
46.9319
1.58423e-05
46.9161
1.11889e-05
46.8997
7.68891e-06
46.883
5.14155e-06
46.8663
3.34601e-06
46.8496
2.11978e-06
46.8333
1.30759e-06
46.8174
7.86431e-07
46.802
4.63069e-07
46.7874
2.6964e-07
46.7735
1.59756e-07
46.7605
1.01439e-07
46.7484
7.38535e-08
46.7373
6.41983e-08
46.7271
6.46808e-08
46.7178
7.06009e-08
46.7094
7.91936e-08
46.7018
8.88986e-08
46.6951
9.88261e-08
46.6892
1.08487e-07
46.684
1.17629e-07
46.6795
1.261e-07
46.6756
1.33857e-07
46.6722
1.40874e-07
46.6694
1.47157e-07
46.6669
1.52753e-07
46.6649
1.57689e-07
46.6632
1.62019e-07
46.6618
1.65788e-07
46.6606
1.69043e-07
46.6597
1.71845e-07
46.6589
1.74232e-07
46.6583
1.76265e-07
46.6578
1.77983e-07
46.6575
1.79436e-07
46.6572
1.80656e-07
46.657
1.8168e-07
46.6569
1.82528e-07
46.6568
1.83238e-07
46.6567
1.8384e-07
46.6567
1.8431e-07
46.6567
1.84708e-07
46.6567
1.8509e-07
46.6568
1.85369e-07
46.6568
1.85615e-07
46.6569
1.85823e-07
46.657
1.86007e-07
46.657
1.86162e-07
46.6571
1.86302e-07
46.6571
1.86428e-07
46.6572
1.86547e-07
46.6573
1.86652e-07
46.6573
1.86752e-07
46.6574
1.86844e-07
46.6575
1.86925e-07
46.6575
1.87003e-07
46.6576
1.87077e-07
46.6576
1.87149e-07
46.6577
1.87219e-07
46.6577
1.87286e-07
46.6577
1.87352e-07
46.6578
1.87406e-07
46.6578
1.87474e-07
46.6578
1.87531e-07
46.6579
1.87669e-07
46.6579
1.87551e-07
46.6579
1.87689e-07
46.6579
1.87851e-07
46.658
1.87687e-07
46.658
1.87761e-07
46.658
1.87996e-07
46.658
1.87992e-07
46.658
1.88013e-07
46.658
1.88191e-07
46.658
1.88241e-07
46.6579
1.88408e-07
46.6579
1.88674e-07
46.6578
1.8856e-07
46.6578
1.89021e-07
46.6576
1.89355e-07
46.6575
1.89795e-07
46.6573
1.9036e-07
46.657
1.91079e-07
46.6566
1.91997e-07
46.6561
1.93127e-07
46.6555
1.94554e-07
46.6548
1.96312e-07
46.6538
1.98479e-07
46.6525
2.01113e-07
46.651
2.04278e-07
46.6491
2.08053e-07
46.6467
2.12521e-07
46.6438
2.17726e-07
46.6404
2.23743e-07
46.6362
2.30589e-07
46.6313
2.38295e-07
46.6256
2.46851e-07
46.6189
2.56195e-07
46.6112
2.6624e-07
46.6024
2.76833e-07
46.5924
2.87784e-07
46.5812
2.98831e-07
46.5689
3.09648e-07
46.5554
3.19865e-07
46.5408
3.29059e-07
46.5252
3.3676e-07
46.5087
3.42493e-07
46.4916
3.45762e-07
46.474
3.46098e-07
46.4563
3.4308e-07
46.4386
3.36359e-07
46.4215
3.25682e-07
46.4051
3.10925e-07
46.3899
2.92103e-07
46.3761
2.69398e-07
46.3642
2.43152e-07
46.3544
2.13862e-07
46.3469
1.8219e-07
46.3418
1.48941e-07
46.3394
1.1539e-07
46.3396
8.78938e-08
46.3421
6.33229e-08
46.3468
2.11958e-08
46.3539
-5.22687e-09
46.3631
-3.15017e-08
46.3741
-5.08303e-08
46.3865
-6.63515e-08
46.4
-7.70822e-08
46.4142
-8.13548e-08
46.4287
-8.20792e-08
46.4431
-7.7478e-08
46.4572
-6.83481e-08
46.4706
-5.63991e-08
46.4832
-4.08691e-08
46.4947
-2.35116e-08
46.505
-5.69344e-09
46.5141
1.41308e-08
46.5219
3.37006e-08
46.5284
5.20922e-08
46.5339
6.9703e-08
46.5382
8.55316e-08
46.5416
9.99783e-08
46.5441
1.12331e-07
46.5459
1.22692e-07
46.5472
1.31426e-07
46.5479
1.38137e-07
46.5484
1.43324e-07
46.5485
1.47129e-07
46.5485
1.49412e-07
46.5484
1.50539e-07
46.5483
1.51856e-07
46.5481
1.52076e-07
46.548
1.51715e-07
46.5479
1.51029e-07
46.5478
1.49986e-07
46.5479
1.50026e-07
46.548
1.48467e-07
46.5481
1.42127e-07
46.5483
1.50516e-07
46.5485
1.59155e-07
46.5488
1.43924e-07
46.549
2.62026e-07
46.5492
4.1762e-07
46.5494
1.98454e-06
46.5494
8.09263e-06
46.5493
3.78609e-05
46.549
0.000182401
46.548
0.000868856
46.5446
0.00414427
46.531
0.0197152
46.4714
0.0915863
46.2062
0.4172
45.099
1.86249
6.56133
41.2794
46.8064
1.59162e-12
46.8272
-2.27374e-13
46.8477
2.27374e-13
46.8678
6.82121e-13
46.8871
-9.09495e-13
46.9055
-1.81899e-12
46.9229
-1.81899e-12
46.9392
-6.82121e-13
46.9543
1.36424e-12
46.9681
-2.27374e-13
46.9805
1.13687e-12
46.9913
9.09495e-13
47.0005
1.13687e-12
47.0078
4.54747e-13
47.0133
1.59162e-12
47.0168
2.27374e-12
47.0184
9.09495e-13
47.0179
-2.27374e-13
47.0153
0
47.0107
0
47.0041
1.36424e-12
46.9958
2.27374e-12
46.9857
2.27374e-12
46.9741
2.95586e-12
46.9612
2.27374e-12
46.947
-4.54747e-13
46.9319
2.27374e-13
46.9161
-2.27374e-12
46.8997
-1.36424e-12
46.883
-1.59162e-12
46.8663
-6.82121e-13
46.8496
6.82121e-13
46.8333
-6.82121e-13
46.8174
4.54747e-13
46.802
-4.54747e-13
46.7874
-1.36424e-12
46.7735
-1.13687e-12
46.7605
-1.59162e-12
46.7484
-2.04636e-12
46.7373
9.09495e-13
46.7271
1.13687e-12
46.7178
-1.13687e-12
46.7094
-2.27374e-13
46.7018
-9.09495e-13
46.6951
-2.27374e-13
46.6892
-1.81899e-12
46.684
-1.59162e-12
46.6795
-1.36424e-12
46.6756
0
46.6722
-1.59162e-12
46.6694
-4.54747e-13
46.6669
-2.27374e-13
46.6649
-2.27374e-13
46.6632
9.09495e-13
46.6618
9.09495e-13
46.6606
6.82121e-13
46.6597
1.36424e-12
46.6589
-9.09495e-13
46.6583
1.13687e-12
46.6578
-2.27374e-13
46.6575
2.27374e-13
46.6572
-1.13687e-12
46.657
0
46.6569
-6.82121e-13
46.6568
2.27374e-13
46.6567
2.27374e-13
46.6567
-6.82121e-13
46.6567
-1.13687e-12
46.6567
1.81899e-12
46.6568
2.04636e-12
46.6568
-6.82121e-13
46.6569
-9.09495e-13
46.657
1.59162e-12
46.657
-4.54747e-13
46.6571
4.54747e-13
46.6571
4.54747e-13
46.6572
6.82121e-13
46.6573
9.09495e-13
46.6573
-2.27374e-13
46.6574
3.18323e-12
46.6575
9.09495e-13
46.6575
-4.54747e-13
46.6576
1.13687e-12
46.6576
2.27374e-13
46.6577
-1.13687e-12
46.6577
0
46.6577
4.54747e-13
46.6578
-6.82121e-13
46.6578
-1.13687e-12
46.6578
-1.13687e-12
46.6579
4.54747e-13
46.6579
9.09495e-13
46.6579
6.82121e-13
46.6579
6.82121e-13
46.658
-1.59162e-12
46.658
-6.82121e-13
46.658
0
46.658
6.82121e-13
46.658
-2.04636e-12
46.658
2.27374e-13
46.658
-2.27374e-13
46.6579
-6.82121e-13
46.6579
-6.82121e-13
46.6578
0
46.6578
2.27374e-13
46.6576
2.27374e-13
46.6575
-1.13687e-12
46.6573
-9.09495e-13
46.657
4.54747e-13
46.6566
9.09495e-13
46.6561
-9.09495e-13
46.6555
2.27374e-13
46.6548
2.27374e-13
46.6538
1.36424e-12
46.6525
1.13687e-12
46.651
1.13687e-12
46.6491
1.13687e-12
46.6467
6.82121e-13
46.6438
-9.09495e-13
46.6404
-1.59162e-12
46.6362
-2.27374e-13
46.6313
-4.54747e-13
46.6256
1.81899e-12
46.6189
9.09495e-13
46.6112
1.81899e-12
46.6024
0
46.5924
2.27374e-13
46.5812
6.82121e-13
46.5689
-6.82121e-13
46.5554
6.82121e-13
46.5408
0
46.5252
-2.04636e-12
46.5087
0
46.4916
-6.82121e-13
46.474
6.82121e-13
46.4563
0
46.4386
2.27374e-13
46.4215
1.81899e-12
46.4051
2.04636e-12
46.3899
-6.82121e-13
46.3761
-6.82121e-13
46.3642
1.36424e-12
46.3544
1.59162e-12
46.3469
-4.54747e-13
46.3418
-2.27374e-13
46.3394
-2.27374e-13
46.3396
-2.27374e-13
46.3421
-1.36424e-12
46.3468
-4.54747e-13
46.3539
-9.09495e-13
46.3631
-9.09495e-13
46.3741
-3.18323e-12
46.3865
-1.13687e-12
46.4
2.50111e-12
46.4142
1.36424e-12
46.4287
-1.59162e-12
46.4431
-1.36424e-12
46.4572
-4.54747e-13
46.4706
-4.54747e-13
46.4832
-1.81899e-12
46.4947
-2.50111e-12
46.505
-9.09495e-13
46.5141
-4.54747e-13
46.5219
-4.54747e-13
46.5284
0
46.5339
4.54747e-13
46.5382
-6.82121e-13
46.5416
6.82121e-13
46.5441
-4.54747e-13
46.5459
-2.27374e-13
46.5472
-2.27374e-13
46.5479
9.09495e-13
46.5484
2.04636e-12
46.5485
7.27596e-12
46.5485
5.18412e-11
46.5484
-1.83263e-10
46.5483
2.38742e-11
46.5481
8.61746e-11
46.548
9.09495e-12
46.5479
1.40972e-11
46.5478
1.46429e-10
46.5479
1.42336e-10
46.548
-1.85969e-09
46.5481
-5.71345e-09
46.5483
2.15528e-09
46.5485
2.20318e-08
46.5488
-1.97288e-08
46.549
1.74728e-07
46.5492
2.7223e-07
46.5494
2.37429e-06
46.5494
1.00039e-05
46.5493
4.65531e-05
46.5491
0.000226858
46.5484
0.00107964
46.5467
0.00515085
46.5408
0.0246003
46.5149
0.115988
46.3931
0.537166
45.806
2.44713
8.75026
43.6139
46.8064
-0.000185605
46.8272
-0.000159468
46.8477
-0.000138036
46.8678
-0.000142344
46.8871
-0.000143885
46.9055
-0.000143568
46.9229
-0.000143444
46.9392
-0.000143424
46.9543
-0.000143272
46.9681
-0.000142917
46.9805
-0.000142211
46.9913
-0.000140933
47.0005
-0.000138806
47.0078
-0.000135523
47.0133
-0.000130806
47.0168
-0.000124414
47.0184
-0.000116354
47.0179
-0.000106803
47.0153
-9.57525e-05
47.0107
-8.38134e-05
47.0041
-7.16558e-05
46.9958
-5.96501e-05
46.9857
-4.83389e-05
46.9741
-3.81182e-05
46.9612
-2.92426e-05
46.947
-2.18226e-05
46.9319
-1.58423e-05
46.9161
-1.11889e-05
46.8997
-7.68891e-06
46.883
-5.14155e-06
46.8663
-3.34601e-06
46.8496
-2.11978e-06
46.8333
-1.30759e-06
46.8174
-7.8643e-07
46.802
-4.63072e-07
46.7874
-2.69641e-07
46.7735
-1.59759e-07
46.7605
-1.01443e-07
46.7484
-7.38569e-08
46.7373
-6.41955e-08
46.7271
-6.46796e-08
46.7178
-7.06034e-08
46.7094
-7.91947e-08
46.7018
-8.89002e-08
46.6951
-9.88261e-08
46.6892
-1.0849e-07
46.684
-1.17631e-07
46.6795
-1.26101e-07
46.6756
-1.33859e-07
46.6722
-1.40878e-07
46.6694
-1.47159e-07
46.6669
-1.52752e-07
46.6649
-1.5769e-07
46.6632
-1.62017e-07
46.6618
-1.65785e-07
46.6606
-1.69041e-07
46.6597
-1.71843e-07
46.6589
-1.74234e-07
46.6583
-1.76263e-07
46.6578
-1.77985e-07
46.6575
-1.79436e-07
46.6572
-1.80659e-07
46.657
-1.81679e-07
46.6569
-1.82528e-07
46.6568
-1.83238e-07
46.6567
-1.8384e-07
46.6567
-1.84311e-07
46.6567
-1.84709e-07
46.6567
-1.85087e-07
46.6568
-1.85365e-07
46.6568
-1.85615e-07
46.6569
-1.85826e-07
46.657
-1.86003e-07
46.657
-1.86163e-07
46.6571
-1.863e-07
46.6571
-1.86428e-07
46.6572
-1.86544e-07
46.6573
-1.8665e-07
46.6573
-1.86753e-07
46.6574
-1.8684e-07
46.6575
-1.86924e-07
46.6575
-1.87004e-07
46.6576
-1.87075e-07
46.6576
-1.87149e-07
46.6577
-1.87221e-07
46.6577
-1.87288e-07
46.6577
-1.87351e-07
46.6578
-1.87408e-07
46.6578
-1.87476e-07
46.6578
-1.87533e-07
46.6579
-1.87667e-07
46.6579
-1.87548e-07
46.6579
-1.87688e-07
46.6579
-1.87852e-07
46.658
-1.8769e-07
46.658
-1.87762e-07
46.658
-1.87995e-07
46.658
-1.87992e-07
46.658
-1.88017e-07
46.658
-1.88191e-07
46.658
-1.88242e-07
46.6579
-1.8841e-07
46.6579
-1.88675e-07
46.6578
-1.88558e-07
46.6578
-1.89021e-07
46.6576
-1.89355e-07
46.6575
-1.89797e-07
46.6573
-1.90361e-07
46.657
-1.91077e-07
46.6566
-1.91994e-07
46.6561
-1.9313e-07
46.6555
-1.94554e-07
46.6548
-1.96311e-07
46.6538
-1.98477e-07
46.6525
-2.01112e-07
46.651
-2.04276e-07
46.6491
-2.0805e-07
46.6467
-2.12518e-07
46.6438
-2.17728e-07
46.6404
-2.23745e-07
46.6362
-2.30589e-07
46.6313
-2.38296e-07
46.6256
-2.46847e-07
46.6189
-2.56193e-07
46.6112
-2.66237e-07
46.6024
-2.76834e-07
46.5924
-2.87783e-07
46.5812
-2.98829e-07
46.5689
-3.0965e-07
46.5554
-3.19865e-07
46.5408
-3.29058e-07
46.5252
-3.36763e-07
46.5087
-3.42493e-07
46.4916
-3.45762e-07
46.474
-3.46096e-07
46.4563
-3.4308e-07
46.4386
-3.36358e-07
46.4215
-3.25679e-07
46.4051
-3.1092e-07
46.3899
-2.92102e-07
46.3761
-2.694e-07
46.3642
-2.43148e-07
46.3544
-2.13861e-07
46.3469
-1.82192e-07
46.3418
-1.48943e-07
46.3394
-1.15391e-07
46.3396
-8.78947e-08
46.3421
-6.33258e-08
46.3468
-2.11962e-08
46.3539
5.22573e-09
46.3631
3.14978e-08
46.3741
5.08244e-08
46.3865
6.63506e-08
46.4
7.70865e-08
46.4142
8.13568e-08
46.4287
8.20746e-08
46.4431
7.74771e-08
46.4572
6.83488e-08
46.4706
5.63984e-08
46.4832
4.08647e-08
46.4947
2.35073e-08
46.505
5.69344e-09
46.5141
-1.41338e-08
46.5219
-3.3702e-08
46.5284
-5.20904e-08
46.5339
-6.97028e-08
46.5382
-8.55321e-08
46.5416
-9.99751e-08
46.5441
-1.12332e-07
46.5459
-1.22693e-07
46.5472
-1.31427e-07
46.5479
-1.38137e-07
46.5484
-1.43321e-07
46.5485
-1.47117e-07
46.5485
-1.49297e-07
46.5484
-1.50864e-07
46.5483
-1.51835e-07
46.5481
-1.51915e-07
46.548
-1.51713e-07
46.5479
-1.5099e-07
46.5478
-1.49583e-07
46.5479
-1.49853e-07
46.548
-1.50769e-07
46.5481
-1.52428e-07
46.5483
-1.45774e-07
46.5485
-1.26111e-07
46.5488
-1.68208e-07
46.549
-1.29762e-09
46.5492
8.39732e-08
46.5494
1.76624e-06
46.5494
8.11818e-06
46.5494
3.65024e-05
46.5492
0.000183846
46.5489
0.00087157
46.5492
0.00417686
46.5526
0.0201867
46.5701
0.0970163
46.6396
0.465769
46.7442
2.34002
7.97161
47.5197
46.8065
-0.000402126
46.8272
-0.000303538
46.8477
-0.000279505
46.8678
-0.000286284
46.8871
-0.000286952
46.9055
-0.000286831
46.9229
-0.000286733
46.9392
-0.000286701
46.9544
-0.000286397
46.9682
-0.000285669
46.9805
-0.000284206
46.9913
-0.000281558
47.0005
-0.000277172
47.0078
-0.000270434
47.0133
-0.000260801
47.0168
-0.000247818
47.0184
-0.000231489
47.0179
-0.000212126
47.0154
-0.00019007
47.0107
-0.000165984
47.0041
-0.000141735
46.9958
-0.000117797
46.9857
-9.53047e-05
46.9741
-7.50311e-05
46.9612
-5.74665e-05
46.947
-4.28152e-05
46.9319
-3.10316e-05
46.9161
-2.18811e-05
46.8997
-1.50121e-05
46.883
-1.00222e-05
46.8663
-6.51129e-06
46.8496
-4.11736e-06
46.8333
-2.53514e-06
46.8174
-1.52209e-06
46.802
-8.94955e-07
46.7874
-5.20932e-07
46.7735
-3.0948e-07
46.7605
-1.97138e-07
46.7484
-1.44501e-07
46.7373
-1.26545e-07
46.7271
-1.28329e-07
46.7178
-1.40626e-07
46.7094
-1.5807e-07
46.7018
-1.77635e-07
46.6951
-1.97555e-07
46.6892
-2.16928e-07
46.684
-2.35234e-07
46.6795
-2.52178e-07
46.6756
-2.67709e-07
46.6722
-2.81744e-07
46.6694
-2.94305e-07
46.6669
-3.05501e-07
46.6649
-3.15369e-07
46.6632
-3.24033e-07
46.6618
-3.31568e-07
46.6606
-3.38081e-07
46.6597
-3.43685e-07
46.6589
-3.48464e-07
46.6583
-3.52527e-07
46.6578
-3.55966e-07
46.6575
-3.58869e-07
46.6572
-3.61314e-07
46.657
-3.63357e-07
46.6569
-3.65058e-07
46.6568
-3.66471e-07
46.6567
-3.67672e-07
46.6567
-3.68644e-07
46.6567
-3.69389e-07
46.6567
-3.70186e-07
46.6568
-3.70731e-07
46.6568
-3.71229e-07
46.6569
-3.7165e-07
46.657
-3.72008e-07
46.657
-3.72325e-07
46.6571
-3.726e-07
46.6571
-3.72856e-07
46.6572
-3.73087e-07
46.6573
-3.73301e-07
46.6573
-3.73504e-07
46.6574
-3.73681e-07
46.6575
-3.73849e-07
46.6575
-3.74009e-07
46.6576
-3.74151e-07
46.6576
-3.74299e-07
46.6577
-3.74439e-07
46.6577
-3.74573e-07
46.6577
-3.74702e-07
46.6578
-3.74814e-07
46.6578
-3.74948e-07
46.6578
-3.75058e-07
46.6579
-3.75366e-07
46.6579
-3.75061e-07
46.6579
-3.75377e-07
46.6579
-3.7574e-07
46.658
-3.75343e-07
46.658
-3.75513e-07
46.658
-3.76017e-07
46.658
-3.75976e-07
46.658
-3.76027e-07
46.658
-3.76373e-07
46.658
-3.76509e-07
46.6579
-3.7677e-07
46.6579
-3.77386e-07
46.6578
-3.77096e-07
46.6578
-3.78044e-07
46.6576
-3.78704e-07
46.6575
-3.79615e-07
46.6573
-3.80719e-07
46.657
-3.82157e-07
46.6566
-3.83989e-07
46.6561
-3.86261e-07
46.6555
-3.89107e-07
46.6548
-3.92626e-07
46.6538
-3.96956e-07
46.6525
-4.02222e-07
46.651
-4.08552e-07
46.6491
-4.16101e-07
46.6467
-4.25038e-07
46.6438
-4.35459e-07
46.6404
-4.47489e-07
46.6362
-4.61178e-07
46.6313
-4.76596e-07
46.6256
-4.937e-07
46.6189
-5.12394e-07
46.6112
-5.32486e-07
46.6024
-5.53677e-07
46.5924
-5.75578e-07
46.5812
-5.97674e-07
46.5689
-6.19317e-07
46.5554
-6.39745e-07
46.5408
-6.58137e-07
46.5252
-6.73547e-07
46.5087
-6.85009e-07
46.4916
-6.91546e-07
46.474
-6.9222e-07
46.4563
-6.86186e-07
46.4386
-6.72743e-07
46.4215
-6.51383e-07
46.4051
-6.21863e-07
46.3899
-5.84223e-07
46.3761
-5.38812e-07
46.3642
-4.86308e-07
46.3544
-4.27729e-07
46.3469
-3.6438e-07
46.3418
-2.97853e-07
46.3394
-2.30321e-07
46.3396
-1.77042e-07
46.3421
-1.25865e-07
46.3468
-4.26521e-08
46.3539
1.16975e-08
46.3631
6.28293e-08
46.3741
1.01644e-07
46.3865
1.32642e-07
46.4
1.54374e-07
46.4142
1.62582e-07
46.4287
1.64419e-07
46.4431
1.54967e-07
46.4572
1.36644e-07
46.4706
1.13116e-07
46.4832
8.16981e-08
46.4947
4.7437e-08
46.505
1.02746e-08
46.5141
-2.94817e-08
46.5219
-6.6605e-08
46.5284
-1.04164e-07
46.5339
-1.39416e-07
46.5382
-1.71005e-07
46.5416
-2.00051e-07
46.5441
-2.24588e-07
46.5459
-2.45425e-07
46.5472
-2.629e-07
46.5479
-2.76214e-07
46.5484
-2.86705e-07
46.5485
-2.94257e-07
46.5485
-2.98591e-07
46.5484
-3.01492e-07
46.5483
-3.03759e-07
46.5481
-3.03959e-07
46.548
-3.03437e-07
46.5479
-3.0207e-07
46.5478
-3.00282e-07
46.5479
-2.99658e-07
46.548
-2.97993e-07
46.5481
-2.96859e-07
46.5483
-2.94185e-07
46.5485
-2.84945e-07
46.5488
-3.03008e-07
46.549
-2.37056e-07
46.5492
-2.12382e-07
46.5494
4.07366e-07
46.5494
2.68358e-06
46.5494
1.31473e-05
46.5493
6.65161e-05
46.5494
0.000317185
46.5513
0.00152273
46.5631
0.00740586
46.6224
0.0361885
46.9018
0.184479
47.9694
1.26994
4.10026
51.8376
10.6036
-0.000460183
10.6083
-0.000330259
10.6129
-0.000314127
10.6175
-0.00031902
10.6219
-0.00031931
10.626
-0.000319359
10.63
-0.000319236
10.6337
-0.000319186
10.6371
-0.000318838
10.6402
-0.000318015
10.643
-0.000316365
10.6455
-0.000313383
10.6475
-0.000308451
10.6492
-0.000300886
10.6504
-0.00029008
10.6512
-0.000275544
10.6516
-0.000257269
10.6515
-0.000235574
10.6509
-0.000211041
10.6498
-0.000184089
10.6484
-0.000157104
10.6465
-0.00013046
10.6442
-0.000105457
10.6416
-8.2946e-05
10.6386
-6.34661e-05
10.6354
-4.72366e-05
10.632
-3.41993e-05
10.6284
-2.40879e-05
10.6247
-1.65069e-05
10.6209
-1.10068e-05
10.6171
-7.14196e-06
10.6134
-4.51012e-06
10.6097
-2.77304e-06
10.606
-1.66247e-06
10.6026
-9.75982e-07
10.5993
-5.67308e-07
10.5961
-3.37011e-07
10.5932
-2.14985e-07
10.5904
-1.58336e-07
10.5879
-1.39451e-07
10.5856
-1.42094e-07
10.5835
-1.56135e-07
10.5816
-1.75751e-07
10.5799
-1.97637e-07
10.5784
-2.19861e-07
10.577
-2.41458e-07
10.5758
-2.61854e-07
10.5748
-2.80719e-07
10.5739
-2.9802e-07
10.5732
-3.13641e-07
10.5725
-3.27631e-07
10.572
-3.40098e-07
10.5715
-3.5108e-07
10.5711
-3.60731e-07
10.5708