/*--------------------------------*- C++ -*----------------------------------*\
| =========                 |                                                 |
| \\      /  F ield         | OpenFOAM: The Open Source CFD Toolbox           |
|  \\    /   O peration     | Version:  3.0.x                                 |
|   \\  /    A nd           | Web:      www.OpenFOAM.org                      |
|    \\/     M anipulation  |                                                 |
\*---------------------------------------------------------------------------*/
FoamFile
{
    version     2.0;
    format      ascii;
    class       volVectorField;
    location    "0.48";
    object      U;
}
// * * * * * * * * * * * * * * * * * * * * * * * * * * * * * * * * * * * * * //

dimensions      [0 1 -1 0 0 0 0];

internalField   nonuniform List<vector> 
6900
(
(42.6967 0.000101089 0)
(42.6912 9.24584e-05 0)
(42.6851 8.99933e-05 0)
(42.6791 9.08498e-05 0)
(42.6731 9.15469e-05 0)
(42.6669 9.19591e-05 0)
(42.6604 9.22687e-05 0)
(42.6537 9.25146e-05 0)
(42.6467 9.27035e-05 0)
(42.6395 9.2848e-05 0)
(42.6319 9.29596e-05 0)
(42.624 9.30467e-05 0)
(42.6158 9.3115e-05 0)
(42.6073 9.31682e-05 0)
(42.5984 9.3209e-05 0)
(42.5893 9.32418e-05 0)
(42.5799 9.32675e-05 0)
(42.5701 9.32878e-05 0)
(42.5601 9.33038e-05 0)
(42.5499 9.33164e-05 0)
(42.5394 9.33265e-05 0)
(42.5288 9.33346e-05 0)
(42.5179 9.33411e-05 0)
(42.5068 9.33465e-05 0)
(42.4956 9.33514e-05 0)
(42.4842 9.3356e-05 0)
(42.4726 9.33607e-05 0)
(42.4608 9.33658e-05 0)
(42.4489 9.33717e-05 0)
(42.4368 9.33788e-05 0)
(42.4244 9.33874e-05 0)
(42.4119 9.33979e-05 0)
(42.3991 9.34105e-05 0)
(42.386 9.34256e-05 0)
(42.3725 9.3443e-05 0)
(42.3588 9.34628e-05 0)
(42.3446 9.3486e-05 0)
(42.33 9.35119e-05 0)
(42.3149 9.35414e-05 0)
(42.2993 9.3573e-05 0)
(42.2831 9.36073e-05 0)
(42.2663 9.36473e-05 0)
(42.249 9.36813e-05 0)
(42.2309 9.37213e-05 0)
(42.2122 9.37667e-05 0)
(42.1928 9.38109e-05 0)
(42.1727 9.38559e-05 0)
(42.1518 9.39021e-05 0)
(42.1302 9.39491e-05 0)
(42.1079 9.39961e-05 0)
(42.0849 9.40431e-05 0)
(42.0611 9.40891e-05 0)
(42.0367 9.41314e-05 0)
(42.0116 9.41691e-05 0)
(41.9858 9.41987e-05 0)
(41.9595 9.42214e-05 0)
(41.9325 9.42164e-05 0)
(41.905 9.41971e-05 0)
(41.8769 9.41421e-05 0)
(41.8483 9.40458e-05 0)
(41.8191 9.38947e-05 0)
(41.7895 9.36747e-05 0)
(41.7594 9.33693e-05 0)
(41.7289 9.29597e-05 0)
(41.6978 9.24246e-05 0)
(41.6663 9.17412e-05 0)
(41.6342 9.0886e-05 0)
(41.6017 8.98346e-05 0)
(41.5687 8.85641e-05 0)
(41.5351 8.70531e-05 0)
(41.5009 8.52832e-05 0)
(41.4661 8.32404e-05 0)
(41.4307 8.0916e-05 0)
(41.3946 7.83079e-05 0)
(41.3578 7.54207e-05 0)
(41.3203 7.22667e-05 0)
(41.282 6.8866e-05 0)
(41.2429 6.52459e-05 0)
(41.2029 6.14404e-05 0)
(41.1621 5.74896e-05 0)
(41.1205 5.34375e-05 0)
(41.0779 4.93313e-05 0)
(41.0345 4.52195e-05 0)
(40.9901 4.11499e-05 0)
(40.9449 3.71686e-05 0)
(40.8988 3.33179e-05 0)
(40.8518 2.96353e-05 0)
(40.8039 2.61527e-05 0)
(40.7552 2.28954e-05 0)
(40.7057 1.98819e-05 0)
(40.6554 1.7124e-05 0)
(40.6044 1.4627e-05 0)
(40.5526 1.23902e-05 0)
(40.5002 1.04076e-05 0)
(40.4472 8.66883e-06 0)
(40.3935 7.15995e-06 0)
(40.3391 5.86442e-06 0)
(40.2842 4.76393e-06 0)
(40.2288 3.83914e-06 0)
(40.1727 3.07047e-06 0)
(40.1161 2.43863e-06 0)
(40.0589 1.9251e-06 0)
(40.0011 1.51244e-06 0)
(39.9427 1.18468e-06 0)
(39.8836 9.27487e-07 0)
(39.8238 7.28264e-07 0)
(39.7634 5.76081e-07 0)
(39.7022 4.61608e-07 0)
(39.6402 3.77052e-07 0)
(39.5774 3.15976e-07 0)
(39.5138 2.73094e-07 0)
(39.4492 2.44181e-07 0)
(39.3836 2.25913e-07 0)
(39.3171 2.15708e-07 0)
(39.2495 2.11622e-07 0)
(39.1809 2.12088e-07 0)
(39.1111 2.15914e-07 0)
(39.0403 2.22142e-07 0)
(38.9683 2.30104e-07 0)
(38.8951 2.39241e-07 0)
(38.8208 2.49138e-07 0)
(38.7454 2.59379e-07 0)
(38.6689 2.69597e-07 0)
(38.5912 2.79524e-07 0)
(38.5125 2.88946e-07 0)
(38.4327 2.97783e-07 0)
(38.352 3.05908e-07 0)
(38.2704 3.13198e-07 0)
(38.1878 3.1957e-07 0)
(38.1045 3.24925e-07 0)
(38.0204 3.29324e-07 0)
(37.9355 3.32807e-07 0)
(37.85 3.35471e-07 0)
(37.7638 3.37473e-07 0)
(37.677 3.38896e-07 0)
(37.5896 3.39846e-07 0)
(37.5016 3.4041e-07 0)
(37.413 3.40686e-07 0)
(37.3238 3.4083e-07 0)
(37.2339 3.40973e-07 0)
(37.1435 3.41241e-07 0)
(37.0524 3.41684e-07 0)
(36.9606 3.42375e-07 0)
(36.8681 3.43446e-07 0)
(36.7748 3.44934e-07 0)
(36.6808 3.46828e-07 0)
(36.586 3.4915e-07 0)
(36.4903 3.51933e-07 0)
(36.3938 3.55132e-07 0)
(36.2964 3.58796e-07 0)
(36.198 3.62948e-07 0)
(36.0987 3.67667e-07 0)
(35.9983 3.72974e-07 0)
(35.8969 3.78838e-07 0)
(35.7943 3.85176e-07 0)
(35.6907 3.91944e-07 0)
(35.5859 3.99033e-07 0)
(35.4799 4.0646e-07 0)
(35.3727 4.14256e-07 0)
(35.2642 4.22211e-07 0)
(35.1546 4.30094e-07 0)
(35.0438 4.37691e-07 0)
(34.9318 4.44923e-07 0)
(34.8186 4.51561e-07 0)
(34.7043 4.57505e-07 0)
(34.589 4.62551e-07 0)
(34.4727 4.66708e-07 0)
(34.3555 4.69697e-07 0)
(34.2374 4.71548e-07 0)
(34.1186 4.72076e-07 0)
(33.999 4.71331e-07 0)
(33.8788 4.69233e-07 0)
(33.758 4.66059e-07 0)
(33.6366 4.61779e-07 0)
(33.5148 4.56991e-07 0)
(33.3925 4.51166e-07 0)
(33.2698 4.45305e-07 0)
(33.1466 4.3828e-07 0)
(33.023 4.32107e-07 0)
(32.8988 4.24649e-07 0)
(32.7741 4.19345e-07 0)
(32.6489 4.11498e-07 0)
(32.5231 4.08249e-07 0)
(32.3967 3.9818e-07 0)
(32.2696 4.00442e-07 0)
(32.1419 3.82875e-07 0)
(32.0135 3.98782e-07 0)
(31.8844 3.65193e-07 0)
(31.7547 4.04917e-07 0)
(31.6243 3.48605e-07 0)
(31.4932 4.26047e-07 0)
(31.3614 3.36842e-07 0)
(31.2289 5.78228e-07 0)
(31.0959 7.5356e-07 0)
(30.9621 4.51401e-06 0)
(30.8271 2.68895e-05 0)
(30.6879 0.000182643 0)
(30.5231 0.00125413 0)
(30.2707 0.0123402 0)
(28.3149 0.057428 0)
(42.6985 0.000128194 0)
(42.6948 9.86543e-05 0)
(42.6905 8.62282e-05 0)
(42.6863 8.54535e-05 0)
(42.682 8.53313e-05 0)
(42.6776 8.49285e-05 0)
(42.6729 8.46351e-05 0)
(42.668 8.4453e-05 0)
(42.6628 8.43206e-05 0)
(42.6573 8.4219e-05 0)
(42.6516 8.41417e-05 0)
(42.6455 8.40826e-05 0)
(42.639 8.40385e-05 0)
(42.6323 8.4005e-05 0)
(42.6252 8.39795e-05 0)
(42.6179 8.39619e-05 0)
(42.6102 8.39493e-05 0)
(42.6023 8.3941e-05 0)
(42.5941 8.39363e-05 0)
(42.5857 8.39343e-05 0)
(42.577 8.39348e-05 0)
(42.5681 8.39371e-05 0)
(42.559 8.39409e-05 0)
(42.5497 8.39462e-05 0)
(42.5403 8.3953e-05 0)
(42.5306 8.3961e-05 0)
(42.5208 8.39704e-05 0)
(42.5109 8.39812e-05 0)
(42.5007 8.39936e-05 0)
(42.4904 8.40078e-05 0)
(42.4798 8.4024e-05 0)
(42.4691 8.40426e-05 0)
(42.4581 8.40636e-05 0)
(42.4467 8.40872e-05 0)
(42.4351 8.41134e-05 0)
(42.4231 8.41423e-05 0)
(42.4107 8.41742e-05 0)
(42.3979 8.42081e-05 0)
(42.3846 8.42458e-05 0)
(42.3708 8.42867e-05 0)
(42.3564 8.43312e-05 0)
(42.3415 8.43814e-05 0)
(42.3259 8.44253e-05 0)
(42.3096 8.4477e-05 0)
(42.2927 8.45327e-05 0)
(42.2751 8.45847e-05 0)
(42.2568 8.46394e-05 0)
(42.2377 8.46961e-05 0)
(42.2179 8.47538e-05 0)
(42.1974 8.48116e-05 0)
(42.1762 8.48691e-05 0)
(42.1542 8.49256e-05 0)
(42.1316 8.49786e-05 0)
(42.1083 8.50282e-05 0)
(42.0843 8.50696e-05 0)
(42.0598 8.51066e-05 0)
(42.0346 8.51147e-05 0)
(42.0089 8.51138e-05 0)
(41.9826 8.50769e-05 0)
(41.9558 8.50025e-05 0)
(41.9285 8.4876e-05 0)
(41.9006 8.46862e-05 0)
(41.8723 8.44181e-05 0)
(41.8435 8.40539e-05 0)
(41.8143 8.35745e-05 0)
(41.7845 8.29587e-05 0)
(41.7542 8.21858e-05 0)
(41.7234 8.12326e-05 0)
(41.6921 8.00789e-05 0)
(41.6602 7.8705e-05 0)
(41.6276 7.70945e-05 0)
(41.5945 7.52351e-05 0)
(41.5606 7.31195e-05 0)
(41.5261 7.07463e-05 0)
(41.4907 6.81205e-05 0)
(41.4546 6.5254e-05 0)
(41.4177 6.21658e-05 0)
(41.3799 5.88815e-05 0)
(41.3411 5.54327e-05 0)
(41.3015 5.18559e-05 0)
(41.2609 4.81918e-05 0)
(41.2193 4.44832e-05 0)
(41.1768 4.07741e-05 0)
(41.1333 3.71079e-05 0)
(41.0888 3.35258e-05 0)
(41.0433 3.00656e-05 0)
(40.9969 2.67608e-05 0)
(40.9495 2.36395e-05 0)
(40.9013 2.07237e-05 0)
(40.8522 1.80293e-05 0)
(40.8023 1.55662e-05 0)
(40.7515 1.33382e-05 0)
(40.7001 1.13437e-05 0)
(40.6478 9.57669e-06 0)
(40.5949 8.02693e-06 0)
(40.5414 6.68122e-06 0)
(40.4872 5.52409e-06 0)
(40.4324 4.53857e-06 0)
(40.377 3.70704e-06 0)
(40.321 3.01187e-06 0)
(40.2644 2.43605e-06 0)
(40.2072 1.96356e-06 0)
(40.1495 1.57958e-06 0)
(40.091 1.2707e-06 0)
(40.032 1.02497e-06 0)
(39.9722 8.31858e-07 0)
(39.9118 6.82248e-07 0)
(39.8506 5.6832e-07 0)
(39.7886 4.83365e-07 0)
(39.7258 4.21707e-07 0)
(39.6621 3.78647e-07 0)
(39.5975 3.50201e-07 0)
(39.532 3.33184e-07 0)
(39.4654 3.25006e-07 0)
(39.3979 3.23665e-07 0)
(39.3292 3.27445e-07 0)
(39.2595 3.35004e-07 0)
(39.1886 3.45206e-07 0)
(39.1166 3.57238e-07 0)
(39.0434 3.70391e-07 0)
(38.9691 3.84127e-07 0)
(38.8937 3.97892e-07 0)
(38.8171 4.11205e-07 0)
(38.7394 4.23685e-07 0)
(38.6607 4.35084e-07 0)
(38.581 4.45267e-07 0)
(38.5002 4.54096e-07 0)
(38.4186 4.6143e-07 0)
(38.336 4.67208e-07 0)
(38.2527 4.71352e-07 0)
(38.1685 4.74003e-07 0)
(38.0837 4.75287e-07 0)
(37.9981 4.75419e-07 0)
(37.9119 4.7466e-07 0)
(37.8251 4.73222e-07 0)
(37.7377 4.71305e-07 0)
(37.6497 4.69118e-07 0)
(37.5611 4.66826e-07 0)
(37.4718 4.64702e-07 0)
(37.382 4.62939e-07 0)
(37.2915 4.61718e-07 0)
(37.2004 4.61124e-07 0)
(37.1086 4.61233e-07 0)
(37.0161 4.62208e-07 0)
(36.9228 4.64069e-07 0)
(36.8288 4.66768e-07 0)
(36.7339 4.70371e-07 0)
(36.6383 4.74755e-07 0)
(36.5417 4.79978e-07 0)
(36.4443 4.86007e-07 0)
(36.3459 4.92879e-07 0)
(36.2465 5.00619e-07 0)
(36.1462 5.09285e-07 0)
(36.0447 5.18812e-07 0)
(35.9422 5.28975e-07 0)
(35.8385 5.39769e-07 0)
(35.7337 5.50961e-07 0)
(35.6277 5.62448e-07 0)
(35.5204 5.74323e-07 0)
(35.412 5.86178e-07 0)
(35.3024 5.97728e-07 0)
(35.1915 6.08441e-07 0)
(35.0795 6.18327e-07 0)
(34.9663 6.26895e-07 0)
(34.852 6.34379e-07 0)
(34.7367 6.39909e-07 0)
(34.6204 6.43962e-07 0)
(34.5032 6.45768e-07 0)
(34.3851 6.46015e-07 0)
(34.2662 6.43921e-07 0)
(34.1466 6.39819e-07 0)
(34.0264 6.33506e-07 0)
(33.9055 6.26304e-07 0)
(33.7842 6.16559e-07 0)
(33.6624 6.0784e-07 0)
(33.5401 5.95498e-07 0)
(33.4173 5.86753e-07 0)
(33.2941 5.72455e-07 0)
(33.1704 5.65728e-07 0)
(33.0463 5.49884e-07 0)
(32.9216 5.48822e-07 0)
(32.7963 5.28412e-07 0)
(32.6705 5.39277e-07 0)
(32.544 5.01345e-07 0)
(32.417 5.48097e-07 0)
(32.2892 4.5256e-07 0)
(32.1608 5.87321e-07 0)
(32.0317 3.66833e-07 0)
(31.902 6.53556e-07 0)
(31.7715 2.30832e-07 0)
(31.6404 7.88894e-07 0)
(31.5086 3.1357e-08 0)
(31.3761 1.66403e-06 0)
(31.243 3.27309e-06 0)
(31.1092 2.75176e-05 0)
(30.9743 0.000176027 0)
(30.8351 0.00120478 0)
(30.6712 0.00814489 0)
(30.4216 0.0583435 0)
(28.9164 0.25197 0)
(42.6985 6.67714e-14 0)
(42.6947 5.85214e-13 0)
(42.6904 5.27277e-13 0)
(42.6862 1.47325e-12 0)
(42.682 7.0526e-13 0)
(42.6776 -2.06552e-12 0)
(42.6729 -5.40378e-12 0)
(42.668 -7.74352e-12 0)
(42.6628 -6.96536e-12 0)
(42.6573 -7.08311e-12 0)
(42.6515 -8.06726e-12 0)
(42.6454 -1.13541e-11 0)
(42.639 -1.58268e-11 0)
(42.6323 -1.77176e-11 0)
(42.6252 -1.98919e-11 0)
(42.6179 -2.1101e-11 0)
(42.6102 -2.30231e-11 0)
(42.6023 -2.28544e-11 0)
(42.5941 -2.09174e-11 0)
(42.5856 -1.91396e-11 0)
(42.577 -1.7144e-11 0)
(42.5681 -1.7071e-11 0)
(42.559 -1.79935e-11 0)
(42.5497 -1.92819e-11 0)
(42.5402 -1.83546e-11 0)
(42.5306 -1.85717e-11 0)
(42.5208 -1.85675e-11 0)
(42.5109 -1.87438e-11 0)
(42.5007 -1.88789e-11 0)
(42.4904 -1.9051e-11 0)
(42.4798 -1.87529e-11 0)
(42.4691 -2.02057e-11 0)
(42.458 -2.11395e-11 0)
(42.4467 -2.23172e-11 0)
(42.4351 -2.22387e-11 0)
(42.4231 -2.17124e-11 0)
(42.4107 -2.0898e-11 0)
(42.3979 -1.83935e-11 0)
(42.3846 -1.63805e-11 0)
(42.3708 -1.43135e-11 0)
(42.3564 -1.12826e-11 0)
(42.3415 -9.11928e-12 0)
(42.3259 -7.94244e-12 0)
(42.3096 -6.68033e-12 0)
(42.2927 -5.42885e-12 0)
(42.2751 -4.26914e-12 0)
(42.2568 -2.74931e-12 0)
(42.2377 -2.85412e-12 0)
(42.2179 -2.88798e-12 0)
(42.1974 -2.01807e-12 0)
(42.1762 -1.96216e-12 0)
(42.1542 -3.29252e-12 0)
(42.1316 -4.08807e-12 0)
(42.1083 -2.91173e-12 0)
(42.0844 -3.7006e-12 0)
(42.0598 -5.09947e-12 0)
(42.0347 -9.88354e-12 0)
(42.0089 -1.39512e-11 0)
(41.9827 -1.71067e-11 0)
(41.9558 -1.93478e-11 0)
(41.9285 -1.91415e-11 0)
(41.9007 -1.78593e-11 0)
(41.8724 -1.60156e-11 0)
(41.8436 -1.48326e-11 0)
(41.8143 -1.23057e-11 0)
(41.7846 -1.13527e-11 0)
(41.7543 -1.12925e-11 0)
(41.7235 -1.27289e-11 0)
(41.6922 -1.25155e-11 0)
(41.6602 -1.41831e-11 0)
(41.6277 -1.6431e-11 0)
(41.5945 -1.79363e-11 0)
(41.5607 -1.88305e-11 0)
(41.5261 -2.01303e-11 0)
(41.4908 -2.14177e-11 0)
(41.4547 -2.22701e-11 0)
(41.4178 -2.2566e-11 0)
(41.3799 -2.24735e-11 0)
(41.3412 -2.44731e-11 0)
(41.3016 -2.60464e-11 0)
(41.261 -2.89047e-11 0)
(41.2194 -3.04981e-11 0)
(41.1768 -3.20116e-11 0)
(41.1333 -3.12175e-11 0)
(41.0888 -3.0402e-11 0)
(41.0434 -3.03801e-11 0)
(40.9969 -2.82457e-11 0)
(40.9496 -2.6408e-11 0)
(40.9014 -2.53659e-11 0)
(40.8523 -2.32315e-11 0)
(40.8023 -2.22785e-11 0)
(40.7516 -2.19999e-11 0)
(40.7001 -2.11053e-11 0)
(40.6479 -1.97068e-11 0)
(40.595 -1.78662e-11 0)
(40.5414 -1.61838e-11 0)
(40.4872 -1.41652e-11 0)
(40.4324 -1.03178e-11 0)
(40.377 -8.42303e-12 0)
(40.321 -8.30948e-12 0)
(40.2645 -1.05401e-11 0)
(40.2073 -1.14516e-11 0)
(40.1495 -1.04184e-11 0)
(40.0911 -9.94018e-12 0)
(40.032 -1.11559e-11 0)
(39.9723 -1.25492e-11 0)
(39.9118 -1.5286e-11 0)
(39.8507 -1.96497e-11 0)
(39.7887 -2.03944e-11 0)
(39.7259 -1.40201e-11 0)
(39.6622 -7.9002e-12 0)
(39.5976 -6.29095e-12 0)
(39.532 -3.62078e-12 0)
(39.4655 -3.30576e-12 0)
(39.3979 3.06694e-12 0)
(39.3293 -3.91074e-13 0)
(39.2595 4.79722e-12 0)
(39.1886 -1.23144e-12 0)
(39.1166 9.49862e-12 0)
(39.0435 3.48201e-12 0)
(38.9692 1.9465e-11 0)
(38.8937 5.22056e-12 0)
(38.8171 2.28621e-11 0)
(38.7395 4.84388e-12 0)
(38.6607 2.33825e-11 0)
(38.581 7.11043e-12 0)
(38.5003 2.07111e-11 0)
(38.4186 7.67879e-12 0)
(38.3361 9.95202e-12 0)
(38.2527 6.24741e-12 0)
(38.1686 8.53684e-12 0)
(38.0837 7.41355e-12 0)
(37.9982 9.77052e-12 0)
(37.912 -8.19561e-12 0)
(37.8252 2.46908e-11 0)
(37.7377 -2.34821e-11 0)
(37.6497 3.53336e-11 0)
(37.5611 -3.31028e-11 0)
(37.4719 1.47729e-11 0)
(37.382 -2.31748e-11 0)
(37.2916 -2.72227e-12 0)
(37.2004 -9.46717e-12 0)
(37.1086 -2.23245e-11 0)
(37.0161 -1.73719e-12 0)
(36.9229 1.70838e-11 0)
(36.8288 -9.1557e-11 0)
(36.734 8.39582e-11 0)
(36.6383 -5.29699e-11 0)
(36.5418 -1.19595e-11 0)
(36.4443 5.62607e-12 0)
(36.346 2.9497e-11 0)
(36.2466 -6.45697e-11 0)
(36.1462 4.10369e-11 0)
(36.0448 -4.30086e-11 0)
(35.9422 5.58869e-11 0)
(35.8386 -2.06446e-11 0)
(35.7337 1.32743e-10 0)
(35.6277 -6.8209e-11 0)
(35.5205 -1.21222e-10 0)
(35.4121 -1.27098e-10 0)
(35.3024 3.64599e-10 0)
(35.1916 9.33868e-11 0)
(35.0795 4.49112e-11 0)
(34.9664 -6.01072e-10 0)
(34.8521 5.58975e-10 0)
(34.7368 -3.42229e-10 0)
(34.6204 4.7634e-10 0)
(34.5032 -7.84757e-10 0)
(34.3851 6.96278e-10 0)
(34.2662 -3.63703e-10 0)
(34.1466 7.99173e-10 0)
(34.0264 -1.34088e-09 0)
(33.9056 1.1465e-09 0)
(33.7842 -1.73341e-09 0)
(33.6624 2.83886e-09 0)
(33.5401 -3.21493e-09 0)
(33.4174 4.37821e-09 0)
(33.2942 -6.22419e-09 0)
(33.1705 8.14053e-09 0)
(33.0463 -1.09572e-08 0)
(32.9216 1.58476e-08 0)
(32.7964 -2.39532e-08 0)
(32.6705 3.90373e-08 0)
(32.5441 -6.23085e-08 0)
(32.417 1.10494e-07 0)
(32.2893 -1.67073e-07 0)
(32.1609 2.96225e-07 0)
(32.0318 -3.57205e-07 0)
(31.902 6.05614e-07 0)
(31.7716 -6.19962e-07 0)
(31.6404 9.29229e-07 0)
(31.5086 -8.60228e-07 0)
(31.3762 2.33001e-06 0)
(31.2431 5.89542e-06 0)
(31.1094 5.18673e-05 0)
(30.975 0.000342351 0)
(30.8399 0.00236441 0)
(30.7031 0.0160852 0)
(30.5587 0.110683 0)
(30.3123 0.464448 0)
(42.6985 -0.000128194 0)
(42.6948 -9.86543e-05 0)
(42.6905 -8.62282e-05 0)
(42.6863 -8.54535e-05 0)
(42.682 -8.53313e-05 0)
(42.6776 -8.49285e-05 0)
(42.6729 -8.46351e-05 0)
(42.668 -8.44529e-05 0)
(42.6628 -8.43206e-05 0)
(42.6573 -8.4219e-05 0)
(42.6516 -8.41417e-05 0)
(42.6455 -8.40826e-05 0)
(42.639 -8.40384e-05 0)
(42.6323 -8.4005e-05 0)
(42.6252 -8.39795e-05 0)
(42.6179 -8.39619e-05 0)
(42.6102 -8.39493e-05 0)
(42.6023 -8.3941e-05 0)
(42.5941 -8.39362e-05 0)
(42.5857 -8.39343e-05 0)
(42.577 -8.39348e-05 0)
(42.5681 -8.39371e-05 0)
(42.559 -8.39409e-05 0)
(42.5497 -8.39462e-05 0)
(42.5403 -8.3953e-05 0)
(42.5306 -8.3961e-05 0)
(42.5208 -8.39704e-05 0)
(42.5109 -8.39812e-05 0)
(42.5007 -8.39936e-05 0)
(42.4904 -8.40078e-05 0)
(42.4798 -8.4024e-05 0)
(42.4691 -8.40426e-05 0)
(42.4581 -8.40636e-05 0)
(42.4467 -8.40872e-05 0)
(42.4351 -8.41134e-05 0)
(42.4231 -8.41423e-05 0)
(42.4107 -8.41742e-05 0)
(42.3979 -8.42081e-05 0)
(42.3846 -8.42458e-05 0)
(42.3708 -8.42867e-05 0)
(42.3564 -8.43312e-05 0)
(42.3415 -8.43814e-05 0)
(42.3259 -8.44253e-05 0)
(42.3096 -8.4477e-05 0)
(42.2927 -8.45327e-05 0)
(42.2751 -8.45847e-05 0)
(42.2568 -8.46394e-05 0)
(42.2377 -8.46961e-05 0)
(42.2179 -8.47538e-05 0)
(42.1974 -8.48116e-05 0)
(42.1762 -8.48691e-05 0)
(42.1542 -8.49256e-05 0)
(42.1316 -8.49786e-05 0)
(42.1083 -8.50282e-05 0)
(42.0843 -8.50696e-05 0)
(42.0598 -8.51066e-05 0)
(42.0346 -8.51147e-05 0)
(42.0089 -8.51138e-05 0)
(41.9826 -8.50769e-05 0)
(41.9558 -8.50025e-05 0)
(41.9285 -8.4876e-05 0)
(41.9006 -8.46862e-05 0)
(41.8723 -8.4418e-05 0)
(41.8435 -8.40539e-05 0)
(41.8143 -8.35745e-05 0)
(41.7845 -8.29587e-05 0)
(41.7542 -8.21858e-05 0)
(41.7234 -8.12326e-05 0)
(41.6921 -8.00788e-05 0)
(41.6602 -7.8705e-05 0)
(41.6276 -7.70945e-05 0)
(41.5945 -7.52351e-05 0)
(41.5606 -7.31195e-05 0)
(41.5261 -7.07463e-05 0)
(41.4907 -6.81205e-05 0)
(41.4546 -6.5254e-05 0)
(41.4177 -6.21658e-05 0)
(41.3799 -5.88815e-05 0)
(41.3411 -5.54327e-05 0)
(41.3015 -5.18559e-05 0)
(41.2609 -4.81918e-05 0)
(41.2193 -4.44832e-05 0)
(41.1768 -4.07741e-05 0)
(41.1333 -3.71079e-05 0)
(41.0888 -3.35258e-05 0)
(41.0433 -3.00656e-05 0)
(40.9969 -2.67608e-05 0)
(40.9495 -2.36395e-05 0)
(40.9013 -2.07237e-05 0)
(40.8522 -1.80293e-05 0)
(40.8023 -1.55662e-05 0)
(40.7515 -1.33382e-05 0)
(40.7001 -1.13437e-05 0)
(40.6478 -9.57669e-06 0)
(40.5949 -8.02692e-06 0)
(40.5414 -6.68122e-06 0)
(40.4872 -5.52409e-06 0)
(40.4324 -4.53857e-06 0)
(40.377 -3.70704e-06 0)
(40.321 -3.01187e-06 0)
(40.2644 -2.43605e-06 0)
(40.2072 -1.96356e-06 0)
(40.1495 -1.57958e-06 0)
(40.091 -1.2707e-06 0)
(40.032 -1.02496e-06 0)
(39.9722 -8.31858e-07 0)
(39.9118 -6.82246e-07 0)
(39.8506 -5.68314e-07 0)
(39.7886 -4.8336e-07 0)
(39.7258 -4.21708e-07 0)
(39.6621 -3.78645e-07 0)
(39.5975 -3.50202e-07 0)
(39.532 -3.33181e-07 0)
(39.4654 -3.25011e-07 0)
(39.3979 -3.23662e-07 0)
(39.3292 -3.27452e-07 0)
(39.2595 -3.34997e-07 0)
(39.1886 -3.45212e-07 0)
(39.1166 -3.57231e-07 0)
(39.0434 -3.70399e-07 0)
(38.9691 -3.84125e-07 0)
(38.8937 -3.979e-07 0)
(38.8171 -4.11202e-07 0)
(38.7394 -4.23694e-07 0)
(38.6607 -4.35083e-07 0)
(38.581 -4.45274e-07 0)
(38.5002 -4.54091e-07 0)
(38.4186 -4.61443e-07 0)
(38.336 -4.67192e-07 0)
(38.2527 -4.71363e-07 0)
(38.1685 -4.74002e-07 0)
(38.0837 -4.75285e-07 0)
(37.9981 -4.75421e-07 0)
(37.9119 -4.74671e-07 0)
(37.8251 -4.73201e-07 0)
(37.7377 -4.71339e-07 0)
(37.6497 -4.69076e-07 0)
(37.5611 -4.66865e-07 0)
(37.4718 -4.64681e-07 0)
(37.382 -4.62954e-07 0)
(37.2915 -4.61695e-07 0)
(37.2004 -4.61118e-07 0)
(37.1086 -4.61259e-07 0)
(37.0161 -4.62199e-07 0)
(36.9228 -4.64013e-07 0)
(36.8288 -4.66847e-07 0)
(36.7339 -4.70293e-07 0)
(36.6383 -4.74814e-07 0)
(36.5417 -4.79969e-07 0)
(36.4443 -4.85972e-07 0)
(36.3459 -4.92846e-07 0)
(36.2465 -5.00713e-07 0)
(36.1462 -5.0925e-07 0)
(36.0447 -5.18856e-07 0)
(35.9422 -5.28906e-07 0)
(35.8385 -5.39786e-07 0)
(35.7337 -5.50843e-07 0)
(35.6277 -5.62597e-07 0)
(35.5204 -5.74483e-07 0)
(35.412 -5.86286e-07 0)
(35.3024 -5.97294e-07 0)
(35.1915 -6.08351e-07 0)
(35.0795 -6.18314e-07 0)
(34.9663 -6.27595e-07 0)
(34.852 -6.33754e-07 0)
(34.7367 -6.40275e-07 0)
(34.6204 -6.43418e-07 0)
(34.5032 -6.46681e-07 0)
(34.3851 -6.45277e-07 0)
(34.2662 -6.44329e-07 0)
(34.1466 -6.38842e-07 0)
(34.0264 -6.34932e-07 0)
(33.9055 -6.24988e-07 0)
(33.7842 -6.18633e-07 0)
(33.6624 -6.04727e-07 0)
(33.5401 -5.99241e-07 0)
(33.4173 -5.81696e-07 0)
(33.2941 -5.79524e-07 0)
(33.1704 -5.56338e-07 0)
(33.0463 -5.6244e-07 0)
(32.9216 -5.30633e-07 0)
(32.7963 -5.56066e-07 0)
(32.6705 -4.94531e-07 0)
(32.544 -5.73841e-07 0)
(32.417 -4.21628e-07 0)
(32.2892 -6.48945e-07 0)
(32.1608 -2.53887e-07 0)
(32.0317 -7.99099e-07 0)
(31.902 1.69925e-08 0)
(31.7715 -1.00635e-06 0)
(31.6404 2.75076e-07 0)
(31.5086 -1.09134e-06 0)
(31.3761 1.07463e-06 0)
(31.2431 3.446e-06 0)
(31.1095 3.34448e-05 0)
(30.9759 0.000225577 0)
(30.8461 0.00157476 0)
(30.747 0.0110028 0)
(30.7316 0.0909348 0)
(32.4168 0.349532 0)
(42.6967 -0.000101089 0)
(42.6912 -9.24584e-05 0)
(42.6851 -8.99933e-05 0)
(42.6791 -9.08498e-05 0)
(42.6731 -9.15469e-05 0)
(42.6669 -9.19592e-05 0)
(42.6604 -9.22687e-05 0)
(42.6537 -9.25146e-05 0)
(42.6467 -9.27035e-05 0)
(42.6395 -9.2848e-05 0)
(42.6319 -9.29596e-05 0)
(42.624 -9.30467e-05 0)
(42.6158 -9.3115e-05 0)
(42.6073 -9.31682e-05 0)
(42.5984 -9.3209e-05 0)
(42.5893 -9.32418e-05 0)
(42.5799 -9.32675e-05 0)
(42.5701 -9.32878e-05 0)
(42.5601 -9.33038e-05 0)
(42.5499 -9.33164e-05 0)
(42.5394 -9.33265e-05 0)
(42.5288 -9.33346e-05 0)
(42.5179 -9.33411e-05 0)
(42.5068 -9.33465e-05 0)
(42.4956 -9.33514e-05 0)
(42.4842 -9.3356e-05 0)
(42.4726 -9.33607e-05 0)
(42.4608 -9.33658e-05 0)
(42.4489 -9.33717e-05 0)
(42.4368 -9.33788e-05 0)
(42.4244 -9.33874e-05 0)
(42.4119 -9.33979e-05 0)
(42.3991 -9.34105e-05 0)
(42.386 -9.34256e-05 0)
(42.3725 -9.3443e-05 0)
(42.3588 -9.34628e-05 0)
(42.3446 -9.3486e-05 0)
(42.33 -9.35119e-05 0)
(42.3149 -9.35414e-05 0)
(42.2993 -9.3573e-05 0)
(42.2831 -9.36073e-05 0)
(42.2663 -9.36473e-05 0)
(42.249 -9.36813e-05 0)
(42.2309 -9.37213e-05 0)
(42.2122 -9.37667e-05 0)
(42.1928 -9.38109e-05 0)
(42.1727 -9.38559e-05 0)
(42.1518 -9.39021e-05 0)
(42.1302 -9.39491e-05 0)
(42.1079 -9.39961e-05 0)
(42.0849 -9.40431e-05 0)
(42.0611 -9.40891e-05 0)
(42.0367 -9.41314e-05 0)
(42.0116 -9.41691e-05 0)
(41.9858 -9.41987e-05 0)
(41.9595 -9.42214e-05 0)
(41.9325 -9.42164e-05 0)
(41.905 -9.41971e-05 0)
(41.8769 -9.41421e-05 0)
(41.8483 -9.40458e-05 0)
(41.8191 -9.38947e-05 0)
(41.7895 -9.36747e-05 0)
(41.7594 -9.33693e-05 0)
(41.7289 -9.29597e-05 0)
(41.6978 -9.24246e-05 0)
(41.6663 -9.17412e-05 0)
(41.6342 -9.0886e-05 0)
(41.6017 -8.98346e-05 0)
(41.5687 -8.85641e-05 0)
(41.5351 -8.70531e-05 0)
(41.5009 -8.52832e-05 0)
(41.4661 -8.32404e-05 0)
(41.4307 -8.0916e-05 0)
(41.3946 -7.83079e-05 0)
(41.3578 -7.54207e-05 0)
(41.3203 -7.22667e-05 0)
(41.282 -6.8866e-05 0)
(41.2429 -6.52459e-05 0)
(41.2029 -6.14405e-05 0)
(41.1621 -5.74896e-05 0)
(41.1205 -5.34375e-05 0)
(41.0779 -4.93313e-05 0)
(41.0345 -4.52195e-05 0)
(40.9901 -4.11499e-05 0)
(40.9449 -3.71686e-05 0)
(40.8988 -3.33179e-05 0)
(40.8518 -2.96353e-05 0)
(40.8039 -2.61527e-05 0)
(40.7552 -2.28954e-05 0)
(40.7057 -1.98819e-05 0)
(40.6554 -1.7124e-05 0)
(40.6044 -1.4627e-05 0)
(40.5526 -1.23902e-05 0)
(40.5002 -1.04076e-05 0)
(40.4472 -8.66883e-06 0)
(40.3935 -7.15995e-06 0)
(40.3391 -5.86442e-06 0)
(40.2842 -4.76393e-06 0)
(40.2288 -3.83913e-06 0)
(40.1727 -3.07047e-06 0)
(40.1161 -2.43864e-06 0)
(40.0589 -1.9251e-06 0)
(40.0011 -1.51244e-06 0)
(39.9427 -1.18468e-06 0)
(39.8836 -9.27489e-07 0)
(39.8238 -7.28265e-07 0)
(39.7634 -5.76083e-07 0)
(39.7022 -4.61611e-07 0)
(39.6402 -3.77054e-07 0)
(39.5774 -3.15969e-07 0)
(39.5138 -2.73092e-07 0)
(39.4492 -2.44183e-07 0)
(39.3836 -2.25908e-07 0)
(39.3171 -2.15708e-07 0)
(39.2495 -2.11617e-07 0)
(39.1809 -2.1209e-07 0)
(39.1111 -2.15909e-07 0)
(39.0403 -2.22145e-07 0)
(38.9683 -2.30101e-07 0)
(38.8951 -2.39241e-07 0)
(38.8208 -2.49137e-07 0)
(38.7454 -2.59378e-07 0)
(38.6689 -2.69599e-07 0)
(38.5912 -2.79515e-07 0)
(38.5125 -2.88949e-07 0)
(38.4327 -2.97777e-07 0)
(38.352 -3.05906e-07 0)
(38.2704 -3.13203e-07 0)
(38.1878 -3.19561e-07 0)
(38.1045 -3.24936e-07 0)
(38.0204 -3.29326e-07 0)
(37.9355 -3.32802e-07 0)
(37.85 -3.35475e-07 0)
(37.7638 -3.37473e-07 0)
(37.677 -3.38892e-07 0)
(37.5896 -3.39852e-07 0)
(37.5016 -3.404e-07 0)
(37.413 -3.40691e-07 0)
(37.3238 -3.40829e-07 0)
(37.2339 -3.4098e-07 0)
(37.1435 -3.41233e-07 0)
(37.0524 -3.41682e-07 0)
(36.9606 -3.42395e-07 0)
(36.8681 -3.4345e-07 0)
(36.7748 -3.44905e-07 0)
(36.6808 -3.46828e-07 0)
(36.586 -3.4917e-07 0)
(36.4903 -3.51949e-07 0)
(36.3938 -3.55123e-07 0)
(36.2964 -3.58769e-07 0)
(36.198 -3.62946e-07 0)
(36.0987 -3.67692e-07 0)
(35.9983 -3.72974e-07 0)
(35.8969 -3.78831e-07 0)
(35.7943 -3.85152e-07 0)
(35.6907 -3.91928e-07 0)
(35.5859 -3.99035e-07 0)
(35.4799 -4.06528e-07 0)
(35.3727 -4.14284e-07 0)
(35.2642 -4.22178e-07 0)
(35.1546 -4.30013e-07 0)
(35.0438 -4.37691e-07 0)
(34.9318 -4.44942e-07 0)
(34.8186 -4.51645e-07 0)
(34.7043 -4.57433e-07 0)
(34.589 -4.62576e-07 0)
(34.4727 -4.66644e-07 0)
(34.3555 -4.69831e-07 0)
(34.2374 -4.71505e-07 0)
(34.1186 -4.72122e-07 0)
(33.999 -4.71158e-07 0)
(33.8788 -4.69323e-07 0)
(33.758 -4.65893e-07 0)
(33.6366 -4.6211e-07 0)
(33.5148 -4.56705e-07 0)
(33.3925 -4.51676e-07 0)
(33.2698 -4.44615e-07 0)
(33.1466 -4.39119e-07 0)
(33.023 -4.30841e-07 0)
(32.8988 -4.26247e-07 0)
(32.7741 -4.1698e-07 0)
(32.6489 -4.15194e-07 0)
(32.5231 -4.02514e-07 0)
(32.3967 -4.08392e-07 0)
(32.2696 -3.84412e-07 0)
(32.1419 -4.12264e-07 0)
(32.0135 -3.61442e-07 0)
(31.8844 -4.40469e-07 0)
(31.7547 -3.39718e-07 0)
(31.6243 -5.04637e-07 0)
(31.4931 -2.90769e-07 0)
(31.3614 -5.37315e-07 0)
(31.2289 -1.68003e-07 0)
(31.0959 7.42331e-08 0)
(30.9623 4.62323e-06 0)
(30.8288 3.26464e-05 0)
(30.6992 0.000234704 0)
(30.6029 0.00183784 0)
(30.6019 0.0283708 0)
(33.9012 0.104536 0)
(27.2995 0.953644 -3.29741e-15)
(26.5262 2.72933 6.60913e-15)
(26.2055 4.71666 -1.23924e-14)
(25.8777 6.70628 2.56082e-14)
(25.3492 8.65741 -2.64309e-14)
(24.6153 10.5488 -1.65184e-15)
(23.8457 12.434 -9.11108e-20)
(23.3116 14.512 -2.30234e-14)
(22.9997 16.9121 -1.06426e-13)
(22.4253 19.3671 1.04511e-13)
(21.1432 21.2646 -2.61301e-14)
(19.217 22.4193 -5.3936e-14)
(16.9716 23.0278 2.78532e-14)
(14.5895 23.213 0)
(12.275 23.4081 2.64245e-14)
(10.4784 24.701 2.63305e-14)
(9.15557 27.8563 -2.60089e-14)
(7.76857 32.4548 2.56106e-14)
(5.83529 37.4773 1.97086e-16)
(3.32402 42.4429 -1.94306e-16)
(28.3064 1.45281 0)
(27.8597 3.57879 0)
(27.5434 5.91451 -1.68117e-15)
(27.1347 8.24265 -3.35996e-15)
(26.4946 10.5492 8.39536e-15)
(25.6089 12.7809 1.67841e-14)
(24.7142 14.8285 0)
(24.118 16.8716 1.0004e-14)
(23.7065 19.3166 1.65844e-14)
(22.7751 22.2967 -3.96922e-14)
(20.8828 24.9892 2.64906e-14)
(18.319 26.7369 1.32327e-14)
(15.3849 27.752 -1.32428e-14)
(12.3894 27.9858 1.32835e-14)
(9.90843 27.5145 0)
(9.02226 27.2456 -1.67079e-15)
(8.70086 28.7485 1.65104e-15)
(7.70143 32.0186 -5.69998e-15)
(5.52721 36.3348 -8.0302e-16)
(2.36848 41.0146 0)
(30.2456 0.970247 -4.34308e-17)
(30.2396 1.57285 -2.20682e-14)
(30.3322 2.19171 2.24161e-14)
(30.5025 2.82947 -2.15496e-14)
(30.7142 3.53988 -2.36418e-14)
(30.9406 4.38617 8.79938e-14)
(31.1314 5.41035 -4.45391e-14)
(31.2281 6.58016 4.31752e-14)
(31.2546 7.78827 -8.7835e-14)
(31.3301 8.97616 1.39766e-15)
(31.4932 10.2694 4.33205e-14)
(31.5613 11.8569 0)
(31.3708 13.7406 -4.33278e-14)
(30.8049 15.8781 4.33227e-14)
(29.7302 18.198 -3.49297e-16)
(27.9295 20.5316 0)
(25.6222 22.5401 3.49853e-16)
(23.5194 24.0259 0)
(22.2667 25.1116 0)
(22.0484 26.0958 0)
(32.6389 1.80918 6.82243e-16)
(32.349 4.25022 -6.84131e-15)
(31.662 7.15136 -1.37006e-15)
(30.9058 10.0946 2.73389e-15)
(30.2182 12.9969 -2.72396e-15)
(29.5035 15.8548 -1.55417e-19)
(28.6413 18.6513 -1.08051e-14)
(27.5867 21.374 0)
(26.3152 24.0113 0)
(24.8129 26.5485 -5.33442e-15)
(23.0775 28.9676 5.31348e-15)
(21.103 31.2289 0)
(18.9116 33.3142 -5.27523e-15)
(16.5322 35.2209 5.26021e-15)
(13.9665 36.9102 -5.24513e-15)
(11.2445 38.3648 1.04609e-14)
(8.39189 39.5804 -5.21839e-15)
(5.42878 40.555 0)
(2.40155 41.2841 -2.59798e-15)
(-0.503212 41.7979 0)
(34.8109 1.33771 -1.04766e-15)
(35.4138 3.41741 8.03219e-15)
(35.2092 5.88655 5.58555e-15)
(34.6906 8.45668 1.11554e-14)
(34.167 11.1025 0)
(33.6155 13.8157 0)
(32.9254 16.5758 1.10629e-14)
(32.0418 19.348 2.75564e-15)
(30.9372 22.0993 -5.49173e-15)
(29.5968 24.795 2.73638e-15)
(28.0102 27.403 2.1817e-14)
(26.1712 29.8762 -1.35962e-14)
(24.0768 32.2044 1.35588e-14)
(21.7597 34.3584 -2.70463e-15)
(19.2228 36.305 -1.07948e-14)
(16.4874 38.0242 -1.88564e-14)
(13.5862 39.4847 -9.4133e-15)
(10.5743 40.6171 -1.34402e-15)
(7.52204 41.2725 7.73043e-15)
(4.6075 41.1879 3.36614e-16)
(1.22844 44.571 0)
(1.02201 41.0993 0)
(0.762999 41.7416 0)
(0.761185 44.224 0)
(0.88596 45.1593 0)
(0.929017 44.8076 0)
(0.919619 44.5913 0)
(0.906239 44.927 0)
(0.939883 45.266 0)
(0.979533 45.2427 0)
(0.988899 45.1005 0)
(0.986522 45.1117 0)
(0.994898 45.2129 0)
(1.01584 45.2257 0)
(1.03379 45.108 0)
(1.04276 44.9572 0)
(1.04453 44.8555 0)
(1.04824 44.7935 0)
(1.0565 44.7146 0)
(1.06478 44.588 0)
(1.07074 44.4323 0)
(1.0745 44.2761 0)
(1.07649 44.1306 0)
(1.07751 44.0015 0)
(1.07896 43.8796 0)
(1.08038 43.7498 0)
(1.08134 43.6141 0)
(1.08191 43.4757 0)
(1.08204 43.3348 0)
(1.0813 43.1946 0)
(1.07815 43.0731 0)
(1.07561 42.9785 0)
(1.07645 42.8828 0)
(1.07804 42.7601 0)
(1.07853 42.6177 0)
(1.0781 42.4725 0)
(1.07719 42.3286 0)
(1.07605 42.1851 0)
(1.07477 42.0418 0)
(1.07339 41.8986 0)
(1.07194 41.7558 0)
(1.07042 41.6134 0)
(1.06882 41.4716 0)
(1.06712 41.3304 0)
(1.06531 41.1899 0)
(1.06339 41.0502 0)
(1.06135 40.911 0)
(1.0592 40.7723 0)
(1.05697 40.6339 0)
(1.05467 40.4955 0)
(1.05235 40.3568 0)
(1.05002 40.2176 0)
(1.04773 40.0776 0)
(1.0455 39.9367 0)
(1.04335 39.7946 0)
(1.0413 39.6513 0)
(1.03935 39.5069 0)
(1.03751 39.3612 0)
(1.03578 39.2146 0)
(1.03415 39.0671 0)
(1.03259 38.919 0)
(1.03109 38.7705 0)
(1.02962 38.6219 0)
(1.02814 38.4733 0)
(1.02662 38.3251 0)
(1.02503 38.1774 0)
(1.02331 38.0302 0)
(1.02144 37.8838 0)
(1.01937 37.738 0)
(1.01703 37.593 0)
(1.01436 37.4487 0)
(1.01128 37.305 0)
(1.00769 37.1616 0)
(1.00346 37.0184 0)
(0.998439 36.8749 0)
(0.992473 36.7305 0)
(0.985379 36.5844 0)
(0.976962 36.4355 0)
(0.967021 36.2822 0)
(0.955358 36.1218 0)
(0.94178 35.9506 0)
(0.926034 35.7639 0)
(0.907411 35.56 0)
(0.881978 35.3603 0)
(0.839964 35.2995 0)
(0.798912 35.4554 0)
(0.778756 35.6118 0)
(0.767768 35.5588 0)
(0.746992 35.337 0)
(0.717462 35.0663 0)
(0.682788 34.7847 0)
(0.645089 34.4903 0)
(0.605572 34.1813 0)
(0.565092 33.8564 0)
(0.524325 33.5153 0)
(0.483839 33.1585 0)
(0.444128 32.7873 0)
(0.405601 32.4032 0)
(0.368591 32.0062 0)