/*--------------------------------*- C++ -*----------------------------------*\
| =========                 |                                                 |
| \\      /  F ield         | OpenFOAM: The Open Source CFD Toolbox           |
|  \\    /   O peration     | Version:  3.0.x                                 |
|   \\  /    A nd           | Web:      www.OpenFOAM.org                      |
|    \\/     M anipulation  |                                                 |
\*---------------------------------------------------------------------------*/
FoamFile
{
    version     2.0;
    format      ascii;
    class       volScalarField;
    location    "0.33";
    object      T;
}
// * * * * * * * * * * * * * * * * * * * * * * * * * * * * * * * * * * * * * //

dimensions      [0 0 0 1 0 0 0];

internalField   nonuniform List<scalar> 
6900
(
774.445
774.445
774.445
774.445
774.444
774.444
774.444
774.444
774.444
774.444
774.444
774.443
774.443
774.44
774.437
774.434
774.432
774.43
774.428
774.428
774.427
774.427
774.427
774.426
774.424
774.422
774.419
774.416
774.413
774.409
774.406
774.403
774.4
774.398
774.397
774.396
774.396
774.395
774.394
774.392
774.39
774.387
774.384
774.382
774.38
774.378
774.377
774.376
774.375
774.375
774.374
774.374
774.374
774.374
774.374
774.374
774.374
774.374
774.374
774.374
774.374
774.374
774.375
774.375
774.375
774.375
774.376
774.376
774.376
774.376
774.377
774.377
774.377
774.377
774.377
774.377
774.377
774.377
774.377
774.377
774.377
774.377
774.377
774.377
774.377
774.377
774.376
774.376
774.376
774.376
774.376
774.376
774.376
774.376
774.376
774.376
774.376
774.376
774.376
774.376
774.377
774.377
774.377
774.378
774.378
774.378
774.379
774.379
774.379
774.379
774.379
774.379
774.379
774.379
774.379
774.379
774.379
774.379
774.378
774.378
774.378
774.377
774.377
774.377
774.377
774.376
774.376
774.376
774.376
774.376
774.375
774.376
774.376
774.376
774.376
774.376
774.377
774.377
774.377
774.378
774.378
774.378
774.379
774.379
774.379
774.38
774.38
774.38
774.38
774.379
774.379
774.379
774.378
774.378
774.378
774.377
774.376
774.376
774.375
774.375
774.374
774.374
774.373
774.373
774.372
774.372
774.372
774.371
774.371
774.371
774.371
774.372
774.372
774.372
774.372
774.373
774.373
774.373
774.374
774.374
774.374
774.373
774.373
774.372
774.372
774.371
774.37
774.369
774.367
774.366
774.365
774.363
774.362
774.36
774.359
774.358
774.355
774.355
774.354
774.424
774.442
774.442
774.442
774.442
774.442
774.442
774.442
774.442
774.442
774.442
774.441
774.441
774.44
774.438
774.435
774.432
774.429
774.427
774.426
774.426
774.425
774.425
774.425
774.424
774.422
774.42
774.417
774.414
774.411
774.407
774.404
774.401
774.398
774.396
774.395
774.394
774.394
774.393
774.393
774.391
774.388
774.386
774.383
774.38
774.378
774.376
774.375
774.374
774.373
774.373
774.373
774.373
774.372
774.372
774.372
774.372
774.372
774.372
774.372
774.372
774.373
774.373
774.373
774.373
774.373
774.374
774.374
774.374
774.375
774.375
774.375
774.375
774.375
774.376
774.376
774.376
774.376
774.376
774.376
774.376
774.376
774.376
774.375
774.375
774.375
774.375
774.375
774.375
774.374
774.374
774.374
774.374
774.374
774.374
774.374
774.374
774.374
774.374
774.375
774.375
774.375
774.375
774.376
774.376
774.376
774.377
774.377
774.377
774.377
774.378
774.378
774.378
774.378
774.378
774.378
774.378
774.377
774.377
774.377
774.377
774.376
774.376
774.376
774.375
774.375
774.375
774.374
774.374
774.374
774.374
774.374
774.374
774.374
774.374
774.374
774.375
774.375
774.375
774.376
774.376
774.377
774.377
774.377
774.378
774.378
774.378
774.378
774.378
774.378
774.378
774.378
774.377
774.377
774.377
774.376
774.375
774.375
774.374
774.374
774.373
774.373
774.372
774.372
774.371
774.371
774.37
774.37
774.37
774.37
774.37
774.37
774.37
774.37
774.371
774.371
774.371
774.372
774.372
774.372
774.372
774.372
774.372
774.371
774.371
774.37
774.369
774.368
774.367
774.366
774.365
774.363
774.362
774.36
774.359
774.357
774.356
774.354
774.354
774.353
774.417
774.442
774.442
774.442
774.442
774.442
774.442
774.442
774.442
774.442
774.442
774.442
774.441
774.44
774.438
774.435
774.432
774.429
774.427
774.426
774.426
774.425
774.425
774.425
774.424
774.422
774.42
774.417
774.414
774.411
774.407
774.404
774.401
774.398
774.396
774.395
774.394
774.394
774.394
774.393
774.391
774.388
774.386
774.383
774.38
774.378
774.376
774.375
774.374
774.373
774.373
774.373
774.373
774.372
774.372
774.372
774.372
774.372
774.372
774.372
774.372
774.373
774.373
774.373
774.373
774.373
774.374
774.374
774.374
774.375
774.375
774.375
774.375
774.375
774.376
774.376
774.376
774.376
774.376
774.376
774.376
774.376
774.376
774.375
774.375
774.375
774.375
774.375
774.375
774.374
774.374
774.374
774.374
774.374
774.374
774.374
774.374
774.374
774.374
774.375
774.375
774.375
774.375
774.376
774.376
774.376
774.377
774.377
774.377
774.377
774.378
774.378
774.378
774.378
774.378
774.378
774.378
774.377
774.377
774.377
774.377
774.376
774.376
774.376
774.375
774.375
774.375
774.374
774.374
774.374
774.374
774.374
774.374
774.374
774.374
774.374
774.375
774.375
774.375
774.376
774.376
774.377
774.377
774.377
774.378
774.378
774.378
774.378
774.378
774.378
774.378
774.378
774.377
774.377
774.377
774.376
774.375
774.375
774.374
774.374
774.373
774.373
774.372
774.372
774.371
774.371
774.37
774.37
774.37
774.37
774.37
774.37
774.37
774.37
774.371
774.371
774.371
774.372
774.372
774.372
774.372
774.372
774.372
774.371
774.371
774.37
774.369
774.368
774.367
774.366
774.365
774.363
774.362
774.36
774.359
774.357
774.356
774.354
774.353
774.351
774.354
774.442
774.442
774.442
774.442
774.442
774.442
774.442
774.442
774.442
774.442
774.441
774.441
774.44
774.438
774.435
774.432
774.429
774.427
774.426
774.426
774.425
774.425
774.425
774.424
774.422
774.42
774.417
774.414
774.411
774.407
774.404
774.401
774.398
774.396
774.395
774.394
774.394
774.393
774.393
774.391
774.388
774.386
774.383
774.38
774.378
774.376
774.375
774.374
774.373
774.373
774.373
774.373
774.372
774.372
774.372
774.372
774.372
774.372
774.372
774.372
774.373
774.373
774.373
774.373
774.373
774.374
774.374
774.374
774.375
774.375
774.375
774.375
774.375
774.376
774.376
774.376
774.376
774.376
774.376
774.376
774.376
774.376
774.375
774.375
774.375
774.375
774.375
774.375
774.374
774.374
774.374
774.374
774.374
774.374
774.374
774.374
774.374
774.374
774.375
774.375
774.375
774.375
774.376
774.376
774.376
774.377
774.377
774.377
774.377
774.378
774.378
774.378
774.378
774.378
774.378
774.378
774.377
774.377
774.377
774.377
774.376
774.376
774.376
774.375
774.375
774.375
774.374
774.374
774.374
774.374
774.374
774.374
774.374
774.374
774.374
774.375
774.375
774.375
774.376
774.376
774.377
774.377
774.377
774.378
774.378
774.378
774.378
774.378
774.378
774.378
774.378
774.377
774.377
774.377
774.376
774.375
774.375
774.374
774.374
774.373
774.373
774.372
774.372
774.371
774.371
774.37
774.37
774.37
774.37
774.37
774.37
774.37
774.37
774.371
774.371
774.371
774.372
774.372
774.372
774.372
774.372
774.372
774.372
774.371
774.37
774.369
774.368
774.367
774.366
774.364
774.363
774.362
774.36
774.359
774.358
774.356
774.355
774.35
774.354
774.223
774.445
774.445
774.445
774.445
774.444
774.444
774.444
774.444
774.444
774.444
774.444
774.443
774.443
774.44
774.437
774.434
774.432
774.43
774.428
774.428
774.427
774.427
774.427
774.426
774.424
774.422
774.419
774.416
774.413
774.409
774.406
774.403
774.4
774.398
774.397
774.396
774.396
774.395
774.394
774.392
774.39
774.387
774.384
774.382
774.38
774.378
774.377
774.376
774.375
774.375
774.374
774.374
774.374
774.374
774.374
774.374
774.374
774.374
774.374
774.374
774.374
774.374
774.375
774.375
774.375
774.375
774.376
774.376
774.376
774.376
774.377
774.377
774.377
774.377
774.377
774.377
774.377
774.377
774.377
774.377
774.377
774.377
774.377
774.377
774.377
774.377
774.376
774.376
774.376
774.376
774.376
774.376
774.376
774.376
774.376
774.376
774.376
774.376
774.376
774.376
774.377
774.377
774.377
774.378
774.378
774.378
774.379
774.379
774.379
774.379
774.379
774.379
774.379
774.379
774.379
774.379
774.379
774.379
774.378
774.378
774.378
774.377
774.377
774.377
774.377
774.376
774.376
774.376
774.376
774.376
774.375
774.376
774.376
774.376
774.376
774.376
774.377
774.377
774.377
774.378
774.378
774.378
774.379
774.379
774.379
774.38
774.38
774.38
774.38
774.379
774.379
774.379
774.378
774.378
774.378
774.377
774.376
774.376
774.375
774.375
774.374
774.374
774.373
774.373
774.372
774.372
774.372
774.371
774.371
774.371
774.371
774.372
774.372
774.372
774.372
774.373
774.373
774.373
774.374
774.374
774.374
774.373
774.373
774.372
774.372
774.371
774.37
774.369
774.367
774.366
774.365
774.363
774.362
774.36
774.359
774.357
774.356
774.35
774.363
774.134
774.407
774.42
774.419
774.418
774.416
774.415
774.412
774.406
774.397
774.382
774.362
774.355
774.36
774.374
774.381
774.344
774.304
774.275
774.243
774.192
774.393
774.397
774.395
774.391
774.386
774.383
774.378
774.368
774.357
774.343
774.318
774.301
774.307
774.324
774.333
774.294
774.232
774.213
774.198
774.166
774.353
774.352
774.349
774.344
774.338
774.331
774.323
774.317
774.308
774.301
774.291
774.281
774.273
774.265
774.258
774.258
774.265
774.266
774.258
774.232
774.279
774.28
774.286
774.285
774.28
774.264
774.249
774.226
774.21
774.187
774.168
774.148
774.137
774.121
774.101
774.09
774.077
774.066
774.056
774.053
774.225
774.203
774.2
774.203
774.202
774.198
774.185
774.171
774.155
774.141
774.123
774.111
774.094
774.085
774.07
774.064
774.053
774.055
774.061
774.093
773.994
774.028
774.028
774.047
774.03
774.003
774
774.007
774.012
774.008
774.002
774.001
774.001
774
773.999
773.997
773.995
773.994
773.993
773.991
773.989
773.988
773.986
773.984
773.983
773.981
773.98
773.979
773.977
773.976
773.975
773.974
773.973
773.972
773.972
773.971
773.971
773.971
773.971
773.97
773.969
773.968
773.968
773.969
773.969
773.969
773.968
773.966
773.965
773.964
773.963
773.961
773.96
773.959
773.957
773.957
773.957
773.957
773.957
773.957
773.957
773.956
773.955
773.955
773.955
773.957
773.962
773.967
773.971
773.972
773.973
773.974
773.98
774.008
774.111
774.229
774.285
774.291
774.264
774.145
774.009
773.928
773.889
773.874
773.872
773.875
773.882
773.889
773.893
773.897
773.899
773.9
773.901
773.902
773.902
773.902
773.902
773.902
773.902
773.902
773.902
773.902
773.902
773.901
773.901
773.901
773.9
773.899
773.899
773.898
773.897
773.897
773.896
773.895
773.894
773.893
773.892
773.891
773.891
773.89
773.889
773.888
773.887
773.886
773.885
773.885
773.884
773.884
773.883
773.883
773.883
773.883
773.883
773.883
773.883
773.883
773.883
773.884
773.884
773.885
773.886
773.886
773.887
773.888
773.888
773.889
773.889
773.89
773.891
773.891
773.892
773.892
773.892
773.892
773.892
773.892
773.892
773.892
773.892
773.891
773.891
773.891
773.89
773.89
773.889
773.888
773.888
773.887
773.886
773.885
773.885
773.884
773.883
773.883
773.882
773.882
773.882
773.881
773.881
773.881
773.881
773.882
773.882
773.882
773.883
773.884
773.884
773.885
773.886
773.886
773.887
773.888
773.888
773.889
773.889
773.889
773.889
773.886
773.892
773.706
773.991
774.022
774.04
774.055
774.041
774.018
774.017
774.026
774.029
774.024
774.02
774.019
774.019
774.018
774.015
774.014
774.012
774.01
774.008
774.006
774.005
774.003
774.001
773.999
773.998
773.997
773.995
773.994
773.993
773.991
773.99
773.99
773.989
773.989
773.988
773.988
773.988
773.988
773.988
773.988
773.988
773.988
773.99
773.99
773.99
773.989
773.986
773.984
773.983
773.981
773.979
773.978
773.977
773.977
773.977
773.978
773.979
773.98
773.98
773.98
773.979
773.979
773.979
773.982
773.987
773.992
773.996
773.999
774
774.001
774.002
774.007
774.034
774.119
774.204
774.246
774.253
774.236
774.154
774.037
773.959
773.915
773.894
773.887
773.885
773.886
773.89
773.893
773.896
773.898
773.899
773.9
773.9
773.901
773.901
773.901
773.901
773.901
773.901
773.901
773.901
773.9
773.9
773.9
773.899
773.899
773.899
773.898
773.897
773.897
773.896
773.895
773.894
773.894
773.893
773.892
773.891
773.89
773.889
773.888
773.887
773.886
773.886
773.885
773.884
773.883
773.883
773.882
773.882
773.881
773.881
773.881
773.881
773.881
773.881
773.882
773.882
773.882
773.883
773.883
773.884
773.885
773.885
773.886
773.887
773.887
773.888
773.889
773.889
773.89
773.89
773.89
773.891
773.891
773.891
773.891
773.891
773.891
773.89
773.89
773.89
773.889
773.889
773.888
773.888
773.887
773.886
773.885
773.885
773.884
773.883
773.883
773.882
773.881
773.881
773.88
773.88
773.88
773.88
773.88
773.88
773.88
773.881
773.881
773.882
773.882
773.883
773.883
773.884
773.885
773.886
773.886
773.887
773.887
773.888
773.888
773.888
773.885
773.885
773.78
774.223
774.263
774.285
774.282
774.278
774.279
774.281
774.281
774.28
774.278
774.276
774.274
774.271
774.268
774.264
774.261
774.258
774.255
774.252
774.25
774.247
774.245
774.243
774.242
774.241
774.24
774.24
774.239
774.239
774.238
774.237
774.236
774.235
774.233
774.232
774.231
774.231
774.231
774.231
774.232
774.233
774.235
774.236
774.237
774.239
774.241
774.243
774.246
774.249
774.251
774.252
774.252
774.251
774.247
774.233
774.192
774.138
774.09
774.05
774.019
773.996
773.981
773.971
773.966
773.963
773.962
773.962
773.963
773.964
773.964
773.964
773.963
773.96
773.955
773.948
773.941
773.934
773.927
773.922
773.918
773.915
773.913
773.911
773.91
773.909
773.908
773.907
773.906
773.905
773.904
773.903
773.903
773.903
773.902
773.902
773.902
773.902
773.901
773.901
773.901
773.901
773.901
773.9
773.9
773.9
773.899
773.899
773.898
773.897
773.897
773.896
773.895
773.894
773.894
773.893
773.892
773.891
773.89
773.889
773.888
773.887
773.886
773.886
773.885
773.884
773.883
773.883
773.882
773.882
773.881
773.881
773.881
773.881
773.881
773.881
773.882
773.882
773.882
773.883
773.883
773.884
773.885
773.885
773.886
773.887
773.887
773.888
773.889
773.889
773.89
773.89
773.89
773.891
773.891
773.891
773.891
773.891
773.891
773.89
773.89
773.89
773.889
773.889
773.888
773.888
773.887
773.886
773.885
773.885
773.884
773.883
773.883
773.882
773.881
773.881
773.88
773.88
773.88
773.88
773.88
773.88
773.88
773.881
773.881
773.881
773.882
773.883
773.883
773.884
773.885
773.886
773.886
773.887
773.887
773.888
773.888
773.888
773.888
773.888
773.891
774.034
774.029
774.03
774.026
774.018
774.015
774.016
774.016
774.015
774.012
774.01
774.01
774.009
774.008
774.007
774.006
774.005
774.004
774.003
774.001
774
773.999
773.997
773.996
773.994
773.992
773.991
773.989
773.988
773.987
773.985
773.984
773.983
773.981
773.98
773.979
773.978
773.977
773.976
773.975
773.975
773.975
773.975
773.975
773.974
773.974
773.973
773.973
773.973
773.972
773.971
773.97
773.97
773.969
773.969
773.968
773.968
773.968
773.968
773.968
773.97
773.972
773.974
773.979
773.989
774.001
774.009
774.012
774.017
774.029
774.062
774.1
774.123
774.129
774.128
774.115
774.064
773.995
773.945
773.914
773.898
773.891
773.889
773.889
773.891
773.894
773.896
773.898
773.899
773.9
773.9
773.901
773.901
773.901
773.901
773.901
773.901
773.901
773.901
773.901
773.901
773.901
773.9
773.9
773.899
773.899
773.899
773.898
773.897
773.897
773.896
773.895
773.894
773.894
773.893
773.892
773.891
773.89
773.889
773.888
773.887
773.886
773.886
773.885
773.884
773.883
773.883
773.882
773.882
773.881
773.881
773.881
773.881
773.881
773.881
773.882
773.882
773.882
773.883
773.883
773.884
773.885
773.885
773.886
773.887
773.887
773.888
773.889
773.889
773.89
773.89
773.89
773.891
773.891
773.891
773.891
773.891
773.891
773.89
773.89
773.89
773.889
773.889
773.888
773.888
773.887
773.886
773.885
773.885
773.884
773.883
773.883
773.882
773.881
773.881
773.881
773.88
773.88
773.88
773.88
773.88
773.88
773.881
773.881
773.881
773.882
773.883
773.883
773.884
773.885
773.886
773.886
773.887
773.887
773.888
773.888
773.888
773.889
773.892
773.945
774.16
774.159
774.159
774.155
774.146
774.143
774.143
774.142
774.139
774.137
774.137
774.136
774.135
774.134
774.133
774.132
774.13
774.129
774.127
774.126
774.124
774.122
774.12
774.118
774.116
774.114
774.112
774.11
774.107
774.105
774.103
774.101
774.099
774.098
774.096
774.095
774.094
774.093
774.093
774.093
774.093
774.093
774.093
774.093
774.092
774.091
774.09
774.089
774.088
774.087
774.086
774.085
774.084
774.083
774.082
774.081
774.081
774.081
774.081
774.082
774.084
774.09
774.097
774.101
774.102
774.102
774.101
774.106
774.14
774.246
774.342
774.385
774.391
774.376
774.3
774.184
774.095
774.032
773.988
773.959
773.94
773.928
773.92
773.915
773.912
773.909
773.908
773.907
773.906
773.905
773.905
773.904
773.904
773.904
773.903
773.903
773.903
773.903
773.903
773.902
773.902
773.902
773.902
773.901
773.901
773.901
773.9
773.9
773.899
773.898
773.897
773.897
773.896
773.895
773.894
773.893
773.892
773.891
773.891
773.89
773.889
773.888
773.887
773.886
773.885
773.885
773.884
773.884
773.883
773.883
773.883
773.883
773.883
773.883
773.883
773.883
773.883
773.884
773.884
773.885
773.886
773.886
773.887
773.888
773.888
773.889
773.889
773.89
773.891
773.891
773.892
773.892
773.892
773.892
773.892
773.892
773.892
773.892
773.892
773.891
773.891
773.891
773.89
773.89
773.889
773.888
773.888
773.887
773.886
773.885
773.885
773.884
773.883
773.883
773.882
773.882
773.882
773.881
773.881
773.881
773.881
773.882
773.882
773.882
773.883
773.884
773.884
773.885
773.886
773.886
773.887
773.888
773.888
773.889
773.889
773.89
773.89
773.891
773.893
773.951
773.772
773.751
773.746
773.747
773.746
773.74
773.726
773.717
773.698
773.688
773.67
773.658
773.641
773.631
773.619
773.613
773.606
773.608
773.615
773.647
773.823
773.823
773.828
773.827
773.82
773.804
773.786
773.772
773.748
773.735
773.716
773.69
773.681
773.665
773.65
773.634
773.623
773.613
773.604
773.595
773.891
773.89
773.887
773.883
773.878
773.871
773.865
773.857
773.849
773.839
773.831
773.825
773.821
773.822
773.817
773.803
773.79
773.786
773.774
773.769
773.933
773.936
773.934
773.93
773.925
773.92
773.912
773.901
773.891
773.888
773.896
773.896
773.858
773.835
773.833
773.813
773.753
773.718
773.731
773.731
773.945
773.959
773.957
773.957
773.955
773.952
773.946
773.938
773.931
773.932
773.939
773.937
773.908
773.885
773.874
773.845
773.791
773.78
773.795
773.778
773.699
773.698
773.695
773.687
773.686
773.686
773.685
773.682
773.681
773.68
773.679
773.678
773.676
773.675
773.674
773.673
773.672
773.671
773.67
773.669
773.669
773.669
773.669
773.669
773.669
773.669
773.669
773.669
773.669
773.669
773.669
773.668
773.668
773.668
773.667
773.667
773.668
773.668
773.668
773.668
773.669
773.669
773.67
773.671
773.671
773.672
773.672
773.673
773.673
773.674
773.675
773.676
773.677
773.677
773.678
773.678
773.679
773.681
773.684
773.687
773.69
773.695
773.702
773.709
773.715
773.719
773.721
773.724
773.729
773.755
773.846
773.956
774.017
774.035
774.03
773.981
773.87
773.778
773.714
773.67
773.642
773.626
773.617
773.613
773.612
773.613
773.615
773.618
773.622
773.625
773.63
773.634
773.638
773.642
773.647
773.65
773.656
773.657
773.664
773.498
773.575
773.574
773.565
773.56
773.56
773.561
773.561
773.558
773.556
773.556
773.556
773.556
773.554
773.554
773.553
773.553
773.552
773.551
773.551
773.55
773.55
773.55
773.55
773.55
773.55
773.551
773.551
773.552
773.552
773.552
773.553
773.553
773.553
773.553
773.553
773.553
773.553
773.554
773.554
773.554
773.555
773.556
773.556
773.557
773.557
773.558
773.559
773.56
773.561
773.561
773.562
773.563
773.564
773.565
773.566
773.567
773.568
773.57
773.572
773.574
773.576
773.581
773.587
773.591
773.598
773.609
773.621
773.632
773.64
773.646
773.658
773.688
773.729
773.761
773.777
773.78
773.776
773.746
773.682
773.631
773.599
773.584
773.58
773.581
773.584
773.591
773.598
773.606
773.612
773.618
773.624
773.629
773.634
773.639
773.644
773.647
773.653
773.655
773.658
773.566
773.788
773.8
773.807
773.807
773.812
773.814
773.813
773.81
773.809
773.808
773.807
773.806
773.805
773.804
773.804
773.804
773.803
773.802
773.801
773.799
773.797
773.796
773.794
773.793
773.793
773.792
773.792
773.793
773.793
773.794
773.794
773.795
773.796
773.796
773.797
773.797
773.798
773.799
773.8
773.802
773.804
773.806
773.809
773.811
773.813
773.815
773.817
773.82
773.825
773.829
773.833
773.836
773.838
773.839
773.838
773.83
773.8
773.75
773.704
773.666
773.637
773.616
773.602
773.594
773.59
773.589
773.59
773.592
773.595
773.599
773.603
773.606
773.608
773.608
773.608
773.605
773.602
773.6
773.597
773.596
773.596
773.598
773.6
773.603
773.606
773.61
773.613
773.617
773.621
773.625
773.628
773.633
773.637
773.641
773.645
773.649
773.653
773.658
773.661
773.668
773.601
773.592
773.589
773.57
773.549
773.559
773.574
773.572
773.562
773.559
773.56
773.562
773.562
773.56
773.559
773.559
773.559
773.559
773.559
773.559
773.559
773.559
773.559
773.559
773.559
773.559
773.559
773.559
773.558
773.558
773.558
773.558
773.558
773.558
773.559
773.56
773.56
773.561
773.562
773.563
773.565
773.566
773.566
773.567
773.567
773.568
773.569
773.57
773.571
773.571
773.572
773.572
773.573
773.574
773.576
773.579
773.581
773.583
773.584
773.586
773.588
773.589
773.593
773.598
773.605
773.611
773.617
773.622
773.626
773.63
773.633
773.636
773.643
773.665
773.738
773.835
773.894
773.914
773.909
773.862
773.75
773.664
773.614
773.591
773.585
773.586
773.59
773.599
773.607
773.615
773.621
773.627
773.633
773.638
773.643
773.648
773.652
773.659
773.663
773.718
773.623
773.592
773.581
773.559
773.537
773.543
773.558
773.557
773.547
773.543
773.544
773.546
773.546
773.545
773.544
773.543
773.543
773.543
773.543
773.543
773.543
773.543
773.543
773.543
773.543
773.543
773.543
773.543
773.543
773.543
773.543
773.543
773.543
773.543
773.544
773.544
773.545
773.545
773.546
773.547
773.548
773.549
773.55
773.551
773.551
773.552
773.552
773.553
773.554
773.555
773.556
773.556
773.556
773.556
773.557
773.558
773.56
773.562
773.563
773.565
773.565
773.567
773.568
773.571
773.574
773.579
773.585
773.591
773.596
773.602
773.606
773.61
773.613
773.62
773.639
773.71
773.841
773.925
773.952
773.945
773.879
773.739
773.643
773.593
773.576
773.574
773.578
773.59
773.602
773.612
773.62
773.627
773.633
773.639
773.644
773.649
773.653
773.66
773.665
773.723
773.559
773.539
773.535
773.537
773.537
773.532
773.52
773.512
773.495
773.487
773.47
773.46
773.446
773.438
773.427
773.423
773.417
773.419
773.427
773.456
773.605
773.608
773.613
773.612
773.606
773.593
773.577
773.564
773.543
773.532
773.51
773.494
773.487
773.468
773.456
773.442
773.434
773.424
773.415
773.409
773.672
773.671
773.671
773.667
773.664
773.658
773.653
773.647
773.64
773.632
773.626
773.623
773.623
773.622
773.613
773.604
773.597
773.593
773.586
773.585
773.711
773.715
773.714
773.711
773.709
773.705
773.698
773.691
773.688
773.693
773.705
773.681
773.649
773.644
773.633
773.591
773.547
773.551
773.573
773.57
773.722
773.737
773.736
773.737
773.737
773.734
773.731
773.726
773.726
773.733
773.743
773.723
773.698
773.683
773.666
773.622
773.604
773.611
773.635
773.602
773.505
773.518
773.519
773.519
773.524
773.531
773.536
773.539
773.546
773.552
773.557
773.563
773.569
773.576
773.584
773.591
773.598
773.606
773.613
773.621
773.628
773.636
773.643
773.651
773.658
773.666
773.674
773.682
773.691
773.699
773.708
773.717
773.726
773.735
773.744
773.754
773.763
773.772
773.782
773.792
773.801
773.811
773.821
773.832
773.842
773.852
773.863
773.874
773.884
773.895
773.907
773.918
773.929
773.939
773.951
773.964
773.977
773.99
774.004
774.021
774.04
774.061
774.08
774.093
774.102
774.113
774.14
774.228
774.361
774.454
774.496
774.502
774.481
774.397
774.305
774.243
774.203
774.183
774.179
774.18
774.183
774.193
774.206
774.22
774.234
774.249
774.265
774.28
774.296
774.312
774.328
774.344
774.36
774.377
774.393
774.41
774.427
774.443
774.46
774.477
774.494
774.512
774.529
774.546
774.564
774.581
774.599
774.617
774.635
774.653
774.671
774.689
774.708
774.726
774.745
774.764
774.783
774.802
774.821
774.841
774.86
774.88
774.9
774.92
774.94
774.96
774.98
775.001
775.022
775.042
775.063
775.084
775.105
775.127
775.148
775.17
775.191
775.213
775.235
775.257
775.279
775.301
775.323
775.346
775.368
775.391
775.414
775.437
775.46
775.483
775.506
775.53
775.553
775.577
775.6
775.624
775.648
775.672
775.696
775.721
775.745
775.77
775.794
775.819
775.843
775.868
775.893
775.918
775.943
775.968
775.993
776.018
776.044
776.069
776.094
776.12
776.146
776.171
776.197
776.223
776.249
776.275
776.301
776.328
776.353
776.381
776.405
776.434
776.457
776.487
776.51
776.541
776.562
776.595
776.615
776.649
776.668
776.702
776.726
776.753
773.392
773.396
773.397
773.398
773.403
773.412
773.416
773.419
773.425
773.432
773.438
773.443
773.45
773.457
773.464
773.471
773.479
773.487
773.494
773.502
773.51
773.518
773.526
773.534
773.543
773.551
773.559
773.567
773.575
773.584
773.593
773.602
773.611
773.62
773.629
773.639
773.648
773.658
773.667
773.677
773.687
773.697
773.707
773.717
773.728
773.738
773.749
773.76
773.77
773.781
773.793
773.804
773.815
773.828
773.841
773.853
773.864
773.877
773.892
773.909
773.925
773.941
773.961
773.986
774.013
774.032
774.044
774.064
774.106
774.16
774.211
774.245
774.26
774.262
774.251
774.205
774.161
774.141
774.137
774.139
774.146
774.164
774.184
774.203
774.222
774.24
774.257
774.275
774.292
774.308
774.325
774.342
774.358
774.375
774.391
774.408
774.425
774.442
774.459
774.476
774.493
774.51
774.527
774.545
774.562
774.58
774.598
774.615
774.633
774.652
774.67
774.688
774.706
774.725
774.744
774.763
774.782
774.801
774.82
774.839
774.859
774.879
774.898
774.918
774.938
774.959
774.979
775
775.02
775.041
775.062
775.083
775.104
775.125
775.147
775.168
775.19
775.211
775.233
775.255
775.277
775.3
775.322
775.344
775.367
775.389
775.412
775.435
775.458
775.482
775.505
775.528
775.552
775.575
775.599
775.623
775.647
775.671
775.695
775.719
775.744
775.768
775.793
775.817
775.842
775.867
775.891
775.916
775.941
775.967
775.992
776.017
776.042
776.068
776.093
776.119
776.144
776.17
776.196
776.222
776.248
776.274
776.3
776.327
776.352
776.38
776.404
776.433
776.456
776.486
776.508
776.54
776.561
776.593
776.614
776.647
776.667
776.701
776.721
776.762
773.61
773.617
773.63
773.644
773.655
773.66
773.663
773.67
773.676
773.682
773.688
773.694
773.7
773.705
773.711
773.716
773.722
773.729
773.736
773.743
773.751
773.76
773.768
773.777
773.785
773.794
773.803
773.812
773.82
773.829
773.838
773.847
773.856
773.865
773.874
773.883
773.892
773.902
773.912
773.923
773.934
773.945
773.956
773.969
773.982
773.997
774.012
774.027
774.041
774.056
774.068
774.078
774.083
774.081
774.066
774.027
773.992
773.965
773.946
773.94
773.94
773.943
773.949
773.961
773.974
773.989
774.004
774.02
774.035
774.049
774.061
774.072
774.082
774.092
774.101
774.11
774.12
774.131
774.145
774.158
774.173
774.188
774.202
774.218
774.233
774.248
774.264
774.279
774.295
774.311
774.327
774.343
774.359
774.375
774.392
774.408
774.425
774.442
774.459
774.476
774.493
774.51
774.527
774.545
774.562
774.58
774.598
774.615
774.633
774.652
774.67
774.688
774.706
774.725
774.744
774.763
774.782
774.801
774.82
774.839
774.859
774.879
774.898
774.918
774.938
774.959
774.979
775
775.02
775.041
775.062
775.083
775.104
775.125
775.147
775.168
775.19
775.211
775.233
775.255
775.277
775.3
775.322
775.344
775.367
775.389
775.412
775.435
775.458
775.482
775.505
775.528
775.552
775.575
775.599
775.623
775.647
775.671
775.695
775.719
775.744
775.768
775.793
775.817
775.842
775.867
775.891
775.916
775.941
775.967
775.992
776.017
776.042
776.068
776.093
776.119
776.144
776.17
776.196
776.222
776.248
776.274
776.3
776.326
776.352
776.379
776.404
776.432
776.457
776.484
776.511
776.537
776.564
776.592
776.615
776.646
776.669
776.696
776.724
776.752
773.424
773.424
773.42
773.404
773.398
773.418
773.434
773.431
773.431
773.435
773.447
773.454
773.458
773.465
773.472
773.479
773.486
773.493
773.501
773.508
773.516
773.523
773.531
773.539
773.548
773.556
773.565
773.574
773.583
773.592
773.602
773.611
773.621
773.63
773.64
773.649
773.658
773.667
773.677
773.687
773.696
773.706
773.716
773.726
773.737
773.747
773.758
773.769
773.779
773.79
773.801
773.813
773.825
773.837
773.85
773.864
773.876
773.887
773.898
773.912
773.927
773.945
773.965
773.984
774.004
774.023
774.04
774.054
774.064
774.077
774.106
774.188
774.3
774.38
774.416
774.419
774.39
774.295
774.216
774.177
774.166
774.167
774.174
774.193
774.215
774.235
774.254
774.272
774.29
774.307
774.324
774.341
774.358
774.375
774.391
774.408
774.425
774.442
774.459
774.476
774.493
774.51
774.527
774.545
774.562
774.58
774.598
774.615
774.633
774.652
774.67
774.688
774.706
774.725
774.744
774.763
774.782
774.801
774.82
774.839
774.859
774.879
774.898
774.918
774.938
774.959
774.979
775
775.02
775.041
775.062
775.083
775.104
775.125
775.147
775.168
775.19
775.211
775.233
775.255
775.277
775.3
775.322
775.344
775.367
775.389
775.412
775.435
775.458
775.482
775.505
775.528
775.552
775.575
775.599
775.623
775.647
775.671
775.695
775.719
775.744
775.768
775.793
775.817
775.842
775.867
775.891
775.916
775.941
775.967
775.992
776.017
776.042
776.068
776.093
776.119
776.144
776.17
776.196
776.222
776.248
776.274
776.3
776.325
776.353
776.377
776.406
776.43
776.46
776.482
776.513
776.535
776.566
776.587
776.621
776.64
776.675
776.692
776.731
776.742
773.446
773.419
773.411
773.393
773.385
773.401
773.419
773.417
773.415
773.419
773.43
773.438
773.442
773.448
773.456
773.464
773.471
773.478
773.486
773.493
773.501
773.509
773.517
773.525
773.533
773.542
773.55
773.559
773.568
773.577
773.586
773.595
773.605
773.614
773.623
773.633
773.642
773.651
773.661
773.671
773.681
773.691
773.7
773.711
773.721
773.731
773.742
773.753
773.763
773.774
773.785
773.796
773.807
773.82
773.831
773.844
773.857
773.869
773.881
773.893
773.904
773.918
773.933
773.951
773.969
773.988
774.009
774.028
774.042
774.053
774.065
774.092
774.174
774.324
774.429
774.471
774.47
774.419
774.291
774.204
774.167
774.159
774.162
774.179
774.206
774.23
774.251
774.271
774.29
774.307
774.325
774.342
774.359
774.376