/*--------------------------------*- C++ -*----------------------------------*\
| =========                 |                                                 |
| \\      /  F ield         | OpenFOAM: The Open Source CFD Toolbox           |
|  \\    /   O peration     | Version:  3.0.x                                 |
|   \\  /    A nd           | Web:      www.OpenFOAM.org                      |
|    \\/     M anipulation  |                                                 |
\*---------------------------------------------------------------------------*/
FoamFile
{
    version     2.0;
    format      ascii;
    class       surfaceScalarField;
    location    "0.429975";
    object      phi;
}
// * * * * * * * * * * * * * * * * * * * * * * * * * * * * * * * * * * * * * //

dimensions      [1 0 -1 0 0 0 0];

internalField   nonuniform List<scalar> 
26210
(
5.30355
0.000503955
5.3032
0.000346585
5.30285
0.000339992
5.30251
0.000341613
5.30217
0.000341666
5.30182
0.000341581
5.30148
0.000341568
5.30113
0.000341561
5.30079
0.00034155
5.30045
0.000341539
5.3001
0.000341527
5.29976
0.000341515
5.29942
0.000341503
5.29907
0.000341491
5.29873
0.000341479
5.29839
0.000341467
5.29804
0.000341455
5.2977
0.000341443
5.29736
0.000341431
5.29701
0.00034142
5.29667
0.000341408
5.29633
0.000341395
5.29598
0.000341383
5.29564
0.000341371
5.2953
0.000341358
5.29495
0.000341345
5.29461
0.000341332
5.29427
0.000341318
5.29392
0.000341303
5.29358
0.000341288
5.29324
0.000341273
5.2929
0.000341257
5.29255
0.000341242
5.29221
0.000341222
5.29187
0.000341186
5.29152
0.000341156
5.29118
0.000341197
5.29083
0.00034124
5.29048
0.000341165
5.29014
0.000341158
5.28979
0.000341153
5.28945
0.000341104
5.28911
0.000341101
5.28877
0.000341225
5.28843
0.000341166
5.28809
0.000341156
5.28775
0.000341165
5.28741
0.000341169
5.28707
0.000341175
5.28672
0.00034118
5.28638
0.000341165
5.28603
0.000341154
5.28568
0.000341166
5.28533
0.00034128
5.28499
0.000341198
5.28464
0.000341199
5.28429
0.000341124
5.28395
0.00034121
5.2836
0.00034129
5.28325
0.00034122
5.28291
0.000341228
5.28256
0.000341234
5.28221
0.00034124
5.28187
0.000341244
5.28153
0.000341245
5.28118
0.00034124
5.28084
0.000341225
5.2805
0.000341197
5.28016
0.00034115
5.27981
0.000341075
5.27946
0.000340963
5.27912
0.0003408
5.27877
0.000340571
5.27842
0.000340247
5.27807
0.00033977
5.27772
0.000339326
5.27737
0.000338513
5.27703
0.000337549
5.27668
0.000336317
5.27634
0.000334684
5.276
0.000332809
5.27567
0.000331174
5.27534
0.000327303
5.27501
0.000324353
5.27469
0.000320373
5.27437
0.000315712
5.27406
0.000310327
5.27375
0.000304176
5.27345
0.000297224
5.27316
0.000289453
5.27287
0.000280861
5.2726
0.00027146
5.27233
0.000261283
5.27208
0.00025038
5.27183
0.000238818
5.2716
0.000226682
5.27139
0.000214072
5.27118
0.000201097
5.27099
0.00018788
5.27081
0.000174545
5.27065
0.00016122
5.2705
0.000148044
5.27036
0.000135111
5.27024
0.000122533
5.27012
0.00011046
5.27002
9.89362e-05
5.26993
8.8044e-05
5.26985
7.78437e-05
5.26978
6.8373e-05
5.26972
5.96605e-05
5.26966
5.17098e-05
5.26961
4.45194e-05
5.26957
3.80719e-05
5.26954
3.23389e-05
5.2695
2.72837e-05
5.26948
2.28631e-05
5.26945
1.9029e-05
5.26943
1.57307e-05
5.26941
1.29161e-05
5.26939
1.05336e-05
5.26937
8.53273e-06
5.26936
6.86571e-06
5.26934
5.48768e-06
5.26932
4.35743e-06
5.26931
3.43762e-06
5.26929
2.69486e-06
5.26927
2.09974e-06
5.26925
1.62662e-06
5.26923
1.25348e-06
5.2692
9.61596e-07
5.26918
7.35232e-07
5.26915
5.61076e-07
5.26911
4.28417e-07
5.26908
3.28357e-07
5.26904
2.53953e-07
5.269
1.99532e-07
5.26895
1.60497e-07
5.2689
1.33257e-07
5.26884
1.15053e-07
5.26878
1.03784e-07
5.26871
9.78471e-08
5.26864
9.60426e-08
5.26855
9.74669e-08
5.26846
1.0146e-07
5.26837
1.07535e-07
5.26826
1.15331e-07
5.26815
1.24592e-07
5.26802
1.35153e-07
5.26788
1.46905e-07
5.26773
1.59793e-07
5.26757
1.73788e-07
5.2674
1.88884e-07
5.26721
2.05084e-07
5.26701
2.22421e-07
5.26679
2.4092e-07
5.26655
2.60623e-07
5.26629
2.81561e-07
5.26602
3.03788e-07
5.26572
3.27333e-07
5.2654
3.52255e-07
5.26506
3.78599e-07
5.26469
4.06406e-07
5.2643
4.35715e-07
5.26388
4.66556e-07
5.26343
4.98967e-07
5.26295
5.32977e-07
5.26244
5.68605e-07
5.2619
6.05878e-07
5.26132
6.44812e-07
5.26071
6.85441e-07
5.26005
7.27769e-07
5.25936
7.71797e-07
5.25863
8.17521e-07
5.25785
8.64931e-07
5.25703
9.1404e-07
5.25616
9.64859e-07
5.25525
1.0174e-06
5.25429
1.07166e-06
5.25327
1.12763e-06
5.25221
1.18529e-06
5.25108
1.24463e-06
5.24991
1.30565e-06
5.24867
1.36837e-06
5.24738
1.43278e-06
5.24602
1.49888e-06
5.2446
1.56677e-06
5.24312
1.63698e-06
5.24157
1.71217e-06
5.23996
1.80529e-06
5.23827
1.97915e-06
5.23652
2.53581e-06
5.23469
4.93101e-06
5.23277
1.61692e-05
5.23073
6.99371e-05
5.22835
0.000327693
5.22466
0.00155908
5.21505
0.00739742
5.17785
0.0349161
4.99522
0.180263
0.680911
4.31186
7.50122
0.000460229
7.50124
0.00032924
7.50126
0.000315396
7.50128
0.000318807
7.50129
0.000319002
7.50131
0.000318854
7.50133
0.00031887
7.50135
0.000318901
7.50137
0.000318922
7.50138
0.000318942
7.5014
0.000318963
7.50142
0.000318982
7.50144
0.000319002
7.50146
0.000319022
7.50148
0.000319042
7.5015
0.000319061
7.50151
0.000319081
7.50153
0.000319101
7.50155
0.00031912
7.50157
0.00031914
7.50159
0.000319159
7.50161
0.000319179
7.50163
0.000319198
7.50164
0.000319217
7.50166
0.000319236
7.50168
0.000319255
7.5017
0.000319273
7.50172
0.00031929
7.50174
0.000319307
7.50175
0.000319324
7.50177
0.00031934
7.50179
0.000319356
7.50181
0.000319372
7.50183
0.000319385
7.50184
0.000319382
7.50186
0.000319388
7.50188
0.000319447
7.50189
0.000319524
7.5019
0.000319484
7.50192
0.000319509
7.50193
0.000319534
7.50195
0.000319522
7.50196
0.00031955
7.50198
0.000319692
7.50201
0.000319671
7.50204
0.000319689
7.50206
0.000319731
7.50208
0.000319765
7.5021
0.000319801
7.50211
0.000319836
7.50213
0.000319856
7.50214
0.000319876
7.50215
0.000319911
7.50216
0.000320052
7.50217
0.000320007
7.50218
0.000320038
7.50219
0.000320004
7.5022
0.000320111
7.50222
0.000320213
7.50223
0.000320181
7.50224
0.00032022
7.50225
0.000320257
7.50227
0.000320292
7.50228
0.000320326
7.5023
0.000320357
7.50231
0.000320381
7.50233
0.000320395
7.50235
0.000320396
7.50237
0.000320377
7.50238
0.000320331
7.50239
0.000320246
7.50241
0.00032011
7.50241
0.000319907
7.50242
0.000319614
7.50243
0.000319166
7.50243
0.000318728
7.50244
0.000317955
7.50244
0.000317016
7.50245
0.000315813
7.50246
0.000314224
7.50247
0.000312388
7.50248
0.000310716
7.5025
0.000307012
7.50252
0.000304073
7.50253
0.000300182
7.50255
0.00029562
7.50256
0.000290362
7.50258
0.000284366
7.50259
0.000277603
7.5026
0.000270061
7.50262
0.000261742
7.50263
0.000252662
7.50264
0.000242858
7.50265
0.000232382
7.50266
0.000221304
7.50267
0.000209709
7.50268
0.000197695
7.50269
0.000185371
7.5027
0.000172854
7.50271
0.000160264
7.50272
0.00014772
7.50273
0.000135361
7.50274
0.000123258
7.50274
0.000111535
7.50275
0.000100309
7.50275
8.96325e-05
7.50276
7.95724e-05
7.50276
7.01798e-05
7.50276
6.14932e-05
7.50277
5.3518e-05
7.50277
4.62678e-05
7.50277
3.97327e-05
7.50276
3.38912e-05
7.50276
2.87122e-05
7.50276
2.41604e-05
7.50275
2.01924e-05
7.50275
1.67617e-05
7.50274
1.38196e-05
7.50273
1.13168e-05
7.50272
9.20468e-06
7.50271
7.43645e-06
7.50269
5.96776e-06
7.50268
4.75741e-06
7.50266
3.76774e-06
7.50264
2.9648e-06
7.50262
2.31841e-06
7.50259
1.80209e-06
7.50257
1.3929e-06
7.50254
1.0712e-06
7.5025
8.20346e-07
7.50246
6.26449e-07
7.50242
4.77792e-07
7.50238
3.64967e-07
7.50233
2.80219e-07
7.50227
2.175e-07
7.50221
1.71907e-07
7.50214
1.39467e-07
7.50207
1.17096e-07
7.50199
1.02416e-07
7.5019
9.36379e-08
7.5018
8.94033e-08
7.5017
8.86794e-08
7.50158
9.07203e-08
7.50145
9.49567e-08
7.50131
1.00983e-07
7.50116
1.08512e-07
7.501
1.17325e-07
7.50082
1.27306e-07
7.50063
1.38363e-07
7.50042
1.50452e-07
7.50019
1.6356e-07
7.49994
1.77681e-07
7.49967
1.92827e-07
7.49938
2.09035e-07
7.49907
2.26328e-07
7.49873
2.4474e-07
7.49837
2.64301e-07
7.49798
2.85074e-07
7.49756
3.07076e-07
7.49711
3.30368e-07
7.49663
3.54983e-07
7.49611
3.80966e-07
7.49555
4.08356e-07
7.49496
4.37176e-07
7.49433
4.6746e-07
7.49365
4.99242e-07
7.49293
5.32535e-07
7.49216
5.67363e-07
7.49134
6.0375e-07
7.49047
6.41721e-07
7.48955
6.81284e-07
7.48857
7.22433e-07
7.48753
7.65172e-07
7.48644
8.09494e-07
7.48528
8.55403e-07
7.48405
9.02914e-07
7.48276
9.52039e-07
7.4814
1.00278e-06
7.47996
1.05512e-06
7.47846
1.10905e-06
7.47687
1.16455e-06
7.47521
1.22162e-06
7.47346
1.28029e-06
7.47163
1.34054e-06
7.46972
1.40243e-06
7.46772
1.4662e-06
7.46562
1.5332e-06
7.46343
1.60985e-06
7.46115
1.72757e-06
7.45877
2.03801e-06
7.45629
3.27175e-06
7.4537
8.9452e-06
7.45099
3.59877e-05
7.4481
0.000165799
7.44474
0.000788571
7.43953
0.00376463
7.42591
0.0178892
7.37311
0.08448
7.12126
0.428754
1.57359
6.22512
10.6083
0.000402095
10.6084
0.00030195
10.6084
0.000281303
10.6084
0.000286219
10.6084
0.000286632
10.6085
0.000286388
10.6085
0.000286402
10.6085
0.000286441
10.6085
0.000286464
10.6086
0.000286484
10.6086
0.000286503
10.6086
0.000286522
10.6086
0.000286541
10.6087
0.000286559
10.6087
0.000286578
10.6087
0.000286596
10.6087
0.000286614
10.6088
0.000286632
10.6088
0.00028665
10.6088
0.000286668
10.6089
0.000286686
10.6089
0.000286703
10.6089
0.000286721
10.6089
0.000286738
10.609
0.000286755
10.609
0.000286772
10.609
0.000286788
10.609
0.000286804
10.6091
0.000286819
10.6091
0.000286835
10.6091
0.000286849
10.6092
0.000286864
10.6092
0.000286878
10.6092
0.000286891
10.6092
0.000286888
10.6093
0.000286896
10.6093
0.000286939
10.6093
0.000287015
10.6093
0.000286979
10.6093
0.000287002
10.6094
0.000287023
10.6094
0.000287015
10.6094
0.000287041
10.6095
0.000287163
10.6095
0.000287148
10.6095
0.000287161
10.6096
0.000287202
10.6096
0.000287232
10.6096
0.000287264
10.6096
0.000287296
10.6097
0.000287316
10.6097
0.000287334
10.6097
0.000287359
10.6097
0.00028749
10.6097
0.000287451
10.6098
0.000287477
10.6098
0.000287452
10.6098
0.000287543
10.6098
0.000287632
10.6098
0.000287606
10.6099
0.000287642
10.6099
0.000287675
10.6099
0.000287707
10.6099
0.000287738
10.6099
0.000287765
10.61
0.000287787
10.61
0.0002878
10.61
0.000287802
10.6101
0.000287785
10.6101
0.000287744
10.6101
0.000287669
10.6101
0.000287548
10.6101
0.000287367
10.6102
0.000287108
10.6102
0.000286709
10.6102
0.000286305
10.6102
0.000285625
10.6102
0.000284783
10.6102
0.000283708
10.6102
0.000282291
10.6102
0.000280654
10.6103
0.000279122
10.6103
0.000275858
10.6103
0.000273195
10.6103
0.000269723
10.6104
0.000265637
10.6104
0.000260928
10.6104
0.000255557
10.6104
0.000249499
10.6104
0.000242741
10.6105
0.000235284
10.6105
0.000227145
10.6105
0.000218355
10.6105
0.00020896
10.6105
0.000199024
10.6105
0.000188621
10.6105
0.000177841
10.6106
0.000166779
10.6106
0.000155542
10.6106
0.000144237
10.6106
0.000132972
10.6106
0.000121862
10.6106
0.000110994
10.6106
0.000100454
10.6106
9.03627e-05
10.6106
8.07612e-05
10.6106
7.17123e-05
10.6106
6.32618e-05
10.6106
5.54435e-05
10.6106
4.82649e-05
10.6106
4.17363e-05
10.6106
3.585e-05
10.6106
3.05871e-05
10.6106
2.59197e-05
10.6106
2.18164e-05
10.6106
1.82383e-05
10.6106
1.51437e-05
10.6106
1.24891e-05
10.6105
1.02302e-05
10.6105
8.3233e-06
10.6105
6.72637e-06
10.6105
5.39954e-06
10.6105
4.30574e-06
10.6104
3.41107e-06
10.6104
2.68498e-06
10.6104
2.10024e-06
10.6103
1.63301e-06
10.6103
1.26259e-06
10.6103
9.71267e-07
10.6102
7.44019e-07
10.6102
5.68289e-07
10.6101
4.33519e-07
10.61
3.31166e-07
10.61
2.54267e-07
10.6099
1.97313e-07
10.6098
1.55886e-07
10.6097
1.26378e-07
10.6096
1.06004e-07
10.6095
9.26061e-08
10.6094
8.45598e-08
10.6092
8.06322e-08
10.6091
7.98964e-08
10.6089
8.16617e-08
10.6087
8.54147e-08
10.6085
9.07944e-08
10.6083
9.75315e-08
10.6081
1.05427e-07
10.6078
1.14382e-07
10.6076
1.24308e-07
10.6073
1.35159e-07
10.6069
1.46931e-07
10.6066
1.59609e-07
10.6062
1.73213e-07
10.6058
1.87771e-07
10.6054
2.03307e-07
10.6049
2.19844e-07
10.6044
2.3741e-07
10.6038
2.56071e-07
10.6032
2.75837e-07
10.6026
2.9676e-07
10.6019
3.18868e-07
10.6012
3.42207e-07
10.6004
3.66812e-07
10.5995
3.92698e-07
10.5986
4.19898e-07
10.5977
4.48448e-07
10.5967
4.78354e-07
10.5956
5.09641e-07
10.5944
5.42324e-07
10.5932
5.7643e-07
10.5919
6.11969e-07
10.5905
6.48933e-07
10.589
6.87322e-07
10.5875
7.27131e-07
10.5859
7.68369e-07
10.5841
8.11046e-07
10.5823
8.55176e-07
10.5804
9.00754e-07
10.5783
9.4777e-07
10.5762
9.96215e-07
10.574
1.04606e-06
10.5716
1.09733e-06
10.5691
1.15003e-06
10.5666
1.20418e-06
10.5638
1.25985e-06
10.561
1.31754e-06
10.5581
1.37967e-06
10.555
1.45782e-06
10.5517
1.60862e-06
10.5484
2.10515e-06
10.5449
4.26405e-06
10.5412
1.44186e-05
10.5374
6.30664e-05
10.5333
0.000296844
10.5285
0.0014188
10.5213
0.006782
10.5025
0.0322553
10.4302
0.152193
10.091
0.76317
2.74622
8.91352
46.8274
0.000185462
46.8275
0.000157983
46.8276
0.000139462
46.8277
0.000142678
46.8278
0.000143662
46.828
0.000143346
46.8281
0.000143274
46.8282
0.000143284
46.8283
0.000143283
46.8284
0.000143281
46.8285
0.000143283
46.8287
0.000143286
46.8288
0.000143291
46.8289
0.000143297
46.829
0.000143304
46.8291
0.00014331
46.8293
0.000143318
46.8294
0.000143325
46.8295
0.000143333
46.8296
0.000143341
46.8297
0.000143349
46.8299
0.000143357
46.83
0.000143365
46.8301
0.000143373
46.8302
0.000143381
46.8303
0.000143389
46.8305
0.000143397
46.8306
0.000143404
46.8307
0.000143412
46.8308
0.000143419
46.8309
0.000143426
46.8311
0.000143433
46.8312
0.00014344
46.8313
0.000143447
46.8314
0.000143446
46.8315
0.000143454
46.8316
0.000143461
46.8317
0.000143508
46.8318
0.00014349
46.8319
0.000143501
46.832
0.000143511
46.8321
0.00014351
46.8322
0.000143523
46.8324
0.000143577
46.8325
0.000143574
46.8327
0.000143577
46.8329
0.000143602
46.833
0.000143616
46.8331
0.000143632
46.8332
0.000143647
46.8333
0.00014366
46.8334
0.00014367
46.8335
0.000143673
46.8336
0.000143743
46.8336
0.000143726
46.8337
0.000143737
46.8338
0.000143731
46.8339
0.000143771
46.834
0.000143811
46.8341
0.000143802
46.8342
0.000143821
46.8343
0.000143837
46.8343
0.000143853
46.8344
0.000143868
46.8345
0.000143882
46.8347
0.000143893
46.8348
0.000143901
46.8349
0.000143902
46.835
0.000143894
46.8352
0.000143874
46.8353
0.000143838
46.8353
0.000143779
46.8354
0.00014369
46.8355
0.000143567
46.8355
0.000143373
46.8356
0.000143158
46.8356
0.000142837
46.8357
0.000142419
46.8357
0.000141889
46.8358
0.000141197
46.8359
0.000140395
46.836
0.000139593
46.8361
0.000138041
46.8362
0.000136686
46.8363
0.000134979
46.8364
0.000132953
46.8365
0.000130619
46.8366
0.000127956
46.8367
0.000124949
46.8368
0.000121593
46.8368
0.000117887
46.8369
0.000113839
46.837
0.000109465
46.837
0.000104788
46.8371
9.98368e-05
46.8371
9.46505e-05
46.8372
8.92723e-05
46.8372
8.37505e-05
46.8373
7.81373e-05
46.8373
7.24866e-05
46.8374
6.68545e-05
46.8374
6.12877e-05
46.8374
5.58532e-05
46.8375
5.05684e-05
46.8375
4.55091e-05
46.8375
4.06915e-05
46.8375
3.61488e-05
46.8375
3.19041e-05
46.8375
2.7973e-05
46.8375
2.43641e-05
46.8375
2.10782e-05
46.8375
1.81138e-05
46.8374
1.54621e-05
46.8374
1.3109e-05
46.8374
1.1039e-05
46.8373
9.23298e-06
46.8373
7.67009e-06
46.8372
6.3286e-06
46.8372
5.18641e-06
46.8371
4.22169e-06
46.837
3.41332e-06
46.8369
2.74131e-06
46.8368
2.18701e-06
46.8367
1.73337e-06
46.8366
1.36502e-06
46.8365
1.0682e-06
46.8363
8.30916e-07
46.8361
6.42691e-07
46.836
4.94579e-07
46.8357
3.78978e-07
46.8355
2.89526e-07
46.8352
2.209e-07
46.835
1.68727e-07
46.8346
1.29519e-07
46.8343
1.00448e-07
46.8339
7.92766e-08
46.8335
6.41735e-08
46.833
5.37259e-08
46.8325
4.68274e-08
46.832
4.26551e-08
46.8314
4.05848e-08
46.8307
4.01417e-08
46.83
4.09721e-08
46.8292
4.28126e-08
46.8283
4.54702e-08
46.8274
4.88135e-08
46.8264
5.27355e-08
46.8252
5.72195e-08
46.824
6.21822e-08
46.8227
6.75943e-08
46.8213
7.34708e-08
46.8197
7.98088e-08
46.8181
8.66091e-08
46.8163
9.3886e-08
46.8143
1.01664e-07
46.8122
1.09922e-07
46.81
1.18702e-07
46.8075
1.28033e-07
46.8049
1.37919e-07
46.8021
1.48384e-07
46.7991
1.59431e-07
46.7958
1.71105e-07
46.7924
1.83412e-07
46.7887
1.96353e-07
46.7847
2.09946e-07
46.7805
2.24222e-07
46.776
2.39182e-07
46.7712
2.54823e-07
46.7661
2.7116e-07
46.7606
2.88209e-07
46.7549
3.05986e-07
46.7488
3.24465e-07
46.7423
3.43663e-07
46.7355
3.63564e-07
46.7282
3.84175e-07
46.7206
4.05518e-07
46.7125
4.2758e-07
46.704
4.50381e-07
46.695
4.73883e-07
46.6856
4.98116e-07
46.6757
5.23047e-07
46.6654
5.48657e-07
46.6545
5.75014e-07
46.643
6.02203e-07
46.6311
6.30438e-07
46.6186
6.61133e-07
46.6055
7.00904e-07
46.5918
7.81736e-07
46.5776
1.05863e-06
46.5627
2.28025e-06
46.5472
8.04805e-06
46.5311
3.57163e-05
46.5142
0.000168815
46.4963
0.000809198
46.4757
0.00388462
46.4451
0.0185915
46.3696
0.0882624
46.0906
0.411029
44.9638
1.86902
6.56075
41.1276
46.8274
1.59162e-12
46.8275
4.54747e-13
46.8276
-9.09495e-13
46.8277
0
46.8278
-1.81899e-12
46.8279
-1.36424e-12
46.8281
-9.09495e-13
46.8282
-4.54747e-13
46.8283
9.09495e-13
46.8284
9.09495e-13
46.8285
9.09495e-13
46.8286
9.09495e-13
46.8288
9.09495e-13
46.8289
9.09495e-13
46.829
-2.27374e-13
46.8291
-6.82121e-13
46.8292
9.09495e-13
46.8293
3.18323e-12
46.8295
2.27374e-12
46.8296
9.09495e-13
46.8297
-1.13687e-12
46.8298
-1.13687e-12
46.83
1.13687e-12
46.8301
-1.59162e-12
46.8302
-1.36424e-12
46.8303
0
46.8304
2.27374e-13
46.8306
-1.36424e-12
46.8307
-1.13687e-12
46.8308
0
46.8309
-2.27374e-13
46.831
1.36424e-12
46.8312
2.04636e-12
46.8313
2.27374e-13
46.8314
9.09495e-13
46.8315
2.27374e-13
46.8316
6.82121e-13
46.8317
1.59162e-12
46.8318
-1.13687e-12
46.8319
-9.09495e-13
46.832
-1.81899e-12
46.8321
-3.18323e-12
46.8322
-2.04636e-12
46.8323
-4.54747e-13
46.8325
2.27374e-13
46.8327
-1.59162e-12
46.8328
-9.09495e-13
46.833
1.13687e-12
46.8331
0
46.8332
-1.81899e-12
46.8333
-2.27374e-13
46.8334
1.36424e-12
46.8335
6.82121e-13
46.8335
0
46.8336
2.27374e-13
46.8337
-1.13687e-12
46.8338
-9.09495e-13
46.8339
4.54747e-13
46.834
1.36424e-12
46.8341
2.27374e-12
46.8341
9.09495e-13
46.8342
-4.54747e-13
46.8343
-6.82121e-13
46.8344
4.54747e-13
46.8345
-1.81899e-12
46.8346
2.27374e-13
46.8348
9.09495e-13
46.8349
2.50111e-12
46.835
-2.27374e-13
46.8351
1.36424e-12
46.8352
4.54747e-13
46.8353
-1.36424e-12
46.8354
-3.18323e-12
46.8354
2.27374e-13
46.8355
-4.54747e-13
46.8355
4.54747e-13
46.8356
6.82121e-13
46.8356
6.82121e-13
46.8357
3.18323e-12
46.8358
0
46.8358
-2.27374e-12
46.8359
-2.72848e-12
46.8361
-9.09495e-13
46.8362
-2.72848e-12
46.8363
-6.82121e-13
46.8364
1.59162e-12
46.8365
4.54747e-13
46.8366
2.27374e-13
46.8367
-1.36424e-12
46.8367
-2.50111e-12
46.8368
-2.04636e-12
46.8369
-6.82121e-13
46.837
-1.59162e-12
46.837
-1.36424e-12
46.8371
-2.27374e-13
46.8371
2.27374e-12
46.8372
6.82121e-13
46.8372
-2.27374e-13
46.8373
-2.04636e-12
46.8373
-9.09495e-13
46.8374
1.13687e-12
46.8374
-1.36424e-12
46.8374
2.04636e-12
46.8374
-1.13687e-12
46.8375
-9.09495e-13
46.8375
-2.04636e-12
46.8375
-2.27374e-13
46.8375
-1.59162e-12
46.8375
-1.13687e-12
46.8375
2.04636e-12
46.8375
1.59162e-12
46.8375
-2.27374e-13
46.8374
-3.63798e-12
46.8374
-2.27374e-12
46.8374
-9.09495e-13
46.8373
-2.72848e-12
46.8373
-1.13687e-12
46.8372
-1.81899e-12
46.8372
-1.81899e-12
46.8371
-2.27374e-13
46.837
-1.36424e-12
46.8369
1.13687e-12
46.8368
-1.81899e-12
46.8367
2.27374e-13
46.8366
-2.27374e-13
46.8365
-1.36424e-12
46.8363
-4.54747e-13
46.8361
-2.27374e-12
46.8359
-1.13687e-12
46.8357
-2.04636e-12
46.8355
2.27374e-13
46.8352
-9.09495e-13
46.835
-1.13687e-12
46.8346
2.27374e-12
46.8343
2.27374e-13
46.8339
-2.04636e-12
46.8335
2.27374e-12
46.833
9.09495e-13
46.8325
2.50111e-12
46.832
0
46.8314
1.13687e-12
46.8307
-1.36424e-12
46.83
1.81899e-12
46.8292
8.6402e-12
46.8283
-3.18323e-12
46.8274
-3.41061e-12
46.8264
-2.09184e-11
46.8252
3.63798e-12
46.824
1.40972e-11
46.8227
3.86535e-12
46.8213
-6.82121e-13
46.8197
-1.13687e-12
46.8181
-3.18323e-12
46.8163
-2.95586e-12
46.8143
1.36424e-11
46.8122
-3.41061e-12
46.81
-7.50333e-12
46.8075
-3.86535e-12
46.8049
2.72848e-12
46.8021
2.95586e-12
46.7991
6.82121e-13
46.7958
-9.09495e-13
46.7924
4.09273e-12
46.7887
3.41061e-12
46.7847
1.59162e-12
46.7805
2.27374e-13
46.776
4.77485e-12
46.7712
3.63798e-12
46.7661
4.54747e-13
46.7606
-4.3201e-12
46.7549
1.59162e-12
46.7488
-9.09495e-13
46.7423
1.59162e-12
46.7355
-4.54747e-12
46.7282
1.59162e-12
46.7206
6.82121e-13
46.7125
9.09495e-13
46.704
-1.11413e-11
46.695
-3.86535e-12
46.6856
4.54747e-12
46.6757
1.90994e-11
46.6654
6.82121e-13
46.6545
1.97815e-11
46.643
1.65983e-10
46.6311
7.80574e-10
46.6186
3.5127e-09
46.6055
1.69166e-08
46.5918
8.01735e-08
46.5776
3.87525e-07
46.5627
1.86046e-06
46.5472
8.98808e-06
46.5311
4.32884e-05
46.5143
0.000208652
46.4967
0.00100528
46.4776
0.00484239
46.4541
0.0232954
46.4111
0.111704
46.2724
0.529544
45.665
2.45552
8.73962
43.4645
46.8274
-0.000185462
46.8275
-0.000157983
46.8276
-0.000139462
46.8277
-0.000142678
46.8278
-0.000143662
46.8279
-0.000143346
46.8281
-0.000143274
46.8282
-0.000143284
46.8283
-0.000143283
46.8284
-0.000143281
46.8285
-0.000143283
46.8286
-0.000143286
46.8288
-0.000143291
46.8289
-0.000143297
46.829
-0.000143304
46.8291
-0.00014331
46.8292
-0.000143318
46.8293
-0.000143325
46.8295
-0.000143333
46.8296
-0.000143341
46.8297
-0.000143349
46.8298
-0.000143357
46.83
-0.000143365
46.8301
-0.000143373
46.8302
-0.000143381
46.8303
-0.000143389
46.8304
-0.000143397
46.8306
-0.000143404
46.8307
-0.000143412
46.8308
-0.000143419
46.8309
-0.000143426
46.831
-0.000143433
46.8312
-0.00014344
46.8313
-0.000143447
46.8314
-0.000143446
46.8315
-0.000143454
46.8316
-0.000143461
46.8317
-0.000143508
46.8318
-0.00014349
46.8319
-0.000143501
46.832
-0.000143511
46.8321
-0.00014351
46.8322
-0.000143523
46.8323
-0.000143577
46.8325
-0.000143574
46.8327
-0.000143577
46.8328
-0.000143602
46.833
-0.000143615
46.8331
-0.000143632
46.8332
-0.000143647
46.8333
-0.00014366
46.8334
-0.00014367
46.8335
-0.000143673
46.8335
-0.000143743
46.8336
-0.000143726
46.8337
-0.000143737
46.8338
-0.000143731
46.8339
-0.000143771
46.834
-0.000143811
46.8341
-0.000143802
46.8341
-0.000143821
46.8342
-0.000143837
46.8343
-0.000143853
46.8344
-0.000143868
46.8345
-0.000143882
46.8346
-0.000143893
46.8348
-0.000143901
46.8349
-0.000143902
46.835
-0.000143894
46.8351
-0.000143874
46.8352
-0.000143838
46.8353
-0.000143779
46.8354
-0.00014369
46.8354
-0.000143567
46.8355
-0.000143373
46.8355
-0.000143158
46.8356
-0.000142837
46.8356
-0.000142419
46.8357
-0.000141889
46.8358
-0.000141197
46.8358
-0.000140395
46.8359
-0.000139593
46.8361
-0.000138041
46.8362
-0.000136686
46.8363
-0.000134979
46.8364
-0.000132953
46.8365
-0.000130619
46.8366
-0.000127956
46.8367
-0.000124949
46.8367
-0.000121593
46.8368
-0.000117887
46.8369
-0.000113839
46.837
-0.000109465
46.837
-0.000104788
46.8371
-9.98368e-05
46.8371
-9.46505e-05
46.8372
-8.92723e-05
46.8372
-8.37505e-05
46.8373
-7.81373e-05
46.8373
-7.24866e-05
46.8374
-6.68545e-05
46.8374
-6.12877e-05
46.8374
-5.58532e-05
46.8374
-5.05684e-05
46.8375
-4.55091e-05
46.8375
-4.06915e-05
46.8375
-3.61488e-05
46.8375
-3.19041e-05
46.8375
-2.7973e-05
46.8375
-2.43641e-05
46.8375
-2.10782e-05
46.8375
-1.81138e-05
46.8374
-1.54621e-05
46.8374
-1.3109e-05
46.8374
-1.1039e-05
46.8373
-9.23298e-06
46.8373
-7.67009e-06
46.8372
-6.3286e-06
46.8372
-5.18641e-06
46.8371
-4.22169e-06
46.837
-3.41333e-06
46.8369
-2.7413e-06
46.8368
-2.18701e-06
46.8367
-1.73337e-06
46.8366
-1.36502e-06
46.8365
-1.06821e-06
46.8363
-8.30917e-07
46.8361
-6.42696e-07
46.8359
-4.9458e-07
46.8357
-3.78982e-07
46.8355
-2.89526e-07
46.8352
-2.20902e-07
46.835
-1.68729e-07
46.8346
-1.29513e-07
46.8343
-1.00447e-07
46.8339
-7.92802e-08
46.8335
-6.4171e-08
46.833
-5.3725e-08
46.8325
-4.68253e-08
46.832
-4.26537e-08
46.8314
-4.05848e-08
46.8307
-4.01435e-08
46.83
-4.0968e-08
46.8292
-4.28006e-08
46.8283
-4.54734e-08
46.8274
-4.88208e-08
46.8264
-5.27646e-08
46.8252
-5.72129e-08
46.824
-6.21608e-08
46.8227
-6.75907e-08
46.8213
-7.34715e-08
46.8197
-7.98077e-08
46.8181
-8.66157e-08
46.8163
-9.38919e-08
46.8143
-1.01651e-07
46.8122
-1.09922e-07
46.81
-1.18708e-07
46.8075
-1.28035e-07
46.8049
-1.37919e-07
46.8021
-1.4838e-07
46.7991
-1.59436e-07
46.7958
-1.71104e-07
46.7924
-1.83396e-07
46.7887
-1.96344e-07
46.7847
-2.09949e-07
46.7805
-2.24222e-07
46.776
-2.39172e-07
46.7712
-2.54813e-07
46.7661
-2.71161e-07
46.7606
-2.88218e-07
46.7549
-3.05983e-07
46.7488
-3.24462e-07
46.7423
-3.43661e-07
46.7355
-3.63568e-07
46.7282
-3.84185e-07
46.7206
-4.0552e-07
46.7125
-4.2759e-07
46.704
-4.50383e-07
46.695
-4.73876e-07
46.6856
-4.98099e-07
46.6757
-5.2302e-07
46.6654
-5.48663e-07
46.6545
-5.74975e-07
46.643
-6.01939e-07
46.6311
-6.2918e-07
46.6186
-6.55391e-07
46.6055
-6.73543e-07
46.5918
-6.51343e-07
46.5776
-4.34354e-07
46.5627
7.1725e-07
46.5472
6.43802e-06
46.5311
3.40634e-05
46.5144
0.000167526
46.4971
0.000812119
46.48
0.00393214
46.4654
0.019101
46.464
0.093522
46.5114
0.461966
46.59
2.35609
7.95406
47.3539
46.8274
-0.000402095
46.8275
-0.00030195
46.8276
-0.000281303
46.8277
-0.000286219
46.8278
-0.000286632
46.828
-0.000286388
46.8281
-0.000286402
46.8282
-0.000286441
46.8283
-0.000286464
46.8284
-0.000286483
46.8285
-0.000286503
46.8287
-0.000286522
46.8288
-0.000286541
46.8289
-0.000286559
46.829
-0.000286578
46.8291
-0.000286596
46.8293
-0.000286614
46.8294
-0.000286632
46.8295
-0.00028665
46.8296
-0.000286668
46.8297
-0.000286686
46.8299
-0.000286703
46.83
-0.000286721
46.8301
-0.000286738
46.8302
-0.000286755
46.8303
-0.000286772
46.8305
-0.000286788
46.8306
-0.000286804
46.8307
-0.000286819
46.8308
-0.000286835
46.8309
-0.000286849
46.8311
-0.000286864
46.8312
-0.000286878
46.8313
-0.000286891
46.8314
-0.000286888
46.8315
-0.000286896
46.8316
-0.000286939
46.8317
-0.000287015
46.8318
-0.000286979
46.8319
-0.000287002
46.832
-0.000287023
46.8321
-0.000287015
46.8322
-0.000287041
46.8324
-0.000287163
46.8325
-0.000287148
46.8327
-0.000287161
46.8329
-0.000287202
46.833
-0.000287232
46.8331
-0.000287264
46.8332
-0.000287296
46.8333
-0.000287316
46.8334
-0.000287334
46.8335
-0.000287359
46.8336
-0.00028749
46.8336
-0.000287451
46.8337
-0.000287477
46.8338
-0.000287452
46.8339
-0.000287543
46.834
-0.000287632
46.8341
-0.000287606
46.8342
-0.000287642
46.8343
-0.000287675
46.8343
-0.000287707
46.8344
-0.000287738
46.8345
-0.000287765
46.8347
-0.000287787
46.8348
-0.0002878
46.8349
-0.000287802
46.835
-0.000287785
46.8352
-0.000287744
46.8353
-0.000287669
46.8353
-0.000287548
46.8354
-0.000287367
46.8355
-0.000287108
46.8355
-0.000286709
46.8356
-0.000286305
46.8356
-0.000285625
46.8357
-0.000284783
46.8357
-0.000283708
46.8358
-0.000282291
46.8359
-0.000280654
46.836
-0.000279122
46.8361
-0.000275858
46.8362
-0.000273195
46.8363
-0.000269723
46.8364
-0.000265637
46.8365
-0.000260928
46.8366
-0.000255557
46.8367
-0.000249499
46.8368
-0.000242741
46.8368
-0.000235284
46.8369
-0.000227145
46.837
-0.000218355
46.837
-0.00020896
46.8371
-0.000199024
46.8371
-0.000188621
46.8372
-0.000177841
46.8372
-0.000166779
46.8373
-0.000155542
46.8373
-0.000144237
46.8374
-0.000132972
46.8374
-0.000121862
46.8374
-0.000110994
46.8375
-0.000100454
46.8375
-9.03627e-05
46.8375
-8.07612e-05
46.8375
-7.17123e-05
46.8375
-6.32618e-05
46.8375
-5.54435e-05
46.8375
-4.82649e-05
46.8375
-4.17363e-05
46.8375
-3.585e-05
46.8374
-3.05871e-05
46.8374
-2.59197e-05
46.8374
-2.18164e-05
46.8373
-1.82383e-05
46.8373
-1.51437e-05
46.8372
-1.24891e-05
46.8372
-1.02302e-05
46.8371
-8.3233e-06
46.837
-6.72637e-06
46.8369
-5.39954e-06
46.8368
-4.30574e-06
46.8367
-3.41107e-06
46.8366
-2.68497e-06
46.8365
-2.10024e-06
46.8363
-1.63301e-06
46.8361
-1.2626e-06
46.836
-9.71267e-07
46.8357
-7.44023e-07
46.8355
-5.68292e-07
46.8352
-4.33522e-07
46.835
-3.31163e-07
46.8346
-2.54261e-07
46.8343
-1.97314e-07
46.8339
-1.55887e-07
46.8335
-1.26375e-07
46.833
-1.06005e-07
46.8325
-9.2602e-08
46.832
-8.45544e-08
46.8314
-8.06308e-08
46.8307
-7.99e-08
46.83
-8.16563e-08
46.8292
-8.54125e-08
46.8283
-9.07971e-08
46.8274
-9.75333e-08
46.8264
-1.05435e-07
46.8252
-1.14379e-07
46.824
-1.24298e-07
46.8227
-1.35159e-07
46.8213
-1.46926e-07
46.8197
-1.5961e-07
46.8181
-1.7322e-07
46.8163
-1.87772e-07
46.8143
-2.03304e-07
46.8122
-2.1984e-07
46.81
-2.37414e-07
46.8075
-2.56072e-07
46.8049
-2.75837e-07
46.8021
-2.96759e-07
46.7991
-3.18868e-07
46.7958
-3.42211e-07
46.7924
-3.66804e-07
46.7887
-3.92691e-07
46.7847
-4.19896e-07
46.7805
-4.48448e-07
46.776
-4.78351e-07
46.7712
-5.09635e-07
46.7661
-5.42321e-07
46.7606
-5.7643e-07
46.7549
-6.11967e-07
46.7488
-6.48931e-07
46.7423
-6.87323e-07
46.7355
-7.27132e-07
46.7282
-7.68372e-07
46.7206
-8.11048e-07
46.7125
-8.55185e-07
46.704
-9.00753e-07
46.695
-9.47766e-07
46.6856
-9.962e-07
46.6757
-1.04606e-06
46.6654
-1.09733e-06
46.6545
-1.15001e-06
46.643
-1.20408e-06
46.6311
-1.25939e-06
46.6186
-1.31547e-06
46.6055
-1.36973e-06
46.5918
-1.4106e-06
46.5776
-1.38144e-06
46.5627
-1.01144e-06
46.5472
1.03148e-06
46.5311
1.10603e-05
46.5145
5.97859e-05
46.4975
0.000295363
46.482
0.00143779
46.4752
0.00702044
46.5142
0.0350862
46.7712
0.184874
47.8292
1.2771
4.09452
51.6671
10.6083
-0.000460229
10.6084
-0.00032924
10.6084
-0.000315396
10.6084
-0.000318807
10.6084
-0.000319002
10.6085
-0.000318854
10.6085
-0.00031887
10.6085
-0.000318901
10.6085
-0.000318922
10.6086
-0.000318942
10.6086
-0.000318963
10.6086
-0.000318982
10.6086
-0.000319002
10.6087
-0.000319022
10.6087
-0.000319042
10.6087
-0.000319061
10.6087
-0.000319081
10.6088
-0.000319101
10.6088
-0.00031912
10.6088
-0.00031914
10.6089
-0.000319159
10.6089
-0.000319179
10.6089
-0.000319198
10.6089
-0.000319217
10.609
-0.000319236
10.609
-0.000319255
10.609
-0.000319273
10.609
-0.00031929
10.6091
-0.000319307
10.6091
-0.000319324
10.6091
-0.00031934
10.6092
-0.000319356
10.6092
-0.000319372
10.6092
-0.000319385
10.6092
-0.000319382
10.6093
-0.000319388
10.6093
-0.000319447
10.6093
-0.000319524
10.6093
-0.000319484
10.6093
-0.000319509
10.6094
-0.000319534
10.6094
-0.000319522
10.6094
-0.00031955
10.6095
-0.000319692
10.6095
-0.000319671
10.6095
-0.000319689
10.6096
-0.000319731
10.6096
-0.000319765
10.6096
-0.000319801
10.6096
-0.000319836
10.6097
-0.000319856
10.6097
-0.000319876
10.6097
-0.000319911
10.6097
-0.000320052
10.6097