/*--------------------------------*- C++ -*----------------------------------*\
| =========                 |                                                 |
| \\      /  F ield         | OpenFOAM: The Open Source CFD Toolbox           |
|  \\    /   O peration     | Version:  3.0.x                                 |
|   \\  /    A nd           | Web:      www.OpenFOAM.org                      |
|    \\/     M anipulation  |                                                 |
\*---------------------------------------------------------------------------*/
FoamFile
{
    version     2.0;
    format      ascii;
    class       volScalarField;
    location    "0.429975";
    object      T;
}
// * * * * * * * * * * * * * * * * * * * * * * * * * * * * * * * * * * * * * //

dimensions      [0 0 0 1 0 0 0];

internalField   nonuniform List<scalar> 
13800
(
773.273
773.273
773.273
773.273
773.273
773.273
773.273
773.272
773.272
773.272
773.272
773.272
773.272
773.272
773.272
773.272
773.272
773.272
773.272
773.272
773.272
773.272
773.272
773.272
773.272
773.272
773.271
773.271
773.271
773.271
773.271
773.271
773.271
773.271
773.271
773.271
773.271
773.271
773.272
773.272
773.272
773.272
773.272
773.272
773.271
773.27
773.269
773.268
773.268
773.267
773.267
773.267
773.268
773.268
773.268
773.268
773.268
773.268
773.268
773.268
773.267
773.267
773.267
773.266
773.266
773.265
773.264
773.263
773.262
773.261
773.26
773.26
773.26
773.26
773.26
773.26
773.261
773.261
773.261
773.261
773.261
773.26
773.259
773.258
773.258
773.257
773.256
773.256
773.256
773.255
773.255
773.255
773.255
773.255
773.255
773.255
773.255
773.255
773.255
773.255
773.255
773.255
773.255
773.255
773.255
773.255
773.255
773.255
773.255
773.255
773.255
773.255
773.255
773.255
773.255
773.255
773.255
773.255
773.255
773.255
773.255
773.255
773.255
773.255
773.255
773.255
773.255
773.255
773.255
773.255
773.255
773.255
773.256
773.256
773.256
773.256
773.256
773.256
773.256
773.256
773.257
773.257
773.257
773.257
773.258
773.258
773.258
773.259
773.259
773.259
773.26
773.26
773.261
773.261
773.262
773.263
773.263
773.264
773.265
773.266
773.267
773.268
773.269
773.27
773.271
773.272
773.274
773.275
773.277
773.279
773.28
773.282
773.284
773.286
773.289
773.291
773.294
773.296
773.299
773.302
773.305
773.308
773.312
773.315
773.319
773.323
773.327
773.331
773.336
773.34
773.345
773.35
773.356
773.361
773.366
773.374
773.379
773.393
773.402
773.61
773.26
773.26
773.26
773.26
773.26
773.26
773.26
773.26
773.26
773.26
773.26
773.26
773.26
773.26
773.26
773.26
773.26
773.26
773.26
773.26
773.26
773.26
773.26
773.26
773.26
773.26
773.26
773.26
773.26
773.26
773.26
773.26
773.26
773.26
773.26
773.26
773.26
773.26
773.261
773.261
773.261
773.261
773.261
773.261
773.26
773.259
773.258
773.258
773.257
773.257
773.257
773.257
773.257
773.258
773.258
773.258
773.258
773.258
773.258
773.258
773.257
773.257
773.257
773.257
773.256
773.255
773.255
773.253
773.253
773.252
773.251
773.251
773.251
773.251
773.251
773.251
773.251
773.252
773.252
773.252
773.252
773.251
773.251
773.25
773.249
773.248
773.248
773.247
773.247
773.247
773.247
773.247
773.247
773.247
773.247
773.247
773.247
773.247
773.247
773.247
773.247
773.247
773.247
773.247
773.247
773.247
773.247
773.247
773.247
773.247
773.247
773.247
773.247
773.247
773.247
773.247
773.247
773.247
773.247
773.247
773.247
773.247
773.247
773.247
773.247
773.247
773.247
773.247
773.247
773.247
773.247
773.247
773.247
773.248
773.248
773.248
773.248
773.248
773.248
773.248
773.249
773.249
773.249
773.249
773.249
773.25
773.25
773.25
773.251
773.251
773.252
773.252
773.253
773.253
773.254
773.254
773.255
773.256
773.257
773.258
773.259
773.26
773.261
773.262
773.263
773.264
773.266
773.267
773.269
773.27
773.272
773.274
773.276
773.278
773.281
773.283
773.285
773.288
773.291
773.294
773.297
773.3
773.304
773.307
773.311
773.315
773.319
773.323
773.328
773.332
773.337
773.342
773.347
773.353
773.358
773.365
773.371
773.386
773.393
773.632
773.26
773.26
773.26
773.26
773.26
773.26
773.26
773.26
773.26
773.26
773.26
773.26
773.26
773.26
773.26
773.26
773.26
773.26
773.26
773.26
773.26
773.26
773.26
773.26
773.26
773.26
773.26
773.26
773.26
773.26
773.26
773.26
773.26
773.26
773.26
773.26
773.26
773.26
773.261
773.261
773.261
773.261
773.261
773.261
773.26
773.259
773.258
773.258
773.257
773.257
773.257
773.257
773.257
773.258
773.258
773.258
773.258
773.258
773.258
773.258
773.257
773.257
773.257
773.257
773.256
773.255
773.255
773.253
773.252
773.252
773.251
773.251
773.251
773.251
773.251
773.251
773.251
773.252
773.252
773.252
773.252
773.251
773.251
773.25
773.249
773.248
773.248
773.247
773.247
773.247
773.247
773.247
773.247
773.247
773.247
773.247
773.247
773.247
773.247
773.247
773.247
773.247
773.247
773.247
773.247
773.247
773.247
773.247
773.247
773.247
773.247
773.247
773.247
773.247
773.247
773.247
773.247
773.247
773.247
773.247
773.247
773.247
773.247
773.247
773.247
773.247
773.247
773.247
773.247
773.247
773.247
773.247
773.247
773.247
773.248
773.248
773.248
773.248
773.248
773.248
773.249
773.249
773.249
773.249
773.249
773.25
773.25
773.25
773.251
773.251
773.252
773.252
773.253
773.253
773.254
773.254
773.255
773.256
773.257
773.258
773.259
773.26
773.261
773.262
773.263
773.264
773.266
773.267
773.269
773.27
773.272
773.274
773.276
773.278
773.281
773.283
773.285
773.288
773.291
773.294
773.297
773.3
773.304
773.307
773.311
773.315
773.319
773.323
773.328
773.332
773.337
773.342
773.347
773.353
773.358
773.365
773.371
773.386
773.393
773.625
773.26
773.26
773.26
773.26
773.26
773.26
773.26
773.26
773.26
773.26
773.26
773.26
773.26
773.26
773.26
773.26
773.26
773.26
773.26
773.26
773.26
773.26
773.26
773.26
773.26
773.26
773.26
773.26
773.26
773.26
773.26
773.26
773.26
773.26
773.26
773.26
773.26
773.26
773.261
773.261
773.261
773.261
773.261
773.261
773.26
773.259
773.258
773.258
773.257
773.257
773.257
773.257
773.257
773.258
773.258
773.258
773.258
773.258
773.258
773.258
773.257
773.257
773.257
773.257
773.256
773.255
773.255
773.254
773.253
773.252
773.251
773.251
773.251
773.251
773.251
773.251
773.251
773.252
773.252
773.252
773.252
773.251
773.251
773.25
773.249
773.248
773.248
773.247
773.247
773.247
773.247
773.247
773.247
773.247
773.247
773.247
773.247
773.247
773.247
773.247
773.247
773.247
773.247
773.247
773.247
773.247
773.247
773.247
773.247
773.247
773.247
773.247
773.247
773.247
773.247
773.247
773.247
773.247
773.247
773.247
773.247
773.247
773.247
773.247
773.247
773.247
773.247
773.247
773.247
773.247
773.247
773.247
773.247
773.247
773.248
773.248
773.248
773.248
773.248
773.248
773.249
773.249
773.249
773.249
773.249
773.25
773.25
773.25
773.251
773.251
773.252
773.252
773.253
773.253
773.254
773.254
773.255
773.256
773.257
773.258
773.259
773.26
773.261
773.262
773.263
773.264
773.266
773.267
773.269
773.27
773.272
773.274
773.276
773.278
773.281
773.283
773.285
773.288
773.291
773.294
773.297
773.3
773.304
773.307
773.311
773.315
773.319
773.323
773.328
773.332
773.337
773.342
773.347
773.353
773.358
773.365
773.37
773.384
773.392
773.567
773.26
773.26
773.26
773.26
773.26
773.26
773.26
773.26
773.26
773.26
773.26
773.26
773.26
773.26
773.26
773.26
773.26
773.26
773.26
773.26
773.26
773.26
773.26
773.26
773.26
773.26
773.26
773.26
773.26
773.26
773.26
773.26
773.26
773.26
773.26
773.26
773.26
773.26
773.261
773.261
773.261
773.261
773.261
773.261
773.26
773.259
773.258
773.258
773.257
773.257
773.257
773.257
773.257
773.258
773.258
773.258
773.258
773.258
773.258
773.258
773.257
773.257
773.257
773.257
773.256
773.256
773.255
773.254
773.253
773.252
773.251
773.251
773.251
773.251
773.251
773.251
773.251
773.252
773.252
773.252
773.252
773.251
773.251
773.25
773.249
773.248
773.248
773.247
773.247
773.247
773.247
773.247
773.247
773.247
773.247
773.247
773.247
773.247
773.247
773.247
773.247
773.247
773.247
773.247
773.247
773.247
773.247
773.247
773.247
773.247
773.247
773.247
773.247
773.247
773.247
773.247
773.247
773.247
773.247
773.247
773.247
773.247
773.247
773.247
773.247
773.247
773.247
773.247
773.247
773.247
773.247
773.247
773.247
773.247
773.248
773.248
773.248
773.248
773.248
773.248
773.249
773.249
773.249
773.249
773.249
773.25
773.25
773.25
773.251
773.251
773.252
773.252
773.253
773.253
773.254
773.254
773.255
773.256
773.257
773.258
773.259
773.26
773.261
773.262
773.263
773.264
773.266
773.267
773.269
773.27
773.272
773.274
773.276
773.278
773.281
773.283
773.285
773.288
773.291
773.294
773.297
773.3
773.304
773.307
773.311
773.315
773.319
773.323
773.328
773.332
773.337
773.342
773.347
773.353
773.358
773.365
773.37
773.382
773.386
773.502
773.26
773.26
773.26
773.26
773.26
773.26
773.26
773.26
773.26
773.26
773.26
773.26
773.26
773.26
773.26
773.26
773.26
773.26
773.26
773.26
773.26
773.26
773.26
773.26
773.26
773.26
773.26
773.26
773.26
773.26
773.26
773.26
773.26
773.26
773.26
773.26
773.26
773.26
773.261
773.261
773.261
773.261
773.261
773.261
773.26
773.259
773.258
773.258
773.257
773.257
773.257
773.257
773.257
773.258
773.258
773.258
773.258
773.258
773.258
773.258
773.257
773.257
773.257
773.257
773.256
773.256
773.255
773.254
773.253
773.252
773.251
773.251
773.251
773.251
773.251
773.251
773.251
773.252
773.252
773.252
773.252
773.251
773.251
773.25
773.249
773.248
773.248
773.247
773.247
773.247
773.247
773.247
773.247
773.247
773.247
773.247
773.247
773.247
773.247
773.247
773.247
773.247
773.247
773.247
773.247
773.247
773.247
773.247
773.247
773.247
773.247
773.247
773.247
773.247
773.247
773.247
773.247
773.247
773.247
773.247
773.247
773.247
773.247
773.247
773.247
773.247
773.247
773.247
773.247
773.247
773.247
773.247
773.247
773.247
773.248
773.248
773.248
773.248
773.248
773.248
773.249
773.249
773.249
773.249
773.249
773.25
773.25
773.25
773.251
773.251
773.252
773.252
773.253
773.253
773.254
773.254
773.255
773.256
773.257
773.258
773.259
773.26
773.261
773.262
773.263
773.264
773.266
773.267
773.269
773.27
773.272
773.274
773.276
773.278
773.281
773.283
773.285
773.288
773.291
773.294
773.297
773.3
773.304
773.307
773.311
773.315
773.319
773.323
773.328
773.332
773.337
773.342
773.347
773.353
773.359
773.364
773.37
773.377
773.378
773.354
773.26
773.26
773.26
773.26
773.26
773.26
773.26
773.26
773.26
773.26
773.26
773.26
773.26
773.26
773.26
773.26
773.26
773.26
773.26
773.26
773.26
773.26
773.26
773.26
773.26
773.26
773.26
773.26
773.26
773.26
773.26
773.26
773.26
773.26
773.26
773.26
773.26
773.26
773.261
773.261
773.261
773.261
773.261
773.261
773.26
773.259
773.258
773.258
773.257
773.257
773.257
773.257
773.257
773.258
773.258
773.258
773.258
773.258
773.258
773.258
773.257
773.257
773.257
773.257
773.256
773.255
773.255
773.254
773.253
773.252
773.251
773.251
773.251
773.251
773.251
773.251
773.251
773.252
773.252
773.252
773.252
773.251
773.251
773.25
773.249
773.248
773.248
773.247
773.247
773.247
773.247
773.247
773.247
773.247
773.247
773.247
773.247
773.247
773.247
773.247
773.247
773.247
773.247
773.247
773.247
773.247
773.247
773.247
773.247
773.247
773.247
773.247
773.247
773.247
773.247
773.247
773.247
773.247
773.247
773.247
773.247
773.247
773.247
773.247
773.247
773.247
773.247
773.247
773.247
773.247
773.247
773.247
773.247
773.247
773.248
773.248
773.248
773.248
773.248
773.248
773.249
773.249
773.249
773.249
773.249
773.25
773.25
773.25
773.251
773.251
773.252
773.252
773.253
773.253
773.254
773.254
773.255
773.256
773.257
773.258
773.259
773.26
773.261
773.262
773.263
773.264
773.266
773.267
773.269
773.27
773.272
773.274
773.276
773.278
773.281
773.283
773.285
773.288
773.291
773.294
773.297
773.3
773.304
773.307
773.311
773.315
773.319
773.323
773.328
773.332
773.337
773.342
773.347
773.353
773.359
773.363
773.372
773.37
773.37
773.161
773.26
773.26
773.26
773.26
773.26
773.26
773.26
773.26
773.26
773.26
773.26
773.26
773.26
773.26
773.26
773.26
773.26
773.26
773.26
773.26
773.26
773.26
773.26
773.26
773.26
773.26
773.26
773.26
773.26
773.26
773.26
773.26
773.26
773.26
773.26
773.26
773.26
773.26
773.261
773.261
773.261
773.261
773.261
773.261
773.26
773.259
773.258
773.258
773.257
773.257
773.257
773.257
773.257
773.258
773.258
773.258
773.258
773.258
773.258
773.258
773.257
773.257
773.257
773.257
773.256
773.255
773.255
773.253
773.252
773.252
773.251
773.251
773.251
773.251
773.251
773.251
773.251
773.252
773.252
773.252
773.252
773.251
773.251
773.25
773.249
773.248
773.248
773.247
773.247
773.247
773.247
773.247
773.247
773.247
773.247
773.247
773.247
773.247
773.247
773.247
773.247
773.247
773.247
773.247
773.247
773.247
773.247
773.247
773.247
773.247
773.247
773.247
773.247
773.247
773.247
773.247
773.247
773.247
773.247
773.247
773.247
773.247
773.247
773.247
773.247
773.247
773.247
773.247
773.247
773.247
773.247
773.247
773.247
773.247
773.248
773.248
773.248
773.248
773.248
773.248
773.249
773.249
773.249
773.249
773.249
773.25
773.25
773.25
773.251
773.251
773.252
773.252
773.253
773.253
773.254
773.254
773.255
773.256
773.257
773.258
773.259
773.26
773.261
773.262
773.263
773.264
773.266
773.267
773.269
773.27
773.272
773.274
773.276
773.278
773.281
773.283
773.285
773.288
773.291
773.294
773.297
773.3
773.304
773.307
773.311
773.315
773.319
773.323
773.328
773.332
773.337
773.342
773.347
773.353
773.359
773.363
773.372
773.365
773.389
772.882
773.26
773.26
773.26
773.26
773.26
773.26
773.26
773.26
773.26
773.26
773.26
773.26
773.26
773.26
773.26
773.26
773.26
773.26
773.26
773.26
773.26
773.26
773.26
773.26
773.26
773.26
773.26
773.26
773.26
773.26
773.26
773.26
773.26
773.26
773.26
773.26
773.26
773.26
773.261
773.261
773.261
773.261
773.261
773.261
773.26
773.259
773.258
773.258
773.257
773.257
773.257
773.257
773.257
773.258
773.258
773.258
773.258
773.258
773.258
773.258
773.257
773.257
773.257
773.257
773.256
773.255
773.255
773.253
773.253
773.252
773.251
773.251
773.251
773.251
773.251
773.251
773.251
773.252
773.252
773.252
773.252
773.251
773.251
773.25
773.249
773.248
773.248
773.247
773.247
773.247
773.247
773.247
773.247
773.247
773.247
773.247
773.247
773.247
773.247
773.247
773.247
773.247
773.247
773.247
773.247
773.247
773.247
773.247
773.247
773.247
773.247
773.247
773.247
773.247
773.247
773.247
773.247
773.247
773.247
773.247
773.247
773.247
773.247
773.247
773.247
773.247
773.247
773.247
773.247
773.247
773.247
773.247
773.247
773.248
773.248
773.248
773.248
773.248
773.248
773.248
773.249
773.249
773.249
773.249
773.249
773.25
773.25
773.25
773.251
773.251
773.252
773.252
773.253
773.253
773.254
773.254
773.255
773.256
773.257
773.258
773.259
773.26
773.261
773.262
773.263
773.264
773.266
773.267
773.269
773.27
773.272
773.274
773.276
773.278
773.281
773.283
773.285
773.288
773.291
773.294
773.297
773.3
773.304
773.307
773.311
773.315
773.319
773.323
773.328
773.332
773.337
773.342
773.348
773.353
773.359
773.363
773.372
773.363
773.403
772.743
773.273
773.273
773.273
773.273
773.273
773.273
773.273
773.272
773.272
773.272
773.272
773.272
773.272
773.272
773.272
773.272
773.272
773.272
773.272
773.272
773.272
773.272
773.272
773.272
773.272
773.272
773.271
773.271
773.271
773.271
773.271
773.271
773.271
773.271
773.271
773.271
773.271
773.271
773.272
773.272
773.272
773.272
773.272
773.272
773.271
773.27
773.269
773.268
773.268
773.267
773.267
773.267
773.268
773.268
773.268
773.268
773.268
773.268
773.268
773.268
773.267
773.267
773.267
773.266
773.266
773.265
773.264
773.263
773.262
773.261
773.26
773.26
773.26
773.26
773.26
773.26
773.261
773.261
773.261
773.261
773.261
773.26
773.259
773.258
773.258
773.257
773.256
773.256
773.256
773.255
773.255
773.255
773.255
773.255
773.255
773.255
773.255
773.255
773.255
773.255
773.255
773.255
773.255
773.255
773.255
773.255
773.255
773.255
773.255
773.255
773.255
773.255
773.255
773.255
773.255
773.255
773.255
773.255
773.255
773.255
773.255
773.255
773.255
773.255
773.255
773.255
773.255
773.255
773.255
773.255
773.255
773.255
773.256
773.256
773.256
773.256
773.256
773.256
773.256
773.256
773.257
773.257
773.257
773.257
773.258
773.258
773.258
773.259
773.259
773.259
773.26
773.26
773.261
773.261
773.262
773.263
773.263
773.264
773.265
773.266
773.267
773.268
773.269
773.27
773.271
773.272
773.274
773.275
773.277
773.279
773.28
773.282
773.284
773.286
773.289
773.291
773.294
773.296
773.299
773.302
773.305
773.308
773.312
773.315
773.319
773.323
773.327
773.331
773.336
773.34
773.345
773.35
773.356
773.361
773.367
773.371
773.381
773.37
773.425
772.619
773.58
773.617
773.642
773.651
773.658
773.662
773.665
773.667
773.67
773.671
773.673
773.674
773.674
773.673
773.671
773.667
773.659
773.646
773.625
773.582
773.571
773.598
773.613
773.618
773.622
773.624
773.625
773.625
773.626
773.626
773.627
773.626
773.626
773.624
773.622
773.617
773.61
773.597
773.577
773.538
773.569
773.596
773.615
773.62
773.625
773.628
773.631
773.633
773.634
773.634
773.634
773.633
773.632
773.629
773.624
773.617
773.607
773.591
773.568
773.531
773.524
773.539
773.546
773.548
773.551
773.554
773.557
773.56
773.564
773.568
773.573
773.578
773.583
773.588
773.592
773.593
773.591
773.583
773.568
773.544
773.473
773.492
773.507
773.519
773.526
773.532
773.534
773.532
773.53
773.524
773.518
773.507
773.497
773.485
773.472
773.458
773.445
773.433
773.422
773.414
773.371
773.364
773.351
773.342
773.334
773.333
773.334
773.338
773.344
773.353
773.366
773.383
773.399
773.417
773.438
773.456
773.478
773.493
773.511
773.518
773.25
773.241
773.242
773.246
773.248
773.244
773.242
773.233
773.225
773.209
773.196
773.177
773.162
773.142
773.129
773.116
773.115
773.12
773.138
773.154
773.085
773.04
773.001
772.978
772.968
772.962
772.961
772.964
772.973
772.987
773.006
773.028
773.055
773.085
773.118
773.151
773.198
773.235
773.293
773.344
772.978
772.933
772.889
772.86
772.839
772.823
772.809
772.799
772.791
772.787
772.788
772.792
772.802
772.817
772.835
772.856
772.885
772.927
772.984
773.058
772.92
772.856
772.782
772.756
772.736
772.736
772.745
772.754
772.771
772.796
772.822
772.857
772.891
772.935
772.975
773.022
773.073
773.134
773.21
773.294
773.46
773.423
773.419
773.423
773.427
773.433
773.44
773.448
773.456
773.463
773.471
773.48
773.488
773.496
773.505
773.513
773.522
773.532
773.541
773.551
773.561
773.571
773.581
773.591
773.601
773.611
773.622
773.633
773.644
773.655
773.667
773.678
773.69
773.702
773.714
773.727
773.74
773.753
773.766
773.78
773.793
773.807
773.82
773.834
773.848
773.863
773.877
773.892
773.908
773.923
773.938
773.954
773.97
773.986
774.002
774.018
774.035
774.052
774.069
774.087
774.104
774.122
774.14
774.158
774.176
774.195
774.215
774.234
774.254
774.274
774.293
774.313
774.334
774.354
774.375
774.396
774.417
774.438
774.46
774.481
774.503
774.526
774.548
774.571
774.594
774.618
774.642
774.665
774.689
774.713
774.738
774.762
774.788
774.813
774.838
774.864
774.889
774.915
774.94
774.967
774.993
775.02
775.047
775.073
775.097
775.12
775.143
775.167
775.192
775.219
775.247
775.274
775.298
775.319
775.342
775.382
775.475
775.739
776.281
776.869
777.427
777.91
778.295
778.571
778.738
778.812
778.822
778.779
778.53
777.925
777.344
776.873
776.518
776.273
776.126
776.055
776.033
776.032
776.04
776.075
776.135
776.191
776.243
776.292
776.337
776.38
776.421
776.462
776.502
776.541
776.58
776.619
776.658
776.697
776.736
776.775
776.814
776.854
776.893
776.933
776.972
777.012
777.052
777.092
777.133
777.173
777.214
777.255
777.296
777.337
777.378
777.419
777.461
777.503
777.544
777.586
777.629
777.671
777.713
777.756
777.799
777.84
777.886
777.925
777.974
778.01
778.061
778.097
778.149
778.184
778.238
778.271
778.327
778.358
778.416
778.446
778.505
778.531
778.615
778.391
773.429
773.396
773.393
773.397
773.4
773.407
773.414
773.422
773.43
773.437
773.445
773.453
773.461
773.47
773.478
773.487
773.496
773.505
773.515
773.524
773.534
773.544
773.554
773.564
773.574
773.584
773.595
773.606
773.617
773.628
773.639
773.651
773.663
773.675
773.687
773.7
773.712
773.725
773.739
773.752
773.766
773.779
773.793
773.807
773.821
773.835
773.85
773.864
773.88
773.895
773.911
773.926
773.942
773.958
773.974
773.991
774.007
774.024
774.041
774.059
774.076
774.094
774.112
774.13
774.148
774.167
774.186
774.206
774.225
774.245
774.265
774.285
774.306
774.326
774.347
774.368
774.389
774.41
774.432
774.453
774.475
774.497
774.52
774.543
774.566
774.589
774.613
774.637
774.661
774.685
774.71
774.734
774.759
774.784
774.81
774.836
774.862
774.888
774.914
774.941
774.967
774.994
775.02
775.046
775.072
775.098
775.124
775.151
775.18
775.209
775.238
775.266
775.289
775.304
775.312
775.317
775.321
775.327
775.338
775.352
775.366
775.387
775.431
775.533
775.672
775.815
775.947
776.058
776.143
776.2
776.231
776.241
776.236
776.202
776.153
776.13
776.127
776.129
776.136
776.157
776.189
776.224
776.262
776.3
776.339
776.378
776.417
776.456
776.495
776.534
776.572
776.611
776.65
776.689
776.728
776.767
776.806
776.846
776.885
776.925
776.964
777.004
777.044
777.085
777.125
777.165
777.206
777.247
777.288
777.329
777.37
777.411
777.453
777.495
777.537
777.578
777.621
777.663
777.705
777.748
777.791
777.832
777.878
777.917
777.966
778.003
778.053
778.089
778.141
778.176
778.23
778.263
778.319
778.35
778.409
778.438
778.497
778.524
778.602
778.43
773.432
773.401
773.398
773.402
773.405
773.411
773.419
773.427
773.434
773.442
773.45
773.458
773.466
773.474
773.483
773.491
773.5
773.51
773.519
773.529
773.539
773.549
773.559
773.569
773.579
773.589
773.6
773.61
773.621
773.633
773.644
773.656
773.668
773.68
773.692
773.704
773.717
773.73
773.743
773.757
773.77
773.784
773.798
773.812
773.826
773.84
773.854
773.869
773.884
773.9
773.915
773.931
773.947
773.963
773.979
773.995
774.012
774.029
774.046
774.063
774.081
774.099
774.117
774.135
774.153
774.171
774.191
774.21
774.23
774.25
774.27
774.29
774.31
774.331
774.351
774.372
774.393
774.415
774.436
774.458
774.48
774.502
774.524
774.547
774.57
774.594
774.617
774.641
774.665
774.689
774.714
774.739
774.764
774.789
774.815
774.84
774.866
774.893
774.919
774.945
774.972
774.999
775.026
775.052
775.079
775.105
775.131
775.158
775.185
775.214
775.244
775.275
775.302
775.322
775.331
775.332
775.317
775.279
775.258
775.255
775.257
775.264
775.278
775.298
775.342
775.435
775.549
775.666
775.775
775.869
775.946
776.007
776.054
776.085
776.106
776.122
776.134
776.147
776.163
776.185
776.211
776.24
776.273
776.308
776.344
776.381
776.419
776.457
776.496
776.534
776.573
776.612
776.65
776.689
776.728
776.767
776.807
776.846
776.885
776.925
776.965
777.004
777.044
777.085
777.125
777.165
777.206
777.247
777.288
777.329
777.37
777.411
777.453
777.495
777.536
777.578
777.621
777.663
777.705
777.748
777.791
777.832
777.878
777.917
777.966
778.003
778.053
778.089
778.141
778.176
778.23
778.263
778.319
778.35
778.409
778.438
778.497
778.524
778.597
778.49
773.477
773.457
773.461
773.464
773.471
773.479
773.487
773.494
773.502
773.51
773.518
773.526
773.534
773.543
773.551
773.56
773.569
773.578
773.587
773.597
773.607
773.617
773.627
773.637
773.647
773.658
773.668
773.679
773.69
773.701
773.713
773.724
773.736
773.748
773.76
773.772
773.785
773.798
773.812
773.825
773.839
773.852
773.866
773.88
773.894
773.908
773.923
773.938
773.953
773.968
773.984
773.999
774.015
774.031
774.047
774.064
774.08
774.097
774.115
774.132
774.149
774.167
774.184
774.203
774.221
774.24
774.259
774.279
774.298
774.318
774.338
774.358
774.378
774.399
774.419
774.44
774.461
774.483
774.504
774.526
774.548
774.57
774.593
774.616
774.639
774.662
774.685
774.709
774.733
774.757
774.782
774.806
774.831
774.856
774.881
774.906
774.931
774.957
774.983
775.009
775.035
775.06
775.084
775.108
775.133
775.158
775.183
775.21
775.239
775.269
775.297
775.321
775.339
775.35
775.352
775.35
775.35
775.353
775.362
775.378
775.393
775.412
775.444
775.489
775.547
775.61
775.674
775.735
775.791
775.842
775.888
775.929
775.965
775.997
776.026
776.054
776.082
776.111
776.142
776.174
776.207
776.242
776.277
776.314
776.35
776.387
776.425
776.462
776.5
776.538
776.576
776.614
776.653
776.691
776.73
776.768
776.807
776.847
776.886
776.925
776.965
777.005
777.045
777.085
777.125
777.165
777.206
777.247
777.288
777.329
777.37
777.411
777.453
777.495
777.536
777.579
777.621
777.663
777.705
777.748
777.791
777.833
777.878
777.917
777.965
778.004
778.051
778.092
778.138
778.178
778.229
778.263
778.319
778.351
778.407
778.44
778.497
778.525
778.588
778.585
773.391
773.388
773.386
773.387
773.39
773.394
773.4
773.407
773.415
773.423
773.43
773.438
773.447
773.455
773.464
773.472
773.481
773.49
773.5
773.509
773.519
773.529
773.539
773.549
773.559
773.57
773.581
773.592
773.603
773.614
773.625
773.637
773.649
773.661
773.673
773.685
773.698
773.711
773.724
773.737
773.75
773.764
773.778
773.792
773.806
773.821
773.835
773.85
773.865
773.88
773.896
773.911
773.927
773.943
773.96
773.976
773.993
774.01
774.027
774.044
774.062
774.08
774.098
774.116
774.135
774.153
774.172
774.191
774.21
774.23
774.25
774.27
774.29
774.311
774.332
774.353
774.374
774.396
774.417
774.439
774.461
774.484
774.506
774.529
774.552
774.575
774.599
774.623
774.647
774.672
774.696
774.721
774.746
774.772
774.797
774.823
774.849
774.876
774.903
774.93
774.957
774.985
775.013
775.042
775.069
775.097
775.126
775.154
775.183
775.212
775.241
775.271
775.302
775.333
775.362
775.387
775.408
775.427
775.447
775.467
775.488
775.511
775.537
775.568
775.603
775.642
775.683
775.724
775.766
775.806
775.846
775.884
775.921
775.957
775.993
776.029
776.064
776.1
776.135
776.171
776.207
776.243
776.279
776.316
776.353
776.39
776.427
776.464
776.502
776.539
776.577
776.615
776.653
776.692
776.73
776.769
776.808
776.847
776.886
776.925
776.965
777.005
777.045
777.085
777.125
777.165
777.206
777.247
777.288
777.329
777.37
777.411
777.453
777.495
777.536
777.578
777.621
777.663
777.705
777.748
777.791
777.834
777.876
777.921
777.961
778.008
778.049
778.093
778.138
778.179
778.227
778.267
778.314
778.357
778.4
778.449
778.486
778.537
778.578
778.617
773.542
773.562
773.579
773.593
773.604
773.613
773.621
773.629
773.637
773.645
773.653
773.661
773.669
773.677
773.686
773.695
773.704
773.712
773.722
773.731
773.741
773.751
773.762
773.772
773.782
773.793
773.803
773.814
773.825
773.836
773.848
773.859
773.871
773.882
773.895
773.907
773.92
773.933
773.946
773.96
773.973
773.987
774.001
774.015
774.029
774.043
774.058
774.072
774.087
774.103
774.118
774.134
774.149
774.165
774.181
774.198
774.214
774.231
774.248
774.265
774.283
774.3
774.318
774.337
774.355
774.374
774.393
774.412
774.431
774.451
774.47
774.49
774.51
774.531
774.551
774.572
774.592
774.613
774.634
774.654
774.675
774.697
774.718
774.74
774.762
774.784
774.806
774.827
774.849
774.87
774.892
774.915
774.938
774.961
774.983
775.006
775.028
775.05
775.071
775.092
775.113
775.135
775.158
775.182
775.207
775.234
775.262
775.289
775.314
775.334
775.35
775.36
775.368
775.374
775.381
775.389
775.401
775.417
775.436
775.458
775.48
775.505
775.533
775.565
775.602
775.642
775.684
775.727
775.769
775.811
775.852
775.891
775.929
775.967
776.003
776.039
776.075
776.11
776.146
776.181
776.216
776.252
776.287
776.323
776.359
776.395
776.432
776.468
776.505
776.542
776.58
776.617
776.655
776.693
776.731
776.77
776.809
776.848
776.887
776.926
776.965
777.005
777.045
777.085
777.125
777.166
777.206
777.247
777.288
777.329
777.37
777.411
777.453
777.495
777.536
777.579
777.62
777.663
777.705
777.749
777.79
777.835
777.875
777.921
777.961
778.009
778.047
778.097
778.133
778.185
778.22
778.274
778.307
778.363
778.395
778.452
778.484
778.543
778.576
778.651
773.241
773.268
773.279
773.283
773.289
773.295
773.302
773.309
773.316
773.324
773.332
773.34
773.348
773.357
773.365
773.374
773.383
773.392
773.401
773.411
773.42
773.43
773.44
773.45
773.46
773.471
773.482
773.493
773.504
773.515
773.527
773.539
773.551
773.562
773.575
773.587
773.599
773.612
773.625
773.638
773.652
773.666
773.679
773.693
773.708
773.722
773.737
773.751
773.767
773.782
773.798
773.813
773.829
773.845
773.862
773.878
773.895
773.912
773.929
773.946
773.964
773.982
774
774.019
774.037
774.056
774.075
774.094
774.113
774.133
774.153
774.173
774.194
774.214
774.235
774.256
774.277
774.298
774.32
774.342
774.363
774.386
774.408
774.431
774.454
774.477
774.501
774.524
774.548
774.573
774.597
774.622
774.647
774.672
774.698
774.724
774.75
774.776
774.802
774.829
774.856
774.883
774.911
774.94
774.968
774.996
775.024
775.055
775.087
775.118
775.147
775.176
775.205
775.237
775.272
775.307
775.344
775.382
775.42
775.454
775.481
775.503
775.525
775.544
775.559
775.577
775.602
775.637
775.682
775.732
775.784
775.836
775.885
775.933
775.977
776.019
776.06
776.099
776.138
776.175
776.212
776.249
776.286
776.322
776.359
776.395
776.432
776.468
776.505
776.543
776.58
776.618
776.655
776.693
776.732
776.77
776.809
776.848
776.887
776.926
776.965
777.005
777.045
777.085
777.125
777.166
777.206
777.247
777.288
777.329
777.37
777.411
777.453
777.495
777.536
777.579
777.621
777.663
777.705
777.749
777.79
777.835
777.875
777.922
777.961
778.009
778.047
778.097
778.133
778.185
778.22
778.274
778.307
778.363
778.395
778.453
778.484
778.545
778.581
778.656
773.52
773.563
773.58
773.591
773.599
773.607
773.614
773.621
773.629
773.637
773.645
773.653
773.661
773.669
773.678
773.687
773.696
773.705
773.714
773.723
773.732
773.742
773.753
773.763
773.774
773.785
773.796
773.806
773.817
773.828
773.839
773.851
773.862
773.874
773.886
773.898
773.911
773.924
773.937
773.95
773.964
773.978
773.992
774.006
774.02
774.034
774.049
774.064
774.078
774.094
774.109
774.125
774.14
774.156
774.172
774.188
774.204
774.221
774.238
774.254
774.271
774.288
774.305
774.322
774.34
774.358
774.376
774.395
774.414
774.434
774.454
774.474
774.494
774.515
774.536
774.557
774.578
774.599
774.621
774.642
774.664
774.686
774.708
774.731
774.753
774.775
774.797
774.82
774.843
774.866
774.888
774.91
774.931
774.952
774.972
774.993
775.014
775.036
775.058
775.082
775.106
775.131
775.156
775.182
775.209
775.237
775.266
775.295
775.322
775.347
775.365
775.379
775.387
775.392
775.396
775.401