/*--------------------------------*- C++ -*----------------------------------*\
| =========                 |                                                 |
| \\      /  F ield         | OpenFOAM: The Open Source CFD Toolbox           |
|  \\    /   O peration     | Version:  3.0.x                                 |
|   \\  /    A nd           | Web:      www.OpenFOAM.org                      |
|    \\/     M anipulation  |                                                 |
\*---------------------------------------------------------------------------*/
FoamFile
{
    version     2.0;
    format      ascii;
    class       volScalarField;
    location    "0.42";
    object      T;
}
// * * * * * * * * * * * * * * * * * * * * * * * * * * * * * * * * * * * * * //

dimensions      [0 0 0 1 0 0 0];

internalField   nonuniform List<scalar> 
13800
(
773.145
773.145
773.145
773.145
773.144
773.144
773.144
773.144
773.144
773.144
773.144
773.144
773.144
773.144
773.144
773.144
773.144
773.144
773.144
773.144
773.144
773.144
773.144
773.144
773.144
773.144
773.144
773.144
773.145
773.145
773.145
773.144
773.144
773.143
773.143
773.143
773.142
773.142
773.142
773.143
773.143
773.143
773.143
773.143
773.143
773.142
773.142
773.141
773.14
773.139
773.139
773.139
773.139
773.139
773.139
773.139
773.139
773.139
773.138
773.138
773.137
773.137
773.137
773.136
773.136
773.136
773.136
773.135
773.135
773.135
773.135
773.135
773.135
773.135
773.135
773.135
773.135
773.135
773.135
773.135
773.135
773.135
773.135
773.135
773.135
773.135
773.135
773.135
773.135
773.135
773.135
773.135
773.135
773.135
773.135
773.135
773.135
773.135
773.135
773.135
773.135
773.135
773.135
773.135
773.135
773.135
773.135
773.135
773.135
773.135
773.136
773.136
773.136
773.136
773.136
773.136
773.136
773.136
773.136
773.136
773.136
773.136
773.136
773.136
773.136
773.136
773.136
773.136
773.136
773.136
773.137
773.137
773.137
773.137
773.137
773.137
773.137
773.138
773.138
773.138
773.138
773.139
773.139
773.139
773.14
773.14
773.14
773.141
773.141
773.142
773.142
773.143
773.143
773.144
773.145
773.145
773.146
773.147
773.148
773.148
773.149
773.15
773.151
773.153
773.154
773.155
773.156
773.158
773.159
773.161
773.162
773.164
773.166
773.167
773.169
773.171
773.173
773.176
773.178
773.18
773.183
773.186
773.188
773.191
773.194
773.197
773.2
773.204
773.207
773.211
773.214
773.218
773.222
773.226
773.23
773.235
773.239
773.248
773.254
773.37
773.138
773.138
773.138
773.138
773.138
773.138
773.138
773.138
773.138
773.138
773.138
773.138
773.138
773.138
773.138
773.138
773.138
773.138
773.138
773.138
773.138
773.138
773.138
773.138
773.138
773.138
773.138
773.139
773.139
773.139
773.139
773.139
773.138
773.138
773.137
773.137
773.137
773.137
773.137
773.137
773.137
773.137
773.137
773.137
773.137
773.137
773.137
773.136
773.135
773.134
773.134
773.134
773.134
773.134
773.134
773.134
773.134
773.134
773.134
773.133
773.133
773.132
773.132
773.132
773.132
773.131
773.131
773.131
773.131
773.131
773.131
773.131
773.131
773.131
773.131
773.131
773.131
773.131
773.131
773.131
773.131
773.131
773.131
773.131
773.131
773.131
773.131
773.131
773.131
773.131
773.131
773.131
773.131
773.131
773.131
773.131
773.131
773.131
773.131
773.131
773.131
773.131
773.131
773.131
773.131
773.131
773.131
773.131
773.131
773.131
773.131
773.131
773.131
773.131
773.131
773.131
773.131
773.131
773.131
773.131
773.131
773.132
773.132
773.132
773.132
773.132
773.132
773.132
773.132
773.132
773.132
773.132
773.132
773.133
773.133
773.133
773.133
773.133
773.134
773.134
773.134
773.134
773.135
773.135
773.135
773.136
773.136
773.136
773.137
773.137
773.138
773.138
773.139
773.14
773.14
773.141
773.142
773.142
773.143
773.144
773.145
773.146
773.147
773.148
773.149
773.151
773.152
773.153
773.155
773.156
773.158
773.16
773.161
773.163
773.165
773.167
773.169
773.171
773.174
773.176
773.179
773.181
773.184
773.187
773.19
773.193
773.196
773.199
773.203
773.206
773.21
773.214
773.218
773.222
773.226
773.231
773.235
773.245
773.249
773.382
773.138
773.138
773.138
773.138
773.138
773.138
773.138
773.138
773.138
773.138
773.138
773.138
773.138
773.138
773.138
773.138
773.138
773.138
773.138
773.138
773.138
773.138
773.138
773.138
773.138
773.138
773.138
773.139
773.139
773.139
773.139
773.139
773.138
773.138
773.137
773.137
773.137
773.137
773.137
773.137
773.137
773.137
773.137
773.137
773.137
773.137
773.137
773.136
773.135
773.134
773.134
773.134
773.134
773.134
773.134
773.134
773.134
773.134
773.134
773.133
773.133
773.132
773.132
773.132
773.131
773.131
773.131
773.131
773.131
773.131
773.131
773.131
773.131
773.131
773.131
773.131
773.131
773.131
773.131
773.131
773.131
773.131
773.131
773.131
773.131
773.131
773.131
773.131
773.131
773.131
773.131
773.131
773.131
773.131
773.131
773.131
773.131
773.131
773.131
773.131
773.131
773.131
773.131
773.131
773.131
773.131
773.131
773.131
773.131
773.131
773.131
773.131
773.131
773.131
773.131
773.131
773.131
773.131
773.131
773.131
773.131
773.132
773.132
773.132
773.132
773.132
773.132
773.132
773.132
773.132
773.132
773.132
773.132
773.133
773.133
773.133
773.133
773.133
773.134
773.134
773.134
773.134
773.135
773.135
773.135
773.136
773.136
773.136
773.137
773.137
773.138
773.138
773.139
773.14
773.14
773.141
773.142
773.142
773.143
773.144
773.145
773.146
773.147
773.148
773.149
773.151
773.152
773.153
773.155
773.156
773.158
773.16
773.161
773.163
773.165
773.167
773.169
773.171
773.174
773.176
773.179
773.181
773.184
773.187
773.19
773.193
773.196
773.199
773.203
773.206
773.21
773.214
773.218
773.222
773.226
773.231
773.235
773.244
773.249
773.378
773.138
773.138
773.138
773.138
773.138
773.138
773.138
773.138
773.138
773.138
773.138
773.138
773.138
773.138
773.138
773.138
773.138
773.138
773.138
773.138
773.138
773.138
773.138
773.138
773.138
773.138
773.138
773.139
773.139
773.139
773.139
773.139
773.138
773.138
773.137
773.137
773.137
773.137
773.137
773.137
773.137
773.137
773.137
773.137
773.137
773.137
773.137
773.136
773.135
773.134
773.134
773.134
773.134
773.134
773.134
773.134
773.134
773.134
773.134
773.133
773.133
773.132
773.132
773.132
773.131
773.131
773.131
773.131
773.131
773.131
773.131
773.131
773.131
773.131
773.131
773.131
773.131
773.131
773.131
773.131
773.131
773.131
773.131
773.131
773.131
773.131
773.131
773.131
773.131
773.131
773.131
773.131
773.131
773.131
773.131
773.131
773.131
773.131
773.131
773.131
773.131
773.131
773.131
773.131
773.131
773.131
773.131
773.131
773.131
773.131
773.131
773.131
773.131
773.131
773.131
773.131
773.131
773.131
773.131
773.131
773.131
773.132
773.132
773.132
773.132
773.132
773.132
773.132
773.132
773.132
773.132
773.132
773.132
773.133
773.133
773.133
773.133
773.133
773.134
773.134
773.134
773.134
773.135
773.135
773.135
773.136
773.136
773.136
773.137
773.137
773.138
773.138
773.139
773.14
773.14
773.141
773.142
773.142
773.143
773.144
773.145
773.146
773.147
773.148
773.149
773.151
773.152
773.153
773.155
773.156
773.158
773.16
773.161
773.163
773.165
773.167
773.169
773.171
773.174
773.176
773.179
773.181
773.184
773.187
773.19
773.193
773.196
773.199
773.203
773.206
773.21
773.214
773.218
773.222
773.226
773.231
773.235
773.244
773.249
773.347
773.138
773.138
773.138
773.138
773.138
773.138
773.138
773.138
773.138
773.138
773.138
773.138
773.138
773.138
773.138
773.138
773.138
773.138
773.138
773.138
773.138
773.138
773.138
773.138
773.138
773.138
773.138
773.139
773.139
773.139
773.139
773.139
773.138
773.138
773.137
773.137
773.137
773.137
773.137
773.137
773.137
773.137
773.137
773.137
773.137
773.137
773.137
773.136
773.135
773.134
773.134
773.134
773.134
773.134
773.134
773.134
773.134
773.134
773.134
773.133
773.133
773.132
773.132
773.132
773.131
773.131
773.131
773.131
773.131
773.131
773.131
773.131
773.131
773.131
773.131
773.131
773.131
773.131
773.131
773.131
773.131
773.131
773.131
773.131
773.131
773.131
773.131
773.131
773.131
773.131
773.131
773.131
773.131
773.131
773.131
773.131
773.131
773.131
773.131
773.131
773.131
773.131
773.131
773.131
773.131
773.131
773.131
773.131
773.131
773.131
773.131
773.131
773.131
773.131
773.131
773.131
773.131
773.131
773.131
773.131
773.131
773.132
773.132
773.132
773.132
773.132
773.132
773.132
773.132
773.132
773.132
773.132
773.132
773.133
773.133
773.133
773.133
773.133
773.134
773.134
773.134
773.134
773.135
773.135
773.135
773.136
773.136
773.136
773.137
773.137
773.138
773.138
773.139
773.14
773.14
773.141
773.142
773.142
773.143
773.144
773.145
773.146
773.147
773.148
773.149
773.151
773.152
773.153
773.155
773.156
773.158
773.16
773.161
773.163
773.165
773.167
773.169
773.171
773.174
773.176
773.179
773.181
773.184
773.187
773.19
773.193
773.196
773.199
773.203
773.206
773.21
773.214
773.218
773.222
773.226
773.231
773.234
773.242
773.245
773.311
773.138
773.138
773.138
773.138
773.138
773.138
773.138
773.138
773.138
773.138
773.138
773.138
773.138
773.138
773.138
773.138
773.138
773.138
773.138
773.138
773.138
773.138
773.138
773.138
773.138
773.138
773.138
773.139
773.139
773.139
773.139
773.139
773.138
773.138
773.137
773.137
773.137
773.137
773.137
773.137
773.137
773.137
773.137
773.137
773.137
773.137
773.137
773.136
773.135
773.134
773.134
773.134
773.134
773.134
773.134
773.134
773.134
773.134
773.134
773.133
773.133
773.132
773.132
773.132
773.131
773.131
773.131
773.131
773.131
773.131
773.131
773.131
773.131
773.131
773.131
773.131
773.131
773.131
773.131
773.131
773.131
773.131
773.131
773.131
773.131
773.131
773.131
773.131
773.131
773.131
773.131
773.131
773.131
773.131
773.131
773.131
773.131
773.131
773.131
773.131
773.131
773.131
773.131
773.131
773.131
773.131
773.131
773.131
773.131
773.131
773.131
773.131
773.131
773.131
773.131
773.131
773.131
773.131
773.131
773.131
773.131
773.132
773.132
773.132
773.132
773.132
773.132
773.132
773.132
773.132
773.132
773.132
773.132
773.133
773.133
773.133
773.133
773.133
773.134
773.134
773.134
773.134
773.135
773.135
773.135
773.136
773.136
773.136
773.137
773.137
773.138
773.138
773.139
773.14
773.14
773.141
773.142
773.142
773.143
773.144
773.145
773.146
773.147
773.148
773.149
773.151
773.152
773.153
773.155
773.156
773.158
773.16
773.161
773.163
773.165
773.167
773.169
773.171
773.174
773.176
773.179
773.181
773.184
773.187
773.19
773.193
773.196
773.199
773.203
773.206
773.21
773.214
773.218
773.222
773.226
773.23
773.235
773.24
773.242
773.23
773.138
773.138
773.138
773.138
773.138
773.138
773.138
773.138
773.138
773.138
773.138
773.138
773.138
773.138
773.138
773.138
773.138
773.138
773.138
773.138
773.138
773.138
773.138
773.138
773.138
773.138
773.138
773.139
773.139
773.139
773.139
773.139
773.138
773.138
773.137
773.137
773.137
773.137
773.137
773.137
773.137
773.137
773.137
773.137
773.137
773.137
773.137
773.136
773.135
773.134
773.134
773.134
773.134
773.134
773.134
773.134
773.134
773.134
773.134
773.133
773.133
773.132
773.132
773.132
773.131
773.131
773.131
773.131
773.131
773.131
773.131
773.131
773.131
773.131
773.131
773.131
773.131
773.131
773.131
773.131
773.131
773.131
773.131
773.131
773.131
773.131
773.131
773.131
773.131
773.131
773.131
773.131
773.131
773.131
773.131
773.131
773.131
773.131
773.131
773.131
773.131
773.131
773.131
773.131
773.131
773.131
773.131
773.131
773.131
773.131
773.131
773.131
773.131
773.131
773.131
773.131
773.131
773.131
773.131
773.131
773.131
773.132
773.132
773.132
773.132
773.132
773.132
773.132
773.132
773.132
773.132
773.132
773.132
773.133
773.133
773.133
773.133
773.133
773.134
773.134
773.134
773.134
773.135
773.135
773.135
773.136
773.136
773.136
773.137
773.137
773.138
773.138
773.139
773.14
773.14
773.141
773.142
773.142
773.143
773.144
773.145
773.146
773.147
773.148
773.149
773.151
773.152
773.153
773.155
773.156
773.158
773.16
773.161
773.163
773.165
773.167
773.169
773.171
773.174
773.176
773.179
773.181
773.184
773.187
773.19
773.193
773.196
773.199
773.203
773.206
773.21
773.214
773.218
773.222
773.226
773.23
773.236
773.236
773.237
773.123
773.138
773.138
773.138
773.138
773.138
773.138
773.138
773.138
773.138
773.138
773.138
773.138
773.138
773.138
773.138
773.138
773.138
773.138
773.138
773.138
773.138
773.138
773.138
773.138
773.138
773.138
773.138
773.139
773.139
773.139
773.139
773.139
773.138
773.138
773.137
773.137
773.137
773.137
773.137
773.137
773.137
773.137
773.137
773.137
773.137
773.137
773.137
773.136
773.135
773.134
773.134
773.134
773.134
773.134
773.134
773.134
773.134
773.134
773.134
773.133
773.133
773.132
773.132
773.132
773.131
773.131
773.131
773.131
773.131
773.131
773.131
773.131
773.131
773.131
773.131
773.131
773.131
773.131
773.131
773.131
773.131
773.131
773.131
773.131
773.131
773.131
773.131
773.131
773.131
773.131
773.131
773.131
773.131
773.131
773.131
773.131
773.131
773.131
773.131
773.131
773.131
773.131
773.131
773.131
773.131
773.131
773.131
773.131
773.131
773.131
773.131
773.131
773.131
773.131
773.131
773.131
773.131
773.131
773.131
773.131
773.131
773.132
773.132
773.132
773.132
773.132
773.132
773.132
773.132
773.132
773.132
773.132
773.132
773.133
773.133
773.133
773.133
773.133
773.134
773.134
773.134
773.134
773.135
773.135
773.135
773.136
773.136
773.136
773.137
773.137
773.138
773.138
773.139
773.14
773.14
773.141
773.142
773.142
773.143
773.144
773.145
773.146
773.147
773.148
773.149
773.151
773.152
773.153
773.155
773.156
773.158
773.16
773.161
773.163
773.165
773.167
773.169
773.171
773.174
773.176
773.179
773.181
773.184
773.187
773.19
773.193
773.196
773.199
773.203
773.206
773.21
773.214
773.218
773.222
773.226
773.23
773.236
773.234
773.247
772.97
773.138
773.138
773.138
773.138
773.138
773.138
773.138
773.138
773.138
773.138
773.138
773.138
773.138
773.138
773.138
773.138
773.138
773.138
773.138
773.138
773.138
773.138
773.138
773.138
773.138
773.138
773.138
773.139
773.139
773.139
773.139
773.139
773.138
773.138
773.137
773.137
773.137
773.137
773.137
773.137
773.137
773.137
773.137
773.137
773.137
773.137
773.137
773.136
773.135
773.134
773.134
773.134
773.134
773.134
773.134
773.134
773.134
773.134
773.134
773.133
773.133
773.132
773.132
773.132
773.132
773.131
773.131
773.131
773.131
773.131
773.131
773.131
773.131
773.131
773.131
773.131
773.131
773.131
773.131
773.131
773.131
773.131
773.131
773.131
773.131
773.131
773.131
773.131
773.131
773.131
773.131
773.131
773.131
773.131
773.131
773.131
773.131
773.131
773.131
773.131
773.131
773.131
773.131
773.131
773.131
773.131
773.131
773.131
773.131
773.131
773.131
773.131
773.131
773.131
773.131
773.131
773.131
773.131
773.131
773.131
773.131
773.132
773.132
773.132
773.132
773.132
773.132
773.132
773.132
773.132
773.132
773.132
773.132
773.133
773.133
773.133
773.133
773.133
773.134
773.134
773.134
773.134
773.135
773.135
773.135
773.136
773.136
773.136
773.137
773.137
773.138
773.138
773.139
773.14
773.14
773.141
773.142
773.142
773.143
773.144
773.145
773.146
773.147
773.148
773.149
773.151
773.152
773.153
773.155
773.156
773.158
773.16
773.161
773.163
773.165
773.167
773.169
773.171
773.174
773.176
773.179
773.181
773.184
773.187
773.19
773.193
773.196
773.199
773.203
773.206
773.21
773.214
773.218
773.222
773.226
773.23
773.236
773.233
773.255
772.894
773.145
773.145
773.145
773.145
773.144
773.144
773.144
773.144
773.144
773.144
773.144
773.144
773.144
773.144
773.144
773.144
773.144
773.144
773.144
773.144
773.144
773.144
773.144
773.144
773.144
773.144
773.144
773.144
773.145
773.145
773.145
773.144
773.144
773.143
773.143
773.143
773.142
773.142
773.142
773.143
773.143
773.143
773.143
773.143
773.143
773.142
773.142
773.141
773.14
773.139
773.139
773.139
773.139
773.139
773.139
773.139
773.139
773.139
773.138
773.138
773.137
773.137
773.137
773.136
773.136
773.136
773.136
773.135
773.135
773.135
773.135
773.135
773.135
773.135
773.135
773.135
773.135
773.135
773.135
773.135
773.135
773.135
773.135
773.135
773.135
773.135
773.135
773.135
773.135
773.135
773.135
773.135
773.135
773.135
773.135
773.135
773.135
773.135
773.135
773.135
773.135
773.135
773.135
773.135
773.135
773.135
773.135
773.135
773.135
773.135
773.136
773.136
773.136
773.136
773.136
773.136
773.136
773.136
773.136
773.136
773.136
773.136
773.136
773.136
773.136
773.136
773.136
773.136
773.136
773.136
773.137
773.137
773.137
773.137
773.137
773.137
773.137
773.138
773.138
773.138
773.138
773.139
773.139
773.139
773.14
773.14
773.14
773.141
773.141
773.142
773.142
773.143
773.143
773.144
773.145
773.145
773.146
773.147
773.148
773.148
773.149
773.15
773.151
773.153
773.154
773.155
773.156
773.158
773.159
773.161
773.162
773.164
773.166
773.167
773.169
773.171
773.173
773.176
773.178
773.18
773.183
773.186
773.188
773.191
773.194
773.197
773.2
773.204
773.207
773.211
773.214
773.218
773.222
773.226
773.231
773.234
773.241
773.236
773.267
772.823
773.354
773.373
773.387
773.392
773.397
773.399
773.401
773.403
773.404
773.405
773.407
773.407
773.408
773.407
773.407
773.405
773.401
773.394
773.383
773.36
773.349
773.363
773.372
773.375
773.377
773.378
773.379
773.38
773.38
773.38
773.381
773.381
773.381
773.38
773.379
773.377
773.373
773.366
773.356
773.335
773.348
773.362
773.373
773.376
773.379
773.381
773.383
773.384
773.385
773.385
773.385
773.385
773.385
773.383
773.381
773.378
773.372
773.364
773.352
773.332
773.324
773.332
773.335
773.337
773.339
773.341
773.342
773.344
773.347
773.349
773.352
773.355
773.358
773.36
773.363
773.364
773.362
773.359
773.35
773.338
773.296
773.306
773.314
773.321
773.325
773.328
773.33
773.33
773.329
773.326
773.323
773.318
773.312
773.306
773.299
773.292
773.285
773.279
773.273
773.269
773.239
773.236
773.23
773.225
773.222
773.221
773.222
773.224
773.227
773.232
773.239
773.247
773.258
773.268
773.279
773.289
773.301
773.31
773.319
773.323
773.173
773.169
773.17
773.172
773.174
773.172
773.171
773.167
773.162
773.154
773.148
773.137
773.13
773.12
773.113
773.106
773.106
773.109
773.118
773.128
773.083
773.06
773.039
773.027
773.022
773.019
773.019
773.02
773.025
773.033
773.043
773.056
773.071
773.087
773.105
773.123
773.149
773.168
773.201
773.228
773.025
773.002
772.978
772.963
772.952
772.943
772.936
772.93
772.926
772.924
772.925
772.927
772.933
772.941
772.951
772.962
772.979
773.002
773.033
773.074
772.992
772.959
772.92
772.906
772.895
772.896
772.901
772.906
772.916
772.929
772.944
772.963
772.983
773.006
773.029
773.054
773.083
773.116
773.158
773.203
773.294
773.275
773.275
773.276
773.28
773.285
773.29
773.295
773.301
773.307
773.312
773.318
773.324
773.329
773.335
773.341
773.347
773.353
773.36
773.366
773.373
773.38
773.387
773.394
773.401
773.408
773.416
773.423
773.431
773.438
773.446
773.454
773.462
773.47
773.479
773.487
773.496
773.504
773.513
773.522
773.531
773.54
773.549
773.559
773.568
773.578
773.588
773.598
773.608
773.618
773.629
773.639
773.65
773.66
773.671
773.682
773.693
773.704
773.716
773.727
773.739
773.751
773.762
773.774
773.786
773.798
773.811
773.824
773.836
773.847
773.858
773.868
773.879
773.891
773.903
773.916
773.928
773.939
773.951
773.971
774.018
774.156
774.604
775.468
776.325
777.066
777.634
778.007
778.196
778.249
778.226
778.008
777.226
776.201
775.372
774.762
774.359
774.128
774.022
773.993
773.996
774.031
774.122
774.205
774.27
774.32
774.359
774.391
774.418
774.441
774.463
774.484
774.504
774.523
774.543
774.562
774.582
774.601
774.621
774.64
774.66
774.68
774.7
774.72
774.74
774.76
774.78
774.801
774.821
774.842
774.863
774.884
774.905
774.926
774.948
774.969
774.991
775.013
775.034
775.056
775.079
775.101
775.123
775.146
775.168
775.191
775.214
775.237
775.26
775.283
775.306
775.33
775.353
775.377
775.401
775.425
775.449
775.473
775.497
775.522
775.546
775.571
775.595
775.62
775.645
775.67
775.695
775.721
775.746
775.772
775.797
775.823
775.849
775.874
775.9
775.927
775.953
775.979
776.005
776.032
776.059
776.085
776.112
776.138
776.166
776.192
776.221
776.245
776.277
776.299
776.332
776.354
776.388
776.408
776.444
776.463
776.501
776.517
776.569
776.423
773.277
773.259
773.26
773.262
773.265
773.27
773.275
773.28
773.286
773.291
773.297
773.303
773.309
773.314
773.32
773.326
773.332
773.338
773.345
773.351
773.358
773.365
773.372
773.379
773.386
773.393
773.4
773.408
773.415
773.423
773.431
773.439
773.447
773.455
773.463
773.472
773.48
773.489
773.497
773.506
773.515
773.524
773.533
773.543
773.552
773.562
773.572
773.582
773.592
773.603
773.613
773.623
773.634
773.644
773.655
773.666
773.677
773.688
773.7
773.711
773.723
773.735
773.747
773.759
773.771
773.783
773.795
773.808
773.82
773.832
773.845
773.857
773.87
773.883
773.896
773.909
773.92
773.927
773.93
773.929
773.925
773.926
773.927
773.931
773.939
773.957
774.01
774.147
774.306
774.445
774.553
774.621
774.652
774.655
774.636
774.545
774.421
774.333
774.283
774.263
774.26
774.263
774.274
774.3
774.328
774.354
774.377
774.4
774.421
774.441
774.461
774.481
774.5
774.52
774.539
774.558
774.578
774.597
774.616
774.636
774.656
774.676
774.695
774.715
774.736
774.756
774.776
774.797
774.817
774.838
774.859
774.88
774.901
774.922
774.943
774.965
774.987
775.008
775.03
775.052
775.074
775.097
775.119
775.141
775.164
775.187
775.21
775.233
775.256
775.279
775.302
775.326
775.349
775.373
775.397
775.421
775.445
775.469
775.493
775.517
775.542
775.567
775.591
775.616
775.641
775.666
775.691
775.716
775.742
775.767
775.793
775.819
775.844
775.87
775.896
775.922
775.949
775.975
776.001
776.028
776.054
776.081
776.108
776.134
776.162
776.188
776.217
776.241
776.273
776.295
776.328
776.349
776.384
776.404
776.44
776.459
776.496
776.513
776.562
776.449
773.279
773.263
773.263
773.265
773.268
773.273
773.278
773.283
773.289
773.294
773.3
773.306
773.312
773.317
773.323
773.329
773.335
773.341
773.348
773.354
773.361
773.367
773.374
773.382
773.389
773.396
773.403
773.411
773.418
773.426
773.434
773.442
773.45
773.458
773.466
773.475
773.483
773.492
773.5
773.509
773.518
773.527
773.536
773.546
773.555
773.565
773.575
773.585
773.595
773.605
773.616
773.626
773.637
773.647
773.658
773.669
773.68
773.691
773.703
773.714
773.726
773.738
773.749
773.762
773.774
773.786
773.799
773.811
773.824
773.836
773.849
773.861
773.874
773.886
773.899
773.913
773.927
773.94
773.949
773.951
773.946
773.912
773.846
773.791
773.756
773.743
773.741
773.744
773.754
773.787
773.88
774
774.106
774.19
774.25
774.29
774.314
774.327
774.33
774.329
774.329
774.33
774.334
774.343
774.356
774.372
774.388
774.406
774.425
774.443
774.462
774.481
774.501
774.52
774.539
774.558
774.578
774.597
774.617
774.636
774.656
774.676
774.695
774.715
774.736
774.756
774.776
774.797
774.817
774.838
774.859
774.88
774.901
774.922
774.943
774.965
774.987
775.008
775.03
775.052
775.074
775.097
775.119
775.141
775.164
775.187
775.21
775.233
775.256
775.279
775.302
775.326
775.349
775.373
775.397
775.421
775.445
775.469
775.493
775.517
775.542
775.567
775.591
775.616
775.641
775.666
775.691
775.716
775.742
775.767
775.793
775.819
775.844
775.87
775.896
775.922
775.949
775.975
776.001
776.028
776.054
776.081
776.108
776.134
776.162
776.188
776.217
776.241
776.273
776.295
776.328
776.349
776.384
776.404
776.44
776.459
776.496
776.513
776.558
776.487
773.302
773.292
773.296
773.298
773.303
773.308
773.314
773.319
773.325
773.33
773.336
773.342
773.348
773.354
773.359
773.365
773.371
773.378
773.384
773.39
773.397
773.404
773.411
773.418
773.425
773.432
773.44
773.447
773.455
773.462
773.47
773.478
773.486
773.494
773.502
773.511
773.519
773.528
773.537
773.545
773.554
773.563
773.572
773.582
773.592
773.601
773.611
773.621
773.632
773.642
773.652
773.662
773.673
773.683
773.694
773.705
773.716
773.727
773.739
773.75
773.762
773.773
773.785
773.797
773.809
773.821
773.833
773.845
773.857
773.868
773.879
773.891
773.903
773.915
773.928
773.942
773.956
773.967
773.972
773.971
773.956
773.908
773.855
773.815
773.793
773.787
773.788
773.792
773.804
773.84
773.914
773.991
774.061
774.118
774.165
774.2
774.228
774.25
774.268
774.283
774.297
774.311
774.325
774.341
774.357
774.374
774.392
774.41
774.428
774.446
774.465
774.484
774.502
774.521
774.54
774.559
774.578
774.598
774.617
774.636
774.656
774.676
774.696
774.716
774.736
774.756
774.776
774.797
774.817
774.838
774.859
774.88
774.901
774.922
774.943
774.965
774.987
775.008
775.03
775.052
775.074
775.097
775.119
775.141
775.164
775.187
775.21
775.233
775.256
775.279
775.302
775.326
775.349
775.373
775.397
775.421
775.445
775.469
775.493
775.517
775.542
775.567
775.591
775.616
775.641
775.666
775.691
775.716
775.742
775.767
775.793
775.819
775.844
775.87
775.896
775.922
775.949
775.975
776.001
776.028
776.054
776.081
776.108
776.134
776.162
776.188
776.217
776.242
776.272
776.296
776.326
776.351
776.383
776.404
776.44
776.459
776.495
776.513
776.553
776.548
773.258
773.257
773.257
773.259
773.261
773.265
773.269
773.274
773.28
773.285
773.29
773.296
773.302
773.308
773.314
773.32
773.326
773.332
773.339
773.345
773.352
773.358
773.365
773.372
773.379
773.387
773.394
773.401
773.409
773.417
773.424
773.432
773.44
773.449
773.457
773.465
773.474
773.483
773.491
773.5
773.509
773.518
773.527
773.537
773.546
773.556
773.566
773.576
773.586
773.596
773.607
773.617
773.628
773.638
773.649
773.66
773.671
773.682
773.694
773.706
773.717
773.729
773.741
773.753
773.766
773.778
773.791
773.804
773.817
773.83
773.844
773.857
773.871
773.885
773.899
773.913
773.927
773.942
773.956
773.968
773.975
773.976
773.97
773.946
773.926
773.92
773.921
773.924
773.93
773.943
773.972
774.011
774.053
774.093
774.13
774.163
774.193
774.218
774.241
774.263
774.282
774.302
774.32
774.338
774.357
774.375
774.393
774.411
774.429
774.448
774.466
774.484
774.503
774.522
774.541
774.56
774.579
774.598
774.617
774.637
774.656
774.676
774.696
774.716
774.736
774.756
774.776
774.797
774.817
774.838
774.859
774.88
774.901
774.922
774.943
774.965
774.987
775.008
775.03
775.052
775.074
775.097
775.119
775.141
775.164
775.187
775.21
775.233
775.256
775.279
775.302
775.326
775.349
775.373
775.397
775.421
775.445
775.469
775.493
775.517
775.542
775.567
775.591
775.616
775.641
775.666
775.691
775.716
775.742
775.767
775.793
775.819
775.844
775.87
775.896
775.922
775.948
775.975
776.001
776.028
776.054
776.081
776.108
776.135
776.161
776.189
776.215
776.243
776.269
776.298
776.325
776.352
776.381
776.408
776.435
776.466
776.489
776.521
776.546
776.571
773.337
773.349
773.359
773.368
773.375
773.381
773.387
773.392
773.398
773.403
773.409
773.414
773.42
773.426
773.432
773.438
773.445
773.451
773.457
773.464
773.47
773.477
773.484
773.491
773.498
773.505
773.512
773.52
773.528
773.535
773.543
773.551
773.559
773.567
773.575
773.584
773.592
773.601
773.609
773.618
773.627
773.636
773.645
773.655
773.664
773.674
773.683
773.693
773.703
773.713
773.723
773.733
773.743
773.754
773.764
773.774
773.784
773.794
773.805
773.815
773.826
773.836
773.847
773.857
773.867
773.877
773.887
773.896
773.907
773.917
773.929
773.94
773.953
773.967
773.979
773.989
773.994
773.994
773.985
773.965
773.947
773.93
773.922
773.922
773.923
773.929
773.936
773.945
773.964
773.992
774.026
774.061
774.096
774.128
774.158
774.184
774.209
774.231
774.252
774.272
774.29
774.309
774.327
774.344
774.362
774.38
774.397
774.415
774.432
774.45
774.468
774.486
774.505
774.523
774.542
774.56
774.579
774.598
774.618
774.637
774.656
774.676
774.696
774.716
774.736
774.756
774.776
774.797
774.817
774.838
774.859
774.88
774.901
774.922
774.943
774.965
774.987
775.008
775.03
775.052
775.074
775.097
775.119
775.141
775.164
775.187
775.21
775.233
775.256
775.279
775.302
775.326
775.349
775.373
775.397
775.421
775.445
775.469
775.493
775.517
775.542
775.567
775.591
775.616
775.641
775.666
775.691
775.716
775.742
775.767
775.793
775.819
775.844
775.87
775.896
775.922
775.948
775.975
776.001
776.028
776.054
776.081
776.107
776.135
776.161
776.189
776.215
776.244
776.268
776.3
776.323
776.355
776.377
776.411
776.432
776.468
776.488
776.525
776.545
776.593
773.176
773.191
773.199
773.202
773.206
773.211
773.216
773.221
773.226
773.232
773.237
773.243
773.248
773.254
773.26
773.266
773.272
773.279
773.285
773.292
773.299
773.305
773.312
773.319
773.326
773.333
773.341
773.348
773.356
773.363
773.371
773.379
773.387
773.395
773.404
773.412
773.42
773.429
773.438
773.447
773.456
773.465
773.474
773.484
773.493
773.503
773.513
773.523
773.533
773.543
773.554
773.564
773.575
773.585
773.596
773.607
773.618
773.629
773.64
773.652
773.664
773.676
773.688
773.7
773.712
773.725
773.738
773.751
773.764
773.777
773.79
773.803
773.817
773.832
773.848
773.861
773.874
773.888
773.905
773.923
773.942
773.962
773.981
773.998
774.009
774.013
774.01
773.999
773.992
773.992
773.995
774.003
774.024
774.063
774.104
774.143
774.178
774.209
774.236
774.261
774.283
774.304
774.324
774.343
774.361
774.379
774.397
774.415
774.433
774.45
774.468
774.486
774.505
774.523
774.542
774.56
774.579
774.598
774.618
774.637
774.656
774.676
774.696
774.716
774.736
774.756
774.776
774.797
774.817
774.838
774.859
774.88
774.901
774.922
774.943
774.965
774.987
775.008
775.03
775.052
775.074
775.097
775.119
775.141
775.164
775.187
775.21
775.233
775.256
775.279
775.302
775.326
775.349
775.373
775.397
775.421
775.445
775.469
775.493
775.517
775.542
775.567
775.591
775.616
775.641
775.666
775.691
775.716
775.742
775.767
775.793
775.819
775.844
775.87
775.896
775.922
775.949
775.975
776.001
776.028
776.054
776.081
776.107
776.135
776.161
776.189
776.214
776.244
776.268
776.3
776.323
776.355
776.377
776.411
776.432
776.468
776.488
776.526
776.548
776.597
773.325
773.349
773.36
773.367
773.373
773.378
773.383
773.388
773.394
773.399
773.405
773.41
773.416
773.422
773.428
773.434
773.44
773.447
773.453
773.46
773.466
773.473
773.479
773.486
773.493
773.5
773.508
773.515
773.523
773.531
773.539
773.546
773.554
773.563
773.571
773.579
773.588
773.596
773.605
773.614
773.622
773.631
773.64
773.649
773.658
773.667
773.677
773.686
773.697
773.707
773.717
773.728
773.739
773.75
773.761
773.772
773.782
773.793
773.804
773.815
773.826
773.837
773.848
773.857
773.867
773.877
773.887
773.898
773.909
773.922
773.936