/*--------------------------------*- C++ -*----------------------------------*\
| =========                 |                                                 |
| \\      /  F ield         | OpenFOAM: The Open Source CFD Toolbox           |
|  \\    /   O peration     | Version:  3.0.x                                 |
|   \\  /    A nd           | Web:      www.OpenFOAM.org                      |
|    \\/     M anipulation  |                                                 |
\*---------------------------------------------------------------------------*/
FoamFile
{
    version     2.0;
    format      ascii;
    class       volVectorField;
    location    "0.169925";
    object      U;
}
// * * * * * * * * * * * * * * * * * * * * * * * * * * * * * * * * * * * * * //

dimensions      [0 1 -1 0 0 0 0];

internalField   nonuniform List<vector> 
13800
(
(57.8936 0.000142567 0)
(57.8837 0.00012429 0)
(57.8731 0.000122527 0)
(57.8627 0.00012482 0)
(57.8519 0.000126644 0)
(57.8406 0.000128144 0)
(57.829 0.000129466 0)
(57.817 0.000130507 0)
(57.8045 0.000131417 0)
(57.7915 0.000132134 0)
(57.7781 0.000132757 0)
(57.7642 0.000133279 0)
(57.7499 0.000133718 0)
(57.7352 0.000134093 0)
(57.7202 0.000134414 0)
(57.705 0.000134691 0)
(57.6896 0.00013493 0)
(57.6741 0.000135136 0)
(57.6587 0.00013531 0)
(57.6435 0.000135451 0)
(57.6286 0.000135551 0)
(57.6142 0.000135596 0)
(57.6005 0.000135562 0)
(57.5875 0.000135415 0)
(57.5754 0.000135103 0)
(57.5645 0.000134563 0)
(57.5547 0.000133713 0)
(57.5463 0.000132462 0)
(57.5394 0.000130706 0)
(57.534 0.000128339 0)
(57.5304 0.000125245 0)
(57.5284 0.000121426 0)
(57.5282 0.000116733 0)
(57.5298 0.000111149 0)
(57.5331 0.000104804 0)
(57.5382 9.77113e-05 0)
(57.545 9.0007e-05 0)
(57.5534 8.18561e-05 0)
(57.5632 7.34484e-05 0)
(57.5743 6.49872e-05 0)
(57.5866 5.6674e-05 0)
(57.5998 4.87037e-05 0)
(57.6136 4.12094e-05 0)
(57.6277 3.4368e-05 0)
(57.6423 2.81582e-05 0)
(57.6574 2.27282e-05 0)
(57.6725 1.80816e-05 0)
(57.6869 1.41539e-05 0)
(57.7006 1.08962e-05 0)
(57.7136 8.2482e-06 0)
(57.7256 6.13898e-06 0)
(57.7365 4.48971e-06 0)
(57.7463 3.22218e-06 0)
(57.7547 2.26386e-06 0)
(57.7617 1.55053e-06 0)
(57.7673 1.027e-06 0)
(57.7714 6.46413e-07 0)
(57.774 3.70993e-07 0)
(57.7752 1.87526e-07 0)
(57.775 7.30392e-08 0)
(57.7734 3.06792e-09 0)
(57.7705 -5.81622e-08 0)
(57.7664 -9.47955e-08 0)
(57.7611 -1.17059e-07 0)
(57.7549 -1.30216e-07 0)
(57.7477 -1.37437e-07 0)
(57.7397 -1.40612e-07 0)
(57.731 -1.40957e-07 0)
(57.7218 -1.39295e-07 0)
(57.712 -1.36338e-07 0)
(57.7019 -1.3265e-07 0)
(57.6916 -1.28462e-07 0)
(57.6811 -1.23818e-07 0)
(57.6705 -1.18826e-07 0)
(57.6599 -1.13546e-07 0)
(57.6495 -1.07915e-07 0)
(57.6392 -1.01879e-07 0)
(57.6291 -9.54177e-08 0)
(57.6194 -8.85887e-08 0)
(57.6099 -8.15129e-08 0)
(57.6009 -7.42796e-08 0)
(57.5922 -6.69422e-08 0)
(57.584 -5.95603e-08 0)
(57.5763 -5.21489e-08 0)
(57.5689 -4.48061e-08 0)
(57.5621 -3.75584e-08 0)
(57.5557 -3.04493e-08 0)
(57.5498 -2.35328e-08 0)
(57.5443 -1.68239e-08 0)
(57.5392 -1.0355e-08 0)
(57.5346 -4.0588e-09 0)
(57.5304 3.41413e-09 0)
(57.5265 1.21566e-08 0)
(57.5231 1.96094e-08 0)
(57.5199 2.61692e-08 0)
(57.5171 3.20316e-08 0)
(57.5146 3.72362e-08 0)
(57.5123 4.17901e-08 0)
(57.5103 4.57601e-08 0)
(57.5085 4.9281e-08 0)
(57.5069 5.25024e-08 0)
(57.5056 5.55341e-08 0)
(57.5043 5.8445e-08 0)
(57.5033 6.12004e-08 0)
(57.5023 6.37535e-08 0)
(57.5015 6.60735e-08 0)
(57.5008 6.81335e-08 0)
(57.5002 6.9952e-08 0)
(57.4997 7.15582e-08 0)
(57.4992 7.3005e-08 0)
(57.4988 7.42763e-08 0)
(57.4985 7.541e-08 0)
(57.4982 7.64163e-08 0)
(57.4979 7.72971e-08 0)
(57.4977 7.80749e-08 0)
(57.4975 7.87592e-08 0)
(57.4974 7.93709e-08 0)
(57.4973 7.99316e-08 0)
(57.4972 8.04717e-08 0)
(57.4971 8.09677e-08 0)
(57.497 8.12636e-08 0)
(57.497 8.20148e-08 0)
(57.497 8.25321e-08 0)
(57.497 8.28407e-08 0)
(57.497 8.31593e-08 0)
(57.497 8.37408e-08 0)
(57.4971 8.3936e-08 0)
(57.4971 8.41726e-08 0)
(57.4972 8.46204e-08 0)
(57.4972 8.46724e-08 0)
(57.4973 8.50849e-08 0)
(57.4974 8.5506e-08 0)
(57.4975 8.58768e-08 0)
(57.4976 8.61769e-08 0)
(57.4977 8.61535e-08 0)
(57.4978 8.68954e-08 0)
(57.4978 8.77366e-08 0)
(57.4979 8.84168e-08 0)
(57.498 8.88102e-08 0)
(57.498 8.8526e-08 0)
(57.4981 8.89201e-08 0)
(57.4981 8.95125e-08 0)
(57.498 9.06021e-08 0)
(57.4979 9.1916e-08 0)
(57.4978 9.30892e-08 0)
(57.4976 9.41425e-08 0)
(57.4974 9.50903e-08 0)
(57.4971 9.60405e-08 0)
(57.4966 9.70644e-08 0)
(57.4961 9.81636e-08 0)
(57.4955 9.93599e-08 0)
(57.4947 1.00739e-07 0)
(57.4937 1.02396e-07 0)
(57.4925 1.04336e-07 0)
(57.4911 1.06562e-07 0)
(57.4895 1.09076e-07 0)
(57.4875 1.11891e-07 0)
(57.4853 1.15047e-07 0)
(57.4827 1.18569e-07 0)
(57.4797 1.22475e-07 0)
(57.4762 1.26775e-07 0)
(57.4723 1.31464e-07 0)
(57.4679 1.3653e-07 0)
(57.4629 1.41949e-07 0)
(57.4574 1.47687e-07 0)
(57.4513 1.53704e-07 0)
(57.4445 1.59955e-07 0)
(57.4371 1.66377e-07 0)
(57.4291 1.72909e-07 0)
(57.4204 1.79461e-07 0)
(57.411 1.85955e-07 0)
(57.401 1.92268e-07 0)
(57.3903 1.9829e-07 0)
(57.3791 2.03893e-07 0)
(57.3674 2.08951e-07 0)
(57.3551 2.13307e-07 0)
(57.3425 2.16855e-07 0)
(57.3295 2.19417e-07 0)
(57.3163 2.2093e-07 0)
(57.3029 2.21189e-07 0)
(57.2896 2.20186e-07 0)
(57.2764 2.1776e-07 0)
(57.2635 2.13902e-07 0)
(57.251 2.08599e-07 0)
(57.2391 2.01854e-07 0)
(57.2278 1.93842e-07 0)
(57.2174 1.84759e-07 0)
(57.2079 1.75191e-07 0)
(57.1995 1.67191e-07 0)
(57.1922 1.73424e-07 0)
(57.1863 2.53809e-07 0)
(57.1816 6.98383e-07 0)
(57.1782 2.79795e-06 0)
(57.1759 1.3847e-05 0)
(57.1736 6.63163e-05 0)
(57.1654 0.000316703 0)
(57.1255 0.00150137 0)
(56.9334 0.00706285 0)
(56.3158 0.0363011 0)
(50.4533 0.142666 0)
(57.8975 0.000222604 0)
(57.8914 0.000162745 0)
(57.8848 0.000148912 0)
(57.8783 0.000147484 0)
(57.8714 0.000145789 0)
(57.864 0.000144348 0)
(57.8563 0.000143379 0)
(57.8482 0.000142506 0)
(57.8396 0.000141873 0)
(57.8305 0.000141261 0)
(57.821 0.000140787 0)
(57.811 0.000140373 0)
(57.8006 0.000140015 0)
(57.7898 0.000139707 0)
(57.7787 0.000139441 0)
(57.7674 0.000139211 0)
(57.7559 0.000139011 0)
(57.7443 0.000138835 0)
(57.7328 0.000138678 0)
(57.7215 0.00013853 0)
(57.7106 0.000138379 0)
(57.7001 0.000138203 0)
(57.6902 0.000137975 0)
(57.6811 0.000137654 0)
(57.6729 0.000137187 0)
(57.6658 0.000136506 0)
(57.6599 0.000135524 0)
(57.6553 0.000134148 0)
(57.6522 0.000132269 0)
(57.6505 0.00012978 0)
(57.6505 0.000126544 0)
(57.652 0.000122635 0)
(57.6552 0.000117814 0)
(57.6601 0.000112062 0)
(57.6665 0.000105598 0)
(57.6745 9.83779e-05 0)
(57.684 9.05478e-05 0)
(57.6948 8.22785e-05 0)
(57.7068 7.37623e-05 0)
(57.7199 6.52051e-05 0)
(57.7339 5.68099e-05 0)
(57.7486 4.87796e-05 0)
(57.7637 4.12244e-05 0)
(57.7789 3.43664e-05 0)
(57.7944 2.80857e-05 0)
(57.8102 2.26312e-05 0)
(57.8259 1.79983e-05 0)
(57.8408 1.40747e-05 0)
(57.8548 1.0816e-05 0)
(57.8681 8.16821e-06 0)
(57.8803 6.06267e-06 0)
(57.8913 4.41933e-06 0)
(57.9012 3.15909e-06 0)
(57.9096 2.2095e-06 0)
(57.9167 1.50692e-06 0)
(57.9223 9.97173e-07 0)
(57.9264 6.37335e-07 0)
(57.9291 3.95296e-07 0)
(57.9303 2.29067e-07 0)
(57.9301 1.10873e-07 0)
(57.9285 2.81177e-08 0)
(57.9256 -4.27339e-08 0)
(57.9214 -8.65916e-08 0)
(57.9162 -1.14646e-07 0)
(57.9099 -1.32602e-07 0)
(57.9028 -1.44021e-07 0)
(57.8948 -1.51006e-07 0)
(57.8861 -1.54844e-07 0)
(57.8768 -1.56384e-07 0)
(57.8671 -1.56308e-07 0)
(57.857 -1.55148e-07 0)
(57.8466 -1.53081e-07 0)
(57.8361 -1.50132e-07 0)
(57.8255 -1.46345e-07 0)
(57.8149 -1.41729e-07 0)
(57.8045 -1.36293e-07 0)
(57.7942 -1.30175e-07 0)
(57.7841 -1.23461e-07 0)
(57.7743 -1.16227e-07 0)
(57.7649 -1.08589e-07 0)
(57.7559 -1.0043e-07 0)
(57.7472 -9.18572e-08 0)
(57.739 -8.29167e-08 0)
(57.7312 -7.36787e-08 0)
(57.7239 -6.42647e-08 0)
(57.717 -5.47693e-08 0)
(57.7106 -4.52749e-08 0)
(57.7047 -3.59208e-08 0)
(57.6992 -2.67403e-08 0)
(57.6941 -1.7846e-08 0)
(57.6895 -9.36527e-09 0)
(57.6853 -1.03031e-09 0)
(57.6814 8.11509e-09 0)
(57.6779 1.73939e-08 0)
(57.6748 2.59638e-08 0)
(57.672 3.37864e-08 0)
(57.6694 4.08645e-08 0)
(57.6672 4.72033e-08 0)
(57.6652 5.28445e-08 0)
(57.6634 5.7935e-08 0)
(57.6618 6.26295e-08 0)
(57.6604 6.70366e-08 0)
(57.6592 7.12083e-08 0)
(57.6581 7.512e-08 0)
(57.6572 7.87095e-08 0)
(57.6564 8.19283e-08 0)
(57.6557 8.47692e-08 0)
(57.655 8.72506e-08 0)
(57.6545 8.94142e-08 0)
(57.654 9.13009e-08 0)
(57.6536 9.2944e-08 0)
(57.6533 9.4368e-08 0)
(57.653 9.55843e-08 0)
(57.6527 9.66096e-08 0)
(57.6525 9.74654e-08 0)
(57.6523 9.81729e-08 0)
(57.6522 9.87691e-08 0)
(57.6521 9.92615e-08 0)
(57.652 9.97096e-08 0)
(57.6519 1.00057e-07 0)
(57.6518 1.00057e-07 0)
(57.6518 1.00877e-07 0)
(57.6518 1.01223e-07 0)
(57.6518 1.01202e-07 0)
(57.6518 1.01237e-07 0)
(57.6518 1.01761e-07 0)
(57.6518 1.01586e-07 0)
(57.6519 1.01488e-07 0)
(57.6519 1.01774e-07 0)
(57.652 1.01335e-07 0)
(57.6521 1.01569e-07 0)
(57.6522 1.01618e-07 0)
(57.6522 1.01558e-07 0)
(57.6523 1.01243e-07 0)
(57.6524 1.00264e-07 0)
(57.6525 1.00589e-07 0)
(57.6526 1.00884e-07 0)
(57.6527 1.00927e-07 0)
(57.6527 1.00674e-07 0)
(57.6528 9.94339e-08 0)
(57.6528 9.95261e-08 0)
(57.6528 9.96998e-08 0)
(57.6527 1.00675e-07 0)
(57.6527 1.02032e-07 0)
(57.6525 1.03192e-07 0)
(57.6523 1.04313e-07 0)
(57.6521 1.05433e-07 0)
(57.6518 1.06666e-07 0)
(57.6513 1.08083e-07 0)
(57.6508 1.09673e-07 0)
(57.6501 1.11481e-07 0)
(57.6493 1.1369e-07 0)
(57.6484 1.16399e-07 0)
(57.6472 1.19647e-07 0)
(57.6458 1.23423e-07 0)
(57.6441 1.27742e-07 0)
(57.6422 1.3264e-07 0)
(57.64 1.38149e-07 0)
(57.6373 1.443e-07 0)
(57.6343 1.51121e-07 0)
(57.6309 1.58605e-07 0)
(57.627 1.66741e-07 0)
(57.6225 1.75485e-07 0)
(57.6176 1.84786e-07 0)
(57.612 1.9459e-07 0)
(57.6059 2.0481e-07 0)
(57.5992 2.15362e-07 0)
(57.5918 2.2614e-07 0)
(57.5837 2.37023e-07 0)
(57.575 2.47857e-07 0)
(57.5656 2.58495e-07 0)
(57.5556 2.68734e-07 0)
(57.545 2.78397e-07 0)
(57.5338 2.8723e-07 0)
(57.522 2.95062e-07 0)
(57.5097 3.01584e-07 0)
(57.4971 3.06664e-07 0)
(57.4841 3.09915e-07 0)
(57.4709 3.11362e-07 0)
(57.4576 3.1049e-07 0)
(57.4443 3.07483e-07 0)
(57.4311 3.01915e-07 0)
(57.4182 2.93872e-07 0)
(57.4056 2.83347e-07 0)
(57.3937 2.70251e-07 0)
(57.3824 2.54972e-07 0)
(57.372 2.37961e-07 0)
(57.3625 2.21278e-07 0)
(57.3541 2.1357e-07 0)
(57.3468 2.5985e-07 0)
(57.3409 5.65938e-07 0)
(57.3362 2.11628e-06 0)
(57.3328 9.42673e-06 0)
(57.3305 4.68544e-05 0)
(57.3282 0.000225793 0)
(57.3201 0.0010788 0)
(57.2803 0.00511584 0)
(57.0892 0.0240221 0)
(56.4738 0.120923 0)
(50.9321 0.449322 0)
(57.8975 0.000163387 0)
(57.8914 0.000114671 0)
(57.8848 0.000106254 0)
(57.8783 0.000110392 0)
(57.8714 0.000111645 0)
(57.864 0.000112073 0)
(57.8563 0.000112546 0)
(57.8482 0.000112864 0)
(57.8396 0.000113196 0)
(57.8305 0.000113405 0)
(57.821 0.00011362 0)
(57.811 0.000113797 0)
(57.8006 0.00011395 0)
(57.7899 0.000114084 0)
(57.7788 0.000114202 0)
(57.7674 0.000114306 0)
(57.7559 0.0001144 0)
(57.7444 0.000114483 0)
(57.7329 0.000114554 0)
(57.7216 0.000114609 0)
(57.7106 0.00011464 0)
(57.7001 0.000114633 0)
(57.6903 0.000114566 0)
(57.6812 0.000114407 0)
(57.673 0.000114114 0)
(57.6659 0.000113631 0)
(57.66 0.000112887 0)
(57.6554 0.000111803 0)
(57.6523 0.000110291 0)
(57.6506 0.00010826 0)
(57.6506 0.000105597 0)
(57.6522 0.00010237 0)
(57.6554 9.83688e-05 0)
(57.6602 9.35806e-05 0)
(57.6667 8.81971e-05 0)
(57.6747 8.2177e-05 0)
(57.6841 7.56427e-05 0)
(57.6949 6.87387e-05 0)
(57.7069 6.16265e-05 0)
(57.72 5.44787e-05 0)
(57.734 4.74656e-05 0)
(57.7487 4.07576e-05 0)
(57.7638 3.44454e-05 0)
(57.779 2.87166e-05 0)
(57.7945 2.34623e-05 0)
(57.8103 1.89073e-05 0)
(57.8259 1.50453e-05 0)
(57.8408 1.17677e-05 0)
(57.8549 9.0446e-06 0)
(57.8681 6.83398e-06 0)
(57.8803 5.07807e-06 0)
(57.8914 3.70907e-06 0)
(57.9012 2.66093e-06 0)
(57.9097 1.87327e-06 0)
(57.9168 1.29243e-06 0)
(57.9224 8.71105e-07 0)
(57.9265 5.67836e-07 0)
(57.9292 3.50402e-07 0)
(57.9303 1.94781e-07 0)
(57.9301 8.74542e-08 0)
(57.9285 1.36135e-08 0)
(57.9256 -2.83122e-08 0)
(57.9215 -5.82459e-08 0)
(57.9163 -7.91605e-08 0)
(57.91 -9.35437e-08 0)
(57.9028 -1.03544e-07 0)
(57.8948 -1.1054e-07 0)
(57.8861 -1.15413e-07 0)
(57.8769 -1.18712e-07 0)
(57.8671 -1.20774e-07 0)
(57.857 -1.21801e-07 0)
(57.8467 -1.21897e-07 0)
(57.8361 -1.21098e-07 0)
(57.8256 -1.19472e-07 0)
(57.815 -1.17068e-07 0)
(57.8045 -1.13946e-07 0)
(57.7942 -1.10179e-07 0)
(57.7842 -1.05779e-07 0)
(57.7744 -1.00768e-07 0)
(57.765 -9.5062e-08 0)
(57.7559 -8.86354e-08 0)
(57.7473 -8.17155e-08 0)
(57.739 -7.44286e-08 0)
(57.7313 -6.68312e-08 0)
(57.7239 -5.90752e-08 0)
(57.7171 -5.12578e-08 0)
(57.7107 -4.34094e-08 0)
(57.7047 -3.56195e-08 0)
(57.6993 -2.79398e-08 0)
(57.6942 -2.04677e-08 0)
(57.6896 -1.33149e-08 0)
(57.6853 -7.59178e-09 0)
(57.6815 -2.87848e-09 0)
(57.678 3.01731e-09 0)
(57.6749 8.92349e-09 0)
(57.672 1.45677e-08 0)
(57.6695 1.98598e-08 0)
(57.6672 2.47412e-08 0)
(57.6652 2.92151e-08 0)
(57.6634 3.33392e-08 0)
(57.6619 3.72068e-08 0)
(57.6605 4.08823e-08 0)
(57.6593 4.439e-08 0)
(57.6582 4.76844e-08 0)
(57.6572 5.07139e-08 0)
(57.6564 5.34384e-08 0)
(57.6557 5.58415e-08 0)
(57.6551 5.7938e-08 0)
(57.6546 5.97719e-08 0)
(57.6541 6.13799e-08 0)
(57.6537 6.27873e-08 0)
(57.6534 6.40102e-08 0)
(57.6531 6.50603e-08 0)
(57.6528 6.59556e-08 0)
(57.6526 6.67156e-08 0)
(57.6524 6.7361e-08 0)
(57.6523 6.79061e-08 0)
(57.6521 6.83846e-08 0)
(57.652 6.8815e-08 0)
(57.6519 6.916e-08 0)
(57.6519 6.92439e-08 0)
(57.6519 7.0008e-08 0)
(57.6518 7.03412e-08 0)
(57.6518 7.03824e-08 0)
(57.6518 7.0499e-08 0)
(57.6519 7.10322e-08 0)
(57.6519 7.1011e-08 0)
(57.6519 7.10433e-08 0)
(57.652 7.13758e-08 0)
(57.6521 7.11264e-08 0)
(57.6521 7.15504e-08 0)
(57.6522 7.16575e-08 0)
(57.6523 7.18915e-08 0)
(57.6524 7.19035e-08 0)
(57.6525 7.14685e-08 0)
(57.6526 7.21714e-08 0)
(57.6526 7.27832e-08 0)
(57.6527 7.31755e-08 0)
(57.6528 7.33666e-08 0)
(57.6528 7.27671e-08 0)
(57.6528 7.32522e-08 0)
(57.6528 7.36014e-08 0)
(57.6528 7.46148e-08 0)
(57.6527 7.59425e-08 0)
(57.6526 7.7054e-08 0)
(57.6524 7.81538e-08 0)
(57.6522 7.92626e-08 0)
(57.6518 8.0444e-08 0)
(57.6514 8.17651e-08 0)
(57.6509 8.3225e-08 0)
(57.6502 8.48725e-08 0)
(57.6494 8.68246e-08 0)
(57.6484 8.91541e-08 0)
(57.6473 9.18823e-08 0)
(57.6459 9.49991e-08 0)
(57.6442 9.85217e-08 0)
(57.6423 1.02462e-07 0)
(57.64 1.06838e-07 0)
(57.6374 1.1167e-07 0)
(57.6344 1.16956e-07 0)
(57.6309 1.22692e-07 0)
(57.627 1.28843e-07 0)
(57.6226 1.35381e-07 0)
(57.6176 1.42256e-07 0)
(57.6121 1.49416e-07 0)
(57.606 1.56784e-07 0)
(57.5992 1.64305e-07 0)
(57.5918 1.71877e-07 0)
(57.5838 1.7943e-07 0)
(57.5751 1.86815e-07 0)
(57.5657 1.93953e-07 0)
(57.5557 2.00638e-07 0)
(57.545 2.06796e-07 0)
(57.5338 2.12172e-07 0)
(57.522 2.16712e-07 0)
(57.5098 2.20099e-07 0)
(57.4971 2.22384e-07 0)
(57.4842 2.2308e-07 0)
(57.4709 2.2253e-07 0)
(57.4576 2.19956e-07 0)
(57.4443 2.15961e-07 0)
(57.4311 2.09862e-07 0)
(57.4182 2.01932e-07 0)
(57.4057 1.92169e-07 0)
(57.3938 1.80386e-07 0)
(57.3825 1.67094e-07 0)
(57.3721 1.52992e-07 0)
(57.3626 1.4171e-07 0)
(57.3541 1.50755e-07 0)
(57.3469 2.6572e-07 0)
(57.3409 8.93953e-07 0)
(57.3362 3.98973e-06 0)
(57.3329 1.87355e-05 0)
(57.3306 9.25623e-05 0)
(57.3283 0.000447979 0)
(57.3204 0.00214116 0)
(57.2815 0.0101607 0)
(57.0953 0.0477047 0)
(56.4971 0.239034 0)
(51.2534 0.868962 0)
(57.8974 0.000119122 0)
(57.8914 0.000104825 0)
(57.8848 9.86251e-05 0)
(57.8783 0.00010372 0)
(57.8714 0.00010622 0)
(57.864 0.00010745 0)
(57.8562 0.000108539 0)
(57.8481 0.000109432 0)
(57.8396 0.000110212 0)
(57.8305 0.000110827 0)
(57.821 0.000111365 0)
(57.811 0.00011182 0)
(57.8006 0.000112207 0)
(57.7898 0.000112541 0)
(57.7787 0.000112829 0)
(57.7674 0.000113079 0)
(57.7559 0.000113298 0)
(57.7443 0.00011349 0)
(57.7329 0.000113656 0)
(57.7216 0.000113793 0)
(57.7106 0.000113897 0)
(57.7001 0.000113956 0)
(57.6902 0.00011395 0)
(57.6811 0.000113849 0)
(57.673 0.000113612 0)
(57.6659 0.000113185 0)
(57.66 0.0001125 0)
(57.6554 0.000111481 0)
(57.6522 0.000110039 0)
(57.6506 0.000108087 0)
(57.6505 0.000105522 0)
(57.6521 0.000102365 0)
(57.6553 9.84601e-05 0)
(57.6602 9.37934e-05 0)
(57.6666 8.84984e-05 0)
(57.6746 8.25686e-05 0)
(57.6841 7.61149e-05 0)
(57.6949 6.92773e-05 0)
(57.7069 6.22153e-05 0)
(57.72 5.50992e-05 0)
(57.734 4.80989e-05 0)
(57.7487 4.1381e-05 0)
(57.7638 3.50528e-05 0)
(57.779 2.9274e-05 0)
(57.7945 2.40031e-05 0)
(57.8103 1.94014e-05 0)
(57.8259 1.54722e-05 0)
(57.8408 1.21379e-05 0)
(57.8549 9.36585e-06 0)
(57.8681 7.11108e-06 0)
(57.8803 5.31485e-06 0)
(57.8914 3.91017e-06 0)
(57.9012 2.83098e-06 0)
(57.9097 2.016e-06 0)
(57.9168 1.41002e-06 0)
(57.9224 9.63961e-07 0)
(57.9265 6.3519e-07 0)
(57.9292 3.92869e-07 0)
(57.9303 2.27508e-07 0)
(57.9301 1.21378e-07 0)
(57.9285 5.28299e-08 0)
(57.9256 8.73165e-09 0)
(57.9215 -2.14817e-08 0)
(57.9163 -4.15004e-08 0)
(57.91 -5.45782e-08 0)
(57.9028 -6.30054e-08 0)
(57.8948 -6.8288e-08 0)
(57.8861 -7.13882e-08 0)
(57.8769 -7.29217e-08 0)
(57.8671 -7.33043e-08 0)
(57.857 -7.28047e-08 0)
(57.8467 -7.15655e-08 0)
(57.8361 -6.96678e-08 0)
(57.8256 -6.72059e-08 0)
(57.815 -6.42718e-08 0)
(57.8045 -6.08513e-08 0)
(57.7942 -5.69021e-08 0)
(57.7842 -5.23942e-08 0)
(57.7744 -4.73456e-08 0)
(57.765 -4.18614e-08 0)
(57.7559 -3.61492e-08 0)
(57.7473 -3.02386e-08 0)
(57.739 -2.41744e-08 0)
(57.7313 -1.80098e-08 0)
(57.7239 -1.185e-08 0)
(57.7171 -5.72222e-09 0)
(57.7107 3.63822e-10 0)
(57.7047 6.3802e-09 0)
(57.6993 1.22911e-08 0)
(57.6942 1.80763e-08 0)
(57.6896 2.37743e-08 0)
(57.6853 2.95966e-08 0)
(57.6815 3.51149e-08 0)
(57.678 4.01954e-08 0)
(57.6749 4.50132e-08 0)
(57.672 4.95536e-08 0)
(57.6695 5.37612e-08 0)
(57.6672 5.75919e-08 0)
(57.6652 6.10558e-08 0)
(57.6634 6.42176e-08 0)
(57.6619 6.71799e-08 0)
(57.6605 7.00113e-08 0)
(57.6593 7.27346e-08 0)
(57.6582 7.53229e-08 0)
(57.6572 7.77245e-08 0)
(57.6564 7.98964e-08 0)
(57.6557 8.18205e-08 0)
(57.6551 8.35095e-08 0)
(57.6546 8.49928e-08 0)
(57.6541 8.63014e-08 0)
(57.6537 8.74612e-08 0)
(57.6534 8.84835e-08 0)
(57.6531 8.93782e-08 0)
(57.6528 9.01599e-08 0)
(57.6526 9.08375e-08 0)
(57.6524 9.14297e-08 0)
(57.6523 9.19529e-08 0)
(57.6521 9.24269e-08 0)
(57.652 9.28703e-08 0)
(57.6519 9.32544e-08 0)
(57.6519 9.34819e-08 0)
(57.6519 9.41425e-08 0)
(57.6518 9.45505e-08 0)
(57.6518 9.47419e-08 0)
(57.6518 9.49908e-08 0)
(57.6519 9.54938e-08 0)
(57.6519 9.56686e-08 0)
(57.6519 9.58399e-08 0)
(57.652 9.6175e-08 0)
(57.6521 9.61669e-08 0)
(57.6521 9.66597e-08 0)
(57.6522 9.68439e-08 0)
(57.6523 9.72387e-08 0)
(57.6524 9.74477e-08 0)
(57.6525 9.74173e-08 0)
(57.6526 9.81631e-08 0)
(57.6526 9.89214e-08 0)
(57.6527 9.95104e-08 0)
(57.6528 9.99067e-08 0)
(57.6528 9.97009e-08 0)
(57.6528 1.00185e-07 0)
(57.6528 1.00713e-07 0)
(57.6528 1.01697e-07 0)
(57.6527 1.02978e-07 0)
(57.6526 1.04088e-07 0)
(57.6524 1.05142e-07 0)
(57.6522 1.0615e-07 0)
(57.6518 1.07181e-07 0)
(57.6514 1.08302e-07 0)
(57.6509 1.09523e-07 0)
(57.6502 1.10864e-07 0)
(57.6494 1.12409e-07 0)
(57.6484 1.1422e-07 0)
(57.6473 1.16314e-07 0)
(57.6459 1.18689e-07 0)
(57.6442 1.21353e-07 0)
(57.6423 1.24314e-07 0)
(57.64 1.27591e-07 0)
(57.6374 1.31198e-07 0)
(57.6344 1.35149e-07 0)
(57.6309 1.3944e-07 0)
(57.627 1.44064e-07 0)
(57.6226 1.48999e-07 0)
(57.6176 1.54221e-07 0)
(57.6121 1.59698e-07 0)
(57.606 1.65385e-07 0)
(57.5992 1.71252e-07 0)
(57.5918 1.77214e-07 0)
(57.5838 1.83255e-07 0)
(57.5751 1.89227e-07 0)
(57.5657 1.95149e-07 0)
(57.5557 2.0077e-07 0)
(57.545 2.06183e-07 0)
(57.5338 2.11019e-07 0)
(57.522 2.15479e-07 0)
(57.5098 2.19013e-07 0)
(57.4971 2.22117e-07 0)
(57.4842 2.23718e-07 0)
(57.4709 2.25088e-07 0)
(57.4576 2.24265e-07 0)
(57.4443 2.23257e-07 0)
(57.4311 2.19995e-07 0)
(57.4182 2.15897e-07 0)
(57.4057 2.10189e-07 0)
(57.3938 2.03215e-07 0)
(57.3825 1.95202e-07 0)
(57.3721 1.88744e-07 0)
(57.3626 1.9265e-07 0)
(57.3541 2.49482e-07 0)
(57.3469 5.7632e-07 0)
(57.3409 2.20389e-06 0)
(57.3362 1.01032e-05 0)
(57.3329 4.75215e-05 0)
(57.3307 0.000234681 0)
(57.3285 0.00113625 0)
(57.3216 0.00542921 0)
(57.2874 0.0256854 0)
(57.125 0.119077 0)
(56.6071 0.548903 0)
(52.6418 1.96006 0)
(57.8974 3.57727e-05 0)
(57.8914 2.86032e-05 0)
(57.8847 1.87457e-05 0)
(57.8782 1.59755e-05 0)
(57.8713 1.36929e-05 0)
(57.864 1.15364e-05 0)
(57.8562 9.84139e-06 0)
(57.8481 8.4815e-06 0)
(57.8395 7.36663e-06 0)
(57.8305 6.42565e-06 0)
(57.8209 5.63441e-06 0)
(57.811 4.96135e-06 0)
(57.8006 4.38433e-06 0)
(57.7898 3.88704e-06 0)
(57.7787 3.45639e-06 0)
(57.7674 3.08169e-06 0)
(57.7559 2.75442e-06 0)
(57.7443 2.46773e-06 0)
(57.7328 2.21583e-06 0)
(57.7215 1.99388e-06 0)
(57.7106 1.79791e-06 0)
(57.7001 1.62448e-06 0)
(57.6902 1.47066e-06 0)
(57.6811 1.33389e-06 0)
(57.6729 1.21195e-06 0)
(57.6658 1.10285e-06 0)
(57.6599 1.00451e-06 0)
(57.6554 9.15181e-07 0)
(57.6522 8.32953e-07 0)
(57.6506 7.55604e-07 0)
(57.6505 6.76409e-07 0)
(57.6521 6.20493e-07 0)
(57.6553 5.52658e-07 0)
(57.6602 4.71611e-07 0)
(57.6666 4.10181e-07 0)
(57.6746 3.47478e-07 0)
(57.6841 2.84896e-07 0)
(57.6949 2.25244e-07 0)
(57.7069 1.69975e-07 0)
(57.72 1.19787e-07 0)
(57.734 7.55263e-08 0)
(57.7487 4.02751e-08 0)
(57.7638 5.95209e-09 0)
(57.779 -1.20456e-08 0)
(57.7945 -4.73876e-08 0)
(57.8103 -6.50047e-08 0)
(57.8259 -6.58157e-08 0)
(57.8408 -6.86745e-08 0)
(57.8549 -7.30024e-08 0)
(57.8681 -7.61962e-08 0)
(57.8803 -7.72288e-08 0)
(57.8914 -7.67304e-08 0)
(57.9012 -7.53625e-08 0)
(57.9097 -7.35413e-08 0)
(57.9168 -7.16365e-08 0)
(57.9224 -6.97588e-08 0)
(57.9265 -6.45887e-08 0)
(57.9292 -4.84783e-08 0)
(57.9303 -3.50826e-08 0)
(57.9301 -3.30415e-08 0)
(57.9285 -3.70133e-08 0)
(57.9256 -4.60339e-08 0)
(57.9215 -5.1292e-08 0)
(57.9163 -5.42799e-08 0)
(57.91 -5.60887e-08 0)
(57.9028 -5.7197e-08 0)
(57.8948 -5.78581e-08 0)
(57.8861 -5.81947e-08 0)
(57.8769 -5.82746e-08 0)
(57.8671 -5.81356e-08 0)
(57.857 -5.78028e-08 0)
(57.8467 -5.72722e-08 0)
(57.8361 -5.65366e-08 0)
(57.8256 -5.55921e-08 0)
(57.815 -5.44228e-08 0)
(57.8045 -5.30449e-08 0)
(57.7942 -5.15195e-08 0)
(57.7842 -4.99193e-08 0)
(57.7744 -4.82909e-08 0)
(57.765 -4.67815e-08 0)
(57.7559 -4.54476e-08 0)
(57.7473 -4.41352e-08 0)
(57.739 -4.27673e-08 0)
(57.7313 -4.13765e-08 0)
(57.7239 -3.99756e-08 0)
(57.7171 -3.85413e-08 0)
(57.7107 -3.70887e-08 0)
(57.7047 -3.56441e-08 0)
(57.6993 -3.42068e-08 0)
(57.6942 -3.2791e-08 0)
(57.6896 -3.14294e-08 0)
(57.6853 -2.98888e-08 0)
(57.6815 -2.81399e-08 0)
(57.678 -2.6644e-08 0)
(57.6749 -2.52754e-08 0)
(57.672 -2.40168e-08 0)
(57.6695 -2.2862e-08 0)
(57.6672 -2.18074e-08 0)
(57.6652 -2.08442e-08 0)
(57.6634 -1.99627e-08 0)
(57.6619 -1.91515e-08 0)
(57.6605 -1.84033e-08 0)
(57.6593 -1.77162e-08 0)
(57.6582 -1.70984e-08 0)
(57.6572 -1.65521e-08 0)
(57.6564 -1.60799e-08 0)
(57.6557 -1.56755e-08 0)
(57.6551 -1.53374e-08 0)
(57.6546 -1.50548e-08 0)
(57.6541 -1.48252e-08 0)
(57.6537 -1.46392e-08 0)
(57.6534 -1.44995e-08 0)
(57.6531 -1.43984e-08 0)
(57.6528 -1.43368e-08 0)
(57.6526 -1.43059e-08 0)
(57.6524 -1.43026e-08 0)
(57.6523 -1.43237e-08 0)
(57.6521 -1.43627e-08 0)
(57.652 -1.44199e-08 0)
(57.6519 -1.45043e-08 0)
(57.6519 -1.46367e-08 0)
(57.6519 -1.46513e-08 0)
(57.6518 -1.47409e-08 0)
(57.6518 -1.49154e-08 0)
(57.6518 -1.50678e-08 0)
(57.6519 -1.51513e-08 0)
(57.6519 -1.53203e-08 0)
(57.6519 -1.55088e-08 0)
(57.652 -1.56702e-08 0)
(57.6521 -1.59322e-08 0)
(57.6521 -1.60488e-08 0)
(57.6522 -1.63469e-08 0)
(57.6523 -1.66163e-08 0)
(57.6524 -1.70341e-08 0)
(57.6525 -1.75857e-08 0)
(57.6526 -1.79698e-08 0)
(57.6526 -1.83807e-08 0)
(57.6527 -1.88402e-08 0)
(57.6528 -1.92967e-08 0)
(57.6528 -1.98578e-08 0)
(57.6528 -2.01605e-08 0)
(57.6528 -2.04104e-08 0)
(57.6528 -2.05583e-08 0)
(57.6527 -2.05957e-08 0)
(57.6526 -2.06648e-08 0)
(57.6524 -2.07073e-08 0)
(57.6522 -2.0708e-08 0)
(57.6518 -2.06512e-08 0)
(57.6514 -2.05397e-08 0)
(57.6509 -2.03842e-08 0)
(57.6502 -2.0175e-08 0)
(57.6494 -1.98815e-08 0)
(57.6484 -1.94786e-08 0)
(57.6473 -1.8962e-08 0)
(57.6459 -1.83365e-08 0)
(57.6442 -1.76e-08 0)
(57.6423 -1.67484e-08 0)
(57.64 -1.57764e-08 0)
(57.6374 -1.46827e-08 0)
(57.6344 -1.34661e-08 0)
(57.6309 -1.21275e-08 0)
(57.627 -1.06769e-08 0)
(57.6226 -9.11869e-09 0)
(57.6176 -7.46811e-09 0)
(57.6121 -5.72711e-09 0)
(57.606 -3.93461e-09 0)
(57.5992 -2.05926e-09 0)
(57.5918 -2.07157e-10 0)
(57.5838 1.74184e-09 0)
(57.5751 3.53731e-09 0)
(57.5657 5.47832e-09 0)
(57.5557 7.07097e-09 0)
(57.545 8.87661e-09 0)
(57.5338 1.00897e-08 0)
(57.522 1.16561e-08 0)
(57.5098 1.21692e-08 0)
(57.4971 1.35594e-08 0)
(57.4842 1.28511e-08 0)
(57.4709 1.41544e-08 0)
(57.4576 1.2092e-08 0)
(57.4443 1.26477e-08 0)
(57.4311 1.00414e-08 0)
(57.4182 8.85896e-09 0)
(57.4057 5.96943e-09 0)
(57.3938 3.80369e-09 0)
(57.3825 5.62557e-10 0)
(57.3721 2.89148e-09 0)
(57.3626 2.14906e-08 0)
(57.3541 1.33644e-07 0)
(57.3469 6.90223e-07 0)
(57.3409 3.43265e-06 0)
(57.3363 1.66659e-05 0)
(57.3329 8.08129e-05 0)
(57.3309 0.000386778 0)
(57.3298 0.00189585 0)
(57.3275 0.00906284 0)
(57.3147 0.0430063 0)
(57.2459 0.199632 0)
(57.0195 0.894188 0)
(54.6424 3.16424 0)
(57.8974 -3.57727e-05 0)
(57.8914 -2.86032e-05 0)
(57.8847 -1.87457e-05 0)
(57.8782 -1.59755e-05 0)
(57.8713 -1.36929e-05 0)
(57.864 -1.15364e-05 0)
(57.8562 -9.84139e-06 0)
(57.8481 -8.4815e-06 0)
(57.8395 -7.36663e-06 0)
(57.8305 -6.42565e-06 0)
(57.8209 -5.63441e-06 0)
(57.811 -4.96135e-06 0)
(57.8006 -4.38433e-06 0)
(57.7898 -3.88704e-06 0)
(57.7787 -3.45639e-06 0)
(57.7674 -3.08169e-06 0)
(57.7559 -2.75442e-06 0)
(57.7443 -2.46773e-06 0)
(57.7328 -2.21583e-06 0)
(57.7215 -1.99388e-06 0)
(57.7106 -1.79791e-06 0)
(57.7001 -1.62448e-06 0)
(57.6902 -1.47066e-06 0)
(57.6811 -1.33389e-06 0)
(57.6729 -1.21195e-06 0)
(57.6658 -1.10285e-06 0)
(57.6599 -1.00451e-06 0)
(57.6554 -9.15182e-07 0)
(57.6522 -8.32954e-07 0)
(57.6506 -7.55604e-07 0)
(57.6505 -6.76408e-07 0)
(57.6521 -6.20494e-07 0)
(57.6553 -5.52657e-07 0)
(57.6602 -4.71611e-07 0)
(57.6666 -4.10181e-07 0)
(57.6746 -3.47478e-07 0)
(57.6841 -2.84895e-07 0)
(57.6949 -2.25243e-07 0)
(57.7069 -1.69977e-07 0)
(57.72 -1.19787e-07 0)
(57.734 -7.55256e-08 0)
(57.7487 -4.02744e-08 0)
(57.7638 -5.95136e-09 0)
(57.779 1.20453e-08 0)
(57.7945 4.73874e-08 0)
(57.8103 6.50042e-08 0)
(57.8259 6.58152e-08 0)
(57.8408 6.86736e-08 0)
(57.8549 7.30019e-08 0)
(57.8681 7.61953e-08 0)
(57.8803 7.72284e-08 0)
(57.8914 7.67323e-08 0)
(57.9012 7.53629e-08 0)
(57.9097 7.35415e-08 0)
(57.9168 7.16365e-08 0)
(57.9224 6.97571e-08 0)
(57.9265 6.45893e-08 0)
(57.9292 4.84787e-08 0)
(57.9303 3.50828e-08 0)
(57.9301 3.30414e-08 0)
(57.9285 3.70127e-08 0)
(57.9256 4.6034e-08 0)
(57.9215 5.12916e-08 0)
(57.9163 5.42787e-08 0)
(57.91 5.60878e-08 0)
(57.9028 5.71971e-08 0)
(57.8948 5.78574e-08 0)
(57.8861 5.81941e-08 0)
(57.8769 5.82737e-08 0)
(57.8671 5.8137e-08 0)
(57.857 5.78045e-08 0)
(57.8467 5.72734e-08 0)
(57.8361 5.6537e-08 0)
(57.8256 5.55919e-08 0)
(57.815 5.44228e-08 0)
(57.8045 5.30433e-08 0)
(57.7942 5.15195e-08 0)
(57.7842 4.99176e-08 0)
(57.7744 4.82915e-08 0)
(57.765 4.67814e-08 0)
(57.7559 4.54475e-08 0)
(57.7473 4.41356e-08 0)
(57.739 4.27679e-08 0)
(57.7313 4.13765e-08 0)
(57.7239 3.99759e-08 0)
(57.7171 3.85418e-08 0)
(57.7107 3.70901e-08 0)
(57.7047 3.5644e-08 0)
(57.6993 3.42057e-08 0)
(57.6942 3.27906e-08 0)
(57.6896 3.14297e-08 0)
(57.6853 2.98887e-08 0)
(57.6815 2.81403e-08 0)
(57.678 2.6643e-08 0)
(57.6749 2.5275e-08 0)
(57.672 2.4016e-08 0)
(57.6695 2.28619e-08 0)
(57.6672 2.18071e-08 0)
(57.6652 2.08457e-08 0)
(57.6634 1.99625e-08 0)
(57.6619 1.91511e-08 0)
(57.6605 1.84026e-08 0)
(57.6593 1.77176e-08 0)
(57.6582 1.7098e-08 0)
(57.6572 1.65507e-08 0)
(57.6564 1.60792e-08 0)
(57.6557 1.56759e-08 0)
(57.6551 1.53382e-08 0)
(57.6546 1.50549e-08 0)
(57.6541 1.48241e-08 0)
(57.6537 1.46401e-08 0)
(57.6534 1.45008e-08 0)
(57.6531 1.44001e-08 0)
(57.6528 1.43366e-08 0)
(57.6526 1.43064e-08 0)
(57.6524 1.43027e-08 0)
(57.6523 1.43239e-08 0)
(57.6521 1.43635e-08 0)
(57.652 1.44195e-08 0)
(57.6519 1.45042e-08 0)
(57.6519 1.46352e-08 0)
(57.6519 1.46511e-08 0)
(57.6518 1.47415e-08 0)
(57.6518 1.49159e-08 0)
(57.6518 1.50671e-08 0)
(57.6519 1.51511e-08 0)
(57.6519 1.53204e-08 0)
(57.6519 1.55093e-08 0)
(57.652 1.56708e-08 0)
(57.6521 1.59334e-08 0)
(57.6521 1.60497e-08 0)
(57.6522 1.63485e-08 0)
(57.6523 1.66168e-08 0)
(57.6524 1.70339e-08 0)
(57.6525 1.75847e-08 0)
(57.6526 1.79696e-08 0)
(57.6526 1.83806e-08 0)
(57.6527 1.88404e-08 0)
(57.6528 1.92965e-08 0)
(57.6528 1.98569e-08 0)
(57.6528 2.01587e-08 0)
(57.6528 2.04093e-08 0)
(57.6528 2.05585e-08 0)
(57.6527 2.05956e-08 0)
(57.6526 2.06652e-08 0)
(57.6524 2.0708e-08 0)
(57.6522 2.07064e-08 0)
(57.6518 2.06513e-08 0)
(57.6514 2.05401e-08 0)
(57.6509 2.0383e-08 0)
(57.6502 2.01748e-08 0)
(57.6494 1.98796e-08 0)
(57.6484 1.94769e-08 0)
(57.6473 1.89621e-08 0)
(57.6459 1.83366e-08 0)
(57.6442 1.76011e-08 0)
(57.6423 1.67494e-08 0)
(57.64 1.57783e-08 0)
(57.6374 1.4684e-08 0)
(57.6344 1.34653e-08 0)
(57.6309 1.21283e-08 0)
(57.627 1.06766e-08 0)
(57.6226 9.12084e-09 0)
(57.6176 7.46391e-09 0)
(57.6121 5.73714e-09 0)
(57.606 3.9169e-09 0)
(57.5992 2.08959e-09 0)
(57.5918 1.55108e-10 0)
(57.5838 -1.66197e-09 0)
(57.5751 -3.65432e-09 0)
(57.5657 -5.31547e-09 0)
(57.5557 -7.27826e-09 0)
(57.545 -8.613e-09 0)
(57.5338 -1.04263e-08 0)
(57.522 -1.12019e-08 0)
(57.5098 -1.28245e-08 0)
(57.4971 -1.26185e-08 0)
(57.4842 -1.41607e-08 0)
(57.4709 -1.2554e-08 0)
(57.4576 -1.38447e-08 0)
(57.4443 -1.10601e-08 0)
(57.4311 -1.13123e-08 0)
(57.4182 -7.86977e-09 0)
(57.4057 -6.77958e-09 0)
(57.3938 -2.03737e-09 0)
(57.3825 9.08985e-10 0)
(57.3721 1.21745e-08 0)
(57.3626 3.94018e-08 0)
(57.3541 1.68216e-07 0)
(57.3469 7.35812e-07 0)
(57.3409 3.49659e-06 0)
(57.3363 1.68093e-05 0)
(57.333 8.21915e-05 0)
(57.3312 0.000384268 0)
(57.3314 0.00191643 0)
(57.3349 0.00922061 0)
(57.3492 0.0445969 0)
(57.4031 0.213822 0)
(57.5881 1.01522 0)
(58.2968 3.55681 0)
(57.8974 -0.000119122 0)
(57.8914 -0.000104825 0)
(57.8848 -9.86251e-05 0)
(57.8783 -0.00010372 0)
(57.8714 -0.00010622 0)
(57.864 -0.00010745 0)
(57.8562 -0.000108539 0)
(57.8481 -0.000109432 0)
(57.8396 -0.000110212 0)
(57.8305 -0.000110827 0)
(57.821 -0.000111365 0)
(57.811 -0.00011182 0)
(57.8006 -0.000112207 0)
(57.7898 -0.000112541 0)
(57.7787 -0.000112829 0)