/*--------------------------------*- C++ -*----------------------------------*\
| =========                 |                                                 |
| \\      /  F ield         | OpenFOAM: The Open Source CFD Toolbox           |
|  \\    /   O peration     | Version:  3.0.x                                 |
|   \\  /    A nd           | Web:      www.OpenFOAM.org                      |
|    \\/     M anipulation  |                                                 |
\*---------------------------------------------------------------------------*/
FoamFile
{
    version     2.0;
    format      ascii;
    class       surfaceScalarField;
    location    "0.6";
    object      phi;
}
// * * * * * * * * * * * * * * * * * * * * * * * * * * * * * * * * * * * * * //

dimensions      [1 0 -1 0 0 0 0];

internalField   nonuniform List<scalar> 
53800
(
2.15854
0.0010378
2.143
0.000718825
2.12747
0.000723082
2.11194
0.000735296
2.09641
0.000746576
2.08088
0.00075802
2.06534
0.000769196
2.0498
0.000779669
2.03425
0.000789295
2.01869
0.000798033
2.00314
0.000805866
1.98758
0.000812736
1.97201
0.000818335
1.95645
0.000823098
1.9409
0.000826978
1.92535
0.000830021
1.90981
0.00083232
1.89429
0.000833979
1.87879
0.000835099
1.8633
0.000835786
1.84784
0.00083615
1.83239
0.000836257
1.81698
0.000836174
1.80159
0.000835942
1.78623
0.000835626
1.7709
0.000835228
1.7556
0.0008348
1.74032
0.000834321
1.72508
0.000833812
1.70988
0.000833288
1.6947
0.000832749
1.67957
0.000832201
1.66446
0.000831638
1.64939
0.000831054
1.63436
0.000830458
1.61937
0.000829857
1.60442
0.000829235
1.5895
0.00082862
1.57463
0.000827995
1.55979
0.000827355
1.545
0.000826686
1.53025
0.000826008
1.51555
0.000825341
1.50089
0.000824664
1.48627
0.000823972
1.47171
0.000823252
1.45719
0.000822534
1.44271
0.000821841
1.42829
0.000821151
1.41391
0.000820422
1.39959
0.000819671
1.38531
0.000818912
1.37109
0.000818151
1.35692
0.000817413
1.34281
0.000816681
1.32874
0.000815941
1.31474
0.000815173
1.30079
0.00081439
1.28689
0.000813642
1.27306
0.00081292
1.25928
0.000812161
1.24556
0.000811359
1.2319
0.000810517
1.2183
0.000809641
1.20476
0.000808706
1.19128
0.000807732
1.17786
0.000806679
1.16451
0.000805496
1.15122
0.0008041
1.138
0.000802487
1.12485
0.00080058
1.11176
0.000798267
1.09874
0.000795363
1.08579
0.000791711
1.07291
0.000787137
1.0601
0.000781473
1.04737
0.000774524
1.03472
0.000766036
1.02215
0.000755785
1.00965
0.000743518
0.997248
0.000729022
0.984929
0.000712102
0.972702
0.000692575
0.960569
0.000670353
0.948533
0.000645376
0.936599
0.000617658
0.924768
0.000587317
0.913044
0.000554522
0.90143
0.000519541
0.889928
0.00048272
0.87854
0.000444442
0.867267
0.000405157
0.85611
0.000365353
0.845071
0.000325509
0.834148
0.000286125
0.823341
0.000247674
0.81265
0.000210578
0.802072
0.000175218
0.791607
0.000141922
0.781252
0.00011093
0.771006
8.24109e-05
0.760865
5.64846e-05
0.750827
3.31957e-05
0.740891
1.23742e-05
0.731055
-6.32485e-06
0.721315
-2.27798e-05
0.711671
-3.67012e-05
0.70212
-4.83707e-05
0.692661
-5.8054e-05
0.683291
-6.60125e-05
0.674009
-7.24795e-05
0.664815
-7.7667e-05
0.655706
-8.17861e-05
0.646683
-8.50352e-05
0.637744
-8.75337e-05
0.62889
-8.94397e-05
0.620119
-9.0878e-05
0.61143
-9.19299e-05
0.602824
-9.26761e-05
0.5943
-9.3192e-05
0.585858
-9.35365e-05
0.577497
-9.37254e-05
0.569217
-9.38089e-05
0.561018
-9.38276e-05
0.552899
-9.37711e-05
0.544859
-9.36684e-05
0.536899
-9.35387e-05
0.529017
-9.33892e-05
0.521213
-9.32053e-05
0.513487
-9.30077e-05
0.505838
-9.28159e-05
0.498266
-9.25932e-05
0.49077
-9.23645e-05
0.483348
-9.21407e-05
0.476001
-9.19081e-05
0.468728
-9.16601e-05
0.461527
-9.14095e-05
0.454399
-9.11692e-05
0.447343
-9.09024e-05
0.440356
-9.06323e-05
0.43344
-9.03751e-05
0.426593
-9.00974e-05
0.419814
-8.98141e-05
0.413102
-8.95377e-05
0.406456
-8.92542e-05
0.399877
-8.89565e-05
0.393362
-8.86629e-05
0.386912
-8.83754e-05
0.380524
-8.80638e-05
0.3742
-8.77527e-05
0.367937
-8.74616e-05
0.361735
-8.71396e-05
0.355594
-8.68184e-05
0.349513
-8.65153e-05
0.34349
-8.61885e-05
0.337526
-8.58594e-05
0.33162
-8.55469e-05
0.325771
-8.5218e-05
0.319979
-8.48826e-05
0.314243
-8.45635e-05
0.308564
-8.4235e-05
0.30294
-8.38954e-05
0.297371
-8.3572e-05
0.291857
-8.32405e-05
0.286398
-8.2899e-05
0.280994
-8.25756e-05
0.275644
-8.22452e-05
0.270347
-8.19029e-05
0.265105
-8.15767e-05
0.259917
-8.12463e-05
0.254783
-8.09076e-05
0.249703
-8.05857e-05
0.244677
-8.02598e-05
0.239704
-7.99191e-05
0.234786
-7.96047e-05
0.229923
-7.92662e-05
0.225113
-7.89468e-05
0.220357
-7.85998e-05
0.215656
-7.83203e-05
0.211009
-7.7904e-05
0.206417
-7.76883e-05
0.201879
-7.72395e-05
0.197396
-7.69695e-05
0.192968
-7.66767e-05
0.188594
-7.60921e-05
0.184276
-7.62486e-05
0.180012
-7.50266e-05
0.175804
-7.58734e-05
0.171648
-7.38409e-05
0.16755
-7.53568e-05
0.163503
-7.21761e-05
0.159512
-7.35967e-05
0.155567
-6.46604e-05
0.151663
-5.15169e-05
0.147757
4.35746e-06
0.143736
0.000172464
0.138596
0.00134696
0.131414
0.00343969
0.0996935
0.0280311
0.0508131
0.0452442
2.48085
0.00100082
2.46384
0.000705498
2.44685
0.000703951
2.42987
0.000717501
2.41291
0.000728618
2.39595
0.000740124
2.37901
0.000751562
2.36206
0.000762309
2.34512
0.000772207
2.32818
0.000781243
2.31125
0.000789408
2.29433
0.000796638
2.27741
0.000802632
2.26049
0.0008078
2.24358
0.000812105
2.22669
0.00081559
2.20982
0.000818345
2.19296
0.000820472
2.17612
0.00082207
2.1593
0.000823244
2.1425
0.0008241
2.12574
0.000824706
2.109
0.000825125
2.09229
0.000825399
2.07562
0.00082559
2.05897
0.000825702
2.04236
0.000825783
2.02578
0.000825814
2.00924
0.000825815
1.99274
0.000825802
1.97627
0.000825773
1.95984
0.000825734
1.94345
0.00082568
1.9271
0.000825604
1.91079
0.000825516
1.89453
0.000825421
1.8783
0.000825306
1.86213
0.000825196
1.84599
0.000825076
1.8299
0.000824939
1.81386
0.000824773
1.79787
0.000824598
1.78193
0.000824432
1.76603
0.000824255
1.75019
0.000824062
1.7344
0.000823843
1.71866
0.000823624
1.70298
0.00082343
1.68735
0.000823237
1.67178
0.000823003
1.65626
0.000822747
1.6408
0.000822483
1.62539
0.000822217
1.61005
0.000821973
1.59477
0.000821735
1.57955
0.000821487
1.56439
0.00082121
1.54929
0.000820919
1.53426
0.00082066
1.51929
0.000820421
1.50438
0.00082014
1.48955
0.000819807
1.47478
0.000819424
1.46007
0.000818994
1.44544
0.000818488
1.43087
0.000817916
1.41638
0.000817228
1.40195
0.000816357
1.3876
0.000815206
1.37332
0.000813744
1.35912
0.000811869
1.34499
0.00080943
1.33094
0.000806208
1.31696
0.000802006
1.30306
0.000796607
1.28924
0.000789804
1.2755
0.000781359
1.26184
0.000770984
1.24826
0.000758422
1.23476
0.000743403
1.22135
0.000725709
1.20802
0.000705159
1.19478
0.000681609
1.18163
0.000655028
1.16857
0.000625441
1.15559
0.000592962
1.1427
0.000557828
1.12991
0.00052034
1.1172
0.000480899
1.10458
0.000439989
1.09206
0.000398119
1.07962
0.000355852
1.06728
0.000313766
1.05502
0.000272404
1.04286
0.0002323
1.03078
0.00019393
1.0188
0.000157688
1.0069
0.000123901
0.99509
9.28178e-05
0.983369
6.45777e-05
0.971736
3.92435e-05
0.960191
1.68123e-05
0.948735
-2.76811e-06
0.937368
-1.97487e-05
0.926089
-3.42025e-05
0.914898
-4.6371e-05
0.903797
-5.64598e-05
0.892787
-6.47091e-05
0.881867
-7.13702e-05
0.871038
-7.66867e-05
0.860301
-8.08681e-05
0.849656
-8.40996e-05
0.839104
-8.65619e-05
0.828644
-8.84219e-05
0.818278
-8.97694e-05
0.808005
-9.07307e-05
0.797825
-9.14019e-05
0.787739
-9.18382e-05
0.777746
-9.20955e-05
0.767846
-9.22278e-05
0.75804
-9.22745e-05
0.748326
-9.22361e-05
0.738705
-9.21482e-05
0.729177
-9.20392e-05
0.71974
-9.18902e-05
0.710395
-9.17216e-05
0.701141
-9.1546e-05
0.691978
-9.13656e-05
0.682905
-9.11625e-05
0.673921
-9.09536e-05
0.665025
-9.07556e-05
0.656218
-9.05318e-05
0.647499
-9.03043e-05
0.638866
-9.00835e-05
0.630318
-8.98554e-05
0.621856
-8.96129e-05
0.613477
-8.93683e-05
0.605182
-8.91339e-05
0.59697
-8.8874e-05
0.588838
-8.86108e-05
0.580787
-8.83602e-05
0.572816
-8.80897e-05
0.564924
-8.78137e-05
0.557109
-8.75442e-05
0.54937
-8.72679e-05
0.541708
-8.69778e-05
0.534121
-8.66915e-05
0.526607
-8.6411e-05
0.519167
-8.61072e-05
0.511799
-8.58037e-05
0.504502
-8.55195e-05
0.497276
-8.52055e-05
0.49012
-8.48921e-05
0.483033
-8.4596e-05
0.476013
-8.42772e-05
0.469062
-8.39558e-05
0.462177
-8.36508e-05
0.455358
-8.33296e-05
0.448606
-8.30023e-05
0.441918
-8.26905e-05
0.435295
-8.23699e-05
0.428736
-8.20382e-05
0.422242
-8.17223e-05
0.41581
-8.13987e-05
0.409442
-8.10651e-05
0.403137
-8.07493e-05
0.396895
-8.04265e-05
0.390716
-8.00923e-05
0.384598
-7.97736e-05
0.378543
-7.94509e-05
0.372551
-7.91201e-05
0.366621
-7.88059e-05
0.360753
-7.84869e-05
0.354948
-7.81556e-05
0.349205
-7.78455e-05
0.343525
-7.75207e-05
0.337908
-7.71963e-05
0.332353
-7.68833e-05
0.326861
-7.6557e-05
0.321432
-7.62538e-05
0.316065
-7.58533e-05
0.310762
-7.57417e-05
0.305522
-7.49515e-05
0.300346
-7.54513e-05
0.295232
-7.37998e-05
0.290183
-7.53233e-05
0.285196
-7.25089e-05
0.280274
-7.5162e-05
0.275413
-7.11397e-05
0.270618
-7.48752e-05
0.265883
-6.90958e-05
0.261214
-7.27953e-05
0.256602
-5.89474e-05
0.252043
-3.67295e-05
0.247475
9.07883e-05
0.242626
0.000601373
0.236647
0.00296736
0.225218
0.0105711
0.190738
0.058273
0.0983418
0.139031
2.84975
0.000958639
2.83021
0.000688334
2.8107
0.000680437
2.7912
0.000694861
2.77171
0.000705382
2.75224
0.000716405
2.73278
0.000727541
2.71332
0.000737987
2.69386
0.000747577
2.67441
0.000756329
2.65497
0.000764243
2.63554
0.000771254
2.61611
0.000777071
2.59668
0.000782084
2.57727
0.000786261
2.55788
0.000789645
2.5385
0.000792322
2.51915
0.000794391
2.49981
0.000795947
2.4805
0.000797091
2.46123
0.000797928
2.44198
0.000798522
2.42277
0.000798934
2.40359
0.000799206
2.38445
0.000799398
2.36534
0.000799513
2.34628
0.000799598
2.32725
0.000799636
2.30827
0.000799644
2.28933
0.000799638
2.27043
0.000799617
2.25157
0.000799587
2.23277
0.000799542
2.214
0.000799477
2.19529
0.0007994
2.17663
0.000799317
2.15801
0.000799215
2.13945
0.000799117
2.12094
0.00079901
2.10248
0.000798887
2.08408
0.000798736
2.06574
0.000798577
2.04745
0.000798426
2.02922
0.000798265
2.01104
0.000798088
1.99293
0.000797887
1.97488
0.000797687
1.95689
0.00079751
1.93897
0.000797334
1.92111
0.000797119
1.90331
0.000796884
1.88558
0.00079664
1.86792
0.000796395
1.85032
0.000796172
1.8328
0.000795954
1.81535
0.000795726
1.79797
0.000795472
1.78066
0.000795204
1.76342
0.000794967
1.74626
0.000794749
1.72918
0.00079449
1.71217
0.000794181
1.69524
0.000793825
1.67838
0.000793422
1.66161
0.000792946
1.64491
0.000792406
1.6283
0.000791752
1.61177
0.00079092
1.59532
0.000789814
1.57896
0.000788407
1.56268
0.000786595
1.54649
0.000784234
1.53038
0.000781109
1.51437
0.000777028
1.49843
0.000771784
1.48259
0.000765171
1.46684
0.00075696
1.45118
0.00074687
1.4356
0.000734653
1.42012
0.000720049
1.40474
0.000702844
1.38944
0.000682866
1.37424
0.000659977
1.35914
0.000634149
1.34413
0.000605409
1.32921
0.000573872
1.3144
0.000539769
1.29967
0.000503394
1.28505
0.00046514
1.27052
0.000425477
1.2561
0.000384899
1.24177
0.000343951
1.22754
0.000303194
1.21341
0.000263153
1.19938
0.000224342
1.18545
0.000187221
1.17163
0.000152168
1.15791
0.000119499
1.14429
8.94504e-05
1.13077
6.21561e-05
1.11736
3.76749e-05
1.10406
1.59989e-05
1.09086
-2.90253e-06
1.07776
-1.93082e-05
1.06477
-3.32628e-05
1.05189
-4.50141e-05
1.03911
-5.47572e-05
1.02645
-6.2724e-05
1.01388
-6.9157e-05
1.00143
-7.42914e-05
0.989084
-7.83295e-05
0.976847
-8.14502e-05
0.964717
-8.3828e-05
0.952695
-8.56238e-05
0.940782
-8.69249e-05
0.928977
-8.78529e-05
0.91728
-8.85005e-05
0.905691
-8.89213e-05
0.89421
-8.91693e-05
0.882837
-8.92965e-05
0.87157
-8.9341e-05
0.860411
-8.93035e-05
0.849359
-8.92181e-05
0.838412
-8.91121e-05
0.827572
-8.89679e-05
0.816837
-8.88045e-05
0.806206
-8.86345e-05
0.79568
-8.84597e-05
0.785257
-8.82631e-05
0.774936
-8.8061e-05
0.764718
-8.7869e-05
0.754601
-8.76525e-05
0.744584
-8.74323e-05
0.734666
-8.72183e-05
0.724847
-8.69975e-05
0.715126
-8.67627e-05
0.705502
-8.6526e-05
0.695973
-8.62988e-05
0.686538
-8.60474e-05
0.677197
-8.57926e-05
0.667949
-8.55497e-05
0.658792
-8.5288e-05
0.649725
-8.50207e-05
0.640747
-8.47598e-05
0.631858
-8.44922e-05
0.623056
-8.42115e-05
0.61434
-8.39342e-05
0.605708
-8.36625e-05
0.597161
-8.33685e-05
0.588697
-8.30747e-05
0.580315
-8.27993e-05
0.572014
-8.24954e-05
0.563793
-8.21921e-05
0.555651
-8.19051e-05
0.547588
-8.15967e-05
0.539602
-8.12856e-05
0.531693
-8.099e-05
0.52386
-8.06792e-05
0.516103
-8.03624e-05
0.50842
-8.00603e-05
0.500812
-7.975e-05
0.493277
-7.94289e-05
0.485816
-7.91229e-05
0.478428
-7.88096e-05
0.471113
-7.84868e-05
0.46387
-7.81809e-05
0.456699
-7.78683e-05
0.4496
-7.75451e-05
0.442573
-7.72361e-05
0.435617
-7.69239e-05
0.428733
-7.66035e-05
0.42192
-7.62997e-05
0.41518
-7.59897e-05
0.408511
-7.56715e-05
0.401914
-7.53658e-05
0.395389
-7.50624e-05
0.388935
-7.47264e-05
0.382554
-7.44665e-05
0.376245
-7.40678e-05
0.370008
-7.39266e-05
0.363843
-7.32729e-05
0.357751
-7.36036e-05
0.351731
-7.21572e-05
0.345785
-7.36294e-05
0.33991
-7.07006e-05
0.33411
-7.38381e-05
0.328381
-6.91625e-05
0.322727
-7.39256e-05
0.317143
-6.75773e-05
0.311634
-7.39172e-05
0.306195
-6.51096e-05
0.300831
-7.15099e-05
0.295533
-5.22355e-05
0.2903
-2.35662e-05
0.285093
0.000149832
0.279776
0.000840851
0.273671
0.00406503
0.265021
0.0142846
0.236161
0.0822656
0.143611
0.186091
3.2735
0.000911649
3.25106
0.00066783
3.22864
0.000653538
3.20624
0.000668764
3.18386
0.000678712
3.16149
0.00068919
3.13914
0.000699959
3.11678
0.000710047
3.09443
0.000719282
3.07209
0.000727706
3.04976
0.000735328
3.02743
0.000742081
3.00511
0.00074769
2.9828
0.000752519
2.96051
0.000756545
2.93823
0.000759808
2.91597
0.00076239
2.89374
0.000764386
2.87153
0.000765887
2.84935
0.000766993
2.82721
0.0007678
2.8051
0.000768374
2.78303
0.000768772
2.761
0.000769035
2.73901
0.000769221
2.71706
0.000769333
2.69516
0.000769414
2.67331
0.000769451
2.6515
0.00076946
2.62975
0.000769454
2.60804
0.000769434
2.58638
0.000769406
2.56478
0.000769363
2.54322
0.0007693
2.52173
0.000769227
2.50029
0.000769147
2.47891
0.000769049
2.45759
0.000768955
2.43632
0.000768852
2.41512
0.000768734
2.39399
0.00076859
2.37291
0.000768436
2.3519
0.000768291
2.33096
0.000768136
2.31009
0.000767967
2.28928
0.000767773
2.26855
0.000767581
2.24788
0.000767412
2.22729
0.000767243
2.20678
0.000767036
2.18633
0.000766809
2.16597
0.000766575
2.14568
0.00076634
2.12547
0.000766126
2.10534
0.000765916
2.08529
0.000765697
2.06533
0.000765453
2.04545
0.000765196
2.02565
0.000764968
2.00594
0.000764758
1.98631
0.000764508
1.96677
0.000764211
1.94733
0.000763869
1.92797
0.000763482
1.9087
0.000763025
1.88952
0.000762506
1.87044
0.000761878
1.85145
0.000761077
1.83256
0.000760015
1.81376
0.000758663
1.79507
0.000756922
1.77647
0.000754651
1.75797
0.000751646
1.73957
0.000747723
1.72127
0.000742681
1.70307
0.000736324
1.68497
0.00072843
1.66698
0.00071873
1.6491
0.000706985
1.63132
0.000692944
1.61364
0.000676404
1.59607
0.000657196
1.57861
0.00063519
1.56126
0.000610358
1.54402
0.000582723
1.52689
0.000552399
1.50986
0.000519605
1.49295
0.000484626
1.47615
0.000447837
1.45946
0.000409689
1.44289
0.00037066
1.42643
0.000331272
1.41008
0.000292063
1.39385
0.00025354
1.37774
0.000216197
1.36174
0.000180476
1.34586
0.000146741
1.3301
0.000115296
1.31445
8.63692e-05
1.29893
6.00898e-05
1.28352
3.65146e-05
1.26824
1.56268e-05
1.25307
-2.54855e-06
1.23803
-1.83857e-05
1.22311
-3.18273e-05
1.20831
-4.31564e-05
1.19363
-5.25518e-05
1.17908
-6.02369e-05
1.16465
-6.64446e-05
1.15035
-7.1401e-05
1.13616
-7.53009e-05
1.12211
-7.83163e-05
1.10817
-8.06153e-05
1.09436
-8.23523e-05
1.08068
-8.36124e-05
1.06712
-8.45117e-05
1.05368
-8.51401e-05
1.04037
-8.55495e-05
1.02718
-8.57917e-05
1.01412
-8.59168e-05
1.00118
-8.59616e-05
0.988357
-8.59274e-05
0.975661
-8.58465e-05
0.963087
-8.57453e-05
0.950634
-8.56073e-05
0.938302
-8.54507e-05
0.926091
-8.52874e-05
0.913999
-8.51194e-05
0.902026
-8.49306e-05
0.890171
-8.47362e-05
0.878434
-8.45513e-05
0.866812
-8.43433e-05
0.855306
-8.41314e-05
0.843914
-8.39255e-05
0.832635
-8.3713e-05
0.821468
-8.34872e-05
0.810412
-8.32595e-05
0.799466
-8.30406e-05
0.788629
-8.27989e-05
0.777899
-8.25537e-05
0.767275
-8.23198e-05
0.756756
-8.20681e-05
0.746341
-8.18109e-05
0.736029
-8.15597e-05
0.725818
-8.13023e-05
0.715707
-8.10322e-05
0.705694
-8.07654e-05
0.69578
-8.05037e-05
0.685962
-8.02211e-05
0.676239
-7.99383e-05
0.666611
-7.96731e-05
0.657075
-7.93809e-05
0.647632
-7.90891e-05
0.638279
-7.88126e-05
0.629017
-7.85161e-05
0.619843
-7.82167e-05
0.610758
-7.79321e-05
0.601761
-7.76331e-05
0.59285
-7.73284e-05
0.584025
-7.70375e-05
0.575285
-7.67389e-05
0.56663
-7.64302e-05
0.55806
-7.61354e-05
0.549573
-7.58341e-05
0.54117
-7.55236e-05
0.53285
-7.52291e-05
0.524613
-7.49282e-05
0.516458
-7.46175e-05
0.508386
-7.43199e-05
0.500396
-7.40197e-05
0.492488
-7.37112e-05
0.484663
-7.34193e-05
0.47692
-7.31197e-05
0.469259
-7.28166e-05
0.461681
-7.25161e-05
0.454186
-7.22368e-05
0.446773
-7.18885e-05
0.439443
-7.1688e-05
0.432195
-7.12085e-05
0.425031
-7.12501e-05
0.41795
-7.03096e-05
0.410952
-7.1144e-05
0.404037
-6.89478e-05
0.397206
-7.15346e-05
0.390458
-6.71383e-05
0.383795
-7.21337e-05
0.377214
-6.53119e-05
0.370719
-7.25117e-05
0.364305
-6.34733e-05
0.357977
-7.28291e-05
0.351729
-6.0515e-05
0.345567
-7.00565e-05
0.339482
-4.45337e-05
0.333471
-8.72617e-06
0.327491
0.000216207
0.321392
0.00110722
0.314435
0.0052705
0.305352
0.017697
0.276182
0.105844
0.190897
0.223382
3.76026
0.00085947
3.73448
0.000643327
3.70874
0.000622814
3.68301
0.000638704
3.65729
0.000648094
3.6316
0.000657962
3.60592
0.000668294
3.58024
0.000677964
3.55457
0.000686789
3.52891
0.000694836
3.50326
0.000702121
3.47761
0.000708578
3.45197
0.000713946
3.42634
0.000718564
3.40073
0.000722415
3.37514
0.000725538
3.34957
0.00072801
3.32403
0.000729921
3.29852
0.00073136
3.27304
0.000732419
3.24761
0.000733194
3.22221
0.000733745
3.19686
0.000734126
3.17155
0.000734378
3.14629
0.000734557
3.12109
0.000734664
3.09593
0.000734742
3.07083
0.000734779
3.04578
0.000734787
3.02078
0.000734782
2.99585
0.000734763
2.97097
0.000734736
2.94615
0.000734696
2.9214
0.000734635
2.8967
0.000734565
2.87208
0.00073449
2.84752
0.000734397
2.82302
0.000734306
2.7986
0.000734208
2.77425
0.000734096
2.74997
0.000733959
2.72576
0.000733813
2.70163
0.000733673
2.67757
0.000733526
2.65359
0.000733364
2.62969
0.00073318
2.60588
0.000732997
2.58214
0.000732836
2.55849
0.000732674
2.53492
0.000732476
2.51144
0.00073226
2.48804
0.000732036
2.46474
0.000731812
2.44152
0.000731608
2.4184
0.000731408
2.39537
0.000731199
2.37244
0.000730965
2.3496
0.000730721
2.32686
0.000730504
2.30422
0.000730303
2.28167
0.000730064
2.25923
0.00072978
2.23689
0.000729454
2.21465
0.000729085
2.19252
0.000728649
2.17049
0.000728154
2.14857
0.000727555
2.12676
0.000726791
2.10506
0.000725778
2.08347
0.000724488
2.06199
0.000722828
2.04062
0.000720661
2.01937
0.000717794
1.99824
0.000714051
1.97722
0.000709242
1.95631
0.000703178
1.93553
0.000695647
1.91486
0.000686394
1.89431
0.00067519
1.87389
0.000661797
1.85359
0.000646017
1.83341
0.000627694
1.81335
0.0006067
1.79342
0.000583008
1.77361
0.000556643
1.75393
0.000527709
1.73438
0.000496417
1.71495
0.000463037
1.69565
0.000427929
1.67648
0.00039152
1.65745
0.000354268
1.63854
0.000316669
1.61976
0.000279238
1.60112
0.000242458
1.58261
0.0002068
1.56423
0.000172687
1.54599
0.000140467
1.52788
0.000110429
1.50991
8.27922e-05
1.49207
5.76808e-05
1.47438
3.51495e-05
1.45682
1.51808e-05
1.4394
-2.19649e-06
1.42212
-1.73444e-05
1.40498
-3.02014e-05
1.38798
-4.10423e-05
1.37112
-5.00356e-05
1.35441
-5.73947e-05
1.33783
-6.33413e-05
1.3214
-6.80912e-05
1.30511
-7.18304e-05
1.28896
-7.47234e-05
1.27296
-7.69305e-05
1.25709
-7.85988e-05
1.24137
-7.98108e-05
1.2258
-8.06765e-05
1.21036
-8.12823e-05
1.19507
-8.16779e-05
1.17992
-8.1913e-05
1.16491
-8.20355e-05
1.15005
-8.20805e-05
1.13532
-8.20498e-05
1.12074
-8.1974e-05
1.1063
-8.18782e-05
1.09199
-8.17474e-05
1.07783
-8.15984e-05
1.0638
-8.14429e-05
1.04991
-8.12827e-05
1.03616
-8.11027e-05
1.02254
-8.09173e-05
1.00906
-8.07406e-05
0.995706
-8.05422e-05
0.982488
-8.03399e-05
0.969402
-8.01432e-05
0.956446
-7.99403e-05
0.943619
-7.97248e-05
0.930919
-7.95074e-05
0.918345
-7.92981e-05
0.905896
-7.90675e-05
0.893571
-7.88334e-05
0.881368
-7.86098e-05
0.869285
-7.83696e-05
0.857321
-7.81241e-05
0.845475
-7.7884e-05
0.833746
-7.76382e-05
0.822131
-7.73804e-05
0.81063
-7.71255e-05
0.799241
-7.68755e-05
0.787963
-7.66058e-05
0.776795
-7.63358e-05
0.765734
-7.60823e-05
0.754781
-7.58034e-05
0.743934
-7.55249e-05
0.73319
-7.52605e-05
0.722551
-7.49776e-05
0.712013
-7.46918e-05
0.701577
-7.44198e-05
0.691241
-7.41344e-05
0.681005
-7.38435e-05
0.670868
-7.35655e-05
0.660829
-7.32805e-05
0.650887
-7.29858e-05
0.641043
-7.27041e-05
0.631294
-7.24164e-05
0.621642
-7.21199e-05
0.612084
-7.18387e-05
0.602622
-7.15512e-05
0.593255
-7.12549e-05
0.583982
-7.09703e-05
0.574804
-7.06839e-05
0.56572
-7.0389e-05
0.556731
-7.01109e-05
0.547837
-6.98233e-05
0.539037
-6.95373e-05
0.530332
-6.92432e-05
0.521722
-6.89908e-05
0.513207
-6.86295e-05
0.504787
-6.84954e-05
0.496462
-6.79258e-05
0.488233
-6.81739e-05
0.480098
-6.69079e-05
0.47206
-6.83175e-05
0.464116
-6.52615e-05
0.45627
-6.91307e-05
0.448518
-6.30412e-05
0.440865
-7.0185e-05
0.433305
-6.08757e-05
0.425845
-7.09057e-05
0.418477
-5.87366e-05
0.411208
-7.16081e-05
0.404031
-5.52069e-05
0.396953
-6.84355e-05
0.389962
-3.56977e-05
0.383058
8.08437e-06
0.376189
0.000291579
0.369187
0.00140937
0.361219
0.00663272
0.350962
0.0214401
0.319138
0.131246
0.242864
0.260836
4.31941
0.000801731
4.28979
0.000614023
4.26022
0.000587694
4.23066
0.000604078
4.20113
0.000612942
4.17161
0.000622133
4.14211
0.000631944
4.11262
0.000641124
4.08313
0.000649478
4.05365
0.000657093
4.02418
0.000663991
3.99472
0.000670105
3.96527
0.000675194
3.93583
0.00067957
3.90641
0.000683219
3.87701
0.000686179
3.84765
0.000688524
3.81831
0.000690337
3.789
0.000691703
3.75974
0.000692708
3.73052
0.000693444
3.70134
0.000693968
3.67222
0.000694329
3.64315
0.00069457
3.61414
0.00069474
3.58518
0.000694842
3.55629
0.000694916
3.52745
0.000694951
3.49868
0.000694959
3.46997
0.000694954
3.44132
0.000694937
3.41275
0.000694912
3.38424
0.000694874
3.3558
0.000694817
3.32744
0.000694751
3.29915
0.000694679
3.27094
0.000694592
3.2428
0.000694506
3.21475
0.000694413
3.18677
0.000694308
3.15888
0.000694179
3.13107
0.000694041
3.10335
0.000693909
3.07572
0.000693769
3.04818
0.000693616
3.02072
0.000693442
2.99336
0.00069327
2.9661
0.000693118
2.93893
0.000692964
2.91186
0.000692777
2.88488
0.000692573
2.85801
0.000692362
2.83124
0.00069215
2.80457
0.000691958
2.77801
0.000691769
2.75156
0.00069157
2.72522
0.00069135
2.69898
0.000691119
2.67286
0.000690914
2.64685
0.000690724
2.62095
0.000690498
2.59517
0.000690229
2.56951
0.000689921
2.54396
0.000689572
2.51854
0.000689161
2.49324
0.000688693
2.46806
0.000688127
2.443
0.000687405
2.41808
0.000686449
2.39327
0.000685231
2.3686
0.000683663
2.34406
0.000681615
2.31965
0.000678906
2.29537
0.000675369
2.27122
0.000670826
2.24721
0.000665097
2.22333
0.000657983
2.19959
0.000649243
2.17599
0.000638658
2.15253
0.000626005
2.12921
0.000611098
2.10603
0.000593787
2.08299
0.000573952
2.06009
0.000551567
2.03734
0.000526655
2.01474
0.000499314
1.99227
0.000469744
1.96996
0.000438197
1.94779
0.000405015
1.92577
0.000370601
1.9039
0.000335386
1.88218
0.000299841
1.86062
0.00026445
1.8392
0.00022967
1.81794
0.000195947
1.79683
0.000163681
1.77587
0.000133201
1.75507
0.000104781
1.73443
7.86278e-05
1.71394
5.486e-05
1.69362
3.35292e-05
1.67345
1.46019e-05
1.65344
-1.79356e-06
1.63359
-1.61989e-05
1.6139
-2.83686e-05
1.59437
-3.86458e-05
1.57501
-4.71736e-05
1.55581
-5.41546e-05
1.53677
-5.9798e-05
1.51789
-6.43077e-05
1.49918
-6.78596e-05
1.48063
-7.06094e-05
1.46224
-7.27086e-05
1.44402
-7.42962e-05
1.42596
-7.54512e-05
1.40807
-7.62771e-05
1.39034
-7.68556e-05
1.37278
-7.72346e-05
1.35537
-7.74607e-05
1.33813
-7.75796e-05
1.32106
-7.76242e-05
1.30414
-7.75972e-05
1.28739
-7.75269e-05
1.2708
-7.74371e-05
1.25437
-7.73144e-05
1.2381
-7.7174e-05
1.22198
-7.70273e-05
1.20603
-7.68759e-05
1.19023
-7.67061e-05
1.17459
-7.6531e-05
1.1591
-7.63636e-05
1.14377
-7.61763e-05
1.12858
-7.5985e-05
1.11355
-7.57989e-05
1.09867
-7.5607e-05
1.08393
-7.54033e-05
1.06935
-7.51977e-05
1.0549
-7.49995e-05
1.0406
-7.47816e-05
1.02644
-7.45603e-05
1.01243
-7.43485e-05
0.998546
-7.41215e-05
0.984803
-7.38893e-05
0.971196
-7.36622e-05
0.957722
-7.34296e-05
0.944381
-7.3186e-05
0.931169
-7.29449e-05
0.918087
-7.27082e-05
0.905132
-7.24534e-05
0.892303
-7.2198e-05
0.879598
-7.19579e-05
0.867016
-7.16944e-05
0.854555
-7.14312e-05
0.842215
-7.11806e-05
0.829993
-7.09134e-05
0.817888
-7.0643e-05
0.805901
-7.03856e-05
0.794028
-7.01158e-05
0.78227
-6.98408e-05
0.770625
-6.95776e-05
0.759093
-6.93081e-05
0.747673
-6.90296e-05
0.736365
-6.87629e-05
0.725167
-6.8491e-05
0.714079
-6.82106e-05
0.7031
-6.79445e-05
0.692231
-6.76724e-05
0.681471
-6.73927e-05
0.670819
-6.7123e-05
0.660276
-6.68524e-05
0.649842
-6.65733e-05
0.639516
-6.63109e-05
0.629299
-6.60371e-05
0.619191
-6.57706e-05
0.609192
-6.54842e-05
0.599302
-6.52621e-05
0.58952
-6.48869e-05
0.579848
-6.48277e-05
0.570285
-6.41561e-05
0.560832
-6.464e-05
0.551488
-6.30006e-05
0.542254
-6.50728e-05
0.53313
-6.10226e-05
0.524117
-6.63786e-05
0.515212
-5.8321e-05
0.506421
-6.79671e-05
0.497737
-5.5753e-05
0.489167
-6.90963e-05
0.480703
-5.3252e-05
0.472354
-7.02596e-05
0.46411
-4.90535e-05
0.455979
-6.66562e-05
0.447949
-2.55506e-05
0.440019
2.69899e-05
0.43213
0.000376747
0.424093
0.00175012
0.414973
0.00816395
0.403285
0.025646
0.367991
0.159163
0.299591
0.303986
18.8434
0.00057453
18.7143
0.000473383
18.5852
0.000436869
18.4563
0.000452341
18.3275
0.000459829
18.1987
0.000466334
18.07
0.000473666
17.9413
0.000480591
17.8127
0.000486871
17.6841
0.000492598
17.5555
0.000497791
17.427
0.000502393
17.2985
0.000506239
17.1701
0.00050954
17.0417
0.000512297
16.9135
0.000514536
16.7854
0.000516311
16.6574
0.000517686
16.5296
0.000518724
16.4019
0.000519488
16.2744
0.000520049
16.1471
0.000520449
16.0201
0.000520724
15.8933
0.000520908
15.7667
0.000521039
15.6404
0.000521118
15.5143
0.000521174
15.3885
0.000521202
15.263
0.00052121
15.1378
0.000521207
15.0128
0.000521194
14.8881
0.000521177
14.7638
0.000521149
14.6397
0.000521106
14.516
0.000521058
14.3926
0.000521004
14.2695
0.000520941
14.1467
0.000520876
14.0243
0.000520806
13.9023
0.000520728
13.7806
0.000520633
13.6593
0.00052053
13.5384
0.000520431
13.4178
0.000520326
13.2977
0.000520212
13.1779
0.000520082
13.0586
0.000519956
12.9396
0.000519842
12.8211
0.000519726
12.703
0.000519585
12.5853
0.000519432
12.4681
0.000519275
12.3513
0.000519118
12.235
0.000518974
12.1191
0.000518833
12.0037
0.000518683
11.8888
0.000518518
11.7743
0.000518348
11.6604
0.000518195
11.5469
0.000518051
11.4339
0.00051788
11.3215
0.000517678
11.2095
0.000517449
11.0981
0.000517188
10.9871
0.000516882
10.8768
0.000516532
10.7669
0.00051611
10.6576
0.00051557
10.5489
0.000514856
10.4407
0.000513947
10.333
0.000512776
10.226
0.000511245
10.1195
0.000509219
10.0136
0.000506575
9.90822
0.000503181
9.80347
0.000498902
9.69931
0.000493587
9.59574
0.000487057
9.49278
0.000479148
9.39043
0.000469696
9.28869
0.000458559
9.18756
0.000445624
9.08706
0.000430803
8.98717
0.000414073
8.88792
0.000395451
8.7893
0.000375011
8.69131
0.000352898
8.59396
0.000329303
8.49726
0.000304479
8.4012
0.000278724
8.30579
0.000252363
8.21104
0.000225746
8.11695
0.000199235
8.02352
0.000173173
7.93076
0.000147891
7.83867
0.000123691
7.74725
0.000100819
7.65652
7.94814e-05
7.56646
5.98352e-05
7.4771
4.19725e-05
7.38842
2.59448e-05
7.30043
1.18309e-05
7.21314
-1.02473e-06
7.12655
-1.1469e-05
7.04066
-2.07403e-05
6.95547
-2.85056e-05
6.87099
-3.49596e-05
6.78722
-4.02499e-05
6.70416
-4.45336e-05
6.62181
-4.79627e-05
6.54018
-5.0669e-05
6.45926
-5.27694e-05
6.37905
-5.43772e-05
6.29956
-5.55956e-05
6.22079
-5.64869e-05
6.14273
-5.71266e-05
6.06538
-5.75772e-05
5.98875
-5.78755e-05
5.91283
-5.80566e-05
5.83763
-5.81548e-05
5.76313
-5.81949e-05
5.68935
-5.81808e-05
5.61626
-5.81325e-05
5.54388
-5.80679e-05
5.4722
-5.79789e-05
5.40122
-5.78756e-05
5.33092
-5.77669e-05
5.26132
-5.7654e-05
5.1924
-5.75278e-05
5.12416
-5.73972e-05
5.05659
-5.72713e-05
4.98969
-5.71317e-05
4.92346
-5.69885e-05
4.85788
-5.68487e-05
4.79295
-5.67049e-05
4.72867
-5.65524e-05
4.66503
-5.63984e-05
4.60202
-5.62491e-05
4.53964
-5.60863e-05
4.47787
-5.59204e-05
4.41672
-5.5761e-05
4.35617
-5.55911e-05
4.29622
-5.54171e-05
4.23685
-5.52465e-05
4.17807
-5.5072e-05
4.11987
-5.48897e-05
4.06224
-5.47087e-05
4.00517
-5.45308e-05
3.94865
-5.43402e-05
3.89268
-5.41487e-05
3.83726
-5.3968e-05
3.78237
-5.37707e-05
3.72801
-5.35739e-05
3.67417
-5.33847e-05
3.62085
-5.31854e-05
3.56805
-5.29823e-05
3.51575
-5.27889e-05
3.46396
-5.25867e-05
3.41266
-5.2381e-05
3.36186
-5.21826e-05
3.31155
-5.19811e-05
3.26173
-5.17725e-05
3.2124
-5.15716e-05
3.16355
-5.13684e-05
3.11518
-5.11578e-05
3.06728
-5.09587e-05
3.01987
-5.07533e-05
2.97292
-5.05456e-05
2.92646
-5.03412e-05
2.88046
-5.014e-05
2.83494
-4.99288e-05
2.7899
-4.97354e-05
2.74533
-4.95223e-05
2.70123
-4.93394e-05
2.65761
-4.90895e-05
2.61446
-4.89951e-05
2.57179
-4.85646e-05
2.5296
-4.88267e-05
2.48788
-4.77125e-05
2.44664
-4.92349e-05
2.40587
-4.59283e-05
2.36559
-5.09821e-05
2.32578
-4.24203e-05
2.28647
-5.45531e-05
2.24762
-3.74727e-05
2.20927
-5.86453e-05
2.17138
-3.29469e-05
2.134
-6.17898e-05
2.09707
-2.86066e-05
2.06065
-6.52489e-05
2.02468
-2.13104e-05
1.98922
-6.02095e-05
1.95418
1.85862e-05
1.91959
0.000103125
1.8852
0.000725833
1.85024
0.00313366
1.811
0.0142992
1.76113
0.0428777
1.62286
0.265248
0.521828
1.36888
18.8434
0.000370836
18.7142
0.000321012
18.5852
0.000289852
18.4563
0.000301048
18.3274
0.000306596
18.1987
0.000310738
18.07
0.00031561
17.9413
0.000320254
17.8127
0.000324454
17.6841
0.000328284
17.5555
0.000331759
17.427
0.000334839
17.2985
0.000337419
17.1701
0.000339632
17.0417
0.00034148
16.9135
0.000342983
16.7854
0.000344176
16.6574
0.000345099