/*--------------------------------*- C++ -*----------------------------------*\
| =========                 |                                                 |
| \\      /  F ield         | OpenFOAM: The Open Source CFD Toolbox           |
|  \\    /   O peration     | Version:  3.0.x                                 |
|   \\  /    A nd           | Web:      www.OpenFOAM.org                      |
|    \\/     M anipulation  |                                                 |
\*---------------------------------------------------------------------------*/
FoamFile
{
    version     2.0;
    format      ascii;
    class       surfaceScalarField;
    location    "0.49995";
    object      phi;
}
// * * * * * * * * * * * * * * * * * * * * * * * * * * * * * * * * * * * * * //

dimensions      [1 0 -1 0 0 0 0];

internalField   nonuniform List<scalar> 
53800
(
1.97836
0.00102777
1.97593
0.000696721
1.9735
0.000689981
1.97106
0.000691763
1.96862
0.000691799
1.96616
0.000691609
1.9637
0.00069159
1.96123
0.000691531
1.95874
0.000691468
1.95625
0.000691411
1.95375
0.00069136
1.95124
0.000691317
1.94872
0.00069128
1.94618
0.00069125
1.94363
0.000691229
1.94106
0.000691215
1.93848
0.000691208
1.93589
0.000691207
1.93328
0.000691214
1.93065
0.000691228
1.928
0.00069125
1.92534
0.000691279
1.92266
0.000691315
1.91995
0.000691357
1.91723
0.000691406
1.91449
0.000691462
1.91172
0.000691526
1.90894
0.000691598
1.90613
0.000691675
1.90329
0.00069176
1.90043
0.00069185
1.89755
0.000691946
1.89464
0.000692049
1.89171
0.000692161
1.88875
0.000692281
1.88576
0.00069241
1.88275
0.000692547
1.8797
0.00069269
1.87663
0.000692847
1.87353
0.000693013
1.87039
0.000693185
1.86723
0.000693363
1.86403
0.000693547
1.86081
0.000693742
1.85755
0.000693952
1.85426
0.000694176
1.85093
0.00069441
1.84757
0.000694651
1.84418
0.000694895
1.84075
0.000695145
1.83728
0.000695398
1.83378
0.000695657
1.83024
0.000695911
1.82666
0.00069615
1.82305
0.000696366
1.8194
0.000696551
1.81571
0.000696694
1.81199
0.000696773
1.80822
0.000696756
1.80442
0.000696597
1.80057
0.000696244
1.79669
0.000695626
1.79277
0.00069466
1.78881
0.000693254
1.7848
0.000691287
1.78076
0.000688618
1.77669
0.00068509
1.77257
0.000680545
1.76842
0.000674815
1.76423
0.000667731
1.76001
0.000659118
1.75576
0.000648807
1.75147
0.000636648
1.74716
0.000622518
1.74282
0.000606338
1.73845
0.000588072
1.73406
0.000567739
1.72964
0.000545411
1.72521
0.000521217
1.72076
0.000495341
1.71629
0.000468019
1.7118
0.00043953
1.7073
0.000410191
1.70278
0.000380346
1.69825
0.000350349
1.6937
0.000320556
1.68914
0.000291311
1.68456
0.000262934
1.67996
0.000235711
1.67534
0.000209887
1.67069
0.000185661
1.66603
0.000163182
1.66134
0.000142551
1.65662
0.000123816
1.65188
0.000106984
1.6471
9.20191e-05
1.64229
7.88514e-05
1.63745
6.73838e-05
1.63257
5.74978e-05
1.62765
4.90613e-05
1.62269
4.19339e-05
1.6177
3.59723e-05
1.61266
3.10352e-05
1.60758
2.69868e-05
1.60246
2.36996e-05
1.5973
2.10571e-05
1.59209
1.89539e-05
1.58684
1.72966e-05
1.58154
1.60039e-05
1.5762
1.50058e-05
1.57081
1.4244e-05
1.56538
1.36691e-05
1.55991
1.32409e-05
1.55439
1.29262e-05
1.54883
1.26983e-05
1.54322
1.25361e-05
1.53756
1.24234e-05
1.53187
1.23468e-05
1.52612
1.22968e-05
1.52034
1.22651e-05
1.51451
1.22463e-05
1.50863
1.22356e-05
1.50272
1.22301e-05
1.49675
1.22272e-05
1.49075
1.22258e-05
1.4847
1.2225e-05
1.47861
1.22238e-05
1.47248
1.22213e-05
1.46631
1.22174e-05
1.46009
1.22111e-05
1.45383
1.22025e-05
1.44753
1.21915e-05
1.44119
1.21785e-05
1.43481
1.21633e-05
1.42839
1.21459e-05
1.42193
1.2126e-05
1.41542
1.21036e-05
1.40888
1.20786e-05
1.4023
1.20508e-05
1.39568
1.20202e-05
1.38903
1.19869e-05
1.38233
1.19511e-05
1.3756
1.19126e-05
1.36883
1.18711e-05
1.36202
1.1827e-05
1.35518
1.17802e-05
1.3483
1.17307e-05
1.34139
1.16782e-05
1.33444
1.16225e-05
1.32745
1.15642e-05
1.32043
1.15032e-05
1.31338
1.14391e-05
1.3063
1.13721e-05
1.29918
1.13019e-05
1.29203
1.12286e-05
1.28485
1.11524e-05
1.27764
1.10731e-05
1.2704
1.09906e-05
1.26312
1.09049e-05
1.25582
1.08165e-05
1.24849
1.0725e-05
1.24113
1.06304e-05
1.23374
1.05324e-05
1.22633
1.04311e-05
1.21889
1.03267e-05
1.21142
1.02197e-05
1.20393
1.01097e-05
1.19641
9.99605e-06
1.18887
9.87869e-06
1.1813
9.75776e-06
1.17372
9.63394e-06
1.1661
9.50714e-06
1.15847
9.37713e-06
1.15082
9.24387e-06
1.14315
9.10683e-06
1.13545
8.96641e-06
1.12774
8.82234e-06
1.12001
8.67614e-06
1.11226
8.52513e-06
1.10449
8.37451e-06
1.09671
8.21329e-06
1.08891
8.06104e-06
1.0811
7.88787e-06
1.07327
7.73002e-06
1.06543
7.56224e-06
1.05758
7.35855e-06
1.04971
7.2662e-06
1.04183
6.92395e-06
1.03394
7.00356e-06
1.02604
6.48764e-06
1.01814
6.86483e-06
1.01022
6.70764e-06
1.00229
1.01251e-05
0.994341
2.33795e-05
0.986313
9.47129e-05
0.977937
0.00043729
0.967897
0.00209673
0.950256
0.00969109
0.891731
0.0505844
0.142358
0.741414
2.27384
0.000992051
2.27187
0.000684134
2.26989
0.000670922
2.26789
0.000674774
2.26589
0.000675223
2.26388
0.000675305
2.26186
0.000675635
2.25983
0.000675936
2.25779
0.000676228
2.25574
0.000676524
2.25367
0.000676827
2.25159
0.000677137
2.2495
0.000677453
2.24739
0.000677776
2.24527
0.000678106
2.24313
0.000678444
2.24097
0.000678788
2.23879
0.000679139
2.2366
0.000679497
2.23438
0.000679861
2.23215
0.000680233
2.22989
0.000680612
2.22761
0.000680997
2.22531
0.000681388
2.22299
0.000681786
2.22064
0.00068219
2.21827
0.000682602
2.21587
0.000683022
2.21344
0.000683447
2.21099
0.000683879
2.20851
0.000684317
2.206
0.00068476
2.20346
0.00068521
2.20089
0.000685669
2.19829
0.000686137
2.19565
0.000686612
2.19299
0.000687096
2.19029
0.000687586
2.18756
0.00068809
2.1848
0.000688603
2.182
0.000689123
2.17916
0.000689647
2.17629
0.000690179
2.17338
0.000690722
2.17044
0.000691279
2.16746
0.00069185
2.16443
0.000692431
2.16137
0.000693018
2.15827
0.000693609
2.15513
0.000694204
2.15195
0.000694801
2.14872
0.000695401
2.14546
0.000695993
2.14215
0.000696565
2.1388
0.000697105
2.1354
0.000697602
2.13196
0.00069804
2.12848
0.00069839
2.12495
0.000698612
2.12138
0.000698648
2.11776
0.000698433
2.11409
0.00069788
2.11038
0.000696888
2.10663
0.000695342
2.10282
0.000693099
2.09897
0.000689995
2.09507
0.00068585
2.09112
0.000680482
2.08713
0.000673705
2.08309
0.000665336
2.079
0.000655192
2.07486
0.000643108
2.07068
0.000628943
2.06645
0.000612599
2.06217
0.000594031
2.05784
0.00057325
2.05346
0.000550331
2.04904
0.00052541
2.04457
0.000498687
2.04005
0.00047042
2.03547
0.000440914
2.03085
0.000410516
2.02618
0.000379601
2.02146
0.000348559
2.01669
0.000317778
2.01187
0.000287631
2.00699
0.000258463
2.00206
0.00023058
1.99708
0.000204239
1.99204
0.000179645
1.98695
0.000156946
1.98181
0.000136234
1.97661
0.000117549
1.97136
0.00010088
1.96605
8.61738e-05
1.96069
7.33407e-05
1.95527
6.22637e-05
1.9498
5.28054e-05
1.94427
4.48155e-05
1.93869
3.8138e-05
1.93305
3.2617e-05
1.92736
2.81007e-05
1.92161
2.44458e-05
1.91582
2.15195e-05
1.90997
1.92019e-05
1.90406
1.73869e-05
1.8981
1.59814e-05
1.89209
1.49057e-05
1.88603
1.40924e-05
1.87991
1.34853e-05
1.87374
1.30387e-05
1.86752
1.27154e-05
1.86125
1.24858e-05
1.85492
1.23258e-05
1.84854
1.22172e-05
1.84211
1.21457e-05
1.83563
1.21009e-05
1.8291
1.20746e-05
1.82252
1.20612e-05
1.81589
1.2056e-05
1.80921
1.2056e-05
1.80247
1.20585e-05
1.79569
1.20623e-05
1.78885
1.20661e-05
1.78197
1.20695e-05
1.77504
1.20721e-05
1.76806
1.20735e-05
1.76103
1.20731e-05
1.75395
1.20709e-05
1.74682
1.20661e-05
1.73964
1.20589e-05
1.73242
1.20493e-05
1.72515
1.20377e-05
1.71783
1.20238e-05
1.71047
1.20078e-05
1.70306
1.19892e-05
1.69561
1.19683e-05
1.68811
1.19448e-05
1.68056
1.19185e-05
1.67297
1.18894e-05
1.66534
1.18578e-05
1.65766
1.18236e-05
1.64994
1.17868e-05
1.64218
1.17471e-05
1.63437
1.17048e-05
1.62652
1.16599e-05
1.61863
1.16122e-05
1.6107
1.15616e-05
1.60274
1.1508e-05
1.59473
1.14518e-05
1.58668
1.13928e-05
1.57859
1.13309e-05
1.57046
1.1266e-05
1.5623
1.11981e-05
1.5541
1.11271e-05
1.54586
1.10533e-05
1.53759
1.09763e-05
1.52928
1.08963e-05
1.52094
1.08131e-05
1.51257
1.07273e-05
1.50416
1.06384e-05
1.49572
1.05465e-05
1.48724
1.04511e-05
1.47874
1.03527e-05
1.4702
1.02511e-05
1.46163
1.0147e-05
1.45304
1.00399e-05
1.44442
9.92928e-06
1.43576
9.81503e-06
1.42708
9.69727e-06
1.41838
9.57674e-06
1.40965
9.45329e-06
1.40089
9.32668e-06
1.39211
9.19687e-06
1.3833
9.06341e-06
1.37447
8.92651e-06
1.36562
8.78637e-06
1.35675
8.6435e-06
1.34786
8.49729e-06
1.33895
8.34832e-06
1.33002
8.19624e-06
1.32107
8.03643e-06
1.3121
7.89212e-06
1.30312
7.68808e-06
1.29412
7.61892e-06
1.28511
7.25657e-06
1.27608
7.42555e-06
1.26704
6.72291e-06
1.25798
7.28602e-06
1.24892
6.23921e-06
1.23984
7.42151e-06
1.23075
7.24216e-06
1.22165
1.51996e-05
1.21253
4.51884e-05
1.2033
0.00020552
1.19365
0.000973864
1.18193
0.00468211
1.16067
0.0218247
1.09331
0.108817
0.298514
0.928005
2.61196
0.000951008
2.60969
0.000667881
2.60742
0.000647787
2.60513
0.000653296
2.60284
0.000653838
2.60053
0.000653826
2.59821
0.00065414
2.59588
0.000654439
2.59354
0.000654723
2.59119
0.000655011
2.58882
0.000655306
2.58644
0.000655607
2.58404
0.000655915
2.58162
0.00065623
2.57919
0.000656552
2.57674
0.000656882
2.57427
0.000657218
2.57177
0.00065756
2.56926
0.000657909
2.56673
0.000658265
2.56417
0.000658628
2.56158
0.000658998
2.55898
0.000659374
2.55634
0.000659757
2.55368
0.000660146
2.551
0.000660541
2.54828
0.000660944
2.54554
0.000661355
2.54276
0.000661771
2.53996
0.000662194
2.53712
0.000662622
2.53425
0.000663056
2.53135
0.000663497
2.52841
0.000663946
2.52544
0.000664404
2.52243
0.000664869
2.51939
0.000665344
2.5163
0.000665825
2.51318
0.000666318
2.51002
0.00066682
2.50682
0.00066733
2.50358
0.000667844
2.5003
0.000668365
2.49698
0.000668898
2.49362
0.000669444
2.49021
0.000670004
2.48676
0.000670574
2.48326
0.000671149
2.47972
0.000671729
2.47613
0.000672312
2.4725
0.000672898
2.46882
0.000673487
2.46509
0.000674068
2.46131
0.000674629
2.45748
0.00067516
2.4536
0.00067565
2.44967
0.000676082
2.4457
0.000676428
2.44167
0.00067665
2.43759
0.000676691
2.43346
0.000676488
2.42927
0.000675956
2.42503
0.000674999
2.42074
0.000673502
2.41639
0.000671329
2.41199
0.000668319
2.40754
0.000664297
2.40302
0.000659088
2.39845
0.000652512
2.39383
0.000644389
2.38915
0.000634545
2.38441
0.000622818
2.37962
0.000609073
2.37476
0.000593216
2.36985
0.000575204
2.36488
0.00055505
2.35985
0.000532824
2.35477
0.000508664
2.34962
0.000482761
2.34441
0.000455367
2.33914
0.000426777
2.33382
0.00039733
2.32843
0.000367387
2.32298
0.000337326
2.31747
0.000307524
2.3119
0.000278339
2.30627
0.000250107
2.30058
0.00022312
2.29483
0.000197629
2.28901
0.000173831
2.28314
0.000151868
2.2772
0.000131829
2.27121
0.000113751
2.26515
9.76239e-05
2.25903
8.33958e-05
2.25285
7.09799e-05
2.24661
6.02628e-05
2.24031
5.11115e-05
2.23394
4.33806e-05
2.22752
3.69193e-05
2.22104
3.15767e-05
2.21449
2.7206e-05
2.20789
2.36687e-05
2.20122
2.08364e-05
2.19449
1.85931e-05
2.18771
1.6836e-05
2.18086
1.54753e-05
2.17395
1.44338e-05
2.16699
1.36463e-05
2.15996
1.30583e-05
2.15287
1.26258e-05
2.14572
1.23127e-05
2.13852
1.20902e-05
2.13125
1.19352e-05
2.12393
1.18299e-05
2.11654
1.17605e-05
2.1091
1.17171e-05
2.1016
1.16915e-05
2.09403
1.16785e-05
2.08642
1.16734e-05
2.07874
1.16733e-05
2.071
1.16758e-05
2.06321
1.16794e-05
2.05536
1.16831e-05
2.04745
1.16863e-05
2.03949
1.16888e-05
2.03147
1.16902e-05
2.0234
1.16898e-05
2.01526
1.16876e-05
2.00708
1.1683e-05
1.99883
1.16761e-05
1.99054
1.16668e-05
1.98219
1.16555e-05
1.97378
1.16421e-05
1.96532
1.16266e-05
1.95681
1.16086e-05
1.94825
1.15884e-05
1.93964
1.15656e-05
1.93097
1.15402e-05
1.92225
1.1512e-05
1.91348
1.14814e-05
1.90466
1.14483e-05
1.89579
1.14127e-05
1.88688
1.13743e-05
1.87791
1.13333e-05
1.8689
1.12898e-05
1.85983
1.12437e-05
1.85073
1.11947e-05
1.84157
1.11428e-05
1.83237
1.10883e-05
1.82313
1.10312e-05
1.81384
1.09713e-05
1.8045
1.09085e-05
1.79513
1.08427e-05
1.78571
1.0774e-05
1.77625
1.07026e-05
1.76674
1.0628e-05
1.7572
1.05505e-05
1.74762
1.047e-05
1.738
1.03869e-05
1.72834
1.03008e-05
1.71864
1.02118e-05
1.70891
1.01195e-05
1.69914
1.00242e-05
1.68933
9.92583e-06
1.67949
9.82511e-06
1.66962
9.72136e-06
1.65971
9.61427e-06
1.64978
9.50367e-06
1.63981
9.38963e-06
1.62981
9.27298e-06
1.61978
9.15341e-06
1.60972
9.03087e-06
1.59963
8.90515e-06
1.58952
8.77601e-06
1.57938
8.6433e-06
1.56921
8.50804e-06
1.55902
8.36878e-06
1.54881
8.2292e-06
1.53857
8.0807e-06
1.52831
7.94267e-06
1.51803
7.76874e-06
1.50773
7.66749e-06
1.49741
7.39666e-06
1.48708
7.46028e-06
1.47672
6.8934e-06
1.46635
7.38709e-06
1.45597
6.24881e-06
1.44557
7.38583e-06
1.43515
5.70819e-06
1.42472
7.81538e-06
1.41429
7.47708e-06
1.40383
2.01596e-05
1.39335
6.67244e-05
1.38277
0.000316467
1.37176
0.00151166
1.35867
0.00728957
1.33602
0.03399
1.26451
0.169834
0.467482
1.08504
3.00036
0.000905063
2.99775
0.000648435
2.99514
0.000621511
2.99251
0.00062859
2.98987
0.000629268
2.98722
0.000629153
2.98456
0.000629444
2.98189
0.000629739
2.9792
0.000630012
2.97649
0.000630288
2.97377
0.000630572
2.97104
0.000630862
2.96828
0.000631158
2.96551
0.000631461
2.96271
0.000631771
2.95989
0.000632087
2.95705
0.000632411
2.95419
0.00063274
2.95131
0.000633076
2.94839
0.000633418
2.94545
0.000633768
2.94249
0.000634124
2.93949
0.000634486
2.93647
0.000634854
2.93341
0.000635228
2.93033
0.000635609
2.92721
0.000635996
2.92405
0.000636391
2.92087
0.000636792
2.91765
0.000637199
2.91439
0.000637611
2.91109
0.000638028
2.90775
0.000638453
2.90438
0.000638885
2.90097
0.000639326
2.89751
0.000639773
2.89401
0.00064023
2.89047
0.000640693
2.88689
0.000641168
2.88326
0.000641651
2.87959
0.000642141
2.87586
0.000642636
2.8721
0.000643137
2.86828
0.00064365
2.86442
0.000644176
2.8605
0.000644715
2.85654
0.000645263
2.85252
0.000645817
2.84845
0.000646374
2.84433
0.000646936
2.84016
0.0006475
2.83593
0.000648066
2.83164
0.000648625
2.8273
0.000649165
2.82291
0.000649676
2.81845
0.000650148
2.81394
0.000650564
2.80937
0.000650898
2.80475
0.000651112
2.80006
0.000651153
2.79531
0.000650959
2.79051
0.000650449
2.78564
0.00064953
2.78071
0.000648093
2.77572
0.000646005
2.77066
0.000643113
2.76554
0.000639249
2.76036
0.000634244
2.75511
0.000627924
2.7498
0.000620119
2.74442
0.000610658
2.73898
0.000599386
2.73347
0.000586175
2.7279
0.000570933
2.72226
0.000553617
2.71655
0.000534241
2.71077
0.000512873
2.70493
0.000489642
2.69901
0.000464735
2.69303
0.000438391
2.68698
0.000410896
2.68086
0.000382573
2.67467
0.000353771
2.66841
0.000324853
2.66208
0.00029618
2.65568
0.000268099
2.64921
0.00024093
2.64268
0.000214958
2.63607
0.000190422
2.62939
0.000167511
2.62264
0.000146365
2.61582
0.000127068
2.60893
0.000109657
2.60198
9.41227e-05
2.59495
8.04148e-05
2.58785
6.84506e-05
2.58068
5.81215e-05
2.57344
4.92995e-05
2.56613
4.18453e-05
2.55875
3.56137e-05
2.5513
3.04598e-05
2.54379
2.62425e-05
2.5362
2.28283e-05
2.52854
2.00938e-05
2.52081
1.79273e-05
2.51302
1.62298e-05
2.50515
1.49147e-05
2.49722
1.39077e-05
2.48921
1.3146e-05
2.48114
1.2577e-05
2.473
1.21582e-05
2.46479
1.18548e-05
2.45651
1.16391e-05
2.44817
1.14886e-05
2.43975
1.13863e-05
2.43127
1.13188e-05
2.42272
1.12764e-05
2.4141
1.12514e-05
2.40542
1.12386e-05
2.39666
1.12334e-05
2.38784
1.12332e-05
2.37896
1.12354e-05
2.37001
1.12388e-05
2.36099
1.12423e-05
2.35191
1.12454e-05
2.34276
1.12477e-05
2.33355
1.1249e-05
2.32427
1.12487e-05
2.31493
1.12466e-05
2.30553
1.12421e-05
2.29606
1.12354e-05
2.28653
1.12264e-05
2.27694
1.12156e-05
2.26728
1.12027e-05
2.25757
1.11878e-05
2.24779
1.11705e-05
2.23795
1.1151e-05
2.22806
1.11291e-05
2.2181
1.11046e-05
2.20809
1.10775e-05
2.19801
1.10481e-05
2.18788
1.10163e-05
2.1777
1.09819e-05
2.16745
1.0945e-05
2.15715
1.09056e-05
2.1468
1.08637e-05
2.13639
1.08193e-05
2.12593
1.07722e-05
2.11541
1.07223e-05
2.10484
1.06698e-05
2.09422
1.06149e-05
2.08355
1.05573e-05
2.07283
1.04968e-05
2.06206
1.04335e-05
2.05124
1.03674e-05
2.04037
1.02987e-05
2.02946
1.02269e-05
2.0185
1.01524e-05
2.00749
1.00749e-05
1.99644
9.9949e-06
1.98534
9.91209e-06
1.9742
9.82645e-06
1.96302
9.7376e-06
1.9518
9.64589e-06
1.94054
9.55126e-06
1.92923
9.45432e-06
1.91789
9.35451e-06
1.90651
9.25145e-06
1.8951
9.14505e-06
1.88364
9.03528e-06
1.87216
8.92307e-06
1.86064
8.80796e-06
1.84908
8.69011e-06
1.83749
8.56907e-06
1.82588
8.44489e-06
1.81423
8.31701e-06
1.80255
8.18733e-06
1.79085
8.05226e-06
1.77911
7.92019e-06
1.76735
7.77248e-06
1.75557
7.65013e-06
1.74376
7.46072e-06
1.73193
7.40786e-06
1.72008
7.0617e-06
1.7082
7.27625e-06
1.69631
6.47596e-06
1.6844
7.3416e-06
1.67247
5.70301e-06
1.66052
7.50037e-06
1.64856
5.09513e-06
1.63658
8.26825e-06
1.62459
7.73305e-06
1.61258
2.58188e-05
1.60054
9.12386e-05
1.58839
0.000442863
1.57575
0.00212428
1.56074
0.0102586
1.53499
0.0476946
1.45529
0.237486
0.653735
1.25696
3.4465
0.00085385
3.44351
0.000625127
3.44051
0.00059168
3.43749
0.000600178
3.43446
0.000601034
3.43142
0.000600809
3.42836
0.000601075
3.42529
0.000601364
3.4222
0.000601625
3.41909
0.000601888
3.41597
0.000602159
3.41282
0.000602436
3.40966
0.000602719
3.40647
0.000603008
3.40326
0.000603304
3.40002
0.000603606
3.39676
0.000603915
3.39347
0.000604229
3.39016
0.00060455
3.38681
0.000604877
3.38344
0.000605211
3.38003
0.00060555
3.37659
0.000605896
3.37312
0.000606247
3.36961
0.000606605
3.36606
0.000606968
3.36248
0.000607339
3.35886
0.000607716
3.35519
0.000608098
3.35149
0.000608487
3.34775
0.00060888
3.34396
0.000609279
3.34013
0.000609684
3.33626
0.000610097
3.33233
0.000610517
3.32837
0.000610945
3.32435
0.000611381
3.32028
0.000611823
3.31616
0.000612277
3.312
0.000612738
3.30777
0.000613206
3.3035
0.000613678
3.29917
0.000614157
3.29479
0.000614647
3.29035
0.000615149
3.28585
0.000615664
3.2813
0.000616187
3.27669
0.000616716
3.27201
0.000617248
3.26728
0.000617785
3.26248
0.000618323
3.25762
0.000618864
3.2527
0.000619398
3.24772
0.000619913
3.24267
0.000620402
3.23755
0.000620852
3.23237
0.00062125
3.22712
0.00062157
3.22181
0.000621775
3.21642
0.000621815
3.21097
0.000621631
3.20545
0.000621145
3.19986
0.00062027
3.1942
0.000618901
3.18846
0.000616911
3.18265
0.000614154
3.17677
0.000610471
3.17082
0.000605698
3.16479
0.000599673
3.15869
0.00059223
3.15251
0.000583208
3.14626
0.000572458
3.13993
0.000559857
3.13353
0.000545319
3.12705
0.000528802
3.12049
0.000510318
3.11386
0.000489932
3.10714
0.000467767
3.10035
0.000444001
3.09348
0.000418862
3.08653
0.000392621
3.0795
0.000365588
3.07239
0.000338095
3.0652
0.000310488
3.05793
0.000283112
3.05058
0.000256298
3.04315
0.000230353
3.03564
0.000205546
3.02805
0.000182107
3.02038
0.000160219
3.01262
0.000140013
3.00479
0.000121571
2.99688
0.000104928
2.98888
9.00764e-05
2.98081
7.69684e-05
2.97266
6.55255e-05
2.96442
5.56442e-05
2.95611
4.72029e-05
2.94771
4.00685e-05
2.93923
3.41029e-05
2.93068
2.91675e-05
2.92204
2.51278e-05
2.91333
2.18564e-05
2.90453
1.92354e-05
2.89566
1.71581e-05
2.8867
1.55299e-05
2.87767
1.4268e-05
2.86855
1.33013e-05
2.85936
1.25696e-05
2.85008
1.20228e-05
2.84073
1.16201e-05
2.8313
1.13281e-05
2.82179
1.11203e-05
2.8122
1.09753e-05
2.80254
1.08765e-05
2.79279
1.08112e-05
2.78297
1.07701e-05
2.77307
1.07457e-05
2.7631
1.07331e-05
2.75304
1.0728e-05
2.74291
1.07275e-05
2.73271
1.07295e-05
2.72243
1.07327e-05
2.71207
1.07359e-05
2.70163
1.07388e-05
2.69113
1.0741e-05
2.68054
1.07423e-05
2.66989
1.07419e-05
2.65916
1.07399e-05
2.64836
1.07356e-05
2.63748
1.07292e-05
2.62653
1.07206e-05
2.61551
1.07103e-05
2.60442
1.0698e-05
2.59326
1.06837e-05
2.58203
1.06672e-05
2.57073
1.06486e-05
2.55937
1.06277e-05
2.54793
1.06043e-05
2.53643
1.05784e-05
2.52486
1.05503e-05
2.51322
1.05199e-05
2.50152
1.04871e-05
2.48975
1.04519e-05
2.47792
1.04142e-05
2.46603
1.03743e-05
2.45407
1.03318e-05
2.44205
1.02868e-05
2.42997
1.02392e-05
2.41783
1.01891e-05
2.40563
1.01367e-05
2.39337
1.00816e-05
2.38106
1.00239e-05
2.36869
9.96345e-06
2.35626
9.9003e-06
2.34377
9.83468e-06
2.33124
9.76613e-06
2.31864
9.69501e-06
2.306
9.62097e-06
2.2933
9.5446e-06
2.28056
9.46551e-06
2.26776
9.38374e-06
2.25492
9.29889e-06
2.24203
9.21132e-06
2.22909
9.12096e-06
2.21611
9.02837e-06
2.20308
8.93308e-06
2.19001
8.83464e-06
2.17689
8.73307e-06
2.16374
8.62819e-06
2.15054
8.5211e-06
2.13731
8.41112e-06
2.12404
8.29865e-06
2.11073
8.18299e-06
2.09738
8.06451e-06
2.084
7.94217e-06
2.07059
7.81889e-06
2.05714
7.6887e-06
2.04366
7.5651e-06
2.03016
7.41859e-06
2.01662
7.31375e-06
2.00306
7.10735e-06
1.98947
7.10895e-06
1.97585
6.67758e-06
1.96221
7.06437e-06
1.94855
5.9963e-06
1.93486
7.29037e-06
1.92116
5.07362e-06
1.90744
7.63573e-06
1.8937
4.38454e-06
1.87994
8.79331e-06
1.86617
8.00323e-06
1.85237
3.22684e-05
1.83854
0.000119067
1.82459
0.000586543
1.81007
0.00282075
1.79286
0.0136373
1.76347
0.0632391
1.67394
0.31318
0.85992
1.45389
3.95899
0.00079692
3.95555
0.000597174
3.95211
0.000557813
3.94864
0.000567514
3.94516
0.000568585
3.94166
0.000568251
3.93815
0.000568488
3.93462
0.000568771
3.93107
0.000569018
3.9275
0.000569267
3.92392
0.000569523
3.9203
0.000569784
3.91667
0.000570051
3.91301
0.000570325
3.90932
0.000570604
3.9056
0.00057089
3.90185
0.000571182
3.89808
0.00057148
3.89427
0.000571783
3.89043
0.000572092
3.88655
0.000572408
3.88263
0.000572729
3.87868
0.000573056
3.87469
0.000573388
3.87066
0.000573726
3.86659
0.00057407
3.86247
0.00057442
3.85831
0.000574777
3.85411
0.000575138
3.84985
0.000575506
3.84555
0.000575878
3.8412
0.000576255
3.8368
0.000576638
3.83235
0.000577028
3.82785
0.000577426
3.82329
0.00057783
3.81867
0.000578243
3.814
0.000578661
3.80927
0.00057909
3.80448
0.000579526
3.79963
0.000579969
3.79472
0.000580415
3.78975
0.000580868
3.78472
0.000581331
3.77962
0.000581806
3.77445
0.000582293
3.76922
0.000582788
3.76392
0.000583288
3.75856
0.000583792
3.75312
0.000584299
3.74761
0.000584808
3.74203
0.00058532
3.73637
0.000585825
3.73065
0.000586312
3.72485
0.000586774
3.71897
0.000587201
3.71302
0.000587578
3.70699
0.000587881
3.70088
0.000588075
3.6947
0.000588114
3.68844
0.000587941
3.68209
0.000587484
3.67567
0.000586658
3.66917
0.000585366
3.66258
0.000583489
3.65591
0.000580886
3.64915
0.000577409
3.64231
0.000572903
3.63539
0.000567214
3.62838
0.000560186
3.62128
0.000551665
3.6141
0.000541513
3.60683
0.000529611
3.59948
0.000515879
3.59204
0.000500276
3.5845
0.000482813
3.57688
0.000463552
3.56917
0.000442609
3.56137
0.00042015
3.55347
0.000396391
3.54549
0.000371589
3.53741
0.000346035
3.52925
0.000320044
3.52099
0.000293942
3.51264
0.000268055
3.50419
0.000242696
3.49566
0.000218154
3.48703
0.000194687
3.47831
0.000172511
3.4695
0.000151798
3.4606
0.000132673
3.4516
0.000115215
3.44251
9.94578e-05
3.43333
8.53932e-05
3.42405
7.29772e-05
3.41468
6.21362e-05
3.40523
5.27724e-05
3.39567
4.47712e-05
3.38603
3.8007e-05
3.37629
3.23494e-05
3.36647
2.76675e-05
3.35655
2.38342e-05
3.34653
2.07289e-05
3.33643
1.82401e-05
3.32623
1.62668e-05
3.31595
1.47195e-05
3.30557
1.35199e-05
3.2951
1.26004e-05
3.28454
1.19042e-05
3.27389
1.13835e-05
3.26314
1.09999e-05
3.25231
1.07215e-05
3.24139
1.05232e-05
3.23037
1.03846e-05
3.21927
1.02901e-05
3.20808
1.02276e-05
3.1968
1.01881e-05
3.18542
1.01646e-05
3.17396
1.01523e-05
3.16242
1.01471e-05
3.15078
1.01465e-05
3.13906
1.01483e-05
3.12725
1.01512e-05
3.11535
1.01542e-05
3.10336
1.01569e-05
3.09129
1.0159e-05
3.07914
1.01601e-05
3.0669
1.01597e-05
3.05457
1.01578e-05
3.04216
1.01538e-05
3.02967
1.01477e-05
3.01709
1.01396e-05
3.00444
1.01298e-05
2.9917
1.01182e-05
2.97888
1.01047e-05
2.96598
1.00891e-05
2.953
1.00715e-05
2.93994
1.00517e-05
2.9268
1.00296e-05
2.91359
1.00051e-05
2.9003
9.9785e-06
2.88693
9.94976e-06
2.87349
9.91875e-06
2.85997
9.88539e-06
2.84638
9.84979e-06
2.83272
9.81198e-06
2.81898
9.77188e-06
2.80518
9.72932e-06
2.7913
9.68424e-06
2.77736
9.63686e-06
2.76335
9.58729e-06
2.74926
9.53521e-06
2.73512
9.48061e-06
2.72091
9.42346e-06
2.70663
9.36372e-06
2.69229
9.30167e-06
2.67789
9.23681e-06
2.66342
9.16958e-06
2.6489
9.09953e-06
2.63432
9.02731e-06
2.61967
8.9525e-06
2.60498
8.87517e-06
2.59022
8.7949e-06
2.57542
8.71211e-06
2.56055
8.62663e-06
2.54564
8.53905e-06
2.53067
8.44895e-06
2.51566
8.35582e-06
2.5006
8.25979e-06
2.48548
8.16053e-06
2.47033
8.05933e-06
2.45512
7.95523e-06
2.43988
7.84893e-06
2.42459
7.73946e-06
2.40926
7.62751e-06
2.39389
7.51154e-06
2.37848
7.3956e-06
2.36303
7.27109e-06
2.34755
7.15706e-06
2.33204
7.0122e-06
2.31649
6.92705e-06
2.30091
6.70171e-06
2.2853
6.76525e-06
2.26966
6.23638e-06
2.25399
6.82139e-06
2.2383
5.44384e-06
2.22258
7.2343e-06
2.20684
4.3459e-06
2.19107
7.79785e-06
2.17529
3.55768e-06
2.15948
9.40593e-06
2.14366
8.27212e-06
2.12781
3.95889e-05
2.11193
0.000150451
2.0959
0.000748928
2.07924
0.00360786
2.05953
0.0174592
2.02608
0.0807876
1.92577
0.397598
1.0874
1.68236
17.2711
0.000570437
17.2561
0.000462114
17.2411
0.000414553
17.226
0.000424955
17.2108
0.000426862
17.1955
0.000426251
17.1802
0.000426355
17.1648
0.000426588
17.1493
0.000426771
17.1338
0.000426951
17.1181
0.00042714
17.1024
0.000427335
17.0865
0.000427534
17.0705
0.000427738
17.0544
0.000427947
17.0382
0.000428161
17.0219
0.00042838
17.0054
0.000428603
16.9888
0.00042883
16.972
0.000429062
16.9551
0.000429299
16.938
0.00042954
16.9208
0.000429785
16.9034
0.000430034
16.8858
0.000430288
16.868
0.000430546
16.8501
0.000430809
16.8319
0.000431076
16.8136
0.000431348
16.795
0.000431623
16.7763
0.000431902
16.7573
0.000432185
16.7381
0.000432473
16.7187
0.000432765
16.699
0.000433063
16.6791
0.000433367
16.659
0.000433676
16.6386
0.00043399
16.618
0.000434312
16.5971
0.000434639
16.5759
0.00043497
16.5545
0.000435305
16.5328
0.000435645
16.5109
0.000435993
16.4886
0.000436349
16.4661
0.000436715
16.4433
0.000437086
16.4201
0.000437461
16.3967
0.000437838
16.373
0.000438219
16.349
0.000438601
16.3246
0.000438984
16.3
0.000439363
16.275
0.000439729
16.2497
0.000440076
16.224
0.000440397
16.1981
0.000440681
16.1718
0.000440909
16.1451
0.000441057
16.1182
0.000441088
16.0908
0.000440961
16.0632
0.000440623
16.0351
0.00044001
16.0068
0.000439048
15.978
0.00043765
15.9489
0.000435711
15.9195
0.000433118
15.8896
0.000429759
15.8594
0.000425516
15.8288
0.000420273
15.7979
0.000413915
15.7666
0.000406338
15.7348
0.000397453
15.7028
0.000387198
15.6703
0.000375544
15.6374
0.000362498
15.6042
0.000348104
15.5705
0.000332449
15.5365
0.000315656
15.5021
0.000297885
15.4672
0.000279328
15.432
0.000260201
15.3964
0.00024074
15.3603
0.000221188
15.3239
0.000201789
15.2871
0.000182777
15.2498
0.00016437
15.2122
0.000146759
15.1742
0.000130109
15.1357
0.000114548
15.0969
0.000100172
15.0576
8.70402e-05
15.018
7.51799e-05
14.9779
6.4586e-05
14.9375
5.52269e-05
14.8966
4.70483e-05
14.8553
3.9978e-05
14.8137
3.39312e-05
14.7716
2.88142e-05
14.7291
2.45298e-05
14.6862
2.09805e-05
14.643
1.8071e-05
14.5993
1.57111e-05
14.5552
1.38171e-05
14.5107
1.23132e-05
14.4659
1.11322e-05
14.4206
1.02148e-05
14.3749
9.51044e-06
14.3288
8.97593e-06
14.2824
8.57531e-06
14.2355
8.2793e-06
14.1882
8.06385e-06
14.1406
7.90982e-06
14.0925
7.80171e-06
14.0441
7.72756e-06
13.9953
7.67813e-06
13.9461
7.64656e-06
13.8965
7.62747e-06
13.8465
7.61715e-06
13.7961
7.61247e-06
13.7453
7.61139e-06
13.6942
7.61229e-06
13.6426
7.61414e-06
13.5907
7.61615e-06
13.5385
7.61801e-06
13.4858
7.61945e-06
13.4328
7.6202e-06
13.3794
7.61987e-06
13.3256
7.61837e-06
13.2715
7.61535e-06
13.217
7.6108e-06
13.1621
7.6047e-06
13.1069
7.59735e-06
13.0513
7.58861e-06
12.9954
7.57847e-06
12.9391
7.56678e-06
12.8825
7.55358e-06
12.8255
7.53873e-06
12.7682
7.52215e-06
12.7106
7.5038e-06
12.6526
7.48385e-06
12.5943
7.46229e-06
12.5356
7.43903e-06
12.4767
7.41402e-06
12.4174
7.38731e-06
12.3578
7.35896e-06
12.2979
7.32888e-06
12.2376
7.29695e-06
12.1771
7.26316e-06
12.1163
7.22761e-06
12.0551
7.19046e-06
11.9937
7.15136e-06
11.932
7.11043e-06
11.87
7.06758e-06
11.8077
7.02273e-06
11.7451
6.97629e-06
11.6823
6.9275e-06
11.6192
6.87724e-06
11.5559
6.82455e-06
11.4922
6.77049e-06
11.4284
6.71433e-06
11.3642
6.65641e-06
11.2999
6.59606e-06
11.2353
6.53412e-06
11.1704
6.46994e-06
11.1054
6.40422e-06
11.0401
6.33673e-06
10.9746
6.26678e-06
10.9089
6.19497e-06
10.843
6.12016e-06
10.7768
6.04467e-06
10.7105
5.96616e-06
10.644
5.8869e-06
10.5773
5.80434e-06
10.5104
5.72096e-06
10.4434
5.63278e-06
10.3761
5.54862e-06
10.3088
5.44944e-06
10.2412
5.37605e-06
10.1735
5.24025e-06
10.1057
5.23861e-06
10.0377
4.93226e-06
9.96964
5.26844e-06
9.90141
4.30123e-06
9.83305
5.78514e-06
9.76459
2.98827e-06
9.69601
7.06396e-06
9.62735
1.05991e-06
9.55857
8.65557e-06
9.48972
-2.73792e-07
9.42076
1.22683e-05
9.35175
8.73291e-06
9.28261
7.01456e-05
9.21334
0.000277973
9.14345
0.00141421
9.07097
0.00682415
8.98613
0.03299
8.84497
0.152598
8.45926
0.713956
1.97064
7.50659
17.2711
0.000367957
17.2561
0.000314045
17.2411
0.000275048
17.226
0.000282793
17.2108
0.000284763
17.1955
0.000284178
17.1802
0.000284205
17.1648
0.000284377
17.1493
0.000284504
17.1338
0.000284625
17.1181
0.000284754
17.1023
0.000284886
17.0865
0.00028502
17.0705
0.000285157
17.0544
0.000285298
17.0382
0.000285441
17.0219
0.000285587
17.0054
0.000285736
16.9888
0.000285888
16.972
0.000286043
16.9551
0.000286201
16.938
0.000286361
16.9208
0.000286525
16.9034
0.000286691
16.8858
0.00028686
16.868
0.000287032
16.85
0.000287207
16.8319
0.000287385
16.8136
0.000287566
16.795
0.000287749
16.7762
0.000287936
16.7573
0.000288124
16.7381
0.000288315
16.7186
0.00028851
16.699
0.000288709
16.6791
0.000288911
16.659
0.000289117
16.6386
0.000289326
16.618
0.000289541
16.5971
0.000289759
16.5759
0.00028998
16.5545
0.000290203
16.5328
0.000290429
16.5108
0.000290661
16.4886
0.000290899
16.4661
0.000291142
16.4432
0.000291389
16.4201
0.000291639
16.3967
0.000291891
16.373
0.000292145
16.349
0.0002924
16.3246
0.000292655
16.2999
0.000292907
16.275
0.000293151
16.2497
0.000293383
16.224
0.000293597
16.198
0.000293787
16.1717
0.00029394
16.1451
0.00029404
16.1181
0.000294061
16.0908
0.000293979
16.0632
0.000293755
16.0351
0.00029335
16.0068
0.000292713
15.978
0.000291786
15.9489
0.000290499
15.9194
0.000288779
15.8896
0.00028655
15.8594
0.000283733
15.8288
0.000280253
15.7979
0.00027603
15.7665
0.000270997
15.7348
0.000265094
15.7027
0.000258279
15.6703
0.000250534
15.6374
0.000241861
15.6042