/*--------------------------------*- C++ -*----------------------------------*\
| =========                 |                                                 |
| \\      /  F ield         | OpenFOAM: The Open Source CFD Toolbox           |
|  \\    /   O peration     | Version:  3.0.x                                 |
|   \\  /    A nd           | Web:      www.OpenFOAM.org                      |
|    \\/     M anipulation  |                                                 |
\*---------------------------------------------------------------------------*/
FoamFile
{
    version     2.0;
    format      ascii;
    class       surfaceScalarField;
    location    "0.04995";
    object      phi;
}
// * * * * * * * * * * * * * * * * * * * * * * * * * * * * * * * * * * * * * //

dimensions      [1 0 -1 0 0 0 0];

internalField   nonuniform List<scalar> 
26210
(
6.96906
0.000504176
6.96871
0.000347383
6.96837
0.000340391
6.96802
0.00034185
6.96768
0.000341528
6.96734
0.000340436
6.967
0.00033816
6.96667
0.000333705
6.96634
0.000325915
6.96603
0.00031365
6.96573
0.000296074
6.96546
0.000272956
6.96521
0.000244846
6.965
0.00021306
6.96482
0.000179462
6.96467
0.000146109
6.96456
0.00011489
6.96447
8.72491e-05
6.9644
6.39956e-05
6.96436
4.54199e-05
6.96432
3.12281e-05
6.9643
2.08628e-05
6.96429
1.36065e-05
6.96428
8.72925e-06
6.96427
5.58424e-06
6.96427
3.6134e-06
6.96426
2.43134e-06
6.96426
1.74433e-06
6.96426
1.35792e-06
6.96426
1.14735e-06
6.96425
1.03607e-06
6.96425
9.78956e-07
6.96425
9.50473e-07
6.96425
9.36656e-07
6.96425
9.30129e-07
6.96424
9.27132e-07
6.96424
9.25787e-07
6.96424
9.252e-07
6.96424
9.24956e-07
6.96424
9.2486e-07
6.96424
9.24823e-07
6.96423
9.24818e-07
6.96423
9.24822e-07
6.96423
9.24832e-07
6.96423
9.24851e-07
6.96423
9.24882e-07
6.96422
9.24925e-07
6.96422
9.24994e-07
6.96422
9.25054e-07
6.96421
9.25153e-07
6.96421
9.25376e-07
6.9642
9.25746e-07
6.96419
9.26231e-07
6.96417
9.26975e-07
6.96415
9.28065e-07
6.96412
9.29673e-07
6.96408
9.31987e-07
6.96401
9.35281e-07
6.96391
9.39903e-07
6.96378
9.46286e-07
6.96359
9.54959e-07
6.96333
9.66547e-07
6.96297
9.8177e-07
6.96249
1.0014e-06
6.96185
1.02625e-06
6.96102
1.05706e-06
6.95995
1.09443e-06
6.95859
1.13872e-06
6.95691
1.18987e-06
6.95485
1.24724e-06
6.95238
1.30951e-06
6.94947
1.37451e-06
6.94611
1.43913e-06
6.94231
1.49936e-06
6.93812
1.55036e-06
6.93359
1.58671e-06
6.92882
1.60278e-06
6.92395
1.59318e-06
6.91914
1.55341e-06
6.91455
1.48038e-06
6.91037
1.37305e-06
6.90679
1.23282e-06
6.90396
1.06376e-06
6.90202
8.72573e-07
6.90106
6.68431e-07
6.90109
5.04133e-07
6.90193
3.61524e-07
6.90354
1.23655e-07
6.90601
-3.92301e-08
6.90918
-1.64844e-07
6.91285
-2.51226e-07
6.9168
-2.90662e-07
6.92085
-2.86836e-07
6.92479
-2.43852e-07
6.92848
-1.67693e-07
6.93178
-6.6213e-08
6.93462
5.0999e-08
6.93696
1.74936e-07
6.93879
2.97148e-07
6.94015
4.11468e-07
6.94108
5.12662e-07
6.94167
5.97331e-07
6.94198
6.64188e-07
6.94209
7.13628e-07
6.94206
7.39763e-07
6.94197
7.60678e-07
6.94183
7.76003e-07
6.94168
7.79011e-07
6.94154
7.75995e-07
6.94143
7.68825e-07
6.94136
7.59555e-07
6.94134
7.49993e-07
6.94135
7.44541e-07
6.94139
7.34273e-07
6.94147
7.25835e-07
6.94158
7.19534e-07
6.94171
7.15128e-07
6.94185
7.12502e-07
6.94201
7.11247e-07
6.94217
7.11158e-07
6.94233
7.12073e-07
6.94248
7.1379e-07
6.94263
7.16045e-07
6.94278
7.18681e-07
6.94291
7.21602e-07
6.94303
7.247e-07
6.94315
7.27849e-07
6.94325
7.30901e-07
6.94334
7.33829e-07
6.94343
7.36563e-07
6.9435
7.38983e-07
6.94357
7.41087e-07
6.94364
7.42933e-07
6.94369
7.4456e-07
6.94375
7.45986e-07
6.9438
7.47257e-07
6.94384
7.48398e-07
6.94388
7.49404e-07
6.94393
7.50231e-07
6.94397
7.50886e-07
6.94401
7.51437e-07
6.94404
7.51965e-07
6.94408
7.525e-07
6.94411
7.53078e-07
6.94415
7.53687e-07
6.94418
7.54269e-07
6.94421
7.54779e-07
6.94424
7.55233e-07
6.94427
7.55672e-07
6.9443
7.56145e-07
6.94433
7.56663e-07
6.94436
7.57213e-07
6.94438
7.57767e-07
6.9444
7.58291e-07
6.94443
7.58751e-07
6.94445
7.59172e-07
6.94447
7.59581e-07
6.94448
7.59985e-07
6.9445
7.60372e-07
6.94452
7.60756e-07
6.94453
7.61136e-07
6.94455
7.61489e-07
6.94456
7.61811e-07
6.94457
7.62095e-07
6.94458
7.62358e-07
6.94459
7.62331e-07
6.9446
7.63064e-07
6.94461
7.63055e-07
6.94461
7.6329e-07
6.94462
7.63324e-07
6.94463
7.64605e-07
6.94463
7.62957e-07
6.94464
7.63892e-07
6.94464
7.63468e-07
6.94464
7.64521e-07
6.94465
7.64147e-07
6.94465
7.64021e-07
6.94465
7.64603e-07
6.94466
7.64107e-07
6.94466
7.64283e-07
6.94466
7.64747e-07
6.94466
7.5921e-07
6.94466
7.91062e-07
6.94466
7.43586e-07
6.94466
7.57151e-07
6.94467
7.86356e-07
6.94467
7.52154e-07
6.94467
7.72883e-07
6.94467
8.06185e-07
6.94467
9.51031e-07
6.94467
1.72242e-06
6.94466
5.42145e-06
6.94464
2.31388e-05
6.94454
0.000105167
6.94405
0.000482577
6.94184
0.00221862
6.93169
0.0101515
6.8853
0.0463808
6.65525
0.230052
0.903854
5.75139
9.85652
0.000460002
9.85653
0.000330403
9.85656
0.000315765
9.85658
0.000318983
9.8566
0.000318835
9.85662
0.000317748
9.85663
0.000315659
9.85665
0.000311556
9.85667
0.000304345
9.85669
0.000292966
9.85671
0.000276632
9.85672
0.000255122
9.85674
0.00022894
9.85675
0.000199309
9.85676
0.000167962
9.85676
0.000136816
9.85677
0.000107643
9.85677
8.17984e-05
9.85677
6.00345e-05
9.85677
4.26359e-05
9.85677
2.93339e-05
9.85677
1.96094e-05
9.85677
1.27967e-05
9.85676
8.21343e-06
9.85676
5.255e-06
9.85676
3.39981e-06
9.85676
2.28583e-06
9.85675
1.63782e-06
9.85675
1.27295e-06
9.85675
1.07393e-06
9.85675
9.68639e-07
9.85674
9.14541e-07
9.85674
8.87532e-07
9.85674
8.74415e-07
9.85674
8.68215e-07
9.85673
8.65357e-07
9.85673
8.6408e-07
9.85673
8.63522e-07
9.85672
8.63287e-07
9.85672
8.63192e-07
9.85672
8.63154e-07
9.85672
8.63152e-07
9.85671
8.63154e-07
9.85671
8.63165e-07
9.85671
8.63185e-07
9.8567
8.63214e-07
9.8567
8.63254e-07
9.8567
8.63316e-07
9.85669
8.63372e-07
9.85669
8.63463e-07
9.85668
8.63676e-07
9.85667
8.64016e-07
9.85665
8.64475e-07
9.85663
8.65171e-07
9.8566
8.66188e-07
9.85656
8.67691e-07
9.85649
8.69853e-07
9.8564
8.72937e-07
9.85626
8.77255e-07
9.85607
8.83214e-07
9.8558
8.91314e-07
9.85543
9.02144e-07
9.85493
9.16361e-07
9.85425
9.34697e-07
9.85335
9.57898e-07
9.85217
9.8666e-07
9.85065
1.02155e-06
9.84874
1.0629e-06
9.84636
1.11062e-06
9.84345
1.16416e-06
9.83995
1.22226e-06
9.83584
1.28288e-06
9.83109
1.34313e-06
9.82572
1.39928e-06
9.81979
1.44679e-06
9.81338
1.48061e-06
9.80664
1.4955e-06
9.79976
1.48645e-06
9.79295
1.44923e-06
9.78646
1.381e-06
9.78056
1.28078e-06
9.77549
1.14991e-06
9.7715
9.92177e-07
9.76875
8.13865e-07
9.76738
6.23886e-07
9.76742
4.6939e-07
9.76861
3.39001e-07
9.77089
1.16244e-07
9.77439
-3.60124e-08
9.77887
-1.52957e-07
9.78405
-2.33294e-07
9.78964
-2.70125e-07
9.79536
-2.66491e-07
9.80094
-2.26399e-07
9.80615
-1.55407e-07
9.81082
-6.07033e-08
9.81483
4.85852e-08
9.81813
1.63862e-07
9.82072
2.77736e-07
9.82264
3.84198e-07
9.82397
4.78469e-07
9.8248
5.57349e-07
9.82524
6.19635e-07
9.82539
6.65666e-07
9.82535
6.90201e-07
9.82522
7.09437e-07
9.82502
7.23894e-07
9.82481
7.26654e-07
9.82461
7.23892e-07
9.82445
7.17242e-07
9.82436
7.08678e-07
9.82432
6.99845e-07
9.82434
6.94645e-07
9.82441
6.85324e-07
9.82451
6.77361e-07
9.82466
6.71513e-07
9.82485
6.67436e-07
9.82505
6.65004e-07
9.82527
6.63846e-07
9.82549
6.63778e-07
9.82572
6.64626e-07
9.82594
6.66236e-07
9.82615
6.68329e-07
9.82636
6.70792e-07
9.82655
6.73521e-07
9.82672
6.76409e-07
9.82688
6.79347e-07
9.82703
6.82192e-07
9.82716
6.8492e-07
9.82728
6.87469e-07
9.82738
6.89728e-07
9.82748
6.91693e-07
9.82757
6.93415e-07
9.82765
6.94929e-07
9.82772
6.9626e-07
9.82779
6.9745e-07
9.82786
6.98514e-07
9.82792
6.99451e-07
9.82798
7.00224e-07
9.82803
7.00831e-07
9.82809
7.01353e-07
9.82814
7.01844e-07
9.82819
7.02346e-07
9.82824
7.02885e-07
9.82829
7.03456e-07
9.82834
7.03998e-07
9.82838
7.04471e-07
9.82843
7.04891e-07
9.82847
7.05304e-07
9.82851
7.0575e-07
9.82855
7.0623e-07
9.82858
7.06743e-07
9.82862
7.07259e-07
9.82865
7.07751e-07
9.82868
7.0818e-07
9.82871
7.08571e-07
9.82874
7.08955e-07
9.82876
7.09329e-07
9.82879
7.09686e-07
9.82881
7.10048e-07
9.82883
7.10404e-07
9.82885
7.10728e-07
9.82887
7.11028e-07
9.82888
7.11294e-07
9.8289
7.11536e-07
9.82891
7.1152e-07
9.82892
7.12194e-07
9.82893
7.12189e-07
9.82894
7.12404e-07
9.82895
7.12453e-07
9.82896
7.13597e-07
9.82897
7.12136e-07
9.82897
7.12955e-07
9.82898
7.12644e-07
9.82899
7.13491e-07
9.82899
7.13204e-07
9.82899
7.13115e-07
9.829
7.13602e-07
9.829
7.13137e-07
9.829
7.13419e-07
9.82901
7.13597e-07
9.82901
7.0892e-07
9.82901
7.36891e-07
9.82901
6.95543e-07
9.82901
7.07381e-07
9.82901
7.33366e-07
9.82901
7.0474e-07
9.82901
7.33591e-07
9.82901
8.1201e-07
9.82902
1.1728e-06
9.82901
3.01076e-06
9.82901
1.19291e-05
9.82898
5.45617e-05
9.82883
0.000252038
9.82815
0.0011607
9.82503
0.00534064
9.81071
0.0244669
9.74535
0.111737
9.42717
0.548236
2.08802
8.243
13.9392
0.000401461
13.9392
0.000303494
13.9393
0.000281668
13.9393
0.000286373
13.9393
0.000286491
13.9394
0.000285416
13.9394
0.000283563
13.9394
0.000279933
13.9394
0.000273526
13.9395
0.000263398
13.9395
0.000248837
13.9395
0.000229632
13.9395
0.000206222
13.9395
0.000179689
13.9396
0.000151577
13.9396
0.0001236
13.9396
9.7359e-05
13.9396
7.40744e-05
13.9396
5.44359e-05
13.9396
3.871e-05
13.9396
2.66688e-05
13.9396
1.78499e-05
13.9396
1.16619e-05
13.9396
7.49174e-06
13.9396
4.79476e-06
13.9396
3.10107e-06
13.9396
2.08195e-06
13.9396
1.48808e-06
13.9396
1.15307e-06
13.9395
9.69983e-07
13.9395
8.7293e-07
13.9395
8.2297e-07
13.9395
7.97975e-07
13.9395
7.85815e-07
13.9395
7.80053e-07
13.9395
7.77391e-07
13.9395
7.76201e-07
13.9395
7.75678e-07
13.9395
7.75458e-07
13.9395
7.75369e-07
13.9395
7.75337e-07
13.9395
7.75331e-07
13.9395
7.75334e-07
13.9395
7.75342e-07
13.9395
7.75356e-07
13.9395
7.75383e-07
13.9395
7.75422e-07
13.9395
7.75475e-07
13.9395
7.75527e-07
13.9395
7.75608e-07
13.9395
7.75799e-07
13.9394
7.76106e-07
13.9394
7.76521e-07
13.9394
7.77144e-07
13.9393
7.78062e-07
13.9393
7.79411e-07
13.9392
7.81355e-07
13.9391
7.84126e-07
13.9389
7.88007e-07
13.9386
7.93366e-07
13.9382
8.00648e-07
13.9377
8.10381e-07
13.937
8.23156e-07
13.936
8.39632e-07
13.9347
8.60483e-07
13.9331
8.86326e-07
13.9309
9.17676e-07
13.9282
9.54813e-07
13.9249
9.97685e-07
13.9207
1.04578e-06
13.9158
1.09795e-06
13.91
1.15239e-06
13.9033
1.20648e-06
13.8957
1.25688e-06
13.8873
1.29951e-06
13.8782
1.32984e-06
13.8687
1.34317e-06
13.859
1.33497e-06
13.8493
1.30149e-06
13.8401
1.24016e-06
13.8318
1.15012e-06
13.8246
1.03255e-06
13.819
8.90886e-07
13.8151
7.30778e-07
13.8132
5.60625e-07
13.8132
4.2032e-07
13.8149
3.05879e-07
13.8181
1.04551e-07
13.8231
-3.19924e-08
13.8294
-1.37213e-07
13.8367
-2.09063e-07
13.8446
-2.42196e-07
13.8527
-2.38885e-07
13.8606
-2.02877e-07
13.868
-1.39169e-07
13.8746
-5.40399e-08
13.8803
4.43465e-08
13.8849
1.47369e-07
13.8886
2.49603e-07
13.8913
3.45125e-07
13.8932
4.29729e-07
13.8944
5.00514e-07
13.895
5.56417e-07
13.8952
5.9769e-07
13.8951
6.19937e-07
13.895
6.36907e-07
13.8947
6.5006e-07
13.8944
6.52479e-07
13.8941
6.50033e-07
13.8939
6.44072e-07
13.8937
6.36451e-07
13.8937
6.2857e-07
13.8937
6.23739e-07
13.8938
6.15643e-07
13.894
6.08368e-07
13.8942
6.03134e-07
13.8944
5.99503e-07
13.8947
5.97328e-07
13.895
5.96297e-07
13.8953
5.9624e-07
13.8957
5.96996e-07
13.896
5.98448e-07
13.8963
6.00327e-07
13.8966
6.02543e-07
13.8968
6.04991e-07
13.8971
6.07585e-07
13.8973
6.10226e-07
13.8975
6.12781e-07
13.8977
6.1523e-07
13.8979
6.17516e-07
13.898
6.19542e-07
13.8982
6.21311e-07
13.8983
6.22855e-07
13.8984
6.24217e-07
13.8985
6.25416e-07
13.8986
6.26481e-07
13.8987
6.27438e-07
13.8988
6.28278e-07
13.8989
6.28973e-07
13.8989
6.2952e-07
13.899
6.29991e-07
13.8991
6.30433e-07
13.8992
6.30883e-07
13.8992
6.31367e-07
13.8993
6.31881e-07
13.8994
6.32368e-07
13.8994
6.32793e-07
13.8995
6.33167e-07
13.8996
6.33541e-07
13.8996
6.33941e-07
13.8997
6.34375e-07
13.8997
6.34836e-07
13.8998
6.35298e-07
13.8998
6.3574e-07
13.8999
6.36127e-07
13.8999
6.36476e-07
13.8999
6.36822e-07
13.9
6.37159e-07
13.9
6.37479e-07
13.9
6.37801e-07
13.9001
6.38122e-07
13.9001
6.38415e-07
13.9001
6.38684e-07
13.9001
6.38925e-07
13.9002
6.39138e-07
13.9002
6.39131e-07
13.9002
6.39723e-07
13.9002
6.39727e-07
13.9002
6.39919e-07
13.9002
6.3998e-07
13.9003
6.40947e-07
13.9003
6.3972e-07
13.9003
6.40397e-07
13.9003
6.40192e-07
13.9003
6.40842e-07
13.9003
6.40632e-07
13.9003
6.40584e-07
13.9003
6.40972e-07
13.9003
6.40547e-07
13.9003
6.40913e-07
13.9003
6.40806e-07
13.9003
6.37101e-07
13.9003
6.603e-07
13.9003
6.26554e-07
13.9003
6.36073e-07
13.9003
6.58488e-07
13.9003
6.37006e-07
13.9003
6.77151e-07
13.9003
8.17892e-07
13.9003
1.47832e-06
13.9003
4.79138e-06
13.9003
2.09322e-05
13.9003
9.80367e-05
13.9001
0.000455402
13.8991
0.00209987
13.8948
0.00966583
13.875
0.0443098
13.7845
0.202157
13.3514
0.981396
3.6468
11.7926
61.5306
0.000184704
61.5308
0.000159223
61.5309
0.00013968
61.531
0.000142739
61.5311
0.000143602
61.5313
0.00014291
61.5314
0.000141959
61.5315
0.000140216
61.5316
0.000137111
61.5318
0.000132175
61.5319
0.000125035
61.532
0.000115569
61.532
0.000103973
61.5321
9.07722e-05
61.5322
7.67239e-05
61.5322
6.26862e-05
61.5322
4.94875e-05
61.5323
3.77278e-05
61.5323
2.77818e-05
61.5323
1.97938e-05
61.5323
1.36608e-05
61.5323
9.15873e-06
61.5323
5.99095e-06
61.5322
3.85148e-06
61.5322
2.46416e-06
61.5322
1.5917e-06
61.5322
1.0653e-06
61.5322
7.57995e-07
61.5322
5.84283e-07
61.5321
4.89166e-07
61.5321
4.38648e-07
61.5321
4.12595e-07
61.5321
3.99535e-07
61.5321
3.9317e-07
61.5321
3.9015e-07
61.532
3.88751e-07
61.532
3.88125e-07
61.532
3.87849e-07
61.532
3.87734e-07
61.532
3.87686e-07
61.532
3.8767e-07
61.5319
3.87666e-07
61.5319
3.87667e-07
61.5319
3.87671e-07
61.5319
3.87677e-07
61.5319
3.87689e-07
61.5318
3.87709e-07
61.5318
3.87735e-07
61.5318
3.87764e-07
61.5318
3.87803e-07
61.5317
3.87899e-07
61.5316
3.88052e-07
61.5316
3.88261e-07
61.5314
3.88573e-07
61.5312
3.89032e-07
61.531
3.89704e-07
61.5305
3.90676e-07
61.53
3.92062e-07
61.5291
3.94001e-07
61.5279
3.96682e-07
61.5262
4.00323e-07
61.5239
4.05188e-07
61.5208
4.11575e-07
61.5165
4.19812e-07
61.5109
4.30235e-07
61.5035
4.43155e-07
61.4941
4.58827e-07
61.4821
4.77394e-07
61.4673
4.98827e-07
61.4491
5.22868e-07
61.4273
5.48948e-07
61.4016
5.76164e-07
61.372
6.0321e-07
61.3385
6.28402e-07
61.3014
6.49716e-07
61.2614
6.64879e-07
61.2194
6.71538e-07
61.1764
6.67444e-07
61.1339
6.50707e-07
61.0934
6.20049e-07
61.0565
5.75038e-07
61.0249
5.16267e-07
60.9999
4.45447e-07
60.9828
3.65437e-07
60.9743
2.80838e-07
60.9745
2.0891e-07
60.9819
1.53575e-07
60.9962
5.27416e-08
61.018
-1.51799e-08
61.046
-6.89945e-08
61.0783
-1.04435e-07
61.1132
-1.2106e-07
61.1489
-1.19375e-07
61.1838
-1.01297e-07
61.2163
-6.92371e-08
61.2454
-2.68421e-08
61.2705
2.09827e-08
61.2911
7.44021e-08
61.3072
1.24916e-07
61.3192
1.72545e-07
61.3275
2.14832e-07
61.3327
2.50228e-07
61.3355
2.78169e-07
61.3364
2.98759e-07
61.3361
3.10188e-07
61.3353
3.18334e-07
61.3341
3.25063e-07
61.3327
3.26203e-07
61.3315
3.24991e-07
61.3305
3.22004e-07
61.3299
3.18246e-07
61.3297
3.14333e-07
61.3299
3.11689e-07
61.3302
3.07961e-07
61.3309
3.04136e-07
61.3319
3.0155e-07
61.333
2.99753e-07
61.3343
2.98664e-07
61.3356
2.9815e-07
61.337
2.98126e-07
61.3384
2.98495e-07
61.3398
2.99232e-07
61.3412
3.00168e-07
61.3424
3.01274e-07
61.3436
3.02499e-07
61.3447
3.03793e-07
61.3457
3.05115e-07
61.3466
3.06389e-07
61.3474
3.07613e-07
61.3482
3.08755e-07
61.3488
3.0977e-07
61.3494
3.10656e-07
61.35
3.11428e-07
61.3505
3.12109e-07
61.351
3.12712e-07
61.3514
3.13242e-07
61.3518
3.13719e-07
61.3522
3.14137e-07
61.3525
3.14483e-07
61.3529
3.1476e-07
61.3532
3.14995e-07
61.3536
3.15217e-07
61.3539
3.15442e-07
61.3542
3.15685e-07
61.3545
3.15941e-07
61.3548
3.16183e-07
61.3551
3.16396e-07
61.3553
3.16585e-07
61.3556
3.16772e-07
61.3559
3.16972e-07
61.3561
3.17188e-07
61.3563
3.17417e-07
61.3565
3.17649e-07
61.3567
3.17869e-07
61.3569
3.18065e-07
61.3571
3.1824e-07
61.3573
3.18413e-07
61.3574
3.18579e-07
61.3576
3.18739e-07
61.3577
3.18901e-07
61.3579
3.1906e-07
61.358
3.19208e-07
61.3581
3.19343e-07
61.3582
3.19463e-07
61.3583
3.19565e-07
61.3584
3.19579e-07
61.3584
3.19851e-07
61.3585
3.19866e-07
61.3586
3.19959e-07
61.3586
3.20012e-07
61.3587
3.20409e-07
61.3587
3.19919e-07
61.3588
3.20191e-07
61.3588
3.20262e-07
61.3588
3.20264e-07
61.3589
3.203e-07
61.3589
3.20359e-07
61.3589
3.20431e-07
61.3589
3.2018e-07
61.3589
3.20738e-07
61.359
3.19899e-07
61.359
3.18063e-07
61.359
3.27133e-07
61.359
3.17205e-07
61.359
3.21313e-07
61.359
3.29987e-07
61.359
3.35085e-07
61.359
4.19882e-07
61.359
8.04483e-07
61.359
2.63689e-06
61.359
1.17038e-05
61.359
5.59531e-05
61.3588
0.000267196
61.358
0.00125059
61.3543
0.00577613
61.3374
0.0266064
61.2599
0.121745
60.9137
0.548347
59.47
2.42509
8.72364
54.3932
61.5306
2.50111e-12
61.5308
2.50111e-12
61.5309
-2.27374e-13
61.531
1.13687e-12
61.5311
-2.27374e-13
61.5313
-1.36424e-12
61.5314
0
61.5315
0
61.5316
-1.36424e-12
61.5317
9.09495e-13
61.5318
6.82121e-13
61.5319
1.59162e-12
61.532
1.36424e-12
61.5321
6.59384e-12
61.5322
4.09273e-12
61.5322
-1.81899e-11
61.5322
1.36424e-12
61.5323
4.77485e-12
61.5323
2.27374e-13
61.5323
-2.27374e-13
61.5323
-1.13687e-12
61.5323
-4.54747e-13
61.5323
-2.27374e-13
61.5322
9.09495e-13
61.5322
1.59162e-12
61.5322
-1.13687e-12
61.5322
1.13687e-12
61.5322
1.13687e-12
61.5322
-4.54747e-13
61.5321
-2.27374e-13
61.5321
-2.27374e-13
61.5321
-9.09495e-13
61.5321
-1.81899e-12
61.5321
-1.13687e-12
61.5321
-2.27374e-13
61.532
-1.59162e-12
61.532
4.54747e-13
61.532
4.54747e-13
61.532
1.81899e-12
61.532
4.54747e-13
61.532
6.82121e-13
61.5319
1.81899e-12
61.5319
1.36424e-12
61.5319
0
61.5319
0
61.5319
-1.13687e-12
61.5318
-1.36424e-12
61.5318
-9.09495e-13
61.5318
-1.81899e-12
61.5318
-6.82121e-13
61.5317
-2.27374e-13
61.5316
-1.81899e-12
61.5316
1.81899e-12
61.5314
2.04636e-12
61.5312
2.04636e-12
61.531
-4.54747e-13
61.5305
-6.82121e-13
61.53
-1.59162e-12
61.5291
-2.50111e-12
61.5279
-6.82121e-13
61.5262
4.54747e-13
61.5239
1.81899e-12
61.5208
2.27374e-13
61.5165
-6.82121e-13
61.5109
-6.82121e-13
61.5035
-2.27374e-13
61.4941
-1.13687e-12
61.4821
-4.54747e-13
61.4673
-9.09495e-13
61.4491
4.54747e-13
61.4273
-1.36424e-12
61.4016
6.82121e-13
61.372
0
61.3385
1.13687e-12
61.3014
1.13687e-12
61.2614
4.54747e-13
61.2194
1.36424e-12
61.1764
1.13687e-12
61.1339
-1.36424e-12
61.0934
-4.54747e-13
61.0565
0
61.0249
6.82121e-13
60.9999
-1.13687e-12
60.9828
-2.27374e-13
60.9743
2.27374e-13
60.9745
6.82121e-13
60.9819
-2.04636e-12
60.9962
-6.82121e-13
61.018
2.27374e-13
61.046
6.82121e-13
61.0783
4.54747e-13
61.1132
-9.09495e-13
61.1489
-9.09495e-13
61.1838
4.54747e-13
61.2163
-2.27374e-13
61.2454
-6.82121e-13
61.2705
-4.54747e-13
61.2911
-1.13687e-12
61.3072
-2.27374e-12
61.3192
-1.81899e-12
61.3275
-1.81899e-12
61.3327
-4.54747e-13
61.3355
-6.82121e-13
61.3364
-6.82121e-13
61.3361
6.82121e-13
61.3353
1.36424e-12
61.3341
9.09495e-13
61.3327
-1.59162e-12
61.3315
6.82121e-13
61.3305
0
61.3299
-1.13687e-12
61.3297
-6.82121e-13
61.3299
2.04636e-12
61.3302
1.59162e-12
61.3309
6.82121e-13
61.3319
-1.13687e-12
61.333
-1.59162e-12
61.3343
1.59162e-12
61.3356
1.59162e-12
61.337
2.04636e-12
61.3384
2.04636e-12
61.3398
1.13687e-12
61.3412
-1.59162e-12
61.3424
2.27374e-13
61.3436
9.09495e-13
61.3447
1.81899e-12
61.3457
1.36424e-12
61.3466
0
61.3474
-6.82121e-13
61.3482
-2.27374e-13
61.3488
9.09495e-13
61.3494
4.54747e-13
61.35
2.27374e-13
61.3505
4.54747e-13
61.351
-1.36424e-12
61.3514
-6.82121e-13
61.3518
-1.81899e-12
61.3522
-1.81899e-12
61.3525
-1.81899e-12
61.3529
2.27374e-13
61.3532
-9.09495e-13
61.3536
-2.27374e-13
61.3539
-1.13687e-12
61.3542
-2.27374e-13
61.3545
1.13687e-12
61.3548
-2.27374e-13
61.3551
-1.36424e-12
61.3553
2.27374e-13
61.3556
1.36424e-12
61.3559
-2.27374e-13
61.3561
0
61.3563
4.54747e-13
61.3565
4.54747e-13
61.3567
4.54747e-13
61.3569
2.27374e-12
61.3571
1.59162e-12
61.3573
9.09495e-13
61.3574
-4.54747e-13
61.3576
-2.27374e-12
61.3577
2.27374e-13
61.3579
0
61.358
1.81899e-12
61.3581
2.27374e-13
61.3582
4.54747e-13
61.3583
6.82121e-13
61.3584
-6.82121e-13
61.3584
2.27374e-13
61.3585
-6.82121e-13
61.3586
-4.54747e-13
61.3586
0
61.3587
6.82121e-13
61.3587
-2.27374e-13
61.3588
5.45697e-12
61.3588
3.43334e-11
61.3588
-2.95586e-11
61.3589
-1.27329e-11
61.3589
1.18234e-11
61.3589
-9.77707e-12
61.3589
-2.47837e-11
61.3589
1.40062e-10
61.359
-5.00222e-10
61.359
-1.90585e-09
61.359
-2.23531e-09
61.359
3.97449e-09
61.359
5.42104e-09
61.359
1.91994e-09
61.359
2.44675e-08
61.359
1.24165e-07
61.359
5.95881e-07
61.359
2.89377e-06
61.359
1.4079e-05
61.359
6.84633e-05
61.3589
0.000328425
61.3586
0.00155122
61.3572
0.00720965
61.3504
0.0333774
61.318
0.154197
61.1608
0.705472
60.4084
3.1775
11.5764
57.5556
61.5306
-0.000184704
61.5308
-0.000159223
61.5309
-0.00013968
61.531
-0.000142739
61.5311
-0.000143602
61.5313
-0.00014291
61.5314
-0.000141959
61.5315
-0.000140216
61.5316
-0.000137111
61.5317
-0.000132175
61.5318
-0.000125035
61.5319
-0.000115569
61.532
-0.000103973
61.5321
-9.07722e-05
61.5322
-7.67239e-05
61.5322
-6.26862e-05
61.5322
-4.94876e-05
61.5323
-3.77278e-05
61.5323
-2.77818e-05
61.5323
-1.97938e-05
61.5323
-1.36608e-05
61.5323
-9.15873e-06
61.5323
-5.99095e-06
61.5322
-3.85148e-06
61.5322
-2.46416e-06
61.5322
-1.59171e-06
61.5322
-1.0653e-06
61.5322
-7.57992e-07
61.5322
-5.84283e-07
61.5321
-4.89165e-07
61.5321
-4.38648e-07
61.5321
-4.12597e-07
61.5321
-3.99539e-07
61.5321
-3.93173e-07
61.5321
-3.9015e-07
61.532
-3.88755e-07
61.532
-3.88125e-07
61.532
-3.87848e-07
61.532
-3.8773e-07
61.532
-3.87686e-07
61.532
-3.87668e-07
61.5319
-3.87662e-07
61.5319
-3.87665e-07
61.5319
-3.87672e-07
61.5319
-3.87679e-07
61.5319
-3.87693e-07
61.5318
-3.87711e-07
61.5318
-3.87738e-07
61.5318
-3.87767e-07
61.5318
-3.87804e-07
61.5317
-3.87901e-07
61.5316
-3.88056e-07
61.5316
-3.88258e-07
61.5314
-3.88569e-07
61.5312
-3.89028e-07
61.531
-3.89706e-07
61.5305
-3.90678e-07
61.53
-3.92063e-07
61.5291
-3.94006e-07
61.5279
-3.96684e-07
61.5262
-4.00322e-07
61.5239
-4.05185e-07
61.5208
-4.11574e-07
61.5165
-4.19814e-07
61.5109
-4.30236e-07
61.5035
-4.43156e-07
61.4941
-4.5883e-07
61.4821
-4.77395e-07
61.4673
-4.9883e-07
61.4491
-5.22867e-07
61.4273
-5.48953e-07
61.4016
-5.76164e-07
61.372
-6.03211e-07
61.3385
-6.28401e-07
61.3014
-6.49715e-07
61.2614
-6.64879e-07
61.2194
-6.71536e-07
61.1764
-6.67442e-07
61.1339
-6.50709e-07
61.0934
-6.20048e-07
61.0565
-5.75036e-07
61.0249
-5.16266e-07
60.9999
-4.45449e-07
60.9828
-3.65439e-07
60.9743
-2.80837e-07
60.9745
-2.0891e-07
60.9819
-1.53578e-07
60.9962
-5.27436e-08
61.018
1.51817e-08
61.046
6.89959e-08
61.0783
1.04435e-07
61.1132
1.21059e-07
61.1489
1.19373e-07
61.1838
1.01297e-07
61.2163
6.92366e-08
61.2454
2.68403e-08
61.2705
-2.09848e-08
61.2911
-7.44044e-08
61.3072
-1.24921e-07
61.3192
-1.72549e-07
61.3275
-2.14834e-07
61.3327
-2.5023e-07
61.3355
-2.78172e-07
61.3364
-2.9876e-07
61.3361
-3.10187e-07
61.3353
-3.18332e-07
61.3341
-3.25064e-07
61.3327
-3.26205e-07
61.3315
-3.2499e-07
61.3305
-3.22004e-07
61.3299
-3.18248e-07
61.3297
-3.14334e-07
61.3299
-3.11687e-07
61.3302
-3.07958e-07
61.3309
-3.04135e-07
61.3319
-3.01552e-07
61.333
-2.99755e-07
61.3343
-2.98661e-07
61.3356
-2.98148e-07
61.337
-2.98122e-07
61.3384
-2.98492e-07
61.3398
-2.99231e-07
61.3412
-3.00171e-07
61.3424
-3.01274e-07
61.3436
-3.02497e-07
61.3447
-3.03789e-07
61.3457
-3.05112e-07
61.3466
-3.0639e-07
61.3474
-3.07615e-07
61.3482
-3.08755e-07
61.3488
-3.09769e-07
61.3494
-3.10656e-07
61.35
-3.11428e-07
61.3505
-3.12109e-07
61.351
-3.12714e-07
61.3514
-3.13244e-07
61.3518
-3.13723e-07
61.3522
-3.1414e-07
61.3525
-3.14487e-07
61.3529
-3.14762e-07
61.3532
-3.14997e-07
61.3536
-3.15217e-07
61.3539
-3.15443e-07
61.3542
-3.15685e-07
61.3545
-3.1594e-07
61.3548
-3.16184e-07
61.3551
-3.164e-07
61.3553
-3.16587e-07
61.3556
-3.16771e-07
61.3559
-3.16971e-07
61.3561
-3.17188e-07
61.3563
-3.17417e-07
61.3565
-3.17648e-07
61.3567
-3.17867e-07
61.3569
-3.18061e-07
61.3571
-3.18239e-07
61.3573
-3.18411e-07
61.3574
-3.18579e-07
61.3576
-3.18743e-07
61.3577
-3.189e-07
61.3579
-3.19059e-07
61.358
-3.19206e-07
61.3581
-3.19343e-07
61.3582
-3.19462e-07
61.3583
-3.19565e-07
61.3584
-3.19581e-07
61.3584
-3.19851e-07
61.3585
-3.19868e-07
61.3586
-3.19961e-07
61.3586
-3.20012e-07
61.3587
-3.20409e-07
61.3587
-3.1992e-07
61.3588
-3.20181e-07
61.3588
-3.20176e-07
61.3588
-3.20343e-07
61.3589
-3.20322e-07
61.3589
-3.2033e-07
61.3589
-3.20458e-07
61.3589
-3.20233e-07
61.3589
-3.20448e-07
61.359
-3.20782e-07
61.359
-3.217e-07
61.359
-3.31614e-07
61.359
-3.09474e-07
61.359
-3.12636e-07
61.359
-3.27363e-07
61.359
-2.94855e-07
61.359
-2.19417e-07
61.359
1.56414e-07
61.359
2.01557e-06
61.359
1.0991e-05
61.359
5.45759e-05
61.3591
0.000264474
61.3594
0.00125384
61.3608
0.00584957
61.3668
0.0273207
61.3923
0.128657
61.4868
0.611022
61.6401
3.02416
10.617
62.5995
61.5306
-0.000401461
61.5308
-0.000303494
61.5309
-0.000281668
61.531
-0.000286373
61.5311
-0.000286491
61.5313
-0.000285416
61.5314
-0.000283563
61.5315
-0.000279933
61.5316
-0.000273526
61.5318
-0.000263398
61.5319
-0.000248837
61.532
-0.000229632
61.532
-0.000206222
61.5321
-0.000179689
61.5322
-0.000151577
61.5322
-0.0001236
61.5322
-9.7359e-05
61.5323
-7.40744e-05
61.5323
-5.44359e-05
61.5323
-3.871e-05
61.5323
-2.66688e-05
61.5323
-1.78499e-05
61.5323
-1.16619e-05
61.5322
-7.49174e-06
61.5322
-4.79476e-06
61.5322
-3.10107e-06
61.5322
-2.08195e-06
61.5322
-1.48808e-06
61.5322
-1.15307e-06
61.5321
-9.6998e-07
61.5321
-8.72929e-07
61.5321
-8.22974e-07
61.5321
-7.97979e-07
61.5321
-7.85814e-07
61.5321
-7.80052e-07
61.532
-7.77397e-07
61.532
-7.76199e-07
61.532
-7.75678e-07
61.532
-7.75454e-07
61.532
-7.7537e-07
61.532
-7.75337e-07
61.5319
-7.75326e-07
61.5319
-7.75332e-07
61.5319
-7.75346e-07
61.5319
-7.75358e-07
61.5319
-7.75385e-07
61.5318
-7.75422e-07
61.5318
-7.75477e-07
61.5318
-7.75532e-07
61.5318
-7.75608e-07
61.5317
-7.75804e-07
61.5316
-7.76113e-07
61.5316
-7.76517e-07
61.5314
-7.77143e-07
61.5312
-7.7806e-07
61.531
-7.79412e-07
61.5305
-7.81356e-07
61.53
-7.84124e-07
61.5291
-7.88011e-07
61.5279
-7.9337e-07
61.5262
-8.00645e-07
61.5239
-8.10378e-07
61.5208
-8.23154e-07
61.5165
-8.39637e-07
61.5109
-8.6048e-07
61.5035
-8.86323e-07
61.4941
-9.17678e-07
61.4821
-9.54813e-07
61.4673
-9.9769e-07
61.4491
-1.04577e-06
61.4273
-1.09795e-06
61.4016
-1.15239e-06
61.372
-1.20649e-06
61.3385
-1.25688e-06
61.3014
-1.29951e-06
61.2614
-1.32985e-06
61.2194
-1.34316e-06
61.1764
-1.33497e-06
61.1339
-1.30149e-06
61.0934
-1.24016e-06
61.0565
-1.15012e-06
61.0249
-1.03255e-06
60.9999
-8.90888e-07
60.9828
-7.3078e-07
60.9743
-5.60625e-07
60.9745
-4.20319e-07
60.9819
-3.05882e-07
60.9962
-1.04552e-07
61.018
3.19956e-08
61.046
1.37217e-07
61.0783
2.0906e-07
61.1132
2.42197e-07
61.1489
2.38885e-07
61.1838
2.02877e-07
61.2163
1.3917e-07
61.2454
5.40376e-08
61.2705
-4.43483e-08
61.2911
-1.47369e-07
61.3072
-2.49612e-07
61.3192
-3.45129e-07
61.3275
-4.29729e-07
61.3327
-5.00517e-07
61.3355
-5.56418e-07
61.3364
-5.97693e-07
61.3361
-6.19938e-07
61.3353
-6.36905e-07
61.3341
-6.5006e-07
61.3327
-6.52481e-07
61.3315
-6.50032e-07
61.3305
-6.44073e-07
61.3299
-6.36452e-07
61.3297
-6.2857e-07
61.3299
-6.23736e-07
61.3302
-6.1564e-07
61.3309
-6.08366e-07
61.3319
-6.03134e-07
61.333
-5.99505e-07
61.3343
-5.97322e-07
61.3356
-5.96295e-07
61.337
-5.96236e-07
61.3384
-5.96995e-07
61.3398
-5.98451e-07
61.3412
-6.00332e-07
61.3424
-6.02542e-07
61.3436
-6.04991e-07
61.3447
-6.07582e-07
61.3457
-6.10225e-07
61.3466
-6.12781e-07
61.3474
-6.15233e-07
61.3482
-6.17516e-07
61.3488
-6.1954e-07
61.3494
-6.21314e-07
61.35
-6.22857e-07
61.3505
-6.24216e-07
61.351
-6.25422e-07
61.3514
-6.26484e-07
61.3518
-6.27442e-07
61.3522
-6.28281e-07
61.3525
-6.28974e-07
61.3529
-6.29524e-07
61.3532
-6.29992e-07
61.3536
-6.30431e-07
61.3539
-6.30882e-07
61.3542
-6.31367e-07
61.3545
-6.31876e-07
61.3548
-6.32367e-07
61.3551
-6.32797e-07
61.3553
-6.33176e-07
61.3556
-6.33541e-07
61.3559
-6.3394e-07
61.3561
-6.34374e-07
61.3563
-6.34834e-07
61.3565
-6.35297e-07
61.3567
-6.35736e-07
61.3569
-6.36122e-07
61.3571
-6.36475e-07
61.3573
-6.36821e-07
61.3574
-6.37156e-07
61.3576
-6.37484e-07
61.3577
-6.378e-07
61.3579
-6.38119e-07
61.358
-6.38414e-07
61.3581
-6.38686e-07
61.3582
-6.38925e-07
61.3583
-6.39136e-07
61.3584
-6.39136e-07
61.3584
-6.39724e-07
61.3585
-6.39729e-07
61.3586
-6.39921e-07
61.3586
-6.39981e-07
61.3587
-6.40944e-07
61.3587
-6.39724e-07
61.3588
-6.40398e-07
61.3588
-6.40197e-07
61.3588
-6.40837e-07
61.3589
-6.40639e-07
61.3589
-6.40591e-07
61.3589
-6.40973e-07
61.3589
-6.40571e-07
61.3589
-6.40752e-07
61.359
-6.41233e-07
61.359
-6.40249e-07
61.359
-6.64709e-07
61.359
-6.19201e-07
61.359
-6.30967e-07
61.359
-6.61601e-07
61.359
-6.20224e-07
61.359
-6.04171e-07
61.359
-4.67904e-07
61.359
2.14599e-07
61.359
3.46819e-06
61.3591
1.93179e-05
61.3592
9.5825e-05
61.36
0.000456136
61.3637
0.00213255
61.3811
0.0100019
61.4617
0.0479811
61.8313
0.241483
63.2348
1.62062
5.45621
68.3955
13.9392
-0.000460002
13.9392
-0.000330403
13.9393
-0.000315765
13.9393
-0.000318983
13.9393
-0.000318835
13.9394
-0.000317748
13.9394
-0.000315659
13.9394
-0.000311556
13.9394
-0.000304345
13.9395
-0.000292966
13.9395
-0.000276632
13.9395
-0.000255122
13.9395
-0.00022894
13.9395
-0.000199309
13.9396
-0.000167962
13.9396
-0.000136816
13.9396
-0.000107643
13.9396
-8.17984e-05
13.9396
-6.00345e-05
13.9396
-4.26359e-05
13.9396
-2.93339e-05
13.9396
-1.96095e-05
13.9396
-1.27967e-05
13.9396
-8.21343e-06
13.9396
-5.255e-06
13.9396
-3.39981e-06
13.9396
-2.28583e-06
13.9396
-1.63781e-06
13.9396
-1.27296e-06
13.9395
-1.07393e-06
13.9395
-9.68637e-07
13.9395
-9.14546e-07
13.9395
-8.87534e-07
13.9395
-8.74415e-07
13.9395
-8.68215e-07
13.9395
-8.65362e-07
13.9395
-8.6408e-07
13.9395
-8.63522e-07
13.9395
-8.63283e-07
13.9395
-8.63194e-07
13.9395
-8.6316e-07
13.9395
-8.63147e-07
13.9395
-8.63156e-07
13.9395
-8.6317e-07
13.9395
-8.63185e-07
13.9395
-8.63214e-07
13.9395
-8.63256e-07
13.9395
-8.63316e-07
13.9395
-8.63374e-07
13.9395
-8.63463e-07
13.9395
-8.6368e-07
13.9394
-8.64022e-07
13.9394
-8.64475e-07
13.9394
-8.65166e-07
13.9393
-8.66188e-07
13.9393
-8.67693e-07
13.9392
-8.69853e-07