/*--------------------------------*- C++ -*----------------------------------*\
| =========                 |                                                 |
| \\      /  F ield         | OpenFOAM: The Open Source CFD Toolbox           |
|  \\    /   O peration     | Version:  3.0.x                                 |
|   \\  /    A nd           | Web:      www.OpenFOAM.org                      |
|    \\/     M anipulation  |                                                 |
\*---------------------------------------------------------------------------*/
FoamFile
{
    version     2.0;
    format      ascii;
    class       volVectorField;
    location    "0.04995";
    object      U;
}
// * * * * * * * * * * * * * * * * * * * * * * * * * * * * * * * * * * * * * //

dimensions      [0 1 -1 0 0 0 0];

internalField   nonuniform List<vector> 
13800
(
(76.1962 0.000141174 0)
(76.1925 0.000123389 0)
(76.1888 0.00012221 0)
(76.1851 0.000124351 0)
(76.1813 0.000126086 0)
(76.1776 0.000127273 0)
(76.1739 0.000127719 0)
(76.1702 0.000127086 0)
(76.1666 0.000124962 0)
(76.163 0.000120929 0)
(76.1597 0.000114677 0)
(76.1565 0.000106127 0)
(76.1537 9.55028e-05 0)
(76.1512 8.33306e-05 0)
(76.149 7.03528e-05 0)
(76.1472 5.73923e-05 0)
(76.1458 4.52083e-05 0)
(76.1447 3.43829e-05 0)
(76.1439 2.52554e-05 0)
(76.1433 1.79433e-05 0)
(76.1429 1.23489e-05 0)
(76.1426 8.25682e-06 0)
(76.1424 5.38863e-06 0)
(76.1423 3.45855e-06 0)
(76.1422 2.21121e-06 0)
(76.1421 1.43093e-06 0)
(76.1421 9.6185e-07 0)
(76.1421 6.89098e-07 0)
(76.142 5.35611e-07 0)
(76.142 4.51945e-07 0)
(76.142 4.07708e-07 0)
(76.142 3.85e-07 0)
(76.142 3.73673e-07 0)
(76.1419 3.6818e-07 0)
(76.1419 3.65585e-07 0)
(76.1419 3.6439e-07 0)
(76.1419 3.63857e-07 0)
(76.1419 3.63623e-07 0)
(76.1418 3.63524e-07 0)
(76.1418 3.63487e-07 0)
(76.1418 3.63471e-07 0)
(76.1418 3.6347e-07 0)
(76.1418 3.63472e-07 0)
(76.1418 3.63473e-07 0)
(76.1417 3.63476e-07 0)
(76.1417 3.63484e-07 0)
(76.1417 3.63494e-07 0)
(76.1417 3.6351e-07 0)
(76.1416 3.63521e-07 0)
(76.1416 3.6354e-07 0)
(76.1415 3.63587e-07 0)
(76.1415 3.63666e-07 0)
(76.1414 3.63761e-07 0)
(76.1412 3.63907e-07 0)
(76.141 3.64128e-07 0)
(76.1407 3.64448e-07 0)
(76.1402 3.64912e-07 0)
(76.1395 3.65576e-07 0)
(76.1385 3.66504e-07 0)
(76.1371 3.67789e-07 0)
(76.1351 3.69542e-07 0)
(76.1323 3.71898e-07 0)
(76.1285 3.75017e-07 0)
(76.1234 3.79076e-07 0)
(76.1165 3.84273e-07 0)
(76.1074 3.90805e-07 0)
(76.0957 3.98862e-07 0)
(76.0808 4.08585e-07 0)
(76.0621 4.20036e-07 0)
(76.0391 4.3316e-07 0)
(76.0112 4.4772e-07 0)
(75.978 4.63279e-07 0)
(75.9394 4.79149e-07 0)
(75.8953 4.94406e-07 0)
(75.8459 5.07886e-07 0)
(75.7921 5.1826e-07 0)
(75.7347 5.24099e-07 0)
(75.6752 5.24029e-07 0)
(75.6153 5.16843e-07 0)
(75.5572 5.01759e-07 0)
(75.5029 4.78501e-07 0)
(75.4548 4.47615e-07 0)
(75.415 4.10389e-07 0)
(75.3852 3.6673e-07 0)
(75.3669 3.15373e-07 0)
(75.3605 2.64185e-07 0)
(75.3648 2.1675e-07 0)
(75.3791 1.33923e-07 0)
(75.4043 5.46407e-08 0)
(75.439 5.89556e-09 0)
(75.4812 -2.19822e-08 0)
(75.5283 -3.763e-08 0)
(75.5779 -4.21514e-08 0)
(75.6275 -3.63185e-08 0)
(75.6749 -2.13782e-08 0)
(75.7184 7.2057e-10 0)
(75.7567 2.78405e-08 0)
(75.7891 5.7725e-08 0)
(75.8152 8.98012e-08 0)
(75.8352 1.21717e-07 0)
(75.8497 1.51527e-07 0)
(75.8593 1.77855e-07 0)
(75.8651 2.00016e-07 0)
(75.8678 2.17869e-07 0)
(75.8684 2.30071e-07 0)
(75.8677 2.39995e-07 0)
(75.8663 2.47998e-07 0)
(75.8645 2.52857e-07 0)
(75.8626 2.5574e-07 0)
(75.8611 2.57158e-07 0)
(75.8599 2.57604e-07 0)
(75.8593 2.57595e-07 0)
(75.8592 2.58095e-07 0)
(75.8595 2.57397e-07 0)
(75.8602 2.56857e-07 0)
(75.8613 2.56577e-07 0)
(75.8627 2.56592e-07 0)
(75.8644 2.56927e-07 0)
(75.8663 2.575e-07 0)
(75.8682 2.58268e-07 0)
(75.8702 2.59208e-07 0)
(75.8722 2.603e-07 0)
(75.8741 2.61483e-07 0)
(75.8759 2.62736e-07 0)
(75.8776 2.64044e-07 0)
(75.8792 2.6539e-07 0)
(75.8807 2.66761e-07 0)
(75.882 2.68111e-07 0)
(75.8833 2.69446e-07 0)
(75.8844 2.70734e-07 0)
(75.8854 2.71947e-07 0)
(75.8863 2.73079e-07 0)
(75.8871 2.74136e-07 0)
(75.8878 2.75137e-07 0)
(75.8885 2.76081e-07 0)
(75.8892 2.76977e-07 0)
(75.8897 2.77833e-07 0)
(75.8903 2.78641e-07 0)
(75.8908 2.79395e-07 0)
(75.8913 2.80081e-07 0)
(75.8918 2.80722e-07 0)
(75.8923 2.81341e-07 0)
(75.8928 2.81952e-07 0)
(75.8932 2.82566e-07 0)
(75.8936 2.83173e-07 0)
(75.8941 2.83758e-07 0)
(75.8945 2.84302e-07 0)
(75.8949 2.84813e-07 0)
(75.8952 2.85304e-07 0)
(75.8956 2.85792e-07 0)
(75.8959 2.86288e-07 0)
(75.8963 2.86788e-07 0)
(75.8966 2.87288e-07 0)
(75.8969 2.87766e-07 0)
(75.8972 2.8821e-07 0)
(75.8974 2.88633e-07 0)
(75.8977 2.89043e-07 0)
(75.8979 2.89446e-07 0)
(75.8981 2.89843e-07 0)
(75.8983 2.90228e-07 0)
(75.8985 2.90609e-07 0)
(75.8987 2.90978e-07 0)
(75.8989 2.91331e-07 0)
(75.899 2.91668e-07 0)
(75.8991 2.91989e-07 0)
(75.8993 2.92246e-07 0)
(75.8994 2.92648e-07 0)
(75.8995 2.92894e-07 0)
(75.8996 2.93184e-07 0)
(75.8997 2.93432e-07 0)
(75.8997 2.93919e-07 0)
(75.8998 2.9381e-07 0)
(75.8999 2.94185e-07 0)
(75.8999 2.9431e-07 0)
(75.9 2.94722e-07 0)
(75.9 2.94838e-07 0)
(75.9001 2.94992e-07 0)
(75.9001 2.95284e-07 0)
(75.9001 2.9537e-07 0)
(75.9002 2.95585e-07 0)
(75.9002 2.95842e-07 0)
(75.9002 2.94783e-07 0)
(75.9002 3.01289e-07 0)
(75.9002 2.92537e-07 0)
(75.9002 2.95089e-07 0)
(75.9003 3.01727e-07 0)
(75.9003 2.94805e-07 0)
(75.9003 2.9875e-07 0)
(75.9003 3.06023e-07 0)
(75.9003 3.34897e-07 0)
(75.9003 4.89195e-07 0)
(75.9003 1.23161e-06 0)
(75.9001 4.78585e-06 0)
(75.8996 2.1243e-05 0)
(75.897 9.69599e-05 0)
(75.885 0.000445282 0)
(75.8304 0.00203771 0)
(75.5802 0.00932577 0)
(74.7498 0.0466916 0)
(67.0708 0.190223 0)
(76.2001 0.000222462 0)
(76.2003 0.000163199 0)
(76.2005 0.000150678 0)
(76.2007 0.00014845 0)
(76.2008 0.00014643 0)
(76.201 0.000144527 0)
(76.2012 0.00014246 0)
(76.2013 0.000139711 0)
(76.2015 0.000135754 0)
(76.2016 0.000130092 0)
(76.2017 0.000122369 0)
(76.2019 0.000112478 0)
(76.202 0.00010064 0)
(76.2021 8.73852e-05 0)
(76.2022 7.34672e-05 0)
(76.2022 5.9715e-05 0)
(76.2023 4.68883e-05 0)
(76.2023 3.5563e-05 0)
(76.2023 2.60554e-05 0)
(76.2023 1.84742e-05 0)
(76.2023 1.26913e-05 0)
(76.2023 8.47274e-06 0)
(76.2023 5.52293e-06 0)
(76.2023 3.54211e-06 0)
(76.2023 2.26583e-06 0)
(76.2022 1.46677e-06 0)
(76.2022 9.87621e-07 0)
(76.2022 7.09349e-07 0)
(76.2022 5.529e-07 0)
(76.2022 4.67673e-07 0)
(76.2022 4.22646e-07 0)
(76.2021 3.99541e-07 0)
(76.2021 3.88019e-07 0)
(76.2021 3.82431e-07 0)
(76.2021 3.79792e-07 0)
(76.2021 3.78578e-07 0)
(76.202 3.78036e-07 0)
(76.202 3.77802e-07 0)
(76.202 3.777e-07 0)
(76.202 3.77661e-07 0)
(76.202 3.77649e-07 0)
(76.202 3.77642e-07 0)
(76.2019 3.77648e-07 0)
(76.2019 3.77654e-07 0)
(76.2019 3.7766e-07 0)
(76.2019 3.77675e-07 0)
(76.2018 3.77687e-07 0)
(76.2018 3.77717e-07 0)
(76.2018 3.77744e-07 0)
(76.2017 3.77781e-07 0)
(76.2017 3.77871e-07 0)
(76.2016 3.78017e-07 0)
(76.2015 3.78215e-07 0)
(76.2014 3.78521e-07 0)
(76.2011 3.78962e-07 0)
(76.2008 3.79616e-07 0)
(76.2004 3.80561e-07 0)
(76.1997 3.81903e-07 0)
(76.1987 3.838e-07 0)
(76.1973 3.86423e-07 0)
(76.1953 3.90002e-07 0)
(76.1925 3.94808e-07 0)
(76.1887 4.01159e-07 0)
(76.1835 4.09408e-07 0)
(76.1766 4.19934e-07 0)
(76.1676 4.33117e-07 0)
(76.1559 4.49287e-07 0)
(76.141 4.68689e-07 0)
(76.1223 4.91407e-07 0)
(76.0992 5.1728e-07 0)
(76.0713 5.45832e-07 0)
(76.0382 5.76202e-07 0)
(75.9996 6.07087e-07 0)
(75.9554 6.36744e-07 0)
(75.9061 6.63032e-07 0)
(75.8523 6.83497e-07 0)
(75.7949 6.95561e-07 0)
(75.7354 6.96712e-07 0)
(75.6755 6.84817e-07 0)
(75.6174 6.58353e-07 0)
(75.5631 6.16778e-07 0)
(75.515 5.60777e-07 0)
(75.4752 4.92268e-07 0)
(75.4454 4.12307e-07 0)
(75.4271 3.21646e-07 0)
(75.4207 2.38307e-07 0)
(75.4249 1.63919e-07 0)
(75.4393 3.66971e-08 0)
(75.4644 -4.79479e-08 0)
(75.4992 -1.03688e-07 0)
(75.5413 -1.42431e-07 0)
(75.5885 -1.61797e-07 0)
(75.638 -1.62168e-07 0)
(75.6876 -1.4454e-07 0)
(75.735 -1.10729e-07 0)
(75.7785 -6.25956e-08 0)
(75.8168 -4.66818e-10 0)
(75.8491 5.2166e-08 0)
(75.8752 1.05259e-07 0)
(75.8953 1.56682e-07 0)
(75.9097 2.03826e-07 0)
(75.9194 2.44521e-07 0)
(75.9251 2.77602e-07 0)
(75.9278 3.02848e-07 0)
(75.9284 3.17842e-07 0)
(75.9278 3.29327e-07 0)
(75.9264 3.37878e-07 0)
(75.9245 3.4091e-07 0)
(75.9227 3.40856e-07 0)
(75.9211 3.38573e-07 0)
(75.92 3.35001e-07 0)
(75.9194 3.30983e-07 0)
(75.9192 3.28277e-07 0)
(75.9195 3.23652e-07 0)
(75.9202 3.19542e-07 0)
(75.9213 3.16185e-07 0)
(75.9228 3.13558e-07 0)
(75.9245 3.11647e-07 0)
(75.9263 3.10311e-07 0)
(75.9283 3.09472e-07 0)
(75.9302 3.09077e-07 0)
(75.9322 3.09062e-07 0)
(75.9341 3.09317e-07 0)
(75.9359 3.09794e-07 0)
(75.9376 3.10448e-07 0)
(75.9392 3.11228e-07 0)
(75.9407 3.12079e-07 0)
(75.9421 3.12933e-07 0)
(75.9433 3.13766e-07 0)
(75.9444 3.14556e-07 0)
(75.9454 3.15241e-07 0)
(75.9463 3.15816e-07 0)
(75.9471 3.16301e-07 0)
(75.9478 3.16714e-07 0)
(75.9485 3.17055e-07 0)
(75.9492 3.17346e-07 0)
(75.9497 3.17584e-07 0)
(75.9503 3.17771e-07 0)
(75.9508 3.17881e-07 0)
(75.9513 3.17915e-07 0)
(75.9518 3.17907e-07 0)
(75.9523 3.17886e-07 0)
(75.9527 3.17868e-07 0)
(75.9532 3.17872e-07 0)
(75.9536 3.17895e-07 0)
(75.954 3.17907e-07 0)
(75.9544 3.1789e-07 0)
(75.9548 3.1785e-07 0)
(75.9552 3.17811e-07 0)
(75.9556 3.1779e-07 0)
(75.9559 3.1779e-07 0)
(75.9562 3.17805e-07 0)
(75.9566 3.17825e-07 0)
(75.9569 3.17835e-07 0)
(75.9571 3.17824e-07 0)
(75.9574 3.17803e-07 0)
(75.9576 3.17784e-07 0)
(75.9579 3.17763e-07 0)
(75.9581 3.17743e-07 0)
(75.9583 3.17724e-07 0)
(75.9585 3.17708e-07 0)
(75.9586 3.17681e-07 0)
(75.9588 3.17645e-07 0)
(75.959 3.17595e-07 0)
(75.9591 3.17541e-07 0)
(75.9592 3.17383e-07 0)
(75.9593 3.17513e-07 0)
(75.9594 3.17363e-07 0)
(75.9595 3.17314e-07 0)
(75.9596 3.17192e-07 0)
(75.9597 3.17544e-07 0)
(75.9597 3.16793e-07 0)
(75.9598 3.16992e-07 0)
(75.9599 3.16725e-07 0)
(75.9599 3.16988e-07 0)
(75.9599 3.1674e-07 0)
(75.96 3.16568e-07 0)
(75.96 3.16662e-07 0)
(75.9601 3.16362e-07 0)
(75.9601 3.16339e-07 0)
(75.9601 3.16339e-07 0)
(75.9601 3.14065e-07 0)
(75.9601 3.25927e-07 0)
(75.9601 3.08576e-07 0)
(75.9602 3.13101e-07 0)
(75.9602 3.24463e-07 0)
(75.9602 3.11399e-07 0)
(75.9602 3.20946e-07 0)
(75.9602 3.43499e-07 0)
(75.9602 4.44599e-07 0)
(75.9602 9.67873e-07 0)
(75.9602 3.49947e-06 0)
(75.96 1.56064e-05 0)
(75.9595 7.1682e-05 0)
(75.9569 0.000329696 0)
(75.945 0.00151655 0)
(75.8907 0.00694493 0)
(75.6419 0.031718 0)
(74.8165 0.156066 0)
(67.5559 0.599742 0)
(76.2001 0.000163877 0)
(76.2003 0.000114019 0)
(76.2005 0.000107625 0)
(76.2007 0.000110536 0)
(76.2008 0.000111461 0)
(76.201 0.000111615 0)
(76.2012 0.000111292 0)
(76.2013 0.000110176 0)
(76.2015 0.000107896 0)
(76.2016 0.000104088 0)
(76.2017 9.84773e-05 0)
(76.2019 9.09838e-05 0)
(76.202 8.17861e-05 0)
(76.2021 7.13182e-05 0)
(76.2022 6.01984e-05 0)
(76.2022 4.91129e-05 0)
(76.2023 3.87018e-05 0)
(76.2023 2.94562e-05 0)
(76.2023 2.16523e-05 0)
(76.2023 1.5401e-05 0)
(76.2023 1.0612e-05 0)
(76.2023 7.10379e-06 0)
(76.2023 4.64145e-06 0)
(76.2023 2.9818e-06 0)
(76.2023 1.90857e-06 0)
(76.2023 1.23422e-06 0)
(76.2022 8.28588e-07 0)
(76.2022 5.92203e-07 0)
(76.2022 4.58856e-07 0)
(76.2022 3.85988e-07 0)
(76.2022 3.47368e-07 0)
(76.2021 3.27487e-07 0)
(76.2021 3.17543e-07 0)
(76.2021 3.12707e-07 0)
(76.2021 3.10415e-07 0)
(76.2021 3.09357e-07 0)
(76.2021 3.0888e-07 0)
(76.202 3.08675e-07 0)
(76.202 3.0859e-07 0)
(76.202 3.08553e-07 0)
(76.202 3.08539e-07 0)
(76.202 3.08537e-07 0)
(76.2019 3.08538e-07 0)
(76.2019 3.0854e-07 0)
(76.2019 3.08547e-07 0)
(76.2019 3.08559e-07 0)
(76.2019 3.08576e-07 0)
(76.2018 3.08598e-07 0)
(76.2018 3.08619e-07 0)
(76.2018 3.08653e-07 0)
(76.2017 3.08735e-07 0)
(76.2016 3.08865e-07 0)
(76.2015 3.09039e-07 0)
(76.2014 3.09302e-07 0)
(76.2012 3.09689e-07 0)
(76.2008 3.1026e-07 0)
(76.2004 3.1108e-07 0)
(76.1997 3.1225e-07 0)
(76.1987 3.13887e-07 0)
(76.1973 3.16145e-07 0)
(76.1953 3.19214e-07 0)
(76.1925 3.23314e-07 0)
(76.1887 3.2869e-07 0)
(76.1835 3.35618e-07 0)
(76.1767 3.44375e-07 0)
(76.1676 3.55212e-07 0)
(76.1559 3.68329e-07 0)
(76.141 3.83832e-07 0)
(76.1223 4.01664e-07 0)
(76.0992 4.2157e-07 0)
(76.0713 4.43031e-07 0)
(76.0382 4.65225e-07 0)
(75.9996 4.87002e-07 0)
(75.9554 5.06898e-07 0)
(75.9061 5.23165e-07 0)
(75.8523 5.3389e-07 0)
(75.7949 5.37112e-07 0)
(75.7354 5.31005e-07 0)
(75.6755 5.1408e-07 0)
(75.6174 4.85405e-07 0)
(75.5631 4.4479e-07 0)
(75.515 3.92907e-07 0)
(75.4752 3.31338e-07 0)
(75.4454 2.62613e-07 0)
(75.4271 1.90621e-07 0)
(75.4207 1.33518e-07 0)
(75.425 8.77913e-08 0)
(75.4393 8.91707e-09 0)
(75.4644 -2.03688e-08 0)
(75.4992 -5.43634e-08 0)
(75.5413 -8.17901e-08 0)
(75.5885 -9.31281e-08 0)
(75.6381 -8.93559e-08 0)
(75.6876 -7.24021e-08 0)
(75.735 -4.49422e-08 0)
(75.7785 -1.07298e-08 0)
(75.8168 2.67867e-08 0)
(75.8492 6.67243e-08 0)
(75.8752 1.08984e-07 0)
(75.8953 1.48535e-07 0)
(75.9098 1.83485e-07 0)
(75.9194 2.12384e-07 0)
(75.9251 2.34589e-07 0)
(75.9278 2.50227e-07 0)
(75.9284 2.57421e-07 0)
(75.9278 2.6231e-07 0)
(75.9264 2.65432e-07 0)
(75.9246 2.64094e-07 0)
(75.9227 2.60827e-07 0)
(75.9211 2.56323e-07 0)
(75.92 2.51402e-07 0)
(75.9194 2.46682e-07 0)
(75.9192 2.43586e-07 0)
(75.9195 2.39277e-07 0)
(75.9202 2.35625e-07 0)
(75.9214 2.32991e-07 0)
(75.9228 2.3118e-07 0)
(75.9245 2.301e-07 0)
(75.9263 2.29585e-07 0)
(75.9283 2.29548e-07 0)
(75.9302 2.29905e-07 0)
(75.9322 2.30589e-07 0)
(75.9341 2.31472e-07 0)
(75.9359 2.32506e-07 0)
(75.9376 2.33647e-07 0)
(75.9392 2.34847e-07 0)
(75.9407 2.36065e-07 0)
(75.9421 2.37243e-07 0)
(75.9433 2.38372e-07 0)
(75.9444 2.39428e-07 0)
(75.9454 2.40367e-07 0)
(75.9463 2.41194e-07 0)
(75.9471 2.41921e-07 0)
(75.9478 2.4256e-07 0)
(75.9485 2.43124e-07 0)
(75.9492 2.4363e-07 0)
(75.9498 2.44083e-07 0)
(75.9503 2.44486e-07 0)
(75.9508 2.44829e-07 0)
(75.9513 2.45107e-07 0)
(75.9518 2.45357e-07 0)
(75.9523 2.45598e-07 0)
(75.9528 2.45838e-07 0)
(75.9532 2.46091e-07 0)
(75.9536 2.46357e-07 0)
(75.954 2.46609e-07 0)
(75.9545 2.4684e-07 0)
(75.9548 2.4705e-07 0)
(75.9552 2.47262e-07 0)
(75.9556 2.47483e-07 0)
(75.9559 2.4772e-07 0)
(75.9563 2.47964e-07 0)
(75.9566 2.4821e-07 0)
(75.9569 2.48447e-07 0)
(75.9571 2.48663e-07 0)
(75.9574 2.48863e-07 0)
(75.9576 2.4906e-07 0)
(75.9579 2.49253e-07 0)
(75.9581 2.49438e-07 0)
(75.9583 2.49621e-07 0)
(75.9585 2.49803e-07 0)
(75.9587 2.49974e-07 0)
(75.9588 2.50135e-07 0)
(75.959 2.50284e-07 0)
(75.9591 2.50419e-07 0)
(75.9592 2.5046e-07 0)
(75.9593 2.50756e-07 0)
(75.9594 2.508e-07 0)
(75.9595 2.50924e-07 0)
(75.9596 2.50986e-07 0)
(75.9597 2.51451e-07 0)
(75.9597 2.5095e-07 0)
(75.9598 2.51291e-07 0)
(75.9599 2.51226e-07 0)
(75.9599 2.51562e-07 0)
(75.96 2.51494e-07 0)
(75.96 2.51506e-07 0)
(75.96 2.51715e-07 0)
(75.9601 2.51572e-07 0)
(75.9601 2.51737e-07 0)
(75.9601 2.51781e-07 0)
(75.9601 2.50165e-07 0)
(75.9601 2.60475e-07 0)
(75.9602 2.45436e-07 0)
(75.9602 2.4968e-07 0)
(75.9602 2.593e-07 0)
(75.9602 2.49327e-07 0)
(75.9602 2.63339e-07 0)
(75.9602 3.07301e-07 0)
(75.9602 5.1247e-07 0)
(75.9602 1.54643e-06 0)
(75.9602 6.57482e-06 0)
(75.9601 3.06016e-05 0)
(75.9595 0.000141935 0)
(75.957 0.000654172 0)
(75.9453 0.00301088 0)
(75.8921 0.0138006 0)
(75.6489 0.0630101 0)
(74.8435 0.308973 0)
(67.967 1.15804 0)
(76.2001 0.000118347 0)
(76.2003 0.00010281 0)
(76.2005 9.97021e-05 0)
(76.2007 0.00010366 0)
(76.2008 0.00010573 0)
(76.201 0.000106719 0)
(76.2011 0.000107112 0)
(76.2013 0.000106645 0)
(76.2014 0.000104954 0)
(76.2016 0.000101687 0)
(76.2017 9.65761e-05 0)
(76.2018 8.9539e-05 0)
(76.202 8.07462e-05 0)
(76.2021 7.06223e-05 0)
(76.2021 5.97769e-05 0)
(76.2022 4.88953e-05 0)
(76.2023 3.86274e-05 0)
(76.2023 2.94674e-05 0)
(76.2023 2.17093e-05 0)
(76.2023 1.54713e-05 0)
(76.2023 1.06798e-05 0)
(76.2023 7.16085e-06 0)
(76.2023 4.68472e-06 0)
(76.2023 3.01207e-06 0)
(76.2023 1.92709e-06 0)
(76.2023 1.24531e-06 0)
(76.2022 8.33983e-07 0)
(76.2022 5.93863e-07 0)
(76.2022 4.5819e-07 0)
(76.2022 3.83933e-07 0)
(76.2022 3.44512e-07 0)
(76.2021 3.24191e-07 0)
(76.2021 3.14011e-07 0)
(76.2021 3.0905e-07 0)
(76.2021 3.06697e-07 0)
(76.2021 3.05608e-07 0)
(76.2021 3.0512e-07 0)
(76.202 3.04906e-07 0)
(76.202 3.04814e-07 0)
(76.202 3.04777e-07 0)
(76.202 3.04765e-07 0)
(76.202 3.04761e-07 0)
(76.2019 3.04762e-07 0)
(76.2019 3.04764e-07 0)
(76.2019 3.04769e-07 0)
(76.2019 3.04777e-07 0)
(76.2019 3.04788e-07 0)
(76.2018 3.04804e-07 0)
(76.2018 3.04821e-07 0)
(76.2018 3.04845e-07 0)
(76.2017 3.04903e-07 0)
(76.2016 3.04995e-07 0)
(76.2015 3.0512e-07 0)
(76.2014 3.05308e-07 0)
(76.2012 3.05584e-07 0)
(76.2008 3.05989e-07 0)
(76.2004 3.06574e-07 0)
(76.1997 3.07406e-07 0)
(76.1987 3.08573e-07 0)
(76.1973 3.10186e-07 0)
(76.1953 3.12377e-07 0)
(76.1925 3.15305e-07 0)
(76.1887 3.1915e-07 0)
(76.1835 3.24108e-07 0)
(76.1767 3.30386e-07 0)
(76.1676 3.38165e-07 0)
(76.1559 3.47608e-07 0)
(76.141 3.58797e-07 0)
(76.1223 3.71719e-07 0)
(76.0992 3.86226e-07 0)
(76.0713 4.01983e-07 0)
(76.0382 4.18451e-07 0)
(75.9996 4.34861e-07 0)
(75.9554 4.50219e-07 0)
(75.9061 4.63327e-07 0)
(75.8523 4.72847e-07 0)
(75.7949 4.77397e-07 0)
(75.7354 4.75657e-07 0)
(75.6755 4.66529e-07 0)
(75.6174 4.49276e-07 0)
(75.5631 4.23665e-07 0)
(75.515 3.90072e-07 0)
(75.4752 3.49527e-07 0)
(75.4454 3.03736e-07 0)
(75.4271 2.55282e-07 0)
(75.4207 2.15473e-07 0)
(75.425 1.83328e-07 0)
(75.4393 1.24549e-07 0)
(75.4644 7.75762e-08 0)
(75.4992 3.56891e-08 0)
(75.5413 8.22329e-09 0)
(75.5885 -6.49994e-09 0)
(75.6381 -1.0024e-08 0)
(75.6876 -3.98062e-09 0)
(75.735 9.85638e-09 0)
(75.7785 2.89754e-08 0)
(75.8168 4.90122e-08 0)
(75.8492 7.90847e-08 0)
(75.8752 1.09195e-07 0)
(75.8953 1.3755e-07 0)
(75.9098 1.62772e-07 0)
(75.9194 1.83932e-07 0)
(75.9251 2.00706e-07 0)
(75.9278 2.13205e-07 0)
(75.9284 2.20163e-07 0)
(75.9278 2.25495e-07 0)
(75.9264 2.29846e-07 0)
(75.9246 2.30996e-07 0)
(75.9227 2.30839e-07 0)
(75.9211 2.2977e-07 0)
(75.92 2.28368e-07 0)
(75.9194 2.27021e-07 0)
(75.9192 2.26637e-07 0)
(75.9195 2.25452e-07 0)
(75.9202 2.24455e-07 0)
(75.9214 2.24128e-07 0)
(75.9228 2.24262e-07 0)
(75.9245 2.24788e-07 0)
(75.9263 2.25596e-07 0)
(75.9283 2.26624e-07 0)
(75.9302 2.27813e-07 0)
(75.9322 2.29136e-07 0)
(75.9341 2.3051e-07 0)
(75.9359 2.31914e-07 0)
(75.9376 2.33324e-07 0)
(75.9392 2.34722e-07 0)
(75.9407 2.36093e-07 0)
(75.9421 2.37402e-07 0)
(75.9433 2.3865e-07 0)
(75.9444 2.39822e-07 0)
(75.9454 2.40894e-07 0)
(75.9463 2.41865e-07 0)
(75.9471 2.42749e-07 0)
(75.9478 2.4356e-07 0)
(75.9485 2.4431e-07 0)
(75.9492 2.45004e-07 0)
(75.9498 2.45655e-07 0)
(75.9503 2.46261e-07 0)
(75.9508 2.46815e-07 0)
(75.9513 2.47317e-07 0)
(75.9518 2.47788e-07 0)
(75.9523 2.48241e-07 0)
(75.9528 2.48692e-07 0)
(75.9532 2.49147e-07 0)
(75.9536 2.49607e-07 0)
(75.954 2.50049e-07 0)
(75.9545 2.50462e-07 0)
(75.9548 2.50851e-07 0)
(75.9552 2.51231e-07 0)
(75.9556 2.51612e-07 0)
(75.9559 2.52001e-07 0)
(75.9563 2.52396e-07 0)
(75.9566 2.52789e-07 0)
(75.9569 2.53171e-07 0)
(75.9571 2.53528e-07 0)
(75.9574 2.53865e-07 0)
(75.9576 2.54195e-07 0)
(75.9579 2.54516e-07 0)
(75.9581 2.54827e-07 0)
(75.9583 2.55136e-07 0)
(75.9585 2.55441e-07 0)
(75.9587 2.55735e-07 0)
(75.9588 2.56018e-07 0)
(75.959 2.56287e-07 0)
(75.9591 2.56542e-07 0)
(75.9592 2.5673e-07 0)
(75.9593 2.57086e-07 0)
(75.9594 2.57269e-07 0)
(75.9595 2.575e-07 0)
(75.9596 2.57695e-07 0)
(75.9597 2.58134e-07 0)
(75.9597 2.57951e-07 0)
(75.9598 2.58297e-07 0)
(75.9599 2.58427e-07 0)
(75.9599 2.58703e-07 0)
(75.96 2.58803e-07 0)
(75.96 2.58953e-07 0)
(75.96 2.59185e-07 0)
(75.9601 2.59188e-07 0)
(75.9601 2.59511e-07 0)
(75.9601 2.59442e-07 0)
(75.9601 2.58523e-07 0)
(75.9601 2.65059e-07 0)
(75.9602 2.56418e-07 0)
(75.9602 2.5938e-07 0)
(75.9602 2.65751e-07 0)
(75.9602 2.62886e-07 0)
(75.9602 2.88715e-07 0)
(75.9602 3.98729e-07 0)
(75.9602 9.22664e-07 0)
(75.9602 3.53079e-06 0)
(75.9602 1.62639e-05 0)
(75.9601 7.72442e-05 0)
(75.9596 0.000360515 0)
(75.9574 0.00166051 0)
(75.947 0.00763596 0)
(75.8998 0.0349004 0)
(75.6872 0.157414 0)
(74.9898 0.713732 0)
(69.7622 2.61661 0)
(76.2001 3.57589e-05 0)
(76.2003 2.85947e-05 0)
(76.2005 2.05316e-05 0)
(76.2006 1.7202e-05 0)
(76.2008 1.45841e-05 0)
(76.2009 1.23218e-05 0)
(76.2011 1.05169e-05 0)
(76.2013 9.04015e-06 0)
(76.2014 7.78339e-06 0)
(76.2016 6.68475e-06 0)
(76.2017 5.70054e-06 0)
(76.2018 4.80543e-06 0)
(76.2019 3.98678e-06 0)
(76.202 3.24313e-06 0)
(76.2021 2.5772e-06 0)
(76.2022 1.99441e-06 0)
(76.2022 1.50475e-06 0)
(76.2023 1.10362e-06 0)
(76.2023 7.84409e-07 0)
(76.2023 5.43741e-07 0)
(76.2023 3.66705e-07 0)
(76.2023 2.41272e-07 0)
(76.2023 1.55393e-07 0)
(76.2023 9.88307e-08 0)
(76.2023 6.33237e-08 0)
(76.2023 4.06404e-08 0)
(76.2022 2.72085e-08 0)
(76.2022 1.94132e-08 0)
(76.2022 1.49968e-08 0)
(76.2022 1.25671e-08 0)
(76.2022 1.12668e-08 0)
(76.2021 1.05896e-08 0)
(76.2021 1.02466e-08 0)
(76.2021 1.0079e-08 0)
(76.2021 9.999e-09 0)
(76.2021 9.96117e-09 0)
(76.2021 9.94555e-09 0)
(76.202 9.93825e-09 0)
(76.202 9.93624e-09 0)
(76.202 9.93394e-09 0)
(76.202 9.93331e-09 0)
(76.202 9.93399e-09 0)
(76.2019 9.93453e-09 0)
(76.2019 9.93525e-09 0)
(76.2019 9.93689e-09 0)
(76.2019 9.93923e-09 0)
(76.2019 9.94348e-09 0)
(76.2018 9.94835e-09 0)
(76.2018 9.95378e-09 0)
(76.2018 9.96167e-09 0)
(76.2017 9.98086e-09 0)
(76.2016 1.00113e-08 0)
(76.2015 1.00532e-08 0)
(76.2014 1.0116e-08 0)
(76.2012 1.02083e-08 0)
(76.2008 1.03431e-08 0)
(76.2004 1.05379e-08 0)
(76.1997 1.08159e-08 0)
(76.1987 1.12058e-08 0)
(76.1973 1.17442e-08 0)
(76.1953 1.24756e-08 0)
(76.1925 1.3452e-08 0)
(76.1887 1.47332e-08 0)
(76.1835 1.63859e-08 0)
(76.1767 1.84768e-08 0)
(76.1676 2.10691e-08 0)
(76.1559 2.42126e-08 0)
(76.141 2.79365e-08 0)
(76.1223 3.22344e-08 0)
(76.0992 3.70549e-08 0)
(76.0713 4.22806e-08 0)
(76.0382 4.77318e-08 0)
(75.9996 5.3144e-08 0)
(75.9554 5.81793e-08 0)
(75.9061 6.24267e-08 0)
(75.8523 6.54301e-08 0)
(75.7949 6.6712e-08 0)
(75.7354 6.58173e-08 0)
(75.6755 6.23597e-08 0)
(75.6174 5.60744e-08 0)
(75.5631 4.68579e-08 0)
(75.515 3.48073e-08 0)
(75.4752 2.0233e-08 0)
(75.4454 3.65614e-09 0)
(75.4271 -1.40906e-08 0)
(75.4207 -2.96803e-08 0)
(75.425 -4.26064e-08 0)
(75.4393 -6.53133e-08 0)
(75.4644 -8.56047e-08 0)
(75.4992 -9.67002e-08 0)
(75.5413 -1.02999e-07 0)
(75.5885 -1.04951e-07 0)
(75.6381 -1.02683e-07 0)
(75.6876 -9.63838e-08 0)
(75.735 -8.59547e-08 0)
(75.7785 -7.02665e-08 0)
(75.8168 -4.85595e-08 0)
(75.8492 -3.21317e-08 0)
(75.8752 -2.04008e-08 0)
(75.8953 -9.87958e-09 0)
(75.9098 -6.68942e-10 0)
(75.9194 7.03805e-09 0)
(75.9251 1.31663e-08 0)
(75.9278 1.77277e-08 0)
(75.9284 2.03657e-08 0)
(75.9278 2.2308e-08 0)
(75.9264 2.39437e-08 0)
(75.9246 2.44233e-08 0)
(75.9227 2.44036e-08 0)
(75.9211 2.39882e-08 0)
(75.92 2.33696e-08 0)
(75.9194 2.26654e-08 0)
(75.9192 2.21576e-08 0)
(75.9195 2.13847e-08 0)
(75.9202 2.05509e-08 0)
(75.9214 1.99168e-08 0)
(75.9228 1.93839e-08 0)
(75.9245 1.8935e-08 0)
(75.9263 1.85495e-08 0)
(75.9283 1.82166e-08 0)
(75.9302 1.79254e-08 0)
(75.9322 1.76758e-08 0)
(75.9341 1.74458e-08 0)
(75.9359 1.72376e-08 0)
(75.9376 1.70431e-08 0)
(75.9392 1.68532e-08 0)
(75.9407 1.66579e-08 0)
(75.9421 1.64406e-08 0)
(75.9433 1.62022e-08 0)
(75.9444 1.59416e-08 0)
(75.9454 1.56559e-08 0)
(75.9463 1.53494e-08 0)
(75.9471 1.50262e-08 0)
(75.9478 1.46945e-08 0)
(75.9485 1.43555e-08 0)
(75.9492 1.40101e-08 0)
(75.9498 1.36602e-08 0)
(75.9503 1.33059e-08 0)
(75.9508 1.29422e-08 0)
(75.9513 1.25706e-08 0)
(75.9518 1.21965e-08 0)
(75.9523 1.18271e-08 0)
(75.9528 1.14636e-08 0)
(75.9532 1.11106e-08 0)
(75.9536 1.07668e-08 0)
(75.954 1.04292e-08 0)
(75.9545 1.0097e-08 0)
(75.9548 9.77064e-09 0)
(75.9552 9.45158e-09 0)
(75.9556 9.14135e-09 0)
(75.9559 8.83739e-09 0)
(75.9563 8.53913e-09 0)
(75.9566 8.24436e-09 0)
(75.9569 7.95293e-09 0)
(75.9571 7.66534e-09 0)
(75.9574 7.38195e-09 0)
(75.9576 7.10668e-09 0)
(75.9579 6.83685e-09 0)
(75.9581 6.57135e-09 0)
(75.9583 6.3115e-09 0)
(75.9585 6.05416e-09 0)
(75.9587 5.79955e-09 0)
(75.9588 5.54562e-09 0)
(75.959 5.29523e-09 0)
(75.9591 5.04686e-09 0)
(75.9592 4.7868e-09 0)
(75.9593 4.58513e-09 0)
(75.9594 4.33683e-09 0)
(75.9595 4.10913e-09 0)
(75.9596 3.88036e-09 0)
(75.9597 3.72445e-09 0)
(75.9597 3.39798e-09 0)
(75.9598 3.23416e-09 0)
(75.9599 3.04334e-09 0)
(75.9599 2.8194e-09 0)
(75.96 2.61677e-09 0)
(75.96 2.43635e-09 0)
(75.96 2.2516e-09 0)
(75.9601 2.00428e-09 0)
(75.9601 1.96069e-09 0)
(75.9601 1.45781e-09 0)
(75.9601 6.50379e-10 0)
(75.9601 2.1644e-09 0)
(75.9602 1.2003e-09 0)
(75.9602 2.2821e-09 0)
(75.9602 2.96253e-09 0)
(75.9602 8.67166e-09 0)
(75.9602 4.71063e-08 0)
(75.9602 2.27427e-07 0)
(75.9602 1.10478e-06 0)
(75.9602 5.41418e-06 0)
(75.9602 2.64072e-05 0)
(75.9602 0.000126758 0)
(75.96 0.000596546 0)
(75.9591 0.00276385 0)
(75.955 0.0127522 0)
(75.9357 0.0585049 0)
(75.8444 0.264318 0)
(75.5418 1.16432 0)
(72.4626 4.20338 0)
(76.2001 -3.57589e-05 0)
(76.2003 -2.85947e-05 0)
(76.2005 -2.05316e-05 0)
(76.2006 -1.7202e-05 0)
(76.2008 -1.45841e-05 0)
(76.2009 -1.23218e-05 0)
(76.2011 -1.05169e-05 0)
(76.2013 -9.04015e-06 0)
(76.2014 -7.78339e-06 0)
(76.2016 -6.68475e-06 0)
(76.2017 -5.70054e-06 0)
(76.2018 -4.80543e-06 0)
(76.2019 -3.98678e-06 0)
(76.202 -3.24313e-06 0)
(76.2021 -2.5772e-06 0)
(76.2022 -1.99443e-06 0)
(76.2022 -1.50474e-06 0)
(76.2023 -1.10362e-06 0)
(76.2023 -7.84409e-07 0)
(76.2023 -5.43741e-07 0)
(76.2023 -3.66706e-07 0)
(76.2023 -2.41273e-07 0)
(76.2023 -1.55394e-07 0)
(76.2023 -9.88303e-08 0)
(76.2023 -6.33228e-08 0)
(76.2023 -4.0642e-08 0)
(76.2022 -2.72077e-08 0)
(76.2022 -1.94125e-08 0)
(76.2022 -1.49972e-08 0)
(76.2022 -1.2567e-08 0)
(76.2022 -1.1267e-08 0)
(76.2021 -1.05904e-08 0)
(76.2021 -1.0248e-08 0)
(76.2021 -1.00799e-08 0)
(76.2021 -9.99898e-09 0)
(76.2021 -9.96286e-09 0)
(76.2021 -9.9455e-09 0)
(76.202 -9.93774e-09 0)
(76.202 -9.93495e-09 0)
(76.202 -9.93376e-09 0)
(76.202 -9.9328e-09 0)
(76.202 -9.93248e-09 0)
(76.2019 -9.93374e-09 0)
(76.2019 -9.9355e-09 0)
(76.2019 -9.93734e-09 0)
(76.2019 -9.94029e-09 0)
(76.2019 -9.94465e-09 0)
(76.2018 -9.94954e-09 0)
(76.2018 -9.95526e-09 0)
(76.2018 -9.96192e-09 0)
(76.2017 -9.98128e-09 0)
(76.2016 -1.00127e-08 0)
(76.2015 -1.00519e-08 0)
(76.2014 -1.01146e-08 0)
(76.2012 -1.02068e-08 0)
(76.2008 -1.03438e-08 0)
(76.2004 -1.05386e-08 0)
(76.1997 -1.08167e-08 0)
(76.1987 -1.12078e-08 0)
(76.1973 -1.17449e-08 0)
(76.1953 -1.24753e-08 0)
(76.1925 -1.34506e-08 0)
(76.1887 -1.47327e-08 0)
(76.1835 -1.63865e-08 0)
(76.1767 -1.8477e-08 0)
(76.1676 -2.10692e-08 0)
(76.1559 -2.42136e-08 0)
(76.141 -2.79369e-08 0)
(76.1223 -3.22354e-08 0)
(76.0992 -3.70546e-08 0)
(76.0713 -4.2282e-08 0)
(76.0382 -4.77314e-08 0)
(75.9996 -5.31443e-08 0)
(75.9554 -5.81785e-08 0)
(75.9061 -6.2426e-08 0)
(75.8523 -6.54301e-08 0)
(75.7949 -6.67112e-08 0)
(75.7354 -6.58164e-08 0)
(75.6755 -6.23605e-08 0)
(75.6174 -5.60743e-08 0)
(75.5631 -4.68577e-08 0)
(75.515 -3.4807e-08 0)
(75.4752 -2.02343e-08 0)
(75.4454 -3.65669e-09 0)
(75.4271 1.40903e-08 0)
(75.4207 2.96804e-08 0)
(75.425 4.26043e-08 0)
(75.4393 6.53127e-08 0)
(75.4644 8.56052e-08 0)
(75.4992 9.67006e-08 0)
(75.5413 1.02999e-07 0)
(75.5885 1.04951e-07 0)
(75.6381 1.02682e-07 0)
(75.6876 9.63841e-08 0)
(75.735 8.59547e-08 0)
(75.7785 7.02659e-08 0)
(75.8168 4.85588e-08 0)
(75.8492 3.2131e-08 0)
(75.8752 2.03988e-08 0)
(75.8953 9.87752e-09 0)
(75.9098 6.67632e-10 0)
(75.9194 -7.03859e-09 0)
(75.9251 -1.3167e-08 0)
(75.9278 -1.77284e-08 0)
(75.9284 -2.03655e-08 0)
(75.9278 -2.23075e-08 0)
(75.9264 -2.39437e-08 0)
(75.9246 -2.44245e-08 0)
(75.9227 -2.44034e-08 0)
(75.9211 -2.39882e-08 0)
(75.92 -2.33703e-08 0)
(75.9194 -2.26654e-08 0)
(75.9192 -2.21561e-08 0)
(75.9195 -2.13837e-08 0)
(75.9202 -2.05503e-08 0)
(75.9214 -1.99177e-08 0)
(75.9228 -1.93845e-08 0)
(75.9245 -1.89333e-08 0)
(75.9263 -1.85484e-08 0)
(75.9283 -1.8215e-08 0)
(75.9302 -1.79236e-08 0)
(75.9322 -1.76749e-08 0)
(75.9341 -1.74474e-08 0)
(75.9359 -1.72377e-08 0)
(75.9376 -1.70429e-08 0)
(75.9392 -1.68519e-08 0)
(75.9407 -1.66568e-08 0)
(75.9421 -1.64405e-08 0)
(75.9433 -1.62029e-08 0)
(75.9444 -1.59419e-08 0)
(75.9454 -1.56556e-08 0)
(75.9463 -1.53493e-08 0)
(75.9471 -1.50265e-08 0)
(75.9478 -1.46941e-08 0)
(75.9485 -1.43567e-08 0)
(75.9492 -1.40109e-08 0)
(75.9498 -1.36622e-08 0)
(75.9503 -1.33076e-08 0)
(75.9508 -1.29435e-08 0)
(75.9513 -1.25707e-08 0)
(75.9518 -1.21972e-08 0)
(75.9523 -1.1827e-08 0)
(75.9528 -1.14645e-08 0)
(75.9532 -1.11108e-08 0)
(75.9536 -1.0766e-08 0)
(75.954 -1.04295e-08 0)
(75.9545 -1.00982e-08 0)
(75.9548 -9.77081e-09 0)
(75.9552 -9.45095e-09 0)
(75.9556 -9.14099e-09 0)
(75.9559 -8.83747e-09 0)
(75.9563 -8.53899e-09 0)
(75.9566 -8.24408e-09 0)
(75.9569 -7.95244e-09 0)
(75.9571 -7.66337e-09 0)
(75.9574 -7.38103e-09 0)
(75.9576 -7.1063e-09 0)
(75.9579 -6.83711e-09 0)
(75.9581 -6.57329e-09 0)
(75.9583 -6.31131e-09 0)
(75.9585 -6.05402e-09 0)
(75.9587 -5.79841e-09 0)
(75.9588 -5.54549e-09 0)
(75.959 -5.29495e-09 0)
(75.9591 -5.04644e-09 0)
(75.9592 -4.78761e-09 0)
(75.9593 -4.58496e-09 0)
(75.9594 -4.33726e-09 0)
(75.9595 -4.11011e-09 0)
(75.9596 -3.88063e-09 0)
(75.9597 -3.72427e-09 0)
(75.9597 -3.39843e-09 0)
(75.9598 -3.22883e-09 0)
(75.9599 -3.0124e-09 0)
(75.9599 -2.8464e-09 0)
(75.96 -2.62667e-09 0)
(75.96 -2.42637e-09 0)
(75.96 -2.25963e-09 0)
(75.9601 -2.02237e-09 0)
(75.9601 -1.83814e-09 0)
(75.9601 -1.82907e-09 0)
(75.9601 -2.13872e-09 0)
(75.9601 -3.95354e-09 0)
(75.9602 1.95567e-09 0)
(75.9602 1.91114e-09 0)
(75.9602 -1.47096e-09 0)
(75.9602 1.02627e-08 0)
(75.9602 4.82267e-08 0)
(75.9602 2.31962e-07 0)
(75.9602 1.11755e-06 0)
(75.9602 5.40643e-06 0)
(75.9602 2.62374e-05 0)
(75.9603 0.00012612 0)
(75.9604 0.00059714 0)
(75.9613 0.0027839 0)
(75.9651 0.0129519 0)
(75.9815 0.060426 0)
(76.0484 0.28156 0)
(76.2942 1.31603 0)
(77.1544 4.72976 0)
(76.2001 -0.000118347 0)
(76.2003 -0.00010281 0)
(76.2005 -9.97021e-05 0)
(76.2007 -0.000103659 0)
(76.2008 -0.00010573 0)
(76.201 -0.000106719 0)
(76.2011 -0.000107112 0)
(76.2013 -0.000106645 0)
(76.2014 -0.000104954 0)
(76.2016 -0.000101687 0)
(76.2017 -9.65761e-05 0)
(76.2018 -8.9539e-05 0)
(76.202 -8.07462e-05 0)
(76.2021 -7.06223e-05 0)
(76.2021 -5.97769e-05 0)
(76.2022 -4.88953e-05 0)
(76.2023 -3.86274e-05 0)
(76.2023 -2.94674e-05 0)
(76.2023 -2.17093e-05 0)