/*--------------------------------*- C++ -*----------------------------------*\
| =========                 |                                                 |
| \\      /  F ield         | OpenFOAM: The Open Source CFD Toolbox           |
|  \\    /   O peration     | Version:  3.0.x                                 |
|   \\  /    A nd           | Web:      www.OpenFOAM.org                      |
|    \\/     M anipulation  |                                                 |
\*---------------------------------------------------------------------------*/
FoamFile
{
    version     2.0;
    format      ascii;
    class       volScalarField;
    location    "0.38";
    object      rho;
}
// * * * * * * * * * * * * * * * * * * * * * * * * * * * * * * * * * * * * * //

dimensions      [1 -3 0 0 0 0 0];

internalField   nonuniform List<scalar> 
6900
(
50.9145
50.9145
50.9145
50.9145
50.9145
50.9146
50.9146
50.9146
50.9147
50.9147
50.9148
50.9148
50.9148
50.9149
50.9149
50.9149
50.915
50.915
50.915
50.915
50.915
50.9151
50.9153
50.9155
50.9156
50.9157
50.9158
50.9158
50.9158
50.9157
50.9157
50.9157
50.9157
50.9158
50.9159
50.9161
50.9162
50.9164
50.9167
50.9169
50.9171
50.9172
50.9174
50.9174
50.9175
50.9176
50.9177
50.9179
50.9181
50.9183
50.9186
50.9188
50.919
50.9192
50.9194
50.9195
50.9196
50.9196
50.9197
50.9197
50.9197
50.9196
50.9196
50.9196
50.9195
50.9195
50.9194
50.9193
50.9192
50.9192
50.9191
50.919
50.9189
50.9189
50.9189
50.9188
50.9188
50.9188
50.9189
50.9189
50.919
50.919
50.9191
50.9192
50.9193
50.9195
50.9196
50.9197
50.9199
50.92
50.9201
50.9202
50.9203
50.9204
50.9204
50.9205
50.9205
50.9205
50.9205
50.9205
50.9204
50.9204
50.9203
50.9202
50.9201
50.92
50.92
50.9199
50.9198
50.9197
50.9197
50.9197
50.9197
50.9197
50.9197
50.9198
50.9198
50.9199
50.9201
50.9202
50.9204
50.9206
50.9207
50.9209
50.9211
50.9213
50.9214
50.9216
50.9217
50.9218
50.9219
50.9219
50.922
50.922
50.9219
50.9219
50.9218
50.9217
50.9215
50.9214
50.9213
50.9211
50.921
50.9209
50.9207
50.9206
50.9205
50.9205
50.9204
50.9204
50.9205
50.9205
50.9206
50.9208
50.9209
50.9211
50.9214
50.9216
50.9219
50.9221
50.9224
50.9226
50.9228
50.923
50.9232
50.9233
50.9234
50.9234
50.9234
50.9233
50.9232
50.9231
50.923
50.9228
50.9226
50.9224
50.9222
50.922
50.9218
50.9216
50.9214
50.9212
50.9211
50.921
50.9209
50.9209
50.9209
50.921
50.9211
50.9213
50.9215
50.9218
50.9222
50.9225
50.9229
50.9233
50.9237
50.924
50.9248
50.9221
50.9147
50.9147
50.9147
50.9147
50.9147
50.9147
50.9148
50.9148
50.9148
50.9149
50.9149
50.915
50.915
50.915
50.9151
50.9151
50.9151
50.9152
50.9152
50.9152
50.9152
50.9153
50.9155
50.9156
50.9158
50.9159
50.9159
50.9159
50.9159
50.9159
50.9159
50.9158
50.9159
50.916
50.9161
50.9162
50.9164
50.9166
50.9168
50.917
50.9172
50.9174
50.9175
50.9176
50.9176
50.9177
50.9178
50.918
50.9182
50.9185
50.9187
50.9189
50.9191
50.9193
50.9195
50.9196
50.9197
50.9197
50.9198
50.9198
50.9198
50.9198
50.9197
50.9197
50.9196
50.9196
50.9195
50.9194
50.9193
50.9193
50.9192
50.9191
50.9191
50.919
50.919
50.919
50.9189
50.919
50.919
50.919
50.9191
50.9192
50.9192
50.9194
50.9195
50.9196
50.9197
50.9198
50.92
50.9201
50.9202
50.9203
50.9204
50.9205
50.9206
50.9206
50.9206
50.9206
50.9206
50.9206
50.9205
50.9205
50.9204
50.9203
50.9202
50.9202
50.9201
50.92
50.9199
50.9199
50.9198
50.9198
50.9198
50.9198
50.9198
50.9199
50.92
50.9201
50.9202
50.9203
50.9205
50.9207
50.9209
50.921
50.9212
50.9214
50.9216
50.9217
50.9218
50.9219
50.922
50.9221
50.9221
50.9221
50.922
50.922
50.9219
50.9218
50.9217
50.9215
50.9214
50.9212
50.9211
50.921
50.9208
50.9207
50.9207
50.9206
50.9206
50.9206
50.9206
50.9207
50.9208
50.9209
50.9211
50.9213
50.9215
50.9217
50.922
50.9222
50.9225
50.9227
50.9229
50.9231
50.9233
50.9234
50.9235
50.9235
50.9235
50.9234
50.9234
50.9232
50.9231
50.9229
50.9227
50.9226
50.9223
50.9221
50.9219
50.9217
50.9215
50.9214
50.9212
50.9211
50.921
50.921
50.921
50.9211
50.9212
50.9214
50.9216
50.9219
50.9223
50.9226
50.923
50.9234
50.9238
50.9241
50.9249
50.9225
50.9147
50.9147
50.9147
50.9147
50.9147
50.9147
50.9148
50.9148
50.9148
50.9149
50.9149
50.915
50.915
50.915
50.9151
50.9151
50.9151
50.9151
50.9152
50.9152
50.9152
50.9153
50.9155
50.9156
50.9158
50.9159
50.9159
50.9159
50.9159
50.9159
50.9158
50.9158
50.9159
50.916
50.9161
50.9162
50.9164
50.9166
50.9168
50.917
50.9172
50.9174
50.9175
50.9176
50.9176
50.9177
50.9178
50.918
50.9182
50.9185
50.9187
50.9189
50.9191
50.9193
50.9195
50.9196
50.9197
50.9197
50.9198
50.9198
50.9198
50.9198
50.9197
50.9197
50.9196
50.9196
50.9195
50.9194
50.9193
50.9193
50.9192
50.9191
50.9191
50.919
50.919
50.919
50.9189
50.919
50.919
50.919
50.9191
50.9192
50.9192
50.9194
50.9195
50.9196
50.9197
50.9198
50.92
50.9201
50.9202
50.9203
50.9204
50.9205
50.9206
50.9206
50.9206
50.9206
50.9206
50.9206
50.9205
50.9205
50.9204
50.9203
50.9202
50.9202
50.9201
50.92
50.9199
50.9199
50.9198
50.9198
50.9198
50.9198
50.9198
50.9199
50.92
50.9201
50.9202
50.9203
50.9205
50.9207
50.9209
50.921
50.9212
50.9214
50.9216
50.9217
50.9218
50.9219
50.922
50.9221
50.9221
50.9221
50.922
50.922
50.9219
50.9218
50.9217
50.9215
50.9214
50.9212
50.9211
50.921
50.9208
50.9207
50.9207
50.9206
50.9206
50.9206
50.9206
50.9207
50.9208
50.9209
50.9211
50.9213
50.9215
50.9217
50.922
50.9222
50.9225
50.9227
50.9229
50.9231
50.9233
50.9234
50.9235
50.9235
50.9235
50.9234
50.9234
50.9232
50.9231
50.9229
50.9227
50.9226
50.9223
50.9221
50.9219
50.9217
50.9215
50.9214
50.9212
50.9211
50.921
50.921
50.921
50.9211
50.9212
50.9214
50.9216
50.9219
50.9223
50.9226
50.923
50.9234
50.9238
50.9241
50.9245
50.9247
50.9147
50.9147
50.9147
50.9147
50.9147
50.9147
50.9148
50.9148
50.9148
50.9149
50.9149
50.915
50.915
50.915
50.9151
50.9151
50.9151
50.9152
50.9152
50.9152
50.9152
50.9153
50.9155
50.9156
50.9158
50.9159
50.9159
50.9159
50.9159
50.9159
50.9159
50.9158
50.9159
50.916
50.9161
50.9162
50.9164
50.9166
50.9168
50.917
50.9172
50.9174
50.9175
50.9176
50.9176
50.9177
50.9178
50.918
50.9182
50.9185
50.9187
50.9189
50.9191
50.9193
50.9195
50.9196
50.9197
50.9197
50.9198
50.9198
50.9198
50.9198
50.9197
50.9197
50.9196
50.9196
50.9195
50.9194
50.9193
50.9193
50.9192
50.9191
50.9191
50.919
50.919
50.919
50.9189
50.919
50.919
50.919
50.9191
50.9192
50.9192
50.9194
50.9195
50.9196
50.9197
50.9198
50.92
50.9201
50.9202
50.9203
50.9204
50.9205
50.9206
50.9206
50.9206
50.9206
50.9206
50.9206
50.9205
50.9205
50.9204
50.9203
50.9202
50.9202
50.9201
50.92
50.9199
50.9199
50.9198
50.9198
50.9198
50.9198
50.9198
50.9199
50.92
50.9201
50.9202
50.9203
50.9205
50.9207
50.9209
50.921
50.9212
50.9214
50.9216
50.9217
50.9218
50.9219
50.922
50.9221
50.9221
50.9221
50.922
50.922
50.9219
50.9218
50.9217
50.9215
50.9214
50.9212
50.9211
50.921
50.9208
50.9207
50.9207
50.9206
50.9206
50.9206
50.9206
50.9207
50.9208
50.9209
50.9211
50.9213
50.9215
50.9217
50.922
50.9222
50.9225
50.9227
50.9229
50.9231
50.9233
50.9234
50.9235
50.9235
50.9235
50.9234
50.9234
50.9232
50.9231
50.9229
50.9227
50.9226
50.9223
50.9221
50.9219
50.9217
50.9215
50.9214
50.9212
50.9211
50.921
50.921
50.921
50.9211
50.9212
50.9214
50.9216
50.9219
50.9223
50.9226
50.923
50.9234
50.9238
50.9242
50.9236
50.9303
50.9145
50.9145
50.9145
50.9145
50.9145
50.9146
50.9146
50.9146
50.9147
50.9147
50.9148
50.9148
50.9148
50.9149
50.9149
50.9149
50.915
50.915
50.915
50.915
50.915
50.9151
50.9153
50.9155
50.9156
50.9157
50.9158
50.9158
50.9158
50.9157
50.9157
50.9157
50.9157
50.9158
50.9159
50.9161
50.9162
50.9164
50.9167
50.9169
50.9171
50.9172
50.9174
50.9174
50.9175
50.9176
50.9177
50.9179
50.9181
50.9183
50.9186
50.9188
50.919
50.9192
50.9194
50.9195
50.9196
50.9196
50.9197
50.9197
50.9197
50.9196
50.9196
50.9196
50.9195
50.9195
50.9194
50.9193
50.9192
50.9192
50.9191
50.919
50.9189
50.9189
50.9189
50.9188
50.9188
50.9188
50.9189
50.9189
50.919
50.919
50.9191
50.9192
50.9193
50.9195
50.9196
50.9197
50.9199
50.92
50.9201
50.9202
50.9203
50.9204
50.9204
50.9205
50.9205
50.9205
50.9205
50.9205
50.9204
50.9204
50.9203
50.9202
50.9201
50.92
50.92
50.9199
50.9198
50.9197
50.9197
50.9197
50.9197
50.9197
50.9197
50.9198
50.9198
50.9199
50.9201
50.9202
50.9204
50.9206
50.9207
50.9209
50.9211
50.9213
50.9214
50.9216
50.9217
50.9218
50.9219
50.9219
50.922
50.922
50.9219
50.9219
50.9218
50.9217
50.9215
50.9214
50.9213
50.9211
50.921
50.9209
50.9207
50.9206
50.9205
50.9205
50.9204
50.9204
50.9205
50.9205
50.9206
50.9208
50.9209
50.9211
50.9214
50.9216
50.9219
50.9221
50.9224
50.9226
50.9228
50.923
50.9232
50.9233
50.9234
50.9234
50.9234
50.9233
50.9232
50.9231
50.923
50.9228
50.9226
50.9224
50.9222
50.922
50.9218
50.9216
50.9214
50.9212
50.9211
50.921
50.9209
50.9209
50.9209
50.921
50.9211
50.9213
50.9215
50.9218
50.9222
50.9225
50.9229
50.9233
50.9237
50.9242
50.923
50.9361
50.9411
50.9482
50.949
50.947
50.9453
50.9436
50.941
50.9374
50.9337
50.9313
50.9331
50.9391
50.9406
50.933
50.9182
50.9023
50.8916
50.8825
50.874
50.8765
50.9375
50.9411
50.9409
50.9393
50.9375
50.9359
50.9333
50.9297
50.9261
50.9239
50.9262
50.9328
50.9328
50.923
50.9058
50.891
50.8812
50.8729
50.8658
50.8673
50.9257
50.9256
50.9245
50.9223
50.9195
50.9159
50.9116
50.9067
50.9006
50.8934
50.885
50.8755
50.8663
50.8579
50.8501
50.8413
50.8308
50.8193
50.8071
50.7931
50.9016
50.8985
50.8994
50.9011
50.9002
50.8964
50.8908
50.8835
50.877
50.8695
50.8626
50.855
50.848
50.8413
50.8346
50.8288
50.8237
50.8197
50.8164
50.8141
50.8916
50.879
50.8743
50.8738
50.8717
50.8666
50.8598
50.8513
50.8435
50.8343
50.826
50.8171
50.8088
50.8002
50.7927
50.7853
50.7794
50.7741
50.7704
50.7685
50.8538
50.8167
50.8029
50.8032
50.8034
50.8014
50.7994
50.7991
50.7995
50.7995
50.7994
50.7994
50.7996
50.7999
50.8001
50.8002
50.8004
50.8006
50.8008
50.801
50.8011
50.8013
50.8014
50.8015
50.8016
50.8016
50.8017
50.8017
50.8018
50.8018
50.8019
50.8019
50.8019
50.802
50.802
50.802
50.802
50.8021
50.8021
50.8021
50.8021
50.8021
50.8021
50.8021
50.8021
50.8021
50.8021
50.802
50.802
50.802
50.8019
50.8019
50.802
50.802
50.8021
50.8022
50.8024
50.8026
50.803
50.8031
50.8031
50.8031
50.8032
50.8034
50.8038
50.8041
50.8044
50.8048
50.8052
50.8055
50.8059
50.8063
50.8067
50.8071
50.8076
50.8082
50.8088
50.8095
50.8101
50.8105
50.8109
50.8113
50.8119
50.8126
50.8131
50.8131
50.8109
50.8056
50.8022
50.8014
50.8023
50.8055
50.8131
50.8194
50.8233
50.8254
50.8264
50.827
50.8274
50.8275
50.8277
50.828
50.8285
50.829
50.8296
50.8303
50.831
50.8318
50.8326
50.8335
50.8345
50.8355
50.8365
50.8376
50.8387
50.8399
50.8411
50.8424
50.8437
50.845
50.8463
50.8477
50.8491
50.8506
50.852
50.8535
50.855
50.8564
50.8579
50.8595
50.861
50.8625
50.864
50.8656
50.8671
50.8687
50.8703
50.8718
50.8734
50.875
50.8766
50.8783
50.8799
50.8816
50.8833
50.885
50.8867
50.8885
50.8903
50.8922
50.894
50.896
50.8979
50.9
50.902
50.9041
50.9063
50.9085
50.9108
50.9132
50.9156
50.9181
50.9206
50.9232
50.9258
50.9285
50.9312
50.934
50.9368
50.9396
50.9425
50.9454
50.9483
50.9512
50.9541
50.9571
50.96
50.963
50.966
50.969
50.972
50.9751
50.9781
50.9812
50.9843
50.9874
50.9905
50.9937
50.9968
51
51.0032
51.0064
51.0096
51.013
51.0161
51.0196
51.0226
51.0262
51.0281
51.0398
50.8518
50.8156
50.8026
50.8024
50.8024
50.8002
50.7983
50.7981
50.7983
50.7983
50.7983
50.7983
50.7986
50.7988
50.799
50.7991
50.7993
50.7995
50.7997
50.7999
50.8
50.8002
50.8003
50.8004
50.8005
50.8005
50.8006
50.8006
50.8007
50.8008
50.8008
50.8009
50.8009
50.801
50.801
50.8011
50.8011
50.8011
50.8011
50.8011
50.8011
50.8011
50.8011
50.8011
50.8011
50.8011
50.801
50.801
50.8009
50.8009
50.8008
50.8008
50.8008
50.8009
50.8009
50.8009
50.801
50.8011
50.8014
50.8016
50.8016
50.8017
50.8019
50.8023
50.8026
50.8029
50.8033
50.8036
50.8039
50.8041
50.8044
50.8047
50.8051
50.8056
50.8061
50.8067
50.8071
50.8074
50.8077
50.8081
50.8087
50.8094
50.81
50.8105
50.8102
50.8073
50.8034
50.8013
50.8012
50.8021
50.8051
50.8118
50.8177
50.8216
50.8239
50.8252
50.8259
50.8265
50.8268
50.8271
50.8275
50.8279
50.8284
50.829
50.8296
50.8303
50.8311
50.8319
50.8327
50.8336
50.8346
50.8356
50.8366
50.8377
50.8388
50.84
50.8412
50.8425
50.8438
50.8451
50.8464
50.8478
50.8492
50.8507
50.8521
50.8536
50.8551
50.8566
50.8581
50.8596
50.8611
50.8626
50.8641
50.8657
50.8672
50.8688
50.8704
50.8719
50.8735
50.8751
50.8768
50.8784
50.88
50.8817
50.8834
50.8851
50.8869
50.8886
50.8904
50.8923
50.8942
50.8961
50.898
50.9001
50.9021
50.9043
50.9064
50.9087
50.9109
50.9133
50.9157
50.9182
50.9207
50.9233
50.9259
50.9286
50.9313
50.9341
50.9369
50.9397
50.9426
50.9455
50.9484
50.9513
50.9542
50.9572
50.9602
50.9631
50.9661
50.9691
50.9721
50.9752
50.9782
50.9813
50.9844
50.9875
50.9906
50.9938
50.9969
51.0001
51.0033
51.0066
51.0097
51.0131
51.0162
51.0197
51.0227
51.0263
51.0286
51.0357
50.7569
50.7709
50.7809
50.7824
50.7811
50.7802
50.7803
50.7806
50.7808
50.781
50.7812
50.7814
50.7817
50.7819
50.7821
50.7823
50.7825
50.7827
50.7828
50.783
50.7832
50.7835
50.7837
50.7839
50.7842
50.7844
50.7846
50.7847
50.7849
50.785
50.7851
50.7852
50.7852
50.7852
50.7852
50.7852
50.7852
50.7851
50.7851
50.785
50.785
50.785
50.785
50.785
50.785
50.785
50.785
50.7849
50.7848
50.7847
50.7847
50.7846
50.7845
50.7844
50.7842
50.7841
50.7839
50.7838
50.7837
50.7837
50.7838
50.7841
50.7844
50.7849
50.7862
50.7893
50.7929
50.7962
50.799
50.8013
50.8032
50.8047
50.8058
50.8067
50.8074
50.8082
50.8089
50.8094
50.81
50.8106
50.8113
50.812
50.8128
50.8136
50.8145
50.8156
50.8166
50.8176
50.8187
50.8196
50.8206
50.8214
50.8221
50.8227
50.8233
50.8239
50.8244
50.825
50.8256
50.8261
50.8267
50.8274
50.828
50.8287
50.8294
50.8302
50.831
50.8318
50.8327
50.8336
50.8345
50.8355
50.8366
50.8377
50.8388
50.84
50.8412
50.8425
50.8438
50.8451
50.8464
50.8478
50.8492
50.8507
50.8521
50.8536
50.8551
50.8566
50.8581
50.8596
50.8611
50.8626
50.8641
50.8657
50.8672
50.8688
50.8704
50.8719
50.8735
50.8751
50.8768
50.8784
50.88
50.8817
50.8834
50.8851
50.8869
50.8886
50.8904
50.8923
50.8942
50.8961
50.898
50.9001
50.9021
50.9043
50.9064
50.9087
50.9109
50.9133
50.9157
50.9182
50.9207
50.9233
50.9259
50.9286
50.9313
50.9341
50.9369
50.9397
50.9426
50.9455
50.9484
50.9513
50.9542
50.9572
50.9602
50.9631
50.9661
50.9691
50.9721
50.9752
50.9782
50.9813
50.9844
50.9875
50.9906
50.9938
50.9969
51.0001
51.0033
51.0065
51.0098
51.013
51.0163
51.0195
51.0229
51.0263
51.0296
51.0333
50.8064
50.8028
50.8013
50.8001
50.7989
50.7982
50.7983
50.7985
50.7987
50.7987
50.7988
50.7989
50.7991
50.7993
50.7994
50.7996
50.7998
50.8
50.8002
50.8004
50.8006
50.8007
50.8009
50.801
50.8011
50.8012
50.8013
50.8013
50.8013
50.8013
50.8014
50.8014
50.8014
50.8014
50.8014
50.8014
50.8014
50.8014
50.8014
50.8014
50.8014
50.8014
50.8014
50.8014
50.8014
50.8014
50.8014
50.8015
50.8015
50.8015
50.8016
50.8016
50.8017
50.8018
50.8018
50.8019
50.802
50.8021
50.8021
50.8022
50.8024
50.8026
50.8029
50.8031
50.8034
50.8038
50.8041
50.8044
50.8048
50.8052
50.8056
50.8058
50.8061
50.8066
50.807
50.8073
50.8072
50.8071
50.8073
50.8078
50.808
50.8074
50.806
50.8047
50.8042
50.8046
50.8054
50.8069
50.8105
50.8154
50.8191
50.8217
50.8233
50.8242
50.8249
50.8254
50.8258
50.826
50.8264
50.8268
50.8272
50.8277
50.8283
50.8289
50.8296
50.8303
50.831
50.8318
50.8327
50.8336
50.8346
50.8356
50.8366
50.8377
50.8388
50.84
50.8412
50.8425
50.8438
50.8451
50.8464
50.8478
50.8492
50.8507
50.8521
50.8536
50.8551
50.8566
50.8581
50.8596
50.8611
50.8626
50.8641
50.8657
50.8672
50.8688
50.8704
50.8719
50.8735
50.8751
50.8768
50.8784
50.88
50.8817
50.8834
50.8851
50.8869
50.8886
50.8904
50.8923
50.8942
50.8961
50.898
50.9001
50.9021
50.9043
50.9064
50.9087
50.9109
50.9133
50.9157
50.9182
50.9207
50.9233
50.9259
50.9286
50.9313
50.9341
50.9369
50.9397
50.9426
50.9455
50.9484
50.9513
50.9542
50.9572
50.9602
50.9631
50.9661
50.9691
50.9721
50.9752
50.9782
50.9813
50.9844
50.9875
50.9906
50.9938
50.9969
51.0001
51.0033
51.0065
51.0098
51.0129
51.0163
51.0195
51.023
51.0262
51.0302
51.0324
50.7904
50.7932
50.7924
50.7916
50.7904
50.7898
50.7897
50.79
50.7901
50.7902
50.7903
50.7904
50.7906
50.7908
50.791
50.7912
50.7914
50.7917
50.7919
50.7921
50.7923
50.7925
50.7926
50.7927
50.7928
50.7929
50.793
50.793
50.7931
50.7931
50.7931
50.7932
50.7932
50.7932
50.7933
50.7933
50.7933
50.7934
50.7934
50.7935
50.7935
50.7936
50.7936
50.7937
50.7937
50.7938
50.7938
50.7938
50.7939
50.7939
50.7939
50.794
50.794
50.794
50.794
50.7941
50.7942
50.7943
50.7944
50.7945
50.7947
50.795
50.7953
50.7956
50.7959
50.7963
50.7966
50.797
50.7974
50.7978
50.7982
50.7986
50.7989
50.799
50.7991
50.7995
50.8001
50.8008
50.8013
50.801
50.7975
50.7928
50.7905
50.7904
50.7915
50.7948
50.8017
50.8077
50.8123
50.8156
50.818
50.8198
50.8211
50.8221
50.823
50.8237
50.8243
50.8249
50.8255
50.8261
50.8267
50.8273
50.8279
50.8286
50.8293
50.8301
50.8309
50.8317
50.8326
50.8335
50.8344
50.8354
50.8365
50.8376
50.8387
50.8399
50.8411
50.8424
50.8437
50.845
50.8463
50.8477
50.8491
50.8506
50.852
50.8535
50.855
50.8564
50.8579
50.8595
50.861
50.8625
50.864
50.8656
50.8671
50.8687
50.8703
50.8718
50.8734
50.875
50.8766
50.8783
50.8799
50.8816
50.8833
50.885
50.8867
50.8885
50.8903
50.8922
50.894
50.896
50.8979
50.9
50.902
50.9041
50.9063
50.9085
50.9108
50.9132
50.9156
50.9181
50.9206
50.9232
50.9258
50.9285
50.9312
50.934
50.9368
50.9396
50.9425
50.9453
50.9483
50.9512
50.9541
50.9571
50.9601
50.963
50.966
50.969
50.972
50.9751
50.9781
50.9812
50.9843
50.9874
50.9905
50.9936
50.9968
51
51.0032
51.0064
51.0097
51.0128
51.0162
51.0194
51.0229
51.0261
51.0301
51.0323
51.0101
50.9995
50.996
50.9959
50.9946
50.9908
50.9853
50.9797
50.9732
50.967
50.96
50.9535
50.9474
50.9415
50.9364
50.9316
50.9276
50.924
50.9215
50.9203
51.0182
51.0161
51.0174
51.0193
51.0189
51.0163
51.0115
51.0075
51.0018
50.9972
50.9912
50.9862
50.9808
50.976
50.9721
50.9685
50.9652
50.9626
50.9605
50.959
51.036
51.0368
51.0367
51.0357
51.034
51.0317
51.0287
51.0246
51.0201
51.0153
51.0104
51.0047
50.998
50.9901
50.9814
50.9718
50.9609
50.9506
50.9415
50.9342
51.0452
51.0492
51.0501
51.0496
51.049
51.0486
51.0486
51.0503
51.0511
51.0478
51.04
51.0331
51.0281
51.0236
51.0204
51.023
51.0359
51.0448
51.044
51.0291
51.0482
51.0553
51.0567
51.056
51.0555
51.0551
51.0551
51.0565
51.0573
51.0546
51.0476
51.0403
51.0349
51.0301
51.0265
51.029
51.0403
51.0505
51.0529
51.0409
50.9417
50.9485
50.9516
50.9542
50.9572
50.9604
50.9639
50.9677
50.9715
50.9754
50.9793
50.9833
50.9874
50.9916
50.9958
51.0001
51.0045
51.0089
51.0134
51.0179
51.0225
51.0271
51.0318
51.0365
51.0413
51.0461
51.0509
51.0558
51.0608
51.0657
51.0707
51.0757
51.0808
51.0859
51.091
51.0962
51.1014
51.1066
51.1119
51.1172
51.1226
51.128
51.1334
51.139
51.1445
51.1501
51.1558
51.1614
51.1671
51.1728
51.1785
51.1843
51.19
51.1958
51.2016
51.2074
51.2133
51.2192
51.2251
51.2311
51.2371
51.2432
51.2492
51.2553
51.2615
51.2677
51.274
51.2803
51.2867
51.2931
51.2996
51.3061
51.3126
51.319
51.3253
51.3317
51.3387
51.3463
51.3541
51.361
51.3648
51.3658
51.3687
51.3744
51.3825
51.392
51.4039
51.4178
51.4301
51.4407
51.4502
51.4593
51.468
51.4765
51.4841
51.4923
51.4996
51.5078
51.514
51.5259
50.9546
50.957
50.9597
50.9619
50.965
50.9685
50.9719
50.9757
50.9796
50.9835
50.9875
50.9916
50.9957
50.9999
51.0041
51.0084
51.0128
51.0172
51.0216
51.0262
51.0307
51.0353
51.04
51.0446
51.0494
51.0542
51.059
51.0638
51.0687
51.0736
51.0786
51.0836
51.0887
51.0938
51.0989
51.104
51.1092
51.1145
51.1197
51.125
51.1304
51.1358
51.1412
51.1467
51.1522
51.1577
51.1633
51.1689
51.1746
51.1803
51.186
51.1918
51.1976
51.2034
51.2092
51.215
51.2209
51.2268
51.2327
51.2386
51.2446
51.2507
51.2567
51.2628
51.269
51.2752
51.2814
51.2877
51.294
51.3005
51.307
51.3135
51.3199
51.3263
51.3332
51.34
51.3463
51.3524
51.359
51.3663
51.3734
51.3798
51.3854
51.3905
51.3959
51.4024
51.4101
51.4189
51.4284
51.4395
51.4506
51.4605
51.4696
51.4785
51.4864
51.4942
51.501
51.509
51.515
51.5238
50.9183
50.931
50.9405
50.9443
50.9472
50.9506
50.9545
50.9583
50.9622
50.9663
50.9704
50.9745
50.9787
50.983
50.9873
50.9917
50.9961
51.0006
51.0051
51.0096
51.0142
51.0189
51.0235
51.0282
51.0329
51.0377
51.0425
51.0474
51.0523
51.0573
51.0624
51.0675
51.0726
51.0777
51.0829
51.088
51.0932
51.0985
51.1037
51.109
51.1144
51.1198
51.1252
51.1307
51.1362
51.1417
51.1473
51.1528
51.1584
51.164
51.1696
51.1752
51.1809
51.1866
51.1923
51.1979
51.2036
51.2093
51.215
51.2208
51.2264
51.2322
51.2382
51.2448
51.2519
51.2594
51.2678
51.2774
51.2867
51.2953
51.3032
51.311
51.3188
51.3261
51.3332
51.3402
51.3473
51.3543
51.3614
51.3685
51.3758
51.3831
51.3907
51.3983
51.406
51.4137
51.4216
51.4295
51.4375
51.4454
51.4535
51.4613
51.4691
51.4769
51.4846
51.4922
51.5002
51.5075
51.5155
51.5233
50.9527
50.9483
50.9689
50.9721
50.9672
50.9682
50.9726
50.9766
50.9799
50.9834
50.9874
50.9915
50.9954
50.9995
51.0038
51.0081
51.0124
51.0168
51.0213
51.0258
51.0303
51.035
51.0396
51.0443
51.049
51.0537
51.0586
51.0634
51.0683
51.0732
51.0782
51.0831
51.0881
51.0932
51.0983
51.1034
51.1086
51.1138
51.1191
51.1244
51.1298
51.1353
51.1408
51.1463
51.1518
51.1574
51.163
51.1686
51.1743
51.1799
51.1856
51.1913
51.197
51.2028
51.2085
51.2144
51.2202
51.2261
51.232
51.2379
51.2438
51.2498
51.2559
51.262
51.2681
51.2743
51.2805
51.2867
51.2929
51.2992
51.3056
51.3121
51.3188
51.3254
51.3321
51.3388
51.3456
51.3525
51.3594
51.3662
51.3732
51.3806
51.3886
51.3966
51.4037
51.4079
51.4103
51.4138
51.4195
51.4276
51.4371
51.449
51.4627
51.4742
51.4841
51.4932
51.502
51.5093
51.5173
51.5243
50.958
50.9484
50.9698
50.9732
50.968
50.9692
50.9737
50.9781
50.9812
50.9845
50.9885
50.9927
50.9965
51.0006
51.0049
51.0092
51.0135
51.0179
51.0223
51.0268
51.0314
51.036
51.0406
51.0453
51.05
51.0548
51.0596
51.0644
51.0693
51.0742
51.0792
51.0842
51.0892
51.0942
51.0993
51.1045
51.1096
51.1149
51.1202
51.1255
51.1308
51.1363
51.1417
51.1472
51.1528
51.1583
51.1639
51.1696
51.1752
51.1809
51.1866
51.1924
51.1981
51.2038
51.2096
51.2154
51.2212
51.2271
51.233
51.239
51.2449
51.2509
51.257
51.263
51.2692
51.2754
51.2816
51.2879
51.2943
51.3006
51.307
51.3135
51.3201
51.3268
51.3337
51.3406
51.3475
51.3545
51.3616
51.3687
51.3757
51.3826
51.3897
51.3974
51.4056
51.4134
51.4194
51.4211
51.4227
51.4272
51.4348
51.4443
51.4566
51.471
51.4828
51.4927
51.5019
51.5101
51.518
51.525
51.5138
51.5087
51.5076
51.5087
51.5089
51.5078
51.5055
51.5031
51.5005
51.4978
51.495
51.4927
51.4895
51.4869
51.4842
51.4818
51.4798
51.4784
51.4778
51.478
51.5194
51.5196
51.5217
51.5237
51.5243
51.5237
51.5221
51.5203
51.5186
51.5164
51.5144
51.5133
51.5104
51.5085
51.5065
51.5046
51.5031
51.5024
51.5021
51.5025
51.5286
51.5304
51.5316
51.5322
51.5325
51.5323
51.5317
51.5308
51.5293
51.5271
51.5243
51.5208
51.5167
51.5124
51.5092
51.5067
51.504
51.5
51.4954
51.4907
51.5345
51.538
51.5398
51.5407
51.5419
51.5432
51.5437
51.5428
51.5421
51.5421
51.5427
51.5463
51.5553
51.561
51.5577
51.5461
51.5339
51.5281
51.5222
51.5158
51.537
51.5424
51.5445
51.5454
51.5464
51.5476
51.5481
51.5473
51.5464
51.546
51.5466
51.5502
51.5583
51.5649
51.5632
51.5537
51.5418
51.5351
51.5282
51.5214
51.4943
51.5031
51.5105
51.5178
51.5248
51.5319
51.5396
51.5476
51.5555
51.5635
51.5715
51.5797
51.5879
51.5964
51.6049
51.6134
51.6221
51.6307
51.6395
51.6483
51.6571
51.6659
51.6748
51.6837
51.6926
51.7015
51.7105
51.7195
51.7285
51.7375
51.7465
51.7556
51.7647
51.7739
51.7831
51.7923
51.8015
51.8107
51.8199
51.8291
51.8384
51.8476
51.8568
51.8661
51.8753
51.8846
51.8938
51.9031
51.9124
51.9217
51.931
51.9403
51.9497
51.959
51.9683
51.9777
51.9871
51.9965
52.0059
52.0153
52.0247
52.0342
52.0437
52.0531
52.0626
52.072
52.0816
52.0912
52.1006
52.1096
52.1183
52.1278
52.1382
52.149
52.1588
52.1647
52.1668
52.1713
52.1795
52.1905
52.203
52.2187
52.235
52.249
52.2614
52.2731
52.2845
52.2953
52.3052
52.315
52.3246
52.3342
52.3437
52.3532
52.3627
52.3721
52.3815
52.3909
52.4002
52.4096
52.4189
52.4282
52.4374
52.4467
52.4559
52.4651
52.4742
52.4834
52.4925
52.5016
52.5107
52.5197
52.5288
52.5378
52.5468
52.5557
52.5647
52.5736
52.5825
52.5914
52.6003
52.6092
52.618
52.6269
52.6357
52.6445
52.6533
52.6621
52.6709
52.6796
52.6884
52.6971
52.7058
52.7145
52.7232
52.7319
52.7406
52.7492
52.7578
52.7664
52.775
52.7836
52.7921
52.8007
52.8091
52.8176
52.8261
52.8345
52.8428
52.8512
52.8595
52.8678
52.876
52.8842
52.8924
52.9005
52.9086
52.9166
52.9246
52.9326
52.9405
52.9484
52.9563
52.9641
52.9719
52.9796
52.9873
52.995
53.0026
53.0102
53.0178
53.0253
53.0328
53.0403
53.0477
53.0551
53.0625
53.0698
53.0772
53.0844
53.0918
53.0989
53.1063
53.1133
53.1207
53.1275
53.1349
53.1417
53.1491
53.1557
53.1631
53.1697
53.177
53.1835
53.1906
53.1975
53.204
53.2112
53.2176
53.2242
51.5014
51.5084
51.5157
51.523
51.5301
51.5376
51.5455
51.5537
51.5619
51.5702
51.5785
51.5869
51.5953
51.6038
51.6124
51.621
51.6297
51.6384
51.6472
51.656
51.6648
51.6737
51.6826
51.6916
51.7005
51.7095
51.7185
51.7275
51.7365
51.7455
51.7545
51.7636
51.7726
51.7817
51.7909
51.8
51.8092
51.8184
51.8276
51.8368
51.846
51.8553
51.8645
51.8738
51.883
51.8923
51.9016
51.9108
51.9201
51.9294
51.9387
51.948
51.9574
51.9667
51.976
51.9854
51.9948
52.0042
52.0135
52.0229
52.0324
52.0419
52.0513
52.0606
52.07
52.0796
52.0892
52.0984
52.1076
52.1173
52.1271
52.1361
52.1446
52.1537
52.1635
52.1733
52.1823
52.19
52.197
52.2044
52.2131
52.2236
52.2352
52.2476
52.2611
52.2739
52.2858
52.2972
52.3078
52.317
52.3262
52.3354
52.3446
52.3539
52.3632
52.3725
52.3818
52.3911
52.4005
52.4098
52.419
52.4283
52.4376
52.4468
52.456
52.4652
52.4744
52.4835
52.4926
52.5017
52.5108
52.5198
52.5289
52.5379
52.5469
52.5558
52.5648
52.5737
52.5827
52.5916
52.6004
52.6093
52.6181
52.627
52.6358
52.6446
52.6534
52.6622
52.671
52.6797
52.6885
52.6972
52.7059
52.7146
52.7233
52.732
52.7407
52.7493
52.7579
52.7665
52.7751
52.7837
52.7922
52.8008
52.8092
52.8177
52.8262
52.8346
52.8429
52.8513
52.8596
52.8679
52.8761
52.8843
52.8925
52.9006
52.9087
52.9167
52.9247
52.9327
52.9406
52.9485
52.9564
52.9642
52.972
52.9797
52.9874
52.9951
53.0027
53.0103
53.0179
53.0254
53.0329
53.0404
53.0478
53.0552
53.0626
53.0699
53.0773
53.0845
53.0919
53.099
53.1064
53.1134
53.1208
53.1276
53.135
53.1418
53.1492
53.1558
53.1632
53.1697
53.1772
53.1835
53.1909
53.1972
53.2045
53.2108
53.2179
53.2243
51.4713
51.4872
51.4989
51.5069
51.5139
51.521
51.5289
51.5371
51.5455
51.5538
51.5621
51.5706
51.5793
51.5879
51.5965
51.6052
51.6138
51.6225
51.6312
51.6399
51.6488
51.6576
51.6665
51.6755
51.6844
51.6934
51.7024
51.7113
51.7203
51.7293
51.7383
51.7474
51.7564
51.7655
51.7746
51.7838
51.7929
51.8021
51.8113
51.8205
51.8296
51.8389
51.8482
51.8574
51.8666
51.8758
51.885
51.8942
51.9035
51.9127
51.9219
51.9309
51.94
51.9491
51.9582
51.9672
51.9762
51.9854
51.9948
52.0049
52.0156
52.0269
52.0389
52.0516
52.0634
52.0748
52.086
52.0969
52.1071
52.1171
52.1269
52.1366
52.1462
52.1559
52.1656
52.1754
52.1853
52.1952
52.2052
52.2152
52.2253
52.2355
52.2457
52.2559
52.266
52.2761
52.286
52.2959
52.3056
52.3152
52.3248
52.3343
52.3438
52.3533
52.3627
52.3722
52.3816
52.391
52.4003
52.4097
52.419
52.4283
52.4375
52.4468
52.456
52.4652
52.4743
52.4835
52.4926
52.5017
52.5108
52.5198
52.5289
52.5379
52.5469
52.5558
52.5648
52.5737
52.5827
52.5916
52.6004
52.6093
52.6181
52.627
52.6358
52.6446
52.6534
52.6622
52.671
52.6797
52.6885
52.6972
52.7059
52.7146
52.7233
52.732
52.7407
52.7493
52.7579
52.7665
52.7751
52.7837
52.7922
52.8008
52.8092
52.8177
52.8262
52.8346
52.8429
52.8513
52.8596
52.8679
52.8761
52.8843
52.8925
52.9006
52.9087
52.9167
52.9247
52.9327
52.9406
52.9485
52.9564
52.9642
52.972
52.9797
52.9874
52.9951
53.0027
53.0103
53.0179
53.0254
53.0329
53.0404
53.0478
53.0552
53.0626
53.0699
53.0773
53.0846
53.0919
53.0991
53.1063
53.1135
53.1207
53.1278
53.1349
53.142
53.149
53.156
53.1631
53.1698
53.177
53.1838
53.1906
53.1975
53.2043
53.211
53.2178
53.2244
51.5206
51.5218
51.5189
51.5235
51.5321
51.5404
51.5475
51.5546
51.5629
51.5713
51.58
51.5882
51.5963
51.6046
51.6131
51.6216
51.6301
51.6388
51.6475
51.6563
51.665
51.6738
51.6825
51.6913
51.7002
51.7091
51.718
51.7269
51.7359
51.745
51.754
51.7631
51.7722
51.7814
51.7905
51.7997
51.8088
51.818
51.8272
51.8364
51.8456
51.8547
51.8639
51.8732
51.8824
51.8916
51.9009
51.9103
51.9195
51.9288
51.938
51.9474
51.9568
51.9661
51.9754
51.9847
51.9941
52.0034
52.0128
52.0222
52.0316
52.041
52.0504
52.0597
52.0689
52.0783
52.0877
52.0973
52.1069
52.1164
52.1259
52.1354
52.1449
52.1542
52.1633
52.1725
52.1824
52.1932
52.2039
52.2132
52.2187
52.2225
52.2281
52.2367
52.2479
52.2606
52.2764
52.2914
52.3042
52.3159
52.3269
52.3364
52.3452
52.3543
52.3635
52.3727
52.3819
52.3912
52.4005
52.4098
52.4191
52.4283
52.4376
52.4468
52.456
52.4652
52.4744
52.4835
52.4926
52.5017
52.5108
52.5198
52.5289
52.5379
52.5469
52.5558
52.5648
52.5737
52.5827
52.5916
52.6004
52.6093
52.6181
52.627
52.6358
52.6446
52.6534
52.6622
52.671
52.6797
52.6885
52.6972
52.7059
52.7146
52.7233
52.732
52.7407
52.7493
52.7579
52.7665
52.7751
52.7837
52.7922
52.8008
52.8092
52.8177
52.8262
52.8346
52.8429
52.8513
52.8596
52.8679
52.8761
52.8843
52.8925
52.9006
52.9087
52.9167
52.9247
52.9327
52.9406
52.9485
52.9564
52.9642
52.972
52.9797
52.9874
52.9951
53.0027
53.0103
53.0179
53.0254
53.0329
53.0404
53.0478
53.0552
53.0626
53.07
53.0772
53.0846
53.0918
53.0992
53.1062
53.1136
53.1205
53.1279
53.1347
53.1421
53.1488
53.1562
53.1628
53.1702
53.1766
53.1841
53.1904
53.1977
53.2041
53.2112
53.218
53.2243
51.5221
51.5227
51.5198
51.5245
51.5335
51.5429
51.5492
51.556
51.5644
51.5732
51.5818
51.5898
51.5977
51.606
51.6144
51.6228
51.6313
51.6399
51.6486
51.6573
51.666
51.6748
51.6836
51.6924
51.7013
51.7101
51.719
51.728
51.737
51.746
51.755
51.7641
51.7732
51.7823
51.7915
51.8006
51.8098
51.819
51.8282
51.8374
51.8466
51.8558
51.865
51.8742
51.8835
51.8927
51.9021
51.9114
51.9207
51.9299
51.9392
51.9485
51.9578
51.9671
51.9764
51.9858
51.9951
52.0045
52.0138
52.0232
52.0326
52.042
52.0514
52.0608
52.0703
52.0797
52.089
52.0985
52.108
52.1177
52.1273
52.137
52.1467
52.1565
52.1662
52.1755
52.1845
52.1939
52.2043
52.2152
52.2254
52.2329
52.2349
52.2383
52.2459
52.2569
52.2699
52.2867
52.3022
52.3151
52.3267
52.3372
52.346
52.3547
52.3637
52.3728
52.382
52.3912
52.4005