/*--------------------------------*- C++ -*----------------------------------*\
| =========                 |                                                 |
| \\      /  F ield         | OpenFOAM: The Open Source CFD Toolbox           |
|  \\    /   O peration     | Version:  3.0.x                                 |
|   \\  /    A nd           | Web:      www.OpenFOAM.org                      |
|    \\/     M anipulation  |                                                 |
\*---------------------------------------------------------------------------*/
FoamFile
{
    version     2.0;
    format      ascii;
    class       volScalarField;
    location    "0.19995";
    object      rho;
}
// * * * * * * * * * * * * * * * * * * * * * * * * * * * * * * * * * * * * * //

dimensions      [1 -3 0 0 0 0 0];

internalField   nonuniform List<scalar> 
13800
(
50.5858
50.5857
50.5856
50.5856
50.5858
50.5862
50.5867
50.5873
50.5878
50.5882
50.5886
50.589
50.5893
50.5898
50.5904
50.591
50.5917
50.5924
50.593
50.5935
50.594
50.5944
50.5947
50.5949
50.5951
50.5952
50.5953
50.5953
50.5952
50.595
50.5947
50.5942
50.5937
50.5932
50.5926
50.5921
50.5916
50.591
50.5903
50.5895
50.5887
50.5878
50.5868
50.5858
50.5847
50.5836
50.5825
50.5814
50.5803
50.5791
50.578
50.5769
50.5759
50.5748
50.5738
50.5728
50.5719
50.571
50.5701
50.5693
50.5685
50.5677
50.567
50.5664
50.5658
50.5652
50.5647
50.5642
50.5637
50.5633
50.563
50.5626
50.5623
50.5621
50.5619
50.5617
50.5615
50.5614
50.5612
50.5612
50.5611
50.5611
50.561
50.561
50.5611
50.5611
50.5612
50.5613
50.5615
50.5616
50.5618
50.5621
50.5623
50.5626
50.563
50.5634
50.5638
50.5643
50.5649
50.5655
50.5661
50.5669
50.5677
50.5686
50.5695
50.5706
50.5717
50.5729
50.5742
50.5756
50.577
50.5785
50.5802
50.5818
50.5836
50.5854
50.5872
50.5891
50.591
50.5929
50.5949
50.5967
50.5986
50.6004
50.6021
50.6037
50.6053
50.6066
50.6079
50.609
50.6098
50.6106
50.6111
50.6114
50.6115
50.6114
50.6111
50.6105
50.6098
50.6088
50.6077
50.6065
50.605
50.6035
50.6018
50.6
50.5981
50.5961
50.5942
50.5921
50.5901
50.5881
50.5861
50.5842
50.5823
50.5805
50.5788
50.5771
50.5755
50.574
50.5726
50.5713
50.5701
50.569
50.5679
50.567
50.5661
50.5653
50.5646
50.5639
50.5633
50.5628
50.5623
50.5618
50.5614
50.561
50.5607
50.5604
50.5601
50.5599
50.5597
50.5595
50.5593
50.5591
50.559
50.5589
50.5588
50.5586
50.5586
50.5585
50.5584
50.5583
50.5583
50.5582
50.5582
50.5582
50.5582
50.5584
50.5621
50.5532
50.5865
50.5864
50.5862
50.5862
50.5864
50.5868
50.5873
50.5879
50.5884
50.5889
50.5893
50.5896
50.59
50.5904
50.591
50.5916
50.5923
50.593
50.5936
50.5941
50.5946
50.5949
50.5952
50.5955
50.5956
50.5958
50.5959
50.5959
50.5958
50.5956
50.5952
50.5948
50.5943
50.5937
50.5932
50.5926
50.5921
50.5915
50.5908
50.59
50.5892
50.5883
50.5873
50.5863
50.5852
50.5841
50.583
50.5819
50.5807
50.5796
50.5785
50.5774
50.5763
50.5753
50.5743
50.5733
50.5723
50.5714
50.5705
50.5697
50.5689
50.5681
50.5674
50.5668
50.5662
50.5656
50.5651
50.5646
50.5642
50.5638
50.5634
50.5631
50.5628
50.5625
50.5623
50.5621
50.5619
50.5618
50.5617
50.5616
50.5615
50.5615
50.5615
50.5615
50.5615
50.5616
50.5616
50.5618
50.5619
50.5621
50.5623
50.5625
50.5628
50.5631
50.5634
50.5638
50.5642
50.5647
50.5653
50.5659
50.5666
50.5673
50.5681
50.569
50.57
50.571
50.5721
50.5733
50.5746
50.576
50.5774
50.579
50.5806
50.5823
50.584
50.5858
50.5877
50.5895
50.5915
50.5934
50.5953
50.5972
50.599
50.6008
50.6026
50.6042
50.6057
50.6071
50.6083
50.6094
50.6103
50.611
50.6115
50.6118
50.6119
50.6118
50.6115
50.6109
50.6102
50.6093
50.6082
50.6069
50.6055
50.6039
50.6022
50.6004
50.5985
50.5966
50.5946
50.5926
50.5906
50.5885
50.5866
50.5846
50.5827
50.5809
50.5792
50.5775
50.5759
50.5745
50.5731
50.5717
50.5705
50.5694
50.5684
50.5674
50.5665
50.5657
50.565
50.5643
50.5637
50.5632
50.5627
50.5622
50.5618
50.5615
50.5611
50.5608
50.5606
50.5603
50.5601
50.5599
50.5597
50.5596
50.5594
50.5593
50.5592
50.5591
50.559
50.5589
50.5588
50.5588
50.5587
50.5587
50.5586
50.5586
50.5587
50.5587
50.5626
50.5502
50.5865
50.5864
50.5862
50.5862
50.5864
50.5868
50.5873
50.5879
50.5884
50.5889
50.5893
50.5896
50.59
50.5904
50.591
50.5916
50.5923
50.593
50.5936
50.5941
50.5946
50.5949
50.5952
50.5955
50.5956
50.5958
50.5959
50.5959
50.5958
50.5956
50.5952
50.5948
50.5943
50.5937
50.5932
50.5926
50.5921
50.5915
50.5908
50.59
50.5892
50.5883
50.5873
50.5863
50.5852
50.5841
50.583
50.5819
50.5807
50.5796
50.5785
50.5774
50.5763
50.5753
50.5743
50.5733
50.5723
50.5714
50.5705
50.5697
50.5689
50.5681
50.5674
50.5668
50.5662
50.5656
50.5651
50.5646
50.5642
50.5638
50.5634
50.5631
50.5628
50.5625
50.5623
50.5621
50.5619
50.5618
50.5617
50.5616
50.5615
50.5615
50.5615
50.5615
50.5615
50.5616
50.5616
50.5618
50.5619
50.5621
50.5623
50.5625
50.5628
50.5631
50.5634
50.5638
50.5642
50.5647
50.5653
50.5659
50.5666
50.5673
50.5681
50.569
50.57
50.571
50.5721
50.5733
50.5746
50.576
50.5774
50.579
50.5806
50.5823
50.584
50.5858
50.5877
50.5895
50.5915
50.5934
50.5953
50.5972
50.599
50.6008
50.6026
50.6042
50.6057
50.6071
50.6083
50.6094
50.6103
50.611
50.6115
50.6118
50.6119
50.6118
50.6115
50.6109
50.6102
50.6093
50.6082
50.6069
50.6055
50.6039
50.6022
50.6004
50.5985
50.5966
50.5946
50.5926
50.5906
50.5885
50.5866
50.5846
50.5827
50.5809
50.5792
50.5775
50.5759
50.5745
50.5731
50.5717
50.5705
50.5694
50.5684
50.5674
50.5665
50.5657
50.565
50.5643
50.5637
50.5632
50.5627
50.5622
50.5618
50.5615
50.5611
50.5608
50.5606
50.5603
50.5601
50.5599
50.5597
50.5596
50.5594
50.5593
50.5592
50.5591
50.559
50.5589
50.5588
50.5588
50.5587
50.5587
50.5586
50.5586
50.5587
50.5587
50.5625
50.5505
50.5865
50.5864
50.5862
50.5862
50.5864
50.5868
50.5873
50.5879
50.5884
50.5889
50.5893
50.5896
50.59
50.5904
50.591
50.5916
50.5923
50.593
50.5936
50.5941
50.5946
50.5949
50.5952
50.5955
50.5956
50.5958
50.5959
50.5959
50.5958
50.5955
50.5952
50.5948
50.5942
50.5937
50.5932
50.5926
50.5921
50.5915
50.5908
50.59
50.5892
50.5883
50.5873
50.5863
50.5852
50.5841
50.583
50.5819
50.5807
50.5796
50.5785
50.5774
50.5763
50.5753
50.5743
50.5733
50.5723
50.5714
50.5705
50.5697
50.5689
50.5681
50.5674
50.5668
50.5662
50.5656
50.5651
50.5646
50.5642
50.5638
50.5634
50.5631
50.5628
50.5625
50.5623
50.5621
50.5619
50.5618
50.5617
50.5616
50.5615
50.5615
50.5615
50.5615
50.5615
50.5616
50.5616
50.5618
50.5619
50.5621
50.5623
50.5625
50.5628
50.5631
50.5634
50.5638
50.5642
50.5647
50.5653
50.5659
50.5666
50.5673
50.5681
50.569
50.57
50.571
50.5721
50.5733
50.5746
50.576
50.5774
50.579
50.5806
50.5823
50.584
50.5858
50.5877
50.5895
50.5915
50.5934
50.5953
50.5972
50.599
50.6008
50.6026
50.6042
50.6057
50.6071
50.6083
50.6094
50.6103
50.611
50.6115
50.6118
50.6119
50.6118
50.6115
50.6109
50.6102
50.6093
50.6082
50.6069
50.6055
50.6039
50.6022
50.6004
50.5985
50.5966
50.5946
50.5926
50.5906
50.5885
50.5866
50.5846
50.5827
50.5809
50.5792
50.5775
50.5759
50.5745
50.5731
50.5717
50.5705
50.5694
50.5684
50.5674
50.5665
50.5657
50.565
50.5643
50.5637
50.5632
50.5627
50.5622
50.5618
50.5615
50.5611
50.5608
50.5606
50.5603
50.5601
50.5599
50.5597
50.5596
50.5594
50.5593
50.5592
50.5591
50.559
50.5589
50.5588
50.5588
50.5587
50.5587
50.5586
50.5586
50.5587
50.5588
50.5619
50.5544
50.5865
50.5864
50.5862
50.5862
50.5864
50.5868
50.5873
50.5879
50.5884
50.5888
50.5893
50.5896
50.5899
50.5904
50.591
50.5916
50.5923
50.593
50.5936
50.5941
50.5946
50.5949
50.5952
50.5955
50.5956
50.5958
50.5959
50.5959
50.5958
50.5955
50.5952
50.5948
50.5942
50.5937
50.5932
50.5926
50.5921
50.5915
50.5908
50.59
50.5892
50.5883
50.5873
50.5863
50.5852
50.5841
50.583
50.5819
50.5807
50.5796
50.5785
50.5774
50.5763
50.5753
50.5743
50.5733
50.5723
50.5714
50.5705
50.5697
50.5689
50.5681
50.5674
50.5668
50.5662
50.5656
50.5651
50.5646
50.5642
50.5638
50.5634
50.5631
50.5628
50.5625
50.5623
50.5621
50.5619
50.5618
50.5617
50.5616
50.5615
50.5615
50.5615
50.5615
50.5615
50.5616
50.5616
50.5618
50.5619
50.5621
50.5623
50.5625
50.5628
50.5631
50.5634
50.5638
50.5642
50.5647
50.5653
50.5659
50.5666
50.5673
50.5681
50.569
50.57
50.571
50.5721
50.5733
50.5746
50.576
50.5774
50.579
50.5806
50.5823
50.584
50.5858
50.5877
50.5895
50.5915
50.5934
50.5953
50.5972
50.599
50.6008
50.6026
50.6042
50.6057
50.6071
50.6083
50.6094
50.6103
50.611
50.6115
50.6118
50.6119
50.6118
50.6115
50.6109
50.6102
50.6093
50.6082
50.6069
50.6055
50.6039
50.6022
50.6004
50.5985
50.5966
50.5946
50.5926
50.5906
50.5885
50.5866
50.5846
50.5827
50.5809
50.5792
50.5775
50.5759
50.5745
50.5731
50.5717
50.5705
50.5694
50.5684
50.5674
50.5665
50.5657
50.565
50.5643
50.5637
50.5632
50.5627
50.5622
50.5618
50.5615
50.5611
50.5608
50.5606
50.5603
50.5601
50.5599
50.5597
50.5596
50.5594
50.5593
50.5592
50.5591
50.559
50.5589
50.5588
50.5588
50.5587
50.5587
50.5586
50.5586
50.5586
50.5585
50.5601
50.5525
50.5865
50.5864
50.5862
50.5862
50.5864
50.5868
50.5873
50.5879
50.5884
50.5888
50.5893
50.5896
50.5899
50.5904
50.591
50.5916
50.5923
50.593
50.5936
50.5941
50.5946
50.5949
50.5952
50.5955
50.5956
50.5958
50.5959
50.5959
50.5958
50.5955
50.5952
50.5948
50.5942
50.5937
50.5932
50.5926
50.5921
50.5915
50.5908
50.59
50.5892
50.5883
50.5873
50.5863
50.5852
50.5841
50.583
50.5819
50.5807
50.5796
50.5785
50.5774
50.5763
50.5753
50.5743
50.5733
50.5723
50.5714
50.5705
50.5697
50.5689
50.5681
50.5674
50.5668
50.5662
50.5656
50.5651
50.5646
50.5642
50.5638
50.5634
50.5631
50.5628
50.5625
50.5623
50.5621
50.5619
50.5618
50.5617
50.5616
50.5615
50.5615
50.5615
50.5615
50.5615
50.5616
50.5616
50.5618
50.5619
50.5621
50.5623
50.5625
50.5628
50.5631
50.5634
50.5638
50.5642
50.5647
50.5653
50.5659
50.5666
50.5673
50.5681
50.569
50.57
50.571
50.5721
50.5733
50.5746
50.576
50.5774
50.579
50.5806
50.5823
50.584
50.5858
50.5877
50.5895
50.5915
50.5934
50.5953
50.5972
50.599
50.6008
50.6026
50.6042
50.6057
50.6071
50.6083
50.6094
50.6103
50.611
50.6115
50.6118
50.6119
50.6118
50.6115
50.6109
50.6102
50.6093
50.6082
50.6069
50.6055
50.6039
50.6022
50.6004
50.5985
50.5966
50.5946
50.5926
50.5906
50.5885
50.5866
50.5846
50.5827
50.5809
50.5792
50.5775
50.5759
50.5745
50.5731
50.5717
50.5705
50.5694
50.5684
50.5674
50.5665
50.5657
50.565
50.5643
50.5637
50.5632
50.5627
50.5622
50.5618
50.5615
50.5611
50.5608
50.5606
50.5603
50.5601
50.5599
50.5597
50.5596
50.5594
50.5593
50.5592
50.5591
50.559
50.5589
50.5588
50.5588
50.5587
50.5587
50.5586
50.5586
50.5585
50.5583
50.5575
50.5558
50.5865
50.5864
50.5862
50.5862
50.5864
50.5868
50.5873
50.5879
50.5884
50.5889
50.5893
50.5896
50.59
50.5904
50.591
50.5916
50.5923
50.593
50.5936
50.5941
50.5946
50.5949
50.5952
50.5955
50.5956
50.5958
50.5959
50.5959
50.5958
50.5955
50.5952
50.5948
50.5942
50.5937
50.5932
50.5926
50.5921
50.5915
50.5908
50.59
50.5892
50.5883
50.5873
50.5863
50.5852
50.5841
50.583
50.5819
50.5807
50.5796
50.5785
50.5774
50.5763
50.5753
50.5743
50.5733
50.5723
50.5714
50.5705
50.5697
50.5689
50.5681
50.5674
50.5668
50.5662
50.5656
50.5651
50.5646
50.5642
50.5638
50.5634
50.5631
50.5628
50.5625
50.5623
50.5621
50.5619
50.5618
50.5617
50.5616
50.5615
50.5615
50.5615
50.5615
50.5615
50.5616
50.5616
50.5618
50.5619
50.5621
50.5623
50.5625
50.5628
50.5631
50.5634
50.5638
50.5642
50.5647
50.5653
50.5659
50.5666
50.5673
50.5681
50.569
50.57
50.571
50.5721
50.5733
50.5746
50.576
50.5774
50.579
50.5806
50.5823
50.584
50.5858
50.5877
50.5895
50.5915
50.5934
50.5953
50.5972
50.599
50.6008
50.6026
50.6042
50.6057
50.6071
50.6083
50.6094
50.6103
50.611
50.6115
50.6118
50.6119
50.6118
50.6115
50.6109
50.6102
50.6093
50.6082
50.6069
50.6055
50.6039
50.6022
50.6004
50.5985
50.5966
50.5946
50.5926
50.5906
50.5885
50.5866
50.5846
50.5827
50.5809
50.5792
50.5775
50.5759
50.5745
50.5731
50.5717
50.5705
50.5694
50.5684
50.5674
50.5665
50.5657
50.565
50.5643
50.5637
50.5632
50.5627
50.5622
50.5618
50.5615
50.5611
50.5608
50.5606
50.5603
50.5601
50.5599
50.5597
50.5596
50.5594
50.5593
50.5592
50.5591
50.559
50.5589
50.5588
50.5588
50.5587
50.5587
50.5586
50.5585
50.5584
50.5583
50.5546
50.5661
50.5865
50.5864
50.5862
50.5862
50.5864
50.5868
50.5873
50.5879
50.5884
50.5889
50.5893
50.5896
50.59
50.5904
50.591
50.5916
50.5923
50.593
50.5936
50.5941
50.5946
50.5949
50.5952
50.5955
50.5956
50.5958
50.5959
50.5959
50.5958
50.5956
50.5952
50.5948
50.5943
50.5937
50.5932
50.5926
50.5921
50.5915
50.5908
50.59
50.5892
50.5883
50.5873
50.5863
50.5852
50.5841
50.583
50.5819
50.5807
50.5796
50.5785
50.5774
50.5763
50.5753
50.5743
50.5733
50.5723
50.5714
50.5705
50.5697
50.5689
50.5681
50.5674
50.5668
50.5662
50.5656
50.5651
50.5646
50.5642
50.5638
50.5634
50.5631
50.5628
50.5625
50.5623
50.5621
50.5619
50.5618
50.5617
50.5616
50.5615
50.5615
50.5615
50.5615
50.5615
50.5616
50.5616
50.5618
50.5619
50.5621
50.5623
50.5625
50.5628
50.5631
50.5634
50.5638
50.5642
50.5647
50.5653
50.5659
50.5666
50.5673
50.5681
50.569
50.57
50.571
50.5721
50.5733
50.5746
50.576
50.5774
50.579
50.5806
50.5823
50.584
50.5858
50.5877
50.5895
50.5915
50.5934
50.5953
50.5972
50.599
50.6008
50.6026
50.6042
50.6057
50.6071
50.6083
50.6094
50.6103
50.611
50.6115
50.6118
50.6119
50.6118
50.6115
50.6109
50.6102
50.6093
50.6082
50.6069
50.6055
50.6039
50.6022
50.6004
50.5985
50.5966
50.5946
50.5926
50.5906
50.5885
50.5866
50.5846
50.5827
50.5809
50.5792
50.5775
50.5759
50.5745
50.5731
50.5717
50.5705
50.5694
50.5684
50.5674
50.5665
50.5657
50.565
50.5643
50.5637
50.5632
50.5627
50.5622
50.5618
50.5615
50.5611
50.5608
50.5606
50.5603
50.5601
50.5599
50.5597
50.5596
50.5594
50.5593
50.5592
50.5591
50.559
50.5589
50.5588
50.5588
50.5587
50.5587
50.5586
50.5585
50.5583
50.5588
50.5516
50.5947
50.5865
50.5864
50.5862
50.5862
50.5864
50.5868
50.5873
50.5879
50.5884
50.5889
50.5893
50.5896
50.59
50.5904
50.591
50.5916
50.5923
50.593
50.5936
50.5941
50.5946
50.5949
50.5952
50.5955
50.5956
50.5958
50.5959
50.5959
50.5958
50.5956
50.5952
50.5948
50.5943
50.5937
50.5932
50.5926
50.5921
50.5915
50.5908
50.59
50.5892
50.5883
50.5873
50.5863
50.5852
50.5841
50.583
50.5819
50.5807
50.5796
50.5785
50.5774
50.5763
50.5753
50.5743
50.5733
50.5723
50.5714
50.5705
50.5697
50.5689
50.5681
50.5674
50.5668
50.5662
50.5656
50.5651
50.5646
50.5642
50.5638
50.5634
50.5631
50.5628
50.5625
50.5623
50.5621
50.5619
50.5618
50.5617
50.5616
50.5615
50.5615
50.5615
50.5615
50.5615
50.5616
50.5616
50.5618
50.5619
50.5621
50.5623
50.5625
50.5628
50.5631
50.5634
50.5638
50.5642
50.5647
50.5653
50.5659
50.5666
50.5673
50.5681
50.569
50.57
50.571
50.5721
50.5733
50.5746
50.576
50.5774
50.579
50.5806
50.5823
50.584
50.5858
50.5877
50.5895
50.5915
50.5934
50.5953
50.5972
50.599
50.6008
50.6026
50.6042
50.6057
50.6071
50.6083
50.6094
50.6103
50.611
50.6115
50.6118
50.6119
50.6118
50.6115
50.6109
50.6102
50.6093
50.6082
50.6069
50.6055
50.6039
50.6022
50.6004
50.5985
50.5966
50.5946
50.5926
50.5906
50.5885
50.5866
50.5846
50.5827
50.5809
50.5792
50.5775
50.5759
50.5745
50.5731
50.5717
50.5705
50.5694
50.5684
50.5674
50.5665
50.5657
50.565
50.5643
50.5637
50.5632
50.5627
50.5622
50.5618
50.5615
50.5611
50.5608
50.5606
50.5603
50.5601
50.5599
50.5597
50.5596
50.5594
50.5593
50.5592
50.5591
50.559
50.5589
50.5588
50.5588
50.5587
50.5587
50.5586
50.5585
50.5583
50.559
50.5498
50.6099
50.5858
50.5857
50.5856
50.5856
50.5858
50.5862
50.5867
50.5873
50.5878
50.5882
50.5886
50.589
50.5893
50.5898
50.5904
50.591
50.5917
50.5924
50.593
50.5935
50.594
50.5944
50.5947
50.5949
50.5951
50.5952
50.5953
50.5953
50.5952
50.595
50.5947
50.5942
50.5937
50.5932
50.5926
50.5921
50.5916
50.591
50.5903
50.5895
50.5887
50.5878
50.5868
50.5858
50.5847
50.5836
50.5825
50.5814
50.5803
50.5791
50.578
50.5769
50.5759
50.5748
50.5738
50.5728
50.5719
50.571
50.5701
50.5693
50.5685
50.5677
50.567
50.5664
50.5658
50.5652
50.5647
50.5642
50.5637
50.5633
50.563
50.5626
50.5623
50.5621
50.5619
50.5617
50.5615
50.5614
50.5612
50.5612
50.5611
50.5611
50.561
50.561
50.5611
50.5611
50.5612
50.5613
50.5615
50.5616
50.5618
50.5621
50.5623
50.5626
50.563
50.5634
50.5638
50.5643
50.5649
50.5655
50.5661
50.5669
50.5677
50.5686
50.5695
50.5706
50.5717
50.5729
50.5742
50.5756
50.577
50.5785
50.5802
50.5818
50.5836
50.5854
50.5872
50.5891
50.591
50.5929
50.5949
50.5967
50.5986
50.6004
50.6021
50.6037
50.6053
50.6066
50.6079
50.609
50.6098
50.6106
50.6111
50.6114
50.6115
50.6114
50.6111
50.6105
50.6098
50.6088
50.6077
50.6065
50.605
50.6035
50.6018
50.6
50.5981
50.5961
50.5942
50.5921
50.5901
50.5881
50.5861
50.5842
50.5823
50.5805
50.5788
50.5771
50.5755
50.574
50.5726
50.5713
50.5701
50.569
50.5679
50.567
50.5661
50.5653
50.5646
50.5639
50.5633
50.5628
50.5623
50.5618
50.5614
50.561
50.5607
50.5604
50.5601
50.5599
50.5597
50.5595
50.5593
50.5591
50.559
50.5589
50.5587
50.5586
50.5586
50.5585
50.5584
50.5583
50.5583
50.5582
50.5582
50.5581
50.5579
50.5587
50.5479
50.623
50.6467
50.6854
50.6981
50.6999
50.6994
50.6991
50.6985
50.6973
50.6957
50.694
50.6921
50.6901
50.6879
50.6852
50.6821
50.678
50.6726
50.6654
50.6552
50.6394
50.6412
50.6753
50.6887
50.691
50.6909
50.6909
50.6905
50.6897
50.6883
50.6868
50.6851
50.6834
50.6812
50.6788
50.6756
50.6717
50.6662
50.659
50.6485
50.6328
50.6359
50.6703
50.6855
50.6888
50.6888
50.6888
50.6884
50.6874
50.6859
50.6843
50.6825
50.6806
50.6784
50.6759
50.6727
50.6688
50.6631
50.6554
50.6443
50.6272
50.6178
50.6371
50.6432
50.6426
50.6413
50.6404
50.6393
50.6378
50.636
50.6341
50.6321
50.6299
50.6275
50.6245
50.6209
50.6164
50.6114
50.6041
50.5944
50.5806
50.5874
50.5997
50.6089
50.6155
50.6201
50.623
50.6243
50.6248
50.6245
50.6239
50.6227
50.6208
50.6184
50.6153
50.6114
50.6065
50.5999
50.5924
50.5837
50.5733
50.5353
50.5258
50.5155
50.5048
50.495
50.4868
50.4806
50.4756
50.4714
50.4679
50.4652
50.4632
50.4614
50.4602
50.4588
50.4577
50.4572
50.4579
50.4588
50.4627
50.478
50.4571
50.4501
50.4509
50.4524
50.4533
50.4536
50.4543
50.4547
50.4552
50.4551
50.4552
50.4549
50.4548
50.4547
50.4555
50.4567
50.4599
50.4657
50.4763
50.4096
50.3535
50.3108
50.2821
50.2624
50.2473
50.2355
50.2269
50.2212
50.2178
50.2161
50.2162
50.218
50.2222
50.2301
50.2401
50.2554
50.2729
50.2984
50.3295
50.3952
50.3343
50.2964
50.2748
50.2603
50.2494
50.2406
50.2349
50.2313
50.2302
50.2304
50.2322
50.2356
50.241
50.2491
50.2602
50.2748
50.2923
50.3155
50.345
50.377
50.292
50.2443
50.2164
50.1976
50.1817
50.1686
50.1589
50.1534
50.1481
50.1463
50.1452
50.1474
50.1509
50.1586
50.1698
50.1848
50.2044
50.2301
50.2651
50.5714
50.5322
50.5212
50.5181
50.5171
50.5167
50.5166
50.5167
50.5167
50.5168
50.5168
50.5168
50.5168
50.5168
50.5168
50.5168
50.5168
50.5168
50.5167
50.5167
50.5168
50.5168
50.5168
50.5168
50.5168
50.5168
50.5167
50.5167
50.5166
50.5166
50.5166
50.5166
50.5167
50.5167
50.5168
50.5168
50.5168
50.5169
50.5169
50.5169
50.5169
50.5169
50.5169
50.517
50.517
50.5171
50.5172
50.5173
50.5173
50.5174
50.5176
50.5177
50.5178
50.518
50.5182
50.5184
50.5188
50.5194
50.5202
50.5211
50.5219
50.5225
50.523
50.5233
50.5235
50.5234
50.5221
50.5156
50.4911
50.4313
50.3664
50.31
50.2666
50.2384
50.2243
50.2208
50.2229
50.2397
50.2965
50.3676
50.4256
50.4691
50.499
50.5177
50.5283
50.5334
50.5352
50.5355
50.535
50.5332
50.5315
50.5303
50.5295
50.5289
50.5285
50.5282
50.528
50.5278
50.5277
50.5277
50.5276
50.5276
50.5276
50.5277
50.5277
50.5277
50.5278
50.5279
50.5279
50.528
50.5281
50.5282
50.5283
50.5285
50.5286
50.5287
50.5289
50.529
50.5292
50.5294
50.5296
50.5298
50.53
50.5302
50.5305
50.5307
50.531
50.5313
50.5316
50.532
50.5323
50.5327
50.533
50.5334
50.5339
50.5343
50.5347
50.5352
50.5356
50.5361
50.5366
50.5371
50.5376
50.538
50.5385
50.539
50.5395
50.54
50.5404
50.5409
50.5413
50.5417
50.5421
50.5425
50.5428
50.5431
50.5433
50.5436
50.5438
50.5439
50.544
50.5441
50.5441
50.544
50.544
50.5438
50.5436
50.5434
50.5431
50.5427
50.5423
50.5419
50.5414
50.5409
50.5403
50.5396
50.539
50.5383
50.5376
50.5368
50.536
50.5352
50.5343
50.5335
50.5326
50.5317
50.5308
50.5299
50.529
50.5281
50.5272
50.5263
50.5254
50.5245
50.5236
50.5227
50.5214
50.5209
50.5103
50.5629
50.5713
50.5345
50.5239
50.521
50.52
50.5197
50.5196
50.5197
50.5197
50.5198
50.5199
50.5199
50.5199
50.5199
50.5199
50.5199
50.5199
50.5199
50.5199
50.5199
50.5198
50.5199
50.5199
50.5199
50.5199
50.5199
50.5199
50.5199
50.5198
50.5198
50.5198
50.5198
50.5198
50.5198
50.5199
50.5199
50.52
50.52
50.5201
50.5201
50.5201
50.5201
50.5201
50.5201
50.5202
50.5202
50.5203
50.5204
50.5205
50.5206
50.5207
50.5208
50.5209
50.521
50.5212
50.5215
50.5218
50.5222
50.5225
50.5229
50.5232
50.5235
50.5239
50.5246
50.5261
50.5293
50.5329
50.5365
50.5395
50.5416
50.5427
50.543
50.5427
50.5399
50.5294
50.5134
50.4999
50.4904
50.4853
50.4837
50.4839
50.4865
50.4952
50.5056
50.5138
50.5198
50.5239
50.5264
50.5279
50.5286
50.529
50.5291
50.5291
50.5289
50.5287
50.5285
50.5283
50.5282
50.5281
50.5281
50.528
50.528
50.528
50.5281
50.5281
50.5282
50.5282
50.5283
50.5284
50.5285
50.5285
50.5287
50.5288
50.5289
50.529
50.5291
50.5293
50.5294
50.5296
50.5298
50.53
50.5302
50.5304
50.5306
50.5309
50.5312
50.5314
50.5317
50.532
50.5324
50.5327
50.5331
50.5335
50.5339
50.5343
50.5347
50.5351
50.5356
50.5361
50.5365
50.537
50.5375
50.538
50.5385
50.539
50.5394
50.5399
50.5404
50.5409
50.5413
50.5417
50.5421
50.5425
50.5429
50.5432
50.5435
50.5438
50.544
50.5442
50.5443
50.5444
50.5445
50.5445
50.5445
50.5444
50.5442
50.544
50.5438
50.5435
50.5432
50.5428
50.5423
50.5418
50.5413
50.5407
50.5401
50.5394
50.5387
50.538
50.5372
50.5364
50.5356
50.5348
50.5339
50.533
50.5321
50.5312
50.5303
50.5294
50.5285
50.5276
50.5267
50.5258
50.525
50.524
50.5231
50.5219
50.5212
50.5118
50.5536
50.5713
50.5356
50.5244
50.5209
50.5197
50.5192
50.5191
50.519
50.519
50.5191
50.5192
50.5192
50.5192
50.5192
50.5192
50.5192
50.5192
50.5192
50.5192
50.5192
50.5192
50.5192
50.5192
50.5192
50.5192
50.5192
50.5192
50.5192
50.5191
50.5191
50.5191
50.5191
50.5191
50.5191
50.5192
50.5192
50.5193
50.5193
50.5194
50.5194
50.5194
50.5194
50.5194
50.5195
50.5195
50.5196
50.5196
50.5197
50.5198
50.5199
50.52
50.52
50.5201
50.5203
50.5204
50.5206
50.5208
50.5211
50.5215
50.522
50.5224
50.5228
50.5231
50.5234
50.5238
50.5245
50.5264
50.532
50.5408
50.5486
50.5547
50.5586
50.5606
50.5613
50.5612
50.5593
50.5512
50.5376
50.5261
50.5179
50.5131
50.5112
50.511
50.5116
50.5144
50.5188
50.5223
50.5249
50.5266
50.5276
50.5282
50.5285
50.5286
50.5286
50.5285
50.5284
50.5282
50.5281
50.5281
50.528
50.528
50.528
50.528
50.5281
50.5281
50.5282
50.5282
50.5283
50.5284
50.5285
50.5285
50.5286
50.5288
50.5289
50.529
50.5291
50.5293
50.5294
50.5296
50.5298
50.53
50.5302
50.5304
50.5306
50.5309
50.5312
50.5314
50.5317
50.532
50.5324
50.5327
50.5331
50.5335
50.5339
50.5343
50.5347
50.5351
50.5356
50.5361
50.5365
50.537
50.5375
50.538
50.5385
50.539
50.5394
50.5399
50.5404
50.5409
50.5413
50.5417
50.5421
50.5425
50.5429
50.5432
50.5435
50.5438
50.544
50.5442
50.5443
50.5444
50.5445
50.5445
50.5445
50.5444
50.5442
50.544
50.5438
50.5435
50.5432
50.5428
50.5423
50.5418
50.5413
50.5407
50.5401
50.5394
50.5387
50.538
50.5372
50.5364
50.5356
50.5348
50.5339
50.533
50.5321
50.5312
50.5303
50.5294
50.5285
50.5276
50.5267
50.5258
50.525
50.524
50.5231
50.5219
50.5211
50.5132
50.5399
50.5419
50.5173
50.5108
50.5105
50.511
50.5113
50.5115
50.5117
50.5118
50.5119
50.512
50.512
50.512
50.512
50.512
50.512
50.512
50.512
50.512
50.512
50.512
50.512
50.512
50.512
50.512
50.512
50.512
50.512
50.512
50.5119
50.5119
50.5119
50.512
50.512
50.512
50.5121
50.5121
50.5122
50.5122
50.5122
50.5122
50.5122
50.5123
50.5123
50.5124
50.5124
50.5125
50.5126
50.5127
50.5128
50.5129
50.5131
50.5132
50.5134
50.5136
50.5139
50.5144
50.5149
50.5155
50.5161
50.5165
50.5169
50.5172
50.5176
50.5182
50.5194
50.5224
50.5268
50.5309
50.5343
50.5368
50.5383
50.539
50.5392
50.539
50.5372
50.5329
50.5289
50.5258
50.5238
50.5228
50.5225
50.5226
50.523
50.5242
50.5255
50.5264
50.5271
50.5275
50.5278
50.5279
50.528
50.528
50.5279
50.5279
50.5278
50.5278
50.5278
50.5278
50.5278
50.5279
50.5279
50.5279
50.528
50.528
50.5281
50.5282
50.5283
50.5283
50.5284
50.5285
50.5286
50.5288
50.5289
50.529
50.5291
50.5293
50.5294
50.5296
50.5298
50.53
50.5302
50.5304
50.5306
50.5309
50.5312
50.5314
50.5317
50.532
50.5324
50.5327
50.5331
50.5335
50.5339
50.5343
50.5347
50.5351
50.5356
50.5361
50.5365
50.537
50.5375
50.538
50.5385
50.539
50.5394
50.5399
50.5404
50.5409
50.5413
50.5417
50.5421
50.5425
50.5429
50.5432
50.5435
50.5438
50.544
50.5442
50.5443
50.5444
50.5445
50.5445
50.5445
50.5444
50.5442
50.544
50.5438
50.5435
50.5432
50.5428
50.5423
50.5418
50.5413
50.5407
50.5401
50.5394
50.5387
50.538
50.5372
50.5364
50.5356
50.5348
50.5339
50.533
50.5321
50.5312
50.5303
50.5294
50.5285
50.5276
50.5267
50.5258
50.5249
50.524
50.5231
50.522
50.5204
50.5151
50.5167
50.5488
50.5389
50.5331
50.5276
50.524
50.5224
50.5216
50.5213
50.521
50.5209
50.5208
50.5207
50.5208
50.5208
50.5208
50.5208
50.5208
50.5208
50.5208
50.5208
50.5208
50.5208
50.5208
50.5208
50.5208
50.5208
50.5208
50.5208
50.5208
50.5208
50.5208
50.5208
50.5208
50.5208
50.5208
50.5209
50.5209
50.5209
50.5209
50.521
50.521
50.521
50.521
50.5211
50.5211
50.5212
50.5212
50.5213
50.5213
50.5213
50.5214
50.5215
50.5216
50.5216
50.5216
50.5216
50.5216
50.5217
50.5219
50.5221
50.5223
50.5225
50.5226
50.5225
50.5224
50.5224
50.5226
50.5229
50.5232
50.5242
50.5258
50.5272
50.5281
50.5286
50.5288
50.5289
50.5287
50.5282
50.5277
50.5274
50.5271
50.5271
50.5271
50.5272
50.5273
50.5274
50.5275
50.5276
50.5276
50.5276
50.5276
50.5276
50.5276
50.5276
50.5276
50.5276
50.5276
50.5276
50.5277
50.5277
50.5278
50.5278
50.5279
50.528
50.528
50.5281
50.5282
50.5283
50.5283
50.5284
50.5285
50.5286
50.5288
50.5289
50.529
50.5291
50.5293
50.5294
50.5296
50.5298
50.53
50.5302
50.5304
50.5306
50.5309
50.5312
50.5314
50.5317
50.532
50.5324
50.5327
50.5331
50.5335
50.5339
50.5343
50.5347
50.5351
50.5356
50.5361
50.5365
50.537
50.5375
50.538
50.5385
50.539
50.5394
50.5399
50.5404
50.5409
50.5413
50.5417
50.5421
50.5425
50.5429
50.5432
50.5435
50.5438
50.544
50.5442
50.5443
50.5444
50.5445
50.5445
50.5445
50.5444
50.5442
50.544
50.5438
50.5435
50.5432
50.5428
50.5423
50.5418
50.5413
50.5407
50.5401
50.5394
50.5387
50.538
50.5372
50.5364
50.5356
50.5348
50.5339
50.533
50.5321
50.5312
50.5303
50.5294
50.5285
50.5276
50.5267
50.5258
50.5249
50.5241
50.5232
50.5222
50.521
50.5191
50.5146
50.4703
50.4805
50.4865
50.4913
50.4945
50.4961
50.4969
50.4971
50.4972
50.4972
50.4971
50.4971
50.4971
50.4971
50.4971
50.4971
50.4972
50.4972
50.4972
50.4972
50.4972
50.4972
50.4972
50.4972
50.4972
50.4972
50.4973
50.4973
50.4973
50.4974
50.4974
50.4974
50.4974
50.4973
50.4973
50.4974
50.4974
50.4975
50.4975
50.4976
50.4977
50.4979
50.498
50.4981
50.4983
50.4985
50.4987
50.499
50.4994
50.4997
50.5
50.5004
50.5008
50.5013
50.5019
50.5027
50.5035
50.5043
50.5051
50.5057
50.5062
50.5066
50.507
50.5076
50.5086
50.5108
50.514
50.5174
50.5208
50.5239
50.5265
50.5285
50.5299
50.5308
50.5312
50.5313
50.5312
50.5304
50.5292
50.5282
50.5275
50.527
50.5266
50.5264
50.5262
50.5262
50.5262
50.5262
50.5263
50.5264
50.5265
50.5266
50.5268
50.5269
50.527
50.5271
50.5272
50.5273
50.5274
50.5275
50.5276
50.5277
50.5278
50.5279
50.528
50.5281
50.5281
50.5282
50.5283
50.5284
50.5285
50.5286
50.5287
50.5289
50.529
50.5291
50.5293
50.5294
50.5296
50.5298
50.53
50.5302
50.5304
50.5306
50.5309
50.5312
50.5314
50.5317
50.532
50.5324
50.5327
50.5331
50.5335
50.5339
50.5343
50.5347
50.5351
50.5356
50.5361
50.5365
50.537
50.5375
50.538
50.5385
50.539
50.5394
50.5399
50.5404
50.5409
50.5413
50.5417
50.5421
50.5425
50.5429
50.5432
50.5435
50.5438
50.544
50.5442
50.5443
50.5444
50.5445
50.5445
50.5445
50.5444
50.5442
50.544
50.5438
50.5435
50.5432
50.5428
50.5423
50.5418
50.5413
50.5407
50.5401
50.5394
50.5387
50.538
50.5372
50.5364
50.5356
50.5348
50.5339
50.533
50.5321
50.5312
50.5303
50.5294
50.5285
50.5276
50.5267
50.5258
50.5249
50.5241
50.5233
50.5225
50.5219
50.5228
50.5183
50.5122
50.5337
50.5368
50.5349
50.5334
50.5327
50.5323
50.5321
50.5319
50.5319
50.5318
50.5318
50.5317
50.5316
50.5316
50.5315
50.5315
50.5316
50.5316
50.5317
50.5317
50.5317
50.5317
50.5317
50.5316
50.5316
50.5316
50.5316
50.5315
50.5315
50.5315
50.5315
50.5316
50.5316
50.5317
50.5317
50.5317
50.5318
50.5318
50.5319
50.5319
50.5319
50.5319
50.5319
50.532
50.532
50.5321
50.5322
50.5323
50.5324
50.5325
50.5326
50.5327
50.5328
50.5329
50.5329
50.533
50.5331
50.5332
50.5331
50.5329
50.5328
50.5329
50.533
50.533
50.5327
50.5318
50.5308
50.5302
50.53
50.5302
50.5305
50.5318
50.5347
50.5372
50.5387
50.5394
50.5395
50.5392
50.5374
50.5346
50.5322
50.5304
50.529
50.5281
50.5274
50.527
50.5267
50.5265
50.5265
50.5265
50.5266
50.5267
50.5268
50.5269
50.5271
50.5272
50.5273
50.5274
50.5275
50.5276
50.5277
50.5278
50.5279
50.528
50.528
50.5281
50.5282
50.5283
50.5284
50.5285
50.5286
50.5287
50.5289
50.529
50.5291
50.5293
50.5294
50.5296
50.5298
50.53
50.5302
50.5304
50.5306
50.5309
50.5312
50.5314
50.5317
50.532
50.5324
50.5327
50.5331
50.5335
50.5339
50.5343
50.5347
50.5351
50.5356
50.5361
50.5365
50.537
50.5375
50.538
50.5385
50.539
50.5394
50.5399
50.5404
50.5409
50.5413
50.5417
50.5421
50.5425
50.5429
50.5432
50.5435
50.5438
50.544
50.5442
50.5443
50.5444
50.5445
50.5445
50.5445
50.5444
50.5442
50.544
50.5438
50.5435
50.5432
50.5428
50.5423
50.5418
50.5413
50.5407
50.5401
50.5394
50.5387
50.538
50.5372
50.5364
50.5356
50.5348
50.5339
50.533
50.5321
50.5312
50.5303
50.5294
50.5285
50.5276
50.5267
50.5258
50.5249
50.5241
50.5233
50.5227
50.5227
50.5257
50.5245
50.4368
50.4816
50.4931
50.4969
50.4979
50.4982
50.4983
50.4984
50.4984
50.4983
50.4982
50.498
50.4978
50.4977
50.4977
50.4977
50.4977
50.4978
50.4979
50.4979
50.4979
50.4979
50.4978
50.4978
50.4978
50.4978
50.4978
50.4979
50.498
50.4981
50.4982
50.4982
50.4983
50.4983
50.4983
50.4983
50.4983
50.4983
50.4984
50.4985
50.4985
50.4986
50.4987
50.4987
50.4988
50.4987
50.4987
50.4987
50.4988
50.4989
50.4991
50.4994
50.5
50.5007
50.5014
50.5019
50.5024
50.5029
50.5033
50.5036
50.5039
50.5042
50.5045
50.5051
50.5062
50.5094
50.5139
50.5184
50.5226
50.5264
50.5295
50.532
50.5337
50.5348
50.5353
50.5355
50.5354
50.5345
50.5325
50.5306
50.5291
50.5279
50.527
50.5264
50.5259
50.5256
50.5255
50.5255
50.5256
50.5257
50.5259