/*--------------------------------*- C++ -*----------------------------------*\
| =========                 |                                                 |
| \\      /  F ield         | OpenFOAM: The Open Source CFD Toolbox           |
|  \\    /   O peration     | Version:  3.0.x                                 |
|   \\  /    A nd           | Web:      www.OpenFOAM.org                      |
|    \\/     M anipulation  |                                                 |
\*---------------------------------------------------------------------------*/
FoamFile
{
    version     2.0;
    format      ascii;
    class       volVectorField;
    location    "0.19995";
    object      U;
}
// * * * * * * * * * * * * * * * * * * * * * * * * * * * * * * * * * * * * * //

dimensions      [0 1 -1 0 0 0 0];

internalField   nonuniform List<vector> 
13800
(
(76.2002 0.000140928 0)
(76.2076 0.000123173 0)
(76.218 0.000121698 0)
(76.2271 0.000124055 0)
(76.2345 0.000126047 0)
(76.2416 0.000127669 0)
(76.249 0.000128999 0)
(76.2563 0.000130123 0)
(76.2635 0.000131025 0)
(76.2705 0.000131844 0)
(76.2775 0.000132574 0)
(76.2842 0.000132976 0)
(76.2908 0.000133521 0)
(76.2972 0.000133937 0)
(76.3033 0.000134266 0)
(76.3091 0.000134695 0)
(76.3146 0.000134885 0)
(76.3197 0.00013516 0)
(76.3243 0.000135382 0)
(76.3284 0.000135551 0)
(76.3318 0.000135753 0)
(76.3346 0.000135884 0)
(76.3367 0.000135999 0)
(76.338 0.000136099 0)
(76.3385 0.000136172 0)
(76.3381 0.00013623 0)
(76.3368 0.000136349 0)
(76.3345 0.000136361 0)
(76.3312 0.000136368 0)
(76.3267 0.000136534 0)
(76.3212 0.000136397 0)
(76.3146 0.000136487 0)
(76.3069 0.000136449 0)
(76.2982 0.00013661 0)
(76.2884 0.000136503 0)
(76.2777 0.000136525 0)
(76.266 0.000136517 0)
(76.2534 0.000136488 0)
(76.2398 0.000136431 0)
(76.2255 0.000136334 0)
(76.2105 0.000136182 0)
(76.1947 0.000135953 0)
(76.1784 0.000135619 0)
(76.1616 0.000135149 0)
(76.1444 0.000134503 0)
(76.1268 0.000133636 0)
(76.109 0.000132499 0)
(76.0911 0.00013104 0)
(76.0732 0.000129207 0)
(76.0553 0.00012695 0)
(76.0376 0.000124223 0)
(76.0201 0.000120988 0)
(76.0029 0.000117223 0)
(75.9861 0.000112919 0)
(75.9698 0.000108089 0)
(75.9541 0.000102761 0)
(75.9389 9.69824e-05 0)
(75.9244 9.0819e-05 0)
(75.9105 8.43522e-05 0)
(75.8974 7.76764e-05 0)
(75.885 7.08939e-05 0)
(75.8734 6.41103e-05 0)
(75.8626 5.74296e-05 0)
(75.8525 5.09493e-05 0)
(75.8432 4.47564e-05 0)
(75.8346 3.89243e-05 0)
(75.8267 3.35108e-05 0)
(75.8196 2.85567e-05 0)
(75.8131 2.4086e-05 0)
(75.8072 2.01067e-05 0)
(75.8019 1.66128e-05 0)
(75.7972 1.35859e-05 0)
(75.7931 1.0998e-05 0)
(75.7894 8.81401e-06 0)
(75.7861 6.99453e-06 0)
(75.7833 5.49794e-06 0)
(75.7809 4.28226e-06 0)
(75.7789 3.30709e-06 0)
(75.7771 2.53442e-06 0)
(75.7757 1.92991e-06 0)
(75.7746 1.4633e-06 0)
(75.7737 1.10754e-06 0)
(75.7731 8.40109e-07 0)
(75.7727 6.44257e-07 0)
(75.7724 5.01715e-07 0)
(75.7725 3.96623e-07 0)
(75.7727 3.23934e-07 0)
(75.7731 2.74217e-07 0)
(75.7737 2.41174e-07 0)
(75.7744 2.20364e-07 0)
(75.7753 2.08443e-07 0)
(75.7763 2.02904e-07 0)
(75.7774 2.01853e-07 0)
(75.7786 2.0398e-07 0)
(75.7799 2.08409e-07 0)
(75.7813 2.14491e-07 0)
(75.7827 2.2201e-07 0)
(75.7842 2.30937e-07 0)
(75.7856 2.41121e-07 0)
(75.787 2.52309e-07 0)
(75.7883 2.64374e-07 0)
(75.7895 2.77222e-07 0)
(75.7905 2.90843e-07 0)
(75.7912 3.05033e-07 0)
(75.7917 3.19672e-07 0)
(75.7919 3.34768e-07 0)
(75.7916 3.49734e-07 0)
(75.7908 3.65181e-07 0)
(75.7895 3.80431e-07 0)
(75.7875 3.95216e-07 0)
(75.7848 4.09377e-07 0)
(75.7814 4.22995e-07 0)
(75.7771 4.35123e-07 0)
(75.772 4.46093e-07 0)
(75.7659 4.5535e-07 0)
(75.7589 4.6265e-07 0)
(75.7509 4.67846e-07 0)
(75.7419 4.70377e-07 0)
(75.732 4.69959e-07 0)
(75.7211 4.66732e-07 0)
(75.7093 4.6007e-07 0)
(75.6966 4.49346e-07 0)
(75.6832 4.34806e-07 0)
(75.6692 4.15996e-07 0)
(75.6545 3.93314e-07 0)
(75.6395 3.66287e-07 0)
(75.6241 3.34659e-07 0)
(75.6085 2.99326e-07 0)
(75.5929 2.60255e-07 0)
(75.5773 2.17741e-07 0)
(75.5619 1.72078e-07 0)
(75.5468 1.23944e-07 0)
(75.5321 7.36787e-08 0)
(75.518 2.6555e-08 0)
(75.5042 8.12145e-09 0)
(75.4906 -2.65151e-10 0)
(75.4783 -1.68524e-07 0)
(75.4674 -2.0671e-07 0)
(75.4573 -2.31112e-07 0)
(75.4477 -2.71337e-07 0)
(75.4389 -3.15112e-07 0)
(75.4309 -3.55277e-07 0)
(75.4236 -3.91306e-07 0)
(75.4171 -4.2243e-07 0)
(75.4113 -4.49449e-07 0)
(75.4061 -4.72373e-07 0)
(75.4014 -4.90431e-07 0)
(75.3972 -5.03463e-07 0)
(75.3933 -5.12091e-07 0)
(75.3897 -5.15708e-07 0)
(75.3862 -5.14892e-07 0)
(75.3828 -5.09847e-07 0)
(75.3795 -5.0102e-07 0)
(75.3761 -4.8839e-07 0)
(75.3727 -4.72665e-07 0)
(75.3691 -4.5412e-07 0)
(75.3655 -4.33359e-07 0)
(75.3617 -4.10716e-07 0)
(75.3577 -3.86736e-07 0)
(75.3537 -3.6178e-07 0)
(75.3496 -3.36562e-07 0)
(75.3454 -3.11195e-07 0)
(75.3411 -2.86207e-07 0)
(75.3368 -2.61709e-07 0)
(75.3326 -2.38275e-07 0)
(75.3284 -2.16025e-07 0)
(75.3243 -1.95034e-07 0)
(75.3204 -1.75444e-07 0)
(75.3165 -1.57066e-07 0)
(75.3129 -1.39167e-07 0)
(75.3094 -1.2164e-07 0)
(75.3061 -1.04709e-07 0)
(75.3031 -8.87557e-08 0)
(75.3003 -7.38967e-08 0)
(75.2977 -6.01018e-08 0)
(75.2954 -4.73244e-08 0)
(75.2932 -3.48979e-08 0)
(75.2913 -2.25875e-08 0)
(75.2896 -1.37346e-08 0)
(75.2882 -6.38009e-09 0)
(75.2868 4.63557e-10 0)
(75.2857 6.32063e-09 0)
(75.2847 1.18704e-08 0)
(75.2839 1.46785e-08 0)
(75.2832 3.51618e-08 0)
(75.2826 4.20091e-08 0)
(75.2821 3.61277e-08 0)
(75.2817 4.03039e-08 0)
(75.2813 3.99515e-08 0)
(75.2811 6.98314e-08 0)
(75.2809 2.01084e-07 0)
(75.2807 8.4168e-07 0)
(75.2805 4.00013e-06 0)
(75.2799 1.92628e-05 0)
(75.2772 9.36226e-05 0)
(75.2653 0.00045084 0)
(75.2113 0.00203583 0)
(74.9618 0.00932065 0)
(74.1342 0.0467042 0)
(66.4796 0.189731 0)
(76.2041 0.000222091 0)
(76.2153 0.00016298 0)
(76.2297 0.000149834 0)
(76.2427 0.000147999 0)
(76.2539 0.000146377 0)
(76.2649 0.000144944 0)
(76.2762 0.000143815 0)
(76.2875 0.000142943 0)
(76.2985 0.000142157 0)
(76.3095 0.000141616 0)
(76.3203 0.000141217 0)
(76.331 0.00014049 0)
(76.3414 0.000140229 0)
(76.3517 0.000139906 0)
(76.3617 0.000139566 0)
(76.3715 0.000139532 0)
(76.3808 0.000139157 0)
(76.3898 0.00013904 0)
(76.3983 0.000138898 0)
(76.4063 0.00013873 0)
(76.4137 0.000138684 0)
(76.4204 0.000138557 0)
(76.4264 0.000138452 0)
(76.4316 0.00013836 0)
(76.436 0.00013825 0)
(76.4395 0.000138149 0)
(76.4421 0.000138191 0)
(76.4437 0.000138051 0)
(76.4443 0.000137926 0)
(76.4437 0.000138116 0)
(76.4421 0.000137747 0)
(76.4394 0.000137822 0)
(76.4356 0.000137671 0)
(76.4308 0.000137899 0)
(76.4249 0.000137641 0)
(76.4181 0.000137641 0)
(76.4103 0.000137594 0)
(76.4015 0.000137526 0)
(76.3919 0.000137436 0)
(76.3815 0.000137309 0)
(76.3703 0.000137128 0)
(76.3585 0.000136871 0)
(76.346 0.00013651 0)
(76.3331 0.000136011 0)
(76.3197 0.000135333 0)
(76.306 0.000134432 0)
(76.292 0.000133256 0)
(76.2779 0.000131752 0)
(76.2636 0.000129868 0)
(76.2494 0.000127554 0)
(76.2353 0.000124764 0)
(76.2213 0.000121458 0)
(76.2075 0.000117615 0)
(76.194 0.00011323 0)
(76.1808 0.000108316 0)
(76.1681 0.000102903 0)
(76.1558 9.70411e-05 0)
(76.1439 9.07975e-05 0)
(76.1326 8.42562e-05 0)
(76.1218 7.75135e-05 0)
(76.1115 7.06733e-05 0)
(76.1018 6.38426e-05 0)
(76.0927 5.71261e-05 0)
(76.0842 5.06215e-05 0)
(76.0762 4.44153e-05 0)
(76.0688 3.85803e-05 0)
(76.062 3.31728e-05 0)
(76.0557 2.82326e-05 0)
(76.0499 2.37819e-05 0)
(76.0447 1.98272e-05 0)
(76.0399 1.63609e-05 0)
(76.0356 1.33635e-05 0)
(76.0318 1.08054e-05 0)
(76.0284 8.65088e-06 0)
(76.0254 6.85954e-06 0)
(76.0227 5.38939e-06 0)
(76.0204 4.19796e-06 0)
(76.0185 3.24466e-06 0)
(76.0168 2.49098e-06 0)
(76.0155 1.90229e-06 0)
(76.0144 1.44842e-06 0)
(76.0135 1.10182e-06 0)
(76.0129 8.40528e-07 0)
(76.0125 6.50498e-07 0)
(76.0123 5.11909e-07 0)
(76.0123 4.07148e-07 0)
(76.0125 3.36078e-07 0)
(76.0129 2.88326e-07 0)
(76.0135 2.57623e-07 0)
(76.0142 2.39776e-07 0)
(76.0151 2.31507e-07 0)
(76.0161 2.30357e-07 0)
(76.0172 2.34427e-07 0)
(76.0184 2.42408e-07 0)
(76.0197 2.53457e-07 0)
(76.0211 2.66869e-07 0)
(76.0225 2.82403e-07 0)
(76.0239 2.99969e-07 0)
(76.0254 3.19388e-07 0)
(76.0267 3.40421e-07 0)
(76.028 3.62969e-07 0)
(76.0292 3.86882e-07 0)
(76.0302 4.12108e-07 0)
(76.031 4.38362e-07 0)
(76.0315 4.65558e-07 0)
(76.0316 4.93783e-07 0)
(76.0313 5.21933e-07 0)
(76.0305 5.50997e-07 0)
(76.0292 5.79776e-07 0)
(76.0272 6.07886e-07 0)
(76.0245 6.35208e-07 0)
(76.0211 6.61778e-07 0)
(76.0168 6.85961e-07 0)
(76.0117 7.08106e-07 0)
(76.0056 7.27317e-07 0)
(75.9986 7.43214e-07 0)
(75.9906 7.55492e-07 0)
(75.9817 7.6323e-07 0)
(75.9717 7.66029e-07 0)
(75.9608 7.64008e-07 0)
(75.949 7.56085e-07 0)
(75.9364 7.41327e-07 0)
(75.9229 7.20121e-07 0)
(75.9089 6.91759e-07 0)
(75.8942 6.56856e-07 0)
(75.8792 6.14648e-07 0)
(75.8638 5.64849e-07 0)
(75.8482 5.089e-07 0)
(75.8325 4.46729e-07 0)
(75.817 3.78933e-07 0)
(75.8016 3.05789e-07 0)
(75.7865 2.2807e-07 0)
(75.7718 1.45997e-07 0)
(75.7576 6.74794e-08 0)
(75.7438 4.20818e-08 0)
(75.7302 2.38682e-08 0)
(75.7179 -2.60668e-07 0)
(75.707 -3.06554e-07 0)
(75.6969 -3.36288e-07 0)
(75.6873 -3.97911e-07 0)
(75.6785 -4.66147e-07 0)
(75.6704 -5.28575e-07 0)
(75.6632 -5.84275e-07 0)
(75.6566 -6.3179e-07 0)
(75.6508 -6.72452e-07 0)
(75.6456 -7.06359e-07 0)
(75.6409 -7.32184e-07 0)
(75.6366 -7.49739e-07 0)
(75.6327 -7.6018e-07 0)
(75.6291 -7.62746e-07 0)
(75.6256 -7.583e-07 0)
(75.6222 -7.4713e-07 0)
(75.6188 -7.30065e-07 0)
(75.6154 -7.07196e-07 0)
(75.612 -6.7999e-07 0)
(75.6084 -6.48685e-07 0)
(75.6047 -6.14456e-07 0)
(75.6009 -5.77471e-07 0)
(75.597 -5.38901e-07 0)
(75.5929 -4.9909e-07 0)
(75.5888 -4.59433e-07 0)
(75.5845 -4.19902e-07 0)
(75.5803 -3.81547e-07 0)
(75.576 -3.43505e-07 0)
(75.5717 -3.07169e-07 0)
(75.5675 -2.72961e-07 0)
(75.5634 -2.41066e-07 0)
(75.5594 -2.10428e-07 0)
(75.5556 -1.82119e-07 0)
(75.5519 -1.5554e-07 0)
(75.5485 -1.30602e-07 0)
(75.5452 -1.0713e-07 0)
(75.5421 -8.57454e-08 0)
(75.5393 -6.62004e-08 0)
(75.5367 -4.81264e-08 0)
(75.5344 -3.2578e-08 0)
(75.5322 -1.90814e-08 0)
(75.5303 -8.79902e-09 0)
(75.5286 1.07539e-09 0)
(75.5271 1.1398e-08 0)
(75.5258 2.16482e-08 0)
(75.5246 2.98696e-08 0)
(75.5237 3.76179e-08 0)
(75.5228 5.09599e-08 0)
(75.5221 3.24712e-08 0)
(75.5215 3.7516e-08 0)
(75.521 3.96973e-08 0)
(75.5206 7.90154e-08 0)
(75.5202 8.82387e-08 0)
(75.52 1.99516e-07 0)
(75.5197 6.53627e-07 0)
(75.5196 2.88506e-06 0)
(75.5193 1.36313e-05 0)
(75.5187 6.56095e-05 0)
(75.516 0.000318817 0)
(75.5042 0.00153554 0)
(75.4504 0.00693609 0)
(75.2021 0.0316918 0)
(74.3772 0.155921 0)
(67.1381 0.597236 0)
(76.2041 0.000163632 0)
(76.2153 0.000114 0)
(76.2296 0.000106877 0)
(76.2427 0.000110125 0)
(76.2539 0.000111468 0)
(76.2649 0.000111944 0)
(76.2762 0.00011235 0)
(76.2875 0.000112725 0)
(76.2985 0.000112986 0)
(76.3095 0.000113302 0)
(76.3203 0.000113604 0)
(76.331 0.000113581 0)
(76.3414 0.000113838 0)
(76.3517 0.00011399 0)
(76.3617 0.000114076 0)
(76.3715 0.000114364 0)
(76.3809 0.00011433 0)
(76.3899 0.000114485 0)
(76.3984 0.000114585 0)
(76.4063 0.00011464 0)
(76.4137 0.000114776 0)
(76.4205 0.00011482 0)
(76.4265 0.000114871 0)
(76.4317 0.000114917 0)
(76.4361 0.000114929 0)
(76.4396 0.000114949 0)
(76.4421 0.000115076 0)
(76.4438 0.000115035 0)
(76.4444 0.000115007 0)
(76.4438 0.00011523 0)
(76.4422 0.00011497 0)
(76.4395 0.000115084 0)
(76.4357 0.000115009 0)
(76.4309 0.00011524 0)
(76.425 0.000115064 0)
(76.4182 0.0001151 0)
(76.4104 0.000115088 0)
(76.4017 0.000115058 0)
(76.3921 0.000115006 0)
(76.3816 0.00011492 0)
(76.3705 0.000114787 0)
(76.3586 0.000114587 0)
(76.3462 0.000114297 0)
(76.3333 0.000113889 0)
(76.3199 0.000113329 0)
(76.3062 0.000112579 0)
(76.2922 0.000111595 0)
(76.2781 0.000110335 0)
(76.2639 0.000108753 0)
(76.2496 0.000106808 0)
(76.2355 0.000104461 0)
(76.2215 0.000101681 0)
(76.2077 9.84492e-05 0)
(76.1942 9.47621e-05 0)
(76.1811 9.06307e-05 0)
(76.1683 8.60813e-05 0)
(76.156 8.11563e-05 0)
(76.1441 7.59132e-05 0)
(76.1328 7.04228e-05 0)
(76.122 6.47662e-05 0)
(76.1117 5.90308e-05 0)
(76.102 5.33063e-05 0)
(76.0929 4.76803e-05 0)
(76.0844 4.22345e-05 0)
(76.0764 3.70411e-05 0)
(76.069 3.21606e-05 0)
(76.0621 2.76397e-05 0)
(76.0558 2.35112e-05 0)
(76.0501 1.97934e-05 0)
(76.0448 1.64912e-05 0)
(76.0401 1.35977e-05 0)
(76.0358 1.1096e-05 0)
(76.0319 8.96149e-06 0)
(76.0285 7.16396e-06 0)
(76.0255 5.66926e-06 0)
(76.0228 4.4424e-06 0)
(76.0205 3.44798e-06 0)
(76.0186 2.6522e-06 0)
(76.0169 2.02304e-06 0)
(76.0156 1.53185e-06 0)
(76.0145 1.15381e-06 0)
(76.0136 8.66028e-07 0)
(76.013 6.50101e-07 0)
(76.0126 4.94361e-07 0)
(76.0124 3.81411e-07 0)
(76.0124 2.96454e-07 0)
(76.0126 2.39089e-07 0)
(76.0131 2.00533e-07 0)
(76.0136 1.75498e-07 0)
(76.0143 1.60532e-07 0)
(76.0152 1.53e-07 0)
(76.0162 1.50976e-07 0)
(76.0173 1.53029e-07 0)
(76.0185 1.58199e-07 0)
(76.0198 1.65869e-07 0)
(76.0212 1.75493e-07 0)
(76.0226 1.86725e-07 0)
(76.024 1.9932e-07 0)
(76.0255 2.13175e-07 0)
(76.0269 2.28131e-07 0)
(76.0282 2.44092e-07 0)
(76.0293 2.60983e-07 0)
(76.0303 2.78806e-07 0)
(76.0311 2.97344e-07 0)
(76.0316 3.16526e-07 0)
(76.0317 3.36394e-07 0)
(76.0314 3.56081e-07 0)
(76.0306 3.76403e-07 0)
(76.0293 3.96594e-07 0)
(76.0273 4.16216e-07 0)
(76.0246 4.35135e-07 0)
(76.0212 4.53349e-07 0)
(76.0169 4.69782e-07 0)
(76.0118 4.84659e-07 0)
(76.0057 4.97367e-07 0)
(75.9987 5.07576e-07 0)
(75.9907 5.15088e-07 0)
(75.9818 5.19287e-07 0)
(75.9718 5.19878e-07 0)
(75.9609 5.16895e-07 0)
(75.9491 5.09576e-07 0)
(75.9365 4.97293e-07 0)
(75.9231 4.8032e-07 0)
(75.909 4.58223e-07 0)
(75.8944 4.31419e-07 0)
(75.8793 3.99433e-07 0)
(75.8639 3.62095e-07 0)
(75.8483 3.20399e-07 0)
(75.8327 2.74366e-07 0)
(75.8171 2.24484e-07 0)
(75.8017 1.71141e-07 0)
(75.7866 1.15078e-07 0)
(75.7719 5.63893e-08 0)
(75.7577 2.5604e-09 0)
(75.744 -5.09664e-09 0)
(75.7303 -2.25878e-08 0)
(75.718 -2.39346e-07 0)
(75.7072 -2.61123e-07 0)
(75.697 -2.77356e-07 0)
(75.6874 -3.21438e-07 0)
(75.6786 -3.69899e-07 0)
(75.6705 -4.13163e-07 0)
(75.6633 -4.50792e-07 0)
(75.6568 -4.82373e-07 0)
(75.6509 -5.08914e-07 0)
(75.6457 -5.30452e-07 0)
(75.641 -5.4619e-07 0)
(75.6367 -5.56089e-07 0)
(75.6328 -5.60892e-07 0)
(75.6292 -5.60202e-07 0)
(75.6257 -5.54687e-07 0)
(75.6223 -5.4461e-07 0)
(75.6189 -5.30704e-07 0)
(75.6155 -5.12881e-07 0)
(75.6121 -4.92392e-07 0)
(75.6085 -4.69046e-07 0)
(75.6048 -4.44216e-07 0)
(75.601 -4.17452e-07 0)
(75.5971 -3.90133e-07 0)
(75.593 -3.62024e-07 0)
(75.5889 -3.34349e-07 0)
(75.5846 -3.06856e-07 0)
(75.5804 -2.80631e-07 0)
(75.5761 -2.53974e-07 0)
(75.5718 -2.29054e-07 0)
(75.5677 -2.0582e-07 0)
(75.5635 -1.84347e-07 0)
(75.5596 -1.62388e-07 0)
(75.5557 -1.43244e-07 0)
(75.552 -1.25517e-07 0)
(75.5486 -1.09274e-07 0)
(75.5453 -9.38822e-08 0)
(75.5422 -8.03429e-08 0)
(75.5394 -6.79689e-08 0)
(75.5368 -5.63458e-08 0)
(75.5345 -4.66647e-08 0)
(75.5323 -3.79623e-08 0)
(75.5304 -2.91912e-08 0)
(75.5287 -2.04955e-08 0)
(75.5272 -1.32038e-08 0)
(75.5259 -6.81312e-09 0)
(75.5248 -1.82244e-09 0)
(75.5238 4.47945e-09 0)
(75.5229 9.06733e-09 0)
(75.5222 2.02761e-08 0)
(75.5216 5.07714e-08 0)
(75.5211 1.3653e-08 0)
(75.5207 5.3901e-08 0)
(75.5203 5.1427e-08 0)
(75.5201 2.45447e-07 0)
(75.5198 1.09764e-06 0)
(75.5197 5.5591e-06 0)
(75.5194 2.68548e-05 0)
(75.5188 0.000130014 0)
(75.5162 0.000632138 0)
(75.5047 0.00304774 0)
(75.4522 0.0137754 0)
(75.2102 0.0629223 0)
(74.4093 0.308432 0)
(67.5678 1.15272 0)
(76.2041 0.000118185 0)
(76.2153 0.000102846 0)
(76.2296 9.90914e-05 0)
(76.2426 0.000103154 0)
(76.2539 0.000105738 0)
(76.2649 0.00010703 0)
(76.2762 0.000108117 0)
(76.2874 0.000109076 0)
(76.2985 0.000109848 0)
(76.3095 0.000110548 0)
(76.3203 0.000111156 0)
(76.3309 0.000111534 0)
(76.3414 0.000111994 0)
(76.3517 0.000112362 0)
(76.3617 0.000112657 0)
(76.3714 0.000113041 0)
(76.3808 0.000113208 0)
(76.3898 0.000113466 0)
(76.3983 0.000113672 0)
(76.4063 0.000113833 0)
(76.4137 0.000114025 0)
(76.4204 0.000114147 0)
(76.4264 0.000114263 0)
(76.4316 0.000114362 0)
(76.436 0.000114425 0)
(76.4395 0.000114499 0)
(76.4421 0.000114623 0)
(76.4438 0.000114637 0)
(76.4443 0.000114662 0)
(76.4438 0.00011482 0)
(76.4421 0.000114691 0)
(76.4394 0.000114783 0)
(76.4357 0.000114762 0)
(76.4308 0.000114926 0)
(76.425 0.00011484 0)
(76.4182 0.000114873 0)
(76.4104 0.000114877 0)
(76.4016 0.000114863 0)
(76.392 0.000114828 0)
(76.3816 0.000114759 0)
(76.3704 0.000114644 0)
(76.3586 0.000114464 0)
(76.3462 0.000114196 0)
(76.3332 0.000113815 0)
(76.3198 0.000113285 0)
(76.3061 0.000112571 0)
(76.2922 0.00011163 0)
(76.278 0.000110419 0)
(76.2638 0.000108894 0)
(76.2496 0.000107013 0)
(76.2355 0.000104737 0)
(76.2215 0.000102034 0)
(76.2077 9.88835e-05 0)
(76.1942 9.528e-05 0)
(76.181 9.12318e-05 0)
(76.1683 8.67625e-05 0)
(76.156 8.1912e-05 0)
(76.1441 7.67348e-05 0)
(76.1328 7.12994e-05 0)
(76.122 6.56849e-05 0)
(76.1117 5.99771e-05 0)
(76.102 5.42648e-05 0)
(76.0929 4.86358e-05 0)
(76.0843 4.31723e-05 0)
(76.0764 3.7948e-05 0)
(76.069 3.30249e-05 0)
(76.0621 2.84522e-05 0)
(76.0558 2.4265e-05 0)
(76.0501 2.0484e-05 0)
(76.0448 1.71165e-05 0)
(76.0401 1.41576e-05 0)
(76.0358 1.15925e-05 0)
(76.0319 9.39791e-06 0)
(76.0285 7.54473e-06 0)
(76.0255 5.99957e-06 0)
(76.0228 4.72789e-06 0)
(76.0205 3.69437e-06 0)
(76.0186 2.865e-06 0)
(76.0169 2.20745e-06 0)
(76.0156 1.69263e-06 0)
(76.0145 1.29508e-06 0)
(76.0136 9.91844e-07 0)
(76.013 7.63816e-07 0)
(76.0126 5.9758e-07 0)
(76.0124 4.76346e-07 0)
(76.0124 3.86703e-07 0)
(76.0126 3.24828e-07 0)
(76.0131 2.82605e-07 0)
(76.0136 2.54536e-07 0)
(76.0143 2.36892e-07 0)
(76.0152 2.26866e-07 0)
(76.0162 2.22382e-07 0)
(76.0173 2.21909e-07 0)
(76.0185 2.24404e-07 0)
(76.0198 2.2918e-07 0)
(76.0212 2.3568e-07 0)
(76.0226 2.4355e-07 0)
(76.024 2.52591e-07 0)
(76.0255 2.62684e-07 0)
(76.0269 2.73649e-07 0)
(76.0282 2.85367e-07 0)
(76.0293 2.97806e-07 0)
(76.0303 3.10953e-07 0)
(76.0311 3.24631e-07 0)
(76.0316 3.38755e-07 0)
(76.0317 3.53318e-07 0)
(76.0314 3.67822e-07 0)
(76.0306 3.82655e-07 0)
(76.0293 3.97512e-07 0)
(76.0273 4.11954e-07 0)
(76.0246 4.25822e-07 0)
(76.0212 4.39143e-07 0)
(76.0169 4.5123e-07 0)
(76.0118 4.6218e-07 0)
(76.0057 4.7162e-07 0)
(75.9987 4.79244e-07 0)
(75.9907 4.84927e-07 0)
(75.9818 4.88241e-07 0)
(75.9718 4.88898e-07 0)
(75.9609 4.86923e-07 0)
(75.9491 4.81812e-07 0)
(75.9365 4.73046e-07 0)
(75.9231 4.60762e-07 0)
(75.909 4.44692e-07 0)
(75.8944 4.25065e-07 0)
(75.8793 4.01581e-07 0)
(75.8639 3.74032e-07 0)
(75.8483 3.43069e-07 0)
(75.8327 3.08776e-07 0)
(75.8171 2.71378e-07 0)
(75.8017 2.3117e-07 0)
(75.7866 1.88686e-07 0)
(75.7719 1.44282e-07 0)
(75.7577 1.04137e-07 0)
(75.744 9.37189e-08 0)
(75.7303 7.53224e-08 0)
(75.718 -7.11188e-08 0)
(75.7072 -9.76648e-08 0)
(75.697 -1.16026e-07 0)
(75.6874 -1.51756e-07 0)
(75.6786 -1.90587e-07 0)
(75.6705 -2.25873e-07 0)
(75.6633 -2.57137e-07 0)
(75.6568 -2.84311e-07 0)
(75.6509 -3.07779e-07 0)
(75.6457 -3.2755e-07 0)
(75.641 -3.43203e-07 0)
(75.6367 -3.54485e-07 0)
(75.6328 -3.61818e-07 0)
(75.6292 -3.64914e-07 0)
(75.6257 -3.64347e-07 0)
(75.6223 -3.5995e-07 0)
(75.6189 -3.52686e-07 0)
(75.6155 -3.41677e-07 0)
(75.6121 -3.29048e-07 0)
(75.6085 -3.13037e-07 0)
(75.6048 -2.96327e-07 0)
(75.601 -2.76843e-07 0)
(75.5971 -2.57412e-07 0)
(75.593 -2.36397e-07 0)
(75.5889 -2.16079e-07 0)
(75.5846 -1.95357e-07 0)
(75.5804 -1.75845e-07 0)
(75.5761 -1.5359e-07 0)
(75.5718 -1.33287e-07 0)
(75.5677 -1.16048e-07 0)
(75.5635 -1.00077e-07 0)
(75.5596 -8.16331e-08 0)
(75.5557 -6.60881e-08 0)
(75.552 -5.35727e-08 0)
(75.5486 -4.05154e-08 0)
(75.5453 -2.69444e-08 0)
(75.5422 -1.53372e-08 0)
(75.5394 -4.62938e-09 0)
(75.5368 6.06976e-09 0)
(75.5345 1.53693e-08 0)
(75.5323 2.53058e-08 0)
(75.5304 3.65406e-08 0)
(75.5287 4.48317e-08 0)
(75.5272 5.09952e-08 0)
(75.5259 5.76983e-08 0)
(75.5248 6.0508e-08 0)
(75.5238 6.64307e-08 0)
(75.5229 5.27546e-08 0)
(75.5222 9.16694e-08 0)
(75.5216 5.64129e-08 0)
(75.5211 3.07343e-08 0)
(75.5207 1.82759e-07 0)
(75.5203 2.31661e-07 0)
(75.5201 7.69768e-07 0)
(75.5199 2.92778e-06 0)
(75.5197 1.43622e-05 0)
(75.5195 6.81461e-05 0)
(75.5189 0.00032913 0)
(75.5166 0.00159749 0)
(75.5064 0.00773375 0)
(75.4598 0.0348155 0)
(75.2485 0.156942 0)
(74.5551 0.711288 0)
(69.3539 2.6034 0)
(76.204 3.57231e-05 0)
(76.2153 2.86647e-05 0)
(76.2296 2.03589e-05 0)
(76.2426 1.69689e-05 0)
(76.2539 1.45774e-05 0)
(76.2649 1.23155e-05 0)
(76.2762 1.05176e-05 0)
(76.2874 9.08496e-06 0)
(76.2985 7.89396e-06 0)
(76.3094 6.90507e-06 0)
(76.3203 6.06959e-06 0)
(76.3309 5.32975e-06 0)
(76.3414 4.71467e-06 0)
(76.3517 4.17763e-06 0)
(76.3617 3.70355e-06 0)
(76.3714 3.31829e-06 0)
(76.3808 2.93657e-06 0)
(76.3898 2.62902e-06 0)
(76.3983 2.35314e-06 0)
(76.4063 2.10422e-06 0)
(76.4137 1.89717e-06 0)
(76.4204 1.70198e-06 0)
(76.4264 1.53223e-06 0)
(76.4316 1.38048e-06 0)
(76.436 1.23799e-06 0)
(76.4395 1.12205e-06 0)
(76.4421 1.0311e-06 0)
(76.4437 9.24308e-07 0)
(76.4443 8.3698e-07 0)
(76.4437 7.84395e-07 0)
(76.4421 6.75414e-07 0)
(76.4394 6.26646e-07 0)
(76.4356 5.57343e-07 0)
(76.4308 5.4501e-07 0)
(76.425 4.72249e-07 0)
(76.4182 4.33973e-07 0)
(76.4104 3.96322e-07 0)
(76.4016 3.6085e-07 0)
(76.392 3.28764e-07 0)
(76.3816 2.9934e-07 0)
(76.3704 2.72146e-07 0)
(76.3586 2.46874e-07 0)
(76.3461 2.22935e-07 0)
(76.3332 2.00062e-07 0)
(76.3198 1.77571e-07 0)
(76.3061 1.54959e-07 0)
(76.2921 1.31563e-07 0)
(76.278 1.06898e-07 0)
(76.2638 8.06137e-08 0)
(76.2496 5.28163e-08 0)
(76.2354 2.29034e-08 0)
(76.2214 -9.72527e-09 0)
(76.2077 -4.46032e-08 0)
(76.1942 -8.08039e-08 0)
(76.181 -1.17467e-07 0)
(76.1683 -1.53872e-07 0)
(76.1559 -1.89169e-07 0)
(76.1441 -2.22433e-07 0)
(76.1328 -2.52664e-07 0)
(76.1219 -2.78783e-07 0)
(76.1117 -2.99983e-07 0)
(76.102 -3.15662e-07 0)
(76.0929 -3.25475e-07 0)
(76.0843 -3.29334e-07 0)
(76.0764 -3.27478e-07 0)
(76.069 -3.20416e-07 0)
(76.0621 -3.0878e-07 0)
(76.0558 -2.93301e-07 0)
(76.0501 -2.74839e-07 0)
(76.0448 -2.54317e-07 0)
(76.0401 -2.32625e-07 0)
(76.0358 -2.10417e-07 0)
(76.0319 -1.88298e-07 0)
(76.0285 -1.66803e-07 0)
(76.0255 -1.46436e-07 0)
(76.0228 -1.27305e-07 0)
(76.0205 -1.09682e-07 0)
(76.0186 -9.37767e-08 0)
(76.0169 -8.00246e-08 0)
(76.0156 -6.87022e-08 0)
(76.0145 -5.98852e-08 0)
(76.0136 -5.36602e-08 0)
(76.013 -4.97235e-08 0)
(76.0126 -4.66659e-08 0)
(76.0124 -4.50653e-08 0)
(76.0124 -4.49513e-08 0)
(76.0126 -4.45406e-08 0)
(76.0131 -4.38715e-08 0)
(76.0136 -4.29019e-08 0)
(76.0143 -4.15139e-08 0)
(76.0152 -3.96771e-08 0)
(76.0162 -3.74012e-08 0)
(76.0173 -3.47081e-08 0)
(76.0185 -3.16222e-08 0)
(76.0198 -2.81609e-08 0)
(76.0212 -2.43539e-08 0)
(76.0226 -2.022e-08 0)
(76.024 -1.57682e-08 0)
(76.0255 -1.1022e-08 0)
(76.0269 -5.99412e-09 0)
(76.0282 -6.88667e-10 0)
(76.0293 4.88587e-09 0)
(76.0303 1.0681e-08 0)
(76.0311 1.66389e-08 0)
(76.0316 2.27744e-08 0)
(76.0317 2.91312e-08 0)
(76.0314 3.55412e-08 0)
(76.0306 4.19671e-08 0)
(76.0293 4.83357e-08 0)
(76.0273 5.4558e-08 0)
(76.0246 6.06093e-08 0)
(76.0212 6.64867e-08 0)
(76.0169 7.191e-08 0)
(76.0118 7.67819e-08 0)
(76.0057 8.10031e-08 0)
(75.9987 8.44711e-08 0)
(75.9907 8.71153e-08 0)
(75.9818 8.87704e-08 0)
(75.9718 8.93571e-08 0)
(75.9609 8.88635e-08 0)
(75.9491 8.70991e-08 0)
(75.9365 8.38979e-08 0)
(75.9231 7.9299e-08 0)
(75.909 7.3237e-08 0)
(75.8944 6.57559e-08 0)
(75.8793 5.67767e-08 0)
(75.8639 4.626e-08 0)
(75.8483 3.4426e-08 0)
(75.8327 2.13348e-08 0)
(75.8171 7.0349e-09 0)
(75.8017 -8.53682e-09 0)
(75.7866 -2.54759e-08 0)
(75.7719 -4.36194e-08 0)
(75.7577 -6.16658e-08 0)
(75.744 -7.15843e-08 0)
(75.7303 -8.23561e-08 0)
(75.718 -1.28099e-07 0)
(75.7072 -1.39783e-07 0)
(75.697 -1.4616e-07 0)
(75.6874 -1.57898e-07 0)
(75.6786 -1.71156e-07 0)
(75.6705 -1.83599e-07 0)
(75.6633 -1.94862e-07 0)
(75.6568 -2.04605e-07 0)
(75.6509 -2.12795e-07 0)
(75.6457 -2.19458e-07 0)
(75.641 -2.24519e-07 0)
(75.6367 -2.27656e-07 0)
(75.6328 -2.29291e-07 0)
(75.6292 -2.29081e-07 0)
(75.6257 -2.27707e-07 0)
(75.6223 -2.23939e-07 0)
(75.6189 -2.1994e-07 0)
(75.6155 -2.13089e-07 0)
(75.6121 -2.0777e-07 0)
(75.6085 -1.9878e-07 0)
(75.6048 -1.92077e-07 0)
(75.601 -1.8174e-07 0)
(75.5971 -1.73842e-07 0)
(75.593 -1.63375e-07 0)
(75.5889 -1.55239e-07 0)
(75.5846 -1.4546e-07 0)
(75.5804 -1.4007e-07 0)
(75.5761 -1.25166e-07 0)
(75.5718 -1.16038e-07 0)
(75.5677 -1.08457e-07 0)
(75.5635 -1.05724e-07 0)
(75.5596 -9.15389e-08 0)
(75.5557 -8.8101e-08 0)
(75.552 -7.99806e-08 0)
(75.5486 -7.67199e-08 0)
(75.5453 -6.77413e-08 0)
(75.5422 -6.54611e-08 0)
(75.5394 -6.09538e-08 0)
(75.5368 -5.71244e-08 0)
(75.5345 -5.42583e-08 0)
(75.5323 -5.09533e-08 0)
(75.5304 -5.14095e-08 0)
(75.5287 -5.11758e-08 0)
(75.5272 -4.93261e-08 0)
(75.5259 -4.74575e-08 0)
(75.5248 -4.78353e-08 0)
(75.5238 -5.01906e-08 0)
(75.5229 -3.27689e-08 0)
(75.5222 -7.06503e-08 0)
(75.5216 3.26782e-08 0)
(75.5211 -1.41826e-07 0)
(75.5207 1.10208e-07 0)
(75.5203 2.52614e-08 0)
(75.5201 9.81919e-07 0)
(75.5199 4.47202e-06 0)
(75.5197 2.33282e-05 0)
(75.5195 0.00011264 0)
(75.5193 0.000545662 0)
(75.5184 0.00264256 0)
(75.5144 0.0127427 0)
(75.4956 0.058367 0)
(75.4051 0.263383 0)
(75.1041 1.15954 0)
(72.0425 4.18087 0)
(76.204 -3.57231e-05 0)
(76.2153 -2.86647e-05 0)
(76.2296 -2.03589e-05 0)
(76.2426 -1.69689e-05 0)
(76.2539 -1.45774e-05 0)
(76.2649 -1.23155e-05 0)
(76.2762 -1.05176e-05 0)
(76.2874 -9.08496e-06 0)
(76.2985 -7.89396e-06 0)
(76.3094 -6.90507e-06 0)
(76.3203 -6.06959e-06 0)
(76.3309 -5.32975e-06 0)
(76.3414 -4.71467e-06 0)
(76.3517 -4.17763e-06 0)
(76.3617 -3.70355e-06 0)
(76.3714 -3.31829e-06 0)
(76.3808 -2.93657e-06 0)
(76.3898 -2.62902e-06 0)
(76.3983 -2.35313e-06 0)
(76.4063 -2.10422e-06 0)
(76.4137 -1.89717e-06 0)
(76.4204 -1.70198e-06 0)
(76.4264 -1.53223e-06 0)
(76.4316 -1.38048e-06 0)
(76.436 -1.23799e-06 0)
(76.4395 -1.12205e-06 0)
(76.4421 -1.0311e-06 0)
(76.4437 -9.24309e-07 0)
(76.4443 -8.36981e-07 0)
(76.4437 -7.84392e-07 0)
(76.4421 -6.75412e-07 0)
(76.4394 -6.26646e-07 0)
(76.4356 -5.57342e-07 0)
(76.4308 -5.4501e-07 0)
(76.425 -4.72249e-07 0)
(76.4182 -4.33973e-07 0)
(76.4104 -3.96321e-07 0)
(76.4016 -3.60851e-07 0)
(76.392 -3.28766e-07 0)
(76.3816 -2.99341e-07 0)
(76.3704 -2.72147e-07 0)
(76.3586 -2.46874e-07 0)
(76.3461 -2.22936e-07 0)
(76.3332 -2.00062e-07 0)
(76.3198 -1.7757e-07 0)
(76.3061 -1.54959e-07 0)
(76.2921 -1.31564e-07 0)
(76.278 -1.06898e-07 0)
(76.2638 -8.06143e-08 0)
(76.2496 -5.28177e-08 0)
(76.2354 -2.29036e-08 0)
(76.2214 9.72538e-09 0)
(76.2077 4.46034e-08 0)
(76.1942 8.08053e-08 0)
(76.181 1.17468e-07 0)
(76.1683 1.53873e-07 0)
(76.1559 1.8917e-07 0)
(76.1441 2.22433e-07 0)
(76.1328 2.52663e-07 0)
(76.1219 2.78782e-07 0)
(76.1117 2.99982e-07 0)
(76.102 3.15661e-07 0)
(76.0929 3.25475e-07 0)
(76.0843 3.29333e-07 0)
(76.0764 3.27479e-07 0)
(76.069 3.20417e-07 0)
(76.0621 3.0878e-07 0)
(76.0558 2.933e-07 0)
(76.0501 2.74837e-07 0)
(76.0448 2.54316e-07 0)
(76.0401 2.32625e-07 0)
(76.0358 2.10417e-07 0)
(76.0319 1.88299e-07 0)
(76.0285 1.66804e-07 0)
(76.0255 1.46437e-07 0)
(76.0228 1.27306e-07 0)
(76.0205 1.09683e-07 0)
(76.0186 9.37768e-08 0)
(76.0169 8.00254e-08 0)
(76.0156 6.87026e-08 0)
(76.0145 5.98846e-08 0)
(76.0136 5.36603e-08 0)
(76.013 4.97226e-08 0)
(76.0126 4.66649e-08 0)
(76.0124 4.50648e-08 0)
(76.0124 4.49505e-08 0)
(76.0126 4.45401e-08 0)
(76.0131 4.38715e-08 0)
(76.0136 4.29006e-08 0)
(76.0143 4.15121e-08 0)
(76.0152 3.96767e-08 0)
(76.0162 3.74001e-08 0)
(76.0173 3.47076e-08 0)
(76.0185 3.16215e-08 0)
(76.0198 2.81616e-08 0)
(76.0212 2.43542e-08 0)
(76.0226 2.02201e-08 0)
(76.024 1.57675e-08 0)
(76.0255 1.10205e-08 0)
(76.0269 5.99279e-09 0)
(76.0282 6.89534e-10 0)
(76.0293 -4.88387e-09 0)
(76.0303 -1.06809e-08 0)
(76.0311 -1.66398e-08 0)
(76.0316 -2.27733e-08 0)
(76.0317 -2.91296e-08 0)
(76.0314 -3.55405e-08 0)
(76.0306 -4.19664e-08 0)
(76.0293 -4.83361e-08 0)
(76.0273 -5.45576e-08 0)
(76.0246 -6.06079e-08 0)
(76.0212 -6.64859e-08 0)
(76.0169 -7.19103e-08 0)
(76.0118 -7.67814e-08 0)
(76.0057 -8.1003e-08 0)
(75.9987 -8.44719e-08 0)
(75.9907 -8.7115e-08 0)
(75.9818 -8.87723e-08 0)
(75.9718 -8.93581e-08 0)
(75.9609 -8.88633e-08 0)
(75.9491 -8.70997e-08 0)
(75.9365 -8.38996e-08 0)
(75.9231 -7.92979e-08 0)
(75.909 -7.32358e-08 0)
(75.8944 -6.57555e-08 0)
(75.8793 -5.67775e-08 0)
(75.8639 -4.62597e-08 0)
(75.8483 -3.4425e-08 0)
(75.8327 -2.13334e-08 0)
(75.8171 -7.0339e-09 0)
(75.8017 8.53705e-09 0)
(75.7866 2.54772e-08 0)
(75.7719 4.36185e-08 0)
(75.7577 6.16655e-08 0)
(75.744 7.1583e-08 0)
(75.7303 8.23554e-08 0)
(75.718 1.28099e-07 0)
(75.7072 1.39784e-07 0)
(75.697 1.4616e-07 0)
(75.6874 1.579e-07 0)
(75.6786 1.71153e-07 0)
(75.6705 1.83606e-07 0)
(75.6633 1.94852e-07 0)
(75.6568 2.04609e-07 0)
(75.6509 2.12761e-07 0)
(75.6457 2.19508e-07 0)
(75.641 2.24475e-07 0)
(75.6367 2.27742e-07 0)
(75.6328 2.29112e-07 0)
(75.6292 2.29195e-07 0)
(75.6257 2.27001e-07 0)
(75.6223 2.24635e-07 0)
(75.6189 2.19145e-07 0)
(75.6155 2.15123e-07 0)
(75.6121 2.06187e-07 0)
(75.6085 2.00863e-07 0)
(75.6048 1.9015e-07 0)
(75.601 1.83921e-07 0)
(75.5971 1.72438e-07 0)
(75.593 1.6513e-07 0)
(75.5889 1.53027e-07 0)
(75.5846 1.45061e-07 0)
(75.5804 1.31162e-07 0)
(75.5761 1.29044e-07 0)
(75.5718 1.20082e-07 0)
(75.5677 1.11918e-07 0)
(75.5635 9.70676e-08 0)
(75.5596 9.96823e-08 0)
(75.5557 8.63053e-08 0)
(75.552 8.26012e-08 0)
(75.5486 7.3478e-08 0)
(75.5453 7.21987e-08 0)
(75.5422 6.36864e-08 0)
(75.5394 6.11578e-08 0)
(75.5368 5.70207e-08 0)
(75.5345 5.3763e-08 0)
(75.5323 5.19739e-08 0)
(75.5304 5.24173e-08 0)
(75.5287 5.14425e-08 0)
(75.5272 4.97448e-08 0)
(75.5259 4.62975e-08 0)
(75.5248 4.59125e-08 0)
(75.5238 3.7413e-08 0)
(75.5229 6.93535e-08 0)
(75.5222 -3.77696e-09 0)
(75.5216 1.49189e-07 0)
(75.5211 -3.21117e-08 0)
(75.5207 1.73296e-07 0)
(75.5203 1.25556e-07 0)
(75.5201 1.09351e-06 0)
(75.5199 4.61631e-06 0)
(75.5197 2.33676e-05 0)
(75.5196 0.000112705 0)
(75.5197 0.000546502 0)
(75.5205 0.00264983 0)
(75.5245 0.0128299 0)
(75.5412 0.0603261 0)
(75.6082 0.280609 0)
(75.8523 1.31071 0)
(76.708 4.70377 0)
(76.2041 -0.000118185 0)
(76.2153 -0.000102846 0)
(76.2296 -9.90914e-05 0)
(76.2426 -0.000103154 0)
(76.2539 -0.000105738 0)
(76.2649 -0.00010703 0)
(76.2762 -0.000108117 0)
(76.2874 -0.000109076 0)
(76.2985 -0.000109848 0)
(76.3095 -0.000110548 0)
(76.3203 -0.000111156 0)
(76.3309 -0.000111534 0)