/*--------------------------------*- C++ -*----------------------------------*\
| =========                 |                                                 |
| \\      /  F ield         | OpenFOAM: The Open Source CFD Toolbox           |
|  \\    /   O peration     | Version:  3.0.x                                 |
|   \\  /    A nd           | Web:      www.OpenFOAM.org                      |
|    \\/     M anipulation  |                                                 |
\*---------------------------------------------------------------------------*/
FoamFile
{
    version     2.0;
    format      ascii;
    class       volScalarField;
    location    "0.46";
    object      p;
}
// * * * * * * * * * * * * * * * * * * * * * * * * * * * * * * * * * * * * * //

dimensions      [1 -1 -2 0 0 0 0];

internalField   nonuniform List<scalar> 
6900
(
1.81986e+07
1.81986e+07
1.81986e+07
1.81986e+07
1.81986e+07
1.81986e+07
1.81985e+07
1.81985e+07
1.81985e+07
1.81985e+07
1.81985e+07
1.81984e+07
1.81984e+07
1.81984e+07
1.81984e+07
1.81984e+07
1.81983e+07
1.81983e+07
1.81983e+07
1.81983e+07
1.81983e+07
1.81984e+07
1.81984e+07
1.81984e+07
1.81984e+07
1.81985e+07
1.81985e+07
1.81985e+07
1.81986e+07
1.81986e+07
1.81987e+07
1.81987e+07
1.81988e+07
1.81988e+07
1.81989e+07
1.81989e+07
1.8199e+07
1.8199e+07
1.81991e+07
1.81991e+07
1.81991e+07
1.81992e+07
1.81992e+07
1.81992e+07
1.81992e+07
1.81993e+07
1.81993e+07
1.81993e+07
1.81993e+07
1.81994e+07
1.81994e+07
1.81995e+07
1.81995e+07
1.81996e+07
1.81996e+07
1.81997e+07
1.81998e+07
1.81999e+07
1.82e+07
1.82002e+07
1.82003e+07
1.82005e+07
1.82006e+07
1.82008e+07
1.8201e+07
1.82012e+07
1.82014e+07
1.82017e+07
1.82019e+07
1.82022e+07
1.82024e+07
1.82027e+07
1.82029e+07
1.82032e+07
1.82035e+07
1.82038e+07
1.82041e+07
1.82043e+07
1.82046e+07
1.82049e+07
1.82052e+07
1.82055e+07
1.82059e+07
1.82062e+07
1.82065e+07
1.82069e+07
1.82073e+07
1.82076e+07
1.82081e+07
1.82085e+07
1.82089e+07
1.82094e+07
1.82099e+07
1.82104e+07
1.8211e+07
1.82115e+07
1.82121e+07
1.82128e+07
1.82134e+07
1.82141e+07
1.82148e+07
1.82156e+07
1.82163e+07
1.82171e+07
1.82179e+07
1.82187e+07
1.82195e+07
1.82204e+07
1.82213e+07
1.82221e+07
1.8223e+07
1.82239e+07
1.82248e+07
1.82258e+07
1.82267e+07
1.82277e+07
1.82286e+07
1.82296e+07
1.82306e+07
1.82316e+07
1.82327e+07
1.82337e+07
1.82348e+07
1.82359e+07
1.82371e+07
1.82382e+07
1.82394e+07
1.82407e+07
1.82419e+07
1.82432e+07
1.82446e+07
1.82459e+07
1.82473e+07
1.82488e+07
1.82503e+07
1.82518e+07
1.82534e+07
1.82549e+07
1.82566e+07
1.82582e+07
1.82599e+07
1.82616e+07
1.82633e+07
1.82651e+07
1.82668e+07
1.82686e+07
1.82704e+07
1.82722e+07
1.8274e+07
1.82759e+07
1.82777e+07
1.82796e+07
1.82815e+07
1.82834e+07
1.82853e+07
1.82872e+07
1.82892e+07
1.82912e+07
1.82932e+07
1.82952e+07
1.82973e+07
1.82994e+07
1.83016e+07
1.83037e+07
1.83059e+07
1.83082e+07
1.83105e+07
1.83128e+07
1.83152e+07
1.83176e+07
1.83201e+07
1.83226e+07
1.83252e+07
1.83278e+07
1.83304e+07
1.83331e+07
1.83358e+07
1.83386e+07
1.83414e+07
1.83442e+07
1.8347e+07
1.83498e+07
1.83527e+07
1.83556e+07
1.83584e+07
1.83613e+07
1.83642e+07
1.83672e+07
1.83701e+07
1.8373e+07
1.8376e+07
1.8379e+07
1.8382e+07
1.83851e+07
1.83882e+07
1.83913e+07
1.83944e+07
1.83976e+07
1.84009e+07
1.84045e+07
1.81986e+07
1.81986e+07
1.81986e+07
1.81986e+07
1.81986e+07
1.81986e+07
1.81985e+07
1.81985e+07
1.81985e+07
1.81985e+07
1.81985e+07
1.81984e+07
1.81984e+07
1.81984e+07
1.81984e+07
1.81984e+07
1.81983e+07
1.81983e+07
1.81983e+07
1.81983e+07
1.81983e+07
1.81984e+07
1.81984e+07
1.81984e+07
1.81984e+07
1.81985e+07
1.81985e+07
1.81985e+07
1.81986e+07
1.81986e+07
1.81987e+07
1.81987e+07
1.81988e+07
1.81988e+07
1.81989e+07
1.81989e+07
1.8199e+07
1.8199e+07
1.81991e+07
1.81991e+07
1.81991e+07
1.81992e+07
1.81992e+07
1.81992e+07
1.81992e+07
1.81993e+07
1.81993e+07
1.81993e+07
1.81993e+07
1.81994e+07
1.81994e+07
1.81995e+07
1.81995e+07
1.81996e+07
1.81996e+07
1.81997e+07
1.81998e+07
1.81999e+07
1.82e+07
1.82002e+07
1.82003e+07
1.82005e+07
1.82006e+07
1.82008e+07
1.8201e+07
1.82012e+07
1.82014e+07
1.82017e+07
1.82019e+07
1.82022e+07
1.82024e+07
1.82027e+07
1.82029e+07
1.82032e+07
1.82035e+07
1.82038e+07
1.82041e+07
1.82043e+07
1.82046e+07
1.82049e+07
1.82052e+07
1.82055e+07
1.82059e+07
1.82062e+07
1.82065e+07
1.82069e+07
1.82073e+07
1.82076e+07
1.82081e+07
1.82085e+07
1.82089e+07
1.82094e+07
1.82099e+07
1.82104e+07
1.8211e+07
1.82115e+07
1.82121e+07
1.82128e+07
1.82134e+07
1.82141e+07
1.82148e+07
1.82156e+07
1.82163e+07
1.82171e+07
1.82179e+07
1.82187e+07
1.82195e+07
1.82204e+07
1.82213e+07
1.82221e+07
1.8223e+07
1.82239e+07
1.82248e+07
1.82258e+07
1.82267e+07
1.82277e+07
1.82286e+07
1.82296e+07
1.82306e+07
1.82316e+07
1.82327e+07
1.82337e+07
1.82348e+07
1.82359e+07
1.82371e+07
1.82382e+07
1.82394e+07
1.82407e+07
1.82419e+07
1.82432e+07
1.82446e+07
1.82459e+07
1.82473e+07
1.82488e+07
1.82503e+07
1.82518e+07
1.82534e+07
1.82549e+07
1.82566e+07
1.82582e+07
1.82599e+07
1.82616e+07
1.82633e+07
1.82651e+07
1.82668e+07
1.82686e+07
1.82704e+07
1.82722e+07
1.8274e+07
1.82759e+07
1.82777e+07
1.82796e+07
1.82815e+07
1.82834e+07
1.82853e+07
1.82872e+07
1.82892e+07
1.82912e+07
1.82932e+07
1.82952e+07
1.82973e+07
1.82994e+07
1.83016e+07
1.83037e+07
1.83059e+07
1.83082e+07
1.83105e+07
1.83128e+07
1.83152e+07
1.83176e+07
1.83201e+07
1.83226e+07
1.83252e+07
1.83278e+07
1.83304e+07
1.83331e+07
1.83358e+07
1.83386e+07
1.83414e+07
1.83442e+07
1.8347e+07
1.83498e+07
1.83527e+07
1.83556e+07
1.83584e+07
1.83613e+07
1.83642e+07
1.83672e+07
1.83701e+07
1.8373e+07
1.8376e+07
1.8379e+07
1.8382e+07
1.83851e+07
1.83882e+07
1.83913e+07
1.83944e+07
1.83976e+07
1.84009e+07
1.84045e+07
1.81986e+07
1.81986e+07
1.81986e+07
1.81986e+07
1.81986e+07
1.81986e+07
1.81985e+07
1.81985e+07
1.81985e+07
1.81985e+07
1.81985e+07
1.81984e+07
1.81984e+07
1.81984e+07
1.81984e+07
1.81984e+07
1.81983e+07
1.81983e+07
1.81983e+07
1.81983e+07
1.81983e+07
1.81984e+07
1.81984e+07
1.81984e+07
1.81984e+07
1.81985e+07
1.81985e+07
1.81985e+07
1.81986e+07
1.81986e+07
1.81987e+07
1.81987e+07
1.81988e+07
1.81988e+07
1.81989e+07
1.81989e+07
1.8199e+07
1.8199e+07
1.81991e+07
1.81991e+07
1.81991e+07
1.81992e+07
1.81992e+07
1.81992e+07
1.81992e+07
1.81993e+07
1.81993e+07
1.81993e+07
1.81993e+07
1.81994e+07
1.81994e+07
1.81995e+07
1.81995e+07
1.81996e+07
1.81996e+07
1.81997e+07
1.81998e+07
1.81999e+07
1.82e+07
1.82002e+07
1.82003e+07
1.82005e+07
1.82006e+07
1.82008e+07
1.8201e+07
1.82012e+07
1.82014e+07
1.82017e+07
1.82019e+07
1.82022e+07
1.82024e+07
1.82027e+07
1.82029e+07
1.82032e+07
1.82035e+07
1.82038e+07
1.82041e+07
1.82043e+07
1.82046e+07
1.82049e+07
1.82052e+07
1.82055e+07
1.82059e+07
1.82062e+07
1.82065e+07
1.82069e+07
1.82073e+07
1.82076e+07
1.82081e+07
1.82085e+07
1.82089e+07
1.82094e+07
1.82099e+07
1.82104e+07
1.8211e+07
1.82115e+07
1.82121e+07
1.82128e+07
1.82134e+07
1.82141e+07
1.82148e+07
1.82156e+07
1.82163e+07
1.82171e+07
1.82179e+07
1.82187e+07
1.82195e+07
1.82204e+07
1.82213e+07
1.82221e+07
1.8223e+07
1.82239e+07
1.82248e+07
1.82258e+07
1.82267e+07
1.82277e+07
1.82286e+07
1.82296e+07
1.82306e+07
1.82316e+07
1.82327e+07
1.82337e+07
1.82348e+07
1.82359e+07
1.82371e+07
1.82382e+07
1.82394e+07
1.82407e+07
1.82419e+07
1.82432e+07
1.82446e+07
1.82459e+07
1.82473e+07
1.82488e+07
1.82503e+07
1.82518e+07
1.82534e+07
1.82549e+07
1.82566e+07
1.82582e+07
1.82599e+07
1.82616e+07
1.82633e+07
1.82651e+07
1.82668e+07
1.82686e+07
1.82704e+07
1.82722e+07
1.8274e+07
1.82759e+07
1.82777e+07
1.82796e+07
1.82815e+07
1.82834e+07
1.82853e+07
1.82872e+07
1.82892e+07
1.82912e+07
1.82932e+07
1.82952e+07
1.82973e+07
1.82994e+07
1.83016e+07
1.83037e+07
1.83059e+07
1.83082e+07
1.83105e+07
1.83128e+07
1.83152e+07
1.83176e+07
1.83201e+07
1.83226e+07
1.83252e+07
1.83278e+07
1.83304e+07
1.83331e+07
1.83358e+07
1.83386e+07
1.83414e+07
1.83442e+07
1.8347e+07
1.83498e+07
1.83527e+07
1.83556e+07
1.83584e+07
1.83613e+07
1.83642e+07
1.83672e+07
1.83701e+07
1.8373e+07
1.8376e+07
1.8379e+07
1.8382e+07
1.83851e+07
1.83882e+07
1.83913e+07
1.83944e+07
1.83976e+07
1.84007e+07
1.8404e+07
1.81986e+07
1.81986e+07
1.81986e+07
1.81986e+07
1.81986e+07
1.81986e+07
1.81985e+07
1.81985e+07
1.81985e+07
1.81985e+07
1.81985e+07
1.81984e+07
1.81984e+07
1.81984e+07
1.81984e+07
1.81984e+07
1.81983e+07
1.81983e+07
1.81983e+07
1.81983e+07
1.81983e+07
1.81984e+07
1.81984e+07
1.81984e+07
1.81984e+07
1.81985e+07
1.81985e+07
1.81985e+07
1.81986e+07
1.81986e+07
1.81987e+07
1.81987e+07
1.81988e+07
1.81988e+07
1.81989e+07
1.81989e+07
1.8199e+07
1.8199e+07
1.81991e+07
1.81991e+07
1.81991e+07
1.81992e+07
1.81992e+07
1.81992e+07
1.81992e+07
1.81993e+07
1.81993e+07
1.81993e+07
1.81993e+07
1.81994e+07
1.81994e+07
1.81995e+07
1.81995e+07
1.81996e+07
1.81996e+07
1.81997e+07
1.81998e+07
1.81999e+07
1.82e+07
1.82002e+07
1.82003e+07
1.82005e+07
1.82006e+07
1.82008e+07
1.8201e+07
1.82012e+07
1.82014e+07
1.82017e+07
1.82019e+07
1.82022e+07
1.82024e+07
1.82027e+07
1.82029e+07
1.82032e+07
1.82035e+07
1.82038e+07
1.82041e+07
1.82043e+07
1.82046e+07
1.82049e+07
1.82052e+07
1.82055e+07
1.82059e+07
1.82062e+07
1.82065e+07
1.82069e+07
1.82073e+07
1.82076e+07
1.82081e+07
1.82085e+07
1.82089e+07
1.82094e+07
1.82099e+07
1.82104e+07
1.8211e+07
1.82115e+07
1.82121e+07
1.82128e+07
1.82134e+07
1.82141e+07
1.82148e+07
1.82156e+07
1.82163e+07
1.82171e+07
1.82179e+07
1.82187e+07
1.82195e+07
1.82204e+07
1.82213e+07
1.82221e+07
1.8223e+07
1.82239e+07
1.82248e+07
1.82258e+07
1.82267e+07
1.82277e+07
1.82286e+07
1.82296e+07
1.82306e+07
1.82316e+07
1.82327e+07
1.82337e+07
1.82348e+07
1.82359e+07
1.82371e+07
1.82382e+07
1.82394e+07
1.82407e+07
1.82419e+07
1.82432e+07
1.82446e+07
1.82459e+07
1.82473e+07
1.82488e+07
1.82503e+07
1.82518e+07
1.82534e+07
1.82549e+07
1.82566e+07
1.82582e+07
1.82599e+07
1.82616e+07
1.82633e+07
1.82651e+07
1.82668e+07
1.82686e+07
1.82704e+07
1.82722e+07
1.8274e+07
1.82759e+07
1.82777e+07
1.82796e+07
1.82815e+07
1.82834e+07
1.82853e+07
1.82872e+07
1.82892e+07
1.82912e+07
1.82932e+07
1.82952e+07
1.82973e+07
1.82994e+07
1.83016e+07
1.83037e+07
1.83059e+07
1.83082e+07
1.83105e+07
1.83128e+07
1.83152e+07
1.83176e+07
1.83201e+07
1.83226e+07
1.83252e+07
1.83278e+07
1.83304e+07
1.83331e+07
1.83358e+07
1.83386e+07
1.83414e+07
1.83442e+07
1.8347e+07
1.83498e+07
1.83527e+07
1.83556e+07
1.83584e+07
1.83613e+07
1.83642e+07
1.83672e+07
1.83701e+07
1.8373e+07
1.8376e+07
1.8379e+07
1.8382e+07
1.83851e+07
1.83882e+07
1.83913e+07
1.83944e+07
1.83975e+07
1.84006e+07
1.84033e+07
1.81986e+07
1.81986e+07
1.81986e+07
1.81986e+07
1.81986e+07
1.81986e+07
1.81985e+07
1.81985e+07
1.81985e+07
1.81985e+07
1.81985e+07
1.81984e+07
1.81984e+07
1.81984e+07
1.81984e+07
1.81984e+07
1.81983e+07
1.81983e+07
1.81983e+07
1.81983e+07
1.81983e+07
1.81984e+07
1.81984e+07
1.81984e+07
1.81984e+07
1.81985e+07
1.81985e+07
1.81985e+07
1.81986e+07
1.81986e+07
1.81987e+07
1.81987e+07
1.81988e+07
1.81988e+07
1.81989e+07
1.81989e+07
1.8199e+07
1.8199e+07
1.81991e+07
1.81991e+07
1.81991e+07
1.81992e+07
1.81992e+07
1.81992e+07
1.81992e+07
1.81993e+07
1.81993e+07
1.81993e+07
1.81993e+07
1.81994e+07
1.81994e+07
1.81995e+07
1.81995e+07
1.81996e+07
1.81996e+07
1.81997e+07
1.81998e+07
1.81999e+07
1.82e+07
1.82002e+07
1.82003e+07
1.82005e+07
1.82006e+07
1.82008e+07
1.8201e+07
1.82012e+07
1.82014e+07
1.82017e+07
1.82019e+07
1.82022e+07
1.82024e+07
1.82027e+07
1.82029e+07
1.82032e+07
1.82035e+07
1.82038e+07
1.82041e+07
1.82043e+07
1.82046e+07
1.82049e+07
1.82052e+07
1.82055e+07
1.82059e+07
1.82062e+07
1.82065e+07
1.82069e+07
1.82073e+07
1.82076e+07
1.82081e+07
1.82085e+07
1.82089e+07
1.82094e+07
1.82099e+07
1.82104e+07
1.8211e+07
1.82115e+07
1.82121e+07
1.82128e+07
1.82134e+07
1.82141e+07
1.82148e+07
1.82156e+07
1.82163e+07
1.82171e+07
1.82179e+07
1.82187e+07
1.82195e+07
1.82204e+07
1.82213e+07
1.82221e+07
1.8223e+07
1.82239e+07
1.82248e+07
1.82258e+07
1.82267e+07
1.82277e+07
1.82286e+07
1.82296e+07
1.82306e+07
1.82316e+07
1.82327e+07
1.82337e+07
1.82348e+07
1.82359e+07
1.82371e+07
1.82382e+07
1.82394e+07
1.82407e+07
1.82419e+07
1.82432e+07
1.82446e+07
1.82459e+07
1.82473e+07
1.82488e+07
1.82503e+07
1.82518e+07
1.82534e+07
1.82549e+07
1.82566e+07
1.82582e+07
1.82599e+07
1.82616e+07
1.82633e+07
1.82651e+07
1.82668e+07
1.82686e+07
1.82704e+07
1.82722e+07
1.8274e+07
1.82759e+07
1.82777e+07
1.82796e+07
1.82815e+07
1.82834e+07
1.82853e+07
1.82872e+07
1.82892e+07
1.82912e+07
1.82932e+07
1.82952e+07
1.82973e+07
1.82994e+07
1.83016e+07
1.83037e+07
1.83059e+07
1.83082e+07
1.83105e+07
1.83128e+07
1.83152e+07
1.83176e+07
1.83201e+07
1.83226e+07
1.83252e+07
1.83278e+07
1.83304e+07
1.83331e+07
1.83358e+07
1.83386e+07
1.83414e+07
1.83442e+07
1.8347e+07
1.83498e+07
1.83527e+07
1.83556e+07
1.83584e+07
1.83613e+07
1.83642e+07
1.83672e+07
1.83701e+07
1.8373e+07
1.8376e+07
1.8379e+07
1.8382e+07
1.83851e+07
1.83882e+07
1.83913e+07
1.83944e+07
1.83975e+07
1.84006e+07
1.84033e+07
1.8411e+07
1.84138e+07
1.84146e+07
1.84148e+07
1.8415e+07
1.84154e+07
1.84159e+07
1.84163e+07
1.84157e+07
1.84139e+07
1.84123e+07
1.84115e+07
1.84111e+07
1.84114e+07
1.84135e+07
1.8417e+07
1.84192e+07
1.8418e+07
1.84132e+07
1.84061e+07
1.84098e+07
1.84115e+07
1.84121e+07
1.84122e+07
1.84125e+07
1.84128e+07
1.84134e+07
1.84137e+07
1.84129e+07
1.84109e+07
1.84093e+07
1.84085e+07
1.84083e+07
1.84087e+07
1.84109e+07
1.84143e+07
1.84159e+07
1.8414e+07
1.8408e+07
1.84008e+07
1.84062e+07
1.84067e+07
1.8407e+07
1.84069e+07
1.84067e+07
1.84062e+07
1.84054e+07
1.84045e+07
1.84034e+07
1.84022e+07
1.84007e+07
1.83989e+07
1.83968e+07
1.83944e+07
1.83918e+07
1.83891e+07
1.83866e+07
1.83843e+07
1.83822e+07
1.83801e+07
1.83997e+07
1.83996e+07
1.84004e+07
1.84011e+07
1.8401e+07
1.84e+07
1.8399e+07
1.83974e+07
1.83959e+07
1.83941e+07
1.83927e+07
1.83908e+07
1.83893e+07
1.83878e+07
1.83865e+07
1.83853e+07
1.83842e+07
1.83832e+07
1.83825e+07
1.83822e+07
1.8396e+07
1.8393e+07
1.83923e+07
1.83925e+07
1.83922e+07
1.83912e+07
1.83898e+07
1.8388e+07
1.83861e+07
1.83841e+07
1.83822e+07
1.83802e+07
1.83783e+07
1.83765e+07
1.83749e+07
1.83734e+07
1.83721e+07
1.83711e+07
1.83705e+07
1.8371e+07
1.83834e+07
1.83848e+07
1.83919e+07
1.83922e+07
1.83923e+07
1.83944e+07
1.83977e+07
1.84005e+07
1.84029e+07
1.84054e+07
1.84083e+07
1.84112e+07
1.84141e+07
1.84169e+07
1.84198e+07
1.84228e+07
1.84257e+07
1.84287e+07
1.84318e+07
1.84348e+07
1.84379e+07
1.8441e+07
1.84441e+07
1.84472e+07
1.84504e+07
1.84535e+07
1.84568e+07
1.846e+07
1.84632e+07
1.84664e+07
1.84697e+07
1.8473e+07
1.84763e+07
1.84797e+07
1.8483e+07
1.84864e+07
1.84898e+07
1.84933e+07
1.84967e+07
1.85002e+07
1.85036e+07
1.85071e+07
1.85106e+07
1.85141e+07
1.85176e+07
1.85212e+07
1.85247e+07
1.85282e+07
1.85318e+07
1.85354e+07
1.85389e+07
1.85425e+07
1.85461e+07
1.85497e+07
1.85534e+07
1.8557e+07
1.85606e+07
1.85643e+07
1.85679e+07
1.85716e+07
1.85753e+07
1.8579e+07
1.85827e+07
1.85865e+07
1.85902e+07
1.8594e+07
1.85978e+07
1.86016e+07
1.86054e+07
1.86092e+07
1.8613e+07
1.86169e+07
1.86207e+07
1.86246e+07
1.86285e+07
1.86324e+07
1.86364e+07
1.86403e+07
1.86443e+07
1.86483e+07
1.86525e+07
1.86567e+07
1.86606e+07
1.86644e+07
1.86683e+07
1.86724e+07
1.86765e+07
1.86806e+07
1.86847e+07
1.86889e+07
1.86931e+07
1.86973e+07
1.87016e+07
1.87058e+07
1.87101e+07
1.87144e+07
1.87188e+07
1.87231e+07
1.87274e+07
1.87317e+07
1.8736e+07
1.87403e+07
1.87446e+07
1.87489e+07
1.87532e+07
1.87575e+07
1.87618e+07
1.87661e+07
1.87703e+07
1.87746e+07
1.87788e+07
1.8783e+07
1.87872e+07
1.87914e+07
1.87956e+07
1.87998e+07
1.8804e+07
1.88082e+07
1.88124e+07
1.88166e+07
1.88208e+07
1.8825e+07
1.88292e+07
1.88334e+07
1.88376e+07
1.88418e+07
1.88461e+07
1.88503e+07
1.88545e+07
1.88588e+07
1.8863e+07
1.88673e+07
1.88715e+07
1.88758e+07
1.88801e+07
1.88844e+07
1.88886e+07
1.88929e+07
1.88972e+07
1.89015e+07
1.89058e+07
1.891e+07
1.89143e+07
1.89186e+07
1.89229e+07
1.89272e+07
1.89314e+07
1.89357e+07
1.894e+07
1.89442e+07
1.89485e+07
1.89527e+07
1.8957e+07
1.89612e+07
1.89654e+07
1.89696e+07
1.89738e+07
1.8978e+07
1.89822e+07
1.89864e+07
1.89906e+07
1.89947e+07
1.89989e+07
1.9003e+07
1.90072e+07
1.90113e+07
1.90154e+07
1.90195e+07
1.90236e+07
1.90277e+07
1.90318e+07
1.90358e+07
1.90399e+07
1.9044e+07
1.9048e+07
1.9052e+07
1.90561e+07
1.90601e+07
1.90641e+07
1.90681e+07
1.90721e+07
1.90761e+07
1.90801e+07
1.90841e+07
1.90881e+07
1.9092e+07
1.9096e+07
1.90999e+07
1.91038e+07
1.91078e+07
1.91117e+07
1.91156e+07
1.91195e+07
1.91234e+07
1.91272e+07
1.91311e+07
1.91349e+07
1.91388e+07
1.91426e+07
1.91464e+07
1.83821e+07
1.83848e+07
1.83919e+07
1.83922e+07
1.83923e+07
1.83944e+07
1.83977e+07
1.84005e+07
1.84029e+07
1.84054e+07
1.84083e+07
1.84112e+07
1.84141e+07
1.84169e+07
1.84198e+07
1.84228e+07
1.84257e+07
1.84287e+07
1.84318e+07
1.84348e+07
1.84379e+07
1.8441e+07
1.84441e+07
1.84472e+07
1.84504e+07
1.84535e+07
1.84568e+07
1.846e+07
1.84632e+07
1.84664e+07
1.84697e+07
1.8473e+07
1.84763e+07
1.84797e+07
1.8483e+07
1.84864e+07
1.84898e+07
1.84933e+07
1.84967e+07
1.85002e+07
1.85036e+07
1.85071e+07
1.85106e+07
1.85141e+07
1.85176e+07
1.85212e+07
1.85247e+07
1.85282e+07
1.85318e+07
1.85354e+07
1.85389e+07
1.85425e+07
1.85461e+07
1.85497e+07
1.85534e+07
1.8557e+07
1.85606e+07
1.85643e+07
1.85679e+07
1.85716e+07
1.85753e+07
1.8579e+07
1.85827e+07
1.85865e+07
1.85902e+07
1.8594e+07
1.85978e+07
1.86016e+07
1.86054e+07
1.86092e+07
1.8613e+07
1.86169e+07
1.86207e+07
1.86246e+07
1.86285e+07
1.86324e+07
1.86364e+07
1.86403e+07
1.86443e+07
1.86483e+07
1.86525e+07
1.86567e+07
1.86606e+07
1.86644e+07
1.86683e+07
1.86724e+07
1.86764e+07
1.86806e+07
1.86847e+07
1.86889e+07
1.86931e+07
1.86973e+07
1.87016e+07
1.87058e+07
1.87101e+07
1.87144e+07
1.87187e+07
1.87231e+07
1.87274e+07
1.87317e+07
1.8736e+07
1.87403e+07
1.87446e+07
1.87489e+07
1.87532e+07
1.87575e+07
1.87618e+07
1.87661e+07
1.87703e+07
1.87746e+07
1.87788e+07
1.8783e+07
1.87872e+07
1.87914e+07
1.87956e+07
1.87998e+07
1.8804e+07
1.88082e+07
1.88124e+07
1.88166e+07
1.88208e+07
1.8825e+07
1.88292e+07
1.88334e+07
1.88376e+07
1.88418e+07
1.88461e+07
1.88503e+07
1.88545e+07
1.88588e+07
1.8863e+07
1.88673e+07
1.88715e+07
1.88758e+07
1.88801e+07
1.88844e+07
1.88886e+07
1.88929e+07
1.88972e+07
1.89015e+07
1.89058e+07
1.891e+07
1.89143e+07
1.89186e+07
1.89229e+07
1.89272e+07
1.89314e+07
1.89357e+07
1.894e+07
1.89442e+07
1.89485e+07
1.89527e+07
1.8957e+07
1.89612e+07
1.89654e+07
1.89696e+07
1.89738e+07
1.8978e+07
1.89822e+07
1.89864e+07
1.89906e+07
1.89947e+07
1.89989e+07
1.9003e+07
1.90072e+07
1.90113e+07
1.90154e+07
1.90195e+07
1.90236e+07
1.90277e+07
1.90318e+07
1.90358e+07
1.90399e+07
1.9044e+07
1.9048e+07
1.9052e+07
1.90561e+07
1.90601e+07
1.90641e+07
1.90681e+07
1.90721e+07
1.90761e+07
1.90801e+07
1.90841e+07
1.90881e+07
1.9092e+07
1.9096e+07
1.90999e+07
1.91038e+07
1.91078e+07
1.91117e+07
1.91156e+07
1.91195e+07
1.91234e+07
1.91272e+07
1.91311e+07
1.91349e+07
1.91388e+07
1.91426e+07
1.91464e+07
1.83747e+07
1.83814e+07
1.83861e+07
1.8389e+07
1.83914e+07
1.83941e+07
1.83969e+07
1.83996e+07
1.84024e+07
1.84053e+07
1.84081e+07
1.8411e+07
1.84139e+07
1.84168e+07
1.84198e+07
1.84227e+07
1.84257e+07
1.84287e+07
1.84318e+07
1.84348e+07
1.84379e+07
1.8441e+07
1.84441e+07
1.84472e+07
1.84504e+07
1.84535e+07
1.84567e+07
1.84599e+07
1.84632e+07
1.84664e+07
1.84697e+07
1.8473e+07
1.84763e+07
1.84797e+07
1.84831e+07
1.84864e+07
1.84898e+07
1.84933e+07
1.84967e+07
1.85002e+07
1.85036e+07
1.85071e+07
1.85106e+07
1.85141e+07
1.85176e+07
1.85212e+07
1.85247e+07
1.85283e+07
1.85318e+07
1.85354e+07
1.8539e+07
1.85425e+07
1.85461e+07
1.85497e+07
1.85534e+07
1.8557e+07
1.85606e+07
1.85643e+07
1.85679e+07
1.85716e+07
1.85753e+07
1.8579e+07
1.85827e+07
1.85865e+07
1.85902e+07
1.8594e+07
1.85978e+07
1.86016e+07
1.86054e+07
1.86092e+07
1.8613e+07
1.86169e+07
1.86208e+07
1.86247e+07
1.86286e+07
1.86325e+07
1.86364e+07
1.86404e+07
1.86443e+07
1.86483e+07
1.86523e+07
1.86563e+07
1.86603e+07
1.86643e+07
1.86684e+07
1.86725e+07
1.86766e+07
1.86807e+07
1.86849e+07
1.8689e+07
1.86932e+07
1.86975e+07
1.87017e+07
1.8706e+07
1.87103e+07
1.87146e+07
1.87189e+07
1.87232e+07
1.87275e+07
1.87318e+07
1.87361e+07
1.87404e+07
1.87447e+07
1.8749e+07
1.87533e+07
1.87576e+07
1.87618e+07
1.87661e+07
1.87703e+07
1.87746e+07
1.87788e+07
1.8783e+07
1.87872e+07
1.87914e+07
1.87956e+07
1.87998e+07
1.8804e+07
1.88082e+07
1.88124e+07
1.88166e+07
1.88208e+07
1.8825e+07
1.88292e+07
1.88334e+07
1.88376e+07
1.88418e+07
1.88461e+07
1.88503e+07
1.88545e+07
1.88588e+07
1.8863e+07
1.88673e+07
1.88715e+07
1.88758e+07
1.88801e+07
1.88844e+07
1.88886e+07
1.88929e+07
1.88972e+07
1.89015e+07
1.89058e+07
1.891e+07
1.89143e+07
1.89186e+07
1.89229e+07
1.89272e+07
1.89314e+07
1.89357e+07
1.894e+07
1.89442e+07
1.89485e+07
1.89527e+07
1.8957e+07
1.89612e+07
1.89654e+07
1.89696e+07
1.89738e+07
1.8978e+07
1.89822e+07
1.89864e+07
1.89906e+07
1.89947e+07
1.89989e+07
1.9003e+07
1.90072e+07
1.90113e+07
1.90154e+07
1.90195e+07
1.90236e+07
1.90277e+07
1.90318e+07
1.90358e+07
1.90399e+07
1.9044e+07
1.9048e+07
1.9052e+07
1.90561e+07
1.90601e+07
1.90641e+07
1.90681e+07
1.90721e+07
1.90761e+07
1.90801e+07
1.90841e+07
1.90881e+07
1.9092e+07
1.9096e+07
1.90999e+07
1.91038e+07
1.91078e+07
1.91117e+07
1.91156e+07
1.91195e+07
1.91234e+07
1.91272e+07
1.91311e+07
1.91349e+07
1.91388e+07
1.91426e+07
1.91464e+07
1.83817e+07
1.83841e+07
1.83865e+07
1.83887e+07
1.83912e+07
1.83938e+07
1.83965e+07
1.83993e+07
1.84021e+07
1.8405e+07
1.84079e+07
1.84108e+07
1.84137e+07
1.84166e+07
1.84196e+07
1.84226e+07
1.84256e+07
1.84286e+07
1.84317e+07
1.84347e+07
1.84378e+07
1.84409e+07
1.8444e+07
1.84472e+07
1.84503e+07
1.84535e+07
1.84567e+07
1.84599e+07
1.84632e+07
1.84664e+07
1.84697e+07
1.8473e+07
1.84763e+07
1.84797e+07
1.84831e+07
1.84864e+07
1.84899e+07
1.84933e+07
1.84967e+07
1.85002e+07
1.85036e+07
1.85071e+07
1.85106e+07
1.85141e+07
1.85176e+07
1.85212e+07
1.85247e+07
1.85283e+07
1.85318e+07
1.85354e+07
1.8539e+07
1.85426e+07
1.85461e+07
1.85498e+07
1.85534e+07
1.8557e+07
1.85606e+07
1.85643e+07
1.8568e+07
1.85716e+07
1.85753e+07
1.8579e+07
1.85827e+07
1.85865e+07
1.85902e+07
1.8594e+07
1.85978e+07
1.86016e+07
1.86054e+07
1.86092e+07
1.86131e+07
1.86169e+07
1.86208e+07
1.86247e+07
1.86286e+07
1.86325e+07
1.86365e+07
1.86404e+07
1.86444e+07
1.86484e+07
1.86524e+07
1.86564e+07
1.86604e+07
1.86644e+07
1.86685e+07
1.86726e+07
1.86767e+07
1.86808e+07
1.8685e+07
1.86892e+07
1.86934e+07
1.86976e+07
1.87019e+07
1.87061e+07
1.87104e+07
1.87147e+07
1.8719e+07
1.87233e+07
1.87276e+07
1.87318e+07
1.87361e+07
1.87404e+07
1.87447e+07
1.8749e+07
1.87533e+07
1.87576e+07
1.87618e+07
1.87661e+07
1.87704e+07
1.87746e+07
1.87788e+07
1.8783e+07
1.87872e+07
1.87914e+07
1.87956e+07
1.87998e+07
1.8804e+07
1.88082e+07
1.88124e+07
1.88166e+07
1.88208e+07
1.8825e+07
1.88292e+07
1.88334e+07
1.88376e+07
1.88418e+07
1.88461e+07
1.88503e+07
1.88545e+07
1.88588e+07
1.8863e+07
1.88673e+07
1.88715e+07
1.88758e+07
1.88801e+07
1.88844e+07
1.88886e+07
1.88929e+07
1.88972e+07
1.89015e+07
1.89058e+07
1.891e+07
1.89143e+07
1.89186e+07
1.89229e+07
1.89272e+07
1.89314e+07
1.89357e+07
1.894e+07
1.89442e+07
1.89485e+07
1.89527e+07
1.8957e+07
1.89612e+07
1.89654e+07
1.89696e+07
1.89738e+07
1.8978e+07
1.89822e+07
1.89864e+07
1.89906e+07
1.89947e+07
1.89989e+07
1.9003e+07
1.90072e+07
1.90113e+07
1.90154e+07
1.90195e+07
1.90236e+07
1.90277e+07
1.90318e+07
1.90358e+07
1.90399e+07
1.9044e+07
1.9048e+07
1.9052e+07
1.90561e+07
1.90601e+07
1.90641e+07
1.90681e+07
1.90721e+07
1.90761e+07
1.90801e+07
1.90841e+07
1.90881e+07
1.9092e+07
1.9096e+07
1.90999e+07
1.91038e+07
1.91078e+07
1.91117e+07
1.91156e+07
1.91195e+07
1.91234e+07
1.91272e+07
1.91311e+07
1.91349e+07
1.91388e+07
1.91426e+07
1.91464e+07
1.83796e+07
1.83838e+07
1.83864e+07
1.83887e+07
1.83912e+07
1.83938e+07
1.83965e+07
1.83993e+07
1.84021e+07
1.8405e+07
1.84079e+07
1.84108e+07
1.84137e+07
1.84166e+07
1.84196e+07
1.84226e+07
1.84256e+07
1.84286e+07
1.84317e+07
1.84347e+07
1.84378e+07
1.84409e+07
1.8444e+07
1.84472e+07
1.84503e+07
1.84535e+07
1.84567e+07
1.84599e+07
1.84632e+07
1.84664e+07
1.84697e+07
1.8473e+07
1.84763e+07
1.84797e+07
1.84831e+07
1.84864e+07
1.84899e+07
1.84933e+07
1.84967e+07
1.85002e+07
1.85036e+07
1.85071e+07
1.85106e+07
1.85141e+07
1.85176e+07
1.85212e+07
1.85247e+07
1.85283e+07
1.85318e+07
1.85354e+07
1.8539e+07
1.85426e+07
1.85461e+07
1.85498e+07
1.85534e+07
1.8557e+07
1.85606e+07
1.85643e+07
1.8568e+07
1.85716e+07
1.85753e+07
1.8579e+07
1.85827e+07
1.85865e+07
1.85902e+07
1.8594e+07
1.85978e+07
1.86016e+07
1.86054e+07
1.86092e+07
1.86131e+07
1.86169e+07
1.86208e+07
1.86247e+07
1.86286e+07
1.86325e+07
1.86365e+07
1.86404e+07
1.86444e+07
1.86484e+07
1.86524e+07
1.86564e+07
1.86604e+07
1.86644e+07
1.86685e+07
1.86726e+07
1.86767e+07
1.86808e+07
1.8685e+07
1.86892e+07
1.86934e+07
1.86976e+07
1.87019e+07
1.87061e+07
1.87104e+07
1.87147e+07
1.8719e+07
1.87233e+07
1.87276e+07
1.87318e+07
1.87361e+07
1.87404e+07
1.87447e+07
1.8749e+07
1.87533e+07
1.87576e+07
1.87618e+07
1.87661e+07
1.87704e+07
1.87746e+07
1.87788e+07
1.8783e+07
1.87872e+07
1.87914e+07
1.87956e+07
1.87998e+07
1.8804e+07
1.88082e+07
1.88124e+07
1.88166e+07
1.88208e+07
1.8825e+07
1.88292e+07
1.88334e+07
1.88376e+07
1.88418e+07
1.88461e+07
1.88503e+07
1.88545e+07
1.88588e+07
1.8863e+07
1.88673e+07
1.88715e+07
1.88758e+07
1.88801e+07
1.88844e+07
1.88886e+07
1.88929e+07
1.88972e+07
1.89015e+07
1.89058e+07
1.891e+07
1.89143e+07
1.89186e+07
1.89229e+07
1.89272e+07
1.89314e+07
1.89357e+07
1.894e+07
1.89442e+07
1.89485e+07
1.89527e+07
1.8957e+07
1.89612e+07
1.89654e+07
1.89696e+07
1.89738e+07
1.8978e+07
1.89822e+07
1.89864e+07
1.89906e+07
1.89947e+07
1.89989e+07
1.9003e+07
1.90072e+07
1.90113e+07
1.90154e+07
1.90195e+07
1.90236e+07
1.90277e+07
1.90318e+07
1.90358e+07
1.90399e+07
1.9044e+07
1.9048e+07
1.9052e+07
1.90561e+07
1.90601e+07
1.90641e+07
1.90681e+07
1.90721e+07
1.90761e+07
1.90801e+07
1.90841e+07
1.90881e+07
1.9092e+07
1.9096e+07
1.90999e+07
1.91038e+07
1.91078e+07
1.91117e+07
1.91156e+07
1.91195e+07
1.91234e+07
1.91272e+07
1.91311e+07
1.91349e+07
1.91388e+07
1.91426e+07
1.91464e+07
1.91482e+07
1.91486e+07
1.91491e+07
1.91498e+07
1.91503e+07
1.91508e+07
1.91513e+07
1.91517e+07
1.91521e+07
1.91525e+07
1.91529e+07
1.91533e+07
1.91537e+07
1.91541e+07
1.91544e+07
1.91548e+07
1.91552e+07
1.91556e+07
1.91561e+07
1.91567e+07
1.91487e+07
1.91495e+07
1.91502e+07
1.91509e+07
1.91515e+07
1.9152e+07
1.91525e+07
1.91529e+07
1.91534e+07
1.91538e+07
1.91543e+07
1.91548e+07
1.91552e+07
1.91557e+07
1.91561e+07
1.91565e+07
1.91569e+07
1.91574e+07
1.91579e+07
1.91585e+07
1.91487e+07
1.91496e+07
1.91505e+07
1.91513e+07
1.9152e+07
1.91528e+07
1.91534e+07
1.91541e+07
1.91547e+07
1.91553e+07
1.91558e+07
1.91562e+07
1.91565e+07
1.91568e+07
1.91572e+07
1.91576e+07
1.91581e+07
1.91586e+07
1.91591e+07
1.91595e+07
1.9149e+07
1.91502e+07
1.91512e+07
1.91522e+07
1.91532e+07
1.91542e+07
1.91551e+07
1.91557e+07
1.91561e+07
1.91569e+07
1.91578e+07
1.91588e+07
1.91602e+07
1.91621e+07
1.91636e+07
1.91641e+07
1.91633e+07
1.91616e+07
1.91614e+07
1.91618e+07
1.91492e+07
1.91506e+07
1.91516e+07
1.91526e+07
1.91536e+07
1.91546e+07
1.91555e+07
1.91561e+07
1.91566e+07
1.91573e+07
1.91582e+07
1.91591e+07
1.91605e+07
1.91625e+07
1.91641e+07
1.91648e+07
1.91643e+07
1.91629e+07
1.91626e+07
1.91628e+07
1.91597e+07
1.91638e+07
1.91672e+07
1.91704e+07
1.91738e+07
1.91773e+07
1.91806e+07
1.91839e+07
1.91874e+07
1.91908e+07
1.91941e+07
1.91974e+07
1.92007e+07
1.92041e+07
1.92074e+07
1.92106e+07
1.92139e+07
1.92173e+07
1.92206e+07
1.92238e+07
1.92269e+07
1.92301e+07
1.92334e+07
1.92366e+07
1.92398e+07
1.9243e+07
1.92461e+07
1.92492e+07
1.92524e+07
1.92556e+07
1.92587e+07
1.92618e+07
1.92649e+07
1.9268e+07
1.9271e+07
1.92741e+07
1.92771e+07
1.92801e+07
1.92831e+07
1.92861e+07
1.92891e+07
1.9292e+07
1.9295e+07
1.92979e+07
1.93008e+07
1.93036e+07
1.93065e+07
1.93093e+07
1.93121e+07
1.93149e+07
1.93177e+07
1.93204e+07
1.93232e+07
1.93259e+07
1.93286e+07
1.93312e+07
1.93339e+07
1.93365e+07
1.93391e+07
1.93417e+07
1.93443e+07
1.93469e+07
1.93494e+07
1.93519e+07
1.93544e+07
1.93569e+07
1.93594e+07
1.93618e+07
1.93642e+07
1.93666e+07
1.9369e+07
1.93714e+07
1.93737e+07
1.93761e+07
1.93784e+07
1.93807e+07
1.9383e+07
1.93853e+07
1.93876e+07
1.93898e+07
1.93921e+07
1.93943e+07
1.93965e+07
1.93987e+07
1.94009e+07
1.94031e+07
1.94053e+07
1.94075e+07
1.94097e+07
1.94119e+07
1.9414e+07
1.94161e+07
1.94182e+07
1.94202e+07
1.94222e+07
1.94242e+07
1.94262e+07
1.94281e+07
1.943e+07
1.94317e+07
1.916e+07
1.91638e+07
1.91672e+07
1.91704e+07
1.91738e+07
1.91773e+07
1.91806e+07
1.91839e+07
1.91873e+07
1.91908e+07
1.91941e+07
1.91974e+07
1.92007e+07
1.92041e+07
1.92074e+07
1.92106e+07
1.92139e+07
1.92173e+07
1.92206e+07
1.92238e+07
1.92269e+07
1.92301e+07
1.92334e+07
1.92367e+07
1.92399e+07
1.9243e+07
1.92461e+07
1.92492e+07
1.92524e+07
1.92556e+07
1.92587e+07
1.92618e+07
1.92649e+07
1.9268e+07
1.9271e+07
1.92741e+07
1.92771e+07
1.92801e+07
1.92831e+07
1.92861e+07
1.92891e+07
1.9292e+07
1.9295e+07
1.92979e+07
1.93008e+07
1.93036e+07
1.93065e+07
1.93093e+07
1.93121e+07
1.93149e+07
1.93177e+07
1.93204e+07
1.93232e+07
1.93259e+07
1.93286e+07
1.93312e+07
1.93339e+07
1.93365e+07
1.93391e+07
1.93417e+07
1.93443e+07
1.93469e+07
1.93494e+07
1.93519e+07
1.93544e+07
1.93569e+07
1.93594e+07
1.93618e+07
1.93642e+07
1.93666e+07
1.9369e+07
1.93714e+07
1.93737e+07
1.93761e+07
1.93784e+07
1.93807e+07
1.9383e+07
1.93853e+07
1.93876e+07
1.93898e+07
1.93921e+07
1.93943e+07
1.93965e+07
1.93987e+07
1.94009e+07
1.94031e+07
1.94053e+07
1.94075e+07
1.94097e+07
1.94119e+07
1.9414e+07
1.94161e+07
1.94182e+07
1.94202e+07
1.94222e+07
1.94242e+07
1.94262e+07
1.94281e+07
1.943e+07
1.94317e+07
1.91603e+07
1.91645e+07
1.9168e+07
1.91715e+07
1.9175e+07
1.91784e+07
1.91816e+07
1.91849e+07
1.91884e+07
1.91917e+07
1.91949e+07
1.91982e+07
1.92016e+07
1.92049e+07
1.9208e+07
1.92112e+07
1.92145e+07
1.92179e+07
1.92212e+07
1.92242e+07
1.92273e+07
1.92305e+07
1.92338e+07
1.92371e+07
1.92402e+07
1.92433e+07
1.92464e+07
1.92495e+07
1.92527e+07
1.92558e+07
1.92589e+07
1.9262e+07
1.92651e+07
1.92681e+07
1.92712e+07
1.92742e+07
1.92772e+07
1.92802e+07
1.92832e+07
1.92862e+07
1.92891e+07
1.92921e+07
1.9295e+07
1.92979e+07
1.93008e+07
1.93036e+07
1.93065e+07
1.93093e+07
1.93121e+07