/*--------------------------------*- C++ -*----------------------------------*\
| =========                 |                                                 |
| \\      /  F ield         | OpenFOAM: The Open Source CFD Toolbox           |
|  \\    /   O peration     | Version:  3.0.x                                 |
|   \\  /    A nd           | Web:      www.OpenFOAM.org                      |
|    \\/     M anipulation  |                                                 |
\*---------------------------------------------------------------------------*/
FoamFile
{
    version     2.0;
    format      ascii;
    class       surfaceScalarField;
    location    "0.09";
    object      phi;
}
// * * * * * * * * * * * * * * * * * * * * * * * * * * * * * * * * * * * * * //

dimensions      [1 0 -1 0 0 0 0];

internalField   nonuniform List<scalar> 
12415
(
5.7526
0.000327849
5.75043
0.000235262
5.7483
0.000225173
5.74617
0.000227114
5.74405
0.000227382
5.74195
0.000226641
5.73988
0.000225233
5.73786
0.000222512
5.73587
0.000217682
5.73392
0.000209971
5.73202
0.000198787
5.73015
0.000183907
5.72832
0.000165617
5.72651
0.00014472
5.72473
0.000122413
5.72295
0.000100058
5.72116
7.89482e-05
5.71936
6.00929e-05
5.71752
4.4114e-05
5.71564
3.12292e-05
5.71371
2.13178e-05
5.71172
1.40263e-05
5.70966
8.88386e-06
5.70754
5.38143e-06
5.70535
3.14207e-06
5.70309
1.71311e-06
5.70077
8.40681e-07
5.6984
3.27795e-07
5.69599
3.15431e-08
5.69355
-1.28339e-07
5.69109
-2.1831e-07
5.68863
-2.66666e-07
5.68618
-2.93205e-07
5.68376
-3.07229e-07
5.68137
-3.14043e-07
5.67904
-3.17257e-07
5.67678
-3.17508e-07
5.67459
-3.15516e-07
5.67249
-3.12346e-07
5.67048
-3.07688e-07
5.66858
-3.01816e-07
5.66678
-2.94951e-07
5.6651
-2.87233e-07
5.66353
-2.78782e-07
5.66207
-2.697e-07
5.66072
-2.60145e-07
5.65948
-2.50242e-07
5.65834
-2.4003e-07
5.6573
-2.29809e-07
5.65635
-2.19594e-07
5.65548
-2.09175e-07
5.65469
-1.99119e-07
5.65397
-1.89328e-07
5.65331
-1.79609e-07
5.6527
-1.70394e-07
5.65214
-1.61572e-07
5.65161
-1.53266e-07
5.65112
-1.45445e-07
5.65065
-1.38149e-07
5.6502
-1.31517e-07
5.64978
-1.25452e-07
5.64936
-1.20035e-07
5.64896
-1.18003e-07
5.64856
-1.14149e-07
5.64818
-1.02624e-07
5.64781
-1.04275e-07
5.64745
-1.028e-07
5.64711
-1.0143e-07
5.64678
-1.00728e-07
5.64647
-1.0061e-07
5.64618
-1.01003e-07
5.64592
-1.02029e-07
5.64568
-1.03415e-07
5.64547
-1.05225e-07
5.6453
-1.07446e-07
5.64516
-1.09763e-07
5.64505
-1.12374e-07
5.64498
-1.15044e-07
5.64495
-1.17783e-07
5.64495
-1.18787e-07
5.64498
-1.23286e-07
5.64504
-1.24832e-07
5.64513
-1.27111e-07
5.64525
-1.28835e-07
5.64538
-1.30211e-07
5.64554
-1.31298e-07
5.6457
-1.31744e-07
5.64588
-1.31951e-07
5.64605
-1.31615e-07
5.64622
-1.30722e-07
5.64638
-1.29605e-07
5.64653
-1.27866e-07
5.64665
-1.25736e-07
5.64675
-1.2338e-07
5.64682
-1.20544e-07
5.64685
-1.17543e-07
5.64685
-1.15058e-07
5.64681
-1.11704e-07
5.64672
-1.07717e-07
5.6466
-1.0407e-07
5.64642
-1.00414e-07
5.6462
-9.73305e-08
5.64593
-9.38526e-08
5.64562
-9.09495e-08
5.64526
-8.813e-08
5.64485
-8.54525e-08
5.64441
-8.32697e-08
5.64392
-8.09323e-08
5.64339
-7.91006e-08
5.64282
-7.72725e-08
5.64221
-7.54826e-08
5.64155
-7.43694e-08
5.64085
-7.17228e-08
5.6401
-7.03294e-08
5.63929
-6.82958e-08
5.63843
-6.61639e-08
5.6375
-6.37137e-08
5.6365
-6.10398e-08
5.63543
-5.82149e-08
5.63428
-5.50262e-08
5.63305
-5.19121e-08
5.63173
-4.86689e-08
5.63032
-4.55784e-08
5.62883
-4.27408e-08
5.62725
-4.02033e-08
5.62559
-3.83316e-08
5.62385
-3.70819e-08
5.62205
-3.67709e-08
5.62019
-3.7473e-08
5.61829
-3.9292e-08
5.61635
-4.2417e-08
5.6144
-4.68008e-08
5.61245
-5.26143e-08
5.61052
-5.97902e-08
5.60862
-6.83358e-08
5.60677
-7.81965e-08
5.60499
-8.92142e-08
5.60329
-1.01332e-07
5.60168
-1.14323e-07
5.60018
-1.28046e-07
5.59879
-1.42249e-07
5.59753
-1.56691e-07
5.59639
-1.71163e-07
5.59537
-1.85351e-07
5.59448
-1.99061e-07
5.5937
-2.12012e-07
5.59304
-2.23979e-07
5.59247
-2.34786e-07
5.592
-2.44212e-07
5.59159
-2.52159e-07
5.59123
-2.58513e-07
5.59091
-2.63233e-07
5.59062
-2.6634e-07
5.59032
-2.67868e-07
5.59
-2.67948e-07
5.58966
-2.66726e-07
5.58927
-2.64421e-07
5.58882
-2.6126e-07
5.58831
-2.57483e-07
5.58773
-2.5336e-07
5.58707
-2.4912e-07
5.58634
-2.44974e-07
5.58554
-2.41105e-07
5.58467
-2.37629e-07
5.58373
-2.34626e-07
5.58273
-2.32107e-07
5.58167
-2.30069e-07
5.58055
-2.28474e-07
5.57937
-2.27268e-07
5.57814
-2.26417e-07
5.57686
-2.2588e-07
5.57552
-2.25657e-07
5.57414
-2.25749e-07
5.57271
-2.26244e-07
5.57124
-2.27199e-07
5.56973
-2.28778e-07
5.56819
-2.3091e-07
5.56664
-2.34113e-07
5.56507
-2.37666e-07
5.56351
-2.43324e-07
5.56197
-2.48327e-07
5.56046
-2.57241e-07
5.559
-2.632e-07
5.5576
-2.75031e-07
5.55628
-2.84284e-07
5.55504
-2.95986e-07
5.5539
-3.07369e-07
5.55285
-3.17674e-07
5.55188
-3.2967e-07
5.551
-3.37255e-07
5.55017
-3.35165e-07
5.54939
-2.63877e-07
5.54863
2.78373e-07
5.54786
4.14845e-06
5.54705
3.18762e-05
5.54602
0.00021968
5.54362
0.00154386
5.53194
0.0107756
5.44505
0.0859285
0.423574
5.02049
11.5059
0.000260566
11.5021
0.000215715
11.4983
0.000190035
11.4945
0.000194409
11.4908
0.000195579
11.4871
0.000194527
11.4834
0.000193251
11.4798
0.000190991
11.4763
0.000186943
11.4729
0.000180443
11.4695
0.000170976
11.4662
0.000158337
11.4628
0.000142749
11.4595
0.00012489
11.4562
0.000105775
11.4529
8.65738e-05
11.4495
6.84019e-05
11.446
5.21376e-05
11.4424
3.83276e-05
11.4387
2.71714e-05
11.4349
1.85743e-05
11.431
1.22386e-05
11.4269
7.76419e-06
11.4226
4.71363e-06
11.4183
2.75403e-06
11.4137
1.50856e-06
11.4091
7.45183e-07
11.4044
2.97465e-07
11.3995
2.77571e-08
11.3947
-1.04522e-07
11.3897
-1.84806e-07
11.3848
-2.27288e-07
11.3799
-2.50567e-07
11.3751
-2.62975e-07
11.3703
-2.69024e-07
11.3656
-2.71817e-07
11.3611
-2.72106e-07
11.3567
-2.70429e-07
11.3525
-2.6769e-07
11.3485
-2.63717e-07
11.3447
-2.58679e-07
11.3411
-2.52793e-07
11.3377
-2.46176e-07
11.3346
-2.3893e-07
11.3317
-2.31142e-07
11.329
-2.22949e-07
11.3265
-2.1446e-07
11.3242
-2.05714e-07
11.3221
-1.96942e-07
11.3202
-1.88179e-07
11.3185
-1.79272e-07
11.3169
-1.70631e-07
11.3155
-1.6224e-07
11.3142
-1.53922e-07
11.3129
-1.46007e-07
11.3118
-1.38459e-07
11.3108
-1.31326e-07
11.3098
-1.24631e-07
11.3088
-1.18381e-07
11.3079
-1.12692e-07
11.3071
-1.07507e-07
11.3063
-1.02985e-07
11.3054
-1.00971e-07
11.3047
-9.74064e-08
11.3039
-8.86155e-08
11.3031
-8.91168e-08
11.3024
-8.80659e-08
11.3017
-8.69197e-08
11.3011
-8.63129e-08
11.3005
-8.62194e-08
11.2999
-8.6565e-08
11.2994
-8.74238e-08
11.2989
-8.86289e-08
11.2985
-9.01771e-08
11.2981
-9.20659e-08
11.2978
-9.40774e-08
11.2976
-9.62914e-08
11.2975
-9.8589e-08
11.2974
-1.00871e-07
11.2974
-1.02057e-07
11.2975
-1.05324e-07
11.2976
-1.07135e-07
11.2978
-1.08913e-07
11.298
-1.10407e-07
11.2983
-1.11589e-07
11.2986
-1.12506e-07
11.2989
-1.12904e-07
11.2993
-1.13072e-07
11.2996
-1.12781e-07
11.3
-1.12038e-07
11.3003
-1.1105e-07
11.3006
-1.09577e-07
11.3008
-1.07754e-07
11.301
-1.05718e-07
11.3011
-1.0331e-07
11.3012
-1.00749e-07
11.3012
-9.85008e-08
11.3011
-9.58298e-08
11.301
-9.23083e-08
11.3007
-8.912e-08
11.3003
-8.60689e-08
11.2999
-8.33807e-08
11.2994
-8.04578e-08
11.2987
-7.79246e-08
11.298
-7.55185e-08
11.2972
-7.32523e-08
11.2963
-7.13378e-08
11.2953
-6.93874e-08
11.2943
-6.77746e-08
11.2931
-6.62553e-08
11.2919
-6.45439e-08
11.2906
-6.45223e-08
11.2892
-6.0812e-08
11.2877
-6.01924e-08
11.2861
-5.85585e-08
11.2843
-5.66745e-08
11.2825
-5.45904e-08
11.2805
-5.22982e-08
11.2784
-4.98699e-08
11.2761
-4.71475e-08
11.2736
-4.44625e-08
11.271
-4.16951e-08
11.2681
-3.90373e-08
11.2651
-3.66088e-08
11.262
-3.4431e-08
11.2587
-3.28203e-08
11.2552
-3.17534e-08
11.2516
-3.14851e-08
11.2479
-3.2097e-08
11.2441
-3.36663e-08
11.2402
-3.63509e-08
11.2363
-4.01167e-08
11.2324
-4.51021e-08
11.2285
-5.12553e-08
11.2247
-5.85812e-08
11.221
-6.70366e-08
11.2175
-7.6479e-08
11.2141
-8.68652e-08
11.2108
-9.79958e-08
11.2078
-1.09756e-07
11.2051
-1.21932e-07
11.2025
-1.34306e-07
11.2003
-1.4671e-07
11.1982
-1.5887e-07
11.1964
-1.70615e-07
11.1949
-1.81713e-07
11.1936
-1.91965e-07
11.1924
-2.01224e-07
11.1915
-2.09304e-07
11.1906
-2.1611e-07
11.1899
-2.21556e-07
11.1893
-2.25602e-07
11.1887
-2.28263e-07
11.1881
-2.29574e-07
11.1875
-2.29642e-07
11.1868
-2.28595e-07
11.186
-2.2662e-07
11.1851
-2.23911e-07
11.1841
-2.20676e-07
11.1829
-2.17146e-07
11.1816
-2.13514e-07
11.1802
-2.09965e-07
11.1785
-2.06652e-07
11.1768
-2.03673e-07
11.1749
-2.01101e-07
11.1729
-1.98944e-07
11.1708
-1.97199e-07
11.1686
-1.95832e-07
11.1662
-1.94802e-07
11.1637
-1.94071e-07
11.1612
-1.93614e-07
11.1585
-1.93421e-07
11.1557
-1.93504e-07
11.1529
-1.93929e-07
11.1499
-1.94751e-07
11.1469
-1.961e-07
11.1438
-1.97942e-07
11.1407
-2.00657e-07
11.1376
-2.03768e-07
11.1345
-2.08508e-07
11.1314
-2.13032e-07
11.1284
-2.20755e-07
11.1254
-2.24867e-07
11.1226
-2.35871e-07
11.12
-2.43609e-07
11.1175
-2.54865e-07
11.1152
-2.62432e-07
11.1131
-2.71893e-07
11.1112
-2.82921e-07
11.1094
-2.83468e-07
11.1078
-2.61032e-07
11.1062
-3.46613e-08
11.1047
1.57703e-06
11.1032
1.30288e-05
11.1015
9.50048e-05
11.0995
0.000650722
11.0947
0.00456674
11.072
0.0317138
10.9296
0.226426
1.06377
10.2874
138.071
-0.000260566
138.025
-0.000215715
137.979
-0.000190035
137.934
-0.000194409
137.889
-0.000195579
137.845
-0.000194527
137.801
-0.000193251
137.758
-0.000190991
137.716
-0.000186943
137.674
-0.000180443
137.634
-0.000170976
137.594
-0.000158337
137.554
-0.000142749
137.514
-0.00012489
137.475
-0.000105775
137.435
-8.65738e-05
137.394
-6.84019e-05
137.352
-5.21376e-05
137.309
-3.83276e-05
137.265
-2.71714e-05
137.219
-1.85743e-05
137.172
-1.22386e-05
137.122
-7.76419e-06
137.072
-4.71363e-06
137.019
-2.75403e-06
136.965
-1.50857e-06
136.909
-7.45184e-07
136.852
-2.97469e-07
136.794
-2.77548e-08
136.736
1.04524e-07
136.677
1.84807e-07
136.618
2.27288e-07
136.559
2.50566e-07
136.501
2.62977e-07
136.444
2.69026e-07
136.388
2.71818e-07
136.333
2.72101e-07
136.281
2.7043e-07
136.23
2.67694e-07
136.182
2.63714e-07
136.136
2.58679e-07
136.093
2.52794e-07
136.053
2.46175e-07
136.015
2.38931e-07
135.98
2.31141e-07
135.948
2.22953e-07
135.918
2.1446e-07
135.891
2.05713e-07
135.866
1.96941e-07
135.843
1.88179e-07
135.822
1.79271e-07
135.803
1.70629e-07
135.786
1.62241e-07
135.77
1.53926e-07
135.755
1.4601e-07
135.742
1.38456e-07
135.729
1.31326e-07
135.717
1.24631e-07
135.706
1.18381e-07
135.695
1.1269e-07
135.685
1.07509e-07
135.675
1.02984e-07
135.665
1.00969e-07
135.656
9.74035e-08
135.647
8.8613e-08
135.638
8.91152e-08
135.629
8.80673e-08
135.621
8.69197e-08
135.613
8.63115e-08
135.606
8.62176e-08
135.599
8.65614e-08
135.592
8.7424e-08
135.587
8.86282e-08
135.582
9.01789e-08
135.577
9.20675e-08
135.574
9.40793e-08
135.572
9.62937e-08
135.57
9.85881e-08
135.569
1.00867e-07
135.569
1.02058e-07
135.57
1.05326e-07
135.571
1.07137e-07
135.573
1.08912e-07
135.576
1.10408e-07
135.579
1.11588e-07
135.583
1.12503e-07
135.587
1.12906e-07
135.591
1.13073e-07
135.595
1.12781e-07
135.599
1.12042e-07
135.603
1.11049e-07
135.607
1.09576e-07
135.61
1.07754e-07
135.612
1.05717e-07
135.614
1.03311e-07
135.615
1.00747e-07
135.615
9.85017e-08
135.613
9.58303e-08
135.611
9.23096e-08
135.608
8.91214e-08
135.604
8.60668e-08
135.599
8.33784e-08
135.592
8.04564e-08
135.585
7.79239e-08
135.576
7.55144e-08
135.567
7.32507e-08
135.556
7.13362e-08
135.544
6.93874e-08
135.531
6.7776e-08
135.518
6.6259e-08
135.503
6.45462e-08
135.487
6.45243e-08
135.47
6.08102e-08
135.452
6.01924e-08
135.433
5.85599e-08
135.412
5.66754e-08
135.39
5.45897e-08
135.366
5.22996e-08
135.34
4.98733e-08
135.313
4.71471e-08
135.283
4.44634e-08
135.251
4.1694e-08
135.218
3.90401e-08
135.182
3.66051e-08
135.144
3.44312e-08
135.104
3.28214e-08
135.062
3.17552e-08
135.019
3.14878e-08
134.974
3.20965e-08
134.929
3.36677e-08
134.882
3.63514e-08
134.835
4.0116e-08
134.789
4.51014e-08
134.742
5.1258e-08
134.697
5.85846e-08
134.652
6.70352e-08
134.61
7.6479e-08
134.569
8.68647e-08
134.53
9.79962e-08
134.494
1.09756e-07
134.461
1.21933e-07
134.43
1.34308e-07
134.403
1.46707e-07
134.379
1.58873e-07
134.357
1.70615e-07
134.339
1.81714e-07
134.323
1.91968e-07
134.309
2.01225e-07
134.298
2.09302e-07
134.288
2.16111e-07
134.279
2.21558e-07
134.272
2.25605e-07
134.264
2.28261e-07
134.257
2.29573e-07
134.25
2.29642e-07
134.241
2.28596e-07
134.232
2.2662e-07
134.221
2.23911e-07
134.209
2.20674e-07
134.195
2.17145e-07
134.179
2.13512e-07
134.162
2.09964e-07
134.143
2.06649e-07
134.122
2.03671e-07
134.099
2.01097e-07
134.075
1.98944e-07
134.05
1.97198e-07
134.023
1.95829e-07
133.994
1.948e-07
133.965
1.94072e-07
133.934
1.93612e-07
133.902
1.9342e-07
133.869
1.935e-07
133.834
1.93924e-07
133.799
1.94757e-07
133.763
1.96082e-07
133.726
1.97975e-07
133.689
2.0058e-07
133.651
2.03925e-07
133.614
2.08225e-07
133.577
2.13405e-07
133.54
2.1957e-07
133.505
2.26965e-07
133.472
2.34647e-07
133.44
2.44182e-07
133.41
2.53028e-07
133.383
2.63475e-07
133.358
2.72575e-07
133.334
2.8443e-07
133.313
2.96725e-07
133.293
3.45177e-07
133.275
6.297e-07
133.256
2.55361e-06
133.238
1.57472e-05
133.219
0.000126804
133.2
0.000887037
133.177
0.00639481
133.141
0.0459743
132.977
0.36775
1.56885
132.448
11.5059
-0.000327849
11.5021
-0.000235262
11.4983
-0.000225173
11.4945
-0.000227114
11.4908
-0.000227382
11.4871
-0.000226641
11.4834
-0.000225233
11.4798
-0.000222512
11.4763
-0.000217682
11.4729
-0.000209971
11.4695
-0.000198787
11.4662
-0.000183907
11.4628
-0.000165617
11.4595
-0.00014472
11.4562
-0.000122413
11.4529
-0.000100058
11.4495
-7.89482e-05
11.446
-6.00929e-05
11.4424
-4.4114e-05
11.4387
-3.12292e-05
11.4349
-2.13178e-05
11.431
-1.40263e-05
11.4269
-8.88386e-06
11.4226
-5.38143e-06
11.4183
-3.14207e-06
11.4137
-1.71312e-06
11.4091
-8.40682e-07
11.4044
-3.27796e-07
11.3995
-3.15449e-08
11.3947
1.28341e-07
11.3897
2.18311e-07
11.3848
2.66666e-07
11.3799
2.93201e-07
11.3751
3.07233e-07
11.3703
3.14043e-07
11.3656
3.17259e-07
11.3611
3.17505e-07
11.3567
3.1552e-07
11.3525
3.1235e-07
11.3485
3.07688e-07
11.3447
3.01814e-07
11.3411
2.94951e-07
11.3377
2.87231e-07
11.3346
2.7878e-07
11.3317
2.69696e-07
11.329
2.60146e-07
11.3265
2.5024e-07
11.3242
2.40032e-07
11.3221
2.29809e-07
11.3202
2.19592e-07
11.3185
2.09177e-07
11.3169
1.99117e-07
11.3155
1.89328e-07
11.3142
1.79611e-07
11.3129
1.70397e-07
11.3118
1.6157e-07
11.3108
1.53266e-07
11.3098
1.45446e-07
11.3088
1.3815e-07
11.3079
1.31518e-07
11.3071
1.2545e-07
11.3063
1.20033e-07
11.3054
1.18001e-07
11.3047
1.14149e-07
11.3039
1.02624e-07
11.3031
1.04274e-07
11.3024
1.028e-07
11.3017
1.0143e-07
11.3011
1.00728e-07
11.3005
1.0061e-07
11.2999
1.01003e-07
11.2994
1.02029e-07
11.2989
1.03415e-07
11.2985
1.05225e-07
11.2981
1.07446e-07
11.2978
1.09763e-07
11.2976
1.12374e-07
11.2975
1.15042e-07
11.2974
1.17781e-07
11.2974
1.18784e-07
11.2975
1.23286e-07
11.2976
1.24832e-07
11.2978
1.27109e-07
11.298
1.28839e-07
11.2983
1.30207e-07
11.2986
1.31298e-07
11.2989
1.31744e-07
11.2993
1.31949e-07
11.2996
1.31615e-07
11.3
1.30723e-07
11.3003
1.29605e-07
11.3006
1.2786e-07
11.3008
1.25734e-07
11.301
1.2338e-07
11.3011
1.20544e-07
11.3012
1.17543e-07
11.3012
1.15057e-07
11.3011
1.11704e-07
11.301
1.07715e-07
11.3007
1.0407e-07
11.3003
1.00414e-07
11.2999
9.73268e-08
11.2994
9.38526e-08
11.2987
9.09495e-08
11.298
8.81282e-08
11.2972
8.54525e-08
11.2963
8.32697e-08
11.2953
8.09359e-08
11.2943
7.91006e-08
11.2931
7.72761e-08
11.2919
7.54844e-08
11.2906
7.43694e-08
11.2892
7.17209e-08
11.2877
7.03312e-08
11.2861
6.82994e-08
11.2843
6.61621e-08
11.2825
6.37137e-08
11.2805
6.10435e-08
11.2784
5.82168e-08
11.2761
5.50262e-08
11.2736
5.1914e-08
11.271
4.86689e-08
11.2681
4.55821e-08
11.2651
4.27408e-08
11.262
4.02051e-08
11.2587
3.83316e-08
11.2552
3.70837e-08
11.2516
3.67709e-08
11.2479
3.7473e-08
11.2441
3.9292e-08
11.2402
4.2417e-08
11.2363
4.68008e-08
11.2324
5.26143e-08
11.2285
5.9792e-08
11.2247
6.83394e-08
11.221
7.81965e-08
11.2175
8.92142e-08
11.2141
1.01334e-07
11.2108
1.14323e-07
11.2078
1.28046e-07
11.2051
1.42249e-07
11.2025
1.56691e-07
11.2003
1.7116e-07
11.1982
1.8535e-07
11.1964
1.99061e-07
11.1949
2.12014e-07
11.1936
2.23979e-07
11.1924
2.34786e-07
11.1915
2.44208e-07
11.1906
2.52159e-07
11.1899
2.58513e-07
11.1893
2.63237e-07
11.1887
2.66338e-07
11.1881
2.67868e-07
11.1875
2.67946e-07
11.1868
2.66728e-07
11.186
2.64425e-07
11.1851
2.6126e-07
11.1841
2.5748e-07
11.1829
2.5336e-07
11.1816
2.4912e-07
11.1802
2.44976e-07
11.1785
2.41105e-07
11.1768
2.37625e-07
11.1749
2.34626e-07
11.1729
2.32107e-07
11.1708
2.30069e-07
11.1686
2.28472e-07
11.1662
2.27268e-07
11.1637
2.26417e-07
11.1612
2.2588e-07
11.1585
2.25657e-07
11.1557
2.25749e-07
11.1529
2.2624e-07
11.1499
2.27208e-07
11.1469
2.28751e-07
11.1438
2.30963e-07
11.1407
2.33991e-07
11.1376
2.37898e-07
11.1345
2.42915e-07
11.1314
2.48936e-07
11.1284
2.56201e-07
11.1254
2.64658e-07
11.1226
2.73998e-07
11.12
2.84674e-07
11.1175
2.9552e-07
11.1152
3.07275e-07
11.1131
3.18385e-07
11.1112
3.30256e-07
11.1094
3.41257e-07
11.1078
3.63967e-07
11.1062
4.64806e-07
11.1047
1.11899e-06
11.1032
5.4723e-06
11.1017
4.33334e-05
11.1007
0.000300915
11.1032
0.00218593
11.131
0.0162918
11.3174
0.179466
0.680083
12.2042
5.7526
5.75043
5.7483
5.74617
5.74405
5.74195
5.73988
5.73786
5.73587
5.73392
5.73202
5.73015
5.72832
5.72651
5.72473
5.72295
5.72116
5.71936
5.71752
5.71564
5.71371
5.71172
5.70966
5.70754
5.70535
5.70309
5.70077
5.6984
5.69599
5.69355
5.69109
5.68863
5.68618
5.68376
5.68137
5.67904
5.67678
5.67459
5.67249
5.67048
5.66858
5.66678
5.6651
5.66353
5.66207
5.66072
5.65948
5.65834
5.6573
5.65635
5.65548
5.65469
5.65397
5.65331
5.6527
5.65214
5.65161
5.65112
5.65065
5.6502
5.64978
5.64936
5.64896
5.64856
5.64818
5.64781
5.64745
5.64711
5.64678
5.64647
5.64618
5.64592
5.64568
5.64547
5.6453
5.64516
5.64505
5.64498
5.64495
5.64495
5.64498
5.64504
5.64513
5.64525
5.64538
5.64554
5.6457
5.64588
5.64605
5.64622
5.64638
5.64653
5.64665
5.64675
5.64682
5.64685
5.64685
5.64681
5.64672
5.6466
5.64642
5.6462
5.64593
5.64562
5.64526
5.64485
5.64441
5.64392
5.64339
5.64282
5.64221
5.64155
5.64085
5.6401
5.63929
5.63843
5.6375
5.6365
5.63543
5.63428
5.63305
5.63173
5.63032
5.62883
5.62725
5.62559
5.62385
5.62205
5.62019
5.61829
5.61635
5.6144
5.61245
5.61052
5.60862
5.60677
5.60499
5.60329
5.60168
5.60018
5.59879
5.59753
5.59639
5.59537
5.59448
5.5937
5.59304
5.59247
5.592
5.59159
5.59123
5.59091
5.59062
5.59032
5.59
5.58966
5.58927
5.58882
5.58831
5.58773
5.58707
5.58634
5.58554
5.58467
5.58373
5.58273
5.58167
5.58055
5.57937
5.57814
5.57686
5.57552
5.57414
5.57271
5.57124
5.56973
5.56819
5.56664
5.56507
5.56351
5.56197
5.56046
5.559
5.5576
5.55628
5.55504
5.5539
5.55285
5.55188
5.551
5.55017
5.54939
5.54863
5.54787
5.54714
5.54663
5.54796
5.56334
5.74185
6.42095
4.89868
0.121546
4.90573
-0.00731451
4.90181
0.00365759
4.90563
-0.00409541
4.91935
-0.0139994
4.94537
-0.026301
5.0225
-0.077401
5.14144
-0.119352
5.22138
-0.0804688
5.2081
0.0127978
5.13219
0.0756963
5.01505
0.117184
4.90884
0.106787
4.99307
-0.0821881
5.37319
-0.378485
5.96322
-0.589566
6.54137
-0.579523
6.88965
-0.351315
6.93315
-0.0478809
-0.171989
7.10116
10.2375
0.170987
10.2557
-0.0260389
10.3015
-0.0427536
10.3548
-0.0578406
10.4209
-0.0807232
10.5081
-0.114028
10.7044
-0.27419
10.9902
-0.406083
11.208
-0.29934
11.2476
-0.0276121
11.1559
0.167042
10.956
0.317239
10.7017
0.362139
10.719
-0.0956495
11.2528
-0.909003
12.2364
-1.57294
13.4037
-1.75008
14.3362
-1.29042
14.7035
-0.423266
-0.348588
14.873
132.495
0.118889
132.563
-0.098459
132.561
-0.045648
132.399
0.0993513
132.084
0.229547
131.654
0.310027
131.01
0.36644
130.245
0.353151
129.556
0.385538
129.172
0.350252
128.985
0.348343
128.973
0.322173
129.03
0.296737
128.65
0.27383
127.48
0.251958
125.678
0.224106
123.746
0.181253
122.34
0.118122
121.89
0.0310725
-0.17999
121.722
12.1485
0.174319
12.0553
-0.00560055
12.0149
-0.00558149
12.0885
0.0253997
12.2608
0.0568707
12.4897
0.0807343
12.7561
0.0991233
13.0097
0.0996895
13.286
0.10833
13.536
0.100322
13.7864
0.0975818
14.0192
0.0889426
14.2359
0.0797287
14.4384
0.0709521
14.6284
0.0615517
14.8043
0.0479008
14.9602
0.0248926
15.0906
-0.0127359
15.1966
-0.0752883
-0.252601
15.2689
6.59513
6.58938
6.58364
6.60888
6.66557
6.74609
6.84484
6.94448
7.05251
7.15278
7.2502
7.33896
7.41852
7.48929
7.55066
7.59836
7.62306
7.61012
7.53466
7.28188
7.00164
0.096716
7.35537
-0.353064
7.69601
-0.343033
7.75124
-0.0578988
7.70237
0.0472302
7.68345
0.0172711
7.72073
-0.0389827
7.75285
-0.0340642
7.75811
-0.00711756
7.75177
0.0046805
7.73887
0.0111997
7.71805
0.0190969
7.6822
0.0339197
7.62051
0.0581834
7.52075
0.089122
7.38213
0.125996
7.21068
0.166424
7.01041
0.199286
6.79464
0.224981
6.57331
0.234104
6.35576
0.222159
6.15762
0.198358
5.98884
0.167255
5.8525
0.132661
5.74791
0.102206
5.67067
0.0757993
5.61518
0.0546074
5.57624
0.0383618
5.54952
0.0263267
5.53158
0.0176616
5.51979
0.0115826
5.51222
0.00742364
5.50745
0.0046487
5.5045
0.00284343
5.5027
0.00169869
5.5016
0.000991198
5.5009
0.000564943
5.50042
0.000314633
5.50004
0.000171258
5.49968
9.11354e-05
5.49931
4.74305e-05
5.4989
2.41472e-05
5.49843
1.20263e-05
5.49789
5.85656e-06
5.49729
2.78421e-06
5.49661
1.28658e-06
5.49587
5.71396e-07
5.49506
2.35921e-07
5.49418
8.14325e-08
5.49326
1.16161e-08
5.49228
-1.93631e-08
5.49126
-3.33202e-08
5.4902
-3.98431e-08
5.48912
-4.31592e-08
5.48801
-4.51782e-08
5.48688
-4.66825e-08
5.48574
-4.8014e-08
5.48459
-4.93237e-08
5.48344
-5.06789e-08
5.48228
-5.21122e-08
5.48114
-5.36493e-08
5.48
-5.52754e-08
5.47887
-5.69526e-08
5.47775
-5.86424e-08
5.47665
-6.03268e-08
5.47557
-6.19912e-08
5.47451
-6.36192e-08
5.47347
-6.52126e-08
5.47246
-6.67951e-08
5.47147
-6.83885e-08
5.47051
-7.00147e-08
5.46959
-7.16918e-08
5.4687
-7.34472e-08
5.46785
-7.53062e-08
5.46704
-7.73016e-08
5.46627
-7.94662e-08
5.46554
-8.18382e-08
5.46486
-8.44539e-08
5.46424
-8.73406e-08
5.46366
-9.05184e-08
5.46313
-9.40108e-08
5.46266
-9.78253e-08
5.46224
-1.0196e-07
5.46187
-1.06429e-07
5.46155
-1.11235e-07
5.46129
-1.16353e-07
5.46108
-1.21749e-07
5.46091
-1.27373e-07
5.4608
-1.33188e-07
5.46073
-1.39124e-07
5.4607
-1.45119e-07
5.46071
-1.5102e-07
5.46075
-1.57201e-07
5.46083
-1.6272e-07
5.46094
-1.68631e-07
5.46107
-1.68491e-07
5.46122
-1.80349e-07
5.4614
-1.85784e-07
5.46159
-1.89484e-07
5.46178
-1.92818e-07
5.46199
-1.95656e-07
5.4622
-1.98179e-07
5.46242
-2.00032e-07
5.46263
-2.01482e-07
5.46283
-2.02506e-07
5.46303
-2.03261e-07
5.46322
-2.03599e-07
5.46339
-2.03841e-07
5.46354
-2.0303e-07
5.46368
-2.01351e-07
5.46379
-1.99521e-07
5.46388
-1.96469e-07
5.46393
-1.93022e-07
5.46396
-1.89186e-07
5.46396
-1.84766e-07
5.46393
-1.80149e-07
5.46386
-1.75836e-07
5.46376
-1.7069e-07
5.46362
-1.65994e-07
5.46345
-1.61224e-07
5.46325
-1.56731e-07
5.46302
-1.54125e-07
5.46276
-1.4887e-07
5.46248
-1.41014e-07
5.46217
-1.36562e-07
5.46185
-1.32604e-07
5.46152
-1.29659e-07
5.46118
-1.2736e-07
5.46084
-1.25765e-07
5.46051
-1.24692e-07
5.46019
-1.24091e-07
5.45988
-1.24081e-07
5.4596
-1.24463e-07
5.45935
-1.25247e-07
5.45913
-1.26876e-07
5.45894
-1.28621e-07
5.4588
-1.31127e-07
5.45871
-1.34256e-07
5.45865
-1.37597e-07
5.45865
-1.41725e-07
5.45869
-1.45947e-07
5.45878
-1.50569e-07
5.45891
-1.54934e-07
5.45908
-1.59422e-07
5.45929
-1.63896e-07
5.45954
-1.67231e-07
5.45982
-1.70588e-07
5.46013
-1.759e-07
5.46046
-1.81184e-07
5.46081
-1.84749e-07
5.46118
-1.87809e-07
5.46156
-1.90374e-07
5.46195
-1.92673e-07
5.46234
-1.94523e-07
5.46274
-1.96331e-07
5.46312
-1.9751e-07
5.4635
-1.98315e-07
5.46387
-1.98736e-07
5.46421
-1.9905e-07
5.46454
-1.98625e-07
5.46483
-1.97388e-07
5.46509
-1.95481e-07
5.46532
-1.92791e-07
5.46549
-1.8902e-07
5.46562
-1.84828e-07
5.4657
-1.80156e-07
5.46572
-1.74954e-07
5.46568
-1.69481e-07
5.46558
-1.64422e-07
5.46542
-1.5849e-07
5.4652
-1.54163e-07
5.46492
-1.47056e-07
5.46459
-1.4282e-07
5.46419
-1.34985e-07
5.46375
-1.29436e-07
5.46326
-1.23599e-07
5.46274
-1.20292e-07
5.46218
-1.14482e-07
5.4616
-1.15082e-07
5.46101
-1.09214e-07
5.46041
-1.11319e-07
5.45982
-1.07377e-07
5.45924
-1.0666e-07
5.45868
-1.13803e-07
5.45814
-1.02969e-07
5.45764
-1.22454e-07
5.45716
-1.0453e-07
5.45672
-1.29918e-07
5.45631
-1.0959e-07
5.45592
-1.7895e-07
5.45554
-3.21512e-07
5.45518
-1.25653e-06
5.45481
-5.87877e-06
5.45446
-2.99535e-05
5.45422
-0.000153999
5.45458
-0.000796297
5.45827
-0.00415554
5.48022
-0.0224647
5.64394
-0.164285
-0.63875
6.28207
13.9606
1.00444
14.172
-0.563298
14.7368
-0.912689
14.8903
-0.216638
14.7885
0.145623
14.7087
0.0938209
14.7482
-0.0820294
14.8081
-0.0977135
14.8216
-0.0243659
14.8026
0.02049
14.7649
0.0455864
14.7131
0.0674969
14.6403
0.103331
14.5334
0.161114
14.3762
0.239186
14.1598
0.333252
13.8855
0.435935
13.557
0.525464
13.1928
0.590359
12.8151
0.615449
12.4466
0.591321
12.1117
0.532317
11.8262
0.451092
11.5958
0.361423
11.4189
0.277664
11.2882
0.205322
11.1948
0.147033
11.1299
0.102433
11.086
0.069609
11.0569
0.0462065
11.0381
0.0299801
11.0262
0.0190168
11.0189
0.0117926
11.0144
0.00714844
11.0116
0.00423577
11.0099
0.00245355
11.0088
0.00138933
11.0081
0.000769341
11.0074
0.000416681
11.0067
0.000220798
11.006
0.000114509
11.0052
5.81408e-05
11.0043
2.89087e-05
11.0032
1.40774e-05
11.002
6.71178e-06
11.0006
3.12965e-06
10.9991
1.4225e-06
10.9975
6.22858e-07
10.9958
2.55419e-07
10.9939
9.04388e-08
10.992
1.79271e-08
10.9899
-1.38889e-08
10.9878
-2.80312e-08
10.9856
-3.44411e-08
10.9834
-3.76797e-08
10.9812
-3.95836e-08
10.9789
-4.09643e-08
10.9766
-4.21777e-08
10.9743
-4.33645e-08
10.972
-4.46031e-08
10.9697
-4.59501e-08
10.9674
-4.73809e-08
10.9652
-4.88346e-08
10.9629
-5.02786e-08
10.9607
-5.17073e-08
10.9586
-5.31138e-08
10.9564
-5.44883e-08
10.9544
-5.58382e-08
10.9523
-5.71827e-08
10.9503
-5.85445e-08
10.9484
-5.99405e-08
10.9466
-6.1386e-08
10.9448
-6.28986e-08
10.9431
-6.45011e-08
10.9415
-6.62185e-08
10.9399
-6.80849e-08
10.9385
-7.01297e-08
10.9371
-7.23821e-08
10.9359
-7.48653e-08
10.9347
-7.75982e-08
10.9337
-8.06009e-08
10.9327
-8.38634e-08
10.9319
-8.7383e-08
10.9311
-9.11979e-08
10.9305
-9.53142e-08
10.93
-9.97069e-08
10.9296
-1.04341e-07
10.9292
-1.09169e-07
10.929
-1.14152e-07
10.9289
-1.19228e-07
10.9288
-1.24355e-07
10.9288
-1.29435e-07
10.9289
-1.34641e-07
10.9291
-1.39431e-07
10.9293
-1.44149e-07
10.9295
-1.45378e-07
10.9298
-1.54011e-07
10.9302
-1.59064e-07
10.9306
-1.62439e-07
10.931
-1.65265e-07
10.9314
-1.67694e-07
10.9318
-1.699e-07
10.9322
-1.71447e-07
10.9326
-1.727e-07
10.9331
-1.73572e-07
10.9334
-1.74223e-07
10.9338
-1.74515e-07
10.9342
-1.74694e-07
10.9345
-1.74036e-07
10.9347
-1.72612e-07
10.935
-1.70969e-07
10.9351
-1.68418e-07
10.9353
-1.65453e-07
10.9353
-1.62143e-07
10.9353
-1.5838e-07
10.9352
-1.54425e-07
10.9351
-1.50636e-07
10.9349
-1.46368e-07
10.9346
-1.42246e-07
10.9343
-1.38199e-07
10.9339
-1.34433e-07
10.9334
-1.31844e-07
10.9329
-1.27457e-07
10.9323
-1.21094e-07
10.9317
-1.17037e-07
10.9311
-1.13689e-07
10.9304
-1.11121e-07
10.9297
-1.09164e-07
10.9291
-1.07786e-07
10.9284
-1.06881e-07
10.9277
-1.06378e-07
10.9271
-1.06367e-07
10.9266
-1.06696e-07
10.9261
-1.07399e-07
10.9256
-1.08739e-07
10.9253
-1.10288e-07
10.925
-1.12406e-07
10.9248
-1.15067e-07
10.9247
-1.17982e-07
10.9247
-1.21451e-07
10.9247
-1.25134e-07
10.9249
-1.29064e-07
10.9252
-1.32805e-07
10.9255
-1.36656e-07
10.926
-1.40418e-07
10.9264
-1.43397e-07
10.927
-1.46302e-07
10.9276
-1.50828e-07
10.9283
-1.55169e-07
10.929
-1.58354e-07
10.9297
-1.60935e-07
10.9305
-1.63185e-07
10.9313
-1.65156e-07
10.932
-1.6675e-07
10.9328
-1.68238e-07
10.9336
-1.69329e-07
10.9344
-1.70005e-07
10.9351
-1.70336e-07
10.9358
-1.70599e-07
10.9364
-1.70256e-07
10.937
-1.69213e-07
10.9375
-1.67561e-07
10.938
-1.65243e-07
10.9383
-1.62063e-07
10.9386
-1.58414e-07
10.9387
-1.54423e-07
10.9388
-1.49984e-07
10.9387
-1.4531e-07
10.9385
-1.40893e-07
10.9382
-1.35958e-07
10.9378
-1.31794e-07
10.9372
-1.26971e-07
10.9365
-1.21154e-07
10.9357
-1.16081e-07
10.9348
-1.1129e-07
10.9339
-1.05204e-07
10.9328
-1.04712e-07
10.9317
-9.49522e-08
10.9305
-1.0289e-07
10.9294
-8.91108e-08
10.9282
-9.99073e-08
10.927
-8.92003e-08
10.9258
-8.858e-08
10.9247
-1.06895e-07
10.9236
-7.23722e-08
10.9226
-1.26064e-07
10.9217
-6.97653e-08
10.9208
-1.4007e-07
10.92
-7.71842e-08
10.9192
-2.78459e-07
10.9184
-6.96894e-07
10.9177
-3.4554e-06
10.917
-1.70964e-05
10.9163
-8.81511e-05
10.9158
-0.000454161
10.9164
-0.00234616
10.9235
-0.0121519
10.9634
-0.0634223
11.1522
-0.354229
-1.45894
11.9712
122.63
0.0576147
121.97
0.0466892
120.978
0.036942
120.699
0.0216653
120.794
0.00853935
120.837
0.0089053
120.707
0.00547487
120.587
-0.0198719
120.572
-0.0504163
120.648
-0.0941691
120.825
-0.158921
121.11
-0.245863
121.53
-0.347577
122.105
-0.449427
122.842
-0.532929
123.724
-0.583439
124.719
-0.5928
125.78
-0.565364
126.856
-0.513591
127.892
-0.446621
128.834
-0.375485
129.65
-0.306024
130.321
-0.24076
130.846
-0.183426
131.243
-0.135011
131.53
-0.0959341
131.732
-0.0657468
131.868
-0.0434809
131.958
-0.0277144
132.016
-0.0170303
132.052
-0.0100861
132.073
-0.00575187
132.085
-0.00315199
132.092
-0.00165737
132.094
-0.000831596
132.094
-0.000395341
132.093
-0.000175615
132.09
-7.11584e-05
132.085
-2.4703e-05
132.079
-5.93557e-06
132.071
5.40973e-07
132.062
2.07151e-06
132.051
1.90847e-06
132.038
1.35496e-06
132.024
8.53944e-07
132.008
5.04481e-07
131.99
2.89353e-07
131.97
1.66846e-07
131.949
1.01153e-07
131.927
6.7615e-08
131.904
5.12624e-08
131.879
4.37745e-08
131.854
4.06815e-08
131.828
3.97548e-08
131.801
3.98628e-08
131.774
4.04611e-08
131.747
4.13127e-08
131.719
4.23125e-08
131.691
4.3415e-08
131.664
4.46266e-08
131.636
4.59592e-08
131.609
4.73863e-08
131.582
4.88377e-08
131.555
5.02779e-08
131.529
5.17055e-08
131.503
5.31114e-08
131.477
5.44875e-08
131.452
5.58355e-08
131.428
5.71849e-08
131.404
5.85446e-08
131.381
5.99412e-08
131.359
6.13868e-08
131.338
6.28984e-08
131.317
6.45011e-08
131.298
6.62205e-08
131.279
6.80847e-08
131.262
7.01268e-08
131.246
7.23813e-08
131.231
7.4867e-08
131.217
7.7601e-08
131.204
8.0601e-08
131.193
8.38641e-08
131.183
8.73838e-08
131.174
9.11987e-08
131.166
9.53135e-08
131.16
9.97081e-08
131.155
1.04338e-07
131.151
1.0917e-07
131.148
1.14151e-07
131.146
1.19231e-07
131.146
1.24357e-07
131.146
1.29437e-07
131.147
1.34641e-07