/*--------------------------------*- C++ -*----------------------------------*\
| =========                 |                                                 |
| \\      /  F ield         | OpenFOAM: The Open Source CFD Toolbox           |
|  \\    /   O peration     | Version:  3.0.x                                 |
|   \\  /    A nd           | Web:      www.OpenFOAM.org                      |
|    \\/     M anipulation  |                                                 |
\*---------------------------------------------------------------------------*/
FoamFile
{
    version     2.0;
    format      ascii;
    class       volScalarField;
    location    "0.09";
    object      rho;
}
// * * * * * * * * * * * * * * * * * * * * * * * * * * * * * * * * * * * * * //

dimensions      [1 -3 0 0 0 0 0];

internalField   nonuniform List<scalar> 
6900
(
50.5403
50.5405
50.541
50.5416
50.5422
50.5428
50.5434
50.544
50.5447
50.5454
50.5461
50.5468
50.5476
50.5483
50.5489
50.5495
50.5501
50.5506
50.551
50.5513
50.5516
50.5517
50.5517
50.5517
50.5515
50.5512
50.5508
50.5503
50.5497
50.5491
50.5483
50.5475
50.5466
50.5457
50.5447
50.5437
50.5426
50.5416
50.5405
50.5395
50.5384
50.5374
50.5364
50.5354
50.5345
50.5336
50.5328
50.532
50.5313
50.5306
50.53
50.5294
50.5289
50.5285
50.5281
50.5278
50.5275
50.5272
50.5271
50.5269
50.5268
50.5268
50.5267
50.5267
50.5268
50.5268
50.5269
50.527
50.5271
50.5272
50.5273
50.5274
50.5275
50.5276
50.5277
50.5278
50.5278
50.5279
50.5279
50.5279
50.5278
50.5278
50.5278
50.5277
50.5276
50.5275
50.5274
50.5273
50.5272
50.5271
50.527
50.5269
50.5268
50.5267
50.5267
50.5266
50.5266
50.5266
50.5267
50.5267
50.5268
50.527
50.5271
50.5273
50.5275
50.5277
50.528
50.5283
50.5286
50.5289
50.5293
50.5296
50.5301
50.5305
50.531
50.5315
50.532
50.5326
50.5333
50.5339
50.5347
50.5354
50.5363
50.5372
50.5381
50.5391
50.5401
50.5412
50.5423
50.5435
50.5446
50.5458
50.547
50.5482
50.5494
50.5505
50.5517
50.5527
50.5537
50.5547
50.5556
50.5564
50.5571
50.5578
50.5584
50.5589
50.5593
50.5597
50.56
50.5603
50.5605
50.5607
50.5609
50.5611
50.5613
50.5615
50.5617
50.5619
50.5622
50.5626
50.5629
50.5634
50.5638
50.5643
50.5649
50.5655
50.5661
50.5668
50.5675
50.5682
50.569
50.5698
50.5706
50.5715
50.5724
50.5733
50.5742
50.5751
50.5761
50.577
50.578
50.5789
50.5798
50.5807
50.5815
50.5823
50.5831
50.5837
50.5844
50.5849
50.5854
50.5859
50.5864
50.5868
50.5873
50.5878
50.5883
50.5888
50.5898
50.5877
50.5403
50.5405
50.541
50.5416
50.5422
50.5428
50.5434
50.544
50.5447
50.5454
50.5461
50.5469
50.5476
50.5483
50.549
50.5496
50.5501
50.5506
50.551
50.5514
50.5516
50.5517
50.5518
50.5517
50.5515
50.5512
50.5509
50.5504
50.5498
50.5491
50.5484
50.5475
50.5466
50.5457
50.5447
50.5437
50.5427
50.5416
50.5405
50.5395
50.5384
50.5374
50.5364
50.5355
50.5345
50.5337
50.5328
50.532
50.5313
50.5306
50.53
50.5295
50.529
50.5285
50.5281
50.5278
50.5275
50.5273
50.5271
50.5269
50.5268
50.5268
50.5268
50.5268
50.5268
50.5269
50.5269
50.527
50.5271
50.5272
50.5273
50.5274
50.5276
50.5276
50.5277
50.5278
50.5278
50.5279
50.5279
50.5279
50.5279
50.5278
50.5278
50.5277
50.5276
50.5275
50.5274
50.5273
50.5272
50.5271
50.527
50.5269
50.5268
50.5268
50.5267
50.5267
50.5267
50.5267
50.5267
50.5268
50.5269
50.527
50.5271
50.5273
50.5275
50.5277
50.528
50.5283
50.5286
50.5289
50.5293
50.5297
50.5301
50.5305
50.531
50.5315
50.5321
50.5327
50.5333
50.534
50.5347
50.5355
50.5363
50.5372
50.5381
50.5391
50.5401
50.5412
50.5424
50.5435
50.5447
50.5459
50.5471
50.5482
50.5494
50.5506
50.5517
50.5527
50.5538
50.5547
50.5556
50.5564
50.5571
50.5578
50.5584
50.5589
50.5593
50.5597
50.56
50.5603
50.5605
50.5607
50.5609
50.5611
50.5613
50.5615
50.5617
50.562
50.5623
50.5626
50.563
50.5634
50.5639
50.5644
50.5649
50.5655
50.5661
50.5668
50.5675
50.5682
50.569
50.5698
50.5706
50.5715
50.5724
50.5733
50.5742
50.5752
50.5761
50.5771
50.578
50.579
50.5799
50.5807
50.5816
50.5824
50.5831
50.5838
50.5844
50.5849
50.5855
50.5859
50.5864
50.5869
50.5874
50.5878
50.5884
50.5888
50.5898
50.588
50.5403
50.5405
50.541
50.5416
50.5422
50.5428
50.5434
50.544
50.5447
50.5454
50.5461
50.5469
50.5476
50.5483
50.549
50.5496
50.5501
50.5506
50.551
50.5514
50.5516
50.5517
50.5518
50.5517
50.5515
50.5512
50.5509
50.5504
50.5498
50.5491
50.5484
50.5475
50.5466
50.5457
50.5447
50.5437
50.5427
50.5416
50.5405
50.5395
50.5384
50.5374
50.5364
50.5355
50.5345
50.5337
50.5328
50.532
50.5313
50.5306
50.53
50.5295
50.529
50.5285
50.5281
50.5278
50.5275
50.5273
50.5271
50.5269
50.5268
50.5268
50.5268
50.5268
50.5268
50.5269
50.5269
50.527
50.5271
50.5272
50.5273
50.5274
50.5276
50.5276
50.5277
50.5278
50.5278
50.5279
50.5279
50.5279
50.5279
50.5278
50.5278
50.5277
50.5276
50.5275
50.5274
50.5273
50.5272
50.5271
50.527
50.5269
50.5268
50.5268
50.5267
50.5267
50.5267
50.5267
50.5267
50.5268
50.5269
50.527
50.5271
50.5273
50.5275
50.5277
50.528
50.5283
50.5286
50.5289
50.5293
50.5297
50.5301
50.5305
50.531
50.5315
50.5321
50.5327
50.5333
50.534
50.5347
50.5355
50.5363
50.5372
50.5381
50.5391
50.5401
50.5412
50.5424
50.5435
50.5447
50.5459
50.5471
50.5482
50.5494
50.5506
50.5517
50.5527
50.5538
50.5547
50.5556
50.5564
50.5571
50.5578
50.5584
50.5589
50.5593
50.5597
50.56
50.5603
50.5605
50.5607
50.5609
50.5611
50.5613
50.5615
50.5617
50.562
50.5623
50.5626
50.563
50.5634
50.5639
50.5644
50.5649
50.5655
50.5661
50.5668
50.5675
50.5682
50.569
50.5698
50.5706
50.5715
50.5724
50.5733
50.5742
50.5752
50.5761
50.5771
50.578
50.579
50.5799
50.5807
50.5816
50.5824
50.5831
50.5838
50.5844
50.5849
50.5855
50.5859
50.5864
50.5869
50.5874
50.5878
50.5884
50.5889
50.5895
50.5901
50.5403
50.5405
50.541
50.5416
50.5422
50.5428
50.5434
50.544
50.5447
50.5454
50.5461
50.5469
50.5476
50.5483
50.549
50.5496
50.5501
50.5506
50.551
50.5514
50.5516
50.5517
50.5518
50.5517
50.5515
50.5512
50.5509
50.5504
50.5498
50.5491
50.5484
50.5475
50.5466
50.5457
50.5447
50.5437
50.5427
50.5416
50.5405
50.5395
50.5384
50.5374
50.5364
50.5355
50.5345
50.5337
50.5328
50.532
50.5313
50.5306
50.53
50.5295
50.529
50.5285
50.5281
50.5278
50.5275
50.5273
50.5271
50.5269
50.5268
50.5268
50.5268
50.5268
50.5268
50.5269
50.5269
50.527
50.5271
50.5272
50.5273
50.5274
50.5276
50.5276
50.5277
50.5278
50.5278
50.5279
50.5279
50.5279
50.5279
50.5278
50.5278
50.5277
50.5276
50.5275
50.5274
50.5273
50.5272
50.5271
50.527
50.5269
50.5268
50.5268
50.5267
50.5267
50.5267
50.5267
50.5267
50.5268
50.5269
50.527
50.5271
50.5273
50.5275
50.5277
50.528
50.5283
50.5286
50.5289
50.5293
50.5297
50.5301
50.5305
50.531
50.5315
50.5321
50.5327
50.5333
50.534
50.5347
50.5355
50.5363
50.5372
50.5381
50.5391
50.5401
50.5412
50.5424
50.5435
50.5447
50.5459
50.5471
50.5482
50.5494
50.5506
50.5517
50.5527
50.5538
50.5547
50.5556
50.5564
50.5571
50.5578
50.5584
50.5589
50.5593
50.5597
50.56
50.5603
50.5605
50.5607
50.5609
50.5611
50.5613
50.5615
50.5617
50.562
50.5623
50.5626
50.563
50.5634
50.5639
50.5644
50.5649
50.5655
50.5661
50.5668
50.5675
50.5682
50.569
50.5698
50.5706
50.5715
50.5724
50.5733
50.5742
50.5752
50.5761
50.5771
50.578
50.579
50.5799
50.5807
50.5816
50.5824
50.5831
50.5838
50.5844
50.5849
50.5855
50.586
50.5864
50.5869
50.5873
50.5879
50.5883
50.5889
50.5886
50.5951
50.5403
50.5405
50.541
50.5416
50.5422
50.5428
50.5434
50.544
50.5447
50.5454
50.5461
50.5468
50.5476
50.5483
50.5489
50.5495
50.5501
50.5506
50.551
50.5513
50.5516
50.5517
50.5517
50.5517
50.5515
50.5512
50.5508
50.5503
50.5497
50.5491
50.5483
50.5475
50.5466
50.5457
50.5447
50.5437
50.5426
50.5416
50.5405
50.5395
50.5384
50.5374
50.5364
50.5354
50.5345
50.5336
50.5328
50.532
50.5313
50.5306
50.53
50.5294
50.5289
50.5285
50.5281
50.5278
50.5275
50.5272
50.5271
50.5269
50.5268
50.5268
50.5267
50.5267
50.5268
50.5268
50.5269
50.527
50.5271
50.5272
50.5273
50.5274
50.5275
50.5276
50.5277
50.5278
50.5278
50.5279
50.5279
50.5279
50.5278
50.5278
50.5278
50.5277
50.5276
50.5275
50.5274
50.5273
50.5272
50.5271
50.527
50.5269
50.5268
50.5267
50.5267
50.5266
50.5266
50.5266
50.5267
50.5267
50.5268
50.527
50.5271
50.5273
50.5275
50.5277
50.528
50.5283
50.5286
50.5289
50.5293
50.5296
50.5301
50.5305
50.531
50.5315
50.532
50.5326
50.5333
50.5339
50.5347
50.5354
50.5363
50.5372
50.5381
50.5391
50.5401
50.5412
50.5423
50.5435
50.5446
50.5458
50.547
50.5482
50.5494
50.5505
50.5517
50.5527
50.5537
50.5547
50.5556
50.5564
50.5571
50.5578
50.5584
50.5589
50.5593
50.5597
50.56
50.5603
50.5605
50.5607
50.5609
50.5611
50.5613
50.5615
50.5617
50.5619
50.5622
50.5626
50.5629
50.5634
50.5638
50.5643
50.5649
50.5655
50.5661
50.5668
50.5675
50.5682
50.569
50.5698
50.5706
50.5715
50.5724
50.5733
50.5742
50.5751
50.5761
50.577
50.578
50.5789
50.5798
50.5807
50.5815
50.5823
50.5831
50.5837
50.5843
50.5849
50.5854
50.5859
50.5864
50.5869
50.5873
50.5878
50.5883
50.5889
50.5881
50.6005
50.6055
50.6121
50.6129
50.6113
50.61
50.6091
50.6087
50.6075
50.6036
50.597
50.591
50.5863
50.5825
50.5836
50.5935
50.6023
50.6007
50.5873
50.5656
50.544
50.6021
50.6054
50.6053
50.6039
50.6027
50.6018
50.6016
50.6004
50.5961
50.5893
50.5836
50.5792
50.5758
50.5769
50.5882
50.5956
50.5912
50.5734
50.5497
50.53
50.5912
50.5912
50.5902
50.5883
50.5857
50.5824
50.5783
50.5737
50.5684
50.5628
50.5561
50.5483
50.5394
50.5296
50.5184
50.5075
50.4978
50.4898
50.4822
50.473
50.5697
50.5669
50.5679
50.5693
50.5684
50.5648
50.5599
50.5531
50.5474
50.5403
50.5339
50.5272
50.5212
50.5155
50.5097
50.5045
50.4996
50.4952
50.492
50.49
50.5603
50.5488
50.5446
50.544
50.542
50.5373
50.5311
50.5233
50.5161
50.5077
50.5001
50.4922
50.4848
50.4775
50.4709
50.4644
50.4586
50.4533
50.4497
50.4479
50.4873
50.485
50.4941
50.4876
50.4843
50.4848
50.4864
50.4863
50.4862
50.4872
50.4885
50.4896
50.49
50.4854
50.4529
50.3681
50.3217
50.3205
50.3607
50.4724
50.5424
50.5629
50.5616
50.5442
50.5255
50.5158
50.5113
50.5094
50.5088
50.5087
50.5089
50.5092
50.5095
50.5098
50.5101
50.5105
50.5108
50.5112
50.5115
50.5119
50.5122
50.5126
50.5129
50.5133
50.5137
50.5141
50.5144
50.5148
50.5152
50.5156
50.516
50.5164
50.5169
50.5173
50.5177
50.5182
50.5186
50.519
50.5195
50.5199
50.5204
50.5209
50.5213
50.5218
50.5223
50.5227
50.5232
50.5237
50.5242
50.5247
50.5252
50.5257
50.5262
50.5266
50.5271
50.5276
50.5281
50.5286
50.5291
50.5296
50.5301
50.5305
50.531
50.5314
50.5318
50.5321
50.5325
50.5328
50.533
50.5333
50.5335
50.5336
50.5337
50.5338
50.5338
50.5338
50.5338
50.5337
50.5336
50.5334
50.5332
50.533
50.5328
50.5325
50.5323
50.532
50.5317
50.5314
50.5311
50.5308
50.5305
50.5302
50.53
50.5297
50.5295
50.5293
50.5291
50.529
50.5289
50.5288
50.5288
50.5288
50.5288
50.5289
50.529
50.5291
50.5293
50.5295
50.5297
50.53
50.5302
50.5305
50.5308
50.531
50.5313
50.5316
50.5318
50.532
50.5323
50.5324
50.5326
50.5328
50.5329
50.5329
50.533
50.533
50.533
50.5329
50.5328
50.5327
50.5326
50.5324
50.5322
50.532
50.5318
50.5315
50.5313
50.531
50.5307
50.5304
50.5301
50.5298
50.5295
50.5293
50.5291
50.5288
50.5287
50.5285
50.5284
50.5283
50.5283
50.5283
50.5284
50.5285
50.5286
50.5288
50.5291
50.5293
50.5296
50.53
50.5303
50.5307
50.5311
50.5315
50.5319
50.5323
50.5327
50.5331
50.5334
50.5338
50.5342
50.5346
50.535
50.5355
50.5359
50.5364
50.5368
50.5374
50.5368
50.5456
50.4836
50.4852
50.4936
50.4869
50.4833
50.4837
50.4849
50.4849
50.4847
50.4859
50.4875
50.4889
50.4901
50.4902
50.4838
50.4619
50.4477
50.4467
50.4541
50.4764
50.4941
50.5024
50.5054
50.5064
50.5069
50.5073
50.5076
50.5079
50.5082
50.5085
50.5088
50.5091
50.5095
50.5098
50.5102
50.5105
50.5109
50.5112
50.5115
50.5119
50.5123
50.5126
50.513
50.5133
50.5137
50.5141
50.5145
50.5149
50.5153
50.5157
50.5161
50.5165
50.5169
50.5173
50.5177
50.5182
50.5186
50.5191
50.5195
50.52
50.5204
50.5209
50.5214
50.5218
50.5223
50.5228
50.5232
50.5237
50.5242
50.5247
50.5252
50.5257
50.5262
50.5267
50.5272
50.5277
50.5282
50.5287
50.5291
50.5296
50.5301
50.5305
50.531
50.5314
50.5318
50.5321
50.5325
50.5328
50.5331
50.5333
50.5335
50.5336
50.5338
50.5338
50.5339
50.5339
50.5338
50.5337
50.5336
50.5335
50.5333
50.5331
50.5328
50.5326
50.5323
50.532
50.5317
50.5314
50.5311
50.5308
50.5305
50.5303
50.53
50.5297
50.5295
50.5293
50.5292
50.529
50.5289
50.5289
50.5288
50.5288
50.5289
50.5289
50.529
50.5292
50.5293
50.5295
50.5298
50.53
50.5303
50.5305
50.5308
50.5311
50.5313
50.5316
50.5318
50.5321
50.5323
50.5325
50.5326
50.5328
50.5329
50.533
50.533
50.533
50.533
50.533
50.5329
50.5328
50.5326
50.5324
50.5323
50.532
50.5318
50.5316
50.5313
50.531
50.5307
50.5304
50.5301
50.5298
50.5296
50.5293
50.5291
50.5289
50.5287
50.5285
50.5284
50.5284
50.5283
50.5284
50.5284
50.5285
50.5287
50.5288
50.5291
50.5294
50.5297
50.53
50.5303
50.5307
50.5311
50.5315
50.5319
50.5323
50.5327
50.5331
50.5335
50.5339
50.5343
50.5347
50.5351
50.5355
50.5359
50.5364
50.5368
50.5373
50.5372
50.5412
50.4456
50.4555
50.4635
50.4654
50.4651
50.4652
50.4659
50.4668
50.4681
50.47
50.4745
50.482
50.4877
50.4914
50.4936
50.4953
50.4967
50.4982
50.5
50.5018
50.5033
50.5044
50.5053
50.5057
50.5061
50.5066
50.507
50.5074
50.5079
50.5083
50.5087
50.5091
50.5094
50.5098
50.5102
50.5105
50.5109
50.5112
50.5115
50.5119
50.5123
50.5126
50.513
50.5133
50.5137
50.5141
50.5145
50.5149
50.5153
50.5157
50.5161
50.5165
50.5169
50.5173
50.5177
50.5182
50.5186
50.5191
50.5195
50.52
50.5204
50.5209
50.5214
50.5218
50.5223
50.5228
50.5232
50.5237
50.5242
50.5247
50.5252
50.5257
50.5262
50.5267
50.5272
50.5277
50.5282
50.5287
50.5291
50.5296
50.5301
50.5305
50.531
50.5314
50.5318
50.5321
50.5325
50.5328
50.5331
50.5333
50.5335
50.5336
50.5338
50.5338
50.5339
50.5339
50.5338
50.5337
50.5336
50.5335
50.5333
50.5331
50.5328
50.5326
50.5323
50.532
50.5317
50.5314
50.5311
50.5308
50.5305
50.5303
50.53
50.5297
50.5295
50.5293
50.5292
50.529
50.5289
50.5289
50.5288
50.5288
50.5289
50.5289
50.529
50.5292
50.5293
50.5295
50.5298
50.53
50.5303
50.5305
50.5308
50.5311
50.5313
50.5316
50.5318
50.5321
50.5323
50.5325
50.5326
50.5328
50.5329
50.533
50.533
50.533
50.533
50.533
50.5329
50.5328
50.5326
50.5324
50.5323
50.532
50.5318
50.5316
50.5313
50.531
50.5307
50.5304
50.5301
50.5298
50.5296
50.5293
50.5291
50.5289
50.5287
50.5285
50.5284
50.5284
50.5283
50.5284
50.5284
50.5285
50.5287
50.5288
50.5291
50.5294
50.5296
50.53
50.5303
50.5307
50.5311
50.5315
50.5319
50.5323
50.5327
50.5331
50.5335
50.5339
50.5343
50.5347
50.5351
50.5355
50.5359
50.5364
50.5369
50.5374
50.5379
50.5385
50.4854
50.4849
50.4839
50.4833
50.4832
50.4834
50.4839
50.4846
50.4854
50.4864
50.4873
50.4875
50.4869
50.4874
50.4887
50.49
50.4898
50.4867
50.4865
50.4883
50.4929
50.4999
50.5042
50.5062
50.5072
50.5077
50.5078
50.5079
50.5081
50.5084
50.5088
50.5091
50.5095
50.5098
50.5102
50.5105
50.5109
50.5112
50.5115
50.5119
50.5123
50.5126
50.513
50.5133
50.5137
50.5141
50.5145
50.5149
50.5153
50.5157
50.5161
50.5165
50.5169
50.5173
50.5177
50.5182
50.5186
50.5191
50.5195
50.52
50.5204
50.5209
50.5214
50.5218
50.5223
50.5228
50.5232
50.5237
50.5242
50.5247
50.5252
50.5257
50.5262
50.5267
50.5272
50.5277
50.5282
50.5287
50.5291
50.5296
50.5301
50.5305
50.531
50.5314
50.5318
50.5321
50.5325
50.5328
50.5331
50.5333
50.5335
50.5336
50.5338
50.5338
50.5339
50.5339
50.5338
50.5337
50.5336
50.5335
50.5333
50.5331
50.5328
50.5326
50.5323
50.532
50.5317
50.5314
50.5311
50.5308
50.5305
50.5303
50.53
50.5297
50.5295
50.5293
50.5292
50.529
50.5289
50.5289
50.5288
50.5288
50.5289
50.5289
50.529
50.5292
50.5293
50.5295
50.5298
50.53
50.5303
50.5305
50.5308
50.5311
50.5313
50.5316
50.5318
50.5321
50.5323
50.5325
50.5326
50.5328
50.5329
50.533
50.533
50.533
50.533
50.533
50.5329
50.5328
50.5326
50.5324
50.5323
50.532
50.5318
50.5316
50.5313
50.531
50.5307
50.5304
50.5301
50.5298
50.5296
50.5293
50.5291
50.5289
50.5287
50.5285
50.5284
50.5284
50.5283
50.5284
50.5284
50.5285
50.5287
50.5288
50.5291
50.5294
50.5297
50.53
50.5303
50.5307
50.5311
50.5315
50.5319
50.5323
50.5327
50.5331
50.5335
50.5339
50.5343
50.5347
50.5351
50.5355
50.5359
50.5364
50.5369
50.5374
50.5384
50.5378
50.4706
50.4758
50.4757
50.4753
50.4752
50.4755
50.4758
50.4765
50.4773
50.4781
50.478
50.4784
50.4801
50.4851
50.4919
50.4937
50.4857
50.4511
50.4237
50.4169
50.4202
50.4378
50.4656
50.4842
50.4952
50.5013
50.5046
50.5064
50.5074
50.5081
50.5086
50.509
50.5094
50.5098
50.5101
50.5105
50.5108
50.5112
50.5115
50.5119
50.5122
50.5126
50.5129
50.5133
50.5137
50.5141
50.5144
50.5148
50.5152
50.5156
50.516
50.5164
50.5169
50.5173
50.5177
50.5182
50.5186
50.519
50.5195
50.5199
50.5204
50.5209
50.5213
50.5218
50.5223
50.5227
50.5232
50.5237
50.5242
50.5247
50.5252
50.5257
50.5262
50.5266
50.5271
50.5276
50.5281
50.5286
50.5291
50.5296
50.5301
50.5305
50.531
50.5314
50.5318
50.5321
50.5325
50.5328
50.533
50.5333
50.5335
50.5336
50.5337
50.5338
50.5338
50.5338
50.5338
50.5337
50.5336
50.5334
50.5332
50.533
50.5328
50.5325
50.5323
50.532
50.5317
50.5314
50.5311
50.5308
50.5305
50.5302
50.53
50.5297
50.5295
50.5293
50.5291
50.529
50.5289
50.5288
50.5288
50.5288
50.5288
50.5289
50.529
50.5291
50.5293
50.5295
50.5297
50.53
50.5302
50.5305
50.5308
50.531
50.5313
50.5316
50.5318
50.532
50.5323
50.5324
50.5326
50.5328
50.5329
50.5329
50.533
50.533
50.533
50.5329
50.5328
50.5327
50.5326
50.5324
50.5322
50.532
50.5318
50.5315
50.5313
50.531
50.5307
50.5304
50.5301
50.5298
50.5295
50.5293
50.5291
50.5288
50.5287
50.5285
50.5284
50.5283
50.5283
50.5283
50.5284
50.5285
50.5286
50.5288
50.5291
50.5293
50.5296
50.53
50.5303
50.5307
50.5311
50.5315
50.5319
50.5323
50.5327
50.5331
50.5335
50.5338
50.5342
50.5346
50.535
50.5355
50.5359
50.5363
50.5369
50.5374
50.5384
50.5375
50.5112
50.4992
50.4948
50.4941
50.4919
50.4872
50.4808
50.4742
50.4665
50.4591
50.4515
50.4438
50.4367
50.4296
50.4231
50.4167
50.4111
50.4061
50.4029
50.4013
50.5196
50.5167
50.5174
50.5186
50.5176
50.5141
50.5085
50.5035
50.4966
50.4911
50.4841
50.4781
50.4723
50.4664
50.4608
50.4557
50.4509
50.4469
50.4441
50.4423
50.5395
50.5396
50.5388
50.537
50.5345
50.5313
50.5276
50.523
50.5182
50.5123
50.5057
50.4979
50.4892
50.4791
50.4688
50.4594
50.4519
50.4446
50.4368
50.4272
50.5495
50.553
50.553
50.5518
50.5507
50.5499
50.5494
50.5471
50.5418
50.5364
50.5318
50.5279
50.5267
50.5365
50.5448
50.543
50.5283
50.5054
50.4854
50.4691
50.5528
50.5595
50.5604
50.559
50.5577
50.5569
50.5562
50.554
50.5491
50.5435
50.5386
50.5346
50.5333
50.542
50.5507
50.5513
50.5398
50.5202
50.4984
50.4806
50.4235
50.428
50.4274
50.4271
50.4272
50.4275
50.4279
50.4286
50.4295
50.4304
50.4308
50.4307
50.4319
50.435
50.4424
50.446
50.4436
50.4188
50.3833
50.3694
50.3697
50.3797
50.4068
50.4293
50.4431
50.4509
50.4553
50.4576
50.4588
50.4596
50.4601
50.4606
50.4609
50.4612
50.4615
50.4617
50.462
50.4623
50.4625
50.4627
50.463
50.4633
50.4635
50.4638
50.4641
50.4645
50.4648
50.4652
50.4656
50.4661
50.4666
50.4671
50.4677
50.4683
50.4689
50.4696
50.4702
50.471
50.4718
50.4726
50.4734
50.4743
50.4751
50.4761
50.477
50.478
50.479
50.4801
50.4812
50.4823
50.4834
50.4845
50.4857
50.4869
50.4881
50.4892
50.4904
50.4916
50.4928
50.4939
50.495
50.4961
50.4971
50.4981
50.499
50.4999
50.5006
50.5014
50.502
50.5026
50.503
50.5035
50.5038
50.5041
50.5043
50.5044
50.5045
50.5045
50.5034
50.5111
50.4382
50.4367
50.4354
50.4349
50.4349
50.4352
50.4356
50.4363
50.4372
50.4383
50.4392
50.4399
50.4395
50.4392
50.4402
50.4416
50.4424
50.4408
50.4395
50.4407
50.4434
50.4493
50.4545
50.4572
50.4586
50.4593
50.4596
50.4597
50.4598
50.4601
50.4604
50.4607
50.461
50.4612
50.4615
50.4618
50.462
50.4623
50.4625
50.4628
50.463
50.4633
50.4636
50.4639
50.4642
50.4645
50.4649
50.4652
50.4657
50.4661
50.4666
50.4671
50.4677
50.4683
50.4689
50.4696
50.4703
50.471
50.4718
50.4726
50.4734
50.4743
50.4752
50.4761
50.4771
50.4781
50.4791
50.4801
50.4812
50.4823
50.4834
50.4846
50.4857
50.4869
50.4881
50.4893
50.4905
50.4916
50.4928
50.4939
50.495
50.4961
50.4971
50.4981
50.499
50.4999
50.5007
50.5014
50.502
50.5026
50.503
50.5035
50.5038
50.5041
50.5043
50.5045
50.5045
50.5045
50.5038
50.5069
50.3984
50.4074
50.4154
50.4176
50.4176
50.4175
50.4178
50.4185
50.4197
50.4211
50.4243
50.4312
50.4375
50.4417
50.4442
50.4459
50.4475
50.449
50.4507
50.4526
50.4543
50.4556
50.4567
50.4573
50.4578
50.4582
50.4586
50.459
50.4595
50.4599
50.4602
50.4606
50.4609
50.4612
50.4615
50.4618
50.462
50.4623
50.4625
50.4628
50.463
50.4633
50.4636
50.4639
50.4642
50.4645
50.4649
50.4652
50.4657
50.4661
50.4666
50.4671
50.4677
50.4683
50.4689
50.4696
50.4703
50.471
50.4718
50.4726
50.4734
50.4743
50.4752
50.4761
50.4771
50.4781
50.4791
50.4801
50.4812
50.4823
50.4834
50.4846
50.4857
50.4869
50.4881
50.4893
50.4905
50.4916
50.4928
50.4939
50.495
50.4961
50.4971
50.4981
50.499
50.4999
50.5007
50.5014
50.502
50.5026
50.5031
50.5035
50.5038
50.5041
50.5043
50.5044
50.5045
50.5046
50.5046
50.5046
50.439
50.4424
50.444
50.4373
50.4352
50.436
50.4375
50.437
50.4365
50.4372
50.4387
50.44
50.4412
50.442
50.4393
50.4225
50.4027
50.3972
50.4009
50.4182
50.4413
50.4531
50.4575
50.4587
50.4592
50.4593
50.4595
50.4597
50.4599
50.4602
50.4604
50.4607
50.461
50.4613
50.4615
50.4618
50.462
50.4623
50.4625
50.4628
50.463
50.4633
50.4636
50.4639
50.4642
50.4645
50.4649
50.4652
50.4657
50.4661
50.4666
50.4671
50.4677
50.4683
50.4689
50.4696
50.4703
50.471
50.4718
50.4726
50.4734
50.4743
50.4752
50.4761
50.4771
50.4781
50.4791
50.4801
50.4812
50.4823
50.4834
50.4846
50.4857
50.4869
50.4881
50.4893
50.4905
50.4916
50.4928
50.4939
50.495
50.4961
50.4971
50.4981
50.499
50.4999
50.5007
50.5014
50.502
50.5026
50.5031
50.5035
50.5038
50.5041
50.5043
50.5044
50.5046
50.5046
50.5051
50.5041
50.4415
50.4421
50.4445
50.4378
50.4361
50.437
50.4391
50.4385
50.4378
50.4386
50.4398
50.4408
50.4415
50.4401
50.4253
50.3611
50.2936
50.2768
50.2925
50.3756
50.4702
50.5084
50.514
50.5051
50.4839
50.471
50.4647
50.4619
50.4608
50.4605
50.4606
50.4607
50.461
50.4612
50.4615
50.4618
50.462
50.4623
50.4625
50.4627
50.463
50.4633
50.4635
50.4638
50.4641
50.4645
50.4648
50.4652
50.4656
50.4661
50.4666
50.4671
50.4677
50.4683
50.4689
50.4696
50.4702
50.471
50.4718
50.4726
50.4734
50.4743
50.4751
50.4761
50.477
50.478
50.479
50.4801
50.4812
50.4823
50.4834
50.4845
50.4857
50.4869
50.4881
50.4892
50.4904
50.4916
50.4928
50.4939
50.495
50.4961
50.4971
50.4981
50.499
50.4999
50.5006
50.5013
50.502
50.5025
50.503
50.5034
50.5038
50.5041
50.5043
50.5044
50.5045
50.5046
50.5051
50.5039
50.4771
50.465
50.4606
50.4596
50.4573
50.4525
50.446
50.4392
50.4315
50.4241
50.4163
50.4085
50.4012
50.394
50.3874
50.3808
50.375
50.3699
50.3664
50.3646
50.4854
50.4824
50.4829
50.4839
50.4827
50.479
50.4733
50.4682
50.4612
50.4556
50.4485
50.4423
50.4364
50.4303
50.4246
50.4193
50.4143
50.4101
50.4071
50.4051
50.5052
50.5051
50.504
50.5021
50.4994
50.4961
50.4922
50.4875
50.4826
50.4766
50.4699
50.462
50.4532
50.443
50.4325
50.4229
50.4152
50.4077
50.3998
50.3901
50.515
50.5182
50.5181
50.5167
50.5154
50.5144
50.5138
50.5114
50.5061
50.5005
50.4957
50.4918
50.4902
50.4995
50.5079
50.5063
50.4918
50.4688
50.4484
50.432
50.5183
50.5246
50.5253
50.5237
50.5223
50.5213
50.5206
50.5183
50.5133
50.5076
50.5025
50.4983
50.4968
50.505
50.5136
50.5143
50.5029
50.4835
50.4614
50.4436
50.386
50.3892
50.3877
50.3865
50.3854
50.3846
50.3841
50.3839
50.3838
50.3837
50.3828
50.3827
50.3839
50.3887
50.3937
50.3941
50.3815
50.3444
50.3223
50.3186
50.324
50.3459
50.372
50.3887
50.3987
50.4045
50.4079
50.41
50.4116
50.413
50.4142
50.4153
50.4164
50.4175
50.4186
50.4196
50.4206
50.4215
50.4224
50.4233
50.424
50.4247
50.4254
50.426
50.4265
50.4269
50.4273
50.4276
50.4278
50.428
50.4282
50.4282
50.4283
50.4283
50.4282
50.4282
50.4281
50.428
50.4278
50.4277
50.4275
50.4273
50.4271
50.4269
50.4268
50.4266
50.4265
50.4263
50.4262
50.4261
50.426
50.426
50.4259
50.4259
50.426
50.426
50.4261
50.4262
50.4263
50.4265
50.4267
50.4268
50.427
50.4272
50.4274
50.4276
50.4279
50.428
50.4282
50.4284
50.4286
50.4287
50.4288
50.4289
50.429
50.429
50.429
50.429
50.429
50.4289
50.4288
50.4287
50.4286
50.4284
50.4283
50.4281
50.4279
50.4277
50.4275
50.4273
50.4271
50.4269
50.4267
50.4265
50.4263
50.4261
50.426
50.4258
50.4257
50.4256
50.4255
50.4254
50.4254
50.4254
50.4254
50.4254
50.4255
50.4255
50.4256
50.4257
50.4258
50.426
50.4261
50.4262
50.4264
50.4265
50.4267
50.4268
50.427
50.4271
50.4272
50.4273
50.4274
50.4275
50.4276
50.4277
50.4278
50.4279
50.428
50.4281
50.4281
50.4282
50.4283
50.4284
50.4285
50.4286
50.4288
50.4289
50.4291
50.4292
50.4294
50.4297
50.4299
50.4302
50.4305
50.4309
50.4313
50.4317
50.4321
50.4326
50.4332
50.4337
50.4343
50.435
50.4356
50.4363
50.437
50.4377
50.4384
50.4391
50.4397
50.4404
50.441
50.4416
50.4421
50.4426
50.443
50.4434
50.4438
50.444
50.4443
50.4445
50.4447
50.4448
50.4449
50.445
50.445
50.4451
50.4455
50.4442
50.4002
50.3979
50.3957
50.3942
50.3932
50.3923
50.3919
50.3918
50.3917
50.3919
50.3919
50.3913
50.3901
50.39
50.3909
50.3918
50.3912
50.3891
50.3895
50.3914
50.3961
50.402
50.4057
50.4076
50.4089
50.4098
50.4105
50.4113
50.4122
50.4132
50.4143
50.4154
50.4165
50.4176
50.4186
50.4196
50.4206
50.4216
50.4225
50.4233
50.4241
50.4248
50.4254
50.426
50.4265
50.4269
50.4273
50.4276
50.4279
50.428
50.4282
50.4283
50.4283
50.4283
50.4283
50.4282
50.4281
50.428
50.4278
50.4277
50.4275
50.4273
50.4271
50.427
50.4268
50.4266
50.4265
50.4263
50.4262
50.4261
50.426
50.426
50.426
50.426
50.426
50.426
50.4261
50.4262
50.4264
50.4265
50.4267
50.4269
50.4271
50.4273
50.4275
50.4277
50.4279
50.4281
50.4283
50.4284
50.4286
50.4287
50.4288
50.4289
50.429
50.429
50.4291
50.429
50.429
50.4289
50.4289
50.4288
50.4286
50.4285
50.4283
50.4281
50.428
50.4278
50.4276
50.4273
50.4271
50.4269
50.4267
50.4265
50.4263
50.4261
50.426
50.4258
50.4257
50.4256
50.4255
50.4255
50.4254
50.4254
50.4254
50.4254
50.4255
50.4256
50.4256
50.4258
50.4259
50.426
50.4261
50.4263
50.4264
50.4266
50.4267
50.4269
50.427
50.4271
50.4272
50.4274
50.4275
50.4276
50.4277
50.4278
50.4278
50.4279
50.428
50.4281
50.4282
50.4283
50.4283
50.4284
50.4285
50.4287
50.4288
50.4289
50.4291
50.4293
50.4295
50.4297
50.43
50.4302
50.4306
50.4309
50.4313
50.4317
50.4322
50.4327
50.4332
50.4338
50.4344
50.435
50.4357
50.4363
50.437
50.4377
50.4384
50.4391
50.4398
50.4404
50.441
50.4416
50.4421
50.4426
50.4431
50.4434
50.4438
50.4441
50.4443
50.4445
50.4447
50.4448
50.4449
50.445
50.4451
50.4451
50.4455
50.4444
50.3603
50.3688
50.3762
50.3771
50.3758
50.375
50.3744
50.3743
50.3746
50.3755
50.3792
50.3856
50.3903
50.3931
50.3948
50.396
50.3973
50.3987
50.4004
50.4022
50.4037
50.4051
50.4061
50.4069
50.4078
50.4088
50.4098
50.4109
50.412
50.4131
50.4142
50.4153
50.4165
50.4175
50.4186
50.4196
50.4206
50.4216
50.4225
50.4233
50.4241
50.4248
50.4254
50.426
50.4265
50.4269
50.4273
50.4276
50.4279
50.428
50.4282
50.4283
50.4283
50.4283
50.4283
50.4282
50.4281
50.428
50.4278
50.4277
50.4275
50.4273
50.4271
50.427
50.4268
50.4266
50.4265
50.4263
50.4262
50.4261
50.426
50.426
50.426
50.426
50.426
50.426
50.4261
50.4262
50.4264
50.4265
50.4267
50.4269
50.4271
50.4273
50.4275
50.4277
50.4279
50.4281
50.4283
50.4284
50.4286
50.4287
50.4288
50.4289
50.429
50.429
50.4291
50.429
50.429
50.4289
50.4289
50.4288
50.4286
50.4285
50.4283
50.4281
50.428
50.4278
50.4276
50.4273
50.4271
50.4269
50.4267
50.4265
50.4263
50.4261
50.426
50.4258
50.4257
50.4256
50.4255
50.4255
50.4254
50.4254
50.4254
50.4254
50.4255
50.4256
50.4256
50.4258
50.4259
50.426
50.4261
50.4263
50.4264
50.4266
50.4267
50.4269
50.427
50.4271
50.4272
50.4274
50.4275
50.4276
50.4277
50.4278
50.4278
50.4279
50.428
50.4281
50.4282
50.4283
50.4283
50.4284
50.4285
50.4287
50.4288
50.4289
50.4291
50.4293
50.4295
50.4297
50.43
50.4302
50.4306
50.4309
50.4313
50.4317
50.4322
50.4327
50.4332
50.4338
50.4344
50.435
50.4357
50.4363
50.437
50.4377
50.4384
50.4391
50.4398
50.4404
50.441
50.4416
50.4421
50.4426
50.4431
50.4434
50.4438
50.4441
50.4443
50.4445
50.4447
50.4448
50.4449
50.445
50.445
50.4451
50.4451
50.4451
50.4007
50.4031
50.4037
50.3964
50.3937
50.3935
50.3935
50.392
50.3909
50.3912
50.3917
50.3921
50.3924
50.3915
50.3823
50.3599
50.3486
50.349
50.3587
50.3826
50.3984
50.4051
50.4073
50.4083
50.409
50.4097
50.4105
50.4114
50.4123
50.4133
50.4144
50.4154
50.4165
50.4176
50.4186
50.4197
50.4206
50.4216
50.4225
50.4233
50.4241
50.4248
50.4254
50.426
50.4265
50.4269
50.4273
50.4276
50.4279
50.428
50.4282
50.4283
50.4283
50.4283
50.4283
50.4282
50.4281
50.428
50.4278
50.4277
50.4275
50.4273
50.4271
50.427
50.4268
50.4266
50.4265
50.4263
50.4262
50.4261
50.426
50.426
50.426
50.426
50.426
50.426
50.4261
50.4262
50.4264
50.4265
50.4267
50.4269
50.4271
50.4273
50.4275
50.4277
50.4279
50.4281
50.4283
50.4284
50.4286
50.4287
50.4288
50.4289
50.429
50.429
50.4291
50.429
50.429
50.4289
50.4289
50.4288
50.4286
50.4285
50.4283
50.4281
50.428
50.4278
50.4276
50.4273
50.4271
50.4269
50.4267
50.4265
50.4263
50.4261
50.426
50.4258
50.4257
50.4256
50.4255
50.4255
50.4254
50.4254
50.4254
50.4254
50.4255
50.4256
50.4256
50.4258
50.4259
50.426
50.4261
50.4263
50.4264
50.4266
50.4267
50.4269
50.427
50.4271
50.4272
50.4274
50.4275
50.4276
50.4277
50.4278
50.4278
50.4279
50.428
50.4281
50.4282
50.4283
50.4283
50.4284
50.4285
50.4287
50.4288
50.4289
50.4291
50.4293
50.4295
50.4297
50.43
50.4302
50.4306
50.4309
50.4313
50.4317
50.4322
50.4327
50.4332
50.4338
50.4344
50.435
50.4357
50.4363
50.437
50.4377
50.4384
50.4391
50.4398
50.4404
50.441
50.4416
50.4421
50.4426
50.443
50.4434
50.4438
50.4441
50.4443
50.4445
50.4447
50.4448
50.4449
50.445
50.445
50.445
50.4443
50.4478
50.4032
50.4029
50.4042
50.397
50.3946
50.3945
50.3949
50.3933
50.3922
50.3925
50.3928
50.393
50.3925
50.386
50.3482
50.2685
50.2328
50.2355
50.2837
50.3894
50.4456
50.4599
50.4569
50.4389
50.4236
50.4163
50.4133
50.4125
50.4128
50.4135
50.4144
50.4154
50.4165
50.4176
50.4186
50.4196
50.4206
50.4216
50.4224
50.4233
50.424
50.4247
50.4254
50.426
50.4265
50.4269
50.4273
50.4276
50.4278
50.428
50.4282
50.4282
50.4283
50.4283
50.4282
50.4282
50.4281
50.428
50.4278
50.4277
50.4275
50.4273
50.4271
50.4269
50.4268
50.4266
50.4265
50.4263
50.4262
50.4261
50.426
50.426
50.4259
50.4259
50.426
50.426
50.4261
50.4262
50.4263
50.4265
50.4267
50.4268
50.427
50.4272
50.4274
50.4276
50.4279
50.428
50.4282
50.4284
50.4286
50.4287
50.4288
50.4289
50.429
50.429
50.429
50.429