/*--------------------------------*- C++ -*----------------------------------*\
| =========                 |                                                 |
| \\      /  F ield         | OpenFOAM: The Open Source CFD Toolbox           |
|  \\    /   O peration     | Version:  3.0.x                                 |
|   \\  /    A nd           | Web:      www.OpenFOAM.org                      |
|    \\/     M anipulation  |                                                 |
\*---------------------------------------------------------------------------*/
FoamFile
{
    version     2.0;
    format      ascii;
    class       surfaceScalarField;
    location    "0.44";
    object      phi;
}
// * * * * * * * * * * * * * * * * * * * * * * * * * * * * * * * * * * * * * //

dimensions      [1 0 -1 0 0 0 0];

internalField   nonuniform List<scalar> 
12415
(
5.79794
0.000327756
5.7976
0.000235196
5.79728
0.000224596
5.79694
0.000226667
5.79661
0.000227152
5.79627
0.000226931
5.79593
0.000226911
5.79558
0.000226881
5.79524
0.000226889
5.79489
0.000226886
5.79454
0.000226884
5.79419
0.000226882
5.79384
0.000226881
5.79349
0.000226879
5.79315
0.000226877
5.79281
0.000226875
5.79248
0.000226842
5.79215
0.000226933
5.79182
0.00022685
5.79151
0.000226854
5.79119
0.000226863
5.79089
0.000226865
5.79058
0.00022687
5.79028
0.000226878
5.78999
0.000226889
5.78969
0.000226907
5.7894
0.000226931
5.7891
0.000226962
5.7888
0.000227
5.7885
0.000227044
5.78819
0.00022704
5.78789
0.00022743
5.78759
0.000227014
5.78727
0.000227294
5.78694
0.00022738
5.78659
0.000227465
5.78623
0.000227554
5.78586
0.000227646
5.78547
0.00022774
5.78507
0.000227837
5.78467
0.000227942
5.78426
0.000228046
5.78385
0.00022815
5.78344
0.000228254
5.78304
0.000228358
5.78264
0.000228458
5.78224
0.00022855
5.78186
0.00022863
5.78149
0.000228691
5.78112
0.000228721
5.78077
0.000228708
5.78042
0.000228634
5.78008
0.000228477
5.77976
0.000228211
5.77945
0.000227802
5.77917
0.000227213
5.7789
0.000226389
5.77865
0.000225286
5.77841
0.000223844
5.77819
0.000221997
5.77798
0.00021969
5.77777
0.000216839
5.77756
0.000213394
5.77735
0.000209294
5.77714
0.000204495
5.77691
0.000198964
5.77668
0.000192675
5.77643
0.000185651
5.77617
0.000177902
5.77589
0.00016948
5.7756
0.000160451
5.77529
0.000150904
5.77496
0.000140945
5.77462
0.000130678
5.77427
0.000120313
5.7739
0.000109821
5.77352
9.94969e-05
5.77313
8.93852e-05
5.77273
7.9617e-05
5.77234
7.02952e-05
5.77194
6.15071e-05
5.77156
5.33172e-05
5.77118
4.57772e-05
5.77081
3.89125e-05
5.77047
3.27339e-05
5.77014
2.72356e-05
5.76983
2.23954e-05
5.76955
1.81833e-05
5.7693
1.45541e-05
5.76906
1.14621e-05
5.76886
8.85572e-06
5.76867
6.68075e-06
5.76851
4.88504e-06
5.76836
3.41761e-06
5.76822
2.23059e-06
5.7681
1.2802e-06
5.76797
5.29148e-07
5.76784
-6.05505e-08
5.7677
-5.15136e-07
5.76754
-8.60651e-07
5.76736
-1.11961e-06
5.76715
-1.31025e-06
5.76691
-1.44734e-06
5.76662
-1.54303e-06
5.76628
-1.60692e-06
5.76589
-1.64632e-06
5.76544
-1.66754e-06
5.76493
-1.67507e-06
5.76436
-1.67264e-06
5.76372
-1.66322e-06
5.76302
-1.64898e-06
5.76226
-1.6318e-06
5.76144
-1.61313e-06
5.76057
-1.59416e-06
5.75964
-1.57578e-06
5.75867
-1.55871e-06
5.75766
-1.54345e-06
5.75661
-1.53044e-06
5.75555
-1.51982e-06
5.75446
-1.5117e-06
5.75335
-1.50593e-06
5.75224
-1.50234e-06
5.75112
-1.50054e-06
5.75
-1.50028e-06
5.74889
-1.50091e-06
5.74777
-1.50215e-06
5.74665
-1.50329e-06
5.74552
-1.5039e-06
5.7444
-1.50345e-06
5.74325
-1.50142e-06
5.74209
-1.49747e-06
5.74091
-1.49119e-06
5.7397
-1.48231e-06
5.73844
-1.47057e-06
5.73714
-1.45576e-06
5.73577
-1.43773e-06
5.73434
-1.41638e-06
5.73284
-1.39156e-06
5.73125
-1.36379e-06
5.72957
-1.33279e-06
5.72778
-1.29875e-06
5.72589
-1.26188e-06
5.72388
-1.22255e-06
5.72175
-1.18143e-06
5.7195
-1.13891e-06
5.71712
-1.09582e-06
5.71462
-1.05277e-06
5.71199
-1.0106e-06
5.70925
-9.70087e-07
5.70639
-9.32041e-07
5.70342
-8.97175e-07
5.70036
-8.66199e-07
5.69722
-8.39451e-07
5.69399
-8.17341e-07
5.69071
-7.99839e-07
5.68738
-7.869e-07
5.684
-7.78204e-07
5.68059
-7.73194e-07
5.67715
-7.71104e-07
5.67368
-7.70973e-07
5.6702
-7.71939e-07
5.66669
-7.73041e-07
5.66316
-7.73369e-07
5.6596
-7.72254e-07
5.65601
-7.6912e-07
5.65237
-7.63588e-07
5.64868
-7.55466e-07
5.64494
-7.44683e-07
5.64113
-7.31119e-07
5.63726
-7.14952e-07
5.6333
-6.96089e-07
5.62926
-6.74716e-07
5.62513
-6.50421e-07
5.62089
-6.23118e-07
5.61654
-5.92263e-07
5.61206
-5.57604e-07
5.60745
-5.18899e-07
5.6027
-4.76284e-07
5.59778
-4.29762e-07
5.5927
-3.80272e-07
5.58745
-3.27691e-07
5.58202
-2.74324e-07
5.57641
-2.19408e-07
5.57062
-1.66821e-07
5.56467
-1.13576e-07
5.55854
-6.71862e-08
5.55226
-2.12385e-08
5.54584
1.36588e-08
5.53929
4.94401e-08
5.53264
6.89797e-08
5.52591
1.10727e-07
5.51911
1.67549e-07
5.51228
7.7372e-07
5.50542
4.65089e-06
5.49852
3.23269e-05
5.49144
0.000224299
5.48301
0.00156065
5.46531
0.010831
5.37219
0.0862176
0.419088
4.94616
11.5966
0.000260521
11.5965
0.000216
11.5963
0.000189204
11.5961
0.000193996
11.5959
0.000195352
11.5957
0.000194733
11.5955
0.000194611
11.5953
0.0001946
11.5951
0.000194609
11.5949
0.00019461
11.5947
0.000194614
11.5945
0.000194621
11.5943
0.000194627
11.5941
0.000194635
11.5939
0.000194643
11.5937
0.00019465
11.5935
0.000194639
11.5933
0.000194717
11.5932
0.000194657
11.593
0.00019468
11.5929
0.000194693
11.5927
0.000194707
11.5926
0.000194722
11.5925
0.000194739
11.5924
0.00019476
11.5923
0.000194786
11.5922
0.000194818
11.5921
0.000194855
11.592
0.000194899
11.5918
0.000194946
11.5917
0.000194976
11.5916
0.000195266
11.5915
0.000194983
11.5913
0.000195195
11.5912
0.000195291
11.5909
0.000195375
11.5907
0.000195463
11.5904
0.000195553
11.5902
0.000195645
11.5899
0.000195741
11.5895
0.000195842
11.5892
0.000195943
11.5889
0.000196044
11.5885
0.000196145
11.5882
0.000196245
11.5879
0.000196342
11.5876
0.000196433
11.5873
0.000196513
11.5871
0.000196575
11.5868
0.000196611
11.5866
0.00019661
11.5864
0.000196555
11.5862
0.000196428
11.5861
0.000196205
11.5859
0.000195857
11.5859
0.000195352
11.5858
0.000194642
11.5858
0.000193688
11.5858
0.000192439
11.5858
0.000190837
11.5859
0.000188833
11.5859
0.000186358
11.586
0.000183366
11.586
0.000179806
11.586
0.000175639
11.586
0.00017084
11.5859
0.000165386
11.5858
0.000159296
11.5857
0.000152584
11.5855
0.000145294
11.5852
0.000137485
11.5849
0.000129235
11.5846
0.000120636
11.5842
0.000111785
11.5837
0.000102841
11.5832
9.38188e-05
11.5827
8.49351e-05
11.5821
7.62472e-05
11.5815
6.78636e-05
11.5808
5.98703e-05
11.5802
5.23435e-05
11.5795
4.53344e-05
11.5789
3.88897e-05
11.5782
3.30291e-05
11.5776
2.77572e-05
11.577
2.30728e-05
11.5764
1.89521e-05
11.5759
1.53719e-05
11.5754
1.22885e-05
11.575
9.6648e-06
11.5746
7.45561e-06
11.5742
5.61428e-06
11.5739
4.09549e-06
11.5736
2.85631e-06
11.5734
1.85449e-06
11.5731
1.05312e-06
11.5729
4.24663e-07
11.5726
-7.29831e-08
11.5723
-4.55182e-07
11.572
-7.46545e-07
11.5716
-9.65325e-07
11.5712
-1.12664e-06
11.5707
-1.24292e-06
11.5701
-1.32417e-06
11.5694
-1.37851e-06
11.5687
-1.41209e-06
11.5678
-1.43013e-06
11.5667
-1.43657e-06
11.5656
-1.43446e-06
11.5643
-1.42639e-06
11.5629
-1.41421e-06
11.5614
-1.39951e-06
11.5597
-1.38351e-06
11.558
-1.36725e-06
11.5561
-1.35151e-06
11.5542
-1.33687e-06
11.5522
-1.3238e-06
11.5501
-1.31265e-06
11.5479
-1.30355e-06
11.5457
-1.29657e-06
11.5435
-1.29163e-06
11.5413
-1.28854e-06
11.5391
-1.28701e-06
11.5368
-1.28676e-06
11.5346
-1.28733e-06
11.5323
-1.28834e-06
11.5301
-1.28934e-06
11.5279
-1.28985e-06
11.5256
-1.28946e-06
11.5233
-1.28772e-06
11.521
-1.28432e-06
11.5186
-1.27894e-06
11.5162
-1.27132e-06
11.5137
-1.26125e-06
11.511
-1.24855e-06
11.5083
-1.23309e-06
11.5055
-1.21477e-06
11.5024
-1.1935e-06
11.4993
-1.16964e-06
11.4959
-1.14308e-06
11.4923
-1.11388e-06
11.4885
-1.08225e-06
11.4845
-1.04853e-06
11.4803
-1.01325e-06
11.4757
-9.76813e-07
11.471
-9.39823e-07
11.466
-9.02931e-07
11.4607
-8.66745e-07
11.4552
-8.32032e-07
11.4495
-7.99377e-07
11.4436
-7.69472e-07
11.4375
-7.4292e-07
11.4312
-7.19961e-07
11.4247
-7.01001e-07
11.4181
-6.85996e-07
11.4115
-6.74875e-07
11.4047
-6.67416e-07
11.3979
-6.63124e-07
11.391
-6.61345e-07
11.3841
-6.61215e-07
11.3771
-6.62015e-07
11.3701
-6.62941e-07
11.363
-6.63234e-07
11.3559
-6.62289e-07
11.3487
-6.5954e-07
11.3414
-6.54792e-07
11.3341
-6.47843e-07
11.3266
-6.3865e-07
11.319
-6.26929e-07
11.3112
-6.13073e-07
11.3033
-5.96839e-07
11.2952
-5.78663e-07
11.2869
-5.57711e-07
11.2785
-5.34367e-07
11.2698
-5.07833e-07
11.2608
-4.78115e-07
11.2516
-4.4483e-07
11.2421
-4.08445e-07
11.2322
-3.68295e-07
11.2221
-3.26326e-07
11.2116
-2.80485e-07
11.2007
-2.35764e-07
11.1895
-1.87352e-07
11.1779
-1.44327e-07
11.166
-9.4873e-08
11.1537
-5.88541e-08
11.1412
-1.49273e-08
11.1283
8.37917e-09
11.1153
4.95529e-08
11.102
5.87008e-08
11.0885
1.52225e-07
11.0749
3.09034e-07
11.0612
2.10642e-06
11.0475
1.36262e-05
11.0337
9.57049e-05
11.0196
0.000664825
11.0027
0.00462395
10.9679
0.0319497
10.8134
0.22689
1.05097
10.1677
139.159
-0.000260521
139.157
-0.000216
139.155
-0.000189204
139.153
-0.000193996
139.151
-0.000195352
139.149
-0.000194733
139.146
-0.000194611
139.144
-0.0001946
139.141
-0.000194609
139.139
-0.00019461
139.136
-0.000194614
139.134
-0.000194621
139.131
-0.000194627
139.129
-0.000194635
139.126
-0.000194643
139.124
-0.00019465
139.122
-0.000194639
139.12
-0.000194717
139.118
-0.000194657
139.116
-0.00019468
139.114
-0.000194693
139.113
-0.000194707
139.111
-0.000194722
139.11
-0.000194739
139.109
-0.000194759
139.107
-0.000194786
139.106
-0.000194818
139.105
-0.000194855
139.104
-0.000194899
139.102
-0.000194946
139.101
-0.000194976
139.099
-0.000195266
139.098
-0.000194983
139.096
-0.000195195
139.094
-0.000195291
139.091
-0.000195375
139.089
-0.000195463
139.085
-0.000195553
139.082
-0.000195645
139.078
-0.000195741
139.074
-0.000195842
139.07
-0.000195943
139.066
-0.000196044
139.063
-0.000196145
139.059
-0.000196245
139.055
-0.000196342
139.051
-0.000196433
139.048
-0.000196513
139.045
-0.000196575
139.042
-0.000196611
139.039
-0.00019661
139.037
-0.000196555
139.035
-0.000196428
139.033
-0.000196205
139.031
-0.000195857
139.03
-0.000195352
139.03
-0.000194642
139.03
-0.000193688
139.03
-0.000192439
139.03
-0.000190837
139.031
-0.000188833
139.031
-0.000186358
139.032
-0.000183366
139.032
-0.000179806
139.032
-0.000175639
139.032
-0.00017084
139.031
-0.000165386
139.03
-0.000159296
139.028
-0.000152584
139.026
-0.000145294
139.023
-0.000137485
139.019
-0.000129235
139.015
-0.000120636
139.01
-0.000111785
139.005
-0.000102841
138.999
-9.38188e-05
138.992
-8.49351e-05
138.985
-7.62472e-05
138.978
-6.78636e-05
138.97
-5.98703e-05
138.962
-5.23435e-05
138.954
-4.53344e-05
138.946
-3.88897e-05
138.939
-3.30291e-05
138.931
-2.77572e-05
138.924
-2.30728e-05
138.917
-1.89521e-05
138.911
-1.53719e-05
138.905
-1.22885e-05
138.9
-9.6648e-06
138.895
-7.45561e-06
138.891
-5.61428e-06
138.887
-4.0955e-06
138.884
-2.85631e-06
138.88
-1.85449e-06
138.877
-1.05312e-06
138.874
-4.24661e-07
138.871
7.29844e-08
138.868
4.55183e-07
138.864
7.46543e-07
138.86
9.65324e-07
138.855
1.12664e-06
138.849
1.24292e-06
138.842
1.32417e-06
138.833
1.37851e-06
138.824
1.41209e-06
138.813
1.43014e-06
138.801
1.43657e-06
138.787
1.43446e-06
138.772
1.42639e-06
138.755
1.41421e-06
138.737
1.39951e-06
138.717
1.38351e-06
138.696
1.36724e-06
138.674
1.35151e-06
138.65
1.33688e-06
138.626
1.3238e-06
138.601
1.31264e-06
138.575
1.30355e-06
138.549
1.29657e-06
138.523
1.29163e-06
138.496
1.28854e-06
138.469
1.28701e-06
138.442
1.28676e-06
138.415
1.28732e-06
138.388
1.28834e-06
138.361
1.28934e-06
138.334
1.28985e-06
138.307
1.28946e-06
138.28
1.28772e-06
138.252
1.28433e-06
138.223
1.27895e-06
138.194
1.27132e-06
138.164
1.26125e-06
138.133
1.24854e-06
138.1
1.23309e-06
138.066
1.21477e-06
138.029
1.19351e-06
137.991
1.16963e-06
137.951
1.14308e-06
137.908
1.11389e-06
137.863
1.08223e-06
137.814
1.04854e-06
137.763
1.01327e-06
137.709
9.76786e-07
137.652
9.3985e-07
137.592
9.02897e-07
137.529
8.66791e-07
137.463
8.31964e-07
137.394
7.99411e-07
137.323
7.69519e-07
137.25
7.42851e-07
137.174
7.19998e-07
137.097
7.00974e-07
137.018
6.85961e-07
136.938
6.74967e-07
136.857
6.67478e-07
136.775
6.63098e-07
136.692
6.61255e-07
136.609
6.61091e-07
136.525
6.62137e-07
136.441
6.63043e-07
136.356
6.63208e-07
136.271
6.62118e-07
136.185
6.59639e-07
136.097
6.54925e-07
136.009
6.47838e-07
135.919
6.38347e-07
135.828
6.27062e-07
135.735
6.12978e-07
135.64
5.97342e-07
135.543
5.78184e-07
135.443
5.57994e-07
135.342
5.33912e-07
135.237
5.08264e-07
135.13
4.77743e-07
135.019
4.45426e-07
134.905
4.07579e-07
134.787
3.69426e-07
134.665
3.24979e-07
134.539
2.8257e-07
134.409
2.32575e-07
134.274
1.91562e-07
134.135
1.38651e-07
133.992
1.03317e-07
133.845
4.9034e-08
133.694
2.83105e-08
133.54
-2.65197e-08
133.383
-1.6292e-08
133.224
-8.67096e-08
133.062
4.19402e-08
132.899
1.21169e-07
132.735
2.65621e-06
132.57
1.73207e-05
132.406
0.000126253
132.241
0.000893489
132.074
0.00636396
131.895
0.0455755
131.594
0.362838
1.53741
130.941
11.5966
-0.000327756
11.5965
-0.000235196
11.5963
-0.000224596
11.5961
-0.000226667
11.5959
-0.000227152
11.5957
-0.000226931
11.5955
-0.000226911
11.5953
-0.000226881
11.5951
-0.000226889
11.5949
-0.000226886
11.5947
-0.000226884
11.5945
-0.000226882
11.5943
-0.000226881
11.5941
-0.000226879
11.5939
-0.000226877
11.5937
-0.000226875
11.5935
-0.000226842
11.5933
-0.000226933
11.5932
-0.00022685
11.593
-0.000226854
11.5929
-0.000226863
11.5927
-0.000226865
11.5926
-0.00022687
11.5925
-0.000226878
11.5924
-0.000226889
11.5923
-0.000226907
11.5922
-0.000226931
11.5921
-0.000226962
11.592
-0.000227
11.5918
-0.000227044
11.5917
-0.00022704
11.5916
-0.00022743
11.5915
-0.000227014
11.5913
-0.000227294
11.5912
-0.00022738
11.5909
-0.000227465
11.5907
-0.000227554
11.5904
-0.000227646
11.5902
-0.00022774
11.5899
-0.000227837
11.5895
-0.000227942
11.5892
-0.000228046
11.5889
-0.00022815
11.5885
-0.000228254
11.5882
-0.000228358
11.5879
-0.000228458
11.5876
-0.00022855
11.5873
-0.00022863
11.5871
-0.000228691
11.5868
-0.000228721
11.5866
-0.000228708
11.5864
-0.000228634
11.5862
-0.000228477
11.5861
-0.000228211
11.5859
-0.000227802
11.5859
-0.000227213
11.5858
-0.000226389
11.5858
-0.000225286
11.5858
-0.000223844
11.5858
-0.000221997
11.5859
-0.00021969
11.5859
-0.000216839
11.586
-0.000213394
11.586
-0.000209294
11.586
-0.000204495
11.586
-0.000198964
11.5859
-0.000192675
11.5858
-0.000185651
11.5857
-0.000177902
11.5855
-0.00016948
11.5852
-0.000160451
11.5849
-0.000150904
11.5846
-0.000140945
11.5842
-0.000130678
11.5837
-0.000120313
11.5832
-0.000109821
11.5827
-9.94969e-05
11.5821
-8.93852e-05
11.5815
-7.9617e-05
11.5808
-7.02952e-05
11.5802
-6.15071e-05
11.5795
-5.33172e-05
11.5789
-4.57772e-05
11.5782
-3.89125e-05
11.5776
-3.27339e-05
11.577
-2.72356e-05
11.5764
-2.23954e-05
11.5759
-1.81833e-05
11.5754
-1.45541e-05
11.575
-1.14621e-05
11.5746
-8.85572e-06
11.5742
-6.68075e-06
11.5739
-4.88505e-06
11.5736
-3.4176e-06
11.5734
-2.23059e-06
11.5731
-1.28019e-06
11.5729
-5.29146e-07
11.5726
6.05523e-08
11.5723
5.15136e-07
11.572
8.60649e-07
11.5716
1.11961e-06
11.5712
1.31025e-06
11.5707
1.44734e-06
11.5701
1.54303e-06
11.5694
1.60692e-06
11.5687
1.64632e-06
11.5678
1.66754e-06
11.5667
1.67507e-06
11.5656
1.67264e-06
11.5643
1.66322e-06
11.5629
1.64898e-06
11.5614
1.6318e-06
11.5597
1.61313e-06
11.558
1.59416e-06
11.5561
1.57578e-06
11.5542
1.55871e-06
11.5522
1.54345e-06
11.5501
1.53044e-06
11.5479
1.51982e-06
11.5457
1.5117e-06
11.5435
1.50593e-06
11.5413
1.50234e-06
11.5391
1.50055e-06
11.5368
1.50028e-06
11.5346
1.50091e-06
11.5323
1.50215e-06
11.5301
1.50329e-06
11.5279
1.5039e-06
11.5256
1.50345e-06
11.5233
1.50142e-06
11.521
1.49747e-06
11.5186
1.49119e-06
11.5162
1.48231e-06
11.5137
1.47057e-06
11.511
1.45576e-06
11.5083
1.43773e-06
11.5055
1.41638e-06
11.5024
1.39157e-06
11.4993
1.36379e-06
11.4959
1.33279e-06
11.4923
1.29875e-06
11.4885
1.26187e-06
11.4845
1.22255e-06
11.4803
1.18143e-06
11.4757
1.13891e-06
11.471
1.09583e-06
11.466
1.05275e-06
11.4607
1.01061e-06
11.4552
9.70065e-07
11.4495
9.32063e-07
11.4436
8.97191e-07
11.4375
8.66172e-07
11.4312
8.39451e-07
11.4247
8.17334e-07
11.4181
7.99831e-07
11.4115
7.86951e-07
11.4047
7.78233e-07
11.3979
7.73171e-07
11.391
7.71051e-07
11.3841
7.70937e-07
11.3771
7.71994e-07
11.3701
7.73078e-07
11.363
7.73351e-07
11.3559
7.72183e-07
11.3487
7.69154e-07
11.3414
7.63655e-07
11.3341
7.55486e-07
11.3266
7.44576e-07
11.319
7.31126e-07
11.3112
7.1489e-07
11.3033
6.96253e-07
11.2952
6.74585e-07
11.2869
6.50551e-07
11.2785
6.22989e-07
11.2698
5.92403e-07
11.2608
5.57477e-07
11.2516
5.19081e-07
11.2421
4.75973e-07
11.2322
4.30115e-07
11.2221
3.79798e-07
11.2116
3.28402e-07
11.2007
2.7325e-07
11.1895
2.20871e-07
11.1779
1.64922e-07
11.166
1.16446e-07
11.1537
6.39029e-08
11.1412
2.57678e-08
11.1283
-1.9847e-08
11.1153
-3.80351e-08
11.102
-7.93589e-08
11.0885
-4.38486e-08
11.0749
-2.22371e-08
11.0612
8.50177e-07
11.0475
5.86422e-06
11.0339
4.31365e-05
11.0207
0.000305811
11.0112
0.00219497
11.0267
0.0163488
11.1967
0.179033
0.670398
12.0499
5.79794
5.7976
5.79728
5.79694
5.79661
5.79627
5.79593
5.79558
5.79524
5.79489
5.79454
5.79419
5.79384
5.79349
5.79315
5.79281
5.79248
5.79215
5.79182
5.79151
5.79119
5.79089
5.79058
5.79028
5.78999
5.78969
5.7894
5.7891
5.7888
5.7885
5.78819
5.78789
5.78759
5.78727
5.78694
5.78659
5.78623
5.78586
5.78547
5.78507
5.78467
5.78426
5.78385
5.78344
5.78304
5.78264
5.78224
5.78186
5.78149
5.78112
5.78077
5.78042
5.78008
5.77976
5.77945
5.77917
5.7789
5.77865
5.77841
5.77819
5.77798
5.77777
5.77756
5.77735
5.77714
5.77691
5.77668
5.77643
5.77617
5.77589
5.7756
5.77529
5.77496
5.77462
5.77427
5.7739
5.77352
5.77313
5.77273
5.77234
5.77194
5.77156
5.77118
5.77081
5.77047
5.77014
5.76983
5.76955
5.7693
5.76906
5.76886
5.76867
5.76851
5.76836
5.76822
5.7681
5.76797
5.76784
5.7677
5.76754
5.76736
5.76715
5.76691
5.76662
5.76628
5.76589
5.76544
5.76493
5.76436
5.76372
5.76302
5.76226
5.76144
5.76057
5.75964
5.75867
5.75766
5.75661
5.75555
5.75446
5.75335
5.75224
5.75112
5.75
5.74889
5.74777
5.74665
5.74552
5.7444
5.74325
5.74209
5.74091
5.7397
5.73844
5.73714
5.73577
5.73434
5.73284
5.73125
5.72957
5.72778
5.72589
5.72388
5.72175
5.7195
5.71712
5.71462
5.71199
5.70925
5.70639
5.70342
5.70036
5.69722
5.69399
5.69071
5.68738
5.684
5.68059
5.67715
5.67368
5.6702
5.66669
5.66316
5.6596
5.65601
5.65237
5.64868
5.64494
5.64113
5.63726
5.6333
5.62926
5.62513
5.62089
5.61654
5.61206
5.60745
5.6027
5.59778
5.5927
5.58745
5.58202
5.57641
5.57062
5.56467
5.55854
5.55226
5.54584
5.53929
5.53264
5.52591
5.51911
5.51228
5.50543
5.49861
5.49205
5.48738
5.49686
5.66899
6.33252
4.82471
0.119711
4.83154
-0.0085752
4.82885
0.000961922
4.83668
-0.0095758
4.85971
-0.0247725
4.91131
-0.0533621
4.98277
-0.0732517
5.01217
-0.0312061
4.98304
0.0274498
4.90893
0.0725806
4.82773
0.0801349
4.8856
-0.0579734
5.20422
-0.319142
5.69497
-0.492227
6.14158
-0.449241
6.31395
-0.175445
6.2132
0.0981477
6.02713
0.184119
5.83229
0.193208
-0.312335
6.14382
10.1164
0.167533
10.1342
-0.0297247
10.1824
-0.0506458
10.2429
-0.0734973
10.325
-0.110266
10.47
-0.201816
10.6625
-0.269306
10.7702
-0.142403
10.7667
0.0276982
10.6645
0.171789
10.5043
0.238208
10.5396
-0.0933401
11.0431
-0.823756
11.9176
-1.37005
12.8817
-1.41891
13.455
-0.755138
13.5143
0.0343342
13.3238
0.371124
12.8855
0.628761
-0.415889
12.9879
130.961
0.11537
130.999
-0.0995232
130.963
-0.0468928
130.761
0.0967016
130.393
0.225556
129.856
0.302939
129.195
0.360767
128.672
0.346656
128.29
0.377997
128.083
0.343844
127.937
0.348957
127.478
0.328848
126.309
0.309245
124.619
0.286667
122.915
0.254724
121.918
0.212209
121.754
0.165119
121.977
0.112568
122.526
0.0428499
-0.140819
122.211
11.9914
0.171922
11.896
-0.00605777
11.8531
-0.00589402
11.923
0.0248316
12.0906
0.0560019
12.3125
0.0790222
12.5731
0.0974492
12.8206
0.0976302
13.0902
0.105918
13.3338
0.0985824
13.5819
0.0987345
13.8158
0.092762
14.0371
0.0858216
14.2453
0.0762903
14.4359
0.0620149
14.6036
0.0423953
14.7488
0.0177161
14.8747
-0.0153884
14.9871
-0.0716388
-0.238831
15.083
6.50353
6.49654
6.48971
6.51359
6.56864
6.64666
6.74293
6.83968
6.94449
7.04221
7.13991
7.23164
7.31643
7.39168
7.45265
7.49399
7.51066
7.49423
7.42155
7.18167
7.17382
-1.03076
7.62049
-0.452348
7.69524
-0.0826545
7.62629
0.0623747
7.59578
0.0239215
7.63768
-0.0485684
7.67202
-0.0412604
7.67071
-0.00562274
7.65733
0.00657803
7.64794
0.00248719
7.64523
-0.00427531
7.64157
-0.00331995
7.63449
4.57457e-05
7.62653
0.000894402
7.61945
-5.33968e-06
7.61348
-0.00116456
7.6067
-0.000397101
7.59921
0.000257853
7.59138
0.000549844
7.5835
0.000540447
7.57668
-0.000572905
7.57096
-0.00176943
7.56455
-0.00115792
7.55667
0.00023204
7.54801
0.000925511
7.53889
0.00130602
7.52938
0.00159167
7.51955
0.00183207
7.50941
0.00202864
7.49903
0.00216937
7.48848
0.00224276
7.47783
0.00224615
7.46713
0.00218457
7.45644
0.00206943
7.44581
0.00191711
7.43526
0.00174709
7.42477
0.00157982
7.41435
0.00143461
7.40394
0.00132774
7.39351
0.00127111
7.38301
0.00127136
7.37238
0.00132982
7.36157
0.00144273
7.35053
0.00160202
7.33924
0.00179618
7.32768
0.00201134
7.31584
0.00223267
7.30373
0.00244556
7.29138
0.00263676
7.27881
0.00279527
7.26607
0.0029129
7.2532
0.00298453
7.24025
0.00300835
7.22727
0.00298541
7.2143
0.00291961
7.20137
0.00281712
7.18852
0.00268581
7.17576
0.00253498
7.16311
0.00237463
7.15056
0.00221411
7.13812
0.00206105
7.12575
0.00192268
7.11345
0.00180542
7.10118
0.00171548
7.08891
0.00165925
7.0766
0.00164403
7.06419
0.00167802
7.05163
0.00177048
7.03884
0.00193578
7.02575
0.00219133
7.01223
0.00254991
6.9982
0.00299709
6.9837
0.00339605
6.96939
0.00311838
6.95836
-0.000230898
6.96005
-0.0129732
6.97094
-0.0223001
6.9778
-0.0184149
6.97208
-0.00593352
6.9554
0.00497203
6.93472
0.00894752
6.91172
0.0111653
6.88699
0.0128218
6.86046
0.01453
6.83184
0.0165409
6.80083
0.0188467
6.7672
0.0213748
6.73083
0.0240286
6.69171
0.0267144
6.64986
0.0293752
6.6053
0.0320215
6.55795
0.034755
6.50748
0.0377763
6.45333
0.0413521
6.39467
0.0457799
6.33042
0.0513298
6.25932
0.0581941
6.17994
0.0664415
6.09089
0.0759962
5.99102
0.0865336
5.8799
0.0974433
5.75811
0.108157
5.62703
0.117613
5.48893
0.124824
5.347
0.12873
5.2052
0.128749
5.06752
0.124747
4.93761
0.116729
4.81852
0.105735
4.71222
0.0928563
4.61942
0.0792231
4.53987
0.0658216
4.47259
0.0535158
4.41615
0.0426524
4.36889
0.0334303
4.32919
0.0258326
4.29557
0.0197209
4.26672
0.0148987
4.24156
0.0111532
4.21923
0.00828159
4.19903
0.00610406
4.18041
0.0044684
4.16294
0.00325001
4.14632
0.00234931
4.1303
0.00168812
4.1147
0.00120596
4.09938
0.0008566
4.08426
0.000605015
4.06924
0.000424937
4.05429
0.000296811
4.03936
0.000206188
4.02442
0.000142468
4.00947
9.79234e-05
3.99447
6.69661e-05
3.97944
4.55743e-05
3.96435
3.08773e-05
3.94921
2.08372e-05
3.93402
1.4016e-05
3.91877
9.40576e-06
3.90347
6.30521e-06
3.88811
4.22848e-06
3.87271
2.84362e-06
3.85725
1.92169e-06
3.84174
1.30866e-06
3.82619
8.98997e-07
3.81059
6.24534e-07
3.79495
4.37618e-07
3.77927
3.08952e-07
3.76355
2.17049e-07
3.7478
1.5052e-07
3.732
9.75924e-08
3.71618
5.56629e-08
3.70033
1.66019e-08
3.68445
-1.46738e-08
3.66854
-4.59295e-08
3.6526
-7.08314e-08
3.63664
-9.88039e-08
3.62067
-1.20628e-07
3.60467
-1.52055e-07
3.58865
-1.76085e-07
3.57262
-2.0864e-07
3.55657
-2.3117e-07
3.5405
-2.59108e-07
3.52443
-2.82273e-07
3.50834
-3.09965e-07
3.49224
-3.34599e-07
3.47612
-3.69673e-07
3.46
-3.91623e-07
3.44386
-4.33798e-07
3.42772
-4.50897e-07
3.41157
-4.99438e-07
3.3954
-5.15569e-07
3.37923
-5.69802e-07
3.36304
-5.79947e-07
3.34684
-6.43025e-07
3.33063
-6.37376e-07
3.31441
-7.27798e-07
3.29816
-6.83583e-07
3.2819
-8.42139e-07
3.26562
-7.0267e-07
3.24932
-1.00313e-06
3.233
-6.80573e-07
3.21665
-1.20624e-06
3.20027
-6.20274e-07
3.18388
-1.43129e-06
3.16745
-5.58068e-07
3.151
-1.62127e-06
3.13452
-5.71748e-07
3.11802
-1.74349e-06
3.10149
-6.46618e-07
3.08494
-2.09717e-06
3.06836
-1.04987e-06
3.05176
-5.86939e-06
3.03515
-1.6081e-05
3.01859
-8.10889e-05
3.00231
-0.000379479
2.98749
-0.0018517
2.98027
-0.00946162
3.04071
-0.0771502
-0.264532
3.28858
13.8644
-1.90892
14.5916
-1.1911
14.813
-0.31939
14.6778
0.184352
14.5635
0.125117
14.6065
-0.104863
14.6778
-0.126364
14.689
-0.030695
14.6645
0.0174521
14.6418
0.011375
14.6339
-0.0103421
14.6285
-0.0118933
14.617
-0.00247135
14.6019
0.0018715
14.5875
0.000195026
14.5758
-0.00372519
14.5631
-0.00211192
14.5489
3.62343e-05
14.5333
0.00156098
14.5169
0.0023292
14.5022
-0.000696069
14.4908
-0.00529439
14.4796
-0.00513243
14.4663
-0.00175922
14.4514
0.00040236
14.4352
0.00178762
14.4182
0.00283353
14.4003
0.00373982
14.3816
0.00452574
14.3622
0.00515963
14.3422
0.00560377
14.3218
0.00584235
14.3011
0.00588012
14.2802
0.00574029
14.2592
0.00546148
14.2382
0.00509334
14.2173
0.00469091
14.1964
0.00430908
14.1756
0.00399691
14.1548
0.00379366
14.1338
0.00372545
14.1128
0.00380465
14.0914
0.00402959
14.0698
0.00438593
14.0478
0.0048486
14.0253
0.00538431
14.0024
0.00595541
13.979
0.00652333
13.9551
0.007052
13.9309
0.0075106
13.9062
0.00787575
13.8813
0.00813227
13.8562
0.00827478
13.8309
0.00830637
13.8054
0.0082386
13.78
0.00809118
13.7544
0.00788902
13.7288
0.00766288
13.7032
0.00744675
13.6775
0.00727396
13.6516
0.00717396
13.6255
0.00717663
13.5989
0.0073116
13.5719
0.00760995
13.5443
0.00810571
13.5157
0.00883893
13.4861
0.00985646
13.4551
0.0112133
13.4223
0.0129873
13.3874
0.0152755
13.3498
0.0181754
13.309
0.0217247
13.2645
0.0256234
13.2171
0.028121
13.172
0.0223019
13.1529
-0.016499
13.165
-0.0571352
13.188
-0.0644259
13.198
-0.0391993
13.186
-0.00640348
13.1596
0.011847
13.1231
0.0240007
13.0787
0.0334485
13.0269
0.0423097
12.9677
0.0515021
12.9011
0.0611186
12.8269
0.0710143
12.7454
0.0809385
12.6567
0.0906259
12.5612
0.0999021
12.4593
0.108779
12.3513
0.117524
12.2369
0.126676
12.1157
0.136945
11.9868
0.149086
11.8488
0.163716
11.7
0.181152
11.5388
0.20132
11.3644
0.223586
11.1769
0.247027
10.9774
0.270046
10.768
0.290948
10.5517
0.307571
10.3324
0.317852
10.115
0.320195
9.90416
0.313696
9.70428
0.298314
9.51917
0.275213
9.35156
0.246555
9.20262
0.214776
9.07225
0.182261
8.95952
0.151151
8.86272
0.122831
8.77977
0.0980503
8.70848
0.0770796
8.6468
0.0598037
8.59284
0.0458763
8.545
0.0348453
8.50192
0.0262349
8.46252
0.0195959
8.42589
0.0145302
8.39135
0.0107004
8.35835
0.00782869
8.32646
0.00569167
8.29537
0.0041126
8.26483
0.0029537
8.23466
0.0021087
8.20472
0.00149653
8.17491
0.00105581
8.14515
0.000740503
8.11539
0.000516318
8.0856
0.000357909
8.05573
0.000246661
8.02578
0.000169017
7.99573
0.000115157
7.96557
7.80247e-05
7.9353
5.25824e-05
7.90493
3.52551e-05
7.87443
2.35244e-05
7.84383
1.56303e-05
7.81312
1.03458e-05
7.78231
6.83011e-06
7.75139
4.50059e-06
7.72038
2.96528e-06
7.68928
1.95421e-06
7.65808
1.29199e-06
7.6268
8.55435e-07
7.59544
5.69121e-07
7.564
3.76955e-07
7.53249
2.49796e-07
7.50091
1.57325e-07
7.46926
9.59487e-08
7.43755
4.1969e-08
7.40579
9.02992e-09
7.37397
-2.815e-08
7.3421
-5.07347e-08
7.31018
-8.28063e-08
7.27823
-9.55729e-08
7.24623
-1.31995e-07
7.21419
-1.4348e-07
7.18213
-1.81087e-07
7.15003
-1.92207e-07
7.1179
-2.22375e-07
7.08574
-2.38433e-07
7.05356
-2.65789e-07
7.02136
-2.80134e-07
6.98913
-3.22123e-07
6.95688
-3.22656e-07
6.92462
-3.83499e-07
6.89233
-3.68721e-07
6.86002
-4.44087e-07
6.82769
-4.2159e-07
6.79534
-5.07434e-07
6.76296
-4.71367e-07
6.73057
-5.80395e-07
6.69814
-5.03098e-07
6.66569
-6.8289e-07
6.6332
-4.91676e-07
6.60068
-8.61365e-07
6.56811
-3.83764e-07
6.53551
-1.16763e-06
6.50286
-1.54687e-07
6.47016
-1.58337e-06
6.43741
1.44573e-07
6.40461
-2.01714e-06
6.37175
4.01504e-07
6.33885
-2.32127e-06
6.30589
4.76952e-07
6.27289
-2.50586e-06
6.23982
4.86725e-07
6.20672
-3.4524e-06
6.17355
-4.20899e-07
6.14036
-1.43831e-05
6.10714
-4.40126e-05
6.07401
-0.000233596
6.04141
-0.00110197
6.01155
-0.00533816
5.99471
-0.0259888
6.02832
-0.144165
-0.51702
6.24739
120.02
0.110106
118.637
0.03188
118.125
0.0366884
118.1
0.0523737
118.013
0.0526119
117.71
0.0364215
117.399
0.0221301
117.189
0.0157289
117.028
0.013883
116.861
0.0126397
116.673
0.0104037
116.486
0.0081745
116.308
0.00681142
116.135
0.00597549
115.96
0.0053251
115.78
0.00449664
115.602
0.00370633
115.426
0.00310835
115.25
0.00267966
115.074
0.00236992
114.894
0.00206415
114.708
0.00154496
114.521
0.000876141
114.336
0.000158439
114.151
-0.000636798
113.967
-0.00119925
113.782
-0.00161578
113.595
-0.00191272
113.407
-0.00210765
113.218
-0.00225376
113.026
-0.00237957
112.833
-0.00250704
112.637
-0.00265222
112.439
-0.00282667
112.239
-0.00303695
112.036
-0.00328507
111.831
-0.00356805
111.624
-0.00387813
111.414
-0.00420386
111.203
-0.00453155
110.991
-0.00484642
110.777
-0.00513433
110.562
-0.0053826
110.345
-0.0055814
110.128
-0.00572432
109.91
-0.00580827
109.691
-0.00583395
109.472
-0.00580448
109.251
-0.00572578
109.03
-0.00560433
108.807
-0.00544788
108.583
-0.0052633
108.358
-0.00505742
108.131
-0.0048357
107.902
-0.00460268
107.672
-0.0043614
107.44
-0.00411305
107.206
-0.00385877
106.971
-0.00361309
106.733
-0.00339158
106.494
-0.00322407
106.254
-0.00309139
106.012
-0.00298895
105.769
-0.00290547
105.525
-0.00283205
105.281
-0.00275421
105.035
-0.0026973
104.79
-0.00259891
104.545
-0.00243933
104.3
-0.00214703
104.056
-0.00181996
103.814
-0.00133596
103.574
-0.000729178
103.335
-0.000266886
103.089
-0.000863867
102.809
-0.00539311
102.497
-0.0154154
102.189
-0.0260534
101.913
-0.034202
101.671
-0.039671
101.449
-0.0451397
101.244
-0.0526865
101.057
-0.0632578
100.89
-0.0773029
100.748
-0.0950473
100.634
-0.116609
100.553
-0.141909
100.509
-0.170518
100.503
-0.201529
100.537
-0.233487
100.609
-0.264389
100.715
-0.291857
100.851
-0.313433
101.01
-0.327483
101.184
-0.333169
101.37
-0.330929
101.563
-0.322183
101.762
-0.308779
101.966
-0.292486
102.173
-0.274221
102.382
-0.254454
102.59
-0.233302
102.791
-0.2109
102.977
-0.187476
103.141
-0.163821
103.274
-0.140565
103.368
-0.118481
103.418
-0.0983546
103.421
-0.0807465
103.375
-0.0657115
103.284
-0.0531391
103.149
-0.0427506
102.977
-0.0342279
102.773
-0.0272685
102.54
-0.0216036
102.285