/*--------------------------------*- C++ -*----------------------------------*\
| =========                 |                                                 |
| \\      /  F ield         | OpenFOAM: The Open Source CFD Toolbox           |
|  \\    /   O peration     | Version:  3.0.x                                 |
|   \\  /    A nd           | Web:      www.OpenFOAM.org                      |
|    \\/     M anipulation  |                                                 |
\*---------------------------------------------------------------------------*/
FoamFile
{
    version     2.0;
    format      ascii;
    class       volScalarField;
    location    "0.44";
    object      T;
}
// * * * * * * * * * * * * * * * * * * * * * * * * * * * * * * * * * * * * * //

dimensions      [0 0 0 1 0 0 0];

internalField   nonuniform List<scalar> 
6900
(
774.482
774.482
774.482
774.482
774.482
774.482
774.482
774.482
774.482
774.482
774.483
774.483
774.483
774.483
774.483
774.483
774.483
774.483
774.483
774.483
774.483
774.483
774.483
774.482
774.482
774.482
774.482
774.481
774.481
774.481
774.48
774.479
774.476
774.473
774.47
774.468
774.466
774.465
774.465
774.464
774.464
774.463
774.462
774.46
774.458
774.455
774.452
774.448
774.445
774.441
774.438
774.436
774.435
774.434
774.434
774.433
774.431
774.43
774.427
774.424
774.422
774.419
774.416
774.414
774.413
774.411
774.41
774.409
774.409
774.408
774.408
774.408
774.407
774.407
774.407
774.408
774.408
774.408
774.408
774.409
774.409
774.409
774.41
774.41
774.411
774.411
774.411
774.412
774.412
774.413
774.413
774.413
774.413
774.414
774.414
774.414
774.414
774.414
774.414
774.414
774.415
774.415
774.415
774.416
774.416
774.416
774.417
774.418
774.419
774.42
774.421
774.422
774.423
774.425
774.426
774.428
774.429
774.431
774.433
774.435
774.437
774.439
774.441
774.443
774.445
774.447
774.449
774.451
774.453
774.455
774.457
774.459
774.462
774.464
774.466
774.469
774.472
774.474
774.477
774.48
774.483
774.487
774.49
774.494
774.498
774.503
774.507
774.512
774.517
774.522
774.527
774.533
774.538
774.544
774.55
774.556
774.563
774.569
774.575
774.582
774.588
774.594
774.601
774.608
774.614
774.621
774.628
774.635
774.642
774.649
774.656
774.664
774.671
774.679
774.687
774.695
774.704
774.712
774.721
774.731
774.74
774.75
774.76
774.771
774.782
774.793
774.804
774.816
774.828
774.84
774.852
774.865
774.877
774.891
774.902
774.917
774.926
774.944
774.952
775.031
774.479
774.479
774.479
774.479
774.479
774.479
774.479
774.479
774.479
774.479
774.48
774.48
774.48
774.48
774.48
774.48
774.48
774.48
774.48
774.48
774.48
774.48
774.48
774.48
774.479
774.479
774.479
774.479
774.478
774.478
774.477
774.476
774.473
774.47
774.467
774.465
774.464
774.463
774.462
774.462
774.461
774.46
774.459
774.457
774.455
774.453
774.45
774.446
774.443
774.439
774.436
774.434
774.433
774.432
774.431
774.43
774.429
774.427
774.425
774.422
774.42
774.417
774.414
774.412
774.41
774.409
774.408
774.407
774.406
774.406
774.406
774.405
774.405
774.405
774.405
774.406
774.406
774.406
774.406
774.407
774.407
774.407
774.408
774.408
774.409
774.409
774.409
774.41
774.41
774.411
774.411
774.411
774.411
774.412
774.412
774.412
774.412
774.412
774.412
774.412
774.413
774.413
774.413
774.413
774.414
774.414
774.415
774.416
774.417
774.418
774.419
774.42
774.421
774.422
774.424
774.426
774.427
774.429
774.431
774.433
774.435
774.437
774.439
774.441
774.443
774.445
774.447
774.449
774.451
774.453
774.455
774.457
774.46
774.462
774.464
774.467
774.469
774.472
774.475
774.478
774.481
774.485
774.488
774.492
774.496
774.5
774.505
774.51
774.515
774.52
774.525
774.531
774.536
774.542
774.548
774.554
774.561
774.567
774.573
774.58
774.586
774.592
774.599
774.606
774.612
774.619
774.626
774.633
774.64
774.647
774.654
774.662
774.669
774.677
774.685
774.693
774.702
774.71
774.719
774.729
774.738
774.748
774.758
774.769
774.78
774.791
774.802
774.814
774.826
774.838
774.85
774.863
774.875
774.889
774.9
774.915
774.924
774.942
774.95
775.024
774.479
774.479
774.479
774.479
774.479
774.479
774.479
774.479
774.479
774.479
774.48
774.48
774.48
774.48
774.48
774.48
774.48
774.48
774.48
774.48
774.48
774.48
774.48
774.48
774.479
774.479
774.479
774.479
774.478
774.478
774.477
774.476
774.473
774.47
774.467
774.465
774.464
774.463
774.462
774.462
774.461
774.46
774.459
774.457
774.455
774.453
774.45
774.446
774.443
774.439
774.436
774.434
774.433
774.432
774.431
774.43
774.429
774.427
774.425
774.422
774.42
774.417
774.414
774.412
774.41
774.409
774.408
774.407
774.406
774.406
774.406
774.405
774.405
774.405
774.405
774.405
774.406
774.406
774.406
774.407
774.407
774.407
774.408
774.408
774.409
774.409
774.409
774.41
774.41
774.411
774.411
774.411
774.411
774.411
774.412
774.412
774.412
774.412
774.412
774.412
774.413
774.413
774.413
774.413
774.414
774.414
774.415
774.416
774.417
774.418
774.419
774.42
774.421
774.422
774.424
774.426
774.427
774.429
774.431
774.433
774.435
774.437
774.439
774.441
774.443
774.445
774.447
774.449
774.451
774.453
774.455
774.457
774.46
774.462
774.464
774.467
774.469
774.472
774.475
774.478
774.481
774.485
774.488
774.492
774.496
774.5
774.505
774.51
774.515
774.52
774.525
774.531
774.536
774.542
774.548
774.554
774.561
774.567
774.573
774.58
774.586
774.592
774.599
774.606
774.612
774.619
774.626
774.633
774.64
774.647
774.654
774.662
774.669
774.677
774.685
774.693
774.702
774.71
774.719
774.729
774.738
774.748
774.758
774.769
774.78
774.791
774.802
774.814
774.826
774.838
774.85
774.863
774.875
774.888
774.9
774.914
774.925
774.94
774.952
774.964
774.479
774.479
774.479
774.479
774.479
774.479
774.479
774.479
774.479
774.479
774.48
774.48
774.48
774.48
774.48
774.48
774.48
774.48
774.48
774.48
774.48
774.48
774.48
774.48
774.479
774.479
774.479
774.479
774.478
774.478
774.477
774.476
774.473
774.47
774.467
774.465
774.464
774.463
774.462
774.462
774.461
774.46
774.459
774.457
774.455
774.453
774.45
774.446
774.443
774.439
774.436
774.434
774.433
774.432
774.431
774.43
774.429
774.427
774.425
774.422
774.42
774.417
774.414
774.412
774.41
774.409
774.408
774.407
774.406
774.406
774.406
774.405
774.405
774.405
774.405
774.406
774.406
774.406
774.406
774.407
774.407
774.407
774.408
774.408
774.409
774.409
774.409
774.41
774.41
774.411
774.411
774.411
774.411
774.412
774.412
774.412
774.412
774.412
774.412
774.412
774.413
774.413
774.413
774.413
774.414
774.414
774.415
774.416
774.417
774.418
774.419
774.42
774.421
774.422
774.424
774.426
774.427
774.429
774.431
774.433
774.435
774.437
774.439
774.441
774.443
774.445
774.447
774.449
774.451
774.453
774.455
774.457
774.46
774.462
774.464
774.467
774.469
774.472
774.475
774.478
774.481
774.485
774.488
774.492
774.496
774.5
774.505
774.51
774.515
774.52
774.525
774.531
774.536
774.542
774.548
774.554
774.561
774.567
774.573
774.58
774.586
774.592
774.599
774.606
774.612
774.619
774.626
774.633
774.64
774.647
774.654
774.662
774.669
774.677
774.685
774.693
774.702
774.71
774.719
774.729
774.738
774.748
774.758
774.769
774.78
774.791
774.802
774.814
774.826
774.838
774.851
774.863
774.876
774.887
774.902
774.912
774.928
774.935
774.96
774.859
774.482
774.482
774.482
774.482
774.482
774.482
774.482
774.482
774.482
774.482
774.483
774.483
774.483
774.483
774.483
774.483
774.483
774.483
774.483
774.483
774.483
774.483
774.483
774.482
774.482
774.482
774.482
774.481
774.481
774.481
774.48
774.479
774.476
774.473
774.47
774.468
774.466
774.465
774.465
774.464
774.464
774.463
774.462
774.46
774.458
774.455
774.452
774.448
774.445
774.441
774.438
774.436
774.435
774.434
774.434
774.433
774.431
774.43
774.427
774.424
774.422
774.419
774.416
774.414
774.413
774.411
774.41
774.409
774.409
774.408
774.408
774.408
774.407
774.407
774.407
774.408
774.408
774.408
774.408
774.409
774.409
774.409
774.41
774.41
774.411
774.411
774.411
774.412
774.412
774.413
774.413
774.413
774.413
774.414
774.414
774.414
774.414
774.414
774.414
774.414
774.415
774.415
774.415
774.416
774.416
774.416
774.417
774.418
774.419
774.42
774.421
774.422
774.423
774.425
774.426
774.428
774.429
774.431
774.433
774.435
774.437
774.439
774.441
774.443
774.445
774.447
774.449
774.451
774.453
774.455
774.457
774.459
774.462
774.464
774.466
774.469
774.472
774.474
774.477
774.48
774.483
774.487
774.49
774.494
774.498
774.503
774.507
774.512
774.517
774.522
774.527
774.533
774.538
774.544
774.55
774.556
774.563
774.569
774.575
774.582
774.588
774.594
774.601
774.608
774.614
774.621
774.628
774.635
774.642
774.649
774.656
774.664
774.671
774.679
774.687
774.695
774.704
774.712
774.721
774.731
774.74
774.75
774.76
774.771
774.782
774.793
774.804
774.816
774.828
774.84
774.853
774.865
774.878
774.889
774.904
774.914
774.93
774.937
774.969
774.78
775.028
775.043
775.045
775.047
775.047
775.047
775.045
775.042
775.041
775.047
775.059
775.051
775.024
775.003
774.998
774.975
774.936
774.934
774.954
774.937
775.015
775.022
775.022
775.02
775.02
775.017
775.012
775.006
775.003
775.007
775.02
775.014
774.976
774.959
774.959
774.943
774.892
774.874
774.893
774.895
774.976
774.977
774.977
774.976
774.973
774.97
774.966
774.962
774.956
774.951
774.946
774.945
774.946
774.949
774.947
774.938
774.931
774.928
774.926
774.927
774.903
774.908
774.915
774.912
774.909
774.897
774.886
774.867
774.855
774.838
774.825
774.804
774.8
774.787
774.776
774.763
774.757
774.748
774.742
774.734
774.855
774.837
774.837
774.839
774.84
774.836
774.828
774.816
774.805
774.793
774.781
774.771
774.759
774.751
774.743
774.738
774.736
774.738
774.747
774.777
774.788
774.774
774.771
774.763
774.753
774.772
774.8
774.805
774.808
774.814
774.832
774.846
774.856
774.869
774.882
774.896
774.909
774.923
774.937
774.95
774.965
774.979
774.994
775.009
775.023
775.038
775.053
775.068
775.083
775.098
775.113
775.128
775.143
775.158
775.174
775.189
775.205
775.22
775.236
775.252
775.269
775.285
775.302
775.318
775.335
775.351
775.368
775.384
775.401
775.418
775.434
775.451
775.468
775.485
775.502
775.52
775.537
775.555
775.573
775.592
775.61
775.628
775.647
775.667
775.686
775.706
775.726
775.747
775.768
775.788
775.808
775.827
775.847
775.868
775.891
775.915
775.937
775.96
775.983
776.003
776.022
776.043
776.065
776.087
776.109
776.132
776.156
776.181
776.207
776.231
776.255
776.277
776.3
776.327
776.36
776.393
776.419
776.435
776.451
776.487
776.568
776.661
776.731
776.766
776.772
776.758
776.708
776.67
776.658
776.657
776.665
776.691
776.724
776.756
776.785
776.814
776.842
776.869
776.896
776.922
776.949
776.975
777.001
777.028
777.054
777.081
777.107
777.134
777.16
777.187
777.214
777.241
777.267
777.294
777.321
777.349
777.376
777.403
777.43
777.457
777.485
777.512
777.54
777.567
777.594
777.622
777.65
777.677
777.705
777.733
777.76
777.788
777.816
777.844
777.872
777.9
777.928
777.956
777.984
778.013
778.041
778.07
778.098
778.127
778.155
778.184
778.212
778.241
778.27
778.299
778.328
778.357
778.386
778.414
778.443
778.472
778.502
778.53
778.56
778.588
778.618
778.646
778.677
778.704
778.735
778.761
778.794
778.819
778.853
778.877
778.912
778.934
778.971
778.992
779.03
779.049
779.088
779.107
779.153
779.163
774.773
774.779
774.782
774.776
774.767
774.794
774.819
774.822
774.824
774.833
774.852
774.863
774.875
774.887
774.9
774.914
774.927
774.941
774.955
774.968
774.983
774.998
775.012
775.027
775.041
775.055
775.07
775.085
775.099
775.114
775.129
775.144
775.159
775.174
775.189
775.205
775.221
775.236
775.253
775.269
775.285
775.302
775.318
775.334
775.351
775.367
775.383
775.4
775.416
775.432
775.449
775.465
775.482
775.499
775.516
775.534
775.551
775.569
775.587
775.606
775.624
775.643
775.663
775.682
775.703
775.723
775.743
775.764
775.784
775.805
775.826
775.847
775.869
775.894
775.92
775.947
775.97
775.988
776.006
776.024
776.043
776.062
776.083
776.106
776.131
776.156
776.181
776.205
776.229
776.253
776.278
776.305
776.337
776.369
776.397
776.415
776.43
776.459
776.522
776.602
776.676
776.728
776.752
776.754
776.739
776.69
776.656
776.645
776.645
776.651
776.672
776.702
776.732
776.76
776.788
776.815
776.842
776.869
776.895
776.921
776.947
776.974
777
777.026
777.052
777.079
777.105
777.132
777.158
777.185
777.212
777.239
777.266
777.293
777.32
777.347
777.374
777.401
777.428
777.455
777.483
777.51
777.538
777.565
777.593
777.62
777.648
777.675
777.703
777.731
777.758
777.786
777.814
777.842
777.87
777.898
777.926
777.954
777.983
778.011
778.039
778.068
778.096
778.125
778.153
778.182
778.211
778.239
778.268
778.297
778.326
778.355
778.384
778.413
778.442
778.47
778.5
778.528
778.558
778.586
778.616
778.644
778.675
778.702
778.733
778.76
778.792
778.817
778.851
778.875
778.91
778.933
778.969
778.99
779.028
779.047
779.086
779.105
779.146
779.162
774.966
774.981
775.002
775.023
775.041
775.055
775.066
775.078
775.09
775.102
775.114
775.126
775.139
775.152
775.165
775.178
775.191
775.204
775.217
775.23
775.243
775.256
775.269
775.282
775.296
775.31
775.324
775.339
775.355
775.37
775.385
775.4
775.414
775.429
775.442
775.456
775.47
775.484
775.498
775.512
775.526
775.541
775.556
775.572
775.588
775.604
775.621
775.639
775.656
775.674
775.691
775.709
775.726
775.744
775.761
775.779
775.796
775.815
775.834
775.854
775.873
775.893
775.914
775.934
775.956
775.979
776.003
776.027
776.051
776.074
776.098
776.122
776.145
776.164
776.175
776.178
776.174
776.152
776.123
776.104
776.098
776.098
776.102
776.11
776.125
776.144
776.165
776.188
776.213
776.238
776.264
776.289
776.314
776.338
776.361
776.383
776.404
776.425
776.445
776.465
776.484
776.503
776.522
776.542
776.562
776.584
776.606
776.629
776.652
776.676
776.7
776.725
776.749
776.773
776.798
776.823
776.848
776.873
776.898
776.923
776.949
776.975
777.001
777.027
777.053
777.079
777.105
777.132
777.158
777.185
777.212
777.239
777.266
777.293
777.32
777.347
777.374
777.401
777.428
777.455
777.483
777.51
777.538
777.565
777.593
777.62
777.648
777.675
777.703
777.731
777.758
777.786
777.814
777.842
777.87
777.898
777.926
777.954
777.983
778.011
778.039
778.068
778.096
778.125
778.153
778.182
778.211
778.239
778.268
778.297
778.326
778.355
778.384
778.413
778.442
778.471
778.499
778.529
778.558
778.587
778.616
778.645
778.674
778.704
778.732
778.762
778.79
778.82
778.849
778.877
778.907
778.936
778.964
778.996
779.021
779.053
779.082
779.11
779.139
779.17
774.726
774.736
774.743
774.748
774.765
774.782
774.79
774.801
774.814
774.827
774.839
774.852
774.865
774.877
774.89
774.903
774.916
774.93
774.944
774.958
774.972
774.986
775.001
775.015
775.03
775.045
775.06
775.075
775.091
775.106
775.122
775.137
775.152
775.168
775.183
775.199
775.214
775.23
775.245
775.261
775.276
775.292
775.309
775.325
775.341
775.358
775.375
775.392
775.409
775.426
775.443
775.461
775.478
775.495
775.513
775.531
775.548
775.566
775.584
775.602
775.621
775.639
775.658
775.677
775.695
775.714
775.734
775.753
775.773
775.792
775.812
775.833
775.854
775.876
775.899
775.922
775.945
775.965
775.987
776.009
776.033
776.056
776.077
776.101
776.129
776.157
776.181
776.204
776.233
776.268
776.302
776.329
776.355
776.387
776.429
776.48
776.533
776.58
776.614
776.632
776.636
776.63
776.604
776.58
776.573
776.574
776.579
776.597
776.626
776.655
776.683
776.711
776.738
776.765
776.792
776.818
776.844
776.87
776.896
776.922
776.948
776.974
777
777.026
777.052
777.079
777.105
777.132
777.158
777.185
777.212
777.239
777.266
777.293
777.32
777.347
777.374
777.401
777.428
777.455
777.483
777.51
777.538
777.565
777.593
777.62
777.648
777.675
777.703
777.731
777.758
777.786
777.814
777.842
777.87
777.898
777.926
777.954
777.983
778.011
778.039
778.068
778.096
778.125
778.153
778.182
778.211
778.239
778.268
778.297
778.326
778.355
778.384
778.413
778.442
778.471
778.499
778.529
778.557
778.587
778.615
778.645
778.673
778.704
778.731
778.763
778.789
778.821
778.846
778.88
778.904
778.939
778.961
778.998
779.019
779.056
779.077
779.115
779.136
779.177
774.829
774.853
774.861
774.872
774.891
774.904
774.915
774.928
774.941
774.954
774.967
774.98
774.992
775.005
775.018
775.032
775.045
775.059
775.073
775.087
775.101
775.116
775.131
775.146
775.16
775.176
775.191
775.206
775.221
775.236
775.251
775.266
775.281
775.295
775.31
775.325
775.34
775.356
775.371
775.387
775.403
775.419
775.435
775.452
775.468
775.485
775.501
775.517
775.534
775.55
775.567
775.584
775.6
775.617
775.634
775.651
775.668
775.686
775.703
775.72
775.738
775.756
775.774
775.792
775.811
775.83
775.85
775.87
775.89
775.911
775.932
775.954
775.975
775.996
776.018
776.04
776.061
776.08
776.101
776.123
776.147
776.17
776.192
776.214
776.236
776.262
776.293
776.325
776.352
776.369
776.382
776.406
776.467
776.558
776.633
776.679
776.694
776.693
776.669
776.614
776.577
776.564
776.563
776.565
776.573
776.59
776.61
776.632
776.655
776.678
776.702
776.726
776.75
776.775
776.799
776.824
776.849
776.874
776.9
776.925
776.951
776.977
777.003
777.029
777.055
777.081
777.107
777.134
777.16
777.187
777.214
777.241
777.267
777.294
777.321
777.349
777.376
777.403
777.43
777.457
777.485
777.512
777.54
777.567
777.594
777.622
777.65
777.677
777.705
777.733
777.76
777.788
777.816
777.844
777.872
777.9
777.928
777.956
777.984
778.013
778.041
778.07
778.098
778.127
778.155
778.184
778.212
778.241
778.27
778.299
778.328
778.357
778.386
778.415
778.443
778.472
778.501
778.531
778.559
778.589
778.617
778.647
778.675
778.706
778.733
778.764
778.791
778.823
778.848
778.882
778.906
778.941
778.963
779
779.021
779.058
779.081
779.112
779.146
779.169
779.159
779.16
779.162
779.164
779.166
779.168
779.169
779.17
779.171
779.172
779.172
779.173
779.174
779.176
779.177
779.179
779.181
779.183
779.187
779.196
779.178
779.184
779.189
779.193
779.195
779.195
779.195
779.195
779.194
779.192
779.192
779.189
779.189
779.189
779.188
779.188
779.189
779.192
779.195
779.197
779.187
779.193
779.201
779.206
779.212
779.217
779.222
779.228
779.233
779.24
779.247
779.251
779.258
779.27
779.281
779.288
779.3
779.324
779.347
779.358
779.197
779.208
779.217
779.225
779.233
779.243
779.253
779.26
779.265
779.267
779.271
779.276
779.28
779.289
779.312
779.328
779.326
779.313
779.289
779.265
779.197
779.213
779.224
779.235
779.246
779.258
779.271
779.279
779.284
779.287
779.289
779.294
779.3
779.312
779.337
779.353
779.348
779.34
779.314
779.266
779.231
779.273
779.316
779.357
779.39
779.427
779.467
779.507
779.544
779.579
779.615
779.652
779.688
779.721
779.753
779.787
779.82
779.852
779.882
779.912
779.941
779.971
780
780.028
780.055
780.083
780.11
780.137
780.164
780.191
780.218
780.244
780.27
780.297
780.323
780.349
780.375
780.4
780.426
780.452
780.477
780.502
780.528
780.554
780.579
780.605
780.631
780.656
780.682
780.707
780.733
780.758
780.783
780.808
780.833
780.857
780.881
780.906
780.93
780.954
780.978
781.003
781.027
781.051
781.076
781.1
781.125
781.149
781.173
781.196
781.221
781.245
781.269
781.294
781.318
781.341
781.364
781.39
781.416
781.438
781.458
781.483
781.519
781.558
781.584
781.593
781.602
781.629
781.726
781.846
781.912
781.927
781.92
781.875
781.812
781.776
781.76
781.752
781.754
781.755
779.217
779.248
779.294
779.329
779.354
779.384
779.42
779.457
779.489
779.518
779.548
779.581
779.611
779.639
779.667
779.697
779.726
779.753
779.779
779.806
779.833
779.861
779.888
779.914
779.939
779.965
779.991
780.018
780.044
780.07
780.096
780.122
780.148
780.174
780.2
780.226
780.252
780.278
780.304
780.33
780.356
780.382
780.408
780.434
780.459
780.485
780.511
780.536
780.561
780.587
780.613
780.638
780.664
780.689
780.714
780.74
780.765
780.79
780.815
780.84
780.864
780.888
780.912
780.937
780.961
780.985
781.009
781.034
781.057
781.082
781.106
781.13
781.155
781.18
781.203
781.226
781.253
781.28
781.302
781.324
781.352
781.383
781.409
781.431
781.46
781.495
781.529
781.559
781.588
781.621
781.663
781.718
781.78
781.826
781.844
781.844
781.836
781.807
781.775
781.758
779.408
779.453
779.52
779.573
779.617
779.662
779.705
779.744
779.778
779.809
779.839
779.87
779.897
779.922
779.948
779.975
780
780.023
780.045
780.068
780.093
780.118
780.141
780.165
780.188
780.213
780.238
780.263
780.289
780.315
780.342
780.369
780.395
780.422
780.448
780.473
780.498
780.523
780.548
780.573
780.599
780.624
780.65
780.676
780.702
780.728
780.754
780.78
780.806
780.832
780.857
780.883
780.908
780.933
780.96
780.986
781.013
781.04
781.065
781.092
781.118
781.145
781.172
781.199
781.226
781.255
781.285
781.315
781.341
781.36
781.368
781.367
781.361
781.342
781.326
781.317
781.312
781.311
781.316
781.332
781.352
781.374
781.397
781.423
781.448
781.475
781.499
781.524
781.546
781.57
781.588
781.613
781.628
781.65
781.668
781.683
781.702
781.717
781.734
781.751
779.299
779.327
779.357
779.414
779.446
779.449
779.462
779.515
779.553
779.563
779.58
779.621
779.648
779.663
779.685
779.717
779.752
779.774
779.791
779.813
779.839
779.871
779.899
779.921
779.943
779.967
779.991
780.017
780.043
780.07
780.096
780.123
780.149
780.175
780.202
780.229
780.255
780.282
780.308
780.334
780.361
780.387
780.413
780.44
780.466
780.492
780.518
780.544
780.57
780.596
780.622
780.647
780.672
780.697
780.721
780.746
780.771
780.795
780.819
780.844
780.868
780.893
780.918
780.943
780.968
780.993
781.018
781.044
781.068
781.092
781.116
781.14
781.164
781.188
781.211
781.235
781.258
781.283
781.309
781.335
781.359
781.383
781.407
781.434
781.46
781.483
781.506
781.536
781.573
781.606
781.625
781.633
781.645
781.676
781.762
781.863
781.934
781.962
781.962
781.938
779.288
779.326
779.334
779.369
779.417
779.427
779.435
779.456
779.5
779.525
779.548
779.572
779.598
779.625
779.654
779.681
779.706
779.732
779.759
779.786
779.812
779.84
779.868
779.894
779.921
779.947
779.973
780
780.027
780.054
780.08
780.107
780.134
780.16
780.187
780.214
780.24
780.267
780.293
780.32
780.346
780.372
780.398
780.424
780.45
780.476
780.503
780.528
780.554
780.58
780.606
780.632
780.657
780.682
780.707
780.732
780.756
780.781
780.805
780.83
780.854
780.878
780.903
780.927
780.952
780.977
781.002
781.026
781.051
781.075
781.099
781.123
781.147
781.171
781.196
781.219
781.243
781.266
781.289
781.313
781.338
781.363
781.387
781.41
781.435
781.461
781.486
781.506
781.526
781.555
781.592
781.627
781.647
781.655
781.665
781.699
781.805
781.918
781.975
781.98
781.754
781.755
781.755
781.757
781.758
781.76
781.761
781.761
781.762
781.763
781.763
781.764
781.766
781.768
781.771
781.773
781.776
781.779
781.783
781.787
781.748
781.746
781.745
781.743
781.742
781.741
781.74
781.74
781.741
781.742
781.746
781.749
781.753
781.758
781.764
781.768
781.774
781.778
781.785
781.788
781.764
781.769
781.773
781.778
781.781
781.785
781.791
781.795
781.8
781.807
781.814
781.821
781.832
781.842
781.848
781.854
781.867
781.875
781.888
781.896
781.902
781.882
781.864
781.848
781.835
781.825
781.815
781.807
781.803
781.803
781.803
781.805
781.812
781.816
781.824
781.834
781.832
781.83
781.837
781.859
781.979
781.967
781.946
781.919
781.893
781.874
781.858
781.842
781.828
781.82
781.817
781.815
781.811
781.808
781.809
781.814
781.816
781.823
781.849
781.892
781.805
781.834
781.858
781.887
781.919
781.951
781.978
782.005
782.036
782.068
782.095
782.121
782.15
782.18
782.209
782.234
782.257
782.281
782.306
782.331
782.356
782.376
782.392
782.409
782.427
782.445
782.462
782.479
782.495
782.512
782.528
782.544
782.56
782.576
782.592
782.608
782.624
782.64
782.655
782.67
782.685
782.699
782.713
782.727
782.741
782.754
782.768
782.782
782.795
782.809
782.823
782.836
782.849
782.863
782.877
782.888
782.9
782.912
782.925
782.938
782.95
782.961
782.972
782.984
782.996
783.008
783.019
783.029
783.039
783.052
783.066
783.076
783.08
783.088
783.111
783.141
783.152
783.151
783.149
783.174
783.3
783.412
783.435
783.42
783.347
783.254
783.199
783.166
783.143
783.127
783.12
783.122
783.128
783.134
783.141
783.147
783.153
783.16
783.166
783.172
783.178
783.184
783.19
783.195
783.201
783.206
783.211
783.216
783.221
783.226
783.23
783.235
783.239
783.243
783.247
783.251
783.255
783.259
783.262
783.266
783.269
783.272
783.275
783.278
783.28
783.283
783.286
783.288
783.29
783.292
783.295
783.297
783.298
783.3
783.302
783.304
783.305
783.307
783.308
783.309
783.311
783.312
783.313
783.314
783.315
783.316
783.317
783.318
783.318
783.319
783.32
783.32
783.321
783.321
783.322
783.322
783.323
783.323
783.323
783.324
783.324
783.324
783.324
783.324
783.325
783.325
783.325
783.325
783.325
783.325
783.325
783.325
783.325
783.325
783.325
783.325
783.324
783.325
783.324
783.325
783.324
783.326
783.323
783.326
783.323
783.326
783.322
783.326
783.322
783.326
783.322
783.326
783.322
783.325
783.325
783.323
783.328
783.323
783.325
783.327
781.809
781.841
781.866
781.9
781.936
781.963
781.981
782.004
782.034
782.06
782.078
782.096
782.12
782.146
782.167
782.182
782.197
782.215
782.236
782.257
782.276
782.29
782.301
782.315
782.331
782.347
782.363
782.378
782.393
782.408
782.422
782.437
782.451
782.465
782.479
782.494
782.508
782.523
782.538
782.552
782.567
782.581
782.596
782.61
782.625
782.639
782.652
782.666
782.68
782.693
782.706
782.72
782.734
782.748
782.761
782.773
782.785
782.797
782.809
782.822
782.834
782.845
782.857
782.868
782.88
782.894
782.906
782.914
782.925
782.941
782.954
782.961
782.971
782.99
783.007
783.015
783.026
783.049
783.073
783.091
783.111
783.135
783.168
783.223
783.271
783.282
783.278
783.259
783.207
783.156
783.119
783.099
783.096
783.106
783.121
783.133
783.143
783.152
783.16
783.167
783.174
783.181
783.187
783.193
783.199
783.204
783.209
783.215
783.219
783.224
783.229
783.233
783.238
783.242
783.246
783.25
783.254
783.257
783.261
783.264
783.267
783.27
783.273
783.276
783.279
783.282
783.284
783.286
783.289
783.291
783.293
783.295
783.297
783.299
783.3
783.302
783.304
783.305
783.306
783.308
783.309
783.31
783.311
783.312
783.313
783.314
783.315
783.316
783.317
783.317
783.318
783.319
783.319
783.32
783.32
783.321
783.321
783.322
783.322
783.322
783.322
783.323
783.323
783.323
783.323
783.323
783.323
783.323
783.323
783.323
783.323
783.323
783.323
783.323
783.323
783.323
783.323
783.324
783.323
783.324
783.322
783.324
783.322
783.324
783.321
783.325
783.321
783.325
783.321
783.325
783.321
783.325
783.321
783.325
783.321
783.325
783.321
783.325
783.323
783.324
781.962
782.017
782.063
782.11
782.163
782.21
782.247
782.282
782.318
782.346
782.365
782.383
782.406
782.43
782.446
782.451
782.457
782.471
782.491
782.512
782.532
782.539
782.542
782.552
782.566
782.581
782.595
782.61
782.624
782.639
782.655
782.671
782.686
782.702
782.718
782.734
782.749
782.765
782.781
782.796
782.81
782.826
782.841
782.855
782.87
782.883
782.898
782.912
782.927
782.942
782.957
782.972
782.99
783.013
783.029
783.037
783.05
783.067
783.087
783.106
783.118
783.125
783.118
783.106
783.085
783.05
783.021
782.998
782.979
782.966
782.961
782.964
782.973
782.983
782.995
783.008
783.021
783.033
783.045
783.056
783.065
783.074
783.082
783.088
783.094
783.099
783.103
783.107
783.11
783.113
783.116
783.12
783.126
783.132
783.139
783.146
783.152
783.159
783.165
783.171
783.177
783.183
783.188
783.194
783.199
783.205
783.21
783.215
783.22
783.224
783.229
783.233
783.238
783.242
783.246
783.25
783.254
783.257
783.261
783.264
783.267
783.27
783.273
783.276
783.279
783.282
783.284
783.286
783.289
783.291
783.293
783.295
783.297
783.299
783.3
783.302
783.304
783.305
783.306
783.308
783.309
783.31
783.311
783.312
783.313
783.314
783.315
783.316
783.317
783.317
783.318
783.319
783.319
783.32
783.32
783.321
783.321
783.322
783.322
783.322
783.322
783.323
783.323
783.323
783.323
783.323
783.323
783.323
783.323
783.323
783.323
783.323
783.323
783.323
783.323
783.323
783.323
783.323
783.323
783.323
783.323
783.323
783.322
783.323
783.323
783.323
783.323
783.323
783.322
783.324
783.321
783.324
783.322
783.323
783.324
783.323
783.323
783.324
783.323
783.325
781.888
781.943
781.961
781.959
781.984
782.055
782.066
782.062
782.079
782.143
782.149
782.142
782.149
782.194
782.246
782.246
782.228
782.223
782.235
782.275
782.334
782.341
782.33
782.316
782.319
782.333
782.348
782.364
782.38
782.397
782.413
782.43
782.446
782.463
782.479
782.495
782.511
782.526
782.541
782.556
782.571
782.586
782.6
782.614
782.629
782.643
782.657
782.672
782.686
782.7
782.716
782.728
782.74
782.774
782.81
782.805
782.803
782.808
782.822
782.848
782.854
782.858
782.867
782.877
782.889
782.9
782.911
782.921
782.931
782.943
782.956
782.969
782.981
782.991
783.001
783.014
783.025
783.033
783.044
783.065
783.094
783.111
783.114
783.113
783.115
783.145
783.246
783.334
783.365
783.363
783.322
783.23
783.162
783.125
783.113
783.117
783.134
783.147
783.157
783.165
783.173
783.18
783.186
783.192
783.198
783.204
783.209
783.214
783.219
783.224
783.229
783.233
783.238
783.242
783.246
783.25
783.254
783.257
783.261
783.264
783.267
783.27
783.273
783.276
783.279
783.282
783.284
783.286
783.289
783.291
783.293
783.295
783.297
783.299
783.3
783.302
783.304
783.305
783.306
783.308
783.309
783.31
783.311
783.312
783.313
783.314
783.315
783.316
783.317
783.317
783.318
783.319
783.319
783.32
783.32
783.321
783.321
783.322
783.322
783.322
783.322
783.323
783.323
783.323
783.323
783.323
783.323
783.323
783.323
783.323
783.323
783.323
783.323
783.323
783.323
783.323
783.324
783.323
783.324
783.322
783.324
783.322
783.324
783.321
783.324
783.321
783.325
783.321
783.325
783.321
783.325
783.321
783.325
783.321
783.325
783.321
783.325
783.324
783.32
783.327
781.891
781.905
781.935
781.939
781.946
781.972
782.009
782.024
782.035
782.047
782.066
782.087
782.11
782.127
782.142
782.157
782.169
782.185
782.203
782.226
782.246
782.26
782.27
782.283
782.297
782.314
782.331
782.347
782.364
782.38
782.397
782.414
782.43
782.446
782.463
782.479
782.495
782.511
782.527
782.542
782.557
782.571
782.586
782.6
782.615
782.629
782.643
782.657
782.671
782.685
782.7
782.714
782.729
782.747
782.758
782.767
782.779
782.791
782.804
782.818
782.827
782.838
782.85
782.861
782.872
782.883
782.895
782.906
782.918
782.928
782.938
782.948
782.96
782.973
782.984
782.994
783.005
783.018
783.029
783.033
783.039
783.058
783.087
783.106
783.109
783.107
783.109
783.154
783.287
783.363
783.37
783.337
783.231
783.153
783.118
783.111
783.122