/*--------------------------------*- C++ -*----------------------------------*\
| =========                 |                                                 |
| \\      /  F ield         | OpenFOAM: The Open Source CFD Toolbox           |
|  \\    /   O peration     | Version:  3.0.x                                 |
|   \\  /    A nd           | Web:      www.OpenFOAM.org                      |
|    \\/     M anipulation  |                                                 |
\*---------------------------------------------------------------------------*/
FoamFile
{
    version     2.0;
    format      ascii;
    class       volVectorField;
    location    "0.24";
    object      U;
}
// * * * * * * * * * * * * * * * * * * * * * * * * * * * * * * * * * * * * * //

dimensions      [0 1 -1 0 0 0 0];

internalField   nonuniform List<vector> 
13800
(
(76.1947 0.000140872 0)
(76.1872 0.000123505 0)
(76.1789 0.000121611 0)
(76.1706 0.000124117 0)
(76.1622 0.000126041 0)
(76.1535 0.000127602 0)
(76.1444 0.000128919 0)
(76.135 0.000130012 0)
(76.1251 0.000130919 0)
(76.1147 0.000131677 0)
(76.1038 0.000132317 0)
(76.0924 0.000132863 0)
(76.0803 0.000133328 0)
(76.0677 0.000133733 0)
(76.0544 0.000134088 0)
(76.0405 0.000134402 0)
(76.0259 0.00013468 0)
(76.0106 0.000134915 0)
(75.9947 0.000135279 0)
(75.9782 0.000135269 0)
(75.961 0.000135514 0)
(75.9433 0.000135689 0)
(75.9251 0.000135833 0)
(75.9064 0.000135961 0)
(75.8873 0.000136075 0)
(75.868 0.000136177 0)
(75.8484 0.000136271 0)
(75.8288 0.000136359 0)
(75.8091 0.000136436 0)
(75.7896 0.000136508 0)
(75.7703 0.000136572 0)
(75.7514 0.000136626 0)
(75.7329 0.000136675 0)
(75.7151 0.000136717 0)
(75.698 0.000136751 0)
(75.6817 0.000136779 0)
(75.6664 0.000136799 0)
(75.6521 0.000136814 0)
(75.639 0.000136824 0)
(75.627 0.000136829 0)
(75.6163 0.00013683 0)
(75.6069 0.000136826 0)
(75.5988 0.000136818 0)
(75.592 0.000136806 0)
(75.5866 0.000136787 0)
(75.5825 0.000136697 0)
(75.5794 0.000136818 0)
(75.5775 0.000136668 0)
(75.5767 0.000136618 0)
(75.5771 0.000136519 0)
(75.5784 0.000136352 0)
(75.5807 0.00013617 0)
(75.5838 0.000135896 0)
(75.5875 0.000135524 0)
(75.5918 0.000135027 0)
(75.5965 0.000134375 0)
(75.6017 0.000133531 0)
(75.607 0.000132459 0)
(75.6125 0.000131119 0)
(75.6181 0.00012947 0)
(75.6237 0.000127476 0)
(75.6291 0.0001251 0)
(75.6345 0.000122311 0)
(75.6396 0.00011909 0)
(75.6444 0.000115424 0)
(75.6491 0.000111312 0)
(75.6534 0.000106767 0)
(75.6574 0.000101815 0)
(75.6612 9.64939e-05 0)
(75.6647 9.08559e-05 0)
(75.6679 8.4963e-05 0)
(75.6708 7.88862e-05 0)
(75.6736 7.27025e-05 0)
(75.6761 6.64919e-05 0)
(75.6784 6.03342e-05 0)
(75.6805 5.43065e-05 0)
(75.6825 4.84798e-05 0)
(75.6844 4.29166e-05 0)
(75.6862 3.76697e-05 0)
(75.6879 3.27804e-05 0)
(75.6895 2.82784e-05 0)
(75.691 2.41815e-05 0)
(75.6925 2.04963e-05 0)
(75.6939 1.72192e-05 0)
(75.6953 1.43379e-05 0)
(75.6967 1.18328e-05 0)
(75.6981 9.67881e-06 0)
(75.6994 7.84697e-06 0)
(75.7008 6.3066e-06 0)
(75.7022 5.01808e-06 0)
(75.7036 3.9633e-06 0)
(75.705 3.10934e-06 0)
(75.7064 2.41919e-06 0)
(75.7077 1.85914e-06 0)
(75.7091 1.41544e-06 0)
(75.7106 1.06853e-06 0)
(75.7121 8.03037e-07 0)
(75.7137 6.03208e-07 0)
(75.7153 4.54369e-07 0)
(75.7171 3.4439e-07 0)
(75.7189 2.63788e-07 0)
(75.7208 2.05447e-07 0)
(75.7228 1.63972e-07 0)
(75.7249 1.35272e-07 0)
(75.7272 1.16197e-07 0)
(75.7296 1.04284e-07 0)
(75.7322 9.76015e-08 0)
(75.7349 9.46355e-08 0)
(75.7379 9.42768e-08 0)
(75.741 9.57482e-08 0)
(75.7444 9.83763e-08 0)
(75.748 1.0176e-07 0)
(75.7518 1.05559e-07 0)
(75.7559 1.0957e-07 0)
(75.7602 1.13635e-07 0)
(75.7647 1.1764e-07 0)
(75.7696 1.2153e-07 0)
(75.7746 1.25282e-07 0)
(75.78 1.28829e-07 0)
(75.7855 1.32081e-07 0)
(75.7914 1.3495e-07 0)
(75.7974 1.37377e-07 0)
(75.8037 1.39272e-07 0)
(75.8101 1.40464e-07 0)
(75.8167 1.41034e-07 0)
(75.8234 1.40906e-07 0)
(75.8303 1.40037e-07 0)
(75.8372 1.38191e-07 0)
(75.8441 1.35335e-07 0)
(75.8511 1.31667e-07 0)
(75.8579 1.27043e-07 0)
(75.8647 1.21272e-07 0)
(75.8713 1.1423e-07 0)
(75.8777 1.06409e-07 0)
(75.8839 9.77112e-08 0)
(75.8897 8.78545e-08 0)
(75.8952 7.65965e-08 0)
(75.9003 6.45399e-08 0)
(75.9048 5.13934e-08 0)
(75.9089 3.71884e-08 0)
(75.9124 2.25183e-08 0)
(75.9153 7.86202e-09 0)
(75.9175 -6.57782e-09 0)
(75.9191 -2.56791e-08 0)
(75.9199 -5.3292e-08 0)
(75.92 -8.96212e-08 0)
(75.9193 -1.22674e-07 0)
(75.9178 -1.3983e-07 0)
(75.9153 -1.59837e-07 0)
(75.9121 -1.79392e-07 0)
(75.908 -1.97802e-07 0)
(75.9032 -2.15299e-07 0)
(75.8975 -2.31738e-07 0)
(75.8912 -2.46912e-07 0)
(75.884 -2.60632e-07 0)
(75.8762 -2.72803e-07 0)
(75.8677 -2.83431e-07 0)
(75.8586 -2.92603e-07 0)
(75.8489 -3.00456e-07 0)
(75.8387 -3.07103e-07 0)
(75.8279 -3.1258e-07 0)
(75.8168 -3.16794e-07 0)
(75.8052 -3.19724e-07 0)
(75.7934 -3.21303e-07 0)
(75.7813 -3.21573e-07 0)
(75.769 -3.20466e-07 0)
(75.7566 -3.18152e-07 0)
(75.7441 -3.14492e-07 0)
(75.7316 -3.09786e-07 0)
(75.7192 -3.03799e-07 0)
(75.7069 -2.96862e-07 0)
(75.6947 -2.88692e-07 0)
(75.6828 -2.79762e-07 0)
(75.6711 -2.69985e-07 0)
(75.6598 -2.59954e-07 0)
(75.6487 -2.49549e-07 0)
(75.638 -2.38228e-07 0)
(75.6278 -2.26131e-07 0)
(75.6179 -2.13692e-07 0)
(75.6084 -2.01115e-07 0)
(75.5994 -1.88453e-07 0)
(75.5908 -1.75886e-07 0)
(75.5828 -1.631e-07 0)
(75.5751 -1.50633e-07 0)
(75.5679 -1.38522e-07 0)
(75.5612 -1.25317e-07 0)
(75.555 -1.12541e-07 0)
(75.5492 -1.00589e-07 0)
(75.5438 -8.14732e-08 0)
(75.5389 -4.95157e-08 0)
(75.5344 1.19969e-07 0)
(75.5302 7.91229e-07 0)
(75.5264 3.94798e-06 0)
(75.5226 1.90596e-05 0)
(75.5172 9.18005e-05 0)
(75.5026 0.000440785 0)
(75.4458 0.00204737 0)
(75.1928 0.00937087 0)
(74.3595 0.0469404 0)
(66.672 0.190652 0)
(76.1986 0.000222025 0)
(76.195 0.000164085 0)
(76.1906 0.000149242 0)
(76.1862 0.000148085 0)
(76.1817 0.000146392 0)
(76.1769 0.000144878 0)
(76.1717 0.000143743 0)
(76.1661 0.000142827 0)
(76.1601 0.000142061 0)
(76.1537 0.000141415 0)
(76.1467 0.000140868 0)
(76.1391 0.000140403 0)
(76.131 0.000140003 0)
(76.1222 0.000139666 0)
(76.1128 0.000139381 0)
(76.1028 0.00013914 0)
(76.0921 0.000138936 0)
(76.0807 0.000138739 0)
(76.0687 0.000138857 0)
(76.0561 0.000138357 0)
(76.0428 0.000138373 0)
(76.029 0.000138325 0)
(76.0147 0.000138259 0)
(75.9999 0.0001382 0)
(75.9847 0.00013815 0)
(75.9693 0.000138111 0)
(75.9536 0.000138079 0)
(75.9379 0.000138058 0)
(75.9221 0.000138038 0)
(75.9065 0.000138028 0)
(75.8911 0.000138019 0)
(75.8761 0.000138009 0)
(75.8615 0.000138002 0)
(75.8476 0.000137993 0)
(75.8344 0.000137982 0)
(75.822 0.00013797 0)
(75.8106 0.000137954 0)
(75.8002 0.000137937 0)
(75.791 0.000137917 0)
(75.7829 0.000137896 0)
(75.7761 0.000137873 0)
(75.7706 0.000137847 0)
(75.7664 0.000137819 0)
(75.7635 0.000137789 0)
(75.762 0.000137752 0)
(75.7618 0.00013759 0)
(75.7626 0.000137838 0)
(75.7646 0.000137575 0)
(75.7677 0.000137532 0)
(75.772 0.000137424 0)
(75.7772 0.000137221 0)
(75.7833 0.000137042 0)
(75.7903 0.000136753 0)
(75.7979 0.000136365 0)
(75.806 0.000135848 0)
(75.8146 0.000135172 0)
(75.8236 0.000134298 0)
(75.8327 0.000133193 0)
(75.842 0.000131811 0)
(75.8513 0.000130114 0)
(75.8605 0.000128063 0)
(75.8696 0.000125623 0)
(75.8784 0.000122762 0)
(75.887 0.000119462 0)
(75.8952 0.000115712 0)
(75.903 0.000111511 0)
(75.9105 0.000106873 0)
(75.9175 0.000101829 0)
(75.9241 9.64177e-05 0)
(75.9302 9.06934e-05 0)
(75.9359 8.47206e-05 0)
(75.9412 7.85722e-05 0)
(75.9461 7.2327e-05 0)
(75.9506 6.60662e-05 0)
(75.9547 5.98704e-05 0)
(75.9585 5.38169e-05 0)
(75.962 4.79764e-05 0)
(75.9651 4.24111e-05 0)
(75.968 3.71722e-05 0)
(75.9707 3.23002e-05 0)
(75.9732 2.7823e-05 0)
(75.9754 2.37568e-05 0)
(75.9776 2.01066e-05 0)
(75.9795 1.68671e-05 0)
(75.9814 1.40247e-05 0)
(75.9831 1.15585e-05 0)
(75.9848 9.44244e-06 0)
(75.9864 7.64673e-06 0)
(75.9879 6.14055e-06 0)
(75.9895 4.87737e-06 0)
(75.991 3.85253e-06 0)
(75.9925 3.03138e-06 0)
(75.9939 2.36627e-06 0)
(75.9953 1.82009e-06 0)
(75.9968 1.39231e-06 0)
(75.9983 1.06144e-06 0)
(75.9998 8.10974e-07 0)
(76.0014 6.22561e-07 0)
(76.0031 4.80499e-07 0)
(76.0048 3.73292e-07 0)
(76.0066 2.92743e-07 0)
(76.0085 2.3309e-07 0)
(76.0105 1.89935e-07 0)
(76.0126 1.59811e-07 0)
(76.0149 1.39859e-07 0)
(76.0173 1.27707e-07 0)
(76.0199 1.21431e-07 0)
(76.0226 1.19494e-07 0)
(76.0255 1.20738e-07 0)
(76.0287 1.24297e-07 0)
(76.032 1.29453e-07 0)
(76.0356 1.35794e-07 0)
(76.0394 1.42945e-07 0)
(76.0435 1.50719e-07 0)
(76.0478 1.58888e-07 0)
(76.0523 1.67268e-07 0)
(76.0571 1.7571e-07 0)
(76.0622 1.8413e-07 0)
(76.0675 1.92465e-07 0)
(76.0731 2.0059e-07 0)
(76.0789 2.08378e-07 0)
(76.0849 2.15738e-07 0)
(76.0912 2.22475e-07 0)
(76.0976 2.28349e-07 0)
(76.1042 2.33414e-07 0)
(76.1109 2.37518e-07 0)
(76.1178 2.40602e-07 0)
(76.1247 2.42297e-07 0)
(76.1316 2.4255e-07 0)
(76.1385 2.41566e-07 0)
(76.1454 2.39129e-07 0)
(76.1522 2.34933e-07 0)
(76.1588 2.28811e-07 0)
(76.1652 2.2139e-07 0)
(76.1713 2.12487e-07 0)
(76.1772 2.01593e-07 0)
(76.1826 1.88392e-07 0)
(76.1877 1.73833e-07 0)
(76.1922 1.57241e-07 0)
(76.1963 1.39614e-07 0)
(76.1998 1.20757e-07 0)
(76.2026 1.02011e-07 0)
(76.2049 8.13715e-08 0)
(76.2064 6.37415e-08 0)
(76.2073 4.18875e-08 0)
(76.2074 1.38619e-08 0)
(76.2067 -2.9005e-08 0)
(76.2051 -4.99241e-08 0)
(76.2026 -7.81236e-08 0)
(76.1993 -1.07759e-07 0)
(76.1953 -1.36935e-07 0)
(76.1904 -1.65587e-07 0)
(76.1848 -1.93318e-07 0)
(76.1784 -2.19871e-07 0)
(76.1713 -2.44904e-07 0)
(76.1634 -2.68217e-07 0)
(76.1549 -2.89647e-07 0)
(76.1458 -3.09198e-07 0)
(76.1361 -3.26889e-07 0)
(76.1258 -3.4274e-07 0)
(76.1151 -3.56788e-07 0)
(76.1039 -3.68861e-07 0)
(76.0923 -3.79001e-07 0)
(76.0805 -3.87087e-07 0)
(76.0683 -3.93253e-07 0)
(76.056 -3.97283e-07 0)
(76.0436 -3.99513e-07 0)
(76.0311 -3.99568e-07 0)
(76.0186 -3.97958e-07 0)
(76.0062 -3.94313e-07 0)
(75.9939 -3.89207e-07 0)
(75.9817 -3.82164e-07 0)
(75.9698 -3.74157e-07 0)
(75.9581 -3.64035e-07 0)
(75.9467 -3.52316e-07 0)
(75.9356 -3.39889e-07 0)
(75.9249 -3.26619e-07 0)
(75.9146 -3.12571e-07 0)
(75.9047 -2.97879e-07 0)
(75.8953 -2.82571e-07 0)
(75.8862 -2.65696e-07 0)
(75.8777 -2.49126e-07 0)
(75.8696 -2.32353e-07 0)
(75.8619 -2.13945e-07 0)
(75.8547 -1.99624e-07 0)
(75.848 -1.80531e-07 0)
(75.8417 -1.61937e-07 0)
(75.8359 -1.45159e-07 0)
(75.8305 -1.03969e-07 0)
(75.8256 -3.968e-09 0)
(75.8211 4.82765e-07 0)
(75.8169 2.69922e-06 0)
(75.8131 1.34151e-05 0)
(75.8093 6.48883e-05 0)
(75.8038 0.000312616 0)
(75.7893 0.00150103 0)
(75.7327 0.0069751 0)
(75.4809 0.0318609 0)
(74.6496 0.156667 0)
(67.379 0.599874 0)
(76.1986 0.000163639 0)
(76.195 0.000115894 0)
(76.1905 0.000105474 0)
(76.1862 0.000110068 0)
(76.1817 0.000111462 0)
(76.1769 0.000111897 0)
(76.1717 0.000112304 0)
(76.1661 0.000112649 0)
(76.1601 0.000112925 0)
(76.1537 0.000113157 0)
(76.1467 0.000113355 0)
(76.1391 0.000113528 0)
(76.131 0.000113681 0)
(76.1222 0.000113821 0)
(76.1128 0.00011395 0)
(76.1028 0.000114069 0)
(76.0921 0.00011418 0)
(76.0807 0.00011426 0)
(76.0687 0.000114571 0)
(76.0561 0.00011437 0)
(76.0429 0.000114533 0)
(76.029 0.00011465 0)
(76.0147 0.000114729 0)
(75.9999 0.000114798 0)
(75.9848 0.000114864 0)
(75.9693 0.000114925 0)
(75.9537 0.000114983 0)
(75.9379 0.000115038 0)
(75.9222 0.000115089 0)
(75.9065 0.000115139 0)
(75.8912 0.000115183 0)
(75.8761 0.000115222 0)
(75.8616 0.000115257 0)
(75.8477 0.000115287 0)
(75.8345 0.00011531 0)
(75.8222 0.000115328 0)
(75.8107 0.000115341 0)
(75.8004 0.00011535 0)
(75.7911 0.000115355 0)
(75.7831 0.000115356 0)
(75.7762 0.000115353 0)
(75.7707 0.000115347 0)
(75.7666 0.000115337 0)
(75.7637 0.000115324 0)
(75.7622 0.000115302 0)
(75.762 0.000115177 0)
(75.7628 0.000115404 0)
(75.7648 0.00011518 0)
(75.7679 0.000115153 0)
(75.7722 0.000115076 0)
(75.7774 0.000114903 0)
(75.7836 0.000114763 0)
(75.7905 0.000114524 0)
(75.7981 0.000114202 0)
(75.8063 0.000113769 0)
(75.8149 0.000113202 0)
(75.8239 0.000112466 0)
(75.833 0.000111536 0)
(75.8423 0.000110371 0)
(75.8516 0.00010894 0)
(75.8608 0.00010721 0)
(75.8699 0.000105152 0)
(75.8787 0.000102739 0)
(75.8873 9.99563e-05 0)
(75.8955 9.67948e-05 0)
(75.9034 9.32559e-05 0)
(75.9108 8.93513e-05 0)
(75.9178 8.51067e-05 0)
(75.9244 8.05556e-05 0)
(75.9305 7.57447e-05 0)
(75.9363 7.07283e-05 0)
(75.9415 6.5568e-05 0)
(75.9464 6.03302e-05 0)
(75.9509 5.50831e-05 0)
(75.955 4.98943e-05 0)
(75.9588 4.48282e-05 0)
(75.9622 3.99438e-05 0)
(75.9654 3.5293e-05 0)
(75.9683 3.09178e-05 0)
(75.971 2.6852e-05 0)
(75.9734 2.3118e-05 0)
(75.9757 1.9729e-05 0)
(75.9778 1.66884e-05 0)
(75.9797 1.39916e-05 0)
(75.9816 1.16266e-05 0)
(75.9833 9.57569e-06 0)
(75.985 7.81666e-06 0)
(75.9866 6.32449e-06 0)
(75.9881 5.07303e-06 0)
(75.9896 4.02309e-06 0)
(75.9912 3.17308e-06 0)
(75.9927 2.49366e-06 0)
(75.9941 1.9388e-06 0)
(75.9955 1.47955e-06 0)
(75.9969 1.12037e-06 0)
(75.9984 8.41686e-07 0)
(76 6.2965e-07 0)
(76.0016 4.69732e-07 0)
(76.0032 3.49914e-07 0)
(76.0049 2.6081e-07 0)
(76.0067 1.95092e-07 0)
(76.0086 1.47321e-07 0)
(76.0106 1.13305e-07 0)
(76.0128 8.98158e-08 0)
(76.015 7.42982e-08 0)
(76.0174 6.47243e-08 0)
(76.02 5.95104e-08 0)
(76.0228 5.74512e-08 0)
(76.0257 5.76835e-08 0)
(76.0288 5.95964e-08 0)
(76.0322 6.26979e-08 0)
(76.0358 6.66979e-08 0)
(76.0396 7.13193e-08 0)
(76.0436 7.6441e-08 0)
(76.0479 8.19065e-08 0)
(76.0525 8.75917e-08 0)
(76.0573 9.33593e-08 0)
(76.0624 9.91363e-08 0)
(76.0677 1.04832e-07 0)
(76.0733 1.10347e-07 0)
(76.0791 1.15596e-07 0)
(76.0851 1.20519e-07 0)
(76.0913 1.24998e-07 0)
(76.0978 1.2887e-07 0)
(76.1044 1.32161e-07 0)
(76.1111 1.34805e-07 0)
(76.1179 1.36724e-07 0)
(76.1248 1.37665e-07 0)
(76.1318 1.37568e-07 0)
(76.1387 1.36589e-07 0)
(76.1456 1.34579e-07 0)
(76.1523 1.31272e-07 0)
(76.1589 1.26556e-07 0)
(76.1654 1.20839e-07 0)
(76.1715 1.14052e-07 0)
(76.1773 1.05763e-07 0)
(76.1828 9.5723e-08 0)
(76.1878 8.46082e-08 0)
(76.1924 7.19281e-08 0)
(76.1964 5.82142e-08 0)
(76.1999 4.35704e-08 0)
(76.2028 2.81479e-08 0)
(76.205 1.23396e-08 0)
(76.2066 -5.3213e-09 0)
(76.2074 -2.58621e-08 0)
(76.2075 -3.80421e-08 0)
(76.2068 -6.15092e-08 0)
(76.2052 -7.32888e-08 0)
(76.2028 -9.00152e-08 0)
(76.1995 -1.08377e-07 0)
(76.1954 -1.27071e-07 0)
(76.1906 -1.46012e-07 0)
(76.1849 -1.64845e-07 0)
(76.1785 -1.83464e-07 0)
(76.1714 -2.01488e-07 0)
(76.1636 -2.18713e-07 0)
(76.1551 -2.34827e-07 0)
(76.146 -2.49703e-07 0)
(76.1362 -2.63192e-07 0)
(76.126 -2.75222e-07 0)
(76.1152 -2.85841e-07 0)
(76.1041 -2.94917e-07 0)
(76.0925 -3.02525e-07 0)
(76.0806 -3.0858e-07 0)
(76.0685 -3.13195e-07 0)
(76.0562 -3.16141e-07 0)
(76.0438 -3.17846e-07 0)
(76.0313 -3.17773e-07 0)
(76.0188 -3.1666e-07 0)
(76.0063 -3.13885e-07 0)
(75.994 -3.10019e-07 0)
(75.9819 -3.0426e-07 0)
(75.9699 -2.98343e-07 0)
(75.9582 -2.90325e-07 0)
(75.9468 -2.81972e-07 0)
(75.9358 -2.73766e-07 0)
(75.9251 -2.63618e-07 0)
(75.9148 -2.52078e-07 0)
(75.9049 -2.40544e-07 0)
(75.8954 -2.28925e-07 0)
(75.8864 -2.16415e-07 0)
(75.8778 -2.04452e-07 0)
(75.8697 -1.92326e-07 0)
(75.8621 -1.77713e-07 0)
(75.8549 -1.69407e-07 0)
(75.8482 -1.51772e-07 0)
(75.8419 -1.35563e-07 0)
(75.8361 -1.2145e-07 0)
(75.8307 -6.34905e-08 0)
(75.8258 1.22444e-07 0)
(75.8212 1.07779e-06 0)
(75.8171 5.47503e-06 0)
(75.8133 2.66991e-05 0)
(75.8095 0.000128789 0)
(75.8041 0.00062021 0)
(75.7899 0.00297808 0)
(75.7346 0.0138546 0)
(75.4894 0.0632576 0)
(74.6832 0.309848 0)
(67.816 1.1576 0)
(76.1986 0.000118309 0)
(76.195 0.000105094 0)
(76.1905 9.71745e-05 0)
(76.1861 0.000102889 0)
(76.1816 0.00010568 0)
(76.1768 0.000106964 0)
(76.1717 0.000108048 0)
(76.1661 0.000108977 0)
(76.1601 0.000109746 0)
(76.1536 0.00011039 0)
(76.1466 0.000110937 0)
(76.1391 0.000111406 0)
(76.131 0.000111811 0)
(76.1222 0.000112166 0)
(76.1128 0.00011248 0)
(76.1028 0.00011276 0)
(76.0921 0.00011301 0)
(76.0807 0.000113215 0)
(76.0687 0.000113543 0)
(76.0561 0.000113581 0)
(76.0428 0.000113778 0)
(76.029 0.000113948 0)
(76.0147 0.000114087 0)
(75.9999 0.000114211 0)
(75.9847 0.000114324 0)
(75.9693 0.000114427 0)
(75.9536 0.000114521 0)
(75.9379 0.000114609 0)
(75.9221 0.00011469 0)
(75.9065 0.000114765 0)
(75.8911 0.000114833 0)
(75.8761 0.000114894 0)
(75.8616 0.000114949 0)
(75.8477 0.000114996 0)
(75.8345 0.000115036 0)
(75.8221 0.00011507 0)
(75.8107 0.000115097 0)
(75.8003 0.000115119 0)
(75.7911 0.000115136 0)
(75.783 0.000115149 0)
(75.7762 0.000115157 0)
(75.7707 0.000115162 0)
(75.7665 0.000115163 0)
(75.7637 0.000115161 0)
(75.7622 0.00011515 0)
(75.7619 0.000115077 0)
(75.7628 0.000115218 0)
(75.7648 0.000115078 0)
(75.7679 0.000115045 0)
(75.7722 0.000114983 0)
(75.7774 0.000114837 0)
(75.7836 0.000114707 0)
(75.7905 0.000114488 0)
(75.7981 0.000114189 0)
(75.8063 0.000113784 0)
(75.8149 0.00011325 0)
(75.8238 0.000112553 0)
(75.833 0.000111667 0)
(75.8423 0.000110555 0)
(75.8516 0.000109183 0)
(75.8608 0.000107521 0)
(75.8699 0.000105537 0)
(75.8787 0.000103204 0)
(75.8873 0.000100508 0)
(75.8955 9.74354e-05 0)
(75.9033 9.39873e-05 0)
(75.9108 9.01722e-05 0)
(75.9178 8.60133e-05 0)
(75.9244 8.15419e-05 0)
(75.9305 7.68015e-05 0)
(75.9362 7.18443e-05 0)
(75.9415 6.67299e-05 0)
(75.9464 6.15233e-05 0)
(75.9509 5.6292e-05 0)
(75.955 5.11031e-05 0)
(75.9588 4.60215e-05 0)
(75.9622 4.11073e-05 0)
(75.9654 3.64134e-05 0)
(75.9683 3.19843e-05 0)
(75.9709 2.78554e-05 0)
(75.9734 2.40518e-05 0)
(75.9757 2.05888e-05 0)
(75.9778 1.74723e-05 0)
(75.9797 1.46995e-05 0)
(75.9816 1.22602e-05 0)
(75.9833 1.01382e-05 0)
(75.985 8.31258e-06 0)
(75.9866 6.75896e-06 0)
(75.9881 5.45135e-06 0)
(75.9896 4.35517e-06 0)
(75.9912 3.46019e-06 0)
(75.9927 2.73782e-06 0)
(75.9941 2.14794e-06 0)
(75.9955 1.66468e-06 0)
(75.9969 1.28422e-06 0)
(75.9984 9.88018e-07 0)
(76 7.61669e-07 0)
(76.0016 5.90959e-07 0)
(76.0032 4.63443e-07 0)
(76.0049 3.69031e-07 0)
(76.0067 2.99771e-07 0)
(76.0086 2.49631e-07 0)
(76.0106 2.14004e-07 0)
(76.0128 1.89352e-07 0)
(76.015 1.72922e-07 0)
(76.0174 1.6259e-07 0)
(76.02 1.56686e-07 0)
(76.0228 1.53939e-07 0)
(76.0257 1.53431e-07 0)
(76.0288 1.54521e-07 0)
(76.0322 1.56717e-07 0)
(76.0358 1.59677e-07 0)
(76.0396 1.63125e-07 0)
(76.0436 1.66911e-07 0)
(76.0479 1.70891e-07 0)
(76.0525 1.74966e-07 0)
(76.0573 1.79048e-07 0)
(76.0624 1.83067e-07 0)
(76.0677 1.86954e-07 0)
(76.0733 1.90604e-07 0)
(76.0791 1.93945e-07 0)
(76.0851 1.96934e-07 0)
(76.0913 1.99482e-07 0)
(76.0978 2.01473e-07 0)
(76.1044 2.02922e-07 0)
(76.1111 2.03817e-07 0)
(76.1179 2.04088e-07 0)
(76.1248 2.03532e-07 0)
(76.1318 2.02108e-07 0)
(76.1387 1.99963e-07 0)
(76.1456 1.97015e-07 0)
(76.1523 1.93037e-07 0)
(76.1589 1.87952e-07 0)
(76.1654 1.82081e-07 0)
(76.1715 1.75422e-07 0)
(76.1773 1.67711e-07 0)
(76.1828 1.58559e-07 0)
(76.1878 1.48914e-07 0)
(76.1924 1.37773e-07 0)
(76.1964 1.2634e-07 0)
(76.1999 1.13794e-07 0)
(76.2028 9.96226e-08 0)
(76.205 8.6465e-08 0)
(76.2066 7.30476e-08 0)
(76.2074 3.81694e-08 0)
(76.2075 1.28146e-08 0)
(76.2068 3.20997e-09 0)
(76.2052 -1.67174e-08 0)
(76.2028 -3.11193e-08 0)
(76.1995 -4.54211e-08 0)
(76.1954 -5.96628e-08 0)
(76.1906 -7.38939e-08 0)
(76.1849 -8.78287e-08 0)
(76.1785 -1.01555e-07 0)
(76.1714 -1.14546e-07 0)
(76.1636 -1.269e-07 0)
(76.1551 -1.3818e-07 0)
(76.146 -1.48576e-07 0)
(76.1362 -1.57704e-07 0)
(76.126 -1.65699e-07 0)
(76.1152 -1.72581e-07 0)
(76.1041 -1.7816e-07 0)
(76.0925 -1.82655e-07 0)
(76.0806 -1.85845e-07 0)
(76.0685 -1.88094e-07 0)
(76.0562 -1.88824e-07 0)
(76.0438 -1.88811e-07 0)
(76.0313 -1.87319e-07 0)
(76.0188 -1.84592e-07 0)
(76.0063 -1.8212e-07 0)
(75.994 -1.76727e-07 0)
(75.9819 -1.72518e-07 0)
(75.9699 -1.65299e-07 0)
(75.9582 -1.58754e-07 0)
(75.9468 -1.4753e-07 0)
(75.9358 -1.40972e-07 0)
(75.9251 -1.32979e-07 0)
(75.9148 -1.24369e-07 0)
(75.9049 -1.13305e-07 0)
(75.8954 -1.06112e-07 0)
(75.8864 -9.16091e-08 0)
(75.8778 -8.36524e-08 0)
(75.8697 -7.01997e-08 0)
(75.8621 -5.60212e-08 0)
(75.8549 -5.66161e-08 0)
(75.8482 -3.55293e-08 0)
(75.8419 -1.47287e-08 0)
(75.8361 -1.42849e-08 0)
(75.8307 1.30138e-07 0)
(75.8258 6.30296e-07 0)
(75.8212 2.95008e-06 0)
(75.8171 1.39506e-05 0)
(75.8133 6.76524e-05 0)
(75.8096 0.000325964 0)
(75.8044 0.00156811 0)
(75.7915 0.00751825 0)
(75.7423 0.0349961 0)
(75.5278 0.157748 0)
(74.8297 0.714422 0)
(69.6079 2.61449 0)
(76.1986 3.58252e-05 0)
(76.1949 2.97726e-05 0)
(76.1905 1.93168e-05 0)
(76.1861 1.67663e-05 0)
(76.1816 1.45395e-05 0)
(76.1768 1.23055e-05 0)
(76.1716 1.05216e-05 0)
(76.1661 9.09017e-06 0)
(76.1601 7.90228e-06 0)
(76.1536 6.90432e-06 0)
(76.1466 6.05859e-06 0)
(76.1391 5.3368e-06 0)
(76.1309 4.71572e-06 0)
(76.1222 4.17905e-06 0)
(76.1128 3.71255e-06 0)
(76.1028 3.30535e-06 0)
(76.092 2.94772e-06 0)
(76.0807 2.62591e-06 0)
(76.0687 2.38035e-06 0)
(76.056 2.11298e-06 0)
(76.0428 1.89932e-06 0)
(76.029 1.71368e-06 0)
(76.0147 1.54673e-06 0)
(75.9999 1.39725e-06 0)
(75.9847 1.26454e-06 0)
(75.9693 1.14654e-06 0)
(75.9536 1.04128e-06 0)
(75.9379 9.47588e-07 0)
(75.9221 8.6369e-07 0)
(75.9065 7.8894e-07 0)
(75.8911 7.2211e-07 0)
(75.8761 6.62372e-07 0)
(75.8616 6.08609e-07 0)
(75.8476 5.5999e-07 0)
(75.8344 5.16115e-07 0)
(75.8221 4.76721e-07 0)
(75.8107 4.40976e-07 0)
(75.8003 4.08676e-07 0)
(75.7911 3.79478e-07 0)
(75.783 3.52815e-07 0)
(75.7762 3.28246e-07 0)
(75.7707 3.05598e-07 0)
(75.7665 2.84678e-07 0)
(75.7637 2.65096e-07 0)
(75.7622 2.45135e-07 0)
(75.7619 2.11989e-07 0)
(75.7628 2.40098e-07 0)
(75.7647 1.96261e-07 0)
(75.7679 1.8309e-07 0)
(75.7721 1.74488e-07 0)
(75.7774 1.46952e-07 0)
(75.7835 1.41859e-07 0)
(75.7905 1.27153e-07 0)
(75.7981 1.12444e-07 0)
(75.8063 9.62893e-08 0)
(75.8149 7.93214e-08 0)
(75.8238 5.89584e-08 0)
(75.833 3.74458e-08 0)
(75.8422 1.25451e-08 0)
(75.8515 -1.55249e-08 0)
(75.8608 -4.65378e-08 0)
(75.8698 -8.09933e-08 0)
(75.8787 -1.19591e-07 0)
(75.8873 -1.60755e-07 0)
(75.8955 -2.0412e-07 0)
(75.9033 -2.48942e-07 0)
(75.9108 -2.94746e-07 0)
(75.9178 -3.39662e-07 0)
(75.9244 -3.82892e-07 0)
(75.9305 -4.23086e-07 0)
(75.9362 -4.59024e-07 0)
(75.9415 -4.89554e-07 0)
(75.9464 -5.13686e-07 0)
(75.9509 -5.30768e-07 0)
(75.955 -5.40508e-07 0)
(75.9588 -5.42894e-07 0)
(75.9622 -5.38125e-07 0)
(75.9654 -5.26651e-07 0)
(75.9683 -5.09324e-07 0)
(75.9709 -4.86915e-07 0)
(75.9734 -4.60439e-07 0)
(75.9756 -4.3098e-07 0)
(75.9778 -3.99607e-07 0)
(75.9797 -3.6734e-07 0)
(75.9816 -3.35074e-07 0)
(75.9833 -3.03585e-07 0)
(75.985 -2.73501e-07 0)
(75.9866 -2.45283e-07 0)
(75.9881 -2.19267e-07 0)
(75.9896 -1.97755e-07 0)
(75.9912 -1.75796e-07 0)
(75.9927 -1.54165e-07 0)
(75.9941 -1.37235e-07 0)
(75.9955 -1.24891e-07 0)
(75.9969 -1.11595e-07 0)
(75.9984 -9.77683e-08 0)
(76 -8.46259e-08 0)
(76.0016 -7.40935e-08 0)
(76.0032 -6.72335e-08 0)
(76.0049 -6.3743e-08 0)
(76.0067 -6.26312e-08 0)
(76.0086 -6.28405e-08 0)
(76.0106 -6.35588e-08 0)
(76.0128 -6.4283e-08 0)
(76.015 -6.47476e-08 0)
(76.0174 -6.4844e-08 0)
(76.02 -6.45487e-08 0)
(76.0228 -6.38864e-08 0)
(76.0257 -6.28947e-08 0)
(76.0288 -6.16267e-08 0)
(76.0322 -6.01342e-08 0)
(76.0358 -5.84352e-08 0)
(76.0396 -5.65435e-08 0)
(76.0436 -5.44662e-08 0)
(76.0479 -5.22456e-08 0)
(76.0525 -4.99185e-08 0)
(76.0573 -4.75319e-08 0)
(76.0624 -4.51249e-08 0)
(76.0677 -4.26965e-08 0)
(76.0733 -4.02659e-08 0)
(76.0791 -3.78574e-08 0)
(76.0851 -3.54971e-08 0)
(76.0913 -3.32406e-08 0)
(76.0978 -3.11211e-08 0)
(76.1044 -2.91676e-08 0)
(76.1111 -2.73914e-08 0)
(76.1179 -2.58154e-08 0)
(76.1248 -2.45058e-08 0)
(76.1318 -2.34658e-08 0)
(76.1387 -2.26899e-08 0)
(76.1456 -2.21754e-08 0)
(76.1523 -2.19976e-08 0)
(76.1589 -2.21559e-08 0)
(76.1654 -2.25848e-08 0)
(76.1715 -2.33391e-08 0)
(76.1773 -2.43999e-08 0)
(76.1828 -2.60794e-08 0)
(76.1878 -2.75567e-08 0)
(76.1924 -2.97709e-08 0)
(76.1964 -3.07438e-08 0)
(76.1999 -3.17957e-08 0)
(76.2028 -3.52786e-08 0)
(76.205 -4.04608e-08 0)
(76.2066 -3.00447e-08 0)
(76.2074 -5.28096e-08 0)
(76.2075 -5.69229e-08 0)
(76.2068 -2.45001e-08 0)
(76.2052 -6.36093e-08 0)
(76.2028 -6.30222e-08 0)
(76.1995 -6.78904e-08 0)
(76.1954 -7.36416e-08 0)
(76.1906 -7.97763e-08 0)
(76.1849 -8.53632e-08 0)
(76.1785 -9.14163e-08 0)
(76.1714 -9.66851e-08 0)
(76.1636 -1.02318e-07 0)
(76.1551 -1.07137e-07 0)
(76.146 -1.12147e-07 0)
(76.1362 -1.16419e-07 0)
(76.126 -1.20408e-07 0)
(76.1152 -1.24084e-07 0)
(76.1041 -1.2736e-07 0)
(76.0925 -1.3002e-07 0)
(76.0806 -1.3282e-07 0)
(76.0685 -1.34599e-07 0)
(76.0562 -1.36605e-07 0)
(76.0438 -1.37373e-07 0)
(76.0313 -1.38718e-07 0)
(76.0188 -1.3816e-07 0)
(76.0063 -1.3986e-07 0)
(75.994 -1.37896e-07 0)
(75.9819 -1.3823e-07 0)
(75.9699 -1.37463e-07 0)
(75.9582 -1.35527e-07 0)
(75.9468 -1.32907e-07 0)
(75.9358 -1.3342e-07 0)
(75.9251 -1.31132e-07 0)
(75.9148 -1.28236e-07 0)
(75.9049 -1.24504e-07 0)
(75.8954 -1.24556e-07 0)
(75.8864 -1.18397e-07 0)
(75.8778 -1.20556e-07 0)
(75.8697 -1.18142e-07 0)
(75.8621 -1.05786e-07 0)
(75.8549 -1.20937e-07 0)
(75.8482 -1.03387e-07 0)
(75.8419 -8.20994e-08 0)
(75.8361 -7.09407e-08 0)
(75.8307 1.23095e-07 0)
(75.8258 8.88612e-07 0)
(75.8212 4.74492e-06 0)
(75.8171 2.32167e-05 0)
(75.8134 0.000112282 0)
(75.8099 0.000540982 0)
(75.8062 0.00260171 0)
(75.7996 0.0124563 0)
(75.7784 0.058429 0)
(75.6851 0.264561 0)
(75.3811 1.16434 0)
(72.3102 4.19765 0)
(76.1986 -3.58252e-05 0)
(76.1949 -2.97726e-05 0)
(76.1905 -1.93168e-05 0)
(76.1861 -1.67663e-05 0)
(76.1816 -1.45395e-05 0)
(76.1768 -1.23055e-05 0)
(76.1716 -1.05216e-05 0)
(76.1661 -9.09017e-06 0)
(76.1601 -7.90228e-06 0)
(76.1536 -6.90432e-06 0)
(76.1466 -6.05859e-06 0)
(76.1391 -5.3368e-06 0)
(76.1309 -4.71572e-06 0)
(76.1222 -4.17905e-06 0)
(76.1128 -3.71255e-06 0)
(76.1028 -3.30535e-06 0)
(76.092 -2.94772e-06 0)
(76.0807 -2.62591e-06 0)
(76.0687 -2.38035e-06 0)
(76.056 -2.11298e-06 0)
(76.0428 -1.89932e-06 0)
(76.029 -1.71368e-06 0)
(76.0147 -1.54673e-06 0)
(75.9999 -1.39724e-06 0)
(75.9847 -1.26454e-06 0)
(75.9693 -1.14654e-06 0)
(75.9536 -1.04128e-06 0)
(75.9379 -9.47588e-07 0)
(75.9221 -8.6369e-07 0)
(75.9065 -7.8894e-07 0)
(75.8911 -7.22109e-07 0)
(75.8761 -6.62372e-07 0)
(75.8616 -6.08609e-07 0)
(75.8476 -5.59989e-07 0)
(75.8344 -5.16115e-07 0)
(75.8221 -4.76721e-07 0)
(75.8107 -4.40976e-07 0)
(75.8003 -4.08675e-07 0)
(75.7911 -3.79479e-07 0)
(75.783 -3.52815e-07 0)
(75.7762 -3.28247e-07 0)
(75.7707 -3.05598e-07 0)
(75.7665 -2.84677e-07 0)
(75.7637 -2.65095e-07 0)
(75.7622 -2.45134e-07 0)
(75.7619 -2.11988e-07 0)
(75.7628 -2.40096e-07 0)
(75.7647 -1.96261e-07 0)
(75.7679 -1.8309e-07 0)
(75.7721 -1.74489e-07 0)
(75.7774 -1.46952e-07 0)
(75.7835 -1.41859e-07 0)
(75.7905 -1.27152e-07 0)
(75.7981 -1.12444e-07 0)
(75.8063 -9.62898e-08 0)
(75.8149 -7.93211e-08 0)
(75.8238 -5.89579e-08 0)
(75.833 -3.74453e-08 0)
(75.8422 -1.2545e-08 0)
(75.8515 1.55257e-08 0)
(75.8608 4.65369e-08 0)
(75.8698 8.09917e-08 0)
(75.8787 1.19591e-07 0)
(75.8873 1.60753e-07 0)
(75.8955 2.04118e-07 0)
(75.9033 2.48943e-07 0)
(75.9108 2.94746e-07 0)
(75.9178 3.39662e-07 0)
(75.9244 3.82891e-07 0)
(75.9305 4.23087e-07 0)
(75.9362 4.59025e-07 0)
(75.9415 4.89554e-07 0)
(75.9464 5.13686e-07 0)
(75.9509 5.30768e-07 0)
(75.955 5.40508e-07 0)
(75.9588 5.42894e-07 0)
(75.9622 5.38126e-07 0)
(75.9654 5.26651e-07 0)
(75.9683 5.09324e-07 0)
(75.9709 4.86915e-07 0)
(75.9734 4.60439e-07 0)
(75.9756 4.3098e-07 0)
(75.9778 3.99607e-07 0)
(75.9797 3.67339e-07 0)
(75.9816 3.35073e-07 0)
(75.9833 3.03585e-07 0)
(75.985 2.735e-07 0)
(75.9866 2.45282e-07 0)
(75.9881 2.19267e-07 0)
(75.9896 1.97755e-07 0)
(75.9912 1.75796e-07 0)
(75.9927 1.54164e-07 0)
(75.9941 1.37235e-07 0)
(75.9955 1.24892e-07 0)
(75.9969 1.11595e-07 0)
(75.9984 9.77691e-08 0)
(76 8.46254e-08 0)
(76.0016 7.40938e-08 0)
(76.0032 6.72335e-08 0)
(76.0049 6.37432e-08 0)
(76.0067 6.26326e-08 0)
(76.0086 6.28403e-08 0)
(76.0106 6.35597e-08 0)
(76.0128 6.42839e-08 0)
(76.015 6.4748e-08 0)
(76.0174 6.48446e-08 0)
(76.02 6.455e-08 0)
(76.0228 6.38874e-08 0)
(76.0257 6.28951e-08 0)
(76.0288 6.16271e-08 0)
(76.0322 6.01356e-08 0)
(76.0358 5.84362e-08 0)
(76.0396 5.65448e-08 0)
(76.0436 5.44667e-08 0)
(76.0479 5.22455e-08 0)
(76.0525 4.99185e-08 0)
(76.0573 4.75307e-08 0)
(76.0624 4.51242e-08 0)
(76.0677 4.26962e-08 0)
(76.0733 4.02659e-08 0)
(76.0791 3.78568e-08 0)
(76.0851 3.54972e-08 0)
(76.0913 3.324e-08 0)
(76.0978 3.11201e-08 0)
(76.1044 2.91657e-08 0)
(76.1111 2.73916e-08 0)
(76.1179 2.58141e-08 0)
(76.1248 2.4507e-08 0)
(76.1318 2.34669e-08 0)
(76.1387 2.26901e-08 0)
(76.1456 2.21744e-08 0)
(76.1523 2.20001e-08 0)
(76.1589 2.21505e-08 0)
(76.1654 2.26647e-08 0)
(76.1715 2.32613e-08 0)
(76.1773 2.44701e-08 0)
(76.1828 2.57485e-08 0)
(76.1878 2.82723e-08 0)
(76.1924 2.9697e-08 0)
(76.1964 3.30782e-08 0)
(76.1999 3.58193e-08 0)
(76.2028 3.77508e-08 0)
(76.205 3.64471e-08 0)
(76.2066 4.66771e-08 0)
(76.2074 1.89995e-08 0)
(76.2075 2.31895e-08 0)
(76.2068 9.26321e-08 0)
(76.2052 4.10924e-08 0)
(76.2028 6.00777e-08 0)
(76.1995 6.77613e-08 0)
(76.1954 7.38778e-08 0)
(76.1906 7.94994e-08 0)
(76.1849 8.56884e-08 0)
(76.1785 9.10516e-08 0)
(76.1714 9.70452e-08 0)
(76.1636 1.01981e-07 0)
(76.1551 1.0744e-07 0)
(76.146 1.11804e-07 0)
(76.1362 1.16492e-07 0)
(76.126 1.20431e-07 0)
(76.1152 1.24152e-07 0)
(76.1041 1.27246e-07 0)
(76.0925 1.30494e-07 0)
(76.0806 1.32441e-07 0)
(76.0685 1.34931e-07 0)
(76.0562 1.35913e-07 0)
(76.0438 1.37963e-07 0)
(76.0313 1.38036e-07 0)
(76.0188 1.39528e-07 0)
(76.0063 1.37897e-07 0)
(75.994 1.39311e-07 0)
(75.9819 1.37006e-07 0)
(75.9699 1.36647e-07 0)
(75.9582 1.37517e-07 0)
(75.9468 1.36553e-07 0)
(75.9358 1.30523e-07 0)
(75.9251 1.30218e-07 0)
(75.9148 1.27912e-07 0)
(75.9049 1.26207e-07 0)
(75.8954 1.23591e-07 0)
(75.8864 1.22621e-07 0)
(75.8778 1.18175e-07 0)
(75.8697 1.13353e-07 0)
(75.8621 1.18142e-07 0)
(75.8549 1.03833e-07 0)
(75.8482 1.11895e-07 0)
(75.8419 1.18477e-07 0)
(75.8361 1.42505e-07 0)
(75.8307 3.12395e-07 0)
(75.8258 1.12602e-06 0)
(75.8212 4.98046e-06 0)
(75.8171 2.35213e-05 0)
(75.8135 0.000112597 0)
(75.8104 0.000542081 0)
(75.8083 0.00261302 0)
(75.8096 0.0126174 0)
(75.8242 0.060486 0)
(75.8891 0.281915 0)
(76.1321 1.31565 0)
(76.9892 4.72279 0)
(76.1986 -0.000118309 0)
(76.195 -0.000105094 0)
(76.1905 -9.71745e-05 0)
(76.1861 -0.000102889 0)
(76.1816 -0.00010568 0)
(76.1768 -0.000106964 0)
(76.1717 -0.000108048 0)
(76.1661 -0.000108977 0)
(76.1601 -0.000109746 0)
(76.1536 -0.00011039 0)
(76.1466 -0.000110937 0)