/*--------------------------------*- C++ -*----------------------------------*\
| =========                 |                                                 |
| \\      /  F ield         | OpenFOAM: The Open Source CFD Toolbox           |
|  \\    /   O peration     | Version:  3.0.x                                 |
|   \\  /    A nd           | Web:      www.OpenFOAM.org                      |
|    \\/     M anipulation  |                                                 |
\*---------------------------------------------------------------------------*/
FoamFile
{
    version     2.0;
    format      ascii;
    class       surfaceScalarField;
    location    "0.07005";
    object      phi;
}
// * * * * * * * * * * * * * * * * * * * * * * * * * * * * * * * * * * * * * //

dimensions      [1 0 -1 0 0 0 0];

internalField   nonuniform List<scalar> 
53800
(
1.9748
0.00102707
1.97401
0.000695619
1.97321
0.000686913
1.9724
0.000686642
1.97157
0.000680463
1.97071
0.000667336
1.96984
0.000643911
1.96896
0.000607074
1.96808
0.000555565
1.9672
0.000490768
1.96633
0.000416685
1.96546
0.000339051
1.96458
0.000263945
1.9637
0.000196459
1.96279
0.000139836
1.96186
9.52695e-05
1.9609
6.22306e-05
1.9599
3.90753e-05
1.95889
2.36813e-05
1.95788
1.39405e-05
1.95688
8.05232e-06
1.95592
4.63513e-06
1.95503
2.71601e-06
1.95424
1.65783e-06
1.95358
1.06949e-06
1.95306
7.24984e-07
1.95271
5.01299e-07
1.95254
3.3592e-07
1.95255
2.29949e-07
1.95274
1.3211e-07
1.95308
-1.13869e-08
1.95359
-1.01762e-07
1.95425
-1.8e-07
1.95503
-2.34511e-07
1.9559
-2.67846e-07
1.95681
-2.84457e-07
1.95775
-2.75286e-07
1.95868
-2.47095e-07
1.95956
-2.0361e-07
1.96038
-1.45566e-07
1.96111
-7.62375e-08
1.96176
-7.31234e-10
1.96229
7.48041e-08
1.96273
1.5182e-07
1.96306
2.2482e-07
1.96331
2.88666e-07
1.96347
3.4667e-07
1.96356
3.95525e-07
1.9636
4.33927e-07
1.96359
4.57134e-07
1.96356
4.77572e-07
1.9635
4.98912e-07
1.96343
5.07105e-07
1.96335
5.11591e-07
1.96327
5.12351e-07
1.96319
5.08786e-07
1.96311
5.04391e-07
1.96304
4.99251e-07
1.96298
4.92946e-07
1.96293
4.86565e-07
1.96288
4.80817e-07
1.96284
4.75651e-07
1.9628
4.7034e-07
1.96277
4.66061e-07
1.96275
4.62616e-07
1.96272
4.59124e-07
1.96271
4.56414e-07
1.96269
4.54154e-07
1.96268
4.52092e-07
1.96267
4.50276e-07
1.96266
4.48799e-07
1.96265
4.47628e-07
1.96265
4.46344e-07
1.96264
4.45445e-07
1.96264
4.44757e-07
1.96264
4.43924e-07
1.96264
4.43815e-07
1.96264
4.42706e-07
1.96264
4.42309e-07
1.96264
4.42051e-07
1.96264
4.41712e-07
1.96264
4.41618e-07
1.96265
4.4152e-07
1.96265
4.41491e-07
1.96265
4.41592e-07
1.96266
4.41651e-07
1.96266
4.41858e-07
1.96266
4.42054e-07
1.96266
4.42298e-07
1.96266
4.42655e-07
1.96267
4.42986e-07
1.96267
4.43357e-07
1.96267
4.43732e-07
1.96267
4.44139e-07
1.96267
4.44325e-07
1.96266
4.44699e-07
1.96266
4.45001e-07
1.96266
4.45329e-07
1.96266
4.45565e-07
1.96265
4.45907e-07
1.96265
4.46234e-07
1.96265
4.46038e-07
1.96264
4.46427e-07
1.96264
4.46555e-07
1.96263
4.46624e-07
1.96263
4.46678e-07
1.96262
4.46711e-07
1.96261
4.46686e-07
1.96261
4.46602e-07
1.9626
4.46555e-07
1.9626
4.4642e-07
1.96259
4.46249e-07
1.96259
4.46125e-07
1.96258
4.45943e-07
1.96257
4.45743e-07
1.96257
4.45554e-07
1.96256
4.45347e-07
1.96256
4.45118e-07
1.96255
4.44907e-07
1.96255
4.44703e-07
1.96255
4.44477e-07
1.96254
4.44255e-07
1.96254
4.44081e-07
1.96253
4.43877e-07
1.96253
4.43793e-07
1.96253
4.4336e-07
1.96253
4.43331e-07
1.96252
4.43266e-07
1.96252
4.4296e-07
1.96252
4.42924e-07
1.96252
4.42727e-07
1.96251
4.42727e-07
1.96251
4.42604e-07
1.96251
4.42469e-07
1.96251
4.42538e-07
1.96251
4.42331e-07
1.9625
4.42309e-07
1.9625
4.42029e-07
1.9625
4.42044e-07
1.9625
4.42098e-07
1.9625
4.41938e-07
1.9625
4.41793e-07
1.9625
4.41938e-07
1.9625
4.42018e-07
1.9625
4.41836e-07
1.9625
4.41963e-07
1.9625
4.41985e-07
1.9625
4.41996e-07
1.96249
4.42076e-07
1.96249
4.422e-07
1.96249
4.4232e-07
1.96249
4.42418e-07
1.96249
4.42935e-07
1.96248
4.43189e-07
1.96248
4.4423e-07
1.96247
4.4487e-07
1.96246
4.46322e-07
1.96245
4.48046e-07
1.96243
4.50342e-07
1.9624
4.53401e-07
1.96237
4.57359e-07
1.96233
4.62496e-07
1.96227
4.69074e-07
1.96219
4.77379e-07
1.96208
4.87675e-07
1.96195
5.00302e-07
1.96179
5.1548e-07
1.96158
5.33462e-07
1.96133
5.54359e-07
1.96102
5.78199e-07
1.96064
6.04774e-07
1.9602
6.33725e-07
1.95968
6.64422e-07
1.95907
6.95884e-07
1.95839
7.26806e-07
1.95762
7.55612e-07
1.95677
7.80368e-07
1.95585
7.98944e-07
1.95488
8.09065e-07
1.95387
8.08468e-07
1.95283
7.95138e-07
1.95181
7.67326e-07
1.95081
7.23841e-07
1.94989
6.64222e-07
1.94906
5.88814e-07
1.94835
4.98923e-07
1.9478
3.96962e-07
1.94742
2.86851e-07
1.94723
1.76762e-07
1.94723
1.20413e-07
1.94742
2.00293e-07
1.94777
9.00316e-07
1.9483
4.9796e-06
1.94896
2.56992e-05
1.94965
0.000128462
1.94991
0.000634965
1.94777
0.0030908
1.93398
0.0147552
1.86085
0.0740935
0.256521
1.60524
2.26968
0.000991425
2.26958
0.000683577
2.26947
0.000667283
2.26934
0.000669689
2.26918
0.00066403
2.26898
0.000651312
2.26874
0.000628523
2.26844
0.00059252
2.26807
0.000542079
2.26764
0.000478606
2.26712
0.000406073
2.26652
0.000330136
2.26583
0.000256764
2.26504
0.000190923
2.26417
0.000135759
2.26321
9.24003e-05
2.26217
6.02993e-05
2.26108
3.78297e-05
2.25994
2.29089e-05
2.25879
1.34779e-05
2.25765
7.78254e-06
2.25656
4.48014e-06
2.25554
2.62677e-06
2.25464
1.60525e-06
2.25387
1.03721e-06
2.25327
7.04276e-07
2.25287
4.87726e-07
2.25268
3.27418e-07
2.25269
2.24147e-07
2.2529
1.30021e-07
2.2533
-1.02882e-08
2.25389
-9.79926e-08
2.25464
-1.73943e-07
2.25554
-2.26992e-07
2.25653
-2.59359e-07
2.25758
-2.7538e-07
2.25866
-2.66387e-07
2.25972
-2.3891e-07
2.26073
-1.96513e-07
2.26167
-1.39971e-07
2.26252
-7.25195e-08
2.26325
9.74978e-10
2.26387
7.4484e-08
2.26437
1.49379e-07
2.26475
2.20367e-07
2.26503
2.82489e-07
2.26522
3.38856e-07
2.26533
3.86339e-07
2.26537
4.23635e-07
2.26536
4.46253e-07
2.26532
4.65905e-07
2.26525
4.86794e-07
2.26517
4.94711e-07
2.26508
4.9904e-07
2.26499
4.99782e-07
2.26489
4.96355e-07
2.26481
4.92048e-07
2.26473
4.87067e-07
2.26466
4.80952e-07
2.26459
4.74753e-07
2.26454
4.69157e-07
2.26449
4.64166e-07
2.26445
4.59007e-07
2.26442
4.54842e-07
2.26439
4.51502e-07
2.26436
4.48115e-07
2.26434
4.45478e-07
2.26432
4.43295e-07
2.26431
4.41298e-07
2.2643
4.39519e-07
2.26429
4.38089e-07
2.26428
4.36958e-07
2.26427
4.35717e-07
2.26427
4.34829e-07
2.26426
4.34167e-07
2.26426
4.33367e-07
2.26426
4.33247e-07
2.26426
4.32177e-07
2.26426
4.31795e-07
2.26426
4.31533e-07
2.26426
4.31202e-07
2.26427
4.31119e-07
2.26427
4.31031e-07
2.26427
4.30991e-07
2.26428
4.31108e-07
2.26428
4.31144e-07
2.26428
4.31337e-07
2.26428
4.31537e-07
2.26429
4.31777e-07
2.26429
4.32108e-07
2.26429
4.32447e-07
2.26429
4.3281e-07
2.26429
4.33167e-07
2.26429
4.3356e-07
2.26429
4.33745e-07
2.26429
4.34105e-07
2.26428
4.34411e-07
2.26428
4.34717e-07
2.26428
4.34949e-07
2.26427
4.35273e-07
2.26427
4.35597e-07
2.26427
4.35411e-07
2.26426
4.35786e-07
2.26425
4.35914e-07
2.26425
4.35968e-07
2.26424
4.3603e-07
2.26424
4.36055e-07
2.26423
4.36037e-07
2.26422
4.35957e-07
2.26422
4.35906e-07
2.26421
4.35775e-07
2.2642
4.35615e-07
2.26419
4.35492e-07
2.26419
4.35321e-07
2.26418
4.35113e-07
2.26418
4.34935e-07
2.26417
4.34728e-07
2.26416
4.34509e-07
2.26416
4.34306e-07
2.26415
4.34102e-07
2.26415
4.3388e-07
2.26414
4.33658e-07
2.26414
4.33487e-07
2.26413
4.33291e-07
2.26413
4.33211e-07
2.26413
4.32792e-07
2.26412
4.32756e-07
2.26412
4.3269e-07
2.26412
4.32392e-07
2.26411
4.32363e-07
2.26411
4.3217e-07
2.26411
4.32163e-07
2.26411
4.32039e-07
2.2641
4.31915e-07
2.2641
4.31985e-07
2.2641
4.31777e-07
2.2641
4.31744e-07
2.2641
4.3149e-07
2.26409
4.31497e-07
2.26409
4.31548e-07
2.26409
4.31392e-07
2.26409
4.31242e-07
2.26409
4.31384e-07
2.26409
4.31457e-07
2.26409
4.31282e-07
2.26409
4.31402e-07
2.26409
4.31413e-07
2.26409
4.31432e-07
2.26408
4.31501e-07
2.26408
4.31628e-07
2.26408
4.31737e-07
2.26408
4.31839e-07
2.26408
4.32319e-07
2.26407
4.32596e-07
2.26407
4.336e-07
2.26406
4.34222e-07
2.26405
4.35633e-07
2.26403
4.37332e-07
2.26401
4.39577e-07
2.26398
4.4256e-07
2.26394
4.46416e-07
2.26389
4.5143e-07
2.26382
4.57847e-07
2.26373
4.6596e-07
2.26361
4.76e-07
2.26346
4.88315e-07
2.26327
5.03125e-07
2.26303
5.20671e-07
2.26274
5.41051e-07
2.26238
5.64287e-07
2.26195
5.90204e-07
2.26144
6.18427e-07
2.26084
6.4835e-07
2.26015
6.78992e-07
2.25936
7.09111e-07
2.25848
7.3716e-07
2.25751
7.61254e-07
2.25646
7.79291e-07
2.25534
7.89092e-07
2.25417
7.88426e-07
2.25298
7.75366e-07
2.25181
7.48187e-07
2.25067
7.05746e-07
2.2496
6.47582e-07
2.24865
5.74059e-07
2.24784
4.86511e-07
2.24721
3.8747e-07
2.24677
2.8182e-07
2.24655
1.82805e-07
2.24655
1.68417e-07
2.24676
4.46587e-07
2.24716
2.12094e-06
2.24777
1.1036e-05
2.24853
5.57792e-05
2.24932
0.000277312
2.24962
0.00136908
2.24713
0.00666747
2.23118
0.0318187
2.1474
0.158976
0.540871
1.8641
2.60718
0.000950486
2.60706
0.000667929
2.60694
0.000643634
2.60679
0.000648371
2.60661
0.000643077
2.60638
0.000630712
2.60611
0.00060873
2.60576
0.000573987
2.60535
0.000525267
2.60485
0.000463915
2.60426
0.000393759
2.60356
0.000320263
2.60277
0.000249202
2.60186
0.000185394
2.60086
0.000131898
2.59975
8.98224e-05
2.59856
5.86504e-05
2.5973
3.6816e-05
2.596
2.2307e-05
2.59468
1.31298e-05
2.59337
7.58383e-06
2.59212
4.3658e-06
2.59095
2.55864e-06
2.58991
1.56214e-06
2.58903
1.00799e-06
2.58834
6.83434e-07
2.58788
4.72661e-07
2.58765
3.17064e-07
2.58768
2.16431e-07
2.58792
1.26263e-07
2.58837
-1.02082e-08
2.58905
-9.48785e-08
2.58992
-1.68155e-07
2.59094
-2.19479e-07
2.59208
-2.50726e-07
2.59329
-2.66042e-07
2.59452
-2.57274e-07
2.59574
-2.30641e-07
2.59691
-1.89531e-07
2.59799
-1.34769e-07
2.59896
-6.95254e-08
2.5998
1.6189e-09
2.60051
7.2705e-08
2.60109
1.45108e-07
2.60153
2.13731e-07
2.60185
2.73812e-07
2.60206
3.28248e-07
2.60219
3.74126e-07
2.60223
4.10128e-07
2.60223
4.32061e-07
2.60218
4.50829e-07
2.6021
4.71162e-07
2.60201
4.78762e-07
2.6019
4.82909e-07
2.60179
4.83637e-07
2.60169
4.80344e-07
2.60159
4.76157e-07
2.6015
4.71362e-07
2.60142
4.65468e-07
2.60134
4.59484e-07
2.60128
4.54078e-07
2.60123
4.49261e-07
2.60118
4.44299e-07
2.60114
4.40261e-07
2.60111
4.3703e-07
2.60108
4.33789e-07
2.60105
4.31221e-07
2.60103
4.29129e-07
2.60102
4.27204e-07
2.601
4.2548e-07
2.60099
4.24105e-07
2.60098
4.23021e-07
2.60098
4.2182e-07
2.60097
4.20954e-07
2.60097
4.20328e-07
2.60096
4.19561e-07
2.60096
4.19437e-07
2.60096
4.18411e-07
2.60096
4.18044e-07
2.60096
4.17782e-07
2.60097
4.17462e-07
2.60097
4.17396e-07
2.60097
4.17313e-07
2.60098
4.17265e-07
2.60098
4.17374e-07
2.60098
4.17429e-07
2.60099
4.17589e-07
2.60099
4.17793e-07
2.60099
4.18026e-07
2.60099
4.18346e-07
2.601
4.18673e-07
2.601
4.19033e-07
2.601
4.19379e-07
2.601
4.19746e-07
2.60099
4.19932e-07
2.60099
4.20292e-07
2.60099
4.20583e-07
2.60099
4.20867e-07
2.60098
4.21103e-07
2.60098
4.21423e-07
2.60097
4.21725e-07
2.60097
4.21562e-07
2.60096
4.21915e-07
2.60096
4.22035e-07
2.60095
4.22089e-07
2.60094
4.22144e-07
2.60093
4.22169e-07
2.60093
4.22147e-07
2.60092
4.22078e-07
2.60091
4.22027e-07
2.6009
4.21911e-07
2.60089
4.21765e-07
2.60089
4.21638e-07
2.60088
4.21467e-07
2.60087
4.21271e-07
2.60086
4.21089e-07
2.60086
4.209e-07
2.60085
4.207e-07
2.60084
4.20492e-07
2.60084
4.20288e-07
2.60083
4.20077e-07
2.60083
4.1987e-07
2.60082
4.19695e-07
2.60082
4.19514e-07
2.60081
4.1943e-07
2.60081
4.1903e-07
2.6008
4.18997e-07
2.6008
4.18931e-07
2.6008
4.18648e-07
2.60079
4.18611e-07
2.60079
4.18433e-07
2.60079
4.18426e-07
2.60078
4.18306e-07
2.60078
4.18178e-07
2.60078
4.1824e-07
2.60078
4.18051e-07
2.60078
4.18004e-07
2.60077
4.17771e-07
2.60077
4.17782e-07
2.60077
4.17829e-07
2.60077
4.17665e-07
2.60077
4.17524e-07
2.60077
4.17662e-07
2.60077
4.17738e-07
2.60076
4.17578e-07
2.60076
4.17676e-07
2.60076
4.17695e-07
2.60076
4.17709e-07
2.60076
4.17775e-07
2.60076
4.17898e-07
2.60076
4.18e-07
2.60075
4.18102e-07
2.60075
4.18553e-07
2.60074
4.18844e-07
2.60074
4.19812e-07
2.60073
4.20412e-07
2.60072
4.21776e-07
2.6007
4.23424e-07
2.60067
4.25607e-07
2.60064
4.28499e-07
2.60059
4.32239e-07
2.60053
4.371e-07
2.60045
4.43335e-07
2.60035
4.51186e-07
2.60022
4.60936e-07
2.60004
4.72857e-07
2.59983
4.87224e-07
2.59955
5.04217e-07
2.59922
5.23967e-07
2.59881
5.46483e-07
2.59831
5.7157e-07
2.59773
5.9891e-07
2.59704
6.27868e-07
2.59624
6.57539e-07
2.59534
6.86672e-07
2.59432
7.13786e-07
2.59321
7.37076e-07
2.592
7.5448e-07
2.59071
7.63903e-07
2.58937
7.63168e-07
2.58801
7.50442e-07
2.58666
7.24045e-07
2.58535
6.8287e-07
2.58413
6.26475e-07
2.58303
5.5525e-07
2.5821
4.70507e-07
2.58137
3.74974e-07
2.58087
2.74587e-07
2.58061
1.88316e-07
2.58062
2.21593e-07
2.58086
7.24696e-07
2.58132
3.50308e-06
2.58202
1.78976e-05
2.5829
8.98634e-05
2.5838
0.000446004
2.58416
0.00220155
2.58135
0.0107305
2.56325
0.0511917
2.46788
0.255612
0.858735
2.15122
2.99486
0.000904643
2.99473
0.000649101
2.99459
0.000616862
2.99442
0.000623847
2.99421
0.000618997
2.99395
0.000607037
2.99363
0.00058597
2.99324
0.000552662
2.99276
0.000505904
2.99218
0.000446976
2.9915
0.000379542
2.99071
0.000308845
2.98979
0.000240441
2.98876
0.000178975
2.9876
0.000127404
2.98633
8.68143e-05
2.98496
5.67208e-05
2.98352
3.56263e-05
2.98202
2.15985e-05
2.9805
1.2719e-05
2.979
7.34884e-06
2.97756
4.23056e-06
2.97622
2.47827e-06
2.97502
1.51157e-06
2.97401
9.73978e-07
2.97322
6.59362e-07
2.97269
4.5538e-07
2.97243
3.05245e-07
2.97246
2.07714e-07
2.97273
1.21909e-07
2.97326
-1.00335e-08
2.97403
-9.12842e-08
2.97503
-1.61574e-07
2.97621
-2.10937e-07
2.97752
-2.40929e-07
2.97891
-2.55492e-07
2.98033
-2.46986e-07
2.98173
-2.21356e-07
2.98307
-1.81735e-07
2.98431
-1.29017e-07
2.98542
-6.63022e-08
2.98639
2.12822e-09
2.98721
7.0504e-08
2.98786
1.40037e-07
2.98837
2.0599e-07
2.98874
2.63739e-07
2.98899
3.16017e-07
2.98913
3.60076e-07
2.98918
3.9463e-07
2.98917
4.1577e-07
2.98912
4.33582e-07
2.98903
4.53256e-07
2.98892
4.60521e-07
2.9888
4.64464e-07
2.98868
4.65159e-07
2.98856
4.62023e-07
2.98844
4.57974e-07
2.98834
4.53376e-07
2.98824
4.47737e-07
2.98816
4.41996e-07
2.98809
4.36805e-07
2.98802
4.32174e-07
2.98797
4.27426e-07
2.98793
4.23537e-07
2.98789
4.20448e-07
2.98785
4.17353e-07
2.98783
4.14875e-07
2.9878
4.12867e-07
2.98778
4.11022e-07
2.98777
4.09382e-07
2.98776
4.08065e-07
2.98774
4.07021e-07
2.98774
4.05875e-07
2.98773
4.05023e-07
2.98773
4.04434e-07
2.98772
4.0371e-07
2.98772
4.03586e-07
2.98772
4.02601e-07
2.98772
4.02251e-07
2.98772
4.02e-07
2.98773
4.01684e-07
2.98773
4.01622e-07
2.98773
4.01553e-07
2.98774
4.01502e-07
2.98774
4.01611e-07
2.98774
4.01651e-07
2.98775
4.01804e-07
2.98775
4.02004e-07
2.98776
4.02237e-07
2.98776
4.02535e-07
2.98776
4.02859e-07
2.98776
4.03204e-07
2.98776
4.03536e-07
2.98776
4.03888e-07
2.98776
4.04074e-07
2.98776
4.04427e-07
2.98775
4.04707e-07
2.98775
4.04962e-07
2.98775
4.05194e-07
2.98774
4.055e-07
2.98773
4.05795e-07
2.98773
4.05638e-07
2.98772
4.05973e-07
2.98771
4.06104e-07
2.98771
4.06151e-07
2.9877
4.06202e-07
2.98769
4.06224e-07
2.98768
4.06206e-07
2.98767
4.06144e-07
2.98766
4.06089e-07
2.98765
4.05988e-07
2.98764
4.05849e-07
2.98763
4.05726e-07
2.98763
4.05555e-07
2.98762
4.05365e-07
2.98761
4.05198e-07
2.9876
4.05013e-07
2.98759
4.04812e-07
2.98759
4.0462e-07
2.98758
4.04438e-07
2.98757
4.04216e-07
2.98757
4.0403e-07
2.98756
4.03852e-07
2.98755
4.03681e-07
2.98755
4.03597e-07
2.98754
4.03219e-07
2.98754
4.03186e-07
2.98754
4.03117e-07
2.98753
4.02844e-07
2.98753
4.02812e-07
2.98752
4.02637e-07
2.98752
4.02637e-07
2.98752
4.02517e-07
2.98751
4.02404e-07
2.98751
4.02455e-07
2.98751
4.02259e-07
2.98751
4.02226e-07
2.9875
4.02008e-07
2.9875
4.02022e-07
2.9875
4.02059e-07
2.9875
4.01898e-07
2.9875
4.01775e-07
2.9875
4.01898e-07
2.98749
4.01975e-07
2.98749
4.01822e-07
2.98749
4.01902e-07
2.98749
4.0192e-07
2.98749
4.01938e-07
2.98749
4.02e-07
2.98749
4.02117e-07
2.98748
4.02226e-07
2.98748
4.02331e-07
2.98748
4.02742e-07
2.98747
4.03037e-07
2.98746
4.03954e-07
2.98745
4.04547e-07
2.98744
4.05867e-07
2.98742
4.0745e-07
2.98739
4.09553e-07
2.98735
4.12339e-07
2.9873
4.15952e-07
2.98723
4.2063e-07
2.98714
4.26633e-07
2.98702
4.342e-07
2.98686
4.43593e-07
2.98667
4.55075e-07
2.98642
4.68917e-07
2.9861
4.85274e-07
2.98572
5.04293e-07
2.98525
5.25983e-07
2.98468
5.50124e-07
2.984
5.76438e-07
2.98321
6.04297e-07
2.9823
6.32848e-07
2.98126
6.60857e-07
2.9801
6.86916e-07
2.97881
7.09286e-07
2.97742
7.25977e-07
2.97594
7.34981e-07
2.97441
7.34224e-07
2.97284
7.21895e-07
2.97129
6.96422e-07
2.96978
6.56721e-07
2.96838
6.02384e-07
2.96712
5.33808e-07
2.96606
4.52321e-07
2.96522
3.60822e-07
2.96464
2.66464e-07
2.96435
1.94737e-07
2.96435
2.82409e-07
2.96463
1.04214e-06
2.96516
5.08076e-06
2.96596
2.57293e-05
2.96697
0.000128767
2.96801
0.000638572
2.96842
0.0031522
2.96522
0.0153757
2.94456
0.0733142
2.83624
0.365386
1.21229
2.48406
3.44019
0.000853532
3.44004
0.000626401
3.43988
0.000586577
3.43968
0.000595638
3.43944
0.000591311
3.43914
0.000579817
3.43878
0.000559788
3.43832
0.00052811
3.43778
0.000483588
3.43712
0.00042743
3.43633
0.000363113
3.43542
0.000295629
3.43437
0.000230283
3.43318
0.000171518
3.43185
0.000122174
3.43039
8.33063e-05
3.42882
5.44659e-05
3.42716
3.42332e-05
3.42544
2.07673e-05
3.4237
1.22363e-05
3.42198
7.07255e-06
3.42032
4.07165e-06
3.41878
2.38407e-06
3.4174
1.45258e-06
3.41624
9.34549e-07
3.41534
6.31622e-07
3.41473
4.35573e-07
3.41443
2.91757e-07
3.41446
1.97868e-07
3.41478
1.16861e-07
3.41538
-9.80981e-09
3.41627
-8.71714e-08
3.41741
-1.54068e-07
3.41877
-2.01206e-07
3.42027
-2.29797e-07
3.42186
-2.4353e-07
3.4235
-2.35352e-07
3.4251
-2.10877e-07
3.42664
-1.72984e-07
3.42807
-1.22624e-07
3.42935
-6.27861e-08
3.43046
2.52112e-09
3.4314
6.78083e-08
3.43215
1.34087e-07
3.43274
1.96986e-07
3.43316
2.52092e-07
3.43344
3.01919e-07
3.4336
3.43907e-07
3.43367
3.76825e-07
3.43366
3.97078e-07
3.4336
4.13827e-07
3.4335
4.3273e-07
3.43337
4.39622e-07
3.43323
4.43335e-07
3.43309
4.4401e-07
3.43295
4.41039e-07
3.43282
4.3716e-07
3.4327
4.32783e-07
3.43259
4.27419e-07
3.43249
4.21946e-07
3.43241
4.16994e-07
3.43234
4.1259e-07
3.43228
4.08087e-07
3.43223
4.0436e-07
3.43218
4.01418e-07
3.43214
3.9849e-07
3.43211
3.96118e-07
3.43209
3.9421e-07
3.43206
3.92458e-07
3.43204
3.90901e-07
3.43203
3.89633e-07
3.43202
3.88645e-07
3.43201
3.87559e-07
3.432
3.86743e-07
3.432
3.86186e-07
3.43199
3.85506e-07
3.43199
3.85377e-07
3.43199
3.8444e-07
3.43199
3.84114e-07
3.43199
3.83872e-07
3.432
3.83565e-07
3.432
3.83507e-07
3.432
3.83452e-07
3.43201
3.83399e-07
3.43201
3.83499e-07
3.43202
3.83545e-07
3.43202
3.83674e-07
3.43203
3.8387e-07
3.43203
3.84109e-07
3.43203
3.8438e-07
3.43203
3.84696e-07
3.43204
3.85033e-07
3.43204
3.85347e-07
3.43203
3.85673e-07
3.43203
3.8586e-07
3.43203
3.86213e-07
3.43203
3.86462e-07
3.43202
3.86699e-07
3.43202
3.86932e-07
3.43201
3.87221e-07
3.43201
3.87503e-07
3.432
3.87361e-07
3.43199
3.87672e-07
3.43198
3.87794e-07
3.43197
3.87836e-07
3.43196
3.87894e-07
3.43195
3.87912e-07
3.43194
3.8789e-07
3.43193
3.87841e-07
3.43192
3.87785e-07
3.43191
3.87696e-07
3.4319
3.87561e-07
3.43189
3.87437e-07
3.43188
3.87279e-07
3.43187
3.87097e-07
3.43186
3.86935e-07
3.43185
3.86764e-07
3.43184
3.8657e-07
3.43183
3.86388e-07
3.43183
3.86213e-07
3.43182
3.86e-07
3.43181
3.8582e-07
3.43181
3.85653e-07
3.4318
3.85493e-07
3.43179
3.85413e-07
3.43179
3.85053e-07
3.43178
3.85022e-07
3.43178
3.84956e-07
3.43177
3.84704e-07
3.43177
3.84658e-07
3.43176
3.84502e-07
3.43176
3.84498e-07
3.43176
3.84378e-07
3.43175
3.84276e-07
3.43175
3.84318e-07
3.43175
3.84134e-07
3.43174
3.841e-07
3.43174
3.83903e-07
3.43174
3.83912e-07
3.43174
3.83945e-07
3.43174
3.83794e-07
3.43173
3.83681e-07
3.43173
3.8379e-07
3.43173
3.83867e-07
3.43173
3.83721e-07
3.43173
3.83792e-07
3.43173
3.8381e-07
3.43172
3.83829e-07
3.43172
3.83885e-07
3.43172
3.84e-07
3.43172
3.841e-07
3.43171
3.84214e-07
3.43171
3.84585e-07
3.4317
3.84885e-07
3.43169
3.85749e-07
3.43168
3.86326e-07
3.43166
3.87587e-07
3.43164
3.89096e-07
3.43161
3.91105e-07
3.43156
3.93778e-07
3.4315
3.97233e-07
3.43142
4.01707e-07
3.43132
4.07443e-07
3.43118
4.14684e-07
3.43101
4.23659e-07
3.43078
4.34637e-07
3.43049
4.47864e-07
3.43013
4.63495e-07
3.42969
4.81672e-07
3.42915
5.02387e-07
3.4285
5.25451e-07
3.42772
5.50575e-07
3.42681
5.77187e-07
3.42576
6.04441e-07
3.42457
6.3118e-07
3.42323
6.56026e-07
3.42176
6.77352e-07
3.42016
6.93257e-07
3.41846
7.01793e-07
3.4167
7.01006e-07
3.4149
6.89171e-07
3.41311
6.64784e-07
3.41139
6.268e-07
3.40978
5.74861e-07
3.40833
5.09346e-07
3.4071
4.31593e-07
3.40614
3.44735e-07
3.40548
2.57272e-07
3.40514
2.02093e-07
3.40515
3.51632e-07
3.40546
1.40294e-06
3.40608
6.87426e-06
3.407
3.46312e-05
3.40815
0.00017299
3.40935
0.000857492
3.40984
0.00423338
3.4062
0.0206645
3.38272
0.0984789
3.26041
0.489368
1.6041
2.87019
3.95174
0.000796695
3.95157
0.000599024
3.95138
0.00055233
3.95116
0.000563205
3.95088
0.000559478
3.95054
0.000548531
3.95011
0.000529678
3.9496
0.000499851
3.94897
0.000457876
3.94821
0.000404879
3.94731
0.000344128
3.94626
0.00028033
3.94505
0.000218499
3.94369
0.000162847
3.94216
0.000116077
3.94049
7.92047e-05
3.93868
5.18215e-05
3.93678
3.25944e-05
3.9348
1.97864e-05
3.9328
1.1665e-05
3.93082
6.74497e-06
3.92891
3.88322e-06
3.92714
2.27268e-06
3.92556
1.38323e-06
3.92423
8.88571e-07
3.92319
5.99552e-07
3.92249
4.12861e-07
3.92215
2.76366e-07
3.92218
1.86761e-07
3.92255
1.11027e-07
3.92324
-9.46511e-09
3.92426
-8.24639e-08
3.92558
-1.45541e-07
3.92713
-1.90164e-07
3.92886
-2.17183e-07
3.93069
-2.30039e-07
3.93256
-2.22268e-07
3.93441
-1.9915e-07
3.93618
-1.63258e-07
3.93782
-1.15604e-07
3.93929
-5.90671e-08
3.94057
2.68847e-09
3.94164
6.44495e-08
3.94251
1.27035e-07
3.94318
1.86458e-07
3.94367
2.38585e-07
3.94399
2.85645e-07
3.94418
3.25294e-07
3.94425
3.56374e-07
3.94424
3.75619e-07
3.94417
3.91217e-07
3.94405
4.09231e-07
3.94391
4.15712e-07
3.94375
4.19182e-07
3.94358
4.19814e-07
3.94342
4.17043e-07
3.94327
4.13353e-07
3.94313
4.09214e-07
3.94301
4.04166e-07
3.9429
3.99003e-07
3.9428
3.94315e-07
3.94272
3.90157e-07
3.94265
3.85924e-07
3.94259
3.82385e-07
3.94254
3.79604e-07
3.9425
3.76859e-07
3.94246
3.74607e-07
3.94243
3.72808e-07
3.94241
3.71161e-07
3.94238
3.6969e-07
3.94237
3.68488e-07
3.94235
3.67556e-07
3.94234
3.66538e-07
3.94233
3.65758e-07
3.94233
3.65238e-07
3.94232
3.64605e-07
3.94232
3.64473e-07
3.94232
3.63587e-07
3.94232
3.63283e-07
3.94232
3.63057e-07
3.94233
3.62765e-07
3.94233
3.62709e-07
3.94234
3.62663e-07
3.94234
3.62611e-07
3.94235
3.62712e-07
3.94235
3.62754e-07
3.94236
3.62869e-07
3.94236
3.63053e-07
3.94237
3.63284e-07
3.94237
3.63543e-07
3.94237
3.63842e-07
3.94237
3.64159e-07
3.94237
3.64458e-07
3.94237
3.64762e-07
3.94237
3.64942e-07
3.94237
3.65282e-07
3.94236
3.65514e-07
3.94236
3.65723e-07
3.94235
3.65959e-07
3.94235
3.66225e-07
3.94234
3.66494e-07
3.94233
3.66363e-07
3.94232
3.66653e-07
3.94231
3.66769e-07
3.9423
3.66816e-07
3.94229
3.66862e-07
3.94228
3.66883e-07
3.94227
3.66861e-07
3.94225
3.66816e-07
3.94224
3.66763e-07
3.94223
3.66681e-07
3.94222
3.66553e-07
3.94221
3.66432e-07
3.9422
3.66289e-07
3.94218
3.66116e-07
3.94217
3.65963e-07
3.94216
3.658e-07
3.94215
3.65617e-07
3.94214
3.65445e-07
3.94213
3.65281e-07
3.94213
3.65081e-07
3.94212
3.64911e-07
3.94211
3.64749e-07
3.9421
3.646e-07
3.94209
3.64524e-07
3.94209
3.64184e-07
3.94208
3.64155e-07
3.94208
3.64095e-07
3.94207
3.63851e-07
3.94207
3.63806e-07
3.94206
3.63658e-07
3.94206
3.63656e-07
3.94205
3.63543e-07
3.94205
3.63447e-07
3.94204
3.63488e-07
3.94204
3.63317e-07
3.94204
3.6328e-07
3.94204
3.63108e-07
3.94203
3.63108e-07
3.94203
3.63137e-07
3.94203
3.62985e-07
3.94203
3.62892e-07
3.94203
3.6299e-07
3.94202
3.63063e-07
3.94202
3.62926e-07
3.94202
3.62992e-07
3.94202
3.63008e-07
3.94202
3.63028e-07
3.94201
3.63074e-07
3.94201
3.63186e-07
3.94201
3.6328e-07
3.942
3.63391e-07
3.942
3.63726e-07
3.94199
3.64036e-07
3.94198
3.64842e-07
3.94197
3.65393e-07
3.94195
3.6658e-07
3.94192
3.68017e-07
3.94188
3.69913e-07
3.94183
3.72441e-07
3.94176
3.75716e-07
3.94167
3.79948e-07
3.94155
3.85383e-07
3.94139
3.92234e-07
3.94119
4.0073e-07
3.94093
4.11117e-07
3.9406
4.23633e-07
3.94019
4.38425e-07
3.93968
4.55625e-07
3.93906
4.75217e-07
3.93831
4.97041e-07
3.93742
5.20805e-07
3.93637
5.4597e-07
3.93517
5.71741e-07
3.9338
5.97023e-07
3.93226
6.20509e-07
3.93057
6.40654e-07
3.92873
6.55669e-07
3.92678
6.63707e-07
3.92475
6.62928e-07
3.92269
6.51695e-07
3.92064
6.28587e-07
3.91865
5.92625e-07
3.9168
5.43468e-07
3.91514
4.81496e-07
3.91373
4.08067e-07
3.91263
3.2653e-07
3.91187
2.46938e-07
3.91148
2.10515e-07
3.91149
4.30029e-07
3.91185
1.81072e-06
3.91256
8.90104e-06
3.91361
4.46899e-05
3.91494
0.000222962
3.91632
0.00110491
3.9169
0.00545585
3.91281
0.0266505
3.88629
0.126932
3.74919
0.62839
2.03615
3.31896
17.2395
0.000570385
17.2388
0.0004651
17.2379
0.000408948
17.237
0.000421624
17.2357
0.000420251
17.2343
0.000411781
17.2324
0.000397833
17.2301
0.000375804
17.2274
0.000344667
17.2241
0.000305228
17.2202
0.000259885
17.2156
0.000212125
17.2103
0.0001657
17.2044
0.000123788
17.1977
8.84587e-05
17.1904
6.05187e-05
17.1826
3.97034e-05
17.1742
2.50407e-05
17.1656
1.52411e-05
17.1569
9.00637e-06
17.1482
5.2165e-06
17.1399
3.00482e-06
17.1322
1.75635e-06
17.1253
1.06534e-06
17.1195
6.80886e-07
17.115
4.5687e-07
17.1119
3.1313e-07
17.1104
2.09217e-07
17.1106
1.39731e-07
17.1122
8.46835e-08
17.1152
-7.38146e-09
17.1196
-6.19557e-08
17.1254
-1.08907e-07
17.1322
-1.42576e-07
17.1397
-1.63004e-07
17.1477
-1.7239e-07
17.1559
-1.66622e-07
17.1639
-1.49373e-07
17.1716
-1.22394e-07
17.1788
-8.65862e-08
17.1852
-4.42838e-08
17.1908
1.92131e-09
17.1955
4.85584e-08
17.1992
9.52423e-08
17.2022
1.39766e-07
17.2043
1.79019e-07
17.2057
2.14253e-07
17.2065
2.43913e-07
17.2068
2.67217e-07
17.2068
2.8198e-07
17.2065
2.93133e-07
17.206
3.07024e-07
17.2053
3.1184e-07
17.2046
3.14354e-07
17.2039
3.14795e-07
17.2032
3.12817e-07
17.2026
3.10002e-07
17.202
3.06881e-07
17.2014
3.03116e-07
17.2009
2.99267e-07
17.2005
2.95719e-07
17.2002
2.92593e-07
17.1999
2.89469e-07
17.1996
2.86784e-07
17.1994
2.84662e-07
17.1992
2.82658e-07
17.199
2.80955e-07
17.1989
2.79592e-07
17.1988
2.78372e-07
17.1987
2.77275e-07
17.1986
2.76358e-07
17.1986
2.7566e-07
17.1985
2.74914e-07
17.1985
2.7431e-07
17.1985
2.73909e-07
17.1984
2.73471e-07
17.1984
2.73351e-07
17.1984
2.72679e-07
17.1984
2.72465e-07
17.1984
2.72293e-07
17.1985
2.72075e-07
17.1985
2.72025e-07
17.1985
2.72004e-07
17.1985
2.71957e-07
17.1985
2.72026e-07
17.1986
2.72077e-07
17.1986
2.72147e-07
17.1986
2.72287e-07
17.1986
2.72468e-07
17.1986
2.72657e-07
17.1986
2.72875e-07
17.1987
2.73116e-07
17.1987
2.73347e-07
17.1986
2.73567e-07
17.1986
2.73702e-07
17.1986
2.73979e-07
17.1986
2.74144e-07
17.1986
2.74266e-07
17.1986
2.74475e-07
17.1985
2.74666e-07
17.1985
2.74862e-07
17.1985
2.74784e-07
17.1984
2.74989e-07
17.1984
2.75072e-07
17.1983
2.75109e-07
17.1983
2.75148e-07
17.1982
2.7516e-07
17.1982
2.75144e-07
17.1981
2.75116e-07
17.1981
2.75069e-07
17.198
2.75005e-07
17.198
2.74915e-07
17.1979
2.74823e-07
17.1979
2.74718e-07
17.1978
2.7459e-07
17.1978
2.74475e-07
17.1977
2.74349e-07
17.1977
2.74212e-07
17.1976
2.74085e-07
17.1976
2.7396e-07
17.1976
2.73812e-07
17.1975
2.73684e-07
17.1975
2.7356e-07
17.1975
2.73454e-07
17.1974
2.73388e-07
17.1974
2.73144e-07
17.1974
2.73113e-07
17.1974
2.73067e-07
17.1973
2.72892e-07
17.1973
2.72853e-07
17.1973
2.72745e-07
17.1973
2.72739e-07
17.1972
2.72657e-07
17.1972
2.72589e-07
17.1972
2.7261e-07
17.1972
2.72486e-07
17.1972
2.72451e-07
17.1972
2.72344e-07
17.1972
2.72337e-07
17.1972
2.72343e-07
17.1971
2.72228e-07
17.1971
2.72174e-07
17.1971
2.72238e-07
17.1971
2.72295e-07
17.1971
2.72198e-07
17.1971
2.72244e-07
17.1971
2.72254e-07
17.1971
2.72274e-07
17.1971
2.72308e-07
17.1971
2.72387e-07
17.1971
2.72459e-07
17.197
2.72557e-07
17.197
2.72761e-07
17.197
2.73048e-07
17.1969
2.73629e-07
17.1969
2.7405e-07
17.1968
2.74934e-07
17.1967
2.76013e-07
17.1965
2.77443e-07
17.1963
2.79332e-07
17.196
2.81788e-07
17.1956
2.84962e-07
17.1951
2.8904e-07
17.1944
2.94178e-07
17.1935
3.0055e-07
17.1924
3.08341e-07
17.1909
3.17725e-07
17.1891
3.28816e-07
17.1869
3.41717e-07
17.1842
3.56411e-07
17.1809
3.72786e-07
17.177
3.90601e-07
17.1725
4.09477e-07
17.1672
4.28803e-07
17.1612
4.47763e-07
17.1545
4.65374e-07
17.1471
4.80478e-07
17.1391
4.91736e-07
17.1306
4.97762e-07
17.1218
4.97175e-07
17.1128
4.88749e-07
17.1038
4.71417e-07
17.0952
4.44449e-07
17.0871
4.0761e-07
17.0799
3.61232e-07
17.0737
3.06713e-07
17.0689
2.48313e-07
17.0656
2.02296e-07
17.0639
2.43752e-07
17.0639
7.51395e-07
17.0655
3.48245e-06
17.0686
1.72042e-05
17.0732
8.58883e-05
17.079
0.000427661
17.0851
0.00211848
17.0879
0.0104617
17.0718
0.0510516
16.9645
0.24265
16.4562
1.14511
3.72251
14.7778
17.2395
0.000367993
17.2388
0.00031671
17.2379
0.000270697
17.2369
0.000280497
17.2357
0.000280464
17.2342
0.000274689
17.2324
0.000265477
17.2301
0.000250966
17.2274
0.000230379
17.2241
0.000204237
17.2202
0.000174113
17.2156
0.000142313
17.2103
0.000111333
17.2044
8.33038e-05
17.1977
5.96265e-05
17.1904
4.0862e-05
17.1826
2.6853e-05
17.1742
1.69642e-05
17.1656
1.03413e-05
17.1569
6.11901e-06
17.1482
3.54726e-06
17.1399
2.04355e-06
17.1322
1.19331e-06
17.1253
7.22178e-07
17.1195
4.60052e-07
17.115
3.07608e-07
17.1119
2.10211e-07
17.1104
1.4029e-07
17.1106
9.30049e-08
17.1122
5.69803e-08
17.1152
-4.96584e-09
17.1196
-4.13852e-08
17.1254
-7.24681e-08
17.1322
-9.50804e-08
17.1397
-1.08723e-07
17.1477
-1.1486e-07
17.1559
-1.1104e-07
17.1639
-9.96288e-08
17.1716
-8.15839e-08
17.1788
-5.76747e-08
17.1852
-2.9564e-08
17.1908
1.29239e-09
17.1955
3.23912e-08
17.1992
6.34873e-08
17.2022
9.31318e-08
17.2043
1.19361e-07
17.2057
1.42843e-07
17.2065
1.62591e-07
17.2068
1.78113e-07
17.2068
1.88106e-07
17.2065
1.95308e-07
17.206
2.04729e-07
17.2053
2.07917e-07
17.2046
2.09561e-07
17.2039
2.0984e-07
17.2032
2.08562e-07
17.2026
2.06663e-07
17.202
2.04574e-07
17.2014
2.02081e-07
17.2009
1.99522e-07
17.2005
1.97138e-07
17.2002
1.95053e-07
17.1999
1.92993e-07
17.1996
1.91186e-07
17.1994
1.89757e-07
17.1992
1.8845e-07
17.199
1.87303e-07
17.1989
1.86391e-07
17.1988
1.85583e-07
17.1987
1.84856e-07
17.1986
1.84239e-07
17.1986
1.83768e-07
17.1985
1.83282e-07