/*--------------------------------*- C++ -*----------------------------------*\
| =========                 |                                                 |
| \\      /  F ield         | OpenFOAM: The Open Source CFD Toolbox           |
|  \\    /   O peration     | Version:  3.0.x                                 |
|   \\  /    A nd           | Web:      www.OpenFOAM.org                      |
|    \\/     M anipulation  |                                                 |
\*---------------------------------------------------------------------------*/
FoamFile
{
    version     2.0;
    format      ascii;
    class       volScalarField;
    location    "0.38";
    object      p;
}
// * * * * * * * * * * * * * * * * * * * * * * * * * * * * * * * * * * * * * //

dimensions      [1 -1 -2 0 0 0 0];

internalField   nonuniform List<scalar> 
6900
(
1.81936e+07
1.81936e+07
1.81936e+07
1.81936e+07
1.81936e+07
1.81936e+07
1.81936e+07
1.81936e+07
1.81936e+07
1.81936e+07
1.81937e+07
1.81937e+07
1.81937e+07
1.81937e+07
1.81937e+07
1.81937e+07
1.81938e+07
1.81938e+07
1.81938e+07
1.81938e+07
1.81938e+07
1.81938e+07
1.81938e+07
1.81938e+07
1.81937e+07
1.81937e+07
1.81937e+07
1.81937e+07
1.81937e+07
1.81936e+07
1.81936e+07
1.81936e+07
1.81936e+07
1.81935e+07
1.81935e+07
1.81935e+07
1.81935e+07
1.81935e+07
1.81934e+07
1.81934e+07
1.81934e+07
1.81934e+07
1.81934e+07
1.81934e+07
1.81935e+07
1.81935e+07
1.81935e+07
1.81935e+07
1.81936e+07
1.81936e+07
1.81936e+07
1.81936e+07
1.81937e+07
1.81937e+07
1.81937e+07
1.81937e+07
1.81938e+07
1.81938e+07
1.81938e+07
1.81938e+07
1.81938e+07
1.81938e+07
1.81937e+07
1.81937e+07
1.81937e+07
1.81937e+07
1.81936e+07
1.81936e+07
1.81936e+07
1.81935e+07
1.81935e+07
1.81935e+07
1.81935e+07
1.81934e+07
1.81934e+07
1.81934e+07
1.81934e+07
1.81934e+07
1.81934e+07
1.81934e+07
1.81935e+07
1.81935e+07
1.81935e+07
1.81936e+07
1.81936e+07
1.81937e+07
1.81937e+07
1.81938e+07
1.81939e+07
1.81939e+07
1.8194e+07
1.8194e+07
1.8194e+07
1.81941e+07
1.81941e+07
1.81941e+07
1.81941e+07
1.81941e+07
1.81941e+07
1.81941e+07
1.81941e+07
1.81941e+07
1.8194e+07
1.8194e+07
1.8194e+07
1.81939e+07
1.81939e+07
1.81939e+07
1.81938e+07
1.81938e+07
1.81938e+07
1.81938e+07
1.81938e+07
1.81938e+07
1.81938e+07
1.81938e+07
1.81938e+07
1.81939e+07
1.81939e+07
1.8194e+07
1.81941e+07
1.81941e+07
1.81942e+07
1.81943e+07
1.81944e+07
1.81945e+07
1.81945e+07
1.81946e+07
1.81946e+07
1.81947e+07
1.81947e+07
1.81947e+07
1.81948e+07
1.81947e+07
1.81947e+07
1.81947e+07
1.81947e+07
1.81946e+07
1.81946e+07
1.81945e+07
1.81945e+07
1.81944e+07
1.81943e+07
1.81943e+07
1.81942e+07
1.81942e+07
1.81941e+07
1.81941e+07
1.81941e+07
1.81941e+07
1.81941e+07
1.81941e+07
1.81942e+07
1.81942e+07
1.81943e+07
1.81944e+07
1.81945e+07
1.81946e+07
1.81947e+07
1.81948e+07
1.81949e+07
1.8195e+07
1.81951e+07
1.81952e+07
1.81953e+07
1.81953e+07
1.81954e+07
1.81954e+07
1.81954e+07
1.81953e+07
1.81953e+07
1.81953e+07
1.81952e+07
1.81951e+07
1.8195e+07
1.8195e+07
1.81949e+07
1.81948e+07
1.81947e+07
1.81946e+07
1.81945e+07
1.81944e+07
1.81944e+07
1.81943e+07
1.81943e+07
1.81943e+07
1.81943e+07
1.81943e+07
1.81944e+07
1.81945e+07
1.81946e+07
1.81947e+07
1.81948e+07
1.8195e+07
1.81952e+07
1.81953e+07
1.81955e+07
1.81957e+07
1.8196e+07
1.81967e+07
1.81936e+07
1.81936e+07
1.81936e+07
1.81936e+07
1.81936e+07
1.81936e+07
1.81936e+07
1.81936e+07
1.81936e+07
1.81936e+07
1.81937e+07
1.81937e+07
1.81937e+07
1.81937e+07
1.81937e+07
1.81937e+07
1.81938e+07
1.81938e+07
1.81938e+07
1.81938e+07
1.81938e+07
1.81938e+07
1.81938e+07
1.81938e+07
1.81937e+07
1.81937e+07
1.81937e+07
1.81937e+07
1.81937e+07
1.81936e+07
1.81936e+07
1.81936e+07
1.81936e+07
1.81935e+07
1.81935e+07
1.81935e+07
1.81935e+07
1.81935e+07
1.81934e+07
1.81934e+07
1.81934e+07
1.81934e+07
1.81934e+07
1.81934e+07
1.81935e+07
1.81935e+07
1.81935e+07
1.81935e+07
1.81936e+07
1.81936e+07
1.81936e+07
1.81936e+07
1.81937e+07
1.81937e+07
1.81937e+07
1.81937e+07
1.81938e+07
1.81938e+07
1.81938e+07
1.81938e+07
1.81938e+07
1.81938e+07
1.81937e+07
1.81937e+07
1.81937e+07
1.81937e+07
1.81936e+07
1.81936e+07
1.81936e+07
1.81935e+07
1.81935e+07
1.81935e+07
1.81935e+07
1.81934e+07
1.81934e+07
1.81934e+07
1.81934e+07
1.81934e+07
1.81934e+07
1.81934e+07
1.81935e+07
1.81935e+07
1.81935e+07
1.81936e+07
1.81936e+07
1.81937e+07
1.81937e+07
1.81938e+07
1.81939e+07
1.81939e+07
1.8194e+07
1.8194e+07
1.8194e+07
1.81941e+07
1.81941e+07
1.81941e+07
1.81941e+07
1.81941e+07
1.81941e+07
1.81941e+07
1.81941e+07
1.81941e+07
1.8194e+07
1.8194e+07
1.8194e+07
1.81939e+07
1.81939e+07
1.81939e+07
1.81938e+07
1.81938e+07
1.81938e+07
1.81938e+07
1.81938e+07
1.81938e+07
1.81938e+07
1.81938e+07
1.81938e+07
1.81939e+07
1.81939e+07
1.8194e+07
1.81941e+07
1.81941e+07
1.81942e+07
1.81943e+07
1.81944e+07
1.81945e+07
1.81945e+07
1.81946e+07
1.81946e+07
1.81947e+07
1.81947e+07
1.81947e+07
1.81948e+07
1.81947e+07
1.81947e+07
1.81947e+07
1.81947e+07
1.81946e+07
1.81946e+07
1.81945e+07
1.81945e+07
1.81944e+07
1.81943e+07
1.81943e+07
1.81942e+07
1.81942e+07
1.81941e+07
1.81941e+07
1.81941e+07
1.81941e+07
1.81941e+07
1.81941e+07
1.81942e+07
1.81942e+07
1.81943e+07
1.81944e+07
1.81945e+07
1.81946e+07
1.81947e+07
1.81948e+07
1.81949e+07
1.8195e+07
1.81951e+07
1.81952e+07
1.81953e+07
1.81953e+07
1.81954e+07
1.81954e+07
1.81954e+07
1.81953e+07
1.81953e+07
1.81953e+07
1.81952e+07
1.81951e+07
1.8195e+07
1.8195e+07
1.81949e+07
1.81948e+07
1.81947e+07
1.81946e+07
1.81945e+07
1.81944e+07
1.81944e+07
1.81943e+07
1.81943e+07
1.81943e+07
1.81943e+07
1.81943e+07
1.81944e+07
1.81945e+07
1.81946e+07
1.81947e+07
1.81948e+07
1.8195e+07
1.81952e+07
1.81953e+07
1.81955e+07
1.81957e+07
1.81959e+07
1.81967e+07
1.81936e+07
1.81936e+07
1.81936e+07
1.81936e+07
1.81936e+07
1.81936e+07
1.81936e+07
1.81936e+07
1.81936e+07
1.81936e+07
1.81937e+07
1.81937e+07
1.81937e+07
1.81937e+07
1.81937e+07
1.81937e+07
1.81938e+07
1.81938e+07
1.81938e+07
1.81938e+07
1.81938e+07
1.81938e+07
1.81938e+07
1.81938e+07
1.81937e+07
1.81937e+07
1.81937e+07
1.81937e+07
1.81937e+07
1.81936e+07
1.81936e+07
1.81936e+07
1.81936e+07
1.81935e+07
1.81935e+07
1.81935e+07
1.81935e+07
1.81935e+07
1.81934e+07
1.81934e+07
1.81934e+07
1.81934e+07
1.81934e+07
1.81934e+07
1.81935e+07
1.81935e+07
1.81935e+07
1.81935e+07
1.81936e+07
1.81936e+07
1.81936e+07
1.81936e+07
1.81937e+07
1.81937e+07
1.81937e+07
1.81937e+07
1.81938e+07
1.81938e+07
1.81938e+07
1.81938e+07
1.81938e+07
1.81938e+07
1.81937e+07
1.81937e+07
1.81937e+07
1.81937e+07
1.81936e+07
1.81936e+07
1.81936e+07
1.81935e+07
1.81935e+07
1.81935e+07
1.81935e+07
1.81934e+07
1.81934e+07
1.81934e+07
1.81934e+07
1.81934e+07
1.81934e+07
1.81934e+07
1.81935e+07
1.81935e+07
1.81935e+07
1.81936e+07
1.81936e+07
1.81937e+07
1.81937e+07
1.81938e+07
1.81939e+07
1.81939e+07
1.8194e+07
1.8194e+07
1.8194e+07
1.81941e+07
1.81941e+07
1.81941e+07
1.81941e+07
1.81941e+07
1.81941e+07
1.81941e+07
1.81941e+07
1.81941e+07
1.8194e+07
1.8194e+07
1.8194e+07
1.81939e+07
1.81939e+07
1.81939e+07
1.81938e+07
1.81938e+07
1.81938e+07
1.81938e+07
1.81938e+07
1.81938e+07
1.81938e+07
1.81938e+07
1.81938e+07
1.81939e+07
1.81939e+07
1.8194e+07
1.81941e+07
1.81941e+07
1.81942e+07
1.81943e+07
1.81944e+07
1.81945e+07
1.81945e+07
1.81946e+07
1.81946e+07
1.81947e+07
1.81947e+07
1.81947e+07
1.81948e+07
1.81947e+07
1.81947e+07
1.81947e+07
1.81947e+07
1.81946e+07
1.81946e+07
1.81945e+07
1.81945e+07
1.81944e+07
1.81943e+07
1.81943e+07
1.81942e+07
1.81942e+07
1.81941e+07
1.81941e+07
1.81941e+07
1.81941e+07
1.81941e+07
1.81941e+07
1.81942e+07
1.81942e+07
1.81943e+07
1.81944e+07
1.81945e+07
1.81946e+07
1.81947e+07
1.81948e+07
1.81949e+07
1.8195e+07
1.81951e+07
1.81952e+07
1.81953e+07
1.81953e+07
1.81954e+07
1.81954e+07
1.81954e+07
1.81953e+07
1.81953e+07
1.81953e+07
1.81952e+07
1.81951e+07
1.8195e+07
1.8195e+07
1.81949e+07
1.81948e+07
1.81947e+07
1.81946e+07
1.81945e+07
1.81944e+07
1.81944e+07
1.81943e+07
1.81943e+07
1.81943e+07
1.81943e+07
1.81943e+07
1.81944e+07
1.81945e+07
1.81946e+07
1.81947e+07
1.81948e+07
1.8195e+07
1.81952e+07
1.81953e+07
1.81955e+07
1.81956e+07
1.81958e+07
1.8196e+07
1.81936e+07
1.81936e+07
1.81936e+07
1.81936e+07
1.81936e+07
1.81936e+07
1.81936e+07
1.81936e+07
1.81936e+07
1.81936e+07
1.81937e+07
1.81937e+07
1.81937e+07
1.81937e+07
1.81937e+07
1.81937e+07
1.81938e+07
1.81938e+07
1.81938e+07
1.81938e+07
1.81938e+07
1.81938e+07
1.81938e+07
1.81938e+07
1.81937e+07
1.81937e+07
1.81937e+07
1.81937e+07
1.81937e+07
1.81936e+07
1.81936e+07
1.81936e+07
1.81936e+07
1.81935e+07
1.81935e+07
1.81935e+07
1.81935e+07
1.81935e+07
1.81934e+07
1.81934e+07
1.81934e+07
1.81934e+07
1.81934e+07
1.81934e+07
1.81935e+07
1.81935e+07
1.81935e+07
1.81935e+07
1.81936e+07
1.81936e+07
1.81936e+07
1.81936e+07
1.81937e+07
1.81937e+07
1.81937e+07
1.81937e+07
1.81938e+07
1.81938e+07
1.81938e+07
1.81938e+07
1.81938e+07
1.81938e+07
1.81937e+07
1.81937e+07
1.81937e+07
1.81937e+07
1.81936e+07
1.81936e+07
1.81936e+07
1.81935e+07
1.81935e+07
1.81935e+07
1.81935e+07
1.81934e+07
1.81934e+07
1.81934e+07
1.81934e+07
1.81934e+07
1.81934e+07
1.81934e+07
1.81935e+07
1.81935e+07
1.81935e+07
1.81936e+07
1.81936e+07
1.81937e+07
1.81937e+07
1.81938e+07
1.81939e+07
1.81939e+07
1.8194e+07
1.8194e+07
1.8194e+07
1.81941e+07
1.81941e+07
1.81941e+07
1.81941e+07
1.81941e+07
1.81941e+07
1.81941e+07
1.81941e+07
1.81941e+07
1.8194e+07
1.8194e+07
1.8194e+07
1.81939e+07
1.81939e+07
1.81939e+07
1.81938e+07
1.81938e+07
1.81938e+07
1.81938e+07
1.81938e+07
1.81938e+07
1.81938e+07
1.81938e+07
1.81938e+07
1.81939e+07
1.81939e+07
1.8194e+07
1.81941e+07
1.81941e+07
1.81942e+07
1.81943e+07
1.81944e+07
1.81945e+07
1.81945e+07
1.81946e+07
1.81946e+07
1.81947e+07
1.81947e+07
1.81947e+07
1.81948e+07
1.81947e+07
1.81947e+07
1.81947e+07
1.81947e+07
1.81946e+07
1.81946e+07
1.81945e+07
1.81945e+07
1.81944e+07
1.81943e+07
1.81943e+07
1.81942e+07
1.81942e+07
1.81941e+07
1.81941e+07
1.81941e+07
1.81941e+07
1.81941e+07
1.81941e+07
1.81942e+07
1.81942e+07
1.81943e+07
1.81944e+07
1.81945e+07
1.81946e+07
1.81947e+07
1.81948e+07
1.81949e+07
1.8195e+07
1.81951e+07
1.81952e+07
1.81953e+07
1.81953e+07
1.81954e+07
1.81954e+07
1.81954e+07
1.81953e+07
1.81953e+07
1.81953e+07
1.81952e+07
1.81951e+07
1.8195e+07
1.8195e+07
1.81949e+07
1.81948e+07
1.81947e+07
1.81946e+07
1.81945e+07
1.81944e+07
1.81944e+07
1.81943e+07
1.81943e+07
1.81943e+07
1.81943e+07
1.81943e+07
1.81944e+07
1.81945e+07
1.81946e+07
1.81947e+07
1.81948e+07
1.8195e+07
1.81952e+07
1.81953e+07
1.81955e+07
1.81956e+07
1.81955e+07
1.81949e+07
1.81936e+07
1.81936e+07
1.81936e+07
1.81936e+07
1.81936e+07
1.81936e+07
1.81936e+07
1.81936e+07
1.81936e+07
1.81936e+07
1.81937e+07
1.81937e+07
1.81937e+07
1.81937e+07
1.81937e+07
1.81937e+07
1.81938e+07
1.81938e+07
1.81938e+07
1.81938e+07
1.81938e+07
1.81938e+07
1.81938e+07
1.81938e+07
1.81937e+07
1.81937e+07
1.81937e+07
1.81937e+07
1.81937e+07
1.81936e+07
1.81936e+07
1.81936e+07
1.81936e+07
1.81935e+07
1.81935e+07
1.81935e+07
1.81935e+07
1.81935e+07
1.81934e+07
1.81934e+07
1.81934e+07
1.81934e+07
1.81934e+07
1.81934e+07
1.81935e+07
1.81935e+07
1.81935e+07
1.81935e+07
1.81936e+07
1.81936e+07
1.81936e+07
1.81936e+07
1.81937e+07
1.81937e+07
1.81937e+07
1.81937e+07
1.81938e+07
1.81938e+07
1.81938e+07
1.81938e+07
1.81938e+07
1.81938e+07
1.81937e+07
1.81937e+07
1.81937e+07
1.81937e+07
1.81936e+07
1.81936e+07
1.81936e+07
1.81935e+07
1.81935e+07
1.81935e+07
1.81935e+07
1.81934e+07
1.81934e+07
1.81934e+07
1.81934e+07
1.81934e+07
1.81934e+07
1.81934e+07
1.81935e+07
1.81935e+07
1.81935e+07
1.81936e+07
1.81936e+07
1.81937e+07
1.81937e+07
1.81938e+07
1.81939e+07
1.81939e+07
1.8194e+07
1.8194e+07
1.8194e+07
1.81941e+07
1.81941e+07
1.81941e+07
1.81941e+07
1.81941e+07
1.81941e+07
1.81941e+07
1.81941e+07
1.81941e+07
1.8194e+07
1.8194e+07
1.8194e+07
1.81939e+07
1.81939e+07
1.81939e+07
1.81938e+07
1.81938e+07
1.81938e+07
1.81938e+07
1.81938e+07
1.81938e+07
1.81938e+07
1.81938e+07
1.81938e+07
1.81939e+07
1.81939e+07
1.8194e+07
1.81941e+07
1.81941e+07
1.81942e+07
1.81943e+07
1.81944e+07
1.81945e+07
1.81945e+07
1.81946e+07
1.81946e+07
1.81947e+07
1.81947e+07
1.81947e+07
1.81948e+07
1.81947e+07
1.81947e+07
1.81947e+07
1.81947e+07
1.81946e+07
1.81946e+07
1.81945e+07
1.81945e+07
1.81944e+07
1.81943e+07
1.81943e+07
1.81942e+07
1.81942e+07
1.81941e+07
1.81941e+07
1.81941e+07
1.81941e+07
1.81941e+07
1.81941e+07
1.81942e+07
1.81942e+07
1.81943e+07
1.81944e+07
1.81945e+07
1.81946e+07
1.81947e+07
1.81948e+07
1.81949e+07
1.8195e+07
1.81951e+07
1.81952e+07
1.81953e+07
1.81953e+07
1.81954e+07
1.81954e+07
1.81954e+07
1.81953e+07
1.81953e+07
1.81953e+07
1.81952e+07
1.81951e+07
1.8195e+07
1.8195e+07
1.81949e+07
1.81948e+07
1.81947e+07
1.81946e+07
1.81945e+07
1.81944e+07
1.81944e+07
1.81943e+07
1.81943e+07
1.81943e+07
1.81943e+07
1.81943e+07
1.81944e+07
1.81945e+07
1.81946e+07
1.81947e+07
1.81948e+07
1.8195e+07
1.81952e+07
1.81953e+07
1.81955e+07
1.81956e+07
1.81955e+07
1.81949e+07
1.82031e+07
1.8206e+07
1.82062e+07
1.82055e+07
1.82048e+07
1.82041e+07
1.82031e+07
1.82017e+07
1.82005e+07
1.81998e+07
1.82001e+07
1.82017e+07
1.82019e+07
1.81988e+07
1.81925e+07
1.81862e+07
1.81825e+07
1.81795e+07
1.8177e+07
1.81757e+07
1.82015e+07
1.82029e+07
1.82028e+07
1.82021e+07
1.82014e+07
1.82006e+07
1.81995e+07
1.81981e+07
1.81968e+07
1.81962e+07
1.81967e+07
1.81983e+07
1.81982e+07
1.81944e+07
1.81873e+07
1.81808e+07
1.81772e+07
1.81746e+07
1.81725e+07
1.81721e+07
1.81963e+07
1.81963e+07
1.81958e+07
1.8195e+07
1.81938e+07
1.81924e+07
1.81907e+07
1.81887e+07
1.81863e+07
1.81836e+07
1.81804e+07
1.81769e+07
1.81736e+07
1.81704e+07
1.81673e+07
1.81639e+07
1.816e+07
1.81558e+07
1.81512e+07
1.81462e+07
1.8186e+07
1.81849e+07
1.81854e+07
1.81859e+07
1.81855e+07
1.81838e+07
1.81814e+07
1.81782e+07
1.81756e+07
1.81723e+07
1.81694e+07
1.81664e+07
1.81634e+07
1.81606e+07
1.81579e+07
1.81555e+07
1.81534e+07
1.81516e+07
1.81503e+07
1.81492e+07
1.81811e+07
1.81761e+07
1.81744e+07
1.81742e+07
1.81735e+07
1.81716e+07
1.81688e+07
1.81654e+07
1.81623e+07
1.81587e+07
1.81553e+07
1.81518e+07
1.81485e+07
1.81452e+07
1.81422e+07
1.81395e+07
1.81371e+07
1.81353e+07
1.81341e+07
1.8134e+07
1.81641e+07
1.81499e+07
1.81448e+07
1.81441e+07
1.81442e+07
1.81439e+07
1.81432e+07
1.81429e+07
1.81429e+07
1.81429e+07
1.8143e+07
1.8143e+07
1.81431e+07
1.81431e+07
1.81432e+07
1.81433e+07
1.81434e+07
1.81435e+07
1.81435e+07
1.81436e+07
1.81437e+07
1.81437e+07
1.81438e+07
1.81438e+07
1.81439e+07
1.81439e+07
1.8144e+07
1.8144e+07
1.8144e+07
1.8144e+07
1.8144e+07
1.8144e+07
1.8144e+07
1.8144e+07
1.8144e+07
1.8144e+07
1.8144e+07
1.8144e+07
1.8144e+07
1.8144e+07
1.8144e+07
1.8144e+07
1.8144e+07
1.8144e+07
1.8144e+07
1.8144e+07
1.8144e+07
1.8144e+07
1.8144e+07
1.8144e+07
1.8144e+07
1.8144e+07
1.8144e+07
1.81441e+07
1.81441e+07
1.81441e+07
1.81442e+07
1.81443e+07
1.81445e+07
1.81446e+07
1.81446e+07
1.81446e+07
1.81446e+07
1.81447e+07
1.81448e+07
1.81449e+07
1.81451e+07
1.81452e+07
1.81454e+07
1.81456e+07
1.81458e+07
1.8146e+07
1.81462e+07
1.81464e+07
1.81467e+07
1.81469e+07
1.81472e+07
1.81475e+07
1.81478e+07
1.81482e+07
1.81485e+07
1.81488e+07
1.81491e+07
1.81495e+07
1.81498e+07
1.81501e+07
1.81504e+07
1.81507e+07
1.8151e+07
1.81513e+07
1.81516e+07
1.81518e+07
1.81521e+07
1.81523e+07
1.81525e+07
1.81527e+07
1.8153e+07
1.81532e+07
1.81534e+07
1.81537e+07
1.81539e+07
1.81542e+07
1.81544e+07
1.81547e+07
1.8155e+07
1.81553e+07
1.81557e+07
1.8156e+07
1.81564e+07
1.81568e+07
1.81572e+07
1.81576e+07
1.81581e+07
1.81586e+07
1.8159e+07
1.81595e+07
1.81601e+07
1.81606e+07
1.81612e+07
1.81617e+07
1.81623e+07
1.81629e+07
1.81635e+07
1.81641e+07
1.81647e+07
1.81654e+07
1.8166e+07
1.81666e+07
1.81673e+07
1.81679e+07
1.81686e+07
1.81692e+07
1.81699e+07
1.81706e+07
1.81712e+07
1.81719e+07
1.81726e+07
1.81732e+07
1.81739e+07
1.81746e+07
1.81753e+07
1.8176e+07
1.81767e+07
1.81774e+07
1.81782e+07
1.81789e+07
1.81796e+07
1.81804e+07
1.81812e+07
1.8182e+07
1.81828e+07
1.81836e+07
1.81844e+07
1.81853e+07
1.81862e+07
1.81871e+07
1.8188e+07
1.8189e+07
1.819e+07
1.8191e+07
1.8192e+07
1.81931e+07
1.81942e+07
1.81953e+07
1.81964e+07
1.81975e+07
1.81987e+07
1.81999e+07
1.82011e+07
1.82023e+07
1.82035e+07
1.82048e+07
1.8206e+07
1.82073e+07
1.82085e+07
1.82098e+07
1.82111e+07
1.82124e+07
1.82137e+07
1.82149e+07
1.82162e+07
1.82175e+07
1.82188e+07
1.82202e+07
1.82215e+07
1.82228e+07
1.82242e+07
1.82255e+07
1.82269e+07
1.82282e+07
1.82296e+07
1.8231e+07
1.82324e+07
1.82338e+07
1.82352e+07
1.82366e+07
1.8238e+07
1.82394e+07
1.82406e+07
1.82411e+07
1.81628e+07
1.81497e+07
1.81448e+07
1.81441e+07
1.81443e+07
1.81439e+07
1.81432e+07
1.81429e+07
1.81429e+07
1.81429e+07
1.8143e+07
1.8143e+07
1.81431e+07
1.81431e+07
1.81432e+07
1.81433e+07
1.81434e+07
1.81435e+07
1.81435e+07
1.81436e+07
1.81437e+07
1.81437e+07
1.81438e+07
1.81438e+07
1.81439e+07
1.81439e+07
1.8144e+07
1.8144e+07
1.8144e+07
1.8144e+07
1.8144e+07
1.8144e+07
1.8144e+07
1.8144e+07
1.8144e+07
1.8144e+07
1.8144e+07
1.8144e+07
1.8144e+07
1.8144e+07
1.8144e+07
1.8144e+07
1.8144e+07
1.8144e+07
1.8144e+07
1.8144e+07
1.8144e+07
1.8144e+07
1.8144e+07
1.8144e+07
1.8144e+07
1.8144e+07
1.8144e+07
1.81441e+07
1.81441e+07
1.81441e+07
1.81442e+07
1.81443e+07
1.81445e+07
1.81446e+07
1.81446e+07
1.81446e+07
1.81446e+07
1.81447e+07
1.81448e+07
1.81449e+07
1.81451e+07
1.81452e+07
1.81454e+07
1.81456e+07
1.81457e+07
1.8146e+07
1.81462e+07
1.81464e+07
1.81467e+07
1.81469e+07
1.81472e+07
1.81475e+07
1.81478e+07
1.81481e+07
1.81485e+07
1.81488e+07
1.81491e+07
1.81495e+07
1.81498e+07
1.81501e+07
1.81504e+07
1.81507e+07
1.8151e+07
1.81513e+07
1.81515e+07
1.81518e+07
1.81521e+07
1.81523e+07
1.81525e+07
1.81527e+07
1.8153e+07
1.81532e+07
1.81534e+07
1.81537e+07
1.81539e+07
1.81542e+07
1.81544e+07
1.81547e+07
1.8155e+07
1.81553e+07
1.81557e+07
1.8156e+07
1.81564e+07
1.81568e+07
1.81572e+07
1.81576e+07
1.81581e+07
1.81586e+07
1.8159e+07
1.81595e+07
1.81601e+07
1.81606e+07
1.81612e+07
1.81617e+07
1.81623e+07
1.81629e+07
1.81635e+07
1.81641e+07
1.81647e+07
1.81654e+07
1.8166e+07
1.81666e+07
1.81673e+07
1.81679e+07
1.81686e+07
1.81692e+07
1.81699e+07
1.81706e+07
1.81712e+07
1.81719e+07
1.81726e+07
1.81732e+07
1.81739e+07
1.81746e+07
1.81753e+07
1.8176e+07
1.81767e+07
1.81774e+07
1.81782e+07
1.81789e+07
1.81796e+07
1.81804e+07
1.81812e+07
1.8182e+07
1.81828e+07
1.81836e+07
1.81844e+07
1.81853e+07
1.81862e+07
1.81871e+07
1.8188e+07
1.8189e+07
1.819e+07
1.8191e+07
1.8192e+07
1.81931e+07
1.81942e+07
1.81953e+07
1.81964e+07
1.81975e+07
1.81987e+07
1.81999e+07
1.82011e+07
1.82023e+07
1.82035e+07
1.82048e+07
1.8206e+07
1.82073e+07
1.82085e+07
1.82098e+07
1.82111e+07
1.82124e+07
1.82137e+07
1.82149e+07
1.82162e+07
1.82175e+07
1.82188e+07
1.82202e+07
1.82215e+07
1.82228e+07
1.82242e+07
1.82255e+07
1.82269e+07
1.82282e+07
1.82296e+07
1.8231e+07
1.82324e+07
1.82338e+07
1.82352e+07
1.82366e+07
1.8238e+07
1.82394e+07
1.82406e+07
1.82412e+07
1.81335e+07
1.81386e+07
1.81425e+07
1.81433e+07
1.8143e+07
1.81426e+07
1.81426e+07
1.81427e+07
1.81428e+07
1.81429e+07
1.81429e+07
1.8143e+07
1.81431e+07
1.81431e+07
1.81432e+07
1.81433e+07
1.81434e+07
1.81435e+07
1.81435e+07
1.81436e+07
1.81437e+07
1.81437e+07
1.81438e+07
1.81438e+07
1.81439e+07
1.81439e+07
1.8144e+07
1.8144e+07
1.8144e+07
1.8144e+07
1.8144e+07
1.8144e+07
1.8144e+07
1.8144e+07
1.8144e+07
1.8144e+07
1.8144e+07
1.8144e+07
1.8144e+07
1.8144e+07
1.8144e+07
1.8144e+07
1.8144e+07
1.8144e+07
1.8144e+07
1.8144e+07
1.8144e+07
1.8144e+07
1.8144e+07
1.8144e+07
1.8144e+07
1.8144e+07
1.8144e+07
1.81441e+07
1.81441e+07
1.81441e+07
1.81442e+07
1.81442e+07
1.81443e+07
1.81443e+07
1.81444e+07
1.81445e+07
1.81446e+07
1.81447e+07
1.81449e+07
1.8145e+07
1.81452e+07
1.81453e+07
1.81455e+07
1.81457e+07
1.81459e+07
1.81461e+07
1.81463e+07
1.81466e+07
1.81468e+07
1.81471e+07
1.81474e+07
1.81477e+07
1.8148e+07
1.81483e+07
1.81486e+07
1.81489e+07
1.81492e+07
1.81495e+07
1.81499e+07
1.81502e+07
1.81505e+07
1.81507e+07
1.8151e+07
1.81513e+07
1.81516e+07
1.81518e+07
1.81521e+07
1.81523e+07
1.81525e+07
1.81527e+07
1.8153e+07
1.81532e+07
1.81534e+07
1.81537e+07
1.81539e+07
1.81542e+07
1.81544e+07
1.81547e+07
1.8155e+07
1.81553e+07
1.81557e+07
1.8156e+07
1.81564e+07
1.81568e+07
1.81572e+07
1.81576e+07
1.81581e+07
1.81586e+07
1.8159e+07
1.81595e+07
1.81601e+07
1.81606e+07
1.81612e+07
1.81617e+07
1.81623e+07
1.81629e+07
1.81635e+07
1.81641e+07
1.81647e+07
1.81654e+07
1.8166e+07
1.81666e+07
1.81673e+07
1.81679e+07
1.81686e+07
1.81692e+07
1.81699e+07
1.81706e+07
1.81712e+07
1.81719e+07
1.81726e+07
1.81732e+07
1.81739e+07
1.81746e+07
1.81753e+07
1.8176e+07
1.81767e+07
1.81774e+07
1.81782e+07
1.81789e+07
1.81796e+07
1.81804e+07
1.81812e+07
1.8182e+07
1.81828e+07
1.81836e+07
1.81844e+07
1.81853e+07
1.81862e+07
1.81871e+07
1.8188e+07
1.8189e+07
1.819e+07
1.8191e+07
1.8192e+07
1.81931e+07
1.81942e+07
1.81953e+07
1.81964e+07
1.81975e+07
1.81987e+07
1.81999e+07
1.82011e+07
1.82023e+07
1.82035e+07
1.82048e+07
1.8206e+07
1.82073e+07
1.82085e+07
1.82098e+07
1.82111e+07
1.82124e+07
1.82137e+07
1.82149e+07
1.82162e+07
1.82175e+07
1.82188e+07
1.82202e+07
1.82215e+07
1.82228e+07
1.82242e+07
1.82255e+07
1.82269e+07
1.82282e+07
1.82296e+07
1.8231e+07
1.82324e+07
1.82338e+07
1.82352e+07
1.82366e+07
1.8238e+07
1.82394e+07
1.82409e+07
1.82424e+07
1.8146e+07
1.81445e+07
1.81438e+07
1.81434e+07
1.8143e+07
1.81427e+07
1.81427e+07
1.81428e+07
1.81428e+07
1.81429e+07
1.81429e+07
1.8143e+07
1.81431e+07
1.81432e+07
1.81432e+07
1.81433e+07
1.81434e+07
1.81435e+07
1.81435e+07
1.81436e+07
1.81437e+07
1.81437e+07
1.81438e+07
1.81439e+07
1.81439e+07
1.81439e+07
1.8144e+07
1.8144e+07
1.8144e+07
1.8144e+07
1.8144e+07
1.8144e+07
1.81441e+07
1.81441e+07
1.81441e+07
1.81441e+07
1.81441e+07
1.81441e+07
1.81441e+07
1.81441e+07
1.8144e+07
1.8144e+07
1.8144e+07
1.8144e+07
1.8144e+07
1.8144e+07
1.8144e+07
1.8144e+07
1.8144e+07
1.8144e+07
1.8144e+07
1.8144e+07
1.8144e+07
1.81441e+07
1.81441e+07
1.81441e+07
1.81442e+07
1.81443e+07
1.81443e+07
1.81444e+07
1.81444e+07
1.81445e+07
1.81446e+07
1.81448e+07
1.81449e+07
1.81451e+07
1.81452e+07
1.81454e+07
1.81456e+07
1.81458e+07
1.8146e+07
1.81462e+07
1.81464e+07
1.81467e+07
1.81469e+07
1.81472e+07
1.81475e+07
1.81478e+07
1.81481e+07
1.81484e+07
1.81487e+07
1.8149e+07
1.81493e+07
1.81496e+07
1.81499e+07
1.81502e+07
1.81505e+07
1.81508e+07
1.81511e+07
1.81513e+07
1.81516e+07
1.81518e+07
1.81521e+07
1.81523e+07
1.81525e+07
1.81527e+07
1.8153e+07
1.81532e+07
1.81534e+07
1.81537e+07
1.81539e+07
1.81542e+07
1.81544e+07
1.81547e+07
1.8155e+07
1.81553e+07
1.81557e+07
1.8156e+07
1.81564e+07
1.81568e+07
1.81572e+07
1.81576e+07
1.81581e+07
1.81586e+07
1.8159e+07
1.81595e+07
1.81601e+07
1.81606e+07
1.81612e+07
1.81617e+07
1.81623e+07
1.81629e+07
1.81635e+07
1.81641e+07
1.81647e+07
1.81654e+07
1.8166e+07
1.81666e+07
1.81673e+07
1.81679e+07
1.81686e+07
1.81692e+07
1.81699e+07
1.81706e+07
1.81712e+07
1.81719e+07
1.81726e+07
1.81732e+07
1.81739e+07
1.81746e+07
1.81753e+07
1.8176e+07
1.81767e+07
1.81774e+07
1.81782e+07
1.81789e+07
1.81796e+07
1.81804e+07
1.81812e+07
1.8182e+07
1.81828e+07
1.81836e+07
1.81844e+07
1.81853e+07
1.81862e+07
1.81871e+07
1.8188e+07
1.8189e+07
1.819e+07
1.8191e+07
1.8192e+07
1.81931e+07
1.81942e+07
1.81953e+07
1.81964e+07
1.81975e+07
1.81987e+07
1.81999e+07
1.82011e+07
1.82023e+07
1.82035e+07
1.82048e+07
1.8206e+07
1.82073e+07
1.82085e+07
1.82098e+07
1.82111e+07
1.82124e+07
1.82137e+07
1.82149e+07
1.82162e+07
1.82175e+07
1.82188e+07
1.82202e+07
1.82215e+07
1.82228e+07
1.82242e+07
1.82255e+07
1.82269e+07
1.82282e+07
1.82296e+07
1.8231e+07
1.82324e+07
1.82338e+07
1.82352e+07
1.82366e+07
1.8238e+07
1.82395e+07
1.82411e+07
1.82433e+07
1.81431e+07
1.81441e+07
1.81437e+07
1.81433e+07
1.8143e+07
1.81427e+07
1.81427e+07
1.81428e+07
1.81428e+07
1.81429e+07
1.81429e+07
1.8143e+07
1.81431e+07
1.81432e+07
1.81432e+07
1.81433e+07
1.81434e+07
1.81435e+07
1.81435e+07
1.81436e+07
1.81437e+07
1.81437e+07
1.81438e+07
1.81439e+07
1.81439e+07
1.81439e+07
1.8144e+07
1.8144e+07
1.8144e+07
1.8144e+07
1.8144e+07
1.8144e+07
1.8144e+07
1.81441e+07
1.81441e+07
1.81441e+07
1.81441e+07
1.81441e+07
1.81441e+07
1.81441e+07
1.8144e+07
1.8144e+07
1.8144e+07
1.8144e+07
1.8144e+07
1.8144e+07
1.8144e+07
1.8144e+07
1.8144e+07
1.8144e+07
1.8144e+07
1.8144e+07
1.8144e+07
1.81441e+07
1.81441e+07
1.81441e+07
1.81442e+07
1.81443e+07
1.81443e+07
1.81444e+07
1.81444e+07
1.81445e+07
1.81446e+07
1.81448e+07
1.81449e+07
1.81451e+07
1.81452e+07
1.81454e+07
1.81456e+07
1.81458e+07
1.8146e+07
1.81462e+07
1.81464e+07
1.81467e+07
1.81469e+07
1.81472e+07
1.81475e+07
1.81478e+07
1.81481e+07
1.81484e+07
1.81487e+07
1.8149e+07
1.81493e+07
1.81496e+07
1.81499e+07
1.81502e+07
1.81505e+07
1.81508e+07
1.81511e+07
1.81513e+07
1.81516e+07
1.81518e+07
1.81521e+07
1.81523e+07
1.81525e+07
1.81527e+07
1.8153e+07
1.81532e+07
1.81534e+07
1.81537e+07
1.81539e+07
1.81542e+07
1.81544e+07
1.81547e+07
1.8155e+07
1.81553e+07
1.81557e+07
1.8156e+07
1.81564e+07
1.81568e+07
1.81572e+07
1.81576e+07
1.81581e+07
1.81586e+07
1.8159e+07
1.81595e+07
1.81601e+07
1.81606e+07
1.81612e+07
1.81617e+07
1.81623e+07
1.81629e+07
1.81635e+07
1.81641e+07
1.81647e+07
1.81654e+07
1.8166e+07
1.81666e+07
1.81673e+07
1.81679e+07
1.81686e+07
1.81692e+07
1.81699e+07
1.81706e+07
1.81712e+07
1.81719e+07
1.81726e+07
1.81732e+07
1.81739e+07
1.81746e+07
1.81753e+07
1.8176e+07
1.81767e+07
1.81774e+07
1.81782e+07
1.81789e+07
1.81796e+07
1.81804e+07
1.81812e+07
1.8182e+07
1.81828e+07
1.81836e+07
1.81844e+07
1.81853e+07
1.81862e+07
1.81871e+07
1.8188e+07
1.8189e+07
1.819e+07
1.8191e+07
1.8192e+07
1.81931e+07
1.81942e+07
1.81953e+07
1.81964e+07
1.81975e+07
1.81987e+07
1.81999e+07
1.82011e+07
1.82023e+07
1.82035e+07
1.82048e+07
1.8206e+07
1.82073e+07
1.82085e+07
1.82098e+07
1.82111e+07
1.82124e+07
1.82137e+07
1.82149e+07
1.82162e+07
1.82175e+07
1.82188e+07
1.82202e+07
1.82215e+07
1.82228e+07
1.82242e+07
1.82255e+07
1.82269e+07
1.82282e+07
1.82296e+07
1.8231e+07
1.82324e+07
1.82338e+07
1.82352e+07
1.82366e+07
1.8238e+07
1.82395e+07
1.82411e+07
1.82433e+07
1.82319e+07
1.82277e+07
1.82264e+07
1.82264e+07
1.82259e+07
1.82245e+07
1.82223e+07
1.82201e+07
1.82175e+07
1.82151e+07
1.82123e+07
1.82097e+07
1.82073e+07
1.82051e+07
1.8203e+07
1.82012e+07
1.81997e+07
1.81984e+07
1.81977e+07
1.8198e+07
1.82358e+07
1.82351e+07
1.82358e+07
1.82364e+07
1.82362e+07
1.8235e+07
1.82329e+07
1.82312e+07
1.82288e+07
1.82269e+07
1.82244e+07
1.82222e+07
1.82201e+07
1.82182e+07
1.82164e+07
1.82149e+07
1.82136e+07
1.82125e+07
1.82116e+07
1.8211e+07
1.82436e+07
1.8244e+07
1.82439e+07
1.82435e+07
1.82429e+07
1.8242e+07
1.82409e+07
1.82393e+07
1.82376e+07
1.82358e+07
1.8234e+07
1.82318e+07
1.82293e+07
1.82264e+07
1.82233e+07
1.82199e+07
1.82163e+07
1.82128e+07
1.82096e+07
1.82066e+07
1.82478e+07
1.82494e+07
1.82497e+07
1.82495e+07
1.82494e+07
1.82492e+07
1.82493e+07
1.82497e+07
1.82498e+07
1.82484e+07
1.82452e+07
1.82424e+07
1.82407e+07
1.82395e+07
1.82388e+07
1.82394e+07
1.82426e+07
1.8245e+07
1.82443e+07
1.82385e+07
1.82492e+07
1.82521e+07
1.82527e+07
1.82525e+07
1.82523e+07
1.82523e+07
1.82523e+07
1.82527e+07
1.82528e+07
1.82517e+07
1.82489e+07
1.82461e+07
1.82444e+07
1.8243e+07
1.8242e+07
1.82425e+07
1.82456e+07
1.82485e+07
1.82485e+07
1.82434e+07
1.82071e+07
1.821e+07
1.82115e+07
1.82128e+07
1.8214e+07
1.82155e+07
1.82172e+07
1.82188e+07
1.82205e+07
1.82222e+07
1.82239e+07
1.82256e+07
1.82274e+07
1.82292e+07
1.8231e+07
1.82329e+07
1.82347e+07
1.82366e+07
1.82385e+07
1.82405e+07
1.82424e+07
1.82444e+07
1.82464e+07
1.82484e+07
1.82504e+07
1.82525e+07
1.82545e+07
1.82566e+07
1.82587e+07
1.82608e+07
1.82629e+07
1.82651e+07
1.82672e+07
1.82694e+07
1.82716e+07
1.82738e+07
1.82761e+07
1.82783e+07
1.82806e+07
1.82828e+07
1.82852e+07
1.82875e+07
1.82898e+07
1.82922e+07
1.82945e+07
1.82969e+07
1.82993e+07
1.83017e+07
1.83041e+07
1.83066e+07
1.8309e+07
1.83115e+07
1.83139e+07
1.83164e+07
1.83189e+07
1.83214e+07
1.8324e+07
1.83265e+07
1.8329e+07
1.83316e+07
1.83342e+07
1.83368e+07
1.83394e+07
1.8342e+07
1.83446e+07
1.83473e+07
1.835e+07
1.83527e+07
1.83555e+07
1.83583e+07
1.83611e+07
1.83639e+07
1.83668e+07
1.83697e+07
1.83727e+07
1.83756e+07
1.83787e+07
1.83817e+07
1.83848e+07
1.83879e+07
1.8391e+07
1.83942e+07
1.83974e+07
1.84006e+07
1.84038e+07
1.8407e+07
1.84103e+07
1.84135e+07
1.84168e+07
1.84201e+07
1.84233e+07
1.84266e+07
1.84299e+07
1.84332e+07
1.84364e+07
1.84397e+07
1.8443e+07
1.84463e+07
1.84494e+07
1.84522e+07
1.82095e+07
1.82104e+07
1.82116e+07
1.82128e+07
1.8214e+07
1.82155e+07
1.82172e+07
1.82188e+07
1.82205e+07
1.82222e+07
1.82239e+07
1.82256e+07
1.82274e+07
1.82292e+07
1.8231e+07
1.82329e+07
1.82347e+07
1.82366e+07
1.82385e+07
1.82405e+07
1.82424e+07
1.82444e+07
1.82464e+07
1.82484e+07
1.82504e+07
1.82525e+07
1.82545e+07
1.82566e+07
1.82587e+07
1.82608e+07
1.82629e+07
1.82651e+07
1.82672e+07
1.82694e+07
1.82716e+07
1.82738e+07
1.82761e+07
1.82783e+07
1.82806e+07
1.82828e+07
1.82852e+07
1.82875e+07
1.82898e+07
1.82922e+07
1.82945e+07
1.82969e+07
1.82993e+07
1.83017e+07
1.83041e+07
1.83066e+07
1.8309e+07
1.83115e+07
1.83139e+07
1.83164e+07
1.83189e+07
1.83214e+07
1.8324e+07
1.83265e+07
1.8329e+07
1.83316e+07
1.83342e+07
1.83368e+07
1.83394e+07
1.8342e+07
1.83447e+07
1.83473e+07
1.835e+07
1.83528e+07
1.83555e+07
1.83583e+07
1.83611e+07
1.83639e+07
1.83668e+07
1.83697e+07
1.83727e+07
1.83757e+07
1.83787e+07
1.83817e+07
1.83848e+07
1.83879e+07
1.8391e+07
1.83942e+07
1.83974e+07
1.84006e+07
1.84038e+07
1.8407e+07
1.84103e+07
1.84135e+07
1.84168e+07
1.84201e+07
1.84233e+07
1.84266e+07
1.84299e+07
1.84332e+07
1.84364e+07
1.84397e+07
1.8443e+07
1.84463e+07
1.84494e+07
1.84522e+07
1.82011e+07
1.82068e+07
1.8211e+07
1.82127e+07
1.8214e+07
1.82156e+07
1.82173e+07
1.8219e+07
1.82206e+07
1.82223e+07
1.8224e+07
1.82257e+07
1.82275e+07
1.82293e+07
1.82311e+07
1.82329e+07
1.82347e+07
1.82366e+07
1.82385e+07
1.82405e+07
1.82424e+07
1.82444e+07
1.82464e+07
1.82484e+07
1.82504e+07
1.82524e+07
1.82545e+07
1.82566e+07
1.82587e+07
1.82608e+07
1.82629e+07
1.82651e+07
1.82672e+07
1.82694e+07
1.82716e+07
1.82738e+07
1.8276e+07
1.82783e+07
1.82806e+07
1.82828e+07
1.82851e+07
1.82875e+07
1.82898e+07
1.82921e+07
1.82945e+07
1.82969e+07
1.82993e+07
1.83017e+07
1.83041e+07
1.83066e+07
1.8309e+07
1.83115e+07
1.83139e+07
1.83164e+07
1.83189e+07