/*--------------------------------*- C++ -*----------------------------------*\
| =========                 |                                                 |
| \\      /  F ield         | OpenFOAM: The Open Source CFD Toolbox           |
|  \\    /   O peration     | Version:  3.0.x                                 |
|   \\  /    A nd           | Web:      www.OpenFOAM.org                      |
|    \\/     M anipulation  |                                                 |
\*---------------------------------------------------------------------------*/
FoamFile
{
    version     2.0;
    format      ascii;
    class       surfaceScalarField;
    location    "0.38";
    object      phi;
}
// * * * * * * * * * * * * * * * * * * * * * * * * * * * * * * * * * * * * * //

dimensions      [1 0 -1 0 0 0 0];

internalField   nonuniform List<scalar> 
12415
(
5.79721
0.000327717
5.79704
0.000234877
5.79688
0.000224871
5.79671
0.000226688
5.79653
0.000227123
5.79634
0.000226914
5.79614
0.000226824
5.79592
0.000226914
5.79569
0.00022681
5.79544
0.000226856
5.79518
0.000226836
5.79491
0.000226841
5.79462
0.000226844
5.79432
0.00022685
5.79401
0.000226862
5.7937
0.000226879
5.79338
0.000226905
5.79306
0.000226938
5.79273
0.000226959
5.79241
0.000227034
5.7921
0.000227084
5.7918
0.00022738
5.79152
0.000227029
5.79125
0.000227301
5.79098
0.000227386
5.79072
0.000227469
5.79046
0.000227554
5.79022
0.00022764
5.78998
0.00022773
5.78976
0.000227825
5.78955
0.000227917
5.78934
0.000228017
5.78915
0.000228119
5.78897
0.000228228
5.78879
0.000228338
5.78861
0.00022845
5.78844
0.000228562
5.78825
0.000228668
5.78806
0.000228765
5.78786
0.000228845
5.78764
0.000228898
5.7874
0.000228912
5.78714
0.000228856
5.78686
0.000228726
5.78657
0.000228477
5.78626
0.000228127
5.78595
0.000227405
5.78562
0.000226591
5.78529
0.000225398
5.78495
0.000223801
5.7846
0.000221722
5.78425
0.000219078
5.7839
0.000215787
5.78355
0.00021177
5.78321
0.000206963
5.78287
0.000201316
5.78255
0.0001948
5.78225
0.000187411
5.78196
0.000179176
5.7817
0.000170151
5.78145
0.000160413
5.78124
0.000150077
5.78105
0.000139281
5.78089
0.000128176
5.78075
0.000116921
5.78063
0.000105685
5.78053
9.46392e-05
5.78045
8.39212e-05
5.78039
7.36771e-05
5.78033
6.40204e-05
5.78028
5.50424e-05
5.78024
4.6807e-05
5.78019
3.93566e-05
5.78014
3.26977e-05
5.78008
2.68249e-05
5.78
2.17194e-05
5.77991
1.73324e-05
5.7798
1.35911e-05
5.77968
1.0482e-05
5.77954
7.89589e-06
5.77937
5.77661e-06
5.77919
4.06408e-06
5.77898
2.69461e-06
5.77877
1.61281e-06
5.77854
7.65262e-07
5.7783
1.11488e-07
5.77806
-3.89749e-07
5.77781
-7.68698e-07
5.77757
-1.05271e-06
5.77734
-1.2648e-06
5.77712
-1.42249e-06
5.77692
-1.53961e-06
5.77673
-1.62678e-06
5.77657
-1.69231e-06
5.77644
-1.74209e-06
5.77633
-1.78055e-06
5.77626
-1.81069e-06
5.7762
-1.83217e-06
5.77618
-1.85163e-06
5.77618
-1.86975e-06
5.7762
-1.88468e-06
5.77624
-1.89342e-06
5.77629
-1.90098e-06
5.77636
-1.90746e-06
5.77643
-1.90981e-06
5.77651
-1.91138e-06
5.77657
-1.90977e-06
5.77663
-1.90628e-06
5.77668
-1.9008e-06
5.7767
-1.89268e-06
5.7767
-1.8832e-06
5.77668
-1.87393e-06
5.77662
-1.86413e-06
5.77653
-1.8485e-06
5.77641
-1.83583e-06
5.77626
-1.82001e-06
5.77607
-1.80611e-06
5.77584
-1.79331e-06
5.7756
-1.78188e-06
5.77532
-1.77144e-06
5.77503
-1.76413e-06
5.77473
-1.75801e-06
5.77442
-1.7557e-06
5.77411
-1.75515e-06
5.77382
-1.75877e-06
5.77354
-1.76394e-06
5.77328
-1.77298e-06
5.77306
-1.78343e-06
5.77287
-1.79725e-06
5.77272
-1.81097e-06
5.77262
-1.82747e-06
5.77256
-1.84425e-06
5.77255
-1.85542e-06
5.77258
-1.88667e-06
5.77264
-1.88549e-06
5.77275
-1.90396e-06
5.77289
-1.92214e-06
5.77305
-1.93212e-06
5.77324
-1.94083e-06
5.77344
-1.94649e-06
5.77364
-1.95033e-06
5.77385
-1.95068e-06
5.77404
-1.94836e-06
5.77422
-1.94308e-06
5.77438
-1.93595e-06
5.7745
-1.92472e-06
5.77459
-1.91191e-06
5.77464
-1.89612e-06
5.77463
-1.88109e-06
5.77457
-1.86159e-06
5.77447
-1.84298e-06
5.7743
-1.82008e-06
5.77408
-1.79946e-06
5.77381
-1.77715e-06
5.77349
-1.76092e-06
5.77312
-1.7434e-06
5.77273
-1.73315e-06
5.77232
-1.72302e-06
5.77189
-1.71922e-06
5.77147
-1.72001e-06
5.77108
-1.72523e-06
5.77071
-1.73515e-06
5.77038
-1.75094e-06
5.77011
-1.76841e-06
5.7699
-1.79358e-06
5.76976
-1.81302e-06
5.76969
-1.84089e-06
5.76969
-1.86063e-06
5.76976
-1.88906e-06
5.76988
-1.90701e-06
5.77006
-1.92959e-06
5.77028
-1.9493e-06
5.77054
-1.96324e-06
5.77083
-1.97392e-06
5.77115
-1.98447e-06
5.77147
-1.98899e-06
5.77181
-1.99273e-06
5.77215
-1.99307e-06
5.77247
-1.99248e-06
5.77279
-1.98484e-06
5.77307
-1.97966e-06
5.77332
-1.96496e-06
5.77353
-1.95218e-06
5.77366
-1.92712e-06
5.77373
-1.90762e-06
5.77372
-1.88049e-06
5.77362
-1.84522e-06
5.77343
-1.83e-06
5.77315
-1.80058e-06
5.77277
-1.72217e-06
5.77231
-1.72319e-06
5.77178
-1.56174e-06
5.77119
-1.00042e-06
5.77055
3.26583e-06
5.76986
3.2446e-05
5.76898
0.000236181
5.7667
0.00165419
5.75463
0.0115067
5.66383
0.090342
0.44645
5.21703
11.5952
0.000260435
11.5953
0.000215295
11.5955
0.00018986
11.5956
0.000194078
11.5958
0.000195321
11.5959
0.000194729
11.596
0.000194547
11.596
0.000194601
11.596
0.000194559
11.596
0.000194579
11.596
0.000194573
11.5959
0.000194585
11.5958
0.000194596
11.5957
0.00019461
11.5956
0.00019463
11.5954
0.000194655
11.5953
0.000194687
11.5951
0.000194725
11.595
0.000194759
11.5948
0.000194827
11.5947
0.00019489
11.5946
0.000195105
11.5945
0.000194897
11.5944
0.000195092
11.5944
0.000195184
11.5943
0.000195267
11.5943
0.000195351
11.5943
0.000195436
11.5943
0.000195525
11.5944
0.000195617
11.5944
0.000195708
11.5945
0.000195807
11.5946
0.000195902
11.5947
0.000196009
11.5949
0.000196115
11.595
0.000196223
11.5951
0.00019633
11.5953
0.000196433
11.5954
0.000196527
11.5955
0.000196607
11.5955
0.000196664
11.5955
0.000196686
11.5955
0.00019665
11.5954
0.000196545
11.5953
0.000196343
11.5952
0.000196031
11.595
0.000195449
11.5949
0.000194733
11.5947
0.000193711
11.5945
0.000192335
11.5943
0.000190543
11.5941
0.00018826
11.5938
0.000185416
11.5936
0.000181945
11.5933
0.00017779
11.5931
0.000172909
11.5928
0.000167278
11.5926
0.000160894
11.5924
0.000153782
11.5923
0.000145989
11.5921
0.000137588
11.592
0.000128675
11.592
0.000119369
11.5919
0.000109804
11.5919
0.000100115
11.5919
9.04519e-05
11.5919
8.09545e-05
11.5919
7.1749e-05
11.5919
6.29551e-05
11.5919
5.4672e-05
11.592
4.69772e-05
11.592
3.99238e-05
11.592
3.35473e-05
11.5919
2.78523e-05
11.5919
2.28346e-05
11.5918
1.8474e-05
11.5916
1.47309e-05
11.5914
1.1542e-05
11.5912
8.89263e-06
11.5909
6.69156e-06
11.5906
4.88945e-06
11.5903
3.43401e-06
11.5899
2.27155e-06
11.5894
1.35472e-06
11.589
6.34927e-07
11.5885
8.47606e-08
11.588
-3.42039e-07
11.5875
-6.62859e-07
11.587
-9.04458e-07
11.5866
-1.08514e-06
11.5861
-1.21983e-06
11.5857
-1.31999e-06
11.5853
-1.39463e-06
11.585
-1.45083e-06
11.5847
-1.49358e-06
11.5845
-1.52665e-06
11.5844
-1.55247e-06
11.5843
-1.57134e-06
11.5842
-1.58737e-06
11.5842
-1.60359e-06
11.5842
-1.61591e-06
11.5843
-1.62386e-06
11.5844
-1.63019e-06
11.5845
-1.63565e-06
11.5847
-1.63788e-06
11.5848
-1.63905e-06
11.585
-1.63776e-06
11.5851
-1.6347e-06
11.5852
-1.63002e-06
11.5852
-1.62307e-06
11.5852
-1.61524e-06
11.5851
-1.6067e-06
11.585
-1.59847e-06
11.5848
-1.58551e-06
11.5846
-1.57419e-06
11.5843
-1.56074e-06
11.5839
-1.54885e-06
11.5835
-1.53792e-06
11.583
-1.52794e-06
11.5824
-1.51925e-06
11.5818
-1.51275e-06
11.5812
-1.50769e-06
11.5806
-1.5056e-06
11.58
-1.50521e-06
11.5794
-1.50822e-06
11.5788
-1.51278e-06
11.5783
-1.52045e-06
11.5778
-1.52929e-06
11.5775
-1.54193e-06
11.5772
-1.55248e-06
11.5769
-1.56716e-06
11.5768
-1.58131e-06
11.5768
-1.59239e-06
11.5768
-1.61654e-06
11.577
-1.61755e-06
11.5772
-1.63148e-06
11.5775
-1.64937e-06
11.5778
-1.65633e-06
11.5781
-1.6655e-06
11.5785
-1.66865e-06
11.5789
-1.67238e-06
11.5793
-1.674e-06
11.5797
-1.66966e-06
11.5801
-1.66651e-06
11.5804
-1.66013e-06
11.5806
-1.6504e-06
11.5808
-1.63976e-06
11.5809
-1.62598e-06
11.5809
-1.61261e-06
11.5808
-1.60194e-06
11.5806
-1.57541e-06
11.5802
-1.55986e-06
11.5798
-1.54535e-06
11.5792
-1.52226e-06
11.5786
-1.51204e-06
11.5778
-1.49161e-06
11.5771
-1.48922e-06
11.5762
-1.4764e-06
11.5754
-1.47481e-06
11.5745
-1.47517e-06
11.5737
-1.47946e-06
11.573
-1.48771e-06
11.5723
-1.50212e-06
11.5718
-1.51582e-06
11.5714
-1.54216e-06
11.5711
-1.55133e-06
11.5709
-1.57853e-06
11.5709
-1.59541e-06
11.5711
-1.62922e-06
11.5713
-1.63288e-06
11.5716
-1.64914e-06
11.5721
-1.67091e-06
11.5726
-1.68386e-06
11.5732
-1.69213e-06
11.5738
-1.70251e-06
11.5745
-1.70475e-06
11.5751
-1.71001e-06
11.5758
-1.70813e-06
11.5764
-1.70999e-06
11.5771
-1.70037e-06
11.5776
-1.69932e-06
11.5781
-1.68228e-06
11.5785
-1.67958e-06
11.5788
-1.64643e-06
11.5789
-1.64218e-06
11.5789
-1.60626e-06
11.5787
-1.56436e-06
11.5783
-1.59528e-06
11.5777
-1.58075e-06
11.577
-1.41651e-06
11.5761
-1.48004e-06
11.575
-1.06512e-06
11.5738
5.48566e-07
11.5725
1.31473e-05
11.5712
9.95766e-05
11.5694
0.00070316
11.5649
0.00490255
11.5414
0.0339256
11.3915
0.239242
1.12409
10.7132
139.142
-0.000260435
139.144
-0.000215295
139.146
-0.00018986
139.148
-0.000194078
139.149
-0.000195321
139.15
-0.000194729
139.151
-0.000194547
139.152
-0.000194601
139.152
-0.000194559
139.152
-0.000194579
139.152
-0.000194573
139.151
-0.000194585
139.15
-0.000194596
139.149
-0.00019461
139.147
-0.00019463
139.145
-0.000194655
139.143
-0.000194687
139.141
-0.000194725
139.14
-0.000194759
139.138
-0.000194827
139.136
-0.00019489
139.135
-0.000195105
139.134
-0.000194897
139.133
-0.000195092
139.132
-0.000195184
139.132
-0.000195267
139.132
-0.000195351
139.132
-0.000195436
139.132
-0.000195525
139.132
-0.000195617
139.133
-0.000195708
139.134
-0.000195807
139.135
-0.000195902
139.137
-0.000196009
139.138
-0.000196115
139.14
-0.000196223
139.142
-0.00019633
139.143
-0.000196433
139.144
-0.000196527
139.145
-0.000196607
139.146
-0.000196664
139.146
-0.000196686
139.146
-0.00019665
139.145
-0.000196545
139.144
-0.000196343
139.142
-0.000196031
139.141
-0.000195449
139.139
-0.000194733
139.136
-0.000193711
139.134
-0.000192335
139.131
-0.000190543
139.129
-0.00018826
139.126
-0.000185416
139.123
-0.000181945
139.12
-0.00017779
139.117
-0.000172909
139.114
-0.000167278
139.112
-0.000160894
139.11
-0.000153782
139.108
-0.000145989
139.106
-0.000137588
139.105
-0.000128675
139.104
-0.000119369
139.103
-0.000109804
139.103
-0.000100115
139.102
-9.04519e-05
139.103
-8.09545e-05
139.103
-7.1749e-05
139.103
-6.29551e-05
139.104
-5.4672e-05
139.104
-4.69772e-05
139.104
-3.99238e-05
139.104
-3.35473e-05
139.103
-2.78523e-05
139.102
-2.28346e-05
139.101
-1.8474e-05
139.099
-1.47309e-05
139.097
-1.1542e-05
139.095
-8.89263e-06
139.091
-6.69156e-06
139.087
-4.88945e-06
139.083
-3.43401e-06
139.078
-2.27155e-06
139.073
-1.35472e-06
139.068
-6.34927e-07
139.062
-8.47665e-08
139.056
3.42039e-07
139.05
6.62858e-07
139.044
9.04455e-07
139.039
1.08514e-06
139.034
1.21983e-06
139.029
1.31999e-06
139.024
1.39463e-06
139.02
1.45083e-06
139.017
1.49359e-06
139.014
1.52666e-06
139.012
1.55247e-06
139.011
1.57134e-06
139.011
1.58737e-06
139.01
1.60359e-06
139.011
1.61591e-06
139.012
1.62386e-06
139.013
1.63019e-06
139.015
1.63565e-06
139.016
1.63788e-06
139.018
1.63905e-06
139.02
1.63776e-06
139.021
1.6347e-06
139.022
1.63002e-06
139.023
1.62307e-06
139.022
1.61524e-06
139.022
1.6067e-06
139.02
1.59847e-06
139.018
1.58551e-06
139.015
1.57418e-06
139.011
1.56074e-06
139.007
1.54885e-06
139.002
1.53792e-06
138.995
1.52795e-06
138.989
1.51925e-06
138.982
1.51275e-06
138.975
1.50769e-06
138.967
1.5056e-06
138.96
1.50521e-06
138.952
1.50822e-06
138.946
1.51278e-06
138.94
1.52044e-06
138.934
1.52931e-06
138.93
1.5419e-06
138.926
1.55252e-06
138.923
1.56708e-06
138.922
1.58157e-06
138.922
1.59443e-06
138.922
1.60261e-06
138.924
1.62594e-06
138.926
1.63761e-06
138.93
1.64679e-06
138.933
1.65759e-06
138.938
1.66268e-06
138.943
1.67083e-06
138.947
1.67074e-06
138.952
1.67941e-06
138.957
1.66513e-06
138.961
1.66692e-06
138.965
1.65932e-06
138.968
1.65144e-06
138.97
1.63883e-06
138.971
1.62646e-06
138.971
1.61503e-06
138.969
1.57777e-06
138.967
1.59885e-06
138.963
1.57143e-06
138.957
1.52054e-06
138.951
1.53708e-06
138.943
1.50079e-06
138.934
1.51404e-06
138.925
1.46941e-06
138.915
1.48401e-06
138.905
1.47083e-06
138.894
1.47701e-06
138.885
1.47713e-06
138.876
1.49115e-06
138.868
1.4982e-06
138.862
1.52056e-06
138.857
1.53075e-06
138.853
1.56164e-06
138.851
1.57485e-06
138.851
1.57765e-06
138.853
1.70371e-06
138.856
1.59029e-06
138.86
1.62595e-06
138.865
1.68152e-06
138.871
1.67981e-06
138.878
1.7014e-06
138.886
1.69242e-06
138.894
1.71281e-06
138.902
1.70514e-06
138.91
1.71296e-06
138.917
1.70249e-06
138.925
1.71091e-06
138.932
1.68619e-06
138.938
1.70296e-06
138.942
1.64403e-06
138.946
1.68323e-06
138.947
1.59637e-06
138.947
1.44978e-06
138.944
2.47101e-06
138.94
8.04218e-07
138.933
1.40017e-06
138.924
1.77394e-06
138.913
1.3426e-06
138.9
2.04918e-06
138.886
3.85691e-06
138.871
2.06004e-05
138.855
0.000136073
138.839
0.00096281
138.822
0.00687434
138.793
0.0494731
138.631
0.390136
1.67374
138.073
11.5952
-0.000327717
11.5953
-0.000234877
11.5955
-0.000224871
11.5956
-0.000226688
11.5958
-0.000227123
11.5959
-0.000226914
11.596
-0.000226824
11.596
-0.000226914
11.596
-0.00022681
11.596
-0.000226856
11.596
-0.000226836
11.5959
-0.000226841
11.5958
-0.000226844
11.5957
-0.00022685
11.5956
-0.000226862
11.5954
-0.000226879
11.5953
-0.000226905
11.5951
-0.000226938
11.595
-0.000226959
11.5948
-0.000227034
11.5947
-0.000227084
11.5946
-0.00022738
11.5945
-0.000227029
11.5944
-0.000227301
11.5944
-0.000227386
11.5943
-0.000227469
11.5943
-0.000227554
11.5943
-0.00022764
11.5943
-0.00022773
11.5944
-0.000227825
11.5944
-0.000227917
11.5945
-0.000228017
11.5946
-0.000228119
11.5947
-0.000228228
11.5949
-0.000228338
11.595
-0.00022845
11.5951
-0.000228562
11.5953
-0.000228668
11.5954
-0.000228765
11.5955
-0.000228845
11.5955
-0.000228898
11.5955
-0.000228912
11.5955
-0.000228856
11.5954
-0.000228726
11.5953
-0.000228477
11.5952
-0.000228127
11.595
-0.000227405
11.5949
-0.000226591
11.5947
-0.000225398
11.5945
-0.000223801
11.5943
-0.000221722
11.5941
-0.000219078
11.5938
-0.000215787
11.5936
-0.00021177
11.5933
-0.000206963
11.5931
-0.000201316
11.5928
-0.0001948
11.5926
-0.000187411
11.5924
-0.000179176
11.5923
-0.000170151
11.5921
-0.000160413
11.592
-0.000150077
11.592
-0.000139281
11.5919
-0.000128176
11.5919
-0.000116921
11.5919
-0.000105685
11.5919
-9.46392e-05
11.5919
-8.39212e-05
11.5919
-7.36771e-05
11.5919
-6.40204e-05
11.592
-5.50424e-05
11.592
-4.6807e-05
11.592
-3.93566e-05
11.5919
-3.26977e-05
11.5919
-2.68249e-05
11.5918
-2.17194e-05
11.5916
-1.73324e-05
11.5914
-1.35911e-05
11.5912
-1.0482e-05
11.5909
-7.89589e-06
11.5906
-5.77661e-06
11.5903
-4.06408e-06
11.5899
-2.69462e-06
11.5894
-1.61281e-06
11.589
-7.65262e-07
11.5885
-1.11489e-07
11.588
3.89751e-07
11.5875
7.68698e-07
11.587
1.05271e-06
11.5866
1.2648e-06
11.5861
1.42249e-06
11.5857
1.53961e-06
11.5853
1.62678e-06
11.585
1.69231e-06
11.5847
1.74209e-06
11.5845
1.78055e-06
11.5844
1.81069e-06
11.5843
1.83217e-06
11.5842
1.85164e-06
11.5842
1.86975e-06
11.5842
1.88468e-06
11.5843
1.89342e-06
11.5844
1.90098e-06
11.5845
1.90746e-06
11.5847
1.90981e-06
11.5848
1.91138e-06
11.585
1.90977e-06
11.5851
1.90628e-06
11.5852
1.9008e-06
11.5852
1.89268e-06
11.5852
1.8832e-06
11.5851
1.87393e-06
11.585
1.86413e-06
11.5848
1.84849e-06
11.5846
1.83583e-06
11.5843
1.82001e-06
11.5839
1.80611e-06
11.5835
1.79331e-06
11.583
1.78188e-06
11.5824
1.77144e-06
11.5818
1.76413e-06
11.5812
1.75801e-06
11.5806
1.7557e-06
11.58
1.75515e-06
11.5794
1.75877e-06
11.5788
1.76394e-06
11.5783
1.77297e-06
11.5778
1.78343e-06
11.5775
1.79724e-06
11.5772
1.81099e-06
11.5769
1.82745e-06
11.5768
1.84435e-06
11.5768
1.85811e-06
11.5768
1.87373e-06
11.577
1.89265e-06
11.5772
1.90801e-06
11.5775
1.92118e-06
11.5778
1.93258e-06
11.5781
1.93984e-06
11.5785
1.94724e-06
11.5789
1.94979e-06
11.5793
1.95243e-06
11.5797
1.9469e-06
11.5801
1.94322e-06
11.5804
1.93567e-06
11.5806
1.92507e-06
11.5808
1.91159e-06
11.5809
1.89629e-06
11.5809
1.87957e-06
11.5808
1.86235e-06
11.5806
1.8458e-06
11.5802
1.82246e-06
11.5798
1.79107e-06
11.5792
1.78222e-06
11.5786
1.75706e-06
11.5778
1.75109e-06
11.5771
1.72635e-06
11.5762
1.72564e-06
11.5754
1.71785e-06
11.5745
1.72066e-06
11.5737
1.7244e-06
11.573
1.73636e-06
11.5723
1.74959e-06
11.5718
1.77004e-06
11.5714
1.78968e-06
11.5711
1.81657e-06
11.5709
1.83962e-06
11.5709
1.856e-06
11.5711
1.91014e-06
11.5713
1.89563e-06
11.5716
1.92141e-06
11.5721
1.95294e-06
11.5726
1.96184e-06
11.5732
1.97711e-06
11.5738
1.981e-06
11.5745
1.99177e-06
11.5751
1.99105e-06
11.5758
1.99473e-06
11.5764
1.98991e-06
11.5771
1.98846e-06
11.5776
1.97518e-06
11.5781
1.97199e-06
11.5785
1.94007e-06
11.5788
1.93964e-06
11.5789
1.89204e-06
11.5789
1.82822e-06
11.5787
2.14604e-06
11.5783
1.56284e-06
11.5777
1.74419e-06
11.577
1.84337e-06
11.5761
1.67729e-06
11.575
1.89653e-06
11.5738
2.49972e-06
11.5726
8.20168e-06
11.5713
4.76045e-05
11.5707
0.000330134
11.5739
0.00236907
11.6046
0.0176971
11.8035
0.190325
0.722615
12.7539
5.79721
5.79704
5.79688
5.79671
5.79653
5.79634
5.79614
5.79592
5.79569
5.79544
5.79518
5.79491
5.79462
5.79432
5.79401
5.7937
5.79338
5.79306
5.79273
5.79241
5.7921
5.7918
5.79152
5.79125
5.79098
5.79072
5.79046
5.79022
5.78998
5.78976
5.78955
5.78934
5.78915
5.78897
5.78879
5.78861
5.78844
5.78825
5.78806
5.78786
5.78764
5.7874
5.78714
5.78686
5.78657
5.78626
5.78595
5.78562
5.78529
5.78495
5.7846
5.78425
5.7839
5.78355
5.78321
5.78287
5.78255
5.78225
5.78196
5.7817
5.78145
5.78124
5.78105
5.78089
5.78075
5.78063
5.78053
5.78045
5.78039
5.78033
5.78028
5.78024
5.78019
5.78014
5.78008
5.78
5.77991
5.7798
5.77968
5.77954
5.77937
5.77919
5.77898
5.77877
5.77854
5.7783
5.77806
5.77781
5.77757
5.77734
5.77712
5.77692
5.77673
5.77657
5.77644
5.77633
5.77626
5.7762
5.77618
5.77618
5.7762
5.77624
5.77629
5.77636
5.77643
5.77651
5.77657
5.77663
5.77668
5.7767
5.7767
5.77668
5.77662
5.77653
5.77641
5.77626
5.77607
5.77584
5.7756
5.77532
5.77503
5.77473
5.77442
5.77411
5.77382
5.77354
5.77328
5.77306
5.77287
5.77272
5.77262
5.77256
5.77255
5.77258
5.77264
5.77275
5.77289
5.77305
5.77324
5.77344
5.77364
5.77385
5.77404
5.77422
5.77438
5.7745
5.77459
5.77464
5.77463
5.77457
5.77447
5.7743
5.77408
5.77381
5.77349
5.77312
5.77273
5.77232
5.77189
5.77147
5.77108
5.77071
5.77038
5.77011
5.7699
5.76976
5.76969
5.76969
5.76976
5.76988
5.77006
5.77028
5.77054
5.77083
5.77115
5.77147
5.77181
5.77215
5.77247
5.77279
5.77307
5.77332
5.77353
5.77366
5.77373
5.77372
5.77362
5.77343
5.77315
5.77277
5.77231
5.77178
5.77119
5.77056
5.76996
5.76963
5.77139
5.78852
5.97838
6.70066
5.09024
0.126725
5.09892
-0.00874664
5.09848
0.00037905
5.10958
-0.0111768
5.13682
-0.0273238
5.17745
-0.0407407
5.21088
-0.0335431
5.20403
0.00672421
5.15471
0.0493084
5.10193
0.0529585
5.20363
-0.100752
5.5152
-0.31098
5.93492
-0.420046
6.25911
-0.325296
6.30834
-0.0512811
6.1921
0.115284
6.01185
0.179787
5.7896
0.221914
5.61823
0.171411
-0.738663
6.35822
10.6604
0.179359
10.683
-0.0315001
10.738
-0.0546551
10.8074
-0.0807101
10.9023
-0.1224
11.0275
-0.166199
11.1417
-0.147991
11.1801
-0.0319145
11.1275
0.101949
11.0337
0.147096
11.1945
-0.25958
11.7475
-0.863037
12.5656
-1.23914
13.324
-1.08675
13.6221
-0.353204
13.5759
0.160118
13.3352
0.419924
12.8985
0.658346
12.2901
0.780078
-1.4932
13.0474
138.126
0.12539
138.201
-0.107819
138.205
-0.0589245
138.032
0.0917466
137.68
0.229274
137.19
0.323037
136.669
0.374668
136.27
0.365678
135.977
0.395657
135.754
0.367807
135.126
0.366858
133.916
0.346332
132.358
0.321754
130.987
0.289113
130.39
0.249112
130.346
0.206444
130.605
0.161318
131.154
0.108382
131.898
0.0349467
-0.163277
130.563
12.6974
0.181903
12.5967
-0.00724142
12.547
-0.00931713
12.616
0.0225737
12.789
0.0560842
13.0286
0.0830564
13.3019
0.100763
13.5658
0.102291
13.8502
0.110768
14.1132
0.105265
14.3761
0.103956
14.6249
0.09761
14.8588
0.0878899
15.0739
0.0740532
15.2666
0.0564237
15.4369
0.036176
15.5863
0.0120375
15.7154
-0.0206238
15.8281
-0.0777871
-0.255157
15.92
6.88254
6.87526
6.86589
6.88839
6.94437
7.02726
7.12781
7.23021
7.34087
7.44625
7.55027
7.6479
7.7358
7.80986
7.8663
7.90249
7.91456
7.89397
7.81621
7.56109
7.78928
-1.42887
8.02878
-0.241045
7.96523
0.0627777
7.91423
0.051296
7.95751
-0.0427043
8.01697
-0.0594693
8.03471
-0.0177235
8.0279
0.00714807
8.02125
0.00699529
8.02241
-0.000824883
8.0253
-0.00254358
8.02471
0.000958007
8.02236
0.00275497
8.01907
0.00366746
8.01576
0.0036672
8.01274
0.00335806
8.01001
0.00303273
8.00759
0.00270059
8.00551
0.00231903
8.00381
0.00188691
8.00249
0.00145142
8.00149
0.00107736
8.00069
0.000825292
7.99993
0.00072308
7.99906
0.000774697
7.99795
0.000963435
7.99649
0.00126361
7.9946
0.00164218
7.99225
0.00206377
7.98943
0.00249291
7.98618
0.00290172
7.98254
0.00326398
7.97859
0.00356257
7.97441
0.00378681
7.97008
0.00392902
7.96569
0.00399217
7.96132
0.00397971
7.95705
0.00389667
7.95292
0.00375271
7.94901
0.00355892
7.94534
0.00332805
7.94195
0.00307289
7.93884
0.00280784
7.93601
0.00254629
7.93345
0.00230248
7.93112
0.00208714
7.92899
0.0019126
7.92701
0.00178409
7.92513
0.00170444
7.92329
0.00168037
7.92146
0.00170767
7.91957
0.00178423
7.91759
0.00190134
7.91551
0.00203113
7.91338
0.00208903
7.91156
0.00180593
7.91125
0.000312822
7.91642
-0.00511261
7.92766
-0.0112271
7.93947
-0.0118212
7.94668
-0.00724728
7.94795
-0.00131401
7.94492
0.0029933
7.94111
0.00377634
7.93696
0.00408608
7.9326
0.00426069
7.9278
0.00466394
7.92222
0.00540113
7.91548
0.00652177
7.90715
0.00804992
7.89684
0.0099842
7.88415
0.0123093
7.86874
0.0149825
7.85033
0.0179389
7.8287
0.0211053
7.80372
0.0244225
7.77526
0.0278612
7.74314
0.0314567
7.7071
0.0353218
7.66667
0.0396537
7.62115
0.0447077
7.56958
0.0507369
7.51079
0.0579488
7.44349
0.066428
7.36645
0.0761142
7.27855
0.0868082
7.17926
0.0976557
7.06924
0.10837
6.95015
0.117757
6.82424
0.124864
6.69473
0.128594
6.5657
0.128661
6.44093
0.12469
6.32377
0.116713
6.21717
0.105861
6.12313
0.0931074
6.04252
0.0795835
5.97516
0.0662945
5.92007
0.053944
5.87588
0.043038
5.84099
0.0337405
5.81376
0.0260546
5.79272
0.0198588
5.77655
0.0149652
5.76416
0.011165
5.75464
0.00825542
5.74729
0.00605433
5.74155
0.00440684
5.73698
0.00318498
5.73327
0.00228639
5.73015
0.00163065
5.72745
0.0011556
5.72504
0.000813842
5.7228
0.000569617
5.72067
0.000396229
5.7186
0.000273921
5.71654
0.00018819
5.71448
0.000128475
5.71238
8.71416e-05
5.71024
5.8709e-05
5.70805
3.92723e-05
5.7058
2.60677e-05
5.7035
1.71525e-05
5.70113
1.11705e-05
5.6987
7.18116e-06
5.69621
4.5371e-06
5.69366
2.79498e-06
5.69105
1.65411e-06
5.68839
9.11776e-07
5.68567
4.32114e-07
5.6829
1.23731e-07
5.68007
-7.4624e-08
5.6772
-1.99751e-07
5.67427
-2.7739e-07
5.6713
-3.3283e-07
5.66828
-3.64336e-07
5.66521
-3.84129e-07
5.6621
-3.96018e-07
5.65894
-4.02761e-07
5.65574
-4.059e-07
5.65249
-4.06717e-07
5.6492
-4.05606e-07
5.64587
-4.03175e-07
5.64249
-3.99263e-07
5.63906
-3.94106e-07
5.63559
-3.87476e-07
5.63207
-3.79301e-07
5.6285
-3.69522e-07
5.62487
-3.58255e-07
5.62118
-3.45453e-07
5.61743
-3.31112e-07
5.61362
-3.14989e-07
5.60974
-2.9717e-07
5.60578
-2.77623e-07
5.60175
-2.56847e-07
5.59763
-2.34893e-07
5.59343
-2.12245e-07
5.58914
-1.8904e-07
5.58475
-1.65686e-07
5.58028
-1.42147e-07
5.57571
-1.19071e-07
5.57105
-9.58698e-08
5.5663
-7.39565e-08
5.56146
-5.24687e-08
5.55652
-3.44717e-08
5.5515
-1.72076e-08
5.5464
-3.61615e-09
5.54122
8.56016e-09
5.53596
1.64127e-08
5.53063
2.34686e-08
5.52524
2.60025e-08
5.51978
2.79342e-08
5.51427
2.65736e-08
5.50869
2.42653e-08
5.50307
2.00926e-08
5.49739
1.57743e-08
5.49166
9.1768e-09
5.48587
5.05679e-09
5.48003
-2.87037e-09
5.47413
-5.21868e-09
5.46817
-1.35969e-08
5.46215
-1.34805e-08
5.45607
-2.15296e-08
5.44992
-1.83918e-08
5.44372
-2.76723e-08
5.43745
-2.15823e-08
5.43112
-3.59323e-08
5.42473
-2.25627e-08
5.4183
-5.8084e-08
5.41181
-5.6627e-08
5.40527
-2.95182e-07
5.39869
-1.11252e-06
5.39207
-5.8581e-06
5.38544
-2.94654e-05
5.37888
-0.000151852
5.37289
-0.000780583
5.37012
-0.00405579
5.38508
-0.0218551
5.53922
-0.161111
-0.622205
6.15441
14.9719
-3.34962
15.5111
-0.783309
15.4302
0.141737
15.2674
0.214885
15.2842
-0.0585255
15.3865
-0.161739
15.435
-0.0661182
15.4263
0.016489
15.4091
0.0249391
15.4077
0.0011758
15.4146
-0.00868365
15.417
-0.00071213
15.4152
0.0053293
15.4105
0.00910163
15.405
0.00992037
15.3995
0.00958286
15.394
0.00906299
15.3889
0.00844747
15.384
0.00760281
15.3798
0.00649046
15.3763
0.0052246
15.3735
0.00399681
15.3714
0.0030108
15.3696
0.002388
15.3681
0.00218298
15.3663
0.00238674
15.3642
0.00295514
15.3616
0.0038117
15.3582
0.00486256
15.354
0.0060109
15.3491
0.00716072
15.3434
0.00823536
15.337
0.00917363
15.3301
0.00993256
15.3227
0.0104808
15.3151
0.0108191
15.3074
0.0109493
15.2996
0.0108832
15.292
0.0106462
15.2846
0.0102703
15.2774
0.00979396
15.2706
0.00925775
15.2641
0.008709
15.2579
0.00819446
15.2519
0.00776205
15.246
0.00745882
15.2401
0.00732636
15.2341
0.00740148
15.2278
0.00770589
15.2209
0.00826983
15.2132
0.00910418
15.2046
0.0102185
15.1947
0.0116062
15.1834
0.0132061
15.1706
0.0147882
15.1568
0.0155747
15.1441
0.0130101
15.1418
-0.00278112
15.1564
-0.0257525
15.1813
-0.0367156
15.205
-0.0309913
15.22
-0.0163449
15.2244
-0.00144942
15.2235
0.00459653
15.2189
0.00855195
15.2114
0.0115331
15.201
0.0148098
15.1872
0.0188125
15.1695
0.0237655
15.1472
0.0297899
15.1196
0.0369056
15.0861
0.0450698
15.046
0.0541475
14.9991
0.0639227
14.9451
0.0741487
14.8837
0.0846152
14.8151
0.0951974
14.7392
0.105958
14.6558
0.117177
14.5646
0.129363
14.4646
0.143153
14.3546
0.15913
14.2332
0.177685
14.0989
0.198853
13.9505
0.222172
13.7878
0.24646
13.6121
0.270521
13.4257
0.292396
13.2316
0.309835
13.034
0.32073
12.8381
0.323617
12.6488
0.317594
12.4701
0.302416
12.306
0.279421
12.1593
0.250802
12.0315
0.218928
11.9228
0.18623
11.8322
0.154747
11.758
0.125883
11.6982
0.100571
11.6506
0.0790615
11.613
0.0612846
11.5836
0.0469257
11.5606
0.0355441
11.5427
0.0266637
11.5286
0.0198271
11.5174
0.0146243
11.5085
0.0107056
11.5011
0.00778073
11.4949
0.00561596
11.4895
0.00402632
11.4848
0.00286771
11.4803
0.00202928
11.4761
0.00142678
11.4721
0.000996763
11.4681
0.000691921
11.464
0.00047725
11.46
0.000327077
11.4558
0.000222716
11.4516
0.000150666
11.4472
0.000101248
11.4427
6.75749e-05
11.4381
4.47791e-05
11.4334
2.94471e-05
11.4285
1.92021e-05
11.4235
1.24004e-05
11.4184
7.9133e-06
11.4132
4.9722e-06
11.4079
3.05783e-06
11.4024
1.82081e-06
11.3969
1.02713e-06
11.3913
5.14329e-07
11.3855
1.92564e-07
11.3796
-5.73198e-09
11.3737
-1.49427e-07
11.3677
-2.28826e-07
11.3615
-2.7853e-07
11.3553
-3.08636e-07
11.349
-3.26694e-07
11.3426
-3.36719e-07
11.3361
-3.42006e-07
11.3295
-3.43619e-07
11.3228
-3.43273e-07
11.3161
-3.40756e-07
11.3092
-3.36941e-07
11.3023
-3.31585e-07
11.2952
-3.24754e-07
11.2881
-3.1645e-07
11.2808
-3.06908e-07
11.2735
-2.95914e-07
11.266
-2.8373e-07
11.2583
-2.69878e-07
11.2506
-2.54653e-07
11.2426
-2.37784e-07
11.2346
-2.20148e-07
11.2263
-2.01252e-07
11.2179
-1.81863e-07
11.2094
-1.61916e-07
11.2006
-1.42017e-07
11.1916
-1.21635e-07
11.1825
-1.02284e-07
11.1732
-8.17503e-08
11.1637
-6.35187e-08
11.154
-4.34269e-08
11.1441
-2.96959e-08
11.1341
-1.39036e-08
11.1239
-3.5526e-09
11.1135
8.14009e-09
11.103
1.29938e-08
11.0923
2.12632e-08
11.0815
2.13478e-08
11.0706
2.46558e-08
11.0596
2.24161e-08
11.0485
2.11195e-08
11.0372
1.70063e-08
11.0259
1.45549e-08
11.0144
6.7314e-09
11.0028
6.86055e-09
10.9911
-4.61148e-09
10.9793
-2.13959e-10
10.9674
-1.55582e-08
10.9554
-6.70479e-09
10.9432
-2.37969e-08
10.9309
-8.96728e-09
10.9185
-3.04166e-08
10.906
-9.14645e-09
10.8933
-4.34738e-08
10.8805
-2.22872e-09
10.8677
-9.54849e-08
10.8547
-8.70162e-08
10.8416
-7.78168e-07
10.8285
-3.16741e-06
10.8152
-1.70798e-05
10.8019
-8.63433e-05
10.7888
-0.000445221
10.7768
-0.00228724
10.7709
-0.0117875
10.7965
-0.0612397
10.9648
-0.343444
-1.41097
11.7395
127.158
0.0542492
126.416
-0.0378487
126.538
0.0224925
126.7
0.0550664
126.603
0.0406188
126.43
0.014289
126.372
-0.00244837
126.398
-0.00274368
126.431
-0.000187601
126.441
-0.000187339
126.443
-0.00226674
126.456
-0.0036026
126.474
-0.00379478
126.496
-0.00379123
126.518
-0.00393451
126.54
-0.00416187
126.561
-0.00432935
126.58
-0.00440602
126.598
-0.00445289
126.614
-0.00454865
126.627
-0.00473354
126.638
-0.00499628
126.647
-0.0053165
126.655
-0.00564388
126.661
-0.0059487
126.667
-0.00620989
126.672
-0.00642011
126.676
-0.00658128
126.681
-0.00669655
126.686
-0.00677436
126.692
-0.00682172
126.698
-0.00684629
126.705
-0.00684912
126.712
-0.00683262
126.719
-0.00679556
126.727
-0.00673247
126.735
-0.00664976
126.743
-0.00654059
126.751
-0.00639917
126.759
-0.00622868
126.767
-0.00602995
126.774
-0.00580156
126.781
-0.0055432
126.788
-0.00525451
126.794
-0.00493394
126.801
-0.00459485
126.807
-0.00424407
126.813
-0.00389281
126.82
-0.00351408
126.828
-0.00310345
126.836
-0.00264892
126.846
-0.00212506
126.857
-0.00150037
126.869
-0.000928784
126.883
-0.000308639
126.897
0.00015778
126.909
0.000455446
126.905
6.95678e-05
126.882
-0.00301685
126.853
-0.00782159
126.834
-0.0114447
126.831
-0.0135624
126.844
-0.0146721
126.865
-0.0160768
126.895
-0.0184505
126.934
-0.0220744
126.981
-0.0273996
127.037
-0.0345005
127.104
-0.0437497
127.187
-0.0555674
127.29
-0.0703916
127.417
-0.0886347
127.573
-0.11059
127.763
-0.136307
127.991
-0.165438
128.259
-0.197113
128.569
-0.229849
128.921
-0.261647
129.312
-0.290126
129.736
-0.312905
130.189
-0.328059
130.664
-0.335027
131.156
-0.333946
131.66
-0.325978
132.175
-0.312709
132.696
-0.295767
133.221
-0.27601
133.746
-0.254165
134.265
-0.230985
134.77
-0.206418
135.252
-0.181471
135.703
-0.15696
136.115
-0.133605
136.483
-0.111975
136.801
-0.0926185
137.071
-0.0757551
137.293
-0.0613802
137.472
-0.0493542
137.611
-0.0393933
137.717
-0.0312169
137.794
-0.0245576
137.847
-0.0191734
137.881
-0.0148523
137.899
-0.0114117
137.905
-0.00869562
137.902
-0.00657018
137.89
-0.00492181
137.873
-0.0036561
137.85
-0.00269286
137.823
-0.0019667
137.793
-0.00142435
137.76
-0.00102301
137.725
-0.000728702
137.686