/*--------------------------------*- C++ -*----------------------------------*\
| =========                 |                                                 |
| \\      /  F ield         | OpenFOAM: The Open Source CFD Toolbox           |
|  \\    /   O peration     | Version:  3.0.x                                 |
|   \\  /    A nd           | Web:      www.OpenFOAM.org                      |
|    \\/     M anipulation  |                                                 |
\*---------------------------------------------------------------------------*/
FoamFile
{
    version     2.0;
    format      ascii;
    class       volScalarField;
    location    "0.38";
    object      T;
}
// * * * * * * * * * * * * * * * * * * * * * * * * * * * * * * * * * * * * * //

dimensions      [0 0 0 1 0 0 0];

internalField   nonuniform List<scalar> 
6900
(
774.456
774.456
774.456
774.456
774.456
774.456
774.456
774.456
774.456
774.456
774.456
774.456
774.456
774.456
774.456
774.456
774.457
774.457
774.457
774.457
774.456
774.455
774.452
774.449
774.446
774.444
774.442
774.441
774.44
774.44
774.439
774.438
774.437
774.434
774.431
774.428
774.425
774.421
774.417
774.414
774.411
774.408
774.407
774.406
774.406
774.405
774.404
774.403
774.401
774.398
774.396
774.393
774.391
774.39
774.388
774.388
774.387
774.386
774.386
774.386
774.386
774.386
774.386
774.385
774.385
774.385
774.385
774.384
774.384
774.384
774.384
774.384
774.383
774.383
774.383
774.383
774.383
774.383
774.383
774.383
774.384
774.384
774.384
774.384
774.385
774.385
774.385
774.386
774.386
774.387
774.387
774.387
774.388
774.388
774.388
774.388
774.388
774.388
774.388
774.388
774.388
774.388
774.388
774.387
774.387
774.387
774.387
774.386
774.386
774.386
774.386
774.386
774.386
774.386
774.386
774.386
774.386
774.387
774.387
774.387
774.388
774.388
774.389
774.389
774.39
774.391
774.391
774.392
774.392
774.392
774.392
774.393
774.393
774.393
774.392
774.392
774.392
774.392
774.391
774.391
774.391
774.39
774.39
774.389
774.389
774.389
774.388
774.388
774.388
774.388
774.388
774.388
774.389
774.389
774.39
774.39
774.391
774.392
774.392
774.393
774.394
774.395
774.395
774.396
774.396
774.397
774.397
774.397
774.397
774.397
774.397
774.396
774.396
774.395
774.395
774.394
774.393
774.393
774.392
774.392
774.391
774.39
774.39
774.39
774.389
774.389
774.389
774.39
774.39
774.391
774.391
774.392
774.393
774.394
774.395
774.397
774.398
774.4
774.401
774.473
774.453
774.453
774.453
774.453
774.453
774.453
774.453
774.453
774.453
774.453
774.453
774.454
774.454
774.454
774.454
774.454
774.454
774.454
774.454
774.454
774.454
774.452
774.449
774.446
774.444
774.441
774.44
774.439
774.438
774.438
774.437
774.436
774.434
774.432
774.429
774.426
774.423
774.419
774.415
774.412
774.409
774.406
774.405
774.404
774.403
774.403
774.402
774.401
774.399
774.396
774.394
774.392
774.389
774.388
774.387
774.386
774.385
774.385
774.384
774.384
774.384
774.384
774.384
774.384
774.383
774.383
774.383
774.383
774.383
774.382
774.382
774.382
774.382
774.382
774.381
774.381
774.381
774.381
774.381
774.382
774.382
774.382
774.382
774.383
774.383
774.383
774.384
774.384
774.384
774.385
774.385
774.386
774.386
774.386
774.386
774.386
774.386
774.386
774.386
774.386
774.386
774.386
774.386
774.386
774.385
774.385
774.385
774.384
774.384
774.384
774.384
774.384
774.384
774.384
774.384
774.384
774.384
774.385
774.385
774.386
774.386
774.387
774.387
774.388
774.388
774.389
774.389
774.39
774.39
774.39
774.391
774.391
774.391
774.391
774.391
774.391
774.39
774.39
774.39
774.389
774.389
774.388
774.388
774.387
774.387
774.387
774.387
774.386
774.386
774.386
774.386
774.387
774.387
774.387
774.388
774.388
774.389
774.39
774.391
774.391
774.392
774.393
774.394
774.394
774.395
774.395
774.395
774.395
774.395
774.395
774.395
774.394
774.394
774.393
774.393
774.392
774.392
774.391
774.39
774.39
774.389
774.389
774.388
774.388
774.388
774.388
774.388
774.388
774.388
774.389
774.39
774.39
774.391
774.393
774.394
774.395
774.396
774.399
774.399
774.466
774.453
774.453
774.453
774.453
774.453
774.453
774.453
774.453
774.453
774.453
774.453
774.454
774.454
774.454
774.454
774.454
774.454
774.454
774.454
774.454
774.454
774.452
774.449
774.446
774.444
774.441
774.44
774.439
774.438
774.438
774.437
774.436
774.434
774.432
774.429
774.426
774.423
774.419
774.415
774.412
774.409
774.406
774.405
774.404
774.403
774.403
774.402
774.401
774.399
774.396
774.394
774.392
774.389
774.388
774.387
774.386
774.385
774.385
774.384
774.384
774.384
774.384
774.384
774.384
774.383
774.383
774.383
774.383
774.383
774.382
774.382
774.382
774.382
774.382
774.381
774.381
774.381
774.381
774.381
774.382
774.382
774.382
774.382
774.383
774.383
774.383
774.384
774.384
774.384
774.385
774.385
774.386
774.386
774.386
774.386
774.386
774.386
774.386
774.386
774.386
774.386
774.386
774.386
774.386
774.385
774.385
774.385
774.384
774.384
774.384
774.384
774.384
774.384
774.384
774.384
774.384
774.384
774.385
774.385
774.386
774.386
774.387
774.387
774.388
774.388
774.389
774.389
774.39
774.39
774.39
774.391
774.391
774.391
774.391
774.391
774.391
774.39
774.39
774.39
774.389
774.389
774.388
774.388
774.387
774.387
774.387
774.387
774.386
774.386
774.386
774.386
774.387
774.387
774.387
774.388
774.388
774.389
774.39
774.391
774.391
774.392
774.393
774.394
774.394
774.395
774.395
774.395
774.395
774.395
774.395
774.395
774.394
774.394
774.393
774.393
774.392
774.392
774.391
774.39
774.39
774.389
774.389
774.388
774.388
774.388
774.388
774.388
774.388
774.388
774.389
774.39
774.39
774.391
774.393
774.394
774.395
774.396
774.397
774.398
774.403
774.453
774.453
774.453
774.453
774.453
774.453
774.453
774.453
774.453
774.453
774.453
774.454
774.454
774.454
774.454
774.454
774.454
774.454
774.454
774.454
774.454
774.452
774.449
774.446
774.444
774.441
774.44
774.439
774.438
774.438
774.437
774.436
774.434
774.432
774.429
774.426
774.423
774.419
774.415
774.412
774.409
774.406
774.405
774.404
774.403
774.403
774.402
774.401
774.399
774.396
774.394
774.392
774.389
774.388
774.387
774.386
774.385
774.385
774.384
774.384
774.384
774.384
774.384
774.384
774.383
774.383
774.383
774.383
774.383
774.382
774.382
774.382
774.382
774.382
774.381
774.381
774.381
774.381
774.381
774.382
774.382
774.382
774.382
774.383
774.383
774.383
774.384
774.384
774.384
774.385
774.385
774.386
774.386
774.386
774.386
774.386
774.386
774.386
774.386
774.386
774.386
774.386
774.386
774.386
774.385
774.385
774.385
774.384
774.384
774.384
774.384
774.384
774.384
774.384
774.384
774.384
774.384
774.385
774.385
774.386
774.386
774.387
774.387
774.388
774.388
774.389
774.389
774.39
774.39
774.39
774.391
774.391
774.391
774.391
774.391
774.391
774.39
774.39
774.39
774.389
774.389
774.388
774.388
774.387
774.387
774.387
774.387
774.386
774.386
774.386
774.386
774.387
774.387
774.387
774.388
774.388
774.389
774.39
774.391
774.391
774.392
774.393
774.394
774.394
774.395
774.395
774.395
774.395
774.395
774.395
774.395
774.394
774.394
774.393
774.393
774.392
774.392
774.391
774.39
774.39
774.389
774.389
774.388
774.388
774.388
774.388
774.388
774.388
774.388
774.389
774.39
774.39
774.392
774.393
774.394
774.395
774.396
774.395
774.4
774.272
774.456
774.456
774.456
774.456
774.456
774.456
774.456
774.456
774.456
774.456
774.456
774.456
774.456
774.456
774.456
774.456
774.457
774.457
774.457
774.457
774.456
774.455
774.452
774.449
774.446
774.444
774.442
774.441
774.44
774.44
774.439
774.438
774.437
774.434
774.431
774.428
774.425
774.421
774.417
774.414
774.411
774.408
774.407
774.406
774.406
774.405
774.404
774.403
774.401
774.398
774.396
774.393
774.391
774.39
774.388
774.388
774.387
774.386
774.386
774.386
774.386
774.386
774.386
774.385
774.385
774.385
774.385
774.384
774.384
774.384
774.384
774.384
774.383
774.383
774.383
774.383
774.383
774.383
774.383
774.383
774.384
774.384
774.384
774.384
774.385
774.385
774.385
774.386
774.386
774.387
774.387
774.387
774.388
774.388
774.388
774.388
774.388
774.388
774.388
774.388
774.388
774.388
774.388
774.387
774.387
774.387
774.387
774.386
774.386
774.386
774.386
774.386
774.386
774.386
774.386
774.386
774.386
774.387
774.387
774.387
774.388
774.388
774.389
774.389
774.39
774.391
774.391
774.392
774.392
774.392
774.392
774.393
774.393
774.393
774.392
774.392
774.392
774.392
774.391
774.391
774.391
774.39
774.39
774.389
774.389
774.389
774.388
774.388
774.388
774.388
774.388
774.388
774.389
774.389
774.39
774.39
774.391
774.392
774.392
774.393
774.394
774.395
774.395
774.396
774.396
774.397
774.397
774.397
774.397
774.397
774.397
774.396
774.396
774.395
774.395
774.394
774.393
774.393
774.392
774.392
774.391
774.39
774.39
774.39
774.389
774.389
774.389
774.39
774.39
774.391
774.391
774.392
774.393
774.394
774.396
774.397
774.398
774.396
774.41
774.182
774.459
774.472
774.47
774.47
774.467
774.463
774.458
774.455
774.458
774.465
774.452
774.429
774.415
774.398
774.356
774.329
774.333
774.345
774.366
774.275
774.445
774.448
774.446
774.441
774.437
774.431
774.422
774.417
774.418
774.424
774.41
774.379
774.373
774.361
774.32
774.268
774.266
774.279
774.301
774.26
774.403
774.402
774.399
774.395
774.39
774.383
774.376
774.368
774.359
774.351
774.344
774.341
774.337
774.329
774.317
774.308
774.301
774.294
774.286
774.287
774.328
774.33
774.336
774.335
774.328
774.315
774.298
774.274
774.261
774.236
774.216
774.205
774.185
774.164
774.152
774.136
774.124
774.111
774.104
774.095
774.274
774.252
774.25
774.252
774.251
774.247
774.234
774.219
774.203
774.19
774.171
774.161
774.143
774.135
774.121
774.116
774.107
774.109
774.115
774.142
774.125
774.082
774.076
774.044
774.044
774.062
774.063
774.052
774.047
774.049
774.053
774.053
774.052
774.052
774.053
774.054
774.054
774.054
774.055
774.055
774.056
774.056
774.057
774.057
774.058
774.058
774.059
774.059
774.059
774.059
774.059
774.059
774.059
774.058
774.058
774.058
774.057
774.057
774.057
774.056
774.056
774.056
774.056
774.056
774.056
774.055
774.055
774.056
774.056
774.056
774.057
774.058
774.058
774.058
774.058
774.058
774.059
774.059
774.061
774.063
774.064
774.064
774.064
774.064
774.064
774.064
774.065
774.066
774.067
774.069
774.072
774.075
774.078
774.081
774.085
774.087
774.09
774.092
774.097
774.104
774.112
774.119
774.124
774.128
774.133
774.146
774.193
774.287
774.352
774.375
774.373
774.336
774.231
774.144
774.095
774.073
774.067
774.067
774.071
774.08
774.087
774.093
774.098
774.102
774.106
774.109
774.113
774.116
774.119
774.122
774.125
774.128
774.131
774.135
774.138
774.142
774.146
774.15
774.154
774.158
774.162
774.166
774.17
774.175
774.179
774.184
774.188
774.193
774.197
774.202
774.206
774.211
774.216
774.221
774.225
774.23
774.235
774.24
774.244
774.249
774.254
774.259
774.264
774.269
774.275
774.28
774.285
774.291
774.296
774.302
774.307
774.313
774.319
774.325
774.332
774.338
774.345
774.352
774.359
774.366
774.373
774.381
774.388
774.396
774.404
774.412
774.421
774.429
774.438
774.446
774.455
774.464
774.473
774.482
774.491
774.5
774.509
774.518
774.527
774.536
774.545
774.555
774.564
774.573
774.583
774.592
774.602
774.611
774.621
774.63
774.641
774.649
774.661
774.669
774.681
774.688
774.702
774.707
774.729
774.574
774.098
774.09
774.083
774.056
774.061
774.08
774.079
774.068
774.064
774.067
774.07
774.07
774.069
774.069
774.069
774.07
774.07
774.07
774.071
774.071
774.072
774.073
774.073
774.074
774.075
774.075
774.076
774.076
774.076
774.075
774.075
774.075
774.074
774.073
774.073
774.072
774.072
774.072
774.071
774.071
774.071
774.071
774.07
774.07
774.071
774.071
774.071
774.072
774.072
774.073
774.074
774.075
774.075
774.076
774.076
774.078
774.08
774.083
774.085
774.087
774.087
774.086
774.083
774.081
774.081
774.082
774.083
774.084
774.087
774.091
774.094
774.098
774.102
774.104
774.107
774.11
774.116
774.123
774.132
774.14
774.145
774.149
774.152
774.159
774.178
774.235
774.308
774.352
774.367
774.364
774.331
774.239
774.161
774.111
774.086
774.076
774.074
774.075
774.08
774.086
774.091
774.095
774.099
774.102
774.106
774.109
774.111
774.114
774.117
774.12
774.123
774.127
774.13
774.133
774.137
774.14
774.144
774.148
774.152
774.156
774.16
774.164
774.169
774.173
774.177
774.182
774.186
774.191
774.196
774.2
774.205
774.209
774.214
774.219
774.224
774.228
774.233
774.238
774.243
774.248
774.253
774.258
774.263
774.268
774.273
774.278
774.283
774.289
774.294
774.3
774.306
774.312
774.318
774.324
774.33
774.336
774.343
774.35
774.357
774.364
774.372
774.379
774.387
774.395
774.403
774.411
774.419
774.427
774.436
774.445
774.453
774.462
774.471
774.48
774.489
774.498
774.507
774.516
774.525
774.534
774.544
774.553
774.562
774.571
774.581
774.59
774.6
774.609
774.619
774.628
774.639
774.648
774.659
774.667
774.679
774.686
774.7
774.705
774.721
774.639
774.295
774.299
774.313
774.324
774.331
774.331
774.329
774.329
774.329
774.329
774.328
774.327
774.326
774.326
774.326
774.326
774.327
774.328
774.328
774.329
774.329
774.328
774.326
774.325
774.323
774.322
774.32
774.318
774.317
774.316
774.315
774.314
774.313
774.313
774.314
774.314
774.315
774.316
774.316
774.317
774.317
774.317
774.317
774.316
774.316
774.316
774.316
774.317
774.318
774.319
774.321
774.323
774.325
774.327
774.331
774.335
774.339
774.343
774.347
774.349
774.35
774.351
774.351
774.348
774.333
774.293
774.244
774.201
774.166
774.138
774.118
774.104
774.097
774.093
774.093
774.094
774.095
774.099
774.103
774.108
774.111
774.114
774.115
774.116
774.115
774.112
774.109
774.105
774.102
774.099
774.096
774.094
774.094
774.094
774.094
774.095
774.096
774.098
774.099
774.1
774.102
774.103
774.105
774.107
774.109
774.111
774.113
774.116
774.118
774.121
774.124
774.127
774.13
774.133
774.137
774.14
774.144
774.148
774.152
774.156
774.16
774.164
774.169
774.173
774.177
774.182
774.186
774.191
774.196
774.2
774.205
774.209
774.214
774.219
774.224
774.228
774.233
774.238
774.243
774.248
774.253
774.258
774.263
774.268
774.273
774.278
774.283
774.289
774.294
774.3
774.306
774.312
774.318
774.324
774.33
774.336
774.343
774.35
774.357
774.364
774.372
774.379
774.387
774.395
774.403
774.411
774.419
774.427
774.436
774.445
774.453
774.462
774.471
774.48
774.489
774.498
774.507
774.516
774.525
774.534
774.544
774.553
774.562
774.572
774.581
774.59
774.6
774.609
774.619
774.629
774.638
774.649
774.658
774.669
774.677
774.689
774.698
774.708
774.72
774.729
774.072
774.066
774.059
774.058
774.06
774.06
774.058
774.057
774.058
774.06
774.06
774.061
774.061
774.062
774.062
774.063
774.063
774.064
774.064
774.064
774.064
774.064
774.065
774.065
774.065
774.065
774.066
774.066
774.067
774.067
774.067
774.068
774.068
774.068
774.068
774.068
774.068
774.068
774.068
774.067
774.067
774.067
774.067
774.066
774.066
774.066
774.065
774.065
774.065
774.064
774.064
774.063
774.063
774.063
774.063
774.064
774.065
774.066
774.067
774.068
774.069
774.07
774.07
774.072
774.073
774.074
774.076
774.079
774.081
774.083
774.087
774.092
774.097
774.101
774.105
774.113
774.126
774.14
774.149
774.156
774.165
774.187
774.222
774.254
774.274
774.281
774.281
774.271
774.227
774.165
774.119
774.09
774.076
774.071
774.071
774.072
774.076
774.082
774.087
774.091
774.095
774.098
774.101
774.104
774.107
774.109
774.112
774.115
774.118
774.121
774.124
774.127
774.13
774.133
774.137
774.14
774.144
774.148
774.152
774.156
774.16
774.164
774.169
774.173
774.177
774.182
774.186
774.191
774.196
774.2
774.205
774.209
774.214
774.219
774.224
774.228
774.233
774.238
774.243
774.248
774.253
774.258
774.263
774.268
774.273
774.278
774.283
774.289
774.294
774.3
774.306
774.312
774.318
774.324
774.33
774.336
774.343
774.35
774.357
774.364
774.372
774.379
774.387
774.395
774.403
774.411
774.419
774.427
774.436
774.445
774.453
774.462
774.471
774.48
774.489
774.498
774.507
774.516
774.525
774.534
774.544
774.553
774.562
774.572
774.581
774.59
774.6
774.609
774.619
774.629
774.638
774.649
774.658
774.669
774.677
774.689
774.697
774.711
774.72
774.778
774.195
774.196
774.191
774.187
774.188
774.189
774.188
774.187
774.188
774.189
774.19
774.19
774.191
774.191
774.191
774.191
774.191
774.191
774.191
774.191
774.19
774.19
774.191
774.191
774.191
774.192
774.192
774.193
774.193
774.193
774.193
774.193
774.192
774.192
774.192
774.191
774.19
774.19
774.189
774.188
774.187
774.187
774.186
774.184
774.183
774.182
774.182
774.181
774.18
774.18
774.18
774.18
774.18
774.181
774.182
774.183
774.184
774.185
774.185
774.185
774.185
774.185
774.186
774.187
774.188
774.189
774.19
774.192
774.195
774.197
774.199
774.202
774.207
774.217
774.226
774.231
774.234
774.236
774.241
774.259
774.326
774.41
774.458
774.472
774.467
774.43
774.337
774.258
774.2
774.161
774.135
774.118
774.109
774.103
774.1
774.099
774.099
774.099
774.1
774.101
774.103
774.104
774.106
774.108
774.11
774.112
774.115
774.117
774.12
774.123
774.126
774.129
774.132
774.135
774.139
774.142
774.146
774.15
774.154
774.158
774.162
774.166
774.17
774.175
774.179
774.184
774.188
774.193
774.197
774.202
774.206
774.211
774.216
774.221
774.225
774.23
774.235
774.24
774.244
774.249
774.254
774.259
774.264
774.269
774.275
774.28
774.285
774.291
774.296
774.302
774.307
774.313
774.319
774.325
774.332
774.338
774.345
774.352
774.359
774.366
774.373
774.381
774.388
774.396
774.404
774.412
774.421
774.429
774.438
774.446
774.455
774.464
774.473
774.482
774.491
774.5
774.509
774.518
774.527
774.536
774.545
774.555
774.564
774.573
774.583
774.592
774.601
774.611
774.621
774.631
774.64
774.65
774.659
774.67
774.679
774.691
774.698
774.713
774.722
774.78
774.632
774.613
774.612
774.615
774.615
774.612
774.601
774.594
774.582
774.574
774.561
774.551
774.541
774.533
774.526
774.521
774.516
774.517
774.525
774.557
774.674
774.679
774.686
774.684
774.68
774.67
774.654
774.643
774.628
774.615
774.6
774.584
774.576
774.567
774.553
774.543
774.537
774.53
774.524
774.522
774.738
774.74
774.741
774.74
774.737
774.734
774.731
774.728
774.725
774.72
774.717
774.711
774.706
774.704
774.704
774.705
774.715
774.724
774.725
774.713
774.777
774.782
774.783
774.783
774.783
774.784
774.786
774.778
774.769
774.762
774.744
774.731
774.736
774.752
774.771
774.757
774.695
774.661
774.644
774.624
774.788
774.805
774.809
774.811
774.812
774.814
774.817
774.81
774.804
774.799
774.784
774.779
774.785
774.799
774.815
774.796
774.755
774.725
774.687
774.654
774.617
774.64
774.656
774.668
774.677
774.692
774.709
774.723
774.735
774.748
774.761
774.774
774.787
774.8
774.813
774.826
774.839
774.852
774.865
774.878
774.892
774.905
774.919
774.932
774.946
774.96
774.974
774.987
775.002
775.016
775.03
775.045
775.06
775.075
775.091
775.106
775.122
775.138
775.154
775.17
775.186
775.203
775.219
775.235
775.251
775.267
775.283
775.299
775.316
775.333
775.35
775.367
775.384
775.401
775.419
775.437
775.455
775.472
775.49
775.508
775.526
775.544
775.563
775.583
775.601
775.62
775.639
775.658
775.679
775.699
775.72
775.741
775.764
775.79
775.82
775.849
775.871
775.884
775.897
775.924
775.999
776.117
776.208
776.256
776.269
776.263
776.219
776.147
776.099
776.076
776.071
776.072
776.078
776.088
776.112
776.126
776.155
776.169
776.206
776.144
774.522
774.524
774.538
774.553
774.559
774.568
774.587
774.601
774.612
774.624
774.636
774.649
774.661
774.674
774.687
774.7
774.713
774.726
774.74
774.753
774.767
774.781
774.795
774.809
774.823
774.837
774.852
774.866
774.881
774.896
774.911
774.926
774.941
774.956
774.971
774.987
775.003
775.019
775.035
775.051
775.068
775.084
775.101
775.118
775.135
775.151
775.168
775.185
775.202
775.219
775.236
775.253
775.27
775.287
775.305
775.323
775.34
775.358
775.376
775.395
775.413
775.431
775.45
775.469
775.488
775.507
775.527
775.547
775.568
775.588
775.608
775.63
775.655
775.68
775.701
775.724
775.757
775.793
775.822
775.845
775.869
775.906
775.956
776.013
776.067
776.105
776.125
776.129
776.124
776.094
776.064
776.054
776.054
776.058
776.077
776.097
776.134
776.15
776.192
776.176
774.717
774.769
774.803
774.818
774.828
774.842
774.857
774.87
774.881
774.89
774.901
774.911
774.922
774.932
774.943
774.955
774.966
774.978
774.991
775.004
775.017
775.03
775.044
775.058
775.073
775.087
775.102
775.115
775.129
775.143
775.156
775.17
775.184
775.199
775.214
775.229
775.245
775.261
775.277
775.294
775.31
775.327
775.343
775.36
775.377
775.394
775.411
775.429
775.447
775.466
775.485
775.504
775.523
775.541
775.56
775.581
775.601
775.622
775.643
775.665
775.687
775.709
775.728
775.74
775.745
775.743
775.729
775.699
775.674
775.662
775.66
775.662
775.666
775.678
775.695
775.714
775.736
775.758
775.781
775.805
775.829
775.851
775.873
775.893
775.913
775.932
775.95
775.969
775.985
776.004
776.021
776.041
776.061
776.082
776.104
776.128
776.146
776.175
776.194
776.218
774.498
774.544
774.566
774.594
774.601
774.591
774.589
774.612
774.633
774.639
774.644
774.655
774.669
774.682
774.693
774.705
774.718
774.731
774.744
774.758
774.771
774.785
774.799
774.814
774.828
774.843
774.857
774.872
774.887
774.902
774.917
774.932
774.948
774.964
774.98
774.996
775.012
775.028
775.044
775.06
775.076
775.092
775.107
775.124
775.14
775.156
775.173
775.19
775.207
775.224
775.242
775.26
775.278
775.296
775.314
775.332
775.35
775.368
775.386
775.405
775.423
775.441
775.459
775.478
775.496
775.515
775.535
775.555
775.577
775.598
775.619
775.64
775.66
775.682
775.705
775.729
775.754
775.779
775.806
775.834
775.862
775.884
775.899
775.914
775.944
776.017
776.118
776.204
776.255
776.272
776.267
776.226
776.158
776.123
776.112
776.113
776.12
776.148
776.172
776.221
774.497
774.548
774.553
774.578
774.588
774.576
774.572
774.589
774.612
774.622
774.627
774.636
774.652
774.665
774.677
774.689
774.702
774.715
774.729
774.742
774.756
774.77
774.784
774.798
774.813
774.827
774.842
774.857
774.872
774.886
774.901
774.917
774.932
774.948
774.964
774.98
774.996
775.012
775.028
775.044
775.06
775.077
775.093
775.109
775.125
775.142
775.158
775.175
775.192
775.209
775.226
775.244
775.261
775.28
775.298
775.316
775.334
775.352
775.37
775.388
775.406
775.425
775.443
775.462
775.48
775.499
775.517
775.537
775.556
775.577
775.598
775.619
775.64
775.661
775.682
775.703
775.726
775.749
775.773
775.798
775.825
775.855
775.883
775.902
775.915
775.934
775.981
776.093
776.208
776.279
776.302
776.298
776.25
776.172
776.131
776.12
776.121
776.136
776.162
776.212
776.166
776.157
776.16
776.163
776.165
776.163
776.161
776.157
776.154
776.149
776.146
776.141
776.137
776.136
776.134
776.135
776.136
776.139
776.147
776.168
776.187
776.194
776.197
776.2
776.2
776.197
776.19
776.186
776.178
776.176
776.169
776.162
776.159
776.157
776.155
776.153
776.153
776.15
776.15
776.146
776.234
776.239
776.243
776.247
776.25
776.252
776.255
776.257
776.259
776.261
776.263
776.267
776.273
776.283
776.286
776.287
776.29
776.297
776.304
776.311
776.242
776.256
776.262
776.27
776.276
776.28
776.284
776.288
776.293
776.304
776.321
776.318
776.295
776.281
776.287
776.283
776.261
776.259
776.277
776.283
776.245
776.268
776.277
776.285
776.293
776.299
776.304
776.309
776.317
776.333
776.346
776.342
776.327
776.312
776.314
776.309
776.294
776.295
776.319
776.317
776.207
776.248
776.278
776.309
776.345
776.381
776.412
776.442
776.475
776.507
776.539
776.569
776.597
776.625
776.652
776.678
776.705
776.731
776.757
776.783
776.808
776.834
776.861
776.887
776.914
776.941
776.968
776.995
777.022
777.049
777.076
777.103
777.13
777.156
777.183
777.21
777.237
777.264
777.291
777.318
777.345
777.373
777.401
777.428
777.456
777.484
777.512
777.54
777.567
777.595
777.623
777.651
777.679
777.708
777.736
777.764
777.792
777.82
777.849
777.878
777.906
777.933
777.961
777.99
778.02
778.049
778.077
778.105
778.136
778.176
778.218
778.251
778.269
778.283
778.313
778.401
778.545
778.653
778.707
778.719
778.708
778.65
778.582
778.548
778.538
778.537
778.54
778.553
778.577
778.602
778.629
778.656
778.684
778.711
778.739
778.767
778.795
778.823
778.85
778.878
778.906
778.934
778.961
778.989
779.016
779.043
779.071
779.098
779.125
779.152
779.179
779.206
779.233
779.26
779.287
779.313
779.34
779.366
779.393
779.419
779.446
779.472
779.498
779.525
779.551
779.577
779.603
779.629
779.655
779.681
779.707
779.733
779.759
779.785
779.811
779.836
779.862
779.888
779.913
779.939
779.964
779.99
780.015
780.04
780.065
780.091
780.116
780.14
780.165
780.19
780.215
780.239
780.263
780.288
780.312
780.336
780.36
780.384
780.407
780.431
780.454
780.478
780.501
780.524
780.547
780.57
780.593
780.615
780.638
780.66
780.683
780.705
780.727
780.749
780.771
780.793
780.815
780.837
780.858
780.88
780.9
780.923
780.942
780.966
780.984
781.009
781.026
781.051
781.067
781.093
781.108
781.135
781.149
781.175
781.191
781.211
781.236
781.249
781.274
781.293
776.161
776.177
776.202
776.231
776.265
776.295
776.322
776.35
776.378
776.407
776.434
776.46
776.486
776.512
776.539
776.565
776.59
776.615
776.641
776.666
776.692
776.717
776.743
776.769
776.795
776.821
776.848
776.875
776.902
776.929
776.956
776.984
777.011
777.039
777.066
777.094
777.121
777.148
777.175
777.202
777.23
777.257
777.285
777.313
777.34
777.368
777.396
777.424
777.452
777.48
777.508
777.536
777.564
777.592
777.621
777.649
777.677
777.705
777.734
777.763
777.791
777.819
777.848
777.879
777.909
777.936
777.964
777.998
778.033
778.061
778.088
778.127
778.173
778.213
778.242
778.271
778.314
778.374
778.445
778.511
778.557
778.576
778.578
778.569
778.541
778.525
778.522
778.524
778.538
778.572
778.606
778.639
778.67
778.701
778.731
778.761
778.79
778.819
778.847
778.876
778.904
778.931
778.959
778.987
779.014
779.042
779.069
779.096
779.124
779.151
779.178
779.205
779.231
779.258
779.285
779.312
779.338
779.365
779.391
779.418
779.444
779.471
779.497
779.523
779.549
779.576
779.602
779.628
779.654
779.68
779.706
779.732
779.758
779.783
779.809
779.835
779.861
779.886
779.912
779.937
779.963
779.988
780.014
780.039
780.064
780.089
780.114
780.139
780.164
780.188
780.213
780.238
780.262
780.286
780.31
780.334
780.358
780.382
780.406
780.429
780.453
780.476
780.499
780.523
780.546
780.568
780.591
780.614
780.636
780.659
780.681
780.703
780.726
780.748
780.77
780.792
780.813
780.835
780.856
780.879
780.899
780.922
780.941
780.965
780.983
781.007
781.024
781.05
781.065
781.092
781.106
781.133
781.147
781.174
781.187
781.215
781.227
781.254
781.269
781.292
776.38
776.408
776.458
776.498
776.537
776.569
776.596
776.623
776.649
776.674
776.697
776.719
776.742
776.765
776.789
776.813
776.838
776.863
776.888
776.913
776.938
776.963
776.988
777.013
777.038
777.064
777.09
777.117
777.144
777.172
777.199
777.227
777.254
777.282
777.309
777.337
777.365
777.392
777.42
777.448
777.476
777.503
777.53
777.558
777.587
777.616
777.644
777.673
777.701
777.73
777.76
777.792
777.823
777.855
777.887
777.92
777.954
777.986
778.012
778.031
778.04
778.04
778.03
778.01
778.003
778.003
778.006
778.014
778.034
778.057
778.084
778.113
778.144
778.175
778.206
778.236
778.265
778.293
778.321
778.347
778.373
778.397
778.421
778.444
778.468
778.492
778.517
778.543
778.571
778.598
778.626
778.654
778.682
778.71
778.738
778.766
778.794
778.821
778.849
778.877
778.905
778.932
778.96
778.987
779.015
779.042
779.069
779.096
779.124
779.151
779.178
779.205
779.231
779.258
779.285
779.312
779.338
779.365
779.391
779.418
779.444
779.471
779.497
779.523
779.549
779.576
779.602
779.628
779.654
779.68
779.706
779.732
779.758
779.783
779.809
779.835
779.861
779.886
779.912
779.937
779.963
779.988
780.014
780.039
780.064
780.089
780.114
780.139
780.164
780.188
780.213
780.238
780.262
780.286
780.31
780.334
780.358
780.382
780.406
780.429
780.453
780.476
780.499
780.523
780.546
780.568
780.591
780.614
780.636
780.659
780.681
780.703
780.726
780.748
780.77
780.792
780.813
780.835
780.856
780.878
780.899
780.921
780.942
780.964
780.984
781.006
781.026
781.047
781.068
781.09
781.108
781.132
781.149
781.171
781.192
781.21
781.23
781.252
781.27
781.291
776.231
776.25
776.281
776.279
776.291
776.345
776.375
776.381
776.394
776.428
776.455
776.475
776.495
776.519
776.544
776.568
776.592
776.617
776.642
776.668
776.694
776.721
776.747
776.774
776.801
776.828
776.855
776.882
776.909
776.936
776.963
776.99
777.017
777.044
777.071
777.098
777.126
777.153
777.181
777.209
777.237
777.265
777.294
777.322
777.35
777.379
777.408
777.436
777.464
777.491
777.519
777.547
777.574
777.601
777.629
777.658
777.686
777.714
777.742
777.77
777.799
777.827
777.855
777.885
777.916
777.946
777.975
778.003
778.031
778.061
778.092
778.124
778.157
778.193
778.234
778.273
778.302
778.318
778.336
778.373
778.468
778.588
778.681
778.728
778.737
778.722
778.661
778.611
778.591
778.589
778.596
778.624
778.662
778.696
778.728
778.758
778.788
778.818
778.846
778.875
778.903
778.931
778.959
778.987
779.014
779.042
779.069
779.096
779.124
779.151
779.178
779.205
779.231
779.258
779.285
779.312
779.338
779.365
779.391
779.418
779.444
779.471
779.497
779.523
779.549
779.576
779.602
779.628
779.654
779.68
779.706
779.732
779.758
779.783
779.809
779.835
779.861
779.886
779.912
779.937
779.963
779.988
780.014
780.039
780.064
780.089
780.114
780.139
780.164
780.188
780.213
780.238
780.262
780.286
780.31
780.334
780.358
780.382
780.406
780.429
780.453
780.476
780.499
780.523
780.546
780.568
780.591
780.614
780.636
780.659
780.681
780.703
780.726
780.748
780.77
780.791
780.813
780.835
780.857
780.877
780.901
780.919
780.944
780.962
780.986
781.003
781.029
781.045
781.071
781.086
781.113
781.126
781.154
781.167
781.195
781.207
781.234
781.249
781.268
781.296
776.231
776.241
776.267
776.262
776.268
776.308
776.348
776.359
776.371
776.399
776.427
776.45
776.474
776.498
776.524
776.55
776.575
776.6
776.626
776.652
776.678
776.705
776.731
776.758
776.785
776.812
776.84
776.867
776.894
776.921
776.948
776.975
777.002
777.029
777.057
777.084
777.111
777.139
777.166
777.194
777.222
777.25
777.278
777.306
777.334
777.362
777.391
777.419
777.446
777.474
777.502
777.53
777.558
777.586
777.614
777.641
777.67
777.698
777.727
777.755
777.783
777.811
777.84
777.868
777.896
777.925
777.956
777.986
778.014
778.042
778.071
778.1
778.13
778.159
778.191
778.229
778.271
778.308
778.33
778.345
778.369
778.434
778.58
778.705