/*--------------------------------*- C++ -*----------------------------------*\
| =========                 |                                                 |
| \\      /  F ield         | OpenFOAM: The Open Source CFD Toolbox           |
|  \\    /   O peration     | Version:  3.0.x                                 |
|   \\  /    A nd           | Web:      www.OpenFOAM.org                      |
|    \\/     M anipulation  |                                                 |
\*---------------------------------------------------------------------------*/
FoamFile
{
    version     2.0;
    format      ascii;
    class       surfaceScalarField;
    location    "0.49";
    object      phi;
}
// * * * * * * * * * * * * * * * * * * * * * * * * * * * * * * * * * * * * * //

dimensions      [1 0 -1 0 0 0 0];

internalField   nonuniform List<scalar> 
12415
(
5.79939
0.000327793
5.79695
0.000234736
5.7945
0.000225378
5.79204
0.000226967
5.78957
0.000227367
5.78709
0.00022717
5.7846
0.000227122
5.78209
0.000227134
5.77956
0.000227145
5.77702
0.000227156
5.77446
0.00022717
5.77186
0.000227186
5.76924
0.000227204
5.76659
0.000227223
5.76391
0.000227244
5.76118
0.000227266
5.75841
0.000227289
5.7556
0.000227313
5.75273
0.000227339
5.74982
0.000227367
5.74686
0.000227396
5.74383
0.000227427
5.74075
0.00022746
5.73762
0.000227495
5.73442
0.000227531
5.73116
0.000227569
5.72783
0.000227609
5.72445
0.000227652
5.721
0.000227697
5.71749
0.000227746
5.71392
0.000227798
5.71028
0.000227854
5.70658
0.000227915
5.70282
0.000227982
5.69899
0.000228054
5.6951
0.000228133
5.69115
0.000228217
5.68714
0.000228307
5.68306
0.000228403
5.67892
0.000228509
5.67472
0.000228624
5.67045
0.000228748
5.66611
0.000228882
5.66168
0.000229021
5.65718
0.000229164
5.65258
0.000229311
5.6479
0.000229463
5.64313
0.000229619
5.63827
0.000229782
5.63332
0.000229949
5.62828
0.000230121
5.62313
0.000230294
5.61789
0.000230467
5.61254
0.000230636
5.60709
0.000230799
5.60153
0.000230953
5.59587
0.000231084
5.59009
0.000231186
5.5842
0.000231237
5.57819
0.000231218
5.57208
0.000231105
5.56585
0.000230871
5.55952
0.000230487
5.55309
0.000229916
5.54657
0.000229116
5.53995
0.000228038
5.53325
0.000226629
5.52646
0.000224833
5.51958
0.00022259
5.51261
0.000219842
5.50557
0.000216534
5.49844
0.000212618
5.49122
0.000208054
5.48393
0.000202814
5.47656
0.000196884
5.4691
0.000190266
5.46157
0.00018298
5.45395
0.000175064
5.44625
0.000166574
5.43846
0.000157582
5.43058
0.000148177
5.42261
0.000138459
5.41454
0.000128538
5.40636
0.000118529
5.39808
0.000108549
5.38969
9.87116e-05
5.38118
8.91249e-05
5.37256
7.98871e-05
5.36381
7.10842e-05
5.35493
6.27877e-05
5.34592
5.50529e-05
5.33678
4.79191e-05
5.32751
4.14092e-05
5.3181
3.55307e-05
5.30855
3.02773e-05
5.29887
2.56305e-05
5.28905
2.15622e-05
5.27911
1.80361e-05
5.26903
1.50101e-05
5.25883
1.24387e-05
5.24851
1.02746e-05
5.23807
8.47078e-06
5.22751
6.9815e-06
5.21685
5.76336e-06
5.20609
4.77613e-06
5.19522
3.98327e-06
5.18426
3.35226e-06
5.17321
2.85452e-06
5.16207
2.46546e-06
5.15084
2.1641e-06
5.13953
1.93294e-06
5.12813
1.75713e-06
5.11664
1.62464e-06
5.10506
1.52562e-06
5.09339
1.45265e-06
5.08163
1.39982e-06
5.06977
1.36267e-06
5.05781
1.3374e-06
5.04575
1.32139e-06
5.03358
1.31261e-06
5.0213
1.30981e-06
5.0089
1.31206e-06
4.99638
1.31836e-06
4.98374
1.328e-06
4.97096
1.34022e-06
4.95805
1.35486e-06
4.945
1.37192e-06
4.93181
1.3912e-06
4.91847
1.41262e-06
4.90499
1.43552e-06
4.89135
1.45957e-06
4.87756
1.48446e-06
4.86362
1.50977e-06
4.84951
1.53536e-06
4.83526
1.56091e-06
4.82085
1.58592e-06
4.8063
1.60985e-06
4.79159
1.63188e-06
4.77675
1.65148e-06
4.76176
1.66815e-06
4.74665
1.68167e-06
4.73141
1.69181e-06
4.71605
1.69812e-06
4.70059
1.70063e-06
4.68502
1.69963e-06
4.66935
1.69513e-06
4.65359
1.68729e-06
4.63775
1.67645e-06
4.62182
1.66279e-06
4.60581
1.64674e-06
4.58973
1.62875e-06
4.57357
1.60943e-06
4.55734
1.58947e-06
4.54102
1.56962e-06
4.52463
1.54992e-06
4.50816
1.53069e-06
4.4916
1.51195e-06
4.47495
1.49342e-06
4.45822
1.47593e-06
4.44139
1.45971e-06
4.42446
1.44475e-06
4.40744
1.4301e-06
4.39032
1.41605e-06
4.3731
1.40186e-06
4.35578
1.38836e-06
4.33836
1.37452e-06
4.32083
1.36152e-06
4.3032
1.34841e-06
4.28547
1.33627e-06
4.26763
1.32456e-06
4.24968
1.31406e-06
4.23162
1.30321e-06
4.21345
1.29508e-06
4.19516
1.28537e-06
4.17675
1.28131e-06
4.15822
1.27311e-06
4.13957
1.27334e-06
4.12079
1.26338e-06
4.10188
1.26664e-06
4.08285
1.24945e-06
4.0637
1.26046e-06
4.04443
1.22508e-06
4.02504
1.26141e-06
4.00554
1.17185e-06
3.98593
1.28468e-06
3.96622
1.06829e-06
3.9464
1.34148e-06
3.92651
9.08656e-07
3.90652
1.44651e-06
3.88646
6.31564e-07
3.86632
1.7421e-06
3.84612
1.41816e-07
3.82585
2.82708e-06
3.80554
2.96131e-06
3.78516
2.6902e-05
3.7646
0.000164777
3.74305
0.00111632
3.71509
0.00750874
3.63317
0.06145
0.261992
3.35064
11.5996
0.000260416
11.5952
0.000214636
11.5907
0.000190813
11.5863
0.000194452
11.5819
0.000195489
11.5774
0.000194943
11.5729
0.000194794
11.5684
0.000194813
11.5638
0.000194828
11.5592
0.000194841
11.5545
0.000194859
11.5499
0.000194881
11.5451
0.000194904
11.5403
0.00019493
11.5354
0.000194957
11.5304
0.000194986
11.5254
0.000195016
11.5202
0.000195048
11.515
0.00019508
11.5097
0.000195115
11.5042
0.000195151
11.4987
0.000195188
11.493
0.000195227
11.4872
0.000195268
11.4813
0.00019531
11.4752
0.000195354
11.4691
0.000195399
11.4628
0.000195447
11.4564
0.000195497
11.4499
0.00019555
11.4432
0.000195605
11.4364
0.000195665
11.4295
0.000195729
11.4225
0.000195797
11.4153
0.00019587
11.408
0.000195949
11.4006
0.000196032
11.3931
0.000196121
11.3854
0.000196215
11.3776
0.000196317
11.3697
0.000196427
11.3616
0.000196546
11.3534
0.000196671
11.3451
0.000196801
11.3366
0.000196936
11.3279
0.000197074
11.319
0.000197216
11.3099
0.000197363
11.3007
0.000197514
11.2913
0.000197669
11.2817
0.000197828
11.2719
0.000197988
11.2619
0.000198148
11.2517
0.000198305
11.2413
0.000198456
11.2307
0.0001986
11.2198
0.000198722
11.2088
0.000198818
11.1975
0.000198869
11.186
0.00019886
11.1742
0.000198767
11.1623
0.000198569
11.1501
0.000198239
11.1377
0.000197745
11.1252
0.000197049
11.1124
0.000196109
11.0995
0.00019488
11.0864
0.000193312
11.0731
0.000191354
11.0597
0.000188955
11.046
0.000186068
11.0322
0.000182653
11.0183
0.000178675
11.0041
0.00017411
10.9898
0.00016895
10.9753
0.000163195
10.9606
0.000156866
10.9457
0.000149996
10.9307
0.000142636
10.9155
0.000134849
10.9
0.000126713
10.8844
0.000118317
10.8685
0.000109756
10.8524
0.000101129
10.8361
9.25372e-05
10.8195
8.40791e-05
10.8027
7.58469e-05
10.7856
6.79246e-05
10.7683
6.03848e-05
10.7506
5.32879e-05
10.7327
4.66801e-05
10.7146
4.05935e-05
10.6961
3.50465e-05
10.6774
3.0044e-05
10.6583
2.55793e-05
10.639
2.16353e-05
10.6194
1.81869e-05
10.5996
1.5202e-05
10.5795
1.26441e-05
10.5591
1.04734e-05
10.5385
8.64916e-06
10.5176
7.13082e-06
10.4965
5.87911e-06
10.4752
4.85679e-06
10.4537
4.02937e-06
10.432
3.36562e-06
10.41
2.83779e-06
10.3879
2.42161e-06
10.3657
2.09623e-06
10.3432
1.84397e-06
10.3206
1.6502e-06
10.2978
1.50254e-06
10.2748
1.39101e-06
10.2517
1.30746e-06
10.2283
1.24575e-06
10.2048
1.20097e-06
10.1811
1.16942e-06
10.1572
1.14793e-06
10.1331
1.13432e-06
10.1087
1.12685e-06
10.0842
1.12451e-06
10.0594
1.12644e-06
10.0343
1.13188e-06
10.009
1.14013e-06
9.98349
1.15065e-06
9.95767
1.16322e-06
9.93158
1.17788e-06
9.9052
1.19444e-06
9.87853
1.21281e-06
9.85156
1.23248e-06
9.82429
1.25312e-06
9.79671
1.27447e-06
9.76882
1.29623e-06
9.74062
1.31817e-06
9.71212
1.34013e-06
9.68331
1.36156e-06
9.65419
1.38214e-06
9.62479
1.40103e-06
9.5951
1.41786e-06
9.56514
1.4322e-06
9.53491
1.44379e-06
9.50444
1.45251e-06
9.47373
1.45796e-06
9.4428
1.46011e-06
9.41166
1.45934e-06
9.38033
1.45536e-06
9.34882
1.44879e-06
9.31713
1.43946e-06
9.28528
1.42775e-06
9.25327
1.41398e-06
9.22111
1.39863e-06
9.18879
1.38206e-06
9.15632
1.3649e-06
9.1237
1.34794e-06
9.09092
1.33108e-06
9.05798
1.31452e-06
9.02486
1.2986e-06
8.99157
1.28265e-06
8.9581
1.26768e-06
8.92445
1.25356e-06
8.8906
1.24104e-06
8.85656
1.22843e-06
8.82232
1.21674e-06
8.78788
1.20383e-06
8.75325
1.19282e-06
8.7184
1.1806e-06
8.68335
1.17008e-06
8.6481
1.15808e-06
8.61264
1.14809e-06
8.57696
1.13785e-06
8.54107
1.12989e-06
8.50495
1.11863e-06
8.46861
1.11423e-06
8.43203
1.10218e-06
8.39522
1.10423e-06
8.35816
1.09013e-06
8.32085
1.09977e-06
8.28329
1.07826e-06
8.24548
1.09879e-06
8.20743
1.05825e-06
8.16912
1.10659e-06
8.13058
1.01531e-06
8.09181
1.14757e-06
8.05281
9.0109e-07
8.01359
1.27401e-06
7.97417
6.58932e-07
7.93455
1.52074e-06
7.89475
2.72267e-07
7.85478
1.93909e-06
7.81466
-4.44978e-07
7.77438
2.97185e-06
7.73399
-1.78458e-06
7.69346
6.41396e-06
7.65284
6.70174e-06
7.61207
7.82551e-05
7.57096
0.00048796
7.5279
0.00331645
7.47234
0.0221581
7.33755
0.155278
0.639281
6.91924
139.194
-0.000260416
139.142
-0.000214636
139.089
-0.000190813
139.036
-0.000194452
138.982
-0.000195489
138.929
-0.000194943
138.874
-0.000194794
138.82
-0.000194813
138.765
-0.000194828
138.71
-0.000194841
138.654
-0.000194859
138.598
-0.000194881
138.541
-0.000194904
138.483
-0.00019493
138.425
-0.000194957
138.365
-0.000194986
138.304
-0.000195016
138.243
-0.000195048
138.18
-0.00019508
138.116
-0.000195115
138.05
-0.000195151
137.984
-0.000195188
137.916
-0.000195227
137.846
-0.000195268
137.775
-0.00019531
137.703
-0.000195354
137.629
-0.000195399
137.554
-0.000195447
137.477
-0.000195497
137.398
-0.00019555
137.318
-0.000195605
137.237
-0.000195665
137.154
-0.000195729
137.069
-0.000195797
136.984
-0.00019587
136.896
-0.000195949
136.807
-0.000196032
136.717
-0.000196121
136.625
-0.000196215
136.531
-0.000196317
136.436
-0.000196427
136.34
-0.000196546
136.241
-0.000196671
136.141
-0.000196801
136.039
-0.000196936
135.934
-0.000197074
135.828
-0.000197216
135.719
-0.000197363
135.609
-0.000197514
135.496
-0.000197669
135.38
-0.000197828
135.263
-0.000197988
135.143
-0.000198148
135.021
-0.000198305
134.896
-0.000198456
134.768
-0.0001986
134.638
-0.000198722
134.505
-0.000198818
134.37
-0.000198869
134.232
-0.00019886
134.091
-0.000198767
133.948
-0.000198569
133.802
-0.000198239
133.653
-0.000197745
133.502
-0.000197049
133.35
-0.000196109
133.194
-0.00019488
133.037
-0.000193312
132.878
-0.000191354
132.716
-0.000188955
132.553
-0.000186068
132.387
-0.000182653
132.219
-0.000178675
132.05
-0.00017411
131.878
-0.00016895
131.704
-0.000163195
131.528
-0.000156866
131.349
-0.000149996
131.169
-0.000142636
130.986
-0.000134849
130.8
-0.000126713
130.613
-0.000118317
130.422
-0.000109756
130.229
-0.000101129
130.033
-9.25372e-05
129.834
-8.40791e-05
129.632
-7.58469e-05
129.427
-6.79246e-05
129.219
-6.03848e-05
129.008
-5.32879e-05
128.793
-4.66801e-05
128.575
-4.05935e-05
128.353
-3.50465e-05
128.128
-3.0044e-05
127.9
-2.55793e-05
127.668
-2.16353e-05
127.433
-1.81869e-05
127.195
-1.5202e-05
126.954
-1.26441e-05
126.709
-1.04734e-05
126.462
-8.64916e-06
126.211
-7.13082e-06
125.958
-5.87911e-06
125.702
-4.85679e-06
125.444
-4.02937e-06
125.184
-3.36562e-06
124.921
-2.83779e-06
124.655
-2.42161e-06
124.388
-2.09622e-06
124.119
-1.84398e-06
123.847
-1.65019e-06
123.574
-1.50255e-06
123.298
-1.39099e-06
123.02
-1.30747e-06
122.74
-1.24572e-06
122.458
-1.20099e-06
122.173
-1.16939e-06
121.886
-1.14796e-06
121.597
-1.13429e-06
121.305
-1.12689e-06
121.01
-1.12448e-06
120.713
-1.12647e-06
120.412
-1.13185e-06
120.109
-1.14016e-06
119.802
-1.15063e-06
119.492
-1.16325e-06
119.179
-1.17785e-06
118.863
-1.19447e-06
118.542
-1.21279e-06
118.219
-1.23248e-06
117.892
-1.25313e-06
117.561
-1.27449e-06
117.226
-1.29617e-06
116.888
-1.31827e-06
116.546
-1.33999e-06
116.2
-1.36172e-06
115.85
-1.382e-06
115.498
-1.40112e-06
115.141
-1.41782e-06
114.782
-1.43223e-06
114.419
-1.44381e-06
114.053
-1.45244e-06
113.685
-1.45794e-06
113.314
-1.46033e-06
112.94
-1.45898e-06
112.564
-1.45567e-06
112.186
-1.44862e-06
111.806
-1.43947e-06
111.423
-1.42782e-06
111.039
-1.41409e-06
110.653
-1.39828e-06
110.266
-1.38229e-06
109.876
-1.36479e-06
109.485
-1.34821e-06
109.091
-1.33084e-06
108.696
-1.31481e-06
108.298
-1.29815e-06
107.899
-1.28257e-06
107.497
-1.26763e-06
107.094
-1.25499e-06
106.687
-1.24047e-06
106.279
-1.22827e-06
105.868
-1.21434e-06
105.455
-1.2068e-06
105.039
-1.19136e-06
104.621
-1.18261e-06
104.2
-1.1669e-06
103.777
-1.16118e-06
103.352
-1.14602e-06
102.924
-1.14102e-06
102.493
-1.12414e-06
102.06
-1.12472e-06
101.623
-1.10667e-06
101.185
-1.11442e-06
100.743
-1.08877e-06
100.298
-1.10965e-06
99.8503
-1.07204e-06
99.3996
-1.11571e-06
98.9459
-1.04778e-06
98.4893
-1.13279e-06
98.0296
-9.90442e-07
97.5671
-1.20153e-06
97.1018
-8.38382e-07
96.6338
-1.40428e-06
96.1632
-4.55283e-07
95.6902
-1.9016e-06
95.2148
2.81969e-07
94.7372
-2.79318e-06
94.2575
1.3575e-06
93.776
-3.69153e-06
93.2928
2.21126e-06
92.8079
-3.94036e-06
92.3217
4.65932e-06
91.8343
7.61778e-06
91.3456
9.17785e-05
90.8561
0.000583793
90.3651
0.00403504
89.8686
0.0275389
89.3159
0.216614
0.813001
88.6501
11.5996
-0.000327793
11.5952
-0.000234736
11.5907
-0.000225378
11.5863
-0.000226967
11.5819
-0.000227367
11.5774
-0.00022717
11.5729
-0.000227122
11.5684
-0.000227134
11.5638
-0.000227145
11.5592
-0.000227156
11.5545
-0.00022717
11.5499
-0.000227186
11.5451
-0.000227204
11.5403
-0.000227223
11.5354
-0.000227244
11.5304
-0.000227266
11.5254
-0.000227289
11.5202
-0.000227313
11.515
-0.000227339
11.5097
-0.000227367
11.5042
-0.000227396
11.4987
-0.000227427
11.493
-0.00022746
11.4872
-0.000227495
11.4813
-0.000227531
11.4752
-0.000227569
11.4691
-0.000227609
11.4628
-0.000227652
11.4564
-0.000227697
11.4499
-0.000227746
11.4432
-0.000227798
11.4364
-0.000227854
11.4295
-0.000227915
11.4225
-0.000227982
11.4153
-0.000228054
11.408
-0.000228133
11.4006
-0.000228217
11.3931
-0.000228307
11.3854
-0.000228403
11.3776
-0.000228509
11.3697
-0.000228624
11.3616
-0.000228748
11.3534
-0.000228882
11.3451
-0.000229021
11.3366
-0.000229164
11.3279
-0.000229311
11.319
-0.000229463
11.3099
-0.000229619
11.3007
-0.000229782
11.2913
-0.000229949
11.2817
-0.000230121
11.2719
-0.000230294
11.2619
-0.000230467
11.2517
-0.000230636
11.2413
-0.000230799
11.2307
-0.000230953
11.2198
-0.000231084
11.2088
-0.000231186
11.1975
-0.000231237
11.186
-0.000231218
11.1742
-0.000231105
11.1623
-0.000230871
11.1501
-0.000230487
11.1377
-0.000229916
11.1252
-0.000229116
11.1124
-0.000228038
11.0995
-0.000226629
11.0864
-0.000224833
11.0731
-0.00022259
11.0597
-0.000219842
11.046
-0.000216534
11.0322
-0.000212618
11.0183
-0.000208054
11.0041
-0.000202814
10.9898
-0.000196884
10.9753
-0.000190266
10.9606
-0.00018298
10.9457
-0.000175064
10.9307
-0.000166574
10.9155
-0.000157582
10.9
-0.000148177
10.8844
-0.000138459
10.8685
-0.000128538
10.8524
-0.000118529
10.8361
-0.000108549
10.8195
-9.87116e-05
10.8027
-8.91249e-05
10.7856
-7.98871e-05
10.7683
-7.10842e-05
10.7506
-6.27877e-05
10.7327
-5.50529e-05
10.7146
-4.79191e-05
10.6961
-4.14092e-05
10.6774
-3.55307e-05
10.6583
-3.02773e-05
10.639
-2.56305e-05
10.6194
-2.15622e-05
10.5996
-1.80361e-05
10.5795
-1.50101e-05
10.5591
-1.24387e-05
10.5385
-1.02746e-05
10.5176
-8.47078e-06
10.4965
-6.9815e-06
10.4752
-5.76336e-06
10.4537
-4.77613e-06
10.432
-3.98327e-06
10.41
-3.35225e-06
10.3879
-2.85452e-06
10.3657
-2.46546e-06
10.3432
-2.1641e-06
10.3206
-1.93293e-06
10.2978
-1.75714e-06
10.2748
-1.62462e-06
10.2517
-1.52563e-06
10.2283
-1.45263e-06
10.2048
-1.39983e-06
10.1811
-1.36264e-06
10.1572
-1.33741e-06
10.1331
-1.32138e-06
10.1087
-1.31262e-06
10.0842
-1.30981e-06
10.0594
-1.31205e-06
10.0343
-1.31838e-06
10.009
-1.32799e-06
9.98349
-1.34023e-06
9.95767
-1.35488e-06
9.93158
-1.37189e-06
9.9052
-1.39125e-06
9.87853
-1.41259e-06
9.85156
-1.43552e-06
9.82429
-1.45959e-06
9.79671
-1.48445e-06
9.76882
-1.50976e-06
9.74062
-1.53539e-06
9.71212
-1.56085e-06
9.68331
-1.58598e-06
9.65419
-1.60979e-06
9.62479
-1.63191e-06
9.5951
-1.65146e-06
9.56514
-1.66818e-06
9.53491
-1.68168e-06
9.50444
-1.69174e-06
9.47373
-1.69811e-06
9.4428
-1.70077e-06
9.41166
-1.69952e-06
9.38033
-1.69513e-06
9.34882
-1.68725e-06
9.31713
-1.6765e-06
9.28528
-1.66287e-06
9.25327
-1.64674e-06
9.22111
-1.62856e-06
9.18879
-1.60951e-06
9.15632
-1.58949e-06
9.1237
-1.56972e-06
9.09092
-1.54983e-06
9.05798
-1.53073e-06
9.02486
-1.51168e-06
8.99157
-1.49345e-06
8.9581
-1.47612e-06
8.92445
-1.46025e-06
8.8906
-1.44443e-06
8.85656
-1.42987e-06
8.82232
-1.41523e-06
8.78788
-1.40292e-06
8.75325
-1.38797e-06
8.7184
-1.37516e-06
8.68335
-1.36037e-06
8.6481
-1.34944e-06
8.61264
-1.33573e-06
8.57696
-1.32574e-06
8.54107
-1.3121e-06
8.50495
-1.30506e-06
8.46861
-1.2923e-06
8.43203
-1.28955e-06
8.39522
-1.27622e-06
8.35816
-1.28008e-06
8.32085
-1.26391e-06
8.28329
-1.27613e-06
8.24548
-1.24906e-06
8.20743
-1.2747e-06
8.16912
-1.22064e-06
8.13058
-1.2889e-06
8.09181
-1.15482e-06
8.05281
-1.3468e-06
8.01359
-9.98969e-07
7.97417
-1.50564e-06
7.93455
-7.03718e-07
7.89475
-1.80377e-06
7.85478
-2.72123e-07
7.81465
-2.10388e-06
7.77439
8.94142e-08
7.73398
-2.14414e-06
7.69347
9.55088e-07
7.65285
1.92694e-06
7.6122
3.09149e-05
7.57179
0.000200359
7.53357
0.00140034
7.51017
0.0100209
7.57071
0.11508
0.384268
7.95863
5.79939
5.79695
5.7945
5.79204
5.78957
5.78709
5.7846
5.78209
5.77956
5.77702
5.77446
5.77186
5.76924
5.76659
5.76391
5.76118
5.75841
5.7556
5.75273
5.74982
5.74686
5.74383
5.74075
5.73762
5.73442
5.73116
5.72783
5.72445
5.721
5.71749
5.71392
5.71028
5.70658
5.70282
5.69899
5.6951
5.69115
5.68714
5.68306
5.67892
5.67472
5.67045
5.66611
5.66168
5.65718
5.65258
5.6479
5.64313
5.63827
5.63332
5.62828
5.62313
5.61789
5.61254
5.60709
5.60153
5.59587
5.59009
5.5842
5.57819
5.57208
5.56585
5.55952
5.55309
5.54657
5.53995
5.53325
5.52646
5.51958
5.51261
5.50557
5.49844
5.49122
5.48393
5.47656
5.4691
5.46157
5.45395
5.44625
5.43846
5.43058
5.42261
5.41454
5.40636
5.39808
5.38969
5.38118
5.37256
5.36381
5.35493
5.34592
5.33678
5.32751
5.3181
5.30855
5.29887
5.28905
5.27911
5.26903
5.25883
5.24851
5.23807
5.22751
5.21685
5.20609
5.19522
5.18426
5.17321
5.16207
5.15084
5.13953
5.12813
5.11664
5.10506
5.09339
5.08163
5.06977
5.05781
5.04575
5.03358
5.0213
5.0089
4.99638
4.98374
4.97096
4.95805
4.945
4.93181
4.91847
4.90499
4.89135
4.87756
4.86362
4.84951
4.83526
4.82085
4.8063
4.79159
4.77675
4.76176
4.74665
4.73141
4.71605
4.70059
4.68502
4.66935
4.65359
4.63775
4.62182
4.60581
4.58973
4.57357
4.55734
4.54102
4.52463
4.50816
4.4916
4.47495
4.45822
4.44139
4.42446
4.40744
4.39032
4.3731
4.35578
4.33836
4.32083
4.3032
4.28547
4.26763
4.24968
4.23162
4.21345
4.19516
4.17675
4.15822
4.13957
4.12079
4.10188
4.08285
4.0637
4.04443
4.02504
4.00554
3.98593
3.96621
3.94641
3.9265
3.90652
3.88645
3.86632
3.84611
3.82586
3.80555
3.78522
3.76503
3.746
3.73556
3.83016
4.19411
3.26729
0.0781913
3.27163
-0.00948022
3.26953
-0.00302795
3.27975
-0.0153415
3.31398
-0.0393568
3.35552
-0.0467139
3.35649
-0.00618159
3.31719
0.0340562
3.25317
0.0587717
3.21777
0.0303339
3.36622
-0.153338
3.69565
-0.334398
4.07531
-0.385053
4.29763
-0.228142
4.25605
0.0357831
4.11515
0.135422
3.91696
0.192763
3.68409
0.227418
3.4935
0.185404
-0.498487
3.98739
6.88824
0.0991197
6.89612
-0.0273942
6.92877
-0.0456995
6.97901
-0.075591
7.07745
-0.147822
7.19497
-0.174367
7.2303
-0.0517144
7.1882
0.0659287
7.08726
0.149419
6.98673
0.120925
7.20827
-0.384351
7.75777
-0.893692
8.50886
-1.14682
9.1006
-0.831399
9.21787
-0.0927045
9.10351
0.23919
8.807
0.478797
8.33454
0.689446
7.72163
0.788259
-0.900098
8.11422
88.591
0.0637886
88.5127
-0.0430548
88.3566
0.0166523
88.076
0.111691
87.6499
0.185819
87.1692
0.212365
86.7847
0.238317
86.5059
0.249889
86.3073
0.252948
86.0811
0.251448
85.3514
0.249151
84.1189
0.242814
82.6345
0.243048
81.4996
0.207524
81.1126
0.198911
81.0841
0.170927
81.3185
0.146751
81.7871
0.122879
82.3883
0.0881187
0.0132024
81.3741
7.90295
0.114154
7.8529
0.0014363
7.85258
0.0112366
7.9251
0.0332056
8.05352
0.0510178
8.20101
0.0590881
8.36635
0.067279
8.5386
0.0719508
8.71198
0.0738782
8.88335
0.0743875
9.05239
0.0743903
9.21639
0.0731189
9.3819
0.0716056
9.52397
0.0602598
9.66376
0.0533768
9.78757
0.0413616
9.89991
0.0286571
10.0061
0.010929
10.1141
-0.0257319
-0.126822
10.2484
4.30569
4.30446
4.31293
4.34325
4.39125
4.44752
4.51204
4.58125
4.65238
4.72402
4.79565
4.86602
4.93481
4.99247
5.04309
5.08167
5.10754
5.11567
5.08714
4.95751
5.33772
-1.36615
5.58736
-0.26742
5.48959
0.0805292
5.44165
0.0310776
5.56362
-0.138899
5.67832
-0.13207
5.68831
-0.0272986
5.66899
0.00226901
5.70011
-0.0481424
5.74292
-0.0600177
5.74947
-0.0238121
5.72866
0.00367897
5.72217
-0.0105579
5.74131
-0.0362342
5.75719
-0.033121
5.74777
-0.00785746
5.72318
0.00739717
5.70162
0.00439088
5.69303
-0.00857012
5.68803
-0.0122155
5.67479
-0.00402317
5.65358
0.00396257
5.63102
0.00531663
5.60963
0.00412706
5.59027
0.00208733
5.57234
0.000641405
5.55408
0.000943996
5.53552
0.00122747
5.51654
0.00164535
5.49694
0.00223709
5.47677
0.00279741
5.45745
0.00191736
5.44519
-0.00515038
5.43555
-0.00780507
5.42111
-0.00305344
5.40203
0.00158054
5.382
0.00252388
5.36191
0.00257505
5.34196
0.00241797
5.32217
0.00224205
5.30248
0.00213049
5.28286
0.00205425
5.26331
0.00198361
5.24384
0.00189975
5.22446
0.00180742
5.20518
0.00171297
5.18599
0.00162447
5.16689
0.00154801
5.14786
0.00148953
5.12887
0.00145471
5.1099
0.0014482
5.09093
0.00147274
5.07192
0.00152865
5.05284
0.00161396
5.03368
0.00172414
5.01441
0.00185264
4.99503
0.00199164
4.97553
0.0021324
4.95593
0.00226616
4.93623
0.0023847
4.91647
0.00248098
4.89667
0.00254959
4.87687
0.00258721
4.8571
0.00259287
4.83738
0.00256819
4.81776
0.00251702
4.79824
0.00244463
4.77885
0.0023566
4.75961
0.00225712
4.74052
0.00215058
4.72158
0.00204383
4.70278
0.00194552
4.68412
0.00186413
4.66556
0.00181475
4.64705
0.00181321
4.62853
0.00187864
4.60989
0.00203907
4.59102
0.00233578
4.57171
0.00283088
4.55166
0.00362091
4.53044
0.0048584
4.50735
0.00677937
4.48141
0.00968068
4.45168
0.0135196
4.41983
0.0156826
4.40599
-0.00227268
4.44329
-0.0533336
4.47701
-0.0498334
4.47165
-0.0107257
4.44037
0.0152876
4.40297
0.021516
4.36203
0.0251087
4.31925
0.0269736
4.27465
0.0288317
4.22799
0.0309327
4.17923
0.0330653
4.12852
0.0350432
4.07612
0.0367758
4.02223
0.0383291
3.96676
0.0399573
3.90922
0.0420541
3.84864
0.0450792
3.7837
0.0494654
3.71276
0.055548
3.63398
0.063503
3.54539
0.0733792
3.44516
0.085
3.33189
0.0978988
3.20505
0.1114
3.06529
0.12451
2.91446
0.135795
2.75594
0.143633
2.59465
0.146524
2.43644
0.143598
2.28708
0.134739
2.1513
0.121164
2.03202
0.104692
1.93019
0.0872596
1.84513
0.0705088
1.77508
0.0555941
1.71774
0.0429616
1.67076
0.0326862
1.63197
0.0245674
1.59955
0.018287
1.57199
0.0135036
1.54811
0.00990304
1.52701
0.00721759
1.50797
0.00522979
1.49048
0.00376808
1.47414
0.00269968
1.45867
0.00192321
1.44384
0.00136205
1.4295
0.000958748
1.41554
0.00067051
1.40187
0.000465666
1.38842
0.000320915
1.37516
0.00021921
1.36206
0.000148164
1.34909
9.88186e-05
1.33623
6.47464e-05
1.32348
4.13539e-05
1.31082
2.53869e-05
1.29825
1.45445e-05
1.28577
7.2232e-06
1.27336
2.29118e-06
1.26103
-1.02276e-06
1.24877
-3.22809e-06
1.23659
-4.71608e-06
1.22448
-5.67489e-06
1.21243
-6.3291e-06
1.20045
-6.78328e-06
1.18855
-7.08819e-06
1.1767
-7.3155e-06
1.16493
-7.47022e-06
1.15322
-7.60757e-06
1.14158
-7.70629e-06
1.13
-7.81126e-06
1.1185
-7.88639e-06
1.10706
-7.96736e-06
1.09569
-8.02892e-06
1.08439
-8.09799e-06
1.07317
-8.15963e-06
1.06201
-8.24131e-06
1.05094
-8.29536e-06
1.03993
-8.386e-06
1.02901
-8.4199e-06
1.01816
-8.51175e-06
1.00739
-8.53264e-06
0.996703
-8.6333e-06
0.986099
-8.64778e-06
0.975579
-8.76801e-06
0.965145
-8.75153e-06
0.954798
-8.91478e-06
0.944538
-8.82649e-06
0.934369
-9.09974e-06
0.924291
-8.84933e-06
0.914304
-9.34607e-06
0.90441
-8.77658e-06
0.894611
-9.67649e-06
0.884906
-8.61736e-06
0.875297
-1.00572e-05
0.865782
-8.45631e-06
0.856366
-1.04032e-05
0.847043
-8.39285e-06
0.83782
-1.06257e-05
0.828691
-8.41166e-06
0.819662
-1.07412e-05
0.810726
-7.50742e-06
0.801888
-1.19743e-05
0.793143
-6.82719e-06
0.784495
-1.28546e-05
0.775939
-7.18522e-06
0.767478
-1.27211e-05
0.759109
-8.98595e-06
0.75083
-1.17543e-05
0.742626
6.73904e-06
0.734372
0.000140769
0.725607
0.000746384
0.729613
-0.0119418
-0.0239701
0.745723
9.93201
-3.21569
10.5099
-0.880953
10.352
0.203851
10.1481
0.201223
10.2866
-0.311264
10.5156
-0.395511
10.5631
-0.109389
10.5022
0.0290536
10.5262
-0.106354
10.6119
-0.180001
10.6516
-0.0978837
10.6202
0.000856716
10.5934
-0.0178977
10.6241
-0.101153
10.6755
-0.118891
10.69
-0.0568076
10.6636
-0.000565456
10.6274
0.00633049
10.6134
-0.0289494
10.616
-0.0491676
10.6105
-0.0330411
10.5875
-0.00745789
10.5549
0.00343785
10.5192
0.00528642
10.4846
0.00210345
10.4522
-0.00148481
10.4187
-0.000209478
10.3836
0.00168349
10.3465
0.00413006
10.3066
0.00738479
10.2635
0.011137
10.219
0.0116297
10.1887
-0.00967211
10.17
-0.0240197
10.1481
-0.0161006
10.1175
-0.00277954
10.0827
0.00225132
10.0463
0.00398873
10.0092
0.004485
9.97171
0.00459731
9.93403
0.00470817
9.89614
0.00481209
9.85813
0.00486579
9.82005
0.00483596
9.78197
0.0047487
9.74392
0.0046277
9.70592
0.00449739
9.66798
0.00437497
9.6301
0.00427714
9.59227
0.00422018
9.55446
0.00421906
9.51665
0.00428414
9.47879
0.00441995
9.44086
0.00462517
9.40281
0.00489173
9.36463
0.00520612
9.3263
0.00555085
9.2878
0.00590577
9.24914
0.00625052
9.21035
0.00656528
9.17144
0.00683349
9.13245
0.00704334
9.09342
0.00718854
9.05438
0.00726953
9.01536
0.00729473
8.97638
0.00727942
8.93744
0.00724379
8.89853
0.00720916
8.85961
0.00719316
8.82066
0.00721547
8.78161
0.00730521
8.74235
0.00749919
8.70278
0.00783584
8.66271
0.00837867
8.62193
0.009198
8.58013
0.0103814
8.53693
0.0120538
8.4918
0.0143963
8.44399
0.0176778
8.39246
0.0223129
8.33561
0.028959
8.27107
0.0386642
8.19524
0.0529383
8.10344
0.0728473
7.99373
0.0930263
7.90489
0.0543252
7.93662
-0.117092
8.01863
-0.164001
8.05995
-0.0841558
8.04569
-0.00240285
8.0017
0.0337529
7.93903
0.0560928
7.86425
0.0701425
7.77932
0.0822114
7.68512
0.0936562
7.5826
0.104195
7.47289
0.113468
7.35715
0.121323
7.23629
0.128017
7.11076
0.134321
6.98032
0.141401
6.84389
0.150594
6.69957
0.163066
6.54495
0.179528
6.37768
0.200084
6.19596
0.224207
5.99907
0.251003
5.78733
0.27892
5.56225
0.306067
5.32669
0.33
5.08488
0.347744
4.84246
0.356455
4.60579
0.353796
4.38148
0.338524
4.17509
0.311761
3.99042
0.276529
3.82909
0.236774
3.69073
0.196394
3.57359
0.158597
3.475
0.125284
3.392
0.0972205
3.32171
0.0743884
3.26156
0.0562831
3.20938
0.0421963
3.16339
0.0313913
3.12215
0.0231946
3.08455
0.0170314
3.04974
0.0124319
3.01704
0.00902221
2.98596
0.00651021
2.95611
0.00467056
2.92721
0.00333118
2.89905
0.00236173
2.87147
0.00166416
2.84435
0.0011652
2.81762
0.000810458
2.7912
0.000559765
2.76505
0.000383695
2.73915
0.000260791
2.71345
0.000175536
2.68796
0.000116761
2.66264
7.65004e-05
2.6375
4.90847e-05
2.61251
3.05401e-05
2.58769
1.80402e-05
2.56301
9.66426e-06
2.53849
4.13242e-06
2.5141
3.87024e-07
2.48986
-1.97573e-06
2.46576
-3.5657e-06
2.44179
-4.63882e-06
2.41795
-5.32227e-06
2.39425
-5.80859e-06
2.37069
-6.10138e-06
2.34725
-6.34875e-06
2.32395
-6.48253e-06
2.30079
-6.63755e-06
2.27776
-6.70947e-06
2.25486
-6.81018e-06
2.23211
-6.8623e-06
2.2095
-6.93726e-06
2.18703
-6.98057e-06
2.1647
-7.07582e-06
2.14253
-7.08689e-06
2.1205
-7.215e-06
2.09863
-7.18443e-06
2.07692
-7.33204e-06
2.05536
-7.27546e-06
2.03397
-7.44257e-06
2.01275
-7.36414e-06
1.99169
-7.57556e-06
1.9708
-7.42097e-06
1.95009
-7.75586e-06
1.92955
-7.39905e-06
1.90919
-8.04692e-06
1.88901
-7.21889e-06
1.86902
-8.53264e-06
1.84921
-6.78795e-06
1.8296
-9.26756e-06
1.81017
-6.16604e-06
1.79093
-1.00744e-05
1.77188
-5.6174e-06
1.75302
-1.06868e-05
1.73436
-5.34301e-06
1.71589
-1.10235e-05
1.69761
-5.14581e-06
1.67953
-1.12831e-05
1.66164
-2.43181e-06
1.64394
-1.45337e-05
1.62643
3.72487e-07
1.60912
-1.74653e-05
1.59198
-1.95716e-07
1.57504
-1.6888e-05
1.55828
-4.70975e-06
1.5417
-1.0801e-05
1.52526
5.52714e-05
1.50865
0.000518577
1.48996
0.00340192
1.45673
0.00540922
0.0499729
1.36708
77.4591
0.285828
76.0173
0.150814
75.6418
0.169637
75.2349
0.198045
74.3367
0.175264
73.3959
0.134107
72.766
0.110138
72.2788
0.105658
71.6594
0.10201
70.9795
0.0891876
70.3944
0.0768899
69.9126
0.0720192
69.4132
0.0704472
68.8357
0.0650987
68.2498
0.0559869
67.7337
0.0483765
67.277
0.0447772
66.8284
0.0431265
66.3469
0.0402424
65.8499
0.0354768
65.3735
0.0307132
64.9256
0.0273998
64.4903
0.0252706
64.0583
0.0233846
63.6247
0.0214351
63.1893
0.0192651
62.7569
0.0171524
62.3278
0.0153065
61.9023
0.013707
61.481
0.0123778
61.0638
0.0114102
60.6471
0.0109376
60.2097
0.00977628
59.7596
0.00764843
59.3189
0.00565339
58.8924
0.00435871
58.4712
0.00364515
58.052
0.0030248
57.6335
0.00239936
57.2154
0.0017796
56.7977
0.00121793
56.3807
0.000572687
55.9644
-0.000339073
55.549
-0.00119944
55.1341
-0.00181717
54.7195
-0.00225061
54.3054
-0.00259069
53.8916
-0.00291503
53.4782
-0.00324552
53.0655
-0.00358503
52.6534
-0.0039261
52.2421
-0.00425542
51.8316
-0.00456011
51.4221
-0.00482558
51.0136
-0.00504065
50.6062
-0.00519541
50.1997
-0.00528447
49.7943
-0.0053055
49.3898
-0.00526078
48.9862
-0.0051546
48.5834
-0.00499443
48.1813
-0.00479043
47.7799
-0.00455309
47.3792
-0.00429378
46.979
-0.00402417
46.5794
-0.0037569
46.1805
-0.00351217
45.7823
-0.0033322
45.3851
-0.00325672
44.9889
-0.00329529
44.594
-0.00340667
44.2007
-0.00359044
43.8091
-0.00379865
43.4196
-0.00410258
43.0325
-0.00448303
42.6483
-0.00492394
42.2676
-0.00542903
41.8911
-0.00598352
41.5201
-0.00655322
41.156
-0.00707018
40.8007
-0.00739184
40.4565
-0.00721551
40.1266
-0.00562211
39.8151
-0.00241373
39.5215
0.000631296
39.1889
0.00156759
38.7074
-0.0201096
38.2143
-0.0542155
37.8238
-0.076146
37.5251
-0.0857134
37.2725
-0.0948038
37.0571
-0.108871
36.8771
-0.129271
36.7366
-0.155763
36.6402
-0.18757
36.5912
-0.223467
36.5905
-0.261512
36.6359
-0.298831
36.7219
-0.331672
36.8395
-0.35606
36.9783
-0.369162
37.1281
-0.369913
37.2813
-0.359848
37.4346
-0.342513
37.5893
-0.322106
37.7487
-0.301575
37.9165
-0.281985
38.0941
-0.26263
38.2794
-0.241906
38.4678
-0.219844
38.6508
-0.195435
38.8171
-0.168638
38.9546
-0.141213
39.0523
-0.11537
39.1021
-0.0926619
39.0993