/*--------------------------------*- C++ -*----------------------------------*\
| =========                 |                                                 |
| \\      /  F ield         | OpenFOAM: The Open Source CFD Toolbox           |
|  \\    /   O peration     | Version:  3.0.x                                 |
|   \\  /    A nd           | Web:      www.OpenFOAM.org                      |
|    \\/     M anipulation  |                                                 |
\*---------------------------------------------------------------------------*/
FoamFile
{
    version     2.0;
    format      ascii;
    class       volScalarField;
    location    "0.49";
    object      rho;
}
// * * * * * * * * * * * * * * * * * * * * * * * * * * * * * * * * * * * * * //

dimensions      [1 -3 0 0 0 0 0];

internalField   nonuniform List<scalar> 
6900
(
50.9535
50.9538
50.954
50.9543
50.9545
50.9548
50.9551
50.9555
50.9559
50.9564
50.9569
50.9574
50.958
50.9587
50.9595
50.9602
50.9611
50.962
50.963
50.964
50.9651
50.9663
50.9676
50.9689
50.9703
50.9717
50.9732
50.9748
50.9764
50.9781
50.9798
50.9816
50.9834
50.9853
50.9872
50.9891
50.9911
50.9932
50.9953
50.9975
50.9998
51.0022
51.0047
51.0071
51.0096
51.0121
51.0146
51.0172
51.0198
51.0226
51.0254
51.0283
51.0313
51.0344
51.0376
51.041
51.0444
51.0479
51.0514
51.055
51.0586
51.0622
51.0659
51.0696
51.0735
51.0774
51.0814
51.0856
51.0897
51.094
51.0982
51.1025
51.1069
51.1112
51.1156
51.12
51.1245
51.129
51.1335
51.1381
51.1427
51.1474
51.1521
51.1569
51.1618
51.1667
51.1717
51.1768
51.182
51.1872
51.1925
51.1979
51.2034
51.209
51.2147
51.2204
51.2263
51.2322
51.2382
51.2443
51.2505
51.2568
51.2631
51.2695
51.276
51.2825
51.2891
51.2958
51.3025
51.3092
51.3161
51.3229
51.3299
51.3368
51.3438
51.3509
51.358
51.3652
51.3724
51.3797
51.3871
51.3945
51.402
51.4095
51.4172
51.4249
51.4326
51.4405
51.4485
51.4565
51.4646
51.4728
51.4811
51.4895
51.498
51.5066
51.5153
51.524
51.5329
51.5418
51.5508
51.5599
51.5691
51.5783
51.5876
51.597
51.6064
51.6159
51.6255
51.635
51.6446
51.6543
51.664
51.6738
51.6836
51.6934
51.7033
51.7132
51.7232
51.7332
51.7433
51.7534
51.7636
51.7738
51.7841
51.7945
51.8049
51.8153
51.8258
51.8364
51.8471
51.8578
51.8685
51.8794
51.8903
51.9012
51.9123
51.9234
51.9346
51.9458
51.9572
51.9686
51.9801
51.9916
52.0032
52.0149
52.0267
52.0383
52.0504
52.062
52.0742
52.0858
52.0983
52.1098
52.1224
52.1338
52.1466
52.158
52.1709
52.1829
50.9538
50.954
50.9542
50.9545
50.9547
50.955
50.9554
50.9557
50.9561
50.9566
50.9571
50.9577
50.9583
50.9589
50.9597
50.9605
50.9613
50.9622
50.9632
50.9642
50.9654
50.9665
50.9678
50.9691
50.9705
50.9719
50.9734
50.975
50.9766
50.9783
50.98
50.9818
50.9836
50.9855
50.9874
50.9893
50.9913
50.9934
50.9955
50.9977
51
51.0024
51.0049
51.0073
51.0098
51.0123
51.0148
51.0174
51.02
51.0227
51.0256
51.0285
51.0315
51.0346
51.0378
51.0411
51.0445
51.048
51.0516
51.0551
51.0587
51.0623
51.066
51.0698
51.0736
51.0776
51.0816
51.0857
51.0899
51.0941
51.0984
51.1027
51.107
51.1114
51.1158
51.1202
51.1246
51.1291
51.1337
51.1382
51.1429
51.1475
51.1523
51.1571
51.162
51.1669
51.1719
51.177
51.1821
51.1874
51.1927
51.1981
51.2036
51.2092
51.2148
51.2206
51.2264
51.2324
51.2384
51.2445
51.2507
51.2569
51.2633
51.2697
51.2761
51.2827
51.2893
51.2959
51.3026
51.3094
51.3162
51.3231
51.33
51.337
51.344
51.3511
51.3582
51.3654
51.3726
51.3799
51.3872
51.3947
51.4021
51.4097
51.4173
51.425
51.4328
51.4407
51.4486
51.4566
51.4648
51.473
51.4813
51.4897
51.4981
51.5067
51.5154
51.5242
51.533
51.542
51.551
51.5601
51.5692
51.5785
51.5878
51.5972
51.6066
51.6161
51.6256
51.6352
51.6448
51.6545
51.6642
51.6739
51.6837
51.6935
51.7034
51.7133
51.7233
51.7333
51.7434
51.7536
51.7637
51.774
51.7843
51.7946
51.805
51.8155
51.826
51.8366
51.8472
51.8579
51.8687
51.8795
51.8904
51.9014
51.9124
51.9235
51.9347
51.946
51.9573
51.9687
51.9802
51.9917
52.0034
52.015
52.0268
52.0385
52.0505
52.0621
52.0744
52.086
52.0984
52.1099
52.1226
52.134
52.1468
52.1581
52.1711
52.1822
50.9538
50.954
50.9542
50.9545
50.9547
50.955
50.9553
50.9557
50.9561
50.9566
50.9571
50.9576
50.9583
50.9589
50.9597
50.9605
50.9613
50.9622
50.9632
50.9642
50.9654
50.9665
50.9678
50.9691
50.9705
50.9719
50.9734
50.975
50.9766
50.9783
50.98
50.9818
50.9836
50.9855
50.9874
50.9893
50.9913
50.9934
50.9955
50.9977
51
51.0024
51.0048
51.0073
51.0098
51.0123
51.0148
51.0174
51.02
51.0227
51.0256
51.0285
51.0315
51.0346
51.0378
51.0411
51.0445
51.048
51.0516
51.0551
51.0587
51.0623
51.066
51.0698
51.0736
51.0776
51.0816
51.0857
51.0899
51.0941
51.0984
51.1027
51.107
51.1114
51.1158
51.1202
51.1246
51.1291
51.1337
51.1382
51.1429
51.1475
51.1523
51.1571
51.162
51.1669
51.1719
51.177
51.1821
51.1874
51.1927
51.1981
51.2036
51.2092
51.2148
51.2206
51.2264
51.2324
51.2384
51.2445
51.2507
51.2569
51.2633
51.2697
51.2761
51.2827
51.2893
51.2959
51.3026
51.3094
51.3162
51.3231
51.33
51.337
51.344
51.3511
51.3582
51.3654
51.3726
51.3799
51.3872
51.3947
51.4021
51.4097
51.4173
51.425
51.4328
51.4407
51.4486
51.4566
51.4648
51.473
51.4813
51.4897
51.4981
51.5067
51.5154
51.5242
51.533
51.542
51.551
51.5601
51.5692
51.5785
51.5878
51.5972
51.6066
51.6161
51.6256
51.6352
51.6448
51.6545
51.6642
51.6739
51.6837
51.6935
51.7034
51.7133
51.7233
51.7333
51.7434
51.7536
51.7637
51.774
51.7843
51.7946
51.805
51.8155
51.826
51.8366
51.8472
51.8579
51.8687
51.8795
51.8904
51.9014
51.9124
51.9235
51.9347
51.946
51.9573
51.9687
51.9802
51.9918
52.0034
52.015
52.0268
52.0385
52.0504
52.0622
52.0743
52.0861
52.0982
52.1102
52.1222
52.1342
52.1466
52.1584
52.1706
52.1828
50.9538
50.954
50.9542
50.9545
50.9547
50.955
50.9554
50.9557
50.9561
50.9566
50.9571
50.9577
50.9583
50.9589
50.9597
50.9605
50.9613
50.9622
50.9632
50.9642
50.9654
50.9665
50.9678
50.9691
50.9705
50.9719
50.9734
50.975
50.9766
50.9783
50.98
50.9818
50.9836
50.9855
50.9874
50.9893
50.9913
50.9934
50.9955
50.9977
51
51.0024
51.0049
51.0073
51.0098
51.0123
51.0148
51.0174
51.02
51.0227
51.0256
51.0285
51.0315
51.0346
51.0378
51.0411
51.0445
51.048
51.0516
51.0551
51.0587
51.0623
51.066
51.0698
51.0736
51.0776
51.0816
51.0857
51.0899
51.0941
51.0984
51.1027
51.107
51.1114
51.1158
51.1202
51.1246
51.1291
51.1337
51.1382
51.1429
51.1475
51.1523
51.1571
51.162
51.1669
51.1719
51.177
51.1821
51.1874
51.1927
51.1981
51.2036
51.2092
51.2148
51.2206
51.2264
51.2324
51.2384
51.2445
51.2507
51.2569
51.2633
51.2697
51.2761
51.2827
51.2893
51.2959
51.3026
51.3094
51.3162
51.3231
51.33
51.337
51.344
51.3511
51.3582
51.3654
51.3726
51.3799
51.3872
51.3947
51.4021
51.4097
51.4173
51.425
51.4328
51.4407
51.4486
51.4566
51.4648
51.473
51.4813
51.4897
51.4981
51.5067
51.5154
51.5242
51.533
51.542
51.551
51.5601
51.5692
51.5785
51.5878
51.5972
51.6066
51.6161
51.6256
51.6352
51.6448
51.6545
51.6642
51.6739
51.6837
51.6935
51.7034
51.7133
51.7233
51.7333
51.7434
51.7536
51.7637
51.774
51.7843
51.7946
51.805
51.8155
51.826
51.8366
51.8472
51.8579
51.8687
51.8795
51.8904
51.9014
51.9124
51.9235
51.9347
51.946
51.9573
51.9687
51.9802
51.9918
52.0033
52.0151
52.0267
52.0387
52.0503
52.0624
52.0741
52.0864
52.0979
52.1105
52.1219
52.1347
52.146
52.1589
52.1696
52.1828
50.9535
50.9538
50.954
50.9543
50.9545
50.9548
50.9551
50.9555
50.9559
50.9564
50.9569
50.9574
50.958
50.9587
50.9595
50.9602
50.9611
50.962
50.963
50.964
50.9651
50.9663
50.9676
50.9689
50.9703
50.9717
50.9732
50.9748
50.9764
50.9781
50.9798
50.9816
50.9834
50.9853
50.9872
50.9891
50.9911
50.9932
50.9953
50.9975
50.9998
51.0022
51.0047
51.0071
51.0096
51.0121
51.0146
51.0172
51.0198
51.0226
51.0254
51.0283
51.0313
51.0344
51.0376
51.041
51.0444
51.0479
51.0514
51.055
51.0586
51.0622
51.0659
51.0696
51.0735
51.0774
51.0814
51.0856
51.0897
51.094
51.0982
51.1025
51.1069
51.1112
51.1156
51.12
51.1245
51.129
51.1335
51.1381
51.1427
51.1474
51.1521
51.1569
51.1618
51.1667
51.1717
51.1768
51.182
51.1872
51.1925
51.1979
51.2034
51.209
51.2147
51.2204
51.2263
51.2322
51.2382
51.2443
51.2505
51.2568
51.2631
51.2695
51.276
51.2825
51.2891
51.2958
51.3025
51.3092
51.3161
51.3229
51.3299
51.3368
51.3438
51.3509
51.358
51.3652
51.3724
51.3797
51.3871
51.3945
51.402
51.4095
51.4172
51.4249
51.4326
51.4405
51.4485
51.4565
51.4646
51.4728
51.4811
51.4895
51.498
51.5066
51.5153
51.524
51.5329
51.5418
51.5508
51.5599
51.5691
51.5783
51.5876
51.597
51.6064
51.6159
51.6255
51.635
51.6446
51.6543
51.664
51.6738
51.6836
51.6934
51.7033
51.7132
51.7232
51.7332
51.7433
51.7534
51.7636
51.7738
51.7841
51.7945
51.8049
51.8153
51.8258
51.8364
51.8471
51.8578
51.8685
51.8794
51.8903
51.9012
51.9123
51.9234
51.9346
51.9458
51.9572
51.9686
51.9801
51.9916
52.0032
52.015
52.0266
52.0385
52.0501
52.0623
52.0739
52.0862
52.0978
52.1103
52.1218
52.1345
52.1458
52.1588
52.169
52.1846
52.1952
52.2
52.2026
52.2045
52.2064
52.2079
52.2087
52.2093
52.2104
52.2126
52.2177
52.2242
52.2276
52.2242
52.2168
52.2124
52.2105
52.2082
52.2064
52.2124
52.1941
52.1976
52.2001
52.202
52.204
52.2055
52.206
52.2066
52.2078
52.2099
52.2155
52.222
52.2246
52.2199
52.2112
52.2073
52.206
52.2045
52.204
52.209
52.1904
52.1927
52.1945
52.1957
52.1967
52.1974
52.1979
52.1978
52.1972
52.196
52.1942
52.1922
52.1903
52.1892
52.1881
52.1862
52.1835
52.1805
52.1774
52.1733
52.1845
52.1862
52.1888
52.1912
52.1925
52.1925
52.192
52.1917
52.1909
52.1903
52.1895
52.1885
52.1879
52.1864
52.1859
52.1853
52.1849
52.1849
52.1851
52.1858
52.1812
52.179
52.1793
52.1809
52.1818
52.1812
52.1803
52.1792
52.1779
52.1766
52.1752
52.1738
52.1724
52.1706
52.1694
52.1684
52.1675
52.1672
52.1671
52.1678
52.2168
52.2062
52.2045
52.2147
52.227
52.2343
52.2409
52.2501
52.2613
52.2711
52.2796
52.2883
52.2983
52.3091
52.319
52.3279
52.3369
52.3467
52.357
52.3671
52.3767
52.3862
52.396
52.4059
52.4159
52.4258
52.4357
52.4456
52.4555
52.4655
52.4755
52.4855
52.4955
52.5056
52.5154
52.5251
52.5349
52.5448
52.5547
52.5646
52.5745
52.5844
52.5942
52.6041
52.614
52.6238
52.6337
52.6435
52.6533
52.6631
52.6729
52.6826
52.6923
52.7021
52.7118
52.7215
52.7312
52.741
52.7507
52.7604
52.7701
52.7798
52.7895
52.7991
52.8088
52.8185
52.8281
52.8377
52.8473
52.8569
52.8664
52.8759
52.8855
52.895
52.9044
52.9139
52.9233
52.9326
52.942
52.9514
52.9609
52.9703
52.9797
52.9892
52.9985
53.0079
53.0183
53.0276
53.0356
53.0439
53.0531
53.0624
53.0717
53.081
53.0902
53.0994
53.1084
53.1173
53.1264
53.1359
53.1453
53.1541
53.1621
53.1702
53.1794
53.1893
53.1988
53.2063
53.21
53.2141
53.221
53.2305
53.2411
53.2536
53.2661
53.2772
53.2873
53.2963
53.3038
53.3111
53.3187
53.3263
53.334
53.3417
53.3495
53.3572
53.3649
53.3726
53.3802
53.3879
53.3955
53.4031
53.4106
53.4181
53.4256
53.433
53.4404
53.4478
53.4552
53.4625
53.4697
53.4769
53.4841
53.4912
53.4983
53.5054
53.5124
53.5193
53.5262
53.533
53.5398
53.5466
53.5533
53.5599
53.5665
53.5731
53.5795
53.586
53.5924
53.5987
53.605
53.6112
53.6173
53.6235
53.6295
53.6355
53.6415
53.6474
53.6533
53.6591
53.6648
53.6706
53.6762
53.6819
53.6874
53.693
53.6984
53.704
53.7093
53.7148
53.7199
53.7254
53.7304
53.7359
53.7407
53.7462
53.7509
53.7563
53.7609
53.7663
53.7707
53.776
53.7804
53.7855
53.7898
53.7949
53.7992
53.8038
53.8088
53.8126
52.2153
52.205
52.2039
52.2132
52.2238
52.2319
52.2392
52.2484
52.2585
52.2683
52.2774
52.2863
52.2961
52.3066
52.3167
52.3259
52.3352
52.345
52.3552
52.3653
52.3751
52.3848
52.3947
52.4047
52.4146
52.4245
52.4344
52.4444
52.4543
52.4643
52.4743
52.4842
52.4942
52.5042
52.514
52.5239
52.5337
52.5437
52.5536
52.5635
52.5734
52.5833
52.5932
52.6031
52.6129
52.6228
52.6326
52.6424
52.6522
52.662
52.6718
52.6815
52.6912
52.701
52.7107
52.7205
52.7302
52.7399
52.7497
52.7594
52.7691
52.7789
52.7886
52.7982
52.8079
52.8175
52.8272
52.8368
52.8463
52.8559
52.8655
52.875
52.8844
52.8939
52.9033
52.9127
52.9221
52.9315
52.9409
52.9503
52.9597
52.969
52.9782
52.9872
52.9962
53.0054
53.0157
53.0254
53.0338
53.0424
53.0517
53.061
53.0702
53.0794
53.0884
53.0974
53.1066
53.116
53.1254
53.134
53.1421
53.1506
53.1601
53.1701
53.1793
53.1866
53.1918
53.1966
53.2028
53.2112
53.2213
53.2323
53.245
53.2572
53.2683
53.2784
53.2877
53.2955
53.3031
53.3107
53.3185
53.3262
53.334
53.3418
53.3495
53.3573
53.365
53.3727
53.3804
53.388
53.3956
53.4032
53.4107
53.4182
53.4257
53.4332
53.4406
53.448
53.4553
53.4626
53.4698
53.4771
53.4842
53.4914
53.4984
53.5055
53.5125
53.5194
53.5263
53.5332
53.54
53.5467
53.5534
53.5601
53.5667
53.5732
53.5797
53.5861
53.5925
53.5988
53.6051
53.6113
53.6175
53.6236
53.6296
53.6357
53.6416
53.6475
53.6534
53.6592
53.665
53.6707
53.6764
53.682
53.6876
53.6931
53.6986
53.7041
53.7094
53.7149
53.7201
53.7255
53.7306
53.736
53.7409
53.7463
53.751
53.7564
53.761
53.7664
53.7708
53.7761
53.7805
53.7857
53.79
53.795
53.7993
53.8041
53.8087
53.8127
52.1589
52.176
52.1879
52.1961
52.2036
52.2118
52.2207
52.23
52.2392
52.2484
52.258
52.2678
52.2775
52.2872
52.297
52.3069
52.3169
52.3269
52.3368
52.3467
52.3567
52.3666
52.3766
52.3866
52.3966
52.4066
52.4166
52.4267
52.4367
52.4468
52.4568
52.4668
52.4768
52.4867
52.4967
52.5066
52.5165
52.5265
52.5364
52.5464
52.5563
52.5663
52.5763
52.5863
52.5962
52.6062
52.6161
52.6261
52.6359
52.6458
52.6556
52.6654
52.6752
52.6849
52.6946
52.7042
52.7139
52.7236
52.7333
52.743
52.7527
52.7624
52.772
52.7816
52.7912
52.8008
52.8103
52.8198
52.8293
52.8387
52.848
52.8573
52.8665
52.8758
52.8851
52.8943
52.9034
52.9125
52.9219
52.9317
52.9422
52.9534
52.9649
52.9772
52.9893
53.0008
53.0118
53.0227
53.0334
53.0433
53.0529
53.0623
53.0716
53.0807
53.0897
53.0988
53.1078
53.1169
53.126
53.1351
53.1443
53.1534
53.1625
53.1717
53.1808
53.1898
53.1989
53.208
53.217
53.2259
53.2348
53.2436
53.2522
53.2607
53.2691
53.2773
53.2855
53.2937
53.3017
53.3098
53.3178
53.3257
53.3336
53.3415
53.3493
53.3571
53.3649
53.3726
53.3803
53.388
53.3956
53.4032
53.4107
53.4182
53.4257
53.4332
53.4406
53.448
53.4553
53.4626
53.4698
53.4771
53.4842
53.4914
53.4984
53.5055
53.5125
53.5194
53.5263
53.5332
53.54
53.5467
53.5534
53.5601
53.5667
53.5732
53.5797
53.5861
53.5925
53.5988
53.6051
53.6113
53.6175
53.6236
53.6296
53.6357
53.6416
53.6475
53.6534
53.6592
53.665
53.6707
53.6764
53.682
53.6876
53.6931
53.6986
53.704
53.7095
53.7148
53.7202
53.7254
53.7307
53.7359
53.741
53.7462
53.7512
53.7562
53.7613
53.7661
53.7712
53.7758
53.7808
53.7855
53.7901
53.7948
53.7995
53.8039
53.8085
53.8129
52.185
52.1939
52.2032
52.2117
52.22
52.2289
52.2383
52.2478
52.2571
52.2665
52.2761
52.2857
52.2954
52.305
52.3148
52.3246
52.3345
52.3444
52.3543
52.3642
52.3742
52.3842
52.3942
52.4043
52.4143
52.4243
52.4344
52.4444
52.4545
52.4645
52.4745
52.4845
52.4945
52.5045
52.5144
52.5244
52.5343
52.5443
52.5542
52.5641
52.574
52.5838
52.5937
52.6035
52.6134
52.6232
52.6331
52.6429
52.6527
52.6625
52.6723
52.6821
52.6919
52.7017
52.7114
52.7211
52.7308
52.7406
52.7502
52.7599
52.7696
52.7792
52.7889
52.7985
52.8081
52.8178
52.8274
52.837
52.8466
52.8562
52.8657
52.8753
52.8848
52.8943
52.9038
52.9134
52.9229
52.9324
52.9419
52.9514
52.9609
52.9704
52.9798
52.9891
52.9983
53.0076
53.0167
53.0255
53.0344
53.0438
53.0532
53.0623
53.0711
53.0801
53.0892
53.0981
53.1067
53.1153
53.1239
53.1325
53.1411
53.1492
53.1567
53.1636
53.1705
53.1783
53.1876
53.198
53.2089
53.2208
53.2324
53.2434
53.2537
53.2632
53.2712
53.2789
53.2868
53.2946
53.3025
53.3103
53.3182
53.326
53.3339
53.3417
53.3494
53.3572
53.3649
53.3727
53.3803
53.388
53.3956
53.4032
53.4107
53.4182
53.4257
53.4332
53.4406
53.448
53.4553
53.4626
53.4698
53.4771
53.4842
53.4914
53.4985
53.5055
53.5125
53.5194
53.5263
53.5332
53.54
53.5467
53.5534
53.5601
53.5667
53.5732
53.5797
53.5861
53.5925
53.5988
53.6051
53.6113
53.6175
53.6236
53.6296
53.6357
53.6416
53.6475
53.6534
53.6592
53.665
53.6707
53.6764
53.682
53.6876
53.6931
53.6986
53.704
53.7095
53.7148
53.7202
53.7254
53.7308
53.7358
53.7412
53.746
53.7514
53.756
53.7614
53.7659
53.7713
53.7757
53.7809
53.7852
53.7904
53.7946
53.7996
53.8038
53.8086
53.8128
52.1807
52.1904
52.1995
52.2078
52.2161
52.2247
52.2336
52.2427
52.2519
52.261
52.2702
52.2796
52.2889
52.2983
52.3077
52.3173
52.327
52.3368
52.3466
52.3564
52.3663
52.3762
52.3862
52.3961
52.4061
52.4161
52.4261
52.436
52.446
52.456
52.466
52.4759
52.4858
52.4958
52.5057
52.5156
52.5255
52.5355
52.5454
52.5553
52.5652
52.5751
52.585
52.5949
52.6048
52.6146
52.6245
52.6343
52.6442
52.654
52.6638
52.6735
52.6833
52.693
52.7028
52.7125
52.7223
52.732
52.7417
52.7514
52.7611
52.7709
52.7805
52.7902
52.7999
52.8096
52.8192
52.8289
52.8385
52.8481
52.8577
52.8674
52.8769
52.8865
52.896
52.9055
52.915
52.9244
52.9338
52.9433
52.9527
52.962
52.9713
52.9807
52.9901
52.9995
53.0088
53.0178
53.0268
53.0359
53.0453
53.0549
53.0642
53.0727
53.0808
53.0898
53.1
53.1102
53.1191
53.1244
53.1288
53.1353
53.1446
53.1553
53.1674
53.1809
53.1931
53.2044
53.2151
53.2254
53.2348
53.2435
53.2521
53.2606
53.269
53.2772
53.2854
53.2936
53.3016
53.3097
53.3177
53.3256
53.3335
53.3414
53.3492
53.357
53.3647
53.3725
53.3802
53.3878
53.3954
53.403
53.4106
53.4181
53.4256
53.433
53.4404
53.4478
53.4552
53.4625
53.4697
53.4769
53.4841
53.4912
53.4983
53.5054
53.5124
53.5193
53.5262
53.533
53.5398
53.5466
53.5533
53.5599
53.5665
53.5731
53.5795
53.586
53.5924
53.5987
53.605
53.6112
53.6173
53.6235
53.6295
53.6355
53.6415
53.6474
53.6533
53.6591
53.6648
53.6706
53.6762
53.6819
53.6874
53.693
53.6985
53.7039
53.7094
53.7147
53.7201
53.7252
53.7306
53.7356
53.741
53.7459
53.7513
53.7559
53.7613
53.7658
53.7711
53.7756
53.7808
53.7852
53.79
53.7949
53.799
53.8041
53.8084
53.8127
53.8154
53.8161
53.817
53.8179
53.8188
53.8197
53.8205
53.8214
53.8222
53.823
53.8238
53.8246
53.8254
53.8263
53.8271
53.8279
53.8287
53.8295
53.8303
53.831
53.816
53.817
53.8179
53.8188
53.8197
53.8206
53.8214
53.8223
53.8232
53.824
53.8248
53.8256
53.8264
53.827
53.8278
53.8287
53.8294
53.8301
53.8307
53.831
53.8157
53.8168
53.8178
53.8188
53.8198
53.8207
53.8214
53.8222
53.823
53.8236
53.8243
53.8251
53.8256
53.8259
53.8264
53.827
53.8272
53.8271
53.827
53.8273
53.8155
53.8168
53.8179
53.819
53.8199
53.8208
53.8217
53.823
53.8248
53.8264
53.8271
53.8269
53.8272
53.8278
53.8279
53.8283
53.8297
53.8319
53.8338
53.8353
53.8154
53.8167
53.8179
53.8189
53.8199
53.8208
53.8219
53.8231
53.8248
53.8264
53.8274
53.8275
53.8276
53.8275
53.8271
53.8276
53.829
53.8316
53.8339
53.8366
53.8334
53.8378
53.8413
53.8442
53.847
53.8499
53.8529
53.8554
53.8576
53.8603
53.8634
53.8659
53.8677
53.8702
53.8735
53.8765
53.8786
53.8803
53.8831
53.8868
53.8902
53.8924
53.8935
53.8956
53.8991
53.9028
53.9061
53.9083
53.9095
53.9115
53.9143
53.9172
53.92
53.9227
53.9253
53.9279
53.9305
53.933
53.9355
53.9379
53.9403
53.9426
53.9448
53.947
53.9492
53.9513
53.9534
53.9554
53.9574
53.9593
53.9612
53.9631
53.9649
53.9666
53.9683
53.97
53.9717
53.9733
53.9749
53.9765
53.9781
53.9796
53.9811
53.9825
53.9839
53.9853
53.9866
53.988
53.9893
53.9907
53.9918
53.9925
53.9933
53.9944
53.9957
53.9968
53.9979
53.9989
54
54.0012
54.0021
54.0028
54.0039
54.0053
54.0065
54.0069
54.0067
54.0078
54.0096
54.0112
54.0101
54.0032
54.0009
54.0023
54.0071
54.0146
54.0198
54.0226
54.0241
54.0262
53.8323
53.8354
53.8381
53.8411
53.8446
53.8477
53.8503
53.8526
53.8555
53.859
53.8625
53.8649
53.8675
53.8709
53.8747
53.8777
53.8801
53.8829
53.8865
53.8906
53.8938
53.8961
53.898
53.9008
53.9049
53.9088
53.9119
53.9141
53.9158
53.9182
53.9214
53.9245
53.9273
53.9301
53.9328
53.9356
53.9382
53.9408
53.9434
53.9459
53.9483
53.9506
53.9529
53.9552
53.9574
53.9595
53.9616
53.9636
53.9656
53.9676
53.9695
53.9713
53.9731
53.9749
53.9767
53.9783
53.98
53.9816
53.9832
53.9847
53.9862
53.9877
53.9891
53.9905
53.9918
53.9932
53.9945
53.9958
53.9972
53.9985
53.9996
54.0005
54.0011
54.0022
54.0036
54.0048
54.0057
54.0067
54.0079
54.009
54.0098
54.0105
54.0117
54.0128
54.0136
54.0141
54.0149
54.0158
54.0163
54.017
54.0172
54.0168
54.0169
54.017
54.0157
54.0141
54.0141
54.0151
54.0169
54.0208
53.8261
53.828
53.8295
53.8306
53.8316
53.8333
53.8353
53.8372
53.8388
53.8416
53.8445
53.8471
53.8491
53.8526
53.856
53.8595
53.8616
53.8641
53.8685
53.872
53.8759
53.8787
53.8793
53.8833
53.8878
53.8912
53.8954
53.8974
53.898
53.9019
53.9056
53.9087
53.9117
53.9145
53.9172
53.9199
53.9225
53.9251
53.9276
53.93
53.9324
53.9347
53.9369
53.939
53.9411
53.9432
53.9451
53.9471
53.949
53.9508
53.9527
53.9545
53.9563
53.958
53.9597
53.9614
53.9629
53.9643
53.9659
53.9673
53.9688
53.9701
53.9713
53.9726
53.9738
53.9749
53.9758
53.9767
53.9775
53.9787
53.9804
53.9819
53.9853
53.9893
53.9936
53.9972
54.0005
54.0034
54.006
54.0079
54.0093
54.0104
54.0115
54.0123
54.0132
54.014
54.015
54.0159
54.017
54.018
54.0194
54.0203
54.0217
54.0227
54.0237
54.0249
54.026
54.0271
54.0283
54.0295
53.8367
53.8366
53.8393
53.8421
53.8466
53.8474
53.8508
53.8537
53.8587
53.8588
53.8623
53.866
53.8738
53.8722
53.8748
53.8799
53.8873
53.8941
53.8881
53.8909
53.8962
53.8991
53.9148
53.9101
53.9064
53.9101
53.9156
53.9219
53.9325
53.9259
53.9235
53.9262
53.9293
53.9319
53.9345
53.937
53.9396
53.942
53.9444
53.9468
53.949
53.9512
53.9534
53.9555
53.9575
53.9595
53.9615
53.9635
53.9654
53.9672
53.969
53.9708
53.9726
53.9743
53.976
53.9777
53.9794
53.981
53.9826
53.9842
53.9857
53.9872
53.9887
53.9901
53.9915
53.9929
53.9942
53.9952
53.9966
53.9983
54
54.0051
54.0024
54.0016
54.0027
54.0038
54.0047
54.0056
54.0066
54.0076
54.0086
54.0096
54.0104
54.0112
54.0123
54.0134
54.0143
54.0151
54.0163
54.0176
54.0187
54.019
54.019
54.02
54.0212
54.0228
54.0237
54.0226
54.0173
54.0144
53.8389
53.8369
53.8402
53.847
53.8517
53.8504
53.8528
53.8585
53.8672
53.8649
53.866
53.8711
53.8827
53.8797
53.8795
53.8836
53.8955
53.904
53.8949
53.8946
53.899
53.9055
53.9251
53.9188
53.9106
53.9125
53.9179
53.928
53.9409
53.9323
53.9263
53.928
53.9307
53.9331
53.9356
53.9381
53.9406
53.9431
53.9455
53.9478
53.95
53.9522
53.9544
53.9565
53.9585
53.9605
53.9625
53.9645
53.9664
53.9683
53.9701
53.9719
53.9737
53.9754
53.9771
53.9788
53.9804
53.982
53.9836
53.9852
53.9867
53.9882
53.9897
53.9911
53.9924
53.9938
53.9951
53.9964
53.9977
53.9992
54.0014
54.0087
54.005
54.0032
54.004
54.005
54.0059
54.0068
54.0078
54.0087
54.0096
54.0106
54.0117
54.0128
54.0137
54.0146
54.0157
54.0169
54.018
54.0188
54.0199
54.0213
54.0226
54.0235
54.0232
54.0233
54.0243
54.0258
54.0268
54.0263
54.0256
54.0258
54.0261
54.0267
54.0273
54.028
54.0286
54.0292
54.0298
54.0303
54.0309
54.0314
54.0319
54.0324
54.0327
54.0331
54.0333
54.0335
54.0337
54.0338
54.0221
54.0227
54.0234
54.0243
54.0252
54.0261
54.027
54.0279
54.0288
54.0297
54.0306
54.0315
54.0324
54.0331
54.0335
54.0336
54.0337
54.0337
54.0336
54.0333
54.03
54.0302
54.0303
54.0306
54.0308
54.0311
54.0314
54.0316
54.0318
54.0319
54.0319
54.0317
54.0315
54.0314
54.0311
54.031
54.0306
54.0304
54.0295
54.0286
54.0135
54.013
54.0129
54.013
54.0133
54.0137
54.0149
54.0166
54.0186
54.0207
54.0226
54.0246
54.0264
54.0281
54.0298
54.0316
54.0332
54.0339
54.0333
54.0325
54.0232
54.0211
54.019
54.0173
54.0161
54.0154
54.0149
54.0146
54.0146
54.0155
54.0174
54.0196
54.0222
54.0251
54.0279
54.0304
54.0327
54.0343
54.0349
54.0353
54.0342
54.0345
54.0342
54.0338
54.0333
54.0331
54.0328
54.0319
54.031
54.031
54.0312
54.0307
54.0295
54.0284
54.0289
54.0298
54.0298
54.0288
54.0269
54.0254
54.0252
54.0272
54.0287
54.0286
54.027
54.0249
54.0232
54.022
54.0231
54.0243
54.025
54.0255
54.026
54.0263
54.0267
54.027
54.0273
54.0275
54.0278
54.028
54.0282
54.0285
54.0287
54.029
54.0293
54.0296
54.03
54.0303
54.0307
54.0311
54.0316
54.0321
54.0328
54.034
54.036
54.0375
54.0373
54.0347
54.0321
54.0321
54.0351
54.0365
54.0357
54.0348
54.0345
54.0357
54.0366
54.0371
54.0375
54.0379
54.0383
54.0387
54.0388
54.039
54.0395
54.0401
54.0403
54.0398
54.0399
54.0408
54.0416
54.038
54.0291
54.0276
54.0315
54.0405
54.0463
54.0498
54.0523
54.0546
54.0563
54.0574
54.058
54.0584
54.0588
54.0591
54.0594
54.0596
54.0597
54.0599
54.06
54.0601
54.0602
54.0603
54.0603
54.0604
54.0604
54.0605
54.0605
54.0605
54.0605
54.0605
54.0605
54.0605
54.0604
54.0604
54.0603
54.0603
54.0602
54.0602
54.0601
54.0601
54.06
54.0599
54.0599
54.0598
54.0598
54.0597
54.0597
54.0596
54.0596
54.0595
54.0595
54.0594
54.0594
54.0594
54.0594
54.0593
54.0593
54.0593
54.0592
54.0592
54.0591
54.0591
54.059
54.059
54.0589
54.0589
54.0588
54.0587
54.0587
54.0586
54.0585
54.0584
54.0583
54.0582
54.0581
54.0579
54.0578
54.0577
54.0576
54.0574
54.0573
54.0572
54.057
54.0569
54.0567
54.0566
54.0564
54.0563
54.0561
54.0559
54.0558
54.0556
54.0554
54.0552
54.0551
54.0549
54.0547
54.0545
54.0544
54.0541
54.0541
54.0538
54.0538
54.0534
54.0535
54.0531
54.0532
54.0528
54.0529
54.0525
54.0526
54.0524
54.0523
54.0524
54.0519
54.0521
54.052
54.0518
54.0333
54.0322
54.0302
54.0295
54.0294
54.0292
54.0277
54.0267
54.0267
54.0275
54.0276
54.0261
54.0261
54.0268
54.0283
54.0293
54.028
54.0268
54.0263
54.027
54.0283
54.0307
54.0315
54.0297
54.0285
54.0271
54.0274
54.0273
54.0289
54.0302
54.0308
54.0313
54.0318
54.0323
54.0328
54.0333
54.0338
54.0343
54.0347
54.0351
54.0355
54.0359
54.0362
54.0366
54.0369
54.0373
54.0377
54.0381
54.0385
54.0389
54.0394
54.04
54.0406
54.0419
54.0435
54.0441
54.0422
54.0404
54.0383
54.0388
54.0422
54.0431
54.0427
54.042
54.042
54.0434
54.0444
54.0451
54.0456
54.0458
54.0461
54.0464
54.0467
54.0467
54.047
54.0473
54.0475
54.0474
54.0476
54.0477
54.0479
54.0475
54.0458
54.0453
54.0448
54.0428
54.0415
54.0415
54.0423
54.0455
54.0516
54.0564
54.0593
54.0604
54.0605
54.0603
54.0602
54.0602
54.0602
54.0602
54.0603
54.0603
54.0604
54.0604
54.0605
54.0605
54.0606
54.0606
54.0606
54.0606
54.0606
54.0606
54.0606
54.0606
54.0605
54.0605
54.0605
54.0604
54.0603
54.0603
54.0602
54.0602
54.0601
54.06
54.06
54.0599
54.0599
54.0598
54.0598
54.0597
54.0597
54.0596
54.0596
54.0596
54.0595
54.0595
54.0595
54.0594
54.0594
54.0594
54.0593
54.0593
54.0592
54.0592
54.0592
54.0591
54.059
54.059
54.0589
54.0588
54.0588
54.0587
54.0586
54.0585
54.0584
54.0583
54.0582
54.058
54.0579
54.0578
54.0577
54.0575
54.0574
54.0573
54.0571
54.057
54.0568
54.0567
54.0565
54.0564
54.0562
54.056
54.0559
54.0557
54.0555
54.0553
54.0552
54.055
54.0548
54.0546
54.0545
54.0542
54.0542
54.0539
54.0539
54.0535
54.0536
54.0532
54.0533
54.0529
54.053
54.0526
54.0527
54.0524
54.0525
54.0522
54.0523
54.0521
54.0521
54.052
54.0263
54.0238
54.0213
54.0192
54.0166
54.0148
54.0132
54.0117
54.0099
54.0098
54.0091
54.0095
54.0083
54.008
54.009
54.0096
54.01
54.0105
54.0096
54.0087
54.0102
54.0111
54.0122
54.0127
54.0123
54.0114
54.0097
54.0113
54.0135
54.0151
54.0165
54.0174
54.018
54.0184
54.0187
54.019
54.0192
54.0194
54.0196
54.0199
54.0201
54.0203
54.0205
54.0207
54.0209
54.0212
54.0214
54.0217
54.0219
54.0221
54.0224
54.0226
54.0227
54.0224
54.0221
54.0215
54.0206
54.018
54.0171
54.0191
54.0203
54.0227
54.0231
54.0248
54.0294
54.0338
54.0373
54.0402
54.0426
54.0444
54.0455
54.046
54.0464
54.0466
54.0467
54.0468
54.047
54.0473
54.0477
54.0482
54.0489
54.0495
54.0502
54.051
54.0516
54.0523
54.053
54.0537
54.0545
54.0553
54.0562
54.057
54.0578
54.0585
54.0589
54.0592
54.0595
54.0596
54.0598
54.0599
54.0601
54.0602
54.0603
54.0604
54.0604
54.0605
54.0605
54.0606
54.0606
54.0606
54.0606
54.0606
54.0606
54.0606
54.0605
54.0605
54.0604
54.0604
54.0603
54.0603
54.0602
54.0602
54.0601
54.06
54.06
54.0599
54.0599
54.0598
54.0598
54.0597
54.0597
54.0596
54.0596
54.0596
54.0595
54.0595
54.0595
54.0594
54.0594
54.0594
54.0593
54.0593
54.0592
54.0592
54.0592
54.0591
54.059
54.059
54.0589
54.0588
54.0588
54.0587
54.0586
54.0585
54.0584
54.0583
54.0582
54.058
54.0579
54.0578
54.0577
54.0575
54.0574
54.0573
54.0571
54.057
54.0568
54.0567
54.0565
54.0564
54.0562
54.056
54.0559
54.0557
54.0555
54.0553
54.0552
54.055
54.0548
54.0546
54.0545
54.0543
54.0541
54.0539
54.0538
54.0536
54.0535
54.0533
54.0532
54.053
54.053
54.0527
54.0527
54.0526
54.0524
54.0523
54.0523
54.0521
54.0521
54.0519
54.034
54.0318
54.0308
54.028
54.0287
54.0274
54.0282
54.0265
54.0281
54.0254
54.027
54.0263
54.0302
54.0312
54.0259
54.0286
54.0287
54.0247
54.0377
54.0419
54.0273
54.0292
54.0334
54.0308
54.0324
54.0467
54.0556
54.0392
54.0315
54.0332
54.0348
54.0352
54.0355
54.0356
54.0358
54.0359
54.0361
54.0363
54.0364
54.0366
54.0367
54.0369
54.0371
54.0373
54.0376
54.0378
54.0381
54.0383
54.0386
54.0388
54.0391
54.0394
54.0397
54.0403
54.0419
54.0439
54.0389
54.0553
54.0618
54.0405
54.0406
54.045
54.0553
54.0582
54.0451
54.043
54.044
54.0445
54.0446
54.0448
54.045
54.0452
54.0455
54.0457
54.0458
54.0461
54.0465
54.0469
54.0473
54.0479
54.0486
54.0493
54.0493
54.0487
54.049
54.0497
54.0505
54.0508
54.0483
54.0427
54.0404
54.0408
54.0444
54.0524
54.0581
54.0607
54.0612
54.0609
54.0606
54.0604
54.0604
54.0604
54.0604
54.0605
54.0605
54.0605
54.0606
54.0606
54.0606
54.0606
54.0606
54.0606
54.0606
54.0606
54.0605
54.0605
54.0605
54.0604
54.0603
54.0603
54.0602
54.0602
54.0601
54.06
54.06
54.0599
54.0599
54.0598
54.0598
54.0597
54.0597
54.0596
54.0596
54.0596
54.0595
54.0595
54.0595
54.0594
54.0594
54.0594
54.0593
54.0593
54.0592
54.0592
54.0592
54.0591
54.059
54.059
54.0589
54.0588
54.0588
54.0587
54.0586
54.0585
54.0584
54.0583
54.0582
54.058
54.0579
54.0578
54.0577
54.0575
54.0574
54.0573
54.0571
54.057
54.0568
54.0567
54.0565
54.0564
54.0562
54.056
54.0559
54.0557
54.0555
54.0554
54.0551
54.055
54.0548
54.0547
54.0544
54.0544
54.0541
54.054
54.0537
54.0537
54.0534
54.0534
54.0531
54.0531
54.0528
54.0529
54.0525
54.0526
54.0523
54.0524
54.0522
54.0521
54.0523
54.0518
54.0373
54.0336
54.0328
54.0334
54.0346
54.0305
54.0308
54.034
54.0381
54.0318
54.0307
54.0329
54.0422
54.043
54.0325
54.0317
54.0342
54.0358
54.0497
54.0536
54.0348
54.0311
54.0358
54.0385
54.0435
54.0578
54.0664
54.0477
54.0342
54.0348
54.0362
54.0366
54.0367
54.0368
54.0369
54.0371
54.0372
54.0374
54.0375
54.0377
54.0378
54.038
54.0381
54.0383
54.0385
54.0388
54.039
54.0393
54.0396
54.0398
54.0401
54.0404
54.0407
54.0412
54.0424
54.0445
54.0472
54.0674
54.0735
54.0479
54.0423
54.0477
54.0642
54.0679
54.0508
54.0453
54.0455
54.0458
54.0459
54.046
54.0462
54.0463
54.0465
54.0468
54.0471
54.0475
54.0478
54.0482
54.0487
54.0493
54.0497
54.0504
54.0511
54.0519
54.0524
54.0521
54.0517
54.0522
54.053
54.0535
54.0511
54.0441
54.0421
54.0442
54.0528
54.0594
54.0614