/*--------------------------------*- C++ -*----------------------------------*\
| =========                 |                                                 |
| \\      /  F ield         | OpenFOAM: The Open Source CFD Toolbox           |
|  \\    /   O peration     | Version:  3.0.x                                 |
|   \\  /    A nd           | Web:      www.OpenFOAM.org                      |
|    \\/     M anipulation  |                                                 |
\*---------------------------------------------------------------------------*/
FoamFile
{
    version     2.0;
    format      ascii;
    class       surfaceScalarField;
    location    "0.58995";
    object      phi;
}
// * * * * * * * * * * * * * * * * * * * * * * * * * * * * * * * * * * * * * //

dimensions      [1 0 -1 0 0 0 0];

internalField   nonuniform List<scalar> 
53800
(
2.12959
0.00103853
2.11241
0.000720189
2.09523
0.000724349
2.07804
0.00073599
2.06085
0.000746431
2.04366
0.000756764
2.02646
0.000766488
2.00925
0.000775253
1.99203
0.000783059
1.97482
0.000789927
1.95761
0.000795829
1.9404
0.000800762
1.9232
0.000804783
1.906
0.000807981
1.88883
0.00081045
1.87167
0.000812287
1.85453
0.000813586
1.83741
0.000814446
1.82031
0.000815008
1.80324
0.000815243
1.78621
0.000815277
1.76921
0.000815209
1.75224
0.000815044
1.73532
0.000814808
1.71842
0.000814535
1.70157
0.00081422
1.68476
0.000813897
1.66799
0.000813529
1.65126
0.000813165
1.63458
0.000812793
1.61795
0.00081241
1.60136
0.000812022
1.58481
0.000811618
1.56832
0.000811205
1.55188
0.000810786
1.53549
0.000810363
1.51915
0.000809928
1.50287
0.000809509
1.48664
0.000809068
1.47047
0.000808612
1.45435
0.00080814
1.4383
0.000807679
1.4223
0.00080722
1.40637
0.000806742
1.3905
0.000806252
1.37469
0.000805752
1.35894
0.000805278
1.34326
0.000804821
1.32765
0.000804344
1.3121
0.000803835
1.29663
0.000803318
1.28122
0.000802794
1.26588
0.000802278
1.25061
0.000801789
1.23542
0.000801293
1.22029
0.000800795
1.20525
0.000800282
1.19027
0.000799771
1.17537
0.000799305
1.16055
0.00079883
1.14581
0.0007983
1.13114
0.000797744
1.11655
0.000797135
1.10205
0.000796487
1.08762
0.000795764
1.07327
0.000795006
1.05901
0.000794132
1.04483
0.000793109
1.03074
0.000791843
1.01673
0.000790346
1.0028
0.000788467
0.988965
0.000786103
0.975216
0.000783039
0.961556
0.000779137
0.947988
0.000774202
0.934513
0.00076806
0.921134
0.000760521
0.907853
0.000751322
0.894671
0.000740285
0.881592
0.000727151
0.868619
0.000711731
0.855753
0.000693858
0.842999
0.000673365
0.83036
0.000650233
0.817838
0.000624438
0.805436
0.000596042
0.793158
0.000565232
0.781005
0.000532202
0.768981
0.000497256
0.757087
0.000460778
0.745324
0.000423148
0.733694
0.000384829
0.722197
0.000346305
0.710833
0.000308023
0.699602
0.000270455
0.688503
0.000234043
0.677534
0.000199147
0.666695
0.000166105
0.655982
0.0001352
0.645394
0.000106609
0.634929
8.04536e-05
0.624583
5.68266e-05
0.614356
3.57098e-05
0.604245
1.70163e-05
0.594246
4.81072e-07
0.58436
-1.40641e-05
0.574583
-2.64755e-05
0.564913
-3.68348e-05
0.55535
-4.5406e-05
0.54589
-5.24404e-05
0.536534
-5.81489e-05
0.52728
-6.27194e-05
0.518126
-6.63494e-05
0.509073
-6.92276e-05
0.500119
-7.14375e-05
0.491264
-7.3136e-05
0.482507
-7.44363e-05
0.473849
-7.53992e-05
0.465288
-7.60978e-05
0.456824
-7.66023e-05
0.448458
-7.69682e-05
0.440188
-7.71935e-05
0.432016
-7.73325e-05
0.423939
-7.74264e-05
0.415959
-7.74504e-05
0.408075
-7.74378e-05
0.400286
-7.74075e-05
0.392593
-7.73661e-05
0.384995
-7.72911e-05
0.377493
-7.72071e-05
0.370084
-7.71398e-05
0.362771
-7.70378e-05
0.355551
-7.69348e-05
0.348426
-7.68434e-05
0.341394
-7.6746e-05
0.334455
-7.66342e-05
0.327609
-7.65233e-05
0.320855
-7.64307e-05
0.314194
-7.63076e-05
0.307624
-7.61849e-05
0.301145
-7.60831e-05
0.294757
-7.5958e-05
0.288459
-7.58297e-05
0.282251
-7.57135e-05
0.276131
-7.55916e-05
0.2701
-7.54544e-05
0.264157
-7.53239e-05
0.2583
-7.52041e-05
0.25253
-7.50567e-05
0.246846
-7.49102e-05
0.241246
-7.47904e-05
0.235731
-7.46337e-05
0.230299
-7.44784e-05
0.224949
-7.43459e-05
0.21968
-7.41842e-05
0.214492
-7.4019e-05
0.209384
-7.38734e-05
0.204354
-7.37073e-05
0.199402
-7.35312e-05
0.194527
-7.33727e-05
0.189727
-7.32012e-05
0.185001
-7.30136e-05
0.180349
-7.28424e-05
0.175769
-7.26592e-05
0.171261
-7.24599e-05
0.166822
-7.22784e-05
0.162451
-7.20859e-05
0.158149
-7.1875e-05
0.153913
-7.16787e-05
0.149742
-7.14733e-05
0.145635
-7.12527e-05
0.141592
-7.10479e-05
0.13761
-7.08339e-05
0.13369
-7.05984e-05
0.129829
-7.03865e-05
0.126027
-7.01475e-05
0.122283
-6.99162e-05
0.118595
-6.96656e-05
0.114964
-6.946e-05
0.111386
-6.91402e-05
0.107863
-6.8973e-05
0.104392
-6.86384e-05
0.100973
-6.83753e-05
0.0976057
-6.8218e-05
0.0942884
-6.76207e-05
0.0910215
-6.78868e-05
0.0878028
-6.66932e-05
0.0846339
-6.76076e-05
0.0815114
-6.56116e-05
0.0784382
-6.71667e-05
0.0754097
-6.40471e-05
0.0724286
-6.52791e-05
0.0694867
-5.72925e-05
0.0665768
-4.43903e-05
0.0636587
1.02621e-05
0.0606223
0.000172956
0.0564461
0.00135898
0.0505492
0.00312429
0.0207283
0.0270934
0.0406388
-0.022593
2.44759
0.00100149
2.4287
0.000706843
2.40981
0.000705243
2.39093
0.000718203
2.37206
0.000728494
2.3532
0.000738918
2.33433
0.000748934
2.31547
0.000757999
2.29661
0.000766103
2.27777
0.000773291
2.25892
0.000779546
2.24009
0.000784858
2.22126
0.000789278
2.20245
0.000792892
2.18367
0.000795791
2.1649
0.00079807
2.14616
0.000799822
2.12744
0.000801145
2.10875
0.000802173
2.09009
0.000802884
2.07147
0.000803396
2.05289
0.000803809
2.03435
0.000804126
2.01585
0.000804375
1.99739
0.000804589
1.97898
0.000804759
1.96061
0.000804922
1.94228
0.000805041
1.92401
0.000805164
1.90579
0.000805277
1.88762
0.000805379
1.8695
0.000805477
1.85143
0.000805558
1.83342
0.000805628
1.81547
0.000805693
1.79758
0.000805753
1.77974
0.000805802
1.76197
0.000805864
1.74426
0.000805904
1.72662
0.000805929
1.70903
0.000805938
1.69152
0.000805956
1.67407
0.000805976
1.6567
0.000805977
1.63939
0.000805965
1.62215
0.000805945
1.60499
0.000805949
1.5879
0.000805969
1.57089
0.000805968
1.55395
0.000805934
1.53709
0.000805891
1.52031
0.000805843
1.5036
0.000805804
1.48698
0.00080579
1.47044
0.000805768
1.45399
0.000805743
1.43761
0.000805703
1.42133
0.000805664
1.40512
0.000805666
1.38901
0.000805653
1.37298
0.000805579
1.35704
0.00080547
1.34119
0.000805296
1.32543
0.000805068
1.30976
0.000804743
1.29419
0.000804352
1.2787
0.0008038
1.26332
0.000803036
1.24802
0.000801951
1.23283
0.000800526
1.21773
0.000798585
1.20272
0.000795985
1.18782
0.000792477
1.17301
0.000787884
1.15831
0.000781974
1.14371
0.000774533
1.12921
0.000765336
1.11481
0.00075409
1.10052
0.000740596
1.08633
0.000724587
1.07225
0.000705879
1.05828
0.000684337
1.04441
0.000659843
1.03066
0.000632449
1.01701
0.000602219
1.00348
0.000569323
0.990053
0.000534066
0.97674
0.000496768
0.963538
0.000457859
0.950447
0.000417846
0.937466
0.000377216
0.924597
0.000336527
0.911838
0.00029633
0.899189
0.000257112
0.886649
0.00021936
0.874219
0.000183499
0.861897
0.000149846
0.849683
0.000118674
0.837577
9.01797e-05
0.825579
6.44405e-05
0.813689
4.14743e-05
0.801906
2.1262e-05
0.79023
3.68184e-06
0.778663
-1.14539e-05
0.767203
-2.42929e-05
0.755851
-3.50637e-05
0.744607
-4.39897e-05
0.733471
-5.12605e-05
0.722445
-5.71198e-05
0.711528
-6.17956e-05
0.70072
-6.54745e-05
0.690023
-6.83171e-05
0.679436
-7.0491e-05
0.668959
-7.21539e-05
0.658594
-7.33619e-05
0.648339
-7.42419e-05
0.638195
-7.48801e-05
0.628161
-7.53139e-05
0.618239
-7.55942e-05
0.608428
-7.57717e-05
0.598728
-7.58845e-05
0.589139
-7.59175e-05
0.57966
-7.59118e-05
0.570292
-7.58979e-05
0.561034
-7.58441e-05
0.551887
-7.5776e-05
0.542849
-7.57069e-05
0.533922
-7.56388e-05
0.525103
-7.5547e-05
0.516394
-7.54525e-05
0.507794
-7.53786e-05
0.499302
-7.52744e-05
0.490919
-7.51711e-05
0.482643
-7.50804e-05
0.474476
-7.49849e-05
0.466415
-7.4876e-05
0.458461
-7.47683e-05
0.450614
-7.46785e-05
0.442872
-7.45593e-05
0.435236
-7.44404e-05
0.427704
-7.43418e-05
0.420277
-7.42208e-05
0.412953
-7.40965e-05
0.405733
-7.3984e-05
0.398615
-7.38659e-05
0.391598
-7.37329e-05
0.384683
-7.36064e-05
0.377867
-7.34901e-05
0.371151
-7.33471e-05
0.364533
-7.32049e-05
0.358014
-7.30885e-05
0.35159
-7.29363e-05
0.345263
-7.27855e-05
0.33903
-7.26565e-05
0.332891
-7.24995e-05
0.326845
-7.23388e-05
0.32089
-7.21972e-05
0.315026
-7.20356e-05
0.309252
-7.18644e-05
0.303565
-7.17099e-05
0.297966
-7.15432e-05
0.292452
-7.13604e-05
0.287022
-7.11937e-05
0.281676
-7.10153e-05
0.276412
-7.08211e-05
0.271228
-7.06444e-05
0.266124
-7.04567e-05
0.261097
-7.02513e-05
0.256147
-7.00597e-05
0.251272
-6.98595e-05
0.246471
-6.96444e-05
0.241743
-6.94449e-05
0.237087
-6.92355e-05
0.2325
-6.90072e-05
0.227983
-6.87974e-05
0.223533
-6.85701e-05
0.21915
-6.83318e-05
0.214833
-6.81136e-05
0.210579
-6.78589e-05
0.206389
-6.76515e-05
0.202261
-6.72956e-05
0.198194
-6.73018e-05
0.194186
-6.65068e-05
0.190238
-6.71601e-05
0.186348
-6.54597e-05
0.182516
-6.71456e-05
0.17874
-6.42741e-05
0.175021
-6.7122e-05
0.171357
-6.29624e-05
0.167749
-6.70117e-05
0.164193
-6.08855e-05
0.160693
-6.49238e-05
0.157242
-5.14091e-05
0.153834
-2.99222e-05
0.150409
9.54684e-05
0.146708
0.000584392
0.141909
0.00292121
0.132101
0.00974786
0.100048
0.0560142
0.0798779
0.0577268
2.81155
0.000959241
2.78984
0.000689637
2.76815
0.000681724
2.74647
0.000695548
2.7248
0.000705265
2.70313
0.000715247
2.68146
0.000725009
2.6598
0.000733827
2.63814
0.000741681
2.6165
0.000748644
2.59486
0.000754707
2.57323
0.000759861
2.55161
0.000764151
2.53002
0.00076766
2.50844
0.000770476
2.4869
0.000772691
2.46538
0.000774395
2.44389
0.000775683
2.42243
0.000776685
2.401
0.00077738
2.37963
0.000777883
2.3583
0.000778289
2.33701
0.000778601
2.31577
0.000778849
2.29458
0.000779061
2.27344
0.000779233
2.25236
0.000779396
2.23133
0.000779518
2.21035
0.000779643
2.18944
0.00077976
2.16858
0.000779866
2.14778
0.000779968
2.12705
0.000780054
2.10638
0.000780129
2.08578
0.000780201
2.06525
0.000780267
2.04478
0.000780322
2.02439
0.00078039
2.00407
0.000780439
1.98382
0.000780472
1.96365
0.00078049
1.94355
0.000780517
1.92354
0.000780545
1.9036
0.000780556
1.88374
0.000780555
1.86397
0.000780546
1.84428
0.00078056
1.82468
0.000780591
1.80516
0.0007806
1.78573
0.000780578
1.76639
0.000780548
1.74714
0.000780514
1.72799
0.000780487
1.70892
0.000780486
1.68996
0.000780477
1.67108
0.000780465
1.65231
0.00078044
1.63363
0.000780415
1.61505
0.00078043
1.59657
0.000780429
1.57819
0.000780371
1.55992
0.000780277
1.54174
0.000780123
1.52368
0.000779915
1.50571
0.000779614
1.48786
0.000779247
1.47011
0.000778724
1.45247
0.000777994
1.43494
0.000776952
1.41752
0.000775577
1.40021
0.0007737
1.38301
0.000771179
1.36593
0.000767774
1.34896
0.000763313
1.3321
0.00075757
1.31535
0.000750336
1.29873
0.000741394
1.28222
0.00073046
1.26582
0.00071734
1.24955
0.000701775
1.23339
0.000683591
1.21735
0.000662656
1.20143
0.000638858
1.18563
0.00061225
1.16995
0.000582898
1.15439
0.000550968
1.13895
0.000516757
1.12363
0.000480579
1.10843
0.000442854
1.09336
0.000404071
1.07841
0.000364707
1.06358
0.000325297
1.04888
0.000286377
1.0343
0.000248418
1.01984
0.000211889
1.00551
0.000177198
0.991306
0.000144653
0.977226
0.000114512
0.963272
8.69665e-05
0.949443
6.20885e-05
0.935742
3.9894e-05
0.922167
2.03622e-05
0.908719
3.3799e-06
0.895398
-1.12379e-05
0.882205
-2.36404e-05
0.86914
-3.40423e-05
0.856202
-4.26639e-05
0.843393
-4.96872e-05
0.830711
-5.53471e-05
0.818158
-5.98637e-05
0.805733
-6.34173e-05
0.793437
-6.61633e-05
0.781268
-6.82633e-05
0.769228
-6.98692e-05
0.757317
-7.10362e-05
0.745533
-7.1886e-05
0.733878
-7.25022e-05
0.722351
-7.29211e-05
0.710951
-7.31917e-05
0.69968
-7.33629e-05
0.688536
-7.34714e-05
0.67752
-7.35032e-05
0.666631
-7.34975e-05
0.655869
-7.34837e-05
0.645234
-7.34317e-05
0.634726
-7.33657e-05
0.624344
-7.32988e-05
0.614088
-7.32327e-05
0.603958
-7.3144e-05
0.593954
-7.30526e-05
0.584074
-7.29807e-05
0.57432
-7.288e-05
0.564689
-7.278e-05
0.555183
-7.26921e-05
0.5458
-7.25997e-05
0.536541
-7.24944e-05
0.527404
-7.23901e-05
0.518389
-7.23029e-05
0.509496
-7.21878e-05
0.500724
-7.20727e-05
0.492072
-7.1977e-05
0.48354
-7.186e-05
0.475127
-7.17397e-05
0.466832
-7.16306e-05
0.458655
-7.15163e-05
0.450595
-7.13876e-05
0.442651
-7.12651e-05
0.434821
-7.11524e-05
0.427106
-7.10141e-05
0.419504
-7.08765e-05
0.412014
-7.07634e-05
0.404636
-7.06163e-05
0.397367
-7.04704e-05
0.390207
-7.03452e-05
0.383155
-7.01935e-05
0.376209
-7.00379e-05
0.369369
-6.99006e-05
0.362633
-6.97442e-05
0.355999
-6.95786e-05
0.349466
-6.94288e-05
0.343034
-6.92674e-05
0.3367
-6.90906e-05
0.330463
-6.89291e-05
0.324321
-6.87563e-05
0.318274
-6.85685e-05
0.312319
-6.83973e-05
0.306455
-6.82154e-05
0.30068
-6.80169e-05
0.294994
-6.78311e-05
0.289394
-6.76374e-05
0.283879
-6.74291e-05
0.278447
-6.72363e-05
0.273098
-6.70324e-05
0.267829
-6.68141e-05
0.26264
-6.66054e-05
0.257528
-6.63963e-05
0.252493
-6.61439e-05
0.247533
-6.59756e-05
0.242647
-6.56461e-05
0.237833
-6.55983e-05
0.23309
-6.49855e-05
0.228418
-6.54364e-05
0.223814
-6.39723e-05
0.219279
-6.5618e-05
0.214809
-6.25979e-05
0.210408
-6.59594e-05
0.20607
-6.11258e-05
0.201798
-6.62344e-05
0.197588
-5.95415e-05
0.193443
-6.65205e-05
0.189359
-5.68845e-05
0.185338
-6.4241e-05
0.181374
-4.46049e-05
0.177463
-1.75173e-05
0.173568
0.00015365
0.169555
0.000818351
0.164777
0.00398162
0.157818
0.0130484
0.13129
0.0789439
0.116564
0.0910634
3.22962
0.000912185
3.20469
0.000669082
3.17977
0.000654809
3.15487
0.000669432
3.12997
0.000678602
3.10508
0.000688085
3.08019
0.000697535
3.0553
0.000706059
3.03043
0.000713623
3.00557
0.000720325
2.98071
0.000726165
2.95586
0.000731132
2.93103
0.000735268
2.90622
0.000738652
2.88144
0.000741367
2.85669
0.000743504
2.83197
0.000745148
2.80729
0.000746392
2.78264
0.000747358
2.75803
0.00074803
2.73347
0.000748516
2.70897
0.000748908
2.68452
0.000749208
2.66012
0.000749447
2.63578
0.000749652
2.6115
0.000749818
2.58728
0.000749975
2.56312
0.000750093
2.53903
0.000750213
2.515
0.000750326
2.49104
0.000750429
2.46716
0.000750527
2.44334
0.000750609
2.4196
0.000750682
2.39594
0.000750752
2.37235
0.000750815
2.34884
0.000750869
2.32541
0.000750934
2.30207
0.000750982
2.27881
0.000751014
2.25564
0.000751032
2.23256
0.000751057
2.20957
0.000751085
2.18666
0.000751096
2.16386
0.000751095
2.14114
0.000751086
2.11853
0.000751101
2.09601
0.000751131
2.07359
0.00075114
2.05127
0.000751118
2.02906
0.00075109
2.00695
0.000751057
1.98494
0.000751032
1.96304
0.000751031
1.94126
0.000751023
1.91958
0.000751011
1.89801
0.000750987
1.87655
0.000750965
1.85521
0.000750979
1.83399
0.000750978
1.81288
0.000750921
1.79188
0.000750832
1.77101
0.000750684
1.75026
0.000750484
1.72962
0.000750196
1.70911
0.000749844
1.68872
0.000749342
1.66846
0.00074864
1.64833
0.000747639
1.62832
0.000746318
1.60843
0.000744514
1.58868
0.000742089
1.56905
0.000738817
1.54956
0.000734528
1.5302
0.000729007
1.51096
0.000722053
1.49186
0.000713457
1.4729
0.000702946
1.45407
0.000690333
1.43537
0.00067537
1.41681
0.000657888
1.39838
0.00063776
1.3801
0.000614881
1.36195
0.000589297
1.34393
0.000561074
1.32606
0.000530371
1.30832
0.000497473
1.29073
0.000462681
1.27327
0.000426399
1.25596
0.000389097
1.23878
0.000351233
1.22175
0.000313322
1.20486
0.000275879
1.18811
0.000239356
1.1715
0.000204206
1.15504
0.000170821
1.13872
0.000139496
1.12255
0.000110482
1.10652
8.39623e-05
1.09063
6.00069e-05
1.07489
3.86317e-05
1.0593
1.98146e-05
1.04385
3.45764e-06
1.02855
-1.06244e-05
1.01339
-2.25874e-05
0.998384
-3.26143e-05
0.983522
-4.09295e-05
0.968808
-4.77054e-05
0.954241
-5.31677e-05
0.939821
-5.75283e-05
0.925548
-6.09605e-05
0.911423
-6.36141e-05
0.897445
-6.56445e-05
0.883615
-6.71976e-05
0.869932
-6.83278e-05
0.856396
-6.91511e-05
0.843008
-6.97486e-05
0.829766
-7.01555e-05
0.816672
-7.04189e-05
0.803724
-7.05861e-05
0.790924
-7.0692e-05
0.778269
-7.07243e-05
0.765761
-7.072e-05
0.753399
-7.07072e-05
0.741183
-7.0658e-05
0.729112
-7.05949e-05
0.717187
-7.05308e-05
0.705406
-7.04673e-05
0.693769
-7.03822e-05
0.682277
-7.02945e-05
0.670929
-7.02251e-05
0.659723
-7.01285e-05
0.648661
-7.00323e-05
0.637741
-6.99477e-05
0.626963
-6.98587e-05
0.616327
-6.97575e-05
0.605831
-6.96573e-05
0.595476
-6.9573e-05
0.58526
-6.94625e-05
0.575184
-6.93518e-05
0.565245
-6.92594e-05
0.555445
-6.9147e-05
0.545781
-6.90313e-05
0.536253
-6.89262e-05
0.52686
-6.88162e-05
0.517601
-6.86925e-05
0.508475
-6.85746e-05
0.499482
-6.84659e-05
0.49062
-6.83331e-05
0.481887
-6.82007e-05
0.473284
-6.80916e-05
0.464808
-6.79503e-05
0.456458
-6.781e-05
0.448234
-6.76892e-05
0.440133
-6.75434e-05
0.432154
-6.73937e-05
0.424297
-6.72614e-05
0.416559
-6.7111e-05
0.408939
-6.69518e-05
0.401435
-6.68075e-05
0.394046
-6.66522e-05
0.38677
-6.64823e-05
0.379605
-6.63266e-05
0.37255
-6.61605e-05
0.365604
-6.59798e-05
0.358763
-6.58149e-05
0.352027
-6.56398e-05
0.345394
-6.54492e-05
0.338862
-6.527e-05
0.332429
-6.50839e-05
0.326094
-6.48832e-05
0.319855
-6.46982e-05
0.31371
-6.45007e-05
0.307658
-6.42936e-05
0.301697
-6.40866e-05
0.295825
-6.38979e-05
0.290042
-6.36301e-05
0.284344
-6.35177e-05
0.278731
-6.31046e-05
0.273202
-6.3237e-05
0.267754
-6.23329e-05
0.262387
-6.32905e-05
0.257098
-6.10616e-05
0.251889
-6.38447e-05
0.246755
-5.93086e-05
0.241699
-6.45985e-05
0.236715
-5.75033e-05
0.231808
-6.52207e-05
0.226972
-5.56011e-05
0.222211
-6.59692e-05
0.217519
-5.22729e-05
0.212901
-6.34799e-05
0.208347
-3.67975e-05
0.203855
-3.54291e-06
0.199382
0.000219117
0.194781
0.00107905
0.189344
0.00514803
0.182121
0.0160691
0.155374
0.101558
0.154582
0.113289
3.70986
0.000859942
3.68122
0.000644518
3.6526
0.000624059
3.62399
0.000639349
3.59539
0.000647993
3.5668
0.000656916
3.53821
0.000665992
3.50962
0.00067417
3.48105
0.0006814
3.45249
0.000687802
3.42394
0.000693385
3.39539
0.000698138
3.36687
0.000702096
3.33837
0.000705334
3.30991
0.000707934
3.28148
0.00070998
3.25308
0.000711554
3.22472
0.000712746
3.19641
0.000713672
3.16814
0.000714316
3.13994
0.000714782
3.11179
0.000715158
3.0837
0.000715445
3.05568
0.000715674
3.02772
0.00071587
2.99983
0.000716028
2.972
0.000716179
2.94425
0.000716293
2.91658
0.000716407
2.88898
0.000716515
2.86146
0.000716614
2.83402
0.000716707
2.80666
0.000716786
2.77939
0.000716856
2.75221
0.000716923
2.72511
0.000716984
2.69811
0.000717035
2.6712
0.000717097
2.64438
0.000717143
2.61767
0.000717174
2.59105
0.000717192
2.56454
0.000717216
2.53812
0.000717242
2.51182
0.000717253
2.48562
0.000717252
2.45953
0.000717244
2.43355
0.000717259
2.40768
0.000717287
2.38193
0.000717296
2.35629
0.000717275
2.33077
0.000717249
2.30538
0.000717217
2.2801
0.000717194
2.25494
0.000717193
2.22992
0.000717186
2.20501
0.000717174
2.18024
0.000717152
2.15559
0.000717131
2.13108
0.000717145
2.1067
0.000717143
2.08245
0.000717089
2.05833
0.000717003
2.03435
0.000716863
2.01051
0.000716672
1.98681
0.000716398
1.96325
0.000716062
1.93983
0.000715584
1.91656
0.000714915
1.89343
0.000713961
1.87044
0.000712701
1.8476
0.00071098
1.82491
0.000708667
1.80237
0.000705545
1.77998
0.000701453
1.75773
0.000696187
1.73564
0.000689555
1.7137
0.000681354
1.69191
0.000671329
1.67028
0.000659297
1.64881
0.000645024
1.62749
0.000628348
1.60632
0.000609146
1.58531
0.000587319
1.56446
0.00056291
1.54377
0.000535982
1.52324
0.000506686
1.50287
0.000475293
1.48266
0.000442092
1.4626
0.000407465
1.44271
0.000371861
1.42299
0.000335719
1.40342
0.000299528
1.38402
0.00026378
1.36478
0.000228907
1.3457
0.000195341
1.32679
0.000163455
1.30805
0.000133534
1.28947
0.000105816
1.27105
8.04756e-05
1.25281
5.75822e-05
1.23473
3.7151e-05
1.21681
1.91605e-05
1.19907
3.51915e-06
1.18149
-9.95073e-06
1.16408
-2.1397e-05
1.14684
-3.09922e-05
1.12977
-3.89526e-05
1.11287
-4.5442e-05
1.09613
-5.06753e-05
1.07957
-5.48546e-05
1.06318
-5.81458e-05
1.04695
-6.06919e-05
1.03089
-6.26413e-05
1.01501
-6.41328e-05
0.999289
-6.52197e-05
0.983741
-6.6012e-05
0.968362
-6.65874e-05
0.953151
-6.698e-05
0.93811
-6.72349e-05
0.923237
-6.73971e-05
0.908533
-6.75001e-05
0.893997
-6.75326e-05
0.879629
-6.75298e-05
0.865429
-6.75181e-05
0.851396
-6.7472e-05
0.83753
-6.74123e-05
0.823831
-6.73514e-05
0.810298
-6.72909e-05
0.796932
-6.721e-05
0.783731
-6.71265e-05
0.770695
-6.70599e-05
0.757823
-6.6968e-05
0.745116
-6.68763e-05
0.732572
-6.67953e-05
0.720192
-6.67104e-05
0.707974
-6.66138e-05
0.695917
-6.65182e-05
0.684022
-6.64374e-05
0.672288
-6.63321e-05
0.660713
-6.62264e-05
0.649297
-6.6138e-05
0.638039
-6.60308e-05
0.626938
-6.59204e-05
0.615993
-6.58199e-05
0.605203
-6.57148e-05
0.594568
-6.55969e-05
0.584085
-6.54842e-05
0.573754
-6.53802e-05
0.563574
-6.52536e-05
0.553543
-6.51273e-05
0.54366
-6.50227e-05
0.533924
-6.4888e-05
0.524333
-6.47542e-05
0.514885
-6.46384e-05
0.50558
-6.44995e-05
0.496415
-6.43566e-05
0.487389
-6.423e-05
0.4785
-6.40865e-05
0.469747
-6.39346e-05
0.461128
-6.37966e-05
0.45264
-6.36483e-05
0.444282
-6.34863e-05
0.436052
-6.33373e-05
0.427948
-6.31788e-05
0.419968
-6.30064e-05
0.412111
-6.28488e-05
0.404373
-6.26814e-05
0.396754
-6.24998e-05
0.38925
-6.23283e-05
0.381861
-6.21508e-05
0.374584
-6.1959e-05
0.367417
-6.17828e-05
0.360358
-6.15927e-05
0.353406
-6.13985e-05
0.346559
-6.11937e-05
0.339814
-6.10277e-05
0.33317
-6.07433e-05
0.326626
-6.06935e-05
0.320178
-6.01867e-05
0.313826
-6.05229e-05
0.307568
-5.92881e-05
0.301403
-6.08241e-05
0.295328
-5.77185e-05
0.289344
-6.18101e-05
0.283447
-5.55254e-05
0.277639
-6.3044e-05
0.271914
-5.33297e-05
0.266278
-6.40732e-05
0.260722
-5.10528e-05
0.255254
-6.53656e-05
0.249864
-4.69439e-05
0.244559
-6.26553e-05
0.239328
-2.78383e-05
0.234169
1.22749e-05
0.229031
0.000293477
0.22375
0.00137474
0.217526
0.00646617
0.209379
0.0193883
0.180241
0.125948
0.196568
0.133583
4.26151
0.000802146
4.22861
0.00061514
4.19573
0.000588896
4.16287
0.000604695
4.13002
0.000612852
4.09717
0.000621154
4.06433
0.00062978
4.0315
0.00063755
3.99867
0.000644396
3.96587
0.000650456
3.93307
0.000655743
3.90028
0.000660247
3.86752
0.000663999
3.83478
0.00066707
3.80209
0.000669535
3.76943
0.000671475
3.73681
0.000672969
3.70423
0.000674101
3.67171
0.000674978
3.63924
0.000675591
3.60684
0.000676034
3.57451
0.000676391
3.54224
0.000676662
3.51005
0.00067688
3.47793
0.000677066
3.44589
0.000677216
3.41393
0.000677358
3.38206
0.000677467
3.35027
0.000677575
3.31856
0.000677677
3.28695
0.000677771
3.25543
0.00067786
3.22401
0.000677935
3.19268
0.000678
3.16145
0.000678064
3.13033
0.000678122
3.09931
0.000678171
3.0684
0.000678229
3.0376
0.000678273
3.00691
0.000678303
2.97633
0.00067832
2.94588
0.000678343
2.91554
0.000678367
2.88532
0.000678378
2.85522
0.000678377
2.82525
0.00067837
2.79541
0.000678385
2.7657
0.000678411
2.73612
0.000678419
2.70667
0.0006784
2.67736
0.000678375
2.64818
0.000678346
2.61914
0.000678324
2.59025
0.000678324
2.5615
0.000678316
2.53289
0.000678306
2.50444
0.000678285
2.47613
0.000678266
2.44797
0.000678279
2.41996
0.000678276
2.3921
0.000678225
2.3644
0.000678144
2.33686
0.000678012
2.30947
0.000677831
2.28225
0.000677574
2.25518
0.000677257
2.22828
0.000676806
2.20155
0.000676174
2.17498
0.000675273
2.14857
0.000674083
2.12234
0.000672458
2.09627
0.000670272
2.07038
0.000667323
2.04465
0.000663457
2.0191
0.000658483
1.99373
0.000652218
1.96852
0.000644471
1.9435
0.000635002
1.91865
0.000623635
1.89398
0.000610152
1.86949
0.000594398
1.84518
0.000576256
1.82105
0.000555634
1.7971
0.000532572
1.77333
0.000507127
1.74974
0.000479444
1.72634
0.000449777
1.70312
0.000418398
1.68009
0.000385669
1.65724
0.000352013
1.63458
0.000317845
1.61211
0.000283628
1.58982
0.000249825
1.56772
0.000216847
1.54581
0.000185099
1.52408
0.000154937
1.50255
0.000126629
1.48121
0.000100401
1.46006
7.6418e-05
1.4391
5.4747e-05
1.41833
3.54024e-05
1.39775
1.836e-05
1.37737
3.55283e-06
1.35718
-9.20045e-06
1.33718
-2.00642e-05
1.31738
-2.91571e-05
1.29777
-3.67072e-05
1.27835
-4.28642e-05
1.25913
-4.78314e-05
1.2401
-5.17998e-05
1.22127
-5.49264e-05
1.20263
-5.73467e-05
1.18419
-5.9201e-05
1.16594
-6.06201e-05
1.14788
-6.16558e-05
1.13002
-6.24113e-05
1.11236
-6.29603e-05
1.09488
-6.33358e-05
1.07761
-6.35801e-05
1.06052
-6.37361e-05
1.04363
-6.38352e-05
1.02693
-6.38677e-05
1.01043
-6.38662e-05
0.994116
-6.38558e-05
0.977997
-6.38131e-05
0.962069
-6.37571e-05
0.946333
-6.36998e-05
0.930789
-6.36427e-05
0.915434
-6.35665e-05
0.90027
-6.34877e-05
0.885296
-6.34245e-05
0.87051
-6.33379e-05
0.855913
-6.32512e-05
0.841505
-6.31745e-05
0.827283
-6.30942e-05
0.813248
-6.30029e-05
0.799399
-6.29126e-05
0.785735
-6.28359e-05
0.772256
-6.27365e-05
0.75896
-6.26367e-05
0.745846
-6.25528e-05
0.732914
-6.24516e-05
0.720162
-6.23472e-05
0.70759
-6.22521e-05
0.695196
-6.21525e-05
0.682979
-6.20412e-05
0.670937
-6.19346e-05
0.659071
-6.1836e-05
0.647377
-6.17165e-05
0.635854
-6.15971e-05
0.624502
-6.14979e-05
0.613318
-6.13707e-05
0.6023
-6.12444e-05
0.591448
-6.11343e-05
0.580759
-6.10033e-05
0.570231
-6.08682e-05
0.559863
-6.07482e-05
0.549653
-6.06126e-05
0.539598
-6.04691e-05
0.529696
-6.03382e-05
0.519947
-6.01981e-05
0.510346
-6.0045e-05
0.500892
-5.99039e-05
0.491583
-5.97541e-05
0.482417
-5.95911e-05
0.473391
-5.94421e-05
0.464503
-5.92834e-05
0.45575
-5.91122e-05
0.447131
-5.89495e-05
0.438643
-5.87819e-05
0.430284
-5.86002e-05
0.422051
-5.84343e-05
0.413943
-5.82527e-05
0.405957
-5.8073e-05
0.398092
-5.78711e-05
0.390344
-5.77307e-05
0.382712
-5.74281e-05
0.375194
-5.7449e-05
0.367788
-5.68361e-05
0.360492
-5.7405e-05
0.353303
-5.57905e-05
0.346221
-5.79932e-05
0.339243
-5.38737e-05
0.332369
-5.94818e-05
0.325595
-5.11661e-05
0.318923
-6.12783e-05
0.312347
-4.85089e-05
0.305873
-6.27894e-05
0.299491
-4.57849e-05
0.29321
-6.47287e-05
0.287018
-4.07625e-05
0.280925
-6.17942e-05
0.274916
-1.75451e-05
0.268989
3.00399e-05
0.263089
0.000377514
0.257029
0.00170816
0.249913
0.00794757
0.240633
0.0231225
0.208375
0.152753
0.242133
0.157443
18.5908
0.000574857
18.4473
0.00047416
18.3039
0.000437777
18.1605
0.000452817
18.0172
0.000459779
17.874
0.000465623
17.7307
0.000472073
17.5874
0.000477949
17.4442
0.000483102
17.3011
0.000487662
17.158
0.000491646
17.015
0.000495044
16.8721
0.000497879
16.7293
0.000500201
16.5866
0.000502066
16.4442
0.000503536
16.3019
0.00050467
16.1597
0.00050553
16.0179
0.000506194
15.8762
0.000506663
15.7349
0.000507
15.5938
0.000507273
15.4531
0.000507477
15.3126
0.000507644
15.1725
0.000507784
15.0327
0.000507898
14.8933
0.000508005
14.7543
0.000508089
14.6156
0.00050817
14.4773
0.000508247
14.3393
0.000508319
14.2018
0.000508386
14.0647
0.000508442
13.9281
0.000508491
13.7919
0.000508541
13.6561
0.000508585
13.5208
0.000508623
13.3859
0.000508665
13.2515
0.0005087
13.1177
0.000508724
12.9843
0.000508738
12.8514
0.000508754
12.719
0.000508772
12.5872
0.000508781
12.4559
0.000508781
12.3252
0.000508777
12.195
0.00050879
12.0654
0.00050881
11.9363
0.000508816
11.8079
0.0005088
11.68
0.000508783
11.5527
0.000508761
11.426
0.000508746
11.3
0.000508747
11.1746
0.000508742
11.0498
0.000508733
10.9256
0.000508719
10.8021
0.000508707
10.6793
0.000508716
10.5571
0.000508713
10.4356
0.000508674
10.3147
0.000508612
10.1946
0.000508515
10.0751
0.000508381
9.95631
0.000508191
9.83825
0.000507954
9.72089
0.00050762
9.60425
0.000507147
9.48834
0.000506477
9.37316
0.000505588
9.25871
0.000504376
9.145
0.000502741
9.03203
0.000500537
8.91981
0.000497648
8.80835
0.000493933
8.69764
0.000489254
8.5877
0.000483467
8.47852
0.000476396
8.37012
0.000467904
8.26249
0.000457833
8.15565
0.000446063
8.04959
0.000432508
7.94432
0.000417099
7.83984
0.000399861
7.73615
0.000380841
7.63326
0.000360142
7.53117
0.000337954
7.42989
0.000314481
7.3294
0.000289992
7.22973
0.000264799
7.13087
0.000239217
7.03282
0.000213589
6.93559
0.00018826
6.83918
0.000163541
6.74359
0.000139732
6.64882
0.000117102
6.55489
9.58524e-05
6.46178
7.61531e-05
6.36951
5.81292e-05
6.27807
4.18336e-05
6.18746
2.72822e-05
6.0977
1.44821e-05
6.00878
3.2537e-06
5.9207
-6.4608e-06
5.83346
-1.45476e-05
5.74706
-2.14414e-05
5.66152
-2.71531e-05
5.57681
-3.18218e-05
5.49296
-3.55945e-05
5.40995
-3.86135e-05
5.3278
-4.09968e-05
5.24649
-4.28463e-05
5.16603
-4.42669e-05
5.08641
-4.53554e-05
5.00765
-4.61545e-05
4.92973
-4.6739e-05
4.85266
-4.71651e-05
4.77644
-4.74589e-05
4.70107
-4.76521e-05
4.62653
-4.7777e-05
4.55285
-4.78568e-05
4.48001
-4.78865e-05
4.408
-4.78892e-05
4.33684
-4.78835e-05
4.26652
-4.78541e-05
4.19704
-4.78138e-05
4.12839
-4.77719e-05
4.06058
-4.77295e-05
3.99359
-4.76734e-05
3.92744
-4.76151e-05
3.86211
-4.75671e-05
3.79761
-4.75031e-05
3.73393
-4.74382e-05
3.67107
-4.73805e-05
3.60903
-4.73203e-05
3.5478
-4.72522e-05
3.48739
-4.71846e-05
3.42778
-4.71263e-05
3.36897
-4.70525e-05
3.31097
-4.69778e-05
3.25376
-4.69141e-05
3.19735
-4.68386e-05
3.14172
-4.67606e-05
3.08687
-4.66889e-05
3.0328
-4.66141e-05
2.9795
-4.65311e-05
2.92697
-4.6451e-05
2.8752
-4.63766e-05
2.82419
-4.62875e-05
2.77392
-4.61981e-05
2.7244
-4.61229e-05
2.67561
-4.60279e-05
2.62754
-4.59339e-05
2.5802
-4.58499e-05
2.53357
-4.57527e-05
2.48764
-4.56513e-05
2.44241
-4.55609e-05
2.39787
-4.54592e-05
2.354
-4.53522e-05
2.31081
-4.52532e-05
2.26827
-4.51485e-05
2.22639
-4.50341e-05
2.18515
-4.49274e-05
2.14454
-4.48157e-05
2.10455
-4.46932e-05
2.06517
-4.45818e-05
2.0264
-4.44616e-05
1.98822
-4.43353e-05
1.95062
-4.42111e-05
1.91359
-4.4087e-05
1.87712
-4.3949e-05
1.8412
-4.3828e-05
1.80583
-4.3684e-05
1.77099
-4.35663e-05
1.73668
-4.33795e-05
1.70288
-4.33467e-05
1.66959
-4.29702e-05
1.63679
-4.32935e-05
1.60448
-4.222e-05
1.57265
-4.38137e-05
1.54129
-4.05064e-05
1.51039
-4.57055e-05
1.47995
-3.69941e-05
1.44996
-4.94998e-05
1.42041
-3.18999e-05
1.39131
-5.39199e-05
1.36262
-2.70263e-05
1.33438
-5.77672e-05
1.30653
-2.20784e-05
1.27913
-6.28705e-05
1.25212
-1.28244e-05
1.22554
-5.94181e-05
1.19932
2.73106e-05
1.17348
0.000101176
1.14776
0.000722144
1.12142
0.0030605
1.09091
0.0138785
1.05138
0.0384631
0.926049
0.254292
0.424059
0.72071
18.5908
0.000371058
18.4473
0.000321505
18.3039
0.000290461
18.1605
0.000301372
18.0172
0.000306572
17.8739
0.000310276
17.7307
0.000314563
17.5874
0.000318511
17.4442
0.000321961
17.3011
0.000325013
17.158
0.000327682
17.015
0.000329961
16.8721