/*--------------------------------*- C++ -*----------------------------------*\
| =========                 |                                                 |
| \\      /  F ield         | OpenFOAM: The Open Source CFD Toolbox           |
|  \\    /   O peration     | Version:  3.0.x                                 |
|   \\  /    A nd           | Web:      www.OpenFOAM.org                      |
|    \\/     M anipulation  |                                                 |
\*---------------------------------------------------------------------------*/
FoamFile
{
    version     2.0;
    format      ascii;
    class       volVectorField;
    location    "0.58995";
    object      U;
}
// * * * * * * * * * * * * * * * * * * * * * * * * * * * * * * * * * * * * * //

dimensions      [0 1 -1 0 0 0 0];

internalField   nonuniform List<vector> 
27600
(
(42.5645 0.000268532 0)
(42.2377 0.0002286 0)
(41.8482 0.000228634 0)
(41.4819 0.000233637 0)
(41.1374 0.000238797 0)
(40.7971 0.000243751 0)
(40.454 0.000248302 0)
(40.1091 0.00025238 0)
(39.7642 0.000256006 0)
(39.4199 0.000259208 0)
(39.0761 0.000262001 0)
(38.7326 0.000264402 0)
(38.3895 0.000266441 0)
(38.0467 0.000268156 0)
(37.7045 0.000269582 0)
(37.3628 0.000270758 0)
(37.0216 0.000271719 0)
(36.681 0.000272502 0)
(36.3409 0.000273148 0)
(36.0015 0.000273666 0)
(35.6627 0.000274092 0)
(35.3248 0.000274452 0)
(34.9876 0.000274756 0)
(34.6512 0.000275016 0)
(34.3155 0.000275241 0)
(33.9807 0.000275435 0)
(33.6467 0.000275607 0)
(33.3136 0.000275751 0)
(32.9813 0.000275878 0)
(32.65 0.000275988 0)
(32.3196 0.000276082 0)
(31.9902 0.000276161 0)
(31.6617 0.000276224 0)
(31.3343 0.000276272 0)
(31.0078 0.000276308 0)
(30.6825 0.000276333 0)
(30.3582 0.000276345 0)
(30.035 0.000276352 0)
(29.7129 0.000276345 0)
(29.3919 0.000276326 0)
(29.0721 0.000276295 0)
(28.7535 0.000276259 0)
(28.4361 0.000276217 0)
(28.1199 0.000276164 0)
(27.8049 0.000276102 0)
(27.4912 0.000276032 0)
(27.1788 0.000275962 0)
(26.8677 0.000275892 0)
(26.5579 0.000275813 0)
(26.2494 0.000275722 0)
(25.9423 0.000275623 0)
(25.6365 0.000275518 0)
(25.3322 0.000275411 0)
(25.0292 0.000275307 0)
(24.7277 0.000275199 0)
(24.4276 0.000275088 0)
(24.1289 0.000274971 0)
(23.8318 0.000274852 0)
(23.5361 0.00027474 0)
(23.2419 0.000274625 0)
(22.9493 0.000274495 0)
(22.6582 0.000274353 0)
(22.3686 0.000274195 0)
(22.0806 0.000274023 0)
(21.7942 0.000273829 0)
(21.5094 0.000273621 0)
(21.2262 0.000273382 0)
(20.9446 0.0002731 0)
(20.6647 0.000272751 0)
(20.3864 0.00027233 0)
(20.1098 0.000271802 0)
(19.8349 0.000271131 0)
(19.5618 0.00027026 0)
(19.2904 0.000269141 0)
(19.0207 0.000267717 0)
(18.7529 0.000265929 0)
(18.487 0.000263718 0)
(18.2229 0.000261005 0)
(17.9608 0.000257725 0)
(17.7006 0.000253799 0)
(17.4425 0.000249154 0)
(17.1865 0.000243731 0)
(16.9327 0.000237467 0)
(16.681 0.000230339 0)
(16.4317 0.000222326 0)
(16.1847 0.000213434 0)
(15.94 0.000203701 0)
(15.6979 0.000193176 0)
(15.4582 0.00018194 0)
(15.2211 0.0001701 0)
(14.9866 0.000157772 0)
(14.7547 0.000145095 0)
(14.5253 0.000132224 0)
(14.2987 0.000119312 0)
(14.0746 0.000106522 0)
(13.8531 9.40061e-05 0)
(13.6342 8.18642e-05 0)
(13.4179 7.0195e-05 0)
(13.2041 5.9094e-05 0)
(12.9928 4.8638e-05 0)
(12.7839 3.88925e-05 0)
(12.5774 2.99193e-05 0)
(12.3732 2.17798e-05 0)
(12.1714 1.45294e-05 0)
(11.9717 7.54832e-06 0)
(11.7743 1.94934e-06 0)
(11.5791 -2.97608e-06 0)
(11.386 -7.17057e-06 0)
(11.195 -1.07022e-05 0)
(11.0061 -1.36464e-05 0)
(10.8191 -1.60732e-05 0)
(10.6342 -1.80482e-05 0)
(10.4513 -1.96414e-05 0)
(10.2704 -2.09214e-05 0)
(10.0914 -2.19252e-05 0)
(9.9144 -2.271e-05 0)
(9.73931 -2.33198e-05 0)
(9.56615 -2.37826e-05 0)
(9.39491 -2.41278e-05 0)
(9.22558 -2.43837e-05 0)
(9.05817 -2.4573e-05 0)
(8.89267 -2.47006e-05 0)
(8.72906 -2.47861e-05 0)
(8.56736 -2.48459e-05 0)
(8.40755 -2.48755e-05 0)
(8.24963 -2.48869e-05 0)
(8.09359 -2.48876e-05 0)
(7.93943 -2.48813e-05 0)
(7.78716 -2.48624e-05 0)
(7.63675 -2.48385e-05 0)
(7.48821 -2.48183e-05 0)
(7.34154 -2.47872e-05 0)
(7.19672 -2.47549e-05 0)
(7.05376 -2.47259e-05 0)
(6.91264 -2.46951e-05 0)
(6.77336 -2.466e-05 0)
(6.63592 -2.46251e-05 0)
(6.5003 -2.4596e-05 0)
(6.36651 -2.45579e-05 0)
(6.23452 -2.45199e-05 0)
(6.10434 -2.44884e-05 0)
(5.97595 -2.44504e-05 0)
(5.84935 -2.44114e-05 0)
(5.72452 -2.43764e-05 0)
(5.60145 -2.434e-05 0)
(5.48014 -2.42993e-05 0)
(5.36056 -2.42607e-05 0)
(5.24271 -2.42258e-05 0)
(5.12658 -2.41828e-05 0)
(5.01215 -2.41403e-05 0)
(4.8994 -2.41061e-05 0)
(4.78832 -2.40613e-05 0)
(4.67889 -2.4017e-05 0)
(4.5711 -2.398e-05 0)
(4.46494 -2.39344e-05 0)
(4.36038 -2.38879e-05 0)
(4.2574 -2.38478e-05 0)
(4.15599 -2.38017e-05 0)
(4.05612 -2.37528e-05 0)
(3.95778 -2.37096e-05 0)
(3.86095 -2.36627e-05 0)
(3.76561 -2.36112e-05 0)
(3.67172 -2.35648e-05 0)
(3.57928 -2.35151e-05 0)
(3.48826 -2.34607e-05 0)
(3.39864 -2.3412e-05 0)
(3.31039 -2.33603e-05 0)
(3.22349 -2.33031e-05 0)
(3.13793 -2.32504e-05 0)
(3.05367 -2.31953e-05 0)
(2.97069 -2.31356e-05 0)
(2.88897 -2.3081e-05 0)
(2.8085 -2.30238e-05 0)
(2.72925 -2.296e-05 0)
(2.65119 -2.29038e-05 0)
(2.57431 -2.28388e-05 0)
(2.49859 -2.2778e-05 0)
(2.42401 -2.27074e-05 0)
(2.35054 -2.26595e-05 0)
(2.27816 -2.25589e-05 0)
(2.20686 -2.2539e-05 0)
(2.13662 -2.24078e-05 0)
(2.06743 -2.24005e-05 0)
(1.99924 -2.22678e-05 0)
(1.9321 -2.22312e-05 0)
(1.86592 -2.21509e-05 0)
(1.80077 -2.20123e-05 0)
(1.73653 -2.2057e-05 0)
(1.67333 -2.17493e-05 0)
(1.611 -2.19114e-05 0)
(1.54971 -2.1363e-05 0)
(1.48923 -2.13824e-05 0)
(1.42976 -1.96824e-05 0)
(1.37094 -1.72032e-05 0)
(1.31266 -9.69621e-06 0)
(1.25347 8.85589e-07 0)
(1.19175 0.000249702 0)
(1.08089 7.09488e-05 0)
(0.960008 0.00564365 0)
(-0.140571 0.00513036 0)
(42.5786 0.000431368 0)
(42.2662 0.000314544 0)
(41.8914 0.000304424 0)
(41.5399 0.000306031 0)
(41.2105 0.000308363 0)
(40.8854 0.000311148 0)
(40.5577 0.000313947 0)
(40.2284 0.000316493 0)
(39.8993 0.000318742 0)
(39.5709 0.000320684 0)
(39.2431 0.000322299 0)
(38.9158 0.000323578 0)
(38.5888 0.000324536 0)
(38.2624 0.000325205 0)
(37.9365 0.000325618 0)
(37.6111 0.000325814 0)
(37.2863 0.000325827 0)
(36.9621 0.000325698 0)
(36.6385 0.000325478 0)
(36.3154 0.000325158 0)
(35.9931 0.000324786 0)
(35.6716 0.000324396 0)
(35.3508 0.000323992 0)
(35.0307 0.000323583 0)
(34.7114 0.000323181 0)
(34.393 0.000322783 0)
(34.0753 0.0003224 0)
(33.7585 0.000322019 0)
(33.4425 0.000321655 0)
(33.1275 0.000321305 0)
(32.8134 0.000320966 0)
(32.5002 0.000320639 0)
(32.188 0.00032032 0)
(31.8768 0.00032001 0)
(31.5666 0.00031971 0)
(31.2574 0.00031942 0)
(30.9493 0.000319137 0)
(30.6423 0.00031887 0)
(30.3364 0.000318605 0)
(30.0316 0.000318344 0)
(29.7279 0.000318085 0)
(29.4254 0.000317839 0)
(29.1241 0.000317602 0)
(28.824 0.000317366 0)
(28.5251 0.000317133 0)
(28.2274 0.000316903 0)
(27.931 0.000316691 0)
(27.636 0.000316493 0)
(27.3422 0.000316293 0)
(27.0497 0.000316086 0)
(26.7585 0.000315881 0)
(26.4688 0.000315679 0)
(26.1803 0.000315486 0)
(25.8933 0.00031531 0)
(25.6077 0.000315136 0)
(25.3235 0.000314966 0)
(25.0408 0.000314794 0)
(24.7595 0.000314628 0)
(24.4797 0.000314483 0)
(24.2014 0.000314339 0)
(23.9245 0.000314176 0)
(23.6493 0.000314003 0)
(23.3755 0.000313811 0)
(23.1033 0.000313602 0)
(22.8326 0.000313363 0)
(22.5636 0.000313107 0)
(22.2961 0.000312799 0)
(22.0302 0.000312422 0)
(21.766 0.000311936 0)
(21.5034 0.000311337 0)
(21.2424 0.000310563 0)
(20.9832 0.000309562 0)
(20.7255 0.000308243 0)
(20.4696 0.00030654 0)
(20.2154 0.000304368 0)
(19.963 0.00030165 0)
(19.7123 0.000298303 0)
(19.4633 0.00029422 0)
(19.2161 0.000289322 0)
(18.9707 0.000283507 0)
(18.7272 0.0002767 0)
(18.4854 0.000268841 0)
(18.2455 0.000259876 0)
(18.0075 0.000249811 0)
(17.7713 0.000238658 0)
(17.537 0.000226463 0)
(17.3047 0.000213328 0)
(17.0742 0.000199359 0)
(16.8456 0.000184705 0)
(16.6189 0.000169546 0)
(16.3941 0.000154059 0)
(16.1711 0.00013845 0)
(15.9501 0.000122927 0)
(15.731 0.000107682 0)
(15.5137 9.29086e-05 0)
(15.2983 7.87739e-05 0)
(15.0848 6.53845e-05 0)
(14.8731 5.28425e-05 0)
(14.6632 4.12364e-05 0)
(14.4552 3.06144e-05 0)
(14.249 2.10013e-05 0)
(14.0447 1.23991e-05 0)
(13.8422 4.64423e-06 0)
(13.6415 -2.11066e-06 0)
(13.4427 -8.0391e-06 0)
(13.2457 -1.24883e-05 0)
(13.0505 -1.6336e-05 0)
(12.8572 -1.95084e-05 0)
(12.6657 -2.20874e-05 0)
(12.4761 -2.41639e-05 0)
(12.2884 -2.58138e-05 0)
(12.1026 -2.71033e-05 0)
(11.9186 -2.81023e-05 0)
(11.7365 -2.88775e-05 0)
(11.5564 -2.94521e-05 0)
(11.3781 -2.98801e-05 0)
(11.2017 -3.01991e-05 0)
(11.0272 -3.04253e-05 0)
(10.8546 -3.05806e-05 0)
(10.6839 -3.06874e-05 0)
(10.5151 -3.07627e-05 0)
(10.3482 -3.08004e-05 0)
(10.1831 -3.08187e-05 0)
(10.02 -3.08313e-05 0)
(9.85879 -3.08249e-05 0)
(9.69945 -3.08109e-05 0)
(9.542 -3.07953e-05 0)
(9.38642 -3.07793e-05 0)
(9.23273 -3.07523e-05 0)
(9.0809 -3.07235e-05 0)
(8.93095 -3.07033e-05 0)
(8.78286 -3.06698e-05 0)
(8.63663 -3.06363e-05 0)
(8.49226 -3.0608e-05 0)
(8.34973 -3.05776e-05 0)
(8.20905 -3.05412e-05 0)
(8.0702 -3.0505e-05 0)
(7.93318 -3.04766e-05 0)
(7.79798 -3.04354e-05 0)
(7.6646 -3.03941e-05 0)
(7.53302 -3.03615e-05 0)
(7.40323 -3.03192e-05 0)
(7.27524 -3.02752e-05 0)
(7.14902 -3.02361e-05 0)
(7.02456 -3.01946e-05 0)
(6.90186 -3.01465e-05 0)
(6.7809 -3.01009e-05 0)
(6.66167 -3.00598e-05 0)
(6.54415 -3.00069e-05 0)
(6.42834 -2.99541e-05 0)
(6.31421 -2.99125e-05 0)
(6.20176 -2.98553e-05 0)
(6.09096 -2.97983e-05 0)
(5.9818 -2.97508e-05 0)
(5.87427 -2.96911e-05 0)
(5.76834 -2.96295e-05 0)
(5.664 -2.95761e-05 0)
(5.56123 -2.9514e-05 0)
(5.46001 -2.94475e-05 0)
(5.36031 -2.93881e-05 0)
(5.26213 -2.93234e-05 0)
(5.16543 -2.92516e-05 0)
(5.0702 -2.91867e-05 0)
(4.97642 -2.91166e-05 0)
(4.88405 -2.90395e-05 0)
(4.79309 -2.89697e-05 0)
(4.7035 -2.88952e-05 0)
(4.61527 -2.88129e-05 0)
(4.52837 -2.87364e-05 0)
(4.44278 -2.86561e-05 0)
(4.35848 -2.85692e-05 0)
(4.27544 -2.84887e-05 0)
(4.19364 -2.84042e-05 0)
(4.11307 -2.83107e-05 0)
(4.0337 -2.82262e-05 0)
(3.95551 -2.81315e-05 0)
(3.87848 -2.80372e-05 0)
(3.80259 -2.794e-05 0)
(3.72781 -2.78501e-05 0)
(3.65414 -2.77352e-05 0)
(3.58154 -2.76394e-05 0)
(3.51 -2.75526e-05 0)
(3.43952 -2.73614e-05 0)
(3.37005 -2.74201e-05 0)
(3.30161 -2.69967e-05 0)
(3.23415 -2.73236e-05 0)
(3.16772 -2.65604e-05 0)
(3.10221 -2.72279e-05 0)
(3.03773 -2.60636e-05 0)
(2.97414 -2.70736e-05 0)
(2.91156 -2.53183e-05 0)
(2.84984 -2.62299e-05 0)
(2.78912 -2.20116e-05 0)
(2.72915 -1.46408e-05 0)
(2.66976 2.02888e-05 0)
(2.60889 0.000146175 0)
(2.54192 0.000831755 0)
(2.42903 0.00253673 0)
(2.22361 0.0157007 0)
(1.25121 0.0255513 0)
(42.5786 0.000343179 0)
(42.2662 0.000227646 0)
(41.8914 0.000225356 0)
(41.5399 0.000231208 0)
(41.2106 0.000235448 0)
(40.8855 0.000239605 0)
(40.5579 0.000243622 0)
(40.2287 0.000247309 0)
(39.8996 0.000250673 0)
(39.5713 0.000253737 0)
(39.2436 0.000256493 0)
(38.9164 0.000258934 0)
(38.5895 0.00026107 0)
(38.2632 0.000262926 0)
(37.9374 0.000264529 0)
(37.6122 0.000265909 0)
(37.2875 0.000267095 0)
(36.9635 0.000268118 0)
(36.64 0.000269026 0)
(36.3171 0.000269805 0)
(35.995 0.000270498 0)
(35.6736 0.000271138 0)
(35.353 0.000271728 0)
(35.0331 0.000272277 0)
(34.7141 0.000272796 0)
(34.3958 0.000273283 0)
(34.0783 0.000273752 0)
(33.7618 0.000274191 0)
(33.4461 0.000274617 0)
(33.1313 0.000275025 0)
(32.8174 0.000275417 0)
(32.5045 0.000275795 0)
(32.1926 0.000276155 0)
(31.8817 0.0002765 0)
(31.5717 0.000276834 0)
(31.2629 0.000277155 0)
(30.9551 0.000277462 0)
(30.6484 0.000277765 0)
(30.3428 0.000278051 0)
(30.0383 0.000278324 0)
(29.735 0.000278583 0)
(29.4328 0.000278839 0)
(29.1319 0.000279087 0)
(28.8321 0.000279322 0)
(28.5336 0.000279545 0)
(28.2363 0.00027976 0)
(27.9403 0.000279977 0)
(27.6456 0.000280194 0)
(27.3522 0.000280397 0)
(27.0602 0.000280583 0)
(26.7695 0.000280761 0)
(26.4801 0.000280934 0)
(26.1921 0.000281104 0)
(25.9056 0.00028128 0)
(25.6204 0.000281447 0)
(25.3367 0.000281609 0)
(25.0544 0.000281761 0)
(24.7736 0.000281909 0)
(24.4943 0.000282068 0)
(24.2165 0.000282217 0)
(23.9402 0.000282341 0)
(23.6654 0.000282448 0)
(23.3921 0.000282528 0)
(23.1204 0.000282585 0)
(22.8503 0.000282602 0)
(22.5818 0.00028259 0)
(22.3149 0.000282512 0)
(22.0496 0.000282349 0)
(21.7859 0.000282061 0)
(21.5238 0.000281638 0)
(21.2634 0.000281013 0)
(21.0047 0.000280134 0)
(20.7476 0.000278908 0)
(20.4922 0.000277268 0)
(20.2386 0.000275129 0)
(19.9866 0.00027241 0)
(19.7363 0.000269029 0)
(19.4878 0.000264877 0)
(19.241 0.000259881 0)
(18.996 0.000253946 0)
(18.7527 0.00024701 0)
(18.5111 0.000239027 0)
(18.2714 0.000229962 0)
(18.0334 0.000219843 0)
(17.7972 0.000208704 0)
(17.5627 0.000196617 0)
(17.3301 0.000183704 0)
(17.0993 0.000170093 0)
(16.8703 0.000155952 0)
(16.6431 0.000141472 0)
(16.4177 0.00012684 0)
(16.1942 0.00011226 0)
(15.9724 9.79362e-05 0)
(15.7526 8.4042e-05 0)
(15.5345 7.07491e-05 0)
(15.3183 5.82034e-05 0)
(15.104 4.65188e-05 0)
(14.8915 3.57937e-05 0)
(14.6809 2.60973e-05 0)
(14.4722 1.74529e-05 0)
(14.2654 9.86425e-06 0)
(14.0604 3.3391e-06 0)
(13.8573 -1.9838e-06 0)
(13.6561 -6.6609e-06 0)
(13.4568 -1.08321e-05 0)
(13.2594 -1.43048e-05 0)
(13.0639 -1.71692e-05 0)
(12.8703 -1.94811e-05 0)
(12.6786 -2.13227e-05 0)
(12.4888 -2.27743e-05 0)
(12.3009 -2.39008e-05 0)
(12.1149 -2.47573e-05 0)
(11.9308 -2.5401e-05 0)
(11.7486 -2.58844e-05 0)
(11.5684 -2.62257e-05 0)
(11.39 -2.64669e-05 0)
(11.2136 -2.66357e-05 0)
(11.039 -2.67434e-05 0)
(10.8664 -2.68063e-05 0)
(10.6957 -2.68405e-05 0)
(10.5269 -2.68576e-05 0)
(10.3599 -2.68517e-05 0)
(10.1949 -2.68362e-05 0)
(10.0318 -2.68204e-05 0)
(9.87055 -2.6793e-05 0)
(9.71121 -2.67624e-05 0)
(9.55374 -2.67327e-05 0)
(9.39817 -2.67041e-05 0)
(9.24446 -2.66682e-05 0)
(9.09264 -2.66321e-05 0)
(8.94268 -2.66031e-05 0)
(8.79459 -2.65641e-05 0)
(8.64835 -2.65257e-05 0)
(8.50397 -2.64918e-05 0)
(8.36144 -2.64562e-05 0)
(8.22075 -2.64162e-05 0)
(8.0819 -2.63768e-05 0)
(7.94488 -2.63434e-05 0)
(7.80968 -2.63001e-05 0)
(7.67629 -2.6257e-05 0)
(7.5447 -2.62208e-05 0)
(7.41492 -2.61771e-05 0)
(7.28691 -2.61324e-05 0)
(7.16069 -2.60917e-05 0)
(7.03623 -2.60491e-05 0)
(6.91352 -2.60016e-05 0)
(6.79256 -2.59564e-05 0)
(6.67332 -2.59147e-05 0)
(6.5558 -2.58639e-05 0)
(6.43998 -2.58136e-05 0)
(6.32585 -2.57719e-05 0)
(6.21339 -2.57182e-05 0)
(6.10259 -2.56652e-05 0)
(5.99343 -2.56194e-05 0)
(5.88589 -2.55641e-05 0)
(5.77996 -2.55078e-05 0)
(5.67562 -2.54579e-05 0)
(5.57284 -2.54011e-05 0)
(5.47161 -2.53412e-05 0)
(5.37191 -2.5287e-05 0)
(5.27373 -2.52285e-05 0)
(5.17702 -2.51647e-05 0)
(5.08179 -2.51062e-05 0)
(4.988 -2.50437e-05 0)
(4.89563 -2.4976e-05 0)
(4.80466 -2.49142e-05 0)
(4.71507 -2.48485e-05 0)
(4.62684 -2.47769e-05 0)
(4.53993 -2.471e-05 0)
(4.45434 -2.464e-05 0)
(4.37003 -2.4565e-05 0)
(4.28699 -2.44954e-05 0)
(4.20519 -2.4422e-05 0)
(4.12461 -2.4343e-05 0)
(4.04524 -2.42688e-05 0)
(3.96704 -2.41917e-05 0)
(3.89001 -2.41047e-05 0)
(3.81411 -2.40373e-05 0)
(3.73933 -2.39319e-05 0)
(3.66565 -2.38918e-05 0)
(3.59305 -2.37119e-05 0)
(3.5215 -2.38105e-05 0)
(3.45102 -2.33849e-05 0)
(3.38154 -2.38394e-05 0)
(3.3131 -2.29451e-05 0)
(3.24564 -2.39302e-05 0)
(3.1792 -2.24696e-05 0)
(3.11369 -2.4011e-05 0)
(3.0492 -2.19579e-05 0)
(2.9856 -2.40827e-05 0)
(2.92302 -2.11074e-05 0)
(2.8613 -2.33219e-05 0)
(2.80057 -1.71421e-05 0)
(2.74061 -8.12365e-06 0)
(2.68135 5.07173e-05 0)
(2.62157 0.00028549 0)
(2.56084 0.00135057 0)
(2.4641 0.00470543 0)
(2.37431 0.0262392 0)
(1.59915 0.0365137 0)
(42.5786 0.000348874 0)
(42.2662 0.000263369 0)
(41.8914 0.000264123 0)
(41.5399 0.000271395 0)
(41.2105 0.000275852 0)
(40.8855 0.00027996 0)
(40.5579 0.000283762 0)
(40.2287 0.000287039 0)
(39.8996 0.000289826 0)
(39.5713 0.000292188 0)
(39.2436 0.00029415 0)
(38.9163 0.000295727 0)
(38.5895 0.000296949 0)
(38.2632 0.000297858 0)
(37.9374 0.000298495 0)
(37.6122 0.000298902 0)
(37.2875 0.000299117 0)
(36.9635 0.000299181 0)
(36.64 0.000299144 0)
(36.3171 0.000299003 0)
(35.995 0.000298801 0)
(35.6736 0.000298573 0)
(35.353 0.000298324 0)
(35.0331 0.000298063 0)
(34.7141 0.000297802 0)
(34.3958 0.000297539 0)
(34.0783 0.000297285 0)
(33.7618 0.000297029 0)
(33.4461 0.000296785 0)
(33.1313 0.000296549 0)
(32.8174 0.00029632 0)
(32.5045 0.000296101 0)
(32.1926 0.000295885 0)
(31.8817 0.000295675 0)
(31.5718 0.000295474 0)
(31.2629 0.000295278 0)
(30.9551 0.000295088 0)
(30.6484 0.00029491 0)
(30.3428 0.000294733 0)
(30.0383 0.000294559 0)
(29.735 0.000294385 0)
(29.4328 0.000294222 0)
(29.1319 0.000294066 0)
(28.8321 0.00029391 0)
(28.5336 0.000293755 0)
(28.2364 0.000293604 0)
(27.9404 0.000293467 0)
(27.6457 0.000293342 0)
(27.3523 0.000293214 0)
(27.0602 0.00029308 0)
(26.7695 0.000292948 0)
(26.4802 0.000292819 0)
(26.1922 0.000292698 0)
(25.9057 0.00029259 0)
(25.6205 0.000292483 0)
(25.3368 0.00029238 0)
(25.0545 0.000292276 0)
(24.7737 0.000292177 0)
(24.4944 0.000292096 0)
(24.2166 0.000292013 0)
(23.9403 0.000291913 0)
(23.6655 0.000291804 0)
(23.3923 0.000291677 0)
(23.1206 0.000291534 0)
(22.8505 0.000291361 0)
(22.582 0.000291169 0)
(22.315 0.000290925 0)
(22.0497 0.000290611 0)
(21.786 0.000290191 0)
(21.524 0.000289657 0)
(21.2636 0.00028895 0)
(21.0049 0.000288018 0)
(20.7478 0.000286777 0)
(20.4925 0.000285163 0)
(20.2388 0.000283097 0)
(19.9868 0.000280503 0)
(19.7366 0.000277303 0)
(19.488 0.000273395 0)
(19.2413 0.000268707 0)
(18.9962 0.000263145 0)
(18.7529 0.000256643 0)
(18.5114 0.000249148 0)
(18.2716 0.000240617 0)
(18.0336 0.000231062 0)
(17.7974 0.0002205 0)
(17.563 0.000208984 0)
(17.3303 0.000196615 0)
(17.0995 0.000183498 0)
(16.8705 0.000169778 0)
(16.6433 0.000155627 0)
(16.4179 0.000141211 0)
(16.1943 0.000126723 0)
(15.9726 0.000112353 0)
(15.7527 9.82751e-05 0)
(15.5347 8.46611e-05 0)
(15.3185 7.16649e-05 0)
(15.1041 5.94035e-05 0)
(14.8917 4.79744e-05 0)
(14.681 3.74482e-05 0)
(14.4723 2.78519e-05 0)
(14.2654 1.91869e-05 0)
(14.0605 1.14242e-05 0)
(13.8574 4.36387e-06 0)
(13.6562 -1.67943e-06 0)
(13.4569 -6.55403e-06 0)
(13.2594 -1.0613e-05 0)
(13.0639 -1.40001e-05 0)
(12.8703 -1.67889e-05 0)
(12.6786 -1.90641e-05 0)
(12.4888 -2.09035e-05 0)
(12.3009 -2.2371e-05 0)
(12.1149 -2.35216e-05 0)
(11.9309 -2.44145e-05 0)
(11.7487 -2.5107e-05 0)
(11.5684 -2.56214e-05 0)
(11.3901 -2.60041e-05 0)
(11.2136 -2.62883e-05 0)
(11.0391 -2.64895e-05 0)
(10.8665 -2.66272e-05 0)
(10.6957 -2.67212e-05 0)
(10.5269 -2.67863e-05 0)
(10.36 -2.68187e-05 0)
(10.195 -2.68336e-05 0)
(10.0318 -2.68426e-05 0)
(9.8706 -2.68356e-05 0)
(9.71125 -2.68217e-05 0)
(9.55379 -2.68062e-05 0)
(9.39821 -2.67902e-05 0)
(9.24451 -2.67652e-05 0)
(9.09268 -2.67387e-05 0)
(8.94272 -2.6719e-05 0)
(8.79463 -2.66886e-05 0)
(8.6484 -2.66581e-05 0)
(8.50402 -2.6632e-05 0)
(8.36149 -2.66042e-05 0)
(8.2208 -2.65716e-05 0)
(8.08194 -2.65392e-05 0)
(7.94492 -2.65131e-05 0)
(7.80972 -2.64767e-05 0)
(7.67633 -2.64402e-05 0)
(7.54475 -2.64108e-05 0)
(7.41496 -2.63736e-05 0)
(7.28696 -2.6335e-05 0)
(7.16073 -2.63005e-05 0)
(7.03627 -2.62641e-05 0)
(6.91357 -2.62223e-05 0)
(6.7926 -2.61826e-05 0)
(6.67336 -2.61465e-05 0)
(6.55584 -2.6101e-05 0)
(6.44003 -2.60555e-05 0)
(6.3259 -2.6019e-05 0)
(6.21344 -2.597e-05 0)
(6.10264 -2.59213e-05 0)
(5.99348 -2.58801e-05 0)
(5.88594 -2.58292e-05 0)
(5.78001 -2.57767e-05 0)
(5.67566 -2.57309e-05 0)
(5.57288 -2.5678e-05 0)
(5.47166 -2.56216e-05 0)
(5.37196 -2.55711e-05 0)
(5.27377 -2.55163e-05 0)
(5.17707 -2.54557e-05 0)
(5.08183 -2.54007e-05 0)
(4.98804 -2.53416e-05 0)
(4.89568 -2.52768e-05 0)
(4.80471 -2.52181e-05 0)
(4.71512 -2.51555e-05 0)
(4.62688 -2.50867e-05 0)
(4.53998 -2.50225e-05 0)
(4.45438 -2.49555e-05 0)
(4.37007 -2.48828e-05 0)
(4.28703 -2.48162e-05 0)
(4.20523 -2.47451e-05 0)
(4.12466 -2.46693e-05 0)
(4.04528 -2.45954e-05 0)
(3.96709 -2.45248e-05 0)
(3.89005 -2.44311e-05 0)
(3.81415 -2.43819e-05 0)
(3.73937 -2.42474e-05 0)
(3.66569 -2.42646e-05 0)
(3.59309 -2.3988e-05 0)
(3.52155 -2.42464e-05 0)
(3.45106 -2.35698e-05 0)
(3.38158 -2.43783e-05 0)
(3.31315 -2.29928e-05 0)
(3.24568 -2.45697e-05 0)
(3.17924 -2.23813e-05 0)
(3.11373 -2.47209e-05 0)
(3.04924 -2.17256e-05 0)
(2.98565 -2.4896e-05 0)
(2.92307 -2.06058e-05 0)
(2.86135 -2.39913e-05 0)
(2.80062 -1.54136e-05 0)
(2.74066 -4.2202e-06 0)
(2.6814 6.77957e-05 0)
(2.62166 0.000344403 0)
(2.5611 0.00168424 0)
(2.46562 0.00527181 0)
(2.39492 0.033781 0)
(1.70049 0.0509038 0)
(42.5786 0.000326841 0)
(42.2662 0.000239317 0)
(41.8914 0.000228905 0)
(41.5399 0.000231417 0)
(41.2105 0.000232835 0)
(40.8855 0.000235047 0)
(40.5579 0.000237717 0)
(40.2286 0.000240328 0)
(39.8996 0.000242774 0)
(39.5713 0.000245044 0)
(39.2436 0.000247103 0)
(38.9163 0.000248926 0)
(38.5895 0.000250507 0)
(38.2632 0.000251861 0)
(37.9374 0.000253006 0)
(37.6122 0.000253967 0)
(37.2875 0.000254767 0)
(36.9635 0.000255433 0)
(36.64 0.000256006 0)
(36.3171 0.000256475 0)
(35.9949 0.000256876 0)
(35.6736 0.000257241 0)
(35.353 0.000257569 0)
(35.0331 0.00025787 0)
(34.714 0.000258153 0)
(34.3958 0.000258416 0)
(34.0783 0.00025867 0)
(33.7618 0.000258904 0)
(33.4461 0.000259132 0)
(33.1313 0.000259353 0)
(32.8174 0.000259564 0)
(32.5045 0.000259768 0)
(32.1926 0.000259962 0)
(31.8817 0.000260146 0)
(31.5717 0.000260326 0)
(31.2629 0.000260498 0)
(30.9551 0.000260662 0)
(30.6484 0.000260826 0)
(30.3428 0.00026098 0)
(30.0383 0.000261125 0)
(29.735 0.000261261 0)
(29.4328 0.000261395 0)
(29.1319 0.000261528 0)
(28.8321 0.000261651 0)
(28.5336 0.000261767 0)
(28.2364 0.000261877 0)
(27.9404 0.000261992 0)
(27.6457 0.00026211 0)
(27.3523 0.000262219 0)
(27.0602 0.000262313 0)
(26.7695 0.000262403 0)
(26.4802 0.000262489 0)
(26.1922 0.000262575 0)
(25.9056 0.000262669 0)
(25.6205 0.000262757 0)
(25.3368 0.000262842 0)
(25.0545 0.00026292 0)
(24.7737 0.000262997 0)
(24.4944 0.000263086 0)
(24.2166 0.000263167 0)
(23.9403 0.000263226 0)
(23.6655 0.000263272 0)
(23.3922 0.000263295 0)
(23.1206 0.000263297 0)
(22.8505 0.000263266 0)
(22.5819 0.00026321 0)
(22.315 0.000263098 0)
(22.0497 0.00026291 0)
(21.786 0.000262611 0)
(21.524 0.000262193 0)
(21.2636 0.000261596 0)
(21.0049 0.00026077 0)
(20.7478 0.000259632 0)
(20.4925 0.000258121 0)
(20.2388 0.00025616 0)
(19.9868 0.000253673 0)
(19.7366 0.000250587 0)
(19.488 0.000246801 0)
(19.2412 0.000242249 0)
(18.9962 0.000236842 0)
(18.7529 0.000230519 0)
(18.5114 0.000223237 0)
(18.2716 0.00021496 0)
(18.0336 0.000205708 0)
(17.7974 0.000195509 0)
(17.563 0.000184424 0)
(17.3303 0.000172561 0)
(17.0995 0.000160033 0)
(16.8705 0.000146991 0)
(16.6433 0.000133607 0)
(16.4179 0.000120052 0)
(16.1943 0.000106514 0)
(15.9726 9.31808e-05 0)
(15.7527 8.02155e-05 0)
(15.5347 6.77801e-05 0)
(15.3185 5.60139e-05 0)
(15.1041 4.50202e-05 0)
(14.8917 3.48858e-05 0)
(14.681 2.56746e-05 0)
(14.4723 1.74125e-05 0)
(14.2654 1.01098e-05 0)
(14.0605 3.77581e-06 0)
(13.8574 -1.5217e-06 0)
(13.6562 -6.05811e-06 0)
(13.4569 -1.00903e-05 0)
(13.2594 -1.34867e-05 0)
(13.0639 -1.62921e-05 0)
(12.8703 -1.85656e-05 0)
(12.6786 -2.03867e-05 0)
(12.4888 -2.18305e-05 0)
(12.3009 -2.29583e-05 0)
(12.1149 -2.38217e-05 0)
(11.9309 -2.44746e-05 0)
(11.7487 -2.4968e-05 0)
(11.5684 -2.53206e-05 0)
(11.3901 -2.55727e-05 0)
(11.2136 -2.57523e-05 0)
(11.0391 -2.58709e-05 0)
(10.8665 -2.59442e-05 0)
(10.6957 -2.59881e-05 0)
(10.5269 -2.60142e-05 0)
(10.36 -2.60172e-05 0)
(10.195 -2.60096e-05 0)
(10.0318 -2.60011e-05 0)
(9.8706 -2.59812e-05 0)
(9.71125 -2.59574e-05 0)
(9.55379 -2.59342e-05 0)
(9.39821 -2.59119e-05 0)
(9.24451 -2.58822e-05 0)
(9.09268 -2.58519e-05 0)
(8.94272 -2.58285e-05 0)
(8.79463 -2.57954e-05 0)
(8.6484 -2.57625e-05 0)
(8.50402 -2.57338e-05 0)
(8.36149 -2.57036e-05 0)
(8.2208 -2.56689e-05 0)
(8.08194 -2.56346e-05 0)
(7.94492 -2.5606e-05 0)
(7.80972 -2.55679e-05 0)
(7.67633 -2.55297e-05 0)
(7.54475 -2.54981e-05 0)
(7.41496 -2.54593e-05 0)
(7.28696 -2.54192e-05 0)
(7.16073 -2.5383e-05 0)
(7.03627 -2.53449e-05 0)
(6.91357 -2.53019e-05 0)
(6.7926 -2.5261e-05 0)
(6.67336 -2.52233e-05 0)
(6.55585 -2.51769e-05 0)
(6.44003 -2.51307e-05 0)
(6.3259 -2.50928e-05 0)
(6.21344 -2.50433e-05 0)
(6.10264 -2.49942e-05 0)
(5.99348 -2.4952e-05 0)
(5.88594 -2.49009e-05 0)
(5.78001 -2.48483e-05 0)
(5.67566 -2.48019e-05 0)
(5.57288 -2.4749e-05 0)
(5.47166 -2.46928e-05 0)
(5.37196 -2.4642e-05 0)
(5.27377 -2.45872e-05 0)
(5.17707 -2.45271e-05 0)
(5.08183 -2.44719e-05 0)
(4.98804 -2.44131e-05 0)
(4.89568 -2.43489e-05 0)
(4.80471 -2.42904e-05 0)
(4.71512 -2.42281e-05 0)
(4.62688 -2.41602e-05 0)
(4.53998 -2.40963e-05 0)
(4.45438 -2.40299e-05 0)
(4.37007 -2.3958e-05 0)
(4.28703 -2.38919e-05 0)
(4.20523 -2.38208e-05 0)
(4.12466 -2.37472e-05 0)
(4.04528 -2.36714e-05 0)
(3.96709 -2.36064e-05 0)
(3.89005 -2.35043e-05 0)
(3.81415 -2.34754e-05 0)
(3.73937 -2.33037e-05 0)
(3.66569 -2.33938e-05 0)
(3.59309 -2.29924e-05 0)
(3.52155 -2.3465e-05 0)
(3.45106 -2.24624e-05 0)
(3.38158 -2.37631e-05 0)
(3.31315 -2.17272e-05 0)
(3.24568 -2.41497e-05 0)
(3.17924 -2.09849e-05 0)
(3.11373 -2.44745e-05 0)
(3.04924 -2.02092e-05 0)
(2.98565 -2.48703e-05 0)
(2.92307 -1.8815e-05 0)
(2.86135 -2.38989e-05 0)
(2.80062 -1.22932e-05 0)
(2.74066 1.81959e-06 0)
(2.68141 9.64011e-05 0)
(2.62169 0.000462291 0)
(2.56119 0.00218104 0)
(2.46622 0.0067147 0)
(2.39834 0.0426603 0)
(1.73814 0.0661778 0)
(42.5786 0.000306706 0)
(42.2662 0.000232329 0)
(41.8914 0.000225535 0)
(41.5399 0.000232784 0)
(41.2105 0.000237234 0)
(40.8855 0.000241354 0)
(40.5578 0.000245308 0)
(40.2286 0.00024876 0)
(39.8996 0.000251733 0)
(39.5713 0.00025431 0)
(39.2436 0.000256519 0)
(38.9163 0.000258373 0)
(38.5895 0.000259896 0)
(38.2632 0.000261125 0)
(37.9374 0.000262096 0)
(37.6121 0.000262845 0)
(37.2875 0.00026341 0)
(36.9635 0.000263824 0)
(36.64 0.000264134 0)
(36.3171 0.000264336 0)
(35.9949 0.000264469 0)
(35.6736 0.000264567 0)
(35.353 0.000264632 0)
(35.0331 0.000264675 0)
(34.714 0.000264706 0)
(34.3958 0.000264724 0)
(34.0783 0.00026474 0)
(33.7617 0.000264745 0)
(33.4461 0.00026475 0)
(33.1313 0.000264754 0)
(32.8174 0.000264757 0)
(32.5045 0.000264759 0)
(32.1926 0.000264757 0)
(31.8816 0.000264753 0)
(31.5717 0.00026475 0)
(31.2629 0.000264746 0)
(30.9551 0.00026474 0)
(30.6484 0.000264739 0)
(30.3428 0.000264733 0)
(30.0383 0.000264724 0)
(29.735 0.000264711 0)
(29.4328 0.000264701 0)
(29.1319 0.000264694 0)
(28.8321 0.000264682 0)
(28.5336 0.000264667 0)
(28.2364 0.000264651 0)
(27.9404 0.000264644 0)
(27.6457 0.000264643 0)
(27.3523 0.000264636 0)
(27.0602 0.000264619 0)
(26.7695 0.000264601 0)
(26.4802 0.000264583 0)
(26.1922 0.000264568 0)
(25.9056 0.000264563 0)
(25.6205 0.000264556 0)
(25.3368 0.000264548 0)
(25.0545 0.000264538 0)
(24.7737 0.000264529 0)
(24.4944 0.000264533 0)
(24.2166 0.000264532 0)
(23.9402 0.000264514 0)
(23.6655 0.000264485 0)
(23.3922 0.000264437 0)
(23.1206 0.000264372 0)
(22.8505 0.000264278 0)
(22.5819 0.000264163 0)
(22.315 0.000263998 0)
(22.0497 0.000263765 0)
(21.786 0.00026343 0)
(21.524 0.000262987 0)
(21.2636 0.00026238 0)
(21.0049 0.000261561 0)
(20.7478 0.000260452 0)
(20.4924 0.000258997 0)
(20.2388 0.00025712 0)
(19.9868 0.000254752 0)
(19.7366 0.000251821 0)
(19.488 0.000248232 0)
(19.2412 0.00024392 0)
(18.9962 0.0002388 0)
(18.7529 0.00023281 0)
(18.5114 0.000225905 0)
(18.2716 0.000218046 0)
(18.0336 0.000209248 0)
(17.7974 0.000199529 0)
(17.563 0.000188941 0)
(17.3303 0.000177579 0)
(17.0995 0.000165544 0)
(16.8705 0.000152972 0)
(16.6433 0.000140022 0)
(16.4179 0.000126852 0)
(16.1943 0.000113636 0)
(15.9726 0.000100552 0)
(15.7527 8.77578e-05 0)
(15.5347 7.54098e-05 0)
(15.3185 6.36463e-05 0)
(15.1041 5.25732e-05 0)
(14.8916 4.22804e-05 0)
(14.681 3.28347e-05 0)
(14.4723 2.42639e-05 0)
(14.2654 1.6574e-05 0)
(14.0605 9.75108e-06 0)
(13.8574 3.74584e-06 0)
(13.6562 -1.48448e-06 0)
(13.4568 -5.89065e-06 0)
(13.2594 -9.58557e-06 0)
(13.0639 -1.26663e-05 0)
(12.8703 -1.51925e-05 0)
(12.6786 -1.72428e-05 0)
(12.4888 -1.88915e-05 0)
(12.3009 -2.02001e-05 0)
(12.1149 -2.1222e-05 0)
(11.9309 -2.20124e-05 0)
(11.7487 -2.26234e-05 0)
(11.5684 -2.3076e-05 0)
(11.3901 -2.34115e-05 0)
(11.2136 -2.36595e-05 0)
(11.0391 -2.38337e-05 0)
(10.8665 -2.39518e-05 0)
(10.6957 -2.40313e-05 0)
(10.5269 -2.40849e-05 0)
(10.36 -2.41099e-05 0)
(10.195 -2.41194e-05 0)
(10.0318 -2.41236e-05 0)
(9.8706 -2.41138e-05 0)
(9.71125 -2.40979e-05 0)
(9.55379 -2.40805e-05 0)
(9.39821 -2.40626e-05 0)
(9.24451 -2.40369e-05 0)
(9.09268 -2.40099e-05 0)
(8.94272 -2.39887e-05 0)
(8.79463 -2.39583e-05 0)
(8.6484 -2.39278e-05 0)
(8.50402 -2.39011e-05 0)
(8.36149 -2.38729e-05 0)
(8.2208 -2.38406e-05 0)
(8.08194 -2.38086e-05 0)
(7.94492 -2.37818e-05 0)
(7.80972 -2.37464e-05 0)
(7.67633 -2.37107e-05 0)
(7.54475 -2.36812e-05 0)
(7.41496 -2.36451e-05 0)
(7.28696 -2.36077e-05 0)
(7.16073 -2.3574e-05 0)
(7.03627 -2.35385e-05 0)
(6.91357 -2.34985e-05 0)
(6.7926 -2.34604e-05 0)
(6.67336 -2.34254e-05 0)
(6.55585 -2.33822e-05 0)
(6.44003 -2.33391e-05 0)
(6.3259 -2.33039e-05 0)
(6.21344 -2.32578e-05 0)
(6.10264 -2.32121e-05 0)
(5.99348 -2.31727e-05 0)
(5.88594 -2.31251e-05 0)
(5.78001 -2.3076e-05 0)
(5.67566 -2.30327e-05 0)
(5.57288 -2.29834e-05 0)
(5.47166 -2.2931e-05 0)
(5.37196 -2.28835e-05 0)
(5.27377 -2.28324e-05 0)
(5.17707 -2.27763e-05 0)
(5.08183 -2.27249e-05 0)
(4.98804 -2.267e-05 0)
(4.89568 -2.261e-05 0)
(4.80471 -2.25555e-05 0)
(4.71512 -2.24972e-05 0)
(4.62688 -2.2434e-05 0)
(4.53998 -2.23742e-05 0)
(4.45438 -2.23123e-05 0)
(4.37007 -2.22451e-05 0)
(4.28703 -2.21837e-05 0)
(4.20523 -2.21168e-05 0)
(4.12466 -2.20495e-05 0)
(4.04528 -2.19759e-05 0)
(3.96709 -2.19213e-05 0)
(3.89005 -2.18139e-05 0)
(3.81415 -2.18111e-05 0)
(3.73937 -2.16042e-05 0)
(3.66569 -2.1776e-05 0)
(3.59309 -2.12462e-05 0)
(3.52155 -2.1946e-05 0)
(3.45106 -2.05995e-05 0)
(3.38158 -2.2409e-05 0)
(3.31315 -1.96889e-05 0)
(3.24568 -2.29737e-05 0)
(3.17924 -1.87862e-05 0)
(3.11373 -2.34464e-05 0)
(3.04924 -1.78617e-05 0)
(2.98565 -2.40485e-05 0)
(2.92307 -1.61782e-05 0)
(2.86135 -2.29875e-05 0)
(2.80062 -8.22941e-06 0)
(2.74066 8.03792e-06 0)
(2.68142 0.000125885 0)
(2.62173 0.000577493 0)
(2.56131 0.00269995 0)
(2.46704 0.00794899 0)
(2.39986 0.0521075 0)
(1.76462 0.0812498 0)
(42.5786 0.000253801 0)
(42.2662 0.000199962 0)
(41.8913 0.000189565 0)
(41.5399 0.0001937 0)