/*--------------------------------*- C++ -*----------------------------------*\
| =========                 |                                                 |
| \\      /  F ield         | OpenFOAM: The Open Source CFD Toolbox           |
|  \\    /   O peration     | Version:  3.0.x                                 |
|   \\  /    A nd           | Web:      www.OpenFOAM.org                      |
|    \\/     M anipulation  |                                                 |
\*---------------------------------------------------------------------------*/
FoamFile
{
    version     2.0;
    format      ascii;
    class       surfaceScalarField;
    location    "0.149975";
    object      phi;
}
// * * * * * * * * * * * * * * * * * * * * * * * * * * * * * * * * * * * * * //

dimensions      [1 0 -1 0 0 0 0];

internalField   nonuniform List<scalar> 
26210
(
5.30225
0.000504193
5.30128
0.000347723
5.30035
0.000339834
5.29943
0.000342156
5.29853
0.00034227
5.29767
0.00034216
5.29683
0.000342114
5.29602
0.000342055
5.29524
0.000341983
5.29448
0.000341904
5.29373
0.000341823
5.293
0.000341742
5.29228
0.000341664
5.29156
0.000341589
5.29084
0.000341517
5.29013
0.000341435
5.28942
0.000341321
5.28871
0.000341135
5.28799
0.00034081
5.28725
0.000340246
5.28651
0.000339301
5.28575
0.00033779
5.28499
0.00033547
5.28423
0.00033206
5.28347
0.000327244
5.28271
0.000320707
5.28197
0.00031215
5.28124
0.000301346
5.28053
0.000288165
5.27985
0.000272609
5.2792
0.000254825
5.27858
0.000235116
5.27801
0.000213919
5.27747
0.000191772
5.27697
0.000169276
5.27652
0.00014704
5.2761
0.000125639
5.27572
0.000105565
5.27537
8.72026e-05
5.27505
7.0812e-05
5.27476
5.65256e-05
5.27449
4.43593e-05
5.27422
3.42312e-05
5.27397
2.59966e-05
5.27371
1.93605e-05
5.27345
1.42986e-05
5.27318
1.03991e-05
5.27289
7.44939e-06
5.27257
5.29938e-06
5.27222
3.75759e-06
5.27184
2.67405e-06
5.27141
1.92896e-06
5.27094
1.42872e-06
5.27042
1.10207e-06
5.26984
8.95698e-07
5.2692
7.71346e-07
5.2685
7.01557e-07
5.26773
6.67318e-07
5.2669
6.55555e-07
5.26601
6.57406e-07
5.26505
6.66887e-07
5.26403
6.80031e-07
5.26296
6.94061e-07
5.26184
7.07027e-07
5.26068
7.17591e-07
5.25948
7.24662e-07
5.25826
7.27447e-07
5.25703
7.25293e-07
5.2558
7.17666e-07
5.25458
7.04222e-07
5.25339
6.84731e-07
5.25224
6.59104e-07
5.25116
6.27391e-07
5.25014
5.89796e-07
5.2492
5.4669e-07
5.24837
4.98578e-07
5.24764
4.46089e-07
5.24703
3.89931e-07
5.24655
3.30932e-07
5.2462
2.69989e-07
5.24599
2.08109e-07
5.24591
1.46503e-07
5.24597
1.08135e-07
5.24614
4.54365e-08
5.24643
-2.07565e-08
5.24684
-7.37928e-08
5.24737
-1.17658e-07
5.24799
-1.60531e-07
5.2487
-1.94688e-07
5.24948
-2.21713e-07
5.25032
-2.45042e-07
5.25119
-2.56496e-07
5.2521
-2.61267e-07
5.25302
-2.62162e-07
5.25394
-2.57331e-07
5.25485
-2.4916e-07
5.25573
-2.3441e-07
5.25658
-2.12423e-07
5.25739
-1.873e-07
5.25815
-1.58761e-07
5.25886
-1.28099e-07
5.25951
-9.81272e-08
5.2601
-6.76646e-08
5.26064
-3.71219e-08
5.26112
-8.2382e-09
5.26155
2.0309e-08
5.26193
4.71646e-08
5.26226
7.18719e-08
5.26254
9.50586e-08
5.26279
1.15135e-07
5.263
1.33385e-07
5.26318
1.49103e-07
5.26334
1.62598e-07
5.26348
1.74165e-07
5.2636
1.83818e-07
5.2637
1.91807e-07
5.2638
1.98283e-07
5.26389
2.03439e-07
5.26397
2.0745e-07
5.26405
2.10373e-07
5.26413
2.12405e-07
5.26421
2.13629e-07
5.26429
2.14513e-07
5.26438
2.14344e-07
5.26446
2.14524e-07
5.26455
2.14226e-07
5.26464
2.13766e-07
5.26473
2.1318e-07
5.26483
2.12789e-07
5.26493
2.12689e-07
5.26502
2.15172e-07
5.26512
2.14241e-07
5.26522
1.95527e-07
5.26532
2.34952e-07
5.26542
2.14119e-07
5.26551
2.02932e-07
5.26561
1.98019e-07
5.2657
2.05857e-07
5.26579
2.11197e-07
5.26588
2.1817e-07
5.26596
2.19838e-07
5.26605
2.19414e-07
5.26613
2.1841e-07
5.2662
2.18393e-07
5.26628
2.18773e-07
5.26636
2.19758e-07
5.26644
2.28387e-07
5.26652
2.29307e-07
5.26661
2.30461e-07
5.2667
2.35605e-07
5.2668
2.40589e-07
5.26691
2.46149e-07
5.26704
2.52438e-07
5.26718
2.59606e-07
5.26734
2.67712e-07
5.26753
2.76794e-07
5.26774
2.8688e-07
5.26798
2.9794e-07
5.26826
3.09899e-07
5.26857
3.22665e-07
5.26891
3.36113e-07
5.26931
3.50157e-07
5.26974
3.64646e-07
5.27022
3.79407e-07
5.27075
3.94259e-07
5.27132
4.08965e-07
5.27194
4.23279e-07
5.2726
4.36936e-07
5.27331
4.49614e-07
5.27406
4.61054e-07
5.27484
4.7096e-07
5.27566
4.78902e-07
5.2765
4.84692e-07
5.27736
4.882e-07
5.27823
4.88715e-07
5.27911
4.86736e-07
5.27998
4.80979e-07
5.28083
4.72824e-07
5.28165
4.60352e-07
5.28245
4.45452e-07
5.28319
4.25278e-07
5.28388
4.06557e-07
5.28451
3.78548e-07
5.28506
3.55865e-07
5.28552
3.11653e-07
5.2859
2.82347e-07
5.28618
2.69314e-07
5.28636
2.4188e-07
5.28643
1.83625e-07
5.28639
2.20576e-07
5.28622
7.16351e-07
5.28593
2.99479e-06
5.28551
1.4143e-05
5.28493
6.80641e-05
5.28398
0.000327536
5.28168
0.00157189
5.27335
0.00749533
5.23675
0.0356679
5.05663
0.1791
0.682249
4.37329
7.49931
0.000460475
7.49845
0.000331096
7.49763
0.000314436
7.49684
0.000319257
7.49608
0.000319582
7.49536
0.000319391
7.49468
0.000319375
7.49404
0.000319358
7.49344
0.000319324
7.49287
0.000319281
7.49232
0.000319237
7.49179
0.000319192
7.49127
0.000319151
7.49076
0.000319112
7.49025
0.000319074
7.48975
0.000319029
7.48925
0.000318953
7.48874
0.000318808
7.48822
0.000318532
7.48769
0.000318032
7.48714
0.000317172
7.48657
0.000315778
7.48599
0.000313621
7.4854
0.000310439
7.4848
0.000305933
7.48421
0.000299808
7.48362
0.000291784
7.48303
0.000281649
7.48245
0.000269283
7.48189
0.000254691
7.48135
0.000238015
7.48083
0.00021954
7.48033
0.000199681
7.47985
0.000178943
7.4794
0.000157891
7.47897
0.000137095
7.47856
0.000117092
7.47818
9.83411e-05
7.47782
8.12002e-05
7.47748
6.59093e-05
7.47714
5.25897e-05
7.47682
4.12534e-05
7.4765
3.18217e-05
7.47617
2.41565e-05
7.47584
1.79851e-05
7.47549
1.32777e-05
7.47512
9.65357e-06
7.47472
6.91421e-06
7.47428
4.91774e-06
7.47379
3.48683e-06
7.47325
2.48164e-06
7.47265
1.79075e-06
7.47198
1.32716e-06
7.47124
1.02465e-06
7.47043
8.33608e-07
7.46952
7.18603e-07
7.46853
6.54169e-07
7.46745
6.22667e-07
7.46627
6.11964e-07
7.46501
6.13858e-07
7.46366
6.22815e-07
7.46222
6.35138e-07
7.4607
6.48271e-07
7.45912
6.60397e-07
7.45747
6.70256e-07
7.45578
6.76866e-07
7.45406
6.79456e-07
7.45231
6.7745e-07
7.45057
6.7033e-07
7.44885
6.57777e-07
7.44717
6.39588e-07
7.44555
6.15657e-07
7.44401
5.86053e-07
7.44257
5.50957e-07
7.44125
5.10721e-07
7.44007
4.65814e-07
7.43904
4.1682e-07
7.43818
3.644e-07
7.4375
3.09325e-07
7.43701
2.52427e-07
7.4367
1.94672e-07
7.43659
1.37372e-07
7.43668
1.00681e-07
7.43691
4.35703e-08
7.43733
-1.92285e-08
7.43791
-6.84158e-08
7.43865
-1.09398e-07
7.43953
-1.4931e-07
7.44053
-1.813e-07
7.44163
-2.06512e-07
7.44281
-2.28152e-07
7.44405
-2.38915e-07
7.44533
-2.43343e-07
7.44663
-2.44157e-07
7.44793
-2.39692e-07
7.44921
-2.31968e-07
7.45046
-2.18206e-07
7.45166
-1.9768e-07
7.4528
-1.7421e-07
7.45388
-1.4762e-07
7.45488
-1.19033e-07
7.4558
-9.10404e-08
7.45664
-6.26587e-08
7.4574
-3.41843e-08
7.45808
-7.15954e-09
7.45869
1.94577e-08
7.45922
4.44397e-08
7.45969
6.75027e-08
7.46009
8.90759e-08
7.46044
1.07848e-07
7.46074
1.24814e-07
7.46099
1.39495e-07
7.46121
1.52064e-07
7.46141
1.6285e-07
7.46157
1.71856e-07
7.46172
1.79303e-07
7.46186
1.85342e-07
7.46198
1.9015e-07
7.4621
1.93892e-07
7.46221
1.96624e-07
7.46233
1.98515e-07
7.46244
1.99663e-07
7.46255
2.00485e-07
7.46267
2.00345e-07
7.46279
2.00504e-07
7.46292
2.00234e-07
7.46305
1.99805e-07
7.46318
1.99267e-07
7.46331
1.98914e-07
7.46345
1.98912e-07
7.46358
2.01131e-07
7.46372
1.99894e-07
7.46386
1.83813e-07
7.464
2.17671e-07
7.46414
2.01726e-07
7.46428
1.89924e-07
7.46441
1.85484e-07
7.46454
1.92706e-07
7.46466
1.97755e-07
7.46479
2.04136e-07
7.46491
2.0573e-07
7.46502
2.05328e-07
7.46514
2.04402e-07
7.46525
2.04363e-07
7.46536
2.04727e-07
7.46547
2.05713e-07
7.46558
2.13549e-07
7.46569
2.14526e-07
7.46582
2.1557e-07
7.46595
2.20312e-07
7.46609
2.24964e-07
7.46625
2.30128e-07
7.46642
2.35985e-07
7.46663
2.4266e-07
7.46685
2.50213e-07
7.46712
2.58677e-07
7.46742
2.6809e-07
7.46776
2.78407e-07
7.46814
2.89563e-07
7.46858
3.01474e-07
7.46907
3.14025e-07
7.46963
3.27134e-07
7.47024
3.4066e-07
7.47092
3.54445e-07
7.47166
3.68318e-07
7.47247
3.82061e-07
7.47335
3.95432e-07
7.47429
4.0819e-07
7.47529
4.20032e-07
7.47635
4.30724e-07
7.47746
4.39959e-07
7.47861
4.47437e-07
7.4798
4.52739e-07
7.48102
4.56183e-07
7.48225
4.56384e-07
7.48349
4.54962e-07
7.48471
4.49019e-07
7.48592
4.42133e-07
7.48709
4.29764e-07
7.48821
4.16541e-07
7.48926
3.9559e-07
7.49024
3.82917e-07
7.49112
3.52511e-07
7.4919
3.39027e-07
7.49256
2.77916e-07
7.49309
2.55621e-07
7.49349
2.75651e-07
7.49374
2.62888e-07
7.49384
1.77044e-07
7.49378
3.1988e-07
7.49354
1.64189e-06
7.49313
7.11603e-06
7.49254
3.40564e-05
7.49171
0.000164049
7.49037
0.000789416
7.48712
0.00378882
7.47536
0.0180805
7.42369
0.0860131
7.17555
0.425802
1.57725
6.27901
10.6056
0.000402368
10.6044
0.000304461
10.6032
0.0002796
10.6021
0.000286528
10.6011
0.00028718
10.6
0.000286872
10.5991
0.000286854
10.5982
0.000286852
10.5973
0.000286825
10.5965
0.000286788
10.5957
0.000286749
10.595
0.000286711
10.5943
0.000286675
10.5935
0.000286641
10.5928
0.000286608
10.5921
0.000286568
10.5914
0.000286501
10.5907
0.000286373
10.59
0.000286128
10.5892
0.000285684
10.5884
0.000284919
10.5876
0.00028368
10.5868
0.000281758
10.586
0.000278922
10.5851
0.000274903
10.5843
0.000269438
10.5834
0.000262272
10.5826
0.000253215
10.5818
0.000242157
10.581
0.000229102
10.5802
0.000214171
10.5795
0.000197618
10.5788
0.000179814
10.5781
0.000161208
10.5775
0.000142308
10.5769
0.000123624
10.5763
0.000105641
10.5758
8.87726e-05
10.5752
7.33407e-05
10.5748
5.95645e-05
10.5743
4.75556e-05
10.5738
3.73274e-05
10.5734
2.88114e-05
10.5729
2.1884e-05
10.5724
1.63053e-05
10.572
1.2044e-05
10.5714
8.76121e-06
10.5709
6.27904e-06
10.5702
4.46771e-06
10.5695
3.16853e-06
10.5688
2.25506e-06
10.5679
1.62668e-06
10.567
1.2046e-06
10.5659
9.28918e-07
10.5648
7.54454e-07
10.5635
6.49168e-07
10.5621
5.89955e-07
10.5606
5.60787e-07
10.5589
5.50597e-07
10.5571
5.51941e-07
10.5552
5.59768e-07
10.5532
5.70697e-07
10.551
5.8241e-07
10.5488
5.93252e-07
10.5465
6.02073e-07
10.5441
6.07996e-07
10.5416
6.10306e-07
10.5392
6.08497e-07
10.5367
6.02097e-07
10.5343
5.90818e-07
10.5319
5.74477e-07
10.5296
5.52978e-07
10.5274
5.26387e-07
10.5254
4.94865e-07
10.5235
4.58723e-07
10.5219
4.18388e-07
10.5204
3.74378e-07
10.5192
3.27297e-07
10.5182
2.77826e-07
10.5175
2.26724e-07
10.5171
1.74864e-07
10.5169
1.23627e-07
10.5171
8.96434e-08
10.5174
3.98868e-08
10.518
-1.73918e-08
10.5188
-6.14455e-08
10.5198
-9.82755e-08
10.5211
-1.33973e-07
10.5225
-1.62857e-07
10.5241
-1.85474e-07
10.5257
-2.04791e-07
10.5275
-2.1459e-07
10.5293
-2.1854e-07
10.5311
-2.19251e-07
10.533
-2.15301e-07
10.5348
-2.08277e-07
10.5366
-1.95939e-07
10.5382
-1.77524e-07
10.5399
-1.56415e-07
10.5414
-1.3258e-07
10.5428
-1.06923e-07
10.5441
-8.17431e-08
10.5453
-5.62814e-08
10.5464
-3.07268e-08
10.5473
-6.32735e-09
10.5482
1.75037e-08
10.5489
3.99059e-08
10.5496
6.0646e-08
10.5502
7.99723e-08
10.5507
9.68853e-08
10.5511
1.12076e-07
10.5514
1.25282e-07
10.5518
1.36569e-07
10.552
1.46253e-07
10.5523
1.54348e-07
10.5525
1.6104e-07
10.5527
1.6646e-07
10.5528
1.70784e-07
10.553
1.74139e-07
10.5532
1.76603e-07
10.5533
1.78296e-07
10.5535
1.79339e-07
10.5537
1.80067e-07
10.5538
1.79963e-07
10.554
1.80092e-07
10.5542
1.79857e-07
10.5543
1.79471e-07
10.5545
1.79001e-07
10.5547
1.78688e-07
10.5549
1.78766e-07
10.5551
1.80586e-07
10.5553
1.79205e-07
10.5555
1.66419e-07
10.5557
1.93236e-07
10.5559
1.82549e-07
10.5561
1.70516e-07
10.5563
1.66702e-07
10.5565
1.73075e-07
10.5566
1.77672e-07
10.5568
1.8327e-07
10.557
1.84759e-07
10.5571
1.84411e-07
10.5573
1.83608e-07
10.5575
1.83557e-07
10.5576
1.83908e-07
10.5578
1.8488e-07
10.5579
1.91689e-07
10.5581
1.92728e-07
10.5583
1.93662e-07
10.5585
1.97876e-07
10.5587
2.02068e-07
10.5589
2.06708e-07
10.5591
2.11969e-07
10.5594
2.17966e-07
10.5597
2.2475e-07
10.5601
2.32354e-07
10.5605
2.40808e-07
10.561
2.50077e-07
10.5616
2.601e-07
10.5622
2.70796e-07
10.5629
2.82072e-07
10.5637
2.93848e-07
10.5645
3.06004e-07
10.5655
3.18388e-07
10.5665
3.30852e-07
10.5677
3.432e-07
10.5689
3.55209e-07
10.5702
3.66673e-07
10.5717
3.77308e-07
10.5732
3.8692e-07
10.5747
3.95196e-07
10.5764
4.01998e-07
10.578
4.06618e-07
10.5798
4.09942e-07
10.5815
4.09726e-07
10.5833
4.09036e-07
10.585
4.0291e-07
10.5867
3.97699e-07
10.5884
3.85633e-07
10.5899
3.74609e-07
10.5914
3.52807e-07
10.5928
3.484e-07
10.5941
3.14866e-07
10.5952
3.14027e-07
10.5961
2.29826e-07
10.5968
2.17104e-07
10.5974
2.8343e-07
10.5978
2.90595e-07
10.5979
1.64787e-07
10.5978
4.45352e-07
10.5975
2.96286e-06
10.5969
1.27716e-05
10.5961
6.1535e-05
10.5949
0.000296512
10.593
0.00142693
10.5885
0.00684964
10.5722
0.0327023
10.501
0.155393
10.1644
0.760337
2.75621
8.98325
46.8155
0.00018573
46.8101
0.00016013
46.805
0.00013781
46.8
0.000142537
46.7953
0.000143972
46.7908
0.000143603
46.7866
0.000143497
46.7826
0.000143488
46.7788
0.000143463
46.7753
0.000143432
46.7719
0.000143405
46.7685
0.00014338
46.7653
0.000143358
46.7621
0.000143338
46.7589
0.00014332
46.7558
0.000143299
46.7527
0.000143266
46.7495
0.000143204
46.7463
0.000143087
46.743
0.000142873
46.7395
0.000142504
46.736
0.000141904
46.7324
0.000140969
46.7287
0.000139586
46.725
0.00013762
46.7213
0.00013494
46.7176
0.000131416
46.7139
0.000126951
46.7103
0.000121486
46.7068
0.000115021
46.7034
0.00010761
46.7002
9.93777e-05
46.697
9.05064e-05
46.6941
8.12183e-05
46.6912
7.17664e-05
46.6886
6.24067e-05
46.686
5.33834e-05
46.6837
4.49056e-05
46.6814
3.71381e-05
46.6792
3.01935e-05
46.6772
2.41311e-05
46.6751
1.89604e-05
46.6731
1.46496e-05
46.6711
1.11368e-05
46.669
8.30846e-06
46.6669
6.1402e-06
46.6645
4.46986e-06
46.662
3.20645e-06
46.6593
2.28242e-06
46.6562
1.61917e-06
46.6529
1.15203e-06
46.6491
8.30097e-07
46.645
6.13574e-07
46.6403
4.71665e-07
46.6352
3.81635e-07
46.6296
3.27281e-07
46.6234
2.96687e-07
46.6166
2.81504e-07
46.6093
2.76014e-07
46.6014
2.76424e-07
46.593
2.80168e-07
46.584
2.85518e-07
46.5745
2.913e-07
46.5646
2.96681e-07
46.5544
3.01061e-07
46.5438
3.04011e-07
46.533
3.05155e-07
46.5222
3.04243e-07
46.5113
3.01044e-07
46.5005
2.95402e-07
46.49
2.87233e-07
46.4799
2.76485e-07
46.4703
2.63189e-07
46.4613
2.4743e-07
46.4531
2.2936e-07
46.4457
2.09192e-07
46.4393
1.87187e-07
46.4339
1.63648e-07
46.4297
1.3891e-07
46.4266
1.13362e-07
46.4247
8.74529e-08
46.424
6.20832e-08
46.4245
4.38965e-08
46.426
2.0661e-08
46.4286
-8.17704e-09
46.4322
-3.10986e-08
46.4368
-4.91348e-08
46.4423
-6.6944e-08
46.4486
-8.1413e-08
46.4555
-9.2771e-08
46.4628
-1.02285e-07
46.4706
-1.0729e-07
46.4786
-1.09266e-07
46.4867
-1.0958e-07
46.4948
-1.07692e-07
46.5028
-1.04065e-07
46.5106
-9.79105e-08
46.5181
-8.87671e-08
46.5252
-7.81602e-08
46.5319
-6.62876e-08
46.5382
-5.34978e-08
46.5439
-4.08222e-08
46.5492
-2.811e-08
46.5539
-1.532e-08
46.5582
-3.51952e-09
46.562
8.44989e-09
46.5653
2.01383e-08
46.5682
3.03555e-08
46.5707
3.9965e-08
46.5729
4.84713e-08
46.5747
5.60183e-08
46.5763
6.26417e-08
46.5777
6.8286e-08
46.5789
7.312e-08
46.58
7.71749e-08
46.5809
8.05189e-08
46.5817
8.32292e-08
46.5825
8.53881e-08
46.5832
8.70646e-08
46.584
8.82978e-08
46.5847
8.91371e-08
46.5854
8.96628e-08
46.5861
9.00147e-08
46.5868
8.99824e-08
46.5876
9.00252e-08
46.5884
8.9912e-08
46.5891
8.97162e-08
46.59
8.94802e-08
46.5908
8.92985e-08
46.5917
8.93046e-08
46.5925
9.00709e-08
46.5934
8.95088e-08
46.5943
8.48584e-08
46.5951
9.43276e-08
46.596
9.25204e-08
46.5968
8.52401e-08
46.5977
8.34082e-08
46.5985
8.6485e-08
46.5993
8.8889e-08
46.6
9.15425e-08
46.6008
9.23524e-08
46.6015
9.2195e-08
46.6022
9.18155e-08
46.6029
9.17696e-08
46.6036
9.19763e-08
46.6043
9.25727e-08
46.605
9.56818e-08
46.6057
9.63928e-08
46.6064
9.68892e-08
46.6073
9.89285e-08
46.6081
1.01041e-07
46.6091
1.03358e-07
46.6102
1.05989e-07
46.6115
1.08987e-07
46.6129
1.12381e-07
46.6146
1.16183e-07
46.6164
1.2041e-07
46.6186
1.25042e-07
46.621
1.30052e-07
46.6237
1.35398e-07
46.6268
1.41036e-07
46.6302
1.46925e-07
46.6341
1.53002e-07
46.6383
1.59193e-07
46.6429
1.65424e-07
46.648
1.716e-07
46.6535
1.77604e-07
46.6593
1.8334e-07
46.6656
1.88641e-07
46.6722
1.93476e-07
46.6791
1.97526e-07
46.6863
2.01221e-07
46.6938
2.0298e-07
46.7013
2.05533e-07
46.709
2.03966e-07
46.7168
2.05599e-07
46.7244
1.99951e-07
46.7319
2.00487e-07
46.7392
1.91674e-07
46.7462
1.88473e-07
46.7528
1.66219e-07
46.7589
1.90542e-07
46.7644
1.55467e-07
46.7693
1.91387e-07
46.7734
3.51301e-08
46.7767
4.599e-08
46.7792
3.09735e-07
46.7808
3.89192e-07
46.7814
6.31082e-08
46.781
7.1678e-07
46.7795
8.79456e-06
46.777
3.44771e-05
46.7733
0.000168966
46.7682
0.000814595
46.7602
0.00392136
46.7418
0.0188246
46.6775
0.0896399
46.4049
0.419818
45.2865
1.86974
6.58851
41.4445
46.8154
1.13687e-12
46.8101
-1.36424e-12
46.8049
2.50111e-12
46.8
2.50111e-12
46.7953
3.86535e-12
46.7908
3.41061e-12
46.7865
-6.82121e-13
46.7826
2.27374e-13
46.7788
-6.82121e-13
46.7752
-2.04636e-12
46.7718
-1.36424e-12
46.7685
-1.36424e-12
46.7653
-2.27374e-13
46.7621
-1.13687e-12
46.7589
4.54747e-13
46.7558
2.27374e-13
46.7527
6.82121e-13
46.7495
-4.54747e-13
46.7463
4.54747e-13
46.7429
-2.27374e-13
46.7395
2.27374e-13
46.736
-2.27374e-13
46.7323
1.13687e-12
46.7287
-2.27374e-13
46.725
1.59162e-12
46.7212
6.82121e-13
46.7175
1.81899e-12
46.7139
2.50111e-12
46.7103
6.82121e-13
46.7068
0
46.7034
-2.27374e-13
46.7002
9.09495e-13
46.697
0
46.6941
-6.82121e-13
46.6912
0
46.6886
-4.54747e-13
46.686
-9.09495e-13
46.6836
-4.54747e-13
46.6814
1.13687e-12
46.6792
1.13687e-12
46.6772
1.36424e-12
46.6751
6.82121e-13
46.6731
1.13687e-12
46.6711
6.82121e-13
46.669
1.13687e-12
46.6669
9.09495e-13
46.6645
9.09495e-13
46.662
1.36424e-12
46.6593
1.13687e-12
46.6562
4.54747e-13
46.6529
1.81899e-12
46.6491
6.82121e-13
46.645
-1.13687e-12
46.6403
-6.82121e-13
46.6352
2.27374e-13
46.6296
-2.27374e-13
46.6234
-1.36424e-12
46.6166
4.54747e-13
46.6093
6.82121e-13
46.6014
-1.13687e-12
46.593
-2.27374e-12
46.584
4.54747e-13
46.5745
-4.54747e-13
46.5646
2.04636e-12
46.5544
0
46.5438
-2.27374e-13
46.533
-6.82121e-13
46.5222
-2.04636e-12
46.5113
-6.82121e-13
46.5005
6.82121e-13
46.49
1.81899e-12
46.4799
2.50111e-12
46.4703
3.18323e-12
46.4613
2.72848e-12
46.4531
2.04636e-12
46.4457
9.09495e-13
46.4393
6.82121e-13
46.4339
1.59162e-12
46.4297
2.27374e-13
46.4266
-6.82121e-13
46.4247
1.36424e-12
46.424
0
46.4245
1.13687e-12
46.426
1.13687e-12
46.4286
9.09495e-13
46.4322
1.59162e-12
46.4368
-1.36424e-12
46.4423
6.82121e-13
46.4486
4.54747e-13
46.4555
-9.09495e-13
46.4628
-2.27374e-13
46.4706
-1.36424e-12
46.4786
4.54747e-13
46.4867
-4.54747e-13
46.4948
-6.82121e-13
46.5028
-1.59162e-12
46.5106
-6.82121e-13
46.5181
2.27374e-13
46.5252
-2.04636e-12
46.5319
-1.81899e-12
46.5382
-2.27374e-12
46.5439
-2.27374e-13
46.5492
2.27374e-13
46.5539
-6.82121e-13
46.5582
6.82121e-13
46.562
6.82121e-13
46.5653
0
46.5682
1.59162e-12
46.5707
2.27374e-13
46.5729
1.36424e-12
46.5747
1.36424e-12
46.5763
-2.27374e-13
46.5777
-1.59162e-12
46.5789
0
46.58
6.82121e-13
46.5809
-6.82121e-13
46.5817
1.81899e-12
46.5825
9.09495e-13
46.5832
9.09495e-13
46.584
-6.82121e-13
46.5847
-4.54747e-13
46.5854
0
46.5861
-1.36424e-12
46.5868
-4.54747e-13
46.5876
9.09495e-13
46.5884
-1.13687e-12
46.5891
-1.13687e-12
46.59
-2.27374e-13
46.5908
-9.09495e-13
46.5917
-2.27374e-13
46.5925
4.54747e-13
46.5934
-2.27374e-13
46.5943
2.50111e-12
46.5951
-4.54747e-13
46.596
-9.09495e-13
46.5968
6.82121e-13
46.5977
-1.81899e-12
46.5985
1.36424e-12
46.5993
2.27374e-13
46.6
6.82121e-13
46.6008
0
46.6015
1.13687e-12
46.6022
-4.54747e-13
46.6029
4.54747e-13
46.6036
-2.72848e-12
46.6043
6.82121e-13
46.605
-1.13687e-12
46.6057
-6.82121e-13
46.6064
-1.59162e-12
46.6073
-2.27374e-13
46.6081
0
46.6091
2.04636e-12
46.6102
2.27374e-13
46.6115
-6.82121e-13
46.6129
1.13687e-12
46.6146
-4.54747e-13
46.6164
1.13687e-12
46.6186
1.59162e-12
46.621
-2.27374e-13
46.6237
6.82121e-13
46.6268
0
46.6302
-4.54747e-13
46.6341
0
46.6383
2.27374e-13
46.6429
-2.27374e-13
46.648
6.82121e-13
46.6535
-2.72848e-12
46.6593
1.09139e-11
46.6656
-2.56932e-11
46.6722
2.72848e-11
46.6791
-1.62345e-10
46.6863
4.1473e-10
46.6938
-8.60382e-10
46.7013
1.70712e-09
46.709
-2.90925e-09
46.7168
4.23006e-09
46.7244
-5.63568e-09
46.7319
6.90034e-09
46.7392
-6.48743e-09
46.7462
7.11202e-09
46.7528
-2.24543e-08
46.7589
3.58687e-08
46.7644
-2.1997e-08
46.7693
6.69777e-08
46.7734
-1.38283e-07
46.7767
-6.16028e-08
46.7792
2.41217e-07
46.7808
4.09217e-07
46.7814
-1.35112e-07
46.781
5.49059e-07
46.7795
1.15057e-05
46.777
4.25688e-05
46.7734
0.000209899
46.7686
0.00101284
46.7621
0.00488417
46.751
0.0235157
46.7203
0.112983
46.5968
0.535152
45.997
2.46052
8.78364
43.7922
46.8154
-0.00018573
46.8101
-0.00016013
46.8049
-0.00013781
46.8
-0.000142537
46.7953
-0.000143972
46.7908
-0.000143603
46.7865
-0.000143497
46.7826
-0.000143488
46.7788
-0.000143463
46.7752
-0.000143432
46.7718
-0.000143405
46.7685
-0.00014338
46.7653
-0.000143358
46.7621
-0.000143338
46.7589
-0.00014332
46.7558
-0.000143299
46.7527
-0.000143266
46.7495
-0.000143204
46.7463
-0.000143087
46.7429
-0.000142873
46.7395
-0.000142504
46.736
-0.000141904
46.7323
-0.000140969
46.7287
-0.000139586
46.725
-0.00013762
46.7212
-0.00013494
46.7175
-0.000131416
46.7139
-0.000126951
46.7103
-0.000121486
46.7068
-0.000115021
46.7034
-0.00010761
46.7002
-9.93776e-05
46.697
-9.05064e-05
46.6941
-8.12183e-05
46.6912
-7.17664e-05
46.6886
-6.24067e-05
46.686
-5.33834e-05
46.6836
-4.49056e-05
46.6814
-3.71381e-05
46.6792
-3.01935e-05
46.6772
-2.41311e-05
46.6751
-1.89604e-05
46.6731
-1.46496e-05
46.6711
-1.11368e-05
46.669
-8.30845e-06
46.6669
-6.1402e-06
46.6645
-4.46986e-06
46.662
-3.20645e-06
46.6593
-2.28242e-06
46.6562
-1.61917e-06
46.6529
-1.15202e-06
46.6491
-8.30096e-07
46.645
-6.13576e-07
46.6403
-4.71666e-07
46.6352
-3.81634e-07
46.6296
-3.2728e-07
46.6234
-2.9669e-07
46.6166
-2.81502e-07
46.6093
-2.76013e-07
46.6014
-2.76426e-07
46.593
-2.80172e-07
46.584
-2.85518e-07
46.5745
-2.91302e-07
46.5646
-2.96677e-07
46.5544
-3.01059e-07
46.5438
-3.04012e-07
46.533
-3.05159e-07
46.5222
-3.04245e-07
46.5113
-3.01045e-07
46.5005
-2.95401e-07
46.49
-2.87228e-07
46.4799
-2.7648e-07
46.4703
-2.63185e-07
46.4613
-2.47426e-07
46.4531
-2.29356e-07
46.4457
-2.09189e-07
46.4393
-1.87187e-07
46.4339
-1.63644e-07
46.4297
-1.3891e-07
46.4266
-1.13365e-07
46.4247
-8.74509e-08
46.424
-6.20839e-08
46.4245
-4.38938e-08
46.426
-2.06589e-08
46.4286
8.17931e-09
46.4322
3.11045e-08
46.4368
4.91304e-08
46.4423
6.69452e-08
46.4486
8.14121e-08
46.4555
9.27691e-08
46.4628
1.02283e-07
46.4706
1.07288e-07
46.4786
1.09269e-07
46.4867
1.09578e-07
46.4948
1.0769e-07
46.5028
1.04063e-07
46.5106
9.7908e-08
46.5181
8.87687e-08
46.5252
7.81563e-08
46.5319
6.62851e-08
46.5382
5.34953e-08
46.5439
4.08227e-08
46.5492
2.811e-08
46.5539
1.53173e-08
46.5582
3.51906e-09
46.562
-8.44943e-09
46.5653
-2.01369e-08
46.5682
-3.03523e-08
46.5707
-3.99634e-08
46.5729
-4.84674e-08
46.5747
-5.60149e-08
46.5763
-6.26424e-08
46.5777
-6.82878e-08
46.5789
-7.31204e-08
46.58
-7.71745e-08
46.5809
-8.05192e-08
46.5817
-8.32267e-08
46.5825
-8.53868e-08
46.5832
-8.70634e-08
46.584
-8.8301e-08
46.5847
-8.91389e-08
46.5854
-8.96625e-08
46.5861
-9.00177e-08
46.5868
-8.99827e-08
46.5876
-9.00236e-08
46.5884
-8.99138e-08
46.5891
-8.97169e-08
46.59
-8.94793e-08
46.5908
-8.92985e-08
46.5917
-8.93037e-08
46.5925
-9.00716e-08
46.5934
-8.95091e-08
46.5943
-8.48538e-08
46.5951
-9.43294e-08
46.596
-9.25204e-08
46.5968
-8.5239e-08
46.5977
-8.34111e-08
46.5985
-8.64834e-08
46.5993
-8.88883e-08
46.6
-9.15431e-08
46.6008
-9.23517e-08
46.6015
-9.21923e-08
46.6022
-9.18162e-08
46.6029
-9.17689e-08
46.6036
-9.19806e-08
46.6043
-9.25727e-08
46.605
-9.56829e-08
46.6057
-9.63964e-08
46.6064
-9.68914e-08
46.6073
-9.89294e-08
46.6081
-1.0104e-07
46.6091
-1.03353e-07
46.6102
-1.05988e-07
46.6115
-1.08988e-07
46.6129
-1.12379e-07
46.6146
-1.16184e-07
46.6164
-1.20408e-07
46.6186
-1.25037e-07
46.621
-1.30051e-07
46.6237
-1.35398e-07
46.6268
-1.41036e-07
46.6302
-1.46926e-07
46.6341
-1.53003e-07
46.6383
-1.59191e-07
46.6429
-1.65423e-07
46.648
-1.71598e-07
46.6535
-1.77609e-07
46.6593
-1.83323e-07
46.6656
-1.88678e-07
46.6722
-1.93425e-07
46.6791
-1.97752e-07
46.6863
-2.00543e-07
46.6938
-2.04141e-07
46.7013
-2.03402e-07
46.709
-2.07262e-07
46.7168
-2.01235e-07
46.7244
-2.06158e-07
46.7319
-1.92624e-07
46.7392
-1.99566e-07
46.7462
-1.79449e-07
46.7528
-1.97136e-07
46.7589
-1.47232e-07
46.7644
-1.61079e-07
46.7693
-1.14185e-07
46.7734
-2.19627e-07
46.7767
-1.81658e-07
46.7792
8.28438e-08
46.7808
3.0671e-07
46.7814
-4.13686e-07
46.781
2.77425e-08
46.7795
1.04839e-05
46.777
3.35853e-05
46.7735
0.00016931
46.7691
0.000818361
46.7645
0.00396225
46.7623
0.0192442
46.7737
0.0942638
46.8367
0.463965
46.9351
2.35314
8.00279
47.7063
46.8155
-0.000402368
46.8101
-0.000304461
46.805
-0.0002796
46.8
-0.000286528
46.7953
-0.00028718
46.7908
-0.000286872
46.7866
-0.000286854
46.7826
-0.000286852
46.7788
-0.000286825
46.7753
-0.000286788
46.7719
-0.000286749
46.7685
-0.000286711
46.7653
-0.000286675
46.7621
-0.000286641
46.7589
-0.000286608
46.7558
-0.000286568
46.7527
-0.000286501
46.7495
-0.000286373
46.7463
-0.000286128
46.743
-0.000285684
46.7395
-0.000284919
46.736
-0.00028368
46.7324
-0.000281758
46.7287
-0.000278922
46.725
-0.000274903
46.7213
-0.000269438
46.7176
-0.000262272
46.7139
-0.000253215
46.7103
-0.000242157
46.7068
-0.000229102
46.7034
-0.000214171
46.7002
-0.000197618
46.697
-0.000179814
46.6941
-0.000161208
46.6912
-0.000142308
46.6886
-0.000123624
46.686
-0.000105641
46.6837
-8.87725e-05
46.6814
-7.33407e-05
46.6792
-5.95645e-05
46.6772
-4.75556e-05
46.6751
-3.73274e-05
46.6731
-2.88114e-05
46.6711
-2.1884e-05
46.669
-1.63053e-05
46.6669
-1.2044e-05
46.6645
-8.76121e-06
46.662
-6.27903e-06
46.6593
-4.4677e-06
46.6562
-3.16853e-06
46.6529
-2.25506e-06
46.6491
-1.62668e-06
46.645
-1.2046e-06
46.6403
-9.28917e-07
46.6352
-7.5445e-07
46.6296
-6.49166e-07
46.6234
-5.89958e-07
46.6166
-5.60784e-07
46.6093
-5.50595e-07
46.6014
-5.51943e-07
46.593
-5.5977e-07
46.584
-5.70696e-07
46.5745
-5.82412e-07
46.5646
-5.93247e-07
46.5544
-6.02072e-07
46.5438
-6.07999e-07
46.533
-6.10312e-07
46.5222
-6.08496e-07
46.5113
-6.02096e-07
46.5005
-5.90816e-07
46.49
-5.74469e-07
46.4799
-5.52973e-07
46.4703
-5.26382e-07
46.4613
-4.94863e-07
46.4531
-4.5872e-07
46.4457
-4.18385e-07
46.4393
-3.74378e-07
46.4339
-3.27292e-07
46.4297
-2.77822e-07
46.4266
-2.26728e-07
46.4247
-1.74864e-07
46.424
-1.23629e-07
46.4245
-8.96412e-08
46.426
-3.98841e-08
46.4286
1.73941e-08
46.4322
6.14536e-08
46.4368
9.82691e-08
46.4423
1.33974e-07
46.4486
1.62855e-07
46.4555
1.85472e-07
46.4628
2.04792e-07
46.4706
2.1459e-07
46.4786
2.18543e-07
46.4867
2.19246e-07
46.4948
2.15299e-07
46.5028
2.08275e-07
46.5106
1.95936e-07
46.5181
1.77527e-07
46.5252
1.5641e-07
46.5319
1.3258e-07
46.5382
1.06923e-07
46.5439
8.17417e-08
46.5492
5.62809e-08
46.5539
3.07209e-08
46.5582
6.32735e-09
46.562
-1.75019e-08
46.5653
-3.99077e-08
46.5682
-6.0646e-08
46.5707
-7.99746e-08
46.5729
-9.6878e-08
46.5747
-1.12072e-07
46.5763
-1.25282e-07
46.5777
-1.36571e-07
46.5789
-1.46254e-07
46.58
-1.54341e-07
46.5809
-1.6104e-07
46.5817
-1.66458e-07
46.5825
-1.70784e-07
46.5832
-1.74138e-07
46.584
-1.76609e-07
46.5847
-1.78296e-07
46.5854
-1.7934e-07
46.5861
-1.8007e-07
46.5868
-1.79961e-07
46.5876
-1.80089e-07
46.5884
-1.79857e-07
46.5891
-1.79471e-07
46.59
-1.79001e-07
46.5908
-1.78687e-07
46.5917
-1.78763e-07
46.5925
-1.80588e-07
46.5934
-1.79205e-07
46.5943
-1.66416e-07
46.5951
-1.9324e-07
46.596
-1.82548e-07
46.5968
-1.70511e-07
46.5977
-1.66704e-07
46.5985
-1.73074e-07
46.5993
-1.77671e-07
46.6
-1.83274e-07
46.6008
-1.84759e-07
46.6015
-1.84409e-07
46.6022
-1.83609e-07
46.6029
-1.83554e-07
46.6036
-1.83912e-07
46.6043
-1.84881e-07
46.605
-1.91692e-07
46.6057
-1.92731e-07
46.6064
-1.93664e-07
46.6073
-1.97877e-07
46.6081
-2.02067e-07
46.6091
-2.06704e-07
46.6102
-2.11969e-07
46.6115
-2.17965e-07
46.6129
-2.24748e-07
46.6146
-2.32357e-07
46.6164
-2.40808e-07
46.6186
-2.50068e-07
46.621
-2.60098e-07
46.6237
-2.70797e-07
46.6268
-2.82075e-07
46.6302
-2.93851e-07
46.6341
-3.06006e-07
46.6383
-3.18389e-07
46.6429
-3.30849e-07
46.648
-3.43197e-07
46.6535
-3.55213e-07
46.6593
-3.66665e-07
46.6656
-3.77321e-07
46.6722
-3.86903e-07
46.6791
-3.95271e-07
46.6863
-4.01782e-07
46.6938
-4.07017e-07
46.7013
-4.09224e-07
46.709
-4.10886e-07
46.7168
-4.07384e-07
46.7244
-4.05253e-07
46.7319
-3.94661e-07
46.7392
-3.88672e-07
46.7462
-3.71048e-07
46.7528
-3.64575e-07
46.7589
-3.31468e-07
46.7644
-3.18656e-07
46.7693
-2.83421e-07
46.7734
-3.00402e-07
46.7767
-2.63088e-07
46.7792
-1.43372e-07
46.7808
-3.83216e-08
46.7814
-2.78934e-07
46.781
-2.16834e-07
46.7795
4.35191e-06
46.777
1.17614e-05
46.7736
6.1803e-05
46.7695
0.000298139
46.7665
0.00144797
46.7723
0.00705355
46.8239
0.0352122
47.0954
0.184367
48.164
1.27557
4.11482
52.0423
10.6056
-0.000460475
10.6044
-0.000331096
10.6032
-0.000314436
10.6021
-0.000319257
10.6011
-0.000319582
10.6
-0.000319391
10.5991
-0.000319375
10.5982
-0.000319358
10.5973
-0.000319324
10.5965
-0.000319281
10.5957
-0.000319237
10.595
-0.000319192
10.5943
-0.000319151
10.5935
-0.000319112
10.5928
-0.000319074
10.5921
-0.000319029
10.5914
-0.000318953
10.5907
-0.000318808
10.59
-0.000318532
10.5892
-0.000318032
10.5884
-0.000317172
10.5876
-0.000315778
10.5868
-0.000313621
10.586
-0.000310439
10.5851
-0.000305933
10.5843
-0.000299808
10.5834
-0.000291784
10.5826
-0.000281649
10.5818
-0.000269283
10.581
-0.000254691
10.5802
-0.000238015
10.5795
-0.00021954
10.5788
-0.000199681
10.5781
-0.000178943
10.5775
-0.000157891
10.5769
-0.000137095
10.5763
-0.000117092
10.5758
-9.83411e-05
10.5752
-8.12002e-05
10.5748
-6.59093e-05
10.5743
-5.25897e-05
10.5738
-4.12534e-05
10.5734
-3.18217e-05
10.5729
-2.41565e-05
10.5724
-1.79851e-05
10.572
-1.32777e-05
10.5714
-9.65357e-06
10.5709
-6.9142e-06
10.5702
-4.91774e-06
10.5695
-3.48683e-06
10.5688
-2.48164e-06
10.5679
-1.79075e-06
10.567
-1.32716e-06
10.5659
-1.02465e-06
10.5648
-8.33605e-07
10.5635
-7.18601e-07
10.5621
-6.54169e-07
10.5606
-6.22664e-07
10.5589