/*--------------------------------*- C++ -*----------------------------------*\
| =========                 |                                                 |
| \\      /  F ield         | OpenFOAM: The Open Source CFD Toolbox           |
|  \\    /   O peration     | Version:  3.0.x                                 |
|   \\  /    A nd           | Web:      www.OpenFOAM.org                      |
|    \\/     M anipulation  |                                                 |
\*---------------------------------------------------------------------------*/
FoamFile
{
    version     2.0;
    format      ascii;
    class       volScalarField;
    location    "0.56";
    object      rho;
}
// * * * * * * * * * * * * * * * * * * * * * * * * * * * * * * * * * * * * * //

dimensions      [1 -3 0 0 0 0 0];

internalField   nonuniform List<scalar> 
27600
(
52.629
52.6318
52.6364
52.6408
52.645
52.649
52.653
52.6567
52.6603
52.6638
52.6671
52.6703
52.6732
52.6761
52.6788
52.6814
52.6838
52.686
52.6882
52.6903
52.6922
52.694
52.6958
52.6974
52.6991
52.7008
52.7024
52.7039
52.7055
52.707
52.7086
52.7102
52.7118
52.7134
52.715
52.7167
52.7184
52.7201
52.7218
52.7236
52.7253
52.7271
52.7289
52.7308
52.7326
52.7345
52.7364
52.7384
52.7403
52.7423
52.7443
52.7463
52.7483
52.7504
52.7524
52.7545
52.7566
52.7588
52.7609
52.7631
52.7653
52.7675
52.7697
52.772
52.7743
52.7766
52.7789
52.7812
52.7836
52.7859
52.7883
52.7907
52.7931
52.7956
52.798
52.8005
52.803
52.8055
52.808
52.8106
52.8132
52.8157
52.8183
52.821
52.8236
52.8262
52.8289
52.8316
52.8343
52.837
52.8397
52.8424
52.8452
52.848
52.8508
52.8535
52.8563
52.8591
52.8619
52.8648
52.8676
52.8705
52.8733
52.8762
52.8792
52.8821
52.8851
52.8881
52.8911
52.8941
52.8971
52.9002
52.9032
52.9063
52.9094
52.9124
52.9155
52.9186
52.9216
52.9247
52.9278
52.9309
52.934
52.9371
52.9403
52.9434
52.9466
52.9498
52.953
52.9562
52.9594
52.9627
52.9659
52.9691
52.9724
52.9756
52.9789
52.9822
52.9855
52.9889
52.9922
52.9955
52.9989
53.0022
53.0056
53.0089
53.0123
53.0156
53.0189
53.0223
53.0256
53.029
53.0323
53.0356
53.039
53.0424
53.0458
53.0492
53.0526
53.056
53.0595
53.0629
53.0664
53.0698
53.0733
53.0767
53.0802
53.0836
53.0871
53.0905
53.094
53.0974
53.1009
53.1044
53.1078
53.1113
53.1147
53.1182
53.1217
53.1251
53.1286
53.1321
53.1355
53.139
53.1425
53.146
53.1494
53.1529
53.1564
53.1599
53.1633
53.1668
53.1703
53.1737
53.1772
53.1807
53.1842
53.1876
53.1911
53.1946
53.1981
53.2015
53.205
53.2085
53.2119
53.2154
53.2188
53.2223
53.2258
53.2292
53.2327
53.2361
53.2396
53.243
53.2465
53.2499
53.2533
53.2568
53.2602
53.2636
53.267
53.2705
53.2739
53.2773
53.2807
53.2841
53.2875
53.2909
53.2943
53.2977
53.3011
53.3045
53.3079
53.3112
53.3146
53.318
53.3213
53.3247
53.328
53.3314
53.3347
53.338
53.3414
53.3447
53.348
53.3513
53.3546
53.3579
53.3612
53.3645
53.3678
53.3711
53.3743
53.3776
53.3809
53.3841
53.3874
53.3906
53.3938
53.3971
53.4003
53.4035
53.4067
53.4099
53.4131
53.4163
53.4194
53.4226
53.4258
53.4289
53.4321
53.4352
53.4384
53.4415
53.4446
53.4477
53.4508
53.4539
53.457
53.4601
53.4631
53.4662
53.4692
53.4723
53.4753
53.4784
53.4814
53.4844
53.4874
53.4904
53.4934
53.4963
53.4993
53.5023
53.5052
53.5081
53.5111
53.514
53.5169
53.5198
53.5227
53.5256
53.5285
53.5313
53.5342
53.537
53.5399
53.5427
53.5455
53.5483
53.5511
53.5539
53.5567
53.5594
53.5622
53.5649
53.5677
53.5704
53.5731
53.5758
53.5785
53.5812
53.5839
53.5865
53.5892
53.5918
53.5945
53.5971
53.5997
53.6023
53.6049
53.6074
53.61
53.6126
53.6151
53.6176
53.6201
53.6226
53.6251
53.6276
53.6301
53.6326
53.635
53.6374
53.6399
53.6423
53.6447
53.6471
53.6494
53.6518
53.6542
53.6565
53.6588
53.6611
53.6634
53.6657
53.668
53.6703
53.6725
53.6748
53.677
53.6792
53.6814
53.6836
53.6858
53.6879
53.6901
53.6922
53.6944
53.6964
53.6986
53.7006
53.7028
53.7047
53.7069
53.7088
53.711
53.7128
53.715
53.7167
53.7189
53.7206
53.7228
53.7245
53.7267
53.7283
53.7304
53.7321
53.7342
53.7358
53.7378
53.7394
53.7414
53.743
53.745
53.7465
53.7485
53.7499
53.7518
53.7531
52.6296
52.6324
52.637
52.6414
52.6456
52.6496
52.6536
52.6573
52.6609
52.6644
52.6677
52.6709
52.6738
52.6767
52.6794
52.6819
52.6843
52.6866
52.6888
52.6909
52.6928
52.6946
52.6963
52.698
52.6997
52.7014
52.703
52.7045
52.7061
52.7076
52.7092
52.7107
52.7123
52.714
52.7156
52.7173
52.7189
52.7206
52.7224
52.7241
52.7259
52.7277
52.7295
52.7313
52.7332
52.7351
52.737
52.7389
52.7408
52.7428
52.7448
52.7468
52.7488
52.7509
52.753
52.7551
52.7572
52.7593
52.7615
52.7636
52.7658
52.768
52.7703
52.7725
52.7748
52.7771
52.7794
52.7817
52.7841
52.7864
52.7888
52.7912
52.7937
52.7961
52.7986
52.801
52.8035
52.806
52.8086
52.8111
52.8137
52.8162
52.8188
52.8215
52.8241
52.8267
52.8294
52.8321
52.8348
52.8375
52.8402
52.8429
52.8457
52.8485
52.8512
52.854
52.8568
52.8596
52.8624
52.8653
52.8681
52.871
52.8738
52.8767
52.8796
52.8826
52.8856
52.8886
52.8916
52.8946
52.8976
52.9007
52.9037
52.9068
52.9098
52.9129
52.916
52.919
52.9221
52.9252
52.9283
52.9314
52.9345
52.9376
52.9407
52.9439
52.9471
52.9503
52.9535
52.9567
52.9599
52.9631
52.9663
52.9696
52.9728
52.9761
52.9793
52.9826
52.986
52.9893
52.9926
52.9959
52.9993
53.0026
53.006
53.0093
53.0127
53.016
53.0194
53.0227
53.026
53.0294
53.0327
53.0361
53.0394
53.0428
53.0462
53.0496
53.053
53.0564
53.0598
53.0633
53.0667
53.0702
53.0736
53.0771
53.0805
53.084
53.0875
53.0909
53.0944
53.0978
53.1013
53.1047
53.1082
53.1116
53.1151
53.1186
53.122
53.1255
53.129
53.1324
53.1359
53.1394
53.1428
53.1463
53.1498
53.1533
53.1567
53.1602
53.1637
53.1672
53.1706
53.1741
53.1776
53.1811
53.1845
53.188
53.1915
53.1949
53.1984
53.2019
53.2054
53.2088
53.2123
53.2157
53.2192
53.2227
53.2261
53.2296
53.233
53.2365
53.2399
53.2434
53.2468
53.2503
53.2537
53.2571
53.2606
53.264
53.2674
53.2708
53.2743
53.2777
53.2811
53.2845
53.2879
53.2913
53.2947
53.2981
53.3015
53.3048
53.3082
53.3116
53.315
53.3183
53.3217
53.325
53.3284
53.3317
53.3351
53.3384
53.3417
53.3451
53.3484
53.3517
53.355
53.3583
53.3616
53.3649
53.3682
53.3714
53.3747
53.378
53.3812
53.3845
53.3877
53.391
53.3942
53.3974
53.4006
53.4039
53.4071
53.4103
53.4134
53.4166
53.4198
53.423
53.4261
53.4293
53.4324
53.4356
53.4387
53.4418
53.445
53.4481
53.4512
53.4543
53.4573
53.4604
53.4635
53.4665
53.4696
53.4726
53.4757
53.4787
53.4817
53.4847
53.4877
53.4907
53.4937
53.4967
53.4997
53.5026
53.5056
53.5085
53.5114
53.5144
53.5173
53.5202
53.5231
53.5259
53.5288
53.5317
53.5345
53.5374
53.5402
53.543
53.5459
53.5487
53.5515
53.5543
53.557
53.5598
53.5625
53.5653
53.568
53.5708
53.5735
53.5762
53.5789
53.5816
53.5842
53.5869
53.5895
53.5922
53.5948
53.5974
53.6
53.6026
53.6052
53.6078
53.6104
53.6129
53.6154
53.618
53.6205
53.623
53.6255
53.628
53.6304
53.6329
53.6354
53.6378
53.6402
53.6426
53.645
53.6474
53.6498
53.6522
53.6545
53.6569
53.6592
53.6615
53.6638
53.6661
53.6684
53.6706
53.6729
53.6751
53.6774
53.6796
53.6818
53.684
53.6861
53.6883
53.6905
53.6926
53.6947
53.6968
53.6989
53.701
53.7031
53.7051
53.7072
53.7091
53.7113
53.7131
53.7153
53.7171
53.7193
53.721
53.7232
53.7249
53.727
53.7287
53.7308
53.7324
53.7345
53.7361
53.7382
53.7397
53.7418
53.7433
53.7453
53.7468
53.7488
53.7503
53.7522
53.7535
52.6296
52.6324
52.637
52.6414
52.6456
52.6496
52.6536
52.6573
52.6609
52.6644
52.6677
52.6708
52.6738
52.6767
52.6794
52.6819
52.6843
52.6866
52.6888
52.6909
52.6928
52.6946
52.6963
52.698
52.6997
52.7014
52.703
52.7045
52.706
52.7076
52.7092
52.7107
52.7123
52.714
52.7156
52.7173
52.7189
52.7206
52.7224
52.7241
52.7259
52.7277
52.7295
52.7313
52.7332
52.7351
52.737
52.7389
52.7408
52.7428
52.7448
52.7468
52.7488
52.7509
52.753
52.7551
52.7572
52.7593
52.7615
52.7636
52.7658
52.768
52.7703
52.7725
52.7748
52.7771
52.7794
52.7817
52.7841
52.7864
52.7888
52.7912
52.7937
52.7961
52.7986
52.801
52.8035
52.806
52.8086
52.8111
52.8137
52.8162
52.8188
52.8215
52.8241
52.8267
52.8294
52.8321
52.8348
52.8375
52.8402
52.8429
52.8457
52.8485
52.8512
52.854
52.8568
52.8596
52.8624
52.8653
52.8681
52.8709
52.8738
52.8767
52.8796
52.8826
52.8856
52.8886
52.8916
52.8946
52.8976
52.9007
52.9037
52.9068
52.9098
52.9129
52.916
52.919
52.9221
52.9252
52.9283
52.9314
52.9345
52.9376
52.9407
52.9439
52.9471
52.9503
52.9535
52.9567
52.9599
52.9631
52.9663
52.9696
52.9728
52.9761
52.9793
52.9826
52.986
52.9893
52.9926
52.9959
52.9993
53.0026
53.006
53.0093
53.0127
53.016
53.0194
53.0227
53.026
53.0294
53.0327
53.0361
53.0394
53.0428
53.0462
53.0496
53.053
53.0564
53.0598
53.0633
53.0667
53.0702
53.0736
53.0771
53.0805
53.084
53.0875
53.0909
53.0944
53.0978
53.1013
53.1047
53.1082
53.1116
53.1151
53.1186
53.122
53.1255
53.129
53.1324
53.1359
53.1394
53.1428
53.1463
53.1498
53.1533
53.1567
53.1602
53.1637
53.1672
53.1706
53.1741
53.1776
53.1811
53.1845
53.188
53.1915
53.1949
53.1984
53.2019
53.2054
53.2088
53.2123
53.2157
53.2192
53.2227
53.2261
53.2296
53.233
53.2365
53.2399
53.2434
53.2468
53.2503
53.2537
53.2571
53.2606
53.264
53.2674
53.2708
53.2743
53.2777
53.2811
53.2845
53.2879
53.2913
53.2947
53.2981
53.3015
53.3048
53.3082
53.3116
53.315
53.3183
53.3217
53.325
53.3284
53.3317
53.3351
53.3384
53.3417
53.3451
53.3484
53.3517
53.355
53.3583
53.3616
53.3649
53.3682
53.3714
53.3747
53.378
53.3812
53.3845
53.3877
53.391
53.3942
53.3974
53.4006
53.4039
53.4071
53.4103
53.4134
53.4166
53.4198
53.423
53.4261
53.4293
53.4324
53.4356
53.4387
53.4418
53.445
53.4481
53.4512
53.4543
53.4573
53.4604
53.4635
53.4666
53.4696
53.4726
53.4757
53.4787
53.4817
53.4847
53.4877
53.4907
53.4937
53.4967
53.4997
53.5026
53.5056
53.5085
53.5114
53.5144
53.5173
53.5202
53.5231
53.5259
53.5288
53.5317
53.5345
53.5374
53.5402
53.543
53.5459
53.5487
53.5515
53.5543
53.557
53.5598
53.5625
53.5653
53.568
53.5708
53.5735
53.5762
53.5789
53.5816
53.5842
53.5869
53.5895
53.5922
53.5948
53.5974
53.6
53.6026
53.6052
53.6078
53.6104
53.6129
53.6154
53.618
53.6205
53.623
53.6255
53.628
53.6304
53.6329
53.6354
53.6378
53.6402
53.6426
53.645
53.6474
53.6498
53.6522
53.6545
53.6569
53.6592
53.6615
53.6638
53.6661
53.6684
53.6706
53.6729
53.6751
53.6774
53.6796
53.6818
53.684
53.6861
53.6883
53.6905
53.6926
53.6947
53.6968
53.6989
53.701
53.7031
53.7051
53.7072
53.7091
53.7113
53.7131
53.7153
53.7171
53.7193
53.721
53.7232
53.7249
53.727
53.7287
53.7308
53.7324
53.7345
53.7361
53.7382
53.7397
53.7418
53.7433
53.7453
53.7468
53.7488
53.7503
53.7522
53.7536
52.6296
52.6324
52.6369
52.6414
52.6456
52.6496
52.6535
52.6573
52.6609
52.6644
52.6677
52.6708
52.6738
52.6767
52.6794
52.6819
52.6843
52.6866
52.6888
52.6909
52.6928
52.6946
52.6963
52.698
52.6997
52.7014
52.703
52.7045
52.706
52.7076
52.7092
52.7107
52.7123
52.7139
52.7156
52.7172
52.7189
52.7206
52.7224
52.7241
52.7259
52.7277
52.7295
52.7313
52.7332
52.7351
52.737
52.7389
52.7408
52.7428
52.7448
52.7468
52.7488
52.7509
52.753
52.755
52.7572
52.7593
52.7614
52.7636
52.7658
52.768
52.7703
52.7725
52.7748
52.7771
52.7794
52.7817
52.7841
52.7864
52.7888
52.7912
52.7936
52.7961
52.7985
52.801
52.8035
52.806
52.8086
52.8111
52.8137
52.8162
52.8188
52.8214
52.8241
52.8267
52.8294
52.8321
52.8347
52.8375
52.8402
52.8429
52.8457
52.8485
52.8512
52.854
52.8568
52.8596
52.8624
52.8652
52.8681
52.8709
52.8738
52.8767
52.8796
52.8826
52.8856
52.8886
52.8916
52.8946
52.8976
52.9006
52.9037
52.9068
52.9098
52.9129
52.916
52.919
52.9221
52.9252
52.9283
52.9314
52.9345
52.9376
52.9407
52.9439
52.9471
52.9503
52.9534
52.9567
52.9599
52.9631
52.9663
52.9696
52.9728
52.9761
52.9793
52.9826
52.9859
52.9893
52.9926
52.9959
52.9993
53.0026
53.006
53.0093
53.0127
53.016
53.0194
53.0227
53.026
53.0294
53.0327
53.0361
53.0394
53.0428
53.0462
53.0496
53.053
53.0564
53.0598
53.0633
53.0667
53.0702
53.0736
53.0771
53.0805
53.084
53.0875
53.0909
53.0944
53.0978
53.1013
53.1047
53.1082
53.1116
53.1151
53.1186
53.122
53.1255
53.129
53.1324
53.1359
53.1394
53.1428
53.1463
53.1498
53.1533
53.1567
53.1602
53.1637
53.1672
53.1706
53.1741
53.1776
53.1811
53.1845
53.188
53.1915
53.1949
53.1984
53.2019
53.2054
53.2088
53.2123
53.2157
53.2192
53.2227
53.2261
53.2296
53.233
53.2365
53.2399
53.2434
53.2468
53.2503
53.2537
53.2571
53.2606
53.264
53.2674
53.2708
53.2743
53.2777
53.2811
53.2845
53.2879
53.2913
53.2947
53.2981
53.3015
53.3048
53.3082
53.3116
53.315
53.3183
53.3217
53.325
53.3284
53.3317
53.3351
53.3384
53.3417
53.3451
53.3484
53.3517
53.355
53.3583
53.3616
53.3649
53.3682
53.3714
53.3747
53.378
53.3812
53.3845
53.3877
53.391
53.3942
53.3974
53.4006
53.4039
53.4071
53.4103
53.4134
53.4166
53.4198
53.423
53.4261
53.4293
53.4324
53.4356
53.4387
53.4418
53.445
53.4481
53.4512
53.4543
53.4573
53.4604
53.4635
53.4666
53.4696
53.4726
53.4757
53.4787
53.4817
53.4847
53.4877
53.4907
53.4937
53.4967
53.4997
53.5026
53.5056
53.5085
53.5114
53.5144
53.5173
53.5202
53.5231
53.5259
53.5288
53.5317
53.5345
53.5374
53.5402
53.543
53.5459
53.5487
53.5515
53.5543
53.557
53.5598
53.5625
53.5653
53.568
53.5708
53.5735
53.5762
53.5789
53.5816
53.5842
53.5869
53.5895
53.5922
53.5948
53.5974
53.6
53.6026
53.6052
53.6078
53.6104
53.6129
53.6154
53.618
53.6205
53.623
53.6255
53.628
53.6304
53.6329
53.6354
53.6378
53.6402
53.6426
53.645
53.6474
53.6498
53.6522
53.6545
53.6569
53.6592
53.6615
53.6638
53.6661
53.6684
53.6706
53.6729
53.6751
53.6774
53.6796
53.6818
53.684
53.6861
53.6883
53.6905
53.6926
53.6947
53.6968
53.6989
53.701
53.7031
53.7051
53.7072
53.7091
53.7113
53.7131
53.7153
53.7171
53.7193
53.721
53.7232
53.7249
53.727
53.7287
53.7308
53.7324
53.7345
53.7361
53.7382
53.7397
53.7418
53.7433
53.7453
53.7469
53.7488
53.7504
53.7521
53.7536
52.6296
52.6324
52.6369
52.6414
52.6456
52.6496
52.6535
52.6573
52.6609
52.6644
52.6677
52.6708
52.6738
52.6767
52.6794
52.6819
52.6843
52.6866
52.6888
52.6909
52.6928
52.6946
52.6963
52.698
52.6997
52.7014
52.7029
52.7045
52.706
52.7076
52.7091
52.7107
52.7123
52.7139
52.7156
52.7172
52.7189
52.7206
52.7224
52.7241
52.7259
52.7277
52.7295
52.7313
52.7332
52.7351
52.737
52.7389
52.7408
52.7428
52.7448
52.7468
52.7488
52.7509
52.7529
52.755
52.7572
52.7593
52.7614
52.7636
52.7658
52.768
52.7703
52.7725
52.7748
52.7771
52.7794
52.7817
52.7841
52.7864
52.7888
52.7912
52.7936
52.7961
52.7985
52.801
52.8035
52.806
52.8085
52.8111
52.8137
52.8162
52.8188
52.8214
52.8241
52.8267
52.8294
52.8321
52.8347
52.8374
52.8402
52.8429
52.8457
52.8485
52.8512
52.854
52.8568
52.8596
52.8624
52.8652
52.8681
52.8709
52.8738
52.8767
52.8796
52.8826
52.8856
52.8885
52.8916
52.8946
52.8976
52.9006
52.9037
52.9068
52.9098
52.9129
52.916
52.919
52.9221
52.9252
52.9283
52.9314
52.9345
52.9376
52.9407
52.9439
52.9471
52.9502
52.9534
52.9567
52.9599
52.9631
52.9663
52.9696
52.9728
52.9761
52.9793
52.9826
52.9859
52.9893
52.9926
52.9959
52.9993
53.0026
53.006
53.0093
53.0127
53.016
53.0194
53.0227
53.026
53.0294
53.0327
53.0361
53.0394
53.0428
53.0462
53.0496
53.053
53.0564
53.0598
53.0633
53.0667
53.0702
53.0736
53.0771
53.0805
53.084
53.0875
53.0909
53.0944
53.0978
53.1013
53.1047
53.1082
53.1116
53.1151
53.1186
53.122
53.1255
53.129
53.1324
53.1359
53.1394
53.1428
53.1463
53.1498
53.1533
53.1567
53.1602
53.1637
53.1672
53.1706
53.1741
53.1776
53.1811
53.1845
53.188
53.1915
53.1949
53.1984
53.2019
53.2054
53.2088
53.2123
53.2157
53.2192
53.2227
53.2261
53.2296
53.233
53.2365
53.2399
53.2434
53.2468
53.2503
53.2537
53.2571
53.2606
53.264
53.2674
53.2708
53.2743
53.2777
53.2811
53.2845
53.2879
53.2913
53.2947
53.2981
53.3015
53.3048
53.3082
53.3116
53.315
53.3183
53.3217
53.325
53.3284
53.3317
53.3351
53.3384
53.3417
53.3451
53.3484
53.3517
53.355
53.3583
53.3616
53.3649
53.3682
53.3714
53.3747
53.378
53.3812
53.3845
53.3877
53.391
53.3942
53.3974
53.4006
53.4039
53.4071
53.4103
53.4134
53.4166
53.4198
53.423
53.4261
53.4293
53.4324
53.4356
53.4387
53.4418
53.445
53.4481
53.4512
53.4543
53.4573
53.4604
53.4635
53.4666
53.4696
53.4726
53.4757
53.4787
53.4817
53.4847
53.4877
53.4907
53.4937
53.4967
53.4997
53.5026
53.5056
53.5085
53.5114
53.5144
53.5173
53.5202
53.5231
53.5259
53.5288
53.5317
53.5345
53.5374
53.5402
53.543
53.5459
53.5487
53.5515
53.5543
53.557
53.5598
53.5625
53.5653
53.568
53.5708
53.5735
53.5762
53.5789
53.5816
53.5842
53.5869
53.5895
53.5922
53.5948
53.5974
53.6
53.6026
53.6052
53.6078
53.6104
53.6129
53.6154
53.618
53.6205
53.623
53.6255
53.628
53.6304
53.6329
53.6354
53.6378
53.6402
53.6426
53.645
53.6474
53.6498
53.6522
53.6545
53.6569
53.6592
53.6615
53.6638
53.6661
53.6684
53.6706
53.6729
53.6751
53.6774
53.6796
53.6818
53.6839
53.6861
53.6883
53.6905
53.6926
53.6947
53.6968
53.699
53.7009
53.7031
53.7051
53.7072
53.7091
53.7113
53.7131
53.7153
53.7171
53.7193
53.721
53.7232
53.7249
53.727
53.7287
53.7308
53.7324
53.7345
53.7361
53.7382
53.7397
53.7418
53.7433
53.7453
53.7469
53.7488
53.7503
53.7522
53.7537
52.6296
52.6324
52.6369
52.6414
52.6456
52.6496
52.6535
52.6573
52.6609
52.6644
52.6677
52.6708
52.6738
52.6767
52.6794
52.6819
52.6843
52.6866
52.6888
52.6909
52.6928
52.6946
52.6963
52.698
52.6997
52.7014
52.7029
52.7045
52.706
52.7076
52.7091
52.7107
52.7123
52.7139
52.7156
52.7172
52.7189
52.7206
52.7224
52.7241
52.7259
52.7277
52.7295
52.7313
52.7332
52.7351
52.737
52.7389
52.7408
52.7428
52.7448
52.7468
52.7488
52.7509
52.7529
52.755
52.7572
52.7593
52.7614
52.7636
52.7658
52.768
52.7703
52.7725
52.7748
52.7771
52.7794
52.7817
52.7841
52.7864
52.7888
52.7912
52.7936
52.7961
52.7985
52.801
52.8035
52.806
52.8085
52.8111
52.8137
52.8162
52.8188
52.8214
52.8241
52.8267
52.8294
52.8321
52.8347
52.8374
52.8402
52.8429
52.8457
52.8485
52.8512
52.854
52.8568
52.8596
52.8624
52.8652
52.8681
52.8709
52.8738
52.8767
52.8796
52.8826
52.8856
52.8885
52.8916
52.8946
52.8976
52.9006
52.9037
52.9068
52.9098
52.9129
52.916
52.919
52.9221
52.9252
52.9283
52.9314
52.9345
52.9376
52.9407
52.9439
52.9471
52.9502
52.9534
52.9567
52.9599
52.9631
52.9663
52.9696
52.9728
52.9761
52.9793
52.9826
52.9859
52.9893
52.9926
52.9959
52.9993
53.0026
53.006
53.0093
53.0127
53.016
53.0194
53.0227
53.026
53.0294
53.0327
53.0361
53.0394
53.0428
53.0462
53.0496
53.053
53.0564
53.0598
53.0633
53.0667
53.0702
53.0736
53.0771
53.0805
53.084
53.0875
53.0909
53.0944
53.0978
53.1013
53.1047
53.1082
53.1116
53.1151
53.1186
53.122
53.1255
53.129
53.1324
53.1359
53.1394
53.1428
53.1463
53.1498
53.1533
53.1567
53.1602
53.1637
53.1672
53.1706
53.1741
53.1776
53.1811
53.1845
53.188
53.1915
53.1949
53.1984
53.2019
53.2054
53.2088
53.2123
53.2157
53.2192
53.2227
53.2261
53.2296
53.233
53.2365
53.2399
53.2434
53.2468
53.2503
53.2537
53.2571
53.2606
53.264
53.2674
53.2708
53.2743
53.2777
53.2811
53.2845
53.2879
53.2913
53.2947
53.2981
53.3015
53.3048
53.3082
53.3116
53.315
53.3183
53.3217
53.325
53.3284
53.3317
53.3351
53.3384
53.3417
53.3451
53.3484
53.3517
53.355
53.3583
53.3616
53.3649
53.3682
53.3714
53.3747
53.378
53.3812
53.3845
53.3877
53.391
53.3942
53.3974
53.4006
53.4039
53.4071
53.4103
53.4134
53.4166
53.4198
53.423
53.4261
53.4293
53.4324
53.4356
53.4387
53.4418
53.445
53.4481
53.4512
53.4543
53.4573
53.4604
53.4635
53.4666
53.4696
53.4726
53.4757
53.4787
53.4817
53.4847
53.4877
53.4907
53.4937
53.4967
53.4997
53.5026
53.5056
53.5085
53.5114
53.5144
53.5173
53.5202
53.5231
53.5259
53.5288
53.5317
53.5345
53.5374
53.5402
53.543
53.5459
53.5487
53.5515
53.5543
53.557
53.5598
53.5625
53.5653
53.568
53.5708
53.5735
53.5762
53.5789
53.5816
53.5842
53.5869
53.5895
53.5922
53.5948
53.5974
53.6
53.6026
53.6052
53.6078
53.6104
53.6129
53.6154
53.618
53.6205
53.623
53.6255
53.628
53.6304
53.6329
53.6354
53.6378
53.6402
53.6426
53.645
53.6474
53.6498
53.6522
53.6545
53.6569
53.6592
53.6615
53.6638
53.6661
53.6684
53.6706
53.6729
53.6751
53.6774
53.6796
53.6818
53.684
53.6861
53.6883
53.6904
53.6926
53.6947
53.6968
53.6989
53.701
53.7031
53.7051
53.7072
53.7092
53.7113
53.7132
53.7152
53.7172
53.7191
53.7212
53.723
53.725
53.7269
53.7288
53.7307
53.7325
53.7344
53.7362
53.738
53.74
53.7415
53.7436
53.7451
53.7471
53.7486
53.7505
53.7521
53.7539
52.6296
52.6324
52.6369
52.6414
52.6456
52.6496
52.6535
52.6573
52.6609
52.6644
52.6677
52.6708
52.6738
52.6767
52.6794
52.6819
52.6843
52.6866
52.6888
52.6909
52.6928
52.6946
52.6963
52.698
52.6997
52.7014
52.703
52.7045
52.706
52.7076
52.7092
52.7107
52.7123
52.7139
52.7156
52.7172
52.7189
52.7206
52.7224
52.7241
52.7259
52.7277
52.7295
52.7313
52.7332
52.7351
52.737
52.7389
52.7408
52.7428
52.7448
52.7468
52.7488
52.7509
52.753
52.755
52.7572
52.7593
52.7614
52.7636
52.7658
52.768
52.7703
52.7725
52.7748
52.7771
52.7794
52.7817
52.7841
52.7864
52.7888
52.7912
52.7936
52.7961
52.7985
52.801
52.8035
52.806
52.8086
52.8111
52.8137
52.8162
52.8188
52.8214
52.8241
52.8267
52.8294
52.8321
52.8347
52.8375
52.8402
52.8429
52.8457
52.8485
52.8512
52.854
52.8568
52.8596
52.8624
52.8652
52.8681
52.8709
52.8738
52.8767
52.8796
52.8826
52.8856
52.8886
52.8916
52.8946
52.8976
52.9006
52.9037
52.9068
52.9098
52.9129
52.916
52.919
52.9221
52.9252
52.9283
52.9314
52.9345
52.9376
52.9407
52.9439
52.9471
52.9503
52.9534
52.9567
52.9599
52.9631
52.9663
52.9696
52.9728
52.9761
52.9793
52.9826
52.9859
52.9893
52.9926
52.9959
52.9993
53.0026
53.006
53.0093
53.0127
53.016
53.0194
53.0227
53.026
53.0294
53.0327
53.0361
53.0394
53.0428
53.0462
53.0496
53.053
53.0564
53.0598
53.0633
53.0667
53.0702
53.0736
53.0771
53.0805
53.084
53.0875
53.0909
53.0944
53.0978
53.1013
53.1047
53.1082
53.1116
53.1151
53.1186
53.122
53.1255
53.129
53.1324
53.1359
53.1394
53.1428
53.1463
53.1498
53.1533
53.1567
53.1602
53.1637
53.1672
53.1706
53.1741
53.1776
53.1811
53.1845
53.188
53.1915
53.1949
53.1984
53.2019
53.2054
53.2088
53.2123
53.2157
53.2192
53.2227
53.2261
53.2296
53.233
53.2365
53.2399
53.2434
53.2468
53.2503
53.2537
53.2571
53.2606
53.264
53.2674
53.2708
53.2743
53.2777
53.2811
53.2845
53.2879
53.2913
53.2947
53.2981
53.3015
53.3048
53.3082
53.3116
53.315
53.3183
53.3217
53.325
53.3284
53.3317
53.3351
53.3384
53.3417
53.3451
53.3484
53.3517
53.355
53.3583
53.3616
53.3649
53.3682
53.3714
53.3747
53.378
53.3812
53.3845
53.3877
53.391
53.3942
53.3974
53.4006
53.4039
53.4071
53.4103
53.4134
53.4166
53.4198
53.423
53.4261
53.4293
53.4324
53.4356
53.4387
53.4418
53.445
53.4481
53.4512
53.4543
53.4573
53.4604
53.4635
53.4666
53.4696
53.4726
53.4757
53.4787
53.4817
53.4847
53.4877
53.4907
53.4937
53.4967
53.4997
53.5026
53.5056
53.5085
53.5114
53.5144
53.5173
53.5202
53.5231
53.5259
53.5288
53.5317
53.5345
53.5374
53.5402
53.543
53.5459
53.5487
53.5515
53.5543
53.557
53.5598
53.5625
53.5653
53.568
53.5708
53.5735
53.5762
53.5789
53.5816
53.5842
53.5869
53.5895
53.5922
53.5948
53.5974
53.6
53.6026
53.6052
53.6078
53.6104
53.6129
53.6154
53.618
53.6205
53.623
53.6255
53.628
53.6304
53.6329
53.6354
53.6378
53.6402
53.6426
53.645
53.6474
53.6498
53.6522
53.6545
53.6569
53.6592
53.6615
53.6638
53.6661
53.6684
53.6706
53.6729
53.6751
53.6774
53.6796
53.6818
53.684
53.6861
53.6883
53.6904
53.6926
53.6947
53.6968
53.6989
53.701
53.7031
53.7051
53.7071
53.7093
53.7112
53.7133
53.7152
53.7172
53.7192
53.7211
53.7231
53.7249
53.7269
53.7287
53.7306
53.7326
53.7342
53.7363
53.7379
53.74
53.7415
53.7436
53.7451
53.747
53.7487
53.7506
53.7522
53.754
52.6296
52.6324
52.637
52.6414
52.6456
52.6496
52.6536
52.6573
52.6609
52.6644
52.6677
52.6708
52.6738
52.6767
52.6794
52.6819
52.6843
52.6866
52.6888
52.6909
52.6928
52.6946
52.6963
52.698
52.6997
52.7014
52.703
52.7045
52.706
52.7076
52.7092
52.7107
52.7123
52.714
52.7156
52.7173
52.7189
52.7206
52.7224
52.7241
52.7259
52.7277
52.7295
52.7313
52.7332
52.7351
52.737
52.7389
52.7408
52.7428
52.7448
52.7468
52.7488
52.7509
52.753
52.7551
52.7572
52.7593
52.7615
52.7636
52.7658
52.768
52.7703
52.7725
52.7748
52.7771
52.7794
52.7817
52.7841
52.7864
52.7888
52.7912
52.7937
52.7961
52.7986
52.801
52.8035
52.806
52.8086
52.8111
52.8137
52.8162
52.8188
52.8215
52.8241
52.8267
52.8294
52.8321
52.8348
52.8375
52.8402
52.8429
52.8457
52.8485
52.8512
52.854
52.8568
52.8596
52.8624
52.8653
52.8681
52.8709
52.8738
52.8767
52.8796
52.8826
52.8856
52.8886
52.8916
52.8946
52.8976
52.9007
52.9037
52.9068
52.9098
52.9129
52.916
52.919
52.9221
52.9252
52.9283
52.9314
52.9345
52.9376
52.9407
52.9439
52.9471
52.9503
52.9535
52.9567
52.9599
52.9631
52.9663
52.9696
52.9728
52.9761
52.9793
52.9826
52.986
52.9893
52.9926
52.9959
52.9993
53.0026
53.006
53.0093
53.0127
53.016
53.0194
53.0227
53.026
53.0294
53.0327
53.0361
53.0394
53.0428
53.0462
53.0496
53.053
53.0564
53.0598
53.0633
53.0667
53.0702
53.0736
53.0771
53.0805
53.084
53.0875
53.0909
53.0944
53.0978
53.1013
53.1047
53.1082
53.1116
53.1151
53.1186
53.122
53.1255
53.129
53.1324
53.1359
53.1394
53.1428
53.1463
53.1498
53.1533
53.1567
53.1602
53.1637
53.1672
53.1706
53.1741
53.1776
53.1811
53.1845
53.188
53.1915
53.1949
53.1984
53.2019
53.2054
53.2088
53.2123
53.2157
53.2192
53.2227
53.2261
53.2296
53.233
53.2365
53.2399
53.2434
53.2468
53.2503
53.2537
53.2571
53.2606
53.264
53.2674
53.2708
53.2743
53.2777
53.2811
53.2845
53.2879
53.2913
53.2947
53.2981
53.3015
53.3048
53.3082
53.3116
53.315
53.3183
53.3217
53.325
53.3284
53.3317
53.3351
53.3384
53.3417
53.3451
53.3484
53.3517
53.355
53.3583
53.3616
53.3649
53.3682
53.3714
53.3747
53.378
53.3812
53.3845
53.3877
53.391
53.3942
53.3974
53.4006
53.4039
53.4071
53.4103
53.4134
53.4166
53.4198
53.423
53.4261
53.4293
53.4324
53.4356
53.4387
53.4418
53.445
53.4481
53.4512
53.4543
53.4573
53.4604
53.4635
53.4666
53.4696
53.4726
53.4757
53.4787
53.4817
53.4847
53.4877
53.4907
53.4937
53.4967
53.4997
53.5026
53.5056
53.5085
53.5114
53.5144
53.5173
53.5202
53.5231
53.5259
53.5288
53.5317
53.5345
53.5374
53.5402
53.543
53.5459
53.5487
53.5515
53.5543
53.557
53.5598
53.5625
53.5653
53.568
53.5708
53.5735
53.5762
53.5789
53.5816
53.5842
53.5869
53.5895
53.5922
53.5948
53.5974
53.6
53.6026
53.6052
53.6078
53.6104
53.6129
53.6154
53.618
53.6205
53.623
53.6255
53.628
53.6304
53.6329
53.6354
53.6378
53.6402
53.6426
53.645
53.6474
53.6498
53.6522
53.6545
53.6569
53.6592
53.6615
53.6638
53.6661
53.6684
53.6706
53.6729
53.6751
53.6774
53.6796
53.6818
53.684
53.6861
53.6883
53.6904
53.6926
53.6947
53.6968
53.6989
53.701
53.7031
53.7051
53.7071
53.7093
53.7111
53.7133
53.7151
53.7173
53.7191
53.7212
53.723
53.7251
53.7268
53.7289
53.7305
53.7326
53.7343
53.7363
53.7379
53.74
53.7415
53.7436
53.7451
53.7471
53.7486
53.7506
53.7521
53.7541
52.6296
52.6324
52.637
52.6414
52.6456
52.6496
52.6536
52.6573
52.6609
52.6644
52.6677
52.6709
52.6738
52.6767
52.6794
52.6819
52.6843
52.6866
52.6888
52.6909
52.6928
52.6946
52.6963
52.698
52.6997
52.7014
52.703
52.7045
52.7061
52.7076
52.7092
52.7107
52.7123
52.714
52.7156
52.7173
52.7189
52.7206
52.7224
52.7241
52.7259
52.7277
52.7295
52.7313
52.7332
52.7351
52.737
52.7389
52.7408
52.7428
52.7448
52.7468
52.7488
52.7509
52.753
52.7551
52.7572
52.7593
52.7615
52.7636
52.7658
52.768
52.7703
52.7725
52.7748
52.7771
52.7794
52.7817
52.7841
52.7864
52.7888
52.7912
52.7937
52.7961
52.7986
52.801
52.8035
52.806
52.8086
52.8111
52.8137
52.8162
52.8188
52.8215
52.8241
52.8267
52.8294
52.8321
52.8348
52.8375
52.8402
52.8429
52.8457
52.8485
52.8512
52.854
52.8568
52.8596
52.8624
52.8653
52.8681
52.871
52.8738
52.8767
52.8796
52.8826
52.8856
52.8886
52.8916
52.8946
52.8976
52.9007
52.9037
52.9068
52.9098
52.9129
52.916
52.919
52.9221
52.9252
52.9283
52.9314
52.9345
52.9376
52.9407
52.9439
52.9471
52.9503
52.9535
52.9567
52.9599
52.9631
52.9663
52.9696
52.9728
52.9761
52.9793
52.9826
52.986
52.9893
52.9926
52.9959
52.9993
53.0026
53.006
53.0093
53.0127
53.016
53.0194
53.0227
53.026
53.0294
53.0327
53.0361
53.0394
53.0428
53.0462
53.0496
53.053
53.0564
53.0598
53.0633
53.0667
53.0702
53.0736
53.0771
53.0805
53.084
53.0875
53.0909
53.0944
53.0978
53.1013
53.1047
53.1082
53.1116
53.1151
53.1186
53.122
53.1255
53.129
53.1324
53.1359
53.1394
53.1428
53.1463
53.1498
53.1533
53.1567
53.1602
53.1637
53.1672
53.1706
53.1741
53.1776
53.1811
53.1845
53.188
53.1915
53.1949
53.1984
53.2019
53.2054
53.2088
53.2123
53.2157
53.2192
53.2227
53.2261
53.2296
53.233
53.2365
53.2399
53.2434
53.2468
53.2503
53.2537
53.2571
53.2606
53.264
53.2674
53.2708
53.2743
53.2777
53.2811
53.2845
53.2879
53.2913
53.2947
53.2981
53.3015
53.3048
53.3082
53.3116
53.315
53.3183
53.3217
53.325
53.3284
53.3317
53.3351
53.3384
53.3417
53.3451
53.3484
53.3517
53.355
53.3583
53.3616
53.3649
53.3682
53.3714
53.3747
53.378
53.3812
53.3845
53.3877
53.391
53.3942
53.3974
53.4006
53.4039
53.4071
53.4103
53.4134
53.4166
53.4198
53.423
53.4261
53.4293
53.4324
53.4356
53.4387
53.4418
53.445
53.4481
53.4512
53.4543
53.4573
53.4604
53.4635
53.4665
53.4696
53.4726
53.4757
53.4787
53.4817
53.4847
53.4877
53.4907
53.4937
53.4967
53.4997
53.5026
53.5056
53.5085
53.5114
53.5144
53.5173
53.5202
53.5231
53.5259
53.5288
53.5317
53.5345
53.5374
53.5402
53.543
53.5459
53.5487
53.5515
53.5543
53.557
53.5598
53.5625
53.5653
53.568
53.5708
53.5735
53.5762
53.5789
53.5816
53.5842
53.5869
53.5895
53.5922
53.5948
53.5974
53.6
53.6026
53.6052
53.6078
53.6104
53.6129
53.6154
53.618
53.6205
53.623
53.6255
53.628
53.6304
53.6329
53.6354
53.6378
53.6402
53.6426
53.645
53.6474
53.6498
53.6522
53.6545
53.6569
53.6592
53.6615
53.6638
53.6661
53.6684
53.6706
53.6729
53.6751
53.6773
53.6796
53.6818
53.684
53.6861
53.6883
53.6904
53.6926
53.6947
53.6968
53.6989
53.701
53.7031
53.7051
53.7071
53.7093
53.7111
53.7133
53.7151
53.7173
53.719
53.7212
53.7229
53.7251
53.7268
53.7289
53.7305
53.7326
53.7343
53.7363
53.7379
53.74
53.7415
53.7436
53.7451
53.7471
53.7486
53.7506
53.752
53.7541
52.629
52.6318
52.6364
52.6408
52.645
52.649
52.653
52.6567
52.6603
52.6638
52.6671
52.6703
52.6732
52.6761
52.6788
52.6814
52.6838
52.686
52.6882
52.6903
52.6922
52.694
52.6958
52.6974
52.6991
52.7008
52.7024
52.7039
52.7055
52.707
52.7086
52.7102
52.7118
52.7134
52.715
52.7167
52.7184
52.7201
52.7218
52.7236
52.7253
52.7271
52.7289
52.7308
52.7326
52.7345
52.7364
52.7384
52.7403
52.7423
52.7443
52.7463
52.7483
52.7504
52.7524
52.7545
52.7566
52.7588
52.7609
52.7631
52.7653
52.7675
52.7697
52.772
52.7743
52.7766
52.7789
52.7812
52.7836
52.7859
52.7883
52.7907
52.7931
52.7956
52.798
52.8005
52.803
52.8055
52.808
52.8106
52.8132
52.8157
52.8183
52.821
52.8236
52.8262
52.8289
52.8316
52.8343
52.837
52.8397
52.8424
52.8452
52.848