/*--------------------------------*- C++ -*----------------------------------*\
| =========                 |                                                 |
| \\      /  F ield         | OpenFOAM: The Open Source CFD Toolbox           |
|  \\    /   O peration     | Version:  3.0.x                                 |
|   \\  /    A nd           | Web:      www.OpenFOAM.org                      |
|    \\/     M anipulation  |                                                 |
\*---------------------------------------------------------------------------*/
FoamFile
{
    version     2.0;
    format      ascii;
    class       volScalarField;
    location    "0.56";
    object      T;
}
// * * * * * * * * * * * * * * * * * * * * * * * * * * * * * * * * * * * * * //

dimensions      [0 0 0 1 0 0 0];

internalField   nonuniform List<scalar> 
27600
(
780.324
780.294
780.243
780.195
780.149
780.105
780.064
780.025
779.99
779.957
779.927
779.899
779.875
779.853
779.833
779.816
779.802
779.79
779.78
779.772
779.767
779.764
779.762
779.762
779.762
779.762
779.764
779.768
779.771
779.775
779.78
779.784
779.789
779.793
779.798
779.803
779.808
779.813
779.818
779.823
779.828
779.834
779.839
779.845
779.85
779.856
779.861
779.867
779.873
779.879
779.884
779.89
779.896
779.902
779.909
779.915
779.921
779.927
779.934
779.94
779.947
779.953
779.96
779.966
779.973
779.98
779.987
779.994
780.001
780.008
780.015
780.022
780.029
780.036
780.043
780.051
780.058
780.065
780.073
780.08
780.088
780.096
780.103
780.111
780.119
780.127
780.135
780.143
780.151
780.159
780.167
780.175
780.183
780.191
780.199
780.208
780.216
780.225
780.234
780.243
780.252
780.261
780.27
780.279
780.287
780.296
780.304
780.312
780.321
780.329
780.338
780.346
780.355
780.363
780.372
780.381
780.39
780.4
780.409
780.419
780.428
780.438
780.448
780.457
780.467
780.476
780.486
780.495
780.504
780.514
780.523
780.533
780.542
780.552
780.561
780.571
780.58
780.589
780.599
780.608
780.617
780.626
780.636
780.645
780.654
780.664
780.674
780.683
780.694
780.704
780.714
780.724
780.735
780.745
780.755
780.766
780.776
780.786
780.795
780.805
780.815
780.824
780.834
780.844
780.853
780.863
780.873
780.883
780.893
780.903
780.913
780.923
780.933
780.943
780.953
780.963
780.974
780.984
780.994
781.004
781.014
781.025
781.035
781.045
781.055
781.066
781.076
781.086
781.096
781.106
781.117
781.127
781.137
781.147
781.158
781.168
781.178
781.188
781.199
781.209
781.219
781.229
781.24
781.25
781.26
781.27
781.28
781.29
781.301
781.311
781.321
781.331
781.341
781.351
781.362
781.372
781.382
781.392
781.402
781.412
781.422
781.432
781.442
781.452
781.462
781.472
781.482
781.492
781.502
781.512
781.522
781.532
781.542
781.552
781.562
781.572
781.582
781.592
781.602
781.611
781.621
781.631
781.641
781.65
781.66
781.67
781.68
781.689
781.699
781.709
781.718
781.728
781.738
781.747
781.757
781.766
781.776
781.785
781.795
781.804
781.814
781.823
781.833
781.842
781.851
781.861
781.87
781.879
781.889
781.898
781.907
781.916
781.926
781.935
781.944
781.953
781.962
781.971
781.98
781.989
781.998
782.007
782.016
782.025
782.034
782.043
782.052
782.061
782.069
782.078
782.087
782.096
782.104
782.113
782.122
782.13
782.139
782.147
782.156
782.164
782.173
782.181
782.19
782.198
782.206
782.215
782.223
782.231
782.24
782.248
782.256
782.264
782.272
782.28
782.289
782.297
782.305
782.313
782.321
782.328
782.336
782.344
782.352
782.36
782.368
782.375
782.383
782.391
782.398
782.406
782.413
782.421
782.428
782.436
782.443
782.451
782.458
782.465
782.473
782.48
782.487
782.494
782.502
782.509
782.516
782.523
782.53
782.537
782.544
782.551
782.558
782.565
782.571
782.578
782.585
782.592
782.598
782.605
782.611
782.618
782.624
782.631
782.637
782.644
782.65
782.657
782.663
782.669
782.675
782.682
782.687
782.694
782.699
782.706
782.711
782.719
782.722
782.731
782.734
782.742
782.745
782.754
782.756
782.765
782.767
782.777
782.779
782.788
782.789
782.798
782.8
782.809
782.811
782.819
782.821
782.83
782.831
782.84
782.842
782.852
780.315
780.285
780.234
780.186
780.14
780.096
780.055
780.016
779.981
779.948
779.918
779.89
779.866
779.844
779.824
779.808
779.793
779.782
779.772
779.764
779.758
779.755
779.754
779.753
779.753
779.754
779.756
779.759
779.763
779.767
779.771
779.776
779.78
779.785
779.79
779.795
779.8
779.805
779.81
779.815
779.82
779.825
779.831
779.836
779.842
779.847
779.853
779.859
779.865
779.87
779.876
779.882
779.888
779.894
779.901
779.907
779.913
779.919
779.926
779.932
779.939
779.945
779.952
779.959
779.965
779.972
779.979
779.986
779.993
780
780.007
780.014
780.021
780.028
780.036
780.043
780.05
780.058
780.065
780.073
780.081
780.088
780.096
780.104
780.111
780.119
780.127
780.135
780.143
780.151
780.159
780.167
780.175
780.184
780.192
780.2
780.209
780.218
780.227
780.236
780.245
780.254
780.263
780.272
780.28
780.289
780.297
780.306
780.314
780.322
780.331
780.339
780.348
780.356
780.365
780.374
780.383
780.393
780.402
780.412
780.421
780.431
780.441
780.45
780.46
780.469
780.479
780.488
780.498
780.507
780.517
780.526
780.536
780.545
780.555
780.565
780.574
780.583
780.593
780.602
780.611
780.62
780.63
780.639
780.648
780.658
780.668
780.677
780.687
780.697
780.708
780.718
780.728
780.739
780.749
780.759
780.77
780.78
780.79
780.799
780.809
780.819
780.828
780.838
780.848
780.858
780.867
780.877
780.887
780.897
780.907
780.917
780.927
780.938
780.948
780.958
780.968
780.978
780.989
780.999
781.009
781.019
781.029
781.04
781.05
781.06
781.07
781.081
781.091
781.101
781.111
781.122
781.132
781.142
781.152
781.163
781.173
781.183
781.193
781.203
781.214
781.224
781.234
781.244
781.255
781.265
781.275
781.285
781.295
781.305
781.316
781.326
781.336
781.346
781.356
781.366
781.376
781.387
781.397
781.407
781.417
781.427
781.437
781.447
781.457
781.467
781.477
781.487
781.497
781.507
781.517
781.527
781.537
781.547
781.557
781.567
781.576
781.586
781.596
781.606
781.616
781.626
781.635
781.645
781.655
781.665
781.674
781.684
781.694
781.703
781.713
781.723
781.732
781.742
781.751
781.761
781.771
781.78
781.79
781.799
781.809
781.818
781.827
781.837
781.846
781.855
781.865
781.874
781.883
781.893
781.902
781.911
781.92
781.929
781.939
781.948
781.957
781.966
781.975
781.984
781.993
782.002
782.011
782.02
782.029
782.038
782.046
782.055
782.064
782.073
782.082
782.09
782.099
782.108
782.116
782.125
782.134
782.142
782.151
782.159
782.168
782.176
782.185
782.193
782.201
782.21
782.218
782.226
782.234
782.243
782.251
782.259
782.267
782.275
782.283
782.291
782.299
782.307
782.315
782.323
782.331
782.339
782.347
782.355
782.362
782.37
782.378
782.386
782.393
782.401
782.408
782.416
782.423
782.431
782.438
782.446
782.453
782.46
782.468
782.475
782.482
782.489
782.497
782.504
782.511
782.518
782.525
782.532
782.539
782.546
782.553
782.559
782.566
782.573
782.58
782.586
782.593
782.6
782.606
782.613
782.619
782.626
782.632
782.639
782.645
782.652
782.657
782.664
782.67
782.677
782.682
782.689
782.694
782.701
782.706
782.714
782.717
782.726
782.729
782.737
782.74
782.749
782.751
782.76
782.762
782.772
782.774
782.782
782.784
782.793
782.795
782.804
782.806
782.814
782.816
782.825
782.826
782.835
782.837
782.845
780.315
780.285
780.234
780.186
780.14
780.096
780.055
780.016
779.981
779.948
779.918
779.891
779.866
779.844
779.824
779.808
779.794
779.782
779.772
779.764
779.758
779.755
779.754
779.753
779.753
779.754
779.756
779.759
779.763
779.767
779.771
779.776
779.78
779.785
779.79
779.795
779.8
779.805
779.81
779.815
779.82
779.826
779.831
779.836
779.842
779.847
779.853
779.859
779.865
779.87
779.876
779.882
779.888
779.894
779.901
779.907
779.913
779.919
779.926
779.932
779.939
779.945
779.952
779.959
779.965
779.972
779.979
779.986
779.993
780
780.007
780.014
780.021
780.028
780.036
780.043
780.05
780.058
780.065
780.073
780.081
780.088
780.096
780.104
780.111
780.119
780.127
780.135
780.143
780.151
780.159
780.167
780.175
780.184
780.192
780.2
780.209
780.218
780.227
780.236
780.245
780.254
780.263
780.272
780.28
780.289
780.297
780.306
780.314
780.322
780.331
780.339
780.348
780.356
780.365
780.374
780.383
780.393
780.402
780.412
780.421
780.431
780.441
780.45
780.46
780.469
780.479
780.488
780.498
780.507
780.517
780.526
780.536
780.545
780.555
780.565
780.574
780.583
780.593
780.602
780.611
780.62
780.63
780.639
780.648
780.658
780.667
780.677
780.687
780.697
780.708
780.718
780.728
780.739
780.749
780.759
780.77
780.78
780.79
780.799
780.809
780.819
780.828
780.838
780.848
780.858
780.867
780.877
780.887
780.897
780.907
780.917
780.927
780.938
780.948
780.958
780.968
780.978
780.989
780.999
781.009
781.019
781.029
781.04
781.05
781.06
781.07
781.081
781.091
781.101
781.111
781.122
781.132
781.142
781.152
781.163
781.173
781.183
781.193
781.203
781.214
781.224
781.234
781.244
781.255
781.265
781.275
781.285
781.295
781.305
781.316
781.326
781.336
781.346
781.356
781.366
781.376
781.387
781.397
781.407
781.417
781.427
781.437
781.447
781.457
781.467
781.477
781.487
781.497
781.507
781.517
781.527
781.537
781.547
781.557
781.567
781.576
781.586
781.596
781.606
781.616
781.626
781.635
781.645
781.655
781.665
781.674
781.684
781.694
781.703
781.713
781.723
781.732
781.742
781.751
781.761
781.771
781.78
781.79
781.799
781.808
781.818
781.827
781.837
781.846
781.855
781.865
781.874
781.883
781.893
781.902
781.911
781.92
781.929
781.939
781.948
781.957
781.966
781.975
781.984
781.993
782.002
782.011
782.02
782.029
782.038
782.046
782.055
782.064
782.073
782.082
782.09
782.099
782.108
782.116
782.125
782.134
782.142
782.151
782.159
782.168
782.176
782.185
782.193
782.201
782.21
782.218
782.226
782.234
782.243
782.251
782.259
782.267
782.275
782.283
782.291
782.299
782.307
782.315
782.323
782.331
782.339
782.347
782.355
782.362
782.37
782.378
782.386
782.393
782.401
782.408
782.416
782.423
782.431
782.438
782.446
782.453
782.46
782.468
782.475
782.482
782.489
782.497
782.504
782.511
782.518
782.525
782.532
782.539
782.546
782.553
782.559
782.566
782.573
782.58
782.586
782.593
782.6
782.606
782.613
782.619
782.626
782.632
782.639
782.645
782.652
782.657
782.664
782.67
782.677
782.682
782.689
782.694
782.701
782.706
782.714
782.717
782.726
782.729
782.737
782.74
782.749
782.751
782.76
782.762
782.772
782.774
782.782
782.784
782.793
782.795
782.804
782.806
782.814
782.816
782.825
782.826
782.835
782.837
782.844
780.316
780.285
780.235
780.186
780.14
780.096
780.055
780.017
779.981
779.948
779.918
779.891
779.866
779.844
779.825
779.808
779.794
779.782
779.772
779.764
779.758
779.755
779.754
779.753
779.753
779.754
779.756
779.76
779.763
779.767
779.771
779.776
779.78
779.785
779.79
779.795
779.8
779.805
779.81
779.815
779.82
779.826
779.831
779.837
779.842
779.848
779.853
779.859
779.865
779.871
779.876
779.882
779.888
779.895
779.901
779.907
779.913
779.92
779.926
779.932
779.939
779.945
779.952
779.959
779.965
779.972
779.979
779.986
779.993
780
780.007
780.014
780.021
780.029
780.036
780.043
780.051
780.058
780.066
780.073
780.081
780.088
780.096
780.104
780.111
780.119
780.127
780.135
780.143
780.151
780.159
780.167
780.175
780.184
780.192
780.201
780.209
780.218
780.227
780.236
780.245
780.254
780.263
780.272
780.28
780.289
780.297
780.306
780.314
780.322
780.331
780.339
780.348
780.357
780.365
780.374
780.383
780.393
780.402
780.412
780.422
780.431
780.441
780.45
780.46
780.47
780.479
780.488
780.498
780.507
780.517
780.526
780.536
780.546
780.555
780.565
780.574
780.583
780.593
780.602
780.611
780.62
780.63
780.639
780.648
780.658
780.668
780.677
780.687
780.697
780.708
780.718
780.728
780.739
780.749
780.76
780.77
780.78
780.79
780.8
780.809
780.819
780.828
780.838
780.848
780.858
780.867
780.877
780.887
780.897
780.907
780.917
780.927
780.938
780.948
780.958
780.968
780.978
780.989
780.999
781.009
781.019
781.029
781.04
781.05
781.06
781.07
781.081
781.091
781.101
781.111
781.122
781.132
781.142
781.152
781.163
781.173
781.183
781.193
781.203
781.214
781.224
781.234
781.244
781.255
781.265
781.275
781.285
781.295
781.305
781.316
781.326
781.336
781.346
781.356
781.366
781.376
781.387
781.397
781.407
781.417
781.427
781.437
781.447
781.457
781.467
781.477
781.487
781.497
781.507
781.517
781.527
781.537
781.547
781.557
781.567
781.576
781.586
781.596
781.606
781.616
781.626
781.635
781.645
781.655
781.665
781.674
781.684
781.694
781.703
781.713
781.723
781.732
781.742
781.751
781.761
781.771
781.78
781.79
781.799
781.808
781.818
781.827
781.837
781.846
781.855
781.865
781.874
781.883
781.893
781.902
781.911
781.92
781.929
781.939
781.948
781.957
781.966
781.975
781.984
781.993
782.002
782.011
782.02
782.029
782.038
782.046
782.055
782.064
782.073
782.082
782.09
782.099
782.108
782.116
782.125
782.134
782.142
782.151
782.159
782.168
782.176
782.185
782.193
782.201
782.21
782.218
782.226
782.234
782.243
782.251
782.259
782.267
782.275
782.283
782.291
782.299
782.307
782.315
782.323
782.331
782.339
782.347
782.355
782.362
782.37
782.378
782.386
782.393
782.401
782.408
782.416
782.423
782.431
782.438
782.446
782.453
782.46
782.468
782.475
782.482
782.489
782.497
782.504
782.511
782.518
782.525
782.532
782.539
782.546
782.553
782.559
782.566
782.573
782.58
782.586
782.593
782.6
782.606
782.613
782.619
782.626
782.632
782.639
782.645
782.652
782.657
782.664
782.67
782.677
782.682
782.689
782.694
782.701
782.706
782.714
782.717
782.726
782.729
782.737
782.74
782.749
782.751
782.76
782.762
782.771
782.774
782.782
782.784
782.793
782.795
782.804
782.806
782.814
782.816
782.824
782.827
782.834
782.838
782.844
780.316
780.285
780.235
780.186
780.14
780.096
780.055
780.017
779.981
779.948
779.918
779.891
779.866
779.844
779.825
779.808
779.794
779.782
779.772
779.764
779.758
779.755
779.754
779.753
779.753
779.754
779.756
779.76
779.763
779.767
779.772
779.776
779.781
779.785
779.79
779.795
779.8
779.805
779.81
779.815
779.821
779.826
779.831
779.837
779.842
779.848
779.853
779.859
779.865
779.871
779.877
779.883
779.889
779.895
779.901
779.907
779.913
779.92
779.926
779.932
779.939
779.946
779.952
779.959
779.966
779.972
779.979
779.986
779.993
780
780.007
780.014
780.021
780.029
780.036
780.043
780.051
780.058
780.066
780.073
780.081
780.088
780.096
780.104
780.112
780.119
780.127
780.135
780.143
780.151
780.159
780.167
780.176
780.184
780.192
780.201
780.209
780.218
780.227
780.236
780.245
780.254
780.263
780.272
780.28
780.289
780.297
780.306
780.314
780.323
780.331
780.339
780.348
780.357
780.365
780.374
780.383
780.393
780.402
780.412
780.422
780.431
780.441
780.451
780.46
780.47
780.479
780.488
780.498
780.507
780.517
780.526
780.536
780.546
780.555
780.565
780.574
780.583
780.593
780.602
780.611
780.62
780.63
780.639
780.649
780.658
780.668
780.677
780.687
780.698
780.708
780.718
780.728
780.739
780.749
780.76
780.77
780.78
780.79
780.8
780.809
780.819
780.829
780.838
780.848
780.858
780.867
780.877
780.887
780.897
780.907
780.917
780.927
780.938
780.948
780.958
780.968
780.978
780.989
780.999
781.009
781.019
781.029
781.04
781.05
781.06
781.07
781.081
781.091
781.101
781.111
781.122
781.132
781.142
781.152
781.163
781.173
781.183
781.193
781.203
781.214
781.224
781.234
781.244
781.255
781.265
781.275
781.285
781.295
781.305
781.316
781.326
781.336
781.346
781.356
781.366
781.376
781.387
781.397
781.407
781.417
781.427
781.437
781.447
781.457
781.467
781.477
781.487
781.497
781.507
781.517
781.527
781.537
781.547
781.557
781.567
781.576
781.586
781.596
781.606
781.616
781.626
781.635
781.645
781.655
781.665
781.674
781.684
781.694
781.703
781.713
781.723
781.732
781.742
781.751
781.761
781.771
781.78
781.79
781.799
781.808
781.818
781.827
781.837
781.846
781.855
781.865
781.874
781.883
781.893
781.902
781.911
781.92
781.929
781.939
781.948
781.957
781.966
781.975
781.984
781.993
782.002
782.011
782.02
782.029
782.038
782.046
782.055
782.064
782.073
782.082
782.09
782.099
782.108
782.116
782.125
782.134
782.142
782.151
782.159
782.168
782.176
782.185
782.193
782.201
782.21
782.218
782.226
782.234
782.243
782.251
782.259
782.267
782.275
782.283
782.291
782.299
782.307
782.315
782.323
782.331
782.339
782.347
782.355
782.362
782.37
782.378
782.386
782.393
782.401
782.408
782.416
782.423
782.431
782.438
782.446
782.453
782.46
782.468
782.475
782.482
782.489
782.497
782.504
782.511
782.518
782.525
782.532
782.539
782.546
782.553
782.559
782.566
782.573
782.58
782.586
782.593
782.6
782.606
782.613
782.619
782.626
782.632
782.639
782.645
782.652
782.657
782.664
782.67
782.677
782.682
782.689
782.694
782.701
782.706
782.714
782.717
782.726
782.729
782.737
782.74
782.749
782.751
782.76
782.762
782.771
782.774
782.782
782.784
782.793
782.795
782.804
782.806
782.814
782.816
782.825
782.826
782.835
782.837
782.844
780.316
780.285
780.235
780.186
780.14
780.096
780.055
780.017
779.981
779.948
779.918
779.891
779.866
779.844
779.825
779.808
779.794
779.782
779.772
779.764
779.758
779.755
779.754
779.753
779.753
779.754
779.756
779.76
779.763
779.767
779.772
779.776
779.781
779.785
779.79
779.795
779.8
779.805
779.81
779.815
779.821
779.826
779.831
779.837
779.842
779.848
779.853
779.859
779.865
779.871
779.877
779.883
779.889
779.895
779.901
779.907
779.913
779.92
779.926
779.932
779.939
779.946
779.952
779.959
779.966
779.972
779.979
779.986
779.993
780
780.007
780.014
780.021
780.029
780.036
780.043
780.051
780.058
780.066
780.073
780.081
780.088
780.096
780.104
780.112
780.119
780.127
780.135
780.143
780.151
780.159
780.167
780.176
780.184
780.192
780.201
780.209
780.218
780.227
780.236
780.245
780.254
780.263
780.272
780.28
780.289
780.297
780.306
780.314
780.323
780.331
780.339
780.348
780.357
780.365
780.374
780.383
780.393
780.402
780.412
780.422
780.431
780.441
780.451
780.46
780.47
780.479
780.488
780.498
780.507
780.517
780.526
780.536
780.546
780.555
780.565
780.574
780.583
780.593
780.602
780.611
780.62
780.63
780.639
780.649
780.658
780.668
780.677
780.687
780.698
780.708
780.718
780.728
780.739
780.749
780.76
780.77
780.78
780.79
780.8
780.809
780.819
780.829
780.838
780.848
780.858
780.867
780.877
780.887
780.897
780.907
780.917
780.927
780.938
780.948
780.958
780.968
780.978
780.989
780.999
781.009
781.019
781.029
781.04
781.05
781.06
781.07
781.081
781.091
781.101
781.111
781.122
781.132
781.142
781.152
781.163
781.173
781.183
781.193
781.203
781.214
781.224
781.234
781.244
781.255
781.265
781.275
781.285
781.295
781.305
781.316
781.326
781.336
781.346
781.356
781.366
781.376
781.387
781.397
781.407
781.417
781.427
781.437
781.447
781.457
781.467
781.477
781.487
781.497
781.507
781.517
781.527
781.537
781.547
781.557
781.567
781.576
781.586
781.596
781.606
781.616
781.626
781.635
781.645
781.655
781.665
781.674
781.684
781.694
781.703
781.713
781.723
781.732
781.742
781.751
781.761
781.771
781.78
781.79
781.799
781.808
781.818
781.827
781.837
781.846
781.855
781.865
781.874
781.883
781.893
781.902
781.911
781.92
781.929
781.939
781.948
781.957
781.966
781.975
781.984
781.993
782.002
782.011
782.02
782.029
782.038
782.046
782.055
782.064
782.073
782.082
782.09
782.099
782.108
782.116
782.125
782.134
782.142
782.151
782.159
782.168
782.176
782.185
782.193
782.201
782.21
782.218
782.226
782.234
782.243
782.251
782.259
782.267
782.275
782.283
782.291
782.299
782.307
782.315
782.323
782.331
782.339
782.347
782.355
782.362
782.37
782.378
782.386
782.393
782.401
782.408
782.416
782.423
782.431
782.438
782.446
782.453
782.46
782.468
782.475
782.482
782.489
782.497
782.504
782.511
782.518
782.525
782.532
782.539
782.546
782.553
782.559
782.566
782.573
782.58
782.586
782.593
782.6
782.606
782.613
782.619
782.626
782.632
782.639
782.645
782.651
782.658
782.664
782.67
782.676
782.682
782.689
782.694
782.701
782.706
782.713
782.718
782.725
782.73
782.736
782.742
782.746
782.754
782.758
782.764
782.77
782.775
782.781
782.786
782.791
782.798
782.8
782.809
782.811
782.819
782.821
782.829
782.831
782.839
782.842
780.316
780.285
780.235
780.186
780.14
780.096
780.055
780.017
779.981
779.948
779.918
779.891
779.866
779.844
779.825
779.808
779.794
779.782
779.772
779.764
779.758
779.755
779.754
779.753
779.753
779.754
779.756
779.76
779.763
779.767
779.771
779.776
779.78
779.785
779.79
779.795
779.8
779.805
779.81
779.815
779.82
779.826
779.831
779.837
779.842
779.848
779.853
779.859
779.865
779.871
779.876
779.882
779.888
779.895
779.901
779.907
779.913
779.92
779.926
779.932
779.939
779.945
779.952
779.959
779.965
779.972
779.979
779.986
779.993
780
780.007
780.014
780.021
780.029
780.036
780.043
780.051
780.058
780.066
780.073
780.081
780.088
780.096
780.104
780.111
780.119
780.127
780.135
780.143
780.151
780.159
780.167
780.175
780.184
780.192
780.201
780.209
780.218
780.227
780.236
780.245
780.254
780.263
780.272
780.28
780.289
780.297
780.306
780.314
780.322
780.331
780.339
780.348
780.357
780.365
780.374
780.383
780.393
780.402
780.412
780.422
780.431
780.441
780.45
780.46
780.47
780.479
780.488
780.498
780.507
780.517
780.526
780.536
780.546
780.555
780.565
780.574
780.583
780.593
780.602
780.611
780.62
780.63
780.639
780.648
780.658
780.668
780.677
780.687
780.697
780.708
780.718
780.728
780.739
780.749
780.76
780.77
780.78
780.79
780.8
780.809
780.819
780.828
780.838
780.848
780.858
780.867
780.877
780.887
780.897
780.907
780.917
780.927
780.938
780.948
780.958
780.968
780.978
780.989
780.999
781.009
781.019
781.029
781.04
781.05
781.06
781.07
781.081
781.091
781.101
781.111
781.122
781.132
781.142
781.152
781.163
781.173
781.183
781.193
781.203
781.214
781.224
781.234
781.244
781.255
781.265
781.275
781.285
781.295
781.305
781.316
781.326
781.336
781.346
781.356
781.366
781.376
781.387
781.397
781.407
781.417
781.427
781.437
781.447
781.457
781.467
781.477
781.487
781.497
781.507
781.517
781.527
781.537
781.547
781.557
781.567
781.576
781.586
781.596
781.606
781.616
781.626
781.635
781.645
781.655
781.665
781.674
781.684
781.694
781.703
781.713
781.723
781.732
781.742
781.751
781.761
781.771
781.78
781.79
781.799
781.808
781.818
781.827
781.837
781.846
781.855
781.865
781.874
781.883
781.893
781.902
781.911
781.92
781.929
781.939
781.948
781.957
781.966
781.975
781.984
781.993
782.002
782.011
782.02
782.029
782.038
782.046
782.055
782.064
782.073
782.082
782.09
782.099
782.108
782.116
782.125
782.134
782.142
782.151
782.159
782.168
782.176
782.185
782.193
782.201
782.21
782.218
782.226
782.234
782.243
782.251
782.259
782.267
782.275
782.283
782.291
782.299
782.307
782.315
782.323
782.331
782.339
782.347
782.355
782.362
782.37
782.378
782.386
782.393
782.401
782.408
782.416
782.423
782.431
782.438
782.446
782.453
782.46
782.468
782.475
782.482
782.489
782.497
782.504
782.511
782.518
782.525
782.532
782.539
782.546
782.553
782.559
782.566
782.573
782.58
782.586
782.593
782.6
782.606
782.613
782.619
782.626
782.632
782.639
782.645
782.651
782.658
782.664
782.67
782.676
782.682
782.689
782.695
782.7
782.707
782.712
782.719
782.723
782.731
782.735
782.742
782.748
782.752
782.76
782.763
782.77
782.776
782.779
782.788
782.79
782.799
782.801
782.809
782.811
782.819
782.822
782.828
782.832
782.839
782.844
780.315
780.285
780.234
780.186
780.14
780.096
780.055
780.016
779.981
779.948
779.918
779.891
779.866
779.844
779.824
779.808
779.794
779.782
779.772
779.764
779.758
779.755
779.754
779.753
779.753
779.754
779.756
779.759
779.763
779.767
779.771
779.776
779.78
779.785
779.79
779.795
779.8
779.805
779.81
779.815
779.82
779.826
779.831
779.836
779.842
779.847
779.853
779.859
779.865
779.87
779.876
779.882
779.888
779.894
779.901
779.907
779.913
779.919
779.926
779.932
779.939
779.945
779.952
779.959
779.965
779.972
779.979
779.986
779.993
780
780.007
780.014
780.021
780.028
780.036
780.043
780.05
780.058
780.065
780.073
780.081
780.088
780.096
780.104
780.111
780.119
780.127
780.135
780.143
780.151
780.159
780.167
780.175
780.184
780.192
780.2
780.209
780.218
780.227
780.236
780.245
780.254
780.263
780.272
780.28
780.289
780.297
780.306
780.314
780.322
780.331
780.339
780.348
780.356
780.365
780.374
780.383
780.393
780.402
780.412
780.421
780.431
780.441
780.45
780.46
780.469
780.479
780.488
780.498
780.507
780.517
780.526
780.536
780.545
780.555
780.565
780.574
780.583
780.593
780.602
780.611
780.62
780.63
780.639
780.648
780.658
780.667
780.677
780.687
780.697
780.708
780.718
780.728
780.739
780.749
780.759
780.77
780.78
780.79
780.799
780.809
780.819
780.828
780.838
780.848
780.858
780.867
780.877
780.887
780.897
780.907
780.917
780.927
780.938
780.948
780.958
780.968
780.978
780.989
780.999
781.009
781.019
781.029
781.04
781.05
781.06
781.07
781.081
781.091
781.101
781.111
781.122
781.132
781.142
781.152
781.163
781.173
781.183
781.193
781.203
781.214
781.224
781.234
781.244
781.255
781.265
781.275
781.285
781.295
781.305
781.316
781.326
781.336
781.346
781.356
781.366
781.376
781.387
781.397
781.407
781.417
781.427
781.437
781.447
781.457
781.467
781.477
781.487
781.497
781.507
781.517
781.527
781.537
781.547
781.557
781.567
781.576
781.586
781.596
781.606
781.616
781.626
781.635
781.645
781.655
781.665
781.674
781.684
781.694
781.703
781.713
781.723
781.732
781.742
781.751
781.761
781.771
781.78
781.79
781.799
781.808
781.818
781.827
781.837
781.846
781.855
781.865
781.874
781.883
781.893
781.902
781.911
781.92
781.929
781.939
781.948
781.957
781.966
781.975
781.984
781.993
782.002
782.011
782.02
782.029
782.038
782.046
782.055
782.064
782.073
782.082
782.09
782.099
782.108
782.116
782.125
782.134
782.142
782.151
782.159
782.168
782.176
782.185
782.193
782.201
782.21
782.218
782.226
782.234
782.243
782.251
782.259
782.267
782.275
782.283
782.291
782.299
782.307
782.315
782.323
782.331
782.339
782.347
782.355
782.362
782.37
782.378
782.386
782.393
782.401
782.408
782.416
782.423
782.431
782.438
782.446
782.453
782.46
782.468
782.475
782.482
782.489
782.497
782.504
782.511
782.518
782.525
782.532
782.539
782.546
782.553
782.559
782.566
782.573
782.58
782.586
782.593
782.6
782.606
782.613
782.619
782.626
782.632
782.639
782.645
782.651
782.658
782.664
782.67
782.676
782.682
782.689
782.695
782.7
782.707
782.712
782.72
782.723
782.732
782.734
782.743
782.746
782.754
782.757
782.766
782.768
782.777
782.779
782.788
782.79
782.799
782.8
782.809
782.811
782.819
782.821
782.83
782.831
782.84
782.842
780.315
780.285
780.234
780.186
780.14
780.096
780.055
780.016
779.981
779.948
779.918
779.89
779.866
779.844
779.824
779.808
779.793
779.782
779.772
779.764
779.758
779.755
779.754
779.753
779.753
779.754
779.756
779.759
779.763
779.767
779.771
779.776
779.78
779.785
779.79
779.795
779.8
779.805
779.81
779.815
779.82
779.825
779.831
779.836
779.842
779.847
779.853
779.859
779.865
779.87
779.876
779.882
779.888
779.894
779.901
779.907
779.913
779.919
779.926
779.932
779.939
779.945
779.952
779.959
779.965
779.972
779.979
779.986
779.993
780
780.007
780.014
780.021
780.028
780.036
780.043
780.05
780.058
780.065
780.073
780.081
780.088
780.096
780.104
780.111
780.119
780.127
780.135
780.143
780.151
780.159
780.167
780.175
780.184
780.192
780.2
780.209
780.218
780.227
780.236
780.245
780.254
780.263
780.272
780.28
780.289
780.297
780.306
780.314
780.322
780.331
780.339
780.348
780.356
780.365
780.374
780.383
780.393
780.402
780.412
780.421
780.431
780.441
780.45
780.46
780.469
780.479
780.488
780.498
780.507
780.517
780.526
780.536
780.545
780.555
780.565
780.574
780.583
780.593
780.602
780.611
780.62
780.63
780.639
780.648
780.658
780.668
780.677
780.687
780.697
780.708
780.718
780.728
780.739
780.749
780.759
780.77
780.78
780.79
780.799
780.809
780.819
780.828
780.838
780.848
780.858
780.867
780.877
780.887
780.897
780.907
780.917
780.927
780.938
780.948
780.958
780.968
780.978
780.989
780.999
781.009
781.019
781.029
781.04
781.05
781.06
781.07
781.081
781.091
781.101
781.111
781.122
781.132
781.142
781.152
781.163
781.173
781.183
781.193
781.203
781.214
781.224
781.234
781.244
781.255
781.265
781.275
781.285
781.295
781.305
781.316
781.326
781.336
781.346
781.356
781.366
781.376
781.387
781.397
781.407
781.417
781.427
781.437
781.447
781.457
781.467
781.477
781.487
781.497
781.507
781.517
781.527
781.537
781.547
781.557
781.567
781.576
781.586
781.596
781.606
781.616
781.626
781.635
781.645
781.655
781.665
781.674
781.684
781.694
781.703
781.713
781.723
781.732
781.742
781.751
781.761
781.771
781.78
781.79
781.799
781.809
781.818
781.827
781.837
781.846
781.855
781.865
781.874
781.883
781.893
781.902
781.911
781.92
781.929
781.939
781.948
781.957
781.966
781.975
781.984
781.993
782.002
782.011
782.02
782.029
782.038
782.046
782.055
782.064
782.073
782.082
782.09
782.099
782.108
782.116
782.125
782.134
782.142
782.151
782.159
782.168
782.176
782.185
782.193
782.201
782.21
782.218
782.226
782.234
782.243
782.251
782.259
782.267
782.275
782.283
782.291
782.299
782.307
782.315
782.323
782.331
782.339
782.347
782.355
782.362
782.37
782.378
782.386
782.393
782.401
782.408
782.416
782.423
782.431
782.438
782.446
782.453
782.46
782.468
782.475
782.482
782.489
782.497
782.504
782.511
782.518
782.525
782.532
782.539
782.546
782.553
782.559
782.566
782.573
782.58
782.586
782.593
782.6
782.606
782.613
782.619
782.626
782.632
782.639
782.645
782.651
782.658
782.664
782.67
782.676
782.682
782.688
782.695
782.7
782.707
782.712
782.72
782.723
782.732
782.734
782.743
782.746
782.755
782.757
782.766
782.768
782.777
782.779
782.788
782.79
782.799
782.8
782.809
782.811
782.819
782.821
782.83
782.831
782.841
782.842
780.324
780.294
780.243
780.195
780.149
780.105
780.064
780.025
779.99
779.957
779.927
779.899
779.875
779.853
779.833
779.816
779.802
779.79
779.78
779.772
779.767
779.764
779.762
779.762
779.762
779.762
779.764
779.768
779.771
779.775
779.78
779.784
779.789
779.793
779.798
779.803
779.808
779.813
779.818
779.823
779.828
779.834
779.839
779.845
779.85
779.856
779.861
779.867
779.873
779.879
779.884
779.89
779.896
779.902
779.909
779.915
779.921
779.927
779.934
779.94
779.947
779.953
779.96
779.966
779.973
779.98
779.987
779.994
780.001
780.008
780.015
780.022
780.029
780.036
780.043
780.051
780.058
780.065
780.073
780.08
780.088
780.096
780.103
780.111
780.119
780.127
780.135
780.143
780.151
780.159
780.167
780.175