/*--------------------------------*- C++ -*----------------------------------*\
| =========                 |                                                 |
| \\      /  F ield         | OpenFOAM: The Open Source CFD Toolbox           |
|  \\    /   O peration     | Version:  3.0.x                                 |
|   \\  /    A nd           | Web:      www.OpenFOAM.org                      |
|    \\/     M anipulation  |                                                 |
\*---------------------------------------------------------------------------*/
FoamFile
{
    version     2.0;
    format      ascii;
    class       surfaceScalarField;
    location    "0.47";
    object      phi;
}
// * * * * * * * * * * * * * * * * * * * * * * * * * * * * * * * * * * * * * //

dimensions      [1 0 -1 0 0 0 0];

internalField   nonuniform List<scalar> 
52430
(
3.90612
0.000243659
3.90592
0.000176445
3.90572
0.000168812
3.90552
0.000170278
3.90532
0.000170761
3.90512
0.000170715
3.90492
0.000170658
3.90472
0.000170665
3.90452
0.000170669
3.90432
0.000170667
3.90411
0.000170664
3.90391
0.000170661
3.90371
0.000170658
3.9035
0.000170655
3.9033
0.000170651
3.90309
0.000170648
3.90288
0.000170645
3.90268
0.000170641
3.90247
0.000170638
3.90226
0.000170634
3.90205
0.000170631
3.90184
0.000170628
3.90163
0.000170624
3.90141
0.000170621
3.9012
0.000170618
3.90098
0.000170614
3.90076
0.000170611
3.90055
0.000170608
3.90033
0.000170604
3.9001
0.000170601
3.89988
0.000170598
3.89966
0.000170595
3.89943
0.000170592
3.8992
0.000170589
3.89897
0.000170586
3.89874
0.000170583
3.89851
0.00017058
3.89827
0.000170577
3.89803
0.000170574
3.89779
0.000170571
3.89755
0.000170569
3.89731
0.000170566
3.89706
0.000170564
3.89681
0.000170561
3.89656
0.000170559
3.8963
0.000170556
3.89605
0.000170554
3.89579
0.000170551
3.89553
0.000170549
3.89526
0.000170547
3.89499
0.000170545
3.89472
0.000170542
3.89445
0.00017054
3.89417
0.000170538
3.89389
0.000170536
3.8936
0.000170534
3.89332
0.000170531
3.89303
0.000170529
3.89273
0.000170527
3.89243
0.000170524
3.89213
0.000170522
3.89182
0.000170519
3.89151
0.000170516
3.8912
0.000170514
3.89088
0.000170511
3.89056
0.000170508
3.89023
0.000170506
3.8899
0.000170504
3.88956
0.000170501
3.88922
0.000170499
3.88887
0.000170497
3.88852
0.000170495
3.88816
0.000170493
3.8878
0.000170491
3.88743
0.00017049
3.88706
0.000170489
3.88668
0.000170488
3.8863
0.000170488
3.88591
0.000170488
3.88552
0.000170488
3.88512
0.000170489
3.88472
0.00017049
3.88431
0.000170487
3.8839
0.000170497
3.88348
0.000170504
3.88305
0.000170503
3.88262
0.000170507
3.88217
0.00017051
3.88172
0.000170514
3.88127
0.000170518
3.88081
0.000170522
3.88033
0.000170526
3.87985
0.00017053
3.87937
0.000170533
3.87887
0.000170536
3.87837
0.000170539
3.87786
0.000170542
3.87734
0.000170545
3.87682
0.000170549
3.87629
0.000170553
3.87575
0.000170557
3.8752
0.000170562
3.87464
0.000170567
3.87408
0.000170573
3.8735
0.000170579
3.87292
0.000170586
3.87233
0.000170593
3.87173
0.0001706
3.87112
0.000170608
3.8705
0.000170615
3.86988
0.000170623
3.86924
0.00017063
3.8686
0.000170637
3.86794
0.000170644
3.86728
0.000170651
3.8666
0.000170657
3.86592
0.000170661
3.86522
0.000170663
3.86452
0.000170661
3.8638
0.000170654
3.86308
0.000170641
3.86234
0.00017062
3.86159
0.000170589
3.86083
0.000170547
3.86006
0.000170488
3.85927
0.00017041
3.85847
0.000170307
3.85767
0.000170174
3.85685
0.000170006
3.85602
0.000169796
3.85518
0.000169538
3.85433
0.000169222
3.85346
0.000168837
3.85259
0.000168375
3.8517
0.000167822
3.85081
0.000167168
3.8499
0.000166399
3.84898
0.000165503
3.84805
0.000164465
3.84711
0.000163269
3.84616
0.000161903
3.84519
0.000160351
3.84422
0.000158602
3.84323
0.000156643
3.84223
0.000154463
3.84122
0.000152054
3.8402
0.000149408
3.83916
0.000146522
3.83812
0.000143392
3.83707
0.000140021
3.836
0.000136412
3.83493
0.000132572
3.83384
0.000128512
3.83275
0.000124245
3.83165
0.000119788
3.83053
0.000115159
3.82941
0.000110383
3.82828
0.000105482
3.82713
0.000100483
3.82598
9.54133e-05
3.82482
9.03024e-05
3.82365
8.51793e-05
3.82247
8.00732e-05
3.82127
7.5013e-05
3.82007
7.00264e-05
3.81886
6.51399e-05
3.81764
6.03779e-05
3.8164
5.57631e-05
3.81516
5.13152e-05
3.8139
4.70517e-05
3.81263
4.2987e-05
3.81135
3.91326e-05
3.81006
3.54974e-05
3.80876
3.2087e-05
3.80744
2.89044e-05
3.80611
2.59501e-05
3.80476
2.3222e-05
3.80341
2.0716e-05
3.80203
1.84258e-05
3.80065
1.63438e-05
3.79925
1.44607e-05
3.79783
1.27662e-05
3.7964
1.12493e-05
3.79495
9.89831e-06
3.79349
8.70119e-06
3.79202
7.64586e-06
3.79052
6.72028e-06
3.78901
5.91267e-06
3.78749
5.21166e-06
3.78595
4.60633e-06
3.78439
4.0864e-06
3.78281
3.64222e-06
3.78122
3.26483e-06
3.77961
2.94601e-06
3.77798
2.67825e-06
3.77634
2.45476e-06
3.77468
2.26943e-06
3.773
2.11681e-06
3.7713
1.99211e-06
3.76959
1.89108e-06
3.76786
1.81003e-06
3.76611
1.74575e-06
3.76434
1.69548e-06
3.76256
1.65684e-06
3.76076
1.62784e-06
3.75893
1.60674e-06
3.7571
1.59213e-06
3.75524
1.5828e-06
3.75336
1.57773e-06
3.75147
1.57612e-06
3.74956
1.57727e-06
3.74763
1.58063e-06
3.74568
1.58574e-06
3.74371
1.59224e-06
3.74172
1.59982e-06
3.73972
1.60826e-06
3.7377
1.61736e-06
3.73566
1.62696e-06
3.73359
1.63696e-06
3.73152
1.64725e-06
3.72942
1.65776e-06
3.7273
1.66844e-06
3.72516
1.67923e-06
3.72301
1.69012e-06
3.72083
1.70106e-06
3.71864
1.71203e-06
3.71643
1.72303e-06
3.7142
1.73404e-06
3.71195
1.74506e-06
3.70968
1.75607e-06
3.70739
1.76706e-06
3.70508
1.77804e-06
3.70275
1.78901e-06
3.7004
1.79995e-06
3.69804
1.81087e-06
3.69565
1.82176e-06
3.69324
1.83263e-06
3.69082
1.84347e-06
3.68837
1.85429e-06
3.68591
1.86507e-06
3.68342
1.87583e-06
3.68092
1.88656e-06
3.67839
1.89727e-06
3.67585
1.90795e-06
3.67328
1.91859e-06
3.6707
1.9292e-06
3.66809
1.93977e-06
3.66547
1.95031e-06
3.66282
1.96081e-06
3.66016
1.97128e-06
3.65747
1.98172e-06
3.65477
1.99212e-06
3.65204
2.0025e-06
3.6493
2.01284e-06
3.64653
2.02315e-06
3.64375
2.03342e-06
3.64094
2.04366e-06
3.63811
2.05386e-06
3.63526
2.06401e-06
3.6324
2.07412e-06
3.62951
2.08419e-06
3.6266
2.09422e-06
3.62367
2.10422e-06
3.62072
2.11418e-06
3.61775
2.12411e-06
3.61475
2.13399e-06
3.61174
2.14382e-06
3.60871
2.15361e-06
3.60566
2.16336e-06
3.60258
2.17308e-06
3.59948
2.18276e-06
3.59637
2.1924e-06
3.59323
2.202e-06
3.59007
2.21155e-06
3.58689
2.22106e-06
3.58369
2.2305e-06
3.58047
2.2399e-06
3.57723
2.24925e-06
3.57396
2.25855e-06
3.57068
2.26781e-06
3.56737
2.27703e-06
3.56404
2.2862e-06
3.5607
2.29534e-06
3.55733
2.30442e-06
3.55393
2.31346e-06
3.55052
2.32244e-06
3.54709
2.33136e-06
3.54363
2.34023e-06
3.54016
2.34904e-06
3.53666
2.3578e-06
3.53314
2.36651e-06
3.5296
2.37516e-06
3.52604
2.38376e-06
3.52245
2.39231e-06
3.51885
2.4008e-06
3.51522
2.40925e-06
3.51157
2.41763e-06
3.5079
2.42596e-06
3.50421
2.43423e-06
3.5005
2.44244e-06
3.49676
2.45059e-06
3.49301
2.45868e-06
3.48923
2.46671e-06
3.48543
2.47468e-06
3.48161
2.48258e-06
3.47776
2.49042e-06
3.4739
2.4982e-06
3.47001
2.50592e-06
3.4661
2.51357e-06
3.46217
2.52116e-06
3.45822
2.52868e-06
3.45425
2.53614e-06
3.45025
2.54352e-06
3.44623
2.55084e-06
3.44219
2.5581e-06
3.43813
2.56529e-06
3.43405
2.5724e-06
3.42994
2.57944e-06
3.42581
2.5864e-06
3.42167
2.5933e-06
3.41749
2.60013e-06
3.4133
2.60689e-06
3.40909
2.61358e-06
3.40485
2.62018e-06
3.40059
2.62669e-06
3.39631
2.63312e-06
3.39201
2.63948e-06
3.38768
2.64578e-06
3.38334
2.65201e-06
3.37897
2.65817e-06
3.37458
2.66425e-06
3.37017
2.67023e-06
3.36573
2.67611e-06
3.36128
2.6819e-06
3.3568
2.68761e-06
3.3523
2.69324e-06
3.34778
2.69881e-06
3.34323
2.70431e-06
3.33867
2.70972e-06
3.33408
2.71505e-06
3.32947
2.72028e-06
3.32484
2.72543e-06
3.32019
2.73048e-06
3.31551
2.73544e-06
3.31081
2.7403e-06
3.30609
2.74506e-06
3.30135
2.74972e-06
3.29659
2.75428e-06
3.29181
2.75876e-06
3.287
2.76316e-06
3.28217
2.76747e-06
3.27732
2.77171e-06
3.27245
2.77586e-06
3.26755
2.77991e-06
3.26264
2.78385e-06
3.2577
2.78769e-06
3.25274
2.79141e-06
3.24776
2.79502e-06
3.24276
2.79854e-06
3.23774
2.80197e-06
3.23269
2.80531e-06
3.22762
2.80855e-06
3.22254
2.8117e-06
3.21743
2.81474e-06
3.21229
2.81766e-06
3.20714
2.82048e-06
3.20196
2.82318e-06
3.19677
2.82577e-06
3.19155
2.82825e-06
3.18631
2.83063e-06
3.18105
2.83289e-06
3.17577
2.83505e-06
3.17047
2.83711e-06
3.16514
2.83904e-06
3.1598
2.84098e-06
3.15443
2.84277e-06
3.14904
2.84484e-06
3.14363
2.84703e-06
3.1382
2.85028e-06
3.13275
2.856e-06
3.12728
2.86701e-06
3.12178
2.89284e-06
3.11627
2.95117e-06
3.11073
3.09247e-06
3.10518
3.42669e-06
3.0996
4.21942e-06
3.094
6.11519e-06
3.08837
1.06241e-05
3.08271
2.13858e-05
3.07701
4.70136e-05
3.07122
0.000108088
3.06527
0.000253455
3.05895
0.000599205
3.0518
0.00142005
3.04267
0.00336424
3.02894
0.00795472
3.00436
0.0187838
2.95386
0.0446878
2.83538
0.112651
0.298268
2.53127
5.52452
0.000213105
5.52449
0.00017099
5.52446
0.00015565
5.52443
0.000158305
5.5244
0.000159445
5.52437
0.000159348
5.52434
0.00015926
5.5243
0.000159285
5.52427
0.000159308
5.52424
0.000159319
5.5242
0.000159327
5.52417
0.000159335
5.52413
0.000159343
5.5241
0.000159351
5.52406
0.000159359
5.52402
0.000159367
5.52398
0.000159374
5.52394
0.000159382
5.5239
0.000159389
5.52385
0.000159396
5.52381
0.000159404
5.52376
0.000159411
5.52371
0.000159419
5.52366
0.000159426
5.52361
0.000159433
5.52356
0.000159441
5.5235
0.000159448
5.52345
0.000159456
5.52339
0.000159463
5.52333
0.00015947
5.52326
0.000159478
5.5232
0.000159485
5.52313
0.000159493
5.52306
0.0001595
5.52299
0.000159508
5.52291
0.000159516
5.52283
0.000159523
5.52275
0.000159531
5.52266
0.000159539
5.52258
0.000159547
5.52249
0.000159555
5.52239
0.000159563
5.5223
0.000159571
5.5222
0.000159579
5.52209
0.000159587
5.52198
0.000159595
5.52187
0.000159603
5.52176
0.000159611
5.52164
0.00015962
5.52151
0.000159628
5.52139
0.000159636
5.52126
0.000159644
5.52112
0.000159653
5.52098
0.000159661
5.52083
0.000159669
5.52068
0.000159678
5.52053
0.000159686
5.52037
0.000159694
5.5202
0.000159702
5.52003
0.000159711
5.51986
0.000159719
5.51968
0.000159726
5.51949
0.000159734
5.5193
0.000159742
5.5191
0.00015975
5.51889
0.000159758
5.51868
0.000159766
5.51846
0.000159774
5.51824
0.000159782
5.51801
0.000159791
5.51777
0.000159799
5.51752
0.000159808
5.51726
0.000159816
5.517
0.000159825
5.51673
0.000159834
5.51646
0.000159843
5.51618
0.000159853
5.51589
0.000159863
5.51559
0.000159873
5.51529
0.000159884
5.51498
0.000159895
5.51466
0.000159907
5.51433
0.000159914
5.514
0.000159936
5.51366
0.000159949
5.5133
0.00015996
5.51294
0.000159974
5.51257
0.000159988
5.51218
0.000160001
5.51179
0.000160015
5.51138
0.000160029
5.51097
0.000160044
5.51054
0.000160058
5.5101
0.000160071
5.50966
0.000160084
5.5092
0.000160097
5.50873
0.00016011
5.50825
0.000160124
5.50776
0.000160138
5.50725
0.000160152
5.50674
0.000160166
5.50622
0.000160181
5.50568
0.000160196
5.50514
0.000160212
5.50458
0.000160228
5.50401
0.000160245
5.50342
0.000160262
5.50282
0.000160279
5.50221
0.000160297
5.50159
0.000160314
5.50095
0.000160331
5.5003
0.000160348
5.49964
0.000160365
5.49897
0.000160382
5.49828
0.000160398
5.49758
0.000160414
5.49686
0.000160427
5.49613
0.000160437
5.49539
0.000160444
5.49462
0.000160446
5.49385
0.000160441
5.49305
0.000160428
5.49225
0.000160406
5.49142
0.00016037
5.49058
0.000160318
5.48972
0.000160246
5.48885
0.000160149
5.48796
0.000160021
5.48705
0.000159857
5.48612
0.000159651
5.48518
0.000159396
5.48423
0.000159081
5.48326
0.000158698
5.48227
0.000158236
5.48126
0.000157684
5.48024
0.00015703
5.4792
0.000156261
5.47815
0.000155366
5.47708
0.000154329
5.47599
0.000153137
5.47488
0.000151777
5.47375
0.000150235
5.4726
0.000148499
5.47144
0.000146559
5.47025
0.000144405
5.46905
0.000142029
5.46782
0.000139426
5.46658
0.000136593
5.46532
0.000133529
5.46403
0.000130236
5.46273
0.00012672
5.46141
0.000122989
5.46007
0.000119054
5.4587
0.000114931
5.45732
0.000110635
5.45592
0.000106187
5.45449
0.00010161
5.45305
9.69271e-05
5.45158
9.21646e-05
5.45009
8.73495e-05
5.44859
8.25096e-05
5.44706
7.76728e-05
5.44551
7.28668e-05
5.44393
6.81187e-05
5.44234
6.34542e-05
5.44072
5.88976e-05
5.43908
5.44711e-05
5.43742
5.01949e-05
5.43574
4.60866e-05
5.43403
4.2161e-05
5.43231
3.84305e-05
5.43055
3.49043e-05
5.42878
3.15893e-05
5.42698
2.84894e-05
5.42517
2.56058e-05
5.42332
2.29378e-05
5.42146
2.0482e-05
5.41957
1.82334e-05
5.41766
1.61852e-05
5.41572
1.43292e-05
5.41376
1.2656e-05
5.41178
1.11553e-05
5.40978
9.81635e-06
5.40775
8.6277e-06
5.40569
7.57794e-06
5.40361
6.65558e-06
5.40151
5.84934e-06
5.39939
5.14824e-06
5.39724
4.54175e-06
5.39506
4.01986e-06
5.39287
3.57318e-06
5.39064
3.19296e-06
5.3884
2.87112e-06
5.38612
2.60026e-06
5.38383
2.3737e-06
5.38151
2.1854e-06
5.37916
2.02995e-06
5.37679
1.90257e-06
5.37439
1.79905e-06
5.37197
1.7157e-06
5.36953
1.6493e-06
5.36706
1.59709e-06
5.36456
1.55668e-06
5.36204
1.52605e-06
5.35949
1.50347e-06
5.35692
1.48749e-06
5.35432
1.47689e-06
5.35169
1.47066e-06
5.34904
1.46796e-06
5.34637
1.46809e-06
5.34367
1.47048e-06
5.34094
1.47468e-06
5.33818
1.4803e-06
5.3354
1.48704e-06
5.3326
1.49466e-06
5.32977
1.50296e-06
5.32691
1.5118e-06
5.32402
1.52103e-06
5.32111
1.53058e-06
5.31817
1.54035e-06
5.31521
1.5503e-06
5.31221
1.56038e-06
5.3092
1.57055e-06
5.30615
1.58078e-06
5.30308
1.59105e-06
5.29998
1.60135e-06
5.29685
1.61166e-06
5.2937
1.62198e-06
5.29052
1.63229e-06
5.28731
1.6426e-06
5.28407
1.65289e-06
5.28081
1.66317e-06
5.27752
1.67343e-06
5.2742
1.68367e-06
5.27086
1.69389e-06
5.26749
1.70409e-06
5.26408
1.71426e-06
5.26066
1.7244e-06
5.2572
1.73452e-06
5.25372
1.74462e-06
5.2502
1.75468e-06
5.24666
1.76472e-06
5.2431
1.77474e-06
5.2395
1.78474e-06
5.23588
1.7947e-06
5.23222
1.80462e-06
5.22854
1.81452e-06
5.22483
1.82438e-06
5.2211
1.83421e-06
5.21733
1.84401e-06
5.21354
1.85378e-06
5.20971
1.86352e-06
5.20586
1.87323e-06
5.20198
1.88291e-06
5.19807
1.89256e-06
5.19414
1.90218e-06
5.19017
1.91176e-06
5.18617
1.9213e-06
5.18215
1.93081e-06
5.1781
1.94027e-06
5.17401
1.9497e-06
5.1699
1.95909e-06
5.16576
1.96845e-06
5.16159
1.97778e-06
5.15739
1.98707e-06
5.15317
1.99632e-06
5.14891
2.00553e-06
5.14462
2.0147e-06
5.14031
2.02383e-06
5.13596
2.03293e-06
5.13159
2.04199e-06
5.12718
2.05102e-06
5.12275
2.06e-06
5.11828
2.06895e-06
5.11379
2.07785e-06
5.10927
2.08669e-06
5.10471
2.09549e-06
5.10013
2.10424e-06
5.09552
2.11295e-06
5.09087
2.12162e-06
5.0862
2.13025e-06
5.0815
2.13884e-06
5.07677
2.14739e-06
5.072
2.1559e-06
5.06721
2.16436e-06
5.06239
2.17277e-06
5.05754
2.18112e-06
5.05265
2.18943e-06
5.04774
2.19768e-06
5.0428
2.20588e-06
5.03782
2.21403e-06
5.03282
2.22213e-06
5.02778
2.23018e-06
5.02272
2.23819e-06
5.01762
2.24614e-06
5.0125
2.25405e-06
5.00734
2.2619e-06
5.00216
2.2697e-06
4.99694
2.27745e-06
4.99169
2.28513e-06
4.98641
2.29277e-06
4.9811
2.30035e-06
4.97576
2.30787e-06
4.97039
2.31533e-06
4.96499
2.32273e-06
4.95956
2.33007e-06
4.9541
2.33736e-06
4.9486
2.34459e-06
4.94308
2.35176e-06
4.93752
2.35887e-06
4.93194
2.36591e-06
4.92632
2.37289e-06
4.92067
2.37981e-06
4.915
2.38667e-06
4.90929
2.39347e-06
4.90355
2.4002e-06
4.89777
2.40687e-06
4.89197
2.41346e-06
4.88614
2.41999e-06
4.88028
2.42645e-06
4.87438
2.43285e-06
4.86846
2.43919e-06
4.8625
2.44545e-06
4.85651
2.45164e-06
4.85049
2.45775e-06
4.84444
2.46378e-06
4.83836
2.46974e-06
4.83225
2.47565e-06
4.82611
2.48149e-06
4.81993
2.48727e-06
4.81373
2.49296e-06
4.80749
2.49857e-06
4.80122
2.50408e-06
4.79493
2.50952e-06
4.7886
2.51487e-06
4.78224
2.52016e-06
4.77584
2.52539e-06
4.76942
2.53055e-06
4.76297
2.53563e-06
4.75649
2.54062e-06
4.74997
2.54554e-06
4.74342
2.55036e-06
4.73685
2.55511e-06
4.73024
2.55976e-06
4.7236
2.56433e-06
4.71693
2.5688e-06
4.71023
2.57317e-06
4.7035
2.57745e-06
4.69673
2.58166e-06
4.68994
2.5858e-06
4.68312
2.58986e-06
4.67626
2.59383e-06
4.66938
2.59773e-06
4.66246
2.60154e-06
4.65551
2.60524e-06
4.64853
2.60885e-06
4.64152
2.61235e-06
4.63448
2.61575e-06
4.62741
2.61906e-06
4.62031
2.6223e-06
4.61318
2.62543e-06
4.60602
2.62849e-06
4.59883
2.63145e-06
4.5916
2.63431e-06
4.58435
2.63707e-06
4.57707
2.63972e-06
4.56975
2.64226e-06
4.56241
2.64472e-06
4.55503
2.64705e-06
4.54763
2.64931e-06
4.54019
2.65142e-06
4.53273
2.65349e-06
4.52523
2.6554e-06
4.5177
2.65732e-06
4.51015
2.65916e-06
4.50256
2.66116e-06
4.49495
2.66348e-06
4.4873
2.66694e-06
4.47962
2.6724e-06
4.47192
2.68453e-06
4.46418
2.70948e-06
4.45642
2.76974e-06
4.44862
2.90984e-06
4.4408
3.24802e-06
4.43295
4.0533e-06
4.42506
5.96134e-06
4.41714
1.0528e-05
4.40919
2.13891e-05
4.40119
4.73133e-05
4.39313
0.00010905
4.38495
0.000256178
4.37654
0.000606373
4.36762
0.00143932
4.3575
0.00341693
4.34462
0.00810141
4.32524
0.0191644
4.29055
0.045272
4.21931
0.107706
4.05432
0.269395
0.682614
3.66171
7.81285
0.000176228
7.8128
0.000159478
7.81276
0.00013824
7.81272
0.000141316
7.81267
0.000143244
7.81263
0.000143131
7.81259
0.000143001
7.81254
0.000143038
7.8125
0.000143074
7.81245
0.000143089
7.8124
0.0001431
7.81235
0.00014311
7.8123
0.000143119
7.81225
0.000143128
7.8122
0.000143136
7.81214
0.000143144
7.81209
0.000143152
7.81203
0.00014316
7.81197
0.000143167
7.81191
0.000143174
7.81185
0.000143182
7.81178
0.000143189
7.81171
0.000143196
7.81164
0.000143203
7.81157
0.00014321
7.81149
0.000143216
7.81142
0.000143223
7.81134
0.00014323
7.81125
0.000143237
7.81117
0.000143244
7.81108
0.000143251
7.81099
0.000143258
7.81089
0.000143264
7.81079
0.000143271
7.81069
0.000143278
7.81058
0.000143285
7.81047
0.000143292
7.81035
0.000143299
7.81024
0.000143306
7.81011
0.000143313
7.80999
0.000143321
7.80985
0.000143328
7.80972
0.000143335
7.80958
0.000143342
7.80943
0.00014335
7.80928
0.000143357
7.80912
0.000143364
7.80896
0.000143372
7.80879
0.000143379
7.80862
0.000143387
7.80844
0.000143394
7.80825
0.000143402
7.80806
0.000143409
7.80786
0.000143417
7.80766
0.000143424
7.80745
0.000143432
7.80723
0.000143439
7.807
0.000143447
7.80677
0.000143454
7.80653
0.000143461
7.80628
0.000143468
7.80603
0.000143476
7.80576
0.000143483
7.80549
0.00014349
7.80521
0.000143497
7.80492
0.000143504
7.80463
0.000143511
7.80432
0.000143518
7.804
0.000143526
7.80368
0.000143534
7.80334
0.000143541
7.80299
0.000143549
7.80263
0.000143556
7.80226
0.000143564
7.80188
0.000143572
7.80149
0.000143581
7.8011
0.000143589
7.80069
0.000143599
7.80027
0.000143608
7.79984
0.000143618
7.79941
0.000143627
7.79896
0.000143638
7.7985
0.000143644
7.79803
0.000143666
7.79754
0.000143675
7.79704
0.000143686
7.79653
0.000143699
7.796
0.000143711
7.79546
0.000143723
7.79491
0.000143736
7.79434
0.000143749
7.79375
0.000143761
7.79315
0.000143774
7.79253
0.000143786
7.7919
0.000143798
7.79125
0.00014381
7.79059
0.000143822
7.78991
0.000143834
7.78922
0.000143846
7.78851
0.000143859
7.78779
0.000143872
7.78705
0.000143885
7.78629
0.000143899
7.78552
0.000143913
7.78473
0.000143928
7.78393
0.000143943
7.7831
0.000143958
7.78226
0.000143974
7.7814
0.000143989
7.78052
0.000144005
7.77962
0.00014402
7.7787
0.000144036
7.77777
0.000144051
7.77682
0.000144066
7.77584
0.000144081
7.77485
0.000144095
7.77384
0.000144107
7.77281
0.000144116
7.77176
0.000144123
7.77068
0.000144125
7.76959
0.000144121
7.76847
0.00014411
7.76733
0.00014409
7.76616
0.000144059
7.76498
0.000144013
7.76376
0.00014395
7.76253
0.000143863
7.76127
0.00014375
7.75999
0.000143605
7.75868
0.000143423
7.75736
0.000143196
7.75601
0.000142917
7.75463
0.000142577
7.75324
0.000142167
7.75182
0.000141676
7.75037
0.000141095
7.74891
0.000140412
7.74742
0.000139616
7.7459
0.000138694
7.74436
0.000137633
7.74279
0.000136422
7.7412
0.000135048
7.73958
0.000133502
7.73793
0.000131773
7.73625
0.000129853
7.73455
0.000127734
7.73282
0.000125411
7.73106
0.000122883
7.72927
0.000120147
7.72746
0.000117206
7.72562
0.000114064
7.72374
0.000110729
7.72184
0.000107211
7.71992
0.000103522
7.71796
9.96775e-05
7.71597
9.56954e-05
7.71395
9.15956e-05
7.71191
8.73994e-05
7.70983
8.31301e-05
7.70773
7.88117e-05
7.70559
7.44691e-05
7.70342
7.01273e-05
7.70123
6.58112e-05
7.699
6.1545e-05
7.69674
5.73519e-05
7.69445
5.32538e-05
7.69213
4.92709e-05
7.68978
4.54211e-05
7.6874
4.17206e-05
7.68498
3.81828e-05
7.68253
3.48191e-05
7.68006
3.16379e-05
7.67754
2.86456e-05
7.675
2.58458e-05
7.67243
2.324e-05
7.66982
2.08275e-05
7.66718
1.86057e-05
7.66451
1.65701e-05
7.6618
1.47148e-05
7.65906
1.30326e-05
7.65629
1.15151e-05
7.65349
1.01532e-05
7.65065
8.93726e-06
7.64778
7.85714e-06
7.64487
6.90257e-06
7.64193
6.06328e-06
7.63896
5.32914e-06
7.63595
4.69028e-06
7.63291
4.13723e-06
7.62984
3.66097e-06
7.62673
3.25302e-06
7.62359
2.90549e-06
7.62041
2.61107e-06
7.61719
2.36308e-06
7.61395
2.15545e-06
7.61066
1.9827e-06
7.60735
1.83995e-06
7.60399
1.72285e-06
7.6006
1.62756e-06
7.59718
1.55071e-06
7.59372
1.48941e-06
7.59023
1.4411e-06
7.5867
1.40362e-06
7.58313
1.37512e-06
7.57953
1.35402e-06
7.57589
1.33898e-06
7.57221
1.32891e-06
7.5685
1.32286e-06
7.56475
1.32006e-06
7.56097
1.31987e-06
7.55715
1.32178e-06
7.55329
1.32536e-06
7.5494
1.33025e-06
7.54546
1.33618e-06
7.5415
1.34293e-06
7.53749
1.35031e-06
7.53345
1.35818e-06
7.52937
1.36643e-06
7.52525
1.37497e-06
7.52109
1.38372e-06
7.5169
1.39263e-06
7.51267
1.40167e-06
7.5084
1.41079e-06
7.50409
1.41997e-06
7.49975
1.42919e-06
7.49536
1.43843e-06
7.49094
1.44769e-06
7.48648
1.45695e-06
7.48198
1.46622e-06
7.47745
1.47548e-06
7.47287
1.48472e-06
7.46826
1.49396e-06
7.46361
1.50317e-06
7.45891
1.51237e-06
7.45418
1.52155e-06
7.44941
1.5307e-06
7.4446
1.53984e-06
7.43976
1.54895e-06
7.43487
1.55804e-06
7.42994
1.56711e-06
7.42497
1.57615e-06
7.41997
1.58517e-06
7.41492
1.59417e-06
7.40984
1.60315e-06
7.40471
1.61209e-06
7.39955
1.62101e-06
7.39434
1.6299e-06
7.3891
1.63876e-06
7.38381
1.64759e-06
7.37848
1.65639e-06
7.37312
1.66517e-06
7.36771
1.67392e-06
7.36226
1.68264e-06
7.35678
1.69133e-06
7.35125
1.7e-06
7.34568
1.70864e-06
7.34007
1.71725e-06
7.33442
1.72582e-06
7.32873
1.73436e-06
7.323
1.74285e-06
7.31723
1.75132e-06
7.31141
1.75976e-06
7.30556
1.76817e-06
7.29966
1.77655e-06
7.29372
1.7849e-06
7.28774
1.7932e-06
7.28172
1.80147e-06
7.27566
1.80971e-06
7.26955
1.81791e-06
7.26341
1.82608e-06
7.25722
1.83422e-06
7.25099
1.84233e-06
7.24472
1.8504e-06
7.23841
1.85844e-06
7.23205
1.86643e-06
7.22566
1.87438e-06
7.21922
1.88228e-06
7.21274
1.89014e-06
7.20621
1.89797e-06
7.19965
1.90575e-06
7.19304
1.91351e-06
7.18639
1.92122e-06
7.1797
1.9289e-06
7.17296
1.93654e-06
7.16618
1.94414e-06
7.15936
1.9517e-06
7.1525
1.9592e-06
7.14559
1.96666e-06
7.13865
1.97407e-06
7.13166
1.98144e-06
7.12462
1.98876e-06
7.11754
1.99604e-06
7.11042
2.00327e-06
7.10326
2.01046e-06
7.09606
2.0176e-06
7.08881
2.02471e-06
7.08151
2.03176e-06
7.07418
2.03877e-06
7.0668
2.04573e-06
7.05938
2.05263e-06
7.05191
2.05949e-06
7.04441
2.0663e-06
7.03685
2.07305e-06
7.02926
2.07975e-06
7.02162
2.0864e-06
7.01394
2.09299e-06
7.00621
2.09954e-06
6.99845
2.10603e-06
6.99063
2.11247e-06
6.98278
2.11886e-06
6.97488
2.12519e-06
6.96693
2.13146e-06
6.95895
2.13767e-06
6.95092
2.14383e-06
6.94284
2.14994e-06
6.93473
2.15599e-06
6.92656
2.16197e-06
6.91836
2.16789e-06
6.91011
2.17376e-06
6.90182
2.17957e-06
6.89348
2.18532e-06
6.8851
2.19101e-06
6.87668
2.19664e-06
6.86821
2.2022e-06
6.8597
2.20768e-06
6.85114
2.2131e-06
6.84254
2.21845e-06
6.8339
2.22376e-06
6.82521
2.22901e-06
6.81648
2.2342e-06
6.8077
2.23931e-06
6.79888
2.24435e-06
6.79002
2.2493e-06
6.78111
2.25418e-06
6.77216
2.259e-06
6.76317
2.26375e-06
6.75413
2.26844e-06
6.74505
2.27308e-06
6.73592
2.27764e-06
6.72675
2.28213e-06
6.71754
2.28654e-06
6.70828
2.29087e-06
6.69898
2.29513e-06
6.68963
2.29931e-06
6.68024
2.30341e-06
6.67081
2.30743e-06
6.66133
2.31136e-06
6.65181
2.31521e-06
6.64225
2.31899e-06
6.63264
2.32271e-06
6.62299
2.32636e-06
6.6133
2.32992e-06
6.60356
2.33342e-06
6.59378
2.33683e-06
6.58395
2.34016e-06
6.57408
2.34341e-06
6.56417
2.34655e-06
6.55422
2.34961e-06
6.54422
2.35258e-06
6.53417
2.35549e-06
6.52409
2.35831e-06
6.51396
2.36105e-06
6.50379
2.36371e-06
6.49357
2.36628e-06
6.48332
2.36875e-06
6.47301
2.37114e-06
6.46267
2.37343e-06
6.45228
2.37564e-06
6.44185
2.37773e-06
6.43138
2.37978e-06
6.42087
2.38163e-06
6.41031
2.38358e-06
6.39971
2.38518e-06
6.38906
2.38713e-06
6.37838
2.38864e-06
6.36765
2.39108e-06
6.35688
2.39348e-06
6.34607
2.39889e-06
6.33521
2.40711e-06
6.32431
2.42814e-06
6.31337
2.47216e-06
6.30239
2.57925e-06
6.29137
2.83176e-06
6.2803
3.43911e-06
6.2692
4.89087e-06
6.25805
8.32743e-06
6.24685
1.65564e-05
6.2356
3.61262e-05
6.22429
8.28376e-05
6.2129
0.000194077
6.20134
0.000459184
6.18946
0.00109021
6.17687
0.00259119
6.16265
0.00615522
6.14464
0.0145989
6.1177
0.0345431
6.06977
0.0816039
5.972
0.193853
5.74964
0.480096
1.17275
5.24781
34.4875
7.16628e-05
34.4873
8.19088e-05
34.4871
6.92973e-05
34.487
6.96277e-05
34.4868
7.15894e-05
34.4866
7.18173e-05
34.4864
7.16519e-05
34.4862
7.16297e-05
34.486
7.16431e-05
34.4858
7.16384e-05
34.4856
7.1628e-05
34.4853
7.16205e-05
34.4851
7.16155e-05
34.4849
7.16118e-05
34.4847
7.16092e-05
34.4844
7.16076e-05
34.4842
7.16067e-05
34.4839
7.16065e-05
34.4837
7.16068e-05
34.4834
7.16076e-05
34.4831
7.16087e-05
34.4828
7.161e-05
34.4825
7.16117e-05
34.4822
7.16136e-05
34.4819
7.16156e-05
34.4816
7.16178e-05
34.4812
7.16202e-05
34.4809
7.16227e-05
34.4805
7.16253e-05
34.4801
7.16279e-05
34.4797
7.16307e-05
34.4793
7.16336e-05
34.4789
7.16365e-05
34.4784
7.16395e-05
34.478
7.16425e-05
34.4775
7.16457e-05
34.477
7.16488e-05
34.4765
7.1652e-05
34.476
7.16553e-05
34.4755
7.16586e-05
34.4749
7.1662e-05
34.4743
7.16654e-05
34.4737
7.16688e-05
34.4731
7.16723e-05
34.4724
7.16758e-05
34.4718
7.16794e-05
34.4711
7.1683e-05
34.4704
7.16866e-05
34.4696
7.16902e-05
34.4689
7.16939e-05
34.4681
7.16976e-05
34.4672
7.17013e-05
34.4664
7.1705e-05
34.4655
7.17087e-05
34.4646
7.17124e-05
34.4637
7.17161e-05
34.4627
7.17198e-05
34.4617
7.17235e-05
34.4607
7.17271e-05
34.4596
7.17308e-05
34.4585
7.17344e-05
34.4574
7.17379e-05
34.4563
7.17414e-05
34.4551
7.17449e-05
34.4538
7.17484e-05
34.4525
7.17519e-05
34.4512
7.17555e-05
34.4499
7.17591e-05
34.4485
7.17628e-05
34.447
7.17666e-05
34.4455
7.17704e-05
34.444
7.17741e-05
34.4424
7.17779e-05
34.4408
7.17818e-05
34.4391
7.17858e-05
34.4374
7.179e-05
34.4357
7.17943e-05
34.4339
7.17988e-05
34.432
7.18033e-05
34.4301
7.18089e-05
34.4282
7.18128e-05
34.4262
7.18193e-05
34.4242
7.18221e-05
34.4221
7.18343e-05
34.42
7.18358e-05
34.4178
7.18417e-05
34.4155
7.1849e-05
34.4132
7.18551e-05
34.4108
7.18613e-05
34.4083
7.18676e-05
34.4058
7.1874e-05
34.4032
7.18804e-05
34.4006
7.18866e-05
34.3979
7.18927e-05
34.3951
7.18987e-05
34.3922
7.19045e-05
34.3893
7.19105e-05
34.3863
7.19165e-05
34.3832
7.19226e-05
34.3801
7.19289e-05
34.3769
7.19354e-05
34.3736
7.1942e-05
34.3703
7.19489e-05
34.3669
7.1956e-05
34.3634
7.19633e-05
34.3599
7.19708e-05
34.3562
7.19784e-05
34.3525
7.19862e-05
34.3487
7.1994e-05
34.3448
7.20018e-05
34.3408
7.20097e-05
34.3368
7.20175e-05
34.3327
7.2025e-05
34.3285
7.2033e-05
34.3242
7.20403e-05
34.3198
7.20474e-05
34.3154
7.20534e-05
34.3108
7.20584e-05
34.3062
7.20621e-05
34.3014
7.20635e-05
34.2966
7.2062e-05
34.2916
7.20571e-05
34.2866
7.20481e-05
34.2815
7.20335e-05
34.2762
7.2012e-05
34.2709
7.19816e-05
34.2654
7.19405e-05
34.2598
7.18865e-05
34.2542
7.1817e-05
34.2484
7.17292e-05
34.2426
7.16198e-05
34.2366
7.1485e-05
34.2306
7.13206e-05
34.2244
7.11219e-05
34.2181
7.0884e-05
34.2118
7.06019e-05
34.2053
7.02699e-05
34.1987
6.98824e-05
34.192
6.9433e-05
34.1852
6.89155e-05
34.1783
6.83241e-05
34.1713
6.76527e-05
34.1641
6.6896e-05
34.1568
6.60489e-05
34.1494
6.5107e-05
34.1419
6.40667e-05
34.1343
6.29252e-05
34.1265
6.1681e-05
34.1186
6.03333e-05
34.1106
5.8883e-05
34.1025
5.73319e-05
34.0942
5.56836e-05
34.0858
5.39428e-05
34.0773
5.21155e-05
34.0687
5.02091e-05
34.0599
4.82323e-05
34.051
4.61947e-05
34.042
4.41068e-05
34.0328
4.19802e-05
34.0235
3.98267e-05
34.0141
3.76586e-05
34.0045
3.54885e-05
33.9948
3.33287e-05
33.985
3.11915e-05
33.975
2.90886e-05
33.9649
2.70309e-05
33.9547
2.50287e-05
33.9443
2.30912e-05
33.9338
2.12267e-05
33.9231
1.94422e-05
33.9123
1.77435e-05
33.9014
1.61351e-05
33.8903
1.46205e-05
33.8791
1.32017e-05
33.8677
1.18797e-05
33.8562
1.06544e-05
33.8446
9.5246e-06
33.8328
8.48835e-06
33.8208
7.54279e-06
33.8087
6.68446e-06
33.7965
5.90929e-06
33.7841
5.21284e-06
33.7716
4.59031e-06
33.7589
4.03669e-06
33.7461
3.54687e-06
33.7331
3.11571e-06
33.72
2.73814e-06
33.7067
2.4092e-06
33.6933
2.12411e-06
33.6797
1.87832e-06
33.666
1.66755e-06
33.6521
1.48777e-06
33.6381
1.33529e-06
33.6239
1.20669e-06
33.6096
1.0989e-06
33.5951
1.00909e-06
33.5804
9.34777e-07
33.5656
8.73718e-07
33.5507
8.23948e-07
33.5356
7.83735e-07
33.5203
7.51575e-07
33.5049
7.26161e-07
33.4893
7.06374e-07
33.4736
6.91253e-07
33.4576
6.79983e-07
33.4416
6.71877e-07
33.4254
6.66358e-07
33.409
6.6294e-07
33.3924
6.61223e-07
33.3757
6.60877e-07
33.3589
6.61627e-07
33.3418
6.63252e-07
33.3246
6.6557e-07
33.3073
6.68435e-07
33.2898
6.71728e-07
33.2721
6.75356e-07
33.2542
6.79244e-07
33.2362
6.83331e-07
33.2181
6.87569e-07
33.1997
6.91922e-07
33.1812
6.96361e-07
33.1625
7.00867e-07
33.1437
7.05418e-07
33.1247
7.10001e-07
33.1055
7.14606e-07
33.0861
7.19224e-07
33.0666
7.2385e-07
33.0469
7.2848e-07
33.0271
7.3311e-07
33.0071
7.37738e-07
32.9869
7.42361e-07
32.9665
7.46976e-07
32.9459
7.51583e-07
32.9252
7.56182e-07
32.9044
7.60771e-07
32.8833
7.65349e-07
32.8621
7.69918e-07
32.8407
7.74474e-07
32.8191
7.79018e-07
32.7973
7.8355e-07
32.7754
7.88072e-07
32.7533
7.92583e-07
32.731
7.97082e-07
32.7086
8.0157e-07
32.686
8.06044e-07
32.6632
8.10501e-07
32.6402
8.14947e-07
32.617
8.19377e-07
32.5937
8.23792e-07
32.5702
8.28192e-07
32.5465
8.3258e-07
32.5227
8.36955e-07
32.4986
8.41315e-07
32.4744
8.4566e-07
32.45
8.49994e-07
32.4254
8.54314e-07
32.4006
8.58618e-07
32.3757
8.62904e-07
32.3506
8.67172e-07
32.3253
8.71422e-07
32.2998
8.75657e-07
32.2741
8.79876e-07
32.2483
8.84082e-07
32.2223
8.88271e-07
32.196
8.92445e-07
32.1696
8.96598e-07
32.1431
9.00734e-07
32.1163
9.0485e-07
32.0894
9.08953e-07
32.0622
9.13037e-07
32.0349
9.17109e-07
32.0074
9.21162e-07
31.9797
9.25198e-07
31.9519
9.29215e-07
31.9238
9.33212e-07
31.8956
9.37184e-07
31.8672