/*--------------------------------*- C++ -*----------------------------------*\
| =========                 |                                                 |
| \\      /  F ield         | OpenFOAM: The Open Source CFD Toolbox           |
|  \\    /   O peration     | Version:  3.0.x                                 |
|   \\  /    A nd           | Web:      www.OpenFOAM.org                      |
|    \\/     M anipulation  |                                                 |
\*---------------------------------------------------------------------------*/
FoamFile
{
    version     2.0;
    format      ascii;
    class       volScalarField;
    location    "0.47";
    object      rho;
}
// * * * * * * * * * * * * * * * * * * * * * * * * * * * * * * * * * * * * * //

dimensions      [1 -3 0 0 0 0 0];

internalField   nonuniform List<scalar> 
27600
(
50.4791
50.4791
50.4791
50.4791
50.4791
50.4791
50.4791
50.4792
50.4792
50.4792
50.4792
50.4792
50.4792
50.4792
50.4792
50.4793
50.4793
50.4793
50.4793
50.4794
50.4794
50.4794
50.4794
50.4795
50.4795
50.4795
50.4796
50.4796
50.4796
50.4797
50.4797
50.4797
50.4798
50.4798
50.4799
50.4799
50.48
50.48
50.4801
50.4801
50.4802
50.4803
50.4803
50.4804
50.4805
50.4805
50.4806
50.4807
50.4808
50.4808
50.4809
50.481
50.4811
50.4812
50.4813
50.4814
50.4815
50.4816
50.4817
50.4818
50.4819
50.4821
50.4822
50.4823
50.4824
50.4826
50.4827
50.4828
50.483
50.4831
50.4832
50.4834
50.4835
50.4836
50.4838
50.4839
50.4841
50.4843
50.4845
50.4847
50.4849
50.4851
50.4854
50.4856
50.4859
50.4862
50.4864
50.4867
50.4869
50.4872
50.4874
50.4877
50.488
50.4882
50.4885
50.4887
50.489
50.4893
50.4896
50.4899
50.4902
50.4906
50.4909
50.4913
50.4916
50.492
50.4924
50.4927
50.4931
50.4935
50.4939
50.4944
50.4948
50.4953
50.4958
50.4962
50.4967
50.4972
50.4978
50.4983
50.4988
50.4993
50.4998
50.5004
50.5009
50.5014
50.5019
50.5025
50.503
50.5036
50.5042
50.5048
50.5054
50.506
50.5066
50.5073
50.508
50.5087
50.5094
50.5102
50.5109
50.5116
50.5124
50.5132
50.5139
50.5147
50.5155
50.5163
50.5171
50.5179
50.5187
50.5196
50.5205
50.5213
50.5222
50.5231
50.524
50.5249
50.5259
50.5268
50.5278
50.5287
50.5297
50.5307
50.5317
50.5328
50.5338
50.5348
50.5359
50.537
50.5381
50.5392
50.5403
50.5415
50.5426
50.5438
50.545
50.5462
50.5474
50.5486
50.5498
50.5511
50.5524
50.5536
50.5549
50.5563
50.5576
50.5589
50.5603
50.5617
50.5631
50.5645
50.5659
50.5673
50.5688
50.5703
50.5717
50.5732
50.5748
50.5763
50.5778
50.5794
50.581
50.5826
50.5842
50.5858
50.5875
50.5891
50.5908
50.5925
50.5942
50.5959
50.5977
50.5994
50.6012
50.603
50.6048
50.6066
50.6085
50.6103
50.6122
50.6141
50.616
50.6179
50.6199
50.6219
50.6238
50.6258
50.6278
50.6299
50.6319
50.634
50.6361
50.6382
50.6403
50.6424
50.6446
50.6467
50.6489
50.6511
50.6533
50.6556
50.6578
50.6601
50.6624
50.6647
50.667
50.6694
50.6717
50.6741
50.6765
50.6789
50.6814
50.6838
50.6863
50.6888
50.6913
50.6938
50.6964
50.6989
50.7015
50.7041
50.7067
50.7094
50.712
50.7147
50.7174
50.7201
50.7228
50.7255
50.7283
50.7311
50.7339
50.7367
50.7395
50.7424
50.7453
50.7482
50.7511
50.754
50.757
50.7599
50.7629
50.7659
50.769
50.772
50.7751
50.7781
50.7812
50.7844
50.7875
50.7907
50.7938
50.797
50.8002
50.8035
50.8067
50.81
50.8133
50.8166
50.8199
50.8233
50.8266
50.83
50.8334
50.8369
50.8403
50.8438
50.8473
50.8508
50.8543
50.8578
50.8614
50.865
50.8686
50.8722
50.8758
50.8795
50.8831
50.8868
50.8905
50.8943
50.898
50.9018
50.9056
50.9094
50.9132
50.9171
50.9209
50.9248
50.9287
50.9327
50.9366
50.9406
50.9445
50.9485
50.9526
50.9566
50.9607
50.9647
50.9688
50.973
50.9771
50.9813
50.9854
50.9896
50.9938
50.9981
51.0023
51.0066
51.0109
51.0152
51.0195
51.0239
51.0282
51.0326
51.037
51.0414
51.0459
51.0503
51.0548
51.0593
51.0638
51.0683
51.0729
51.0775
51.0821
51.0867
51.0913
51.0959
51.1006
51.1053
51.11
51.1147
51.1195
51.1242
51.129
51.1338
51.1386
51.1434
51.1483
51.1531
51.1581
51.1629
51.1679
51.1727
51.1778
51.1826
51.1878
51.1926
51.1978
51.2027
51.208
51.2128
51.2182
51.2232
51.2289
51.2342
51.2412
51.2463
50.4796
50.4796
50.4796
50.4796
50.4796
50.4796
50.4796
50.4796
50.4796
50.4797
50.4797
50.4797
50.4797
50.4797
50.4797
50.4797
50.4798
50.4798
50.4798
50.4798
50.4798
50.4799
50.4799
50.4799
50.48
50.48
50.48
50.4801
50.4801
50.4801
50.4802
50.4802
50.4803
50.4803
50.4803
50.4804
50.4804
50.4805
50.4805
50.4806
50.4807
50.4807
50.4808
50.4808
50.4809
50.481
50.4811
50.4811
50.4812
50.4813
50.4814
50.4815
50.4815
50.4816
50.4817
50.4818
50.4819
50.482
50.4821
50.4823
50.4824
50.4825
50.4826
50.4827
50.4829
50.483
50.4831
50.4833
50.4834
50.4835
50.4837
50.4838
50.4839
50.484
50.4842
50.4843
50.4845
50.4847
50.4849
50.4851
50.4853
50.4855
50.4858
50.486
50.4863
50.4866
50.4868
50.4871
50.4873
50.4876
50.4878
50.4881
50.4884
50.4886
50.4889
50.4891
50.4894
50.4897
50.49
50.4903
50.4906
50.4909
50.4913
50.4916
50.492
50.4924
50.4927
50.4931
50.4935
50.4939
50.4943
50.4947
50.4952
50.4956
50.4961
50.4966
50.4971
50.4976
50.4981
50.4986
50.4991
50.4996
50.5002
50.5007
50.5012
50.5018
50.5023
50.5028
50.5034
50.5039
50.5045
50.5051
50.5057
50.5063
50.507
50.5076
50.5083
50.509
50.5098
50.5105
50.5112
50.512
50.5127
50.5135
50.5142
50.515
50.5158
50.5166
50.5174
50.5182
50.5191
50.5199
50.5208
50.5216
50.5225
50.5234
50.5243
50.5252
50.5262
50.5271
50.5281
50.529
50.53
50.531
50.532
50.5331
50.5341
50.5352
50.5362
50.5373
50.5384
50.5395
50.5406
50.5418
50.5429
50.5441
50.5453
50.5465
50.5477
50.5489
50.5502
50.5514
50.5527
50.554
50.5553
50.5566
50.5579
50.5593
50.5606
50.562
50.5634
50.5648
50.5662
50.5677
50.5691
50.5706
50.5721
50.5736
50.5751
50.5766
50.5782
50.5797
50.5813
50.5829
50.5845
50.5861
50.5878
50.5894
50.5911
50.5928
50.5945
50.5963
50.598
50.5998
50.6015
50.6033
50.6051
50.607
50.6088
50.6107
50.6125
50.6144
50.6163
50.6183
50.6202
50.6222
50.6241
50.6261
50.6282
50.6302
50.6322
50.6343
50.6364
50.6385
50.6406
50.6427
50.6449
50.647
50.6492
50.6514
50.6537
50.6559
50.6582
50.6604
50.6627
50.665
50.6674
50.6697
50.6721
50.6744
50.6768
50.6793
50.6817
50.6841
50.6866
50.6891
50.6916
50.6941
50.6967
50.6992
50.7018
50.7044
50.707
50.7097
50.7123
50.715
50.7177
50.7204
50.7231
50.7259
50.7286
50.7314
50.7342
50.737
50.7399
50.7427
50.7456
50.7485
50.7514
50.7543
50.7573
50.7603
50.7632
50.7662
50.7693
50.7723
50.7754
50.7785
50.7816
50.7847
50.7878
50.791
50.7942
50.7973
50.8006
50.8038
50.807
50.8103
50.8136
50.8169
50.8202
50.8236
50.827
50.8304
50.8338
50.8372
50.8406
50.8441
50.8476
50.8511
50.8546
50.8581
50.8617
50.8653
50.8689
50.8725
50.8761
50.8798
50.8834
50.8871
50.8909
50.8946
50.8983
50.9021
50.9059
50.9097
50.9135
50.9174
50.9213
50.9251
50.929
50.933
50.9369
50.9409
50.9449
50.9489
50.9529
50.9569
50.961
50.9651
50.9692
50.9733
50.9774
50.9816
50.9857
50.9899
50.9941
50.9984
51.0026
51.0069
51.0112
51.0155
51.0198
51.0242
51.0285
51.0329
51.0373
51.0417
51.0462
51.0506
51.0551
51.0596
51.0641
51.0687
51.0732
51.0778
51.0824
51.087
51.0916
51.0963
51.1009
51.1056
51.1103
51.115
51.1198
51.1245
51.1293
51.1341
51.1389
51.1437
51.1486
51.1534
51.1584
51.1632
51.1682
51.173
51.1781
51.1829
51.1881
51.1929
51.1982
51.203
51.2083
51.2131
51.2186
51.2235
51.2292
51.2345
51.2415
51.2471
50.4796
50.4796
50.4796
50.4796
50.4796
50.4796
50.4796
50.4796
50.4796
50.4797
50.4797
50.4797
50.4797
50.4797
50.4797
50.4797
50.4798
50.4798
50.4798
50.4798
50.4798
50.4799
50.4799
50.4799
50.48
50.48
50.48
50.4801
50.4801
50.4801
50.4802
50.4802
50.4802
50.4803
50.4803
50.4804
50.4804
50.4805
50.4805
50.4806
50.4807
50.4807
50.4808
50.4808
50.4809
50.481
50.4811
50.4811
50.4812
50.4813
50.4814
50.4815
50.4815
50.4816
50.4817
50.4818
50.4819
50.482
50.4821
50.4823
50.4824
50.4825
50.4826
50.4827
50.4829
50.483
50.4831
50.4833
50.4834
50.4835
50.4837
50.4838
50.4839
50.484
50.4842
50.4843
50.4845
50.4847
50.4849
50.4851
50.4853
50.4855
50.4858
50.486
50.4863
50.4866
50.4868
50.4871
50.4873
50.4876
50.4878
50.4881
50.4884
50.4886
50.4889
50.4891
50.4894
50.4897
50.49
50.4903
50.4906
50.4909
50.4913
50.4916
50.492
50.4924
50.4927
50.4931
50.4935
50.4939
50.4943
50.4947
50.4952
50.4956
50.4961
50.4966
50.4971
50.4976
50.4981
50.4986
50.4991
50.4996
50.5002
50.5007
50.5012
50.5018
50.5023
50.5028
50.5034
50.5039
50.5045
50.5051
50.5057
50.5063
50.507
50.5076
50.5083
50.509
50.5098
50.5105
50.5112
50.512
50.5127
50.5135
50.5143
50.515
50.5158
50.5166
50.5174
50.5182
50.5191
50.5199
50.5208
50.5216
50.5225
50.5234
50.5243
50.5252
50.5262
50.5271
50.5281
50.529
50.53
50.531
50.532
50.5331
50.5341
50.5352
50.5362
50.5373
50.5384
50.5395
50.5406
50.5418
50.5429
50.5441
50.5453
50.5465
50.5477
50.5489
50.5502
50.5514
50.5527
50.554
50.5553
50.5566
50.5579
50.5593
50.5606
50.562
50.5634
50.5648
50.5662
50.5677
50.5691
50.5706
50.5721
50.5736
50.5751
50.5766
50.5782
50.5797
50.5813
50.5829
50.5845
50.5861
50.5878
50.5894
50.5911
50.5928
50.5945
50.5963
50.598
50.5998
50.6015
50.6033
50.6051
50.607
50.6088
50.6107
50.6125
50.6144
50.6163
50.6183
50.6202
50.6222
50.6241
50.6261
50.6282
50.6302
50.6322
50.6343
50.6364
50.6385
50.6406
50.6427
50.6449
50.647
50.6492
50.6514
50.6537
50.6559
50.6582
50.6604
50.6627
50.665
50.6674
50.6697
50.6721
50.6744
50.6768
50.6793
50.6817
50.6841
50.6866
50.6891
50.6916
50.6941
50.6967
50.6992
50.7018
50.7044
50.707
50.7097
50.7123
50.715
50.7177
50.7204
50.7231
50.7259
50.7286
50.7314
50.7342
50.737
50.7399
50.7427
50.7456
50.7485
50.7514
50.7543
50.7573
50.7603
50.7632
50.7662
50.7693
50.7723
50.7754
50.7785
50.7816
50.7847
50.7878
50.791
50.7942
50.7973
50.8006
50.8038
50.807
50.8103
50.8136
50.8169
50.8202
50.8236
50.827
50.8304
50.8338
50.8372
50.8406
50.8441
50.8476
50.8511
50.8546
50.8581
50.8617
50.8653
50.8689
50.8725
50.8761
50.8798
50.8834
50.8871
50.8909
50.8946
50.8983
50.9021
50.9059
50.9097
50.9135
50.9174
50.9213
50.9251
50.929
50.933
50.9369
50.9409
50.9449
50.9489
50.9529
50.9569
50.961
50.9651
50.9692
50.9733
50.9774
50.9816
50.9857
50.9899
50.9941
50.9984
51.0026
51.0069
51.0112
51.0155
51.0198
51.0242
51.0285
51.0329
51.0373
51.0417
51.0462
51.0506
51.0551
51.0596
51.0641
51.0687
51.0732
51.0778
51.0824
51.087
51.0916
51.0963
51.1009
51.1056
51.1103
51.115
51.1198
51.1245
51.1293
51.1341
51.1389
51.1437
51.1486
51.1534
51.1584
51.1632
51.1682
51.173
51.1781
51.1829
51.1881
51.1929
51.1982
51.203
51.2083
51.2131
51.2186
51.2235
51.2292
51.2345
51.2414
51.2474
50.4796
50.4796
50.4796
50.4796
50.4796
50.4796
50.4796
50.4796
50.4796
50.4796
50.4797
50.4797
50.4797
50.4797
50.4797
50.4797
50.4797
50.4798
50.4798
50.4798
50.4798
50.4799
50.4799
50.4799
50.4799
50.48
50.48
50.48
50.4801
50.4801
50.4802
50.4802
50.4802
50.4803
50.4803
50.4804
50.4804
50.4805
50.4805
50.4806
50.4806
50.4807
50.4808
50.4808
50.4809
50.481
50.481
50.4811
50.4812
50.4813
50.4814
50.4814
50.4815
50.4816
50.4817
50.4818
50.4819
50.482
50.4821
50.4822
50.4824
50.4825
50.4826
50.4827
50.4828
50.483
50.4831
50.4833
50.4834
50.4835
50.4837
50.4838
50.4839
50.484
50.4842
50.4843
50.4845
50.4847
50.4849
50.4851
50.4853
50.4855
50.4858
50.486
50.4863
50.4865
50.4868
50.4871
50.4873
50.4876
50.4878
50.4881
50.4884
50.4886
50.4889
50.4891
50.4894
50.4897
50.49
50.4903
50.4906
50.4909
50.4913
50.4916
50.492
50.4924
50.4927
50.4931
50.4935
50.4939
50.4943
50.4947
50.4952
50.4956
50.4961
50.4966
50.4971
50.4976
50.4981
50.4986
50.4991
50.4996
50.5002
50.5007
50.5012
50.5018
50.5023
50.5028
50.5034
50.5039
50.5045
50.5051
50.5057
50.5063
50.507
50.5076
50.5083
50.509
50.5098
50.5105
50.5112
50.512
50.5127
50.5135
50.5142
50.515
50.5158
50.5166
50.5174
50.5182
50.5191
50.5199
50.5208
50.5216
50.5225
50.5234
50.5243
50.5252
50.5262
50.5271
50.5281
50.529
50.53
50.531
50.532
50.5331
50.5341
50.5352
50.5362
50.5373
50.5384
50.5395
50.5406
50.5418
50.5429
50.5441
50.5453
50.5465
50.5477
50.5489
50.5502
50.5514
50.5527
50.554
50.5553
50.5566
50.5579
50.5593
50.5606
50.562
50.5634
50.5648
50.5662
50.5677
50.5691
50.5706
50.5721
50.5736
50.5751
50.5766
50.5782
50.5797
50.5813
50.5829
50.5845
50.5861
50.5878
50.5894
50.5911
50.5928
50.5945
50.5963
50.598
50.5998
50.6015
50.6033
50.6051
50.607
50.6088
50.6107
50.6125
50.6144
50.6163
50.6183
50.6202
50.6222
50.6241
50.6261
50.6282
50.6302
50.6322
50.6343
50.6364
50.6385
50.6406
50.6427
50.6449
50.647
50.6492
50.6514
50.6537
50.6559
50.6582
50.6604
50.6627
50.665
50.6674
50.6697
50.6721
50.6744
50.6768
50.6793
50.6817
50.6841
50.6866
50.6891
50.6916
50.6941
50.6967
50.6992
50.7018
50.7044
50.707
50.7097
50.7123
50.715
50.7177
50.7204
50.7231
50.7259
50.7286
50.7314
50.7342
50.737
50.7399
50.7427
50.7456
50.7485
50.7514
50.7543
50.7573
50.7603
50.7632
50.7662
50.7693
50.7723
50.7754
50.7785
50.7816
50.7847
50.7878
50.791
50.7942
50.7973
50.8006
50.8038
50.807
50.8103
50.8136
50.8169
50.8202
50.8236
50.827
50.8304
50.8338
50.8372
50.8406
50.8441
50.8476
50.8511
50.8546
50.8581
50.8617
50.8653
50.8689
50.8725
50.8761
50.8798
50.8834
50.8871
50.8909
50.8946
50.8983
50.9021
50.9059
50.9097
50.9135
50.9174
50.9213
50.9251
50.929
50.933
50.9369
50.9409
50.9449
50.9489
50.9529
50.9569
50.961
50.9651
50.9692
50.9733
50.9774
50.9816
50.9857
50.9899
50.9941
50.9984
51.0026
51.0069
51.0112
51.0155
51.0198
51.0242
51.0285
51.0329
51.0373
51.0417
51.0462
51.0506
51.0551
51.0596
51.0641
51.0687
51.0732
51.0778
51.0824
51.087
51.0916
51.0963
51.1009
51.1056
51.1103
51.115
51.1198
51.1245
51.1293
51.1341
51.1389
51.1437
51.1486
51.1534
51.1584
51.1632
51.1682
51.173
51.1781
51.1829
51.1881
51.1929
51.1982
51.203
51.2083
51.2131
51.2185
51.2235
51.2291
51.2344
51.2411
51.2478
50.4796
50.4796
50.4796
50.4796
50.4796
50.4796
50.4796
50.4796
50.4796
50.4796
50.4796
50.4797
50.4797
50.4797
50.4797
50.4797
50.4797
50.4798
50.4798
50.4798
50.4798
50.4799
50.4799
50.4799
50.4799
50.48
50.48
50.48
50.4801
50.4801
50.4801
50.4802
50.4802
50.4803
50.4803
50.4804
50.4804
50.4805
50.4805
50.4806
50.4806
50.4807
50.4808
50.4808
50.4809
50.481
50.481
50.4811
50.4812
50.4813
50.4814
50.4814
50.4815
50.4816
50.4817
50.4818
50.4819
50.482
50.4821
50.4822
50.4824
50.4825
50.4826
50.4827
50.4828
50.483
50.4831
50.4833
50.4834
50.4835
50.4837
50.4838
50.4839
50.484
50.4842
50.4843
50.4845
50.4847
50.4849
50.4851
50.4853
50.4855
50.4858
50.486
50.4863
50.4865
50.4868
50.4871
50.4873
50.4876
50.4878
50.4881
50.4884
50.4886
50.4889
50.4891
50.4894
50.4897
50.49
50.4903
50.4906
50.4909
50.4913
50.4916
50.492
50.4924
50.4927
50.4931
50.4935
50.4939
50.4943
50.4947
50.4952
50.4956
50.4961
50.4966
50.4971
50.4976
50.4981
50.4986
50.4991
50.4996
50.5002
50.5007
50.5012
50.5018
50.5023
50.5028
50.5034
50.5039
50.5045
50.5051
50.5057
50.5063
50.507
50.5076
50.5083
50.509
50.5098
50.5105
50.5112
50.512
50.5127
50.5135
50.5142
50.515
50.5158
50.5166
50.5174
50.5182
50.5191
50.5199
50.5208
50.5216
50.5225
50.5234
50.5243
50.5252
50.5262
50.5271
50.5281
50.529
50.53
50.531
50.532
50.5331
50.5341
50.5352
50.5362
50.5373
50.5384
50.5395
50.5406
50.5418
50.5429
50.5441
50.5453
50.5465
50.5477
50.5489
50.5502
50.5514
50.5527
50.554
50.5553
50.5566
50.5579
50.5593
50.5606
50.562
50.5634
50.5648
50.5662
50.5677
50.5691
50.5706
50.5721
50.5736
50.5751
50.5766
50.5782
50.5797
50.5813
50.5829
50.5845
50.5861
50.5878
50.5894
50.5911
50.5928
50.5945
50.5963
50.598
50.5998
50.6015
50.6033
50.6051
50.607
50.6088
50.6107
50.6125
50.6144
50.6163
50.6183
50.6202
50.6222
50.6241
50.6261
50.6282
50.6302
50.6322
50.6343
50.6364
50.6385
50.6406
50.6427
50.6449
50.647
50.6492
50.6514
50.6537
50.6559
50.6582
50.6604
50.6627
50.665
50.6674
50.6697
50.6721
50.6744
50.6768
50.6793
50.6817
50.6841
50.6866
50.6891
50.6916
50.6941
50.6967
50.6992
50.7018
50.7044
50.707
50.7097
50.7123
50.715
50.7177
50.7204
50.7231
50.7259
50.7286
50.7314
50.7342
50.737
50.7399
50.7427
50.7456
50.7485
50.7514
50.7543
50.7573
50.7603
50.7632
50.7662
50.7693
50.7723
50.7754
50.7785
50.7816
50.7847
50.7878
50.791
50.7942
50.7973
50.8006
50.8038
50.807
50.8103
50.8136
50.8169
50.8202
50.8236
50.827
50.8304
50.8338
50.8372
50.8406
50.8441
50.8476
50.8511
50.8546
50.8581
50.8617
50.8653
50.8689
50.8725
50.8761
50.8798
50.8834
50.8871
50.8909
50.8946
50.8983
50.9021
50.9059
50.9097
50.9135
50.9174
50.9213
50.9251
50.929
50.933
50.9369
50.9409
50.9449
50.9489
50.9529
50.9569
50.961
50.9651
50.9692
50.9733
50.9774
50.9816
50.9857
50.9899
50.9941
50.9984
51.0026
51.0069
51.0112
51.0155
51.0198
51.0242
51.0285
51.0329
51.0373
51.0417
51.0462
51.0506
51.0551
51.0596
51.0641
51.0687
51.0732
51.0778
51.0824
51.087
51.0916
51.0963
51.1009
51.1056
51.1103
51.115
51.1198
51.1245
51.1293
51.1341
51.1389
51.1437
51.1486
51.1534
51.1584
51.1632
51.1682
51.173
51.1781
51.1829
51.1881
51.1929
51.1982
51.203
51.2083
51.2131
51.2185
51.2234
51.2289
51.2339
51.2399
51.2453
50.4796
50.4796
50.4796
50.4796
50.4796
50.4796
50.4796
50.4796
50.4796
50.4796
50.4796
50.4797
50.4797
50.4797
50.4797
50.4797
50.4797
50.4798
50.4798
50.4798
50.4798
50.4799
50.4799
50.4799
50.4799
50.48
50.48
50.48
50.4801
50.4801
50.4801
50.4802
50.4802
50.4803
50.4803
50.4804
50.4804
50.4805
50.4805
50.4806
50.4806
50.4807
50.4808
50.4808
50.4809
50.481
50.481
50.4811
50.4812
50.4813
50.4814
50.4814
50.4815
50.4816
50.4817
50.4818
50.4819
50.482
50.4821
50.4822
50.4824
50.4825
50.4826
50.4827
50.4828
50.483
50.4831
50.4833
50.4834
50.4835
50.4837
50.4838
50.4839
50.484
50.4842
50.4843
50.4845
50.4847
50.4849
50.4851
50.4853
50.4855
50.4858
50.486
50.4863
50.4865
50.4868
50.4871
50.4873
50.4876
50.4878
50.4881
50.4884
50.4886
50.4889
50.4891
50.4894
50.4897
50.49
50.4903
50.4906
50.4909
50.4913
50.4916
50.492
50.4924
50.4927
50.4931
50.4935
50.4939
50.4943
50.4947
50.4952
50.4956
50.4961
50.4966
50.4971
50.4976
50.4981
50.4986
50.4991
50.4996
50.5002
50.5007
50.5012
50.5018
50.5023
50.5028
50.5034
50.5039
50.5045
50.5051
50.5057
50.5063
50.507
50.5076
50.5083
50.509
50.5098
50.5105
50.5112
50.512
50.5127
50.5135
50.5142
50.515
50.5158
50.5166
50.5174
50.5182
50.5191
50.5199
50.5208
50.5216
50.5225
50.5234
50.5243
50.5252
50.5262
50.5271
50.5281
50.529
50.53
50.531
50.532
50.5331
50.5341
50.5352
50.5362
50.5373
50.5384
50.5395
50.5406
50.5418
50.5429
50.5441
50.5453
50.5465
50.5477
50.5489
50.5502
50.5514
50.5527
50.554
50.5553
50.5566
50.5579
50.5593
50.5606
50.562
50.5634
50.5648
50.5662
50.5677
50.5691
50.5706
50.5721
50.5736
50.5751
50.5766
50.5782
50.5797
50.5813
50.5829
50.5845
50.5861
50.5878
50.5894
50.5911
50.5928
50.5945
50.5963
50.598
50.5998
50.6015
50.6033
50.6051
50.607
50.6088
50.6107
50.6125
50.6144
50.6163
50.6183
50.6202
50.6222
50.6241
50.6261
50.6282
50.6302
50.6322
50.6343
50.6364
50.6385
50.6406
50.6427
50.6449
50.647
50.6492
50.6514
50.6537
50.6559
50.6582
50.6604
50.6627
50.665
50.6674
50.6697
50.6721
50.6744
50.6768
50.6793
50.6817
50.6841
50.6866
50.6891
50.6916
50.6941
50.6967
50.6992
50.7018
50.7044
50.707
50.7097
50.7123
50.715
50.7177
50.7204
50.7231
50.7259
50.7286
50.7314
50.7342
50.737
50.7399
50.7427
50.7456
50.7485
50.7514
50.7543
50.7573
50.7603
50.7632
50.7662
50.7693
50.7723
50.7754
50.7785
50.7816
50.7847
50.7878
50.791
50.7942
50.7973
50.8006
50.8038
50.807
50.8103
50.8136
50.8169
50.8202
50.8236
50.827
50.8304
50.8338
50.8372
50.8406
50.8441
50.8476
50.8511
50.8546
50.8581
50.8617
50.8653
50.8689
50.8725
50.8761
50.8798
50.8834
50.8871
50.8909
50.8946
50.8983
50.9021
50.9059
50.9097
50.9135
50.9174
50.9213
50.9251
50.929
50.933
50.9369
50.9409
50.9449
50.9489
50.9529
50.9569
50.961
50.9651
50.9692
50.9733
50.9774
50.9816
50.9857
50.9899
50.9941
50.9984
51.0026
51.0069
51.0112
51.0155
51.0198
51.0242
51.0285
51.0329
51.0373
51.0417
51.0462
51.0506
51.0551
51.0596
51.0641
51.0687
51.0732
51.0778
51.0824
51.087
51.0916
51.0963
51.1009
51.1056
51.1103
51.115
51.1198
51.1245
51.1293
51.1341
51.1389
51.1437
51.1486
51.1535
51.1583
51.1632
51.1682
51.1731
51.1781
51.183
51.1881
51.193
51.198
51.2031
51.2081
51.2133
51.2183
51.2234
51.2285
51.2333
51.2382
51.2421
50.4796
50.4796
50.4796
50.4796
50.4796
50.4796
50.4796
50.4796
50.4796
50.4796
50.4797
50.4797
50.4797
50.4797
50.4797
50.4797
50.4797
50.4798
50.4798
50.4798
50.4798
50.4799
50.4799
50.4799
50.4799
50.48
50.48
50.48
50.4801
50.4801
50.4802
50.4802
50.4802
50.4803
50.4803
50.4804
50.4804
50.4805
50.4805
50.4806
50.4806
50.4807
50.4808
50.4808
50.4809
50.481
50.481
50.4811
50.4812
50.4813
50.4814
50.4814
50.4815
50.4816
50.4817
50.4818
50.4819
50.482
50.4821
50.4822
50.4824
50.4825
50.4826
50.4827
50.4828
50.483
50.4831
50.4833
50.4834
50.4835
50.4837
50.4838
50.4839
50.484
50.4842
50.4843
50.4845
50.4847
50.4849
50.4851
50.4853
50.4855
50.4858
50.486
50.4863
50.4865
50.4868
50.4871
50.4873
50.4876
50.4878
50.4881
50.4884
50.4886
50.4889
50.4891
50.4894
50.4897
50.49
50.4903
50.4906
50.4909
50.4913
50.4916
50.492
50.4924
50.4927
50.4931
50.4935
50.4939
50.4943
50.4947
50.4952
50.4956
50.4961
50.4966
50.4971
50.4976
50.4981
50.4986
50.4991
50.4996
50.5002
50.5007
50.5012
50.5018
50.5023
50.5028
50.5034
50.5039
50.5045
50.5051
50.5057
50.5063
50.507
50.5076
50.5083
50.509
50.5098
50.5105
50.5112
50.512
50.5127
50.5135
50.5142
50.515
50.5158
50.5166
50.5174
50.5182
50.5191
50.5199
50.5208
50.5216
50.5225
50.5234
50.5243
50.5252
50.5262
50.5271
50.5281
50.529
50.53
50.531
50.532
50.5331
50.5341
50.5352
50.5362
50.5373
50.5384
50.5395
50.5406
50.5418
50.5429
50.5441
50.5453
50.5465
50.5477
50.5489
50.5502
50.5514
50.5527
50.554
50.5553
50.5566
50.5579
50.5593
50.5606
50.562
50.5634
50.5648
50.5662
50.5677
50.5691
50.5706
50.5721
50.5736
50.5751
50.5766
50.5782
50.5797
50.5813
50.5829
50.5845
50.5861
50.5878
50.5894
50.5911
50.5928
50.5945
50.5963
50.598
50.5998
50.6015
50.6033
50.6051
50.607
50.6088
50.6107
50.6125
50.6144
50.6163
50.6183
50.6202
50.6222
50.6241
50.6261
50.6282
50.6302
50.6322
50.6343
50.6364
50.6385
50.6406
50.6427
50.6449
50.647
50.6492
50.6514
50.6537
50.6559
50.6582
50.6604
50.6627
50.665
50.6674
50.6697
50.6721
50.6744
50.6768
50.6793
50.6817
50.6841
50.6866
50.6891
50.6916
50.6941
50.6967
50.6992
50.7018
50.7044
50.707
50.7097
50.7123
50.715
50.7177
50.7204
50.7231
50.7259
50.7286
50.7314
50.7342
50.737
50.7399
50.7427
50.7456
50.7485
50.7514
50.7543
50.7573
50.7603
50.7632
50.7662
50.7693
50.7723
50.7754
50.7785
50.7816
50.7847
50.7878
50.791
50.7942
50.7973
50.8006
50.8038
50.807
50.8103
50.8136
50.8169
50.8202
50.8236
50.827
50.8304
50.8338
50.8372
50.8406
50.8441
50.8476
50.8511
50.8546
50.8581
50.8617
50.8653
50.8689
50.8725
50.8761
50.8798
50.8834
50.8871
50.8909
50.8946
50.8983
50.9021
50.9059
50.9097
50.9135
50.9174
50.9213
50.9251
50.929
50.933
50.9369
50.9409
50.9449
50.9489
50.9529
50.9569
50.961
50.9651
50.9692
50.9733
50.9774
50.9816
50.9857
50.9899
50.9941
50.9984
51.0026
51.0069
51.0112
51.0155
51.0198
51.0242
51.0285
51.0329
51.0373
51.0417
51.0462
51.0506
51.0551
51.0596
51.0641
51.0687
51.0732
51.0778
51.0824
51.087
51.0916
51.0963
51.1009
51.1056
51.1103
51.115
51.1198
51.1245
51.1293
51.1341
51.1389
51.1437
51.1486
51.1534
51.1583
51.1632
51.1682
51.1731
51.178
51.1831
51.1879
51.1931
51.198
51.2031
51.2082
51.2131
51.2184
51.2232
51.2282
51.2328
51.2365
51.24
50.4796
50.4796
50.4796
50.4796
50.4796
50.4796
50.4796
50.4796
50.4796
50.4797
50.4797
50.4797
50.4797
50.4797
50.4797
50.4797
50.4798
50.4798
50.4798
50.4798
50.4798
50.4799
50.4799
50.4799
50.48
50.48
50.48
50.4801
50.4801
50.4801
50.4802
50.4802
50.4802
50.4803
50.4803
50.4804
50.4804
50.4805
50.4805
50.4806
50.4807
50.4807
50.4808
50.4808
50.4809
50.481
50.4811
50.4811
50.4812
50.4813
50.4814
50.4815
50.4815
50.4816
50.4817
50.4818
50.4819
50.482
50.4821
50.4823
50.4824
50.4825
50.4826
50.4827
50.4829
50.483
50.4831
50.4833
50.4834
50.4835
50.4837
50.4838
50.4839
50.484
50.4842
50.4843
50.4845
50.4847
50.4849
50.4851
50.4853
50.4855
50.4858
50.486
50.4863
50.4866
50.4868
50.4871
50.4873
50.4876
50.4878
50.4881
50.4884
50.4886
50.4889
50.4891
50.4894
50.4897
50.49
50.4903
50.4906
50.4909
50.4913
50.4916
50.492
50.4924
50.4927
50.4931
50.4935
50.4939
50.4943
50.4947
50.4952
50.4956
50.4961
50.4966
50.4971
50.4976
50.4981
50.4986
50.4991
50.4996
50.5002
50.5007
50.5012
50.5018
50.5023
50.5028
50.5034
50.5039
50.5045
50.5051
50.5057
50.5063
50.507
50.5076
50.5083
50.509
50.5098
50.5105
50.5112
50.512
50.5127
50.5135
50.5143
50.515
50.5158
50.5166
50.5174
50.5182
50.5191
50.5199
50.5208
50.5216
50.5225
50.5234
50.5243
50.5252
50.5262
50.5271
50.5281
50.529
50.53
50.531
50.532
50.5331
50.5341
50.5352
50.5362
50.5373
50.5384
50.5395
50.5406
50.5418
50.5429
50.5441
50.5453
50.5465
50.5477
50.5489
50.5502
50.5514
50.5527
50.554
50.5553
50.5566
50.5579
50.5593
50.5606
50.562
50.5634
50.5648
50.5662
50.5677
50.5691
50.5706
50.5721
50.5736
50.5751
50.5766
50.5782
50.5797
50.5813
50.5829
50.5845
50.5861
50.5878
50.5894
50.5911
50.5928
50.5945
50.5963
50.598
50.5998
50.6015
50.6033
50.6051
50.607
50.6088
50.6107
50.6125
50.6144
50.6163
50.6183
50.6202
50.6222
50.6241
50.6261
50.6282
50.6302
50.6322
50.6343
50.6364
50.6385
50.6406
50.6427
50.6449
50.647
50.6492
50.6514
50.6537
50.6559
50.6582
50.6604
50.6627
50.665
50.6674
50.6697
50.6721
50.6744
50.6768
50.6793
50.6817
50.6841
50.6866
50.6891
50.6916
50.6941
50.6967
50.6992
50.7018
50.7044
50.707
50.7097
50.7123
50.715
50.7177
50.7204
50.7231
50.7259
50.7286
50.7314
50.7342
50.737
50.7399
50.7427
50.7456
50.7485
50.7514
50.7543
50.7573
50.7603
50.7632
50.7662
50.7693
50.7723
50.7754
50.7785
50.7816
50.7847
50.7878
50.791
50.7942
50.7973
50.8006
50.8038
50.807
50.8103
50.8136
50.8169
50.8202
50.8236
50.827
50.8304
50.8338
50.8372
50.8406
50.8441
50.8476
50.8511
50.8546
50.8581
50.8617
50.8653
50.8689
50.8725
50.8761
50.8798
50.8834
50.8871
50.8909
50.8946
50.8983
50.9021
50.9059
50.9097
50.9135
50.9174
50.9213
50.9251
50.929
50.933
50.9369
50.9409
50.9449
50.9489
50.9529
50.9569
50.961
50.9651
50.9692
50.9733
50.9774
50.9816
50.9857
50.9899
50.9941
50.9984
51.0026
51.0069
51.0112
51.0155
51.0198
51.0242
51.0285
51.0329
51.0373
51.0417
51.0462
51.0506
51.0551
51.0596
51.0641
51.0687
51.0732
51.0778
51.0824
51.087
51.0916
51.0963
51.1009
51.1056
51.1103
51.115
51.1198
51.1245
51.1293
51.1341
51.1389
51.1437
51.1486
51.1534
51.1583
51.1632
51.1682
51.1731
51.178
51.1831
51.1879
51.1931
51.198
51.2032
51.2081
51.2133
51.2182
51.2234
51.2279
51.2329
51.2358
51.2439
50.4796
50.4796
50.4796
50.4796
50.4796
50.4796
50.4796
50.4796
50.4796
50.4797
50.4797
50.4797
50.4797
50.4797
50.4797
50.4797
50.4798
50.4798
50.4798
50.4798
50.4798
50.4799
50.4799
50.4799
50.48
50.48
50.48
50.4801
50.4801
50.4801
50.4802
50.4802
50.4803
50.4803
50.4803
50.4804
50.4804
50.4805
50.4805
50.4806
50.4807
50.4807
50.4808
50.4808
50.4809
50.481
50.4811
50.4811
50.4812
50.4813
50.4814
50.4815
50.4815
50.4816
50.4817
50.4818
50.4819
50.482
50.4821
50.4823
50.4824
50.4825
50.4826
50.4827
50.4829
50.483
50.4831
50.4833
50.4834
50.4835
50.4837
50.4838
50.4839
50.484
50.4842
50.4843
50.4845
50.4847
50.4849
50.4851
50.4853
50.4855
50.4858
50.486
50.4863
50.4866
50.4868
50.4871
50.4873
50.4876
50.4878
50.4881
50.4884
50.4886
50.4889
50.4891
50.4894
50.4897
50.49
50.4903
50.4906
50.4909
50.4913
50.4916
50.492
50.4924
50.4927
50.4931
50.4935
50.4939
50.4943
50.4947
50.4952
50.4956
50.4961
50.4966
50.4971
50.4976
50.4981
50.4986
50.4991
50.4996
50.5002
50.5007
50.5012
50.5018
50.5023
50.5028
50.5034
50.5039
50.5045
50.5051
50.5057
50.5063
50.507
50.5076
50.5083
50.509
50.5098
50.5105
50.5112
50.512
50.5127
50.5135
50.5142
50.515
50.5158
50.5166
50.5174
50.5182
50.5191
50.5199
50.5208
50.5216
50.5225
50.5234
50.5243
50.5252
50.5262
50.5271
50.5281
50.529
50.53
50.531
50.532
50.5331
50.5341
50.5352
50.5362
50.5373
50.5384
50.5395
50.5406
50.5418
50.5429
50.5441
50.5453
50.5465
50.5477
50.5489
50.5502
50.5514
50.5527
50.554
50.5553
50.5566
50.5579
50.5593
50.5606
50.562
50.5634
50.5648
50.5662
50.5677
50.5691
50.5706
50.5721
50.5736
50.5751
50.5766
50.5782
50.5797
50.5813
50.5829
50.5845
50.5861
50.5878
50.5894
50.5911
50.5928
50.5945
50.5963
50.598
50.5998
50.6015
50.6033
50.6051
50.607
50.6088
50.6107
50.6125
50.6144
50.6163
50.6183
50.6202
50.6222
50.6241
50.6261
50.6282
50.6302
50.6322
50.6343
50.6364
50.6385
50.6406
50.6427
50.6449
50.647
50.6492
50.6514
50.6537
50.6559
50.6582
50.6604
50.6627
50.665
50.6674
50.6697
50.6721
50.6744
50.6768
50.6793
50.6817
50.6841
50.6866
50.6891
50.6916
50.6941
50.6967
50.6992
50.7018
50.7044
50.707
50.7097
50.7123
50.715
50.7177
50.7204
50.7231
50.7259
50.7286
50.7314
50.7342
50.737
50.7399
50.7427
50.7456
50.7485
50.7514
50.7543
50.7573
50.7603
50.7632
50.7662
50.7693
50.7723
50.7754
50.7785
50.7816
50.7847
50.7878
50.791
50.7942
50.7973
50.8006
50.8038
50.807
50.8103
50.8136
50.8169
50.8202
50.8236
50.827
50.8304
50.8338
50.8372
50.8406
50.8441
50.8476
50.8511
50.8546
50.8581
50.8617
50.8653
50.8689
50.8725
50.8761
50.8798
50.8834
50.8871
50.8909
50.8946
50.8983
50.9021
50.9059
50.9097
50.9135
50.9174
50.9213
50.9251
50.929
50.933
50.9369
50.9409
50.9449
50.9489
50.9529
50.9569
50.961
50.9651
50.9692
50.9733
50.9774
50.9816
50.9857
50.9899
50.9941
50.9984
51.0026
51.0069
51.0112
51.0155
51.0198
51.0242
51.0285
51.0329
51.0373
51.0417
51.0462
51.0506
51.0551
51.0596
51.0641
51.0687
51.0732
51.0778
51.0824
51.087
51.0916
51.0963
51.1009
51.1056
51.1103
51.115
51.1198
51.1245
51.1293
51.1341
51.1389
51.1437
51.1486
51.1534
51.1583
51.1632
51.1682
51.1731
51.178
51.1831
51.1879
51.1931
51.1979
51.2032
51.208
51.2134
51.2181
51.2234
51.2279
51.2328
51.2355
51.2469
50.4791
50.4791
50.4791
50.4791
50.4791
50.4791
50.4791
50.4792
50.4792
50.4792
50.4792
50.4792
50.4792
50.4792
50.4792
50.4793
50.4793
50.4793
50.4793
50.4794
50.4794
50.4794
50.4794
50.4795
50.4795
50.4795
50.4796
50.4796
50.4796
50.4797
50.4797
50.4797
50.4798
50.4798
50.4799
50.4799
50.48
50.48
50.4801
50.4801
50.4802
50.4803
50.4803
50.4804
50.4805
50.4805
50.4806
50.4807
50.4808
50.4808
50.4809
50.481
50.4811
50.4812
50.4813
50.4814
50.4815
50.4816
50.4817
50.4818
50.4819
50.4821
50.4822
50.4823
50.4824
50.4826
50.4827
50.4828
50.483
50.4831
50.4832
50.4834
50.4835
50.4836
50.4838
50.4839
50.4841
50.4843
50.4845
50.4847
50.4849
50.4851
50.4854
50.4856
50.4859
50.4862
50.4864
50.4867
50.4869
50.4872
50.4874