/*--------------------------------*- C++ -*----------------------------------*\
| =========                 |                                                 |
| \\      /  F ield         | OpenFOAM: The Open Source CFD Toolbox           |
|  \\    /   O peration     | Version:  3.0.x                                 |
|   \\  /    A nd           | Web:      www.OpenFOAM.org                      |
|    \\/     M anipulation  |                                                 |
\*---------------------------------------------------------------------------*/
FoamFile
{
    version     2.0;
    format      ascii;
    class       volScalarField;
    location    "0.27";
    object      p;
}
// * * * * * * * * * * * * * * * * * * * * * * * * * * * * * * * * * * * * * //

dimensions      [1 -1 -2 0 0 0 0];

internalField   nonuniform List<scalar> 
6900
(
1.8191e+07
1.8191e+07
1.8191e+07
1.81909e+07
1.81909e+07
1.81909e+07
1.81908e+07
1.81908e+07
1.81907e+07
1.81907e+07
1.81906e+07
1.81905e+07
1.81904e+07
1.81904e+07
1.81903e+07
1.81902e+07
1.81901e+07
1.819e+07
1.81899e+07
1.81897e+07
1.81896e+07
1.81895e+07
1.81894e+07
1.81893e+07
1.81891e+07
1.8189e+07
1.81889e+07
1.81888e+07
1.81886e+07
1.81885e+07
1.81884e+07
1.81882e+07
1.81881e+07
1.81879e+07
1.81878e+07
1.81876e+07
1.81874e+07
1.81873e+07
1.81871e+07
1.81869e+07
1.81868e+07
1.81866e+07
1.81864e+07
1.81862e+07
1.8186e+07
1.81858e+07
1.81856e+07
1.81854e+07
1.81852e+07
1.8185e+07
1.81847e+07
1.81845e+07
1.81843e+07
1.81841e+07
1.81839e+07
1.81836e+07
1.81834e+07
1.81832e+07
1.8183e+07
1.81828e+07
1.81826e+07
1.81824e+07
1.81821e+07
1.81819e+07
1.81817e+07
1.81815e+07
1.81813e+07
1.81811e+07
1.81809e+07
1.81807e+07
1.81805e+07
1.81803e+07
1.81801e+07
1.81798e+07
1.81796e+07
1.81794e+07
1.81792e+07
1.81789e+07
1.81787e+07
1.81784e+07
1.81782e+07
1.81779e+07
1.81776e+07
1.81773e+07
1.81771e+07
1.81768e+07
1.81765e+07
1.81762e+07
1.81759e+07
1.81756e+07
1.81753e+07
1.81751e+07
1.81748e+07
1.81745e+07
1.81742e+07
1.8174e+07
1.81737e+07
1.81735e+07
1.81732e+07
1.8173e+07
1.81728e+07
1.81726e+07
1.81724e+07
1.81722e+07
1.81721e+07
1.81719e+07
1.81718e+07
1.81716e+07
1.81715e+07
1.81714e+07
1.81712e+07
1.81711e+07
1.8171e+07
1.81709e+07
1.81708e+07
1.81707e+07
1.81706e+07
1.81705e+07
1.81703e+07
1.81702e+07
1.81701e+07
1.817e+07
1.81699e+07
1.81698e+07
1.81697e+07
1.81696e+07
1.81695e+07
1.81694e+07
1.81693e+07
1.81692e+07
1.81692e+07
1.81691e+07
1.8169e+07
1.8169e+07
1.81689e+07
1.81689e+07
1.81689e+07
1.81689e+07
1.81689e+07
1.81689e+07
1.81689e+07
1.81689e+07
1.81689e+07
1.8169e+07
1.8169e+07
1.81691e+07
1.81691e+07
1.81691e+07
1.81692e+07
1.81692e+07
1.81692e+07
1.81692e+07
1.81693e+07
1.81692e+07
1.81692e+07
1.81692e+07
1.81692e+07
1.81692e+07
1.81691e+07
1.81691e+07
1.81691e+07
1.8169e+07
1.8169e+07
1.81689e+07
1.81689e+07
1.81688e+07
1.81688e+07
1.81687e+07
1.81687e+07
1.81687e+07
1.81686e+07
1.81686e+07
1.81686e+07
1.81686e+07
1.81686e+07
1.81687e+07
1.81687e+07
1.81687e+07
1.81688e+07
1.81688e+07
1.81689e+07
1.8169e+07
1.8169e+07
1.81691e+07
1.81691e+07
1.81691e+07
1.81691e+07
1.81691e+07
1.8169e+07
1.8169e+07
1.81689e+07
1.81688e+07
1.81687e+07
1.81686e+07
1.81685e+07
1.81683e+07
1.81682e+07
1.81681e+07
1.81681e+07
1.81686e+07
1.8191e+07
1.8191e+07
1.8191e+07
1.81909e+07
1.81909e+07
1.81909e+07
1.81908e+07
1.81908e+07
1.81907e+07
1.81907e+07
1.81906e+07
1.81905e+07
1.81904e+07
1.81904e+07
1.81903e+07
1.81902e+07
1.81901e+07
1.819e+07
1.81899e+07
1.81897e+07
1.81896e+07
1.81895e+07
1.81894e+07
1.81893e+07
1.81891e+07
1.8189e+07
1.81889e+07
1.81888e+07
1.81886e+07
1.81885e+07
1.81884e+07
1.81882e+07
1.81881e+07
1.81879e+07
1.81878e+07
1.81876e+07
1.81874e+07
1.81873e+07
1.81871e+07
1.81869e+07
1.81868e+07
1.81866e+07
1.81864e+07
1.81862e+07
1.8186e+07
1.81858e+07
1.81856e+07
1.81854e+07
1.81852e+07
1.8185e+07
1.81847e+07
1.81845e+07
1.81843e+07
1.81841e+07
1.81839e+07
1.81836e+07
1.81834e+07
1.81832e+07
1.8183e+07
1.81828e+07
1.81826e+07
1.81824e+07
1.81821e+07
1.81819e+07
1.81817e+07
1.81815e+07
1.81813e+07
1.81811e+07
1.81809e+07
1.81807e+07
1.81805e+07
1.81803e+07
1.81801e+07
1.81798e+07
1.81796e+07
1.81794e+07
1.81792e+07
1.81789e+07
1.81787e+07
1.81784e+07
1.81782e+07
1.81779e+07
1.81776e+07
1.81773e+07
1.81771e+07
1.81768e+07
1.81765e+07
1.81762e+07
1.81759e+07
1.81756e+07
1.81753e+07
1.81751e+07
1.81748e+07
1.81745e+07
1.81742e+07
1.8174e+07
1.81737e+07
1.81735e+07
1.81732e+07
1.8173e+07
1.81728e+07
1.81726e+07
1.81724e+07
1.81722e+07
1.81721e+07
1.81719e+07
1.81718e+07
1.81716e+07
1.81715e+07
1.81714e+07
1.81712e+07
1.81711e+07
1.8171e+07
1.81709e+07
1.81708e+07
1.81707e+07
1.81706e+07
1.81705e+07
1.81703e+07
1.81702e+07
1.81701e+07
1.817e+07
1.81699e+07
1.81698e+07
1.81697e+07
1.81696e+07
1.81695e+07
1.81694e+07
1.81693e+07
1.81692e+07
1.81692e+07
1.81691e+07
1.8169e+07
1.8169e+07
1.81689e+07
1.81689e+07
1.81689e+07
1.81689e+07
1.81689e+07
1.81689e+07
1.81689e+07
1.81689e+07
1.81689e+07
1.8169e+07
1.8169e+07
1.81691e+07
1.81691e+07
1.81691e+07
1.81692e+07
1.81692e+07
1.81692e+07
1.81692e+07
1.81693e+07
1.81692e+07
1.81692e+07
1.81692e+07
1.81692e+07
1.81692e+07
1.81691e+07
1.81691e+07
1.81691e+07
1.8169e+07
1.8169e+07
1.81689e+07
1.81689e+07
1.81688e+07
1.81688e+07
1.81687e+07
1.81687e+07
1.81687e+07
1.81686e+07
1.81686e+07
1.81686e+07
1.81686e+07
1.81686e+07
1.81687e+07
1.81687e+07
1.81687e+07
1.81688e+07
1.81688e+07
1.81689e+07
1.8169e+07
1.8169e+07
1.81691e+07
1.81691e+07
1.81691e+07
1.81691e+07
1.81691e+07
1.8169e+07
1.8169e+07
1.81689e+07
1.81688e+07
1.81687e+07
1.81686e+07
1.81685e+07
1.81683e+07
1.81682e+07
1.81681e+07
1.81681e+07
1.81686e+07
1.8191e+07
1.8191e+07
1.8191e+07
1.81909e+07
1.81909e+07
1.81909e+07
1.81908e+07
1.81908e+07
1.81907e+07
1.81907e+07
1.81906e+07
1.81905e+07
1.81904e+07
1.81904e+07
1.81903e+07
1.81902e+07
1.81901e+07
1.819e+07
1.81899e+07
1.81897e+07
1.81896e+07
1.81895e+07
1.81894e+07
1.81893e+07
1.81891e+07
1.8189e+07
1.81889e+07
1.81888e+07
1.81886e+07
1.81885e+07
1.81884e+07
1.81882e+07
1.81881e+07
1.81879e+07
1.81878e+07
1.81876e+07
1.81874e+07
1.81873e+07
1.81871e+07
1.81869e+07
1.81868e+07
1.81866e+07
1.81864e+07
1.81862e+07
1.8186e+07
1.81858e+07
1.81856e+07
1.81854e+07
1.81852e+07
1.8185e+07
1.81847e+07
1.81845e+07
1.81843e+07
1.81841e+07
1.81839e+07
1.81836e+07
1.81834e+07
1.81832e+07
1.8183e+07
1.81828e+07
1.81826e+07
1.81824e+07
1.81821e+07
1.81819e+07
1.81817e+07
1.81815e+07
1.81813e+07
1.81811e+07
1.81809e+07
1.81807e+07
1.81805e+07
1.81803e+07
1.81801e+07
1.81798e+07
1.81796e+07
1.81794e+07
1.81792e+07
1.81789e+07
1.81787e+07
1.81784e+07
1.81782e+07
1.81779e+07
1.81776e+07
1.81773e+07
1.81771e+07
1.81768e+07
1.81765e+07
1.81762e+07
1.81759e+07
1.81756e+07
1.81753e+07
1.81751e+07
1.81748e+07
1.81745e+07
1.81742e+07
1.8174e+07
1.81737e+07
1.81735e+07
1.81732e+07
1.8173e+07
1.81728e+07
1.81726e+07
1.81724e+07
1.81722e+07
1.81721e+07
1.81719e+07
1.81718e+07
1.81716e+07
1.81715e+07
1.81714e+07
1.81712e+07
1.81711e+07
1.8171e+07
1.81709e+07
1.81708e+07
1.81707e+07
1.81706e+07
1.81705e+07
1.81703e+07
1.81702e+07
1.81701e+07
1.817e+07
1.81699e+07
1.81698e+07
1.81697e+07
1.81696e+07
1.81695e+07
1.81694e+07
1.81693e+07
1.81692e+07
1.81692e+07
1.81691e+07
1.8169e+07
1.8169e+07
1.81689e+07
1.81689e+07
1.81689e+07
1.81689e+07
1.81689e+07
1.81689e+07
1.81689e+07
1.81689e+07
1.81689e+07
1.8169e+07
1.8169e+07
1.81691e+07
1.81691e+07
1.81691e+07
1.81692e+07
1.81692e+07
1.81692e+07
1.81692e+07
1.81693e+07
1.81692e+07
1.81692e+07
1.81692e+07
1.81692e+07
1.81692e+07
1.81691e+07
1.81691e+07
1.81691e+07
1.8169e+07
1.8169e+07
1.81689e+07
1.81689e+07
1.81688e+07
1.81688e+07
1.81687e+07
1.81687e+07
1.81687e+07
1.81686e+07
1.81686e+07
1.81686e+07
1.81686e+07
1.81686e+07
1.81687e+07
1.81687e+07
1.81687e+07
1.81688e+07
1.81688e+07
1.81689e+07
1.8169e+07
1.8169e+07
1.81691e+07
1.81691e+07
1.81691e+07
1.81691e+07
1.81691e+07
1.8169e+07
1.8169e+07
1.81689e+07
1.81688e+07
1.81687e+07
1.81686e+07
1.81685e+07
1.81683e+07
1.81682e+07
1.81681e+07
1.8168e+07
1.81679e+07
1.8191e+07
1.8191e+07
1.8191e+07
1.81909e+07
1.81909e+07
1.81909e+07
1.81908e+07
1.81908e+07
1.81907e+07
1.81907e+07
1.81906e+07
1.81905e+07
1.81904e+07
1.81904e+07
1.81903e+07
1.81902e+07
1.81901e+07
1.819e+07
1.81899e+07
1.81897e+07
1.81896e+07
1.81895e+07
1.81894e+07
1.81893e+07
1.81891e+07
1.8189e+07
1.81889e+07
1.81888e+07
1.81886e+07
1.81885e+07
1.81884e+07
1.81882e+07
1.81881e+07
1.81879e+07
1.81878e+07
1.81876e+07
1.81874e+07
1.81873e+07
1.81871e+07
1.81869e+07
1.81868e+07
1.81866e+07
1.81864e+07
1.81862e+07
1.8186e+07
1.81858e+07
1.81856e+07
1.81854e+07
1.81852e+07
1.8185e+07
1.81847e+07
1.81845e+07
1.81843e+07
1.81841e+07
1.81839e+07
1.81836e+07
1.81834e+07
1.81832e+07
1.8183e+07
1.81828e+07
1.81826e+07
1.81824e+07
1.81821e+07
1.81819e+07
1.81817e+07
1.81815e+07
1.81813e+07
1.81811e+07
1.81809e+07
1.81807e+07
1.81805e+07
1.81803e+07
1.81801e+07
1.81798e+07
1.81796e+07
1.81794e+07
1.81792e+07
1.81789e+07
1.81787e+07
1.81784e+07
1.81782e+07
1.81779e+07
1.81776e+07
1.81773e+07
1.81771e+07
1.81768e+07
1.81765e+07
1.81762e+07
1.81759e+07
1.81756e+07
1.81753e+07
1.81751e+07
1.81748e+07
1.81745e+07
1.81742e+07
1.8174e+07
1.81737e+07
1.81735e+07
1.81732e+07
1.8173e+07
1.81728e+07
1.81726e+07
1.81724e+07
1.81722e+07
1.81721e+07
1.81719e+07
1.81718e+07
1.81716e+07
1.81715e+07
1.81714e+07
1.81712e+07
1.81711e+07
1.8171e+07
1.81709e+07
1.81708e+07
1.81707e+07
1.81706e+07
1.81705e+07
1.81703e+07
1.81702e+07
1.81701e+07
1.817e+07
1.81699e+07
1.81698e+07
1.81697e+07
1.81696e+07
1.81695e+07
1.81694e+07
1.81693e+07
1.81692e+07
1.81692e+07
1.81691e+07
1.8169e+07
1.8169e+07
1.81689e+07
1.81689e+07
1.81689e+07
1.81689e+07
1.81689e+07
1.81689e+07
1.81689e+07
1.81689e+07
1.81689e+07
1.8169e+07
1.8169e+07
1.81691e+07
1.81691e+07
1.81691e+07
1.81692e+07
1.81692e+07
1.81692e+07
1.81692e+07
1.81693e+07
1.81692e+07
1.81692e+07
1.81692e+07
1.81692e+07
1.81692e+07
1.81691e+07
1.81691e+07
1.81691e+07
1.8169e+07
1.8169e+07
1.81689e+07
1.81689e+07
1.81688e+07
1.81688e+07
1.81687e+07
1.81687e+07
1.81687e+07
1.81686e+07
1.81686e+07
1.81686e+07
1.81686e+07
1.81686e+07
1.81687e+07
1.81687e+07
1.81687e+07
1.81688e+07
1.81688e+07
1.81689e+07
1.8169e+07
1.8169e+07
1.81691e+07
1.81691e+07
1.81691e+07
1.81691e+07
1.81691e+07
1.8169e+07
1.8169e+07
1.81689e+07
1.81688e+07
1.81687e+07
1.81686e+07
1.81685e+07
1.81683e+07
1.81682e+07
1.8168e+07
1.81677e+07
1.81668e+07
1.8191e+07
1.8191e+07
1.8191e+07
1.81909e+07
1.81909e+07
1.81909e+07
1.81908e+07
1.81908e+07
1.81907e+07
1.81907e+07
1.81906e+07
1.81905e+07
1.81904e+07
1.81904e+07
1.81903e+07
1.81902e+07
1.81901e+07
1.819e+07
1.81899e+07
1.81897e+07
1.81896e+07
1.81895e+07
1.81894e+07
1.81893e+07
1.81891e+07
1.8189e+07
1.81889e+07
1.81888e+07
1.81886e+07
1.81885e+07
1.81884e+07
1.81882e+07
1.81881e+07
1.81879e+07
1.81878e+07
1.81876e+07
1.81874e+07
1.81873e+07
1.81871e+07
1.81869e+07
1.81868e+07
1.81866e+07
1.81864e+07
1.81862e+07
1.8186e+07
1.81858e+07
1.81856e+07
1.81854e+07
1.81852e+07
1.8185e+07
1.81847e+07
1.81845e+07
1.81843e+07
1.81841e+07
1.81839e+07
1.81836e+07
1.81834e+07
1.81832e+07
1.8183e+07
1.81828e+07
1.81826e+07
1.81824e+07
1.81821e+07
1.81819e+07
1.81817e+07
1.81815e+07
1.81813e+07
1.81811e+07
1.81809e+07
1.81807e+07
1.81805e+07
1.81803e+07
1.81801e+07
1.81798e+07
1.81796e+07
1.81794e+07
1.81792e+07
1.81789e+07
1.81787e+07
1.81784e+07
1.81782e+07
1.81779e+07
1.81776e+07
1.81773e+07
1.81771e+07
1.81768e+07
1.81765e+07
1.81762e+07
1.81759e+07
1.81756e+07
1.81753e+07
1.81751e+07
1.81748e+07
1.81745e+07
1.81742e+07
1.8174e+07
1.81737e+07
1.81735e+07
1.81732e+07
1.8173e+07
1.81728e+07
1.81726e+07
1.81724e+07
1.81722e+07
1.81721e+07
1.81719e+07
1.81718e+07
1.81716e+07
1.81715e+07
1.81714e+07
1.81712e+07
1.81711e+07
1.8171e+07
1.81709e+07
1.81708e+07
1.81707e+07
1.81706e+07
1.81705e+07
1.81703e+07
1.81702e+07
1.81701e+07
1.817e+07
1.81699e+07
1.81698e+07
1.81697e+07
1.81696e+07
1.81695e+07
1.81694e+07
1.81693e+07
1.81692e+07
1.81692e+07
1.81691e+07
1.8169e+07
1.8169e+07
1.81689e+07
1.81689e+07
1.81689e+07
1.81689e+07
1.81689e+07
1.81689e+07
1.81689e+07
1.81689e+07
1.81689e+07
1.8169e+07
1.8169e+07
1.81691e+07
1.81691e+07
1.81691e+07
1.81692e+07
1.81692e+07
1.81692e+07
1.81692e+07
1.81693e+07
1.81692e+07
1.81692e+07
1.81692e+07
1.81692e+07
1.81692e+07
1.81691e+07
1.81691e+07
1.81691e+07
1.8169e+07
1.8169e+07
1.81689e+07
1.81689e+07
1.81688e+07
1.81688e+07
1.81687e+07
1.81687e+07
1.81687e+07
1.81686e+07
1.81686e+07
1.81686e+07
1.81686e+07
1.81686e+07
1.81687e+07
1.81687e+07
1.81687e+07
1.81688e+07
1.81688e+07
1.81689e+07
1.8169e+07
1.8169e+07
1.81691e+07
1.81691e+07
1.81691e+07
1.81691e+07
1.81691e+07
1.8169e+07
1.8169e+07
1.81689e+07
1.81688e+07
1.81687e+07
1.81686e+07
1.81685e+07
1.81683e+07
1.81682e+07
1.8168e+07
1.81677e+07
1.81668e+07
1.81747e+07
1.81774e+07
1.81776e+07
1.8177e+07
1.81763e+07
1.81759e+07
1.81755e+07
1.81749e+07
1.81732e+07
1.81704e+07
1.81677e+07
1.81658e+07
1.81642e+07
1.81633e+07
1.81663e+07
1.81692e+07
1.81691e+07
1.81643e+07
1.8156e+07
1.81474e+07
1.81732e+07
1.81744e+07
1.81743e+07
1.81736e+07
1.8173e+07
1.81725e+07
1.81721e+07
1.81714e+07
1.81696e+07
1.81665e+07
1.81639e+07
1.81621e+07
1.81606e+07
1.81598e+07
1.8163e+07
1.81655e+07
1.81646e+07
1.81587e+07
1.81495e+07
1.81412e+07
1.81681e+07
1.8168e+07
1.81675e+07
1.81666e+07
1.81655e+07
1.8164e+07
1.81623e+07
1.81603e+07
1.81581e+07
1.81557e+07
1.8153e+07
1.81498e+07
1.81463e+07
1.81426e+07
1.81383e+07
1.81342e+07
1.81303e+07
1.81268e+07
1.81233e+07
1.81196e+07
1.81581e+07
1.81571e+07
1.81575e+07
1.8158e+07
1.81575e+07
1.81558e+07
1.81535e+07
1.81504e+07
1.81478e+07
1.81446e+07
1.81417e+07
1.81388e+07
1.8136e+07
1.81334e+07
1.81309e+07
1.81286e+07
1.81265e+07
1.81246e+07
1.81231e+07
1.81222e+07
1.81534e+07
1.81485e+07
1.81468e+07
1.81466e+07
1.81458e+07
1.81439e+07
1.81413e+07
1.81379e+07
1.81348e+07
1.81313e+07
1.8128e+07
1.81247e+07
1.81215e+07
1.81185e+07
1.81156e+07
1.8113e+07
1.81106e+07
1.81087e+07
1.81074e+07
1.81075e+07
1.8121e+07
1.8119e+07
1.81225e+07
1.812e+07
1.81176e+07
1.81169e+07
1.81169e+07
1.81168e+07
1.81165e+07
1.81163e+07
1.81161e+07
1.8116e+07
1.81158e+07
1.81157e+07
1.81155e+07
1.81153e+07
1.81151e+07
1.8115e+07
1.81148e+07
1.81146e+07
1.81144e+07
1.81143e+07
1.81141e+07
1.8114e+07
1.81138e+07
1.81137e+07
1.81136e+07
1.81134e+07
1.81132e+07
1.81131e+07
1.8113e+07
1.81129e+07
1.81128e+07
1.81127e+07
1.81126e+07
1.81125e+07
1.81124e+07
1.81124e+07
1.81123e+07
1.81122e+07
1.81121e+07
1.8112e+07
1.81119e+07
1.81118e+07
1.81117e+07
1.81116e+07
1.81115e+07
1.81114e+07
1.81113e+07
1.81112e+07
1.81111e+07
1.8111e+07
1.8111e+07
1.8111e+07
1.8111e+07
1.8111e+07
1.81109e+07
1.81109e+07
1.81109e+07
1.81108e+07
1.81108e+07
1.81107e+07
1.81106e+07
1.81105e+07
1.81103e+07
1.81101e+07
1.81099e+07
1.81097e+07
1.81095e+07
1.81092e+07
1.81089e+07
1.81087e+07
1.81084e+07
1.81082e+07
1.81079e+07
1.81076e+07
1.81074e+07
1.81072e+07
1.81069e+07
1.81067e+07
1.81065e+07
1.81063e+07
1.81061e+07
1.81059e+07
1.81057e+07
1.81055e+07
1.81054e+07
1.81052e+07
1.8105e+07
1.81049e+07
1.81047e+07
1.81046e+07
1.81044e+07
1.81043e+07
1.81041e+07
1.8104e+07
1.81038e+07
1.81036e+07
1.81035e+07
1.81033e+07
1.81031e+07
1.81029e+07
1.81027e+07
1.81025e+07
1.81023e+07
1.8102e+07
1.81018e+07
1.81015e+07
1.81013e+07
1.8101e+07
1.81007e+07
1.81004e+07
1.81001e+07
1.80998e+07
1.80995e+07
1.80992e+07
1.80989e+07
1.80986e+07
1.80983e+07
1.8098e+07
1.80977e+07
1.80974e+07
1.80971e+07
1.80969e+07
1.80966e+07
1.80963e+07
1.80961e+07
1.80958e+07
1.80956e+07
1.80954e+07
1.80952e+07
1.8095e+07
1.80948e+07
1.80947e+07
1.80945e+07
1.80944e+07
1.80942e+07
1.80941e+07
1.8094e+07
1.80939e+07
1.80938e+07
1.80938e+07
1.80937e+07
1.80936e+07
1.80935e+07
1.80934e+07
1.80933e+07
1.80932e+07
1.80931e+07
1.8093e+07
1.80929e+07
1.80927e+07
1.80926e+07
1.80924e+07
1.80922e+07
1.8092e+07
1.80918e+07
1.80916e+07
1.80914e+07
1.80912e+07
1.80909e+07
1.80907e+07
1.80904e+07
1.80901e+07
1.80899e+07
1.80896e+07
1.80893e+07
1.8089e+07
1.80887e+07
1.80884e+07
1.80881e+07
1.80878e+07
1.80875e+07
1.80873e+07
1.8087e+07
1.80867e+07
1.80865e+07
1.80863e+07
1.80861e+07
1.80859e+07
1.80857e+07
1.80855e+07
1.80854e+07
1.80852e+07
1.80851e+07
1.8085e+07
1.80849e+07
1.80849e+07
1.80848e+07
1.80847e+07
1.80847e+07
1.80846e+07
1.80846e+07
1.80845e+07
1.80844e+07
1.80843e+07
1.80842e+07
1.80841e+07
1.80836e+07
1.80824e+07
1.81193e+07
1.81189e+07
1.81225e+07
1.812e+07
1.81176e+07
1.81169e+07
1.81169e+07
1.81168e+07
1.81165e+07
1.81163e+07
1.81161e+07
1.8116e+07
1.81158e+07
1.81157e+07
1.81155e+07
1.81153e+07
1.81151e+07
1.8115e+07
1.81148e+07
1.81146e+07
1.81144e+07
1.81143e+07
1.81141e+07
1.8114e+07
1.81138e+07
1.81137e+07
1.81136e+07
1.81134e+07
1.81132e+07
1.81131e+07
1.8113e+07
1.81129e+07
1.81128e+07
1.81127e+07
1.81126e+07
1.81125e+07
1.81124e+07
1.81124e+07
1.81123e+07
1.81122e+07
1.81121e+07
1.8112e+07
1.81119e+07
1.81118e+07
1.81117e+07
1.81116e+07
1.81115e+07
1.81114e+07
1.81113e+07
1.81112e+07
1.81111e+07
1.8111e+07
1.8111e+07
1.8111e+07
1.8111e+07
1.81109e+07
1.81109e+07
1.81109e+07
1.81109e+07
1.81108e+07
1.81108e+07
1.81107e+07
1.81106e+07
1.81105e+07
1.81103e+07
1.81101e+07
1.81099e+07
1.81097e+07
1.81095e+07
1.81092e+07
1.81089e+07
1.81087e+07
1.81084e+07
1.81082e+07
1.81079e+07
1.81076e+07
1.81074e+07
1.81072e+07
1.81069e+07
1.81067e+07
1.81065e+07
1.81063e+07
1.81061e+07
1.81059e+07
1.81057e+07
1.81055e+07
1.81054e+07
1.81052e+07
1.8105e+07
1.81049e+07
1.81047e+07
1.81046e+07
1.81044e+07
1.81043e+07
1.81041e+07
1.8104e+07
1.81038e+07
1.81036e+07
1.81035e+07
1.81033e+07
1.81031e+07
1.81029e+07
1.81027e+07
1.81025e+07
1.81023e+07
1.8102e+07
1.81018e+07
1.81015e+07
1.81013e+07
1.8101e+07
1.81007e+07
1.81004e+07
1.81001e+07
1.80998e+07
1.80995e+07
1.80992e+07
1.80989e+07
1.80986e+07
1.80983e+07
1.8098e+07
1.80977e+07
1.80974e+07
1.80971e+07
1.80969e+07
1.80966e+07
1.80963e+07
1.80961e+07
1.80958e+07
1.80956e+07
1.80954e+07
1.80952e+07
1.8095e+07
1.80948e+07
1.80947e+07
1.80945e+07
1.80944e+07
1.80942e+07
1.80941e+07
1.8094e+07
1.80939e+07
1.80938e+07
1.80938e+07
1.80937e+07
1.80936e+07
1.80935e+07
1.80934e+07
1.80933e+07
1.80932e+07
1.80931e+07
1.8093e+07
1.80929e+07
1.80927e+07
1.80926e+07
1.80924e+07
1.80922e+07
1.8092e+07
1.80918e+07
1.80916e+07
1.80914e+07
1.80912e+07
1.80909e+07
1.80907e+07
1.80904e+07
1.80901e+07
1.80899e+07
1.80896e+07
1.80893e+07
1.8089e+07
1.80887e+07
1.80884e+07
1.80881e+07
1.80878e+07
1.80875e+07
1.80873e+07
1.8087e+07
1.80867e+07
1.80865e+07
1.80863e+07
1.80861e+07
1.80859e+07
1.80857e+07
1.80855e+07
1.80854e+07
1.80852e+07
1.80851e+07
1.8085e+07
1.80849e+07
1.80849e+07
1.80848e+07
1.80847e+07
1.80847e+07
1.80846e+07
1.80846e+07
1.80845e+07
1.80844e+07
1.80843e+07
1.80842e+07
1.80841e+07
1.80836e+07
1.80825e+07
1.81098e+07
1.81142e+07
1.8117e+07
1.81173e+07
1.81169e+07
1.81167e+07
1.81166e+07
1.81165e+07
1.81164e+07
1.81163e+07
1.81161e+07
1.8116e+07
1.81158e+07
1.81157e+07
1.81155e+07
1.81153e+07
1.81151e+07
1.8115e+07
1.81148e+07
1.81146e+07
1.81144e+07
1.81143e+07
1.81141e+07
1.81139e+07
1.81138e+07
1.81136e+07
1.81135e+07
1.81133e+07
1.81132e+07
1.81131e+07
1.8113e+07
1.81129e+07
1.81128e+07
1.81127e+07
1.81126e+07
1.81125e+07
1.81125e+07
1.81124e+07
1.81123e+07
1.81122e+07
1.81121e+07
1.8112e+07
1.81119e+07
1.81119e+07
1.81118e+07
1.81117e+07
1.81116e+07
1.81115e+07
1.81114e+07
1.81113e+07
1.81113e+07
1.81112e+07
1.81112e+07
1.81111e+07
1.81111e+07
1.81111e+07
1.81111e+07
1.8111e+07
1.8111e+07
1.81109e+07
1.81109e+07
1.81108e+07
1.81106e+07
1.81105e+07
1.81103e+07
1.81101e+07
1.81099e+07
1.81097e+07
1.81095e+07
1.81092e+07
1.81089e+07
1.81087e+07
1.81084e+07
1.81082e+07
1.81079e+07
1.81076e+07
1.81074e+07
1.81072e+07
1.81069e+07
1.81067e+07
1.81065e+07
1.81063e+07
1.81061e+07
1.81059e+07
1.81057e+07
1.81055e+07
1.81054e+07
1.81052e+07
1.8105e+07
1.81049e+07
1.81047e+07
1.81046e+07
1.81044e+07
1.81043e+07
1.81041e+07
1.8104e+07
1.81038e+07
1.81036e+07
1.81035e+07
1.81033e+07
1.81031e+07
1.81029e+07
1.81027e+07
1.81025e+07
1.81023e+07
1.8102e+07
1.81018e+07
1.81015e+07
1.81013e+07
1.8101e+07
1.81007e+07
1.81004e+07
1.81001e+07
1.80998e+07
1.80995e+07
1.80992e+07
1.80989e+07
1.80986e+07
1.80983e+07
1.8098e+07
1.80977e+07
1.80974e+07
1.80971e+07
1.80969e+07
1.80966e+07
1.80963e+07
1.80961e+07
1.80958e+07
1.80956e+07
1.80954e+07
1.80952e+07
1.8095e+07
1.80948e+07
1.80947e+07
1.80945e+07
1.80944e+07
1.80942e+07
1.80941e+07
1.8094e+07
1.80939e+07
1.80938e+07
1.80938e+07
1.80937e+07
1.80936e+07
1.80935e+07
1.80934e+07
1.80933e+07
1.80932e+07
1.80931e+07
1.8093e+07
1.80929e+07
1.80927e+07
1.80926e+07
1.80924e+07
1.80922e+07
1.8092e+07
1.80918e+07
1.80916e+07
1.80914e+07
1.80912e+07
1.80909e+07
1.80907e+07
1.80904e+07
1.80901e+07
1.80899e+07
1.80896e+07
1.80893e+07
1.8089e+07
1.80887e+07
1.80884e+07
1.80881e+07
1.80878e+07
1.80875e+07
1.80873e+07
1.8087e+07
1.80867e+07
1.80865e+07
1.80863e+07
1.80861e+07
1.80859e+07
1.80857e+07
1.80855e+07
1.80854e+07
1.80852e+07
1.80851e+07
1.8085e+07
1.80849e+07
1.80849e+07
1.80848e+07
1.80847e+07
1.80847e+07
1.80846e+07
1.80846e+07
1.80845e+07
1.80844e+07
1.80843e+07
1.80842e+07
1.80841e+07
1.8084e+07
1.80839e+07
1.81198e+07
1.81193e+07
1.81185e+07
1.81178e+07
1.81172e+07
1.81169e+07
1.81167e+07
1.81166e+07
1.81164e+07
1.81163e+07
1.81161e+07
1.8116e+07
1.81158e+07
1.81157e+07
1.81155e+07
1.81153e+07
1.81152e+07
1.8115e+07
1.81148e+07
1.81146e+07
1.81144e+07
1.81143e+07
1.81141e+07
1.81139e+07
1.81138e+07
1.81136e+07
1.81135e+07
1.81134e+07
1.81132e+07
1.81131e+07
1.8113e+07
1.81129e+07
1.81128e+07
1.81127e+07
1.81126e+07
1.81125e+07
1.81125e+07
1.81124e+07
1.81123e+07
1.81122e+07
1.81122e+07
1.81121e+07
1.8112e+07
1.81119e+07
1.81118e+07
1.81118e+07
1.81117e+07
1.81116e+07
1.81115e+07
1.81115e+07
1.81114e+07
1.81114e+07
1.81113e+07
1.81113e+07
1.81113e+07
1.81112e+07
1.81112e+07
1.81111e+07
1.81111e+07
1.8111e+07
1.81109e+07
1.81108e+07
1.81107e+07
1.81105e+07
1.81104e+07
1.81102e+07
1.81099e+07
1.81097e+07
1.81095e+07
1.81092e+07
1.81089e+07
1.81087e+07
1.81084e+07
1.81082e+07
1.81079e+07
1.81076e+07
1.81074e+07
1.81072e+07
1.81069e+07
1.81067e+07
1.81065e+07
1.81063e+07
1.81061e+07
1.81059e+07
1.81057e+07
1.81055e+07
1.81054e+07
1.81052e+07
1.8105e+07
1.81049e+07
1.81047e+07
1.81046e+07
1.81044e+07
1.81043e+07
1.81041e+07
1.8104e+07
1.81038e+07
1.81036e+07
1.81035e+07
1.81033e+07
1.81031e+07
1.81029e+07
1.81027e+07
1.81025e+07
1.81023e+07
1.8102e+07
1.81018e+07
1.81015e+07
1.81013e+07
1.8101e+07
1.81007e+07
1.81004e+07
1.81001e+07
1.80998e+07
1.80995e+07
1.80992e+07
1.80989e+07
1.80986e+07
1.80983e+07
1.8098e+07
1.80977e+07
1.80974e+07
1.80971e+07
1.80969e+07
1.80966e+07
1.80963e+07
1.80961e+07
1.80958e+07
1.80956e+07
1.80954e+07
1.80952e+07
1.8095e+07
1.80948e+07
1.80947e+07
1.80945e+07
1.80944e+07
1.80942e+07
1.80941e+07
1.8094e+07
1.80939e+07
1.80938e+07
1.80938e+07
1.80937e+07
1.80936e+07
1.80935e+07
1.80934e+07
1.80933e+07
1.80932e+07
1.80931e+07
1.8093e+07
1.80929e+07
1.80927e+07
1.80926e+07
1.80924e+07
1.80922e+07
1.8092e+07
1.80918e+07
1.80916e+07
1.80914e+07
1.80912e+07
1.80909e+07
1.80907e+07
1.80904e+07
1.80901e+07
1.80899e+07
1.80896e+07
1.80893e+07
1.8089e+07
1.80887e+07
1.80884e+07
1.80881e+07
1.80878e+07
1.80875e+07
1.80873e+07
1.8087e+07
1.80867e+07
1.80865e+07
1.80863e+07
1.80861e+07
1.80859e+07
1.80857e+07
1.80855e+07
1.80854e+07
1.80852e+07
1.80851e+07
1.8085e+07
1.80849e+07
1.80849e+07
1.80848e+07
1.80847e+07
1.80847e+07
1.80846e+07
1.80846e+07
1.80845e+07
1.80844e+07
1.80843e+07
1.80842e+07
1.80842e+07
1.80842e+07
1.80848e+07
1.81171e+07
1.81189e+07
1.81184e+07
1.81178e+07
1.81172e+07
1.81169e+07
1.81167e+07
1.81166e+07
1.81164e+07
1.81163e+07
1.81161e+07
1.8116e+07
1.81158e+07
1.81157e+07
1.81155e+07
1.81153e+07
1.81152e+07
1.8115e+07
1.81148e+07
1.81146e+07
1.81144e+07
1.81143e+07
1.81141e+07
1.81139e+07
1.81138e+07
1.81136e+07
1.81135e+07
1.81134e+07
1.81132e+07
1.81131e+07
1.8113e+07
1.81129e+07
1.81128e+07
1.81127e+07
1.81126e+07
1.81125e+07
1.81125e+07
1.81124e+07
1.81123e+07
1.81122e+07
1.81122e+07
1.81121e+07
1.8112e+07
1.81119e+07
1.81118e+07
1.81118e+07
1.81117e+07
1.81116e+07
1.81115e+07
1.81115e+07
1.81114e+07
1.81114e+07
1.81113e+07
1.81113e+07
1.81112e+07
1.81112e+07
1.81112e+07
1.81111e+07
1.81111e+07
1.8111e+07
1.81109e+07
1.81108e+07
1.81107e+07
1.81105e+07
1.81104e+07
1.81102e+07
1.81099e+07
1.81097e+07
1.81095e+07
1.81092e+07
1.81089e+07
1.81087e+07
1.81084e+07
1.81082e+07
1.81079e+07
1.81076e+07
1.81074e+07
1.81072e+07
1.81069e+07
1.81067e+07
1.81065e+07
1.81063e+07
1.81061e+07
1.81059e+07
1.81057e+07
1.81055e+07
1.81054e+07
1.81052e+07
1.8105e+07
1.81049e+07
1.81047e+07
1.81046e+07
1.81044e+07
1.81043e+07
1.81041e+07
1.8104e+07
1.81038e+07
1.81036e+07
1.81035e+07
1.81033e+07
1.81031e+07
1.81029e+07
1.81027e+07
1.81025e+07
1.81023e+07
1.8102e+07
1.81018e+07
1.81015e+07
1.81013e+07
1.8101e+07
1.81007e+07
1.81004e+07
1.81001e+07
1.80998e+07
1.80995e+07
1.80992e+07
1.80989e+07
1.80986e+07
1.80983e+07
1.8098e+07
1.80977e+07
1.80974e+07
1.80971e+07
1.80969e+07
1.80966e+07
1.80963e+07
1.80961e+07
1.80958e+07
1.80956e+07
1.80954e+07
1.80952e+07
1.8095e+07
1.80948e+07
1.80947e+07
1.80945e+07
1.80944e+07
1.80942e+07
1.80941e+07
1.8094e+07
1.80939e+07
1.80938e+07
1.80938e+07
1.80937e+07
1.80936e+07
1.80935e+07
1.80934e+07
1.80933e+07
1.80932e+07
1.80931e+07
1.8093e+07
1.80929e+07
1.80927e+07
1.80926e+07
1.80924e+07
1.80922e+07
1.8092e+07
1.80918e+07
1.80916e+07
1.80914e+07
1.80912e+07
1.80909e+07
1.80907e+07
1.80904e+07
1.80901e+07
1.80899e+07
1.80896e+07
1.80893e+07
1.8089e+07
1.80887e+07
1.80884e+07
1.80881e+07
1.80878e+07
1.80875e+07
1.80873e+07
1.8087e+07
1.80867e+07
1.80865e+07
1.80863e+07
1.80861e+07
1.80859e+07
1.80857e+07
1.80855e+07
1.80854e+07
1.80852e+07
1.80851e+07
1.8085e+07
1.80849e+07
1.80849e+07
1.80848e+07
1.80847e+07
1.80847e+07
1.80846e+07
1.80846e+07
1.80845e+07
1.80844e+07
1.80843e+07
1.80842e+07
1.80842e+07
1.80842e+07
1.80849e+07
1.80709e+07
1.8066e+07
1.80642e+07
1.80638e+07
1.80629e+07
1.8061e+07
1.80583e+07
1.80556e+07
1.80523e+07
1.80493e+07
1.8046e+07
1.80429e+07
1.80398e+07
1.80368e+07
1.80339e+07
1.80314e+07
1.80292e+07
1.80274e+07
1.80263e+07
1.80264e+07
1.80751e+07
1.80739e+07
1.80742e+07
1.80746e+07
1.8074e+07
1.80723e+07
1.80698e+07
1.80675e+07
1.80644e+07
1.8062e+07
1.8059e+07
1.80563e+07
1.80536e+07
1.80509e+07
1.80484e+07
1.80461e+07
1.80441e+07
1.80425e+07
1.80412e+07
1.80403e+07
1.80841e+07
1.8084e+07
1.80835e+07
1.80827e+07
1.80816e+07
1.80802e+07
1.80786e+07
1.80767e+07
1.80746e+07
1.8072e+07
1.80691e+07
1.80658e+07
1.80624e+07
1.80592e+07
1.80562e+07
1.80533e+07
1.805e+07
1.80462e+07
1.80421e+07
1.80378e+07
1.80887e+07
1.80899e+07
1.80898e+07
1.80892e+07
1.80885e+07
1.8088e+07
1.80871e+07
1.80855e+07
1.80839e+07
1.80828e+07
1.80825e+07
1.80834e+07
1.80849e+07
1.80842e+07
1.80796e+07
1.80717e+07
1.8066e+07
1.80628e+07
1.80602e+07
1.8058e+07
1.80901e+07
1.80928e+07
1.8093e+07
1.80924e+07
1.80917e+07
1.80912e+07
1.80903e+07
1.80888e+07
1.80873e+07
1.80861e+07
1.80858e+07
1.80866e+07
1.80881e+07
1.80879e+07
1.8084e+07
1.80769e+07
1.80713e+07
1.80678e+07
1.80648e+07
1.80617e+07
1.80349e+07
1.80357e+07
1.80349e+07
1.80343e+07
1.80338e+07
1.80334e+07
1.80331e+07
1.80329e+07
1.80327e+07
1.80326e+07
1.80324e+07
1.80322e+07
1.8032e+07
1.80319e+07
1.80317e+07
1.80316e+07
1.80314e+07
1.80313e+07
1.80312e+07
1.80311e+07
1.8031e+07
1.80309e+07
1.80308e+07
1.80307e+07
1.80306e+07
1.80305e+07
1.80304e+07
1.80304e+07
1.80303e+07
1.80303e+07
1.80302e+07
1.80302e+07
1.80302e+07
1.80301e+07
1.80301e+07
1.80301e+07
1.80301e+07
1.803e+07
1.803e+07
1.803e+07
1.803e+07
1.803e+07
1.803e+07
1.80301e+07
1.80301e+07
1.80301e+07
1.80301e+07
1.80301e+07
1.80301e+07
1.80301e+07
1.80302e+07
1.80302e+07
1.80303e+07
1.80304e+07
1.80305e+07
1.80305e+07
1.80306e+07
1.80307e+07
1.80308e+07
1.80308e+07
1.80309e+07
1.8031e+07
1.8031e+07
1.80311e+07
1.80311e+07
1.80311e+07
1.80311e+07
1.80311e+07
1.8031e+07
1.8031e+07
1.80309e+07
1.80309e+07
1.80309e+07
1.80308e+07
1.80308e+07
1.80308e+07
1.80308e+07
1.80308e+07
1.80308e+07
1.80309e+07
1.80309e+07
1.8031e+07
1.8031e+07
1.80311e+07
1.80312e+07
1.80313e+07
1.80314e+07
1.80315e+07
1.80316e+07
1.80316e+07
1.80317e+07
1.80318e+07
1.80319e+07
1.8032e+07
1.8032e+07
1.80321e+07
1.80321e+07
1.8032e+07
1.80317e+07
1.80306e+07
1.80375e+07
1.80361e+07
1.8035e+07
1.80344e+07
1.80338e+07
1.80334e+07
1.80331e+07
1.80329e+07
1.80327e+07
1.80326e+07
1.80324e+07
1.80322e+07
1.8032e+07
1.80319e+07
1.80317e+07
1.80316e+07
1.80314e+07
1.80313e+07
1.80312e+07
1.80311e+07
1.8031e+07
1.80309e+07
1.80308e+07
1.80307e+07
1.80306e+07
1.80305e+07
1.80304e+07
1.80304e+07
1.80303e+07
1.80303e+07
1.80302e+07
1.80302e+07
1.80302e+07
1.80301e+07
1.80301e+07
1.80301e+07
1.80301e+07
1.803e+07
1.803e+07
1.803e+07
1.803e+07
1.803e+07
1.803e+07
1.80301e+07
1.80301e+07
1.80301e+07
1.80301e+07
1.80301e+07
1.80301e+07
1.80301e+07
1.80302e+07
1.80302e+07
1.80303e+07
1.80304e+07
1.80305e+07
1.80305e+07
1.80306e+07
1.80307e+07
1.80308e+07
1.80308e+07
1.80309e+07
1.8031e+07
1.8031e+07
1.80311e+07
1.80311e+07
1.80311e+07
1.80311e+07
1.80311e+07
1.8031e+07
1.8031e+07
1.80309e+07
1.80309e+07
1.80309e+07
1.80308e+07
1.80308e+07
1.80308e+07
1.80308e+07
1.80308e+07
1.80308e+07
1.80309e+07
1.80309e+07
1.8031e+07
1.8031e+07
1.80311e+07
1.80312e+07
1.80313e+07
1.80314e+07
1.80315e+07
1.80316e+07
1.80316e+07
1.80317e+07
1.80318e+07
1.80319e+07
1.8032e+07
1.8032e+07
1.80321e+07
1.80321e+07
1.8032e+07
1.80317e+07
1.80306e+07
1.80263e+07
1.80304e+07
1.80335e+07
1.80341e+07
1.80337e+07
1.80333e+07
1.8033e+07
1.80329e+07
1.80327e+07
1.80325e+07
1.80323e+07
1.80322e+07
1.8032e+07
1.80318e+07
1.80317e+07
1.80316e+07
1.80314e+07
1.80313e+07
1.80312e+07
1.80311e+07
1.8031e+07
1.80309e+07
1.80308e+07
1.80307e+07
1.80306e+07
1.80305e+07
1.80304e+07
1.80304e+07
1.80303e+07
1.80303e+07
1.80302e+07
1.80302e+07
1.80302e+07
1.80301e+07
1.80301e+07
1.80301e+07
1.803e+07
1.803e+07
1.803e+07
1.803e+07
1.803e+07
1.803e+07
1.803e+07
1.803e+07
1.803e+07
1.803e+07
1.803e+07
1.803e+07
1.803e+07
1.803e+07
1.80301e+07
1.80301e+07
1.80302e+07
1.80302e+07
1.80303e+07
1.80304e+07