/*--------------------------------*- C++ -*----------------------------------*\
| =========                 |                                                 |
| \\      /  F ield         | OpenFOAM: The Open Source CFD Toolbox           |
|  \\    /   O peration     | Version:  3.0.x                                 |
|   \\  /    A nd           | Web:      www.OpenFOAM.org                      |
|    \\/     M anipulation  |                                                 |
\*---------------------------------------------------------------------------*/
FoamFile
{
    version     2.0;
    format      ascii;
    class       surfaceScalarField;
    location    "0.27";
    object      phi;
}
// * * * * * * * * * * * * * * * * * * * * * * * * * * * * * * * * * * * * * //

dimensions      [1 0 -1 0 0 0 0];

internalField   nonuniform List<scalar> 
12415
(
5.79608
0.000327788
5.79548
0.000235051
5.79489
0.000225078
5.79431
0.000227107
5.79374
0.000227659
5.79317
0.000227529
5.79259
0.000227555
5.79201
0.000227634
5.79143
0.000227698
5.79085
0.000227757
5.79025
0.00022782
5.78966
0.000227892
5.78907
0.000227971
5.78847
0.000228077
5.78788
0.000228184
5.78727
0.000228306
5.78665
0.000228435
5.78603
0.000228569
5.78538
0.000228704
5.78472
0.000228836
5.78403
0.000228961
5.78332
0.000229076
5.78259
0.000229179
5.78182
0.000229262
5.78102
0.00022932
5.78018
0.000229337
5.77932
0.000229293
5.77844
0.000229159
5.77753
0.000228891
5.77661
0.000228429
5.77567
0.000227694
5.77471
0.000226587
5.77372
0.000224992
5.77272
0.000222775
5.77171
0.000219795
5.77067
0.000215909
5.76963
0.000210986
5.76859
0.00020492
5.76754
0.000197637
5.7665
0.000189116
5.76547
0.000179386
5.76445
0.00016854
5.76344
0.000156726
5.76245
0.000144148
5.76148
0.000131047
5.76052
0.000117692
5.75959
0.000104362
5.75867
9.13286e-05
5.75778
7.88378e-05
5.75689
6.71007e-05
5.75603
5.62825e-05
5.75517
4.64977e-05
5.75433
3.78101e-05
5.75349
3.02353e-05
5.75265
2.37474e-05
5.75181
1.82866e-05
5.75097
1.37685e-05
5.75012
1.00929e-05
5.74926
7.15181e-06
5.74839
4.83632e-06
5.7475
3.04223e-06
5.7466
1.67344e-06
5.74567
6.44646e-07
5.74472
-1.14327e-07
5.74375
-6.66674e-07
5.74276
-1.06231e-06
5.74175
-1.34171e-06
5.74072
-1.53631e-06
5.73966
-1.67015e-06
5.73858
-1.76118e-06
5.73749
-1.82265e-06
5.73638
-1.86401e-06
5.73526
-1.89197e-06
5.73413
-1.91113e-06
5.73299
-1.92463e-06
5.73184
-1.93453e-06
5.73069
-1.94218e-06
5.72954
-1.94836e-06
5.72839
-1.95355e-06
5.72725
-1.95805e-06
5.7261
-1.9625e-06
5.72497
-1.96552e-06
5.72384
-1.96784e-06
5.72273
-1.96931e-06
5.72162
-1.97062e-06
5.72052
-1.97148e-06
5.71944
-1.97124e-06
5.71836
-1.96973e-06
5.7173
-1.96739e-06
5.71625
-1.9645e-06
5.7152
-1.96074e-06
5.71417
-1.95598e-06
5.71314
-1.95008e-06
5.71213
-1.94302e-06
5.71112
-1.93432e-06
5.71011
-1.92393e-06
5.70912
-1.91228e-06
5.70813
-1.89996e-06
5.70714
-1.8874e-06
5.70617
-1.87509e-06
5.7052
-1.86371e-06
5.70424
-1.84943e-06
5.70329
-1.83726e-06
5.70236
-1.82599e-06
5.70144
-1.81558e-06
5.70054
-1.80536e-06
5.69967
-1.79535e-06
5.69882
-1.7864e-06
5.698
-1.77841e-06
5.69721
-1.77162e-06
5.69646
-1.7655e-06
5.69574
-1.76035e-06
5.69507
-1.75631e-06
5.69445
-1.75335e-06
5.69387
-1.75122e-06
5.69333
-1.74969e-06
5.69284
-1.74852e-06
5.6924
-1.74759e-06
5.692
-1.74732e-06
5.69165
-1.74929e-06
5.69134
-1.7405e-06
5.69106
-1.74061e-06
5.69082
-1.74055e-06
5.69061
-1.73864e-06
5.69043
-1.73559e-06
5.69028
-1.73139e-06
5.69014
-1.72739e-06
5.69003
-1.72254e-06
5.68992
-1.71745e-06
5.68982
-1.71121e-06
5.68973
-1.70348e-06
5.68964
-1.69493e-06
5.68954
-1.6859e-06
5.68943
-1.67686e-06
5.68931
-1.66713e-06
5.68918
-1.65727e-06
5.68904
-1.64713e-06
5.68887
-1.63723e-06
5.68869
-1.63224e-06
5.6885
-1.62045e-06
5.68829
-1.60822e-06
5.68807
-1.60105e-06
5.68785
-1.59611e-06
5.68763
-1.59259e-06
5.6874
-1.59083e-06
5.68719
-1.59039e-06
5.687
-1.59198e-06
5.68683
-1.5959e-06
5.68668
-1.60177e-06
5.68657
-1.60663e-06
5.68649
-1.61346e-06
5.68644
-1.61926e-06
5.68642
-1.63014e-06
5.68644
-1.71957e-06
5.68649
-1.55082e-06
5.68656
-1.64231e-06
5.68666
-1.67633e-06
5.68678
-1.65211e-06
5.68691
-1.67675e-06
5.68706
-1.65988e-06
5.68721
-1.67986e-06
5.68736
-1.66689e-06
5.68752
-1.68105e-06
5.68767
-1.66845e-06
5.68781
-1.68061e-06
5.68795
-1.66914e-06
5.68806
-1.67549e-06
5.68816
-1.6652e-06
5.68823
-1.66744e-06
5.68827
-1.66006e-06
5.68826
-1.64808e-06
5.68821
-1.63809e-06
5.68812
-1.57399e-06
5.68797
-1.70322e-06
5.68777
-1.40971e-06
5.68751
-1.7624e-06
5.6872
-1.63455e-06
5.68685
-1.53773e-06
5.68646
-1.59208e-06
5.68604
-1.55824e-06
5.6856
-1.57795e-06
5.68515
-1.56305e-06
5.68472
-1.59537e-06
5.6843
-1.55599e-06
5.68392
-1.5661e-06
5.68358
-1.78039e-06
5.68329
-1.54106e-06
5.68305
-1.69549e-06
5.68286
-1.66025e-06
5.68272
-1.64224e-06
5.68261
-1.72936e-06
5.68251
-1.61291e-06
5.68241
-1.09277e-06
5.6823
2.97198e-06
5.68213
3.0981e-05
5.68173
0.000227703
5.67993
0.00160592
5.66846
0.0112367
5.57923
0.0889798
0.437783
5.14119
11.5929
0.000260475
11.5922
0.000215427
11.5915
0.000189924
11.5908
0.000194504
11.5902
0.000195843
11.5895
0.000195262
11.5889
0.000195157
11.5882
0.000195238
11.5875
0.000195301
11.5868
0.000195355
11.5861
0.000195415
11.5854
0.000195485
11.5847
0.000195561
11.584
0.000195662
11.5833
0.00019576
11.5826
0.000195877
11.5819
0.000195997
11.5811
0.000196123
11.5803
0.000196249
11.5795
0.000196373
11.5786
0.000196491
11.5776
0.000196602
11.5767
0.000196702
11.5756
0.000196785
11.5745
0.000196847
11.5733
0.000196874
11.5721
0.000196849
11.5708
0.000196747
11.5695
0.00019653
11.5681
0.000196147
11.5667
0.000195529
11.5653
0.000194593
11.5638
0.000193237
11.5623
0.000191346
11.5607
0.0001888
11.5591
0.000185474
11.5575
0.000181256
11.5558
0.000176053
11.5542
0.000169803
11.5525
0.000162486
11.5508
0.000154129
11.5491
0.00014481
11.5475
0.000134658
11.5458
0.000123847
11.5441
0.000112587
11.5425
0.000101108
11.5408
8.96509e-05
11.5392
7.84486e-05
11.5375
6.77138e-05
11.5359
5.76276e-05
11.5343
4.83321e-05
11.5327
3.99256e-05
11.5311
3.24626e-05
11.5295
2.59565e-05
11.5279
2.03846e-05
11.5262
1.56957e-05
11.5246
1.18169e-05
11.5229
8.66197e-06
11.5212
6.13808e-06
11.5195
4.15143e-06
11.5177
2.61232e-06
11.5159
1.43765e-06
11.514
5.53697e-07
11.5121
-9.40968e-08
11.5102
-5.66939e-07
11.5082
-9.06212e-07
11.5062
-1.14648e-06
11.5041
-1.31421e-06
11.502
-1.42971e-06
11.4998
-1.50837e-06
11.4976
-1.56153e-06
11.4954
-1.59735e-06
11.4932
-1.62157e-06
11.4909
-1.63817e-06
11.4886
-1.64987e-06
11.4863
-1.65845e-06
11.484
-1.66506e-06
11.4817
-1.67039e-06
11.4794
-1.67487e-06
11.4771
-1.67875e-06
11.4748
-1.68248e-06
11.4725
-1.68525e-06
11.4703
-1.6871e-06
11.468
-1.68842e-06
11.4658
-1.68954e-06
11.4636
-1.69026e-06
11.4615
-1.69006e-06
11.4593
-1.68879e-06
11.4572
-1.68678e-06
11.4551
-1.68427e-06
11.453
-1.68107e-06
11.4509
-1.67697e-06
11.4488
-1.67194e-06
11.4468
-1.66586e-06
11.4448
-1.65841e-06
11.4428
-1.64952e-06
11.4408
-1.63954e-06
11.4388
-1.62897e-06
11.4368
-1.61822e-06
11.4349
-1.60766e-06
11.4329
-1.59766e-06
11.431
-1.58594e-06
11.4291
-1.57508e-06
11.4272
-1.56556e-06
11.4254
-1.55662e-06
11.4236
-1.54786e-06
11.4218
-1.5393e-06
11.4201
-1.53158e-06
11.4185
-1.52478e-06
11.4169
-1.5189e-06
11.4154
-1.51369e-06
11.414
-1.50927e-06
11.4126
-1.50582e-06
11.4114
-1.50326e-06
11.4102
-1.50145e-06
11.4091
-1.50014e-06
11.4081
-1.49913e-06
11.4073
-1.49838e-06
11.4065
-1.49819e-06
11.4057
-1.49915e-06
11.4051
-1.49306e-06
11.4046
-1.49212e-06
11.4041
-1.49223e-06
11.4036
-1.4907e-06
11.4033
-1.48796e-06
11.403
-1.48449e-06
11.4027
-1.48099e-06
11.4025
-1.47683e-06
11.4022
-1.47251e-06
11.402
-1.4671e-06
11.4019
-1.46055e-06
11.4017
-1.45318e-06
11.4015
-1.44544e-06
11.4012
-1.43767e-06
11.401
-1.42935e-06
11.4007
-1.42089e-06
11.4004
-1.41222e-06
11.4001
-1.40391e-06
11.3997
-1.39906e-06
11.3994
-1.3893e-06
11.3989
-1.37929e-06
11.3985
-1.37242e-06
11.398
-1.36871e-06
11.3976
-1.36521e-06
11.3971
-1.36392e-06
11.3967
-1.3635e-06
11.3963
-1.36516e-06
11.396
-1.36784e-06
11.3957
-1.37383e-06
11.3955
-1.37697e-06
11.3953
-1.38439e-06
11.3952
-1.38654e-06
11.3952
-1.3955e-06
11.3952
-1.50828e-06
11.3953
-1.24188e-06
11.3954
-1.44083e-06
11.3956
-1.4731e-06
11.3958
-1.39573e-06
11.3961
-1.45861e-06
11.3964
-1.40167e-06
11.3967
-1.45706e-06
11.397
-1.41465e-06
11.3973
-1.45493e-06
11.3976
-1.4165e-06
11.3979
-1.45325e-06
11.3981
-1.42173e-06
11.3984
-1.44464e-06
11.3986
-1.42329e-06
11.3987
-1.43059e-06
11.3988
-1.42309e-06
11.3988
-1.41306e-06
11.3987
-1.39942e-06
11.3985
-1.1958e-06
11.3982
-1.66476e-06
11.3978
-7.45569e-07
11.3972
-1.8982e-06
11.3966
-1.48489e-06
11.3959
-1.23734e-06
11.3951
-1.40116e-06
11.3943
-1.30878e-06
11.3934
-1.36852e-06
11.3925
-1.31819e-06
11.3916
-1.40105e-06
11.3908
-1.26225e-06
11.39
-1.25132e-06
11.3893
-1.86851e-06
11.3888
-1.14854e-06
11.3883
-1.59203e-06
11.3879
-1.33497e-06
11.3876
-1.29794e-06
11.3874
-1.50579e-06
11.3872
-1.13114e-06
11.387
4.06621e-07
11.3867
1.24438e-05
11.3864
9.53957e-05
11.3856
0.000677934
11.3821
0.00475769
11.3597
0.0331057
11.2128
0.235444
1.10171
10.5483
139.115
-0.000260475
139.106
-0.000215427
139.098
-0.000189924
139.09
-0.000194504
139.082
-0.000195843
139.074
-0.000195262
139.066
-0.000195157
139.058
-0.000195238
139.05
-0.000195301
139.042
-0.000195355
139.033
-0.000195415
139.025
-0.000195485
139.017
-0.000195561
139.008
-0.000195662
139
-0.00019576
138.991
-0.000195877
138.982
-0.000195997
138.973
-0.000196123
138.963
-0.000196249
138.953
-0.000196373
138.943
-0.000196491
138.932
-0.000196602
138.92
-0.000196702
138.907
-0.000196785
138.894
-0.000196847
138.88
-0.000196874
138.865
-0.000196849
138.85
-0.000196747
138.834
-0.00019653
138.818
-0.000196147
138.801
-0.000195529
138.784
-0.000194593
138.766
-0.000193237
138.747
-0.000191346
138.729
-0.0001888
138.709
-0.000185474
138.69
-0.000181256
138.67
-0.000176053
138.65
-0.000169803
138.63
-0.000162486
138.61
-0.000154129
138.59
-0.00014481
138.569
-0.000134658
138.549
-0.000123847
138.529
-0.000112587
138.51
-0.000101108
138.49
-8.96509e-05
138.47
-7.84486e-05
138.451
-6.77138e-05
138.431
-5.76276e-05
138.412
-4.83321e-05
138.393
-3.99256e-05
138.373
-3.24626e-05
138.354
-2.59565e-05
138.334
-2.03846e-05
138.315
-1.56957e-05
138.295
-1.18169e-05
138.275
-8.66196e-06
138.254
-6.13808e-06
138.233
-4.15143e-06
138.212
-2.61232e-06
138.19
-1.43765e-06
138.168
-5.537e-07
138.146
9.40972e-08
138.122
5.66941e-07
138.098
9.06212e-07
138.074
1.14648e-06
138.049
1.31421e-06
138.024
1.42971e-06
137.998
1.50837e-06
137.972
1.56153e-06
137.945
1.59735e-06
137.918
1.62157e-06
137.891
1.63817e-06
137.863
1.64987e-06
137.836
1.65845e-06
137.808
1.66505e-06
137.781
1.67039e-06
137.753
1.67486e-06
137.725
1.67875e-06
137.698
1.68247e-06
137.671
1.68525e-06
137.643
1.6871e-06
137.617
1.68842e-06
137.59
1.68954e-06
137.564
1.69027e-06
137.538
1.69006e-06
137.512
1.68879e-06
137.486
1.68677e-06
137.461
1.68427e-06
137.436
1.68107e-06
137.411
1.67697e-06
137.386
1.67194e-06
137.362
1.66586e-06
137.337
1.65841e-06
137.313
1.64952e-06
137.289
1.63954e-06
137.265
1.62897e-06
137.242
1.61822e-06
137.218
1.60766e-06
137.195
1.59765e-06
137.172
1.58594e-06
137.149
1.57508e-06
137.127
1.56556e-06
137.105
1.55662e-06
137.083
1.54785e-06
137.062
1.5393e-06
137.041
1.53158e-06
137.022
1.52478e-06
137.003
1.5189e-06
136.985
1.51369e-06
136.968
1.50927e-06
136.951
1.50582e-06
136.936
1.50326e-06
136.922
1.50146e-06
136.909
1.50014e-06
136.898
1.49913e-06
136.887
1.49838e-06
136.877
1.49819e-06
136.869
1.49915e-06
136.861
1.49306e-06
136.855
1.49212e-06
136.849
1.49224e-06
136.844
1.4907e-06
136.839
1.48796e-06
136.836
1.48449e-06
136.832
1.48099e-06
136.83
1.47683e-06
136.827
1.47251e-06
136.825
1.4671e-06
136.822
1.46055e-06
136.82
1.45318e-06
136.818
1.44544e-06
136.815
1.43767e-06
136.812
1.42935e-06
136.809
1.42089e-06
136.805
1.41222e-06
136.801
1.40391e-06
136.797
1.39911e-06
136.792
1.38932e-06
136.787
1.37921e-06
136.782
1.37245e-06
136.777
1.36866e-06
136.771
1.36531e-06
136.766
1.3638e-06
136.761
1.36366e-06
136.756
1.36494e-06
136.752
1.36836e-06
136.748
1.37294e-06
136.746
1.37799e-06
136.744
1.38271e-06
136.742
1.39073e-06
136.742
1.41655e-06
136.742
1.27866e-06
136.743
1.66423e-06
136.745
1.2833e-06
136.747
1.35637e-06
136.75
1.4867e-06
136.753
1.37604e-06
136.757
1.49622e-06
136.76
1.35836e-06
136.764
1.52957e-06
136.768
1.34097e-06
136.771
1.52157e-06
136.775
1.36163e-06
136.778
1.49485e-06
136.781
1.38991e-06
136.783
1.45315e-06
136.784
1.41639e-06
136.785
1.43096e-06
136.785
1.39968e-06
136.784
1.26455e-06
136.782
2.14616e-06
136.778
-1.02835e-07
136.773
2.31216e-06
136.767
8.91451e-07
136.76
1.5919e-06
136.751
1.6999e-06
136.742
1.13093e-06
136.731
1.52238e-06
136.721
1.18019e-06
136.71
1.51842e-06
136.7
1.17009e-06
136.689
1.57708e-06
136.68
1.12378e-06
136.672
3.05527e-07
136.665
3.78853e-06
136.659
-8.95065e-07
136.655
2.28809e-06
136.651
2.25089e-06
136.649
6.75915e-07
136.646
2.55537e-06
136.644
3.30968e-06
136.641
2.02268e-05
136.638
0.000130411
136.633
0.000928656
136.627
0.00664953
136.606
0.0478614
136.455
0.381036
1.63592
135.914
11.5929
-0.000327788
11.5922
-0.000235051
11.5915
-0.000225078
11.5908
-0.000227107
11.5902
-0.000227659
11.5895
-0.000227529
11.5889
-0.000227555
11.5882
-0.000227634
11.5875
-0.000227698
11.5868
-0.000227757
11.5861
-0.00022782
11.5854
-0.000227892
11.5847
-0.000227971
11.584
-0.000228077
11.5833
-0.000228184
11.5826
-0.000228306
11.5819
-0.000228435
11.5811
-0.000228569
11.5803
-0.000228704
11.5795
-0.000228836
11.5786
-0.000228961
11.5776
-0.000229076
11.5767
-0.000229179
11.5756
-0.000229262
11.5745
-0.00022932
11.5733
-0.000229337
11.5721
-0.000229293
11.5708
-0.000229159
11.5695
-0.000228891
11.5681
-0.000228429
11.5667
-0.000227694
11.5653
-0.000226587
11.5638
-0.000224992
11.5623
-0.000222775
11.5607
-0.000219795
11.5591
-0.000215909
11.5575
-0.000210986
11.5558
-0.00020492
11.5542
-0.000197637
11.5525
-0.000189116
11.5508
-0.000179386
11.5491
-0.00016854
11.5475
-0.000156726
11.5458
-0.000144148
11.5441
-0.000131047
11.5425
-0.000117692
11.5408
-0.000104362
11.5392
-9.13286e-05
11.5375
-7.88378e-05
11.5359
-6.71007e-05
11.5343
-5.62825e-05
11.5327
-4.64977e-05
11.5311
-3.78101e-05
11.5295
-3.02353e-05
11.5279
-2.37474e-05
11.5262
-1.82866e-05
11.5246
-1.37685e-05
11.5229
-1.00929e-05
11.5212
-7.15181e-06
11.5195
-4.83632e-06
11.5177
-3.04223e-06
11.5159
-1.67344e-06
11.514
-6.44648e-07
11.5121
1.14329e-07
11.5102
6.66672e-07
11.5082
1.0623e-06
11.5062
1.34171e-06
11.5041
1.53631e-06
11.502
1.67015e-06
11.4998
1.76118e-06
11.4976
1.82265e-06
11.4954
1.86401e-06
11.4932
1.89196e-06
11.4909
1.91113e-06
11.4886
1.92463e-06
11.4863
1.93453e-06
11.484
1.94218e-06
11.4817
1.94836e-06
11.4794
1.95355e-06
11.4771
1.95805e-06
11.4748
1.9625e-06
11.4725
1.96552e-06
11.4703
1.96784e-06
11.468
1.96931e-06
11.4658
1.97061e-06
11.4636
1.97148e-06
11.4615
1.97125e-06
11.4593
1.96973e-06
11.4572
1.96739e-06
11.4551
1.9645e-06
11.453
1.96073e-06
11.4509
1.95598e-06
11.4488
1.95008e-06
11.4468
1.94302e-06
11.4448
1.93432e-06
11.4428
1.92393e-06
11.4408
1.91228e-06
11.4388
1.89996e-06
11.4368
1.8874e-06
11.4349
1.87508e-06
11.4329
1.86371e-06
11.431
1.84942e-06
11.4291
1.83726e-06
11.4272
1.82599e-06
11.4254
1.81558e-06
11.4236
1.80536e-06
11.4218
1.79535e-06
11.4201
1.7864e-06
11.4185
1.77841e-06
11.4169
1.77162e-06
11.4154
1.76551e-06
11.414
1.76035e-06
11.4126
1.75631e-06
11.4114
1.75335e-06
11.4102
1.75122e-06
11.4091
1.74969e-06
11.4081
1.74852e-06
11.4073
1.74759e-06
11.4065
1.74732e-06
11.4057
1.74929e-06
11.4051
1.7405e-06
11.4046
1.74061e-06
11.4041
1.74055e-06
11.4036
1.73864e-06
11.4033
1.73559e-06
11.403
1.73139e-06
11.4027
1.72739e-06
11.4025
1.72255e-06
11.4022
1.71745e-06
11.402
1.71122e-06
11.4019
1.70349e-06
11.4017
1.69493e-06
11.4015
1.6859e-06
11.4012
1.67686e-06
11.401
1.66713e-06
11.4007
1.65727e-06
11.4004
1.64713e-06
11.4001
1.63723e-06
11.3997
1.6323e-06
11.3994
1.62046e-06
11.3989
1.60815e-06
11.3985
1.60106e-06
11.398
1.59609e-06
11.3976
1.59263e-06
11.3971
1.59078e-06
11.3967
1.59044e-06
11.3963
1.5919e-06
11.396
1.59609e-06
11.3957
1.60145e-06
11.3955
1.60702e-06
11.3953
1.61283e-06
11.3952
1.62076e-06
11.3952
1.6351e-06
11.3952
1.59293e-06
11.3953
1.72622e-06
11.3954
1.60903e-06
11.3956
1.63498e-06
11.3958
1.68349e-06
11.3961
1.64868e-06
11.3964
1.69182e-06
11.3967
1.64663e-06
11.397
1.70562e-06
11.3973
1.64247e-06
11.3976
1.70417e-06
11.3979
1.64941e-06
11.3981
1.69407e-06
11.3984
1.65681e-06
11.3986
1.67536e-06
11.3987
1.66262e-06
11.3988
1.66273e-06
11.3988
1.64353e-06
11.3987
1.58988e-06
11.3985
1.8889e-06
11.3982
1.11947e-06
11.3978
1.91938e-06
11.3972
1.42634e-06
11.3966
1.6779e-06
11.3959
1.69799e-06
11.3951
1.50078e-06
11.3943
1.6301e-06
11.3934
1.51453e-06
11.3925
1.63047e-06
11.3916
1.51779e-06
11.3908
1.66181e-06
11.39
1.5252e-06
11.3893
1.25864e-06
11.3888
2.4078e-06
11.3883
8.97793e-07
11.3879
1.95327e-06
11.3876
1.96728e-06
11.3874
1.4506e-06
11.3872
2.09364e-06
11.387
2.35767e-06
11.3868
8.11188e-06
11.3866
4.56191e-05
11.3869
0.000317647
11.3908
0.00228493
11.4212
0.0170614
11.6158
0.185875
0.706646
12.5446
5.79608
5.79548
5.79489
5.79431
5.79374
5.79317
5.79259
5.79201
5.79143
5.79085
5.79025
5.78966
5.78907
5.78847
5.78788
5.78727
5.78665
5.78603
5.78538
5.78472
5.78403
5.78332
5.78259
5.78182
5.78102
5.78018
5.77932
5.77844
5.77753
5.77661
5.77567
5.77471
5.77372
5.77272
5.77171
5.77067
5.76963
5.76859
5.76754
5.7665
5.76547
5.76445
5.76344
5.76245
5.76148
5.76052
5.75959
5.75867
5.75778
5.75689
5.75603
5.75517
5.75433
5.75349
5.75265
5.75181
5.75097
5.75012
5.74926
5.74839
5.7475
5.7466
5.74567
5.74472
5.74375
5.74276
5.74175
5.74072
5.73966
5.73858
5.73749
5.73638
5.73526
5.73413
5.73299
5.73184
5.73069
5.72954
5.72839
5.72725
5.7261
5.72497
5.72384
5.72273
5.72162
5.72052
5.71944
5.71836
5.7173
5.71625
5.7152
5.71417
5.71314
5.71213
5.71112
5.71011
5.70912
5.70813
5.70714
5.70617
5.7052
5.70424
5.70329
5.70236
5.70144
5.70054
5.69967
5.69882
5.698
5.69721
5.69646
5.69574
5.69507
5.69445
5.69387
5.69333
5.69284
5.6924
5.692
5.69165
5.69134
5.69106
5.69082
5.69061
5.69043
5.69028
5.69014
5.69003
5.68992
5.68982
5.68973
5.68964
5.68954
5.68943
5.68931
5.68918
5.68904
5.68887
5.68869
5.6885
5.68829
5.68807
5.68785
5.68763
5.6874
5.68719
5.687
5.68683
5.68668
5.68657
5.68649
5.68644
5.68642
5.68644
5.68649
5.68656
5.68666
5.68678
5.68691
5.68706
5.68721
5.68736
5.68752
5.68767
5.68781
5.68795
5.68806
5.68816
5.68823
5.68827
5.68826
5.68821
5.68812
5.68797
5.68777
5.68751
5.6872
5.68685
5.68646
5.68604
5.6856
5.68515
5.68472
5.6843
5.68392
5.68358
5.68329
5.68305
5.68286
5.68272
5.68261
5.68251
5.68241
5.68231
5.68222
5.68237
5.68445
5.70128
5.88691
6.59328
5.01595
0.125172
5.02286
-0.00698563
5.01871
0.00408384
5.02241
-0.00376047
5.03586
-0.0135081
5.0593
-0.0234594
5.13036
-0.0710749
5.25256
-0.122353
5.35245
-0.100164
5.3549
-0.00267281
5.28673
0.0682663
5.17493
0.112249
5.0607
0.115313
5.08279
-0.0194144
5.42137
-0.336444
5.99843
-0.576079
6.60449
-0.607064
7.00452
-0.402887
7.09394
-0.0946592
-0.237228
7.32702
10.4958
0.177526
10.5139
-0.0252035
10.5602
-0.0423715
10.6138
-0.0574134
10.68
-0.0798527
10.7628
-0.106291
10.9462
-0.254531
11.2365
-0.412962
11.4949
-0.359173
11.5669
-0.0750286
11.4937
0.141814
11.3122
0.29468
11.0591
0.370534
10.9623
0.0827851
11.4171
-0.786846
12.3516
-1.50935
13.5289
-1.78692
14.5339
-1.41491
14.9683
-0.539127
-0.545354
15.269
135.967
0.123509
136.043
-0.102774
136.052
-0.0520927
135.897
0.0959819
135.586
0.230182
135.16
0.31847
134.533
0.37229
133.756
0.361737
133.004
0.392787
132.567
0.360128
132.352
0.354627
132.316
0.327348
132.381
0.3008
132.18
0.276478
131.135
0.25287
129.4
0.224544
127.435
0.181961
125.911
0.117798
125.356
0.027161
-0.194266
125.012
12.4887
0.179234
12.3922
-0.00629038
12.3474
-0.00740763
12.4191
0.0240805
12.5924
0.056699
12.8281
0.0824451
13.099
0.100599
13.3593
0.101863
13.6412
0.110362
13.8987
0.102931
14.1542
0.0991195
14.3915
0.0900362
14.6121
0.0801451
14.8178
0.0707186
15.0099
0.0607319
15.1874
0.046916
15.3454
0.0238431
15.4775
-0.0143908
15.583
-0.078507
-0.261573
15.6503
6.77248
6.76614
6.75867
6.78267
6.83926
6.92155
7.0219
7.12384
7.23405
7.33707
7.43621
7.52622
7.60634
7.67703
7.73772
7.7846
7.80838
7.79394
7.71539
7.45377
7.18748
0.137684
7.49972
-0.310524
7.84051
-0.342176
7.90438
-0.0655624
7.85891
0.044776
7.82771
0.0304839
7.84
-0.0130036
7.85542
-0.0162182
7.85614
-0.00149256
7.85043
0.00501768
7.84382
0.00588026
7.83888
0.00419255
7.83535
0.00279355
7.83244
0.00220812
7.82983
0.00190851
7.8276
0.00154481
7.82586
0.00106688
7.82463
0.000576548
7.8238
0.000193428
7.82321
-1.13603e-05
7.82264
3.32686e-06
7.82191
0.000177309
7.82109
0.000316707
7.82088
-0.000263773
7.82328
-0.00283152
7.82764
-0.00477441
7.83117
-0.00394277
7.8321
-0.00133357
7.83056
0.00116411
7.82838
0.0018232
7.82587
0.00215379
7.82327
0.0022306
7.82077
0.00211651
7.81857
0.00181358
7.81683
0.00132996
7.81565
0.000737171
7.81499
0.000175191
7.81469
-0.000222633
7.8144
-0.00029054
7.81377
5.01311e-06
7.81254
0.000545844
7.81074
0.00107926
7.80862
0.00134406
7.80663
0.00117968
7.8049
0.000901741
7.80296
0.00105191
7.79969
0.00233397
7.7936
0.0051094
7.78304
0.00952198
7.76661
0.0153607
7.7433
0.0222501
7.71242
0.029817
7.67354
0.037824
7.62628
0.0462213
7.57009
0.0551488
7.5042
0.0648573
7.42757
0.0755867
7.33895
0.0874792
7.23675
0.100485
7.12071
0.113159
6.99247
0.126023
6.85429
0.136815
6.70922
0.144139
6.56226
0.147007
6.41815
0.145183
6.28124
0.137226
6.15586
0.125074
6.04534
0.109864
5.9513
0.0932171
5.87378
0.0766439
5.81161
0.0612341
5.76295
0.0477856
5.72561
0.0365036
5.69742
0.0273859
5.67641
0.0202289
5.6609
0.0147417
5.64952
0.0106153
5.6412
0.00756296
5.63511
0.00533681
5.63062
0.00373016
5.62727
0.00258491
5.62471
0.00177633
5.62271
0.00121065
5.62107
0.000818413
5.61969
0.000548763
5.61846
0.000364944
5.61733
0.000240672
5.61626
0.00015735
5.61522
0.000101943
5.61418
6.54015e-05
5.61313
4.15011e-05
5.61208
2.59978e-05
5.611
1.60243e-05
5.60991
9.66125e-06
5.60881
5.63489e-06
5.60768
3.10784e-06
5.60654
1.53376e-06
5.60539
5.60383e-07
5.60424
-3.68655e-08
5.60308
-4.01411e-07
5.60192
-6.22516e-07
5.60077
-7.57253e-07
5.59962
-8.39744e-07
5.59849
-8.91117e-07
5.59738
-9.24079e-07
5.59628
-9.46178e-07
5.59521
-9.61812e-07
5.59416
-9.73469e-07
5.59313
-9.82529e-07
5.59214
-9.89759e-07
5.59117
-9.95571e-07
5.59023
-1.00008e-06
5.58932
-1.0033e-06
5.58844
-1.00532e-06
5.58759
-1.0063e-06
5.58677
-1.00639e-06
5.58597
-1.00559e-06
5.5852
-1.00388e-06
5.58445
-1.00115e-06
5.58371
-9.97266e-07
5.583
-9.92093e-07
5.5823
-9.85574e-07
5.5816
-9.77781e-07
5.58092
-9.68819e-07
5.58023
-9.58764e-07
5.57955
-9.47666e-07
5.57886
-9.35574e-07
5.57816
-9.22619e-07
5.57744
-9.08984e-07
5.57672
-8.9489e-07
5.57597
-8.80571e-07
5.5752
-8.6623e-07
5.57441
-8.52044e-07
5.5736
-8.38234e-07
5.57276
-8.2503e-07
5.5719
-8.1251e-07
5.57101
-8.00639e-07
5.5701
-7.89491e-07
5.56917
-7.79626e-07
5.56822
-7.71684e-07
5.56726
-7.65889e-07
5.56629
-7.62138e-07
5.56531
-7.60319e-07
5.56433
-7.60318e-07
5.56335
-7.62042e-07
5.56237
-7.6538e-07
5.56141
-7.70207e-07
5.56046
-7.76419e-07
5.55953
-7.83859e-07
5.55861
-7.92352e-07
5.55772
-8.01692e-07
5.55686
-8.11624e-07
5.55601
-8.21892e-07
5.55519
-8.3226e-07
5.5544
-8.42567e-07
5.55363
-8.52622e-07
5.55289
-8.62363e-07
5.55216
-8.71629e-07
5.55147
-8.80458e-07
5.55079
-8.89073e-07
5.55013
-8.96749e-07
5.5495
-9.03226e-07
5.54888
-9.08272e-07
5.54828
-9.1246e-07
5.5477
-9.16589e-07
5.54712
-9.19919e-07
5.54656
-9.22397e-07
5.54601
-9.23343e-07
5.54546
-9.2267e-07
5.5449
-9.20365e-07
5.54434
-9.16394e-07
5.54377
-9.1057e-07
5.54318
-9.03023e-07
5.54256
-8.93611e-07
5.54191
-8.82388e-07
5.54122
-8.69681e-07
5.54049
-8.55609e-07
5.53971
-8.4002e-07
5.53888
-8.2366e-07
5.538
-8.06664e-07
5.53706
-7.89581e-07
5.53607
-7.71941e-07
5.53502
-7.54942e-07
5.53392
-7.40227e-07
5.53276
-7.22905e-07
5.53157
-7.09733e-07
5.53033
-6.94787e-07
5.52906
-6.8687e-07
5.52777
-6.83907e-07
5.52647
-7.15925e-07
5.52516
-8.92196e-07
5.52386
-1.8208e-06
5.52259
-6.71016e-06
5.52137
-3.10405e-05
5.52032
-0.000158323
5.51997
-0.00081469
5.52312
-0.0042547
5.54508
-0.0230139
5.71195
-0.16787
-0.652489
6.3635
14.3593
1.04458
14.4955
-0.443369
15.0498
-0.899326
15.2232
-0.242358
15.1441
0.12238
15.0582
0.114973
15.0604
-0.0167007
15.0884
-0.0457881
15.0955
-0.0100597
15.0864
0.0126751
15.0728
0.0180014
15.0616
0.013935
15.053
0.00991578
15.0456
0.00820706
15.0386
0.00746945
15.0322
0.00659396
15.0266
0.00533333
15.0219
0.00395598
15.018
0.00285779
15.0144
0.00232773
15.0107
0.00257024
15.0063
0.00346155
15.0011
0.00452195
14.9962
0.00371661
14.9965
-0.00402469
15.0033
-0.0124602
15.0124
-0.0138367
15.0187
-0.00842854
15.0199
-0.000700832
15.0183
0.00265385
15.0148
0.00495299
15.0099
0.00639714
15.0041
0.00721079
14.9977
0.0073671
14.9914
0.00682613
14.9854
0.00580359
14.9798
0.00477922
14.9743
0.00429025
14.9678
0.0050048
14.9594
0.00706545
14.9485
0.0101497
14.9347
0.0134339
14.9186
0.0158234
14.9019
0.0163615
14.8855
0.015518
14.8699
0.0148998
14.8536
0.0167431
14.8341
0.0225151
14.8083
0.0332362
14.7729
0.0486364
14.7253
0.0677841
14.6634
0.0895741
14.5861
0.113106
14.4923
0.137912
14.3814
0.163997
14.2525
0.191638
14.1049
0.22107
13.9374
0.252185
13.7498
0.283723
13.5447
0.314442
13.3259
0.342143
13.0975
0.363231
12.8656
0.374783
12.6378
0.375535
12.4199
0.36342
12.2173
0.339208
12.0354
0.305896
11.877
0.266718
11.7433
0.225319
11.6333
0.184947
11.5449
0.147908
11.4753
0.115683
11.4215
0.0887114
11.3805
0.0668695
11.3495
0.0496552
11.3263
0.0363875
11.3091
0.026349
11.2963
0.0188744
11.2867
0.0133842
11.2795
0.00939992
11.274
0.00654162
11.2697
0.00451237
11.2663
0.00308559
11.2634
0.00209188
11.2608
0.00140614
11.2585
0.000937177
11.2564
0.000619302
11.2543
0.000405734
11.2523
0.000263501
11.2502
0.000169602
11.2481
0.00010815
11.246
6.82821e-05
11.2439
4.26413e-05
11.2417
2.62928e-05
11.2395
1.59589e-05
11.2372
9.48311e-06
11.235
5.45784e-06
11.2327
2.97689e-06
11.2304
1.46086e-06
11.228
5.4056e-07
11.2257
-1.28953e-08
11.2234
-3.45433e-07
11.2211
-5.44151e-07
11.2189
-6.6311e-07
11.2166
-7.34833e-07
11.2144
-7.78773e-07
11.2123
-8.06433e-07
11.2102
-8.24495e-07
11.2081
-8.36798e-07
11.2061
-8.45528e-07
11.2042
-8.519e-07
11.2023
-8.56532e-07
11.2005
-8.59722e-07
11.1987
-8.61679e-07
11.197
-8.62633e-07
11.1954
-8.62761e-07
11.1938
-8.62116e-07
11.1922
-8.60668e-07
11.1907
-8.58335e-07
11.1893
-8.55003e-07
11.1878
-8.50569e-07
11.1864
-8.4499e-07
11.185
-8.38311e-07
11.1836
-8.30622e-07
11.1823
-8.21991e-07
11.1809
-8.12464e-07
11.1795
-8.02097e-07
11.1781
-7.9099e-07
11.1767
-7.79296e-07
11.1752
-7.67207e-07
11.1737
-7.54926e-07
11.1722
-7.42628e-07
11.1706
-7.3047e-07
11.169
-7.1863e-07
11.1673
-7.07315e-07
11.1656
-6.96599e-07
11.1638
-6.86423e-07
11.162
-6.76903e-07
11.1601
-6.68453e-07
11.1582
-6.61621e-07
11.1563
-6.56641e-07
11.1544
-6.53437e-07
11.1524
-6.51888e-07
11.1504
-6.51887e-07
11.1485
-6.53366e-07
11.1465
-6.56214e-07
11.1446
-6.60364e-07
11.1427
-6.65677e-07
11.1408
-6.72064e-07
11.139
-6.79338e-07
11.1372
-6.8734e-07
11.1355
-6.95842e-07
11.1338
-7.04654e-07
11.1321
-7.13529e-07
11.1306
-7.22379e-07
11.129
-7.30983e-07
11.1275
-7.39383e-07
11.1261
-7.47277e-07
11.1247
-7.54896e-07
11.1233
-7.62152e-07
11.122
-7.68985e-07
11.1207
-7.74291e-07
11.1195
-7.78811e-07
11.1183
-7.82291e-07
11.1171
-7.86011e-07
11.116
-7.8856e-07
11.1149
-7.90938e-07
11.1137
-7.91687e-07
11.1126
-7.91044e-07
11.1115
-7.88994e-07
11.1104
-7.85758e-07
11.1093
-7.80673e-07
11.1081
-7.74246e-07
11.1068
-7.66149e-07
11.1055
-7.56348e-07
11.1041
-7.45648e-07
11.1027
-7.33847e-07
11.1011
-7.20141e-07
11.0995
-7.06055e-07
11.0977
-6.91465e-07
11.0958
-6.77311e-07
11.0938
-6.61584e-07
11.0917
-6.47048e-07
11.0895
-6.35087e-07
11.0872
-6.18286e-07
11.0848
-6.10843e-07
11.0823
-5.94472e-07
11.0798
-5.9321e-07
11.0772
-5.99857e-07
11.0746
-7.03982e-07
11.072
-1.22676e-06
11.0694
-3.95458e-06
11.0668
-1.8043e-05
11.0644
-9.01392e-05
11.0623
-0.000463758
11.0616
-0.00239043
11.0675
-0.0123911
11.1071
-0.064705
11.2988
-0.361604
-1.49391
12.1383
126.001
0.0384039
125.495
0.0324518
124.548
0.0264154
124.276
0.0125131
124.383
-0.00199838
124.481
-0.00135157
124.446
0.000147403
124.39
-0.00763741
124.373
-0.0109882
124.378
-0.0102767
124.387
-0.00900624
124.392
-0.0083126
124.393
-0.00801183
124.391
-0.00752792
124.388
-0.00673126
124.384
-0.00583103
124.378
-0.00501338
124.371
-0.00433314
124.363
-0.00374602
124.354
-0.00315582
124.345
-0.0025027
124.337
-0.00164606
124.33
-0.00078007
124.323
-6.22346e-05
124.308
0.000188773
124.285
-0.000351892
124.263
-0.00125487
124.247
-0.00176785
124.239
-0.001501
124.233
-0.00102689
124.23
-0.000618953
124.228
-0.000349449
124.226
-0.000222203
124.223
-0.00025525
124.22
-0.000519832
124.216
-0.00112634
124.211
-0.00240538
124.206
-0.00430658
124.204
-0.00652153
124.205
-0.00895889
124.211
-0.0116165
124.222
-0.0148332
124.242
-0.019488
124.274
-0.0268305
124.317
-0.0385062
124.373
-0.0553804
124.451
-0.0777926
124.561
-0.105586
124.711
-0.138261
124.913
-0.174971
125.171
-0.214463
125.491
-0.254895
125.873
-0.293783
126.314
-0.328157
126.808
-0.355034
127.346
-0.371923
127.921
-0.378304
128.524
-0.374679
129.147
-0.362363
129.782
-0.343072
130.421
-0.318706
131.054
-0.290649
131.667
-0.259947
132.249
-0.227585
132.787
-0.195303
133.27
-0.164539
133.691
-0.136177
134.048
-0.110823
134.343
-0.0888317
134.578
-0.0702369
134.762
-0.0548325
134.901
-0.0423
135.003
-0.0322488
135.076
-0.0243015
135.125
-0.018101
135.157
-0.0133256
135.175
-0.00969624
135.183
-0.00697393
135.184
-0.0049583
135.178
-0.00348499
135.169
-0.00242152
135.156
-0.00166372
135.142
-0.00113022
135.125
-0.000759204
135.107
-0.00050428
135.087
-0.000331196
135.067
-0.000215053
135.045
-0.000138023
135.023
-8.75217e-05
135
-5.47906e-05
134.976
-3.38172e-05
134.951
-2.05294e-05
134.926
-1.22049e-05
134.9
-7.0478e-06
134.874
-3.88825e-06
134.847
-1.97297e-06
134.82
-8.23444e-07
134.792
-1.41236e-07
134.764
2.59219e-07
134.736
4.94359e-07
134.709
6.31364e-07
134.681