/*--------------------------------*- C++ -*----------------------------------*\
| =========                 |                                                 |
| \\      /  F ield         | OpenFOAM: The Open Source CFD Toolbox           |
|  \\    /   O peration     | Version:  3.0.x                                 |
|   \\  /    A nd           | Web:      www.OpenFOAM.org                      |
|    \\/     M anipulation  |                                                 |
\*---------------------------------------------------------------------------*/
FoamFile
{
    version     2.0;
    format      ascii;
    class       volScalarField;
    location    "0.27";
    object      rho;
}
// * * * * * * * * * * * * * * * * * * * * * * * * * * * * * * * * * * * * * //

dimensions      [1 -3 0 0 0 0 0];

internalField   nonuniform List<scalar> 
6900
(
50.9085
50.9085
50.9086
50.9087
50.9088
50.9089
50.909
50.909
50.909
50.9089
50.9087
50.9086
50.9084
50.9083
50.9082
50.9082
50.9081
50.9081
50.9081
50.908
50.908
50.9079
50.9079
50.9077
50.9075
50.9073
50.907
50.9067
50.9065
50.9063
50.9061
50.906
50.9058
50.9056
50.9054
50.9052
50.9049
50.9045
50.9042
50.9038
50.9034
50.9029
50.9025
50.902
50.9016
50.9011
50.9006
50.9002
50.8997
50.8992
50.8987
50.8981
50.8976
50.8971
50.8966
50.8961
50.8956
50.8951
50.8946
50.8941
50.8936
50.8931
50.8926
50.8921
50.8916
50.8912
50.8907
50.8902
50.8897
50.8892
50.8888
50.8883
50.8878
50.8872
50.8867
50.8862
50.8856
50.8851
50.8845
50.8839
50.8833
50.8827
50.8821
50.8814
50.8808
50.8801
50.8794
50.8788
50.8781
50.8774
50.8767
50.8761
50.8754
50.8748
50.8742
50.8736
50.873
50.8724
50.8719
50.8713
50.8709
50.8704
50.8699
50.8695
50.8691
50.8688
50.8684
50.8681
50.8678
50.8675
50.8672
50.8669
50.8666
50.8664
50.8661
50.8659
50.8656
50.8654
50.8651
50.8648
50.8646
50.8643
50.8641
50.8638
50.8636
50.8634
50.8631
50.8629
50.8627
50.8625
50.8623
50.8622
50.862
50.8619
50.8618
50.8617
50.8617
50.8617
50.8617
50.8617
50.8617
50.8618
50.8618
50.8619
50.862
50.8621
50.8622
50.8623
50.8624
50.8624
50.8625
50.8625
50.8625
50.8625
50.8625
50.8625
50.8624
50.8624
50.8623
50.8622
50.8621
50.862
50.8619
50.8618
50.8616
50.8615
50.8614
50.8613
50.8612
50.8612
50.8611
50.8611
50.861
50.861
50.8611
50.8611
50.8612
50.8613
50.8615
50.8616
50.8617
50.8619
50.862
50.8621
50.8622
50.8622
50.8622
50.8622
50.8621
50.8619
50.8617
50.8615
50.8613
50.861
50.8607
50.8604
50.8601
50.8598
50.8599
50.8568
50.9086
50.9087
50.9087
50.9088
50.9089
50.9091
50.9092
50.9092
50.9091
50.909
50.9089
50.9087
50.9085
50.9084
50.9083
50.9083
50.9082
50.9082
50.9082
50.9082
50.9081
50.908
50.908
50.9078
50.9076
50.9074
50.9071
50.9068
50.9066
50.9064
50.9062
50.9061
50.9059
50.9057
50.9055
50.9053
50.905
50.9046
50.9042
50.9039
50.9034
50.903
50.9026
50.9021
50.9017
50.9012
50.9007
50.9002
50.8997
50.8992
50.8987
50.8982
50.8977
50.8972
50.8967
50.8962
50.8957
50.8952
50.8947
50.8942
50.8937
50.8932
50.8927
50.8922
50.8917
50.8912
50.8908
50.8903
50.8898
50.8893
50.8888
50.8883
50.8878
50.8873
50.8868
50.8863
50.8857
50.8852
50.8846
50.884
50.8834
50.8828
50.8821
50.8815
50.8808
50.8802
50.8795
50.8788
50.8782
50.8775
50.8768
50.8762
50.8755
50.8749
50.8743
50.8736
50.8731
50.8725
50.8719
50.8714
50.8709
50.8705
50.87
50.8696
50.8692
50.8688
50.8685
50.8682
50.8679
50.8676
50.8673
50.867
50.8667
50.8665
50.8662
50.8659
50.8657
50.8654
50.8652
50.8649
50.8647
50.8644
50.8642
50.8639
50.8637
50.8634
50.8632
50.863
50.8628
50.8626
50.8624
50.8623
50.8621
50.862
50.8619
50.8618
50.8618
50.8617
50.8617
50.8618
50.8618
50.8618
50.8619
50.862
50.8621
50.8622
50.8623
50.8624
50.8625
50.8625
50.8626
50.8626
50.8626
50.8626
50.8626
50.8626
50.8625
50.8624
50.8624
50.8623
50.8622
50.8621
50.8619
50.8618
50.8617
50.8616
50.8615
50.8614
50.8613
50.8612
50.8612
50.8611
50.8611
50.8611
50.8612
50.8612
50.8613
50.8614
50.8615
50.8617
50.8618
50.862
50.8621
50.8622
50.8623
50.8623
50.8623
50.8622
50.8622
50.862
50.8618
50.8616
50.8613
50.8611
50.8608
50.8605
50.8602
50.8599
50.8599
50.8571
50.9086
50.9087
50.9087
50.9088
50.9089
50.9091
50.9092
50.9092
50.9091
50.909
50.9089
50.9087
50.9085
50.9084
50.9083
50.9083
50.9082
50.9082
50.9082
50.9082
50.9081
50.908
50.908
50.9078
50.9076
50.9074
50.9071
50.9068
50.9065
50.9063
50.9062
50.9061
50.9059
50.9057
50.9055
50.9053
50.905
50.9046
50.9042
50.9039
50.9034
50.903
50.9026
50.9021
50.9017
50.9012
50.9007
50.9002
50.8997
50.8992
50.8987
50.8982
50.8977
50.8972
50.8967
50.8962
50.8957
50.8952
50.8947
50.8942
50.8937
50.8932
50.8927
50.8922
50.8917
50.8912
50.8908
50.8903
50.8898
50.8893
50.8888
50.8883
50.8878
50.8873
50.8868
50.8863
50.8857
50.8852
50.8846
50.884
50.8834
50.8828
50.8821
50.8815
50.8808
50.8802
50.8795
50.8788
50.8782
50.8775
50.8768
50.8762
50.8755
50.8749
50.8743
50.8736
50.8731
50.8725
50.8719
50.8714
50.8709
50.8705
50.87
50.8696
50.8692
50.8688
50.8685
50.8682
50.8679
50.8676
50.8673
50.867
50.8667
50.8665
50.8662
50.8659
50.8657
50.8654
50.8652
50.8649
50.8647
50.8644
50.8642
50.8639
50.8637
50.8634
50.8632
50.863
50.8628
50.8626
50.8624
50.8623
50.8621
50.862
50.8619
50.8618
50.8618
50.8617
50.8617
50.8618
50.8618
50.8618
50.8619
50.862
50.8621
50.8622
50.8623
50.8624
50.8625
50.8625
50.8626
50.8626
50.8626
50.8626
50.8626
50.8626
50.8625
50.8624
50.8624
50.8623
50.8622
50.8621
50.8619
50.8618
50.8617
50.8616
50.8615
50.8614
50.8613
50.8612
50.8612
50.8611
50.8611
50.8611
50.8612
50.8612
50.8613
50.8614
50.8615
50.8617
50.8618
50.862
50.8621
50.8622
50.8623
50.8623
50.8623
50.8622
50.8622
50.862
50.8618
50.8616
50.8613
50.861
50.8608
50.8605
50.8602
50.8599
50.8596
50.8592
50.9086
50.9087
50.9087
50.9088
50.9089
50.9091
50.9092
50.9092
50.9091
50.909
50.9089
50.9087
50.9085
50.9084
50.9083
50.9083
50.9082
50.9082
50.9082
50.9082
50.9081
50.908
50.908
50.9078
50.9076
50.9074
50.9071
50.9068
50.9066
50.9064
50.9062
50.9061
50.9059
50.9057
50.9055
50.9053
50.905
50.9046
50.9042
50.9039
50.9034
50.903
50.9026
50.9021
50.9017
50.9012
50.9007
50.9002
50.8997
50.8992
50.8987
50.8982
50.8977
50.8972
50.8967
50.8962
50.8957
50.8952
50.8947
50.8942
50.8937
50.8932
50.8927
50.8922
50.8917
50.8912
50.8908
50.8903
50.8898
50.8893
50.8888
50.8883
50.8878
50.8873
50.8868
50.8863
50.8857
50.8852
50.8846
50.884
50.8834
50.8828
50.8821
50.8815
50.8808
50.8802
50.8795
50.8788
50.8782
50.8775
50.8768
50.8762
50.8755
50.8749
50.8743
50.8736
50.8731
50.8725
50.8719
50.8714
50.8709
50.8705
50.87
50.8696
50.8692
50.8688
50.8685
50.8682
50.8679
50.8676
50.8673
50.867
50.8667
50.8665
50.8662
50.8659
50.8657
50.8654
50.8652
50.8649
50.8647
50.8644
50.8642
50.8639
50.8637
50.8634
50.8632
50.863
50.8628
50.8626
50.8624
50.8623
50.8621
50.862
50.8619
50.8618
50.8618
50.8617
50.8617
50.8618
50.8618
50.8618
50.8619
50.862
50.8621
50.8622
50.8623
50.8624
50.8625
50.8625
50.8626
50.8626
50.8626
50.8626
50.8626
50.8626
50.8625
50.8624
50.8624
50.8623
50.8622
50.8621
50.8619
50.8618
50.8617
50.8616
50.8615
50.8614
50.8613
50.8612
50.8612
50.8611
50.8611
50.8611
50.8612
50.8612
50.8613
50.8614
50.8615
50.8617
50.8618
50.862
50.8621
50.8622
50.8623
50.8623
50.8623
50.8623
50.8621
50.862
50.8618
50.8616
50.8613
50.8611
50.8608
50.8605
50.8602
50.86
50.8588
50.8646
50.9085
50.9085
50.9086
50.9087
50.9088
50.9089
50.909
50.909
50.909
50.9089
50.9087
50.9086
50.9084
50.9083
50.9082
50.9082
50.9081
50.9081
50.9081
50.908
50.908
50.9079
50.9079
50.9077
50.9075
50.9073
50.907
50.9067
50.9065
50.9063
50.9061
50.906
50.9058
50.9056
50.9054
50.9052
50.9049
50.9045
50.9042
50.9038
50.9034
50.9029
50.9025
50.902
50.9016
50.9011
50.9006
50.9002
50.8997
50.8992
50.8987
50.8981
50.8976
50.8971
50.8966
50.8961
50.8956
50.8951
50.8946
50.8941
50.8936
50.8931
50.8926
50.8921
50.8916
50.8912
50.8907
50.8902
50.8897
50.8892
50.8888
50.8883
50.8878
50.8872
50.8867
50.8862
50.8856
50.8851
50.8845
50.8839
50.8833
50.8827
50.8821
50.8814
50.8808
50.8801
50.8794
50.8788
50.8781
50.8774
50.8767
50.8761
50.8754
50.8748
50.8742
50.8736
50.873
50.8724
50.8719
50.8713
50.8709
50.8704
50.8699
50.8695
50.8691
50.8688
50.8684
50.8681
50.8678
50.8675
50.8672
50.8669
50.8666
50.8664
50.8661
50.8659
50.8656
50.8654
50.8651
50.8648
50.8646
50.8643
50.8641
50.8638
50.8636
50.8634
50.8631
50.8629
50.8627
50.8625
50.8623
50.8622
50.862
50.8619
50.8618
50.8617
50.8617
50.8617
50.8617
50.8617
50.8617
50.8618
50.8618
50.8619
50.862
50.8621
50.8622
50.8623
50.8624
50.8624
50.8625
50.8625
50.8625
50.8625
50.8625
50.8625
50.8624
50.8624
50.8623
50.8622
50.8621
50.862
50.8619
50.8618
50.8616
50.8615
50.8614
50.8613
50.8612
50.8612
50.8611
50.8611
50.861
50.8611
50.8611
50.8611
50.8612
50.8613
50.8615
50.8616
50.8617
50.8619
50.862
50.8621
50.8622
50.8622
50.8622
50.8622
50.8621
50.8619
50.8617
50.8615
50.8612
50.861
50.8607
50.8604
50.8601
50.8599
50.8581
50.8702
50.875
50.8817
50.8823
50.8805
50.8789
50.8776
50.8769
50.8757
50.8718
50.8648
50.8577
50.8521
50.8469
50.845
50.8557
50.8658
50.8665
50.8548
50.8353
50.8132
50.8715
50.8748
50.8745
50.8728
50.8713
50.8702
50.8696
50.8684
50.8641
50.8567
50.85
50.8447
50.8398
50.8379
50.8499
50.8593
50.8571
50.8415
50.8191
50.7984
50.8598
50.8597
50.8585
50.8564
50.8535
50.8498
50.8454
50.8403
50.8346
50.8286
50.8215
50.8133
50.804
50.7939
50.782
50.7701
50.7594
50.7506
50.7423
50.7327
50.8367
50.8336
50.8344
50.8359
50.8348
50.831
50.8256
50.8184
50.8121
50.8046
50.7977
50.7905
50.784
50.778
50.7718
50.7662
50.761
50.7564
50.7529
50.7506
50.8269
50.8146
50.81
50.8093
50.8071
50.8021
50.7955
50.7871
50.7794
50.7705
50.7623
50.7538
50.7459
50.7382
50.7312
50.7242
50.7182
50.7125
50.7086
50.7067
50.7484
50.7427
50.7522
50.7452
50.7407
50.7397
50.7393
50.7385
50.7377
50.7374
50.7372
50.7367
50.7363
50.7359
50.7355
50.7351
50.7347
50.7343
50.7339
50.7334
50.733
50.7326
50.7322
50.7318
50.7316
50.7313
50.731
50.7306
50.7301
50.7299
50.7297
50.7294
50.7291
50.7289
50.7287
50.7286
50.7285
50.7283
50.728
50.7277
50.7274
50.7271
50.7268
50.7265
50.7263
50.7262
50.726
50.7256
50.7252
50.7247
50.7242
50.7238
50.7236
50.7234
50.7233
50.7232
50.7231
50.7225
50.7198
50.7094
50.6968
50.6909
50.6901
50.6934
50.7062
50.7183
50.7245
50.7267
50.7267
50.7259
50.7244
50.7229
50.7217
50.7208
50.7199
50.7192
50.7185
50.7179
50.7173
50.7167
50.7162
50.7157
50.7152
50.7148
50.7144
50.7139
50.7136
50.7132
50.7128
50.7124
50.7121
50.7117
50.7114
50.711
50.7107
50.7103
50.7099
50.7095
50.7091
50.7087
50.7083
50.7078
50.7073
50.7068
50.7063
50.7057
50.7052
50.7046
50.704
50.7033
50.7027
50.702
50.7013
50.7007
50.7
50.6993
50.6985
50.6978
50.6971
50.6964
50.6957
50.695
50.6944
50.6937
50.6931
50.6924
50.6919
50.6913
50.6908
50.6902
50.6898
50.6893
50.6889
50.6885
50.6882
50.6879
50.6876
50.6873
50.6871
50.6869
50.6867
50.6865
50.6863
50.6861
50.6859
50.6857
50.6854
50.6852
50.685
50.6847
50.6844
50.684
50.6837
50.6833
50.6829
50.6824
50.682
50.6815
50.6809
50.6804
50.6798
50.6792
50.6786
50.678
50.6773
50.6767
50.676
50.6753
50.6747
50.674
50.6733
50.6726
50.6719
50.6713
50.6707
50.6701
50.6695
50.669
50.6685
50.668
50.6676
50.6672
50.6669
50.6666
50.6663
50.6661
50.6659
50.6657
50.6655
50.6654
50.6653
50.6652
50.665
50.6649
50.6647
50.6645
50.6642
50.664
50.6625
50.6706
50.7445
50.7429
50.7519
50.7446
50.7399
50.7388
50.7382
50.7375
50.7367
50.7364
50.7361
50.7357
50.7352
50.7349
50.7345
50.7341
50.7337
50.7332
50.7328
50.7323
50.7319
50.7314
50.731
50.7307
50.7303
50.7301
50.7297
50.7293
50.729
50.7287
50.7285
50.7282
50.728
50.7278
50.7277
50.7275
50.7273
50.727
50.7267
50.7263
50.7259
50.7256
50.7253
50.725
50.7248
50.7245
50.7242
50.7237
50.7231
50.7225
50.7221
50.7218
50.7217
50.7216
50.7215
50.7214
50.7211
50.7197
50.7137
50.7047
50.6996
50.6983
50.699
50.705
50.7147
50.7209
50.724
50.7249
50.7247
50.7241
50.7233
50.7223
50.7214
50.7206
50.7199
50.7192
50.7185
50.7179
50.7173
50.7168
50.7163
50.7158
50.7153
50.7149
50.7144
50.714
50.7136
50.7132
50.7129
50.7125
50.7122
50.7118
50.7115
50.7111
50.7107
50.7104
50.71
50.7096
50.7092
50.7088
50.7083
50.7079
50.7074
50.7069
50.7064
50.7058
50.7052
50.7046
50.704
50.7034
50.7028
50.7021
50.7014
50.7007
50.7
50.6993
50.6986
50.6979
50.6972
50.6965
50.6958
50.6951
50.6944
50.6938
50.6931
50.6925
50.6919
50.6914
50.6908
50.6903
50.6898
50.6894
50.689
50.6886
50.6883
50.688
50.6877
50.6874
50.6872
50.6869
50.6867
50.6865
50.6863
50.6861
50.6859
50.6857
50.6855
50.6853
50.685
50.6847
50.6844
50.6841
50.6838
50.6834
50.683
50.6825
50.6821
50.6815
50.681
50.6805
50.6799
50.6793
50.6787
50.6781
50.6774
50.6768
50.6761
50.6754
50.6747
50.674
50.6734
50.6727
50.672
50.6714
50.6708
50.6702
50.6696
50.669
50.6686
50.6681
50.6677
50.6673
50.6669
50.6666
50.6664
50.6662
50.666
50.6658
50.6656
50.6655
50.6654
50.6652
50.6651
50.6649
50.6648
50.6646
50.6643
50.664
50.6629
50.6661
50.7048
50.7144
50.7217
50.7229
50.722
50.7213
50.721
50.7208
50.7206
50.7203
50.72
50.7197
50.7193
50.7189
50.7185
50.7181
50.7176
50.7171
50.7167
50.7163
50.7159
50.7156
50.7152
50.7148
50.7145
50.7141
50.7137
50.7133
50.713
50.7126
50.7122
50.7118
50.7115
50.7111
50.7107
50.7102
50.7098
50.7094
50.7091
50.7088
50.7085
50.7083
50.7086
50.7105
50.714
50.7173
50.7199
50.7219
50.7232
50.7239
50.7243
50.7244
50.7244
50.7243
50.7242
50.7241
50.7239
50.7238
50.7238
50.7239
50.7243
50.7246
50.7248
50.7248
50.7247
50.7244
50.724
50.7235
50.723
50.7224
50.7218
50.7212
50.7206
50.7201
50.7195
50.7189
50.7183
50.7178
50.7173
50.7167
50.7162
50.7158
50.7153
50.7149
50.7144
50.714
50.7136
50.7132
50.7129
50.7125
50.7122
50.7118
50.7115
50.7111
50.7107
50.7104
50.71
50.7096
50.7092
50.7088
50.7083
50.7079
50.7074
50.7069
50.7064
50.7058
50.7052
50.7046
50.704
50.7034
50.7028
50.7021
50.7014
50.7007
50.7
50.6993
50.6986
50.6979
50.6972
50.6965
50.6958
50.6951
50.6944
50.6938
50.6931
50.6925
50.6919
50.6914
50.6908
50.6903
50.6898
50.6894
50.689
50.6886
50.6883
50.688
50.6877
50.6874
50.6872
50.6869
50.6867
50.6865
50.6863
50.6861
50.6859
50.6857
50.6855
50.6853
50.685
50.6847
50.6844
50.6841
50.6838
50.6834
50.683
50.6825
50.6821
50.6815
50.681
50.6805
50.6799
50.6793
50.6787
50.6781
50.6774
50.6768
50.6761
50.6754
50.6747
50.674
50.6734
50.6727
50.672
50.6714
50.6708
50.6702
50.6696
50.669
50.6686
50.6681
50.6677
50.6673
50.667
50.6666
50.6664
50.6662
50.666
50.6658
50.6656
50.6655
50.6654
50.6652
50.6651
50.6649
50.6648
50.6645
50.6643
50.664
50.6638
50.6634
50.7455
50.744
50.742
50.7404
50.7391
50.7382
50.7377
50.7373
50.737
50.7367
50.7364
50.736
50.7357
50.7353
50.7349
50.7346
50.7342
50.7338
50.7334
50.733
50.7326
50.7322
50.7318
50.7314
50.731
50.7307
50.7303
50.73
50.7297
50.7294
50.7291
50.7288
50.7286
50.7284
50.7282
50.7281
50.7279
50.7277
50.7275
50.7273
50.7271
50.727
50.7269
50.7266
50.7263
50.726
50.7256
50.725
50.7245
50.7241
50.7235
50.7227
50.722
50.7215
50.7211
50.7203
50.718
50.7149
50.7129
50.7122
50.7121
50.7132
50.7172
50.7213
50.7238
50.725
50.7252
50.7249
50.7243
50.7236
50.7227
50.7219
50.7211
50.7204
50.7197
50.7191
50.7185
50.7179
50.7173
50.7168
50.7163
50.7158
50.7153
50.7149
50.7144
50.714
50.7136
50.7132
50.7129
50.7125
50.7122
50.7118
50.7115
50.7111
50.7107
50.7104
50.71
50.7096
50.7092
50.7088
50.7083
50.7079
50.7074
50.7069
50.7064
50.7058
50.7052
50.7046
50.704
50.7034
50.7028
50.7021
50.7014
50.7007
50.7
50.6993
50.6986
50.6979
50.6972
50.6965
50.6958
50.6951
50.6944
50.6938
50.6931
50.6925
50.6919
50.6914
50.6908
50.6903
50.6898
50.6894
50.689
50.6886
50.6883
50.688
50.6877
50.6874
50.6872
50.6869
50.6867
50.6865
50.6863
50.6861
50.6859
50.6857
50.6855
50.6853
50.685
50.6847
50.6844
50.6841
50.6838
50.6834
50.683
50.6825
50.6821
50.6815
50.681
50.6805
50.6799
50.6793
50.6787
50.6781
50.6774
50.6768
50.6761
50.6754
50.6747
50.674
50.6734
50.6727
50.672
50.6714
50.6708
50.6702
50.6696
50.669
50.6686
50.6681
50.6677
50.6673
50.667
50.6666
50.6664
50.6662
50.666
50.6658
50.6656
50.6655
50.6654
50.6652
50.6651
50.6649
50.6648
50.6645
50.6643
50.6641
50.6642
50.6627
50.7298
50.7347
50.7334
50.732
50.7309
50.7301
50.7296
50.7293
50.7291
50.7288
50.7284
50.7281
50.7279
50.7275
50.7272
50.7269
50.7265
50.7262
50.7258
50.7254
50.725
50.7246
50.7242
50.7238
50.7234
50.723
50.7226
50.7223
50.722
50.7217
50.7215
50.7213
50.7211
50.721
50.7208
50.7206
50.7204
50.7202
50.72
50.7199
50.7197
50.7195
50.7193
50.719
50.7186
50.7182
50.7178
50.7174
50.7168
50.7162
50.7159
50.7157
50.7156
50.7154
50.7142
50.7086
50.6979
50.691
50.6885
50.6885
50.6913
50.7001
50.7084
50.7142
50.718
50.7204
50.7216
50.7221
50.7222
50.722
50.7216
50.7211
50.7206
50.72
50.7194
50.7188
50.7183
50.7177
50.7172
50.7167
50.7162
50.7157
50.7152
50.7148
50.7144
50.7139
50.7135
50.7132
50.7128
50.7124
50.7121
50.7117
50.7114
50.711
50.7107
50.7103
50.7099
50.7095
50.7091
50.7087
50.7083
50.7078
50.7073
50.7068
50.7063
50.7057
50.7052
50.7046
50.704
50.7033
50.7027
50.702
50.7013
50.7007
50.7
50.6993
50.6985
50.6978
50.6971
50.6964
50.6957
50.695
50.6944
50.6937
50.6931
50.6924
50.6919
50.6913
50.6908
50.6902
50.6898
50.6893
50.6889
50.6885
50.6882
50.6879
50.6876
50.6873
50.6871
50.6869
50.6867
50.6865
50.6863
50.6861
50.6859
50.6857
50.6854
50.6852
50.685
50.6847
50.6844
50.684
50.6837
50.6833
50.6829
50.6824
50.682
50.6815
50.6809
50.6804
50.6798
50.6792
50.6786
50.678
50.6773
50.6767
50.676
50.6753
50.6747
50.674
50.6733
50.6726
50.6719
50.6713
50.6707
50.6701
50.6695
50.669
50.6685
50.668
50.6676
50.6672
50.6669
50.6666
50.6663
50.6661
50.6659
50.6657
50.6656
50.6654
50.6653
50.6652
50.665
50.6649
50.6647
50.6645
50.6643
50.664
50.6641
50.6624
50.6344
50.6218
50.6171
50.6161
50.6138
50.6088
50.6021
50.5951
50.5871
50.5792
50.5713
50.5631
50.5555
50.5477
50.5406
50.5337
50.5281
50.5231
50.5197
50.5179
50.643
50.6398
50.6402
50.6413
50.6401
50.6363
50.6304
50.6251
50.6179
50.6118
50.6051
50.5985
50.5915
50.5855
50.5794
50.5739
50.5689
50.565
50.5622
50.56
50.6639
50.6638
50.6627
50.6606
50.6578
50.6544
50.6503
50.6455
50.6401
50.6335
50.6259
50.6171
50.6076
50.5987
50.5909
50.5836
50.575
50.5647
50.554
50.5421
50.6742
50.6776
50.6774
50.6759
50.6745
50.6731
50.6711
50.6673
50.6631
50.6598
50.6584
50.6626
50.6688
50.6673
50.6552
50.6362
50.6231
50.614
50.6054
50.5996
50.6776
50.6842
50.6849
50.6831
50.6816
50.6802
50.6782
50.6745
50.6702
50.6666
50.6651
50.6688
50.6746
50.6749
50.6655
50.6488
50.6341
50.6241
50.6142
50.6077
50.5388
50.5411
50.5393
50.5382
50.5367
50.5355
50.5349
50.5345
50.5341
50.5337
50.5332
50.5328
50.5325
50.5321
50.5318
50.5315
50.5313
50.531
50.5308
50.5306
50.5303
50.5301
50.5299
50.5297
50.5295
50.5294
50.5292
50.529
50.5289
50.5288
50.5287
50.5286
50.5286
50.5285
50.5284
50.5284
50.5283
50.5283
50.5283
50.5283
50.5283
50.5283
50.5283
50.5283
50.5281
50.5279
50.5277
50.5276
50.5275
50.5273
50.527
50.5269
50.527
50.5272
50.5273
50.5266
50.5219
50.5115
50.5045
50.502
50.5021
50.5046
50.513
50.5219
50.5283
50.5327
50.5356
50.5374
50.5384
50.539
50.5393
50.5394
50.5395
50.5395
50.5395
50.5395
50.5395
50.5395
50.5396
50.5397
50.5398
50.5399
50.5401
50.5402
50.5404
50.5406
50.5408
50.541
50.5413
50.5415
50.5417
50.5419
50.5421
50.5422
50.5424
50.5424
50.5425
50.5426
50.5414
50.5493
50.5536
50.5498
50.5476
50.546
50.5445
50.5433
50.5426
50.5422
50.5419
50.5414
50.5409
50.5405
50.5401
50.5397
50.5394
50.5391
50.5388
50.5385
50.5383
50.538
50.5378
50.5376
50.5373
50.5371
50.5369
50.5368
50.5366
50.5364
50.5363
50.5362
50.5361
50.536
50.5359
50.5358
50.5358
50.5357
50.5357
50.5356
50.5356
50.5355
50.5356
50.5356
50.5356
50.5357
50.5357
50.5356
50.5354
50.5351
50.5348
50.5346
50.5346
50.5344
50.5338
50.5333
50.5332
50.5331
50.5326
50.5308
50.5281
50.5262
50.5257
50.526
50.5271
50.5308
50.5354
50.5385
50.5403
50.541
50.5412
50.5412
50.541
50.5407
50.5404
50.5401
50.54
50.5398
50.5398
50.5397
50.5398
50.5398
50.5399
50.54
50.5402
50.5403
50.5405
50.5407
50.5409
50.5411
50.5413
50.5416
50.5418
50.542
50.5422
50.5423
50.5424
50.5425
50.5426
50.5426
50.5418
50.5449
50.5086
50.5198
50.5282
50.5294
50.528
50.5268
50.5262
50.526
50.5257
50.5253
50.525
50.5246
50.5243
50.5239
50.5236
50.5232
50.5229
50.5226
50.5223
50.522
50.5218
50.5215
50.5213
50.5211
50.5209
50.5207
50.5205
50.5203
50.5201
50.5198
50.5196
50.5194
50.5192
50.519
50.5189
50.5187
50.5185
50.5182
50.5179
50.5176
50.5175
50.5175
50.5175
50.5179
50.5196
50.5232
50.5266
50.5293
50.5314
50.533
50.534
50.5346
50.535
50.5353
50.5356
50.5358
50.5359
50.5361
50.5363
50.5366
50.5371
50.5377
50.5384
50.5389
50.5394
50.5397
50.5398
50.5399
50.5399
50.5398
50.5397
50.5397
50.5396
50.5396
50.5396
50.5396
50.5396
50.5396
50.5397
50.5398
50.5399
50.54
50.5401
50.5403
50.5405
50.5407
50.5409
50.5411
50.5413
50.5416
50.5418
50.542
50.5422
50.5423
50.5424
50.5425
50.5426
50.5426
50.5426
50.5425
50.5875
50.5645
50.5512
50.5472
50.5463
50.5454
50.5435
50.542
50.5416
50.5412
50.5406
50.54
50.5396
50.5394
50.539
50.5387
50.5384
50.5381
50.5378
50.5375
50.5372
50.537
50.5367
50.5365
50.5363
50.5361
50.5359
50.5358
50.5357
50.5355
50.5354
50.5353
50.5352
50.5351
50.5351
50.535
50.535
50.5349
50.5347
50.5345
50.5343
50.5342
50.5342
50.5342
50.5342
50.5341
50.534
50.5336
50.5332
50.533
50.533
50.5331
50.5332
50.5333
50.5334
50.5337
50.5338
50.5338
50.5326
50.5274
50.519
50.5139
50.5126
50.5133
50.5182
50.5282
50.5354
50.5393
50.5411
50.5416
50.5415
50.5413
50.5408
50.5404
50.5402
50.54
50.5399
50.5398
50.5398
50.5399
50.5399
50.54
50.5402
50.5403
50.5405
50.5407
50.5409
50.5411
50.5414
50.5416
50.5418
50.542
50.5422
50.5423
50.5424
50.5425
50.5426
50.5427
50.5431
50.542
50.589
50.5652
50.5516
50.5479
50.5471
50.5466
50.5445
50.5429
50.5427
50.5423
50.5416
50.541
50.5406
50.5404
50.5401
50.5397
50.5394
50.5391
50.5388
50.5385
50.5383
50.538
50.5378
50.5376
50.5374
50.5372
50.537
50.5369
50.5368
50.5366
50.5365
50.5364
50.5363
50.5362
50.5361
50.5361
50.5361
50.5361
50.536
50.5359
50.5358
50.5357
50.5356
50.5356
50.5356
50.5358
50.5358
50.5357
50.5354
50.535
50.5349
50.5349
50.535
50.5351
50.5352
50.5353
50.5355
50.5357
50.5356
50.5338
50.5259
50.5133
50.5066
50.5054
50.5075
50.5177
50.5311
50.5389
50.5424
50.5433
50.5432
50.5425
50.5415
50.5408
50.5404
50.5401
50.5399
50.5398
50.5398
50.5398
50.5399
50.54
50.5401
50.5403
50.5404
50.5406
50.5408
50.5411
50.5413
50.5415
50.5417
50.5419
50.5421
50.5422
50.5424
50.5425
50.5425
50.5426
50.543
50.5417
50.5141
50.5016
50.497
50.4961
50.4938
50.4888
50.4822
50.4753
50.4674
50.4597
50.4519
50.4437
50.4362
50.4285
50.4215
50.4147
50.4091
50.4042
50.4007
50.399
50.5226
50.5195
50.5199
50.521
50.5198
50.5162
50.5103
50.5051
50.498
50.492
50.4854
50.4788
50.4719
50.466
50.46
50.4546
50.4496
50.4459
50.443
50.4409
50.5432
50.5431
50.5421
50.5401
50.5374
50.5341
50.5302
50.5254
50.5201
50.5136
50.5061
50.4973
50.4881
50.4794
50.4719
50.4646
50.4559
50.4458
50.4351
50.4231
50.5533
50.5567
50.5566
50.5552
50.5538
50.5525
50.5506
50.5468
50.5427
50.5395
50.5379
50.5436
50.5494
50.5469
50.5339
50.5156
50.5036
50.4949
50.4867
50.482
50.5566
50.5632
50.564
50.5624
50.5609
50.5596
50.5576
50.5539
50.5497
50.5463
50.5447
50.5496
50.5553
50.5546
50.5447
50.5279
50.5143
50.5048
50.4953
50.4902
50.4196
50.4221
50.421
50.4203
50.4192
50.4184
50.4182
50.4182
50.4182
50.4181
50.4181
50.4181
50.4181
50.418
50.418
50.418
50.4181
50.4181
50.4181
50.4182
50.4182
50.4182
50.4183
50.4183
50.4183
50.4183
50.4183
50.4183
50.4182
50.4181
50.4181
50.418
50.4178
50.4177
50.4175
50.4173
50.4171
50.4169
50.4168
50.4166
50.4163
50.4161
50.4157
50.4153
50.4148
50.4144
50.4139
50.4134
50.4127
50.4122
50.4119
50.4117
50.4115
50.4107
50.4069
50.3967
50.3886
50.3851
50.3847
50.3864
50.3939
50.4029
50.4094
50.4138
50.4165
50.4182
50.4191
50.4195
50.4196
50.4196
50.4194
50.4192
50.419
50.4187
50.4185
50.4183
50.418
50.4178
50.4176
50.4174
50.4172
50.417
50.4167
50.4165
50.4163
50.4161
50.4158
50.4155
50.4153
50.415
50.4147
50.4143
50.414
50.4136
50.4133
50.4129
50.4125
50.4121
50.4116
50.4112
50.4107
50.4102
50.4097
50.4093
50.4088
50.4083
50.4078
50.4073
50.4068
50.4063
50.4059
50.4054
50.405
50.4046
50.4042
50.4038
50.4035
50.4032
50.403
50.4027
50.4025
50.4024
50.4022
50.4022
50.4021
50.4021
50.4021
50.4022
50.4023
50.4025
50.4027
50.4029
50.4031
50.4034
50.4037
50.404
50.4043
50.4047
50.4051
50.4055
50.4058
50.4063
50.4067
50.4071
50.4075
50.4079
50.4084
50.4088
50.4093
50.4097
50.4102
50.4107
50.4112
50.4118
50.4123
50.4129
50.4135
50.4142
50.4149
50.4156
50.4164
50.4172
50.4181
50.419
50.42
50.421
50.4221
50.4232
50.4244
50.4256
50.4269
50.4283
50.4297
50.4312
50.4328
50.4345
50.4362
50.438
50.4398
50.4417
50.4437
50.4457
50.4478
50.45
50.4521
50.4543
50.4566
50.4588
50.4611
50.4634
50.4657
50.468
50.4703
50.4725
50.4749
50.4771
50.4795
50.4817
50.4846
50.4856
50.4342
50.4308
50.4292
50.4281
50.4269
50.4261
50.4258
50.4258
50.4258
50.4257
50.4256
50.4256
50.4255
50.4255
50.4255
50.4255
50.4255
50.4255
50.4256
50.4256
50.4256
50.4257
50.4257
50.4257
50.4257
50.4257
50.4257
50.4257
50.4256
50.4256
50.4255
50.4254
50.4252
50.4251
50.4249
50.4247
50.4245
50.4243
50.4241
50.4238
50.4236
50.4234
50.4231
50.4228
50.4224
50.422
50.4213
50.4207
50.4203
50.4198
50.419
50.4182
50.4176
50.4172
50.4165
50.4146
50.4115
50.4094
50.4085
50.4084
50.4092
50.4128
50.4171
50.4199
50.4215
50.422
50.422
50.4217
50.4213
50.4208
50.4202
50.4198
50.4194
50.4191
50.4187
50.4185
50.4182
50.418
50.4177
50.4175
50.4173
50.4171
50.4168
50.4166
50.4164
50.4161
50.4159
50.4156
50.4153
50.415
50.4147
50.4144
50.4141
50.4137
50.4134
50.413
50.4126
50.4121
50.4117
50.4112
50.4108
50.4103
50.4098
50.4093
50.4088
50.4083
50.4078
50.4074
50.4069
50.4064
50.4059
50.4055
50.4051
50.4047
50.4043
50.4039
50.4036
50.4033
50.403
50.4028
50.4026
50.4024
50.4023
50.4022
50.4022
50.4022
50.4022
50.4023
50.4024
50.4026
50.4027
50.4029
50.4032
50.4035
50.4038
50.4041
50.4044
50.4048
50.4051
50.4055
50.4059
50.4063
50.4067
50.4072
50.4076
50.408
50.4084
50.4089
50.4093
50.4098
50.4103
50.4108
50.4113
50.4118
50.4124
50.413
50.4136
50.4143
50.415
50.4157
50.4165
50.4173
50.4182
50.4191
50.42
50.4211
50.4221
50.4233
50.4244
50.4257
50.427
50.4284
50.4298
50.4313
50.4329
50.4345
50.4363
50.4381
50.4399
50.4418
50.4438
50.4458
50.4479
50.45
50.4522
50.4544
50.4566
50.4589
50.4612
50.4635
50.4658
50.468
50.4703
50.4726
50.4749
50.4771
50.4796
50.4818
50.4846
50.4858
50.3895
50.4018
50.4106
50.4121
50.411
50.4101
50.4099
50.4099
50.4099
50.4098
50.4097
50.4096
50.4095
50.4095
50.4095
50.4095
50.4095
50.4096
50.4096
50.4096
50.4097
50.4097
50.4098
50.4098
50.4098
50.4098
50.4098
50.4097
50.4096
50.4095
50.4093
50.409
50.4088
50.4085
50.4081
50.4075
50.407
50.4065
50.4061
50.4058
50.4055
50.4054
50.4059
50.4084
50.4117
50.4146
50.4167
50.4182
50.4191
50.4196
50.4199
50.4199
50.4199
50.4198
50.4197
50.4196
50.4195
50.4195
50.4197
50.4201
50.4205
50.4208
50.421
50.4211
50.421
50.4208
50.4206
50.4203
50.4201
50.4198
50.4195
50.4193
50.419
50.4188
50.4186
50.4183
50.4181
50.4179
50.4177
50.4175
50.4173
50.417
50.4168
50.4166
50.4164
50.4161
50.4159
50.4156
50.4153
50.415
50.4147
50.4144
50.4141
50.4137
50.4134
50.413
50.4126
50.4121
50.4117
50.4112
50.4108
50.4103
50.4098
50.4093
50.4088
50.4083
50.4078
50.4074
50.4069
50.4064
50.4059
50.4055
50.4051
50.4047
50.4043
50.4039
50.4036
50.4033
50.403
50.4028
50.4026
50.4024
50.4023
50.4022
50.4022
50.4022
50.4022
50.4023
50.4024
50.4026
50.4027
50.4029
50.4032
50.4035
50.4038
50.4041
50.4044
50.4048
50.4051
50.4055
50.4059
50.4063
50.4067
50.4072
50.4076
50.408
50.4084
50.4089
50.4093
50.4098
50.4103
50.4108
50.4113
50.4118
50.4124
50.413
50.4136
50.4143
50.415
50.4157
50.4165
50.4173
50.4182
50.4191
50.42
50.4211
50.4221
50.4233
50.4244
50.4257
50.427
50.4284
50.4298
50.4313
50.4329
50.4345
50.4363
50.4381
50.4399
50.4418
50.4438
50.4458
50.4479
50.45
50.4522
50.4544
50.4566
50.4589
50.4612
50.4635
50.4657
50.468
50.4703
50.4726
50.4749
50.4772
50.4795
50.4817
50.4842
50.4866
50.4689
50.4445
50.4322
50.4296
50.4287
50.4278
50.4263
50.4256
50.4256
50.4254
50.4251
50.425
50.4249
50.4249
50.4249
50.4249
50.4249
50.4249
50.4249
50.425
50.425
50.4251
50.4251
50.4251
50.4251
50.4251
50.4251
50.4251
50.4251
50.425
50.4249
50.4247
50.4246
50.4245
50.4243
50.4241
50.4238
50.4235
50.4232
50.4228
50.4224
50.4221
50.4218
50.4215
50.4211
50.4207
50.42
50.4192
50.4186
50.4181
50.4178
50.4176
50.4174
50.4174
50.4173
50.4171
50.416
50.4112
50.4024
50.3968
50.3951
50.3956
50.4002
50.4099
50.4168
50.4204
50.4219
50.4221
50.4218
50.4213
50.4206
50.4201
50.4196
50.4192
50.4188
50.4185
50.4182
50.418
50.4177
50.4175
50.4173
50.4171
50.4168
50.4166
50.4164
50.4161
50.4159
50.4156
50.4153
50.415
50.4147
50.4144
50.4141
50.4137
50.4134
50.413
50.4126
50.4121
50.4117
50.4112
50.4108
50.4103
50.4098
50.4093
50.4088
50.4083
50.4078
50.4074
50.4069
50.4064
50.4059
50.4055
50.4051
50.4047
50.4043
50.4039
50.4036
50.4033
50.403
50.4028
50.4026
50.4024
50.4023
50.4022
50.4022
50.4022
50.4022
50.4023
50.4024
50.4026
50.4027
50.4029
50.4032
50.4035
50.4038
50.4041
50.4044
50.4048
50.4051
50.4055
50.4059
50.4063
50.4067
50.4072
50.4076
50.408
50.4084
50.4089
50.4093
50.4098
50.4103
50.4108
50.4113
50.4118
50.4124
50.413
50.4136
50.4143
50.415
50.4157
50.4165
50.4173
50.4182
50.4191
50.42
50.4211
50.4221
50.4233
50.4244
50.4257
50.427
50.4284
50.4298
50.4313
50.4329
50.4345
50.4363
50.4381
50.4399
50.4418
50.4438
50.4458
50.4479
50.45
50.4522
50.4544
50.4566
50.4589
50.4612
50.4635
50.4657
50.468
50.4703
50.4727
50.4748
50.4773
50.4794
50.4818
50.4832
50.4891
50.4704
50.4452
50.4325
50.4303
50.4295
50.4288
50.4272
50.4265
50.4266
50.4264
50.4261
50.426
50.426
50.426
50.426
50.426
50.426
50.426
50.426
50.426
50.4261
50.4261
50.4261
50.4262
50.4262
50.4262
50.4262
50.4261
50.4261
50.426
50.4259
50.4258
50.4257
50.4255
50.4253
50.4252
50.4249
50.4247
50.4244
50.424
50.4237
50.4234
50.423
50.4228
50.4227
50.4224
50.422
50.4214
50.4207
50.4201
50.4198
50.4195
50.4193
50.4191
50.419
50.4189
50.4185
50.4167
50.4086
50.3958
50.3888
50.3874
50.3894
50.4
50.413
50.4203
50.4233
50.4239
50.4235
50.4226
50.4213
50.4205
50.4198
50.4193
50.4189
50.4185
50.4182
50.4179
50.4177
50.4174
50.4172
50.417
50.4168
50.4165
50.4163
50.4161
50.4158
50.4155
50.4153
50.415
50.4147