/*--------------------------------*- C++ -*----------------------------------*\
| =========                 |                                                 |
| \\      /  F ield         | OpenFOAM: The Open Source CFD Toolbox           |
|  \\    /   O peration     | Version:  3.0.x                                 |
|   \\  /    A nd           | Web:      www.OpenFOAM.org                      |
|    \\/     M anipulation  |                                                 |
\*---------------------------------------------------------------------------*/
FoamFile
{
    version     2.0;
    format      ascii;
    class       volScalarField;
    location    "0.27";
    object      T;
}
// * * * * * * * * * * * * * * * * * * * * * * * * * * * * * * * * * * * * * //

dimensions      [0 0 0 1 0 0 0];

internalField   nonuniform List<scalar> 
6900
(
774.436
774.435
774.434
774.432
774.429
774.426
774.423
774.42
774.419
774.418
774.417
774.416
774.415
774.414
774.411
774.407
774.404
774.4
774.396
774.391
774.387
774.383
774.379
774.376
774.374
774.372
774.371
774.37
774.368
774.365
774.362
774.358
774.354
774.35
774.347
774.344
774.342
774.34
774.338
774.337
774.335
774.334
774.333
774.331
774.33
774.328
774.327
774.325
774.324
774.322
774.321
774.319
774.318
774.316
774.315
774.313
774.312
774.31
774.308
774.307
774.305
774.304
774.302
774.301
774.3
774.298
774.297
774.295
774.294
774.292
774.291
774.289
774.288
774.286
774.285
774.283
774.281
774.279
774.278
774.276
774.274
774.272
774.27
774.268
774.266
774.264
774.262
774.26
774.258
774.256
774.254
774.252
774.25
774.248
774.246
774.244
774.243
774.241
774.239
774.238
774.236
774.235
774.233
774.232
774.231
774.23
774.229
774.228
774.227
774.226
774.225
774.224
774.223
774.222
774.222
774.221
774.22
774.219
774.218
774.218
774.217
774.216
774.215
774.215
774.214
774.213
774.213
774.212
774.211
774.211
774.21
774.21
774.209
774.209
774.208
774.208
774.208
774.208
774.208
774.208
774.208
774.208
774.209
774.209
774.209
774.209
774.21
774.21
774.21
774.21
774.211
774.211
774.211
774.211
774.211
774.21
774.21
774.21
774.21
774.21
774.209
774.209
774.209
774.208
774.208
774.208
774.207
774.207
774.207
774.206
774.206
774.206
774.206
774.206
774.206
774.206
774.207
774.207
774.207
774.208
774.208
774.209
774.209
774.209
774.21
774.21
774.21
774.21
774.209
774.209
774.208
774.208
774.207
774.206
774.205
774.204
774.203
774.203
774.203
774.27
774.434
774.433
774.432
774.43
774.427
774.424
774.421
774.418
774.417
774.416
774.415
774.415
774.414
774.412
774.409
774.406
774.402
774.398
774.394
774.389
774.385
774.381
774.377
774.374
774.372
774.37
774.369
774.368
774.366
774.364
774.36
774.356
774.352
774.349
774.345
774.343
774.34
774.339
774.337
774.336
774.334
774.333
774.331
774.33
774.329
774.327
774.326
774.324
774.323
774.321
774.32
774.318
774.317
774.315
774.313
774.312
774.31
774.309
774.307
774.306
774.304
774.303
774.301
774.3
774.298
774.297
774.295
774.294
774.292
774.291
774.289
774.288
774.286
774.285
774.283
774.282
774.28
774.278
774.276
774.275
774.273
774.271
774.269
774.267
774.265
774.263
774.261
774.259
774.257
774.255
774.253
774.251
774.249
774.247
774.245
774.243
774.241
774.24
774.238
774.236
774.235
774.233
774.232
774.231
774.23
774.228
774.227
774.226
774.225
774.225
774.224
774.223
774.222
774.221
774.22
774.22
774.219
774.218
774.217
774.216
774.216
774.215
774.214
774.213
774.213
774.212
774.211
774.211
774.21
774.209
774.209
774.208
774.208
774.208
774.207
774.207
774.207
774.207
774.207
774.207
774.207
774.207
774.207
774.208
774.208
774.208
774.208
774.209
774.209
774.209
774.209
774.209
774.209
774.209
774.209
774.209
774.209
774.209
774.209
774.208
774.208
774.208
774.207
774.207
774.207
774.206
774.206
774.206
774.205
774.205
774.205
774.205
774.205
774.205
774.205
774.205
774.205
774.206
774.206
774.207
774.207
774.207
774.208
774.208
774.208
774.209
774.208
774.208
774.208
774.208
774.207
774.206
774.205
774.205
774.204
774.203
774.202
774.202
774.202
774.264
774.434
774.433
774.432
774.43
774.427
774.424
774.421
774.418
774.417
774.416
774.415
774.415
774.414
774.412
774.409
774.406
774.402
774.399
774.394
774.39
774.385
774.381
774.378
774.374
774.372
774.37
774.369
774.368
774.366
774.364
774.36
774.356
774.352
774.349
774.345
774.343
774.34
774.339
774.337
774.336
774.334
774.333
774.331
774.33
774.329
774.327
774.326
774.324
774.323
774.321
774.32
774.318
774.317
774.315
774.313
774.312
774.31
774.309
774.307
774.306
774.304
774.303
774.301
774.3
774.298
774.297
774.295
774.294
774.292
774.291
774.289
774.288
774.286
774.285
774.283
774.282
774.28
774.278
774.276
774.275
774.273
774.271
774.269
774.267
774.265
774.263
774.261
774.259
774.257
774.255
774.253
774.251
774.249
774.247
774.245
774.243
774.241
774.24
774.238
774.236
774.235
774.233
774.232
774.231
774.23
774.228
774.227
774.226
774.225
774.225
774.224
774.223
774.222
774.221
774.22
774.22
774.219
774.218
774.217
774.216
774.216
774.215
774.214
774.213
774.213
774.212
774.211
774.211
774.21
774.209
774.209
774.208
774.208
774.208
774.207
774.207
774.207
774.207
774.207
774.207
774.207
774.207
774.207
774.208
774.208
774.208
774.208
774.209
774.209
774.209
774.209
774.209
774.209
774.209
774.209
774.209
774.209
774.209
774.209
774.208
774.208
774.208
774.207
774.207
774.207
774.206
774.206
774.206
774.205
774.205
774.205
774.205
774.205
774.205
774.205
774.205
774.205
774.206
774.206
774.207
774.207
774.207
774.208
774.208
774.208
774.209
774.208
774.208
774.208
774.208
774.207
774.206
774.205
774.205
774.204
774.203
774.202
774.201
774.2
774.203
774.434
774.433
774.432
774.43
774.427
774.424
774.421
774.418
774.417
774.416
774.415
774.415
774.414
774.412
774.409
774.406
774.402
774.398
774.394
774.389
774.385
774.381
774.377
774.374
774.372
774.37
774.369
774.368
774.366
774.364
774.36
774.356
774.352
774.349
774.345
774.343
774.34
774.339
774.337
774.336
774.334
774.333
774.331
774.33
774.329
774.327
774.326
774.324
774.323
774.321
774.32
774.318
774.317
774.315
774.313
774.312
774.31
774.309
774.307
774.306
774.304
774.303
774.301
774.3
774.298
774.297
774.295
774.294
774.292
774.291
774.289
774.288
774.286
774.285
774.283
774.282
774.28
774.278
774.276
774.275
774.273
774.271
774.269
774.267
774.265
774.263
774.261
774.259
774.257
774.255
774.253
774.251
774.249
774.247
774.245
774.243
774.241
774.24
774.238
774.236
774.235
774.233
774.232
774.231
774.23
774.228
774.227
774.226
774.225
774.225
774.224
774.223
774.222
774.221
774.22
774.22
774.219
774.218
774.217
774.216
774.216
774.215
774.214
774.213
774.213
774.212
774.211
774.211
774.21
774.209
774.209
774.208
774.208
774.208
774.207
774.207
774.207
774.207
774.207
774.207
774.207
774.207
774.207
774.208
774.208
774.208
774.208
774.209
774.209
774.209
774.209
774.209
774.209
774.209
774.209
774.209
774.209
774.209
774.209
774.208
774.208
774.208
774.207
774.207
774.207
774.206
774.206
774.206
774.205
774.205
774.205
774.205
774.205
774.205
774.205
774.205
774.205
774.206
774.206
774.207
774.207
774.207
774.208
774.208
774.208
774.208
774.209
774.208
774.208
774.208
774.207
774.206
774.206
774.205
774.204
774.203
774.202
774.198
774.202
774.077
774.436
774.435
774.434
774.432
774.429
774.426
774.423
774.42
774.419
774.418
774.417
774.416
774.415
774.414
774.411
774.407
774.404
774.4
774.396
774.391
774.387
774.383
774.379
774.376
774.374
774.372
774.371
774.37
774.368
774.365
774.362
774.358
774.354
774.35
774.347
774.344
774.342
774.34
774.338
774.337
774.335
774.334
774.333
774.331
774.33
774.328
774.327
774.325
774.324
774.322
774.321
774.319
774.318
774.316
774.315
774.313
774.312
774.31
774.308
774.307
774.305
774.304
774.302
774.301
774.3
774.298
774.297
774.295
774.294
774.292
774.291
774.289
774.288
774.286
774.285
774.283
774.281
774.279
774.278
774.276
774.274
774.272
774.27
774.268
774.266
774.264
774.262
774.26
774.258
774.256
774.254
774.252
774.25
774.248
774.246
774.244
774.243
774.241
774.239
774.238
774.236
774.235
774.233
774.232
774.231
774.23
774.229
774.228
774.227
774.226
774.225
774.224
774.223
774.222
774.222
774.221
774.22
774.219
774.218
774.218
774.217
774.216
774.215
774.215
774.214
774.213
774.213
774.212
774.211
774.211
774.21
774.21
774.209
774.209
774.208
774.208
774.208
774.208
774.208
774.208
774.208
774.208
774.209
774.209
774.209
774.209
774.21
774.21
774.21
774.21
774.211
774.211
774.211
774.211
774.211
774.21
774.21
774.21
774.21
774.21
774.209
774.209
774.209
774.208
774.208
774.208
774.207
774.207
774.207
774.206
774.206
774.206
774.206
774.206
774.206
774.206
774.207
774.207
774.207
774.208
774.208
774.209
774.209
774.209
774.21
774.21
774.21
774.209
774.209
774.209
774.208
774.207
774.207
774.206
774.205
774.204
774.203
774.199
774.211
773.991
774.254
774.268
774.267
774.266
774.264
774.263
774.258
774.251
774.239
774.224
774.219
774.225
774.235
774.226
774.189
774.158
774.143
774.116
774.062
774.03
774.242
774.245
774.243
774.24
774.235
774.232
774.224
774.214
774.203
774.183
774.172
774.176
774.19
774.184
774.134
774.099
774.094
774.08
774.03
773.989
774.202
774.201
774.198
774.194
774.188
774.181
774.174
774.167
774.159
774.151
774.14
774.132
774.125
774.119
774.12
774.123
774.121
774.104
774.084
774.071
774.131
774.132
774.138
774.137
774.13
774.117
774.102
774.077
774.064
774.04
774.023
774.01
773.99
773.97
773.959
773.945
773.932
773.922
773.913
773.908
774.078
774.058
774.054
774.056
774.055
774.051
774.039
774.024
774.01
773.995
773.978
773.966
773.95
773.939
773.925
773.919
773.909
773.911
773.918
773.95
773.89
773.892
773.899
773.896
773.863
773.85
773.856
773.865
773.863
773.857
773.854
773.855
773.855
773.854
773.852
773.851
773.85
773.849
773.848
773.847
773.846
773.845
773.844
773.843
773.841
773.841
773.84
773.839
773.838
773.837
773.835
773.835
773.835
773.834
773.833
773.831
773.83
773.829
773.829
773.83
773.831
773.832
773.832
773.832
773.83
773.827
773.826
773.827
773.829
773.834
773.838
773.841
773.843
773.844
773.845
773.846
773.848
773.855
773.896
774.053
774.243
774.329
774.337
774.281
774.079
773.887
773.783
773.74
773.73
773.731
773.742
773.754
773.76
773.764
773.766
773.766
773.766
773.766
773.765
773.764
773.763
773.761
773.76
773.759
773.758
773.756
773.755
773.754
773.753
773.752
773.751
773.75
773.749
773.748
773.746
773.745
773.744
773.743
773.742
773.74
773.739
773.738
773.736
773.735
773.733
773.731
773.73
773.728
773.726
773.724
773.722
773.72
773.718
773.716
773.714
773.712
773.709
773.707
773.705
773.703
773.701
773.699
773.697
773.695
773.693
773.691
773.689
773.687
773.686
773.684
773.683
773.681
773.68
773.679
773.678
773.677
773.676
773.675
773.674
773.674
773.673
773.672
773.672
773.671
773.671
773.67
773.669
773.668
773.668
773.667
773.666
773.665
773.664
773.663
773.661
773.66
773.659
773.657
773.656
773.654
773.652
773.65
773.648
773.646
773.644
773.642
773.64
773.638
773.636
773.634
773.632
773.63
773.628
773.626
773.624
773.622
773.62
773.619
773.617
773.616
773.615
773.613
773.612
773.611
773.611
773.61
773.609
773.609
773.608
773.608
773.608
773.607
773.607
773.606
773.606
773.605
773.604
773.6
773.604
773.429
773.88
773.886
773.902
773.905
773.875
773.865
773.873
773.881
773.878
773.872
773.87
773.871
773.87
773.869
773.868
773.867
773.866
773.865
773.865
773.864
773.863
773.862
773.862
773.861
773.861
773.86
773.859
773.858
773.855
773.854
773.853
773.853
773.852
773.851
773.849
773.848
773.848
773.849
773.85
773.851
773.853
773.855
773.855
773.854
773.852
773.852
773.853
773.855
773.861
773.866
773.869
773.871
773.872
773.872
773.873
773.873
773.877
773.899
773.988
774.124
774.2
774.217
774.2
774.103
773.949
773.847
773.791
773.767
773.759
773.758
773.76
773.763
773.766
773.767
773.767
773.767
773.766
773.765
773.764
773.763
773.762
773.76
773.759
773.758
773.756
773.755
773.754
773.753
773.752
773.751
773.75
773.749
773.747
773.746
773.745
773.744
773.743
773.742
773.741
773.739
773.738
773.736
773.735
773.733
773.732
773.73
773.728
773.727
773.725
773.723
773.721
773.719
773.717
773.715
773.713
773.71
773.708
773.706
773.704
773.702
773.7
773.697
773.695
773.693
773.691
773.689
773.688
773.686
773.684
773.683
773.681
773.68
773.679
773.678
773.676
773.675
773.675
773.674
773.673
773.672
773.672
773.671
773.671
773.67
773.669
773.669
773.668
773.667
773.667
773.666
773.665
773.664
773.663
773.661
773.66
773.659
773.657
773.656
773.654
773.653
773.651
773.649
773.647
773.645
773.643
773.641
773.639
773.637
773.635
773.633
773.631
773.629
773.627
773.625
773.623
773.621
773.619
773.618
773.616
773.615
773.613
773.612
773.611
773.61
773.609
773.609
773.608
773.608
773.607
773.607
773.606
773.606
773.606
773.605
773.605
773.604
773.603
773.6
773.598
773.499
774.076
774.121
774.128
774.123
774.121
774.122
774.123
774.121
774.118
774.117
774.115
774.114
774.113
774.113
774.112
774.112
774.111
774.111
774.11
774.108
774.106
774.105
774.103
774.102
774.1
774.099
774.099
774.099
774.1
774.101
774.102
774.103
774.105
774.106
774.109
774.112
774.115
774.118
774.119
774.12
774.121
774.12
774.111
774.079
774.021
773.967
773.923
773.889
773.866
773.851
773.843
773.839
773.837
773.837
773.838
773.84
773.841
773.841
773.84
773.834
773.826
773.817
773.809
773.802
773.797
773.793
773.791
773.788
773.786
773.784
773.782
773.779
773.777
773.775
773.773
773.771
773.769
773.767
773.765
773.764
773.762
773.761
773.759
773.758
773.757
773.755
773.754
773.753
773.752
773.751
773.75
773.749
773.747
773.746
773.745
773.744
773.743
773.742
773.741
773.739
773.738
773.736
773.735
773.733
773.732
773.73
773.728
773.727
773.725
773.723
773.721
773.719
773.717
773.715
773.713
773.71
773.708
773.706
773.704
773.702
773.7
773.697
773.695
773.693
773.691
773.689
773.688
773.686
773.684
773.683
773.681
773.68
773.679
773.678
773.676
773.675
773.675
773.674
773.673
773.672
773.672
773.671
773.671
773.67
773.669
773.669
773.668
773.667
773.667
773.666
773.665
773.664
773.663
773.661
773.66
773.659
773.657
773.656
773.654
773.653
773.651
773.649
773.647
773.645
773.643
773.641
773.639
773.637
773.635
773.633
773.631
773.629
773.627
773.625
773.623
773.621
773.619
773.618
773.616
773.615
773.613
773.612
773.611
773.61
773.609
773.609
773.608
773.608
773.607
773.607
773.606
773.606
773.605
773.605
773.604
773.604
773.603
773.602
773.601
773.603
773.885
773.885
773.884
773.877
773.871
773.872
773.872
773.872
773.869
773.867
773.867
773.866
773.865
773.863
773.862
773.86
773.859
773.857
773.855
773.854
773.852
773.851
773.85
773.849
773.848
773.847
773.847
773.846
773.845
773.844
773.844
773.844
773.843
773.842
773.841
773.84
773.839
773.839
773.839
773.839
773.838
773.837
773.836
773.836
773.837
773.838
773.84
773.846
773.851
773.854
773.861
773.872
773.881
773.886
773.891
773.902
773.936
773.981
774.009
774.016
774.014
773.993
773.926
773.857
773.811
773.785
773.772
773.767
773.766
773.766
773.768
773.769
773.77
773.769
773.769
773.768
773.767
773.766
773.765
773.763
773.762
773.76
773.759
773.758
773.757
773.755
773.754
773.753
773.752
773.751
773.75
773.749
773.747
773.746
773.745
773.744
773.743
773.742
773.741
773.739
773.738
773.736
773.735
773.733
773.732
773.73
773.728
773.727
773.725
773.723
773.721
773.719
773.717
773.715
773.713
773.71
773.708
773.706
773.704
773.702
773.7
773.697
773.695
773.693
773.691
773.689
773.688
773.686
773.684
773.683
773.681
773.68
773.679
773.678
773.676
773.675
773.675
773.674
773.673
773.672
773.672
773.671
773.671
773.67
773.669
773.669
773.668
773.667
773.667
773.666
773.665
773.664
773.663
773.661
773.66
773.659
773.657
773.656
773.654
773.653
773.651
773.649
773.647
773.645
773.643
773.641
773.639
773.637
773.635
773.633
773.631
773.629
773.627
773.625
773.623
773.621
773.619
773.618
773.616
773.615
773.613
773.612
773.611
773.61
773.609
773.609
773.608
773.608
773.607
773.607
773.606
773.606
773.605
773.605
773.604
773.604
773.603
773.603
773.605
773.654
774.009
774.01
774.01
774.003
773.996
773.995
773.995
773.994
773.991
773.989
773.988
773.986
773.984
773.982
773.98
773.977
773.975
773.973
773.971
773.97
773.968
773.967
773.966
773.966
773.965
773.964
773.963
773.963
773.962
773.961
773.96
773.959
773.958
773.956
773.955
773.954
773.954
773.954
773.953
773.952
773.951
773.95
773.951
773.952
773.954
773.957
773.959
773.963
773.969
773.974
773.977
773.978
773.978
773.98
773.996
774.081
774.243
774.345
774.38
774.378
774.332
774.193
774.06
773.965
773.9
773.856
773.827
773.809
773.798
773.79
773.785
773.781
773.778
773.776
773.774
773.772
773.77
773.768
773.767
773.765
773.763
773.762
773.76
773.759
773.758
773.757
773.755
773.754
773.753
773.752
773.751
773.75
773.749
773.748
773.746
773.745
773.744
773.743
773.742
773.74
773.739
773.738
773.736
773.735
773.733
773.731
773.73
773.728
773.726
773.724
773.722
773.72
773.718
773.716
773.714
773.712
773.709
773.707
773.705
773.703
773.701
773.699
773.697
773.695
773.693
773.691
773.689
773.687
773.686
773.684
773.683
773.681
773.68
773.679
773.678
773.677
773.676
773.675
773.674
773.674
773.673
773.672
773.672
773.671
773.671
773.67
773.669
773.668
773.668
773.667
773.666
773.665
773.664
773.663
773.661
773.66
773.659
773.657
773.656
773.654
773.652
773.65
773.648
773.646
773.644
773.642
773.64
773.638
773.636
773.634
773.632
773.63
773.628
773.626
773.624
773.622
773.62
773.619
773.617
773.616
773.615
773.613
773.612
773.611
773.611
773.61
773.609
773.609
773.608
773.608
773.608
773.607
773.607
773.606
773.606
773.605
773.604
773.605
773.606
773.659
773.491
773.47
773.464
773.466
773.464
773.458
773.445
773.435
773.417
773.408
773.388
773.378
773.361
773.353
773.34
773.335
773.327
773.329
773.335
773.363
773.538
773.538
773.543
773.541
773.533
773.519
773.501
773.487
773.464
773.452
773.429
773.412
773.403
773.382
773.368
773.353
773.344
773.332
773.323
773.315
773.603
773.602
773.598
773.594
773.589
773.582
773.576
773.568
773.559
773.55
773.542
773.537
773.535
773.533
773.522
773.511
773.502
773.497
773.486
773.483
773.641
773.644
773.642
773.637
773.633
773.628
773.62
773.61
773.606
773.609
773.619
773.594
773.562
773.557
773.543
773.497
773.452
773.455
773.475
773.471
773.653
773.666
773.664
773.663
773.661
773.657
773.652
773.645
773.644
773.649
773.657
773.636
773.611
773.597
773.576
773.528
773.508
773.515
773.536
773.505
773.409
773.407
773.402
773.394
773.394
773.393
773.392
773.389
773.387
773.386
773.385
773.384
773.382
773.38
773.379
773.377
773.375
773.373
773.372
773.37
773.369
773.368
773.367
773.367
773.366
773.365
773.365
773.364
773.364
773.364
773.363
773.363
773.362
773.361
773.361
773.361
773.361
773.361
773.361
773.361
773.36
773.36
773.361
773.362
773.365
773.369
773.372
773.373
773.376
773.381
773.387
773.391
773.392
773.392
773.394
773.409
773.483
773.646
773.756
773.799
773.8
773.763
773.637
773.503
773.406
773.339
773.294
773.266
773.248
773.238
773.231
773.228
773.225
773.224
773.223
773.223
773.223
773.222
773.223
773.223
773.223
773.223
773.224
773.224
773.225
773.225
773.226
773.227
773.227
773.228
773.229
773.229
773.23
773.23
773.231
773.231
773.231
773.227
773.232
773.063
773.295
773.29
773.28
773.275
773.275
773.276
773.274
773.271
773.268
773.268
773.268
773.267
773.265
773.263
773.262
773.261
773.26
773.259
773.257
773.256
773.255
773.254
773.254
773.253
773.253
773.252
773.252
773.251
773.251
773.25
773.25
773.25
773.25
773.249
773.249
773.249
773.249
773.249
773.249
773.25
773.25
773.249
773.249
773.249
773.249
773.251
773.254
773.259
773.265
773.268
773.271
773.276
773.288
773.298
773.304
773.309
773.319
773.35
773.396
773.427
773.437
773.436
773.422
773.366
773.297
773.249
773.222
773.21
773.205
773.205
773.206
773.209
773.212
773.215
773.216
773.218
773.219
773.219
773.22
773.221
773.221
773.222
773.222
773.223
773.224
773.224
773.225
773.226
773.226
773.227
773.228
773.228
773.229
773.229
773.23
773.23
773.23
773.227
773.226
773.131
773.501
773.505
773.514
773.517
773.524
773.524
773.521
773.518
773.515
773.513
773.511
773.508
773.506
773.505
773.504
773.503
773.503
773.502
773.502
773.501
773.5
773.5
773.499
773.498
773.498
773.498
773.498
773.498
773.499
773.5
773.502
773.504
773.505
773.506
773.507
773.509
773.512
773.515
773.52
773.523
773.525
773.525
773.524
773.518
773.492
773.438
773.386
773.343
773.311
773.289
773.274
773.266
773.263
773.262
773.261
773.262
773.264
773.266
773.266
773.265
773.261
773.254
773.247
773.24
773.234
773.23
773.228
773.227
773.226
773.225
773.224
773.224
773.223
773.223
773.222
773.222
773.222
773.222
773.222
773.222
773.222
773.222
773.223
773.223
773.224
773.224
773.225
773.226
773.226
773.227
773.228
773.228
773.229
773.229
773.23
773.23
773.23
773.23
773.23
773.233
773.32
773.312
773.305
773.281
773.268
773.282
773.293
773.285
773.274
773.271
773.273
773.273
773.271
773.269
773.267
773.267
773.266
773.265
773.264
773.264
773.264
773.263
773.263
773.263
773.263
773.262
773.262
773.261
773.26
773.26
773.26
773.26
773.26
773.26
773.259
773.259
773.259
773.259
773.261
773.263
773.265
773.267
773.267
773.267
773.266
773.266
773.268
773.273
773.279
773.282
773.283
773.284
773.285
773.286
773.287
773.288
773.29
773.295
773.317
773.401
773.534
773.616
773.64
773.631
773.558
773.405
773.296
773.235
773.207
773.198
773.197
773.2
773.206
773.21
773.213
773.215
773.217
773.218
773.219
773.22
773.221
773.222
773.222
773.223
773.223
773.224
773.225
773.226
773.226
773.227
773.228
773.228
773.229
773.229
773.23
773.23
773.23
773.231
773.233
773.282
773.345
773.309
773.296
773.27
773.255
773.264
773.277
773.27
773.258
773.255
773.257
773.257
773.256
773.253
773.252
773.251
773.25
773.249
773.249
773.248
773.247
773.247
773.246
773.246
773.246
773.245
773.245
773.244
773.244
773.243
773.243
773.243
773.243
773.243
773.243
773.242
773.241
773.241
773.241
773.242
773.243
773.245
773.245
773.245
773.244
773.241
773.241
773.241
773.246
773.252
773.255
773.256
773.257
773.259
773.261
773.263
773.264
773.266
773.273
773.303
773.429
773.625
773.731
773.752
773.722
773.566
773.361
773.241
773.187
773.171
773.171
773.18
773.194
773.204
773.21
773.214
773.216
773.219
773.22
773.221
773.222
773.223
773.223
773.224
773.225
773.225
773.226
773.227
773.227
773.228
773.229
773.229
773.23
773.23
773.231
773.231
773.231
773.232
773.235
773.287
773.122
773.102
773.096
773.097
773.096
773.09
773.077
773.067
773.049
773.04
773.021
773.011
772.995
772.986
772.974
772.969
772.961
772.963
772.969
772.996
773.169
773.169
773.174
773.172
773.165
773.151
773.133
773.119
773.097
773.085
773.06
773.046
773.036
773.015
773.001
772.987
772.978
772.966
772.957
772.949
773.232
773.232
773.229
773.225
773.22
773.213
773.207
773.199
773.191
773.182
773.175
773.17
773.169
773.166
773.154
773.144
773.136
773.131
773.12
773.118
773.271
773.274
773.272
773.268
773.264
773.259
773.251
773.242
773.238
773.242
773.249
773.221
773.195
773.191
773.176
773.126
773.088
773.094
773.113
773.107
773.283
773.296
773.294
773.294
773.292
773.288
773.283
773.277
773.276
773.281
773.287
773.265
773.242
773.23
773.208
773.159
773.145
773.153
773.175
773.135
773.044
773.044
773.04
773.033
773.034
773.034
773.032
773.029
773.028
773.028
773.027
773.026
773.025
773.025
773.025
773.025
773.025
773.025
773.025
773.025
773.025
773.025
773.025
773.025
773.025
773.025
773.025
773.025
773.025
773.025
773.024
773.024
773.024
773.023
773.023
773.022
773.022
773.021
773.019
773.018
773.017
773.017
773.017
773.018
773.021
773.022
773.024
773.028
773.034
773.039
773.04
773.04
773.041
773.051
773.107
773.262
773.385
773.436
773.441
773.412
773.295
773.154
773.051
772.98
772.932
772.902
772.883
772.871
772.864
772.859
772.856
772.854
772.853
772.852
772.851
772.85
772.849
772.848
772.848
772.847
772.846
772.846
772.845
772.844
772.844
772.843
772.842
772.841
772.84
772.84
772.839
772.838
772.837
772.835
772.834
772.833
772.832
772.831
772.829
772.828
772.826
772.825
772.823
772.822
772.82
772.819
772.817
772.816
772.814
772.813
772.812
772.81
772.809
772.808
772.806
772.805
772.804
772.803
772.803
772.802
772.801
772.801
772.8
772.8
772.8
772.8
772.8
772.8
772.801
772.801
772.802
772.802
772.803
772.804
772.805
772.806
772.807
772.808
772.809
772.81
772.811
772.813
772.814
772.815
772.816
772.818
772.819
772.82
772.822
772.823
772.825
772.826
772.828
772.83
772.831
772.833
772.835
772.837
772.839
772.842
772.844
772.847
772.849
772.852
772.855
772.858
772.861
772.865
772.868
772.872
772.876
772.88
772.885
772.89
772.894
772.899
772.905
772.91
772.916
772.922
772.928
772.934
772.941
772.947
772.954
772.96
772.967
772.974
772.981
772.988
772.995
773.002
773.009
773.017
773.023
773.031
773.037
773.047
773.053
773.109
772.929
772.926
772.919
772.915
772.916
772.916
772.915
772.912
772.911
772.912
772.912
772.911
772.91
772.91
772.91
772.91
772.911
772.911
772.911
772.911
772.911
772.911
772.911
772.911
772.911
772.911
772.911
772.911
772.911
772.911
772.911
772.911
772.91
772.91
772.909
772.909
772.908
772.908
772.908
772.907
772.905
772.904
772.904
772.904
772.904
772.906
772.911
772.916
772.918
772.922
772.931
772.941
772.947
772.951
772.96
772.987
773.033
773.064
773.075
773.074
773.059
773.003
772.933
772.885
772.857
772.843
772.839
772.838
772.838
772.841
772.843
772.845
772.846
772.847
772.847
772.847
772.847
772.846
772.846
772.845
772.845
772.844
772.844
772.843
772.842
772.842
772.841
772.84
772.839
772.838
772.837
772.836
772.835
772.834
772.833
772.832
772.831
772.829
772.828
772.827
772.825
772.824
772.822
772.821
772.819
772.818
772.816
772.815
772.813
772.812
772.81
772.809
772.808
772.806
772.805
772.804
772.803
772.802
772.801
772.801
772.8
772.8
772.799
772.799
772.799
772.799
772.799
772.799
772.799
772.8
772.8
772.801
772.802
772.803
772.804
772.805
772.806
772.807
772.808
772.809
772.81
772.811
772.813
772.814
772.815
772.817
772.818
772.819
772.821
772.822
772.824
772.825
772.827
772.828
772.83
772.832
772.834
772.836
772.838
772.84
772.843
772.845
772.848
772.851
772.854
772.857
772.86
772.863
772.867
772.871
772.875
772.879
772.884
772.888
772.893
772.898
772.904
772.909
772.915
772.921
772.927
772.933
772.939
772.946
772.953
772.959
772.966
772.973
772.98
772.987
772.994
773.001
773.008
773.016
773.022
773.03
773.036
773.046
773.052
773.105
773.134
773.138
773.147
773.151
773.156
773.157
773.155
773.154
773.154
773.155
773.155
773.155
773.155
773.156
773.156
773.156
773.155
773.155
773.156
773.156
773.155
773.155
773.155
773.156
773.156
773.155
773.155
773.156
773.157
773.158
773.16
773.161
773.162
773.164
773.167
773.172
773.176
773.179
773.181
773.182
773.181
773.178
773.165
773.121
773.065
773.016
772.977
772.949
772.93
772.919
772.912
772.908
772.907
772.906
772.906
772.907
772.907
772.905
772.901
772.892
772.885
772.877
772.871
772.866
772.863
772.861
772.859
772.858
772.857
772.856
772.854
772.853
772.852
772.851
772.85
772.849
772.848
772.847
772.847
772.846
772.845
772.845
772.844
772.843
772.842
772.842
772.841
772.84
772.839
772.838
772.837
772.836
772.835
772.834
772.833
772.832
772.831
772.829
772.828
772.827
772.825
772.824
772.822
772.821
772.819
772.818
772.816
772.815
772.813
772.812
772.81
772.809
772.808
772.806
772.805
772.804
772.803
772.802
772.801
772.801
772.8
772.8
772.799
772.799
772.799
772.799
772.799
772.799
772.799
772.8
772.8
772.801
772.802
772.803
772.804
772.805
772.806
772.807
772.808
772.809
772.81
772.811
772.813
772.814
772.815
772.817
772.818
772.819
772.821
772.822
772.824
772.825
772.827
772.828
772.83
772.832
772.834
772.836
772.838
772.84
772.843
772.845
772.848
772.851
772.854
772.857
772.86
772.863
772.867
772.871
772.875
772.879
772.884
772.888
772.893
772.898
772.904
772.909
772.915
772.921
772.927
772.933
772.939
772.946
772.953
772.959
772.966
772.973
772.98
772.987
772.994
773.001
773.008
773.015
773.022
773.03
773.036
773.044
773.05
773.059
772.954
772.947
772.938
772.914
772.907
772.923
772.93
772.922
772.916
772.916
772.919
772.92
772.919
772.919
772.92
772.92
772.92
772.92
772.92
772.92
772.92
772.921
772.921
772.921
772.921
772.921
772.92
772.92
772.92
772.92
772.92
772.92
772.919
772.919
772.918
772.917
772.917
772.918
772.918
772.919
772.92
772.92
772.919
772.917
772.917
772.918
772.922
772.928
772.933
772.936
772.937
772.937
772.937
772.937
772.937
772.94
772.956
773.028
773.163
773.247
773.272
773.263
773.189
773.037
772.928
772.867
772.84
772.831
772.83
772.832
772.837
772.841
772.843
772.845
772.846
772.846
772.846
772.846
772.846
772.845
772.845
772.844
772.844
772.843
772.842
772.842
772.841
772.84
772.839
772.838
772.837
772.836
772.835
772.834
772.833
772.832
772.831
772.829
772.828
772.827
772.825
772.824
772.822
772.821
772.819
772.818
772.816
772.815
772.813
772.812
772.81
772.809
772.808
772.806
772.805
772.804
772.803
772.802
772.801
772.801
772.8
772.8
772.799
772.799
772.799
772.799
772.799
772.799
772.799
772.8
772.8
772.801
772.802
772.803
772.804
772.805
772.806
772.807
772.808
772.809
772.81
772.811
772.813
772.814
772.815
772.817
772.818
772.819
772.821
772.822
772.824
772.825
772.827
772.828
772.83
772.832
772.834
772.836
772.838
772.84
772.843
772.845
772.848
772.851
772.854
772.857
772.86
772.863
772.867
772.871
772.875
772.879
772.884
772.888
772.893
772.898
772.904
772.909
772.915
772.921
772.927
772.933
772.939
772.946
772.953
772.959
772.966
772.973
772.98
772.987
772.994
773.001
773.009
773.015
773.023
773.028
773.038
773.041
773.052
772.968
772.978
772.942
772.93
772.904
772.895
772.907
772.915
772.909
772.901
772.901
772.903
772.904
772.904
772.903
772.903
772.904
772.904
772.904
772.904
772.904
772.904
772.904
772.904
772.905
772.905
772.905
772.904
772.904
772.904
772.904
772.904
772.904
772.903
772.903
772.902
772.901
772.901
772.9
772.9
772.9
772.9
772.9
772.9
772.897
772.893
772.892
772.892
772.894
772.9
772.904
772.907
772.908
772.909
772.91
772.91
772.912
772.917
772.945
773.067
773.263
773.368
773.388
773.354
773.19
772.986
772.869
772.818
772.803
772.804
772.813
772.827
772.835
772.84
772.843
772.845
772.846
772.847
772.847
772.847
772.846
772.846
772.845
772.845
772.844
772.843
772.843
772.842
772.841
772.84
772.84
772.839
772.838
772.837
772.835
772.834
772.833