/*--------------------------------*- C++ -*----------------------------------*\
| =========                 |                                                 |
| \\      /  F ield         | OpenFOAM: The Open Source CFD Toolbox           |
|  \\    /   O peration     | Version:  3.0.x                                 |
|   \\  /    A nd           | Web:      www.OpenFOAM.org                      |
|    \\/     M anipulation  |                                                 |
\*---------------------------------------------------------------------------*/
FoamFile
{
    version     2.0;
    format      ascii;
    class       surfaceScalarField;
    location    "0.079975";
    object      phi;
}
// * * * * * * * * * * * * * * * * * * * * * * * * * * * * * * * * * * * * * //

dimensions      [1 0 -1 0 0 0 0];

internalField   nonuniform List<scalar> 
26210
(
5.29581
0.000504225
5.29128
0.000347624
5.28689
0.000340195
5.28273
0.000342142
5.27884
0.000342397
5.2753
0.000341887
5.27216
0.000341557
5.26945
0.000340851
5.26718
0.000339208
5.26537
0.000336117
5.26401
0.000330834
5.26309
0.000322445
5.2626
0.000310039
5.2625
0.000293695
5.26276
0.000272206
5.26333
0.000246793
5.26415
0.000218259
5.26516
0.000187834
5.26631
0.000157111
5.26754
0.000127605
5.2688
0.000100577
5.27003
7.69167e-05
5.27121
5.70807e-05
5.27229
4.112e-05
5.27326
2.87784e-05
5.27411
1.95923e-05
5.27483
1.29986e-05
5.27541
8.43382e-06
5.27587
5.37977e-06
5.27622
3.40386e-06
5.27646
2.16867e-06
5.27662
1.42016e-06
5.27672
9.82142e-07
5.27675
7.34133e-07
5.27675
5.97476e-07
5.27673
5.24356e-07
5.27668
4.8483e-07
5.27663
4.68479e-07
5.27658
4.58858e-07
5.27653
4.52472e-07
5.27649
4.48474e-07
5.27646
4.44841e-07
5.27644
4.4125e-07
5.27643
4.38604e-07
5.27643
4.36446e-07
5.27645
4.32707e-07
5.27647
4.30309e-07
5.27651
4.27715e-07
5.27655
4.26146e-07
5.2766
4.24498e-07
5.27665
4.23392e-07
5.27671
4.22864e-07
5.27677
4.22309e-07
5.27684
4.22402e-07
5.2769
4.22557e-07
5.27697
4.22959e-07
5.27703
4.23646e-07
5.27709
4.24336e-07
5.27716
4.253e-07
5.27721
4.26306e-07
5.27727
4.27393e-07
5.27732
4.28503e-07
5.27737
4.29594e-07
5.27742
4.307e-07
5.27746
4.31775e-07
5.2775
4.3285e-07
5.27754
4.33836e-07
5.27757
4.34806e-07
5.27761
4.35693e-07
5.27764
4.36514e-07
5.27767
4.37289e-07
5.27769
4.37927e-07
5.27772
4.38571e-07
5.27774
4.39139e-07
5.27776
4.39657e-07
5.27778
4.40154e-07
5.2778
4.40557e-07
5.27782
4.40958e-07
5.27784
4.41294e-07
5.27785
4.41582e-07
5.27787
4.41871e-07
5.27789
4.42133e-07
5.2779
4.42396e-07
5.27792
4.42647e-07
5.27793
4.42873e-07
5.27795
4.43086e-07
5.27796
4.43286e-07
5.27797
4.43481e-07
5.27799
4.43682e-07
5.278
4.43873e-07
5.27801
4.4407e-07
5.27802
4.44272e-07
5.27803
4.44461e-07
5.27805
4.44654e-07
5.27806
4.44841e-07
5.27807
4.45025e-07
5.27808
4.45209e-07
5.27809
4.4539e-07
5.2781
4.45576e-07
5.27811
4.45765e-07
5.27811
4.45822e-07
5.27812
4.46254e-07
5.27813
4.463e-07
5.27814
4.46607e-07
5.27814
4.4646e-07
5.27815
4.46773e-07
5.27816
4.46926e-07
5.27816
4.4708e-07
5.27817
4.47237e-07
5.27817
4.47359e-07
5.27818
4.47504e-07
5.27818
4.47513e-07
5.27819
4.47873e-07
5.27819
4.47882e-07
5.27819
4.48124e-07
5.2782
4.47972e-07
5.2782
4.48228e-07
5.2782
4.4837e-07
5.2782
4.48399e-07
5.27821
4.48548e-07
5.27821
4.48639e-07
5.27821
4.48754e-07
5.27821
4.48663e-07
5.27821
4.49205e-07
5.27821
4.49198e-07
5.27821
4.49019e-07
5.27821
4.49772e-07
5.2782
4.49625e-07
5.2782
4.50211e-07
5.27819
4.50818e-07
5.27818
4.50962e-07
5.27817
4.51942e-07
5.27815
4.52956e-07
5.27812
4.54294e-07
5.27809
4.55972e-07
5.27804
4.58158e-07
5.27798
4.60934e-07
5.2779
4.64453e-07
5.2778
4.68881e-07
5.27767
4.74347e-07
5.27751
4.81066e-07
5.2773
4.89244e-07
5.27704
4.99058e-07
5.27672
5.10716e-07
5.27632
5.24378e-07
5.27584
5.40171e-07
5.27527
5.58199e-07
5.27458
5.78437e-07
5.27377
6.00801e-07
5.27283
6.25079e-07
5.27174
6.50884e-07
5.2705
6.77703e-07
5.2691
7.04831e-07
5.26754
7.31394e-07
5.26583
7.56358e-07
5.26397
7.78526e-07
5.26197
7.96581e-07
5.25987
8.09165e-07
5.25768
8.149e-07
5.25544
8.12484e-07
5.2532
8.00797e-07
5.25099
7.7894e-07
5.24886
7.46355e-07
5.24687
7.02883e-07
5.24506
6.48801e-07
5.24348
5.84876e-07
5.24217
5.12375e-07
5.24118
4.33009e-07
5.24051
3.48886e-07
5.24021
2.62593e-07
5.24025
1.99503e-07
5.24061
1.25168e-07
5.24127
2.60552e-08
5.24226
-4.53474e-08
5.24353
-1.08228e-07
5.24503
-1.53106e-07
5.24672
-1.91136e-07
5.24853
-2.11327e-07
5.25042
-2.16593e-07
5.25232
-2.12254e-07
5.25418
-1.91272e-07
5.25597
-1.6217e-07
5.25764
-1.24828e-07
5.25918
-7.84512e-08
5.26055
-3.11502e-08
5.26174
2.01871e-08
5.26276
7.24376e-08
5.26361
1.24926e-07
5.2643
1.92811e-07
5.26484
3.3638e-07
5.26524
8.66645e-07
5.26553
3.28477e-06
5.26571
1.46374e-05
5.26576
6.77441e-05
5.26549
0.000331556
5.26392
0.00159015
5.25636
0.00754864
5.22104
0.0352969
5.0425
0.178474
0.679227
4.36323
7.49018
0.00046049
7.48428
0.000330674
7.47859
0.000315151
7.4732
0.000319195
7.46821
0.000319687
7.46371
0.000319172
7.45977
0.00031885
7.45644
0.000318239
7.45373
0.000316746
7.45167
0.000313889
7.45023
0.000309015
7.44941
0.000301218
7.44917
0.000289684
7.44947
0.000274452
7.45024
0.00025442
7.45141
0.000230727
7.45289
0.000204087
7.4546
0.000175679
7.45645
0.00014698
7.45838
0.000119408
7.4603
9.41442e-05
7.46216
7.20203e-05
7.46391
5.34653e-05
7.4655
3.85297e-05
7.46692
2.69762e-05
7.46814
1.83729e-05
7.46917
1.21948e-05
7.47001
7.91547e-06
7.47067
5.051e-06
7.47116
3.1966e-06
7.47151
2.03649e-06
7.47174
1.33326e-06
7.47187
9.21484e-07
7.47193
6.88018e-07
7.47193
5.59312e-07
7.47189
4.90356e-07
7.47183
4.53039e-07
7.47176
4.37543e-07
7.47168
4.28419e-07
7.47161
4.22448e-07
7.47155
4.18639e-07
7.47151
4.15268e-07
7.47148
4.11928e-07
7.47147
4.09433e-07
7.47147
4.0747e-07
7.47149
4.03959e-07
7.47153
4.01717e-07
7.47157
3.99334e-07
7.47163
3.9784e-07
7.4717
3.96341e-07
7.47178
3.95297e-07
7.47187
3.94803e-07
7.47195
3.94311e-07
7.47204
3.94373e-07
7.47214
3.9453e-07
7.47223
3.94906e-07
7.47232
3.95537e-07
7.47241
3.96198e-07
7.47249
3.97087e-07
7.47257
3.98029e-07
7.47265
3.99046e-07
7.47273
4.00078e-07
7.4728
4.01098e-07
7.47286
4.02129e-07
7.47292
4.0313e-07
7.47298
4.04134e-07
7.47303
4.05054e-07
7.47308
4.05957e-07
7.47313
4.06784e-07
7.47317
4.07545e-07
7.47321
4.08269e-07
7.47325
4.08874e-07
7.47328
4.09471e-07
7.47332
4.09997e-07
7.47335
4.10488e-07
7.47337
4.10942e-07
7.4734
4.11323e-07
7.47343
4.11696e-07
7.47345
4.1201e-07
7.47348
4.12278e-07
7.4735
4.12547e-07
7.47352
4.12791e-07
7.47354
4.13042e-07
7.47357
4.13271e-07
7.47359
4.13485e-07
7.47361
4.13682e-07
7.47363
4.13873e-07
7.47364
4.14049e-07
7.47366
4.14235e-07
7.47368
4.14419e-07
7.4737
4.14604e-07
7.47371
4.14788e-07
7.47373
4.14968e-07
7.47375
4.15142e-07
7.47376
4.15321e-07
7.47378
4.15488e-07
7.47379
4.15661e-07
7.47381
4.1583e-07
7.47382
4.16003e-07
7.47383
4.16183e-07
7.47384
4.16241e-07
7.47385
4.16623e-07
7.47387
4.1668e-07
7.47388
4.1696e-07
7.47389
4.16832e-07
7.47389
4.17118e-07
7.4739
4.1726e-07
7.47391
4.17405e-07
7.47392
4.17554e-07
7.47393
4.17664e-07
7.47393
4.178e-07
7.47394
4.17815e-07
7.47394
4.18144e-07
7.47395
4.18155e-07
7.47395
4.18377e-07
7.47396
4.18246e-07
7.47396
4.18475e-07
7.47397
4.18602e-07
7.47397
4.1864e-07
7.47397
4.18773e-07
7.47397
4.18861e-07
7.47398
4.18968e-07
7.47398
4.18886e-07
7.47398
4.19383e-07
7.47398
4.19383e-07
7.47397
4.19224e-07
7.47397
4.19916e-07
7.47397
4.19783e-07
7.47396
4.20312e-07
7.47395
4.20887e-07
7.47394
4.21049e-07
7.47392
4.21942e-07
7.47389
4.22888e-07
7.47385
4.24141e-07
7.4738
4.25709e-07
7.47374
4.27752e-07
7.47365
4.30344e-07
7.47354
4.33629e-07
7.4734
4.37763e-07
7.47321
4.42866e-07
7.47298
4.49147e-07
7.47268
4.56783e-07
7.47232
4.65943e-07
7.47186
4.76823e-07
7.4713
4.89581e-07
7.47062
5.04324e-07
7.46981
5.21148e-07
7.46884
5.40043e-07
7.4677
5.60916e-07
7.46636
5.83574e-07
7.46482
6.07657e-07
7.46307
6.32677e-07
7.46109
6.57992e-07
7.45889
6.82767e-07
7.45647
7.0605e-07
7.45383
7.26719e-07
7.45101
7.4355e-07
7.44804
7.5527e-07
7.44494
7.606e-07
7.44178
7.58322e-07
7.4386
7.4739e-07
7.43548
7.2697e-07
7.43247
6.96538e-07
7.42965
6.55953e-07
7.4271
6.05469e-07
7.42486
5.45815e-07
7.42302
4.7816e-07
7.42161
4.0411e-07
7.42067
3.25632e-07
7.42023
2.45353e-07
7.4203
1.85652e-07
7.4208
1.17792e-07
7.42174
2.4269e-08
7.42313
-4.19896e-08
7.42493
-1.00534e-07
7.42705
-1.425e-07
7.42944
-1.77813e-07
7.432
-1.96747e-07
7.43466
-2.01657e-07
7.43735
-1.9746e-07
7.43999
-1.78072e-07
7.44252
-1.50827e-07
7.44488
-1.16004e-07
7.44705
-7.28287e-08
7.44898
-2.8509e-08
7.45068
1.95705e-08
7.45212
6.95272e-08
7.45332
1.25079e-07
7.45429
2.19139e-07
7.45505
5.03494e-07
7.45562
1.72613e-06
7.45603
7.50234e-06
7.45628
3.48757e-05
7.45635
0.000162535
7.45598
0.000798034
7.45376
0.00382943
7.4431
0.0181971
7.39329
0.0850673
7.14749
0.424196
1.5704
6.25624
10.5927
0.000402364
10.5844
0.000303723
10.5763
0.000280642
10.5687
0.000286435
10.5616
0.000287261
10.5553
0.000286714
10.5497
0.000286383
10.545
0.00028586
10.5412
0.000284542
10.5382
0.000281996
10.5362
0.000277683
10.5351
0.000270735
10.5347
0.000260462
10.5351
0.00024686
10.5362
0.000228965
10.5379
0.000207787
10.54
0.00018392
10.5424
0.000158446
10.545
0.00013268
10.5477
0.000107894
10.5505
8.5153e-05
10.5531
6.52122e-05
10.5556
4.84657e-05
10.5578
3.49676e-05
10.5598
2.45115e-05
10.5616
1.67144e-05
10.563
1.11074e-05
10.5642
7.21762e-06
10.5651
4.61006e-06
10.5658
2.91924e-06
10.5663
1.85947e-06
10.5666
1.21624e-06
10.5668
8.39208e-07
10.5669
6.24761e-07
10.5669
5.06252e-07
10.5668
4.42636e-07
10.5668
4.08063e-07
10.5667
3.93567e-07
10.5666
3.85042e-07
10.5665
3.79594e-07
10.5664
3.76035e-07
10.5663
3.73009e-07
10.5663
3.70007e-07
10.5663
3.67727e-07
10.5663
3.6601e-07
10.5663
3.62837e-07
10.5663
3.60809e-07
10.5664
3.58707e-07
10.5665
3.57332e-07
10.5666
3.56023e-07
10.5667
3.55072e-07
10.5668
3.54617e-07
10.5669
3.54209e-07
10.5671
3.54235e-07
10.5672
3.54388e-07
10.5673
3.54732e-07
10.5675
3.5528e-07
10.5676
3.55892e-07
10.5677
3.5668e-07
10.5678
3.57531e-07
10.5679
3.58448e-07
10.568
3.59365e-07
10.5681
3.60288e-07
10.5682
3.61213e-07
10.5683
3.62113e-07
10.5684
3.63013e-07
10.5685
3.63842e-07
10.5685
3.64649e-07
10.5686
3.65394e-07
10.5687
3.66078e-07
10.5687
3.66725e-07
10.5688
3.67274e-07
10.5688
3.67805e-07
10.5689
3.68284e-07
10.5689
3.68719e-07
10.569
3.69128e-07
10.569
3.69473e-07
10.569
3.69801e-07
10.5691
3.70086e-07
10.5691
3.70331e-07
10.5691
3.70571e-07
10.5692
3.70789e-07
10.5692
3.71015e-07
10.5692
3.71219e-07
10.5692
3.71414e-07
10.5693
3.71591e-07
10.5693
3.71762e-07
10.5693
3.71922e-07
10.5694
3.72087e-07
10.5694
3.72253e-07
10.5694
3.7242e-07
10.5694
3.72585e-07
10.5695
3.72747e-07
10.5695
3.72901e-07
10.5695
3.73066e-07
10.5695
3.73215e-07
10.5695
3.73366e-07
10.5696
3.73521e-07
10.5696
3.73675e-07
10.5696
3.73836e-07
10.5696
3.73905e-07
10.5696
3.74221e-07
10.5696
3.74285e-07
10.5697
3.7453e-07
10.5697
3.74432e-07
10.5697
3.74675e-07
10.5697
3.74807e-07
10.5697
3.74939e-07
10.5697
3.75071e-07
10.5697
3.75167e-07
10.5697
3.75292e-07
10.5697
3.75304e-07
10.5698
3.75593e-07
10.5698
3.7561e-07
10.5698
3.75803e-07
10.5698
3.75698e-07
10.5698
3.75891e-07
10.5698
3.7601e-07
10.5698
3.76052e-07
10.5698
3.76162e-07
10.5698
3.76244e-07
10.5698
3.76335e-07
10.5698
3.76274e-07
10.5698
3.76705e-07
10.5698
3.7671e-07
10.5698
3.76576e-07
10.5698
3.77182e-07
10.5698
3.77072e-07
10.5698
3.77536e-07
10.5698
3.78056e-07
10.5697
3.78233e-07
10.5697
3.79008e-07
10.5697
3.7986e-07
10.5696
3.80988e-07
10.5696
3.82398e-07
10.5695
3.84237e-07
10.5693
3.8656e-07
10.5692
3.89515e-07
10.569
3.93232e-07
10.5687
3.97814e-07
10.5684
4.03461e-07
10.568
4.10319e-07
10.5675
4.18551e-07
10.5668
4.28324e-07
10.566
4.39785e-07
10.5651
4.53035e-07
10.5639
4.68147e-07
10.5625
4.85119e-07
10.5609
5.03871e-07
10.559
5.2422e-07
10.5569
5.45846e-07
10.5544
5.68321e-07
10.5516
5.91056e-07
10.5485
6.13303e-07
10.545
6.34209e-07
10.5413
6.52764e-07
10.5373
6.67871e-07
10.5331
6.78382e-07
10.5287
6.83155e-07
10.5243
6.81097e-07
10.5198
6.71263e-07
10.5154
6.52907e-07
10.5111
6.25564e-07
10.5071
5.89097e-07
10.5035
5.43744e-07
10.5003
4.90159e-07
10.4977
4.29394e-07
10.4957
3.62889e-07
10.4944
2.92419e-07
10.4938
2.20562e-07
10.4939
1.65956e-07
10.4946
1.06618e-07
10.4959
2.13563e-08
10.4979
-3.75385e-08
10.5004
-9.01209e-08
10.5034
-1.2795e-07
10.5068
-1.59484e-07
10.5104
-1.76595e-07
10.5142
-1.81037e-07
10.518
-1.77079e-07
10.5217
-1.5988e-07
10.5253
-1.35295e-07
10.5287
-1.04024e-07
10.5317
-6.53549e-08
10.5345
-2.52858e-08
10.5368
1.82727e-08
10.5389
6.49229e-08
10.5406
1.24626e-07
10.542
2.55104e-07
10.543
7.34057e-07
10.5438
2.9143e-06
10.5444
1.33382e-05
10.5448
6.2899e-05
10.5449
0.000293559
10.5444
0.0014435
10.5413
0.00692782
10.5265
0.0329405
10.4577
0.153838
10.1238
0.75796
2.74515
8.94897
46.7584
0.000185694
46.7217
0.000159318
46.6861
0.000138759
46.6525
0.000142524
46.6213
0.000144011
46.5932
0.000143556
46.5687
0.000143286
46.5478
0.000143023
46.531
0.000142392
46.5181
0.000141154
46.5091
0.000139081
46.504
0.000135693
46.5025
0.000130676
46.5044
0.000123977
46.5092
0.000115151
46.5164
0.000104668
46.5257
9.27865e-05
46.5364
8.00711e-05
46.548
6.71674e-05
46.56
5.47176e-05
46.572
4.3263e-05
46.5836
3.31917e-05
46.5945
2.47121e-05
46.6044
1.78609e-05
46.6133
1.25415e-05
46.6209
8.56594e-06
46.6274
5.70108e-06
46.6326
3.70925e-06
46.6367
2.37138e-06
46.6398
1.50214e-06
46.642
9.56332e-07
46.6434
6.25651e-07
46.6442
4.29406e-07
46.6446
3.16962e-07
46.6446
2.55618e-07
46.6443
2.2237e-07
46.644
2.04621e-07
46.6435
1.97166e-07
46.643
1.92731e-07
46.6426
1.89962e-07
46.6422
1.88059e-07
46.6419
1.86535e-07
46.6418
1.85033e-07
46.6417
1.8385e-07
46.6417
1.83006e-07
46.6418
1.81447e-07
46.6421
1.80365e-07
46.6424
1.79382e-07
46.6427
1.78645e-07
46.6432
1.78026e-07
46.6437
1.77537e-07
46.6442
1.77295e-07
46.6447
1.77124e-07
46.6453
1.77106e-07
46.6459
1.77199e-07
46.6464
1.7737e-07
46.647
1.77634e-07
46.6476
1.77954e-07
46.6481
1.78336e-07
46.6486
1.78767e-07
46.6491
1.79228e-07
46.6496
1.79682e-07
46.65
1.80143e-07
46.6504
1.80607e-07
46.6508
1.81059e-07
46.6511
1.81506e-07
46.6515
1.81923e-07
46.6518
1.82322e-07
46.6521
1.82699e-07
46.6523
1.8304e-07
46.6526
1.8336e-07
46.6528
1.83639e-07
46.653
1.83901e-07
46.6532
1.84145e-07
46.6534
1.8436e-07
46.6536
1.84561e-07
46.6538
1.84739e-07
46.6539
1.84898e-07
46.6541
1.85043e-07
46.6542
1.85166e-07
46.6544
1.85285e-07
46.6545
1.85397e-07
46.6547
1.85508e-07
46.6548
1.85609e-07
46.6549
1.85707e-07
46.655
1.85796e-07
46.6552
1.85881e-07
46.6553
1.85963e-07
46.6554
1.86044e-07
46.6555
1.86128e-07
46.6556
1.86211e-07
46.6557
1.86293e-07
46.6558
1.86374e-07
46.6559
1.86451e-07
46.656
1.86533e-07
46.6561
1.86608e-07
46.6562
1.86683e-07
46.6563
1.8676e-07
46.6564
1.86839e-07
46.6565
1.86918e-07
46.6565
1.86968e-07
46.6566
1.87096e-07
46.6567
1.87144e-07
46.6567
1.87257e-07
46.6568
1.87226e-07
46.6568
1.87334e-07
46.6569
1.87404e-07
46.657
1.87471e-07
46.657
1.87537e-07
46.657
1.87581e-07
46.6571
1.87646e-07
46.6571
1.87658e-07
46.6572
1.87793e-07
46.6572
1.87808e-07
46.6572
1.87893e-07
46.6572
1.87859e-07
46.6573
1.87938e-07
46.6573
1.88003e-07
46.6573
1.88033e-07
46.6573
1.88077e-07
46.6573
1.88122e-07
46.6574
1.88167e-07
46.6574
1.88147e-07
46.6574
1.88343e-07
46.6574
1.88352e-07
46.6573
1.883e-07
46.6573
1.88576e-07
46.6573
1.8854e-07
46.6573
1.8875e-07
46.6572
1.89023e-07
46.6571
1.89146e-07
46.657
1.89502e-07
46.6568
1.89927e-07
46.6566
1.90496e-07
46.6563
1.91199e-07
46.6559
1.92123e-07
46.6553
1.93276e-07
46.6546
1.94758e-07
46.6538
1.96616e-07
46.6526
1.98904e-07
46.6511
2.01731e-07
46.6493
2.0516e-07
46.647
2.09276e-07
46.6442
2.14162e-07
46.6407
2.19891e-07
46.6364
2.26516e-07
46.6313
2.34073e-07
46.6253
2.42556e-07
46.6181
2.51933e-07
46.6098
2.62106e-07
46.6002
2.72917e-07
46.5893
2.84155e-07
46.5769
2.95521e-07
46.5632
3.06644e-07
46.548
3.17094e-07
46.5316
3.2637e-07
46.514
3.33921e-07
46.4954
3.39178e-07
46.4761
3.41562e-07
46.4564
3.40533e-07
46.4365
3.35617e-07
46.417
3.26439e-07
46.3983
3.1277e-07
46.3807
2.94537e-07
46.3647
2.71862e-07
46.3508
2.45071e-07
46.3392
2.14691e-07
46.3304
1.81443e-07
46.3246
1.4623e-07
46.3219
1.10561e-07
46.3223
8.21151e-08
46.3254
5.39455e-08
46.3313
1.05188e-08
46.34
-1.89093e-08
46.3512
-4.50714e-08
46.3644
-6.39313e-08
46.3793
-7.9662e-08
46.3953
-8.82474e-08
46.4119
-9.057e-08
46.4287
-8.83579e-08
46.4452
-7.99935e-08
46.461
-6.75843e-08
46.4757
-5.18799e-08
46.4892
-3.2496e-08
46.5013
-1.19353e-08
46.5119
1.0757e-08
46.5209
4.36798e-08
46.5284
1.16405e-07
46.5345
3.84662e-07
46.5392
1.62595e-06
46.5428
7.55288e-06
46.5453
3.62035e-05
46.5469
0.000172855
46.5474
0.000803996
46.5455
0.00397078
46.5335
0.0190338
46.4761
0.0903462
46.2131
0.416504
45.1063
1.86426
6.56241
41.2886
46.7584
2.27374e-12
46.7217
2.04636e-12
46.6861
0
46.6524
2.27374e-13
46.6213
-9.09495e-13
46.5932
2.27374e-12
46.5686
6.82121e-13
46.5478
-2.04636e-12
46.5309
-1.59162e-12
46.518
4.54747e-13
46.5091
6.82121e-13
46.504
-1.13687e-12
46.5025
-9.09495e-13
46.5043
-6.82121e-13
46.5091
-6.82121e-13
46.5164
-2.27374e-13
46.5257
4.54747e-13
46.5364
-6.82121e-13
46.548
-9.09495e-13
46.56
0
46.572
-6.82121e-13
46.5836
-1.81899e-12
46.5945
-9.09495e-13
46.6044
-1.36424e-12
46.6133
-9.09495e-13
46.6209
-4.54747e-13
46.6274
-2.27374e-13
46.6326
0
46.6367
1.13687e-12
46.6398
9.09495e-13
46.642
-1.13687e-12
46.6434
-1.81899e-12
46.6442
2.27374e-13
46.6446
0
46.6446
2.27374e-13
46.6443
1.81899e-12
46.644
4.54747e-13
46.6435
-6.82121e-13
46.643
-9.09495e-13
46.6426
0
46.6422
4.54747e-13
46.6419
0
46.6418
9.09495e-13
46.6417
1.59162e-12
46.6417
-2.27374e-13
46.6418
-6.82121e-13
46.6421
-6.82121e-13
46.6424
-9.09495e-13
46.6427
1.36424e-12
46.6432
1.81899e-12
46.6437
9.09495e-13
46.6442
0
46.6447
9.09495e-13
46.6453
4.54747e-13
46.6459
1.36424e-12
46.6464
-6.82121e-13
46.647
0
46.6476
-4.54747e-13
46.6481
-2.27374e-13
46.6486
1.59162e-12
46.6491
2.50111e-12
46.6496
-2.27374e-13
46.65
-1.59162e-12
46.6504
0
46.6508
1.36424e-12
46.6511
-1.13687e-12
46.6515
4.54747e-13
46.6518
6.82121e-13
46.6521
-1.81899e-12
46.6523
-1.81899e-12
46.6526
-6.82121e-13
46.6528
-9.09495e-13
46.653
0
46.6532
2.04636e-12
46.6534
1.59162e-12
46.6536
-2.27374e-13
46.6538
0
46.6539
-9.09495e-13
46.6541
0
46.6542
-1.36424e-12
46.6544
6.82121e-13
46.6545
2.27374e-13
46.6547
1.36424e-12
46.6548
-2.04636e-12
46.6549
6.82121e-13
46.655
2.27374e-13
46.6552
1.36424e-12
46.6553
2.72848e-12
46.6554
9.09495e-13
46.6555
1.13687e-12
46.6556
1.59162e-12
46.6557
1.36424e-12
46.6558
1.36424e-12
46.6559
2.27374e-13
46.656
6.82121e-13
46.6561
6.82121e-13
46.6562
0
46.6563
-4.54747e-13
46.6564
4.54747e-13
46.6565
4.54747e-13
46.6565
9.09495e-13
46.6566
-6.82121e-13
46.6567
-1.81899e-12
46.6567
6.82121e-13
46.6568
9.09495e-13
46.6568
6.82121e-13
46.6569
-6.82121e-13
46.657
1.13687e-12
46.657
2.72848e-12
46.657
-9.09495e-13
46.6571
4.54747e-13
46.6571
0
46.6572
9.09495e-13
46.6572
-2.27374e-12
46.6572
4.54747e-13
46.6572
-1.81899e-12
46.6573
-1.59162e-12
46.6573
0
46.6573
0
46.6573
1.81899e-12
46.6573
2.27374e-13
46.6574
2.27374e-13
46.6574
-2.27374e-13
46.6574
1.81899e-12
46.6574
6.82121e-13
46.6573
0
46.6573
-4.54747e-13
46.6573
-1.36424e-12
46.6573
-4.54747e-13
46.6572
-6.82121e-13
46.6571
-9.09495e-13
46.657
-9.09495e-13
46.6568
-4.54747e-13
46.6566
9.09495e-13
46.6563
1.13687e-12
46.6559
1.13687e-12
46.6553
2.27374e-13
46.6546
0
46.6538
-2.27374e-13
46.6526
-1.36424e-12
46.6511
4.54747e-13
46.6493
4.54747e-13
46.647
2.27374e-12
46.6442
-2.27374e-13
46.6407
-6.82121e-13
46.6364
6.82121e-13
46.6313
-9.09495e-13
46.6253
2.27374e-13
46.6181
9.09495e-13
46.6098
4.54747e-13
46.6002
2.27374e-13
46.5893
4.54747e-13
46.5769
2.04636e-12
46.5632
2.04636e-12
46.548
2.27374e-13
46.5316
-2.27374e-13
46.514
-1.13687e-12
46.4954
-1.36424e-12
46.4761
-9.09495e-13
46.4564
-4.54747e-13
46.4365
1.59162e-12
46.417
2.04636e-12
46.3983
6.82121e-13
46.3807
9.09495e-13
46.3647
-1.36424e-12
46.3508
-3.63798e-12
46.3392
-3.18323e-12
46.3304
2.27374e-13
46.3246
-9.09495e-13
46.3219
2.27374e-13
46.3223
-2.72848e-12
46.3254
1.93268e-11
46.3313
-6.82121e-12
46.34
-9.32232e-12
46.3512
3.86535e-12
46.3644
2.72848e-12
46.3793
-1.27329e-11
46.3953
2.54659e-11
46.4119
-2.75122e-11
46.4287
3.11502e-11
46.4452
-9.32232e-12
46.461
2.84217e-11
46.4757
2.66027e-11
46.4892
1.64846e-10
46.5013
9.44965e-10
46.5119
3.44016e-09
46.5209
1.75949e-08
46.5284
8.23998e-08
46.5345
3.90217e-07
46.5392
1.91478e-06
46.5428
9.26769e-06
46.5453
4.51519e-05
46.547
0.000218595
46.5478
0.000986861
46.5474
0.00496018
46.5428
0.023751
46.5193
0.113884
46.4007
0.534776
45.8141
2.45039
8.75203
43.624
46.7584
-0.000185694
46.7217
-0.000159318
46.6861
-0.000138759
46.6524
-0.000142524
46.6213
-0.000144011
46.5932
-0.000143556
46.5686
-0.000143286
46.5478
-0.000143023
46.5309
-0.000142392
46.518
-0.000141154
46.5091
-0.000139081
46.504
-0.000135693
46.5025
-0.000130676
46.5043
-0.000123977
46.5091
-0.000115151
46.5164
-0.000104668
46.5257
-9.27865e-05
46.5364
-8.00711e-05
46.548
-6.71674e-05
46.56
-5.47176e-05
46.572
-4.3263e-05
46.5836
-3.31917e-05
46.5945
-2.47121e-05
46.6044
-1.78609e-05
46.6133
-1.25415e-05
46.6209
-8.56594e-06
46.6274
-5.70108e-06
46.6326
-3.70925e-06
46.6367
-2.37138e-06
46.6398
-1.50213e-06
46.642
-9.56335e-07
46.6434
-6.25654e-07
46.6442
-4.29404e-07
46.6446
-3.1696e-07
46.6446
-2.55616e-07
46.6443
-2.22367e-07
46.644
-2.04621e-07
46.6435
-1.97167e-07
46.643
-1.92732e-07
46.6426
-1.89961e-07
46.6422
-1.88057e-07
46.6419
-1.86535e-07
46.6418
-1.85032e-07
46.6417
-1.83846e-07
46.6417
-1.83006e-07
46.6418
-1.81449e-07
46.6421
-1.80367e-07
46.6424
-1.79384e-07
46.6427
-1.78643e-07
46.6432
-1.78024e-07
46.6437
-1.77534e-07
46.6442
-1.77294e-07
46.6447
-1.77121e-07
46.6453
-1.77105e-07
46.6459
-1.77197e-07
46.6464
-1.77371e-07
46.647
-1.77633e-07
46.6476
-1.77954e-07
46.6481
-1.78335e-07
46.6486
-1.78764e-07
46.6491
-1.79223e-07
46.6496
-1.79681e-07
46.65
-1.80146e-07
46.6504
-1.80607e-07
46.6508
-1.81055e-07
46.6511
-1.81508e-07
46.6515
-1.81923e-07
46.6518
-1.82321e-07
46.6521
-1.82703e-07
46.6523
-1.83043e-07
46.6526
-1.8336e-07
46.6528
-1.83641e-07
46.653
-1.83901e-07
46.6532
-1.84142e-07
46.6534
-1.84359e-07
46.6536
-1.84562e-07
46.6538
-1.8474e-07
46.6539
-1.84901e-07
46.6541
-1.85044e-07
46.6542
-1.85169e-07
46.6544
-1.85285e-07
46.6545
-1.85398e-07
46.6547
-1.85505e-07
46.6548
-1.85612e-07
46.6549
-1.85706e-07
46.655
-1.85793e-07
46.6552
-1.85878e-07
46.6553
-1.85959e-07
46.6554
-1.86044e-07
46.6555
-1.86124e-07
46.6556
-1.86209e-07
46.6557
-1.86291e-07
46.6558
-1.86373e-07
46.6559
-1.86452e-07
46.656
-1.8653e-07
46.6561
-1.86607e-07
46.6562
-1.86684e-07
46.6563
-1.86761e-07
46.6564
-1.86836e-07
46.6565
-1.86916e-07
46.6565
-1.86965e-07
46.6566
-1.87097e-07
46.6567
-1.87149e-07
46.6567
-1.87255e-07
46.6568
-1.87225e-07
46.6568
-1.87332e-07
46.6569
-1.87406e-07
46.657
-1.8747e-07
46.657
-1.87532e-07
46.657
-1.87582e-07
46.6571
-1.87646e-07
46.6571
-1.87655e-07
46.6572
-1.87791e-07
46.6572
-1.87811e-07
46.6572
-1.87892e-07
46.6572
-1.87863e-07
46.6573
-1.87942e-07
46.6573
-1.88005e-07
46.6573
-1.88032e-07
46.6573
-1.88074e-07
46.6573
-1.88124e-07
46.6574
-1.88168e-07
46.6574
-1.88147e-07
46.6574
-1.8834e-07
46.6574
-1.88352e-07
46.6573
-1.88298e-07
46.6573
-1.88577e-07
46.6573
-1.88543e-07
46.6573
-1.88751e-07
46.6572
-1.89025e-07
46.6571
-1.89148e-07
46.657
-1.89505e-07
46.6568
-1.89928e-07
46.6566
-1.90496e-07
46.6563
-1.91198e-07
46.6559
-1.92122e-07
46.6553
-1.93277e-07
46.6546
-1.9476e-07
46.6538
-1.96616e-07
46.6526
-1.98907e-07
46.6511
-2.01732e-07
46.6493
-2.05157e-07
46.647
-2.09272e-07
46.6442
-2.14165e-07
46.6407
-2.19892e-07
46.6364
-2.26514e-07
46.6313
-2.34076e-07
46.6253
-2.42554e-07
46.6181
-2.51932e-07
46.6098
-2.62106e-07
46.6002
-2.72918e-07
46.5893
-2.84155e-07
46.5769
-2.95516e-07
46.5632
-3.0664e-07
46.548
-3.17094e-07
46.5316
-3.2637e-07
46.514
-3.33924e-07
46.4954
-3.39181e-07
46.4761
-3.41563e-07
46.4564
-3.40533e-07
46.4365
-3.35613e-07
46.417
-3.26436e-07
46.3983
-3.12768e-07
46.3807
-2.94535e-07
46.3647
-2.71865e-07
46.3508
-2.45077e-07
46.3392
-2.14696e-07
46.3304
-1.81442e-07
46.3246
-1.4623e-07
46.3219
-1.1056e-07
46.3223
-8.2119e-08
46.3254
-5.39162e-08
46.3313
-1.05285e-08
46.34
1.88925e-08
46.3512
4.50802e-08
46.3644
6.39366e-08
46.3793
7.96376e-08
46.3953
8.8296e-08
46.4119
9.05104e-08
46.4287
8.84297e-08
46.4452
7.99607e-08
46.461
6.76621e-08
46.4757
5.18862e-08
46.4892
3.2835e-08
46.5013
1.34903e-08
46.5119
-5.21868e-09
46.5209
-1.4827e-08
46.5284
1.72258e-08
46.5345
2.42461e-07
46.5392
1.45814e-06
46.5428
7.38567e-06
46.5453
3.66644e-05
46.5471
0.000182713
46.5483
0.000792958
46.5498
0.00402485
46.5543
0.0193981
46.5731
0.0949927
46.6439
0.463734
46.7497
2.34408
7.97218
47.5291
46.7584
-0.000402364
46.7217
-0.000303723
46.6861
-0.000280642
46.6525
-0.000286435
46.6213
-0.000287261
46.5932
-0.000286714
46.5687
-0.000286383
46.5478
-0.00028586
46.531
-0.000284542
46.5181
-0.000281996
46.5091
-0.000277683
46.504
-0.000270735
46.5025
-0.000260462
46.5044
-0.00024686
46.5092
-0.000228965
46.5164
-0.000207787
46.5257
-0.00018392
46.5364
-0.000158446
46.548
-0.00013268
46.56
-0.000107894
46.572
-8.5153e-05
46.5836
-6.52122e-05
46.5945
-4.84657e-05
46.6044
-3.49676e-05
46.6133
-2.45115e-05
46.6209
-1.67144e-05
46.6274
-1.11074e-05
46.6326
-7.21762e-06
46.6367
-4.61006e-06
46.6398
-2.91924e-06
46.642
-1.85947e-06
46.6434
-1.21625e-06
46.6442
-8.39204e-07
46.6446
-6.24758e-07
46.6446
-5.06252e-07
46.6443
-4.42634e-07
46.644
-4.08063e-07
46.6435
-3.93565e-07
46.643
-3.85039e-07
46.6426
-3.79595e-07
46.6422
-3.76034e-07
46.6419
-3.73012e-07
46.6418
-3.70009e-07
46.6417
-3.67724e-07
46.6417
-3.66009e-07
46.6418
-3.6284e-07
46.6421
-3.60812e-07
46.6424
-3.58707e-07
46.6427
-3.57333e-07
46.6432
-3.56021e-07
46.6437
-3.5507e-07
46.6442
-3.54615e-07
46.6447
-3.54206e-07
46.6453
-3.54236e-07
46.6459
-3.54389e-07
46.6464
-3.54733e-07
46.647
-3.55278e-07
46.6476
-3.55891e-07
46.6481
-3.56676e-07
46.6486
-3.57529e-07
46.6491
-3.58447e-07
46.6496
-3.59364e-07
46.65
-3.60289e-07
46.6504
-3.61211e-07
46.6508
-3.62112e-07
46.6511
-3.63016e-07
46.6515
-3.63839e-07
46.6518
-3.64646e-07
46.6521
-3.654e-07
46.6523
-3.66082e-07
46.6526
-3.66727e-07
46.6528
-3.67276e-07
46.653
-3.67804e-07
46.6532
-3.68284e-07
46.6534
-3.68719e-07
46.6536
-3.69128e-07
46.6538
-3.69474e-07
46.6539
-3.69805e-07
46.6541
-3.70087e-07
46.6542
-3.70335e-07
46.6544
-3.70569e-07
46.6545
-3.70794e-07
46.6547
-3.71011e-07
46.6548
-3.71224e-07
46.6549
-3.71412e-07
46.655
-3.71589e-07
46.6552
-3.71758e-07
46.6553
-3.71919e-07
46.6554
-3.72089e-07
46.6555
-3.72248e-07
46.6556
-3.72419e-07
46.6557
-3.72584e-07
46.6558
-3.72744e-07
46.6559
-3.72904e-07
46.656
-3.73059e-07
46.6561
-3.73216e-07
46.6562
-3.73368e-07
46.6563
-3.73524e-07
46.6564
-3.73675e-07
46.6565
-3.73835e-07
46.6565
-3.73902e-07
46.6566
-3.74218e-07
46.6567
-3.74289e-07
46.6567
-3.74528e-07
46.6568
-3.74435e-07
46.6568
-3.74673e-07
46.6569
-3.7481e-07
46.657
-3.74941e-07
46.657
-3.75066e-07
46.657
-3.75165e-07
46.6571
-3.75292e-07
46.6571
-3.75299e-07
46.6572
-3.75593e-07
46.6572
-3.75614e-07
46.6572
-3.75802e-07
46.6572
-3.75702e-07
46.6573
-3.75893e-07
46.6573
-3.76015e-07
46.6573
-3.76051e-07
46.6573
-3.76159e-07
46.6573
-3.76245e-07
46.6574
-3.76338e-07
46.6574
-3.76276e-07
46.6574
-3.76701e-07
46.6574
-3.76711e-07
46.6573
-3.76574e-07
46.6573
-3.77182e-07
46.6573
-3.77076e-07
46.6573
-3.77537e-07
46.6572
-3.78059e-07
46.6571
-3.7824e-07
46.657
-3.79011e-07
46.6568
-3.7986e-07
46.6566
-3.80989e-07
46.6563
-3.82398e-07
46.6559
-3.84237e-07
46.6553
-3.86558e-07
46.6546
-3.89518e-07
46.6538
-3.93232e-07
46.6526
-3.97816e-07
46.6511
-4.03461e-07
46.6493
-4.10316e-07
46.647
-4.18548e-07
46.6442
-4.28331e-07
46.6407
-4.39785e-07
46.6364
-4.53032e-07
46.6313
-4.68152e-07
46.6253
-4.85118e-07
46.6181
-5.03871e-07
46.6098
-5.2422e-07
46.6002
-5.4585e-07
46.5893
-5.68321e-07
46.5769
-5.9105e-07
46.5632
-6.133e-07
46.548
-6.3421e-07
46.5316
-6.52763e-07
46.514
-6.67871e-07
46.4954
-6.78389e-07
46.4761
-6.83154e-07
46.4564
-6.81095e-07
46.4365
-6.71259e-07
46.417
-6.52902e-07
46.3983
-6.25562e-07
46.3807
-5.89094e-07
46.3647
-5.43745e-07
46.3508
-4.90166e-07
46.3392
-4.29398e-07
46.3304
-3.62885e-07
46.3246
-2.9242e-07
46.3219
-2.2056e-07
46.3223
-1.65957e-07
46.3254
-1.06613e-07
46.3313
-2.13536e-08
46.34
3.75348e-08
46.3512
9.01259e-08
46.3644
1.27956e-07
46.3793
1.59475e-07
46.3953
1.76617e-07
46.4119
1.81014e-07
46.4287
1.77109e-07
46.4452
1.5987e-07
46.461
1.35312e-07
46.4757
1.04048e-07
46.4892
6.54313e-08
46.5013
2.58669e-08
46.5119
-1.61845e-08
46.5209
-5.42777e-08
46.5284
-7.60515e-08
46.5345
-2.67819e-08
46.5392
3.89952e-07
46.5428
2.52206e-06
46.5454
1.32218e-05
46.5472
6.74372e-05
46.5488
0.000288327
46.5518
0.00146619
46.5643
0.00710386
46.6237
0.0354519
46.9034
0.183698
47.9754
1.27153
4.09986
51.8473
10.5927
-0.00046049
10.5844
-0.000330674
10.5763
-0.000315151
10.5687
-0.000319195
10.5616
-0.000319687
10.5553
-0.000319172
10.5497
-0.00031885
10.545
-0.000318239
10.5412
-0.000316746
10.5382
-0.000313889
10.5362
-0.000309015
10.5351
-0.000301218
10.5347
-0.000289684
10.5351
-0.000274452
10.5362
-0.00025442
10.5379
-0.000230727
10.54
-0.000204087
10.5424
-0.000175679
10.545
-0.00014698
10.5477
-0.000119408
10.5505
-9.41442e-05
10.5531
-7.20203e-05
10.5556
-5.34653e-05
10.5578
-3.85297e-05
10.5598
-2.69762e-05
10.5616
-1.83729e-05
10.563
-1.21948e-05
10.5642
-7.91547e-06
10.5651
-5.05099e-06
10.5658
-3.19659e-06
10.5663
-2.03649e-06
10.5666
-1.33326e-06
10.5668
-9.21485e-07
10.5669
-6.88013e-07
10.5669
-5.5931e-07
10.5668
-4.90356e-07
10.5668
-4.53045e-07
10.5667
-4.37543e-07
10.5666
-4.28414e-07
10.5665
-4.22448e-07
10.5664
-4.18637e-07
10.5663
-4.15272e-07
10.5663
-4.11934e-07
10.5663
-4.09433e-07
10.5663
-4.0747e-07
10.5663
-4.03961e-07
10.5663
-4.01722e-07
10.5664
-3.99334e-07
10.5665
-3.97844e-07
10.5666
-3.96343e-07
10.5667
-3.95297e-07
10.5668
-3.94803e-07
10.5669
-3.94313e-07
10.5671
-3.94375e-07
10.5672
-3.94532e-07
10.5673
-3.9491e-07
10.5675
-3.95534e-07
10.5676
-3.96198e-07
10.5677
-3.97082e-07
10.5678