/*--------------------------------*- C++ -*----------------------------------*\
| =========                 |                                                 |
| \\      /  F ield         | OpenFOAM: The Open Source CFD Toolbox           |
|  \\    /   O peration     | Version:  3.0.x                                 |
|   \\  /    A nd           | Web:      www.OpenFOAM.org                      |
|    \\/     M anipulation  |                                                 |
\*---------------------------------------------------------------------------*/
FoamFile
{
    version     2.0;
    format      ascii;
    class       volScalarField;
    location    "0.34";
    object      T;
}
// * * * * * * * * * * * * * * * * * * * * * * * * * * * * * * * * * * * * * //

dimensions      [0 0 0 1 0 0 0];

internalField   nonuniform List<scalar> 
6900
(
774.445
774.445
774.445
774.445
774.445
774.445
774.445
774.445
774.445
774.445
774.446
774.446
774.446
774.445
774.444
774.442
774.439
774.436
774.434
774.432
774.431
774.431
774.43
774.43
774.429
774.428
774.426
774.423
774.42
774.417
774.413
774.41
774.406
774.403
774.4
774.398
774.397
774.397
774.396
774.396
774.395
774.393
774.39
774.388
774.385
774.383
774.381
774.38
774.379
774.378
774.378
774.378
774.378
774.378
774.378
774.377
774.377
774.377
774.377
774.377
774.377
774.377
774.377
774.377
774.377
774.377
774.377
774.377
774.377
774.377
774.377
774.377
774.377
774.377
774.377
774.378
774.378
774.378
774.378
774.378
774.379
774.379
774.379
774.379
774.379
774.379
774.379
774.379
774.379
774.379
774.379
774.379
774.379
774.379
774.378
774.378
774.378
774.378
774.377
774.377
774.377
774.377
774.377
774.377
774.377
774.377
774.377
774.377
774.377
774.377
774.377
774.378
774.378
774.378
774.378
774.379
774.379
774.379
774.38
774.38
774.38
774.38
774.38
774.38
774.38
774.38
774.38
774.379
774.379
774.379
774.378
774.378
774.378
774.377
774.377
774.377
774.377
774.376
774.376
774.376
774.376
774.376
774.376
774.376
774.377
774.377
774.377
774.378
774.378
774.379
774.379
774.38
774.381
774.381
774.381
774.382
774.382
774.382
774.382
774.382
774.382
774.382
774.382
774.382
774.381
774.381
774.38
774.38
774.379
774.379
774.378
774.378
774.377
774.377
774.376
774.376
774.376
774.376
774.376
774.376
774.377
774.377
774.378
774.378
774.379
774.38
774.381
774.382
774.383
774.384
774.384
774.385
774.385
774.385
774.385
774.385
774.384
774.385
774.384
774.454
774.442
774.442
774.442
774.442
774.442
774.443
774.443
774.443
774.443
774.443
774.443
774.443
774.443
774.443
774.442
774.44
774.437
774.434
774.432
774.43
774.429
774.428
774.428
774.428
774.427
774.426
774.424
774.421
774.418
774.415
774.411
774.408
774.404
774.401
774.398
774.396
774.395
774.395
774.395
774.394
774.393
774.391
774.389
774.386
774.384
774.381
774.38
774.378
774.377
774.377
774.376
774.376
774.376
774.376
774.376
774.376
774.376
774.376
774.376
774.376
774.376
774.375
774.375
774.375
774.375
774.375
774.375
774.375
774.375
774.375
774.375
774.375
774.375
774.376
774.376
774.376
774.376
774.376
774.376
774.377
774.377
774.377
774.377
774.377
774.378
774.378
774.378
774.378
774.378
774.378
774.377
774.377
774.377
774.377
774.377
774.377
774.376
774.376
774.376
774.376
774.375
774.375
774.375
774.375
774.375
774.375
774.375
774.375
774.375
774.376
774.376
774.376
774.376
774.377
774.377
774.377
774.377
774.378
774.378
774.378
774.378
774.378
774.378
774.378
774.378
774.378
774.378
774.378
774.378
774.377
774.377
774.377
774.376
774.376
774.376
774.375
774.375
774.375
774.375
774.374
774.374
774.374
774.374
774.375
774.375
774.375
774.376
774.376
774.377
774.377
774.378
774.378
774.379
774.379
774.38
774.38
774.381
774.381
774.381
774.381
774.381
774.381
774.38
774.38
774.38
774.379
774.379
774.378
774.377
774.377
774.376
774.376
774.376
774.375
774.375
774.375
774.374
774.374
774.375
774.375
774.375
774.376
774.376
774.377
774.378
774.379
774.38
774.381
774.381
774.382
774.383
774.383
774.384
774.384
774.384
774.383
774.383
774.383
774.383
774.448
774.442
774.442
774.442
774.442
774.443
774.443
774.443
774.443
774.443
774.443
774.443
774.443
774.443
774.443
774.442
774.44
774.437
774.434
774.432
774.43
774.429
774.428
774.428
774.428
774.427
774.426
774.424
774.421
774.418
774.415
774.411
774.408
774.404
774.401
774.398
774.396
774.395
774.395
774.395
774.394
774.393
774.391
774.389
774.386
774.384
774.381
774.38
774.378
774.377
774.377
774.376
774.376
774.376
774.376
774.376
774.376
774.376
774.376
774.376
774.376
774.376
774.375
774.375
774.375
774.375
774.375
774.375
774.375
774.375
774.375
774.375
774.375
774.375
774.376
774.376
774.376
774.376
774.376
774.376
774.377
774.377
774.377
774.377
774.377
774.378
774.378
774.378
774.378
774.378
774.378
774.377
774.377
774.377
774.377
774.377
774.377
774.376
774.376
774.376
774.376
774.375
774.375
774.375
774.375
774.375
774.375
774.375
774.375
774.375
774.376
774.376
774.376
774.376
774.377
774.377
774.377
774.377
774.378
774.378
774.378
774.378
774.378
774.378
774.378
774.378
774.378
774.378
774.378
774.378
774.377
774.377
774.377
774.376
774.376
774.376
774.375
774.375
774.375
774.375
774.374
774.374
774.374
774.374
774.375
774.375
774.375
774.376
774.376
774.377
774.377
774.378
774.378
774.379
774.379
774.38
774.38
774.381
774.381
774.381
774.381
774.381
774.381
774.38
774.38
774.38
774.379
774.379
774.378
774.377
774.377
774.376
774.376
774.376
774.375
774.375
774.375
774.374
774.374
774.375
774.375
774.375
774.376
774.376
774.377
774.378
774.379
774.38
774.38
774.381
774.382
774.383
774.383
774.384
774.384
774.384
774.383
774.383
774.382
774.381
774.384
774.442
774.442
774.442
774.442
774.442
774.443
774.443
774.443
774.443
774.443
774.443
774.443
774.443
774.443
774.442
774.44
774.437
774.434
774.432
774.43
774.429
774.428
774.428
774.428
774.427
774.426
774.424
774.421
774.418
774.415
774.411
774.408
774.404
774.401
774.398
774.396
774.395
774.395
774.395
774.394
774.393
774.391
774.389
774.386
774.384
774.381
774.38
774.378
774.377
774.377
774.376
774.376
774.376
774.376
774.376
774.376
774.376
774.376
774.376
774.376
774.376
774.375
774.375
774.375
774.375
774.375
774.375
774.375
774.375
774.375
774.375
774.375
774.375
774.376
774.376
774.376
774.376
774.376
774.376
774.377
774.377
774.377
774.377
774.377
774.378
774.378
774.378
774.378
774.378
774.378
774.377
774.377
774.377
774.377
774.377
774.377
774.376
774.376
774.376
774.376
774.375
774.375
774.375
774.375
774.375
774.375
774.375
774.375
774.375
774.376
774.376
774.376
774.376
774.377
774.377
774.377
774.377
774.378
774.378
774.378
774.378
774.378
774.378
774.378
774.378
774.378
774.378
774.378
774.378
774.377
774.377
774.377
774.376
774.376
774.376
774.375
774.375
774.375
774.375
774.374
774.374
774.374
774.374
774.375
774.375
774.375
774.376
774.376
774.377
774.377
774.378
774.378
774.379
774.379
774.38
774.38
774.381
774.381
774.381
774.381
774.381
774.381
774.38
774.38
774.38
774.379
774.379
774.378
774.378
774.377
774.376
774.376
774.376
774.375
774.375
774.375
774.374
774.374
774.375
774.375
774.375
774.376
774.376
774.377
774.378
774.379
774.38
774.38
774.381
774.382
774.383
774.383
774.384
774.384
774.384
774.383
774.383
774.379
774.384
774.253
774.445
774.445
774.445
774.445
774.445
774.445
774.445
774.445
774.445
774.445
774.446
774.446
774.446
774.445
774.444
774.442
774.439
774.436
774.434
774.432
774.431
774.431
774.43
774.43
774.429
774.428
774.426
774.423
774.42
774.417
774.413
774.41
774.406
774.403
774.4
774.398
774.397
774.397
774.396
774.396
774.395
774.393
774.39
774.388
774.385
774.383
774.381
774.38
774.379
774.378
774.378
774.378
774.378
774.378
774.378
774.377
774.377
774.377
774.377
774.377
774.377
774.377
774.377
774.377
774.377
774.377
774.377
774.377
774.377
774.377
774.377
774.377
774.377
774.377
774.377
774.378
774.378
774.378
774.378
774.378
774.379
774.379
774.379
774.379
774.379
774.379
774.379
774.379
774.379
774.379
774.379
774.379
774.379
774.379
774.378
774.378
774.378
774.378
774.377
774.377
774.377
774.377
774.377
774.377
774.377
774.377
774.377
774.377
774.377
774.377
774.377
774.378
774.378
774.378
774.378
774.379
774.379
774.379
774.38
774.38
774.38
774.38
774.38
774.38
774.38
774.38
774.38
774.379
774.379
774.379
774.378
774.378
774.378
774.377
774.377
774.377
774.377
774.376
774.376
774.376
774.376
774.376
774.376
774.376
774.377
774.377
774.377
774.378
774.378
774.379
774.379
774.38
774.381
774.381
774.381
774.382
774.382
774.382
774.382
774.382
774.382
774.382
774.382
774.382
774.381
774.381
774.38
774.38
774.379
774.379
774.378
774.378
774.377
774.377
774.376
774.376
774.376
774.376
774.376
774.376
774.377
774.377
774.378
774.378
774.379
774.38
774.381
774.382
774.383
774.384
774.384
774.385
774.385
774.385
774.385
774.385
774.384
774.38
774.393
774.164
774.438
774.453
774.451
774.45
774.448
774.445
774.439
774.431
774.421
774.422
774.429
774.439
774.414
774.381
774.361
774.341
774.291
774.251
774.256
774.242
774.425
774.429
774.427
774.423
774.417
774.413
774.405
774.394
774.381
774.376
774.383
774.397
774.369
774.324
774.315
774.303
774.263
774.194
774.188
774.191
774.384
774.383
774.38
774.374
774.369
774.362
774.355
774.348
774.338
774.329
774.319
774.312
774.307
774.308
774.308
774.297
774.279
774.273
774.261
774.255
774.31
774.311
774.317
774.316
774.31
774.295
774.278
774.256
774.238
774.216
774.202
774.175
774.161
774.147
774.133
774.117
774.104
774.094
774.085
774.076
774.255
774.234
774.231
774.233
774.232
774.227
774.214
774.199
774.183
774.169
774.15
774.138
774.121
774.111
774.098
774.092
774.084
774.086
774.093
774.125
774.096
774.072
774.065
774.042
774.018
774.022
774.036
774.036
774.028
774.025
774.026
774.028
774.027
774.026
774.026
774.026
774.026
774.026
774.026
774.025
774.025
774.025
774.025
774.025
774.025
774.024
774.024
774.024
774.024
774.023
774.023
774.022
774.022
774.021
774.02
774.02
774.019
774.018
774.017
774.017
774.016
774.015
774.013
774.011
774.01
774.009
774.009
774.009
774.007
774.005
774.003
774.001
774
773.998
773.996
773.995
773.993
773.992
773.992
773.992
773.993
773.994
773.995
773.995
773.995
773.996
773.997
773.998
774.002
774.009
774.015
774.019
774.021
774.023
774.027
774.04
774.095
774.217
774.299
774.325
774.319
774.259
774.12
774.017
773.96
773.934
773.927
773.926
773.93
773.936
773.941
773.943
773.944
773.945
773.945
773.944
773.943
773.942
773.941
773.939
773.938
773.937
773.935
773.934
773.933
773.932
773.931
773.93
773.929
773.928
773.927
773.926
773.925
773.924
773.923
773.922
773.922
773.921
773.92
773.919
773.919
773.918
773.917
773.916
773.915
773.915
773.914
773.913
773.912
773.911
773.91
773.909
773.908
773.907
773.906
773.905
773.904
773.903
773.902
773.901
773.9
773.899
773.898
773.898
773.897
773.896
773.896
773.895
773.895
773.894
773.894
773.894
773.894
773.894
773.894
773.894
773.894
773.894
773.894
773.895
773.895
773.895
773.895
773.895
773.896
773.896
773.896
773.896
773.896
773.896
773.896
773.896
773.896
773.896
773.896
773.896
773.896
773.896
773.896
773.895
773.895
773.895
773.895
773.895
773.895
773.894
773.894
773.894
773.894
773.894
773.895
773.895
773.896
773.896
773.897
773.898
773.899
773.896
773.903
773.718
774.076
774.07
774.074
774.053
774.032
774.039
774.053
774.052
774.044
774.042
774.043
774.045
774.045
774.043
774.043
774.043
774.043
774.043
774.042
774.042
774.041
774.041
774.04
774.04
774.04
774.039
774.039
774.039
774.039
774.038
774.038
774.037
774.037
774.036
774.036
774.035
774.035
774.035
774.034
774.034
774.033
774.032
774.031
774.03
774.03
774.031
774.03
774.03
774.028
774.024
774.021
774.019
774.016
774.014
774.013
774.012
774.012
774.012
774.013
774.015
774.016
774.017
774.017
774.018
774.019
774.02
774.025
774.031
774.038
774.043
774.046
774.048
774.049
774.053
774.067
774.122
774.214
774.273
774.294
774.29
774.249
774.139
774.045
773.987
773.956
773.943
773.938
773.938
773.939
773.942
773.944
773.945
773.945
773.945
773.944
773.943
773.942
773.941
773.939
773.938
773.937
773.935
773.934
773.933
773.931
773.93
773.929
773.928
773.927
773.926
773.925
773.924
773.923
773.922
773.922
773.921
773.92
773.919
773.919
773.918
773.917
773.916
773.915
773.915
773.914
773.913
773.912
773.911
773.91
773.909
773.908
773.907
773.906
773.905
773.904
773.903
773.902
773.901
773.9
773.899
773.898
773.898
773.897
773.896
773.895
773.895
773.894
773.894
773.893
773.893
773.893
773.893
773.892
773.892
773.892
773.893
773.893
773.893
773.893
773.893
773.893
773.894
773.894
773.894
773.894
773.894
773.894
773.894
773.895
773.895
773.895
773.895
773.895
773.895
773.895
773.894
773.894
773.894
773.894
773.894
773.894
773.894
773.893
773.893
773.893
773.893
773.893
773.893
773.893
773.893
773.893
773.894
773.894
773.895
773.895
773.896
773.897
773.895
773.896
773.793
774.269
774.291
774.297
774.295
774.3
774.302
774.302
774.301
774.301
774.301
774.301
774.3
774.299
774.297
774.295
774.293
774.291
774.29
774.288
774.286
774.285
774.284
774.283
774.282
774.281
774.281
774.282
774.282
774.283
774.283
774.284
774.284
774.284
774.283
774.282
774.281
774.279
774.278
774.277
774.277
774.277
774.277
774.277
774.277
774.278
774.279
774.28
774.281
774.283
774.285
774.287
774.288
774.288
774.288
774.287
774.283
774.268
774.226
774.173
774.127
774.087
774.056
774.035
774.02
774.012
774.007
774.005
774.005
774.005
774.007
774.01
774.011
774.012
774.013
774.011
774.007
774.002
773.996
773.99
773.983
773.978
773.973
773.97
773.968
773.966
773.964
773.962
773.96
773.958
773.956
773.954
773.952
773.95
773.949
773.947
773.945
773.943
773.942
773.94
773.938
773.937
773.935
773.934
773.933
773.931
773.93
773.929
773.928
773.927
773.926
773.925
773.924
773.923
773.922
773.922
773.921
773.92
773.919
773.919
773.918
773.917
773.916
773.915
773.915
773.914
773.913
773.912
773.911
773.91
773.909
773.908
773.907
773.906
773.905
773.904
773.903
773.902
773.901
773.9
773.899
773.898
773.898
773.897
773.896
773.895
773.895
773.894
773.894
773.893
773.893
773.893
773.893
773.892
773.892
773.892
773.893
773.893
773.893
773.893
773.893
773.893
773.894
773.894
773.894
773.894
773.894
773.894
773.894
773.895
773.895
773.895
773.895
773.895
773.895
773.895
773.895
773.894
773.894
773.894
773.894
773.894
773.894
773.893
773.893
773.893
773.893
773.893
773.893
773.893
773.893
773.893
773.894
773.894
773.895
773.895
773.896
773.897
773.898
773.9
773.904
774.053
774.053
774.047
774.04
774.039
774.04
774.04
774.037
774.035
774.035
774.035
774.034
774.034
774.033
774.033
774.034
774.034
774.034
774.034
774.035
774.035
774.035
774.035
774.036
774.036
774.035
774.035
774.035
774.035
774.034
774.034
774.033
774.032
774.031
774.03
774.029
774.028
774.026
774.025
774.023
774.021
774.02
774.018
774.017
774.016
774.016
774.015
774.013
774.012
774.011
774.01
774.009
774.008
774.007
774.006
774.005
774.004
774.004
774.004
774.004
774.005
774.006
774.008
774.011
774.013
774.017
774.027
774.04
774.05
774.056
774.061
774.071
774.097
774.136
774.165
774.178
774.179
774.173
774.142
774.072
774.016
773.978
773.957
773.947
773.943
773.942
773.942
773.944
773.946
773.947
773.947
773.947
773.947
773.946
773.945
773.944
773.942
773.941
773.939
773.938
773.937
773.935
773.934
773.933
773.931
773.93
773.929
773.928
773.927
773.926
773.925
773.924
773.923
773.922
773.922
773.921
773.92
773.919
773.919
773.918
773.917
773.916
773.915
773.915
773.914
773.913
773.912
773.911
773.91
773.909
773.908
773.907
773.906
773.905
773.904
773.903
773.902
773.901
773.9
773.899
773.898
773.898
773.897
773.896
773.895
773.895
773.894
773.894
773.893
773.893
773.893
773.893
773.892
773.892
773.892
773.893
773.893
773.893
773.893
773.893
773.893
773.894
773.894
773.894
773.894
773.894
773.894
773.894
773.895
773.895
773.895
773.895
773.895
773.895
773.895
773.895
773.894
773.894
773.894
773.894
773.894
773.894
773.893
773.893
773.893
773.893
773.893
773.893
773.893
773.893
773.893
773.894
773.894
773.895
773.895
773.896
773.897
773.9
773.903
773.958
774.181
774.181
774.179
774.17
774.168
774.168
774.167
774.164
774.162
774.162
774.161
774.16
774.159
774.159
774.16
774.16
774.16
774.16
774.16
774.16
774.16
774.16
774.159
774.159
774.159
774.158
774.157
774.157
774.156
774.155
774.153
774.152
774.151
774.149
774.147
774.145
774.144
774.142
774.141
774.139
774.138
774.137
774.136
774.135
774.134
774.134
774.133
774.131
774.129
774.127
774.125
774.124
774.123
774.122
774.12
774.119
774.118
774.118
774.117
774.118
774.118
774.119
774.121
774.126
774.134
774.14
774.143
774.144
774.145
774.148
774.17
774.255
774.357
774.412
774.426
774.418
774.366
774.254
774.162
774.096
774.05
774.018
773.998
773.984
773.976
773.97
773.965
773.962
773.96
773.957
773.955
773.954
773.952
773.95
773.948
773.946
773.945
773.943
773.941
773.94
773.938
773.937
773.936
773.934
773.933
773.932
773.931
773.93
773.929
773.928
773.927
773.926
773.925
773.924
773.923
773.922
773.922
773.921
773.92
773.919
773.919
773.918
773.917
773.916
773.915
773.915
773.914
773.913
773.912
773.911
773.91
773.909
773.908
773.907
773.906
773.905
773.904
773.903
773.902
773.901
773.9
773.899
773.898
773.898
773.897
773.896
773.896
773.895
773.895
773.894
773.894
773.894
773.894
773.894
773.894
773.894
773.894
773.894
773.894
773.895
773.895
773.895
773.895
773.896
773.896
773.896
773.896
773.896
773.896
773.896
773.896
773.896
773.896
773.896
773.896
773.896
773.896
773.896
773.896
773.895
773.895
773.895
773.895
773.895
773.894
773.894
773.894
773.894
773.894
773.895
773.895
773.895
773.896
773.896
773.897
773.898
773.899
773.901
773.904
773.963
773.785
773.764
773.759
773.761
773.76
773.755
773.742
773.733
773.714
773.706
773.687
773.677
773.66
773.653
773.639
773.635
773.626
773.627
773.632
773.657
773.836
773.836
773.842
773.841
773.834
773.82
773.801
773.788
773.765
773.751
773.734
773.713
773.695
773.681
773.664
773.651
773.644
773.633
773.626
773.614
773.905
773.905
773.902
773.899
773.893
773.887
773.88
773.871
773.864
773.857
773.853
773.848
773.84
773.83
773.822
773.816
773.809
773.803
773.803
773.816
773.945
773.949
773.947
773.943
773.94
773.934
773.93
773.93
773.933
773.915
773.898
773.894
773.874
773.826
773.804
773.811
773.824
773.835
773.827
773.671
773.958
773.972
773.97
773.971
773.969
773.966
773.965
773.966
773.97
773.957
773.942
773.934
773.909
773.874
773.865
773.871
773.882
773.897
773.881
773.715
773.714
773.717
773.713
773.714
773.716
773.716
773.716
773.717
773.72
773.722
773.723
773.724
773.726
773.727
773.729
773.73
773.731
773.732
773.733
773.734
773.736
773.737
773.738
773.74
773.742
773.743
773.745
773.747
773.748
773.75
773.751
773.753
773.754
773.755
773.757
773.758
773.759
773.761
773.763
773.765
773.767
773.769
773.772
773.774
773.777
773.781
773.784
773.788
773.791
773.795
773.798
773.802
773.807
773.812
773.817
773.821
773.826
773.831
773.836
773.842
773.849
773.856
773.863
773.872
773.883
773.895
773.906
773.915
773.921
773.926
773.933
773.954
774.028
774.142
774.216
774.245
774.246
774.218
774.126
774.032
773.966
773.922
773.894
773.878
773.871
773.869
773.87
773.872
773.877
773.882
773.888
773.894
773.901
773.907
773.916
773.921
773.931
773.935
773.951
773.792
773.595
773.587
773.585
773.587
773.591
773.59
773.589
773.59
773.594
773.597
773.599
773.6
773.602
773.604
773.606
773.608
773.61
773.612
773.613
773.615
773.616
773.618
773.619
773.621
773.622
773.624
773.626
773.628
773.63
773.632
773.634
773.635
773.637
773.639
773.641
773.643
773.645
773.647
773.648
773.65
773.653
773.655
773.658
773.661
773.663
773.667
773.67
773.673
773.677
773.681
773.686
773.69
773.694
773.699
773.703
773.708
773.714
773.72
773.725
773.731
773.738
773.743
773.75
773.76
773.769
773.778
773.787
773.801
773.818
773.834
773.847
773.855
773.868
773.896
773.939
773.977
774.003
774.013
774.013
774
773.951
773.894
773.857
773.84
773.835
773.835
773.838
773.847
773.858
773.867
773.877
773.885
773.895
773.902
773.911
773.918
773.927
773.932
773.944
773.857
773.8
773.804
773.829
773.842
773.846
773.845
773.844
773.846
773.849
773.85
773.851
773.852
773.853
773.855
773.856
773.858
773.86
773.862
773.864
773.865
773.866
773.866
773.866
773.866
773.867
773.867
773.868
773.87
773.871
773.873
773.875
773.877
773.879
773.881
773.883
773.885
773.888
773.89
773.893
773.895
773.898
773.902
773.906
773.911
773.916
773.921
773.925
773.93
773.935
773.942
773.95
773.958
773.965
773.972
773.978
773.983
773.985
773.98
773.957
773.911
773.87
773.837
773.812
773.796
773.785
773.782
773.782
773.784
773.789
773.796
773.803
773.81
773.818
773.825
773.831
773.835
773.837
773.839
773.84
773.84
773.841
773.842
773.844
773.847
773.852
773.857
773.863
773.868
773.874
773.881
773.886
773.893
773.899
773.907
773.913
773.921
773.928
773.937
773.944
773.953
773.607
773.601
773.597
773.583
773.6
773.612
773.602
773.593
773.595
773.603
773.606
773.607
773.607
773.609
773.612
773.614
773.616
773.618
773.62
773.622
773.624
773.626
773.628
773.63
773.632
773.633
773.635
773.636
773.638
773.639
773.64
773.642
773.643
773.644
773.646
773.648
773.65
773.652
773.655
773.657
773.66
773.663
773.667
773.67
773.673
773.677
773.68
773.683
773.687
773.692
773.696
773.7
773.704
773.708
773.713
773.718
773.723
773.73
773.737
773.743
773.749
773.756
773.762
773.768
773.775
773.783
773.794
773.804
773.815
773.824
773.833
773.842
773.849
773.854
773.861
773.877
773.926
774.022
774.1
774.138
774.145
774.128
774.049
773.95
773.887
773.856
773.847
773.846
773.849
773.86
773.871
773.882
773.891
773.901
773.909
773.918
773.925
773.937
773.945
774.001
773.618
773.596
773.589
773.573
773.584
773.598
773.589
773.578
773.579
773.587
773.591
773.591
773.592
773.593
773.597
773.599
773.601
773.602
773.604
773.606
773.608
773.61
773.612
773.613
773.615
773.617
773.619
773.62
773.622
773.624
773.625
773.627
773.628
773.63
773.631
773.633
773.635
773.637
773.639
773.642
773.644
773.647
773.65
773.653
773.657
773.661
773.664
773.667
773.671
773.675
773.679
773.683
773.688
773.692
773.696
773.701
773.705
773.71
773.716
773.722
773.728
773.734
773.74
773.746
773.752
773.758
773.765
773.773
773.783
773.792
773.802
773.812
773.821
773.829
773.835
773.842
773.855
773.895
774.006
774.115
774.169
774.177
774.155
774.053
773.936
773.871
773.843
773.837
773.839
773.848
773.864
773.877
773.889
773.899
773.908
773.919
773.925
773.938
773.946
774.004
773.851
773.832
773.831
773.833
773.834
773.83
773.819
773.812
773.798
773.79
773.776
773.767
773.755
773.749
773.739
773.736
773.73
773.731
773.736
773.76
773.894
773.899
773.906
773.904
773.901
773.889
773.874
773.862
773.843
773.834
773.815
773.801
773.788
773.774
773.764
773.758
773.749
773.74
773.735
773.724
773.962
773.962
773.962
773.96
773.957
773.953
773.949
773.943
773.94
773.937
773.934
773.93
773.923
773.918
773.913
773.911
773.91
773.911
773.924
773.934
773.998
774.003
774.002
774.002
774
773.999
774
774.004
773.997
773.981
773.977
773.966
773.933
773.914
773.92
773.936
773.949
773.942
773.877
773.76
774.01
774.026
774.026
774.027
774.028
774.029
774.031
774.036
774.032
774.02
774.014
774.001
773.975
773.968
773.974
773.988
774
773.993
773.934
773.806
773.82
773.839
773.85
773.865
773.875
773.88
773.892
773.904
773.914
773.924
773.935
773.945
773.955
773.965
773.976
773.987
773.998
774.009
774.02
774.031
774.042
774.053
774.064
774.074
774.085
774.096
774.106
774.117
774.128
774.139
774.151
774.163
774.174
774.186
774.199
774.211
774.224
774.236
774.249
774.262
774.275
774.289
774.302
774.316
774.33
774.344
774.358
774.373
774.388
774.403
774.418
774.434
774.45
774.466
774.481
774.496
774.513
774.531
774.548
774.566
774.584
774.605
774.63
774.656
774.68
774.697
774.708
774.722
774.755
774.853
774.986
775.077
775.117
775.122
775.101
775.022
774.938
774.882
774.85
774.839
774.839
774.841
774.848
774.863
774.88
774.897
774.915
774.933
774.952
774.971
774.99
775.009
775.029
775.048
775.068
775.088
775.108
775.129
775.149
775.17
775.19
775.211
775.232
775.254
775.275
775.296
775.318
775.34
775.362
775.384
775.406
775.428
775.451
775.473
775.496
775.519
775.542
775.564
775.587
775.61
775.634
775.657
775.68
775.703
775.726
775.75
775.773
775.797
775.82
775.844
775.867
775.891
775.914
775.938
775.962
775.986
776.01
776.033
776.057
776.081
776.106
776.13
776.154
776.178
776.203
776.227
776.252
776.277
776.301
776.326
776.351
776.377
776.402
776.427
776.452
776.478
776.504
776.529
776.555
776.581
776.607
776.633
776.659
776.685
776.712
776.738
776.764
776.791
776.818
776.844
776.871
776.897
776.924
776.951
776.978
777.005
777.032
777.059
777.086
777.113
777.14
777.168
777.194
777.223
777.248
777.278
777.303
777.334
777.357
777.389
777.412
777.445
777.467
777.501
777.523
777.557
777.579
777.611
777.642
777.665
773.719
773.722
773.729
773.746
773.755
773.761
773.77
773.784
773.795
773.804
773.815
773.825
773.836
773.846
773.856
773.867
773.878
773.889
773.9
773.912
773.923
773.934
773.945
773.957
773.968
773.979
773.99
774.002
774.013
774.024
774.036
774.047
774.059
774.071
774.084
774.096
774.109
774.121
774.134
774.148
774.161
774.174
774.188
774.201
774.215
774.23
774.244
774.259
774.274
774.289
774.304
774.32
774.336
774.351
774.367
774.385
774.403
774.419
774.435
774.453
774.473
774.495
774.515
774.535
774.559
774.59
774.622
774.644
774.659
774.684
774.73
774.788
774.843
774.882
774.901
774.904
774.896
774.858
774.818
774.802
774.799
774.801
774.812
774.834
774.858
774.88
774.902
774.924
774.945
774.965
774.985
775.006
775.026
775.046
775.066
775.086
775.106
775.127
775.147
775.168
775.189
775.21
775.231
775.252
775.274
775.295
775.317
775.338
775.36
775.382
775.405
775.427
775.449
775.472
775.495
775.517
775.54
775.563
775.586
775.609
775.632
775.655
775.678
775.702
775.725
775.748
775.772
775.795
775.819
775.842
775.866
775.889
775.913
775.937
775.96
775.984
776.008
776.032
776.056
776.08
776.104
776.128
776.153
776.177
776.201
776.226
776.25
776.275
776.3
776.325
776.35
776.375
776.4
776.426
776.451
776.477
776.502
776.528
776.554
776.58
776.606
776.632
776.658
776.684
776.71
776.737
776.763
776.79
776.816
776.843
776.869
776.896
776.923
776.95
776.976
777.003
777.03
777.057
777.084
777.112
777.139
777.166
777.193
777.221
777.247
777.277
777.301
777.332
777.356
777.388
777.411
777.444
777.466
777.5
777.521
777.556
777.577
777.613
777.633
777.673
773.921
773.938
773.979
773.998
774.005
774.013
774.023
774.034
774.044
774.055
774.065
774.076
774.086
774.096
774.106
774.115
774.125
774.134
774.144
774.154
774.164
774.175
774.187
774.198
774.21
774.221
774.233
774.245
774.257
774.269
774.28
774.292
774.305
774.317
774.329
774.341
774.354
774.366
774.379
774.392
774.406
774.421
774.435
774.45
774.465
774.482
774.5
774.519
774.538
774.557
774.576
774.595
774.612
774.624
774.63
774.629
774.614
774.58
774.55
774.53
774.523
774.523
774.526
774.534
774.547
774.564
774.582
774.601
774.621
774.641
774.66
774.677
774.693
774.709
774.723
774.736
774.748
774.761
774.775
774.789
774.805
774.823
774.84
774.858
774.877
774.895
774.914
774.932
774.951
774.97
774.989
775.008
775.028
775.047
775.067
775.087
775.107
775.127
775.148
775.168
775.189
775.21
775.231
775.252
775.274
775.295
775.317
775.338
775.36
775.382
775.405
775.427
775.449
775.472
775.495
775.517
775.54
775.563
775.586
775.609
775.632
775.655
775.678
775.702
775.725
775.748
775.772
775.795
775.819
775.842
775.866
775.889
775.913
775.937
775.96
775.984
776.008
776.032
776.056
776.08
776.104
776.128
776.153
776.177
776.201
776.226
776.25
776.275
776.3
776.325
776.35
776.375
776.4
776.426
776.451
776.477
776.502
776.528
776.554
776.58
776.606
776.632
776.658
776.684
776.71
776.737
776.763
776.79
776.816
776.843
776.869
776.896
776.923
776.95
776.976
777.003
777.03
777.057
777.084
777.112
777.139
777.166
777.193
777.221
777.248
777.276
777.302
777.331
777.358
777.386
777.413
777.441
777.468
777.499
777.523
777.553
777.581
777.608
777.636
777.666
773.722
773.746
773.736
773.754
773.782
773.786
773.779
773.782
773.8
773.815
773.822
773.83
773.842
773.854
773.865
773.875
773.886
773.897
773.908
773.919
773.93
773.94
773.951
773.962
773.973
773.984
773.995
774.007
774.019
774.031
774.043
774.055
774.068
774.081
774.093
774.106
774.119
774.132
774.145
774.157
774.171
774.184
774.197
774.211
774.225
774.239
774.253
774.268
774.283
774.298
774.313
774.328
774.343
774.36
774.376
774.393
774.411
774.43
774.447
774.463
774.479
774.497
774.516
774.538
774.562
774.585
774.61
774.635
774.658
774.676
774.688
774.702
774.732
774.811
774.925
775.012
775.055
775.062
775.042
774.962
774.885
774.848
774.837
774.838
774.846
774.87
774.895
774.919
774.941
774.963
774.984
775.005
775.025
775.045
775.066
775.086
775.106
775.127
775.147
775.168
775.189
775.21
775.231
775.252
775.273
775.295
775.317
775.338
775.36
775.382
775.405
775.427
775.449
775.472
775.495
775.517
775.54
775.563
775.586
775.609
775.632
775.655
775.678
775.702
775.725
775.748
775.772
775.795
775.819
775.842
775.866
775.889
775.913
775.937
775.96
775.984
776.008
776.032
776.056
776.08
776.104
776.128
776.153
776.177
776.201
776.226
776.25
776.275
776.3
776.325
776.35
776.375
776.4
776.426
776.451
776.477
776.502
776.528
776.554
776.58
776.606
776.632
776.658
776.684
776.71
776.737
776.763
776.79
776.816
776.843
776.869
776.896
776.923
776.95
776.976
777.003
777.03
777.057
777.085
777.111
777.139
777.165
777.194
777.22
777.249
777.274
777.305
777.329
777.36
777.384
777.416
777.438
777.472
777.493
777.529
777.548
777.585
777.603
777.643
777.659
773.719
773.744
773.729
773.736
773.766
773.772
773.765
773.767
773.783
773.799
773.808
773.814
773.826
773.838
773.848
773.859
773.87
773.881
773.892
773.903
773.914
773.925
773.936
773.947
773.958
773.969
773.981
773.992
774.004
774.016
774.028
774.04
774.052
774.065
774.077
774.09
774.103
774.116
774.128
774.141
774.154
774.168
774.181
774.195
774.209
774.223
774.237
774.252
774.267
774.282
774.297
774.313
774.328
774.343
774.359
774.376
774.392
774.409
774.427
774.445
774.462
774.479
774.495
774.512
774.532
774.553
774.575
774.599
774.624
774.649
774.669
774.682
774.695
774.72
774.792
774.939
775.053
775.105
775.11
775.077
774.967
774.879
774.842
774.834
774.837
774.855
774.886
774.913
774.938