/*--------------------------------*- C++ -*----------------------------------*\
| =========                 |                                                 |
| \\      /  F ield         | OpenFOAM: The Open Source CFD Toolbox           |
|  \\    /   O peration     | Version:  3.0.x                                 |
|   \\  /    A nd           | Web:      www.OpenFOAM.org                      |
|    \\/     M anipulation  |                                                 |
\*---------------------------------------------------------------------------*/
FoamFile
{
    version     2.0;
    format      ascii;
    class       volVectorField;
    location    "0.34";
    object      U;
}
// * * * * * * * * * * * * * * * * * * * * * * * * * * * * * * * * * * * * * //

dimensions      [0 1 -1 0 0 0 0];

internalField   nonuniform List<vector> 
6900
(
(42.6981 0.000101131 0)
(42.6959 9.259e-05 0)
(42.6936 8.99104e-05 0)
(42.6914 9.08475e-05 0)
(42.6891 9.15711e-05 0)
(42.6869 9.19744e-05 0)
(42.6847 9.22826e-05 0)
(42.6826 9.25286e-05 0)
(42.6805 9.27199e-05 0)
(42.6784 9.28704e-05 0)
(42.6763 9.29924e-05 0)
(42.6744 9.30919e-05 0)
(42.6724 9.31807e-05 0)
(42.6705 9.32583e-05 0)
(42.6687 9.33524e-05 0)
(42.667 9.33778e-05 0)
(42.6652 9.34465e-05 0)
(42.6636 9.35037e-05 0)
(42.6619 9.35536e-05 0)
(42.6603 9.36e-05 0)
(42.6587 9.36438e-05 0)
(42.6571 9.3685e-05 0)
(42.6555 9.37255e-05 0)
(42.6539 9.3758e-05 0)
(42.6522 9.38179e-05 0)
(42.6506 9.38525e-05 0)
(42.6488 9.38966e-05 0)
(42.6471 9.39441e-05 0)
(42.6452 9.39914e-05 0)
(42.6433 9.40398e-05 0)
(42.6413 9.40875e-05 0)
(42.6392 9.41329e-05 0)
(42.637 9.41739e-05 0)
(42.6347 9.42081e-05 0)
(42.6324 9.42311e-05 0)
(42.63 9.42375e-05 0)
(42.6275 9.42198e-05 0)
(42.6249 9.41673e-05 0)
(42.6223 9.40669e-05 0)
(42.6197 9.38945e-05 0)
(42.617 9.36488e-05 0)
(42.6144 9.32683e-05 0)
(42.6118 9.27482e-05 0)
(42.6092 9.20427e-05 0)
(42.6067 9.11128e-05 0)
(42.6043 8.9918e-05 0)
(42.602 8.84182e-05 0)
(42.5998 8.6577e-05 0)
(42.5977 8.43641e-05 0)
(42.5959 8.17586e-05 0)
(42.5941 7.87515e-05 0)
(42.5926 7.53462e-05 0)
(42.5913 7.1566e-05 0)
(42.5901 6.74414e-05 0)
(42.5891 6.30251e-05 0)
(42.5883 5.83797e-05 0)
(42.5876 5.35719e-05 0)
(42.5871 4.86851e-05 0)
(42.5867 4.37988e-05 0)
(42.5865 3.89925e-05 0)
(42.5863 3.43404e-05 0)
(42.5862 2.9908e-05 0)
(42.5861 2.57502e-05 0)
(42.5861 2.19092e-05 0)
(42.586 1.84136e-05 0)
(42.5859 1.52794e-05 0)
(42.5857 1.25101e-05 0)
(42.5854 1.00966e-05 0)
(42.585 8.02342e-06 0)
(42.5845 6.26756e-06 0)
(42.5839 4.80093e-06 0)
(42.5832 3.59147e-06 0)
(42.5824 2.60825e-06 0)
(42.5815 1.81886e-06 0)
(42.5805 1.19326e-06 0)
(42.5794 7.03703e-07 0)
(42.5782 3.24598e-07 0)
(42.5771 3.76612e-08 0)
(42.5759 -1.83185e-07 0)
(42.5748 -3.46191e-07 0)
(42.5737 -4.65828e-07 0)
(42.5727 -5.52837e-07 0)
(42.5718 -6.15454e-07 0)
(42.571 -6.60246e-07 0)
(42.5704 -6.9204e-07 0)
(42.57 -7.14556e-07 0)
(42.5698 -7.30511e-07 0)
(42.5697 -7.41965e-07 0)
(42.5699 -7.49801e-07 0)
(42.5702 -7.55368e-07 0)
(42.5707 -7.60035e-07 0)
(42.5714 -7.63267e-07 0)
(42.5722 -7.6552e-07 0)
(42.5731 -7.67373e-07 0)
(42.5742 -7.68648e-07 0)
(42.5753 -7.69543e-07 0)
(42.5764 -7.7011e-07 0)
(42.5775 -7.70474e-07 0)
(42.5786 -7.70707e-07 0)
(42.5796 -7.70594e-07 0)
(42.5805 -7.70212e-07 0)
(42.5813 -7.69466e-07 0)
(42.5818 -7.68453e-07 0)
(42.5822 -7.6733e-07 0)
(42.5824 -7.66581e-07 0)
(42.5824 -7.63952e-07 0)
(42.5822 -7.64046e-07 0)
(42.5817 -7.61354e-07 0)
(42.581 -7.60042e-07 0)
(42.5801 -7.58505e-07 0)
(42.579 -7.57181e-07 0)
(42.5777 -7.55858e-07 0)
(42.5763 -7.54954e-07 0)
(42.5748 -7.54337e-07 0)
(42.5733 -7.54025e-07 0)
(42.5718 -7.54072e-07 0)
(42.5703 -7.5445e-07 0)
(42.5689 -7.5523e-07 0)
(42.5676 -7.56492e-07 0)
(42.5665 -7.5816e-07 0)
(42.5656 -7.59887e-07 0)
(42.565 -7.61742e-07 0)
(42.5646 -7.63513e-07 0)
(42.5645 -7.64519e-07 0)
(42.5647 -7.68128e-07 0)
(42.5651 -7.69771e-07 0)
(42.5658 -7.71856e-07 0)
(42.5668 -7.73839e-07 0)
(42.5679 -7.75629e-07 0)
(42.5692 -7.77011e-07 0)
(42.5707 -7.78189e-07 0)
(42.5723 -7.78973e-07 0)
(42.5738 -7.79457e-07 0)
(42.5754 -7.7957e-07 0)
(42.577 -7.7939e-07 0)
(42.5784 -7.7877e-07 0)
(42.5797 -7.77877e-07 0)
(42.5808 -7.76475e-07 0)
(42.5817 -7.7536e-07 0)
(42.5823 -7.73107e-07 0)
(42.5826 -7.65921e-07 0)
(42.5826 -7.94255e-07 0)
(42.5823 -7.50821e-07 0)
(42.5816 -7.5694e-07 0)
(42.5805 -7.62803e-07 0)
(42.5791 -7.56037e-07 0)
(42.5774 -7.5614e-07 0)
(42.5754 -7.53006e-07 0)
(42.5731 -7.51294e-07 0)
(42.5707 -7.50605e-07 0)
(42.5682 -7.49702e-07 0)
(42.5656 -7.49578e-07 0)
(42.5631 -7.50713e-07 0)
(42.5607 -7.5154e-07 0)
(42.5586 -7.54621e-07 0)
(42.5567 -7.56264e-07 0)
(42.5552 -7.59847e-07 0)
(42.554 -7.63535e-07 0)
(42.5533 -7.6497e-07 0)
(42.553 -7.86443e-07 0)
(42.553 -7.62667e-07 0)
(42.5535 -7.74157e-07 0)
(42.5544 -7.86383e-07 0)
(42.5555 -7.83777e-07 0)
(42.557 -7.87753e-07 0)
(42.5586 -7.88812e-07 0)
(42.5603 -7.91202e-07 0)
(42.5622 -7.91723e-07 0)
(42.5641 -7.93392e-07 0)
(42.5659 -7.92943e-07 0)
(42.5677 -7.93743e-07 0)
(42.5694 -7.92251e-07 0)
(42.5709 -7.9263e-07 0)
(42.5721 -7.89442e-07 0)
(42.573 -7.89897e-07 0)
(42.5736 -7.86284e-07 0)
(42.5737 -7.84375e-07 0)
(42.5733 -7.80963e-07 0)
(42.5723 -7.8046e-07 0)
(42.5708 -7.69665e-07 0)
(42.5687 -7.69366e-07 0)
(42.5659 -7.6259e-07 0)
(42.5626 -7.59536e-07 0)
(42.5587 -7.54834e-07 0)
(42.5543 -7.53324e-07 0)
(42.5496 -7.49271e-07 0)
(42.5446 -7.49187e-07 0)
(42.5395 -7.44999e-07 0)
(42.5345 -7.56519e-07 0)
(42.5296 -7.49133e-07 0)
(42.5251 -7.62825e-07 0)
(42.5212 -7.41725e-07 0)
(42.5179 -6.59598e-07 0)
(42.5154 -3.68483e-08 0)
(42.5135 4.70918e-06 0)
(42.5117 3.73998e-05 0)
(42.5055 0.000266988 0)
(42.4655 0.00188082 0)
(42.2841 0.0167247 0)
(39.7264 0.0869621 0)
(42.6998 0.000128296 0)
(42.6994 9.91319e-05 0)
(42.699 8.58571e-05 0)
(42.6985 8.53532e-05 0)
(42.6981 8.53386e-05 0)
(42.6976 8.49296e-05 0)
(42.6972 8.46344e-05 0)
(42.6969 8.44517e-05 0)
(42.6965 8.43206e-05 0)
(42.6962 8.42233e-05 0)
(42.696 8.41534e-05 0)
(42.6958 8.41033e-05 0)
(42.6957 8.40775e-05 0)
(42.6956 8.40645e-05 0)
(42.6955 8.40993e-05 0)
(42.6956 8.40475e-05 0)
(42.6956 8.40843e-05 0)
(42.6957 8.41094e-05 0)
(42.6959 8.41328e-05 0)
(42.6961 8.41593e-05 0)
(42.6962 8.41884e-05 0)
(42.6964 8.42181e-05 0)
(42.6966 8.42498e-05 0)
(42.6968 8.42718e-05 0)
(42.697 8.4337e-05 0)
(42.6971 8.4364e-05 0)
(42.6972 8.44069e-05 0)
(42.6972 8.44536e-05 0)
(42.6971 8.44996e-05 0)
(42.697 8.45478e-05 0)
(42.6968 8.45965e-05 0)
(42.6965 8.46435e-05 0)
(42.6961 8.46869e-05 0)
(42.6957 8.47247e-05 0)
(42.6952 8.47527e-05 0)
(42.6945 8.47661e-05 0)
(42.6938 8.47579e-05 0)
(42.6931 8.47186e-05 0)
(42.6923 8.46362e-05 0)
(42.6915 8.44842e-05 0)
(42.6906 8.42761e-05 0)
(42.6898 8.39372e-05 0)
(42.6889 8.34761e-05 0)
(42.6881 8.28457e-05 0)
(42.6874 8.20123e-05 0)
(42.6867 8.09391e-05 0)
(42.6861 7.95897e-05 0)
(42.6856 7.7931e-05 0)
(42.6852 7.59359e-05 0)
(42.6849 7.35853e-05 0)
(42.6847 7.08715e-05 0)
(42.6847 6.7797e-05 0)
(42.6847 6.43848e-05 0)
(42.6849 6.06614e-05 0)
(42.6851 5.66765e-05 0)
(42.6855 5.24833e-05 0)
(42.6859 4.81473e-05 0)
(42.6864 4.37407e-05 0)
(42.6869 3.93362e-05 0)
(42.6874 3.5006e-05 0)
(42.6879 3.0817e-05 0)
(42.6884 2.68277e-05 0)
(42.6889 2.3088e-05 0)
(42.6893 1.96353e-05 0)
(42.6896 1.6495e-05 0)
(42.6898 1.36812e-05 0)
(42.6899 1.11971e-05 0)
(42.6898 9.03301e-06 0)
(42.6896 7.17507e-06 0)
(42.6893 5.60275e-06 0)
(42.6888 4.2913e-06 0)
(42.6881 3.20988e-06 0)
(42.6874 2.33125e-06 0)
(42.6865 1.62628e-06 0)
(42.6855 1.06787e-06 0)
(42.6844 6.31095e-07 0)
(42.6833 2.93519e-07 0)
(42.6821 3.78491e-08 0)
(42.6809 -1.56668e-07 0)
(42.6798 -3.0097e-07 0)
(42.6787 -4.0747e-07 0)
(42.6777 -4.85415e-07 0)
(42.6768 -5.41928e-07 0)
(42.676 -5.82841e-07 0)
(42.6754 -6.12298e-07 0)
(42.675 -6.33591e-07 0)
(42.6747 -6.49082e-07 0)
(42.6746 -6.60705e-07 0)
(42.6748 -6.68511e-07 0)
(42.6751 -6.74996e-07 0)
(42.6756 -6.8039e-07 0)
(42.6762 -6.84408e-07 0)
(42.677 -6.87235e-07 0)
(42.678 -6.89668e-07 0)
(42.679 -6.91292e-07 0)
(42.6801 -6.92396e-07 0)
(42.6812 -6.92985e-07 0)
(42.6823 -6.93187e-07 0)
(42.6833 -6.93042e-07 0)
(42.6843 -6.92281e-07 0)
(42.6852 -6.91039e-07 0)
(42.686 -6.89193e-07 0)
(42.6865 -6.86919e-07 0)
(42.6869 -6.8446e-07 0)
(42.6871 -6.82589e-07 0)
(42.6871 -6.77837e-07 0)
(42.6868 -6.76914e-07 0)
(42.6863 -6.7238e-07 0)
(42.6856 -6.69471e-07 0)
(42.6847 -6.66466e-07 0)
(42.6836 -6.63869e-07 0)
(42.6823 -6.61288e-07 0)
(42.6809 -6.5947e-07 0)
(42.6794 -6.58151e-07 0)
(42.6778 -6.57388e-07 0)
(42.6762 -6.5731e-07 0)
(42.6747 -6.57878e-07 0)
(42.6733 -6.59213e-07 0)
(42.672 -6.61379e-07 0)
(42.6709 -6.64207e-07 0)
(42.67 -6.67183e-07 0)
(42.6694 -6.70479e-07 0)
(42.669 -6.7369e-07 0)
(42.6689 -6.75653e-07 0)
(42.669 -6.81948e-07 0)
(42.6695 -6.84945e-07 0)
(42.6701 -6.88385e-07 0)
(42.6711 -6.91673e-07 0)
(42.6722 -6.94546e-07 0)
(42.6735 -6.96667e-07 0)
(42.6749 -6.9836e-07 0)
(42.6765 -6.99304e-07 0)
(42.678 -6.99602e-07 0)
(42.6796 -6.99211e-07 0)
(42.6811 -6.98255e-07 0)
(42.6826 -6.96464e-07 0)
(42.6839 -6.94212e-07 0)
(42.685 -6.90997e-07 0)
(42.6858 -6.88162e-07 0)
(42.6864 -6.83038e-07 0)
(42.6867 -6.70815e-07 0)
(42.6867 -7.21121e-07 0)
(42.6863 -6.42447e-07 0)
(42.6856 -6.49741e-07 0)
(42.6845 -6.62833e-07 0)
(42.6831 -6.49198e-07 0)
(42.6814 -6.49847e-07 0)
(42.6793 -6.42847e-07 0)
(42.6771 -6.42509e-07 0)
(42.6746 -6.36688e-07 0)
(42.6721 -6.36548e-07 0)
(42.6695 -6.35949e-07 0)
(42.667 -6.38505e-07 0)
(42.6646 -6.39122e-07 0)
(42.6624 -6.44894e-07 0)
(42.6605 -6.47757e-07 0)
(42.659 -6.54059e-07 0)
(42.6578 -6.60132e-07 0)
(42.6571 -6.59726e-07 0)
(42.6567 -7.28981e-07 0)
(42.6568 -6.36141e-07 0)
(42.6573 -6.68011e-07 0)
(42.6581 -7.10733e-07 0)
(42.6592 -6.92865e-07 0)
(42.6606 -7.04483e-07 0)
(42.6623 -7.02121e-07 0)
(42.664 -7.07825e-07 0)
(42.6658 -7.07483e-07 0)
(42.6677 -7.10191e-07 0)
(42.6696 -7.06871e-07 0)
(42.6713 -7.09212e-07 0)
(42.673 -7.0344e-07 0)
(42.6744 -7.06154e-07 0)
(42.6756 -6.94773e-07 0)
(42.6766 -6.98697e-07 0)
(42.6771 -6.88186e-07 0)
(42.6772 -6.85644e-07 0)
(42.6768 -6.74106e-07 0)
(42.6758 -6.80389e-07 0)
(42.6743 -6.48475e-07 0)
(42.6721 -6.54037e-07 0)
(42.6693 -6.37282e-07 0)
(42.666 -6.34087e-07 0)
(42.6621 -6.22525e-07 0)
(42.6577 -6.22974e-07 0)
(42.653 -6.11813e-07 0)
(42.648 -6.12531e-07 0)
(42.6428 -5.98632e-07 0)
(42.6378 -6.08438e-07 0)
(42.6329 -5.95656e-07 0)
(42.6284 -6.17817e-07 0)
(42.6245 -5.20205e-07 0)
(42.6212 2.45078e-08 0)
(42.6186 3.99629e-06 0)
(42.6168 3.24906e-05 0)
(42.6149 0.000228722 0)
(42.6088 0.00159834 0)
(42.57 0.0110605 0)
(42.3936 0.0789605 0)
(40.4071 0.375072 0)
(42.6998 -1.773e-12 0)
(42.6994 -1.29497e-12 0)
(42.6989 -2.59282e-13 0)
(42.6985 1.79255e-12 0)
(42.698 2.39794e-12 0)
(42.6976 -2.87522e-13 0)
(42.6972 -3.80606e-12 0)
(42.6968 -6.13779e-12 0)
(42.6965 -7.2486e-12 0)
(42.6962 -7.62896e-12 0)
(42.696 -8.83128e-12 0)
(42.6958 -1.14813e-11 0)
(42.6956 -1.19237e-11 0)
(42.6955 -1.14215e-11 0)
(42.6955 -1.04318e-11 0)
(42.6955 -9.6231e-12 0)
(42.6956 -9.12655e-12 0)
(42.6957 -8.95416e-12 0)
(42.6959 -8.53998e-12 0)
(42.696 -7.76211e-12 0)
(42.6962 -9.09441e-12 0)
(42.6964 -9.72022e-12 0)
(42.6966 -1.04621e-11 0)
(42.6968 -1.06133e-11 0)
(42.697 -1.10771e-11 0)
(42.6971 -1.07527e-11 0)
(42.6972 -9.10418e-12 0)
(42.6972 -6.55572e-12 0)
(42.6971 -5.0966e-12 0)
(42.697 -4.92902e-12 0)
(42.6968 -6.87914e-12 0)
(42.6965 -9.24376e-12 0)
(42.6961 -1.04661e-11 0)
(42.6957 -1.0922e-11 0)
(42.6951 -1.17757e-11 0)
(42.6945 -1.23029e-11 0)
(42.6938 -1.33029e-11 0)
(42.6931 -1.40828e-11 0)
(42.6923 -1.36738e-11 0)
(42.6915 -1.29282e-11 0)
(42.6906 -1.22312e-11 0)
(42.6898 -1.18685e-11 0)
(42.6889 -1.35155e-11 0)
(42.6881 -1.52464e-11 0)
(42.6874 -1.81032e-11 0)
(42.6867 -1.96699e-11 0)
(42.6861 -2.16105e-11 0)
(42.6856 -2.23469e-11 0)
(42.6852 -2.1555e-11 0)
(42.6849 -2.04408e-11 0)
(42.6847 -1.94786e-11 0)
(42.6847 -1.82754e-11 0)
(42.6847 -1.67297e-11 0)
(42.6849 -1.55746e-11 0)
(42.6852 -1.45888e-11 0)
(42.6855 -1.54376e-11 0)
(42.6859 -1.6616e-11 0)
(42.6864 -1.77355e-11 0)
(42.6869 -1.81982e-11 0)
(42.6874 -1.90802e-11 0)
(42.688 -1.87668e-11 0)
(42.6885 -1.81161e-11 0)
(42.6889 -1.8613e-11 0)
(42.6893 -1.82446e-11 0)
(42.6896 -1.74317e-11 0)
(42.6898 -1.6514e-11 0)
(42.6899 -1.6204e-11 0)
(42.6898 -1.48623e-11 0)
(42.6896 -1.33085e-11 0)
(42.6893 -1.0668e-11 0)
(42.6888 -8.31424e-12 0)
(42.6882 -6.08347e-12 0)
(42.6874 -4.53809e-12 0)
(42.6865 -2.93126e-12 0)
(42.6855 -1.75528e-12 0)
(42.6844 -3.44288e-13 0)
(42.6833 2.46837e-12 0)
(42.6821 4.37471e-12 0)
(42.681 5.4218e-12 0)
(42.6798 4.80992e-12 0)
(42.6787 2.47606e-12 0)
(42.6777 5.92325e-13 0)
(42.6768 -3.88735e-12 0)
(42.676 -6.65502e-12 0)
(42.6754 -8.43459e-12 0)
(42.675 -1.13071e-11 0)
(42.6747 -1.42176e-11 0)
(42.6747 -1.66649e-11 0)
(42.6748 -1.70083e-11 0)
(42.6751 -1.66921e-11 0)
(42.6756 -1.65635e-11 0)
(42.6762 -1.50258e-11 0)
(42.6771 -1.54106e-11 0)
(42.678 -1.4261e-11 0)
(42.679 -1.41744e-11 0)
(42.6801 -1.4004e-11 0)
(42.6812 -1.39719e-11 0)
(42.6823 -1.37207e-11 0)
(42.6834 -1.33504e-11 0)
(42.6843 -1.11838e-11 0)
(42.6852 -1.13598e-11 0)
(42.686 -1.23435e-11 0)
(42.6866 -1.23537e-11 0)
(42.6869 -1.2921e-11 0)
(42.6871 -1.25879e-11 0)
(42.6871 -1.25941e-11 0)
(42.6868 -1.27628e-11 0)
(42.6863 -1.15878e-11 0)
(42.6856 -1.23423e-11 0)
(42.6847 -1.30645e-11 0)
(42.6836 -1.34601e-11 0)
(42.6823 -1.19565e-11 0)
(42.6809 -8.83302e-12 0)
(42.6794 -6.39593e-12 0)
(42.6778 -6.11127e-12 0)
(42.6763 -8.04163e-12 0)
(42.6748 -9.99224e-12 0)
(42.6733 -1.28632e-11 0)
(42.6721 -1.52109e-11 0)
(42.671 -1.59514e-11 0)
(42.6701 -1.53873e-11 0)
(42.6694 -1.53266e-11 0)
(42.669 -1.56448e-11 0)
(42.6689 -1.69887e-11 0)
(42.6691 -1.41723e-11 0)
(42.6695 -1.04779e-11 0)
(42.6702 -1.01777e-11 0)
(42.6711 -9.15044e-12 0)
(42.6722 -8.73819e-12 0)
(42.6735 -5.64651e-12 0)
(42.675 -5.81937e-12 0)
(42.6765 1.53773e-14 0)
(42.6781 -6.12788e-12 0)
(42.6796 6.35116e-12 0)
(42.6812 -1.41003e-11 0)
(42.6826 3.51419e-11 0)
(42.6839 -6.79411e-11 0)
(42.685 9.22066e-11 0)
(42.6858 -1.93454e-10 0)
(42.6864 6.59041e-10 0)
(42.6867 4.68147e-09 0)
(42.6867 -3.19579e-08 0)
(42.6864 1.77721e-08 0)
(42.6856 1.21937e-08 0)
(42.6846 -5.41927e-09 0)
(42.6831 3.42721e-09 0)
(42.6814 -3.23744e-09 0)
(42.6794 2.21383e-09 0)
(42.6771 -3.78344e-09 0)
(42.6747 3.88091e-09 0)
(42.6721 -9.71421e-10 0)
(42.6695 1.80336e-09 0)
(42.667 -2.57726e-09 0)
(42.6646 2.67372e-09 0)
(42.6624 -1.39755e-09 0)
(42.6606 1.06134e-09 0)
(42.659 3.53142e-10 0)
(42.6578 2.19175e-09 0)
(42.6571 2.92461e-08 0)
(42.6568 -1.80971e-07 0)
(42.6568 2.01631e-07 0)
(42.6573 -3.18702e-08 0)
(42.6581 -5.2876e-08 0)
(42.6593 2.09686e-08 0)
(42.6607 -1.60055e-08 0)
(42.6623 1.02376e-08 0)
(42.664 -6.81146e-09 0)
(42.6659 2.51506e-09 0)
(42.6677 -6.38325e-09 0)
(42.6696 7.03023e-09 0)
(42.6713 -8.61235e-09 0)
(42.673 1.19429e-08 0)
(42.6745 -9.58023e-09 0)
(42.6757 7.48589e-09 0)
(42.6766 -9.25394e-09 0)
(42.6771 3.26797e-09 0)
(42.6772 -1.23624e-08 0)
(42.6768 -1.87457e-08 0)
(42.6758 6.14022e-08 0)
(42.6743 -2.7913e-08 0)
(42.6721 -4.30401e-08 0)
(42.6694 1.45936e-08 0)
(42.666 -1.27404e-08 0)
(42.6621 1.19569e-08 0)
(42.6577 -1.74983e-08 0)
(42.653 -5.98059e-09 0)
(42.648 -2.20569e-08 0)
(42.6429 4.37429e-10 0)
(42.6378 -2.27295e-08 0)
(42.6329 2.73604e-08 0)
(42.6284 1.73133e-09 0)
(42.6245 2.1609e-07 0)
(42.6212 1.31104e-06 0)
(42.6187 8.80427e-06 0)
(42.6169 6.71045e-05 0)
(42.6158 0.000464549 0)
(42.6152 0.00329319 0)
(42.6131 0.0231126 0)
(42.5963 0.162644 0)
(42.4423 0.746481 0)
(42.6998 -0.000128296 0)
(42.6994 -9.91319e-05 0)
(42.699 -8.58571e-05 0)
(42.6985 -8.53532e-05 0)
(42.6981 -8.53386e-05 0)
(42.6976 -8.49296e-05 0)
(42.6972 -8.46344e-05 0)
(42.6969 -8.44517e-05 0)
(42.6965 -8.43206e-05 0)
(42.6962 -8.42233e-05 0)
(42.696 -8.41534e-05 0)
(42.6958 -8.41033e-05 0)
(42.6957 -8.40775e-05 0)
(42.6956 -8.40645e-05 0)
(42.6955 -8.40992e-05 0)
(42.6956 -8.40475e-05 0)
(42.6956 -8.40843e-05 0)
(42.6957 -8.41094e-05 0)
(42.6959 -8.41328e-05 0)
(42.6961 -8.41593e-05 0)
(42.6962 -8.41884e-05 0)
(42.6964 -8.42181e-05 0)
(42.6966 -8.42498e-05 0)
(42.6968 -8.42718e-05 0)
(42.697 -8.4337e-05 0)
(42.6971 -8.4364e-05 0)
(42.6972 -8.44069e-05 0)
(42.6972 -8.44536e-05 0)
(42.6971 -8.44996e-05 0)
(42.697 -8.45478e-05 0)
(42.6968 -8.45965e-05 0)
(42.6965 -8.46435e-05 0)
(42.6961 -8.46869e-05 0)
(42.6957 -8.47247e-05 0)
(42.6952 -8.47527e-05 0)
(42.6945 -8.47661e-05 0)
(42.6938 -8.47579e-05 0)
(42.6931 -8.47186e-05 0)
(42.6923 -8.46362e-05 0)
(42.6915 -8.44842e-05 0)
(42.6906 -8.42761e-05 0)
(42.6898 -8.39372e-05 0)
(42.6889 -8.34761e-05 0)
(42.6881 -8.28457e-05 0)
(42.6874 -8.20123e-05 0)
(42.6867 -8.09391e-05 0)
(42.6861 -7.95897e-05 0)
(42.6856 -7.7931e-05 0)
(42.6852 -7.59359e-05 0)
(42.6849 -7.35853e-05 0)
(42.6847 -7.08715e-05 0)
(42.6847 -6.7797e-05 0)
(42.6847 -6.43848e-05 0)
(42.6849 -6.06614e-05 0)
(42.6851 -5.66765e-05 0)
(42.6855 -5.24833e-05 0)
(42.6859 -4.81473e-05 0)
(42.6864 -4.37407e-05 0)
(42.6869 -3.93362e-05 0)
(42.6874 -3.5006e-05 0)
(42.6879 -3.0817e-05 0)
(42.6884 -2.68277e-05 0)
(42.6889 -2.3088e-05 0)
(42.6893 -1.96353e-05 0)
(42.6896 -1.6495e-05 0)
(42.6898 -1.36812e-05 0)
(42.6899 -1.11971e-05 0)
(42.6898 -9.03301e-06 0)
(42.6896 -7.17506e-06 0)
(42.6893 -5.60275e-06 0)
(42.6888 -4.2913e-06 0)
(42.6881 -3.20988e-06 0)
(42.6874 -2.33125e-06 0)
(42.6865 -1.62628e-06 0)
(42.6855 -1.06787e-06 0)
(42.6844 -6.31094e-07 0)
(42.6833 -2.93519e-07 0)
(42.6821 -3.7853e-08 0)
(42.6809 1.5667e-07 0)
(42.6798 3.00975e-07 0)
(42.6787 4.07474e-07 0)
(42.6777 4.85418e-07 0)
(42.6768 5.41929e-07 0)
(42.676 5.82842e-07 0)
(42.6754 6.12302e-07 0)
(42.675 6.33594e-07 0)
(42.6747 6.49089e-07 0)
(42.6746 6.6071e-07 0)
(42.6748 6.68515e-07 0)
(42.6751 6.75001e-07 0)
(42.6756 6.8039e-07 0)
(42.6762 6.84412e-07 0)
(42.677 6.87238e-07 0)
(42.678 6.89672e-07 0)
(42.679 6.91295e-07 0)
(42.6801 6.92398e-07 0)
(42.6812 6.92987e-07 0)
(42.6823 6.93187e-07 0)
(42.6833 6.93041e-07 0)
(42.6843 6.92281e-07 0)
(42.6852 6.91036e-07 0)
(42.686 6.8919e-07 0)
(42.6865 6.8692e-07 0)
(42.6869 6.84461e-07 0)
(42.6871 6.82591e-07 0)
(42.6871 6.7784e-07 0)
(42.6868 6.76916e-07 0)
(42.6863 6.72381e-07 0)
(42.6856 6.69473e-07 0)
(42.6847 6.6647e-07 0)
(42.6836 6.63864e-07 0)
(42.6823 6.61285e-07 0)
(42.6809 6.59466e-07 0)
(42.6794 6.58146e-07 0)
(42.6778 6.57384e-07 0)
(42.6762 6.57306e-07 0)
(42.6747 6.57881e-07 0)
(42.6733 6.59218e-07 0)
(42.672 6.61385e-07 0)
(42.6709 6.64208e-07 0)
(42.67 6.67182e-07 0)
(42.6694 6.70483e-07 0)
(42.669 6.73697e-07 0)
(42.6689 6.75654e-07 0)
(42.669 6.81953e-07 0)
(42.6695 6.84951e-07 0)
(42.6701 6.88385e-07 0)
(42.6711 6.91676e-07 0)
(42.6722 6.94546e-07 0)
(42.6735 6.96674e-07 0)
(42.6749 6.98361e-07 0)
(42.6765 6.99313e-07 0)
(42.678 6.99596e-07 0)
(42.6796 6.99225e-07 0)
(42.6811 6.98226e-07 0)
(42.6826 6.96532e-07 0)
(42.6839 6.9409e-07 0)
(42.685 6.91196e-07 0)
(42.6858 6.87771e-07 0)
(42.6864 6.84095e-07 0)
(42.6867 6.81399e-07 0)
(42.6867 6.61311e-07 0)
(42.6863 6.77312e-07 0)
(42.6856 6.69641e-07 0)
(42.6845 6.54367e-07 0)
(42.6831 6.54877e-07 0)
(42.6814 6.45638e-07 0)
(42.6793 6.45926e-07 0)
(42.6771 6.38655e-07 0)
(42.6746 6.40782e-07 0)
(42.6721 6.35059e-07 0)
(42.6695 6.38268e-07 0)
(42.667 6.35217e-07 0)
(42.6646 6.42474e-07 0)
(42.6624 6.4241e-07 0)
(42.6605 6.49472e-07 0)
(42.659 6.5446e-07 0)
(42.6578 6.62855e-07 0)
(42.6571 6.99339e-07 0)
(42.6567 4.85473e-07 0)
(42.6568 9.05367e-07 0)
(42.6573 6.34086e-07 0)
(42.6581 6.43687e-07 0)
(42.6592 7.20863e-07 0)
(42.6606 6.8519e-07 0)
(42.6623 7.1564e-07 0)
(42.664 6.99712e-07 0)
(42.6658 7.11692e-07 0)
(42.6677 7.01425e-07 0)
(42.6696 7.17311e-07 0)
(42.6713 6.97666e-07 0)
(42.673 7.19267e-07 0)
(42.6744 6.93257e-07 0)
(42.6756 7.06778e-07 0)
(42.6766 6.871e-07 0)
(42.6771 6.95496e-07 0)
(42.6772 6.71855e-07 0)
(42.6768 6.52361e-07 0)
(42.6758 7.62517e-07 0)
(42.6743 6.17851e-07 0)
(42.6721 6.02191e-07 0)
(42.6693 6.60346e-07 0)
(42.666 6.20583e-07 0)
(42.6621 6.40473e-07 0)
(42.6577 6.03125e-07 0)
(42.653 6.13209e-07 0)
(42.648 5.87807e-07 0)
(42.6428 6.1627e-07 0)
(42.6378 5.73586e-07 0)
(42.6329 6.42033e-07 0)
(42.6284 6.07643e-07 0)
(42.6245 7.99158e-07 0)
(42.6212 1.55066e-06 0)
(42.6187 6.42019e-06 0)
(42.6171 4.76286e-05 0)
(42.6172 0.00032486 0)
(42.6247 0.00233459 0)
(42.6817 0.0168357 0)
(42.8933 0.137615 0)
(46.103 0.581543 0)
(42.6981 -0.000101131 0)
(42.6959 -9.259e-05 0)
(42.6936 -8.99104e-05 0)
(42.6914 -9.08475e-05 0)
(42.6891 -9.15711e-05 0)
(42.6869 -9.19744e-05 0)
(42.6847 -9.22826e-05 0)
(42.6826 -9.25285e-05 0)
(42.6805 -9.27199e-05 0)
(42.6784 -9.28704e-05 0)
(42.6763 -9.29924e-05 0)
(42.6744 -9.30919e-05 0)
(42.6724 -9.31807e-05 0)
(42.6705 -9.32583e-05 0)
(42.6687 -9.33524e-05 0)
(42.667 -9.33778e-05 0)
(42.6652 -9.34465e-05 0)
(42.6636 -9.35037e-05 0)
(42.6619 -9.35536e-05 0)
(42.6603 -9.36e-05 0)
(42.6587 -9.36438e-05 0)
(42.6571 -9.3685e-05 0)
(42.6555 -9.37255e-05 0)
(42.6539 -9.3758e-05 0)
(42.6522 -9.38179e-05 0)
(42.6506 -9.38525e-05 0)
(42.6488 -9.38966e-05 0)
(42.6471 -9.39441e-05 0)
(42.6452 -9.39914e-05 0)
(42.6433 -9.40398e-05 0)
(42.6413 -9.40875e-05 0)
(42.6392 -9.41329e-05 0)
(42.637 -9.41739e-05 0)
(42.6347 -9.42081e-05 0)
(42.6324 -9.42311e-05 0)
(42.63 -9.42375e-05 0)
(42.6275 -9.42198e-05 0)
(42.6249 -9.41673e-05 0)
(42.6223 -9.40668e-05 0)
(42.6197 -9.38945e-05 0)
(42.617 -9.36488e-05 0)
(42.6144 -9.32683e-05 0)
(42.6118 -9.27482e-05 0)
(42.6092 -9.20427e-05 0)
(42.6067 -9.11128e-05 0)
(42.6043 -8.9918e-05 0)
(42.602 -8.84182e-05 0)
(42.5998 -8.6577e-05 0)
(42.5977 -8.43641e-05 0)
(42.5959 -8.17586e-05 0)
(42.5941 -7.87515e-05 0)
(42.5926 -7.53462e-05 0)
(42.5913 -7.1566e-05 0)
(42.5901 -6.74414e-05 0)
(42.5891 -6.30251e-05 0)
(42.5883 -5.83797e-05 0)
(42.5876 -5.35719e-05 0)
(42.5871 -4.86851e-05 0)
(42.5867 -4.37988e-05 0)
(42.5865 -3.89925e-05 0)
(42.5863 -3.43404e-05 0)
(42.5862 -2.9908e-05 0)
(42.5861 -2.57502e-05 0)
(42.5861 -2.19092e-05 0)
(42.586 -1.84136e-05 0)
(42.5859 -1.52794e-05 0)
(42.5857 -1.25101e-05 0)
(42.5854 -1.00966e-05 0)
(42.585 -8.02342e-06 0)
(42.5845 -6.26756e-06 0)
(42.5839 -4.80093e-06 0)
(42.5832 -3.59147e-06 0)
(42.5824 -2.60825e-06 0)
(42.5815 -1.81886e-06 0)
(42.5805 -1.19326e-06 0)
(42.5794 -7.03704e-07 0)
(42.5782 -3.24596e-07 0)
(42.5771 -3.76587e-08 0)
(42.5759 1.83167e-07 0)
(42.5748 3.46177e-07 0)
(42.5737 4.65819e-07 0)
(42.5727 5.52833e-07 0)
(42.5718 6.15453e-07 0)
(42.571 6.60246e-07 0)
(42.5704 6.92039e-07 0)
(42.57 7.14552e-07 0)
(42.5698 7.30505e-07 0)
(42.5697 7.41961e-07 0)
(42.5699 7.49798e-07 0)
(42.5702 7.55364e-07 0)
(42.5707 7.60037e-07 0)
(42.5714 7.63269e-07 0)
(42.5722 7.65515e-07 0)
(42.5731 7.67369e-07 0)
(42.5742 7.68647e-07 0)
(42.5753 7.6954e-07 0)
(42.5764 7.70114e-07 0)
(42.5775 7.70478e-07 0)
(42.5786 7.70708e-07 0)
(42.5796 7.70597e-07 0)
(42.5805 7.70218e-07 0)
(42.5813 7.69466e-07 0)
(42.5818 7.68452e-07 0)
(42.5822 7.67331e-07 0)
(42.5824 7.66578e-07 0)
(42.5824 7.63948e-07 0)
(42.5822 7.64045e-07 0)
(42.5817 7.61357e-07 0)
(42.581 7.6004e-07 0)
(42.5801 7.58525e-07 0)
(42.579 7.57195e-07 0)
(42.5777 7.55864e-07 0)
(42.5763 7.5496e-07 0)
(42.5748 7.54341e-07 0)
(42.5733 7.54028e-07 0)
(42.5718 7.54073e-07 0)
(42.5703 7.54446e-07 0)
(42.5689 7.55228e-07 0)
(42.5676 7.56489e-07 0)
(42.5665 7.58161e-07 0)
(42.5656 7.59888e-07 0)
(42.565 7.61737e-07 0)
(42.5646 7.63504e-07 0)
(42.5645 7.64514e-07 0)
(42.5647 7.68128e-07 0)
(42.5651 7.69771e-07 0)
(42.5658 7.71856e-07 0)
(42.5668 7.73835e-07 0)
(42.5679 7.75623e-07 0)
(42.5692 7.77013e-07 0)
(42.5707 7.78184e-07 0)
(42.5723 7.78975e-07 0)
(42.5738 7.79451e-07 0)
(42.5754 7.7958e-07 0)
(42.577 7.79378e-07 0)
(42.5784 7.78806e-07 0)
(42.5797 7.77825e-07 0)
(42.5808 7.76589e-07 0)
(42.5817 7.7517e-07 0)
(42.5823 7.73518e-07 0)
(42.5826 7.7184e-07 0)
(42.5826 7.66417e-07 0)
(42.5823 7.67938e-07 0)
(42.5816 7.64648e-07 0)
(42.5805 7.5977e-07 0)
(42.5791 7.58287e-07 0)
(42.5774 7.55177e-07 0)
(42.5754 7.53883e-07 0)
(42.5731 7.51235e-07 0)
(42.5707 7.50835e-07 0)
(42.5682 7.49202e-07 0)
(42.5656 7.50112e-07 0)
(42.5631 7.50015e-07 0)
(42.5607 7.5223e-07 0)
(42.5586 7.53544e-07 0)
(42.5567 7.56927e-07 0)
(42.5552 7.59897e-07 0)
(42.554 7.64072e-07 0)
(42.5533 7.75344e-07 0)
(42.553 7.23906e-07 0)
(42.553 8.30293e-07 0)
(42.5535 7.72078e-07 0)
(42.5544 7.72262e-07 0)
(42.5555 7.90792e-07 0)
(42.557 7.84473e-07 0)
(42.5586 7.92079e-07 0)
(42.5603 7.89902e-07 0)
(42.5622 7.93412e-07 0)
(42.5641 7.9101e-07 0)
(42.5659 7.96355e-07 0)
(42.5677 7.90814e-07 0)
(42.5694 7.96148e-07 0)
(42.5709 7.89318e-07 0)
(42.5721 7.93974e-07 0)
(42.573 7.87561e-07 0)
(42.5736 7.90341e-07 0)
(42.5737 7.82954e-07 0)
(42.5733 7.77969e-07 0)
(42.5723 8.01188e-07 0)
(42.5708 7.66937e-07 0)
(42.5687 7.60583e-07 0)
(42.5659 7.71054e-07 0)
(42.5626 7.58781e-07 0)
(42.5587 7.60816e-07 0)
(42.5543 7.50974e-07 0)
(42.5496 7.56652e-07 0)
(42.5446 7.46549e-07 0)
(42.5395 7.62191e-07 0)
(42.5345 7.44441e-07 0)
(42.5296 7.6812e-07 0)
(42.5251 7.50982e-07 0)
(42.5212 8.04645e-07 0)
(42.5179 9.24393e-07 0)
(42.5155 1.65307e-06 0)
(42.5139 8.33491e-06 0)
(42.514 5.1847e-05 0)
(42.5218 0.000374656 0)
(42.5823 0.0029389 0)
(42.8129 0.0402051 0)
(48.1768 0.164845 0)
(38.295 1.29943 -3.15893e-15)
(37.2021 3.72784 6.33676e-15)
(36.7749 6.49514 -1.18802e-14)
(36.3578 9.2984 2.4547e-14)
(35.7069 12.0789 -2.53226e-14)
(34.8962 14.8476 -1.58069e-15)
(34.06 17.6695 8.38398e-20)
(33.0979 20.5285 -2.20442e-14)
(31.6943 23.1679 -1.02339e-13)
(29.6996 25.3697 1.00765e-13)
(27.2532 27.0908 -2.52292e-14)
(24.6236 28.5577 -5.21643e-14)
(22.4842 30.6602 2.67888e-14)
(21.1546 34.2831 0)
(20.0068 39.2394 2.4602e-14)
(18.1803 44.1964 2.4362e-14)
(15.3338 47.303 -2.43264e-14)
(11.7638 48.023 2.43241e-14)
(8.07705 47.3987 1.90647e-16)
(4.54684 47.2738 -1.90276e-16)
(39.5157 2.05715 0)
(38.8634 5.01275 0)
(38.4409 8.27119 -1.60817e-15)
(37.9108 11.5095 -3.21298e-15)
(37.1215 14.6851 8.0217e-15)
(36.1547 17.7931 1.60107e-14)
(35.1546 20.907 0)
(33.9143 24.2074 9.55316e-15)
(32.0275 27.4979 1.59282e-14)
(29.4547 30.2904 -3.81892e-14)
(26.3931 32.4445 2.54691e-14)
(23.3368 33.8587 1.27667e-14)
(21.5247 34.9512 -1.27301e-14)
(20.7325 37.2991 1.25744e-14)
(19.6507 41.4768 0)
(17.0032 46.7676 -1.53409e-15)
(12.4196 51.2645 1.53378e-15)
(7.24099 53.0876 -5.36303e-15)
(2.20867 52.9429 -7.65995e-16)
(-0.74735 51.7284 0)
(42.3929 1.6442 -4.09678e-17)
(42.3925 2.71373 -2.08206e-14)
(42.4943 3.80052 2.11457e-14)
(42.6811 4.88078 -2.03241e-14)
(42.9023 6.02642 -2.22927e-14)
(43.1128 7.30867 8.29776e-14)
(43.2774 8.75209 -4.20078e-14)
(43.4095 10.3376 4.07232e-14)
(43.5284 12.0917 -8.28288e-14)
(43.5486 14.1284 1.32254e-15)
(43.3418 16.4942 4.07809e-14)
(42.7617 19.1713 0)
(41.5829 22.0591 -4.0796e-14)
(39.8662 24.8298 4.08455e-14)
(38.1043 27.1791 -3.29882e-16)
(36.8475 29.1232 0)
(36.18 31.0486 3.31432e-16)
(35.5122 33.3391 0)
(34.3704 35.9509 0)
(32.8083 38.6872 0)
(46.6558 2.64401 6.25833e-16)
(46.3842 6.06992 -6.27901e-15)
(45.3531 10.1451 -1.25847e-15)
(44.1303 14.3307 2.51465e-15)
(43.0163 18.4605 -2.5039e-15)
(41.9509 22.5254 -4.96527e-19)
(40.7614 26.5196 -9.89851e-15)
(39.2882 30.3983 0)
(37.4921 34.1447 0)
(35.3765 37.7505 -4.86913e-15)
(32.9192 41.1657 4.84497e-15)
(30.1399 44.3822 0)
(27.0427 47.352 -4.79844e-15)
(23.6511 50.048 4.78141e-15)
(19.9875 52.4482 -4.76428e-15)
(16.0681 54.5186 9.49709e-15)
(11.9184 56.2128 -4.73847e-15)
(7.60831 57.4899 0)
(3.25233 58.3604 -2.3579e-15)
(-0.716683 58.7943 0)
(49.658 1.82014 -9.54475e-16)
(50.6379 4.66401 7.31663e-15)
(50.3344 8.08231 5.09015e-15)
(49.5023 11.666 1.01735e-14)
(48.6558 15.3832 0)
(47.8201 19.2351 0)
(46.8539 23.169 1.00724e-14)
(45.6244 27.1014 2.50663e-15)
(44.0635 31.0099 -4.99043e-15)
(42.1743 34.8281 2.48484e-15)
(39.9198 38.5194 1.97944e-14)
(37.3187 42.0354 -1.23243e-14)
(34.3727 45.3331 1.22848e-14)
(31.1014 48.3706 -2.44868e-15)
(27.5374 51.0966 -9.77041e-15)
(23.7158 53.4435 -1.70719e-14)
(19.6755 55.3346 -8.52915e-15)
(15.4566 56.6878 -1.21856e-15)
(11.1401 57.3733 7.01385e-15)
(6.99235 57.056 3.05902e-16)
(1.47036 52.7883 0)
(0.920366 57.5025 0)
(1.00552 59.6107 0)
(1.08567 59.3922 0)
(1.09744 58.7373 0)
(1.08261 58.6518 0)
(1.06416 58.9318 0)
(1.07287 59.1112 0)
(1.07797 59.0947 0)
(1.07819 59.0353 0)
(1.07609 59.0146 0)
(1.07335 59.0257 0)
(1.07274 59.039 0)
(1.07244 59.0382 0)
(1.07176 59.03 0)
(1.07076 59.0203 0)
(1.06957 59.0081 0)
(1.06814 58.9918 0)
(1.06642 58.9708 0)
(1.06441 58.9454 0)
(1.06215 58.9166 0)
(1.05969 58.8853 0)
(1.05711 58.8524 0)
(1.05448 58.8186 0)
(1.05187 58.7844 0)
(1.04933 58.7504 0)
(1.04691 58.7172 0)
(1.04464 58.6852 0)
(1.04256 58.6547 0)
(1.04068 58.6261 0)
(1.03899 58.5996 0)
(1.03748 58.5753 0)
(1.03612 58.5534 0)
(1.03488 58.5338 0)
(1.03373 58.5163 0)
(1.03262 58.5006 0)
(1.03153 58.4863 0)
(1.03041 58.4729 0)
(1.02925 58.4598 0)
(1.02804 58.4464 0)
(1.02677 58.4322 0)
(1.0254 58.4167 0)
(1.02391 58.4 0)
(1.02208 58.3839 0)
(1.01926 58.3754 0)
(1.01406 58.3934 0)
(1.00935 58.4451 0)
(1.00784 58.504 0)
(1.00905 58.5385 0)
(1.01012 58.5393 0)
(1.00909 58.5188 0)
(1.0058 58.4935 0)
(1.00046 58.4703 0)
(0.993122 58.4491 0)
(0.983647 58.4291 0)
(0.971816 58.4092 0)
(0.957365 58.3882 0)
(0.940018 58.3647 0)
(0.919524 58.3365 0)
(0.895675 58.3015 0)
(0.868339 58.2567 0)
(0.837496 58.1991 0)
(0.803256 58.1256 0)
(0.765867 58.0326 0)
(0.725716 57.917 0)
(0.683309 57.7759 0)
(0.639238 57.6066 0)
(0.594155 57.4069 0)
(0.548716 57.1744 0)
(0.503535 56.9063 0)
(0.459162 56.5982 0)
(0.416037 56.2442 0)
(0.374484 55.8367 0)
(0.334712 55.3665 0)
(0.29681 54.8244 0)
(0.260789 54.2015 0)
(0.226859 53.4918 0)
(0.194925 52.6947 0)
(0.165254 51.8161 0)
(0.138147 50.8703 0)
(0.113921 49.8799 0)
(0.0926602 48.8748 0)
(0.0746259 47.8884 0)
(0.0597099 46.9528 0)
(0.0475913 46.0956 0)
(0.0379208 45.3358 0)
(0.0302689 44.6829 0)
(0.0242114 44.1373 0)
(0.0193921 43.6925 0)
(0.015511 43.3376 0)
(0.012365 43.0594 0)
(0.00980147 42.8445 0)
(0.0077114 42.6805 0)
(0.00601388 42.5563 0)
(0.00464503 42.4629 0)
(0.00355049 42.3928 0)
(0.0026862 42.34 0)
(0.00201087 42.3001 0)