/*--------------------------------*- C++ -*----------------------------------*\
| =========                 |                                                 |
| \\      /  F ield         | OpenFOAM: The Open Source CFD Toolbox           |
|  \\    /   O peration     | Version:  3.0.x                                 |
|   \\  /    A nd           | Web:      www.OpenFOAM.org                      |
|    \\/     M anipulation  |                                                 |
\*---------------------------------------------------------------------------*/
FoamFile
{
    version     2.0;
    format      ascii;
    class       volScalarField;
    location    "0.28";
    object      p;
}
// * * * * * * * * * * * * * * * * * * * * * * * * * * * * * * * * * * * * * //

dimensions      [1 -1 -2 0 0 0 0];

internalField   nonuniform List<scalar> 
6900
(
1.81915e+07
1.81915e+07
1.81915e+07
1.81916e+07
1.81916e+07
1.81916e+07
1.81916e+07
1.81916e+07
1.81916e+07
1.81916e+07
1.81917e+07
1.81917e+07
1.81917e+07
1.81917e+07
1.81917e+07
1.81917e+07
1.81917e+07
1.81917e+07
1.81917e+07
1.81917e+07
1.81916e+07
1.81916e+07
1.81916e+07
1.81916e+07
1.81915e+07
1.81915e+07
1.81914e+07
1.81914e+07
1.81913e+07
1.81912e+07
1.81912e+07
1.81911e+07
1.8191e+07
1.8191e+07
1.81909e+07
1.81908e+07
1.81908e+07
1.81907e+07
1.81906e+07
1.81905e+07
1.81905e+07
1.81904e+07
1.81903e+07
1.81902e+07
1.81902e+07
1.81901e+07
1.819e+07
1.81899e+07
1.81898e+07
1.81897e+07
1.81896e+07
1.81895e+07
1.81894e+07
1.81893e+07
1.81891e+07
1.8189e+07
1.81889e+07
1.81887e+07
1.81885e+07
1.81884e+07
1.81882e+07
1.8188e+07
1.81878e+07
1.81877e+07
1.81875e+07
1.81873e+07
1.81871e+07
1.81869e+07
1.81867e+07
1.81865e+07
1.81863e+07
1.81861e+07
1.81859e+07
1.81857e+07
1.81855e+07
1.81853e+07
1.81851e+07
1.81849e+07
1.81847e+07
1.81845e+07
1.81844e+07
1.81842e+07
1.8184e+07
1.81838e+07
1.81836e+07
1.81835e+07
1.81833e+07
1.81831e+07
1.81829e+07
1.81827e+07
1.81825e+07
1.81823e+07
1.81821e+07
1.81818e+07
1.81816e+07
1.81814e+07
1.81811e+07
1.81809e+07
1.81806e+07
1.81804e+07
1.81801e+07
1.81798e+07
1.81796e+07
1.81793e+07
1.8179e+07
1.81788e+07
1.81785e+07
1.81782e+07
1.81779e+07
1.81777e+07
1.81774e+07
1.81771e+07
1.81769e+07
1.81766e+07
1.81764e+07
1.81762e+07
1.81759e+07
1.81757e+07
1.81755e+07
1.81753e+07
1.8175e+07
1.81748e+07
1.81746e+07
1.81744e+07
1.81742e+07
1.8174e+07
1.81738e+07
1.81736e+07
1.81733e+07
1.81731e+07
1.81729e+07
1.81727e+07
1.81725e+07
1.81723e+07
1.81721e+07
1.81719e+07
1.81717e+07
1.81715e+07
1.81713e+07
1.81711e+07
1.81709e+07
1.81707e+07
1.81706e+07
1.81704e+07
1.81703e+07
1.81702e+07
1.81701e+07
1.817e+07
1.81699e+07
1.81698e+07
1.81698e+07
1.81698e+07
1.81697e+07
1.81697e+07
1.81697e+07
1.81697e+07
1.81697e+07
1.81697e+07
1.81697e+07
1.81697e+07
1.81697e+07
1.81697e+07
1.81697e+07
1.81697e+07
1.81697e+07
1.81696e+07
1.81696e+07
1.81695e+07
1.81695e+07
1.81694e+07
1.81694e+07
1.81693e+07
1.81693e+07
1.81692e+07
1.81692e+07
1.81691e+07
1.81691e+07
1.8169e+07
1.8169e+07
1.8169e+07
1.81689e+07
1.81689e+07
1.81689e+07
1.81689e+07
1.81689e+07
1.8169e+07
1.8169e+07
1.81691e+07
1.81692e+07
1.81693e+07
1.81694e+07
1.81695e+07
1.81696e+07
1.81697e+07
1.81698e+07
1.81699e+07
1.817e+07
1.817e+07
1.81702e+07
1.81708e+07
1.81915e+07
1.81915e+07
1.81915e+07
1.81916e+07
1.81916e+07
1.81916e+07
1.81916e+07
1.81916e+07
1.81916e+07
1.81916e+07
1.81917e+07
1.81917e+07
1.81917e+07
1.81917e+07
1.81917e+07
1.81917e+07
1.81917e+07
1.81917e+07
1.81917e+07
1.81917e+07
1.81916e+07
1.81916e+07
1.81916e+07
1.81916e+07
1.81915e+07
1.81915e+07
1.81914e+07
1.81914e+07
1.81913e+07
1.81912e+07
1.81912e+07
1.81911e+07
1.8191e+07
1.8191e+07
1.81909e+07
1.81908e+07
1.81908e+07
1.81907e+07
1.81906e+07
1.81905e+07
1.81905e+07
1.81904e+07
1.81903e+07
1.81902e+07
1.81902e+07
1.81901e+07
1.819e+07
1.81899e+07
1.81898e+07
1.81897e+07
1.81896e+07
1.81895e+07
1.81894e+07
1.81893e+07
1.81891e+07
1.8189e+07
1.81889e+07
1.81887e+07
1.81885e+07
1.81884e+07
1.81882e+07
1.8188e+07
1.81878e+07
1.81877e+07
1.81875e+07
1.81873e+07
1.81871e+07
1.81869e+07
1.81867e+07
1.81865e+07
1.81863e+07
1.81861e+07
1.81859e+07
1.81857e+07
1.81855e+07
1.81853e+07
1.81851e+07
1.81849e+07
1.81847e+07
1.81845e+07
1.81844e+07
1.81842e+07
1.8184e+07
1.81838e+07
1.81836e+07
1.81835e+07
1.81833e+07
1.81831e+07
1.81829e+07
1.81827e+07
1.81825e+07
1.81823e+07
1.81821e+07
1.81818e+07
1.81816e+07
1.81814e+07
1.81811e+07
1.81809e+07
1.81806e+07
1.81804e+07
1.81801e+07
1.81798e+07
1.81796e+07
1.81793e+07
1.8179e+07
1.81788e+07
1.81785e+07
1.81782e+07
1.81779e+07
1.81777e+07
1.81774e+07
1.81771e+07
1.81769e+07
1.81766e+07
1.81764e+07
1.81762e+07
1.81759e+07
1.81757e+07
1.81755e+07
1.81753e+07
1.8175e+07
1.81748e+07
1.81746e+07
1.81744e+07
1.81742e+07
1.8174e+07
1.81738e+07
1.81736e+07
1.81733e+07
1.81731e+07
1.81729e+07
1.81727e+07
1.81725e+07
1.81723e+07
1.81721e+07
1.81719e+07
1.81717e+07
1.81715e+07
1.81713e+07
1.81711e+07
1.81709e+07
1.81707e+07
1.81706e+07
1.81704e+07
1.81703e+07
1.81702e+07
1.81701e+07
1.817e+07
1.81699e+07
1.81698e+07
1.81698e+07
1.81698e+07
1.81697e+07
1.81697e+07
1.81697e+07
1.81697e+07
1.81697e+07
1.81697e+07
1.81697e+07
1.81697e+07
1.81697e+07
1.81697e+07
1.81697e+07
1.81697e+07
1.81697e+07
1.81696e+07
1.81696e+07
1.81695e+07
1.81695e+07
1.81694e+07
1.81694e+07
1.81693e+07
1.81693e+07
1.81692e+07
1.81692e+07
1.81691e+07
1.81691e+07
1.8169e+07
1.8169e+07
1.8169e+07
1.81689e+07
1.81689e+07
1.81689e+07
1.81689e+07
1.81689e+07
1.8169e+07
1.8169e+07
1.81691e+07
1.81692e+07
1.81693e+07
1.81694e+07
1.81695e+07
1.81696e+07
1.81697e+07
1.81698e+07
1.81699e+07
1.817e+07
1.817e+07
1.81702e+07
1.81708e+07
1.81915e+07
1.81915e+07
1.81915e+07
1.81916e+07
1.81916e+07
1.81916e+07
1.81916e+07
1.81916e+07
1.81916e+07
1.81916e+07
1.81917e+07
1.81917e+07
1.81917e+07
1.81917e+07
1.81917e+07
1.81917e+07
1.81917e+07
1.81917e+07
1.81917e+07
1.81917e+07
1.81916e+07
1.81916e+07
1.81916e+07
1.81916e+07
1.81915e+07
1.81915e+07
1.81914e+07
1.81914e+07
1.81913e+07
1.81912e+07
1.81912e+07
1.81911e+07
1.8191e+07
1.8191e+07
1.81909e+07
1.81908e+07
1.81908e+07
1.81907e+07
1.81906e+07
1.81905e+07
1.81905e+07
1.81904e+07
1.81903e+07
1.81902e+07
1.81902e+07
1.81901e+07
1.819e+07
1.81899e+07
1.81898e+07
1.81897e+07
1.81896e+07
1.81895e+07
1.81894e+07
1.81893e+07
1.81891e+07
1.8189e+07
1.81889e+07
1.81887e+07
1.81885e+07
1.81884e+07
1.81882e+07
1.8188e+07
1.81878e+07
1.81877e+07
1.81875e+07
1.81873e+07
1.81871e+07
1.81869e+07
1.81867e+07
1.81865e+07
1.81863e+07
1.81861e+07
1.81859e+07
1.81857e+07
1.81855e+07
1.81853e+07
1.81851e+07
1.81849e+07
1.81847e+07
1.81845e+07
1.81844e+07
1.81842e+07
1.8184e+07
1.81838e+07
1.81836e+07
1.81835e+07
1.81833e+07
1.81831e+07
1.81829e+07
1.81827e+07
1.81825e+07
1.81823e+07
1.81821e+07
1.81818e+07
1.81816e+07
1.81814e+07
1.81811e+07
1.81809e+07
1.81806e+07
1.81804e+07
1.81801e+07
1.81798e+07
1.81796e+07
1.81793e+07
1.8179e+07
1.81788e+07
1.81785e+07
1.81782e+07
1.81779e+07
1.81777e+07
1.81774e+07
1.81771e+07
1.81769e+07
1.81766e+07
1.81764e+07
1.81762e+07
1.81759e+07
1.81757e+07
1.81755e+07
1.81753e+07
1.8175e+07
1.81748e+07
1.81746e+07
1.81744e+07
1.81742e+07
1.8174e+07
1.81738e+07
1.81736e+07
1.81733e+07
1.81731e+07
1.81729e+07
1.81727e+07
1.81725e+07
1.81723e+07
1.81721e+07
1.81719e+07
1.81717e+07
1.81715e+07
1.81713e+07
1.81711e+07
1.81709e+07
1.81707e+07
1.81706e+07
1.81704e+07
1.81703e+07
1.81702e+07
1.81701e+07
1.817e+07
1.81699e+07
1.81698e+07
1.81698e+07
1.81698e+07
1.81697e+07
1.81697e+07
1.81697e+07
1.81697e+07
1.81697e+07
1.81697e+07
1.81697e+07
1.81697e+07
1.81697e+07
1.81697e+07
1.81697e+07
1.81697e+07
1.81697e+07
1.81696e+07
1.81696e+07
1.81695e+07
1.81695e+07
1.81694e+07
1.81694e+07
1.81693e+07
1.81693e+07
1.81692e+07
1.81692e+07
1.81691e+07
1.81691e+07
1.8169e+07
1.8169e+07
1.8169e+07
1.81689e+07
1.81689e+07
1.81689e+07
1.81689e+07
1.81689e+07
1.8169e+07
1.8169e+07
1.81691e+07
1.81692e+07
1.81693e+07
1.81694e+07
1.81695e+07
1.81696e+07
1.81697e+07
1.81698e+07
1.81699e+07
1.81699e+07
1.817e+07
1.817e+07
1.81701e+07
1.81915e+07
1.81915e+07
1.81915e+07
1.81916e+07
1.81916e+07
1.81916e+07
1.81916e+07
1.81916e+07
1.81916e+07
1.81916e+07
1.81917e+07
1.81917e+07
1.81917e+07
1.81917e+07
1.81917e+07
1.81917e+07
1.81917e+07
1.81917e+07
1.81917e+07
1.81917e+07
1.81916e+07
1.81916e+07
1.81916e+07
1.81916e+07
1.81915e+07
1.81915e+07
1.81914e+07
1.81914e+07
1.81913e+07
1.81912e+07
1.81912e+07
1.81911e+07
1.8191e+07
1.8191e+07
1.81909e+07
1.81908e+07
1.81908e+07
1.81907e+07
1.81906e+07
1.81905e+07
1.81905e+07
1.81904e+07
1.81903e+07
1.81902e+07
1.81902e+07
1.81901e+07
1.819e+07
1.81899e+07
1.81898e+07
1.81897e+07
1.81896e+07
1.81895e+07
1.81894e+07
1.81893e+07
1.81891e+07
1.8189e+07
1.81889e+07
1.81887e+07
1.81885e+07
1.81884e+07
1.81882e+07
1.8188e+07
1.81878e+07
1.81877e+07
1.81875e+07
1.81873e+07
1.81871e+07
1.81869e+07
1.81867e+07
1.81865e+07
1.81863e+07
1.81861e+07
1.81859e+07
1.81857e+07
1.81855e+07
1.81853e+07
1.81851e+07
1.81849e+07
1.81847e+07
1.81845e+07
1.81844e+07
1.81842e+07
1.8184e+07
1.81838e+07
1.81836e+07
1.81835e+07
1.81833e+07
1.81831e+07
1.81829e+07
1.81827e+07
1.81825e+07
1.81823e+07
1.81821e+07
1.81818e+07
1.81816e+07
1.81814e+07
1.81811e+07
1.81809e+07
1.81806e+07
1.81804e+07
1.81801e+07
1.81798e+07
1.81796e+07
1.81793e+07
1.8179e+07
1.81788e+07
1.81785e+07
1.81782e+07
1.81779e+07
1.81777e+07
1.81774e+07
1.81771e+07
1.81769e+07
1.81766e+07
1.81764e+07
1.81762e+07
1.81759e+07
1.81757e+07
1.81755e+07
1.81753e+07
1.8175e+07
1.81748e+07
1.81746e+07
1.81744e+07
1.81742e+07
1.8174e+07
1.81738e+07
1.81736e+07
1.81733e+07
1.81731e+07
1.81729e+07
1.81727e+07
1.81725e+07
1.81723e+07
1.81721e+07
1.81719e+07
1.81717e+07
1.81715e+07
1.81713e+07
1.81711e+07
1.81709e+07
1.81707e+07
1.81706e+07
1.81704e+07
1.81703e+07
1.81702e+07
1.81701e+07
1.817e+07
1.81699e+07
1.81698e+07
1.81698e+07
1.81698e+07
1.81697e+07
1.81697e+07
1.81697e+07
1.81697e+07
1.81697e+07
1.81697e+07
1.81697e+07
1.81697e+07
1.81697e+07
1.81697e+07
1.81697e+07
1.81697e+07
1.81697e+07
1.81696e+07
1.81696e+07
1.81695e+07
1.81695e+07
1.81694e+07
1.81694e+07
1.81693e+07
1.81693e+07
1.81692e+07
1.81692e+07
1.81691e+07
1.81691e+07
1.8169e+07
1.8169e+07
1.8169e+07
1.81689e+07
1.81689e+07
1.81689e+07
1.81689e+07
1.81689e+07
1.8169e+07
1.8169e+07
1.81691e+07
1.81692e+07
1.81693e+07
1.81694e+07
1.81695e+07
1.81696e+07
1.81697e+07
1.81698e+07
1.81699e+07
1.81699e+07
1.817e+07
1.81698e+07
1.8169e+07
1.81915e+07
1.81915e+07
1.81915e+07
1.81916e+07
1.81916e+07
1.81916e+07
1.81916e+07
1.81916e+07
1.81916e+07
1.81916e+07
1.81917e+07
1.81917e+07
1.81917e+07
1.81917e+07
1.81917e+07
1.81917e+07
1.81917e+07
1.81917e+07
1.81917e+07
1.81917e+07
1.81916e+07
1.81916e+07
1.81916e+07
1.81916e+07
1.81915e+07
1.81915e+07
1.81914e+07
1.81914e+07
1.81913e+07
1.81912e+07
1.81912e+07
1.81911e+07
1.8191e+07
1.8191e+07
1.81909e+07
1.81908e+07
1.81908e+07
1.81907e+07
1.81906e+07
1.81905e+07
1.81905e+07
1.81904e+07
1.81903e+07
1.81902e+07
1.81902e+07
1.81901e+07
1.819e+07
1.81899e+07
1.81898e+07
1.81897e+07
1.81896e+07
1.81895e+07
1.81894e+07
1.81893e+07
1.81891e+07
1.8189e+07
1.81889e+07
1.81887e+07
1.81885e+07
1.81884e+07
1.81882e+07
1.8188e+07
1.81878e+07
1.81877e+07
1.81875e+07
1.81873e+07
1.81871e+07
1.81869e+07
1.81867e+07
1.81865e+07
1.81863e+07
1.81861e+07
1.81859e+07
1.81857e+07
1.81855e+07
1.81853e+07
1.81851e+07
1.81849e+07
1.81847e+07
1.81845e+07
1.81844e+07
1.81842e+07
1.8184e+07
1.81838e+07
1.81836e+07
1.81835e+07
1.81833e+07
1.81831e+07
1.81829e+07
1.81827e+07
1.81825e+07
1.81823e+07
1.81821e+07
1.81818e+07
1.81816e+07
1.81814e+07
1.81811e+07
1.81809e+07
1.81806e+07
1.81804e+07
1.81801e+07
1.81798e+07
1.81796e+07
1.81793e+07
1.8179e+07
1.81788e+07
1.81785e+07
1.81782e+07
1.81779e+07
1.81777e+07
1.81774e+07
1.81771e+07
1.81769e+07
1.81766e+07
1.81764e+07
1.81762e+07
1.81759e+07
1.81757e+07
1.81755e+07
1.81753e+07
1.8175e+07
1.81748e+07
1.81746e+07
1.81744e+07
1.81742e+07
1.8174e+07
1.81738e+07
1.81736e+07
1.81733e+07
1.81731e+07
1.81729e+07
1.81727e+07
1.81725e+07
1.81723e+07
1.81721e+07
1.81719e+07
1.81717e+07
1.81715e+07
1.81713e+07
1.81711e+07
1.81709e+07
1.81707e+07
1.81706e+07
1.81704e+07
1.81703e+07
1.81702e+07
1.81701e+07
1.817e+07
1.81699e+07
1.81698e+07
1.81698e+07
1.81698e+07
1.81697e+07
1.81697e+07
1.81697e+07
1.81697e+07
1.81697e+07
1.81697e+07
1.81697e+07
1.81697e+07
1.81697e+07
1.81697e+07
1.81697e+07
1.81697e+07
1.81697e+07
1.81696e+07
1.81696e+07
1.81695e+07
1.81695e+07
1.81694e+07
1.81694e+07
1.81693e+07
1.81693e+07
1.81692e+07
1.81692e+07
1.81691e+07
1.81691e+07
1.8169e+07
1.8169e+07
1.8169e+07
1.81689e+07
1.81689e+07
1.81689e+07
1.81689e+07
1.81689e+07
1.8169e+07
1.8169e+07
1.81691e+07
1.81692e+07
1.81693e+07
1.81694e+07
1.81695e+07
1.81696e+07
1.81697e+07
1.81698e+07
1.81699e+07
1.81699e+07
1.817e+07
1.81698e+07
1.8169e+07
1.8177e+07
1.81797e+07
1.81799e+07
1.81793e+07
1.81786e+07
1.8178e+07
1.81771e+07
1.81755e+07
1.81739e+07
1.81727e+07
1.81723e+07
1.8174e+07
1.81754e+07
1.81743e+07
1.81695e+07
1.81621e+07
1.81572e+07
1.81539e+07
1.8151e+07
1.81484e+07
1.81754e+07
1.81767e+07
1.81766e+07
1.81759e+07
1.81752e+07
1.81746e+07
1.81736e+07
1.81719e+07
1.81703e+07
1.81691e+07
1.81688e+07
1.81707e+07
1.8172e+07
1.81703e+07
1.81645e+07
1.81566e+07
1.81518e+07
1.81488e+07
1.81463e+07
1.81447e+07
1.81704e+07
1.81703e+07
1.81698e+07
1.8169e+07
1.81678e+07
1.81664e+07
1.81647e+07
1.81628e+07
1.81605e+07
1.81579e+07
1.81548e+07
1.81514e+07
1.81479e+07
1.81446e+07
1.81415e+07
1.81384e+07
1.81348e+07
1.81308e+07
1.81264e+07
1.81218e+07
1.81604e+07
1.81593e+07
1.81598e+07
1.81603e+07
1.81598e+07
1.81581e+07
1.81558e+07
1.81527e+07
1.81501e+07
1.81469e+07
1.81441e+07
1.81412e+07
1.81383e+07
1.81356e+07
1.81329e+07
1.81305e+07
1.81284e+07
1.81267e+07
1.81254e+07
1.81244e+07
1.81557e+07
1.81508e+07
1.81491e+07
1.81489e+07
1.81481e+07
1.81462e+07
1.81436e+07
1.81403e+07
1.81372e+07
1.81337e+07
1.81304e+07
1.8127e+07
1.81238e+07
1.81206e+07
1.81176e+07
1.8115e+07
1.81126e+07
1.81108e+07
1.81097e+07
1.81096e+07
1.81371e+07
1.81257e+07
1.81205e+07
1.81194e+07
1.81191e+07
1.8119e+07
1.81186e+07
1.81182e+07
1.81182e+07
1.81182e+07
1.81182e+07
1.81183e+07
1.81183e+07
1.81184e+07
1.81185e+07
1.81186e+07
1.81187e+07
1.81188e+07
1.81188e+07
1.81189e+07
1.8119e+07
1.8119e+07
1.8119e+07
1.81191e+07
1.81191e+07
1.81191e+07
1.81191e+07
1.81191e+07
1.8119e+07
1.8119e+07
1.81188e+07
1.81187e+07
1.81185e+07
1.81184e+07
1.81182e+07
1.81181e+07
1.81179e+07
1.81177e+07
1.81176e+07
1.81174e+07
1.81172e+07
1.8117e+07
1.81168e+07
1.81166e+07
1.81164e+07
1.81162e+07
1.81161e+07
1.81159e+07
1.81157e+07
1.81156e+07
1.81155e+07
1.81154e+07
1.81153e+07
1.81152e+07
1.81152e+07
1.81153e+07
1.81153e+07
1.81154e+07
1.81154e+07
1.81155e+07
1.81156e+07
1.81157e+07
1.81158e+07
1.81159e+07
1.8116e+07
1.8116e+07
1.81161e+07
1.81161e+07
1.81161e+07
1.81161e+07
1.8116e+07
1.81159e+07
1.81158e+07
1.81157e+07
1.81156e+07
1.81155e+07
1.81154e+07
1.81152e+07
1.81151e+07
1.81149e+07
1.81147e+07
1.81145e+07
1.81143e+07
1.8114e+07
1.81138e+07
1.81136e+07
1.81133e+07
1.81131e+07
1.81128e+07
1.81125e+07
1.81123e+07
1.8112e+07
1.81117e+07
1.81114e+07
1.81112e+07
1.81109e+07
1.81107e+07
1.81104e+07
1.81102e+07
1.81099e+07
1.81097e+07
1.81095e+07
1.81093e+07
1.8109e+07
1.81089e+07
1.81087e+07
1.81085e+07
1.81083e+07
1.81081e+07
1.8108e+07
1.81078e+07
1.81077e+07
1.81075e+07
1.81074e+07
1.81072e+07
1.81071e+07
1.81069e+07
1.81068e+07
1.81066e+07
1.81065e+07
1.81063e+07
1.81061e+07
1.81059e+07
1.81057e+07
1.81055e+07
1.81053e+07
1.81051e+07
1.81049e+07
1.81046e+07
1.81044e+07
1.81041e+07
1.81038e+07
1.81036e+07
1.81033e+07
1.8103e+07
1.81027e+07
1.81024e+07
1.81021e+07
1.81018e+07
1.81015e+07
1.81012e+07
1.81009e+07
1.81006e+07
1.81003e+07
1.81e+07
1.80998e+07
1.80995e+07
1.80993e+07
1.8099e+07
1.80988e+07
1.80986e+07
1.80984e+07
1.80982e+07
1.80981e+07
1.80979e+07
1.80978e+07
1.80976e+07
1.80975e+07
1.80974e+07
1.80973e+07
1.80972e+07
1.80971e+07
1.8097e+07
1.80968e+07
1.80967e+07
1.80966e+07
1.80965e+07
1.80963e+07
1.80962e+07
1.80961e+07
1.80959e+07
1.80957e+07
1.80956e+07
1.80954e+07
1.80952e+07
1.8095e+07
1.80948e+07
1.80946e+07
1.80944e+07
1.80942e+07
1.80939e+07
1.80937e+07
1.80935e+07
1.80932e+07
1.80929e+07
1.80927e+07
1.80924e+07
1.80922e+07
1.80919e+07
1.80917e+07
1.80914e+07
1.80912e+07
1.80909e+07
1.80907e+07
1.80905e+07
1.80903e+07
1.80902e+07
1.80899e+07
1.80895e+07
1.80883e+07
1.81359e+07
1.81255e+07
1.81206e+07
1.81194e+07
1.81191e+07
1.8119e+07
1.81186e+07
1.81182e+07
1.81182e+07
1.81182e+07
1.81182e+07
1.81183e+07
1.81183e+07
1.81184e+07
1.81185e+07
1.81186e+07
1.81187e+07
1.81188e+07
1.81188e+07
1.81189e+07
1.8119e+07
1.8119e+07
1.8119e+07
1.81191e+07
1.81191e+07
1.81191e+07
1.81191e+07
1.81191e+07
1.8119e+07
1.8119e+07
1.81188e+07
1.81187e+07
1.81185e+07
1.81184e+07
1.81182e+07
1.81181e+07
1.81179e+07
1.81177e+07
1.81176e+07
1.81174e+07
1.81172e+07
1.8117e+07
1.81168e+07
1.81166e+07
1.81164e+07
1.81162e+07
1.81161e+07
1.81159e+07
1.81157e+07
1.81156e+07
1.81155e+07
1.81153e+07
1.81153e+07
1.81152e+07
1.81152e+07
1.81152e+07
1.81153e+07
1.81154e+07
1.81154e+07
1.81155e+07
1.81156e+07
1.81157e+07
1.81158e+07
1.81159e+07
1.8116e+07
1.8116e+07
1.81161e+07
1.81161e+07
1.81161e+07
1.81161e+07
1.8116e+07
1.81159e+07
1.81158e+07
1.81157e+07
1.81156e+07
1.81155e+07
1.81154e+07
1.81152e+07
1.81151e+07
1.81149e+07
1.81147e+07
1.81145e+07
1.81143e+07
1.8114e+07
1.81138e+07
1.81136e+07
1.81133e+07
1.81131e+07
1.81128e+07
1.81125e+07
1.81123e+07
1.8112e+07
1.81117e+07
1.81114e+07
1.81112e+07
1.81109e+07
1.81107e+07
1.81104e+07
1.81102e+07
1.81099e+07
1.81097e+07
1.81095e+07
1.81093e+07
1.8109e+07
1.81089e+07
1.81087e+07
1.81085e+07
1.81083e+07
1.81081e+07
1.8108e+07
1.81078e+07
1.81077e+07
1.81075e+07
1.81074e+07
1.81072e+07
1.81071e+07
1.81069e+07
1.81068e+07
1.81066e+07
1.81065e+07
1.81063e+07
1.81061e+07
1.81059e+07
1.81057e+07
1.81055e+07
1.81053e+07
1.81051e+07
1.81049e+07
1.81046e+07
1.81044e+07
1.81041e+07
1.81038e+07
1.81036e+07
1.81033e+07
1.8103e+07
1.81027e+07
1.81024e+07
1.81021e+07
1.81018e+07
1.81015e+07
1.81012e+07
1.81009e+07
1.81006e+07
1.81003e+07
1.81e+07
1.80998e+07
1.80995e+07
1.80993e+07
1.8099e+07
1.80988e+07
1.80986e+07
1.80984e+07
1.80982e+07
1.80981e+07
1.80979e+07
1.80978e+07
1.80976e+07
1.80975e+07
1.80974e+07
1.80973e+07
1.80972e+07
1.80971e+07
1.8097e+07
1.80968e+07
1.80967e+07
1.80966e+07
1.80965e+07
1.80963e+07
1.80962e+07
1.80961e+07
1.80959e+07
1.80957e+07
1.80956e+07
1.80954e+07
1.80952e+07
1.8095e+07
1.80948e+07
1.80946e+07
1.80944e+07
1.80942e+07
1.80939e+07
1.80937e+07
1.80935e+07
1.80932e+07
1.80929e+07
1.80927e+07
1.80924e+07
1.80922e+07
1.80919e+07
1.80917e+07
1.80914e+07
1.80912e+07
1.80909e+07
1.80907e+07
1.80905e+07
1.80903e+07
1.80902e+07
1.80899e+07
1.80895e+07
1.80884e+07
1.81093e+07
1.81141e+07
1.81178e+07
1.81186e+07
1.81183e+07
1.8118e+07
1.8118e+07
1.8118e+07
1.81181e+07
1.81182e+07
1.81182e+07
1.81183e+07
1.81184e+07
1.81184e+07
1.81185e+07
1.81186e+07
1.81187e+07
1.81188e+07
1.81188e+07
1.81189e+07
1.8119e+07
1.8119e+07
1.8119e+07
1.81191e+07
1.81191e+07
1.81191e+07
1.8119e+07
1.8119e+07
1.81189e+07
1.81188e+07
1.81188e+07
1.81186e+07
1.81185e+07
1.81184e+07
1.81182e+07
1.81181e+07
1.81179e+07
1.81178e+07
1.81176e+07
1.81174e+07
1.81172e+07
1.8117e+07
1.81168e+07
1.81167e+07
1.81165e+07
1.81163e+07
1.81161e+07
1.8116e+07
1.81158e+07
1.81157e+07
1.81156e+07
1.81155e+07
1.81154e+07
1.81154e+07
1.81154e+07
1.81154e+07
1.81155e+07
1.81155e+07
1.81156e+07
1.81157e+07
1.81157e+07
1.81158e+07
1.81159e+07
1.8116e+07
1.8116e+07
1.81161e+07
1.81161e+07
1.81161e+07
1.81161e+07
1.81161e+07
1.8116e+07
1.81159e+07
1.81158e+07
1.81157e+07
1.81156e+07
1.81155e+07
1.81154e+07
1.81152e+07
1.81151e+07
1.81149e+07
1.81147e+07
1.81145e+07
1.81143e+07
1.8114e+07
1.81138e+07
1.81136e+07
1.81133e+07
1.81131e+07
1.81128e+07
1.81125e+07
1.81123e+07
1.8112e+07
1.81117e+07
1.81114e+07
1.81112e+07
1.81109e+07
1.81107e+07
1.81104e+07
1.81102e+07
1.81099e+07
1.81097e+07
1.81095e+07
1.81093e+07
1.8109e+07
1.81089e+07
1.81087e+07
1.81085e+07
1.81083e+07
1.81081e+07
1.8108e+07
1.81078e+07
1.81077e+07
1.81075e+07
1.81074e+07
1.81072e+07
1.81071e+07
1.81069e+07
1.81068e+07
1.81066e+07
1.81065e+07
1.81063e+07
1.81061e+07
1.81059e+07
1.81057e+07
1.81055e+07
1.81053e+07
1.81051e+07
1.81049e+07
1.81046e+07
1.81044e+07
1.81041e+07
1.81038e+07
1.81036e+07
1.81033e+07
1.8103e+07
1.81027e+07
1.81024e+07
1.81021e+07
1.81018e+07
1.81015e+07
1.81012e+07
1.81009e+07
1.81006e+07
1.81003e+07
1.81e+07
1.80998e+07
1.80995e+07
1.80993e+07
1.8099e+07
1.80988e+07
1.80986e+07
1.80984e+07
1.80982e+07
1.80981e+07
1.80979e+07
1.80978e+07
1.80976e+07
1.80975e+07
1.80974e+07
1.80973e+07
1.80972e+07
1.80971e+07
1.8097e+07
1.80968e+07
1.80967e+07
1.80966e+07
1.80965e+07
1.80963e+07
1.80962e+07
1.80961e+07
1.80959e+07
1.80957e+07
1.80956e+07
1.80954e+07
1.80952e+07
1.8095e+07
1.80948e+07
1.80946e+07
1.80944e+07
1.80942e+07
1.80939e+07
1.80937e+07
1.80935e+07
1.80932e+07
1.80929e+07
1.80927e+07
1.80924e+07
1.80922e+07
1.80919e+07
1.80917e+07
1.80914e+07
1.80912e+07
1.80909e+07
1.80907e+07
1.80905e+07
1.80903e+07
1.80902e+07
1.809e+07
1.80899e+07
1.80898e+07
1.81213e+07
1.812e+07
1.81193e+07
1.81188e+07
1.81184e+07
1.81181e+07
1.81181e+07
1.81181e+07
1.81181e+07
1.81182e+07
1.81182e+07
1.81183e+07
1.81184e+07
1.81184e+07
1.81185e+07
1.81186e+07
1.81187e+07
1.81188e+07
1.81188e+07
1.81189e+07
1.8119e+07
1.8119e+07
1.81191e+07
1.81191e+07
1.81191e+07
1.81191e+07
1.81191e+07
1.8119e+07
1.81189e+07
1.81189e+07
1.81188e+07
1.81187e+07
1.81185e+07
1.81184e+07
1.81183e+07
1.81181e+07
1.81179e+07
1.81178e+07
1.81176e+07
1.81174e+07
1.81172e+07
1.81171e+07
1.81169e+07
1.81167e+07
1.81165e+07
1.81164e+07
1.81162e+07
1.81161e+07
1.81159e+07
1.81158e+07
1.81157e+07
1.81156e+07
1.81156e+07
1.81156e+07
1.81155e+07
1.81156e+07
1.81156e+07
1.81156e+07
1.81157e+07
1.81157e+07
1.81158e+07
1.81159e+07
1.81159e+07
1.8116e+07
1.81161e+07
1.81161e+07
1.81161e+07
1.81161e+07
1.81161e+07
1.81161e+07
1.8116e+07
1.81159e+07
1.81158e+07
1.81157e+07
1.81156e+07
1.81155e+07
1.81154e+07
1.81152e+07
1.81151e+07
1.81149e+07
1.81147e+07
1.81145e+07
1.81143e+07
1.8114e+07
1.81138e+07
1.81136e+07
1.81133e+07
1.81131e+07
1.81128e+07
1.81125e+07
1.81123e+07
1.8112e+07
1.81117e+07
1.81114e+07
1.81112e+07
1.81109e+07
1.81107e+07
1.81104e+07
1.81102e+07
1.81099e+07
1.81097e+07
1.81095e+07
1.81093e+07
1.8109e+07
1.81089e+07
1.81087e+07
1.81085e+07
1.81083e+07
1.81081e+07
1.8108e+07
1.81078e+07
1.81077e+07
1.81075e+07
1.81074e+07
1.81072e+07
1.81071e+07
1.81069e+07
1.81068e+07
1.81066e+07
1.81065e+07
1.81063e+07
1.81061e+07
1.81059e+07
1.81057e+07
1.81055e+07
1.81053e+07
1.81051e+07
1.81049e+07
1.81046e+07
1.81044e+07
1.81041e+07
1.81038e+07
1.81036e+07
1.81033e+07
1.8103e+07
1.81027e+07
1.81024e+07
1.81021e+07
1.81018e+07
1.81015e+07
1.81012e+07
1.81009e+07
1.81006e+07
1.81003e+07
1.81e+07
1.80998e+07
1.80995e+07
1.80993e+07
1.8099e+07
1.80988e+07
1.80986e+07
1.80984e+07
1.80982e+07
1.80981e+07
1.80979e+07
1.80978e+07
1.80976e+07
1.80975e+07
1.80974e+07
1.80973e+07
1.80972e+07
1.80971e+07
1.8097e+07
1.80968e+07
1.80967e+07
1.80966e+07
1.80965e+07
1.80963e+07
1.80962e+07
1.80961e+07
1.80959e+07
1.80957e+07
1.80956e+07
1.80954e+07
1.80952e+07
1.8095e+07
1.80948e+07
1.80946e+07
1.80944e+07
1.80942e+07
1.80939e+07
1.80937e+07
1.80935e+07
1.80932e+07
1.80929e+07
1.80927e+07
1.80924e+07
1.80922e+07
1.80919e+07
1.80917e+07
1.80914e+07
1.80912e+07
1.80909e+07
1.80907e+07
1.80905e+07
1.80903e+07
1.80902e+07
1.80901e+07
1.80901e+07
1.80908e+07
1.81186e+07
1.81196e+07
1.81191e+07
1.81187e+07
1.81184e+07
1.81181e+07
1.81181e+07
1.81181e+07
1.81181e+07
1.81182e+07
1.81182e+07
1.81183e+07
1.81184e+07
1.81184e+07
1.81185e+07
1.81186e+07
1.81187e+07
1.81188e+07
1.81188e+07
1.81189e+07
1.8119e+07
1.8119e+07
1.81191e+07
1.81191e+07
1.81191e+07
1.81191e+07
1.81191e+07
1.8119e+07
1.81189e+07
1.81189e+07
1.81188e+07
1.81187e+07
1.81185e+07
1.81184e+07
1.81183e+07
1.81181e+07
1.81179e+07
1.81178e+07
1.81176e+07
1.81174e+07
1.81172e+07
1.81171e+07
1.81169e+07
1.81167e+07
1.81165e+07
1.81164e+07
1.81162e+07
1.81161e+07
1.81159e+07
1.81158e+07
1.81157e+07
1.81156e+07
1.81156e+07
1.81155e+07
1.81155e+07
1.81155e+07
1.81156e+07
1.81156e+07
1.81157e+07
1.81157e+07
1.81158e+07
1.81159e+07
1.81159e+07
1.8116e+07
1.81161e+07
1.81161e+07
1.81161e+07
1.81161e+07
1.81161e+07
1.81161e+07
1.8116e+07
1.81159e+07
1.81158e+07
1.81157e+07
1.81156e+07
1.81155e+07
1.81154e+07
1.81152e+07
1.81151e+07
1.81149e+07
1.81147e+07
1.81145e+07
1.81143e+07
1.8114e+07
1.81138e+07
1.81136e+07
1.81133e+07
1.81131e+07
1.81128e+07
1.81125e+07
1.81123e+07
1.8112e+07
1.81117e+07
1.81114e+07
1.81112e+07
1.81109e+07
1.81107e+07
1.81104e+07
1.81102e+07
1.81099e+07
1.81097e+07
1.81095e+07
1.81093e+07
1.8109e+07
1.81089e+07
1.81087e+07
1.81085e+07
1.81083e+07
1.81081e+07
1.8108e+07
1.81078e+07
1.81077e+07
1.81075e+07
1.81074e+07
1.81072e+07
1.81071e+07
1.81069e+07
1.81068e+07
1.81066e+07
1.81065e+07
1.81063e+07
1.81061e+07
1.81059e+07
1.81057e+07
1.81055e+07
1.81053e+07
1.81051e+07
1.81049e+07
1.81046e+07
1.81044e+07
1.81041e+07
1.81038e+07
1.81036e+07
1.81033e+07
1.8103e+07
1.81027e+07
1.81024e+07
1.81021e+07
1.81018e+07
1.81015e+07
1.81012e+07
1.81009e+07
1.81006e+07
1.81003e+07
1.81e+07
1.80998e+07
1.80995e+07
1.80993e+07
1.8099e+07
1.80988e+07
1.80986e+07
1.80984e+07
1.80982e+07
1.80981e+07
1.80979e+07
1.80978e+07
1.80976e+07
1.80975e+07
1.80974e+07
1.80973e+07
1.80972e+07
1.80971e+07
1.8097e+07
1.80968e+07
1.80967e+07
1.80966e+07
1.80965e+07
1.80963e+07
1.80962e+07
1.80961e+07
1.80959e+07
1.80957e+07
1.80956e+07
1.80954e+07
1.80952e+07
1.8095e+07
1.80948e+07
1.80946e+07
1.80944e+07
1.80942e+07
1.80939e+07
1.80937e+07
1.80935e+07
1.80932e+07
1.80929e+07
1.80927e+07
1.80924e+07
1.80922e+07
1.80919e+07
1.80917e+07
1.80914e+07
1.80912e+07
1.80909e+07
1.80907e+07
1.80905e+07
1.80903e+07
1.80902e+07
1.80901e+07
1.80901e+07
1.80908e+07
1.80767e+07
1.80717e+07
1.80699e+07
1.80696e+07
1.80688e+07
1.80669e+07
1.80643e+07
1.80615e+07
1.80583e+07
1.80553e+07
1.8052e+07
1.80487e+07
1.80456e+07
1.80427e+07
1.804e+07
1.80376e+07
1.80356e+07
1.80339e+07
1.80328e+07
1.80328e+07
1.8081e+07
1.80798e+07
1.80801e+07
1.80805e+07
1.80799e+07
1.80783e+07
1.80758e+07
1.80736e+07
1.80705e+07
1.80681e+07
1.80651e+07
1.80623e+07
1.80595e+07
1.80569e+07
1.80546e+07
1.80525e+07
1.80507e+07
1.80491e+07
1.80479e+07
1.80469e+07
1.809e+07
1.809e+07
1.80895e+07
1.80887e+07
1.80876e+07
1.80862e+07
1.80846e+07
1.80826e+07
1.80803e+07
1.80776e+07
1.8075e+07
1.80723e+07
1.80696e+07
1.80666e+07
1.80631e+07
1.80594e+07
1.80554e+07
1.80511e+07
1.80464e+07
1.8042e+07
1.80947e+07
1.80959e+07
1.80958e+07
1.80951e+07
1.80944e+07
1.80936e+07
1.80928e+07
1.80921e+07
1.8092e+07
1.80927e+07
1.80922e+07
1.80891e+07
1.80837e+07
1.80794e+07
1.80767e+07
1.80744e+07
1.80725e+07
1.80717e+07
1.80739e+07
1.80744e+07
1.80961e+07
1.80988e+07
1.8099e+07
1.80983e+07
1.80976e+07
1.80969e+07
1.80961e+07
1.80954e+07
1.80953e+07
1.80959e+07
1.80956e+07
1.8093e+07
1.8088e+07
1.80838e+07
1.8081e+07
1.80784e+07
1.80762e+07
1.80751e+07
1.80772e+07
1.80783e+07
1.80411e+07
1.8042e+07
1.80417e+07
1.80413e+07
1.80408e+07
1.80405e+07
1.80404e+07
1.80404e+07
1.80404e+07
1.80402e+07
1.80401e+07
1.804e+07
1.80399e+07
1.80398e+07
1.80397e+07
1.80395e+07
1.80394e+07
1.80392e+07
1.8039e+07
1.80388e+07
1.80386e+07
1.80384e+07
1.80381e+07
1.80379e+07
1.80376e+07
1.80374e+07
1.80371e+07
1.80369e+07
1.80366e+07
1.80363e+07
1.80361e+07
1.80358e+07
1.80356e+07
1.80353e+07
1.8035e+07
1.80348e+07
1.80345e+07
1.80343e+07
1.8034e+07
1.80338e+07
1.80336e+07
1.80334e+07
1.80332e+07
1.8033e+07
1.80328e+07
1.80327e+07
1.80326e+07
1.80324e+07
1.80324e+07
1.80323e+07
1.80323e+07
1.80323e+07
1.80323e+07
1.80323e+07
1.80324e+07
1.80325e+07
1.80327e+07
1.80328e+07
1.80329e+07
1.80331e+07
1.80332e+07
1.80334e+07
1.80335e+07
1.80336e+07
1.80337e+07
1.80338e+07
1.80339e+07
1.80339e+07
1.80339e+07
1.80339e+07
1.80338e+07
1.80338e+07
1.80337e+07
1.80336e+07
1.80335e+07
1.80333e+07
1.80332e+07
1.80331e+07
1.80329e+07
1.80328e+07
1.80327e+07
1.80325e+07
1.80324e+07
1.80322e+07
1.80321e+07
1.80319e+07
1.80318e+07
1.80317e+07
1.80315e+07
1.80314e+07
1.80313e+07
1.80312e+07
1.80311e+07
1.8031e+07
1.8031e+07
1.8031e+07
1.80309e+07
1.80309e+07
1.80306e+07
1.80295e+07
1.80437e+07
1.80423e+07
1.80418e+07
1.80413e+07
1.80408e+07
1.80405e+07
1.80404e+07
1.80404e+07
1.80404e+07
1.80403e+07
1.80401e+07
1.804e+07
1.80399e+07
1.80398e+07
1.80397e+07
1.80395e+07
1.80394e+07
1.80392e+07
1.8039e+07
1.80388e+07
1.80386e+07
1.80384e+07
1.80381e+07
1.80379e+07
1.80376e+07
1.80374e+07
1.80371e+07
1.80369e+07
1.80366e+07
1.80363e+07
1.80361e+07
1.80358e+07
1.80356e+07
1.80353e+07
1.8035e+07
1.80348e+07
1.80345e+07
1.80343e+07
1.8034e+07
1.80338e+07
1.80336e+07
1.80334e+07
1.80332e+07
1.8033e+07
1.80328e+07
1.80327e+07
1.80326e+07
1.80325e+07
1.80324e+07
1.80323e+07
1.80323e+07
1.80323e+07
1.80323e+07
1.80323e+07
1.80324e+07
1.80325e+07
1.80327e+07
1.80328e+07
1.80329e+07
1.80331e+07
1.80332e+07
1.80334e+07
1.80335e+07
1.80336e+07
1.80337e+07
1.80338e+07
1.80339e+07
1.80339e+07
1.80339e+07
1.80339e+07
1.80338e+07
1.80338e+07
1.80337e+07
1.80336e+07
1.80335e+07
1.80333e+07
1.80332e+07
1.80331e+07
1.80329e+07
1.80328e+07
1.80327e+07
1.80325e+07
1.80324e+07
1.80322e+07
1.80321e+07
1.80319e+07
1.80318e+07
1.80317e+07
1.80315e+07
1.80314e+07
1.80313e+07
1.80312e+07
1.80311e+07
1.8031e+07
1.8031e+07
1.8031e+07
1.80309e+07
1.80309e+07
1.80306e+07
1.80296e+07
1.80331e+07
1.80374e+07
1.80408e+07
1.80412e+07
1.80406e+07
1.80403e+07
1.80403e+07
1.80404e+07
1.80403e+07
1.80402e+07
1.80401e+07
1.804e+07
1.80399e+07
1.80398e+07
1.80397e+07
1.80395e+07
1.80394e+07
1.80392e+07
1.8039e+07
1.80388e+07
1.80386e+07
1.80384e+07
1.80381e+07
1.80379e+07
1.80376e+07
1.80374e+07
1.80371e+07
1.80369e+07
1.80366e+07
1.80363e+07
1.80361e+07
1.80358e+07
1.80355e+07
1.80353e+07
1.8035e+07
1.80348e+07
1.80345e+07
1.80342e+07
1.8034e+07
1.80338e+07
1.80335e+07
1.80333e+07
1.80331e+07
1.80329e+07
1.80328e+07
1.80326e+07
1.80325e+07
1.80324e+07
1.80323e+07