/*--------------------------------*- C++ -*----------------------------------*\
| =========                 |                                                 |
| \\      /  F ield         | OpenFOAM: The Open Source CFD Toolbox           |
|  \\    /   O peration     | Version:  3.0.x                                 |
|   \\  /    A nd           | Web:      www.OpenFOAM.org                      |
|    \\/     M anipulation  |                                                 |
\*---------------------------------------------------------------------------*/
FoamFile
{
    version     2.0;
    format      ascii;
    class       surfaceScalarField;
    location    "0.28";
    object      phi;
}
// * * * * * * * * * * * * * * * * * * * * * * * * * * * * * * * * * * * * * //

dimensions      [1 0 -1 0 0 0 0];

internalField   nonuniform List<scalar> 
12415
(
5.79656
0.00032777
5.79629
0.000235217
5.79602
0.000224715
5.79576
0.000226885
5.7955
0.000227426
5.79524
0.000227339
5.79499
0.000227388
5.79473
0.000227492
5.79447
0.000227581
5.7942
0.000227659
5.79392
0.000227731
5.79364
0.000227802
5.79336
0.000227876
5.79308
0.000227951
5.7928
0.000228116
5.79253
0.000228107
5.79226
0.000228272
5.792
0.0002284
5.79173
0.000228532
5.79146
0.000228667
5.7912
0.000228801
5.79092
0.000228931
5.79064
0.000229054
5.79035
0.000229165
5.79004
0.000229261
5.78972
0.000229333
5.78939
0.000229371
5.78903
0.000229358
5.78867
0.000229268
5.78829
0.000229066
5.7879
0.0002287
5.78749
0.000228104
5.78707
0.000227194
5.78663
0.000225865
5.78617
0.000223999
5.78568
0.000221466
5.78517
0.000218129
5.78464
0.000213859
5.78408
0.000208538
5.7835
0.000202081
5.78291
0.000194436
5.7823
0.000185601
5.78167
0.000175628
5.78104
0.000164623
5.7804
0.000152747
5.77975
0.000140204
5.77909
0.000127233
5.77844
0.000114093
5.77778
0.000101049
5.77712
8.8352e-05
5.77647
7.62291e-05
5.77581
6.48712e-05
5.77516
5.44253e-05
5.77451
4.49911e-05
5.77385
3.6621e-05
5.77321
2.93234e-05
5.77256
2.30691e-05
5.7719
1.77982e-05
5.77125
1.34289e-05
5.7706
9.86511e-06
5.76994
7.00433e-06
5.76927
4.74345e-06
5.7686
2.98378e-06
5.76791
1.63494e-06
5.76722
6.16672e-07
5.76651
-1.40677e-07
5.76579
-6.94623e-07
5.76506
-1.09361e-06
5.76431
-1.37661e-06
5.76354
-1.57417e-06
5.76275
-1.70974e-06
5.76195
-1.80103e-06
5.76112
-1.86113e-06
5.76028
-1.89959e-06
5.75941
-1.92325e-06
5.75853
-1.93697e-06
5.75763
-1.94416e-06
5.75671
-1.94719e-06
5.75578
-1.94767e-06
5.75483
-1.94673e-06
5.75388
-1.94529e-06
5.75291
-1.9437e-06
5.75194
-1.94224e-06
5.75097
-1.94087e-06
5.74999
-1.94008e-06
5.74901
-1.94031e-06
5.74804
-1.94155e-06
5.74707
-1.94355e-06
5.74611
-1.94624e-06
5.74516
-1.94968e-06
5.74421
-1.95384e-06
5.74327
-1.95861e-06
5.74234
-1.96386e-06
5.74141
-1.96939e-06
5.74049
-1.97476e-06
5.73958
-1.97956e-06
5.73866
-1.98358e-06
5.73775
-1.98679e-06
5.73683
-1.98932e-06
5.7359
-1.99133e-06
5.73497
-1.99314e-06
5.73403
-1.99395e-06
5.73307
-1.99398e-06
5.73209
-1.99297e-06
5.7311
-1.99148e-06
5.73008
-1.98948e-06
5.72904
-1.98652e-06
5.72798
-1.98247e-06
5.72689
-1.97741e-06
5.72578
-1.9716e-06
5.72463
-1.96499e-06
5.72347
-1.95773e-06
5.72228
-1.95002e-06
5.72107
-1.94215e-06
5.71984
-1.93439e-06
5.7186
-1.92688e-06
5.71735
-1.91975e-06
5.71609
-1.91312e-06
5.71484
-1.90725e-06
5.7136
-1.90276e-06
5.71237
-1.8969e-06
5.71116
-1.89251e-06
5.70998
-1.88909e-06
5.70883
-1.88702e-06
5.70773
-1.88568e-06
5.70666
-1.8844e-06
5.70564
-1.8833e-06
5.70466
-1.88229e-06
5.70374
-1.88148e-06
5.70286
-1.88057e-06
5.70203
-1.879e-06
5.70125
-1.87648e-06
5.70052
-1.87304e-06
5.69983
-1.86893e-06
5.69919
-1.86409e-06
5.69858
-1.85854e-06
5.698
-1.85218e-06
5.69746
-1.84713e-06
5.69694
-1.83598e-06
5.69645
-1.82509e-06
5.69597
-1.81615e-06
5.69551
-1.80613e-06
5.69506
-1.7951e-06
5.69461
-1.78237e-06
5.69416
-1.76943e-06
5.69371
-1.75545e-06
5.69326
-1.7412e-06
5.69279
-1.72671e-06
5.69231
-1.71289e-06
5.69182
-1.69861e-06
5.69132
-1.6855e-06
5.69082
-1.67104e-06
5.6903
-1.66011e-06
5.68979
-1.6462e-06
5.68928
-1.62554e-06
5.68878
-1.66311e-06
5.68831
-1.64954e-06
5.68786
-1.5993e-06
5.68745
-1.63578e-06
5.68708
-1.63673e-06
5.68676
-1.61323e-06
5.68649
-1.72626e-06
5.68627
-1.58574e-06
5.68611
-1.64205e-06
5.686
-1.67296e-06
5.68594
-1.6716e-06
5.68593
-1.67788e-06
5.68595
-1.68394e-06
5.686
-1.68935e-06
5.68608
-1.68406e-06
5.68618
-1.69946e-06
5.6863
-1.68226e-06
5.68643
-1.69847e-06
5.68656
-1.67743e-06
5.6867
-1.69464e-06
5.68684
-1.66845e-06
5.68697
-1.68764e-06
5.6871
-1.66808e-06
5.68722
-1.67356e-06
5.68731
-1.65733e-06
5.68737
-1.65884e-06
5.68739
-1.65377e-06
5.68737
-1.56187e-06
5.6873
-1.68927e-06
5.68717
-1.49011e-06
5.68699
-1.6685e-06
5.68674
-1.60972e-06
5.68644
-1.54724e-06
5.68608
-1.56313e-06
5.68568
-1.52572e-06
5.68525
-1.53012e-06
5.68479
-1.41347e-06
5.68433
-8.66667e-07
5.68388
3.22599e-06
5.68343
3.1611e-05
5.68284
0.000230419
5.68094
0.00161714
5.66948
0.0112689
5.58067
0.0887089
0.437486
5.14318
11.5939
0.000260527
11.5938
0.000215959
11.5938
0.000189346
11.5937
0.000194187
11.5937
0.000195605
11.5937
0.000195086
11.5936
0.000195012
11.5936
0.000195114
11.5936
0.000195199
11.5935
0.000195269
11.5935
0.000195338
11.5934
0.000195407
11.5933
0.000195479
11.5932
0.000195556
11.5932
0.000195686
11.5931
0.000195726
11.5931
0.000195853
11.593
0.000195979
11.593
0.000196102
11.5929
0.000196228
11.5929
0.000196354
11.5928
0.000196477
11.5928
0.000196594
11.5927
0.000196701
11.5925
0.000196795
11.5924
0.000196869
11.5922
0.000196914
11.592
0.000196915
11.5918
0.00019685
11.5915
0.000196689
11.5912
0.000196388
11.5909
0.000195889
11.5905
0.00019512
11.5901
0.000193992
11.5897
0.000192402
11.5892
0.000190237
11.5886
0.000187381
11.588
0.00018372
11.5873
0.000179156
11.5866
0.000173612
11.5858
0.000167046
11.585
0.000159455
11.5841
0.000150884
11.5832
0.000141424
11.5823
0.000131214
11.5813
0.000120431
11.5802
0.00010928
11.5792
9.79849e-05
11.5781
8.67727e-05
11.5769
7.58602e-05
11.5758
6.54426e-05
11.5746
5.56841e-05
11.5734
4.67107e-05
11.5722
3.86079e-05
11.571
3.14203e-05
11.5698
2.51551e-05
11.5685
1.97866e-05
11.5672
1.52632e-05
11.566
1.15144e-05
11.5647
8.45758e-06
11.5634
6.00429e-06
11.5621
4.06578e-06
11.5607
2.55709e-06
11.5593
1.40139e-06
11.558
5.30121e-07
11.5565
-1.17755e-07
11.5551
-5.91714e-07
11.5536
-9.3382e-07
11.5521
-1.17696e-06
11.5506
-1.34698e-06
11.549
-1.46383e-06
11.5474
-1.54262e-06
11.5457
-1.59457e-06
11.544
-1.62787e-06
11.5423
-1.6484e-06
11.5405
-1.66034e-06
11.5387
-1.66663e-06
11.5369
-1.66931e-06
11.535
-1.66978e-06
11.5331
-1.66901e-06
11.5312
-1.66777e-06
11.5293
-1.66646e-06
11.5273
-1.66518e-06
11.5254
-1.66404e-06
11.5234
-1.66338e-06
11.5215
-1.66356e-06
11.5195
-1.66462e-06
11.5176
-1.66635e-06
11.5156
-1.66866e-06
11.5137
-1.6716e-06
11.5118
-1.67517e-06
11.51
-1.67927e-06
11.5081
-1.68377e-06
11.5062
-1.6885e-06
11.5044
-1.69311e-06
11.5025
-1.69723e-06
11.5007
-1.70067e-06
11.4989
-1.70343e-06
11.497
-1.7056e-06
11.4952
-1.70733e-06
11.4933
-1.70883e-06
11.4914
-1.70962e-06
11.4895
-1.70955e-06
11.4875
-1.70874e-06
11.4855
-1.70746e-06
11.4835
-1.70574e-06
11.4814
-1.7032e-06
11.4793
-1.69973e-06
11.4771
-1.69541e-06
11.4749
-1.6904e-06
11.4726
-1.68475e-06
11.4703
-1.67853e-06
11.4679
-1.67192e-06
11.4654
-1.66518e-06
11.463
-1.65853e-06
11.4605
-1.65209e-06
11.458
-1.64598e-06
11.4555
-1.64031e-06
11.453
-1.63529e-06
11.4505
-1.63125e-06
11.448
-1.6266e-06
11.4456
-1.62254e-06
11.4432
-1.61971e-06
11.4409
-1.61793e-06
11.4387
-1.61674e-06
11.4366
-1.61567e-06
11.4345
-1.61472e-06
11.4326
-1.61386e-06
11.4307
-1.61317e-06
11.429
-1.61237e-06
11.4273
-1.61104e-06
11.4257
-1.60888e-06
11.4243
-1.60593e-06
11.4229
-1.6024e-06
11.4216
-1.59827e-06
11.4204
-1.59351e-06
11.4192
-1.58816e-06
11.4181
-1.58334e-06
11.4171
-1.57444e-06
11.4161
-1.5649e-06
11.4151
-1.55711e-06
11.4142
-1.54854e-06
11.4133
-1.53907e-06
11.4124
-1.5282e-06
11.4115
-1.51705e-06
11.4106
-1.5051e-06
11.4097
-1.49299e-06
11.4087
-1.48032e-06
11.4078
-1.46892e-06
11.4068
-1.45593e-06
11.4058
-1.44589e-06
11.4048
-1.43149e-06
11.4037
-1.42444e-06
11.4027
-1.40565e-06
11.4017
-1.3763e-06
11.4007
-1.44135e-06
11.3997
-1.38717e-06
11.3988
-1.39815e-06
11.398
-1.4185e-06
11.3973
-1.40224e-06
11.3966
-1.34708e-06
11.3961
-1.51474e-06
11.3956
-1.33129e-06
11.3953
-1.41877e-06
11.3951
-1.44553e-06
11.395
-1.43342e-06
11.3949
-1.43948e-06
11.395
-1.4433e-06
11.3951
-1.4533e-06
11.3952
-1.43118e-06
11.3954
-1.47365e-06
11.3957
-1.42504e-06
11.3959
-1.47693e-06
11.3962
-1.41956e-06
11.3964
-1.47421e-06
11.3967
-1.40312e-06
11.397
-1.46679e-06
11.3972
-1.41752e-06
11.3975
-1.44503e-06
11.3976
-1.41151e-06
11.3978
-1.4341e-06
11.3978
-1.43482e-06
11.3978
-1.18003e-06
11.3976
-1.60274e-06
11.3974
-1.06529e-06
11.397
-1.56749e-06
11.3965
-1.45435e-06
11.3959
-1.29371e-06
11.3952
-1.36904e-06
11.3944
-1.28086e-06
11.3935
-1.30572e-06
11.3926
-9.70847e-07
11.3916
6.42774e-07
11.3907
1.27624e-05
11.3898
9.68352e-05
11.3887
0.00068557
11.3849
0.00479032
11.3626
0.0332011
11.2165
0.234592
1.10047
10.5535
139.126
-0.000260527
139.126
-0.000215959
139.125
-0.000189346
139.125
-0.000194187
139.124
-0.000195605
139.124
-0.000195086
139.124
-0.000195012
139.123
-0.000195114
139.123
-0.000195199
139.122
-0.000195269
139.121
-0.000195338
139.121
-0.000195407
139.12
-0.000195479
139.119
-0.000195556
139.118
-0.000195686
139.117
-0.000195726
139.117
-0.000195853
139.116
-0.000195979
139.116
-0.000196102
139.115
-0.000196228
139.115
-0.000196354
139.114
-0.000196477
139.113
-0.000196594
139.112
-0.000196701
139.11
-0.000196795
139.109
-0.000196869
139.107
-0.000196914
139.104
-0.000196915
139.101
-0.00019685
139.098
-0.000196689
139.094
-0.000196388
139.09
-0.000195889
139.086
-0.00019512
139.081
-0.000193992
139.076
-0.000192402
139.07
-0.000190237
139.063
-0.000187381
139.056
-0.00018372
139.048
-0.000179156
139.039
-0.000173612
139.03
-0.000167046
139.02
-0.000159455
139.01
-0.000150884
138.999
-0.000141424
138.987
-0.000131214
138.975
-0.000120431
138.963
-0.00010928
138.95
-9.79849e-05
138.937
-8.67727e-05
138.923
-7.58602e-05
138.91
-6.54426e-05
138.896
-5.56841e-05
138.881
-4.67107e-05
138.867
-3.86079e-05
138.852
-3.14203e-05
138.837
-2.51551e-05
138.822
-1.97866e-05
138.807
-1.52632e-05
138.792
-1.15144e-05
138.776
-8.45758e-06
138.761
-6.00429e-06
138.745
-4.06579e-06
138.729
-2.55709e-06
138.712
-1.40139e-06
138.696
-5.30122e-07
138.679
1.17755e-07
138.661
5.91712e-07
138.644
9.33822e-07
138.626
1.17696e-06
138.607
1.34698e-06
138.588
1.46383e-06
138.569
1.54262e-06
138.549
1.59457e-06
138.529
1.62787e-06
138.508
1.6484e-06
138.487
1.66034e-06
138.465
1.66663e-06
138.443
1.66931e-06
138.42
1.66978e-06
138.398
1.66901e-06
138.375
1.66778e-06
138.351
1.66646e-06
138.328
1.66518e-06
138.305
1.66405e-06
138.281
1.66338e-06
138.258
1.66356e-06
138.234
1.66463e-06
138.211
1.66635e-06
138.188
1.66866e-06
138.165
1.6716e-06
138.142
1.67517e-06
138.119
1.67926e-06
138.097
1.68377e-06
138.075
1.6885e-06
138.053
1.69311e-06
138.031
1.69723e-06
138.009
1.70068e-06
137.987
1.70344e-06
137.964
1.7056e-06
137.942
1.70733e-06
137.92
1.70883e-06
137.897
1.70962e-06
137.874
1.70955e-06
137.851
1.70874e-06
137.827
1.70746e-06
137.802
1.70574e-06
137.777
1.70321e-06
137.752
1.69973e-06
137.725
1.69541e-06
137.699
1.69041e-06
137.671
1.68475e-06
137.643
1.67853e-06
137.614
1.67192e-06
137.585
1.66518e-06
137.556
1.65853e-06
137.526
1.65209e-06
137.496
1.64598e-06
137.466
1.64031e-06
137.436
1.63529e-06
137.406
1.63125e-06
137.376
1.6266e-06
137.347
1.62254e-06
137.319
1.61971e-06
137.291
1.61793e-06
137.265
1.61674e-06
137.239
1.61567e-06
137.214
1.61472e-06
137.191
1.61386e-06
137.169
1.61317e-06
137.148
1.61237e-06
137.128
1.61103e-06
137.109
1.60888e-06
137.091
1.60594e-06
137.075
1.60241e-06
137.059
1.59827e-06
137.044
1.59351e-06
137.031
1.58816e-06
137.018
1.58334e-06
137.005
1.57444e-06
136.993
1.5649e-06
136.982
1.5571e-06
136.971
1.54855e-06
136.96
1.53905e-06
136.949
1.52822e-06
136.938
1.51702e-06
136.927
1.50515e-06
136.916
1.49285e-06
136.905
1.48055e-06
136.893
1.46838e-06
136.882
1.4567e-06
136.87
1.44465e-06
136.857
1.43376e-06
136.845
1.42445e-06
136.833
1.42839e-06
136.82
1.44946e-06
136.808
1.24035e-06
136.797
1.53834e-06
136.786
1.39142e-06
136.776
1.33203e-06
136.767
1.37145e-06
136.76
1.66495e-06
136.753
1.19702e-06
136.748
1.63874e-06
136.744
1.29172e-06
136.741
1.34038e-06
136.74
1.43942e-06
136.739
1.4312e-06
136.74
1.456e-06
136.741
1.42094e-06
136.743
1.50876e-06
136.745
1.36491e-06
136.748
1.54703e-06
136.751
1.34055e-06
136.754
1.54206e-06
136.757
1.35447e-06
136.761
1.53683e-06
136.764
1.33898e-06
136.767
1.53198e-06
136.77
1.3421e-06
136.772
1.51094e-06
136.773
1.3163e-06
136.774
1.25791e-06
136.773
2.15604e-06
136.771
-1.55085e-07
136.768
2.6922e-06
136.764
1.36887e-06
136.758
8.44993e-07
136.751
1.67761e-06
136.742
1.05265e-06
136.732
1.60288e-06
136.722
1.10092e-06
136.711
1.94219e-06
136.7
3.61571e-06
136.689
1.99456e-05
136.679
0.000132241
136.67
0.000939863
136.661
0.00673238
136.641
0.0485122
136.492
0.381291
1.63488
135.958
11.5939
-0.00032777
11.5938
-0.000235217
11.5938
-0.000224715
11.5937
-0.000226885
11.5937
-0.000227426
11.5937
-0.000227339
11.5936
-0.000227388
11.5936
-0.000227492
11.5936
-0.000227581
11.5935
-0.000227659
11.5935
-0.000227731
11.5934
-0.000227802
11.5933
-0.000227876
11.5932
-0.000227951
11.5932
-0.000228116
11.5931
-0.000228107
11.5931
-0.000228272
11.593
-0.0002284
11.593
-0.000228532
11.5929
-0.000228667
11.5929
-0.000228801
11.5928
-0.000228931
11.5928
-0.000229054
11.5927
-0.000229165
11.5925
-0.000229261
11.5924
-0.000229333
11.5922
-0.000229371
11.592
-0.000229358
11.5918
-0.000229268
11.5915
-0.000229066
11.5912
-0.0002287
11.5909
-0.000228104
11.5905
-0.000227194
11.5901
-0.000225865
11.5897
-0.000223999
11.5892
-0.000221466
11.5886
-0.000218129
11.588
-0.000213859
11.5873
-0.000208538
11.5866
-0.000202081
11.5858
-0.000194436
11.585
-0.000185601
11.5841
-0.000175628
11.5832
-0.000164623
11.5823
-0.000152747
11.5813
-0.000140204
11.5802
-0.000127233
11.5792
-0.000114093
11.5781
-0.000101049
11.5769
-8.8352e-05
11.5758
-7.62291e-05
11.5746
-6.48712e-05
11.5734
-5.44253e-05
11.5722
-4.49911e-05
11.571
-3.6621e-05
11.5698
-2.93234e-05
11.5685
-2.30691e-05
11.5672
-1.77982e-05
11.566
-1.34289e-05
11.5647
-9.86511e-06
11.5634
-7.00433e-06
11.5621
-4.74345e-06
11.5607
-2.98378e-06
11.5593
-1.63494e-06
11.558
-6.16674e-07
11.5565
1.40675e-07
11.5551
6.94621e-07
11.5536
1.09361e-06
11.5521
1.37661e-06
11.5506
1.57417e-06
11.549
1.70974e-06
11.5474
1.80103e-06
11.5457
1.86113e-06
11.544
1.89958e-06
11.5423
1.92325e-06
11.5405
1.93697e-06
11.5387
1.94416e-06
11.5369
1.94719e-06
11.535
1.94768e-06
11.5331
1.94673e-06
11.5312
1.94529e-06
11.5293
1.94369e-06
11.5273
1.94224e-06
11.5254
1.94087e-06
11.5234
1.94008e-06
11.5215
1.94031e-06
11.5195
1.94155e-06
11.5176
1.94355e-06
11.5156
1.94623e-06
11.5137
1.94968e-06
11.5118
1.95383e-06
11.51
1.95861e-06
11.5081
1.96386e-06
11.5062
1.96939e-06
11.5044
1.97476e-06
11.5025
1.97956e-06
11.5007
1.98357e-06
11.4989
1.9868e-06
11.497
1.98932e-06
11.4952
1.99133e-06
11.4933
1.99314e-06
11.4914
1.99394e-06
11.4895
1.99398e-06
11.4875
1.99297e-06
11.4855
1.99148e-06
11.4835
1.98948e-06
11.4814
1.98652e-06
11.4793
1.98247e-06
11.4771
1.97741e-06
11.4749
1.9716e-06
11.4726
1.96499e-06
11.4703
1.95773e-06
11.4679
1.95002e-06
11.4654
1.94215e-06
11.463
1.93439e-06
11.4605
1.92688e-06
11.458
1.91975e-06
11.4555
1.91313e-06
11.453
1.90726e-06
11.4505
1.90276e-06
11.448
1.8969e-06
11.4456
1.8925e-06
11.4432
1.88909e-06
11.4409
1.88702e-06
11.4387
1.88568e-06
11.4366
1.8844e-06
11.4345
1.8833e-06
11.4326
1.88229e-06
11.4307
1.88148e-06
11.429
1.88057e-06
11.4273
1.879e-06
11.4257
1.87648e-06
11.4243
1.87304e-06
11.4229
1.86893e-06
11.4216
1.86409e-06
11.4204
1.85854e-06
11.4192
1.85218e-06
11.4181
1.84713e-06
11.4171
1.83598e-06
11.4161
1.82509e-06
11.4151
1.81614e-06
11.4142
1.80613e-06
11.4133
1.7951e-06
11.4124
1.78237e-06
11.4115
1.76942e-06
11.4106
1.75547e-06
11.4097
1.74115e-06
11.4087
1.7268e-06
11.4078
1.71269e-06
11.4068
1.69889e-06
11.4058
1.68506e-06
11.4048
1.67188e-06
11.4037
1.66002e-06
11.4027
1.65407e-06
11.4017
1.65958e-06
11.4007
1.5837e-06
11.3997
1.67355e-06
11.3988
1.62605e-06
11.398
1.60662e-06
11.3973
1.62357e-06
11.3966
1.71977e-06
11.3961
1.57505e-06
11.3956
1.72322e-06
11.3953
1.61527e-06
11.3951
1.63519e-06
11.395
1.67364e-06
11.3949
1.67506e-06
11.395
1.68823e-06
11.3951
1.67829e-06
11.3952
1.71053e-06
11.3954
1.66254e-06
11.3957
1.7236e-06
11.3959
1.6522e-06
11.3962
1.71901e-06
11.3964
1.65403e-06
11.3967
1.71379e-06
11.397
1.64433e-06
11.3972
1.70681e-06
11.3975
1.63872e-06
11.3976
1.691e-06
11.3978
1.61893e-06
11.3978
1.59377e-06
11.3978
1.88266e-06
11.3976
1.11136e-06
11.3974
2.0388e-06
11.397
1.59394e-06
11.3965
1.40545e-06
11.3959
1.67656e-06
11.3952
1.45658e-06
11.3944
1.63415e-06
11.3935
1.46173e-06
11.3926
1.74265e-06
11.3917
2.31392e-06
11.3908
7.87262e-06
11.39
4.61091e-05
11.3899
0.000321298
11.3938
0.00231389
11.4246
0.017292
11.6196
0.186054
0.706633
12.5479
5.79656
5.79629
5.79602
5.79576
5.7955
5.79524
5.79499
5.79473
5.79447
5.7942
5.79392
5.79364
5.79336
5.79308
5.7928
5.79253
5.79226
5.792
5.79173
5.79146
5.7912
5.79092
5.79064
5.79035
5.79004
5.78972
5.78939
5.78903
5.78867
5.78829
5.7879
5.78749
5.78707
5.78663
5.78617
5.78568
5.78517
5.78464
5.78408
5.7835
5.78291
5.7823
5.78167
5.78104
5.7804
5.77975
5.77909
5.77844
5.77778
5.77712
5.77647
5.77581
5.77516
5.77451
5.77385
5.77321
5.77256
5.7719
5.77125
5.7706
5.76994
5.76927
5.7686
5.76791
5.76722
5.76651
5.76579
5.76506
5.76431
5.76354
5.76275
5.76195
5.76112
5.76028
5.75941
5.75853
5.75763
5.75671
5.75578
5.75483
5.75388
5.75291
5.75194
5.75097
5.74999
5.74901
5.74804
5.74707
5.74611
5.74516
5.74421
5.74327
5.74234
5.74141
5.74049
5.73958
5.73866
5.73775
5.73683
5.7359
5.73497
5.73403
5.73307
5.73209
5.7311
5.73008
5.72904
5.72798
5.72689
5.72578
5.72463
5.72347
5.72228
5.72107
5.71984
5.7186
5.71735
5.71609
5.71484
5.7136
5.71237
5.71116
5.70998
5.70883
5.70773
5.70666
5.70564
5.70466
5.70374
5.70286
5.70203
5.70125
5.70052
5.69983
5.69919
5.69858
5.698
5.69746
5.69694
5.69645
5.69597
5.69551
5.69506
5.69461
5.69416
5.69371
5.69326
5.69279
5.69231
5.69182
5.69132
5.69082
5.6903
5.68979
5.68928
5.68878
5.68831
5.68786
5.68745
5.68708
5.68676
5.68649
5.68627
5.68611
5.686
5.68594
5.68593
5.68595
5.686
5.68608
5.68618
5.6863
5.68643
5.68656
5.6867
5.68684
5.68697
5.6871
5.68722
5.68731
5.68737
5.68739
5.68737
5.6873
5.68717
5.68699
5.68674
5.68644
5.68608
5.68568
5.68525
5.6848
5.68434
5.68389
5.68352
5.68348
5.68551
5.70261
5.88857
6.5952
5.01841
0.124779
5.02672
-0.00829926
5.02566
0.00106816
5.03583
-0.0101609
5.06227
-0.0264421
5.10799
-0.0457369
5.15569
-0.0477607
5.16328
-0.00764309
5.1222
0.0411734
5.05401
0.0683777
5.04197
0.0120877
5.27138
-0.22874
5.68492
-0.41325
6.11292
-0.428575
6.33407
-0.222233
6.27796
0.0552383
6.12016
0.157487
5.90653
0.213467
5.70853
0.198021
-0.549746
6.25932
10.502
0.176267
10.5235
-0.0297415
10.5763
-0.051694
10.6429
-0.0767548
10.7346
-0.118119
10.8694
-0.180636
11.0125
-0.190919
11.0788
-0.0740382
11.0462
0.073938
10.9419
0.173164
10.8856
0.068533
11.2661
-0.607776
12.0092
-1.15615
12.9002
-1.32112
13.5168
-0.841221
13.6293
-0.0583671
13.488
0.298622
13.1371
0.564342
12.5591
0.776397
-1.00894
13.0202
136.011
0.123336
136.085
-0.103285
136.086
-0.0527879
135.915
0.0954203
135.568
0.229748
135.07
0.318126
134.51
0.370908
134.076
0.359709
133.761
0.390534
133.573
0.360519
133.281
0.360253
132.333
0.339894
130.861
0.317861
129.255
0.289133
128.168
0.250996
127.906
0.207366
128.044
0.161154
128.5
0.107756
129.24
0.0350078
-0.16194
128.39
12.492
0.179223
12.3951
-0.00637329
12.3499
-0.00757384
12.4213
0.0239145
12.5945
0.0565355
12.8302
0.0821885
13.1006
0.0999288
13.36
0.100853
13.6408
0.109341
13.8986
0.103138
14.157
0.10194
14.4011
0.0958173
14.6317
0.0873405
14.8457
0.0751167
15.0384
0.0583407
15.2079
0.0378974
15.3558
0.0132627
15.4834
-0.0198195
15.5953
-0.0768633
-0.252059
15.6854
6.77443
6.76806
6.76048
6.78437
6.84085
6.92294
7.02269
7.12368
7.23293
7.33621
7.43822
7.53406
7.62141
7.69653
7.75486
7.79276
7.80603
7.78623
7.70938
7.45733
7.56564
-1.30269
7.89619
-0.331045
7.8821
0.0135974
7.81005
0.0722031
7.81428
-0.00411571
7.86365
-0.0495513
7.88623
-0.0228662
7.88155
0.00457301
7.87201
0.00949117
7.86592
0.0060129
7.86301
0.00284068
7.86067
0.00233099
7.85758
0.00310078
7.854
0.00360327
7.85055
0.00347243
7.84758
0.00299326
7.84517
0.00242383
7.84331
0.00187279
7.84194
0.00136508
7.84101
0.000910901
7.84042
0.000540516
7.84006
0.000296339
7.83975
0.000209949
7.83934
0.000283618
7.83872
0.000461858
7.83803
0.000506532
7.8382
-0.000386827
7.84146
-0.00350792
7.84659
-0.00542261
7.85038
-0.00414382
7.85118
-0.00118489
7.84945
0.00133953
7.84709
0.00194286
7.84446
0.00218515
7.84186
0.00213234
7.83948
0.00189615
7.83746
0.00153112
7.83588
0.00108902
7.83472
0.000652589
7.83388
0.000315304
7.83318
0.000155409
7.83241
0.000221995
7.83135
0.000482211
7.82994
0.000827638
7.8282
0.00115052
7.82621
0.00138542
7.82389
0.00172187
7.82089
0.00240095
7.81648
0.0037766
7.80965
0.00618376
7.79918
0.00979865
7.78389
0.0145905
7.76274
0.0204366
7.73494
0.0270959
7.69988
0.0343733
7.65704
0.0421574
7.60582
0.0505507
7.54544
0.0597159
7.47492
0.0698563
7.39311
0.081102
7.29865
0.0935085
7.19044
0.106265
7.06933
0.118901
6.93743
0.130536
6.7972
0.139469
6.65261
0.14428
6.50878
0.144906
6.36995
0.13968
6.24041
0.12978
6.12397
0.116226
6.02302
0.100468
5.93839
0.084076
5.86945
0.0683004
5.81472
0.0540813
5.77222
0.0418847
5.73981
0.0318163
5.71546
0.0237714
5.69739
0.0175082
5.68408
0.0127348
5.67435
0.00915962
5.66726
0.0065217
5.66207
0.00460288
5.65827
0.00321798
5.65543
0.00223145
5.65328
0.00153489
5.65161
0.00104733
5.65025
0.000708984
5.64911
0.000476124
5.64811
0.000317167
5.64719
0.000209529
5.64633
0.000137225
5.64549
8.90446e-05
5.64466
5.71956e-05
5.64382
3.63117e-05
5.64296
2.27287e-05
5.64209
1.39665e-05
5.64119
8.36095e-06
5.64027
4.80523e-06
5.63932
2.56966e-06
5.63834
1.17717e-06
5.63734
3.17974e-07
5.63631
-2.05535e-07
5.63525
-5.20249e-07
5.63417
-7.05199e-07
5.63308
-8.12419e-07
5.63196
-8.72336e-07
5.63084
-9.0428e-07
5.6297
-9.1997e-07
5.62857
-9.26486e-07
5.62743
-9.28067e-07
5.62629
-9.2727e-07
5.62517
-9.25576e-07
5.62405
-9.23819e-07
5.62295
-9.22477e-07
5.62188
-9.21869e-07
5.62082
-9.22222e-07
5.61979
-9.23663e-07
5.61879
-9.26237e-07
5.61781
-9.2994e-07
5.61686
-9.34726e-07
5.61595
-9.40476e-07
5.61506
-9.46982e-07
5.6142
-9.54011e-07
5.61337
-9.61401e-07
5.61256
-9.6905e-07
5.61177
-9.76874e-07
5.61101
-9.84735e-07
5.61026
-9.92473e-07
5.60953
-9.99929e-07
5.60881
-1.00699e-06
5.60809
-1.01356e-06
5.60739
-1.01956e-06
5.60669
-1.02489e-06
5.60598
-1.02944e-06
5.60527
-1.03305e-06
5.60456
-1.03559e-06
5.60383
-1.03681e-06
5.60309
-1.03646e-06
5.60232
-1.03442e-06
5.60154
-1.03076e-06
5.60072
-1.02567e-06
5.59988
-1.01925e-06
5.59901
-1.01154e-06
5.5981
-1.00255e-06
5.59715
-9.92326e-07
5.59616
-9.80952e-07
5.59513
-9.68528e-07
5.59405
-9.552e-07
5.59294
-9.41178e-07
5.59179
-9.26699e-07
5.59059
-9.12074e-07
5.58937
-8.9762e-07
5.58811
-8.83645e-07
5.58682
-8.70372e-07
5.58552
-8.58081e-07
5.5842
-8.46923e-07
5.58288
-8.37181e-07
5.58156
-8.28924e-07
5.58025
-8.22465e-07
5.57895
-8.17774e-07
5.57768
-8.15151e-07
5.57643
-8.14078e-07
5.57523
-8.14556e-07
5.57406
-8.15939e-07
5.57295
-8.18833e-07
5.57188
-8.22703e-07
5.57086
-8.27875e-07
5.5699
-8.33657e-07
5.56899
-8.40122e-07
5.56813
-8.4659e-07
5.56732
-8.53179e-07
5.56656
-8.59462e-07
5.56584
-8.65695e-07
5.56516
-8.71627e-07
5.56452
-8.77584e-07
5.56392
-8.83105e-07
5.56334
-8.8896e-07
5.5628
-8.94481e-07
5.56229
-9.00412e-07
5.5618
-9.05671e-07
5.56134
-9.11537e-07
5.56089
-9.16678e-07
5.56047
-9.21658e-07
5.56005
-9.25473e-07
5.55963
-9.28914e-07
5.55922
-9.29878e-07
5.55879
-9.29573e-07
5.55833
-9.26455e-07
5.55785
-9.27848e-07
5.55733
-9.54367e-07
5.55676
-1.12541e-06
5.55613
-2.03612e-06
5.55544
-6.78612e-06
5.55472
-3.13577e-05
5.55405
-0.00015845
5.55396
-0.000817004
5.55725
-0.00426656
5.57928
-0.0230666
5.74737
-0.169212
-0.657772
6.40394
14.5703
-2.8456
15.2114
-0.973372
15.2544
-0.0302034
15.0799
0.246933
15.0281
0.0479523
15.0987
-0.120435
15.1518
-0.0765177
15.1505
0.00563255
15.1314
0.0284479
15.1171
0.0201291
15.1102
0.00964419
15.1055
0.0070513
15.0995
0.00915088
15.0921
0.0110068
15.0845
0.0111035
15.0774
0.0100976
15.0712
0.00871852
15.0657
0.00731609
15.0611
0.00598303
15.0572
0.00476595
15.0539
0.00378044
15.0508
0.00319241
15.0477
0.00314929
15.044
0.0037215
15.0393
0.00481224
15.0337
0.0057697
15.0287
0.004134
15.0302
-0.0055143
15.0387
-0.0144933
15.0488
-0.0149412
15.0553
-0.00843919
15.0563
-0.000415381
15.0545
0.00293036
15.0507
0.00504561
15.0458
0.00612122
15.0402
0.00652305
15.0344
0.00641333
15.0285
0.00596112
15.0227
0.00546207
15.0166
0.00527715
15.01
0.00572056
15.002
0.0070127
14.9923
0.00905955
14.9805
0.0114918
14.9667
0.013762
14.9514
0.0154472
14.9351
0.0168521
14.9177
0.0185607
14.8985
0.0216875
14.876
0.0273793
14.8479
0.0364109
14.812
0.0490578
14.766
0.0650593
14.7079
0.0838294
14.6362
0.10475
14.5497
0.127326
14.4473
0.151561
14.3281
0.177572
14.1911
0.205534
14.0352
0.235371
13.8595
0.26641
13.6652
0.296997
13.4559
0.325741
13.2353
0.349591
13.0084
0.36527
12.7822
0.370845
12.5633
0.365177
12.3567
0.346646
12.1681
0.318086
12.0013
0.282273
11.8582
0.242534
11.7389
0.202307
11.6417
0.164273
11.5644
0.130249
11.5039
0.101178
11.4574
0.0771798
11.4221
0.0579517
11.3956
0.042915
11.3758
0.0313891
11.3611
0.0227038
11.3503
0.0162565
11.3422
0.0115275
11.3361
0.00809891
11.3315
0.0056403
11.3279
0.00389476
11.325
0.00266681
11.3226
0.00181084
11.3206
0.00121946
11.3187
0.000814414
11.317
0.000539385
11.3153
0.000354228
11.3136
0.000230633
11.312
0.00014883
11.3103
9.51449e-05
11.3086
6.02101e-05
11.3069
3.76691e-05
11.3051
2.3248e-05
11.3033
1.41003e-05
11.3014
8.34801e-06
11.2994
4.76257e-06
11.2974
2.54647e-06
11.2953
1.1912e-06
11.2932
3.68704e-07
11.291
-1.21521e-07
11.2889
-4.13054e-07
11.2866
-5.82789e-07
11.2844
-6.79892e-07
11.2821
-7.3406e-07
11.2798
-7.63229e-07
11.2775
-7.7814e-07
11.2753
-7.85182e-07
11.273
-7.88094e-07
11.2708
-7.89042e-07
11.2686
-7.89263e-07
11.2664
-7.89496e-07
11.2643
-7.90204e-07
11.2622
-7.91655e-07
11.2602
-7.93982e-07
11.2583
-7.97226e-07
11.2564
-8.01364e-07
11.2546
-8.06307e-07
11.2528
-8.11889e-07
11.2511
-8.17921e-07
11.2494
-8.24268e-07
11.2478
-8.30826e-07
11.2462
-8.37526e-07
11.2447
-8.44252e-07
11.2432
-8.50875e-07
11.2417
-8.57265e-07
11.2403
-8.63315e-07
11.2388
-8.68948e-07
11.2374
-8.74094e-07
11.236
-8.78667e-07
11.2346
-8.82564e-07
11.2332
-8.8567e-07
11.2317
-8.87848e-07
11.2303
-8.88906e-07
11.2288
-8.88624e-07
11.2273
-8.86891e-07
11.2257
-8.83764e-07
11.2241
-8.79389e-07
11.2224
-8.73872e-07
11.2206
-8.67263e-07
11.2188
-8.59554e-07
11.2169
-8.50804e-07
11.2149
-8.41043e-07
11.2129
-8.30398e-07
11.2107
-8.18962e-07
11.2085
-8.06941e-07
11.2062
-7.94529e-07
11.2038
-7.82e-07
11.2013
-7.69592e-07
11.1988
-7.57616e-07
11.1962
-7.46211e-07
11.1936
-7.35701e-07
11.191
-7.2608e-07
11.1883
-7.17795e-07
11.1857
-7.10658e-07
11.1831
-7.05238e-07
11.1805
-7.01035e-07
11.1779
-6.99008e-07
11.1754
-6.97853e-07
11.173
-6.98536e-07
11.1707
-6.99445e-07
11.1685
-7.02224e-07
11.1663
-7.05287e-07
11.1643
-7.09898e-07
11.1624
-7.14651e-07
11.1605
-7.20385e-07
11.1588
-7.25754e-07
11.1572
-7.31548e-07
11.1557
-7.36824e-07
11.1542
-7.42284e-07
11.1529
-7.4725e-07
11.1516
-7.5258e-07
11.1504
-7.56906e-07
11.1492
-7.62326e-07
11.1481
-7.66789e-07
11.1471
-7.7239e-07
11.1461
-7.76051e-07
11.1452
-7.81708e-07
11.1443
-7.85809e-07
11.1435
-7.90567e-07
11.1426
-7.92967e-07
11.1418
-7.96796e-07
11.1409
-7.96755e-07
11.1401
-7.98088e-07
11.1392
-7.96367e-07
11.1382
-8.11562e-07
11.1372
-9.04509e-07
11.136
-1.42543e-06
11.1348
-4.12742e-06
11.1334
-1.81187e-05
11.1319
-9.03878e-05
11.1306
-0.000463949
11.1303
-0.00239621
11.1365
-0.0124219
11.1762
-0.0648451
11.3694
-0.364629
-1.50713
12.2164
125.476
0.0570596
124.536
-0.0378166
124.493
0.0097547
124.696
0.0402231
124.707
0.0332183
124.569
0.0127723
124.497
-0.00748605
124.511
-0.0109644
124.546
-0.00822082
124.573
-0.00800495
124.591
-0.00914507
124.608
-0.00996211
124.627
-0.00981654
124.648
-0.0090554
124.667
-0.00820674
124.685
-0.00743363
124.701
-0.0067107
124.715
-0.00599872
124.726
-0.00530487
124.735
-0.00465929
124.741
-0.00407164
124.746
-0.00348273
124.75
-0.00287135
124.753
-0.00216885
124.756
-0.00125106
124.757
-0.000421794
124.756
0.000162593
124.744
0.000305489
124.722
-0.000484371
124.701
-0.00156407
124.686
-0.00218625
124.677
-0.00186267
124.671
-0.00129846
124.666
-0.000922759
124.662
-0.000716155
124.657
-0.000740573
124.652
-0.0010115
124.647
-0.00156414
124.642
-0.00281212
124.639
-0.00443613
124.638
-0.00645423
124.64
-0.00880462
124.648
-0.0115406
124.661
-0.0150134
124.684
-0.0199268
124.72
-0.0271115
124.769
-0.0378616
124.834
-0.0529893
124.919
-0.0731198
125.034
-0.0984961
125.187
-0.129012
125.386
-0.164019
125.639
-0.20237
125.949
-0.242282
126.319
-0.281338
126.747
-0.316628
127.227
-0.345129
127.753
-0.364352
128.316
-0.373104
128.908
-0.372004
129.521
-0.362036
130.149
-0.344954
130.783
-0.322521
131.416
-0.296322
132.035
-0.267271
132.629
-0.236228
133.186
-0.204659
133.693
-0.174064
134.143
-0.145438
134.531
-0.119454
134.857
-0.096616
135.123
-0.0770673
135.335
-0.0606974
135.499
-0.0472567
135.624
-0.0363722
135.715
-0.0276823
135.781
-0.0208339
135.827
-0.0155034
135.856
-0.0114092
135.874
-0.00830282
135.882
-0.005973
135.884
-0.00424973
135.881
-0.00299051
135.875
-0.00208104
135.865
-0.00143255
135.854
-0.000975396
135.841
-0.00065693
135.826
-0.000437639
135.811
-0.000288362
135.795
-0.000187893
135.778
-0.000121029
135.76
-7.70235e-05
135.742
-4.83815e-05
135.723
-2.99436e-05
135.703
-1.82044e-05
135.682
-1.0812e-05
135.661
-6.20808e-06
135.639
-3.37316e-06
135.616
-1.64797e-06
135.593
-6.09289e-07
135.569
6.096e-09
135.544
3.65241e-07
135.518
5.71695e-07