/*--------------------------------*- C++ -*----------------------------------*\
| =========                 |                                                 |
| \\      /  F ield         | OpenFOAM: The Open Source CFD Toolbox           |
|  \\    /   O peration     | Version:  3.0.x                                 |
|   \\  /    A nd           | Web:      www.OpenFOAM.org                      |
|    \\/     M anipulation  |                                                 |
\*---------------------------------------------------------------------------*/
FoamFile
{
    version     2.0;
    format      ascii;
    class       volScalarField;
    location    "0.28";
    object      T;
}
// * * * * * * * * * * * * * * * * * * * * * * * * * * * * * * * * * * * * * //

dimensions      [0 0 0 1 0 0 0];

internalField   nonuniform List<scalar> 
6900
(
774.44
774.44
774.44
774.44
774.438
774.436
774.433
774.43
774.428
774.426
774.425
774.425
774.425
774.425
774.424
774.422
774.42
774.418
774.415
774.411
774.407
774.404
774.4
774.396
774.394
774.391
774.39
774.389
774.388
774.387
774.386
774.383
774.38
774.376
774.373
774.37
774.368
774.366
774.364
774.363
774.362
774.361
774.361
774.36
774.36
774.359
774.358
774.358
774.357
774.356
774.356
774.355
774.354
774.353
774.352
774.351
774.35
774.349
774.348
774.347
774.346
774.344
774.343
774.342
774.34
774.339
774.338
774.336
774.335
774.333
774.332
774.33
774.329
774.328
774.326
774.325
774.323
774.322
774.321
774.32
774.318
774.317
774.316
774.314
774.313
774.312
774.311
774.309
774.308
774.306
774.305
774.303
774.302
774.3
774.299
774.297
774.295
774.294
774.292
774.29
774.288
774.286
774.284
774.282
774.28
774.278
774.276
774.275
774.273
774.271
774.269
774.267
774.265
774.263
774.262
774.26
774.258
774.257
774.255
774.254
774.252
774.25
774.249
774.247
774.246
774.244
774.243
774.241
774.24
774.238
774.237
774.235
774.234
774.232
774.231
774.229
774.228
774.226
774.225
774.224
774.223
774.221
774.22
774.219
774.218
774.217
774.217
774.216
774.215
774.215
774.215
774.214
774.214
774.214
774.214
774.214
774.214
774.214
774.214
774.214
774.214
774.214
774.214
774.214
774.214
774.213
774.213
774.213
774.212
774.212
774.212
774.211
774.211
774.211
774.21
774.21
774.209
774.209
774.209
774.209
774.208
774.208
774.208
774.208
774.208
774.209
774.209
774.21
774.21
774.211
774.212
774.212
774.213
774.214
774.214
774.215
774.216
774.217
774.217
774.286
774.438
774.438
774.438
774.438
774.436
774.434
774.431
774.428
774.426
774.424
774.423
774.423
774.423
774.423
774.422
774.421
774.418
774.416
774.413
774.409
774.406
774.402
774.398
774.395
774.392
774.39
774.388
774.387
774.387
774.386
774.384
774.381
774.378
774.375
774.372
774.369
774.366
774.364
774.363
774.362
774.361
774.36
774.359
774.359
774.358
774.358
774.357
774.356
774.356
774.355
774.354
774.354
774.353
774.352
774.351
774.35
774.349
774.348
774.347
774.346
774.344
774.343
774.342
774.34
774.339
774.338
774.336
774.335
774.333
774.332
774.331
774.329
774.328
774.326
774.325
774.323
774.322
774.321
774.32
774.318
774.317
774.316
774.314
774.313
774.312
774.311
774.309
774.308
774.307
774.305
774.304
774.302
774.301
774.299
774.297
774.296
774.294
774.292
774.291
774.289
774.287
774.285
774.283
774.281
774.279
774.277
774.275
774.273
774.271
774.269
774.268
774.266
774.264
774.262
774.26
774.259
774.257
774.255
774.254
774.252
774.251
774.249
774.248
774.246
774.245
774.243
774.242
774.24
774.239
774.237
774.235
774.234
774.232
774.231
774.229
774.228
774.227
774.225
774.224
774.223
774.221
774.22
774.219
774.218
774.217
774.216
774.215
774.215
774.214
774.214
774.213
774.213
774.213
774.213
774.213
774.213
774.213
774.213
774.213
774.213
774.213
774.213
774.213
774.213
774.212
774.212
774.212
774.212
774.211
774.211
774.21
774.21
774.21
774.209
774.209
774.209
774.208
774.208
774.208
774.207
774.207
774.207
774.207
774.207
774.207
774.207
774.208
774.208
774.209
774.21
774.21
774.211
774.212
774.213
774.213
774.214
774.214
774.216
774.216
774.28
774.438
774.438
774.438
774.438
774.436
774.434
774.431
774.428
774.426
774.424
774.423
774.423
774.423
774.423
774.422
774.421
774.418
774.416
774.413
774.41
774.406
774.402
774.398
774.395
774.392
774.39
774.388
774.387
774.387
774.386
774.384
774.382
774.378
774.375
774.372
774.369
774.366
774.364
774.363
774.362
774.361
774.36
774.359
774.359
774.358
774.358
774.357
774.356
774.356
774.355
774.354
774.354
774.353
774.352
774.351
774.35
774.349
774.348
774.347
774.346
774.344
774.343
774.342
774.34
774.339
774.338
774.336
774.335
774.333
774.332
774.331
774.329
774.328
774.326
774.325
774.323
774.322
774.321
774.32
774.318
774.317
774.316
774.314
774.313
774.312
774.311
774.309
774.308
774.307
774.305
774.304
774.302
774.301
774.299
774.297
774.296
774.294
774.292
774.291
774.289
774.287
774.285
774.283
774.281
774.279
774.277
774.275
774.273
774.271
774.269
774.268
774.266
774.264
774.262
774.26
774.259
774.257
774.255
774.254
774.252
774.251
774.249
774.248
774.246
774.245
774.243
774.242
774.24
774.239
774.237
774.235
774.234
774.232
774.231
774.229
774.228
774.227
774.225
774.224
774.223
774.221
774.22
774.219
774.218
774.217
774.216
774.215
774.215
774.214
774.214
774.213
774.213
774.213
774.213
774.213
774.213
774.213
774.213
774.213
774.213
774.213
774.213
774.213
774.213
774.212
774.212
774.212
774.212
774.211
774.211
774.21
774.21
774.21
774.209
774.209
774.209
774.208
774.208
774.208
774.207
774.207
774.207
774.207
774.207
774.207
774.207
774.208
774.208
774.209
774.21
774.21
774.211
774.212
774.213
774.213
774.214
774.214
774.215
774.215
774.218
774.438
774.438
774.438
774.438
774.436
774.434
774.431
774.428
774.426
774.424
774.423
774.423
774.423
774.423
774.422
774.421
774.418
774.416
774.413
774.409
774.406
774.402
774.398
774.395
774.392
774.39
774.388
774.387
774.387
774.386
774.384
774.381
774.378
774.375
774.372
774.369
774.366
774.364
774.363
774.362
774.361
774.36
774.359
774.359
774.358
774.358
774.357
774.356
774.356
774.355
774.354
774.354
774.353
774.352
774.351
774.35
774.349
774.348
774.347
774.346
774.344
774.343
774.342
774.34
774.339
774.338
774.336
774.335
774.333
774.332
774.331
774.329
774.328
774.326
774.325
774.323
774.322
774.321
774.32
774.318
774.317
774.316
774.314
774.313
774.312
774.311
774.309
774.308
774.307
774.305
774.304
774.302
774.301
774.299
774.297
774.296
774.294
774.292
774.291
774.289
774.287
774.285
774.283
774.281
774.279
774.277
774.275
774.273
774.271
774.269
774.268
774.266
774.264
774.262
774.26
774.259
774.257
774.255
774.254
774.252
774.251
774.249
774.248
774.246
774.245
774.243
774.242
774.24
774.239
774.237
774.235
774.234
774.232
774.231
774.229
774.228
774.227
774.225
774.224
774.223
774.221
774.22
774.219
774.218
774.217
774.216
774.215
774.215
774.214
774.214
774.213
774.213
774.213
774.213
774.213
774.213
774.213
774.213
774.213
774.213
774.213
774.213
774.213
774.213
774.212
774.212
774.212
774.212
774.211
774.211
774.21
774.21
774.21
774.209
774.209
774.209
774.208
774.208
774.208
774.207
774.207
774.207
774.207
774.207
774.207
774.207
774.208
774.208
774.209
774.21
774.21
774.211
774.212
774.213
774.213
774.214
774.215
774.212
774.217
774.092
774.44
774.44
774.44
774.44
774.438
774.436
774.433
774.43
774.428
774.426
774.425
774.425
774.425
774.425
774.424
774.422
774.42
774.418
774.415
774.411
774.407
774.404
774.4
774.396
774.394
774.391
774.39
774.389
774.388
774.387
774.386
774.383
774.38
774.376
774.373
774.37
774.368
774.366
774.364
774.363
774.362
774.361
774.361
774.36
774.36
774.359
774.358
774.358
774.357
774.356
774.356
774.355
774.354
774.353
774.352
774.351
774.35
774.349
774.348
774.347
774.346
774.344
774.343
774.342
774.34
774.339
774.338
774.336
774.335
774.333
774.332
774.33
774.329
774.328
774.326
774.325
774.323
774.322
774.321
774.32
774.318
774.317
774.316
774.314
774.313
774.312
774.311
774.309
774.308
774.306
774.305
774.303
774.302
774.3
774.299
774.297
774.295
774.294
774.292
774.29
774.288
774.286
774.284
774.282
774.28
774.278
774.276
774.275
774.273
774.271
774.269
774.267
774.265
774.263
774.262
774.26
774.258
774.257
774.255
774.254
774.252
774.25
774.249
774.247
774.246
774.244
774.243
774.241
774.24
774.238
774.237
774.235
774.234
774.232
774.231
774.229
774.228
774.226
774.225
774.224
774.223
774.221
774.22
774.219
774.218
774.217
774.217
774.216
774.215
774.215
774.215
774.214
774.214
774.214
774.214
774.214
774.214
774.214
774.214
774.214
774.214
774.214
774.214
774.214
774.214
774.213
774.213
774.213
774.212
774.212
774.212
774.211
774.211
774.211
774.21
774.21
774.209
774.209
774.209
774.209
774.208
774.208
774.208
774.208
774.209
774.209
774.209
774.21
774.21
774.211
774.212
774.212
774.213
774.214
774.215
774.215
774.216
774.212
774.226
774.006
774.271
774.285
774.283
774.282
774.28
774.276
774.271
774.264
774.263
774.269
774.272
774.246
774.226
774.215
774.187
774.14
774.132
774.141
774.163
774.109
774.259
774.262
774.26
774.255
774.251
774.245
774.236
774.227
774.224
774.228
774.233
774.199
774.179
774.176
774.156
774.098
774.069
774.078
774.098
774.085
774.218
774.217
774.214
774.21
774.205
774.198
774.191
774.184
774.174
774.166
774.158
774.154
774.152
774.147
774.135
774.125
774.116
774.11
774.1
774.099
774.147
774.148
774.154
774.153
774.145
774.132
774.117
774.093
774.078
774.058
774.034
774.022
774.009
773.987
773.973
773.958
773.948
773.935
773.926
773.918
774.094
774.073
774.07
774.072
774.071
774.066
774.054
774.039
774.024
774.011
773.992
773.982
773.964
773.956
773.943
773.938
773.93
773.931
773.937
773.965
773.948
773.908
773.897
773.869
773.863
773.876
773.882
773.875
773.868
773.868
773.872
773.873
773.873
773.873
773.873
773.874
773.875
773.875
773.876
773.877
773.877
773.878
773.879
773.879
773.879
773.88
773.879
773.879
773.879
773.879
773.878
773.877
773.876
773.874
773.874
773.873
773.872
773.869
773.867
773.865
773.864
773.863
773.863
773.863
773.863
773.863
773.862
773.859
773.857
773.857
773.857
773.86
773.865
773.869
773.873
773.875
773.877
773.878
773.88
773.884
773.902
773.983
774.174
774.304
774.343
774.329
774.218
774.009
773.873
773.807
773.784
773.781
773.786
773.799
773.808
773.814
773.817
773.819
773.82
773.82
773.82
773.819
773.818
773.817
773.815
773.814
773.812
773.81
773.808
773.806
773.805
773.803
773.801
773.799
773.797
773.795
773.793
773.791
773.79
773.788
773.786
773.785
773.783
773.782
773.78
773.779
773.778
773.776
773.775
773.774
773.773
773.772
773.771
773.77
773.769
773.768
773.767
773.765
773.764
773.763
773.762
773.761
773.759
773.758
773.756
773.755
773.753
773.752
773.75
773.748
773.746
773.744
773.742
773.74
773.738
773.736
773.734
773.732
773.73
773.728
773.725
773.723
773.721
773.719
773.717
773.715
773.713
773.712
773.71
773.708
773.707
773.706
773.704
773.703
773.702
773.701
773.7
773.699
773.698
773.698
773.697
773.696
773.695
773.694
773.694
773.693
773.692
773.691
773.69
773.689
773.688
773.686
773.685
773.684
773.683
773.681
773.68
773.678
773.677
773.675
773.674
773.672
773.67
773.668
773.667
773.665
773.663
773.661
773.659
773.657
773.656
773.654
773.652
773.651
773.649
773.648
773.647
773.642
773.647
773.469
773.921
773.914
773.905
773.88
773.876
773.893
773.898
773.889
773.883
773.884
773.888
773.889
773.888
773.888
773.889
773.89
773.891
773.891
773.892
773.893
773.894
773.895
773.896
773.896
773.897
773.897
773.898
773.898
773.898
773.898
773.897
773.894
773.893
773.892
773.891
773.89
773.887
773.886
773.884
773.884
773.884
773.884
773.885
773.886
773.886
773.886
773.884
773.883
773.883
773.883
773.887
773.892
773.897
773.9
773.903
773.904
773.905
773.906
773.908
773.919
773.968
774.094
774.195
774.235
774.235
774.191
774.053
773.929
773.857
773.822
773.808
773.806
773.807
773.811
773.815
773.818
773.819
773.82
773.82
773.82
773.819
773.818
773.817
773.816
773.814
773.812
773.811
773.809
773.807
773.805
773.803
773.801
773.799
773.797
773.796
773.794
773.792
773.79
773.788
773.787
773.785
773.783
773.782
773.78
773.779
773.778
773.776
773.775
773.774
773.773
773.772
773.771
773.77
773.768
773.767
773.766
773.765
773.764
773.763
773.762
773.761
773.759
773.758
773.757
773.755
773.754
773.752
773.75
773.749
773.747
773.745
773.743
773.741
773.739
773.737
773.735
773.733
773.731
773.728
773.726
773.724
773.722
773.72
773.718
773.716
773.714
773.712
773.71
773.709
773.707
773.706
773.704
773.703
773.702
773.701
773.7
773.699
773.698
773.697
773.696
773.696
773.695
773.694
773.693
773.692
773.691
773.691
773.69
773.689
773.687
773.686
773.685
773.684
773.683
773.681
773.68
773.679
773.677
773.676
773.674
773.672
773.671
773.669
773.667
773.665
773.663
773.662
773.66
773.658
773.656
773.654
773.653
773.651
773.649
773.648
773.646
773.646
773.642
773.641
773.54
774.112
774.116
774.126
774.132
774.137
774.137
774.135
774.133
774.133
774.132
774.132
774.131
774.131
774.132
774.132
774.134
774.135
774.136
774.138
774.139
774.139
774.139
774.139
774.139
774.139
774.138
774.138
774.138
774.139
774.139
774.139
774.141
774.142
774.142
774.143
774.145
774.147
774.15
774.152
774.154
774.155
774.155
774.154
774.152
774.142
774.108
774.049
773.996
773.953
773.92
773.896
773.881
773.873
773.869
773.868
773.868
773.869
773.871
773.873
773.874
773.874
773.872
773.865
773.857
773.851
773.844
773.84
773.837
773.835
773.834
773.833
773.832
773.831
773.83
773.829
773.828
773.826
773.825
773.824
773.822
773.821
773.819
773.818
773.816
773.814
773.813
773.811
773.809
773.807
773.805
773.803
773.801
773.799
773.798
773.796
773.794
773.792
773.79
773.788
773.787
773.785
773.783
773.782
773.78
773.779
773.778
773.776
773.775
773.774
773.773
773.772
773.771
773.77
773.768
773.767
773.766
773.765
773.764
773.763
773.762
773.761
773.759
773.758
773.757
773.755
773.754
773.752
773.75
773.749
773.747
773.745
773.743
773.741
773.739
773.737
773.735
773.733
773.731
773.728
773.726
773.724
773.722
773.72
773.718
773.716
773.714
773.712
773.71
773.709
773.707
773.706
773.704
773.703
773.702
773.701
773.7
773.699
773.698
773.697
773.696
773.696
773.695
773.694
773.693
773.692
773.691
773.691
773.69
773.689
773.687
773.686
773.685
773.684
773.683
773.681
773.68
773.679
773.677
773.676
773.674
773.672
773.671
773.669
773.667
773.665
773.664
773.662
773.66
773.658
773.656
773.654
773.653
773.651
773.65
773.648
773.647
773.645
773.645
773.643
773.645
773.896
773.892
773.885
773.882
773.883
773.884
773.883
773.881
773.881
773.882
773.883
773.883
773.883
773.883
773.884
773.885
773.885
773.885
773.885
773.885
773.885
773.885
773.885
773.885
773.885
773.885
773.885
773.885
773.885
773.885
773.884
773.884
773.883
773.882
773.882
773.881
773.879
773.878
773.876
773.875
773.874
773.873
773.872
773.87
773.869
773.868
773.868
773.868
773.87
773.874
773.879
773.882
773.889
773.899
773.91
773.916
773.92
773.929
773.955
774.001
774.035
774.049
774.05
774.04
773.993
773.919
773.867
773.835
773.819
773.813
773.812
773.813
773.815
773.818
773.82
773.821
773.822
773.822
773.822
773.821
773.82
773.819
773.817
773.816
773.814
773.813
773.811
773.809
773.807
773.805
773.803
773.801
773.799
773.798
773.796
773.794
773.792
773.79
773.788
773.787
773.785
773.783
773.782
773.78
773.779
773.778
773.776
773.775
773.774
773.773
773.772
773.771
773.77
773.768
773.767
773.766
773.765
773.764
773.763
773.762
773.761
773.759
773.758
773.757
773.755
773.754
773.752
773.75
773.749
773.747
773.745
773.743
773.741
773.739
773.737
773.735
773.733
773.731
773.728
773.726
773.724
773.722
773.72
773.718
773.716
773.714
773.712
773.71
773.709
773.707
773.706
773.704
773.703
773.702
773.701
773.7
773.699
773.698
773.697
773.696
773.696
773.695
773.694
773.693
773.692
773.691
773.691
773.69
773.689
773.687
773.686
773.685
773.684
773.683
773.681
773.68
773.679
773.677
773.676
773.674
773.672
773.671
773.669
773.667
773.665
773.664
773.662
773.66
773.658
773.656
773.654
773.653
773.651
773.65
773.648
773.647
773.645
773.645
773.647
773.697
774.017
774.017
774.013
774.007
774.008
774.008
774.007
774.005
774.005
774.005
774.005
774.004
774.004
774.004
774.004
774.004
774.003
774.003
774.002
774.002
774.001
774.001
774.001
774.001
774.002
774.002
774.002
774.002
774.002
774.002
774.002
774.001
774
773.999
773.997
773.995
773.993
773.992
773.991
773.99
773.988
773.987
773.985
773.984
773.983
773.983
773.984
773.986
773.988
773.992
773.998
774.003
774.007
774.008
774.008
774.009
774.02
774.079
774.23
774.343
774.391
774.395
774.367
774.253
774.118
774.02
773.951
773.906
773.876
773.858
773.847
773.84
773.835
773.832
773.83
773.829
773.827
773.826
773.825
773.823
773.822
773.82
773.819
773.817
773.816
773.814
773.812
773.81
773.808
773.806
773.805
773.803
773.801
773.799
773.797
773.795
773.793
773.791
773.79
773.788
773.786
773.785
773.783
773.782
773.78
773.779
773.778
773.776
773.775
773.774
773.773
773.772
773.771
773.77
773.769
773.768
773.767
773.765
773.764
773.763
773.762
773.761
773.759
773.758
773.756
773.755
773.753
773.752
773.75
773.748
773.746
773.744
773.742
773.74
773.738
773.736
773.734
773.732
773.73
773.728
773.725
773.723
773.721
773.719
773.717
773.715
773.713
773.712
773.71
773.708
773.707
773.706
773.704
773.703
773.702
773.701
773.7
773.699
773.698
773.698
773.697
773.696
773.695
773.694
773.694
773.693
773.692
773.691
773.69
773.689
773.688
773.686
773.685
773.684
773.683
773.681
773.68
773.678
773.677
773.675
773.674
773.672
773.67
773.668
773.667
773.665
773.663
773.661
773.659
773.657
773.656
773.654
773.652
773.651
773.649
773.648
773.646
773.647
773.649
773.702
773.532
773.511
773.506
773.508
773.506
773.501
773.488
773.479
773.461
773.452
773.434
773.424
773.407
773.4
773.386
773.382
773.371
773.371
773.375
773.399
773.58
773.579
773.584
773.583
773.576
773.562
773.545
773.531
773.508
773.497
773.475
773.458
773.441
773.424
773.41
773.403
773.39
773.38
773.371
773.359
773.645
773.645
773.642
773.638
773.632
773.626
773.618
773.61
773.603
773.596
773.591
773.584
773.573
773.565
773.558
773.551
773.544
773.541
773.55
773.557
773.683
773.686
773.684
773.68
773.676
773.671
773.669
773.669
773.66
773.642
773.637
773.62
773.581
773.556
773.559
773.571
773.582
773.577
773.514
773.385
773.695
773.708
773.707
773.707
773.703
773.701
773.701
773.703
773.697
773.683
773.675
773.655
773.624
773.612
773.615
773.625
773.635
773.631
773.571
773.436
773.456
773.454
773.45
773.45
773.448
773.443
773.441
773.442
773.443
773.442
773.441
773.44
773.44
773.439
773.437
773.436
773.434
773.432
773.43
773.428
773.425
773.423
773.421
773.419
773.417
773.415
773.413
773.411
773.409
773.407
773.405
773.403
773.401
773.399
773.397
773.395
773.393
773.391
773.39
773.388
773.387
773.385
773.383
773.382
773.38
773.38
773.381
773.384
773.387
773.389
773.391
773.395
773.401
773.406
773.407
773.408
773.409
773.419
773.469
773.614
773.737
773.792
773.8
773.779
773.68
773.543
773.442
773.37
773.323
773.292
773.272
773.26
773.252
773.248
773.244
773.242
773.241
773.239
773.238
773.237
773.236
773.235
773.233
773.232
773.231
773.23
773.229
773.228
773.227
773.226
773.226
773.225
773.224
773.224
773.223
773.223
773.223
773.219
773.224
773.055
773.342
773.332
773.33
773.331
773.33
773.324
773.322
773.322
773.324
773.324
773.323
773.322
773.322
773.321
773.32
773.319
773.318
773.316
773.315
773.313
773.311
773.309
773.307
773.305
773.303
773.301
773.299
773.298
773.296
773.294
773.292
773.29
773.288
773.286
773.285
773.283
773.281
773.279
773.277
773.276
773.274
773.273
773.272
773.271
773.269
773.268
773.268
773.268
773.269
773.272
773.278
773.283
773.286
773.29
773.3
773.312
773.319
773.324
773.332
773.354
773.4
773.437
773.454
773.456
773.449
773.413
773.341
773.286
773.252
773.234
773.227
773.224
773.224
773.226
773.229
773.231
773.232
773.233
773.233
773.233
773.233
773.232
773.231
773.231
773.23
773.229
773.228
773.227
773.226
773.225
773.224
773.224
773.223
773.223
773.222
773.222
773.222
773.219
773.218
773.123
773.529
773.538
773.568
773.575
773.576
773.573
773.573
773.574
773.574
773.572
773.569
773.567
773.565
773.563
773.561
773.56
773.559
773.558
773.557
773.556
773.555
773.553
773.552
773.55
773.548
773.546
773.545
773.543
773.542
773.541
773.54
773.54
773.54
773.54
773.54
773.54
773.539
773.539
773.54
773.543
773.545
773.547
773.547
773.546
773.544
773.536
773.507
773.452
773.401
773.359
773.327
773.304
773.29
773.282
773.278
773.277
773.277
773.279
773.281
773.283
773.284
773.284
773.282
773.276
773.269
773.263
773.257
773.252
773.249
773.247
773.246
773.245
773.244
773.243
773.242
773.241
773.239
773.238
773.237
773.236
773.235
773.233
773.232
773.231
773.23
773.229
773.228
773.227
773.226
773.225
773.224
773.224
773.223
773.223
773.222
773.222
773.222
773.222
773.222
773.225
773.334
773.343
773.33
773.331
773.352
773.349
773.331
773.326
773.33
773.335
773.334
773.329
773.327
773.327
773.326
773.325
773.323
773.321
773.32
773.318
773.317
773.316
773.315
773.313
773.312
773.31
773.309
773.308
773.306
773.304
773.302
773.3
773.298
773.296
773.295
773.293
773.291
773.289
773.287
773.286
773.285
773.285
773.286
773.287
773.286
773.286
773.284
773.283
773.283
773.285
773.29
773.295
773.298
773.3
773.301
773.303
773.304
773.305
773.307
773.31
773.321
773.366
773.486
773.592
773.639
773.643
773.613
773.494
773.362
773.281
773.239
773.222
773.218
773.218
773.221
773.226
773.229
773.231
773.232
773.232
773.232
773.232
773.231
773.23
773.23
773.229
773.228
773.227
773.226
773.225
773.224
773.224
773.223
773.223
773.222
773.222
773.222
773.223
773.226
773.274
773.336
773.341
773.325
773.317
773.337
773.335
773.317
773.309
773.312
773.318
773.317
773.313
773.311
773.31
773.31
773.31
773.308
773.306
773.304
773.303
773.301
773.3
773.299
773.297
773.295
773.294
773.292
773.291
773.289
773.287
773.285
773.283
773.281
773.279
773.278
773.276
773.275
773.272
773.27
773.268
773.266
773.265
773.265
773.265
773.265
773.264
773.263
773.26
773.258
773.258
773.259
773.263
773.268
773.271
773.273
773.275
773.278
773.28
773.281
773.283
773.287
773.3
773.36
773.532
773.68
773.736
773.735
773.666
773.471
773.316
773.234
773.202
773.194
773.196
773.207
773.218
773.224
773.228
773.231
773.232
773.232
773.232
773.232
773.231
773.231
773.23
773.229
773.228
773.227
773.226
773.226
773.225
773.224
773.224
773.223
773.223
773.223
773.224
773.227
773.28
773.114
773.094
773.089
773.09
773.09
773.084
773.072
773.063
773.045
773.036
773.018
773.009
772.993
772.986
772.972
772.968
772.958
772.958
772.962
772.985
773.161
773.161
773.166
773.165
773.158
773.145
773.128
773.114
773.092
773.081
773.059
773.043
773.026
773.01
772.997
772.99
772.977
772.968
772.959
772.947
773.226
773.225
773.222
773.218
773.213
773.207
773.2
773.192
773.186
773.18
773.175
773.168
773.158
773.15
773.143
773.137
773.131
773.131
773.141
773.147
773.263
773.266
773.264
773.261
773.257
773.253
773.252
773.252
773.243
773.226
773.221
773.203
773.165
773.145
773.151
773.164
773.174
773.162
773.086
772.982
773.275
773.288
773.287
773.287
773.284
773.283
773.284
773.286
773.279
773.266
773.259
773.238
773.209
773.201
773.206
773.217
773.226
773.215
773.147
773.03
773.044
773.046
773.043
773.045
773.045
773.042
773.041
773.043
773.044
773.043
773.043
773.042
773.042
773.041
773.041
773.04
773.04
773.04
773.039
773.039
773.038
773.038
773.037
773.037
773.036
773.035
773.035
773.034
773.033
773.033
773.032
773.031
773.031
773.03
773.029
773.029
773.028
773.028
773.027
773.027
773.026
773.025
773.025
773.025
773.025
773.027
773.031
773.033
773.036
773.042
773.05
773.056
773.059
773.061
773.063
773.072
773.115
773.253
773.383
773.444
773.456
773.438
773.345
773.206
773.102
773.029
772.98
772.949
772.93
772.918
772.91
772.906
772.903
772.901
772.9
772.898
772.897
772.896
772.895
772.895
772.894
772.893
772.892
772.891
772.89
772.89
772.889
772.888
772.888
772.887
772.887
772.887
772.887
772.886
772.887
772.887
772.887
772.887
772.888
772.889
772.889
772.89
772.891
772.892
772.893
772.894
772.896
772.897
772.898
772.9
772.901
772.903
772.904
772.906
772.907
772.909
772.911
772.912
772.914
772.915
772.917
772.919
772.92
772.922
772.924
772.925
772.927
772.929
772.931
772.933
772.935
772.937
772.939
772.941
772.943
772.946
772.948
772.951
772.954
772.957
772.96
772.964
772.967
772.971
772.974
772.978
772.982
772.987
772.991
772.996
773.001
773.005
773.011
773.016
773.021
773.026
773.032
773.037
773.043
773.049
773.055
773.06
773.066
773.072
773.078
773.084
773.091
773.097
773.103
773.11
773.116
773.123
773.129
773.136
773.143
773.15
773.157
773.164
773.171
773.179
773.186
773.194
773.202
773.21
773.218
773.226
773.234
773.243
773.252
773.261
773.269
773.279
773.288
773.299
773.307
773.32
773.328
773.342
773.351
773.406
772.931
772.924
772.924
772.927
772.926
772.923
772.923
772.924
772.926
772.927
772.926
772.926
772.926
772.926
772.926
772.925
772.925
772.925
772.925
772.925
772.924
772.924
772.923
772.923
772.922
772.921
772.921
772.92
772.919
772.919
772.918
772.917
772.917
772.916
772.916
772.915
772.914
772.914
772.913
772.913
772.913
772.913
772.913
772.913
772.913
772.913
772.915
772.917
772.923
772.929
772.934
772.939
772.95
772.961
772.969
772.975
772.983
773.006
773.052
773.089
773.107
773.11
773.103
773.064
772.992
772.939
772.906
772.889
772.883
772.882
772.883
772.885
772.888
772.89
772.892
772.893
772.893
772.893
772.893
772.892
772.892
772.891
772.89
772.89
772.889
772.888
772.888
772.887
772.887
772.886
772.886
772.886
772.885
772.885
772.885
772.886
772.886
772.886
772.887
772.887
772.888
772.889
772.89
772.891
772.892
772.893
772.895
772.896
772.897
772.899
772.9
772.902
772.903
772.905
772.906
772.908
772.909
772.911
772.913
772.914
772.916
772.917
772.919
772.921
772.922
772.924
772.926
772.928
772.929
772.931
772.933
772.935
772.938
772.94
772.942
772.945
772.947
772.95
772.953
772.956
772.959
772.962
772.966
772.969
772.973
772.977
772.981
772.985
772.99
772.995
772.999
773.004
773.009
773.014
773.02
773.025
773.031
773.036
773.042
773.048
773.053
773.059
773.065
773.071
773.077
773.083
773.089
773.096
773.102
773.108
773.115
773.121
773.128
773.135
773.142
773.149
773.156
773.163
773.17
773.178
773.185
773.193
773.201
773.208
773.216
773.225
773.233
773.242
773.25
773.259
773.268
773.278
773.287
773.298
773.306
773.319
773.326
773.341
773.35
773.404
773.119
773.13
773.161
773.168
773.168
773.165
773.165
773.167
773.168
773.168
773.168
773.169
773.17
773.17
773.17
773.171
773.171
773.17
773.17
773.169
773.169
773.168
773.167
773.167
773.166
773.166
773.165
773.164
773.164
773.163
773.164
773.165
773.166
773.167
773.168
773.17
773.173
773.178
773.182
773.185
773.187
773.188
773.188
773.185
773.17
773.125
773.07
773.025
772.989
772.963
772.946
772.936
772.931
772.93
772.93
772.931
772.933
772.935
772.937
772.938
772.936
772.93
772.924
772.918
772.913
772.909
772.906
772.905
772.904
772.903
772.902
772.902
772.901
772.9
772.899
772.898
772.896
772.895
772.894
772.893
772.893
772.892
772.891
772.89
772.889
772.888
772.888
772.887
772.887
772.886
772.886
772.886
772.885
772.885
772.885
772.886
772.886
772.886
772.887
772.887
772.888
772.889
772.89
772.891
772.892
772.893
772.895
772.896
772.897
772.899
772.9
772.902
772.903
772.905
772.906
772.908
772.909
772.911
772.913
772.914
772.916
772.917
772.919
772.921
772.922
772.924
772.926
772.928
772.929
772.931
772.933
772.935
772.938
772.94
772.942
772.945
772.947
772.95
772.953
772.956
772.959
772.962
772.966
772.969
772.973
772.977
772.981
772.985
772.99
772.995
772.999
773.004
773.009
773.014
773.02
773.025
773.031
773.036
773.042
773.048
773.053
773.059
773.065
773.071
773.077
773.083
773.089
773.096
773.102
773.108
773.115
773.121
773.128
773.135
773.142
773.149
773.156
773.163
773.17
773.178
773.185
773.193
773.201
773.208
773.216
773.225
773.233
773.242
773.25
773.259
773.268
773.278
773.287
773.298
773.306
773.318
773.327
773.338
773.351
773.36
772.919
772.936
772.92
772.928
772.948
772.941
772.926
772.924
772.93
772.934
772.933
772.932
772.932
772.933
772.934
772.934
772.934
772.935
772.935
772.934
772.934
772.933
772.933
772.932
772.931
772.931
772.93
772.929
772.929
772.928
772.927
772.926
772.926
772.925
772.925
772.924
772.923
772.923
772.922
772.923
772.924
772.925
772.926
772.927
772.927
772.927
772.927
772.928
772.931
772.939
772.946
772.952
772.956
772.959
772.961
772.963
772.965
772.968
772.978
773.019
773.138
773.243
773.29
773.293
773.26
773.135
773.007
772.931
772.893
772.879
772.876
772.877
772.881
772.886
772.888
772.89
772.891
772.892
772.892
772.892
772.891
772.891
772.89
772.89
772.889
772.888
772.888
772.887
772.887
772.886
772.886
772.885
772.885
772.885
772.885
772.886
772.886
772.886
772.887
772.887
772.888
772.889
772.89
772.891
772.892
772.893
772.895
772.896
772.897
772.899
772.9
772.902
772.903
772.905
772.906
772.908
772.909
772.911
772.913
772.914
772.916
772.917
772.919
772.921
772.922
772.924
772.926
772.928
772.929
772.931
772.933
772.935
772.938
772.94
772.942
772.945
772.947
772.95
772.953
772.956
772.959
772.962
772.966
772.969
772.973
772.977
772.981
772.985
772.99
772.995
772.999
773.004
773.009
773.014
773.02
773.025
773.031
773.036
773.042
773.048
773.053
773.059
773.065
773.071
773.077
773.083
773.089
773.096
773.102
773.108
773.115
773.121
773.128
773.135
773.142
773.149
773.156
773.163
773.17
773.178
773.185
773.193
773.201
773.208
773.216
773.225
773.233
773.242
773.25
773.259
773.269
773.277
773.288
773.296
773.309
773.316
773.329
773.336
773.352
773.282
772.919
772.934
772.915
772.914
772.935
772.928
772.913
772.909
772.914
772.919
772.919
772.917
772.917
772.918
772.918
772.919
772.918
772.918
772.918
772.918
772.918
772.917
772.916
772.916
772.915
772.915
772.914
772.913
772.913
772.912
772.911
772.91
772.91
772.909
772.909
772.908
772.907
772.907
772.906
772.906
772.906
772.906
772.907
772.908
772.908
772.907
772.906
772.905
772.905
772.907
772.913
772.92
772.925
772.929
772.933
772.936
772.938
772.94
772.945
772.959
773.024
773.201
773.342
773.392
773.387
773.303
773.101
772.957
772.883
772.856
772.852
772.856
772.868
772.878
772.885
772.888
772.89
772.892
772.892
772.892
772.892
772.892
772.891
772.891
772.89
772.889
772.889
772.888
772.888