/*--------------------------------*- C++ -*----------------------------------*\
| =========                 |                                                 |
| \\      /  F ield         | OpenFOAM: The Open Source CFD Toolbox           |
|  \\    /   O peration     | Version:  3.0.x                                 |
|   \\  /    A nd           | Web:      www.OpenFOAM.org                      |
|    \\/     M anipulation  |                                                 |
\*---------------------------------------------------------------------------*/
FoamFile
{
    version     2.0;
    format      ascii;
    class       surfaceScalarField;
    location    "0.33";
    object      phi;
}
// * * * * * * * * * * * * * * * * * * * * * * * * * * * * * * * * * * * * * //

dimensions      [1 0 -1 0 0 0 0];

internalField   nonuniform List<scalar> 
52430
(
3.90609
0.000243624
3.90591
0.000176135
3.90574
0.000169101
3.90557
0.000170335
3.9054
0.000170752
3.90523
0.000170695
3.90506
0.00017066
3.90488
0.000170662
3.90471
0.000170664
3.90454
0.000170661
3.90437
0.000170653
3.9042
0.00017066
3.90403
0.000170651
3.90386
0.000170648
3.90369
0.000170642
3.90352
0.000170635
3.90334
0.000170644
3.90317
0.000170606
3.903
0.000170615
3.90283
0.000170608
3.90266
0.000170599
3.90249
0.000170593
3.90232
0.000170579
3.90214
0.000170575
3.90197
0.000170563
3.90179
0.000170554
3.90162
0.000170547
3.90144
0.000170539
3.90127
0.000170534
3.9011
0.000170529
3.90093
0.000170502
3.90076
0.000170521
3.90059
0.000170679
3.90043
0.000170394
3.90026
0.000170521
3.90009
0.000170524
3.89992
0.000170525
3.89975
0.000170525
3.89958
0.000170524
3.89941
0.000170523
3.89924
0.00017052
3.89907
0.000170517
3.8989
0.00017051
3.89873
0.000170508
3.89856
0.000170499
3.89839
0.000170493
3.89821
0.000170495
3.89804
0.000170481
3.89786
0.000170472
3.89769
0.000170464
3.89752
0.000170457
3.89734
0.000170449
3.89717
0.000170408
3.897
0.000170452
3.89684
0.000170454
3.89667
0.000170428
3.8965
0.000170426
3.89633
0.000170423
3.89616
0.000170404
3.89598
0.000170414
3.89581
0.000170441
3.89564
0.000170417
3.89547
0.000170398
3.8953
0.0001704
3.89513
0.000170404
3.89496
0.000170453
3.8948
0.000170411
3.89463
0.000170413
3.89446
0.000170412
3.89429
0.000170411
3.89413
0.00017041
3.89396
0.000170407
3.89379
0.000170404
3.89362
0.000170399
3.89345
0.000170392
3.89328
0.000170382
3.89311
0.000170379
3.89293
0.000170361
3.89276
0.000170279
3.89259
0.000170307
3.89241
0.000170238
3.89224
0.000170168
3.89207
0.00017008
3.89189
0.000169963
3.89172
0.000169809
3.89155
0.00016957
3.89138
0.00016934
3.89122
0.000169194
3.89105
0.000168521
3.89089
0.00016811
3.89072
0.000167486
3.89056
0.000166715
3.89039
0.000165782
3.89023
0.000164662
3.89007
0.000163331
3.88991
0.000161765
3.88975
0.000159941
3.88959
0.000157835
3.88943
0.000155427
3.88928
0.000152701
3.88913
0.000149641
3.88898
0.00014624
3.88884
0.000142492
3.8887
0.000138401
3.88857
0.000133974
3.88844
0.000129226
3.88831
0.000124178
3.88819
0.000118858
3.88808
0.000113298
3.88797
0.000107537
3.88787
0.000101617
3.88777
9.55849e-05
3.88768
8.94886e-05
3.8876
8.33781e-05
3.88752
7.73025e-05
3.88745
7.13088e-05
3.88738
6.54411e-05
3.88732
5.97442e-05
3.88727
5.4258e-05
3.88722
4.90112e-05
3.88717
4.40336e-05
3.88713
3.93461e-05
3.8871
3.49646e-05
3.88707
3.09001e-05
3.88704
2.7157e-05
3.88701
2.37344e-05
3.88699
2.06298e-05
3.88697
1.78303e-05
3.88696
1.53259e-05
3.88694
1.31008e-05
3.88693
1.11376e-05
3.88692
9.41745e-06
3.88691
7.92043e-06
3.88691
6.62691e-06
3.8869
5.5158e-06
3.8869
4.5687e-06
3.88689
3.76741e-06
3.88689
3.09163e-06
3.88688
2.5272e-06
3.88688
2.05838e-06
3.88688
1.67148e-06
3.88688
1.35422e-06
3.88688
1.0957e-06
3.88688
8.86381e-07
3.88687
7.17946e-07
3.88687
5.83324e-07
3.88687
4.7612e-07
3.88687
3.9163e-07
3.88687
3.2533e-07
3.88687
2.73305e-07
3.88687
2.33202e-07
3.88687
2.02197e-07
3.88687
1.78426e-07
3.88687
1.60302e-07
3.88687
1.46569e-07
3.88687
1.36157e-07
3.88687
1.28537e-07
3.88687
1.227e-07
3.88687
1.18416e-07
3.88687
1.15269e-07
3.88687
1.12957e-07
3.88687
1.11278e-07
3.88687
1.09821e-07
3.88687
1.09416e-07
3.88687
1.08579e-07
3.88687
1.0823e-07
3.88687
1.0769e-07
3.88687
1.0758e-07
3.88687
1.07433e-07
3.88687
1.07459e-07
3.88687
1.07122e-07
3.88687
1.07206e-07
3.88687
1.07331e-07
3.88687
1.07004e-07
3.88687
1.07142e-07
3.88687
1.07142e-07
3.88687
1.07142e-07
3.88687
1.07146e-07
3.88687
1.07151e-07
3.88688
1.07155e-07
3.88688
1.07166e-07
3.88688
1.07173e-07
3.88688
1.07182e-07
3.88688
1.07191e-07
3.88688
1.072e-07
3.88688
1.07211e-07
3.88688
1.0722e-07
3.88688
1.07231e-07
3.88688
1.07242e-07
3.88688
1.07253e-07
3.88689
1.07266e-07
3.88689
1.07277e-07
3.88689
1.07284e-07
3.88689
1.07295e-07
3.88689
1.07308e-07
3.88689
1.07324e-07
3.88689
1.07337e-07
3.8869
1.07357e-07
3.8869
1.07377e-07
3.8869
1.07395e-07
3.8869
1.0742e-07
3.8869
1.07446e-07
3.8869
1.07475e-07
3.88691
1.07499e-07
3.88691
1.07519e-07
3.88691
1.07537e-07
3.88691
1.0755e-07
3.88691
1.0756e-07
3.88691
1.07568e-07
3.88692
1.07573e-07
3.88692
1.07577e-07
3.88692
1.0758e-07
3.88692
1.07584e-07
3.88692
1.0759e-07
3.88693
1.07599e-07
3.88693
1.07611e-07
3.88693
1.07624e-07
3.88693
1.07641e-07
3.88694
1.07661e-07
3.88694
1.07682e-07
3.88694
1.07704e-07
3.88694
1.07726e-07
3.88695
1.07755e-07
3.88695
1.07777e-07
3.88695
1.07799e-07
3.88696
1.07822e-07
3.88696
1.07842e-07
3.88696
1.07862e-07
3.88696
1.07882e-07
3.88697
1.07904e-07
3.88697
1.07926e-07
3.88697
1.07942e-07
3.88698
1.07961e-07
3.88698
1.07981e-07
3.88698
1.07999e-07
3.88699
1.08017e-07
3.88699
1.08035e-07
3.88699
1.08053e-07
3.887
1.08073e-07
3.887
1.08095e-07
3.88701
1.08117e-07
3.88701
1.08139e-07
3.88701
1.08159e-07
3.88702
1.08177e-07
3.88702
1.08201e-07
3.88703
1.08223e-07
3.88703
1.08244e-07
3.88703
1.08266e-07
3.88704
1.08292e-07
3.88704
1.08319e-07
3.88705
1.08346e-07
3.88705
1.08372e-07
3.88706
1.08395e-07
3.88706
1.08426e-07
3.88707
1.08454e-07
3.88707
1.08485e-07
3.88708
1.08515e-07
3.88708
1.08545e-07
3.88709
1.08575e-07
3.88709
1.08608e-07
3.8871
1.08639e-07
3.8871
1.0867e-07
3.88711
1.08706e-07
3.88711
1.08743e-07
3.88712
1.08779e-07
3.88712
1.08812e-07
3.88713
1.08848e-07
3.88713
1.08888e-07
3.88714
1.08927e-07
3.88715
1.08965e-07
3.88715
1.09005e-07
3.88716
1.0905e-07
3.88716
1.09088e-07
3.88717
1.0913e-07
3.88718
1.0917e-07
3.88718
1.09216e-07
3.88719
1.09263e-07
3.88719
1.09307e-07
3.8872
1.09349e-07
3.88721
1.09394e-07
3.88721
1.09441e-07
3.88722
1.09489e-07
3.88723
1.09541e-07
3.88723
1.09594e-07
3.88724
1.0964e-07
3.88725
1.09691e-07
3.88725
1.09741e-07
3.88726
1.09796e-07
3.88727
1.09849e-07
3.88727
1.09903e-07
3.88728
1.09954e-07
3.88729
1.10003e-07
3.8873
1.10051e-07
3.8873
1.10103e-07
3.88731
1.10153e-07
3.88732
1.10207e-07
3.88733
1.10267e-07
3.88733
1.10325e-07
3.88734
1.10385e-07
3.88735
1.10447e-07
3.88736
1.10513e-07
3.88737
1.10582e-07
3.88737
1.10655e-07
3.88738
1.10729e-07
3.88739
1.10804e-07
3.8874
1.10878e-07
3.88741
1.10955e-07
3.88741
1.11031e-07
3.88742
1.11106e-07
3.88743
1.11184e-07
3.88744
1.1126e-07
3.88745
1.11339e-07
3.88746
1.11417e-07
3.88747
1.11497e-07
3.88748
1.11573e-07
3.88749
1.11655e-07
3.8875
1.11741e-07
3.88751
1.1183e-07
3.88752
1.11924e-07
3.88753
1.12022e-07
3.88754
1.12121e-07
3.88755
1.1223e-07
3.88756
1.12335e-07
3.88757
1.1245e-07
3.88758
1.12566e-07
3.88759
1.12685e-07
3.8876
1.1281e-07
3.88761
1.12937e-07
3.88763
1.13072e-07
3.88764
1.13208e-07
3.88765
1.13354e-07
3.88766
1.13499e-07
3.88768
1.1365e-07
3.88769
1.13811e-07
3.8877
1.13972e-07
3.88772
1.14142e-07
3.88773
1.14316e-07
3.88775
1.14496e-07
3.88776
1.14684e-07
3.88778
1.14876e-07
3.88779
1.15078e-07
3.88781
1.15289e-07
3.88783
1.15506e-07
3.88784
1.15731e-07
3.88786
1.1597e-07
3.88788
1.16208e-07
3.8879
1.16466e-07
3.88792
1.16726e-07
3.88794
1.16999e-07
3.88796
1.17287e-07
3.88798
1.17579e-07
3.888
1.17887e-07
3.88802
1.18202e-07
3.88805
1.18534e-07
3.88807
1.18876e-07
3.8881
1.19233e-07
3.88812
1.19595e-07
3.88815
1.19973e-07
3.88817
1.20373e-07
3.8882
1.20768e-07
3.88823
1.21194e-07
3.88826
1.21629e-07
3.88829
1.22072e-07
3.88832
1.2254e-07
3.88835
1.23007e-07
3.88839
1.23495e-07
3.88842
1.24008e-07
3.88845
1.24519e-07
3.88849
1.2505e-07
3.88853
1.25603e-07
3.88857
1.26169e-07
3.88861
1.26744e-07
3.88865
1.27355e-07
3.88869
1.27984e-07
3.88873
1.28668e-07
3.88878
1.29467e-07
3.88882
1.30494e-07
3.88887
1.32059e-07
3.88892
1.34914e-07
3.88897
1.40843e-07
3.88902
1.54065e-07
3.88907
1.84686e-07
3.88912
2.56998e-07
3.88918
4.28836e-07
3.88923
8.38876e-07
3.88929
1.81847e-06
3.88935
4.15975e-06
3.8894
9.75723e-06
3.88944
2.31383e-05
3.88945
5.51191e-05
3.88938
0.000131545
3.88913
0.000314016
3.88845
0.00074918
3.88674
0.00178507
3.88257
0.00424448
3.87257
0.0100666
3.84883
0.0238226
3.7922
0.0566977
3.65089
0.141392
0.381429
3.26954
5.52445
0.000213026
5.52446
0.000170389
5.52447
0.00015621
5.52448
0.000158431
5.52449
0.00015943
5.5245
0.000159329
5.52451
0.000159261
5.52452
0.000159282
5.52453
0.000159303
5.52454
0.000159312
5.52455
0.000159317
5.52456
0.000159334
5.52457
0.000159337
5.52458
0.000159344
5.52459
0.00015935
5.5246
0.000159352
5.52461
0.000159373
5.52462
0.00015935
5.52463
0.000159367
5.52464
0.000159371
5.52465
0.000159374
5.52466
0.000159378
5.52467
0.000159376
5.52468
0.000159381
5.52468
0.000159383
5.52469
0.000159384
5.52469
0.000159388
5.5247
0.000159391
5.52471
0.000159396
5.52472
0.000159401
5.52473
0.000159391
5.52474
0.000159419
5.52475
0.000159544
5.52477
0.000159343
5.52479
0.000159445
5.5248
0.00015946
5.52482
0.000159471
5.52483
0.000159482
5.52484
0.000159492
5.52485
0.000159501
5.52486
0.000159509
5.52487
0.000159516
5.52488
0.000159521
5.52489
0.000159529
5.5249
0.000159532
5.52491
0.000159534
5.52491
0.000159546
5.52492
0.000159545
5.52492
0.000159547
5.52493
0.00015955
5.52494
0.000159553
5.52495
0.000159556
5.52496
0.000159534
5.52497
0.000159578
5.52498
0.00015959
5.52499
0.000159578
5.525
0.000159587
5.52501
0.000159594
5.52503
0.000159591
5.52503
0.000159606
5.52504
0.000159639
5.52505
0.00015963
5.52506
0.000159625
5.52507
0.000159636
5.52508
0.000159651
5.5251
0.000159702
5.52512
0.000159676
5.52513
0.00015969
5.52514
0.000159699
5.52516
0.000159708
5.52517
0.000159717
5.52518
0.000159725
5.5252
0.000159732
5.52521
0.000159737
5.52522
0.000159741
5.52523
0.000159742
5.52524
0.000159749
5.52525
0.00015974
5.52525
0.000159676
5.52526
0.000159702
5.52526
0.000159654
5.52527
0.000159592
5.52527
0.000159516
5.52528
0.000159411
5.52529
0.000159269
5.5253
0.000159052
5.52531
0.000158836
5.52532
0.00015867
5.52534
0.000158067
5.52535
0.00015765
5.52536
0.000157056
5.52538
0.000156312
5.52539
0.000155412
5.5254
0.000154331
5.52541
0.000153047
5.52542
0.000151536
5.52543
0.000149776
5.52544
0.000147747
5.52545
0.00014543
5.52546
0.000142807
5.52547
0.000139869
5.52548
0.000136606
5.52549
0.000133017
5.5255
0.000129103
5.52551
0.000124876
5.52551
0.000120349
5.52552
0.000115544
5.52553
0.000110486
5.52554
0.000105214
5.52554
9.97581e-05
5.52555
9.41628e-05
5.52555
8.84709e-05
5.52556
8.27298e-05
5.52557
7.69865e-05
5.52557
7.12863e-05
5.52557
6.56736e-05
5.52558
6.01894e-05
5.52558
5.48756e-05
5.52559
4.97676e-05
5.52559
4.4892e-05
5.52559
4.02758e-05
5.52559
3.59363e-05
5.5256
3.18885e-05
5.5256
2.81405e-05
5.5256
2.46954e-05
5.5256
2.15514e-05
5.5256
1.87046e-05
5.5256
1.61427e-05
5.5256
1.38549e-05
5.5256
1.1826e-05
5.5256
1.00393e-05
5.5256
8.47659e-06
5.5256
7.11904e-06
5.5256
5.94811e-06
5.5256
4.94422e-06
5.5256
4.08989e-06
5.5256
3.36823e-06
5.5256
2.76094e-06
5.5256
2.25446e-06
5.5256
1.83452e-06
5.5256
1.48854e-06
5.5256
1.20531e-06
5.5256
9.74918e-07
5.52559
7.88684e-07
5.52559
6.39075e-07
5.52559
5.19693e-07
5.52559
4.24784e-07
5.52559
3.50107e-07
5.52559
2.916e-07
5.52559
2.45777e-07
5.52559
2.105e-07
5.52559
1.83273e-07
5.52559
1.62431e-07
5.52559
1.46566e-07
5.52559
1.34562e-07
5.52559
1.25483e-07
5.52559
1.18835e-07
5.52559
1.13767e-07
5.52559
1.10042e-07
5.52559
1.07314e-07
5.52559
1.05313e-07
5.52559
1.03855e-07
5.52559
1.0262e-07
5.52559
1.02232e-07
5.52559
1.01539e-07
5.52559
1.01227e-07
5.52559
1.00772e-07
5.52559
1.00668e-07
5.52559
1.0055e-07
5.52559
1.00563e-07
5.52559
1.00283e-07
5.52559
1.00343e-07
5.52559
1.00446e-07
5.52559
1.0018e-07
5.52559
1.00284e-07
5.52559
1.00287e-07
5.52559
1.00288e-07
5.52559
1.0029e-07
5.5256
1.00293e-07
5.5256
1.003e-07
5.5256
1.00305e-07
5.5256
1.00311e-07
5.5256
1.00315e-07
5.5256
1.00323e-07
5.5256
1.00332e-07
5.5256
1.00338e-07
5.5256
1.00347e-07
5.52561
1.00359e-07
5.52561
1.00365e-07
5.52561
1.00376e-07
5.52561
1.00387e-07
5.52561
1.00399e-07
5.52561
1.004e-07
5.52562
1.00413e-07
5.52562
1.00424e-07
5.52562
1.00438e-07
5.52562
1.00456e-07
5.52562
1.0047e-07
5.52563
1.00493e-07
5.52563
1.00511e-07
5.52563
1.00536e-07
5.52563
1.00562e-07
5.52563
1.00587e-07
5.52564
1.00611e-07
5.52564
1.0063e-07
5.52564
1.0065e-07
5.52564
1.00663e-07
5.52565
1.00669e-07
5.52565
1.00679e-07
5.52565
1.00686e-07
5.52566
1.00691e-07
5.52566
1.00696e-07
5.52566
1.007e-07
5.52566
1.00707e-07
5.52567
1.00721e-07
5.52567
1.00734e-07
5.52567
1.00748e-07
5.52568
1.00767e-07
5.52568
1.00789e-07
5.52568
1.0081e-07
5.52569
1.00834e-07
5.52569
1.0086e-07
5.5257
1.00888e-07
5.5257
1.00905e-07
5.5257
1.0093e-07
5.52571
1.00953e-07
5.52571
1.00973e-07
5.52572
1.00992e-07
5.52572
1.01008e-07
5.52572
1.01029e-07
5.52573
1.0105e-07
5.52573
1.01066e-07
5.52574
1.01082e-07
5.52574
1.01099e-07
5.52575
1.01118e-07
5.52575
1.01131e-07
5.52576
1.01148e-07
5.52576
1.01165e-07
5.52577
1.01183e-07
5.52577
1.01204e-07
5.52578
1.01221e-07
5.52578
1.01242e-07
5.52579
1.01258e-07
5.52579
1.01272e-07
5.5258
1.01294e-07
5.52581
1.01314e-07
5.52581
1.01332e-07
5.52582
1.01354e-07
5.52582
1.01372e-07
5.52583
1.01397e-07
5.52584
1.0142e-07
5.52584
1.01447e-07
5.52585
1.01463e-07
5.52586
1.01491e-07
5.52586
1.0152e-07
5.52587
1.01544e-07
5.52588
1.01571e-07
5.52588
1.01594e-07
5.52589
1.01625e-07
5.5259
1.01652e-07
5.5259
1.0168e-07
5.52591
1.0171e-07
5.52592
1.0174e-07
5.52593
1.01773e-07
5.52593
1.01803e-07
5.52594
1.01832e-07
5.52595
1.01862e-07
5.52596
1.01901e-07
5.52597
1.01932e-07
5.52597
1.01967e-07
5.52598
1.02004e-07
5.52599
1.02043e-07
5.526
1.02079e-07
5.52601
1.02118e-07
5.52602
1.02157e-07
5.52603
1.02195e-07
5.52603
1.0224e-07
5.52604
1.02284e-07
5.52605
1.02324e-07
5.52606
1.02369e-07
5.52607
1.02413e-07
5.52608
1.02456e-07
5.52609
1.02507e-07
5.5261
1.02556e-07
5.52611
1.02603e-07
5.52612
1.02648e-07
5.52613
1.027e-07
5.52614
1.02753e-07
5.52615
1.02805e-07
5.52616
1.02857e-07
5.52617
1.02904e-07
5.52618
1.0295e-07
5.52619
1.02995e-07
5.5262
1.03045e-07
5.52621
1.03091e-07
5.52622
1.03143e-07
5.52623
1.032e-07
5.52624
1.03255e-07
5.52625
1.03312e-07
5.52626
1.03374e-07
5.52627
1.03438e-07
5.52628
1.03503e-07
5.52629
1.0357e-07
5.52631
1.03643e-07
5.52632
1.03714e-07
5.52633
1.03786e-07
5.52634
1.0386e-07
5.52635
1.03936e-07
5.52636
1.04003e-07
5.52638
1.0408e-07
5.52639
1.0415e-07
5.5264
1.04227e-07
5.52642
1.04305e-07
5.52643
1.04377e-07
5.52644
1.04451e-07
5.52645
1.04528e-07
5.52647
1.04608e-07
5.52648
1.04692e-07
5.5265
1.04783e-07
5.52651
1.04875e-07
5.52652
1.0497e-07
5.52654
1.05068e-07
5.52655
1.05168e-07
5.52657
1.05276e-07
5.52659
1.05385e-07
5.5266
1.05497e-07
5.52662
1.0561e-07
5.52663
1.05731e-07
5.52665
1.05857e-07
5.52667
1.05983e-07
5.52669
1.06116e-07
5.5267
1.06254e-07
5.52672
1.06394e-07
5.52674
1.06543e-07
5.52676
1.06692e-07
5.52678
1.06848e-07
5.5268
1.07008e-07
5.52682
1.07178e-07
5.52684
1.07352e-07
5.52686
1.07532e-07
5.52689
1.07717e-07
5.52691
1.07913e-07
5.52693
1.0811e-07
5.52696
1.08317e-07
5.52698
1.08542e-07
5.52701
1.08758e-07
5.52704
1.08998e-07
5.52706
1.09243e-07
5.52709
1.0949e-07
5.52712
1.0976e-07
5.52715
1.10027e-07
5.52718
1.10313e-07
5.52721
1.10605e-07
5.52724
1.10913e-07
5.52728
1.11225e-07
5.52731
1.1156e-07
5.52735
1.11893e-07
5.52739
1.12246e-07
5.52742
1.12623e-07
5.52746
1.12982e-07
5.5275
1.13385e-07
5.52754
1.13791e-07
5.52759
1.14196e-07
5.52763
1.14645e-07
5.52768
1.15072e-07
5.52772
1.15527e-07
5.52777
1.16016e-07
5.52782
1.16486e-07
5.52787
1.16977e-07
5.52792
1.17505e-07
5.52798
1.1804e-07
5.52804
1.1858e-07
5.52809
1.19173e-07
5.52815
1.19802e-07
5.52821
1.20539e-07
5.52828
1.21529e-07
5.52834
1.23048e-07
5.52841
1.2584e-07
5.52847
1.31733e-07
5.52854
1.44993e-07
5.52862
1.75795e-07
5.52869
2.48471e-07
5.52877
4.21517e-07
5.52884
8.34179e-07
5.52892
1.82032e-06
5.529
4.17779e-06
5.52908
9.81383e-06
5.52915
2.32898e-05
5.52921
5.55067e-05
5.52922
0.000132507
5.52913
0.000316519
5.52878
0.000755872
5.52783
0.00180369
5.52541
0.00429812
5.51954
0.0102211
5.50546
0.0242454
5.472
0.0573936
5.3922
0.1366
5.19441
0.339293
0.874397
4.70156
7.81275
0.000176104
7.81276
0.000158686
7.81278
0.000138964
7.81279
0.00014152
7.81281
0.000143224
7.81282
0.000143111
7.81284
0.000143002
7.81285
0.000143036
7.81287
0.000143069
7.81288
0.000143083
7.81289
0.000143092
7.81291
0.000143108
7.81292
0.000143114
7.81294
0.000143121
7.81295
0.000143129
7.81297
0.00014313
7.81298
0.000143152
7.813
0.000143133
7.81301
0.000143147
7.81303
0.000143152
7.81304
0.000143155
7.81305
0.000143158
7.81307
0.000143159
7.81308
0.000143161
7.81308
0.000143165
7.81309
0.000143165
7.8131
0.000143169
7.81311
0.000143172
7.81312
0.000143177
7.81313
0.000143181
7.81315
0.000143177
7.81317
0.000143201
7.81319
0.00014328
7.81321
0.000143156
7.81324
0.000143219
7.81326
0.000143235
7.81328
0.000143245
7.8133
0.000143255
7.81331
0.000143264
7.81333
0.000143272
7.81335
0.000143279
7.81336
0.000143286
7.81338
0.000143291
7.81339
0.000143298
7.81341
0.000143302
7.81342
0.000143301
7.81342
0.000143312
7.81343
0.000143313
7.81344
0.000143314
7.81345
0.000143317
7.81346
0.00014332
7.81347
0.000143322
7.81349
0.000143308
7.8135
0.00014334
7.81352
0.000143351
7.81354
0.000143342
7.81356
0.000143351
7.81357
0.000143357
7.81359
0.000143358
7.8136
0.000143365
7.81362
0.000143394
7.81363
0.000143389
7.81365
0.000143386
7.81366
0.000143395
7.81368
0.00014341
7.8137
0.000143449
7.81373
0.00014343
7.81375
0.000143443
7.81377
0.000143451
7.81379
0.000143459
7.81381
0.000143467
7.81383
0.000143474
7.81385
0.000143481
7.81386
0.000143486
7.81388
0.000143489
7.81389
0.000143491
7.81391
0.000143499
7.81392
0.000143488
7.81394
0.000143435
7.81394
0.00014345
7.81395
0.000143417
7.81396
0.000143358
7.81397
0.000143292
7.81398
0.0001432
7.81399
0.000143073
7.81401
0.000142887
7.81402
0.000142696
7.81404
0.000142526
7.81406
0.000142027
7.81409
0.000141637
7.81411
0.000141117
7.81413
0.000140456
7.81415
0.000139658
7.81416
0.000138699
7.81418
0.00013756
7.8142
0.000136218
7.81421
0.000134654
7.81423
0.00013285
7.81424
0.000130789
7.81425
0.000128455
7.81427
0.000125838
7.81428
0.000122931
7.81429
0.00011973
7.8143
0.00011624
7.81431
0.000112466
7.81432
0.000108424
7.81433
0.000104131
7.81434
9.96049e-05
7.81435
9.48886e-05
7.81436
9.00046e-05
7.81437
8.49919e-05
7.81437
7.98887e-05
7.81438
7.47385e-05
7.81439
6.95839e-05
7.81439
6.44634e-05
7.8144
5.94183e-05
7.8144
5.44856e-05
7.8144
4.9702e-05
7.81441
4.5101e-05
7.81441
4.07066e-05
7.81441
3.65419e-05
7.81441
3.26256e-05
7.81442
2.89683e-05
7.81442
2.55798e-05
7.81442
2.24628e-05
7.81442
1.96161e-05
7.81442
1.70362e-05
7.81442
1.47131e-05
7.81442
1.26366e-05
7.81442
1.07937e-05
7.81442
9.16943e-06
7.81441
7.74766e-06
7.81441
6.51152e-06
7.81441
5.44434e-06
7.81441
4.52873e-06
7.81441
3.74879e-06
7.81441
3.08939e-06
7.81441
2.53406e-06
7.81441
2.07046e-06
7.81441
1.68574e-06
7.81441
1.3685e-06
7.8144
1.10856e-06
7.8144
8.96921e-07
7.8144
7.25683e-07
7.8144
5.87997e-07
7.8144
4.7801e-07
7.8144
3.9052e-07
7.8144
3.21588e-07
7.8144
2.6752e-07
7.8144
2.25173e-07
7.8144
1.925e-07
7.8144
1.67279e-07
7.81439
1.47946e-07
7.81439
1.33218e-07
7.81439
1.2206e-07
7.81439
1.13624e-07
7.81439
1.07411e-07
7.81439
1.02704e-07
7.81439
9.92227e-08
7.81439
9.66756e-08
7.81439
9.48025e-08
7.81439
9.34338e-08
7.81439
9.23255e-08
7.81439
9.18708e-08
7.81439
9.12692e-08
7.81439
9.09536e-08
7.81439
9.05629e-08
7.81439
9.04424e-08
7.81439
9.03365e-08
7.8144
9.03242e-08
7.8144
9.01045e-08
7.8144
9.01364e-08
7.8144
9.02091e-08
7.8144
9.00127e-08
7.8144
9.00741e-08
7.8144
9.00868e-08
7.8144
9.0085e-08
7.8144
9.00859e-08
7.8144
9.00873e-08
7.8144
9.00936e-08
7.81441
9.00986e-08
7.81441
9.01023e-08
7.81441
9.011e-08
7.81441
9.01136e-08
7.81441
9.01241e-08
7.81441
9.013e-08
7.81442
9.01373e-08
7.81442
9.01478e-08
7.81442
9.01528e-08
7.81442
9.01614e-08
7.81443
9.01737e-08
7.81443
9.01828e-08
7.81443
9.01846e-08
7.81443
9.01969e-08
7.81444
9.0206e-08
7.81444
9.02191e-08
7.81444
9.02346e-08
7.81444
9.02464e-08
7.81445
9.02669e-08
7.81445
9.02846e-08
7.81445
9.03069e-08
7.81446
9.03269e-08
7.81446
9.0351e-08
7.81446
9.03742e-08
7.81447
9.03892e-08
7.81447
9.04079e-08
7.81447
9.04183e-08
7.81448
9.04265e-08
7.81448
9.04342e-08
7.81448
9.04379e-08
7.81449
9.04461e-08
7.81449
9.04488e-08
7.8145
9.04533e-08
7.8145
9.04597e-08
7.81451
9.04702e-08
7.81451
9.04843e-08
7.81451
9.04975e-08
7.81452
9.05143e-08
7.81452
9.05338e-08
7.81453
9.05525e-08
7.81453
9.05743e-08
7.81454
9.0598e-08
7.81455
9.06207e-08
7.81455
9.06389e-08
7.81456
9.06593e-08
7.81456
9.06821e-08
7.81457
9.06989e-08
7.81457
9.07157e-08
7.81458
9.0733e-08
7.81459
9.07498e-08
7.81459
9.0768e-08
7.8146
9.07817e-08
7.8146
9.07985e-08
7.81461
9.08126e-08
7.81462
9.08294e-08
7.81463
9.08426e-08
7.81463
9.08581e-08
7.81464
9.08717e-08
7.81465
9.08894e-08
7.81465
9.09049e-08
7.81466
9.09217e-08
7.81467
9.09404e-08
7.81468
9.09545e-08
7.81468
9.09686e-08
7.81469
9.09881e-08
7.8147
9.10045e-08
7.81471
9.10227e-08
7.81472
9.10409e-08
7.81473
9.10582e-08
7.81474
9.10795e-08
7.81474
9.11027e-08
7.81475
9.11241e-08
7.81476
9.11396e-08
7.81477
9.11637e-08
7.81478
9.11896e-08
7.81479
9.12109e-08
7.8148
9.12369e-08
7.81481
9.12582e-08
7.81482
9.12855e-08
7.81483
9.13096e-08
7.81484
9.13356e-08
7.81485
9.13597e-08
7.81486
9.13856e-08
7.81487
9.14165e-08
7.81488
9.14461e-08
7.81489
9.1472e-08
7.81491
9.14993e-08
7.81492
9.15306e-08
7.81493
9.15629e-08
7.81494
9.1592e-08
7.81495
9.16239e-08
7.81496
9.16593e-08
7.81497
9.16921e-08
7.81499
9.17271e-08
7.815
9.17616e-08
7.81501
9.1798e-08
7.81502
9.18362e-08
7.81504
9.18781e-08
7.81505
9.19117e-08
7.81506
9.19526e-08
7.81507
9.19927e-08
7.81509
9.20327e-08
7.8151
9.20777e-08
7.81511
9.21218e-08
7.81513
9.21641e-08
7.81514
9.2205e-08
7.81515
9.22519e-08
7.81517
9.2296e-08
7.81518
9.23424e-08
7.8152
9.23883e-08
7.81521
9.24324e-08
7.81522
9.24738e-08
7.81524
9.25161e-08
7.81525
9.25611e-08
7.81527
9.26002e-08
7.81528
9.2648e-08
7.8153
9.27002e-08
7.81531
9.27489e-08
7.81533
9.28017e-08
7.81534
9.2854e-08
7.81536
9.29113e-08
7.81537
9.29699e-08
7.81539
9.30318e-08
7.81541
9.30972e-08
7.81542
9.31614e-08
7.81544
9.32255e-08
7.81546
9.32919e-08
7.81547
9.33592e-08
7.81549
9.34215e-08
7.81551
9.34883e-08
7.81553
9.35529e-08
7.81554
9.36211e-08
7.81556
9.36907e-08
7.81558
9.37557e-08
7.8156
9.38221e-08
7.81562
9.38912e-08
7.81564
9.39635e-08
7.81566
9.40422e-08
7.81568
9.41222e-08
7.8157
9.42041e-08
7.81572
9.42882e-08
7.81574
9.43769e-08
7.81576
9.44669e-08
7.81578
9.45647e-08
7.8158
9.46602e-08
7.81583
9.47662e-08
7.81585
9.48621e-08
7.81587
9.4974e-08
7.8159
9.50849e-08
7.81592
9.51995e-08
7.81595
9.53219e-08
7.81597
9.54419e-08
7.816
9.55724e-08
7.81602
9.57016e-08
7.81605
9.58362e-08
7.81608
9.59776e-08
7.81611
9.61222e-08
7.81614
9.62732e-08
7.81617
9.64278e-08
7.8162
9.6592e-08
7.81623
9.67543e-08
7.81626
9.69344e-08
7.8163
9.71108e-08
7.81633
9.72946e-08
7.81637
9.75006e-08
7.8164
9.76902e-08
7.81644
9.79085e-08
7.81648
9.81286e-08
7.81652
9.83459e-08
7.81656
9.85942e-08
7.8166
9.88307e-08
7.81664
9.9089e-08
7.81669
9.93514e-08
7.81674
9.96279e-08
7.81678
9.99044e-08
7.81683
1.00209e-07
7.81688
1.0051e-07
7.81693
1.00822e-07
7.81699
1.01169e-07
7.81704
1.01477e-07
7.8171
1.01851e-07
7.81716
1.02219e-07
7.81722
1.02569e-07
7.81728
1.02989e-07
7.81735
1.0336e-07
7.81741
1.03768e-07
7.81748
1.04217e-07
7.81755
1.04636e-07
7.81762
1.05069e-07
7.8177
1.05552e-07
7.81777
1.06044e-07
7.81785
1.06527e-07
7.81793
1.07092e-07
7.81802
1.07721e-07
7.8181
1.08519e-07
7.81819
1.09776e-07
7.81828
1.11966e-07
7.81838
1.16441e-07
7.81847
1.26507e-07
7.81857
1.4987e-07
7.81868
2.04885e-07
7.81878
3.35509e-07
7.81889
6.47351e-07
7.819
1.39185e-06
7.81911
3.17179e-06
7.81922
7.42785e-06
7.81933
1.76038e-05
7.81944
4.19358e-05
7.81952
0.000100107
7.81954
0.000239144
7.81941
0.000571413
7.81894
0.00136479
7.81762
0.00325704
7.8143
0.00776226
7.8062
0.0184614
7.7868
0.0437991
7.74065
0.103688
7.63091
0.246498
7.36262
0.607742
1.5044
6.73277
34.4871
7.15688e-05
34.4872
8.15916e-05
34.4872
6.9528e-05
34.4873
6.98095e-05
34.4873
7.15896e-05
34.4874
7.18014e-05
34.4875
7.16515e-05
34.4875
7.1629e-05
34.4876
7.1641e-05
34.4877
7.16352e-05
34.4877
7.16254e-05
34.4878
7.16195e-05
34.4879
7.16136e-05
34.4879
7.16084e-05
34.488
7.16054e-05
34.4881
7.16005e-05
34.4881
7.16053e-05
34.4882
7.15955e-05
34.4882
7.15967e-05
34.4883
7.15964e-05
34.4884
7.15954e-05
34.4884
7.15945e-05
34.4885
7.15942e-05
34.4885
7.15919e-05
34.4886
7.15936e-05
34.4886
7.15923e-05
34.4886
7.15927e-05
34.4887
7.15934e-05
34.4887
7.15946e-05
34.4888
7.1596e-05
34.4889
7.15973e-05
34.4889
7.1606e-05
34.489
7.16181e-05
34.4891
7.16026e-05
34.4892
7.16126e-05
34.4893
7.16199e-05
34.4894
7.16251e-05
34.4895
7.16298e-05
34.4896
7.16342e-05
34.4897
7.16381e-05
34.4897
7.16416e-05
34.4898
7.16448e-05
34.4899
7.16481e-05
34.4899
7.16509e-05
34.49
7.16535e-05
34.49
7.16504e-05
34.4901
7.16549e-05
34.4901
7.16578e-05
34.4901
7.16574e-05
34.4902
7.16589e-05
34.4902
7.16602e-05
34.4903
7.16607e-05
34.4904
7.1659e-05
34.4904
7.16686e-05
34.4905
7.16726e-05
34.4906
7.16704e-05
34.4907
7.16754e-05
34.4907
7.16784e-05
34.4908
7.16826e-05
34.4909
7.16822e-05
34.4909
7.16927e-05
34.491
7.16946e-05
34.4911
7.16949e-05
34.4911
7.16981e-05
34.4912
7.17067e-05
34.4913
7.17204e-05
34.4914
7.17143e-05
34.4915
7.17217e-05
34.4916
7.17255e-05
34.4917
7.17292e-05
34.4918
7.17334e-05
34.4919
7.17371e-05
34.4919
7.17404e-05
34.492
7.17431e-05
34.4921
7.17451e-05
34.4922
7.17468e-05
34.4922
7.17511e-05
34.4923
7.17447e-05
34.4923
7.17228e-05
34.4924
7.17223e-05
34.4924
7.17145e-05
34.4924
7.16846e-05
34.4925
7.16536e-05
34.4925
7.16101e-05
34.4926
7.15496e-05
34.4927
7.14664e-05
34.4927
7.13746e-05
34.4928
7.12728e-05
34.4929
7.10646e-05
34.493
7.08602e-05
34.4931
7.06137e-05
34.4932
7.02962e-05
34.4933
6.99109e-05
34.4933
6.94476e-05
34.4934
6.88957e-05
34.4935
6.82448e-05
34.4936
6.7485e-05
34.4936
6.66067e-05
34.4937
6.56012e-05
34.4937
6.44609e-05
34.4938
6.31801e-05
34.4939
6.17547e-05
34.4939
6.0183e-05
34.494
5.84658e-05
34.494
5.66064e-05
34.4941
5.46111e-05
34.4941
5.24883e-05
34.4941
5.02493e-05
34.4942
4.79049e-05
34.4942
4.54814e-05
34.4943
4.29877e-05
34.4943
4.04403e-05
34.4943
3.78709e-05
34.4943
3.52927e-05
34.4944
3.27291e-05
34.4944
3.01982e-05
34.4944
2.77193e-05
34.4944
2.53125e-05
34.4944
2.29934e-05
34.4945
2.07754e-05
34.4945
1.86699e-05
34.4945
1.66878e-05
34.4945
1.48332e-05
34.4945
1.31124e-05
34.4945
1.15274e-05
34.4945
1.00777e-05
34.4945
8.76175e-06
34.4945
7.57532e-06
34.4945
6.51343e-06
34.4945
5.56936e-06
34.4945
4.73633e-06
34.4945
4.00613e-06
34.4945
3.37042e-06
34.4945
2.8208e-06
34.4945
2.34871e-06
34.4945
1.94599e-06
34.4945
1.60503e-06
34.4945
1.31762e-06
34.4945
1.07731e-06
34.4945
8.77659e-07
34.4945
7.1282e-07
34.4944
5.77594e-07
34.4944
4.67361e-07
34.4944
3.78068e-07
34.4944
3.0619e-07
34.4944
2.48693e-07
34.4944
2.02938e-07
34.4944
1.66819e-07
34.4944
1.38453e-07
34.4944
1.1625e-07
34.4944
9.90658e-08
34.4944
8.57995e-08
34.4944
7.56199e-08
34.4944
6.7856e-08
34.4944
6.1968e-08
34.4944
5.7523e-08
34.4944
5.42193e-08
34.4944
5.17409e-08
34.4944
4.98976e-08
34.4944
4.85461e-08
34.4944
4.75536e-08
34.4944
4.6824e-08
34.4944
4.62733e-08
34.4944
4.59625e-08
34.4944
4.56771e-08
34.4944
4.54925e-08
34.4944
4.5316e-08
34.4944
4.52353e-08
34.4944
4.51796e-08
34.4944
4.51539e-08
34.4944
4.5075e-08
34.4944
4.50696e-08
34.4944
4.50866e-08
34.4944
4.50266e-08
34.4944
4.50332e-08
34.4944
4.5043e-08
34.4944
4.50425e-08
34.4944
4.5043e-08
34.4944
4.50441e-08
34.4945
4.50466e-08
34.4945
4.50482e-08
34.4945
4.50505e-08
34.4945
4.50539e-08
34.4945
4.50566e-08
34.4945
4.50607e-08
34.4945
4.50646e-08
34.4945
4.50682e-08
34.4945
4.50741e-08
34.4945
4.50768e-08
34.4945
4.50818e-08
34.4945
4.50871e-08
34.4946
4.50909e-08
34.4946
4.50946e-08
34.4946
4.50993e-08
34.4946
4.51046e-08
34.4946
4.51103e-08
34.4946
4.51164e-08
34.4946
4.51234e-08
34.4946
4.5133e-08
34.4946
4.51421e-08
34.4947
4.51539e-08
34.4947
4.51651e-08
34.4947
4.51753e-08
34.4947
4.5186e-08
34.4947
4.51942e-08
34.4947
4.52033e-08
34.4948
4.52094e-08
34.4948
4.5213e-08
34.4948
4.52185e-08
34.4948
4.52198e-08
34.4948
4.52228e-08
34.4948
4.52246e-08
34.4949
4.52262e-08
34.4949
4.52299e-08
34.4949
4.52346e-08
34.4949
4.52414e-08
34.4949
4.52492e-08
34.495
4.52571e-08
34.495
4.52665e-08
34.495
4.52762e-08
34.495
4.52867e-08
34.495
4.52981e-08
34.4951
4.53099e-08
34.4951
4.53185e-08
34.4951
4.53292e-08
34.4951
4.53408e-08
34.4952
4.5349e-08
34.4952
4.53572e-08
34.4952
4.53667e-08
34.4953
4.53747e-08
34.4953
4.53831e-08
34.4953
4.53908e-08
34.4953
4.53992e-08
34.4954
4.5407e-08
34.4954
4.54143e-08
34.4954
4.5422e-08
34.4955
4.54293e-08
34.4955
4.54363e-08
34.4955
4.54454e-08
34.4956
4.54529e-08
34.4956
4.54611e-08
34.4956
4.54693e-08
34.4957
4.54768e-08
34.4957
4.54845e-08
34.4957
4.54934e-08
34.4958
4.55022e-08
34.4958
4.55116e-08
34.4958
4.552e-08
34.4959
4.55293e-08
34.4959
4.554e-08
34.496
4.55525e-08
34.496
4.55618e-08
34.496
4.557e-08
34.4961
4.55818e-08
34.4961
4.55943e-08
34.4962
4.56057e-08
34.4962
4.56182e-08
34.4962
4.56293e-08
34.4963
4.56428e-08
34.4963
4.56548e-08
34.4964
4.56675e-08
34.4964
4.5681e-08
34.4965
4.56935e-08
34.4965
4.57082e-08
34.4966
4.57228e-08
34.4966
4.5736e-08
34.4967
4.57494e-08
34.4967
4.57655e-08
34.4968
4.57806e-08
34.4968
4.57969e-08
34.4969
4.58126e-08
34.4969
4.58294e-08
34.497
4.58463e-08
34.497
4.5864e-08
34.4971
4.58817e-08
34.4971
4.58999e-08
34.4972
4.59183e-08
34.4972
4.59395e-08
34.4973