/*--------------------------------*- C++ -*----------------------------------*\
| =========                 |                                                 |
| \\      /  F ield         | OpenFOAM: The Open Source CFD Toolbox           |
|  \\    /   O peration     | Version:  3.0.x                                 |
|   \\  /    A nd           | Web:      www.OpenFOAM.org                      |
|    \\/     M anipulation  |                                                 |
\*---------------------------------------------------------------------------*/
FoamFile
{
    version     2.0;
    format      ascii;
    class       volVectorField;
    location    "0.33";
    object      U;
}
// * * * * * * * * * * * * * * * * * * * * * * * * * * * * * * * * * * * * * //

dimensions      [0 1 -1 0 0 0 0];

internalField   nonuniform List<vector> 
27600
(
(42.6981 0.000129713 0)
(42.6964 0.000119188 0)
(42.6945 0.000117667 0)
(42.6926 0.000120459 0)
(42.6907 0.000122875 0)
(42.6889 0.000124754 0)
(42.687 0.000126344 0)
(42.6851 0.000127702 0)
(42.6833 0.000128853 0)
(42.6814 0.000129833 0)
(42.6795 0.000130671 0)
(42.6776 0.000131398 0)
(42.6758 0.000132021 0)
(42.6739 0.000132563 0)
(42.672 0.000133034 0)
(42.6702 0.000133444 0)
(42.6683 0.00013381 0)
(42.6664 0.000134109 0)
(42.6646 0.000134391 0)
(42.6627 0.000134633 0)
(42.6608 0.000134845 0)
(42.6589 0.000135032 0)
(42.6571 0.000135194 0)
(42.6552 0.00013534 0)
(42.6533 0.000135467 0)
(42.6515 0.000135576 0)
(42.6496 0.000135676 0)
(42.6477 0.000135764 0)
(42.6458 0.000135842 0)
(42.644 0.000135911 0)
(42.6421 0.000135963 0)
(42.6402 0.000136028 0)
(42.6384 0.000136144 0)
(42.6365 0.000136073 0)
(42.6346 0.000136163 0)
(42.6328 0.000136199 0)
(42.6309 0.00013623 0)
(42.629 0.000136257 0)
(42.6272 0.000136279 0)
(42.6253 0.000136298 0)
(42.6234 0.000136314 0)
(42.6216 0.000136326 0)
(42.6197 0.000136335 0)
(42.6178 0.000136343 0)
(42.6159 0.000136347 0)
(42.6141 0.00013635 0)
(42.6122 0.000136355 0)
(42.6103 0.00013635 0)
(42.6085 0.000136348 0)
(42.6066 0.000136345 0)
(42.6047 0.000136341 0)
(42.6029 0.000136337 0)
(42.601 0.000136317 0)
(42.5991 0.000136333 0)
(42.5973 0.000136336 0)
(42.5954 0.000136318 0)
(42.5935 0.000136314 0)
(42.5917 0.000136309 0)
(42.5898 0.000136298 0)
(42.5879 0.000136298 0)
(42.5861 0.000136308 0)
(42.5842 0.000136293 0)
(42.5823 0.00013628 0)
(42.5805 0.000136275 0)
(42.5786 0.000136275 0)
(42.5767 0.000136297 0)
(42.5749 0.000136266 0)
(42.573 0.000136263 0)
(42.5711 0.000136258 0)
(42.5693 0.000136252 0)
(42.5674 0.000136246 0)
(42.5655 0.000136239 0)
(42.5637 0.000136231 0)
(42.5618 0.000136221 0)
(42.5599 0.000136211 0)
(42.5581 0.000136197 0)
(42.5562 0.000136186 0)
(42.5544 0.000136166 0)
(42.5525 0.000136115 0)
(42.5506 0.000136103 0)
(42.5488 0.00013606 0)
(42.5469 0.000135998 0)
(42.545 0.000135923 0)
(42.5432 0.000135826 0)
(42.5413 0.0001357 0)
(42.5394 0.000135522 0)
(42.5376 0.000135328 0)
(42.5357 0.000135147 0)
(42.5339 0.00013472 0)
(42.532 0.000134341 0)
(42.5302 0.00013385 0)
(42.5284 0.000133242 0)
(42.5265 0.000132506 0)
(42.5247 0.000131623 0)
(42.5229 0.000130574 0)
(42.5211 0.000129341 0)
(42.5194 0.000127903 0)
(42.5176 0.000126243 0)
(42.5159 0.000124345 0)
(42.5142 0.000122194 0)
(42.5126 0.00011978 0)
(42.5109 0.000117094 0)
(42.5094 0.000114133 0)
(42.5078 0.000110898 0)
(42.5063 0.000107395 0)
(42.5049 0.000103635 0)
(42.5035 9.96338e-05 0)
(42.5021 9.54131e-05 0)
(42.5009 9.09986e-05 0)
(42.4997 8.64199e-05 0)
(42.4985 8.17108e-05 0)
(42.4974 7.69077e-05 0)
(42.4964 7.20488e-05 0)
(42.4954 6.71736e-05 0)
(42.4946 6.23212e-05 0)
(42.4937 5.75295e-05 0)
(42.493 5.28344e-05 0)
(42.4923 4.82711e-05 0)
(42.4917 4.38712e-05 0)
(42.4911 3.96594e-05 0)
(42.4906 3.56593e-05 0)
(42.4901 3.18886e-05 0)
(42.4897 2.83604e-05 0)
(42.4893 2.50839e-05 0)
(42.489 2.20635e-05 0)
(42.4887 1.92989e-05 0)
(42.4885 1.67879e-05 0)
(42.4883 1.45221e-05 0)
(42.4881 1.24928e-05 0)
(42.4879 1.06879e-05 0)
(42.4878 9.0938e-06 0)
(42.4877 7.69563e-06 0)
(42.4876 6.47764e-06 0)
(42.4875 5.424e-06 0)
(42.4874 4.51835e-06 0)
(42.4873 3.74537e-06 0)
(42.4873 3.09044e-06 0)
(42.4872 2.5381e-06 0)
(42.4872 2.07609e-06 0)
(42.4872 1.69197e-06 0)
(42.4871 1.37466e-06 0)
(42.4871 1.11422e-06 0)
(42.4871 9.01796e-07 0)
(42.4871 7.29637e-07 0)
(42.4871 5.90975e-07 0)
(42.4871 4.80021e-07 0)
(42.4871 3.91667e-07 0)
(42.487 3.21894e-07 0)
(42.487 2.67071e-07 0)
(42.487 2.24137e-07 0)
(42.487 1.90903e-07 0)
(42.487 1.65216e-07 0)
(42.487 1.45506e-07 0)
(42.487 1.30476e-07 0)
(42.487 1.19065e-07 0)
(42.487 1.10439e-07 0)
(42.487 1.04045e-07 0)
(42.487 9.92339e-08 0)
(42.487 9.56689e-08 0)
(42.487 9.30458e-08 0)
(42.487 9.11232e-08 0)
(42.487 8.9729e-08 0)
(42.487 8.86284e-08 0)
(42.487 8.8095e-08 0)
(42.487 8.74973e-08 0)
(42.487 8.71734e-08 0)
(42.487 8.68349e-08 0)
(42.487 8.67044e-08 0)
(42.487 8.65824e-08 0)
(42.487 8.65628e-08 0)
(42.487 8.6406e-08 0)
(42.487 8.64211e-08 0)
(42.487 8.64732e-08 0)
(42.487 8.63542e-08 0)
(42.487 8.64139e-08 0)
(42.487 8.64255e-08 0)
(42.487 8.64364e-08 0)
(42.4871 8.64528e-08 0)
(42.4871 8.64696e-08 0)
(42.4871 8.64809e-08 0)
(42.4871 8.65009e-08 0)
(42.4871 8.65165e-08 0)
(42.4871 8.65357e-08 0)
(42.4871 8.65577e-08 0)
(42.4871 8.65743e-08 0)
(42.4871 8.65954e-08 0)
(42.4871 8.66135e-08 0)
(42.4871 8.66272e-08 0)
(42.4871 8.6648e-08 0)
(42.4872 8.66665e-08 0)
(42.4872 8.66826e-08 0)
(42.4872 8.66983e-08 0)
(42.4872 8.67166e-08 0)
(42.4872 8.67373e-08 0)
(42.4872 8.67546e-08 0)
(42.4872 8.67749e-08 0)
(42.4873 8.67958e-08 0)
(42.4873 8.68185e-08 0)
(42.4873 8.68424e-08 0)
(42.4873 8.68657e-08 0)
(42.4873 8.68938e-08 0)
(42.4873 8.6927e-08 0)
(42.4873 8.6953e-08 0)
(42.4874 8.69771e-08 0)
(42.4874 8.7001e-08 0)
(42.4874 8.70224e-08 0)
(42.4874 8.70369e-08 0)
(42.4874 8.70585e-08 0)
(42.4875 8.70708e-08 0)
(42.4875 8.70797e-08 0)
(42.4875 8.70889e-08 0)
(42.4875 8.70984e-08 0)
(42.4875 8.71093e-08 0)
(42.4876 8.71224e-08 0)
(42.4876 8.71396e-08 0)
(42.4876 8.71521e-08 0)
(42.4876 8.71682e-08 0)
(42.4877 8.71891e-08 0)
(42.4877 8.71951e-08 0)
(42.4877 8.7227e-08 0)
(42.4877 8.72536e-08 0)
(42.4878 8.72861e-08 0)
(42.4878 8.73147e-08 0)
(42.4878 8.73388e-08 0)
(42.4879 8.73651e-08 0)
(42.4879 8.73904e-08 0)
(42.4879 8.74215e-08 0)
(42.4879 8.74469e-08 0)
(42.488 8.74712e-08 0)
(42.488 8.74955e-08 0)
(42.488 8.75192e-08 0)
(42.4881 8.75479e-08 0)
(42.4881 8.75713e-08 0)
(42.4881 8.75914e-08 0)
(42.4882 8.76173e-08 0)
(42.4882 8.7642e-08 0)
(42.4883 8.76677e-08 0)
(42.4883 8.76926e-08 0)
(42.4883 8.77173e-08 0)
(42.4884 8.77426e-08 0)
(42.4884 8.7772e-08 0)
(42.4884 8.77967e-08 0)
(42.4885 8.78274e-08 0)
(42.4885 8.78547e-08 0)
(42.4886 8.78838e-08 0)
(42.4886 8.79087e-08 0)
(42.4887 8.79339e-08 0)
(42.4887 8.79646e-08 0)
(42.4888 8.79958e-08 0)
(42.4888 8.8027e-08 0)
(42.4888 8.80573e-08 0)
(42.4889 8.80901e-08 0)
(42.4889 8.81205e-08 0)
(42.489 8.81522e-08 0)
(42.489 8.81874e-08 0)
(42.4891 8.82233e-08 0)
(42.4891 8.826e-08 0)
(42.4892 8.82961e-08 0)
(42.4892 8.83316e-08 0)
(42.4893 8.83634e-08 0)
(42.4893 8.83993e-08 0)
(42.4894 8.8436e-08 0)
(42.4895 8.84761e-08 0)
(42.4895 8.85161e-08 0)
(42.4896 8.85571e-08 0)
(42.4896 8.85934e-08 0)
(42.4897 8.86338e-08 0)
(42.4897 8.86789e-08 0)
(42.4898 8.8716e-08 0)
(42.4899 8.87611e-08 0)
(42.4899 8.88007e-08 0)
(42.49 8.88455e-08 0)
(42.49 8.88849e-08 0)
(42.4901 8.8924e-08 0)
(42.4902 8.89693e-08 0)
(42.4902 8.90171e-08 0)
(42.4903 8.90622e-08 0)
(42.4904 8.91049e-08 0)
(42.4904 8.91496e-08 0)
(42.4905 8.91967e-08 0)
(42.4906 8.92465e-08 0)
(42.4906 8.92957e-08 0)
(42.4907 8.93414e-08 0)
(42.4908 8.93905e-08 0)
(42.4908 8.94371e-08 0)
(42.4909 8.94892e-08 0)
(42.491 8.95386e-08 0)
(42.491 8.95917e-08 0)
(42.4911 8.96464e-08 0)
(42.4912 8.96934e-08 0)
(42.4913 8.97477e-08 0)
(42.4913 8.97946e-08 0)
(42.4914 8.98452e-08 0)
(42.4915 8.98977e-08 0)
(42.4916 8.99525e-08 0)
(42.4916 9.00063e-08 0)
(42.4917 9.00627e-08 0)
(42.4918 9.01241e-08 0)
(42.4919 9.01843e-08 0)
(42.4919 9.02473e-08 0)
(42.492 9.03122e-08 0)
(42.4921 9.0379e-08 0)
(42.4922 9.04528e-08 0)
(42.4923 9.05289e-08 0)
(42.4924 9.06028e-08 0)
(42.4924 9.06785e-08 0)
(42.4925 9.07574e-08 0)
(42.4926 9.08385e-08 0)
(42.4927 9.0912e-08 0)
(42.4928 9.09873e-08 0)
(42.4929 9.10668e-08 0)
(42.493 9.11411e-08 0)
(42.4931 9.12185e-08 0)
(42.4932 9.13045e-08 0)
(42.4933 9.13803e-08 0)
(42.4934 9.14662e-08 0)
(42.4935 9.15499e-08 0)
(42.4936 9.16395e-08 0)
(42.4937 9.17315e-08 0)
(42.4938 9.18252e-08 0)
(42.4939 9.19206e-08 0)
(42.494 9.20256e-08 0)
(42.4941 9.21301e-08 0)
(42.4942 9.22373e-08 0)
(42.4943 9.23413e-08 0)
(42.4944 9.24536e-08 0)
(42.4945 9.25727e-08 0)
(42.4946 9.26867e-08 0)
(42.4948 9.28108e-08 0)
(42.4949 9.29349e-08 0)
(42.495 9.30642e-08 0)
(42.4951 9.31968e-08 0)
(42.4953 9.33344e-08 0)
(42.4954 9.34736e-08 0)
(42.4955 9.3619e-08 0)
(42.4957 9.37646e-08 0)
(42.4958 9.39153e-08 0)
(42.496 9.40704e-08 0)
(42.4961 9.4224e-08 0)
(42.4963 9.43848e-08 0)
(42.4964 9.45476e-08 0)
(42.4966 9.47184e-08 0)
(42.4968 9.48866e-08 0)
(42.497 9.5066e-08 0)
(42.4971 9.52517e-08 0)
(42.4973 9.54354e-08 0)
(42.4975 9.56264e-08 0)
(42.4977 9.58216e-08 0)
(42.4979 9.60168e-08 0)
(42.4981 9.6222e-08 0)
(42.4983 9.64307e-08 0)
(42.4985 9.66456e-08 0)
(42.4988 9.68628e-08 0)
(42.499 9.70912e-08 0)
(42.4992 9.73265e-08 0)
(42.4995 9.75597e-08 0)
(42.4997 9.78012e-08 0)
(42.5 9.80463e-08 0)
(42.5003 9.83013e-08 0)
(42.5006 9.85547e-08 0)
(42.5008 9.88214e-08 0)
(42.5011 9.90881e-08 0)
(42.5014 9.93573e-08 0)
(42.5018 9.96336e-08 0)
(42.5021 9.99113e-08 0)
(42.5024 1.00199e-07 0)
(42.5028 1.00495e-07 0)
(42.5031 1.00788e-07 0)
(42.5035 1.01087e-07 0)
(42.5039 1.01392e-07 0)
(42.5043 1.01696e-07 0)
(42.5047 1.02008e-07 0)
(42.5051 1.02324e-07 0)
(42.5055 1.02646e-07 0)
(42.5059 1.02986e-07 0)
(42.5064 1.0337e-07 0)
(42.5068 1.03839e-07 0)
(42.5073 1.04524e-07 0)
(42.5078 1.05716e-07 0)
(42.5083 1.0813e-07 0)
(42.5088 1.13446e-07 0)
(42.5093 1.25706e-07 0)
(42.5099 1.54642e-07 0)
(42.5104 2.23496e-07 0)
(42.511 3.88052e-07 0)
(42.5116 7.81685e-07 0)
(42.5122 1.72317e-06 0)
(42.5127 3.97469e-06 0)
(42.5132 9.35762e-06 0)
(42.5134 2.22233e-05 0)
(42.5132 5.29692e-05 0)
(42.5116 0.000126379 0)
(42.5069 0.000301459 0)
(42.4948 0.000718288 0)
(42.4651 0.00170826 0)
(42.3936 0.00405367 0)
(42.2239 0.00960583 0)
(41.8213 0.0229355 0)
(40.9215 0.057676 0)
(37.2816 0.159595 0)
(42.7001 0.000208895 0)
(42.7002 0.000168674 0)
(42.7003 0.000152642 0)
(42.7004 0.000150639 0)
(42.7005 0.00014918 0)
(42.7006 0.000147462 0)
(42.7006 0.000146047 0)
(42.7007 0.000144911 0)
(42.7008 0.000143948 0)
(42.7009 0.000143116 0)
(42.701 0.000142395 0)
(42.701 0.000141781 0)
(42.7011 0.000141236 0)
(42.7012 0.000140763 0)
(42.7013 0.000140348 0)
(42.7014 0.00013998 0)
(42.7014 0.000139671 0)
(42.7015 0.00013936 0)
(42.7016 0.000139121 0)
(42.7017 0.000138898 0)
(42.7018 0.000138698 0)
(42.7018 0.000138522 0)
(42.7019 0.000138361 0)
(42.702 0.000138223 0)
(42.7021 0.000138098 0)
(42.7022 0.000137983 0)
(42.7022 0.000137886 0)
(42.7023 0.000137798 0)
(42.7024 0.000137721 0)
(42.7025 0.000137653 0)
(42.7026 0.000137577 0)
(42.7026 0.000137542 0)
(42.7027 0.00013761 0)
(42.7028 0.000137371 0)
(42.7029 0.000137425 0)
(42.703 0.000137399 0)
(42.703 0.000137375 0)
(42.7031 0.000137353 0)
(42.7032 0.000137334 0)
(42.7033 0.000137317 0)
(42.7033 0.000137301 0)
(42.7034 0.000137287 0)
(42.7035 0.000137273 0)
(42.7036 0.000137263 0)
(42.7037 0.000137252 0)
(42.7037 0.000137241 0)
(42.7038 0.00013724 0)
(42.7039 0.000137227 0)
(42.704 0.00013722 0)
(42.7041 0.000137214 0)
(42.7041 0.000137209 0)
(42.7042 0.000137204 0)
(42.7043 0.000137176 0)
(42.7044 0.00013721 0)
(42.7044 0.000137219 0)
(42.7045 0.000137199 0)
(42.7046 0.000137203 0)
(42.7047 0.000137205 0)
(42.7048 0.000137197 0)
(42.7048 0.000137208 0)
(42.7049 0.000137236 0)
(42.705 0.000137224 0)
(42.7051 0.000137216 0)
(42.7052 0.000137222 0)
(42.7052 0.000137235 0)
(42.7053 0.000137283 0)
(42.7054 0.00013725 0)
(42.7055 0.000137262 0)
(42.7055 0.000137269 0)
(42.7056 0.000137275 0)
(42.7057 0.000137282 0)
(42.7058 0.000137287 0)
(42.7059 0.000137292 0)
(42.7059 0.000137296 0)
(42.706 0.000137298 0)
(42.7061 0.000137298 0)
(42.7062 0.000137304 0)
(42.7062 0.000137296 0)
(42.7063 0.000137239 0)
(42.7064 0.00013726 0)
(42.7065 0.000137223 0)
(42.7065 0.000137168 0)
(42.7066 0.000137102 0)
(42.7067 0.000137012 0)
(42.7068 0.000136891 0)
(42.7068 0.000136703 0)
(42.7069 0.000136517 0)
(42.707 0.000136388 0)
(42.7071 0.000135866 0)
(42.7071 0.000135505 0)
(42.7072 0.000135001 0)
(42.7073 0.000134366 0)
(42.7074 0.000133598 0)
(42.7074 0.000132675 0)
(42.7075 0.000131578 0)
(42.7076 0.000130287 0)
(42.7077 0.000128783 0)
(42.7077 0.000127048 0)
(42.7078 0.000125066 0)
(42.7079 0.000122823 0)
(42.7079 0.000120309 0)
(42.708 0.000117515 0)
(42.7081 0.000114442 0)
(42.7081 0.00011109 0)
(42.7082 0.000107467 0)
(42.7083 0.000103587 0)
(42.7083 9.94664e-05 0)
(42.7084 9.51285e-05 0)
(42.7084 9.0604e-05 0)
(42.7085 8.59208e-05 0)
(42.7085 8.11161e-05 0)
(42.7086 7.62271e-05 0)
(42.7086 7.12939e-05 0)
(42.7087 6.6357e-05 0)
(42.7087 6.14557e-05 0)
(42.7087 5.66281e-05 0)
(42.7088 5.19093e-05 0)
(42.7088 4.73355e-05 0)
(42.7088 4.29378e-05 0)
(42.7089 3.87389e-05 0)
(42.7089 3.47618e-05 0)
(42.7089 3.10225e-05 0)
(42.7089 2.75331e-05 0)
(42.7089 2.43014e-05 0)
(42.7089 2.13302e-05 0)
(42.7089 1.86178e-05 0)
(42.7089 1.61612e-05 0)
(42.709 1.395e-05 0)
(42.709 1.19748e-05 0)
(42.709 1.02229e-05 0)
(42.709 8.6796e-06 0)
(42.709 7.32958e-06 0)
(42.709 6.15656e-06 0)
(42.709 5.14458e-06 0)
(42.709 4.27682e-06 0)
(42.7089 3.53817e-06 0)
(42.7089 2.91427e-06 0)
(42.7089 2.38899e-06 0)
(42.7089 1.95089e-06 0)
(42.7089 1.58759e-06 0)
(42.7089 1.28824e-06 0)
(42.7089 1.04315e-06 0)
(42.7089 8.43752e-07 0)
(42.7089 6.82549e-07 0)
(42.7089 5.53031e-07 0)
(42.7089 4.49665e-07 0)
(42.7089 3.67478e-07 0)
(42.7089 3.02803e-07 0)
(42.7089 2.52126e-07 0)
(42.7089 2.12424e-07 0)
(42.7089 1.81867e-07 0)
(42.7089 1.58273e-07 0)
(42.7089 1.40208e-07 0)
(42.7089 1.26456e-07 0)
(42.7089 1.1606e-07 0)
(42.7089 1.08186e-07 0)
(42.7089 1.02422e-07 0)
(42.7088 9.80259e-08 0)
(42.7088 9.47884e-08 0)
(42.7088 9.24206e-08 0)
(42.7088 9.06877e-08 0)
(42.7088 8.94222e-08 0)
(42.7088 8.83345e-08 0)
(42.7088 8.80085e-08 0)
(42.7088 8.73908e-08 0)
(42.7088 8.71194e-08 0)
(42.7088 8.67143e-08 0)
(42.7088 8.66245e-08 0)
(42.7089 8.65119e-08 0)
(42.7089 8.652e-08 0)
(42.7089 8.62757e-08 0)
(42.7089 8.63147e-08 0)
(42.7089 8.6409e-08 0)
(42.7089 8.61648e-08 0)
(42.7089 8.6244e-08 0)
(42.7089 8.62415e-08 0)
(42.7089 8.62335e-08 0)
(42.7089 8.62262e-08 0)
(42.7089 8.62275e-08 0)
(42.7089 8.6226e-08 0)
(42.7089 8.62241e-08 0)
(42.7089 8.62178e-08 0)
(42.7089 8.62177e-08 0)
(42.7089 8.62194e-08 0)
(42.7089 8.6216e-08 0)
(42.7089 8.62191e-08 0)
(42.709 8.62172e-08 0)
(42.709 8.6225e-08 0)
(42.709 8.62272e-08 0)
(42.709 8.62327e-08 0)
(42.709 8.62365e-08 0)
(42.709 8.62391e-08 0)
(42.709 8.62362e-08 0)
(42.709 8.62377e-08 0)
(42.7091 8.6241e-08 0)
(42.7091 8.62493e-08 0)
(42.7091 8.62553e-08 0)
(42.7091 8.62666e-08 0)
(42.7091 8.62793e-08 0)
(42.7091 8.62905e-08 0)
(42.7091 8.63037e-08 0)
(42.7092 8.63179e-08 0)
(42.7092 8.63378e-08 0)
(42.7092 8.6352e-08 0)
(42.7092 8.63664e-08 0)
(42.7092 8.63757e-08 0)
(42.7092 8.63882e-08 0)
(42.7093 8.63893e-08 0)
(42.7093 8.63949e-08 0)
(42.7093 8.63973e-08 0)
(42.7093 8.63984e-08 0)
(42.7093 8.63965e-08 0)
(42.7094 8.63965e-08 0)
(42.7094 8.63933e-08 0)
(42.7094 8.63984e-08 0)
(42.7094 8.64045e-08 0)
(42.7095 8.64107e-08 0)
(42.7095 8.64261e-08 0)
(42.7095 8.64434e-08 0)
(42.7095 8.64616e-08 0)
(42.7096 8.64805e-08 0)
(42.7096 8.64932e-08 0)
(42.7096 8.65105e-08 0)
(42.7096 8.65244e-08 0)
(42.7097 8.65425e-08 0)
(42.7097 8.65565e-08 0)
(42.7097 8.65695e-08 0)
(42.7098 8.65804e-08 0)
(42.7098 8.65917e-08 0)
(42.7098 8.66073e-08 0)
(42.7099 8.66199e-08 0)
(42.7099 8.66277e-08 0)
(42.7099 8.66406e-08 0)
(42.71 8.66524e-08 0)
(42.71 8.66626e-08 0)
(42.71 8.66726e-08 0)
(42.7101 8.66889e-08 0)
(42.7101 8.67002e-08 0)
(42.7101 8.67109e-08 0)
(42.7102 8.67287e-08 0)
(42.7102 8.67398e-08 0)
(42.7103 8.67565e-08 0)
(42.7103 8.67611e-08 0)
(42.7103 8.67736e-08 0)
(42.7104 8.67917e-08 0)
(42.7104 8.68044e-08 0)
(42.7105 8.68205e-08 0)
(42.7105 8.68363e-08 0)
(42.7106 8.68542e-08 0)
(42.7106 8.68693e-08 0)
(42.7106 8.68871e-08 0)
(42.7107 8.69037e-08 0)
(42.7107 8.6923e-08 0)
(42.7108 8.69457e-08 0)
(42.7108 8.69648e-08 0)
(42.7109 8.6985e-08 0)
(42.7109 8.70083e-08 0)
(42.711 8.70272e-08 0)
(42.711 8.70513e-08 0)
(42.7111 8.70753e-08 0)
(42.7111 8.70996e-08 0)
(42.7112 8.71244e-08 0)
(42.7113 8.7148e-08 0)
(42.7113 8.71748e-08 0)
(42.7114 8.7199e-08 0)
(42.7114 8.72249e-08 0)
(42.7115 8.72517e-08 0)
(42.7115 8.72832e-08 0)
(42.7116 8.73125e-08 0)
(42.7117 8.73448e-08 0)
(42.7117 8.73785e-08 0)
(42.7118 8.74161e-08 0)
(42.7118 8.74505e-08 0)
(42.7119 8.74874e-08 0)
(42.712 8.75204e-08 0)
(42.712 8.7563e-08 0)
(42.7121 8.76027e-08 0)
(42.7122 8.76418e-08 0)
(42.7122 8.76824e-08 0)
(42.7123 8.77221e-08 0)
(42.7124 8.77674e-08 0)
(42.7124 8.78074e-08 0)
(42.7125 8.78592e-08 0)
(42.7126 8.79088e-08 0)
(42.7126 8.79529e-08 0)
(42.7127 8.80037e-08 0)
(42.7128 8.8058e-08 0)
(42.7128 8.81081e-08 0)
(42.7129 8.81608e-08 0)
(42.713 8.82183e-08 0)
(42.713 8.82703e-08 0)
(42.7131 8.83194e-08 0)
(42.7132 8.83723e-08 0)
(42.7133 8.84275e-08 0)
(42.7133 8.84855e-08 0)
(42.7134 8.85392e-08 0)
(42.7135 8.86029e-08 0)
(42.7136 8.86652e-08 0)
(42.7137 8.87321e-08 0)
(42.7137 8.87976e-08 0)
(42.7138 8.8871e-08 0)
(42.7139 8.8947e-08 0)
(42.714 8.90216e-08 0)
(42.7141 8.91059e-08 0)
(42.7141 8.91882e-08 0)
(42.7142 8.92723e-08 0)
(42.7143 8.93544e-08 0)
(42.7144 8.94405e-08 0)
(42.7145 8.95265e-08 0)
(42.7146 8.96187e-08 0)
(42.7147 8.9711e-08 0)
(42.7148 8.97988e-08 0)
(42.7148 8.98977e-08 0)
(42.7149 8.99896e-08 0)
(42.715 9.00792e-08 0)
(42.7151 9.01768e-08 0)
(42.7152 9.02859e-08 0)
(42.7153 9.03932e-08 0)
(42.7154 9.05064e-08 0)
(42.7155 9.06248e-08 0)
(42.7156 9.07434e-08 0)
(42.7157 9.08731e-08 0)
(42.7158 9.10015e-08 0)
(42.716 9.11357e-08 0)
(42.7161 9.12804e-08 0)
(42.7162 9.14241e-08 0)
(42.7163 9.15735e-08 0)
(42.7164 9.17331e-08 0)
(42.7165 9.18929e-08 0)
(42.7167 9.20561e-08 0)
(42.7168 9.22318e-08 0)
(42.7169 9.24041e-08 0)
(42.717 9.25841e-08 0)
(42.7172 9.27703e-08 0)
(42.7173 9.29657e-08 0)
(42.7175 9.31662e-08 0)
(42.7176 9.33723e-08 0)
(42.7177 9.35856e-08 0)
(42.7179 9.38098e-08 0)
(42.7181 9.40404e-08 0)
(42.7182 9.42828e-08 0)
(42.7184 9.45322e-08 0)
(42.7185 9.47836e-08 0)
(42.7187 9.50495e-08 0)
(42.7189 9.53239e-08 0)
(42.7191 9.56032e-08 0)
(42.7193 9.59023e-08 0)
(42.7195 9.62015e-08 0)
(42.7197 9.65219e-08 0)
(42.7199 9.68522e-08 0)
(42.7201 9.71901e-08 0)
(42.7203 9.75415e-08 0)
(42.7205 9.79011e-08 0)
(42.7208 9.82749e-08 0)
(42.721 9.86574e-08 0)
(42.7212 9.90559e-08 0)
(42.7215 9.94603e-08 0)
(42.7218 9.98836e-08 0)
(42.722 1.00319e-07 0)
(42.7223 1.00756e-07 0)
(42.7226 1.01225e-07 0)
(42.7229 1.01696e-07 0)
(42.7232 1.02183e-07 0)
(42.7235 1.02694e-07 0)
(42.7238 1.03197e-07 0)
(42.7242 1.03723e-07 0)
(42.7245 1.04274e-07 0)
(42.7249 1.04815e-07 0)
(42.7252 1.05383e-07 0)
(42.7256 1.0597e-07 0)
(42.726 1.06571e-07 0)
(42.7264 1.07184e-07 0)
(42.7268 1.07827e-07 0)
(42.7272 1.08501e-07 0)
(42.7277 1.09237e-07 0)
(42.7281 1.10132e-07 0)
(42.7286 1.11334e-07 0)
(42.7291 1.13265e-07 0)
(42.7295 1.1697e-07 0)
(42.7301 1.24911e-07 0)
(42.7306 1.42879e-07 0)
(42.7311 1.84723e-07 0)
(42.7316 2.83667e-07 0)
(42.7322 5.1875e-07 0)
(42.7328 1.07956e-06 0)
(42.7333 2.41939e-06 0)
(42.7339 5.622e-06 0)
(42.7345 1.32791e-05 0)
(42.7349 3.15842e-05 0)
(42.7352 7.53339e-05 0)
(42.7349 0.000179885 0)
(42.7334 0.00042951 0)
(42.7287 0.00102483 0)
(42.7167 0.00244203 0)
(42.6871 0.00580692 0)
(42.616 0.0137735 0)
(42.4472 0.0326 0)
(42.0469 0.0775821 0)
(41.1533 0.192892 0)
(37.7354 0.503735 0)
(42.7001 0.000149853 0)
(42.7002 0.000119675 0)
(42.7003 0.000105969 0)
(42.7004 0.0001084 0)
(42.7005 0.0001104 0)
(42.7005 0.00011097 0)
(42.7006 0.000111369 0)
(42.7007 0.000111789 0)
(42.7008 0.000112158 0)
(42.7009 0.000112468 0)
(42.701 0.000112734 0)
(42.701 0.000112974 0)
(42.7011 0.000113177 0)
(42.7012 0.000113359 0)
(42.7013 0.00011352 0)
(42.7014 0.000113659 0)
(42.7014 0.000113799 0)
(42.7015 0.000113891 0)
(42.7016 0.000114001 0)
(42.7017 0.000114091 0)
(42.7018 0.00011417 0)
(42.7018 0.000114242 0)
(42.7019 0.000114304 0)
(42.702 0.000114363 0)
(42.7021 0.000114414 0)
(42.7022 0.000114461 0)
(42.7023 0.000114504 0)
(42.7023 0.000114542 0)
(42.7024 0.000114578 0)
(42.7025 0.000114611 0)
(42.7026 0.000114632 0)
(42.7027 0.000114676 0)
(42.7027 0.000114777 0)
(42.7028 0.000114666 0)
(42.7029 0.000114749 0)
(42.703 0.000114776 0)
(42.7031 0.000114798 0)
(42.7032 0.000114819 0)
(42.7032 0.000114837 0)
(42.7033 0.000114854 0)
(42.7034 0.000114869 0)
(42.7035 0.000114883 0)
(42.7036 0.000114894 0)
(42.7037 0.000114907 0)
(42.7037 0.000114916 0)
(42.7038 0.000114922 0)
(42.7039 0.000114935 0)
(42.704 0.000114941 0)
(42.7041 0.000114947 0)
(42.7041 0.000114953 0)
(42.7042 0.000114959 0)
(42.7043 0.000114964 0)
(42.7044 0.000114953 0)
(42.7045 0.000114986 0)
(42.7046 0.000114996 0)
(42.7046 0.000114991 0)
(42.7047 0.000115 0)
(42.7048 0.000115007 0)
(42.7049 0.000115008 0)
(42.705 0.000115018 0)
(42.7051 0.000115043 0)
(42.7051 0.000115039 0)
(42.7052 0.000115037 0)
(42.7053 0.000115046 0)
(42.7054 0.000115059 0)
(42.7055 0.000115094 0)
(42.7056 0.000115078 0)
(42.7057 0.000115089 0)
(42.7057 0.000115096 0)
(42.7058 0.000115103 0)
(42.7059 0.000115111 0)
(42.706 0.000115117 0)
(42.7061 0.000115123 0)
(42.7062 0.000115128 0)
(42.7062 0.000115131 0)
(42.7063 0.000115133 0)
(42.7064 0.000115139 0)
(42.7065 0.000115132 0)
(42.7066 0.000115087 0)
(42.7067 0.000115105 0)
(42.7067 0.000115074 0)
(42.7068 0.000115027 0)
(42.7069 0.000114973 0)
(42.707 0.000114898 0)
(42.7071 0.000114795 0)
(42.7071 0.00011464 0)
(42.7072 0.000114485 0)
(42.7073 0.000114359 0)
(42.7074 0.000113928 0)
(42.7075 0.000113623 0)
(42.7076 0.000113195 0)
(42.7076 0.000112656 0)
(42.7077 0.000112004 0)
(42.7078 0.000111222 0)
(42.7079 0.000110293 0)
(42.7079 0.0001092 0)
(42.708 0.000107927 0)
(42.7081 0.000106459 0)
(42.7082 0.000104783 0)
(42.7082 0.000102888 0)
(42.7083 0.000100763 0)
(42.7084 9.84052e-05 0)
(42.7084 9.58116e-05 0)
(42.7085 9.29848e-05 0)
(42.7086 8.99315e-05 0)
(42.7086 8.66634e-05 0)
(42.7087 8.31946e-05 0)
(42.7087 7.95426e-05 0)
(42.7088 7.57387e-05 0)
(42.7088 7.18035e-05 0)
(42.7089 6.7768e-05 0)
(42.7089 6.36636e-05 0)
(42.709 5.95248e-05 0)
(42.709 5.5386e-05 0)
(42.709 5.12787e-05 0)
(42.709 4.72354e-05 0)
(42.7091 4.32857e-05 0)
(42.7091 3.94592e-05 0)
(42.7091 3.5782e-05 0)
(42.7091 3.2273e-05 0)
(42.7091 2.89509e-05 0)
(42.7091 2.58291e-05 0)
(42.7091 2.29172e-05 0)
(42.7092 2.02216e-05 0)
(42.7092 1.77443e-05 0)
(42.7092 1.54838e-05 0)
(42.7092 1.34373e-05 0)
(42.7092 1.1596e-05 0)
(42.7092 9.95178e-06 0)
(42.7092 8.49386e-06 0)
(42.7092 7.21007e-06 0)
(42.7091 6.08739e-06 0)
(42.7091 5.11217e-06 0)
(42.7091 4.27106e-06 0)
(42.7091 3.54999e-06 0)
(42.7091 2.93639e-06 0)
(42.7091 2.41812e-06 0)
(42.7091 1.98196e-06 0)
(42.7091 1.61823e-06 0)
(42.7091 1.31665e-06 0)
(42.7091 1.06819e-06 0)
(42.7091 8.64796e-07 0)
(42.7091 6.99341e-07 0)
(42.7091 5.65594e-07 0)
(42.7091 4.5815e-07 0)
(42.7091 3.72407e-07 0)
(42.7091 3.04244e-07 0)
(42.7091 2.50606e-07 0)
(42.709 2.08581e-07 0)
(42.709 1.75666e-07 0)
(42.709 1.50317e-07 0)
(42.709 1.30758e-07 0)
(42.709 1.15784e-07 0)
(42.709 1.04383e-07 0)
(42.709 9.57537e-08 0)
(42.709 8.9229e-08 0)
(42.709 8.44455e-08 0)
(42.709 8.08061e-08 0)
(42.709 7.81306e-08 0)
(42.709 7.61681e-08 0)
(42.709 7.47238e-08 0)
(42.709 7.36743e-08 0)
(42.709 7.27955e-08 0)
(42.709 7.24997e-08 0)
(42.709 7.2012e-08 0)
(42.709 7.1782e-08 0)
(42.709 7.1462e-08 0)
(42.709 7.13836e-08 0)
(42.709 7.13016e-08 0)
(42.709 7.13072e-08 0)
(42.709 7.11085e-08 0)
(42.709 7.11492e-08 0)
(42.709 7.12225e-08 0)
(42.709 7.10399e-08 0)
(42.709 7.11073e-08 0)
(42.709 7.11167e-08 0)
(42.7091 7.11161e-08 0)
(42.7091 7.1119e-08 0)
(42.7091 7.11213e-08 0)
(42.7091 7.11266e-08 0)
(42.7091 7.11325e-08 0)
(42.7091 7.1139e-08 0)
(42.7091 7.11424e-08 0)
(42.7091 7.1147e-08 0)
(42.7091 7.1156e-08 0)
(42.7091 7.11597e-08 0)
(42.7091 7.1167e-08 0)
(42.7091 7.1176e-08 0)
(42.7091 7.11787e-08 0)
(42.7092 7.11854e-08 0)
(42.7092 7.1194e-08 0)
(42.7092 7.12037e-08 0)
(42.7092 7.1207e-08 0)
(42.7092 7.1218e-08 0)
(42.7092 7.12279e-08 0)
(42.7092 7.12393e-08 0)
(42.7092 7.12482e-08 0)
(42.7093 7.12593e-08 0)
(42.7093 7.12756e-08 0)
(42.7093 7.12905e-08 0)
(42.7093 7.13072e-08 0)
(42.7093 7.1329e-08 0)
(42.7093 7.13464e-08 0)
(42.7094 7.13623e-08 0)
(42.7094 7.13756e-08 0)
(42.7094 7.13924e-08 0)
(42.7094 7.14001e-08 0)
(42.7094 7.14052e-08 0)
(42.7095 7.14074e-08 0)
(42.7095 7.14133e-08 0)
(42.7095 7.1418e-08 0)
(42.7095 7.14194e-08 0)
(42.7095 7.14259e-08 0)
(42.7096 7.14287e-08 0)
(42.7096 7.14387e-08 0)
(42.7096 7.14503e-08 0)
(42.7096 7.14628e-08 0)
(42.7097 7.14749e-08 0)
(42.7097 7.14875e-08 0)
(42.7097 7.15035e-08 0)
(42.7097 7.1518e-08 0)
(42.7098 7.15367e-08 0)
(42.7098 7.15567e-08 0)
(42.7098 7.15669e-08 0)
(42.7098 7.15846e-08 0)
(42.7099 7.16006e-08 0)
(42.7099 7.16138e-08 0)
(42.7099 7.16289e-08 0)
(42.71 7.16403e-08 0)
(42.71 7.1653e-08 0)
(42.71 7.16638e-08 0)
(42.7101 7.16757e-08 0)
(42.7101 7.16843e-08 0)
(42.7101 7.16945e-08 0)
(42.7102 7.17068e-08 0)
(42.7102 7.17145e-08 0)
(42.7102 7.17212e-08 0)
(42.7103 7.1732e-08 0)
(42.7103 7.17393e-08 0)
(42.7103 7.1751e-08 0)
(42.7104 7.1763e-08 0)
(42.7104 7.17739e-08 0)
(42.7105 7.17801e-08 0)
(42.7105 7.17893e-08 0)
(42.7106 7.18024e-08 0)
(42.7106 7.18133e-08 0)
(42.7106 7.18227e-08 0)
(42.7107 7.1833e-08 0)
(42.7107 7.18414e-08 0)
(42.7108 7.18559e-08 0)
(42.7108 7.18684e-08 0)
(42.7109 7.18861e-08 0)
(42.7109 7.18926e-08 0)
(42.711 7.19062e-08 0)
(42.711 7.19221e-08 0)
(42.7111 7.19356e-08 0)
(42.7111 7.1951e-08 0)
(42.7112 7.196e-08 0)
(42.7112 7.19788e-08 0)
(42.7113 7.19923e-08 0)
(42.7113 7.20029e-08 0)
(42.7114 7.20202e-08 0)
(42.7114 7.20351e-08 0)
(42.7115 7.20545e-08 0)
(42.7115 7.20697e-08 0)
(42.7116 7.20823e-08 0)
(42.7117 7.20962e-08 0)
(42.7117 7.21176e-08 0)
(42.7118 7.21317e-08 0)
(42.7118 7.21483e-08 0)
(42.7119 7.21646e-08 0)
(42.7119 7.21848e-08 0)
(42.712 7.22011e-08 0)
(42.7121 7.22204e-08 0)
(42.7121 7.2239e-08 0)
(42.7122 7.22545e-08 0)
(42.7123 7.2275e-08 0)
(42.7123 7.23028e-08 0)
(42.7124 7.23181e-08 0)
(42.7125 7.23408e-08 0)
(42.7125 7.23607e-08 0)
(42.7126 7.23829e-08 0)
(42.7127 7.24054e-08 0)
(42.7127 7.24282e-08 0)
(42.7128 7.24503e-08 0)
(42.7129 7.24655e-08 0)
(42.7129 7.249e-08 0)
(42.713 7.25113e-08 0)
(42.7131 7.2534e-08 0)
(42.7131 7.25553e-08 0)
(42.7132 7.2574e-08 0)
(42.7133 7.25899e-08 0)
(42.7134 7.26018e-08 0)
(42.7134 7.26231e-08 0)
(42.7135 7.26349e-08 0)
(42.7136 7.26558e-08 0)
(42.7137 7.26791e-08 0)
(42.7137 7.26989e-08 0)
(42.7138 7.27196e-08 0)
(42.7139 7.27413e-08 0)
(42.714 7.2768e-08 0)
(42.7141 7.27946e-08 0)
(42.7141 7.28183e-08 0)
(42.7142 7.28478e-08 0)
(42.7143 7.28773e-08 0)
(42.7144 7.2905e-08 0)
(42.7145 7.29332e-08 0)
(42.7146 7.29613e-08 0)
(42.7147 7.29865e-08 0)
(42.7147 7.30126e-08 0)
(42.7148 7.30396e-08 0)
(42.7149 7.30655e-08 0)
(42.715 7.30924e-08 0)
(42.7151 7.31155e-08 0)
(42.7152 7.31429e-08 0)
(42.7153 7.31695e-08 0)
(42.7154 7.31938e-08 0)
(42.7155 7.32251e-08 0)
(42.7156 7.32598e-08 0)
(42.7157 7.32937e-08 0)
(42.7158 7.33304e-08 0)
(42.7159 7.33679e-08 0)
(42.716 7.34072e-08 0)
(42.7161 7.3449e-08 0)
(42.7162 7.34938e-08 0)
(42.7164 7.35394e-08 0)
(42.7165 7.35821e-08 0)
(42.7166 7.36322e-08 0)
(42.7167 7.36893e-08 0)
(42.7168 7.37431e-08 0)
(42.717 7.38009e-08 0)
(42.7171 7.3863e-08 0)
(42.7172 7.39296e-08 0)
(42.7173 7.39969e-08 0)
(42.7175 7.40664e-08 0)
(42.7176 7.41412e-08 0)
(42.7178 7.42224e-08 0)
(42.7179 7.43038e-08 0)
(42.7181 7.43887e-08 0)
(42.7182 7.44774e-08 0)
(42.7184 7.4567e-08 0)
(42.7185 7.46733e-08 0)
(42.7187 7.47769e-08 0)
(42.7189 7.48828e-08 0)
(42.7191 7.50023e-08 0)
(42.7193 7.51129e-08 0)
(42.7194 7.52461e-08 0)
(42.7196 7.53757e-08 0)
(42.7198 7.55054e-08 0)
(42.72 7.56575e-08 0)
(42.7203 7.57996e-08 0)
(42.7205 7.59629e-08 0)
(42.7207 7.61263e-08 0)
(42.7209 7.63058e-08 0)
(42.7212 7.64834e-08 0)
(42.7214 7.66834e-08 0)
(42.7217 7.68774e-08 0)
(42.7219 7.70864e-08 0)
(42.7222 7.73196e-08 0)
(42.7225 7.75262e-08 0)
(42.7228 7.77818e-08 0)
(42.7231 7.80257e-08 0)
(42.7234 7.82674e-08 0)
(42.7237 7.85536e-08 0)
(42.724 7.88091e-08 0)
(42.7243 7.9097e-08 0)
(42.7247 7.94139e-08 0)
(42.725 7.97057e-08 0)
(42.7254 8.00128e-08 0)
(42.7258 8.03597e-08 0)
(42.7262 8.07078e-08 0)
(42.7266 8.10555e-08 0)
(42.727 8.14539e-08 0)
(42.7274 8.18889e-08 0)
(42.7278 8.24445e-08 0)
(42.7283 8.32723e-08 0)
(42.7288 8.46796e-08 0)
(42.7292 8.75244e-08 0)
(42.7297 9.38496e-08 0)
(42.7302 1.0846e-07 0)
(42.7307 1.42822e-07 0)
(42.7313 2.24372e-07 0)
(42.7318 4.19048e-07 0)
(42.7324 8.83798e-07 0)
(42.7329 1.99482e-06 0)
(42.7335 4.65117e-06 0)
(42.7341 1.10022e-05 0)
(42.7346 2.6188e-05 0)
(42.7351 6.24929e-05 0)
(42.7354 0.000149265 0)
(42.7351 0.00035663 0)
(42.7336 0.000851756 0)
(42.7291 0.00203262 0)
(42.7174 0.00484391 0)
(42.6886 0.0115195 0)
(42.6193 0.027326 0)
(42.4546 0.0646802 0)
(42.0651 0.153828 0)
(41.2002 0.381175 0)
(38.0318 0.963197 0)
(42.7 9.72851e-05 0)
(42.7002 9.88151e-05 0)
(42.7003 9.45378e-05 0)
(42.7003 9.88206e-05 0)
(42.7004 0.000102585 0)
(42.7005 0.000104512 0)
(42.7006 0.000105835 0)
(42.7007 0.000106988 0)
(42.7007 0.000107981 0)
(42.7008 0.000108818 0)
(42.7009 0.000109532 0)
(42.701 0.000110153 0)
(42.7011 0.000110688 0)
(42.7011 0.000111154 0)
(42.7012 0.000111562 0)
(42.7013 0.000111917 0)
(42.7014 0.00011224 0)
(42.7015 0.000112505 0)
(42.7015 0.000112753 0)
(42.7016 0.000112969 0)
(42.7017 0.00011316 0)
(42.7018 0.000113328 0)
(42.7019 0.000113477 0)
(42.702 0.000113609 0)
(42.702 0.000113728 0)
(42.7021 0.000113834 0)
(42.7022 0.000113927 0)
(42.7023 0.000114012 0)
(42.7024 0.000114089 0)