/*--------------------------------*- C++ -*----------------------------------*\
| =========                 |                                                 |
| \\      /  F ield         | OpenFOAM: The Open Source CFD Toolbox           |
|  \\    /   O peration     | Version:  3.0.x                                 |
|   \\  /    A nd           | Web:      www.OpenFOAM.org                      |
|    \\/     M anipulation  |                                                 |
\*---------------------------------------------------------------------------*/
FoamFile
{
    version     2.0;
    format      ascii;
    class       surfaceScalarField;
    location    "0.15";
    object      phi;
}
// * * * * * * * * * * * * * * * * * * * * * * * * * * * * * * * * * * * * * //

dimensions      [1 0 -1 0 0 0 0];

internalField   nonuniform List<scalar> 
12415
(
5.76504
0.000327859
5.76306
0.000234916
5.76108
0.000225565
5.75907
0.000227213
5.75702
0.000227695
5.75495
0.0002275
5.75283
0.000227487
5.75068
0.000227639
5.74848
0.000227509
5.74625
0.000227694
5.74397
0.0002276
5.74164
0.000227538
5.73926
0.000227218
5.73681
0.000226531
5.73431
0.00022526
5.73175
0.000223126
5.72915
0.000219801
5.72649
0.000214936
5.72381
0.000208212
5.7211
0.000199388
5.71836
0.000188359
5.71562
0.000175196
5.71287
0.000160158
5.71012
0.000143679
5.70739
0.00012633
5.70468
0.000108745
5.702
9.15939e-05
5.69934
7.54113e-05
5.69672
6.06506e-05
5.69415
4.76498e-05
5.69161
3.65463e-05
5.68913
2.73486e-05
5.68669
1.9953e-05
5.68431
1.41756e-05
5.68199
9.78652e-06
5.67972
6.54125e-06
5.6775
4.20408e-06
5.67535
2.5636e-06
5.67325
1.44031e-06
5.6712
6.8987e-07
5.66921
2.00876e-07
5.66727
-1.10702e-07
5.66538
-3.03729e-07
5.66354
-4.20199e-07
5.66174
-4.8835e-07
5.65997
-5.26605e-07
5.65824
-5.46763e-07
5.65653
-5.56171e-07
5.65485
-5.59308e-07
5.65319
-5.58828e-07
5.65155
-5.56302e-07
5.64991
-5.52649e-07
5.64829
-5.48427e-07
5.64667
-5.44014e-07
5.64505
-5.39627e-07
5.64343
-5.35458e-07
5.64181
-5.31661e-07
5.64018
-5.28384e-07
5.63856
-5.25759e-07
5.63694
-5.23927e-07
5.63532
-5.23134e-07
5.63371
-5.23367e-07
5.6321
-5.24489e-07
5.63051
-5.26175e-07
5.62894
-5.28606e-07
5.62739
-5.32447e-07
5.62586
-5.37993e-07
5.62437
-5.44735e-07
5.62291
-5.53235e-07
5.62149
-5.63145e-07
5.62012
-5.74611e-07
5.61879
-5.86391e-07
5.61752
-5.97764e-07
5.6163
-6.091e-07
5.61513
-6.20854e-07
5.61402
-6.33063e-07
5.61296
-6.45516e-07
5.61195
-6.57927e-07
5.61099
-6.70023e-07
5.61007
-6.81568e-07
5.60919
-6.92376e-07
5.60835
-7.02323e-07
5.60754
-7.11292e-07
5.60675
-7.19217e-07
5.60597
-7.26119e-07
5.60521
-7.32172e-07
5.60445
-7.37627e-07
5.60369
-7.40833e-07
5.60291
-7.414e-07
5.60212
-7.39412e-07
5.60131
-7.37959e-07
5.60048
-7.38341e-07
5.59961
-7.38833e-07
5.59871
-7.37809e-07
5.59778
-7.35166e-07
5.59681
-7.3155e-07
5.59581
-7.27534e-07
5.59477
-7.23534e-07
5.59369
-7.19834e-07
5.59259
-7.16593e-07
5.59145
-7.1393e-07
5.5903
-7.11954e-07
5.58912
-7.10819e-07
5.58794
-7.1063e-07
5.58675
-7.11518e-07
5.58557
-7.13546e-07
5.5844
-7.16811e-07
5.58325
-7.21333e-07
5.58212
-7.27086e-07
5.58103
-7.33378e-07
5.57998
-7.39179e-07
5.57897
-7.5493e-07
5.57802
-7.65858e-07
5.57712
-7.76165e-07
5.57628
-7.86104e-07
5.5755
-7.97172e-07
5.57478
-8.09199e-07
5.57412
-8.22105e-07
5.57352
-8.3574e-07
5.57298
-8.49754e-07
5.57249
-8.63452e-07
5.57205
-8.7731e-07
5.57165
-8.89775e-07
5.5713
-9.01942e-07
5.57097
-9.06748e-07
5.57067
-9.16356e-07
5.57039
-9.35113e-07
5.57011
-9.46942e-07
5.56984
-9.56416e-07
5.56956
-9.61947e-07
5.56925
-9.63675e-07
5.56892
-9.65791e-07
5.56856
-9.70007e-07
5.56815
-9.75537e-07
5.56769
-9.79322e-07
5.56717
-9.80062e-07
5.56659
-9.79409e-07
5.56595
-9.78418e-07
5.56523
-9.77469e-07
5.56445
-9.76799e-07
5.56359
-9.76124e-07
5.56267
-9.75506e-07
5.56169
-9.75184e-07
5.56066
-9.75317e-07
5.55957
-9.75977e-07
5.55845
-9.77176e-07
5.55729
-9.78775e-07
5.55611
-9.80936e-07
5.55491
-9.83218e-07
5.5537
-9.85581e-07
5.55249
-9.94658e-07
5.55129
-9.97994e-07
5.55009
-9.99455e-07
5.54892
-1.00019e-06
5.54776
-1.00438e-06
5.54663
-1.00568e-06
5.54553
-1.00609e-06
5.54445
-1.00475e-06
5.54341
-1.00572e-06
5.5424
-1.00878e-06
5.54143
-1.01068e-06
5.5405
-1.01035e-06
5.53961
-1.00863e-06
5.53876
-1.00613e-06
5.53795
-1.00298e-06
5.53718
-9.99291e-07
5.53643
-9.94878e-07
5.53572
-9.8973e-07
5.53502
-9.83518e-07
5.53433
-9.76648e-07
5.53364
-9.68241e-07
5.53295
-9.59904e-07
5.53223
-9.49462e-07
5.53148
-9.40241e-07
5.5307
-9.28669e-07
5.52987
-9.19326e-07
5.52899
-9.08254e-07
5.52806
-8.99256e-07
5.52708
-8.91005e-07
5.52604
-8.83138e-07
5.52495
-8.78004e-07
5.52381
-8.74583e-07
5.52263
-8.71791e-07
5.52142
-8.73162e-07
5.52018
-8.7574e-07
5.51892
-8.79345e-07
5.51765
-8.87436e-07
5.51637
-8.92096e-07
5.51507
-9.00416e-07
5.51376
-9.05758e-07
5.51243
-9.00589e-07
5.51105
-8.25037e-07
5.50963
-2.85698e-07
5.50815
3.5633e-06
5.50656
3.04666e-05
5.50472
0.000218198
5.50148
0.00153837
5.48896
0.0107464
5.40152
0.085596
0.419988
4.97966
11.5308
0.000260478
11.5274
0.000214828
11.5239
0.000190876
11.5203
0.000194574
11.5167
0.000195888
11.5131
0.000195238
11.5093
0.000195105
11.5055
0.000195212
11.5016
0.000195176
11.4976
0.000195286
11.4935
0.000195247
11.4894
0.000195189
11.4851
0.000194937
11.4807
0.000194371
11.4762
0.000193312
11.4715
0.000191522
11.4668
0.000188717
11.4619
0.000184599
11.457
0.000178891
11.452
0.000171383
11.447
0.000161981
11.4418
0.00015074
11.4367
0.000137877
11.4315
0.000123764
11.4263
0.000108885
11.4211
9.37883e-05
11.4159
7.90451e-05
11.4108
6.51186e-05
11.4057
5.2412e-05
11.4006
4.1203e-05
11.3956
3.16233e-05
11.3907
2.36812e-05
11.3859
1.72901e-05
11.3812
1.22934e-05
11.3765
8.49447e-06
11.372
5.68349e-06
11.3676
3.65771e-06
11.3633
2.23513e-06
11.3591
1.25989e-06
11.355
6.08034e-07
11.351
1.83448e-07
11.3471
-8.79691e-08
11.3434
-2.55727e-07
11.3397
-3.57244e-07
11.3361
-4.16817e-07
11.3325
-4.50332e-07
11.3291
-4.68051e-07
11.3257
-4.76373e-07
11.3223
-4.79208e-07
11.319
-4.78882e-07
11.3157
-4.76761e-07
11.3124
-4.73657e-07
11.3092
-4.70053e-07
11.3059
-4.66274e-07
11.3027
-4.62517e-07
11.2994
-4.58944e-07
11.2962
-4.55691e-07
11.2929
-4.52887e-07
11.2897
-4.50644e-07
11.2865
-4.49083e-07
11.2832
-4.48397e-07
11.28
-4.4861e-07
11.2768
-4.49558e-07
11.2736
-4.51016e-07
11.2704
-4.53112e-07
11.2673
-4.56385e-07
11.2643
-4.61121e-07
11.2613
-4.66942e-07
11.2584
-4.74132e-07
11.2555
-4.82743e-07
11.2528
-4.92513e-07
11.2501
-5.02597e-07
11.2476
-5.12375e-07
11.2451
-5.22094e-07
11.2428
-5.32166e-07
11.2406
-5.4263e-07
11.2385
-5.53303e-07
11.2364
-5.63944e-07
11.2345
-5.74315e-07
11.2327
-5.8421e-07
11.2309
-5.93479e-07
11.2292
-6.02003e-07
11.2276
-6.09692e-07
11.226
-6.16489e-07
11.2245
-6.22405e-07
11.2229
-6.27585e-07
11.2214
-6.322e-07
11.2199
-6.35068e-07
11.2183
-6.35407e-07
11.2168
-6.33856e-07
11.2151
-6.3258e-07
11.2135
-6.32801e-07
11.2117
-6.33238e-07
11.2099
-6.324e-07
11.2081
-6.30158e-07
11.2061
-6.27065e-07
11.2041
-6.23624e-07
11.202
-6.20196e-07
11.1999
-6.17027e-07
11.1977
-6.1425e-07
11.1954
-6.11968e-07
11.1931
-6.10277e-07
11.1907
-6.09302e-07
11.1884
-6.09137e-07
11.186
-6.09894e-07
11.1836
-6.11642e-07
11.1813
-6.14434e-07
11.179
-6.18304e-07
11.1767
-6.23189e-07
11.1745
-6.28587e-07
11.1724
-6.34162e-07
11.1704
-6.46231e-07
11.1685
-6.56795e-07
11.1667
-6.65312e-07
11.165
-6.73886e-07
11.1635
-6.83349e-07
11.162
-6.93667e-07
11.1607
-7.04701e-07
11.1595
-7.16383e-07
11.1584
-7.28398e-07
11.1574
-7.40187e-07
11.1566
-7.51972e-07
11.1558
-7.62773e-07
11.155
-7.72807e-07
11.1544
-7.77617e-07
11.1538
-7.85917e-07
11.1532
-8.01288e-07
11.1527
-8.11548e-07
11.1521
-8.19584e-07
11.1515
-8.24578e-07
11.1509
-8.2614e-07
11.1503
-8.27795e-07
11.1495
-8.31546e-07
11.1487
-8.36206e-07
11.1478
-8.39396e-07
11.1468
-8.40118e-07
11.1456
-8.3956e-07
11.1443
-8.38726e-07
11.1429
-8.37911e-07
11.1413
-8.37321e-07
11.1396
-8.3677e-07
11.1378
-8.36241e-07
11.1358
-8.35971e-07
11.1337
-8.36089e-07
11.1315
-8.36651e-07
11.1293
-8.37684e-07
11.127
-8.39062e-07
11.1246
-8.40876e-07
11.1222
-8.42876e-07
11.1198
-8.45068e-07
11.1174
-8.51957e-07
11.115
-8.56025e-07
11.1126
-8.56786e-07
11.1102
-8.57397e-07
11.1079
-8.60764e-07
11.1056
-8.62513e-07
11.1034
-8.62124e-07
11.1013
-8.61326e-07
11.0992
-8.62201e-07
11.0972
-8.64701e-07
11.0952
-8.66351e-07
11.0934
-8.66113e-07
11.0916
-8.64647e-07
11.0899
-8.62519e-07
11.0882
-8.59814e-07
11.0867
-8.56641e-07
11.0852
-8.52866e-07
11.0838
-8.48445e-07
11.0824
-8.43114e-07
11.081
-8.37197e-07
11.0796
-8.30053e-07
11.0782
-8.22786e-07
11.0768
-8.14108e-07
11.0753
-8.05779e-07
11.0737
-7.96286e-07
11.0721
-7.87885e-07
11.0703
-7.7865e-07
11.0684
-7.71009e-07
11.0665
-7.63278e-07
11.0644
-7.5787e-07
11.0622
-7.51638e-07
11.0599
-7.50554e-07
11.0576
-7.46716e-07
11.0551
-7.48382e-07
11.0527
-7.51408e-07
11.0501
-7.52214e-07
11.0476
-7.62795e-07
11.045
-7.63039e-07
11.0424
-7.72566e-07
11.0398
-7.73036e-07
11.0371
-7.42441e-07
11.0344
-5.0591e-07
11.0315
1.0941e-06
11.0286
1.24912e-05
11.0254
9.21163e-05
11.0217
0.000647974
11.0153
0.0045538
10.9909
0.0316417
10.847
0.22573
1.05518
10.2081
138.37
-0.000260478
138.328
-0.000214828
138.286
-0.000190876
138.244
-0.000194574
138.201
-0.000195888
138.157
-0.000195238
138.112
-0.000195105
138.066
-0.000195212
138.019
-0.000195176
137.971
-0.000195286
137.922
-0.000195247
137.872
-0.000195189
137.821
-0.000194937
137.768
-0.000194371
137.714
-0.000193312
137.658
-0.000191522
137.601
-0.000188717
137.543
-0.000184599
137.484
-0.000178891
137.424
-0.000171383
137.363
-0.000161981
137.302
-0.00015074
137.24
-0.000137877
137.178
-0.000123764
137.116
-0.000108885
137.053
-9.37883e-05
136.991
-7.90451e-05
136.929
-6.51186e-05
136.868
-5.2412e-05
136.808
-4.1203e-05
136.748
-3.16233e-05
136.689
-2.36812e-05
136.631
-1.72901e-05
136.574
-1.22934e-05
136.518
-8.49446e-06
136.464
-5.68349e-06
136.411
-3.65771e-06
136.359
-2.23513e-06
136.309
-1.25989e-06
136.26
-6.0803e-07
136.212
-1.83445e-07
136.166
8.79711e-08
136.12
2.55729e-07
136.076
3.57245e-07
136.033
4.1682e-07
135.99
4.50335e-07
135.949
4.68052e-07
135.908
4.76376e-07
135.868
4.7921e-07
135.828
4.78881e-07
135.788
4.76759e-07
135.749
4.73653e-07
135.71
4.7005e-07
135.671
4.66271e-07
135.632
4.62515e-07
135.593
4.58945e-07
135.554
4.55694e-07
135.515
4.52889e-07
135.476
4.50644e-07
135.437
4.49084e-07
135.399
4.48396e-07
135.36
4.48611e-07
135.321
4.4956e-07
135.283
4.51017e-07
135.245
4.53113e-07
135.208
4.56383e-07
135.171
4.61121e-07
135.135
4.66942e-07
135.1
4.74129e-07
135.066
4.82741e-07
135.033
4.92512e-07
135.002
5.02595e-07
134.971
5.12374e-07
134.942
5.22095e-07
134.914
5.32167e-07
134.887
5.42628e-07
134.861
5.533e-07
134.837
5.63947e-07
134.814
5.74315e-07
134.792
5.84212e-07
134.771
5.9348e-07
134.751
6.02005e-07
134.731
6.09696e-07
134.712
6.1649e-07
134.694
6.22406e-07
134.675
6.27585e-07
134.657
6.322e-07
134.639
6.3507e-07
134.62
6.35406e-07
134.601
6.33857e-07
134.582
6.32582e-07
134.562
6.32801e-07
134.541
6.33238e-07
134.519
6.32404e-07
134.497
6.30161e-07
134.474
6.27068e-07
134.449
6.23627e-07
134.424
6.20199e-07
134.399
6.17028e-07
134.372
6.14251e-07
134.345
6.11969e-07
134.317
6.10274e-07
134.289
6.09298e-07
134.26
6.09139e-07
134.232
6.09895e-07
134.204
6.11641e-07
134.175
6.14432e-07
134.148
6.18305e-07
134.121
6.23193e-07
134.094
6.28593e-07
134.069
6.34163e-07
134.045
6.46229e-07
134.022
6.56793e-07
134
6.65308e-07
133.98
6.73885e-07
133.961
6.8335e-07
133.944
6.93667e-07
133.928
7.04701e-07
133.914
7.16385e-07
133.901
7.28397e-07
133.889
7.40187e-07
133.879
7.51969e-07
133.869
7.62775e-07
133.861
7.72804e-07
133.853
7.7762e-07
133.845
7.85918e-07
133.839
8.01286e-07
133.832
8.11548e-07
133.825
8.19584e-07
133.819
8.24576e-07
133.811
8.26138e-07
133.803
8.27797e-07
133.795
8.31548e-07
133.785
8.36204e-07
133.774
8.39396e-07
133.761
8.40117e-07
133.747
8.39561e-07
133.732
8.38724e-07
133.715
8.37913e-07
133.696
8.37318e-07
133.675
8.36769e-07
133.653
8.36238e-07
133.63
8.35971e-07
133.605
8.36089e-07
133.579
8.36649e-07
133.552
8.37683e-07
133.524
8.39058e-07
133.495
8.40873e-07
133.466
8.42873e-07
133.437
8.45067e-07
133.408
8.51958e-07
133.379
8.56026e-07
133.351
8.56787e-07
133.323
8.57398e-07
133.295
8.60765e-07
133.268
8.62513e-07
133.241
8.62124e-07
133.215
8.61329e-07
133.19
8.62203e-07
133.166
8.64702e-07
133.143
8.66357e-07
133.12
8.66116e-07
133.099
8.6465e-07
133.078
8.62513e-07
133.059
8.59821e-07
133.04
8.5663e-07
133.023
8.52885e-07
133.005
8.48411e-07
132.988
8.43179e-07
132.972
8.37105e-07
132.955
8.30204e-07
132.939
8.22535e-07
132.921
8.143e-07
132.903
8.05439e-07
132.885
7.96748e-07
132.865
7.87304e-07
132.844
7.79476e-07
132.821
7.69902e-07
132.798
7.64861e-07
132.773
7.55242e-07
132.746
7.55075e-07
132.719
7.46281e-07
132.691
7.51511e-07
132.662
7.44536e-07
132.632
7.51654e-07
132.602
7.57639e-07
132.571
7.49258e-07
132.54
7.7992e-07
132.509
7.61498e-07
132.478
7.92734e-07
132.446
8.23992e-07
132.413
1.13567e-06
132.379
3.23721e-06
132.343
1.82316e-05
132.306
0.000125037
132.266
0.00088699
132.224
0.00633849
132.167
0.0454768
131.985
0.363589
1.5566
131.439
11.5308
-0.000327859
11.5274
-0.000234916
11.5239
-0.000225565
11.5203
-0.000227213
11.5167
-0.000227695
11.5131
-0.0002275
11.5093
-0.000227487
11.5055
-0.000227639
11.5016
-0.000227509
11.4976
-0.000227694
11.4935
-0.0002276
11.4894
-0.000227538
11.4851
-0.000227218
11.4807
-0.000226531
11.4762
-0.00022526
11.4715
-0.000223126
11.4668
-0.000219801
11.4619
-0.000214936
11.457
-0.000208212
11.452
-0.000199388
11.447
-0.000188359
11.4418
-0.000175196
11.4367
-0.000160158
11.4315
-0.000143679
11.4263
-0.00012633
11.4211
-0.000108745
11.4159
-9.15939e-05
11.4108
-7.54113e-05
11.4057
-6.06506e-05
11.4006
-4.76498e-05
11.3956
-3.65463e-05
11.3907
-2.73486e-05
11.3859
-1.9953e-05
11.3812
-1.41756e-05
11.3765
-9.78651e-06
11.372
-6.54125e-06
11.3676
-4.20408e-06
11.3633
-2.5636e-06
11.3591
-1.44031e-06
11.355
-6.89868e-07
11.351
-2.00875e-07
11.3471
1.10706e-07
11.3434
3.03731e-07
11.3397
4.20199e-07
11.3361
4.88353e-07
11.3325
5.26608e-07
11.3291
5.46765e-07
11.3257
5.56174e-07
11.3223
5.59308e-07
11.319
5.58824e-07
11.3157
5.56302e-07
11.3124
5.52647e-07
11.3092
5.48425e-07
11.3059
5.44012e-07
11.3027
5.39627e-07
11.2994
5.35458e-07
11.2962
5.31663e-07
11.2929
5.28385e-07
11.2897
5.25761e-07
11.2865
5.23929e-07
11.2832
5.23132e-07
11.28
5.23365e-07
11.2768
5.24491e-07
11.2736
5.26174e-07
11.2704
5.28606e-07
11.2673
5.32445e-07
11.2643
5.37993e-07
11.2613
5.44736e-07
11.2584
5.53233e-07
11.2555
5.63145e-07
11.2528
5.74611e-07
11.2501
5.86391e-07
11.2476
5.97765e-07
11.2451
6.09101e-07
11.2428
6.20856e-07
11.2406
6.33061e-07
11.2385
6.45514e-07
11.2364
6.5793e-07
11.2345
6.70021e-07
11.2327
6.81572e-07
11.2309
6.9238e-07
11.2292
7.02325e-07
11.2276
7.11292e-07
11.226
7.19219e-07
11.2245
7.26119e-07
11.2229
7.32172e-07
11.2214
7.37627e-07
11.2199
7.40834e-07
11.2183
7.414e-07
11.2168
7.39412e-07
11.2151
7.37959e-07
11.2135
7.38339e-07
11.2117
7.38835e-07
11.2099
7.37809e-07
11.2081
7.35166e-07
11.2061
7.31552e-07
11.2041
7.27534e-07
11.202
7.23538e-07
11.1999
7.19836e-07
11.1977
7.16593e-07
11.1954
7.13932e-07
11.1931
7.11952e-07
11.1907
7.10817e-07
11.1884
7.1063e-07
11.186
7.11518e-07
11.1836
7.13546e-07
11.1813
7.16809e-07
11.179
7.21331e-07
11.1767
7.27088e-07
11.1745
7.3338e-07
11.1724
7.39179e-07
11.1704
7.54928e-07
11.1685
7.65856e-07
11.1667
7.76163e-07
11.165
7.86102e-07
11.1635
7.97172e-07
11.162
8.09203e-07
11.1607
8.22107e-07
11.1595
8.35742e-07
11.1584
8.49754e-07
11.1574
8.63452e-07
11.1566
8.77308e-07
11.1558
8.89779e-07
11.155
9.01942e-07
11.1544
9.0675e-07
11.1538
9.16356e-07
11.1532
9.35113e-07
11.1527
9.46942e-07
11.1521
9.56416e-07
11.1515
9.61945e-07
11.1509
9.63675e-07
11.1503
9.65792e-07
11.1495
9.70009e-07
11.1487
9.75537e-07
11.1478
9.79324e-07
11.1468
9.80064e-07
11.1456
9.79411e-07
11.1443
9.78418e-07
11.1429
9.77469e-07
11.1413
9.76797e-07
11.1396
9.76122e-07
11.1378
9.75504e-07
11.1358
9.75182e-07
11.1337
9.75317e-07
11.1315
9.75977e-07
11.1293
9.77177e-07
11.127
9.78773e-07
11.1246
9.80934e-07
11.1222
9.83217e-07
11.1198
9.85581e-07
11.1174
9.94662e-07
11.115
9.97998e-07
11.1126
9.99455e-07
11.1102
1.00019e-06
11.1079
1.00438e-06
11.1056
1.00568e-06
11.1034
1.00609e-06
11.1013
1.00475e-06
11.0992
1.00572e-06
11.0972
1.00878e-06
11.0952
1.01068e-06
11.0934
1.01035e-06
11.0916
1.00864e-06
11.0899
1.00613e-06
11.0882
1.00299e-06
11.0867
9.99275e-07
11.0852
9.94905e-07
11.0838
9.89678e-07
11.0824
9.83609e-07
11.081
9.76506e-07
11.0796
9.6847e-07
11.0782
9.59551e-07
11.0768
9.49894e-07
11.0753
9.39668e-07
11.0737
9.29316e-07
11.0721
9.18686e-07
11.0703
9.08862e-07
11.0684
8.98852e-07
11.0665
8.9117e-07
11.0644
8.82781e-07
11.0622
8.7877e-07
11.0599
8.73157e-07
11.0576
8.73679e-07
11.0551
8.71634e-07
11.0527
8.75782e-07
11.0501
8.81353e-07
11.0476
8.82999e-07
11.045
8.97604e-07
11.0424
8.96785e-07
11.0398
9.12434e-07
11.0371
9.28274e-07
11.0344
1.03818e-06
11.0315
1.7539e-06
11.0286
6.84206e-06
11.0256
4.30834e-05
11.0229
0.000301944
11.0237
0.00217039
11.0495
0.0161408
11.2317
0.177655
0.674274
12.1103
5.76504
5.76306
5.76108
5.75907
5.75702
5.75495
5.75283
5.75068
5.74848
5.74625
5.74397
5.74164
5.73926
5.73681
5.73431
5.73175
5.72915
5.72649
5.72381
5.7211
5.71836
5.71562
5.71287
5.71012
5.70739
5.70468
5.702
5.69934
5.69672
5.69415
5.69161
5.68913
5.68669
5.68431
5.68199
5.67972
5.6775
5.67535
5.67325
5.6712
5.66921
5.66727
5.66538
5.66354
5.66174
5.65997
5.65824
5.65653
5.65485
5.65319
5.65155
5.64991
5.64829
5.64667
5.64505
5.64343
5.64181
5.64018
5.63856
5.63694
5.63532
5.63371
5.6321
5.63051
5.62894
5.62739
5.62586
5.62437
5.62291
5.62149
5.62012
5.61879
5.61752
5.6163
5.61513
5.61402
5.61296
5.61195
5.61099
5.61007
5.60919
5.60835
5.60754
5.60675
5.60597
5.60521
5.60445
5.60369
5.60291
5.60212
5.60131
5.60048
5.59961
5.59871
5.59778
5.59681
5.59581
5.59477
5.59369
5.59259
5.59145
5.5903
5.58912
5.58794
5.58675
5.58557
5.5844
5.58325
5.58212
5.58103
5.57998
5.57897
5.57802
5.57712
5.57628
5.5755
5.57478
5.57412
5.57352
5.57298
5.57249
5.57205
5.57165
5.5713
5.57097
5.57067
5.57039
5.57011
5.56984
5.56956
5.56925
5.56892
5.56856
5.56815
5.56769
5.56717
5.56659
5.56595
5.56523
5.56445
5.56359
5.56267
5.56169
5.56066
5.55957
5.55845
5.55729
5.55611
5.55491
5.5537
5.55249
5.55129
5.55009
5.54892
5.54776
5.54663
5.54553
5.54445
5.54341
5.5424
5.54143
5.5405
5.53961
5.53876
5.53795
5.53718
5.53643
5.53572
5.53502
5.53433
5.53364
5.53295
5.53223
5.53148
5.5307
5.52987
5.52899
5.52806
5.52708
5.52604
5.52495
5.52381
5.52263
5.52142
5.52018
5.51892
5.51765
5.51637
5.51507
5.51376
5.51243
5.51105
5.50963
5.50816
5.50665
5.50533
5.5058
5.52016
5.69598
6.36837
4.85833
0.120848
4.86455
-0.00670174
4.8599
0.00416384
4.86332
-0.00391295
4.8771
-0.0142932
4.90431
-0.0277634
4.98195
-0.0781868
5.09429
-0.113044
5.1592
-0.0657325
5.13822
0.0202591
5.05934
0.0783454
4.943
0.116
4.85191
0.0912449
4.98834
-0.13526
5.40518
-0.415755
5.99471
-0.589669
6.52276
-0.529783
6.78457
-0.264576
6.77057
0.0109704
-0.148917
6.91691
10.1574
0.170611
10.1732
-0.0234504
10.2165
-0.0401043
10.2677
-0.0559944
10.3329
-0.080483
10.4217
-0.117687
10.619
-0.27652
10.8923
-0.387835
11.0776
-0.252653
11.099
-0.0024393
10.9976
0.178754
10.7929
0.320111
10.557
0.3274
10.6734
-0.248969
11.2893
-1.02971
12.3111
-1.6123
13.4322
-1.65492
14.2248
-1.06303
14.4609
-0.230262
-0.245375
14.553
131.482
0.118943
131.544
-0.0946179
131.537
-0.0416289
131.372
0.101052
131.054
0.22868
130.621
0.30613
129.975
0.362363
129.229
0.348512
128.589
0.38048
128.231
0.34527
128.057
0.343854
128.048
0.318213
128.071
0.293258
127.538
0.270971
126.248
0.249269
124.407
0.220415
122.573
0.176246
121.395
0.113392
121.132
0.0291363
-0.17837
121.06
12.0553
0.173417
11.965
-0.0048791
11.9274
-0.00450418
12.0019
0.0260398
12.1732
0.056824
12.3989
0.0799132
12.6619
0.0981106
12.9119
0.0984732
13.1843
0.106961
13.4305
0.0989603
13.6773
0.0964223
13.907
0.0880182
14.1206
0.079084
14.3205
0.0705247
14.5081
0.0610718
14.6809
0.0469699
14.833
0.0235591
14.9594
-0.0136108
15.0627
-0.0747934
-0.249812
15.1337
6.54154
6.53642
6.53167
6.55746
6.61403
6.69365
6.7913
6.88963
6.99619
7.09501
7.19118
7.27892
7.35774
7.428
7.48879
7.53548
7.55874
7.54485
7.46979
7.21972
6.91429
-5.75501e-05
7.29513
-0.380686
7.61118
-0.318874
7.65112
-0.0428612
7.59935
0.0497984
7.57719
0.0201368
7.60446
-0.0293197
7.62841
-0.0261446
7.63323
-0.00697205
7.63013
0.00102639
7.62638
0.00164984
7.62307
0.00117659
7.62005
0.000932808
7.62208
-0.00403429
7.63352
-0.013464
7.64809
-0.016635
7.65775
-0.0117553
7.65995
-0.0042638
7.65715
0.000799085
7.65296
0.00227227
7.64728
0.00380837
7.63878
0.00666639
7.6254
0.0115847
7.60493
0.0187458
7.5752
0.0280953
7.53405
0.0395894
7.47926
0.0532769
7.40834
0.0693485
7.31799
0.0879986
7.20412
0.108089
7.06831
0.12959
6.91398
0.151265
6.74383
0.168902
6.56473
0.180921
6.38401
0.186015
6.20729
0.179046
6.04318
0.164239
5.89894
0.143396
5.77815
0.119375
5.68122
0.095148
5.60645
0.0733781
5.55049
0.0548023
5.50958
0.0398828
5.48024
0.0284001
5.45949
0.0198504
5.44499
0.0136494
5.43491
0.00924726
5.42793
0.00617828
5.42307
0.00407271
5.41966
0.00264937
5.41722
0.00170079
5.41541
0.0010773
5.41403
0.000673167
5.41292
0.000414874
5.41199
0.000252124
5.41118
0.000151043
5.41044
8.91729e-05
5.40974
5.18564e-05
5.40907
2.96797e-05
5.40842
1.66946e-05
5.40778
9.2036e-06
5.40714
4.94601e-06
5.4065
2.56214e-06
5.40585
1.24755e-06
5.4052
5.34021e-07
5.40453
1.52902e-07
5.40386
-4.69117e-08
5.40317
-1.49303e-07
5.40247
-1.98368e-07
5.40175
-2.21478e-07
5.40102
-2.30424e-07
5.40028
-2.32252e-07
5.39953
-2.30544e-07
5.39877
-2.27192e-07
5.398
-2.2325e-07
5.39722
-2.19303e-07
5.39644
-2.15603e-07
5.39565
-2.12214e-07
5.39486
-2.09213e-07
5.39407
-2.06755e-07
5.39328
-2.05022e-07
5.3925
-2.04162e-07
5.39173
-2.04236e-07
5.39097
-2.05291e-07
5.39022
-2.07354e-07
5.38948
-2.10404e-07
5.38876
-2.14433e-07
5.38806
-2.19439e-07
5.38738
-2.25393e-07
5.38672
-2.32243e-07
5.38608
-2.39945e-07
5.38548
-2.48418e-07
5.3849
-2.57567e-07
5.38435
-2.67297e-07
5.38383
-2.775e-07
5.38334
-2.88062e-07
5.38288
-2.9886e-07
5.38246
-3.09758e-07
5.38207
-3.20651e-07
5.38172
-3.31425e-07
5.38139
-3.41995e-07
5.38111
-3.52245e-07
5.38085
-3.62083e-07
5.38063
-3.71396e-07
5.38044
-3.79894e-07
5.38028
-3.84824e-07
5.38015
-3.95119e-07
5.38005
-4.02728e-07
5.37997
-4.0844e-07
5.37991
-4.12587e-07
5.37988
-4.16361e-07
5.37986
-4.19099e-07
5.37986
-4.21591e-07
5.37987
-4.22222e-07
5.37988
-4.22597e-07
5.37991
-4.22127e-07
5.37993
-4.21149e-07
5.37995
-4.18508e-07
5.37997
-4.15666e-07
5.37997
-4.12707e-07
5.37997
-4.0659e-07
5.37994
-4.03139e-07
5.37991
-3.97142e-07
5.37985
-3.91039e-07
5.37977
-3.84891e-07
5.37968
-3.79718e-07
5.37956
-3.76929e-07
5.37942
-3.63538e-07
5.37926
-3.58235e-07
5.37909
-3.53008e-07
5.3789
-3.48473e-07
5.37869
-3.43614e-07
5.37848
-3.3944e-07
5.37826
-3.36127e-07
5.37804
-3.33444e-07
5.37782
-3.32093e-07
5.37761
-3.31484e-07
5.3774
-3.31671e-07
5.37721
-3.33437e-07
5.37703
-3.35249e-07
5.37687
-3.38472e-07
5.37674
-3.42487e-07
5.37663
-3.46614e-07
5.37654
-3.5188e-07
5.37647
-3.57428e-07
5.37644
-3.63161e-07
5.37643
-3.69137e-07
5.37644
-3.75163e-07
5.37648
-3.81662e-07
5.37653
-3.87081e-07
5.37661
-3.88487e-07
5.37671
-4.00107e-07
5.37683
-4.06608e-07
5.37697
-4.11936e-07
5.37712
-4.16465e-07
5.37729
-4.21076e-07
5.37746
-4.25225e-07
5.37765
-4.29156e-07
5.37785
-4.32421e-07
5.37806
-4.35055e-07
5.37827
-4.37012e-07
5.37848
-4.38558e-07
5.37868
-4.39088e-07
5.37888
-4.38704e-07
5.37907
-4.37627e-07
5.37925
-4.35708e-07
5.3794
-4.32494e-07
5.37953
-4.28667e-07
5.37963
-4.23759e-07
5.37969
-4.18517e-07
5.37972
-4.10992e-07
5.3797
-4.06855e-07
5.37964
-3.94579e-07
5.37954
-3.95297e-07
5.37939
-3.98781e-07
5.3792
-2.68958e-07
5.37897
-4.86159e-07
5.37869
-3.31525e-07
5.37838
-3.33903e-07
5.37804
-3.62235e-07
5.37767
-3.11662e-07
5.37728
-3.56742e-07
5.37688
-3.02764e-07
5.37648
-3.54001e-07
5.37608
-3.01707e-07
5.3757
-3.45181e-07
5.37535
-3.13943e-07
5.37503
-3.46568e-07
5.37476
-3.28238e-07
5.37453
-4.00127e-07
5.37436
-5.50679e-07
5.37425
-1.48552e-06
5.37419
-6.11192e-06
5.37421
-3.01027e-05
5.3744
-0.000154092
5.37528
-0.000794993
5.37953
-0.0041428
5.40192
-0.0222386
5.56399
-0.161893
-0.628383
6.19258
13.7597
0.788515
14.0488
-0.669462
14.591
-0.866844
14.7184
-0.176045
14.6128
0.151384
14.5331
0.0958334
14.5592
-0.0595053
14.6045
-0.0758072
14.6196
-0.026395
14.6137
0.00271571
14.6019
0.00927813
14.588
0.0108468
14.5707
0.0140073
14.5596
0.00298649
14.5691
-0.026973
14.5942
-0.0458792
14.6186
-0.0403321
14.6312
-0.0209416
14.631
-0.00301074
14.6237
0.00572722
14.6105
0.013247
14.5899
0.0235548
14.5586
0.0393254
14.5128
0.0611904
14.4487
0.0889581
14.363
0.122206
14.2526
0.160651
14.1146
0.204311
13.9455
0.253139
13.7417
0.304809
13.5061
0.359311
13.243
0.410848
12.958
0.451705
12.6624
0.476874
12.3687
0.482348
12.0868
0.461406
11.829
0.421015
11.6042
0.366518
11.4164
0.305136
11.2656
0.243898
11.1485
0.18842
11.0601
0.141188
10.9951
0.103074
10.9481
0.0735887
10.9147
0.0515257
10.8912
0.0354569
10.8748
0.0240153
10.8633
0.0160253
10.8553
0.0105416
10.8496
0.00683818
10.8454
0.00437501
10.8423
0.00276072
10.8398
0.00171815
10.8378
0.00105455
10.836
0.000638264
10.8345
0.00038091
10.833
0.000224122
10.8317
0.000129993
10.8303
7.43058e-05
10.8291
4.18397e-05
10.8278
2.31866e-05
10.8265
1.26246e-05
10.8252
6.7304e-06
10.8239
3.4888e-06
10.8226
1.73227e-06
10.8213
7.93231e-07
10.8199
2.99512e-07
10.8185
4.27433e-08
10.8171
-8.32473e-08
10.8157
-1.47141e-07
10.8143
-1.76674e-07
10.8128
-1.89026e-07
10.8113
-1.9281e-07
10.8097
-1.92456e-07
10.8082
-1.90274e-07
10.8066
-1.87454e-07
10.8051
-1.8455e-07
10.8035
-1.81775e-07
10.8019
-1.79265e-07
10.8003
-1.77184e-07
10.7988
-1.75711e-07
10.7972
-1.74976e-07
10.7957
-1.7504e-07
10.7941
-1.75947e-07
10.7926
-1.77716e-07
10.7912
-1.80329e-07
10.7897
-1.83788e-07
10.7883
-1.88083e-07
10.7869
-1.93189e-07
10.7856
-1.99066e-07
10.7844
-2.05673e-07
10.7831
-2.12939e-07
10.782
-2.20782e-07
10.7809
-2.29121e-07
10.7798
-2.37863e-07
10.7789
-2.46912e-07
10.778
-2.56158e-07
10.7771
-2.65494e-07
10.7763
-2.74826e-07
10.7756
-2.84063e-07
10.775
-2.93125e-07
10.7744
-3.01918e-07
10.7739
-3.10356e-07
10.7734
-3.18315e-07
10.7731
-3.25423e-07
10.7727
-3.30111e-07
10.7725
-3.38429e-07
10.7723
-3.45349e-07
10.7721
-3.5017e-07
10.772
-3.53737e-07
10.7719
-3.56914e-07
10.7719
-3.59266e-07
10.7719
-3.61305e-07
10.7719
-3.61998e-07
10.7719
-3.62269e-07
10.772
-3.61854e-07
10.772
-3.6094e-07
10.7721
-3.58822e-07
10.7721
-3.56419e-07
10.7721
-3.54541e-07
10.7721
-3.4754e-07
10.7721
-3.45673e-07
10.772
-3.40371e-07
10.7719
-3.35254e-07
10.7717
-3.29988e-07
10.7715
-3.25491e-07
10.7713
-3.22541e-07
10.771
-3.12091e-07
10.7707
-3.07073e-07
10.7703
-3.02532e-07
10.7699
-2.98668e-07
10.7695
-2.94556e-07
10.7691
-2.90988e-07
10.7687
-2.8816e-07
10.7682
-2.85897e-07
10.7678
-2.84629e-07
10.7674
-2.84155e-07
10.7669
-2.84367e-07
10.7666
-2.8577e-07
10.7662
-2.87466e-07
10.7659
-2.90142e-07
10.7656
-2.93558e-07
10.7654
-2.97204e-07
10.7652
-3.01612e-07
10.7651
-3.06411e-07
10.765
-3.1133e-07
10.765
-3.1644e-07
10.765
-3.21626e-07
10.7651
-3.27067e-07
10.7652
-3.31677e-07
10.7654
-3.33596e-07
10.7656
-3.42727e-07
10.7658
-3.48479e-07
10.7661
-3.5303e-07
10.7664
-3.56927e-07
10.7667
-3.61059e-07
10.7671
-3.64562e-07
10.7674
-3.67862e-07
10.7678
-3.70685e-07
10.7682
-3.72941e-07
10.7687
-3.74674e-07
10.7691
-3.75902e-07
10.7695
-3.76449e-07
10.7699
-3.76086e-07
10.7703
-3.75166e-07
10.7706
-3.73448e-07
10.7709
-3.70739e-07
10.7712
-3.67608e-07
10.7714
-3.63078e-07
10.7715
-3.59131e-07
10.7715
-3.50492e-07
10.7715
-3.53445e-07
10.7714
-3.31673e-07
10.7712
-3.5187e-07
10.7709
-3.81558e-07
10.7705
6.53915e-09
10.77
-6.7961e-07
10.7695
-2.28516e-07
10.7689
-2.54145e-07
10.7682
-3.52005e-07
10.7674
-2.14091e-07
10.7667
-3.58155e-07
10.7659
-2.05172e-07
10.765
-3.61131e-07
10.7643
-2.09433e-07
10.7635
-3.35694e-07
10.7628
-2.4012e-07
10.7622
-3.28864e-07
10.7616
-2.65561e-07
10.7612
-4.64883e-07
10.7608
-8.95459e-07
10.7606
-3.63561e-06
10.7605
-1.72599e-05
10.7605
-8.7961e-05
10.7609
-0.000453118
10.7626
-0.00233905
10.7708
-0.0120986
10.8116
-0.0627224
10.9984
-0.34835
-1.43424
11.8046
121.749
0.0484449
120.991
0.0305744
120.051
0.0226583
119.813
0.0136374
119.908
0.00588408
119.946
0.00839215
119.827
0.00897133
119.694
0.00577674
119.614
0.00375268
119.562
0.00360499
119.517
0.00395936
119.473
0.00440083
119.431
0.00509417
119.378
0.00581184
119.295
0.0052312
119.196
0.0031485
119.108
-0.000617859
119.048
-0.00855638
119.017
-0.0186827
119.012
-0.034617
119.043
-0.0582891
119.125
-0.0905794
119.265
-0.132531
119.477
-0.183694
119.773
-0.242333
120.166
-0.304975
120.657
-0.366028
121.247
-0.418616
121.923
-0.45631
122.67
-0.474181
123.472
-0.472327
124.308
-0.452866
125.153
-0.41906
125.98
-0.375389
126.764
-0.326987
127.477
-0.276348
128.1
-0.2273
128.625
-0.182301
129.049
-0.142709
129.378
-0.109252
129.626
-0.0817793
129.805
-0.0598793
129.93
-0.0429125
130.012
-0.0301012
130.064
-0.0206741
130.093
-0.0139075
130.107
-0.00916163
130.11
-0.00591439
130.105
-0.0037405
130.096
-0.0023176
130.084
-0.00140687
130.07
-0.000836468
130.056
-0.000486949
130.04
-0.000277417
130.025
-0.000154545
130.009
-8.40887e-05
129.994
-4.46053e-05
129.979
-2.29986e-05
129.963
-1.14659e-05
129.948
-5.47196e-06
129.933
-2.44622e-06
129.918
-9.6884e-07
129.902
-2.73605e-07
129.887
3.74998e-08
129.871
1.66835e-07
129.855
2.14877e-07
129.839
2.28121e-07
129.823
2.27738e-07
129.806
2.23128e-07
129.789
2.1721e-07
129.771
2.1142e-07
129.753
2.0603e-07
129.735
2.0102e-07
129.717
1.96373e-07
129.698
1.9212e-07
129.68
1.88315e-07
129.661
1.84946e-07
129.642
1.81956e-07
129.623
1.79348e-07
129.604
1.77223e-07
129.585
1.75729e-07
129.566
1.74985e-07
129.548
1.75045e-07
129.53
1.75949e-07
129.512
1.77717e-07
129.494
1.80332e-07
129.477
1.83787e-07
129.46
1.88082e-07
129.443
1.93187e-07
129.428
1.99066e-07
129.412
2.05671e-07
129.398
2.1294e-07
129.384
2.20782e-07
129.371
2.29125e-07
129.358
2.37866e-07
129.346