/*--------------------------------*- C++ -*----------------------------------*\
| =========                 |                                                 |
| \\      /  F ield         | OpenFOAM: The Open Source CFD Toolbox           |
|  \\    /   O peration     | Version:  3.0.x                                 |
|   \\  /    A nd           | Web:      www.OpenFOAM.org                      |
|    \\/     M anipulation  |                                                 |
\*---------------------------------------------------------------------------*/
FoamFile
{
    version     2.0;
    format      ascii;
    class       volVectorField;
    location    "0.33";
    object      U;
}
// * * * * * * * * * * * * * * * * * * * * * * * * * * * * * * * * * * * * * //

dimensions      [0 1 -1 0 0 0 0];

internalField   nonuniform List<vector> 
13800
(
(42.6962 0.000141831 0)
(42.6926 0.000123481 0)
(42.6888 0.000122322 0)
(42.6851 0.000124456 0)
(42.6814 0.000126276 0)
(42.6776 0.000127799 0)
(42.6739 0.000129073 0)
(42.6701 0.000130126 0)
(42.6664 0.000130999 0)
(42.6626 0.000131726 0)
(42.6589 0.000132332 0)
(42.6552 0.000132882 0)
(42.6514 0.000133276 0)
(42.6477 0.000133671 0)
(42.6439 0.000133996 0)
(42.6402 0.000134279 0)
(42.6364 0.000134532 0)
(42.6327 0.000134743 0)
(42.629 0.000134925 0)
(42.6252 0.000135086 0)
(42.6215 0.000135225 0)
(42.6177 0.000135334 0)
(42.614 0.000135457 0)
(42.6103 0.00013555 0)
(42.6065 0.000135621 0)
(42.6028 0.000135681 0)
(42.5991 0.00013575 0)
(42.5953 0.000135807 0)
(42.5916 0.000135845 0)
(42.5878 0.000135881 0)
(42.5841 0.000135913 0)
(42.5804 0.000135928 0)
(42.5766 0.000135927 0)
(42.5729 0.000135914 0)
(42.5692 0.000135872 0)
(42.5654 0.000135789 0)
(42.5617 0.00013565 0)
(42.558 0.000135425 0)
(42.5543 0.000135104 0)
(42.5506 0.000134654 0)
(42.5469 0.000133992 0)
(42.5432 0.000133096 0)
(42.5396 0.000131923 0)
(42.536 0.000130441 0)
(42.5324 0.000128452 0)
(42.5289 0.000126071 0)
(42.5255 0.000123162 0)
(42.5221 0.000119698 0)
(42.5189 0.000115657 0)
(42.5158 0.000111036 0)
(42.5128 0.000105852 0)
(42.51 0.000100146 0)
(42.5073 9.3979e-05 0)
(42.5048 8.74338e-05 0)
(42.5025 8.06097e-05 0)
(42.5004 7.36175e-05 0)
(42.4985 6.65751e-05 0)
(42.4967 5.9599e-05 0)
(42.4952 5.28044e-05 0)
(42.4938 4.62858e-05 0)
(42.4926 4.0138e-05 0)
(42.4916 3.44297e-05 0)
(42.4907 2.9207e-05 0)
(42.49 2.45015e-05 0)
(42.4894 2.03231e-05 0)
(42.4889 1.66694e-05 0)
(42.4885 1.35167e-05 0)
(42.4881 1.08409e-05 0)
(42.4878 8.59556e-06 0)
(42.4876 6.73736e-06 0)
(42.4875 5.22227e-06 0)
(42.4873 4.00266e-06 0)
(42.4872 3.0337e-06 0)
(42.4872 2.27381e-06 0)
(42.4871 1.68536e-06 0)
(42.4871 1.23554e-06 0)
(42.487 8.95867e-07 0)
(42.487 6.42184e-07 0)
(42.487 4.56093e-07 0)
(42.487 3.19976e-07 0)
(42.487 2.22193e-07 0)
(42.487 1.52882e-07 0)
(42.487 1.03987e-07 0)
(42.487 7.00089e-08 0)
(42.487 4.65522e-08 0)
(42.487 3.06914e-08 0)
(42.487 1.98172e-08 0)
(42.487 1.25754e-08 0)
(42.487 7.69435e-09 0)
(42.487 4.50852e-09 0)
(42.4871 2.28879e-09 0)
(42.4871 1.07874e-09 0)
(42.4871 1.99588e-10 0)
(42.4871 -3.92857e-10 0)
(42.4871 -8.19212e-10 0)
(42.4871 -9.89006e-10 0)
(42.4872 -1.27017e-09 0)
(42.4872 -8.21224e-10 0)
(42.4872 -1.17847e-09 0)
(42.4872 -1.56851e-09 0)
(42.4873 -1.12647e-09 0)
(42.4873 -1.3427e-09 0)
(42.4873 -7.65475e-10 0)
(42.4873 -1.45813e-09 0)
(42.4874 -1.30092e-09 0)
(42.4874 -2.22519e-09 0)
(42.4874 -1.23796e-09 0)
(42.4874 -1.60703e-09 0)
(42.4875 -1.08043e-09 0)
(42.4875 -1.61425e-09 0)
(42.4875 -1.34906e-09 0)
(42.4876 -2.23998e-09 0)
(42.4876 -1.04833e-09 0)
(42.4876 -1.15056e-09 0)
(42.4877 -1.23959e-09 0)
(42.4877 -8.08502e-10 0)
(42.4877 -1.1642e-09 0)
(42.4878 -9.34173e-10 0)
(42.4878 -1.08889e-09 0)
(42.4878 -9.17639e-10 0)
(42.4879 -9.00061e-10 0)
(42.4879 -8.72519e-10 0)
(42.488 -8.33537e-10 0)
(42.488 -8.23596e-10 0)
(42.4881 -7.11231e-10 0)
(42.4881 -6.70053e-10 0)
(42.4882 -3.32162e-10 0)
(42.4882 -1.36663e-09 0)
(42.4883 -2.05689e-10 0)
(42.4883 -3.20131e-10 0)
(42.4884 -1.57264e-10 0)
(42.4884 -5.53441e-10 0)
(42.4885 -1.94924e-10 0)
(42.4886 -7.58388e-11 0)
(42.4886 2.48549e-10 0)
(42.4887 -6.19339e-10 0)
(42.4887 6.64437e-10 0)
(42.4888 3.65727e-10 0)
(42.4889 5.29406e-10 0)
(42.4889 8.04321e-10 0)
(42.489 2.21046e-10 0)
(42.4891 1.02941e-09 0)
(42.4892 9.24814e-10 0)
(42.4892 9.97082e-10 0)
(42.4893 1.05025e-09 0)
(42.4894 9.89153e-10 0)
(42.4895 1.36084e-09 0)
(42.4895 1.42255e-09 0)
(42.4896 1.49895e-09 0)
(42.4897 1.65598e-09 0)
(42.4898 1.83968e-09 0)
(42.4899 2.03436e-09 0)
(42.49 2.22528e-09 0)
(42.4901 2.41235e-09 0)
(42.4902 2.58507e-09 0)
(42.4903 2.74318e-09 0)
(42.4904 2.89023e-09 0)
(42.4905 3.03197e-09 0)
(42.4906 3.17646e-09 0)
(42.4907 3.31833e-09 0)
(42.4908 3.48046e-09 0)
(42.4909 3.65418e-09 0)
(42.491 3.84465e-09 0)
(42.4912 4.06226e-09 0)
(42.4913 4.29587e-09 0)
(42.4914 4.55119e-09 0)
(42.4916 4.81024e-09 0)
(42.4917 5.08821e-09 0)
(42.4919 5.3696e-09 0)
(42.492 5.676e-09 0)
(42.4922 5.9836e-09 0)
(42.4924 6.31413e-09 0)
(42.4926 6.66247e-09 0)
(42.4929 7.01756e-09 0)
(42.4931 7.41454e-09 0)
(42.4933 7.80415e-09 0)
(42.4936 8.23874e-09 0)
(42.4939 8.68523e-09 0)
(42.4943 9.16604e-09 0)
(42.4946 9.6793e-09 0)
(42.495 1.02151e-08 0)
(42.4954 1.0801e-08 0)
(42.4958 1.13978e-08 0)
(42.4963 1.20467e-08 0)
(42.4968 1.27191e-08 0)
(42.4974 1.34502e-08 0)
(42.498 1.43134e-08 0)
(42.4986 1.5623e-08 0)
(42.4993 1.92387e-08 0)
(42.5 3.41617e-08 0)
(42.5008 1.05838e-07 0)
(42.5016 4.55049e-07 0)
(42.5024 2.11357e-06 0)
(42.5031 1.01882e-05 0)
(42.5027 4.8929e-05 0)
(42.4971 0.000234387 0)
(42.4669 0.00111575 0)
(42.3224 0.00525425 0)
(41.8575 0.0270481 0)
(37.4328 0.106474 0)
(42.7001 0.000222495 0)
(42.7003 0.000161974 0)
(42.7005 0.000149868 0)
(42.7007 0.000147791 0)
(42.7008 0.000145961 0)
(42.701 0.000144517 0)
(42.7012 0.000143421 0)
(42.7013 0.000142536 0)
(42.7015 0.000141801 0)
(42.7016 0.000141183 0)
(42.7018 0.000140648 0)
(42.7019 0.000140261 0)
(42.7021 0.000139795 0)
(42.7022 0.000139502 0)
(42.7024 0.000139218 0)
(42.7026 0.000138978 0)
(42.7027 0.000138783 0)
(42.7029 0.000138595 0)
(42.703 0.000138435 0)
(42.7032 0.000138299 0)
(42.7033 0.000138179 0)
(42.7035 0.000138052 0)
(42.7036 0.000137993 0)
(42.7038 0.000137913 0)
(42.7039 0.00013783 0)
(42.7041 0.000137756 0)
(42.7042 0.00013772 0)
(42.7044 0.000137683 0)
(42.7045 0.000137633 0)
(42.7047 0.000137599 0)
(42.7049 0.000137572 0)
(42.705 0.00013753 0)
(42.7052 0.000137488 0)
(42.7053 0.000137441 0)
(42.7055 0.000137366 0)
(42.7056 0.000137256 0)
(42.7058 0.000137092 0)
(42.7059 0.000136839 0)
(42.7061 0.000136495 0)
(42.7062 0.00013603 0)
(42.7064 0.000135326 0)
(42.7065 0.000134385 0)
(42.7067 0.000133166 0)
(42.7068 0.00013166 0)
(42.7069 0.000129548 0)
(42.7071 0.000127104 0)
(42.7072 0.000124099 0)
(42.7074 0.000120524 0)
(42.7075 0.000116362 0)
(42.7076 0.000111611 0)
(42.7077 0.000106291 0)
(42.7079 0.000100446 0)
(42.708 9.41427e-05 0)
(42.7081 8.74676e-05 0)
(42.7082 8.05236e-05 0)
(42.7082 7.34252e-05 0)
(42.7083 6.62933e-05 0)
(42.7084 5.92453e-05 0)
(42.7085 5.23997e-05 0)
(42.7085 4.58442e-05 0)
(42.7086 3.96806e-05 0)
(42.7086 3.39727e-05 0)
(42.7086 2.87628e-05 0)
(42.7087 2.40814e-05 0)
(42.7087 1.99339e-05 0)
(42.7087 1.63177e-05 0)
(42.7087 1.32036e-05 0)
(42.7087 1.05712e-05 0)
(42.7087 8.36504e-06 0)
(42.7087 6.54352e-06 0)
(42.7087 5.06279e-06 0)
(42.7087 3.87374e-06 0)
(42.7087 2.93141e-06 0)
(42.7087 2.19422e-06 0)
(42.7087 1.62465e-06 0)
(42.7087 1.19033e-06 0)
(42.7087 8.63014e-07 0)
(42.7087 6.18714e-07 0)
(42.7087 4.4054e-07 0)
(42.7087 3.09678e-07 0)
(42.7087 2.15843e-07 0)
(42.7087 1.49544e-07 0)
(42.7087 1.02652e-07 0)
(42.7087 7.01988e-08 0)
(42.7087 4.78932e-08 0)
(42.7087 3.30693e-08 0)
(42.7087 2.29468e-08 0)
(42.7087 1.63737e-08 0)
(42.7087 1.19981e-08 0)
(42.7087 9.24759e-09 0)
(42.7087 7.27245e-09 0)
(42.7088 6.42466e-09 0)
(42.7088 5.69333e-09 0)
(42.7088 5.28087e-09 0)
(42.7088 4.95991e-09 0)
(42.7088 4.74921e-09 0)
(42.7088 4.44259e-09 0)
(42.7088 5.14965e-09 0)
(42.7089 4.57096e-09 0)
(42.7089 4.4276e-09 0)
(42.7089 4.71974e-09 0)
(42.7089 4.41311e-09 0)
(42.7089 5.15677e-09 0)
(42.709 4.3189e-09 0)
(42.709 4.84132e-09 0)
(42.709 4.00561e-09 0)
(42.709 4.89908e-09 0)
(42.7091 4.26125e-09 0)
(42.7091 4.90445e-09 0)
(42.7091 4.15314e-09 0)
(42.7091 4.8225e-09 0)
(42.7092 3.91542e-09 0)
(42.7092 4.91932e-09 0)
(42.7092 4.54563e-09 0)
(42.7093 4.42909e-09 0)
(42.7093 4.8895e-09 0)
(42.7093 4.41612e-09 0)
(42.7094 4.76772e-09 0)
(42.7094 4.44319e-09 0)
(42.7094 4.58218e-09 0)
(42.7095 4.60963e-09 0)
(42.7095 4.60858e-09 0)
(42.7095 4.61907e-09 0)
(42.7096 4.62904e-09 0)
(42.7096 4.65062e-09 0)
(42.7097 4.6681e-09 0)
(42.7097 5.03673e-09 0)
(42.7098 3.6409e-09 0)
(42.7098 5.31194e-09 0)
(42.7099 4.76768e-09 0)
(42.7099 5.18702e-09 0)
(42.71 4.53475e-09 0)
(42.71 4.90515e-09 0)
(42.7101 4.95548e-09 0)
(42.7102 5.32967e-09 0)
(42.7102 3.84664e-09 0)
(42.7103 5.90868e-09 0)
(42.7103 5.18405e-09 0)
(42.7104 5.20483e-09 0)
(42.7105 5.70666e-09 0)
(42.7105 4.63804e-09 0)
(42.7106 5.80956e-09 0)
(42.7107 5.4596e-09 0)
(42.7107 5.47244e-09 0)
(42.7108 5.44237e-09 0)
(42.7109 5.32554e-09 0)
(42.711 5.83991e-09 0)
(42.711 5.73641e-09 0)
(42.7111 5.66527e-09 0)
(42.7112 5.73795e-09 0)
(42.7113 5.81709e-09 0)
(42.7114 5.90612e-09 0)
(42.7115 5.98677e-09 0)
(42.7115 6.06859e-09 0)
(42.7116 6.12713e-09 0)
(42.7117 6.18432e-09 0)
(42.7118 6.22988e-09 0)
(42.7119 6.26672e-09 0)
(42.712 6.30835e-09 0)
(42.7121 6.34857e-09 0)
(42.7122 6.40845e-09 0)
(42.7124 6.47022e-09 0)
(42.7125 6.558e-09 0)
(42.7126 6.65465e-09 0)
(42.7127 6.77984e-09 0)
(42.7129 6.91814e-09 0)
(42.713 7.07599e-09 0)
(42.7131 7.26482e-09 0)
(42.7133 7.45679e-09 0)
(42.7135 7.69201e-09 0)
(42.7137 7.92985e-09 0)
(42.7138 8.20505e-09 0)
(42.714 8.51546e-09 0)
(42.7143 8.84141e-09 0)
(42.7145 9.23955e-09 0)
(42.7148 9.64568e-09 0)
(42.715 1.01281e-08 0)
(42.7153 1.06525e-08 0)
(42.7157 1.12481e-08 0)
(42.716 1.18966e-08 0)
(42.7164 1.26276e-08 0)
(42.7168 1.34457e-08 0)
(42.7172 1.42952e-08 0)
(42.7177 1.52683e-08 0)
(42.7182 1.63174e-08 0)
(42.7187 1.75106e-08 0)
(42.7193 1.91586e-08 0)
(42.72 2.26857e-08 0)
(42.7206 3.48661e-08 0)
(42.7214 8.76542e-08 0)
(42.7221 3.37759e-07 0)
(42.7229 1.52727e-06 0)
(42.7238 7.20254e-06 0)
(42.7244 3.46975e-05 0)
(42.724 0.000166633 0)
(42.7184 0.000798232 0)
(42.6884 0.00380012 0)
(42.5445 0.0178681 0)
(42.0798 0.0900687 0)
(37.8922 0.335156 0)
(42.7001 0.000163815 0)
(42.7003 0.00011295 0)
(42.7005 0.000107359 0)
(42.7007 0.000110456 0)
(42.7008 0.000111481 0)
(42.701 0.000111954 0)
(42.7012 0.000112364 0)
(42.7013 0.0001127 0)
(42.7015 0.000112973 0)
(42.7016 0.000113201 0)
(42.7018 0.000113389 0)
(42.702 0.000113605 0)
(42.7021 0.000113686 0)
(42.7023 0.000113847 0)
(42.7024 0.000113963 0)
(42.7026 0.000114072 0)
(42.7027 0.00011418 0)
(42.7029 0.00011426 0)
(42.7031 0.00011434 0)
(42.7032 0.000114414 0)
(42.7034 0.000114479 0)
(42.7036 0.000114523 0)
(42.7037 0.000114602 0)
(42.7039 0.000114652 0)
(42.704 0.000114688 0)
(42.7042 0.000114721 0)
(42.7044 0.000114775 0)
(42.7045 0.000114816 0)
(42.7047 0.000114843 0)
(42.7049 0.000114875 0)
(42.705 0.000114906 0)
(42.7052 0.000114916 0)
(42.7053 0.00011493 0)
(42.7055 0.000114927 0)
(42.7057 0.000114898 0)
(42.7058 0.000114835 0)
(42.706 0.000114724 0)
(42.7062 0.000114534 0)
(42.7063 0.000114262 0)
(42.7065 0.000113885 0)
(42.7066 0.000113303 0)
(42.7068 0.000112519 0)
(42.707 0.000111498 0)
(42.7071 0.000110227 0)
(42.7073 0.000108441 0)
(42.7074 0.000106381 0)
(42.7076 0.000103839 0)
(42.7077 0.000100817 0)
(42.7078 9.72998e-05 0)
(42.708 9.32874e-05 0)
(42.7081 8.87983e-05 0)
(42.7082 8.38708e-05 0)
(42.7083 7.8562e-05 0)
(42.7084 7.29458e-05 0)
(42.7085 6.71098e-05 0)
(42.7086 6.1151e-05 0)
(42.7086 5.51702e-05 0)
(42.7087 4.9267e-05 0)
(42.7088 4.35404e-05 0)
(42.7088 3.80622e-05 0)
(42.7088 3.29186e-05 0)
(42.7089 2.81594e-05 0)
(42.7089 2.38207e-05 0)
(42.7089 1.99266e-05 0)
(42.7089 1.64802e-05 0)
(42.7089 1.34785e-05 0)
(42.7089 1.08962e-05 0)
(42.7089 8.71574e-06 0)
(42.7089 6.88922e-06 0)
(42.7089 5.38331e-06 0)
(42.7089 4.16018e-06 0)
(42.7089 3.17875e-06 0)
(42.7089 2.4016e-06 0)
(42.7089 1.79414e-06 0)
(42.7089 1.32519e-06 0)
(42.7089 9.67883e-07 0)
(42.7089 6.98895e-07 0)
(42.7089 4.98355e-07 0)
(42.7089 3.52344e-07 0)
(42.7088 2.45254e-07 0)
(42.7088 1.68624e-07 0)
(42.7088 1.1464e-07 0)
(42.7089 7.64947e-08 0)
(42.7089 5.01133e-08 0)
(42.7089 3.19478e-08 0)
(42.7089 1.9801e-08 0)
(42.7089 1.14376e-08 0)
(42.7089 5.93681e-09 0)
(42.7089 2.23027e-09 0)
(42.7089 -1.41636e-10 0)
(42.7089 -1.84496e-09 0)
(42.7089 -2.62939e-09 0)
(42.7089 -3.29984e-09 0)
(42.709 -3.66472e-09 0)
(42.709 -3.95151e-09 0)
(42.709 -4.16794e-09 0)
(42.709 -4.36297e-09 0)
(42.709 -3.82033e-09 0)
(42.709 -4.29298e-09 0)
(42.7091 -4.38554e-09 0)
(42.7091 -4.1916e-09 0)
(42.7091 -4.3667e-09 0)
(42.7091 -3.81973e-09 0)
(42.7091 -4.42181e-09 0)
(42.7092 -4.12229e-09 0)
(42.7092 -4.79672e-09 0)
(42.7092 -4.05482e-09 0)
(42.7092 -4.50711e-09 0)
(42.7093 -4.02929e-09 0)
(42.7093 -4.53274e-09 0)
(42.7093 -4.07694e-09 0)
(42.7093 -4.79312e-09 0)
(42.7094 -3.95337e-09 0)
(42.7094 -4.20784e-09 0)
(42.7094 -4.25837e-09 0)
(42.7095 -3.92797e-09 0)
(42.7095 -4.23929e-09 0)
(42.7095 -3.99796e-09 0)
(42.7096 -4.21446e-09 0)
(42.7096 -4.09497e-09 0)
(42.7096 -4.06051e-09 0)
(42.7097 -4.06225e-09 0)
(42.7097 -4.03996e-09 0)
(42.7098 -4.00362e-09 0)
(42.7098 -3.99277e-09 0)
(42.7099 -3.94619e-09 0)
(42.7099 -3.68312e-09 0)
(42.7099 -4.63424e-09 0)
(42.71 -3.33212e-09 0)
(42.71 -3.78699e-09 0)
(42.7101 -3.46158e-09 0)
(42.7102 -3.96901e-09 0)
(42.7102 -3.64935e-09 0)
(42.7103 -3.57994e-09 0)
(42.7103 -3.29185e-09 0)
(42.7104 -4.40396e-09 0)
(42.7104 -2.69045e-09 0)
(42.7105 -3.27975e-09 0)
(42.7106 -3.23615e-09 0)
(42.7106 -2.85761e-09 0)
(42.7107 -3.61452e-09 0)
(42.7108 -2.71329e-09 0)
(42.7108 -2.94729e-09 0)
(42.7109 -2.93154e-09 0)
(42.711 -3.0536e-09 0)
(42.7111 -3.5626e-09 0)
(42.7111 -2.12096e-09 0)
(42.7112 -2.33539e-09 0)
(42.7113 -2.55404e-09 0)
(42.7114 -2.45623e-09 0)
(42.7115 -2.33175e-09 0)
(42.7115 -2.20835e-09 0)
(42.7116 -2.08488e-09 0)
(42.7117 -1.96655e-09 0)
(42.7118 -1.86598e-09 0)
(42.7119 -1.77609e-09 0)
(42.712 -1.69825e-09 0)
(42.7121 -1.62413e-09 0)
(42.7122 -1.55108e-09 0)
(42.7123 -1.48036e-09 0)
(42.7124 -1.40463e-09 0)
(42.7125 -1.31656e-09 0)
(42.7126 -1.22687e-09 0)
(42.7128 -1.12906e-09 0)
(42.7129 -1.01402e-09 0)
(42.713 -8.98848e-10 0)
(42.7132 -7.85429e-10 0)
(42.7133 -6.69084e-10 0)
(42.7135 -5.67759e-10 0)
(42.7136 -4.52809e-10 0)
(42.7138 -3.55117e-10 0)
(42.714 -2.50357e-10 0)
(42.7142 -1.40223e-10 0)
(42.7144 -4.54547e-11 0)
(42.7147 9.48579e-11 0)
(42.7149 2.25784e-10 0)
(42.7152 4.00293e-10 0)
(42.7155 6.17083e-10 0)
(42.7158 8.56162e-10 0)
(42.7162 1.15134e-09 0)
(42.7165 1.48276e-09 0)
(42.7169 1.89177e-09 0)
(42.7174 2.29825e-09 0)
(42.7179 2.80266e-09 0)
(42.7184 3.37514e-09 0)
(42.7189 4.12155e-09 0)
(42.7195 5.50962e-09 0)
(42.7201 1.00926e-08 0)
(42.7208 3.05384e-08 0)
(42.7215 1.29736e-07 0)
(42.7223 6.20838e-07 0)
(42.7231 2.96518e-06 0)
(42.7239 1.4245e-05 0)
(42.7246 6.87634e-05 0)
(42.7242 0.000330449 0)
(42.7188 0.0015835 0)
(42.6896 0.00754318 0)
(42.5498 0.0354714 0)
(42.1004 0.177913 0)
(38.1465 0.647435 0)
(42.7001 0.00011914 0)
(42.7003 0.000102295 0)
(42.7005 9.96845e-05 0)
(42.7007 0.000103803 0)
(42.7008 0.000105928 0)
(42.701 0.000107182 0)
(42.7011 0.000108242 0)
(42.7013 0.00010914 0)
(42.7014 0.000109886 0)
(42.7016 0.000110512 0)
(42.7018 0.00011104 0)
(42.7019 0.000111519 0)
(42.7021 0.000111873 0)
(42.7022 0.000112227 0)
(42.7024 0.000112522 0)
(42.7026 0.000112783 0)
(42.7027 0.000113019 0)
(42.7029 0.000113217 0)
(42.703 0.000113396 0)
(42.7032 0.000113554 0)
(42.7034 0.000113694 0)
(42.7035 0.000113809 0)
(42.7037 0.000113933 0)
(42.7038 0.000114034 0)
(42.704 0.000114116 0)
(42.7042 0.000114189 0)
(42.7043 0.00011427 0)
(42.7045 0.000114338 0)
(42.7047 0.000114392 0)
(42.7048 0.000114446 0)
(42.705 0.000114494 0)
(42.7051 0.000114524 0)
(42.7053 0.000114553 0)
(42.7055 0.000114563 0)
(42.7056 0.000114548 0)
(42.7058 0.0001145 0)
(42.706 0.000114405 0)
(42.7061 0.000114239 0)
(42.7063 0.000113987 0)
(42.7065 0.000113632 0)
(42.7066 0.000113094 0)
(42.7068 0.000112361 0)
(42.7069 0.000111395 0)
(42.7071 0.000110171 0)
(42.7072 0.000108501 0)
(42.7074 0.000106521 0)
(42.7075 0.000104086 0)
(42.7077 0.000101181 0)
(42.7078 9.77885e-05 0)
(42.7079 9.39046e-05 0)
(42.7081 8.95437e-05 0)
(42.7082 8.47392e-05 0)
(42.7083 7.95436e-05 0)
(42.7084 7.40261e-05 0)
(42.7085 6.82703e-05 0)
(42.7086 6.23705e-05 0)
(42.7086 5.6424e-05 0)
(42.7087 5.05312e-05 0)
(42.7087 4.47907e-05 0)
(42.7088 3.9279e-05 0)
(42.7088 3.40799e-05 0)
(42.7088 2.92495e-05 0)
(42.7089 2.48278e-05 0)
(42.7089 2.08423e-05 0)
(42.7089 1.73011e-05 0)
(42.7089 1.4203e-05 0)
(42.7089 1.1528e-05 0)
(42.7089 9.25711e-06 0)
(42.7089 7.34918e-06 0)
(42.7089 5.76973e-06 0)
(42.7089 4.48116e-06 0)
(42.7089 3.44309e-06 0)
(42.7089 2.61778e-06 0)
(42.7089 1.97009e-06 0)
(42.7089 1.46812e-06 0)
(42.7089 1.08413e-06 0)
(42.7089 7.93933e-07 0)
(42.7089 5.76992e-07 0)
(42.7089 4.17886e-07 0)
(42.7088 3.0128e-07 0)
(42.7088 2.17457e-07 0)
(42.7088 1.58049e-07 0)
(42.7089 1.16036e-07 0)
(42.7089 8.68136e-08 0)
(42.7089 6.66304e-08 0)
(42.7089 5.29514e-08 0)
(42.7089 4.35761e-08 0)
(42.7089 3.73212e-08 0)
(42.7089 3.30963e-08 0)
(42.7089 3.03382e-08 0)
(42.7089 2.84214e-08 0)
(42.7089 2.73773e-08 0)
(42.7089 2.66073e-08 0)
(42.709 2.61213e-08 0)
(42.709 2.57584e-08 0)
(42.709 2.55592e-08 0)
(42.709 2.5378e-08 0)
(42.709 2.57346e-08 0)
(42.709 2.54261e-08 0)
(42.7091 2.51642e-08 0)
(42.7091 2.54419e-08 0)
(42.7091 2.53347e-08 0)
(42.7091 2.57572e-08 0)
(42.7091 2.5271e-08 0)
(42.7092 2.5358e-08 0)
(42.7092 2.46831e-08 0)
(42.7092 2.54253e-08 0)
(42.7092 2.51497e-08 0)
(42.7093 2.55309e-08 0)
(42.7093 2.51511e-08 0)
(42.7093 2.53515e-08 0)
(42.7093 2.46796e-08 0)
(42.7094 2.55775e-08 0)
(42.7094 2.54934e-08 0)
(42.7094 2.54391e-08 0)
(42.7095 2.57365e-08 0)
(42.7095 2.55081e-08 0)
(42.7095 2.5662e-08 0)
(42.7096 2.55543e-08 0)
(42.7096 2.56774e-08 0)
(42.7096 2.56974e-08 0)
(42.7097 2.57194e-08 0)
(42.7097 2.57537e-08 0)
(42.7098 2.57796e-08 0)
(42.7098 2.58373e-08 0)
(42.7099 2.58956e-08 0)
(42.7099 2.61206e-08 0)
(42.7099 2.53946e-08 0)
(42.71 2.63674e-08 0)
(42.71 2.61862e-08 0)
(42.7101 2.63449e-08 0)
(42.7102 2.59904e-08 0)
(42.7102 2.62782e-08 0)
(42.7103 2.6389e-08 0)
(42.7103 2.6614e-08 0)
(42.7104 2.58843e-08 0)
(42.7104 2.70916e-08 0)
(42.7105 2.67627e-08 0)
(42.7106 2.68709e-08 0)
(42.7106 2.71076e-08 0)
(42.7107 2.68256e-08 0)
(42.7108 2.7138e-08 0)
(42.7108 2.71679e-08 0)
(42.7109 2.7194e-08 0)
(42.711 2.69683e-08 0)
(42.7111 2.59695e-08 0)
(42.7111 2.8928e-08 0)
(42.7112 2.82275e-08 0)
(42.7113 2.77021e-08 0)
(42.7114 2.78408e-08 0)
(42.7115 2.80075e-08 0)
(42.7115 2.81701e-08 0)
(42.7116 2.83392e-08 0)
(42.7117 2.85052e-08 0)
(42.7118 2.86537e-08 0)
(42.7119 2.87962e-08 0)
(42.712 2.89281e-08 0)
(42.7121 2.90545e-08 0)
(42.7122 2.91822e-08 0)
(42.7123 2.93153e-08 0)
(42.7124 2.94577e-08 0)
(42.7125 2.96198e-08 0)
(42.7126 2.97899e-08 0)
(42.7128 2.99791e-08 0)
(42.7129 3.01992e-08 0)
(42.713 3.04296e-08 0)
(42.7132 3.06796e-08 0)
(42.7133 3.09395e-08 0)
(42.7135 3.11835e-08 0)
(42.7136 3.14529e-08 0)
(42.7138 3.16731e-08 0)
(42.714 3.19205e-08 0)
(42.7142 3.21714e-08 0)
(42.7144 3.23745e-08 0)
(42.7147 3.26738e-08 0)
(42.7149 3.28882e-08 0)
(42.7152 3.32102e-08 0)
(42.7155 3.34922e-08 0)
(42.7158 3.3867e-08 0)
(42.7162 3.41266e-08 0)
(42.7165 3.45731e-08 0)
(42.7169 3.49513e-08 0)
(42.7174 3.54246e-08 0)
(42.7179 3.57793e-08 0)
(42.7184 3.65705e-08 0)
(42.7189 3.75655e-08 0)
(42.7195 4.04885e-08 0)
(42.7201 5.20983e-08 0)
(42.7208 1.03106e-07 0)
(42.7215 3.52209e-07 0)
(42.7223 1.59183e-06 0)
(42.7231 7.51768e-06 0)
(42.7239 3.60366e-05 0)
(42.7246 0.000174 0)
(42.7244 0.000835955 0)
(42.7198 0.00400435 0)
(42.6939 0.0190178 0)
(42.5719 0.0884217 0)
(42.1824 0.40881 0)
(39.1757 1.46618 0)
(42.7001 3.599e-05 0)
(42.7003 2.78261e-05 0)
(42.7005 1.98464e-05 0)
(42.7006 1.66454e-05 0)
(42.7008 1.4081e-05 0)
(42.7009 1.18806e-05 0)
(42.7011 1.0148e-05 0)
(42.7013 8.75668e-06 0)
(42.7014 7.60709e-06 0)
(42.7016 6.64377e-06 0)
(42.7017 5.82878e-06 0)
(42.7019 5.13941e-06 0)
(42.7021 4.53587e-06 0)
(42.7022 4.0233e-06 0)
(42.7024 3.57638e-06 0)
(42.7025 3.18687e-06 0)
(42.7027 2.84765e-06 0)
(42.7029 2.54763e-06 0)
(42.703 2.28498e-06 0)
(42.7032 2.05386e-06 0)
(42.7033 1.84956e-06 0)
(42.7035 1.66714e-06 0)
(42.7037 1.5101e-06 0)
(42.7038 1.37003e-06 0)
(42.704 1.24261e-06 0)
(42.7041 1.12958e-06 0)
(42.7043 1.03303e-06 0)
(42.7045 9.4547e-07 0)
(42.7046 8.65858e-07 0)
(42.7048 7.96388e-07 0)
(42.705 7.35182e-07 0)
(42.7051 6.77581e-07 0)
(42.7053 6.29281e-07 0)
(42.7054 5.85786e-07 0)
(42.7056 5.45916e-07 0)
(42.7058 5.09981e-07 0)
(42.7059 4.76906e-07 0)
(42.7061 4.45113e-07 0)
(42.7063 4.14049e-07 0)
(42.7064 3.89457e-07 0)
(42.7066 3.55944e-07 0)
(42.7067 3.21043e-07 0)
(42.7069 2.8701e-07 0)
(42.7071 2.58716e-07 0)
(42.7072 1.96883e-07 0)
(42.7074 1.53718e-07 0)
(42.7075 1.00113e-07 0)
(42.7077 4.0237e-08 0)
(42.7078 -2.36995e-08 0)
(42.7079 -9.06299e-08 0)
(42.708 -1.58851e-07 0)
(42.7082 -2.26316e-07 0)
(42.7083 -2.90809e-07 0)
(42.7084 -3.50074e-07 0)
(42.7085 -4.01968e-07 0)
(42.7085 -4.44362e-07 0)
(42.7086 -4.77073e-07 0)
(42.7087 -4.9853e-07 0)
(42.7087 -5.07061e-07 0)
(42.7088 -5.06561e-07 0)
(42.7088 -4.94799e-07 0)
(42.7088 -4.73654e-07 0)
(42.7089 -4.45777e-07 0)
(42.7089 -4.12411e-07 0)
(42.7089 -3.7592e-07 0)
(42.7089 -3.37108e-07 0)
(42.7089 -2.98669e-07 0)
(42.7089 -2.59861e-07 0)
(42.7089 -2.24114e-07 0)
(42.7089 -1.9157e-07 0)
(42.7089 -1.62011e-07 0)
(42.7089 -1.36027e-07 0)
(42.7089 -1.1363e-07 0)
(42.7089 -9.46877e-08 0)
(42.7089 -7.90081e-08 0)
(42.7089 -6.62265e-08 0)
(42.7089 -5.60522e-08 0)
(42.7089 -4.82089e-08 0)
(42.7089 -4.19667e-08 0)
(42.7088 -3.75187e-08 0)
(42.7088 -3.42414e-08 0)
(42.7088 -3.18256e-08 0)
(42.7089 -3.01708e-08 0)
(42.7089 -2.89507e-08 0)
(42.7089 -2.80155e-08 0)
(42.7089 -2.72358e-08 0)
(42.7089 -2.66233e-08 0)
(42.7089 -2.61086e-08 0)
(42.7089 -2.57109e-08 0)
(42.7089 -2.53907e-08 0)
(42.7089 -2.51736e-08 0)
(42.7089 -2.4953e-08 0)
(42.7089 -2.48264e-08 0)
(42.709 -2.47143e-08 0)
(42.709 -2.46438e-08 0)
(42.709 -2.46399e-08 0)
(42.709 -2.4631e-08 0)
(42.709 -2.45415e-08 0)
(42.709 -2.46068e-08 0)
(42.7091 -2.45247e-08 0)
(42.7091 -2.45887e-08 0)
(42.7091 -2.46234e-08 0)
(42.7091 -2.45832e-08 0)
(42.7091 -2.46113e-08 0)
(42.7092 -2.4464e-08 0)
(42.7092 -2.43787e-08 0)
(42.7092 -2.44729e-08 0)
(42.7092 -2.45672e-08 0)
(42.7093 -2.45519e-08 0)
(42.7093 -2.46123e-08 0)
(42.7093 -2.44557e-08 0)
(42.7093 -2.44355e-08 0)
(42.7094 -2.45694e-08 0)
(42.7094 -2.46803e-08 0)
(42.7094 -2.47139e-08 0)
(42.7095 -2.47172e-08 0)
(42.7095 -2.4757e-08 0)
(42.7095 -2.4735e-08 0)
(42.7096 -2.47978e-08 0)
(42.7096 -2.48249e-08 0)
(42.7096 -2.48294e-08 0)
(42.7097 -2.48501e-08 0)
(42.7097 -2.48693e-08 0)
(42.7098 -2.48784e-08 0)
(42.7098 -2.49208e-08 0)
(42.7099 -2.49388e-08 0)
(42.7099 -2.49538e-08 0)
(42.7099 -2.51028e-08 0)
(42.71 -2.49082e-08 0)
(42.71 -2.5072e-08 0)
(42.7101 -2.50025e-08 0)
(42.7102 -2.5105e-08 0)
(42.7102 -2.51205e-08 0)
(42.7103 -2.51602e-08 0)
(42.7103 -2.51684e-08 0)
(42.7104 -2.5426e-08 0)
(42.7104 -2.51195e-08 0)
(42.7105 -2.52989e-08 0)
(42.7106 -2.54037e-08 0)
(42.7106 -2.54142e-08 0)
(42.7107 -2.47669e-08 0)
(42.7108 -2.59172e-08 0)
(42.7108 -2.55971e-08 0)
(42.7109 -2.57011e-08 0)
(42.711 -2.63389e-08 0)
(42.7111 -2.95609e-08 0)
(42.7111 -2.19126e-08 0)
(42.7112 -2.43432e-08 0)
(42.7113 -2.57583e-08 0)
(42.7114 -2.58324e-08 0)
(42.7115 -2.58898e-08 0)
(42.7115 -2.59773e-08 0)
(42.7116 -2.60603e-08 0)
(42.7117 -2.61343e-08 0)
(42.7118 -2.62148e-08 0)
(42.7119 -2.62879e-08 0)
(42.712 -2.63616e-08 0)
(42.7121 -2.64296e-08 0)
(42.7122 -2.64947e-08 0)
(42.7123 -2.65462e-08 0)
(42.7124 -2.66128e-08 0)
(42.7125 -2.66432e-08 0)
(42.7126 -2.6692e-08 0)
(42.7128 -2.6713e-08 0)
(42.7129 -2.6716e-08 0)
(42.713 -2.67143e-08 0)
(42.7132 -2.67035e-08 0)
(42.7133 -2.66566e-08 0)
(42.7135 -2.66604e-08 0)
(42.7136 -2.65909e-08 0)
(42.7138 -2.65747e-08 0)
(42.714 -2.65244e-08 0)
(42.7142 -2.64193e-08 0)
(42.7144 -2.64037e-08 0)
(42.7147 -2.62888e-08 0)
(42.7149 -2.6205e-08 0)
(42.7152 -2.61169e-08 0)
(42.7155 -2.59601e-08 0)
(42.7158 -2.58376e-08 0)
(42.7162 -2.57124e-08 0)
(42.7165 -2.55524e-08 0)
(42.7169 -2.53247e-08 0)
(42.7174 -2.51489e-08 0)
(42.7179 -2.49434e-08 0)
(42.7184 -2.45119e-08 0)
(42.7189 -2.34475e-08 0)
(42.7195 -1.95928e-08 0)
(42.7201 -1.52239e-09 0)
(42.7208 8.26239e-08 0)
(42.7215 4.94409e-07 0)
(42.7223 2.56317e-06 0)
(42.7231 1.23979e-05 0)
(42.724 5.99541e-05 0)
(42.7248 0.000288908 0)
(42.7254 0.001391 0)
(42.7241 0.00667727 0)
(42.7142 0.0318032 0)
(42.662 0.14819 0)
(42.4918 0.665528 0)
(40.7068 2.36243 0)
(42.7001 -3.599e-05 0)
(42.7003 -2.78261e-05 0)
(42.7005 -1.98464e-05 0)
(42.7006 -1.66454e-05 0)
(42.7008 -1.4081e-05 0)
(42.7009 -1.18806e-05 0)
(42.7011 -1.0148e-05 0)
(42.7013 -8.75668e-06 0)
(42.7014 -7.60708e-06 0)
(42.7016 -6.64377e-06 0)
(42.7017 -5.82878e-06 0)
(42.7019 -5.13941e-06 0)
(42.7021 -4.53587e-06 0)
(42.7022 -4.0233e-06 0)
(42.7024 -3.57638e-06 0)
(42.7025 -3.18687e-06 0)
(42.7027 -2.84766e-06 0)
(42.7029 -2.54763e-06 0)
(42.703 -2.28498e-06 0)
(42.7032 -2.05386e-06 0)
(42.7033 -1.84956e-06 0)
(42.7035 -1.66714e-06 0)
(42.7037 -1.5101e-06 0)
(42.7038 -1.37003e-06 0)
(42.704 -1.24261e-06 0)
(42.7041 -1.12958e-06 0)
(42.7043 -1.03303e-06 0)
(42.7045 -9.45471e-07 0)
(42.7046 -8.65858e-07 0)
(42.7048 -7.96387e-07 0)
(42.705 -7.35182e-07 0)
(42.7051 -6.77581e-07 0)
(42.7053 -6.29282e-07 0)
(42.7054 -5.85787e-07 0)
(42.7056 -5.45917e-07 0)
(42.7058 -5.09982e-07 0)
(42.7059 -4.76907e-07 0)
(42.7061 -4.45114e-07 0)
(42.7063 -4.14048e-07 0)
(42.7064 -3.89458e-07 0)
(42.7066 -3.55945e-07 0)
(42.7067 -3.21043e-07 0)
(42.7069 -2.87012e-07 0)
(42.7071 -2.58718e-07 0)
(42.7072 -1.96885e-07 0)
(42.7074 -1.53715e-07 0)
(42.7075 -1.00112e-07 0)
(42.7077 -4.02382e-08 0)
(42.7078 2.3698e-08 0)
(42.7079 9.06291e-08 0)
(42.708 1.58848e-07 0)
(42.7082 2.26316e-07 0)
(42.7083 2.9081e-07 0)
(42.7084 3.50073e-07 0)
(42.7085 4.01965e-07 0)
(42.7085 4.44361e-07 0)
(42.7086 4.77073e-07 0)
(42.7087 4.9853e-07 0)
(42.7087 5.07061e-07 0)
(42.7088 5.0656e-07 0)
(42.7088 4.94799e-07 0)
(42.7088 4.73654e-07 0)
(42.7089 4.45778e-07 0)
(42.7089 4.1241e-07 0)
(42.7089 3.75917e-07 0)
(42.7089 3.37109e-07 0)
(42.7089 2.98668e-07 0)
(42.7089 2.59857e-07 0)
(42.7089 2.24114e-07 0)
(42.7089 1.9157e-07 0)
(42.7089 1.6201e-07 0)
(42.7089 1.36028e-07 0)
(42.7089 1.13631e-07 0)
(42.7089 9.46892e-08 0)
(42.7089 7.9008e-08 0)
(42.7089 6.62308e-08 0)
(42.7089 5.6055e-08 0)
(42.7089 4.82099e-08 0)
(42.7089 4.19665e-08 0)
(42.7088 3.75185e-08 0)
(42.7088 3.4243e-08 0)
(42.7088 3.18232e-08 0)
(42.7089 3.01716e-08 0)
(42.7089 2.89501e-08 0)
(42.7089 2.80153e-08 0)
(42.7089 2.72355e-08 0)
(42.7089 2.6622e-08 0)
(42.7089 2.61092e-08 0)
(42.7089 2.57126e-08 0)
(42.7089 2.53897e-08 0)
(42.7089 2.51702e-08 0)
(42.7089 2.49509e-08 0)
(42.7089 2.4825e-08 0)
(42.709 2.47133e-08 0)
(42.709 2.46465e-08 0)
(42.709 2.464e-08 0)
(42.709 2.46342e-08 0)
(42.709 2.45429e-08 0)
(42.709 2.46042e-08 0)
(42.7091 2.45259e-08 0)
(42.7091 2.45904e-08 0)
(42.7091 2.46215e-08 0)
(42.7091 2.45827e-08 0)
(42.7091 2.46123e-08 0)
(42.7092 2.44639e-08 0)
(42.7092 2.43777e-08 0)
(42.7092 2.44729e-08 0)
(42.7092 2.45667e-08 0)
(42.7093 2.45531e-08 0)
(42.7093 2.46148e-08 0)
(42.7093 2.4458e-08 0)
(42.7093 2.44364e-08 0)
(42.7094 2.45673e-08 0)
(42.7094 2.46814e-08 0)
(42.7094 2.47136e-08 0)
(42.7095 2.47155e-08 0)
(42.7095 2.47565e-08 0)
(42.7095 2.47335e-08 0)
(42.7096 2.47977e-08 0)
(42.7096 2.48236e-08 0)
(42.7096 2.48273e-08 0)
(42.7097 2.48475e-08 0)
(42.7097 2.48706e-08 0)
(42.7098 2.48795e-08 0)
(42.7098 2.49234e-08 0)
(42.7099 2.49391e-08 0)
(42.7099 2.49518e-08 0)
(42.7099 2.51019e-08 0)
(42.71 2.49083e-08 0)
(42.71 2.50708e-08 0)
(42.7101 2.50035e-08 0)
(42.7102 2.51037e-08 0)
(42.7102 2.51221e-08 0)
(42.7103 2.51571e-08 0)
(42.7103 2.51689e-08 0)
(42.7104 2.5358e-08 0)
(42.7104 2.51674e-08 0)
(42.7105 2.52985e-08 0)
(42.7106 2.5346e-08 0)
(42.7106 2.5173e-08 0)
(42.7107 2.63783e-08 0)
(42.7108 2.47662e-08 0)
(42.7108 2.53933e-08 0)
(42.7109 2.53719e-08 0)
(42.711 2.46467e-08 0)
(42.7111 2.02455e-08 0)
(42.7111 3.05805e-08 0)
(42.7112 2.71894e-08 0)
(42.7113 2.57582e-08 0)
(42.7114 2.58415e-08 0)
(42.7115 2.59226e-08 0)
(42.7115 2.59875e-08 0)
(42.7116 2.60579e-08 0)
(42.7117 2.61457e-08 0)
(42.7118 2.62164e-08 0)
(42.7119 2.62896e-08 0)
(42.712 2.63575e-08 0)
(42.7121 2.64266e-08 0)
(42.7122 2.64882e-08 0)
(42.7123 2.6554e-08 0)
(42.7124 2.65987e-08 0)
(42.7125 2.66591e-08 0)
(42.7126 2.66745e-08 0)
(42.7128 2.67099e-08 0)
(42.7129 2.67148e-08 0)
(42.713 2.67282e-08 0)
(42.7132 2.66957e-08 0)
(42.7133 2.66949e-08 0)
(42.7135 2.66459e-08 0)
(42.7136 2.66151e-08 0)
(42.7138 2.65495e-08 0)
(42.714 2.6512e-08 0)
(42.7142 2.64574e-08 0)
(42.7144 2.6382e-08 0)
(42.7147 2.62874e-08 0)
(42.7149 2.61998e-08 0)
(42.7152 2.60657e-08 0)
(42.7155 2.6012e-08 0)
(42.7158 2.58185e-08 0)
(42.7162 2.57317e-08 0)
(42.7165 2.55221e-08 0)
(42.7169 2.53728e-08 0)
(42.7174 2.51252e-08 0)
(42.7179 2.50286e-08 0)
(42.7184 2.49086e-08 0)
(42.7189 2.55117e-08 0)
(42.7195 2.91236e-08 0)
(42.7201 4.59734e-08 0)
(42.7208 1.28852e-07 0)
(42.7215 5.26261e-07 0)
(42.7223 2.61661e-06 0)
(42.7231 1.24186e-05 0)
(42.724 6.02369e-05 0)
(42.7251 0.000289843 0)
(42.7265 0.00140173 0)
(42.7296 0.00678862 0)
(42.7399 0.0329474 0)
(42.779 0.158133 0)
(42.9153 0.75605 0)
(43.4234 2.65779 0)
(42.7001 -0.00011914 0)
(42.7003 -0.000102295 0)
(42.7005 -9.96845e-05 0)
(42.7007 -0.000103803 0)
(42.7008 -0.000105928 0)
(42.701 -0.000107182 0)
(42.7011 -0.000108242 0)
(42.7013 -0.00010914 0)
(42.7014 -0.000109886 0)
(42.7016 -0.000110512 0)
(42.7018 -0.00011104 0)
(42.7019 -0.000111519 0)
(42.7021 -0.000111873 0)
(42.7022 -0.000112227 0)