/*--------------------------------*- C++ -*----------------------------------*\
| =========                 |                                                 |
| \\      /  F ield         | OpenFOAM: The Open Source CFD Toolbox           |
|  \\    /   O peration     | Version:  3.0.x                                 |
|   \\  /    A nd           | Web:      www.OpenFOAM.org                      |
|    \\/     M anipulation  |                                                 |
\*---------------------------------------------------------------------------*/
FoamFile
{
    version     2.0;
    format      ascii;
    class       surfaceScalarField;
    location    "0.39";
    object      phi;
}
// * * * * * * * * * * * * * * * * * * * * * * * * * * * * * * * * * * * * * //

dimensions      [1 0 -1 0 0 0 0];

internalField   nonuniform List<scalar> 
52430
(
3.90609
0.000243624
3.90592
0.000176134
3.90575
0.000169102
3.90558
0.000170335
3.90541
0.000170751
3.90524
0.000170695
3.90507
0.00017066
3.90489
0.000170662
3.90472
0.000170665
3.90455
0.000170664
3.90438
0.000170658
3.90421
0.000170654
3.90404
0.000170652
3.90387
0.000170649
3.9037
0.000170645
3.90353
0.000170641
3.90336
0.000170638
3.90319
0.000170634
3.90302
0.00017063
3.90284
0.000170626
3.90267
0.000170622
3.9025
0.000170618
3.90233
0.000170615
3.90216
0.00017061
3.90199
0.000170606
3.90182
0.000170602
3.90165
0.000170598
3.90148
0.000170594
3.90131
0.000170589
3.90114
0.000170585
3.90096
0.00017058
3.90079
0.000170575
3.90062
0.000170571
3.90045
0.000170561
3.90028
0.000170558
3.90011
0.000170568
3.89994
0.000170536
3.89977
0.00017054
3.8996
0.000170534
3.89943
0.000170527
3.89926
0.000170519
3.89908
0.000170514
3.89891
0.000170503
3.89874
0.000170511
3.89857
0.00017048
3.89839
0.000170484
3.89822
0.000170477
3.89804
0.00017047
3.89787
0.000170465
3.8977
0.000170459
3.89753
0.000170441
3.89736
0.000170439
3.89719
0.000170458
3.89702
0.000170456
3.89686
0.000170441
3.89669
0.00017044
3.89652
0.000170438
3.89635
0.000170437
3.89618
0.000170435
3.89601
0.000170433
3.89584
0.00017043
3.89567
0.000170427
3.8955
0.000170424
3.89533
0.000170421
3.89516
0.00017042
3.89499
0.000170404
3.89482
0.00017041
3.89464
0.000170401
3.89447
0.000170394
3.89429
0.000170387
3.89412
0.000170381
3.89395
0.000170375
3.89378
0.000170368
3.89361
0.000170319
3.89344
0.000170407
3.89327
0.000170352
3.8931
0.000170349
3.89293
0.000170347
3.89276
0.000170344
3.89259
0.000170337
3.89242
0.000170333
3.89225
0.000170346
3.89208
0.000170331
3.89191
0.000170318
3.89174
0.000170309
3.89157
0.000170579
3.8914
0.000170116
3.89124
0.000170319
3.89107
0.000170322
3.8909
0.000170319
3.89073
0.000170315
3.89056
0.000170309
3.89039
0.000170301
3.89022
0.00017029
3.89005
0.000170275
3.88988
0.000170255
3.88971
0.000170239
3.88954
0.000170207
3.88937
0.000170133
3.8892
0.000170059
3.88902
0.000169994
3.88885
0.000169882
3.88868
0.000169743
3.88851
0.000169565
3.88834
0.000169341
3.88817
0.000169057
3.888
0.000168657
3.88783
0.00016829
3.88766
0.000168112
3.8875
0.000166878
3.88733
0.000166389
3.88717
0.000165504
3.88701
0.000164451
3.88685
0.00016322
3.88669
0.000161791
3.88653
0.000160145
3.88637
0.000158266
3.88621
0.000156137
3.88606
0.000153743
3.88591
0.000151074
3.88576
0.000148119
3.88561
0.000144873
3.88547
0.000141336
3.88533
0.000137509
3.8852
0.0001334
3.88507
0.000129021
3.88494
0.000124389
3.88482
0.000119523
3.88471
0.000114451
3.8846
0.0001092
3.88449
0.000103803
3.88439
9.82947e-05
3.8843
9.2712e-05
3.88421
8.70932e-05
3.88413
8.14769e-05
3.88405
7.5902e-05
3.88398
7.04023e-05
3.88391
6.50175e-05
3.88385
5.97766e-05
3.8838
5.47129e-05
3.88375
4.98498e-05
3.8837
4.52098e-05
3.88366
4.08113e-05
3.88362
3.66694e-05
3.88359
3.27927e-05
3.88355
2.91871e-05
3.88353
2.58552e-05
3.8835
2.27948e-05
3.88348
2.00009e-05
3.88346
1.74665e-05
3.88345
1.51803e-05
3.88343
1.31306e-05
3.88342
1.13054e-05
3.88341
9.68831e-06
3.8834
8.26434e-06
3.88339
7.01777e-06
3.88338
5.93284e-06
3.88338
4.9938e-06
3.88337
4.18656e-06
3.88337
3.49532e-06
3.88336
2.90765e-06
3.88336
2.41014e-06
3.88336
1.99196e-06
3.88335
1.64207e-06
3.88335
1.35106e-06
3.88335
1.11015e-06
3.88335
9.11929e-07
3.88335
7.49691e-07
3.88334
6.17607e-07
3.88334
5.10643e-07
3.88334
4.24479e-07
3.88334
3.55434e-07
3.88334
3.00393e-07
3.88334
2.56743e-07
3.88333
2.22301e-07
3.88333
1.95269e-07
3.88333
1.74154e-07
3.88333
1.57745e-07
3.88333
1.45055e-07
3.88333
1.35289e-07
3.88333
1.27813e-07
3.88333
1.22114e-07
3.88333
1.17792e-07
3.88332
1.14529e-07
3.88332
1.12077e-07
3.88332
1.1024e-07
3.88332
1.08874e-07
3.88332
1.07857e-07
3.88332
1.07102e-07
3.88332
1.06549e-07
3.88332
1.06143e-07
3.88332
1.05843e-07
3.88332
1.05625e-07
3.88332
1.05465e-07
3.88331
1.05345e-07
3.88331
1.05259e-07
3.88331
1.05196e-07
3.88331
1.05149e-07
3.88331
1.05114e-07
3.88331
1.05085e-07
3.88331
1.05065e-07
3.88331
1.0505e-07
3.88331
1.05036e-07
3.88331
1.05027e-07
3.88331
1.05019e-07
3.88331
1.0501e-07
3.88331
1.05007e-07
3.88331
1.05003e-07
3.88331
1.04998e-07
3.88331
1.04994e-07
3.88331
1.04992e-07
3.8833
1.04988e-07
3.8833
1.04988e-07
3.8833
1.04988e-07
3.8833
1.0499e-07
3.8833
1.04996e-07
3.8833
1.04999e-07
3.8833
1.05005e-07
3.8833
1.0501e-07
3.8833
1.05018e-07
3.8833
1.05028e-07
3.8833
1.05038e-07
3.8833
1.05045e-07
3.8833
1.05054e-07
3.8833
1.05059e-07
3.8833
1.05065e-07
3.8833
1.0507e-07
3.8833
1.05072e-07
3.8833
1.05081e-07
3.8833
1.05085e-07
3.8833
1.05088e-07
3.8833
1.05092e-07
3.8833
1.05096e-07
3.8833
1.05101e-07
3.8833
1.05107e-07
3.8833
1.05116e-07
3.8833
1.05121e-07
3.8833
1.0513e-07
3.8833
1.05141e-07
3.8833
1.05152e-07
3.8833
1.05169e-07
3.8833
1.05183e-07
3.8833
1.05201e-07
3.8833
1.05214e-07
3.8833
1.0523e-07
3.88329
1.05245e-07
3.88329
1.05261e-07
3.88329
1.05278e-07
3.88329
1.05296e-07
3.88329
1.05316e-07
3.88329
1.05332e-07
3.88329
1.05347e-07
3.88329
1.05361e-07
3.88329
1.05376e-07
3.88329
1.0539e-07
3.88329
1.05405e-07
3.88329
1.05421e-07
3.88329
1.05436e-07
3.88329
1.05452e-07
3.88329
1.05469e-07
3.88329
1.05483e-07
3.88329
1.05498e-07
3.88329
1.05516e-07
3.88329
1.0553e-07
3.88329
1.05547e-07
3.88329
1.05561e-07
3.88329
1.05576e-07
3.88329
1.05592e-07
3.88329
1.05607e-07
3.88328
1.05621e-07
3.88328
1.05638e-07
3.88328
1.05652e-07
3.88328
1.05667e-07
3.88328
1.05685e-07
3.88328
1.05701e-07
3.88328
1.05712e-07
3.88328
1.05731e-07
3.88328
1.05747e-07
3.88328
1.05762e-07
3.88328
1.05776e-07
3.88328
1.05789e-07
3.88328
1.05805e-07
3.88328
1.05816e-07
3.88327
1.05832e-07
3.88327
1.05842e-07
3.88327
1.05856e-07
3.88327
1.05871e-07
3.88327
1.05883e-07
3.88327
1.05894e-07
3.88327
1.05905e-07
3.88327
1.05916e-07
3.88327
1.05929e-07
3.88327
1.0594e-07
3.88327
1.05949e-07
3.88326
1.05958e-07
3.88326
1.05969e-07
3.88326
1.05976e-07
3.88326
1.05985e-07
3.88326
1.05991e-07
3.88326
1.05998e-07
3.88326
1.06011e-07
3.88326
1.05969e-07
3.88326
1.06149e-07
3.88326
1.05967e-07
3.88325
1.06007e-07
3.88325
1.06034e-07
3.88325
1.06042e-07
3.88325
1.0612e-07
3.88325
1.05854e-07
3.88325
1.0602e-07
3.88325
1.06014e-07
3.88325
1.06695e-07
3.88325
1.05636e-07
3.88324
1.05998e-07
3.88324
1.06049e-07
3.88324
1.06054e-07
3.88324
1.06062e-07
3.88324
1.06111e-07
3.88324
1.0592e-07
3.88324
1.06131e-07
3.88324
1.06074e-07
3.88324
1.06069e-07
3.88323
1.06029e-07
3.88323
1.06098e-07
3.88323
1.06014e-07
3.88323
1.06451e-07
3.88323
1.05823e-07
3.88323
1.06082e-07
3.88323
1.061e-07
3.88323
1.06105e-07
3.88323
1.06105e-07
3.88323
1.06134e-07
3.88322
1.05967e-07
3.88322
1.06287e-07
3.88322
1.06167e-07
3.88322
1.06022e-07
3.88322
1.06136e-07
3.88322
1.06125e-07
3.88322
1.06134e-07
3.88322
1.06236e-07
3.88322
1.06083e-07
3.88322
1.05769e-07
3.88321
1.06475e-07
3.88321
1.06216e-07
3.88321
1.06193e-07
3.88321
1.06205e-07
3.88321
1.0622e-07
3.88321
1.0624e-07
3.88321
1.0626e-07
3.88321
1.06285e-07
3.88321
1.06305e-07
3.8832
1.06333e-07
3.8832
1.06367e-07
3.8832
1.06396e-07
3.8832
1.06431e-07
3.8832
1.06464e-07
3.8832
1.06505e-07
3.8832
1.06545e-07
3.88319
1.06587e-07
3.88319
1.06635e-07
3.88319
1.06684e-07
3.88319
1.06738e-07
3.88319
1.06798e-07
3.88319
1.06857e-07
3.88319
1.0692e-07
3.88318
1.06987e-07
3.88318
1.0706e-07
3.88318
1.07138e-07
3.88318
1.0722e-07
3.88317
1.07308e-07
3.88317
1.07399e-07
3.88317
1.075e-07
3.88317
1.07617e-07
3.88316
1.07753e-07
3.88316
1.07935e-07
3.88316
1.08217e-07
3.88316
1.08728e-07
3.88315
1.09781e-07
3.88315
1.12117e-07
3.88314
1.1753e-07
3.88314
1.30278e-07
3.88314
1.6054e-07
3.88313
2.32694e-07
3.88313
4.04994e-07
3.88312
8.16734e-07
3.88311
1.80092e-06
3.88311
4.15358e-06
3.88309
9.77708e-06
3.88306
2.32162e-05
3.883
5.53197e-05
3.88286
0.000131968
3.88254
0.000314831
3.88178
0.000750696
3.87999
0.00178739
3.87573
0.00424781
3.86565
0.0100699
3.84182
0.0238271
3.78509
0.0567129
3.64365
0.141433
0.381375
3.26227
5.52447
0.000213026
5.52448
0.000170388
5.52449
0.000156212
5.5245
0.000158431
5.52451
0.00015943
5.52452
0.000159329
5.52453
0.000159262
5.52454
0.000159283
5.52455
0.000159305
5.52456
0.000159317
5.52458
0.000159319
5.52459
0.000159327
5.5246
0.000159339
5.52461
0.000159346
5.52462
0.000159353
5.52463
0.00015936
5.52464
0.000159367
5.52465
0.000159374
5.52466
0.000159382
5.52467
0.000159388
5.52468
0.000159395
5.52469
0.000159402
5.5247
0.00015941
5.52471
0.000159416
5.52472
0.000159422
5.52473
0.000159429
5.52474
0.000159436
5.52476
0.000159442
5.52477
0.000159448
5.52478
0.000159455
5.52479
0.000159461
5.5248
0.000159467
5.52481
0.000159473
5.52482
0.000159476
5.52483
0.000159477
5.52484
0.000159505
5.52485
0.000159484
5.52486
0.000159496
5.52487
0.000159501
5.52488
0.000159505
5.52489
0.000159508
5.5249
0.000159514
5.52491
0.000159515
5.52491
0.000159523
5.52492
0.000159519
5.52492
0.000159527
5.52493
0.000159531
5.52494
0.000159535
5.52495
0.00015954
5.52495
0.000159545
5.52496
0.000159541
5.52498
0.000159549
5.52499
0.000159574
5.525
0.000159583
5.52502
0.000159579
5.52503
0.000159591
5.52505
0.000159599
5.52506
0.000159607
5.52507
0.000159616
5.52509
0.000159624
5.5251
0.000159632
5.52511
0.00015964
5.52512
0.000159647
5.52513
0.000159657
5.52514
0.000159664
5.52515
0.000159661
5.52515
0.000159672
5.52516
0.000159679
5.52516
0.000159681
5.52517
0.000159686
5.52518
0.00015969
5.52518
0.000159695
5.52519
0.000159698
5.5252
0.00015967
5.52521
0.00015975
5.52523
0.000159715
5.52524
0.000159721
5.52525
0.000159732
5.52526
0.000159738
5.52527
0.000159745
5.52528
0.000159748
5.52529
0.00015977
5.5253
0.000159769
5.52531
0.000159767
5.52532
0.000159776
5.52533
0.000159999
5.52535
0.000159637
5.52536
0.000159802
5.52537
0.000159821
5.52539
0.000159828
5.5254
0.000159835
5.52541
0.000159839
5.52543
0.000159841
5.52544
0.000159841
5.52545
0.000159836
5.52546
0.000159826
5.52547
0.00015982
5.52548
0.000159797
5.52549
0.000159737
5.52549
0.000159667
5.5255
0.000159616
5.5255
0.000159512
5.52551
0.000159383
5.52551
0.000159216
5.52552
0.000159002
5.52553
0.000158727
5.52554
0.000158349
5.52555
0.000157992
5.52556
0.000157758
5.52558
0.00015665
5.52559
0.000156117
5.5256
0.000155261
5.52562
0.00015423
5.52563
0.000153026
5.52564
0.000151629
5.52565
0.000150022
5.52566
0.000148189
5.52567
0.000146114
5.52568
0.000143786
5.52569
0.000141193
5.5257
0.000138328
5.5257
0.000135187
5.52571
0.00013177
5.52572
0.00012808
5.52573
0.000124127
5.52574
0.000119922
5.52574
0.000115483
5.52575
0.000110832
5.52576
0.000105993
5.52576
0.000100994
5.52577
9.58691e-05
5.52578
9.06506e-05
5.52578
8.53735e-05
5.52579
8.00749e-05
5.52579
7.47915e-05
5.5258
6.95587e-05
5.5258
6.44112e-05
5.5258
5.93816e-05
5.52581
5.44993e-05
5.52581
4.97933e-05
5.52581
4.52851e-05
5.52582
4.09946e-05
5.52582
3.69362e-05
5.52582
3.31253e-05
5.52582
2.95668e-05
5.52582
2.62651e-05
5.52582
2.3222e-05
5.52582
2.04334e-05
5.52582
1.78938e-05
5.52582
1.55956e-05
5.52582
1.35286e-05
5.52582
1.16783e-05
5.52582
1.00356e-05
5.52582
8.58355e-06
5.52582
7.30793e-06
5.52582
6.19391e-06
5.52582
5.22664e-06
5.52582
4.39132e-06
5.52581
3.67527e-06
5.52581
3.06324e-06
5.52581
2.54417e-06
5.52581
2.10588e-06
5.52581
1.73825e-06
5.52581
1.43137e-06
5.5258
1.17675e-06
5.5258
9.66444e-07
5.5258
7.93796e-07
5.5258
6.52816e-07
5.5258
5.38304e-07
5.5258
4.45777e-07
5.52579
3.71416e-07
5.52579
3.11961e-07
5.52579
2.64676e-07
5.52579
2.27257e-07
5.52579
1.97801e-07
5.52578
1.74731e-07
5.52578
1.56756e-07
5.52578
1.42814e-07
5.52578
1.32056e-07
5.52578
1.23797e-07
5.52578
1.17486e-07
5.52578
1.12685e-07
5.52577
1.09057e-07
5.52577
1.06318e-07
5.52577
1.04264e-07
5.52577
1.02732e-07
5.52577
1.01591e-07
5.52577
1.00741e-07
5.52577
1.00113e-07
5.52576
9.96542e-08
5.52576
9.93168e-08
5.52576
9.90667e-08
5.52576
9.88857e-08
5.52576
9.87511e-08
5.52576
9.86493e-08
5.52576
9.85774e-08
5.52576
9.85228e-08
5.52575
9.84837e-08
5.52575
9.84546e-08
5.52575
9.84246e-08
5.52575
9.84082e-08
5.52575
9.83946e-08
5.52575
9.83819e-08
5.52575
9.83709e-08
5.52575
9.83655e-08
5.52575
9.83528e-08
5.52575
9.83455e-08
5.52575
9.83409e-08
5.52574
9.83355e-08
5.52574
9.83337e-08
5.52574
9.83291e-08
5.52574
9.83264e-08
5.52574
9.83273e-08
5.52574
9.83309e-08
5.52574
9.833e-08
5.52574
9.83309e-08
5.52574
9.83327e-08
5.52574
9.83391e-08
5.52574
9.83455e-08
5.52574
9.83528e-08
5.52574
9.83628e-08
5.52574
9.83737e-08
5.52574
9.838e-08
5.52574
9.83864e-08
5.52574
9.83955e-08
5.52574
9.84028e-08
5.52573
9.84073e-08
5.52573
9.8411e-08
5.52573
9.84182e-08
5.52573
9.84246e-08
5.52573
9.84264e-08
5.52573
9.84346e-08
5.52573
9.8441e-08
5.52573
9.84492e-08
5.52573
9.84546e-08
5.52573
9.84637e-08
5.52573
9.84728e-08
5.52573
9.84819e-08
5.52573
9.84955e-08
5.52573
9.85074e-08
5.52573
9.85256e-08
5.52573
9.85428e-08
5.52573
9.85592e-08
5.52573
9.85747e-08
5.52573
9.85901e-08
5.52573
9.86074e-08
5.52573
9.86183e-08
5.52573
9.86374e-08
5.52573
9.86538e-08
5.52573
9.86711e-08
5.52572
9.8692e-08
5.52572
9.87029e-08
5.52572
9.87166e-08
5.52572
9.87284e-08
5.52572
9.87411e-08
5.52572
9.87529e-08
5.52572
9.87675e-08
5.52572
9.87829e-08
5.52572
9.87957e-08
5.52572
9.88093e-08
5.52572
9.88239e-08
5.52572
9.88348e-08
5.52572
9.88475e-08
5.52572
9.88639e-08
5.52572
9.88775e-08
5.52571
9.88875e-08
5.52571
9.89021e-08
5.52571
9.89157e-08
5.52571
9.89285e-08
5.52571
9.8943e-08
5.52571
9.89567e-08
5.52571
9.89703e-08
5.52571
9.8983e-08
5.52571
9.89976e-08
5.52571
9.90103e-08
5.52571
9.90212e-08
5.5257
9.90349e-08
5.5257
9.90458e-08
5.5257
9.90622e-08
5.5257
9.90713e-08
5.5257
9.90804e-08
5.5257
9.90949e-08
5.5257
9.91067e-08
5.5257
9.91186e-08
5.5257
9.91276e-08
5.52569
9.91367e-08
5.52569
9.91486e-08
5.52569
9.91595e-08
5.52569
9.91668e-08
5.52569
9.91795e-08
5.52569
9.91886e-08
5.52569
9.91922e-08
5.52568
9.92022e-08
5.52568
9.9214e-08
5.52568
9.92195e-08
5.52568
9.92313e-08
5.52568
9.92395e-08
5.52568
9.92459e-08
5.52568
9.92541e-08
5.52567
9.92632e-08
5.52567
9.9275e-08
5.52567
9.92741e-08
5.52567
9.94833e-08
5.52567
9.91477e-08
5.52567
9.92404e-08
5.52567
9.92959e-08
5.52566
9.93077e-08
5.52566
9.93696e-08
5.52566
9.91768e-08
5.52566
9.92786e-08
5.52566
9.92732e-08
5.52566
1.00046e-07
5.52565
9.88721e-08
5.52565
9.91995e-08
5.52565
9.93205e-08
5.52565
9.93296e-08
5.52565
9.93377e-08
5.52565
9.94078e-08
5.52564
9.91686e-08
5.52564
9.94014e-08
5.52564
9.93687e-08
5.52564
9.93496e-08
5.52564
9.9325e-08
5.52564
9.93568e-08
5.52563
9.93195e-08
5.52563
9.96788e-08
5.52563
9.91795e-08
5.52563
9.93577e-08
5.52563
9.93859e-08
5.52563
9.93959e-08
5.52563
9.93923e-08
5.52562
9.94178e-08
5.52562
9.93177e-08
5.52562
9.95551e-08
5.52562
9.94596e-08
5.52562
9.93587e-08
5.52562
9.94023e-08
5.52561
9.94269e-08
5.52561
9.94378e-08
5.52561
9.9546e-08
5.52561
9.93659e-08
5.52561
9.88666e-08
5.52561
9.99416e-08
5.52561
9.95597e-08
5.5256
9.94969e-08
5.5256
9.95096e-08
5.5256
9.95196e-08
5.5256
9.95378e-08
5.5256
9.95551e-08
5.5256
9.95842e-08
5.52559
9.95924e-08
5.52559
9.96233e-08
5.52559
9.96533e-08
5.52559
9.96833e-08
5.52559
9.97106e-08
5.52559
9.97397e-08
5.52558
9.97825e-08
5.52558
9.9817e-08
5.52558
9.98507e-08
5.52558
9.98953e-08
5.52557
9.99407e-08
5.52557
9.99908e-08
5.52557
1.00043e-07
5.52557
1.00095e-07
5.52557
1.00151e-07
5.52556
1.00211e-07
5.52556
1.00275e-07
5.52556
1.00348e-07
5.52555
1.00425e-07
5.52555
1.00503e-07
5.52555
1.00589e-07
5.52554
1.00693e-07
5.52554
1.00815e-07
5.52554
1.00981e-07
5.52553
1.01249e-07
5.52553
1.01748e-07
5.52552
1.0279e-07
5.52552
1.0513e-07
5.52551
1.1055e-07
5.52551
1.23365e-07
5.5255
1.53831e-07
5.5255
2.26463e-07
5.52549
3.99955e-07
5.52548
8.14586e-07
5.52547
1.80577e-06
5.52546
4.17539e-06
5.52545
9.84026e-06
5.52543
2.33813e-05
5.52539
5.57424e-05
5.5253
0.000133047
5.52511
0.000317617
5.52465
0.000757962
5.52359
0.00180758
5.52106
0.00430423
5.51506
0.0102302
5.50087
0.0242561
5.46727
0.0574103
5.38732
0.136654
5.18932
0.339417
0.874172
4.69651
7.81278
0.000176103
7.81279
0.000158684
7.8128
0.000138966
7.81282
0.00014152
7.81283
0.000143224
7.81285
0.000143112
7.81287
0.000143003
7.81288
0.000143037
7.8129
0.000143072
7.81291
0.00014309
7.81293
0.000143086
7.81294
0.000143104
7.81296
0.000143116
7.81297
0.000143123
7.81299
0.000143131
7.813
0.000143139
7.81302
0.000143146
7.81303
0.000143153
7.81305
0.00014316
7.81306
0.000143167
7.81308
0.000143173
7.8131
0.00014318
7.81311
0.000143189
7.81313
0.000143194
7.81314
0.0001432
7.81316
0.000143206
7.81317
0.000143212
7.81319
0.000143218
7.8132
0.000143224
7.81322
0.00014323
7.81323
0.000143235
7.81325
0.000143241
7.81326
0.000143247
7.81328
0.00014325
7.81329
0.000143246
7.81331
0.000143278
7.81332
0.000143259
7.81334
0.000143268
7.81335
0.000143272
7.81337
0.000143276
7.81338
0.000143279
7.8134
0.000143284
7.81341
0.000143286
7.81342
0.000143285
7.81343
0.000143295
7.81344
0.000143296
7.81345
0.0001433
7.81346
0.000143303
7.81347
0.000143308
7.81348
0.000143312
7.8135
0.00014331
7.81351
0.000143317
7.81353
0.000143337
7.81355
0.000143346
7.81358
0.000143342
7.8136
0.000143354
7.81362
0.000143361
7.81364
0.000143368
7.81366
0.000143376
7.81368
0.000143384
7.81369
0.000143391
7.81371
0.000143398
7.81372
0.000143405
7.81374
0.000143415
7.81376
0.000143421
7.81377
0.000143419
7.81378
0.000143423
7.81378
0.000143434
7.81379
0.000143434
7.8138
0.000143439
7.81382
0.000143443
7.81383
0.000143447
7.81384
0.000143449
7.81386
0.000143433
7.81388
0.000143491
7.81389
0.000143467
7.81391
0.00014347
7.81393
0.000143481
7.81394
0.000143487
7.81396
0.000143495
7.81397
0.000143494
7.81399
0.000143514
7.814
0.000143516
7.81402
0.000143514
7.81404
0.000143529
7.81406
0.000143687
7.81408
0.000143427
7.8141
0.000143538
7.81412
0.000143561
7.81414
0.000143568
7.81416
0.000143574
7.81418
0.000143578
7.8142
0.00014358
7.81422
0.00014358
7.81423
0.000143576
7.81425
0.000143568
7.81426
0.000143563
7.81428
0.000143542
7.81429
0.000143491
7.8143
0.000143422
7.81431
0.000143384
7.81432
0.000143289
7.81433
0.000143176
7.81434
0.000143028
7.81435
0.000142839
7.81437
0.000142595
7.81438
0.000142268
7.8144
0.000141952
7.81442
0.000141699
7.81444
0.000140788
7.81446
0.000140272
7.81448
0.00013952
7.8145
0.000138604
7.81451
0.000137534
7.81453
0.000136292
7.81455
0.000134863
7.81456
0.000133232
7.81458
0.000131385
7.81459
0.000129311
7.8146
0.000127001
7.81461
0.000124446
7.81463
0.000121645
7.81464
0.000118596
7.81465
0.000115302
7.81466
0.000111771
7.81467
0.000108013
7.81468
0.000104045
7.81469
9.98853e-05
7.81469
9.55527e-05
7.8147
9.10765e-05
7.81471
8.64855e-05
7.81472
8.18081e-05
7.81472
7.70751e-05
7.81473
7.23203e-05
7.81473
6.75767e-05
7.81474
6.28752e-05
7.81474
5.82486e-05
7.81474
5.37245e-05
7.81474
4.9331e-05
7.81475
4.50931e-05
7.81475
4.10312e-05
7.81475
3.7162e-05
7.81475
3.35017e-05
7.81475
3.0061e-05
7.81475
2.68464e-05
7.81475
2.38623e-05
7.81475
2.11095e-05
7.81475
1.85854e-05
7.81475
1.62853e-05
7.81475
1.42023e-05
7.81474
1.23274e-05
7.81474
1.06482e-05
7.81474
9.15605e-06
7.81474
7.83621e-06
7.81474
6.6759e-06
7.81473
5.66182e-06
7.81473
4.78067e-06
7.81473
4.01923e-06
7.81473
3.36579e-06
7.81472
2.80707e-06
7.81472
2.33273e-06
7.81472
1.93195e-06
7.81472
1.59548e-06
7.81471
1.31438e-06
7.81471
1.08097e-06
7.81471
8.88028e-07
7.81471
7.29497e-07
7.8147
5.99939e-07
7.8147
4.94611e-07
7.8147
4.09434e-07
7.8147
3.40919e-07
7.81469
2.86093e-07
7.81469
2.42448e-07
7.81469
2.0788e-07
7.81469
1.80648e-07
7.81468
1.59296e-07
7.81468
1.42644e-07
7.81468
1.29719e-07
7.81468
1.19733e-07
7.81467
1.12061e-07
7.81467
1.06195e-07
7.81467
1.01726e-07
7.81467
9.83459e-08
7.81467
9.57921e-08
7.81466
9.38767e-08
7.81466
9.24438e-08
7.81466
9.13788e-08
7.81466
9.05839e-08
7.81466
8.99959e-08
7.81465
8.95661e-08
7.81465
8.92487e-08
7.81465
8.90136e-08
7.81465
8.88435e-08
7.81465
8.87171e-08
7.81465
8.86225e-08
7.81464
8.85552e-08
7.81464
8.85047e-08
7.81464
8.84688e-08
7.81464
8.84397e-08
7.81464
8.84156e-08
7.81464
8.8397e-08
7.81464
8.83842e-08
7.81463
8.83729e-08
7.81463
8.83629e-08
7.81463
8.83565e-08
7.81463
8.83465e-08
7.81463
8.83401e-08
7.81463
8.8336e-08
7.81463
8.8331e-08
7.81463
8.83279e-08
7.81462
8.8326e-08
7.81462
8.83238e-08
7.81462
8.83238e-08
7.81462
8.83269e-08
7.81462
8.8326e-08
7.81462
8.83265e-08
7.81462
8.83288e-08
7.81462
8.83319e-08
7.81462
8.83365e-08
7.81462
8.83438e-08
7.81462
8.83556e-08
7.81462
8.83661e-08
7.81462
8.83701e-08
7.81461
8.83761e-08
7.81461
8.83815e-08
7.81461
8.83902e-08
7.81461
8.83942e-08
7.81461
8.83983e-08
7.81461
8.84038e-08
7.81461
8.84102e-08
7.81461
8.84143e-08
7.81461
8.84206e-08
7.81461
8.84238e-08
7.81461
8.84315e-08
7.81461
8.8437e-08
7.81461
8.84461e-08
7.81461
8.84538e-08
7.81461
8.84606e-08
7.81461
8.84747e-08
7.81461
8.84852e-08
7.8146
8.84993e-08
7.8146
8.85148e-08
7.8146
8.85298e-08
7.8146
8.85443e-08
7.8146
8.85611e-08
7.8146
8.85739e-08
7.8146
8.85861e-08
7.8146
8.86016e-08
7.8146
8.86162e-08
7.8146
8.86316e-08
7.8146
8.86503e-08
7.8146
8.86598e-08
7.8146
8.86707e-08
7.8146
8.86844e-08
7.8146
8.86967e-08
7.81459
8.87067e-08
7.81459
8.87212e-08
7.81459
8.87321e-08
7.81459
8.87426e-08
7.81459
8.87549e-08
7.81459
8.87676e-08
7.81459
8.87794e-08
7.81459
8.87885e-08
7.81459
8.88044e-08
7.81459
8.88176e-08
7.81458
8.88267e-08
7.81458
8.8839e-08
7.81458
8.88499e-08
7.81458
8.88613e-08
7.81458
8.88763e-08
7.81458
8.88872e-08
7.81458
8.89027e-08
7.81458
8.89131e-08
7.81457
8.89254e-08
7.81457
8.89368e-08
7.81457
8.89481e-08
7.81457
8.8959e-08
7.81457
8.89686e-08
7.81457
8.89831e-08
7.81457
8.89913e-08
7.81456
8.90004e-08
7.81456
8.90136e-08
7.81456
8.90232e-08
7.81456
8.90332e-08
7.81456
8.90409e-08
7.81456
8.90495e-08
7.81455
8.90595e-08
7.81455
8.90705e-08
7.81455
8.90764e-08
7.81455
8.90868e-08
7.81455
8.90959e-08
7.81454
8.91009e-08
7.81454
8.91091e-08
7.81454
8.91187e-08
7.81454
8.9125e-08
7.81454
8.91337e-08
7.81453
8.91418e-08
7.81453
8.91487e-08
7.81453
8.91541e-08
7.81453
8.91641e-08
7.81452
8.91778e-08
7.81452
8.92296e-08
7.81452
8.94966e-08
7.81452
8.89145e-08
7.81452
8.90959e-08
7.81451
8.91901e-08
7.81451
8.92032e-08
7.81451
8.92437e-08
7.81451
8.91523e-08
7.8145
8.9155e-08
7.8145
8.91428e-08
7.8145
9.0105e-08
7.8145
8.86785e-08
7.8145
8.90082e-08
7.81449
8.92101e-08
7.81449
8.92264e-08
7.81449
8.92373e-08
7.81449
8.93297e-08
7.81448
8.90063e-08
7.81448
8.92992e-08
7.81448
8.92778e-08
7.81448
8.92419e-08
7.81448
8.92333e-08
7.81447
8.92192e-08
7.81447
8.92283e-08
7.81447
8.94943e-08
7.81447
8.91528e-08
7.81446
8.92337e-08
7.81446
8.92696e-08
7.81446
8.92833e-08
7.81446
8.92737e-08
7.81446
8.92869e-08
7.81445
8.92892e-08
7.81445
8.93983e-08
7.81445
8.93297e-08
7.81445
8.92819e-08
7.81445
8.92455e-08
7.81444
8.93078e-08
7.81444
8.93219e-08
7.81444
8.94388e-08
7.81444
8.92496e-08
7.81443
8.84374e-08
7.81443
9.00586e-08
7.81443
8.94897e-08
7.81443
8.93747e-08
7.81443
8.93906e-08
7.81442
8.93951e-08
7.81442
8.94147e-08
7.81442
8.9427e-08
7.81442
8.94561e-08
7.81441
8.94552e-08
7.81441
8.94825e-08
7.81441
8.95152e-08
7.81441
8.95407e-08
7.8144
8.95675e-08
7.8144
8.95902e-08
7.8144
8.96334e-08
7.8144
8.96589e-08
7.81439
8.96885e-08
7.81439
8.97321e-08
7.81439
8.97726e-08
7.81438
8.98176e-08
7.81438
8.98654e-08
7.81438
8.9914e-08
7.81437
8.99613e-08
7.81437
9.00136e-08
7.81436
9.00727e-08
7.81436
9.014e-08
7.81436
9.02091e-08
7.81435
9.02805e-08
7.81435
9.03633e-08
7.81434
9.04661e-08
7.81434
9.0602e-08
7.81433
9.08126e-08
7.81433
9.12005e-08
7.81432
9.19995e-08
7.81431
9.3778e-08
7.81431
9.78903e-08
7.8143
1.07555e-07
7.81429
1.3056e-07
7.81428
1.85413e-07
7.81427
3.16358e-07
7.81427
6.29322e-07
7.81426
1.37747e-06
7.81424
3.16614e-06
7.81423
7.44254e-06
7.81421
1.76661e-05
7.81418
4.21043e-05
7.81412
0.000100509
7.81401
0.000240031
7.81374
0.000573152
7.81311
0.00136792
7.81164
0.00326247
7.80816
0.00776946
7.79991
0.0184688
7.78035
0.0437977
7.73407
0.103668
7.62423
0.246476
7.35597
0.607659
1.5036
6.72652
34.4872
7.15677e-05
34.4873
8.15907e-05
34.4873
6.95261e-05
34.4874
6.98132e-05
34.4875
7.159e-05
34.4875
7.18017e-05
34.4876
7.16523e-05
34.4877
7.16309e-05
34.4877
7.16463e-05
34.4878
7.16367e-05
34.4879
7.1615e-05
34.4879
7.16216e-05
34.488
7.16141e-05
34.4881
7.16093e-05
34.4881
7.16066e-05
34.4882
7.16049e-05
34.4883
7.16034e-05
34.4883
7.16032e-05
34.4884
7.16035e-05
34.4885
7.16043e-05
34.4886
7.1606e-05
34.4886
7.16043e-05
34.4887
7.16073e-05
34.4888
7.16094e-05
34.4888
7.16108e-05
34.4889
7.16126e-05
34.489
7.16147e-05
34.489
7.16167e-05
34.4891
7.16188e-05
34.4892
7.1621e-05
34.4892
7.16232e-05
34.4893
7.16254e-05
34.4894
7.16275e-05
34.4894
7.16288e-05
34.4895
7.16238e-05
34.4896
7.16429e-05
34.4896
7.16346e-05
34.4897
7.16361e-05
34.4898
7.16384e-05
34.4898
7.16399e-05
34.4899
7.16414e-05
34.49
7.16437e-05
34.49
7.16449e-05
34.4901
7.16378e-05
34.4901
7.16525e-05
34.4901
7.16498e-05
34.4902
7.16504e-05
34.4902
7.16522e-05
34.4903
7.16542e-05
34.4903
7.1656e-05
34.4904
7.16571e-05
34.4905
7.166e-05
34.4905
7.16674e-05
34.4906
7.16721e-05
34.4907
7.16703e-05
34.4908
7.16771e-05
34.4909
7.16806e-05
34.491
7.16843e-05
34.4911
7.16883e-05
34.4912
7.16921e-05
34.4913
7.16958e-05
34.4913
7.16993e-05
34.4914
7.1703e-05
34.4915
7.17089e-05
34.4915
7.1711e-05
34.4916
7.17104e-05
34.4916
7.17079e-05
34.4917
7.17172e-05
34.4917
7.1717e-05
34.4917
7.17194e-05
34.4918
7.17216e-05
34.4919
7.17234e-05
34.4919
7.17243e-05
34.492
7.17228e-05
34.4921
7.17395e-05
34.4921
7.17335e-05
34.4922
7.1734e-05
34.4923
7.17402e-05
34.4924
7.17435e-05
34.4924
7.17485e-05
34.4925
7.17463e-05
34.4926
7.17552e-05
34.4926
7.17589e-05
34.4927
7.17586e-05
34.4928
7.17697e-05
34.4929
7.18115e-05
34.493
7.17415e-05
34.4931
7.17656e-05
34.4931
7.17792e-05
34.4932
7.17836e-05
34.4933
7.17868e-05
34.4934
7.17892e-05
34.4935
7.17905e-05
34.4936
7.17905e-05
34.4936
7.1789e-05
34.4937
7.17861e-05
34.4938
7.17839e-05
34.4938
7.17742e-05
34.4939
7.17512e-05
34.4939
7.17131e-05
34.494
7.16993e-05
34.494
7.16533e-05
34.4941
7.15994e-05
34.4941
7.15291e-05
34.4942
7.14378e-05
34.4942
7.13207e-05
34.4943
7.11712e-05
34.4944
7.1018e-05
34.4945
7.08537e-05
34.4945
7.04816e-05
34.4946
7.01938e-05
34.4947
6.98342e-05
34.4948
6.93911e-05
34.4949
6.88712e-05
34.495
6.8267e-05
34.495
6.75705e-05
34.4951
6.67745e-05
34.4952
6.5872e-05
34.4952
6.48572e-05
34.4953
6.37249e-05
34.4953
6.24715e-05
34.4954
6.10948e-05
34.4954
5.95943e-05
34.4955
5.79712e-05
34.4955
5.62288e-05
34.4956
5.43723e-05
34.4956
5.24088e-05
34.4957
5.03475e-05
34.4957
4.81983e-05
34.4957
4.59748e-05
34.4958
4.36905e-05
34.4958
4.13589e-05
34.4958
3.89991e-05
34.4958
3.66235e-05
34.4959
3.42494e-05
34.4959
3.18961e-05
34.4959
2.95754e-05
34.4959
2.73033e-05
34.4959
2.50929e-05
34.4959
2.29591e-05
34.496
2.09109e-05
34.496
1.89568e-05
34.496
1.71066e-05
34.496
1.53645e-05
34.496
1.3735e-05
34.496
1.22202e-05
34.496
1.08212e-05
34.496
9.53664e-06
34.496
8.36465e-06
34.496
7.30197e-06
34.4959
6.34398e-06
34.4959
5.48542e-06
34.4959
4.72112e-06
34.4959
4.04441e-06
34.4959
3.44875e-06
34.4959
2.92754e-06
34.4959
2.4741e-06
34.4959
2.08187e-06
34.4959
1.74469e-06
34.4959
1.45624e-06
34.4959
1.21099e-06
34.4958
1.00356e-06
34.4958
8.29213e-07
34.4958
6.83395e-07
34.4958
5.62177e-07
34.4958
4.61883e-07
34.4958
3.79377e-07
34.4958
3.11882e-07
34.4958
2.56953e-07
34.4957
2.12489e-07
34.4957
1.76685e-07
34.4957
1.48007e-07
34.4957
1.25156e-07
34.4957
1.07041e-07
34.4957
9.27557e-08
34.4957
8.15451e-08
34.4957
7.27935e-08
34.4957
6.59957e-08
34.4957
6.07395e-08
34.4956
5.66974e-08
34.4956
5.36047e-08
34.4956
5.12468e-08
34.4956
4.94617e-08
34.4956
4.81114e-08
34.4956
4.70993e-08
34.4956
4.63422e-08
34.4956
4.57787e-08
34.4956
4.5357e-08
34.4956
4.50459e-08
34.4956
4.48179e-08
34.4955
4.46485e-08
34.4955
4.45248e-08
34.4955
4.44343e-08
34.4955
4.43679e-08
34.4955
4.43174e-08
34.4955
4.42822e-08
34.4955
4.42567e-08
34.4955
4.42371e-08
34.4955
4.42217e-08
34.4955
4.42101e-08
34.4955
4.42001e-08
34.4955
4.41935e-08
34.4955
4.41869e-08
34.4955
4.41817e-08
34.4955
4.41776e-08
34.4954
4.41742e-08
34.4954
4.4171e-08
34.4954
4.41685e-08
34.4954
4.41657e-08
34.4954
4.41644e-08
34.4954
4.41632e-08
34.4954
4.41623e-08
34.4954
4.41612e-08
34.4954
4.41628e-08
34.4954
4.41632e-08
34.4954
4.41626e-08
34.4954
4.41635e-08
34.4954
4.41662e-08
34.4954
4.41685e-08
34.4954
4.41723e-08
34.4954
4.41783e-08
34.4954
4.41833e-08
34.4954
4.41851e-08
34.4954
4.41878e-08
34.4954
4.41905e-08
34.4954
4.41953e-08
34.4954
4.41976e-08
34.4954
4.42003e-08
34.4954
4.42019e-08
34.4954
4.42049e-08
34.4954
4.42076e-08
34.4954
4.4211e-08
34.4954
4.42119e-08
34.4954
4.42158e-08
34.4953
4.42185e-08
34.4953
4.42226e-08
34.4953
4.42267e-08
34.4953
4.42308e-08
34.4953
4.42369e-08
34.4953
4.42431e-08
34.4953
4.42494e-08
34.4953
4.42576e-08
34.4953
4.42651e-08
34.4953
4.42731e-08
34.4953
4.42803e-08
34.4953
4.42874e-08
34.4953
4.42938e-08
34.4953
4.43015e-08
34.4953
4.43079e-08
34.4953
4.43154e-08
34.4953
4.4324e-08
34.4953
4.43299e-08
34.4953
4.43363e-08
34.4953
4.4342e-08
34.4953
4.43476e-08
34.4953
4.43529e-08
34.4953
4.43597e-08
34.4953
4.43654e-08
34.4953
4.43713e-08
34.4953
4.43779e-08
34.4953
4.43849e-08
34.4953
4.43899e-08
34.4953
4.4394e-08
34.4953
4.44011e-08
34.4952
4.44084e-08
34.4952
4.44131e-08
34.4952
4.4419e-08
34.4952
4.44236e-08
34.4952
4.44295e-08
34.4952
4.44372e-08
34.4952
4.44438e-08
34.4952
4.44509e-08
34.4952
4.44563e-08
34.4952
4.44625e-08
34.4952
4.44684e-08
34.4952