/*--------------------------------*- C++ -*----------------------------------*\
| =========                 |                                                 |
| \\      /  F ield         | OpenFOAM: The Open Source CFD Toolbox           |
|  \\    /   O peration     | Version:  3.0.x                                 |
|   \\  /    A nd           | Web:      www.OpenFOAM.org                      |
|    \\/     M anipulation  |                                                 |
\*---------------------------------------------------------------------------*/
FoamFile
{
    version     2.0;
    format      ascii;
    class       volVectorField;
    location    "0.003";
    object      U;
}
// * * * * * * * * * * * * * * * * * * * * * * * * * * * * * * * * * * * * * //

dimensions      [0 1 -1 0 0 0 0];

internalField   nonuniform List<vector> 
1000
(
(57.9 0 0)
(57.9 0 0)
(57.9 0 0)
(57.9 0 0)
(57.9 0 0)
(57.9 0 0)
(57.9 0 0)
(57.9 0 0)
(57.9 0 0)
(57.9 0 0)
(57.9 0 0)
(57.9 0 0)
(57.9 0 0)
(57.9 0 0)
(57.9 0 0)
(57.9 0 0)
(57.9 0 0)
(57.9 0 0)
(57.9 0 0)
(57.9 0 0)
(57.9 0 0)
(57.9 0 0)
(57.9 0 0)
(57.9 0 0)
(57.9 0 0)
(57.9 0 0)
(57.9 0 0)
(57.9 0 0)
(57.9 0 0)
(57.9 0 0)
(57.9 0 0)
(57.9 0 0)
(57.9 0 0)
(57.9 0 0)
(57.9 0 0)
(57.9 0 0)
(57.9 0 0)
(57.9 0 0)
(57.9 0 0)
(57.9 0 0)
(57.9 0 0)
(57.9 0 0)
(57.9 0 0)
(57.9 0 0)
(57.9 0 0)
(57.9 0 0)
(57.9 0 0)
(57.9 0 0)
(57.9 0 0)
(57.9 0 0)
(57.9 0 0)
(57.9 0 0)
(57.9 0 0)
(57.9 0 0)
(57.9 0 0)
(57.9 0 0)
(57.9 0 0)
(57.9 0 0)
(57.9 0 0)
(57.9 0 0)
(57.9 0 0)
(57.9 0 0)
(57.9 0 0)
(57.9 0 0)
(57.9 0 0)
(57.9 0 0)
(57.9 0 0)
(57.9 0 0)
(57.9 0 0)
(57.9 0 0)
(57.9 0 0)
(57.9 0 0)
(57.9 0 0)
(57.9 0 0)
(57.9 0 0)
(57.9 0 0)
(57.9 0 0)
(57.9 0 0)
(57.9 0 0)
(57.9 0 0)
(57.9 0 0)
(57.9 0 0)
(57.9 0 0)
(57.9 0 0)
(57.9 0 0)
(57.9 0 0)
(57.9 0 0)
(57.9 0 0)
(57.9 0 0)
(57.9 0 0)
(57.9 0 0)
(57.9 0 0)
(57.9 0 0)
(57.9 0 0)
(57.9 0 0)
(57.9 0 0)
(57.9 0 0)
(57.9 0 0)
(57.9 0 0)
(57.9 0 0)
(57.9 0 0)
(57.9 0 0)
(57.9 0 0)
(57.9 0 0)
(57.9 0 0)
(57.9 0 0)
(57.9 0 0)
(57.9 0 0)
(57.9 0 0)
(57.9 0 0)
(57.9 0 0)
(57.9 0 0)
(57.9 0 0)
(57.9 0 0)
(57.9 0 0)
(57.9 0 0)
(57.9 0 0)
(57.9 0 0)
(57.9 0 0)
(57.9 0 0)
(57.9 0 0)
(57.9 0 0)
(57.9 0 0)
(57.9 0 0)
(57.9 0 0)
(57.9 0 0)
(57.9 0 0)
(57.9 0 0)
(57.9 0 0)
(57.9 0 0)
(57.9 0 0)
(57.9 0 0)
(57.9 0 0)
(57.9 0 0)
(57.9 0 0)
(57.9 0 0)
(57.9 0 0)
(57.9 0 0)
(57.9 0 0)
(57.9 0 0)
(57.9 0 0)
(57.9 0 0)
(57.9 0 0)
(57.9 0 0)
(57.9 0 0)
(57.9 0 0)
(57.9 0 0)
(57.9 0 0)
(57.9 0 0)
(57.9 0 0)
(57.9 0 0)
(57.9 0 0)
(57.9 0 0)
(57.9 0 0)
(57.9 0 0)
(57.9 0 0)
(57.9 0 0)
(57.9 0 0)
(57.9 0 0)
(57.9 0 0)
(57.9 0 0)
(57.9 0 0)
(57.9 0 0)
(57.9 0 0)
(57.9 0 0)
(57.9 0 0)
(57.9 0 0)
(57.9 0 0)
(57.9 0 0)
(57.9 0 0)
(57.9 0 0)
(57.9 0 0)
(57.9 0 0)
(57.9 0 0)
(57.9 0 0)
(57.9 0 0)
(57.9 0 0)
(57.9 0 0)
(57.9 0 0)
(57.9 0 0)
(57.9 0 0)
(57.9 0 0)
(57.9 0 0)
(57.9 0 0)
(57.9 0 0)
(57.9 0 0)
(57.9 0 0)
(57.9 0 0)
(57.9 0 0)
(57.9 0 0)
(57.9 0 0)
(57.9 0 0)
(57.9 0 0)
(57.9 0 0)
(57.9 0 0)
(57.9 0 0)
(57.9 0 0)
(57.9 0 0)
(57.9 0 0)
(57.9 0 0)
(57.9 0 0)
(57.9 0 0)
(57.9 0 0)
(57.9 0 0)
(57.9 0 0)
(57.9 0 0)
(57.9 0 0)
(57.9 0 0)
(57.9 0 0)
(57.9 0 0)
(57.9 0 0)
(57.9 0 0)
(57.9 0 0)
(57.9 0 0)
(57.9 0 0)
(57.9 0 0)
(57.9 0 0)
(57.9 0 0)
(57.9 0 0)
(57.9 0 0)
(57.9 0 0)
(57.9 0 0)
(57.9 0 0)
(57.9 0 0)
(57.9 0 0)
(57.9 0 0)
(57.9 0 0)
(57.9 0 0)
(57.9 0 0)
(57.9 0 0)
(57.9 0 0)
(57.9 0 0)
(57.9 0 0)
(57.9 0 0)
(57.9 0 0)
(57.9 0 0)
(57.9 0 0)
(57.9 0 0)
(57.9 0 0)
(57.9 0 0)
(57.9 0 0)
(57.9 0 0)
(57.9 0 0)
(57.9 0 0)
(57.9 0 0)
(57.9 0 0)
(57.9 0 0)
(57.9 0 0)
(57.9 0 0)
(57.9 0 0)
(57.9 0 0)
(57.9 0 0)
(57.9 0 0)
(57.9 0 0)
(57.9 0 0)
(57.9 0 0)
(57.9 0 0)
(57.9 0 0)
(57.9 0 0)
(57.9 0 0)
(57.9 0 0)
(57.9 0 0)
(57.9 0 0)
(57.9 0 0)
(57.9 0 0)
(57.9 0 0)
(57.9 0 0)
(57.9 0 0)
(57.9 0 0)
(57.9 0 0)
(57.9 0 0)
(57.9 0 0)
(57.9 0 0)
(57.9 0 0)
(57.9 0 0)
(57.9 0 0)
(57.9 0 0)
(57.9 0 0)
(57.9 0 0)
(57.9 0 0)
(57.9 0 0)
(57.9 0 0)
(57.9 0 0)
(57.9 0 0)
(57.9 0 0)
(57.9 0 0)
(57.9 0 0)
(57.9 0 0)
(57.9 0 0)
(57.9 0 0)
(57.9 0 0)
(57.9 0 0)
(57.9 0 0)
(57.9 0 0)
(57.9 0 0)
(57.9 0 0)
(57.9 0 0)
(57.9 0 0)
(57.9 0 0)
(57.9 0 0)
(57.9 0 0)
(57.9 0 0)
(57.9 0 0)
(57.9 0 0)
(57.9 0 0)
(57.9 0 0)
(57.9 0 0)
(57.9 0 0)
(57.9 0 0)
(57.9 0 0)
(57.9 0 0)
(57.9 0 0)
(57.9 0 0)
(57.9 0 0)
(57.9 0 0)
(57.9 0 0)
(57.9 0 0)
(57.9 0 0)
(57.9 0 0)
(57.9 0 0)
(57.9 0 0)
(57.9 0 0)
(57.9 0 0)
(57.9 0 0)
(57.9 0 0)
(57.9 0 0)
(57.9 0 0)
(57.9 0 0)
(57.9 0 0)
(57.9 0 0)
(57.9 0 0)
(57.9 0 0)
(57.9 0 0)
(57.9 0 0)
(57.9 0 0)
(57.9 0 0)
(57.9 0 0)
(57.9 0 0)
(57.9 0 0)
(57.9 0 0)
(57.9 0 0)
(57.9 0 0)
(57.9 0 0)
(57.9 0 0)
(57.9 0 0)
(57.9 0 0)
(57.9 0 0)
(57.9 0 0)
(57.9 0 0)
(57.9 0 0)
(57.9 0 0)
(57.9 0 0)
(57.9 0 0)
(57.9 0 0)
(57.9 0 0)
(57.9 0 0)
(57.9 0 0)
(57.9 0 0)
(57.9 0 0)
(57.9 0 0)
(57.9 0 0)
(57.9 0 0)
(57.9 0 0)
(57.9 0 0)
(57.9 0 0)
(57.9 0 0)
(57.9 0 0)
(57.9 0 0)
(57.9 0 0)
(57.9 0 0)
(57.9 0 0)
(57.9 0 0)
(57.9 0 0)
(57.9 0 0)
(57.9 0 0)
(57.9 0 0)
(57.9 0 0)
(57.9 0 0)
(57.9 0 0)
(57.9 0 0)
(57.9 0 0)
(57.9 0 0)
(57.9 0 0)
(57.9 0 0)
(57.9 0 0)
(57.9 0 0)
(57.9 0 0)
(57.9 0 0)
(57.9 0 0)
(57.9 0 0)
(57.9 0 0)
(57.9 0 0)
(57.9 0 0)
(57.9 0 0)
(57.9 0 0)
(57.9 0 0)
(57.9 0 0)
(57.9 0 0)
(57.9 0 0)
(57.9 0 0)
(57.9 0 0)
(57.9 0 0)
(57.9 0 0)
(57.9 0 0)
(57.9 0 0)
(57.9 0 0)
(57.9 0 0)
(57.9 0 0)
(57.9 0 0)
(57.9 0 0)
(57.9 0 0)
(57.9 0 0)
(57.9 0 0)
(57.9 0 0)
(57.9 0 0)
(57.9 0 0)
(57.9 0 0)
(57.9 0 0)
(57.9 0 0)
(57.9 0 0)
(57.9 0 0)
(57.9 0 0)
(57.9 0 0)
(57.9 0 0)
(57.9 0 0)
(57.9 0 0)
(57.9 0 0)
(57.9 0 0)
(57.9 0 0)
(57.9 0 0)
(57.9 0 0)
(57.9 0 0)
(57.9 0 0)
(57.9 0 0)
(57.9 0 0)
(57.9 0 0)
(57.9 0 0)
(57.9 0 0)
(57.9 0 0)
(57.9 0 0)
(57.9 0 0)
(57.9 0 0)
(57.9 0 0)
(57.9 0 0)
(57.9 0 0)
(57.9 0 0)
(57.9 0 0)
(57.9 0 0)
(57.9 0 0)
(57.9 0 0)
(57.9 0 0)
(57.9 0 0)
(57.9 0 0)
(57.9 0 0)
(57.9 0 0)
(57.9 0 0)
(57.9 0 0)
(57.9 0 0)
(57.9 0 0)
(57.9 0 0)
(57.9 0 0)
(57.9 0 0)
(57.9 0 0)
(57.9 0 0)
(57.9 0 0)
(57.9 0 0)
(57.9 0 0)
(57.9 0 0)
(57.9 0 0)
(57.9 0 0)
(57.9 0 0)
(57.9 0 0)
(57.9 0 0)
(57.9 0 0)
(57.9 0 0)
(57.9 0 0)
(57.9 0 0)
(57.9 0 0)
(57.9 0 0)
(57.9 0 0)
(57.9 0 0)
(57.9 0 0)
(57.9 0 0)
(57.9 0 0)
(57.9 0 0)
(57.9 0 0)
(57.9 0 0)
(57.9 0 0)
(57.9 0 0)
(57.9 0 0)
(57.9 0 0)
(57.9 0 0)
(57.9 0 0)
(57.9 0 0)
(57.9 0 0)
(57.9 0 0)
(57.9 0 0)
(57.9 0 0)
(57.9 0 0)
(57.9 0 0)
(57.9 0 0)
(57.9 0 0)
(57.9 0 0)
(57.9 0 0)
(57.9 0 0)
(57.9 0 0)
(57.9 0 0)
(57.9 0 0)
(57.9 0 0)
(57.9 0 0)
(57.9 0 0)
(57.9 0 0)
(57.9 0 0)
(57.9 0 0)
(57.9 0 0)
(57.9 0 0)
(57.9 0 0)
(57.9 0 0)
(57.9 0 0)
(57.9 0 0)
(57.9 0 0)
(57.9 0 0)
(57.9 0 0)
(57.9 0 0)
(57.9 0 0)
(57.9 0 0)
(57.9 0 0)
(57.9 0 0)
(57.9 0 0)
(57.9 0 0)
(57.9 0 0)
(57.9 0 0)
(57.9 0 0)
(57.9 0 0)
(57.9 0 0)
(57.9 0 0)
(57.9 0 0)
(57.9 0 0)
(57.9 0 0)
(57.9 0 0)
(57.9 0 0)
(57.9 0 0)
(57.9 0 0)
(57.9 0 0)
(57.9 0 0)
(57.9 0 0)
(57.9 0 0)
(57.9 0 0)
(57.9 0 0)
(57.9 0 0)
(57.9 0 0)
(57.9 0 0)
(57.9 0 0)
(57.9 0 0)
(57.9 0 0)
(57.9 0 0)
(57.9 0 0)
(57.9 0 0)
(57.9 0 0)
(57.9 0 0)
(57.9 0 0)
(57.9 0 0)
(57.9 0 0)
(57.9 0 0)
(57.9 0 0)
(57.9 0 0)
(57.9 0 0)
(57.9 0 0)
(57.9 0 0)
(57.9 0 0)
(57.9 0 0)
(57.9 0 0)
(57.9 0 0)
(57.9 0 0)
(57.9 0 0)
(57.9 0 0)
(57.9 0 0)
(57.9 0 0)
(57.9 0 0)
(57.9 0 0)
(57.9 0 0)
(57.9 0 0)
(57.9 0 0)
(57.9 0 0)
(57.9 0 0)
(57.9 0 0)
(57.9 0 0)
(57.9 0 0)
(57.9 0 0)
(57.9 0 0)
(57.9 0 0)
(57.9 0 0)
(57.9 0 0)
(57.9 0 0)
(57.9 0 0)
(57.9 0 0)
(57.9 0 0)
(57.9 0 0)
(57.9 0 0)
(57.9 0 0)
(57.9 0 0)
(57.9 0 0)
(57.9 0 0)
(57.9 0 0)
(57.9 0 0)
(57.9 0 0)
(57.9 0 0)
(57.9 0 0)
(57.9 0 0)
(57.9 0 0)
(57.9 0 0)
(57.9 0 0)
(57.9 0 0)
(57.9 0 0)
(57.9 0 0)
(57.9 0 0)
(57.9 0 0)
(57.9 0 0)
(57.9 0 0)
(57.9 0 0)
(57.9 0 0)
(57.9 0 0)
(57.9 0 0)
(57.9 0 0)
(57.9 0 0)
(57.9 0 0)
(57.9 0 0)
(57.9 0 0)
(57.9 0 0)
(57.9 0 0)
(57.9 0 0)
(57.9 0 0)
(57.9 0 0)
(57.9 0 0)
(57.9 0 0)
(57.9 0 0)
(57.9 0 0)
(57.9 0 0)
(57.9 0 0)
(57.9 0 0)
(57.9 0 0)
(57.9 0 0)
(57.9 0 0)
(57.9 0 0)
(57.9 0 0)
(57.9 0 0)
(57.9 0 0)
(57.9 0 0)
(57.9 0 0)
(57.9 0 0)
(57.9 0 0)
(57.9 0 0)
(57.9 0 0)
(57.9 0 0)
(57.9 0 0)
(57.9 0 0)
(57.9 0 0)
(57.9 0 0)
(57.9 0 0)
(57.9 0 0)
(57.9 0 0)
(57.9 0 0)
(57.9 0 0)
(57.9 0 0)
(57.9 0 0)
(57.9 0 0)
(57.9 0 0)
(57.9 0 0)
(57.9 0 0)
(57.9 0 0)
(57.9 0 0)
(57.9 0 0)
(57.9 0 0)
(57.9 0 0)
(57.9 0 0)
(57.9 0 0)
(57.9 0 0)
(57.9 0 0)
(57.9 0 0)
(57.9 0 0)
(57.9 0 0)
(57.9 0 0)
(57.9 0 0)
(57.9 0 0)
(57.9 0 0)
(57.9 0 0)
(57.9 0 0)
(57.9 0 0)
(57.9 0 0)
(57.9 0 0)
(57.9 0 0)
(57.9 0 0)
(57.9 0 0)
(57.9 0 0)
(57.9 0 0)
(57.9 0 0)
(57.9 0 0)
(57.9 0 0)
(57.9 0 0)
(57.9 0 0)
(57.9 0 0)
(57.9 0 0)
(57.9 0 0)
(57.9 0 0)
(57.9 0 0)
(57.9 0 0)
(57.9 0 0)
(57.9 0 0)
(57.9 0 0)
(57.9 0 0)
(57.9 0 0)
(57.9 0 0)
(57.9 0 0)
(57.9 0 0)
(57.9 0 0)
(57.9 0 0)
(57.9 0 0)
(57.9 0 0)
(57.9 0 0)
(57.9 0 0)
(57.9 0 0)
(57.9 0 0)
(57.9 0 0)
(57.9 0 0)
(57.9 0 0)
(57.9 0 0)
(57.9 0 0)
(57.9 0 0)
(57.9 0 0)
(57.9 0 0)
(57.9 0 0)
(57.9 0 0)
(57.9 0 0)
(57.9 0 0)
(57.9 0 0)
(57.9 0 0)
(57.9 0 0)
(57.9 0 0)
(57.9 0 0)
(57.9 0 0)
(57.9 0 0)
(57.9 0 0)
(57.9 0 0)
(57.9 0 0)
(57.9 0 0)
(57.9 0 0)
(57.9 0 0)
(57.9 0 0)
(57.9 0 0)
(57.9 0 0)
(57.9 0 0)
(57.9 0 0)
(57.9 0 0)
(57.9 0 0)
(57.9 0 0)
(57.9 0 0)
(57.9 0 0)
(57.9 0 0)
(57.9 0 0)
(57.9 0 0)
(57.9 0 0)
(57.9 0 0)
(57.8999 0 0)
(57.8999 0 0)
(57.8999 0 0)
(57.8998 0 0)
(57.8998 0 0)
(57.8996 0 0)
(57.8995 0 0)
(57.8993 0 0)
(57.899 0 0)
(57.8985 0 0)
(57.8979 0 0)
(57.8971 0 0)
(57.8959 0 0)
(57.8943 0 0)
(57.892 0 0)
(57.889 0 0)
(57.8849 0 0)
(57.8793 0 0)
(57.8717 0 0)
(57.8616 0 0)
(57.8481 0 0)
(57.8302 0 0)
(57.8065 0 0)
(57.7754 0 0)
(57.7346 0 0)
(57.6816 0 0)
(57.6128 0 0)
(57.5242 0 0)
(57.4106 0 0)
(57.2657 0 0)
(57.0819 0 0)
(56.8501 0 0)
(56.5593 0 0)
(56.1969 0 0)
(55.748 0 0)
(55.1959 0 0)
(54.5219 0 0)
(53.7053 0 0)
(52.7246 0 0)
(51.558 0 0)
(50.1843 0 0)
(48.5851 0 0)
(46.7466 0 0)
(44.6615 0 0)
(42.3321 0 0)
(39.7713 0 0)
(37.0049 0 0)
(34.0711 0 0)
(31.0199 0 0)
(27.91 0 0)
(24.8051 0 0)
(21.7694 0 0)
(18.8624 0 0)
(16.1348 0 0)
(13.6258 0 0)
(11.3612 0 0)
(9.35376 0 0)
(7.60443 0 0)
(6.10425 0 0)
(4.83698 0 0)
(3.78153 0 0)
(2.91415 0 0)
(2.21028 0 0)
(1.64597 0 0)
(1.19891 0 0)
(0.849093 0 0)
(0.57913 0 0)
(0.374407 0 0)
(0.223015 0 0)
(0.115559 0 0)
(0.044777 0 0)
(0.00499874 0 0)
(-0.00925586 0 0)
(-0.00985523 0 0)
(-0.0070039 0 0)
(-0.00255391 0 0)
(0.00214151 0 0)
(0.00605615 0 0)
(0.00920219 0 0)
(0.0115316 0 0)
(0.0129762 0 0)
(0.0140918 0 0)
(0.0148291 0 0)
(0.0151051 0 0)
(0.0153156 0 0)
(0.0152952 0 0)
(0.0151031 0 0)
(0.014979 0 0)
(0.0147172 0 0)
(0.0143941 0 0)
(0.0141363 0 0)
(0.0138386 0 0)
(0.0134977 0 0)
(0.0131849 0 0)
(0.0129479 0 0)
(0.0126167 0 0)
(0.0123186 0 0)
(0.0120963 0 0)
(0.0118268 0 0)
(0.0115322 0 0)
(0.0113086 0 0)
(0.0111372 0 0)
(0.0108281 0 0)
(0.0105961 0 0)
(0.0104961 0 0)
(0.0102285 0 0)
(0.00993397 0 0)
(0.00993325 0 0)
(0.00966676 0 0)
(0.00938586 0 0)
(0.00939803 0 0)
(0.0091535 0 0)
(0.00893467 0 0)
(0.00889717 0 0)
(0.00868955 0 0)
(0.00851787 0 0)
(0.00840593 0 0)
(0.00828893 0 0)
(0.00810287 0 0)
(0.00797555 0 0)
(0.00789026 0 0)
(0.00770258 0 0)
(0.00765463 0 0)
(0.00746184 0 0)
(0.00735842 0 0)
(0.00729247 0 0)
(0.0070994 0 0)
(0.00701207 0 0)
(0.00695465 0 0)
(0.0067915 0 0)
(0.00665238 0 0)
(0.00665571 0 0)
(0.00647397 0 0)
(0.0063324 0 0)
(0.00635719 0 0)
(0.00618054 0 0)
(0.00605898 0 0)
(0.00604769 0 0)
(0.00592135 0 0)
(0.00577655 0 0)
(0.0057789 0 0)
(0.00564988 0 0)
(0.00550858 0 0)
(0.005554 0 0)
(0.00534254 0 0)
(0.00530822 0 0)
(0.00526228 0 0)
(0.00511903 0 0)
(0.00507275 0 0)
(0.00499348 0 0)
(0.00491951 0 0)
(0.00483481 0 0)
(0.00473178 0 0)
(0.00471217 0 0)
(0.00461286 0 0)
(0.00448846 0 0)
(0.00452203 0 0)
(0.00436151 0 0)
(0.00434564 0 0)
(0.00422221 0 0)
(0.00422434 0 0)
(0.00410267 0 0)
(0.00401504 0 0)
(0.00401314 0 0)
(0.00390088 0 0)
(0.0038429 0 0)
(0.00375901 0 0)
(0.00374557 0 0)
(0.00361662 0 0)
(0.00360701 0 0)
(0.00348167 0 0)
(0.00350518 0 0)
(0.00334681 0 0)
(0.00335967 0 0)
(0.00324689 0 0)
(0.00323523 0 0)
(0.00313094 0 0)
(0.00308095 0 0)
(0.00305365 0 0)
(0.00294242 0 0)
(0.00294736 0 0)
(0.00279812 0 0)
(0.00286357 0 0)
(0.00266833 0 0)
(0.00273521 0 0)
(0.00259121 0 0)
(0.0025387 0 0)
(0.00257729 0 0)
(0.00236656 0 0)
(0.00250011 0 0)
(0.00228725 0 0)
(0.00230907 0 0)
(0.00228169 0 0)
(0.00216305 0 0)
(0.00188704 0 0)
(0.0032697 0 0)
(-0.000722096 0 0)
(0.00681154 0 0)
(-0.00554379 0 0)
(0.0123678 0 0)
(-0.0121756 0 0)
(0.0198327 0 0)
(-0.0215585 0 0)
(0.0313171 0 0)
(-0.0359803 0 0)
(0.0488047 0 0)
(-0.0574694 0 0)
(0.0745437 0 0)
(-0.0885017 0 0)
(0.111191 0 0)
(-0.131885 0 0)
(0.161657 0 0)
(-0.190569 0 0)
(0.228853 0 0)
(-0.267329 0 0)
(0.315314 0 0)
(-0.364335 0 0)
(0.422723 0 0)
(-0.482645 0 0)
(0.551391 0 0)
(-0.621687 0 0)
(0.69976 0 0)
(-0.778824 0 0)
(0.864046 0 0)
(-0.949093 0 0)
(1.03811 0 0)
(-1.12523 0 0)
(1.21363 0 0)
(-1.29801 0 0)
(1.38068 0 0)
(-1.45701 0 0)
(1.52856 0 0)
(-1.59153 0 0)
(1.64691 0 0)
(-1.69184 0 0)
(1.72689 0 0)
(-1.7503 0 0)
(1.7623 0 0)
)
;

boundaryField
{
    inlet
    {
        type            fixedValue;
        value           uniform (57.9 0 0);
    }
    backWall
    {
        type            fixedValue;
        value           uniform (0 0 0);
    }
    sides
    {
        type            empty;
    }
}


// ************************************************************************* //
