/*--------------------------------*- C++ -*----------------------------------*\
| =========                 |                                                 |
| \\      /  F ield         | OpenFOAM: The Open Source CFD Toolbox           |
|  \\    /   O peration     | Version:  3.0.x                                 |
|   \\  /    A nd           | Web:      www.OpenFOAM.org                      |
|    \\/     M anipulation  |                                                 |
\*---------------------------------------------------------------------------*/
FoamFile
{
    version     2.0;
    format      ascii;
    class       surfaceScalarField;
    location    "0.58995";
    object      phi;
}
// * * * * * * * * * * * * * * * * * * * * * * * * * * * * * * * * * * * * * //

dimensions      [1 0 -1 0 0 0 0];

internalField   nonuniform List<scalar> 
26210
(
7.79617
0.00051435
7.70589
0.000368835
7.61567
0.000369207
7.52545
0.000377869
7.43527
0.000385307
7.34515
0.000392737
7.25506
0.00039986
7.16505
0.000406326
7.07515
0.000412186
6.98539
0.0004175
6.89577
0.000422239
6.80632
0.000426394
6.71712
0.000429996
6.62819
0.000433095
6.53956
0.000435721
6.45125
0.000437906
6.36327
0.000439688
6.27566
0.000441113
6.18844
0.000442227
6.10166
0.00044285
6.01531
0.000444092
5.92945
0.000443884
5.84408
0.000444358
5.75923
0.000444494
5.67491
0.000444527
5.59115
0.000444486
5.50795
0.000444378
5.42534
0.000444231
5.34333
0.000444046
5.26193
0.000443833
5.18116
0.000443401
5.10103
0.000443834
5.02153
0.000442786
4.94269
0.000442901
4.86453
0.000442565
4.78704
0.000442279
4.71024
0.000441998
4.63413
0.000441708
4.55873
0.000441416
4.48403
0.000441112
4.41006
0.000440831
4.33681
0.000440531
4.26428
0.000440212
4.1925
0.000439936
4.12145
0.000439594
4.05114
0.000439326
3.98158
0.000438987
3.91278
0.000438721
3.84472
0.000438381
3.77742
0.000438121
3.71088
0.00043779
3.64509
0.000437501
3.58007
0.00043722
3.51581
0.000436898
3.4523
0.000436603
3.38956
0.000436341
3.32758
0.000435997
3.26636
0.000435736
3.2059
0.000435452
3.14619
0.000435154
3.08725
0.000434884
3.02905
0.000434584
2.97161
0.000434358
2.91491
0.000434058
2.85896
0.000433792
2.80376
0.00043354
2.7493
0.000433281
2.69557
0.000433043
2.64258
0.000432762
2.59032
0.000432549
2.53878
0.000432282
2.48796
0.000432064
2.43787
0.000431805
2.38849
0.000431536
2.33981
0.000431301
2.29185
0.000431019
2.24458
0.000430821
2.19801
0.000430717
2.15213
0.000430612
2.10693
0.000430392
2.06242
0.000430176
2.01858
0.000429834
1.97541
0.000429596
1.93291
0.000429301
1.89106
0.000429058
1.84987
0.000428829
1.80933
0.00042856
1.76943
0.00042828
1.73016
0.000427925
1.69153
0.000427707
1.65353
0.000427585
1.61614
0.000427522
1.57937
0.000427472
1.5432
0.000427463
1.50763
0.000427394
1.47266
0.000427521
1.43828
0.000427552
1.40448
0.000427579
1.37125
0.000427543
1.3386
0.000427391
1.30651
0.000427166
1.27498
0.000426989
1.24401
0.000426817
1.21358
0.000426557
1.18369
0.000426169
1.15435
0.000425798
1.12553
0.000425452
1.09723
0.00042525
1.06946
0.00042535
1.04219
0.00042559
1.01544
0.000425761
0.989181
0.000425775
0.963418
0.00042561
0.938143
0.000425328
0.913352
0.000425015
0.889038
0.000424723
0.865195
0.000424454
0.841818
0.000424364
0.8189
0.000424478
0.796436
0.000424674
0.774421
0.00042479
0.752848
0.000424821
0.731713
0.000424858
0.71101
0.000425043
0.690735
0.000425273
0.67088
0.000425361
0.651443
0.000425213
0.632416
0.000424878
0.613797
0.000424428
0.595579
0.000423947
0.577757
0.000423321
0.560325
0.00042245
0.54328
0.00042128
0.526616
0.000419881
0.510327
0.000418334
0.494409
0.000416764
0.478856
0.000415178
0.463662
0.000413475
0.448823
0.000411549
0.434332
0.000409212
0.420187
0.000406289
0.406381
0.000402727
0.39291
0.000398415
0.37977
0.000393351
0.366956
0.00038748
0.354464
0.000380779
0.34229
0.000373206
0.33043
0.00036476
0.318878
0.000355409
0.30763
0.000345183
0.296683
0.000334086
0.286031
0.000322147
0.275671
0.000309395
0.265598
0.000295916
0.255807
0.00028172
0.246295
0.000266929
0.237056
0.000251591
0.228086
0.000235808
0.219381
0.000219663
0.210936
0.000203304
0.202747
0.000186791
0.194808
0.000170301
0.187114
0.000153895
0.179662
0.000137747
0.172447
0.000121906
0.165463
0.000106547
0.158705
9.17031e-05
0.15217
7.75661e-05
0.145852
6.4081e-05
0.139747
5.13924e-05
0.133849
3.95861e-05
0.128155
2.83494e-05
0.122659
1.85972e-05
0.117359
8.5655e-06
0.112247
1.27176e-06
0.107323
-8.16529e-06
0.102579
-1.29381e-05
0.0980148
-2.18335e-05
0.0936227
-2.40034e-05
0.0894037
-3.25269e-05
0.0853479
-3.20097e-05
0.0814592
-4.12103e-05
0.0777239
-3.69612e-05
0.0741517
-4.83859e-05
0.0707233
-4.03166e-05
0.0674532
-5.30112e-05
0.0643192
-4.31948e-05
0.0613373
-5.57015e-05
0.0584851
-4.56858e-05
0.0557771
-5.65239e-05
0.0531939
-4.82461e-05
0.0507435
-5.3886e-05
0.0484095
-4.37986e-05
0.0461823
-2.9889e-05
0.043998
4.73537e-05
0.0417149
0.000260719
0.0378546
0.00195122
0.0332161
0.00283791
-0.0123997
0.04392
0.0601986
-0.0741934
11.0266
0.000468757
10.8995
0.000349973
10.7725
0.000343166
10.6454
0.000352676
10.5185
0.000359491
10.3916
0.000366345
10.2648
0.000373081
10.1381
0.00037919
10.0115
0.000384707
9.88519
0.000389709
9.75907
0.000394178
9.6332
0.000398105
9.50768
0.000401516
9.38255
0.000404457
9.25785
0.000406955
9.13359
0.000409041
9.00982
0.000410751
8.88656
0.000412125
8.76387
0.000413215
8.64179
0.000413832
8.52033
0.000415003
8.39955
0.000414919
8.27947
0.000415368
8.16013
0.000415538
8.04154
0.00041561
7.92373
0.000415613
7.80673
0.000415554
7.69055
0.000415457
7.57522
0.000415326
7.46075
0.000415167
7.34718
0.000414838
7.2345
0.000415183
7.12272
0.000414357
7.01188
0.000414449
6.90198
0.000414187
6.79305
0.000413958
6.68508
0.000413737
6.5781
0.000413511
6.47211
0.000413271
6.36713
0.000413034
6.26316
0.000412813
6.16021
0.000412568
6.05829
0.000412315
5.95742
0.000412095
5.85758
0.000411819
5.7588
0.000411605
5.66107
0.000411331
5.56441
0.000411118
5.46881
0.000410842
5.37427
0.000410636
5.28081
0.000410368
5.18842
0.000410137
5.0971
0.000409912
5.00686
0.000409652
4.9177
0.000409416
4.82961
0.000409207
4.74259
0.000408929
4.65665
0.000408721
4.57179
0.000408496
4.48799
0.000408258
4.40526
0.000408046
4.3236
0.000407805
4.243
0.000407631
4.16346
0.000407392
4.08498
0.000407183
4.00754
0.000406986
3.93115
0.000406785
3.85581
0.0004066
3.7815
0.000406379
3.70823
0.000406215
3.63598
0.000406004
3.56475
0.000405839
3.49454
0.000405638
3.42534
0.000405428
3.35714
0.000405247
3.28993
0.000405025
3.22372
0.000404877
3.15849
0.000404816
3.09424
0.000404753
3.03095
0.000404586
2.96863
0.00040442
2.90727
0.000404144
2.84685
0.000403963
2.78737
0.000403731
2.72882
0.00040354
2.6712
0.000403364
2.61449
0.000403147
2.55869
0.000402921
2.50379
0.000402629
2.44979
0.000402464
2.39667
0.000402395
2.34442
0.000402379
2.29304
0.000402376
2.24253
0.000402411
2.19286
0.000402392
2.14403
0.000402546
2.09603
0.000402614
2.04886
0.00040267
2.0025
0.000402669
1.95695
0.000402564
1.9122
0.000402392
1.86823
0.000402267
1.82506
0.00040214
1.78265
0.00040193
1.74101
0.000401599
1.70013
0.000401291
1.66
0.000401015
1.62061
0.00040088
1.58195
0.000401023
1.54402
0.000401287
1.50681
0.000401478
1.4703
0.000401515
1.43449
0.000401392
1.39937
0.000401159
1.36494
0.000400912
1.33118
0.000400677
1.29808
0.00040048
1.26564
0.000400437
1.23385
0.000400595
1.20271
0.000400812
1.1722
0.000400961
1.14231
0.000401019
1.11305
0.000401096
1.0844
0.000401294
1.05635
0.000401535
1.02889
0.000401617
1.00203
0.000401486
0.975745
0.000401168
0.950036
0.00040075
0.924894
0.000400283
0.900311
0.000399663
0.87628
0.000398792
0.852794
0.000397622
0.829843
0.00039623
0.807422
0.000394689
0.785523
0.000393102
0.764137
0.000391483
0.743258
0.000389698
0.722877
0.000387671
0.702987
0.000385194
0.68358
0.000382119
0.664649
0.000378406
0.646187
0.000373916
0.628184
0.000368708
0.610636
0.000362661
0.593533
0.000355819
0.576869
0.000348105
0.560636
0.000339545
0.544826
0.000330106
0.529433
0.00031984
0.514449
0.000308721
0.499866
0.00029685
0.485677
0.000284181
0.471874
0.000270894
0.458451
0.00025693
0.4454
0.000242478
0.432714
0.000227544
0.420386
0.000212277
0.408408
0.000196717
0.396774
0.000181068
0.385478
0.000165325
0.374512
0.000149721
0.363869
0.000134269
0.353543
0.00011915
0.343529
0.000104419
0.333819
9.01879e-05
0.324407
7.65944e-05
0.315288
6.35826e-05
0.306456
5.15214e-05
0.297906
3.97462e-05
0.289631
2.97194e-05
0.281628
1.87923e-05
0.273889
1.15787e-05
0.266413
7.11696e-07
0.259189
-2.7009e-06
0.25222
-1.48827e-05
0.245493
-1.36544e-05
0.239013
-2.75231e-05
0.232766
-2.20068e-05
0.226758
-3.76803e-05
0.220973
-2.71112e-05
0.21542
-4.71655e-05
0.210077
-2.82021e-05
0.204964
-5.63195e-05
0.200047
-2.84418e-05
0.195355
-6.15956e-05
0.19085
-2.99706e-05
0.186561
-6.3933e-05
0.182451
-3.25556e-05
0.178546
-6.28348e-05
0.174815
-3.72268e-05
0.171273
-5.47288e-05
0.167896
-2.80935e-05
0.16467
2.41657e-06
0.161496
0.000200804
0.158054
0.000841119
0.15293
0.0043766
0.142576
0.0106438
0.0863217
0.09778
0.124623
0.0196423
15.594
0.000408837
15.4142
0.000320444
15.2345
0.000306546
15.0549
0.000316595
14.8753
0.00032274
14.6959
0.000328777
14.5166
0.00033487
14.3374
0.000340399
14.1584
0.000345369
13.9798
0.000349872
13.8014
0.000353898
13.6234
0.000357439
13.4459
0.000360517
13.2689
0.00036317
13.0926
0.000365425
12.9169
0.000367308
12.7418
0.000368853
12.5675
0.000370096
12.394
0.000371087
12.2213
0.000371646
12.0496
0.000372655
11.8788
0.000372671
11.709
0.000373038
11.5402
0.000373196
11.3725
0.000373263
11.2059
0.00037327
11.0404
0.000373221
10.8761
0.000373137
10.713
0.000373023
10.5511
0.000372882
10.3905
0.000372628
10.2312
0.000372822
10.0731
0.000372211
9.91633
0.000372238
9.76091
0.000372011
9.60686
0.000371806
9.45417
0.000371612
9.30288
0.000371414
9.15299
0.000371191
9.00452
0.000370989
8.85749
0.000370792
8.7119
0.000370568
8.56777
0.000370349
8.42511
0.00037015
8.28393
0.000369909
8.14423
0.000369712
8.00603
0.000369471
7.86933
0.000369276
7.73413
0.000369032
7.60044
0.000368844
7.46827
0.000368606
7.33761
0.0003684
7.20847
0.000368197
7.08086
0.000367966
6.95476
0.000367756
6.83019
0.000367565
6.70713
0.00036732
6.5856
0.00036713
6.46558
0.000366931
6.34708
0.00036672
6.23009
0.00036653
6.1146
0.000366314
6.00062
0.000366157
5.88814
0.000365946
5.77715
0.000365759
5.66764
0.000365583
5.55962
0.000365404
5.45307
0.000365238
5.34799
0.000365043
5.24437
0.000364891
5.1422
0.000364704
5.04147
0.000364557
4.94218
0.000364379
4.84431
0.000364194
4.74787
0.000364033
4.65283
0.000363836
4.5592
0.000363701
4.46695
0.000363641
4.37609
0.000363581
4.2866
0.000363433
4.19847
0.000363286
4.11169
0.000363047
4.02625
0.000362888
3.94214
0.000362686
3.85934
0.000362513
3.77786
0.000362354
3.69767
0.000362155
3.61876
0.000361951
3.54113
0.00036169
3.46476
0.000361539
3.38964
0.000361479
3.31576
0.000361467
3.2431
0.000361468
3.17167
0.000361503
3.10143
0.000361492
3.03238
0.000361623
2.9645
0.000361684
2.8978
0.000361729
2.83224
0.000361726
2.76783
0.000361637
2.70455
0.000361487
2.64238
0.000361379
2.58133
0.000361262
2.52136
0.000361074
2.46248
0.000360774
2.40467
0.000360502
2.34793
0.000360258
2.29223
0.000360142
2.23757
0.000360268
2.18393
0.000360498
2.13131
0.000360666
2.07968
0.000360695
2.02905
0.000360589
1.97939
0.000360379
1.9307
0.000360172
1.88296
0.000359955
1.83616
0.000359794
1.79029
0.000359743
1.74534
0.000359892
1.70131
0.000360079
1.65816
0.000360221
1.61591
0.000360271
1.57453
0.000360346
1.53401
0.000360515
1.49435
0.000360728
1.45553
0.000360792
1.41755
0.000360681
1.38039
0.000360399
1.34404
0.000360034
1.30849
0.000359617
1.27373
0.000359059
1.23975
0.00035828
1.20654
0.000357226
1.17409
0.000355979
1.14239
0.000354605
1.11143
0.000353178
1.08119
0.000351741
1.05167
0.000350126
1.02285
0.00034832
0.994727
0.000346091
0.967286
0.000343333
0.940518
0.000340022
0.91441
0.000335974
0.888954
0.000331334
0.864138
0.000325887
0.839952
0.000319766
0.816385
0.000312839
0.793427
0.000305167
0.771067
0.000296696
0.749294
0.000287506
0.728098
0.000277509
0.707469
0.000266896
0.687395
0.000255494
0.667867
0.000243605
0.648875
0.000231048
0.630408
0.000218093
0.612456
0.00020467
0.595009
0.00019098
0.578058
0.000176982
0.561592
0.000162956
0.545602
0.00014879
0.530079
0.000134791
0.515014
0.000120901
0.500397
0.000107308
0.48622
9.40919e-05
0.472473
8.12512e-05
0.459149
6.91276e-05
0.44624
5.72585e-05
0.433736
4.67281e-05
0.421632
3.55892e-05
0.409918
2.74885e-05
0.398589
1.61812e-05
0.387634
1.19208e-05
0.377052
-1.02748e-06
0.366828
4.25424e-07
0.356964
-1.68071e-05
0.347444
-7.79758e-06
0.338274
-2.97213e-05
0.329435
-1.38827e-05
0.320933
-4.05506e-05
0.312747
-1.60863e-05
0.304892
-5.23605e-05
0.297332
-1.26699e-05
0.290099
-6.52398e-05
0.283143
-9.28401e-06
0.276506
-7.21316e-05
0.270133
-9.50074e-06
0.264066
-7.45162e-05
0.258252
-1.2657e-05
0.25273
-7.11277e-05
0.247452
-2.06506e-05
0.242443
-5.57724e-05
0.237666
-6.07297e-06
0.233114
3.90958e-05
0.228673
0.000369389
0.224039
0.00142829
0.217603
0.00699653
0.207854
0.016789
0.142701
0.159545
0.207335
0.0567989
68.8353
0.000188445
68.0416
0.000166717
67.2485
0.00015183
66.4555
0.000157614
65.6629
0.000161399
64.8708
0.00016424
64.0792
0.000167236
63.2882
0.000170015
62.4983
0.000172506
61.7096
0.000174761
60.9223
0.00017678
60.1366
0.00017856
59.353
0.000180109
58.5718
0.000181445
57.7934
0.000182581
57.0177
0.000183531
56.245
0.000184311
55.4756
0.000184939
54.7097
0.00018544
53.9476
0.00018575
53.1894
0.000186174
52.4354
0.000186288
51.6858
0.000186435
50.9408
0.00018652
50.2004
0.000186556
49.465
0.000186563
48.7346
0.000186543
48.0094
0.000186503
47.2894
0.00018645
46.5748
0.000186383
45.8659
0.000186292
45.1624
0.000186282
44.4647
0.000186091
43.7727
0.000186079
43.0867
0.000185954
42.4067
0.000185851
41.7327
0.000185761
41.0648
0.000185668
40.4032
0.000185548
39.7478
0.000185457
39.0988
0.000185359
38.4561
0.000185244
37.8199
0.000185143
37.1902
0.000185043
36.567
0.000184929
35.9503
0.000184828
35.3403
0.000184713
34.7368
0.000184613
34.14
0.000184495
33.5499
0.0001844
32.9665
0.000184286
32.3897
0.000184184
31.8197
0.000184083
31.2564
0.000183971
30.6998
0.000183867
30.1499
0.000183769
29.6067
0.000183653
29.0702
0.000183553
28.5404
0.000183456
28.0173
0.000183354
27.5009
0.00018326
26.9911
0.000183154
26.488
0.000183075
25.9915
0.000182973
25.5015
0.000182881
25.0181
0.000182793
24.5413
0.000182706
24.071
0.000182622
23.6071
0.000182529
23.1497
0.000182448
22.6987
0.000182357
22.2541
0.000182284
21.8158
0.0001822
21.3838
0.000182112
20.9581
0.000182033
20.5386
0.000181937
20.1252
0.000181864
19.718
0.000181827
19.317
0.000181794
18.9219
0.000181724
18.5329
0.000181652
18.1498
0.000181545
17.7727
0.00018147
17.4014
0.000181377
17.0359
0.000181288
16.6762
0.000181207
16.3222
0.000181103
15.9739
0.000180998
15.6312
0.00018087
15.2941
0.000180789
14.9625
0.000180762
14.6364
0.000180758
14.3157
0.000180765
14.0004
0.000180788
13.6903
0.000180787
13.3855
0.000180847
13.0859
0.000180873
12.7915
0.000180895
12.5021
0.000180883
12.2178
0.000180855
11.9384
0.000180772
11.664
0.000180739
11.3945
0.000180658
11.1298
0.000180586
10.8699
0.00018041
10.6147
0.0001803
10.3642
0.000180162
10.1183
0.000180133
9.87706
0.000180166
9.6403
0.000180301
9.40801
0.000180351
9.18013
0.000180392
8.95662
0.000180314
8.73741
0.000180237
8.52247
0.000180124
8.31173
0.000180031
8.10516
0.00017995
7.90269
0.000179928
7.70429
0.000179992
7.50989
0.000180091
7.31946
0.000180158
7.13293
0.000180196
6.95027
0.000180223
6.77142
0.000180321
6.59635
0.000180383
6.425
0.000180467
6.25733
0.000180335
6.09328
0.000180303
5.93283
0.000180017
5.77591
0.000179929
5.62248
0.000179543
5.47249
0.000179244
5.3259
0.000178651
5.18266
0.000178075
5.04272
0.000177373
4.90604
0.000176685
4.77257
0.000175952
4.64225
0.000175187
4.51505
0.00017424
4.39091
0.000173191
4.26978
0.000171763
4.15162
0.000170185
4.03637
0.00016812
3.924
0.000165872
3.81446
0.000163114
3.7077
0.000160122
3.60367
0.000156613
3.50233
0.000152879
3.40363
0.000148564
3.30752
0.000144118
3.21395
0.000139005
3.12289
0.000133876
3.03429
0.000128038
2.94809
0.00012227
2.86425
0.000115862
2.78273
0.000109527
2.70349
0.000102703
2.62648
9.59917e-05
2.55165
8.88553e-05
2.47897
8.19979e-05
2.40839
7.47572e-05
2.33987
6.78875e-05
2.27337
6.0846e-05
2.20885
5.40708e-05
2.14627
4.74911e-05
2.08559
4.09287e-05
2.02677
3.51568e-05
1.96979
2.85837e-05
1.9146
2.46272e-05
1.86117
1.64916e-05
1.80946
1.69795e-05
1.75945
3.68495e-06
1.71109
1.3409e-05
1.66438
-1.01793e-05
1.61925
1.35361e-05
1.57571
-2.57399e-05
1.53369
1.74684e-05
1.49321
-4.00422e-05
1.45419
2.22698e-05
1.41667
-5.55117e-05
1.38053
3.58241e-05
1.34586
-8.1305e-05
1.31248
6.38528e-05
1.28056
-0.000115304
1.24985
8.71555e-05
1.22056
-0.000131701
1.19242
9.38131e-05
1.16565
-0.000133996
1.13997
8.6561e-05
1.11561
-0.000117682
1.0923
5.97055e-05
1.0702
-6.66415e-05
1.04912
8.92112e-05
1.02904
0.000177494
1.00952
0.00103628
0.98947
0.00361337
0.964387
0.0152324
0.930926
0.0343427
0.79623
0.279289
0.32592
0.663566
68.8352
-5.68434e-12
68.0416
-5.00222e-12
67.2485
-5.22959e-12
66.4555
-4.3201e-12
65.6628
-3.63798e-12
64.8708
-3.41061e-12
64.0791
-4.09273e-12
63.2881
-3.86535e-12
62.4982
-3.86535e-12
61.7096
-5.45697e-12
60.9223
-6.59384e-12
60.1365
-6.59384e-12
59.3529
-6.59384e-12
58.5718
-4.3201e-12
57.7933
-2.72848e-12
57.0177
-3.86535e-12
56.245
-4.3201e-12
55.4755
-4.54747e-12
54.7096
-4.3201e-12
53.9475
-3.86535e-12
53.1893
-4.09273e-12
52.4353
-3.41061e-12
51.6857
-3.18323e-12
50.9407
-5.45697e-12
50.2004
-5.91172e-12
49.465
-4.09273e-12
48.7346
-3.63798e-12
48.0093
-5.00222e-12
47.2894
-2.95586e-12
46.5748
-5.22959e-12
45.8658
-7.04858e-12
45.1624
-4.54747e-12
44.4646
-3.18323e-12
43.7727
-2.04636e-12
43.0867
-2.72848e-12
42.4066
-3.41061e-12
41.7326
-3.86535e-12
41.0648
-2.04636e-12
40.4032
-2.27374e-12
39.7478
-1.59162e-12
39.0988
-2.50111e-12
38.4561
-2.27374e-12
37.8199
-3.41061e-12
37.1902
-2.95586e-12
36.5669
-1.36424e-12
35.9503
-4.54747e-12
35.3402
-4.09273e-12
34.7368
-2.72848e-12
34.14
-2.27374e-12
33.5499
-2.95586e-12
32.9664
-2.04636e-12
32.3897
-4.3201e-12
31.8197
-3.63798e-12
31.2563
-4.3201e-12
30.6997
-4.09273e-12
30.1498
-1.13687e-12
29.6066
-6.82121e-13
29.0702
-1.36424e-12
28.5404
-1.13687e-12
28.0173
-4.3201e-12
27.5009
-2.50111e-12
26.9911
-2.50111e-12
26.4879
-1.36424e-12
25.9914
-1.36424e-12
25.5015
-1.81899e-12
25.0181
-1.36424e-12
24.5413
-3.63798e-12
24.0709
-2.72848e-12
23.6071
-2.27374e-12
23.1497
-3.63798e-12
22.6987
-2.04636e-12
22.254
-1.81899e-12
21.8157
-4.54747e-13
21.3838
-1.36424e-12
20.958
-2.27374e-12
20.5385
-2.04636e-12
20.1252
-2.27374e-13
19.718
-5.22959e-12
19.3169
-1.13687e-12
18.9219
-6.82121e-12
18.5329
4.3201e-12
18.1498
-9.77707e-12
17.7726
7.27596e-12
17.4014
-1.27329e-11
17.0359
7.27596e-12
16.6762
-1.13687e-11
16.3222
5.00222e-12
15.9739
-2.72848e-12
15.6312
-2.27374e-13
15.2941
2.95586e-12
14.9625
-8.6402e-12
14.6364
1.56888e-11
14.3157
-4.502e-11
14.0003
8.18545e-11
13.6903
-1.62117e-10
13.3855
2.64436e-10
13.0859
-4.10182e-10
12.7914
5.79348e-10
12.5021
-7.67386e-10
12.2177
9.39053e-10
11.9384
-1.08616e-09
11.664
1.1205e-09
11.3945
-1.09731e-09
11.1298
9.87029e-10
10.8699
-7.46923e-10
10.6147
4.68845e-10
10.3642
-2.23281e-10
10.1183
6.753e-11
9.87703
7.95808e-12
9.64027
-7.41238e-11
9.40798
3.76758e-10
9.1801
-1.27261e-09
8.95659
2.92607e-09
8.73738
-5.30463e-09
8.52244
8.07245e-09
8.31171
-1.06206e-08
8.10513
1.23771e-08
7.90267
-1.31708e-08
7.70426
1.35517e-08
7.50986
-1.49093e-08
7.31943
1.84391e-08
7.1329
-2.36801e-08
6.95024
2.80027e-08
6.77139
-2.81514e-08
6.59632
2.30814e-08
6.42497
-1.51886e-08
6.2573
8.15362e-09
6.09326
-3.64662e-09
5.9328
7.22594e-10
5.77588
1.83263e-09
5.62245
-3.84398e-09
5.47246
4.02247e-09
5.32588
-8.11042e-10
5.18264
-6.1118e-09
5.0427
1.39312e-08
4.90602
-1.84468e-08
4.77254
1.81803e-08
4.64223
-1.48432e-08
4.51502
1.00599e-08
4.39088
-3.82056e-09
4.26975
-4.39832e-09
4.15159
1.38725e-08
4.03635
-2.12576e-08
3.92398
2.27685e-08
3.81444
-1.94302e-08
3.70768
1.60442e-08
3.60365
-1.72327e-08
3.50231
2.51698e-08
3.4036
-3.57622e-08
3.3075
4.52912e-08
3.21393
-5.29692e-08
3.12287
5.66029e-08
3.03427
-5.47163e-08
2.94807
4.70645e-08
2.86423
-3.97636e-08
2.78272
4.10375e-08
2.70347
-5.15724e-08
2.62646
6.27988e-08
2.55164
-6.26953e-08
2.47896
4.72003e-08
2.40838
-1.393e-08
2.33986
-4.4947e-08
2.27336
1.38278e-07
2.20884
-2.78602e-07
2.14626
4.9421e-07
2.08558
-8.31706e-07
2.02676
1.36968e-06
1.96978
-2.21722e-06
1.91459
3.51712e-06
1.86116
-5.48202e-06
1.80945
8.39463e-06
1.75945
-1.243e-05
1.71109
1.78276e-05
1.66438
-2.42793e-05
1.61925
3.24622e-05
1.57571
-4.24607e-05
1.53368
5.20609e-05
1.49322
-6.26557e-05
1.45418
7.2535e-05
1.41668
-8.7466e-05
1.38052
0.000105361
1.34587
-0.000127435
1.31248
0.000155046
1.28057
-0.000177209
1.24984
0.000193157
1.22057
-0.000200504
1.19241
0.000206944
1.16566
-0.000205644
1.13997
0.000200442
1.11562
-0.000184767
1.09229
0.000162227
1.07022
-0.000113586
1.04913
0.000196315
1.02918
0.000193565
1.00992
0.00143766
0.99061
0.00506067
0.965193
0.0238017
0.922169
0.0614612
0.698822
0.487687
0.646182
0.364489
68.8352
-0.000188445
68.0416
-0.000166717
67.2485
-0.00015183
66.4555
-0.000157614
65.6628
-0.000161399
64.8708
-0.00016424
64.0791
-0.000167236
63.2881
-0.000170015
62.4982
-0.000172506
61.7096
-0.000174761
60.9223
-0.00017678
60.1365
-0.00017856
59.3529
-0.000180109
58.5718
-0.000181445
57.7933
-0.000182581
57.0177
-0.000183531
56.245
-0.000184311
55.4755
-0.000184939
54.7096
-0.00018544
53.9475
-0.00018575
53.1893
-0.000186174
52.4353
-0.000186288
51.6857
-0.000186435
50.9407
-0.00018652
50.2004
-0.000186556
49.465
-0.000186563
48.7346
-0.000186543
48.0093
-0.000186503
47.2894
-0.00018645
46.5748
-0.000186383
45.8658
-0.000186292
45.1624
-0.000186282
44.4646
-0.000186091
43.7727
-0.000186079
43.0867
-0.000185954
42.4066
-0.000185851
41.7326
-0.000185761
41.0648
-0.000185668
40.4032
-0.000185548
39.7478
-0.000185457
39.0988
-0.000185359
38.4561
-0.000185244
37.8199
-0.000185143
37.1902
-0.000185043
36.5669
-0.000184929
35.9503
-0.000184828
35.3402
-0.000184713
34.7368
-0.000184613
34.14
-0.000184495
33.5499
-0.0001844
32.9664
-0.000184286
32.3897
-0.000184184
31.8197
-0.000184083
31.2563
-0.000183971
30.6997
-0.000183867
30.1498
-0.000183769
29.6066
-0.000183653
29.0702
-0.000183553
28.5404
-0.000183456
28.0173
-0.000183354
27.5009
-0.00018326
26.9911
-0.000183154
26.4879
-0.000183075
25.9914
-0.000182973
25.5015
-0.000182881
25.0181
-0.000182793
24.5413
-0.000182706
24.0709
-0.000182622
23.6071
-0.000182529
23.1497
-0.000182448
22.6987
-0.000182357
22.254
-0.000182284
21.8157
-0.0001822
21.3838
-0.000182112
20.958
-0.000182033
20.5385
-0.000181937
20.1252
-0.000181864
19.718
-0.000181827
19.3169
-0.000181794
18.9219
-0.000181724
18.5329
-0.000181652
18.1498
-0.000181545
17.7726
-0.00018147
17.4014
-0.000181377
17.0359
-0.000181288
16.6762
-0.000181207
16.3222
-0.000181103
15.9739
-0.000180998
15.6312
-0.00018087
15.2941
-0.000180789
14.9625
-0.000180762
14.6364
-0.000180758
14.3157
-0.000180766
14.0003
-0.000180787
13.6903
-0.00018079
13.3855
-0.000180844
13.0859
-0.000180878
12.7914
-0.000180888
12.5021
-0.000180892
12.2177
-0.000180843
11.9384
-0.000180787
11.664
-0.000180723
11.3945
-0.000180675
11.1298
-0.000180569
10.8699
-0.000180426
10.6147
-0.000180286
10.3642
-0.000180176
10.1183
-0.000180117
9.87703
-0.000180184
9.64027
-0.00018028
9.40798
-0.000180374
9.1801
-0.000180371
8.95659
-0.000180328
8.73738
-0.00018023
8.52244
-0.000180122
8.31171
-0.000180041
8.10513
-0.000179935
7.90267
-0.000179946
7.70426
-0.00017997
7.50986
-0.000180118
7.31943
-0.000180124
7.1329
-0.000180239
6.95024
-0.000180173
6.77139
-0.000180374
6.59632
-0.000180336
6.42497
-0.000180501
6.2573
-0.000180313
6.09326
-0.000180311
5.9328
-0.000180024
5.77588
-0.000179907
5.62245
-0.000179577
5.47246
-0.000179203
5.32588
-0.00017869
5.18264
-0.000178047
5.0427
-0.000177386
4.90602
-0.000176683
4.77254
-0.000175951
4.64223
-0.00017519
4.51502
-0.00017424
4.39088
-0.000173185
4.26975
-0.000171783
4.15159
-0.000170145
4.03635
-0.000168178
3.92398
-0.000165807
3.81444
-0.000163174
3.70768
-0.000160071
3.60365
-0.000156659
3.50231
-0.000152827
3.4036
-0.000148632
3.3075
-0.000144027
3.21393
-0.000139121
3.12287
-0.000133738
3.03427
-0.000128185
2.94807
-0.000122132
2.86423
-0.000115977
2.78272
-0.00010943
2.70347
-0.000102799
2.62646
-9.58814e-05
2.55164
-8.89832e-05
2.47896
-8.18632e-05
2.40838
-7.48751e-05
2.33986
-6.7821e-05
2.27336
-6.08242e-05
2.20884
-5.42257e-05
2.14626
-4.71327e-05
2.08558
-4.16135e-05
2.02676
-3.39201e-05
1.96978
-3.07749e-05
1.91459
-2.08503e-05
1.86116
-2.28321e-05
1.80946
-6.52154e-06
1.75944
-2.01571e-05
1.7111
1.1861e-05
1.66438
-2.60794e-05
1.61925
3.85884e-05
1.57571
-4.44765e-05
1.53369
7.30305e-05
1.49321
-6.88615e-05
1.45419
0.000100668
1.41666
-8.10924e-05
1.38055
0.000113144
1.34582
-8.26694e-05
1.31254
0.000117099
1.2805
-8.33529e-05
1.24992
0.000127567
1.22049
-9.45967e-05
1.19249
0.000143307
1.1656
-0.000111882
1.14003
0.00016597
1.11559
-0.00013615
1.09231
0.000198003
1.07024
-0.000147693
1.04917
0.000275075
1.02933
9.6594e-05
1.01067
0.00123929
0.994037
0.00383925
0.983392
0.0175902
0.985306
0.0436469
1.07245
0.385592
0.456521
1.24807
68.8353
-0.000408837
68.0416
-0.000320444
67.2485
-0.000306546
66.4555
-0.000316595
65.6629
-0.00032274
64.8708
-0.000328777
64.0792
-0.00033487
63.2882
-0.000340399
62.4983
-0.000345369
61.7096
-0.000349872
60.9223
-0.000353898
60.1366
-0.000357439
59.353
-0.000360517
58.5718
-0.00036317
57.7934
-0.000365425
57.0177
-0.000367308
56.245
-0.000368853
55.4756
-0.000370096
54.7097
-0.000371087
53.9476
-0.000371646
53.1894
-0.000372655
52.4354
-0.000372671
51.6858
-0.000373038
50.9408
-0.000373196
50.2004
-0.000373263
49.465
-0.00037327
48.7346
-0.000373221
48.0094
-0.000373137
47.2894
-0.000373023
46.5748
-0.000372882
45.8659
-0.000372628
45.1624
-0.000372822
44.4647
-0.000372211
43.7727
-0.000372238
43.0867
-0.000372011
42.4067
-0.000371806
41.7327
-0.000371612
41.0648
-0.000371414
40.4032
-0.000371191
39.7478
-0.000370989
39.0988
-0.000370792
38.4561
-0.000370568
37.8199
-0.000370349
37.1902
-0.00037015
36.567
-0.000369909
35.9503
-0.000369712
35.3403
-0.000369471
34.7368
-0.000369276
34.14
-0.000369032
33.5499
-0.000368844
32.9665
-0.000368606
32.3897
-0.0003684
31.8197
-0.000368197
31.2564
-0.000367966
30.6998
-0.000367756
30.1499
-0.000367565
29.6067
-0.00036732
29.0702
-0.00036713
28.5404
-0.000366931
28.0173
-0.00036672
27.5009
-0.00036653
26.9911
-0.000366314
26.488
-0.000366157
25.9915
-0.000365946
25.5015
-0.000365759
25.0181
-0.000365583
24.5413
-0.000365404
24.071
-0.000365238
23.6071
-0.000365043
23.1497
-0.000364891
22.6987
-0.000364704
22.2541
-0.000364557
21.8158
-0.000364379
21.3838
-0.000364194
20.9581
-0.000364033
20.5386
-0.000363836
20.1252
-0.000363701
19.718
-0.000363641
19.317
-0.000363581
18.9219
-0.000363433
18.5329
-0.000363286
18.1498
-0.000363047
17.7727
-0.000362888
17.4014
-0.000362686
17.0359
-0.000362513
16.6762
-0.000362354
16.3222
-0.000362155
15.9739
-0.000361951
15.6312
-0.00036169
15.2941
-0.000361539
14.9625
-0.000361479
14.6364
-0.000361467
14.3157
-0.000361468
14.0004
-0.000361504
13.6903
-0.000361492
13.3855
-0.000361623
13.0859
-0.000361683
12.7915
-0.000361731
12.5021
-0.000361724
12.2178
-0.00036164
11.9384
-0.000361483
11.664
-0.000361384
11.3945
-0.000361255
11.1298
-0.000361081
10.8699
-0.000360766
10.6147
-0.000360509
10.3642
-0.000360251
10.1183
-0.000360149
9.87706
-0.000360262
9.6403
-0.000360503
9.40801
-0.000360662
9.18013
-0.000360698
8.95662
-0.000360586
8.73741
-0.000360383
8.52247
-0.000360166
8.31173
-0.000359962
8.10516
-0.000359786
7.90269
-0.000359753
7.70429
-0.00035988
7.50989
-0.000360093
7.31946
-0.000360202
7.13293
-0.000360294
6.95027
-0.000360318
6.77142
-0.000360546
6.59635
-0.000360695
6.425
-0.000360825
6.25733
-0.000360649
6.09328
-0.00036043
5.93283
-0.000360006
5.77591
-0.00035964
5.62248
-0.000359042
5.47249
-0.000358291
5.3259
-0.000357215
5.18266
-0.000355993
5.04272
-0.000354584
4.90604
-0.000353204
4.77257
-0.000351712
4.64225
-0.000350153
4.51505
-0.000348299
4.39091
-0.000346103
4.26978
-0.000343333
4.15162
-0.000340009
4.03637
-0.000335998
3.924
-0.000331304
3.81446
-0.000325917
3.7077
-0.000319742
3.60367
-0.000312858
3.50233
-0.000305151
3.40363
-0.000296713
3.30752
-0.000287484
3.21395
-0.000277539
3.12289
-0.000266862
3.03429
-0.000255529
2.94809
-0.000243574
2.86425
-0.000231069
2.78273
-0.000218081
2.70349
-0.000204674
2.62648
-0.00019098
2.55165
-0.000176984
2.47897
-0.000162952
2.40839
-0.00014879
2.33987
-0.00013481
2.27337
-0.000120839
2.20885
-0.000107447
2.14627
-9.38264e-05
2.08559
-8.17135e-05
2.02677
-6.83607e-05
1.96979
-5.84917e-05
1.9146
-4.48098e-05
1.86116
-3.84852e-05
1.80946
-2.31897e-05
1.75944
-2.23722e-05
1.71111
-3.14689e-06
1.66437
-1.11247e-05
1.61927
1.70059e-05
1.57569
-6.14927e-06
1.53372
3.66932e-05
1.49318
-4.83552e-06
1.45423
5.27387e-05
1.41663
-2.67498e-06
1.38057
6.31787e-05
1.34581
6.02261e-07
1.31254
6.9298e-05
1.28051
3.32163e-06
1.24991
7.57658e-05
1.2205
2.30927e-06
1.19249
8.19031e-05
1.16558
8.92764e-07
1.14005
8.7513e-05
1.11553
-3.05695e-06
1.09238
9.78718e-05
1.07015
-6.02695e-06
1.04929
0.000127703
1.02938
9.40195e-05
1.01121
0.000524736
0.995526
0.00168362
0.98791
0.00833639
0.992679
0.0229963
1.07669
0.286621
0.356445
1.16274
15.594
-0.000468757
15.4142
-0.000349973
15.2345
-0.000343166
15.0549
-0.000352676
14.8753
-0.000359491
14.6959
-0.000366345
14.5166
-0.000373081
14.3374
-0.00037919
14.1584
-0.000384707
13.9798
-0.000389709
13.8014
-0.000394178
13.6234
-0.000398105
13.4459
-0.000401516
13.2689
-0.000404457
13.0926
-0.000406955
12.9169
-0.000409041
12.7418
-0.000410751
12.5675
-0.000412125
12.394
-0.000413215
12.2213
-0.000413832
12.0496
-0.000415003
11.8788
-0.000414919
11.709
-0.000415368
11.5402
-0.000415538
11.3725
-0.00041561
11.2059
-0.000415613
11.0404
-0.000415554
10.8761
-0.000415457
10.713
-0.000415326
10.5511
-0.000415167
10.3905
-0.000414839
10.2312
-0.000415183
10.0731