/*--------------------------------*- C++ -*----------------------------------*\
| =========                 |                                                 |
| \\      /  F ield         | OpenFOAM: The Open Source CFD Toolbox           |
|  \\    /   O peration     | Version:  3.0.x                                 |
|   \\  /    A nd           | Web:      www.OpenFOAM.org                      |
|    \\/     M anipulation  |                                                 |
\*---------------------------------------------------------------------------*/
FoamFile
{
    version     2.0;
    format      ascii;
    class       volScalarField;
    location    "0.58995";
    object      T;
}
// * * * * * * * * * * * * * * * * * * * * * * * * * * * * * * * * * * * * * //

dimensions      [0 0 0 1 0 0 0];

internalField   nonuniform List<scalar> 
13800
(
794.018
793.956
793.857
793.757
793.661
793.568
793.482
793.407
793.341
793.281
793.23
793.191
793.16
793.133
793.109
793.091
793.078
793.07
793.067
793.066
793.067
793.069
793.072
793.076
793.079
793.082
793.085
793.087
793.089
793.089
793.089
793.089
793.088
793.086
793.084
793.081
793.077
793.073
793.068
793.063
793.057
793.051
793.045
793.038
793.03
793.022
793.014
793.006
792.997
792.987
792.978
792.968
792.958
792.948
792.937
792.927
792.916
792.905
792.893
792.882
792.87
792.858
792.847
792.834
792.822
792.81
792.798
792.785
792.773
792.76
792.748
792.735
792.723
792.71
792.697
792.684
792.672
792.659
792.646
792.633
792.62
792.608
792.595
792.583
792.57
792.558
792.546
792.534
792.522
792.51
792.497
792.484
792.47
792.456
792.443
792.429
792.416
792.403
792.39
792.377
792.365
792.353
792.342
792.33
792.319
792.308
792.297
792.285
792.273
792.261
792.249
792.237
792.225
792.213
792.202
792.19
792.179
792.167
792.155
792.142
792.13
792.117
792.105
792.094
792.082
792.07
792.059
792.048
792.038
792.028
792.018
792.009
792
791.99
791.981
791.971
791.961
791.95
791.939
791.928
791.917
791.907
791.896
791.886
791.876
791.867
791.858
791.848
791.84
791.831
791.822
791.814
791.805
791.797
791.789
791.781
791.773
791.765
791.757
791.75
791.742
791.735
791.728
791.721
791.714
791.707
791.7
791.694
791.687
791.681
791.675
791.669
791.662
791.658
791.65
791.648
791.638
791.638
791.627
791.628
791.616
791.619
791.606
791.611
791.595
791.602
791.586
791.594
791.577
791.586
791.569
791.578
791.561
791.57
791.553
791.559
791.552
791.538
791.56
791.541
793.988
793.925
793.826
793.726
793.631
793.538
793.451
793.377
793.311
793.25
793.2
793.161
793.13
793.103
793.08
793.061
793.048
793.041
793.037
793.036
793.037
793.04
793.043
793.047
793.05
793.054
793.056
793.058
793.06
793.061
793.061
793.061
793.06
793.058
793.055
793.053
793.049
793.045
793.04
793.035
793.03
793.024
793.017
793.01
793.003
792.995
792.987
792.979
792.97
792.961
792.951
792.942
792.932
792.921
792.911
792.9
792.89
792.878
792.867
792.856
792.844
792.833
792.821
792.809
792.797
792.785
792.772
792.76
792.748
792.735
792.723
792.71
792.698
792.685
792.672
792.66
792.647
792.635
792.622
792.609
792.596
792.584
792.571
792.559
792.547
792.534
792.523
792.511
792.499
792.487
792.474
792.461
792.448
792.434
792.42
792.407
792.394
792.381
792.368
792.355
792.343
792.331
792.319
792.308
792.297
792.286
792.275
792.264
792.252
792.24
792.228
792.216
792.204
792.192
792.181
792.17
792.158
792.146
792.135
792.122
792.11
792.098
792.086
792.074
792.062
792.051
792.04
792.029
792.018
792.008
791.999
791.989
791.98
791.971
791.962
791.952
791.942
791.932
791.921
791.91
791.899
791.889
791.878
791.868
791.859
791.849
791.84
791.831
791.822
791.813
791.804
791.796
791.788
791.78
791.772
791.764
791.756
791.748
791.74
791.733
791.725
791.718
791.711
791.704
791.697
791.69
791.684
791.677
791.671
791.665
791.658
791.653
791.646
791.641
791.633
791.631
791.622
791.621
791.61
791.611
791.6
791.602
791.589
791.593
791.579
791.585
791.57
791.577
791.561
791.568
791.553
791.56
791.545
791.552
791.538
791.545
791.53
791.537
791.527
791.536
793.988
793.925
793.826
793.726
793.631
793.537
793.451
793.377
793.311
793.25
793.2
793.161
793.13
793.103
793.079
793.061
793.048
793.041
793.037
793.036
793.037
793.04
793.043
793.047
793.05
793.053
793.056
793.058
793.06
793.061
793.061
793.061
793.059
793.058
793.055
793.052
793.049
793.045
793.04
793.035
793.03
793.024
793.017
793.01
793.003
792.995
792.987
792.979
792.97
792.961
792.951
792.942
792.932
792.921
792.911
792.9
792.889
792.878
792.867
792.856
792.844
792.833
792.821
792.809
792.797
792.785
792.772
792.76
792.748
792.735
792.723
792.71
792.698
792.685
792.672
792.66
792.647
792.635
792.622
792.609
792.596
792.584
792.571
792.559
792.546
792.534
792.523
792.511
792.499
792.487
792.474
792.461
792.447
792.434
792.42
792.407
792.394
792.38
792.368
792.355
792.343
792.331
792.319
792.308
792.297
792.286
792.275
792.264
792.252
792.24
792.228
792.216
792.204
792.192
792.181
792.169
792.158
792.146
792.134
792.122
792.11
792.098
792.086
792.074
792.062
792.051
792.039
792.029
792.018
792.008
791.998
791.989
791.98
791.971
791.961
791.952
791.942
791.932
791.921
791.91
791.899
791.889
791.878
791.868
791.859
791.849
791.84
791.831
791.822
791.813
791.804
791.796
791.788
791.779
791.771
791.763
791.756
791.748
791.74
791.733
791.725
791.718
791.711
791.704
791.697
791.69
791.684
791.677
791.671
791.665
791.658
791.653
791.645
791.641
791.633
791.631
791.622
791.621
791.61
791.611
791.6
791.602
791.589
791.593
791.579
791.585
791.57
791.577
791.561
791.568
791.553
791.56
791.545
791.552
791.538
791.545
791.53
791.537
791.525
791.53
793.988
793.925
793.827
793.727
793.631
793.538
793.452
793.377
793.311
793.251
793.2
793.161
793.13
793.103
793.08
793.061
793.049
793.041
793.037
793.037
793.038
793.04
793.043
793.047
793.05
793.054
793.056
793.059
793.06
793.061
793.061
793.061
793.06
793.058
793.056
793.053
793.049
793.045
793.041
793.035
793.03
793.024
793.017
793.01
793.003
792.995
792.987
792.979
792.97
792.961
792.951
792.942
792.932
792.922
792.911
792.9
792.89
792.879
792.867
792.856
792.844
792.833
792.821
792.809
792.797
792.785
792.772
792.76
792.748
792.735
792.723
792.71
792.698
792.685
792.672
792.66
792.647
792.635
792.622
792.609
792.596
792.584
792.571
792.559
792.547
792.535
792.523
792.511
792.499
792.487
792.474
792.461
792.448
792.434
792.42
792.407
792.394
792.381
792.368
792.355
792.343
792.331
792.319
792.308
792.297
792.286
792.275
792.264
792.252
792.24
792.228
792.216
792.204
792.192
792.181
792.17
792.158
792.146
792.135
792.122
792.11
792.098
792.086
792.074
792.062
792.051
792.039
792.029
792.018
792.008
791.999
791.989
791.98
791.971
791.961
791.952
791.942
791.932
791.921
791.91
791.899
791.889
791.878
791.868
791.859
791.849
791.84
791.831
791.822
791.813
791.804
791.796
791.788
791.779
791.771
791.763
791.756
791.748
791.74
791.733
791.725
791.718
791.711
791.704
791.697
791.69
791.684
791.677
791.671
791.665
791.658
791.653
791.645
791.641
791.633
791.631
791.622
791.621
791.61
791.611
791.6
791.602
791.589
791.593
791.579
791.585
791.57
791.577
791.561
791.568
791.553
791.56
791.545
791.552
791.538
791.545
791.53
791.537
791.524
791.525
793.988
793.926
793.827
793.727
793.631
793.538
793.452
793.378
793.311
793.251
793.201
793.161
793.13
793.103
793.08
793.061
793.049
793.041
793.038
793.037
793.038
793.04
793.044
793.047
793.051
793.054
793.057
793.059
793.06
793.061
793.061
793.061
793.06
793.058
793.056
793.053
793.049
793.045
793.041
793.036
793.03
793.024
793.017
793.011
793.003
792.995
792.987
792.979
792.97
792.961
792.952
792.942
792.932
792.922
792.911
792.901
792.89
792.879
792.867
792.856
792.845
792.833
792.821
792.809
792.797
792.785
792.773
792.76
792.748
792.735
792.723
792.71
792.698
792.685
792.673
792.66
792.647
792.635
792.622
792.609
792.596
792.584
792.571
792.559
792.547
792.535
792.523
792.511
792.499
792.487
792.474
792.461
792.448
792.434
792.42
792.407
792.394
792.381
792.368
792.355
792.343
792.331
792.32
792.308
792.297
792.286
792.275
792.264
792.252
792.24
792.228
792.216
792.204
792.193
792.181
792.17
792.158
792.146
792.135
792.122
792.11
792.098
792.086
792.074
792.062
792.051
792.04
792.029
792.018
792.008
791.999
791.989
791.98
791.971
791.961
791.952
791.942
791.932
791.921
791.91
791.899
791.889
791.878
791.868
791.859
791.849
791.84
791.831
791.822
791.813
791.804
791.796
791.788
791.78
791.771
791.763
791.756
791.748
791.74
791.733
791.725
791.718
791.711
791.704
791.697
791.69
791.684
791.677
791.67
791.665
791.658
791.653
791.645
791.642
791.633
791.631
791.622
791.621
791.61
791.611
791.6
791.602
791.589
791.594
791.579
791.585
791.57
791.577
791.561
791.568
791.553
791.56
791.545
791.552
791.538
791.545
791.53
791.537
791.524
791.531
793.988
793.926
793.827
793.727
793.631
793.538
793.452
793.378
793.311
793.251
793.201
793.161
793.13
793.103
793.08
793.061
793.049
793.041
793.038
793.037
793.038
793.04
793.044
793.047
793.051
793.054
793.057
793.059
793.06
793.061
793.061
793.061
793.06
793.058
793.056
793.053
793.049
793.045
793.041
793.036
793.03
793.024
793.017
793.011
793.003
792.995
792.987
792.979
792.97
792.961
792.952
792.942
792.932
792.922
792.911
792.901
792.89
792.879
792.867
792.856
792.845
792.833
792.821
792.809
792.797
792.785
792.773
792.76
792.748
792.735
792.723
792.71
792.698
792.685
792.673
792.66
792.647
792.635
792.622
792.609
792.596
792.584
792.571
792.559
792.547
792.535
792.523
792.511
792.499
792.487
792.474
792.461
792.448
792.434
792.42
792.407
792.394
792.381
792.368
792.355
792.343
792.331
792.32
792.308
792.297
792.286
792.275
792.264
792.252
792.24
792.228
792.216
792.204
792.193
792.181
792.17
792.158
792.146
792.135
792.122
792.11
792.098
792.086
792.074
792.062
792.051
792.04
792.029
792.018
792.008
791.999
791.989
791.98
791.971
791.961
791.952
791.942
791.932
791.921
791.91
791.899
791.889
791.878
791.868
791.859
791.849
791.84
791.831
791.822
791.813
791.804
791.796
791.788
791.78
791.771
791.763
791.756
791.748
791.74
791.733
791.725
791.718
791.711
791.704
791.697
791.69
791.684
791.677
791.671
791.664
791.658
791.652
791.646
791.641
791.634
791.63
791.623
791.62
791.612
791.609
791.603
791.596
791.597
791.584
791.59
791.575
791.58
791.566
791.569
791.561
791.556
791.56
791.544
791.553
791.539
791.54
791.534
791.536
791.525
791.521
793.988
793.925
793.827
793.727
793.631
793.538
793.452
793.377
793.311
793.251
793.2
793.161
793.13
793.103
793.08
793.061
793.049
793.041
793.037
793.037
793.038
793.04
793.043
793.047
793.05
793.054
793.056
793.059
793.06
793.061
793.061
793.061
793.06
793.058
793.056
793.053
793.049
793.045
793.041
793.035
793.03
793.024
793.017
793.01
793.003
792.995
792.987
792.979
792.97
792.961
792.951
792.942
792.932
792.922
792.911
792.9
792.89
792.879
792.867
792.856
792.844
792.833
792.821
792.809
792.797
792.785
792.772
792.76
792.748
792.735
792.723
792.71
792.698
792.685
792.672
792.66
792.647
792.635
792.622
792.609
792.596
792.584
792.571
792.559
792.547
792.535
792.523
792.511
792.499
792.487
792.474
792.461
792.448
792.434
792.42
792.407
792.394
792.381
792.368
792.355
792.343
792.331
792.319
792.308
792.297
792.286
792.275
792.264
792.252
792.24
792.228
792.216
792.204
792.192
792.181
792.17
792.158
792.146
792.135
792.122
792.11
792.098
792.086
792.074
792.062
792.051
792.039
792.029
792.018
792.008
791.999
791.989
791.98
791.971
791.961
791.952
791.942
791.932
791.921
791.91
791.899
791.889
791.878
791.868
791.859
791.849
791.84
791.831
791.822
791.813
791.804
791.796
791.788
791.779
791.771
791.763
791.756
791.748
791.74
791.733
791.725
791.718
791.711
791.704
791.697
791.69
791.684
791.677
791.671
791.664
791.658
791.652
791.647
791.639
791.636
791.627
791.626
791.615
791.617
791.604
791.607
791.594
791.598
791.584
791.589
791.575
791.58
791.566
791.573
791.557
791.564
791.55
791.556
791.542
791.549
791.534
791.541
791.527
791.529
791.521
793.988
793.925
793.826
793.726
793.631
793.537
793.451
793.377
793.311
793.25
793.2
793.161
793.13
793.103
793.079
793.061
793.048
793.041
793.037
793.036
793.037
793.04
793.043
793.047
793.05
793.053
793.056
793.058
793.06
793.061
793.061
793.061
793.059
793.058
793.055
793.052
793.049
793.045
793.04
793.035
793.03
793.024
793.017
793.01
793.003
792.995
792.987
792.979
792.97
792.961
792.951
792.942
792.932
792.921
792.911
792.9
792.889
792.878
792.867
792.856
792.844
792.833
792.821
792.809
792.797
792.785
792.772
792.76
792.748
792.735
792.723
792.71
792.698
792.685
792.672
792.66
792.647
792.635
792.622
792.609
792.596
792.584
792.571
792.559
792.546
792.534
792.523
792.511
792.499
792.487
792.474
792.461
792.447
792.434
792.42
792.407
792.394
792.38
792.368
792.355
792.343
792.331
792.319
792.308
792.297
792.286
792.275
792.264
792.252
792.24
792.228
792.216
792.204
792.192
792.181
792.169
792.158
792.146
792.134
792.122
792.11
792.098
792.086
792.074
792.062
792.051
792.039
792.029
792.018
792.008
791.998
791.989
791.98
791.971
791.961
791.952
791.942
791.932
791.921
791.91
791.899
791.889
791.878
791.868
791.859
791.849
791.84
791.831
791.822
791.813
791.804
791.796
791.788
791.779
791.771
791.763
791.756
791.748
791.74
791.733
791.725
791.718
791.711
791.704
791.697
791.69
791.684
791.677
791.671
791.664
791.659
791.652
791.647
791.639
791.636
791.627
791.626
791.615
791.617
791.604
791.607
791.594
791.598
791.584
791.59
791.574
791.581
791.566
791.572
791.557
791.564
791.549
791.556
791.542
791.548
791.534
791.542
791.527
791.537
791.526
793.988
793.925
793.826
793.726
793.631
793.538
793.451
793.377
793.311
793.25
793.2
793.161
793.13
793.103
793.08
793.061
793.048
793.041
793.037
793.036
793.037
793.04
793.043
793.047
793.05
793.054
793.056
793.058
793.06
793.061
793.061
793.061
793.06
793.058
793.055
793.053
793.049
793.045
793.04
793.035
793.03
793.024
793.017
793.01
793.003
792.995
792.987
792.979
792.97
792.961
792.951
792.942
792.932
792.921
792.911
792.9
792.89
792.878
792.867
792.856
792.844
792.833
792.821
792.809
792.797
792.785
792.772
792.76
792.748
792.735
792.723
792.71
792.698
792.685
792.672
792.66
792.647
792.635
792.622
792.609
792.596
792.584
792.571
792.559
792.547
792.534
792.523
792.511
792.499
792.487
792.474
792.461
792.448
792.434
792.42
792.407
792.394
792.381
792.368
792.355
792.343
792.331
792.319
792.308
792.297
792.286
792.275
792.264
792.252
792.24
792.228
792.216
792.204
792.192
792.181
792.17
792.158
792.146
792.135
792.122
792.11
792.098
792.086
792.074
792.062
792.051
792.04
792.029
792.018
792.008
791.999
791.989
791.98
791.971
791.962
791.952
791.942
791.932
791.921
791.91
791.899
791.889
791.878
791.868
791.859
791.849
791.84
791.831
791.822
791.813
791.804
791.796
791.788
791.78
791.771
791.764
791.756
791.748
791.74
791.733
791.725
791.718
791.711
791.704
791.697
791.69
791.684
791.677
791.671
791.664
791.659
791.652
791.647
791.639
791.636
791.627
791.627
791.615
791.617
791.604
791.607
791.594
791.598
791.584
791.59
791.574
791.581
791.566
791.572
791.557
791.564
791.549
791.556
791.542
791.549
791.534
791.542
791.527
791.539
791.532
794.018
793.956
793.857
793.757
793.661
793.568
793.482
793.407
793.341
793.281
793.23
793.191
793.16
793.133
793.109
793.091
793.078
793.07
793.067
793.066
793.067
793.069
793.072
793.076
793.079
793.082
793.085
793.087
793.089
793.089
793.089
793.089
793.088
793.086
793.084
793.081
793.077
793.073
793.068
793.063
793.057
793.051
793.045
793.038
793.03
793.022
793.014
793.006
792.997
792.987
792.978
792.968
792.958
792.948
792.937
792.927
792.916
792.905
792.893
792.882
792.87
792.858
792.847
792.834
792.822
792.81
792.798
792.785
792.773
792.76
792.748
792.735
792.723
792.71
792.697
792.684
792.672
792.659
792.646
792.633
792.62
792.608
792.595
792.583
792.57
792.558
792.546
792.534
792.522
792.51
792.497
792.484
792.47
792.456
792.443
792.429
792.416
792.403
792.39
792.377
792.365
792.353
792.342
792.33
792.319
792.308
792.297
792.285
792.273
792.261
792.249
792.237
792.225
792.213
792.202
792.19
792.179
792.167
792.155
792.142
792.13
792.117
792.105
792.094
792.082
792.07
792.059
792.048
792.038
792.028
792.018
792.009
792
791.99
791.981
791.971
791.961
791.95
791.939
791.928
791.917
791.907
791.896
791.886
791.876
791.867
791.858
791.849
791.84
791.831
791.822
791.814
791.805
791.797
791.789
791.781
791.773
791.765
791.757
791.75
791.742
791.735
791.728
791.721
791.714
791.707
791.7
791.694
791.688
791.681
791.675
791.668
791.664
791.656
791.653
791.644
791.643
791.632
791.634
791.621
791.624
791.61
791.615
791.6
791.607
791.59
791.598
791.581
791.59
791.573
791.582
791.565
791.574
791.557
791.566
791.549
791.56
791.541
791.561
791.549
791.533
791.533
791.535
791.538
791.548
791.563
791.581
791.597
791.608
791.613
791.615
791.615
791.615
791.614
791.613
791.613
791.613
791.613
791.614
791.612
791.535
791.536
791.538
791.54
791.543
791.546
791.551
791.558
791.565
791.572
791.578
791.584
791.589
791.592
791.594
791.594
791.593
791.592
791.591
791.59
791.54
791.543
791.542
791.544
791.545
791.546
791.55
791.552
791.558
791.562
791.57
791.575
791.581
791.584
791.588
791.589
791.59
791.59
791.588
791.587
791.531
791.531
791.531
791.531
791.532
791.533
791.536
791.538
791.541
791.542
791.545
791.548
791.553
791.558
791.566
791.572
791.58
791.583
791.587
791.59
791.532
791.531
791.53
791.528
791.527
791.526
791.525
791.525
791.524
791.523
791.524
791.523
791.522
791.522
791.522
791.522
791.523
791.524
791.523
791.522
791.524
791.524
791.525
791.524
791.524
791.524
791.525
791.525
791.527
791.528
791.531
791.533
791.535
791.537
791.541
791.546
791.554
791.561
791.567
791.57
791.519
791.519
791.519
791.518
791.517
791.516
791.515
791.513
791.512
791.51
791.509
791.508
791.507
791.506
791.504
791.502
791.498
791.492
791.486
791.481
791.519
791.518
791.518
791.518
791.518
791.518
791.517
791.517
791.516
791.515
791.515
791.514
791.513
791.51
791.505
791.497
791.484
791.468
791.453
791.449
791.527
791.525
791.524
791.523
791.522
791.52
791.518
791.516
791.514
791.511
791.508
791.505
791.5
791.494
791.485
791.476
791.463
791.449
791.446
791.449
791.541
791.539
791.538
791.536
791.534
791.532
791.529
791.525
791.521
791.515
791.509
791.503
791.496
791.488
791.48
791.47
791.456
791.447
791.46
791.493
791.609
791.617
791.615
791.602
791.584
791.577
791.577
791.577
791.572
791.563
791.553
791.547
791.544
791.545
791.546
791.546
791.543
791.539
791.534
791.531
791.529
791.527
791.525
791.523
791.522
791.52
791.518
791.516
791.515
791.514
791.512
791.511
791.51
791.509
791.508
791.507
791.506
791.505
791.504
791.503
791.502
791.501
791.5
791.499
791.499
791.498
791.497
791.497
791.496
791.496
791.496
791.496
791.495
791.495
791.494
791.493
791.493
791.492
791.492
791.491
791.491
791.49
791.49
791.49
791.49
791.49
791.489
791.489
791.489
791.489
791.489
791.489
791.489
791.49
791.49
791.49
791.49
791.49
791.49
791.489
791.489
791.488
791.488
791.488
791.489
791.489
791.489
791.489
791.49
791.49
791.489
791.489
791.489
791.489
791.489
791.489
791.49
791.49
791.49
791.49
791.49
791.49
791.49
791.49
791.49
791.491
791.491
791.492
791.493
791.494
791.495
791.495
791.496
791.497
791.497
791.497
791.498
791.499
791.499
791.5
791.501
791.501
791.502
791.502
791.503
791.503
791.504
791.505
791.507
791.508
791.51
791.511
791.512
791.513
791.515
791.516
791.517
791.518
791.52
791.521
791.523
791.525
791.526
791.527
791.528
791.528
791.528
791.528
791.528
791.53
791.531
791.532
791.532
791.529
791.524
791.518
791.51
791.501
791.495
791.494
791.503
791.51
791.495
791.467
791.43
791.405
791.413
791.521
791.852
792.282
792.721
793.15
793.546
793.897
794.194
794.429
794.576
794.627
794.64
794.63
794.549
794.234
793.686
793.157
792.691
792.314
792.041
791.845
791.709
791.603
791.533
791.483
791.471
791.466
791.476
791.477
791.486
791.484
791.493
791.493
791.583
791.576
791.577
791.572
791.56
791.548
791.542
791.541
791.537
791.53
791.519
791.509
791.502
791.498
791.497
791.497
791.496
791.493
791.489
791.484
791.48
791.477
791.474
791.472
791.47
791.468
791.466
791.464
791.462
791.461
791.459
791.458
791.457
791.456
791.454
791.453
791.452
791.451
791.45
791.449
791.448
791.448
791.447
791.446
791.445
791.444
791.443
791.443
791.442
791.441
791.441
791.441
791.441
791.44
791.44
791.44
791.439
791.438
791.438
791.437
791.436
791.436
791.435
791.435
791.435
791.435
791.435
791.435
791.434
791.434
791.434
791.434
791.434
791.434
791.434
791.434
791.435
791.435
791.435
791.435
791.435
791.434
791.434
791.433
791.433
791.433
791.433
791.433
791.434
791.434
791.434
791.434
791.434
791.434
791.434
791.434
791.434
791.434
791.434
791.435
791.435
791.435
791.435
791.435
791.435
791.435
791.435
791.436
791.436
791.437
791.438
791.439
791.44
791.44
791.441
791.442
791.442
791.443
791.444
791.444
791.445
791.445
791.446
791.447
791.448
791.449
791.449
791.45
791.451
791.452
791.453
791.454
791.456
791.457
791.459
791.461
791.462
791.463
791.465
791.466
791.468
791.469
791.471
791.473
791.475
791.476
791.477
791.478
791.48
791.48
791.481
791.483
791.483
791.482
791.482
791.481
791.477
791.473
791.471
791.473
791.477
791.48
791.482
791.477
791.46
791.422
791.383
791.354
791.326
791.293
791.248
791.202
791.164
791.151
791.161
791.212
791.314
791.423
791.538
791.654
791.754
791.853
791.914
791.932
791.931
791.904
791.838
791.758
791.681
791.604
791.55
791.507
791.489
791.474
791.473
791.47
791.474
791.472
791.477
791.48
791.582
791.576
791.578
791.574
791.565
791.554
791.55
791.548
791.545
791.537
791.527
791.517
791.511
791.509
791.508
791.508
791.505
791.5
791.496
791.492
791.489
791.486
791.484
791.482
791.48
791.478
791.476
791.474
791.472
791.471
791.47
791.468
791.467
791.466
791.465
791.464
791.463
791.462
791.461
791.46
791.459
791.458
791.457
791.457
791.456
791.455
791.454
791.453
791.453
791.452
791.452
791.452
791.451
791.451
791.451
791.45
791.45
791.449
791.448
791.448
791.447
791.447
791.446
791.446
791.446
791.445
791.445
791.445
791.445
791.445
791.445
791.444
791.444
791.444
791.445
791.445
791.445
791.445
791.445
791.445
791.445
791.445
791.444
791.444
791.444
791.444
791.444
791.444
791.444
791.444
791.445
791.445
791.445
791.444
791.444
791.444
791.444
791.444
791.445
791.445
791.445
791.446
791.446
791.446
791.445
791.445
791.445
791.446
791.446
791.447
791.448
791.449
791.45
791.451
791.451
791.452
791.452
791.453
791.453
791.454
791.454
791.455
791.456
791.456
791.457
791.457
791.458
791.459
791.459
791.46
791.461
791.463
791.464
791.466
791.467
791.469
791.47
791.471
791.472
791.474
791.475
791.477
791.478
791.48
791.482
791.483
791.484
791.485
791.487
791.488
791.489
791.49
791.491
791.492
791.491
791.487
791.486
791.483
791.479
791.484
791.493
791.497
791.496
791.482
791.454
791.408
791.356
791.31
791.271
791.234
791.2
791.167
791.147
791.134
791.145
791.169
791.228
791.276
791.35
791.401
791.476
791.519
791.578
791.606
791.629
791.632
791.625
791.603
791.578
791.547
791.526
791.501
791.492
791.479
791.478
791.474
791.477
791.475
791.48
791.481
791.585
791.585
791.591
791.6
791.603
791.602
791.6
791.602
791.606
791.609
791.608
791.604
791.601
791.6
791.601
791.602
791.604
791.604
791.602
791.6
791.597
791.595
791.593
791.591
791.59
791.588
791.587
791.586
791.585
791.583
791.582
791.581
791.58
791.579
791.578
791.576
791.575
791.574
791.573
791.573
791.572
791.571
791.57
791.569
791.568
791.567
791.567
791.566
791.566
791.565
791.565
791.565
791.564
791.564
791.563
791.563
791.562
791.562
791.561
791.56
791.56
791.559
791.559
791.559
791.558
791.558
791.558
791.558
791.558
791.558
791.558
791.558
791.558
791.558
791.558
791.558
791.558
791.558
791.558
791.557
791.557
791.557
791.557
791.557
791.557
791.557
791.557
791.557
791.558
791.558
791.557
791.557
791.557
791.557
791.557
791.557
791.557
791.557
791.557
791.557
791.557
791.557
791.557
791.557
791.558
791.558
791.559
791.56
791.56
791.561
791.562
791.562
791.563
791.563
791.564
791.564
791.565
791.565
791.566
791.566
791.567
791.567
791.568
791.568
791.569
791.57
791.571
791.572
791.573
791.575
791.576
791.577
791.578
791.579
791.58
791.582
791.583
791.584
791.585
791.587
791.588
791.589
791.588
791.588
791.589
791.59
791.59
791.592
791.592
791.589
791.586
791.583
791.577
791.572
791.571
791.571
791.571
791.572
791.573
791.568
791.555
791.535
791.51
791.486
791.464
791.446
791.428
791.41
791.395
791.383
791.379
791.378
791.391
791.399
791.422
791.435
791.457
791.474
791.493
791.506
791.52
791.522
791.531
791.525
791.527
791.52
791.515
791.505
791.502
791.493
791.492
791.485
791.487
791.482
791.486
791.482
791.487
791.484
791.486
791.486
791.52
791.523
791.527
791.528
791.528
791.529
791.527
791.522
791.513
791.504
791.495
791.488
791.483
791.479
791.477
791.476
791.473
791.471
791.468
791.466
791.464
791.462
791.461
791.459
791.457
791.455
791.453
791.451
791.449
791.447
791.445
791.444
791.442
791.441
791.44
791.439
791.438
791.436
791.435
791.435
791.434
791.433
791.432
791.431
791.43
791.43
791.429
791.428
791.428
791.427
791.426
791.426
791.425
791.425
791.424
791.424
791.424
791.423
791.423
791.423
791.423
791.422
791.422
791.422
791.421
791.421
791.42
791.42
791.42
791.42
791.42
791.42
791.42
791.42
791.419
791.419
791.419
791.419
791.419
791.419
791.419
791.42
791.42
791.42
791.42
791.42
791.42
791.42
791.42
791.419
791.419
791.42
791.42
791.42
791.42
791.42
791.421
791.421
791.421
791.421
791.421
791.421
791.421
791.421
791.422
791.422
791.422
791.423
791.423
791.423
791.423
791.424
791.424
791.425
791.425
791.426
791.427
791.428
791.429
791.43
791.431
791.432
791.433
791.434
791.435
791.436
791.437
791.438
791.439
791.44
791.442
791.443
791.444
791.446
791.447
791.449
791.451
791.452
791.454
791.456
791.458
791.459
791.461
791.463
791.465
791.467
791.469
791.471
791.473
791.474
791.476
791.478
791.48
791.481
791.483
791.484
791.486
791.487
791.486
791.486
791.487
791.49
791.493
791.493
791.491
791.486
791.478
791.469
791.459
791.451
791.445
791.443
791.44
791.445
791.444
791.455
791.456
791.464
791.469
791.473
791.48
791.481
791.486
791.485
791.488
791.488
791.486
791.49
791.485
791.49
791.486
791.488
791.489
791.487
791.49
791.489
791.49
791.489
791.492
791.491
791.571
791.605
791.643
791.678
791.708
791.733
791.754
791.771
791.784
791.796
791.805
791.812
791.818
791.822
791.825
791.827
791.828
791.828
791.828
791.827
791.826
791.825
791.824
791.822
791.821
791.82
791.819
791.818
791.816
791.815
791.814
791.813
791.812
791.811
791.81
791.809
791.808
791.807
791.807
791.806
791.805
791.804
791.803
791.802
791.802
791.802
791.801
791.801
791.801
791.8
791.799
791.798
791.798
791.797
791.795
791.795
791.794
791.793
791.793
791.793
791.792
791.792
791.791
791.791
791.791
791.791
791.791
791.791
791.791
791.791
791.791
791.79
791.79
791.789
791.788
791.788
791.787
791.787
791.787
791.787
791.787
791.787
791.787
791.786
791.786
791.785
791.785
791.784
791.784
791.784
791.784
791.784
791.784
791.783
791.783
791.783
791.783
791.784
791.784
791.785
791.786
791.786
791.787
791.787
791.787
791.787
791.787
791.787
791.787
791.787
791.787
791.786
791.786
791.785
791.784
791.783
791.782
791.781
791.78
791.779
791.778
791.777
791.775
791.774
791.772
791.77
791.768
791.766
791.764
791.761
791.757
791.754
791.75
791.747
791.744
791.741
791.738
791.736
791.733
791.729
791.724
791.719
791.712
791.705
791.698
791.69
791.683
791.677
791.673
791.67
791.669
791.668
791.667
791.664
791.658
791.648
791.634
791.616
791.596
791.575
791.553
791.53
791.507
791.487
791.468
791.453
791.438
791.428
791.416
791.41
791.402
791.402
791.398
791.401
791.398
791.406
791.406
791.422
791.427
791.449
791.454
791.476
791.476
791.494
791.49
791.503
791.496
791.506
791.498
791.507
791.498
791.506
791.497
791.504
791.496
791.502
791.495
791.501
791.495
791.498
791.467
791.456
791.442
791.429
791.419
791.412
791.407
791.403
791.398
791.393
791.387
791.38
791.374
791.368
791.362
791.356
791.351
791.345
791.339
791.334
791.329
791.324
791.319
791.315
791.31
791.307
791.303
791.3
791.296
791.293
791.29
791.287
791.284
791.282
791.279
791.276
791.274
791.272
791.27
791.268
791.267
791.266
791.264
791.263
791.262
791.261
791.26
791.259
791.258
791.258
791.257
791.256
791.256
791.255
791.255
791.254
791.254
791.254
791.253
791.253
791.252
791.252
791.252
791.252
791.252
791.252
791.252
791.252
791.252
791.252
791.252
791.252
791.252
791.252
791.252
791.252
791.252
791.252
791.252
791.252
791.253
791.253
791.253
791.253
791.253
791.253
791.253
791.253
791.253
791.254
791.254
791.254
791.255
791.255
791.256
791.256
791.256
791.256
791.256
791.256
791.256
791.256
791.256
791.257
791.257
791.258
791.259
791.259
791.26
791.26
791.26
791.261
791.261
791.261
791.262
791.262
791.263
791.264
791.265
791.265
791.266
791.268
791.268
791.269
791.27
791.271
791.271
791.272
791.272
791.273
791.275
791.276
791.277
791.279
791.28
791.281
791.282
791.283
791.285
791.286
791.287
791.288
791.289
791.291
791.292
791.294
791.296
791.297
791.298
791.299
791.301
791.302
791.303
791.303
791.303
791.303
791.304
791.307
791.309
791.31
791.311
791.313
791.315
791.319
791.323
791.326
791.328
791.329
791.331
791.338
791.347
791.363
791.377
791.382
791.382
791.372
791.343
791.317
791.304
791.308
791.323
791.36
791.38
791.418
791.43
791.457
791.462
791.479
791.479
791.491
791.488
791.497
791.492
791.5
791.494
791.5
791.494
791.496
791.496
791.497
791.445
791.47
791.501
791.537
791.577
791.618
791.654
791.686
791.714
791.737
791.757
791.773
791.787
791.798
791.806
791.812
791.817
791.819
791.82
791.82
791.819
791.818
791.817
791.815
791.814
791.812
791.811
791.809
791.808
791.807
791.805
791.804
791.803
791.802
791.801
791.799
791.798
791.797
791.796
791.795
791.794
791.793
791.792
791.791
791.79
791.79
791.79
791.79
791.79
791.789
791.788
791.787
791.786
791.784
791.783
791.782
791.781
791.78
791.779
791.778
791.776
791.775
791.773
791.772
791.771
791.77
791.769
791.769
791.768
791.767
791.765
791.764
791.762
791.76
791.758
791.756
791.755
791.753
791.752
791.751
791.75
791.748
791.746
791.744
791.742
791.741
791.739
791.738
791.737
791.736
791.735
791.734
791.733
791.732
791.73
791.729
791.729
791.729
791.729
791.73
791.732
791.733
791.734
791.735
791.736