/*--------------------------------*- C++ -*----------------------------------*\
| =========                 |                                                 |
| \\      /  F ield         | OpenFOAM: The Open Source CFD Toolbox           |
|  \\    /   O peration     | Version:  3.0.x                                 |
|   \\  /    A nd           | Web:      www.OpenFOAM.org                      |
|    \\/     M anipulation  |                                                 |
\*---------------------------------------------------------------------------*/
FoamFile
{
    version     2.0;
    format      ascii;
    class       volVectorField;
    location    "0.58995";
    object      U;
}
// * * * * * * * * * * * * * * * * * * * * * * * * * * * * * * * * * * * * * //

dimensions      [0 1 -1 0 0 0 0];

internalField   nonuniform List<vector> 
13800
(
(75.8889 0.000127327 0)
(75.0536 0.000113876 0)
(74.0232 0.000115172 0)
(73.0645 0.000119321 0)
(72.1744 0.000123243 0)
(71.2986 0.000126902 0)
(70.4163 0.000130231 0)
(69.5303 0.000133182 0)
(68.6462 0.000135791 0)
(67.7658 0.000138099 0)
(66.8888 0.000140124 0)
(66.0149 0.000141883 0)
(65.1443 0.0001434 0)
(64.2772 0.000144699 0)
(63.4138 0.000145802 0)
(62.5545 0.000146726 0)
(61.6993 0.000147491 0)
(60.8484 0.000148115 0)
(60.0021 0.000148618 0)
(59.1604 0.000148977 0)
(58.3236 0.000149398 0)
(57.4917 0.000149523 0)
(56.6651 0.000149736 0)
(55.8437 0.000149863 0)
(55.0278 0.00014995 0)
(54.2174 0.000150008 0)
(53.4128 0.00015004 0)
(52.614 0.000150056 0)
(51.8212 0.000150057 0)
(51.0344 0.000150047 0)
(50.2539 0.000149995 0)
(49.4795 0.000150092 0)
(48.7116 0.000149921 0)
(47.9501 0.000149965 0)
(47.1952 0.000149916 0)
(46.4469 0.00014988 0)
(45.7054 0.000149844 0)
(44.9705 0.000149806 0)
(44.2426 0.000149764 0)
(43.5215 0.000149728 0)
(42.8075 0.00014969 0)
(42.1004 0.000149649 0)
(41.4004 0.00014961 0)
(40.7074 0.000149575 0)
(40.0216 0.00014953 0)
(39.343 0.000149497 0)
(38.6716 0.000149455 0)
(38.0074 0.000149425 0)
(37.3505 0.000149386 0)
(36.7008 0.000149358 0)
(36.0584 0.000149322 0)
(35.4233 0.000149292 0)
(34.7955 0.000149264 0)
(34.175 0.000149233 0)
(33.5618 0.000149204 0)
(32.9559 0.000149182 0)
(32.3573 0.00014915 0)
(31.766 0.000149129 0)
(31.1819 0.000149108 0)
(30.6051 0.000149085 0)
(30.0355 0.000149069 0)
(29.4732 0.000149047 0)
(28.918 0.000149041 0)
(28.3701 0.000149023 0)
(27.8292 0.000149011 0)
(27.2955 0.000149003 0)
(26.7689 0.000148995 0)
(26.2493 0.000148992 0)
(25.7368 0.000148984 0)
(25.2312 0.000148986 0)
(24.7326 0.000148982 0)
(24.2409 0.000148986 0)
(23.7561 0.000148983 0)
(23.2781 0.000148979 0)
(22.8069 0.00014898 0)
(22.3425 0.000148976 0)
(21.8848 0.00014899 0)
(21.4337 0.00014903 0)
(20.9893 0.000149073 0)
(20.5514 0.000149094 0)
(20.1201 0.000149106 0)
(19.6952 0.000149091 0)
(19.2767 0.000149091 0)
(18.8647 0.000149088 0)
(18.459 0.000149095 0)
(18.0595 0.000149109 0)
(17.6662 0.000149114 0)
(17.2792 0.000149116 0)
(16.8982 0.000149102 0)
(16.5233 0.000149115 0)
(16.1544 0.000149157 0)
(15.7914 0.000149218 0)
(15.4344 0.000149287 0)
(15.0831 0.000149365 0)
(14.7377 0.000149433 0)
(14.3979 0.000149539 0)
(14.0638 0.000149634 0)
(13.7354 0.000149723 0)
(13.4124 0.000149795 0)
(13.095 0.000149835 0)
(12.7831 0.000149852 0)
(12.4765 0.000149875 0)
(12.1752 0.000149899 0)
(11.8792 0.000149903 0)
(11.5885 0.000149874 0)
(11.3029 0.00014984 0)
(11.0224 0.000149813 0)
(10.747 0.000149825 0)
(10.4765 0.000149915 0)
(10.2111 0.00015005 0)
(9.95046 0.000150174 0)
(9.69469 0.000150253 0)
(9.44369 0.000150278 0)
(9.1974 0.000150265 0)
(8.95578 0.00015024 0)
(8.71877 0.000150219 0)
(8.4863 0.000150206 0)
(8.25834 0.00015024 0)
(8.03482 0.000150329 0)
(7.81568 0.000150445 0)
(7.60088 0.000150544 0)
(7.39037 0.000150617 0)
(7.18408 0.000150689 0)
(6.98199 0.000150797 0)
(6.78402 0.000150919 0)
(6.59014 0.000151003 0)
(6.40029 0.000151018 0)
(6.21443 0.000150973 0)
(6.0325 0.000150888 0)
(5.85447 0.000150787 0)
(5.68027 0.000150642 0)
(5.50987 0.000150422 0)
(5.3432 0.00015011 0)
(5.18022 0.00014972 0)
(5.02088 0.000149279 0)
(4.86513 0.000148819 0)
(4.71293 0.000148345 0)
(4.56421 0.000147828 0)
(4.41893 0.000147232 0)
(4.27705 0.000146502 0)
(4.13851 0.000145584 0)
(4.00326 0.000144452 0)
(3.87128 0.000143076 0)
(3.74251 0.000141446 0)
(3.6169 0.000139547 0)
(3.49443 0.000137367 0)
(3.37504 0.00013489 0)
(3.2587 0.000132113 0)
(3.14536 0.000129025 0)
(3.03498 0.000125629 0)
(2.92751 0.00012193 0)
(2.82293 0.000117931 0)
(2.72118 0.000113643 0)
(2.62223 0.000109087 0)
(2.52603 0.000104274 0)
(2.43253 9.92343e-05 0)
(2.34171 9.39886e-05 0)
(2.25351 8.85673e-05 0)
(2.16788 8.29996e-05 0)
(2.0848 7.73278e-05 0)
(2.00421 7.15781e-05 0)
(1.92606 6.57999e-05 0)
(1.85032 6.00193e-05 0)
(1.77693 5.42886e-05 0)
(1.70585 4.86281e-05 0)
(1.63704 4.30945e-05 0)
(1.57044 3.76971e-05 0)
(1.50602 3.24959e-05 0)
(1.44373 2.74698e-05 0)
(1.38351 2.26529e-05 0)
(1.32534 1.80947e-05 0)
(1.26914 1.36106e-05 0)
(1.21491 9.64045e-06 0)
(1.16256 5.21519e-06 0)
(1.11211 1.85114e-06 0)
(1.06343 -8.38158e-07 0)
(1.0166 -3.17376e-06 0)
(0.971434 -5.25409e-06 0)
(0.928074 -7.00598e-06 0)
(0.886266 -8.90348e-06 0)
(0.846224 -9.82483e-06 0)
(0.807629 -1.19783e-05 0)
(0.770764 -1.1568e-05 0)
(0.735234 -1.45445e-05 0)
(0.701421 -1.27275e-05 0)
(0.668816 -1.62222e-05 0)
(0.637921 -1.37943e-05 0)
(0.608121 -1.70656e-05 0)
(0.580011 -1.48684e-05 0)
(0.552891 -1.72338e-05 0)
(0.527427 -1.60585e-05 0)
(0.502861 -1.67129e-05 0)
(0.479868 -1.61932e-05 0)
(0.457639 -1.35669e-05 0)
(0.436654 -1.28055e-06 0)
(0.415098 2.52736e-05 0)
(0.395234 0.000352523 0)
(0.333004 0.0001539 0)
(0.320661 0.0105719 0)
(-0.565351 0.0196963 0)
(75.8924 0.000200602 0)
(75.0607 0.000152497 0)
(74.034 0.000144885 0)
(73.079 0.000145717 0)
(72.1928 0.000146849 0)
(71.321 0.000148389 0)
(70.4426 0.000150105 0)
(69.5607 0.00015175 0)
(68.6807 0.00015329 0)
(67.8045 0.000154726 0)
(66.9317 0.000156033 0)
(66.0621 0.000157193 0)
(65.1958 0.000158204 0)
(64.333 0.000159075 0)
(63.4741 0.00015981 0)
(62.6191 0.000160414 0)
(61.7683 0.000160899 0)
(60.9219 0.000161276 0)
(60.08 0.000161559 0)
(59.2428 0.000161682 0)
(58.4104 0.000162021 0)
(57.583 0.000161889 0)
(56.7608 0.000161979 0)
(55.9439 0.000161966 0)
(55.1324 0.000161923 0)
(54.3266 0.00016186 0)
(53.5264 0.000161778 0)
(52.7321 0.000161687 0)
(51.9437 0.000161588 0)
(51.1614 0.000161481 0)
(50.3853 0.00016131 0)
(49.6155 0.000161413 0)
(48.852 0.000161047 0)
(48.095 0.000161061 0)
(47.3445 0.000160924 0)
(46.6007 0.000160808 0)
(45.8635 0.000160696 0)
(45.1332 0.000160583 0)
(44.4097 0.000160465 0)
(43.6931 0.000160355 0)
(42.9834 0.000160246 0)
(42.2808 0.00016013 0)
(41.5852 0.000160016 0)
(40.8967 0.000159911 0)
(40.2153 0.000159787 0)
(39.5412 0.000159687 0)
(38.8742 0.000159567 0)
(38.2144 0.000159468 0)
(37.5619 0.000159349 0)
(36.9166 0.000159253 0)
(36.2787 0.000159138 0)
(35.648 0.000159035 0)
(35.0246 0.000158934 0)
(34.4085 0.000158824 0)
(33.7997 0.000158719 0)
(33.1982 0.000158626 0)
(32.604 0.00015851 0)
(32.0171 0.000158417 0)
(31.4374 0.00015832 0)
(30.865 0.000158217 0)
(30.2998 0.000158126 0)
(29.7419 0.000158022 0)
(29.1911 0.000157946 0)
(28.6475 0.000157845 0)
(28.1111 0.000157755 0)
(27.5817 0.00015767 0)
(27.0595 0.000157584 0)
(26.5443 0.000157505 0)
(26.0361 0.000157414 0)
(25.535 0.000157342 0)
(25.0407 0.000157255 0)
(24.5534 0.000157184 0)
(24.073 0.000157099 0)
(23.5993 0.000157012 0)
(23.1325 0.000156935 0)
(22.6725 0.000156844 0)
(22.2191 0.000156782 0)
(21.7724 0.000156757 0)
(21.3323 0.000156733 0)
(20.8988 0.000156668 0)
(20.4718 0.000156599 0)
(20.0513 0.000156487 0)
(19.6372 0.00015641 0)
(19.2295 0.000156319 0)
(18.8281 0.000156243 0)
(18.433 0.000156175 0)
(18.0441 0.000156091 0)
(17.6614 0.000156003 0)
(17.2847 0.000155888 0)
(16.9142 0.00015582 0)
(16.5496 0.000155793 0)
(16.191 0.000155789 0)
(15.8382 0.000155789 0)
(15.4913 0.000155804 0)
(15.1502 0.000155798 0)
(14.8148 0.000155858 0)
(14.485 0.00015589 0)
(14.1609 0.000155915 0)
(13.8423 0.000155916 0)
(13.5292 0.000155874 0)
(13.2216 0.000155803 0)
(12.9194 0.000155748 0)
(12.6224 0.000155695 0)
(12.3308 0.00015561 0)
(12.0444 0.000155475 0)
(11.7631 0.000155343 0)
(11.4869 0.000155223 0)
(11.2158 0.000155158 0)
(10.9497 0.000155209 0)
(10.6885 0.000155314 0)
(10.4323 0.000155392 0)
(10.1808 0.000155406 0)
(9.93413 0.00015535 0)
(9.69216 0.000155246 0)
(9.45486 0.000155133 0)
(9.22216 0.000155026 0)
(8.99401 0.000154932 0)
(8.77035 0.000154902 0)
(8.55114 0.000154955 0)
(8.33631 0.000155037 0)
(8.12583 0.000155089 0)
(7.91963 0.000155104 0)
(7.71766 0.000155122 0)
(7.51987 0.000155195 0)
(7.32622 0.000155288 0)
(7.13666 0.000155322 0)
(6.95113 0.000155262 0)
(6.76959 0.000155126 0)
(6.59198 0.000154947 0)
(6.41826 0.000154753 0)
(6.24836 0.000154501 0)
(6.08226 0.000154151 0)
(5.91988 0.000153679 0)
(5.76117 0.000153116 0)
(5.6061 0.000152496 0)
(5.4546 0.000151866 0)
(5.30662 0.000151233 0)
(5.16212 0.000150551 0)
(5.02104 0.000149782 0)
(4.88334 0.000148847 0)
(4.74895 0.00014768 0)
(4.61783 0.000146262 0)
(4.48994 0.000144547 0)
(4.36521 0.000142544 0)
(4.2436 0.000140223 0)
(4.12506 0.000137585 0)
(4.00953 0.00013461 0)
(3.89698 0.000131302 0)
(3.78734 0.000127649 0)
(3.68057 0.000123667 0)
(3.57661 0.000119355 0)
(3.47541 0.000114733 0)
(3.37694 0.000109804 0)
(3.28112 0.000104616 0)
(3.18793 9.9164e-05 0)
(3.09729 9.35077e-05 0)
(3.00918 8.76611e-05 0)
(2.92353 8.16735e-05 0)
(2.84031 7.55732e-05 0)
(2.75946 6.94297e-05 0)
(2.68093 6.32578e-05 0)
(2.60469 5.7138e-05 0)
(2.53068 5.10819e-05 0)
(2.45886 4.51627e-05 0)
(2.38919 3.93913e-05 0)
(2.32162 3.38477e-05 0)
(2.25612 2.85391e-05 0)
(2.19263 2.35636e-05 0)
(2.13113 1.88692e-05 0)
(2.07157 1.45775e-05 0)
(2.01393 1.06004e-05 0)
(1.95815 7.03817e-06 0)
(1.90421 3.9106e-06 0)
(1.85206 1.21212e-06 0)
(1.8017 -1.10157e-06 0)
(1.75304 -5.06e-06 0)
(1.70613 -5.68644e-06 0)
(1.66083 -1.00695e-05 0)
(1.61726 -9.40589e-06 0)
(1.57519 -1.38282e-05 0)
(1.53484 -1.21107e-05 0)
(1.4959 -1.67396e-05 0)
(1.45864 -1.38275e-05 0)
(1.4227 -1.91245e-05 0)
(1.38843 -1.50407e-05 0)
(1.35537 -2.06938e-05 0)
(1.32398 -1.59633e-05 0)
(1.29369 -2.18243e-05 0)
(1.26505 -1.6533e-05 0)
(1.23743 -2.2372e-05 0)
(1.2114 -1.7011e-05 0)
(1.18633 -2.09932e-05 0)
(1.16276 -1.3103e-05 0)
(1.14005 -5.17595e-06 0)
(1.11847 4.45802e-05 0)
(1.09626 0.000200404 0)
(1.07493 0.00115592 0)
(1.01304 0.0022748 0)
(0.963355 0.0218378 0)
(0.223367 0.0219183 0)
(75.8923 0.000147364 0)
(75.0606 0.000106647 0)
(74.034 0.000103507 0)
(73.079 0.00010781 0)
(72.1928 0.0001106 0)
(71.321 0.000113109 0)
(70.4426 0.000115509 0)
(69.5607 0.000117649 0)
(68.6807 0.000119551 0)
(67.8045 0.000121258 0)
(66.9317 0.000122776 0)
(66.0621 0.000124106 0)
(65.1958 0.00012526 0)
(64.333 0.000126254 0)
(63.4741 0.000127099 0)
(62.6191 0.000127806 0)
(61.7684 0.000128389 0)
(60.9219 0.000128862 0)
(60.08 0.000129241 0)
(59.2428 0.000129463 0)
(58.4104 0.000129863 0)
(57.5831 0.000129867 0)
(56.7608 0.000130027 0)
(55.944 0.000130102 0)
(55.1325 0.000130143 0)
(54.3266 0.000130161 0)
(53.5265 0.000130158 0)
(52.7322 0.000130142 0)
(51.9438 0.000130114 0)
(51.1615 0.000130075 0)
(50.3854 0.000129986 0)
(49.6156 0.000130095 0)
(48.8521 0.000129854 0)
(48.0951 0.000129887 0)
(47.3447 0.000129813 0)
(46.6008 0.000129749 0)
(45.8637 0.000129687 0)
(45.1334 0.000129624 0)
(44.4099 0.000129554 0)
(43.6933 0.000129487 0)
(42.9836 0.000129424 0)
(42.281 0.000129353 0)
(41.5854 0.000129281 0)
(40.8969 0.000129218 0)
(40.2156 0.000129138 0)
(39.5414 0.000129077 0)
(38.8745 0.000128997 0)
(38.2147 0.000128936 0)
(37.5622 0.000128855 0)
(36.917 0.000128796 0)
(36.279 0.000128718 0)
(35.6483 0.000128652 0)
(35.025 0.000128589 0)
(34.4089 0.000128512 0)
(33.8001 0.000128445 0)
(33.1986 0.000128387 0)
(32.6044 0.000128305 0)
(32.0175 0.000128246 0)
(31.4379 0.000128183 0)
(30.8655 0.000128115 0)
(30.3003 0.000128056 0)
(29.7424 0.000127986 0)
(29.1916 0.000127939 0)
(28.6481 0.000127871 0)
(28.1116 0.000127812 0)
(27.5823 0.000127757 0)
(27.0601 0.000127701 0)
(26.5449 0.00012765 0)
(26.0368 0.000127587 0)
(25.5356 0.000127542 0)
(25.0414 0.000127482 0)
(24.5541 0.000127438 0)
(24.0737 0.000127382 0)
(23.6001 0.000127323 0)
(23.1333 0.000127273 0)
(22.6732 0.00012721 0)
(22.2199 0.000127169 0)
(21.7732 0.000127156 0)
(21.3332 0.000127141 0)
(20.8997 0.000127093 0)
(20.4727 0.000127047 0)
(20.0522 0.000126968 0)
(19.6381 0.000126919 0)
(19.2305 0.000126853 0)
(18.8291 0.000126799 0)
(18.434 0.000126748 0)
(18.0451 0.000126684 0)
(17.6624 0.000126617 0)
(17.2858 0.00012653 0)
(16.9153 0.000126483 0)
(16.5507 0.000126468 0)
(16.1921 0.000126468 0)
(15.8394 0.000126473 0)
(15.4925 0.000126489 0)
(15.1514 0.000126488 0)
(14.8161 0.000126541 0)
(14.4863 0.000126566 0)
(14.1622 0.000126586 0)
(13.8437 0.000126589 0)
(13.5306 0.00012656 0)
(13.223 0.000126511 0)
(12.9208 0.000126478 0)
(12.6239 0.000126442 0)
(12.3323 0.00012638 0)
(12.0459 0.000126278 0)
(11.7646 0.000126186 0)
(11.4885 0.000126106 0)
(11.2174 0.000126072 0)
(10.9513 0.000126125 0)
(10.6902 0.000126212 0)
(10.434 0.000126276 0)
(10.1825 0.000126289 0)
(9.9359 0.000126255 0)
(9.69397 0.000126186 0)
(9.45669 0.000126117 0)
(9.22403 0.000126048 0)
(8.99591 0.000125996 0)
(8.77229 0.000125987 0)
(8.55311 0.000126046 0)
(8.33831 0.000126119 0)
(8.12786 0.000126173 0)
(7.9217 0.000126195 0)
(7.71976 0.000126227 0)
(7.52201 0.000126294 0)
(7.3284 0.000126376 0)
(7.13887 0.000126401 0)
(6.95338 0.000126365 0)
(6.77187 0.000126266 0)
(6.5943 0.000126142 0)
(6.42061 0.000125995 0)
(6.25075 0.000125802 0)
(6.08468 0.000125523 0)
(5.92233 0.00012515 0)
(5.76366 0.000124706 0)
(5.60862 0.000124216 0)
(5.45715 0.000123706 0)
(5.30921 0.00012319 0)
(5.16474 0.000122608 0)
(5.02368 0.000121953 0)
(4.886 0.000121143 0)
(4.75164 0.000120141 0)
(4.62055 0.000118937 0)
(4.49267 0.000117473 0)
(4.36795 0.000115789 0)
(4.24635 0.000113823 0)
(4.12782 0.000111609 0)
(4.0123 0.000109111 0)
(3.89974 0.000106342 0)
(3.79009 0.000103294 0)
(3.6833 9.9982e-05 0)
(3.57932 9.63935e-05 0)
(3.4781 9.25738e-05 0)
(3.3796 8.84897e-05 0)
(3.28375 8.42214e-05 0)
(3.19051 7.97344e-05 0)
(3.09983 7.5102e-05 0)
(3.01166 7.03242e-05 0)
(2.92596 6.54564e-05 0)
(2.84268 6.05083e-05 0)
(2.76176 5.55618e-05 0)
(2.68317 5.06085e-05 0)
(2.60686 4.57368e-05 0)
(2.53278 4.0957e-05 0)
(2.46089 3.63041e-05 0)
(2.39115 3.18014e-05 0)
(2.32351 2.74002e-05 0)
(2.25794 2.32482e-05 0)
(2.19439 1.91188e-05 0)
(2.13282 1.54949e-05 0)
(2.0732 1.15222e-05 0)
(2.0155 8.75607e-06 0)
(1.95966 4.61893e-06 0)
(1.90568 3.16418e-06 0)
(1.85347 -1.49588e-06 0)
(1.80308 -1.32009e-06 0)
(1.75437 -6.50641e-06 0)
(1.70743 -4.5035e-06 0)
(1.66209 -1.0612e-05 0)
(1.6185 -6.7147e-06 0)
(1.57641 -1.42985e-05 0)
(1.53603 -7.37301e-06 0)
(1.49708 -1.86419e-05 0)
(1.4598 -5.8396e-06 0)
(1.42385 -2.34334e-05 0)
(1.38957 -4.29004e-06 0)
(1.3565 -2.58206e-05 0)
(1.3251 -4.34615e-06 0)
(1.29481 -2.62288e-05 0)
(1.26616 -5.87621e-06 0)
(1.23853 -2.43422e-05 0)
(1.2125 -9.40778e-06 0)
(1.18743 -1.89502e-05 0)
(1.16386 -6.94364e-06 0)
(1.14115 8.98285e-06 0)
(1.11965 0.0001047 0)
(1.09785 0.000418822 0)
(1.07835 0.00216398 0)
(1.0225 0.00586417 0)
(1.01453 0.055694 0)
(0.371012 0.0803973 0)
(75.8923 0.00010664 0)
(75.0606 9.55098e-05 0)
(74.0339 9.54696e-05 0)
(73.079 0.000100954 0)
(72.1928 0.000104919 0)
(71.3209 0.000108261 0)
(70.4426 0.000111361 0)
(69.5606 0.000114126 0)
(68.6807 0.000116566 0)
(67.8044 0.000118727 0)
(66.9317 0.00012063 0)
(66.0621 0.000122289 0)
(65.1957 0.000123724 0)
(64.333 0.000124956 0)
(63.474 0.000126003 0)
(62.6191 0.000126883 0)
(61.7683 0.000127614 0)
(60.9219 0.000128213 0)
(60.08 0.000128701 0)
(59.2428 0.000129041 0)
(58.4104 0.000129448 0)
(57.583 0.0001296 0)
(56.7608 0.000129798 0)
(55.9439 0.00012993 0)
(55.1325 0.000130023 0)
(54.3266 0.000130089 0)
(53.5265 0.000130132 0)
(52.7321 0.000130158 0)
(51.9438 0.000130171 0)
(51.1615 0.000130172 0)
(50.3854 0.000130146 0)
(49.6156 0.00013021 0)
(48.8521 0.0001301 0)
(48.0951 0.000130129 0)
(47.3446 0.000130096 0)
(46.6008 0.000130069 0)
(45.8637 0.000130045 0)
(45.1333 0.00013002 0)
(44.4098 0.000129986 0)
(43.6932 0.000129959 0)
(42.9836 0.000129933 0)
(42.2809 0.0001299 0)
(41.5854 0.000129868 0)
(40.8969 0.000129843 0)
(40.2156 0.000129806 0)
(39.5414 0.000129781 0)
(38.8744 0.000129744 0)
(38.2147 0.00012972 0)
(37.5622 0.000129683 0)
(36.9169 0.000129662 0)
(36.279 0.000129628 0)
(35.6483 0.000129602 0)
(35.0249 0.000129579 0)
(34.4088 0.000129547 0)
(33.8001 0.000129522 0)
(33.1986 0.000129502 0)
(32.6044 0.000129468 0)
(32.0175 0.000129449 0)
(31.4378 0.000129428 0)
(30.8654 0.000129405 0)
(30.3003 0.000129388 0)
(29.7423 0.000129364 0)
(29.1916 0.000129356 0)
(28.648 0.000129335 0)
(28.1116 0.00012932 0)
(27.5823 0.000129308 0)
(27.0601 0.000129296 0)
(26.5449 0.000129288 0)
(26.0367 0.000129272 0)
(25.5356 0.000129267 0)
(25.0414 0.000129254 0)
(24.5541 0.000129252 0)
(24.0736 0.000129243 0)
(23.6 0.000129231 0)
(23.1332 0.000129226 0)
(22.6732 0.000129212 0)
(22.2199 0.000129212 0)
(21.7732 0.000129233 0)
(21.3331 0.000129256 0)
(20.8996 0.000129258 0)
(20.4727 0.00012926 0)
(20.0522 0.000129238 0)
(19.6381 0.000129234 0)
(19.2304 0.000129219 0)
(18.8291 0.00012921 0)
(18.434 0.000129205 0)
(18.0451 0.00012919 0)
(17.6624 0.000129172 0)
(17.2858 0.000129141 0)
(16.9152 0.000129138 0)
(16.5507 0.000129163 0)
(16.1921 0.000129204 0)
(15.8394 0.000129252 0)
(15.4925 0.00012931 0)
(15.1514 0.000129355 0)
(14.816 0.000129436 0)
(14.4863 0.000129499 0)
(14.1622 0.000129559 0)
(13.8436 0.000129602 0)
(13.5306 0.000129628 0)
(13.223 0.000129629 0)
(12.9207 0.000129646 0)
(12.6239 0.00012965 0)
(12.3322 0.000129644 0)
(12.0458 0.000129595 0)
(11.7646 0.000129565 0)
(11.4885 0.000129532 0)
(11.2174 0.000129547 0)
(10.9513 0.000129616 0)
(10.6902 0.000129729 0)
(10.4339 0.000129813 0)
(10.1825 0.000129876 0)
(9.93586 0.000129885 0)
(9.69393 0.000129876 0)
(9.45665 0.000129855 0)
(9.22399 0.000129838 0)
(8.99587 0.000129832 0)
(8.77225 0.000129858 0)
(8.55307 0.000129937 0)
(8.33828 0.000130035 0)
(8.12782 0.000130119 0)
(7.92166 0.000130184 0)
(7.71972 0.000130246 0)
(7.52198 0.000130341 0)
(7.32836 0.000130431 0)
(7.13883 0.000130507 0)
(6.95334 0.0001305 0)
(6.77183 0.000130489 0)
(6.59426 0.000130396 0)
(6.42057 0.000130342 0)
(6.25071 0.000130185 0)
(6.08464 0.000130016 0)
(5.92229 0.000129721 0)
(5.76363 0.0001294 0)
(5.60858 0.000129015 0)
(5.45711 0.000128626 0)
(5.30917 0.000128211 0)
(5.1647 0.000127762 0)
(5.02365 0.000127223 0)
(4.88597 0.000126588 0)
(4.75161 0.000125757 0)
(4.62051 0.000124786 0)
(4.49263 0.000123553 0)
(4.36792 0.000122156 0)
(4.24632 0.000120473 0)
(4.12779 0.000118596 0)
(4.01226 0.000116425 0)
(3.89971 0.000114043 0)
(3.79006 0.00011135 0)
(3.68327 0.000108466 0)
(3.57929 0.000105242 0)
(3.47808 0.000101873 0)
(3.37957 9.81469e-05 0)
(3.28372 9.43223e-05 0)
(3.19048 9.0172e-05 0)
(3.0998 8.5939e-05 0)
(3.01164 8.14587e-05 0)
(2.92594 7.69196e-05 0)
(2.84266 7.21848e-05 0)
(2.76174 6.74832e-05 0)
(2.68315 6.26096e-05 0)
(2.60684 5.78687e-05 0)
(2.53276 5.30175e-05 0)
(2.46088 4.8361e-05 0)
(2.39114 4.3607e-05 0)
(2.3235 3.90905e-05 0)
(2.25793 3.44458e-05 0)
(2.19438 3.01537e-05 0)
(2.13281 2.57779e-05 0)
(2.07319 2.19049e-05 0)
(2.01549 1.80779e-05 0)
(1.95965 1.40829e-05 0)
(1.90567 1.18574e-05 0)
(1.85347 5.48932e-06 0)
(1.80307 7.28634e-06 0)
(1.75436 -1.78994e-06 0)
(1.70743 6.05747e-06 0)
(1.66209 -8.07873e-06 0)
(1.61849 4.6129e-06 0)
(1.57641 -1.20355e-05 0)
(1.53603 3.26913e-06 0)
(1.49708 -1.46547e-05 0)
(1.4598 2.60558e-06 0)
(1.42385 -1.73859e-05 0)
(1.38957 2.04553e-06 0)
(1.3565 -1.99442e-05 0)
(1.3251 1.96172e-06 0)
(1.29481 -2.27695e-05 0)
(1.26616 2.95877e-06 0)
(1.23853 -2.51996e-05 0)
(1.2125 4.01801e-06 0)
(1.18743 -2.10463e-05 0)
(1.16386 2.02752e-05 0)
(1.14116 3.90464e-05 0)
(1.1197 0.000264427 0)
(1.0981 0.000931774 0)
(1.07904 0.00355212 0)
(1.03128 0.0056024 0)
(1.03477 0.0519635 0)
(0.720113 0.0307086 0)
(75.8923 3.22485e-05 0)
(75.0606 2.63912e-05 0)
(74.0339 1.97466e-05 0)
(73.079 1.68582e-05 0)
(72.1928 1.45584e-05 0)
(71.3209 1.2632e-05 0)
(70.4425 1.11206e-05 0)
(69.5606 9.88899e-06 0)
(68.6806 8.86014e-06 0)
(67.8044 7.99783e-06 0)
(66.9316 7.27065e-06 0)
(66.062 6.65305e-06 0)
(65.1957 6.12584e-06 0)
(64.333 5.67458e-06 0)
(63.474 5.28649e-06 0)
(62.6191 4.95137e-06 0)
(61.7683 4.66079e-06 0)
(60.9219 4.40801e-06 0)
(60.0799 4.18842e-06 0)
(59.2427 3.98219e-06 0)
(58.4104 3.83599e-06 0)
(57.583 3.6693e-06 0)
(56.7608 3.53651e-06 0)
(55.9439 3.41627e-06 0)
(55.1324 3.30713e-06 0)
(54.3266 3.20861e-06 0)
(53.5264 3.11879e-06 0)
(52.7321 3.03606e-06 0)
(51.9438 2.95993e-06 0)
(51.1615 2.88873e-06 0)
(50.3854 2.81934e-06 0)
(49.6155 2.76911e-06 0)
(48.852 2.69171e-06 0)
(48.095 2.64751e-06 0)
(47.3446 2.5886e-06 0)
(46.6008 2.53549e-06 0)
(45.8636 2.48666e-06 0)
(45.1333 2.43925e-06 0)
(44.4098 2.38911e-06 0)
(43.6932 2.34419e-06 0)
(42.9836 2.30052e-06 0)
(42.2809 2.2548e-06 0)
(41.5853 2.21138e-06 0)
(40.8969 2.16986e-06 0)
(40.2155 2.12617e-06 0)
(39.5414 2.08525e-06 0)
(38.8744 2.04181e-06 0)
(38.2146 2.00175e-06 0)
(37.5621 1.95811e-06 0)
(36.9169 1.91914e-06 0)
(36.2789 1.87672e-06 0)
(35.6483 1.83644e-06 0)
(35.0249 1.79684e-06 0)
(34.4088 1.75427e-06 0)
(33.8 1.71375e-06 0)
(33.1985 1.674e-06 0)
(32.6043 1.63019e-06 0)
(32.0174 1.58993e-06 0)
(31.4378 1.54973e-06 0)
(30.8654 1.50859e-06 0)
(30.3002 1.46859e-06 0)
(29.7423 1.42613e-06 0)
(29.1916 1.38803e-06 0)
(28.648 1.34586e-06 0)
(28.1116 1.30504e-06 0)
(27.5822 1.26478e-06 0)
(27.06 1.2243e-06 0)
(26.5448 1.18418e-06 0)
(26.0367 1.14195e-06 0)
(25.5355 1.10177e-06 0)
(25.0413 1.05925e-06 0)
(24.554 1.02016e-06 0)
(24.0736 9.79351e-07 0)
(23.6 9.37638e-07 0)
(23.1332 8.97505e-07 0)
(22.6732 8.53531e-07 0)
(22.2198 8.126e-07 0)
(21.7731 7.7675e-07 0)
(21.3331 7.40957e-07 0)
(20.8996 6.99092e-07 0)
(20.4726 6.58108e-07 0)
(20.0521 6.12259e-07 0)
(19.6381 5.72818e-07 0)
(19.2304 5.29733e-07 0)
(18.829 4.86386e-07 0)
(18.4339 4.42906e-07 0)
(18.0451 3.95222e-07 0)
(17.6623 3.46935e-07 0)
(17.2857 2.94977e-07 0)
(16.9152 2.51068e-07 0)
(16.5507 2.15549e-07 0)
(16.1921 1.82915e-07 0)
(15.8393 1.50759e-07 0)
(15.4925 1.2031e-07 0)
(15.1514 8.50948e-08 0)
(14.816 5.82758e-08 0)
(14.4863 2.54886e-08 0)
(14.1622 -9.2684e-09 0)
(13.8436 -4.7488e-08 0)
(13.5306 -8.81369e-08 0)
(13.2229 -1.34129e-07 0)
(12.9207 -1.73335e-07 0)
(12.6238 -2.17561e-07 0)
(12.3322 -2.63703e-07 0)
(12.0458 -3.23632e-07 0)
(11.7646 -3.74008e-07 0)
(11.4884 -4.25112e-07 0)
(11.2174 -4.62239e-07 0)
(10.9513 -4.87487e-07 0)
(10.6901 -5.04265e-07 0)
(10.4339 -5.31495e-07 0)
(10.1825 -5.6668e-07 0)
(9.93583 -6.12631e-07 0)
(9.69389 -6.61904e-07 0)
(9.45662 -7.07998e-07 0)
(9.22395 -7.57826e-07 0)
(8.99584 -7.98196e-07 0)
(8.77222 -8.39115e-07 0)
(8.55303 -8.59194e-07 0)
(8.33824 -8.82836e-07 0)
(8.12779 -9.05277e-07 0)
(7.92163 -9.41976e-07 0)
(7.71969 -9.69027e-07 0)
(7.52194 -9.96797e-07 0)
(7.32833 -1.02139e-06 0)
(7.1388 -1.04486e-06 0)
(6.95331 -1.10678e-06 0)
(6.7718 -1.13444e-06 0)
(6.59423 -1.21627e-06 0)
(6.42054 -1.24663e-06 0)
(6.25068 -1.33506e-06 0)
(6.08461 -1.3988e-06 0)
(5.92226 -1.50463e-06 0)
(5.7636 -1.60958e-06 0)
(5.60855 -1.71077e-06 0)
(5.45709 -1.82355e-06 0)
(5.30914 -1.91465e-06 0)
(5.16467 -2.021e-06 0)
(5.02362 -2.13734e-06 0)
(4.88594 -2.25867e-06 0)
(4.75158 -2.42912e-06 0)
(4.62049 -2.59143e-06 0)
(4.49261 -2.8213e-06 0)
(4.36789 -3.03694e-06 0)
(4.2463 -3.31694e-06 0)
(4.12776 -3.58711e-06 0)
(4.01224 -3.91705e-06 0)
(3.89968 -4.21944e-06 0)
(3.79003 -4.60491e-06 0)
(3.68325 -4.92085e-06 0)
(3.57927 -5.34717e-06 0)
(3.47805 -5.67451e-06 0)
(3.37955 -6.11665e-06 0)
(3.2837 -6.45357e-06 0)
(3.19046 -6.88286e-06 0)
(3.09979 -7.21663e-06 0)
(3.01162 -7.62582e-06 0)
(2.92592 -7.92229e-06 0)
(2.84264 -8.30769e-06 0)
(2.76173 -8.55962e-06 0)
(2.68314 -8.87602e-06 0)
(2.60683 -9.11805e-06 0)
(2.53275 -9.29763e-06 0)
(2.46087 -9.59328e-06 0)
(2.39113 -9.53915e-06 0)
(2.32349 -1.00168e-05 0)
(2.25792 -9.49774e-06 0)
(2.19437 -1.04546e-05 0)
(2.13281 -8.77602e-06 0)
(2.07319 -1.09407e-05 0)
(2.01549 -6.67408e-06 0)
(1.95965 -1.19065e-05 0)
(1.90567 -3.10363e-06 0)
(1.85346 -1.35278e-05 0)
(1.80307 1.38394e-06 0)
(1.75436 -1.71274e-05 0)
(1.70743 5.71553e-06 0)
(1.66209 -2.0769e-05 0)
(1.61849 1.05449e-05 0)
(1.57641 -2.84239e-05 0)
(1.53603 2.23666e-05 0)
(1.49707 -4.50015e-05 0)
(1.4598 4.42899e-05 0)
(1.42385 -6.72027e-05 0)
(1.38957 6.13867e-05 0)
(1.3565 -7.62289e-05 0)
(1.3251 6.5675e-05 0)
(1.29481 -7.48512e-05 0)
(1.26615 5.84274e-05 0)
(1.23853 -6.00549e-05 0)
(1.2125 3.68025e-05 0)
(1.18743 -2.47836e-05 0)
(1.16388 4.09914e-05 0)
(1.14122 8.83501e-05 0)
(1.11991 0.000476644 0)
(1.09873 0.00171862 0)
(1.07935 0.00776652 0)
(1.03234 0.0198053 0)
(1.01489 0.15449 0)
(0.513927 0.209263 0)
(75.8923 -3.22485e-05 0)
(75.0606 -2.63912e-05 0)
(74.0339 -1.97466e-05 0)
(73.079 -1.68582e-05 0)
(72.1928 -1.45584e-05 0)
(71.3209 -1.26321e-05 0)
(70.4425 -1.11206e-05 0)
(69.5606 -9.889e-06 0)
(68.6806 -8.86014e-06 0)
(67.8044 -7.99783e-06 0)
(66.9316 -7.27066e-06 0)
(66.062 -6.65306e-06 0)
(65.1957 -6.12585e-06 0)
(64.333 -5.67459e-06 0)
(63.474 -5.28649e-06 0)
(62.6191 -4.95138e-06 0)
(61.7683 -4.6608e-06 0)
(60.9219 -4.40802e-06 0)
(60.0799 -4.18843e-06 0)
(59.2427 -3.98219e-06 0)
(58.4104 -3.83599e-06 0)
(57.583 -3.66931e-06 0)
(56.7608 -3.53651e-06 0)
(55.9439 -3.41627e-06 0)
(55.1324 -3.30714e-06 0)
(54.3266 -3.20861e-06 0)
(53.5264 -3.11879e-06 0)
(52.7321 -3.03606e-06 0)
(51.9438 -2.95993e-06 0)
(51.1615 -2.88873e-06 0)
(50.3854 -2.81935e-06 0)
(49.6155 -2.76911e-06 0)
(48.852 -2.69171e-06 0)
(48.095 -2.64751e-06 0)
(47.3446 -2.5886e-06 0)
(46.6008 -2.53549e-06 0)
(45.8636 -2.48666e-06 0)
(45.1333 -2.43925e-06 0)
(44.4098 -2.38912e-06 0)
(43.6932 -2.34419e-06 0)
(42.9836 -2.30052e-06 0)
(42.2809 -2.2548e-06 0)
(41.5853 -2.21139e-06 0)
(40.8969 -2.16986e-06 0)
(40.2155 -2.12617e-06 0)
(39.5414 -2.08525e-06 0)
(38.8744 -2.04182e-06 0)
(38.2146 -2.00175e-06 0)
(37.5621 -1.95811e-06 0)
(36.9169 -1.91914e-06 0)
(36.2789 -1.87672e-06 0)
(35.6483 -1.83645e-06 0)
(35.0249 -1.79685e-06 0)
(34.4088 -1.75427e-06 0)
(33.8 -1.71376e-06 0)
(33.1985 -1.67401e-06 0)
(32.6043 -1.63019e-06 0)
(32.0174 -1.58994e-06 0)
(31.4378 -1.54973e-06 0)
(30.8654 -1.50859e-06 0)
(30.3002 -1.46859e-06 0)
(29.7423 -1.42614e-06 0)
(29.1916 -1.38803e-06 0)
(28.648 -1.34586e-06 0)
(28.1116 -1.30504e-06 0)
(27.5822 -1.26478e-06 0)
(27.06 -1.22431e-06 0)
(26.5448 -1.18418e-06 0)
(26.0367 -1.14196e-06 0)
(25.5355 -1.10177e-06 0)
(25.0413 -1.05926e-06 0)
(24.554 -1.02016e-06 0)
(24.0736 -9.79351e-07 0)
(23.6 -9.37639e-07 0)
(23.1332 -8.97506e-07 0)
(22.6732 -8.53532e-07 0)
(22.2198 -8.12601e-07 0)
(21.7731 -7.76753e-07 0)
(21.3331 -7.40958e-07 0)
(20.8996 -6.99097e-07 0)
(20.4726 -6.58106e-07 0)
(20.0521 -6.12266e-07 0)
(19.6381 -5.72814e-07 0)
(19.2304 -5.29742e-07 0)
(18.829 -4.86382e-07 0)
(18.4339 -4.42914e-07 0)
(18.0451 -3.9522e-07 0)
(17.6623 -3.46936e-07 0)
(17.2857 -2.94978e-07 0)
(16.9152 -2.51064e-07 0)
(16.5507 -2.15559e-07 0)
(16.1921 -1.82897e-07 0)
(15.8393 -1.50806e-07 0)
(15.4925 -1.20225e-07 0)
(15.1514 -8.52553e-08 0)
(14.816 -5.80163e-08 0)
(14.4863 -2.58868e-08 0)
(14.1622 9.82971e-09 0)
(13.8436 4.6745e-08 0)
(13.5306 8.90484e-08 0)
(13.2229 1.33071e-07 0)
(12.9207 1.74438e-07 0)
(12.6238 2.16467e-07 0)
(12.3322 2.64703e-07 0)
(12.0458 3.22847e-07 0)
(11.7646 3.74537e-07 0)
(11.4884 4.24816e-07 0)
(11.2174 4.62415e-07 0)
(10.9513 4.87345e-07 0)
(10.6901 5.0438e-07 0)
(10.4339 5.31546e-07 0)
(10.1825 5.66165e-07 0)
(9.93583 6.14171e-07 0)
(9.69389 6.58765e-07 0)
(9.45662 7.13076e-07 0)
(9.22395 7.5092e-07 0)
(8.99584 8.06426e-07 0)
(8.77222 8.3021e-07 0)
(8.55303 8.68529e-07 0)
(8.33824 8.72383e-07 0)
(8.12779 9.18256e-07 0)
(7.92163 9.25364e-07 0)
(7.71969 9.88684e-07 0)
(7.52194 9.76858e-07 0)
(7.32833 1.03806e-06 0)
(7.1388 1.03377e-06 0)
(6.95331 1.11268e-06 0)
(6.7718 1.1321e-06 0)
(6.59423 1.21658e-06 0)
(6.42054 1.24834e-06 0)
(6.25068 1.33164e-06 0)
(6.08461 1.40241e-06 0)
(5.92226 1.5037e-06 0)
(5.7636 1.60619e-06 0)
(5.60855 1.71933e-06 0)
(5.45709 1.81187e-06 0)
(5.30914 1.92629e-06 0)
(5.16467 2.01148e-06 0)
(5.02362 2.14372e-06 0)
(4.88594 2.25638e-06 0)
(4.75158 2.42559e-06 0)
(4.62049 2.60207e-06 0)
(4.49261 2.80513e-06 0)
(4.36789 3.05429e-06 0)
(4.2463 3.302e-06 0)
(4.12776 3.5995e-06 0)
(4.01224 3.90392e-06 0)
(3.89968 4.2382e-06 0)
(3.79003 4.57853e-06 0)
(3.68325 4.95438e-06 0)
(3.57927 5.30758e-06 0)
(3.47805 5.71723e-06 0)
(3.37955 6.07499e-06 0)
(3.2837 6.48966e-06 0)
(3.19046 6.85235e-06 0)
(3.09979 7.24766e-06 0)
(3.01162 7.58762e-06 0)
(2.92592 7.9685e-06 0)
(2.84264 8.26096e-06 0)
(2.76173 8.59572e-06 0)
(2.68314 8.86437e-06 0)
(2.60683 9.08967e-06 0)
(2.53275 9.3886e-06 0)
(2.46087 9.40744e-06 0)
(2.39113 9.87134e-06 0)
(2.32349 9.45142e-06 0)
(2.25792 1.04298e-05 0)
(2.19437 8.97738e-06 0)
(2.13281 1.11203e-05 0)
(2.07319 7.26078e-06 0)
(2.01548 1.23622e-05 0)
(1.95965 3.40237e-06 0)
(1.90566 1.55004e-05 0)
(1.85347 -3.29823e-06 0)
(1.80306 2.24188e-05 0)
(1.75437 -1.38273e-05 0)
(1.70742 3.23945e-05 0)
(1.6621 -2.4896e-05 0)
(1.61848 4.19619e-05 0)
(1.57643 -3.39768e-05 0)
(1.53599 5.11495e-05 0)
(1.49714 -4.39975e-05 0)
(1.45972 6.25888e-05 0)
(1.42396 -5.60175e-05 0)
(1.38945 7.30275e-05 0)
(1.35662 -6.41706e-05 0)
(1.32498 7.95862e-05 0)
(1.29493 -6.97008e-05 0)
(1.26606 8.34712e-05 0)
(1.23862 -7.06579e-05 0)
(1.21246 8.12033e-05 0)
(1.18745 -5.90518e-05 0)
(1.16391 0.000101351 0)
(1.1413 4.98129e-05 0)
(1.1202 0.000539332 0)
(1.10049 0.00177872 0)
(1.08472 0.00850598 0)
(1.07959 0.0227253 0)
(1.09302 0.182066 0)
(1.2877 0.239352 0)
(75.8923 -0.00010664 0)
(75.0606 -9.55098e-05 0)
(74.0339 -9.54696e-05 0)
(73.079 -0.000100954 0)
(72.1928 -0.000104919 0)
(71.3209 -0.000108261 0)
(70.4426 -0.000111361 0)
(69.5606 -0.000114126 0)
(68.6807 -0.000116566 0)
(67.8044 -0.000118727 0)
(66.9317 -0.00012063 0)
(66.0621 -0.000122289 0)
(65.1957 -0.000123724 0)
(64.333 -0.000124956 0)
(63.474 -0.000126003 0)