/*--------------------------------*- C++ -*----------------------------------*\
| =========                 |                                                 |
| \\      /  F ield         | OpenFOAM: The Open Source CFD Toolbox           |
|  \\    /   O peration     | Version:  3.0.x                                 |
|   \\  /    A nd           | Web:      www.OpenFOAM.org                      |
|    \\/     M anipulation  |                                                 |
\*---------------------------------------------------------------------------*/
FoamFile
{
    version     2.0;
    format      ascii;
    class       surfaceScalarField;
    location    "0.004";
    object      phi;
}
// * * * * * * * * * * * * * * * * * * * * * * * * * * * * * * * * * * * * * //

dimensions      [1 0 -1 0 0 0 0];

internalField   nonuniform List<scalar> 
999
(
2154.97
2154.97
2154.97
2154.97
2154.97
2154.97
2154.97
2154.97
2154.97
2154.97
2154.97
2154.97
2154.97
2154.97
2154.97
2154.97
2154.97
2154.97
2154.97
2154.97
2154.97
2154.97
2154.97
2154.97
2154.97
2154.97
2154.97
2154.97
2154.97
2154.97
2154.97
2154.97
2154.97
2154.97
2154.97
2154.97
2154.97
2154.97
2154.97
2154.97
2154.97
2154.97
2154.97
2154.97
2154.97
2154.97
2154.97
2154.97
2154.97
2154.97
2154.97
2154.97
2154.97
2154.97
2154.97
2154.97
2154.97
2154.97
2154.97
2154.97
2154.97
2154.97
2154.97
2154.97
2154.97
2154.97
2154.97
2154.97
2154.97
2154.97
2154.97
2154.97
2154.97
2154.97
2154.97
2154.97
2154.97
2154.97
2154.97
2154.97
2154.97
2154.97
2154.97
2154.97
2154.97
2154.97
2154.97
2154.97
2154.97
2154.97
2154.97
2154.97
2154.97
2154.97
2154.97
2154.97
2154.97
2154.97
2154.97
2154.97
2154.97
2154.97
2154.97
2154.97
2154.97
2154.97
2154.97
2154.97
2154.97
2154.97
2154.97
2154.97
2154.97
2154.97
2154.97
2154.97
2154.97
2154.97
2154.97
2154.97
2154.97
2154.97
2154.97
2154.97
2154.97
2154.97
2154.97
2154.97
2154.97
2154.97
2154.97
2154.97
2154.97
2154.97
2154.97
2154.97
2154.97
2154.97
2154.97
2154.97
2154.97
2154.97
2154.97
2154.97
2154.97
2154.97
2154.97
2154.97
2154.97
2154.97
2154.97
2154.97
2154.97
2154.97
2154.97
2154.97
2154.97
2154.97
2154.97
2154.97
2154.97
2154.97
2154.97
2154.97
2154.97
2154.97
2154.97
2154.97
2154.97
2154.97
2154.97
2154.97
2154.97
2154.97
2154.97
2154.97
2154.97
2154.97
2154.97
2154.97
2154.97
2154.97
2154.97
2154.97
2154.97
2154.97
2154.97
2154.97
2154.97
2154.97
2154.97
2154.97
2154.97
2154.97
2154.97
2154.97
2154.97
2154.97
2154.97
2154.97
2154.97
2154.97
2154.97
2154.97
2154.97
2154.97
2154.97
2154.97
2154.97
2154.97
2154.97
2154.97
2154.97
2154.97
2154.97
2154.97
2154.97
2154.97
2154.97
2154.97
2154.97
2154.97
2154.97
2154.97
2154.97
2154.97
2154.97
2154.97
2154.97
2154.97
2154.97
2154.97
2154.97
2154.97
2154.97
2154.97
2154.97
2154.97
2154.97
2154.97
2154.97
2154.97
2154.97
2154.97
2154.97
2154.97
2154.97
2154.97
2154.97
2154.97
2154.97
2154.97
2154.97
2154.97
2154.97
2154.97
2154.97
2154.97
2154.97
2154.97
2154.97
2154.97
2154.97
2154.97
2154.97
2154.97
2154.97
2154.97
2154.97
2154.97
2154.97
2154.97
2154.97
2154.97
2154.97
2154.97
2154.97
2154.97
2154.97
2154.97
2154.97
2154.97
2154.97
2154.97
2154.97
2154.97
2154.97
2154.97
2154.97
2154.97
2154.97
2154.97
2154.97
2154.97
2154.97
2154.97
2154.97
2154.97
2154.97
2154.97
2154.97
2154.97
2154.97
2154.97
2154.97
2154.97
2154.97
2154.97
2154.97
2154.97
2154.97
2154.97
2154.97
2154.97
2154.97
2154.97
2154.97
2154.97
2154.97
2154.97
2154.97
2154.97
2154.97
2154.97
2154.97
2154.97
2154.97
2154.97
2154.97
2154.97
2154.97
2154.97
2154.97
2154.97
2154.97
2154.97
2154.97
2154.97
2154.97
2154.97
2154.97
2154.97
2154.97
2154.97
2154.97
2154.97
2154.97
2154.97
2154.97
2154.97
2154.97
2154.97
2154.97
2154.97
2154.97
2154.97
2154.97
2154.97
2154.97
2154.97
2154.97
2154.97
2154.97
2154.97
2154.97
2154.97
2154.97
2154.97
2154.97
2154.97
2154.97
2154.97
2154.97
2154.97
2154.97
2154.97
2154.97
2154.97
2154.97
2154.97
2154.97
2154.97
2154.97
2154.97
2154.97
2154.97
2154.97
2154.97
2154.97
2154.97
2154.97
2154.97
2154.97
2154.97
2154.97
2154.97
2154.97
2154.97
2154.97
2154.97
2154.97
2154.97
2154.97
2154.97
2154.97
2154.97
2154.97
2154.97
2154.97
2154.97
2154.97
2154.97
2154.97
2154.97
2154.97
2154.97
2154.97
2154.97
2154.97
2154.97
2154.97
2154.97
2154.97
2154.97
2154.97
2154.97
2154.97
2154.97
2154.97
2154.97
2154.97
2154.97
2154.97
2154.97
2154.97
2154.97
2154.97
2154.97
2154.97
2154.97
2154.97
2154.97
2154.97
2154.97
2154.97
2154.97
2154.97
2154.97
2154.97
2154.97
2154.97
2154.97
2154.97
2154.97
2154.97
2154.97
2154.97
2154.97
2154.97
2154.97
2154.97
2154.97
2154.97
2154.97
2154.97
2154.97
2154.97
2154.97
2154.97
2154.97
2154.97
2154.97
2154.97
2154.97
2154.97
2154.97
2154.97
2154.97
2154.97
2154.97
2154.97
2154.97
2154.97
2154.97
2154.97
2154.97
2154.97
2154.97
2154.97
2154.97
2154.97
2154.97
2154.97
2154.97
2154.97
2154.97
2154.97
2154.97
2154.97
2154.97
2154.97
2154.97
2154.97
2154.97
2154.97
2154.97
2154.97
2154.97
2154.97
2154.97
2154.97
2154.97
2154.97
2154.97
2154.97
2154.97
2154.97
2154.97
2154.97
2154.97
2154.97
2154.97
2154.97
2154.97
2154.97
2154.97
2154.97
2154.97
2154.97
2154.97
2154.97
2154.97
2154.97
2154.97
2154.97
2154.97
2154.97
2154.97
2154.97
2154.97
2154.97
2154.97
2154.97
2154.97
2154.97
2154.97
2154.97
2154.97
2154.97
2154.97
2154.97
2154.97
2154.97
2154.97
2154.97
2154.97
2154.97
2154.97
2154.97
2154.97
2154.97
2154.97
2154.97
2154.97
2154.97
2154.97
2154.97
2154.97
2154.97
2154.97
2154.97
2154.97
2154.97
2154.97
2154.97
2154.97
2154.97
2154.97
2154.97
2154.97
2154.97
2154.97
2154.97
2154.97
2154.97
2154.97
2154.97
2154.97
2154.97
2154.97
2154.97
2154.97
2154.97
2154.97
2154.97
2154.97
2154.97
2154.97
2154.97
2154.97
2154.97
2154.97
2154.97
2154.97
2154.97
2154.97
2154.97
2154.97
2154.97
2154.97
2154.97
2154.97
2154.97
2154.97
2154.97
2154.97
2154.97
2154.97
2154.97
2154.97
2154.97
2154.97
2154.97
2154.97
2154.97
2154.97
2154.97
2154.97
2154.97
2154.97
2154.97
2154.97
2154.97
2154.97
2154.97
2154.97
2154.97
2154.97
2154.97
2154.97
2154.97
2154.97
2154.97
2154.97
2154.97
2154.97
2154.97
2154.97
2154.97
2154.97
2154.97
2154.97
2154.97
2154.97
2154.97
2154.97
2154.97
2154.97
2154.97
2154.97
2154.97
2154.97
2154.97
2154.97
2154.97
2154.97
2154.97
2154.97
2154.97
2154.97
2154.97
2154.97
2154.97
2154.97
2154.97
2154.97
2154.97
2154.97
2154.97
2154.97
2154.97
2154.97
2154.97
2154.97
2154.97
2154.97
2154.97
2154.97
2154.97
2154.97
2154.96
2154.96
2154.96
2154.96
2154.95
2154.95
2154.94
2154.92
2154.91
2154.89
2154.86
2154.82
2154.77
2154.71
2154.63
2154.52
2154.38
2154.2
2153.96
2153.66
2153.27
2152.78
2152.15
2151.36
2150.36
2149.11
2147.55
2145.6
2143.19
2140.21
2136.55
2132.06
2126.6
2119.96
2111.94
2102.28
2090.72
2076.95
2060.61
2041.34
2018.74
1992.39
1961.85
1926.69
1886.5
1840.9
1789.59
1732.33
1669.04
1599.77
1524.74
1444.36
1359.27
1270.29
1178.41
1084.77
990.628
897.246
805.881
717.699
633.728
554.817
481.606
414.525
353.793
299.436
251.319
209.172
172.624
141.235
114.528
92.006
73.177
57.5671
44.7325
34.2668
25.8055
19.0277
13.6557
9.45421
6.22715
3.81416
2.08539
0.934222
0.26738
-0.0090231
0.0148461
0.118625
0.214349
0.291019
0.34836
0.390098
0.420082
0.440849
0.454279
0.46173
0.464447
0.463674
0.460456
0.455526
0.449358
0.442297
0.434641
0.426654
0.41854
0.410431
0.402404
0.394514
0.386806
0.379315
0.372066
0.365063
0.358303
0.351778
0.345483
0.339419
0.333581
0.327962
0.322546
0.317317
0.312257
0.307356
0.302609
0.29801
0.293552
0.289227
0.285023
0.280934
0.27695
0.273067
0.269276
0.265573
0.261951
0.258407
0.254937
0.25154
0.248214
0.244956
0.241764
0.238635
0.235568
0.232559
0.229606
0.226709
0.223865
0.221075
0.218337
0.21565
0.213015
0.210428
0.207889
0.205396
0.202946
0.200539
0.198171
0.195841
0.193547
0.191287
0.189059
0.186862
0.184695
0.182557
0.180448
0.178366
0.176312
0.174285
0.172284
0.170309
0.16836
0.166437
0.164539
0.162666
0.160817
0.158991
0.157188
0.155407
0.153648
0.151909
0.15019
0.14849
0.146808
0.145144
0.143496
0.141865
0.140248
0.138645
0.137057
0.135482
0.13392
0.132372
0.130836
0.129314
0.127806
0.126311
0.12483
0.123362
0.121909
0.12047
0.119045
0.117634
0.116236
0.11485
0.113477
0.112114
0.110761
0.109417
0.108082
0.106753
0.105432
0.104117
0.102809
0.101508
0.100216
0.0989344
0.0976635
0.0964052
0.0951604
0.0939297
0.0927133
0.0915101
0.0903189
0.0891377
0.0879638
0.0867944
0.0856271
0.0844597
0.0832907
0.0821196
0.0809472
0.079775
0.0786054
0.0774416
0.0762865
0.0751432
0.0740136
0.0728988
0.0717986
0.0707113
0.0696343
0.068564
0.0674965
0.0664283
0.0653564
0.0642791
0.0631961
0.0621087
0.0610192
0.0599311
0.0588482
0.0577744
0.0567133
0.0556672
0.0546376
0.0536245
0.0526267
0.0516418
0.0506663
0.0496927
0.048845
0.0476009
0.0469256
0.0455202
0.0449245
0.0435422
0.0435057
0.0414955
0.0409582
0.0393672
0.0390917
0.0373594
0.037252
0.0353345
0.0353679
0.0332898
0.0334468
0.0312569
0.0314871
0.0292582
0.0294759
0.0273176
0.0274108
0.0254689
0.0253002
0.0237423
0.0231539
0.0221501
0.0209781
0.0206786
0.0187747
0.0192856
0.016544
0.017906
0.0142923
0.0164656
0.0120421
0.0148994
0.00983758
0.0131663
0.00774185
0.011255
0.00582378
0.0091819
0.0041391
0.00698178
0.00271083
0.0046951
0.00151628
0.00235837
0.000485266
)
;

boundaryField
{
    inlet
    {
        type            calculated;
        value           uniform -2154.97;
    }
    backWall
    {
        type            calculated;
        value           uniform 0;
    }
    sides
    {
        type            empty;
        value           nonuniform 0();
    }
}


// ************************************************************************* //
