/*--------------------------------*- C++ -*----------------------------------*\
| =========                 |                                                 |
| \\      /  F ield         | OpenFOAM: The Open Source CFD Toolbox           |
|  \\    /   O peration     | Version:  3.0.x                                 |
|   \\  /    A nd           | Web:      www.OpenFOAM.org                      |
|    \\/     M anipulation  |                                                 |
\*---------------------------------------------------------------------------*/
FoamFile
{
    version     2.0;
    format      ascii;
    class       volVectorField;
    location    "0.004";
    object      U;
}
// * * * * * * * * * * * * * * * * * * * * * * * * * * * * * * * * * * * * * //

dimensions      [0 1 -1 0 0 0 0];

internalField   nonuniform List<vector> 
1000
(
(42.7 0 0)
(42.7 0 0)
(42.7 0 0)
(42.7 0 0)
(42.7 0 0)
(42.7 0 0)
(42.7 0 0)
(42.7 0 0)
(42.7 0 0)
(42.7 0 0)
(42.7 0 0)
(42.7 0 0)
(42.7 0 0)
(42.7 0 0)
(42.7 0 0)
(42.7 0 0)
(42.7 0 0)
(42.7 0 0)
(42.7 0 0)
(42.7 0 0)
(42.7 0 0)
(42.7 0 0)
(42.7 0 0)
(42.7 0 0)
(42.7 0 0)
(42.7 0 0)
(42.7 0 0)
(42.7 0 0)
(42.7 0 0)
(42.7 0 0)
(42.7 0 0)
(42.7 0 0)
(42.7 0 0)
(42.7 0 0)
(42.7 0 0)
(42.7 0 0)
(42.7 0 0)
(42.7 0 0)
(42.7 0 0)
(42.7 0 0)
(42.7 0 0)
(42.7 0 0)
(42.7 0 0)
(42.7 0 0)
(42.7 0 0)
(42.7 0 0)
(42.7 0 0)
(42.7 0 0)
(42.7 0 0)
(42.7 0 0)
(42.7 0 0)
(42.7 0 0)
(42.7 0 0)
(42.7 0 0)
(42.7 0 0)
(42.7 0 0)
(42.7 0 0)
(42.7 0 0)
(42.7 0 0)
(42.7 0 0)
(42.7 0 0)
(42.7 0 0)
(42.7 0 0)
(42.7 0 0)
(42.7 0 0)
(42.7 0 0)
(42.7 0 0)
(42.7 0 0)
(42.7 0 0)
(42.7 0 0)
(42.7 0 0)
(42.7 0 0)
(42.7 0 0)
(42.7 0 0)
(42.7 0 0)
(42.7 0 0)
(42.7 0 0)
(42.7 0 0)
(42.7 0 0)
(42.7 0 0)
(42.7 0 0)
(42.7 0 0)
(42.7 0 0)
(42.7 0 0)
(42.7 0 0)
(42.7 0 0)
(42.7 0 0)
(42.7 0 0)
(42.7 0 0)
(42.7 0 0)
(42.7 0 0)
(42.7 0 0)
(42.7 0 0)
(42.7 0 0)
(42.7 0 0)
(42.7 0 0)
(42.7 0 0)
(42.7 0 0)
(42.7 0 0)
(42.7 0 0)
(42.7 0 0)
(42.7 0 0)
(42.7 0 0)
(42.7 0 0)
(42.7 0 0)
(42.7 0 0)
(42.7 0 0)
(42.7 0 0)
(42.7 0 0)
(42.7 0 0)
(42.7 0 0)
(42.7 0 0)
(42.7 0 0)
(42.7 0 0)
(42.7 0 0)
(42.7 0 0)
(42.7 0 0)
(42.7 0 0)
(42.7 0 0)
(42.7 0 0)
(42.7 0 0)
(42.7 0 0)
(42.7 0 0)
(42.7 0 0)
(42.7 0 0)
(42.7 0 0)
(42.7 0 0)
(42.7 0 0)
(42.7 0 0)
(42.7 0 0)
(42.7 0 0)
(42.7 0 0)
(42.7 0 0)
(42.7 0 0)
(42.7 0 0)
(42.7 0 0)
(42.7 0 0)
(42.7 0 0)
(42.7 0 0)
(42.7 0 0)
(42.7 0 0)
(42.7 0 0)
(42.7 0 0)
(42.7 0 0)
(42.7 0 0)
(42.7 0 0)
(42.7 0 0)
(42.7 0 0)
(42.7 0 0)
(42.7 0 0)
(42.7 0 0)
(42.7 0 0)
(42.7 0 0)
(42.7 0 0)
(42.7 0 0)
(42.7 0 0)
(42.7 0 0)
(42.7 0 0)
(42.7 0 0)
(42.7 0 0)
(42.7 0 0)
(42.7 0 0)
(42.7 0 0)
(42.7 0 0)
(42.7 0 0)
(42.7 0 0)
(42.7 0 0)
(42.7 0 0)
(42.7 0 0)
(42.7 0 0)
(42.7 0 0)
(42.7 0 0)
(42.7 0 0)
(42.7 0 0)
(42.7 0 0)
(42.7 0 0)
(42.7 0 0)
(42.7 0 0)
(42.7 0 0)
(42.7 0 0)
(42.7 0 0)
(42.7 0 0)
(42.7 0 0)
(42.7 0 0)
(42.7 0 0)
(42.7 0 0)
(42.7 0 0)
(42.7 0 0)
(42.7 0 0)
(42.7 0 0)
(42.7 0 0)
(42.7 0 0)
(42.7 0 0)
(42.7 0 0)
(42.7 0 0)
(42.7 0 0)
(42.7 0 0)
(42.7 0 0)
(42.7 0 0)
(42.7 0 0)
(42.7 0 0)
(42.7 0 0)
(42.7 0 0)
(42.7 0 0)
(42.7 0 0)
(42.7 0 0)
(42.7 0 0)
(42.7 0 0)
(42.7 0 0)
(42.7 0 0)
(42.7 0 0)
(42.7 0 0)
(42.7 0 0)
(42.7 0 0)
(42.7 0 0)
(42.7 0 0)
(42.7 0 0)
(42.7 0 0)
(42.7 0 0)
(42.7 0 0)
(42.7 0 0)
(42.7 0 0)
(42.7 0 0)
(42.7 0 0)
(42.7 0 0)
(42.7 0 0)
(42.7 0 0)
(42.7 0 0)
(42.7 0 0)
(42.7 0 0)
(42.7 0 0)
(42.7 0 0)
(42.7 0 0)
(42.7 0 0)
(42.7 0 0)
(42.7 0 0)
(42.7 0 0)
(42.7 0 0)
(42.7 0 0)
(42.7 0 0)
(42.7 0 0)
(42.7 0 0)
(42.7 0 0)
(42.7 0 0)
(42.7 0 0)
(42.7 0 0)
(42.7 0 0)
(42.7 0 0)
(42.7 0 0)
(42.7 0 0)
(42.7 0 0)
(42.7 0 0)
(42.7 0 0)
(42.7 0 0)
(42.7 0 0)
(42.7 0 0)
(42.7 0 0)
(42.7 0 0)
(42.7 0 0)
(42.7 0 0)
(42.7 0 0)
(42.7 0 0)
(42.7 0 0)
(42.7 0 0)
(42.7 0 0)
(42.7 0 0)
(42.7 0 0)
(42.7 0 0)
(42.7 0 0)
(42.7 0 0)
(42.7 0 0)
(42.7 0 0)
(42.7 0 0)
(42.7 0 0)
(42.7 0 0)
(42.7 0 0)
(42.7 0 0)
(42.7 0 0)
(42.7 0 0)
(42.7 0 0)
(42.7 0 0)
(42.7 0 0)
(42.7 0 0)
(42.7 0 0)
(42.7 0 0)
(42.7 0 0)
(42.7 0 0)
(42.7 0 0)
(42.7 0 0)
(42.7 0 0)
(42.7 0 0)
(42.7 0 0)
(42.7 0 0)
(42.7 0 0)
(42.7 0 0)
(42.7 0 0)
(42.7 0 0)
(42.7 0 0)
(42.7 0 0)
(42.7 0 0)
(42.7 0 0)
(42.7 0 0)
(42.7 0 0)
(42.7 0 0)
(42.7 0 0)
(42.7 0 0)
(42.7 0 0)
(42.7 0 0)
(42.7 0 0)
(42.7 0 0)
(42.7 0 0)
(42.7 0 0)
(42.7 0 0)
(42.7 0 0)
(42.7 0 0)
(42.7 0 0)
(42.7 0 0)
(42.7 0 0)
(42.7 0 0)
(42.7 0 0)
(42.7 0 0)
(42.7 0 0)
(42.7 0 0)
(42.7 0 0)
(42.7 0 0)
(42.7 0 0)
(42.7 0 0)
(42.7 0 0)
(42.7 0 0)
(42.7 0 0)
(42.7 0 0)
(42.7 0 0)
(42.7 0 0)
(42.7 0 0)
(42.7 0 0)
(42.7 0 0)
(42.7 0 0)
(42.7 0 0)
(42.7 0 0)
(42.7 0 0)
(42.7 0 0)
(42.7 0 0)
(42.7 0 0)
(42.7 0 0)
(42.7 0 0)
(42.7 0 0)
(42.7 0 0)
(42.7 0 0)
(42.7 0 0)
(42.7 0 0)
(42.7 0 0)
(42.7 0 0)
(42.7 0 0)
(42.7 0 0)
(42.7 0 0)
(42.7 0 0)
(42.7 0 0)
(42.7 0 0)
(42.7 0 0)
(42.7 0 0)
(42.7 0 0)
(42.7 0 0)
(42.7 0 0)
(42.7 0 0)
(42.7 0 0)
(42.7 0 0)
(42.7 0 0)
(42.7 0 0)
(42.7 0 0)
(42.7 0 0)
(42.7 0 0)
(42.7 0 0)
(42.7 0 0)
(42.7 0 0)
(42.7 0 0)
(42.7 0 0)
(42.7 0 0)
(42.7 0 0)
(42.7 0 0)
(42.7 0 0)
(42.7 0 0)
(42.7 0 0)
(42.7 0 0)
(42.7 0 0)
(42.7 0 0)
(42.7 0 0)
(42.7 0 0)
(42.7 0 0)
(42.7 0 0)
(42.7 0 0)
(42.7 0 0)
(42.7 0 0)
(42.7 0 0)
(42.7 0 0)
(42.7 0 0)
(42.7 0 0)
(42.7 0 0)
(42.7 0 0)
(42.7 0 0)
(42.7 0 0)
(42.7 0 0)
(42.7 0 0)
(42.7 0 0)
(42.7 0 0)
(42.7 0 0)
(42.7 0 0)
(42.7 0 0)
(42.7 0 0)
(42.7 0 0)
(42.7 0 0)
(42.7 0 0)
(42.7 0 0)
(42.7 0 0)
(42.7 0 0)
(42.7 0 0)
(42.7 0 0)
(42.7 0 0)
(42.7 0 0)
(42.7 0 0)
(42.7 0 0)
(42.7 0 0)
(42.7 0 0)
(42.7 0 0)
(42.7 0 0)
(42.7 0 0)
(42.7 0 0)
(42.7 0 0)
(42.7 0 0)
(42.7 0 0)
(42.7 0 0)
(42.7 0 0)
(42.7 0 0)
(42.7 0 0)
(42.7 0 0)
(42.7 0 0)
(42.7 0 0)
(42.7 0 0)
(42.7 0 0)
(42.7 0 0)
(42.7 0 0)
(42.7 0 0)
(42.7 0 0)
(42.7 0 0)
(42.7 0 0)
(42.7 0 0)
(42.7 0 0)
(42.7 0 0)
(42.7 0 0)
(42.7 0 0)
(42.7 0 0)
(42.7 0 0)
(42.7 0 0)
(42.7 0 0)
(42.7 0 0)
(42.7 0 0)
(42.7 0 0)
(42.7 0 0)
(42.7 0 0)
(42.7 0 0)
(42.7 0 0)
(42.7 0 0)
(42.7 0 0)
(42.7 0 0)
(42.7 0 0)
(42.7 0 0)
(42.7 0 0)
(42.7 0 0)
(42.7 0 0)
(42.7 0 0)
(42.7 0 0)
(42.7 0 0)
(42.7 0 0)
(42.7 0 0)
(42.7 0 0)
(42.7 0 0)
(42.7 0 0)
(42.7 0 0)
(42.7 0 0)
(42.7 0 0)
(42.7 0 0)
(42.7 0 0)
(42.7 0 0)
(42.7 0 0)
(42.7 0 0)
(42.7 0 0)
(42.7 0 0)
(42.7 0 0)
(42.7 0 0)
(42.7 0 0)
(42.7 0 0)
(42.7 0 0)
(42.7 0 0)
(42.7 0 0)
(42.7 0 0)
(42.7 0 0)
(42.7 0 0)
(42.7 0 0)
(42.7 0 0)
(42.7 0 0)
(42.7 0 0)
(42.7 0 0)
(42.7 0 0)
(42.7 0 0)
(42.7 0 0)
(42.7 0 0)
(42.7 0 0)
(42.7 0 0)
(42.7 0 0)
(42.7 0 0)
(42.7 0 0)
(42.7 0 0)
(42.7 0 0)
(42.7 0 0)
(42.7 0 0)
(42.7 0 0)
(42.7 0 0)
(42.7 0 0)
(42.7 0 0)
(42.7 0 0)
(42.7 0 0)
(42.7 0 0)
(42.7 0 0)
(42.7 0 0)
(42.7 0 0)
(42.7 0 0)
(42.7 0 0)
(42.7 0 0)
(42.7 0 0)
(42.7 0 0)
(42.7 0 0)
(42.7 0 0)
(42.7 0 0)
(42.7 0 0)
(42.7 0 0)
(42.7 0 0)
(42.7 0 0)
(42.7 0 0)
(42.7 0 0)
(42.7 0 0)
(42.7 0 0)
(42.7 0 0)
(42.7 0 0)
(42.7 0 0)
(42.7 0 0)
(42.7 0 0)
(42.7 0 0)
(42.7 0 0)
(42.7 0 0)
(42.7 0 0)
(42.7 0 0)
(42.7 0 0)
(42.7 0 0)
(42.7 0 0)
(42.7 0 0)
(42.7 0 0)
(42.7 0 0)
(42.7 0 0)
(42.7 0 0)
(42.7 0 0)
(42.7 0 0)
(42.7 0 0)
(42.7 0 0)
(42.7 0 0)
(42.7 0 0)
(42.7 0 0)
(42.7 0 0)
(42.7 0 0)
(42.7 0 0)
(42.7 0 0)
(42.7 0 0)
(42.7 0 0)
(42.7 0 0)
(42.7 0 0)
(42.7 0 0)
(42.7 0 0)
(42.7 0 0)
(42.7 0 0)
(42.7 0 0)
(42.7 0 0)
(42.7 0 0)
(42.7 0 0)
(42.7 0 0)
(42.7 0 0)
(42.7 0 0)
(42.7 0 0)
(42.7 0 0)
(42.7 0 0)
(42.7 0 0)
(42.7 0 0)
(42.7 0 0)
(42.7 0 0)
(42.7 0 0)
(42.7 0 0)
(42.7 0 0)
(42.7 0 0)
(42.7 0 0)
(42.7 0 0)
(42.7 0 0)
(42.7 0 0)
(42.7 0 0)
(42.7 0 0)
(42.7 0 0)
(42.7 0 0)
(42.7 0 0)
(42.7 0 0)
(42.7 0 0)
(42.7 0 0)
(42.7 0 0)
(42.7 0 0)
(42.7 0 0)
(42.7 0 0)
(42.7 0 0)
(42.7 0 0)
(42.7 0 0)
(42.7 0 0)
(42.7 0 0)
(42.7 0 0)
(42.7 0 0)
(42.7 0 0)
(42.7 0 0)
(42.7 0 0)
(42.7 0 0)
(42.7 0 0)
(42.7 0 0)
(42.7 0 0)
(42.7 0 0)
(42.7 0 0)
(42.7 0 0)
(42.7 0 0)
(42.7 0 0)
(42.7 0 0)
(42.7 0 0)
(42.7 0 0)
(42.7 0 0)
(42.7 0 0)
(42.7 0 0)
(42.7 0 0)
(42.7 0 0)
(42.7 0 0)
(42.7 0 0)
(42.7 0 0)
(42.7 0 0)
(42.7 0 0)
(42.7 0 0)
(42.7 0 0)
(42.7 0 0)
(42.7 0 0)
(42.7 0 0)
(42.7 0 0)
(42.7 0 0)
(42.7 0 0)
(42.7 0 0)
(42.7 0 0)
(42.7 0 0)
(42.7 0 0)
(42.7 0 0)
(42.7 0 0)
(42.7 0 0)
(42.7 0 0)
(42.7 0 0)
(42.7 0 0)
(42.7 0 0)
(42.7 0 0)
(42.7 0 0)
(42.7 0 0)
(42.7 0 0)
(42.7 0 0)
(42.7 0 0)
(42.7 0 0)
(42.7 0 0)
(42.7 0 0)
(42.7 0 0)
(42.7 0 0)
(42.7 0 0)
(42.7 0 0)
(42.7 0 0)
(42.7 0 0)
(42.7 0 0)
(42.7 0 0)
(42.7 0 0)
(42.7 0 0)
(42.7 0 0)
(42.7 0 0)
(42.7 0 0)
(42.7 0 0)
(42.7 0 0)
(42.7 0 0)
(42.7 0 0)
(42.7 0 0)
(42.6999 0 0)
(42.6999 0 0)
(42.6999 0 0)
(42.6998 0 0)
(42.6998 0 0)
(42.6997 0 0)
(42.6996 0 0)
(42.6994 0 0)
(42.6992 0 0)
(42.6989 0 0)
(42.6985 0 0)
(42.698 0 0)
(42.6973 0 0)
(42.6964 0 0)
(42.6952 0 0)
(42.6937 0 0)
(42.6916 0 0)
(42.689 0 0)
(42.6856 0 0)
(42.6811 0 0)
(42.6755 0 0)
(42.6682 0 0)
(42.6589 0 0)
(42.647 0 0)
(42.632 0 0)
(42.6131 0 0)
(42.5894 0 0)
(42.5596 0 0)
(42.5225 0 0)
(42.4765 0 0)
(42.4195 0 0)
(42.3493 0 0)
(42.2633 0 0)
(42.1582 0 0)
(42.0304 0 0)
(41.8757 0 0)
(41.6892 0 0)
(41.4656 0 0)
(41.1987 0 0)
(40.8818 0 0)
(40.5074 0 0)
(40.0677 0 0)
(39.5543 0 0)
(38.9586 0 0)
(38.272 0 0)
(37.4863 0 0)
(36.5939 0 0)
(35.5887 0 0)
(34.4662 0 0)
(33.2243 0 0)
(31.8639 0 0)
(30.3892 0 0)
(28.8083 0 0)
(27.1334 0 0)
(25.3804 0 0)
(23.5688 0 0)
(21.7209 0 0)
(19.8608 0 0)
(18.0137 0 0)
(16.2041 0 0)
(14.4549 0 0)
(12.7866 0 0)
(11.2159 0 0)
(9.75577 0 0)
(8.41506 0 0)
(7.19844 0 0)
(6.10688 0 0)
(5.13811 0 0)
(4.28721 0 0)
(3.54724 0 0)
(2.90984 0 0)
(2.36581 0 0)
(1.90554 0 0)
(1.51947 0 0)
(1.1983 0 0)
(0.933305 0 0)
(0.71645 0 0)
(0.540499 0 0)
(0.399054 0 0)
(0.286567 0 0)
(0.198315 0 0)
(0.130353 0 0)
(0.079444 0 0)
(0.0429517 0 0)
(0.0186857 0 0)
(0.00469825 0 0)
(-0.000876192 0 0)
(-0.00101035 0 0)
(0.000885572 0 0)
(0.00293648 0 0)
(0.00459382 0 0)
(0.0058248 0 0)
(0.00676611 0 0)
(0.00746331 0 0)
(0.00789201 0 0)
(0.00824419 0 0)
(0.00847064 0 0)
(0.00850027 0 0)
(0.00856632 0 0)
(0.00856105 0 0)
(0.00841016 0 0)
(0.00836062 0 0)
(0.00825723 0 0)
(0.00805461 0 0)
(0.00796412 0 0)
(0.00781552 0 0)
(0.00762691 0 0)
(0.00752642 0 0)
(0.0073661 0 0)
(0.0071901 0 0)
(0.00708219 0 0)
(0.00694827 0 0)
(0.00678657 0 0)
(0.00667578 0 0)
(0.00656981 0 0)
(0.00642686 0 0)
(0.00630447 0 0)
(0.00624025 0 0)
(0.00611949 0 0)
(0.00597539 0 0)
(0.00593071 0 0)
(0.00583229 0 0)
(0.00568345 0 0)
(0.00564865 0 0)
(0.00557207 0 0)
(0.00541884 0 0)
(0.00541341 0 0)
(0.00532766 0 0)
(0.00517279 0 0)
(0.00519711 0 0)
(0.0051015 0 0)
(0.00495644 0 0)
(0.00497286 0 0)
(0.00489087 0 0)
(0.00476782 0 0)
(0.0047561 0 0)
(0.0046993 0 0)
(0.00459955 0 0)
(0.00454744 0 0)
(0.00452813 0 0)
(0.00445295 0 0)
(0.00435224 0 0)
(0.00434876 0 0)
(0.0043042 0 0)
(0.00416984 0 0)
(0.00419032 0 0)
(0.00414884 0 0)
(0.00401405 0 0)
(0.00404211 0 0)
(0.0039851 0 0)
(0.00388587 0 0)
(0.00389446 0 0)
(0.00383554 0 0)
(0.00375335 0 0)
(0.00374111 0 0)
(0.00369628 0 0)
(0.00363812 0 0)
(0.00358661 0 0)
(0.00357737 0 0)
(0.00352481 0 0)
(0.0034469 0 0)
(0.00345906 0 0)
(0.00342022 0 0)
(0.00333057 0 0)
(0.0033233 0 0)
(0.00332548 0 0)
(0.0032403 0 0)
(0.00317757 0 0)
(0.00321919 0 0)
(0.0031463 0 0)
(0.00305071 0 0)
(0.00310634 0 0)
(0.00304186 0 0)
(0.00295745 0 0)
(0.00298949 0 0)
(0.00294048 0 0)
(0.00288997 0 0)
(0.00285082 0 0)
(0.00284539 0 0)
(0.00282742 0 0)
(0.00272806 0 0)
(0.00274726 0 0)
(0.00274417 0 0)
(0.00266285 0 0)
(0.00262915 0 0)
(0.00266213 0 0)
(0.00258686 0 0)
(0.00252018 0 0)
(0.00257379 0 0)
(0.00249811 0 0)
(0.00244557 0 0)
(0.00246961 0 0)
(0.00242473 0 0)
(0.00236884 0 0)
(0.00237138 0 0)
(0.00234824 0 0)
(0.00229495 0 0)
(0.00230593 0 0)
(0.00224847 0 0)
(0.00222817 0 0)
(0.00222739 0 0)
(0.00216143 0 0)
(0.00215471 0 0)
(0.00214038 0 0)
(0.00210877 0 0)
(0.00204589 0 0)
(0.00208407 0 0)
(0.00202472 0 0)
(0.00196279 0 0)
(0.0020084 0 0)
(0.00195122 0 0)
(0.0019093 0 0)
(0.00192775 0 0)
(0.00187942 0 0)
(0.0018409 0 0)
(0.00186327 0 0)
(0.00179546 0 0)
(0.00178292 0 0)
(0.00177888 0 0)
(0.00174299 0 0)
(0.00169841 0 0)
(0.00172375 0 0)
(0.0016654 0 0)
(0.00165334 0 0)
(0.00163335 0 0)
(0.00161708 0 0)
(0.0015916 0 0)
(0.00154823 0 0)
(0.00156559 0 0)
(0.00151642 0 0)
(0.00149256 0 0)
(0.00149287 0 0)
(0.00145343 0 0)
(0.00143435 0 0)
(0.00142225 0 0)
(0.0013861 0 0)
(0.00138779 0 0)
(0.0013305 0 0)
(0.00135711 0 0)
(0.00129095 0 0)
(0.00131016 0 0)
(0.00125634 0 0)
(0.00126243 0 0)
(0.00123057 0 0)
(0.00120068 0 0)
(0.0012084 0 0)
(0.00115036 0 0)
(0.00117915 0 0)
(0.00109592 0 0)
(0.00113853 0 0)
(0.00107429 0 0)
(0.00105271 0 0)
(0.001078 0 0)
(0.00100138 0 0)
(0.00102786 0 0)
(0.000991026 0 0)
(0.000940395 0 0)
(0.0010014 0 0)
(0.000900103 0 0)
(0.000792656 0 0)
(0.0014202 0 0)
(-0.000275336 0 0)
(0.00285339 0 0)
(-0.00219037 0 0)
(0.00507436 0 0)
(-0.00483874 0 0)
(0.00797204 0 0)
(-0.00826656 0 0)
(0.012028 0 0)
(-0.0132908 0 0)
(0.0180371 0 0)
(-0.0206082 0 0)
(0.0267191 0 0)
(-0.0310191 0 0)
(0.038955 0 0)
(-0.0454868 0 0)
(0.0557857 0 0)
(-0.0651204 0 0)
(0.0783781 0 0)
(-0.0911295 0 0)
(0.107967 0 0)
(-0.12475 0 0)
(0.145764 0 0)
(-0.167139 0 0)
(0.192836 0 0)
(-0.219235 0 0)
(0.249956 0 0)
(-0.2816 0 0)
(0.317437 0 0)
(-0.354259 0 0)
(0.394973 0 0)
(-0.436543 0 0)
(0.481504 0 0)
(-0.526979 0 0)
(0.575126 0 0)
(-0.623235 0 0)
(0.673085 0 0)
(-0.722152 0 0)
(0.771849 0 0)
(-0.819869 0 0)
(0.867285 0 0)
(-0.912046 0 0)
(0.954924 0 0)
(-0.994168 0 0)
(1.0303 0 0)
(-1.0619 0 0)
(1.0893 0 0)
(-1.11147 0 0)
(1.12858 0 0)
(-1.14001 0 0)
(1.14583 0 0)
)
;

boundaryField
{
    inlet
    {
        type            fixedValue;
        value           uniform (42.7 0 0);
    }
    backWall
    {
        type            fixedValue;
        value           uniform (0 0 0);
    }
    sides
    {
        type            empty;
    }
}


// ************************************************************************* //
