/*--------------------------------*- C++ -*----------------------------------*\
| =========                 |                                                 |
| \\      /  F ield         | OpenFOAM: The Open Source CFD Toolbox           |
|  \\    /   O peration     | Version:  3.0.x                                 |
|   \\  /    A nd           | Web:      www.OpenFOAM.org                      |
|    \\/     M anipulation  |                                                 |
\*---------------------------------------------------------------------------*/
FoamFile
{
    version     2.0;
    format      ascii;
    class       surfaceScalarField;
    location    "0.21";
    object      phi;
}
// * * * * * * * * * * * * * * * * * * * * * * * * * * * * * * * * * * * * * //

dimensions      [1 0 -1 0 0 0 0];

internalField   nonuniform List<scalar> 
52430
(
3.90597
0.000243623
3.90581
0.000176126
3.90567
0.000169093
3.90551
0.000170316
3.90536
0.000170723
3.90521
0.000170654
3.90505
0.000170607
3.9049
0.000170592
3.90474
0.000170584
3.90458
0.000170575
3.90443
0.000170568
3.90428
0.000170547
3.90413
0.000170567
3.90399
0.000170583
3.90384
0.00017057
3.90369
0.000170572
3.90354
0.000170572
3.90339
0.000170547
3.90323
0.000170576
3.90308
0.000170591
3.90292
0.000170568
3.90277
0.000170566
3.90262
0.000170541
3.90247
0.000170566
3.90232
0.000170596
3.90217
0.000170574
3.90203
0.000170578
3.90188
0.000170582
3.90173
0.000170586
3.90158
0.000170588
3.90142
0.000170589
3.90127
0.000170589
3.90112
0.000170588
3.90097
0.000170592
3.90081
0.000170569
3.90066
0.000170568
3.9005
0.00017057
3.90035
0.000170556
3.90019
0.000170606
3.90003
0.0001705
3.89987
0.000170533
3.89971
0.000170521
3.89956
0.000170504
3.8994
0.00017048
3.89924
0.000170414
3.89909
0.000170407
3.89894
0.000170366
3.89879
0.000170235
3.89864
0.000170095
3.89849
0.000169892
3.89833
0.000169609
3.89818
0.00016922
3.89803
0.000168693
3.89787
0.000167994
3.89772
0.000167083
3.89757
0.000165899
3.89741
0.000164454
3.89726
0.000162623
3.89711
0.000160392
3.89697
0.00015772
3.89682
0.000154561
3.89668
0.000150885
3.89655
0.000146669
3.89641
0.000141906
3.89629
0.000136603
3.89617
0.000130781
3.89605
0.000124478
3.89594
0.00011775
3.89584
0.000110663
3.89574
0.000103299
3.89565
9.57453e-05
3.89557
8.80981e-05
3.8955
8.04542e-05
3.89543
7.29092e-05
3.89537
6.55535e-05
3.89532
5.84696e-05
3.89527
5.17289e-05
3.89523
4.5391e-05
3.89519
3.95002e-05
3.89516
3.40886e-05
3.89513
2.91737e-05
3.89511
2.47593e-05
3.89509
2.08383e-05
3.89507
1.73936e-05
3.89506
1.43999e-05
3.89504
1.18256e-05
3.89503
9.63536e-06
3.89502
7.79116e-06
3.89501
6.25425e-06
3.89501
4.98646e-06
3.895
3.95117e-06
3.89499
3.11416e-06
3.89498
2.44413e-06
3.89497
1.91304e-06
3.89497
1.49619e-06
3.89496
1.17224e-06
3.89495
9.2297e-07
3.89494
7.33096e-07
3.89493
5.89958e-07
3.89492
4.83196e-07
3.89491
4.04447e-07
3.89489
3.47061e-07
3.89488
3.05785e-07
3.89487
2.76537e-07
3.89485
2.56199e-07
3.89484
2.42389e-07
3.89482
2.33291e-07
3.89481
2.27597e-07
3.89479
2.243e-07
3.89477
2.22672e-07
3.89475
2.2222e-07
3.89474
2.22532e-07
3.89472
2.23365e-07
3.8947
2.24522e-07
3.89468
2.25846e-07
3.89465
2.27286e-07
3.89463
2.28711e-07
3.89461
2.30153e-07
3.89459
2.31468e-07
3.89457
2.32752e-07
3.89454
2.33862e-07
3.89452
2.34893e-07
3.8945
2.35745e-07
3.89447
2.36454e-07
3.89445
2.37016e-07
3.89443
2.3736e-07
3.8944
2.37565e-07
3.89438
2.37556e-07
3.89436
2.37345e-07
3.89434
2.36956e-07
3.89431
2.36361e-07
3.89429
2.35521e-07
3.89427
2.34484e-07
3.89425
2.33224e-07
3.89423
2.31743e-07
3.89421
2.30013e-07
3.89419
2.28056e-07
3.89418
2.25862e-07
3.89416
2.23436e-07
3.89414
2.20793e-07
3.89413
2.17869e-07
3.89412
2.1473e-07
3.89411
2.11345e-07
3.8941
2.07736e-07
3.89409
2.03892e-07
3.89408
1.99818e-07
3.89408
1.95516e-07
3.89407
1.90988e-07
3.89407
1.86246e-07
3.89407
1.81295e-07
3.89407
1.76144e-07
3.89408
1.70794e-07
3.89408
1.65252e-07
3.89409
1.59527e-07
3.8941
1.53632e-07
3.89411
1.47578e-07
3.89413
1.41375e-07
3.89414
1.34987e-07
3.89416
1.28583e-07
3.89418
1.2196e-07
3.89421
1.15257e-07
3.89423
1.0845e-07
3.89426
1.01587e-07
3.89428
9.4642e-08
3.89431
8.76371e-08
3.89435
8.05667e-08
3.89438
7.34126e-08
3.89441
6.62258e-08
3.89445
5.94282e-08
3.89449
5.27798e-08
3.89453
4.62805e-08
3.89457
4.57876e-08
3.89461
3.50155e-08
3.89465
1.62108e-08
3.8947
1.50212e-08
3.89474
1.11195e-08
3.89479
5.19867e-09
3.89483
-1.06411e-09
3.89488
-7.43057e-09
3.89492
-1.35733e-08
3.89497
-1.95068e-08
3.89502
-2.52967e-08
3.89506
-3.07973e-08
3.89511
-3.62197e-08
3.89515
-4.13165e-08
3.8952
-4.62587e-08
3.89524
-5.09699e-08
3.89528
-5.53864e-08
3.89532
-5.96392e-08
3.89536
-6.36282e-08
3.8954
-6.73353e-08
3.89543
-7.07932e-08
3.89547
-7.40365e-08
3.8955
-7.69796e-08
3.89553
-7.96299e-08
3.89556
-8.20728e-08
3.89558
-8.42447e-08
3.89561
-8.61492e-08
3.89563
-8.7728e-08
3.89564
-8.91469e-08
3.89566
-9.02564e-08
3.89567
-9.11023e-08
3.89568
-9.16607e-08
3.89569
-9.20336e-08
3.89569
-9.21355e-08
3.89569
-9.19754e-08
3.89568
-9.1577e-08
3.89568
-9.09713e-08
3.89567
-9.01382e-08
3.89565
-8.9045e-08
3.89564
-8.77917e-08
3.89562
-8.63201e-08
3.8956
-8.4663e-08
3.89557
-8.27295e-08
3.89554
-8.09086e-08
3.89551
-7.85585e-08
3.89548
-7.62539e-08
3.89544
-7.37491e-08
3.8954
-7.11188e-08
3.89536
-6.83613e-08
3.89531
-6.54582e-08
3.89527
-6.24568e-08
3.89522
-5.935e-08
3.89516
-5.61613e-08
3.89511
-5.28489e-08
3.89506
-4.94911e-08
3.895
-4.60514e-08
3.89494
-4.2568e-08
3.89488
-3.89919e-08
3.89482
-3.53939e-08
3.89476
-3.17596e-08
3.89469
-2.81143e-08
3.89463
-2.4409e-08
3.89456
-2.06983e-08
3.8945
-1.69821e-08
3.89443
-1.32804e-08
3.89437
-9.55151e-09
3.8943
-5.8244e-09
3.89424
-2.03909e-09
3.89417
1.54068e-09
3.89411
5.20595e-09
3.89405
8.84211e-09
3.89399
1.24528e-08
3.89393
1.60308e-08
3.89387
1.95796e-08
3.89381
2.30957e-08
3.89376
2.65791e-08
3.8937
2.9997e-08
3.89365
3.34039e-08
3.8936
3.67418e-08
3.89355
4.00523e-08
3.89351
4.33101e-08
3.89347
4.65261e-08
3.89343
4.97148e-08
3.89339
5.28835e-08
3.89336
5.6054e-08
3.89333
5.91699e-08
3.89331
6.21312e-08
3.89328
6.48361e-08
3.89326
6.73062e-08
3.89325
6.90598e-08
3.89324
7.18883e-08
3.89323
7.64212e-08
3.89323
7.94935e-08
3.89323
8.18873e-08
3.89323
8.40755e-08
3.89324
8.64638e-08
3.89325
8.90595e-08
3.89327
9.1557e-08
3.89329
9.40163e-08
3.89332
9.64428e-08
3.89335
9.87384e-08
3.89339
1.00967e-07
3.89343
1.0342e-07
3.89348
1.05732e-07
3.89353
1.08279e-07
3.89358
1.10091e-07
3.89364
1.12263e-07
3.89371
1.144e-07
3.89378
1.16501e-07
3.89385
1.18569e-07
3.89393
1.20595e-07
3.89401
1.22587e-07
3.8941
1.24539e-07
3.8942
1.26456e-07
3.89429
1.28344e-07
3.8944
1.30191e-07
3.8945
1.31988e-07
3.89462
1.33748e-07
3.89473
1.35467e-07
3.89485
1.3717e-07
3.89498
1.38796e-07
3.89511
1.40364e-07
3.89525
1.41892e-07
3.89538
1.43382e-07
3.89553
1.44781e-07
3.89567
1.46163e-07
3.89582
1.47464e-07
3.89598
1.4869e-07
3.89613
1.49912e-07
3.89629
1.50985e-07
3.89646
1.52073e-07
3.89663
1.53022e-07
3.8968
1.53965e-07
3.89697
1.54771e-07
3.89714
1.55567e-07
3.89732
1.56197e-07
3.8975
1.56857e-07
3.89768
1.57313e-07
3.89787
1.57772e-07
3.89805
1.5811e-07
3.89824
1.5833e-07
3.89842
1.58534e-07
3.89861
1.58563e-07
3.8988
1.58521e-07
3.89899
1.58439e-07
3.89918
1.58163e-07
3.89937
1.57834e-07
3.89956
1.57446e-07
3.89974
1.56879e-07
3.89993
1.56231e-07
3.90012
1.55536e-07
3.9003
1.54685e-07
3.90048
1.53697e-07
3.90066
1.52688e-07
3.90084
1.51571e-07
3.90101
1.50214e-07
3.90118
1.48897e-07
3.90135
1.47553e-07
3.90152
1.45823e-07
3.90168
1.44228e-07
3.90184
1.42578e-07
3.90199
1.40602e-07
3.90214
1.3868e-07
3.90228
1.36772e-07
3.90242
1.34594e-07
3.90256
1.32341e-07
3.90268
1.3018e-07
3.90281
1.27862e-07
3.90292
1.25259e-07
3.90303
1.22904e-07
3.90314
1.20508e-07
3.90323
1.17563e-07
3.90332
1.15073e-07
3.90341
1.12574e-07
3.90348
1.09503e-07
3.90355
1.06749e-07
3.90362
1.04239e-07
3.90367
1.01061e-07
3.90372
9.81363e-08
3.90376
9.53059e-08
3.90379
9.24083e-08
3.90381
8.89067e-08
3.90383
8.59673e-08
3.90384
8.45193e-08
3.90384
8.01592e-08
3.90383
7.66886e-08
3.90381
7.49278e-08
3.90379
7.17646e-08
3.90376
6.88124e-08
3.90372
6.59529e-08
3.90367
6.31389e-08
3.90362
6.03704e-08
3.90356
5.76492e-08
3.90349
5.49771e-08
3.90341
5.23651e-08
3.90333
4.98076e-08
3.90323
4.73283e-08
3.90313
4.49018e-08
3.90303
4.25625e-08
3.90292
4.02888e-08
3.9028
3.8106e-08
3.90267
3.60142e-08
3.90254
3.40151e-08
3.9024
3.21797e-08
3.90226
3.04753e-08
3.90211
2.91257e-08
3.90196
2.83981e-08
3.9018
2.89947e-08
3.90163
3.27855e-08
3.90147
4.38358e-08
3.90129
7.23139e-08
3.90112
1.42316e-07
3.90093
3.1128e-07
3.90075
7.17118e-07
3.90056
1.68925e-06
3.90036
4.01555e-06
3.90016
9.58063e-06
3.89994
2.28902e-05
3.89969
5.47151e-05
3.89936
0.000130789
3.89884
0.000312549
3.89789
0.000746477
3.8959
0.0017813
3.89145
0.00424553
3.8812
0.0100414
3.85726
0.0237324
3.80054
0.0565138
3.65937
0.140962
0.380648
3.27851
5.52428
0.000213024
5.52431
0.000170381
5.52435
0.000156202
5.52439
0.000158412
5.52443
0.000159403
5.52446
0.00015929
5.5245
0.000159211
5.52452
0.000159219
5.52455
0.000159228
5.52458
0.000159232
5.52462
0.000159236
5.52466
0.000159231
5.5247
0.000159257
5.52475
0.00015928
5.5248
0.000159281
5.52484
0.000159294
5.52488
0.000159305
5.52491
0.000159297
5.52495
0.000159328
5.52498
0.000159352
5.52501
0.000159344
5.52505
0.000159352
5.52508
0.000159344
5.52512
0.000159374
5.52517
0.000159408
5.52521
0.000159402
5.52526
0.000159417
5.5253
0.000159431
5.52534
0.000159444
5.52538
0.000159457
5.52541
0.000159468
5.52545
0.000159478
5.52548
0.000159487
5.52552
0.000159502
5.52556
0.000159495
5.52559
0.000159502
5.52562
0.000159513
5.52566
0.000159512
5.52569
0.000159548
5.52571
0.000159496
5.52574
0.00015952
5.52576
0.000159519
5.52579
0.000159513
5.52582
0.000159501
5.52586
0.000159454
5.52589
0.000159451
5.52593
0.000159417
5.52597
0.000159315
5.526
0.000159188
5.52604
0.000159006
5.52607
0.000158747
5.52611
0.000158387
5.52614
0.000157898
5.52617
0.000157246
5.5262
0.000156391
5.52623
0.000155284
5.52625
0.000153916
5.52628
0.000152197
5.52631
0.000150095
5.52633
0.000147577
5.52636
0.0001446
5.52638
0.000141136
5.52641
0.000137165
5.52643
0.000132679
5.52645
0.000127687
5.52647
0.000122208
5.52649
0.000116281
5.52651
0.000109957
5.52653
0.000103301
5.52655
9.63877e-05
5.52656
8.93022e-05
5.52658
8.21338e-05
5.52659
7.49735e-05
5.52661
6.7911e-05
5.52662
6.10307e-05
5.52663
5.44093e-05
5.52664
4.81135e-05
5.52665
4.2198e-05
5.52665
3.67036e-05
5.52666
3.16601e-05
5.52666
2.70823e-05
5.52667
2.29735e-05
5.52667
1.93264e-05
5.52667
1.61244e-05
5.52667
1.33432e-05
5.52667
1.09532e-05
5.52667
8.92098e-06
5.52667
7.21076e-06
5.52666
5.7863e-06
5.52666
4.61188e-06
5.52665
3.65333e-06
5.52665
2.87874e-06
5.52664
2.25899e-06
5.52663
1.76798e-06
5.52662
1.38276e-06
5.52661
1.08353e-06
5.5266
8.53384e-07
5.52659
6.78152e-07
5.52657
5.46109e-07
5.52656
4.47668e-07
5.52654
3.7509e-07
5.52652
3.22226e-07
5.52651
2.84225e-07
5.52649
2.57322e-07
5.52647
2.38625e-07
5.52645
2.25946e-07
5.52642
2.17611e-07
5.5264
2.12402e-07
5.52638
2.09406e-07
5.52635
2.07945e-07
5.52633
2.0756e-07
5.5263
2.07885e-07
5.52627
2.08677e-07
5.52625
2.09769e-07
5.52622
2.11015e-07
5.52619
2.12363e-07
5.52616
2.13703e-07
5.52613
2.15044e-07
5.52609
2.16286e-07
5.52606
2.17473e-07
5.52603
2.18518e-07
5.526
2.19471e-07
5.52597
2.20271e-07
5.52593
2.20929e-07
5.5259
2.21451e-07
5.52587
2.2178e-07
5.52583
2.21964e-07
5.5258
2.21961e-07
5.52577
2.21763e-07
5.52574
2.21395e-07
5.52571
2.20838e-07
5.52568
2.20055e-07
5.52565
2.19082e-07
5.52562
2.1791e-07
5.52559
2.16528e-07
5.52556
2.14912e-07
5.52554
2.13081e-07
5.52551
2.11036e-07
5.52549
2.08774e-07
5.52547
2.063e-07
5.52545
2.0357e-07
5.52543
2.00635e-07
5.52542
1.97477e-07
5.5254
1.94106e-07
5.52539
1.9052e-07
5.52538
1.86709e-07
5.52537
1.82696e-07
5.52537
1.78469e-07
5.52537
1.74044e-07
5.52537
1.69417e-07
5.52537
1.64608e-07
5.52538
1.5961e-07
5.52538
1.54436e-07
5.5254
1.49093e-07
5.52541
1.43589e-07
5.52543
1.37939e-07
5.52545
1.32149e-07
5.52547
1.26186e-07
5.5255
1.20204e-07
5.52552
1.14027e-07
5.52556
1.0777e-07
5.52559
1.0142e-07
5.52563
9.50122e-08
5.52567
8.85311e-08
5.52571
8.19909e-08
5.52575
7.53926e-08
5.5258
6.87214e-08
5.52585
6.20284e-08
5.5259
5.56647e-08
5.52595
4.95129e-08
5.52601
4.36066e-08
5.52607
4.24725e-08
5.52613
3.25863e-08
5.52619
1.61626e-08
5.52625
1.39589e-08
5.52631
1.04237e-08
5.52638
4.99131e-09
5.52644
-7.32143e-10
5.5265
-6.71025e-09
5.52657
-1.24701e-08
5.52663
-1.80071e-08
5.5267
-2.34013e-08
5.52676
-2.85481e-08
5.52683
-3.35949e-08
5.52689
-3.83707e-08
5.52695
-4.29709e-08
5.52701
-4.73729e-08
5.52707
-5.15047e-08
5.52713
-5.54619e-08
5.52718
-5.91945e-08
5.52724
-6.26569e-08
5.52729
-6.58829e-08
5.52734
-6.89097e-08
5.52738
-7.16645e-08
5.52742
-7.41366e-08
5.52746
-7.64139e-08
5.5275
-7.84485e-08
5.52753
-8.02256e-08
5.52756
-8.1709e-08
5.52758
-8.30214e-08
5.5276
-8.40701e-08
5.52762
-8.48559e-08
5.52763
-8.53779e-08
5.52764
-8.57235e-08
5.52764
-8.58254e-08
5.52764
-8.56762e-08
5.52764
-8.53015e-08
5.52763
-8.47385e-08
5.52761
-8.39627e-08
5.52759
-8.2945e-08
5.52757
-8.17663e-08
5.52754
-8.04012e-08
5.52751
-7.88514e-08
5.52747
-7.70606e-08
5.52743
-7.53334e-08
5.52739
-7.31761e-08
5.52734
-7.10079e-08
5.52729
-6.86759e-08
5.52723
-6.62203e-08
5.52717
-6.36492e-08
5.52711
-6.09407e-08
5.52704
-5.81413e-08
5.52697
-5.52463e-08
5.5269
-5.22714e-08
5.52682
-4.91809e-08
5.52674
-4.60404e-08
5.52666
-4.28408e-08
5.52658
-3.95903e-08
5.52649
-3.62552e-08
5.5264
-3.28964e-08
5.52631
-2.95076e-08
5.52622
-2.61043e-08
5.52613
-2.26519e-08
5.52604
-1.91894e-08
5.52595
-1.57288e-08
5.52586
-1.22709e-08
5.52577
-8.79754e-09
5.52567
-5.30235e-09
5.52558
-1.67438e-09
5.52549
1.58798e-09
5.5254
5.00404e-09
5.52531
8.39918e-09
5.52523
1.17616e-08
5.52514
1.51003e-08
5.52506
1.84173e-08
5.52498
2.16987e-08
5.5249
2.49529e-08
5.52482
2.81498e-08
5.52475
3.13221e-08
5.52468
3.44435e-08
5.52461
3.75358e-08
5.52455
4.05762e-08
5.52449
4.35812e-08
5.52444
4.65589e-08
5.52438
4.95156e-08
5.52434
5.2476e-08
5.5243
5.5381e-08
5.52426
5.81376e-08
5.52423
6.06578e-08
5.5242
6.29498e-08
5.52418
6.4686e-08
5.52416
6.72862e-08
5.52415
7.14026e-08
5.52415
7.44094e-08
5.52415
7.65931e-08
5.52415
7.86431e-08
5.52417
8.08914e-08
5.52419
8.33052e-08
5.52421
8.5648e-08
5.52424
8.79436e-08
5.52428
9.02046e-08
5.52433
9.23583e-08
5.52438
9.44356e-08
5.52443
9.67475e-08
5.5245
9.8893e-08
5.52457
1.01229e-07
5.52465
1.0297e-07
5.52473
1.04984e-07
5.52482
1.06979e-07
5.52492
1.08937e-07
5.52503
1.10871e-07
5.52514
1.12759e-07
5.52526
1.14616e-07
5.52538
1.16441e-07
5.52552
1.18231e-07
5.52565
1.19989e-07
5.5258
1.21714e-07
5.52595
1.23392e-07
5.52611
1.25035e-07
5.52628
1.26638e-07
5.52645
1.28224e-07
5.52663
1.29749e-07
5.52681
1.31212e-07
5.527
1.32635e-07
5.5272
1.34022e-07
5.5274
1.35332e-07
5.5276
1.36613e-07
5.52782
1.37829e-07
5.52803
1.38975e-07
5.52826
1.40106e-07
5.52848
1.41117e-07
5.52872
1.42119e-07
5.52895
1.43016e-07
5.52919
1.43881e-07
5.52944
1.4464e-07
5.52969
1.45368e-07
5.52994
1.45971e-07
5.53019
1.46565e-07
5.53045
1.4701e-07
5.53071
1.47419e-07
5.53097
1.47737e-07
5.53123
1.47947e-07
5.5315
1.48122e-07
5.53176
1.48156e-07
5.53203
1.48111e-07
5.5323
1.48026e-07
5.53256
1.4778e-07
5.53283
1.47464e-07
5.5331
1.471e-07
5.53336
1.46577e-07
5.53363
1.45968e-07
5.53389
1.45311e-07
5.53415
1.44523e-07
5.53441
1.43604e-07
5.53466
1.42654e-07
5.53491
1.41612e-07
5.53516
1.4036e-07
5.5354
1.39122e-07
5.53564
1.37865e-07
5.53587
1.3628e-07
5.5361
1.34771e-07
5.53632
1.33229e-07
5.53654
1.31413e-07
5.53675
1.29609e-07
5.53695
1.27823e-07
5.53715
1.25803e-07
5.53734
1.23706e-07
5.53752
1.21671e-07
5.53769
1.19514e-07
5.53786
1.17093e-07
5.53801
1.14878e-07
5.53816
1.12631e-07
5.5383
1.09939e-07
5.53843
1.07569e-07
5.53854
1.05256e-07
5.53865
1.02473e-07
5.53875
9.98125e-08
5.53884
9.76279e-08
5.53892
9.45229e-08
5.53898
9.18826e-08
5.53904
8.90332e-08
5.53908
8.63065e-08
5.53912
8.27076e-08
5.53914
7.98827e-08
5.53915
7.92788e-08
5.53915
7.52034e-08
5.53914
7.18192e-08
5.53912
7.0615e-08
5.53909
6.72999e-08
5.53904
6.44459e-08
5.53899
6.17565e-08
5.53892
5.91217e-08
5.53884
5.65415e-08
5.53875
5.39994e-08
5.53865
5.15029e-08
5.53854
4.90709e-08
5.53842
4.66753e-08
5.5383
4.43715e-08
5.53816
4.20978e-08
5.53801
3.99232e-08
5.53785
3.78004e-08
5.53768
3.57713e-08
5.5375
3.38387e-08
5.53731
3.1996e-08
5.53712
3.04153e-08
5.53692
2.90256e-08
5.53671
2.83453e-08
5.53649
2.90138e-08
5.53626
3.27254e-08
5.53603
4.39741e-08
5.53579
7.25486e-08
5.53555
1.42923e-07
5.5353
3.13114e-07
5.53504
7.21367e-07
5.53478
1.69964e-06
5.53451
4.04093e-06
5.53423
9.64182e-06
5.53395
2.30389e-05
5.53364
5.50784e-05
5.53328
0.000131688
5.53281
0.000314816
5.53208
0.000752356
5.53074
0.00179696
5.52795
0.00428821
5.52168
0.0102212
5.50724
0.0241809
5.47352
0.057163
5.39362
0.13612
5.19608
0.338205
0.872814
4.70362
7.8125
0.000176102
7.81255
0.00015868
7.81261
0.000138957
7.81266
0.000141501
7.81271
0.0001432
7.81277
0.000143077
7.81281
0.000142958
7.81285
0.000142981
7.81289
0.000143002
7.81294
0.000143012
7.81299
0.000143017
7.81305
0.00014302
7.8131
0.000143041
7.81317
0.00014306
7.81324
0.000143066
7.8133
0.000143079
7.81335
0.000143089
7.81341
0.000143089
7.81346
0.00014311
7.8135
0.000143131
7.81354
0.000143128
7.8136
0.000143135
7.81365
0.000143133
7.8137
0.000143155
7.81377
0.000143182
7.81383
0.000143181
7.81389
0.000143195
7.81395
0.000143207
7.81401
0.00014322
7.81407
0.000143231
7.81412
0.000143241
7.81417
0.000143251
7.81422
0.000143257
7.81427
0.000143271
7.81432
0.000143269
7.81437
0.000143275
7.81442
0.000143283
7.81447
0.000143284
7.81451
0.000143294
7.81455
0.000143286
7.81458
0.00014329
7.81462
0.000143289
7.81466
0.000143284
7.81471
0.000143273
7.81475
0.000143237
7.8148
0.000143229
7.81486
0.000143196
7.81491
0.000143113
7.81497
0.000143001
7.81502
0.00014284
7.81507
0.000142612
7.81511
0.000142296
7.81516
0.000141865
7.8152
0.00014129
7.81525
0.000140536
7.81529
0.000139563
7.81533
0.000138345
7.81537
0.000136827
7.8154
0.000134966
7.81544
0.000132734
7.81548
0.000130093
7.81551
0.000127017
7.81554
0.000123487
7.81558
0.000119496
7.81561
0.00011505
7.81564
0.000110167
7.81567
0.000104878
7.81569
9.92299e-05
7.81572
9.32786e-05
7.81574
8.70915e-05
7.81576
8.07437e-05
7.81578
7.43148e-05
7.8158
6.78864e-05
7.81582
6.15391e-05
7.81584
5.53488e-05
7.81585
4.9385e-05
7.81586
4.37081e-05
7.81587
3.83681e-05
7.81588
3.34032e-05
7.81589
2.88397e-05
7.8159
2.46933e-05
7.8159
2.09673e-05
7.81591
1.76561e-05
7.81591
1.47455e-05
7.81591
1.22145e-05
7.81591
1.00368e-05
7.8159
8.18281e-06
7.8159
6.62069e-06
7.8159
5.31797e-06
7.81589
4.24258e-06
7.81588
3.36374e-06
7.81587
2.65266e-06
7.81586
2.08298e-06
7.81585
1.63104e-06
7.81583
1.27601e-06
7.81582
9.99869e-07
7.8158
7.87167e-07
7.81578
6.24994e-07
7.81576
5.02605e-07
7.81574
4.11218e-07
7.81572
3.43734e-07
7.8157
2.94482e-07
7.81567
2.59009e-07
7.81565
2.33835e-07
7.81562
2.16291e-07
7.81559
2.04348e-07
7.81556
1.96461e-07
7.81552
1.91485e-07
7.81549
1.88585e-07
7.81546
1.87125e-07
7.81542
1.86671e-07
7.81538
1.86892e-07
7.81534
1.87552e-07
7.8153
1.88497e-07
7.81526
1.89595e-07
7.81522
1.90785e-07
7.81518
1.91985e-07
7.81513
1.93173e-07
7.81509
1.94294e-07
7.81505
1.95346e-07
7.815
1.96292e-07
7.81495
1.97138e-07
7.81491
1.97862e-07
7.81486
1.9845e-07
7.81482
1.98915e-07
7.81477
1.9922e-07
7.81472
1.99377e-07
7.81468
1.99379e-07
7.81463
1.99202e-07
7.81459
1.98867e-07
7.81454
1.98367e-07
7.8145
1.97668e-07
7.81446
1.96789e-07
7.81442
1.95738e-07
7.81438
1.94496e-07
7.81434
1.93046e-07
7.8143
1.914e-07
7.81427
1.89563e-07
7.81423
1.8753e-07
7.8142
1.85306e-07
7.81418
1.82859e-07
7.81415
1.80221e-07
7.81413
1.77386e-07
7.81411
1.74356e-07
7.81409
1.71133e-07
7.81408
1.67714e-07
7.81407
1.64106e-07
7.81406
1.60313e-07
7.81406
1.56335e-07
7.81406
1.5218e-07
7.81407
1.47857e-07
7.81407
1.4337e-07
7.81409
1.38722e-07
7.8141
1.33924e-07
7.81412
1.2898e-07
7.81415
1.23905e-07
7.81417
1.18701e-07
7.81421
1.1335e-07
7.81424
1.0797e-07
7.81428
1.02427e-07
7.81433
9.68053e-08
7.81438
9.11045e-08
7.81443
8.53443e-08
7.81448
7.95244e-08
7.81454
7.36482e-08
7.81461
6.77182e-08
7.81467
6.17388e-08
7.81474
5.57402e-08
7.81482
5.00045e-08
7.81489
4.45307e-08
7.81497
3.93838e-08
7.81505
3.76122e-08
7.81514
2.89428e-08
7.81522
1.54232e-08
7.81531
1.22864e-08
7.8154
9.11859e-09
7.81549
4.31282e-09
7.81558
-3.7744e-10
7.81567
-5.96947e-09
7.81576
-1.121e-08
7.81585
-1.61795e-08
7.81595
-2.10084e-08
7.81604
-2.56546e-08
7.81613
-3.01657e-08
7.81622
-3.44726e-08
7.8163
-3.85949e-08
7.81639
-4.25512e-08
7.81647
-4.62665e-08
7.81655
-4.98158e-08
7.81663
-5.31672e-08
7.81671
-5.62827e-08
7.81678
-5.91754e-08
7.81685
-6.18948e-08
7.81691
-6.43672e-08
7.81697
-6.65973e-08
7.81702
-6.86327e-08
7.81707
-7.04626e-08
7.81712
-7.20615e-08
7.81716
-7.33971e-08
7.81719
-7.45677e-08
7.81722
-7.55172e-08
7.81724
-7.62193e-08
7.81726
-7.66909e-08
7.81727
-7.69978e-08
7.81728
-7.70924e-08
7.81728
-7.69587e-08
7.81727
-7.66208e-08
7.81726
-7.61161e-08
7.81724
-7.54185e-08
7.81721
-7.45081e-08
7.81718
-7.34412e-08
7.81714
-7.22221e-08
7.81709
-7.08287e-08
7.81704
-6.92307e-08
7.81698
-6.76473e-08
7.81692
-6.57456e-08
7.81685
-6.37824e-08
7.81678
-6.16874e-08
7.8167
-5.94814e-08
7.81661
-5.71749e-08
7.81652
-5.47425e-08
7.81643
-5.22227e-08
7.81633
-4.96284e-08
7.81622
-4.6954e-08
7.81612
-4.41814e-08
7.816
-4.13565e-08
7.81589
-3.84853e-08
7.81577
-3.55631e-08
7.81565
-3.25704e-08
7.81553
-2.95508e-08
7.8154
-2.65113e-08
7.81527
-2.34518e-08
7.81515
-2.03522e-08
7.81502
-1.7244e-08
7.81489
-1.41404e-08
7.81476
-1.10426e-08
7.81463
-7.93443e-09
7.81449
-4.75347e-09
7.81437
-1.2069e-09
7.81424
1.44837e-09
7.81411
4.50336e-09
7.81398
7.52561e-09
7.81386
1.0526e-08
7.81374
1.35306e-08
7.81362
1.65182e-08
7.81351
1.94696e-08
7.8134
2.23936e-08
7.81329
2.52699e-08
7.81319
2.81202e-08
7.81309
3.09287e-08
7.81299
3.37041e-08
7.8129
3.64375e-08
7.81282
3.91378e-08
7.81274
4.18145e-08
7.81267
4.44707e-08
7.81261
4.71264e-08
7.81255
4.97289e-08
7.8125
5.22009e-08
7.81245
5.4461e-08
7.81241
5.65137e-08
7.81238
5.81813e-08
7.81236
6.04682e-08
7.81234
6.40284e-08
7.81234
6.68647e-08
7.81234
6.87837e-08
7.81235
7.06432e-08
7.81236
7.26795e-08
7.81239
7.48382e-08
7.81243
7.69473e-08
7.81247
7.90055e-08
7.81253
8.1026e-08
7.81259
8.29655e-08
7.81266
8.4829e-08
7.81274
8.69186e-08
7.81283
8.8839e-08
7.81293
9.08904e-08
7.81304
9.25056e-08
7.81316
9.43032e-08
7.81329
9.60945e-08
7.81343
9.78512e-08
7.81358
9.95869e-08
7.81374
1.01285e-07
7.81391
1.02953e-07
7.81408
1.04594e-07
7.81427
1.06203e-07
7.81447
1.07781e-07
7.81467
1.09331e-07
7.81489
1.10837e-07
7.81511
1.12312e-07
7.81535
1.13754e-07
7.81559
1.15177e-07
7.81584
1.16546e-07
7.8161
1.17862e-07
7.81637
1.1914e-07
7.81665
1.20384e-07
7.81693
1.21565e-07
7.81723
1.2271e-07
7.81753
1.23806e-07
7.81783
1.24839e-07
7.81815
1.25845e-07
7.81847
1.26766e-07
7.8188
1.27654e-07
7.81913
1.28469e-07
7.81947
1.29235e-07
7.81982
1.29928e-07
7.82017
1.30573e-07
7.82052
1.31126e-07
7.82088
1.31644e-07
7.82125
1.3206e-07
7.82161
1.32415e-07
7.82198
1.32706e-07
7.82236
1.32898e-07
7.82273
1.33047e-07
7.82311
1.33086e-07
7.82348
1.33042e-07
7.82386
1.32959e-07
7.82424
1.32751e-07
7.82462
1.3246e-07
7.82499
1.32129e-07
7.82537
1.31667e-07
7.82574
1.3112e-07
7.82611
1.30523e-07
7.82648
1.29822e-07
7.82684
1.28996e-07
7.8272
1.28136e-07
7.82756
1.27202e-07
7.82791
1.26093e-07
7.82825
1.2497e-07
7.82859
1.23829e-07
7.82892
1.22436e-07
7.82924
1.21057e-07
7.82956
1.19668e-07
7.82986
1.18059e-07
7.83016
1.16424e-07
7.83045
1.14813e-07
7.83072
1.13009e-07
7.83099
1.11131e-07
7.83125
1.09278e-07
7.83149
1.07344e-07
7.83172
1.05174e-07
7.83195
1.03169e-07
7.83215
1.01129e-07
7.83235
9.87811e-08
7.83253
9.65861e-08
7.8327
9.45561e-08
7.83285
9.21518e-08
7.83299
8.96321e-08
7.83311
8.79313e-08
7.83322
8.49018e-08
7.83332
8.26767e-08
7.83339
7.98073e-08
7.83346
7.73239e-08
7.83351
7.3564e-08
7.83354
7.0746e-08
7.83356
7.23649e-08
7.83356
6.55032e-08
7.83354
6.6223e-08
7.83351
6.42303e-08
7.83346
6.06387e-08
7.8334
5.79244e-08
7.83332
5.54801e-08
7.83323
5.31068e-08
7.83312
5.07894e-08
7.83299
4.85065e-08
7.83285
4.62578e-08
7.8327
4.40837e-08
7.83253
4.192e-08
7.83234
3.98645e-08
7.83215
3.78081e-08
7.83194
3.58691e-08
7.83171
3.39587e-08
7.83147
3.21502e-08
7.83122
3.04494e-08
7.83096
2.88214e-08
7.83068
2.75991e-08
7.8304
2.66627e-08
7.8301
2.68969e-08
7.82979
2.95172e-08
7.82947
3.75326e-08
7.82914
5.9078e-08
7.82881
1.11866e-07
7.82846
2.40095e-07
7.8281
5.48652e-07
7.82774
1.2874e-06
7.82737
3.05625e-06
7.82699
7.28849e-06
7.8266
1.74119e-05
7.82619
4.16259e-05
7.82576
9.95337e-05
7.82525
0.000237997
7.8246
0.000568987
7.82358
0.00135983
7.82172
0.003248
7.81785
0.0077513
7.80918
0.0184767
7.78922
0.0437297
7.7426
0.103368
7.63244
0.245865
7.36383
0.606398
1.50253
6.73369
34.486
7.15674e-05
34.4862
8.159e-05
34.4865
6.95242e-05
34.4867
6.98023e-05
34.4869
7.15764e-05
34.4872
7.17847e-05
34.4874
7.16283e-05
34.4876
7.16024e-05
34.4877
7.16074e-05
34.4879
7.15986e-05
34.4882
7.1586e-05
34.4884
7.15782e-05
34.4887
7.15756e-05
34.489
7.15736e-05
34.4893
7.15732e-05
34.4895
7.15744e-05
34.4898
7.15751e-05
34.49
7.15758e-05
34.4902
7.15766e-05
34.4904
7.15828e-05
34.4906
7.15823e-05
34.4908
7.1583e-05
34.4911
7.15843e-05
34.4913
7.15902e-05
34.4916
7.15978e-05
34.4919
7.15998e-05
34.4922
7.16058e-05
34.4924
7.16111e-05
34.4927
7.16163e-05
34.4929
7.16215e-05
34.4931
7.16257e-05
34.4934
7.16298e-05
34.4936
7.16315e-05
34.4938
7.16387e-05
34.494
7.16401e-05
34.4943
7.16416e-05
34.4945
7.16441e-05
34.4947
7.16432e-05
34.4949
7.16309e-05
34.495
7.166e-05
34.4952
7.16493e-05
34.4954
7.1647e-05
34.4955
7.16449e-05
34.4957
7.16395e-05
34.4959
7.16276e-05
34.4962
7.16197e-05
34.4964
7.16041e-05
34.4966
7.1567e-05
34.4969
7.15165e-05
34.4971
7.14421e-05
34.4973
7.13359e-05
34.4975
7.11879e-05
34.4977
7.09851e-05
34.4979
7.07135e-05
34.4981
7.0356e-05
34.4983
6.98961e-05
34.4985
6.93066e-05
34.4986
6.85822e-05
34.4988
6.76869e-05
34.499
6.66087e-05
34.4991
6.53294e-05
34.4993
6.38342e-05
34.4994
6.21135e-05
34.4996
6.01623e-05
34.4997
5.79822e-05
34.4999
5.55809e-05
34.5
5.29733e-05
34.5001
5.01807e-05
34.5002
4.72306e-05
34.5003
4.41557e-05
34.5004
4.09929e-05
34.5005
3.77817e-05
34.5006
3.4563e-05
34.5007
3.13772e-05
34.5008
2.82629e-05
34.5008
2.52557e-05
34.5009
2.23865e-05
34.5009
1.96815e-05
34.501
1.71614e-05
34.501
1.48395e-05
34.501
1.27256e-05
34.5011
1.0822e-05
34.5011
9.12689e-06
34.5011
7.63382e-06
34.5011
6.33289e-06
34.5011
5.21133e-06
34.5011
4.25468e-06
34.5011
3.4471e-06
34.501
2.77237e-06
34.501
2.21435e-06
34.501
1.75749e-06
34.5009
1.38718e-06
34.5009
1.08997e-06
34.5008
8.53786e-07
34.5008
6.67923e-07
34.5007
5.23105e-07
34.5006
4.1136e-07
34.5005
3.26013e-07
34.5005
2.61482e-07
34.5004
2.13208e-07
34.5003
1.77491e-07
34.5002
1.51366e-07
34.5
1.32503e-07
34.4999
1.19081e-07
34.4998
1.09691e-07
34.4997
1.03269e-07
34.4995
9.90008e-08
34.4994
9.62777e-08
34.4992
9.46602e-08
34.4991
9.38148e-08
34.4989
9.35042e-08
34.4988
9.35597e-08
34.4986
9.38514e-08
34.4984
9.42973e-08
34.4982
9.4831e-08
34.4981
9.5411e-08
34.4979
9.60079e-08
34.4977
9.65922e-08
34.4975
9.71536e-08
34.4973
9.76731e-08
34.4971
9.81493e-08
34.4969
9.85672e-08
34.4967
9.89312e-08
34.4965
9.92247e-08
34.4963
9.94539e-08
34.4961
9.96115e-08
34.4959
9.96861e-08
34.4956
9.96872e-08
34.4954
9.96017e-08
34.4953
9.94307e-08
34.4951
9.91797e-08
34.4949
9.88341e-08
34.4947
9.83919e-08
34.4945
9.78669e-08
34.4943
9.72461e-08
34.4942
9.65229e-08
34.494
9.56973e-08
34.4938
9.47798e-08
34.4937
9.37646e-08
34.4936
9.26505e-08
34.4934
9.14301e-08
34.4933
9.01089e-08
34.4932
8.86928e-08
34.4932
8.71789e-08
34.4931
8.55671e-08
34.493
8.3857e-08
34.493
8.20532e-08
34.4929
8.01572e-08
34.4929
7.81693e-08
34.4929
7.60929e-08
34.493
7.39319e-08
34.493
7.1688e-08
34.493
6.93644e-08
34.4931
6.69656e-08
34.4932
6.44939e-08
34.4933
6.19546e-08
34.4934
5.93518e-08
34.4936
5.66811e-08
34.4937
5.39837e-08
34.4939
5.12159e-08
34.4941
4.84015e-08
34.4943
4.55534e-08
34.4946
4.26708e-08
34.4948
3.97608e-08
34.4951
3.68211e-08
34.4953
3.38557e-08
34.4956
3.08735e-08
34.4959
2.78901e-08
34.4963
2.50163e-08
34.4966
2.23188e-08
34.497
1.98545e-08
34.4973
1.82026e-08
34.4977
1.42045e-08
34.4981
8.58086e-09
34.4984
6.10862e-09
34.4988
4.58681e-09
34.4992
2.67892e-09
34.4996
-6.99856e-10
34.5
-3.16459e-09
34.5004
-5.63568e-09
34.5009
-8.09155e-09
34.5013
-1.05031e-08
34.5017
-1.28252e-08
34.5021
-1.50721e-08
34.5024
-1.72322e-08
34.5028
-1.92922e-08
34.5032
-2.12667e-08
34.5036
-2.31366e-08
34.5039
-2.49001e-08
34.5043
-2.65795e-08
34.5046
-2.81398e-08
34.5049
-2.95875e-08
34.5052
-3.09401e-08
34.5055
-3.21838e-08
34.5058
-3.32975e-08
34.506
-3.43105e-08
34.5062
-3.52286e-08
34.5064
-3.60267e-08
34.5066
-3.66979e-08
34.5068
-3.72775e-08
34.5069
-3.77536e-08
34.507
-3.81062e-08
34.5071
-3.83457e-08
34.5071
-3.84939e-08
34.5071
-3.85426e-08
34.5071
-3.84766e-08
34.5071
-3.83077e-08
34.507
-3.80539e-08
34.5069
-3.77065e-08
34.5068
-3.72522e-08
34.5067
-3.67143e-08
34.5065
-3.61072e-08
34.5063
-3.5413e-08
34.5061
-3.46233e-08
34.5058
-3.38048e-08
34.5056
-3.28769e-08
34.5053
-3.18862e-08
34.5049
-3.08394e-08
34.5046
-2.97373e-08
34.5042
-2.85852e-08
34.5038
-2.73722e-08
34.5034
-2.6108e-08
34.5029
-2.48092e-08
34.5025
-2.34713e-08
34.502
-2.20859e-08
34.5015
-2.06703e-08
34.501
-1.92342e-08
34.5005
-1.77731e-08
34.4999
-1.62768e-08
34.4994
-1.47634e-08
34.4989
-1.32397e-08
34.4983
-1.17047e-08
34.4977
-1.01511e-08
34.4972
-8.58699e-09
34.4966
-7.02744e-09
34.496
-5.47425e-09
34.4954
-3.95426e-09
34.4948
-2.55341e-09
34.4943
-1.3174e-09
34.4937
2.89674e-10
34.4931
2.21848e-09
34.4926
3.82897e-09
34.4921
5.38853e-09
34.4915
6.89784e-09
34.491
8.37804e-09
34.4905
9.83664e-09
34.49
1.12818e-08
34.4895
1.27097e-08
34.4891
1.41229e-08
34.4886
1.55189e-08
34.4882
1.68973e-08
34.4878
1.82565e-08
34.4875
1.96007e-08
34.4871
2.09332e-08
34.4868
2.22551e-08
34.4865
2.35746e-08
34.4863
2.48683e-08
34.486
2.61014e-08
34.4858
2.7236e-08
34.4857
2.82748e-08
34.4855
2.9208e-08
34.4854
3.03285e-08
34.4854