/*--------------------------------*- C++ -*----------------------------------*\
| =========                 |                                                 |
| \\      /  F ield         | OpenFOAM: The Open Source CFD Toolbox           |
|  \\    /   O peration     | Version:  3.0.x                                 |
|   \\  /    A nd           | Web:      www.OpenFOAM.org                      |
|    \\/     M anipulation  |                                                 |
\*---------------------------------------------------------------------------*/
FoamFile
{
    version     2.0;
    format      ascii;
    class       surfaceScalarField;
    location    "0.33";
    object      phi;
}
// * * * * * * * * * * * * * * * * * * * * * * * * * * * * * * * * * * * * * //

dimensions      [1 0 -1 0 0 0 0];

internalField   nonuniform List<scalar> 
26210
(
6.98858
0.000504179
6.98823
0.000347386
6.98789
0.000340428
6.98755
0.000342009
6.98721
0.000342073
6.98686
0.00034199
6.98652
0.000341978
6.98618
0.000341973
6.98584
0.000341963
6.9855
0.000341951
6.98516
0.000341923
6.98481
0.000341931
6.98447
0.000341907
6.98413
0.000341882
6.98379
0.000341853
6.98345
0.000341832
6.9831
0.000341718
6.98275
0.000342101
6.9824
0.000341597
6.98205
0.000341774
6.9817
0.000341783
6.98136
0.000341738
6.98101
0.000341791
6.98068
0.000341824
6.98036
0.000341978
6.98003
0.000341919
6.9797
0.000341963
6.97937
0.000342001
6.97903
0.000342035
6.97869
0.000342065
6.97835
0.000342087
6.978
0.000342104
6.97765
0.000342114
6.97731
0.000342118
6.97696
0.000342108
6.97661
0.000342087
6.97626
0.000342078
6.9759
0.000342068
6.97554
0.00034223
6.97518
0.000342101
6.97482
0.000342098
6.97447
0.0003421
6.97412
0.000341926
6.97377
0.000342025
6.97344
0.000342665
6.9731
0.000341887
6.97277
0.000342181
6.97242
0.000342211
6.97208
0.000342243
6.97173
0.000342276
6.97138
0.000342292
6.97103
0.000342399
6.97068
0.000342325
6.97034
0.000342251
6.97
0.000343398
6.96968
0.000341715
6.96934
0.000342512
6.96901
0.000342558
6.96867
0.000342587
6.96833
0.000342616
6.96799
0.000342642
6.96765
0.000342665
6.96731
0.000342685
6.96696
0.000342699
6.96662
0.000342708
6.96627
0.00034271
6.96592
0.000342732
6.96557
0.000342689
6.96521
0.00034263
6.96484
0.000342595
6.96449
0.0003425
6.96413
0.000342373
6.96378
0.000342078
6.96344
0.000341852
6.96309
0.000341681
6.96276
0.000341296
6.96243
0.000340569
6.9621
0.00033981
6.96176
0.000338821
6.96143
0.000337569
6.9611
0.000336
6.96076
0.000334058
6.96043
0.000331684
6.9601
0.000328816
6.95977
0.000325391
6.95944
0.000321351
6.95912
0.000316637
6.95881
0.0003112
6.9585
0.000304998
6.9582
0.000297996
6.95791
0.00029012
6.95763
0.000281635
6.95736
0.000272139
6.9571
0.000261945
6.95685
0.000251036
6.95661
0.000239478
6.95639
0.000227354
6.95618
0.000214762
6.95598
0.000201825
6.9558
0.000188612
6.95563
0.000175298
6.95547
0.000162064
6.95533
0.000148867
6.9552
0.000135945
6.95509
0.000123421
6.95499
0.000111338
6.9549
9.98275e-05
6.95482
8.89435e-05
6.95475
7.8709e-05
6.95469
6.92056e-05
6.95464
6.04701e-05
6.9546
5.24478e-05
6.95457
4.52842e-05
6.95454
3.87521e-05
6.95452
3.2976e-05
6.95451
2.78463e-05
6.95449
2.33757e-05
6.95449
1.94771e-05
6.95449
1.61372e-05
6.95449
1.32704e-05
6.95449
1.0837e-05
6.9545
8.78365e-06
6.9545
7.07395e-06
6.95451
5.65597e-06
6.95452
4.48961e-06
6.95454
3.53551e-06
6.95455
2.76899e-06
6.95457
2.1469e-06
6.95459
1.65186e-06
6.9546
1.26001e-06
6.95462
9.52001e-07
6.95465
7.11738e-07
6.95467
5.25786e-07
6.95469
3.82995e-07
6.95472
2.74198e-07
6.95475
1.91991e-07
6.95478
1.3048e-07
6.95481
8.49413e-08
6.95484
5.16302e-08
6.95488
2.76523e-08
6.95492
1.07611e-08
6.95496
-7.49424e-10
6.955
-8.33825e-09
6.95505
-1.28548e-08
6.9551
-1.50139e-08
6.95516
-1.5345e-08
6.95521
-1.42591e-08
6.95528
-1.20453e-08
6.95534
-8.81118e-09
6.95542
-4.73847e-09
6.9555
1.0732e-10
6.95558
5.67161e-09
6.95567
1.18762e-08
6.95576
1.87811e-08
6.95587
2.63863e-08
6.95598
3.46572e-08
6.9561
4.36212e-08
6.95623
5.32727e-08
6.95636
6.35609e-08
6.95651
7.45731e-08
6.95667
8.62492e-08
6.95684
9.85601e-08
6.95702
1.11522e-07
6.95721
1.25052e-07
6.95741
1.39094e-07
6.95763
1.53641e-07
6.95786
1.68746e-07
6.95811
1.84324e-07
6.95837
2.00293e-07
6.95865
2.16598e-07
6.95894
2.33178e-07
6.95925
2.49951e-07
6.95957
2.66866e-07
6.95991
2.83721e-07
6.96027
3.00352e-07
6.96064
3.1669e-07
6.96103
3.32582e-07
6.96144
3.47698e-07
6.96186
3.62068e-07
6.96229
3.75387e-07
6.96274
3.87534e-07
6.9632
3.98424e-07
6.96367
4.07481e-07
6.96414
4.15006e-07
6.96463
4.20132e-07
6.96513
4.23388e-07
6.96562
4.26651e-07
6.96612
4.32461e-07
6.96662
4.5633e-07
6.96711
5.93784e-07
6.96759
1.25617e-06
6.96806
4.44664e-06
6.9685
1.99187e-05
6.96886
9.43014e-05
6.96883
0.000451675
6.96707
0.0021643
6.95717
0.0102871
6.91037
0.0471594
6.67723
0.233458
0.915037
5.7625
9.88431
0.000460015
9.88433
0.000330415
9.88435
0.000315801
9.88437
0.000319135
9.8844
0.000319343
9.88442
0.000319187
9.88444
0.0003192
9.88446
0.000319225
9.88448
0.000319239
9.8845
0.000319252
9.88452
0.000319262
9.88454
0.000319259
9.88456
0.000319288
9.88458
0.000319281
9.8846
0.000319276
9.88462
0.000319282
9.88464
0.000319208
9.88465
0.000319553
9.88465
0.000319155
9.88466
0.000319316
9.88467
0.000319354
9.88469
0.000319336
9.88471
0.000319407
9.88474
0.000319463
9.88478
0.000319624
9.88483
0.000319596
9.88487
0.000319662
9.8849
0.000319721
9.88493
0.000319776
9.88495
0.000319827
9.88497
0.000319872
9.88498
0.00031991
9.88499
0.000319943
9.88501
0.000319971
9.88502
0.000319986
9.88503
0.000319987
9.88503
0.000320007
9.88503
0.000320015
9.88502
0.000320188
9.88502
0.000320096
9.88502
0.000320116
9.88502
0.000320139
9.88503
0.000320009
9.88504
0.000320123
9.88507
0.00032069
9.88511
0.000320076
9.88513
0.000320334
9.88515
0.000320387
9.88516
0.00032044
9.88517
0.000320494
9.88518
0.000320543
9.88519
0.00032065
9.8852
0.000320612
9.88522
0.000320581
9.88525
0.00032161
9.88529
0.000320158
9.88533
0.000320869
9.88536
0.00032095
9.88538
0.000320997
9.88541
0.000321049
9.88543
0.000321097
9.88545
0.000321142
9.88547
0.000321183
9.88549
0.000321219
9.8855
0.00032125
9.88552
0.000321276
9.88553
0.000321323
9.88553
0.000321301
9.88553
0.000321253
9.88552
0.000321252
9.88552
0.000321177
9.88552
0.000321074
9.88553
0.000320815
9.88554
0.000320618
9.88555
0.000320448
9.88558
0.000320088
9.88562
0.000319397
9.88565
0.000318677
9.88567
0.000317722
9.8857
0.000316511
9.88572
0.000314992
9.88574
0.000313109
9.88576
0.000310806
9.88577
0.000308025
9.88578
0.000304705
9.8858
0.000300792
9.88581
0.000296232
9.88583
0.000290979
9.88584
0.000284996
9.88585
0.000278258
9.88587
0.000270678
9.88589
0.000262531
9.8859
0.000253441
9.88592
0.000243695
9.88594
0.000233288
9.88596
0.000222284
9.88598
0.000210766
9.886
0.000198831
9.88602
0.000186594
9.88604
0.000174127
9.88606
0.000161592
9.88608
0.000149162
9.8861
0.000136794
9.88612
0.000124718
9.88614
0.000113036
9.88617
0.000101792
9.88619
9.11138e-05
9.88621
8.1028e-05
9.88623
7.15778e-05
9.88625
6.28191e-05
9.88627
5.47855e-05
9.88629
4.74304e-05
9.88631
4.08749e-05
9.88633
3.49119e-05
9.88635
2.96495e-05
9.88637
2.49908e-05
9.88639
2.09365e-05
9.88641
1.74098e-05
9.88643
1.44002e-05
9.88645
1.18161e-05
9.88647
9.62937e-06
9.88649
7.79046e-06
9.88651
6.26162e-06
9.88653
4.99658e-06
9.88655
3.95829e-06
9.88658
3.11082e-06
9.8866
2.43255e-06
9.88662
1.88263e-06
9.88665
1.44572e-06
9.88668
1.10096e-06
9.8867
8.30531e-07
9.88673
6.19972e-07
9.88677
4.57303e-07
9.8868
3.32579e-07
9.88684
2.37687e-07
9.88687
1.66072e-07
9.88691
1.12539e-07
9.88696
7.29469e-08
9.887
4.40341e-08
9.88705
2.32485e-08
9.88711
8.66203e-09
9.88717
-1.1969e-09
9.88723
-7.70524e-09
9.88729
-1.14942e-08
9.88736
-1.32113e-08
9.88744
-1.3315e-08
9.88752
-1.2169e-08
9.88761
-1.00463e-08
9.8877
-6.92125e-09
9.8878
-3.10138e-09
9.88791
1.437e-09
9.88803
6.64841e-09
9.88815
1.24182e-08
9.88829
1.88629e-08
9.88843
2.5957e-08
9.88859
3.36368e-08
9.88876
4.19859e-08
9.88894
5.09699e-08
9.88913
6.05469e-08
9.88933
7.08169e-08
9.88956
8.16854e-08
9.88979
9.31359e-08
9.89005
1.05239e-07
9.89032
1.17856e-07
9.8906
1.30964e-07
9.89091
1.44559e-07
9.89124
1.58692e-07
9.89159
1.73288e-07
9.89196
1.88218e-07
9.89235
2.03478e-07
9.89276
2.19066e-07
9.8932
2.34777e-07
9.89365
2.50669e-07
9.89413
2.66451e-07
9.89464
2.82018e-07
9.89517
2.97352e-07
9.89572
3.12244e-07
9.89629
3.26381e-07
9.89688
3.39842e-07
9.89749
3.52373e-07
9.89812
3.6362e-07
9.89877
3.73722e-07
9.89943
3.82277e-07
9.90011
3.89571e-07
9.9008
3.94064e-07
9.90149
3.97155e-07
9.9022
4.02681e-07
9.9029
4.176e-07
9.9036
4.78152e-07
9.9043
8.14642e-07
9.90498
2.42015e-06
9.90565
1.01311e-05
9.90627
4.74933e-05
9.90676
0.000227072
9.90673
0.00108981
9.90424
0.00522465
9.89021
0.024856
9.82392
0.11395
9.50092
0.556925
2.11313
8.30325
13.9785
0.000401475
13.9786
0.000303509
13.9786
0.000281693
13.9786
0.000286506
13.9786
0.00028694
13.9787
0.000286685
13.9787
0.0002867
13.9787
0.000286732
13.9788
0.000286748
13.9788
0.000286761
13.9788
0.000286787
13.9789
0.000286743
13.9789
0.000286808
13.9789
0.000286792
13.9789
0.000286786
13.979
0.000286793
13.979
0.00028674
13.979
0.000287006
13.979
0.000286707
13.979
0.000286819
13.979
0.000286861
13.9791
0.000286847
13.9791
0.000286907
13.9791
0.00028696
13.9792
0.000287096
13.9793
0.000287076
13.9793
0.000287138
13.9794
0.00028719
13.9794
0.00028724
13.9794
0.000287286
13.9795
0.000287326
13.9795
0.000287361
13.9795
0.00028739
13.9795
0.000287415
13.9795
0.000287431
13.9796
0.000287429
13.9796
0.000287453
13.9796
0.000287454
13.9796
0.000287605
13.9796
0.000287529
13.9796
0.000287545
13.9796
0.000287564
13.9796
0.000287458
13.9796
0.000287558
13.9796
0.000288005
13.9797
0.000287556
13.9797
0.000287741
13.9798
0.000287789
13.9798
0.000287837
13.9798
0.000287885
13.9798
0.00028794
13.9798
0.000288017
13.9798
0.000287991
13.9799
0.00028798
13.9799
0.00028883
13.98
0.000287637
13.98
0.00028821
13.9801
0.000288298
13.9801
0.000288338
13.9801
0.000288384
13.9802
0.000288428
13.9802
0.000288468
13.9802
0.000288505
13.9803
0.000288538
13.9803
0.000288566
13.9803
0.000288592
13.9803
0.000288638
13.9803
0.000288616
13.9803
0.000288558
13.9803
0.000288571
13.9803
0.000288501
13.9803
0.000288409
13.9803
0.000288182
13.9804
0.000288013
13.9804
0.000287847
13.9804
0.00028753
13.9805
0.000286909
13.9805
0.000286274
13.9806
0.000285416
13.9806
0.000284334
13.9806
0.000282976
13.9807
0.000281292
13.9807
0.000279232
13.9807
0.000276743
13.9807
0.000273773
13.9808
0.00027027
13.9808
0.000266187
13.9808
0.000261483
13.9808
0.000256125
13.9808
0.000250097
13.9809
0.000243292
13.9809
0.000235989
13.9809
0.000227848
13.9809
0.000219108
13.9809
0.000209775
13.981
0.000199905
13.981
0.000189572
13.981
0.000178862
13.9811
0.000167883
13.9811
0.000156683
13.9811
0.000145429
13.9811
0.000134264
13.9812
0.000123156
13.9812
0.000112301
13.9812
0.000101802
13.9812
9.16945e-05
13.9813
8.20898e-05
13.9813
7.30195e-05
13.9813
6.45166e-05
13.9813
5.66346e-05
13.9814
4.94023e-05
13.9814
4.27814e-05
13.9814
3.68742e-05
13.9815
3.15045e-05
13.9815
2.67613e-05
13.9815
2.25627e-05
13.9815
1.89065e-05
13.9816
1.57268e-05
13.9816
1.30103e-05
13.9816
1.06787e-05
13.9816
8.7054e-06
13.9817
7.04491e-06
13.9817
5.66388e-06
13.9817
4.5209e-06
13.9818
3.58235e-06
13.9818
2.81565e-06
13.9818
2.20388e-06
13.9819
1.70614e-06
13.9819
1.31026e-06
13.9819
9.98215e-07
13.982
7.5336e-07
13.982
5.62623e-07
13.9821
4.15215e-07
13.9821
3.02162e-07
13.9822
2.1613e-07
13.9822
1.51178e-07
13.9823
1.02605e-07
13.9823
6.66591e-08
13.9824
4.03911e-08
13.9825
2.14795e-08
13.9825
8.25003e-09
13.9826
-5.90717e-10
13.9827
-6.66296e-09
13.9828
-1.01472e-08
13.9829
-1.1742e-08
13.983
-1.18666e-08
13.9831
-1.08726e-08
13.9832
-9.03492e-09
13.9834
-6.15819e-09
13.9835
-2.76714e-09
13.9837
1.31104e-09
13.9838
6.02677e-09
13.984
1.11459e-08
13.9842
1.6948e-08
13.9844
2.33263e-08
13.9846
3.02048e-08
13.9849
3.77104e-08
13.9851
4.57726e-08
13.9854
5.437e-08
13.9857
6.36255e-08
13.986
7.33748e-08
13.9863
8.36408e-08
13.9867
9.45347e-08
13.9871
1.0586e-07
13.9875
1.1763e-07
13.9879
1.29844e-07
13.9884
1.42548e-07
13.9889
1.55682e-07
13.9894
1.69061e-07
13.9899
1.82736e-07
13.9905
1.96803e-07
13.9911
2.10888e-07
13.9918
2.25196e-07
13.9925
2.39346e-07
13.9932
2.53287e-07
13.9939
2.67097e-07
13.9947
2.80473e-07
13.9955
2.93158e-07
13.9964
3.05251e-07
13.9972
3.16641e-07
13.9981
3.26586e-07
13.999
3.35576e-07
14
3.43372e-07
14.0009
3.50367e-07
14.0019
3.54006e-07
14.0029
3.56831e-07
14.0039
3.65436e-07
14.0049
3.92994e-07
14.0059
5.03712e-07
14.0068
1.1137e-06
14.0078
4.01474e-06
14.0088
1.79284e-05
14.0096
8.53258e-05
14.0103
0.000409248
14.0103
0.00196557
14.0069
0.00942514
13.9877
0.0448645
13.8968
0.205539
13.4602
0.99415
3.68581
11.8882
61.7042
0.000184709
61.7043
0.000159237
61.7044
0.000139686
61.7046
0.000142798
61.7047
0.000143802
61.7048
0.000143493
61.705
0.000143424
61.7051
0.000143431
61.7052
0.000143426
61.7054
0.000143422
61.7055
0.000143442
61.7056
0.00014337
61.7058
0.000143436
61.7059
0.000143415
61.706
0.000143404
61.7061
0.000143409
61.7062
0.000143395
61.7063
0.000143471
61.7063
0.000143393
61.7064
0.000143409
61.7065
0.000143436
61.7066
0.000143431
61.7067
0.000143457
61.7069
0.000143486
61.7072
0.000143543
61.7075
0.000143539
61.7077
0.000143572
61.7079
0.000143597
61.7081
0.000143622
61.7082
0.000143645
61.7083
0.000143665
61.7084
0.000143683
61.7085
0.000143697
61.7086
0.000143709
61.7087
0.00014372
61.7087
0.000143714
61.7088
0.000143733
61.7088
0.000143725
61.7087
0.000143796
61.7087
0.000143766
61.7087
0.000143772
61.7087
0.000143779
61.7088
0.000143739
61.7089
0.000143784
61.7091
0.000143939
61.7093
0.000143822
61.7095
0.00014387
61.7096
0.000143893
61.7097
0.000143917
61.7097
0.00014394
61.7098
0.000143984
61.7099
0.000143996
61.71
0.000143994
61.7101
0.000144008
61.7103
0.000144339
61.7105
0.000143884
61.7108
0.00014409
61.711
0.000144151
61.7111
0.000144168
61.7113
0.000144192
61.7114
0.000144214
61.7116
0.000144234
61.7117
0.000144253
61.7118
0.000144269
61.712
0.000144283
61.712
0.000144298
61.7121
0.000144328
61.7122
0.000144312
61.7121
0.000144264
61.7121
0.00014429
61.7121
0.000144252
61.7121
0.000144207
61.7122
0.000144101
61.7123
0.000144023
61.7124
0.000143928
61.7126
0.000143775
61.7128
0.000143467
61.713
0.000143164
61.7132
0.000142739
61.7133
0.000142205
61.7135
0.000141536
61.7136
0.000140705
61.7137
0.000139688
61.7138
0.000138457
61.7139
0.000136988
61.714
0.000135255
61.7141
0.000133232
61.7142
0.000130901
61.7143
0.000128244
61.7144
0.000125261
61.7145
0.000121868
61.7146
0.000118232
61.7147
0.000114194
61.7148
0.000109843
61.7149
0.000105196
61.715
0.000100278
61.7151
9.51257e-05
61.7152
8.97829e-05
61.7153
8.43068e-05
61.7154
7.87018e-05
61.7156
7.30846e-05
61.7157
6.74904e-05
61.7158
6.1939e-05
61.7159
5.65001e-05
61.716
5.12395e-05
61.7162
4.61739e-05
61.7163
4.13518e-05
61.7164
3.68009e-05
61.7165
3.25294e-05
61.7166
2.85684e-05
61.7168
2.49306e-05
61.7169
2.16012e-05
61.717
1.86236e-05
61.7171
1.59216e-05
61.7172
1.35293e-05
61.7173
1.14128e-05
61.7175
9.56704e-06
61.7176
7.96289e-06
61.7177
6.58927e-06
61.7178
5.40936e-06
61.7179
4.41471e-06
61.7181
3.57383e-06
61.7182
2.87409e-06
61.7183
2.29488e-06
61.7184
1.81831e-06
61.7186
1.42608e-06
61.7187
1.12493e-06
61.7189
8.7004e-07
61.719
6.66719e-07
61.7192
5.08343e-07
61.7194
3.83995e-07
61.7196
2.87004e-07
61.7198
2.1202e-07
61.72
1.54494e-07
61.7202
1.10731e-07
61.7204
7.76643e-08
61.7207
5.28889e-08
61.721
3.4524e-08
61.7213
2.11128e-08
61.7216
1.14865e-08
61.7219
4.52474e-09
61.7223
-4.37694e-10
61.7226
-3.17596e-09
61.7231
-4.85534e-09
61.7235
-5.70367e-09
61.724
-5.75756e-09
61.7245
-5.27734e-09
61.725
-4.2694e-09
61.7256
-3.10115e-09
61.7262
-1.3913e-09
61.7269
6.60066e-10
61.7277
2.84444e-09
61.7284
5.56543e-09
61.7293
8.52879e-09
61.7302
1.17518e-08
61.7312
1.5096e-08
61.7322
1.88784e-08
61.7333
2.28961e-08
61.7345
2.71596e-08
61.7358
3.18689e-08
61.7372
3.67111e-08
61.7387
4.17433e-08
61.7402
4.73131e-08
61.7419
5.29465e-08
61.7437
5.87927e-08
61.7457
6.48708e-08
61.7477
7.13057e-08
61.7499
7.7931e-08
61.7522
8.45716e-08
61.7546
9.12046e-08
61.7572
9.85185e-08
61.7599
1.05419e-07
61.7628
1.12754e-07
61.7658
1.19638e-07
61.7689
1.26543e-07
61.7722
1.33409e-07
61.7756
1.40568e-07
61.7792
1.46081e-07
61.7829
1.52774e-07
61.7867
1.58404e-07
61.7907
1.63521e-07
61.7947
1.67616e-07
61.7988
1.70985e-07
61.8031
1.77221e-07
61.8074
1.77866e-07
61.8117
1.78668e-07
61.8161
1.98725e-07
61.8205
2.78019e-07
61.8249
5.86212e-07
61.8292
2.25861e-06
61.8335
1.02322e-05
61.8376
4.8372e-05
61.8415
0.000233203
61.8448
0.00112169
61.8451
0.00539317
61.8323
0.025847
61.7578
0.122615
61.4102
0.556317
59.9561
2.45117
8.81345
54.8311
61.7041
-2.27374e-13
61.7043
4.54747e-13
61.7044
6.82121e-13
61.7045
0
61.7047
-6.82121e-13
61.7048
6.82121e-13
61.7049
-2.27374e-13
61.7051
-2.27374e-13
61.7052
2.04636e-12
61.7053
6.82121e-13
61.7055
-1.13687e-12
61.7056
-4.54747e-13
61.7057
2.27374e-12
61.7059
0
61.706
-1.13687e-12
61.7061
-2.27374e-13
61.7062
-1.36424e-12
61.7063
4.54747e-13
61.7063
1.13687e-12
61.7063
2.27374e-13
61.7064
-2.04636e-12
61.7065
-2.27374e-12
61.7067
9.09495e-13
61.7068
1.13687e-12
61.7071
-2.27374e-13
61.7074
2.27374e-13
61.7077
2.50111e-12
61.7079
-4.54747e-13
61.7081
1.36424e-12
61.7082
1.13687e-12
61.7083
6.82121e-13
61.7084
6.82121e-13
61.7085
-2.27374e-13
61.7086
-2.04636e-12
61.7086
6.82121e-13
61.7087
1.81899e-12
61.7088
6.82121e-13
61.7088
-4.54747e-13
61.7087
0
61.7087
1.81899e-12
61.7087
1.13687e-12
61.7087
9.09495e-13
61.7088
9.09495e-13
61.7089
-4.54747e-13
61.7091
4.54747e-13
61.7093
4.54747e-13
61.7094
1.81899e-12
61.7096
2.95586e-12
61.7096
6.82121e-13
61.7097
1.36424e-12
61.7098
9.09495e-13
61.7099
1.36424e-12
61.7099
1.13687e-12
61.7101
2.27374e-13
61.7102
-9.09495e-13
61.7105
-2.27374e-13
61.7108
-2.04636e-12
61.711
4.54747e-13
61.7111
-1.36424e-12
61.7113
4.54747e-13
61.7114
-6.82121e-13
61.7116
1.59162e-12
61.7117
0
61.7118
-6.82121e-13
61.7119
1.36424e-12
61.712
2.27374e-13
61.7121
-4.54747e-13
61.7122
-9.09495e-13
61.7121
-6.82121e-13
61.7121
-4.54747e-13
61.7121
4.54747e-13
61.7121
1.81899e-12
61.7122
1.13687e-12
61.7122
6.82121e-13
61.7123
4.54747e-13
61.7125
6.82121e-13
61.7128
-2.27374e-13
61.713
2.27374e-13
61.7131
1.36424e-12
61.7133
2.04636e-12
61.7135
1.13687e-12
61.7136
4.54747e-13
61.7137
1.81899e-12
61.7138
1.13687e-12
61.7139
0
61.714
-1.59162e-12
61.7141
-6.82121e-13
61.7142
1.13687e-12
61.7143
6.82121e-13
61.7144
2.27374e-13
61.7145
-7.50333e-12
61.7146
6.13909e-12
61.7147
4.54747e-13
61.7148
2.27374e-13
61.7149
4.54747e-13
61.715
2.27374e-13
61.7151
4.54747e-13
61.7152
1.36424e-12
61.7153
9.32232e-12
61.7154
-7.7307e-12
61.7156
1.5234e-11
61.7157
-1.29603e-11
61.7158
1.11413e-11
61.7159
-1.31877e-11
61.716
-9.09495e-12
61.7162
-1.63709e-11
61.7163
7.13953e-11
61.7164
-5.07043e-11
61.7165
4.8658e-11
61.7166
-1.77351e-11
61.7168
-3.29692e-11
61.7169
-7.92625e-10
61.717
5.64569e-10
61.7171
2.67391e-10
61.7172
1.20281e-10
61.7173
-1.83945e-10
61.7175
-8.39009e-11
61.7176
1.11868e-10
61.7177
7.93989e-10
61.7178
-5.62295e-09
61.7179
3.78532e-09
61.7181
8.22183e-10
61.7182
-3.25144e-11
61.7183
-4.77939e-10
61.7184
-2.2942e-09
61.7186
-1.43853e-08
61.7187
1.3973e-08
61.7189
3.73916e-09
61.719
-2.68983e-10
61.7192
-6.63931e-11
61.7194
4.91127e-11
61.7196
1.06866e-11
61.7198
7.04858e-12
61.72
3.63798e-12
61.7202
-5.91172e-12
61.7204
-1.36424e-12
61.7207
5.68434e-12
61.721
-4.54747e-12
61.7213
-4.3201e-12
61.7216
2.50111e-12
61.7219
1.5234e-11
61.7223
-9.54969e-12
61.7226
-1.06866e-11
61.7231
1.20508e-11
61.7235
-1.04592e-11
61.724
2.95586e-11
61.7245
-4.38831e-11
61.725
2.59206e-11
61.7256
4.54747e-12
61.7262
-2.04636e-11
61.7269
2.9786e-11
61.7277
-1.84173e-11
61.7284
-3.93356e-11
61.7293
5.16138e-11
61.7302
6.82121e-12
61.7312
-6.09361e-11
61.7322
2.11458e-11
61.7333
8.02629e-11
61.7345
-1.05047e-10
61.7358
3.43334e-11
61.7372
7.95808e-11
61.7387
-1.90994e-11
61.7402
-5.00222e-12
61.7419
-1.65983e-11
61.7437
-1.17325e-10
61.7457
2.31921e-11
61.7477
9.95897e-11
61.7499
1.29376e-10
61.7522
-8.54925e-11
61.7546
-1.72804e-10
61.7572
1.68257e-11
61.7599
9.07221e-11
61.7628
1.05047e-10
61.7658
1.2551e-10
61.7689
-2.90129e-10
61.7722
1.59162e-12
61.7756
1.13687e-10
61.7792
-1.68029e-10
61.7829
-6.59384e-11
61.7867
4.67253e-10
61.7907
-1.49385e-10
61.7947
1.29603e-11
61.7988
-9.56334e-10
61.8031
2.5932e-09
61.8074
1.51977e-09
61.8117
2.4761e-10
61.8161
2.14013e-08
61.8205
1.26066e-07
61.8249
5.12483e-07
61.8292
2.57763e-06
61.8335
1.24725e-05
61.8377
5.99542e-05
61.8417
0.000289445
61.8453
0.00139665
61.8477
0.00673256
61.8448
0.0323892
61.816
0.154725
61.6606
0.714973
60.905
3.20964
11.6828
58.0383
61.7041
-0.000184709
61.7043
-0.000159237
61.7044
-0.000139686
61.7045
-0.000142798
61.7047
-0.000143802
61.7048
-0.000143493
61.7049
-0.000143424
61.7051
-0.000143431
61.7052
-0.000143426
61.7053
-0.000143422
61.7055
-0.000143442
61.7056
-0.00014337
61.7057
-0.000143436
61.7059
-0.000143415
61.706
-0.000143404
61.7061
-0.000143409
61.7062
-0.000143395
61.7063
-0.000143471
61.7063
-0.000143393
61.7063
-0.000143409
61.7064
-0.000143436
61.7065
-0.000143431
61.7067
-0.000143457
61.7068
-0.000143486
61.7071
-0.000143543
61.7074
-0.000143539
61.7077
-0.000143572
61.7079
-0.000143597
61.7081
-0.000143622
61.7082
-0.000143645
61.7083
-0.000143665
61.7084
-0.000143683
61.7085
-0.000143697
61.7086
-0.000143709
61.7086
-0.00014372
61.7087
-0.000143714
61.7088
-0.000143733
61.7088
-0.000143725
61.7087
-0.000143796
61.7087
-0.000143766
61.7087
-0.000143772
61.7087
-0.000143779
61.7088
-0.000143739
61.7089
-0.000143784
61.7091
-0.000143939
61.7093
-0.000143822
61.7094
-0.00014387
61.7096
-0.000143893
61.7096
-0.000143917
61.7097
-0.00014394
61.7098
-0.000143984
61.7099
-0.000143996
61.7099
-0.000143994
61.7101
-0.000144008
61.7102
-0.000144339
61.7105
-0.000143884
61.7108
-0.00014409
61.711
-0.000144151
61.7111
-0.000144168
61.7113
-0.000144192
61.7114
-0.000144214
61.7116
-0.000144234
61.7117
-0.000144253
61.7118
-0.000144269
61.7119
-0.000144283
61.712
-0.000144298
61.7121
-0.000144328
61.7122
-0.000144312
61.7121
-0.000144264
61.7121
-0.00014429
61.7121
-0.000144252
61.7121
-0.000144207
61.7122
-0.000144101
61.7122
-0.000144023
61.7123
-0.000143928
61.7125
-0.000143775
61.7128
-0.000143467
61.713
-0.000143164
61.7131
-0.000142739
61.7133
-0.000142205
61.7135
-0.000141536
61.7136
-0.000140705
61.7137
-0.000139688
61.7138
-0.000138457
61.7139
-0.000136988
61.714
-0.000135255
61.7141
-0.000133232
61.7142
-0.000130901
61.7143
-0.000128244
61.7144
-0.000125261
61.7145
-0.000121868
61.7146
-0.000118232
61.7147
-0.000114194
61.7148
-0.000109843
61.7149
-0.000105196
61.715
-0.000100278
61.7151
-9.51257e-05
61.7152
-8.97829e-05
61.7153
-8.43068e-05
61.7154
-7.87018e-05
61.7156
-7.30846e-05
61.7157
-6.74904e-05
61.7158
-6.1939e-05
61.7159
-5.65001e-05
61.716
-5.12395e-05
61.7162
-4.6174e-05
61.7163
-4.13516e-05
61.7164
-3.6801e-05
61.7165
-3.25293e-05
61.7166
-2.85684e-05
61.7168
-2.49306e-05
61.7169
-2.16025e-05
61.717
-1.86227e-05
61.7171
-1.59212e-05
61.7172
-1.35291e-05
61.7173
-1.14132e-05
61.7175
-9.56706e-06
61.7176
-7.96264e-06
61.7177
-6.58845e-06
61.7178
-5.41659e-06
61.7179
-4.40998e-06
61.7181
-3.57258e-06
61.7182
-2.87414e-06
61.7183
-2.29563e-06
61.7184
-1.82162e-06
61.7186
-1.44292e-06
61.7187
-1.10877e-06
61.7189
-8.64411e-07
61.719
-6.67161e-07
61.7192
-5.08463e-07
61.7194
-3.83925e-07
61.7196
-2.86983e-07
61.7198
-2.12008e-07
61.72
-1.54492e-07
61.7202
-1.10741e-07
61.7204
-7.76636e-08
61.7207
-5.28819e-08
61.721
-3.45331e-08
61.7213
-2.11162e-08
61.7216
-1.14785e-08
61.7219
-4.50768e-09
61.7223
4.23142e-10
61.7226
3.1705e-09
61.7231
4.86352e-09
61.7235
5.69412e-09
61.724
5.78871e-09
61.7245
5.23414e-09
61.725
4.30828e-09
61.7256
3.09046e-09
61.7262
1.37697e-09
61.7269
-6.23459e-10
61.7277
-2.87014e-09
61.7284
-5.60817e-09
61.7293
-8.49855e-09
61.7302
-1.17288e-08
61.7312
-1.5157e-08
61.7322
-1.885e-08
61.7333
-2.28172e-08
61.7345
-2.72651e-08
61.7358
-3.17898e-08
61.7372
-3.66069e-08
61.7387
-4.18672e-08
61.7402
-4.72692e-08
61.7419
-5.2934e-08
61.7437
-5.8872e-08
61.7457
-6.49745e-08
61.7477
-7.11891e-08
61.7499
-7.77284e-08
61.7522
-8.45876e-08
61.7546
-9.15124e-08
61.7572
-9.83723e-08
61.7599
-1.05415e-07
61.7628
-1.12391e-07
61.7658
-1.19745e-07
61.7689
-1.26669e-07
61.7722
-1.33692e-07
61.7756
-1.40184e-07
61.7792
-1.46714e-07
61.7829
-1.52456e-07
61.7867
-1.5824e-07
61.7907
-1.63387e-07
61.7947
-1.67741e-07
61.7988
-1.71866e-07
61.8031
-1.73995e-07
61.8074
-1.75356e-07
61.8117
-1.76614e-07
61.8161
-1.62195e-07
61.8205
-7.68202e-08
61.8249
2.23789e-07
61.8292
1.92502e-06
61.8335
9.85902e-06
61.8377
4.81323e-05
61.8418
0.000233571
61.846
0.00113008
61.851
0.00547843
61.8603
0.0266817
61.8879
0.130512
61.9877
0.618353
62.1458
3.05428
10.7212
63.11
61.7042
-0.000401475
61.7043
-0.000303509
61.7044
-0.000281693
61.7046
-0.000286506
61.7047
-0.00028694
61.7048
-0.000286685
61.705
-0.0002867
61.7051
-0.000286732
61.7052
-0.000286748
61.7054
-0.000286761
61.7055
-0.000286787
61.7056
-0.000286743
61.7058
-0.000286808
61.7059
-0.000286792
61.706
-0.000286786
61.7061
-0.000286793
61.7062
-0.00028674
61.7063
-0.000287006
61.7063
-0.000286707
61.7064
-0.000286819
61.7065
-0.000286861
61.7066
-0.000286847
61.7067
-0.000286907
61.7069
-0.00028696
61.7072
-0.000287096
61.7075
-0.000287076
61.7077
-0.000287138
61.7079
-0.00028719
61.7081
-0.00028724
61.7082
-0.000287286
61.7083
-0.000287326
61.7084
-0.000287361
61.7085
-0.00028739
61.7086
-0.000287415
61.7087
-0.000287431
61.7087
-0.000287429
61.7088
-0.000287453
61.7088
-0.000287454
61.7087
-0.000287605
61.7087
-0.000287529
61.7087
-0.000287545
61.7087
-0.000287564
61.7088
-0.000287458
61.7089
-0.000287558
61.7091
-0.000288005
61.7093
-0.000287556
61.7095
-0.000287741
61.7096
-0.000287789
61.7097
-0.000287837
61.7097
-0.000287885
61.7098
-0.00028794
61.7099
-0.000288017
61.71
-0.000287991
61.7101
-0.00028798
61.7103
-0.00028883
61.7105
-0.000287637
61.7108
-0.00028821
61.711
-0.000288298
61.7111
-0.000288338
61.7113
-0.000288384
61.7114
-0.000288428
61.7116
-0.000288468
61.7117
-0.000288505
61.7118
-0.000288538
61.712
-0.000288566
61.712
-0.000288592
61.7121
-0.000288638
61.7122
-0.000288616
61.7121
-0.000288558
61.7121
-0.000288571
61.7121
-0.000288501
61.7121
-0.000288409
61.7122
-0.000288182
61.7123
-0.000288013
61.7124
-0.000287847
61.7126
-0.00028753
61.7128
-0.000286909
61.713
-0.000286274
61.7132
-0.000285416
61.7133
-0.000284334
61.7135
-0.000282976
61.7136
-0.000281292
61.7137
-0.000279232
61.7138
-0.000276743
61.7139
-0.000273773
61.714
-0.00027027
61.7141
-0.000266187
61.7142
-0.000261483
61.7143
-0.000256125
61.7144
-0.000250097
61.7145
-0.000243292
61.7146
-0.000235989
61.7147
-0.000227848
61.7148
-0.000219108
61.7149
-0.000209775
61.715
-0.000199905
61.7151
-0.000189572
61.7152
-0.000178862
61.7153
-0.000167883
61.7154
-0.000156683
61.7156
-0.000145429
61.7157
-0.000134264
61.7158
-0.000123156
61.7159
-0.000112301
61.716
-0.000101802
61.7162
-9.16945e-05
61.7163
-8.20898e-05
61.7164
-7.30195e-05
61.7165
-6.45166e-05
61.7166
-5.66346e-05
61.7168
-4.94021e-05
61.7169
-4.27819e-05
61.717
-3.6874e-05
61.7171
-3.15044e-05
61.7172
-2.67612e-05
61.7173
-2.25632e-05
61.7175
-1.89062e-05
61.7176
-1.57266e-05
61.7177
-1.30102e-05
61.7178
-1.06808e-05
61.7179
-8.70411e-06
61.7181
-7.04448e-06
61.7182
-5.66389e-06
61.7183
-4.52117e-06
61.7184
-3.58356e-06
61.7186
-2.82273e-06
61.7187
-2.19703e-06
61.7189
-1.70411e-06
61.719
-1.31042e-06
61.7192
-9.98261e-07
61.7194
-7.53333e-07
61.7196
-5.62611e-07
61.7198
-4.15211e-07
61.72
-3.02165e-07
61.7202
-2.16133e-07
61.7204
-1.51177e-07
61.7207
-1.02604e-07
61.721
-6.666e-08
61.7213
-4.03893e-08
61.7216
-2.14718e-08
61.7219
-8.24275e-09
61.7223
5.88443e-10
61.7226
6.66205e-09
61.7231
1.01522e-08
61.7235
1.17429e-08
61.724
1.18775e-08
61.7245
1.08548e-08
61.725
9.04492e-09
61.7256
6.15682e-09
61.7262
2.75668e-09
61.7269
-1.29739e-09
61.7277
-6.04132e-09
61.7284
-1.11622e-08
61.7293
-1.69357e-08
61.7302
-2.33249e-08
61.7312
-3.02175e-08
61.7322
-3.77049e-08
61.7333
-4.57453e-08
61.7345
-5.44069e-08
61.7358
-6.35855e-08
61.7372
-7.33494e-08
61.7387
-8.36912e-08
61.7402
-9.45097e-08
61.7419
-1.05812e-07
61.7437
-1.17708e-07
61.7457
-1.29905e-07
61.7477
-1.42496e-07
61.7499
-1.55567e-07
61.7522
-1.69098e-07
61.7546
-1.82762e-07
61.7572
-1.9683e-07
61.7599
-2.10815e-07
61.7628
-2.2517e-07
61.7658
-2.3935e-07
61.7689
-2.53451e-07
61.7722
-2.67047e-07
61.7756
-2.80538e-07
61.7792
-2.93139e-07
61.7829
-3.0516e-07
61.7867
-3.16551e-07
61.7907
-3.26626e-07
61.7947
-3.35796e-07
61.7988
-3.43398e-07
61.8031
-3.49344e-07
61.8074
-3.53333e-07
61.8117
-3.55844e-07
61.8161
-3.52119e-07
61.8205
-3.20251e-07
61.8249
-2.07463e-07
61.8292
4.21124e-07
61.8335
3.29432e-06
61.8377
1.73176e-05
61.8419
8.49702e-05
61.8466
0.000412589
61.8538
0.00200472
61.8743
0.00982453
61.9592
0.0489283
62.3356
0.245029
63.7548
1.63793
5.50912
68.9695
13.9785
-0.000460015
13.9786
-0.000330415
13.9786
-0.000315801
13.9786
-0.000319135
13.9786
-0.000319343
13.9787
-0.000319187
13.9787
-0.0003192
13.9787
-0.000319225
13.9788
-0.000319239
13.9788
-0.000319252
13.9788
-0.000319262
13.9789
-0.000319259
13.9789
-0.000319288
13.9789
-0.000319281
13.9789
-0.000319276
13.979
-0.000319282
13.979
-0.000319208
13.979
-0.000319553
13.979
-0.000319155
13.979
-0.000319316
13.979
-0.000319354
13.9791
-0.000319336
13.9791
-0.000319407
13.9791
-0.000319463
13.9792
-0.000319624
13.9793
-0.000319596
13.9793
-0.000319662
13.9794
-0.000319721
13.9794
-0.000319776
13.9794
-0.000319827
13.9795
-0.000319872
13.9795
-0.00031991
13.9795
-0.000319943
13.9795
-0.000319971
13.9795
-0.000319986
13.9796
-0.000319987
13.9796
-0.000320007
13.9796
-0.000320015
13.9796
-0.000320188
13.9796
-0.000320096
13.9796
-0.000320116
13.9796
-0.000320139
13.9796
-0.000320009
13.9796
-0.000320123
13.9796
-0.00032069
13.9797
-0.000320076
13.9797
-0.000320334
13.9798
-0.000320387
13.9798
-0.00032044
13.9798
-0.000320494
13.9798
-0.000320543
13.9798
-0.00032065
13.9798
-0.000320612
13.9799