/*--------------------------------*- C++ -*----------------------------------*\
| =========                 |                                                 |
| \\      /  F ield         | OpenFOAM: The Open Source CFD Toolbox           |
|  \\    /   O peration     | Version:  3.0.x                                 |
|   \\  /    A nd           | Web:      www.OpenFOAM.org                      |
|    \\/     M anipulation  |                                                 |
\*---------------------------------------------------------------------------*/
FoamFile
{
    version     2.0;
    format      ascii;
    class       volScalarField;
    location    "0.33";
    object      rho;
}
// * * * * * * * * * * * * * * * * * * * * * * * * * * * * * * * * * * * * * //

dimensions      [1 -3 0 0 0 0 0];

internalField   nonuniform List<scalar> 
13800
(
50.6091
50.6091
50.6091
50.6091
50.6091
50.6091
50.6091
50.6091
50.6091
50.6091
50.6091
50.6091
50.6091
50.6091
50.6091
50.6091
50.6091
50.609
50.609
50.6089
50.6088
50.6088
50.6088
50.6089
50.609
50.6091
50.6093
50.6094
50.6095
50.6095
50.6095
50.6096
50.6096
50.6096
50.6096
50.6096
50.6096
50.6096
50.6096
50.6095
50.6094
50.6094
50.6094
50.6095
50.6095
50.6097
50.6098
50.6099
50.6099
50.6099
50.6099
50.6099
50.61
50.61
50.61
50.6102
50.6103
50.6104
50.6105
50.6106
50.6106
50.6107
50.6107
50.6108
50.6108
50.6108
50.6108
50.6108
50.6108
50.6107
50.6106
50.6106
50.6105
50.6106
50.6106
50.6107
50.6108
50.6109
50.611
50.6111
50.6112
50.6113
50.6113
50.6113
50.6114
50.6114
50.6114
50.6114
50.6114
50.6114
50.6114
50.6114
50.6114
50.6115
50.6115
50.6115
50.6115
50.6115
50.6115
50.6115
50.6115
50.6115
50.6115
50.6115
50.6115
50.6115
50.6115
50.6115
50.6115
50.6115
50.6115
50.6115
50.6115
50.6115
50.6115
50.6115
50.6115
50.6115
50.6115
50.6115
50.6115
50.6115
50.6115
50.6115
50.6115
50.6115
50.6115
50.6115
50.6115
50.6115
50.6115
50.6116
50.6116
50.6116
50.6116
50.6116
50.6116
50.6116
50.6117
50.6117
50.6117
50.6117
50.6117
50.6118
50.6118
50.6118
50.6118
50.6119
50.6119
50.612
50.612
50.612
50.6121
50.6122
50.6122
50.6123
50.6124
50.6125
50.6126
50.6127
50.6128
50.6129
50.613
50.6132
50.6133
50.6135
50.6136
50.6138
50.614
50.6142
50.6145
50.6147
50.615
50.6152
50.6155
50.6158
50.6161
50.6164
50.6168
50.6171
50.6174
50.6178
50.6182
50.6186
50.6189
50.6193
50.6197
50.6201
50.6205
50.6209
50.6213
50.6217
50.622
50.6224
50.6228
50.6232
50.6236
50.6241
50.6283
50.6195
50.6102
50.6102
50.6102
50.6102
50.6102
50.6102
50.6102
50.6102
50.6102
50.6102
50.6102
50.6102
50.6102
50.6102
50.6102
50.6101
50.6101
50.6101
50.61
50.6099
50.6099
50.6099
50.6099
50.6099
50.61
50.6102
50.6103
50.6104
50.6105
50.6105
50.6105
50.6106
50.6106
50.6106
50.6106
50.6106
50.6106
50.6106
50.6105
50.6104
50.6104
50.6104
50.6104
50.6104
50.6105
50.6106
50.6107
50.6108
50.6108
50.6108
50.6108
50.6109
50.6109
50.6109
50.6109
50.6111
50.6112
50.6113
50.6114
50.6115
50.6115
50.6115
50.6116
50.6116
50.6117
50.6117
50.6117
50.6117
50.6116
50.6115
50.6114
50.6114
50.6114
50.6114
50.6114
50.6115
50.6116
50.6117
50.6118
50.6119
50.612
50.612
50.6121
50.6121
50.6121
50.6121
50.6122
50.6122
50.6122
50.6122
50.6122
50.6122
50.6122
50.6122
50.6122
50.6122
50.6122
50.6122
50.6122
50.6122
50.6122
50.6122
50.6122
50.6122
50.6122
50.6122
50.6122
50.6122
50.6122
50.6122
50.6122
50.6122
50.6122
50.6122
50.6122
50.6122
50.6122
50.6122
50.6122
50.6122
50.6122
50.6122
50.6122
50.6122
50.6122
50.6122
50.6122
50.6122
50.6122
50.6122
50.6123
50.6123
50.6123
50.6123
50.6123
50.6123
50.6123
50.6123
50.6124
50.6124
50.6124
50.6124
50.6124
50.6125
50.6125
50.6125
50.6125
50.6126
50.6126
50.6127
50.6127
50.6128
50.6128
50.6129
50.6129
50.613
50.6131
50.6132
50.6133
50.6134
50.6135
50.6136
50.6137
50.6139
50.614
50.6142
50.6144
50.6145
50.6147
50.6149
50.6152
50.6154
50.6157
50.6159
50.6162
50.6165
50.6168
50.6171
50.6175
50.6178
50.6182
50.6185
50.6189
50.6193
50.6196
50.62
50.6204
50.6208
50.6212
50.6216
50.622
50.6224
50.6227
50.6231
50.6235
50.6239
50.6243
50.6247
50.629
50.6166
50.6102
50.6102
50.6102
50.6102
50.6102
50.6102
50.6102
50.6102
50.6102
50.6102
50.6102
50.6102
50.6102
50.6102
50.6101
50.6101
50.6101
50.6101
50.61
50.6099
50.6099
50.6099
50.6099
50.6099
50.61
50.6102
50.6103
50.6104
50.6105
50.6105
50.6105
50.6106
50.6106
50.6106
50.6106
50.6106
50.6106
50.6106
50.6105
50.6104
50.6104
50.6104
50.6104
50.6104
50.6105
50.6106
50.6107
50.6108
50.6108
50.6108
50.6108
50.6109
50.6109
50.6109
50.6109
50.6111
50.6112
50.6113
50.6114
50.6115
50.6115
50.6116
50.6116
50.6116
50.6117
50.6117
50.6117
50.6117
50.6116
50.6115
50.6114
50.6114
50.6114
50.6114
50.6114
50.6115
50.6116
50.6117
50.6118
50.6119
50.612
50.612
50.6121
50.6121
50.6121
50.6121
50.6122
50.6122
50.6122
50.6122
50.6122
50.6122
50.6122
50.6122
50.6122
50.6122
50.6122
50.6122
50.6122
50.6122
50.6122
50.6122
50.6122
50.6122
50.6122
50.6122
50.6122
50.6122
50.6122
50.6122
50.6122
50.6122
50.6122
50.6122
50.6122
50.6122
50.6122
50.6122
50.6122
50.6122
50.6122
50.6122
50.6122
50.6122
50.6122
50.6122
50.6122
50.6122
50.6122
50.6122
50.6123
50.6123
50.6123
50.6123
50.6123
50.6123
50.6123
50.6123
50.6124
50.6124
50.6124
50.6124
50.6124
50.6125
50.6125
50.6125
50.6125
50.6126
50.6126
50.6127
50.6127
50.6128
50.6128
50.6129
50.6129
50.613
50.6131
50.6132
50.6133
50.6134
50.6135
50.6136
50.6137
50.6139
50.614
50.6142
50.6144
50.6145
50.6147
50.615
50.6152
50.6154
50.6157
50.6159
50.6162
50.6165
50.6168
50.6171
50.6175
50.6178
50.6182
50.6185
50.6189
50.6193
50.6196
50.62
50.6204
50.6208
50.6212
50.6216
50.622
50.6224
50.6227
50.6231
50.6235
50.6239
50.6243
50.6247
50.629
50.617
50.6102
50.6102
50.6102
50.6102
50.6102
50.6102
50.6102
50.6102
50.6102
50.6102
50.6102
50.6102
50.6102
50.6101
50.6101
50.6101
50.6101
50.6101
50.61
50.6099
50.6099
50.6099
50.6099
50.6099
50.61
50.6101
50.6103
50.6104
50.6105
50.6105
50.6105
50.6106
50.6106
50.6106
50.6106
50.6106
50.6106
50.6106
50.6105
50.6104
50.6104
50.6104
50.6104
50.6104
50.6105
50.6106
50.6107
50.6108
50.6108
50.6108
50.6108
50.6108
50.6109
50.6109
50.6109
50.6111
50.6112
50.6113
50.6114
50.6114
50.6115
50.6115
50.6116
50.6116
50.6117
50.6117
50.6117
50.6117
50.6116
50.6115
50.6114
50.6114
50.6114
50.6114
50.6114
50.6115
50.6116
50.6117
50.6118
50.6119
50.612
50.612
50.6121
50.6121
50.6121
50.6121
50.6122
50.6122
50.6122
50.6122
50.6122
50.6122
50.6122
50.6122
50.6122
50.6122
50.6122
50.6122
50.6122
50.6122
50.6122
50.6122
50.6122
50.6122
50.6122
50.6122
50.6122
50.6122
50.6122
50.6122
50.6122
50.6122
50.6122
50.6122
50.6122
50.6122
50.6122
50.6122
50.6122
50.6122
50.6122
50.6122
50.6122
50.6122
50.6122
50.6122
50.6122
50.6122
50.6122
50.6122
50.6123
50.6123
50.6123
50.6123
50.6123
50.6123
50.6123
50.6123
50.6124
50.6124
50.6124
50.6124
50.6124
50.6125
50.6125
50.6125
50.6125
50.6126
50.6126
50.6127
50.6127
50.6128
50.6128
50.6129
50.6129
50.613
50.6131
50.6132
50.6133
50.6134
50.6135
50.6136
50.6137
50.6139
50.614
50.6142
50.6144
50.6145
50.6147
50.615
50.6152
50.6154
50.6157
50.6159
50.6162
50.6165
50.6168
50.6171
50.6175
50.6178
50.6182
50.6185
50.6189
50.6193
50.6196
50.62
50.6204
50.6208
50.6212
50.6216
50.622
50.6224
50.6227
50.6231
50.6235
50.6239
50.6243
50.6248
50.6284
50.6209
50.6102
50.6102
50.6102
50.6102
50.6102
50.6102
50.6102
50.6102
50.6102
50.6102
50.6102
50.6102
50.6101
50.6101
50.6101
50.6101
50.6101
50.6101
50.61
50.6099
50.6099
50.6098
50.6098
50.6099
50.61
50.6101
50.6103
50.6104
50.6105
50.6105
50.6105
50.6106
50.6106
50.6106
50.6106
50.6106
50.6106
50.6106
50.6105
50.6104
50.6104
50.6104
50.6104
50.6104
50.6105
50.6106
50.6107
50.6108
50.6108
50.6108
50.6108
50.6108
50.6108
50.6109
50.6109
50.611
50.6112
50.6113
50.6114
50.6114
50.6115
50.6115
50.6116
50.6116
50.6117
50.6117
50.6117
50.6117
50.6116
50.6115
50.6114
50.6114
50.6114
50.6114
50.6114
50.6115
50.6116
50.6117
50.6118
50.6119
50.612
50.612
50.6121
50.6121
50.6121
50.6121
50.6122
50.6122
50.6122
50.6122
50.6122
50.6122
50.6122
50.6122
50.6122
50.6122
50.6122
50.6122
50.6122
50.6122
50.6122
50.6122
50.6122
50.6122
50.6122
50.6122
50.6122
50.6122
50.6122
50.6122
50.6122
50.6122
50.6122
50.6122
50.6122
50.6122
50.6122
50.6122
50.6122
50.6122
50.6122
50.6122
50.6122
50.6122
50.6122
50.6122
50.6122
50.6122
50.6122
50.6122
50.6123
50.6123
50.6123
50.6123
50.6123
50.6123
50.6123
50.6123
50.6124
50.6124
50.6124
50.6124
50.6124
50.6125
50.6125
50.6125
50.6125
50.6126
50.6126
50.6127
50.6127
50.6128
50.6128
50.6129
50.6129
50.613
50.6131
50.6132
50.6133
50.6134
50.6135
50.6136
50.6137
50.6139
50.614
50.6142
50.6144
50.6145
50.6147
50.615
50.6152
50.6154
50.6157
50.6159
50.6162
50.6165
50.6168
50.6171
50.6175
50.6178
50.6182
50.6185
50.6189
50.6193
50.6196
50.62
50.6204
50.6208
50.6212
50.6216
50.622
50.6224
50.6228
50.6231
50.6235
50.6238
50.6242
50.6245
50.6265
50.619
50.6102
50.6102
50.6102
50.6102
50.6102
50.6102
50.6102
50.6102
50.6102
50.6102
50.6102
50.6102
50.6101
50.6101
50.6101
50.6101
50.6101
50.6101
50.61
50.6099
50.6099
50.6098
50.6098
50.6099
50.61
50.6101
50.6103
50.6104
50.6105
50.6105
50.6105
50.6106
50.6106
50.6106
50.6106
50.6106
50.6106
50.6106
50.6105
50.6104
50.6104
50.6104
50.6104
50.6104
50.6105
50.6106
50.6107
50.6108
50.6108
50.6108
50.6108
50.6108
50.6108
50.6109
50.6109
50.611
50.6112
50.6113
50.6114
50.6114
50.6115
50.6115
50.6116
50.6116
50.6117
50.6117
50.6117
50.6117
50.6116
50.6115
50.6114
50.6114
50.6114
50.6114
50.6114
50.6115
50.6116
50.6117
50.6118
50.6119
50.612
50.612
50.6121
50.6121
50.6121
50.6121
50.6122
50.6122
50.6122
50.6122
50.6122
50.6122
50.6122
50.6122
50.6122
50.6122
50.6122
50.6122
50.6122
50.6122
50.6122
50.6122
50.6122
50.6122
50.6122
50.6122
50.6122
50.6122
50.6122
50.6122
50.6122
50.6122
50.6122
50.6122
50.6122
50.6122
50.6122
50.6122
50.6122
50.6122
50.6122
50.6122
50.6122
50.6122
50.6122
50.6122
50.6122
50.6122
50.6122
50.6122
50.6123
50.6123
50.6123
50.6123
50.6123
50.6123
50.6123
50.6123
50.6124
50.6124
50.6124
50.6124
50.6124
50.6125
50.6125
50.6125
50.6125
50.6126
50.6126
50.6127
50.6127
50.6128
50.6128
50.6129
50.6129
50.613
50.6131
50.6132
50.6133
50.6134
50.6135
50.6136
50.6137
50.6139
50.614
50.6142
50.6144
50.6145
50.6147
50.615
50.6152
50.6154
50.6157
50.6159
50.6162
50.6165
50.6168
50.6171
50.6175
50.6178
50.6182
50.6185
50.6189
50.6193
50.6196
50.62
50.6204
50.6208
50.6212
50.6216
50.622
50.6224
50.6227
50.6231
50.6235
50.6238
50.6241
50.6243
50.6239
50.6223
50.6102
50.6102
50.6102
50.6102
50.6102
50.6102
50.6102
50.6102
50.6102
50.6102
50.6102
50.6102
50.6102
50.6101
50.6101
50.6101
50.6101
50.6101
50.61
50.6099
50.6099
50.6099
50.6099
50.6099
50.61
50.6101
50.6103
50.6104
50.6105
50.6105
50.6105
50.6106
50.6106
50.6106
50.6106
50.6106
50.6106
50.6106
50.6105
50.6104
50.6104
50.6104
50.6104
50.6104
50.6105
50.6106
50.6107
50.6108
50.6108
50.6108
50.6108
50.6108
50.6109
50.6109
50.6109
50.6111
50.6112
50.6113
50.6114
50.6114
50.6115
50.6115
50.6116
50.6116
50.6117
50.6117
50.6117
50.6117
50.6116
50.6115
50.6114
50.6114
50.6114
50.6114
50.6114
50.6115
50.6116
50.6117
50.6118
50.6119
50.612
50.612
50.6121
50.6121
50.6121
50.6121
50.6122
50.6122
50.6122
50.6122
50.6122
50.6122
50.6122
50.6122
50.6122
50.6122
50.6122
50.6122
50.6122
50.6122
50.6122
50.6122
50.6122
50.6122
50.6122
50.6122
50.6122
50.6122
50.6122
50.6122
50.6122
50.6122
50.6122
50.6122
50.6122
50.6122
50.6122
50.6122
50.6122
50.6122
50.6122
50.6122
50.6122
50.6122
50.6122
50.6122
50.6122
50.6122
50.6122
50.6122
50.6123
50.6123
50.6123
50.6123
50.6123
50.6123
50.6123
50.6123
50.6124
50.6124
50.6124
50.6124
50.6124
50.6125
50.6125
50.6125
50.6125
50.6126
50.6126
50.6127
50.6127
50.6128
50.6128
50.6129
50.6129
50.613
50.6131
50.6132
50.6133
50.6134
50.6135
50.6136
50.6137
50.6139
50.614
50.6142
50.6144
50.6145
50.6147
50.615
50.6152
50.6154
50.6157
50.6159
50.6162
50.6165
50.6168
50.6171
50.6175
50.6178
50.6182
50.6185
50.6189
50.6193
50.6196
50.62
50.6204
50.6208
50.6212
50.6216
50.622
50.6224
50.6228
50.6231
50.6235
50.6238
50.624
50.6243
50.6208
50.6329
50.6102
50.6102
50.6102
50.6102
50.6102
50.6102
50.6102
50.6102
50.6102
50.6102
50.6102
50.6102
50.6102
50.6102
50.6101
50.6101
50.6101
50.6101
50.61
50.6099
50.6099
50.6099
50.6099
50.6099
50.61
50.6102
50.6103
50.6104
50.6105
50.6105
50.6105
50.6106
50.6106
50.6106
50.6106
50.6106
50.6106
50.6106
50.6105
50.6104
50.6104
50.6104
50.6104
50.6104
50.6105
50.6106
50.6107
50.6108
50.6108
50.6108
50.6108
50.6109
50.6109
50.6109
50.6109
50.6111
50.6112
50.6113
50.6114
50.6115
50.6115
50.6116
50.6116
50.6116
50.6117
50.6117
50.6117
50.6117
50.6116
50.6115
50.6114
50.6114
50.6114
50.6114
50.6114
50.6115
50.6116
50.6117
50.6118
50.6119
50.612
50.612
50.6121
50.6121
50.6121
50.6121
50.6122
50.6122
50.6122
50.6122
50.6122
50.6122
50.6122
50.6122
50.6122
50.6122
50.6122
50.6122
50.6122
50.6122
50.6122
50.6122
50.6122
50.6122
50.6122
50.6122
50.6122
50.6122
50.6122
50.6122
50.6122
50.6122
50.6122
50.6122
50.6122
50.6122
50.6122
50.6122
50.6122
50.6122
50.6122
50.6122
50.6122
50.6122
50.6122
50.6122
50.6122
50.6122
50.6122
50.6122
50.6123
50.6123
50.6123
50.6123
50.6123
50.6123
50.6123
50.6123
50.6124
50.6124
50.6124
50.6124
50.6124
50.6125
50.6125
50.6125
50.6125
50.6126
50.6126
50.6127
50.6127
50.6128
50.6128
50.6129
50.6129
50.613
50.6131
50.6132
50.6133
50.6134
50.6135
50.6136
50.6137
50.6139
50.614
50.6142
50.6144
50.6145
50.6147
50.615
50.6152
50.6154
50.6157
50.6159
50.6162
50.6165
50.6168
50.6171
50.6175
50.6178
50.6182
50.6185
50.6189
50.6193
50.6196
50.62
50.6204
50.6208
50.6212
50.6216
50.622
50.6224
50.6227
50.6231
50.6235
50.6238
50.624
50.6248
50.6177
50.6622
50.6102
50.6102
50.6102
50.6102
50.6102
50.6102
50.6102
50.6102
50.6102
50.6102
50.6102
50.6102
50.6102
50.6102
50.6102
50.6101
50.6101
50.6101
50.61
50.6099
50.6099
50.6099
50.6099
50.6099
50.61
50.6102
50.6103
50.6104
50.6105
50.6105
50.6105
50.6106
50.6106
50.6106
50.6106
50.6106
50.6106
50.6106
50.6105
50.6104
50.6104
50.6104
50.6104
50.6104
50.6105
50.6106
50.6107
50.6108
50.6108
50.6108
50.6108
50.6109
50.6109
50.6109
50.6109
50.6111
50.6112
50.6113
50.6114
50.6115
50.6115
50.6115
50.6116
50.6116
50.6117
50.6117
50.6117
50.6117
50.6116
50.6115
50.6114
50.6114
50.6114
50.6114
50.6114
50.6115
50.6116
50.6117
50.6118
50.6119
50.612
50.612
50.6121
50.6121
50.6121
50.6121
50.6122
50.6122
50.6122
50.6122
50.6122
50.6122
50.6122
50.6122
50.6122
50.6122
50.6122
50.6122
50.6122
50.6122
50.6122
50.6122
50.6122
50.6122
50.6122
50.6122
50.6122
50.6122
50.6122
50.6122
50.6122
50.6122
50.6122
50.6122
50.6122
50.6122
50.6122
50.6122
50.6122
50.6122
50.6122
50.6122
50.6122
50.6122
50.6122
50.6122
50.6122
50.6122
50.6122
50.6122
50.6123
50.6123
50.6123
50.6123
50.6123
50.6123
50.6123
50.6123
50.6124
50.6124
50.6124
50.6124
50.6124
50.6125
50.6125
50.6125
50.6125
50.6126
50.6126
50.6127
50.6127
50.6128
50.6128
50.6129
50.6129
50.613
50.6131
50.6132
50.6133
50.6134
50.6135
50.6136
50.6137
50.6139
50.614
50.6142
50.6144
50.6145
50.6147
50.6149
50.6152
50.6154
50.6157
50.6159
50.6162
50.6165
50.6168
50.6171
50.6175
50.6178
50.6182
50.6185
50.6189
50.6193
50.6196
50.62
50.6204
50.6208
50.6212
50.6216
50.622
50.6224
50.6227
50.6231
50.6235
50.6238
50.624
50.6249
50.616
50.6777
50.6091
50.6091
50.6091
50.6091
50.6091
50.6091
50.6091
50.6091
50.6091
50.6091
50.6091
50.6091
50.6091
50.6091
50.6091
50.6091
50.6091
50.609
50.609
50.6089
50.6088
50.6088
50.6088
50.6089
50.609
50.6091
50.6093
50.6094
50.6095
50.6095
50.6095
50.6096
50.6096
50.6096
50.6096
50.6096
50.6096
50.6096
50.6096
50.6095
50.6094
50.6094
50.6094
50.6095
50.6095
50.6097
50.6098
50.6099
50.6099
50.6099
50.6099
50.6099
50.61
50.61
50.61
50.6102
50.6103
50.6104
50.6105
50.6106
50.6106
50.6107
50.6107
50.6108
50.6108
50.6108
50.6108
50.6108
50.6108
50.6107
50.6106
50.6106
50.6105
50.6106
50.6106
50.6107
50.6108
50.6109
50.611
50.6111
50.6112
50.6113
50.6113
50.6113
50.6114
50.6114
50.6114
50.6114
50.6114
50.6114
50.6114
50.6114
50.6114
50.6115
50.6115
50.6115
50.6115
50.6115
50.6115
50.6115
50.6115
50.6115
50.6115
50.6115
50.6115
50.6115
50.6115
50.6115
50.6115
50.6115
50.6115
50.6115
50.6115
50.6115
50.6115
50.6115
50.6115
50.6115
50.6115
50.6115
50.6115
50.6115
50.6115
50.6115
50.6115
50.6115
50.6115
50.6115
50.6115
50.6115
50.6115
50.6116
50.6116
50.6116
50.6116
50.6116
50.6116
50.6116
50.6117
50.6117
50.6117
50.6117
50.6117
50.6118
50.6118
50.6118
50.6118
50.6119
50.6119
50.612
50.612
50.612
50.6121
50.6122
50.6122
50.6123
50.6124
50.6125
50.6126
50.6127
50.6128
50.6129
50.613
50.6132
50.6133
50.6135
50.6136
50.6138
50.614
50.6142
50.6145
50.6147
50.615
50.6152
50.6155
50.6158
50.6161
50.6164
50.6168
50.6171
50.6174
50.6178
50.6182
50.6186
50.6189
50.6193
50.6197
50.6201
50.6205
50.6209
50.6213
50.6217
50.622
50.6224
50.6228
50.6231
50.6233
50.6244
50.6137
50.691
50.7153
50.7549
50.768
50.7698
50.7695
50.7692
50.7687
50.7676
50.766
50.7643
50.7624
50.7604
50.7581
50.7554
50.7522
50.748
50.7425
50.7351
50.7247
50.7086
50.7099
50.7449
50.7586
50.7611
50.761
50.7611
50.7608
50.76
50.7586
50.7572
50.7555
50.7538
50.7516
50.7491
50.7458
50.7418
50.7362
50.7287
50.718
50.7019
50.7044
50.7397
50.7553
50.7587
50.7588
50.7589
50.7586
50.7576
50.7561
50.7545
50.7528
50.7509
50.7486
50.7461
50.7428
50.7388
50.7329
50.725
50.7136
50.6962
50.686
50.7059
50.7122
50.7117
50.7104
50.7096
50.7086
50.7071
50.7053
50.7034
50.7014
50.6993
50.6967
50.6937
50.69
50.6855
50.6804
50.6729
50.6629
50.6489
50.6548
50.6673
50.6767
50.6835
50.6882
50.6912
50.6926
50.6931
50.6929
50.6923
50.6912
50.6896
50.6868
50.6837
50.6798
50.6747
50.6681
50.6604
50.6515
50.641
50.6016
50.5919
50.5815
50.5707
50.5608
50.5525
50.5462
50.5411
50.5368
50.5333
50.5304
50.5281
50.5267
50.5255
50.5241
50.523
50.5225
50.5232
50.5243
50.5282
50.5427
50.5212
50.514
50.5147
50.5163
50.5172
50.5176
50.5184
50.5188
50.5193
50.5193
50.5194
50.5192
50.5192
50.5191
50.52
50.5213
50.5246
50.5306
50.5415
50.473
50.4155
50.3719
50.3427
50.3226
50.3071
50.2951
50.2863
50.2805
50.277
50.2753
50.2754
50.2773
50.2816
50.2897
50.2999
50.3157
50.3336
50.3597
50.3915
50.4582
50.3957
50.3569
50.3349
50.3201
50.309
50.3
50.2942
50.2905
50.2894
50.2896
50.2916
50.2949
50.3005
50.3089
50.3203
50.3352
50.3531
50.3769
50.4071
50.4394
50.3523
50.3036
50.275
50.2559
50.2396
50.2263
50.2164
50.2106
50.2054
50.2035
50.2023
50.2046
50.2082
50.2162
50.2276
50.243
50.2631
50.2894
50.3253
50.6391
50.599
50.588
50.585
50.5839
50.5836
50.5834
50.5834
50.5833
50.5832
50.5831
50.5829
50.5827
50.5824
50.5822
50.5819
50.5816
50.5813
50.581
50.5806
50.5803
50.58
50.5796
50.5792
50.5787
50.5782
50.5777
50.5772
50.5766
50.5761
50.5756
50.575
50.5745
50.574
50.5735
50.5729
50.5724
50.5718
50.5712
50.5706
50.57
50.5695
50.5689
50.5683
50.5678
50.5673
50.5668
50.5663
50.5658
50.5652
50.5647
50.5642
50.5636
50.5631
50.5627
50.5622
50.5618
50.5614
50.561
50.5607
50.5603
50.56
50.5597
50.5594
50.5591
50.5588
50.5585
50.5582
50.558
50.5578
50.5576
50.5574
50.5572
50.557
50.5569
50.5567
50.5565
50.5563
50.5561
50.556
50.5559
50.5558
50.5557
50.5556
50.5555
50.5555
50.5554
50.5553
50.5553
50.5552
50.5552
50.5551
50.5551
50.5552
50.5552
50.5552
50.5553
50.5554
50.5555
50.5556
50.5558
50.5559
50.556
50.5561
50.5563
50.5566
50.5572
50.5579
50.5586
50.5592
50.5597
50.5602
50.5605
50.5607
50.5609
50.561
50.5608
50.5593
50.5532
50.5321
50.4913
50.4494
50.4104
50.3768
50.3505
50.3322
50.3217
50.3175
50.3172
50.3202
50.3361
50.378
50.4228
50.4615
50.493
50.5175
50.5354
50.5479
50.5561
50.5612
50.5642
50.5656
50.5663
50.5665
50.5664
50.5661
50.5656
50.5652
50.5649
50.5647
50.5645
50.5643
50.5642
50.5641
50.564
50.5639
50.5639
50.5639
50.5638
50.5638
50.5638
50.5638
50.5638
50.5638
50.5638
50.5639
50.5639
50.5639
50.5639
50.564
50.564
50.564
50.564
50.5641
50.5641
50.5641
50.5642
50.5642
50.5643
50.5643
50.5643
50.5644
50.5644
50.5645
50.5645
50.5646
50.5646
50.5647
50.5647
50.5648
50.5649
50.5649
50.565
50.565
50.5651
50.5651
50.5648
50.5652
50.5553
50.6099
50.6391
50.6015
50.5908
50.588
50.587
50.5867
50.5866
50.5866
50.5865
50.5864
50.5863
50.5861
50.5859
50.5857
50.5854
50.5851
50.5848
50.5845
50.5842
50.5839
50.5835
50.5832
50.5828
50.5824
50.582
50.5815
50.581
50.5805
50.5799
50.5794
50.5788
50.5783
50.5778
50.5772
50.5767
50.5762
50.5756
50.5751
50.5745
50.5739
50.5734
50.5728
50.5722
50.5716
50.5711
50.5705
50.57
50.5695
50.569
50.5685
50.568
50.5675
50.567
50.5665
50.566
50.5656
50.5651
50.5647
50.5643
50.564
50.5636
50.5633
50.563
50.5627
50.5624
50.5621
50.5619
50.5616
50.5614
50.5611
50.5609
50.5607
50.5606
50.5604
50.5602
50.5601
50.5599
50.5597
50.5596
50.5594
50.5593
50.5591
50.559
50.5589
50.5589
50.5588
50.5588
50.5587
50.5587
50.5586
50.5586
50.5586
50.5585
50.5585
50.5585
50.5586
50.5586
50.5587
50.5587
50.5588
50.5589
50.559
50.5591
50.5592
50.5594
50.5597
50.56
50.5603
50.5606
50.5609
50.5611
50.5613
50.5616
50.5619
50.5625
50.564
50.567
50.5702
50.5732
50.5758
50.5777
50.5789
50.5794
50.5795
50.5792
50.5769
50.5691
50.5579
50.5479
50.5399
50.5345
50.5314
50.5303
50.5304
50.5314
50.536
50.5434
50.5498
50.5548
50.5586
50.5614
50.5632
50.5643
50.565
50.5654
50.5655
50.5656
50.5656
50.5655
50.5653
50.5651
50.565
50.5649
50.5648
50.5647
50.5646
50.5646
50.5646
50.5645
50.5645
50.5645
50.5645
50.5645
50.5645
50.5645
50.5646
50.5646
50.5646
50.5646
50.5647
50.5647
50.5647
50.5647
50.5648
50.5648
50.5648
50.5649
50.5649
50.565
50.565
50.565
50.5651
50.5651
50.5652
50.5652
50.5653
50.5653
50.5654
50.5654
50.5655
50.5656
50.5656
50.5657
50.5657
50.5658
50.5658
50.5655
50.5658
50.5571
50.6006
50.639
50.6026
50.5913
50.5879
50.5867
50.5862
50.586
50.5859
50.5858
50.5857
50.5856
50.5854
50.5852
50.585
50.5847
50.5845
50.5841
50.5838
50.5835
50.5832
50.5828
50.5825
50.5821
50.5817
50.5813
50.5808
50.5803
50.5798
50.5793
50.5787
50.5782
50.5776
50.5771
50.5766
50.576
50.5755
50.5749
50.5744
50.5738
50.5732
50.5727
50.5721
50.5715
50.5709
50.5704
50.5699
50.5694
50.5688
50.5683
50.5679
50.5674
50.5669
50.5664
50.5658
50.5653
50.5649
50.5644
50.564
50.5636
50.5633
50.5629
50.5626
50.5623
50.562
50.5617
50.5615
50.5612
50.5609
50.5607
50.5605
50.5603
50.5601
50.5599
50.5597
50.5595
50.5594
50.5592
50.5591
50.5589
50.5587
50.5586
50.5585
50.5584
50.5583
50.5582
50.5582
50.5581
50.5581
50.558
50.558
50.5579
50.5579
50.5579
50.5579
50.5579
50.5579
50.5579
50.558
50.558
50.5581
50.5582
50.5583
50.5584
50.5585
50.5586
50.5588
50.5591
50.5594
50.5597
50.56
50.5603
50.5605
50.5608
50.561
50.5613
50.562
50.5637
50.5681
50.5735
50.5785
50.5828
50.5861
50.5883
50.5895
50.59
50.59
50.5896
50.5872
50.5804
50.5725
50.5657
50.5604
50.5566
50.5544
50.5535
50.5533
50.5535
50.5546
50.5572
50.5596
50.5615
50.5629
50.5639
50.5645
50.5649
50.5651
50.5652
50.5652
50.5652
50.5651
50.565
50.5649
50.5648
50.5647
50.5647
50.5646
50.5646
50.5645
50.5645
50.5645
50.5645
50.5645
50.5645
50.5645
50.5645
50.5646
50.5646
50.5646
50.5646
50.5647
50.5647
50.5647
50.5647
50.5648
50.5648
50.5648
50.5649
50.5649
50.565
50.565
50.565
50.5651
50.5651
50.5652
50.5652
50.5653
50.5653
50.5654
50.5654
50.5655
50.5656
50.5656
50.5657
50.5657
50.5658
50.5658
50.5656
50.5656
50.5586
50.5867
50.6091
50.584
50.5773
50.5771
50.5778
50.5782
50.5784
50.5785
50.5785
50.5784
50.5783
50.5782
50.578
50.5778
50.5776
50.5773
50.577
50.5766
50.5763
50.5759
50.5756
50.5752
50.5749
50.5745
50.574
50.5736
50.5731
50.5726
50.5721
50.5715
50.571
50.5704
50.5699
50.5693
50.5688
50.5682
50.5677
50.5672
50.5666
50.566
50.5655
50.5649
50.5643
50.5638
50.5632
50.5627
50.5622
50.5617
50.5612
50.5607
50.5602
50.5597
50.5592
50.5587
50.5582
50.5577
50.5573
50.5569
50.5565
50.5561
50.5558
50.5555
50.5551
50.5548
50.5546
50.5543
50.554
50.5538
50.5535
50.5533
50.5531
50.5529
50.5527
50.5525
50.5524
50.5522
50.552
50.5518
50.5517
50.5515
50.5514
50.5513
50.5512
50.5511
50.5511
50.551
50.5509
50.5509
50.5508
50.5508
50.5508
50.5508
50.5508
50.5508
50.5508
50.5509
50.551
50.5511
50.5512
50.5513
50.5514
50.5515
50.5517
50.552
50.5525
50.553
50.5534
50.5538
50.5541
50.5544
50.5546
50.5548
50.5551
50.5556
50.5568
50.5592
50.5618
50.5643
50.5666
50.5685
50.5699
50.5709
50.5714
50.5717
50.5718
50.5716
50.5705
50.5681
50.5659
50.5641
50.5626
50.5617
50.5611
50.5609
50.5609
50.561
50.5613
50.5621
50.5628
50.5634
50.5638
50.5642
50.5644
50.5645
50.5646
50.5646
50.5646
50.5646
50.5645
50.5645
50.5645
50.5644
50.5644
50.5644
50.5644
50.5644
50.5644
50.5644
50.5644
50.5644
50.5644
50.5644
50.5645
50.5645
50.5645
50.5645
50.5646
50.5646
50.5646
50.5646
50.5647
50.5647
50.5647
50.5648
50.5648
50.5648
50.5649
50.5649
50.565
50.565
50.565
50.5651
50.5651
50.5652
50.5652
50.5653
50.5653
50.5654
50.5654
50.5655
50.5656
50.5656
50.5657
50.5657
50.5658
50.5658
50.5656
50.5649
50.5606
50.5631
50.616
50.6059
50.6
50.5945
50.591
50.5892
50.5884
50.588
50.5877
50.5875
50.5873
50.5871
50.5869
50.5867
50.5864
50.5862
50.5859
50.5856
50.5852
50.5848
50.5844
50.5841
50.5837
50.5832
50.5828
50.5824
50.5819
50.5814
50.5809
50.5804
50.5799
50.5793
50.5788
50.5782
50.5776
50.5771
50.5765
50.5759
50.5754
50.5748
50.5743
50.5737
50.5732
50.5726
50.572
50.5715
50.571
50.5704
50.5699
50.5694
50.5689
50.5684
50.568
50.5675
50.5671
50.5666
50.5662
50.5658
50.5654
50.565
50.5646
50.5642
50.5639
50.5636
50.5633
50.563
50.5627
50.5625
50.5622
50.562
50.5618
50.5616
50.5614
50.5612
50.5611
50.5609
50.5608
50.5606
50.5605
50.5603
50.5602
50.5601
50.56
50.5599
50.5598
50.5597
50.5596
50.5596
50.5595
50.5595
50.5594
50.5594
50.5594
50.5593
50.5593
50.5593
50.5593
50.5593
50.5593
50.5593
50.5594
50.5594
50.5594
50.5593
50.5593
50.5594
50.5595
50.5596
50.5597
50.5599
50.56
50.5602
50.5603
50.5604
50.5605
50.5607
50.5609
50.5611
50.5616
50.5626
50.5635
50.5643
50.5648
50.5652
50.5654
50.5655
50.5656
50.5654
50.5651
50.5648
50.5645
50.5643
50.5641
50.5641
50.5641
50.5641
50.5641
50.5642
50.5642
50.5643
50.5643
50.5643
50.5643
50.5643
50.5643
50.5643
50.5643
50.5643
50.5642
50.5642
50.5642
50.5642
50.5643
50.5643
50.5643
50.5643
50.5643
50.5643
50.5643
50.5644
50.5644
50.5644
50.5644
50.5645
50.5645
50.5645
50.5646
50.5646
50.5646
50.5646
50.5647
50.5647
50.5647
50.5648
50.5648
50.5648
50.5649
50.5649
50.565
50.565
50.565
50.5651
50.5651
50.5652
50.5652
50.5653
50.5653
50.5654
50.5654
50.5655
50.5656
50.5656
50.5657
50.5658
50.5658
50.5659
50.5659
50.5656
50.5646
50.5608
50.5361
50.5465
50.5527
50.5577
50.5609
50.5625
50.5632
50.5636
50.5636
50.5636
50.5635
50.5633
50.5632
50.563
50.5627
50.5625
50.5622
50.5618
50.5614
50.5611
50.5607
50.5603
50.5599
50.5595
50.5591
50.5587
50.5582
50.5578
50.5572
50.5567
50.5562
50.5556
50.5551
50.5545
50.5539
50.5534
50.5529
50.5524
50.5518
50.5513
50.5507
50.5502
50.5496
50.549
50.5485
50.548
50.5474
50.5469
50.5464
50.546
50.5455
50.545
50.5445
50.544
50.5435
50.543
50.5426
50.5422
50.5418
50.5414
50.5411
50.5408
50.5405
50.5402
50.5399
50.5396
50.5394
50.5391
50.5389
50.5387
50.5385
50.5383
50.5382
50.538
50.5378
50.5377
50.5376
50.5374
50.5373
50.5372
50.5371
50.5371
50.5371
50.5371
50.5371
50.5371
50.5372
50.5373
50.5375
50.5377
50.5379
50.5382
50.5384
50.5387
50.5389
50.5392
50.5395
50.5399
50.5404
50.5409
50.5416
50.5423
50.543
50.5437
50.5442
50.5447
50.545
50.5453
50.5455
50.5458
50.5463
50.5473
50.5491
50.5512
50.5534
50.5557
50.5579
50.56
50.5619
50.5636
50.565
50.5661
50.5669
50.5675
50.5679
50.568
50.5681
50.5679
50.5672
50.5663
50.5655
50.5649
50.5643
50.5639
50.5636
50.5634
50.5632
50.5631
50.5631
50.5631
50.5631
50.5632
50.5632
50.5633
50.5634
50.5635
50.5635
50.5636
50.5637
50.5638
50.5638
50.5639
50.5639
50.564
50.5641
50.5641
50.5642
50.5642
50.5642
50.5643
50.5643
50.5644
50.5644
50.5644
50.5645
50.5645
50.5645
50.5646
50.5646
50.5646
50.5647
50.5647
50.5647
50.5648
50.5648
50.5648
50.5649
50.5649
50.565
50.565
50.565
50.5651
50.5651
50.5652
50.5652
50.5653
50.5653
50.5654
50.5654
50.5655
50.5656
50.5656
50.5657
50.5658
50.5658
50.566
50.5662
50.5665
50.5684
50.5646
50.5784
50.6006
50.6039
50.6019
50.6004
50.5996
50.5991
50.5988
50.5986
50.5984
50.5982
50.598
50.5978
50.5976
50.5974
50.5971
50.5968
50.5965
50.5962
50.5959
50.5955
50.5951
50.5946
50.5942
50.5937
50.5932
50.5928
50.5923
50.5918
50.5913
50.5908
50.5903
50.5897
50.5892
50.5886
50.5881
50.5875
50.5869
50.5863
50.5857
50.5851
50.5845
50.584
50.5834
50.5829
50.5824
50.5818
50.5813
50.5808
50.5803
50.5797
50.5792
50.5787
50.5783
50.5778
50.5774
50.5769
50.5765
50.5761
50.5758
50.5754
50.5751
50.5748
50.5745
50.5742
50.5739
50.5736
50.5733
50.573
50.5727
50.5725
50.5723
50.5721
50.5719
50.5718
50.5716
50.5715
50.5713
50.5712
50.571
50.5709
50.5708
50.5707
50.5706
50.5705
50.5704
50.5704
50.5704
50.5704
50.5704
50.5704
50.5704
50.5704
50.5704
50.5705
50.5705
50.5705
50.5705
50.5705
50.5705
50.5706
50.5706
50.5706
50.5707
50.5707
50.5708
50.5709
50.571
50.571
50.5709
50.5708
50.5708
50.5708
50.5709
50.5709
50.5708
50.5703
50.5697
50.5692
50.5689
50.5689
50.569
50.5692
50.5699
50.5715
50.5731
50.5743
50.5749
50.5751
50.5751
50.5748
50.5733
50.5713
50.5695
50.568
50.5668
50.5659
50.5652
50.5646
50.5643
50.564
50.5638
50.5637
50.5636
50.5636
50.5636
50.5636
50.5636
50.5637
50.5638
50.5638
50.5639
50.5639
50.564
50.564
50.5641
50.5641
50.5642
50.5642
50.5643
50.5643
50.5644
50.5644
50.5644
50.5645
50.5645
50.5645
50.5646
50.5646
50.5646
50.5647
50.5647
50.5647
50.5648
50.5648
50.5648
50.5649
50.5649
50.565
50.565
50.565
50.5651
50.5651
50.5652
50.5652
50.5653
50.5653
50.5654
50.5654
50.5655
50.5656
50.5656
50.5657
50.5658
50.5659
50.566
50.5664
50.5673
50.5714
50.5709
50.5014
50.5473
50.5594
50.5634
50.5645
50.5647
50.5647
50.5646
50.5644
50.5643
50.5641
50.564
50.5638
50.5636
50.5634
50.5631
50.5629
50.5625
50.5622
50.5618
50.5614
50.5609
50.5605
50.5601
50.5597
50.5593
50.5588
50.5584
50.5579
50.5574
50.5569
50.5563
50.5557
50.5551
50.5545
50.554
50.5535
50.5529
50.5524
50.5519
50.5514
50.5508
50.5502
50.5497
50.5491
50.5485
50.548
50.5475
50.5471
50.5467
50.5463
50.5459
50.5454
50.545
50.5445
50.5441
50.5436
50.5432
50.5429
50.5425
50.5423
50.5421
50.5418
50.5416
50.5414
50.5411
50.5409
50.5407
50.5405
50.5404
50.5402
50.5401
50.54
50.5398
50.5396
50.5395
50.5393
50.5391
50.5389
50.5387
50.5385