/*--------------------------------*- C++ -*----------------------------------*\
| =========                 |                                                 |
| \\      /  F ield         | OpenFOAM: The Open Source CFD Toolbox           |
|  \\    /   O peration     | Version:  3.0.x                                 |
|   \\  /    A nd           | Web:      www.OpenFOAM.org                      |
|    \\/     M anipulation  |                                                 |
\*---------------------------------------------------------------------------*/
FoamFile
{
    version     2.0;
    format      ascii;
    class       volScalarField;
    location    "0.19";
    object      T;
}
// * * * * * * * * * * * * * * * * * * * * * * * * * * * * * * * * * * * * * //

dimensions      [0 0 0 1 0 0 0];

internalField   nonuniform List<scalar> 
6900
(
774.017
774.016
774.014
774.01
774.007
774.005
774.002
773.998
773.995
773.993
773.991
773.991
773.99
773.99
773.99
773.989
773.988
773.984
773.98
773.977
773.974
773.971
773.969
773.967
773.966
773.965
773.963
773.962
773.96
773.958
773.957
773.955
773.953
773.951
773.949
773.947
773.945
773.943
773.941
773.938
773.936
773.934
773.932
773.93
773.928
773.925
773.923
773.921
773.919
773.917
773.915
773.913
773.911
773.908
773.906
773.904
773.902
773.9
773.898
773.896
773.894
773.891
773.889
773.887
773.885
773.883
773.881
773.878
773.876
773.874
773.872
773.87
773.868
773.866
773.864
773.862
773.86
773.858
773.856
773.854
773.853
773.851
773.85
773.848
773.846
773.845
773.844
773.842
773.841
773.84
773.839
773.837
773.836
773.835
773.834
773.833
773.833
773.832
773.831
773.83
773.83
773.829
773.829
773.828
773.828
773.828
773.828
773.828
773.828
773.828
773.829
773.829
773.83
773.83
773.831
773.832
773.832
773.833
773.834
773.835
773.836
773.837
773.837
773.838
773.839
773.839
773.84
773.84
773.841
773.841
773.841
773.841
773.841
773.841
773.84
773.84
773.839
773.839
773.838
773.837
773.837
773.836
773.835
773.835
773.834
773.833
773.833
773.833
773.832
773.832
773.832
773.832
773.832
773.833
773.833
773.834
773.835
773.836
773.837
773.838
773.839
773.84
773.841
773.842
773.844
773.845
773.846
773.847
773.848
773.849
773.85
773.851
773.852
773.853
773.854
773.854
773.855
773.856
773.856
773.857
773.857
773.858
773.858
773.858
773.859
773.859
773.86
773.86
773.861
773.861
773.862
773.863
773.864
773.865
773.865
773.866
773.867
773.869
773.869
773.934
774.016
774.015
774.012
774.009
774.006
774.003
774
773.997
773.994
773.992
773.99
773.989
773.989
773.989
773.988
773.988
773.986
773.983
773.979
773.976
773.973
773.97
773.968
773.966
773.965
773.964
773.962
773.961
773.959
773.958
773.956
773.954
773.952
773.95
773.948
773.946
773.944
773.942
773.94
773.938
773.935
773.933
773.931
773.929
773.927
773.924
773.922
773.92
773.918
773.916
773.914
773.912
773.91
773.908
773.905
773.903
773.901
773.899
773.897
773.895
773.893
773.891
773.888
773.886
773.884
773.882
773.88
773.878
773.875
773.873
773.871
773.869
773.867
773.865
773.863
773.861
773.859
773.857
773.855
773.854
773.852
773.85
773.849
773.847
773.846
773.844
773.843
773.841
773.84
773.839
773.838
773.836
773.835
773.834
773.833
773.833
773.832
773.831
773.83
773.829
773.829
773.828
773.828
773.828
773.827
773.827
773.827
773.827
773.827
773.828
773.828
773.828
773.829
773.829
773.83
773.831
773.832
773.832
773.833
773.834
773.835
773.836
773.837
773.837
773.838
773.839
773.839
773.839
773.84
773.84
773.84
773.84
773.84
773.84
773.839
773.839
773.838
773.838
773.837
773.837
773.836
773.835
773.834
773.834
773.833
773.833
773.832
773.832
773.831
773.831
773.831
773.831
773.832
773.832
773.832
773.833
773.834
773.835
773.836
773.837
773.838
773.839
773.84
773.842
773.843
773.844
773.845
773.846
773.847
773.848
773.849
773.85
773.851
773.852
773.853
773.853
773.854
773.855
773.855
773.856
773.856
773.857
773.857
773.858
773.858
773.858
773.859
773.859
773.86
773.861
773.861
773.862
773.863
773.864
773.864
773.865
773.866
773.868
773.868
773.928
774.016
774.015
774.012
774.009
774.006
774.003
774
773.997
773.994
773.992
773.99
773.989
773.989
773.989
773.989
773.988
773.986
773.983
773.979
773.976
773.973
773.97
773.968
773.966
773.965
773.964
773.962
773.961
773.959
773.958
773.956
773.954
773.952
773.95
773.948
773.946
773.944
773.942
773.94
773.938
773.935
773.933
773.931
773.929
773.927
773.924
773.922
773.92
773.918
773.916
773.914
773.912
773.91
773.908
773.905
773.903
773.901
773.899
773.897
773.895
773.893
773.891
773.888
773.886
773.884
773.882
773.88
773.878
773.875
773.873
773.871
773.869
773.867
773.865
773.863
773.861
773.859
773.857
773.855
773.854
773.852
773.85
773.849
773.847
773.846
773.844
773.843
773.841
773.84
773.839
773.838
773.836
773.835
773.834
773.833
773.833
773.832
773.831
773.83
773.829
773.829
773.828
773.828
773.828
773.827
773.827
773.827
773.827
773.827
773.828
773.828
773.828
773.829
773.829
773.83
773.831
773.832
773.832
773.833
773.834
773.835
773.836
773.837
773.837
773.838
773.839
773.839
773.839
773.84
773.84
773.84
773.84
773.84
773.84
773.839
773.839
773.838
773.838
773.837
773.837
773.836
773.835
773.834
773.834
773.833
773.833
773.832
773.832
773.831
773.831
773.831
773.831
773.832
773.832
773.832
773.833
773.834
773.835
773.836
773.837
773.838
773.839
773.84
773.842
773.843
773.844
773.845
773.846
773.847
773.848
773.849
773.85
773.851
773.852
773.853
773.853
773.854
773.855
773.855
773.856
773.856
773.857
773.857
773.858
773.858
773.858
773.859
773.859
773.86
773.861
773.861
773.862
773.863
773.864
773.864
773.865
773.866
773.867
773.867
773.871
774.016
774.015
774.012
774.009
774.006
774.003
774
773.997
773.994
773.992
773.99
773.989
773.989
773.989
773.988
773.988
773.986
773.983
773.979
773.976
773.973
773.97
773.968
773.966
773.965
773.964
773.962
773.961
773.959
773.958
773.956
773.954
773.952
773.95
773.948
773.946
773.944
773.942
773.94
773.938
773.935
773.933
773.931
773.929
773.927
773.924
773.922
773.92
773.918
773.916
773.914
773.912
773.91
773.908
773.905
773.903
773.901
773.899
773.897
773.895
773.893
773.891
773.888
773.886
773.884
773.882
773.88
773.878
773.875
773.873
773.871
773.869
773.867
773.865
773.863
773.861
773.859
773.857
773.855
773.854
773.852
773.85
773.849
773.847
773.846
773.844
773.843
773.841
773.84
773.839
773.838
773.836
773.835
773.834
773.833
773.833
773.832
773.831
773.83
773.829
773.829
773.828
773.828
773.828
773.827
773.827
773.827
773.827
773.827
773.828
773.828
773.828
773.829
773.829
773.83
773.831
773.832
773.832
773.833
773.834
773.835
773.836
773.837
773.837
773.838
773.839
773.839
773.839
773.84
773.84
773.84
773.84
773.84
773.84
773.839
773.839
773.838
773.838
773.837
773.837
773.836
773.835
773.834
773.834
773.833
773.833
773.832
773.832
773.831
773.831
773.831
773.831
773.832
773.832
773.832
773.833
773.834
773.835
773.836
773.837
773.838
773.839
773.84
773.842
773.843
773.844
773.845
773.846
773.847
773.848
773.849
773.85
773.851
773.852
773.853
773.853
773.854
773.855
773.855
773.856
773.856
773.857
773.857
773.858
773.858
773.858
773.859
773.859
773.86
773.861
773.861
773.862
773.863
773.863
773.864
773.865
773.866
773.865
773.869
773.755
774.017
774.016
774.014
774.01
774.007
774.005
774.002
773.998
773.995
773.993
773.991
773.991
773.99
773.99
773.99
773.989
773.988
773.984
773.98
773.977
773.974
773.971
773.969
773.967
773.966
773.965
773.963
773.962
773.96
773.958
773.957
773.955
773.953
773.951
773.949
773.947
773.945
773.943
773.941
773.938
773.936
773.934
773.932
773.93
773.928
773.925
773.923
773.921
773.919
773.917
773.915
773.913
773.911
773.908
773.906
773.904
773.902
773.9
773.898
773.896
773.894
773.891
773.889
773.887
773.885
773.883
773.881
773.878
773.876
773.874
773.872
773.87
773.868
773.866
773.864
773.862
773.86
773.858
773.856
773.854
773.853
773.851
773.85
773.848
773.846
773.845
773.844
773.842
773.841
773.84
773.839
773.837
773.836
773.835
773.834
773.833
773.833
773.832
773.831
773.83
773.83
773.829
773.829
773.828
773.828
773.828
773.828
773.828
773.828
773.828
773.829
773.829
773.83
773.83
773.831
773.832
773.832
773.833
773.834
773.835
773.836
773.837
773.837
773.838
773.839
773.839
773.84
773.84
773.841
773.841
773.841
773.841
773.841
773.841
773.84
773.84
773.839
773.839
773.838
773.837
773.837
773.836
773.835
773.835
773.834
773.833
773.833
773.833
773.832
773.832
773.832
773.832
773.832
773.833
773.833
773.834
773.835
773.836
773.837
773.838
773.839
773.84
773.841
773.842
773.844
773.845
773.846
773.847
773.848
773.849
773.85
773.851
773.852
773.853
773.854
773.854
773.855
773.856
773.856
773.857
773.857
773.858
773.858
773.858
773.859
773.859
773.86
773.86
773.861
773.861
773.862
773.863
773.864
773.864
773.865
773.866
773.867
773.865
773.877
773.675
773.92
773.933
773.931
773.931
773.928
773.925
773.92
773.918
773.921
773.927
773.913
773.892
773.88
773.863
773.82
773.801
773.806
773.819
773.839
773.753
773.908
773.911
773.91
773.905
773.902
773.896
773.889
773.884
773.885
773.891
773.875
773.847
773.843
773.83
773.787
773.746
773.748
773.76
773.78
773.739
773.871
773.871
773.868
773.864
773.859
773.853
773.847
773.839
773.83
773.823
773.817
773.814
773.81
773.802
773.792
773.784
773.777
773.771
773.764
773.766
773.805
773.806
773.812
773.81
773.803
773.79
773.776
773.755
773.742
773.719
773.703
773.692
773.672
773.653
773.643
773.628
773.617
773.605
773.599
773.59
773.756
773.737
773.733
773.734
773.733
773.728
773.718
773.704
773.69
773.677
773.661
773.651
773.634
773.626
773.613
773.609
773.6
773.601
773.606
773.631
773.616
773.576
773.571
773.542
773.542
773.559
773.56
773.55
773.545
773.547
773.552
773.552
773.552
773.553
773.554
773.555
773.555
773.556
773.557
773.559
773.56
773.561
773.561
773.561
773.561
773.558
773.559
773.563
773.563
773.564
773.564
773.564
773.565
773.567
773.57
773.572
773.575
773.584
773.633
773.864
774.279
774.492
774.519
774.41
773.99
773.612
773.436
773.386
773.389
773.425
773.471
773.498
773.513
773.521
773.525
773.527
773.528
773.529
773.529
773.529
773.529
773.529
773.528
773.528
773.527
773.527
773.526
773.526
773.525
773.524
773.523
773.522
773.521
773.52
773.519
773.518
773.516
773.515
773.513
773.512
773.51
773.508
773.507
773.505
773.503
773.501
773.499
773.497
773.496
773.494
773.492
773.49
773.489
773.487
773.485
773.484
773.482
773.481
773.48
773.478
773.477
773.476
773.475
773.474
773.473
773.472
773.471
773.47
773.469
773.469
773.468
773.467
773.466
773.465
773.464
773.463
773.462
773.461
773.46
773.459
773.458
773.456
773.455
773.454
773.452
773.45
773.449
773.447
773.445
773.443
773.441
773.439
773.437
773.435
773.433
773.43
773.428
773.426
773.424
773.421
773.419
773.417
773.415
773.413
773.411
773.409
773.408
773.406
773.404
773.403
773.401
773.4
773.399
773.397
773.396
773.395
773.394
773.393
773.392
773.391
773.39
773.389
773.388
773.387
773.386
773.385
773.384
773.383
773.381
773.38
773.379
773.378
773.377
773.376
773.375
773.374
773.372
773.371
773.37
773.369
773.368
773.367
773.365
773.364
773.363
773.362
773.361
773.36
773.359
773.359
773.358
773.358
773.357
773.357
773.357
773.357
773.357
773.354
773.359
773.195
773.591
773.585
773.579
773.553
773.558
773.577
773.576
773.566
773.562
773.565
773.569
773.569
773.569
773.57
773.571
773.573
773.574
773.576
773.578
773.58
773.581
773.582
773.582
773.583
773.584
773.587
773.59
773.594
773.592
773.589
773.589
773.588
773.589
773.591
773.592
773.594
773.596
773.607
773.663
773.85
774.035
774.107
774.106
774.021
773.794
773.625
773.54
773.507
773.501
773.503
773.51
773.518
773.522
773.525
773.527
773.528
773.529
773.529
773.529
773.529
773.528
773.528
773.528
773.527
773.527
773.526
773.526
773.525
773.524
773.523
773.522
773.521
773.52
773.519
773.518
773.517
773.516
773.514
773.513
773.511
773.509
773.508
773.506
773.504
773.502
773.5
773.498
773.497
773.495
773.493
773.491
773.489
773.488
773.486
773.484
773.483
773.481
773.48
773.479
773.477
773.476
773.475
773.474
773.473
773.472
773.471
773.47
773.469
773.469
773.468
773.467
773.466
773.465
773.464
773.463
773.463
773.462
773.46
773.459
773.458
773.457
773.456
773.454
773.453
773.451
773.45
773.448
773.446
773.444
773.442
773.44
773.438
773.436
773.434
773.432
773.43
773.427
773.425
773.423
773.421
773.419
773.416
773.414
773.412
773.411
773.409
773.407
773.405
773.403
773.402
773.4
773.399
773.398
773.397
773.395
773.394
773.393
773.392
773.391
773.39
773.389
773.388
773.387
773.386
773.385
773.384
773.383
773.382
773.381
773.38
773.378
773.377
773.376
773.375
773.374
773.373
773.372
773.37
773.369
773.368
773.367
773.366
773.365
773.363
773.362
773.361
773.36
773.359
773.359
773.358
773.357
773.357
773.356
773.356
773.356
773.356
773.356
773.354
773.354
773.262
773.774
773.777
773.791
773.802
773.808
773.808
773.806
773.806
773.807
773.809
773.81
773.811
773.813
773.815
773.819
773.823
773.826
773.828
773.83
773.832
773.835
773.839
773.843
773.846
773.848
773.849
773.848
773.838
773.798
773.73
773.671
773.627
773.598
773.58
773.572
773.569
773.569
773.57
773.573
773.574
773.573
773.567
773.556
773.547
773.541
773.538
773.537
773.537
773.537
773.536
773.535
773.535
773.534
773.533
773.532
773.531
773.531
773.53
773.53
773.529
773.529
773.528
773.528
773.527
773.527
773.526
773.526
773.525
773.524
773.523
773.522
773.522
773.52
773.519
773.518
773.517
773.516
773.514
773.513
773.511
773.509
773.508
773.506
773.504
773.502
773.5
773.498
773.497
773.495
773.493
773.491
773.489
773.488
773.486
773.484
773.483
773.481
773.48
773.479
773.477
773.476
773.475
773.474
773.473
773.472
773.471
773.47
773.469
773.469
773.468
773.467
773.466
773.465
773.464
773.463
773.463
773.462
773.46
773.459
773.458
773.457
773.456
773.454
773.453
773.451
773.45
773.448
773.446
773.444
773.442
773.44
773.438
773.436
773.434
773.432
773.43
773.427
773.425
773.423
773.421
773.419
773.416
773.414
773.412
773.411
773.409
773.407
773.405
773.403
773.402
773.4
773.399
773.398
773.397
773.395
773.394
773.393
773.392
773.391
773.39
773.389
773.388
773.387
773.386
773.385
773.384
773.383
773.382
773.381
773.38
773.378
773.377
773.376
773.375
773.374
773.373
773.372
773.37
773.369
773.368
773.367
773.366
773.365
773.363
773.362
773.361
773.36
773.359
773.359
773.358
773.357
773.357
773.356
773.356
773.356
773.356
773.356
773.356
773.357
773.36
773.568
773.563
773.557
773.556
773.558
773.559
773.557
773.557
773.557
773.559
773.56
773.56
773.56
773.561
773.561
773.561
773.562
773.562
773.563
773.563
773.563
773.564
773.564
773.564
773.565
773.566
773.569
773.571
773.572
773.574
773.577
773.58
773.585
773.598
773.612
773.62
773.625
773.637
773.674
773.728
773.755
773.759
773.75
773.699
773.619
773.565
773.535
773.522
773.518
773.518
773.52
773.524
773.526
773.527
773.528
773.529
773.529
773.529
773.529
773.529
773.528
773.528
773.528
773.527
773.527
773.526
773.526
773.525
773.524
773.523
773.522
773.521
773.52
773.519
773.518
773.517
773.516
773.514
773.513
773.511
773.509
773.508
773.506
773.504
773.502
773.5
773.498
773.497
773.495
773.493
773.491
773.489
773.488
773.486
773.484
773.483
773.481
773.48
773.479
773.477
773.476
773.475
773.474
773.473
773.472
773.471
773.47
773.469
773.469
773.468
773.467
773.466
773.465
773.464
773.463
773.463
773.462
773.46
773.459
773.458
773.457
773.456
773.454
773.453
773.451
773.45
773.448
773.446
773.444
773.442
773.44
773.438
773.436
773.434
773.432
773.43
773.427
773.425
773.423
773.421
773.419
773.416
773.414
773.412
773.411
773.409
773.407
773.405
773.403
773.402
773.4
773.399
773.398
773.397
773.395
773.394
773.393
773.392
773.391
773.39
773.389
773.388
773.387
773.386
773.385
773.384
773.383
773.382
773.381
773.38
773.378
773.377
773.376
773.375
773.374
773.373
773.372
773.37
773.369
773.368
773.367
773.366
773.365
773.363
773.362
773.361
773.36
773.359
773.359
773.358
773.357
773.357
773.356
773.356
773.356
773.356
773.356
773.358
773.36
773.408
773.677
773.679
773.675
773.672
773.674
773.674
773.674
773.673
773.674
773.676
773.676
773.676
773.676
773.676
773.675
773.675
773.676
773.676
773.677
773.677
773.677
773.678
773.679
773.68
773.682
773.684
773.687
773.688
773.688
773.69
773.696
773.707
773.712
773.713
773.709
773.706
773.71
773.759
773.962
774.197
774.308
774.329
774.299
774.148
773.939
773.788
773.687
773.623
773.584
773.561
773.548
773.541
773.537
773.534
773.533
773.532
773.531
773.531
773.531
773.53
773.53
773.529
773.529
773.528
773.528
773.527
773.526
773.526
773.525
773.524
773.523
773.522
773.521
773.52
773.519
773.518
773.516
773.515
773.513
773.512
773.51
773.508
773.507
773.505
773.503
773.501
773.499
773.497
773.496
773.494
773.492
773.49
773.489
773.487
773.485
773.484
773.482
773.481
773.48
773.478
773.477
773.476
773.475
773.474
773.473
773.472
773.471
773.47
773.469
773.469
773.468
773.467
773.466
773.465
773.464
773.463
773.462
773.461
773.46
773.459
773.458
773.456
773.455
773.454
773.452
773.45
773.449
773.447
773.445
773.443
773.441
773.439
773.437
773.435
773.433
773.43
773.428
773.426
773.424
773.421
773.419
773.417
773.415
773.413
773.411
773.409
773.408
773.406
773.404
773.403
773.401
773.4
773.399
773.397
773.396
773.395
773.394
773.393
773.392
773.391
773.39
773.389
773.388
773.387
773.386
773.385
773.384
773.383
773.381
773.38
773.379
773.378
773.377
773.376
773.375
773.374
773.372
773.371
773.37
773.369
773.368
773.367
773.365
773.364
773.363
773.362
773.361
773.36
773.359
773.359
773.358
773.358
773.357
773.357
773.357
773.357
773.357
773.358
773.361
773.413
773.254
773.235
773.23
773.231
773.23
773.225
773.212
773.204
773.187
773.178
773.161
773.152
773.136
773.129
773.117
773.113
773.104
773.103
773.107
773.129
773.299
773.299
773.304
773.303
773.296
773.283
773.266
773.253
773.232
773.221
773.202
773.184
773.169
773.155
773.139
773.131
773.122
773.112
773.105
773.092
773.36
773.36
773.358
773.354
773.349
773.343
773.337
773.328
773.323
773.316
773.312
773.306
773.297
773.288
773.282
773.276
773.27
773.265
773.27
773.282
773.396
773.399
773.397
773.394
773.39
773.385
773.383
773.384
773.38
773.361
773.354
773.347
773.319
773.282
773.275
773.285
773.298
773.303
773.272
773.121
773.407
773.42
773.419
773.419
773.416
773.414
773.413
773.415
773.414
773.399
773.391
773.381
773.353
773.331
773.33
773.337
773.349
773.356
773.321
773.17
773.181
773.182
773.179
773.18
773.181
773.179
773.178
773.178
773.18
773.181
773.181
773.181
773.181
773.181
773.181
773.181
773.181
773.181
773.181
773.18
773.18
773.179
773.18
773.181
773.183
773.184
773.184
773.184
773.184
773.185
773.187
773.196
773.204
773.207
773.206
773.201
773.199
773.207
773.278
773.512
773.725
773.815
773.825
773.782
773.61
773.412
773.273
773.181
773.124
773.089
773.07
773.059
773.053
773.051
773.05
773.049
773.05
773.05
773.051
773.051
773.051
773.052
773.052
773.053
773.053
773.053
773.053
773.053
773.053
773.053
773.053
773.053
773.052
773.052
773.052
773.051
773.051
773.05
773.05
773.049
773.048
773.048
773.047
773.046
773.046
773.045
773.044
773.044
773.043
773.043
773.043
773.042
773.042
773.042
773.042
773.042
773.043
773.039
773.044
772.884
773.075
773.067
773.065
773.067
773.068
773.066
773.064
773.065
773.068
773.069
773.069
773.069
773.069
773.069
773.07
773.07
773.07
773.07
773.07
773.069
773.068
773.068
773.067
773.067
773.068
773.069
773.07
773.07
773.07
773.071
773.073
773.076
773.08
773.087
773.1
773.111
773.117
773.122
773.136
773.18
773.23
773.252
773.254
773.242
773.186
773.112
773.065
773.04
773.03
773.028
773.029
773.032
773.037
773.04
773.043
773.045
773.046
773.048
773.049
773.05
773.05
773.051
773.051
773.052
773.052
773.052
773.052
773.052
773.052
773.052
773.052
773.052
773.052
773.051
773.051
773.051
773.05
773.049
773.049
773.048
773.048
773.047
773.046
773.045
773.045
773.044
773.044
773.043
773.043
773.042
773.042
773.042
773.042
773.042
773.042
773.042
773.042
773.039
773.039
772.949
773.261
773.267
773.294
773.306
773.308
773.307
773.308
773.31
773.312
773.313
773.314
773.315
773.316
773.319
773.321
773.323
773.325
773.327
773.328
773.328
773.329
773.331
773.335
773.339
773.342
773.343
773.342
773.339
773.326
773.281
773.217
773.163
773.124
773.098
773.084
773.077
773.074
773.074
773.076
773.078
773.078
773.076
773.068
773.058
773.051
773.047
773.045
773.045
773.045
773.046
773.047
773.047
773.048
773.048
773.048
773.048
773.049
773.049
773.05
773.05
773.051
773.051
773.051
773.052
773.052
773.052
773.052
773.052
773.052
773.052
773.052
773.052
773.052
773.051
773.051
773.051
773.05
773.05
773.049
773.048
773.048
773.047
773.046
773.045
773.045
773.044
773.044
773.043
773.043
773.042
773.042
773.042
773.042
773.042
773.042
773.042
773.042
773.042
773.043
773.046
773.082
773.084
773.074
773.067
773.085
773.091
773.078
773.07
773.073
773.08
773.081
773.079
773.079
773.079
773.08
773.081
773.082
773.083
773.084
773.085
773.086
773.085
773.084
773.084
773.085
773.089
773.092
773.091
773.087
773.085
773.083
773.083
773.084
773.089
773.094
773.097
773.099
773.103
773.118
773.188
773.387
773.548
773.604
773.596
773.495
773.268
773.114
773.039
773.012
773.008
773.012
773.022
773.031
773.036
773.04
773.043
773.045
773.047
773.048
773.049
773.05
773.051
773.051
773.052
773.052
773.052
773.052
773.052
773.052
773.052
773.052
773.052
773.052
773.051
773.051
773.051
773.05
773.05
773.049
773.048
773.048
773.047
773.046
773.045
773.045
773.044
773.044
773.043
773.043
773.042
773.042
773.042
773.042
773.042
773.042
773.042
773.042
773.044
773.046
773.093
773.086
773.08
773.067
773.054
773.069
773.076
773.064
773.053
773.055
773.061
773.064
773.062
773.061
773.062
773.063
773.063
773.062
773.062
773.064
773.065
773.066
773.065
773.065
773.063
773.06
773.06
773.064
773.064
773.064
773.063
773.061
773.061
773.061
773.062
773.067
773.071
773.074
773.078
773.089
773.147
773.397
773.781
773.965
773.982
773.864
773.451
773.103
772.943
772.9
772.904
772.941
772.985
773.012
773.027
773.036
773.041
773.045
773.047
773.048
773.05
773.051
773.051
773.052
773.052
773.053
773.053
773.053
773.053
773.053
773.053
773.053
773.053
773.052
773.052
773.052
773.051
773.051
773.05
773.05
773.049
773.048
773.048
773.047
773.046
773.046
773.045
773.044
773.044
773.043
773.043
773.043
773.043
773.042
773.042
773.042
773.043
773.043
773.044
773.047
773.098
772.94
772.921
772.915
772.917
772.916
772.911
772.898
772.889
772.872
772.863
772.846
772.837
772.821
772.814
772.802
772.798
772.789
772.788
772.792
772.813
772.985
772.985
772.99
772.988
772.982
772.969
772.952
772.939
772.917
772.906
772.888
772.869
772.854
772.84
772.824
772.815
772.807
772.796
772.789
772.777
773.047
773.046
773.044
773.04
773.035
773.029
773.023
773.014
773.008
773.002
772.998
772.992
772.983
772.974
772.968
772.962
772.956
772.951
772.954
772.967
773.083
773.086
773.084
773.08
773.077
773.071
773.069
773.07
773.07
773.049
773.04
773.034
773.01
772.969
772.959
772.968
772.981
772.987
772.962
772.811
773.094
773.107
773.105
773.105
773.103
773.101
773.1
773.102
773.104
773.088
773.078
773.069
773.042
773.017
773.015
773.021
773.032
773.042
773.01
772.859
772.866
772.868
772.864
772.865
772.866
772.864
772.863
772.864
772.866
772.867
772.867
772.867
772.868
772.868
772.869
772.869
772.869
772.869
772.868
772.868
772.867
772.867
772.867
772.867
772.868
772.87
772.871
772.871
772.871
772.875
772.885
772.894
772.897
772.896
772.892
772.892
772.906
773.003
773.257
773.438
773.503
773.502
773.435
773.235
773.053
772.927
772.846
772.795
772.766
772.749
772.74
772.735
772.733
772.732
772.732
772.732
772.732
772.733
772.733
772.733
772.734
772.734
772.734
772.735
772.735
772.735
772.735
772.735
772.735
772.735
772.735
772.735
772.735
772.735
772.735
772.734
772.734
772.733
772.733
772.733
772.732
772.732
772.731
772.731
772.73
772.73
772.73
772.729
772.729
772.729
772.728
772.728
772.728
772.728
772.728
772.728
772.728
772.728
772.728
772.728
772.728
772.728
772.728
772.728
772.728
772.729
772.729
772.729
772.729
772.729
772.729
772.73
772.73
772.73
772.73
772.73
772.73
772.73
772.73
772.729
772.729
772.729
772.729
772.729
772.729
772.728
772.728
772.728
772.728
772.727
772.727
772.727
772.727
772.726
772.726
772.726
772.726
772.726
772.726
772.726
772.726
772.726
772.726
772.726
772.726
772.726
772.726
772.727
772.727
772.727
772.727
772.727
772.727
772.727
772.728
772.728
772.728
772.727
772.727
772.727
772.727
772.727
772.727
772.726
772.726
772.726
772.726
772.725
772.725
772.725
772.724
772.724
772.724
772.724
772.723
772.723
772.723
772.722
772.722
772.722
772.722
772.722
772.721
772.721
772.721
772.721
772.722
772.722
772.722
772.722
772.723
772.723
772.724
772.724
772.725
772.725
772.726
772.728
772.73
772.783
772.758
772.751
772.75
772.752
772.753
772.751
772.749
772.75
772.753
772.754
772.754
772.754
772.755
772.755
772.756
772.756
772.756
772.756
772.756
772.756
772.755
772.755
772.754
772.754
772.754
772.755
772.757
772.757
772.758
772.761
772.763
772.767
772.776
772.791
772.802
772.807
772.814
772.833
772.883
772.923
772.936
772.935
772.912
772.842
772.777
772.738
772.72
772.713
772.712
772.714
772.718
772.722
772.724
772.726
772.728
772.729
772.73
772.731
772.732
772.732
772.733
772.733
772.733
772.734
772.734
772.734
772.735
772.735
772.735
772.735
772.735
772.734
772.734
772.734
772.734
772.733
772.733
772.733
772.732
772.732
772.731
772.731
772.73
772.73
772.73
772.729
772.729
772.728
772.728
772.728
772.728
772.727
772.727
772.727
772.727
772.727
772.727
772.727
772.727
772.727
772.727
772.727
772.727
772.727
772.728
772.728
772.728
772.728
772.728
772.728
772.729
772.729
772.729
772.729
772.729
772.729
772.729
772.729
772.729
772.729
772.729
772.728
772.728
772.728
772.728
772.728
772.727
772.727
772.727
772.727
772.726
772.726
772.726
772.726
772.725
772.725
772.725
772.725
772.725
772.725
772.725
772.725
772.725
772.725
772.725
772.725
772.726
772.726
772.726
772.726
772.726
772.726
772.726
772.727
772.727
772.727
772.727
772.727
772.727
772.726
772.726
772.726
772.726
772.726
772.725
772.725
772.725
772.724
772.724
772.724
772.724
772.723
772.723
772.723
772.722
772.722
772.722
772.722
772.721
772.721
772.721
772.721
772.721
772.721
772.721
772.721
772.721
772.721
772.721
772.722
772.722
772.722
772.723
772.723
772.724
772.725
772.725
772.727
772.729
772.778
772.947
772.952
772.98
772.99
772.993
772.992
772.992
772.995
772.997
772.997
772.998
772.999
773
773
773.002
773.004
773.008
773.01
773.012
773.014
773.018
773.022
773.026
773.03
773.031
773.031
773.029
773.017
772.973
772.908
772.853
772.814
772.788
772.773
772.766
772.763
772.763
772.764
772.765
772.764
772.761
772.751
772.742
772.735
772.732
772.73
772.73
772.73
772.731
772.731
772.731
772.731
772.731
772.731
772.731
772.731
772.732
772.732
772.732
772.733
772.733
772.733
772.734
772.734
772.734
772.734
772.735
772.735
772.735
772.735
772.735
772.734
772.734
772.734
772.734
772.733
772.733
772.733
772.732
772.732
772.731
772.731
772.73
772.73
772.73
772.729
772.729
772.728
772.728
772.728
772.728
772.727
772.727
772.727
772.727
772.727
772.727
772.727
772.727
772.727
772.727
772.727
772.727
772.727
772.728
772.728
772.728
772.728
772.728
772.728
772.729
772.729
772.729
772.729
772.729
772.729
772.729
772.729
772.729
772.729
772.729
772.728
772.728
772.728
772.728
772.728
772.727
772.727
772.727
772.727
772.726
772.726
772.726
772.726
772.725
772.725
772.725
772.725
772.725
772.725
772.725
772.725
772.725
772.725
772.725
772.725
772.726
772.726
772.726
772.726
772.726
772.726
772.726
772.727
772.727
772.727
772.727
772.727
772.727
772.726
772.726
772.726
772.726
772.726
772.725
772.725
772.725
772.724
772.724
772.724
772.724
772.723
772.723
772.723
772.722
772.722
772.722
772.722
772.721
772.721
772.721
772.721
772.721
772.721
772.721
772.721
772.721
772.721
772.721
772.722
772.722
772.722
772.723
772.723
772.724
772.724
772.725
772.726
772.726
772.729
772.768
772.77
772.758
772.752
772.77
772.773
772.761
772.755
772.759
772.764
772.765
772.763
772.763
772.764
772.765
772.765
772.766
772.766
772.768
772.769
772.77
772.77
772.77
772.771
772.775
772.779
772.782
772.782
772.777
772.775
772.774
772.775
772.778
772.781
772.783
772.785
772.79
772.813
772.918
773.127
773.251
773.281
773.254
773.101
772.889
772.766
772.711
772.695
772.694
772.7
772.71
772.717
772.721
772.724
772.727
772.728
772.73
772.731
772.731
772.732
772.733
772.733
772.733
772.734
772.734
772.734
772.734
772.735
772.735
772.735
772.735
772.734
772.734
772.734
772.734
772.733
772.733
772.733
772.732
772.732
772.731
772.731
772.73
772.73
772.73
772.729
772.729
772.728
772.728
772.728
772.728
772.727
772.727
772.727
772.727
772.727
772.727
772.727
772.727
772.727
772.727
772.727
772.727
772.727
772.728
772.728
772.728
772.728
772.728
772.728
772.729
772.729
772.729
772.729
772.729
772.729
772.729
772.729
772.729
772.729
772.729
772.728
772.728
772.728
772.728
772.728
772.727
772.727
772.727
772.727
772.726
772.726
772.726
772.726
772.725
772.725
772.725
772.725
772.725
772.725
772.725
772.725
772.725
772.725
772.725
772.725
772.726
772.726
772.726
772.726
772.726
772.726
772.726
772.727
772.727
772.727
772.727
772.727
772.727
772.726
772.726
772.726
772.726
772.726
772.725
772.725
772.725
772.724
772.724
772.724
772.724
772.723
772.723
772.723
772.722
772.722
772.722
772.722
772.721
772.721
772.721
772.721
772.721
772.721
772.721
772.721
772.721
772.721
772.721
772.721
772.722
772.722
772.723
772.723
772.724
772.724
772.725
772.723
772.723
772.63
772.771
772.766
772.751
772.739
772.755
772.759
772.747
772.739
772.741
772.747
772.749
772.747
772.747
772.747
772.748
772.748
772.749
772.749
772.751
772.752
772.752
772.752
772.751
772.75
772.748
772.748
772.752
772.753
772.752
772.752
772.751
772.751
772.754
772.758
772.761
772.763
772.767
772.785
772.88
773.213
773.543
773.657
773.64
773.425
772.982
772.713
772.606
772.586
772.6
772.646
772.682
772.703
772.715
772.721
772.725
772.728
772.73
772.731
772.732
772.733
772.733
772.734
772.734
772.735
772.735
772.735
772.735
772.735
772.735
772.735
772.735
772.735
772.735
772.735
772.735
772.734
772.734
772.733
772.733
772.733
772.732
772.732
772.731
772.731
772.73
772.73
772.73
772.729
772.729
772.729