/*--------------------------------*- C++ -*----------------------------------*\
| =========                 |                                                 |
| \\      /  F ield         | OpenFOAM: The Open Source CFD Toolbox           |
|  \\    /   O peration     | Version:  3.0.x                                 |
|   \\  /    A nd           | Web:      www.OpenFOAM.org                      |
|    \\/     M anipulation  |                                                 |
\*---------------------------------------------------------------------------*/
FoamFile
{
    version     2.0;
    format      ascii;
    class       volVectorField;
    location    "0.19";
    object      U;
}
// * * * * * * * * * * * * * * * * * * * * * * * * * * * * * * * * * * * * * //

dimensions      [0 1 -1 0 0 0 0];

internalField   nonuniform List<vector> 
6900
(
(42.6931 0.000101439 0)
(42.6785 9.28185e-05 0)
(42.6614 9.04475e-05 0)
(42.6451 9.13339e-05 0)
(42.6297 9.20867e-05 0)
(42.6146 9.25496e-05 0)
(42.5996 9.29142e-05 0)
(42.5845 9.32102e-05 0)
(42.5696 9.34424e-05 0)
(42.5549 9.36241e-05 0)
(42.5404 9.37678e-05 0)
(42.5261 9.38822e-05 0)
(42.512 9.39736e-05 0)
(42.4982 9.40447e-05 0)
(42.4846 9.40929e-05 0)
(42.4712 9.41148e-05 0)
(42.4581 9.41196e-05 0)
(42.4453 9.3975e-05 0)
(42.4327 9.37889e-05 0)
(42.4204 9.34185e-05 0)
(42.4083 9.28038e-05 0)
(42.3964 9.18595e-05 0)
(42.3847 9.04881e-05 0)
(42.3732 8.85893e-05 0)
(42.3619 8.60726e-05 0)
(42.3508 8.28691e-05 0)
(42.3399 7.8944e-05 0)
(42.329 7.43065e-05 0)
(42.3184 6.90144e-05 0)
(42.3078 6.31738e-05 0)
(42.2974 5.6932e-05 0)
(42.287 5.04656e-05 0)
(42.2767 4.39648e-05 0)
(42.2665 3.76172e-05 0)
(42.2563 3.15918e-05 0)
(42.2462 2.60269e-05 0)
(42.236 2.10224e-05 0)
(42.2259 1.6637e-05 0)
(42.2157 1.28895e-05 0)
(42.2055 9.76475e-06 0)
(42.1953 7.22064e-06 0)
(42.1851 5.19641e-06 0)
(42.1748 3.62252e-06 0)
(42.1645 2.42496e-06 0)
(42.1542 1.53237e-06 0)
(42.1439 8.78857e-07 0)
(42.1337 4.0664e-07 0)
(42.1235 7.21143e-08 0)
(42.1134 -1.40691e-07 0)
(42.1034 -2.84304e-07 0)
(42.0935 -3.79124e-07 0)
(42.0837 -4.40346e-07 0)
(42.074 -4.79111e-07 0)
(42.0645 -5.03117e-07 0)
(42.0552 -5.17636e-07 0)
(42.0461 -5.26166e-07 0)
(42.0371 -5.30991e-07 0)
(42.0283 -5.33524e-07 0)
(42.0196 -5.34715e-07 0)
(42.0112 -5.35074e-07 0)
(42.0029 -5.34847e-07 0)
(41.9947 -5.34636e-07 0)
(41.9866 -5.346e-07 0)
(41.9787 -5.34202e-07 0)
(41.9708 -5.33344e-07 0)
(41.963 -5.32095e-07 0)
(41.9552 -5.30859e-07 0)
(41.9474 -5.29823e-07 0)
(41.9397 -5.28888e-07 0)
(41.9318 -5.27719e-07 0)
(41.924 -5.26159e-07 0)
(41.916 -5.24282e-07 0)
(41.908 -5.22448e-07 0)
(41.8998 -5.20933e-07 0)
(41.8915 -5.19622e-07 0)
(41.8831 -5.18249e-07 0)
(41.8745 -5.16665e-07 0)
(41.8659 -5.1486e-07 0)
(41.8571 -5.12901e-07 0)
(41.8481 -5.10806e-07 0)
(41.8391 -5.08673e-07 0)
(41.8299 -5.06548e-07 0)
(41.8207 -5.04452e-07 0)
(41.8114 -5.02413e-07 0)
(41.8021 -5.00431e-07 0)
(41.7927 -4.98526e-07 0)
(41.7833 -4.96696e-07 0)
(41.7739 -4.9493e-07 0)
(41.7645 -4.93237e-07 0)
(41.7551 -4.91607e-07 0)
(41.7458 -4.9001e-07 0)
(41.7364 -4.88384e-07 0)
(41.7271 -4.86695e-07 0)
(41.7177 -4.84922e-07 0)
(41.7084 -4.83104e-07 0)
(41.699 -4.81276e-07 0)
(41.6895 -4.79494e-07 0)
(41.68 -4.77754e-07 0)
(41.6703 -4.76032e-07 0)
(41.6605 -4.74285e-07 0)
(41.6504 -4.72457e-07 0)
(41.6401 -4.70526e-07 0)
(41.6295 -4.68478e-07 0)
(41.6186 -4.66324e-07 0)
(41.6073 -4.64124e-07 0)
(41.5955 -4.61908e-07 0)
(41.5833 -4.60022e-07 0)
(41.5706 -4.57159e-07 0)
(41.5573 -4.5478e-07 0)
(41.5435 -4.52331e-07 0)
(41.5291 -4.50137e-07 0)
(41.5141 -4.48084e-07 0)
(41.4984 -4.4602e-07 0)
(41.4822 -4.44117e-07 0)
(41.4653 -4.42191e-07 0)
(41.4479 -4.40691e-07 0)
(41.43 -4.39542e-07 0)
(41.4115 -4.3856e-07 0)
(41.3926 -4.37794e-07 0)
(41.3734 -4.37218e-07 0)
(41.3538 -4.36855e-07 0)
(41.334 -4.36691e-07 0)
(41.314 -4.3761e-07 0)
(41.294 -4.37209e-07 0)
(41.274 -4.38506e-07 0)
(41.254 -4.39351e-07 0)
(41.2342 -4.40232e-07 0)
(41.2146 -4.41605e-07 0)
(41.1953 -4.43757e-07 0)
(41.1763 -4.44499e-07 0)
(41.1576 -4.45573e-07 0)
(41.1393 -4.47836e-07 0)
(41.1214 -4.52745e-07 0)
(41.104 -4.54454e-07 0)
(41.0871 -4.55625e-07 0)
(41.0706 -4.56465e-07 0)
(41.0545 -4.57358e-07 0)
(41.039 -4.58073e-07 0)
(41.0238 -4.59078e-07 0)
(41.0091 -4.59511e-07 0)
(40.9948 -4.59984e-07 0)
(40.9808 -4.59937e-07 0)
(40.9671 -4.59567e-07 0)
(40.9537 -4.58428e-07 0)
(40.9405 -4.56997e-07 0)
(40.9275 -4.55238e-07 0)
(40.9146 -4.53127e-07 0)
(40.9017 -4.50857e-07 0)
(40.8889 -4.48244e-07 0)
(40.876 -4.45784e-07 0)
(40.8632 -4.46054e-07 0)
(40.8502 -4.36872e-07 0)
(40.8371 -4.34103e-07 0)
(40.824 -4.33261e-07 0)
(40.8108 -4.30588e-07 0)
(40.7976 -4.28074e-07 0)
(40.7845 -4.25915e-07 0)
(40.7714 -4.24051e-07 0)
(40.7585 -4.22431e-07 0)
(40.7458 -4.21102e-07 0)
(40.7334 -4.20034e-07 0)
(40.7213 -4.1949e-07 0)
(40.7096 -4.19293e-07 0)
(40.6984 -4.19798e-07 0)
(40.6877 -4.20456e-07 0)
(40.6775 -4.21771e-07 0)
(40.6678 -4.22896e-07 0)
(40.6586 -4.24556e-07 0)
(40.65 -4.25912e-07 0)
(40.6419 -4.27577e-07 0)
(40.6342 -4.29098e-07 0)
(40.627 -4.3073e-07 0)
(40.6204 -4.32423e-07 0)
(40.6142 -4.34339e-07 0)
(40.6084 -4.36243e-07 0)
(40.6032 -4.3853e-07 0)
(40.5984 -4.40818e-07 0)
(40.5941 -4.43288e-07 0)
(40.5903 -4.45718e-07 0)
(40.5868 -4.48099e-07 0)
(40.5837 -4.50327e-07 0)
(40.5809 -4.52301e-07 0)
(40.5782 -4.53943e-07 0)
(40.5757 -4.55237e-07 0)
(40.5732 -4.56112e-07 0)
(40.5707 -4.56836e-07 0)
(40.568 -4.57139e-07 0)
(40.5652 -4.57372e-07 0)
(40.5621 -4.5731e-07 0)
(40.5588 -4.57142e-07 0)
(40.5552 -4.54794e-07 0)
(40.5514 -4.39523e-07 0)
(40.5474 -3.67204e-07 0)
(40.5432 2.32422e-07 0)
(40.5389 4.55682e-06 0)
(40.5338 3.5024e-05 0)
(40.5242 0.000248124 0)
(40.4825 0.0017509 0)
(40.3086 0.0158422 0)
(37.8941 0.0815781 0)
(42.6949 0.000128619 0)
(42.6821 9.89656e-05 0)
(42.6668 8.67345e-05 0)
(42.6522 8.5986e-05 0)
(42.6386 8.59243e-05 0)
(42.6254 8.55709e-05 0)
(42.6121 8.5331e-05 0)
(42.5989 8.51982e-05 0)
(42.5858 8.51088e-05 0)
(42.5729 8.50441e-05 0)
(42.5602 8.49985e-05 0)
(42.5477 8.49668e-05 0)
(42.5354 8.49451e-05 0)
(42.5234 8.49287e-05 0)
(42.5116 8.49097e-05 0)
(42.5001 8.48849e-05 0)
(42.4887 8.48723e-05 0)
(42.4777 8.46827e-05 0)
(42.467 8.4515e-05 0)
(42.4564 8.41767e-05 0)
(42.4461 8.36227e-05 0)
(42.436 8.27785e-05 0)
(42.4261 8.15552e-05 0)
(42.4163 7.98617e-05 0)
(42.4067 7.76151e-05 0)
(42.3972 7.47518e-05 0)
(42.3878 7.12383e-05 0)
(42.3784 6.70813e-05 0)
(42.3691 6.23311e-05 0)
(42.3598 5.70816e-05 0)
(42.3505 5.14647e-05 0)
(42.3412 4.56389e-05 0)
(42.3319 3.97758e-05 0)
(42.3224 3.4045e-05 0)
(42.3129 2.86e-05 0)
(42.3033 2.35667e-05 0)
(42.2936 1.90365e-05 0)
(42.2838 1.50635e-05 0)
(42.2739 1.16659e-05 0)
(42.2639 8.83088e-06 0)
(42.2539 6.52122e-06 0)
(42.2437 4.68244e-06 0)
(42.2336 3.25305e-06 0)
(42.2233 2.16606e-06 0)
(42.2131 1.35722e-06 0)
(42.2028 7.68253e-07 0)
(42.1926 3.49291e-07 0)
(42.1824 5.6407e-08 0)
(42.1723 -1.44974e-07 0)
(42.1623 -2.82149e-07 0)
(42.1523 -3.71528e-07 0)
(42.1425 -4.28806e-07 0)
(42.1329 -4.64865e-07 0)
(42.1234 -4.87048e-07 0)
(42.114 -5.00357e-07 0)
(42.1049 -5.08105e-07 0)
(42.0959 -5.12424e-07 0)
(42.0871 -5.14647e-07 0)
(42.0784 -5.15646e-07 0)
(42.0699 -5.15879e-07 0)
(42.0616 -5.15573e-07 0)
(42.0534 -5.15391e-07 0)
(42.0454 -5.15395e-07 0)
(42.0374 -5.14864e-07 0)
(42.0295 -5.13771e-07 0)
(42.0217 -5.12255e-07 0)
(42.0139 -5.10776e-07 0)
(42.0061 -5.09479e-07 0)
(41.9983 -5.08189e-07 0)
(41.9905 -5.06515e-07 0)
(41.9826 -5.04306e-07 0)
(41.9746 -5.01691e-07 0)
(41.9666 -4.99095e-07 0)
(41.9584 -4.96782e-07 0)
(41.9501 -4.94585e-07 0)
(41.9417 -4.92221e-07 0)
(41.9331 -4.8958e-07 0)
(41.9244 -4.86691e-07 0)
(41.9156 -4.83624e-07 0)
(41.9067 -4.8045e-07 0)
(41.8976 -4.7725e-07 0)
(41.8885 -4.74073e-07 0)
(41.8792 -4.70945e-07 0)
(41.8699 -4.67896e-07 0)
(41.8606 -4.64926e-07 0)
(41.8512 -4.62055e-07 0)
(41.8418 -4.59301e-07 0)
(41.8324 -4.56626e-07 0)
(41.823 -4.54048e-07 0)
(41.8136 -4.51533e-07 0)
(41.8042 -4.49074e-07 0)
(41.7948 -4.46589e-07 0)
(41.7855 -4.44043e-07 0)
(41.7761 -4.41408e-07 0)
(41.7668 -4.38724e-07 0)
(41.7574 -4.36019e-07 0)
(41.7479 -4.33336e-07 0)
(41.7383 -4.30667e-07 0)
(41.7287 -4.27984e-07 0)
(41.7188 -4.25241e-07 0)
(41.7087 -4.2239e-07 0)
(41.6984 -4.19412e-07 0)
(41.6878 -4.16298e-07 0)
(41.6769 -4.13063e-07 0)
(41.6656 -4.09764e-07 0)
(41.6538 -4.06455e-07 0)
(41.6416 -4.03715e-07 0)
(41.6289 -3.9953e-07 0)
(41.6156 -3.95929e-07 0)
(41.6018 -3.92444e-07 0)
(41.5873 -3.89285e-07 0)
(41.5723 -3.86388e-07 0)
(41.5566 -3.83569e-07 0)
(41.5404 -3.81095e-07 0)
(41.5235 -3.78627e-07 0)
(41.5061 -3.76875e-07 0)
(41.4881 -3.75745e-07 0)
(41.4697 -3.74933e-07 0)
(41.4508 -3.74591e-07 0)
(41.4315 -3.74728e-07 0)
(41.4119 -3.75385e-07 0)
(41.3921 -3.76472e-07 0)
(41.3722 -3.79385e-07 0)
(41.3521 -3.80158e-07 0)
(41.3321 -3.8385e-07 0)
(41.3121 -3.86634e-07 0)
(41.2923 -3.89676e-07 0)
(41.2727 -3.93587e-07 0)
(41.2533 -3.98431e-07 0)
(41.2343 -4.00886e-07 0)
(41.2156 -4.04459e-07 0)
(41.1973 -4.09928e-07 0)
(41.1794 -4.19129e-07 0)
(41.162 -4.22918e-07 0)
(41.1451 -4.26025e-07 0)
(41.1286 -4.28963e-07 0)
(41.1125 -4.31984e-07 0)
(41.0969 -4.34618e-07 0)
(41.0818 -4.37568e-07 0)
(41.067 -4.39464e-07 0)
(41.0527 -4.41308e-07 0)
(41.0387 -4.42249e-07 0)
(41.025 -4.42631e-07 0)
(41.0116 -4.41796e-07 0)
(40.9984 -4.40422e-07 0)
(40.9854 -4.38413e-07 0)
(40.9724 -4.35671e-07 0)
(40.9596 -4.3251e-07 0)
(40.9467 -4.28677e-07 0)
(40.9339 -4.25107e-07 0)
(40.921 -4.25741e-07 0)
(40.9081 -4.10481e-07 0)
(40.8949 -4.05987e-07 0)
(40.8818 -4.04713e-07 0)
(40.8686 -4.00095e-07 0)
(40.8554 -3.95608e-07 0)
(40.8422 -3.91723e-07 0)
(40.8292 -3.88371e-07 0)
(40.8162 -3.85507e-07 0)
(40.8035 -3.8325e-07 0)
(40.7911 -3.81536e-07 0)
(40.779 -3.80687e-07 0)
(40.7673 -3.80343e-07 0)
(40.7561 -3.81039e-07 0)
(40.7454 -3.81838e-07 0)
(40.7352 -3.83668e-07 0)
(40.7255 -3.85061e-07 0)
(40.7163 -3.87422e-07 0)
(40.7076 -3.89103e-07 0)
(40.6995 -3.91533e-07 0)
(40.6918 -3.93427e-07 0)
(40.6847 -3.95869e-07 0)
(40.678 -3.97971e-07 0)
(40.6718 -4.00756e-07 0)
(40.666 -4.03031e-07 0)
(40.6608 -4.06199e-07 0)
(40.656 -4.08785e-07 0)
(40.6517 -4.11854e-07 0)
(40.6478 -4.1469e-07 0)
(40.6443 -4.17364e-07 0)
(40.6412 -4.19765e-07 0)
(40.6384 -4.21755e-07 0)
(40.6357 -4.23113e-07 0)
(40.6332 -4.24041e-07 0)
(40.6307 -4.2407e-07 0)
(40.6282 -4.24043e-07 0)
(40.6255 -4.22934e-07 0)
(40.6226 -4.21976e-07 0)
(40.6195 -4.1999e-07 0)
(40.6162 -4.17323e-07 0)
(40.6127 -4.05296e-07 0)
(40.6088 -3.22901e-07 0)
(40.6048 2.34634e-07 0)
(40.6006 4.02791e-06 0)
(40.5962 3.0425e-05 0)
(40.5912 0.000214787 0)
(40.5817 0.00149829 0)
(40.5411 0.0103843 0)
(40.3721 0.0746325 0)
(38.5068 0.352396 0)
(42.6949 1.34134e-12 0)
(42.682 4.69129e-13 0)
(42.6667 -1.57314e-12 0)
(42.6522 -6.93559e-13 0)
(42.6386 -8.659e-13 0)
(42.6254 -2.9116e-12 0)
(42.6121 -6.59381e-12 0)
(42.5989 -8.81734e-12 0)
(42.5858 -9.1078e-12 0)
(42.5729 -8.74081e-12 0)
(42.5602 -8.67914e-12 0)
(42.5477 -1.02214e-11 0)
(42.5354 -1.04322e-11 0)
(42.5234 -1.18943e-11 0)
(42.5116 -1.35674e-11 0)
(42.5 -1.53489e-11 0)
(42.4887 -1.56799e-11 0)
(42.4777 -1.69613e-11 0)
(42.4669 -1.6455e-11 0)
(42.4564 -1.74135e-11 0)
(42.4461 -1.82077e-11 0)
(42.436 -1.8304e-11 0)
(42.426 -1.65742e-11 0)
(42.4163 -1.40186e-11 0)
(42.4067 -1.31588e-11 0)
(42.3972 -1.38608e-11 0)
(42.3878 -1.42064e-11 0)
(42.3784 -1.53136e-11 0)
(42.3691 -1.60466e-11 0)
(42.3598 -1.74415e-11 0)
(42.3505 -1.70329e-11 0)
(42.3412 -1.67864e-11 0)
(42.3319 -1.73658e-11 0)
(42.3224 -1.78156e-11 0)
(42.3129 -1.87362e-11 0)
(42.3033 -1.80733e-11 0)
(42.2936 -1.76864e-11 0)
(42.2838 -1.69186e-11 0)
(42.2739 -1.71534e-11 0)
(42.2639 -1.76567e-11 0)
(42.2539 -1.72658e-11 0)
(42.2438 -1.63377e-11 0)
(42.2336 -1.29837e-11 0)
(42.2233 -1.00516e-11 0)
(42.2131 -7.08631e-12 0)
(42.2028 -4.57691e-12 0)
(42.1926 -4.54291e-12 0)
(42.1824 -2.12596e-12 0)
(42.1723 3.85645e-13 0)
(42.1623 3.02584e-12 0)
(42.1523 3.71513e-12 0)
(42.1425 4.7239e-12 0)
(42.1329 5.3087e-12 0)
(42.1234 3.94468e-12 0)
(42.114 4.29278e-12 0)
(42.1049 4.58019e-12 0)
(42.0959 5.39726e-12 0)
(42.0871 5.65386e-12 0)
(42.0784 6.38835e-12 0)
(42.07 5.2405e-12 0)
(42.0616 5.59912e-12 0)
(42.0534 7.14425e-12 0)
(42.0454 6.75989e-12 0)
(42.0374 5.51403e-12 0)
(42.0295 4.9347e-12 0)
(42.0217 5.00565e-12 0)
(42.0139 3.96923e-12 0)
(42.0061 3.63555e-12 0)
(41.9983 3.51795e-12 0)
(41.9905 2.58071e-12 0)
(41.9826 1.07417e-12 0)
(41.9747 2.1675e-12 0)
(41.9666 3.13464e-12 0)
(41.9584 3.62404e-12 0)
(41.9501 2.53854e-12 0)
(41.9417 6.0796e-13 0)
(41.9331 2.12914e-13 0)
(41.9244 1.47348e-14 0)
(41.9156 -1.88993e-12 0)
(41.9067 -5.71779e-12 0)
(41.8976 -9.69111e-12 0)
(41.8885 -1.06183e-11 0)
(41.8792 -1.03048e-11 0)
(41.8699 -1.28817e-11 0)
(41.8606 -1.51648e-11 0)
(41.8512 -1.86208e-11 0)
(41.8418 -1.95279e-11 0)
(41.8324 -1.81686e-11 0)
(41.823 -1.59629e-11 0)
(41.8136 -1.47352e-11 0)
(41.8042 -1.38876e-11 0)
(41.7948 -1.47513e-11 0)
(41.7855 -1.64832e-11 0)
(41.7761 -1.89684e-11 0)
(41.7668 -2.15295e-11 0)
(41.7574 -2.16411e-11 0)
(41.7479 -2.19705e-11 0)
(41.7384 -2.16495e-11 0)
(41.7287 -1.94568e-11 0)
(41.7188 -1.76914e-11 0)
(41.7088 -1.54128e-11 0)
(41.6984 -1.44033e-11 0)
(41.6878 -1.42649e-11 0)
(41.6769 -1.41905e-11 0)
(41.6656 -1.30525e-11 0)
(41.6538 -1.33443e-11 0)
(41.6416 -1.21056e-11 0)
(41.6289 -1.07358e-11 0)
(41.6156 -8.02284e-12 0)
(41.6018 -3.56122e-12 0)
(41.5873 2.98432e-12 0)
(41.5723 6.62401e-12 0)
(41.5566 8.19031e-12 0)
(41.5404 1.08422e-11 0)
(41.5235 1.10879e-11 0)
(41.5061 1.00512e-11 0)
(41.4881 1.08234e-11 0)
(41.4697 1.15496e-11 0)
(41.4508 1.18654e-11 0)
(41.4315 1.1667e-11 0)
(41.4119 1.20298e-11 0)
(41.3921 1.22666e-11 0)
(41.3722 1.28946e-11 0)
(41.3521 1.14371e-11 0)
(41.3321 1.00838e-11 0)
(41.3121 8.59527e-12 0)
(41.2923 7.12155e-12 0)
(41.2727 6.33256e-12 0)
(41.2533 5.68049e-12 0)
(41.2343 5.59647e-12 0)
(41.2156 5.92164e-12 0)
(41.1973 5.85911e-12 0)
(41.1794 5.78798e-12 0)
(41.162 5.53236e-12 0)
(41.1451 4.34938e-12 0)
(41.1286 4.19472e-12 0)
(41.1125 4.34568e-12 0)
(41.0969 5.13802e-12 0)
(41.0818 5.44893e-12 0)
(41.0671 4.11285e-12 0)
(41.0527 4.95122e-12 0)
(41.0387 4.70395e-12 0)
(41.025 2.83465e-12 0)
(41.0116 1.67399e-12 0)
(40.9984 8.53812e-13 0)
(40.9854 1.25397e-12 0)
(40.9724 2.15578e-12 0)
(40.9596 3.17109e-12 0)
(40.9467 6.74208e-12 0)
(40.9339 1.00496e-11 0)
(40.921 1.13406e-11 0)
(40.9081 5.13238e-12 0)
(40.8949 1.09054e-11 0)
(40.8818 3.8103e-12 0)
(40.8686 -1.59e-12 0)
(40.8554 -4.91688e-12 0)
(40.8422 -6.64414e-12 0)
(40.8292 -9.20074e-12 0)
(40.8162 -4.16697e-12 0)
(40.8035 -1.31959e-11 0)
(40.7911 8.36331e-12 0)
(40.779 -2.3504e-11 0)
(40.7674 3.51946e-11 0)
(40.7561 -5.33305e-11 0)
(40.7454 7.65054e-11 0)
(40.7352 -1.02313e-10 0)
(40.7255 1.40886e-10 0)
(40.7163 -1.68562e-10 0)
(40.7076 2.13068e-10 0)
(40.6995 -2.69286e-10 0)
(40.6918 2.84649e-10 0)
(40.6847 -4.8943e-10 0)
(40.678 3.67122e-10 0)
(40.6718 -7.43636e-10 0)
(40.666 3.83069e-10 0)
(40.6608 -9.26986e-10 0)
(40.656 1.1711e-10 0)
(40.6517 -5.67117e-10 0)
(40.6478 2.94835e-11 0)
(40.6443 -4.63573e-10 0)
(40.6412 -3.22096e-10 0)
(40.6384 -8.54356e-10 0)
(40.6357 -4.6925e-10 0)
(40.6332 -1.00681e-09 0)
(40.6307 -6.21581e-10 0)
(40.6282 -1.38712e-09 0)
(40.6255 -6.00617e-10 0)
(40.6226 -1.28605e-09 0)
(40.6196 -4.23034e-10 0)
(40.6162 9.72015e-10 0)
(40.6127 1.88931e-08 0)
(40.6088 1.60006e-07 0)
(40.6048 1.22775e-06 0)
(40.6006 8.74252e-06 0)
(40.5964 6.17877e-05 0)
(40.5921 0.000437283 0)
(40.5877 0.00309104 0)
(40.5818 0.0217365 0)
(40.5621 0.152993 0)
(40.4178 0.69571 0)
(42.6949 -0.000128619 0)
(42.6821 -9.89656e-05 0)
(42.6668 -8.67345e-05 0)
(42.6522 -8.5986e-05 0)
(42.6386 -8.59243e-05 0)
(42.6254 -8.55709e-05 0)
(42.6121 -8.5331e-05 0)
(42.5989 -8.51982e-05 0)
(42.5858 -8.51088e-05 0)
(42.5729 -8.50441e-05 0)
(42.5602 -8.49985e-05 0)
(42.5477 -8.49668e-05 0)
(42.5354 -8.49451e-05 0)
(42.5234 -8.49287e-05 0)
(42.5116 -8.49097e-05 0)
(42.5001 -8.48849e-05 0)
(42.4887 -8.48723e-05 0)
(42.4777 -8.46827e-05 0)
(42.467 -8.4515e-05 0)
(42.4564 -8.41767e-05 0)
(42.4461 -8.36227e-05 0)
(42.436 -8.27785e-05 0)
(42.4261 -8.15552e-05 0)
(42.4163 -7.98617e-05 0)
(42.4067 -7.76151e-05 0)
(42.3972 -7.47518e-05 0)
(42.3878 -7.12383e-05 0)
(42.3784 -6.70813e-05 0)
(42.3691 -6.2331e-05 0)
(42.3598 -5.70816e-05 0)
(42.3505 -5.14647e-05 0)
(42.3412 -4.56389e-05 0)
(42.3319 -3.97758e-05 0)
(42.3224 -3.4045e-05 0)
(42.3129 -2.86e-05 0)
(42.3033 -2.35667e-05 0)
(42.2936 -1.90365e-05 0)
(42.2838 -1.50635e-05 0)
(42.2739 -1.16659e-05 0)
(42.2639 -8.83087e-06 0)
(42.2539 -6.52122e-06 0)
(42.2437 -4.68244e-06 0)
(42.2336 -3.25306e-06 0)
(42.2233 -2.16606e-06 0)
(42.2131 -1.35722e-06 0)
(42.2028 -7.68252e-07 0)
(42.1926 -3.49288e-07 0)
(42.1824 -5.64058e-08 0)
(42.1723 1.44978e-07 0)
(42.1623 2.82152e-07 0)
(42.1523 3.71528e-07 0)
(42.1425 4.28804e-07 0)
(42.1329 4.64865e-07 0)
(42.1234 4.87048e-07 0)
(42.114 5.00358e-07 0)
(42.1049 5.08106e-07 0)
(42.0959 5.12424e-07 0)
(42.0871 5.14643e-07 0)
(42.0784 5.15643e-07 0)
(42.0699 5.1588e-07 0)
(42.0616 5.15573e-07 0)
(42.0534 5.1539e-07 0)
(42.0454 5.15395e-07 0)
(42.0374 5.14862e-07 0)
(42.0295 5.1377e-07 0)
(42.0217 5.12255e-07 0)
(42.0139 5.10773e-07 0)
(42.0061 5.09479e-07 0)
(41.9983 5.08187e-07 0)
(41.9905 5.06514e-07 0)
(41.9826 5.04306e-07 0)
(41.9746 5.01689e-07 0)
(41.9666 4.9909e-07 0)
(41.9584 4.9678e-07 0)
(41.9501 4.94584e-07 0)
(41.9417 4.92222e-07 0)
(41.9331 4.89581e-07 0)
(41.9244 4.86692e-07 0)
(41.9156 4.83625e-07 0)
(41.9067 4.80455e-07 0)
(41.8976 4.77256e-07 0)
(41.8885 4.74074e-07 0)
(41.8792 4.70945e-07 0)
(41.8699 4.67895e-07 0)
(41.8606 4.64927e-07 0)
(41.8512 4.6206e-07 0)
(41.8418 4.59303e-07 0)
(41.8324 4.56627e-07 0)
(41.823 4.54049e-07 0)
(41.8136 4.51538e-07 0)
(41.8042 4.49074e-07 0)
(41.7948 4.4659e-07 0)
(41.7855 4.44046e-07 0)
(41.7761 4.41414e-07 0)
(41.7668 4.38728e-07 0)
(41.7574 4.36025e-07 0)
(41.7479 4.33342e-07 0)
(41.7383 4.30669e-07 0)
(41.7287 4.27988e-07 0)
(41.7188 4.25244e-07 0)
(41.7087 4.22393e-07 0)
(41.6984 4.19417e-07 0)
(41.6878 4.16303e-07 0)
(41.6769 4.13064e-07 0)
(41.6656 4.09767e-07 0)
(41.6538 4.06457e-07 0)
(41.6416 4.03719e-07 0)
(41.6289 3.99533e-07 0)
(41.6156 3.95931e-07 0)
(41.6018 3.92441e-07 0)
(41.5873 3.8928e-07 0)
(41.5723 3.86383e-07 0)
(41.5566 3.83564e-07 0)
(41.5404 3.81093e-07 0)
(41.5235 3.78629e-07 0)
(41.5061 3.76873e-07 0)
(41.4881 3.75741e-07 0)
(41.4697 3.74931e-07 0)
(41.4508 3.74588e-07 0)
(41.4315 3.74723e-07 0)
(41.4119 3.75384e-07 0)
(41.3921 3.76468e-07 0)
(41.3722 3.79382e-07 0)
(41.3521 3.80156e-07 0)
(41.3321 3.83847e-07 0)
(41.3121 3.86634e-07 0)
(41.2923 3.89673e-07 0)
(41.2727 3.93586e-07 0)
(41.2533 3.98431e-07 0)
(41.2343 4.00886e-07 0)
(41.2156 4.0446e-07 0)
(41.1973 4.0993e-07 0)
(41.1794 4.1913e-07 0)
(41.162 4.22921e-07 0)
(41.1451 4.26033e-07 0)
(41.1286 4.28964e-07 0)
(41.1125 4.31985e-07 0)
(41.0969 4.34618e-07 0)
(41.0818 4.3757e-07 0)
(41.067 4.39464e-07 0)
(41.0527 4.41311e-07 0)
(41.0387 4.42248e-07 0)
(41.025 4.42632e-07 0)
(41.0116 4.41797e-07 0)
(40.9984 4.4042e-07 0)
(40.9854 4.38413e-07 0)
(40.9724 4.35671e-07 0)
(40.9596 4.3251e-07 0)
(40.9467 4.28675e-07 0)
(40.9339 4.25102e-07 0)
(40.921 4.2574e-07 0)
(40.9081 4.10464e-07 0)
(40.8949 4.05994e-07 0)
(40.8818 4.04717e-07 0)
(40.8686 4.00095e-07 0)
(40.8554 3.95612e-07 0)
(40.8422 3.91726e-07 0)
(40.8292 3.88366e-07 0)
(40.8162 3.8552e-07 0)
(40.8035 3.83233e-07 0)
(40.7911 3.81567e-07 0)
(40.779 3.8063e-07 0)
(40.7673 3.80427e-07 0)
(40.7561 3.80918e-07 0)
(40.7454 3.82002e-07 0)
(40.7352 3.83452e-07 0)
(40.7255 3.85317e-07 0)
(40.7163 3.87129e-07 0)
(40.7076 3.89418e-07 0)
(40.6995 3.91165e-07 0)
(40.6918 3.93819e-07 0)
(40.6847 3.95332e-07 0)
(40.678 3.98568e-07 0)
(40.6718 3.99933e-07 0)
(40.666 4.03812e-07 0)
(40.6608 4.05253e-07 0)
(40.656 4.09269e-07 0)
(40.6517 4.11353e-07 0)
(40.6478 4.1499e-07 0)
(40.6443 4.17026e-07 0)
(40.6412 4.19782e-07 0)
(40.6384 4.21245e-07 0)
(40.6357 4.2315e-07 0)
(40.6332 4.23472e-07 0)
(40.6307 4.24167e-07 0)
(40.6282 4.23107e-07 0)
(40.6255 4.23031e-07 0)
(40.6226 4.21198e-07 0)
(40.6195 4.20457e-07 0)
(40.6162 4.19508e-07 0)
(40.6127 4.30471e-07 0)
(40.6088 5.2274e-07 0)
(40.6048 1.22945e-06 0)
(40.6007 6.36446e-06 0)
(40.5965 4.2908e-05 0)
(40.5933 0.000304538 0)
(40.5967 0.00218058 0)
(40.6461 0.0157673 0)
(40.8374 0.129219 0)
(43.8053 0.540456 0)
(42.6931 -0.000101439 0)
(42.6785 -9.28185e-05 0)
(42.6614 -9.04475e-05 0)
(42.6451 -9.13339e-05 0)
(42.6297 -9.20867e-05 0)
(42.6146 -9.25496e-05 0)
(42.5996 -9.29142e-05 0)
(42.5845 -9.32102e-05 0)
(42.5696 -9.34424e-05 0)
(42.5549 -9.36241e-05 0)
(42.5404 -9.37678e-05 0)
(42.5261 -9.38822e-05 0)
(42.512 -9.39736e-05 0)
(42.4982 -9.40447e-05 0)
(42.4846 -9.40929e-05 0)
(42.4712 -9.41148e-05 0)
(42.4581 -9.41196e-05 0)
(42.4453 -9.3975e-05 0)
(42.4327 -9.37889e-05 0)
(42.4204 -9.34185e-05 0)
(42.4083 -9.28038e-05 0)
(42.3964 -9.18595e-05 0)
(42.3847 -9.04881e-05 0)
(42.3732 -8.85893e-05 0)
(42.3619 -8.60726e-05 0)
(42.3508 -8.28691e-05 0)
(42.3399 -7.8944e-05 0)
(42.329 -7.43065e-05 0)
(42.3184 -6.90144e-05 0)
(42.3078 -6.31738e-05 0)
(42.2974 -5.6932e-05 0)
(42.287 -5.04656e-05 0)
(42.2767 -4.39648e-05 0)
(42.2665 -3.76172e-05 0)
(42.2563 -3.15918e-05 0)
(42.2462 -2.60269e-05 0)
(42.236 -2.10224e-05 0)
(42.2259 -1.6637e-05 0)
(42.2157 -1.28895e-05 0)
(42.2055 -9.76475e-06 0)
(42.1953 -7.22064e-06 0)
(42.1851 -5.19641e-06 0)
(42.1748 -3.62252e-06 0)
(42.1645 -2.42496e-06 0)
(42.1542 -1.53237e-06 0)
(42.1439 -8.78859e-07 0)
(42.1337 -4.0664e-07 0)
(42.1235 -7.21171e-08 0)
(42.1134 1.40692e-07 0)
(42.1034 2.84306e-07 0)
(42.0935 3.7912e-07 0)
(42.0837 4.40344e-07 0)
(42.074 4.7911e-07 0)
(42.0645 5.03116e-07 0)
(42.0552 5.17636e-07 0)
(42.0461 5.26165e-07 0)
(42.0371 5.30986e-07 0)
(42.0283 5.33525e-07 0)
(42.0196 5.34718e-07 0)
(42.0112 5.35073e-07 0)
(42.0029 5.34846e-07 0)
(41.9947 5.34634e-07 0)
(41.9866 5.34598e-07 0)
(41.9787 5.34204e-07 0)
(41.9708 5.33344e-07 0)
(41.963 5.32096e-07 0)
(41.9552 5.3086e-07 0)
(41.9474 5.29821e-07 0)
(41.9397 5.28889e-07 0)
(41.9318 5.27721e-07 0)
(41.924 5.26165e-07 0)
(41.916 5.24283e-07 0)
(41.908 5.22454e-07 0)
(41.8998 5.20934e-07 0)
(41.8915 5.19624e-07 0)
(41.8831 5.18249e-07 0)
(41.8745 5.16664e-07 0)
(41.8659 5.14859e-07 0)
(41.8571 5.12884e-07 0)
(41.8481 5.10796e-07 0)
(41.8391 5.08667e-07 0)
(41.8299 5.06546e-07 0)
(41.8207 5.04451e-07 0)
(41.8114 5.02413e-07 0)
(41.8021 5.00429e-07 0)
(41.7927 4.98517e-07 0)
(41.7833 4.96693e-07 0)
(41.7739 4.94929e-07 0)
(41.7645 4.93235e-07 0)
(41.7551 4.91606e-07 0)
(41.7458 4.90006e-07 0)
(41.7364 4.88382e-07 0)
(41.7271 4.86689e-07 0)
(41.7177 4.84917e-07 0)
(41.7084 4.83102e-07 0)
(41.699 4.81269e-07 0)
(41.6895 4.79488e-07 0)
(41.68 4.77751e-07 0)
(41.6703 4.76033e-07 0)
(41.6605 4.74282e-07 0)
(41.6504 4.72455e-07 0)
(41.6401 4.70522e-07 0)
(41.6295 4.68479e-07 0)
(41.6186 4.66325e-07 0)
(41.6073 4.64122e-07 0)
(41.5955 4.619e-07 0)
(41.5833 4.60014e-07 0)
(41.5706 4.57156e-07 0)
(41.5573 4.54778e-07 0)
(41.5435 4.5235e-07 0)
(41.5291 4.50147e-07 0)
(41.5141 4.48088e-07 0)
(41.4984 4.46022e-07 0)
(41.4822 4.44119e-07 0)
(41.4653 4.4219e-07 0)
(41.4479 4.40694e-07 0)
(41.43 4.39542e-07 0)
(41.4115 4.38561e-07 0)
(41.3926 4.37796e-07 0)
(41.3734 4.37218e-07 0)
(41.3538 4.36855e-07 0)
(41.334 4.36694e-07 0)
(41.314 4.37614e-07 0)
(41.294 4.37211e-07 0)
(41.274 4.38509e-07 0)
(41.254 4.3935e-07 0)
(41.2342 4.40234e-07 0)
(41.2146 4.41607e-07 0)
(41.1953 4.43757e-07 0)
(41.1763 4.44497e-07 0)
(41.1576 4.45574e-07 0)
(41.1393 4.47836e-07 0)
(41.1214 4.52746e-07 0)
(41.104 4.54449e-07 0)
(41.0871 4.5562e-07 0)
(41.0706 4.56463e-07 0)
(41.0545 4.5736e-07 0)
(41.039 4.5807e-07 0)
(41.0238 4.59076e-07 0)
(41.0091 4.5951e-07 0)
(40.9948 4.59982e-07 0)
(40.9808 4.59936e-07 0)
(40.9671 4.59566e-07 0)
(40.9537 4.58429e-07 0)
(40.9405 4.56998e-07 0)
(40.9275 4.55239e-07 0)
(40.9146 4.53129e-07 0)
(40.9017 4.50857e-07 0)
(40.8889 4.48247e-07 0)
(40.876 4.45784e-07 0)
(40.8632 4.46059e-07 0)
(40.8502 4.36867e-07 0)
(40.8371 4.34116e-07 0)
(40.824 4.33261e-07 0)
(40.8108 4.30588e-07 0)
(40.7976 4.28065e-07 0)
(40.7845 4.25916e-07 0)
(40.7714 4.24049e-07 0)
(40.7585 4.22431e-07 0)
(40.7458 4.21084e-07 0)
(40.7334 4.2006e-07 0)
(40.7213 4.19458e-07 0)
(40.7096 4.19346e-07 0)
(40.6984 4.19734e-07 0)
(40.6877 4.20543e-07 0)
(40.6775 4.21666e-07 0)
(40.6678 4.23016e-07 0)
(40.6586 4.24445e-07 0)
(40.65 4.26028e-07 0)
(40.6419 4.27497e-07 0)
(40.6342 4.29221e-07 0)
(40.627 4.30693e-07 0)
(40.6204 4.32661e-07 0)
(40.6142 4.34271e-07 0)
(40.6084 4.3665e-07 0)
(40.6032 4.38517e-07 0)
(40.5984 4.41183e-07 0)
(40.5941 4.43358e-07 0)
(40.5903 4.4599e-07 0)
(40.5868 4.48229e-07 0)
(40.5837 4.50666e-07 0)
(40.5809 4.52649e-07 0)
(40.5782 4.54455e-07 0)
(40.5757 4.55668e-07 0)
(40.5732 4.56825e-07 0)
(40.5707 4.57272e-07 0)
(40.568 4.57818e-07 0)
(40.5652 4.57868e-07 0)
(40.5621 4.58195e-07 0)
(40.5588 4.5835e-07 0)
(40.5552 4.61085e-07 0)
(40.5514 4.79411e-07 0)
(40.5474 6.0385e-07 0)
(40.5433 1.41956e-06 0)
(40.5392 7.00403e-06 0)
(40.536 4.71324e-05 0)
(40.5396 0.000340867 0)
(40.5921 0.00269307 0)
(40.7995 0.03775 0)
(45.8077 0.153371 0)
(36.5458 1.24534 -3.17618e-15)
(35.5172 3.57317 6.37022e-15)
(35.1188 6.22038 -1.19429e-14)
(34.7374 8.90271 2.46732e-14)
(34.1476 11.5707 -2.54496e-14)
(33.3883 14.2263 -1.58883e-15)
(32.4366 16.8434 9.81989e-20)
(31.1435 19.2998 -2.22253e-14)
(29.4014 21.4706 -1.03215e-13)
(27.3325 23.3543 1.01762e-13)
(25.5307 25.4963 -2.53928e-14)
(24.4864 28.6049 -5.19491e-14)
(23.7623 32.7399 2.64882e-14)
(22.5079 36.9451 0)
(20.222 39.7365 2.47373e-14)
(17.087 40.7522 2.47371e-14)
(13.6537 40.7176 -2.48118e-14)
(10.22 40.1014 2.49256e-14)
(6.94471 39.0727 1.95849e-16)
(3.98734 40.4978 -1.93155e-16)
(37.6755 1.95622 0)
(37.0678 4.77646 0)
(36.6748 7.882 -1.61749e-15)
(36.1887 10.9678 -3.23126e-15)
(35.4743 14.0045 8.06628e-15)
(34.5603 17.0232 1.61036e-14)
(33.372 20.0817 0)
(31.7003 23.1039 9.64978e-15)
(29.5202 25.7738 1.6076e-14)
(27.0526 27.8901 -3.86072e-14)
(25.2799 29.5412 2.56782e-14)
(24.4741 31.8396 1.27131e-14)
(23.7157 35.5309 -1.25659e-14)
(21.7799 40.2082 1.24727e-14)
(18.1651 44.2539 0)
(13.8189 46.1736 -1.55799e-15)
(9.29499 46.6066 1.55835e-15)
(4.8431 45.9832 -5.46986e-15)
(0.86195 44.2898 -7.86279e-16)
(1.75843 43.0126 0)
(40.3726 1.52796 -4.13059e-17)
(40.3761 2.51822 -2.09913e-14)
(40.479 3.52499 2.13195e-14)
(40.6642 4.52871 -2.04915e-14)
(40.8847 5.59409 -2.24771e-14)
(41.1059 6.78471 8.36649e-14)
(41.3148 8.13364 -4.2354e-14)
(41.5002 9.6889 4.10501e-14)
(41.5992 11.5156 -8.34521e-14)
(41.4993 13.6551 1.33216e-15)
(41.0137 16.0735 4.1096e-14)
(40.0927 18.5428 0)
(39.0296 20.7762 -4.11924e-14)
(38.2227 22.7195 4.12841e-14)
(37.7731 24.6528 -3.33356e-16)
(37.2524 26.909 0)
(36.3229 29.4621 3.33454e-16)
(34.8725 32.1879 0)
(32.8358 34.98 0)
(30.0994 37.5997 0)
(44.3082 2.50691 6.33809e-16)
(44.0413 5.77479 -6.35858e-15)
(43.08 9.66136 -1.27423e-15)
(41.9515 13.6427 2.54489e-15)
(40.9238 17.5703 -2.53414e-15)
(39.9215 21.4348 -4.375e-19)
(38.788 25.2314 -1.00228e-14)
(37.3851 28.9183 0)
(35.6768 32.4787 0)
(33.6673 35.9065 -4.93362e-15)
(31.3361 39.1567 4.90891e-15)
(28.7089 42.2299 0)
(25.7714 45.0839 -4.86228e-15)
(22.5307 47.6819 4.84582e-15)
(19.0044 49.9811 -4.83004e-15)
(15.2331 51.9388 9.63084e-15)
(11.2716 53.5264 -4.80543e-15)
(7.18984 54.7281 0)
(3.08562 55.5588 -2.39123e-15)
(-0.660741 56.0138 0)
(47.1971 1.74133 -9.67541e-16)
(48.1209 4.46362 7.41684e-15)
(47.8449 7.7308 5.15951e-15)
(47.0773 11.1545 1.03088e-14)
(46.2953 14.7021 0)
(45.5106 18.3684 0)
(44.5889 22.1138 1.02079e-14)
(43.4146 25.8547 2.54086e-15)
(41.922 29.5776 -5.05909e-15)
(40.1201 33.2173 2.51934e-15)
(37.9719 36.7511 2.00683e-14)
(35.5049 40.1313 -1.24936e-14)
(32.718 43.2996 1.24527e-14)
(29.6241 46.1956 -2.4825e-15)
(26.2413 48.7624 -9.90811e-15)
(22.5953 50.9523 -1.73172e-14)
(18.7261 52.7212 -8.65286e-15)
(14.6814 54.0083 -1.23624e-15)
(10.5427 54.6879 7.11475e-15)
(6.56304 54.4347 3.1021e-16)
(1.06177 52.5396 0)
(0.891327 57.6335 0)
(1.03715 57.0319 0)
(1.06514 55.6708 0)
(1.02385 55.6783 0)
(1.00142 56.3406 0)
(1.02326 56.697 0)
(1.03545 56.6617 0)
(1.03767 56.5525 0)
(1.03591 56.5209 0)
(1.03319 56.5435 0)
(1.03314 56.5588 0)
(1.03307 56.5494 0)
(1.0325 56.53 0)
(1.03155 56.5084 0)
(1.03013 56.4895 0)
(1.02729 56.4874 0)
(1.02249 56.527 0)
(1.02166 56.5952 0)
(1.02519 56.6413 0)
(1.02787 56.6477 0)
(1.02874 56.6303 0)
(1.02783 56.5996 0)
(1.02446 56.5604 0)
(1.01724 56.5312 0)
(0.999282 56.5821 0)
(0.979315 56.7533 0)
(0.968325 56.9474 0)
(0.962139 57.0385 0)
(0.947506 57.0084 0)
(0.922313 56.9116 0)
(0.888314 56.7734 0)
(0.84697 56.5907 0)
(0.799478 56.3569 0)
(0.747065 56.064 0)
(0.690968 55.7022 0)
(0.632421 55.26 0)
(0.57253 54.7241 0)
(0.512154 54.08 0)
(0.452515 53.3123 0)
(0.393894 52.4118 0)
(0.337801 51.3812 0)
(0.285331 50.2357 0)
(0.237263 49.0088 0)
(0.194179 47.7507 0)
(0.157026 46.5175 0)
(0.125264 45.3628 0)
(0.0987826 44.3308 0)
(0.0771031 43.4481 0)
(0.0596469 42.7226 0)
(0.0456206 42.147 0)
(0.0345059 41.7039 0)
(0.0257679 41.3712 0)
(0.0189737 41.1265 0)
(0.0137628 40.9496 0)
(0.00982844 40.8233 0)
(0.00690808 40.734 0)
(0.00477846 40.6714 0)
(0.00325317 40.6275 0)
(0.00218018 40.5967 0)
(0.0014384 40.5749 0)
(0.000934737 40.5593 0)
(0.000598367 40.5479 0)
(0.000377452 40.5393 0)
(0.000234704 40.5325 0)
(0.000143918 40.527 0)
(8.7068e-05 40.5223 0)
(5.20052e-05 40.5181 0)
(3.06991e-05 40.5143 0)
(1.79399e-05 40.5107 0)
(1.0408e-05 40.5073 0)
(6.02425e-06 40.504 0)
(3.50831e-06 40.5007 0)
(2.08431e-06 40.4974 0)
(1.2894e-06 40.4941 0)
(8.52913e-07 40.4908 0)
(6.14439e-07 40.4874 0)
(4.85472e-07 40.4839 0)
(4.17405e-07 40.4803 0)
(3.82146e-07 40.4767 0)
(3.64297e-07 40.4729 0)
(3.55495e-07 40.469 0)
(3.51239e-07 40.4649 0)
(3.49144e-07 40.4607 0)
(3.47977e-07 40.4564 0)
(3.47111e-07 40.4519 0)
(3.46253e-07 40.4472 0)
(3.45227e-07 40.4424 0)
(3.43932e-07 40.4374 0)
(3.42304e-07 40.4322 0)
(3.40387e-07 40.4268 0)
(3.38277e-07 40.4212 0)
(3.36006e-07 40.4155 0)
(3.33562e-07 40.4096 0)