/*--------------------------------*- C++ -*----------------------------------*\
| =========                 |                                                 |
| \\      /  F ield         | OpenFOAM: The Open Source CFD Toolbox           |
|  \\    /   O peration     | Version:  3.0.x                                 |
|   \\  /    A nd           | Web:      www.OpenFOAM.org                      |
|    \\/     M anipulation  |                                                 |
\*---------------------------------------------------------------------------*/
FoamFile
{
    version     2.0;
    format      ascii;
    class       volVectorField;
    location    "0.013";
    object      U;
}
// * * * * * * * * * * * * * * * * * * * * * * * * * * * * * * * * * * * * * //

dimensions      [0 1 -1 0 0 0 0];

internalField   nonuniform List<vector> 
1000
(
(42.7 0 0)
(42.7 0 0)
(42.7 0 0)
(42.7 0 0)
(42.7 0 0)
(42.7 0 0)
(42.7 0 0)
(42.7 0 0)
(42.7 0 0)
(42.7 0 0)
(42.7 0 0)
(42.7 0 0)
(42.7 0 0)
(42.7 0 0)
(42.7 0 0)
(42.7 0 0)
(42.7 0 0)
(42.7 0 0)
(42.7 0 0)
(42.7 0 0)
(42.7 0 0)
(42.7 0 0)
(42.7 0 0)
(42.7 0 0)
(42.7 0 0)
(42.7 0 0)
(42.7 0 0)
(42.7 0 0)
(42.7 0 0)
(42.7 0 0)
(42.7 0 0)
(42.7 0 0)
(42.7 0 0)
(42.7 0 0)
(42.7 0 0)
(42.7 0 0)
(42.7 0 0)
(42.7 0 0)
(42.7 0 0)
(42.7 0 0)
(42.7 0 0)
(42.7 0 0)
(42.7 0 0)
(42.7 0 0)
(42.7 0 0)
(42.7 0 0)
(42.7 0 0)
(42.7 0 0)
(42.7 0 0)
(42.7 0 0)
(42.7 0 0)
(42.7 0 0)
(42.7 0 0)
(42.7 0 0)
(42.7 0 0)
(42.7 0 0)
(42.7 0 0)
(42.7 0 0)
(42.7 0 0)
(42.7 0 0)
(42.7 0 0)
(42.7 0 0)
(42.7 0 0)
(42.7 0 0)
(42.7 0 0)
(42.7 0 0)
(42.7 0 0)
(42.7 0 0)
(42.7 0 0)
(42.7 0 0)
(42.7 0 0)
(42.7 0 0)
(42.7 0 0)
(42.7 0 0)
(42.7 0 0)
(42.7 0 0)
(42.7 0 0)
(42.7 0 0)
(42.7 0 0)
(42.7 0 0)
(42.7 0 0)
(42.7 0 0)
(42.7 0 0)
(42.7 0 0)
(42.7 0 0)
(42.7 0 0)
(42.7 0 0)
(42.6999 0 0)
(42.6999 0 0)
(42.6999 0 0)
(42.6999 0 0)
(42.6999 0 0)
(42.6999 0 0)
(42.6998 0 0)
(42.6998 0 0)
(42.6998 0 0)
(42.6997 0 0)
(42.6996 0 0)
(42.6996 0 0)
(42.6995 0 0)
(42.6993 0 0)
(42.6992 0 0)
(42.699 0 0)
(42.6988 0 0)
(42.6986 0 0)
(42.6983 0 0)
(42.698 0 0)
(42.6976 0 0)
(42.6971 0 0)
(42.6965 0 0)
(42.6959 0 0)
(42.6951 0 0)
(42.6941 0 0)
(42.693 0 0)
(42.6917 0 0)
(42.6901 0 0)
(42.6883 0 0)
(42.6861 0 0)
(42.6835 0 0)
(42.6805 0 0)
(42.677 0 0)
(42.6728 0 0)
(42.668 0 0)
(42.6623 0 0)
(42.6556 0 0)
(42.6479 0 0)
(42.6389 0 0)
(42.6284 0 0)
(42.6162 0 0)
(42.602 0 0)
(42.5855 0 0)
(42.5664 0 0)
(42.5444 0 0)
(42.5189 0 0)
(42.4894 0 0)
(42.4554 0 0)
(42.4163 0 0)
(42.3713 0 0)
(42.3196 0 0)
(42.2603 0 0)
(42.1923 0 0)
(42.1145 0 0)
(42.0255 0 0)
(41.924 0 0)
(41.8084 0 0)
(41.6768 0 0)
(41.5272 0 0)
(41.3576 0 0)
(41.1656 0 0)
(40.9486 0 0)
(40.7038 0 0)
(40.4284 0 0)
(40.119 0 0)
(39.7725 0 0)
(39.3853 0 0)
(38.9538 0 0)
(38.4745 0 0)
(37.9438 0 0)
(37.3581 0 0)
(36.7142 0 0)
(36.0092 0 0)
(35.2407 0 0)
(34.4068 0 0)
(33.5065 0 0)
(32.5397 0 0)
(31.5073 0 0)
(30.4115 0 0)
(29.2558 0 0)
(28.0449 0 0)
(26.785 0 0)
(25.4836 0 0)
(24.1491 0 0)
(22.7911 0 0)
(21.4199 0 0)
(20.0461 0 0)
(18.6805 0 0)
(17.3336 0 0)
(16.0155 0 0)
(14.7354 0 0)
(13.5014 0 0)
(12.3206 0 0)
(11.1984 0 0)
(10.1392 0 0)
(9.14587 0 0)
(8.21996 0 0)
(7.3619 0 0)
(6.57105 0 0)
(5.8459 0 0)
(5.18418 0 0)
(4.58307 0 0)
(4.0393 0 0)
(3.54934 0 0)
(3.10949 0 0)
(2.71596 0 0)
(2.36502 0 0)
(2.05298 0 0)
(1.77633 0 0)
(1.53172 0 0)
(1.31599 0 0)
(1.1262 0 0)
(0.959661 0 0)
(0.813872 0 0)
(0.686575 0 0)
(0.575722 0 0)
(0.479467 0 0)
(0.396163 0 0)
(0.324337 0 0)
(0.262687 0 0)
(0.21006 0 0)
(0.165444 0 0)
(0.127943 0 0)
(0.0967728 0 0)
(0.0712333 0 0)
(0.0506976 0 0)
(0.0345918 0 0)
(0.0223762 0 0)
(0.0135289 0 0)
(0.00752898 0 0)
(0.00384483 0 0)
(0.0019276 0 0)
(0.00122197 0 0)
(0.00121908 0 0)
(0.00154255 0 0)
(0.00198052 0 0)
(0.00243622 0 0)
(0.00286889 0 0)
(0.00326214 0 0)
(0.00361057 0 0)
(0.0039139 0 0)
(0.00417437 0 0)
(0.00439534 0 0)
(0.00458063 0 0)
(0.00473414 0 0)
(0.00485965 0 0)
(0.00496069 0 0)
(0.0050405 0 0)
(0.00510199 0 0)
(0.00514778 0 0)
(0.00518017 0 0)
(0.00520121 0 0)
(0.00521265 0 0)
(0.00521604 0 0)
(0.0052127 0 0)
(0.00520377 0 0)
(0.00519023 0 0)
(0.00517292 0 0)
(0.00515252 0 0)
(0.00512965 0 0)
(0.00510481 0 0)
(0.00507841 0 0)
(0.0050508 0 0)
(0.00502228 0 0)
(0.00499309 0 0)
(0.00496343 0 0)
(0.00493346 0 0)
(0.00490332 0 0)
(0.0048731 0 0)
(0.00484291 0 0)
(0.00481282 0 0)
(0.00478286 0 0)
(0.0047531 0 0)
(0.00472356 0 0)
(0.00469428 0 0)
(0.00466526 0 0)
(0.00463653 0 0)
(0.0046081 0 0)
(0.00457997 0 0)
(0.00455214 0 0)
(0.00452462 0 0)
(0.00449741 0 0)
(0.00447051 0 0)
(0.00444391 0 0)
(0.00441762 0 0)
(0.00439162 0 0)
(0.00436592 0 0)
(0.00434051 0 0)
(0.00431538 0 0)
(0.00429054 0 0)
(0.00426597 0 0)
(0.00424168 0 0)
(0.00421766 0 0)
(0.00419389 0 0)
(0.00417039 0 0)
(0.00414714 0 0)
(0.00412414 0 0)
(0.00410138 0 0)
(0.00407887 0 0)
(0.00405659 0 0)
(0.00403454 0 0)
(0.00401272 0 0)
(0.00399113 0 0)
(0.00396975 0 0)
(0.00394859 0 0)
(0.00392765 0 0)
(0.00390691 0 0)
(0.00388638 0 0)
(0.00386605 0 0)
(0.00384592 0 0)
(0.00382598 0 0)
(0.00380624 0 0)
(0.00378668 0 0)
(0.00376731 0 0)
(0.00374813 0 0)
(0.00372912 0 0)
(0.00371029 0 0)
(0.00369164 0 0)
(0.00367315 0 0)
(0.00365484 0 0)
(0.00363669 0 0)
(0.00361871 0 0)
(0.00360088 0 0)
(0.00358322 0 0)
(0.00356571 0 0)
(0.00354836 0 0)
(0.00353116 0 0)
(0.0035141 0 0)
(0.0034972 0 0)
(0.00348044 0 0)
(0.00346382 0 0)
(0.00344735 0 0)
(0.00343101 0 0)
(0.00341481 0 0)
(0.00339875 0 0)
(0.00338282 0 0)
(0.00336702 0 0)
(0.00335135 0 0)
(0.00333581 0 0)
(0.0033204 0 0)
(0.00330511 0 0)
(0.00328994 0 0)
(0.00327489 0 0)
(0.00325997 0 0)
(0.00324516 0 0)
(0.00323047 0 0)
(0.00321589 0 0)
(0.00320143 0 0)
(0.00318708 0 0)
(0.00317285 0 0)
(0.00315872 0 0)
(0.00314469 0 0)
(0.00313078 0 0)
(0.00311697 0 0)
(0.00310327 0 0)
(0.00308967 0 0)
(0.00307617 0 0)
(0.00306277 0 0)
(0.00304946 0 0)
(0.00303626 0 0)
(0.00302315 0 0)
(0.00301014 0 0)
(0.00299722 0 0)
(0.0029844 0 0)
(0.00297167 0 0)
(0.00295902 0 0)
(0.00294647 0 0)
(0.00293401 0 0)
(0.00292163 0 0)
(0.00290934 0 0)
(0.00289713 0 0)
(0.00288501 0 0)
(0.00287297 0 0)
(0.00286101 0 0)
(0.00284914 0 0)
(0.00283734 0 0)
(0.00282563 0 0)
(0.00281399 0 0)
(0.00280243 0 0)
(0.00279094 0 0)
(0.00277953 0 0)
(0.00276819 0 0)
(0.00275693 0 0)
(0.00274574 0 0)
(0.00273463 0 0)
(0.00272358 0 0)
(0.00271261 0 0)
(0.0027017 0 0)
(0.00269086 0 0)
(0.00268009 0 0)
(0.00266939 0 0)
(0.00265876 0 0)
(0.00264819 0 0)
(0.00263769 0 0)
(0.00262725 0 0)
(0.00261687 0 0)
(0.00260656 0 0)
(0.00259631 0 0)
(0.00258612 0 0)
(0.002576 0 0)
(0.00256593 0 0)
(0.00255593 0 0)
(0.00254598 0 0)
(0.0025361 0 0)
(0.00252627 0 0)
(0.0025165 0 0)
(0.00250679 0 0)
(0.00249713 0 0)
(0.00248753 0 0)
(0.00247798 0 0)
(0.00246849 0 0)
(0.00245905 0 0)
(0.00244967 0 0)
(0.00244034 0 0)
(0.00243106 0 0)
(0.00242184 0 0)
(0.00241267 0 0)
(0.00240355 0 0)
(0.00239447 0 0)
(0.00238545 0 0)
(0.00237648 0 0)
(0.00236756 0 0)
(0.00235868 0 0)
(0.00234986 0 0)
(0.00234108 0 0)
(0.00233235 0 0)
(0.00232366 0 0)
(0.00231502 0 0)
(0.00230643 0 0)
(0.00229788 0 0)
(0.00228938 0 0)
(0.00228092 0 0)
(0.00227251 0 0)
(0.00226413 0 0)
(0.00225581 0 0)
(0.00224752 0 0)
(0.00223928 0 0)
(0.00223107 0 0)
(0.00222291 0 0)
(0.0022148 0 0)
(0.00220671 0 0)
(0.00219868 0 0)
(0.00219068 0 0)
(0.00218272 0 0)
(0.0021748 0 0)
(0.00216692 0 0)
(0.00215907 0 0)
(0.00215127 0 0)
(0.0021435 0 0)
(0.00213577 0 0)
(0.00212808 0 0)
(0.00212042 0 0)
(0.0021128 0 0)
(0.00210522 0 0)
(0.00209767 0 0)
(0.00209016 0 0)
(0.00208268 0 0)
(0.00207524 0 0)
(0.00206783 0 0)
(0.00206046 0 0)
(0.00205312 0 0)
(0.00204582 0 0)
(0.00203855 0 0)
(0.00203131 0 0)
(0.0020241 0 0)
(0.00201693 0 0)
(0.00200979 0 0)
(0.00200269 0 0)
(0.00199562 0 0)
(0.00198857 0 0)
(0.00198157 0 0)
(0.00197459 0 0)
(0.00196764 0 0)
(0.00196072 0 0)
(0.00195384 0 0)
(0.00194699 0 0)
(0.00194016 0 0)
(0.00193337 0 0)
(0.0019266 0 0)
(0.00191987 0 0)
(0.00191317 0 0)
(0.00190649 0 0)
(0.00189984 0 0)
(0.00189323 0 0)
(0.00188664 0 0)
(0.00188008 0 0)
(0.00187355 0 0)
(0.00186704 0 0)
(0.00186056 0 0)
(0.00185411 0 0)
(0.00184769 0 0)
(0.00184129 0 0)
(0.00183492 0 0)
(0.00182858 0 0)
(0.00182226 0 0)
(0.00181597 0 0)
(0.00180971 0 0)
(0.00180347 0 0)
(0.00179725 0 0)
(0.00179106 0 0)
(0.0017849 0 0)
(0.00177876 0 0)
(0.00177264 0 0)
(0.00176655 0 0)
(0.00176048 0 0)
(0.00175443 0 0)
(0.00174841 0 0)
(0.00174241 0 0)
(0.00173643 0 0)
(0.00173048 0 0)
(0.00172454 0 0)
(0.00171863 0 0)
(0.00171275 0 0)
(0.00170688 0 0)
(0.00170103 0 0)
(0.00169521 0 0)
(0.00168941 0 0)
(0.00168363 0 0)
(0.00167786 0 0)
(0.00167213 0 0)
(0.0016664 0 0)
(0.00166071 0 0)
(0.00165503 0 0)
(0.00164937 0 0)
(0.00164373 0 0)
(0.00163811 0 0)
(0.00163251 0 0)
(0.00162693 0 0)
(0.00162137 0 0)
(0.00161583 0 0)
(0.00161031 0 0)
(0.00160481 0 0)
(0.00159933 0 0)
(0.00159387 0 0)
(0.00158843 0 0)
(0.001583 0 0)
(0.0015776 0 0)
(0.00157221 0 0)
(0.00156685 0 0)
(0.0015615 0 0)
(0.00155617 0 0)
(0.00155086 0 0)
(0.00154557 0 0)
(0.0015403 0 0)
(0.00153504 0 0)
(0.00152981 0 0)
(0.00152459 0 0)
(0.00151939 0 0)
(0.00151421 0 0)
(0.00150904 0 0)
(0.0015039 0 0)
(0.00149877 0 0)
(0.00149366 0 0)
(0.00148856 0 0)
(0.00148349 0 0)
(0.00147843 0 0)
(0.00147339 0 0)
(0.00146836 0 0)
(0.00146335 0 0)
(0.00145836 0 0)
(0.00145339 0 0)
(0.00144843 0 0)
(0.00144349 0 0)
(0.00143856 0 0)
(0.00143365 0 0)
(0.00142875 0 0)
(0.00142387 0 0)
(0.001419 0 0)
(0.00141415 0 0)
(0.00140932 0 0)
(0.00140449 0 0)
(0.00139969 0 0)
(0.00139489 0 0)
(0.00139012 0 0)
(0.00138535 0 0)
(0.0013806 0 0)
(0.00137586 0 0)
(0.00137114 0 0)
(0.00136643 0 0)
(0.00136173 0 0)
(0.00135704 0 0)
(0.00135237 0 0)
(0.00134771 0 0)
(0.00134307 0 0)
(0.00133843 0 0)
(0.00133381 0 0)
(0.0013292 0 0)
(0.0013246 0 0)
(0.00132001 0 0)
(0.00131544 0 0)
(0.00131087 0 0)
(0.00130632 0 0)
(0.00130178 0 0)
(0.00129725 0 0)
(0.00129272 0 0)
(0.00128822 0 0)
(0.00128371 0 0)
(0.00127923 0 0)
(0.00127475 0 0)
(0.00127028 0 0)
(0.00126582 0 0)
(0.00126137 0 0)
(0.00125693 0 0)
(0.00125249 0 0)
(0.00124807 0 0)
(0.00124366 0 0)
(0.00123926 0 0)
(0.00123486 0 0)
(0.00123048 0 0)
(0.00122611 0 0)
(0.00122174 0 0)
(0.00121739 0 0)
(0.00121304 0 0)
(0.0012087 0 0)
(0.00120438 0 0)
(0.00120006 0 0)
(0.00119576 0 0)
(0.00119146 0 0)
(0.00118717 0 0)
(0.0011829 0 0)
(0.00117863 0 0)
(0.00117438 0 0)
(0.00117013 0 0)
(0.0011659 0 0)
(0.00116168 0 0)
(0.00115747 0 0)
(0.00115327 0 0)
(0.00114908 0 0)
(0.00114491 0 0)
(0.00114074 0 0)
(0.00113659 0 0)
(0.00113244 0 0)
(0.00112831 0 0)
(0.00112419 0 0)
(0.00112009 0 0)
(0.00111599 0 0)
(0.00111191 0 0)
(0.00110784 0 0)
(0.00110378 0 0)
(0.00109974 0 0)
(0.00109571 0 0)
(0.00109168 0 0)
(0.00108768 0 0)
(0.00108368 0 0)
(0.0010797 0 0)
(0.00107573 0 0)
(0.00107177 0 0)
(0.00106782 0 0)
(0.00106389 0 0)
(0.00105996 0 0)
(0.00105605 0 0)
(0.00105215 0 0)
(0.00104827 0 0)
(0.00104438 0 0)
(0.00104052 0 0)
(0.00103666 0 0)
(0.00103282 0 0)
(0.00102898 0 0)
(0.00102516 0 0)
(0.00102134 0 0)
(0.00101754 0 0)
(0.00101375 0 0)
(0.00100996 0 0)
(0.00100619 0 0)
(0.00100243 0 0)
(0.00099867 0 0)
(0.000994929 0 0)
(0.000991193 0 0)
(0.00098747 0 0)
(0.000983758 0 0)
(0.00098005 0 0)
(0.00097636 0 0)
(0.00097267 0 0)
(0.000968997 0 0)
(0.00096533 0 0)
(0.00096167 0 0)
(0.000958025 0 0)
(0.000954381 0 0)
(0.000950752 0 0)
(0.000947127 0 0)
(0.000943511 0 0)
(0.000939904 0 0)
(0.000936302 0 0)
(0.000932712 0 0)
(0.000929124 0 0)
(0.00092555 0 0)
(0.000921978 0 0)
(0.000918416 0 0)
(0.000914863 0 0)
(0.000911311 0 0)
(0.000907777 0 0)
(0.000904241 0 0)
(0.000900718 0 0)
(0.000897204 0 0)
(0.000893691 0 0)
(0.000890195 0 0)
(0.000886701 0 0)
(0.000883217 0 0)
(0.000879742 0 0)
(0.000876275 0 0)
(0.000872815 0 0)
(0.000869365 0 0)
(0.000865923 0 0)
(0.000862484 0 0)
(0.000859062 0 0)
(0.000855639 0 0)
(0.000852226 0 0)
(0.000848827 0 0)
(0.000845421 0 0)
(0.000842036 0 0)
(0.000838652 0 0)
(0.000835268 0 0)
(0.000831905 0 0)
(0.000828536 0 0)
(0.000825176 0 0)
(0.00082183 0 0)
(0.00081848 0 0)
(0.000815139 0 0)
(0.000811816 0 0)
(0.000808482 0 0)
(0.000805164 0 0)
(0.000801865 0 0)
(0.000798546 0 0)
(0.00079526 0 0)
(0.000791982 0 0)
(0.000788682 0 0)
(0.000785434 0 0)
(0.000782171 0 0)
(0.000778902 0 0)
(0.000775691 0 0)
(0.000772444 0 0)
(0.000769211 0 0)
(0.000766036 0 0)
(0.000762807 0 0)
(0.000759611 0 0)
(0.000756477 0 0)
(0.000753255 0 0)
(0.000750108 0 0)
(0.00074701 0 0)
(0.000743783 0 0)
(0.000740701 0 0)
(0.00073763 0 0)
(0.000734374 0 0)
(0.000731417 0 0)
(0.000728262 0 0)
(0.000725137 0 0)
(0.000722018 0 0)
(0.000719345 0 0)
(0.00071526 0 0)
(0.000713848 0 0)
(0.000708875 0 0)
(0.000707193 0 0)
(0.000704536 0 0)
(0.000698742 0 0)
(0.000700344 0 0)
(0.00069254 0 0)
(0.000692179 0 0)
(0.000690782 0 0)
(0.000682358 0 0)
(0.000685339 0 0)
(0.000678696 0 0)
(0.000675774 0 0)
(0.000675656 0 0)
(0.000668215 0 0)
(0.000669011 0 0)
(0.000664924 0 0)
(0.000659703 0 0)
(0.000661635 0 0)
(0.000653191 0 0)
(0.000653374 0 0)
(0.000653374 0 0)
(0.000642432 0 0)
(0.000646835 0 0)
(0.000643775 0 0)
(0.000633304 0 0)
(0.000639593 0 0)
(0.000632415 0 0)
(0.000626607 0 0)
(0.000630664 0 0)
(0.000621256 0 0)
(0.000620465 0 0)
(0.000620067 0 0)
(0.000612659 0 0)
(0.000612411 0 0)
(0.000609808 0 0)
(0.00060448 0 0)
(0.000604704 0 0)
(0.000598581 0 0)
(0.00059827 0 0)
(0.000595486 0 0)
(0.000589003 0 0)
(0.000591862 0 0)
(0.000584691 0 0)
(0.000581785 0 0)
(0.000585614 0 0)
(0.000573087 0 0)
(0.000574762 0 0)
(0.000579147 0 0)
(0.000561122 0 0)
(0.000568197 0 0)
(0.000570232 0 0)
(0.000550317 0 0)
(0.000561864 0 0)
(0.000560001 0 0)
(0.000541437 0 0)
(0.000555381 0 0)
(0.000548456 0 0)
(0.000535721 0 0)
(0.000546493 0 0)
(0.000538202 0 0)
(0.000530555 0 0)
(0.000534936 0 0)
(0.000530403 0 0)
(0.000523344 0 0)
(0.000524667 0 0)
(0.000519952 0 0)
(0.000519973 0 0)
(0.000510987 0 0)
(0.000513834 0 0)
(0.000514788 0 0)
(0.00049872 0 0)
(0.00050766 0 0)
(0.00050519 0 0)
(0.000491391 0 0)
(0.000497194 0 0)
(0.000499506 0 0)
(0.000479952 0 0)
(0.000490776 0 0)
(0.000490349 0 0)
(0.000469847 0 0)
(0.000485243 0 0)
(0.000478713 0 0)
(0.000463706 0 0)
(0.000476832 0 0)
(0.000468862 0 0)
(0.000457344 0 0)
(0.000468388 0 0)
(0.000457987 0 0)
(0.000454618 0 0)
(0.000452966 0 0)
(0.000451598 0 0)
(0.000452185 0 0)
(0.000439679 0 0)
(0.000442751 0 0)
(0.000446977 0 0)
(0.000427383 0 0)
(0.000437783 0 0)
(0.000437245 0 0)
(0.000417723 0 0)
(0.00043337 0 0)
(0.000424554 0 0)
(0.000413916 0 0)
(0.00042357 0 0)
(0.000416493 0 0)
(0.00040674 0 0)
(0.000416509 0 0)
(0.000404136 0 0)
(0.000407128 0 0)
(0.000397853 0 0)
(0.000399671 0 0)
(0.000401471 0 0)
(0.00038534 0 0)
(0.000395479 0 0)
(0.000389405 0 0)
(0.000380773 0 0)
(0.0003844 0 0)
(0.000381658 0 0)
(0.000379548 0 0)
(0.000368693 0 0)
(0.000373906 0 0)
(0.000372946 0 0)
(0.000357592 0 0)
(0.000368734 0 0)
(0.000362135 0 0)
(0.00035107 0 0)
(0.000365311 0 0)
(0.000346775 0 0)
(0.000352463 0 0)
(0.000347066 0 0)
(0.000340894 0 0)
(0.000350548 0 0)
(0.000329672 0 0)
(0.000342096 0 0)
(0.000333603 0 0)
(0.000332633 0 0)
(0.000324797 0 0)
(0.000330114 0 0)
(0.000324778 0 0)
(0.000314451 0 0)
(0.000327747 0 0)
(0.000310533 0 0)
(0.000312995 0 0)
(0.000313686 0 0)
(0.000307246 0 0)
(0.000302227 0 0)
(0.000302227 0 0)
(0.000304025 0 0)
(0.00028855 0 0)
(0.000303039 0 0)
(0.000287696 0 0)
(0.000287198 0 0)
(0.000292911 0 0)
(0.000275335 0 0)
(0.000286874 0 0)
(0.000273438 0 0)
(0.0002834 0 0)
(0.000262921 0 0)
(0.000276299 0 0)
(0.000266902 0 0)
(0.000260527 0 0)
(0.000269882 0 0)
(0.000255543 0 0)
(0.000257172 0 0)
(0.000256793 0 0)
(0.00025329 0 0)
(0.000244183 0 0)
(0.000233123 0 0)
(0.000315941 0 0)
(7.53845e-05 0 0)
(0.000533282 0 0)
(-0.00022003 0 0)
(0.000883387 0 0)
(-0.000643455 0 0)
(0.00135692 0 0)
(-0.0011856 0 0)
(0.00194487 0 0)
(-0.0018378 0 0)
(0.00263731 0 0)
(-0.00258993 0 0)
(0.00343255 0 0)
(-0.00344928 0 0)
(0.00435872 0 0)
(-0.00449906 0 0)
(0.00552241 0 0)
(-0.00580936 0 0)
(0.0069711 0 0)
(-0.00743206 0 0)
(0.00876161 0 0)
(-0.00942796 0 0)
(0.010959 0 0)
(-0.0118662 0 0)
(0.0136367 0 0)
(-0.0148244 0 0)
(0.0168763 0 0)
(-0.0183885 0 0)
(0.0207677 0 0)
(-0.0226523 0 0)
(0.0254087 0 0)
(-0.0277171 0 0)
(0.0309038 0 0)
(-0.0336903 0 0)
(0.0373628 0 0)
(-0.040684 0 0)
(0.0448996 0 0)
(-0.0488129 0 0)
(0.0536291 0 0)
(-0.0581918 0 0)
(0.063665 0 0)
(-0.0689324 0 0)
(0.075116 0 0)
(-0.0811398 0 0)
(0.0880826 0 0)
(-0.0949084 0 0)
(0.102652 0 0)
(-0.110318 0 0)
(0.118895 0 0)
(-0.127427 0 0)
(0.136859 0 0)
(-0.146272 0 0)
(0.156566 0 0)
(-0.166859 0 0)
(0.178005 0 0)
(-0.18916 0 0)
(0.201131 0 0)
(-0.213111 0 0)
(0.225859 0 0)
(-0.238605 0 0)
(0.252062 0 0)
(-0.265494 0 0)
(0.279568 0 0)
(-0.293585 0 0)
(0.308162 0 0)
(-0.322639 0 0)
(0.337586 0 0)
(-0.352376 0 0)
(0.367537 0 0)
(-0.382477 0 0)
(0.397677 0 0)
(-0.412584 0 0)
(0.427634 0 0)
(-0.442313 0 0)
(0.457013 0 0)
(-0.471258 0 0)
(0.485399 0 0)
(-0.499 0 0)
(0.51237 0 0)
(-0.525115 0 0)
(0.537506 0 0)
(-0.54919 0 0)
(0.5604 0 0)
(-0.570827 0 0)
(0.580668 0 0)
(-0.589659 0 0)
(0.597962 0 0)
(-0.605358 0 0)
(0.611976 0 0)
(-0.617645 0 0)
(0.62246 0 0)
(-0.626299 0 0)
(0.629224 0 0)
(-0.631161 0 0)
(0.632142 0 0)
)
;

boundaryField
{
    inlet
    {
        type            fixedValue;
        value           uniform (42.7 0 0);
    }
    backWall
    {
        type            fixedValue;
        value           uniform (0 0 0);
    }
    sides
    {
        type            empty;
    }
}


// ************************************************************************* //
