/*--------------------------------*- C++ -*----------------------------------*\
| =========                 |                                                 |
| \\      /  F ield         | OpenFOAM: The Open Source CFD Toolbox           |
|  \\    /   O peration     | Version:  3.0.x                                 |
|   \\  /    A nd           | Web:      www.OpenFOAM.org                      |
|    \\/     M anipulation  |                                                 |
\*---------------------------------------------------------------------------*/
FoamFile
{
    version     2.0;
    format      ascii;
    class       volVectorField;
    location    "0.05";
    object      U;
}
// * * * * * * * * * * * * * * * * * * * * * * * * * * * * * * * * * * * * * //

dimensions      [0 1 -1 0 0 0 0];

internalField   nonuniform List<vector> 
27600
(
(42.6981 0.00012974 0)
(42.6964 0.000119211 0)
(42.6945 0.000117688 0)
(42.6926 0.000120466 0)
(42.6908 0.000122837 0)
(42.6889 0.000124585 0)
(42.687 0.000125848 0)
(42.6852 0.000126501 0)
(42.6833 0.000126296 0)
(42.6815 0.000124924 0)
(42.6797 0.000122041 0)
(42.678 0.000117352 0)
(42.6764 0.000110691 0)
(42.6749 0.000102094 0)
(42.6735 9.18329e-05 0)
(42.6723 8.03852e-05 0)
(42.6712 6.83681e-05 0)
(42.6703 5.6438e-05 0)
(42.6696 4.51935e-05 0)
(42.6691 3.50974e-05 0)
(42.6686 2.64356e-05 0)
(42.6683 1.93221e-05 0)
(42.6681 1.37128e-05 0)
(42.6679 9.45904e-06 0)
(42.6678 6.35104e-06 0)
(42.6677 4.15927e-06 0)
(42.6677 2.66613e-06 0)
(42.6677 1.68046e-06 0)
(42.6676 1.05029e-06 0)
(42.6676 6.59316e-07 0)
(42.6676 4.23651e-07 0)
(42.6676 2.85508e-07 0)
(42.6676 2.06682e-07 0)
(42.6676 1.62853e-07 0)
(42.6676 1.3909e-07 0)
(42.6676 1.26515e-07 0)
(42.6676 1.20018e-07 0)
(42.6676 1.16733e-07 0)
(42.6676 1.15109e-07 0)
(42.6676 1.14326e-07 0)
(42.6676 1.13955e-07 0)
(42.6676 1.13782e-07 0)
(42.6675 1.13709e-07 0)
(42.6675 1.13676e-07 0)
(42.6675 1.1366e-07 0)
(42.6675 1.13652e-07 0)
(42.6675 1.13653e-07 0)
(42.6675 1.13653e-07 0)
(42.6675 1.13649e-07 0)
(42.6675 1.13649e-07 0)
(42.6675 1.13649e-07 0)
(42.6675 1.1365e-07 0)
(42.6675 1.1365e-07 0)
(42.6675 1.13653e-07 0)
(42.6675 1.13654e-07 0)
(42.6675 1.13654e-07 0)
(42.6675 1.13657e-07 0)
(42.6675 1.13653e-07 0)
(42.6675 1.13659e-07 0)
(42.6675 1.13662e-07 0)
(42.6674 1.13664e-07 0)
(42.6674 1.13662e-07 0)
(42.6674 1.13666e-07 0)
(42.6674 1.13668e-07 0)
(42.6674 1.13668e-07 0)
(42.6674 1.1367e-07 0)
(42.6674 1.13667e-07 0)
(42.6674 1.13675e-07 0)
(42.6674 1.13673e-07 0)
(42.6674 1.13677e-07 0)
(42.6674 1.13685e-07 0)
(42.6674 1.13685e-07 0)
(42.6673 1.13692e-07 0)
(42.6673 1.13698e-07 0)
(42.6673 1.13703e-07 0)
(42.6673 1.13709e-07 0)
(42.6673 1.13716e-07 0)
(42.6673 1.13727e-07 0)
(42.6672 1.13721e-07 0)
(42.6672 1.13735e-07 0)
(42.6672 1.13749e-07 0)
(42.6671 1.1377e-07 0)
(42.6671 1.13786e-07 0)
(42.667 1.1381e-07 0)
(42.667 1.1384e-07 0)
(42.6669 1.13864e-07 0)
(42.6668 1.139e-07 0)
(42.6667 1.13939e-07 0)
(42.6666 1.1398e-07 0)
(42.6665 1.14026e-07 0)
(42.6664 1.14085e-07 0)
(42.6662 1.14147e-07 0)
(42.666 1.14215e-07 0)
(42.6658 1.14296e-07 0)
(42.6655 1.14387e-07 0)
(42.6652 1.14486e-07 0)
(42.6649 1.14599e-07 0)
(42.6645 1.14726e-07 0)
(42.664 1.14867e-07 0)
(42.6635 1.15026e-07 0)
(42.663 1.15201e-07 0)
(42.6623 1.15398e-07 0)
(42.6616 1.15609e-07 0)
(42.6607 1.15841e-07 0)
(42.6598 1.16098e-07 0)
(42.6588 1.16378e-07 0)
(42.6576 1.16678e-07 0)
(42.6563 1.17007e-07 0)
(42.6548 1.17361e-07 0)
(42.6531 1.17759e-07 0)
(42.6513 1.18158e-07 0)
(42.6493 1.18586e-07 0)
(42.6471 1.1904e-07 0)
(42.6447 1.1952e-07 0)
(42.642 1.20023e-07 0)
(42.6391 1.20543e-07 0)
(42.6359 1.21084e-07 0)
(42.6324 1.21635e-07 0)
(42.6286 1.22197e-07 0)
(42.6245 1.22767e-07 0)
(42.6201 1.23332e-07 0)
(42.6153 1.23888e-07 0)
(42.6102 1.24422e-07 0)
(42.6048 1.24941e-07 0)
(42.599 1.25415e-07 0)
(42.5928 1.25844e-07 0)
(42.5863 1.26216e-07 0)
(42.5795 1.26517e-07 0)
(42.5722 1.26735e-07 0)
(42.5647 1.26855e-07 0)
(42.5568 1.26869e-07 0)
(42.5486 1.26749e-07 0)
(42.5402 1.26488e-07 0)
(42.5314 1.26073e-07 0)
(42.5225 1.25486e-07 0)
(42.5134 1.24713e-07 0)
(42.5041 1.23755e-07 0)
(42.4947 1.22586e-07 0)
(42.4852 1.212e-07 0)
(42.4758 1.19589e-07 0)
(42.4663 1.17753e-07 0)
(42.457 1.15685e-07 0)
(42.4479 1.13386e-07 0)
(42.439 1.10859e-07 0)
(42.4303 1.08115e-07 0)
(42.4221 1.05156e-07 0)
(42.4142 1.02009e-07 0)
(42.4068 9.86982e-08 0)
(42.4 9.52198e-08 0)
(42.3937 9.15936e-08 0)
(42.3882 8.78219e-08 0)
(42.3833 8.3907e-08 0)
(42.3791 7.98576e-08 0)
(42.3758 7.56659e-08 0)
(42.3732 7.13497e-08 0)
(42.3715 6.69017e-08 0)
(42.3707 6.24122e-08 0)
(42.3707 5.87683e-08 0)
(42.3716 5.26064e-08 0)
(42.3733 4.79062e-08 0)
(42.376 4.30896e-08 0)
(42.3794 3.81703e-08 0)
(42.3837 3.34685e-08 0)
(42.3888 2.84198e-08 0)
(42.3946 2.35932e-08 0)
(42.401 1.93674e-08 0)
(42.4081 1.57562e-08 0)
(42.4158 1.28853e-08 0)
(42.424 1.0461e-08 0)
(42.4326 8.40299e-09 0)
(42.4415 7.38895e-09 0)
(42.4508 7.01501e-09 0)
(42.4602 7.00773e-09 0)
(42.4698 7.34552e-09 0)
(42.4795 7.8388e-09 0)
(42.4892 9.09522e-09 0)
(42.4988 1.10059e-08 0)
(42.5083 1.32204e-08 0)
(42.5177 1.58605e-08 0)
(42.5267 1.84779e-08 0)
(42.5356 2.13894e-08 0)
(42.5441 2.4486e-08 0)
(42.5522 2.76076e-08 0)
(42.56 3.09106e-08 0)
(42.5673 3.4224e-08 0)
(42.5743 3.76347e-08 0)
(42.5807 4.11468e-08 0)
(42.5868 4.46011e-08 0)
(42.5924 4.80017e-08 0)
(42.5975 5.13271e-08 0)
(42.6022 5.45577e-08 0)
(42.6065 5.77893e-08 0)
(42.6104 6.08863e-08 0)
(42.6139 6.38232e-08 0)
(42.617 6.66179e-08 0)
(42.6198 6.92093e-08 0)
(42.6222 7.17146e-08 0)
(42.6243 7.40827e-08 0)
(42.6262 7.62821e-08 0)
(42.6277 7.83257e-08 0)
(42.6291 8.01636e-08 0)
(42.6302 8.1872e-08 0)
(42.6312 8.34635e-08 0)
(42.6319 8.49255e-08 0)
(42.6326 8.62554e-08 0)
(42.6331 8.74325e-08 0)
(42.6334 8.84837e-08 0)
(42.6337 8.94582e-08 0)
(42.6339 9.03494e-08 0)
(42.634 9.11653e-08 0)
(42.6341 9.18882e-08 0)
(42.6341 9.24988e-08 0)
(42.6341 9.3061e-08 0)
(42.6341 9.36011e-08 0)
(42.634 9.40743e-08 0)
(42.6339 9.45246e-08 0)
(42.6338 9.48993e-08 0)
(42.6337 9.52353e-08 0)
(42.6336 9.55335e-08 0)
(42.6334 9.58332e-08 0)
(42.6333 9.61223e-08 0)
(42.6332 9.63752e-08 0)
(42.6331 9.65988e-08 0)
(42.633 9.67946e-08 0)
(42.6328 9.69879e-08 0)
(42.6327 9.71858e-08 0)
(42.6326 9.73718e-08 0)
(42.6325 9.75364e-08 0)
(42.6324 9.76835e-08 0)
(42.6324 9.7826e-08 0)
(42.6323 9.79675e-08 0)
(42.6322 9.81049e-08 0)
(42.6322 9.82553e-08 0)
(42.6321 9.83422e-08 0)
(42.6321 9.84652e-08 0)
(42.6321 9.85611e-08 0)
(42.632 9.86996e-08 0)
(42.632 9.88175e-08 0)
(42.632 9.88987e-08 0)
(42.632 9.89867e-08 0)
(42.6321 9.90905e-08 0)
(42.6321 9.9174e-08 0)
(42.6321 9.93002e-08 0)
(42.6322 9.93812e-08 0)
(42.6322 9.94632e-08 0)
(42.6323 9.95463e-08 0)
(42.6324 9.96369e-08 0)
(42.6325 9.97341e-08 0)
(42.6326 9.98289e-08 0)
(42.6327 9.99078e-08 0)
(42.6328 9.99923e-08 0)
(42.6329 1.00081e-07 0)
(42.633 1.00175e-07 0)
(42.6332 1.0027e-07 0)
(42.6333 1.00363e-07 0)
(42.6335 1.00451e-07 0)
(42.6336 1.00543e-07 0)
(42.6338 1.0064e-07 0)
(42.6339 1.00743e-07 0)
(42.6341 1.00842e-07 0)
(42.6343 1.00939e-07 0)
(42.6345 1.01032e-07 0)
(42.6347 1.01129e-07 0)
(42.6348 1.01236e-07 0)
(42.635 1.01345e-07 0)
(42.6352 1.01441e-07 0)
(42.6354 1.01544e-07 0)
(42.6356 1.01642e-07 0)
(42.6358 1.01747e-07 0)
(42.636 1.0186e-07 0)
(42.6362 1.01966e-07 0)
(42.6364 1.02072e-07 0)
(42.6365 1.02177e-07 0)
(42.6367 1.02281e-07 0)
(42.6369 1.02389e-07 0)
(42.6371 1.02504e-07 0)
(42.6373 1.02615e-07 0)
(42.6375 1.02719e-07 0)
(42.6377 1.02828e-07 0)
(42.6378 1.02932e-07 0)
(42.638 1.03041e-07 0)
(42.6382 1.03145e-07 0)
(42.6384 1.03246e-07 0)
(42.6385 1.03351e-07 0)
(42.6387 1.0345e-07 0)
(42.6389 1.03552e-07 0)
(42.639 1.0366e-07 0)
(42.6392 1.03758e-07 0)
(42.6393 1.03851e-07 0)
(42.6395 1.0395e-07 0)
(42.6397 1.04048e-07 0)
(42.6398 1.04144e-07 0)
(42.6399 1.04234e-07 0)
(42.6401 1.0432e-07 0)
(42.6402 1.04411e-07 0)
(42.6404 1.04501e-07 0)
(42.6405 1.04597e-07 0)
(42.6406 1.04684e-07 0)
(42.6408 1.0477e-07 0)
(42.6409 1.04855e-07 0)
(42.641 1.04939e-07 0)
(42.6412 1.05024e-07 0)
(42.6413 1.05106e-07 0)
(42.6414 1.05187e-07 0)
(42.6415 1.05265e-07 0)
(42.6417 1.05337e-07 0)
(42.6418 1.05411e-07 0)
(42.6419 1.0549e-07 0)
(42.642 1.05566e-07 0)
(42.6421 1.05638e-07 0)
(42.6422 1.05713e-07 0)
(42.6423 1.05784e-07 0)
(42.6425 1.05861e-07 0)
(42.6426 1.05927e-07 0)
(42.6427 1.05999e-07 0)
(42.6428 1.06065e-07 0)
(42.6429 1.06131e-07 0)
(42.643 1.06195e-07 0)
(42.6431 1.06259e-07 0)
(42.6432 1.06318e-07 0)
(42.6433 1.06403e-07 0)
(42.6434 1.06457e-07 0)
(42.6435 1.06524e-07 0)
(42.6435 1.06589e-07 0)
(42.6436 1.0665e-07 0)
(42.6437 1.06713e-07 0)
(42.6438 1.06771e-07 0)
(42.6439 1.06829e-07 0)
(42.644 1.06893e-07 0)
(42.6441 1.06953e-07 0)
(42.6442 1.07011e-07 0)
(42.6442 1.07067e-07 0)
(42.6443 1.07123e-07 0)
(42.6444 1.07176e-07 0)
(42.6445 1.07232e-07 0)
(42.6446 1.07288e-07 0)
(42.6446 1.0737e-07 0)
(42.6447 1.07356e-07 0)
(42.6448 1.07436e-07 0)
(42.6449 1.07492e-07 0)
(42.6449 1.07542e-07 0)
(42.645 1.07594e-07 0)
(42.6451 1.07618e-07 0)
(42.6451 1.07671e-07 0)
(42.6452 1.07724e-07 0)
(42.6453 1.07772e-07 0)
(42.6454 1.07815e-07 0)
(42.6454 1.07856e-07 0)
(42.6455 1.07903e-07 0)
(42.6456 1.07941e-07 0)
(42.6456 1.07984e-07 0)
(42.6457 1.0803e-07 0)
(42.6457 1.08027e-07 0)
(42.6458 1.08138e-07 0)
(42.6459 1.08149e-07 0)
(42.6459 1.08185e-07 0)
(42.646 1.08224e-07 0)
(42.6461 1.08263e-07 0)
(42.6461 1.08286e-07 0)
(42.6462 1.08345e-07 0)
(42.6462 1.08373e-07 0)
(42.6463 1.08413e-07 0)
(42.6464 1.08452e-07 0)
(42.6464 1.08485e-07 0)
(42.6465 1.08528e-07 0)
(42.6465 1.08539e-07 0)
(42.6466 1.08583e-07 0)
(42.6466 1.08616e-07 0)
(42.6467 1.08655e-07 0)
(42.6467 1.08648e-07 0)
(42.6468 1.08326e-07 0)
(42.6468 1.09106e-07 0)
(42.6469 1.08864e-07 0)
(42.6469 1.08824e-07 0)
(42.647 1.08898e-07 0)
(42.647 1.091e-07 0)
(42.6471 1.09037e-07 0)
(42.6471 1.09507e-07 0)
(42.6472 1.10451e-07 0)
(42.6472 1.12526e-07 0)
(42.6472 1.17524e-07 0)
(42.6473 1.29508e-07 0)
(42.6473 1.57877e-07 0)
(42.6474 2.25483e-07 0)
(42.6474 3.89388e-07 0)
(42.6474 7.78797e-07 0)
(42.6474 1.71136e-06 0)
(42.6474 3.94313e-06 0)
(42.6472 9.28465e-06 0)
(42.6469 2.20804e-05 0)
(42.646 5.26381e-05 0)
(42.6438 0.000125084 0)
(42.6385 0.000298191 0)
(42.6259 0.000710426 0)
(42.5958 0.00168962 0)
(42.5244 0.00400928 0)
(42.3555 0.00950254 0)
(41.9554 0.0226995 0)
(41.0611 0.0570907 0)
(37.4421 0.158276 0)
(42.7001 0.00020894 0)
(42.7002 0.000168708 0)
(42.7003 0.000152671 0)
(42.7004 0.000150652 0)
(42.7005 0.000149143 0)
(42.7006 0.000147283 0)
(42.7007 0.00014552 0)
(42.7007 0.000143636 0)
(42.7008 0.000141243 0)
(42.7009 0.000137943 0)
(42.701 0.000133334 0)
(42.701 0.000127076 0)
(42.7011 0.000118976 0)
(42.7012 0.000109055 0)
(42.7012 9.75838e-05 0)
(42.7013 8.50452e-05 0)
(42.7013 7.20642e-05 0)
(42.7013 5.93035e-05 0)
(42.7014 4.73638e-05 0)
(42.7014 3.67007e-05 0)
(42.7014 2.75905e-05 0)
(42.7014 2.01349e-05 0)
(42.7014 1.42711e-05 0)
(42.7014 9.83384e-06 0)
(42.7014 6.5972e-06 0)
(42.7014 4.31765e-06 0)
(42.7014 2.76697e-06 0)
(42.7014 1.74367e-06 0)
(42.7014 1.08993e-06 0)
(42.7014 6.84539e-07 0)
(42.7014 4.40236e-07 0)
(42.7014 2.97044e-07 0)
(42.7013 2.15322e-07 0)
(42.7013 1.69879e-07 0)
(42.7013 1.45225e-07 0)
(42.7013 1.32174e-07 0)
(42.7013 1.25424e-07 0)
(42.7013 1.22011e-07 0)
(42.7013 1.2032e-07 0)
(42.7013 1.19504e-07 0)
(42.7013 1.19121e-07 0)
(42.7013 1.18938e-07 0)
(42.7013 1.18857e-07 0)
(42.7013 1.18818e-07 0)
(42.7013 1.18809e-07 0)
(42.7013 1.18797e-07 0)
(42.7013 1.18799e-07 0)
(42.7013 1.18798e-07 0)
(42.7013 1.18795e-07 0)
(42.7013 1.18802e-07 0)
(42.7013 1.18805e-07 0)
(42.7012 1.18804e-07 0)
(42.7012 1.18803e-07 0)
(42.7012 1.18807e-07 0)
(42.7012 1.18807e-07 0)
(42.7012 1.18808e-07 0)
(42.7012 1.18811e-07 0)
(42.7012 1.18811e-07 0)
(42.7012 1.18814e-07 0)
(42.7012 1.18813e-07 0)
(42.7012 1.18815e-07 0)
(42.7012 1.18817e-07 0)
(42.7012 1.18822e-07 0)
(42.7012 1.18819e-07 0)
(42.7012 1.18824e-07 0)
(42.7012 1.18831e-07 0)
(42.7012 1.1883e-07 0)
(42.7011 1.18836e-07 0)
(42.7011 1.18843e-07 0)
(42.7011 1.18843e-07 0)
(42.7011 1.18847e-07 0)
(42.7011 1.18853e-07 0)
(42.7011 1.18861e-07 0)
(42.7011 1.18867e-07 0)
(42.7011 1.18884e-07 0)
(42.701 1.18898e-07 0)
(42.701 1.18914e-07 0)
(42.701 1.18933e-07 0)
(42.701 1.18955e-07 0)
(42.701 1.18978e-07 0)
(42.7009 1.19014e-07 0)
(42.7009 1.19046e-07 0)
(42.7008 1.19084e-07 0)
(42.7008 1.19129e-07 0)
(42.7007 1.1918e-07 0)
(42.7007 1.19241e-07 0)
(42.7006 1.1931e-07 0)
(42.7005 1.19391e-07 0)
(42.7004 1.19485e-07 0)
(42.7002 1.19591e-07 0)
(42.7001 1.19711e-07 0)
(42.6999 1.19847e-07 0)
(42.6997 1.20012e-07 0)
(42.6995 1.20189e-07 0)
(42.6993 1.20397e-07 0)
(42.699 1.20628e-07 0)
(42.6986 1.20889e-07 0)
(42.6982 1.21182e-07 0)
(42.6978 1.21508e-07 0)
(42.6973 1.21875e-07 0)
(42.6967 1.22278e-07 0)
(42.6961 1.22732e-07 0)
(42.6953 1.23233e-07 0)
(42.6945 1.23792e-07 0)
(42.6935 1.24398e-07 0)
(42.6925 1.25065e-07 0)
(42.6913 1.25796e-07 0)
(42.69 1.26589e-07 0)
(42.6885 1.27444e-07 0)
(42.6869 1.28371e-07 0)
(42.6851 1.2937e-07 0)
(42.6831 1.30441e-07 0)
(42.6809 1.31581e-07 0)
(42.6784 1.32792e-07 0)
(42.6757 1.3408e-07 0)
(42.6728 1.3543e-07 0)
(42.6696 1.36842e-07 0)
(42.6661 1.38313e-07 0)
(42.6623 1.39832e-07 0)
(42.6582 1.41389e-07 0)
(42.6538 1.4298e-07 0)
(42.6491 1.44589e-07 0)
(42.644 1.46201e-07 0)
(42.6385 1.47803e-07 0)
(42.6327 1.49373e-07 0)
(42.6266 1.50893e-07 0)
(42.6201 1.52341e-07 0)
(42.6132 1.53688e-07 0)
(42.606 1.5492e-07 0)
(42.5984 1.55998e-07 0)
(42.5906 1.56902e-07 0)
(42.5824 1.57597e-07 0)
(42.5739 1.58059e-07 0)
(42.5652 1.58262e-07 0)
(42.5562 1.5817e-07 0)
(42.5471 1.57762e-07 0)
(42.5378 1.57002e-07 0)
(42.5284 1.55876e-07 0)
(42.519 1.54351e-07 0)
(42.5095 1.52418e-07 0)
(42.5001 1.50057e-07 0)
(42.4908 1.47257e-07 0)
(42.4816 1.44022e-07 0)
(42.4727 1.40335e-07 0)
(42.4641 1.36213e-07 0)
(42.4558 1.31669e-07 0)
(42.448 1.26719e-07 0)
(42.4406 1.21386e-07 0)
(42.4337 1.15694e-07 0)
(42.4275 1.09667e-07 0)
(42.4219 1.03321e-07 0)
(42.417 9.66758e-08 0)
(42.4129 8.97587e-08 0)
(42.4095 8.25999e-08 0)
(42.4069 7.5231e-08 0)
(42.4052 6.76872e-08 0)
(42.4044 6.0189e-08 0)
(42.4044 5.43001e-08 0)
(42.4053 4.38564e-08 0)
(42.4071 3.63695e-08 0)
(42.4097 2.88261e-08 0)
(42.4132 2.12094e-08 0)
(42.4175 1.41262e-08 0)
(42.4225 6.97756e-09 0)
(42.4283 9.45123e-10 0)
(42.4348 -3.25132e-09 0)
(42.4419 -6.45647e-09 0)
(42.4495 -8.9257e-09 0)
(42.4577 -1.08302e-08 0)
(42.4663 -1.2152e-08 0)
(42.4752 -1.22283e-08 0)
(42.4845 -1.15873e-08 0)
(42.4939 -1.04555e-08 0)
(42.5035 -8.81689e-09 0)
(42.5132 -6.9445e-09 0)
(42.5229 -3.9752e-09 0)
(42.5325 -2.977e-10 0)
(42.542 3.24006e-09 0)
(42.5514 7.0652e-09 0)
(42.5605 1.08593e-08 0)
(42.5693 1.50225e-08 0)
(42.5778 1.95046e-08 0)
(42.5859 2.41231e-08 0)
(42.5937 2.89769e-08 0)
(42.601 3.3872e-08 0)
(42.608 3.88378e-08 0)
(42.6144 4.39555e-08 0)
(42.6205 4.90283e-08 0)
(42.6261 5.40615e-08 0)
(42.6312 5.89867e-08 0)
(42.6359 6.37038e-08 0)
(42.6402 6.83736e-08 0)
(42.6441 7.28442e-08 0)
(42.6476 7.71208e-08 0)
(42.6507 8.11808e-08 0)
(42.6535 8.49051e-08 0)
(42.6559 8.84496e-08 0)
(42.658 9.17457e-08 0)
(42.6599 9.47992e-08 0)
(42.6614 9.76164e-08 0)
(42.6628 1.00099e-07 0)
(42.6639 1.02357e-07 0)
(42.6649 1.04407e-07 0)
(42.6656 1.06256e-07 0)
(42.6663 1.07911e-07 0)
(42.6668 1.09329e-07 0)
(42.6671 1.10545e-07 0)
(42.6674 1.11612e-07 0)
(42.6676 1.1254e-07 0)
(42.6677 1.13355e-07 0)
(42.6678 1.14021e-07 0)
(42.6678 1.14526e-07 0)
(42.6678 1.1496e-07 0)
(42.6678 1.1537e-07 0)
(42.6677 1.15678e-07 0)
(42.6676 1.15939e-07 0)
(42.6675 1.16107e-07 0)
(42.6674 1.16221e-07 0)
(42.6673 1.16301e-07 0)
(42.6671 1.16353e-07 0)
(42.667 1.16398e-07 0)
(42.6669 1.16395e-07 0)
(42.6668 1.16359e-07 0)
(42.6667 1.16305e-07 0)
(42.6665 1.16249e-07 0)
(42.6664 1.16204e-07 0)
(42.6663 1.16133e-07 0)
(42.6662 1.16037e-07 0)
(42.6661 1.15931e-07 0)
(42.6661 1.15824e-07 0)
(42.666 1.15735e-07 0)
(42.6659 1.15647e-07 0)
(42.6659 1.15566e-07 0)
(42.6658 1.15379e-07 0)
(42.6658 1.15276e-07 0)
(42.6658 1.15141e-07 0)
(42.6657 1.15084e-07 0)
(42.6657 1.15001e-07 0)
(42.6657 1.14844e-07 0)
(42.6657 1.14705e-07 0)
(42.6658 1.14599e-07 0)
(42.6658 1.14466e-07 0)
(42.6658 1.14413e-07 0)
(42.6659 1.14292e-07 0)
(42.6659 1.14161e-07 0)
(42.666 1.14045e-07 0)
(42.6661 1.13941e-07 0)
(42.6662 1.13852e-07 0)
(42.6663 1.13768e-07 0)
(42.6664 1.1367e-07 0)
(42.6665 1.13571e-07 0)
(42.6666 1.13488e-07 0)
(42.6667 1.13413e-07 0)
(42.6669 1.13344e-07 0)
(42.667 1.13274e-07 0)
(42.6672 1.13206e-07 0)
(42.6673 1.13137e-07 0)
(42.6675 1.13087e-07 0)
(42.6676 1.13042e-07 0)
(42.6678 1.13004e-07 0)
(42.668 1.12959e-07 0)
(42.6682 1.12915e-07 0)
(42.6683 1.12885e-07 0)
(42.6685 1.1286e-07 0)
(42.6687 1.12846e-07 0)
(42.6689 1.1283e-07 0)
(42.6691 1.1281e-07 0)
(42.6693 1.12797e-07 0)
(42.6695 1.12794e-07 0)
(42.6697 1.12796e-07 0)
(42.6699 1.12798e-07 0)
(42.67 1.12796e-07 0)
(42.6702 1.12799e-07 0)
(42.6704 1.1281e-07 0)
(42.6706 1.12829e-07 0)
(42.6708 1.12846e-07 0)
(42.671 1.12858e-07 0)
(42.6712 1.12869e-07 0)
(42.6714 1.12885e-07 0)
(42.6715 1.12906e-07 0)
(42.6717 1.12929e-07 0)
(42.6719 1.1295e-07 0)
(42.6721 1.12967e-07 0)
(42.6722 1.12986e-07 0)
(42.6724 1.13011e-07 0)
(42.6726 1.13039e-07 0)
(42.6727 1.13063e-07 0)
(42.6729 1.13084e-07 0)
(42.673 1.13105e-07 0)
(42.6732 1.13125e-07 0)
(42.6733 1.13149e-07 0)
(42.6735 1.13174e-07 0)
(42.6736 1.13194e-07 0)
(42.6738 1.13221e-07 0)
(42.6739 1.13238e-07 0)
(42.6741 1.1326e-07 0)
(42.6742 1.13283e-07 0)
(42.6743 1.13301e-07 0)
(42.6745 1.13321e-07 0)
(42.6746 1.13341e-07 0)
(42.6747 1.13359e-07 0)
(42.6749 1.13378e-07 0)
(42.675 1.13397e-07 0)
(42.6751 1.1341e-07 0)
(42.6752 1.13429e-07 0)
(42.6754 1.13447e-07 0)
(42.6755 1.13465e-07 0)
(42.6756 1.13481e-07 0)
(42.6757 1.13494e-07 0)
(42.6758 1.13507e-07 0)
(42.6759 1.13519e-07 0)
(42.676 1.13533e-07 0)
(42.6761 1.13547e-07 0)
(42.6762 1.13558e-07 0)
(42.6764 1.1357e-07 0)
(42.6765 1.13579e-07 0)
(42.6766 1.13595e-07 0)
(42.6767 1.13608e-07 0)
(42.6768 1.13621e-07 0)
(42.6769 1.13615e-07 0)
(42.677 1.13654e-07 0)
(42.677 1.13649e-07 0)
(42.6771 1.13656e-07 0)
(42.6772 1.13671e-07 0)
(42.6773 1.13682e-07 0)
(42.6774 1.13687e-07 0)
(42.6775 1.13696e-07 0)
(42.6776 1.13701e-07 0)
(42.6777 1.13714e-07 0)
(42.6778 1.13726e-07 0)
(42.6778 1.13734e-07 0)
(42.6779 1.13736e-07 0)
(42.678 1.13743e-07 0)
(42.6781 1.13756e-07 0)
(42.6782 1.13763e-07 0)
(42.6782 1.13774e-07 0)
(42.6783 1.13838e-07 0)
(42.6784 1.13715e-07 0)
(42.6785 1.1378e-07 0)
(42.6785 1.13796e-07 0)
(42.6786 1.13804e-07 0)
(42.6787 1.13828e-07 0)
(42.6788 1.13796e-07 0)
(42.6788 1.13817e-07 0)
(42.6789 1.13826e-07 0)
(42.679 1.13832e-07 0)
(42.679 1.13836e-07 0)
(42.6791 1.13837e-07 0)
(42.6792 1.13845e-07 0)
(42.6792 1.13847e-07 0)
(42.6793 1.13854e-07 0)
(42.6794 1.13861e-07 0)
(42.6794 1.13799e-07 0)
(42.6795 1.13934e-07 0)
(42.6796 1.13881e-07 0)
(42.6796 1.13877e-07 0)
(42.6797 1.13886e-07 0)
(42.6797 1.13891e-07 0)
(42.6798 1.13882e-07 0)
(42.6799 1.1392e-07 0)
(42.6799 1.13906e-07 0)
(42.68 1.13921e-07 0)
(42.68 1.13931e-07 0)
(42.6801 1.13942e-07 0)
(42.6802 1.13969e-07 0)
(42.6802 1.13931e-07 0)
(42.6803 1.1396e-07 0)
(42.6803 1.13976e-07 0)
(42.6804 1.13983e-07 0)
(42.6804 1.13929e-07 0)
(42.6805 1.12594e-07 0)
(42.6805 1.15242e-07 0)
(42.6806 1.14333e-07 0)
(42.6806 1.14106e-07 0)
(42.6807 1.14271e-07 0)
(42.6807 1.14872e-07 0)
(42.6808 1.14536e-07 0)
(42.6808 1.16058e-07 0)
(42.6808 1.19231e-07 0)
(42.6809 1.26278e-07 0)
(42.6809 1.43235e-07 0)
(42.681 1.83977e-07 0)
(42.681 2.80536e-07 0)
(42.681 5.10319e-07 0)
(42.6811 1.07026e-06 0)
(42.6811 2.39695e-06 0)
(42.6811 5.57507e-06 0)
(42.6811 1.31806e-05 0)
(42.6809 3.13834e-05 0)
(42.6806 7.49872e-05 0)
(42.6797 0.000179124 0)
(42.6775 0.000426002 0)
(42.6722 0.00101587 0)
(42.6597 0.00242049 0)
(42.6298 0.00575596 0)
(42.5587 0.0136521 0)
(42.3908 0.0323186 0)
(41.9931 0.0769427 0)
(41.1059 0.191367 0)
(37.7077 0.501076 0)
(42.7001 0.000149886 0)
(42.7002 0.000119699 0)
(42.7003 0.000105988 0)
(42.7004 0.000108408 0)
(42.7005 0.000110371 0)
(42.7006 0.000110834 0)
(42.7006 0.00011097 0)
(42.7007 0.000110821 0)
(42.7008 0.000110093 0)
(42.7009 0.000108493 0)
(42.701 0.000105728 0)
(42.701 0.000101534 0)
(42.7011 9.57512e-05 0)
(42.7012 8.83855e-05 0)
(42.7012 7.96371e-05 0)
(42.7013 6.98841e-05 0)
(42.7013 5.9628e-05 0)
(42.7013 4.94141e-05 0)
(42.7014 3.97446e-05 0)
(42.7014 3.10163e-05 0)
(42.7014 2.34856e-05 0)
(42.7014 1.72639e-05 0)
(42.7014 1.23255e-05 0)
(42.7014 8.55505e-06 0)
(42.7014 5.78052e-06 0)
(42.7014 3.80917e-06 0)
(42.7014 2.45645e-06 0)
(42.7014 1.55612e-06 0)
(42.7014 9.75938e-07 0)
(42.7014 6.13041e-07 0)
(42.7014 3.92443e-07 0)
(42.7014 2.62014e-07 0)
(42.7014 1.86932e-07 0)
(42.7013 1.44809e-07 0)
(42.7013 1.21762e-07 0)
(42.7013 1.09456e-07 0)
(42.7013 1.03029e-07 0)
(42.7013 9.97518e-08 0)
(42.7013 9.8119e-08 0)
(42.7013 9.73225e-08 0)
(42.7013 9.69385e-08 0)
(42.7013 9.67622e-08 0)
(42.7013 9.66793e-08 0)
(42.7013 9.66415e-08 0)
(42.7013 9.66266e-08 0)
(42.7013 9.66208e-08 0)
(42.7013 9.66187e-08 0)
(42.7013 9.66188e-08 0)
(42.7013 9.66195e-08 0)
(42.7013 9.66189e-08 0)
(42.7013 9.66222e-08 0)
(42.7013 9.66206e-08 0)
(42.7012 9.66218e-08 0)
(42.7012 9.66238e-08 0)
(42.7012 9.66238e-08 0)
(42.7012 9.6627e-08 0)
(42.7012 9.6628e-08 0)
(42.7012 9.66241e-08 0)
(42.7012 9.66253e-08 0)
(42.7012 9.66295e-08 0)
(42.7012 9.66296e-08 0)
(42.7012 9.66299e-08 0)
(42.7012 9.66336e-08 0)
(42.7012 9.66359e-08 0)
(42.7012 9.66402e-08 0)
(42.7012 9.66424e-08 0)
(42.7012 9.66437e-08 0)
(42.7011 9.66461e-08 0)
(42.7011 9.66474e-08 0)
(42.7011 9.66525e-08 0)
(42.7011 9.66601e-08 0)
(42.7011 9.66657e-08 0)
(42.7011 9.66765e-08 0)
(42.7011 9.66811e-08 0)
(42.7011 9.66915e-08 0)
(42.7011 9.67041e-08 0)
(42.701 9.67171e-08 0)
(42.701 9.67308e-08 0)
(42.701 9.67473e-08 0)
(42.701 9.67704e-08 0)
(42.7009 9.67939e-08 0)
(42.7009 9.68213e-08 0)
(42.7008 9.68532e-08 0)
(42.7008 9.68921e-08 0)
(42.7007 9.69376e-08 0)
(42.7007 9.69864e-08 0)
(42.7006 9.70471e-08 0)
(42.7005 9.71145e-08 0)
(42.7004 9.71945e-08 0)
(42.7002 9.72834e-08 0)
(42.7001 9.73875e-08 0)
(42.6999 9.75011e-08 0)
(42.6997 9.7632e-08 0)
(42.6995 9.77799e-08 0)
(42.6993 9.79489e-08 0)
(42.699 9.81378e-08 0)
(42.6986 9.8352e-08 0)
(42.6982 9.8591e-08 0)
(42.6978 9.88582e-08 0)
(42.6973 9.9158e-08 0)
(42.6967 9.94885e-08 0)
(42.6961 9.98536e-08 0)
(42.6953 1.00258e-07 0)
(42.6945 1.00698e-07 0)
(42.6936 1.01183e-07 0)
(42.6925 1.01715e-07 0)
(42.6913 1.02291e-07 0)
(42.69 1.02916e-07 0)
(42.6885 1.03593e-07 0)
(42.6869 1.04316e-07 0)
(42.6851 1.05091e-07 0)
(42.6831 1.05914e-07 0)
(42.6809 1.06783e-07 0)
(42.6784 1.07705e-07 0)
(42.6757 1.08666e-07 0)
(42.6728 1.09672e-07 0)
(42.6696 1.10711e-07 0)
(42.6661 1.11778e-07 0)
(42.6623 1.12865e-07 0)
(42.6582 1.13969e-07 0)
(42.6538 1.15069e-07 0)
(42.6491 1.16164e-07 0)
(42.644 1.17238e-07 0)
(42.6385 1.18271e-07 0)
(42.6327 1.19248e-07 0)
(42.6266 1.20161e-07 0)
(42.6201 1.20979e-07 0)
(42.6132 1.21693e-07 0)
(42.606 1.22271e-07 0)
(42.5984 1.22699e-07 0)
(42.5906 1.22959e-07 0)
(42.5824 1.23017e-07 0)
(42.5739 1.22854e-07 0)
(42.5652 1.22452e-07 0)
(42.5562 1.21788e-07 0)
(42.5471 1.20844e-07 0)
(42.5378 1.19593e-07 0)
(42.5284 1.18029e-07 0)
(42.519 1.16138e-07 0)
(42.5095 1.139e-07 0)
(42.5001 1.11313e-07 0)
(42.4908 1.0837e-07 0)
(42.4816 1.05075e-07 0)
(42.4727 1.0143e-07 0)
(42.4641 9.74445e-08 0)
(42.4558 9.31265e-08 0)
(42.448 8.8505e-08 0)
(42.4406 8.35946e-08 0)
(42.4337 7.84232e-08 0)
(42.4275 7.30259e-08 0)
(42.4219 6.74405e-08 0)
(42.417 6.17088e-08 0)
(42.4129 5.58799e-08 0)
(42.4095 4.99996e-08 0)
(42.407 4.41307e-08 0)
(42.4053 3.83464e-08 0)
(42.4044 3.2882e-08 0)
(42.4044 2.88378e-08 0)
(42.4053 2.14479e-08 0)
(42.4071 1.66817e-08 0)
(42.4097 1.2272e-08 0)
(42.4132 8.06516e-09 0)
(42.4175 4.44767e-09 0)
(42.4225 1.23607e-09 0)
(42.4283 -8.08593e-10 0)
(42.4348 -1.36258e-09 0)
(42.4419 -1.50797e-09 0)
(42.4495 -2.32324e-09 0)
(42.4577 -3.0813e-09 0)
(42.4663 -3.53939e-09 0)
(42.4752 -3.32002e-09 0)
(42.4845 -2.80489e-09 0)
(42.4939 -1.97112e-09 0)
(42.5035 -6.9895e-10 0)
(42.5132 8.40197e-10 0)
(42.5229 3.0792e-09 0)
(42.5325 5.66161e-09 0)
(42.542 8.28747e-09 0)
(42.5514 1.13874e-08 0)
(42.5605 1.47655e-08 0)
(42.5693 1.85131e-08 0)
(42.5778 2.2536e-08 0)
(42.5859 2.66714e-08 0)
(42.5937 3.08634e-08 0)
(42.601 3.5045e-08 0)
(42.608 3.92553e-08 0)
(42.6145 4.35354e-08 0)
(42.6205 4.77279e-08 0)
(42.6261 5.1797e-08 0)
(42.6312 5.56827e-08 0)
(42.6359 5.93816e-08 0)
(42.6402 6.29961e-08 0)
(42.6441 6.64187e-08 0)
(42.6476 6.96246e-08 0)
(42.6507 7.25893e-08 0)
(42.6535 7.52751e-08 0)
(42.6559 7.77768e-08 0)
(42.658 8.00833e-08 0)
(42.6599 8.21668e-08 0)
(42.6614 8.40239e-08 0)
(42.6628 8.56122e-08 0)
(42.6639 8.70081e-08 0)
(42.6649 8.82371e-08 0)
(42.6656 8.93033e-08 0)
(42.6663 9.02112e-08 0)
(42.6668 9.0928e-08 0)
(42.6671 9.14923e-08 0)
(42.6674 9.19491e-08 0)
(42.6676 9.23159e-08 0)
(42.6678 9.25997e-08 0)
(42.6678 9.27737e-08 0)
(42.6678 9.28333e-08 0)
(42.6678 9.28444e-08 0)
(42.6678 9.28572e-08 0)
(42.6677 9.28113e-08 0)
(42.6676 9.27338e-08 0)
(42.6675 9.2605e-08 0)
(42.6674 9.24453e-08 0)
(42.6673 9.22677e-08 0)
(42.6672 9.20957e-08 0)
(42.667 9.19323e-08 0)
(42.6669 9.17533e-08 0)
(42.6668 9.15561e-08 0)
(42.6667 9.13563e-08 0)
(42.6665 9.11665e-08 0)
(42.6664 9.09956e-08 0)
(42.6663 9.08307e-08 0)
(42.6662 9.06545e-08 0)
(42.6661 9.04838e-08 0)
(42.6661 9.03126e-08 0)
(42.666 9.01634e-08 0)
(42.6659 9.00245e-08 0)
(42.6659 8.99035e-08 0)
(42.6658 8.9708e-08 0)
(42.6658 8.95923e-08 0)
(42.6658 8.94511e-08 0)
(42.6657 8.93694e-08 0)
(42.6657 8.92761e-08 0)
(42.6657 8.91395e-08 0)
(42.6657 8.90191e-08 0)
(42.6658 8.89365e-08 0)
(42.6658 8.88265e-08 0)
(42.6658 8.8783e-08 0)
(42.6659 8.86907e-08 0)
(42.6659 8.86047e-08 0)
(42.666 8.85353e-08 0)
(42.6661 8.84763e-08 0)
(42.6662 8.8422e-08 0)
(42.6663 8.83763e-08 0)
(42.6664 8.83239e-08 0)
(42.6665 8.82817e-08 0)
(42.6666 8.82461e-08 0)
(42.6667 8.82273e-08 0)
(42.6669 8.8207e-08 0)
(42.667 8.81897e-08 0)
(42.6672 8.81751e-08 0)
(42.6673 8.81669e-08 0)
(42.6675 8.81717e-08 0)
(42.6676 8.81818e-08 0)
(42.6678 8.81929e-08 0)
(42.668 8.82033e-08 0)
(42.6682 8.8221e-08 0)
(42.6684 8.82458e-08 0)
(42.6685 8.82768e-08 0)
(42.6687 8.83095e-08 0)
(42.6689 8.8346e-08 0)
(42.6691 8.83851e-08 0)
(42.6693 8.84251e-08 0)
(42.6695 8.84691e-08 0)
(42.6697 8.85221e-08 0)
(42.6699 8.85734e-08 0)
(42.6701 8.8629e-08 0)
(42.6702 8.86789e-08 0)
(42.6704 8.87389e-08 0)
(42.6706 8.87989e-08 0)
(42.6708 8.88613e-08 0)
(42.671 8.89233e-08 0)
(42.6712 8.89861e-08 0)
(42.6714 8.90519e-08 0)
(42.6715 8.91176e-08 0)
(42.6717 8.91818e-08 0)
(42.6719 8.9242e-08 0)
(42.6721 8.93084e-08 0)
(42.6722 8.9368e-08 0)
(42.6724 8.94313e-08 0)
(42.6726 8.94996e-08 0)
(42.6727 8.95652e-08 0)
(42.6729 8.96257e-08 0)
(42.673 8.96854e-08 0)
(42.6732 8.97461e-08 0)
(42.6733 8.98082e-08 0)
(42.6735 8.98614e-08 0)
(42.6736 8.99221e-08 0)
(42.6738 8.99738e-08 0)
(42.6739 9.00294e-08 0)
(42.6741 9.00882e-08 0)
(42.6742 9.01457e-08 0)
(42.6743 9.0202e-08 0)
(42.6745 9.02493e-08 0)
(42.6746 9.03019e-08 0)
(42.6747 9.03547e-08 0)
(42.6749 9.0403e-08 0)
(42.675 9.04516e-08 0)
(42.6751 9.04962e-08 0)
(42.6752 9.05396e-08 0)
(42.6754 9.05857e-08 0)
(42.6755 9.06321e-08 0)
(42.6756 9.06799e-08 0)
(42.6757 9.0724e-08 0)
(42.6758 9.07639e-08 0)
(42.6759 9.08058e-08 0)
(42.676 9.0847e-08 0)
(42.6761 9.08911e-08 0)
(42.6763 9.09319e-08 0)
(42.6764 9.0972e-08 0)
(42.6765 9.10077e-08 0)
(42.6766 9.10493e-08 0)
(42.6767 9.10876e-08 0)
(42.6768 9.11244e-08 0)
(42.6769 9.11421e-08 0)
(42.677 9.12076e-08 0)
(42.6771 9.12306e-08 0)
(42.6771 9.12707e-08 0)
(42.6772 9.13085e-08 0)
(42.6773 9.1344e-08 0)
(42.6774 9.13734e-08 0)
(42.6775 9.14087e-08 0)
(42.6776 9.14384e-08 0)
(42.6777 9.14748e-08 0)
(42.6778 9.15096e-08 0)
(42.6778 9.15471e-08 0)
(42.6779 9.15744e-08 0)
(42.678 9.16064e-08 0)
(42.6781 9.1638e-08 0)
(42.6782 9.16675e-08 0)
(42.6782 9.17033e-08 0)
(42.6783 9.17748e-08 0)
(42.6784 9.17002e-08 0)
(42.6785 9.17704e-08 0)
(42.6785 9.18084e-08 0)
(42.6786 9.1837e-08 0)
(42.6787 9.18733e-08 0)
(42.6788 9.18674e-08 0)
(42.6788 9.19017e-08 0)
(42.6789 9.19315e-08 0)
(42.679 9.19603e-08 0)
(42.679 9.19843e-08 0)
(42.6791 9.20028e-08 0)
(42.6792 9.20282e-08 0)
(42.6792 9.20453e-08 0)
(42.6793 9.20728e-08 0)
(42.6794 9.20912e-08 0)
(42.6794 9.20648e-08 0)
(42.6795 9.21895e-08 0)
(42.6796 9.21647e-08 0)
(42.6796 9.21822e-08 0)
(42.6797 9.22077e-08 0)
(42.6798 9.2225e-08 0)
(42.6798 9.22368e-08 0)
(42.6799 9.22765e-08 0)
(42.6799 9.22878e-08 0)
(42.68 9.2315e-08 0)
(42.6801 9.23371e-08 0)
(42.6801 9.23601e-08 0)
(42.6802 9.23911e-08 0)
(42.6802 9.23778e-08 0)
(42.6803 9.24134e-08 0)
(42.6803 9.24362e-08 0)
(42.6804 9.24591e-08 0)
(42.6804 9.24841e-08 0)
(42.6805 8.9431e-08 0)
(42.6805 9.50098e-08 0)
(42.6806 9.3266e-08 0)
(42.6806 9.27251e-08 0)
(42.6807 9.30186e-08 0)
(42.6807 9.43594e-08 0)
(42.6808 9.37627e-08 0)
(42.6808 9.64262e-08 0)
(42.6808 1.0276e-07 0)
(42.6809 1.16834e-07 0)
(42.6809 1.50616e-07 0)
(42.681 2.31818e-07 0)
(42.681 4.23508e-07 0)
(42.681 8.78153e-07 0)
(42.6811 1.99134e-06 0)
(42.6811 4.62439e-06 0)
(42.6811 1.09339e-05 0)
(42.6811 2.60332e-05 0)
(42.6809 6.21704e-05 0)
(42.6806 0.00014873 0)
(42.6797 0.000355502 0)
(42.6776 0.000845691 0)
(42.6724 0.00201669 0)
(42.6601 0.0048058 0)
(42.6308 0.0114297 0)
(42.5612 0.0271124 0)
(42.3966 0.0641853 0)
(42.0077 0.152709 0)
(41.1445 0.378601 0)
(37.9826 0.959026 0)
(42.7 9.73059e-05 0)
(42.7002 9.88357e-05 0)
(42.7003 9.45552e-05 0)
(42.7003 9.88314e-05 0)
(42.7004 0.000102567 0)
(42.7005 0.000104405 0)
(42.7006 0.000105497 0)
(42.7007 0.000106141 0)
(42.7007 0.000106131 0)
(42.7008 0.000105194 0)
(42.7009 0.000103054 0)
(42.701 9.94551e-05 0)
(42.7011 9.42323e-05 0)
(42.7011 8.73781e-05 0)
(42.7012 7.90753e-05 0)
(42.7012 6.96871e-05 0)
(42.7013 5.97063e-05 0)
(42.7013 4.96783e-05 0)
(42.7013 4.01121e-05 0)
(42.7014 3.14213e-05 0)
(42.7014 2.38799e-05 0)
(42.7014 1.76152e-05 0)
(42.7014 1.2619e-05 0)
(42.7014 8.7871e-06 0)
(42.7014 5.95554e-06 0)