/*--------------------------------*- C++ -*----------------------------------*\
| =========                 |                                                 |
| \\      /  F ield         | OpenFOAM: The Open Source CFD Toolbox           |
|  \\    /   O peration     | Version:  3.0.x                                 |
|   \\  /    A nd           | Web:      www.OpenFOAM.org                      |
|    \\/     M anipulation  |                                                 |
\*---------------------------------------------------------------------------*/
FoamFile
{
    version     2.0;
    format      ascii;
    class       volVectorField;
    location    "0.03";
    object      U;
}
// * * * * * * * * * * * * * * * * * * * * * * * * * * * * * * * * * * * * * //

dimensions      [0 1 -1 0 0 0 0];

internalField   nonuniform List<vector> 
6900
(
(42.6983 0.000100076 0)
(42.6967 8.63431e-05 0)
(42.6952 7.43483e-05 0)
(42.694 6.1402e-05 0)
(42.6929 4.63114e-05 0)
(42.6922 3.1734e-05 0)
(42.6918 1.9856e-05 0)
(42.6915 1.14045e-05 0)
(42.6913 6.05103e-06 0)
(42.6913 2.99339e-06 0)
(42.6912 1.40155e-06 0)
(42.6912 6.39582e-07 0)
(42.6912 3.01608e-07 0)
(42.6912 1.61836e-07 0)
(42.6912 1.07647e-07 0)
(42.6912 8.78594e-08 0)
(42.6911 8.10249e-08 0)
(42.6911 7.87822e-08 0)
(42.6911 7.80844e-08 0)
(42.6911 7.78795e-08 0)
(42.6911 7.78167e-08 0)
(42.6911 7.78009e-08 0)
(42.6911 7.77964e-08 0)
(42.6911 7.77945e-08 0)
(42.6911 7.77942e-08 0)
(42.6911 7.7798e-08 0)
(42.6911 7.78e-08 0)
(42.6911 7.78011e-08 0)
(42.6911 7.78014e-08 0)
(42.691 7.78024e-08 0)
(42.691 7.78024e-08 0)
(42.691 7.78021e-08 0)
(42.691 7.78035e-08 0)
(42.691 7.78055e-08 0)
(42.691 7.78056e-08 0)
(42.691 7.78083e-08 0)
(42.691 7.78077e-08 0)
(42.691 7.78118e-08 0)
(42.691 7.78106e-08 0)
(42.691 7.78099e-08 0)
(42.691 7.78129e-08 0)
(42.691 7.78149e-08 0)
(42.691 7.78144e-08 0)
(42.6909 7.7816e-08 0)
(42.6909 7.78156e-08 0)
(42.6909 7.78145e-08 0)
(42.6909 7.78129e-08 0)
(42.6909 7.7817e-08 0)
(42.6909 7.78171e-08 0)
(42.6909 7.78194e-08 0)
(42.6909 7.78213e-08 0)
(42.6909 7.7824e-08 0)
(42.6909 7.78217e-08 0)
(42.6909 7.78242e-08 0)
(42.6909 7.78245e-08 0)
(42.6909 7.78227e-08 0)
(42.6909 7.78251e-08 0)
(42.6908 7.78293e-08 0)
(42.6908 7.78293e-08 0)
(42.6908 7.78306e-08 0)
(42.6908 7.78294e-08 0)
(42.6908 7.78287e-08 0)
(42.6908 7.78295e-08 0)
(42.6908 7.78306e-08 0)
(42.6908 7.78328e-08 0)
(42.6908 7.78373e-08 0)
(42.6908 7.78382e-08 0)
(42.6908 7.78363e-08 0)
(42.6908 7.7837e-08 0)
(42.6908 7.78362e-08 0)
(42.6907 7.78382e-08 0)
(42.6907 7.78387e-08 0)
(42.6907 7.78384e-08 0)
(42.6907 7.784e-08 0)
(42.6907 7.78397e-08 0)
(42.6907 7.78421e-08 0)
(42.6907 7.78416e-08 0)
(42.6907 7.78451e-08 0)
(42.6907 7.78275e-08 0)
(42.6907 7.78403e-08 0)
(42.6907 7.78433e-08 0)
(42.6907 7.78433e-08 0)
(42.6907 7.78474e-08 0)
(42.6907 7.78514e-08 0)
(42.6907 7.78519e-08 0)
(42.6907 7.78522e-08 0)
(42.6907 7.78533e-08 0)
(42.6907 7.78547e-08 0)
(42.6906 7.78573e-08 0)
(42.6906 7.78598e-08 0)
(42.6906 7.78587e-08 0)
(42.6906 7.78586e-08 0)
(42.6906 7.78642e-08 0)
(42.6906 7.78681e-08 0)
(42.6905 7.78738e-08 0)
(42.6905 7.78848e-08 0)
(42.6904 7.79028e-08 0)
(42.6902 7.79237e-08 0)
(42.69 7.79549e-08 0)
(42.6896 7.79972e-08 0)
(42.6892 7.80565e-08 0)
(42.6885 7.81366e-08 0)
(42.6875 7.82423e-08 0)
(42.6862 7.83821e-08 0)
(42.6843 7.85604e-08 0)
(42.6818 7.87857e-08 0)
(42.6784 7.9066e-08 0)
(42.6738 7.93976e-08 0)
(42.6679 7.97907e-08 0)
(42.6603 8.02529e-08 0)
(42.6506 8.07334e-08 0)
(42.6384 8.12324e-08 0)
(42.6235 8.17094e-08 0)
(42.6053 8.21117e-08 0)
(42.5838 8.2353e-08 0)
(42.5585 8.23421e-08 0)
(42.5296 8.19517e-08 0)
(42.497 8.10399e-08 0)
(42.4612 7.94608e-08 0)
(42.4228 7.7059e-08 0)
(42.3827 7.37083e-08 0)
(42.3418 6.93161e-08 0)
(42.3017 6.38526e-08 0)
(42.2636 5.73683e-08 0)
(42.2292 5.0048e-08 0)
(42.2 4.21808e-08 0)
(42.1772 3.38074e-08 0)
(42.1618 2.43345e-08 0)
(42.1543 1.18973e-08 0)
(42.1546 3.10386e-09 0)
(42.1622 -6.42074e-09 0)
(42.1766 -1.21648e-08 0)
(42.1963 -1.53975e-08 0)
(42.2198 -1.75205e-08 0)
(42.2453 -1.73847e-08 0)
(42.2706 -1.49154e-08 0)
(42.2942 -1.18802e-08 0)
(42.3144 -7.25411e-09 0)
(42.3302 -1.61851e-09 0)
(42.3409 3.68981e-09 0)
(42.3462 9.16117e-09 0)
(42.3464 1.29529e-08 0)
(42.342 1.81189e-08 0)
(42.3335 2.17066e-08 0)
(42.3216 2.40215e-08 0)
(42.3073 2.51993e-08 0)
(42.2912 2.57092e-08 0)
(42.2742 2.50222e-08 0)
(42.2568 2.37385e-08 0)
(42.2394 2.24055e-08 0)
(42.2222 2.02833e-08 0)
(42.2055 1.78852e-08 0)
(42.1894 1.59977e-08 0)
(42.1737 1.35565e-08 0)
(42.1587 1.09762e-08 0)
(42.1441 9.07305e-09 0)
(42.13 6.75342e-09 0)
(42.1163 4.43216e-09 0)
(42.103 2.47072e-09 0)
(42.0901 1.81385e-10 0)
(42.0775 -2.11506e-09 0)
(42.0653 -4.2528e-09 0)
(42.0534 -6.34151e-09 0)
(42.0419 -8.30895e-09 0)
(42.0308 -1.04228e-08 0)
(42.02 -1.26315e-08 0)
(42.0097 -1.44585e-08 0)
(41.9997 -1.64656e-08 0)
(41.9902 -1.85233e-08 0)
(41.9812 -2.04218e-08 0)
(41.9726 -2.23036e-08 0)
(41.9645 -2.41276e-08 0)
(41.9569 -2.5904e-08 0)
(41.9498 -2.77664e-08 0)
(41.9434 -2.93911e-08 0)
(41.9375 -3.09895e-08 0)
(41.9322 -3.26039e-08 0)
(41.9275 -3.41226e-08 0)
(41.9234 -3.55617e-08 0)
(41.92 -3.6892e-08 0)
(41.9171 -3.80847e-08 0)
(41.9149 -3.92926e-08 0)
(41.9132 -4.04208e-08 0)
(41.9121 -4.13661e-08 0)
(41.9116 -4.20313e-08 0)
(41.9115 -4.29435e-08 0)
(41.912 -4.04081e-08 0)
(41.9129 -6.00314e-08 0)
(41.9144 -2.26089e-08 0)
(41.9163 -7.24971e-08 0)
(41.9185 -1.19954e-08 0)
(41.9212 -7.14543e-08 0)
(41.9241 2.62427e-07 0)
(41.9272 7.40152e-08 0)
(41.9304 4.68604e-06 0)
(41.9331 3.43563e-05 0)
(41.9313 0.00024706 0)
(41.8974 0.00177314 0)
(41.7254 0.0157709 0)
(39.2957 0.0839018 0)
(42.7001 0.000127474 0)
(42.7002 9.30686e-05 0)
(42.7004 7.21672e-05 0)
(42.7004 5.8968e-05 0)
(42.7005 4.44882e-05 0)
(42.7005 3.04173e-05 0)
(42.7005 1.90264e-05 0)
(42.7006 1.09485e-05 0)
(42.7006 5.82622e-06 0)
(42.7006 2.89223e-06 0)
(42.7005 1.35894e-06 0)
(42.7005 6.21937e-07 0)
(42.7005 2.93393e-07 0)
(42.7005 1.56731e-07 0)
(42.7005 1.034e-07 0)
(42.7005 8.37829e-08 0)
(42.7005 7.69531e-08 0)
(42.7005 7.46945e-08 0)
(42.7005 7.39834e-08 0)
(42.7005 7.37674e-08 0)
(42.7005 7.3711e-08 0)
(42.7005 7.36912e-08 0)
(42.7005 7.36883e-08 0)
(42.7005 7.36877e-08 0)
(42.7004 7.36906e-08 0)
(42.7004 7.36909e-08 0)
(42.7004 7.36904e-08 0)
(42.7004 7.36912e-08 0)
(42.7004 7.36936e-08 0)
(42.7004 7.36939e-08 0)
(42.7004 7.36917e-08 0)
(42.7004 7.36954e-08 0)
(42.7004 7.3695e-08 0)
(42.7004 7.36968e-08 0)
(42.7004 7.36954e-08 0)
(42.7004 7.36977e-08 0)
(42.7004 7.36989e-08 0)
(42.7003 7.36968e-08 0)
(42.7003 7.37e-08 0)
(42.7003 7.36991e-08 0)
(42.7003 7.37013e-08 0)
(42.7003 7.37027e-08 0)
(42.7003 7.37012e-08 0)
(42.7003 7.37035e-08 0)
(42.7003 7.37037e-08 0)
(42.7003 7.37037e-08 0)
(42.7003 7.37072e-08 0)
(42.7003 7.37077e-08 0)
(42.7003 7.37081e-08 0)
(42.7003 7.37093e-08 0)
(42.7003 7.37102e-08 0)
(42.7002 7.37109e-08 0)
(42.7002 7.3711e-08 0)
(42.7002 7.37111e-08 0)
(42.7002 7.37139e-08 0)
(42.7002 7.37134e-08 0)
(42.7002 7.37154e-08 0)
(42.7002 7.37159e-08 0)
(42.7002 7.37175e-08 0)
(42.7002 7.37165e-08 0)
(42.7002 7.37152e-08 0)
(42.7002 7.37182e-08 0)
(42.7002 7.37182e-08 0)
(42.7002 7.372e-08 0)
(42.7001 7.37201e-08 0)
(42.7001 7.37199e-08 0)
(42.7001 7.37212e-08 0)
(42.7001 7.37227e-08 0)
(42.7001 7.37231e-08 0)
(42.7001 7.37265e-08 0)
(42.7001 7.37259e-08 0)
(42.7001 7.37261e-08 0)
(42.7001 7.37281e-08 0)
(42.7001 7.3727e-08 0)
(42.7001 7.37296e-08 0)
(42.7001 7.37303e-08 0)
(42.7001 7.37314e-08 0)
(42.7001 7.3731e-08 0)
(42.7001 7.3735e-08 0)
(42.7 7.3739e-08 0)
(42.7 7.37401e-08 0)
(42.7 7.37404e-08 0)
(42.7 7.3739e-08 0)
(42.7 7.37384e-08 0)
(42.7 7.37401e-08 0)
(42.7 7.37409e-08 0)
(42.7 7.37421e-08 0)
(42.7 7.37427e-08 0)
(42.7 7.37433e-08 0)
(42.7 7.3748e-08 0)
(42.7 7.37492e-08 0)
(42.7 7.37588e-08 0)
(42.7 7.37675e-08 0)
(42.6999 7.37793e-08 0)
(42.6999 7.37969e-08 0)
(42.6998 7.38237e-08 0)
(42.6997 7.3861e-08 0)
(42.6996 7.39177e-08 0)
(42.6993 7.39967e-08 0)
(42.699 7.41126e-08 0)
(42.6985 7.42719e-08 0)
(42.6978 7.44904e-08 0)
(42.6969 7.47835e-08 0)
(42.6955 7.5179e-08 0)
(42.6937 7.56996e-08 0)
(42.6911 7.6371e-08 0)
(42.6877 7.7226e-08 0)
(42.6832 7.82938e-08 0)
(42.6773 7.95982e-08 0)
(42.6696 8.11512e-08 0)
(42.6599 8.29595e-08 0)
(42.6478 8.50126e-08 0)
(42.6328 8.72577e-08 0)
(42.6147 8.96026e-08 0)
(42.5931 9.19223e-08 0)
(42.5679 9.40275e-08 0)
(42.5389 9.56805e-08 0)
(42.5064 9.66012e-08 0)
(42.4706 9.64682e-08 0)
(42.4322 9.49558e-08 0)
(42.392 9.17573e-08 0)
(42.3512 8.66181e-08 0)
(42.311 7.939e-08 0)
(42.273 7.00675e-08 0)
(42.2386 5.88284e-08 0)
(42.2094 4.6046e-08 0)
(42.1865 3.19101e-08 0)
(42.1711 1.62314e-08 0)
(42.1636 -1.61822e-09 0)
(42.164 -1.22016e-08 0)
(42.1716 -2.54487e-08 0)
(42.1859 -3.40599e-08 0)
(42.2057 -3.87396e-08 0)
(42.2292 -4.12224e-08 0)
(42.2546 -3.97866e-08 0)
(42.28 -3.44726e-08 0)
(42.3035 -2.75794e-08 0)
(42.3238 -1.78978e-08 0)
(42.3396 -6.24994e-09 0)
(42.3502 4.75771e-09 0)
(42.3555 1.37089e-08 0)
(42.3557 1.9869e-08 0)
(42.3513 2.89213e-08 0)
(42.3428 3.505e-08 0)
(42.3309 3.89133e-08 0)
(42.3166 4.10236e-08 0)
(42.3006 4.16115e-08 0)
(42.2835 4.02966e-08 0)
(42.2661 3.80556e-08 0)
(42.2487 3.54512e-08 0)
(42.2315 3.17641e-08 0)
(42.2148 2.78079e-08 0)
(42.1987 2.45033e-08 0)
(42.1831 2.05908e-08 0)
(42.168 1.66347e-08 0)
(42.1534 1.36214e-08 0)
(42.1393 1.01802e-08 0)
(42.1256 6.78489e-09 0)
(42.1123 3.86202e-09 0)
(42.0994 5.18883e-10 0)
(42.0868 -2.2585e-09 0)
(42.0746 -4.4811e-09 0)
(42.0627 -6.67255e-09 0)
(42.0512 -8.7767e-09 0)
(42.0401 -1.1017e-08 0)
(42.0293 -1.33603e-08 0)
(42.019 -1.5298e-08 0)
(42.009 -1.74394e-08 0)
(41.9995 -1.96466e-08 0)
(41.9904 -2.17051e-08 0)
(41.9818 -2.37553e-08 0)
(41.9737 -2.57446e-08 0)
(41.9662 -2.7718e-08 0)
(41.9591 -2.97933e-08 0)
(41.9526 -3.16103e-08 0)
(41.9467 -3.34326e-08 0)
(41.9414 -3.5278e-08 0)
(41.9368 -3.70173e-08 0)
(41.9327 -3.86708e-08 0)
(41.9292 -4.01966e-08 0)
(41.9264 -4.15652e-08 0)
(41.9241 -4.29501e-08 0)
(41.9225 -4.42327e-08 0)
(41.9214 -4.52947e-08 0)
(41.9208 -4.59265e-08 0)
(41.9208 -4.69414e-08 0)
(41.9212 -4.30544e-08 0)
(41.9222 -7.39496e-08 0)
(41.9236 -3.11676e-08 0)
(41.9255 -5.68856e-08 0)
(41.9278 -4.03071e-08 0)
(41.9304 5.23606e-08 0)
(41.9333 6.97801e-07 0)
(41.9365 3.55288e-06 0)
(41.9397 2.7089e-05 0)
(41.9424 0.000195822 0)
(41.9407 0.00140689 0)
(41.9079 0.0100348 0)
(41.7411 0.0731194 0)
(39.8674 0.357676 0)
(42.7001 -1.97374e-12 0)
(42.7002 -2.42532e-12 0)
(42.7003 -1.42641e-12 0)
(42.7004 -2.33481e-13 0)
(42.7005 -1.52909e-12 0)
(42.7005 -5.24116e-12 0)
(42.7005 -7.54765e-12 0)
(42.7005 -6.71213e-12 0)
(42.7006 -2.63447e-12 0)
(42.7005 -1.09848e-13 0)
(42.7005 -2.08455e-12 0)
(42.7005 -5.88476e-12 0)
(42.7005 -9.58692e-12 0)
(42.7005 -1.05715e-11 0)
(42.7005 -1.05707e-11 0)
(42.7005 -7.33952e-12 0)
(42.7005 -3.84011e-12 0)
(42.7005 -1.25002e-12 0)
(42.7005 1.28517e-12 0)
(42.7005 2.45115e-12 0)
(42.7005 4.14248e-12 0)
(42.7005 5.08868e-12 0)
(42.7005 5.23088e-12 0)
(42.7005 4.51182e-12 0)
(42.7004 3.4852e-12 0)
(42.7004 1.63696e-13 0)
(42.7004 -1.96979e-12 0)
(42.7004 -1.12987e-12 0)
(42.7004 2.08393e-13 0)
(42.7004 -2.95066e-13 0)
(42.7004 -1.55062e-12 0)
(42.7004 -1.41256e-12 0)
(42.7004 2.27245e-14 0)
(42.7004 6.36034e-13 0)
(42.7004 2.06542e-13 0)
(42.7004 -4.64209e-13 0)
(42.7004 -1.14551e-12 0)
(42.7003 6.27187e-13 0)
(42.7003 1.37193e-12 0)
(42.7003 2.33169e-12 0)
(42.7003 3.63877e-12 0)
(42.7003 3.97172e-12 0)
(42.7003 5.42269e-12 0)
(42.7003 5.04941e-12 0)
(42.7003 3.84054e-12 0)
(42.7003 3.30548e-12 0)
(42.7003 3.41543e-12 0)
(42.7003 2.39855e-12 0)
(42.7003 1.0287e-12 0)
(42.7003 -3.90769e-13 0)
(42.7003 -1.67206e-12 0)
(42.7002 -3.01191e-12 0)
(42.7002 -2.95487e-12 0)
(42.7002 -1.5434e-12 0)
(42.7002 -1.78716e-12 0)
(42.7002 -6.80859e-13 0)
(42.7002 1.17603e-12 0)
(42.7002 2.07086e-12 0)
(42.7002 1.98232e-12 0)
(42.7002 1.42174e-12 0)
(42.7002 3.73579e-13 0)
(42.7002 -4.19158e-14 0)
(42.7002 -3.35119e-13 0)
(42.7002 1.36775e-12 0)
(42.7001 2.20667e-12 0)
(42.7001 2.96028e-12 0)
(42.7001 2.39513e-12 0)
(42.7001 1.49127e-12 0)
(42.7001 4.07437e-13 0)
(42.7001 -8.36183e-13 0)
(42.7001 -7.3406e-13 0)
(42.7001 -1.55606e-13 0)
(42.7001 3.2579e-13 0)
(42.7001 6.8352e-13 0)
(42.7001 -4.70217e-14 0)
(42.7001 -7.12404e-13 0)
(42.7001 -1.21338e-12 0)
(42.7001 3.42499e-13 0)
(42.7001 -2.43396e-14 0)
(42.7 -4.62623e-12 0)
(42.7 -8.85676e-12 0)
(42.7 -1.23167e-11 0)
(42.7 -1.3233e-11 0)
(42.7 -1.17099e-11 0)
(42.7 -9.16406e-12 0)
(42.7 -5.40683e-12 0)
(42.7 -5.08323e-13 0)
(42.7 3.37735e-12 0)
(42.7 3.54142e-12 0)
(42.7 3.39545e-12 0)
(42.7 2.81763e-12 0)
(42.7 1.25322e-12 0)
(42.7 1.64725e-12 0)
(42.6999 1.68374e-12 0)
(42.6999 2.67793e-12 0)
(42.6998 4.01206e-12 0)
(42.6997 4.14484e-12 0)
(42.6996 1.37201e-12 0)
(42.6993 -6.36059e-13 0)
(42.699 -3.75909e-12 0)
(42.6985 -4.08378e-12 0)
(42.6978 -3.34518e-12 0)
(42.6969 -1.49986e-12 0)
(42.6955 5.48134e-13 0)
(42.6937 1.59605e-12 0)
(42.6911 5.86394e-13 0)
(42.6877 -2.12403e-13 0)
(42.6832 -1.57518e-12 0)
(42.6773 -2.12766e-12 0)
(42.6696 4.74794e-13 0)
(42.6599 4.89009e-12 0)
(42.6478 1.12321e-11 0)
(42.6328 1.27976e-11 0)
(42.6147 1.20858e-11 0)
(42.5931 8.81382e-12 0)
(42.5679 4.86178e-12 0)
(42.5389 7.50822e-13 0)
(42.5064 -1.29961e-12 0)
(42.4706 -2.41279e-12 0)
(42.4322 -3.17966e-12 0)
(42.392 -5.74334e-12 0)
(42.3512 -6.90347e-12 0)
(42.311 -6.12322e-12 0)
(42.273 -6.90871e-12 0)
(42.2386 -6.69691e-12 0)
(42.2094 -5.77819e-12 0)
(42.1865 -5.40045e-12 0)
(42.1711 -4.08038e-12 0)
(42.1636 -3.4743e-12 0)
(42.164 -1.051e-12 0)
(42.1716 1.10994e-12 0)
(42.1859 7.85674e-13 0)
(42.2057 -1.00749e-12 0)
(42.2292 -7.34725e-13 0)
(42.2546 -6.59613e-13 0)
(42.28 2.24361e-12 0)
(42.3035 3.88229e-12 0)
(42.3238 2.4666e-12 0)
(42.3396 2.11398e-12 0)
(42.3502 3.047e-12 0)
(42.3555 2.93161e-12 0)
(42.3557 3.49198e-12 0)
(42.3513 3.67372e-12 0)
(42.3428 3.67692e-12 0)
(42.3309 1.78622e-12 0)
(42.3166 2.50686e-12 0)
(42.3006 3.38558e-12 0)
(42.2835 3.26407e-12 0)
(42.2661 3.54328e-12 0)
(42.2487 2.23239e-12 0)
(42.2315 3.93849e-12 0)
(42.2148 1.60109e-12 0)
(42.1987 -1.9553e-12 0)
(42.1831 -4.05375e-12 0)
(42.168 -1.90878e-12 0)
(42.1534 1.23922e-12 0)
(42.1393 9.6928e-13 0)
(42.1256 -8.03955e-13 0)
(42.1123 -2.25762e-12 0)
(42.0994 -1.48842e-12 0)
(42.0868 3.07208e-12 0)
(42.0746 3.22499e-12 0)
(42.0627 2.88743e-12 0)
(42.0512 3.05174e-12 0)
(42.0401 3.44026e-12 0)
(42.0293 1.65566e-12 0)
(42.019 1.37242e-13 0)
(42.009 -1.3927e-12 0)
(41.9995 -1.42751e-12 0)
(41.9904 -2.78277e-12 0)
(41.9818 -4.16677e-12 0)
(41.9737 -5.05387e-12 0)
(41.9662 -2.58061e-12 0)
(41.9591 6.66654e-14 0)
(41.9526 -5.44866e-13 0)
(41.9467 -1.90625e-12 0)
(41.9414 -2.50599e-12 0)
(41.9368 -1.68102e-12 0)
(41.9327 -1.87977e-12 0)
(41.9292 -1.74504e-12 0)
(41.9264 -1.59939e-12 0)
(41.9241 -2.92173e-12 0)
(41.9225 -3.06051e-12 0)
(41.9214 -1.05673e-13 0)
(41.9208 5.42607e-11 0)
(41.9208 -4.63117e-12 0)
(41.9212 5.27838e-10 0)
(41.9222 -5.3072e-09 0)
(41.9236 -9.21275e-09 0)
(41.9255 1.66965e-08 0)
(41.9278 -1.0482e-08 0)
(41.9304 2.05204e-07 0)
(41.9333 1.05775e-06 0)
(41.9365 8.14496e-06 0)
(41.9398 5.68597e-05 0)
(41.9432 0.0004141 0)
(41.9464 0.00300463 0)
(41.9475 0.0215898 0)
(41.9321 0.154566 0)
(41.7813 0.719221 0)
(42.7001 -0.000127474 0)
(42.7002 -9.30686e-05 0)
(42.7004 -7.21672e-05 0)
(42.7004 -5.8968e-05 0)
(42.7005 -4.44882e-05 0)
(42.7005 -3.04173e-05 0)
(42.7005 -1.90264e-05 0)
(42.7006 -1.09485e-05 0)
(42.7006 -5.82622e-06 0)
(42.7006 -2.89223e-06 0)
(42.7005 -1.35894e-06 0)
(42.7005 -6.21931e-07 0)
(42.7005 -2.93389e-07 0)
(42.7005 -1.56726e-07 0)
(42.7005 -1.03396e-07 0)
(42.7005 -8.37812e-08 0)
(42.7005 -7.69543e-08 0)
(42.7005 -7.4696e-08 0)
(42.7005 -7.39851e-08 0)
(42.7005 -7.37734e-08 0)
(42.7005 -7.37105e-08 0)
(42.7005 -7.36932e-08 0)
(42.7005 -7.3688e-08 0)
(42.7005 -7.36887e-08 0)
(42.7004 -7.36906e-08 0)
(42.7004 -7.36891e-08 0)
(42.7004 -7.36898e-08 0)
(42.7004 -7.36924e-08 0)
(42.7004 -7.36931e-08 0)
(42.7004 -7.36928e-08 0)
(42.7004 -7.36913e-08 0)
(42.7004 -7.36921e-08 0)
(42.7004 -7.36961e-08 0)
(42.7004 -7.36961e-08 0)
(42.7004 -7.36968e-08 0)
(42.7004 -7.36972e-08 0)
(42.7004 -7.36966e-08 0)
(42.7003 -7.36995e-08 0)
(42.7003 -7.37003e-08 0)
(42.7003 -7.36993e-08 0)
(42.7003 -7.37019e-08 0)
(42.7003 -7.37047e-08 0)
(42.7003 -7.37053e-08 0)
(42.7003 -7.37031e-08 0)
(42.7003 -7.37046e-08 0)
(42.7003 -7.37068e-08 0)
(42.7003 -7.37063e-08 0)
(42.7003 -7.37067e-08 0)
(42.7003 -7.37075e-08 0)
(42.7003 -7.37089e-08 0)
(42.7003 -7.37084e-08 0)
(42.7002 -7.37133e-08 0)
(42.7002 -7.37092e-08 0)
(42.7002 -7.37106e-08 0)
(42.7002 -7.37119e-08 0)
(42.7002 -7.37142e-08 0)
(42.7002 -7.37132e-08 0)
(42.7002 -7.37147e-08 0)
(42.7002 -7.3715e-08 0)
(42.7002 -7.37176e-08 0)
(42.7002 -7.37183e-08 0)
(42.7002 -7.37185e-08 0)
(42.7002 -7.37189e-08 0)
(42.7002 -7.37207e-08 0)
(42.7001 -7.37212e-08 0)
(42.7001 -7.37211e-08 0)
(42.7001 -7.37223e-08 0)
(42.7001 -7.37231e-08 0)
(42.7001 -7.37251e-08 0)
(42.7001 -7.37229e-08 0)
(42.7001 -7.37263e-08 0)
(42.7001 -7.37258e-08 0)
(42.7001 -7.37292e-08 0)
(42.7001 -7.37307e-08 0)
(42.7001 -7.37287e-08 0)
(42.7001 -7.37306e-08 0)
(42.7001 -7.37302e-08 0)
(42.7001 -7.37312e-08 0)
(42.7001 -7.3733e-08 0)
(42.7 -7.37319e-08 0)
(42.7 -7.3734e-08 0)
(42.7 -7.37344e-08 0)
(42.7 -7.37373e-08 0)
(42.7 -7.37375e-08 0)
(42.7 -7.37382e-08 0)
(42.7 -7.37387e-08 0)
(42.7 -7.37405e-08 0)
(42.7 -7.37442e-08 0)
(42.7 -7.37452e-08 0)
(42.7 -7.37499e-08 0)
(42.7 -7.37524e-08 0)
(42.7 -7.37589e-08 0)
(42.7 -7.3764e-08 0)
(42.6999 -7.37779e-08 0)
(42.6999 -7.37974e-08 0)
(42.6998 -7.38237e-08 0)
(42.6997 -7.38614e-08 0)
(42.6996 -7.39187e-08 0)
(42.6993 -7.39971e-08 0)
(42.699 -7.41117e-08 0)
(42.6985 -7.42693e-08 0)
(42.6978 -7.44877e-08 0)
(42.6969 -7.47847e-08 0)
(42.6955 -7.51787e-08 0)
(42.6937 -7.5699e-08 0)
(42.6911 -7.63706e-08 0)
(42.6877 -7.72268e-08 0)
(42.6832 -7.82919e-08 0)
(42.6773 -7.95962e-08 0)
(42.6696 -8.11515e-08 0)
(42.6599 -8.29669e-08 0)
(42.6478 -8.5019e-08 0)
(42.6328 -8.72624e-08 0)
(42.6147 -8.96085e-08 0)
(42.5931 -9.19235e-08 0)
(42.5679 -9.4028e-08 0)
(42.5389 -9.56792e-08 0)
(42.5064 -9.65998e-08 0)
(42.4706 -9.64671e-08 0)
(42.4322 -9.4957e-08 0)
(42.392 -9.17553e-08 0)
(42.3512 -8.66179e-08 0)
(42.311 -7.93893e-08 0)
(42.273 -7.00664e-08 0)
(42.2386 -5.88265e-08 0)
(42.2094 -4.60466e-08 0)
(42.1865 -3.19087e-08 0)
(42.1711 -1.62324e-08 0)
(42.1636 1.61742e-09 0)
(42.164 1.22011e-08 0)
(42.1716 2.54477e-08 0)
(42.1859 3.40598e-08 0)
(42.2057 3.87391e-08 0)
(42.2292 4.12243e-08 0)
(42.2546 3.97889e-08 0)
(42.28 3.44703e-08 0)
(42.3035 2.75779e-08 0)
(42.3238 1.78991e-08 0)
(42.3396 6.25009e-09 0)
(42.3502 -4.76001e-09 0)
(42.3555 -1.37102e-08 0)
(42.3557 -1.98687e-08 0)
(42.3513 -2.89237e-08 0)
(42.3428 -3.50513e-08 0)
(42.3309 -3.89139e-08 0)
(42.3166 -4.10248e-08 0)
(42.3006 -4.1613e-08 0)
(42.2835 -4.02975e-08 0)
(42.2661 -3.80567e-08 0)
(42.2487 -3.5452e-08 0)
(42.2315 -3.17651e-08 0)
(42.2148 -2.78068e-08 0)
(42.1987 -2.45019e-08 0)
(42.1831 -2.05871e-08 0)
(42.168 -1.66341e-08 0)
(42.1534 -1.36219e-08 0)
(42.1393 -1.01824e-08 0)
(42.1256 -6.78361e-09 0)
(42.1123 -3.85981e-09 0)
(42.0994 -5.17602e-10 0)
(42.0868 2.25875e-09 0)
(42.0746 4.48082e-09 0)
(42.0627 6.6734e-09 0)
(42.0512 8.77506e-09 0)
(42.0401 1.10159e-08 0)
(42.0293 1.33603e-08 0)
(42.019 1.52991e-08 0)
(42.009 1.74401e-08 0)
(41.9995 1.96446e-08 0)
(41.9904 2.17062e-08 0)
(41.9818 2.37551e-08 0)
(41.9737 2.57455e-08 0)
(41.9662 2.77146e-08 0)
(41.9591 2.97905e-08 0)
(41.9526 3.16115e-08 0)
(41.9467 3.34326e-08 0)
(41.9414 3.52764e-08 0)
(41.9368 3.70178e-08 0)
(41.9327 3.86725e-08 0)
(41.9292 4.01959e-08 0)
(41.9264 4.15649e-08 0)
(41.9241 4.29505e-08 0)
(41.9225 4.42332e-08 0)
(41.9214 4.53022e-08 0)
(41.9208 4.61446e-08 0)
(41.9208 4.68076e-08 0)
(41.9212 4.61463e-08 0)
(41.9222 5.5955e-08 0)
(41.9236 4.20631e-08 0)
(41.9255 4.75216e-08 0)
(41.9278 6.52671e-08 0)
(41.9304 1.45221e-07 0)
(41.9333 7.5137e-07 0)
(41.9365 5.6254e-06 0)
(41.94 4.09207e-05 0)
(41.9445 0.000299265 0)
(41.9555 0.00218772 0)
(42.0141 0.0160234 0)
(42.2231 0.132805 0)
(45.3491 0.566152 0)
(42.6983 -0.000100076 0)
(42.6967 -8.63431e-05 0)
(42.6952 -7.43483e-05 0)
(42.694 -6.1402e-05 0)
(42.6929 -4.63114e-05 0)
(42.6922 -3.1734e-05 0)
(42.6918 -1.9856e-05 0)
(42.6915 -1.14045e-05 0)
(42.6913 -6.05103e-06 0)
(42.6913 -2.9934e-06 0)
(42.6912 -1.40156e-06 0)
(42.6912 -6.39589e-07 0)
(42.6912 -3.01616e-07 0)
(42.6912 -1.61841e-07 0)
(42.6912 -1.07652e-07 0)
(42.6912 -8.78613e-08 0)
(42.6911 -8.10217e-08 0)
(42.6911 -7.87806e-08 0)
(42.6911 -7.80818e-08 0)
(42.6911 -7.78727e-08 0)
(42.6911 -7.7814e-08 0)
(42.6911 -7.78006e-08 0)
(42.6911 -7.77978e-08 0)
(42.6911 -7.7796e-08 0)
(42.6911 -7.77934e-08 0)
(42.6911 -7.77975e-08 0)
(42.6911 -7.78015e-08 0)
(42.6911 -7.77999e-08 0)
(42.6911 -7.77985e-08 0)
(42.691 -7.78032e-08 0)
(42.691 -7.78042e-08 0)
(42.691 -7.78045e-08 0)
(42.691 -7.78054e-08 0)
(42.691 -7.78068e-08 0)
(42.691 -7.78079e-08 0)
(42.691 -7.78104e-08 0)
(42.691 -7.78071e-08 0)
(42.691 -7.78076e-08 0)
(42.691 -7.78084e-08 0)
(42.691 -7.78126e-08 0)
(42.691 -7.78076e-08 0)
(42.691 -7.78085e-08 0)
(42.691 -7.78106e-08 0)
(42.6909 -7.78128e-08 0)
(42.6909 -7.78171e-08 0)
(42.6909 -7.78147e-08 0)
(42.6909 -7.78175e-08 0)
(42.6909 -7.78189e-08 0)
(42.6909 -7.78227e-08 0)
(42.6909 -7.78198e-08 0)
(42.6909 -7.78223e-08 0)
(42.6909 -7.78215e-08 0)
(42.6909 -7.78229e-08 0)
(42.6909 -7.78235e-08 0)
(42.6909 -7.78239e-08 0)
(42.6909 -7.78233e-08 0)
(42.6909 -7.78275e-08 0)
(42.6908 -7.78266e-08 0)
(42.6908 -7.78271e-08 0)
(42.6908 -7.78262e-08 0)
(42.6908 -7.78288e-08 0)
(42.6908 -7.78296e-08 0)
(42.6908 -7.78332e-08 0)
(42.6908 -7.78296e-08 0)
(42.6908 -7.78317e-08 0)
(42.6908 -7.78312e-08 0)
(42.6908 -7.78332e-08 0)
(42.6908 -7.78349e-08 0)
(42.6908 -7.78368e-08 0)
(42.6908 -7.78357e-08 0)
(42.6907 -7.78388e-08 0)
(42.6907 -7.78359e-08 0)
(42.6907 -7.78372e-08 0)
(42.6907 -7.78379e-08 0)
(42.6907 -7.78442e-08 0)
(42.6907 -7.78433e-08 0)
(42.6907 -7.7842e-08 0)
(42.6907 -7.78437e-08 0)
(42.6907 -7.78469e-08 0)
(42.6907 -7.78494e-08 0)
(42.6907 -7.78481e-08 0)
(42.6907 -7.78485e-08 0)
(42.6907 -7.78488e-08 0)
(42.6907 -7.78505e-08 0)
(42.6907 -7.78516e-08 0)
(42.6907 -7.78556e-08 0)
(42.6907 -7.78538e-08 0)
(42.6907 -7.78522e-08 0)
(42.6906 -7.78518e-08 0)
(42.6906 -7.78577e-08 0)
(42.6906 -7.78572e-08 0)
(42.6906 -7.78607e-08 0)
(42.6906 -7.78653e-08 0)
(42.6906 -7.78709e-08 0)
(42.6905 -7.7874e-08 0)
(42.6905 -7.78869e-08 0)
(42.6904 -7.79034e-08 0)
(42.6902 -7.79234e-08 0)
(42.69 -7.79554e-08 0)
(42.6896 -7.79975e-08 0)
(42.6892 -7.80567e-08 0)
(42.6885 -7.81393e-08 0)
(42.6875 -7.8244e-08 0)
(42.6862 -7.83804e-08 0)
(42.6843 -7.85605e-08 0)
(42.6818 -7.87855e-08 0)
(42.6784 -7.90653e-08 0)
(42.6738 -7.93969e-08 0)
(42.6679 -7.97926e-08 0)
(42.6603 -8.02412e-08 0)
(42.6506 -8.07252e-08 0)
(42.6384 -8.12252e-08 0)
(42.6235 -8.17057e-08 0)
(42.6053 -8.21078e-08 0)
(42.5838 -8.23544e-08 0)
(42.5585 -8.23412e-08 0)
(42.5296 -8.19521e-08 0)
(42.497 -8.10416e-08 0)
(42.4612 -7.94579e-08 0)
(42.4228 -7.7058e-08 0)
(42.3827 -7.37087e-08 0)
(42.3418 -6.93192e-08 0)
(42.3017 -6.38523e-08 0)
(42.2636 -5.73715e-08 0)
(42.2292 -5.00481e-08 0)
(42.2 -4.21813e-08 0)
(42.1772 -3.38084e-08 0)
(42.1618 -2.43331e-08 0)
(42.1543 -1.18975e-08 0)
(42.1546 -3.10089e-09 0)
(42.1622 6.42047e-09 0)
(42.1766 1.21657e-08 0)
(42.1963 1.53972e-08 0)
(42.2198 1.75198e-08 0)
(42.2453 1.73845e-08 0)
(42.2706 1.49165e-08 0)
(42.2942 1.18796e-08 0)
(42.3144 7.25389e-09 0)
(42.3302 1.61666e-09 0)
(42.3409 -3.68889e-09 0)
(42.3462 -9.16214e-09 0)
(42.3464 -1.29528e-08 0)
(42.342 -1.81162e-08 0)
(42.3335 -2.1707e-08 0)
(42.3216 -2.40197e-08 0)
(42.3073 -2.51966e-08 0)
(42.2912 -2.57084e-08 0)
(42.2742 -2.50216e-08 0)
(42.2568 -2.37356e-08 0)
(42.2394 -2.24065e-08 0)
(42.2222 -2.02811e-08 0)
(42.2055 -1.78888e-08 0)
(42.1894 -1.60011e-08 0)
(42.1737 -1.35602e-08 0)
(42.1587 -1.09752e-08 0)
(42.1441 -9.07028e-09 0)
(42.13 -6.75394e-09 0)
(42.1163 -4.43274e-09 0)
(42.103 -2.47452e-09 0)
(42.0901 -1.827e-10 0)
(42.0775 2.11647e-09 0)
(42.0653 4.2535e-09 0)
(42.0534 6.34198e-09 0)
(42.0419 8.31286e-09 0)
(42.0308 1.04244e-08 0)
(42.02 1.26316e-08 0)
(42.0097 1.4457e-08 0)
(41.9997 1.64644e-08 0)
(41.9902 1.85236e-08 0)
(41.9812 2.04192e-08 0)
(41.9726 2.23035e-08 0)
(41.9645 2.41249e-08 0)
(41.9569 2.59074e-08 0)
(41.9498 2.77677e-08 0)
(41.9434 2.93913e-08 0)
(41.9375 3.09885e-08 0)
(41.9322 3.26032e-08 0)
(41.9275 3.41207e-08 0)
(41.9234 3.55595e-08 0)
(41.92 3.68913e-08 0)
(41.9171 3.80882e-08 0)
(41.9149 3.92935e-08 0)
(41.9132 4.04196e-08 0)
(41.9121 4.13668e-08 0)
(41.9116 4.21915e-08 0)
(41.9115 4.2813e-08 0)
(41.912 4.29675e-08 0)
(41.9129 4.73423e-08 0)
(41.9144 4.2715e-08 0)
(41.9163 4.64254e-08 0)
(41.9185 4.74443e-08 0)
(41.9212 6.38019e-08 0)
(41.9241 1.2908e-07 0)
(41.9273 9.593e-07 0)
(41.9307 6.46544e-06 0)
(41.9353 4.66458e-05 0)
(41.9465 0.000343337 0)
(42.008 0.00271752 0)
(42.2314 0.0380104 0)
(47.4202 0.158601 0)
(37.9198 1.28894 -3.15812e-15)
(36.8745 3.6973 6.33392e-15)
(36.4808 6.44504 -1.18741e-14)
(36.1063 9.23653 2.45282e-14)
(35.5215 12.0188 -2.52959e-14)
(34.8359 14.8172 -1.57808e-15)
(34.1326 17.7027 9.67993e-20)
(33.2322 20.6023 -2.19979e-14)
(31.8591 23.2668 -1.02095e-13)
(29.9469 25.5522 1.00519e-13)
(27.6407 27.4553 -2.51511e-14)
(25.1222 29.0894 -5.19607e-14)
(22.6435 30.7918 2.67915e-14)
(20.6264 33.2534 0)
(19.018 36.9311 2.48058e-14)
(17.3929 41.6604 2.44714e-14)
(15.3193 47.0245 -2.41248e-14)
(12.4058 52.0355 2.38794e-14)
(8.85001 55.1213 1.86209e-16)
(5.06082 57.8541 -1.84226e-16)
(39.019 2.02047 0)
(38.4027 4.94008 0)
(38.0091 8.15943 -1.6081e-15)
(37.5155 11.3587 -3.21226e-15)
(36.78 14.5011 8.01817e-15)
(35.9308 17.5918 1.59925e-14)
(35.0266 20.775 0)
(33.7944 24.1234 9.54385e-15)
(31.9092 27.3758 1.59105e-14)
(29.3958 30.1437 -3.81625e-14)
(26.442 32.3342 2.54447e-14)
(23.33 33.9236 1.27444e-14)
(20.5917 34.9922 -1.27785e-14)
(18.7921 36.2991 1.27027e-14)
(17.4218 38.7413 0)
(15.9206 42.2843 -1.5526e-15)
(13.7508 46.8017 1.53097e-15)
(10.0781 51.8266 -5.30293e-15)
(4.53651 56.0084 -7.57422e-16)
(1.70507 57.5099 0)
(41.733 1.59284 -4.1023e-17)
(41.7337 2.63494 -2.08482e-14)
(41.8353 3.69682 2.1174e-14)
(42.0191 4.75673 -2.03517e-14)
(42.2343 5.88394 -2.23234e-14)
(42.4327 7.14277 8.30939e-14)
(42.5952 8.53921 -4.20698e-14)
(42.7487 10.0623 4.07843e-14)
(42.898 11.7631 -8.29527e-14)
(42.9468 13.7487 1.32418e-15)
(42.7598 16.0642 4.08461e-14)
(42.1902 18.7039 0)
(41.0757 21.6121 -4.08573e-14)
(39.2594 24.6215 4.08821e-14)
(36.9782 27.4055 -3.29915e-16)
(34.6726 29.7666 0)
(32.8402 31.6531 3.31269e-16)
(31.8361 33.2505 0)
(31.4639 35.017 0)
(30.9079 37.0721 0)
(45.8843 2.59784 6.27602e-16)
(45.6145 5.97055 -6.29635e-15)
(44.6067 9.98091 -1.26187e-15)
(43.4139 14.0969 2.5213e-15)
(42.3262 18.1564 -2.51065e-15)
(41.2821 22.151 -4.83817e-19)
(40.1061 26.0717 -9.92855e-15)
(38.6561 29.8817 0)
(36.8872 33.5595 0)
(34.796 37.0882 -4.88541e-15)
(32.3763 40.4348 4.86217e-15)
(29.6372 43.5781 0)
(26.5883 46.4762 -4.81728e-15)
(23.2601 49.1013 4.8008e-15)
(19.6802 51.4363 -4.78375e-15)
(15.8728 53.46 9.53489e-15)
(11.8603 55.1396 -4.75655e-15)
(7.6844 56.4311 0)
(3.42462 57.3222 -2.36724e-15)
(-0.405627 57.7353 0)
(48.8628 1.79226 -9.57406e-16)
(49.8158 4.59492 7.3391e-15)
(49.5121 7.96164 5.10591e-15)
(48.6907 11.4892 1.02054e-14)
(47.853 15.1453 0)
(47.0215 18.93 0)
(46.0548 22.7874 1.01078e-14)
(44.8279 26.6468 2.51562e-15)
(43.278 30.4678 -5.00993e-15)
(41.3933 34.1979 2.49499e-15)
(39.1569 37.797 1.98806e-14)
(36.5782 41.2186 -1.23812e-14)
(33.6622 44.4237 1.23444e-14)
(30.4291 47.3789 -2.46101e-15)
(26.9103 50.0448 -9.81998e-15)
(23.1435 52.3624 -1.71564e-14)
(19.1755 54.2424 -8.57053e-15)
(15.0484 55.5646 -1.22448e-15)
(10.8378 56.1685 7.04897e-15)
(6.80474 55.7633 3.07589e-16)
(1.70482 61.0793 0)
(1.32992 56.6154 0)
(1.11341 52.4218 0)
(0.942694 50.27 0)
(0.788876 49.0524 0)
(0.633349 47.9976 0)
(0.474923 46.9119 0)
(0.328594 45.8124 0)
(0.206738 44.7768 0)
(0.118969 43.8889 0)
(0.0627265 43.2005 0)
(0.0304134 42.7178 0)
(0.0136052 42.4097 0)
(0.00562175 42.2287 0)
(0.00214059 42.1296 0)
(0.000745092 42.0785 0)
(0.000232663 42.053 0)
(6.21455e-05 42.0405 0)
(1.2335e-05 42.0341 0)
(3.79273e-07 42.0305 0)
(-1.35984e-06 42.0281 0)
(-1.02755e-06 42.0264 0)
(-5.91568e-07 42.025 0)
(-3.4234e-07 42.0239 0)
(-2.29722e-07 42.023 0)
(-1.85032e-07 42.0223 0)
(-1.68806e-07 42.0219 0)
(-1.63579e-07 42.0217 0)
(-1.6203e-07 42.0218 0)
(-1.61653e-07 42.0221 0)
(-1.61674e-07 42.0227 0)
(-1.61808e-07 42.0236 0)
(-1.61979e-07 42.0248 0)
(-1.62178e-07 42.0262 0)
(-1.6233e-07 42.0279 0)
(-1.62416e-07 42.0299 0)
(-1.62463e-07 42.0322 0)
(-1.62505e-07 42.0348 0)
(-1.62475e-07 42.0377 0)
(-1.62389e-07 42.041 0)
(-1.623e-07 42.0445 0)
(-1.6222e-07 42.0483 0)
(-1.62096e-07 42.0525 0)
(-1.61872e-07 42.0569 0)
(-1.61605e-07 42.0617 0)
(-1.61312e-07 42.0667 0)
(-1.60998e-07 42.072 0)
(-1.60593e-07 42.0777 0)
(-1.60137e-07 42.0836 0)
(-1.59696e-07 42.0897 0)
(-1.59234e-07 42.0962 0)
(-1.5871e-07 42.1028 0)
(-1.58074e-07 42.1098 0)
(-1.57409e-07 42.1169 0)
(-1.56744e-07 42.1243 0)
(-1.56065e-07 42.1319 0)
(-1.55334e-07 42.1397 0)
(-1.5451e-07 42.1478 0)
(-1.5369e-07 42.156 0)
(-1.52871e-07 42.1645 0)
(-1.52015e-07 42.1731 0)
(-1.51101e-07 42.1819 0)
(-1.50066e-07 42.1909 0)
(-1.49093e-07 42.2002 0)
(-1.48135e-07 42.2096 0)
(-1.47128e-07 42.2192 0)
(-1.46115e-07 42.229 0)
(-1.4494e-07 42.2391 0)
(-1.43793e-07 42.2494 0)
(-1.42672e-07 42.2599 0)
(-1.41455e-07 42.2706 0)
(-1.40245e-07 42.2815 0)
(-1.38889e-07 42.2926 0)
(-1.37444e-07 42.3038 0)
(-1.36029e-07 42.315 0)
(-1.34467e-07 42.3262 0)
(-1.32773e-07 42.3371 0)
(-1.3102e-07 42.3476 0)
(-1.28947e-07 42.3575 0)
(-1.26944e-07 42.3664 0)
(-1.2485e-07 42.374 0)
(-1.22603e-07 42.3799 0)
(-1.20284e-07 42.3838 0)
(-1.17986e-07 42.385 0)
(-1.15908e-07 42.3832 0)
(-1.13405e-07 42.3779 0)
(-1.11949e-07 42.3686 0)
(-1.10085e-07 42.355 0)
(-1.09375e-07 42.3367 0)
(-1.08172e-07 42.3135 0)
(-1.08184e-07 42.2855 0)