/*--------------------------------*- C++ -*----------------------------------*\
| =========                 |                                                 |
| \\      /  F ield         | OpenFOAM: The Open Source CFD Toolbox           |
|  \\    /   O peration     | Version:  3.0.x                                 |
|   \\  /    A nd           | Web:      www.OpenFOAM.org                      |
|    \\/     M anipulation  |                                                 |
\*---------------------------------------------------------------------------*/
FoamFile
{
    version     2.0;
    format      ascii;
    class       surfaceScalarField;
    location    "0.18";
    object      phi;
}
// * * * * * * * * * * * * * * * * * * * * * * * * * * * * * * * * * * * * * //

dimensions      [1 0 -1 0 0 0 0];

internalField   nonuniform List<scalar> 
12415
(
5.7764
0.000327881
5.7739
0.000234959
5.7714
0.000225781
5.76891
0.000227469
5.76643
0.000228005
5.76396
0.000227929
5.7615
0.000227992
5.75903
0.000228093
5.75657
0.000228176
5.75411
0.000228244
5.75165
0.000228304
5.7492
0.000228358
5.74675
0.0002284
5.7443
0.000228414
5.74186
0.000228374
5.73943
0.000228226
5.737
0.000227886
5.73456
0.00022723
5.73212
0.000226092
5.72966
0.000224263
5.7272
0.000221496
5.72474
0.000217528
5.72227
0.000212101
5.71981
0.000204999
5.71735
0.000196083
5.7149
0.000185319
5.71246
0.000172803
5.71004
0.000158763
5.70763
0.000143547
5.70526
0.000127596
5.7029
0.0001114
5.70059
9.54585e-05
5.6983
8.02304e-05
5.69605
6.61014e-05
5.69384
5.33559e-05
5.69167
4.21688e-05
5.68954
3.26064e-05
5.68746
2.46407e-05
5.68542
1.81695e-05
5.68343
1.3039e-05
5.68149
9.0666e-06
5.6796
6.05458e-06
5.67777
3.84328e-06
5.67598
2.23029e-06
5.67425
1.08562e-06
5.67258
2.85232e-07
5.67095
-2.55848e-07
5.66938
-6.17238e-07
5.66786
-8.53184e-07
5.66639
-1.00456e-06
5.66496
-1.10179e-06
5.66358
-1.16217e-06
5.66225
-1.20017e-06
5.66095
-1.22281e-06
5.65969
-1.23596e-06
5.65847
-1.24304e-06
5.65727
-1.24614e-06
5.65611
-1.24624e-06
5.65497
-1.24489e-06
5.65385
-1.24167e-06
5.65276
-1.23675e-06
5.65168
-1.23608e-06
5.65061
-1.23354e-06
5.64956
-1.22328e-06
5.64852
-1.21559e-06
5.64749
-1.20968e-06
5.64647
-1.20477e-06
5.64546
-1.19993e-06
5.64446
-1.19515e-06
5.64347
-1.18849e-06
5.64249
-1.18231e-06
5.64151
-1.17809e-06
5.64055
-1.17642e-06
5.63959
-1.17601e-06
5.63864
-1.17559e-06
5.6377
-1.17506e-06
5.63677
-1.17488e-06
5.63585
-1.17526e-06
5.63493
-1.17624e-06
5.63402
-1.17778e-06
5.63312
-1.18004e-06
5.63221
-1.18272e-06
5.63131
-1.18573e-06
5.6304
-1.18921e-06
5.62949
-1.19274e-06
5.62858
-1.19638e-06
5.62765
-1.20005e-06
5.6267
-1.20339e-06
5.62574
-1.20675e-06
5.62477
-1.20945e-06
5.62376
-1.21164e-06
5.62273
-1.21276e-06
5.62167
-1.21317e-06
5.62058
-1.21271e-06
5.61946
-1.21189e-06
5.6183
-1.21049e-06
5.6171
-1.20875e-06
5.61586
-1.20636e-06
5.61458
-1.20323e-06
5.61327
-1.19932e-06
5.61192
-1.19462e-06
5.61053
-1.18923e-06
5.60911
-1.18328e-06
5.60766
-1.17695e-06
5.60619
-1.17073e-06
5.60469
-1.16417e-06
5.60318
-1.15625e-06
5.60166
-1.14922e-06
5.60013
-1.14254e-06
5.59861
-1.13623e-06
5.59708
-1.12951e-06
5.59557
-1.1224e-06
5.59406
-1.11514e-06
5.59258
-1.10819e-06
5.59111
-1.10161e-06
5.58967
-1.09502e-06
5.58825
-1.088e-06
5.58685
-1.08024e-06
5.58548
-1.07176e-06
5.58413
-1.06266e-06
5.5828
-1.05302e-06
5.58148
-1.04296e-06
5.58019
-1.03257e-06
5.57891
-1.02403e-06
5.57763
-1.01198e-06
5.57636
-9.94258e-07
5.5751
-9.84955e-07
5.57382
-9.75344e-07
5.57254
-9.76303e-07
5.57125
-9.52617e-07
5.56994
-9.10646e-07
5.5686
-9.2124e-07
5.56724
-9.06228e-07
5.56584
-8.88967e-07
5.56441
-8.72782e-07
5.56293
-8.57479e-07
5.56142
-8.42951e-07
5.55987
-8.2905e-07
5.55828
-8.16646e-07
5.55666
-8.05325e-07
5.555
-7.95193e-07
5.55331
-7.85873e-07
5.55161
-7.77756e-07
5.54989
-7.71728e-07
5.54818
-7.68228e-07
5.54647
-7.67184e-07
5.54477
-7.68545e-07
5.54311
-7.72096e-07
5.54148
-7.77709e-07
5.53989
-7.85103e-07
5.53835
-7.94154e-07
5.53688
-8.04848e-07
5.53546
-8.17128e-07
5.53411
-8.3066e-07
5.53283
-8.44755e-07
5.53161
-8.5896e-07
5.53046
-8.72946e-07
5.52938
-8.86379e-07
5.52835
-8.99088e-07
5.52738
-9.1123e-07
5.52647
-9.2303e-07
5.52562
-9.35022e-07
5.52481
-9.46518e-07
5.52404
-9.5804e-07
5.52332
-9.67924e-07
5.52262
-9.778e-07
5.52195
-9.84692e-07
5.52129
-9.91891e-07
5.52063
-9.94938e-07
5.51997
-9.98347e-07
5.51929
-9.97636e-07
5.51858
-9.96646e-07
5.51783
-9.92997e-07
5.51704
-9.88081e-07
5.51618
-9.8204e-07
5.51527
-9.7464e-07
5.5143
-9.66984e-07
5.51326
-9.59184e-07
5.51217
-9.51739e-07
5.51102
-9.4461e-07
5.50982
-9.40288e-07
5.50859
-9.35943e-07
5.50734
-9.34702e-07
5.50608
-9.35488e-07
5.50483
-9.38524e-07
5.50361
-9.4475e-07
5.50242
-9.52668e-07
5.50129
-9.63104e-07
5.5002
-9.73834e-07
5.49918
-9.85168e-07
5.49821
-9.84923e-07
5.49729
-9.09891e-07
5.49641
-3.71578e-07
5.49556
3.51704e-06
5.49471
3.06535e-05
5.4937
0.000220262
5.49138
0.00154323
5.47987
0.0107496
5.3937
0.0854476
0.419636
4.97339
11.5535
0.000260488
11.549
0.000214791
11.5445
0.000191199
11.54
0.000194812
11.5356
0.000196084
11.5311
0.000195593
11.5267
0.000195534
11.5222
0.000195631
11.5178
0.000195709
11.5134
0.000195771
11.5089
0.00019583
11.5045
0.000195885
11.5001
0.00019593
11.4957
0.000195954
11.4913
0.000195932
11.4869
0.00019582
11.4825
0.000195546
11.4782
0.000195005
11.4738
0.000194054
11.4693
0.000192515
11.4649
0.000190176
11.4604
0.000186811
11.4559
0.000182198
11.4514
0.000176147
11.4469
0.000168539
11.4424
0.000159343
11.4379
0.000148633
11.4334
0.00013661
11.4289
0.000123565
11.4244
0.000109878
11.42
9.59707e-05
11.4155
8.22712e-05
11.4111
6.91761e-05
11.4068
5.70184e-05
11.4025
4.60446e-05
11.3982
3.6407e-05
11.394
2.81646e-05
11.3899
2.12949e-05
11.3859
1.57111e-05
11.3819
1.12821e-05
11.3781
7.85099e-06
11.3743
5.25006e-06
11.3707
3.33561e-06
11.3671
1.94263e-06
11.3636
9.5289e-07
11.3603
2.56734e-07
11.357
-2.08864e-07
11.3539
-5.22037e-07
11.3508
-7.25905e-07
11.3479
-8.57842e-07
11.345
-9.42224e-07
11.3423
-9.94936e-07
11.3396
-1.02792e-06
11.337
-1.04775e-06
11.3345
-1.05919e-06
11.332
-1.0654e-06
11.3296
-1.06812e-06
11.3273
-1.06828e-06
11.325
-1.06708e-06
11.3228
-1.06438e-06
11.3206
-1.06041e-06
11.3184
-1.0592e-06
11.3163
-1.05721e-06
11.3142
-1.0491e-06
11.3121
-1.04194e-06
11.31
-1.03697e-06
11.308
-1.03275e-06
11.306
-1.02858e-06
11.304
-1.02444e-06
11.302
-1.01895e-06
11.3
-1.01344e-06
11.2981
-1.00987e-06
11.2961
-1.00846e-06
11.2942
-1.00809e-06
11.2923
-1.00773e-06
11.2904
-1.0073e-06
11.2886
-1.00715e-06
11.2867
-1.00749e-06
11.2849
-1.00832e-06
11.2831
-1.00964e-06
11.2813
-1.01157e-06
11.2794
-1.01389e-06
11.2776
-1.01647e-06
11.2758
-1.01942e-06
11.274
-1.02249e-06
11.2722
-1.02558e-06
11.2703
-1.02872e-06
11.2684
-1.03163e-06
11.2665
-1.03446e-06
11.2645
-1.03682e-06
11.2625
-1.03865e-06
11.2605
-1.03966e-06
11.2583
-1.03998e-06
11.2561
-1.03961e-06
11.2539
-1.03887e-06
11.2516
-1.0377e-06
11.2492
-1.03618e-06
11.2467
-1.03416e-06
11.2441
-1.03147e-06
11.2415
-1.02812e-06
11.2388
-1.0241e-06
11.236
-1.01948e-06
11.2332
-1.01438e-06
11.2303
-1.00896e-06
11.2273
-1.00358e-06
11.2243
-9.97981e-07
11.2213
-9.91321e-07
11.2183
-9.85096e-07
11.2152
-9.79469e-07
11.2121
-9.7403e-07
11.2091
-9.68288e-07
11.2061
-9.6218e-07
11.2031
-9.55977e-07
11.2001
-9.5001e-07
11.1971
-9.44353e-07
11.1943
-9.38699e-07
11.1914
-9.32686e-07
11.1886
-9.26052e-07
11.1859
-9.18774e-07
11.1832
-9.10966e-07
11.1805
-9.02706e-07
11.1779
-8.9409e-07
11.1753
-8.8529e-07
11.1727
-8.77599e-07
11.1702
-8.67371e-07
11.1676
-8.52961e-07
11.1651
-8.44105e-07
11.1625
-8.36644e-07
11.16
-8.35572e-07
11.1574
-8.16094e-07
11.1548
-7.83201e-07
11.1521
-7.88236e-07
11.1493
-7.76952e-07
11.1466
-7.62096e-07
11.1437
-7.48208e-07
11.1407
-7.3507e-07
11.1377
-7.22605e-07
11.1346
-7.10753e-07
11.1314
-7.00017e-07
11.1282
-6.9041e-07
11.1249
-6.81686e-07
11.1215
-6.73704e-07
11.1181
-6.66764e-07
11.1146
-6.61594e-07
11.1112
-6.58584e-07
11.1078
-6.57689e-07
11.1044
-6.58844e-07
11.1011
-6.61892e-07
11.0978
-6.66697e-07
11.0946
-6.73042e-07
11.0915
-6.80794e-07
11.0886
-6.89962e-07
11.0858
-7.0048e-07
11.0831
-7.12072e-07
11.0805
-7.2417e-07
11.0781
-7.36349e-07
11.0757
-7.48331e-07
11.0736
-7.59857e-07
11.0715
-7.70758e-07
11.0696
-7.8116e-07
11.0678
-7.91272e-07
11.066
-8.01524e-07
11.0644
-8.1142e-07
11.0629
-8.21243e-07
11.0614
-8.29795e-07
11.06
-8.38153e-07
11.0587
-8.44184e-07
11.0574
-8.50241e-07
11.0561
-8.52976e-07
11.0547
-8.55772e-07
11.0534
-8.55197e-07
11.0519
-8.5438e-07
11.0504
-8.51044e-07
11.0489
-8.47289e-07
11.0471
-8.41564e-07
11.0453
-8.35798e-07
11.0434
-8.28671e-07
11.0413
-8.2209e-07
11.0391
-8.16188e-07
11.0368
-8.0856e-07
11.0344
-8.07341e-07
11.0319
-8.02043e-07
11.0294
-8.01512e-07
11.0269
-8.02238e-07
11.0244
-8.04135e-07
11.022
-8.1016e-07
11.0196
-8.16421e-07
11.0173
-8.26001e-07
11.0152
-8.33583e-07
11.0131
-8.41964e-07
11.0112
-8.16935e-07
11.0093
-5.73451e-07
11.0076
1.03211e-06
11.0059
1.25743e-05
11.0042
9.29166e-05
11.0021
0.000654167
10.9976
0.00456877
10.9751
0.0316543
10.834
0.225144
1.05393
10.1983
138.642
-0.000260488
138.588
-0.000214791
138.534
-0.000191199
138.48
-0.000194812
138.426
-0.000196084
138.373
-0.000195593
138.32
-0.000195534
138.267
-0.000195631
138.213
-0.000195709
138.16
-0.000195771
138.107
-0.00019583
138.054
-0.000195885
138.001
-0.00019593
137.948
-0.000195954
137.895
-0.000195932
137.843
-0.00019582
137.79
-0.000195546
137.738
-0.000195005
137.685
-0.000194054
137.632
-0.000192515
137.578
-0.000190176
137.525
-0.000186811
137.471
-0.000182198
137.417
-0.000176147
137.363
-0.000168539
137.309
-0.000159343
137.255
-0.000148633
137.201
-0.00013661
137.147
-0.000123565
137.093
-0.000109878
137.04
-9.59707e-05
136.987
-8.22712e-05
136.934
-6.91761e-05
136.881
-5.70184e-05
136.83
-4.60446e-05
136.779
-3.6407e-05
136.728
-2.81646e-05
136.679
-2.12949e-05
136.631
-1.57111e-05
136.583
-1.12821e-05
136.537
-7.85099e-06
136.492
-5.25006e-06
136.448
-3.33561e-06
136.405
-1.94263e-06
136.364
-9.52888e-07
136.323
-2.56735e-07
136.284
2.08864e-07
136.247
5.22034e-07
136.21
7.25904e-07
136.175
8.57841e-07
136.14
9.42226e-07
136.107
9.94934e-07
136.075
1.02792e-06
136.044
1.04774e-06
136.014
1.05919e-06
135.984
1.0654e-06
135.956
1.06811e-06
135.928
1.06828e-06
135.9
1.06708e-06
135.873
1.06438e-06
135.847
1.06041e-06
135.821
1.0592e-06
135.796
1.05721e-06
135.77
1.04911e-06
135.745
1.04194e-06
135.721
1.03697e-06
135.696
1.03275e-06
135.672
1.02858e-06
135.648
1.02444e-06
135.624
1.01895e-06
135.6
1.01343e-06
135.577
1.00987e-06
135.554
1.00846e-06
135.531
1.00809e-06
135.508
1.00774e-06
135.485
1.0073e-06
135.463
1.00715e-06
135.441
1.00749e-06
135.419
1.00832e-06
135.397
1.00965e-06
135.375
1.01157e-06
135.353
1.01389e-06
135.332
1.01647e-06
135.31
1.01942e-06
135.288
1.02249e-06
135.266
1.02558e-06
135.244
1.02872e-06
135.221
1.03163e-06
135.198
1.03445e-06
135.174
1.03682e-06
135.15
1.03865e-06
135.125
1.03966e-06
135.1
1.03998e-06
135.074
1.03962e-06
135.047
1.03887e-06
135.019
1.0377e-06
134.99
1.03618e-06
134.96
1.03416e-06
134.93
1.03147e-06
134.898
1.02812e-06
134.866
1.02409e-06
134.832
1.01948e-06
134.798
1.01438e-06
134.763
1.00896e-06
134.728
1.00358e-06
134.692
9.97978e-07
134.656
9.91321e-07
134.619
9.85098e-07
134.582
9.7947e-07
134.546
9.74029e-07
134.509
9.6829e-07
134.473
9.62181e-07
134.437
9.55979e-07
134.401
9.50009e-07
134.366
9.44352e-07
134.331
9.38698e-07
134.297
9.32688e-07
134.263
9.26051e-07
134.23
9.18774e-07
134.198
9.10964e-07
134.166
9.02706e-07
134.134
8.94093e-07
134.103
8.85288e-07
134.073
8.77598e-07
134.042
8.67371e-07
134.011
8.52958e-07
133.981
8.44104e-07
133.95
8.36643e-07
133.92
8.35572e-07
133.889
8.16093e-07
133.857
7.83201e-07
133.825
7.88236e-07
133.792
7.76951e-07
133.759
7.62095e-07
133.724
7.48207e-07
133.689
7.35069e-07
133.653
7.22605e-07
133.615
7.1075e-07
133.577
7.00014e-07
133.538
6.90412e-07
133.498
6.81689e-07
133.458
6.73706e-07
133.417
6.66766e-07
133.376
6.61595e-07
133.334
6.58585e-07
133.293
6.5769e-07
133.253
6.58843e-07
133.213
6.61895e-07
133.174
6.66698e-07
133.135
6.73044e-07
133.099
6.80791e-07
133.063
6.89962e-07
133.029
7.00479e-07
132.997
7.1207e-07
132.966
7.2417e-07
132.937
7.36352e-07
132.909
7.48333e-07
132.883
7.59858e-07
132.858
7.70766e-07
132.835
7.81147e-07
132.813
7.91297e-07
132.793
8.01473e-07
132.773
8.11508e-07
132.755
8.21105e-07
132.737
8.29995e-07
132.721
8.37863e-07
132.704
8.44606e-07
132.689
8.49668e-07
132.673
8.53588e-07
132.657
8.55013e-07
132.64
8.55938e-07
132.623
8.53603e-07
132.605
8.52062e-07
132.586
8.46196e-07
132.566
8.43209e-07
132.544
8.3386e-07
132.521
8.29031e-07
132.496
8.2264e-07
132.469
8.15906e-07
132.442
8.10565e-07
132.413
8.03522e-07
132.383
8.05718e-07
132.353
7.99599e-07
132.323
8.02381e-07
132.293
8.04695e-07
132.264
8.09549e-07
132.235
8.1594e-07
132.208
8.26669e-07
132.182
8.36441e-07
132.157
8.50572e-07
132.134
9.02555e-07
132.112
1.22401e-06
132.091
3.31868e-06
132.07
1.85352e-05
132.051
0.000125898
132.032
0.000891022
132.011
0.00638711
131.979
0.0458499
131.822
0.364715
1.55102
131.308
11.5535
-0.000327881
11.549
-0.000234959
11.5445
-0.000225781
11.54
-0.000227469
11.5356
-0.000228005
11.5311
-0.000227929
11.5267
-0.000227992
11.5222
-0.000228093
11.5178
-0.000228176
11.5134
-0.000228244
11.5089
-0.000228304
11.5045
-0.000228358
11.5001
-0.0002284
11.4957
-0.000228414
11.4913
-0.000228374
11.4869
-0.000228226
11.4825
-0.000227886
11.4782
-0.00022723
11.4738
-0.000226092
11.4693
-0.000224263
11.4649
-0.000221496
11.4604
-0.000217528
11.4559
-0.000212101
11.4514
-0.000204999
11.4469
-0.000196083
11.4424
-0.000185319
11.4379
-0.000172803
11.4334
-0.000158763
11.4289
-0.000143547
11.4244
-0.000127596
11.42
-0.0001114
11.4155
-9.54585e-05
11.4111
-8.02304e-05
11.4068
-6.61014e-05
11.4025
-5.33559e-05
11.3982
-4.21688e-05
11.394
-3.26064e-05
11.3899
-2.46407e-05
11.3859
-1.81695e-05
11.3819
-1.3039e-05
11.3781
-9.06661e-06
11.3743
-6.05458e-06
11.3707
-3.84328e-06
11.3671
-2.23029e-06
11.3636
-1.08562e-06
11.3603
-2.85234e-07
11.357
2.55844e-07
11.3539
6.17238e-07
11.3508
8.53184e-07
11.3479
1.00456e-06
11.345
1.10179e-06
11.3423
1.16217e-06
11.3396
1.20017e-06
11.337
1.22281e-06
11.3345
1.23596e-06
11.332
1.24304e-06
11.3296
1.24614e-06
11.3273
1.24624e-06
11.325
1.24489e-06
11.3228
1.24167e-06
11.3206
1.23675e-06
11.3184
1.23608e-06
11.3163
1.23354e-06
11.3142
1.22328e-06
11.3121
1.21559e-06
11.31
1.20968e-06
11.308
1.20477e-06
11.306
1.19993e-06
11.304
1.19515e-06
11.302
1.18849e-06
11.3
1.18231e-06
11.2981
1.1781e-06
11.2961
1.17641e-06
11.2942
1.17601e-06
11.2923
1.17559e-06
11.2904
1.17506e-06
11.2886
1.17488e-06
11.2867
1.17526e-06
11.2849
1.17623e-06
11.2831
1.17778e-06
11.2813
1.18004e-06
11.2794
1.18272e-06
11.2776
1.18573e-06
11.2758
1.18921e-06
11.274
1.19274e-06
11.2722
1.19638e-06
11.2703
1.20005e-06
11.2684
1.20339e-06
11.2665
1.20675e-06
11.2645
1.20945e-06
11.2625
1.21164e-06
11.2605
1.21276e-06
11.2583
1.21318e-06
11.2561
1.21271e-06
11.2539
1.21189e-06
11.2516
1.21049e-06
11.2492
1.20875e-06
11.2467
1.20637e-06
11.2441
1.20323e-06
11.2415
1.19932e-06
11.2388
1.19462e-06
11.236
1.18923e-06
11.2332
1.18328e-06
11.2303
1.17695e-06
11.2273
1.17073e-06
11.2243
1.16417e-06
11.2213
1.15625e-06
11.2183
1.14922e-06
11.2152
1.14254e-06
11.2121
1.13623e-06
11.2091
1.12951e-06
11.2061
1.1224e-06
11.2031
1.11514e-06
11.2001
1.10819e-06
11.1971
1.10161e-06
11.1943
1.09501e-06
11.1914
1.088e-06
11.1886
1.08024e-06
11.1859
1.07176e-06
11.1832
1.06266e-06
11.1805
1.05302e-06
11.1779
1.04297e-06
11.1753
1.03257e-06
11.1727
1.02403e-06
11.1702
1.01198e-06
11.1676
9.94254e-07
11.1651
9.84955e-07
11.1625
9.75342e-07
11.16
9.76301e-07
11.1574
9.52616e-07
11.1548
9.10646e-07
11.1521
9.2124e-07
11.1493
9.0623e-07
11.1466
8.88967e-07
11.1437
8.72784e-07
11.1407
8.57479e-07
11.1377
8.42952e-07
11.1346
8.29046e-07
11.1314
8.16646e-07
11.1282
8.05325e-07
11.1249
7.95193e-07
11.1215
7.85876e-07
11.1181
7.77758e-07
11.1146
7.7173e-07
11.1112
7.6823e-07
11.1078
7.67186e-07
11.1044
7.68543e-07
11.1011
7.72096e-07
11.0978
7.77709e-07
11.0946
7.85103e-07
11.0915
7.94151e-07
11.0886
8.04846e-07
11.0858
8.17126e-07
11.0831
8.30656e-07
11.0805
8.44755e-07
11.0781
8.58961e-07
11.0757
8.72946e-07
11.0736
8.86377e-07
11.0715
8.99099e-07
11.0696
9.1121e-07
11.0678
9.2307e-07
11.066
9.3495e-07
11.0644
9.4664e-07
11.0629
9.57845e-07
11.0614
9.68203e-07
11.06
9.77416e-07
11.0587
9.85201e-07
11.0574
9.91273e-07
11.0561
9.95587e-07
11.0547
9.97685e-07
11.0534
9.98192e-07
11.0519
9.9623e-07
11.0504
9.93325e-07
11.0489
9.87855e-07
11.0471
9.82407e-07
11.0453
9.74151e-07
11.0434
9.67e-07
11.0413
9.5938e-07
11.0391
9.51704e-07
11.0368
9.45243e-07
11.0344
9.39008e-07
11.0319
9.37227e-07
11.0294
9.33991e-07
11.0269
9.35561e-07
11.0244
9.38699e-07
11.022
9.44516e-07
11.0196
9.52528e-07
11.0173
9.6334e-07
11.0152
9.74847e-07
11.0131
9.88068e-07
11.0112
1.0141e-06
11.0093
1.13048e-06
11.0076
1.84678e-06
11.0059
7.0234e-06
11.0043
4.34843e-05
11.0033
0.000303376
11.006
0.00218926
11.034
0.0162995
11.2191
0.1782
0.672845
12.0959
5.7764
5.7739
5.7714
5.76891
5.76643
5.76396
5.7615
5.75903
5.75657
5.75411
5.75165
5.7492
5.74675
5.7443
5.74186
5.73943
5.737
5.73456
5.73212
5.72966
5.7272
5.72474
5.72227
5.71981
5.71735
5.7149
5.71246
5.71004
5.70763
5.70526
5.7029
5.70059
5.6983
5.69605
5.69384
5.69167
5.68954
5.68746
5.68542
5.68343
5.68149
5.6796
5.67777
5.67598
5.67425
5.67258
5.67095
5.66938
5.66786
5.66639
5.66496
5.66358
5.66225
5.66095
5.65969
5.65847
5.65727
5.65611
5.65497
5.65385
5.65276
5.65168
5.65061
5.64956
5.64852
5.64749
5.64647
5.64546
5.64446
5.64347
5.64249
5.64151
5.64055
5.63959
5.63864
5.6377
5.63677
5.63585
5.63493
5.63402
5.63312
5.63221
5.63131
5.6304
5.62949
5.62858
5.62765
5.6267
5.62574
5.62477
5.62376
5.62273
5.62167
5.62058
5.61946
5.6183
5.6171
5.61586
5.61458
5.61327
5.61192
5.61053
5.60911
5.60766
5.60619
5.60469
5.60318
5.60166
5.60013
5.59861
5.59708
5.59557
5.59406
5.59258
5.59111
5.58967
5.58825
5.58685
5.58548
5.58413
5.5828
5.58148
5.58019
5.57891
5.57763
5.57636
5.5751
5.57382
5.57254
5.57125
5.56994
5.5686
5.56724
5.56584
5.56441
5.56293
5.56142
5.55987
5.55828
5.55666
5.555
5.55331
5.55161
5.54989
5.54818
5.54647
5.54477
5.54311
5.54148
5.53989
5.53835
5.53688
5.53546
5.53411
5.53283
5.53161
5.53046
5.52938
5.52835
5.52738
5.52647
5.52562
5.52481
5.52404
5.52332
5.52262
5.52195
5.52129
5.52063
5.51997
5.51929
5.51858
5.51783
5.51704
5.51618
5.51527
5.5143
5.51326
5.51217
5.51102
5.50982
5.50859
5.50734
5.50608
5.50483
5.50361
5.50242
5.50128
5.5002
5.49918
5.49821
5.49729
5.49641
5.49557
5.4948
5.49431
5.49572
5.51127
5.68874
6.36091
4.85257
0.12066
4.85942
-0.00700702
4.85549
0.0037783
4.85967
-0.00432604
4.87438
-0.0148804
4.90317
-0.0289747
4.98277
-0.0798082
5.09487
-0.112494
5.15596
-0.061597
5.13267
0.0228725
5.05229
0.0801359
4.9358
0.116419
4.85045
0.0857813
5.00373
-0.151872
5.43682
-0.431737
6.03115
-0.594243
6.5465
-0.516833
6.78112
-0.237011
6.75186
0.0267546
-0.141669
6.89156
10.1487
0.169988
10.1658
-0.0244597
10.2108
-0.0414882
10.2638
-0.0575745
10.3309
-0.0823429
10.4231
-0.121526
10.6246
-0.28168
10.8983
-0.386994
11.076
-0.240424
11.093
0.00517095
10.9883
0.184399
10.7811
0.323545
10.5506
0.317044
10.6975
-0.295486
11.3442
-1.07608
12.3866
-1.63707
13.5005
-1.63423
14.2502
-0.991812
14.4535
-0.180583
-0.212177
14.5208
131.357
0.118279
131.425
-0.0952386
131.423
-0.0420749
131.262
0.100889
130.948
0.228825
130.518
0.305932
129.873
0.36296
129.133
0.349084
128.511
0.381197
128.167
0.345379
128.004
0.344945
128.004
0.319474
128.022
0.294677
127.448
0.272631
126.116
0.250983
124.256
0.22176
122.449
0.177046
121.347
0.114178
121.14
0.0306221
-0.175049
121.103
12.0409
0.173135
11.9504
-0.00496895
11.9128
-0.00455794
11.9874
0.026047
12.1592
0.0568934
12.385
0.0799181
12.6488
0.0982854
12.8996
0.0986573
13.1729
0.107147
13.4195
0.0990224
13.6673
0.0967713
13.8982
0.0884399
14.1131
0.079617
14.3144
0.0711378
14.5035
0.06166
14.6776
0.0473765
14.8307
0.023762
14.9581
-0.0134276
15.0631
-0.0745149
-0.249095
15.137
6.53397
6.52892
6.52428
6.55024
6.60704
6.68684
6.78483
6.8835
6.99041
7.08946
7.18615
7.27449
7.35402
7.42506
7.48662
7.53389
7.55754
7.54401
7.46941
7.22024
6.92752
-0.0364087
7.32259
-0.393523
7.6341
-0.313042
7.6704
-0.0378675
7.61804
0.0517313
7.59578
0.0216309
7.61893
-0.0237752
7.63717
-0.0189642
7.63847
-0.00193311
7.63411
0.00380001
7.62979
0.00373922
7.62704
0.00216213
7.62511
0.00136216
7.62484
-0.0002517
7.63065
-0.00629324
7.63914
-0.00901404
7.64365
-0.00504336
7.64343
-0.000306035
7.64094
0.00201894
7.6367
0.00379871
7.63178
0.00449874
7.62895
0.00243539
7.63992
-0.0112664
7.66378
-0.0242241
7.68524
-0.0219214
7.69287
-0.00810984
7.68802
0.00440133
7.67731
0.0103234
7.66113
0.0157888
7.63936
0.0213715
7.61091
0.0280159
7.57444
0.0360245
7.52838
0.0456034
7.47099
0.0569062
7.40028
0.0701492
7.31384
0.08553
7.20832
0.102935
7.08315
0.120335
6.94109
0.139153
6.7846
0.155267
6.61801
0.166506
6.44865
0.172768
6.2816
0.16953
6.12339
0.158917
5.98074
0.142178
5.8581
0.121693
5.75692
0.0998208
5.67648
0.0790147
5.61458
0.0606405
5.56813
0.0452872
5.53396
0.0330611
5.50923
0.0236752
5.49152
0.0166751
5.47894
0.0115739
5.47003
0.00792864
5.4637
0.00536582
5.45919
0.00358837
5.45592
0.00237277
5.45349
0.00155139
5.45165
0.00100295
5.45019
0.000641022
5.449
0.000404972
5.44799
0.000252823
5.44709
0.000155914
5.44629
9.49279e-05
5.44554
5.70137e-05
5.44483
3.37311e-05
5.44416
1.961e-05
5.44351
1.11521e-05
5.44288
6.14985e-06
5.44226
3.2291e-06
5.44165
1.54599e-06
5.44104
5.89342e-07
5.44044
5.37821e-08
5.43984
-2.41256e-07
5.43923
-3.99417e-07
5.43861
-4.8218e-07
5.43799
-5.2364e-07
5.43735
-5.42856e-07
5.4367
-5.5039e-07
5.43603
-5.51981e-07
5.43534
-5.50772e-07
5.43463
-5.48449e-07
5.43389
-5.45957e-07
5.43313
-5.43852e-07
5.43234
-5.42464e-07
5.43152
-5.42206e-07
5.43067
-5.42255e-07
5.4298
-5.43308e-07
5.4289
-5.45271e-07
5.42797
-5.48509e-07
5.42701
-5.52751e-07
5.42603
-5.57649e-07
5.42503
-5.63046e-07
5.42401
-5.68984e-07
5.42297
-5.75335e-07
5.42191
-5.82048e-07
5.42084
-5.88967e-07
5.41976
-5.96034e-07
5.41868
-6.03111e-07
5.41759
-6.09994e-07
5.4165
-6.16423e-07
5.41541
-6.22151e-07
5.41433
-6.27197e-07
5.41326
-6.31759e-07
5.41219
-6.36124e-07
5.41114
-6.40179e-07
5.4101
-6.43515e-07
5.40908
-6.4575e-07
5.40807
-6.46809e-07
5.40708
-6.46676e-07
5.40611
-6.45499e-07
5.40516
-6.43422e-07
5.40423
-6.40797e-07
5.40332
-6.35202e-07
5.40243
-6.30276e-07
5.40155
-6.24688e-07
5.40069
-6.17714e-07
5.39985
-6.09725e-07
5.39902
-6.00756e-07
5.39821
-5.90866e-07
5.3974
-5.80372e-07
5.39661
-5.69225e-07
5.39582
-5.57449e-07
5.39504
-5.4516e-07
5.39427
-5.32362e-07
5.3935
-5.19309e-07
5.39274
-5.06156e-07
5.39198
-4.93199e-07
5.39123
-4.8053e-07
5.39049
-4.68202e-07
5.38975
-4.56477e-07
5.38902
-4.45418e-07
5.38831
-4.35219e-07
5.38761
-4.261e-07
5.38693
-4.17895e-07
5.38627
-4.10939e-07
5.38563
-4.05094e-07
5.38502
-4.05988e-07
5.38443
-3.9408e-07
5.38389
-3.91907e-07
5.38337
-3.96389e-07
5.3829
-3.87919e-07
5.38246
-3.98804e-07
5.38207
-3.97495e-07
5.38172
-4.00782e-07
5.38141
-4.0437e-07
5.38114
-4.08598e-07
5.38091
-4.13378e-07
5.38073
-4.18309e-07
5.38058
-4.23363e-07
5.38047
-4.28214e-07
5.38039
-4.33076e-07
5.38034
-4.38e-07
5.38033
-4.42102e-07
5.38035
-4.46633e-07
5.38039
-4.49927e-07
5.38046
-4.53583e-07
5.38055
-4.5637e-07
5.38067
-4.5959e-07
5.3808
-4.6093e-07
5.38095
-4.6274e-07
5.38112
-4.63366e-07
5.38129
-4.63499e-07
5.38147
-4.61958e-07
5.38166
-4.61288e-07
5.38184
-4.56672e-07
5.38201
-4.54698e-07
5.38217
-4.47737e-07
5.38232
-4.43757e-07
5.38244
-4.34635e-07
5.38253
-4.28008e-07
5.38259
-4.17916e-07
5.38261
-4.09902e-07
5.38259
-3.97711e-07
5.38253
-3.89609e-07
5.38242
-3.67267e-07
5.38228
-3.6147e-07
5.38209
-3.37566e-07
5.38186
-4.01838e-07
5.3816
-3.07306e-07
5.3813
-3.52871e-07
5.38097
-2.97819e-07
5.38063
-3.3062e-07
5.38026
-2.9006e-07
5.3799
-3.25661e-07
5.37954
-2.8805e-07
5.37919
-3.17108e-07
5.37887
-3.04384e-07
5.37857
-3.60707e-07
5.37833
-5.25253e-07
5.37813
-1.44985e-06
5.37798
-6.08962e-06
5.37792
-3.00882e-05
5.37804
-0.000153729
5.37885
-0.000793699
5.38306
-0.00414382
5.40548
-0.022313
5.56791
-0.162279
-0.629446
6.19753
13.7718
0.712211
14.0936
-0.712252
14.6368
-0.859494
14.761
-0.16515
14.6571
0.154334
14.5821
0.0954047
14.6052
-0.0481489
14.6413
-0.0565378
14.6492
-0.0110019
14.6405
0.0113007
14.6286
0.0144892
14.6181
0.0114672
14.6075
0.0108074
14.5978
0.00837389
14.6002
-0.00969356
14.613
-0.022834
14.6226
-0.0157298
14.6224
-0.0011394
14.6139
0.00957321
14.5974
0.0194718
14.5739
0.027166
14.5477
0.0278042
14.5459
-0.0101937
14.5792
-0.0582316
14.6259
-0.06953
14.657
-0.0400957
14.6626
-0.00206812
14.6505
0.0216234
14.6226
0.042923
14.5798
0.0634073
14.521
0.0859687
14.4447
0.111459
14.3491
0.140338
14.2321
0.172852
14.0919
0.209316
13.9257
0.249897
13.7308
0.293459
13.5085
0.337897
13.2635
0.381373
13.0003
0.416996
12.7268
0.439678
12.4545
0.447559
12.1913
0.433958
11.9469
0.402931
11.7295
0.358272
11.5438
0.305565
11.3908
0.250712
11.2689
0.198746
11.1744
0.152971
11.1029
0.114693
11.0497
0.0840873
11.0109
0.0604647
10.9827
0.0427427
10.9625
0.0297579
10.9481
0.0204302
10.9377
0.0138435
10.9302
0.00926309
10.9246
0.00612364
10.9204
0.00400016
10.9172
0.00258223
10.9145
0.0016473
10.9123
0.00103847
10.9104
0.000646888
10.9087
0.000398128
10.9071
0.000242046
10.9057
0.000145323
10.9043
8.61249e-05
10.9029
5.03429e-05
10.9016
2.89825e-05
10.9004
1.63891e-05
10.8991
9.05674e-06
10.8979
4.84102e-06
10.8967
2.44796e-06
10.8955
1.1075e-06
10.8943
3.65956e-07
10.8931
-3.60135e-08
10.8918
-2.51204e-07
10.8906
-3.64081e-07
10.8893
-4.21491e-07
10.888
-4.49382e-07
10.8867
-4.61829e-07
10.8853
-4.66455e-07
10.8838
-4.67332e-07
10.8824
-4.66635e-07
10.8808
-4.65543e-07
10.8793
-4.64703e-07
10.8776
-4.64611e-07
10.8759
-4.64845e-07
10.8742
-4.65683e-07
10.8724
-4.67433e-07
10.8705
-4.70216e-07
10.8686
-4.73853e-07
10.8666
-4.78051e-07
10.8646
-4.82681e-07
10.8626
-4.87769e-07
10.8605
-4.93222e-07
10.8584
-4.98962e-07
10.8562
-5.04896e-07
10.8541
-5.10944e-07
10.8519
-5.17008e-07
10.8497
-5.22907e-07
10.8476
-5.28414e-07
10.8454
-5.3333e-07
10.8432
-5.37648e-07
10.8411
-5.41577e-07
10.8389
-5.45307e-07
10.8368
-5.48774e-07
10.8347
-5.51634e-07
10.8327
-5.53567e-07
10.8307
-5.54477e-07
10.8287
-5.5438e-07
10.8268
-5.53378e-07
10.8249
-5.51608e-07
10.823
-5.49235e-07
10.8212
-5.44726e-07
10.8194
-5.40207e-07
10.8176
-5.35652e-07
10.8159
-5.2951e-07
10.8142
-5.22701e-07
10.8126
-5.15034e-07
10.8109
-5.06559e-07
10.8093
-4.97546e-07
10.8077
-4.87956e-07
10.8062
-4.7788e-07
10.8046
-4.67314e-07
10.8031
-4.56405e-07
10.8015
-4.45173e-07
10.8
-4.3391e-07
10.7985
-4.2278e-07
10.797
-4.11918e-07
10.7955
-4.01364e-07
10.794
-3.91296e-07
10.7926
-3.81846e-07
10.7911
-3.73105e-07
10.7897
-3.65259e-07
10.7884
-3.58282e-07
10.787
-3.5232e-07
10.7858
-3.47675e-07
10.7845
-3.46667e-07
10.7834
-3.39205e-07
10.7823
-3.36016e-07
10.7812
-3.39228e-07
10.7803
-3.3716e-07
10.7794
-3.37575e-07
10.7786
-3.4061e-07
10.7779
-3.43442e-07
10.7773
-3.46805e-07
10.7768
-3.50354e-07
10.7763
-3.54383e-07
10.7759
-3.58637e-07
10.7756
-3.6291e-07
10.7754
-3.67095e-07
10.7753
-3.71306e-07
10.7752
-3.75447e-07
10.7751
-3.79042e-07
10.7752
-3.82793e-07
10.7753
-3.85797e-07
10.7754
-3.88855e-07
10.7756
-3.90564e-07
10.7758
-3.94812e-07
10.7761
-3.94973e-07
10.7764
-3.96868e-07
10.7767
-3.96834e-07
10.7771
-3.9805e-07
10.7774
-3.95031e-07
10.7778
-3.96903e-07
10.7781
-3.89772e-07
10.7785
-3.91957e-07
10.7788
-3.81457e-07
10.7791
-3.82842e-07
10.7793
-3.70763e-07
10.7795
-3.67908e-07
10.7796
-3.5692e-07
10.7797
-3.53034e-07
10.7796
-3.38741e-07
10.7795
-3.35402e-07
10.7793
-2.94173e-07
10.779
-2.73712e-07
10.7786
-2.57263e-07
10.7782
-4.63698e-07
10.7776
-2.02352e-07
10.777
-3.5648e-07
10.7764
-2.08992e-07
10.7757
-3.19177e-07
10.775
-2.09548e-07
10.7742
-3.2071e-07
10.7735
-2.14411e-07
10.7728
-2.98122e-07
10.7722
-2.57767e-07
10.7716
-4.1337e-07
10.7711
-8.87861e-07
10.7707
-3.59576e-06
10.7704
-1.72493e-05
10.7703
-8.79286e-05
10.7705
-0.000452051
10.7721
-0.00233464
10.7802
-0.012093
10.821
-0.062885
11.0081
-0.349093
-1.43673
11.8157
121.731
0.0587934
120.956
0.0353481
120.051
0.0254082
119.854
0.0157633
119.985
0.00656481
120.057
0.00749135
119.986
0.00676667
119.911
0.00294392
119.885
0.000430984
119.882
0.000151806
119.882
0.000416672
119.879
0.000689742
119.875
0.00105631
119.868
0.00150684
119.844
0.00167701
119.808
0.000952438
119.78
-8.02226e-05
119.768
-0.000602188
119.766
-0.000285749
119.774
0.000329429
119.789
0.00126279
119.804
0.00214192
119.782
0.00186557
119.722
-0.00778165
119.668
-0.0245462
119.664
-0.0426899
119.725
-0.0626574
119.836
-0.0879009
119.998
-0.120453
120.219
-0.1611
120.509
-0.209275
120.875
-0.262454
121.322
-0.316746
121.851
-0.366849
122.455
-0.407296
123.125
-0.433398
123.847
-0.442523
124.607
-0.436651
125.39
-0.416688
126.178
-0.385715
126.949
-0.347537
127.684
-0.305235
128.358
-0.260627
128.957
-0.217152
129.47
-0.176743
129.893
-0.140802
130.229
-0.109938
130.488
-0.0841843
130.68
-0.0632353
130.816
-0.0466505
130.91
-0.0338021
130.97
-0.0240622
131.005
-0.016833
131.023
-0.0115735
131.028
-0.00782138
131.024
-0.00519654
131.014
-0.00339434
131.001
-0.00218037
130.986
-0.00137713
130.969
-0.000855235
130.951
-0.000522183
130.934
-0.000313391
130.916
-0.000184805
130.899
-0.000107009
130.883
-6.07766e-05
130.866
-3.37925e-05
130.85
-1.83291e-05
130.834
-9.63209e-06
130.819
-4.83446e-06
130.804
-2.24121e-06
130.789
-8.69827e-07
130.775
-1.60091e-07
130.76
1.92965e-07
130.746
3.65395e-07
130.731
4.44488e-07
130.717
4.77888e-07
130.702
4.89364e-07
130.687
4.90847e-07
130.672
4.88173e-07
130.656
4.84032e-07
130.64
4.7963e-07
130.623
4.75499e-07
130.606
4.71872e-07
130.588
4.68888e-07
130.57
4.66653e-07
130.551
4.65243e-07
130.531
4.64871e-07
130.511
4.64971e-07
130.49
4.65742e-07
130.468
4.6746e-07
130.446
4.70226e-07
130.423
4.73857e-07
130.4
4.78052e-07
130.376
4.82684e-07
130.351
4.87768e-07
130.326
4.93219e-07
130.301
4.98962e-07
130.275
5.04897e-07
130.249
5.10945e-07
130.223