/*--------------------------------*- C++ -*----------------------------------*\
| =========                 |                                                 |
| \\      /  F ield         | OpenFOAM: The Open Source CFD Toolbox           |
|  \\    /   O peration     | Version:  3.0.x                                 |
|   \\  /    A nd           | Web:      www.OpenFOAM.org                      |
|    \\/     M anipulation  |                                                 |
\*---------------------------------------------------------------------------*/
FoamFile
{
    version     2.0;
    format      ascii;
    class       volScalarField;
    location    "0.18";
    object      rho;
}
// * * * * * * * * * * * * * * * * * * * * * * * * * * * * * * * * * * * * * //

dimensions      [1 -3 0 0 0 0 0];

internalField   nonuniform List<scalar> 
6900
(
50.7524
50.7526
50.7529
50.7531
50.7532
50.7533
50.7534
50.7534
50.7534
50.7532
50.753
50.7528
50.7525
50.7523
50.7521
50.752
50.752
50.7519
50.7519
50.7517
50.7516
50.7515
50.7513
50.7512
50.751
50.7509
50.7508
50.7507
50.7506
50.7505
50.7505
50.7504
50.7503
50.7503
50.7502
50.7501
50.75
50.7498
50.7497
50.7495
50.7493
50.7491
50.7488
50.7486
50.7482
50.7479
50.7475
50.7471
50.7467
50.7462
50.7457
50.7452
50.7447
50.7441
50.7436
50.743
50.7424
50.7419
50.7413
50.7407
50.7402
50.7396
50.7391
50.7386
50.7381
50.7376
50.7371
50.7366
50.7362
50.7357
50.7353
50.7349
50.7345
50.7341
50.7336
50.7332
50.7328
50.7324
50.7319
50.7315
50.731
50.7305
50.7301
50.7295
50.729
50.7284
50.7278
50.7272
50.7266
50.726
50.7253
50.7246
50.7239
50.7232
50.7225
50.7218
50.7211
50.7204
50.7196
50.7189
50.7182
50.7175
50.7168
50.7161
50.7155
50.7148
50.7142
50.7136
50.713
50.7124
50.7118
50.7113
50.7107
50.7102
50.7097
50.7093
50.7088
50.7084
50.708
50.7076
50.7073
50.7069
50.7067
50.7064
50.7062
50.7061
50.7059
50.7059
50.7058
50.7059
50.706
50.7061
50.7063
50.7066
50.7069
50.7073
50.7077
50.7082
50.7088
50.7094
50.7101
50.7108
50.7116
50.7124
50.7133
50.7141
50.715
50.7159
50.7168
50.7176
50.7185
50.7193
50.7201
50.7209
50.7217
50.7224
50.723
50.7237
50.7243
50.7248
50.7254
50.7259
50.7263
50.7267
50.7271
50.7275
50.7279
50.7282
50.7285
50.7288
50.7292
50.7295
50.7299
50.7302
50.7306
50.7311
50.7316
50.7321
50.7326
50.7332
50.7339
50.7345
50.7352
50.7359
50.7365
50.7372
50.7379
50.7385
50.7391
50.7397
50.7403
50.7408
50.7413
50.7417
50.7422
50.7426
50.743
50.7433
50.7441
50.7418
50.7525
50.7527
50.753
50.7531
50.7533
50.7534
50.7535
50.7535
50.7534
50.7533
50.7531
50.7529
50.7526
50.7524
50.7522
50.7521
50.752
50.752
50.7519
50.7518
50.7517
50.7515
50.7514
50.7512
50.7511
50.751
50.7509
50.7508
50.7507
50.7506
50.7505
50.7505
50.7504
50.7503
50.7502
50.7501
50.75
50.7499
50.7498
50.7496
50.7494
50.7492
50.7489
50.7486
50.7483
50.748
50.7476
50.7472
50.7467
50.7463
50.7458
50.7453
50.7447
50.7442
50.7436
50.7431
50.7425
50.7419
50.7414
50.7408
50.7402
50.7397
50.7392
50.7386
50.7381
50.7376
50.7372
50.7367
50.7362
50.7358
50.7354
50.7349
50.7345
50.7341
50.7337
50.7333
50.7329
50.7324
50.732
50.7316
50.7311
50.7306
50.7301
50.7296
50.729
50.7285
50.7279
50.7273
50.7267
50.726
50.7254
50.7247
50.724
50.7233
50.7226
50.7219
50.7211
50.7204
50.7197
50.719
50.7183
50.7176
50.7169
50.7162
50.7155
50.7149
50.7142
50.7136
50.713
50.7124
50.7119
50.7113
50.7108
50.7103
50.7098
50.7093
50.7089
50.7084
50.708
50.7077
50.7073
50.707
50.7067
50.7065
50.7063
50.7061
50.706
50.7059
50.7059
50.7059
50.706
50.7061
50.7063
50.7066
50.7069
50.7073
50.7078
50.7083
50.7088
50.7095
50.7102
50.7109
50.7117
50.7125
50.7133
50.7142
50.715
50.7159
50.7168
50.7177
50.7185
50.7194
50.7202
50.721
50.7217
50.7224
50.7231
50.7237
50.7243
50.7249
50.7254
50.7259
50.7264
50.7268
50.7272
50.7276
50.7279
50.7283
50.7286
50.7289
50.7292
50.7296
50.7299
50.7303
50.7307
50.7311
50.7316
50.7321
50.7327
50.7333
50.7339
50.7346
50.7352
50.7359
50.7366
50.7373
50.7379
50.7386
50.7392
50.7398
50.7403
50.7408
50.7413
50.7418
50.7422
50.7426
50.7431
50.7434
50.7442
50.7422
50.7525
50.7527
50.753
50.7531
50.7533
50.7534
50.7535
50.7535
50.7534
50.7533
50.7531
50.7529
50.7526
50.7524
50.7522
50.7521
50.752
50.752
50.7519
50.7518
50.7517
50.7515
50.7514
50.7512
50.7511
50.751
50.7509
50.7508
50.7507
50.7506
50.7505
50.7505
50.7504
50.7503
50.7502
50.7501
50.75
50.7499
50.7498
50.7496
50.7494
50.7492
50.7489
50.7486
50.7483
50.748
50.7476
50.7472
50.7467
50.7463
50.7458
50.7453
50.7447
50.7442
50.7436
50.7431
50.7425
50.7419
50.7414
50.7408
50.7402
50.7397
50.7392
50.7386
50.7381
50.7376
50.7372
50.7367
50.7362
50.7358
50.7354
50.7349
50.7345
50.7341
50.7337
50.7333
50.7329
50.7324
50.732
50.7316
50.7311
50.7306
50.7301
50.7296
50.729
50.7285
50.7279
50.7273
50.7267
50.726
50.7254
50.7247
50.724
50.7233
50.7226
50.7219
50.7211
50.7204
50.7197
50.719
50.7183
50.7176
50.7169
50.7162
50.7155
50.7149
50.7142
50.7136
50.713
50.7124
50.7119
50.7113
50.7108
50.7103
50.7098
50.7093
50.7089
50.7084
50.708
50.7077
50.7073
50.707
50.7067
50.7065
50.7063
50.7061
50.706
50.7059
50.7059
50.7059
50.706
50.7061
50.7063
50.7066
50.7069
50.7073
50.7078
50.7083
50.7088
50.7095
50.7102
50.7109
50.7117
50.7125
50.7133
50.7142
50.715
50.7159
50.7168
50.7177
50.7185
50.7194
50.7202
50.721
50.7217
50.7224
50.7231
50.7237
50.7243
50.7249
50.7254
50.7259
50.7264
50.7268
50.7272
50.7276
50.7279
50.7283
50.7286
50.7289
50.7292
50.7296
50.7299
50.7303
50.7307
50.7311
50.7316
50.7321
50.7327
50.7333
50.7339
50.7346
50.7352
50.7359
50.7366
50.7373
50.7379
50.7386
50.7392
50.7398
50.7403
50.7408
50.7413
50.7418
50.7422
50.7426
50.7431
50.7434
50.7438
50.7441
50.7525
50.7527
50.753
50.7531
50.7533
50.7534
50.7535
50.7535
50.7534
50.7533
50.7531
50.7529
50.7526
50.7524
50.7522
50.7521
50.752
50.752
50.7519
50.7518
50.7517
50.7515
50.7514
50.7512
50.7511
50.751
50.7509
50.7508
50.7507
50.7506
50.7505
50.7505
50.7504
50.7503
50.7502
50.7501
50.75
50.7499
50.7498
50.7496
50.7494
50.7492
50.7489
50.7486
50.7483
50.748
50.7476
50.7472
50.7467
50.7463
50.7458
50.7453
50.7447
50.7442
50.7436
50.7431
50.7425
50.7419
50.7414
50.7408
50.7402
50.7397
50.7392
50.7386
50.7381
50.7376
50.7372
50.7367
50.7362
50.7358
50.7354
50.7349
50.7345
50.7341
50.7337
50.7333
50.7329
50.7324
50.732
50.7316
50.7311
50.7306
50.7301
50.7296
50.729
50.7285
50.7279
50.7273
50.7267
50.726
50.7254
50.7247
50.724
50.7233
50.7226
50.7219
50.7211
50.7204
50.7197
50.719
50.7183
50.7176
50.7169
50.7162
50.7155
50.7149
50.7142
50.7136
50.713
50.7124
50.7119
50.7113
50.7108
50.7103
50.7098
50.7093
50.7089
50.7084
50.708
50.7077
50.7073
50.707
50.7067
50.7065
50.7063
50.7061
50.706
50.7059
50.7059
50.7059
50.706
50.7061
50.7063
50.7066
50.7069
50.7073
50.7078
50.7083
50.7088
50.7095
50.7102
50.7109
50.7117
50.7125
50.7133
50.7142
50.715
50.7159
50.7168
50.7177
50.7185
50.7194
50.7202
50.721
50.7217
50.7224
50.7231
50.7237
50.7243
50.7249
50.7254
50.7259
50.7264
50.7268
50.7272
50.7276
50.7279
50.7283
50.7286
50.7289
50.7292
50.7296
50.7299
50.7303
50.7307
50.7311
50.7316
50.7321
50.7327
50.7333
50.7339
50.7346
50.7352
50.7359
50.7366
50.7373
50.7379
50.7386
50.7392
50.7398
50.7403
50.7408
50.7413
50.7418
50.7422
50.7427
50.743
50.7435
50.7431
50.7491
50.7524
50.7526
50.7529
50.7531
50.7532
50.7533
50.7534
50.7534
50.7534
50.7532
50.753
50.7528
50.7525
50.7523
50.7521
50.752
50.752
50.7519
50.7519
50.7517
50.7516
50.7515
50.7513
50.7512
50.751
50.7509
50.7508
50.7507
50.7506
50.7505
50.7505
50.7504
50.7503
50.7503
50.7502
50.7501
50.75
50.7498
50.7497
50.7495
50.7493
50.7491
50.7488
50.7486
50.7482
50.7479
50.7475
50.7471
50.7467
50.7462
50.7457
50.7452
50.7447
50.7441
50.7436
50.743
50.7424
50.7419
50.7413
50.7407
50.7402
50.7396
50.7391
50.7386
50.7381
50.7376
50.7371
50.7366
50.7362
50.7357
50.7353
50.7349
50.7345
50.7341
50.7336
50.7332
50.7328
50.7324
50.7319
50.7315
50.731
50.7305
50.7301
50.7295
50.729
50.7284
50.7278
50.7272
50.7266
50.726
50.7253
50.7246
50.7239
50.7232
50.7225
50.7218
50.7211
50.7204
50.7196
50.7189
50.7182
50.7175
50.7168
50.7161
50.7155
50.7148
50.7142
50.7136
50.713
50.7124
50.7118
50.7113
50.7107
50.7102
50.7097
50.7093
50.7088
50.7084
50.708
50.7076
50.7073
50.7069
50.7067
50.7064
50.7062
50.7061
50.7059
50.7059
50.7058
50.7059
50.706
50.7061
50.7063
50.7066
50.7069
50.7073
50.7077
50.7082
50.7088
50.7094
50.7101
50.7108
50.7116
50.7124
50.7133
50.7141
50.715
50.7159
50.7168
50.7176
50.7185
50.7193
50.7201
50.7209
50.7217
50.7224
50.723
50.7237
50.7243
50.7248
50.7254
50.7259
50.7263
50.7267
50.7271
50.7275
50.7279
50.7282
50.7285
50.7288
50.7292
50.7295
50.7299
50.7302
50.7306
50.7311
50.7316
50.7321
50.7326
50.7332
50.7339
50.7345
50.7352
50.7359
50.7365
50.7372
50.7379
50.7385
50.7391
50.7397
50.7403
50.7408
50.7413
50.7417
50.7421
50.7426
50.7429
50.7435
50.7425
50.7543
50.7591
50.7654
50.7662
50.7646
50.7632
50.7623
50.7618
50.7603
50.7561
50.7497
50.7443
50.7401
50.7374
50.7411
50.7501
50.756
50.7504
50.7339
50.7102
50.69
50.7557
50.7589
50.7588
50.7574
50.7561
50.7552
50.7549
50.7533
50.7488
50.7423
50.7371
50.7332
50.7308
50.7346
50.745
50.7488
50.7404
50.7195
50.6954
50.677
50.745
50.745
50.744
50.7421
50.7395
50.7362
50.7321
50.7275
50.7222
50.7166
50.7099
50.702
50.6931
50.6832
50.6724
50.662
50.6531
50.6456
50.638
50.6287
50.724
50.7213
50.7221
50.7234
50.7223
50.7187
50.7139
50.7071
50.7015
50.6944
50.688
50.6814
50.6756
50.6698
50.664
50.6587
50.6538
50.6495
50.6464
50.6443
50.7148
50.7034
50.6992
50.6985
50.6964
50.6917
50.6857
50.6779
50.6708
50.6625
50.655
50.6471
50.6398
50.6325
50.626
50.6194
50.6137
50.6085
50.6049
50.6031
50.6403
50.6399
50.6461
50.6391
50.6359
50.6354
50.6354
50.6347
50.6341
50.6341
50.634
50.6337
50.6335
50.6334
50.6334
50.6333
50.6329
50.6323
50.632
50.6317
50.6315
50.6313
50.6316
50.6319
50.6315
50.6306
50.6298
50.6295
50.6294
50.6293
50.6291
50.629
50.6291
50.6292
50.6293
50.6283
50.6213
50.5957
50.5715
50.5638
50.5661
50.585
50.6188
50.6379
50.6449
50.6455
50.6436
50.6393
50.6363
50.6343
50.6331
50.6321
50.6314
50.6308
50.6301
50.6295
50.629
50.6284
50.6278
50.6272
50.6267
50.6261
50.6255
50.625
50.6244
50.6238
50.6233
50.6227
50.6222
50.6217
50.6212
50.6207
50.6202
50.6198
50.6194
50.619
50.6186
50.6182
50.6179
50.6175
50.6172
50.6169
50.6167
50.6164
50.6161
50.6159
50.6156
50.6153
50.6151
50.6148
50.6145
50.6142
50.6138
50.6135
50.6131
50.6127
50.6123
50.6118
50.6113
50.6107
50.6102
50.6096
50.6089
50.6083
50.6076
50.6069
50.6062
50.6054
50.6046
50.6039
50.6031
50.6023
50.6015
50.6007
50.5999
50.5991
50.5983
50.5976
50.5968
50.5961
50.5954
50.5948
50.5941
50.5936
50.593
50.5925
50.5921
50.5916
50.5913
50.5909
50.5907
50.5904
50.5902
50.59
50.5899
50.5898
50.5897
50.5897
50.5896
50.5896
50.5896
50.5896
50.5896
50.5896
50.5896
50.5895
50.5895
50.5894
50.5894
50.5893
50.5892
50.589
50.5889
50.5887
50.5885
50.5883
50.5881
50.5878
50.5876
50.5873
50.587
50.5867
50.5864
50.5861
50.5858
50.5855
50.5852
50.5849
50.5847
50.5844
50.5842
50.584
50.5838
50.5836
50.5835
50.5835
50.5834
50.5834
50.5835
50.5836
50.5837
50.5839
50.584
50.5843
50.5845
50.5848
50.585
50.5853
50.5856
50.5859
50.5861
50.5863
50.5865
50.5867
50.5868
50.5869
50.587
50.5871
50.586
50.5939
50.637
50.6401
50.6456
50.6384
50.635
50.6344
50.6343
50.6337
50.6331
50.6331
50.6329
50.6326
50.6324
50.6322
50.6321
50.632
50.6315
50.631
50.6306
50.6304
50.6301
50.6299
50.6299
50.63
50.6295
50.6288
50.6282
50.628
50.6278
50.6277
50.6276
50.6275
50.6276
50.6278
50.6279
50.6269
50.6205
50.6057
50.5967
50.5947
50.5968
50.608
50.6232
50.6317
50.6354
50.6363
50.636
50.6352
50.6342
50.6333
50.6326
50.6319
50.6313
50.6307
50.6301
50.6296
50.629
50.6284
50.6279
50.6273
50.6267
50.6261
50.6256
50.625
50.6244
50.6239
50.6233
50.6228
50.6223
50.6217
50.6212
50.6208
50.6203
50.6198
50.6194
50.619
50.6186
50.6183
50.6179
50.6176
50.6173
50.617
50.6167
50.6164
50.6162
50.6159
50.6157
50.6154
50.6151
50.6148
50.6145
50.6142
50.6139
50.6135
50.6132
50.6127
50.6123
50.6118
50.6113
50.6108
50.6102
50.6096
50.609
50.6083
50.6077
50.6069
50.6062
50.6055
50.6047
50.6039
50.6031
50.6023
50.6015
50.6007
50.5999
50.5991
50.5984
50.5976
50.5969
50.5962
50.5955
50.5948
50.5942
50.5936
50.5931
50.5926
50.5921
50.5917
50.5913
50.591
50.5907
50.5905
50.5903
50.5901
50.59
50.5899
50.5898
50.5897
50.5897
50.5897
50.5897
50.5897
50.5896
50.5896
50.5896
50.5896
50.5896
50.5895
50.5894
50.5893
50.5892
50.5891
50.5889
50.5888
50.5886
50.5884
50.5881
50.5879
50.5876
50.5874
50.5871
50.5868
50.5865
50.5862
50.5859
50.5856
50.5853
50.585
50.5847
50.5845
50.5842
50.584
50.5838
50.5837
50.5836
50.5835
50.5835
50.5835
50.5835
50.5836
50.5837
50.5839
50.5841
50.5843
50.5846
50.5848
50.5851
50.5854
50.5856
50.5859
50.5862
50.5864
50.5866
50.5867
50.5869
50.587
50.587
50.5871
50.5864
50.5897
50.6005
50.6095
50.6168
50.6183
50.6177
50.6172
50.6171
50.6171
50.6171
50.617
50.6168
50.6166
50.6163
50.6159
50.6155
50.6151
50.6148
50.6144
50.614
50.6135
50.6131
50.6126
50.6123
50.6119
50.6116
50.6119
50.6139
50.6183
50.6223
50.6253
50.6274
50.6287
50.6295
50.63
50.6303
50.6306
50.6308
50.6311
50.6316
50.6324
50.6333
50.6339
50.6343
50.6343
50.6342
50.6339
50.6336
50.6332
50.6328
50.6324
50.632
50.6315
50.631
50.6305
50.63
50.6295
50.6289
50.6284
50.6278
50.6273
50.6267
50.6261
50.6256
50.625
50.6244
50.6239
50.6233
50.6228
50.6223
50.6217
50.6212
50.6208
50.6203
50.6198
50.6194
50.619
50.6186
50.6183
50.6179
50.6176
50.6173
50.617
50.6167
50.6164
50.6162
50.6159
50.6157
50.6154
50.6151
50.6148
50.6145
50.6142
50.6139
50.6135
50.6132
50.6127
50.6123
50.6118
50.6113
50.6108
50.6102
50.6096
50.609
50.6083
50.6077
50.6069
50.6062
50.6055
50.6047
50.6039
50.6031
50.6023
50.6015
50.6007
50.5999
50.5991
50.5984
50.5976
50.5969
50.5962
50.5955
50.5948
50.5942
50.5936
50.5931
50.5926
50.5921
50.5917
50.5913
50.591
50.5907
50.5905
50.5903
50.5901
50.59
50.5899
50.5898
50.5897
50.5897
50.5897
50.5897
50.5897
50.5896
50.5896
50.5896
50.5896
50.5896
50.5895
50.5894
50.5893
50.5892
50.5891
50.5889
50.5888
50.5886
50.5884
50.5881
50.5879
50.5876
50.5874
50.5871
50.5868
50.5865
50.5862
50.5859
50.5856
50.5853
50.585
50.5847
50.5845
50.5842
50.584
50.5838
50.5837
50.5836
50.5835
50.5835
50.5835
50.5835
50.5836
50.5837
50.5839
50.5841
50.5843
50.5846
50.5848
50.5851
50.5854
50.5856
50.5859
50.5862
50.5864
50.5866
50.5867
50.5869
50.587
50.587
50.5871
50.5871
50.587
50.6394
50.6381
50.6365
50.6352
50.6344
50.6338
50.6335
50.6334
50.6335
50.6335
50.6334
50.6332
50.6331
50.633
50.6327
50.6325
50.6322
50.632
50.6318
50.6315
50.6313
50.631
50.6308
50.6304
50.63
50.6297
50.6294
50.6292
50.629
50.6288
50.6285
50.6278
50.6272
50.627
50.6269
50.6263
50.6237
50.6207
50.6197
50.6199
50.6212
50.6256
50.6305
50.6334
50.6347
50.635
50.6348
50.6343
50.6337
50.633
50.6324
50.6318
50.6312
50.6307
50.6301
50.6295
50.629
50.6284
50.6279
50.6273
50.6267
50.6261
50.6256
50.625
50.6244
50.6239
50.6233
50.6228
50.6223
50.6217
50.6212
50.6208
50.6203
50.6198
50.6194
50.619
50.6186
50.6183
50.6179
50.6176
50.6173
50.617
50.6167
50.6164
50.6162
50.6159
50.6157
50.6154
50.6151
50.6148
50.6145
50.6142
50.6139
50.6135
50.6132
50.6127
50.6123
50.6118
50.6113
50.6108
50.6102
50.6096
50.609
50.6083
50.6077
50.6069
50.6062
50.6055
50.6047
50.6039
50.6031
50.6023
50.6015
50.6007
50.5999
50.5991
50.5984
50.5976
50.5969
50.5962
50.5955
50.5948
50.5942
50.5936
50.5931
50.5926
50.5921
50.5917
50.5913
50.591
50.5907
50.5905
50.5903
50.5901
50.59
50.5899
50.5898
50.5897
50.5897
50.5897
50.5897
50.5897
50.5896
50.5896
50.5896
50.5896
50.5896
50.5895
50.5894
50.5893
50.5892
50.5891
50.5889
50.5888
50.5886
50.5884
50.5881
50.5879
50.5876
50.5874
50.5871
50.5868
50.5865
50.5862
50.5859
50.5856
50.5853
50.585
50.5847
50.5845
50.5842
50.584
50.5838
50.5837
50.5836
50.5835
50.5835
50.5835
50.5835
50.5836
50.5837
50.5839
50.5841
50.5843
50.5846
50.5848
50.5851
50.5854
50.5856
50.5859
50.5862
50.5864
50.5866
50.5867
50.5869
50.587
50.5871
50.5871
50.5875
50.5864
50.6248
50.6293
50.6284
50.6275
50.6267
50.6261
50.6259
50.6259
50.6259
50.6259
50.6258
50.6257
50.6256
50.6255
50.6253
50.625
50.6248
50.6245
50.6243
50.624
50.6237
50.6234
50.6231
50.6227
50.6223
50.622
50.6218
50.6216
50.6211
50.6204
50.6202
50.6204
50.6211
50.6216
50.6215
50.6175
50.6021
50.5872
50.581
50.5804
50.5836
50.5958
50.6096
50.6191
50.6252
50.6289
50.6309
50.6318
50.6321
50.6321
50.6318
50.6314
50.631
50.6305
50.63
50.6294
50.6289
50.6283
50.6278
50.6272
50.6267
50.6261
50.6255
50.625
50.6244
50.6238
50.6233
50.6227
50.6222
50.6217
50.6212
50.6207
50.6202
50.6198
50.6194
50.619
50.6186
50.6182
50.6179
50.6175
50.6172
50.6169
50.6167
50.6164
50.6161
50.6159
50.6156
50.6153
50.6151
50.6148
50.6145
50.6142
50.6138
50.6135
50.6131
50.6127
50.6123
50.6118
50.6113
50.6107
50.6102
50.6096
50.6089
50.6083
50.6076
50.6069
50.6062
50.6054
50.6046
50.6039
50.6031
50.6023
50.6015
50.6007
50.5999
50.5991
50.5983
50.5976
50.5968
50.5961
50.5954
50.5948
50.5941
50.5936
50.593
50.5925
50.5921
50.5916
50.5913
50.5909
50.5907
50.5904
50.5902
50.59
50.5899
50.5898
50.5897
50.5897
50.5896
50.5896
50.5896
50.5896
50.5896
50.5896
50.5896
50.5895
50.5895
50.5894
50.5894
50.5893
50.5892
50.589
50.5889
50.5887
50.5885
50.5883
50.5881
50.5878
50.5876
50.5873
50.587
50.5867
50.5864
50.5861
50.5858
50.5855
50.5852
50.5849
50.5847
50.5844
50.5842
50.584
50.5838
50.5836
50.5835
50.5835
50.5834
50.5834
50.5835
50.5836
50.5837
50.5839
50.584
50.5843
50.5845
50.5848
50.585
50.5853
50.5856
50.5859
50.5861
50.5863
50.5865
50.5867
50.5868
50.5869
50.587
50.5871
50.5875
50.5862
50.5599
50.5481
50.5438
50.5428
50.5405
50.5358
50.5294
50.5228
50.5152
50.5079
50.5004
50.4927
50.4855
50.4782
50.4716
50.465
50.4596
50.4548
50.4515
50.4499
50.5682
50.5653
50.5657
50.5668
50.5656
50.562
50.5563
50.5513
50.5446
50.539
50.5323
50.5266
50.5199
50.5141
50.5084
50.5032
50.4985
50.4947
50.492
50.4901
50.5877
50.5876
50.5867
50.5848
50.5821
50.5789
50.5752
50.5707
50.5657
50.5595
50.5526
50.5446
50.5352
50.5259
50.5176
50.5105
50.5033
50.4943
50.4846
50.4739
50.5974
50.6006
50.6006
50.5992
50.598
50.5969
50.5953
50.5915
50.5871
50.583
50.5798
50.5786
50.5881
50.5931
50.5877
50.5715
50.5527
50.5409
50.5306
50.5206
50.6006
50.607
50.6077
50.6062
50.6048
50.6037
50.602
50.5984
50.5939
50.5896
50.5862
50.585
50.5934
50.5992
50.5961
50.5831
50.565
50.5517
50.5402
50.5293
50.4701
50.473
50.4714
50.4705
50.4695
50.4686
50.4682
50.4681
50.468
50.4678
50.4676
50.4675
50.4674
50.4672
50.4671
50.4669
50.4669
50.4668
50.4668
50.4668
50.4668
50.4667
50.4666
50.4666
50.4666
50.4668
50.467
50.4672
50.4672
50.4669
50.4669
50.4672
50.4679
50.469
50.4697
50.4695
50.4636
50.4466
50.4342
50.4299
50.4304
50.4353
50.4493
50.4622
50.4711
50.4768
50.4803
50.4824
50.4835
50.484
50.4842
50.4842
50.4842
50.484
50.4839
50.4837
50.4835
50.4832
50.483
50.4828
50.4826
50.4823
50.4821
50.4819
50.4817
50.4815
50.4813
50.4811
50.481
50.4808
50.4807
50.4807
50.4806
50.4806
50.4807
50.4807
50.4808
50.481
50.4811
50.4813
50.4815
50.4818
50.482
50.4823
50.4826
50.4829
50.4832
50.4834
50.4837
50.4839
50.4841
50.4842
50.4844
50.4845
50.4845
50.4845
50.4845
50.4845
50.4833
50.4908
50.4843
50.4813
50.4793
50.478
50.4769
50.476
50.4755
50.4755
50.4754
50.4752
50.475
50.4748
50.4746
50.4745
50.4743
50.4742
50.4741
50.4741
50.4741
50.4741
50.4741
50.4741
50.4741
50.4741
50.4741
50.4743
50.4744
50.4746
50.4747
50.4749
50.475
50.4749
50.4746
50.4745
50.4748
50.4751
50.4745
50.4717
50.4695
50.4692
50.4698
50.4718
50.4769
50.4814
50.4842
50.4855
50.4859
50.4859
50.4858
50.4854
50.4851
50.4848
50.4845
50.4843
50.484
50.4838
50.4836
50.4833
50.4831
50.4829
50.4826
50.4824
50.4822
50.4819
50.4817
50.4815
50.4813
50.4812
50.481
50.4809
50.4808
50.4807
50.4807
50.4807
50.4807
50.4808
50.4809
50.481
50.4812
50.4814
50.4816
50.4818
50.4821
50.4824
50.4826
50.4829
50.4832
50.4835
50.4837
50.4839
50.4841
50.4843
50.4844
50.4845
50.4846
50.4846
50.4845
50.4845
50.4837
50.4866
50.4422
50.4524
50.4605
50.4618
50.4608
50.46
50.4595
50.4595
50.4593
50.4591
50.4588
50.4585
50.4583
50.458
50.4577
50.4575
50.4573
50.4572
50.4571
50.457
50.4568
50.4565
50.4562
50.4562
50.4563
50.4566
50.4575
50.4602
50.4648
50.4688
50.4718
50.474
50.4754
50.4765
50.4772
50.4779
50.4785
50.4791
50.4798
50.4806
50.4819
50.483
50.4838
50.4844
50.4846
50.4848
50.4848
50.4848
50.4847
50.4846
50.4845
50.4844
50.4842
50.4841
50.4839
50.4837
50.4835
50.4833
50.4831
50.4829
50.4826
50.4824
50.4822
50.4819
50.4817
50.4815
50.4813
50.4812
50.481
50.4809
50.4808
50.4807
50.4807
50.4807
50.4807
50.4808
50.4809
50.481
50.4812
50.4814
50.4816
50.4818
50.4821
50.4824
50.4826
50.4829
50.4832
50.4835
50.4837
50.4839
50.4841
50.4843
50.4844
50.4845
50.4846
50.4846
50.4846
50.4845
50.4844
50.4843
50.5077
50.4943
50.484
50.479
50.4784
50.4779
50.4767
50.4753
50.475
50.4748
50.4745
50.4741
50.4739
50.4739
50.4739
50.4737
50.4733
50.4731
50.473
50.4731
50.4732
50.4735
50.4738
50.4735
50.4732
50.473
50.4732
50.4735
50.4737
50.4739
50.4739
50.4739
50.4742
50.4746
50.4751
50.4753
50.474
50.466
50.4524
50.4455
50.4448
50.4481
50.4611
50.4754
50.4832
50.4865
50.4873
50.4873
50.4867
50.4859
50.4854
50.485
50.4846
50.4844
50.4841
50.4838
50.4836
50.4833
50.4831
50.4829
50.4826
50.4824
50.4822
50.4819
50.4817
50.4815
50.4813
50.4812
50.481
50.4809
50.4808
50.4807
50.4807
50.4807
50.4807
50.4808
50.4809
50.481
50.4812
50.4814
50.4816
50.4818
50.4821
50.4824
50.4826
50.4829
50.4832
50.4835
50.4837
50.4839
50.4841
50.4843
50.4844
50.4845
50.4846
50.4846
50.4846
50.4846
50.4849
50.4838
50.5091
50.4948
50.4846
50.4798
50.4792
50.479
50.4778
50.4764
50.476
50.4759
50.4756
50.4752
50.475
50.4751
50.4752
50.475
50.4746
50.4743
50.4743
50.4743
50.4745
50.475
50.4755
50.4753
50.4749
50.4746
50.4746
50.4749
50.4751
50.4754
50.4756
50.4757
50.4759
50.4762
50.4766
50.4769
50.4759
50.4677
50.4417
50.4213
50.4159
50.4194
50.4404
50.4719
50.4891
50.4952
50.4959
50.4941
50.4903
50.4878
50.4863
50.4854
50.4848
50.4844
50.4841
50.4838
50.4836
50.4833
50.4831
50.4828
50.4826
50.4824
50.4821
50.4819
50.4817
50.4815
50.4813
50.4811
50.481
50.4808
50.4807
50.4807
50.4806
50.4806
50.4807
50.4807
50.4808
50.481
50.4811
50.4813
50.4815
50.4818
50.482
50.4823
50.4826
50.4829
50.4832
50.4834
50.4837
50.4839
50.4841
50.4842
50.4844
50.4845
50.4845
50.4845
50.4845
50.4845
50.4849
50.4836
50.4572
50.4452
50.4408
50.4398
50.4375
50.4327
50.4263
50.4196
50.412
50.4047
50.3971
50.3893
50.3822
50.3748
50.3681
50.3615
50.356
50.3512
50.3478
50.3461
50.4654
50.4624
50.4628
50.4638
50.4626
50.459
50.4533
50.4483
50.4415
50.4358
50.4291
50.4233
50.4167
50.4108
50.4051
50.3999
50.3951
50.3912
50.3885
50.3865
50.4849
50.4848
50.4839
50.4819
50.4793
50.4761
50.4723
50.4678
50.4627
50.4566
50.4496
50.4416
50.4322
50.4227
50.4142
50.4071
50.3999
50.391
50.3813
50.3706
50.4947
50.4979
50.4978
50.4965
50.4952
50.4941
50.4925
50.4889
50.4842
50.4799
50.4766
50.4752
50.4843
50.4899
50.4854
50.4697
50.4503
50.4379
50.4275
50.4173
50.4979
50.5042
50.505
50.5034
50.502
50.5009
50.4993
50.4958
50.4911
50.4866
50.483
50.4817
50.4897
50.4959
50.4936
50.4812
50.4629
50.4489
50.4373
50.4262
50.3664
50.3693
50.3679
50.3671
50.366
50.3652
50.3648
50.3647
50.3646
50.3644
50.3643
50.3641
50.364
50.3639
50.3639
50.3639
50.3639
50.364
50.364
50.3641
50.3642
50.3643
50.3643
50.3643
50.3644
50.3646
50.3648
50.3648
50.3644
50.3643
50.3647
50.3654
50.3664
50.367
50.3664
50.3591
50.3417
50.3309
50.3278
50.3288
50.3352
50.3499
50.3619
50.37
50.3752
50.3783
50.38
50.3809
50.3813
50.3815
50.3814
50.3813
50.3812
50.381
50.3808
50.3806
50.3804
50.3802
50.38
50.3798
50.3796
50.3794
50.3792
50.379
50.3789
50.3788
50.3787
50.3786
50.3785
50.3785
50.3785
50.3785
50.3786
50.3786
50.3787
50.3788
50.379
50.3791
50.3793
50.3794
50.3796
50.3798
50.38
50.3801
50.3803
50.3805
50.3806
50.3808
50.3809
50.381
50.381
50.3811
50.3811
50.3811
50.3811
50.3811
50.381
50.3809
50.3808
50.3806
50.3805
50.3803
50.3801
50.3799
50.3797
50.3795
50.3793
50.379
50.3788
50.3786
50.3784
50.3782
50.378
50.3778
50.3776
50.3775
50.3773
50.3772
50.3771
50.3771
50.377
50.377
50.377
50.3771
50.3771
50.3772
50.3773
50.3775
50.3776
50.3778
50.3779
50.3781
50.3783
50.3784
50.3786
50.3787
50.3789
50.379
50.3791
50.3792
50.3793
50.3793
50.3794
50.3794
50.3794
50.3793
50.3793
50.3792
50.3791
50.379
50.3788
50.3787
50.3785
50.3783
50.3781
50.3779
50.3777
50.3775
50.3773
50.3772
50.377
50.3768
50.3766
50.3764
50.3763
50.3762
50.3761
50.376
50.3759
50.3759
50.3759
50.3759
50.376
50.3761
50.3762
50.3764
50.3765
50.3767
50.3769
50.3771
50.3773
50.3775
50.3777
50.3779
50.3781
50.3782
50.3784
50.3784
50.3785
50.3786
50.3786
50.3786
50.3785
50.3785
50.3784
50.3784
50.3783
50.3782
50.3785
50.3772
50.3805
50.3776
50.3758
50.3746
50.3734
50.3725
50.3721
50.3721
50.372
50.3718
50.3716
50.3715
50.3714
50.3713
50.3712
50.3712
50.3712
50.3712
50.3713
50.3714
50.3716
50.3717
50.3718
50.3718
50.3718
50.372
50.3722
50.3723
50.3725
50.3727
50.3725
50.3721
50.372
50.3723
50.3725
50.3715
50.3687
50.3671
50.3671
50.3679
50.3706
50.3759
50.3799
50.3821
50.383
50.3833
50.3832
50.383
50.3826
50.3822
50.3819
50.3816
50.3814
50.3811
50.3809
50.3807
50.3805
50.3802
50.38
50.3798
50.3796
50.3794
50.3793
50.3791
50.3789
50.3788
50.3787
50.3786
50.3786
50.3786
50.3785
50.3786
50.3786
50.3787
50.3788
50.3789
50.379
50.3792
50.3793
50.3795
50.3797
50.3798
50.38
50.3802
50.3804
50.3805
50.3807
50.3808
50.3809
50.381
50.3811
50.3811
50.3812
50.3812
50.3812
50.3811
50.381
50.3809
50.3808
50.3807
50.3805
50.3804
50.3802
50.38
50.3798
50.3795
50.3793
50.3791
50.3789
50.3787
50.3784
50.3782
50.378
50.3778
50.3777
50.3775
50.3774
50.3773
50.3772
50.3771
50.3771
50.3771
50.3771
50.3771
50.3772
50.3773
50.3774
50.3775
50.3776
50.3778
50.378
50.3781
50.3783
50.3785
50.3786
50.3788
50.3789
50.3791
50.3792
50.3793
50.3793
50.3794
50.3794
50.3794
50.3794
50.3794
50.3793
50.3792
50.3791
50.379
50.3789
50.3787
50.3786
50.3784
50.3782
50.378
50.3778
50.3776
50.3774
50.3772
50.377
50.3768
50.3766
50.3765
50.3763
50.3762
50.3761
50.376
50.376
50.376
50.376
50.376
50.3761
50.3761
50.3763
50.3764
50.3766
50.3767
50.3769
50.3772
50.3774
50.3776
50.3778
50.378
50.3781
50.3783
50.3784
50.3785
50.3786
50.3786
50.3786
50.3786
50.3786
50.3785
50.3785
50.3784
50.3783
50.3783
50.3786
50.3774
50.3384
50.3492
50.3573
50.3586
50.3575
50.3566
50.3562
50.3562
50.3561
50.3559
50.3557
50.3555
50.3554
50.3551
50.3549
50.3546
50.3545
50.3544
50.3543
50.3541
50.3539
50.3538
50.3537
50.3537
50.354
50.3548
50.3574
50.362
50.366
50.3692
50.3715
50.373
50.3741
50.3748
50.3755
50.3761
50.3768
50.3775
50.3784
50.3796
50.3807
50.3814
50.3818
50.382
50.3821
50.3821
50.382
50.3819
50.3818
50.3817
50.3816
50.3814
50.3812
50.381
50.3808
50.3806
50.3804
50.3802
50.38
50.3798
50.3796
50.3794
50.3793
50.3791
50.3789
50.3788
50.3787
50.3786
50.3786
50.3786
50.3785
50.3786
50.3786
50.3787
50.3788
50.3789
50.379
50.3792
50.3793
50.3795
50.3797
50.3798
50.38
50.3802
50.3804
50.3805
50.3807
50.3808
50.3809
50.381
50.3811
50.3811
50.3812
50.3812
50.3812
50.3811
50.381
50.3809
50.3808
50.3807
50.3805
50.3804
50.3802
50.38
50.3798
50.3795
50.3793
50.3791
50.3789
50.3787
50.3784
50.3782
50.378
50.3778
50.3777
50.3775
50.3774
50.3773
50.3772
50.3771
50.3771
50.3771
50.3771
50.3771
50.3772
50.3773
50.3774
50.3775
50.3776
50.3778
50.378
50.3781
50.3783
50.3785
50.3786
50.3788
50.3789
50.3791
50.3792
50.3793
50.3793
50.3794
50.3794
50.3794
50.3794
50.3794
50.3793
50.3792
50.3791
50.379
50.3789
50.3787
50.3786
50.3784
50.3782
50.378
50.3778
50.3776
50.3774
50.3772
50.377
50.3768
50.3766
50.3765
50.3763
50.3762
50.3761
50.376
50.376
50.376
50.376
50.376
50.3761
50.3761
50.3763
50.3764
50.3766
50.3767
50.3769
50.3772
50.3774
50.3776
50.3778
50.378
50.3781
50.3783
50.3784
50.3785
50.3786
50.3786
50.3786
50.3786
50.3786
50.3785
50.3785
50.3784
50.3783
50.3782
50.3782
50.378
50.402
50.3894
50.3803
50.3757
50.3748
50.3741
50.373
50.3719
50.3716
50.3715
50.3711
50.3709
50.3708
50.3708
50.3706
50.3705
50.3703
50.3703
50.3704
50.3705
50.3706
50.3708
50.3712
50.3713
50.371
50.3708
50.3709
50.3711
50.3713
50.3715
50.3716
50.3719
50.3724
50.3729
50.373
50.3709
50.3607
50.3484
50.3432
50.3435
50.3484
50.3633
50.3755
50.3818
50.3841
50.3846
50.3844
50.3837
50.383
50.3825
50.3821
50.3817
50.3815
50.3812
50.3809
50.3807
50.3805
50.3802
50.38
50.3798
50.3796
50.3794
50.3793
50.3791
50.3789
50.3788
50.3787
50.3786
50.3786
50.3786
50.3785
50.3786
50.3786
50.3787
50.3788
50.3789
50.379
50.3792
50.3793
50.3795
50.3797
50.3798
50.38
50.3802
50.3804
50.3805
50.3807
50.3808
50.3809
50.381
50.3811
50.3811
50.3812
50.3812
50.3812
50.3811
50.381
50.3809
50.3808
50.3807
50.3805
50.3804
50.3802
50.38
50.3798
50.3795
50.3793
50.3791
50.3789
50.3787
50.3784
50.3782
50.378
50.3778
50.3777
50.3775
50.3774
50.3773
50.3772
50.3771
50.3771
50.3771
50.3771
50.3771
50.3772
50.3773
50.3774
50.3775
50.3776
50.3778
50.378
50.3781
50.3783
50.3785
50.3786
50.3788
50.3789
50.3791
50.3792
50.3793
50.3793
50.3794
50.3794
50.3794
50.3794
50.3794
50.3793
50.3792
50.3791
50.379
50.3789
50.3787
50.3786
50.3784
50.3782
50.378
50.3778
50.3776
50.3774
50.3772
50.377
50.3768
50.3766
50.3765
50.3763
50.3762
50.3761
50.376
50.376
50.376
50.376
50.376
50.3761
50.3761
50.3763
50.3764
50.3766
50.3768
50.3769
50.3772
50.3774
50.3776
50.3778
50.378
50.3781
50.3783
50.3784
50.3785
50.3786
50.3786
50.3786
50.3786
50.3786
50.3785
50.3785
50.3784
50.3783
50.3782
50.3774
50.3807
50.4035
50.3898
50.3809
50.3764
50.3756
50.3752
50.374
50.3729
50.3726
50.3725
50.3722
50.3719
50.3718
50.3719
50.3717
50.3716
50.3715
50.3715
50.3715
50.3717
50.3719
50.3723
50.3731
50.3732
50.3728
50.3724
50.3724
50.3726
50.3728
50.3731
50.3732
50.3734
50.3738
50.3743
50.3745
50.3726
50.3606
50.333
50.3171
50.3147
50.321
50.3479
50.3756
50.3889
50.3928
50.3927
50.3901
50.3866
50.3845
50.3832
50.3824
50.3819
50.3815
50.3812
50.3809
50.3807
50.3804
50.3802
50.38
50.3798
50.3796
50.3794
50.3792
50.379
50.3789
50.3788
50.3787
50.3786
50.3785
50.3785
50.3785
50.3785
50.3786
50.3786
50.3787
50.3788
50.379
50.3791
50.3793
50.3794
50.3796
50.3798
50.38
50.3801
50.3803
50.3805
50.3806
50.3808
50.3809
50.381