/*--------------------------------*- C++ -*----------------------------------*\
| =========                 |                                                 |
| \\      /  F ield         | OpenFOAM: The Open Source CFD Toolbox           |
|  \\    /   O peration     | Version:  3.0.x                                 |
|   \\  /    A nd           | Web:      www.OpenFOAM.org                      |
|    \\/     M anipulation  |                                                 |
\*---------------------------------------------------------------------------*/
FoamFile
{
    version     2.0;
    format      ascii;
    class       volVectorField;
    location    "0.18";
    object      U;
}
// * * * * * * * * * * * * * * * * * * * * * * * * * * * * * * * * * * * * * //

dimensions      [0 1 -1 0 0 0 0];

internalField   nonuniform List<vector> 
6900
(
(42.6921 0.000101507 0)
(42.6744 9.28899e-05 0)
(42.6534 9.05172e-05 0)
(42.6337 9.1393e-05 0)
(42.6152 9.2143e-05 0)
(42.5971 9.2595e-05 0)
(42.5789 9.29503e-05 0)
(42.5607 9.32343e-05 0)
(42.5425 9.34544e-05 0)
(42.5244 9.36252e-05 0)
(42.5064 9.37606e-05 0)
(42.4884 9.38686e-05 0)
(42.4705 9.39523e-05 0)
(42.4526 9.40098e-05 0)
(42.4347 9.40334e-05 0)
(42.4168 9.40027e-05 0)
(42.3989 9.38843e-05 0)
(42.381 9.36296e-05 0)
(42.363 9.31708e-05 0)
(42.345 9.24222e-05 0)
(42.3269 9.12832e-05 0)
(42.3089 8.96453e-05 0)
(42.2908 8.74035e-05 0)
(42.2727 8.44689e-05 0)
(42.2546 8.07854e-05 0)
(42.2366 7.63399e-05 0)
(42.2186 7.11726e-05 0)
(42.2007 6.5379e-05 0)
(42.183 5.91029e-05 0)
(42.1654 5.25261e-05 0)
(42.148 4.58516e-05 0)
(42.1308 3.92846e-05 0)
(42.1138 3.30141e-05 0)
(42.0971 2.71983e-05 0)
(42.0807 2.19541e-05 0)
(42.0646 1.73528e-05 0)
(42.0488 1.34212e-05 0)
(42.0333 1.01475e-05 0)
(42.0182 7.48886e-06 0)
(42.0035 5.38186e-06 0)
(41.9892 3.75101e-06 0)
(41.9752 2.51569e-06 0)
(41.9617 1.60465e-06 0)
(41.9485 9.426e-07 0)
(41.9358 4.70945e-07 0)
(41.9235 1.35207e-07 0)
(41.9116 -8.35662e-08 0)
(41.9001 -2.26678e-07 0)
(41.889 -3.20372e-07 0)
(41.8784 -3.80768e-07 0)
(41.8681 -4.19421e-07 0)
(41.8581 -4.43542e-07 0)
(41.8485 -4.58657e-07 0)
(41.8392 -4.67834e-07 0)
(41.8303 -4.73325e-07 0)
(41.8215 -4.76525e-07 0)
(41.8131 -4.78267e-07 0)
(41.8048 -4.78985e-07 0)
(41.7968 -4.79188e-07 0)
(41.7889 -4.78831e-07 0)
(41.7812 -4.77913e-07 0)
(41.7736 -4.78211e-07 0)
(41.7661 -4.78414e-07 0)
(41.7587 -4.76359e-07 0)
(41.7514 -4.74519e-07 0)
(41.7442 -4.73312e-07 0)
(41.737 -4.72501e-07 0)
(41.7299 -4.71763e-07 0)
(41.7229 -4.71057e-07 0)
(41.7159 -4.69738e-07 0)
(41.7089 -4.68356e-07 0)
(41.7021 -4.67601e-07 0)
(41.6952 -4.67679e-07 0)
(41.6885 -4.68167e-07 0)
(41.6818 -4.68587e-07 0)
(41.6751 -4.68837e-07 0)
(41.6686 -4.69058e-07 0)
(41.6621 -4.69337e-07 0)
(41.6556 -4.69714e-07 0)
(41.6493 -4.70155e-07 0)
(41.6429 -4.70738e-07 0)
(41.6366 -4.71407e-07 0)
(41.6304 -4.72109e-07 0)
(41.6241 -4.72906e-07 0)
(41.6178 -4.73696e-07 0)
(41.6115 -4.74472e-07 0)
(41.6052 -4.75239e-07 0)
(41.5988 -4.7591e-07 0)
(41.5922 -4.76568e-07 0)
(41.5856 -4.77038e-07 0)
(41.5788 -4.77319e-07 0)
(41.5719 -4.7727e-07 0)
(41.5647 -4.76978e-07 0)
(41.5573 -4.76428e-07 0)
(41.5497 -4.75781e-07 0)
(41.5419 -4.75012e-07 0)
(41.5337 -4.74163e-07 0)
(41.5253 -4.73153e-07 0)
(41.5166 -4.71902e-07 0)
(41.5076 -4.70391e-07 0)
(41.4983 -4.6861e-07 0)
(41.4888 -4.66581e-07 0)
(41.479 -4.64345e-07 0)
(41.4689 -4.61956e-07 0)
(41.4587 -4.59579e-07 0)
(41.4482 -4.57107e-07 0)
(41.4376 -4.54169e-07 0)
(41.4269 -4.51371e-07 0)
(41.4161 -4.4875e-07 0)
(41.4053 -4.46229e-07 0)
(41.3945 -4.4361e-07 0)
(41.3837 -4.4085e-07 0)
(41.373 -4.3804e-07 0)
(41.3623 -4.35361e-07 0)
(41.3518 -4.32864e-07 0)
(41.3415 -4.3046e-07 0)
(41.3312 -4.28001e-07 0)
(41.3212 -4.25367e-07 0)
(41.3112 -4.22548e-07 0)
(41.3015 -4.19605e-07 0)
(41.2918 -4.16593e-07 0)
(41.2823 -4.13569e-07 0)
(41.2729 -4.10566e-07 0)
(41.2636 -4.08123e-07 0)
(41.2543 -4.05117e-07 0)
(41.2451 -4.00726e-07 0)
(41.2358 -3.97878e-07 0)
(41.2264 -3.95527e-07 0)
(41.2171 -3.95448e-07 0)
(41.2076 -3.9046e-07 0)
(41.1979 -3.81467e-07 0)
(41.1879 -3.82838e-07 0)
(41.1777 -3.79858e-07 0)
(41.1673 -3.75915e-07 0)
(41.1566 -3.72083e-07 0)
(41.1455 -3.68446e-07 0)
(41.1342 -3.65007e-07 0)
(41.1224 -3.61695e-07 0)
(41.1104 -3.58691e-07 0)
(41.098 -3.55909e-07 0)
(41.0853 -3.53295e-07 0)
(41.0723 -3.50723e-07 0)
(41.0592 -3.48291e-07 0)
(41.0459 -3.46282e-07 0)
(41.0325 -3.44881e-07 0)
(41.0191 -3.44093e-07 0)
(41.0058 -3.43905e-07 0)
(40.9927 -3.44273e-07 0)
(40.9798 -3.45169e-07 0)
(40.9672 -3.46526e-07 0)
(40.955 -3.48329e-07 0)
(40.9431 -3.5061e-07 0)
(40.9318 -3.53401e-07 0)
(40.9209 -3.56629e-07 0)
(40.9106 -3.60074e-07 0)
(40.9008 -3.63562e-07 0)
(40.8915 -3.66979e-07 0)
(40.8827 -3.70227e-07 0)
(40.8744 -3.7326e-07 0)
(40.8666 -3.76139e-07 0)
(40.8592 -3.78989e-07 0)
(40.8523 -3.82015e-07 0)
(40.8457 -3.85087e-07 0)
(40.8396 -3.88287e-07 0)
(40.8337 -3.91202e-07 0)
(40.8282 -3.94156e-07 0)
(40.8228 -3.96488e-07 0)
(40.8176 -3.98897e-07 0)
(40.8125 -4.00417e-07 0)
(40.8074 -4.01963e-07 0)
(40.8022 -4.02647e-07 0)
(40.7968 -4.03202e-07 0)
(40.7911 -4.03355e-07 0)
(40.7851 -4.03236e-07 0)
(40.7787 -4.02907e-07 0)
(40.7718 -4.02455e-07 0)
(40.7645 -4.0203e-07 0)
(40.7566 -4.01479e-07 0)
(40.7483 -4.00994e-07 0)
(40.7395 -4.0058e-07 0)
(40.7304 -4.00734e-07 0)
(40.7209 -4.00652e-07 0)
(40.7112 -4.01005e-07 0)
(40.7014 -4.01749e-07 0)
(40.6916 -4.02973e-07 0)
(40.6819 -4.04876e-07 0)
(40.6724 -4.07197e-07 0)
(40.6633 -4.10117e-07 0)
(40.6546 -4.13177e-07 0)
(40.6464 -4.1642e-07 0)
(40.6386 -4.17501e-07 0)
(40.6312 -4.04764e-07 0)
(40.6241 -3.26523e-07 0)
(40.6174 2.79082e-07 0)
(40.6108 4.61246e-06 0)
(40.6037 3.50078e-05 0)
(40.5921 0.000247888 0)
(40.5482 0.00174646 0)
(40.3714 0.0158646 0)
(37.9468 0.0818563 0)
(42.6938 0.000128707 0)
(42.678 9.90514e-05 0)
(42.6588 8.68174e-05 0)
(42.6408 8.6048e-05 0)
(42.6242 8.60003e-05 0)
(42.6079 8.56216e-05 0)
(42.5915 8.53717e-05 0)
(42.575 8.5226e-05 0)
(42.5587 8.51234e-05 0)
(42.5424 8.50464e-05 0)
(42.5262 8.49908e-05 0)
(42.51 8.49505e-05 0)
(42.4939 8.49199e-05 0)
(42.4778 8.48904e-05 0)
(42.4617 8.48499e-05 0)
(42.4456 8.47767e-05 0)
(42.4295 8.46386e-05 0)
(42.4134 8.43894e-05 0)
(42.3972 8.39663e-05 0)
(42.381 8.32915e-05 0)
(42.3647 8.22735e-05 0)
(42.3484 8.08135e-05 0)
(42.332 7.88153e-05 0)
(42.3155 7.61968e-05 0)
(42.299 7.2906e-05 0)
(42.2825 6.89288e-05 0)
(42.266 6.42975e-05 0)
(42.2494 5.90978e-05 0)
(42.2328 5.34568e-05 0)
(42.2163 4.75374e-05 0)
(42.1998 4.15223e-05 0)
(42.1835 3.55966e-05 0)
(42.1672 2.99318e-05 0)
(42.1511 2.46721e-05 0)
(42.1351 1.99242e-05 0)
(42.1194 1.57541e-05 0)
(42.1039 1.21873e-05 0)
(42.0887 9.21426e-06 0)
(42.0737 6.7974e-06 0)
(42.0591 4.88012e-06 0)
(42.0449 3.39458e-06 0)
(42.031 2.2676e-06 0)
(42.0175 1.43917e-06 0)
(42.0043 8.36386e-07 0)
(41.9916 4.07006e-07 0)
(41.9793 1.04198e-07 0)
(41.9674 -9.83355e-08 0)
(41.9559 -2.33875e-07 0)
(41.9448 -3.22657e-07 0)
(41.9342 -3.80109e-07 0)
(41.9238 -4.17172e-07 0)
(41.9139 -4.40383e-07 0)
(41.9043 -4.55104e-07 0)
(41.895 -4.64027e-07 0)
(41.886 -4.693e-07 0)
(41.8773 -4.7226e-07 0)
(41.8688 -4.73674e-07 0)
(41.8605 -4.73912e-07 0)
(41.8525 -4.73552e-07 0)
(41.8446 -4.72453e-07 0)
(41.8369 -4.70675e-07 0)
(41.8293 -4.70571e-07 0)
(41.8218 -4.69903e-07 0)
(41.8144 -4.65903e-07 0)
(41.8071 -4.6257e-07 0)
(41.7998 -4.60275e-07 0)
(41.7927 -4.58391e-07 0)
(41.7855 -4.56489e-07 0)
(41.7785 -4.54551e-07 0)
(41.7715 -4.5187e-07 0)
(41.7645 -4.49277e-07 0)
(41.7576 -4.47583e-07 0)
(41.7508 -4.46895e-07 0)
(41.744 -4.46652e-07 0)
(41.7373 -4.46378e-07 0)
(41.7307 -4.4607e-07 0)
(41.7241 -4.45915e-07 0)
(41.7176 -4.4601e-07 0)
(41.7111 -4.46359e-07 0)
(41.7047 -4.46959e-07 0)
(41.6984 -4.47874e-07 0)
(41.6921 -4.48994e-07 0)
(41.6858 -4.50262e-07 0)
(41.6796 -4.51744e-07 0)
(41.6733 -4.53303e-07 0)
(41.667 -4.54917e-07 0)
(41.6606 -4.56585e-07 0)
(41.6542 -4.58157e-07 0)
(41.6476 -4.59736e-07 0)
(41.641 -4.61092e-07 0)
(41.6342 -4.62233e-07 0)
(41.6272 -4.62976e-07 0)
(41.6201 -4.63424e-07 0)
(41.6127 -4.63529e-07 0)
(41.6051 -4.6345e-07 0)
(41.5972 -4.63126e-07 0)
(41.589 -4.62612e-07 0)
(41.5806 -4.61806e-07 0)
(41.5719 -4.6066e-07 0)
(41.5629 -4.59157e-07 0)
(41.5536 -4.57304e-07 0)
(41.544 -4.5513e-07 0)
(41.5342 -4.52695e-07 0)
(41.5242 -4.5007e-07 0)
(41.5139 -4.4744e-07 0)
(41.5034 -4.44644e-07 0)
(41.4928 -4.41262e-07 0)
(41.4821 -4.38159e-07 0)
(41.4713 -4.35281e-07 0)
(41.4605 -4.32494e-07 0)
(41.4497 -4.29519e-07 0)
(41.4389 -4.2636e-07 0)
(41.4281 -4.23154e-07 0)
(41.4175 -4.20068e-07 0)
(41.407 -4.1714e-07 0)
(41.3966 -4.14203e-07 0)
(41.3863 -4.11093e-07 0)
(41.3763 -4.07697e-07 0)
(41.3663 -4.04025e-07 0)
(41.3566 -4.00126e-07 0)
(41.3469 -3.96026e-07 0)
(41.3374 -3.91764e-07 0)
(41.328 -3.87394e-07 0)
(41.3186 -3.83688e-07 0)
(41.3094 -3.78747e-07 0)
(41.3001 -3.71543e-07 0)
(41.2908 -3.67061e-07 0)
(41.2815 -3.63253e-07 0)
(41.2721 -3.62855e-07 0)
(41.2626 -3.53696e-07 0)
(41.2528 -3.37847e-07 0)
(41.2429 -3.39975e-07 0)
(41.2327 -3.34343e-07 0)
(41.2223 -3.27099e-07 0)
(41.2115 -3.20162e-07 0)
(41.2005 -3.13506e-07 0)
(41.1891 -3.07079e-07 0)
(41.1774 -3.00815e-07 0)
(41.1653 -2.95057e-07 0)
(41.1529 -2.89744e-07 0)
(41.1402 -2.84814e-07 0)
(41.1272 -2.80191e-07 0)
(41.1141 -2.76081e-07 0)
(41.1008 -2.72868e-07 0)
(41.0874 -2.7074e-07 0)
(41.074 -2.6968e-07 0)
(41.0607 -2.69662e-07 0)
(41.0475 -2.7062e-07 0)
(41.0346 -2.7249e-07 0)
(41.022 -2.75166e-07 0)
(41.0098 -2.78589e-07 0)
(40.998 -2.82747e-07 0)
(40.9866 -2.87599e-07 0)
(40.9757 -2.92989e-07 0)
(40.9654 -2.98649e-07 0)
(40.9555 -3.04382e-07 0)
(40.9462 -3.10056e-07 0)
(40.9374 -3.15548e-07 0)
(40.9291 -3.20789e-07 0)
(40.9213 -3.25839e-07 0)
(40.9139 -3.30793e-07 0)
(40.907 -3.35845e-07 0)
(40.9004 -3.40753e-07 0)
(40.8943 -3.45657e-07 0)
(40.8884 -3.49993e-07 0)
(40.8828 -3.54287e-07 0)
(40.8775 -3.57519e-07 0)
(40.8723 -3.60798e-07 0)
(40.8672 -3.62553e-07 0)
(40.862 -3.6432e-07 0)
(40.8568 -3.64563e-07 0)
(40.8514 -3.64588e-07 0)
(40.8457 -3.63495e-07 0)
(40.8397 -3.61882e-07 0)
(40.8333 -3.59556e-07 0)
(40.8264 -3.56759e-07 0)
(40.819 -3.53466e-07 0)
(40.8112 -3.50234e-07 0)
(40.8029 -3.47304e-07 0)
(40.7941 -3.43692e-07 0)
(40.7849 -3.42189e-07 0)
(40.7754 -3.39931e-07 0)
(40.7657 -3.39021e-07 0)
(40.7559 -3.3891e-07 0)
(40.7461 -3.3938e-07 0)
(40.7364 -3.4136e-07 0)
(40.7269 -3.43774e-07 0)
(40.7178 -3.47426e-07 0)
(40.7091 -3.50734e-07 0)
(40.7008 -3.5429e-07 0)
(40.693 -3.47886e-07 0)
(40.6856 -2.73045e-07 0)
(40.6785 2.70369e-07 0)
(40.6718 4.06622e-06 0)
(40.6652 3.04891e-05 0)
(40.6581 0.000214794 0)
(40.6466 0.00149813 0)
(40.6039 0.0103696 0)
(40.4319 0.0747021 0)
(38.5573 0.353577 0)
(42.6938 -5.55726e-13 0)
(42.6779 -8.89503e-13 0)
(42.6588 -1.70413e-13 0)
(42.6408 -3.203e-13 0)
(42.6241 -2.08666e-12 0)
(42.6078 -5.22672e-12 0)
(42.5914 -9.2712e-12 0)
(42.575 -1.13307e-11 0)
(42.5586 -1.0383e-11 0)
(42.5424 -8.09633e-12 0)
(42.5262 -5.62776e-12 0)
(42.51 -7.28141e-12 0)
(42.4939 -9.77115e-12 0)
(42.4778 -1.25677e-11 0)
(42.4617 -1.44705e-11 0)
(42.4456 -1.60635e-11 0)
(42.4295 -1.61879e-11 0)
(42.4134 -1.58084e-11 0)
(42.3972 -1.69967e-11 0)
(42.381 -1.63614e-11 0)
(42.3647 -1.60083e-11 0)
(42.3483 -1.46782e-11 0)
(42.332 -1.34974e-11 0)
(42.3155 -1.25781e-11 0)
(42.299 -1.25772e-11 0)
(42.2825 -1.46535e-11 0)
(42.2659 -1.64831e-11 0)
(42.2494 -1.69304e-11 0)
(42.2328 -1.71279e-11 0)
(42.2163 -1.81666e-11 0)
(42.1998 -1.81001e-11 0)
(42.1835 -1.71263e-11 0)
(42.1672 -1.68411e-11 0)
(42.1511 -1.70865e-11 0)
(42.1351 -1.65166e-11 0)
(42.1194 -1.62012e-11 0)
(42.1039 -1.71915e-11 0)
(42.0887 -1.74675e-11 0)
(42.0737 -1.6537e-11 0)
(42.0591 -1.68176e-11 0)
(42.0449 -1.60381e-11 0)
(42.031 -1.25806e-11 0)
(42.0175 -8.80415e-12 0)
(42.0043 -5.99682e-12 0)
(41.9916 -3.79395e-12 0)
(41.9793 -2.39433e-12 0)
(41.9674 -3.49505e-13 0)
(41.9559 1.88898e-12 0)
(41.9449 4.25369e-12 0)
(41.9342 5.11642e-12 0)
(41.9239 5.7175e-12 0)
(41.9139 4.02221e-12 0)
(41.9043 3.60046e-12 0)
(41.895 3.10731e-12 0)
(41.886 4.86864e-12 0)
(41.8773 4.62738e-12 0)
(41.8688 5.05483e-12 0)
(41.8606 6.39793e-12 0)
(41.8525 5.29178e-12 0)
(41.8446 5.20124e-12 0)
(41.8369 6.99209e-12 0)
(41.8293 6.56393e-12 0)
(41.8218 5.39414e-12 0)
(41.8144 3.51953e-12 0)
(41.8071 2.64161e-12 0)
(41.7999 2.69368e-12 0)
(41.7927 1.97876e-12 0)
(41.7856 1.02594e-12 0)
(41.7785 1.18109e-12 0)
(41.7715 1.13525e-12 0)
(41.7645 1.4389e-12 0)
(41.7576 1.38367e-12 0)
(41.7508 6.96044e-13 0)
(41.744 7.13737e-13 0)
(41.7373 1.75974e-13 0)
(41.7307 -7.39617e-13 0)
(41.7241 -2.10188e-13 0)
(41.7176 -1.65997e-12 0)
(41.7111 -4.9638e-12 0)
(41.7048 -8.63025e-12 0)
(41.6984 -1.17538e-11 0)
(41.6921 -1.31116e-11 0)
(41.6858 -1.56784e-11 0)
(41.6796 -1.93686e-11 0)
(41.6733 -2.04515e-11 0)
(41.667 -1.97708e-11 0)
(41.6606 -1.80413e-11 0)
(41.6542 -1.58855e-11 0)
(41.6476 -1.49354e-11 0)
(41.641 -1.39138e-11 0)
(41.6342 -1.44821e-11 0)
(41.6272 -1.72364e-11 0)
(41.6201 -1.84962e-11 0)
(41.6127 -2.08295e-11 0)
(41.6051 -2.08373e-11 0)
(41.5972 -2.08388e-11 0)
(41.589 -1.78221e-11 0)
(41.5806 -1.57296e-11 0)
(41.5719 -1.42831e-11 0)
(41.5629 -1.235e-11 0)
(41.5536 -1.266e-11 0)
(41.544 -1.31771e-11 0)
(41.5342 -1.33919e-11 0)
(41.5242 -1.2703e-11 0)
(41.5139 -1.26377e-11 0)
(41.5034 -1.10095e-11 0)
(41.4928 -8.82839e-12 0)
(41.4821 -5.72739e-12 0)
(41.4713 -3.11388e-12 0)
(41.4605 -5.67963e-13 0)
(41.4497 3.79226e-12 0)
(41.4389 7.10768e-12 0)
(41.4281 1.06643e-11 0)
(41.4175 1.0853e-11 0)
(41.407 1.02711e-11 0)
(41.3966 1.04486e-11 0)
(41.3864 1.1068e-11 0)
(41.3763 1.03293e-11 0)
(41.3663 1.07571e-11 0)
(41.3566 1.16017e-11 0)
(41.3469 1.25191e-11 0)
(41.3374 1.22127e-11 0)
(41.328 9.94223e-12 0)
(41.3186 9.4032e-12 0)
(41.3094 7.82762e-12 0)
(41.3001 4.98209e-12 0)
(41.2908 4.89049e-12 0)
(41.2815 4.55641e-12 0)
(41.2721 5.6612e-12 0)
(41.2626 6.77191e-12 0)
(41.2529 8.40085e-12 0)
(41.2429 9.37494e-12 0)
(41.2327 8.97798e-12 0)
(41.2223 8.29284e-12 0)
(41.2116 6.74085e-12 0)
(41.2005 6.39277e-12 0)
(41.1891 7.13705e-12 0)
(41.1774 6.20275e-12 0)
(41.1653 4.74254e-12 0)
(41.1529 5.51169e-12 0)
(41.1402 5.06163e-12 0)
(41.1272 3.10871e-12 0)
(41.1141 2.35346e-12 0)
(41.1008 3.17092e-12 0)
(41.0874 3.46356e-12 0)
(41.074 4.27084e-12 0)
(41.0607 6.03843e-12 0)
(41.0475 1.01637e-11 0)
(41.0346 1.12679e-11 0)
(41.022 1.07443e-11 0)
(41.0098 7.86888e-12 0)
(40.998 5.68246e-12 0)
(40.9866 6.22366e-13 0)
(40.9757 -3.54772e-12 0)
(40.9654 -5.47376e-12 0)
(40.9555 -6.47222e-12 0)
(40.9462 -6.24758e-12 0)
(40.9374 -6.35621e-12 0)
(40.9291 -4.06915e-12 0)
(40.9213 -5.26578e-12 0)
(40.9139 2.04528e-12 0)
(40.907 -7.42013e-12 0)
(40.9004 1.54169e-11 0)
(40.8943 -2.16468e-11 0)
(40.8884 3.60412e-11 0)
(40.8829 -4.77321e-11 0)
(40.8775 8.27204e-11 0)
(40.8723 -1.08087e-10 0)
(40.8672 1.10199e-10 0)
(40.862 -2.17084e-10 0)
(40.8568 -8.44295e-12 0)
(40.8514 -4.51042e-10 0)
(40.8457 -1.04884e-10 0)
(40.8397 -7.01362e-10 0)
(40.8333 -2.8852e-10 0)
(40.8264 -1.02622e-09 0)
(40.819 -5.75263e-10 0)
(40.8112 -1.34692e-10 0)
(40.8029 -6.16083e-10 0)
(40.7941 -1.91801e-10 0)
(40.7849 -2.15018e-09 0)
(40.7754 -5.74348e-10 0)
(40.7657 -1.8491e-09 0)
(40.7559 -1.87564e-09 0)
(40.7461 -1.7897e-09 0)
(40.7364 -1.76923e-09 0)
(40.7269 -1.94772e-09 0)
(40.7178 -1.72197e-09 0)
(40.7091 -1.45299e-09 0)
(40.7008 -6.85806e-11 0)
(40.693 1.87849e-08 0)
(40.6856 1.6575e-07 0)
(40.6785 1.22367e-06 0)
(40.6718 8.77051e-06 0)
(40.6653 6.16877e-05 0)
(40.659 0.000435548 0)
(40.6526 0.00308135 0)
(40.6446 0.0216345 0)
(40.6226 0.153339 0)
(40.4747 0.697485 0)
(42.6938 -0.000128707 0)
(42.678 -9.90514e-05 0)
(42.6588 -8.68174e-05 0)
(42.6408 -8.6048e-05 0)
(42.6242 -8.60003e-05 0)
(42.6079 -8.56216e-05 0)
(42.5915 -8.53717e-05 0)
(42.575 -8.5226e-05 0)
(42.5587 -8.51234e-05 0)
(42.5424 -8.50464e-05 0)
(42.5262 -8.49908e-05 0)
(42.51 -8.49505e-05 0)
(42.4939 -8.49199e-05 0)
(42.4778 -8.48904e-05 0)
(42.4617 -8.48499e-05 0)
(42.4456 -8.47767e-05 0)
(42.4295 -8.46386e-05 0)
(42.4134 -8.43894e-05 0)
(42.3972 -8.39663e-05 0)
(42.381 -8.32915e-05 0)
(42.3647 -8.22735e-05 0)
(42.3484 -8.08135e-05 0)
(42.332 -7.88153e-05 0)
(42.3155 -7.61968e-05 0)
(42.299 -7.2906e-05 0)
(42.2825 -6.89288e-05 0)
(42.266 -6.42975e-05 0)
(42.2494 -5.90978e-05 0)
(42.2328 -5.34568e-05 0)
(42.2163 -4.75374e-05 0)
(42.1998 -4.15223e-05 0)
(42.1835 -3.55966e-05 0)
(42.1672 -2.99318e-05 0)
(42.1511 -2.46721e-05 0)
(42.1351 -1.99242e-05 0)
(42.1194 -1.57541e-05 0)
(42.1039 -1.21873e-05 0)
(42.0887 -9.21426e-06 0)
(42.0737 -6.7974e-06 0)
(42.0591 -4.88012e-06 0)
(42.0449 -3.39458e-06 0)
(42.031 -2.2676e-06 0)
(42.0175 -1.43917e-06 0)
(42.0043 -8.36387e-07 0)
(41.9916 -4.07006e-07 0)
(41.9793 -1.04197e-07 0)
(41.9674 9.83358e-08 0)
(41.9559 2.33873e-07 0)
(41.9448 3.22655e-07 0)
(41.9342 3.80107e-07 0)
(41.9238 4.17171e-07 0)
(41.9139 4.40383e-07 0)
(41.9043 4.55103e-07 0)
(41.895 4.64024e-07 0)
(41.886 4.69299e-07 0)
(41.8773 4.72259e-07 0)
(41.8688 4.73672e-07 0)
(41.8605 4.73911e-07 0)
(41.8525 4.73553e-07 0)
(41.8446 4.72452e-07 0)
(41.8369 4.70672e-07 0)
(41.8293 4.70568e-07 0)
(41.8218 4.69901e-07 0)
(41.8144 4.65903e-07 0)
(41.8071 4.62567e-07 0)
(41.7998 4.60273e-07 0)
(41.7927 4.58391e-07 0)
(41.7855 4.56487e-07 0)
(41.7785 4.5455e-07 0)
(41.7715 4.51872e-07 0)
(41.7645 4.49276e-07 0)
(41.7576 4.47585e-07 0)
(41.7508 4.46894e-07 0)
(41.744 4.46651e-07 0)
(41.7373 4.4638e-07 0)
(41.7307 4.46069e-07 0)
(41.7241 4.45912e-07 0)
(41.7176 4.46009e-07 0)
(41.7111 4.46362e-07 0)
(41.7047 4.46964e-07 0)
(41.6984 4.47875e-07 0)
(41.6921 4.48993e-07 0)
(41.6858 4.50265e-07 0)
(41.6796 4.51747e-07 0)
(41.6733 4.53307e-07 0)
(41.667 4.54921e-07 0)
(41.6606 4.56587e-07 0)
(41.6542 4.58159e-07 0)
(41.6476 4.59738e-07 0)
(41.641 4.61092e-07 0)
(41.6342 4.62233e-07 0)
(41.6272 4.6298e-07 0)
(41.6201 4.63428e-07 0)
(41.6127 4.63535e-07 0)
(41.6051 4.63457e-07 0)
(41.5972 4.63132e-07 0)
(41.589 4.62615e-07 0)
(41.5806 4.61811e-07 0)
(41.5719 4.60658e-07 0)
(41.5629 4.59159e-07 0)
(41.5536 4.57306e-07 0)
(41.544 4.55136e-07 0)
(41.5342 4.52699e-07 0)
(41.5242 4.50073e-07 0)
(41.5139 4.47442e-07 0)
(41.5034 4.44645e-07 0)
(41.4928 4.41265e-07 0)
(41.4821 4.3816e-07 0)
(41.4713 4.3528e-07 0)
(41.4605 4.32489e-07 0)
(41.4497 4.29514e-07 0)
(41.4389 4.26355e-07 0)
(41.4281 4.23147e-07 0)
(41.4175 4.20065e-07 0)
(41.407 4.17136e-07 0)
(41.3966 4.14198e-07 0)
(41.3863 4.11091e-07 0)
(41.3763 4.07694e-07 0)
(41.3663 4.04024e-07 0)
(41.3566 4.00123e-07 0)
(41.3469 3.96025e-07 0)
(41.3374 3.91764e-07 0)
(41.328 3.87391e-07 0)
(41.3186 3.83685e-07 0)
(41.3094 3.78747e-07 0)
(41.3001 3.71542e-07 0)
(41.2908 3.67062e-07 0)
(41.2815 3.63252e-07 0)
(41.2721 3.62853e-07 0)
(41.2626 3.53695e-07 0)
(41.2528 3.37846e-07 0)
(41.2429 3.39975e-07 0)
(41.2327 3.34344e-07 0)
(41.2223 3.27101e-07 0)
(41.2115 3.20164e-07 0)
(41.2005 3.13506e-07 0)
(41.1891 3.07077e-07 0)
(41.1774 3.00815e-07 0)
(41.1653 2.95057e-07 0)
(41.1529 2.89744e-07 0)
(41.1402 2.84812e-07 0)
(41.1272 2.80192e-07 0)
(41.1141 2.7608e-07 0)
(41.1008 2.72867e-07 0)
(41.0874 2.70742e-07 0)
(41.074 2.6968e-07 0)
(41.0607 2.69661e-07 0)
(41.0475 2.70617e-07 0)
(41.0346 2.72488e-07 0)
(41.022 2.75163e-07 0)
(41.0098 2.78584e-07 0)
(40.998 2.82746e-07 0)
(40.9866 2.87598e-07 0)
(40.9757 2.92992e-07 0)
(40.9654 2.98652e-07 0)
(40.9555 3.04385e-07 0)
(40.9462 3.10059e-07 0)
(40.9374 3.15549e-07 0)
(40.9291 3.20793e-07 0)
(40.9213 3.25833e-07 0)
(40.9139 3.30805e-07 0)
(40.907 3.35822e-07 0)
(40.9004 3.40795e-07 0)
(40.8943 3.45591e-07 0)
(40.8884 3.50088e-07 0)
(40.8828 3.54149e-07 0)
(40.8775 3.57705e-07 0)
(40.8723 3.60549e-07 0)
(40.8672 3.62796e-07 0)
(40.862 3.64013e-07 0)
(40.8568 3.64773e-07 0)
(40.8514 3.64273e-07 0)
(40.8457 3.63667e-07 0)
(40.8397 3.61478e-07 0)
(40.8333 3.59789e-07 0)
(40.8264 3.56079e-07 0)
(40.819 3.53219e-07 0)
(40.8112 3.50438e-07 0)
(40.8029 3.47031e-07 0)
(40.7941 3.44324e-07 0)
(40.7849 3.40688e-07 0)
(40.7754 3.40672e-07 0)
(40.7657 3.38158e-07 0)
(40.7559 3.38368e-07 0)
(40.7461 3.38952e-07 0)
(40.7364 3.40777e-07 0)
(40.7269 3.42971e-07 0)
(40.7178 3.47137e-07 0)
(40.7091 3.50996e-07 0)
(40.7008 3.56439e-07 0)
(40.693 3.73779e-07 0)
(40.6856 4.81113e-07 0)
(40.6785 1.18794e-06 0)
(40.6718 6.34143e-06 0)
(40.6655 4.27149e-05 0)
(40.6602 0.000302136 0)
(40.6615 0.00216859 0)
(40.7091 0.015655 0)
(40.8985 0.129607 0)
(43.8687 0.541519 0)
(42.6921 -0.000101507 0)
(42.6744 -9.28899e-05 0)
(42.6534 -9.05172e-05 0)
(42.6337 -9.1393e-05 0)
(42.6152 -9.2143e-05 0)
(42.5971 -9.2595e-05 0)
(42.5789 -9.29503e-05 0)
(42.5607 -9.32343e-05 0)
(42.5425 -9.34544e-05 0)
(42.5244 -9.36252e-05 0)
(42.5064 -9.37607e-05 0)
(42.4884 -9.38686e-05 0)
(42.4705 -9.39523e-05 0)
(42.4526 -9.40098e-05 0)
(42.4347 -9.40334e-05 0)
(42.4168 -9.40027e-05 0)
(42.3989 -9.38843e-05 0)
(42.381 -9.36296e-05 0)
(42.363 -9.31708e-05 0)
(42.345 -9.24222e-05 0)
(42.3269 -9.12832e-05 0)
(42.3089 -8.96453e-05 0)
(42.2908 -8.74035e-05 0)
(42.2727 -8.44689e-05 0)
(42.2546 -8.07854e-05 0)
(42.2366 -7.63399e-05 0)
(42.2186 -7.11726e-05 0)
(42.2007 -6.5379e-05 0)
(42.183 -5.91029e-05 0)
(42.1654 -5.25261e-05 0)
(42.148 -4.58516e-05 0)
(42.1308 -3.92846e-05 0)
(42.1138 -3.30141e-05 0)
(42.0971 -2.71983e-05 0)
(42.0807 -2.19541e-05 0)
(42.0646 -1.73528e-05 0)
(42.0488 -1.34212e-05 0)
(42.0333 -1.01475e-05 0)
(42.0182 -7.48886e-06 0)
(42.0035 -5.38186e-06 0)
(41.9892 -3.75101e-06 0)
(41.9752 -2.51568e-06 0)
(41.9617 -1.60465e-06 0)
(41.9485 -9.42598e-07 0)
(41.9358 -4.70945e-07 0)
(41.9235 -1.35208e-07 0)
(41.9116 8.35675e-08 0)
(41.9001 2.26681e-07 0)
(41.889 3.20375e-07 0)
(41.8784 3.80769e-07 0)
(41.8681 4.19425e-07 0)
(41.8581 4.43542e-07 0)
(41.8485 4.58655e-07 0)
(41.8392 4.67834e-07 0)
(41.8303 4.73327e-07 0)
(41.8215 4.76526e-07 0)
(41.8131 4.78269e-07 0)
(41.8048 4.78986e-07 0)
(41.7968 4.79189e-07 0)
(41.7889 4.78829e-07 0)
(41.7812 4.77919e-07 0)
(41.7736 4.78209e-07 0)
(41.7661 4.78413e-07 0)
(41.7587 4.76357e-07 0)
(41.7514 4.74517e-07 0)
(41.7442 4.73315e-07 0)
(41.737 4.72502e-07 0)
(41.7299 4.71762e-07 0)
(41.7229 4.71059e-07 0)
(41.7159 4.69739e-07 0)
(41.7089 4.68359e-07 0)
(41.7021 4.67603e-07 0)
(41.6952 4.67683e-07 0)
(41.6885 4.6817e-07 0)
(41.6818 4.68585e-07 0)
(41.6751 4.68836e-07 0)
(41.6686 4.6906e-07 0)
(41.6621 4.69334e-07 0)
(41.6556 4.69698e-07 0)
(41.6493 4.70145e-07 0)
(41.6429 4.70738e-07 0)
(41.6366 4.71407e-07 0)
(41.6304 4.72109e-07 0)
(41.6241 4.72902e-07 0)
(41.6178 4.73695e-07 0)
(41.6115 4.7447e-07 0)
(41.6052 4.75243e-07 0)
(41.5988 4.75908e-07 0)
(41.5922 4.76568e-07 0)
(41.5856 4.77037e-07 0)
(41.5788 4.77322e-07 0)
(41.5719 4.77265e-07 0)
(41.5647 4.7697e-07 0)
(41.5573 4.76422e-07 0)
(41.5497 4.75774e-07 0)
(41.5419 4.75008e-07 0)
(41.5337 4.74164e-07 0)
(41.5253 4.73153e-07 0)
(41.5166 4.71902e-07 0)
(41.5076 4.70388e-07 0)
(41.4983 4.68607e-07 0)
(41.4888 4.66577e-07 0)
(41.479 4.64346e-07 0)
(41.4689 4.61955e-07 0)
(41.4587 4.59575e-07 0)
(41.4482 4.57103e-07 0)
(41.4376 4.54166e-07 0)
(41.4269 4.51377e-07 0)
(41.4161 4.48753e-07 0)
(41.4053 4.46244e-07 0)
(41.3945 4.4362e-07 0)
(41.3837 4.40854e-07 0)
(41.373 4.38047e-07 0)
(41.3623 4.35359e-07 0)
(41.3518 4.32867e-07 0)
(41.3415 4.30462e-07 0)
(41.3312 4.28002e-07 0)
(41.3212 4.25368e-07 0)
(41.3112 4.22549e-07 0)
(41.3015 4.19605e-07 0)
(41.2918 4.16597e-07 0)
(41.2823 4.13572e-07 0)
(41.2729 4.10567e-07 0)
(41.2636 4.08122e-07 0)
(41.2543 4.05118e-07 0)
(41.2451 4.00723e-07 0)
(41.2358 3.97878e-07 0)
(41.2264 3.95527e-07 0)
(41.2171 3.95449e-07 0)
(41.2076 3.90465e-07 0)
(41.1979 3.81464e-07 0)
(41.1879 3.82833e-07 0)
(41.1777 3.79856e-07 0)
(41.1673 3.75912e-07 0)
(41.1566 3.72081e-07 0)
(41.1455 3.68441e-07 0)
(41.1342 3.65009e-07 0)
(41.1224 3.61698e-07 0)
(41.1104 3.5869e-07 0)
(41.098 3.5591e-07 0)
(41.0853 3.53293e-07 0)
(41.0723 3.50722e-07 0)
(41.0592 3.48291e-07 0)
(41.0459 3.46285e-07 0)
(41.0325 3.44884e-07 0)
(41.0191 3.44091e-07 0)
(41.0058 3.43907e-07 0)
(40.9927 3.44273e-07 0)
(40.9798 3.4517e-07 0)
(40.9672 3.46525e-07 0)
(40.955 3.48329e-07 0)
(40.9431 3.50612e-07 0)
(40.9318 3.53403e-07 0)
(40.9209 3.56625e-07 0)
(40.9106 3.60075e-07 0)
(40.9008 3.63559e-07 0)
(40.8915 3.66983e-07 0)
(40.8827 3.70231e-07 0)
(40.8744 3.73262e-07 0)
(40.8666 3.76134e-07 0)
(40.8592 3.78999e-07 0)
(40.8523 3.81995e-07 0)
(40.8457 3.85112e-07 0)
(40.8396 3.88242e-07 0)
(40.8337 3.91264e-07 0)
(40.8282 3.94079e-07 0)
(40.8228 3.96605e-07 0)
(40.8176 3.98773e-07 0)
(40.8125 4.00564e-07 0)
(40.8074 4.01891e-07 0)
(40.8022 4.02878e-07 0)
(40.7968 4.03351e-07 0)
(40.7911 4.03638e-07 0)
(40.7851 4.03545e-07 0)
(40.7787 4.03433e-07 0)
(40.7718 4.0281e-07 0)
(40.7645 4.02357e-07 0)
(40.7566 4.01824e-07 0)
(40.7483 4.01342e-07 0)
(40.7395 4.01399e-07 0)
(40.7304 4.01379e-07 0)
(40.7209 4.01963e-07 0)
(40.7112 4.01976e-07 0)
(40.7014 4.03071e-07 0)
(40.6916 4.0432e-07 0)
(40.6819 4.0604e-07 0)
(40.6724 4.08329e-07 0)
(40.6633 4.11543e-07 0)
(40.6546 4.14899e-07 0)
(40.6464 4.18641e-07 0)
(40.6386 4.24618e-07 0)
(40.6312 4.47126e-07 0)
(40.6241 5.61456e-07 0)
(40.6174 1.36011e-06 0)
(40.6111 6.91838e-06 0)
(40.6059 4.64838e-05 0)
(40.6074 0.0003386 0)
(40.6581 0.00267182 0)
(40.8635 0.0378373 0)
(45.8769 0.153652 0)
(36.5929 1.24637 -3.17557e-15)
(35.5557 3.57622 6.36932e-15)
(35.1418 6.22369 -1.19412e-14)
(34.727 8.89849 2.46758e-14)
(34.0745 11.5431 -2.54598e-14)
(33.2294 14.1577 -1.58991e-15)
(32.3857 16.8163 4.14274e-20)
(31.6128 19.6307 -2.21464e-14)
(30.591 22.423 -1.02655e-13)
(28.968 24.8149 1.01071e-13)
(26.743 26.6453 -2.52816e-14)
(24.1351 27.9676 -5.22541e-14)
(21.3895 29.0165 2.7002e-14)
(19.0744 30.7219 0)
(17.5277 34.077 2.50867e-14)
(16.2061 39.0454 2.47125e-14)
(14.3133 44.4017 -2.4399e-14)
(11.467 48.3508 2.42588e-14)
(8.01438 49.8095 1.89485e-16)
(4.47969 50.0222 -1.89058e-16)
(37.7211 1.96115 0)
(37.1045 4.78836 0)
(36.6927 7.90155 -1.6174e-15)
(36.1682 10.9951 -3.23189e-15)
(35.3802 14.03 8.07081e-15)
(34.3741 16.982 1.61181e-14)
(33.3916 19.855 0)
(32.4483 22.9117 9.59912e-15)
(31.0459 26.243 1.59766e-14)
(28.8395 29.3202 -3.83538e-14)
(25.9708 31.71 2.55431e-14)
(22.6913 33.4008 1.27841e-14)
(19.4991 34.3045 -1.28218e-14)
(17.5985 34.8827 1.28237e-14)
(16.8511 36.7241 0)
(15.8437 40.5743 -1.55956e-15)
(13.4018 45.8044 1.53971e-15)
(9.03102 50.8098 -5.35914e-15)
(3.71003 53.5838 -7.65843e-16)
(-0.633998 53.9043 0)
(40.4288 1.53262 -4.12947e-17)
(40.4321 2.52727 -2.09856e-14)
(40.5353 3.54031 2.13137e-14)
(40.7212 4.55445 -2.04857e-14)
(40.9418 5.6399 -2.24701e-14)
(41.156 6.86958 8.36356e-14)
(41.3135 8.27628 -4.23372e-14)
(41.4028 9.81793 4.10426e-14)
(41.4799 11.4527 -8.34925e-14)
(41.5411 13.2713 1.33266e-15)
(41.4606 15.3916 4.11266e-14)
(41.0923 17.8288 0)
(40.3017 20.5468 -4.11191e-14)
(38.8693 23.4298 4.11441e-14)
(36.8243 26.1635 -3.31939e-16)
(34.7067 28.424 0)
(33.1767 30.2037 3.33456e-16)
(32.4623 31.8636 0)
(32.0872 33.8423 0)
(31.4448 36.2377 0)
(44.3719 2.51024 6.33563e-16)
(44.104 5.78241 -6.35614e-15)
(43.1403 9.67457 -1.27375e-15)
(42.0092 13.6618 2.54396e-15)
(40.9801 17.5953 -2.53317e-15)
(39.9776 21.4659 -4.33968e-19)
(38.8453 25.2688 -1.00185e-14)
(37.4441 28.9639 0)
(35.734 32.5356 0)
(33.7166 35.9751 -4.93132e-15)
(31.3692 39.231 4.90729e-15)
(28.7185 42.2987 0)
(25.7612 45.1291 -4.86243e-15)
(22.5249 47.6901 4.84599e-15)
(19.0418 49.9617 -4.82907e-15)
(15.3352 51.9266 9.6258e-15)
(11.422 53.5546 -4.802e-15)
(7.33651 54.8019 0)
(3.17128 55.6564 -2.39009e-15)
(-0.647122 56.0735 0)
(47.2676 1.74353 -9.67119e-16)
(48.1923 4.46916 7.41363e-15)
(47.9153 7.74056 5.1573e-15)
(47.1461 11.169 1.03045e-14)
(46.363 14.7221 0)
(45.5784 18.395 0)
(44.658 22.1492 1.0203e-14)
(43.487 25.9002 2.53951e-15)
(41.9986 29.6313 -5.05626e-15)
(40.1987 33.2714 2.51801e-15)
(38.0461 36.7906 2.00609e-14)
(35.5642 40.1397 -1.24921e-14)
(32.7499 43.2737 1.24541e-14)
(29.6195 46.1581 -2.48288e-15)
(26.2024 48.7586 -9.90714e-15)
(22.5378 51.0238 -1.73077e-14)
(18.672 52.8764 -8.64458e-15)
(14.6524 54.2134 -1.23506e-15)
(10.5458 54.8895 7.10691e-15)
(6.60377 54.5836 3.09908e-16)
(1.60789 51.3832 0)
(1.01291 53.2667 0)
(0.91087 55.8876 0)
(1.01618 56.9679 0)
(1.04226 56.6436 0)
(1.04651 56.2622 0)
(1.02673 56.3042 0)
(1.02299 56.515 0)
(1.03184 56.5959 0)
(1.03429 56.5616 0)
(1.03414 56.5188 0)
(1.03317 56.4946 0)
(1.03189 56.4788 0)
(1.03007 56.4682 0)
(1.02546 56.485 0)
(1.02238 56.5416 0)
(1.02452 56.5993 0)
(1.02867 56.6188 0)
(1.0306 56.6056 0)
(1.03117 56.5777 0)
(1.0301 56.5411 0)
(1.02636 56.5064 0)
(1.01515 56.5259 0)
(0.998244 56.6559 0)
(0.987873 56.8445 0)
(0.984633 56.9714 0)
(0.977739 56.9817 0)
(0.960151 56.9157 0)
(0.933025 56.8133 0)
(0.897777 56.6747 0)
(0.855367 56.4915 0)
(0.806804 56.2542 0)
(0.753182 55.9517 0)
(0.695715 55.5721 0)
(0.635622 55.1018 0)
(0.573992 54.5265 0)
(0.511761 53.8304 0)
(0.450295 52.9986 0)
(0.389939 52.0262 0)
(0.33258 50.9214 0)
(0.27931 49.7076 0)
(0.23059 48.4293 0)
(0.187933 47.1434 0)
(0.150932 45.9082 0)
(0.119608 44.7776 0)
(0.0936633 43.7897 0)
(0.0725838 42.9628 0)
(0.0556066 42.2968 0)
(0.04208 41.7776 0)
(0.0314325 41.3841 0)
(0.023142 41.0924 0)
(0.0167764 40.8799 0)
(0.0119666 40.7273 0)
(0.00839612 40.6188 0)
(0.00579353 40.542 0)
(0.0039317 40.4877 0)
(0.00262479 40.4493 0)
(0.00172406 40.4218 0)
(0.00111448 40.4017 0)
(0.000709222 40.3868 0)
(0.000444444 40.3753 0)
(0.000274363 40.3661 0)
(0.000166907 40.3585 0)
(0.000100109 40.352 0)
(5.9237e-05 40.3462 0)
(3.4613e-05 40.341 0)
(2.00013e-05 40.336 0)
(1.14588e-05 40.3314 0)
(6.53719e-06 40.3269 0)
(3.7427e-06 40.3226 0)
(2.17874e-06 40.3183 0)
(1.31526e-06 40.3142 0)
(8.44657e-07 40.31 0)
(5.92027e-07 40.3059 0)
(4.53097e-07 40.3018 0)
(3.79496e-07 40.2977 0)
(3.4021e-07 40.2934 0)
(3.19251e-07 40.2891 0)
(3.07959e-07 40.2848 0)
(3.01701e-07 40.2802 0)
(2.98043e-07 40.2756 0)
(2.95733e-07 40.2708 0)
(2.94152e-07 40.2658 0)
(2.93013e-07 40.2607 0)
(2.92185e-07 40.2553 0)
(2.91627e-07 40.2498 0)
(2.91422e-07 40.244 0)
(2.91218e-07 40.2381 0)
(2.91147e-07 40.2319 0)
(2.91276e-07 40.2256 0)
(2.91715e-07 40.219 0)
(2.92368e-07 40.2123 0)
(2.93096e-07 40.2054 0)