/*--------------------------------*- C++ -*----------------------------------*\
| =========                 |                                                 |
| \\      /  F ield         | OpenFOAM: The Open Source CFD Toolbox           |
|  \\    /   O peration     | Version:  3.0.x                                 |
|   \\  /    A nd           | Web:      www.OpenFOAM.org                      |
|    \\/     M anipulation  |                                                 |
\*---------------------------------------------------------------------------*/
FoamFile
{
    version     2.0;
    format      ascii;
    class       volVectorField;
    location    "0.36";
    object      U;
}
// * * * * * * * * * * * * * * * * * * * * * * * * * * * * * * * * * * * * * //

dimensions      [0 1 -1 0 0 0 0];

internalField   nonuniform List<vector> 
13800
(
(42.6962 0.000141832 0)
(42.6925 0.000123481 0)
(42.6888 0.000122321 0)
(42.6851 0.000124456 0)
(42.6813 0.000126277 0)
(42.6775 0.0001278 0)
(42.6738 0.000129075 0)
(42.67 0.00013013 0)
(42.6663 0.000131004 0)
(42.6625 0.000131735 0)
(42.6588 0.000132348 0)
(42.655 0.000132866 0)
(42.6513 0.000133305 0)
(42.6476 0.000133679 0)
(42.6438 0.000134001 0)
(42.6401 0.000134273 0)
(42.6363 0.000134544 0)
(42.6326 0.000134709 0)
(42.6288 0.000134904 0)
(42.6251 0.000135058 0)
(42.6214 0.000135196 0)
(42.6176 0.000135323 0)
(42.6139 0.00013543 0)
(42.6101 0.000135517 0)
(42.6064 0.000135598 0)
(42.6027 0.000135667 0)
(42.5989 0.000135719 0)
(42.5952 0.000135777 0)
(42.5915 0.000135835 0)
(42.5877 0.000135863 0)
(42.584 0.000135892 0)
(42.5803 0.000135914 0)
(42.5765 0.000135959 0)
(42.5728 0.000135952 0)
(42.5691 0.000135964 0)
(42.5653 0.000135978 0)
(42.5616 0.000135966 0)
(42.5579 0.000135932 0)
(42.5542 0.000135887 0)
(42.5504 0.000135807 0)
(42.5467 0.000135679 0)
(42.543 0.000135485 0)
(42.5393 0.000135199 0)
(42.5356 0.000134799 0)
(42.5319 0.000134266 0)
(42.5283 0.000133512 0)
(42.5246 0.00013252 0)
(42.521 0.000131248 0)
(42.5174 0.000129664 0)
(42.5139 0.00012763 0)
(42.5104 0.000125185 0)
(42.507 0.00012226 0)
(42.5037 0.00011882 0)
(42.5005 0.000114852 0)
(42.4975 0.000110355 0)
(42.4945 0.000105345 0)
(42.4917 9.9861e-05 0)
(42.489 9.39568e-05 0)
(42.4866 8.7705e-05 0)
(42.4843 8.11917e-05 0)
(42.4821 7.45134e-05 0)
(42.4802 6.77728e-05 0)
(42.4784 6.10734e-05 0)
(42.4768 5.45158e-05 0)
(42.4754 4.81926e-05 0)
(42.4742 4.21779e-05 0)
(42.4731 3.65498e-05 0)
(42.4722 3.13508e-05 0)
(42.4714 2.66166e-05 0)
(42.4707 2.23657e-05 0)
(42.4702 1.85983e-05 0)
(42.4697 1.53053e-05 0)
(42.4693 1.24626e-05 0)
(42.469 1.00445e-05 0)
(42.4687 8.01012e-06 0)
(42.4685 6.3217e-06 0)
(42.4683 4.93698e-06 0)
(42.4682 3.81466e-06 0)
(42.4681 2.91935e-06 0)
(42.468 2.20953e-06 0)
(42.4679 1.65545e-06 0)
(42.4679 1.22766e-06 0)
(42.4678 9.01213e-07 0)
(42.4678 6.54523e-07 0)
(42.4677 4.70993e-07 0)
(42.4677 3.35265e-07 0)
(42.4676 2.36225e-07 0)
(42.4676 1.6473e-07 0)
(42.4676 1.13648e-07 0)
(42.4675 7.75259e-08 0)
(42.4675 5.22171e-08 0)
(42.4675 3.46749e-08 0)
(42.4675 2.26261e-08 0)
(42.4674 1.44328e-08 0)
(42.4674 8.89922e-09 0)
(42.4674 5.20305e-09 0)
(42.4673 2.75609e-09 0)
(42.4673 1.15698e-09 0)
(42.4673 1.21322e-10 0)
(42.4673 -5.35819e-10 0)
(42.4672 -9.48311e-10 0)
(42.4672 -1.20393e-09 0)
(42.4672 -1.35492e-09 0)
(42.4672 -1.43828e-09 0)
(42.4671 -1.48702e-09 0)
(42.4671 -1.51879e-09 0)
(42.4671 -1.65827e-09 0)
(42.4671 -1.3848e-09 0)
(42.467 -1.77844e-09 0)
(42.467 -1.54963e-09 0)
(42.467 -1.89702e-09 0)
(42.467 -1.77812e-09 0)
(42.467 -1.91129e-09 0)
(42.467 -1.57723e-09 0)
(42.4669 -1.90725e-09 0)
(42.4669 -2.03908e-09 0)
(42.4669 -2.35912e-09 0)
(42.4669 -1.34525e-09 0)
(42.4669 -1.75243e-09 0)
(42.4669 -1.81203e-09 0)
(42.4668 -1.57208e-09 0)
(42.4668 -1.71412e-09 0)
(42.4668 -1.60454e-09 0)
(42.4668 -1.8268e-09 0)
(42.4668 -1.63669e-09 0)
(42.4668 -1.61547e-09 0)
(42.4667 -1.62801e-09 0)
(42.4667 -1.60354e-09 0)
(42.4667 -1.58247e-09 0)
(42.4667 -1.56866e-09 0)
(42.4667 -1.59906e-09 0)
(42.4666 -1.52695e-09 0)
(42.4666 -1.51596e-09 0)
(42.4666 -1.49169e-09 0)
(42.4666 -1.43029e-09 0)
(42.4666 -1.55639e-09 0)
(42.4665 -1.45461e-09 0)
(42.4665 -1.41504e-09 0)
(42.4665 -1.39526e-09 0)
(42.4665 -1.77078e-09 0)
(42.4664 -1.37187e-09 0)
(42.4664 -1.32098e-09 0)
(42.4664 -1.29574e-09 0)
(42.4664 -1.22522e-09 0)
(42.4664 -1.29581e-09 0)
(42.4663 -2.53821e-09 0)
(42.4663 -6.83e-10 0)
(42.4663 -1.30485e-09 0)
(42.4663 -1.38722e-09 0)
(42.4663 -1.2999e-09 0)
(42.4662 -1.29255e-09 0)
(42.4662 -2.25861e-09 0)
(42.4662 -1.2434e-09 0)
(42.4662 -1.29235e-09 0)
(42.4662 -1.38044e-09 0)
(42.4662 -1.36866e-09 0)
(42.4662 -1.34877e-09 0)
(42.4661 -1.42895e-09 0)
(42.4661 -1.09941e-09 0)
(42.4661 -1.33597e-09 0)
(42.4661 -1.67647e-09 0)
(42.4661 -1.77931e-09 0)
(42.4661 -9.82226e-10 0)
(42.4661 -2.11168e-09 0)
(42.4661 -1.64384e-09 0)
(42.4661 -1.40178e-09 0)
(42.4661 -1.76645e-09 0)
(42.4661 -1.16867e-09 0)
(42.4662 -2.03123e-09 0)
(42.4662 -1.62357e-09 0)
(42.4662 -1.64674e-09 0)
(42.4662 -1.69625e-09 0)
(42.4662 -2.05182e-09 0)
(42.4662 -1.51569e-09 0)
(42.4663 -2.02951e-09 0)
(42.4663 -1.7701e-09 0)
(42.4663 -1.69472e-09 0)
(42.4663 -1.66133e-09 0)
(42.4663 -1.7591e-09 0)
(42.4664 -2.23235e-09 0)
(42.4664 -1.57533e-09 0)
(42.4664 -2.04831e-09 0)
(42.4664 -2.12231e-09 0)
(42.4665 -2.06559e-09 0)
(42.4665 -2.16648e-09 0)
(42.4665 -1.16966e-09 0)
(42.4666 -1.45448e-09 0)
(42.4666 -8.61239e-10 0)
(42.4666 3.08883e-09 0)
(42.4667 1.90729e-08 0)
(42.4667 9.60138e-08 0)
(42.4667 4.59925e-07 0)
(42.4667 2.21424e-06 0)
(42.4664 1.06286e-05 0)
(42.465 5.06432e-05 0)
(42.4584 0.000239358 0)
(42.4274 0.0011227 0)
(42.2822 0.00524789 0)
(41.8165 0.027048 0)
(37.3912 0.106473 0)
(42.7001 0.000222495 0)
(42.7003 0.000161975 0)
(42.7005 0.000149867 0)
(42.7007 0.000147791 0)
(42.7008 0.000145962 0)
(42.7009 0.000144518 0)
(42.7011 0.000143424 0)
(42.7012 0.000142541 0)
(42.7014 0.000141807 0)
(42.7015 0.000141191 0)
(42.7017 0.000140672 0)
(42.7018 0.000140226 0)
(42.702 0.000139843 0)
(42.7021 0.00013951 0)
(42.7023 0.000139227 0)
(42.7024 0.000138971 0)
(42.7026 0.000138813 0)
(42.7027 0.000138549 0)
(42.7029 0.000138415 0)
(42.703 0.000138269 0)
(42.7032 0.000138147 0)
(42.7033 0.000138052 0)
(42.7035 0.000137962 0)
(42.7037 0.000137875 0)
(42.7038 0.000137808 0)
(42.704 0.000137748 0)
(42.7041 0.000137682 0)
(42.7043 0.000137647 0)
(42.7044 0.000137632 0)
(42.7046 0.000137579 0)
(42.7047 0.000137547 0)
(42.7049 0.000137515 0)
(42.7051 0.000137535 0)
(42.7052 0.000137473 0)
(42.7054 0.000137458 0)
(42.7055 0.00013746 0)
(42.7057 0.000137422 0)
(42.7058 0.000137375 0)
(42.706 0.000137321 0)
(42.7062 0.000137231 0)
(42.7063 0.000137094 0)
(42.7065 0.000136891 0)
(42.7066 0.000136589 0)
(42.7068 0.000136174 0)
(42.7069 0.000135633 0)
(42.7071 0.00013484 0)
(42.7073 0.000133804 0)
(42.7074 0.000132484 0)
(42.7076 0.00013086 0)
(42.7077 0.000128721 0)
(42.7079 0.000126193 0)
(42.708 0.000123164 0)
(42.7082 0.000119605 0)
(42.7083 0.000115506 0)
(42.7084 0.000110869 0)
(42.7086 0.000105714 0)
(42.7087 0.000100083 0)
(42.7088 9.40347e-05 0)
(42.7089 8.76452e-05 0)
(42.7091 8.10051e-05 0)
(42.7092 7.42145e-05 0)
(42.7092 6.73787e-05 0)
(42.7093 6.06032e-05 0)
(42.7094 5.39898e-05 0)
(42.7095 4.76314e-05 0)
(42.7095 4.15961e-05 0)
(42.7096 3.59701e-05 0)
(42.7096 3.07858e-05 0)
(42.7096 2.60788e-05 0)
(42.7097 2.18652e-05 0)
(42.7097 1.81406e-05 0)
(42.7097 1.48951e-05 0)
(42.7097 1.20998e-05 0)
(42.7097 9.73139e-06 0)
(42.7097 7.74295e-06 0)
(42.7097 6.09772e-06 0)
(42.7097 4.75207e-06 0)
(42.7096 3.66335e-06 0)
(42.7096 2.79984e-06 0)
(42.7096 2.11508e-06 0)
(42.7096 1.58248e-06 0)
(42.7095 1.17237e-06 0)
(42.7095 8.60253e-07 0)
(42.7095 6.24626e-07 0)
(42.7095 4.50248e-07 0)
(42.7094 3.21307e-07 0)
(42.7094 2.27442e-07 0)
(42.7094 1.59872e-07 0)
(42.7093 1.11739e-07 0)
(42.7093 7.78363e-08 0)
(42.7093 5.42116e-08 0)
(42.7092 3.79368e-08 0)
(42.7092 2.68573e-08 0)
(42.7092 1.93831e-08 0)
(42.7091 1.43879e-08 0)
(42.7091 1.10942e-08 0)
(42.7091 8.94532e-09 0)
(42.7091 7.55023e-09 0)
(42.709 6.64711e-09 0)
(42.709 6.08619e-09 0)
(42.709 5.72985e-09 0)
(42.7089 5.52228e-09 0)
(42.7089 5.40229e-09 0)
(42.7089 5.33709e-09 0)
(42.7088 5.29429e-09 0)
(42.7088 5.25541e-09 0)
(42.7088 5.03708e-09 0)
(42.7088 5.61983e-09 0)
(42.7088 4.93015e-09 0)
(42.7087 5.36764e-09 0)
(42.7087 4.74974e-09 0)
(42.7087 4.98551e-09 0)
(42.7087 4.75479e-09 0)
(42.7086 5.40951e-09 0)
(42.7086 4.82667e-09 0)
(42.7086 4.71628e-09 0)
(42.7086 4.02618e-09 0)
(42.7086 5.76818e-09 0)
(42.7085 4.93868e-09 0)
(42.7085 4.78507e-09 0)
(42.7085 5.12923e-09 0)
(42.7085 4.87609e-09 0)
(42.7085 5.02811e-09 0)
(42.7085 4.76014e-09 0)
(42.7084 4.99806e-09 0)
(42.7084 4.95783e-09 0)
(42.7084 4.95183e-09 0)
(42.7084 4.941e-09 0)
(42.7083 4.95856e-09 0)
(42.7083 4.9668e-09 0)
(42.7083 4.93476e-09 0)
(42.7083 5.0266e-09 0)
(42.7083 5.00547e-09 0)
(42.7082 5.01254e-09 0)
(42.7082 5.16612e-09 0)
(42.7082 4.91528e-09 0)
(42.7082 5.05506e-09 0)
(42.7081 5.06639e-09 0)
(42.7081 5.1743e-09 0)
(42.7081 4.85471e-09 0)
(42.708 5.26514e-09 0)
(42.708 5.14814e-09 0)
(42.708 5.09853e-09 0)
(42.708 5.27614e-09 0)
(42.7079 5.57846e-09 0)
(42.7079 3.28e-09 0)
(42.7079 6.40881e-09 0)
(42.7079 5.11573e-09 0)
(42.7078 4.91996e-09 0)
(42.7078 5.13951e-09 0)
(42.7078 5.23143e-09 0)
(42.7078 3.68583e-09 0)
(42.7078 5.54738e-09 0)
(42.7077 5.25458e-09 0)
(42.7077 4.88315e-09 0)
(42.7077 4.84262e-09 0)
(42.7077 4.81775e-09 0)
(42.7077 4.62989e-09 0)
(42.7077 5.46105e-09 0)
(42.7077 4.66303e-09 0)
(42.7077 4.76641e-09 0)
(42.7077 4.18027e-09 0)
(42.7076 6.02243e-09 0)
(42.7076 3.5067e-09 0)
(42.7076 4.38501e-09 0)
(42.7076 5.04491e-09 0)
(42.7077 4.15292e-09 0)
(42.7077 5.75179e-09 0)
(42.7077 2.81323e-09 0)
(42.7077 4.68974e-09 0)
(42.7077 4.36666e-09 0)
(42.7077 5.13203e-09 0)
(42.7077 3.45212e-09 0)
(42.7077 5.05977e-09 0)
(42.7077 3.30665e-09 0)
(42.7078 5.08377e-09 0)
(42.7078 3.69476e-09 0)
(42.7078 4.53054e-09 0)
(42.7078 4.074e-09 0)
(42.7078 3.62497e-09 0)
(42.7079 4.58288e-09 0)
(42.7079 3.73218e-09 0)
(42.7079 4.26803e-09 0)
(42.7079 4.74967e-09 0)
(42.708 2.77114e-09 0)
(42.708 5.50184e-09 0)
(42.708 4.43513e-09 0)
(42.708 6.22738e-09 0)
(42.7081 1.85575e-08 0)
(42.7081 7.04815e-08 0)
(42.7081 3.30328e-07 0)
(42.7081 1.56875e-06 0)
(42.7081 7.54193e-06 0)
(42.7078 3.61963e-05 0)
(42.7064 0.000172463 0)
(42.6998 0.000815091 0)
(42.6689 0.00382357 0)
(42.5243 0.0178459 0)
(42.0586 0.0900473 0)
(37.8701 0.335049 0)
(42.7001 0.000163814 0)
(42.7003 0.000112951 0)
(42.7005 0.000107359 0)
(42.7006 0.000110456 0)
(42.7008 0.000111483 0)
(42.7009 0.000111955 0)
(42.7011 0.000112366 0)
(42.7012 0.000112704 0)
(42.7014 0.00011298 0)
(42.7015 0.000113204 0)
(42.7017 0.000113408 0)
(42.7019 0.000113576 0)
(42.702 0.000113723 0)
(42.7022 0.000113851 0)
(42.7023 0.00011397 0)
(42.7025 0.000114065 0)
(42.7026 0.000114205 0)
(42.7028 0.000114223 0)
(42.7029 0.000114324 0)
(42.7031 0.000114389 0)
(42.7033 0.000114454 0)
(42.7034 0.000114522 0)
(42.7036 0.000114575 0)
(42.7037 0.000114623 0)
(42.7039 0.000114671 0)
(42.7041 0.000114714 0)
(42.7042 0.000114743 0)
(42.7044 0.000114789 0)
(42.7046 0.000114842 0)
(42.7047 0.000114859 0)
(42.7049 0.000114886 0)
(42.7051 0.00011491 0)
(42.7052 0.000114969 0)
(42.7054 0.000114955 0)
(42.7056 0.000114979 0)
(42.7057 0.000115012 0)
(42.7059 0.000115004 0)
(42.7061 0.000114998 0)
(42.7063 0.000114973 0)
(42.7064 0.000114915 0)
(42.7066 0.000114816 0)
(42.7068 0.000114659 0)
(42.7069 0.000114416 0)
(42.7071 0.000114074 0)
(42.7073 0.000113621 0)
(42.7075 0.000112954 0)
(42.7076 0.00011208 0)
(42.7078 0.000110963 0)
(42.708 0.000109583 0)
(42.7081 0.000107763 0)
(42.7083 0.000105625 0)
(42.7084 0.000103054 0)
(42.7086 0.000100035 0)
(42.7087 9.65623e-05 0)
(42.7089 9.26373e-05 0)
(42.709 8.82794e-05 0)
(42.7091 8.35239e-05 0)
(42.7092 7.84222e-05 0)
(42.7094 7.30399e-05 0)
(42.7095 6.74537e-05 0)
(42.7095 6.17485e-05 0)
(42.7096 5.60129e-05 0)
(42.7097 5.03356e-05 0)
(42.7097 4.48018e-05 0)
(42.7098 3.94884e-05 0)
(42.7098 3.44516e-05 0)
(42.7099 2.97635e-05 0)
(42.7099 2.54483e-05 0)
(42.7099 2.15356e-05 0)
(42.7099 1.80376e-05 0)
(42.7099 1.49493e-05 0)
(42.7099 1.22618e-05 0)
(42.7099 9.94966e-06 0)
(42.7099 7.99341e-06 0)
(42.7099 6.35237e-06 0)
(42.7099 4.99624e-06 0)
(42.7099 3.88839e-06 0)
(42.7099 2.99274e-06 0)
(42.7098 2.2835e-06 0)
(42.7098 1.72139e-06 0)
(42.7098 1.28475e-06 0)
(42.7098 9.48891e-07 0)
(42.7097 6.93571e-07 0)
(42.7097 5.0101e-07 0)
(42.7097 3.58746e-07 0)
(42.7096 2.53638e-07 0)
(42.7096 1.77205e-07 0)
(42.7096 1.22247e-07 0)
(42.7095 8.31125e-08 0)
(42.7095 5.55344e-08 0)
(42.7095 3.62942e-08 0)
(42.7094 2.29964e-08 0)
(42.7094 1.39e-08 0)
(42.7094 7.73649e-09 0)
(42.7093 3.59899e-09 0)
(42.7093 8.43767e-10 0)
(42.7093 -9.80629e-10 0)
(42.7093 -2.17364e-09 0)
(42.7092 -2.93839e-09 0)
(42.7092 -3.42727e-09 0)
(42.7092 -3.74104e-09 0)
(42.7091 -3.93511e-09 0)
(42.7091 -4.04839e-09 0)
(42.7091 -4.10722e-09 0)
(42.7091 -4.14364e-09 0)
(42.709 -4.18059e-09 0)
(42.709 -4.37083e-09 0)
(42.709 -3.89907e-09 0)
(42.709 -4.49141e-09 0)
(42.7089 -4.0846e-09 0)
(42.7089 -4.60281e-09 0)
(42.7089 -4.40922e-09 0)
(42.7089 -4.58198e-09 0)
(42.7088 -4.03611e-09 0)
(42.7088 -4.55238e-09 0)
(42.7088 -4.55875e-09 0)
(42.7088 -5.16606e-09 0)
(42.7088 -3.69517e-09 0)
(42.7087 -4.37862e-09 0)
(42.7087 -4.48424e-09 0)
(42.7087 -4.20259e-09 0)
(42.7087 -4.37216e-09 0)
(42.7087 -4.25083e-09 0)
(42.7087 -4.39408e-09 0)
(42.7086 -4.25128e-09 0)
(42.7086 -4.29302e-09 0)
(42.7086 -4.28262e-09 0)
(42.7086 -4.29276e-09 0)
(42.7085 -4.27351e-09 0)
(42.7085 -4.27082e-09 0)
(42.7085 -4.27296e-09 0)
(42.7085 -4.20657e-09 0)
(42.7085 -4.22005e-09 0)
(42.7084 -4.21518e-09 0)
(42.7084 -4.06502e-09 0)
(42.7084 -4.29364e-09 0)
(42.7084 -4.17395e-09 0)
(42.7083 -4.17224e-09 0)
(42.7083 -4.10021e-09 0)
(42.7083 -4.271e-09 0)
(42.7082 -4.00721e-09 0)
(42.7082 -4.11036e-09 0)
(42.7082 -4.13755e-09 0)
(42.7082 -4.00513e-09 0)
(42.7081 -3.77968e-09 0)
(42.7081 -5.73949e-09 0)
(42.7081 -3.01359e-09 0)
(42.7081 -4.09573e-09 0)
(42.708 -4.28096e-09 0)
(42.708 -4.12183e-09 0)
(42.708 -4.17601e-09 0)
(42.708 -5.85171e-09 0)
(42.708 -3.35308e-09 0)
(42.7079 -3.64395e-09 0)
(42.7079 -4.25953e-09 0)
(42.7079 -4.29962e-09 0)
(42.7079 -4.30586e-09 0)
(42.7079 -4.47617e-09 0)
(42.7079 -2.90554e-09 0)
(42.7079 -4.7129e-09 0)
(42.7079 -3.70355e-09 0)
(42.7079 -5.62107e-09 0)
(42.7079 -2.40056e-09 0)
(42.7078 -6.32547e-09 0)
(42.7078 -4.99117e-09 0)
(42.7079 -3.55471e-09 0)
(42.7079 -5.17202e-09 0)
(42.7079 -2.22929e-09 0)
(42.7079 -6.46983e-09 0)
(42.7079 -4.55984e-09 0)
(42.7079 -4.0416e-09 0)
(42.7079 -4.15307e-09 0)
(42.7079 -5.37783e-09 0)
(42.7079 -4.01714e-09 0)
(42.7079 -4.79785e-09 0)
(42.708 -4.46266e-09 0)
(42.708 -4.62712e-09 0)
(42.708 -4.02821e-09 0)
(42.708 -4.38318e-09 0)
(42.708 -4.21797e-09 0)
(42.7081 -5.06606e-09 0)
(42.7081 -7.69335e-09 0)
(42.7081 -3.23968e-09 0)
(42.7081 -4.87083e-09 0)
(42.7082 -6.55206e-09 0)
(42.7082 -1.48716e-09 0)
(42.7082 -3.36729e-09 0)
(42.7082 -9.44095e-10 0)
(42.7083 2.55036e-08 0)
(42.7083 1.28774e-07 0)
(42.7083 6.44433e-07 0)
(42.7083 3.10114e-06 0)
(42.7083 1.49455e-05 0)
(42.708 7.17708e-05 0)
(42.7067 0.000342036 0)
(42.7003 0.00161685 0)
(42.6702 0.00758946 0)
(42.5298 0.0354239 0)
(42.0798 0.177848 0)
(38.1266 0.647175 0)
(42.7001 0.000119139 0)
(42.7003 0.000102295 0)
(42.7005 9.96852e-05 0)
(42.7006 0.000103804 0)
(42.7008 0.00010593 0)
(42.7009 0.000107182 0)
(42.7011 0.000108245 0)
(42.7012 0.000109145 0)
(42.7014 0.000109896 0)
(42.7015 0.000110513 0)
(42.7017 0.000111057 0)
(42.7018 0.000111509 0)
(42.702 0.000111898 0)
(42.7021 0.000112233 0)
(42.7023 0.000112528 0)
(42.7024 0.000112779 0)
(42.7026 0.000113031 0)
(42.7028 0.000113186 0)
(42.7029 0.000113375 0)
(42.7031 0.000113528 0)
(42.7032 0.000113667 0)
(42.7034 0.000113796 0)
(42.7035 0.000113907 0)
(42.7037 0.000114004 0)
(42.7039 0.000114095 0)
(42.704 0.000114175 0)
(42.7042 0.000114241 0)
(42.7044 0.000114311 0)
(42.7045 0.000114381 0)
(42.7047 0.000114426 0)
(42.7049 0.000114472 0)
(42.705 0.000114514 0)
(42.7052 0.000114574 0)
(42.7054 0.000114585 0)
(42.7055 0.000114619 0)
(42.7057 0.000114655 0)
(42.7059 0.00011466 0)
(42.7061 0.000114661 0)
(42.7062 0.000114643 0)
(42.7064 0.000114595 0)
(42.7066 0.000114509 0)
(42.7067 0.000114367 0)
(42.7069 0.000114147 0)
(42.7071 0.00011383 0)
(42.7073 0.0001134 0)
(42.7074 0.000112783 0)
(42.7076 0.000111965 0)
(42.7078 0.000110912 0)
(42.7079 0.000109594 0)
(42.7081 0.000107885 0)
(42.7083 0.000105844 0)
(42.7084 0.000103388 0)
(42.7086 0.000100496 0)
(42.7087 9.71566e-05 0)
(42.7088 9.33684e-05 0)
(42.709 8.91463e-05 0)
(42.7091 8.45212e-05 0)
(42.7092 7.95396e-05 0)
(42.7093 7.42625e-05 0)
(42.7094 6.87627e-05 0)
(42.7095 6.31219e-05 0)
(42.7096 5.74267e-05 0)
(42.7097 5.17647e-05 0)
(42.7097 4.62212e-05 0)
(42.7098 4.08742e-05 0)
(42.7098 3.57859e-05 0)
(42.7099 3.10246e-05 0)
(42.7099 2.66241e-05 0)
(42.7099 2.26156e-05 0)
(42.7099 1.90152e-05 0)
(42.7099 1.58228e-05 0)
(42.7099 1.30316e-05 0)
(42.7099 1.06206e-05 0)
(42.7099 8.56951e-06 0)
(42.7099 6.84249e-06 0)
(42.7099 5.40854e-06 0)
(42.7099 4.23198e-06 0)
(42.7098 3.27745e-06 0)
(42.7098 2.51632e-06 0)
(42.7098 1.91195e-06 0)
(42.7098 1.44003e-06 0)
(42.7098 1.07545e-06 0)
(42.7097 7.97066e-07 0)
(42.7097 5.86473e-07 0)
(42.7097 4.2983e-07 0)
(42.7096 3.13839e-07 0)
(42.7096 2.29127e-07 0)
(42.7096 1.67939e-07 0)
(42.7095 1.24184e-07 0)
(42.7095 9.32122e-08 0)
(42.7095 7.14996e-08 0)
(42.7094 5.6422e-08 0)
(42.7094 4.60514e-08 0)
(42.7094 3.89924e-08 0)
(42.7093 3.42176e-08 0)
(42.7093 3.10213e-08 0)
(42.7093 2.88979e-08 0)
(42.7093 2.75015e-08 0)
(42.7092 2.65953e-08 0)
(42.7092 2.60163e-08 0)
(42.7092 2.56493e-08 0)
(42.7091 2.54217e-08 0)
(42.7091 2.5284e-08 0)
(42.7091 2.52093e-08 0)
(42.7091 2.51705e-08 0)
(42.709 2.5131e-08 0)
(42.709 2.50003e-08 0)
(42.709 2.52937e-08 0)
(42.709 2.48959e-08 0)
(42.7089 2.5137e-08 0)
(42.7089 2.47983e-08 0)
(42.7089 2.4918e-08 0)
(42.7089 2.48092e-08 0)
(42.7088 2.51568e-08 0)
(42.7088 2.48078e-08 0)
(42.7088 2.47662e-08 0)
(42.7088 2.43976e-08 0)
(42.7088 2.54102e-08 0)
(42.7087 2.49997e-08 0)
(42.7087 2.49393e-08 0)
(42.7087 2.51362e-08 0)
(42.7087 2.50381e-08 0)
(42.7087 2.51074e-08 0)
(42.7087 2.49878e-08 0)
(42.7086 2.51029e-08 0)
(42.7086 2.51149e-08 0)
(42.7086 2.51213e-08 0)
(42.7086 2.51231e-08 0)
(42.7085 2.51458e-08 0)
(42.7085 2.51505e-08 0)
(42.7085 2.5149e-08 0)
(42.7085 2.52029e-08 0)
(42.7085 2.52064e-08 0)
(42.7084 2.52226e-08 0)
(42.7084 2.52984e-08 0)
(42.7084 2.51594e-08 0)
(42.7084 2.52609e-08 0)
(42.7083 2.52872e-08 0)
(42.7083 2.53091e-08 0)
(42.7083 2.51009e-08 0)
(42.7082 2.5343e-08 0)
(42.7082 2.53559e-08 0)
(42.7082 2.53538e-08 0)
(42.7082 2.54298e-08 0)
(42.7081 2.54394e-08 0)
(42.7081 2.40354e-08 0)
(42.7081 2.61866e-08 0)
(42.7081 2.54701e-08 0)
(42.708 2.52897e-08 0)
(42.708 2.54798e-08 0)
(42.708 2.45174e-08 0)
(42.708 2.22201e-08 0)
(42.708 2.74186e-08 0)
(42.7079 2.68014e-08 0)
(42.7079 2.53583e-08 0)
(42.7079 2.52391e-08 0)
(42.7079 2.5185e-08 0)
(42.7079 2.49793e-08 0)
(42.7079 2.78027e-08 0)
(42.7079 2.49141e-08 0)
(42.7079 2.46267e-08 0)
(42.7079 2.23767e-08 0)
(42.7079 3.08946e-08 0)
(42.7078 2.05324e-08 0)
(42.7078 2.37032e-08 0)
(42.7079 2.83911e-08 0)
(42.7079 2.44781e-08 0)
(42.7079 3.37955e-08 0)
(42.7079 1.27428e-08 0)
(42.7079 3.13536e-08 0)
(42.7079 1.93148e-08 0)
(42.7079 3.12149e-08 0)
(42.7079 1.77344e-08 0)
(42.7079 3.24264e-08 0)
(42.7079 1.74349e-08 0)
(42.708 3.19606e-08 0)
(42.708 2.01014e-08 0)
(42.708 2.92092e-08 0)
(42.708 2.22429e-08 0)
(42.708 2.69222e-08 0)
(42.7081 2.37758e-08 0)
(42.7081 1.85298e-08 0)
(42.7081 2.97454e-08 0)
(42.7081 3.04989e-08 0)
(42.7082 1.55437e-08 0)
(42.7082 3.3136e-08 0)
(42.7082 2.87589e-08 0)
(42.7082 3.75079e-08 0)
(42.7083 9.98305e-08 0)
(42.7083 3.6117e-07 0)
(42.7083 1.6684e-06 0)
(42.7083 7.87288e-06 0)
(42.7083 3.78141e-05 0)
(42.7081 0.000181522 0)
(42.7069 0.000865231 0)
(42.7012 0.00408878 0)
(42.6745 0.0191403 0)
(42.5519 0.0882383 0)
(42.1617 0.408492 0)
(39.1551 1.46542 0)
(42.7001 3.59896e-05 0)
(42.7003 2.78259e-05 0)
(42.7004 1.98469e-05 0)
(42.7006 1.66457e-05 0)
(42.7007 1.4082e-05 0)
(42.7009 1.18802e-05 0)
(42.701 1.01482e-05 0)
(42.7012 8.75726e-06 0)
(42.7013 7.60927e-06 0)
(42.7015 6.6397e-06 0)
(42.7016 5.83112e-06 0)
(42.7018 5.13515e-06 0)
(42.7019 4.53802e-06 0)
(42.7021 4.02302e-06 0)
(42.7023 3.57745e-06 0)
(42.7024 3.18757e-06 0)
(42.7026 2.8554e-06 0)
(42.7027 2.54562e-06 0)
(42.7029 2.28753e-06 0)
(42.703 2.05613e-06 0)
(42.7032 1.8522e-06 0)
(42.7034 1.67318e-06 0)
(42.7035 1.51267e-06 0)
(42.7037 1.3705e-06 0)
(42.7039 1.24513e-06 0)
(42.704 1.13351e-06 0)
(42.7042 1.03313e-06 0)
(42.7043 9.45917e-07 0)
(42.7045 8.70949e-07 0)
(42.7047 7.99225e-07 0)
(42.7048 7.36725e-07 0)
(42.705 6.81617e-07 0)
(42.7052 6.38037e-07 0)
(42.7053 5.87743e-07 0)
(42.7055 5.50153e-07 0)
(42.7057 5.19578e-07 0)
(42.7059 4.85794e-07 0)
(42.706 4.58771e-07 0)
(42.7062 4.34611e-07 0)
(42.7064 4.11456e-07 0)
(42.7065 3.89939e-07 0)
(42.7067 3.69039e-07 0)
(42.7069 3.47323e-07 0)
(42.7071 3.24486e-07 0)
(42.7072 3.04642e-07 0)
(42.7074 2.75388e-07 0)
(42.7076 2.42514e-07 0)
(42.7077 2.07813e-07 0)
(42.7079 1.74132e-07 0)
(42.7081 1.17186e-07 0)
(42.7082 6.59387e-08 0)
(42.7084 6.8885e-09 0)
(42.7085 -5.89632e-08 0)
(42.7087 -1.29166e-07 0)
(42.7088 -2.02419e-07 0)
(42.709 -2.76777e-07 0)
(42.7091 -3.49982e-07 0)
(42.7092 -4.1963e-07 0)
(42.7093 -4.83323e-07 0)
(42.7094 -5.3883e-07 0)
(42.7095 -5.84254e-07 0)
(42.7096 -6.18165e-07 0)
(42.7097 -6.39671e-07 0)
(42.7097 -6.48361e-07 0)
(42.7098 -6.4455e-07 0)
(42.7098 -6.3097e-07 0)
(42.7099 -6.0538e-07 0)
(42.7099 -5.71934e-07 0)
(42.7099 -5.32188e-07 0)
(42.7099 -4.87595e-07 0)
(42.7099 -4.40831e-07 0)
(42.7099 -3.93074e-07 0)
(42.7099 -3.46565e-07 0)
(42.7099 -3.01166e-07 0)
(42.7099 -2.59297e-07 0)
(42.7099 -2.2095e-07 0)
(42.7099 -1.86773e-07 0)
(42.7098 -1.5711e-07 0)
(42.7098 -1.30662e-07 0)
(42.7098 -1.08999e-07 0)
(42.7098 -9.08278e-08 0)
(42.7098 -7.59299e-08 0)
(42.7097 -6.39198e-08 0)
(42.7097 -5.45082e-08 0)
(42.7097 -4.69763e-08 0)
(42.7096 -4.12724e-08 0)
(42.7096 -3.6932e-08 0)
(42.7096 -3.36484e-08 0)
(42.7095 -3.11806e-08 0)
(42.7095 -2.93247e-08 0)
(42.7095 -2.79283e-08 0)
(42.7094 -2.68761e-08 0)
(42.7094 -2.60831e-08 0)
(42.7094 -2.54865e-08 0)
(42.7093 -2.50417e-08 0)
(42.7093 -2.47127e-08 0)
(42.7093 -2.4474e-08 0)
(42.7093 -2.4302e-08 0)
(42.7092 -2.41797e-08 0)
(42.7092 -2.4098e-08 0)
(42.7092 -2.40444e-08 0)
(42.7091 -2.40048e-08 0)
(42.7091 -2.39796e-08 0)
(42.7091 -2.39655e-08 0)
(42.7091 -2.39605e-08 0)
(42.709 -2.39621e-08 0)
(42.709 -2.39813e-08 0)
(42.709 -2.38741e-08 0)
(42.709 -2.39725e-08 0)
(42.7089 -2.38955e-08 0)
(42.7089 -2.39956e-08 0)
(42.7089 -2.3963e-08 0)
(42.7089 -2.39888e-08 0)
(42.7088 -2.38736e-08 0)
(42.7088 -2.39651e-08 0)
(42.7088 -2.39782e-08 0)
(42.7088 -2.41089e-08 0)
(42.7088 -2.38445e-08 0)
(42.7087 -2.40052e-08 0)
(42.7087 -2.40582e-08 0)
(42.7087 -2.40277e-08 0)
(42.7087 -2.40699e-08 0)
(42.7087 -2.40674e-08 0)
(42.7087 -2.40954e-08 0)
(42.7086 -2.40916e-08 0)
(42.7086 -2.41038e-08 0)
(42.7086 -2.41152e-08 0)
(42.7086 -2.41272e-08 0)
(42.7085 -2.41299e-08 0)
(42.7085 -2.41409e-08 0)
(42.7085 -2.41464e-08 0)
(42.7085 -2.41475e-08 0)
(42.7085 -2.41577e-08 0)
(42.7084 -2.41647e-08 0)
(42.7084 -2.41348e-08 0)
(42.7084 -2.41848e-08 0)
(42.7084 -2.41792e-08 0)
(42.7083 -2.41878e-08 0)
(42.7083 -2.41662e-08 0)
(42.7083 -2.41527e-08 0)
(42.7082 -2.41462e-08 0)
(42.7082 -2.41831e-08 0)
(42.7082 -2.42341e-08 0)
(42.7082 -2.41473e-08 0)
(42.7081 -2.39577e-08 0)
(42.7081 -2.50147e-08 0)
(42.7081 -2.35478e-08 0)
(42.7081 -2.40294e-08 0)
(42.708 -2.42408e-08 0)
(42.708 -2.40211e-08 0)
(42.708 -2.49017e-08 0)
(42.708 -3.3686e-08 0)
(42.708 -1.77987e-08 0)
(42.7079 -2.09353e-08 0)
(42.7079 -2.41991e-08 0)
(42.7079 -2.4443e-08 0)
(42.7079 -2.45853e-08 0)
(42.7079 -2.53055e-08 0)
(42.7079 -1.74884e-08 0)
(42.7079 -2.64937e-08 0)
(42.7079 -2.42151e-08 0)
(42.7079 -3.06613e-08 0)
(42.7079 -1.08814e-08 0)
(42.7078 -3.76049e-08 0)
(42.7078 -2.40631e-08 0)
(42.7079 -2.39499e-08 0)
(42.7079 -2.8177e-08 0)
(42.7079 -1.54192e-08 0)
(42.7079 -3.15588e-08 0)
(42.7079 -2.78598e-08 0)
(42.7079 -1.91473e-08 0)
(42.7079 -2.39348e-08 0)
(42.7079 -2.67932e-08 0)
(42.7079 -2.31999e-08 0)
(42.7079 -2.30456e-08 0)
(42.708 -2.6361e-08 0)
(42.708 -2.22634e-08 0)
(42.708 -2.46259e-08 0)
(42.708 -2.42944e-08 0)
(42.708 -2.56934e-08 0)
(42.7081 -1.93204e-08 0)
(42.7081 -3.45908e-08 0)
(42.7081 -2.2558e-08 0)
(42.7081 -1.57999e-08 0)
(42.7082 -3.57411e-08 0)
(42.7082 -1.68453e-08 0)
(42.7082 -1.54364e-08 0)
(42.7082 -1.06821e-08 0)
(42.7083 9.9345e-08 0)
(42.7083 5.33883e-07 0)
(42.7083 2.69424e-06 0)
(42.7083 1.30047e-05 0)
(42.7083 6.2685e-05 0)
(42.7083 0.000301302 0)
(42.7078 0.00143825 0)
(42.7056 0.00681603 0)
(42.6947 0.0320296 0)
(42.6419 0.147983 0)
(42.471 0.664939 0)
(40.6857 2.36097 0)
(42.7001 -3.59896e-05 0)
(42.7003 -2.78259e-05 0)
(42.7004 -1.98469e-05 0)
(42.7006 -1.66457e-05 0)
(42.7007 -1.4082e-05 0)
(42.7009 -1.18802e-05 0)
(42.701 -1.01482e-05 0)
(42.7012 -8.75726e-06 0)
(42.7013 -7.60927e-06 0)
(42.7015 -6.6397e-06 0)
(42.7016 -5.83112e-06 0)
(42.7018 -5.13515e-06 0)
(42.7019 -4.53802e-06 0)
(42.7021 -4.02301e-06 0)
(42.7023 -3.57746e-06 0)
(42.7024 -3.18757e-06 0)
(42.7026 -2.8554e-06 0)
(42.7027 -2.54562e-06 0)
(42.7029 -2.28752e-06 0)
(42.703 -2.05613e-06 0)
(42.7032 -1.8522e-06 0)
(42.7034 -1.67318e-06 0)
(42.7035 -1.51267e-06 0)
(42.7037 -1.3705e-06 0)
(42.7039 -1.24513e-06 0)
(42.704 -1.13351e-06 0)
(42.7042 -1.03313e-06 0)
(42.7043 -9.45916e-07 0)
(42.7045 -8.7095e-07 0)
(42.7047 -7.99226e-07 0)
(42.7048 -7.36726e-07 0)
(42.705 -6.81618e-07 0)
(42.7052 -6.38037e-07 0)
(42.7053 -5.87744e-07 0)
(42.7055 -5.50153e-07 0)
(42.7057 -5.1958e-07 0)
(42.7059 -4.85793e-07 0)
(42.706 -4.58769e-07 0)
(42.7062 -4.34611e-07 0)
(42.7064 -4.11457e-07 0)
(42.7065 -3.89939e-07 0)
(42.7067 -3.69041e-07 0)
(42.7069 -3.47323e-07 0)
(42.7071 -3.24486e-07 0)
(42.7072 -3.0464e-07 0)
(42.7074 -2.75386e-07 0)
(42.7076 -2.42512e-07 0)
(42.7077 -2.07813e-07 0)
(42.7079 -1.74131e-07 0)
(42.7081 -1.17186e-07 0)
(42.7082 -6.59393e-08 0)
(42.7084 -6.8912e-09 0)
(42.7085 5.89621e-08 0)
(42.7087 1.29168e-07 0)
(42.7088 2.02419e-07 0)
(42.709 2.76778e-07 0)
(42.7091 3.49984e-07 0)
(42.7092 4.19631e-07 0)
(42.7093 4.83322e-07 0)
(42.7094 5.38828e-07 0)
(42.7095 5.84255e-07 0)
(42.7096 6.18165e-07 0)
(42.7097 6.39673e-07 0)
(42.7097 6.48362e-07 0)
(42.7098 6.44549e-07 0)
(42.7098 6.30971e-07 0)
(42.7099 6.0538e-07 0)
(42.7099 5.71934e-07 0)
(42.7099 5.32189e-07 0)
(42.7099 4.87594e-07 0)
(42.7099 4.40832e-07 0)
(42.7099 3.93074e-07 0)
(42.7099 3.46564e-07 0)
(42.7099 3.01164e-07 0)
(42.7099 2.59297e-07 0)
(42.7099 2.20951e-07 0)
(42.7099 1.86774e-07 0)
(42.7098 1.57111e-07 0)
(42.7098 1.3066e-07 0)
(42.7098 1.08998e-07 0)
(42.7098 9.08286e-08 0)
(42.7098 7.59326e-08 0)
(42.7097 6.39221e-08 0)
(42.7097 5.45087e-08 0)
(42.7097 4.69772e-08 0)
(42.7096 4.12718e-08 0)
(42.7096 3.69315e-08 0)
(42.7096 3.36478e-08 0)
(42.7095 3.1181e-08 0)
(42.7095 2.93258e-08 0)
(42.7095 2.79293e-08 0)
(42.7094 2.68757e-08 0)
(42.7094 2.60818e-08 0)
(42.7094 2.54867e-08 0)
(42.7093 2.50426e-08 0)
(42.7093 2.47126e-08 0)
(42.7093 2.44726e-08 0)
(42.7093 2.43017e-08 0)
(42.7092 2.41807e-08 0)
(42.7092 2.40971e-08 0)
(42.7092 2.40442e-08 0)
(42.7091 2.40059e-08 0)
(42.7091 2.39799e-08 0)
(42.7091 2.39652e-08 0)
(42.7091 2.39616e-08 0)
(42.709 2.39649e-08 0)
(42.709 2.3982e-08 0)
(42.709 2.38724e-08 0)
(42.709 2.39711e-08 0)
(42.7089 2.38955e-08 0)
(42.7089 2.39934e-08 0)
(42.7089 2.39657e-08 0)
(42.7089 2.39893e-08 0)
(42.7088 2.38741e-08 0)
(42.7088 2.39645e-08 0)
(42.7088 2.39772e-08 0)
(42.7088 2.41093e-08 0)
(42.7088 2.38452e-08 0)
(42.7087 2.40065e-08 0)
(42.7087 2.40601e-08 0)
(42.7087 2.40276e-08 0)
(42.7087 2.40691e-08 0)
(42.7087 2.40663e-08 0)
(42.7087 2.40945e-08 0)
(42.7086 2.4092e-08 0)
(42.7086 2.41043e-08 0)
(42.7086 2.41165e-08 0)
(42.7086 2.41284e-08 0)
(42.7085 2.41309e-08 0)
(42.7085 2.41403e-08 0)
(42.7085 2.41455e-08 0)
(42.7085 2.41464e-08 0)
(42.7085 2.41569e-08 0)
(42.7084 2.41632e-08 0)
(42.7084 2.41358e-08 0)
(42.7084 2.41875e-08 0)
(42.7084 2.41802e-08 0)
(42.7083 2.41871e-08 0)
(42.7083 2.41542e-08 0)
(42.7083 2.41441e-08 0)
(42.7082 2.41561e-08 0)
(42.7082 2.42078e-08 0)
(42.7082 2.42142e-08 0)
(42.7082 2.42064e-08 0)
(42.7081 2.41562e-08 0)
(42.7081 2.3553e-08 0)
(42.7081 2.4502e-08 0)
(42.7081 2.4431e-08 0)
(42.708 2.43032e-08 0)
(42.708 2.44823e-08 0)
(42.708 2.34973e-08 0)
(42.708 1.21287e-08 0)
(42.708 3.25299e-08 0)
(42.7079 2.82864e-08 0)
(42.7079 2.44375e-08 0)
(42.7079 2.42324e-08 0)
(42.7079 2.40907e-08 0)
(42.7079 2.27254e-08 0)
(42.7079 3.35138e-08 0)
(42.7079 2.04124e-08 0)
(42.7079 2.50823e-08 0)
(42.7079 1.06574e-08 0)
(42.7079 4.19469e-08 0)
(42.7078 6.90426e-09 0)
(42.7078 3.33128e-08 0)
(42.7079 2.39291e-08 0)
(42.7079 2.46735e-08 0)
(42.7079 2.00735e-08 0)
(42.7079 3.17744e-08 0)
(42.7079 1.54706e-08 0)
(42.7079 3.23673e-08 0)
(42.7079 1.82604e-08 0)
(42.7079 3.02431e-08 0)
(42.7079 1.79669e-08 0)
(42.7079 3.23072e-08 0)
(42.708 1.73235e-08 0)
(42.708 3.03795e-08 0)
(42.708 1.93825e-08 0)
(42.708 2.59411e-08 0)
(42.708 2.58755e-08 0)
(42.7081 2.2527e-08 0)
(42.7081 2.17537e-08 0)
(42.7081 2.3269e-08 0)
(42.7081 2.05752e-08 0)
(42.7082 2.8302e-08 0)
(42.7082 2.55409e-08 0)
(42.7082 3.14953e-08 0)
(42.7082 4.61738e-08 0)
(42.7083 1.47496e-07 0)
(42.7083 5.8899e-07 0)
(42.7083 2.73549e-06 0)
(42.7084 1.30719e-05 0)
(42.7084 6.2928e-05 0)
(42.7085 0.000302858 0)
(42.709 0.00145 0)
(42.7111 0.00692233 0)
(42.7203 0.0330825 0)
(42.7587 0.157869 0)
(42.8942 0.755512 0)
(43.3998 2.65602 0)
(42.7001 -0.000119139 0)
(42.7003 -0.000102295 0)
(42.7005 -9.96852e-05 0)
(42.7006 -0.000103804 0)
(42.7008 -0.00010593 0)
(42.7009 -0.000107182 0)
(42.7011 -0.000108245 0)
(42.7012 -0.000109145 0)
(42.7014 -0.000109896 0)
(42.7015 -0.000110513 0)