/*--------------------------------*- C++ -*----------------------------------*\
| =========                 |                                                 |
| \\      /  F ield         | OpenFOAM: The Open Source CFD Toolbox           |
|  \\    /   O peration     | Version:  3.0.x                                 |
|   \\  /    A nd           | Web:      www.OpenFOAM.org                      |
|    \\/     M anipulation  |                                                 |
\*---------------------------------------------------------------------------*/
FoamFile
{
    version     2.0;
    format      ascii;
    class       surfaceScalarField;
    location    "0.26005";
    object      phi;
}
// * * * * * * * * * * * * * * * * * * * * * * * * * * * * * * * * * * * * * //

dimensions      [1 0 -1 0 0 0 0];

internalField   nonuniform List<scalar> 
26210
(
5.30535
0.000503968
5.30582
0.000346575
5.3063
0.000339721
5.30676
0.000341603
5.30723
0.000341882
5.30768
0.000341799
5.30811
0.000341848
5.30852
0.00034181
5.3089
0.000342001
5.30925
0.000341917
5.30959
0.000341915
5.30989
0.000341906
5.31016
0.000341891
5.3104
0.000341876
5.3106
0.000341859
5.31077
0.000341847
5.3109
0.000341839
5.311
0.000341806
5.31106
0.000341709
5.31108
0.000341999
5.31105
0.000341876
5.31097
0.000341774
5.31084
0.000342171
5.31066
0.000341785
5.31042
0.000341779
5.31014
0.000342242
5.30981
0.000341842
5.30943
0.00034201
5.309
0.000341954
5.30851
0.000341984
5.30796
0.000341982
5.30737
0.000341971
5.30673
0.00034195
5.30603
0.000341917
5.30528
0.000341865
5.30449
0.000341787
5.30365
0.000341671
5.30277
0.000341497
5.30186
0.000341241
5.30091
0.000340868
5.29994
0.00034033
5.29894
0.000339564
5.29792
0.000338494
5.29688
0.000337025
5.29582
0.000335049
5.29475
0.000332443
5.29367
0.000329073
5.29259
0.000324803
5.29151
0.000319498
5.29044
0.000313036
5.28937
0.000305314
5.28832
0.000296258
5.28729
0.000285834
5.28628
0.000274052
5.28529
0.000260969
5.28434
0.000246695
5.28342
0.000231388
5.28254
0.000215248
5.28169
0.000198509
5.28089
0.000181431
5.28012
0.000164282
5.2794
0.000147332
5.27871
0.000130836
5.27807
0.000115024
5.27747
0.000100094
5.27691
8.62021e-05
5.27639
7.34625e-05
5.2759
6.19453e-05
5.27546
5.16787e-05
5.27504
4.26527e-05
5.27466
3.48252e-05
5.2743
2.81278e-05
5.27398
2.24729e-05
5.27368
1.77605e-05
5.27341
1.38841e-05
5.27315
1.07358e-05
5.27293
8.21117e-06
5.27272
6.21182e-06
5.27253
4.64803e-06
5.27235
3.43995e-06
5.2722
2.51808e-06
5.27205
1.82321e-06
5.27192
1.30588e-06
5.27181
9.25507e-07
5.2717
6.49399e-07
5.27161
4.51457e-07
5.27152
3.1142e-07
5.27145
2.14053e-07
5.27138
1.47456e-07
5.27132
1.0288e-07
5.27126
7.35417e-08
5.27122
5.54228e-08
5.27118
4.51382e-08
5.27114
3.94775e-08
5.27111
3.59905e-08
5.27108
3.33293e-08
5.27105
3.12266e-08
5.27103
2.99206e-08
5.27101
2.97714e-08
5.271
3.07537e-08
5.27099
3.25581e-08
5.27097
3.46681e-08
5.27096
3.66399e-08
5.27096
3.83061e-08
5.27095
3.97067e-08
5.27094
4.0789e-08
5.27094
4.16767e-08
5.27093
4.22988e-08
5.27093
4.297e-08
5.27093
4.36339e-08
5.27093
4.59131e-08
5.27093
4.29372e-08
5.27093
4.27117e-08
5.27093
4.96984e-08
5.27093
4.29118e-08
5.27093
4.57821e-08
5.27093
4.65134e-08
5.27094
4.2899e-08
5.27094
4.84815e-08
5.27095
4.66225e-08
5.27095
4.65079e-08
5.27096
4.71991e-08
5.27096
4.76102e-08
5.27097
4.82469e-08
5.27098
4.85379e-08
5.27099
5.01113e-08
5.271
5.20831e-08
5.27101
4.85761e-08
5.27102
5.31654e-08
5.27103
5.28871e-08
5.27105
5.40294e-08
5.27106
5.40422e-08
5.27108
5.51936e-08
5.27109
5.59849e-08
5.27111
5.67688e-08
5.27113
5.74528e-08
5.27115
5.79766e-08
5.27117
5.8335e-08
5.27119
5.86006e-08
5.27122
5.88843e-08
5.27124
5.93009e-08
5.27127
5.98775e-08
5.2713
6.05869e-08
5.27133
6.13782e-08
5.27136
6.22149e-08
5.27139
6.3088e-08
5.27142
6.39957e-08
5.27146
6.49306e-08
5.27149
6.58711e-08
5.27153
6.6766e-08
5.27157
6.757e-08
5.27161
6.82357e-08
5.27165
6.87724e-08
5.2717
6.92307e-08
5.27174
6.96728e-08
5.27179
7.01802e-08
5.27184
7.08023e-08
5.27189
7.15754e-08
5.27194
7.25067e-08
5.272
7.36291e-08
5.27205
7.49187e-08
5.27211
7.64339e-08
5.27218
7.81638e-08
5.27224
8.01538e-08
5.27231
8.2422e-08
5.27239
8.4945e-08
5.27247
8.79827e-08
5.27256
9.1406e-08
5.27265
9.48985e-08
5.27275
9.87711e-08
5.27286
1.03106e-07
5.27297
1.07835e-07
5.2731
1.12886e-07
5.27323
1.18407e-07
5.27338
1.24239e-07
5.27354
1.30729e-07
5.27371
1.37599e-07
5.27389
1.44939e-07
5.27409
1.53157e-07
5.27431
1.61541e-07
5.27453
1.70621e-07
5.27478
1.80464e-07
5.27504
1.90174e-07
5.27531
2.00609e-07
5.27561
2.11287e-07
5.27591
2.21444e-07
5.27624
2.33367e-07
5.27658
2.47268e-07
5.27694
2.77805e-07
5.27732
3.90584e-07
5.27771
8.91228e-07
5.27812
3.27759e-06
5.27853
1.47483e-05
5.27889
6.98844e-05
5.279
0.000334499
5.27786
0.00159991
5.27072
0.00760405
5.23541
0.0357725
5.05551
0.180369
0.685147
4.37084
7.50373
0.00046026
7.5049
0.000329433
7.50607
0.000314956
7.50724
0.000318723
7.50841
0.000319227
7.50955
0.000319055
7.51066
0.000319125
7.51174
0.000319137
7.51278
0.000319333
7.51379
0.000319295
7.51477
0.000319323
7.5157
0.000319346
7.51659
0.000319362
7.51744
0.00031938
7.51823
0.000319395
7.51897
0.000319414
7.51966
0.000319438
7.5203
0.000319443
7.52088
0.00031938
7.52142
0.000319672
7.52188
0.000319596
7.52227
0.000319542
7.52259
0.00031992
7.52284
0.000319606
7.52302
0.000319639
7.52312
0.000320073
7.52316
0.000319761
7.52313
0.000319934
7.52302
0.000319919
7.52283
0.000319974
7.52256
0.000320004
7.52223
0.000320024
7.52182
0.000320035
7.52134
0.000320034
7.52079
0.000320016
7.52017
0.000319971
7.51949
0.00031989
7.51875
0.000319754
7.51796
0.000319538
7.51712
0.000319208
7.51625
0.00031872
7.51534
0.000318012
7.51439
0.000317011
7.51342
0.000315628
7.51242
0.000313757
7.5114
0.000311282
7.51036
0.000308078
7.50931
0.000304014
7.50825
0.000298965
7.50719
0.000292816
7.50613
0.000285471
7.50508
0.000276866
7.50404
0.000266971
7.50302
0.000255799
7.50201
0.000243411
7.50103
0.000229914
7.50007
0.000215461
7.49914
0.000200245
7.49824
0.000184489
7.49737
0.00016844
7.49653
0.000152352
7.49572
0.000136477
7.49495
0.000121054
7.49422
0.000106296
7.49351
9.2384e-05
7.49285
7.94619e-05
7.49222
6.76319e-05
7.49163
5.69552e-05
7.49107
4.74537e-05
7.49054
3.91143e-05
7.49005
3.18941e-05
7.48959
2.57264e-05
7.48917
2.05271e-05
7.48877
1.62012e-05
7.4884
1.26483e-05
7.48807
9.7673e-06
7.48775
7.4605e-06
7.48747
5.63647e-06
7.4872
4.21197e-06
7.48696
3.11316e-06
7.48674
2.27593e-06
7.48654
1.64583e-06
7.48636
1.17744e-06
7.4862
8.33581e-07
7.48605
5.84358e-07
7.48591
4.05964e-07
7.48579
2.79939e-07
7.48569
1.92455e-07
7.48559
1.32739e-07
7.4855
9.2823e-08
7.48543
6.66587e-08
7.48536
5.05715e-08
7.4853
4.15585e-08
7.48525
3.66726e-08
7.4852
3.36986e-08
7.48516
3.14285e-08
7.48513
2.96459e-08
7.4851
2.85636e-08
7.48507
2.85563e-08
7.48505
2.95677e-08
7.48503
3.13084e-08
7.48501
3.33221e-08
7.48499
3.51756e-08
7.48498
3.67327e-08
7.48497
3.80551e-08
7.48496
3.90246e-08
7.48496
3.99141e-08
7.48495
4.04179e-08
7.48494
4.10109e-08
7.48494
4.16585e-08
7.48494
4.36921e-08
7.48494
4.09582e-08
7.48494
4.08527e-08
7.48494
4.69809e-08
7.48494
4.10309e-08
7.48494
4.34611e-08
7.48494
4.41723e-08
7.48495
4.08654e-08
7.48495
4.59713e-08
7.48496
4.43051e-08
7.48496
4.41796e-08
7.48497
4.48126e-08
7.48498
4.51873e-08
7.48499
4.57585e-08
7.485
4.60623e-08
7.48501
4.74774e-08
7.48503
4.92419e-08
7.48504
4.61332e-08
7.48506
5.01805e-08
7.48507
5.00204e-08
7.48509
5.09826e-08
7.48511
5.10281e-08
7.48513
5.20449e-08
7.48515
5.27507e-08
7.48518
5.34546e-08
7.4852
5.40731e-08
7.48523
5.45388e-08
7.48526
5.48644e-08
7.48529
5.5119e-08
7.48532
5.54064e-08
7.48536
5.58321e-08
7.4854
5.64232e-08
7.48544
5.71399e-08
7.48548
5.79421e-08
7.48552
5.8777e-08
7.48557
5.96465e-08
7.48561
6.0536e-08
7.48566
6.14436e-08
7.48571
6.23459e-08
7.48576
6.31971e-08
7.48582
6.39538e-08
7.48588
6.45759e-08
7.48593
6.50816e-08
7.486
6.55073e-08
7.48606
6.59238e-08
7.48612
6.63913e-08
7.48619
6.69716e-08
7.48626
6.76955e-08
7.48634
6.85704e-08
7.48641
6.96182e-08
7.48649
7.08114e-08
7.48658
7.22412e-08
7.48667
7.38346e-08
7.48676
7.56609e-08
7.48686
7.77382e-08
7.48697
7.99737e-08
7.48708
8.29768e-08
7.4872
8.64075e-08
7.48733
8.94615e-08
7.48747
9.29595e-08
7.48762
9.6954e-08
7.48779
1.01467e-07
7.48796
1.06063e-07
7.48815
1.11269e-07
7.48836
1.16597e-07
7.48858
1.22716e-07
7.48883
1.2915e-07
7.48909
1.35864e-07
7.48937
1.43724e-07
7.48967
1.51416e-07
7.48999
1.59729e-07
7.49033
1.69264e-07
7.4907
1.77984e-07
7.49109
1.87838e-07
7.4915
1.98101e-07
7.49194
2.07294e-07
7.4924
2.20713e-07
7.49289
2.39679e-07
7.4934
2.98844e-07
7.49393
5.57431e-07
7.49448
1.752e-06
7.49505
7.49624e-06
7.49563
3.51567e-05
7.49615
0.000168157
7.4963
0.000806526
7.49469
0.00385983
7.48458
0.0183611
7.43464
0.0863771
7.18674
0.428933
1.58374
6.28881
10.6119
0.000402149
10.6135
0.000302338
10.6152
0.000280725
10.6168
0.000286051
10.6185
0.000286867
10.6201
0.000286569
10.6217
0.000286626
10.6232
0.000286661
10.6247
0.000286824
10.6261
0.000286802
10.6275
0.000286827
10.6288
0.000286849
10.6301
0.000286864
10.6313
0.000286881
10.6324
0.000286895
10.6334
0.000286912
10.6344
0.000286934
10.6353
0.000286944
10.6361
0.000286886
10.6369
0.000287135
10.6376
0.000287078
10.6381
0.000287041
10.6386
0.000287351
10.6389
0.000287092
10.6392
0.000287127
10.6393
0.000287484
10.6394
0.000287239
10.6393
0.000287379
10.6392
0.000287369
10.6389
0.000287418
10.6385
0.000287445
10.6381
0.000287463
10.6375
0.000287474
10.6368
0.000287473
10.636
0.000287456
10.6352
0.000287417
10.6342
0.000287345
10.6331
0.000287224
10.632
0.000287032
10.6309
0.000286738
10.6296
0.000286303
10.6283
0.000285672
10.627
0.000284779
10.6256
0.000283544
10.6242
0.000281874
10.6228
0.000279664
10.6213
0.000276801
10.6198
0.000273169
10.6183
0.000268655
10.6168
0.000263155
10.6153
0.000256585
10.6138
0.000248883
10.6124
0.000240024
10.6109
0.000230018
10.6095
0.000218918
10.6081
0.00020682
10.6068
0.000193861
10.6054
0.000180212
10.6042
0.000166073
10.6029
0.000151666
10.6017
0.000137218
10.6006
0.000122956
10.5995
0.000109093
10.5985
9.58237e-05
10.5975
8.33098e-05
10.5965
7.16812e-05
10.5956
6.1031e-05
10.5948
5.14149e-05
10.594
4.28536e-05
10.5933
3.53361e-05
10.5926
2.88246e-05
10.5919
2.32598e-05
10.5913
1.85667e-05
10.5908
1.46601e-05
10.5902
1.14501e-05
10.5898
8.84595e-06
10.5893
6.75982e-06
10.5889
5.10948e-06
10.5885
3.82e-06
10.5882
2.82485e-06
10.5879
2.06622e-06
10.5876
1.49498e-06
10.5873
1.07012e-06
10.5871
7.58034e-07
10.5869
5.31703e-07
10.5867
3.69595e-07
10.5865
2.54994e-07
10.5864
1.75375e-07
10.5862
1.20999e-07
10.5861
8.45939e-08
10.586
6.07347e-08
10.5859
4.60045e-08
10.5858
3.77113e-08
10.5858
3.31811e-08
10.5857
3.0419e-08
10.5856
2.83208e-08
10.5856
2.67041e-08
10.5855
2.57046e-08
10.5855
2.56991e-08
10.5855
2.65941e-08
10.5855
2.81389e-08
10.5854
2.99433e-08
10.5854
3.15949e-08
10.5854
3.29887e-08
10.5854
3.41925e-08
10.5854
3.50155e-08
10.5854
3.59046e-08
10.5853
3.63011e-08
10.5853
3.68132e-08
10.5853
3.74425e-08
10.5853
3.91874e-08
10.5853
3.68095e-08
10.5853
3.68473e-08
10.5853
4.19254e-08
10.5853
3.70546e-08
10.5853
3.89641e-08
10.5853
3.96599e-08
10.5853
3.6755e-08
10.5853
4.12424e-08
10.5854
3.98286e-08
10.5854
3.96972e-08
10.5854
4.02565e-08
10.5854
4.05912e-08
10.5854
4.10864e-08
10.5854
4.1412e-08
10.5854
4.26335e-08
10.5855
4.41478e-08
10.5855
4.15798e-08
10.5855
4.49668e-08
10.5855
4.49718e-08
10.5855
4.57608e-08
10.5856
4.58654e-08
10.5856
4.67444e-08
10.5856
4.73838e-08
10.5857
4.8014e-08
10.5857
4.85661e-08
10.5857
4.89863e-08
10.5858
4.92792e-08
10.5858
4.95115e-08
10.5859
4.97721e-08
10.5859
5.01545e-08
10.586
5.06857e-08
10.586
5.13301e-08
10.5861
5.20477e-08
10.5862
5.2798e-08
10.5862
5.35779e-08
10.5863
5.43755e-08
10.5863
5.51945e-08
10.5864
5.60021e-08
10.5865
5.67643e-08
10.5866
5.7441e-08
10.5867
5.8003e-08
10.5867
5.84587e-08
10.5868
5.88429e-08
10.5869
5.9219e-08
10.587
5.96378e-08
10.5871
6.01481e-08
10.5872
6.08079e-08
10.5873
6.15964e-08
10.5874
6.25323e-08
10.5875
6.35923e-08
10.5876
6.49088e-08
10.5878
6.6314e-08
10.5879
6.79183e-08
10.588
6.97278e-08
10.5882
7.15659e-08
10.5884
7.45536e-08
10.5885
7.80014e-08
10.5887
8.04471e-08
10.5889
8.3468e-08
10.5891
8.69809e-08
10.5894
9.12419e-08
10.5896
9.51891e-08
10.5899
9.99999e-08
10.5902
1.04629e-07
10.5905
1.10259e-07
10.5908
1.16074e-07
10.5912
1.2196e-07
10.5916
1.29246e-07
10.592
1.36059e-07
10.5925
1.43245e-07
10.593
1.5231e-07
10.5935
1.5973e-07
10.594
1.68653e-07
10.5946
1.78336e-07
10.5952
1.86256e-07
10.5959
2.01459e-07
10.5966
2.27629e-07
10.5973
3.25828e-07
10.598
7.85044e-07
10.5988
2.93428e-06
10.5996
1.32958e-05
10.6004
6.32189e-05
10.6012
0.000303301
10.6014
0.0014558
10.5992
0.00696944
10.5853
0.0331721
10.5167
0.155906
10.1816
0.765002
2.76609
9.00021
46.843
0.000185531
46.8504
0.000158387
46.8577
0.000139048
46.865
0.000142388
46.8723
0.000143832
46.8794
0.000143453
46.8863
0.000143379
46.8931
0.000143404
46.8996
0.000143447
46.9059
0.000143446
46.912
0.000143445
46.9178
0.00014345
46.9234
0.000143452
46.9286
0.000143458
46.9336
0.000143462
46.9382
0.000143467
46.9425
0.000143476
46.9465
0.000143483
46.9502
0.000143463
46.9535
0.000143556
46.9564
0.000143544
46.9589
0.000143541
46.9609
0.000143652
46.9624
0.000143564
46.9635
0.000143577
46.9642
0.00014372
46.9644
0.000143636
46.9642
0.000143688
46.9635
0.000143688
46.9624
0.00014371
46.9607
0.000143724
46.9587
0.000143733
46.9561
0.000143738
46.9531
0.000143738
46.9497
0.00014373
46.9458
0.000143711
46.9416
0.000143676
46.937
0.000143618
46.932
0.000143524
46.9268
0.000143382
46.9214
0.00014317
46.9157
0.000142862
46.9098
0.000142425
46.9037
0.000141821
46.8975
0.000141002
46.8911
0.000139916
46.8847
0.000138508
46.8781
0.000136719
46.8715
0.000134492
46.8649
0.000131776
46.8583
0.000128526
46.8517
0.000124712
46.8453
0.00012032
46.8389
0.000115353
46.8326
0.000109837
46.8265
0.000103819
46.8205
9.73641e-05
46.8147
9.05587e-05
46.809
8.35019e-05
46.8036
7.63033e-05
46.7983
6.90768e-05
46.7933
6.19362e-05
46.7885
5.49888e-05
46.7839
4.83319e-05
46.7795
4.20481e-05
46.7753
3.62034e-05
46.7714
3.08453e-05
46.7677
2.60031e-05
46.7642
2.16882e-05
46.7609
1.7896e-05
46.7578
1.46084e-05
46.755
1.17963e-05
46.7523
9.4227e-06
46.7498
7.44529e-06
46.7475
5.81914e-06
46.7454
4.49883e-06
46.7435
3.44033e-06
46.7417
2.60228e-06
46.74
1.94696e-06
46.7385
1.44079e-06
46.7372
1.05456e-06
46.7359
7.63488e-07
46.7348
5.46836e-07
46.7338
3.87591e-07
46.7328
2.72037e-07
46.732
1.89236e-07
46.7312
1.30666e-07
46.7306
8.99231e-08
46.73
6.20789e-08
46.7294
4.33834e-08
46.729
3.1124e-08
46.7285
2.35077e-08
46.7282
1.91819e-08
46.7278
1.6795e-08
46.7275
1.534e-08
46.7273
1.42541e-08
46.7271
1.3441e-08
46.7269
1.2906e-08
46.7267
1.289e-08
46.7266
1.33207e-08
46.7264
1.40783e-08
46.7263
1.49821e-08
46.7262
1.58034e-08
46.7262
1.64966e-08
46.7261
1.70985e-08
46.726
1.74487e-08
46.726
1.80196e-08
46.726
1.81724e-08
46.7259
1.8392e-08
46.7259
1.87483e-08
46.7259
1.94955e-08
46.7259
1.846e-08
46.7259
1.85903e-08
46.7259
2.06621e-08
46.7259
1.87422e-08
46.7259
1.94041e-08
46.7259
1.98097e-08
46.7259
1.84116e-08
46.726
2.05712e-08
46.726
1.99536e-08
46.7261
1.9864e-08
46.7261
2.01248e-08
46.7262
2.0292e-08
46.7262
2.0538e-08
46.7263
2.0739e-08
46.7264
2.1297e-08
46.7264
2.19954e-08
46.7265
2.09391e-08
46.7266
2.23736e-08
46.7267
2.25284e-08
46.7268
2.28483e-08
46.727
2.2962e-08
46.7271
2.33681e-08
46.7272
2.36935e-08
46.7274
2.4007e-08
46.7275
2.42824e-08
46.7277
2.44952e-08
46.7279
2.46412e-08
46.7281
2.4758e-08
46.7283
2.48874e-08
46.7285
2.50784e-08
46.7288
2.5344e-08
46.729
2.56666e-08
46.7293
2.60225e-08
46.7295
2.6399e-08
46.7298
2.67867e-08
46.7301
2.71853e-08
46.7304
2.75959e-08
46.7307
2.80011e-08
46.7311
2.83821e-08
46.7314
2.87159e-08
46.7318
2.90006e-08
46.7321
2.92334e-08
46.7325
2.94306e-08
46.7329
2.96304e-08
46.7333
2.98191e-08
46.7337
3.0044e-08
46.7342
3.03942e-08
46.7346
3.08264e-08
46.7351
3.125e-08
46.7356
3.17507e-08
46.7361
3.25167e-08
46.7367
3.31418e-08
46.7373
3.37557e-08
46.7379
3.44305e-08
46.7386
3.42784e-08
46.7393
3.75785e-08
46.74
4.08738e-08
46.7408
4.06808e-08
46.7417
4.14127e-08
46.7427
4.32308e-08
46.7437
4.58244e-08
46.7448
4.74629e-08
46.746
5.00579e-08
46.7473
5.20643e-08
46.7487
5.51197e-08
46.7502
5.84748e-08
46.7518
6.0543e-08
46.7535
6.51958e-08
46.7554
6.83731e-08
46.7574
7.06821e-08
46.7596
7.67754e-08
46.7619
8.01335e-08
46.7643
8.26187e-08
46.7669
9.23085e-08
46.7696
9.21207e-08
46.7725
1.17187e-07
46.7755
1.64938e-07
46.7787
4.30357e-07
46.782
1.65144e-06
46.7855
7.54983e-06
46.7891
3.59497e-05
46.7927
0.000172929
46.796
0.00083194
46.7974
0.00399757
46.7892
0.0191436
46.7355
0.0909159
46.4738
0.421747
45.365
1.87802
6.61175
41.5235
46.843
-1.59162e-12
46.8504
2.27374e-13
46.8577
4.54747e-13
46.865
-4.54747e-13
46.8722
4.54747e-13
46.8794
1.36424e-12
46.8863
-2.27374e-13
46.893
4.54747e-13
46.8996
1.36424e-12
46.9059
-9.09495e-13
46.9119
-1.59162e-12
46.9178
-1.36424e-12
46.9234
-6.82121e-13
46.9286
-9.09495e-13
46.9336
-2.27374e-13
46.9382
9.09495e-13
46.9425
6.82121e-13
46.9465
9.09495e-13
46.9502
4.54747e-13
46.9535
0
46.9564
4.54747e-13
46.9588
1.13687e-12
46.9608
4.54747e-13
46.9624
-2.50111e-12
46.9635
-4.54747e-13
46.9642
-1.81899e-12
46.9644
2.27374e-13
46.9642
-1.13687e-12
46.9635
-1.36424e-12
46.9624
4.54747e-13
46.9607
-1.59162e-12
46.9586
-1.36424e-12
46.9561
-4.54747e-13
46.9531
1.36424e-12
46.9497
1.59162e-12
46.9458
-1.13687e-12
46.9416
0
46.9369
3.18323e-12
46.932
-2.04636e-12
46.9268
-2.27374e-13
46.9214
4.54747e-13
46.9157
-6.82121e-13
46.9098
9.09495e-13
46.9037
6.82121e-13
46.8975
9.09495e-13
46.8911
-4.54747e-13
46.8846
-2.27374e-13
46.8781
1.13687e-12
46.8715
9.09495e-13
46.8649
0
46.8583
1.13687e-12
46.8517
-9.09495e-13
46.8452
-6.82121e-13
46.8389
0
46.8326
9.09495e-13
46.8265
1.59162e-12
46.8205
1.36424e-12
46.8146
-1.13687e-12
46.809
-6.82121e-13
46.8036
-1.36424e-12
46.7983
0
46.7933
-6.82121e-13
46.7885
-1.13687e-12
46.7839
-4.54747e-13
46.7795
0
46.7753
-2.27374e-13
46.7714
-2.27374e-13
46.7677
-9.09495e-13
46.7642
1.36424e-12
46.7609
3.41061e-12
46.7578
1.13687e-12
46.755
-6.82121e-13
46.7523
-4.54747e-13
46.7498
-2.27374e-13
46.7475
0
46.7454
1.13687e-12
46.7435
-4.54747e-13
46.7417
0
46.74
9.09495e-13
46.7385
1.13687e-12
46.7372
0
46.7359
-6.82121e-13
46.7348
2.27374e-13
46.7338
2.27374e-13
46.7328
6.82121e-13
46.732
1.36424e-12
46.7312
2.27374e-13
46.7306
0
46.73
2.27374e-13
46.7294
9.09495e-13
46.729
6.82121e-13
46.7285
-4.54747e-13
46.7282
-1.13687e-12
46.7278
1.13687e-12
46.7275
4.54747e-13
46.7273
0
46.7271
1.36424e-12
46.7269
9.09495e-13
46.7267
0
46.7266
-1.36424e-12
46.7264
0
46.7263
0
46.7262
1.59162e-12
46.7262
-1.13687e-12
46.7261
-2.04636e-12
46.726
-2.27374e-13
46.726
1.13687e-12
46.726
1.81899e-12
46.7259
9.09495e-13
46.7259
1.81899e-12
46.7259
6.82121e-13
46.7259
-6.82121e-13
46.7259
-9.09495e-13
46.7259
1.59162e-12
46.7259
-1.59162e-12
46.7259
-4.54747e-13
46.7259
-1.81899e-12
46.7259
-1.81899e-12
46.726
1.36424e-12
46.726
1.81899e-12
46.7261
4.54747e-13
46.7261
-2.27374e-13
46.7262
-1.81899e-12
46.7262
-1.59162e-12
46.7263
1.36424e-12
46.7264
6.82121e-13
46.7264
-1.36424e-12
46.7265
0
46.7266
0
46.7267
1.81899e-12
46.7268
2.72848e-12
46.727
1.59162e-12
46.7271
6.82121e-13
46.7272
9.09495e-13
46.7274
-1.59162e-12
46.7275
-6.82121e-13
46.7277
2.04636e-12
46.7279
-2.27374e-13
46.7281
6.82121e-13
46.7283
-6.82121e-13
46.7285
1.59162e-12
46.7288
1.81899e-12
46.729
1.13687e-12
46.7293
-1.13687e-12
46.7295
-4.54747e-13
46.7298
-2.27374e-12
46.7301
-2.95586e-12
46.7304
-6.82121e-13
46.7307
-2.50111e-12
46.7311
9.09495e-13
46.7314
-9.32232e-12
46.7318
5.91172e-12
46.7321
3.41061e-12
46.7325
1.43245e-11
46.7329
4.77485e-11
46.7333
-1.81899e-12
46.7337
-6.61657e-11
46.7342
1.50067e-11
46.7346
3.56977e-11
46.7351
-1.3415e-11
46.7356
-8.73115e-11
46.7361
1.07093e-10
46.7367
-1.86446e-11
46.7373
-3.83125e-10
46.7379
-9.62245e-10
46.7386
-3.27987e-09
46.7393
1.25328e-09
46.74
3.48086e-09
46.7408
5.37739e-10
46.7417
-3.72211e-10
46.7427
-8.56744e-10
46.7437
9.64519e-10
46.7448
-7.56245e-10
46.746
6.72571e-10
46.7473
-7.14181e-10
46.7487
1.04592e-10
46.7502
4.74984e-10
46.7518
-3.62434e-10
46.7535
4.63842e-10
46.7554
7.46468e-10
46.7574
-1.57638e-09
46.7596
1.1064e-09
46.7619
-3.57659e-10
46.7643
-4.61569e-11
46.7669
6.63931e-10
46.7696
4.86125e-09
46.7725
1.49153e-08
46.7755
8.93046e-08
46.7787
3.7925e-07
46.782
1.93626e-06
46.7855
9.22175e-06
46.7891
4.45252e-05
46.7927
0.000214724
46.7964
0.00103521
46.7993
0.00498783
46.7985
0.0240039
46.7784
0.115083
46.6624
0.541894
46.078
2.46658
8.81054
43.8834
46.843
-0.000185531
46.8504
-0.000158387
46.8577
-0.000139048
46.865
-0.000142388
46.8722
-0.000143832
46.8794
-0.000143453
46.8863
-0.000143379
46.893
-0.000143404
46.8996
-0.000143447
46.9059
-0.000143446
46.9119
-0.000143445
46.9178
-0.00014345
46.9234
-0.000143452
46.9286
-0.000143458
46.9336
-0.000143462
46.9382
-0.000143467
46.9425
-0.000143476
46.9465
-0.000143483
46.9502
-0.000143463
46.9535
-0.000143556
46.9564
-0.000143544
46.9588
-0.000143541
46.9608
-0.000143652
46.9624
-0.000143564
46.9635
-0.000143577
46.9642
-0.00014372
46.9644
-0.000143636
46.9642
-0.000143688
46.9635
-0.000143688
46.9624
-0.00014371
46.9607
-0.000143724
46.9586
-0.000143733
46.9561
-0.000143738
46.9531
-0.000143738
46.9497
-0.00014373
46.9458
-0.000143711
46.9416
-0.000143676
46.9369
-0.000143618
46.932
-0.000143524
46.9268
-0.000143382
46.9214
-0.00014317
46.9157
-0.000142862
46.9098
-0.000142425
46.9037
-0.000141821
46.8975
-0.000141002
46.8911
-0.000139916
46.8846
-0.000138508
46.8781
-0.000136719
46.8715
-0.000134492
46.8649
-0.000131776
46.8583
-0.000128526
46.8517
-0.000124712
46.8452
-0.00012032
46.8389
-0.000115353
46.8326
-0.000109837
46.8265
-0.000103819
46.8205
-9.73641e-05
46.8146
-9.05587e-05
46.809
-8.35019e-05
46.8036
-7.63033e-05
46.7983
-6.90768e-05
46.7933
-6.19362e-05
46.7885
-5.49888e-05
46.7839
-4.83319e-05
46.7795
-4.20481e-05
46.7753
-3.62034e-05
46.7714
-3.08453e-05
46.7677
-2.60031e-05
46.7642
-2.16882e-05
46.7609
-1.7896e-05
46.7578
-1.46084e-05
46.755
-1.17963e-05
46.7523
-9.4227e-06
46.7498
-7.44529e-06
46.7475
-5.81914e-06
46.7454
-4.49883e-06
46.7435
-3.44033e-06
46.7417
-2.60228e-06
46.74
-1.94696e-06
46.7385
-1.44078e-06
46.7372
-1.05456e-06
46.7359
-7.6349e-07
46.7348
-5.46836e-07
46.7338
-3.87591e-07
46.7328
-2.72037e-07
46.732
-1.89234e-07
46.7312
-1.30667e-07
46.7306
-8.99215e-08
46.73
-6.20764e-08
46.7294
-4.3382e-08
46.729
-3.11218e-08
46.7285
-2.35082e-08
46.7282
-1.91844e-08
46.7278
-1.67931e-08
46.7275
-1.53391e-08
46.7273
-1.42536e-08
46.7271
-1.34371e-08
46.7269
-1.2905e-08
46.7267
-1.2891e-08
46.7266
-1.33221e-08
46.7264
-1.40774e-08
46.7263
-1.49819e-08
46.7262
-1.5802e-08
46.7262
-1.65001e-08
46.7261
-1.7101e-08
46.726
-1.74487e-08
46.726
-1.80178e-08
46.726
-1.81697e-08
46.7259
-1.83895e-08
46.7259
-1.87449e-08
46.7259
-1.94939e-08
46.7259
-1.84632e-08
46.7259
-1.85903e-08
46.7259
-2.06596e-08
46.7259
-1.87454e-08
46.7259
-1.94059e-08
46.7259
-1.9812e-08
46.7259
-1.84159e-08
46.726
-2.05687e-08
46.726
-1.995e-08
46.7261
-1.98638e-08
46.7261
-2.01228e-08
46.7262
-2.02963e-08
46.7262
-2.05409e-08
46.7263
-2.07365e-08
46.7264
-2.1296e-08
46.7264
-2.19998e-08
46.7265
-2.09395e-08
46.7266
-2.23745e-08
46.7267
-2.25257e-08
46.7268
-2.28438e-08
46.727
-2.29609e-08
46.7271
-2.33681e-08
46.7272
-2.3693e-08
46.7274
-2.40111e-08
46.7275
-2.4284e-08
46.7277
-2.44916e-08
46.7279
-2.46405e-08
46.7281
-2.47555e-08
46.7283
-2.48901e-08
46.7285
-2.50764e-08
46.7288
-2.53413e-08
46.729
-2.56648e-08
46.7293
-2.60241e-08
46.7295
-2.63992e-08
46.7298
-2.67889e-08
46.7301
-2.71903e-08
46.7304
-2.75979e-08
46.7307
-2.80022e-08
46.7311
-2.83853e-08
46.7314
-2.87262e-08
46.7318
-2.89915e-08
46.7321
-2.92227e-08
46.7325
-2.93974e-08
46.7329
-2.95586e-08
46.7333
-2.98255e-08
46.7337
-3.01591e-08
46.7342
-3.04062e-08
46.7346
-3.07682e-08
46.7351
-3.12866e-08
46.7356
-3.18744e-08
46.7361
-3.24085e-08
46.7367
-3.31813e-08
46.7373
-3.42384e-08
46.7379
-3.55285e-08
46.7386
-3.77631e-08
46.7393
-3.70526e-08
46.74
-3.62738e-08
46.7408
-3.95701e-08
46.7417
-4.22019e-08
46.7427
-4.39857e-08
46.7437
-4.50596e-08
46.7448
-4.80356e-08
46.746
-4.96398e-08
46.7473
-5.27482e-08
46.7487
-5.49901e-08
46.7502
-5.79271e-08
46.7518
-6.0799e-08
46.7535
-6.45264e-08
46.7554
-6.76162e-08
46.7574
-7.23949e-08
46.7596
-7.59214e-08
46.7619
-7.97354e-08
46.7643
-8.40034e-08
46.7669
-8.92105e-08
46.7696
-8.87853e-08
46.7725
-8.17945e-08
46.7755
-3.66142e-08
46.7787
2.20483e-07
46.782
1.42276e-06
46.7855
7.33656e-06
46.7891
3.57719e-05
46.7929
0.000173175
46.7969
0.000837139
46.8018
0.00405318
46.8101
0.0197162
46.8325
0.0967145
46.9066
0.471964
47.0213
2.35602
8.03111
47.8048
46.843
-0.000402149
46.8504
-0.000302338
46.8577
-0.000280725
46.865
-0.000286051
46.8723
-0.000286867
46.8794
-0.000286569
46.8863
-0.000286626
46.8931
-0.000286661
46.8996
-0.000286824
46.9059
-0.000286802
46.912
-0.000286827
46.9178
-0.000286849
46.9234
-0.000286864
46.9286
-0.000286881
46.9336
-0.000286895
46.9382
-0.000286912
46.9425
-0.000286934
46.9465
-0.000286944
46.9502
-0.000286886
46.9535
-0.000287135
46.9564
-0.000287078
46.9589
-0.000287041
46.9609
-0.000287351
46.9624
-0.000287092
46.9635
-0.000287127
46.9642
-0.000287484
46.9644
-0.000287239
46.9642
-0.000287379
46.9635
-0.000287369
46.9624
-0.000287418
46.9607
-0.000287445
46.9587
-0.000287463
46.9561
-0.000287474
46.9531
-0.000287473
46.9497
-0.000287456
46.9458
-0.000287417
46.9416
-0.000287345
46.937
-0.000287224
46.932
-0.000287032
46.9268
-0.000286738
46.9214
-0.000286303
46.9157
-0.000285672
46.9098
-0.000284779
46.9037
-0.000283544
46.8975
-0.000281874
46.8911
-0.000279664
46.8847
-0.000276801
46.8781
-0.000273169
46.8715
-0.000268655
46.8649
-0.000263155
46.8583
-0.000256585
46.8517
-0.000248883
46.8453
-0.000240024
46.8389
-0.000230018
46.8326
-0.000218918
46.8265
-0.00020682
46.8205
-0.000193861
46.8147
-0.000180212
46.809
-0.000166073
46.8036
-0.000151666
46.7983
-0.000137218
46.7933
-0.000122956
46.7885
-0.000109093
46.7839
-9.58237e-05
46.7795
-8.33098e-05
46.7753
-7.16812e-05
46.7714
-6.1031e-05
46.7677
-5.14149e-05
46.7642
-4.28536e-05
46.7609
-3.53361e-05
46.7578
-2.88246e-05
46.755
-2.32598e-05
46.7523
-1.85667e-05
46.7498
-1.46601e-05
46.7475
-1.14501e-05
46.7454
-8.84595e-06
46.7435
-6.75982e-06
46.7417
-5.10948e-06
46.74
-3.82e-06
46.7385
-2.82484e-06
46.7372
-2.06622e-06
46.7359
-1.49498e-06
46.7348
-1.07012e-06
46.7338
-7.58033e-07
46.7328
-5.31702e-07
46.732
-3.6959e-07
46.7312
-2.55e-07
46.7306
-1.75376e-07
46.73
-1.20996e-07
46.7294
-8.45962e-08
46.729
-6.0732e-08
46.7285
-4.60041e-08
46.7282
-3.77131e-08
46.7278
-3.31797e-08
46.7275
-3.04185e-08
46.7273
-2.83203e-08
46.7271
-2.66996e-08
46.7269
-2.57055e-08
46.7267
-2.57e-08
46.7266
-2.65936e-08
46.7264
-2.81357e-08
46.7263
-2.99392e-08
46.7262
-3.1594e-08
46.7262
-3.29901e-08
46.7261
-3.41943e-08
46.726
-3.50174e-08
46.726
-3.59009e-08
46.726
-3.62988e-08
46.7259
-3.68127e-08
46.7259
-3.74393e-08
46.7259
-3.91851e-08
46.7259
-3.68145e-08
46.7259
-3.68482e-08
46.7259
-4.19227e-08
46.7259
-3.70583e-08
46.7259
-3.89678e-08
46.7259
-3.9664e-08
46.7259
-3.676e-08
46.726
-4.12401e-08
46.726
-3.98254e-08
46.7261
-3.96935e-08
46.7261
-4.02497e-08
46.7262
-4.05948e-08
46.7262
-4.10905e-08
46.7263
-4.1407e-08
46.7264
-4.26339e-08
46.7264
-4.41537e-08
46.7265
-4.15812e-08
46.7266
-4.49695e-08
46.7267
-4.49695e-08
46.7268
-4.5759e-08
46.727
-4.58631e-08
46.7271
-4.67462e-08
46.7272
-4.7386e-08
46.7274
-4.80177e-08
46.7275
-4.85647e-08
46.7277
-4.89813e-08
46.7279
-4.92801e-08
46.7281
-4.95088e-08
46.7283
-4.97762e-08
46.7285
-5.01518e-08
46.7288
-5.06834e-08
46.729
-5.13314e-08
46.7293
-5.20467e-08
46.7295
-5.27994e-08
46.7298
-5.35779e-08
46.7301
-5.43791e-08
46.7304
-5.51922e-08
46.7307
-5.60035e-08
46.7311
-5.67684e-08
46.7314
-5.74478e-08
46.7318
-5.79994e-08
46.7321
-5.84523e-08
46.7325
-5.88307e-08
46.7329
-5.91922e-08
46.7333
-5.96365e-08
46.7337
-6.01917e-08
46.7342
-6.08015e-08
46.7346
-6.15892e-08
46.7351
-6.25355e-08
46.7356
-6.36442e-08
46.7361
-6.48697e-08
46.7367
-6.63222e-08
46.7373
-6.80975e-08
46.7379
-7.01334e-08
46.7386
-7.2574e-08
46.7393
-7.45686e-08
46.74
-7.63926e-08
46.7408
-8.00383e-08
46.7417
-8.36831e-08
46.7427
-8.73079e-08
46.7437
-9.09158e-08
46.7448
-9.54469e-08
46.746
-9.98302e-08
46.7473
-1.04915e-07
46.7487
-1.10128e-07
46.7502
-1.16052e-07
46.7518
-1.2197e-07
46.7535
-1.28827e-07
46.7554
-1.36119e-07
46.7574
-1.43659e-07
46.7596
-1.51684e-07
46.7619
-1.60469e-07
46.7643
-1.67769e-07
46.7669
-1.78642e-07
46.7696
-1.83626e-07
46.7725
-1.89472e-07
46.7755
-1.79502e-07
46.7787
-9.48539e-08
46.782
3.45056e-07
46.7855
2.48494e-06
46.7891
1.28577e-05
46.7929
6.29612e-05
46.7973
0.000305283
46.8038
0.00148109
46.8203
0.00724488
46.8848
0.0363243
47.1738
0.187018
48.2548
1.27916
4.13008
52.16
10.6119
-0.00046026
10.6135
-0.000329433
10.6152
-0.000314956
10.6168
-0.000318723
10.6185
-0.000319227
10.6201
-0.000319055
10.6217
-0.000319125
10.6232
-0.000319137
10.6247
-0.000319333
10.6261
-0.000319295
10.6275
-0.000319323
10.6288
-0.000319346
10.6301
-0.000319362
10.6313
-0.00031938
10.6324
-0.000319395
10.6334
-0.000319414
10.6344
-0.000319438
10.6353
-0.000319443
10.6361
-0.00031938
10.6369
-0.000319672
10.6376
-0.000319596
10.6381
-0.000319542
10.6386
-0.00031992
10.6389
-0.000319606
10.6392
-0.000319639
10.6393
-0.000320073
10.6394
-0.000319761
10.6393
-0.000319934
10.6392
-0.000319919
10.6389
-0.000319974
10.6385
-0.000320004
10.6381
-0.000320024
10.6375
-0.000320035
10.6368
-0.000320034
10.636
-0.000320016
10.6352
-0.000319971
10.6342
-0.00031989
10.6331
-0.000319754
10.632
-0.000319538
10.6309
-0.000319208
10.6296
-0.00031872
10.6283
-0.000318012
10.627
-0.000317011
10.6256
-0.000315628
10.6242
-0.000313757
10.6228
-0.000311282
10.6213
-0.000308078
10.6198
-0.000304014
10.6183
-0.000298965
10.6168
-0.000292816
10.6153
-0.000285471
10.6138
-0.000276866
10.6124
-0.000266971
10.6109
-0.000255799
10.6095
-0.000243411
10.6081
-0.000229914
10.6068
-0.000215461
10.6054
-0.000200245
10.6042
-0.000184489