/*--------------------------------*- C++ -*----------------------------------*\
| =========                 |                                                 |
| \\      /  F ield         | OpenFOAM: The Open Source CFD Toolbox           |
|  \\    /   O peration     | Version:  3.0.x                                 |
|   \\  /    A nd           | Web:      www.OpenFOAM.org                      |
|    \\/     M anipulation  |                                                 |
\*---------------------------------------------------------------------------*/
FoamFile
{
    version     2.0;
    format      ascii;
    class       volScalarField;
    location    "0.589925";
    object      rho;
}
// * * * * * * * * * * * * * * * * * * * * * * * * * * * * * * * * * * * * * //

dimensions      [1 -3 0 0 0 0 0];

internalField   nonuniform List<scalar> 
13800
(
56.0814
56.0875
56.0973
56.1071
56.1161
56.1244
56.1326
56.1402
56.1472
56.1534
56.1592
56.1644
56.1689
56.1726
56.1757
56.1784
56.1807
56.1826
56.184
56.1849
56.1855
56.1857
56.1858
56.1857
56.1854
56.1848
56.1842
56.1833
56.1823
56.1811
56.1797
56.1782
56.1765
56.1747
56.1727
56.1705
56.1682
56.1658
56.1632
56.1604
56.1575
56.1545
56.1513
56.148
56.1446
56.141
56.1374
56.1335
56.1296
56.1256
56.1214
56.1171
56.1127
56.1082
56.1036
56.0989
56.0941
56.0892
56.0842
56.0791
56.0739
56.0687
56.0634
56.0579
56.0524
56.0468
56.0412
56.0354
56.0296
56.0237
56.0178
56.0118
56.0059
55.9998
55.9937
55.9876
55.9814
55.9752
55.9689
55.9625
55.9561
55.9496
55.9431
55.9366
55.9301
55.9235
55.9169
55.9102
55.9036
55.8969
55.8903
55.8836
55.8769
55.8702
55.8635
55.8568
55.8501
55.8433
55.8365
55.8297
55.8229
55.816
55.8092
55.8023
55.7955
55.7886
55.7818
55.775
55.7682
55.7614
55.7547
55.7479
55.7411
55.7343
55.7275
55.7208
55.714
55.7073
55.7005
55.6938
55.6871
55.6804
55.6737
55.667
55.6603
55.6537
55.647
55.6404
55.6338
55.6273
55.6207
55.6142
55.6077
55.6012
55.5948
55.5883
55.5819
55.5756
55.5692
55.5629
55.5566
55.5503
55.5441
55.5379
55.5317
55.5256
55.5195
55.5134
55.5074
55.5014
55.4955
55.4896
55.4837
55.4779
55.4721
55.4663
55.4606
55.455
55.4494
55.4438
55.4383
55.4329
55.4275
55.4221
55.4168
55.4116
55.4064
55.4013
55.3962
55.3912
55.3863
55.3814
55.3766
55.3718
55.3671
55.3624
55.3579
55.3533
55.349
55.3445
55.3404
55.3358
55.332
55.3275
55.3239
55.3194
55.316
55.3116
55.3084
55.304
55.301
55.2968
55.2939
55.2898
55.287
55.2831
55.2802
55.2772
55.2729
55.2709
56.0826
56.0888
56.0986
56.1083
56.1173
56.1257
56.1338
56.1415
56.1484
56.1546
56.1604
56.1656
56.1701
56.1738
56.1769
56.1796
56.1819
56.1838
56.1851
56.1861
56.1866
56.1869
56.187
56.1868
56.1865
56.186
56.1853
56.1844
56.1834
56.1822
56.1808
56.1793
56.1776
56.1758
56.1738
56.1716
56.1693
56.1669
56.1643
56.1615
56.1586
56.1556
56.1524
56.1491
56.1457
56.1421
56.1384
56.1346
56.1307
56.1266
56.1224
56.1181
56.1138
56.1092
56.1046
56.0999
56.0951
56.0902
56.0852
56.0801
56.0749
56.0697
56.0643
56.0589
56.0534
56.0478
56.0422
56.0364
56.0306
56.0247
56.0188
56.0128
56.0068
56.0007
55.9947
55.9885
55.9823
55.9761
55.9698
55.9634
55.957
55.9505
55.944
55.9375
55.9309
55.9244
55.9178
55.9111
55.9044
55.8978
55.8911
55.8844
55.8777
55.871
55.8643
55.8576
55.8509
55.8441
55.8373
55.8305
55.8237
55.8168
55.81
55.8031
55.7962
55.7894
55.7826
55.7758
55.769
55.7622
55.7554
55.7486
55.7418
55.735
55.7283
55.7215
55.7147
55.708
55.7012
55.6945
55.6878
55.681
55.6743
55.6677
55.661
55.6544
55.6477
55.6411
55.6345
55.628
55.6214
55.6149
55.6084
55.6019
55.5955
55.589
55.5826
55.5762
55.5699
55.5636
55.5573
55.551
55.5448
55.5386
55.5324
55.5263
55.5202
55.5141
55.5081
55.5021
55.4962
55.4902
55.4844
55.4785
55.4728
55.467
55.4613
55.4557
55.4501
55.4445
55.439
55.4336
55.4282
55.4228
55.4175
55.4123
55.4071
55.402
55.3969
55.3919
55.3869
55.3821
55.3772
55.3725
55.3678
55.3631
55.3586
55.354
55.3497
55.3451
55.341
55.3365
55.3326
55.3282
55.3245
55.3201
55.3167
55.3123
55.309
55.3047
55.3016
55.2975
55.2945
55.2905
55.2876
55.2837
55.281
55.2772
55.2745
55.2708
56.0826
56.0888
56.0986
56.1083
56.1173
56.1257
56.1338
56.1415
56.1484
56.1546
56.1604
56.1656
56.1701
56.1738
56.1769
56.1796
56.1819
56.1838
56.1851
56.1861
56.1866
56.1869
56.187
56.1868
56.1865
56.186
56.1853
56.1844
56.1834
56.1822
56.1808
56.1793
56.1776
56.1758
56.1738
56.1716
56.1693
56.1669
56.1643
56.1615
56.1586
56.1556
56.1524
56.1491
56.1457
56.1421
56.1384
56.1346
56.1307
56.1266
56.1224
56.1182
56.1138
56.1092
56.1046
56.0999
56.0951
56.0902
56.0852
56.0801
56.0749
56.0697
56.0644
56.0589
56.0534
56.0478
56.0422
56.0364
56.0306
56.0247
56.0188
56.0128
56.0068
56.0007
55.9947
55.9885
55.9823
55.9761
55.9698
55.9634
55.957
55.9505
55.944
55.9375
55.9309
55.9244
55.9178
55.9111
55.9045
55.8978
55.8911
55.8844
55.8777
55.871
55.8643
55.8576
55.8509
55.8441
55.8373
55.8305
55.8237
55.8168
55.81
55.8031
55.7962
55.7894
55.7826
55.7758
55.769
55.7622
55.7554
55.7486
55.7418
55.7351
55.7283
55.7215
55.7147
55.708
55.7012
55.6945
55.6878
55.681
55.6744
55.6677
55.661
55.6544
55.6477
55.6411
55.6345
55.628
55.6214
55.6149
55.6084
55.6019
55.5955
55.589
55.5826
55.5762
55.5699
55.5636
55.5573
55.551
55.5448
55.5386
55.5324
55.5263
55.5202
55.5141
55.5081
55.5021
55.4962
55.4902
55.4844
55.4785
55.4728
55.467
55.4613
55.4557
55.4501
55.4445
55.439
55.4336
55.4282
55.4228
55.4175
55.4123
55.4071
55.402
55.3969
55.3919
55.3869
55.3821
55.3772
55.3725
55.3678
55.3631
55.3586
55.354
55.3497
55.3451
55.341
55.3365
55.3326
55.3282
55.3245
55.3201
55.3167
55.3123
55.309
55.3047
55.3017
55.2975
55.2945
55.2905
55.2876
55.2837
55.281
55.2772
55.2746
55.271
56.0826
56.0888
56.0986
56.1083
56.1173
56.1257
56.1338
56.1415
56.1484
56.1546
56.1604
56.1656
56.17
56.1738
56.1769
56.1796
56.1819
56.1838
56.1851
56.1861
56.1866
56.1869
56.187
56.1868
56.1865
56.186
56.1853
56.1844
56.1834
56.1822
56.1808
56.1793
56.1776
56.1758
56.1738
56.1716
56.1693
56.1669
56.1642
56.1615
56.1586
56.1556
56.1524
56.1491
56.1457
56.1421
56.1384
56.1346
56.1307
56.1266
56.1224
56.1181
56.1137
56.1092
56.1046
56.0999
56.0951
56.0902
56.0852
56.0801
56.0749
56.0697
56.0643
56.0589
56.0534
56.0478
56.0422
56.0364
56.0306
56.0247
56.0188
56.0128
56.0068
56.0007
55.9947
55.9885
55.9823
55.9761
55.9698
55.9634
55.957
55.9505
55.944
55.9375
55.9309
55.9244
55.9178
55.9111
55.9044
55.8978
55.8911
55.8844
55.8777
55.871
55.8643
55.8576
55.8509
55.8441
55.8373
55.8305
55.8237
55.8168
55.81
55.8031
55.7962
55.7894
55.7826
55.7758
55.769
55.7622
55.7554
55.7486
55.7418
55.7351
55.7283
55.7215
55.7147
55.708
55.7012
55.6945
55.6878
55.681
55.6744
55.6677
55.661
55.6544
55.6477
55.6411
55.6345
55.628
55.6214
55.6149
55.6084
55.6019
55.5955
55.589
55.5826
55.5762
55.5699
55.5636
55.5573
55.551
55.5448
55.5386
55.5324
55.5263
55.5202
55.5141
55.5081
55.5021
55.4962
55.4902
55.4844
55.4785
55.4728
55.467
55.4613
55.4557
55.4501
55.4445
55.439
55.4336
55.4282
55.4228
55.4175
55.4123
55.4071
55.402
55.3969
55.3919
55.3869
55.3821
55.3772
55.3725
55.3678
55.3631
55.3586
55.354
55.3497
55.3451
55.341
55.3365
55.3326
55.3282
55.3245
55.3201
55.3167
55.3123
55.309
55.3047
55.3017
55.2975
55.2945
55.2905
55.2876
55.2837
55.281
55.2772
55.2746
55.2713
56.0826
56.0887
56.0986
56.1083
56.1173
56.1257
56.1338
56.1415
56.1484
56.1546
56.1604
56.1656
56.17
56.1738
56.1769
56.1796
56.1819
56.1838
56.1851
56.1861
56.1866
56.1869
56.187
56.1868
56.1865
56.186
56.1853
56.1844
56.1834
56.1822
56.1808
56.1793
56.1776
56.1758
56.1738
56.1716
56.1693
56.1668
56.1642
56.1615
56.1586
56.1556
56.1524
56.1491
56.1457
56.1421
56.1384
56.1346
56.1307
56.1266
56.1224
56.1181
56.1137
56.1092
56.1046
56.0999
56.0951
56.0902
56.0852
56.0801
56.0749
56.0697
56.0643
56.0589
56.0534
56.0478
56.0421
56.0364
56.0306
56.0247
56.0188
56.0128
56.0068
56.0007
55.9946
55.9885
55.9823
55.9761
55.9698
55.9634
55.957
55.9505
55.944
55.9375
55.9309
55.9244
55.9178
55.9111
55.9044
55.8978
55.8911
55.8844
55.8777
55.871
55.8643
55.8576
55.8509
55.8441
55.8373
55.8305
55.8237
55.8168
55.81
55.8031
55.7962
55.7894
55.7826
55.7758
55.769
55.7622
55.7554
55.7486
55.7418
55.7351
55.7283
55.7215
55.7147
55.708
55.7012
55.6945
55.6878
55.681
55.6744
55.6677
55.661
55.6544
55.6477
55.6411
55.6345
55.628
55.6214
55.6149
55.6084
55.6019
55.5955
55.589
55.5826
55.5762
55.5699
55.5636
55.5573
55.551
55.5448
55.5386
55.5324
55.5263
55.5202
55.5141
55.5081
55.5021
55.4962
55.4902
55.4844
55.4785
55.4728
55.467
55.4613
55.4557
55.4501
55.4445
55.439
55.4336
55.4282
55.4228
55.4175
55.4123
55.4071
55.402
55.3969
55.3919
55.3869
55.3821
55.3772
55.3725
55.3678
55.3631
55.3586
55.354
55.3497
55.3451
55.341
55.3365
55.3326
55.3282
55.3245
55.3201
55.3167
55.3123
55.309
55.3047
55.3017
55.2975
55.2945
55.2905
55.2876
55.2837
55.281
55.2772
55.2746
55.2709
56.0826
56.0887
56.0986
56.1083
56.1173
56.1257
56.1338
56.1415
56.1484
56.1546
56.1604
56.1656
56.17
56.1738
56.1769
56.1796
56.1819
56.1838
56.1851
56.1861
56.1866
56.1869
56.187
56.1868
56.1865
56.186
56.1853
56.1844
56.1834
56.1822
56.1808
56.1793
56.1776
56.1758
56.1738
56.1716
56.1693
56.1668
56.1642
56.1615
56.1586
56.1556
56.1524
56.1491
56.1457
56.1421
56.1384
56.1346
56.1307
56.1266
56.1224
56.1181
56.1137
56.1092
56.1046
56.0999
56.0951
56.0902
56.0852
56.0801
56.0749
56.0697
56.0643
56.0589
56.0534
56.0478
56.0421
56.0364
56.0306
56.0247
56.0188
56.0128
56.0068
56.0007
55.9946
55.9885
55.9823
55.9761
55.9698
55.9634
55.957
55.9505
55.944
55.9375
55.9309
55.9244
55.9178
55.9111
55.9044
55.8978
55.8911
55.8844
55.8777
55.871
55.8643
55.8576
55.8509
55.8441
55.8373
55.8305
55.8237
55.8168
55.81
55.8031
55.7962
55.7894
55.7826
55.7758
55.769
55.7622
55.7554
55.7486
55.7418
55.7351
55.7283
55.7215
55.7147
55.708
55.7012
55.6945
55.6878
55.681
55.6744
55.6677
55.661
55.6544
55.6477
55.6411
55.6345
55.628
55.6214
55.6149
55.6084
55.6019
55.5955
55.589
55.5826
55.5762
55.5699
55.5636
55.5573
55.551
55.5448
55.5386
55.5324
55.5263
55.5202
55.5141
55.5081
55.5021
55.4962
55.4902
55.4844
55.4785
55.4728
55.467
55.4613
55.4557
55.4501
55.4445
55.439
55.4336
55.4282
55.4228
55.4175
55.4123
55.4071
55.402
55.3969
55.3919
55.3869
55.3821
55.3772
55.3725
55.3678
55.3631
55.3586
55.354
55.3496
55.3452
55.3409
55.3366
55.3325
55.3284
55.3242
55.3205
55.3161
55.3128
55.3085
55.3052
55.3013
55.2978
55.2944
55.2905
55.2876
55.2839
55.2807
55.2776
55.2744
55.2713
56.0826
56.0888
56.0986
56.1083
56.1173
56.1257
56.1338
56.1415
56.1484
56.1546
56.1604
56.1656
56.17
56.1738
56.1769
56.1796
56.1819
56.1838
56.1851
56.1861
56.1866
56.1869
56.187
56.1868
56.1865
56.186
56.1853
56.1844
56.1834
56.1822
56.1808
56.1793
56.1776
56.1758
56.1738
56.1716
56.1693
56.1669
56.1642
56.1615
56.1586
56.1556
56.1524
56.1491
56.1457
56.1421
56.1384
56.1346
56.1307
56.1266
56.1224
56.1181
56.1137
56.1092
56.1046
56.0999
56.0951
56.0902
56.0852
56.0801
56.0749
56.0697
56.0643
56.0589
56.0534
56.0478
56.0422
56.0364
56.0306
56.0247
56.0188
56.0128
56.0068
56.0007
55.9947
55.9885
55.9823
55.9761
55.9698
55.9634
55.957
55.9505
55.944
55.9375
55.9309
55.9244
55.9178
55.9111
55.9044
55.8978
55.8911
55.8844
55.8777
55.871
55.8643
55.8576
55.8509
55.8441
55.8373
55.8305
55.8237
55.8168
55.81
55.8031
55.7962
55.7894
55.7826
55.7758
55.769
55.7622
55.7554
55.7486
55.7418
55.7351
55.7283
55.7215
55.7147
55.708
55.7012
55.6945
55.6878
55.681
55.6744
55.6677
55.661
55.6544
55.6477
55.6411
55.6345
55.628
55.6214
55.6149
55.6084
55.6019
55.5955
55.589
55.5826
55.5762
55.5699
55.5636
55.5573
55.551
55.5448
55.5386
55.5324
55.5263
55.5202
55.5141
55.5081
55.5021
55.4962
55.4902
55.4844
55.4785
55.4728
55.467
55.4613
55.4557
55.4501
55.4445
55.439
55.4336
55.4282
55.4228
55.4175
55.4123
55.4071
55.402
55.3969
55.3919
55.3869
55.3821
55.3772
55.3725
55.3678
55.3632
55.3585
55.3541
55.3495
55.3453
55.3408
55.3368
55.3323
55.3286
55.3241
55.3206
55.3162
55.3128
55.3085
55.3053
55.3011
55.2981
55.2939
55.291
55.2871
55.2843
55.2804
55.2778
55.2743
55.2712
56.0826
56.0888
56.0986
56.1083
56.1173
56.1257
56.1338
56.1415
56.1484
56.1546
56.1604
56.1656
56.1701
56.1738
56.1769
56.1796
56.1819
56.1838
56.1851
56.1861
56.1866
56.1869
56.187
56.1868
56.1865
56.186
56.1853
56.1844
56.1834
56.1822
56.1808
56.1793
56.1776
56.1758
56.1738
56.1716
56.1693
56.1669
56.1643
56.1615
56.1586
56.1556
56.1524
56.1491
56.1457
56.1421
56.1384
56.1346
56.1307
56.1266
56.1224
56.1182
56.1138
56.1092
56.1046
56.0999
56.0951
56.0902
56.0852
56.0801
56.0749
56.0697
56.0644
56.0589
56.0534
56.0478
56.0422
56.0364
56.0306
56.0247
56.0188
56.0128
56.0068
56.0007
55.9947
55.9885
55.9823
55.9761
55.9698
55.9634
55.957
55.9505
55.944
55.9375
55.9309
55.9244
55.9178
55.9111
55.9045
55.8978
55.8911
55.8844
55.8777
55.871
55.8643
55.8576
55.8509
55.8441
55.8373
55.8305
55.8237
55.8168
55.81
55.8031
55.7962
55.7894
55.7826
55.7758
55.769
55.7622
55.7554
55.7486
55.7418
55.7351
55.7283
55.7215
55.7147
55.708
55.7012
55.6945
55.6878
55.681
55.6744
55.6677
55.661
55.6544
55.6477
55.6411
55.6345
55.628
55.6214
55.6149
55.6084
55.6019
55.5955
55.589
55.5826
55.5762
55.5699
55.5636
55.5573
55.551
55.5448
55.5386
55.5324
55.5263
55.5202
55.5141
55.5081
55.5021
55.4962
55.4902
55.4844
55.4785
55.4728
55.467
55.4613
55.4557
55.4501
55.4445
55.439
55.4336
55.4282
55.4228
55.4175
55.4123
55.4071
55.402
55.3969
55.3919
55.3869
55.3821
55.3772
55.3725
55.3677
55.3632
55.3585
55.3541
55.3495
55.3454
55.3408
55.3368
55.3323
55.3286
55.3241
55.3206
55.3161
55.3128
55.3085
55.3053
55.3011
55.2981
55.2939
55.291
55.2871
55.2843
55.2804
55.2778
55.2739
55.2711
56.0826
56.0888
56.0986
56.1083
56.1173
56.1257
56.1338
56.1415
56.1484
56.1546
56.1604
56.1656
56.1701
56.1738
56.1769
56.1796
56.1819
56.1838
56.1851
56.1861
56.1866
56.1869
56.187
56.1868
56.1865
56.186
56.1853
56.1844
56.1834
56.1822
56.1808
56.1793
56.1776
56.1758
56.1738
56.1716
56.1693
56.1669
56.1643
56.1615
56.1586
56.1556
56.1524
56.1491
56.1457
56.1421
56.1384
56.1346
56.1307
56.1266
56.1224
56.1181
56.1138
56.1092
56.1046
56.0999
56.0951
56.0902
56.0852
56.0801
56.0749
56.0697
56.0643
56.0589
56.0534
56.0478
56.0422
56.0364
56.0306
56.0247
56.0188
56.0128
56.0068
56.0007
55.9947
55.9885
55.9823
55.9761
55.9698
55.9634
55.957
55.9505
55.944
55.9375
55.9309
55.9244
55.9178
55.9111
55.9044
55.8978
55.8911
55.8844
55.8777
55.871
55.8643
55.8576
55.8509
55.8441
55.8373
55.8305
55.8237
55.8168
55.81
55.8031
55.7962
55.7894
55.7826
55.7758
55.769
55.7622
55.7554
55.7486
55.7418
55.735
55.7283
55.7215
55.7147
55.708
55.7012
55.6945
55.6878
55.681
55.6743
55.6677
55.661
55.6544
55.6477
55.6411
55.6345
55.628
55.6214
55.6149
55.6084
55.6019
55.5955
55.589
55.5826
55.5762
55.5699
55.5636
55.5573
55.551
55.5448
55.5386
55.5324
55.5263
55.5202
55.5141
55.5081
55.5021
55.4962
55.4902
55.4844
55.4785
55.4728
55.467
55.4613
55.4557
55.4501
55.4445
55.439
55.4336
55.4282
55.4228
55.4175
55.4123
55.4071
55.402
55.3969
55.3919
55.3869
55.3821
55.3772
55.3725
55.3677
55.3632
55.3585
55.3541
55.3495
55.3454
55.3407
55.3368
55.3323
55.3286
55.3241
55.3206
55.3161
55.3128
55.3084
55.3053
55.3011
55.2981
55.2939
55.291
55.2871
55.2843
55.2804
55.2778
55.2737
55.2707
56.0814
56.0875
56.0973
56.1071
56.1161
56.1244
56.1326
56.1402
56.1472
56.1534
56.1592
56.1644
56.1689
56.1726
56.1757
56.1784
56.1807
56.1826
56.184
56.1849
56.1855
56.1857
56.1858
56.1857
56.1854
56.1848
56.1842
56.1833
56.1823
56.1811
56.1797
56.1782
56.1765
56.1747
56.1727
56.1705
56.1682
56.1658
56.1632
56.1604
56.1575
56.1545
56.1513
56.148
56.1446
56.141
56.1374
56.1335
56.1296
56.1256
56.1214
56.1171
56.1127
56.1082
56.1036
56.0989
56.0941
56.0892
56.0842
56.0791
56.0739
56.0687
56.0634
56.0579
56.0524
56.0468
56.0412
56.0354
56.0296
56.0237
56.0178
56.0118
56.0059
55.9998
55.9937
55.9876
55.9814
55.9752
55.9689
55.9625
55.9561
55.9496
55.9431
55.9366
55.9301
55.9235
55.9169
55.9102
55.9036
55.8969
55.8903
55.8836
55.8769
55.8702
55.8635
55.8568
55.8501
55.8433
55.8365
55.8297
55.8229
55.816
55.8092
55.8023
55.7955
55.7886
55.7818
55.775
55.7682
55.7614
55.7547
55.7479
55.7411
55.7343
55.7275
55.7208
55.714
55.7073
55.7005
55.6938
55.6871
55.6804
55.6737
55.667
55.6603
55.6537
55.647
55.6404
55.6338
55.6273
55.6207
55.6142
55.6077
55.6012
55.5948
55.5883
55.5819
55.5756
55.5692
55.5629
55.5566
55.5503
55.5441
55.5379
55.5317
55.5256
55.5195
55.5134
55.5074
55.5014
55.4955
55.4896
55.4837
55.4779
55.4721
55.4663
55.4606
55.455
55.4494
55.4438
55.4383
55.4329
55.4275
55.4221
55.4168
55.4116
55.4064
55.4013
55.3962
55.3912
55.3863
55.3814
55.3766
55.3718
55.3671
55.3625
55.3578
55.3534
55.3488
55.3447
55.3401
55.3362
55.3316
55.3279
55.3234
55.3199
55.3154
55.3122
55.3077
55.3047
55.3004
55.2974
55.2932
55.2904
55.2864
55.2837
55.2797
55.2772
55.2727
55.27
55.2694
55.2685
55.2676
55.2667
55.2655
55.2642
55.2628
55.2616
55.2608
55.2601
55.2595
55.2589
55.2583
55.2578
55.2572
55.2566
55.2559
55.2552
55.2544
55.2538
55.269
55.2682
55.2675
55.2667
55.266
55.2652
55.2643
55.2634
55.2625
55.2616
55.2608
55.26
55.2593
55.2586
55.258
55.2575
55.2569
55.2562
55.2556
55.2549
55.2687
55.268
55.2673
55.2666
55.2659
55.2652
55.2644
55.2637
55.2628
55.262
55.2611
55.2604
55.2596
55.2589
55.2582
55.2576
55.2569
55.2563
55.2558
55.255
55.2692
55.2686
55.2678
55.2672
55.2664
55.2658
55.2651
55.2645
55.2638
55.2632
55.2624
55.2617
55.2607
55.2598
55.2587
55.2579
55.2569
55.2562
55.2554
55.2545
55.269
55.2685
55.2678
55.2674
55.2668
55.2662
55.2657
55.2651
55.2646
55.2641
55.2636
55.263
55.2625
55.262
55.2614
55.2608
55.2601
55.2594
55.2586
55.258
55.2692
55.2686
55.268
55.2675
55.267
55.2664
55.2658
55.2653
55.2647
55.2641
55.2634
55.2628
55.2621
55.2613
55.2604
55.2594
55.2583
55.2573
55.2563
55.2556
55.2692
55.2687
55.2682
55.2677
55.2671
55.2666
55.2661
55.2657
55.2652
55.2647
55.2642
55.2637
55.2633
55.2629
55.2624
55.2621
55.2617
55.2614
55.261
55.2606
55.2692
55.2687
55.2681
55.2675
55.267
55.2664
55.2658
55.2653
55.2648
55.2643
55.2638
55.2634
55.263
55.2627
55.2626
55.2626
55.2627
55.2629
55.263
55.2625
55.2688
55.2683
55.2678
55.2673
55.2668
55.2664
55.2659
55.2655
55.2651
55.2647
55.2643
55.2641
55.264
55.2639
55.2639
55.264
55.2641
55.2643
55.264
55.2632
55.2682
55.2677
55.2673
55.2668
55.2664
55.266
55.2656
55.2653
55.265
55.2648
55.2646
55.2644
55.2643
55.2642
55.2642
55.2643
55.2644
55.2646
55.264
55.2627
55.2523
55.2495
55.2471
55.2453
55.2434
55.2412
55.2389
55.2367
55.2349
55.2332
55.2315
55.2295
55.2275
55.2255
55.2236
55.2219
55.2202
55.2186
55.2169
55.2153
55.2137
55.2121
55.2105
55.209
55.2075
55.206
55.2045
55.2031
55.2017
55.2004
55.1991
55.1978
55.1965
55.1953
55.1941
55.1929
55.1917
55.1906
55.1895
55.1884
55.1874
55.1864
55.1855
55.1845
55.1836
55.1827
55.1818
55.181
55.1802
55.1794
55.1786
55.1778
55.1771
55.1764
55.1757
55.175
55.1744
55.1738
55.1732
55.1726
55.1721
55.1716
55.171
55.1705
55.17
55.1696
55.1691
55.1687
55.1683
55.1679
55.1676
55.1672
55.1668
55.1665
55.1662
55.1659
55.1656
55.1654
55.1651
55.1648
55.1646
55.1643
55.1641
55.1639
55.1637
55.1635
55.1633
55.1632
55.163
55.1629
55.1628
55.1627
55.1626
55.1625
55.1625
55.1624
55.1623
55.1622
55.1622
55.1621
55.1621
55.1621
55.1621
55.1621
55.162
55.162
55.162
55.1621
55.1622
55.1623
55.1623
55.1623
55.1623
55.1625
55.1627
55.1631
55.1635
55.1641
55.1645
55.1647
55.1646
55.1646
55.1653
55.1668
55.1687
55.17
55.1698
55.1644
55.1436
55.1103
55.0771
55.0459
55.0186
54.9962
54.9797
54.9702
54.9673
54.9671
54.9694
54.9822
55.0204
55.0635
55.1
55.1279
55.1472
55.1597
55.1677
55.173
55.1761
55.1771
55.1764
55.1747
55.1737
55.173
55.1727
55.1725
55.1724
55.1724
55.1725
55.1726
55.1728
55.1729
55.1731
55.1733
55.1735
55.1737
55.1739
55.1742
55.1744
55.1746
55.1748
55.1751
55.1753
55.1756
55.1757
55.1761
55.1761
55.1766
55.1765
55.1771
55.1769
55.1776
55.1773
55.178
55.1777
55.1784
55.1781
55.1788
55.1785
55.1791
55.1788
55.1795
55.1791
55.1798
55.1794
55.1801
55.1797
55.1804
55.1797
55.1801
55.2536
55.2513
55.2486
55.2463
55.2445
55.2425
55.2403
55.2381
55.2362
55.2345
55.2328
55.2311
55.2292
55.2273
55.2254
55.2236
55.2219
55.2203
55.2187
55.2171
55.2155
55.2139
55.2124
55.2109
55.2094
55.2079
55.2065
55.205
55.2037
55.2023
55.201
55.1997
55.1985
55.1972
55.196
55.1949
55.1937
55.1926
55.1915
55.1904
55.1893
55.1884
55.1874
55.1865
55.1856
55.1847
55.1838
55.1829
55.1821
55.1813
55.1806
55.1798
55.1791
55.1784
55.1777
55.177
55.1764
55.1757
55.1752
55.1746
55.1741
55.1735
55.173
55.1726
55.1721
55.1716
55.1712
55.1707
55.1703
55.1699
55.1696
55.1692
55.1689
55.1685
55.1682
55.1679
55.1676
55.1674
55.1671
55.1669
55.1666
55.1664
55.1662
55.1659
55.1657
55.1655
55.1654
55.1652
55.1651
55.1649
55.1648
55.1647
55.1646
55.1645
55.1645
55.1644
55.1644
55.1643
55.1642
55.1642
55.1641
55.1641
55.1641
55.1641
55.1641
55.1641
55.1641
55.1641
55.1641
55.1641
55.1642
55.1642
55.1642
55.1644
55.1645
55.1647
55.165
55.1653
55.1655
55.1656
55.1655
55.1655
55.1656
55.1663
55.1676
55.1695
55.1714
55.1732
55.1752
55.1777
55.1804
55.1829
55.1843
55.1841
55.1811
55.1745
55.1675
55.1605
55.154
55.1481
55.1452
55.1447
55.1453
55.1479
55.1528
55.158
55.1627
55.1669
55.1701
55.1721
55.1728
55.1729
55.1728
55.1728
55.1728
55.1728
55.1729
55.173
55.1731
55.1732
55.1734
55.1735
55.1737
55.1739
55.1741
55.1743
55.1745
55.1747
55.175
55.1752
55.1754
55.1757
55.1759
55.1761
55.1763
55.1767
55.1767
55.1772
55.1771
55.1776
55.1775
55.1781
55.178
55.1785
55.1783
55.1789
55.1787
55.1793
55.1791
55.1797
55.1795
55.18
55.1798
55.1803
55.1801
55.1806
55.1803
55.1808
55.1805
55.1807
55.2537
55.2513
55.2486
55.2463
55.2444
55.2423
55.2401
55.2379
55.236
55.2343
55.2326
55.2308
55.2289
55.2269
55.2251
55.2233
55.2217
55.2201
55.2184
55.2168
55.2152
55.2136
55.2121
55.2106
55.2091
55.2076
55.2061
55.2047
55.2033
55.202
55.2007
55.1994
55.1981
55.1969
55.1957
55.1945
55.1934
55.1922
55.1911
55.1901
55.189
55.188
55.1871
55.1861
55.1852
55.1843
55.1835
55.1826
55.1818
55.181
55.1802
55.1795
55.1788
55.1781
55.1774
55.1767
55.1761
55.1754
55.1748
55.1743
55.1737
55.1732
55.1727
55.1722
55.1717
55.1713
55.1708
55.1704
55.17
55.1696
55.1693
55.1689
55.1685
55.1682
55.1679
55.1676
55.1673
55.167
55.1668
55.1665
55.1663
55.1661
55.1658
55.1656
55.1654
55.1652
55.1651
55.1649
55.1648
55.1646
55.1645
55.1644
55.1643
55.1643
55.1642
55.1641
55.1641
55.164
55.164
55.1639
55.1639
55.1639
55.1638
55.1638
55.1638
55.1638
55.1638
55.1638
55.1638
55.1638
55.1639
55.1639
55.164
55.164
55.1641
55.1643
55.1646
55.1649
55.1652
55.1653
55.1652
55.1649
55.1647
55.1653
55.167
55.1694
55.1725
55.1759
55.1793
55.1825
55.1853
55.1878
55.1898
55.1909
55.1906
55.1883
55.1839
55.1793
55.1747
55.1703
55.1665
55.1635
55.1616
55.1612
55.1616
55.1628
55.1648
55.1668
55.1686
55.1699
55.1709
55.1716
55.172
55.1723
55.1725
55.1727
55.1728
55.1729
55.173
55.1732
55.1733
55.1735
55.1737
55.1739
55.1741
55.1743
55.1745
55.1747
55.175
55.1752
55.1754
55.1757
55.1759
55.1761
55.1763
55.1767
55.1767
55.1772
55.1771
55.1776
55.1775
55.1781
55.178
55.1785
55.1783
55.1789
55.1787
55.1793
55.1791
55.1797
55.1795
55.18
55.1798
55.1803
55.1801
55.1806
55.1803
55.1808
55.1806
55.1809
55.2532
55.2507
55.2477
55.2448
55.2424
55.2401
55.2378
55.2353
55.233
55.2308
55.2287
55.2268
55.2249
55.2229
55.2209
55.219
55.2171
55.2154
55.2137
55.2121
55.2105
55.2089
55.2073
55.2057
55.2042
55.2027
55.2013
55.1999
55.1985
55.1971
55.1958
55.1945
55.1933
55.192
55.1908
55.1896
55.1885
55.1874
55.1863
55.1852
55.1842
55.1832
55.1822
55.1813
55.1803
55.1794
55.1786
55.1778
55.177
55.1762
55.1754
55.1746
55.1739
55.1732
55.1725
55.1718
55.1712
55.1706
55.17
55.1694
55.1689
55.1683
55.1678
55.1673
55.1669
55.1664
55.166
55.1656
55.1651
55.1647
55.1644
55.164
55.1637
55.1634
55.1631
55.1628
55.1625
55.1622
55.1619
55.1616
55.1614
55.1611
55.1609
55.1607
55.1605
55.1603
55.1602
55.16
55.1599
55.1598
55.1597
55.1596
55.1595
55.1594
55.1593
55.1593
55.1592
55.1592
55.1591
55.1591
55.159
55.159
55.159
55.159
55.1591
55.1591
55.1592
55.1592
55.1592
55.1593
55.1594
55.1596
55.1599
55.1602
55.1605
55.1609
55.1612
55.1612
55.1612
55.1613
55.1615
55.162
55.1633
55.1651
55.1672
55.1691
55.1709
55.1725
55.1743
55.1759
55.1771
55.1778
55.1777
55.1769
55.1757
55.1741
55.1726
55.171
55.1696
55.1685
55.1677
55.1673
55.1673
55.1675
55.168
55.1686
55.1692
55.1698
55.1703
55.1708
55.1712
55.1714
55.1717
55.1719
55.1721
55.1722
55.1724
55.1726
55.1728
55.173
55.1732
55.1734
55.1736
55.1738
55.174
55.1742
55.1745
55.1747
55.1749
55.1752
55.1754
55.1756
55.1759
55.1761
55.1763
55.1766
55.1767
55.1771
55.1771
55.1776
55.1776
55.178
55.178
55.1785
55.1783
55.1789
55.1787
55.1793
55.1791
55.1797
55.1795
55.18
55.1798
55.1803
55.1801
55.1806
55.1803
55.1808
55.1808
55.1809
55.2564
55.2538
55.2511
55.2485
55.2461
55.2437
55.2415
55.2395
55.2377
55.2359
55.2342
55.2324
55.2304
55.2285
55.2267
55.2249
55.2231
55.2214
55.2197
55.2181
55.2164
55.2148
55.2133
55.2118
55.2103
55.2088
55.2074
55.206
55.2047
55.2033
55.202
55.2007
55.1995
55.1982
55.197
55.1959
55.1947
55.1936
55.1926
55.1915
55.1905
55.1894
55.1884
55.1875
55.1866
55.1857
55.1848
55.1839
55.1831
55.1823
55.1816
55.1808
55.1801
55.1794
55.1787
55.1781
55.1774
55.1768
55.1762
55.1756
55.1751
55.1745
55.174
55.1735
55.1731
55.1726
55.1722
55.1718
55.1713
55.1709
55.1706
55.1702
55.1698
55.1695
55.1692
55.1689
55.1686
55.1683
55.1681
55.1678
55.1676
55.1673
55.1671
55.1669
55.1668
55.1666
55.1664
55.1662
55.1661
55.1659
55.1658
55.1657
55.1656
55.1655
55.1654
55.1653
55.1652
55.1651
55.1651
55.165
55.165
55.1649
55.1649
55.1649
55.1649
55.1648
55.1648
55.1648
55.1648
55.1648
55.1649
55.1649
55.1649
55.1649
55.165
55.1651
55.1651
55.1652
55.1653
55.1655
55.1657
55.1657
55.1656
55.1655
55.1657
55.1662
55.167
55.168
55.1691
55.1702
55.1712
55.172
55.1724
55.1726
55.1725
55.1722
55.1718
55.1714
55.171
55.1706
55.1704
55.1702
55.1702
55.1702
55.1702
55.1703
55.1705
55.1706
55.1708
55.171
55.1711
55.1713
55.1715
55.1717
55.1719
55.1721
55.1723
55.1725
55.1727
55.1729
55.1731
55.1733
55.1735
55.1738
55.174
55.1742
55.1744
55.1747
55.1749
55.1752
55.1754
55.1756
55.1759
55.1761
55.1763
55.1765
55.1768
55.177
55.1773
55.1774
55.1777
55.178
55.178
55.1785
55.1784
55.1788
55.1789
55.1791
55.1794
55.1793
55.1798
55.1797
55.18
55.1802
55.1801
55.1805
55.1805
55.1806
55.1807
55.1809
55.2539
55.2498
55.2455
55.2415
55.2378
55.2344
55.2312
55.2282
55.2254
55.2228
55.2202
55.2179
55.2156
55.2135
55.2115
55.2096
55.2078
55.206
55.2043
55.2026
55.2009
55.1993
55.1977
55.1962
55.1946
55.1932
55.1917
55.1903
55.1889
55.1876
55.1862
55.1849
55.1837
55.1824
55.1812
55.18
55.1788
55.1777
55.1766
55.1756
55.1746
55.1736
55.1726
55.1717
55.1708
55.1699
55.169
55.1682
55.1673
55.1665
55.1658
55.165
55.1643
55.1636
55.1629
55.1623
55.1617
55.1611
55.1605
55.1599
55.1594
55.1589
55.1584
55.1579
55.1574
55.157
55.1565
55.1561
55.1557
55.1554
55.155
55.1546
55.1543
55.154
55.1536
55.1533
55.153
55.1528
55.1525
55.1523
55.1521
55.1519
55.1517
55.1516
55.1514
55.1514
55.1513
55.1513
55.1513
55.1512
55.1512
55.1512
55.1512
55.1513
55.1514
55.1515
55.1517
55.1518
55.152
55.1521
55.1523
55.1524
55.1526
55.1528
55.1531
55.1535
55.1538
55.1543
55.1547
55.1551
55.1555
55.1558
55.156
55.1561
55.1562
55.1563
55.1567
55.1573
55.1581
55.1592
55.1606
55.1621
55.1637
55.1653
55.1667
55.1679
55.169
55.1699
55.1707
55.1714
55.1719
55.1724
55.1726
55.1728
55.1728
55.1726
55.1722
55.1717
55.1711
55.1706
55.1701
55.1698
55.1696
55.1695
55.1695
55.1696
55.1698
55.1699
55.1701
55.1703
55.1706
55.1708
55.171
55.1712
55.1715
55.1717
55.172
55.1722
55.1724
55.1727
55.1729
55.1732
55.1734
55.1737
55.1739
55.1742
55.1744
55.1746
55.1749
55.1751
55.1754
55.1756
55.1759
55.176
55.1764
55.1765
55.1769
55.1769
55.1774
55.1773
55.1779
55.1777
55.1783
55.1782
55.1787
55.1785
55.1791
55.1789
55.1795
55.1793
55.1798
55.1796
55.1801
55.1799
55.1804
55.1802
55.1807
55.1805
55.1809
55.1807
55.2592
55.2572
55.2553
55.2534
55.2513
55.2491
55.2469
55.2448
55.2429
55.2409
55.2391
55.2373
55.2355
55.2338
55.2321
55.2304
55.2288
55.2272
55.2256
55.224
55.2225
55.221
55.2195
55.218
55.2166
55.2152
55.2138
55.2125
55.2112
55.2099
55.2087
55.2074
55.2062
55.205
55.2039
55.2027
55.2016
55.2005
55.1995
55.1984
55.1974
55.1964
55.1954
55.1945
55.1935
55.1927
55.1918
55.1909
55.1901
55.1893
55.1885
55.1878
55.187
55.1863
55.1856
55.185
55.1843
55.1837
55.1831
55.1825
55.182
55.1814
55.1809
55.1804
55.1799
55.1795
55.179
55.1786
55.1782
55.1778
55.1774
55.177
55.1767
55.1763
55.176
55.1757
55.1755
55.1752
55.1749
55.1747
55.1744
55.1742
55.174
55.1738
55.1736
55.1734
55.1733
55.1731
55.173
55.1728
55.1727
55.1726
55.1725
55.1724
55.1723
55.1722
55.1722
55.1722
55.1721
55.1721
55.1721
55.1721
55.1721
55.172
55.172
55.1721
55.1721
55.1721
55.1721
55.1722
55.1722
55.1722
55.1723
55.1724
55.1725
55.1725
55.1725
55.1726
55.1727
55.1729
55.173
55.173
55.173
55.1729
55.173
55.1731
55.1733
55.1734
55.1733
55.1728
55.1722
55.1717
55.1718
55.1722
55.1736
55.1756
55.1772
55.1779
55.1777
55.1767
55.1753
55.1739
55.1728
55.1719
55.1713
55.1709
55.1707
55.1706
55.1706
55.1706
55.1707
55.1709
55.1711
55.1713
55.1715
55.1717
55.172
55.1722
55.1724
55.1727
55.1729
55.1732
55.1734
55.1737
55.1739
55.1742
55.1744
55.1746
55.1749
55.1751
55.1754
55.1756
55.1759
55.176
55.1764
55.1765
55.1769
55.1769
55.1774
55.1773
55.1778
55.1778
55.1783
55.1782
55.1787
55.1785
55.1791
55.1789
55.1795
55.1793
55.1798
55.1796
55.1801
55.1799
55.1804
55.1802
55.1807
55.1806
55.1807
55.1808
55.2605
55.2566
55.2523
55.2479
55.2436
55.2394
55.2355
55.2319
55.2284
55.2252
55.2222
55.2194
55.2168
55.2144
55.2122
55.2102
55.2082
55.2064
55.2047
55.203
55.2013
55.1997
55.1982
55.1966
55.1951
55.1936
55.1922
55.1908
55.1894
55.1881
55.1868
55.1855
55.1843
55.183
55.1818
55.1806
55.1795
55.1783
55.1772
55.1762
55.1752
55.1742
55.1732
55.1723
55.1714
55.1706
55.1698
55.169
55.1682
55.1674
55.1666
55.1659
55.1652
55.1646
55.164
55.1634
55.1628
55.1623
55.1617
55.1612
55.1607
55.1603
55.1598
55.1594
55.159
55.1586
55.1582
55.1578
55.1574
55.157
55.1567
55.1564
55.156
55.1557
55.1554
55.155
55.1547
55.1544
55.1541
55.1538
55.1535
55.1533
55.1531
55.1529
55.1527
55.1527