/*--------------------------------*- C++ -*----------------------------------*\
| =========                 |                                                 |
| \\      /  F ield         | OpenFOAM: The Open Source CFD Toolbox           |
|  \\    /   O peration     | Version:  3.0.x                                 |
|   \\  /    A nd           | Web:      www.OpenFOAM.org                      |
|    \\/     M anipulation  |                                                 |
\*---------------------------------------------------------------------------*/
FoamFile
{
    version     2.0;
    format      ascii;
    class       volScalarField;
    location    "0.589925";
    object      T;
}
// * * * * * * * * * * * * * * * * * * * * * * * * * * * * * * * * * * * * * //

dimensions      [0 0 0 1 0 0 0];

internalField   nonuniform List<scalar> 
13800
(
790.63
790.59
790.522
790.45
790.379
790.312
790.245
790.183
790.128
790.079
790.035
789.995
789.962
789.937
789.917
789.9
789.885
789.874
789.867
789.863
789.86
789.859
789.858
789.857
789.856
789.854
789.852
789.849
789.846
789.843
789.839
789.835
789.83
789.825
789.819
789.813
789.806
789.799
789.792
789.784
789.776
789.767
789.758
789.749
789.739
789.729
789.718
789.708
789.696
789.685
789.673
789.661
789.648
789.636
789.623
789.609
789.596
789.582
789.568
789.553
789.539
789.523
789.508
789.493
789.477
789.462
789.446
789.43
789.414
789.398
789.381
789.364
789.347
789.329
789.311
789.292
789.274
789.256
789.237
789.219
789.201
789.183
789.165
789.146
789.128
789.109
789.09
789.071
789.053
789.033
789.014
788.994
788.974
788.954
788.933
788.913
788.893
788.873
788.854
788.834
788.815
788.795
788.776
788.757
788.738
788.718
788.698
788.678
788.658
788.638
788.618
788.598
788.578
788.558
788.539
788.519
788.5
788.48
788.461
788.442
788.423
788.403
788.384
788.365
788.346
788.328
788.309
788.29
788.271
788.253
788.234
788.215
788.197
788.179
788.16
788.142
788.124
788.106
788.087
788.069
788.052
788.034
788.016
787.998
787.981
787.963
787.946
787.929
787.912
787.894
787.878
787.861
787.844
787.827
787.811
787.794
787.778
787.762
787.746
787.73
787.715
787.699
787.684
787.668
787.653
787.638
787.624
787.609
787.595
787.58
787.566
787.552
787.538
787.525
787.511
787.498
787.485
787.473
787.459
787.448
787.433
787.425
787.408
787.402
787.384
787.379
787.361
787.358
787.339
787.337
787.317
787.317
787.297
787.296
787.277
787.276
787.261
787.248
787.256
787.233
790.613
790.572
790.504
790.433
790.362
790.294
790.228
790.165
790.111
790.062
790.018
789.978
789.945
789.92
789.9
789.883
789.869
789.858
789.85
789.846
789.844
789.843
789.842
789.841
789.839
789.838
789.836
789.833
789.83
789.827
789.823
789.819
789.814
789.809
789.803
789.797
789.791
789.784
789.776
789.769
789.76
789.752
789.743
789.734
789.724
789.714
789.704
789.693
789.682
789.67
789.658
789.646
789.634
789.621
789.608
789.595
789.581
789.568
789.554
789.539
789.525
789.51
789.494
789.479
789.464
789.448
789.432
789.416
789.401
789.385
789.368
789.351
789.334
789.316
789.298
789.279
789.261
789.243
789.225
789.206
789.188
789.17
789.152
789.134
789.115
789.097
789.078
789.059
789.04
789.021
789.002
788.982
788.963
788.942
788.922
788.902
788.882
788.862
788.842
788.823
788.803
788.784
788.765
788.746
788.727
788.707
788.688
788.668
788.648
788.628
788.608
788.588
788.568
788.548
788.528
788.509
788.49
788.47
788.451
788.432
788.413
788.394
788.375
788.356
788.337
788.318
788.299
788.28
788.261
788.243
788.224
788.206
788.187
788.169
788.15
788.132
788.114
788.096
788.078
788.06
788.042
788.024
788.006
787.989
787.971
787.954
787.936
787.919
787.902
787.885
787.868
787.851
787.834
787.818
787.801
787.785
787.769
787.752
787.737
787.721
787.705
787.689
787.674
787.659
787.644
787.629
787.614
787.599
787.585
787.571
787.557
787.543
787.529
787.515
787.502
787.489
787.475
787.464
787.449
787.439
787.423
787.415
787.399
787.392
787.375
787.37
787.352
787.348
787.33
787.327
787.308
787.307
787.288
787.286
787.268
787.267
787.249
787.248
787.233
787.233
790.613
790.572
790.504
790.433
790.362
790.294
790.228
790.165
790.111
790.062
790.018
789.978
789.945
789.92
789.9
789.883
789.869
789.858
789.85
789.846
789.844
789.843
789.842
789.841
789.839
789.838
789.836
789.833
789.83
789.827
789.823
789.819
789.814
789.809
789.803
789.797
789.791
789.784
789.776
789.769
789.76
789.752
789.743
789.734
789.724
789.714
789.704
789.693
789.682
789.67
789.658
789.646
789.634
789.621
789.608
789.595
789.581
789.567
789.553
789.539
789.525
789.509
789.494
789.479
789.464
789.448
789.432
789.416
789.401
789.384
789.368
789.351
789.334
789.316
789.298
789.279
789.261
789.243
789.224
789.206
789.188
789.17
789.152
789.134
789.115
789.097
789.078
789.059
789.04
789.021
789.002
788.982
788.962
788.942
788.922
788.902
788.882
788.862
788.842
788.823
788.803
788.784
788.765
788.746
788.727
788.707
788.688
788.668
788.648
788.628
788.608
788.588
788.568
788.548
788.528
788.509
788.49
788.47
788.451
788.432
788.413
788.394
788.375
788.356
788.337
788.318
788.299
788.28
788.261
788.243
788.224
788.206
788.187
788.169
788.15
788.132
788.114
788.096
788.078
788.06
788.042
788.024
788.006
787.989
787.971
787.954
787.936
787.919
787.902
787.885
787.868
787.851
787.834
787.818
787.801
787.785
787.769
787.752
787.736
787.721
787.705
787.689
787.674
787.659
787.644
787.629
787.614
787.599
787.585
787.571
787.557
787.543
787.529
787.515
787.502
787.489
787.475
787.463
787.449
787.439
787.423
787.415
787.399
787.392
787.375
787.37
787.352
787.348
787.33
787.327
787.308
787.307
787.288
787.286
787.268
787.267
787.249
787.248
787.232
787.231
790.613
790.572
790.504
790.433
790.362
790.294
790.228
790.166
790.111
790.062
790.018
789.978
789.945
789.92
789.9
789.883
789.869
789.858
789.85
789.846
789.844
789.843
789.842
789.841
789.84
789.838
789.836
789.833
789.83
789.827
789.823
789.819
789.814
789.809
789.803
789.797
789.791
789.784
789.776
789.769
789.761
789.752
789.743
789.734
789.724
789.714
789.704
789.693
789.682
789.67
789.659
789.646
789.634
789.621
789.608
789.595
789.581
789.568
789.554
789.539
789.525
789.51
789.494
789.479
789.464
789.448
789.432
789.416
789.401
789.385
789.368
789.351
789.334
789.316
789.298
789.279
789.261
789.243
789.225
789.206
789.188
789.17
789.152
789.134
789.115
789.097
789.078
789.059
789.04
789.021
789.002
788.982
788.963
788.942
788.922
788.902
788.882
788.862
788.842
788.823
788.803
788.784
788.765
788.746
788.727
788.707
788.688
788.668
788.648
788.628
788.608
788.588
788.568
788.548
788.528
788.509
788.49
788.47
788.451
788.432
788.413
788.394
788.375
788.356
788.337
788.318
788.299
788.28
788.261
788.243
788.224
788.206
788.187
788.169
788.15
788.132
788.114
788.096
788.078
788.06
788.042
788.024
788.006
787.989
787.971
787.954
787.936
787.919
787.902
787.885
787.868
787.851
787.834
787.818
787.801
787.785
787.769
787.752
787.736
787.721
787.705
787.689
787.674
787.659
787.644
787.629
787.614
787.599
787.585
787.571
787.557
787.543
787.529
787.515
787.502
787.489
787.475
787.463
787.449
787.439
787.423
787.415
787.399
787.392
787.375
787.37
787.352
787.348
787.33
787.327
787.308
787.307
787.288
787.286
787.268
787.267
787.249
787.248
787.232
787.227
790.613
790.572
790.505
790.433
790.362
790.294
790.228
790.166
790.111
790.062
790.018
789.978
789.945
789.92
789.9
789.883
789.869
789.858
789.85
789.846
789.844
789.843
789.842
789.841
789.84
789.838
789.836
789.833
789.831
789.827
789.823
789.819
789.814
789.809
789.803
789.797
789.791
789.784
789.777
789.769
789.761
789.752
789.743
789.734
789.724
789.714
789.704
789.693
789.682
789.67
789.659
789.646
789.634
789.621
789.608
789.595
789.581
789.568
789.554
789.539
789.525
789.51
789.494
789.479
789.464
789.448
789.432
789.417
789.401
789.385
789.368
789.351
789.334
789.316
789.298
789.279
789.261
789.243
789.225
789.207
789.189
789.17
789.152
789.134
789.115
789.097
789.078
789.059
789.04
789.021
789.002
788.982
788.963
788.942
788.922
788.902
788.882
788.862
788.842
788.823
788.803
788.784
788.765
788.746
788.727
788.707
788.688
788.668
788.648
788.628
788.608
788.588
788.568
788.548
788.528
788.509
788.49
788.47
788.451
788.432
788.413
788.394
788.375
788.356
788.337
788.318
788.299
788.28
788.261
788.243
788.224
788.206
788.187
788.169
788.15
788.132
788.114
788.096
788.078
788.06
788.042
788.024
788.006
787.989
787.971
787.954
787.936
787.919
787.902
787.885
787.868
787.851
787.834
787.818
787.801
787.785
787.769
787.752
787.736
787.721
787.705
787.689
787.674
787.659
787.644
787.629
787.614
787.599
787.585
787.571
787.557
787.543
787.529
787.515
787.502
787.489
787.475
787.464
787.449
787.439
787.424
787.415
787.399
787.392
787.375
787.37
787.352
787.348
787.33
787.327
787.308
787.306
787.288
787.286
787.268
787.267
787.249
787.248
787.232
787.231
790.613
790.572
790.505
790.433
790.362
790.294
790.228
790.166
790.111
790.062
790.018
789.978
789.945
789.92
789.9
789.883
789.869
789.858
789.85
789.846
789.844
789.843
789.842
789.841
789.84
789.838
789.836
789.833
789.831
789.827
789.823
789.819
789.814
789.809
789.803
789.797
789.791
789.784
789.777
789.769
789.761
789.752
789.743
789.734
789.724
789.714
789.704
789.693
789.682
789.67
789.659
789.646
789.634
789.621
789.608
789.595
789.581
789.568
789.554
789.539
789.525
789.51
789.494
789.479
789.464
789.448
789.432
789.417
789.401
789.385
789.368
789.351
789.334
789.316
789.298
789.279
789.261
789.243
789.225
789.207
789.189
789.17
789.152
789.134
789.115
789.097
789.078
789.059
789.04
789.021
789.002
788.982
788.963
788.942
788.922
788.902
788.882
788.862
788.842
788.823
788.803
788.784
788.765
788.746
788.727
788.707
788.688
788.668
788.648
788.628
788.608
788.588
788.568
788.548
788.528
788.509
788.49
788.47
788.451
788.432
788.413
788.394
788.375
788.356
788.337
788.318
788.299
788.28
788.261
788.243
788.224
788.206
788.187
788.169
788.15
788.132
788.114
788.096
788.078
788.06
788.042
788.024
788.006
787.989
787.971
787.954
787.936
787.919
787.902
787.885
787.868
787.851
787.834
787.818
787.801
787.785
787.769
787.752
787.736
787.721
787.705
787.689
787.674
787.659
787.644
787.629
787.614
787.599
787.585
787.571
787.557
787.543
787.529
787.515
787.502
787.489
787.476
787.463
787.45
787.438
787.425
787.413
787.401
787.389
787.38
787.363
787.359
787.341
787.337
787.32
787.314
787.302
787.29
787.285
787.269
787.264
787.254
787.243
787.234
787.225
790.613
790.572
790.504
790.433
790.362
790.294
790.228
790.166
790.111
790.062
790.018
789.978
789.945
789.92
789.9
789.883
789.869
789.858
789.85
789.846
789.844
789.843
789.842
789.841
789.84
789.838
789.836
789.833
789.83
789.827
789.823
789.819
789.814
789.809
789.803
789.797
789.791
789.784
789.776
789.769
789.761
789.752
789.743
789.734
789.724
789.714
789.704
789.693
789.682
789.67
789.659
789.646
789.634
789.621
789.608
789.595
789.581
789.568
789.554
789.539
789.525
789.51
789.494
789.479
789.464
789.448
789.432
789.416
789.401
789.385
789.368
789.351
789.334
789.316
789.298
789.279
789.261
789.243
789.225
789.206
789.188
789.17
789.152
789.134
789.115
789.097
789.078
789.059
789.04
789.021
789.002
788.982
788.963
788.942
788.922
788.902
788.882
788.862
788.842
788.823
788.803
788.784
788.765
788.746
788.727
788.707
788.688
788.668
788.648
788.628
788.608
788.588
788.568
788.548
788.528
788.509
788.49
788.47
788.451
788.432
788.413
788.394
788.375
788.356
788.337
788.318
788.299
788.28
788.261
788.243
788.224
788.206
788.187
788.169
788.15
788.132
788.114
788.096
788.078
788.06
788.042
788.024
788.006
787.989
787.971
787.954
787.936
787.919
787.902
787.885
787.868
787.851
787.834
787.818
787.801
787.785
787.769
787.752
787.736
787.721
787.705
787.689
787.674
787.659
787.644
787.629
787.614
787.599
787.585
787.571
787.557
787.543
787.529
787.515
787.502
787.488
787.476
787.462
787.451
787.436
787.427
787.411
787.404
787.386
787.381
787.363
787.359
787.341
787.338
787.319
787.317
787.298
787.297
787.278
787.277
787.259
787.258
787.24
787.236
787.225
790.613
790.572
790.504
790.433
790.362
790.294
790.228
790.165
790.111
790.062
790.018
789.978
789.945
789.92
789.9
789.883
789.869
789.858
789.85
789.846
789.844
789.843
789.842
789.841
789.839
789.838
789.836
789.833
789.83
789.827
789.823
789.819
789.814
789.809
789.803
789.797
789.791
789.784
789.776
789.769
789.76
789.752
789.743
789.734
789.724
789.714
789.704
789.693
789.682
789.67
789.658
789.646
789.634
789.621
789.608
789.595
789.581
789.567
789.553
789.539
789.525
789.509
789.494
789.479
789.464
789.448
789.432
789.416
789.401
789.384
789.368
789.351
789.334
789.316
789.298
789.279
789.261
789.243
789.224
789.206
789.188
789.17
789.152
789.134
789.115
789.097
789.078
789.059
789.04
789.021
789.002
788.982
788.962
788.942
788.922
788.902
788.882
788.862
788.842
788.823
788.803
788.784
788.765
788.746
788.727
788.707
788.688
788.668
788.648
788.628
788.608
788.588
788.568
788.548
788.528
788.509
788.49
788.47
788.451
788.432
788.413
788.394
788.375
788.356
788.337
788.318
788.299
788.28
788.261
788.243
788.224
788.206
788.187
788.169
788.15
788.132
788.114
788.096
788.078
788.06
788.042
788.024
788.006
787.989
787.971
787.954
787.936
787.919
787.902
787.885
787.868
787.851
787.834
787.818
787.801
787.785
787.769
787.752
787.736
787.721
787.705
787.689
787.674
787.659
787.644
787.629
787.614
787.599
787.585
787.571
787.557
787.543
787.529
787.515
787.502
787.488
787.476
787.462
787.451
787.436
787.427
787.41
787.404
787.386
787.381
787.363
787.359
787.34
787.338
787.319
787.317
787.298
787.297
787.278
787.277
787.259
787.258
787.24
787.242
787.227
790.613
790.572
790.504
790.433
790.362
790.294
790.228
790.165
790.111
790.062
790.018
789.978
789.945
789.92
789.9
789.883
789.869
789.858
789.85
789.846
789.844
789.843
789.842
789.841
789.839
789.838
789.836
789.833
789.83
789.827
789.823
789.819
789.814
789.809
789.803
789.797
789.791
789.784
789.776
789.769
789.76
789.752
789.743
789.734
789.724
789.714
789.704
789.693
789.682
789.67
789.658
789.646
789.634
789.621
789.608
789.595
789.581
789.568
789.554
789.539
789.525
789.51
789.494
789.479
789.464
789.448
789.432
789.416
789.401
789.385
789.368
789.351
789.334
789.316
789.298
789.279
789.261
789.243
789.225
789.206
789.188
789.17
789.152
789.134
789.115
789.097
789.078
789.059
789.04
789.021
789.002
788.982
788.963
788.942
788.922
788.902
788.882
788.862
788.842
788.823
788.803
788.784
788.765
788.746
788.727
788.707
788.688
788.668
788.648
788.628
788.608
788.588
788.568
788.548
788.528
788.509
788.49
788.47
788.451
788.432
788.413
788.394
788.375
788.356
788.337
788.318
788.299
788.28
788.261
788.243
788.224
788.206
788.187
788.169
788.15
788.132
788.114
788.096
788.078
788.06
788.042
788.024
788.006
787.989
787.971
787.954
787.936
787.919
787.902
787.885
787.868
787.851
787.834
787.818
787.801
787.785
787.769
787.752
787.737
787.721
787.705
787.689
787.674
787.659
787.644
787.629
787.614
787.599
787.585
787.571
787.557
787.543
787.529
787.515
787.502
787.488
787.476
787.462
787.451
787.436
787.427
787.411
787.404
787.386
787.381
787.363
787.359
787.34
787.338
787.319
787.317
787.298
787.296
787.278
787.277
787.259
787.258
787.24
787.244
787.232
790.63
790.59
790.522
790.45
790.379
790.312
790.245
790.183
790.128
790.079
790.035
789.995
789.962
789.937
789.917
789.9
789.885
789.874
789.867
789.863
789.86
789.859
789.858
789.857
789.856
789.854
789.852
789.849
789.846
789.843
789.839
789.835
789.83
789.825
789.819
789.813
789.806
789.799
789.792
789.784
789.776
789.767
789.758
789.749
789.739
789.729
789.718
789.708
789.696
789.685
789.673
789.661
789.648
789.636
789.623
789.609
789.596
789.582
789.568
789.553
789.539
789.523
789.508
789.493
789.477
789.462
789.446
789.43
789.414
789.398
789.381
789.364
789.347
789.329
789.311
789.292
789.274
789.256
789.237
789.219
789.201
789.183
789.165
789.146
789.128
789.109
789.09
789.071
789.053
789.033
789.014
788.994
788.974
788.954
788.933
788.913
788.893
788.873
788.854
788.834
788.815
788.795
788.776
788.757
788.738
788.718
788.698
788.678
788.658
788.638
788.618
788.598
788.578
788.558
788.539
788.519
788.5
788.48
788.461
788.442
788.423
788.403
788.384
788.365
788.346
788.328
788.309
788.29
788.271
788.253
788.234
788.215
788.197
788.179
788.16
788.142
788.124
788.106
788.087
788.069
788.052
788.034
788.016
787.998
787.981
787.963
787.946
787.929
787.912
787.894
787.878
787.861
787.844
787.827
787.811
787.794
787.778
787.762
787.746
787.73
787.715
787.699
787.684
787.668
787.653
787.638
787.624
787.609
787.595
787.58
787.566
787.552
787.539
787.525
787.512
787.498
787.486
787.471
787.461
787.445
787.437
787.42
787.414
787.396
787.391
787.372
787.369
787.349
787.348
787.328
787.327
787.307
787.306
787.287
787.287
787.267
787.268
787.248
787.258
787.242
787.224
787.226
787.228
787.232
787.239
787.249
787.259
787.266
787.27
787.271
787.27
787.269
787.268
787.267
787.265
787.264
787.264
787.263
787.263
787.261
787.23
787.231
787.231
787.231
787.232
787.234
787.237
787.241
787.245
787.248
787.251
787.254
787.255
787.255
787.254
787.252
787.25
787.248
787.247
787.245
787.234
787.233
787.233
787.233
787.233
787.234
787.236
787.236
787.24
787.242
787.247
787.248
787.251
787.251
787.252
787.251
787.249
787.247
787.244
787.243
787.226
787.225
787.225
787.225
787.225
787.225
787.225
787.225
787.225
787.225
787.227
787.229
787.233
787.236
787.241
787.244
787.247
787.248
787.249
787.249
787.228
787.225
787.224
787.221
787.22
787.218
787.216
787.215
787.213
787.212
787.21
787.208
787.207
787.206
787.205
787.204
787.203
787.203
787.202
787.2
787.223
787.222
787.22
787.218
787.217
787.215
787.214
787.213
787.213
787.212
787.212
787.211
787.212
787.214
787.217
787.221
787.227
787.233
787.237
787.237
787.22
787.218
787.216
787.214
787.213
787.21
787.208
787.205
787.202
787.199
787.197
787.195
787.192
787.19
787.187
787.184
787.18
787.176
787.171
787.168
787.218
787.216
787.215
787.214
787.213
787.211
787.21
787.208
787.206
787.204
787.202
787.2
787.197
787.193
787.187
787.179
787.17
787.16
787.15
787.146
787.222
787.22
787.218
787.216
787.214
787.211
787.208
787.205
787.202
787.198
787.194
787.189
787.182
787.175
787.168
787.16
787.152
787.143
787.137
787.135
787.231
787.228
787.225
787.223
787.22
787.216
787.212
787.207
787.201
787.196
787.19
787.184
787.177
787.17
787.163
787.155
787.147
787.139
787.137
787.142
787.256
787.254
787.246
787.23
787.217
787.21
787.205
787.198
787.188
787.176
787.166
787.16
787.155
787.151
787.146
787.14
787.133
787.127
787.121
787.116
787.111
787.106
787.102
787.097
787.093
787.089
787.085
787.081
787.077
787.073
787.069
787.066
787.062
787.058
787.055
787.052
787.049
787.046
787.043
787.04
787.037
787.034
787.031
787.028
787.026
787.023
787.02
787.018
787.015
787.013
787.011
787.009
787.007
787.005
787.004
787.002
787
786.998
786.997
786.995
786.993
786.992
786.99
786.989
786.988
786.986
786.985
786.984
786.982
786.981
786.98
786.979
786.978
786.977
786.976
786.975
786.974
786.973
786.972
786.972
786.972
786.971
786.971
786.971
786.97
786.97
786.969
786.969
786.969
786.968
786.968
786.967
786.967
786.967
786.966
786.966
786.967
786.967
786.966
786.966
786.966
786.966
786.966
786.966
786.967
786.967
786.967
786.966
786.965
786.965
786.965
786.966
786.966
786.965
786.963
786.959
786.954
786.948
786.943
786.942
786.945
786.948
786.94
786.921
786.897
786.88
786.887
786.966
787.265
787.744
788.222
788.672
789.067
789.391
789.63
789.769
789.814
789.82
789.789
789.608
789.062
788.447
787.928
787.531
787.258
787.083
786.972
786.9
786.858
786.848
786.862
786.889
786.907
786.919
786.928
786.934
786.939
786.942
786.945
786.947
786.949
786.951
786.952
786.953
786.955
786.956
786.957
786.958
786.959
786.959
786.96
786.961
786.962
786.962
786.964
786.962
786.966
786.963
786.969
786.963
786.97
786.965
786.971
786.966
786.973
786.967
786.974
786.968
786.975
786.969
786.976
786.97
786.977
786.97
786.978
786.971
786.979
786.971
786.982
786.979
787.237
787.229
787.225
787.216
787.203
787.192
787.185
787.178
787.169
787.158
787.146
787.137
787.131
787.126
787.121
787.116
787.109
787.102
787.096
787.09
787.085
787.08
787.075
787.071
787.066
787.062
787.057
787.053
787.05
787.046
787.042
787.038
787.034
787.031
787.027
787.024
787.021
787.018
787.015
787.012
787.01
787.007
787.003
787
786.998
786.995
786.992
786.99
786.987
786.985
786.983
786.98
786.978
786.976
786.975
786.973
786.972
786.97
786.968
786.967
786.965
786.963
786.961
786.96
786.959
786.958
786.956
786.955
786.954
786.953
786.951
786.95
786.949
786.948
786.948
786.947
786.946
786.945
786.944
786.943
786.942
786.942
786.941
786.941
786.941
786.941
786.94
786.94
786.939
786.939
786.939
786.939
786.938
786.938
786.938
786.937
786.937
786.937
786.937
786.937
786.938
786.938
786.938
786.938
786.938
786.938
786.938
786.938
786.939
786.939
786.938
786.939
786.939
786.938
786.937
786.936
786.933
786.93
786.929
786.93
786.932
786.935
786.935
786.929
786.912
786.888
786.863
786.841
786.815
786.782
786.746
786.714
786.696
786.702
786.748
786.845
786.948
787.051
787.146
787.232
787.277
787.286
787.28
787.246
787.178
787.108
787.043
786.987
786.944
786.92
786.913
786.915
786.919
786.922
786.926
786.929
786.932
786.935
786.937
786.939
786.941
786.942
786.944
786.945
786.946
786.947
786.948
786.949
786.95
786.951
786.952
786.952
786.954
786.954
786.956
786.954
786.958
786.955
786.96
786.956
786.961
786.957
786.963
786.958
786.964
786.959
786.965
786.96
786.966
786.961
786.967
786.962
786.968
786.963
786.969
786.964
786.97
786.964
786.971
786.97
787.236
787.228
787.225
787.217
787.204
787.194
787.187
787.181
787.173
787.161
787.15
787.142
787.136
787.131
787.126
787.119
787.112
787.106
787.1
787.094
787.089
787.084
787.079
787.075
787.07
787.066
787.062
787.058
787.054
787.05
787.047
787.043
787.039
787.035
787.032
787.029
787.026
787.023
787.02
787.017
787.014
787.011
787.008
787.005
787.002
787
786.997
786.995
786.992
786.99
786.987
786.985
786.983
786.981
786.979
786.978
786.976
786.975
786.973
786.971
786.969
786.968
786.966
786.965
786.963
786.962
786.961
786.96
786.959
786.957
786.956
786.955
786.954
786.953
786.952
786.951
786.95
786.949
786.948
786.947
786.947
786.946
786.946
786.945
786.945
786.945
786.944
786.944
786.944
786.943
786.943
786.943
786.942
786.942
786.941
786.941
786.941
786.941
786.941
786.941
786.941
786.941
786.941
786.941
786.941
786.942
786.942
786.942
786.942
786.942
786.943
786.943
786.943
786.943
786.943
786.942
786.939
786.936
786.934
786.934
786.936
786.943
786.948
786.942
786.921
786.888
786.847
786.801
786.756
786.714
786.677
786.644
786.619
786.606
786.612
786.649
786.714
786.782
786.851
786.916
786.973
787.018
787.048
787.057
787.054
787.039
787.014
786.988
786.966
786.95
786.94
786.934
786.931
786.93
786.931
786.932
786.934
786.936
786.938
786.939
786.941
786.943
786.944
786.945
786.946
786.947
786.948
786.949
786.95
786.951
786.952
786.952
786.954
786.954
786.956
786.954
786.958
786.955
786.96
786.956
786.961
786.957
786.963
786.958
786.964
786.959
786.965
786.96
786.966
786.961
786.967
786.962
786.968
786.963
786.969
786.964
786.97
786.964
786.969
786.968
787.241
787.237
787.237
787.237
787.232
787.226
787.221
787.218
787.215
787.211
787.205
787.199
787.193
787.189
787.186
787.182
787.177
787.172
787.167
787.162
787.157
787.152
787.148
787.143
787.139
787.135
787.131
787.127
787.124
787.12
787.116
787.112
787.108
787.105
787.102
787.098
787.095
787.092
787.089
787.086
787.083
787.08
787.077
787.075
787.072
787.069
787.067
787.064
787.061
787.059
787.057
787.055
787.053
787.051
787.05
787.048
787.046
787.044
787.042
787.041
787.039
787.037
787.036
787.035
787.033
787.032
787.03
787.029
787.028
787.027
787.026
787.025
787.024
787.022
787.021
787.02
787.019
787.018
787.018
787.017
787.017
787.016
787.016
787.015
787.015
787.015
787.014
787.014
787.013
787.013
787.012
787.012
787.011
787.011
787.011
787.011
787.011
787.011
787.01
787.01
787.01
787.01
787.01
787.01
787.009
787.008
787.008
787.008
787.008
787.007
787.006
787.005
787.001
786.997
786.994
786.99
786.988
786.988
786.99
786.991
786.99
786.984
786.968
786.945
786.918
786.893
786.871
786.849
786.828
786.808
786.793
786.787
786.791
786.805
786.826
786.85
786.876
786.901
786.923
786.942
786.955
786.964
786.967
786.967
786.963
786.957
786.951
786.945
786.941
786.938
786.936
786.935
786.935
786.936
786.937
786.938
786.939
786.941
786.942
786.943
786.944
786.945
786.946
786.947
786.947
786.948
786.949
786.95
786.951
786.951
786.952
786.953
786.954
786.954
786.956
786.955
786.958
786.955
786.959
786.957
786.96
786.958
786.961
786.959
786.964
786.959
786.966
786.961
786.966
786.961
786.967
786.962
786.968
786.963
786.969
786.964
786.97
786.965
786.966
786.967
787.196
787.192
787.189
787.184
787.179
787.173
787.166
787.157
787.147
787.136
787.127
787.119
787.113
787.108
787.102
787.097
787.091
787.085
787.08
787.076
787.071
787.066
787.062
787.057
787.052
787.048
787.043
787.039
787.035
787.031
787.027
787.023
787.02
787.016
787.013
787.009
787.006
787.003
787
786.997
786.994
786.991
786.988
786.986
786.983
786.981
786.978
786.975
786.973
786.971
786.968
786.966
786.964
786.962
786.96
786.958
786.956
786.954
786.953
786.951
786.95
786.949
786.947
786.946
786.944
786.943
786.942
786.94
786.939
786.938
786.937
786.936
786.935
786.934
786.933
786.932
786.931
786.93
786.93
786.929
786.928
786.928
786.927
786.926
786.926
786.925
786.925
786.925
786.925
786.925
786.925
786.924
786.924
786.924
786.924
786.925
786.924
786.924
786.924
786.925
786.925
786.925
786.926
786.926
786.926
786.926
786.927
786.927
786.927
786.928
786.928
786.928
786.929
786.93
786.93
786.93
786.931
786.932
786.932
786.931
786.93
786.932
786.936
786.939
786.939
786.934
786.926
786.915
786.902
786.889
786.878
786.87
786.866
786.867
786.871
786.878
786.886
786.895
786.904
786.911
786.917
786.922
786.926
786.928
786.93
786.932
786.933
786.934
786.934
786.935
786.936
786.937
786.938
786.939
786.94
786.941
786.941
786.942
786.943
786.944
786.945
786.946
786.946
786.947
786.948
786.949
786.949
786.95
786.951
786.951
786.952
786.953
786.954
786.954
786.955
786.956
786.956
786.958
786.957
786.959
786.959
786.959
786.961
786.959
786.963
786.961
786.963
786.963
786.962
786.966
786.962
786.967
786.964
786.965
786.968
786.965
786.967
786.968
786.968
786.967
787.234
787.251
787.268
787.284
787.296
787.306
787.313
787.318
787.322
787.324
787.325
787.325
787.324
787.321
787.318
787.314
787.31
787.306
787.301
787.297
787.293
787.288
787.284
787.28
787.276
787.272
787.268
787.264
787.26
787.256
787.252
787.249
787.246
787.242
787.239
787.236
787.233
787.23
787.227
787.223
787.22
787.217
787.214
787.211
787.208
787.206
787.203
787.201
787.199
787.196
787.194
787.192
787.19
787.188
787.186
787.184
787.182
787.18
787.178
787.177
787.175
787.173
787.171
787.17
787.168
787.167
787.165
787.164
787.162
787.161
787.16
787.159
787.158
787.157
787.156
787.155
787.154
787.153
787.152
787.151
787.15
787.148
787.147
787.146
787.145
787.143
787.141
787.139
787.137
787.135
787.133
787.131
787.129
787.127
787.124
787.121
787.118
787.115
787.112
787.11
787.107
787.104
787.102
787.098
787.094
787.089
787.084
787.078
787.073
787.068
787.063
787.059
787.057
787.056
787.056
787.056
787.053
787.046
787.035
787.021
787.004
786.984
786.963
786.943
786.925
786.91
786.898
786.887
786.878
786.871
786.867
786.864
786.863
786.864
786.867
786.872
786.88
786.89
786.901
786.912
786.921
786.928
786.934
786.938
786.94
786.942
786.943
786.943
786.944
786.944
786.944
786.945
786.945
786.945
786.945
786.945
786.946
786.946
786.946
786.947
786.947
786.947
786.948
786.948
786.949
786.949
786.95
786.951
786.951
786.952
786.952
786.953
786.953
786.955
786.954
786.957
786.955
786.959
786.956
786.96
786.957
786.962
786.958
786.963
786.959
786.965
786.96
786.966
786.961
786.967
786.962
786.968
786.963
786.968
786.964
786.969
786.964
786.97
786.965
786.97
787.156
787.141
787.125
787.112
787.102
787.094
787.087
787.079
787.071
787.063
787.055
787.047
787.039
787.031
787.024
787.017
787.009
787.003
786.996
786.99
786.984
786.979
786.973
786.968
786.962
786.957
786.952
786.947
786.942
786.937
786.932
786.928
786.923
786.919
786.915
786.912
786.908
786.904
786.901
786.898
786.895
786.892
786.889
786.886
786.883
786.881
786.878
786.876
786.873
786.871
786.869
786.867
786.865
786.863
786.862
786.86
786.858
786.856
786.854
786.853
786.851
786.85
786.849
786.847
786.846
786.845
786.843
786.842
786.841
786.84
786.839
786.838
786.838
786.837
786.836
786.835
786.834
786.833
786.832
786.831
786.831
786.83
786.83
786.829
786.829
786.828
786.828
786.827
786.827
786.826
786.826
786.826
786.826
786.826
786.826
786.826
786.825
786.825
786.825
786.825
786.825
786.824
786.824
786.824
786.824
786.824
786.824
786.824
786.824
786.824
786.824
786.825
786.825
786.825
786.824
786.825
786.826
786.827
786.827
786.826
786.827
786.829
786.831
786.834
786.836
786.837
786.836
786.837
786.842
786.853
786.863
786.874
786.876
786.872
786.856
786.83
786.81
786.803
786.808
786.825
786.848
786.87
786.888
786.903
786.915
786.924
786.93
786.935
786.938
786.94
786.942
786.943
786.944
786.944
786.945
786.945
786.946
786.946
786.946
786.947
786.947
786.947
786.948
786.948
786.949
786.949
786.95
786.951
786.951
786.952
786.952
786.953
786.953
786.955
786.954
786.957
786.955
786.959
786.956
786.96
786.957
786.962
786.958
786.963
786.959
786.965
786.96
786.966
786.961
786.967
786.962
786.968
786.963
786.968
786.964
786.969
786.964
786.967
786.968
786.969
787.139
787.152
787.169
787.19
787.212
787.231
787.249
787.264
787.277
787.287
787.296
787.302
787.306
787.308
787.307
787.305
787.303
787.299
787.295
787.29
787.286
787.281
787.277
787.273
787.268
787.264
787.26
787.256
787.252
787.248
787.244
787.24
787.237
787.233
787.23
787.227
787.224
787.221
787.218
787.215
787.212
787.208
787.205
787.202
787.199
787.196
787.192
787.19
787.187
787.184
787.182
787.179
787.176
787.174
787.171
787.168
787.165
787.162
787.16
787.158
787.155
787.153
787.15
787.148
787.146
787.144
787.142
787.14
787.139
787.137
787.135
787.134
787.132
787.131
787.131
787.13
787.13
787.129
787.129
787.129
787.129
787.129
787.128
787.127
787.126