/*--------------------------------*- C++ -*----------------------------------*\
| =========                 |                                                 |
| \\      /  F ield         | OpenFOAM: The Open Source CFD Toolbox           |
|  \\    /   O peration     | Version:  3.0.x                                 |
|   \\  /    A nd           | Web:      www.OpenFOAM.org                      |
|    \\/     M anipulation  |                                                 |
\*---------------------------------------------------------------------------*/
FoamFile
{
    version     2.0;
    format      ascii;
    class       volVectorField;
    location    "0.003";
    object      U;
}
// * * * * * * * * * * * * * * * * * * * * * * * * * * * * * * * * * * * * * //

dimensions      [0 1 -1 0 0 0 0];

internalField   nonuniform List<vector> 
1000
(
(76.2 0 0)
(76.2 0 0)
(76.2 0 0)
(76.2 0 0)
(76.2 0 0)
(76.2 0 0)
(76.2 0 0)
(76.2 0 0)
(76.2 0 0)
(76.2 0 0)
(76.2 0 0)
(76.2 0 0)
(76.2 0 0)
(76.2 0 0)
(76.2 0 0)
(76.2 0 0)
(76.2 0 0)
(76.2 0 0)
(76.2 0 0)
(76.2 0 0)
(76.2 0 0)
(76.2 0 0)
(76.2 0 0)
(76.2 0 0)
(76.2 0 0)
(76.2 0 0)
(76.2 0 0)
(76.2 0 0)
(76.2 0 0)
(76.2 0 0)
(76.2 0 0)
(76.2 0 0)
(76.2 0 0)
(76.2 0 0)
(76.2 0 0)
(76.2 0 0)
(76.2 0 0)
(76.2 0 0)
(76.2 0 0)
(76.2 0 0)
(76.2 0 0)
(76.2 0 0)
(76.2 0 0)
(76.2 0 0)
(76.2 0 0)
(76.2 0 0)
(76.2 0 0)
(76.2 0 0)
(76.2 0 0)
(76.2 0 0)
(76.2 0 0)
(76.2 0 0)
(76.2 0 0)
(76.2 0 0)
(76.2 0 0)
(76.2 0 0)
(76.2 0 0)
(76.2 0 0)
(76.2 0 0)
(76.2 0 0)
(76.2 0 0)
(76.2 0 0)
(76.2 0 0)
(76.2 0 0)
(76.2 0 0)
(76.2 0 0)
(76.2 0 0)
(76.2 0 0)
(76.2 0 0)
(76.2 0 0)
(76.2 0 0)
(76.2 0 0)
(76.2 0 0)
(76.2 0 0)
(76.2 0 0)
(76.2 0 0)
(76.2 0 0)
(76.2 0 0)
(76.2 0 0)
(76.2 0 0)
(76.2 0 0)
(76.2 0 0)
(76.2 0 0)
(76.2 0 0)
(76.2 0 0)
(76.2 0 0)
(76.2 0 0)
(76.2 0 0)
(76.2 0 0)
(76.2 0 0)
(76.2 0 0)
(76.2 0 0)
(76.2 0 0)
(76.2 0 0)
(76.2 0 0)
(76.2 0 0)
(76.2 0 0)
(76.2 0 0)
(76.2 0 0)
(76.2 0 0)
(76.2 0 0)
(76.2 0 0)
(76.2 0 0)
(76.2 0 0)
(76.2 0 0)
(76.2 0 0)
(76.2 0 0)
(76.2 0 0)
(76.2 0 0)
(76.2 0 0)
(76.2 0 0)
(76.2 0 0)
(76.2 0 0)
(76.2 0 0)
(76.2 0 0)
(76.2 0 0)
(76.2 0 0)
(76.2 0 0)
(76.2 0 0)
(76.2 0 0)
(76.2 0 0)
(76.2 0 0)
(76.2 0 0)
(76.2 0 0)
(76.2 0 0)
(76.2 0 0)
(76.2 0 0)
(76.2 0 0)
(76.2 0 0)
(76.2 0 0)
(76.2 0 0)
(76.2 0 0)
(76.2 0 0)
(76.2 0 0)
(76.2 0 0)
(76.2 0 0)
(76.2 0 0)
(76.2 0 0)
(76.2 0 0)
(76.2 0 0)
(76.2 0 0)
(76.2 0 0)
(76.2 0 0)
(76.2 0 0)
(76.2 0 0)
(76.2 0 0)
(76.2 0 0)
(76.2 0 0)
(76.2 0 0)
(76.2 0 0)
(76.2 0 0)
(76.2 0 0)
(76.2 0 0)
(76.2 0 0)
(76.2 0 0)
(76.2 0 0)
(76.2 0 0)
(76.2 0 0)
(76.2 0 0)
(76.2 0 0)
(76.2 0 0)
(76.2 0 0)
(76.2 0 0)
(76.2 0 0)
(76.2 0 0)
(76.2 0 0)
(76.2 0 0)
(76.2 0 0)
(76.2 0 0)
(76.2 0 0)
(76.2 0 0)
(76.2 0 0)
(76.2 0 0)
(76.2 0 0)
(76.2 0 0)
(76.2 0 0)
(76.2 0 0)
(76.2 0 0)
(76.2 0 0)
(76.2 0 0)
(76.2 0 0)
(76.2 0 0)
(76.2 0 0)
(76.2 0 0)
(76.2 0 0)
(76.2 0 0)
(76.2 0 0)
(76.2 0 0)
(76.2 0 0)
(76.2 0 0)
(76.2 0 0)
(76.2 0 0)
(76.2 0 0)
(76.2 0 0)
(76.2 0 0)
(76.2 0 0)
(76.2 0 0)
(76.2 0 0)
(76.2 0 0)
(76.2 0 0)
(76.2 0 0)
(76.2 0 0)
(76.2 0 0)
(76.2 0 0)
(76.2 0 0)
(76.2 0 0)
(76.2 0 0)
(76.2 0 0)
(76.2 0 0)
(76.2 0 0)
(76.2 0 0)
(76.2 0 0)
(76.2 0 0)
(76.2 0 0)
(76.2 0 0)
(76.2 0 0)
(76.2 0 0)
(76.2 0 0)
(76.2 0 0)
(76.2 0 0)
(76.2 0 0)
(76.2 0 0)
(76.2 0 0)
(76.2 0 0)
(76.2 0 0)
(76.2 0 0)
(76.2 0 0)
(76.2 0 0)
(76.2 0 0)
(76.2 0 0)
(76.2 0 0)
(76.2 0 0)
(76.2 0 0)
(76.2 0 0)
(76.2 0 0)
(76.2 0 0)
(76.2 0 0)
(76.2 0 0)
(76.2 0 0)
(76.2 0 0)
(76.2 0 0)
(76.2 0 0)
(76.2 0 0)
(76.2 0 0)
(76.2 0 0)
(76.2 0 0)
(76.2 0 0)
(76.2 0 0)
(76.2 0 0)
(76.2 0 0)
(76.2 0 0)
(76.2 0 0)
(76.2 0 0)
(76.2 0 0)
(76.2 0 0)
(76.2 0 0)
(76.2 0 0)
(76.2 0 0)
(76.2 0 0)
(76.2 0 0)
(76.2 0 0)
(76.2 0 0)
(76.2 0 0)
(76.2 0 0)
(76.2 0 0)
(76.2 0 0)
(76.2 0 0)
(76.2 0 0)
(76.2 0 0)
(76.2 0 0)
(76.2 0 0)
(76.2 0 0)
(76.2 0 0)
(76.2 0 0)
(76.2 0 0)
(76.2 0 0)
(76.2 0 0)
(76.2 0 0)
(76.2 0 0)
(76.2 0 0)
(76.2 0 0)
(76.2 0 0)
(76.2 0 0)
(76.2 0 0)
(76.2 0 0)
(76.2 0 0)
(76.2 0 0)
(76.2 0 0)
(76.2 0 0)
(76.2 0 0)
(76.2 0 0)
(76.2 0 0)
(76.2 0 0)
(76.2 0 0)
(76.2 0 0)
(76.2 0 0)
(76.2 0 0)
(76.2 0 0)
(76.2 0 0)
(76.2 0 0)
(76.2 0 0)
(76.2 0 0)
(76.2 0 0)
(76.2 0 0)
(76.2 0 0)
(76.2 0 0)
(76.2 0 0)
(76.2 0 0)
(76.2 0 0)
(76.2 0 0)
(76.2 0 0)
(76.2 0 0)
(76.2 0 0)
(76.2 0 0)
(76.2 0 0)
(76.2 0 0)
(76.2 0 0)
(76.2 0 0)
(76.2 0 0)
(76.2 0 0)
(76.2 0 0)
(76.2 0 0)
(76.2 0 0)
(76.2 0 0)
(76.2 0 0)
(76.2 0 0)
(76.2 0 0)
(76.2 0 0)
(76.2 0 0)
(76.2 0 0)
(76.2 0 0)
(76.2 0 0)
(76.2 0 0)
(76.2 0 0)
(76.2 0 0)
(76.2 0 0)
(76.2 0 0)
(76.2 0 0)
(76.2 0 0)
(76.2 0 0)
(76.2 0 0)
(76.2 0 0)
(76.2 0 0)
(76.2 0 0)
(76.2 0 0)
(76.2 0 0)
(76.2 0 0)
(76.2 0 0)
(76.2 0 0)
(76.2 0 0)
(76.2 0 0)
(76.2 0 0)
(76.2 0 0)
(76.2 0 0)
(76.2 0 0)
(76.2 0 0)
(76.2 0 0)
(76.2 0 0)
(76.2 0 0)
(76.2 0 0)
(76.2 0 0)
(76.2 0 0)
(76.2 0 0)
(76.2 0 0)
(76.2 0 0)
(76.2 0 0)
(76.2 0 0)
(76.2 0 0)
(76.2 0 0)
(76.2 0 0)
(76.2 0 0)
(76.2 0 0)
(76.2 0 0)
(76.2 0 0)
(76.2 0 0)
(76.2 0 0)
(76.2 0 0)
(76.2 0 0)
(76.2 0 0)
(76.2 0 0)
(76.2 0 0)
(76.2 0 0)
(76.2 0 0)
(76.2 0 0)
(76.2 0 0)
(76.2 0 0)
(76.2 0 0)
(76.2 0 0)
(76.2 0 0)
(76.2 0 0)
(76.2 0 0)
(76.2 0 0)
(76.2 0 0)
(76.2 0 0)
(76.2 0 0)
(76.2 0 0)
(76.2 0 0)
(76.2 0 0)
(76.2 0 0)
(76.2 0 0)
(76.2 0 0)
(76.2 0 0)
(76.2 0 0)
(76.2 0 0)
(76.2 0 0)
(76.2 0 0)
(76.2 0 0)
(76.2 0 0)
(76.2 0 0)
(76.2 0 0)
(76.2 0 0)
(76.2 0 0)
(76.2 0 0)
(76.2 0 0)
(76.2 0 0)
(76.2 0 0)
(76.2 0 0)
(76.2 0 0)
(76.2 0 0)
(76.2 0 0)
(76.2 0 0)
(76.2 0 0)
(76.2 0 0)
(76.2 0 0)
(76.2 0 0)
(76.2 0 0)
(76.2 0 0)
(76.2 0 0)
(76.2 0 0)
(76.2 0 0)
(76.2 0 0)
(76.2 0 0)
(76.2 0 0)
(76.2 0 0)
(76.2 0 0)
(76.2 0 0)
(76.2 0 0)
(76.2 0 0)
(76.2 0 0)
(76.2 0 0)
(76.2 0 0)
(76.2 0 0)
(76.2 0 0)
(76.2 0 0)
(76.2 0 0)
(76.2 0 0)
(76.2 0 0)
(76.2 0 0)
(76.2 0 0)
(76.2 0 0)
(76.2 0 0)
(76.2 0 0)
(76.2 0 0)
(76.2 0 0)
(76.2 0 0)
(76.2 0 0)
(76.2 0 0)
(76.2 0 0)
(76.2 0 0)
(76.2 0 0)
(76.2 0 0)
(76.2 0 0)
(76.2 0 0)
(76.2 0 0)
(76.2 0 0)
(76.2 0 0)
(76.2 0 0)
(76.2 0 0)
(76.2 0 0)
(76.2 0 0)
(76.2 0 0)
(76.2 0 0)
(76.2 0 0)
(76.2 0 0)
(76.2 0 0)
(76.2 0 0)
(76.2 0 0)
(76.2 0 0)
(76.2 0 0)
(76.2 0 0)
(76.2 0 0)
(76.2 0 0)
(76.2 0 0)
(76.2 0 0)
(76.2 0 0)
(76.2 0 0)
(76.2 0 0)
(76.2 0 0)
(76.2 0 0)
(76.2 0 0)
(76.2 0 0)
(76.2 0 0)
(76.2 0 0)
(76.2 0 0)
(76.2 0 0)
(76.2 0 0)
(76.2 0 0)
(76.2 0 0)
(76.2 0 0)
(76.2 0 0)
(76.2 0 0)
(76.2 0 0)
(76.2 0 0)
(76.2 0 0)
(76.2 0 0)
(76.2 0 0)
(76.2 0 0)
(76.2 0 0)
(76.2 0 0)
(76.2 0 0)
(76.2 0 0)
(76.2 0 0)
(76.2 0 0)
(76.2 0 0)
(76.2 0 0)
(76.2 0 0)
(76.2 0 0)
(76.2 0 0)
(76.2 0 0)
(76.2 0 0)
(76.2 0 0)
(76.2 0 0)
(76.2 0 0)
(76.2 0 0)
(76.2 0 0)
(76.2 0 0)
(76.2 0 0)
(76.2 0 0)
(76.2 0 0)
(76.2 0 0)
(76.2 0 0)
(76.2 0 0)
(76.2 0 0)
(76.2 0 0)
(76.2 0 0)
(76.2 0 0)
(76.2 0 0)
(76.2 0 0)
(76.2 0 0)
(76.2 0 0)
(76.2 0 0)
(76.2 0 0)
(76.2 0 0)
(76.2 0 0)
(76.2 0 0)
(76.2 0 0)
(76.2 0 0)
(76.2 0 0)
(76.2 0 0)
(76.2 0 0)
(76.2 0 0)
(76.2 0 0)
(76.2 0 0)
(76.2 0 0)
(76.2 0 0)
(76.2 0 0)
(76.2 0 0)
(76.2 0 0)
(76.2 0 0)
(76.2 0 0)
(76.2 0 0)
(76.2 0 0)
(76.2 0 0)
(76.2 0 0)
(76.2 0 0)
(76.2 0 0)
(76.2 0 0)
(76.2 0 0)
(76.2 0 0)
(76.2 0 0)
(76.2 0 0)
(76.2 0 0)
(76.2 0 0)
(76.2 0 0)
(76.2 0 0)
(76.2 0 0)
(76.2 0 0)
(76.2 0 0)
(76.2 0 0)
(76.2 0 0)
(76.2 0 0)
(76.2 0 0)
(76.2 0 0)
(76.2 0 0)
(76.2 0 0)
(76.2 0 0)
(76.2 0 0)
(76.2 0 0)
(76.2 0 0)
(76.2 0 0)
(76.2 0 0)
(76.2 0 0)
(76.2 0 0)
(76.2 0 0)
(76.2 0 0)
(76.2 0 0)
(76.2 0 0)
(76.2 0 0)
(76.2 0 0)
(76.2 0 0)
(76.2 0 0)
(76.2 0 0)
(76.2 0 0)
(76.2 0 0)
(76.2 0 0)
(76.2 0 0)
(76.2 0 0)
(76.2 0 0)
(76.2 0 0)
(76.2 0 0)
(76.2 0 0)
(76.2 0 0)
(76.2 0 0)
(76.2 0 0)
(76.2 0 0)
(76.2 0 0)
(76.2 0 0)
(76.2 0 0)
(76.2 0 0)
(76.2 0 0)
(76.2 0 0)
(76.2 0 0)
(76.2 0 0)
(76.2 0 0)
(76.2 0 0)
(76.2 0 0)
(76.2 0 0)
(76.2 0 0)
(76.2 0 0)
(76.2 0 0)
(76.2 0 0)
(76.2 0 0)
(76.2 0 0)
(76.2 0 0)
(76.2 0 0)
(76.2 0 0)
(76.2 0 0)
(76.2 0 0)
(76.2 0 0)
(76.2 0 0)
(76.2 0 0)
(76.2 0 0)
(76.2 0 0)
(76.2 0 0)
(76.2 0 0)
(76.2 0 0)
(76.2 0 0)
(76.2 0 0)
(76.2 0 0)
(76.2 0 0)
(76.2 0 0)
(76.2 0 0)
(76.2 0 0)
(76.2 0 0)
(76.2 0 0)
(76.2 0 0)
(76.2 0 0)
(76.2 0 0)
(76.2 0 0)
(76.2 0 0)
(76.2 0 0)
(76.2 0 0)
(76.2 0 0)
(76.2 0 0)
(76.2 0 0)
(76.2 0 0)
(76.2 0 0)
(76.2 0 0)
(76.2 0 0)
(76.2 0 0)
(76.2 0 0)
(76.2 0 0)
(76.2 0 0)
(76.2 0 0)
(76.2 0 0)
(76.2 0 0)
(76.2 0 0)
(76.2 0 0)
(76.2 0 0)
(76.2 0 0)
(76.2 0 0)
(76.2 0 0)
(76.2 0 0)
(76.2 0 0)
(76.2 0 0)
(76.2 0 0)
(76.2 0 0)
(76.2 0 0)
(76.2 0 0)
(76.2 0 0)
(76.2 0 0)
(76.2 0 0)
(76.2 0 0)
(76.2 0 0)
(76.2 0 0)
(76.2 0 0)
(76.2 0 0)
(76.2 0 0)
(76.2 0 0)
(76.2 0 0)
(76.2 0 0)
(76.2 0 0)
(76.2 0 0)
(76.2 0 0)
(76.2 0 0)
(76.2 0 0)
(76.2 0 0)
(76.2 0 0)
(76.2 0 0)
(76.2 0 0)
(76.2 0 0)
(76.2 0 0)
(76.2 0 0)
(76.2 0 0)
(76.2 0 0)
(76.2 0 0)
(76.2 0 0)
(76.2 0 0)
(76.2 0 0)
(76.2 0 0)
(76.2 0 0)
(76.2 0 0)
(76.2 0 0)
(76.2 0 0)
(76.2 0 0)
(76.2 0 0)
(76.2 0 0)
(76.2 0 0)
(76.2 0 0)
(76.2 0 0)
(76.2 0 0)
(76.2 0 0)
(76.2 0 0)
(76.2 0 0)
(76.2 0 0)
(76.2 0 0)
(76.2 0 0)
(76.2 0 0)
(76.2 0 0)
(76.2 0 0)
(76.2 0 0)
(76.2 0 0)
(76.2 0 0)
(76.2 0 0)
(76.2 0 0)
(76.2 0 0)
(76.2 0 0)
(76.2 0 0)
(76.2 0 0)
(76.2 0 0)
(76.2 0 0)
(76.2 0 0)
(76.2 0 0)
(76.2 0 0)
(76.2 0 0)
(76.2 0 0)
(76.2 0 0)
(76.2 0 0)
(76.2 0 0)
(76.2 0 0)
(76.2 0 0)
(76.2 0 0)
(76.2 0 0)
(76.2 0 0)
(76.2 0 0)
(76.2 0 0)
(76.2 0 0)
(76.1999 0 0)
(76.1999 0 0)
(76.1999 0 0)
(76.1998 0 0)
(76.1998 0 0)
(76.1996 0 0)
(76.1995 0 0)
(76.1992 0 0)
(76.1989 0 0)
(76.1984 0 0)
(76.1977 0 0)
(76.1967 0 0)
(76.1953 0 0)
(76.1933 0 0)
(76.1906 0 0)
(76.1868 0 0)
(76.1815 0 0)
(76.1742 0 0)
(76.1642 0 0)
(76.1506 0 0)
(76.1321 0 0)
(76.107 0 0)
(76.0732 0 0)
(76.028 0 0)
(75.9675 0 0)
(75.8872 0 0)
(75.7811 0 0)
(75.6414 0 0)
(75.4586 0 0)
(75.2204 0 0)
(74.9118 0 0)
(74.5142 0 0)
(74.0051 0 0)
(73.3574 0 0)
(72.5394 0 0)
(71.5146 0 0)
(70.2421 0 0)
(68.6784 0 0)
(66.7792 0 0)
(64.5031 0 0)
(61.8165 0 0)
(58.6999 0 0)
(55.1541 0 0)
(51.2064 0 0)
(46.9142 0 0)
(42.3648 0 0)
(37.6712 0 0)
(32.962 0 0)
(28.3687 0 0)
(24.0123 0 0)
(19.9914 0 0)
(16.375 0 0)
(13.2004 0 0)
(10.4754 0 0)
(8.18373 0 0)
(6.29191 0 0)
(4.75622 0 0)
(3.52844 0 0)
(2.56047 0 0)
(1.80754 0 0)
(1.23004 0 0)
(0.794458 0 0)
(0.473538 0 0)
(0.245951 0 0)
(0.0955367 0 0)
(0.0101668 0 0)
(-0.021823 0 0)
(-0.0250287 0 0)
(-0.0208988 0 0)
(-0.0137794 0 0)
(-0.00594906 0 0)
(0.00162981 0 0)
(0.00860896 0 0)
(0.0139393 0 0)
(0.0174556 0 0)
(0.0200306 0 0)
(0.0218565 0 0)
(0.0227255 0 0)
(0.0233597 0 0)
(0.0236099 0 0)
(0.0234019 0 0)
(0.0233515 0 0)
(0.0230215 0 0)
(0.0225454 0 0)
(0.0222844 0 0)
(0.021779 0 0)
(0.021237 0 0)
(0.0209107 0 0)
(0.020434 0 0)
(0.0199299 0 0)
(0.0195701 0 0)
(0.0191694 0 0)
(0.0187076 0 0)
(0.0183259 0 0)
(0.0180411 0 0)
(0.0175697 0 0)
(0.0172778 0 0)
(0.0169821 0 0)
(0.0165655 0 0)
(0.0163647 0 0)
(0.0160054 0 0)
(0.0156871 0 0)
(0.0154877 0 0)
(0.0151557 0 0)
(0.0148685 0 0)
(0.0147138 0 0)
(0.0143434 0 0)
(0.014136 0 0)
(0.0140015 0 0)
(0.0135834 0 0)
(0.0134687 0 0)
(0.0132927 0 0)
(0.012959 0 0)
(0.0127787 0 0)
(0.0126633 0 0)
(0.0123564 0 0)
(0.0121363 0 0)
(0.0120693 0 0)
(0.0117979 0 0)
(0.0114948 0 0)
(0.0115637 0 0)
(0.0112213 0 0)
(0.0109468 0 0)
(0.0110366 0 0)
(0.0106975 0 0)
(0.0105144 0 0)
(0.0104695 0 0)
(0.0102446 0 0)
(0.0100272 0 0)
(0.00998069 0 0)
(0.00979893 0 0)
(0.00957465 0 0)
(0.00953431 0 0)
(0.00935752 0 0)
(0.00912874 0 0)
(0.00916707 0 0)
(0.00885329 0 0)
(0.00882795 0 0)
(0.008649 0 0)
(0.00850357 0 0)
(0.008449 0 0)
(0.00817232 0 0)
(0.00823757 0 0)
(0.00793684 0 0)
(0.00786797 0 0)
(0.00781302 0 0)
(0.00758847 0 0)
(0.00751088 0 0)
(0.0074235 0 0)
(0.00725937 0 0)
(0.00717555 0 0)
(0.00701263 0 0)
(0.00694244 0 0)
(0.00684563 0 0)
(0.00661825 0 0)
(0.00666544 0 0)
(0.00645635 0 0)
(0.00638465 0 0)
(0.00622746 0 0)
(0.0062366 0 0)
(0.00600754 0 0)
(0.00597977 0 0)
(0.00584893 0 0)
(0.00578728 0 0)
(0.00563807 0 0)
(0.00556053 0 0)
(0.00546777 0 0)
(0.00537244 0 0)
(0.0052652 0 0)
(0.00515044 0 0)
(0.00509919 0 0)
(0.00495944 0 0)
(0.00490583 0 0)
(0.00474327 0 0)
(0.00474799 0 0)
(0.00454414 0 0)
(0.00458897 0 0)
(0.00430225 0 0)
(0.0044537 0 0)
(0.00413939 0 0)
(0.00420873 0 0)
(0.00403444 0 0)
(0.00395771 0 0)
(0.00393263 0 0)
(0.00367539 0 0)
(0.00386653 0 0)
(0.00341769 0 0)
(0.0037038 0 0)
(0.00333243 0 0)
(0.00325213 0 0)
(0.00409983 0 0)
(0.000597321 0 0)
(0.00832042 0 0)
(-0.00562972 0 0)
(0.0158206 0 0)
(-0.0148585 0 0)
(0.0260512 0 0)
(-0.027146 0 0)
(0.0407267 0 0)
(-0.0456792 0 0)
(0.0631314 0 0)
(-0.0733253 0 0)
(0.0961372 0 0)
(-0.11322 0 0)
(0.143141 0 0)
(-0.168959 0 0)
(0.207888 0 0)
(-0.244329 0 0)
(0.294124 0 0)
(-0.342896 0 0)
(0.405107 0 0)
(-0.467453 0 0)
(0.542998 0 0)
(-0.61937 0 0)
(0.708194 0 0)
(-0.797926 0 0)
(0.898696 0 0)
(-0.999742 0 0)
(1.10965 0 0)
(-1.21845 0 0)
(1.33316 0 0)
(-1.44471 0 0)
(1.55857 0 0)
(-1.66668 0 0)
(1.77311 0 0)
(-1.87095 0 0)
(1.96304 0 0)
(-2.04379 0 0)
(2.11504 0 0)
(-2.17268 0 0)
(2.21777 0 0)
(-2.2478 0 0)
(2.26324 0 0)
)
;

boundaryField
{
    inlet
    {
        type            fixedValue;
        value           uniform (76.2 0 0);
    }
    backWall
    {
        type            fixedValue;
        value           uniform (0 0 0);
    }
    sides
    {
        type            empty;
    }
}


// ************************************************************************* //
