/*--------------------------------*- C++ -*----------------------------------*\
| =========                 |                                                 |
| \\      /  F ield         | OpenFOAM: The Open Source CFD Toolbox           |
|  \\    /   O peration     | Version:  3.0.x                                 |
|   \\  /    A nd           | Web:      www.OpenFOAM.org                      |
|    \\/     M anipulation  |                                                 |
\*---------------------------------------------------------------------------*/
FoamFile
{
    version     2.0;
    format      ascii;
    class       volScalarField;
    location    "0.31005";
    object      rho;
}
// * * * * * * * * * * * * * * * * * * * * * * * * * * * * * * * * * * * * * //

dimensions      [1 -3 0 0 0 0 0];

internalField   nonuniform List<scalar> 
13800
(
50.609
50.609
50.609
50.609
50.609
50.609
50.609
50.609
50.609
50.609
50.609
50.609
50.6089
50.6088
50.6088
50.6088
50.6088
50.6088
50.6089
50.6091
50.6092
50.6093
50.6094
50.6095
50.6095
50.6095
50.6095
50.6095
50.6095
50.6095
50.6095
50.6095
50.6095
50.6094
50.6093
50.6093
50.6093
50.6093
50.6094
50.6096
50.6097
50.6098
50.6098
50.6098
50.6098
50.6098
50.6098
50.6098
50.6099
50.61
50.6102
50.6103
50.6104
50.6105
50.6105
50.6106
50.6106
50.6107
50.6107
50.6107
50.6107
50.6107
50.6107
50.6105
50.6105
50.6104
50.6104
50.6105
50.6105
50.6106
50.6107
50.6109
50.611
50.6111
50.6112
50.6113
50.6113
50.6114
50.6114
50.6115
50.6115
50.6115
50.6116
50.6116
50.6116
50.6117
50.6117
50.6118
50.6118
50.6119
50.6119
50.612
50.6121
50.6121
50.6122
50.6123
50.6123
50.6124
50.6125
50.6126
50.6127
50.6128
50.6129
50.613
50.6132
50.6133
50.6135
50.6136
50.6138
50.614
50.6142
50.6144
50.6147
50.6149
50.6152
50.6154
50.6157
50.616
50.6164
50.6167
50.617
50.6174
50.6178
50.6181
50.6185
50.6189
50.6193
50.6197
50.6201
50.6206
50.621
50.6214
50.6218
50.6222
50.6226
50.623
50.6233
50.6237
50.624
50.6243
50.6246
50.6249
50.6251
50.6253
50.6255
50.6256
50.6257
50.6257
50.6257
50.6257
50.6256
50.6255
50.6253
50.6251
50.6249
50.6246
50.6242
50.6238
50.6234
50.6229
50.6224
50.6219
50.6213
50.6207
50.62
50.6194
50.6187
50.618
50.6172
50.6165
50.6157
50.6149
50.6141
50.6134
50.6126
50.6118
50.611
50.6102
50.6094
50.6087
50.6079
50.6072
50.6065
50.6057
50.6051
50.6044
50.6037
50.6031
50.6025
50.6019
50.6014
50.6009
50.6004
50.5999
50.5994
50.599
50.5987
50.5985
50.6019
50.5926
50.6101
50.6101
50.6101
50.6101
50.6101
50.6101
50.6101
50.6101
50.6101
50.61
50.61
50.61
50.6099
50.6098
50.6098
50.6097
50.6097
50.6098
50.6099
50.6101
50.6102
50.6103
50.6104
50.6104
50.6104
50.6104
50.6105
50.6105
50.6105
50.6105
50.6105
50.6105
50.6104
50.6103
50.6102
50.6102
50.6102
50.6102
50.6103
50.6104
50.6106
50.6106
50.6107
50.6107
50.6106
50.6106
50.6106
50.6107
50.6107
50.6109
50.611
50.6111
50.6112
50.6113
50.6113
50.6114
50.6114
50.6115
50.6115
50.6115
50.6115
50.6115
50.6115
50.6113
50.6113
50.6112
50.6112
50.6112
50.6113
50.6114
50.6115
50.6116
50.6117
50.6118
50.6119
50.612
50.612
50.6121
50.6121
50.6122
50.6122
50.6122
50.6123
50.6123
50.6123
50.6124
50.6124
50.6125
50.6125
50.6126
50.6126
50.6127
50.6127
50.6128
50.6128
50.6129
50.613
50.6131
50.6132
50.6133
50.6134
50.6135
50.6136
50.6137
50.6138
50.614
50.6141
50.6143
50.6145
50.6147
50.6149
50.6151
50.6153
50.6156
50.6158
50.6161
50.6164
50.6167
50.617
50.6173
50.6177
50.6181
50.6184
50.6188
50.6192
50.6196
50.62
50.6204
50.6208
50.6212
50.6216
50.6221
50.6225
50.6229
50.6233
50.6236
50.624
50.6244
50.6247
50.625
50.6253
50.6255
50.6258
50.626
50.6261
50.6263
50.6263
50.6264
50.6264
50.6264
50.6263
50.6262
50.626
50.6258
50.6255
50.6252
50.6249
50.6245
50.6241
50.6236
50.6231
50.6225
50.622
50.6214
50.6207
50.62
50.6193
50.6186
50.6179
50.6171
50.6164
50.6156
50.6148
50.614
50.6132
50.6124
50.6117
50.6109
50.6101
50.6093
50.6086
50.6078
50.6071
50.6064
50.6057
50.6051
50.6044
50.6038
50.6032
50.6026
50.6021
50.6015
50.601
50.6005
50.6001
50.5997
50.5994
50.599
50.6026
50.5897
50.6101
50.6101
50.6101
50.6101
50.6101
50.6101
50.6101
50.6101
50.6101
50.61
50.61
50.61
50.6099
50.6098
50.6098
50.6097
50.6097
50.6098
50.6099
50.6101
50.6102
50.6103
50.6104
50.6104
50.6104
50.6104
50.6105
50.6105
50.6105
50.6105
50.6105
50.6105
50.6104
50.6103
50.6102
50.6102
50.6102
50.6102
50.6103
50.6104
50.6106
50.6106
50.6107
50.6107
50.6106
50.6106
50.6106
50.6107
50.6107
50.6109
50.611
50.6111
50.6112
50.6113
50.6113
50.6114
50.6114
50.6115
50.6115
50.6115
50.6115
50.6115
50.6115
50.6113
50.6113
50.6112
50.6112
50.6112
50.6113
50.6114
50.6115
50.6116
50.6117
50.6118
50.6119
50.612
50.6121
50.6121
50.6121
50.6122
50.6122
50.6122
50.6123
50.6123
50.6123
50.6124
50.6124
50.6125
50.6125
50.6126
50.6126
50.6127
50.6127
50.6128
50.6128
50.6129
50.613
50.6131
50.6132
50.6133
50.6134
50.6135
50.6136
50.6137
50.6138
50.614
50.6141
50.6143
50.6145
50.6147
50.6149
50.6151
50.6153
50.6156
50.6158
50.6161
50.6164
50.6167
50.617
50.6174
50.6177
50.6181
50.6184
50.6188
50.6192
50.6196
50.62
50.6204
50.6208
50.6212
50.6216
50.6221
50.6225
50.6229
50.6233
50.6236
50.624
50.6244
50.6247
50.625
50.6253
50.6255
50.6258
50.626
50.6261
50.6263
50.6263
50.6264
50.6264
50.6264
50.6263
50.6262
50.626
50.6258
50.6255
50.6252
50.6249
50.6245
50.6241
50.6236
50.6231
50.6225
50.622
50.6214
50.6207
50.62
50.6193
50.6186
50.6179
50.6171
50.6164
50.6156
50.6148
50.614
50.6132
50.6124
50.6117
50.6109
50.6101
50.6093
50.6086
50.6078
50.6071
50.6064
50.6057
50.6051
50.6044
50.6038
50.6032
50.6026
50.6021
50.6015
50.601
50.6005
50.6001
50.5997
50.5994
50.599
50.6025
50.5901
50.6101
50.6101
50.6101
50.6101
50.6101
50.6101
50.6101
50.61
50.61
50.61
50.61
50.61
50.6099
50.6098
50.6098
50.6097
50.6097
50.6098
50.6099
50.6101
50.6102
50.6103
50.6104
50.6104
50.6104
50.6104
50.6105
50.6105
50.6105
50.6105
50.6105
50.6105
50.6104
50.6103
50.6102
50.6102
50.6102
50.6102
50.6103
50.6104
50.6106
50.6106
50.6107
50.6107
50.6106
50.6106
50.6106
50.6107
50.6107
50.6109
50.611
50.6111
50.6112
50.6113
50.6113
50.6114
50.6114
50.6115
50.6115
50.6115
50.6115
50.6115
50.6115
50.6113
50.6113
50.6112
50.6112
50.6112
50.6113
50.6114
50.6115
50.6116
50.6117
50.6118
50.6119
50.612
50.612
50.6121
50.6121
50.6122
50.6122
50.6122
50.6123
50.6123
50.6123
50.6124
50.6124
50.6125
50.6125
50.6126
50.6126
50.6127
50.6127
50.6128
50.6128
50.6129
50.613
50.6131
50.6132
50.6133
50.6134
50.6135
50.6136
50.6137
50.6138
50.614
50.6141
50.6143
50.6145
50.6147
50.6149
50.6151
50.6153
50.6156
50.6158
50.6161
50.6164
50.6167
50.617
50.6174
50.6177
50.6181
50.6184
50.6188
50.6192
50.6196
50.62
50.6204
50.6208
50.6212
50.6216
50.6221
50.6225
50.6229
50.6233
50.6236
50.624
50.6244
50.6247
50.625
50.6253
50.6255
50.6258
50.626
50.6261
50.6263
50.6263
50.6264
50.6264
50.6264
50.6263
50.6262
50.626
50.6258
50.6255
50.6252
50.6249
50.6245
50.6241
50.6236
50.6231
50.6225
50.622
50.6214
50.6207
50.62
50.6193
50.6186
50.6179
50.6171
50.6164
50.6156
50.6148
50.614
50.6132
50.6124
50.6117
50.6109
50.6101
50.6093
50.6086
50.6078
50.6071
50.6064
50.6057
50.6051
50.6044
50.6038
50.6032
50.6026
50.6021
50.6015
50.601
50.6005
50.6001
50.5997
50.5993
50.5991
50.6019
50.594
50.6101
50.6101
50.6101
50.6101
50.6101
50.6101
50.61
50.61
50.61
50.61
50.61
50.61
50.6099
50.6098
50.6098
50.6097
50.6097
50.6098
50.6099
50.6101
50.6102
50.6103
50.6104
50.6104
50.6104
50.6104
50.6104
50.6105
50.6105
50.6105
50.6105
50.6104
50.6104
50.6103
50.6102
50.6102
50.6102
50.6102
50.6103
50.6104
50.6105
50.6106
50.6106
50.6106
50.6106
50.6106
50.6106
50.6107
50.6107
50.6109
50.611
50.6111
50.6112
50.6113
50.6113
50.6114
50.6114
50.6115
50.6115
50.6115
50.6115
50.6115
50.6115
50.6113
50.6113
50.6112
50.6112
50.6112
50.6113
50.6114
50.6115
50.6116
50.6117
50.6118
50.6119
50.612
50.612
50.6121
50.6121
50.6122
50.6122
50.6122
50.6123
50.6123
50.6123
50.6124
50.6124
50.6125
50.6125
50.6126
50.6126
50.6127
50.6127
50.6128
50.6128
50.6129
50.613
50.6131
50.6132
50.6133
50.6134
50.6135
50.6136
50.6137
50.6138
50.614
50.6141
50.6143
50.6145
50.6147
50.6149
50.6151
50.6153
50.6156
50.6158
50.6161
50.6164
50.6167
50.617
50.6174
50.6177
50.6181
50.6184
50.6188
50.6192
50.6196
50.62
50.6204
50.6208
50.6212
50.6216
50.6221
50.6225
50.6229
50.6233
50.6236
50.624
50.6244
50.6247
50.625
50.6253
50.6255
50.6258
50.626
50.6261
50.6263
50.6263
50.6264
50.6264
50.6264
50.6263
50.6262
50.626
50.6258
50.6255
50.6252
50.6249
50.6245
50.6241
50.6236
50.6231
50.6225
50.622
50.6214
50.6207
50.62
50.6193
50.6186
50.6179
50.6171
50.6164
50.6156
50.6148
50.614
50.6132
50.6124
50.6117
50.6109
50.6101
50.6093
50.6086
50.6078
50.6071
50.6064
50.6057
50.6051
50.6044
50.6038
50.6032
50.6026
50.6021
50.6015
50.601
50.6005
50.6001
50.5997
50.5993
50.5988
50.6001
50.592
50.6101
50.6101
50.6101
50.6101
50.6101
50.6101
50.61
50.61
50.61
50.61
50.61
50.61
50.6099
50.6098
50.6098
50.6097
50.6097
50.6098
50.6099
50.6101
50.6102
50.6103
50.6104
50.6104
50.6104
50.6104
50.6104
50.6105
50.6105
50.6105
50.6105
50.6104
50.6104
50.6103
50.6102
50.6102
50.6102
50.6102
50.6103
50.6104
50.6105
50.6106
50.6106
50.6106
50.6106
50.6106
50.6106
50.6107
50.6107
50.6109
50.611
50.6111
50.6112
50.6113
50.6113
50.6114
50.6114
50.6115
50.6115
50.6115
50.6115
50.6115
50.6115
50.6113
50.6113
50.6112
50.6112
50.6112
50.6113
50.6114
50.6115
50.6116
50.6117
50.6118
50.6119
50.612
50.612
50.6121
50.6121
50.6122
50.6122
50.6122
50.6123
50.6123
50.6123
50.6124
50.6124
50.6125
50.6125
50.6126
50.6126
50.6127
50.6127
50.6128
50.6128
50.6129
50.613
50.6131
50.6132
50.6133
50.6134
50.6135
50.6136
50.6137
50.6138
50.614
50.6141
50.6143
50.6145
50.6147
50.6149
50.6151
50.6153
50.6156
50.6158
50.6161
50.6164
50.6167
50.617
50.6174
50.6177
50.6181
50.6184
50.6188
50.6192
50.6196
50.62
50.6204
50.6208
50.6212
50.6216
50.6221
50.6225
50.6229
50.6233
50.6236
50.624
50.6244
50.6247
50.625
50.6253
50.6255
50.6258
50.626
50.6261
50.6263
50.6263
50.6264
50.6264
50.6264
50.6263
50.6262
50.626
50.6258
50.6255
50.6252
50.6249
50.6245
50.6241
50.6236
50.6231
50.6225
50.622
50.6214
50.6207
50.62
50.6193
50.6186
50.6179
50.6171
50.6164
50.6156
50.6148
50.614
50.6132
50.6124
50.6117
50.6109
50.6101
50.6093
50.6086
50.6078
50.6071
50.6064
50.6057
50.6051
50.6044
50.6038
50.6032
50.6026
50.6021
50.6015
50.601
50.6005
50.6001
50.5996
50.5992
50.5986
50.5975
50.5953
50.6101
50.6101
50.6101
50.6101
50.6101
50.6101
50.6101
50.61
50.61
50.61
50.61
50.61
50.6099
50.6098
50.6098
50.6097
50.6097
50.6098
50.6099
50.6101
50.6102
50.6103
50.6104
50.6104
50.6104
50.6104
50.6105
50.6105
50.6105
50.6105
50.6105
50.6105
50.6104
50.6103
50.6102
50.6102
50.6102
50.6102
50.6103
50.6104
50.6106
50.6106
50.6107
50.6107
50.6106
50.6106
50.6106
50.6107
50.6107
50.6109
50.611
50.6111
50.6112
50.6113
50.6113
50.6114
50.6114
50.6115
50.6115
50.6115
50.6115
50.6115
50.6115
50.6113
50.6113
50.6112
50.6112
50.6112
50.6113
50.6114
50.6115
50.6116
50.6117
50.6118
50.6119
50.612
50.612
50.6121
50.6121
50.6122
50.6122
50.6122
50.6123
50.6123
50.6123
50.6124
50.6124
50.6125
50.6125
50.6126
50.6126
50.6127
50.6127
50.6128
50.6128
50.6129
50.613
50.6131
50.6132
50.6133
50.6134
50.6135
50.6136
50.6137
50.6138
50.614
50.6141
50.6143
50.6145
50.6147
50.6149
50.6151
50.6153
50.6156
50.6158
50.6161
50.6164
50.6167
50.617
50.6174
50.6177
50.6181
50.6184
50.6188
50.6192
50.6196
50.62
50.6204
50.6208
50.6212
50.6216
50.6221
50.6225
50.6229
50.6233
50.6236
50.624
50.6244
50.6247
50.625
50.6253
50.6255
50.6258
50.626
50.6261
50.6263
50.6263
50.6264
50.6264
50.6264
50.6263
50.6262
50.626
50.6258
50.6255
50.6252
50.6249
50.6245
50.6241
50.6236
50.6231
50.6225
50.622
50.6214
50.6207
50.62
50.6193
50.6186
50.6179
50.6171
50.6164
50.6156
50.6148
50.614
50.6132
50.6124
50.6117
50.6109
50.6101
50.6093
50.6086
50.6078
50.6071
50.6064
50.6057
50.6051
50.6044
50.6038
50.6032
50.6026
50.6021
50.6015
50.601
50.6005
50.6001
50.5996
50.5991
50.5987
50.5945
50.6059
50.6101
50.6101
50.6101
50.6101
50.6101
50.6101
50.6101
50.6101
50.6101
50.61
50.61
50.61
50.6099
50.6098
50.6098
50.6097
50.6097
50.6098
50.6099
50.6101
50.6102
50.6103
50.6104
50.6104
50.6104
50.6104
50.6105
50.6105
50.6105
50.6105
50.6105
50.6105
50.6104
50.6103
50.6102
50.6102
50.6102
50.6102
50.6103
50.6104
50.6106
50.6106
50.6107
50.6107
50.6106
50.6106
50.6106
50.6107
50.6107
50.6109
50.611
50.6111
50.6112
50.6113
50.6113
50.6114
50.6114
50.6115
50.6115
50.6115
50.6115
50.6115
50.6115
50.6113
50.6113
50.6112
50.6112
50.6112
50.6113
50.6114
50.6115
50.6116
50.6117
50.6118
50.6119
50.612
50.6121
50.6121
50.6121
50.6122
50.6122
50.6122
50.6123
50.6123
50.6123
50.6124
50.6124
50.6125
50.6125
50.6126
50.6126
50.6127
50.6127
50.6128
50.6128
50.6129
50.613
50.6131
50.6132
50.6133
50.6134
50.6135
50.6136
50.6137
50.6138
50.614
50.6141
50.6143
50.6145
50.6147
50.6149
50.6151
50.6153
50.6156
50.6158
50.6161
50.6164
50.6167
50.617
50.6174
50.6177
50.6181
50.6184
50.6188
50.6192
50.6196
50.62
50.6204
50.6208
50.6212
50.6216
50.6221
50.6225
50.6229
50.6233
50.6236
50.624
50.6244
50.6247
50.625
50.6253
50.6255
50.6258
50.626
50.6261
50.6263
50.6263
50.6264
50.6264
50.6264
50.6263
50.6262
50.626
50.6258
50.6255
50.6252
50.6249
50.6245
50.6241
50.6236
50.6231
50.6225
50.622
50.6214
50.6207
50.62
50.6193
50.6186
50.6179
50.6171
50.6164
50.6156
50.6148
50.614
50.6132
50.6124
50.6117
50.6109
50.6101
50.6093
50.6086
50.6078
50.6071
50.6064
50.6057
50.6051
50.6044
50.6038
50.6032
50.6026
50.6021
50.6015
50.601
50.6005
50.6001
50.5996
50.599
50.5992
50.5914
50.6348
50.6101
50.6101
50.6101
50.6101
50.6101
50.6101
50.6101
50.6101
50.6101
50.61
50.61
50.61
50.6099
50.6098
50.6098
50.6097
50.6097
50.6098
50.6099
50.6101
50.6102
50.6103
50.6104
50.6104
50.6104
50.6104
50.6105
50.6105
50.6105
50.6105
50.6105
50.6105
50.6104
50.6103
50.6102
50.6102
50.6102
50.6102
50.6103
50.6104
50.6106
50.6106
50.6107
50.6107
50.6106
50.6106
50.6106
50.6107
50.6107
50.6109
50.611
50.6111
50.6112
50.6113
50.6113
50.6114
50.6114
50.6115
50.6115
50.6115
50.6115
50.6115
50.6115
50.6113
50.6113
50.6112
50.6112
50.6112
50.6113
50.6114
50.6115
50.6116
50.6117
50.6118
50.6119
50.612
50.612
50.6121
50.6121
50.6122
50.6122
50.6122
50.6123
50.6123
50.6123
50.6124
50.6124
50.6125
50.6125
50.6126
50.6126
50.6127
50.6127
50.6128
50.6128
50.6129
50.613
50.6131
50.6132
50.6133
50.6134
50.6135
50.6136
50.6137
50.6138
50.614
50.6141
50.6143
50.6145
50.6147
50.6149
50.6151
50.6153
50.6156
50.6158
50.6161
50.6164
50.6167
50.617
50.6173
50.6177
50.6181
50.6184
50.6188
50.6192
50.6196
50.62
50.6204
50.6208
50.6212
50.6216
50.6221
50.6225
50.6229
50.6233
50.6236
50.624
50.6244
50.6247
50.625
50.6253
50.6255
50.6258
50.626
50.6261
50.6263
50.6263
50.6264
50.6264
50.6264
50.6263
50.6262
50.626
50.6258
50.6255
50.6252
50.6249
50.6245
50.6241
50.6236
50.6231
50.6225
50.622
50.6214
50.6207
50.62
50.6193
50.6186
50.6179
50.6171
50.6164
50.6156
50.6148
50.614
50.6132
50.6124
50.6117
50.6109
50.6101
50.6093
50.6086
50.6078
50.6071
50.6064
50.6057
50.6051
50.6044
50.6038
50.6032
50.6026
50.6021
50.6015
50.601
50.6005
50.6001
50.5996
50.599
50.5993
50.5897
50.6502
50.609
50.609
50.609
50.609
50.609
50.609
50.609
50.609
50.609
50.609
50.609
50.609
50.6089
50.6088
50.6088
50.6088
50.6088
50.6088
50.6089
50.6091
50.6092
50.6093
50.6094
50.6095
50.6095
50.6095
50.6095
50.6095
50.6095
50.6095
50.6095
50.6095
50.6095
50.6094
50.6093
50.6093
50.6093
50.6093
50.6094
50.6096
50.6097
50.6098
50.6098
50.6098
50.6098
50.6098
50.6098
50.6098
50.6099
50.61
50.6102
50.6103
50.6104
50.6105
50.6105
50.6106
50.6106
50.6107
50.6107
50.6107
50.6107
50.6107
50.6107
50.6105
50.6105
50.6104
50.6104
50.6105
50.6105
50.6106
50.6107
50.6109
50.611
50.6111
50.6112
50.6113
50.6113
50.6114
50.6114
50.6115
50.6115
50.6115
50.6116
50.6116
50.6116
50.6117
50.6117
50.6118
50.6118
50.6119
50.6119
50.612
50.6121
50.6121
50.6122
50.6123
50.6123
50.6124
50.6125
50.6126
50.6127
50.6128
50.6129
50.613
50.6132
50.6133
50.6135
50.6136
50.6138
50.614
50.6142
50.6144
50.6147
50.6149
50.6152
50.6154
50.6157
50.616
50.6164
50.6167
50.617
50.6174
50.6178
50.6181
50.6185
50.6189
50.6193
50.6197
50.6201
50.6206
50.621
50.6214
50.6218
50.6222
50.6226
50.623
50.6233
50.6237
50.624
50.6243
50.6246
50.6249
50.6251
50.6253
50.6255
50.6256
50.6257
50.6257
50.6257
50.6257
50.6256
50.6255
50.6253
50.6251
50.6249
50.6246
50.6242
50.6238
50.6234
50.6229
50.6224
50.6219
50.6213
50.6207
50.62
50.6194
50.6187
50.618
50.6172
50.6165
50.6157
50.6149
50.6141
50.6134
50.6126
50.6118
50.611
50.6102
50.6094
50.6087
50.6079
50.6072
50.6065
50.6057
50.6051
50.6044
50.6037
50.6031
50.6025
50.6019
50.6014
50.6009
50.6003
50.5999
50.5994
50.599
50.5983
50.5988
50.5875
50.6634
50.6873
50.7264
50.7393
50.741
50.7405
50.7401
50.7394
50.7382
50.7365
50.7347
50.7327
50.7306
50.7283
50.7256
50.7223
50.7181
50.7125
50.7051
50.6947
50.6788
50.6819
50.7165
50.7299
50.7323
50.7321
50.732
50.7316
50.7307
50.7292
50.7277
50.7259
50.7241
50.7218
50.7193
50.7159
50.7119
50.7062
50.6988
50.6881
50.6721
50.6765
50.7113
50.7267
50.73
50.7299
50.7298
50.7294
50.7283
50.7267
50.7251
50.7232
50.7212
50.7189
50.7163
50.713
50.7089
50.703
50.6951
50.6838
50.6664
50.6582
50.6778
50.684
50.6833
50.6819
50.681
50.6798
50.6782
50.6764
50.6744
50.6723
50.67
50.6675
50.6644
50.6607
50.6561
50.6509
50.6435
50.6335
50.6195
50.6273
50.6396
50.6489
50.6554
50.66
50.6629
50.6642
50.6646
50.6643
50.6636
50.6623
50.6604
50.6579
50.6547
50.6507
50.6456
50.6389
50.6313
50.6224
50.6119
50.5746
50.5649
50.5545
50.5437
50.5337
50.5253
50.519
50.5139
50.5096
50.506
50.5031
50.5011
50.4992
50.498
50.4964
50.4953
50.4947
50.4954
50.4963
50.5001
50.5163
50.495
50.4878
50.4885
50.4899
50.4907
50.491
50.4917
50.492
50.4924
50.4923
50.4924
50.492
50.4919
50.4917
50.4926
50.4938
50.497
50.5028
50.5136
50.447
50.39
50.3468
50.3177
50.2978
50.2824
50.2703
50.2616
50.2558
50.2522
50.2505
50.2505
50.2523
50.2565
50.2644
50.2745
50.2901
50.3077
50.3335
50.365
50.4323
50.3705
50.332
50.3101
50.2953
50.2843
50.2753
50.2694
50.2657
50.2646
50.2647
50.2666
50.2698
50.2753
50.2835
50.2947
50.3094
50.3271
50.3507
50.3805
50.4138
50.3275
50.2791
50.2508
50.2317
50.2156
50.2023
50.1924
50.1866
50.1814
50.1794
50.1783
50.1804
50.184
50.1918
50.203
50.2181
50.238
50.264
50.2995
50.6098
50.5699
50.5588
50.5556
50.5544
50.5538
50.5536
50.5534
50.5533
50.5532
50.5531
50.5531
50.5531
50.553
50.553
50.5529
50.5529
50.5528
50.5527
50.5526
50.5526
50.5525
50.5525
50.5524
50.5524
50.5524
50.5524
50.5524
50.5524
50.5524
50.5524
50.5524
50.5523
50.5523
50.5523
50.5523
50.5523
50.5523
50.5523
50.5524
50.5524
50.5524
50.5523
50.5523
50.5522
50.5522
50.5521
50.5521
50.5521
50.5521
50.5522
50.5522
50.5522
50.5523
50.5523
50.5523
50.5524
50.5524
50.5524
50.5524
50.5525
50.5525
50.5526
50.5526
50.5527
50.5527
50.5528
50.5528
50.5528
50.5528
50.5528
50.5528
50.5528
50.5529
50.5529
50.553
50.553
50.5531
50.5531
50.5532
50.5532
50.5533
50.5533
50.5534
50.5534
50.5535
50.5536
50.5537
50.5539
50.554
50.5542
50.5544
50.5545
50.5547
50.5549
50.5551
50.5553
50.5556
50.5561
50.5568
50.5576
50.5583
50.559
50.5595
50.5599
50.5602
50.5605
50.5607
50.5606
50.5596
50.5548
50.5375
50.4971
50.4525
50.4108
50.3747
50.3464
50.3267
50.3155
50.3111
50.311
50.3146
50.3328
50.3783
50.4253
50.4655
50.4977
50.5222
50.5398
50.5519
50.5597
50.5643
50.5668
50.568
50.5686
50.5688
50.5687
50.5683
50.5679
50.5676
50.5675
50.5674
50.5674
50.5674
50.5675
50.5676
50.5678
50.5679
50.5681
50.5683
50.5685
50.5688
50.569
50.5693
50.5695
50.5698
50.5701
50.5704
50.5707
50.571
50.5714
50.5717
50.572
50.5723
50.5727
50.573
50.5733
50.5736
50.574
50.5743
50.5746
50.5749
50.5752
50.5754
50.5757
50.576
50.5762
50.5764
50.5766
50.5768
50.577
50.5771
50.5773
50.5774
50.5775
50.5775
50.5776
50.5776
50.5776
50.5775
50.5775
50.5774
50.5773
50.5771
50.5769
50.5766
50.576
50.576
50.5657
50.6199
50.6097
50.5723
50.5615
50.5585
50.5575
50.557
50.5568
50.5566
50.5565
50.5564
50.5563
50.5563
50.5562
50.5562
50.5562
50.5561
50.5561
50.556
50.556
50.5559
50.5558
50.5557
50.5557
50.5557
50.5556
50.5556
50.5556
50.5557
50.5557
50.5556
50.5556
50.5556
50.5556
50.5556
50.5555
50.5555
50.5555
50.5555
50.5555
50.5556
50.5556
50.5556
50.5556
50.5556
50.5556
50.5555
50.5554
50.5554
50.5554
50.5554
50.5554
50.5555
50.5555
50.5555
50.5556
50.5556
50.5557
50.5557
50.5557
50.5558
50.5558
50.5558
50.5559
50.5559
50.556
50.5561
50.5561
50.5561
50.5562
50.5562
50.5562
50.5562
50.5562
50.5562
50.5563
50.5563
50.5564
50.5564
50.5565
50.5566
50.5566
50.5566
50.5567
50.5567
50.5568
50.5569
50.5569
50.557
50.5571
50.5573
50.5574
50.5575
50.5577
50.5578
50.558
50.5582
50.5584
50.5587
50.5591
50.5594
50.5598
50.5601
50.5604
50.5607
50.561
50.5613
50.5619
50.5632
50.566
50.5694
50.5727
50.5755
50.5775
50.5789
50.5795
50.5797
50.5795
50.5774
50.5696
50.5578
50.5474
50.5392
50.5337
50.5308
50.5299
50.5301
50.5317
50.5373
50.5452
50.5517
50.5568
50.5606
50.5633
50.5652
50.5664
50.5671
50.5675
50.5678
50.5679
50.568
50.568
50.568
50.568
50.5681
50.5682
50.5683
50.5684
50.5686
50.5688
50.569
50.5692
50.5694
50.5697
50.5699
50.5702
50.5705
50.5708
50.5711
50.5714
50.5717
50.572
50.5723
50.5727
50.573
50.5733
50.5737
50.574
50.5743
50.5746
50.5749
50.5752
50.5755
50.5758
50.5761
50.5764
50.5766
50.5769
50.5771
50.5773
50.5775
50.5776
50.5778
50.5779
50.578
50.5781
50.5782
50.5782
50.5782
50.5782
50.5782
50.5781
50.578
50.5779
50.5778
50.5776
50.5773
50.5766
50.5765
50.5675
50.6106
50.6096
50.5734
50.562
50.5584
50.5571
50.5565
50.5562
50.556
50.5559
50.5558
50.5556
50.5556
50.5555
50.5555
50.5555
50.5554
50.5554
50.5553
50.5553
50.5552
50.5551
50.5551
50.555
50.555
50.5549
50.5549
50.5549
50.5549
50.555
50.555
50.5549
50.5549
50.5549
50.5549
50.5549
50.5549
50.5548
50.5548
50.5549
50.5549
50.5549
50.5549
50.5549
50.5549
50.5549
50.5548
50.5548
50.5547
50.5547
50.5547
50.5547
50.5548
50.5548
50.5548
50.5549
50.5549
50.555
50.555
50.555
50.5551
50.5551
50.5552
50.5552
50.5553
50.5553
50.5554
50.5554
50.5555
50.5555
50.5555
50.5555
50.5555
50.5555
50.5556
50.5556
50.5556
50.5557
50.5557
50.5558
50.5559
50.5559
50.556
50.556
50.5561
50.5561
50.5562
50.5563
50.5564
50.5565
50.5566
50.5567
50.5568
50.557
50.5571
50.5573
50.5574
50.5576
50.5578
50.5581
50.5585
50.5589
50.5592
50.5596
50.5599
50.5602
50.5605
50.5608
50.5614
50.5626
50.5662
50.5719
50.5775
50.5824
50.5862
50.5888
50.5903
50.591
50.5912
50.591
50.5889
50.5821
50.5736
50.5664
50.5607
50.5568
50.5546
50.5537
50.5537
50.5541
50.5557
50.5586
50.5612
50.5631
50.5647
50.5658
50.5665
50.567
50.5673
50.5675
50.5677
50.5678
50.5678
50.5679
50.568
50.5681
50.5682
50.5684
50.5685
50.5687
50.5689
50.5692
50.5694
50.5697
50.5699
50.5702
50.5705
50.5708
50.5711
50.5714
50.5717
50.572
50.5723
50.5727
50.573
50.5733
50.5737
50.574
50.5743
50.5746
50.5749
50.5752
50.5755
50.5758
50.5761
50.5764
50.5766
50.5769
50.5771
50.5773
50.5775
50.5776
50.5778
50.5779
50.578
50.5781
50.5782
50.5782
50.5782
50.5782
50.5782
50.5781
50.578
50.5779
50.5778
50.5776
50.5773
50.5767
50.5764
50.5689
50.5967
50.5801
50.5548
50.5482
50.5477
50.5482
50.5485
50.5486
50.5486
50.5486
50.5485
50.5484
50.5484
50.5483
50.5482
50.5482
50.5482
50.5482
50.5481
50.5481
50.548
50.548
50.5479
50.5478
50.5478
50.5478
50.5477
50.5477
50.5477
50.5477
50.5477
50.5477
50.5477
50.5477
50.5477
50.5477
50.5477
50.5477
50.5477
50.5477
50.5477
50.5477
50.5477
50.5477
50.5477
50.5477
50.5477
50.5476
50.5476
50.5476
50.5476
50.5476
50.5476
50.5477
50.5477
50.5477
50.5478
50.5478
50.5478
50.5479
50.5479
50.548
50.548
50.548
50.5481
50.5481
50.5482
50.5482
50.5483
50.5483
50.5483
50.5483
50.5483
50.5484
50.5484
50.5484
50.5485
50.5486
50.5486
50.5486
50.5487
50.5487
50.5488
50.5488
50.5489
50.549
50.5491
50.5492
50.5493
50.5495
50.5497
50.5498
50.55
50.5501
50.5503
50.5505
50.5508
50.5512
50.5518
50.5523
50.5528
50.5532
50.5536
50.5539
50.5541
50.5545
50.5549
50.5557
50.5576
50.5604
50.5632
50.5659
50.5681
50.5699
50.5711
50.5718
50.5723
50.5724
50.5724
50.5716
50.5692
50.5668
50.5648
50.5633
50.5623
50.5617
50.5615
50.5616
50.5618
50.5623
50.5632
50.5641
50.5648
50.5654
50.5658
50.5661
50.5664
50.5666
50.5668
50.5669
50.567
50.5671
50.5673
50.5674
50.5676
50.5677
50.5679
50.5681
50.5683
50.5686
50.5688
50.5691
50.5693
50.5696
50.5699
50.5702
50.5704
50.5707
50.5711
50.5714
50.5717
50.572
50.5723
50.5727
50.573
50.5733
50.5737
50.574
50.5743
50.5746
50.5749
50.5752
50.5755
50.5758
50.5761
50.5764
50.5766
50.5769
50.5771
50.5773
50.5775
50.5776
50.5778
50.5779
50.578
50.5781
50.5782
50.5782
50.5782
50.5782
50.5782
50.5781
50.578
50.5779
50.5778
50.5776
50.5773
50.5767
50.5756
50.5709
50.573
50.5869
50.5767
50.5707
50.565
50.5613
50.5595
50.5586
50.5581
50.5578
50.5576
50.5574
50.5573
50.5572
50.5571
50.557
50.557
50.5569
50.5569
50.5569
50.5568
50.5568
50.5568
50.5567
50.5567
50.5566
50.5566
50.5566
50.5565
50.5565
50.5565
50.5565
50.5565
50.5565
50.5565
50.5565
50.5565
50.5565
50.5565
50.5565
50.5565
50.5565
50.5565
50.5565
50.5565
50.5565
50.5565
50.5565
50.5565
50.5565
50.5565
50.5565
50.5565
50.5565
50.5565
50.5565
50.5565
50.5565
50.5566
50.5566
50.5566
50.5567
50.5567
50.5568
50.5568
50.5569
50.5569
50.5569
50.557
50.557
50.5571
50.5571
50.5571
50.5572
50.5572
50.5572
50.5572
50.5573
50.5573
50.5574
50.5574
50.5575
50.5575
50.5575
50.5576
50.5576
50.5577
50.5578
50.5578
50.5579
50.5579
50.558
50.5581
50.5582
50.5583
50.5584
50.5584
50.5585
50.5585
50.5586
50.5588
50.559
50.5592
50.5594
50.5596
50.5597
50.5598
50.56
50.5602
50.5604
50.5607
50.5611
50.562
50.5631
50.564
50.5648
50.5653
50.5656
50.5658
50.5659
50.5658
50.5655
50.5653
50.5651
50.5649
50.5649
50.5649
50.5649
50.565
50.5652
50.5654
50.5655
50.5657
50.5658
50.5659
50.566
50.5662
50.5663
50.5664
50.5666
50.5667
50.5669
50.567
50.5672
50.5674
50.5676
50.5678
50.568
50.5683
50.5685
50.5687
50.569
50.5693
50.5696
50.5698
50.5701
50.5704
50.5707
50.571
50.5714
50.5717
50.572
50.5723
50.5727
50.573
50.5733
50.5737
50.574
50.5743
50.5746
50.5749
50.5752
50.5755
50.5758
50.5761
50.5764
50.5766
50.5769
50.5771
50.5773
50.5775
50.5776
50.5778
50.5779
50.578
50.5781
50.5782
50.5782
50.5782
50.5782
50.5782
50.5781
50.578
50.5779
50.5778
50.5776
50.5774
50.577
50.5764
50.5749
50.5708
50.5078
50.5178
50.5237
50.5284
50.5314
50.5329
50.5335
50.5337
50.5338
50.5337
50.5336
50.5335
50.5334
50.5333
50.5332
50.5332
50.5332
50.5332
50.5332
50.5332
50.5331
50.5331
50.533
50.533
50.5329
50.5329
50.5329
50.5329
50.5329
50.5329
50.5329
50.533
50.533
50.533
50.533
50.533
50.5329
50.5329
50.5329
50.5329
50.533
50.533
50.533
50.533
50.533
50.533
50.533
50.5329
50.5329
50.5329
50.5329
50.5329
50.5329
50.533
50.533
50.5331
50.5331
50.5332
50.5332
50.5332
50.5333
50.5333
50.5334
50.5335
50.5335
50.5336
50.5337
50.5337
50.5338
50.5338
50.5339
50.5339
50.534
50.534
50.5341
50.5342
50.5344
50.5345
50.5347
50.5349
50.5351
50.5353
50.5356
50.5359
50.5362
50.5366
50.5369
50.5372
50.5376
50.538
50.5384
50.539
50.5396
50.5403
50.5411
50.5419
50.5426
50.5433
50.5438
50.5441
50.5445
50.5448
50.5452
50.5458
50.547
50.5491
50.5513
50.5538
50.5563
50.5586
50.5607
50.5627
50.5644
50.5657
50.5668
50.5675
50.568
50.5683
50.5685
50.5684
50.5678
50.5669
50.5662
50.5655
50.5651
50.5647
50.5645
50.5643
50.5643
50.5643
50.5644
50.5645
50.5646
50.5648
50.565
50.5652
50.5654
50.5656
50.5658
50.5661
50.5663
50.5665
50.5668
50.567
50.5673
50.5676
50.5678
50.5681
50.5684
50.5686
50.5689
50.5692
50.5695
50.5698
50.5701
50.5704
50.5707
50.571
50.5714
50.5717
50.572
50.5723
50.5727
50.573
50.5733
50.5736
50.574
50.5743
50.5746
50.5749
50.5752
50.5755
50.5758
50.5761
50.5764
50.5766
50.5769
50.5771
50.5773
50.5775
50.5776
50.5778
50.5779
50.578
50.5781
50.5782
50.5782
50.5782
50.5782
50.5782
50.5781
50.578
50.5779
50.5778
50.5776
50.5774
50.5773
50.5773
50.5788
50.5746
50.5499
50.5715
50.5745
50.5724
50.5707
50.5699
50.5693
50.5689
50.5687
50.5685
50.5684
50.5683
50.5682
50.5681
50.568
50.5679
50.5678
50.5678
50.5677
50.5677
50.5676
50.5676
50.5676
50.5676
50.5676
50.5676
50.5676
50.5675
50.5675
50.5674
50.5674
50.5673
50.5673
50.5673
50.5673
50.5673
50.5674
50.5674
50.5674
50.5674
50.5674
50.5673
50.5673
50.5673
50.5673
50.5673
50.5673
50.5672
50.5673
50.5673
50.5673
50.5673
50.5673
50.5674
50.5674
50.5674
50.5675
50.5675
50.5675
50.5674
50.5674
50.5674
50.5675
50.5675
50.5675
50.5676
50.5677
50.5677
50.5677
50.5678
50.5678
50.5678
50.5678
50.5679
50.5679
50.5679
50.568
50.568
50.5681
50.5682
50.5683
50.5684
50.5685
50.5686
50.5687
50.5688
50.5689
50.5689
50.569
50.5691
50.5692
50.5692
50.5694
50.5695
50.5696
50.5697
50.5698
50.57
50.5701
50.5703
50.5703
50.5703
50.5702
50.5702
50.5703
50.5704
50.5705
50.5704
50.57
50.5695
50.569
50.5686
50.5686
50.5688
50.5691
50.5697
50.5714
50.5733
50.5746
50.5754
50.5757
50.5758
50.5755
50.5741
50.572
50.5703
50.5688
50.5677
50.5668
50.5662
50.5658
50.5655
50.5654
50.5653
50.5653
50.5654
50.5655
50.5657
50.5659
50.5661
50.5663
50.5665
50.5668
50.567
50.5673
50.5675
50.5678
50.5681
50.5683
50.5686
50.5689
50.5692
50.5695
50.5698
50.5701
50.5704
50.5707
50.571
50.5713
50.5717
50.572
50.5723
50.5727
50.573
50.5733
50.5736
50.574
50.5743
50.5746
50.5749
50.5752
50.5755
50.5758
50.5761
50.5764
50.5766
50.5769
50.5771
50.5773
50.5775
50.5776
50.5778
50.5779
50.578
50.5781
50.5782
50.5782
50.5782
50.5782
50.5782
50.5781
50.578
50.5779
50.5778
50.5776
50.5775
50.5775
50.5781
50.5817
50.5809
50.4736
50.5188
50.5305
50.5342
50.535
50.535
50.5349
50.5348
50.5346
50.5345
50.5344
50.5343
50.5342
50.534
50.5339
50.5338
50.5337
50.5337
50.5337
50.5337
50.5338
50.5338
50.5337
50.5337
50.5336
50.5336
50.5335
50.5335
50.5334
50.5334
50.5335
50.5335
50.5336
50.5336
50.5336
50.5336
50.5336
50.5335
50.5335
50.5335
50.5335
50.5336
50.5337
50.5338
50.5338
50.5339
50.5339
50.5338
50.5338
50.5338
50.5338
50.5338
50.5338
50.5339
50.534
50.5342
50.5343
50.5344
50.5345
50.5345
50.5346
50.5347
50.5349
50.535
50.5351
50.5352
50.5354
50.5354
50.5355
50.5355
50.5355
50.5355
50.5354
50.5354
50.5354
50.5354
50.5355
50.5355
50.5356
50.5358
50.536
50.5362
50.5364
50.5366
50.5367
50.537
50.5373
50.5378
50.5383
50.5389
50.5396
50.5402
50.5409
50.5415
50.5421
50.5426
50.5431