/*--------------------------------*- C++ -*----------------------------------*\
| =========                 |                                                 |
| \\      /  F ield         | OpenFOAM: The Open Source CFD Toolbox           |
|  \\    /   O peration     | Version:  3.0.x                                 |
|   \\  /    A nd           | Web:      www.OpenFOAM.org                      |
|    \\/     M anipulation  |                                                 |
\*---------------------------------------------------------------------------*/
FoamFile
{
    version     2.0;
    format      ascii;
    class       volScalarField;
    location    "0.410025";
    object      rho;
}
// * * * * * * * * * * * * * * * * * * * * * * * * * * * * * * * * * * * * * //

dimensions      [1 -3 0 0 0 0 0];

internalField   nonuniform List<scalar> 
13800
(
50.5464
50.5464
50.5464
50.5464
50.5464
50.5464
50.5464
50.5464
50.5464
50.5464
50.5464
50.5464
50.5464
50.5464
50.5464
50.5464
50.5464
50.5464
50.5464
50.5464
50.5464
50.5464
50.5464
50.5464
50.5464
50.5464
50.5464
50.5464
50.5464
50.5464
50.5464
50.5464
50.5464
50.5464
50.5463
50.5463
50.5463
50.5463
50.5463
50.5464
50.5464
50.5465
50.5466
50.5466
50.5466
50.5466
50.5466
50.5466
50.5466
50.5466
50.5466
50.5466
50.5466
50.5466
50.5466
50.5466
50.5466
50.5467
50.5467
50.5467
50.5467
50.5468
50.5469
50.5469
50.547
50.547
50.5471
50.5471
50.5471
50.5471
50.5471
50.547
50.547
50.547
50.547
50.547
50.547
50.5471
50.5471
50.5472
50.5472
50.5473
50.5473
50.5473
50.5473
50.5474
50.5474
50.5474
50.5474
50.5474
50.5474
50.5474
50.5474
50.5474
50.5474
50.5474
50.5474
50.5474
50.5474
50.5474
50.5474
50.5474
50.5474
50.5474
50.5474
50.5474
50.5474
50.5474
50.5474
50.5474
50.5474
50.5474
50.5474
50.5474
50.5474
50.5474
50.5474
50.5474
50.5474
50.5474
50.5474
50.5474
50.5474
50.5474
50.5474
50.5474
50.5474
50.5474
50.5474
50.5474
50.5474
50.5474
50.5474
50.5474
50.5474
50.5474
50.5474
50.5474
50.5474
50.5474
50.5474
50.5474
50.5474
50.5474
50.5474
50.5474
50.5474
50.5474
50.5474
50.5474
50.5474
50.5474
50.5474
50.5474
50.5474
50.5474
50.5474
50.5474
50.5474
50.5474
50.5474
50.5474
50.5474
50.5474
50.5474
50.5474
50.5474
50.5474
50.5474
50.5474
50.5474
50.5474
50.5474
50.5474
50.5475
50.5475
50.5475
50.5475
50.5475
50.5475
50.5476
50.5476
50.5476
50.5476
50.5477
50.5477
50.5478
50.5478
50.5479
50.5479
50.548
50.5481
50.5481
50.5482
50.5483
50.5484
50.5486
50.5488
50.5512
50.5458
50.5472
50.5472
50.5472
50.5472
50.5472
50.5472
50.5472
50.5472
50.5472
50.5472
50.5472
50.5472
50.5472
50.5472
50.5472
50.5472
50.5472
50.5471
50.5471
50.5471
50.5471
50.5471
50.5471
50.5471
50.5471
50.5471
50.5471
50.5471
50.5471
50.5471
50.5471
50.5471
50.5471
50.5471
50.547
50.547
50.547
50.547
50.547
50.547
50.5471
50.5472
50.5472
50.5473
50.5473
50.5473
50.5473
50.5473
50.5473
50.5472
50.5472
50.5472
50.5472
50.5472
50.5472
50.5473
50.5473
50.5473
50.5473
50.5473
50.5473
50.5474
50.5475
50.5475
50.5476
50.5476
50.5477
50.5477
50.5477
50.5477
50.5477
50.5476
50.5476
50.5476
50.5476
50.5476
50.5476
50.5476
50.5477
50.5477
50.5478
50.5478
50.5478
50.5479
50.5479
50.5479
50.5479
50.5479
50.5479
50.5479
50.5479
50.5479
50.5479
50.5479
50.5479
50.5479
50.5479
50.5479
50.5479
50.5479
50.5479
50.5479
50.5479
50.5479
50.5479
50.5479
50.5479
50.5479
50.5479
50.5479
50.5479
50.5479
50.5479
50.5479
50.5479
50.5479
50.5479
50.5479
50.5479
50.5479
50.5479
50.5479
50.5479
50.5479
50.5479
50.5479
50.5479
50.5479
50.5479
50.5479
50.5479
50.5479
50.5479
50.5479
50.5479
50.5479
50.5479
50.5479
50.5479
50.5479
50.5479
50.5479
50.5479
50.5479
50.5479
50.5479
50.5479
50.5479
50.5479
50.5479
50.5479
50.5479
50.5479
50.5479
50.5479
50.5479
50.5479
50.5479
50.5479
50.5479
50.5479
50.5479
50.5479
50.5479
50.5479
50.5479
50.5479
50.5479
50.5479
50.5479
50.5479
50.5479
50.5479
50.548
50.548
50.548
50.548
50.548
50.548
50.548
50.5481
50.5481
50.5481
50.5482
50.5482
50.5482
50.5483
50.5483
50.5484
50.5484
50.5485
50.5486
50.5486
50.5487
50.5488
50.5489
50.5491
50.5492
50.5518
50.5443
50.5472
50.5472
50.5472
50.5472
50.5472
50.5472
50.5472
50.5472
50.5472
50.5472
50.5472
50.5472
50.5472
50.5472
50.5472
50.5472
50.5472
50.5471
50.5471
50.5471
50.5471
50.5471
50.5471
50.5471
50.5471
50.5471
50.5471
50.5471
50.5471
50.5471
50.5471
50.5471
50.5471
50.5471
50.547
50.547
50.547
50.547
50.547
50.547
50.5471
50.5472
50.5472
50.5473
50.5473
50.5473
50.5473
50.5473
50.5473
50.5472
50.5472
50.5472
50.5472
50.5472
50.5472
50.5473
50.5473
50.5473
50.5473
50.5473
50.5473
50.5474
50.5475
50.5475
50.5476
50.5476
50.5477
50.5477
50.5477
50.5477
50.5477
50.5476
50.5476
50.5476
50.5476
50.5476
50.5476
50.5476
50.5477
50.5477
50.5478
50.5478
50.5478
50.5479
50.5479
50.5479
50.5479
50.5479
50.5479
50.5479
50.5479
50.5479
50.5479
50.5479
50.5479
50.5479
50.5479
50.5479
50.5479
50.5479
50.5479
50.5479
50.5479
50.5479
50.5479
50.5479
50.5479
50.5479
50.5479
50.5479
50.5479
50.5479
50.5479
50.5479
50.5479
50.5479
50.5479
50.5479
50.5479
50.5479
50.5479
50.5479
50.5479
50.5479
50.5479
50.5479
50.5479
50.5479
50.5479
50.5479
50.5479
50.5479
50.5479
50.5479
50.5479
50.5479
50.5479
50.5479
50.5479
50.5479
50.5479
50.5479
50.5479
50.5479
50.5479
50.5479
50.5479
50.5479
50.5479
50.5479
50.5479
50.5479
50.5479
50.5479
50.5479
50.5479
50.5479
50.5479
50.5479
50.5479
50.5479
50.5479
50.5479
50.5479
50.5479
50.5479
50.5479
50.5479
50.5479
50.5479
50.5479
50.5479
50.5479
50.548
50.548
50.548
50.548
50.548
50.548
50.548
50.5481
50.5481
50.5481
50.5482
50.5482
50.5482
50.5483
50.5483
50.5484
50.5484
50.5485
50.5486
50.5486
50.5487
50.5488
50.5489
50.5491
50.5492
50.5517
50.5445
50.5472
50.5472
50.5472
50.5472
50.5472
50.5472
50.5472
50.5472
50.5472
50.5472
50.5472
50.5472
50.5472
50.5472
50.5472
50.5471
50.5471
50.5471
50.5471
50.5471
50.5471
50.5471
50.5471
50.5471
50.5471
50.5471
50.5471
50.5471
50.5471
50.5471
50.5471
50.5471
50.5471
50.5471
50.547
50.547
50.547
50.547
50.547
50.547
50.5471
50.5472
50.5472
50.5473
50.5473
50.5473
50.5473
50.5473
50.5473
50.5472
50.5472
50.5472
50.5472
50.5472
50.5472
50.5472
50.5473
50.5473
50.5473
50.5473
50.5473
50.5474
50.5475
50.5475
50.5476
50.5476
50.5477
50.5477
50.5477
50.5477
50.5477
50.5476
50.5476
50.5476
50.5476
50.5476
50.5476
50.5476
50.5477
50.5477
50.5478
50.5478
50.5478
50.5479
50.5479
50.5479
50.5479
50.5479
50.5479
50.5479
50.5479
50.5479
50.5479
50.5479
50.5479
50.5479
50.5479
50.5479
50.5479
50.5479
50.5479
50.5479
50.5479
50.5479
50.5479
50.5479
50.5479
50.5479
50.5479
50.5479
50.5479
50.5479
50.5479
50.5479
50.5479
50.5479
50.5479
50.5479
50.5479
50.5479
50.5479
50.5479
50.5479
50.5479
50.5479
50.5479
50.5479
50.5479
50.5479
50.5479
50.5479
50.5479
50.5479
50.5479
50.5479
50.5479
50.5479
50.5479
50.5479
50.5479
50.5479
50.5479
50.5479
50.5479
50.5479
50.5479
50.5479
50.5479
50.5479
50.5479
50.5479
50.5479
50.5479
50.5479
50.5479
50.5479
50.5479
50.5479
50.5479
50.5479
50.5479
50.5479
50.5479
50.5479
50.5479
50.5479
50.5479
50.5479
50.5479
50.5479
50.5479
50.5479
50.5479
50.548
50.548
50.548
50.548
50.548
50.548
50.548
50.5481
50.5481
50.5481
50.5482
50.5482
50.5482
50.5483
50.5483
50.5484
50.5484
50.5485
50.5486
50.5486
50.5487
50.5488
50.5489
50.5491
50.5493
50.5514
50.5469
50.5472
50.5472
50.5472
50.5472
50.5472
50.5472
50.5472
50.5472
50.5472
50.5472
50.5472
50.5472
50.5472
50.5471
50.5471
50.5471
50.5471
50.5471
50.5471
50.5471
50.5471
50.5471
50.5471
50.5471
50.5471
50.5471
50.5471
50.5471
50.5471
50.5471
50.5471
50.5471
50.5471
50.5471
50.547
50.547
50.547
50.547
50.547
50.547
50.5471
50.5472
50.5472
50.5473
50.5473
50.5473
50.5473
50.5473
50.5473
50.5472
50.5472
50.5472
50.5472
50.5472
50.5472
50.5472
50.5473
50.5473
50.5473
50.5473
50.5473
50.5474
50.5475
50.5475
50.5476
50.5476
50.5477
50.5477
50.5477
50.5477
50.5477
50.5476
50.5476
50.5476
50.5476
50.5476
50.5476
50.5476
50.5477
50.5477
50.5478
50.5478
50.5478
50.5479
50.5479
50.5479
50.5479
50.5479
50.5479
50.5479
50.5479
50.5479
50.5479
50.5479
50.5479
50.5479
50.5479
50.5479
50.5479
50.5479
50.5479
50.5479
50.5479
50.5479
50.5479
50.5479
50.5479
50.5479
50.5479
50.5479
50.5479
50.5479
50.5479
50.5479
50.5479
50.5479
50.5479
50.5479
50.5479
50.5479
50.5479
50.5479
50.5479
50.5479
50.5479
50.5479
50.5479
50.5479
50.5479
50.5479
50.5479
50.5479
50.5479
50.5479
50.5479
50.5479
50.5479
50.5479
50.5479
50.5479
50.5479
50.5479
50.5479
50.5479
50.5479
50.5479
50.5479
50.5479
50.5479
50.5479
50.5479
50.5479
50.5479
50.5479
50.5479
50.5479
50.5479
50.5479
50.5479
50.5479
50.5479
50.5479
50.5479
50.5479
50.5479
50.5479
50.5479
50.5479
50.5479
50.5479
50.5479
50.5479
50.5479
50.548
50.548
50.548
50.548
50.548
50.548
50.548
50.5481
50.5481
50.5481
50.5482
50.5482
50.5482
50.5483
50.5483
50.5484
50.5484
50.5485
50.5486
50.5486
50.5487
50.5488
50.5489
50.5491
50.5491
50.5503
50.5458
50.5472
50.5472
50.5472
50.5472
50.5472
50.5472
50.5472
50.5472
50.5472
50.5472
50.5472
50.5472
50.5472
50.5471
50.5471
50.5471
50.5471
50.5471
50.5471
50.5471
50.5471
50.5471
50.5471
50.5471
50.5471
50.5471
50.5471
50.5471
50.5471
50.5471
50.5471
50.5471
50.5471
50.5471
50.547
50.547
50.547
50.547
50.547
50.547
50.5471
50.5472
50.5472
50.5473
50.5473
50.5473
50.5473
50.5473
50.5473
50.5472
50.5472
50.5472
50.5472
50.5472
50.5472
50.5472
50.5473
50.5473
50.5473
50.5473
50.5473
50.5474
50.5475
50.5475
50.5476
50.5476
50.5477
50.5477
50.5477
50.5477
50.5477
50.5476
50.5476
50.5476
50.5476
50.5476
50.5476
50.5476
50.5477
50.5477
50.5478
50.5478
50.5478
50.5479
50.5479
50.5479
50.5479
50.5479
50.5479
50.5479
50.5479
50.5479
50.5479
50.5479
50.5479
50.5479
50.5479
50.5479
50.5479
50.5479
50.5479
50.5479
50.5479
50.5479
50.5479
50.5479
50.5479
50.5479
50.5479
50.5479
50.5479
50.5479
50.5479
50.5479
50.5479
50.5479
50.5479
50.5479
50.5479
50.5479
50.5479
50.5479
50.5479
50.5479
50.5479
50.5479
50.5479
50.5479
50.5479
50.5479
50.5479
50.5479
50.5479
50.5479
50.5479
50.5479
50.5479
50.5479
50.5479
50.5479
50.5479
50.5479
50.5479
50.5479
50.5479
50.5479
50.5479
50.5479
50.5479
50.5479
50.5479
50.5479
50.5479
50.5479
50.5479
50.5479
50.5479
50.5479
50.5479
50.5479
50.5479
50.5479
50.5479
50.5479
50.5479
50.5479
50.5479
50.5479
50.5479
50.5479
50.5479
50.5479
50.5479
50.548
50.548
50.548
50.548
50.548
50.548
50.548
50.5481
50.5481
50.5481
50.5482
50.5482
50.5482
50.5483
50.5483
50.5484
50.5484
50.5485
50.5486
50.5486
50.5487
50.5488
50.5489
50.549
50.549
50.5487
50.548
50.5472
50.5472
50.5472
50.5472
50.5472
50.5472
50.5472
50.5472
50.5472
50.5472
50.5472
50.5472
50.5472
50.5472
50.5472
50.5471
50.5471
50.5471
50.5471
50.5471
50.5471
50.5471
50.5471
50.5471
50.5471
50.5471
50.5471
50.5471
50.5471
50.5471
50.5471
50.5471
50.5471
50.5471
50.547
50.547
50.547
50.547
50.547
50.547
50.5471
50.5472
50.5472
50.5473
50.5473
50.5473
50.5473
50.5473
50.5473
50.5472
50.5472
50.5472
50.5472
50.5472
50.5472
50.5472
50.5473
50.5473
50.5473
50.5473
50.5473
50.5474
50.5475
50.5475
50.5476
50.5476
50.5477
50.5477
50.5477
50.5477
50.5477
50.5476
50.5476
50.5476
50.5476
50.5476
50.5476
50.5476
50.5477
50.5477
50.5478
50.5478
50.5478
50.5479
50.5479
50.5479
50.5479
50.5479
50.5479
50.5479
50.5479
50.5479
50.5479
50.5479
50.5479
50.5479
50.5479
50.5479
50.5479
50.5479
50.5479
50.5479
50.5479
50.5479
50.5479
50.5479
50.5479
50.5479
50.5479
50.5479
50.5479
50.5479
50.5479
50.5479
50.5479
50.5479
50.5479
50.5479
50.5479
50.5479
50.5479
50.5479
50.5479
50.5479
50.5479
50.5479
50.5479
50.5479
50.5479
50.5479
50.5479
50.5479
50.5479
50.5479
50.5479
50.5479
50.5479
50.5479
50.5479
50.5479
50.5479
50.5479
50.5479
50.5479
50.5479
50.5479
50.5479
50.5479
50.5479
50.5479
50.5479
50.5479
50.5479
50.5479
50.5479
50.5479
50.5479
50.5479
50.5479
50.5479
50.5479
50.5479
50.5479
50.5479
50.5479
50.5479
50.5479
50.5479
50.5479
50.5479
50.5479
50.5479
50.5479
50.548
50.548
50.548
50.548
50.548
50.548
50.548
50.5481
50.5481
50.5481
50.5482
50.5482
50.5482
50.5483
50.5483
50.5484
50.5484
50.5485
50.5486
50.5486
50.5487
50.5488
50.5489
50.5489
50.5491
50.5469
50.5543
50.5472
50.5472
50.5472
50.5472
50.5472
50.5472
50.5472
50.5472
50.5472
50.5472
50.5472
50.5472
50.5472
50.5472
50.5472
50.5472
50.5472
50.5471
50.5471
50.5471
50.5471
50.5471
50.5471
50.5471
50.5471
50.5471
50.5471
50.5471
50.5471
50.5471
50.5471
50.5471
50.5471
50.5471
50.547
50.547
50.547
50.547
50.547
50.547
50.5471
50.5472
50.5472
50.5473
50.5473
50.5473
50.5473
50.5473
50.5473
50.5472
50.5472
50.5472
50.5472
50.5472
50.5472
50.5473
50.5473
50.5473
50.5473
50.5473
50.5473
50.5474
50.5475
50.5475
50.5476
50.5476
50.5477
50.5477
50.5477
50.5477
50.5477
50.5476
50.5476
50.5476
50.5476
50.5476
50.5476
50.5476
50.5477
50.5477
50.5478
50.5478
50.5478
50.5479
50.5479
50.5479
50.5479
50.5479
50.5479
50.5479
50.5479
50.5479
50.5479
50.5479
50.5479
50.5479
50.5479
50.5479
50.5479
50.5479
50.5479
50.5479
50.5479
50.5479
50.5479
50.5479
50.5479
50.5479
50.5479
50.5479
50.5479
50.5479
50.5479
50.5479
50.5479
50.5479
50.5479
50.5479
50.5479
50.5479
50.5479
50.5479
50.5479
50.5479
50.5479
50.5479
50.5479
50.5479
50.5479
50.5479
50.5479
50.5479
50.5479
50.5479
50.5479
50.5479
50.5479
50.5479
50.5479
50.5479
50.5479
50.5479
50.5479
50.5479
50.5479
50.5479
50.5479
50.5479
50.5479
50.5479
50.5479
50.5479
50.5479
50.5479
50.5479
50.5479
50.5479
50.5479
50.5479
50.5479
50.5479
50.5479
50.5479
50.5479
50.5479
50.5479
50.5479
50.5479
50.5479
50.5479
50.5479
50.5479
50.5479
50.548
50.548
50.548
50.548
50.548
50.548
50.548
50.5481
50.5481
50.5481
50.5482
50.5482
50.5482
50.5483
50.5483
50.5484
50.5484
50.5485
50.5486
50.5486
50.5487
50.5488
50.5489
50.5489
50.5494
50.545
50.5714
50.5472
50.5472
50.5472
50.5472
50.5472
50.5472
50.5472
50.5472
50.5472
50.5472
50.5472
50.5472
50.5472
50.5472
50.5472
50.5472
50.5472
50.5471
50.5471
50.5471
50.5471
50.5471
50.5471
50.5471
50.5471
50.5471
50.5471
50.5471
50.5471
50.5471
50.5471
50.5471
50.5471
50.5471
50.547
50.547
50.547
50.547
50.547
50.547
50.5471
50.5472
50.5472
50.5473
50.5473
50.5473
50.5473
50.5473
50.5473
50.5472
50.5472
50.5472
50.5472
50.5472
50.5472
50.5473
50.5473
50.5473
50.5473
50.5473
50.5473
50.5474
50.5475
50.5475
50.5476
50.5476
50.5477
50.5477
50.5477
50.5477
50.5477
50.5476
50.5476
50.5476
50.5476
50.5476
50.5476
50.5476
50.5477
50.5477
50.5478
50.5478
50.5478
50.5479
50.5479
50.5479
50.5479
50.5479
50.5479
50.5479
50.5479
50.5479
50.5479
50.5479
50.5479
50.5479
50.5479
50.5479
50.5479
50.5479
50.5479
50.5479
50.5479
50.5479
50.5479
50.5479
50.5479
50.5479
50.5479
50.5479
50.5479
50.5479
50.5479
50.5479
50.5479
50.5479
50.5479
50.5479
50.5479
50.5479
50.5479
50.5479
50.5479
50.5479
50.5479
50.5479
50.5479
50.5479
50.5479
50.5479
50.5479
50.5479
50.5479
50.5479
50.5479
50.5479
50.5479
50.5479
50.5479
50.5479
50.5479
50.5479
50.5479
50.5479
50.5479
50.5479
50.5479
50.5479
50.5479
50.5479
50.5479
50.5479
50.5479
50.5479
50.5479
50.5479
50.5479
50.5479
50.5479
50.5479
50.5479
50.5479
50.5479
50.5479
50.5479
50.5479
50.5479
50.5479
50.5479
50.5479
50.5479
50.5479
50.5479
50.548
50.548
50.548
50.548
50.548
50.548
50.548
50.5481
50.5481
50.5481
50.5482
50.5482
50.5482
50.5483
50.5483
50.5484
50.5484
50.5485
50.5486
50.5486
50.5487
50.5488
50.5489
50.5489
50.5495
50.544
50.5804
50.5464
50.5464
50.5464
50.5464
50.5464
50.5464
50.5464
50.5464
50.5464
50.5464
50.5464
50.5464
50.5464
50.5464
50.5464
50.5464
50.5464
50.5464
50.5464
50.5464
50.5464
50.5464
50.5464
50.5464
50.5464
50.5464
50.5464
50.5464
50.5464
50.5464
50.5464
50.5464
50.5464
50.5464
50.5463
50.5463
50.5463
50.5463
50.5463
50.5464
50.5464
50.5465
50.5466
50.5466
50.5466
50.5466
50.5466
50.5466
50.5466
50.5466
50.5466
50.5466
50.5466
50.5466
50.5466
50.5466
50.5466
50.5467
50.5467
50.5467
50.5467
50.5468
50.5469
50.5469
50.547
50.547
50.5471
50.5471
50.5471
50.5471
50.5471
50.547
50.547
50.547
50.547
50.547
50.547
50.5471
50.5471
50.5472
50.5472
50.5473
50.5473
50.5473
50.5473
50.5474
50.5474
50.5474
50.5474
50.5474
50.5474
50.5474
50.5474
50.5474
50.5474
50.5474
50.5474
50.5474
50.5474
50.5474
50.5474
50.5474
50.5474
50.5474
50.5474
50.5474
50.5474
50.5474
50.5474
50.5474
50.5474
50.5474
50.5474
50.5474
50.5474
50.5474
50.5474
50.5474
50.5474
50.5474
50.5474
50.5474
50.5474
50.5474
50.5474
50.5474
50.5474
50.5474
50.5474
50.5474
50.5474
50.5474
50.5474
50.5474
50.5474
50.5474
50.5474
50.5474
50.5474
50.5474
50.5474
50.5474
50.5474
50.5474
50.5474
50.5474
50.5474
50.5474
50.5474
50.5474
50.5474
50.5474
50.5474
50.5474
50.5474
50.5474
50.5474
50.5474
50.5474
50.5474
50.5474
50.5474
50.5474
50.5474
50.5474
50.5474
50.5474
50.5474
50.5474
50.5474
50.5474
50.5474
50.5474
50.5474
50.5475
50.5475
50.5475
50.5475
50.5475
50.5475
50.5476
50.5476
50.5476
50.5476
50.5477
50.5477
50.5478
50.5478
50.5479
50.5479
50.548
50.5481
50.5481
50.5482
50.5483
50.5484
50.5484
50.549
50.5425
50.5886
50.6016
50.6239
50.6312
50.6323
50.6321
50.632
50.6317
50.631
50.6302
50.6292
50.6282
50.6271
50.6258
50.6243
50.6225
50.6202
50.617
50.6128
50.6068
50.5977
50.5986
50.6181
50.6258
50.6273
50.6273
50.6273
50.6271
50.6267
50.6259
50.6251
50.6241
50.6231
50.6219
50.6205
50.6187
50.6163
50.6131
50.6089
50.6028
50.5937
50.5955
50.6153
50.6241
50.6261
50.6261
50.6262
50.626
50.6254
50.6246
50.6237
50.6228
50.6217
50.6205
50.6191
50.6173
50.6149
50.6116
50.607
50.6006
50.5906
50.5847
50.5955
50.5988
50.5985
50.5979
50.5974
50.5969
50.5961
50.5951
50.594
50.5929
50.5916
50.5902
50.5885
50.5863
50.5837
50.5807
50.5764
50.5707
50.5627
50.5671
50.5743
50.5799
50.5839
50.5868
50.5886
50.5893
50.5896
50.5895
50.5892
50.5884
50.5872
50.586
50.5842
50.582
50.5791
50.5753
50.5709
50.5659
50.5598
50.5355
50.5297
50.5234
50.5169
50.5111
50.5063
50.5028
50.5
50.4976
50.4957
50.4943
50.4933
50.4922
50.4916
50.4908
50.4901
50.4899
50.4903
50.4909
50.4933
50.5021
50.4909
50.4875
50.4883
50.4892
50.4898
50.4899
50.4904
50.4905
50.4908
50.4907
50.4908
50.4904
50.4904
50.4902
50.4908
50.4915
50.4934
50.4968
50.5031
50.4606
50.4287
50.4038
50.3865
50.3747
50.3659
50.3591
50.3542
50.351
50.3491
50.3482
50.3483
50.3495
50.3522
50.3568
50.3632
50.371
50.3831
50.397
50.4156
50.4519
50.4179
50.3962
50.3833
50.3745
50.368
50.3629
50.3596
50.3576
50.357
50.3571
50.3583
50.3603
50.3636
50.3684
50.375
50.3835
50.3939
50.4077
50.425
50.441
50.3927
50.3652
50.3486
50.3373
50.3279
50.3204
50.3151
50.3114
50.3088
50.3078
50.3073
50.3088
50.311
50.3157
50.3223
50.3311
50.3427
50.358
50.3787
50.5579
50.5352
50.5291
50.5276
50.5271
50.5271
50.5273
50.5276
50.5279
50.5281
50.5284
50.5287
50.529
50.5293
50.5297
50.5301
50.5305
50.5309
50.5314
50.5318
50.5323
50.5328
50.5334
50.5339
50.5345
50.5351
50.5357
50.5364
50.5371
50.5378
50.5385
50.5393
50.5401
50.5409
50.5418
50.5427
50.5436
50.5446
50.5456
50.5467
50.5478
50.5489
50.55
50.5512
50.5525
50.5537
50.5551
50.5564
50.5579
50.5593
50.5608
50.5624
50.5639
50.5656
50.5673
50.569
50.5708
50.5726
50.5745
50.5764
50.5784
50.5804
50.5824
50.5845
50.5867
50.5889
50.5912
50.5936
50.596
50.5984
50.6009
50.6034
50.6061
50.6087
50.6114
50.6142
50.6171
50.6199
50.6229
50.6259
50.6289
50.632
50.6352
50.6385
50.6418
50.6452
50.6486
50.6521
50.6556
50.6592
50.6629
50.6667
50.6705
50.6744
50.6784
50.6824
50.6865
50.6907
50.695
50.6995
50.7041
50.7088
50.7136
50.7184
50.7231
50.7279
50.7328
50.7378
50.7429
50.7476
50.7511
50.7502
50.7352
50.703
50.6704
50.6416
50.6188
50.6034
50.5956
50.5948
50.5992
50.6067
50.6212
50.6578
50.7082
50.7523
50.7888
50.8177
50.8398
50.856
50.8679
50.877
50.8848
50.8922
50.8983
50.9033
50.9086
50.9144
50.9205
50.9269
50.9335
50.9403
50.9472
50.9543
50.9615
50.9688
50.9761
50.9836
50.9911
50.9987
51.0064
51.0142
51.0221
51.03
51.038
51.0461
51.0543
51.0625
51.0709
51.0792
51.0877
51.0963
51.1049
51.1136
51.1224
51.1312
51.1401
51.1491
51.1582
51.1674
51.1766
51.1859
51.1952
51.2047
51.2142
51.2238
51.2335
51.2432
51.253
51.2629
51.2729
51.2829
51.293
51.3032
51.3135
51.3239
51.3341
51.3449
51.3551
51.3661
51.3764
51.3876
51.3979
51.4094
51.4197
51.4315
51.4416
51.4533
51.4595
51.4944
50.5577
50.5365
50.5306
50.5291
50.5288
50.5288
50.529
50.5293
50.5296
50.5298
50.5301
50.5304
50.5307
50.5311
50.5314
50.5318
50.5322
50.5326
50.5331
50.5336
50.5341
50.5346
50.5351
50.5357
50.5362
50.5368
50.5375
50.5381
50.5388
50.5395
50.5403
50.541
50.5418
50.5427
50.5435
50.5444
50.5454
50.5464
50.5474
50.5485
50.5496
50.5507
50.5518
50.553
50.5543
50.5555
50.5569
50.5582
50.5596
50.5611
50.5626
50.5642
50.5657
50.5674
50.5691
50.5708
50.5726
50.5744
50.5763
50.5782
50.5802
50.5822
50.5843
50.5864
50.5885
50.5908
50.593
50.5954
50.5978
50.6002
50.6027
50.6053
50.6079
50.6105
50.6133
50.6161
50.6189
50.6218
50.6247
50.6277
50.6308
50.6339
50.6371
50.6403
50.6436
50.647
50.6504
50.6539
50.6574
50.661
50.6647
50.6684
50.6722
50.6761
50.6801
50.6841
50.6882
50.6924
50.6967
50.7011
50.7055
50.71
50.7145
50.7191
50.7237
50.7284
50.7334
50.7388
50.7445
50.7508
50.758
50.7651
50.7715
50.7777
50.7838
50.7897
50.7951
50.7994
50.7997
50.7973
50.7956
50.7951
50.7964
50.7996
50.8046
50.8112
50.8186
50.8281
50.8401
50.8514
50.8614
50.8701
50.8779
50.8856
50.8931
50.9
50.9067
50.9134
50.9201
50.9268
50.9337
50.9406
50.9476
50.9548
50.962
50.9692
50.9766
50.9841
50.9916
50.9992
51.0069
51.0147
51.0226
51.0305
51.0385
51.0466
51.0548
51.063
51.0714
51.0798
51.0882
51.0968
51.1054
51.1141
51.1229
51.1317
51.1406
51.1496
51.1587
51.1679
51.1771
51.1864
51.1957
51.2052
51.2147
51.2243
51.234
51.2437
51.2535
51.2634
51.2734
51.2834
51.2936
51.3037
51.314
51.3244
51.3346
51.3454
51.3556
51.3666
51.3769
51.3881
51.3984
51.4099
51.4202
51.432
51.4421
51.4538
51.4605
51.4905
50.5578
50.5372
50.5309
50.5292
50.5286
50.5286
50.5288
50.529
50.5293
50.5295
50.5298
50.5301
50.5305
50.5308
50.5311
50.5315
50.5319
50.5323
50.5328
50.5332
50.5337
50.5343
50.5348
50.5354
50.5359
50.5365
50.5372
50.5378
50.5385
50.5392
50.54
50.5408
50.5415
50.5424
50.5432
50.5441
50.5451
50.5461
50.5471
50.5481
50.5492
50.5504
50.5515
50.5527
50.554
50.5552
50.5565
50.5579
50.5593
50.5608
50.5623
50.5639
50.5654
50.5671
50.5688
50.5705
50.5723
50.5741
50.576
50.5779
50.5799
50.5819
50.584
50.5861
50.5882
50.5905
50.5927
50.5951
50.5975
50.5999
50.6024
50.605
50.6076
50.6103
50.613
50.6158
50.6186
50.6215
50.6244
50.6274
50.6305
50.6336
50.6368
50.64
50.6433
50.6467
50.6501
50.6536
50.6571
50.6607
50.6644
50.6681
50.6719
50.6758
50.6798
50.6838
50.6878
50.692
50.6962
50.7006
50.705
50.7096
50.7141
50.7187
50.7234
50.728
50.7328
50.7378
50.7433
50.7493
50.7564
50.7657
50.7753
50.7841
50.7916
50.7982
50.8046
50.8108
50.8166
50.8214
50.8229
50.8225
50.8224
50.8233
50.8255
50.829
50.8336
50.8393
50.8457
50.8529
50.8605
50.8685
50.8763
50.884
50.8915
50.8987
50.9057
50.9127
50.9196
50.9265
50.9335
50.9405
50.9475
50.9547
50.9619
50.9692
50.9766
50.9841
50.9916
50.9992
51.0069
51.0147
51.0226
51.0305
51.0385
51.0466
51.0548
51.063
51.0714
51.0798
51.0882
51.0968
51.1054
51.1141
51.1229
51.1317
51.1406
51.1496
51.1587
51.1679
51.1771
51.1864
51.1957
51.2052
51.2147
51.2243
51.234
51.2437
51.2535
51.2634
51.2734
51.2834
51.2936
51.3037
51.314
51.3244
51.3346
51.3454
51.3556
51.3666
51.3769
51.3881
51.3984
51.4099
51.4202
51.432
51.4422
51.4538
51.4611
51.4849
50.5402
50.5262
50.5228
50.5227
50.5233
50.5237
50.5241
50.5244
50.5248
50.5251
50.5254
50.5257
50.526
50.5263
50.5267
50.527
50.5274
50.5278
50.5283
50.5288
50.5293
50.5298
50.5303
50.5309
50.5315
50.5321
50.5327
50.5334
50.5341
50.5348
50.5355
50.5363
50.5371
50.5379
50.5388
50.5397
50.5406
50.5416
50.5426
50.5437
50.5448
50.5459
50.547
50.5482
50.5495
50.5508
50.5521
50.5535
50.5549
50.5563
50.5578
50.5594
50.561
50.5626
50.5643
50.566
50.5678
50.5697
50.5716
50.5735
50.5754
50.5774
50.5795
50.5816
50.5838
50.586
50.5883
50.5906
50.593
50.5955
50.598
50.6005
50.6031
50.6058
50.6085
50.6113
50.6142
50.617
50.62
50.623
50.626
50.6292
50.6323
50.6356
50.6389
50.6423
50.6457
50.6492
50.6528
50.6564
50.6601
50.6639
50.6677
50.6716
50.6756
50.6797
50.6839
50.6882
50.6926
50.6971
50.7016
50.7061
50.7107
50.7153
50.7199
50.7246
50.7297
50.7353
50.7412
50.748
50.7557
50.7631
50.7699
50.7762
50.7824
50.7884
50.7943
50.8
50.8048
50.8084
50.8118
50.8153
50.8191
50.8235
50.8283
50.8335
50.8392
50.8451
50.8515
50.8581
50.8648
50.8716
50.8784
50.8852
50.892
50.8988
50.9056
50.9124
50.9192
50.9261
50.9331
50.9401
50.9472
50.9544
50.9617
50.969
50.9764
50.9839
50.9915
50.9991
51.0069
51.0147
51.0225
51.0305
51.0385
51.0466
51.0548
51.063
51.0713
51.0797
51.0882
51.0968
51.1054
51.1141
51.1229
51.1317
51.1406
51.1496
51.1587
51.1679
51.1771
51.1864
51.1957
51.2052
51.2147
51.2243
51.234
51.2437
51.2535
51.2634
51.2734
51.2834
51.2936
51.3037
51.314
51.3244
51.3346
51.3454
51.3556
51.3665
51.377
51.3879
51.3986
51.4098
51.4203
51.432
51.4422
51.4538
51.4625
51.4751
50.5454
50.5395
50.536
50.5331
50.5313
50.5306
50.5304
50.5305
50.5306
50.5308
50.5311
50.5314
50.5317
50.5321
50.5324
50.5328
50.5332
50.5336
50.534
50.5345
50.535
50.5355
50.536
50.5366
50.5372
50.5378
50.5384
50.5391
50.5398
50.5405
50.5412
50.542
50.5428
50.5437
50.5445
50.5454
50.5464
50.5473
50.5483
50.5494
50.5505
50.5516
50.5528
50.554
50.5552
50.5565
50.5578
50.5592
50.5606
50.562
50.5635
50.5651
50.5667
50.5683
50.57
50.5717
50.5735
50.5753
50.5772
50.5791
50.5811
50.5831
50.5852
50.5874
50.5895
50.5918
50.594
50.5963
50.5987
50.6012
50.6037
50.6062
50.6088
50.6115
50.6142
50.617
50.6198
50.6227
50.6256
50.6286
50.6317
50.6348
50.6379
50.6412
50.6445
50.6478
50.6513
50.6547
50.6583
50.6619
50.6655
50.6692
50.673
50.6769
50.6807
50.6847
50.6887
50.6928
50.6969
50.7012
50.7055
50.7099
50.7144
50.7189
50.7235
50.7281
50.7328
50.7376
50.7424
50.7474
50.7527
50.7584
50.7643
50.7703
50.7764
50.7822
50.7881
50.7938
50.7994
50.8048
50.8099
50.815
50.8202
50.8254
50.8308
50.8364
50.8421
50.848
50.854
50.8602
50.8664
50.8727
50.8791
50.8856
50.8921
50.8988
50.9054
50.9122
50.919
50.9259
50.9329
50.94
50.9471
50.9543
50.9616
50.9689
50.9764
50.9839
50.9915
50.9991
51.0068
51.0146
51.0225
51.0305
51.0385
51.0466
51.0548
51.063
51.0713
51.0797
51.0882
51.0968
51.1054
51.1141
51.1229
51.1317
51.1406
51.1496
51.1587
51.1679
51.1771
51.1864
51.1957
51.2052
51.2147
51.2243
51.234
51.2437
51.2535
51.2634
51.2734
51.2834
51.2935
51.3038
51.314
51.3243
51.3348
51.3451
51.3559
51.3663
51.3772
51.3879
51.3986
51.4098
51.4205
51.4318
51.4426
51.4539
51.4647
51.4738
50.498
50.5045
50.5084
50.5114
50.5134
50.5145
50.5151
50.5156
50.5159
50.5162
50.5165
50.5169
50.5172
50.5176
50.5179
50.5183
50.5186
50.519
50.5195
50.5199
50.5204
50.5209
50.5215
50.522
50.5226
50.5233
50.5239
50.5246
50.5253
50.526
50.5267
50.5275
50.5283
50.5291
50.53
50.5309
50.5318
50.5328
50.5338
50.5349
50.536
50.5371
50.5382
50.5395
50.5407
50.542
50.5433
50.5447
50.5461
50.5476
50.5491
50.5506
50.5522
50.5539
50.5556
50.5573
50.5591
50.5609
50.5628
50.5647
50.5667
50.5687
50.5708
50.5729
50.5751
50.5774
50.5797
50.582
50.5844
50.5869
50.5894
50.592
50.5946
50.5973
50.6001
50.6029
50.6058
50.6088
50.6118
50.6148
50.618
50.6212
50.6245
50.6279
50.6314
50.6349
50.6385
50.6421
50.6459
50.6496
50.6535
50.6575
50.6616
50.6658
50.6701
50.6745
50.6789
50.6833
50.6877
50.6921
50.6965
50.701
50.7056
50.7103
50.7155
50.721
50.7268
50.7333
50.7398
50.7462
50.7527
50.7589
50.765
50.7711
50.7769
50.7827
50.7885
50.7942
50.7996
50.8049
50.8099
50.8149
50.82
50.8252
50.8305
50.836
50.8416
50.8474
50.8534
50.8595
50.8657
50.872
50.8784
50.8849
50.8915
50.8981
50.9049
50.9117
50.9186
50.9255
50.9326
50.9397
50.9468
50.9541
50.9614
50.9688
50.9762
50.9838
50.9914
50.999
51.0068
51.0146
51.0225
51.0304
51.0385
51.0466
51.0548
51.063
51.0713
51.0797
51.0882
51.0968
51.1054
51.1141
51.1229
51.1317
51.1406
51.1496
51.1587
51.1679
51.1771
51.1864
51.1957
51.2052
51.2147
51.2243
51.234
51.2437
51.2535
51.2634
51.2734
51.2834
51.2936
51.3037
51.3141
51.3243
51.3348
51.3451
51.3559
51.3662
51.3773
51.3876
51.399
51.4093
51.4209
51.4313
51.4432
51.4538
51.4664
51.4766
50.5241
50.5365
50.5384
50.5375
50.5369
50.5367
50.5367
50.5368
50.537
50.5373
50.5375
50.5378
50.5382
50.5385
50.5389
50.5392
50.5396
50.5401
50.5405
50.541
50.5414
50.5419
50.5425
50.543
50.5436
50.5442
50.5448
50.5455
50.5462
50.5469
50.5477
50.5484
50.5492
50.5501
50.551
50.5519
50.5528
50.5538
50.5548
50.5558
50.5569
50.5581
50.5592
50.5604
50.5616
50.5629
50.5642
50.5656
50.567
50.5685
50.57
50.5715
50.5731
50.5747
50.5764
50.5781
50.5799
50.5817
50.5836
50.5855
50.5875
50.5895
50.5916
50.5937
50.5959
50.5981
50.6003
50.6027
50.605
50.6075
50.61
50.6126
50.6152
50.6179
50.6206
50.6234
50.6262
50.6291
50.632
50.635
50.6381
50.6412
50.6444
50.6477
50.651
50.6543
50.6578
50.6612
50.6648
50.6684
50.672
50.6758
50.6796
50.6835
50.6874
50.6914
50.6954
50.6995
50.7037
50.7079
50.7122
50.7165
50.7209
50.7252
50.7297
50.7343
50.7391
50.7439
50.7486
50.7531
50.7577
50.7623
50.767
50.7719
50.7771
50.7827
50.7888
50.7951
50.8015
50.8078
50.8142
50.8204
50.826
50.8309
50.8356
50.8402
50.845
50.8501
50.8554
50.861
50.8668
50.8729
50.879
50.8854
50.8918
50.8984
50.905
50.9118
50.9186
50.9256
50.9326
50.9397
50.9468
50.9541
50.9614
50.9688
50.9762
50.9838
50.9914
50.999
51.0068
51.0146
51.0225
51.0304
51.0385
51.0466
51.0547
51.063
51.0713
51.0797
51.0882
51.0968
51.1054
51.1141
51.1229
51.1317
51.1406
51.1496
51.1587
51.1679
51.1771
51.1864
51.1957
51.2052
51.2147
51.2243
51.234
51.2437
51.2535
51.2634
51.2734
51.2834
51.2936
51.3037
51.3141
51.3243
51.3348
51.3451
51.3559
51.3662
51.3773
51.3876
51.3989
51.4094
51.4209
51.4314
51.4433
51.454
51.4674
51.4784
50.4789
50.5052
50.5124
50.5148
50.5156
50.5159
50.5161
50.5163
50.5166
50.5168
50.5171
50.5174
50.5177
50.5181
50.5184
50.5188
50.5192
50.5196
50.5201
50.5205
50.521
50.5214
50.522
50.5225
50.5231
50.5238
50.5244
50.5251
50.5258
50.5265
50.5273
50.5281
50.5289
50.5297
50.5306
50.5315
50.5324
50.5334
50.5344
50.5354
50.5365
50.5377
50.5388
50.54
50.5413
50.5425
50.5439
50.5452
50.5467
50.5481
50.5497
50.5512
50.5528
50.5545
50.5562
50.558
50.5598
50.5617
50.5637
50.5656
50.5676
50.5697
50.5718
50.574
50.5761
50.5784
50.5807
50.583
50.5854
50.5878
50.5903
50.5929
50.5955
50.5981
50.6009
50.6037
50.6065
50.6094
50.6124