/*--------------------------------*- C++ -*----------------------------------*\
| =========                 |                                                 |
| \\      /  F ield         | OpenFOAM: The Open Source CFD Toolbox           |
|  \\    /   O peration     | Version:  3.0.x                                 |
|   \\  /    A nd           | Web:      www.OpenFOAM.org                      |
|    \\/     M anipulation  |                                                 |
\*---------------------------------------------------------------------------*/
FoamFile
{
    version     2.0;
    format      ascii;
    class       surfaceScalarField;
    location    "0.003";
    object      phi;
}
// * * * * * * * * * * * * * * * * * * * * * * * * * * * * * * * * * * * * * //

dimensions      [1 0 -1 0 0 0 0];

internalField   nonuniform List<scalar> 
999
(
2154.97
2154.97
2154.97
2154.97
2154.97
2154.97
2154.97
2154.97
2154.97
2154.97
2154.97
2154.97
2154.97
2154.97
2154.97
2154.97
2154.97
2154.97
2154.97
2154.97
2154.97
2154.97
2154.97
2154.97
2154.97
2154.97
2154.97
2154.97
2154.97
2154.97
2154.97
2154.97
2154.97
2154.97
2154.97
2154.97
2154.97
2154.97
2154.97
2154.97
2154.97
2154.97
2154.97
2154.97
2154.97
2154.97
2154.97
2154.97
2154.97
2154.97
2154.97
2154.97
2154.97
2154.97
2154.97
2154.97
2154.97
2154.97
2154.97
2154.97
2154.97
2154.97
2154.97
2154.97
2154.97
2154.97
2154.97
2154.97
2154.97
2154.97
2154.97
2154.97
2154.97
2154.97
2154.97
2154.97
2154.97
2154.97
2154.97
2154.97
2154.97
2154.97
2154.97
2154.97
2154.97
2154.97
2154.97
2154.97
2154.97
2154.97
2154.97
2154.97
2154.97
2154.97
2154.97
2154.97
2154.97
2154.97
2154.97
2154.97
2154.97
2154.97
2154.97
2154.97
2154.97
2154.97
2154.97
2154.97
2154.97
2154.97
2154.97
2154.97
2154.97
2154.97
2154.97
2154.97
2154.97
2154.97
2154.97
2154.97
2154.97
2154.97
2154.97
2154.97
2154.97
2154.97
2154.97
2154.97
2154.97
2154.97
2154.97
2154.97
2154.97
2154.97
2154.97
2154.97
2154.97
2154.97
2154.97
2154.97
2154.97
2154.97
2154.97
2154.97
2154.97
2154.97
2154.97
2154.97
2154.97
2154.97
2154.97
2154.97
2154.97
2154.97
2154.97
2154.97
2154.97
2154.97
2154.97
2154.97
2154.97
2154.97
2154.97
2154.97
2154.97
2154.97
2154.97
2154.97
2154.97
2154.97
2154.97
2154.97
2154.97
2154.97
2154.97
2154.97
2154.97
2154.97
2154.97
2154.97
2154.97
2154.97
2154.97
2154.97
2154.97
2154.97
2154.97
2154.97
2154.97
2154.97
2154.97
2154.97
2154.97
2154.97
2154.97
2154.97
2154.97
2154.97
2154.97
2154.97
2154.97
2154.97
2154.97
2154.97
2154.97
2154.97
2154.97
2154.97
2154.97
2154.97
2154.97
2154.97
2154.97
2154.97
2154.97
2154.97
2154.97
2154.97
2154.97
2154.97
2154.97
2154.97
2154.97
2154.97
2154.97
2154.97
2154.97
2154.97
2154.97
2154.97
2154.97
2154.97
2154.97
2154.97
2154.97
2154.97
2154.97
2154.97
2154.97
2154.97
2154.97
2154.97
2154.97
2154.97
2154.97
2154.97
2154.97
2154.97
2154.97
2154.97
2154.97
2154.97
2154.97
2154.97
2154.97
2154.97
2154.97
2154.97
2154.97
2154.97
2154.97
2154.97
2154.97
2154.97
2154.97
2154.97
2154.97
2154.97
2154.97
2154.97
2154.97
2154.97
2154.97
2154.97
2154.97
2154.97
2154.97
2154.97
2154.97
2154.97
2154.97
2154.97
2154.97
2154.97
2154.97
2154.97
2154.97
2154.97
2154.97
2154.97
2154.97
2154.97
2154.97
2154.97
2154.97
2154.97
2154.97
2154.97
2154.97
2154.97
2154.97
2154.97
2154.97
2154.97
2154.97
2154.97
2154.97
2154.97
2154.97
2154.97
2154.97
2154.97
2154.97
2154.97
2154.97
2154.97
2154.97
2154.97
2154.97
2154.97
2154.97
2154.97
2154.97
2154.97
2154.97
2154.97
2154.97
2154.97
2154.97
2154.97
2154.97
2154.97
2154.97
2154.97
2154.97
2154.97
2154.97
2154.97
2154.97
2154.97
2154.97
2154.97
2154.97
2154.97
2154.97
2154.97
2154.97
2154.97
2154.97
2154.97
2154.97
2154.97
2154.97
2154.97
2154.97
2154.97
2154.97
2154.97
2154.97
2154.97
2154.97
2154.97
2154.97
2154.97
2154.97
2154.97
2154.97
2154.97
2154.97
2154.97
2154.97
2154.97
2154.97
2154.97
2154.97
2154.97
2154.97
2154.97
2154.97
2154.97
2154.97
2154.97
2154.97
2154.97
2154.97
2154.97
2154.97
2154.97
2154.97
2154.97
2154.97
2154.97
2154.97
2154.97
2154.97
2154.97
2154.97
2154.97
2154.97
2154.97
2154.97
2154.97
2154.97
2154.97
2154.97
2154.97
2154.97
2154.97
2154.97
2154.97
2154.97
2154.97
2154.97
2154.97
2154.97
2154.97
2154.97
2154.97
2154.97
2154.97
2154.97
2154.97
2154.97
2154.97
2154.97
2154.97
2154.97
2154.97
2154.97
2154.97
2154.97
2154.97
2154.97
2154.97
2154.97
2154.97
2154.97
2154.97
2154.97
2154.97
2154.97
2154.97
2154.97
2154.97
2154.97
2154.97
2154.97
2154.97
2154.97
2154.97
2154.97
2154.97
2154.97
2154.97
2154.97
2154.97
2154.97
2154.97
2154.97
2154.97
2154.97
2154.97
2154.97
2154.97
2154.97
2154.97
2154.97
2154.97
2154.97
2154.97
2154.97
2154.97
2154.97
2154.97
2154.97
2154.97
2154.97
2154.97
2154.97
2154.97
2154.97
2154.97
2154.97
2154.97
2154.97
2154.97
2154.97
2154.97
2154.97
2154.97
2154.97
2154.97
2154.97
2154.97
2154.97
2154.97
2154.97
2154.97
2154.97
2154.97
2154.97
2154.97
2154.97
2154.97
2154.97
2154.97
2154.97
2154.97
2154.97
2154.97
2154.97
2154.97
2154.97
2154.97
2154.97
2154.97
2154.97
2154.97
2154.97
2154.97
2154.97
2154.97
2154.97
2154.97
2154.97
2154.97
2154.97
2154.97
2154.97
2154.97
2154.97
2154.97
2154.97
2154.97
2154.97
2154.97
2154.97
2154.97
2154.97
2154.97
2154.97
2154.97
2154.97
2154.97
2154.97
2154.97
2154.97
2154.97
2154.97
2154.97
2154.97
2154.97
2154.97
2154.97
2154.97
2154.97
2154.97
2154.97
2154.97
2154.97
2154.97
2154.97
2154.97
2154.97
2154.97
2154.97
2154.97
2154.97
2154.97
2154.97
2154.97
2154.97
2154.97
2154.97
2154.97
2154.97
2154.97
2154.97
2154.97
2154.97
2154.97
2154.97
2154.97
2154.97
2154.97
2154.97
2154.97
2154.97
2154.97
2154.97
2154.97
2154.97
2154.97
2154.97
2154.97
2154.97
2154.97
2154.97
2154.97
2154.97
2154.97
2154.97
2154.97
2154.97
2154.97
2154.97
2154.97
2154.97
2154.97
2154.97
2154.97
2154.97
2154.97
2154.97
2154.97
2154.97
2154.97
2154.97
2154.97
2154.97
2154.97
2154.97
2154.97
2154.97
2154.97
2154.97
2154.97
2154.97
2154.97
2154.97
2154.97
2154.97
2154.97
2154.97
2154.97
2154.97
2154.97
2154.97
2154.97
2154.97
2154.97
2154.97
2154.97
2154.97
2154.97
2154.97
2154.97
2154.97
2154.97
2154.97
2154.97
2154.97
2154.97
2154.97
2154.97
2154.97
2154.97
2154.97
2154.97
2154.97
2154.97
2154.97
2154.97
2154.97
2154.97
2154.97
2154.97
2154.97
2154.97
2154.97
2154.97
2154.97
2154.97
2154.97
2154.97
2154.97
2154.97
2154.97
2154.97
2154.97
2154.97
2154.97
2154.97
2154.97
2154.97
2154.97
2154.97
2154.97
2154.97
2154.97
2154.97
2154.97
2154.97
2154.97
2154.97
2154.97
2154.97
2154.97
2154.97
2154.97
2154.97
2154.97
2154.97
2154.97
2154.97
2154.97
2154.97
2154.97
2154.97
2154.97
2154.97
2154.97
2154.97
2154.97
2154.97
2154.97
2154.97
2154.97
2154.97
2154.97
2154.97
2154.97
2154.97
2154.97
2154.97
2154.97
2154.97
2154.97
2154.97
2154.97
2154.97
2154.97
2154.97
2154.97
2154.97
2154.97
2154.97
2154.97
2154.97
2154.97
2154.97
2154.97
2154.97
2154.97
2154.97
2154.97
2154.97
2154.97
2154.97
2154.97
2154.97
2154.97
2154.97
2154.97
2154.97
2154.97
2154.97
2154.97
2154.97
2154.96
2154.96
2154.96
2154.96
2154.95
2154.94
2154.93
2154.92
2154.89
2154.87
2154.82
2154.77
2154.7
2154.59
2154.46
2154.28
2154.04
2153.71
2153.29
2152.74
2152.01
2151.07
2149.85
2148.28
2146.28
2143.72
2140.49
2136.42
2131.31
2124.95
2117.08
2107.37
2095.49
2081.04
2063.55
2042.56
2017.51
1987.86
1953.04
1912.47
1865.64
1812.07
1751.45
1683.56
1608.45
1526.35
1437.8
1343.63
1244.93
1143.06
1039.55
936.069
834.283
735.8
642.054
554.244
473.282
399.77
334.007
276.015
225.577
182.29
145.614
114.924
89.553
68.8252
52.0863
38.7224
28.1756
19.9531
13.63
8.85011
5.32319
2.81983
1.16301
0.215442
-0.137813
-0.106933
-0.00145483
0.126765
0.242396
0.329426
0.394218
0.44004
0.471187
0.49014
0.499621
0.50224
0.500211
0.495205
0.488213
0.479765
0.470218
0.459952
0.449389
0.438881
0.428607
0.418574
0.408723
0.39902
0.389512
0.380284
0.371414
0.362927
0.3548
0.346989
0.339461
0.33221
0.325245
0.318575
0.312192
0.306077
0.300203
0.294551
0.28911
0.283869
0.278815
0.273928
0.269187
0.264573
0.260072
0.255677
0.251384
0.247188
0.243083
0.239061
0.235116
0.231244
0.227443
0.223711
0.220049
0.216455
0.21293
0.209473
0.206084
0.202764
0.199509
0.196319
0.193189
0.190114
0.187092
0.184122
0.181201
0.178329
0.175506
0.172732
0.170006
0.167326
0.164692
0.1621
0.159549
0.157034
0.154552
0.1521
0.149675
0.147275
0.144901
0.142552
0.140231
0.137938
0.135676
0.133445
0.131247
0.129078
0.126938
0.124823
0.122729
0.120652
0.118591
0.116545
0.114512
0.112496
0.110497
0.108518
0.106561
0.104626
0.102714
0.100822
0.0989499
0.097094
0.095253
0.093425
0.0916102
0.0898086
0.0880212
0.0862488
0.0844905
0.0827446
0.0810069
0.0792718
0.0775343
0.0757899
0.0740378
0.0722813
0.070528
0.0687906
0.0670114
0.0659746
0.0638509
0.0630636
0.0607134
0.059856
0.0573699
0.0566305
0.0538539
0.0534391
0.0502257
0.0501859
0.0467008
0.0470572
0.0433932
0.0440567
0.0403431
0.0411009
0.0375309
0.0380539
0.0348956
0.034779
0.032384
0.0312095
0.0299753
0.0273691
0.0276589
0.0233548
0.0254055
0.0193159
0.0231541
0.015428
0.0208103
0.0118581
0.0182555
0.00872935
0.0153704
0.00609785
0.0120721
0.00394679
0.00834787
0.00219297
0.00427249
0.000699949
)
;

boundaryField
{
    inlet
    {
        type            calculated;
        value           uniform -2154.97;
    }
    backWall
    {
        type            calculated;
        value           uniform 0;
    }
    sides
    {
        type            empty;
        value           nonuniform 0();
    }
}


// ************************************************************************* //
