/*--------------------------------*- C++ -*----------------------------------*\
| =========                 |                                                 |
| \\      /  F ield         | OpenFOAM: The Open Source CFD Toolbox           |
|  \\    /   O peration     | Version:  3.0.x                                 |
|   \\  /    A nd           | Web:      www.OpenFOAM.org                      |
|    \\/     M anipulation  |                                                 |
\*---------------------------------------------------------------------------*/
FoamFile
{
    version     2.0;
    format      ascii;
    class       volScalarField;
    location    "0.480025";
    object      p;
}
// * * * * * * * * * * * * * * * * * * * * * * * * * * * * * * * * * * * * * //

dimensions      [1 -1 -2 0 0 0 0];

internalField   nonuniform List<scalar> 
13800
(
1.80347e+07
1.80347e+07
1.80347e+07
1.80347e+07
1.80347e+07
1.80347e+07
1.80347e+07
1.80348e+07
1.80348e+07
1.80348e+07
1.80348e+07
1.80348e+07
1.80348e+07
1.80348e+07
1.80349e+07
1.80349e+07
1.80349e+07
1.80349e+07
1.80349e+07
1.8035e+07
1.8035e+07
1.8035e+07
1.80351e+07
1.80351e+07
1.80352e+07
1.80352e+07
1.80353e+07
1.80353e+07
1.80354e+07
1.80355e+07
1.80356e+07
1.80356e+07
1.80357e+07
1.80358e+07
1.80359e+07
1.8036e+07
1.80361e+07
1.80363e+07
1.80364e+07
1.80366e+07
1.80367e+07
1.80369e+07
1.8037e+07
1.80372e+07
1.80374e+07
1.80376e+07
1.80379e+07
1.80381e+07
1.80384e+07
1.80386e+07
1.80389e+07
1.80392e+07
1.80395e+07
1.80398e+07
1.80402e+07
1.80406e+07
1.80409e+07
1.80414e+07
1.80418e+07
1.80422e+07
1.80427e+07
1.80432e+07
1.80437e+07
1.80443e+07
1.80448e+07
1.80454e+07
1.8046e+07
1.80467e+07
1.80473e+07
1.8048e+07
1.80488e+07
1.80495e+07
1.80503e+07
1.80511e+07
1.8052e+07
1.80528e+07
1.80537e+07
1.80547e+07
1.80557e+07
1.80567e+07
1.80577e+07
1.80588e+07
1.80599e+07
1.8061e+07
1.80622e+07
1.80634e+07
1.80647e+07
1.8066e+07
1.80673e+07
1.80687e+07
1.80701e+07
1.80715e+07
1.8073e+07
1.80745e+07
1.80761e+07
1.80777e+07
1.80793e+07
1.8081e+07
1.80827e+07
1.80845e+07
1.80863e+07
1.80882e+07
1.80901e+07
1.8092e+07
1.8094e+07
1.8096e+07
1.80981e+07
1.81002e+07
1.81024e+07
1.81046e+07
1.81069e+07
1.81092e+07
1.81115e+07
1.81139e+07
1.81164e+07
1.81189e+07
1.81214e+07
1.8124e+07
1.81266e+07
1.81293e+07
1.8132e+07
1.81348e+07
1.81377e+07
1.81405e+07
1.81435e+07
1.81465e+07
1.81495e+07
1.81526e+07
1.81557e+07
1.81589e+07
1.81622e+07
1.81655e+07
1.81688e+07
1.81722e+07
1.81757e+07
1.81792e+07
1.81828e+07
1.81864e+07
1.81901e+07
1.81938e+07
1.81976e+07
1.82014e+07
1.82053e+07
1.82093e+07
1.82133e+07
1.82173e+07
1.82215e+07
1.82256e+07
1.82299e+07
1.82342e+07
1.82385e+07
1.82429e+07
1.82474e+07
1.82519e+07
1.82565e+07
1.82611e+07
1.82658e+07
1.82706e+07
1.82754e+07
1.82803e+07
1.82852e+07
1.82902e+07
1.82953e+07
1.83004e+07
1.83056e+07
1.83108e+07
1.83161e+07
1.83214e+07
1.83268e+07
1.83323e+07
1.83378e+07
1.83434e+07
1.83491e+07
1.83548e+07
1.83606e+07
1.83664e+07
1.83723e+07
1.83782e+07
1.83842e+07
1.83903e+07
1.83964e+07
1.84026e+07
1.84088e+07
1.84151e+07
1.84215e+07
1.84279e+07
1.84344e+07
1.84409e+07
1.84475e+07
1.84542e+07
1.84609e+07
1.84676e+07
1.84745e+07
1.84813e+07
1.84883e+07
1.84953e+07
1.85023e+07
1.85095e+07
1.85172e+07
1.85257e+07
1.80347e+07
1.80347e+07
1.80347e+07
1.80347e+07
1.80347e+07
1.80347e+07
1.80347e+07
1.80348e+07
1.80348e+07
1.80348e+07
1.80348e+07
1.80348e+07
1.80348e+07
1.80348e+07
1.80349e+07
1.80349e+07
1.80349e+07
1.80349e+07
1.80349e+07
1.8035e+07
1.8035e+07
1.8035e+07
1.80351e+07
1.80351e+07
1.80352e+07
1.80352e+07
1.80353e+07
1.80353e+07
1.80354e+07
1.80355e+07
1.80356e+07
1.80356e+07
1.80357e+07
1.80358e+07
1.80359e+07
1.8036e+07
1.80361e+07
1.80363e+07
1.80364e+07
1.80366e+07
1.80367e+07
1.80369e+07
1.8037e+07
1.80372e+07
1.80374e+07
1.80376e+07
1.80379e+07
1.80381e+07
1.80384e+07
1.80386e+07
1.80389e+07
1.80392e+07
1.80395e+07
1.80398e+07
1.80402e+07
1.80406e+07
1.80409e+07
1.80414e+07
1.80418e+07
1.80422e+07
1.80427e+07
1.80432e+07
1.80437e+07
1.80443e+07
1.80448e+07
1.80454e+07
1.8046e+07
1.80467e+07
1.80473e+07
1.8048e+07
1.80488e+07
1.80495e+07
1.80503e+07
1.80511e+07
1.8052e+07
1.80528e+07
1.80537e+07
1.80547e+07
1.80557e+07
1.80567e+07
1.80577e+07
1.80588e+07
1.80599e+07
1.8061e+07
1.80622e+07
1.80634e+07
1.80647e+07
1.8066e+07
1.80673e+07
1.80687e+07
1.80701e+07
1.80715e+07
1.8073e+07
1.80745e+07
1.80761e+07
1.80777e+07
1.80793e+07
1.8081e+07
1.80827e+07
1.80845e+07
1.80863e+07
1.80882e+07
1.80901e+07
1.8092e+07
1.8094e+07
1.8096e+07
1.80981e+07
1.81002e+07
1.81024e+07
1.81046e+07
1.81069e+07
1.81092e+07
1.81115e+07
1.81139e+07
1.81164e+07
1.81189e+07
1.81214e+07
1.8124e+07
1.81266e+07
1.81293e+07
1.8132e+07
1.81348e+07
1.81377e+07
1.81405e+07
1.81435e+07
1.81465e+07
1.81495e+07
1.81526e+07
1.81557e+07
1.81589e+07
1.81622e+07
1.81655e+07
1.81688e+07
1.81722e+07
1.81757e+07
1.81792e+07
1.81828e+07
1.81864e+07
1.81901e+07
1.81938e+07
1.81976e+07
1.82014e+07
1.82053e+07
1.82093e+07
1.82133e+07
1.82173e+07
1.82215e+07
1.82256e+07
1.82299e+07
1.82342e+07
1.82385e+07
1.82429e+07
1.82474e+07
1.82519e+07
1.82565e+07
1.82611e+07
1.82658e+07
1.82706e+07
1.82754e+07
1.82803e+07
1.82852e+07
1.82902e+07
1.82953e+07
1.83004e+07
1.83056e+07
1.83108e+07
1.83161e+07
1.83214e+07
1.83268e+07
1.83323e+07
1.83378e+07
1.83434e+07
1.83491e+07
1.83548e+07
1.83606e+07
1.83664e+07
1.83723e+07
1.83782e+07
1.83842e+07
1.83903e+07
1.83964e+07
1.84026e+07
1.84088e+07
1.84151e+07
1.84215e+07
1.84279e+07
1.84344e+07
1.84409e+07
1.84475e+07
1.84542e+07
1.84609e+07
1.84676e+07
1.84745e+07
1.84813e+07
1.84883e+07
1.84953e+07
1.85023e+07
1.85095e+07
1.85172e+07
1.85256e+07
1.80347e+07
1.80347e+07
1.80347e+07
1.80347e+07
1.80347e+07
1.80347e+07
1.80347e+07
1.80348e+07
1.80348e+07
1.80348e+07
1.80348e+07
1.80348e+07
1.80348e+07
1.80348e+07
1.80349e+07
1.80349e+07
1.80349e+07
1.80349e+07
1.80349e+07
1.8035e+07
1.8035e+07
1.8035e+07
1.80351e+07
1.80351e+07
1.80352e+07
1.80352e+07
1.80353e+07
1.80353e+07
1.80354e+07
1.80355e+07
1.80356e+07
1.80356e+07
1.80357e+07
1.80358e+07
1.80359e+07
1.8036e+07
1.80361e+07
1.80363e+07
1.80364e+07
1.80366e+07
1.80367e+07
1.80369e+07
1.8037e+07
1.80372e+07
1.80374e+07
1.80376e+07
1.80379e+07
1.80381e+07
1.80384e+07
1.80386e+07
1.80389e+07
1.80392e+07
1.80395e+07
1.80398e+07
1.80402e+07
1.80406e+07
1.80409e+07
1.80414e+07
1.80418e+07
1.80422e+07
1.80427e+07
1.80432e+07
1.80437e+07
1.80443e+07
1.80448e+07
1.80454e+07
1.8046e+07
1.80467e+07
1.80473e+07
1.8048e+07
1.80488e+07
1.80495e+07
1.80503e+07
1.80511e+07
1.8052e+07
1.80528e+07
1.80537e+07
1.80547e+07
1.80557e+07
1.80567e+07
1.80577e+07
1.80588e+07
1.80599e+07
1.8061e+07
1.80622e+07
1.80634e+07
1.80647e+07
1.8066e+07
1.80673e+07
1.80687e+07
1.80701e+07
1.80715e+07
1.8073e+07
1.80745e+07
1.80761e+07
1.80777e+07
1.80793e+07
1.8081e+07
1.80827e+07
1.80845e+07
1.80863e+07
1.80882e+07
1.80901e+07
1.8092e+07
1.8094e+07
1.8096e+07
1.80981e+07
1.81002e+07
1.81024e+07
1.81046e+07
1.81069e+07
1.81092e+07
1.81115e+07
1.81139e+07
1.81164e+07
1.81189e+07
1.81214e+07
1.8124e+07
1.81266e+07
1.81293e+07
1.8132e+07
1.81348e+07
1.81377e+07
1.81405e+07
1.81435e+07
1.81465e+07
1.81495e+07
1.81526e+07
1.81557e+07
1.81589e+07
1.81622e+07
1.81655e+07
1.81688e+07
1.81722e+07
1.81757e+07
1.81792e+07
1.81828e+07
1.81864e+07
1.81901e+07
1.81938e+07
1.81976e+07
1.82014e+07
1.82053e+07
1.82093e+07
1.82133e+07
1.82173e+07
1.82215e+07
1.82256e+07
1.82299e+07
1.82342e+07
1.82385e+07
1.82429e+07
1.82474e+07
1.82519e+07
1.82565e+07
1.82611e+07
1.82658e+07
1.82706e+07
1.82754e+07
1.82803e+07
1.82852e+07
1.82902e+07
1.82953e+07
1.83004e+07
1.83056e+07
1.83108e+07
1.83161e+07
1.83214e+07
1.83268e+07
1.83323e+07
1.83378e+07
1.83434e+07
1.83491e+07
1.83548e+07
1.83606e+07
1.83664e+07
1.83723e+07
1.83782e+07
1.83842e+07
1.83903e+07
1.83964e+07
1.84026e+07
1.84088e+07
1.84151e+07
1.84215e+07
1.84279e+07
1.84344e+07
1.84409e+07
1.84475e+07
1.84542e+07
1.84609e+07
1.84676e+07
1.84745e+07
1.84813e+07
1.84883e+07
1.84953e+07
1.85023e+07
1.85095e+07
1.85172e+07
1.85256e+07
1.80347e+07
1.80347e+07
1.80347e+07
1.80347e+07
1.80347e+07
1.80347e+07
1.80347e+07
1.80348e+07
1.80348e+07
1.80348e+07
1.80348e+07
1.80348e+07
1.80348e+07
1.80348e+07
1.80349e+07
1.80349e+07
1.80349e+07
1.80349e+07
1.80349e+07
1.8035e+07
1.8035e+07
1.8035e+07
1.80351e+07
1.80351e+07
1.80352e+07
1.80352e+07
1.80353e+07
1.80353e+07
1.80354e+07
1.80355e+07
1.80356e+07
1.80356e+07
1.80357e+07
1.80358e+07
1.80359e+07
1.8036e+07
1.80361e+07
1.80363e+07
1.80364e+07
1.80366e+07
1.80367e+07
1.80369e+07
1.8037e+07
1.80372e+07
1.80374e+07
1.80376e+07
1.80379e+07
1.80381e+07
1.80384e+07
1.80386e+07
1.80389e+07
1.80392e+07
1.80395e+07
1.80398e+07
1.80402e+07
1.80406e+07
1.80409e+07
1.80414e+07
1.80418e+07
1.80422e+07
1.80427e+07
1.80432e+07
1.80437e+07
1.80443e+07
1.80448e+07
1.80454e+07
1.8046e+07
1.80467e+07
1.80473e+07
1.8048e+07
1.80488e+07
1.80495e+07
1.80503e+07
1.80511e+07
1.8052e+07
1.80528e+07
1.80537e+07
1.80547e+07
1.80557e+07
1.80567e+07
1.80577e+07
1.80588e+07
1.80599e+07
1.8061e+07
1.80622e+07
1.80634e+07
1.80647e+07
1.8066e+07
1.80673e+07
1.80687e+07
1.80701e+07
1.80715e+07
1.8073e+07
1.80745e+07
1.80761e+07
1.80777e+07
1.80793e+07
1.8081e+07
1.80827e+07
1.80845e+07
1.80863e+07
1.80882e+07
1.80901e+07
1.8092e+07
1.8094e+07
1.8096e+07
1.80981e+07
1.81002e+07
1.81024e+07
1.81046e+07
1.81069e+07
1.81092e+07
1.81115e+07
1.81139e+07
1.81164e+07
1.81189e+07
1.81214e+07
1.8124e+07
1.81266e+07
1.81293e+07
1.8132e+07
1.81348e+07
1.81377e+07
1.81405e+07
1.81435e+07
1.81465e+07
1.81495e+07
1.81526e+07
1.81557e+07
1.81589e+07
1.81622e+07
1.81655e+07
1.81688e+07
1.81722e+07
1.81757e+07
1.81792e+07
1.81828e+07
1.81864e+07
1.81901e+07
1.81938e+07
1.81976e+07
1.82014e+07
1.82053e+07
1.82093e+07
1.82133e+07
1.82173e+07
1.82215e+07
1.82256e+07
1.82299e+07
1.82342e+07
1.82385e+07
1.82429e+07
1.82474e+07
1.82519e+07
1.82565e+07
1.82611e+07
1.82658e+07
1.82706e+07
1.82754e+07
1.82803e+07
1.82852e+07
1.82902e+07
1.82953e+07
1.83004e+07
1.83056e+07
1.83108e+07
1.83161e+07
1.83214e+07
1.83268e+07
1.83323e+07
1.83378e+07
1.83434e+07
1.83491e+07
1.83548e+07
1.83606e+07
1.83664e+07
1.83723e+07
1.83782e+07
1.83842e+07
1.83903e+07
1.83964e+07
1.84026e+07
1.84088e+07
1.84151e+07
1.84215e+07
1.84279e+07
1.84344e+07
1.84409e+07
1.84475e+07
1.84542e+07
1.84609e+07
1.84676e+07
1.84745e+07
1.84813e+07
1.84883e+07
1.84953e+07
1.85023e+07
1.85095e+07
1.85171e+07
1.85253e+07
1.80347e+07
1.80347e+07
1.80347e+07
1.80347e+07
1.80347e+07
1.80347e+07
1.80347e+07
1.80348e+07
1.80348e+07
1.80348e+07
1.80348e+07
1.80348e+07
1.80348e+07
1.80348e+07
1.80349e+07
1.80349e+07
1.80349e+07
1.80349e+07
1.80349e+07
1.8035e+07
1.8035e+07
1.8035e+07
1.80351e+07
1.80351e+07
1.80352e+07
1.80352e+07
1.80353e+07
1.80353e+07
1.80354e+07
1.80355e+07
1.80356e+07
1.80356e+07
1.80357e+07
1.80358e+07
1.80359e+07
1.8036e+07
1.80361e+07
1.80363e+07
1.80364e+07
1.80366e+07
1.80367e+07
1.80369e+07
1.8037e+07
1.80372e+07
1.80374e+07
1.80376e+07
1.80379e+07
1.80381e+07
1.80384e+07
1.80386e+07
1.80389e+07
1.80392e+07
1.80395e+07
1.80398e+07
1.80402e+07
1.80406e+07
1.80409e+07
1.80414e+07
1.80418e+07
1.80422e+07
1.80427e+07
1.80432e+07
1.80437e+07
1.80443e+07
1.80448e+07
1.80454e+07
1.8046e+07
1.80467e+07
1.80473e+07
1.8048e+07
1.80488e+07
1.80495e+07
1.80503e+07
1.80511e+07
1.8052e+07
1.80528e+07
1.80537e+07
1.80547e+07
1.80557e+07
1.80567e+07
1.80577e+07
1.80588e+07
1.80599e+07
1.8061e+07
1.80622e+07
1.80634e+07
1.80647e+07
1.8066e+07
1.80673e+07
1.80687e+07
1.80701e+07
1.80715e+07
1.8073e+07
1.80745e+07
1.80761e+07
1.80777e+07
1.80793e+07
1.8081e+07
1.80827e+07
1.80845e+07
1.80863e+07
1.80882e+07
1.80901e+07
1.8092e+07
1.8094e+07
1.8096e+07
1.80981e+07
1.81002e+07
1.81024e+07
1.81046e+07
1.81069e+07
1.81092e+07
1.81115e+07
1.81139e+07
1.81164e+07
1.81189e+07
1.81214e+07
1.8124e+07
1.81266e+07
1.81293e+07
1.8132e+07
1.81348e+07
1.81377e+07
1.81405e+07
1.81435e+07
1.81465e+07
1.81495e+07
1.81526e+07
1.81557e+07
1.81589e+07
1.81622e+07
1.81655e+07
1.81688e+07
1.81722e+07
1.81757e+07
1.81792e+07
1.81828e+07
1.81864e+07
1.81901e+07
1.81938e+07
1.81976e+07
1.82014e+07
1.82053e+07
1.82093e+07
1.82133e+07
1.82173e+07
1.82215e+07
1.82256e+07
1.82299e+07
1.82342e+07
1.82385e+07
1.82429e+07
1.82474e+07
1.82519e+07
1.82565e+07
1.82611e+07
1.82658e+07
1.82706e+07
1.82754e+07
1.82803e+07
1.82852e+07
1.82902e+07
1.82953e+07
1.83004e+07
1.83056e+07
1.83108e+07
1.83161e+07
1.83214e+07
1.83268e+07
1.83323e+07
1.83378e+07
1.83434e+07
1.83491e+07
1.83548e+07
1.83606e+07
1.83664e+07
1.83723e+07
1.83782e+07
1.83842e+07
1.83903e+07
1.83964e+07
1.84026e+07
1.84088e+07
1.84151e+07
1.84215e+07
1.84279e+07
1.84344e+07
1.84409e+07
1.84475e+07
1.84542e+07
1.84609e+07
1.84676e+07
1.84745e+07
1.84813e+07
1.84883e+07
1.84953e+07
1.85023e+07
1.85094e+07
1.85168e+07
1.85244e+07
1.80347e+07
1.80347e+07
1.80347e+07
1.80347e+07
1.80347e+07
1.80347e+07
1.80347e+07
1.80348e+07
1.80348e+07
1.80348e+07
1.80348e+07
1.80348e+07
1.80348e+07
1.80348e+07
1.80349e+07
1.80349e+07
1.80349e+07
1.80349e+07
1.80349e+07
1.8035e+07
1.8035e+07
1.8035e+07
1.80351e+07
1.80351e+07
1.80352e+07
1.80352e+07
1.80353e+07
1.80353e+07
1.80354e+07
1.80355e+07
1.80356e+07
1.80356e+07
1.80357e+07
1.80358e+07
1.80359e+07
1.8036e+07
1.80361e+07
1.80363e+07
1.80364e+07
1.80366e+07
1.80367e+07
1.80369e+07
1.8037e+07
1.80372e+07
1.80374e+07
1.80376e+07
1.80379e+07
1.80381e+07
1.80384e+07
1.80386e+07
1.80389e+07
1.80392e+07
1.80395e+07
1.80398e+07
1.80402e+07
1.80406e+07
1.80409e+07
1.80414e+07
1.80418e+07
1.80422e+07
1.80427e+07
1.80432e+07
1.80437e+07
1.80443e+07
1.80448e+07
1.80454e+07
1.8046e+07
1.80467e+07
1.80473e+07
1.8048e+07
1.80488e+07
1.80495e+07
1.80503e+07
1.80511e+07
1.8052e+07
1.80528e+07
1.80537e+07
1.80547e+07
1.80557e+07
1.80567e+07
1.80577e+07
1.80588e+07
1.80599e+07
1.8061e+07
1.80622e+07
1.80634e+07
1.80647e+07
1.8066e+07
1.80673e+07
1.80687e+07
1.80701e+07
1.80715e+07
1.8073e+07
1.80745e+07
1.80761e+07
1.80777e+07
1.80793e+07
1.8081e+07
1.80827e+07
1.80845e+07
1.80863e+07
1.80882e+07
1.80901e+07
1.8092e+07
1.8094e+07
1.8096e+07
1.80981e+07
1.81002e+07
1.81024e+07
1.81046e+07
1.81069e+07
1.81092e+07
1.81115e+07
1.81139e+07
1.81164e+07
1.81189e+07
1.81214e+07
1.8124e+07
1.81266e+07
1.81293e+07
1.8132e+07
1.81348e+07
1.81377e+07
1.81405e+07
1.81435e+07
1.81465e+07
1.81495e+07
1.81526e+07
1.81557e+07
1.81589e+07
1.81622e+07
1.81655e+07
1.81688e+07
1.81722e+07
1.81757e+07
1.81792e+07
1.81828e+07
1.81864e+07
1.81901e+07
1.81938e+07
1.81976e+07
1.82014e+07
1.82053e+07
1.82093e+07
1.82133e+07
1.82173e+07
1.82215e+07
1.82256e+07
1.82299e+07
1.82342e+07
1.82385e+07
1.82429e+07
1.82474e+07
1.82519e+07
1.82565e+07
1.82611e+07
1.82658e+07
1.82706e+07
1.82754e+07
1.82803e+07
1.82852e+07
1.82902e+07
1.82953e+07
1.83004e+07
1.83056e+07
1.83108e+07
1.83161e+07
1.83214e+07
1.83268e+07
1.83323e+07
1.83378e+07
1.83434e+07
1.83491e+07
1.83548e+07
1.83606e+07
1.83664e+07
1.83723e+07
1.83782e+07
1.83842e+07
1.83903e+07
1.83964e+07
1.84026e+07
1.84088e+07
1.84151e+07
1.84215e+07
1.84279e+07
1.84344e+07
1.84409e+07
1.84475e+07
1.84542e+07
1.84609e+07
1.84676e+07
1.84745e+07
1.84813e+07
1.84883e+07
1.84953e+07
1.85023e+07
1.85093e+07
1.85164e+07
1.8523e+07
1.80347e+07
1.80347e+07
1.80347e+07
1.80347e+07
1.80347e+07
1.80347e+07
1.80347e+07
1.80348e+07
1.80348e+07
1.80348e+07
1.80348e+07
1.80348e+07
1.80348e+07
1.80348e+07
1.80349e+07
1.80349e+07
1.80349e+07
1.80349e+07
1.80349e+07
1.8035e+07
1.8035e+07
1.8035e+07
1.80351e+07
1.80351e+07
1.80352e+07
1.80352e+07
1.80353e+07
1.80353e+07
1.80354e+07
1.80355e+07
1.80356e+07
1.80356e+07
1.80357e+07
1.80358e+07
1.80359e+07
1.8036e+07
1.80361e+07
1.80363e+07
1.80364e+07
1.80366e+07
1.80367e+07
1.80369e+07
1.8037e+07
1.80372e+07
1.80374e+07
1.80376e+07
1.80379e+07
1.80381e+07
1.80384e+07
1.80386e+07
1.80389e+07
1.80392e+07
1.80395e+07
1.80398e+07
1.80402e+07
1.80406e+07
1.80409e+07
1.80414e+07
1.80418e+07
1.80422e+07
1.80427e+07
1.80432e+07
1.80437e+07
1.80443e+07
1.80448e+07
1.80454e+07
1.8046e+07
1.80467e+07
1.80473e+07
1.8048e+07
1.80488e+07
1.80495e+07
1.80503e+07
1.80511e+07
1.8052e+07
1.80528e+07
1.80537e+07
1.80547e+07
1.80557e+07
1.80567e+07
1.80577e+07
1.80588e+07
1.80599e+07
1.8061e+07
1.80622e+07
1.80634e+07
1.80647e+07
1.8066e+07
1.80673e+07
1.80687e+07
1.80701e+07
1.80715e+07
1.8073e+07
1.80745e+07
1.80761e+07
1.80777e+07
1.80793e+07
1.8081e+07
1.80827e+07
1.80845e+07
1.80863e+07
1.80882e+07
1.80901e+07
1.8092e+07
1.8094e+07
1.8096e+07
1.80981e+07
1.81002e+07
1.81024e+07
1.81046e+07
1.81069e+07
1.81092e+07
1.81115e+07
1.81139e+07
1.81164e+07
1.81189e+07
1.81214e+07
1.8124e+07
1.81266e+07
1.81293e+07
1.8132e+07
1.81348e+07
1.81377e+07
1.81405e+07
1.81435e+07
1.81465e+07
1.81495e+07
1.81526e+07
1.81557e+07
1.81589e+07
1.81622e+07
1.81655e+07
1.81688e+07
1.81722e+07
1.81757e+07
1.81792e+07
1.81828e+07
1.81864e+07
1.81901e+07
1.81938e+07
1.81976e+07
1.82014e+07
1.82053e+07
1.82093e+07
1.82133e+07
1.82173e+07
1.82215e+07
1.82256e+07
1.82299e+07
1.82342e+07
1.82385e+07
1.82429e+07
1.82474e+07
1.82519e+07
1.82565e+07
1.82611e+07
1.82658e+07
1.82706e+07
1.82754e+07
1.82803e+07
1.82852e+07
1.82902e+07
1.82953e+07
1.83004e+07
1.83056e+07
1.83108e+07
1.83161e+07
1.83214e+07
1.83268e+07
1.83323e+07
1.83378e+07
1.83434e+07
1.83491e+07
1.83548e+07
1.83606e+07
1.83664e+07
1.83723e+07
1.83782e+07
1.83842e+07
1.83903e+07
1.83964e+07
1.84026e+07
1.84088e+07
1.84151e+07
1.84215e+07
1.84279e+07
1.84344e+07
1.84409e+07
1.84475e+07
1.84542e+07
1.84609e+07
1.84676e+07
1.84745e+07
1.84813e+07
1.84883e+07
1.84952e+07
1.85023e+07
1.85093e+07
1.85159e+07
1.85219e+07
1.80347e+07
1.80347e+07
1.80347e+07
1.80347e+07
1.80347e+07
1.80347e+07
1.80347e+07
1.80348e+07
1.80348e+07
1.80348e+07
1.80348e+07
1.80348e+07
1.80348e+07
1.80348e+07
1.80349e+07
1.80349e+07
1.80349e+07
1.80349e+07
1.80349e+07
1.8035e+07
1.8035e+07
1.8035e+07
1.80351e+07
1.80351e+07
1.80352e+07
1.80352e+07
1.80353e+07
1.80353e+07
1.80354e+07
1.80355e+07
1.80356e+07
1.80356e+07
1.80357e+07
1.80358e+07
1.80359e+07
1.8036e+07
1.80361e+07
1.80363e+07
1.80364e+07
1.80366e+07
1.80367e+07
1.80369e+07
1.8037e+07
1.80372e+07
1.80374e+07
1.80376e+07
1.80379e+07
1.80381e+07
1.80384e+07
1.80386e+07
1.80389e+07
1.80392e+07
1.80395e+07
1.80398e+07
1.80402e+07
1.80406e+07
1.80409e+07
1.80414e+07
1.80418e+07
1.80422e+07
1.80427e+07
1.80432e+07
1.80437e+07
1.80443e+07
1.80448e+07
1.80454e+07
1.8046e+07
1.80467e+07
1.80473e+07
1.8048e+07
1.80488e+07
1.80495e+07
1.80503e+07
1.80511e+07
1.8052e+07
1.80528e+07
1.80537e+07
1.80547e+07
1.80557e+07
1.80567e+07
1.80577e+07
1.80588e+07
1.80599e+07
1.8061e+07
1.80622e+07
1.80634e+07
1.80647e+07
1.8066e+07
1.80673e+07
1.80687e+07
1.80701e+07
1.80715e+07
1.8073e+07
1.80745e+07
1.80761e+07
1.80777e+07
1.80793e+07
1.8081e+07
1.80827e+07
1.80845e+07
1.80863e+07
1.80882e+07
1.80901e+07
1.8092e+07
1.8094e+07
1.8096e+07
1.80981e+07
1.81002e+07
1.81024e+07
1.81046e+07
1.81069e+07
1.81092e+07
1.81115e+07
1.81139e+07
1.81164e+07
1.81189e+07
1.81214e+07
1.8124e+07
1.81266e+07
1.81293e+07
1.8132e+07
1.81348e+07
1.81377e+07
1.81405e+07
1.81435e+07
1.81465e+07
1.81495e+07
1.81526e+07
1.81557e+07
1.81589e+07
1.81622e+07
1.81655e+07
1.81688e+07
1.81722e+07
1.81757e+07
1.81792e+07
1.81828e+07
1.81864e+07
1.81901e+07
1.81938e+07
1.81976e+07
1.82014e+07
1.82053e+07
1.82093e+07
1.82133e+07
1.82173e+07
1.82215e+07
1.82256e+07
1.82299e+07
1.82342e+07
1.82385e+07
1.82429e+07
1.82474e+07
1.82519e+07
1.82565e+07
1.82611e+07
1.82658e+07
1.82706e+07
1.82754e+07
1.82803e+07
1.82852e+07
1.82902e+07
1.82953e+07
1.83004e+07
1.83056e+07
1.83108e+07
1.83161e+07
1.83214e+07
1.83268e+07
1.83323e+07
1.83378e+07
1.83434e+07
1.83491e+07
1.83548e+07
1.83606e+07
1.83664e+07
1.83723e+07
1.83782e+07
1.83842e+07
1.83903e+07
1.83964e+07
1.84026e+07
1.84088e+07
1.84151e+07
1.84215e+07
1.84279e+07
1.84344e+07
1.84409e+07
1.84475e+07
1.84542e+07
1.84609e+07
1.84676e+07
1.84745e+07
1.84813e+07
1.84883e+07
1.84952e+07
1.85023e+07
1.85092e+07
1.85158e+07
1.85216e+07
1.80347e+07
1.80347e+07
1.80347e+07
1.80347e+07
1.80347e+07
1.80347e+07
1.80347e+07
1.80348e+07
1.80348e+07
1.80348e+07
1.80348e+07
1.80348e+07
1.80348e+07
1.80348e+07
1.80349e+07
1.80349e+07
1.80349e+07
1.80349e+07
1.80349e+07
1.8035e+07
1.8035e+07
1.8035e+07
1.80351e+07
1.80351e+07
1.80352e+07
1.80352e+07
1.80353e+07
1.80353e+07
1.80354e+07
1.80355e+07
1.80356e+07
1.80356e+07
1.80357e+07
1.80358e+07
1.80359e+07
1.8036e+07
1.80361e+07
1.80363e+07
1.80364e+07
1.80366e+07
1.80367e+07
1.80369e+07
1.8037e+07
1.80372e+07
1.80374e+07
1.80376e+07
1.80379e+07
1.80381e+07
1.80384e+07
1.80386e+07
1.80389e+07
1.80392e+07
1.80395e+07
1.80398e+07
1.80402e+07
1.80406e+07
1.80409e+07
1.80414e+07
1.80418e+07
1.80422e+07
1.80427e+07
1.80432e+07
1.80437e+07
1.80443e+07
1.80448e+07
1.80454e+07
1.8046e+07
1.80467e+07
1.80473e+07
1.8048e+07
1.80488e+07
1.80495e+07
1.80503e+07
1.80511e+07
1.8052e+07
1.80528e+07
1.80537e+07
1.80547e+07
1.80557e+07
1.80567e+07
1.80577e+07
1.80588e+07
1.80599e+07
1.8061e+07
1.80622e+07
1.80634e+07
1.80647e+07
1.8066e+07
1.80673e+07
1.80687e+07
1.80701e+07
1.80715e+07
1.8073e+07
1.80745e+07
1.80761e+07
1.80777e+07
1.80793e+07
1.8081e+07
1.80827e+07
1.80845e+07
1.80863e+07
1.80882e+07
1.80901e+07
1.8092e+07
1.8094e+07
1.8096e+07
1.80981e+07
1.81002e+07
1.81024e+07
1.81046e+07
1.81069e+07
1.81092e+07
1.81115e+07
1.81139e+07
1.81164e+07
1.81189e+07
1.81214e+07
1.8124e+07
1.81266e+07
1.81293e+07
1.8132e+07
1.81348e+07
1.81377e+07
1.81405e+07
1.81435e+07
1.81465e+07
1.81495e+07
1.81526e+07
1.81557e+07
1.81589e+07
1.81622e+07
1.81655e+07
1.81688e+07
1.81722e+07
1.81757e+07
1.81792e+07
1.81828e+07
1.81864e+07
1.81901e+07
1.81938e+07
1.81976e+07
1.82014e+07
1.82053e+07
1.82093e+07
1.82133e+07
1.82173e+07
1.82215e+07
1.82256e+07
1.82299e+07
1.82342e+07
1.82385e+07
1.82429e+07
1.82474e+07
1.82519e+07
1.82565e+07
1.82611e+07
1.82658e+07
1.82706e+07
1.82754e+07
1.82803e+07
1.82852e+07
1.82902e+07
1.82953e+07
1.83004e+07
1.83056e+07
1.83108e+07
1.83161e+07
1.83214e+07
1.83268e+07
1.83323e+07
1.83378e+07
1.83434e+07
1.83491e+07
1.83548e+07
1.83606e+07
1.83664e+07
1.83723e+07
1.83782e+07
1.83842e+07
1.83903e+07
1.83964e+07
1.84026e+07
1.84088e+07
1.84151e+07
1.84215e+07
1.84279e+07
1.84344e+07
1.84409e+07
1.84475e+07
1.84542e+07
1.84609e+07
1.84676e+07
1.84745e+07
1.84813e+07
1.84883e+07
1.84952e+07
1.85023e+07
1.85092e+07
1.85157e+07
1.85216e+07
1.80347e+07
1.80347e+07
1.80347e+07
1.80347e+07
1.80347e+07
1.80347e+07
1.80347e+07
1.80348e+07
1.80348e+07
1.80348e+07
1.80348e+07
1.80348e+07
1.80348e+07
1.80348e+07
1.80349e+07
1.80349e+07
1.80349e+07
1.80349e+07
1.80349e+07
1.8035e+07
1.8035e+07
1.8035e+07
1.80351e+07
1.80351e+07
1.80352e+07
1.80352e+07
1.80353e+07
1.80353e+07
1.80354e+07
1.80355e+07
1.80356e+07
1.80356e+07
1.80357e+07
1.80358e+07
1.80359e+07
1.8036e+07
1.80361e+07
1.80363e+07
1.80364e+07
1.80366e+07
1.80367e+07
1.80369e+07
1.8037e+07
1.80372e+07
1.80374e+07
1.80376e+07
1.80379e+07
1.80381e+07
1.80384e+07
1.80386e+07
1.80389e+07
1.80392e+07
1.80395e+07
1.80398e+07
1.80402e+07
1.80406e+07
1.80409e+07
1.80414e+07
1.80418e+07
1.80422e+07
1.80427e+07
1.80432e+07
1.80437e+07
1.80443e+07
1.80448e+07
1.80454e+07
1.8046e+07
1.80467e+07
1.80473e+07
1.8048e+07
1.80488e+07
1.80495e+07
1.80503e+07
1.80511e+07
1.8052e+07
1.80528e+07
1.80537e+07
1.80547e+07
1.80557e+07
1.80567e+07
1.80577e+07
1.80588e+07
1.80599e+07
1.8061e+07
1.80622e+07
1.80634e+07
1.80647e+07
1.8066e+07
1.80673e+07
1.80687e+07
1.80701e+07
1.80715e+07
1.8073e+07
1.80745e+07
1.80761e+07
1.80777e+07
1.80793e+07
1.8081e+07
1.80827e+07
1.80845e+07
1.80863e+07
1.80882e+07
1.80901e+07
1.8092e+07
1.8094e+07
1.8096e+07
1.80981e+07
1.81002e+07
1.81024e+07
1.81046e+07
1.81069e+07
1.81092e+07
1.81115e+07
1.81139e+07
1.81164e+07
1.81189e+07
1.81214e+07
1.8124e+07
1.81266e+07
1.81293e+07
1.8132e+07
1.81348e+07
1.81377e+07
1.81405e+07
1.81435e+07
1.81465e+07
1.81495e+07
1.81526e+07
1.81557e+07
1.81589e+07
1.81622e+07
1.81655e+07
1.81688e+07
1.81722e+07
1.81757e+07
1.81792e+07
1.81828e+07
1.81864e+07
1.81901e+07
1.81938e+07
1.81976e+07
1.82014e+07
1.82053e+07
1.82093e+07
1.82133e+07
1.82173e+07
1.82215e+07
1.82256e+07
1.82299e+07
1.82342e+07
1.82385e+07
1.82429e+07
1.82474e+07
1.82519e+07
1.82565e+07
1.82611e+07
1.82658e+07
1.82706e+07
1.82754e+07
1.82803e+07
1.82852e+07
1.82902e+07
1.82953e+07
1.83004e+07
1.83056e+07
1.83108e+07
1.83161e+07
1.83214e+07
1.83268e+07
1.83323e+07
1.83378e+07
1.83434e+07
1.83491e+07
1.83548e+07
1.83606e+07
1.83664e+07
1.83723e+07
1.83782e+07
1.83842e+07
1.83903e+07
1.83964e+07
1.84026e+07
1.84088e+07
1.84151e+07
1.84215e+07
1.84279e+07
1.84344e+07
1.84409e+07
1.84475e+07
1.84542e+07
1.84609e+07
1.84676e+07
1.84745e+07
1.84813e+07
1.84883e+07
1.84952e+07
1.85023e+07
1.85092e+07
1.85157e+07
1.85216e+07
1.85408e+07
1.85472e+07
1.85503e+07
1.8552e+07
1.85534e+07
1.85547e+07
1.8556e+07
1.85573e+07
1.85585e+07
1.85597e+07
1.85608e+07
1.8562e+07
1.8563e+07
1.85641e+07
1.8565e+07
1.85658e+07
1.85664e+07
1.85668e+07
1.85668e+07
1.85659e+07
1.85401e+07
1.85458e+07
1.85488e+07
1.85505e+07
1.85519e+07
1.85533e+07
1.85546e+07
1.85558e+07
1.8557e+07
1.85582e+07
1.85594e+07
1.85606e+07
1.85616e+07
1.85627e+07
1.85636e+07
1.85644e+07
1.8565e+07
1.85654e+07
1.85654e+07
1.85645e+07
1.85394e+07
1.85453e+07
1.85486e+07
1.85504e+07
1.85518e+07
1.85532e+07
1.85545e+07
1.85557e+07
1.85569e+07
1.85581e+07
1.85593e+07
1.85604e+07
1.85615e+07
1.85625e+07
1.85634e+07
1.85641e+07
1.85647e+07
1.8565e+07
1.85648e+07
1.85639e+07
1.85365e+07
1.85402e+07
1.85422e+07
1.85435e+07
1.85448e+07
1.85461e+07
1.85474e+07
1.85486e+07
1.85499e+07
1.85511e+07
1.85523e+07
1.85535e+07
1.85546e+07
1.85557e+07
1.85566e+07
1.85575e+07
1.85581e+07
1.85585e+07
1.85586e+07
1.85582e+07
1.8533e+07
1.85362e+07
1.8539e+07
1.85414e+07
1.85434e+07
1.85452e+07
1.85466e+07
1.85479e+07
1.85492e+07
1.85503e+07
1.85515e+07
1.85524e+07
1.85532e+07
1.8554e+07
1.85547e+07
1.85552e+07
1.85557e+07
1.8556e+07
1.85562e+07
1.85563e+07
1.85247e+07
1.85245e+07
1.85242e+07
1.85239e+07
1.85239e+07
1.85242e+07
1.85249e+07
1.85258e+07
1.85269e+07
1.85281e+07
1.85294e+07
1.85309e+07
1.85323e+07
1.85338e+07
1.85353e+07
1.85368e+07
1.85383e+07
1.854e+07
1.85417e+07
1.85436e+07
1.85174e+07
1.85167e+07
1.85176e+07
1.85193e+07
1.85208e+07
1.85222e+07
1.85234e+07
1.85246e+07
1.85258e+07
1.85268e+07
1.85278e+07
1.85288e+07
1.85299e+07
1.85309e+07
1.8532e+07
1.85332e+07
1.85346e+07
1.85364e+07
1.85386e+07
1.85413e+07
1.85063e+07
1.85004e+07
1.84958e+07
1.8493e+07
1.84918e+07
1.84913e+07
1.84914e+07
1.84919e+07
1.84928e+07
1.8494e+07
1.84955e+07
1.84974e+07
1.84995e+07
1.85021e+07
1.85048e+07
1.8508e+07
1.85116e+07
1.85159e+07
1.85207e+07
1.85263e+07
1.85031e+07
1.84971e+07
1.84933e+07
1.84914e+07
1.84906e+07
1.84904e+07
1.84906e+07
1.84912e+07
1.84922e+07
1.84934e+07
1.84948e+07
1.84966e+07
1.84986e+07
1.8501e+07
1.85036e+07
1.85066e+07
1.85101e+07
1.85141e+07
1.85189e+07
1.85245e+07
1.85e+07
1.84906e+07
1.84853e+07
1.84827e+07
1.84814e+07
1.84808e+07
1.84809e+07
1.84814e+07
1.84823e+07
1.84836e+07
1.84852e+07
1.84871e+07
1.84893e+07
1.84919e+07
1.84949e+07
1.84982e+07
1.85021e+07
1.85066e+07
1.8512e+07
1.85185e+07
1.85597e+07
1.85603e+07
1.85648e+07
1.85703e+07
1.85761e+07
1.8582e+07
1.8588e+07
1.85941e+07
1.86001e+07
1.86062e+07
1.86124e+07
1.86185e+07
1.86247e+07
1.8631e+07
1.86372e+07
1.86435e+07
1.86498e+07
1.86561e+07
1.86625e+07
1.86689e+07
1.86753e+07
1.86818e+07
1.86882e+07
1.86947e+07
1.87012e+07
1.87078e+07
1.87143e+07
1.87209e+07
1.87275e+07
1.87342e+07
1.87408e+07
1.87475e+07
1.87542e+07
1.87609e+07
1.87676e+07
1.87743e+07
1.87811e+07
1.87879e+07
1.87947e+07
1.88015e+07
1.88083e+07
1.88151e+07
1.8822e+07
1.88289e+07
1.88357e+07
1.88426e+07
1.88495e+07
1.88565e+07
1.88634e+07
1.88703e+07
1.88773e+07
1.88843e+07
1.88912e+07
1.88982e+07
1.89052e+07
1.89122e+07
1.89192e+07
1.89262e+07
1.89332e+07
1.89403e+07
1.89473e+07
1.89543e+07
1.89614e+07
1.89684e+07
1.89755e+07
1.89825e+07
1.89896e+07
1.89966e+07
1.90037e+07
1.90107e+07
1.90178e+07
1.90249e+07
1.90319e+07
1.9039e+07
1.9046e+07
1.90531e+07
1.90601e+07
1.90671e+07
1.90742e+07
1.90812e+07
1.90882e+07
1.90952e+07
1.91023e+07
1.91093e+07
1.91163e+07
1.91232e+07
1.91302e+07
1.91372e+07
1.91442e+07
1.91511e+07
1.91581e+07
1.9165e+07
1.91719e+07
1.91788e+07
1.91857e+07
1.91926e+07
1.91995e+07
1.92064e+07
1.92132e+07
1.922e+07
1.92269e+07
1.92337e+07
1.92404e+07
1.92472e+07
1.9254e+07
1.92607e+07
1.92674e+07
1.92741e+07
1.92808e+07
1.92875e+07
1.92942e+07
1.93008e+07
1.93074e+07
1.9314e+07
1.93206e+07
1.93271e+07
1.93337e+07
1.93402e+07
1.93467e+07
1.93531e+07
1.93596e+07
1.9366e+07
1.93724e+07
1.93788e+07
1.93851e+07
1.93915e+07
1.93978e+07
1.9404e+07
1.94103e+07
1.94165e+07
1.94227e+07
1.94288e+07
1.9435e+07
1.94411e+07
1.94471e+07
1.94532e+07
1.94592e+07
1.94651e+07
1.94711e+07
1.9477e+07
1.94829e+07
1.94887e+07
1.94946e+07
1.95004e+07
1.95061e+07
1.95119e+07
1.95176e+07
1.95232e+07
1.95289e+07
1.95345e+07
1.95401e+07
1.95456e+07
1.95511e+07
1.95566e+07
1.95621e+07
1.95675e+07
1.95729e+07
1.95782e+07
1.95836e+07
1.95889e+07
1.95941e+07
1.95993e+07
1.96045e+07
1.96097e+07
1.96148e+07
1.96199e+07
1.9625e+07
1.963e+07
1.9635e+07
1.964e+07
1.96449e+07
1.96498e+07
1.96547e+07
1.96595e+07
1.96643e+07
1.96691e+07
1.96738e+07
1.96785e+07
1.96831e+07
1.96878e+07
1.96924e+07
1.96969e+07
1.97015e+07
1.97059e+07
1.97104e+07
1.97148e+07
1.97192e+07
1.97236e+07
1.97279e+07
1.97322e+07
1.97364e+07
1.97406e+07
1.97448e+07
1.9749e+07
1.97531e+07
1.97571e+07
1.97612e+07
1.97652e+07
1.97692e+07
1.97732e+07
1.85593e+07
1.85602e+07
1.85647e+07
1.85703e+07
1.85761e+07
1.8582e+07
1.8588e+07
1.85941e+07
1.86001e+07
1.86062e+07
1.86124e+07
1.86185e+07
1.86247e+07
1.8631e+07
1.86372e+07
1.86435e+07
1.86498e+07
1.86561e+07
1.86625e+07
1.86689e+07
1.86753e+07
1.86818e+07
1.86882e+07
1.86947e+07
1.87012e+07
1.87078e+07
1.87143e+07
1.87209e+07
1.87275e+07
1.87342e+07
1.87408e+07
1.87475e+07
1.87542e+07
1.87609e+07
1.87676e+07
1.87743e+07
1.87811e+07
1.87879e+07
1.87947e+07
1.88015e+07
1.88083e+07
1.88151e+07
1.8822e+07
1.88289e+07
1.88357e+07
1.88426e+07