/*--------------------------------*- C++ -*----------------------------------*\
| =========                 |                                                 |
| \\      /  F ield         | OpenFOAM: The Open Source CFD Toolbox           |
|  \\    /   O peration     | Version:  3.0.x                                 |
|   \\  /    A nd           | Web:      www.OpenFOAM.org                      |
|    \\/     M anipulation  |                                                 |
\*---------------------------------------------------------------------------*/
FoamFile
{
    version     2.0;
    format      ascii;
    class       volScalarField;
    location    "0.480025";
    object      rho;
}
// * * * * * * * * * * * * * * * * * * * * * * * * * * * * * * * * * * * * * //

dimensions      [1 -3 0 0 0 0 0];

internalField   nonuniform List<scalar> 
13800
(
50.547
50.547
50.547
50.547
50.547
50.5471
50.5471
50.5471
50.5471
50.5471
50.5472
50.5472
50.5472
50.5473
50.5473
50.5474
50.5474
50.5475
50.5476
50.5477
50.5477
50.5478
50.5479
50.548
50.5481
50.5483
50.5484
50.5485
50.5487
50.5488
50.549
50.5492
50.5494
50.5497
50.5499
50.5501
50.5504
50.5507
50.551
50.5514
50.5517
50.5521
50.5525
50.553
50.5534
50.5539
50.5544
50.555
50.5556
50.5562
50.5568
50.5575
50.5582
50.559
50.5598
50.5607
50.5617
50.5627
50.5637
50.5648
50.5659
50.5671
50.5683
50.5696
50.5709
50.5723
50.5737
50.5752
50.5767
50.5784
50.5801
50.5819
50.5837
50.5856
50.5876
50.5897
50.5919
50.5941
50.5964
50.5989
50.6013
50.6039
50.6065
50.6092
50.612
50.6148
50.6177
50.6207
50.6238
50.627
50.6302
50.6336
50.6371
50.6407
50.6444
50.6482
50.6521
50.6561
50.6601
50.6643
50.6685
50.6729
50.6773
50.6819
50.6865
50.6912
50.6961
50.701
50.7061
50.7113
50.7165
50.7219
50.7274
50.733
50.7387
50.7445
50.7504
50.7565
50.7626
50.7689
50.7752
50.7817
50.7884
50.7951
50.8019
50.8089
50.816
50.8232
50.8305
50.838
50.8455
50.8532
50.861
50.869
50.877
50.8852
50.8935
50.902
50.9105
50.9192
50.9281
50.937
50.9461
50.9553
50.9646
50.9741
50.9837
50.9935
51.0033
51.0133
51.0235
51.0338
51.0442
51.0547
51.0654
51.0762
51.0871
51.0982
51.1094
51.1208
51.1323
51.1439
51.1557
51.1676
51.1796
51.1918
51.2042
51.2166
51.2292
51.2419
51.2548
51.2678
51.281
51.2943
51.3077
51.3213
51.335
51.3488
51.3628
51.3769
51.3912
51.4055
51.4201
51.4347
51.4496
51.4644
51.4796
51.4946
51.5102
51.5253
51.5413
51.5566
51.573
51.5883
51.6052
51.6206
51.638
51.6534
51.6724
51.6852
50.5479
50.5479
50.5479
50.5479
50.548
50.548
50.548
50.548
50.548
50.5481
50.5481
50.5481
50.5481
50.5482
50.5482
50.5483
50.5483
50.5484
50.5485
50.5485
50.5486
50.5487
50.5488
50.5489
50.549
50.5491
50.5492
50.5494
50.5495
50.5497
50.5499
50.5501
50.5503
50.5505
50.5507
50.551
50.5513
50.5515
50.5519
50.5522
50.5526
50.5529
50.5533
50.5538
50.5542
50.5547
50.5553
50.5558
50.5564
50.5569
50.5576
50.5583
50.559
50.5598
50.5606
50.5615
50.5624
50.5634
50.5645
50.5656
50.5667
50.5679
50.5691
50.5703
50.5716
50.573
50.5744
50.5759
50.5775
50.5791
50.5808
50.5826
50.5844
50.5863
50.5883
50.5904
50.5925
50.5948
50.5971
50.5995
50.602
50.6046
50.6072
50.6099
50.6126
50.6155
50.6184
50.6214
50.6245
50.6276
50.6309
50.6343
50.6378
50.6413
50.645
50.6488
50.6527
50.6567
50.6607
50.6649
50.6691
50.6735
50.6779
50.6825
50.6871
50.6918
50.6967
50.7016
50.7067
50.7118
50.7171
50.7225
50.728
50.7336
50.7393
50.7451
50.751
50.757
50.7632
50.7695
50.7758
50.7823
50.7889
50.7957
50.8025
50.8095
50.8166
50.8238
50.8311
50.8385
50.8461
50.8538
50.8616
50.8696
50.8776
50.8858
50.8941
50.9026
50.9111
50.9198
50.9287
50.9376
50.9467
50.9559
50.9652
50.9747
50.9843
50.9941
51.0039
51.0139
51.0241
51.0343
51.0448
51.0553
51.066
51.0768
51.0877
51.0988
51.11
51.1214
51.1329
51.1445
51.1563
51.1682
51.1802
51.1924
51.2047
51.2172
51.2298
51.2425
51.2554
51.2684
51.2816
51.2949
51.3083
51.3219
51.3356
51.3494
51.3634
51.3775
51.3918
51.4061
51.4207
51.4353
51.4502
51.465
51.4802
51.4952
51.5108
51.5259
51.5419
51.5572
51.5736
51.5889
51.6058
51.6212
51.6386
51.654
51.673
51.6835
50.5479
50.5479
50.5479
50.5479
50.548
50.548
50.548
50.548
50.548
50.5481
50.5481
50.5481
50.5481
50.5482
50.5482
50.5483
50.5483
50.5484
50.5485
50.5485
50.5486
50.5487
50.5488
50.5489
50.549
50.5491
50.5492
50.5494
50.5495
50.5497
50.5499
50.5501
50.5503
50.5505
50.5507
50.551
50.5513
50.5515
50.5519
50.5522
50.5526
50.5529
50.5533
50.5538
50.5542
50.5547
50.5553
50.5558
50.5564
50.5569
50.5576
50.5583
50.559
50.5598
50.5606
50.5615
50.5624
50.5634
50.5645
50.5656
50.5667
50.5679
50.5691
50.5703
50.5716
50.573
50.5744
50.5759
50.5775
50.5791
50.5808
50.5826
50.5844
50.5863
50.5883
50.5904
50.5925
50.5948
50.5971
50.5995
50.602
50.6046
50.6072
50.6099
50.6126
50.6155
50.6184
50.6214
50.6245
50.6276
50.6309
50.6343
50.6378
50.6413
50.645
50.6488
50.6527
50.6567
50.6607
50.6649
50.6691
50.6735
50.6779
50.6825
50.6871
50.6918
50.6967
50.7016
50.7067
50.7118
50.7171
50.7225
50.728
50.7336
50.7393
50.7451
50.751
50.757
50.7632
50.7695
50.7758
50.7823
50.7889
50.7957
50.8025
50.8095
50.8166
50.8238
50.8311
50.8385
50.8461
50.8538
50.8616
50.8696
50.8776
50.8858
50.8941
50.9026
50.9111
50.9198
50.9287
50.9376
50.9467
50.9559
50.9652
50.9747
50.9843
50.9941
51.0039
51.0139
51.0241
51.0343
51.0448
51.0553
51.066
51.0768
51.0877
51.0988
51.11
51.1214
51.1329
51.1445
51.1563
51.1682
51.1802
51.1924
51.2047
51.2172
51.2298
51.2425
51.2554
51.2684
51.2816
51.2949
51.3083
51.3219
51.3356
51.3494
51.3634
51.3775
51.3918
51.4061
51.4207
51.4353
51.4502
51.465
51.4802
51.4952
51.5108
51.5259
51.5419
51.5572
51.5736
51.5889
51.6058
51.6212
51.6386
51.654
51.673
51.6836
50.5479
50.5479
50.5479
50.5479
50.548
50.548
50.548
50.548
50.548
50.548
50.5481
50.5481
50.5481
50.5482
50.5482
50.5483
50.5483
50.5484
50.5485
50.5485
50.5486
50.5487
50.5488
50.5489
50.549
50.5491
50.5492
50.5494
50.5495
50.5497
50.5499
50.5501
50.5503
50.5505
50.5507
50.551
50.5513
50.5515
50.5519
50.5522
50.5525
50.5529
50.5533
50.5538
50.5542
50.5547
50.5552
50.5558
50.5563
50.5569
50.5576
50.5583
50.559
50.5598
50.5606
50.5615
50.5624
50.5634
50.5645
50.5656
50.5667
50.5679
50.5691
50.5703
50.5716
50.573
50.5744
50.5759
50.5775
50.5791
50.5808
50.5826
50.5844
50.5863
50.5883
50.5904
50.5925
50.5948
50.5971
50.5995
50.602
50.6046
50.6072
50.6099
50.6126
50.6155
50.6184
50.6214
50.6245
50.6276
50.6309
50.6343
50.6378
50.6413
50.645
50.6488
50.6527
50.6567
50.6607
50.6649
50.6691
50.6735
50.6779
50.6825
50.6871
50.6918
50.6967
50.7016
50.7067
50.7118
50.7171
50.7225
50.728
50.7336
50.7393
50.7451
50.751
50.757
50.7632
50.7695
50.7758
50.7823
50.7889
50.7957
50.8025
50.8095
50.8166
50.8238
50.8311
50.8385
50.8461
50.8538
50.8616
50.8696
50.8776
50.8858
50.8941
50.9026
50.9111
50.9198
50.9287
50.9376
50.9467
50.9559
50.9652
50.9747
50.9843
50.9941
51.0039
51.0139
51.0241
51.0343
51.0448
51.0553
51.066
51.0768
51.0877
51.0988
51.11
51.1214
51.1329
51.1445
51.1563
51.1682
51.1802
51.1924
51.2047
51.2172
51.2298
51.2425
51.2554
51.2684
51.2816
51.2949
51.3083
51.3219
51.3356
51.3494
51.3634
51.3775
51.3918
51.4061
51.4207
51.4353
51.4502
51.465
51.4802
51.4952
51.5108
51.5259
51.5419
51.5572
51.5736
51.5889
51.6058
51.6212
51.6386
51.654
51.6728
51.6858
50.5479
50.5479
50.5479
50.5479
50.5479
50.548
50.548
50.548
50.548
50.548
50.5481
50.5481
50.5481
50.5482
50.5482
50.5483
50.5483
50.5484
50.5484
50.5485
50.5486
50.5487
50.5488
50.5489
50.549
50.5491
50.5492
50.5494
50.5495
50.5497
50.5499
50.5501
50.5503
50.5505
50.5507
50.551
50.5512
50.5515
50.5519
50.5522
50.5525
50.5529
50.5533
50.5538
50.5542
50.5547
50.5552
50.5558
50.5563
50.5569
50.5576
50.5583
50.559
50.5598
50.5606
50.5615
50.5624
50.5634
50.5645
50.5656
50.5667
50.5679
50.5691
50.5703
50.5716
50.573
50.5744
50.5759
50.5775
50.5791
50.5808
50.5826
50.5844
50.5863
50.5883
50.5904
50.5925
50.5948
50.5971
50.5995
50.602
50.6046
50.6072
50.6099
50.6126
50.6155
50.6184
50.6214
50.6245
50.6276
50.6309
50.6343
50.6378
50.6413
50.645
50.6488
50.6527
50.6567
50.6607
50.6649
50.6691
50.6735
50.6779
50.6825
50.6871
50.6918
50.6967
50.7016
50.7067
50.7118
50.7171
50.7225
50.728
50.7336
50.7393
50.7451
50.751
50.757
50.7632
50.7695
50.7758
50.7823
50.7889
50.7957
50.8025
50.8095
50.8166
50.8238
50.8311
50.8385
50.8461
50.8538
50.8616
50.8696
50.8776
50.8858
50.8941
50.9026
50.9111
50.9198
50.9287
50.9376
50.9467
50.9559
50.9652
50.9747
50.9843
50.9941
51.0039
51.0139
51.0241
51.0343
51.0448
51.0553
51.066
51.0768
51.0877
51.0988
51.11
51.1214
51.1329
51.1445
51.1563
51.1682
51.1802
51.1924
51.2047
51.2172
51.2298
51.2425
51.2554
51.2684
51.2816
51.2949
51.3083
51.3219
51.3356
51.3494
51.3634
51.3775
51.3918
51.4061
51.4207
51.4353
51.4502
51.465
51.4802
51.4952
51.5108
51.5259
51.5419
51.5572
51.5736
51.5889
51.6058
51.6211
51.6385
51.654
51.6721
51.6863
50.5479
50.5479
50.5479
50.5479
50.5479
50.548
50.548
50.548
50.548
50.548
50.5481
50.5481
50.5481
50.5482
50.5482
50.5483
50.5483
50.5484
50.5484
50.5485
50.5486
50.5487
50.5488
50.5489
50.549
50.5491
50.5492
50.5494
50.5495
50.5497
50.5499
50.5501
50.5503
50.5505
50.5507
50.551
50.5512
50.5515
50.5519
50.5522
50.5525
50.5529
50.5533
50.5538
50.5542
50.5547
50.5552
50.5558
50.5563
50.5569
50.5576
50.5583
50.559
50.5598
50.5606
50.5615
50.5624
50.5634
50.5645
50.5656
50.5667
50.5679
50.5691
50.5703
50.5716
50.573
50.5744
50.5759
50.5775
50.5791
50.5808
50.5826
50.5844
50.5863
50.5883
50.5904
50.5925
50.5948
50.5971
50.5995
50.602
50.6046
50.6072
50.6099
50.6126
50.6155
50.6184
50.6214
50.6245
50.6276
50.6309
50.6343
50.6378
50.6413
50.645
50.6488
50.6527
50.6567
50.6607
50.6649
50.6691
50.6735
50.6779
50.6825
50.6871
50.6918
50.6967
50.7016
50.7067
50.7118
50.7171
50.7225
50.728
50.7336
50.7393
50.7451
50.751
50.757
50.7632
50.7695
50.7758
50.7823
50.7889
50.7957
50.8025
50.8095
50.8166
50.8238
50.8311
50.8385
50.8461
50.8538
50.8616
50.8696
50.8776
50.8858
50.8941
50.9026
50.9111
50.9198
50.9287
50.9376
50.9467
50.9559
50.9652
50.9747
50.9843
50.9941
51.0039
51.0139
51.0241
51.0343
51.0448
51.0553
51.066
51.0768
51.0877
51.0988
51.11
51.1214
51.1329
51.1445
51.1563
51.1682
51.1802
51.1924
51.2047
51.2172
51.2298
51.2425
51.2554
51.2684
51.2816
51.2949
51.3083
51.3219
51.3356
51.3494
51.3634
51.3775
51.3917
51.4061
51.4207
51.4353
51.4501
51.465
51.4801
51.4953
51.5107
51.5261
51.5417
51.5576
51.573
51.5896
51.605
51.622
51.6377
51.6546
51.6709
51.6859
50.5479
50.5479
50.5479
50.5479
50.548
50.548
50.548
50.548
50.548
50.548
50.5481
50.5481
50.5481
50.5482
50.5482
50.5483
50.5483
50.5484
50.5485
50.5485
50.5486
50.5487
50.5488
50.5489
50.549
50.5491
50.5492
50.5494
50.5495
50.5497
50.5499
50.5501
50.5503
50.5505
50.5507
50.551
50.5513
50.5515
50.5519
50.5522
50.5525
50.5529
50.5533
50.5538
50.5542
50.5547
50.5552
50.5558
50.5563
50.5569
50.5576
50.5583
50.559
50.5598
50.5606
50.5615
50.5624
50.5634
50.5645
50.5656
50.5667
50.5679
50.5691
50.5703
50.5716
50.573
50.5744
50.5759
50.5775
50.5791
50.5808
50.5826
50.5844
50.5863
50.5883
50.5904
50.5925
50.5948
50.5971
50.5995
50.602
50.6046
50.6072
50.6099
50.6126
50.6155
50.6184
50.6214
50.6245
50.6276
50.6309
50.6343
50.6378
50.6413
50.645
50.6488
50.6527
50.6567
50.6607
50.6649
50.6691
50.6735
50.6779
50.6825
50.6871
50.6918
50.6967
50.7016
50.7067
50.7118
50.7171
50.7225
50.728
50.7336
50.7393
50.7451
50.751
50.757
50.7632
50.7695
50.7758
50.7823
50.7889
50.7957
50.8025
50.8095
50.8166
50.8238
50.8311
50.8385
50.8461
50.8538
50.8616
50.8696
50.8776
50.8858
50.8941
50.9026
50.9111
50.9198
50.9287
50.9376
50.9467
50.9559
50.9652
50.9747
50.9843
50.9941
51.0039
51.0139
51.0241
51.0343
51.0448
51.0553
51.066
51.0768
51.0877
51.0988
51.11
51.1214
51.1329
51.1445
51.1563
51.1682
51.1802
51.1924
51.2047
51.2172
51.2298
51.2425
51.2554
51.2684
51.2816
51.2949
51.3083
51.3219
51.3356
51.3494
51.3634
51.3775
51.3917
51.4061
51.4207
51.4353
51.4501
51.4651
51.48
51.4955
51.5104
51.5263
51.5414
51.5577
51.573
51.5896
51.605
51.622
51.6375
51.6549
51.6684
51.689
50.5479
50.5479
50.5479
50.5479
50.548
50.548
50.548
50.548
50.548
50.5481
50.5481
50.5481
50.5481
50.5482
50.5482
50.5483
50.5483
50.5484
50.5485
50.5485
50.5486
50.5487
50.5488
50.5489
50.549
50.5491
50.5492
50.5494
50.5495
50.5497
50.5499
50.5501
50.5503
50.5505
50.5507
50.551
50.5513
50.5515
50.5519
50.5522
50.5526
50.5529
50.5533
50.5538
50.5542
50.5547
50.5553
50.5558
50.5564
50.5569
50.5576
50.5583
50.559
50.5598
50.5606
50.5615
50.5624
50.5634
50.5645
50.5656
50.5667
50.5679
50.5691
50.5703
50.5716
50.573
50.5744
50.5759
50.5775
50.5791
50.5808
50.5826
50.5844
50.5863
50.5883
50.5904
50.5925
50.5948
50.5971
50.5995
50.602
50.6046
50.6072
50.6099
50.6126
50.6155
50.6184
50.6214
50.6245
50.6276
50.6309
50.6343
50.6378
50.6413
50.645
50.6488
50.6527
50.6567
50.6607
50.6649
50.6691
50.6735
50.6779
50.6825
50.6871
50.6918
50.6967
50.7016
50.7067
50.7118
50.7171
50.7225
50.728
50.7336
50.7393
50.7451
50.751
50.757
50.7632
50.7695
50.7758
50.7823
50.7889
50.7957
50.8025
50.8095
50.8166
50.8238
50.8311
50.8385
50.8461
50.8538
50.8616
50.8696
50.8776
50.8858
50.8941
50.9026
50.9111
50.9198
50.9287
50.9376
50.9467
50.9559
50.9652
50.9747
50.9843
50.9941
51.0039
51.0139
51.0241
51.0343
51.0448
51.0553
51.066
51.0768
51.0877
51.0988
51.11
51.1214
51.1329
51.1445
51.1563
51.1682
51.1802
51.1924
51.2047
51.2172
51.2298
51.2425
51.2554
51.2684
51.2816
51.2949
51.3083
51.3219
51.3356
51.3494
51.3634
51.3775
51.3917
51.4061
51.4206
51.4353
51.4501
51.4651
51.48
51.4955
51.5104
51.5264
51.5414
51.5577
51.5729
51.5897
51.6049
51.6221
51.6374
51.6549
51.667
51.6995
50.5479
50.5479
50.5479
50.5479
50.548
50.548
50.548
50.548
50.548
50.5481
50.5481
50.5481
50.5481
50.5482
50.5482
50.5483
50.5483
50.5484
50.5485
50.5485
50.5486
50.5487
50.5488
50.5489
50.549
50.5491
50.5492
50.5494
50.5495
50.5497
50.5499
50.5501
50.5503
50.5505
50.5507
50.551
50.5513
50.5515
50.5519
50.5522
50.5526
50.5529
50.5533
50.5538
50.5542
50.5547
50.5553
50.5558
50.5564
50.5569
50.5576
50.5583
50.559
50.5598
50.5606
50.5615
50.5624
50.5634
50.5645
50.5656
50.5667
50.5679
50.5691
50.5703
50.5716
50.573
50.5744
50.5759
50.5775
50.5791
50.5808
50.5826
50.5844
50.5863
50.5883
50.5904
50.5925
50.5948
50.5971
50.5995
50.602
50.6046
50.6072
50.6099
50.6126
50.6155
50.6184
50.6214
50.6245
50.6276
50.6309
50.6343
50.6378
50.6413
50.645
50.6488
50.6527
50.6567
50.6607
50.6649
50.6691
50.6735
50.6779
50.6825
50.6871
50.6918
50.6967
50.7016
50.7067
50.7118
50.7171
50.7225
50.728
50.7336
50.7393
50.7451
50.751
50.757
50.7632
50.7695
50.7758
50.7823
50.7889
50.7957
50.8025
50.8095
50.8166
50.8238
50.8311
50.8385
50.8461
50.8538
50.8616
50.8696
50.8776
50.8858
50.8941
50.9026
50.9111
50.9198
50.9287
50.9376
50.9467
50.9559
50.9652
50.9747
50.9843
50.9941
51.0039
51.0139
51.0241
51.0343
51.0448
51.0553
51.066
51.0768
51.0877
51.0988
51.11
51.1214
51.1329
51.1445
51.1563
51.1682
51.1802
51.1924
51.2047
51.2172
51.2298
51.2425
51.2554
51.2684
51.2816
51.2949
51.3083
51.3219
51.3356
51.3494
51.3634
51.3775
51.3917
51.4061
51.4206
51.4354
51.4501
51.4651
51.48
51.4955
51.5104
51.5264
51.5414
51.5578
51.5729
51.5897
51.6049
51.6221
51.6374
51.6549
51.6663
51.7054
50.547
50.547
50.547
50.547
50.547
50.5471
50.5471
50.5471
50.5471
50.5471
50.5472
50.5472
50.5472
50.5473
50.5473
50.5474
50.5474
50.5475
50.5476
50.5477
50.5477
50.5478
50.5479
50.548
50.5481
50.5483
50.5484
50.5485
50.5487
50.5488
50.549
50.5492
50.5494
50.5497
50.5499
50.5501
50.5504
50.5507
50.551
50.5514
50.5517
50.5521
50.5525
50.553
50.5534
50.5539
50.5544
50.555
50.5556
50.5562
50.5568
50.5575
50.5582
50.559
50.5598
50.5607
50.5617
50.5627
50.5637
50.5648
50.5659
50.5671
50.5683
50.5696
50.5709
50.5723
50.5737
50.5752
50.5767
50.5784
50.5801
50.5819
50.5837
50.5856
50.5876
50.5897
50.5919
50.5941
50.5964
50.5989
50.6013
50.6039
50.6065
50.6092
50.612
50.6148
50.6177
50.6207
50.6238
50.627
50.6302
50.6336
50.6371
50.6407
50.6444
50.6482
50.6521
50.6561
50.6601
50.6643
50.6685
50.6729
50.6773
50.6819
50.6865
50.6912
50.6961
50.701
50.7061
50.7113
50.7165
50.7219
50.7274
50.733
50.7387
50.7445
50.7504
50.7565
50.7626
50.7689
50.7752
50.7817
50.7884
50.7951
50.8019
50.8089
50.816
50.8232
50.8305
50.838
50.8455
50.8532
50.861
50.869
50.877
50.8852
50.8935
50.902
50.9105
50.9192
50.9281
50.937
50.9461
50.9553
50.9646
50.9741
50.9837
50.9935
51.0033
51.0133
51.0235
51.0338
51.0442
51.0547
51.0654
51.0762
51.0871
51.0982
51.1094
51.1208
51.1323
51.1439
51.1557
51.1676
51.1796
51.1918
51.2042
51.2166
51.2292
51.2419
51.2548
51.2678
51.281
51.2943
51.3077
51.3213
51.335
51.3488
51.3628
51.3769
51.3911
51.4056
51.42
51.4348
51.4495
51.4645
51.4794
51.4949
51.5098
51.5258
51.5408
51.5572
51.5723
51.5891
51.6043
51.6216
51.6368
51.6543
51.665
51.7106
51.725
51.7404
51.7476
51.7513
51.7544
51.7574
51.7605
51.7634
51.7661
51.7689
51.7715
51.774
51.7763
51.7784
51.7804
51.7821
51.7835
51.7847
51.7846
51.7834
51.7235
51.738
51.7454
51.7494
51.7524
51.7555
51.7585
51.7614
51.7641
51.7668
51.7694
51.7719
51.7743
51.7765
51.7786
51.7805
51.782
51.783
51.7828
51.7816
51.7217
51.7366
51.7449
51.749
51.7522
51.7552
51.7583
51.761
51.7638
51.7664
51.769
51.7716
51.7741
51.7763
51.7785
51.7803
51.7815
51.7823
51.782
51.7801
51.7154
51.7244
51.7292
51.7324
51.7354
51.7386
51.7414
51.7442
51.7468
51.7495
51.752
51.7544
51.7566
51.7588
51.7605
51.7621
51.7634
51.764
51.764
51.7633
51.7079
51.7152
51.7218
51.7274
51.7321
51.7362
51.7397
51.743
51.7461
51.7491
51.7521
51.7546
51.7568
51.7589
51.7609
51.7624
51.7635
51.7644
51.7649
51.7649
51.6895
51.689
51.6879
51.6868
51.6863
51.6868
51.6881
51.6899
51.692
51.6943
51.6966
51.6995
51.7019
51.7048
51.7073
51.71
51.7127
51.7159
51.7193
51.7238
51.6745
51.672
51.6738
51.6778
51.6816
51.6849
51.6879
51.691
51.6942
51.6971
51.7
51.7029
51.7062
51.7091
51.7122
51.7156
51.7192
51.7238
51.729
51.7351
51.6499
51.6349
51.6231
51.6156
51.6118
51.6101
51.6096
51.6102
51.6118
51.6141
51.6172
51.6209
51.6254
51.6307
51.6364
51.6433
51.6511
51.6606
51.6715
51.6847
51.6458
51.6303
51.6211
51.6164
51.6145
51.614
51.6144
51.6157
51.6179
51.6208
51.6244
51.6287
51.6337
51.6393
51.6456
51.6526
51.6604
51.6695
51.6802
51.6926
51.6396
51.6158
51.6028
51.5965
51.5928
51.5909
51.5902
51.5907
51.592
51.5941
51.5969
51.6006
51.605
51.6103
51.6163
51.6232
51.6312
51.6409
51.6526
51.6669
51.7689
51.7685
51.7801
51.7935
51.8069
51.8205
51.8342
51.8481
51.8623
51.8766
51.891
51.9053
51.9197
51.9342
51.9487
51.9633
51.978
51.9927
52.0075
52.0223
52.0372
52.0522
52.0672
52.0822
52.0973
52.1125
52.1278
52.143
52.1583
52.1737
52.1891
52.2045
52.22
52.2356
52.2512
52.2668
52.2825
52.2982
52.314
52.3298
52.3456
52.3614
52.3773
52.3933
52.4092
52.4252
52.4412
52.4572
52.4733
52.4893
52.5054
52.5216
52.5377
52.5539
52.5701
52.5863
52.6026
52.6188
52.635
52.6513
52.6676
52.6839
52.7002
52.7165
52.7328
52.7491
52.7655
52.7818
52.7981
52.8144
52.8308
52.8471
52.8635
52.8798
52.8961
52.9124
52.9287
52.9449
52.9612
52.9774
52.9936
53.0099
53.0261
53.0423
53.0584
53.0746
53.0907
53.1068
53.1229
53.139
53.1551
53.1711
53.1871
53.203
53.219
53.2349
53.2507
53.2666
53.2824
53.2982
53.314
53.3297
53.3453
53.3609
53.3766
53.3922
53.4077
53.4233
53.4387
53.4541
53.4694
53.4848
53.5002
53.5157
53.5312
53.5467
53.5621
53.5773
53.5922
53.607
53.6222
53.6382
53.6547
53.6708
53.6847
53.6921
53.6816
53.6604
53.6388
53.6197
53.6055
53.5977
53.5974
53.6047
53.6183
53.6351
53.6568
53.6971
53.756
53.8091
53.854
53.8903
53.9188
53.9415
53.9606
53.9777
53.9935
54.0075
54.0188
54.0302
54.0419
54.0539
54.066
54.0782
54.0904
54.1027
54.115
54.1272
54.1393
54.1515
54.1635
54.1755
54.1874
54.1993
54.2111
54.2228
54.2344
54.246
54.2575
54.2689
54.2802
54.2915
54.3027
54.3138
54.3248
54.3358
54.3465
54.3576
54.368
54.3791
54.3891
54.4001
54.41
54.4209
54.4305
54.4414
54.4507
54.4615
54.4707
54.4813
54.4903
54.5008
54.5096
54.5199
54.5286
54.5388
54.5473
54.5573
54.565
54.5756
51.7692
51.7699
51.7814
51.7949
51.8085
51.8221
51.8359
51.8498
51.864
51.8783
51.8927
51.9071
51.9215
51.936
51.9505
51.9651
51.9798
51.9945
52.0093
52.0241
52.039
52.054
52.069
52.084
52.0992
52.1143
52.1296
52.1448
52.1602
52.1755
52.1909
52.2064
52.2219
52.2374
52.253
52.2686
52.2843
52.3001
52.3158
52.3316
52.3475
52.3633
52.3792
52.3951
52.4111
52.4271
52.4431
52.4591
52.4752
52.4913
52.5073
52.5235
52.5396
52.5558
52.572
52.5882
52.6045
52.6207
52.637
52.6532
52.6695
52.6858
52.7021
52.7184
52.7347
52.7511
52.7674
52.7837
52.8001
52.8164
52.8327
52.849
52.8654
52.8817
52.898
52.9144
52.9306
52.9469
52.9631
52.9794
52.9956
53.0118
53.028
53.0442
53.0604
53.0765
53.0927
53.1088
53.1249
53.141
53.157
53.1731
53.1891
53.205
53.221
53.2369
53.2527
53.2686
53.2844
53.3002
53.3159
53.3316
53.3473
53.3629
53.3785
53.3941
53.4096
53.425
53.4405
53.4559
53.4713
53.4866
53.502
53.5173
53.5327
53.548
53.5632
53.5781
53.5929
53.6078
53.6228
53.6383
53.6543
53.6708
53.6872
53.7032
53.7192
53.7358
53.7525
53.7688
53.7834
53.7943
53.8024
53.8092
53.816
53.8233
53.832
53.8424
53.855
53.87
53.8863
53.9032
53.9212
53.9387
53.9557
53.972
53.9877
54.0021
54.0151
54.028
54.0408
54.0534
54.0659
54.0784
54.0908
54.1032
54.1155
54.1277
54.1399
54.152
54.1641
54.1761
54.188
54.1998
54.2116
54.2233
54.235
54.2465
54.258
54.2695
54.2808
54.2921
54.3032
54.3144
54.3253
54.3364
54.3471
54.3582
54.3685
54.3796
54.3897
54.4007
54.4106
54.4215
54.4311
54.442
54.4513
54.4621
54.4712
54.4819
54.4909
54.5013
54.5102
54.5205
54.5292
54.5393
54.5478
54.5579
54.5658
54.5759
51.7692
51.7703
51.7815
51.7947
51.8082
51.8218
51.8356
51.8495
51.8637
51.878
51.8924
51.9068
51.9212
51.9357
51.9502
51.9648
51.9795
51.9942
52.009
52.0238
52.0387
52.0537
52.0687
52.0837
52.0988
52.114
52.1293
52.1445
52.1599
52.1752
52.1906
52.2061
52.2216
52.2371
52.2527
52.2683
52.284
52.2998
52.3155
52.3313
52.3471
52.363
52.3789
52.3948
52.4108
52.4268
52.4428
52.4588
52.4749
52.4909
52.507
52.5232
52.5393
52.5555
52.5717
52.5879
52.6041
52.6204
52.6367
52.6529
52.6692
52.6855
52.7018
52.7181
52.7344
52.7507
52.7671
52.7834
52.7998
52.8161
52.8324
52.8487
52.8651
52.8814
52.8977
52.914
52.9303
52.9466
52.9628
52.9791
52.9953
53.0115
53.0277
53.0439
53.0601
53.0762
53.0924
53.1085
53.1246
53.1407
53.1567
53.1728
53.1888
53.2047
53.2207
53.2366
53.2524
53.2683
53.2841
53.2999
53.3156
53.3313
53.347
53.3626
53.3782
53.3938
53.4093
53.4247
53.4402
53.4556
53.4709
53.4863
53.5016
53.5169
53.5322
53.5476
53.5628
53.5779
53.5927
53.6074
53.622
53.637
53.653
53.6699
53.6875
53.7052
53.7231
53.7407
53.7579
53.7747
53.7912
53.8068
53.82
53.8305
53.8397
53.8483
53.8569
53.8661
53.8761
53.8873
53.8995
53.9128
53.927
53.9417
53.9566
53.9713
53.9858
53.9998
54.0135
54.0269
54.04
54.0529
54.0656
54.0782
54.0907
54.1031
54.1154
54.1277
54.1399
54.152
54.1641
54.1761
54.188
54.1998
54.2116
54.2233
54.235
54.2465
54.258
54.2695
54.2808
54.2921
54.3032
54.3144
54.3253
54.3364
54.3471
54.3582
54.3685
54.3796
54.3897
54.4007
54.4106
54.4215
54.4311
54.442
54.4513
54.4621
54.4712
54.4819
54.4909
54.5013
54.5102
54.5205
54.5292
54.5393
54.5478
54.5579
54.566
54.5761
51.7576
51.7641
51.7763
51.7897
51.8036
51.8177
51.8317
51.8456
51.8596
51.8737
51.8879
51.9022
51.9167
51.9312
51.9457
51.9603
51.9749
51.9896
52.0044
52.0192
52.0341
52.0491
52.0641
52.0791
52.0943
52.1094
52.1247
52.1399
52.1553
52.1706
52.186
52.2015
52.217
52.2325
52.2481
52.2637
52.2794
52.2951
52.3109
52.3267
52.3425
52.3584
52.3743
52.3902
52.4062
52.4222
52.4382
52.4542
52.4702
52.4863
52.5024
52.5185
52.5347
52.5508
52.567
52.5833
52.5995
52.6157
52.632
52.6483
52.6645
52.6808
52.6971
52.7135
52.7298
52.7461
52.7624
52.7787
52.7951
52.8114
52.8278
52.8441
52.8604
52.8768
52.8931
52.9094
52.9256
52.9419
52.9581
52.9744
52.9906
53.0068
53.023
53.0392
53.0554
53.0716
53.0877
53.1038
53.1199
53.136
53.1521
53.1681
53.1841
53.2
53.216
53.2319
53.2478
53.2636
53.2794
53.2952
53.311
53.3267
53.3424
53.3581
53.3737
53.3893
53.4048
53.4203
53.4358
53.4513
53.4668
53.4823
53.4979
53.5134
53.5287
53.544
53.5591
53.5739
53.5888
53.604
53.6194
53.6355
53.6521
53.6689
53.6855
53.7017
53.7179
53.734
53.7499
53.7651
53.7794
53.7928
53.8054
53.8176
53.8296
53.8416
53.8538
53.8662
53.8789
53.892
53.9054
53.919
53.9327
53.9465
53.9602
53.9738
53.9873
54.0006
54.0138
54.0268
54.0397
54.0525
54.0652
54.0778
54.0903
54.1027
54.1151
54.1274
54.1397
54.1518
54.1639
54.1759
54.1879
54.1998
54.2116
54.2233
54.2349
54.2465
54.258
54.2694
54.2808
54.292
54.3032
54.3144
54.3254
54.3364
54.3471
54.3582
54.3686
54.3795
54.3898
54.4005
54.4107
54.4213
54.4312
54.4419
54.4513
54.4621
54.4712
54.4819
54.4909
54.5013
54.5102
54.5205
54.5292
54.5393
54.5479
54.5578
54.5665
54.5759
51.7637
51.774
51.7857
51.7977
51.8106
51.8237
51.8374
51.8513
51.8654
51.8796
51.8938
51.9081
51.9224
51.9369
51.9514
51.966
51.9807
51.9954
52.0102
52.0251
52.04
52.055
52.07
52.085
52.1002
52.1153
52.1305
52.1458
52.1611
52.1765
52.1919
52.2074
52.2229
52.2385
52.254
52.2697
52.2853
52.301
52.3168
52.3326
52.3484
52.3643
52.3802
52.3961
52.4121
52.428
52.4441
52.4601
52.4762
52.4923
52.5084
52.5245
52.5407
52.5568
52.573
52.5892
52.6054
52.6217
52.6379
52.6542
52.6705
52.6868
52.7031
52.7194
52.7357
52.752
52.7684
52.7847
52.801
52.8174
52.8337
52.85
52.8663
52.8826
52.899
52.9153
52.9316
52.9478
52.9641
52.9804
52.9966
53.0128
53.029
53.0452
53.0614
53.0775
53.0937
53.1098
53.1259
53.1419
53.1579
53.174
53.19
53.2059
53.2219
53.2378
53.2536
53.2694
53.2853
53.301
53.3168
53.3324
53.3481
53.3637
53.3793
53.3949
53.4104
53.4258
53.4412
53.4566
53.4719
53.4871
53.5024
53.5176
53.5327
53.5478
53.5629
53.578
53.5931
53.6079
53.6226
53.6373
53.6521
53.6671
53.6823
53.6976
53.7129
53.7282
53.7435
53.7585
53.7732
53.7875
53.8015
53.8151
53.8286
53.8419
53.8552
53.8684
53.8817
53.895
53.9083
53.9217
53.935
53.9482
53.9615
53.9747
53.9878
54.0008
54.0138
54.0267
54.0395
54.0523
54.065
54.0776
54.0901
54.1026
54.115
54.1273
54.1396
54.1518
54.1639
54.1759
54.1879
54.1997
54.2115
54.2233
54.2349
54.2465
54.258
54.2694
54.2808
54.292
54.3032
54.3144
54.3254
54.3363
54.3472
54.358
54.3688
54.3793
54.39
54.4004
54.4108
54.4213
54.4313
54.4417
54.4516
54.4617
54.4717
54.4814
54.4915
54.5007
54.5108
54.52
54.5295
54.5391
54.5482
54.5575
54.5666
54.5757
51.7347
51.7517
51.7672
51.7819
51.7961
51.8099
51.8236
51.8374
51.8512
51.8652
51.8792
51.8934
51.9078
51.9222
51.9367
51.9512
51.9659
51.9806
51.9953
52.0102
52.0251
52.04
52.055
52.0701
52.0852
52.1003
52.1156
52.1309
52.1462
52.1615
52.1769
52.1924
52.2079
52.2234
52.239
52.2546
52.2703
52.286
52.3018
52.3176
52.3334
52.3493
52.3652
52.3811
52.397
52.413
52.429
52.445
52.4611
52.4771
52.4932
52.5094
52.5255
52.5417
52.5579
52.5741
52.5903
52.6066
52.6228
52.6391
52.6554
52.6717
52.688
52.7043
52.7207
52.737
52.7533
52.7697
52.786
52.8024
52.8187
52.835
52.8513
52.8677
52.884
52.9003
52.9166
52.9328
52.9491
52.9654
52.9816
52.9979
53.0141
53.0303
53.0465
53.0627
53.0789
53.0951
53.1112
53.1274
53.1435
53.1596
53.1757
53.1917
53.2078
53.2239
53.2399
53.256
53.272
53.2879
53.3038
53.3197
53.3355
53.3514
53.3672
53.3831
53.399
53.4149
53.4307
53.4465
53.4622
53.4777
53.4931
53.5084
53.5236
53.5388
53.5541
53.5698
53.5857
53.6018
53.6181
53.6346
53.6509
53.6671
53.6829
53.6985
53.7139
53.7291
53.7442
53.759
53.7735
53.7878
53.8016
53.8153
53.8286
53.8419
53.855
53.8682
53.8813
53.8945
53.9078
53.921
53.9343
53.9475
53.9608
53.9739
53.9871
54.0002
54.0132
54.0261
54.039
54.0518
54.0646
54.0772
54.0898
54.1023
54.1148
54.1271
54.1394
54.1516
54.1638
54.1758
54.1878
54.1997
54.2115
54.2232
54.2349
54.2465
54.258
54.2694
54.2808
54.292
54.3033
54.3143
54.3254
54.3362
54.3473
54.3579
54.3689
54.3792
54.3902
54.4002
54.4111
54.4209
54.4317
54.4413
54.452
54.4613
54.472
54.4811
54.4916
54.5006
54.5109
54.5197
54.5299
54.5386
54.5486
54.5571
54.5669
54.5752
51.7554
51.775
51.7894
51.8028
51.8163
51.83
51.8439
51.8578
51.8719
51.8861
51.9003
51.9146
51.929
51.9434
51.958
51.9726
51.9872
52.002
52.0168
52.0316
52.0466
52.0615
52.0766
52.0916
52.1068
52.1219
52.1372
52.1524
52.1678
52.1831
52.1986
52.214
52.2295
52.2451
52.2607
52.2763
52.292
52.3077
52.3235
52.3393
52.3551
52.3709
52.3868
52.4027
52.4187
52.4347
52.4507
52.4667
52.4828
52.4989
52.515
52.5312
52.5473
52.5635
52.5797
52.5959
52.6121
52.6284
52.6446
52.6609
52.6772
52.6935
52.7097
52.726
52.7424
52.7587
52.775
52.7913
52.8077
52.824
52.8403
52.8566
52.873
52.8893
52.9056
52.9218
52.9381
52.9544
52.9707
52.987
53.0032
53.0194
53.0357
53.0518
53.068
53.0842
53.1003
53.1164
53.1325
53.1486
53.1647
53.1807
53.1967
53.2127
53.2286
53.2445
53.2604
53.2763
53.2921
53.3079
53.3236
53.3394
53.355
53.3707
53.3863
53.4018
53.4173
53.4328
53.4483
53.4637
53.479
53.4943
53.5095
53.5248
53.54
53.5551
53.57
53.5848
53.5997
53.6146
53.6294
53.6442
53.659
53.6736
53.6878
53.7018
53.7157
53.7298
53.744
53.7584
53.7732
53.7885
53.8041
53.8194
53.8341
53.848
53.8612
53.8738
53.8862
53.8986
53.911
53.9235
53.9362
53.949
53.9618
53.9747
53.9876
54.0005
54.0134
54.0263
54.0391
54.0519
54.0646
54.0773
54.0898
54.1023
54.1148
54.1271
54.1394
54.1516
54.1637
54.1758
54.1878
54.1997
54.2115
54.2232
54.2349
54.2465
54.258
54.2694
54.2808
54.292
54.3033
54.3143
54.3254
54.3363
54.3473
54.3579
54.3689
54.3792
54.3901
54.4002
54.4111
54.4209
54.4317
54.4413
54.452
54.4613
54.472
54.4811
54.4916
54.5006
54.5109
54.5197
54.5299
54.5386
54.5486
54.5573
54.5665
54.5753
51.7286
51.7553
51.772
51.7861
51.7994
51.8126
51.8258
51.8392
51.8527
51.8664
51.8803
51.8943
51.9085
51.9228
51.9373
51.9518
51.9664
51.9811
51.9959
52.0107
52.0256
52.0405
52.0556
52.0706
52.0857
52.1009
52.1161
52.1314
52.1467
52.1621
52.1775
52.193
52.2085
52.224
52.2396
52.2552
52.2708
52.2865
52.3023
52.3181
52.3339
52.3498
52.3657
52.3816
52.3976
52.4136
52.4296
52.4457
52.4617
52.4778
52.4939
52.51
52.5261
52.5423
52.5585
52.5747
52.591
52.6072
52.6235
52.6398
52.6561
52.6724
52.6888
52.7051
52.7215
52.7378
52.7542
52.7706
52.787
52.8034
52.8198
52.8362
52.8525
52.8689
52.8852
52.9016
52.9179
52.9341
52.9504
52.9666
52.9828
52.999
53.0152
53.0314
53.0475
53.0637
53.0799
53.096
53.1121
53.1282
53.1443
53.1604
53.1765
53.1926
53.2086
53.2246