/*--------------------------------*- C++ -*----------------------------------*\
| =========                 |                                                 |
| \\      /  F ield         | OpenFOAM: The Open Source CFD Toolbox           |
|  \\    /   O peration     | Version:  3.0.x                                 |
|   \\  /    A nd           | Web:      www.OpenFOAM.org                      |
|    \\/     M anipulation  |                                                 |
\*---------------------------------------------------------------------------*/
FoamFile
{
    version     2.0;
    format      ascii;
    class       volScalarField;
    location    "0.480025";
    object      T;
}
// * * * * * * * * * * * * * * * * * * * * * * * * * * * * * * * * * * * * * //

dimensions      [0 0 0 1 0 0 0];

internalField   nonuniform List<scalar> 
13800
(
773.276
773.276
773.276
773.276
773.276
773.276
773.276
773.276
773.276
773.276
773.276
773.276
773.276
773.276
773.276
773.276
773.276
773.276
773.276
773.277
773.277
773.277
773.277
773.278
773.278
773.278
773.279
773.279
773.279
773.28
773.28
773.281
773.281
773.282
773.283
773.284
773.284
773.285
773.286
773.287
773.288
773.289
773.291
773.292
773.293
773.295
773.296
773.298
773.3
773.302
773.305
773.307
773.309
773.312
773.314
773.316
773.318
773.32
773.322
773.325
773.328
773.331
773.335
773.339
773.343
773.347
773.352
773.357
773.361
773.366
773.371
773.376
773.382
773.388
773.393
773.399
773.405
773.41
773.416
773.422
773.429
773.436
773.444
773.451
773.46
773.469
773.478
773.487
773.497
773.507
773.517
773.527
773.537
773.548
773.558
773.569
773.58
773.591
773.603
773.615
773.628
773.641
773.654
773.668
773.682
773.697
773.711
773.726
773.742
773.758
773.774
773.79
773.807
773.824
773.842
773.859
773.877
773.896
773.915
773.934
773.953
773.973
773.994
774.014
774.035
774.056
774.078
774.1
774.122
774.145
774.168
774.192
774.216
774.24
774.264
774.289
774.315
774.341
774.367
774.393
774.42
774.447
774.475
774.503
774.532
774.561
774.59
774.62
774.65
774.68
774.711
774.742
774.774
774.806
774.839
774.871
774.905
774.938
774.973
775.007
775.042
775.077
775.113
775.149
775.186
775.223
775.26
775.298
775.336
775.375
775.414
775.454
775.494
775.534
775.575
775.616
775.657
775.699
775.741
775.784
775.827
775.871
775.915
775.96
776.004
776.05
776.093
776.142
776.185
776.236
776.278
776.332
776.372
776.43
776.467
776.529
776.564
776.634
776.672
776.833
773.261
773.261
773.261
773.261
773.261
773.261
773.262
773.262
773.262
773.262
773.262
773.262
773.262
773.262
773.262
773.262
773.263
773.263
773.263
773.263
773.263
773.264
773.264
773.264
773.265
773.265
773.265
773.266
773.266
773.267
773.267
773.268
773.269
773.269
773.27
773.271
773.272
773.273
773.274
773.275
773.276
773.277
773.278
773.279
773.281
773.282
773.284
773.286
773.288
773.29
773.293
773.295
773.297
773.3
773.302
773.304
773.306
773.308
773.311
773.313
773.316
773.32
773.323
773.327
773.332
773.336
773.341
773.346
773.35
773.355
773.36
773.366
773.371
773.377
773.383
773.388
773.394
773.4
773.406
773.412
773.419
773.426
773.433
773.441
773.449
773.458
773.467
773.477
773.487
773.497
773.507
773.517
773.528
773.538
773.548
773.559
773.57
773.582
773.594
773.606
773.619
773.632
773.645
773.659
773.673
773.688
773.702
773.717
773.733
773.749
773.765
773.781
773.798
773.815
773.833
773.85
773.869
773.887
773.906
773.925
773.944
773.964
773.985
774.005
774.026
774.047
774.069
774.091
774.113
774.136
774.159
774.183
774.207
774.231
774.255
774.28
774.306
774.332
774.358
774.384
774.411
774.438
774.466
774.494
774.523
774.552
774.581
774.61
774.641
774.671
774.702
774.733
774.765
774.797
774.829
774.862
774.896
774.929
774.964
774.998
775.033
775.068
775.104
775.14
775.177
775.214
775.251
775.289
775.327
775.366
775.405
775.445
775.485
775.525
775.566
775.607
775.648
775.69
775.732
775.775
775.818
775.862
775.906
775.951
775.995
776.041
776.084
776.134
776.176
776.228
776.269
776.323
776.363
776.421
776.458
776.521
776.555
776.626
776.662
776.859
773.261
773.261
773.261
773.261
773.261
773.261
773.262
773.262
773.262
773.262
773.262
773.262
773.262
773.262
773.262
773.262
773.263
773.263
773.263
773.263
773.263
773.264
773.264
773.264
773.265
773.265
773.265
773.266
773.266
773.267
773.267
773.268
773.269
773.269
773.27
773.271
773.272
773.273
773.274
773.275
773.276
773.277
773.278
773.279
773.281
773.282
773.284
773.286
773.288
773.29
773.293
773.295
773.297
773.3
773.302
773.304
773.306
773.308
773.311
773.313
773.316
773.32
773.323
773.327
773.332
773.336
773.341
773.345
773.35
773.355
773.36
773.366
773.371
773.377
773.383
773.388
773.394
773.4
773.406
773.412
773.419
773.426
773.433
773.441
773.449
773.458
773.467
773.477
773.487
773.497
773.507
773.517
773.528
773.538
773.548
773.559
773.57
773.582
773.594
773.606
773.619
773.632
773.645
773.659
773.673
773.688
773.702
773.717
773.733
773.749
773.765
773.781
773.798
773.815
773.833
773.85
773.869
773.887
773.906
773.925
773.944
773.964
773.985
774.005
774.026
774.047
774.069
774.091
774.113
774.136
774.159
774.183
774.207
774.231
774.255
774.28
774.306
774.331
774.358
774.384
774.411
774.438
774.466
774.494
774.523
774.552
774.581
774.61
774.641
774.671
774.702
774.733
774.765
774.797
774.829
774.862
774.896
774.929
774.964
774.998
775.033
775.068
775.104
775.14
775.177
775.214
775.251
775.289
775.327
775.366
775.405
775.445
775.485
775.525
775.566
775.607
775.648
775.69
775.732
775.775
775.818
775.862
775.906
775.951
775.994
776.041
776.084
776.134
776.176
776.228
776.269
776.323
776.363
776.421
776.458
776.521
776.555
776.626
776.662
776.854
773.262
773.261
773.262
773.262
773.262
773.262
773.262
773.262
773.262
773.262
773.262
773.262
773.262
773.262
773.262
773.263
773.263
773.263
773.263
773.263
773.264
773.264
773.264
773.264
773.265
773.265
773.266
773.266
773.266
773.267
773.267
773.268
773.269
773.269
773.27
773.271
773.272
773.273
773.274
773.275
773.276
773.277
773.278
773.28
773.281
773.282
773.284
773.286
773.288
773.29
773.293
773.295
773.297
773.3
773.302
773.304
773.306
773.308
773.311
773.313
773.316
773.32
773.323
773.327
773.332
773.336
773.341
773.346
773.35
773.355
773.36
773.366
773.371
773.377
773.383
773.388
773.394
773.4
773.406
773.412
773.419
773.426
773.433
773.441
773.449
773.458
773.467
773.477
773.487
773.497
773.507
773.517
773.528
773.538
773.548
773.559
773.57
773.582
773.594
773.606
773.619
773.632
773.645
773.659
773.673
773.688
773.702
773.717
773.733
773.749
773.765
773.781
773.798
773.815
773.833
773.85
773.869
773.887
773.906
773.925
773.944
773.964
773.985
774.005
774.026
774.047
774.069
774.091
774.113
774.136
774.159
774.183
774.207
774.231
774.255
774.28
774.306
774.331
774.358
774.384
774.411
774.438
774.466
774.494
774.523
774.552
774.581
774.61
774.641
774.671
774.702
774.733
774.765
774.797
774.829
774.862
774.896
774.929
774.964
774.998
775.033
775.068
775.104
775.14
775.177
775.214
775.251
775.289
775.327
775.366
775.405
775.445
775.485
775.525
775.566
775.607
775.648
775.69
775.732
775.775
775.818
775.862
775.906
775.951
775.995
776.041
776.084
776.133
776.176
776.228
776.269
776.323
776.363
776.421
776.458
776.521
776.555
776.625
776.661
776.81
773.262
773.262
773.262
773.262
773.262
773.262
773.262
773.262
773.262
773.262
773.262
773.262
773.262
773.262
773.262
773.263
773.263
773.263
773.263
773.263
773.264
773.264
773.264
773.264
773.265
773.265
773.266
773.266
773.267
773.267
773.268
773.268
773.269
773.269
773.27
773.271
773.272
773.273
773.274
773.275
773.276
773.277
773.278
773.28
773.281
773.282
773.284
773.286
773.288
773.29
773.293
773.295
773.298
773.3
773.302
773.304
773.306
773.308
773.311
773.313
773.316
773.32
773.323
773.328
773.332
773.336
773.341
773.346
773.35
773.355
773.36
773.366
773.371
773.377
773.383
773.388
773.394
773.4
773.406
773.412
773.419
773.426
773.433
773.441
773.449
773.458
773.467
773.477
773.487
773.497
773.507
773.517
773.528
773.538
773.548
773.559
773.57
773.582
773.594
773.606
773.619
773.632
773.645
773.659
773.673
773.688
773.702
773.717
773.733
773.749
773.765
773.781
773.798
773.815
773.833
773.85
773.869
773.887
773.906
773.925
773.944
773.964
773.985
774.005
774.026
774.047
774.069
774.091
774.113
774.136
774.159
774.183
774.207
774.231
774.255
774.28
774.306
774.331
774.358
774.384
774.411
774.438
774.466
774.494
774.523
774.552
774.581
774.61
774.641
774.671
774.702
774.733
774.765
774.797
774.829
774.862
774.896
774.929
774.964
774.998
775.033
775.068
775.104
775.14
775.177
775.214
775.251
775.289
775.327
775.366
775.405
775.445
775.485
775.525
775.566
775.607
775.648
775.69
775.732
775.775
775.818
775.862
775.906
775.951
775.994
776.041
776.084
776.133
776.176
776.228
776.269
776.323
776.363
776.421
776.458
776.521
776.555
776.622
776.658
776.764
773.262
773.262
773.262
773.262
773.262
773.262
773.262
773.262
773.262
773.262
773.262
773.262
773.262
773.262
773.262
773.263
773.263
773.263
773.263
773.263
773.264
773.264
773.264
773.264
773.265
773.265
773.266
773.266
773.267
773.267
773.268
773.268
773.269
773.269
773.27
773.271
773.272
773.273
773.274
773.275
773.276
773.277
773.278
773.28
773.281
773.282
773.284
773.286
773.288
773.29
773.293
773.295
773.298
773.3
773.302
773.304
773.306
773.308
773.311
773.313
773.316
773.32
773.323
773.328
773.332
773.336
773.341
773.346
773.35
773.355
773.36
773.366
773.371
773.377
773.383
773.388
773.394
773.4
773.406
773.412
773.419
773.426
773.433
773.441
773.449
773.458
773.467
773.477
773.487
773.497
773.507
773.517
773.528
773.538
773.548
773.559
773.57
773.582
773.594
773.606
773.619
773.632
773.645
773.659
773.673
773.688
773.702
773.717
773.733
773.749
773.765
773.781
773.798
773.815
773.833
773.85
773.869
773.887
773.906
773.925
773.944
773.964
773.985
774.005
774.026
774.047
774.069
774.091
774.113
774.136
774.159
774.183
774.207
774.231
774.255
774.28
774.306
774.331
774.358
774.384
774.411
774.438
774.466
774.494
774.523
774.552
774.581
774.61
774.641
774.671
774.702
774.733
774.765
774.797
774.829
774.862
774.896
774.929
774.964
774.998
775.033
775.068
775.104
775.14
775.177
775.214
775.251
775.289
775.327
775.366
775.405
775.445
775.485
775.525
775.566
775.607
775.648
775.69
775.732
775.775
775.818
775.862
775.906
775.95
775.995
776.04
776.086
776.132
776.177
776.225
776.272
776.317
776.372
776.41
776.47
776.508
776.567
776.609
776.657
776.711
773.262
773.261
773.262
773.262
773.262
773.262
773.262
773.262
773.262
773.262
773.262
773.262
773.262
773.262
773.262
773.263
773.263
773.263
773.263
773.263
773.264
773.264
773.264
773.264
773.265
773.265
773.266
773.266
773.266
773.267
773.267
773.268
773.269
773.269
773.27
773.271
773.272
773.273
773.274
773.275
773.276
773.277
773.278
773.28
773.281
773.282
773.284
773.286
773.288
773.29
773.293
773.295
773.297
773.3
773.302
773.304
773.306
773.308
773.311
773.313
773.316
773.32
773.323
773.327
773.332
773.336
773.341
773.346
773.35
773.355
773.36
773.366
773.371
773.377
773.383
773.388
773.394
773.4
773.406
773.412
773.419
773.426
773.433
773.441
773.449
773.458
773.467
773.477
773.487
773.497
773.507
773.517
773.528
773.538
773.548
773.559
773.57
773.582
773.594
773.606
773.619
773.632
773.645
773.659
773.673
773.688
773.702
773.717
773.733
773.749
773.765
773.781
773.798
773.815
773.833
773.85
773.869
773.887
773.906
773.925
773.944
773.964
773.985
774.005
774.026
774.047
774.069
774.091
774.113
774.136
774.159
774.183
774.207
774.231
774.255
774.28
774.306
774.331
774.358
774.384
774.411
774.438
774.466
774.494
774.523
774.552
774.581
774.61
774.641
774.671
774.702
774.733
774.765
774.797
774.829
774.862
774.896
774.929
774.964
774.998
775.033
775.068
775.104
775.14
775.177
775.214
775.251
775.289
775.327
775.366
775.405
775.445
775.485
775.525
775.566
775.607
775.648
775.69
775.732
775.775
775.818
775.862
775.906
775.95
775.996
776.039
776.087
776.129
776.181
776.221
776.276
776.315
776.372
776.41
776.47
776.507
776.569
776.601
776.676
776.618
773.261
773.261
773.261
773.261
773.261
773.261
773.262
773.262
773.262
773.262
773.262
773.262
773.262
773.262
773.262
773.262
773.263
773.263
773.263
773.263
773.263
773.264
773.264
773.264
773.265
773.265
773.265
773.266
773.266
773.267
773.267
773.268
773.269
773.269
773.27
773.271
773.272
773.273
773.274
773.275
773.276
773.277
773.278
773.279
773.281
773.282
773.284
773.286
773.288
773.29
773.293
773.295
773.297
773.3
773.302
773.304
773.306
773.308
773.311
773.313
773.316
773.32
773.323
773.327
773.332
773.336
773.341
773.345
773.35
773.355
773.36
773.366
773.371
773.377
773.383
773.388
773.394
773.4
773.406
773.412
773.419
773.426
773.433
773.441
773.449
773.458
773.467
773.477
773.487
773.497
773.507
773.517
773.528
773.538
773.548
773.559
773.57
773.582
773.594
773.606
773.619
773.632
773.645
773.659
773.673
773.688
773.702
773.717
773.733
773.749
773.765
773.781
773.798
773.815
773.833
773.85
773.869
773.887
773.906
773.925
773.944
773.964
773.985
774.005
774.026
774.047
774.069
774.091
774.113
774.136
774.159
774.183
774.207
774.231
774.255
774.28
774.306
774.331
774.358
774.384
774.411
774.438
774.466
774.494
774.523
774.552
774.581
774.61
774.641
774.671
774.702
774.733
774.765
774.797
774.829
774.862
774.896
774.929
774.964
774.998
775.033
775.068
775.104
775.14
775.177
775.214
775.251
775.289
775.327
775.366
775.405
775.445
775.485
775.525
775.566
775.607
775.648
775.69
775.732
775.775
775.818
775.862
775.906
775.95
775.996
776.039
776.088
776.129
776.181
776.221
776.276
776.315
776.373
776.409
776.471
776.506
776.57
776.6
776.692
776.45
773.261
773.261
773.261
773.261
773.261
773.261
773.262
773.262
773.262
773.262
773.262
773.262
773.262
773.262
773.262
773.262
773.263
773.263
773.263
773.263
773.263
773.264
773.264
773.264
773.265
773.265
773.265
773.266
773.266
773.267
773.267
773.268
773.269
773.269
773.27
773.271
773.272
773.273
773.274
773.275
773.276
773.277
773.278
773.279
773.281
773.282
773.284
773.286
773.288
773.29
773.293
773.295
773.297
773.3
773.302
773.304
773.306
773.308
773.311
773.313
773.316
773.32
773.323
773.327
773.332
773.336
773.341
773.346
773.35
773.355
773.36
773.366
773.371
773.377
773.383
773.388
773.394
773.4
773.406
773.412
773.419
773.426
773.433
773.441
773.449
773.458
773.467
773.477
773.487
773.497
773.507
773.517
773.528
773.538
773.548
773.559
773.57
773.582
773.594
773.606
773.619
773.632
773.645
773.659
773.673
773.688
773.702
773.717
773.733
773.749
773.765
773.781
773.798
773.815
773.833
773.85
773.869
773.887
773.906
773.925
773.944
773.964
773.985
774.005
774.026
774.047
774.069
774.091
774.113
774.136
774.159
774.183
774.207
774.231
774.255
774.28
774.306
774.332
774.358
774.384
774.411
774.438
774.466
774.494
774.523
774.552
774.581
774.61
774.641
774.671
774.702
774.733
774.765
774.797
774.829
774.862
774.896
774.929
774.964
774.998
775.033
775.068
775.104
775.14
775.177
775.214
775.251
775.289
775.327
775.366
775.405
775.445
775.485
775.525
775.566
775.607
775.648
775.69
775.733
775.775
775.818
775.862
775.906
775.95
775.996
776.039
776.088
776.129
776.181
776.221
776.276
776.315
776.373
776.409
776.471
776.505
776.57
776.6
776.701
776.36
773.276
773.276
773.276
773.276
773.276
773.276
773.276
773.276
773.276
773.276
773.276
773.276
773.276
773.276
773.276
773.276
773.276
773.276
773.276
773.277
773.277
773.277
773.277
773.278
773.278
773.278
773.279
773.279
773.279
773.28
773.28
773.281
773.281
773.282
773.283
773.284
773.284
773.285
773.286
773.287
773.288
773.289
773.291
773.292
773.293
773.295
773.296
773.298
773.3
773.302
773.305
773.307
773.309
773.312
773.314
773.316
773.318
773.32
773.322
773.325
773.328
773.331
773.335
773.339
773.343
773.347
773.352
773.357
773.361
773.366
773.371
773.376
773.382
773.388
773.393
773.399
773.405
773.41
773.416
773.422
773.429
773.436
773.444
773.451
773.46
773.469
773.478
773.487
773.497
773.507
773.517
773.527
773.537
773.548
773.558
773.569
773.58
773.591
773.603
773.615
773.628
773.641
773.654
773.668
773.682
773.697
773.711
773.726
773.742
773.758
773.774
773.79
773.807
773.824
773.842
773.859
773.877
773.896
773.915
773.934
773.953
773.973
773.994
774.014
774.035
774.056
774.078
774.1
774.122
774.145
774.168
774.192
774.216
774.24
774.264
774.289
774.315
774.341
774.367
774.393
774.42
774.447
774.475
774.503
774.532
774.561
774.59
774.62
774.65
774.68
774.711
774.742
774.774
774.806
774.839
774.871
774.905
774.938
774.973
775.007
775.042
775.077
775.113
775.149
775.186
775.223
775.26
775.298
775.336
775.375
775.414
775.454
775.494
775.534
775.575
775.616
775.657
775.699
775.742
775.784
775.827
775.871
775.915
775.959
776.005
776.048
776.097
776.138
776.19
776.23
776.285
776.324
776.382
776.418
776.48
776.514
776.579
776.608
776.72
776.281
776.87
776.907
776.931
776.943
776.955
776.965
776.975
776.984
776.993
777.001
777.011
777.021
777.032
777.042
777.052
777.06
777.064
777.063
777.063
777.044
776.861
776.881
776.9
776.911
776.923
776.933
776.944
776.953
776.963
776.972
776.982
776.992
777.002
777.012
777.02
777.025
777.029
777.029
777.03
777.014
776.862
776.883
776.9
776.913
776.922
776.934
776.944
776.954
776.964
776.973
776.983
776.991
776.998
777.007
777.012
777.017
777.022
777.022
777.02
777.009
776.835
776.853
776.864
776.871
776.879
776.888
776.899
776.908
776.922
776.933
776.947
776.96
776.973
776.985
777
777.011
777.02
777.027
777.028
777.021
776.799
776.825
776.845
776.86
776.873
776.883
776.892
776.899
776.903
776.907
776.91
776.91
776.911
776.912
776.912
776.913
776.914
776.916
776.918
776.921
776.727
776.729
776.731
776.735
776.742
776.75
776.759
776.77
776.783
776.798
776.819
776.837
776.859
776.879
776.904
776.926
776.951
776.971
776.993
777.006
776.648
776.656
776.667
776.675
776.684
776.692
776.699
776.702
776.702
776.703
776.699
776.698
776.694
776.693
776.691
776.692
776.696
776.702
776.718
776.739
776.551
776.531
776.514
776.511
776.515
776.522
776.531
776.544
776.559
776.575
776.592
776.613
776.637
776.662
776.693
776.721
776.758
776.791
776.831
776.867
776.479
776.459
776.44
776.431
776.426
776.426
776.429
776.433
776.439
776.447
776.453
776.462
776.474
776.489
776.505
776.525
776.552
776.585
776.625
776.674
776.441
776.406
776.376
776.362
776.363
776.371
776.382
776.397
776.417
776.438
776.462
776.486
776.515
776.545
776.578
776.615
776.655
776.701
776.752
776.809
777.003
777.033
777.047
777.079
777.12
777.164
777.208
777.251
777.292
777.333
777.374
777.416
777.459
777.503
777.546
777.59
777.634
777.678
777.722
777.767
777.812
777.857
777.902
777.947
777.992
778.037
778.083
778.129
778.175
778.221
778.267
778.314
778.36
778.407
778.453
778.5
778.547
778.593
778.64
778.687
778.735
778.782
778.829
778.877
778.924
778.972
779.02
779.068
779.116
779.164
779.212
779.26
779.308
779.356
779.404
779.452
779.5
779.549
779.597
779.646
779.694
779.742
779.791
779.839
779.887
779.936
779.984
780.033
780.081
780.129
780.178
780.226
780.274
780.322
780.37
780.419
780.467
780.516
780.564
780.612
780.661
780.709
780.756
780.804
780.852
780.9
780.948
780.995
781.042
781.09
781.137
781.184
781.231
781.279
781.326
781.373
781.419
781.466
781.513
781.559
781.605
781.652
781.698
781.744
781.79
781.835
781.88
781.925
781.97
782.016
782.061
782.105
782.147
782.188
782.227
782.266
782.305
782.347
782.392
782.437
782.476
782.503
782.52
782.544
782.597
782.745
783.153
783.715
784.284
784.815
785.273
785.635
785.888
786.028
786.073
786.07
785.995
785.646
785.025
784.488
784.071
783.779
783.599
783.502
783.456
783.438
783.438
783.461
783.524
783.585
783.638
783.687
783.733
783.776
783.817
783.856
783.895
783.932
783.969
784.006
784.042
784.077
784.113
784.148
784.182
784.217
784.251
784.284
784.318
784.351
784.384
784.417
784.45
784.481
784.514
784.544
784.579
784.606
784.642
784.667
784.704
784.727
784.765
784.787
784.826
784.845
784.885
784.903
784.943
784.96
784.999
785.016
785.055
785.071
785.11
785.126
785.164
785.178
785.226
785.234
776.98
777.008
777.025
777.057
777.096
777.139
777.182
777.226
777.267
777.308
777.349
777.39
777.433
777.476
777.52
777.563
777.607
777.651
777.695
777.74
777.785
777.829
777.875
777.92
777.965
778.01
778.056
778.101
778.147
778.193
778.24
778.286
778.333
778.379
778.426
778.473
778.519
778.566
778.613
778.66
778.707
778.754
778.801
778.849
778.896
778.944
778.991
779.039
779.087
779.135
779.184
779.232
779.28
779.328
779.376
779.424
779.472
779.52
779.569
779.617
779.666
779.714
779.762
779.811
779.859
779.907
779.956
780.004
780.052
780.101
780.149
780.198
780.246
780.294
780.342
780.39
780.438
780.486
780.535
780.583
780.631
780.68
780.728
780.775
780.823
780.871
780.919
780.966
781.014
781.061
781.108
781.155
781.202
781.249
781.296
781.343
781.39
781.437
781.484
781.53
781.577
781.623
781.669
781.715
781.761
781.807
781.853
781.899
781.944
781.988
782.034
782.078
782.12
782.164
782.206
782.247
782.29
782.335
782.381
782.426
782.467
782.502
782.526
782.544
782.562
782.583
782.604
782.616
782.624
782.638
782.674
782.764
782.894
783.039
783.186
783.321
783.437
783.526
783.582
783.602
783.601
783.59
783.563
783.541
783.527
783.52
783.521
783.541
783.578
783.616
783.655
783.694
783.733
783.773
783.811
783.849
783.887
783.924
783.961
783.998
784.034
784.069
784.104
784.139
784.174
784.208
784.242
784.276
784.31
784.343
784.376
784.409
784.441
784.473
784.506
784.536
784.571
784.598
784.634
784.658
784.696
784.719
784.757
784.778
784.817
784.836
784.877
784.894
784.934
784.952
784.991
785.008
785.047
785.063
785.102
785.118
785.156
785.171
785.214
785.23
776.984
777.01
777.029
777.062
777.101
777.144
777.188
777.231
777.272
777.312
777.352
777.394
777.437
777.481
777.524
777.568
777.612
777.656
777.7
777.744
777.789
777.834
777.879
777.924
777.97
778.015
778.06
778.106
778.152
778.198
778.244
778.291
778.337
778.384
778.431
778.477
778.524
778.571
778.617
778.664
778.711
778.759
778.806
778.854
778.901
778.948
778.996
779.044
779.092
779.14
779.188
779.237
779.285
779.333
779.381
779.429
779.477
779.525
779.573
779.622
779.67
779.719
779.767
779.815
779.864
779.912
779.96
780.009
780.057
780.105
780.154
780.202
780.25
780.298
780.346
780.394
780.443
780.491
780.539
780.588
780.636
780.684
780.732
780.78
780.828
780.875
780.923
780.971
781.018
781.065
781.112
781.159
781.206
781.254
781.301
781.348
781.395
781.441
781.488
781.535
781.581
781.627
781.674
781.72
781.766
781.812
781.857
781.903
781.949
781.994
782.038
782.083
782.127
782.171
782.212
782.254
782.295
782.339
782.385
782.432
782.479
782.52
782.546
782.557
782.556
782.553
782.548
782.545
782.546
782.552
782.561
782.582
782.637
782.73
782.84
782.958
783.074
783.182
783.275
783.35
783.409
783.451
783.479
783.499
783.514
783.53
783.55
783.573
783.601
783.632
783.666
783.702
783.739
783.776
783.813
783.851
783.888
783.925
783.962
783.998
784.034
784.069
784.105
784.14
784.174
784.208
784.243
784.276
784.31
784.343
784.376
784.409
784.441
784.473
784.506
784.536
784.57
784.598
784.634
784.658
784.696
784.719
784.757
784.778
784.817
784.836
784.877
784.894
784.934
784.952
784.991
785.008
785.047
785.063
785.102
785.118
785.156
785.171
785.211
785.226
777.026
777.042
777.075
777.12
777.162
777.202
777.244
777.288
777.332
777.377
777.42
777.463
777.505
777.548
777.591
777.635
777.679
777.724
777.768
777.813
777.858
777.903
777.948
777.993
778.038
778.083
778.129
778.175
778.221
778.267
778.313
778.359
778.406
778.453
778.499
778.546
778.593
778.639
778.686
778.733
778.78
778.828
778.875
778.922
778.97
779.017
779.065
779.113
779.161
779.209
779.257
779.305
779.353
779.402
779.45
779.498
779.546
779.594
779.642
779.691
779.739
779.787
779.836
779.884
779.932
779.981
780.029
780.078
780.126
780.174
780.222
780.27
780.319
780.367
780.415
780.464
780.512
780.56
780.609
780.657
780.705
780.753
780.801
780.849
780.897
780.944
780.992
781.039
781.086
781.134
781.181
781.228
781.276
781.323
781.37
781.417
781.463
781.51
781.557
781.603
781.649
781.695
781.741
781.786
781.832
781.877
781.923
781.968
782.012
782.056
782.099
782.141
782.181
782.222
782.264
782.305
782.35
782.397
782.441
782.482
782.517
782.542
782.558
782.571
782.586
782.604
782.623
782.641
782.662
782.692
782.733
782.786
782.849
782.917
782.987
783.055
783.12
783.179
783.234
783.282
783.324
783.362
783.396
783.429
783.461
783.494
783.527
783.562
783.597
783.633
783.67
783.707
783.745
783.782
783.819
783.856
783.892
783.929
783.965
784
784.036
784.071
784.106
784.141
784.175
784.209
784.243
784.277
784.31
784.343
784.376
784.409
784.441
784.473
784.506
784.536
784.57
784.598
784.633
784.66
784.694
784.721
784.754
784.781
784.815
784.837
784.877
784.894
784.934
784.952
784.991
785.008
785.047
785.063
785.101
785.118
785.155
785.171
785.204
785.229
776.951
776.967
776.999
777.039
777.077
777.12
777.163
777.205
777.247
777.289
777.331
777.375
777.418
777.462
777.506
777.549
777.593
777.637
777.681
777.725
777.77
777.815
777.86
777.905
777.95
777.995
778.041
778.087
778.133
778.179
778.225
778.271
778.317
778.364
778.41
778.457
778.504
778.551
778.598
778.645
778.692
778.74
778.787
778.834
778.882
778.93
778.977
779.025
779.073
779.121
779.168
779.216
779.265
779.313
779.361
779.409
779.458
779.506
779.554
779.602
779.651
779.699
779.747
779.796
779.844
779.893
779.941
779.99
780.038
780.086
780.135
780.183
780.231
780.28
780.328
780.376
780.424
780.472
780.52
780.568
780.616
780.664
780.712
780.76
780.808
780.856
780.904
780.951
780.999
781.047
781.094
781.141
781.189
781.236
781.283
781.33
781.377
781.424
781.471
781.517
781.563
781.61
781.656
781.703
781.749
781.795
781.841
781.887
781.932
781.979
782.025
782.07
782.115
782.16
782.205
782.25
782.294
782.337
782.38
782.424
782.471
782.517
782.56
782.598
782.633
782.665
782.696
782.726
782.756
782.788
782.823
782.863
782.906
782.953
783.002
783.051
783.1
783.147
783.193
783.238
783.281
783.323
783.363
783.403
783.443
783.482
783.52
783.559
783.597
783.635
783.672
783.71
783.747
783.784
783.821
783.858
783.894
783.93
783.966
784.001
784.037
784.072
784.106
784.141
784.175
784.209
784.243
784.277
784.31
784.343
784.376
784.409
784.441
784.473
784.506
784.537
784.568
784.601
784.63
784.663
784.691
784.723
784.754
784.781
784.815
784.84
784.872
784.9
784.928
784.959
784.983
785.017
785.039
785.07
785.097
785.121
785.151
785.177
785.203
785.227
777.049
777.105
777.16
777.213
777.265
777.314
777.363
777.411
777.458
777.504
777.549
777.594
777.639
777.683
777.727
777.771
777.815
777.86
777.904
777.948
777.993
778.038
778.083
778.129
778.174
778.219
778.265
778.31
778.356
778.402
778.449
778.495
778.542
778.588
778.635
778.682
778.729
778.775
778.822
778.869
778.916
778.963
779.01
779.058
779.105
779.153
779.201
779.249
779.297
779.345
779.393
779.441
779.489
779.537
779.585
779.633
779.682
779.73
779.778
779.826
779.874
779.923
779.971
780.019
780.067
780.116
780.164
780.212
780.26
780.308
780.357
780.405
780.453
780.501
780.55
780.598
780.646
780.694
780.742
780.79
780.838
780.885
780.933
780.981
781.028
781.075
781.122
781.168
781.214
781.26
781.307
781.353
781.399
781.445
781.49
781.534
781.578
781.622
781.666
781.71
781.754
781.798
781.842
781.885
781.927
781.968
782.008
782.048
782.088
782.127
782.167
782.209
782.251
782.295
782.339
782.383
782.423
782.458
782.488
782.514
782.536
782.556
782.576
782.598
782.624
782.652
782.682
782.713
782.746
782.78
782.818
782.859
782.904
782.952
783.001
783.052
783.102
783.151
783.199
783.245
783.289
783.332
783.373
783.414
783.453
783.492
783.53
783.568
783.606
783.643
783.68
783.717
783.753
783.79
783.826
783.862
783.897
783.933
783.968
784.003
784.038
784.073
784.107
784.142
784.176
784.21
784.244
784.277
784.31
784.344
784.376
784.409
784.441
784.474
784.505
784.539
784.567
784.602
784.629
784.664
784.69
784.726
784.749
784.787
784.808
784.847
784.866
784.905
784.923
784.963
784.98
785.019
785.036
785.074
785.091
785.129
785.145
785.182
785.198
785.235
776.809
776.86
776.901
776.941
776.981
777.022
777.063
777.105
777.148
777.191
777.234
777.277
777.32
777.364
777.408
777.451
777.495
777.539
777.583
777.627
777.672
777.716
777.761
777.806
777.851
777.897
777.942
777.988
778.034
778.08
778.126
778.172
778.219
778.265
778.312
778.358
778.405
778.452
778.499
778.546
778.593
778.641
778.688
778.736
778.783
778.831
778.879
778.926
778.974
779.022
779.07
779.118
779.166
779.214
779.262
779.31
779.358
779.407
779.455
779.503
779.552
779.6
779.649
779.697
779.746
779.794
779.843
779.891
779.94
779.988
780.036
780.085
780.133
780.182
780.23
780.279
780.327
780.375
780.423
780.471
780.519
780.567
780.615
780.663
780.711
780.759
780.807
780.854
780.901
780.949
780.996
781.043
781.09
781.137
781.184
781.231
781.278
781.324
781.371
781.417
781.464
781.51
781.556
781.602
781.648
781.694
781.74
781.786
781.83
781.876
781.921
781.967
782.013
782.057
782.101
782.145
782.192
782.239
782.285
782.328
782.372
782.417
782.459
782.503
782.552
782.605
782.655
782.703
782.748
782.789
782.823
782.848
782.869
782.892
782.922
782.963
783.013
783.069
783.128
783.186
783.242
783.295
783.345
783.393
783.438
783.481
783.522
783.563
783.602
783.641
783.678
783.716
783.753
783.789
783.826
783.862
783.897
783.933
783.968
784.003
784.038
784.073
784.108
784.142
784.176
784.21
784.244
784.277
784.31
784.344
784.376
784.409
784.441
784.474
784.505
784.539
784.567
784.602
784.629
784.664
784.69
784.726
784.749
784.787
784.808
784.847
784.866
784.905
784.923
784.963
784.98
785.019
785.036
785.074
785.091
785.128
785.145
785.179
785.203
785.231
776.991
777.06
777.118
777.174
777.227
777.28
777.333
777.385
777.435
777.485
777.533
777.581
777.627
777.672
777.717
777.762
777.807
777.851
777.896
777.94
777.985
778.03
778.075
778.12
778.165
778.211
778.257
778.302
778.348
778.394
778.44
778.486
778.532
778.579
778.626
778.673
778.72
778.767
778.814
778.861
778.908
778.955
779.002
779.049
779.097
779.144
779.191
779.239
779.287
779.335
779.384
779.432
779.48
779.528
779.576
779.624
779.672
779.72
779.768
779.816
779.864
779.912
779.96
780.007
780.055
780.103
780.151
780.198
780.246
780.293
780.341
780.388
780.435
780.483
780.531
780.578
780.626
780.675
780.723
780.771
780.82
780.868
780.916
780.964
781.012
781.06
781.107
781.154