/*--------------------------------*- C++ -*----------------------------------*\
| =========                 |                                                 |
| \\      /  F ield         | OpenFOAM: The Open Source CFD Toolbox           |
|  \\    /   O peration     | Version:  3.0.x                                 |
|   \\  /    A nd           | Web:      www.OpenFOAM.org                      |
|    \\/     M anipulation  |                                                 |
\*---------------------------------------------------------------------------*/
FoamFile
{
    version     2.0;
    format      ascii;
    class       surfaceScalarField;
    location    "0.53";
    object      phi;
}
// * * * * * * * * * * * * * * * * * * * * * * * * * * * * * * * * * * * * * //

dimensions      [1 0 -1 0 0 0 0];

internalField   nonuniform List<scalar> 
12415
(
5.85013
0.000329
5.82957
0.000237133
5.80898
0.000228625
5.78834
0.000230803
5.76767
0.000231661
5.74696
0.000231905
5.72623
0.000232161
5.70549
0.000232422
5.68475
0.000232595
5.66399
0.000232693
5.64323
0.000232798
5.62248
0.000232878
5.60172
0.000232947
5.58097
0.000233011
5.56021
0.000233073
5.53945
0.000233136
5.51868
0.000233201
5.4979
0.000233267
5.47711
0.000233337
5.4563
0.000233409
5.43546
0.000233484
5.41461
0.000233563
5.39371
0.000233643
5.37279
0.000233728
5.35183
0.000233814
5.33082
0.000233906
5.30977
0.000233999
5.28867
0.000234095
5.26753
0.000234197
5.24632
0.000234302
5.22507
0.000234409
5.20376
0.000234527
5.1824
0.000234641
5.16098
0.000234765
5.13951
0.000234894
5.11799
0.000235024
5.09642
0.000235168
5.0748
0.00023531
5.05313
0.000235467
5.03143
0.000235634
5.00969
0.000235804
4.98791
0.000235976
4.96611
0.000236153
4.94428
0.000236333
4.92243
0.000236524
4.90057
0.000236733
4.87869
0.000236965
4.85681
0.000237214
4.83491
0.000237473
4.813
0.000237736
4.79108
0.000237985
4.76915
0.000238241
4.74721
0.000238487
4.72526
0.000238743
4.70331
0.000239008
4.68135
0.000239279
4.65939
0.00023955
4.63741
0.00023982
4.61543
0.000240089
4.59343
0.000240358
4.57142
0.000240627
4.54938
0.000240894
4.52732
0.000241141
4.50523
0.00024134
4.4831
0.00024146
4.46094
0.000241475
4.43874
0.00024136
4.41649
0.00024109
4.39421
0.000240642
4.37189
0.000239983
4.34952
0.000239074
4.32711
0.000237864
4.30466
0.000236296
4.28216
0.000234307
4.25962
0.000231831
4.23704
0.000228808
4.2144
0.000225181
4.19173
0.000220905
4.16901
0.000215944
4.14626
0.000210278
4.12346
0.000203898
4.10064
0.000196817
4.07779
0.000189061
4.05492
0.000180677
4.03202
0.000171727
4.00911
0.00016229
3.98619
0.000152457
3.96326
0.000142332
3.94033
0.000132027
3.91739
0.000121656
3.89446
0.000111337
3.87154
0.000101184
3.84862
9.13038e-05
3.82572
8.17936e-05
3.80283
7.27383e-05
3.77995
6.4208e-05
3.75709
5.62568e-05
3.73424
4.8922e-05
3.71141
4.22247e-05
3.68859
3.61713e-05
3.66579
3.0755e-05
3.643
2.59568e-05
3.62022
2.17477e-05
3.59745
1.809e-05
3.57469
1.49414e-05
3.55194
1.22562e-05
3.5292
9.98748e-06
3.50647
8.0873e-06
3.48374
6.50971e-06
3.46102
5.21028e-06
3.4383
4.14829e-06
3.41559
3.28592e-06
3.39288
2.59054e-06
3.37018
2.03301e-06
3.34748
1.58865e-06
3.32479
1.23516e-06
3.30211
9.53396e-07
3.27943
7.27967e-07
3.25676
5.46237e-07
3.2341
3.98768e-07
3.21145
2.77218e-07
3.18881
1.74754e-07
3.16619
8.62237e-08
3.14357
8.08359e-09
3.12097
-6.32117e-08
3.09839
-1.27557e-07
3.07581
-1.87336e-07
3.05326
-2.45767e-07
3.03072
-3.03968e-07
3.0082
-3.62077e-07
2.98569
-4.20052e-07
2.96321
-4.7803e-07
2.94074
-5.36134e-07
2.91829
-5.9549e-07
2.89586
-6.56355e-07
2.87346
-7.19449e-07
2.85107
-7.84463e-07
2.82871
-8.50827e-07
2.80638
-9.18279e-07
2.78407
-9.86432e-07
2.7618
-1.05602e-06
2.73955
-1.12812e-06
2.71734
-1.2024e-06
2.69516
-1.27871e-06
2.67301
-1.35755e-06
2.65091
-1.43872e-06
2.62885
-1.522e-06
2.60683
-1.60695e-06
2.58486
-1.69324e-06
2.56294
-1.78038e-06
2.54107
-1.86884e-06
2.51925
-1.95845e-06
2.49749
-2.04976e-06
2.47579
-2.14351e-06
2.45415
-2.23843e-06
2.43258
-2.33503e-06
2.41107
-2.43203e-06
2.38963
-2.52958e-06
2.36827
-2.62696e-06
2.34697
-2.72729e-06
2.32575
-2.82834e-06
2.30461
-2.9312e-06
2.28355
-3.03237e-06
2.26257
-3.13469e-06
2.24167
-3.23603e-06
2.22086
-3.33895e-06
2.20013
-3.44142e-06
2.17948
-3.54676e-06
2.15893
-3.64905e-06
2.13846
-3.75805e-06
2.11809
-3.85807e-06
2.0978
-3.97048e-06
2.07761
-4.06632e-06
2.05751
-4.18532e-06
2.0375
-4.27536e-06
2.01759
-4.40863e-06
1.99778
-4.4816e-06
1.97806
-4.64514e-06
1.95844
-4.66555e-06
1.93892
-4.91288e-06
1.91949
-4.79869e-06
1.90017
-5.256e-06
1.88094
-4.84856e-06
1.86182
-5.69935e-06
1.84279
-4.7906e-06
1.82386
-6.27193e-06
1.80503
-4.54258e-06
1.78631
-7.14032e-06
1.76768
-3.91833e-06
1.74916
-8.3716e-06
1.73073
-3.19538e-06
1.71242
-9.023e-06
1.69421
-3.3046e-06
1.6761
-6.15891e-06
1.65809
9.98037e-06
1.64011
8.83735e-05
1.62175
0.000588868
1.60035
0.00373415
1.55008
0.0327258
0.103077
1.42958
11.701
0.000261414
11.6604
0.000216515
11.6197
0.000193635
11.5789
0.000197755
11.5381
0.000199156
11.4972
0.000198981
11.4562
0.000199107
11.4152
0.000199336
11.3742
0.000199491
11.3332
0.000199586
11.2922
0.00019968
11.2512
0.000199759
11.2102
0.000199827
11.1692
0.000199892
11.1282
0.000199957
11.0871
0.000200022
11.0461
0.000200088
11.005
0.000200156
10.9639
0.000200228
10.9228
0.000200301
10.8817
0.000200377
10.8404
0.000200456
10.7992
0.000200536
10.7578
0.000200621
10.7164
0.000200706
10.6749
0.000200797
10.6333
0.000200889
10.5916
0.000200983
10.5498
0.000201082
10.5079
0.000201185
10.4659
0.000201289
10.4238
0.0002014
10.3815
0.000201511
10.3392
0.000201629
10.2968
0.000201751
10.2542
0.000201876
10.2116
0.000202011
10.1688
0.000202146
10.126
0.000202292
10.0831
0.000202447
10.0401
0.000202605
9.99709
0.000202764
9.95398
0.000202928
9.91082
0.000203096
9.86763
0.000203274
9.82441
0.000203466
9.78117
0.000203678
9.73791
0.000203902
9.69462
0.000204135
9.65131
0.000204372
9.60798
0.000204601
9.56462
0.000204833
9.52126
0.00020506
9.47788
0.000205293
9.43449
0.000205534
9.39108
0.000205779
9.34766
0.000206023
9.30422
0.000206267
9.26077
0.000206511
9.21728
0.000206754
9.17377
0.000206998
9.13021
0.000207237
9.08661
0.000207457
9.04294
0.000207635
8.99921
0.000207745
8.9554
0.000207762
8.91151
0.000207666
8.86754
0.000207434
8.82348
0.000207044
8.77935
0.000206468
8.73513
0.000205671
8.69082
0.000204608
8.64642
0.00020323
8.60193
0.000201482
8.55734
0.00019931
8.51266
0.000196658
8.46788
0.000193481
8.423
0.000189738
8.37803
0.0001854
8.33296
0.00018045
8.28782
0.000174884
8.24259
0.000168713
8.1973
0.000161962
8.15193
0.000154674
8.10651
0.000146904
8.06104
0.000138722
8.01552
0.000130209
7.96997
0.000121455
7.92438
0.000112557
7.87878
0.000103617
7.83316
9.47345e-05
7.78753
8.60078e-05
7.7419
7.75285e-05
7.69626
6.93792e-05
7.65064
6.16314e-05
7.60502
5.43442e-05
7.55942
4.75619e-05
7.51383
4.1315e-05
7.46825
3.56197e-05
7.42269
3.04799e-05
7.37715
2.58881e-05
7.33163
2.18265e-05
7.28612
1.82689e-05
7.24062
1.51821e-05
7.19514
1.25291e-05
7.14967
1.02699e-05
7.10421
8.36399e-06
7.05876
6.77006e-06
7.01331
5.44858e-06
6.96788
4.36152e-06
6.92245
3.47407e-06
6.87704
2.75407e-06
6.83163
2.17379e-06
6.78623
1.70858e-06
6.74083
1.33768e-06
6.69545
1.04232e-06
6.65009
8.0664e-07
6.60473
6.17611e-07
6.5594
4.64981e-07
6.51408
3.40663e-07
6.46878
2.3797e-07
6.4235
1.511e-07
6.37825
7.58314e-08
6.33302
1.02216e-08
6.28782
-5.26072e-08
6.24265
-1.07204e-07
6.1975
-1.57244e-07
6.15239
-2.07563e-07
6.10731
-2.57239e-07
6.06227
-3.07056e-07
6.01726
-3.56761e-07
5.97228
-4.06475e-07
5.92734
-4.56166e-07
5.88244
-5.07213e-07
5.83759
-5.59252e-07
5.79277
-6.13443e-07
5.74801
-6.69175e-07
5.70328
-7.26024e-07
5.65862
-7.83913e-07
5.614
-8.4241e-07
5.56944
-9.0187e-07
5.52495
-9.64024e-07
5.48052
-1.02736e-06
5.43616
-1.09302e-06
5.39187
-1.16061e-06
5.34766
-1.23009e-06
5.30353
-1.3015e-06
5.25949
-1.37447e-06
5.21555
-1.44843e-06
5.1717
-1.52295e-06
5.12796
-1.59894e-06
5.08432
-1.67594e-06
5.04079
-1.75388e-06
4.99739
-1.8346e-06
4.95411
-1.91571e-06
4.91095
-1.99884e-06
4.86793
-2.08155e-06
4.82505
-2.16598e-06
4.78231
-2.24856e-06
4.73971
-2.3355e-06
4.69727
-2.42072e-06
4.65498
-2.51087e-06
4.61285
-2.59639e-06
4.57088
-2.68498e-06
4.52908
-2.77014e-06
4.48744
-2.86026e-06
4.44598
-2.94651e-06
4.40468
-3.03996e-06
4.36357
-3.12143e-06
4.32262
-3.2242e-06
4.28186
-3.2982e-06
4.24129
-3.41038e-06
4.20089
-3.47063e-06
4.16068
-3.6016e-06
4.12066
-3.63983e-06
4.08083
-3.80996e-06
4.04119
-3.7903e-06
4.00174
-4.05556e-06
3.96249
-3.87548e-06
3.92344
-4.40229e-06
3.88458
-3.80428e-06
3.84592
-4.96866e-06
3.80745
-3.47346e-06
3.76919
-5.82916e-06
3.73112
-2.81845e-06
3.69326
-7.08166e-06
3.65559
-1.58272e-06
3.61813
-9.23298e-06
3.58085
8.00049e-07
3.5438
-1.24987e-05
3.50694
3.51197e-06
3.4703
-1.41157e-05
3.43385
3.93628e-06
3.39764
-5.94811e-06
3.3616
4.91974e-05
3.32564
0.000269263
3.28888
0.00179619
3.24625
0.0110356
3.1689
0.0749796
0.229981
3.00713
140.412
-0.000261414
139.925
-0.000216515
139.437
-0.000193635
138.947
-0.000197755
138.457
-0.000199156
137.966
-0.000198981
137.474
-0.000199107
136.983
-0.000199336
136.491
-0.000199491
135.999
-0.000199586
135.506
-0.00019968
135.014
-0.000199759
134.522
-0.000199827
134.03
-0.000199892
133.538
-0.000199957
133.045
-0.000200022
132.553
-0.000200088
132.06
-0.000200156
131.567
-0.000200228
131.074
-0.000200301
130.58
-0.000200377
130.085
-0.000200456
129.59
-0.000200536
129.094
-0.000200621
128.596
-0.000200706
128.098
-0.000200797
127.599
-0.000200889
127.099
-0.000200983
126.597
-0.000201082
126.094
-0.000201185
125.59
-0.000201289
125.085
-0.0002014
124.578
-0.000201511
124.07
-0.000201629
123.561
-0.000201751
123.051
-0.000201876
122.539
-0.000202011
122.026
-0.000202146
121.512
-0.000202292
120.997
-0.000202447
120.482
-0.000202605
119.965
-0.000202764
119.448
-0.000202928
118.93
-0.000203096
118.412
-0.000203274
117.893
-0.000203466
117.374
-0.000203678
116.855
-0.000203902
116.336
-0.000204135
115.816
-0.000204372
115.296
-0.000204601
114.776
-0.000204833
114.255
-0.00020506
113.735
-0.000205293
113.214
-0.000205533
112.693
-0.000205779
112.172
-0.000206023
111.651
-0.000206267
111.129
-0.000206511
110.608
-0.000206754
110.085
-0.000206998
109.563
-0.000207237
109.039
-0.000207457
108.516
-0.000207635
107.991
-0.000207745
107.465
-0.000207762
106.938
-0.000207666
106.411
-0.000207434
105.882
-0.000207044
105.352
-0.000206468
104.822
-0.000205671
104.29
-0.000204608
103.757
-0.00020323
103.223
-0.000201482
102.688
-0.00019931
102.152
-0.000196658
101.615
-0.000193481
101.076
-0.000189738
100.537
-0.0001854
99.9959
-0.00018045
99.4542
-0.000174884
98.9115
-0.000168713
98.3679
-0.000161962
97.8236
-0.000154674
97.2785
-0.000146904
96.7328
-0.000138722
96.1866
-0.000130209
95.6399
-0.000121455
95.0929
-0.000112557
94.5457
-0.000103617
93.9982
-9.47345e-05
93.4506
-8.60078e-05
92.903
-7.75284e-05
92.3554
-6.93792e-05
91.8079
-6.16314e-05
91.2605
-5.43442e-05
90.7133
-4.75619e-05
90.1662
-4.1315e-05
89.6193
-3.56197e-05
89.0725
-3.04799e-05
88.526
-2.58881e-05
87.9797
-2.18265e-05
87.4336
-1.82689e-05
86.8876
-1.51821e-05
86.3418
-1.25291e-05
85.7962
-1.027e-05
85.2507
-8.36396e-06
84.7053
-6.7701e-06
84.16
-5.44853e-06
83.6148
-4.36158e-06
83.0696
-3.47401e-06
82.5246
-2.75414e-06
81.9797
-2.17371e-06
81.4349
-1.70866e-06
80.8902
-1.3376e-06
80.3456
-1.0424e-06
79.8012
-8.06555e-07
79.257
-6.17688e-07
78.7129
-4.64905e-07
78.1691
-3.40733e-07
77.6255
-2.37908e-07
77.0822
-1.51161e-07
76.5391
-7.57639e-08
75.9964
-1.02934e-08
75.454
5.26659e-08
74.9119
1.07189e-07
74.3702
1.5724e-07
73.8289
2.07501e-07
73.2879
2.57428e-07
72.7474
3.06733e-07
72.2072
3.57149e-07
71.6675
4.06109e-07
71.1283
4.56473e-07
70.5895
5.07006e-07
70.0512
5.59329e-07
69.5135
6.13458e-07
68.9762
6.6916e-07
68.4396
7.26007e-07
67.9036
7.84018e-07
67.3682
8.42013e-07
66.8335
9.02683e-07
66.2995
9.63109e-07
65.7664
1.02789e-06
65.234
1.09296e-06
64.7026
1.16051e-06
64.1721
1.22998e-06
63.6426
1.30201e-06
63.1141
1.37364e-06
62.5868
1.44922e-06
62.0606
1.52256e-06
61.5356
1.59932e-06
61.012
1.67508e-06
60.4897
1.75477e-06
59.9688
1.83403e-06
59.4494
1.91651e-06
58.9316
1.99761e-06
58.4153
2.08358e-06
57.9008
2.1626e-06
57.3879
2.25183e-06
56.8767
2.33189e-06
56.3674
2.42825e-06
55.86
2.5026e-06
55.3544
2.60025e-06
54.8508
2.67903e-06
54.3491
2.78055e-06
53.8495
2.85189e-06
53.3519
2.95559e-06
52.8564
3.02477e-06
52.363
3.14285e-06
51.8717
3.19793e-06
51.3826
3.33119e-06
50.8956
3.36305e-06
50.4109
3.53386e-06
49.9284
3.52048e-06
49.4481
3.75393e-06
48.9702
3.64469e-06
48.4945
4.03039e-06
48.0211
3.6811e-06
47.5501
4.46649e-06
47.0814
3.46303e-06
46.6151
5.25684e-06
46.1512
2.77593e-06
45.6896
6.62526e-06
45.2305
1.49473e-06
44.7737
8.4855e-06
44.3193
-1.5689e-08
43.8673
1.03528e-05
43.4177
-1.29418e-06
42.9705
1.16797e-05
42.5257
-2.25798e-06
42.0835
1.36918e-05
41.6437
-5.16492e-06
41.2065
1.90344e-05
40.7719
-8.23294e-06
40.3399
6.60213e-05
39.9105
0.000232584
39.4842
0.00148584
39.0627
0.00860254
38.6519
0.0646614
0.147756
38.3157
11.701
-0.000329
11.6604
-0.000237133
11.6197
-0.000228625
11.5789
-0.000230803
11.5381
-0.000231661
11.4972
-0.000231905
11.4562
-0.000232161
11.4152
-0.000232422
11.3742
-0.000232595
11.3332
-0.000232693
11.2922
-0.000232798
11.2512
-0.000232878
11.2102
-0.000232947
11.1692
-0.000233011
11.1282
-0.000233073
11.0871
-0.000233136
11.0461
-0.000233201
11.005
-0.000233267
10.9639
-0.000233337
10.9228
-0.000233409
10.8817
-0.000233484
10.8404
-0.000233563
10.7992
-0.000233643
10.7578
-0.000233728
10.7164
-0.000233814
10.6749
-0.000233906
10.6333
-0.000233999
10.5916
-0.000234095
10.5498
-0.000234197
10.5079
-0.000234302
10.4659
-0.000234409
10.4238
-0.000234527
10.3815
-0.000234641
10.3392
-0.000234765
10.2968
-0.000234894
10.2542
-0.000235024
10.2116
-0.000235168
10.1688
-0.00023531
10.126
-0.000235467
10.0831
-0.000235634
10.0401
-0.000235804
9.99709
-0.000235976
9.95398
-0.000236153
9.91082
-0.000236333
9.86763
-0.000236524
9.82441
-0.000236733
9.78117
-0.000236965
9.73791
-0.000237214
9.69462
-0.000237473
9.65131
-0.000237736
9.60798
-0.000237985
9.56462
-0.000238241
9.52126
-0.000238487
9.47788
-0.000238743
9.43449
-0.000239008
9.39108
-0.000239279
9.34766
-0.00023955
9.30422
-0.00023982
9.26077
-0.000240089
9.21728
-0.000240358
9.17377
-0.000240627
9.13021
-0.000240894
9.08661
-0.000241141
9.04294
-0.00024134
8.99921
-0.00024146
8.9554
-0.000241475
8.91151
-0.00024136
8.86754
-0.00024109
8.82348
-0.000240642
8.77935
-0.000239983
8.73513
-0.000239074
8.69082
-0.000237864
8.64642
-0.000236296
8.60193
-0.000234307
8.55734
-0.000231831
8.51266
-0.000228808
8.46788
-0.000225181
8.423
-0.000220905
8.37803
-0.000215944
8.33296
-0.000210278
8.28782
-0.000203898
8.24259
-0.000196817
8.1973
-0.000189061
8.15193
-0.000180677
8.10651
-0.000171727
8.06104
-0.00016229
8.01552
-0.000152457
7.96997
-0.000142332
7.92438
-0.000132027
7.87878
-0.000121656
7.83316
-0.000111337
7.78753
-0.000101184
7.7419
-9.13038e-05
7.69626
-8.17936e-05
7.65064
-7.27383e-05
7.60502
-6.4208e-05
7.55942
-5.62568e-05
7.51383
-4.8922e-05
7.46825
-4.22247e-05
7.42269
-3.61713e-05
7.37715
-3.0755e-05
7.33163
-2.59568e-05
7.28612
-2.17477e-05
7.24062
-1.809e-05
7.19514
-1.49414e-05
7.14967
-1.22563e-05
7.10421
-9.98744e-06
7.05876
-8.08734e-06
7.01331
-6.50966e-06
6.96788
-5.21034e-06
6.92245
-4.14824e-06
6.87704
-3.28597e-06
6.83163
-2.59049e-06
6.78623
-2.03304e-06
6.74083
-1.58863e-06
6.69545
-1.23516e-06
6.65009
-9.53418e-07
6.60473
-7.27932e-07
6.5594
-5.46268e-07
6.51408
-3.98752e-07
6.46878
-2.77199e-07
6.4235
-1.74818e-07
6.37825
-8.61164e-08
6.33302
-8.19455e-09
6.28782
6.32826e-08
6.24265
1.27562e-07
6.1975
1.87269e-07
6.15239
2.45813e-07
6.10731
3.04006e-07
6.06227
3.61941e-07
6.01726
4.20228e-07
5.97228
4.7787e-07
5.92734
5.3626e-07
5.88244
5.95406e-07
5.83759
6.56386e-07
5.79277
7.19454e-07
5.74801
7.84461e-07
5.70328
8.50836e-07
5.65862
9.1826e-07
5.614
9.86325e-07
5.56944
1.05635e-06
5.52495
1.12784e-06
5.48052
1.2024e-06
5.43616
1.27881e-06
5.39187
1.35762e-06
5.34766
1.43861e-06
5.30353
1.52203e-06
5.25949
1.6067e-06
5.21555
1.69367e-06
5.1717
1.7803e-06
5.12796
1.86879e-06
5.08432
1.95807e-06
5.04079
2.05017e-06
4.99739
2.14335e-06
4.95411
2.23874e-06
4.91095
2.33465e-06
4.86793
2.43247e-06
4.82505
2.52842e-06
4.78231
2.62835e-06
4.73971
2.7264e-06
4.69727
2.83062e-06
4.65498
2.92805e-06
4.61285
3.03348e-06
4.57088
3.13293e-06
4.52908
3.23981e-06
4.48744
3.33628e-06
4.44598
3.44422e-06
4.40468
3.54158e-06
4.36357
3.65634e-06
4.32262
3.74938e-06
4.28186
3.86918e-06
4.24129
3.95417e-06
4.20089
4.0874e-06
4.16068
4.158e-06
4.12066
4.31422e-06
4.08083
4.35355e-06
4.04119
4.56222e-06
4.00174
4.51879e-06
3.96249
4.86476e-06
3.92344
4.5935e-06
3.88458
5.29577e-06
3.84592
4.50057e-06
3.80746
5.94382e-06
3.76919
4.18315e-06
3.73113
6.78685e-06
3.69326
3.76172e-06
3.65559
7.64165e-06
3.61812
3.44079e-06
3.58086
8.25862e-06
3.54379
3.30835e-06
3.50694
9.02615e-06
3.47029
2.558e-06
3.43386
1.09351e-05
3.39764
1.60713e-06
3.36167
2.75736e-05
3.32605
8.68073e-05
3.29144
0.000535965
3.26132
0.00339937
3.24468
0.0461838
0.113864
3.24372
5.85013
5.82957
5.80898
5.78834
5.76767
5.74696
5.72623
5.70549
5.68475
5.66399
5.64323
5.62248
5.60172
5.58097
5.56021
5.53945
5.51868
5.4979
5.47711
5.4563
5.43546
5.41461
5.39371
5.37279
5.35183
5.33082
5.30977
5.28867
5.26753
5.24632
5.22507
5.20376
5.1824
5.16098
5.13951
5.11799
5.09642
5.0748
5.05313
5.03143
5.00969
4.98791
4.96611
4.94428
4.92243
4.90057
4.87869
4.85681
4.83491
4.813
4.79108
4.76915
4.74721
4.72526
4.70331
4.68135
4.65939
4.63741
4.61543
4.59343
4.57142
4.54938
4.52732
4.50523
4.4831
4.46094
4.43874
4.41649
4.39421
4.37189
4.34952
4.32711
4.30466
4.28216
4.25962
4.23704
4.2144
4.19173
4.16901
4.14626
4.12346
4.10064
4.07779
4.05492
4.03202
4.00911
3.98619
3.96326
3.94033
3.91739
3.89446
3.87154
3.84862
3.82572
3.80283
3.77995
3.75709
3.73424
3.71141
3.68859
3.66579
3.643
3.62022
3.59745
3.57469
3.55194
3.5292
3.50647
3.48374
3.46102
3.4383
3.41559
3.39288
3.37018
3.34748
3.32479
3.30211
3.27943
3.25676
3.2341
3.21145
3.18881
3.16619
3.14357
3.12097
3.09839
3.07581
3.05326
3.03072
3.0082
2.98569
2.96321
2.94074
2.91829
2.89586
2.87346
2.85107
2.82871
2.80638
2.78407
2.7618
2.73955
2.71734
2.69516
2.67301
2.65091
2.62885
2.60683
2.58486
2.56294
2.54107
2.51925
2.49749
2.47579
2.45415
2.43258
2.41107
2.38963
2.36827
2.34697
2.32575
2.30461
2.28355
2.26257
2.24167
2.22086
2.20013
2.17948
2.15893
2.13846
2.11809
2.0978
2.07761
2.05751
2.0375
2.01759
1.99778
1.97806
1.95844
1.93892
1.91949
1.90017
1.88094
1.86182
1.84279
1.82386
1.80504
1.78631
1.76768
1.74915
1.73074
1.71241
1.69421
1.6761
1.65813
1.64033
1.62309
1.60883
1.63744
1.73387
1.39619
0.0290207
1.40229
-0.0104479
1.40604
-0.0080955
1.41782
-0.0161204
1.4499
-0.0364116
1.51427
-0.0687058
1.58509
-0.0751584
1.59921
-0.0184597
1.55848
0.0363878
1.47905
0.0750861
1.36936
0.105373
1.2844
0.0806802
1.39079
-0.110602
1.69504
-0.308436
2.09396
-0.403161
2.46651
-0.376898
2.62394
-0.161916
2.52476
0.0946942
2.35197
0.168402
0.122562
2.22501
2.99896
0.0286725
3.01324
-0.0332151
3.04045
-0.043786
3.07649
-0.0606284
3.14901
-0.117391
3.28658
-0.214741
3.4563
-0.253343
3.51895
-0.0895831
3.48151
0.0653853
3.35655
0.191589
3.13788
0.31561
2.88767
0.322535
2.94268
-0.173821
3.32108
-0.695022
3.91493
-1.00531
4.65284
-1.12333
5.19346
-0.711349
5.28424
-0.00481111
5.17882
0.26533
0.418672
4.87421
38.2498
0.0151522
38.1455
-0.00811146
37.9912
0.0315063
37.788
0.0634444
37.4997
0.0919141
37.0934
0.112643
36.6357
0.125327
36.3364
0.130907
36.1904
0.132429
36.1705
0.132543
36.2744
0.132701
36.3842
0.133733
35.9933
0.137797
35.075
0.144046
33.8451
0.14564
32.5068
0.136224
31.5993
0.117384
31.4135
0.102061
31.5064
0.0935562
0.0744499
31.7717
3.2099
0.0442677
3.19385
0.0032033
3.20789
0.0126825
3.2452
0.0213973
3.30492
0.0274784
3.37926
0.0336047
3.4617
0.038193
3.5475
0.0404078
3.6341
0.0411342
3.72066
0.0412939
3.80704
0.0416297
3.89327
0.0428173
3.98101
0.0453636
4.07179
0.0485732
4.1636
0.0491395
4.25121
0.0439287
4.32756
0.0363501
4.39768
0.0272635
4.47511
0.0114646
-0.0340538
4.57895
1.77589
1.77683
1.78724
1.80637
1.8316
1.86295
1.8989
1.93706
1.97595
2.015
2.05438
2.09496
2.13808
2.1844
2.2313
2.27298
2.30708
2.33211
2.34133
2.30504
2.24213
-0.0304912
2.83106
-0.602272
3.1625
-0.34511
3.13927
0.00981512
3.05371
0.0724185
3.22993
-0.189209
3.42249
-0.205829
3.40784
0.00179048
3.36373
0.0312598
3.53707
-0.186104
3.64119
-0.117124
3.59436
0.0340169
3.48614
0.0956705
3.57066
-0.0967075
3.78526
-0.227206
3.81221
-0.0396598
3.7357
0.0641253
3.6049
0.118618
3.54744
0.0454113
3.77903
-0.243664
3.91079
-0.144258
3.86786
0.0307523
3.78855
0.0674819
3.69336
0.0834976
3.70765
-0.0257276
3.79335
-0.0973984
3.79764
-0.0159682
3.76122
0.0249642
3.7266
0.023314
3.69689
0.0184799
3.67317
0.0125694
3.65355
0.00855739
3.63582
0.00674489
3.6179
0.00702388
3.59672
0.0103714
3.56623
0.0197717
3.51568
0.0399108
3.48915
0.0159724
3.58086
-0.102303
3.60721
-0.0369608
3.58309
0.0137419
3.55741
0.0154644
3.53407
0.0132179
3.5145
0.0095288
3.49798
0.00656724
3.48327
0.00485669
3.46959
0.00390582
3.45654
0.00336751
3.44388
0.0030598
3.4315
0.00288041
3.41931
0.00276828
3.40733
0.00266065
3.39556
0.002531
3.38399
0.00242152
3.37258
0.00235035
3.36129
0.00231725
3.35009
0.00231719
3.33895
0.00234474
3.32785
0.00239518
3.31678
0.00246423
3.30571
0.00254711
3.29463
0.00263831
3.28356
0.00273191
3.27248
0.00282183
3.26141
0.00290225
3.25037
0.00296808
3.23936
0.00301524
3.22842
0.00304155
3.21756
0.00304649
3.2068
0.00303086
3.19615
0.00299607
3.18565
0.00294363
3.1753
0.00287692
3.1651
0.00279981
3.15508
0.00271401
3.14521
0.00263305
3.13549
0.00257046
3.12588
0.00254496
3.1163
0.00258213
3.10667
0.00271672
3.09683
0.0029991
3.08656
0.00350661
3.07551
0.00436786
3.06308
0.0058152
3.04825
0.00830321
3.02902
0.0127734
3.0014
0.0212507
2.95762
0.0374829
2.88734
0.0640658
2.78886
0.0923473
2.83473
-0.0517589
3.04568
-0.216979
3.14589
-0.106369
3.11295
0.0269652
3.05585
0.0513184
2.9954
0.0547716
2.93869
0.0510926
2.88576
0.0474112
2.83455
0.0457554
2.78415
0.0450139
2.73449
0.044335
2.68577
0.0434919
2.63784
0.0427962
2.58991
0.0428762
2.54044
0.0444794
2.4873
0.0481605
2.42815
0.0542788
2.36056
0.0628339
2.2821
0.0737902
2.19041
0.0870963
2.0834
0.102448
1.95962
0.119087
1.81881
0.136287
1.66243
0.152029
1.49472
0.163468
1.32326
0.167389
1.15744
0.161816
1.00642
0.147033
0.876609
0.125858
0.770472
0.102231
0.686979
0.079639
0.622965
0.060233
0.574576
0.0446806
0.53819
0.03275
0.51079
0.0238336
0.49003
0.0172651
0.474142
0.0124634
0.461819
0.00896853
0.452102
0.00643212
0.44429
0.00459594
0.437874
0.00327023
0.43248
0.002316
0.427838
0.00163158
0.423752
0.00114266
0.42008
0.000794924
0.41672
0.000548795
0.413597
0.000375465
0.410659
0.000254052
0.407868
0.000169471
0.405196
0.000110885
0.402624
7.05369e-05
0.400139
4.29169e-05
0.39773
2.41177e-05
0.395389
1.1398e-05
0.393112
2.79435e-06
0.390894
-2.96751e-06
0.388732
-6.77691e-06
0.386622
-9.3352e-06
0.384564
-1.09072e-05
0.382554
-1.19816e-05
0.380592
-1.26876e-05
0.378675
-1.31361e-05
0.376802
-1.34393e-05
0.374971
-1.36223e-05
0.373181
-1.3757e-05
0.371429
-1.38351e-05
0.369715
-1.3908e-05
0.368037
-1.39495e-05
0.366394
-1.39897e-05
0.364783
-1.40087e-05
0.363203
-1.40293e-05
0.361653
-1.4037e-05
0.360131
-1.40706e-05
0.358636
-1.40753e-05
0.357166
-1.41225e-05
0.355721
-1.41128e-05
0.354298
-1.41585e-05
0.352896
-1.41335e-05
0.351513
-1.41847e-05
0.350148
-1.41506e-05
0.348799
-1.42282e-05
0.347463
-1.41607e-05
0.346138
-1.42865e-05
0.344822
-1.41235e-05
0.343512
-1.43738e-05
0.342206
-1.39521e-05
0.340901
-1.46582e-05
0.339594
-1.37147e-05
0.338286
-1.50764e-05
0.336972
-1.33625e-05
0.335655
-1.53766e-05
0.334332
-1.30607e-05
0.333007
-1.54969e-05
0.331678
-1.30103e-05
0.33035
-1.54522e-05
0.329023
-1.31334e-05
0.327703
-1.55107e-05
0.326391
-1.29761e-05
0.325092
-1.60834e-05
0.323804
-1.22843e-05
0.322532
-1.62281e-05
0.321273
-1.25303e-05
0.320028
-1.4543e-05
0.318792
-9.20129e-06
0.31755
7.13665e-06
0.316226
0.000100485
0.31448
0.000532286
0.311128
0.00215092
0.316804
-0.00685926
-0.00727219
0.322907
4.08878
0.728077
4.83653
-1.37666
5.49337
-1.02907
5.46222
0.0141837
5.14002
0.368201
5.3564
-0.431781
5.77404
-0.649683
5.78664
-0.036331
5.59172
0.200442
5.85978
-0.479846
6.13483
-0.417949
6.09403
0.0494318
5.79117
0.373423
5.83284
-0.163056
6.28139
-0.700748
6.47272
-0.256075
6.38988
0.122401
6.08139
0.402746
5.82136
0.281012
6.21861
-0.664915
6.61905
-0.569367
6.69199
-0.0662478
6.60452
0.131418
6.40249
0.262115
6.3879
-0.0341917
6.58263
-0.315332
6.68588
-0.142403
6.69021
-0.00219877
6.66514
0.0257781
6.63271
0.0284572
6.60204
0.0209491
6.57315
0.0153241
6.54385
0.0140987
6.51088
0.018208
6.46775
0.0318856
6.39881
0.0672822
6.26311
0.154306
6.13655
0.12131
6.28565
-0.272499
6.38928
-0.161671
6.39516
-0.0128266
6.37282
0.0173987
6.34271
0.0230838
6.31369
0.0184856
6.28704
0.0133171
6.26186
0.0103245
6.23747
0.00875488
6.21352
0.00794663
6.18984
0.00755606
6.16632
0.00738744
6.14294
0.00732012
6.11974
0.00719905
6.09683
0.00696246
6.0742
0.00675143
6.05181
0.00662521
6.0296
0.0065832
6.00754
0.00661132
5.9856
0.00669623
5.96377
0.00682754
5.94201
0.00699685
5.92032
0.00719533
5.89868
0.00741195
5.87709
0.00763492
5.85556
0.00785176
5.83408
0.00805085
5.81267
0.0082228
5.79135
0.00836097
5.77012
0.00846416
5.749
0.00853627
5.72798
0.00858515
5.70707
0.00862048
5.68624
0.00865195
5.66546
0.00869612
5.6447
0.00877194
5.6239
0.0088927
5.60295
0.009112
5.58173
0.0094859
5.56004
0.0100905
5.53761
0.011029
5.51404
0.0124426
5.48883
0.0145346
5.46119
0.0176161
5.43
0.0221968
5.39342
0.029184
5.34833
0.0403307
5.28892
0.0592605
5.20348
0.0939104
5.06819
0.160139
4.84299
0.276785
4.48493
0.438121
4.379
0.0424024
4.7376
-0.587564
5.07909
-0.460133
5.18026
-0.0861003
5.16679
0.0532463
5.10352
0.106671
5.02336
0.120031
4.9348
0.124883
4.83901
0.130611
4.73738
0.135891
4.63186
0.139279
4.5242
0.140718
4.41514
0.141491
4.30399
0.143809
4.18843
0.150036
4.06494
0.161848
3.92974
0.179835
3.7796
0.203471
3.6122
0.231691
3.42652
0.263215
3.22292
0.296748
3.00283
0.330159
2.76933
0.361005
2.52754
0.385262
2.28451
0.398208
2.05023
0.393484
1.83461
0.369316
1.64514
0.328463
1.48557
0.277477
1.3558
0.224166
1.25289
0.174846
1.17255
0.133014
1.1103
0.0995218
1.0621
0.0736815
1.02462
0.0541846
0.995232
0.03966
0.971929
0.0289176
0.95318
0.0210086
0.937837
0.0152054
0.925042
0.0109605
0.914153
0.0078657
0.904696
0.00561763
0.896316
0.00399129
0.888752
0.00282004
0.881813
0.00198066
0.875356
0.00138226
0.869279
0.000957983
0.863506
0.000658887
0.857982
0.000449274
0.852668
0.000303264
0.847534
0.000202177
0.84256
0.000132637
0.837728
8.50912e-05
0.833029
5.27923e-05
0.828452
3.09035e-05
0.82399
1.62961e-05
0.819639
6.59304e-06
0.815392
-4.1231e-08
0.811247
-4.08283e-06
0.807199
-6.88544e-06
0.803245
-8.7217e-06
0.799381
-9.88124e-06
0.795605
-1.06631e-05
0.791913
-1.11273e-05
0.788303
-1.1466e-05
0.78477
-1.16428e-05
0.781312
-1.18042e-05
0.777926
-1.18758e-05
0.774609
-1.19516e-05
0.771357
-1.19782e-05
0.768168
-1.20179e-05
0.765037
-1.20142e-05
0.761964
-1.20756e-05
0.758943
-1.2042e-05
0.755974
-1.21339e-05
0.753052
-1.20692e-05
0.750176
-1.21721e-05
0.747342
-1.20831e-05
0.744546
-1.22018e-05
0.741786
-1.20853e-05
0.739057
-1.2261e-05
0.736355
-1.20553e-05
0.733675
-1.23698e-05
0.731012
-1.19158e-05
0.728361
-1.2551e-05
0.725718
-1.13321e-05
0.723077
-1.33532e-05
0.720434
-1.05982e-05
0.717786
-1.45673e-05
0.715129
-9.6513e-06
0.712464
-1.53093e-05
0.709788
-8.92924e-06
0.707106
-1.54957e-05
0.704418
-8.81267e-06
0.70173
-1.53774e-05
0.699047
-8.99515e-06
0.696376
-1.5725e-05
0.693722
-8.35629e-06
0.691092
-1.75338e-05
0.688485
-6.22136e-06
0.68591
-1.79741e-05
0.683362
-6.89189e-06
0.680841
-1.29219e-05
0.678339
3.2576e-06
0.675822
5.36109e-05
0.673134
0.000342709
0.669534
0.00170474
0.661824
0.00746107
0.632252
0.0203424
0.0462435
0.576399
31.7336
0.438442
29.6054
0.426138
27.9644
0.289596
27.4201
0.238528
27.2058
0.264215
26.1839
0.273452
25.0019
0.217981
24.4703
0.182472
24.1677
0.192635
23.1887
0.190729
22.3202
0.144694
21.941
0.124541
21.8729
0.139058
21.2516
0.157053
20.1308
0.12201
19.4987
0.0806079
19.2507
0.0762897
19.2667
0.0943157
19.1357
0.121283
18.0752
0.106964
17.159
0.06126
16.766
0.0428903
16.5663
0.048507
16.4875
0.0601303
16.1043
0.069542
15.4576
0.0545751
15.0032
0.0375314
14.695
0.0331534
14.4161
0.0337194
14.1425
0.0329364
13.8651
0.0312333
13.5862
0.0290204
13.3105
0.026512
13.0436
0.0239031
12.7947
0.0215285
12.5844
0.0203714
12.4602
0.0233897
12.296
0.0322789
11.7477
0.0251365
11.3273
0.0103222
11.0625
0.0053898
10.8286
0.00661011
10.6019
0.00701553
10.373
0.00669349
10.1418
0.00594375
9.91052
0.00502531
9.68078
0.00406633
9.45328
0.00312203
9.22842
0.00221122
9.00635
0.00138901
8.78735
0.000370602
8.57242
-0.00168077
8.36112
-0.00340098
8.15265
-0.0043022
7.94682
-0.0049232
7.74359
-0.00540532
7.54294
-0.00582236
7.34491
-0.00619385
7.14948
-0.00651447
6.95663
-0.00677388
6.76632
-0.00696224
6.57847
-0.0070711
6.393
-0.00709782
6.20983
-0.0070444
6.02885
-0.00691903
5.84996
-0.00673275
5.67308
-0.00650117
5.49814
-0.00624325
5.32508
-0.00597984
5.15388
-0.0057388
4.98457
-0.00555378
4.81722
-0.00545876
4.65195
-0.00547907
4.48897
-0.00570361
4.3284
-0.00602199
4.17046
-0.00648908
4.01545
-0.00710409
3.86371
-0.00787188
3.71576
-0.00881217
3.57226
-0.00995354
3.43412
-0.0113368
3.30264
-0.013013
3.17963
-0.0150584
3.06795
-0.017549
2.97207
-0.0203915
2.89932
-0.022808
2.86172
-0.0215264
2.88142
-0.0108099
3.00691
0.00190176
3.27764
0.0196606
3.13743
0.0357143
2.42932
-0.02359
1.9685
-0.140977
1.90134
-0.15894
1.97102
-0.154734
2.10459
-0.163378
2.27682
-0.186873
2.49183
-0.22296
2.759
-0.267519
3.08158
-0.315783
3.45563
-0.361986
3.8696
-0.398611
4.30578
-0.418188
4.7445
-0.416558
5.16956
-0.394823
5.57444
-0.361001
5.96424
-0.326094
6.35146
-0.298051
6.7495
-0.27884
7.16656
-0.264532
7.60824
-0.253834
8.07292
-0.241681
8.54783
-0.219352
9.01647
-0.18715
9.46348
-0.150923
9.87304
-0.11658
10.2314
-0.0879602